ITEM: TIMESTEP
59
ITEM: NUMBER OF ATOMS
688
ITEM: BOX BOUNDS pp pp pp
0.0000000000000000e+00 2.2013900999999997e+01
0.0000000000000000e+00 2.2013900999999997e+01
0.0000000000000000e+00 2.2013900999999997e+01
ITEM: ATOMS id type x y z c_pot
1 1 22.0139 -5.37928e-16 9.83277e-07 -8.94962
2 1 1.57241 1.57242 1.57241 -8.94961
193 1 11.045 7.83244 10.9934 -8.82795
4 1 4.71727 1.57242 1.57242 -8.94967
175 1 18.8693 9.43438 9.4345 -8.94932
6 1 7.86211 1.57241 1.57242 -8.94964
7 1 9.43453 5.60573e-16 2.38029e-16 -8.94964
8 1 11.007 1.57242 1.57242 -8.94964
9 1 12.5794 -1.23206e-16 9.40414e-08 -8.94964
10 1 14.1518 1.57242 1.57242 -8.94964
174 1 15.7252 9.43394 9.43432 -8.94343
12 1 17.2966 1.57241 1.57241 -8.94961
191 1 4.7112 7.86031 11.0095 -8.95623
14 1 20.4415 1.57242 1.57242 -8.94963
15 1 22.0139 3.14484 4.43002e-06 -8.9496
16 1 1.5724 4.71725 1.57242 -8.94964
190 1 1.5715 7.86181 11.0071 -8.95035
18 1 4.7172 4.71719 1.5723 -8.94958
173 1 12.5713 9.44024 9.43422 -8.90037
20 1 7.8621 4.7172 1.57236 -8.94956
21 1 9.43453 3.14483 3.51235e-16 -8.94965
22 1 11.007 4.7172 1.57235 -8.94962
188 1 17.2968 4.71715 11.007 -8.94947
24 1 14.1518 4.71722 1.57239 -8.94981
172 1 9.35871 9.21428 9.43166 -8.08549
26 1 17.2967 4.71719 1.57234 -8.94932
171 1 6.25301 9.40624 9.40912 -8.88933
28 1 20.4415 4.71726 1.57241 -8.94963
186 1 11.0083 4.71221 11.0065 -8.95548
30 1 1.57241 7.86211 1.57242 -8.94962
31 1 3.14477 6.28962 9.6012e-05 -8.94965
32 1 4.71718 7.86208 1.57238 -8.94989
170 1 3.13912 9.43368 9.43336 -8.95658
34 1 7.86197 7.86192 1.57187 -8.95062
35 1 9.43453 6.28958 1.66472e-15 -8.94958
36 1 11.0069 7.86186 1.57192 -8.94981
37 1 12.5794 6.28961 4.12799e-05 -8.94972
38 1 14.1521 7.86177 1.57168 -8.95023
169 1 22.0133 9.43448 9.43447 -8.95081
40 1 17.2967 7.8621 1.57238 -8.94971
168 1 18.8692 6.28959 9.4345 -8.94971
42 1 20.4415 7.86211 1.57242 -8.94963
167 1 15.7254 6.2888 9.43419 -8.94869
166 1 12.5839 6.28483 9.42937 -8.93405
45 1 6.28959 9.43447 0.000381545 -8.95049
46 1 9.43453 9.4344 3.85074e-16 -8.94982
165 1 9.43186 6.28394 9.43333 -8.99634
48 1 15.7243 9.43451 -6.0434e-05 -8.94955
184 1 4.71663 4.71656 11.0073 -8.94922
50 1 22.0139 -1.54492e-16 3.14484 -8.94964
51 1 1.57241 1.57241 4.71726 -8.94964
52 1 3.14483 -3.78007e-16 3.14483 -8.94961
53 1 4.7172 1.57232 4.7172 -8.94964
54 1 6.28969 6.87586e-16 3.14484 -8.94964
55 1 7.86212 1.57236 4.71722 -8.94961
56 1 9.43453 -5.94071e-16 3.14483 -8.94964
57 1 11.007 1.57234 4.7172 -8.9496
58 1 12.5794 -3.18698e-16 3.14483 -8.94962
59 1 14.1518 1.57233 4.71722 -8.9498
60 1 15.7242 2.50153e-16 3.14483 -8.94966
61 1 17.2966 1.57241 4.71726 -8.94961
62 1 18.8691 2.09478e-16 3.14484 -8.94963
63 1 20.4415 1.57242 4.71726 -8.94964
64 1 22.0139 3.14483 3.14483 -8.94958
65 1 1.57224 4.71712 4.71713 -8.9493
66 1 3.14477 3.14476 3.14476 -8.94935
67 1 4.71655 4.71652 4.7165 -8.94742
68 1 6.28969 3.1448 3.1448 -8.94979
69 1 7.86212 4.71685 4.71691 -8.94986
70 1 9.43452 3.14477 3.14478 -8.94964
71 1 11.007 4.7167 4.71678 -8.94878
72 1 12.5794 3.14478 3.14479 -8.94955
73 1 14.1523 4.71634 4.71673 -8.94974
74 1 15.7243 3.14472 3.14476 -8.94956
75 1 17.2967 4.71723 4.71726 -8.94987
76 1 18.8691 3.14484 3.14484 -8.94967
77 1 20.4415 4.71725 4.71725 -8.94963
78 1 22.0139 6.28968 3.14483 -8.94967
79 1 1.57232 7.8621 4.71718 -8.94969
80 1 3.14474 6.28962 3.14471 -8.94983
81 1 4.71664 7.86185 4.7163 -8.95102
82 1 6.28926 6.28923 3.14394 -8.94977
83 1 7.86028 7.86005 4.71238 -8.9531
84 1 9.43449 6.28921 3.14426 -8.94888
85 1 11.0065 7.86059 4.71386 -8.95182
86 1 12.5794 6.28937 3.1444 -8.95003
87 1 14.1569 7.85698 4.7122 -8.93515
88 1 15.7249 6.28896 3.14413 -8.94727
89 1 17.2974 7.86175 4.71691 -8.95008
90 1 18.8692 6.28963 3.14478 -8.94962
91 1 20.4415 7.86208 4.71723 -8.94975
92 1 -5.76405e-06 9.43453 3.14483 -8.94964
93 1 3.14473 9.43451 3.14471 -8.94947
94 1 6.28944 9.43467 3.14417 -8.95048
95 1 9.43415 9.43408 3.14323 -8.94964
96 1 12.5804 9.43368 3.14094 -8.95537
97 1 15.7246 9.4344 3.1444 -8.94929
98 1 18.8691 9.43452 3.14479 -8.94957
99 1 22.0139 1.30875e-15 6.28969 -8.94964
100 1 1.57241 1.57241 7.86211 -8.94966
101 1 3.14482 3.83767e-16 6.28967 -8.94963
102 1 4.71717 1.57226 7.86206 -8.94968
103 1 6.28964 8.03566e-16 6.28963 -8.94985
104 1 7.86203 1.57194 7.86199 -8.95046
105 1 9.43455 -2.41811e-17 6.28964 -8.94973
106 1 11.007 1.57216 7.86201 -8.94968
107 1 12.5794 7.44033e-16 6.28965 -8.94982
108 1 14.1519 1.57229 7.86205 -8.94963
109 1 15.7242 1.24074e-15 6.28967 -8.94961
110 1 17.2966 1.57241 7.8621 -8.94965
111 1 18.8691 5.51799e-17 6.28969 -8.94964
112 1 20.4415 1.57242 7.86211 -8.94964
113 1 -6.66253e-06 3.14484 6.28968 -8.94966
114 1 1.57231 4.71718 7.8621 -8.94975
115 1 3.14473 3.14468 6.28961 -8.94965
116 1 4.71641 4.71598 7.86156 -8.94938
117 1 6.28937 3.14405 6.2893 -8.95019
118 1 7.86117 4.71302 7.86093 -8.95477
119 1 9.43467 3.14427 6.28942 -8.94966
120 1 11.0073 4.71563 7.86155 -8.95005
121 1 12.5795 3.14427 6.28952 -8.95075
122 1 14.1527 4.7163 7.8616 -8.94721
123 1 15.7243 3.14473 6.28963 -8.94933
124 1 17.2968 4.71714 7.86204 -8.94953
125 1 18.8691 3.14483 6.28968 -8.94962
126 1 20.4415 4.71725 7.8621 -8.94964
127 1 22.0137 6.2896 6.2896 -8.94973
128 1 1.57118 7.86169 7.8617 -8.95092
129 1 3.14336 6.28861 6.28862 -8.94769
130 1 4.70807 7.85585 7.85605 -8.94101
131 1 6.28463 6.28438 6.2842 -8.93532
132 1 7.83389 7.83519 7.83423 -8.86384
133 1 9.43517 6.28639 6.28779 -8.95048
134 1 11.0181 7.85576 7.84575 -8.92061
135 1 12.5818 6.28485 6.28697 -8.95343
136 1 14.1539 7.86144 7.86345 -8.95177
137 1 15.7245 6.28947 6.28974 -8.95064
138 1 17.2971 7.86187 7.86218 -8.94946
139 1 18.8691 6.28964 6.28968 -8.94962
140 1 20.4414 7.86205 7.86208 -8.94985
141 1 22.0138 9.43452 6.2896 -8.94967
142 1 3.14396 9.43453 6.28902 -8.9492
143 1 6.28692 9.43518 6.28509 -8.9565
144 1 9.42602 9.42195 6.28385 -8.91666
145 1 12.6079 9.40925 6.26347 -8.86256
146 1 15.7285 9.43344 6.28845 -8.95507
147 1 18.8695 9.43447 6.28961 -8.95052
148 1 -1.58442e-06 8.43665e-16 9.43453 -8.94963
149 1 3.14483 1.74001e-15 9.43453 -8.94963
150 1 6.2896 1.51207e-15 9.4345 -8.94993
151 1 9.43454 6.02597e-16 9.43449 -8.95008
152 1 12.5794 1.64567e-15 9.43448 -8.94984
153 1 15.7242 1.70614e-15 9.43453 -8.94964
154 1 18.8691 1.40123e-15 9.43453 -8.94964
155 1 -1.03918e-05 3.14483 9.43453 -8.94963
156 1 3.14476 3.14475 9.43455 -8.94972
157 1 6.2892 3.14362 9.43439 -8.95024
158 1 9.43454 3.14318 9.43432 -8.94962
159 1 12.5798 3.14395 9.4342 -8.9498
160 1 15.7243 3.1447 9.43452 -8.94968
161 1 18.8691 3.14483 9.43453 -8.94965
162 1 22.0138 6.28961 9.43453 -8.94966
163 1 3.14385 6.2891 9.43461 -8.95006
164 1 6.28442 6.2819 9.43263 -8.94929
177 1 4.71718 1.57231 11.007 -8.94955
178 1 7.86197 1.5718 11.007 -8.95058
181 1 17.2966 1.57241 11.007 -8.94964
11 1 15.7242 1.0153e-15 2.20166e-07 -8.94965
19 1 6.28968 3.14483 3.41442e-06 -8.94963
25 1 15.7242 3.14483 9.20546e-06 -8.94965
43 1 22.0139 9.43453 3.38095e-06 -8.94965
41 1 18.8691 6.28969 -2.18424e-06 -8.94966
176 1 1.57241 1.57241 11.0069 -8.94964
343 1 18.8691 9.43453 18.8691 -8.94964
342 1 15.7243 9.43451 18.8692 -8.94947
179 1 11.0071 1.5718 11.0069 -8.95058
180 1 14.1519 1.57231 11.0069 -8.94955
341 1 12.5796 9.43467 18.8697 -8.95048
182 1 20.4415 1.57242 11.007 -8.94964
183 1 1.57228 4.71715 11.007 -8.94947
340 1 9.43491 9.43408 18.8707 -8.94964
185 1 7.8608 4.71221 11.0074 -8.95548
339 1 6.28869 9.43368 18.873 -8.95537
187 1 14.1524 4.71656 11.0066 -8.94922
338 1 3.14441 9.4344 18.8695 -8.94929
189 1 20.4415 4.71724 11.007 -8.94963
337 1 -7.46078e-05 9.43452 18.8691 -8.94957
336 1 20.4415 7.86211 20.4415 -8.94963
192 1 7.82411 7.83244 11.0205 -8.82795
335 1 18.8691 6.28968 18.8691 -8.94967
194 1 14.1579 7.86031 11.0044 -8.95623
195 1 17.2976 7.86181 11.0068 -8.95035
196 1 20.4415 7.86204 11.007 -8.94984
197 1 -1.08859e-06 1.23549e-15 12.5794 -8.94964
198 1 1.57241 1.57241 14.1518 -8.94965
199 1 3.14482 1.20656e-15 12.5794 -8.94964
200 1 4.71717 1.57229 14.1518 -8.94963
201 1 6.28961 1.89423e-15 12.5794 -8.94984
202 1 7.86204 1.57216 14.1519 -8.94968
203 1 9.43452 1.62061e-16 12.5794 -8.95008
204 1 11.007 1.57194 14.1519 -8.95046
205 1 12.5795 1.45145e-15 12.5794 -8.94993
206 1 14.1519 1.57226 14.1518 -8.94968
207 1 15.7242 1.55551e-15 12.5794 -8.94963
208 1 17.2966 1.57241 14.1518 -8.94966
209 1 18.8691 1.32044e-15 12.5794 -8.94963
210 1 20.4415 1.57242 14.1518 -8.94964
211 1 22.0139 3.14483 12.5794 -8.94965
212 1 1.57225 4.71714 14.1519 -8.94953
213 1 3.14473 3.1447 12.5794 -8.94968
214 1 4.71636 4.7163 14.1523 -8.94721
215 1 6.28926 3.14395 12.5797 -8.9498
216 1 7.86175 4.71563 14.1523 -8.95005
217 1 9.43452 3.14318 12.5796 -8.94962
218 1 11.0079 4.71302 14.153 -8.95477
219 1 12.5799 3.14362 12.5795 -8.95024
220 1 14.1526 4.71598 14.1523 -8.94938
221 1 15.7243 3.14475 12.5794 -8.94972
222 1 17.2968 4.71718 14.1518 -8.94975
223 1 18.8691 3.14483 12.5794 -8.94963
224 1 20.4415 4.71725 14.1518 -8.94964
225 1 -0.000153101 6.28959 12.5794 -8.94971
226 1 1.57192 7.86187 14.1517 -8.94946
227 1 3.14363 6.2888 12.5797 -8.94869
228 1 4.71518 7.86144 14.1505 -8.95177
229 1 6.28514 6.28483 12.5845 -8.93405
230 1 7.851 7.85576 14.1682 -8.92061
231 1 9.4372 6.28394 12.5806 -8.99634
232 1 11.0352 7.83519 14.1797 -8.86384
233 1 12.5846 6.2819 12.5813 -8.94929
234 1 14.161 7.85585 14.1579 -8.94101
235 1 15.7252 6.2891 12.5793 -8.95006
236 1 17.2979 7.86169 14.1522 -8.95092
237 1 18.8692 6.28961 12.5794 -8.94966
238 1 20.4415 7.86205 14.1518 -8.94985
239 1 22.0136 9.43438 12.5794 -8.94932
240 1 3.14388 9.43394 12.5796 -8.94343
241 1 6.29776 9.44024 12.5797 -8.90037
242 1 9.51035 9.21428 12.5822 -8.08549
243 1 12.616 9.40624 12.6048 -8.88933
244 1 15.7299 9.43368 12.5805 -8.95658
245 1 18.8697 9.43448 12.5794 -8.95081
246 1 -1.21977e-06 -3.58809e-16 15.7242 -8.94964
247 1 1.57241 1.57241 17.2966 -8.94961
248 1 3.14482 9.63632e-16 15.7242 -8.94961
249 1 4.71723 1.57233 17.2967 -8.9498
250 1 6.28966 1.1538e-15 15.7243 -8.94982
251 1 7.86209 1.57234 17.2967 -8.9496
252 1 9.43451 -5.31311e-16 15.7243 -8.94973
253 1 11.0069 1.57236 17.2967 -8.94961
254 1 12.5794 8.97767e-16 15.7243 -8.94985
255 1 14.1519 1.57232 17.2967 -8.94964
256 1 15.7242 4.38529e-16 15.7242 -8.94963
257 1 17.2966 1.57241 17.2966 -8.94964
258 1 18.8691 1.23077e-15 15.7242 -8.94964
259 1 20.4415 1.57242 17.2966 -8.94964
260 1 -1.67685e-05 3.14483 15.7242 -8.94962
261 1 1.57238 4.71723 17.2966 -8.94987
262 1 3.14474 3.14473 15.7243 -8.94933
263 1 4.71676 4.71634 17.2972 -8.94974
264 1 6.28954 3.14427 15.7244 -8.95075
265 1 7.86206 4.7167 17.2971 -8.94878
266 1 9.43439 3.14427 15.7245 -8.94966
267 1 11.0069 4.71685 17.297 -8.94986
268 1 12.5797 3.14405 15.7246 -8.95019
269 1 14.1525 4.71652 17.2974 -8.94742
270 1 15.7243 3.14468 15.7243 -8.94965
271 1 17.2968 4.71712 17.2968 -8.9493
272 1 18.8691 3.14484 15.7242 -8.94966
273 1 20.4415 4.71725 17.2966 -8.94963
274 1 22.0139 6.28964 15.7242 -8.94962
275 1 1.57165 7.86175 17.297 -8.95008
276 1 3.14451 6.28947 15.7242 -8.95064
277 1 4.71216 7.85698 17.3017 -8.93515
278 1 6.2873 6.28485 15.7269 -8.95343
279 1 7.86257 7.86059 17.3 -8.95182
280 1 9.43389 6.28639 15.7261 -8.95048
281 1 11.0088 7.86005 17.3015 -8.9531
282 1 12.5844 6.28438 15.7297 -8.93532
283 1 14.1524 7.86185 17.2976 -8.95102
284 1 15.7257 6.28861 15.7253 -8.94769
285 1 17.2967 7.8621 17.2967 -8.94969
286 1 18.8692 6.2896 15.7243 -8.94973
287 1 20.4414 7.86208 17.2967 -8.94975
288 1 22.0134 9.43447 15.7243 -8.95052
289 1 3.14056 9.43344 15.7255 -8.95507
290 1 6.26115 9.40925 15.7504 -8.86256
291 1 9.44304 9.42195 15.7301 -8.91666
292 1 12.5821 9.43518 15.7288 -8.9565
293 1 15.7251 9.43453 15.7249 -8.9492
294 1 18.8692 9.43452 15.7243 -8.94967
295 1 22.0139 3.19636e-16 18.8691 -8.94963
296 1 1.57241 1.57241 20.4415 -8.94961
297 1 3.14483 1.22633e-17 18.8691 -8.94966
298 1 4.71727 1.57242 20.4415 -8.94964
299 1 6.28968 -6.76623e-16 18.8691 -8.94962
300 1 7.86211 1.57242 20.4415 -8.94964
301 1 9.43453 -4.63156e-16 18.8691 -8.94964
302 1 11.007 1.57241 20.4415 -8.94964
303 1 12.5794 6.68485e-16 18.8691 -8.94964
304 1 14.1518 1.57242 20.4415 -8.94967
305 1 15.7242 -3.09697e-16 18.8691 -8.94961
306 1 17.2966 1.57242 20.4415 -8.94961
307 1 18.8691 2.51598e-16 18.8691 -8.94964
308 1 20.4415 1.57242 20.4415 -8.94963
309 1 22.0139 3.14484 18.8691 -8.94967
310 1 1.57234 4.71719 20.4416 -8.94932
311 1 3.14476 3.14472 18.8691 -8.94956
312 1 4.71726 4.71722 20.4415 -8.94981
313 1 6.28968 3.14478 18.8691 -8.94955
314 1 7.8621 4.7172 20.4416 -8.94962
315 1 9.43454 3.14477 18.8691 -8.94964
316 1 11.007 4.7172 20.4415 -8.94956
317 1 12.5794 3.1448 18.8691 -8.94979
318 1 14.1519 4.71719 20.4416 -8.94958
319 1 15.7243 3.14476 18.8691 -8.94935
320 1 17.2967 4.71725 20.4415 -8.94964
321 1 18.8691 3.14483 18.8691 -8.94958
322 1 20.4415 4.71726 20.4415 -8.94963
323 1 22.0138 6.28963 18.8691 -8.94962
324 1 1.57238 7.8621 20.4415 -8.94971
325 1 3.14412 6.28896 18.8698 -8.94727
326 1 4.71693 7.86177 20.4422 -8.95023
327 1 6.28967 6.28937 18.8695 -8.95003
328 1 7.86221 7.86186 20.442 -8.94981
329 1 9.43456 6.28921 18.8696 -8.94888
330 1 11.0071 7.86192 20.442 -8.95062
331 1 12.5798 6.28923 18.87 -8.94977
332 1 14.1519 7.86208 20.4415 -8.94989
333 1 15.7243 6.28962 18.8692 -8.94983
334 1 17.2966 7.86211 20.4415 -8.94962
5 1 6.28969 4.029e-16 22.0139 -8.94964
47 1 12.5795 9.43447 22.0135 -8.95049
44 1 3.14478 9.43451 22.014 -8.94955
39 1 15.7243 6.28962 22.0138 -8.94965
27 1 18.8691 3.14484 22.0139 -8.9496
33 1 6.28965 6.28961 22.0139 -8.94972
3 1 3.14484 4.69879e-16 22.0139 -8.94965
13 1 18.8691 -6.32859e-16 22.0139 -8.94962
17 1 3.14484 3.14483 22.0139 -8.94965
23 1 12.5794 3.14483 22.0139 -8.94963
29 1 -3.07133e-06 6.28969 22.0139 -8.94966
49 1 18.8691 9.43453 22.0139 -8.94965
344 1 1.57241 11.007 1.57241 -8.94965
345 1 4.71714 11.007 1.57233 -8.94971
346 1 7.86203 11.007 1.57227 -8.94957
347 1 11.0068 11.007 1.57112 -8.95003
348 1 14.1521 11.007 1.57174 -8.94934
349 1 17.2967 11.007 1.57237 -8.94969
350 1 20.4415 11.007 1.57242 -8.94964
688 3 10.2191 11.007 9.43656 2.3921
352 1 1.57241 14.1518 1.57242 -8.94962
511 1 18.8691 18.8691 9.43453 -8.94965
354 1 4.71718 14.1518 1.57238 -8.94989
355 1 6.28959 12.5794 0.000381545 -8.95049
356 1 7.86197 14.152 1.57187 -8.95062
357 1 9.43453 12.5795 2.97875e-16 -8.94982
358 1 11.0069 14.152 1.57192 -8.94981
510 1 15.7243 18.8692 9.43452 -8.94968
360 1 14.1521 14.1521 1.57168 -8.95023
361 1 15.7243 12.5794 -6.0434e-05 -8.94955
362 1 17.2967 14.1518 1.57238 -8.94971
538 1 17.2966 20.4415 11.007 -8.94964
364 1 20.4415 14.1518 1.57242 -8.94963
535 1 7.86197 20.4421 11.007 -8.95058
366 1 1.5724 17.2967 1.57242 -8.94964
367 1 3.14477 15.7243 9.6012e-05 -8.94965
368 1 4.7172 17.2967 1.5723 -8.94958
509 1 12.5798 18.8699 9.4342 -8.9498
370 1 7.8621 17.2967 1.57236 -8.94956
371 1 9.43453 15.7243 1.59075e-15 -8.94958
372 1 11.007 17.2967 1.57235 -8.94962
373 1 12.5794 15.7243 4.12799e-05 -8.94972
374 1 14.1518 17.2967 1.57239 -8.94981
508 1 9.43454 18.8707 9.43432 -8.94962
376 1 17.2967 17.2967 1.57234 -8.94932
507 1 6.2892 18.8703 9.43439 -8.95024
378 1 20.4415 17.2966 1.57241 -8.94963
379 1 22.0139 18.8691 4.43002e-06 -8.9496
380 1 1.57241 20.4415 1.57241 -8.94961
534 1 4.71718 20.4416 11.007 -8.94955
382 1 4.71727 20.4415 1.57242 -8.94967
506 1 3.14476 18.8691 9.43455 -8.94972
384 1 7.86211 20.4415 1.57242 -8.94964
385 1 9.43453 18.8691 -1.32209e-16 -8.94965
386 1 11.007 20.4415 1.57242 -8.94964
531 1 17.2968 17.2968 11.007 -8.94947
388 1 14.1518 20.4415 1.57242 -8.94964
505 1 -1.03918e-05 18.8691 9.43453 -8.94963
390 1 17.2966 20.4415 1.57241 -8.94961
504 1 18.8692 15.7243 9.4345 -8.94971
392 1 20.4415 20.4415 1.57242 -8.94963
393 1 1.57229 11.007 4.71714 -8.94963
394 1 4.71649 11.007 4.71606 -8.94779
395 1 7.86287 11.007 4.71623 -8.94908
396 1 11.0091 11.007 4.71261 -8.99475
397 1 14.1552 11.007 4.71374 -8.94607
398 1 17.2973 11.007 4.71692 -8.94927
399 1 20.4415 11.007 4.71723 -8.94968
400 1 -5.76405e-06 12.5794 3.14483 -8.94964
401 1 1.57232 14.1518 4.71718 -8.94969
402 1 3.14473 12.5794 3.14471 -8.94947
403 1 4.71664 14.152 4.7163 -8.95102
404 1 6.28944 12.5792 3.14417 -8.95048
405 1 7.86028 14.1539 4.71238 -8.9531
406 1 9.43415 12.5798 3.14323 -8.94964
407 1 11.0065 14.1533 4.71386 -8.95182
408 1 12.5804 12.5802 3.14094 -8.95537
409 1 14.1569 14.1569 4.7122 -8.93515
410 1 15.7246 12.5795 3.1444 -8.94929
411 1 17.2974 14.1521 4.71691 -8.95008
412 1 18.8691 12.5794 3.14479 -8.94957
413 1 20.4415 14.1518 4.71723 -8.94975
414 1 22.0139 15.7242 3.14483 -8.94967
415 1 1.57224 17.2968 4.71713 -8.9493
416 1 3.14474 15.7243 3.14471 -8.94983
417 1 4.71655 17.2974 4.7165 -8.94742
418 1 6.28926 15.7247 3.14394 -8.94977
419 1 7.86212 17.2971 4.71691 -8.94986
420 1 9.43449 15.7247 3.14426 -8.94888
421 1 11.007 17.2972 4.71678 -8.94878
422 1 12.5794 15.7245 3.1444 -8.95003
423 1 14.1523 17.2976 4.71673 -8.94974
424 1 15.7249 15.7249 3.14413 -8.94727
425 1 17.2967 17.2967 4.71726 -8.94987
426 1 18.8692 15.7243 3.14478 -8.94962
427 1 20.4415 17.2967 4.71725 -8.94963
428 1 22.0139 18.8691 3.14483 -8.94958
429 1 1.57241 20.4415 4.71726 -8.94964
430 1 3.14477 18.8691 3.14476 -8.94935
431 1 4.7172 20.4416 4.7172 -8.94964
432 1 6.28969 18.8691 3.1448 -8.94979
433 1 7.86212 20.4415 4.71722 -8.94961
434 1 9.43452 18.8691 3.14478 -8.94964
435 1 11.007 20.4416 4.7172 -8.9496
436 1 12.5794 18.8691 3.14479 -8.94955
437 1 14.1518 20.4416 4.71722 -8.9498
438 1 15.7243 18.8692 3.14476 -8.94956
439 1 17.2966 20.4415 4.71726 -8.94961
440 1 18.8691 18.8691 3.14484 -8.94967
441 1 20.4415 20.4415 4.71726 -8.94964
442 1 1.57151 11.007 7.86163 -8.94875
443 1 4.71367 11.007 7.8582 -8.94079
444 1 7.86934 11.007 7.86266 -8.94137
445 1 11.0895 11.007 7.65355 -8.09098
446 1 14.162 11.007 7.85839 -8.97063
447 1 17.2982 11.007 7.86224 -8.95172
448 1 20.4416 11.007 7.86208 -8.94997
449 1 22.0138 12.5794 6.2896 -8.94967
450 1 1.57118 14.1522 7.8617 -8.95092
451 1 3.14396 12.5794 6.28902 -8.9492
452 1 4.70807 14.158 7.85605 -8.94101
453 1 6.28692 12.5787 6.28509 -8.9565
454 1 7.83389 14.1787 7.83423 -8.86384
455 1 9.42602 12.5919 6.28385 -8.91666
456 1 11.0181 14.1581 7.84575 -8.92061
457 1 12.6079 12.6047 6.26347 -8.86256
458 1 14.1539 14.1525 7.86345 -8.95177
459 1 15.7285 12.5805 6.28845 -8.95507
460 1 17.2971 14.152 7.86218 -8.94946
461 1 18.8695 12.5794 6.28961 -8.95052
462 1 20.4414 14.1519 7.86208 -8.94985
463 1 22.0137 15.7243 6.2896 -8.94973
464 1 1.57231 17.2967 7.8621 -8.94975
465 1 3.14336 15.7253 6.28862 -8.94769
466 1 4.71641 17.2979 7.86156 -8.94938
467 1 6.28463 15.7295 6.2842 -8.93532
468 1 7.86117 17.3009 7.86093 -8.95477
469 1 9.43517 15.7275 6.28779 -8.95048
470 1 11.0073 17.2983 7.86155 -8.95005
471 1 12.5818 15.729 6.28697 -8.95343
472 1 14.1527 17.2976 7.8616 -8.94721
473 1 15.7245 15.7244 6.28974 -8.95064
474 1 17.2968 17.2968 7.86204 -8.94953
475 1 18.8691 15.7243 6.28968 -8.94962
476 1 20.4415 17.2967 7.8621 -8.94964
477 1 -6.66253e-06 18.8691 6.28968 -8.94966
478 1 1.57241 20.4415 7.86211 -8.94966
479 1 3.14473 18.8692 6.28961 -8.94965
480 1 4.71717 20.4416 7.86206 -8.94968
481 1 6.28937 18.8699 6.2893 -8.95019
482 1 7.86203 20.442 7.86199 -8.95046
483 1 9.43467 18.8696 6.28942 -8.94966
484 1 11.007 20.4417 7.86201 -8.94968
485 1 12.5795 18.8696 6.28952 -8.95075
486 1 14.1519 20.4416 7.86205 -8.94963
487 1 15.7243 18.8692 6.28963 -8.94933
488 1 17.2966 20.4415 7.8621 -8.94965
489 1 18.8691 18.8691 6.28968 -8.94962
490 1 20.4415 20.4415 7.86211 -8.94964
491 1 22.0133 12.5794 9.43447 -8.95081
492 1 3.13912 12.5802 9.43336 -8.95658
493 1 6.25301 12.6077 9.40912 -8.88933
494 1 9.35871 12.7996 9.43166 -8.08549
495 1 12.5713 12.5737 9.43422 -8.90037
496 1 15.7252 12.58 9.43432 -8.94343
497 1 18.8693 12.5795 9.4345 -8.94932
498 1 22.0138 15.7243 9.43453 -8.94966
499 1 3.14385 15.7248 9.43461 -8.95006
500 1 6.28442 15.732 9.43263 -8.94929
501 1 9.43186 15.73 9.43333 -8.99634
502 1 12.5839 15.7291 9.42937 -8.93405
503 1 15.7254 15.7251 9.43419 -8.94869
512 1 1.57068 11.007 11.0073 -8.95124
513 1 4.70737 11.007 11.0042 -8.96843
514 1 7.78164 11.007 10.7917 -8.0172
519 1 1.5715 14.1521 11.0071 -8.95035
520 1 4.7112 14.1536 11.0095 -8.95623
522 1 11.045 14.1815 10.9934 -8.82795
527 1 4.71663 17.2973 11.0073 -8.94922
529 1 11.0083 17.3017 11.0065 -8.95548
351 1 22.0139 12.5794 3.38095e-06 -8.94965
377 1 18.8691 15.7242 -2.18424e-06 -8.94966
389 1 15.7242 18.8691 9.20546e-06 -8.94965
383 1 6.28968 18.8691 3.41442e-06 -8.94963
687 3 8.64994 11.007 12.5773 2.3921
686 1 20.4415 20.4415 20.4415 -8.94963
685 1 18.8691 18.8691 18.8691 -8.94958
515 1 11.0874 11.007 11.2222 -8.0172
516 1 14.1617 11.007 11.0097 -8.96843
517 1 17.2984 11.007 11.0066 -8.95124
518 1 20.4415 11.007 11.007 -8.95019
684 1 17.2966 20.4415 20.4415 -8.94961
683 1 15.7243 18.8691 18.8691 -8.94935
521 1 7.82411 14.1815 11.0205 -8.82795
682 1 14.1518 20.4415 20.4415 -8.94967
523 1 14.1579 14.1536 11.0044 -8.95623
524 1 17.2976 14.1521 11.0068 -8.95035
525 1 20.4415 14.1519 11.007 -8.94984
526 1 1.57228 17.2968 11.007 -8.94947
681 1 12.5794 18.8691 18.8691 -8.94979
528 1 7.8608 17.3017 11.0074 -8.95548
680 1 11.007 20.4415 20.4415 -8.94964
530 1 14.1524 17.2973 11.0066 -8.94922
679 1 9.43454 18.8691 18.8691 -8.94964
532 1 20.4415 17.2967 11.007 -8.94963
533 1 1.57241 20.4415 11.0069 -8.94964
678 1 7.86211 20.4415 20.4415 -8.94964
677 1 6.28968 18.8691 18.8691 -8.94955
536 1 11.0071 20.4421 11.0069 -8.95058
537 1 14.1519 20.4416 11.0069 -8.94955
676 1 4.71727 20.4415 20.4415 -8.94964
539 1 20.4415 20.4415 11.007 -8.94964
540 1 1.57082 11.007 14.1517 -8.95172
541 1 4.70703 11.007 14.1555 -8.97063
542 1 7.77955 11.007 14.3604 -8.09098
543 1 10.9997 11.007 14.1512 -8.94137
544 1 14.1554 11.007 14.1557 -8.94079
545 1 17.2975 11.007 14.1523 -8.94875
546 1 20.4414 11.007 14.1518 -8.94997
547 1 22.0136 12.5795 12.5794 -8.94932
548 1 1.57192 14.152 14.1517 -8.94946
549 1 3.14388 12.58 12.5796 -8.94343
550 1 4.71518 14.1525 14.1505 -8.95177
551 1 6.29776 12.5737 12.5797 -8.90037
552 1 7.851 14.1581 14.1682 -8.92061
553 1 9.51035 12.7996 12.5822 -8.08549
554 1 11.0352 14.1787 14.1797 -8.86384
555 1 12.616 12.6077 12.6048 -8.88933
556 1 14.161 14.158 14.1579 -8.94101
557 1 15.7299 12.5802 12.5805 -8.95658
558 1 17.2979 14.1522 14.1522 -8.95092
559 1 18.8697 12.5794 12.5794 -8.95081
560 1 20.4415 14.1519 14.1518 -8.94985
561 1 -0.000153101 15.7243 12.5794 -8.94971
562 1 1.57225 17.2968 14.1519 -8.94953
563 1 3.14363 15.7251 12.5797 -8.94869
564 1 4.71636 17.2976 14.1523 -8.94721
565 1 6.28514 15.7291 12.5845 -8.93405
566 1 7.86175 17.2983 14.1523 -8.95005
567 1 9.4372 15.73 12.5806 -8.99634
568 1 11.0079 17.3009 14.153 -8.95477
569 1 12.5846 15.732 12.5813 -8.94929
570 1 14.1526 17.2979 14.1523 -8.94938
571 1 15.7252 15.7248 12.5793 -8.95006
572 1 17.2968 17.2967 14.1518 -8.94975
573 1 18.8692 15.7243 12.5794 -8.94966
574 1 20.4415 17.2967 14.1518 -8.94964
575 1 22.0139 18.8691 12.5794 -8.94965
576 1 1.57241 20.4415 14.1518 -8.94965
577 1 3.14473 18.8692 12.5794 -8.94968
578 1 4.71717 20.4416 14.1518 -8.94963
579 1 6.28926 18.8699 12.5797 -8.9498
580 1 7.86204 20.4417 14.1519 -8.94968
581 1 9.43452 18.8707 12.5796 -8.94962
582 1 11.007 20.442 14.1519 -8.95046
583 1 12.5799 18.8703 12.5795 -8.95024
584 1 14.1519 20.4416 14.1518 -8.94968
585 1 15.7243 18.8691 12.5794 -8.94972
586 1 17.2966 20.4415 14.1518 -8.94966
587 1 18.8691 18.8691 12.5794 -8.94963
588 1 20.4415 20.4415 14.1518 -8.94964
589 1 1.57175 11.007 17.297 -8.94927
590 1 4.71388 11.007 17.3002 -8.94607
591 1 7.85997 11.007 17.3013 -8.99475
592 1 11.0062 11.007 17.2977 -8.94908
593 1 14.1526 11.007 17.2978 -8.94779
594 1 17.2968 11.007 17.2968 -8.94963
595 1 20.4414 11.007 17.2967 -8.94968
596 1 22.0134 12.5794 15.7243 -8.95052
597 1 1.57165 14.1521 17.297 -8.95008
598 1 3.14056 12.5805 15.7255 -8.95507
599 1 4.71216 14.1569 17.3017 -8.93515
600 1 6.26115 12.6047 15.7504 -8.86256
601 1 7.86257 14.1533 17.3 -8.95182
602 1 9.44304 12.5919 15.7301 -8.91666
603 1 11.0088 14.1539 17.3015 -8.9531
604 1 12.5821 12.5787 15.7288 -8.9565
605 1 14.1524 14.152 17.2976 -8.95102
606 1 15.7251 12.5794 15.7249 -8.9492
607 1 17.2967 14.1518 17.2967 -8.94969
608 1 18.8692 12.5794 15.7243 -8.94967
609 1 20.4414 14.1518 17.2967 -8.94975
610 1 22.0139 15.7243 15.7242 -8.94962
611 1 1.57238 17.2967 17.2966 -8.94987
612 1 3.14451 15.7244 15.7242 -8.95064
613 1 4.71676 17.2976 17.2972 -8.94974
614 1 6.2873 15.729 15.7269 -8.95343
615 1 7.86206 17.2972 17.2971 -8.94878
616 1 9.43389 15.7275 15.7261 -8.95048
617 1 11.0069 17.2971 17.297 -8.94986
618 1 12.5844 15.7295 15.7297 -8.93532
619 1 14.1525 17.2974 17.2974 -8.94742
620 1 15.7257 15.7253 15.7253 -8.94769
621 1 17.2968 17.2968 17.2968 -8.9493
622 1 18.8692 15.7243 15.7243 -8.94973
623 1 20.4415 17.2967 17.2966 -8.94963
624 1 -1.67685e-05 18.8691 15.7242 -8.94962
625 1 1.57241 20.4415 17.2966 -8.94961
626 1 3.14474 18.8692 15.7243 -8.94933
627 1 4.71723 20.4416 17.2967 -8.9498
628 1 6.28954 18.8696 15.7244 -8.95075
629 1 7.86209 20.4416 17.2967 -8.9496
630 1 9.43439 18.8696 15.7245 -8.94966
631 1 11.0069 20.4415 17.2967 -8.94961
632 1 12.5797 18.8699 15.7246 -8.95019
633 1 14.1519 20.4416 17.2967 -8.94964
634 1 15.7243 18.8692 15.7243 -8.94965
635 1 17.2966 20.4415 17.2966 -8.94964
636 1 18.8691 18.8691 15.7242 -8.94966
637 1 20.4415 20.4415 17.2966 -8.94964
638 1 1.57237 11.007 20.4415 -8.94969
639 1 4.71691 11.007 20.4422 -8.94934
640 1 7.86222 11.007 20.4428 -8.95003
641 1 11.007 11.007 20.4416 -8.94957
642 1 14.1519 11.007 20.4416 -8.94971
643 1 17.2967 11.007 20.4415 -8.94965
644 1 20.4415 11.007 20.4415 -8.94964
645 1 -7.46078e-05 12.5794 18.8691 -8.94957
646 1 1.57238 14.1518 20.4415 -8.94971
647 1 3.14441 12.5795 18.8695 -8.94929
648 1 4.71693 14.1521 20.4422 -8.95023
649 1 6.28869 12.5802 18.873 -8.95537
650 1 7.86221 14.152 20.442 -8.94981
651 1 9.43491 12.5798 18.8707 -8.94964
652 1 11.0071 14.152 20.442 -8.95062
653 1 12.5796 12.5792 18.8697 -8.95048
654 1 14.1519 14.1518 20.4415 -8.94989
655 1 15.7243 12.5794 18.8692 -8.94947
656 1 17.2966 14.1518 20.4415 -8.94962
657 1 18.8691 12.5794 18.8691 -8.94964
658 1 20.4415 14.1518 20.4415 -8.94963
659 1 22.0138 15.7243 18.8691 -8.94962
660 1 1.57234 17.2967 20.4416 -8.94932
661 1 3.14412 15.7249 18.8698 -8.94727
662 1 4.71726 17.2967 20.4415 -8.94981
663 1 6.28967 15.7245 18.8695 -8.95003
664 1 7.8621 17.2967 20.4416 -8.94962
665 1 9.43456 15.7247 18.8696 -8.94888
666 1 11.007 17.2967 20.4415 -8.94956
667 1 12.5798 15.7247 18.87 -8.94977
668 1 14.1519 17.2967 20.4416 -8.94958
669 1 15.7243 15.7243 18.8692 -8.94983
670 1 17.2967 17.2967 20.4415 -8.94964
671 1 18.8691 15.7242 18.8691 -8.94967
672 1 20.4415 17.2966 20.4415 -8.94963
673 1 22.0139 18.8691 18.8691 -8.94967
674 1 1.57241 20.4415 20.4415 -8.94961
675 1 3.14476 18.8692 18.8691 -8.94956
391 1 18.8691 18.8691 22.0139 -8.9496
353 1 3.14478 12.5794 22.014 -8.94955
359 1 12.5795 12.5794 22.0135 -8.95049
369 1 6.28965 15.7243 22.0139 -8.94972
375 1 15.7243 15.7243 22.0138 -8.94965
363 1 18.8691 12.5794 22.0139 -8.94965
365 1 -3.07133e-06 15.7242 22.0139 -8.94966
381 1 3.14484 18.8691 22.0139 -8.94965
387 1 12.5794 18.8691 22.0139 -8.94963
