ITEM: TIMESTEP
39
ITEM: NUMBER OF ATOMS
688
ITEM: BOX BOUNDS pp pp pp
0.0000000000000000e+00 2.2013900999999997e+01
0.0000000000000000e+00 2.2013900999999997e+01
0.0000000000000000e+00 2.2013900999999997e+01
ITEM: ATOMS id type x y z c_pot
1 1 22.0139 -2.37432e-16 2.21458e-11 -8.94963
2 1 1.57242 1.57242 1.57242 -8.94963
193 1 11.0103 7.8592 11.0054 -8.90784
4 1 4.71726 1.57242 1.57242 -8.94963
175 1 18.8691 9.43453 9.43453 -8.94966
6 1 7.86211 1.57242 1.57242 -8.94963
7 1 9.43453 4.96442e-16 2.81383e-16 -8.94963
8 1 11.007 1.57242 1.57242 -8.94963
9 1 12.5794 2.08835e-16 8.00599e-11 -8.94963
10 1 14.1518 1.57242 1.57242 -8.94963
174 1 15.7243 9.43449 9.43453 -8.95011
12 1 17.2966 1.57242 1.57242 -8.94963
191 1 4.71711 7.86202 11.0069 -8.94963
14 1 20.4415 1.57242 1.57242 -8.94963
15 1 22.0139 3.14484 4.71922e-10 -8.94963
16 1 1.57242 4.71726 1.57242 -8.94963
190 1 1.57242 7.86211 11.0069 -8.94965
18 1 4.71726 4.71726 1.57242 -8.94963
173 1 12.5828 9.43179 9.43448 -8.91122
20 1 7.86211 4.71726 1.57242 -8.94963
21 1 9.43453 3.14484 3.18074e-16 -8.94963
22 1 11.007 4.71726 1.57242 -8.94963
188 1 17.2966 4.71726 11.007 -8.94964
24 1 14.1518 4.71726 1.57242 -8.94964
172 1 9.38977 9.33955 9.43399 -7.97151
26 1 17.2966 4.71726 1.57242 -8.94963
171 1 6.28581 9.43187 9.43218 -8.92705
28 1 20.4415 4.71726 1.57242 -8.94963
186 1 11.007 4.71712 11.0069 -8.94944
30 1 1.57242 7.86211 1.57242 -8.94963
31 1 3.14484 6.28969 7.99698e-08 -8.94963
32 1 4.71726 7.86211 1.57242 -8.94963
170 1 3.14474 9.43451 9.43451 -8.9504
34 1 7.86211 7.86211 1.57242 -8.94963
35 1 9.43453 6.28969 5.97167e-16 -8.94963
36 1 11.007 7.86211 1.57242 -8.94964
37 1 12.5794 6.28969 2.02163e-07 -8.94963
38 1 14.1518 7.86211 1.57242 -8.94962
169 1 22.0139 9.43453 9.43453 -8.94966
40 1 17.2966 7.86211 1.57242 -8.94964
168 1 18.8691 6.28969 9.43453 -8.94963
42 1 20.4415 7.86211 1.57242 -8.94963
167 1 15.7242 6.28969 9.43453 -8.9497
166 1 12.5794 6.28958 9.43445 -8.94982
45 1 6.28969 9.43453 2.11964e-06 -8.94965
46 1 9.43453 9.43453 9.48599e-17 -8.94964
165 1 9.43447 6.28689 9.43458 -8.96836
48 1 15.7242 9.43453 1.26799e-07 -8.94963
184 1 4.71727 4.71727 11.0069 -8.94976
50 1 22.0139 -1.56356e-16 3.14484 -8.94963
51 1 1.57242 1.57242 4.71726 -8.94963
52 1 3.14484 -8.72351e-17 3.14484 -8.94963
53 1 4.71726 1.57242 4.71726 -8.94963
54 1 6.28969 4.27331e-16 3.14484 -8.94963
55 1 7.86211 1.57242 4.71726 -8.94963
56 1 9.43453 2.6944e-16 3.14484 -8.94963
57 1 11.007 1.57242 4.71726 -8.94963
58 1 12.5794 7.75707e-17 3.14484 -8.94963
59 1 14.1518 1.57242 4.71726 -8.94963
60 1 15.7242 1.37084e-16 3.14484 -8.94963
61 1 17.2966 1.57242 4.71726 -8.94963
62 1 18.8691 8.28061e-17 3.14484 -8.94963
63 1 20.4415 1.57242 4.71726 -8.94963
64 1 22.0139 3.14484 3.14484 -8.94963
65 1 1.57242 4.71726 4.71726 -8.94963
66 1 3.14484 3.14484 3.14484 -8.94963
67 1 4.71726 4.71726 4.71726 -8.9496
68 1 6.28969 3.14484 3.14484 -8.94964
69 1 7.86211 4.71727 4.71727 -8.94972
70 1 9.43453 3.14484 3.14484 -8.94963
71 1 11.0069 4.71727 4.71727 -8.94965
72 1 12.5794 3.14484 3.14484 -8.94963
73 1 14.1518 4.71726 4.71726 -8.94963
74 1 15.7242 3.14484 3.14484 -8.94963
75 1 17.2966 4.71726 4.71726 -8.94963
76 1 18.8691 3.14484 3.14484 -8.94963
77 1 20.4415 4.71726 4.71726 -8.94963
78 1 22.0139 6.28969 3.14484 -8.94963
79 1 1.57242 7.86211 4.71726 -8.94964
80 1 3.14484 6.28969 3.14484 -8.94963
81 1 4.71726 7.8621 4.71726 -8.94966
82 1 6.28968 6.28969 3.14484 -8.94963
83 1 7.86208 7.86208 4.71719 -8.94995
84 1 9.43453 6.28969 3.14485 -8.94965
85 1 11.0069 7.86216 4.71729 -8.95101
86 1 12.5794 6.28969 3.14485 -8.94972
87 1 14.1519 7.86203 4.71719 -8.94851
88 1 15.7242 6.28968 3.14484 -8.9496
89 1 17.2966 7.86211 4.71726 -8.94964
90 1 18.8691 6.28969 3.14484 -8.94963
91 1 20.4415 7.86211 4.71726 -8.94963
92 1 -7.82373e-10 9.43453 3.14484 -8.94963
93 1 3.14484 9.43453 3.14484 -8.94964
94 1 6.28969 9.43453 3.14484 -8.94968
95 1 9.43449 9.43449 3.14479 -8.9493
96 1 12.5794 9.43449 3.14475 -8.94978
97 1 15.7242 9.43453 3.14485 -8.94972
98 1 18.8691 9.43453 3.14484 -8.94963
99 1 22.0139 1.7189e-16 6.28969 -8.94963
100 1 1.57242 1.57242 7.86211 -8.94963
101 1 3.14484 -9.03118e-17 6.28969 -8.94963
102 1 4.71726 1.57242 7.86211 -8.94963
103 1 6.28969 2.2564e-16 6.28969 -8.94963
104 1 7.86211 1.57242 7.86211 -8.94965
105 1 9.43453 4.70112e-16 6.28969 -8.94963
106 1 11.007 1.57242 7.86211 -8.94964
107 1 12.5794 2.32656e-16 6.28969 -8.94963
108 1 14.1518 1.57242 7.86211 -8.94963
109 1 15.7242 3.52582e-16 6.28969 -8.94963
110 1 17.2966 1.57242 7.86211 -8.94963
111 1 18.8691 1.97143e-16 6.28969 -8.94963
112 1 20.4415 1.57242 7.86211 -8.94963
113 1 4.73449e-09 3.14484 6.28969 -8.94963
114 1 1.57242 4.71726 7.86211 -8.94963
115 1 3.14484 3.14484 6.28969 -8.94964
116 1 4.71727 4.71727 7.86211 -8.94972
117 1 6.28968 3.14484 6.28968 -8.94963
118 1 7.86207 4.71718 7.86207 -8.94979
119 1 9.43453 3.14484 6.28969 -8.94964
120 1 11.007 4.71722 7.86207 -8.94939
121 1 12.5794 3.14484 6.28969 -8.94964
122 1 14.1518 4.71726 7.86211 -8.94963
123 1 15.7242 3.14484 6.28969 -8.94963
124 1 17.2966 4.71726 7.86211 -8.94964
125 1 18.8691 3.14484 6.28969 -8.94963
126 1 20.4415 4.71726 7.86211 -8.94963
127 1 22.0139 6.28969 6.28969 -8.94963
128 1 1.57242 7.86211 7.86211 -8.94965
129 1 3.14484 6.28968 6.28968 -8.9496
130 1 4.71712 7.86201 7.86201 -8.94893
131 1 6.28961 6.28961 6.28961 -8.9486
132 1 7.85967 7.85982 7.85968 -8.91851
133 1 9.43454 6.28972 6.28974 -8.95103
134 1 11.0078 7.8615 7.8611 -8.94028
135 1 12.5794 6.28961 6.28966 -8.94994
136 1 14.1519 7.86204 7.86204 -8.94923
137 1 15.7242 6.28969 6.28968 -8.94967
138 1 17.2966 7.86211 7.86211 -8.94964
139 1 18.8691 6.28969 6.28969 -8.94963
140 1 20.4415 7.86211 7.86211 -8.94963
141 1 22.0139 9.43453 6.28969 -8.94963
142 1 3.14484 9.43453 6.28969 -8.94973
143 1 6.28956 9.43442 6.28953 -8.94931
144 1 9.4337 9.43356 6.28906 -8.93971
145 1 12.5818 9.43207 6.28734 -8.91731
146 1 15.7243 9.43451 6.28967 -8.95006
147 1 18.8691 9.43453 6.28969 -8.94965
148 1 5.6312e-10 4.58006e-16 9.43453 -8.94963
149 1 3.14484 4.18905e-16 9.43453 -8.94963
150 1 6.28969 4.46939e-16 9.43453 -8.94963
151 1 9.43453 8.1006e-17 9.43453 -8.94967
152 1 12.5794 7.16751e-16 9.43453 -8.94963
153 1 15.7242 4.80786e-16 9.43453 -8.94963
154 1 18.8691 2.34529e-16 9.43453 -8.94963
155 1 1.66436e-09 3.14484 9.43453 -8.94963
156 1 3.14484 3.14484 9.43453 -8.94963
157 1 6.28969 3.14484 9.43453 -8.94963
158 1 9.43453 3.14478 9.43453 -8.95038
159 1 12.5794 3.14484 9.43453 -8.94966
160 1 15.7242 3.14484 9.43453 -8.94963
161 1 18.8691 3.14484 9.43453 -8.94963
162 1 22.0139 6.28969 9.43453 -8.94963
163 1 3.14484 6.28969 9.43453 -8.94966
164 1 6.2897 6.28965 9.43451 -8.95175
177 1 4.71726 1.57242 11.007 -8.94963
178 1 7.86211 1.57242 11.007 -8.94965
181 1 17.2966 1.57242 11.007 -8.94963
11 1 15.7242 3.97279e-16 6.8821e-11 -8.94963
19 1 6.28969 3.14484 1.05208e-08 -8.94963
25 1 15.7242 3.14484 4.03597e-09 -8.94963
43 1 22.0139 9.43453 7.00611e-09 -8.94963
41 1 18.8691 6.28969 2.84459e-09 -8.94963
176 1 1.57242 1.57242 11.007 -8.94963
343 1 18.8691 9.43453 18.8691 -8.94963
342 1 15.7242 9.43453 18.8691 -8.94964
179 1 11.007 1.57242 11.007 -8.94965
180 1 14.1518 1.57242 11.007 -8.94963
341 1 12.5794 9.43453 18.8691 -8.94968
182 1 20.4415 1.57242 11.007 -8.94963
183 1 1.57242 4.71726 11.007 -8.94964
340 1 9.43457 9.43449 18.8691 -8.9493
185 1 7.86203 4.71712 11.007 -8.94944
339 1 6.28965 9.43449 18.8691 -8.94978
187 1 14.1518 4.71727 11.007 -8.94976
338 1 3.14485 9.43453 18.8691 -8.94972
189 1 20.4415 4.71726 11.007 -8.94963
337 1 8.79458e-08 9.43453 18.8691 -8.94963
336 1 20.4415 7.86211 20.4415 -8.94963
192 1 7.8588 7.8592 11.0085 -8.90784
335 1 18.8691 6.28969 18.8691 -8.94963
194 1 14.1519 7.86202 11.007 -8.94963
195 1 17.2966 7.86211 11.007 -8.94965
196 1 20.4415 7.86211 11.007 -8.94963
197 1 -2.2124e-10 1.83308e-16 12.5794 -8.94963
198 1 1.57242 1.57242 14.1518 -8.94963
199 1 3.14484 4.35512e-16 12.5794 -8.94963
200 1 4.71726 1.57242 14.1518 -8.94963
201 1 6.28969 7.79397e-16 12.5794 -8.94963
202 1 7.86211 1.57242 14.1518 -8.94964
203 1 9.43453 3.86947e-17 12.5794 -8.94967
204 1 11.007 1.57242 14.1518 -8.94965
205 1 12.5794 4.45719e-16 12.5794 -8.94963
206 1 14.1518 1.57242 14.1518 -8.94963
207 1 15.7242 4.31104e-16 12.5794 -8.94963
208 1 17.2966 1.57242 14.1518 -8.94963
209 1 18.8691 4.70168e-16 12.5794 -8.94963
210 1 20.4415 1.57242 14.1518 -8.94963
211 1 22.0139 3.14484 12.5794 -8.94963
212 1 1.57242 4.71726 14.1518 -8.94964
213 1 3.14484 3.14484 12.5794 -8.94963
214 1 4.71726 4.71726 14.1518 -8.94963
215 1 6.28969 3.14484 12.5794 -8.94966
216 1 7.86207 4.71722 14.1518 -8.94939
217 1 9.43453 3.14478 12.5794 -8.95038
218 1 11.007 4.71718 14.1518 -8.94979
219 1 12.5794 3.14484 12.5794 -8.94963
220 1 14.1518 4.71727 14.1518 -8.94972
221 1 15.7242 3.14484 12.5794 -8.94963
222 1 17.2966 4.71726 14.1518 -8.94963
223 1 18.8691 3.14484 12.5794 -8.94963
224 1 20.4415 4.71726 14.1518 -8.94963
225 1 1.51748e-07 6.28969 12.5794 -8.94963
226 1 1.57242 7.86211 14.1518 -8.94964
227 1 3.14485 6.28969 12.5794 -8.9497
228 1 4.71718 7.86204 14.1519 -8.94923
229 1 6.28965 6.28958 12.5794 -8.94982
230 1 7.86122 7.8615 14.1528 -8.94028
231 1 9.43459 6.28689 12.5793 -8.96836
232 1 11.0094 7.85982 14.1542 -8.91851
233 1 12.5794 6.28965 12.5794 -8.95175
234 1 14.1519 7.86201 14.1519 -8.94893
235 1 15.7242 6.28969 12.5794 -8.94966
236 1 17.2966 7.86211 14.1518 -8.94965
237 1 18.8691 6.28969 12.5794 -8.94963
238 1 20.4415 7.86211 14.1518 -8.94963
239 1 22.0139 9.43453 12.5794 -8.94966
240 1 3.14472 9.43449 12.5794 -8.95011
241 1 6.2863 9.43179 12.5794 -8.91122
242 1 9.47929 9.33955 12.5799 -7.97151
243 1 12.5833 9.43187 12.5817 -8.92705
244 1 15.7243 9.43451 12.5794 -8.9504
245 1 18.8691 9.43453 12.5794 -8.94966
246 1 1.94145e-10 1.61232e-16 15.7242 -8.94963
247 1 1.57242 1.57242 17.2966 -8.94963
248 1 3.14484 4.53025e-16 15.7242 -8.94963
249 1 4.71726 1.57242 17.2966 -8.94963
250 1 6.28969 2.73913e-16 15.7242 -8.94963
251 1 7.86211 1.57242 17.2966 -8.94963
252 1 9.43453 4.65679e-16 15.7242 -8.94963
253 1 11.007 1.57242 17.2966 -8.94963
254 1 12.5794 2.36972e-16 15.7242 -8.94963
255 1 14.1518 1.57242 17.2966 -8.94963
256 1 15.7242 -1.16465e-16 15.7242 -8.94963
257 1 17.2966 1.57242 17.2966 -8.94963
258 1 18.8691 1.99149e-16 15.7242 -8.94963
259 1 20.4415 1.57242 17.2966 -8.94963
260 1 1.30562e-09 3.14484 15.7242 -8.94963
261 1 1.57242 4.71726 17.2966 -8.94963
262 1 3.14484 3.14484 15.7242 -8.94963
263 1 4.71726 4.71726 17.2966 -8.94963
264 1 6.28968 3.14484 15.7242 -8.94964
265 1 7.86211 4.71727 17.2966 -8.94965
266 1 9.43453 3.14484 15.7242 -8.94964
267 1 11.0069 4.71727 17.2966 -8.94972
268 1 12.5794 3.14484 15.7242 -8.94963
269 1 14.1518 4.71726 17.2966 -8.9496
270 1 15.7242 3.14484 15.7242 -8.94964
271 1 17.2966 4.71726 17.2966 -8.94963
272 1 18.8691 3.14484 15.7242 -8.94963
273 1 20.4415 4.71726 17.2966 -8.94963
274 1 22.0139 6.28969 15.7242 -8.94963
275 1 1.57242 7.86211 17.2966 -8.94964
276 1 3.14484 6.28969 15.7242 -8.94967
277 1 4.71719 7.86203 17.2967 -8.94851
278 1 6.28966 6.28961 15.7242 -8.94994
279 1 7.86212 7.86216 17.2966 -8.95101
280 1 9.43451 6.28972 15.7242 -8.95103
281 1 11.007 7.86208 17.2967 -8.94995
282 1 12.5794 6.28961 15.7243 -8.9486
283 1 14.1518 7.8621 17.2966 -8.94966
284 1 15.7242 6.28968 15.7242 -8.9496
285 1 17.2966 7.86211 17.2966 -8.94964
286 1 18.8691 6.28969 15.7242 -8.94963
287 1 20.4415 7.86211 17.2966 -8.94963
288 1 22.0139 9.43453 15.7242 -8.94965
289 1 3.14477 9.43451 15.7242 -8.95006
290 1 6.28723 9.43207 15.7266 -8.91731
291 1 9.43536 9.43356 15.7248 -8.93971
292 1 12.5795 9.43442 15.7244 -8.94931
293 1 15.7242 9.43453 15.7242 -8.94973
294 1 18.8691 9.43453 15.7242 -8.94963
295 1 22.0139 8.7153e-17 18.8691 -8.94963
296 1 1.57242 1.57242 20.4415 -8.94963
297 1 3.14484 1.42566e-16 18.8691 -8.94963
298 1 4.71726 1.57242 20.4415 -8.94963
299 1 6.28969 7.81322e-17 18.8691 -8.94963
300 1 7.86211 1.57242 20.4415 -8.94963
301 1 9.43453 2.83732e-16 18.8691 -8.94963
302 1 11.007 1.57242 20.4415 -8.94963
303 1 12.5794 4.59544e-16 18.8691 -8.94963
304 1 14.1518 1.57242 20.4415 -8.94963
305 1 15.7242 -1.0993e-16 18.8691 -8.94963
306 1 17.2966 1.57242 20.4415 -8.94963
307 1 18.8691 -1.37898e-16 18.8691 -8.94963
308 1 20.4415 1.57242 20.4415 -8.94963
309 1 22.0139 3.14484 18.8691 -8.94963
310 1 1.57242 4.71726 20.4415 -8.94963
311 1 3.14484 3.14484 18.8691 -8.94963
312 1 4.71726 4.71726 20.4415 -8.94964
313 1 6.28969 3.14484 18.8691 -8.94963
314 1 7.86211 4.71726 20.4415 -8.94963
315 1 9.43453 3.14484 18.8691 -8.94963
316 1 11.007 4.71726 20.4415 -8.94963
317 1 12.5794 3.14484 18.8691 -8.94964
318 1 14.1518 4.71726 20.4415 -8.94963
319 1 15.7242 3.14484 18.8691 -8.94963
320 1 17.2966 4.71726 20.4415 -8.94963
321 1 18.8691 3.14484 18.8691 -8.94963
322 1 20.4415 4.71726 20.4415 -8.94963
323 1 22.0139 6.28969 18.8691 -8.94963
324 1 1.57242 7.86211 20.4415 -8.94964
325 1 3.14484 6.28968 18.8691 -8.9496
326 1 4.71726 7.86211 20.4415 -8.94962
327 1 6.28969 6.28969 18.8691 -8.94972
328 1 7.86211 7.86211 20.4415 -8.94964
329 1 9.43453 6.28969 18.8691 -8.94965
330 1 11.007 7.86211 20.4415 -8.94963
331 1 12.5794 6.28969 18.8691 -8.94963
332 1 14.1518 7.86211 20.4415 -8.94963
333 1 15.7242 6.28969 18.8691 -8.94963
334 1 17.2966 7.86211 20.4415 -8.94963
5 1 6.28969 2.23255e-16 22.0139 -8.94963
47 1 12.5794 9.43453 22.0139 -8.94965
44 1 3.14484 9.43453 22.0139 -8.94963
39 1 15.7242 6.28969 22.0139 -8.94963
27 1 18.8691 3.14484 22.0139 -8.94963
33 1 6.28969 6.28969 22.0139 -8.94963
3 1 3.14484 3.90818e-16 22.0139 -8.94963
13 1 18.8691 -1.90168e-16 22.0139 -8.94963
17 1 3.14484 3.14484 22.0139 -8.94963
23 1 12.5794 3.14484 22.0139 -8.94963
29 1 2.78439e-09 6.28969 22.0139 -8.94963
49 1 18.8691 9.43453 22.0139 -8.94963
344 1 1.57242 11.007 1.57242 -8.94963
345 1 4.71726 11.007 1.57242 -8.94963
346 1 7.86211 11.007 1.57242 -8.9497
347 1 11.0069 11.007 1.57236 -8.95038
348 1 14.1518 11.007 1.57242 -8.94963
349 1 17.2966 11.007 1.57242 -8.94963
350 1 20.4415 11.007 1.57242 -8.94963
688 3 10.2205 11.007 9.43445 3.6332
352 1 1.57242 14.1518 1.57242 -8.94963
511 1 18.8691 18.8691 9.43453 -8.94963
354 1 4.71726 14.1518 1.57242 -8.94963
355 1 6.28969 12.5794 2.11964e-06 -8.94965
356 1 7.86211 14.1518 1.57242 -8.94963
357 1 9.43453 12.5794 9.97752e-17 -8.94964
358 1 11.007 14.1518 1.57242 -8.94964
510 1 15.7242 18.8691 9.43453 -8.94963
360 1 14.1518 14.1518 1.57242 -8.94962
361 1 15.7242 12.5794 1.26799e-07 -8.94963
362 1 17.2966 14.1518 1.57242 -8.94964
538 1 17.2966 20.4415 11.007 -8.94963
364 1 20.4415 14.1518 1.57242 -8.94963
535 1 7.86211 20.4415 11.007 -8.94965
366 1 1.57242 17.2966 1.57242 -8.94963
367 1 3.14484 15.7242 7.99698e-08 -8.94963
368 1 4.71726 17.2966 1.57242 -8.94963
509 1 12.5794 18.8691 9.43453 -8.94966
370 1 7.86211 17.2966 1.57242 -8.94963
371 1 9.43453 15.7242 6.09989e-16 -8.94963
372 1 11.007 17.2966 1.57242 -8.94963
373 1 12.5794 15.7242 2.02163e-07 -8.94963
374 1 14.1518 17.2966 1.57242 -8.94964
508 1 9.43453 18.8691 9.43453 -8.95038
376 1 17.2966 17.2966 1.57242 -8.94963
507 1 6.28969 18.8691 9.43453 -8.94963
378 1 20.4415 17.2966 1.57242 -8.94963
379 1 22.0139 18.8691 4.71922e-10 -8.94963
380 1 1.57242 20.4415 1.57242 -8.94963
534 1 4.71726 20.4415 11.007 -8.94963
382 1 4.71726 20.4415 1.57242 -8.94963
506 1 3.14484 18.8691 9.43453 -8.94963
384 1 7.86211 20.4415 1.57242 -8.94963
385 1 9.43453 18.8691 2.93756e-16 -8.94963
386 1 11.007 20.4415 1.57242 -8.94963
531 1 17.2966 17.2966 11.007 -8.94964
388 1 14.1518 20.4415 1.57242 -8.94963
505 1 1.66436e-09 18.8691 9.43453 -8.94963
390 1 17.2966 20.4415 1.57242 -8.94963
504 1 18.8691 15.7242 9.43453 -8.94963
392 1 20.4415 20.4415 1.57242 -8.94963
393 1 1.57242 11.007 4.71726 -8.94963
394 1 4.71727 11.007 4.71727 -8.9497
395 1 7.86215 11.007 4.71717 -8.95168
396 1 11.007 11.007 4.71443 -8.96717
397 1 14.1517 11.007 4.71731 -8.95145
398 1 17.2966 11.007 4.71726 -8.94962
399 1 20.4415 11.007 4.71726 -8.94963
400 1 -7.82373e-10 12.5794 3.14484 -8.94963
401 1 1.57242 14.1518 4.71726 -8.94964
402 1 3.14484 12.5794 3.14484 -8.94964
403 1 4.71726 14.1518 4.71726 -8.94966
404 1 6.28969 12.5794 3.14484 -8.94968
405 1 7.86208 14.1518 4.71719 -8.94995
406 1 9.43449 12.5794 3.14479 -8.9493
407 1 11.0069 14.1517 4.71729 -8.95101
408 1 12.5794 12.5794 3.14475 -8.94978
409 1 14.1519 14.1519 4.71719 -8.94851
410 1 15.7242 12.5794 3.14485 -8.94972
411 1 17.2966 14.1518 4.71726 -8.94964
412 1 18.8691 12.5794 3.14484 -8.94963
413 1 20.4415 14.1518 4.71726 -8.94963
414 1 22.0139 15.7242 3.14484 -8.94963
415 1 1.57242 17.2966 4.71726 -8.94963
416 1 3.14484 15.7242 3.14484 -8.94963
417 1 4.71726 17.2966 4.71726 -8.9496
418 1 6.28968 15.7242 3.14484 -8.94963
419 1 7.86211 17.2966 4.71727 -8.94972
420 1 9.43453 15.7242 3.14485 -8.94965
421 1 11.0069 17.2966 4.71727 -8.94965
422 1 12.5794 15.7242 3.14485 -8.94972
423 1 14.1518 17.2966 4.71726 -8.94963
424 1 15.7242 15.7242 3.14484 -8.9496
425 1 17.2966 17.2966 4.71726 -8.94963
426 1 18.8691 15.7242 3.14484 -8.94963
427 1 20.4415 17.2966 4.71726 -8.94963
428 1 22.0139 18.8691 3.14484 -8.94963
429 1 1.57242 20.4415 4.71726 -8.94963
430 1 3.14484 18.8691 3.14484 -8.94963
431 1 4.71726 20.4415 4.71726 -8.94963
432 1 6.28969 18.8691 3.14484 -8.94964
433 1 7.86211 20.4415 4.71726 -8.94963
434 1 9.43453 18.8691 3.14484 -8.94963
435 1 11.007 20.4415 4.71726 -8.94963
436 1 12.5794 18.8691 3.14484 -8.94963
437 1 14.1518 20.4415 4.71726 -8.94963
438 1 15.7242 18.8691 3.14484 -8.94963
439 1 17.2966 20.4415 4.71726 -8.94963
440 1 18.8691 18.8691 3.14484 -8.94963
441 1 20.4415 20.4415 4.71726 -8.94963
442 1 1.57242 11.007 7.86211 -8.94965
443 1 4.71719 11.007 7.86212 -8.95195
444 1 7.85874 11.007 7.85656 -8.92982
445 1 11.0525 11.007 7.76802 -7.97831
446 1 14.1532 11.007 7.86192 -8.95928
447 1 17.2967 11.007 7.86211 -8.94999
448 1 20.4415 11.007 7.86211 -8.94964
449 1 22.0139 12.5794 6.28969 -8.94963
450 1 1.57242 14.1518 7.86211 -8.94965
451 1 3.14484 12.5794 6.28969 -8.94973
452 1 4.71712 14.1519 7.86201 -8.94893
453 1 6.28956 12.5795 6.28953 -8.94931
454 1 7.85967 14.1541 7.85968 -8.91851
455 1 9.4337 12.5803 6.28906 -8.93971
456 1 11.0078 14.1524 7.8611 -8.94028
457 1 12.5818 12.5818 6.28734 -8.91731
458 1 14.1519 14.1519 7.86204 -8.94923
459 1 15.7243 12.5794 6.28967 -8.95006
460 1 17.2966 14.1518 7.86211 -8.94964
461 1 18.8691 12.5794 6.28969 -8.94965
462 1 20.4415 14.1518 7.86211 -8.94963
463 1 22.0139 15.7242 6.28969 -8.94963
464 1 1.57242 17.2966 7.86211 -8.94963
465 1 3.14484 15.7242 6.28968 -8.9496
466 1 4.71727 17.2966 7.86211 -8.94972
467 1 6.28961 15.7243 6.28961 -8.9486
468 1 7.86207 17.2967 7.86207 -8.94979
469 1 9.43454 15.7242 6.28974 -8.95103
470 1 11.007 17.2967 7.86207 -8.94939
471 1 12.5794 15.7243 6.28966 -8.94994
472 1 14.1518 17.2966 7.86211 -8.94963
473 1 15.7242 15.7242 6.28968 -8.94967
474 1 17.2966 17.2966 7.86211 -8.94964
475 1 18.8691 15.7242 6.28969 -8.94963
476 1 20.4415 17.2966 7.86211 -8.94963
477 1 4.73449e-09 18.8691 6.28969 -8.94963
478 1 1.57242 20.4415 7.86211 -8.94963
479 1 3.14484 18.8691 6.28969 -8.94964
480 1 4.71726 20.4415 7.86211 -8.94963
481 1 6.28968 18.8691 6.28968 -8.94963
482 1 7.86211 20.4415 7.86211 -8.94965
483 1 9.43453 18.8691 6.28969 -8.94964
484 1 11.007 20.4415 7.86211 -8.94964
485 1 12.5794 18.8691 6.28969 -8.94964
486 1 14.1518 20.4415 7.86211 -8.94963
487 1 15.7242 18.8691 6.28969 -8.94963
488 1 17.2966 20.4415 7.86211 -8.94963
489 1 18.8691 18.8691 6.28969 -8.94963
490 1 20.4415 20.4415 7.86211 -8.94963
491 1 22.0139 12.5794 9.43453 -8.94966
492 1 3.14474 12.5794 9.43451 -8.9504
493 1 6.28581 12.582 9.43218 -8.92705
494 1 9.38977 12.6743 9.43399 -7.97151
495 1 12.5828 12.5821 9.43448 -8.91122
496 1 15.7243 12.5794 9.43453 -8.95011
497 1 18.8691 12.5794 9.43453 -8.94966
498 1 22.0139 15.7242 9.43453 -8.94963
499 1 3.14484 15.7242 9.43453 -8.94966
500 1 6.2897 15.7242 9.43451 -8.95175
501 1 9.43447 15.727 9.43458 -8.96836
502 1 12.5794 15.7243 9.43445 -8.94982
503 1 15.7242 15.7242 9.43453 -8.9497
512 1 1.57238 11.007 11.007 -8.95002
513 1 4.71568 11.007 11.0068 -8.95955
514 1 7.8127 11.007 10.9153 -7.93358
519 1 1.57242 14.1518 11.0069 -8.94965
520 1 4.71711 14.1519 11.0069 -8.94963
522 1 11.0103 14.1547 11.0054 -8.90784
527 1 4.71727 17.2966 11.0069 -8.94976
529 1 11.007 17.2968 11.0069 -8.94944
351 1 22.0139 12.5794 7.00611e-09 -8.94963
377 1 18.8691 15.7242 2.84459e-09 -8.94963
389 1 15.7242 18.8691 4.03597e-09 -8.94963
383 1 6.28969 18.8691 1.05208e-08 -8.94963
687 3 8.64852 11.007 12.5794 3.6332
686 1 20.4415 20.4415 20.4415 -8.94963
685 1 18.8691 18.8691 18.8691 -8.94963
515 1 11.0564 11.007 11.0986 -7.93358
516 1 14.1534 11.007 11.0071 -8.95955
517 1 17.2967 11.007 11.007 -8.95002
518 1 20.4415 11.007 11.007 -8.94965
684 1 17.2966 20.4415 20.4415 -8.94963
683 1 15.7242 18.8691 18.8691 -8.94963
521 1 7.8588 14.1547 11.0085 -8.90784
682 1 14.1518 20.4415 20.4415 -8.94963
523 1 14.1519 14.1519 11.007 -8.94963
524 1 17.2966 14.1518 11.007 -8.94965
525 1 20.4415 14.1518 11.007 -8.94963
526 1 1.57242 17.2966 11.007 -8.94964
681 1 12.5794 18.8691 18.8691 -8.94964
528 1 7.86203 17.2968 11.007 -8.94944
680 1 11.007 20.4415 20.4415 -8.94963
530 1 14.1518 17.2966 11.007 -8.94976
679 1 9.43453 18.8691 18.8691 -8.94963
532 1 20.4415 17.2966 11.007 -8.94963
533 1 1.57242 20.4415 11.007 -8.94963
678 1 7.86211 20.4415 20.4415 -8.94963
677 1 6.28969 18.8691 18.8691 -8.94963
536 1 11.007 20.4415 11.007 -8.94965
537 1 14.1518 20.4415 11.007 -8.94963
676 1 4.71726 20.4415 20.4415 -8.94963
539 1 20.4415 20.4415 11.007 -8.94963
540 1 1.57239 11.007 14.1518 -8.94999
541 1 4.71583 11.007 14.152 -8.95928
542 1 7.81659 11.007 14.2459 -7.97831
543 1 11.0103 11.007 14.1573 -8.92982
544 1 14.1519 11.007 14.1518 -8.95195
545 1 17.2966 11.007 14.1518 -8.94965
546 1 20.4415 11.007 14.1518 -8.94964
547 1 22.0139 12.5794 12.5794 -8.94966
548 1 1.57242 14.1518 14.1518 -8.94964
549 1 3.14472 12.5794 12.5794 -8.95011
550 1 4.71718 14.1519 14.1519 -8.94923
551 1 6.2863 12.5821 12.5794 -8.91122
552 1 7.86122 14.1524 14.1528 -8.94028
553 1 9.47929 12.6743 12.5799 -7.97151
554 1 11.0094 14.1541 14.1542 -8.91851
555 1 12.5833 12.582 12.5817 -8.92705
556 1 14.1519 14.1519 14.1519 -8.94893
557 1 15.7243 12.5794 12.5794 -8.9504
558 1 17.2966 14.1518 14.1518 -8.94965
559 1 18.8691 12.5794 12.5794 -8.94966
560 1 20.4415 14.1518 14.1518 -8.94963
561 1 1.51748e-07 15.7242 12.5794 -8.94963
562 1 1.57242 17.2966 14.1518 -8.94964
563 1 3.14485 15.7242 12.5794 -8.9497
564 1 4.71726 17.2966 14.1518 -8.94963
565 1 6.28965 15.7243 12.5794 -8.94982
566 1 7.86207 17.2967 14.1518 -8.94939
567 1 9.43459 15.727 12.5793 -8.96836
568 1 11.007 17.2967 14.1518 -8.94979
569 1 12.5794 15.7242 12.5794 -8.95175
570 1 14.1518 17.2966 14.1518 -8.94972
571 1 15.7242 15.7242 12.5794 -8.94966
572 1 17.2966 17.2966 14.1518 -8.94963
573 1 18.8691 15.7242 12.5794 -8.94963
574 1 20.4415 17.2966 14.1518 -8.94963
575 1 22.0139 18.8691 12.5794 -8.94963
576 1 1.57242 20.4415 14.1518 -8.94963
577 1 3.14484 18.8691 12.5794 -8.94963
578 1 4.71726 20.4415 14.1518 -8.94963
579 1 6.28969 18.8691 12.5794 -8.94966
580 1 7.86211 20.4415 14.1518 -8.94964
581 1 9.43453 18.8691 12.5794 -8.95038
582 1 11.007 20.4415 14.1518 -8.94965
583 1 12.5794 18.8691 12.5794 -8.94963
584 1 14.1518 20.4415 14.1518 -8.94963
585 1 15.7242 18.8691 12.5794 -8.94963
586 1 17.2966 20.4415 14.1518 -8.94963
587 1 18.8691 18.8691 12.5794 -8.94963
588 1 20.4415 20.4415 14.1518 -8.94963
589 1 1.57242 11.007 17.2966 -8.94962
590 1 4.71731 11.007 17.2966 -8.95145
591 1 7.86207 11.007 17.2995 -8.96717
592 1 11.0069 11.007 17.2967 -8.95168
593 1 14.1518 11.007 17.2966 -8.9497
594 1 17.2966 11.007 17.2966 -8.94963
595 1 20.4415 11.007 17.2966 -8.94963
596 1 22.0139 12.5794 15.7242 -8.94965
597 1 1.57242 14.1518 17.2966 -8.94964
598 1 3.14477 12.5794 15.7242 -8.95006
599 1 4.71719 14.1519 17.2967 -8.94851
600 1 6.28723 12.5818 15.7266 -8.91731
601 1 7.86212 14.1517 17.2966 -8.95101
602 1 9.43536 12.5803 15.7248 -8.93971
603 1 11.007 14.1518 17.2967 -8.94995
604 1 12.5795 12.5795 15.7244 -8.94931
605 1 14.1518 14.1518 17.2966 -8.94966
606 1 15.7242 12.5794 15.7242 -8.94973
607 1 17.2966 14.1518 17.2966 -8.94964
608 1 18.8691 12.5794 15.7242 -8.94963
609 1 20.4415 14.1518 17.2966 -8.94963
610 1 22.0139 15.7242 15.7242 -8.94963
611 1 1.57242 17.2966 17.2966 -8.94963
612 1 3.14484 15.7242 15.7242 -8.94967
613 1 4.71726 17.2966 17.2966 -8.94963
614 1 6.28966 15.7243 15.7242 -8.94994
615 1 7.86211 17.2966 17.2966 -8.94965
616 1 9.43451 15.7242 15.7242 -8.95103
617 1 11.0069 17.2966 17.2966 -8.94972
618 1 12.5794 15.7243 15.7243 -8.9486
619 1 14.1518 17.2966 17.2966 -8.9496
620 1 15.7242 15.7242 15.7242 -8.9496
621 1 17.2966 17.2966 17.2966 -8.94963
622 1 18.8691 15.7242 15.7242 -8.94963
623 1 20.4415 17.2966 17.2966 -8.94963
624 1 1.30562e-09 18.8691 15.7242 -8.94963
625 1 1.57242 20.4415 17.2966 -8.94963
626 1 3.14484 18.8691 15.7242 -8.94963
627 1 4.71726 20.4415 17.2966 -8.94963
628 1 6.28968 18.8691 15.7242 -8.94964
629 1 7.86211 20.4415 17.2966 -8.94963
630 1 9.43453 18.8691 15.7242 -8.94964
631 1 11.007 20.4415 17.2966 -8.94963
632 1 12.5794 18.8691 15.7242 -8.94963
633 1 14.1518 20.4415 17.2966 -8.94963
634 1 15.7242 18.8691 15.7242 -8.94964
635 1 17.2966 20.4415 17.2966 -8.94963
636 1 18.8691 18.8691 15.7242 -8.94963
637 1 20.4415 20.4415 17.2966 -8.94963
638 1 1.57242 11.007 20.4415 -8.94963
639 1 4.71727 11.007 20.4415 -8.94963
640 1 7.86211 11.007 20.4415 -8.95038
641 1 11.0069 11.007 20.4415 -8.9497
642 1 14.1518 11.007 20.4415 -8.94963
643 1 17.2966 11.007 20.4415 -8.94963
644 1 20.4415 11.007 20.4415 -8.94963
645 1 8.79458e-08 12.5794 18.8691 -8.94963
646 1 1.57242 14.1518 20.4415 -8.94964
647 1 3.14485 12.5794 18.8691 -8.94972
648 1 4.71726 14.1518 20.4415 -8.94962
649 1 6.28965 12.5794 18.8691 -8.94978
650 1 7.86211 14.1518 20.4415 -8.94964
651 1 9.43457 12.5794 18.8691 -8.9493
652 1 11.007 14.1518 20.4415 -8.94963
653 1 12.5794 12.5794 18.8691 -8.94968
654 1 14.1518 14.1518 20.4415 -8.94963
655 1 15.7242 12.5794 18.8691 -8.94964
656 1 17.2966 14.1518 20.4415 -8.94963
657 1 18.8691 12.5794 18.8691 -8.94963
658 1 20.4415 14.1518 20.4415 -8.94963
659 1 22.0139 15.7242 18.8691 -8.94963
660 1 1.57242 17.2966 20.4415 -8.94963
661 1 3.14484 15.7242 18.8691 -8.9496
662 1 4.71726 17.2966 20.4415 -8.94964
663 1 6.28969 15.7242 18.8691 -8.94972
664 1 7.86211 17.2966 20.4415 -8.94963
665 1 9.43453 15.7242 18.8691 -8.94965
666 1 11.007 17.2966 20.4415 -8.94963
667 1 12.5794 15.7242 18.8691 -8.94963
668 1 14.1518 17.2966 20.4415 -8.94963
669 1 15.7242 15.7242 18.8691 -8.94963
670 1 17.2966 17.2966 20.4415 -8.94963
671 1 18.8691 15.7242 18.8691 -8.94963
672 1 20.4415 17.2966 20.4415 -8.94963
673 1 22.0139 18.8691 18.8691 -8.94963
674 1 1.57242 20.4415 20.4415 -8.94963
675 1 3.14484 18.8691 18.8691 -8.94963
391 1 18.8691 18.8691 22.0139 -8.94963
353 1 3.14484 12.5794 22.0139 -8.94963
359 1 12.5794 12.5794 22.0139 -8.94965
369 1 6.28969 15.7242 22.0139 -8.94963
375 1 15.7242 15.7242 22.0139 -8.94963
363 1 18.8691 12.5794 22.0139 -8.94963
365 1 2.78439e-09 15.7242 22.0139 -8.94963
381 1 3.14484 18.8691 22.0139 -8.94963
387 1 12.5794 18.8691 22.0139 -8.94963
