ITEM: TIMESTEP
60
ITEM: NUMBER OF ATOMS
688
ITEM: BOX BOUNDS pp pp pp
0.0000000000000000e+00 2.2013900999999997e+01
0.0000000000000000e+00 2.2013900999999997e+01
0.0000000000000000e+00 2.2013900999999997e+01
ITEM: ATOMS id type x y z c_pot
1 1 22.0139 -5.10378e-16 1.62193e-06 -8.94962
2 1 1.57241 1.57241 1.57241 -8.9496
193 1 11.0477 7.83071 10.993 -8.82374
4 1 4.71726 1.57242 1.57242 -8.94968
175 1 18.8694 9.43435 9.43448 -8.94922
6 1 7.8621 1.57241 1.57241 -8.94964
7 1 9.43453 4.10809e-16 3.57373e-16 -8.94964
8 1 11.007 1.57241 1.57241 -8.94965
9 1 12.5794 -2.31997e-16 1.10982e-08 -8.94964
10 1 14.1518 1.57241 1.57241 -8.94963
174 1 15.7251 9.43401 9.43428 -8.9428
12 1 17.2967 1.5724 1.57241 -8.9496
191 1 4.7104 7.86015 11.0099 -8.95694
14 1 20.4415 1.57242 1.57242 -8.94963
15 1 22.0139 3.14483 6.66048e-06 -8.94959
16 1 1.57239 4.71724 1.57242 -8.94964
190 1 1.57129 7.86175 11.0072 -8.95048
18 1 4.71717 4.71716 1.57226 -8.94957
173 1 12.5697 9.44148 9.43429 -8.89965
20 1 7.8621 4.71717 1.57233 -8.94953
21 1 9.43453 3.14482 3.38519e-16 -8.94965
22 1 11.007 4.71716 1.57232 -8.94961
188 1 17.2968 4.71709 11.0069 -8.94941
24 1 14.1518 4.7172 1.57236 -8.94983
172 1 9.35872 9.20881 9.43166 -8.0902
26 1 17.2967 4.71715 1.57231 -8.94923
171 1 6.25124 9.40446 9.4076 -8.88812
28 1 20.4415 4.71725 1.57241 -8.94963
186 1 11.0083 4.71168 11.0064 -8.95624
30 1 1.5724 7.8621 1.57241 -8.9496
31 1 3.14475 6.2896 0.000128772 -8.94967
32 1 4.71716 7.86207 1.57237 -8.94995
170 1 3.13834 9.43358 9.43318 -8.95695
34 1 7.86195 7.86189 1.57175 -8.95083
35 1 9.43453 6.28953 1.54039e-15 -8.94956
36 1 11.0068 7.8618 1.57178 -8.94988
37 1 12.5794 6.28958 4.69229e-05 -8.94975
38 1 14.1522 7.8617 1.5715 -8.95036
169 1 22.0131 9.43447 9.43445 -8.95095
40 1 17.2967 7.86209 1.57235 -8.9497
168 1 18.8693 6.28955 9.4345 -8.94973
42 1 20.4415 7.86211 1.57241 -8.94963
167 1 15.7257 6.28859 9.4341 -8.94858
166 1 12.5846 6.2842 9.4286 -8.93262
45 1 6.28958 9.43447 0.000456163 -8.9506
46 1 9.43453 9.43439 4.75498e-16 -8.94981
165 1 9.43154 6.28453 9.43311 -8.99786
48 1 15.7243 9.43451 -8.82811e-05 -8.94953
184 1 4.71645 4.71636 11.0074 -8.94899
50 1 22.0139 -2.29374e-16 3.14484 -8.94964
51 1 1.5724 1.5724 4.71725 -8.94964
52 1 3.14482 -4.06927e-16 3.14482 -8.9496
53 1 4.71718 1.57228 4.71717 -8.94966
54 1 6.28969 5.47977e-16 3.14483 -8.94964
55 1 7.86212 1.57233 4.7172 -8.9496
56 1 9.43453 -6.88866e-16 3.14483 -8.94964
57 1 11.007 1.57231 4.71718 -8.9496
58 1 12.5794 -5.55928e-16 3.14482 -8.94961
59 1 14.1518 1.5723 4.71721 -8.94985
60 1 15.7242 1.64983e-16 3.14482 -8.94967
61 1 17.2967 1.57241 4.71726 -8.9496
62 1 18.8691 2.46566e-16 3.14484 -8.94963
63 1 20.4415 1.57242 4.71726 -8.94964
64 1 22.0139 3.14482 3.14482 -8.94957
65 1 1.57216 4.71707 4.71707 -8.94921
66 1 3.14473 3.14473 3.14473 -8.94927
67 1 4.71635 4.71631 4.71628 -8.94707
68 1 6.28968 3.14477 3.14478 -8.9498
69 1 7.8621 4.71668 4.71678 -8.94978
70 1 9.43452 3.14473 3.14475 -8.94963
71 1 11.007 4.71653 4.71665 -8.94861
72 1 12.5794 3.14474 3.14476 -8.94952
73 1 14.1524 4.71609 4.71657 -8.94976
74 1 15.7243 3.14467 3.14473 -8.94954
75 1 17.2967 4.71721 4.71726 -8.94992
76 1 18.8691 3.14484 3.14484 -8.94968
77 1 20.4415 4.71724 4.71725 -8.94964
78 1 22.0139 6.28968 3.14482 -8.94968
79 1 1.57227 7.86209 4.71714 -8.94968
80 1 3.1447 6.28959 3.14466 -8.94989
81 1 4.71648 7.86182 4.71606 -8.95127
82 1 6.28914 6.2891 3.14369 -8.94979
83 1 7.85998 7.85968 4.71163 -8.95331
84 1 9.43448 6.28908 3.14409 -8.94874
85 1 11.0065 7.86032 4.71325 -8.95195
86 1 12.5794 6.28925 3.14424 -8.95
87 1 14.1577 7.85622 4.71142 -8.9342
88 1 15.7251 6.28877 3.14394 -8.94691
89 1 17.2976 7.86166 4.71682 -8.95016
90 1 18.8692 6.2896 3.14476 -8.94962
91 1 20.4416 7.86207 4.71722 -8.94978
92 1 -1.06628e-05 9.43452 3.14482 -8.94964
93 1 3.14467 9.4345 3.14465 -8.94941
94 1 6.2894 9.43473 3.14403 -8.95056
95 1 9.4342 9.43413 3.14311 -8.94981
96 1 12.5805 9.43363 3.14044 -8.9559
97 1 15.7248 9.43435 3.14424 -8.94912
98 1 18.8692 9.43451 3.14477 -8.94955
99 1 22.0139 1.36103e-15 6.28969 -8.94964
100 1 1.57241 1.57241 7.86211 -8.94966
101 1 3.14481 5.00943e-16 6.28967 -8.94964
102 1 4.71713 1.5722 7.86203 -8.9497
103 1 6.28962 8.25377e-16 6.2896 -8.94991
104 1 7.86203 1.57182 7.86196 -8.95056
105 1 9.43456 -9.93281e-17 6.28961 -8.94976
106 1 11.007 1.57209 7.86199 -8.94967
107 1 12.5794 8.69822e-16 6.28964 -8.94986
108 1 14.1519 1.57223 7.86203 -8.94963
109 1 15.7242 1.31386e-15 6.28967 -8.9496
110 1 17.2967 1.5724 7.8621 -8.94966
111 1 18.8691 1.53374e-16 6.28969 -8.94964
112 1 20.4415 1.57242 7.86211 -8.94964
113 1 -1.35473e-05 3.14483 6.28968 -8.94967
114 1 1.57225 4.71714 7.86209 -8.94977
115 1 3.14468 3.14461 6.28957 -8.94963
116 1 4.71615 4.71561 7.8614 -8.94923
117 1 6.2893 3.14384 6.28921 -8.9503
118 1 7.86106 4.71242 7.86079 -8.95519
119 1 9.4347 3.1441 6.28934 -8.94968
120 1 11.0073 4.71543 7.86153 -8.95018
121 1 12.5795 3.14413 6.28949 -8.95095
122 1 14.1529 4.71606 7.86145 -8.94679
123 1 15.7244 3.14468 6.2896 -8.94925
124 1 17.2969 4.71709 7.86201 -8.94949
125 1 18.8691 3.14482 6.28967 -8.94961
126 1 20.4415 4.71724 7.8621 -8.94964
127 1 22.0137 6.28956 6.28957 -8.94976
128 1 1.57086 7.86159 7.8616 -8.95112
129 1 3.14297 6.28833 6.28834 -8.94741
130 1 4.70671 7.85494 7.85517 -8.94063
131 1 6.28383 6.28353 6.28331 -8.93432
132 1 7.83197 7.83344 7.8325 -8.86175
133 1 9.43519 6.28581 6.2874 -8.95038
134 1 11.0191 7.8553 7.84406 -8.91935
135 1 12.5822 6.28412 6.28642 -8.9537
136 1 14.1541 7.86148 7.86366 -8.95215
137 1 15.7246 6.2894 6.28976 -8.95079
138 1 17.2972 7.86183 7.86221 -8.94944
139 1 18.8691 6.28963 6.28968 -8.94962
140 1 20.4414 7.86203 7.86206 -8.9499
141 1 22.0138 9.43451 6.28957 -8.94967
142 1 3.14373 9.43452 6.28882 -8.94903
143 1 6.28668 9.43541 6.28463 -8.95731
144 1 9.4253 9.42086 6.28361 -8.9153
145 1 12.6098 9.40793 6.26182 -8.86069
146 1 15.7291 9.43329 6.28824 -8.95549
147 1 18.8697 9.43445 6.28959 -8.95065
148 1 -3.3156e-06 6.73414e-16 9.43453 -8.94963
149 1 3.14482 1.61351e-15 9.43453 -8.94963
150 1 6.28957 1.35383e-15 9.43449 -8.95001
151 1 9.43455 6.97965e-16 9.43447 -8.95003
152 1 12.5795 1.74824e-15 9.43446 -8.94989
153 1 15.7242 1.86791e-15 9.43453 -8.94964
154 1 18.8691 1.35597e-15 9.43453 -8.94964
155 1 -1.8375e-05 3.14482 9.43453 -8.94962
156 1 3.14472 3.14471 9.43456 -8.94971
157 1 6.28908 3.14331 9.43438 -8.95041
158 1 9.43453 3.14304 9.43427 -8.9492
159 1 12.5799 3.14375 9.43412 -8.94986
160 1 15.7244 3.14464 9.43451 -8.94967
161 1 18.8691 3.14482 9.43453 -8.94964
162 1 22.0137 6.28958 9.43453 -8.94968
163 1 3.14357 6.28894 9.43465 -8.95012
164 1 6.28349 6.28069 9.4323 -8.94889
177 1 4.71714 1.57226 11.007 -8.94952
178 1 7.86196 1.57167 11.007 -8.95069
181 1 17.2967 1.5724 11.007 -8.94964
11 1 15.7242 8.81073e-16 2.82861e-07 -8.94965
19 1 6.28968 3.14483 4.28803e-06 -8.94963
25 1 15.7242 3.14483 1.25788e-05 -8.94966
43 1 22.0139 9.43453 6.04039e-06 -8.94965
41 1 18.8691 6.28968 -4.40746e-06 -8.94967
176 1 1.5724 1.5724 11.0069 -8.94964
343 1 18.8691 9.43452 18.8691 -8.94964
342 1 15.7244 9.4345 18.8693 -8.94941
179 1 11.0071 1.57167 11.0069 -8.95069
180 1 14.1519 1.57226 11.0069 -8.94952
341 1 12.5797 9.43473 18.8699 -8.95056
182 1 20.4415 1.57242 11.007 -8.94964
183 1 1.57221 4.71709 11.007 -8.94941
340 1 9.43486 9.43413 18.8708 -8.94981
185 1 7.86076 4.71168 11.0075 -8.95624
339 1 6.28858 9.43363 18.8735 -8.9559
187 1 14.1526 4.71636 11.0065 -8.94899
338 1 3.14426 9.43435 18.8697 -8.94912
189 1 20.4415 4.71723 11.007 -8.94962
337 1 -0.000111212 9.43451 18.8691 -8.94955
336 1 20.4415 7.86211 20.4415 -8.94963
192 1 7.82139 7.83071 11.0209 -8.82374
335 1 18.8691 6.28968 18.8691 -8.94968
194 1 14.1587 7.86015 11.004 -8.95694
195 1 17.2978 7.86175 11.0067 -8.95048
196 1 20.4415 7.86202 11.007 -8.94987
197 1 -2.61032e-06 1.14489e-15 12.5794 -8.94964
198 1 1.5724 1.5724 14.1518 -8.94966
199 1 3.14481 1.34369e-15 12.5794 -8.94964
200 1 4.71714 1.57223 14.1519 -8.94963
201 1 6.28959 1.60459e-15 12.5794 -8.94989
202 1 7.86203 1.57209 14.1519 -8.94967
203 1 9.43451 3.28779e-16 12.5794 -8.95003
204 1 11.007 1.57182 14.1519 -8.95056
205 1 12.5795 1.45852e-15 12.5794 -8.95001
206 1 14.1519 1.5722 14.1519 -8.9497
207 1 15.7242 1.66854e-15 12.5794 -8.94963
208 1 17.2967 1.57241 14.1518 -8.94966
209 1 18.8691 1.21018e-15 12.5794 -8.94963
210 1 20.4415 1.57242 14.1518 -8.94964
211 1 22.0139 3.14482 12.5794 -8.94964
212 1 1.57218 4.71709 14.1519 -8.94949
213 1 3.14468 3.14464 12.5794 -8.94967
214 1 4.71614 4.71606 14.1524 -8.94679
215 1 6.28916 3.14375 12.5798 -8.94986
216 1 7.86178 4.71543 14.1524 -8.95018
217 1 9.43453 3.14304 12.5796 -8.9492
218 1 11.008 4.71242 14.1531 -8.95519
219 1 12.58 3.14331 12.5795 -8.95041
220 1 14.1529 4.71561 14.1525 -8.94923
221 1 15.7243 3.14471 12.5793 -8.94971
222 1 17.2968 4.71714 14.1518 -8.94977
223 1 18.8691 3.14482 12.5794 -8.94962
224 1 20.4415 4.71724 14.1518 -8.94964
225 1 -0.00021207 6.28955 12.5794 -8.94973
226 1 1.57181 7.86183 14.1517 -8.94944
227 1 3.14333 6.28859 12.5798 -8.94858
228 1 4.71494 7.86148 14.1502 -8.95215
229 1 6.28447 6.2842 12.5853 -8.93262
230 1 7.84999 7.8553 14.1698 -8.91935
231 1 9.43752 6.28453 12.5808 -8.99786
232 1 11.0371 7.83344 14.1814 -8.86175
233 1 12.5856 6.28069 12.5816 -8.94889
234 1 14.1623 7.85494 14.1587 -8.94063
235 1 15.7255 6.28894 12.5793 -8.95012
236 1 17.2982 7.86159 14.1523 -8.95112
237 1 18.8692 6.28958 12.5794 -8.94968
238 1 20.4416 7.86203 14.1518 -8.9499
239 1 22.0136 9.43435 12.5794 -8.94922
240 1 3.14392 9.43401 12.5796 -8.9428
241 1 6.29933 9.44148 12.5796 -8.89965
242 1 9.51034 9.20881 12.5822 -8.0902
243 1 12.6178 9.40446 12.6063 -8.88812
244 1 15.7307 9.43358 12.5807 -8.95695
245 1 18.8698 9.43447 12.5794 -8.95095
246 1 -2.70682e-06 -2.98232e-16 15.7242 -8.94964
247 1 1.57241 1.57241 17.2966 -8.9496
248 1 3.14481 1.00178e-15 15.7242 -8.9496
249 1 4.71721 1.5723 17.2967 -8.94985
250 1 6.28965 1.22303e-15 15.7243 -8.94986
251 1 7.86208 1.57231 17.2967 -8.9496
252 1 9.4345 -5.60981e-16 15.7243 -8.94976
253 1 11.0069 1.57233 17.2967 -8.9496
254 1 12.5794 8.90703e-16 15.7243 -8.94991
255 1 14.1519 1.57228 17.2967 -8.94966
256 1 15.7242 5.95357e-16 15.7242 -8.94964
257 1 17.2967 1.5724 17.2967 -8.94964
258 1 18.8691 1.19249e-15 15.7242 -8.94964
259 1 20.4415 1.57242 17.2966 -8.94964
260 1 -2.64773e-05 3.14482 15.7242 -8.94961
261 1 1.57236 4.71721 17.2966 -8.94992
262 1 3.14469 3.14468 15.7243 -8.94925
263 1 4.71661 4.71609 17.2973 -8.94976
264 1 6.28952 3.14413 15.7244 -8.95095
265 1 7.86203 4.71653 17.2973 -8.94861
266 1 9.43435 3.1441 15.7246 -8.94968
267 1 11.007 4.71668 17.2971 -8.94978
268 1 12.5798 3.14384 15.7247 -8.9503
269 1 14.1527 4.71631 17.2976 -8.94707
270 1 15.7244 3.14461 15.7243 -8.94963
271 1 17.2969 4.71707 17.2968 -8.94921
272 1 18.8691 3.14483 15.7242 -8.94967
273 1 20.4415 4.71724 17.2967 -8.94964
274 1 22.0138 6.28963 15.7242 -8.94962
275 1 1.57144 7.86166 17.2971 -8.95016
276 1 3.14441 6.2894 15.7241 -8.95079
277 1 4.71137 7.85622 17.3025 -8.9342
278 1 6.28684 6.28412 15.7275 -8.9537
279 1 7.86256 7.86032 17.3006 -8.95195
280 1 9.43387 6.28581 15.7265 -8.95038
281 1 11.0091 7.85968 17.3023 -8.95331
282 1 12.5852 6.28353 15.7306 -8.93432
283 1 14.1526 7.86182 17.2978 -8.95127
284 1 15.7261 6.28833 15.7256 -8.94741
285 1 17.2968 7.86209 17.2968 -8.94968
286 1 18.8693 6.28956 15.7243 -8.94976
287 1 20.4414 7.86207 17.2967 -8.94978
288 1 22.0133 9.43445 15.7243 -8.95065
289 1 3.13992 9.43329 15.7257 -8.95549
290 1 6.25926 9.40793 15.7521 -8.86069
291 1 9.44376 9.42086 15.7303 -8.9153
292 1 12.5824 9.43541 15.7293 -8.95731
293 1 15.7253 9.43452 15.7251 -8.94903
294 1 18.8692 9.43451 15.7243 -8.94967
295 1 22.0139 3.8816e-16 18.8691 -8.94963
296 1 1.57241 1.5724 20.4415 -8.9496
297 1 3.14483 -5.93515e-17 18.8691 -8.94967
298 1 4.71727 1.57241 20.4415 -8.94963
299 1 6.28968 -9.86041e-16 18.8691 -8.94961
300 1 7.86211 1.57241 20.4415 -8.94965
301 1 9.43453 -6.46829e-16 18.8691 -8.94964
302 1 11.007 1.57241 20.4415 -8.94964
303 1 12.5794 5.04593e-16 18.8691 -8.94964
304 1 14.1518 1.57242 20.4415 -8.94968
305 1 15.7242 -2.80027e-16 18.8691 -8.9496
306 1 17.2966 1.57241 20.4415 -8.9496
307 1 18.8691 2.47289e-16 18.8691 -8.94964
308 1 20.4415 1.57242 20.4415 -8.94963
309 1 22.0139 3.14484 18.8691 -8.94968
310 1 1.57231 4.71715 20.4416 -8.94923
311 1 3.14473 3.14467 18.8692 -8.94954
312 1 4.71725 4.7172 20.4415 -8.94983
313 1 6.28968 3.14474 18.8691 -8.94952
314 1 7.86209 4.71716 20.4416 -8.94961
315 1 9.43454 3.14473 18.8692 -8.94963
316 1 11.007 4.71717 20.4416 -8.94953
317 1 12.5794 3.14477 18.8691 -8.9498
318 1 14.1519 4.71716 20.4416 -8.94957
319 1 15.7243 3.14473 18.8692 -8.94927
320 1 17.2967 4.71724 20.4415 -8.94964
321 1 18.8691 3.14482 18.8691 -8.94957
322 1 20.4415 4.71725 20.4415 -8.94963
323 1 22.0138 6.2896 18.8691 -8.94962
324 1 1.57235 7.86209 20.4415 -8.9497
325 1 3.14393 6.28877 18.87 -8.94691
326 1 4.71686 7.8617 20.4424 -8.95036
327 1 6.28964 6.28925 18.8697 -8.95
328 1 7.86223 7.8618 20.4421 -8.94988
329 1 9.43458 6.28908 18.8698 -8.94874
330 1 11.0071 7.86189 20.4422 -8.95083
331 1 12.5799 6.2891 18.8702 -8.94979
332 1 14.1519 7.86207 20.4415 -8.94995
333 1 15.7244 6.28959 18.8692 -8.94989
334 1 17.2967 7.8621 20.4415 -8.9496
5 1 6.28969 3.28018e-16 22.0139 -8.94964
47 1 12.5795 9.43447 22.0134 -8.9506
44 1 3.14475 9.43451 22.014 -8.94953
39 1 15.7243 6.2896 22.0138 -8.94967
27 1 18.8691 3.14483 22.0139 -8.94959
33 1 6.28964 6.28958 22.0139 -8.94975
3 1 3.14484 2.48748e-16 22.0139 -8.94965
13 1 18.8691 -5.24245e-16 22.0139 -8.94962
17 1 3.14483 3.14483 22.0139 -8.94966
23 1 12.5794 3.14483 22.0139 -8.94963
29 1 -6.42923e-06 6.28968 22.0139 -8.94967
49 1 18.8691 9.43453 22.0139 -8.94965
344 1 1.5724 11.007 1.57241 -8.94965
345 1 4.71709 11.007 1.57229 -8.94975
346 1 7.86202 11.007 1.57224 -8.94941
347 1 11.0068 11.007 1.57108 -8.94962
348 1 14.1522 11.007 1.57155 -8.94932
349 1 17.2967 11.007 1.57235 -8.94969
350 1 20.4415 11.007 1.57241 -8.94964
688 3 10.2197 11.007 9.43679 2.36469
352 1 1.5724 14.1518 1.57241 -8.9496
511 1 18.8691 18.8691 9.43453 -8.94964
354 1 4.71716 14.1518 1.57237 -8.94995
355 1 6.28958 12.5794 0.000456163 -8.9506
356 1 7.86195 14.152 1.57175 -8.95083
357 1 9.43453 12.5795 3.96423e-16 -8.94981
358 1 11.0068 14.1521 1.57178 -8.94988
510 1 15.7244 18.8693 9.43451 -8.94967
360 1 14.1522 14.1522 1.5715 -8.95036
361 1 15.7243 12.5794 -8.82811e-05 -8.94953
362 1 17.2967 14.1518 1.57235 -8.9497
538 1 17.2967 20.4415 11.007 -8.94964
364 1 20.4415 14.1518 1.57241 -8.94963
535 1 7.86196 20.4422 11.007 -8.95069
366 1 1.57239 17.2967 1.57242 -8.94964
367 1 3.14475 15.7243 0.000128772 -8.94967
368 1 4.71717 17.2967 1.57226 -8.94957
509 1 12.5799 18.8702 9.43412 -8.94986
370 1 7.8621 17.2967 1.57233 -8.94953
371 1 9.43453 15.7244 1.4198e-15 -8.94956
372 1 11.007 17.2967 1.57232 -8.94961
373 1 12.5794 15.7243 4.69229e-05 -8.94975
374 1 14.1518 17.2967 1.57236 -8.94983
508 1 9.43453 18.8709 9.43427 -8.9492
376 1 17.2967 17.2967 1.57231 -8.94923
507 1 6.28908 18.8706 9.43438 -8.95041
378 1 20.4415 17.2966 1.57241 -8.94963
379 1 22.0139 18.8691 6.66048e-06 -8.94959
380 1 1.57241 20.4415 1.57241 -8.9496
534 1 4.71714 20.4416 11.007 -8.94952
382 1 4.71726 20.4415 1.57242 -8.94968
506 1 3.14472 18.8692 9.43456 -8.94971
384 1 7.8621 20.4415 1.57241 -8.94964
385 1 9.43453 18.8691 -1.13754e-16 -8.94965
386 1 11.007 20.4415 1.57241 -8.94965
531 1 17.2968 17.2968 11.0069 -8.94941
388 1 14.1518 20.4415 1.57241 -8.94963
505 1 -1.8375e-05 18.8691 9.43453 -8.94962
390 1 17.2967 20.4415 1.57241 -8.9496
504 1 18.8693 15.7244 9.4345 -8.94973
392 1 20.4415 20.4415 1.57242 -8.94963
393 1 1.57222 11.007 4.71708 -8.94961
394 1 4.71629 11.007 4.71576 -8.94755
395 1 7.86303 11.007 4.71639 -8.94819
396 1 11.0094 11.007 4.71345 -8.99617
397 1 14.1558 11.007 4.71313 -8.94549
398 1 17.2975 11.007 4.71682 -8.94922
399 1 20.4416 11.007 4.71721 -8.9497
400 1 -1.06628e-05 12.5794 3.14482 -8.94964
401 1 1.57227 14.1518 4.71714 -8.94968
402 1 3.14467 12.5794 3.14465 -8.94941
403 1 4.71648 14.1521 4.71606 -8.95127
404 1 6.2894 12.5792 3.14403 -8.95056
405 1 7.85998 14.1542 4.71163 -8.95331
406 1 9.4342 12.5798 3.14311 -8.94981
407 1 11.0065 14.1536 4.71325 -8.95195
408 1 12.5805 12.5803 3.14044 -8.9559
409 1 14.1577 14.1577 4.71142 -8.9342
410 1 15.7248 12.5796 3.14424 -8.94912
411 1 17.2976 14.1522 4.71682 -8.95016
412 1 18.8692 12.5794 3.14477 -8.94955
413 1 20.4416 14.1518 4.71722 -8.94978
414 1 22.0139 15.7242 3.14482 -8.94968
415 1 1.57216 17.2968 4.71707 -8.94921
416 1 3.1447 15.7243 3.14466 -8.94989
417 1 4.71635 17.2976 4.71628 -8.94707
418 1 6.28914 15.7248 3.14369 -8.94979
419 1 7.8621 17.2972 4.71678 -8.94978
420 1 9.43448 15.7248 3.14409 -8.94874
421 1 11.007 17.2974 4.71665 -8.94861
422 1 12.5794 15.7246 3.14424 -8.95
423 1 14.1524 17.2978 4.71657 -8.94976
424 1 15.7251 15.7251 3.14394 -8.94691
425 1 17.2967 17.2967 4.71726 -8.94992
426 1 18.8692 15.7243 3.14476 -8.94962
427 1 20.4415 17.2967 4.71725 -8.94964
428 1 22.0139 18.8691 3.14482 -8.94957
429 1 1.5724 20.4415 4.71725 -8.94964
430 1 3.14473 18.8692 3.14473 -8.94927
431 1 4.71718 20.4416 4.71717 -8.94966
432 1 6.28968 18.8691 3.14478 -8.9498
433 1 7.86212 20.4416 4.7172 -8.9496
434 1 9.43452 18.8692 3.14475 -8.94963
435 1 11.007 20.4416 4.71718 -8.9496
436 1 12.5794 18.8692 3.14476 -8.94952
437 1 14.1518 20.4416 4.71721 -8.94985
438 1 15.7243 18.8692 3.14473 -8.94954
439 1 17.2967 20.4415 4.71726 -8.9496
440 1 18.8691 18.8691 3.14484 -8.94968
441 1 20.4415 20.4415 4.71726 -8.94964
442 1 1.57129 11.007 7.86151 -8.94857
443 1 4.71326 11.007 7.8577 -8.93981
444 1 7.87056 11.007 7.86479 -8.94207
445 1 11.0897 11.007 7.6498 -8.09399
446 1 14.1622 11.007 7.8579 -8.97098
447 1 17.2984 11.007 7.86226 -8.9517
448 1 20.4416 11.007 7.86207 -8.94999
449 1 22.0138 12.5794 6.28957 -8.94967
450 1 1.57086 14.1523 7.8616 -8.95112
451 1 3.14373 12.5794 6.28882 -8.94903
452 1 4.70671 14.159 7.85517 -8.94063
453 1 6.28668 12.5785 6.28463 -8.95731
454 1 7.83197 14.1805 7.8325 -8.86175
455 1 9.4253 12.593 6.28361 -8.9153
456 1 11.0191 14.1586 7.84406 -8.91935
457 1 12.6098 12.606 6.26182 -8.86069
458 1 14.1541 14.1524 7.86366 -8.95215
459 1 15.7291 12.5806 6.28824 -8.95549
460 1 17.2972 14.1521 7.86221 -8.94944
461 1 18.8697 12.5794 6.28959 -8.95065
462 1 20.4414 14.1519 7.86206 -8.9499
463 1 22.0137 15.7243 6.28957 -8.94976
464 1 1.57225 17.2968 7.86209 -8.94977
465 1 3.14297 15.7256 6.28834 -8.94741
466 1 4.71615 17.2983 7.8614 -8.94923
467 1 6.28383 15.7304 6.28331 -8.93432
468 1 7.86106 17.3015 7.86079 -8.95519
469 1 9.43519 15.7281 6.2874 -8.95038
470 1 11.0073 17.2985 7.86153 -8.95018
471 1 12.5822 15.7298 6.28642 -8.9537
472 1 14.1529 17.2978 7.86145 -8.94679
473 1 15.7246 15.7245 6.28976 -8.95079
474 1 17.2969 17.2968 7.86201 -8.94949
475 1 18.8691 15.7243 6.28968 -8.94962
476 1 20.4415 17.2967 7.8621 -8.94964
477 1 -1.35473e-05 18.8691 6.28968 -8.94967
478 1 1.57241 20.4415 7.86211 -8.94966
479 1 3.14468 18.8693 6.28957 -8.94963
480 1 4.71713 20.4417 7.86203 -8.9497
481 1 6.2893 18.8701 6.28921 -8.9503
482 1 7.86203 20.4421 7.86196 -8.95056
483 1 9.4347 18.8698 6.28934 -8.94968
484 1 11.007 20.4418 7.86199 -8.94967
485 1 12.5795 18.8698 6.28949 -8.95095
486 1 14.1519 20.4417 7.86203 -8.94963
487 1 15.7244 18.8692 6.2896 -8.94925
488 1 17.2967 20.4415 7.8621 -8.94966
489 1 18.8691 18.8691 6.28967 -8.94961
490 1 20.4415 20.4415 7.86211 -8.94964
491 1 22.0131 12.5794 9.43445 -8.95095
492 1 3.13834 12.5803 9.43318 -8.95695
493 1 6.25124 12.6094 9.4076 -8.88812
494 1 9.35872 12.8051 9.43166 -8.0902
495 1 12.5697 12.5724 9.43429 -8.89965
496 1 15.7251 12.5799 9.43428 -8.9428
497 1 18.8694 12.5795 9.43448 -8.94922
498 1 22.0137 15.7243 9.43453 -8.94968
499 1 3.14357 15.725 9.43465 -8.95012
500 1 6.28349 15.7332 9.4323 -8.94889
501 1 9.43154 15.7294 9.43311 -8.99786
502 1 12.5846 15.7297 9.4286 -8.93262
503 1 15.7257 15.7253 9.4341 -8.94858
512 1 1.57047 11.007 11.0074 -8.95111
513 1 4.70741 11.007 11.0037 -8.96868
514 1 7.78256 11.007 10.7865 -8.01879
519 1 1.57129 14.1522 11.0072 -8.95048
520 1 4.7104 14.1538 11.0099 -8.95694
522 1 11.0477 14.1832 10.993 -8.82374
527 1 4.71645 17.2975 11.0074 -8.94899
529 1 11.0083 17.3022 11.0064 -8.95624
351 1 22.0139 12.5794 6.04039e-06 -8.94965
377 1 18.8691 15.7242 -4.40746e-06 -8.94967
389 1 15.7242 18.8691 1.25788e-05 -8.94966
383 1 6.28968 18.8691 4.28803e-06 -8.94963
687 3 8.64931 11.007 12.5771 2.36469
686 1 20.4415 20.4415 20.4415 -8.94963
685 1 18.8691 18.8691 18.8691 -8.94957
515 1 11.0865 11.007 11.2274 -8.01879
516 1 14.1616 11.007 11.0102 -8.96868
517 1 17.2986 11.007 11.0065 -8.95111
518 1 20.4415 11.007 11.007 -8.95021
684 1 17.2966 20.4415 20.4415 -8.9496
683 1 15.7243 18.8692 18.8692 -8.94927
521 1 7.82139 14.1832 11.0209 -8.82374
682 1 14.1518 20.4415 20.4415 -8.94968
523 1 14.1587 14.1538 11.004 -8.95694
524 1 17.2978 14.1522 11.0067 -8.95048
525 1 20.4415 14.1519 11.007 -8.94987
526 1 1.57221 17.2968 11.007 -8.94941
681 1 12.5794 18.8691 18.8691 -8.9498
528 1 7.86076 17.3022 11.0075 -8.95624
680 1 11.007 20.4415 20.4415 -8.94964
530 1 14.1526 17.2975 11.0065 -8.94899
679 1 9.43454 18.8692 18.8692 -8.94963
532 1 20.4415 17.2967 11.007 -8.94962
533 1 1.5724 20.4415 11.0069 -8.94964
678 1 7.86211 20.4415 20.4415 -8.94965
677 1 6.28968 18.8692 18.8691 -8.94952
536 1 11.0071 20.4422 11.0069 -8.95069
537 1 14.1519 20.4416 11.0069 -8.94952
676 1 4.71727 20.4415 20.4415 -8.94963
539 1 20.4415 20.4415 11.007 -8.94964
540 1 1.57061 11.007 14.1516 -8.9517
541 1 4.70681 11.007 14.156 -8.97098
542 1 7.77941 11.007 14.3641 -8.09399
543 1 10.9985 11.007 14.1491 -8.94207
544 1 14.1558 11.007 14.1562 -8.93981
545 1 17.2978 11.007 14.1524 -8.94857
546 1 20.4414 11.007 14.1518 -8.94999
547 1 22.0136 12.5795 12.5794 -8.94922
548 1 1.57181 14.1521 14.1517 -8.94944
549 1 3.14392 12.5799 12.5796 -8.9428
550 1 4.71494 14.1524 14.1502 -8.95215
551 1 6.29933 12.5724 12.5796 -8.89965
552 1 7.84999 14.1586 14.1698 -8.91935
553 1 9.51034 12.8051 12.5822 -8.0902
554 1 11.0371 14.1805 14.1814 -8.86175
555 1 12.6178 12.6094 12.6063 -8.88812
556 1 14.1623 14.159 14.1587 -8.94063
557 1 15.7307 12.5803 12.5807 -8.95695
558 1 17.2982 14.1523 14.1523 -8.95112
559 1 18.8698 12.5794 12.5794 -8.95095
560 1 20.4416 14.1519 14.1518 -8.9499
561 1 -0.00021207 15.7244 12.5794 -8.94973
562 1 1.57218 17.2968 14.1519 -8.94949
563 1 3.14333 15.7253 12.5798 -8.94858
564 1 4.71614 17.2978 14.1524 -8.94679
565 1 6.28447 15.7297 12.5853 -8.93262
566 1 7.86178 17.2985 14.1524 -8.95018
567 1 9.43752 15.7294 12.5808 -8.99786
568 1 11.008 17.3015 14.1531 -8.95519
569 1 12.5856 15.7332 12.5816 -8.94889
570 1 14.1529 17.2983 14.1525 -8.94923
571 1 15.7255 15.725 12.5793 -8.95012
572 1 17.2968 17.2968 14.1518 -8.94977
573 1 18.8692 15.7243 12.5794 -8.94968
574 1 20.4415 17.2967 14.1518 -8.94964
575 1 22.0139 18.8691 12.5794 -8.94964
576 1 1.5724 20.4415 14.1518 -8.94966
577 1 3.14468 18.8693 12.5794 -8.94967
578 1 4.71714 20.4417 14.1519 -8.94963
579 1 6.28916 18.8702 12.5798 -8.94986
580 1 7.86203 20.4418 14.1519 -8.94967
581 1 9.43453 18.8709 12.5796 -8.9492
582 1 11.007 20.4421 14.1519 -8.95056
583 1 12.58 18.8706 12.5795 -8.95041
584 1 14.1519 20.4417 14.1519 -8.9497
585 1 15.7243 18.8692 12.5793 -8.94971
586 1 17.2967 20.4415 14.1518 -8.94966
587 1 18.8691 18.8691 12.5794 -8.94962
588 1 20.4415 20.4415 14.1518 -8.94964
589 1 1.57155 11.007 17.2971 -8.94922
590 1 4.71327 11.007 17.3008 -8.94549
591 1 7.85964 11.007 17.3004 -8.99617
592 1 11.006 11.007 17.2975 -8.94819
593 1 14.1528 11.007 17.2981 -8.94755
594 1 17.2968 11.007 17.2968 -8.94961
595 1 20.4414 11.007 17.2967 -8.9497
596 1 22.0133 12.5794 15.7243 -8.95065
597 1 1.57144 14.1522 17.2971 -8.95016
598 1 3.13992 12.5806 15.7257 -8.95549
599 1 4.71137 14.1577 17.3025 -8.9342
600 1 6.25926 12.606 15.7521 -8.86069
601 1 7.86256 14.1536 17.3006 -8.95195
602 1 9.44376 12.593 15.7303 -8.9153
603 1 11.0091 14.1542 17.3023 -8.95331
604 1 12.5824 12.5785 15.7293 -8.95731
605 1 14.1526 14.1521 17.2978 -8.95127
606 1 15.7253 12.5794 15.7251 -8.94903
607 1 17.2968 14.1518 17.2968 -8.94968
608 1 18.8692 12.5794 15.7243 -8.94967
609 1 20.4414 14.1518 17.2967 -8.94978
610 1 22.0138 15.7243 15.7242 -8.94962
611 1 1.57236 17.2967 17.2966 -8.94992
612 1 3.14441 15.7245 15.7241 -8.95079
613 1 4.71661 17.2978 17.2973 -8.94976
614 1 6.28684 15.7298 15.7275 -8.9537
615 1 7.86203 17.2974 17.2973 -8.94861
616 1 9.43387 15.7281 15.7265 -8.95038
617 1 11.007 17.2972 17.2971 -8.94978
618 1 12.5852 15.7304 15.7306 -8.93432
619 1 14.1527 17.2976 17.2976 -8.94707
620 1 15.7261 15.7256 15.7256 -8.94741
621 1 17.2969 17.2968 17.2968 -8.94921
622 1 18.8693 15.7243 15.7243 -8.94976
623 1 20.4415 17.2967 17.2967 -8.94964
624 1 -2.64773e-05 18.8691 15.7242 -8.94961
625 1 1.57241 20.4415 17.2966 -8.9496
626 1 3.14469 18.8692 15.7243 -8.94925
627 1 4.71721 20.4416 17.2967 -8.94985
628 1 6.28952 18.8698 15.7244 -8.95095
629 1 7.86208 20.4416 17.2967 -8.9496
630 1 9.43435 18.8698 15.7246 -8.94968
631 1 11.0069 20.4416 17.2967 -8.9496
632 1 12.5798 18.8701 15.7247 -8.9503
633 1 14.1519 20.4416 17.2967 -8.94966
634 1 15.7244 18.8693 15.7243 -8.94963
635 1 17.2967 20.4415 17.2967 -8.94964
636 1 18.8691 18.8691 15.7242 -8.94967
637 1 20.4415 20.4415 17.2966 -8.94964
638 1 1.57234 11.007 20.4416 -8.94969
639 1 4.71681 11.007 20.4424 -8.94932
640 1 7.86224 11.007 20.4428 -8.94962
641 1 11.007 11.007 20.4417 -8.94941
642 1 14.152 11.007 20.4416 -8.94975
643 1 17.2967 11.007 20.4415 -8.94965
644 1 20.4415 11.007 20.4415 -8.94964
645 1 -0.000111212 12.5794 18.8691 -8.94955
646 1 1.57235 14.1518 20.4415 -8.9497
647 1 3.14426 12.5796 18.8697 -8.94912
648 1 4.71686 14.1522 20.4424 -8.95036
649 1 6.28858 12.5803 18.8735 -8.9559
650 1 7.86223 14.1521 20.4421 -8.94988
651 1 9.43486 12.5798 18.8708 -8.94981
652 1 11.0071 14.152 20.4422 -8.95083
653 1 12.5797 12.5792 18.8699 -8.95056
654 1 14.1519 14.1518 20.4415 -8.94995
655 1 15.7244 12.5794 18.8693 -8.94941
656 1 17.2967 14.1518 20.4415 -8.9496
657 1 18.8691 12.5794 18.8691 -8.94964
658 1 20.4415 14.1518 20.4415 -8.94963
659 1 22.0138 15.7243 18.8691 -8.94962
660 1 1.57231 17.2967 20.4416 -8.94923
661 1 3.14393 15.7251 18.87 -8.94691
662 1 4.71725 17.2967 20.4415 -8.94983
663 1 6.28964 15.7246 18.8697 -8.95
664 1 7.86209 17.2967 20.4416 -8.94961
665 1 9.43458 15.7248 18.8698 -8.94874
666 1 11.007 17.2967 20.4416 -8.94953
667 1 12.5799 15.7248 18.8702 -8.94979
668 1 14.1519 17.2967 20.4416 -8.94957
669 1 15.7244 15.7243 18.8692 -8.94989
670 1 17.2967 17.2967 20.4415 -8.94964
671 1 18.8691 15.7242 18.8691 -8.94968
672 1 20.4415 17.2966 20.4415 -8.94963
673 1 22.0139 18.8691 18.8691 -8.94968
674 1 1.57241 20.4415 20.4415 -8.9496
675 1 3.14473 18.8692 18.8692 -8.94954
391 1 18.8691 18.8691 22.0139 -8.94959
353 1 3.14475 12.5794 22.014 -8.94953
359 1 12.5795 12.5794 22.0134 -8.9506
369 1 6.28964 15.7243 22.0139 -8.94975
375 1 15.7243 15.7243 22.0138 -8.94967
363 1 18.8691 12.5794 22.0139 -8.94965
365 1 -6.42923e-06 15.7242 22.0139 -8.94967
381 1 3.14483 18.8691 22.0139 -8.94966
387 1 12.5794 18.8691 22.0139 -8.94963
