ITEM: TIMESTEP
103
ITEM: NUMBER OF ATOMS
688
ITEM: BOX BOUNDS pp pp pp
0.0000000000000000e+00 2.2013900999999997e+01
0.0000000000000000e+00 2.2013900999999997e+01
0.0000000000000000e+00 2.2013900999999997e+01
ITEM: ATOMS id type x y z c_pot
1 1 22.0134 7.63586e-16 4.21448e-05 -8.94904
2 1 1.57149 1.57178 1.57183 -8.94913
193 1 11.0649 7.8186 10.9965 -8.80608
4 1 4.71658 1.57168 1.57171 -8.94949
175 1 18.8692 9.4344 9.43428 -8.94784
6 1 7.86191 1.57168 1.57177 -8.94936
7 1 9.43453 6.72408e-16 -8.18022e-17 -8.94945
8 1 11.0072 1.57169 1.57182 -8.9494
9 1 12.5797 3.41732e-16 3.44614e-05 -8.94942
10 1 14.1524 1.57169 1.57192 -8.94942
174 1 15.7224 9.43626 9.43427 -8.93964
12 1 17.2975 1.57163 1.57192 -8.94924
191 1 4.70347 7.85818 11.0116 -8.96176
14 1 20.4413 1.57197 1.57217 -8.94923
15 1 22.0133 3.144 7.82962e-05 -8.94913
16 1 1.57118 4.71612 1.57181 -8.94974
190 1 1.56858 7.86133 11.0079 -8.95223
18 1 4.71561 4.71533 1.57059 -8.94942
173 1 12.5575 9.44803 9.43547 -8.90189
20 1 7.86165 4.71545 1.57099 -8.94908
21 1 9.43453 3.14362 -1.47939e-16 -8.9494
22 1 11.0074 4.71544 1.57105 -8.94926
188 1 17.2993 4.71521 11.0065 -8.94869
24 1 14.1531 4.71537 1.57095 -8.95011
172 1 9.37041 9.18312 9.43054 -8.11917
26 1 17.2983 4.71556 1.57111 -8.94831
171 1 6.24644 9.39424 9.39963 -8.88556
28 1 20.4416 4.71643 1.57194 -8.94946
186 1 11.0095 4.70809 11.0057 -8.96133
30 1 1.57127 7.86152 1.57196 -8.94918
31 1 3.14338 6.28848 0.00087236 -8.95009
32 1 4.71624 7.86171 1.57176 -8.95066
170 1 3.13322 9.43255 9.43054 -8.95835
34 1 7.86191 7.86132 1.57034 -8.953
35 1 9.43453 6.28812 -8.30706e-17 -8.94959
36 1 11.0071 7.86094 1.56972 -8.95127
37 1 12.5801 6.28839 -0.000107724 -8.95071
38 1 14.1541 7.86039 1.56859 -8.9514
169 1 22.011 9.43437 9.43412 -8.95139
40 1 17.2985 7.86109 1.57092 -8.9491
168 1 18.8706 6.28841 9.43413 -8.95019
42 1 20.4417 7.86157 1.57185 -8.94934
167 1 15.7302 6.28603 9.43236 -8.94798
166 1 12.5912 6.27903 9.42216 -8.92425
45 1 6.28909 9.43453 0.00139127 -8.95116
46 1 9.43453 9.43477 2.396e-16 -8.94909
165 1 9.43036 6.28702 9.43004 -9.00318
48 1 15.7259 9.43404 -0.00102265 -8.9493
184 1 4.71237 4.71248 11.0092 -8.94653
50 1 22.0132 2.65839e-16 3.1443 -8.94928
51 1 1.57104 1.57143 4.7162 -8.94928
52 1 3.14378 -1.96582e-16 3.14378 -8.94947
53 1 4.71579 1.57074 4.71559 -8.94988
54 1 6.28922 6.59617e-17 3.14381 -8.94951
55 1 7.8618 1.5709 4.7158 -8.94961
56 1 9.43462 1.47925e-15 3.14385 -8.94947
57 1 11.0074 1.57104 4.71588 -8.94949
58 1 12.5799 6.18896e-16 3.14397 -8.94942
59 1 14.1528 1.571 4.7162 -8.95073
60 1 15.725 1.23119e-15 3.14414 -8.95006
61 1 17.2975 1.57173 4.71664 -8.94923
62 1 18.8694 5.95585e-16 3.14452 -8.94934
63 1 20.4413 1.57191 4.71682 -8.94945
64 1 22.0128 3.14378 3.14399 -8.9491
65 1 1.56914 4.7147 4.71483 -8.94834
66 1 3.14277 3.14282 3.14281 -8.94824
67 1 4.71189 4.71161 4.71151 -8.94463
68 1 6.28866 3.14273 3.14294 -8.94947
69 1 7.86054 4.71233 4.71316 -8.94894
70 1 9.43454 3.14285 3.14315 -8.94923
71 1 11.008 4.71292 4.71332 -8.94726
72 1 12.5802 3.14288 3.14326 -8.94898
73 1 14.1562 4.71138 4.71255 -8.94973
74 1 15.7261 3.14247 3.1431 -8.9493
75 1 17.2983 4.71578 4.71628 -8.95069
76 1 18.8695 3.14396 3.14426 -8.94982
77 1 20.4409 4.71622 4.71649 -8.9498
78 1 22.0132 6.28886 3.14389 -8.94972
79 1 1.57001 7.86123 4.71528 -8.94952
80 1 3.14249 6.28813 3.14251 -8.95077
81 1 4.71297 7.86024 4.71205 -8.95347
82 1 6.2864 6.28597 3.13918 -8.94987
83 1 7.85593 7.85422 4.70469 -8.95343
84 1 9.43427 6.28634 3.14072 -8.94772
85 1 11.0083 7.85677 4.70664 -8.95334
86 1 12.5814 6.28652 3.14016 -8.95027
87 1 14.1653 7.85043 4.70399 -8.93033
88 1 15.729 6.28533 3.14031 -8.9447
89 1 17.3013 7.85991 4.71462 -8.95068
90 1 18.8706 6.28837 3.14357 -8.94957
91 1 20.4418 7.86139 4.71619 -8.95004
92 1 -0.000623248 9.43421 3.14376 -8.94941
93 1 3.14285 9.43409 3.14283 -8.94875
94 1 6.28913 9.43512 3.14284 -8.95079
95 1 9.43524 9.43445 3.14331 -8.95117
96 1 12.583 9.43329 3.1364 -8.95894
97 1 15.7287 9.43304 3.14057 -8.94754
98 1 18.8708 9.434 3.14337 -8.9492
99 1 22.0133 -3.11721e-16 6.28933 -8.94959
100 1 1.57121 1.57157 7.86183 -8.94956
101 1 3.14334 9.28217e-17 6.28872 -8.94981
102 1 4.71532 1.57012 7.86121 -8.95043
103 1 6.2888 -7.50599e-17 6.28853 -8.95052
104 1 7.86151 1.56994 7.86124 -8.95135
105 1 9.4347 -3.75339e-15 6.28859 -8.95013
106 1 11.0072 1.57099 7.8614 -8.9494
107 1 12.5799 1.6059e-15 6.28895 -8.95032
108 1 14.1532 1.5709 7.86108 -8.94976
109 1 15.7253 1.50285e-15 6.28893 -8.94944
110 1 17.2977 1.57166 7.86155 -8.94937
111 1 18.8695 1.10482e-15 6.28931 -8.94944
112 1 20.4414 1.5719 7.86185 -8.94944
113 1 -0.00112011 3.14363 6.28902 -8.94965
114 1 1.56924 4.71486 7.86118 -8.95005
115 1 3.14172 3.14148 6.28748 -8.94887
116 1 4.70989 4.70858 7.85764 -8.94725
117 1 6.2872 3.13969 6.28689 -8.95105
118 1 7.85838 4.70628 7.85847 -8.95729
119 1 9.43472 3.14087 6.28739 -8.95028
120 1 11.0075 4.71268 7.85948 -8.9514
121 1 12.5805 3.14134 6.288 -8.95258
122 1 14.1568 4.71237 7.8583 -8.94354
123 1 15.7263 3.14275 6.28827 -8.94812
124 1 17.2991 4.71538 7.86097 -8.94906
125 1 18.8697 3.14385 6.28908 -8.94934
126 1 20.4413 4.7161 7.86168 -8.94981
127 1 22.0112 6.28808 6.28827 -8.95024
128 1 1.56568 7.85968 7.8597 -8.95272
129 1 3.13608 6.28336 6.2835 -8.94597
130 1 4.69508 7.84687 7.84777 -8.94043
131 1 6.27517 6.27448 6.27441 -8.92992
132 1 7.82014 7.82126 7.82319 -8.85758
133 1 9.43404 6.27878 6.28174 -8.94991
134 1 11.0284 7.84863 7.82986 -8.90954
135 1 12.5887 6.27675 6.27827 -8.95371
136 1 14.157 7.86208 7.86319 -8.95541
137 1 15.7277 6.28779 6.28843 -8.95252
138 1 17.2986 7.86175 7.8623 -8.95009
139 1 18.8697 6.28884 6.28921 -8.95009
140 1 20.4405 7.86145 7.86166 -8.95043
141 1 22.0121 9.43414 6.28825 -8.94951
142 1 3.13971 9.43391 6.28553 -8.94817
143 1 6.28373 9.43548 6.28168 -8.96211
144 1 9.4192 9.41059 6.28234 -8.90745
145 1 12.6198 9.40277 6.25242 -8.85558
146 1 15.7349 9.43224 6.28494 -8.95765
147 1 18.8713 9.43414 6.28869 -8.95166
148 1 -0.000556113 1.41136e-16 9.43447 -8.94945
149 1 3.14348 1.27256e-15 9.4346 -8.9494
150 1 6.2886 -4.9715e-15 9.43453 -8.95118
151 1 9.43449 -6.11577e-16 9.43412 -8.9489
152 1 12.5802 -1.56547e-15 9.43393 -8.95027
153 1 15.7256 1.39116e-15 9.43398 -8.94939
154 1 18.8696 5.85304e-16 9.43432 -8.94947
155 1 -0.000911616 3.14372 9.43445 -8.9493
156 1 3.14242 3.14247 9.43466 -8.94942
157 1 6.28657 3.13868 9.43422 -8.95251
158 1 9.43415 3.14189 9.43341 -8.94666
159 1 12.5815 3.14106 9.43274 -8.95051
160 1 15.7265 3.14262 9.43352 -8.94912
161 1 18.8699 3.14373 9.4342 -8.94938
162 1 22.0119 6.28844 9.43451 -8.95025
163 1 3.13767 6.28546 9.43428 -8.95113
164 1 6.2722 6.2688 9.42763 -8.94419
177 1 4.71555 1.57079 11.0076 -8.94916
178 1 7.86178 1.57046 11.0072 -8.95124
181 1 17.2978 1.57162 11.0067 -8.94939
11 1 15.7248 -1.93097e-16 7.87349e-05 -8.94953
19 1 6.28918 3.14366 -5.83721e-05 -8.94932
25 1 15.7253 3.14362 0.000106287 -8.94949
43 1 22.0132 9.43424 0.000226312 -8.9494
41 1 18.8697 6.28896 -0.000198829 -8.94936
176 1 1.57122 1.57162 11.0072 -8.94939
343 1 18.8697 9.43421 18.8701 -8.94941
342 1 15.7262 9.43409 18.8711 -8.94875
179 1 11.0073 1.57046 11.0067 -8.95124
180 1 14.1535 1.57079 11.0063 -8.94916
341 1 12.5799 9.43512 18.8711 -8.95079
182 1 20.4415 1.57188 11.007 -8.94947
183 1 1.56975 4.71521 11.0074 -8.94869
340 1 9.43381 9.43445 18.8706 -8.95117
185 1 7.85954 4.70809 11.0082 -8.96133
339 1 6.28605 9.43329 18.8775 -8.95894
187 1 14.1567 4.71248 11.0047 -8.94653
338 1 3.14033 9.43304 18.8733 -8.94754
189 1 20.4415 4.71601 11.007 -8.94953
337 1 -0.00175638 9.434 18.8705 -8.9492
336 1 20.4412 7.86157 20.4421 -8.94934
192 1 7.80416 7.8186 11.0174 -8.80608
335 1 18.8698 6.28886 18.87 -8.94972
194 1 14.1656 7.85818 11.0023 -8.96176
195 1 17.3005 7.86133 11.006 -8.95223
196 1 20.4415 7.86156 11.007 -8.95024
197 1 -0.000541392 1.88029e-16 12.5796 -8.94947
198 1 1.57132 1.57166 14.1523 -8.94937
199 1 3.1435 2.19973e-15 12.5799 -8.94939
200 1 4.71581 1.5709 14.1528 -8.94976
201 1 6.28886 2.1085e-15 12.58 -8.95027
202 1 7.86187 1.57099 14.1525 -8.9494
203 1 9.43457 -5.9586e-15 12.5798 -8.9489
204 1 11.0075 1.56994 14.1527 -8.95135
205 1 12.5805 1.51905e-15 12.5794 -8.95118
206 1 14.1537 1.57012 14.1527 -8.95043
207 1 15.7256 1.52051e-15 12.5793 -8.9494
208 1 17.2979 1.57157 14.1521 -8.94956
209 1 18.8696 1.87543e-16 12.5794 -8.94945
210 1 20.4415 1.5719 14.152 -8.94944
211 1 22.0131 3.14373 12.5797 -8.94938
212 1 1.57 4.71538 14.1529 -8.94906
213 1 3.14254 3.14262 12.5804 -8.94912
214 1 4.71226 4.71237 14.1556 -8.94354
215 1 6.28755 3.14106 12.5812 -8.95051
216 1 7.86153 4.71268 14.1544 -8.9514
217 1 9.43491 3.14189 12.5805 -8.94666
218 1 11.0107 4.70628 14.1554 -8.95729
219 1 12.5825 3.13868 12.5797 -8.95251
220 1 14.1592 4.70858 14.1563 -8.94725
221 1 15.7266 3.14247 12.5792 -8.94942
222 1 17.2998 4.71486 14.1527 -8.95005
223 1 18.87 3.14372 12.5795 -8.9493
224 1 20.4417 4.7161 14.1522 -8.94981
225 1 -0.00151749 6.28841 12.5798 -8.95019
226 1 1.57044 7.86175 14.1516 -8.95009
227 1 3.13886 6.28603 12.5815 -8.94798
228 1 4.71202 7.86208 14.1507 -8.95541
229 1 6.27788 6.27903 12.5917 -8.92425
230 1 7.84064 7.84863 14.184 -8.90954
231 1 9.4387 6.28702 12.5839 -9.00318
232 1 11.0489 7.82126 14.1907 -8.85758
233 1 12.5969 6.2688 12.5863 -8.94419
234 1 14.174 7.84687 14.1661 -8.94043
235 1 15.7314 6.28546 12.5796 -8.95113
236 1 17.3034 7.85968 14.1542 -8.95272
237 1 18.871 6.28844 12.5794 -8.95025
238 1 20.4425 7.86145 14.1522 -8.95043
239 1 22.0138 9.4344 12.5796 -8.94784
240 1 3.14671 9.43626 12.5796 -8.93964
241 1 6.31155 9.44803 12.5784 -8.90189
242 1 9.49865 9.18312 12.5834 -8.11917
243 1 12.6226 9.39424 12.6143 -8.88556
244 1 15.7358 9.43255 12.5834 -8.95835
245 1 18.8719 9.43437 12.5798 -8.95139
246 1 -0.000456799 7.81329e-16 15.7246 -8.94944
247 1 1.57153 1.57173 17.2973 -8.94923
248 1 3.14372 1.01215e-15 15.725 -8.94944
249 1 4.71625 1.571 17.2977 -8.95073
250 1 6.28917 1.63892e-15 15.725 -8.95032
251 1 7.86162 1.57104 17.298 -8.94949
252 1 9.43436 1.45363e-15 15.7253 -8.95013
253 1 11.0073 1.5709 17.2981 -8.94961
254 1 12.5803 6.03444e-16 15.7254 -8.95052
255 1 14.1533 1.57074 17.2983 -8.94988
256 1 15.7257 4.03205e-16 15.7252 -8.94981
257 1 17.298 1.57143 17.2977 -8.94928
258 1 18.8696 1.01994e-15 15.7246 -8.94959
259 1 20.4416 1.57191 17.2971 -8.94945
260 1 -0.000688954 3.14385 15.7248 -8.94934
261 1 1.57081 4.71578 17.2976 -8.95069
262 1 3.14278 3.14275 15.7256 -8.94812
263 1 4.71285 4.71138 17.3014 -8.94973
264 1 6.28851 3.14134 15.7259 -8.95258
265 1 7.86106 4.71292 17.3006 -8.94726
266 1 9.43434 3.14087 15.7265 -8.95028
267 1 11.0085 4.71233 17.3007 -8.94894
268 1 12.5819 3.13969 15.727 -8.95105
269 1 14.1572 4.71161 17.3024 -8.94463
270 1 15.7273 3.14148 15.7264 -8.94887
271 1 17.2999 4.7147 17.2991 -8.94834
272 1 18.8702 3.14363 15.7249 -8.94965
273 1 20.442 4.71622 17.2974 -8.9498
274 1 22.0132 6.28884 15.7247 -8.95009
275 1 1.56777 7.85991 17.2993 -8.95068
276 1 3.14135 6.28779 15.7255 -8.95252
277 1 4.70375 7.85043 17.3099 -8.93033
278 1 6.28034 6.27675 15.7356 -8.95371
279 1 7.86076 7.85677 17.3073 -8.95334
280 1 9.43502 6.27878 15.7322 -8.94991
281 1 11.0131 7.85422 17.3092 -8.95343
282 1 12.5939 6.27448 15.7395 -8.92992
283 1 14.1561 7.86024 17.3019 -8.95347
284 1 15.733 6.28336 15.7304 -8.94597
285 1 17.299 7.86123 17.2986 -8.94952
286 1 18.8717 6.28808 15.7256 -8.95024
287 1 20.4411 7.86139 17.2977 -8.95004
288 1 22.0117 9.43414 15.7252 -8.95166
289 1 3.13412 9.43224 15.729 -8.95765
290 1 6.24921 9.40277 15.7615 -8.85558
291 1 9.44986 9.41059 15.7316 -8.90745
292 1 12.5853 9.43548 15.7322 -8.96211
293 1 15.7293 9.43391 15.7284 -8.94817
294 1 18.8708 9.43414 15.7257 -8.94951
295 1 22.0136 1.38341e-16 18.8694 -8.94934
296 1 1.57156 1.57163 20.442 -8.94924
297 1 3.14401 7.8219e-17 18.8698 -8.95006
298 1 4.71668 1.57169 20.442 -8.94942
299 1 6.28917 -6.92207e-16 18.8699 -8.94942
300 1 7.86187 1.57169 20.4421 -8.9494
301 1 9.43444 8.62834e-18 18.8701 -8.94947
302 1 11.0071 1.57168 20.4421 -8.94936
303 1 12.5798 2.80021e-16 18.8701 -8.94951
304 1 14.1525 1.57168 20.4422 -8.94949
305 1 15.7253 7.42128e-16 18.8701 -8.94947
306 1 17.2976 1.57178 20.4421 -8.94913
307 1 18.8697 1.0619e-15 18.8696 -8.94928
308 1 20.4417 1.57197 20.4417 -8.94923
309 1 22.0135 3.14396 18.8696 -8.94982
310 1 1.57072 4.71556 20.4428 -8.94831
311 1 3.14294 3.14247 18.8708 -8.9493
312 1 4.71591 4.71537 20.443 -8.95011
313 1 6.28886 3.14288 18.8706 -8.94898
314 1 7.8617 4.71544 20.4429 -8.94926
315 1 9.43452 3.14285 18.8708 -8.94923
316 1 11.0074 4.71545 20.4429 -8.94908
317 1 12.5804 3.14273 18.871 -8.94947
318 1 14.1534 4.71533 20.4433 -8.94942
319 1 15.7263 3.14282 18.8711 -8.94824
320 1 17.2979 4.71612 20.4421 -8.94974
321 1 18.8702 3.14378 18.8699 -8.9491
322 1 20.4413 4.71643 20.442 -8.94946
323 1 22.0123 6.28837 18.8703 -8.94957
324 1 1.57056 7.86109 20.443 -8.9491
325 1 3.14006 6.28533 18.8736 -8.9447
326 1 4.71493 7.86039 20.4453 -8.9514
327 1 6.28768 6.28652 18.8737 -8.95027
328 1 7.862 7.86094 20.4442 -8.95127
329 1 9.43479 6.28634 18.8732 -8.94772
330 1 11.0072 7.86132 20.4436 -8.953
331 1 12.5827 6.28597 18.8747 -8.94987
332 1 14.1528 7.86171 20.4421 -8.95066
333 1 15.7266 6.28813 18.8714 -8.95077
334 1 17.2978 7.86152 20.4419 -8.94918
5 1 6.28936 -1.04635e-16 22.0139 -8.94942
47 1 12.58 9.43453 22.0125 -8.95116
44 1 3.14315 9.43404 22.0149 -8.9493
39 1 15.7257 6.28848 22.013 -8.95009
27 1 18.8697 3.144 22.0138 -8.94913
33 1 6.28892 6.28839 22.014 -8.95071
3 1 3.14426 -5.19749e-16 22.0138 -8.94953
13 1 18.8695 1.28046e-15 22.0139 -8.94904
17 1 3.14377 3.14362 22.0138 -8.94949
23 1 12.5799 3.14366 22.014 -8.94932
29 1 -0.000655252 6.28896 22.0141 -8.94936
49 1 18.8698 9.43424 22.0137 -8.9494
344 1 1.57123 11.007 1.57194 -8.94942
345 1 4.71589 11.007 1.57184 -8.95032
346 1 7.86226 11.007 1.57261 -8.94704
347 1 11.0075 11.007 1.57171 -8.94596
348 1 14.1548 11.007 1.56842 -8.94954
349 1 17.2986 11.007 1.57085 -8.9494
350 1 20.4417 11.007 1.57181 -8.94941
688 3 10.2149 11.007 9.43983 2.29203
352 1 1.57127 14.1524 1.57196 -8.94918
511 1 18.8699 18.8702 9.4342 -8.94938
354 1 4.71624 14.1522 1.57176 -8.95066
355 1 6.28909 12.5794 0.00139127 -8.95116
356 1 7.86191 14.1526 1.57034 -8.953
357 1 9.43453 12.5791 4.81638e-18 -8.94909
358 1 11.0071 14.153 1.56972 -8.95127
510 1 15.7265 18.8713 9.43352 -8.94912
360 1 14.1541 14.1535 1.56859 -8.9514
361 1 15.7259 12.5799 -0.00102265 -8.9493
362 1 17.2985 14.1528 1.57092 -8.9491
538 1 17.2978 20.4423 11.0067 -8.94939
364 1 20.4417 14.1523 1.57185 -8.94934
535 1 7.86178 20.4434 11.0072 -8.95124
366 1 1.57118 17.2978 1.57181 -8.94974
367 1 3.14338 15.7254 0.00087236 -8.95009
368 1 4.71561 17.2986 1.57059 -8.94942
509 1 12.5815 18.8728 9.43274 -8.95051
370 1 7.86165 17.2985 1.57099 -8.94908
371 1 9.43453 15.7258 9.52841e-16 -8.94959
372 1 11.0074 17.2985 1.57105 -8.94926
373 1 12.5801 15.7255 -0.000107724 -8.95071
374 1 14.1531 17.2985 1.57095 -8.95011
508 1 9.43415 18.872 9.43341 -8.94666
376 1 17.2983 17.2983 1.57111 -8.94831
507 1 6.28657 18.8752 9.43422 -8.95251
378 1 20.4416 17.2975 1.57194 -8.94946
379 1 22.0133 18.8699 7.82962e-05 -8.94913
380 1 1.57149 20.4421 1.57183 -8.94913
534 1 4.71555 20.4431 11.0076 -8.94916
382 1 4.71658 20.4422 1.57171 -8.94949
506 1 3.14242 18.8714 9.43466 -8.94942
384 1 7.86191 20.4422 1.57177 -8.94936
385 1 9.43453 18.8703 1.83148e-16 -8.9494
386 1 11.0072 20.4422 1.57182 -8.9494
531 1 17.2993 17.2987 11.0065 -8.94869
388 1 14.1524 20.4422 1.57192 -8.94942
505 1 -0.000911616 18.8702 9.43445 -8.9493
390 1 17.2975 20.4423 1.57192 -8.94924
504 1 18.8706 15.7255 9.43413 -8.95019
392 1 20.4413 20.4419 1.57217 -8.94923
393 1 1.57015 11.007 4.71503 -8.9494
394 1 4.71346 11.007 4.71216 -8.9462
395 1 7.86434 11.007 4.71982 -8.94147
396 1 11.012 11.007 4.72104 -9.00213
397 1 14.1631 11.007 4.70637 -8.94183
398 1 17.3015 11.007 4.71416 -8.94897
399 1 20.442 11.007 4.71597 -8.94986
400 1 -0.000623248 12.5797 3.14376 -8.94941
401 1 1.57001 14.1527 4.71528 -8.94952
402 1 3.14285 12.5798 3.14283 -8.94875
403 1 4.71297 14.1537 4.71205 -8.95347
404 1 6.28913 12.5788 3.14284 -8.95079
405 1 7.85593 14.1597 4.70469 -8.95343
406 1 9.43524 12.5795 3.14331 -8.95117
407 1 11.0083 14.1571 4.70664 -8.95334
408 1 12.583 12.5806 3.1364 -8.95894
409 1 14.1653 14.1635 4.70399 -8.93033
410 1 15.7287 12.5809 3.14057 -8.94754
411 1 17.3013 14.154 4.71462 -8.95068
412 1 18.8708 12.5799 3.14337 -8.9492
413 1 20.4418 14.1525 4.71619 -8.95004
414 1 22.0132 15.725 3.14389 -8.94972
415 1 1.56914 17.2992 4.71483 -8.94834
416 1 3.14249 15.7258 3.14251 -8.95077
417 1 4.71189 17.3023 4.71151 -8.94463
418 1 6.2864 15.7279 3.13918 -8.94987
419 1 7.86054 17.3016 4.71316 -8.94894
420 1 9.43427 15.7276 3.14072 -8.94772
421 1 11.008 17.301 4.71332 -8.94726
422 1 12.5814 15.7274 3.14016 -8.95027
423 1 14.1562 17.3025 4.71255 -8.94973
424 1 15.729 15.7286 3.14031 -8.9447
425 1 17.2983 17.2981 4.71628 -8.95069
426 1 18.8706 15.7255 3.14357 -8.94957
427 1 20.4409 17.2977 4.71649 -8.9498
428 1 22.0128 18.8701 3.14399 -8.9491
429 1 1.57104 20.4425 4.7162 -8.94928
430 1 3.14277 18.8711 3.14281 -8.94824
431 1 4.71579 20.4432 4.71559 -8.94988
432 1 6.28866 18.8712 3.14294 -8.94947
433 1 7.8618 20.443 4.7158 -8.94961
434 1 9.43454 18.8711 3.14315 -8.94923
435 1 11.0074 20.4429 4.71588 -8.94949
436 1 12.5802 18.871 3.14326 -8.94898
437 1 14.1528 20.4429 4.7162 -8.95073
438 1 15.7261 18.8714 3.1431 -8.9493
439 1 17.2975 20.4422 4.71664 -8.94923
440 1 18.8695 18.8699 3.14426 -8.94982
441 1 20.4413 20.442 4.71682 -8.94945
442 1 1.56786 11.007 7.85936 -8.94687
443 1 4.7106 11.007 7.85377 -8.93485
444 1 7.87947 11.007 7.87868 -8.94392
445 1 11.0816 11.007 7.63551 -8.12151
446 1 14.1599 11.007 7.85354 -8.97095
447 1 17.2992 11.007 7.86168 -8.95083
448 1 20.4409 11.007 7.8615 -8.94965
449 1 22.0121 12.5798 6.28825 -8.94951
450 1 1.56568 14.1542 7.8597 -8.95272
451 1 3.13971 12.58 6.28553 -8.94817
452 1 4.69508 14.167 7.84777 -8.94043
453 1 6.28373 12.5784 6.28168 -8.96211
454 1 7.82014 14.1926 7.82319 -8.85758
455 1 9.4192 12.6033 6.28234 -8.90745
456 1 11.0284 14.1653 7.82986 -8.90954
457 1 12.6198 12.6111 6.25242 -8.85558
458 1 14.157 14.1518 7.86319 -8.95541
459 1 15.7349 12.5817 6.28494 -8.95765
460 1 17.2986 14.1521 7.8623 -8.95009
461 1 18.8713 12.5798 6.28869 -8.95166
462 1 20.4405 14.1525 7.86166 -8.95043
463 1 22.0112 15.7258 6.28827 -8.95024
464 1 1.56924 17.299 7.86118 -8.95005
465 1 3.13608 15.7305 6.2835 -8.94597
466 1 4.70989 17.3053 7.85764 -8.94725
467 1 6.27517 15.7394 6.27441 -8.92992
468 1 7.85838 17.3076 7.85847 -8.95729
469 1 9.43404 15.7351 6.28174 -8.94991
470 1 11.0075 17.3012 7.85948 -8.9514
471 1 12.5887 15.7371 6.27827 -8.95371
472 1 14.1568 17.3015 7.8583 -8.94354
473 1 15.7277 15.7261 6.28843 -8.95252
474 1 17.2991 17.2985 7.86097 -8.94906
475 1 18.8697 15.7251 6.28921 -8.95009
476 1 20.4413 17.2978 7.86168 -8.94981
477 1 -0.00112011 18.8703 6.28902 -8.94965
478 1 1.57121 20.4423 7.86183 -8.94956
479 1 3.14172 18.8724 6.28748 -8.94887
480 1 4.71532 20.4438 7.86121 -8.95043
481 1 6.2872 18.8742 6.28689 -8.95105
482 1 7.86151 20.444 7.86124 -8.95135
483 1 9.43472 18.873 6.28739 -8.95028
484 1 11.0072 20.4429 7.8614 -8.9494
485 1 12.5805 18.8726 6.288 -8.95258
486 1 14.1532 20.443 7.86108 -8.94976
487 1 15.7263 18.8712 6.28827 -8.94812
488 1 17.2977 20.4422 7.86155 -8.94937
489 1 18.8697 18.8701 6.28908 -8.94934
490 1 20.4414 20.442 7.86185 -8.94944
491 1 22.011 12.5795 9.43412 -8.95139
492 1 3.13322 12.5813 9.43054 -8.95835
493 1 6.24644 12.6197 9.39963 -8.88556
494 1 9.37041 12.8308 9.43054 -8.11917
495 1 12.5575 12.5659 9.43547 -8.90189
496 1 15.7224 12.5776 9.43427 -8.93964
497 1 18.8692 12.5795 9.43428 -8.94784
498 1 22.0119 15.7255 9.43451 -8.95025
499 1 3.13767 15.7284 9.43428 -8.95113
500 1 6.2722 15.7451 9.42763 -8.94419
501 1 9.43036 15.7269 9.43004 -9.00318
502 1 12.5912 15.7349 9.42216 -8.92425
503 1 15.7302 15.7279 9.43236 -8.94798
512 1 1.5705 11.007 11.0074 -8.94864
513 1 4.71496 11.007 10.9978 -8.96785
514 1 7.80197 11.007 10.7638 -8.0326
519 1 1.56858 14.1526 11.0079 -8.95223
520 1 4.70347 14.1557 11.0116 -8.96176
522 1 11.0649 14.1953 10.9965 -8.80608
527 1 4.71237 17.3014 11.0092 -8.94653
529 1 11.0095 17.3058 11.0057 -8.96133
351 1 22.0132 12.5797 0.000226312 -8.9494
377 1 18.8697 15.7249 -0.000198829 -8.94936
389 1 15.7253 18.8703 0.000106287 -8.94949
383 1 6.28918 18.8702 -5.83721e-05 -8.94932
687 3 8.65416 11.007 12.5741 2.29203
686 1 20.4417 20.4419 20.4417 -8.94923
685 1 18.8702 18.8701 18.8699 -8.9491
515 1 11.0671 11.007 11.2501 -8.0326
516 1 14.1541 11.007 11.0161 -8.96785
517 1 17.2986 11.007 11.0065 -8.94864
518 1 20.4415 11.007 11.007 -8.94893
684 1 17.2976 20.4421 20.4421 -8.94913
683 1 15.7263 18.8711 18.8711 -8.94824
521 1 7.80416 14.1953 11.0174 -8.80608
682 1 14.1525 20.4422 20.4422 -8.94949
523 1 14.1656 14.1557 11.0023 -8.96176
524 1 17.3005 14.1526 11.006 -8.95223
525 1 20.4415 14.1523 11.007 -8.95024
526 1 1.56975 17.2987 11.0074 -8.94869
681 1 12.5804 18.8712 18.871 -8.94947
528 1 7.85954 17.3058 11.0082 -8.96133
680 1 11.0071 20.4422 20.4421 -8.94936
530 1 14.1567 17.3014 11.0047 -8.94653
679 1 9.43452 18.8711 18.8708 -8.94923
532 1 20.4415 17.2979 11.007 -8.94953
533 1 1.57122 20.4423 11.0072 -8.94939
678 1 7.86187 20.4422 20.4421 -8.9494
677 1 6.28886 18.871 18.8706 -8.94898
536 1 11.0073 20.4434 11.0067 -8.95124
537 1 14.1535 20.4431 11.0063 -8.94916
676 1 4.71668 20.4422 20.442 -8.94942
539 1 20.4415 20.442 11.007 -8.94947
540 1 1.56983 11.007 14.1522 -8.95083
541 1 4.70916 11.007 14.1604 -8.97095
542 1 7.78746 11.007 14.3784 -8.12151
543 1 10.9896 11.007 14.1352 -8.94392
544 1 14.1585 11.007 14.1601 -8.93485
545 1 17.3012 11.007 14.1545 -8.94687
546 1 20.4421 11.007 14.1524 -8.94965
547 1 22.0138 12.5795 12.5796 -8.94784
548 1 1.57044 14.1521 14.1516 -8.95009
549 1 3.14671 12.5776 12.5796 -8.93964
550 1 4.71202 14.1518 14.1507 -8.95541
551 1 6.31155 12.5659 12.5784 -8.90189
552 1 7.84064 14.1653 14.184 -8.90954
553 1 9.49865 12.8308 12.5834 -8.11917
554 1 11.0489 14.1926 14.1907 -8.85758
555 1 12.6226 12.6197 12.6143 -8.88556
556 1 14.174 14.167 14.1661 -8.94043
557 1 15.7358 12.5813 12.5834 -8.95835
558 1 17.3034 14.1542 14.1542 -8.95272
559 1 18.8719 12.5795 12.5798 -8.95139
560 1 20.4425 14.1525 14.1522 -8.95043
561 1 -0.00151749 15.7255 12.5798 -8.95019
562 1 1.57 17.2985 14.1529 -8.94906
563 1 3.13886 15.7279 12.5815 -8.94798
564 1 4.71226 17.3015 14.1556 -8.94354
565 1 6.27788 15.7349 12.5917 -8.92425
566 1 7.86153 17.3012 14.1544 -8.9514
567 1 9.4387 15.7269 12.5839 -9.00318
568 1 11.0107 17.3076 14.1554 -8.95729
569 1 12.5969 15.7451 12.5863 -8.94419
570 1 14.1592 17.3053 14.1563 -8.94725
571 1 15.7314 15.7284 12.5796 -8.95113
572 1 17.2998 17.299 14.1527 -8.95005
573 1 18.871 15.7255 12.5794 -8.95025
574 1 20.4417 17.2978 14.1522 -8.94981
575 1 22.0131 18.8702 12.5797 -8.94938
576 1 1.57132 20.4422 14.1523 -8.94937
577 1 3.14254 18.8713 12.5804 -8.94912
578 1 4.71581 20.443 14.1528 -8.94976
579 1 6.28755 18.8728 12.5812 -8.95051
580 1 7.86187 20.4429 14.1525 -8.9494
581 1 9.43491 18.872 12.5805 -8.94666
582 1 11.0075 20.444 14.1527 -8.95135
583 1 12.5825 18.8752 12.5797 -8.95251
584 1 14.1537 20.4438 14.1527 -8.95043
585 1 15.7266 18.8714 12.5792 -8.94942
586 1 17.2979 20.4423 14.1521 -8.94956
587 1 18.87 18.8702 12.5795 -8.9493
588 1 20.4415 20.442 14.152 -8.94944
589 1 1.56755 11.007 17.2997 -8.94897
590 1 4.70598 11.007 17.3075 -8.94183
591 1 7.85707 11.007 17.2929 -9.00213
592 1 11.0047 11.007 17.2941 -8.94147
593 1 14.1556 11.007 17.3017 -8.9462
594 1 17.2989 11.007 17.2989 -8.9494
595 1 20.4409 11.007 17.2979 -8.94986
596 1 22.0117 12.5798 15.7252 -8.95166
597 1 1.56777 14.154 17.2993 -8.95068
598 1 3.13412 12.5817 15.729 -8.95765
599 1 4.70375 14.1635 17.3099 -8.93033
600 1 6.24921 12.6111 15.7615 -8.85558
601 1 7.86076 14.1571 17.3073 -8.95334
602 1 9.44986 12.6033 15.7316 -8.90745
603 1 11.0131 14.1597 17.3092 -8.95343
604 1 12.5853 12.5784 15.7322 -8.96211
605 1 14.1561 14.1537 17.3019 -8.95347
606 1 15.7293 12.58 15.7284 -8.94817
607 1 17.299 14.1527 17.2986 -8.94952
608 1 18.8708 12.5798 15.7257 -8.94951
609 1 20.4411 14.1525 17.2977 -8.95004
610 1 22.0132 15.7251 15.7247 -8.95009
611 1 1.57081 17.2981 17.2976 -8.95069
612 1 3.14135 15.7261 15.7255 -8.95252
613 1 4.71285 17.3025 17.3014 -8.94973
614 1 6.28034 15.7371 15.7356 -8.95371
615 1 7.86106 17.301 17.3006 -8.94726
616 1 9.43502 15.7351 15.7322 -8.94991
617 1 11.0085 17.3016 17.3007 -8.94894
618 1 12.5939 15.7394 15.7395 -8.92992
619 1 14.1572 17.3023 17.3024 -8.94463
620 1 15.733 15.7305 15.7304 -8.94597
621 1 17.2999 17.2992 17.2991 -8.94834
622 1 18.8717 15.7258 15.7256 -8.95024
623 1 20.442 17.2977 17.2974 -8.9498
624 1 -0.000688954 18.8701 15.7248 -8.94934
625 1 1.57153 20.4422 17.2973 -8.94923
626 1 3.14278 18.8712 15.7256 -8.94812
627 1 4.71625 20.4429 17.2977 -8.95073
628 1 6.28851 18.8726 15.7259 -8.95258
629 1 7.86162 20.4429 17.298 -8.94949
630 1 9.43434 18.873 15.7265 -8.95028
631 1 11.0073 20.443 17.2981 -8.94961
632 1 12.5819 18.8742 15.727 -8.95105
633 1 14.1533 20.4432 17.2983 -8.94988
634 1 15.7273 18.8724 15.7264 -8.94887
635 1 17.298 20.4425 17.2977 -8.94928
636 1 18.8702 18.8703 15.7249 -8.94965
637 1 20.4416 20.442 17.2971 -8.94945
638 1 1.57043 11.007 20.4431 -8.9494
639 1 4.71423 11.007 20.4455 -8.94954
640 1 7.8616 11.007 20.4422 -8.94596
641 1 11.0068 11.007 20.4413 -8.94704
642 1 14.1532 11.007 20.4421 -8.95032
643 1 17.2978 11.007 20.442 -8.94942
644 1 20.4412 11.007 20.4421 -8.94941
645 1 -0.00175638 12.5799 18.8705 -8.9492
646 1 1.57056 14.1528 20.443 -8.9491
647 1 3.14033 12.5809 18.8733 -8.94754
648 1 4.71493 14.1535 20.4453 -8.9514
649 1 6.28605 12.5806 18.8775 -8.95894
650 1 7.862 14.153 20.4442 -8.95127
651 1 9.43381 12.5795 18.8706 -8.95117
652 1 11.0072 14.1526 20.4436 -8.953
653 1 12.5799 12.5788 18.8711 -8.95079
654 1 14.1528 14.1522 20.4421 -8.95066
655 1 15.7262 12.5798 18.8711 -8.94875
656 1 17.2978 14.1524 20.4419 -8.94918
657 1 18.8697 12.5797 18.8701 -8.94941
658 1 20.4412 14.1523 20.4421 -8.94934
659 1 22.0123 15.7255 18.8703 -8.94957
660 1 1.57072 17.2983 20.4428 -8.94831
661 1 3.14006 15.7286 18.8736 -8.9447
662 1 4.71591 17.2985 20.443 -8.95011
663 1 6.28768 15.7274 18.8737 -8.95027
664 1 7.8617 17.2985 20.4429 -8.94926
665 1 9.43479 15.7276 18.8732 -8.94772
666 1 11.0074 17.2985 20.4429 -8.94908
667 1 12.5827 15.7279 18.8747 -8.94987
668 1 14.1534 17.2986 20.4433 -8.94942
669 1 15.7266 15.7258 18.8714 -8.95077
670 1 17.2979 17.2978 20.4421 -8.94974
671 1 18.8698 15.725 18.87 -8.94972
672 1 20.4413 17.2975 20.442 -8.94946
673 1 22.0135 18.8699 18.8696 -8.94982
674 1 1.57156 20.4423 20.442 -8.94924
675 1 3.14294 18.8714 18.8708 -8.9493
391 1 18.8697 18.8699 22.0138 -8.94913
353 1 3.14315 12.5799 22.0149 -8.9493
359 1 12.58 12.5794 22.0125 -8.95116
369 1 6.28892 15.7255 22.014 -8.95071
375 1 15.7257 15.7254 22.013 -8.95009
363 1 18.8698 12.5797 22.0137 -8.9494
365 1 -0.000655252 15.7249 22.0141 -8.94936
381 1 3.14377 18.8703 22.0138 -8.94949
387 1 12.5799 18.8702 22.014 -8.94932
