ITEM: TIMESTEP
65
ITEM: NUMBER OF ATOMS
688
ITEM: BOX BOUNDS pp pp pp
0.0000000000000000e+00 2.2013900999999997e+01
0.0000000000000000e+00 2.2013900999999997e+01
0.0000000000000000e+00 2.2013900999999997e+01
ITEM: ATOMS id type x y z c_pot
1 1 22.0139 -7.28812e-16 1.36555e-05 -8.94952
2 1 1.57233 1.57234 1.57234 -8.94948
193 1 11.0587 7.82406 10.9936 -8.81232
4 1 4.71723 1.57233 1.57234 -8.94969
175 1 18.8696 9.43424 9.43439 -8.94856
6 1 7.86209 1.57231 1.57232 -8.9496
7 1 9.43453 -8.67036e-16 7.57559e-16 -8.94964
8 1 11.007 1.5723 1.57232 -8.94962
9 1 12.5794 -3.26674e-16 -3.46754e-06 -8.94962
10 1 14.1518 1.57232 1.57234 -8.94959
174 1 15.7244 9.43492 9.43411 -8.9404
12 1 17.2968 1.57229 1.57233 -8.94951
191 1 4.70651 7.85946 11.0115 -8.95991
14 1 20.4415 1.57239 1.57241 -8.94958
15 1 22.0138 3.14475 3.35822e-05 -8.94945
16 1 1.57223 4.7171 1.57234 -8.94969
190 1 1.56994 7.8615 11.0076 -8.95127
18 1 4.71686 4.71678 1.57179 -8.94948
173 1 12.5626 9.44654 9.43492 -8.90024
20 1 7.86203 4.7168 1.57197 -8.9493
21 1 9.43453 3.14463 2.77802e-16 -8.94961
22 1 11.007 4.71676 1.57198 -8.94943
188 1 17.2975 4.71656 11.0069 -8.94901
24 1 14.152 4.71682 1.57205 -8.94992
172 1 9.36479 9.1945 9.43178 -8.10684
26 1 17.2971 4.7168 1.57199 -8.94871
171 1 6.24598 9.39765 9.40217 -8.88597
28 1 20.4416 4.71718 1.57234 -8.94961
186 1 11.0084 4.70963 11.0058 -8.95958
30 1 1.57221 7.86204 1.57233 -8.94946
31 1 3.14447 6.28936 0.000402693 -8.94984
32 1 4.71694 7.86204 1.57218 -8.95031
170 1 3.13481 9.43308 9.43211 -8.95819
34 1 7.86193 7.86173 1.57102 -8.95198
35 1 9.43453 6.2891 1.69719e-15 -8.94948
36 1 11.0067 7.86145 1.57085 -8.95046
37 1 12.5795 6.28928 4.48743e-05 -8.95007
38 1 14.1527 7.86121 1.57032 -8.95102
169 1 22.0121 9.43443 9.43439 -8.95146
40 1 17.2971 7.86191 1.57202 -8.94951
168 1 18.8698 6.28917 9.4344 -8.94988
42 1 20.4415 7.86207 1.57233 -8.94958
167 1 15.7277 6.28735 9.43343 -8.94815
166 1 12.5878 6.28143 9.42486 -8.92698
45 1 6.28947 9.43449 0.000875734 -8.951
46 1 9.43453 9.4345 8.75618e-16 -8.94953
165 1 9.43037 6.2873 9.43184 -9.00187
48 1 15.7247 9.4344 -0.000359645 -8.9494
184 1 4.71514 4.7149 11.0082 -8.94767
50 1 22.0139 -8.0307e-16 3.1448 -8.94961
51 1 1.57224 1.57225 4.71713 -8.94958
52 1 3.1447 -1.59307e-16 3.14469 -8.94958
53 1 4.71693 1.57189 4.71686 -8.94978
54 1 6.28966 4.28368e-17 3.14471 -8.94961
55 1 7.86211 1.57197 4.71692 -8.94956
56 1 9.43454 -3.69996e-16 3.14468 -8.94961
57 1 11.0071 1.57195 4.71688 -8.94954
58 1 12.5794 -5.18663e-16 3.14469 -8.94955
59 1 14.152 1.57195 4.71704 -8.95026
60 1 15.7243 -3.05596e-16 3.14473 -8.94982
61 1 17.2968 1.57231 4.7172 -8.94947
62 1 18.8691 1.06942e-16 3.14483 -8.9496
63 1 20.4415 1.57238 4.71724 -8.94962
64 1 22.0137 3.14468 3.14471 -8.9494
65 1 1.57139 4.71648 4.7165 -8.94868
66 1 3.14435 3.14433 3.14431 -8.94876
67 1 4.71487 4.7147 4.71458 -8.94543
68 1 6.28956 3.14437 3.14441 -8.94974
69 1 7.86183 4.71529 4.71564 -8.94927
70 1 9.43453 3.14429 3.14438 -8.94949
71 1 11.0073 4.71526 4.71563 -8.94778
72 1 12.5795 3.14431 3.14444 -8.94926
73 1 14.1536 4.71427 4.71529 -8.94986
74 1 15.7247 3.14412 3.14436 -8.94942
75 1 17.297 4.71695 4.71716 -8.95025
76 1 18.8691 3.14475 3.14479 -8.94977
77 1 20.4413 4.7171 4.71715 -8.94967
78 1 22.0138 6.2896 3.14468 -8.94973
79 1 1.57173 7.86198 4.71666 -8.94955
80 1 3.14421 6.28933 3.1441 -8.95028
81 1 4.71535 7.86152 4.71442 -8.95258
82 1 6.28824 6.28811 3.1419 -8.94988
83 1 7.85821 7.85748 4.70786 -8.95383
84 1 9.43437 6.28819 3.14279 -8.94806
85 1 11.007 7.8589 4.71003 -8.9528
86 1 12.5798 6.28833 3.14286 -8.94998
87 1 14.1616 7.85272 4.70757 -8.931
88 1 15.7265 6.28738 3.14257 -8.94531
89 1 17.2991 7.86099 4.71613 -8.95052
90 1 18.8696 6.28934 3.14449 -8.94962
91 1 20.4417 7.86195 4.71703 -8.94993
92 1 -0.000109247 9.43449 3.14463 -8.94959
93 1 3.14416 9.43442 3.14404 -8.94904
94 1 6.28933 9.43508 3.1433 -8.95079
95 1 9.43464 9.43454 3.14284 -8.95065
96 1 12.5812 9.43348 3.13817 -8.95802
97 1 15.726 9.43389 3.14297 -8.94822
98 1 18.8696 9.43443 3.14448 -8.94941
99 1 22.0139 1.29109e-15 6.28968 -8.94967
100 1 1.57227 1.57229 7.8621 -8.94967
101 1 3.1446 1.04386e-15 6.28954 -8.94967
102 1 4.71674 1.57158 7.86184 -8.94996
103 1 6.28947 8.49283e-16 6.28937 -8.95022
104 1 7.86197 1.57103 7.86176 -8.95101
105 1 9.43464 5.0536e-16 6.28937 -8.94993
106 1 11.0071 1.57166 7.86187 -8.94948
107 1 12.5795 5.70039e-16 6.28952 -8.95009
108 1 14.1523 1.57178 7.86182 -8.94969
109 1 15.7244 9.42167e-16 6.28956 -8.94952
110 1 17.2968 1.57226 7.86205 -8.94963
111 1 18.8691 8.34452e-16 6.28966 -8.94964
112 1 20.4415 1.57237 7.86209 -8.94962
113 1 -0.000152345 3.14467 6.28963 -8.94969
114 1 1.57156 4.71662 7.86197 -8.94986
115 1 3.14405 3.14381 6.28912 -8.94935
116 1 4.71408 4.71288 7.8601 -8.94829
117 1 6.28879 3.14236 6.28851 -8.95083
118 1 7.86031 4.70948 7.86003 -8.95674
119 1 9.43486 3.14288 6.28876 -8.9499
120 1 11.007 4.7144 7.86121 -8.95085
121 1 12.5797 3.14312 6.28922 -8.95195
122 1 14.1544 4.71447 7.86039 -8.94475
123 1 15.7248 3.14417 6.28935 -8.94866
124 1 17.2975 4.71657 7.86177 -8.94924
125 1 18.8692 3.14468 6.2896 -8.94951
126 1 20.4415 4.71704 7.86204 -8.94967
127 1 22.013 6.28921 6.28924 -8.94997
128 1 1.56868 7.86088 7.86091 -8.95209
129 1 3.14024 6.28635 6.28637 -8.94625
130 1 4.7002 7.85052 7.85095 -8.93978
131 1 6.27973 6.27912 6.27871 -8.93093
132 1 7.82455 7.82669 7.82643 -8.85894
133 1 9.43493 6.2827 6.28508 -8.95
134 1 11.024 7.85283 7.83622 -8.91419
135 1 12.585 6.2804 6.28305 -8.95449
136 1 14.1554 7.86198 7.86428 -8.95393
137 1 15.7256 6.2889 6.28973 -8.95167
138 1 17.2979 7.86168 7.86241 -8.94951
139 1 18.8693 6.28945 6.28964 -8.94971
140 1 20.4412 7.86184 7.86196 -8.95017
141 1 22.0133 9.43445 6.28922 -8.94961
142 1 3.14215 9.43445 6.28747 -8.94829
143 1 6.28554 9.4363 6.28285 -8.96062
144 1 9.42175 9.41568 6.28296 -8.90978
145 1 12.6169 9.40377 6.25573 -8.85468
146 1 15.7324 9.43257 6.28696 -8.95711
147 1 18.8705 9.43434 6.28942 -8.95127
148 1 -5.734e-05 1.45348e-15 9.43452 -8.94962
149 1 3.14461 1.81948e-15 9.43454 -8.94954
150 1 6.28931 1.57726e-15 9.43447 -8.95053
151 1 9.43457 1.27841e-15 9.43435 -8.94951
152 1 12.5797 1.48145e-15 9.43434 -8.95014
153 1 15.7245 1.82658e-15 9.43447 -8.94959
154 1 18.8691 1.93674e-15 9.43452 -8.94964
155 1 -0.000161937 3.14466 9.43452 -8.94952
156 1 3.14425 3.14416 9.43464 -8.9496
157 1 6.28836 3.14131 9.43438 -8.95149
158 1 9.43444 3.14244 9.43397 -8.9473
159 1 12.5805 3.14249 9.43366 -8.95024
160 1 15.7249 3.14403 9.43434 -8.94951
161 1 18.8692 3.14464 9.4345 -8.94959
162 1 22.0132 6.28928 9.43457 -8.94982
163 1 3.14143 6.28774 9.4348 -8.95056
164 1 6.2782 6.27459 9.43031 -8.94663
177 1 4.71676 1.57178 11.0071 -8.9493
178 1 7.86195 1.571 11.007 -8.95107
181 1 17.2968 1.57225 11.0069 -8.9496
11 1 15.7242 2.62622e-16 1.75348e-06 -8.94967
19 1 6.28965 3.14466 2.65113e-06 -8.94955
25 1 15.7243 3.14467 3.89296e-05 -8.94964
43 1 22.0138 9.43451 4.88961e-05 -8.94963
41 1 18.8691 6.28964 -4.81127e-05 -8.94964
176 1 1.57222 1.57225 11.007 -8.9496
343 1 18.8692 9.43449 18.8693 -8.94959
342 1 15.7249 9.43442 18.8699 -8.94904
179 1 11.0071 1.571 11.0069 -8.95107
180 1 14.1523 1.57178 11.0068 -8.9493
341 1 12.5797 9.43508 18.8706 -8.95079
182 1 20.4415 1.57236 11.007 -8.94964
183 1 1.57153 4.71656 11.007 -8.94901
340 1 9.43442 9.43454 18.8711 -8.95065
185 1 7.86062 4.70963 11.0081 -8.95958
339 1 6.28781 9.43348 18.8757 -8.95802
187 1 14.1539 4.7149 11.0057 -8.94767
338 1 3.14302 9.43389 18.8709 -8.94822
189 1 20.4415 4.717 11.007 -8.94957
337 1 -0.000531936 9.43443 18.8694 -8.94941
336 1 20.4414 7.86207 20.4416 -8.94958
192 1 7.81036 7.82406 11.0203 -8.81232
335 1 18.8691 6.2896 18.8692 -8.94973
194 1 14.1625 7.85946 11.0024 -8.95991
195 1 17.2991 7.8615 11.0063 -8.95127
196 1 20.4415 7.86182 11.007 -8.95006
197 1 -5.48456e-05 7.2787e-16 12.5794 -8.94964
198 1 1.57224 1.57226 14.1518 -8.94963
199 1 3.1446 1.49454e-15 12.5794 -8.94959
200 1 4.71679 1.57178 14.1521 -8.94969
201 1 6.28938 1.67975e-15 12.5796 -8.95014
202 1 7.86199 1.57166 14.152 -8.94948
203 1 9.43449 1.30698e-15 12.5796 -8.94951
204 1 11.0071 1.57103 14.1521 -8.95101
205 1 12.5797 1.9452e-15 12.5794 -8.95053
206 1 14.1523 1.57158 14.1521 -8.94996
207 1 15.7244 1.7155e-15 12.5794 -8.94954
208 1 17.2968 1.57229 14.1518 -8.94967
209 1 18.8691 1.60385e-15 12.5794 -8.94962
210 1 20.4415 1.57237 14.1518 -8.94962
211 1 22.0137 3.14464 12.5794 -8.94959
212 1 1.57151 4.71657 14.1521 -8.94924
213 1 3.14414 3.14403 12.5796 -8.94951
214 1 4.71466 4.71447 14.1535 -8.94475
215 1 6.2886 3.14249 12.5802 -8.95024
216 1 7.86204 4.7144 14.1527 -8.95085
217 1 9.43462 3.14244 12.5799 -8.9473
218 1 11.0088 4.70948 14.1539 -8.95674
219 1 12.5807 3.14131 12.5795 -8.95149
220 1 14.155 4.71288 14.1538 -8.94829
221 1 15.7248 3.14416 12.5793 -8.9496
222 1 17.2975 4.71662 14.1519 -8.94986
223 1 18.8692 3.14466 12.5794 -8.94952
224 1 20.4415 4.71704 14.1519 -8.94967
225 1 -0.000730349 6.28917 12.5795 -8.94988
226 1 1.57112 7.86168 14.1515 -8.94951
227 1 3.14137 6.28735 12.5805 -8.94815
228 1 4.71371 7.86198 14.1496 -8.95393
229 1 6.28125 6.28143 12.589 -8.92698
230 1 7.84509 7.85283 14.1777 -8.91419
231 1 9.43869 6.2873 12.5821 -9.00187
232 1 11.0445 7.82669 14.1875 -8.85894
233 1 12.5909 6.27459 12.5836 -8.94663
234 1 14.1689 7.85052 14.163 -8.93978
235 1 15.7276 6.28774 12.5791 -8.95056
236 1 17.3004 7.86088 14.153 -8.95209
237 1 18.8697 6.28928 12.5793 -8.94982
238 1 20.4418 7.86184 14.1519 -8.95017
239 1 22.0134 9.43424 12.5795 -8.94856
240 1 3.14468 9.43492 12.5798 -8.9404
241 1 6.30645 9.44654 12.579 -8.90024
242 1 9.50426 9.1945 12.5821 -8.10684
243 1 12.6231 9.39765 12.6117 -8.88597
244 1 15.7343 9.43308 12.5818 -8.95819
245 1 18.8708 9.43443 12.5795 -8.95146
246 1 -4.94935e-05 7.32129e-16 15.7242 -8.94964
247 1 1.57229 1.57231 17.2967 -8.94947
248 1 3.14464 1.00094e-15 15.7243 -8.94952
249 1 4.71706 1.57195 17.2969 -8.95026
250 1 6.28957 1.42577e-15 15.7244 -8.95009
251 1 7.86198 1.57195 17.297 -8.94954
252 1 9.43442 -3.34119e-17 15.7245 -8.94993
253 1 11.0069 1.57197 17.297 -8.94956
254 1 12.5796 1.25741e-15 15.7245 -8.95022
255 1 14.1521 1.57189 17.297 -8.94978
256 1 15.7245 1.28009e-15 15.7244 -8.94967
257 1 17.2968 1.57225 17.2968 -8.94958
258 1 18.8691 1.52654e-15 15.7242 -8.94967
259 1 20.4415 1.57238 17.2967 -8.94962
260 1 -0.000166724 3.14468 15.7243 -8.94951
261 1 1.57206 4.71695 17.2967 -8.95025
262 1 3.14423 3.14417 15.7246 -8.94866
263 1 4.71541 4.71427 17.2986 -8.94986
264 1 6.28934 3.14312 15.7247 -8.95195
265 1 7.86178 4.71526 17.2983 -8.94778
266 1 9.4342 3.14288 15.7251 -8.9499
267 1 11.0072 4.71529 17.2983 -8.94927
268 1 12.5803 3.14236 15.7254 -8.95083
269 1 14.1542 4.7147 17.2993 -8.94543
270 1 15.725 3.14381 15.7248 -8.94935
271 1 17.2977 4.71648 17.2974 -8.94868
272 1 18.8692 3.14467 15.7243 -8.94969
273 1 20.4416 4.7171 17.2968 -8.94967
274 1 22.0137 6.28945 15.7243 -8.94971
275 1 1.57001 7.86099 17.2978 -8.95052
276 1 3.1435 6.2889 15.7242 -8.95167
277 1 4.70743 7.85272 17.3063 -8.931
278 1 6.28405 6.2804 15.7309 -8.95449
279 1 7.86209 7.8589 17.3039 -8.9528
280 1 9.43413 6.2827 15.7288 -8.95
281 1 11.0109 7.85748 17.306 -8.95383
282 1 12.5893 6.27912 15.7352 -8.93093
283 1 14.1537 7.86152 17.2995 -8.95258
284 1 15.7288 6.28635 15.7275 -8.94625
285 1 17.2973 7.86198 17.2972 -8.94955
286 1 18.87 6.28921 15.7247 -8.94997
287 1 20.4412 7.86195 17.2969 -8.94993
288 1 22.0125 9.43434 15.7245 -8.95127
289 1 3.13667 9.43257 15.7269 -8.95711
290 1 6.25217 9.40377 15.7582 -8.85468
291 1 9.44731 9.41568 15.7309 -8.90978
292 1 12.5835 9.4363 15.7311 -8.96062
293 1 15.7269 9.43445 15.7264 -8.94829
294 1 18.8696 9.43445 15.7247 -8.94961
295 1 22.0139 4.25187e-16 18.8691 -8.9496
296 1 1.57231 1.57229 20.4416 -8.94951
297 1 3.14473 -2.76808e-16 18.8692 -8.94982
298 1 4.71724 1.57232 20.4416 -8.94959
299 1 6.28963 -1.15799e-15 18.8692 -8.94955
300 1 7.8621 1.5723 20.4416 -8.94962
301 1 9.43452 -5.98556e-16 18.8692 -8.94961
302 1 11.007 1.57231 20.4416 -8.9496
303 1 12.5794 5.43644e-16 18.8692 -8.94961
304 1 14.1518 1.57233 20.4416 -8.94969
305 1 15.7244 3.83016e-17 18.8692 -8.94958
306 1 17.2967 1.57234 20.4416 -8.94948
307 1 18.8691 7.70801e-16 18.8691 -8.94961
308 1 20.4415 1.57239 20.4415 -8.94958
309 1 22.0138 3.14475 18.8691 -8.94977
310 1 1.57195 4.7168 20.4419 -8.94871
311 1 3.14436 3.14412 18.8695 -8.94942
312 1 4.71706 4.71682 20.4419 -8.94992
313 1 6.28959 3.14431 18.8695 -8.94926
314 1 7.86205 4.71676 20.4419 -8.94943
315 1 9.43453 3.14429 18.8695 -8.94949
316 1 11.007 4.7168 20.4419 -8.9493
317 1 12.5795 3.14437 18.8695 -8.94974
318 1 14.1522 4.71678 20.4421 -8.94948
319 1 15.7247 3.14433 18.8696 -8.94876
320 1 17.2968 4.7171 20.4416 -8.94969
321 1 18.8692 3.14468 18.8692 -8.9494
322 1 20.4414 4.71718 20.4416 -8.94961
323 1 22.0133 6.28934 18.8694 -8.94962
324 1 1.57198 7.86191 20.4419 -8.94951
325 1 3.14251 6.28738 18.8713 -8.94531
326 1 4.71632 7.86121 20.4436 -8.95102
327 1 6.28925 6.28833 18.871 -8.94998
328 1 7.86232 7.86145 20.443 -8.95046
329 1 9.43468 6.28819 18.8711 -8.94806
330 1 11.0071 7.86173 20.4429 -8.95198
331 1 12.5808 6.28811 18.872 -8.94988
332 1 14.1521 7.86204 20.4417 -8.95031
333 1 15.7248 6.28933 18.8698 -8.95028
334 1 17.2968 7.86204 20.4416 -8.94946
5 1 6.28967 1.79179e-16 22.0139 -8.94962
47 1 12.5796 9.43449 22.013 -8.951
44 1 3.14439 9.4344 22.0143 -8.9494
39 1 15.7246 6.28936 22.0135 -8.94984
27 1 18.8691 3.14475 22.0139 -8.94945
33 1 6.28951 6.28928 22.0139 -8.95007
3 1 3.14483 -1.79273e-16 22.0139 -8.94967
13 1 18.8691 -3.0011e-16 22.0139 -8.94952
17 1 3.14472 3.14467 22.0139 -8.94964
23 1 12.5794 3.14466 22.0139 -8.94955
29 1 -8.92504e-05 6.28964 22.0139 -8.94964
49 1 18.8692 9.43451 22.0139 -8.94963
344 1 1.57218 11.007 1.57231 -8.94959
345 1 4.71669 11.007 1.57203 -8.95001
346 1 7.86201 11.007 1.57216 -8.94824
347 1 11.0069 11.007 1.57118 -8.94745
348 1 14.153 11.007 1.57026 -8.94936
349 1 17.2971 11.007 1.572 -8.9496
350 1 20.4415 11.007 1.57233 -8.94961
688 3 10.2167 11.007 9.44099 2.3107
352 1 1.57221 14.1519 1.57233 -8.94946
511 1 18.8692 18.8693 9.4345 -8.94959
354 1 4.71694 14.1519 1.57218 -8.95031
355 1 6.28947 12.5794 0.000875734 -8.951
356 1 7.86193 14.1522 1.57102 -8.95198
357 1 9.43453 12.5794 7.87856e-16 -8.94953
358 1 11.0067 14.1525 1.57085 -8.95046
510 1 15.7249 18.8699 9.43434 -8.94951
360 1 14.1527 14.1527 1.57032 -8.95102
361 1 15.7247 12.5795 -0.000359645 -8.9494
362 1 17.2971 14.152 1.57202 -8.94951
538 1 17.2968 20.4416 11.0069 -8.9496
364 1 20.4415 14.1518 1.57233 -8.94958
535 1 7.86195 20.4429 11.007 -8.95107
366 1 1.57223 17.2968 1.57234 -8.94969
367 1 3.14447 15.7245 0.000402693 -8.94984
368 1 4.71686 17.2971 1.57179 -8.94948
509 1 12.5805 18.8714 9.43366 -8.95024
370 1 7.86203 17.2971 1.57197 -8.9493
371 1 9.43453 15.7248 1.3952e-15 -8.94948
372 1 11.007 17.2971 1.57198 -8.94943
373 1 12.5795 15.7246 4.48743e-05 -8.95007
374 1 14.152 17.2971 1.57205 -8.94992
508 1 9.43444 18.8715 9.43397 -8.9473
376 1 17.2971 17.2971 1.57199 -8.94871
507 1 6.28836 18.8726 9.43438 -8.95149
378 1 20.4416 17.2967 1.57234 -8.94961
379 1 22.0138 18.8692 3.35822e-05 -8.94945
380 1 1.57233 20.4416 1.57234 -8.94948
534 1 4.71676 20.4421 11.0071 -8.9493
382 1 4.71723 20.4416 1.57234 -8.94969
506 1 3.14425 18.8697 9.43464 -8.9496
384 1 7.86209 20.4416 1.57232 -8.9496
385 1 9.43453 18.8693 -6.45609e-16 -8.94961
386 1 11.007 20.4416 1.57232 -8.94962
531 1 17.2975 17.2973 11.0069 -8.94901
388 1 14.1518 20.4416 1.57234 -8.94959
505 1 -0.000161937 18.8692 9.43452 -8.94952
390 1 17.2968 20.4416 1.57233 -8.94951
504 1 18.8698 15.7247 9.4344 -8.94988
392 1 20.4415 20.4415 1.57241 -8.94958
393 1 1.57162 11.007 4.71648 -8.94948
394 1 4.71509 11.007 4.71392 -8.94658
395 1 7.864 11.007 4.71783 -8.94382
396 1 11.011 11.007 4.71792 -9.00122
397 1 14.1593 11.007 4.70979 -8.94316
398 1 17.299 11.007 4.71603 -8.94906
399 1 20.4418 11.007 4.71696 -8.94978
400 1 -0.000109247 12.5794 3.14463 -8.94959
401 1 1.57173 14.1519 4.71666 -8.94955
402 1 3.14416 12.5795 3.14404 -8.94904
403 1 4.71535 14.1524 4.71442 -8.95258
404 1 6.28933 12.5788 3.1433 -8.95079
405 1 7.85821 14.1564 4.70786 -8.95383
406 1 9.43464 12.5794 3.14284 -8.95065
407 1 11.007 14.155 4.71003 -8.9528
408 1 12.5812 12.5804 3.13817 -8.95802
409 1 14.1616 14.1612 4.70757 -8.931
410 1 15.726 12.58 3.14297 -8.94822
411 1 17.2991 14.1529 4.71613 -8.95052
412 1 18.8696 12.5795 3.14448 -8.94941
413 1 20.4417 14.1519 4.71703 -8.94993
414 1 22.0138 15.7243 3.14468 -8.94973
415 1 1.57139 17.2974 4.7165 -8.94868
416 1 3.14421 15.7246 3.1441 -8.95028
417 1 4.71487 17.2992 4.71458 -8.94543
418 1 6.28824 15.7258 3.1419 -8.94988
419 1 7.86183 17.2986 4.71564 -8.94927
420 1 9.43437 15.7257 3.14279 -8.94806
421 1 11.0073 17.2986 4.71563 -8.94778
422 1 12.5798 15.7256 3.14286 -8.94998
423 1 14.1536 17.2996 4.71529 -8.94986
424 1 15.7265 15.7265 3.14257 -8.94531
425 1 17.297 17.2969 4.71716 -8.95025
426 1 18.8696 15.7246 3.14449 -8.94962
427 1 20.4413 17.2968 4.71715 -8.94967
428 1 22.0137 18.8692 3.14471 -8.9494
429 1 1.57224 20.4417 4.71713 -8.94958
430 1 3.14435 18.8696 3.14431 -8.94876
431 1 4.71693 20.442 4.71686 -8.94978
432 1 6.28956 18.8695 3.14441 -8.94974
433 1 7.86211 20.4419 4.71692 -8.94956
434 1 9.43453 18.8696 3.14438 -8.94949
435 1 11.0071 20.442 4.71688 -8.94954
436 1 12.5795 18.8696 3.14444 -8.94926
437 1 14.152 20.4419 4.71704 -8.95026
438 1 15.7247 18.8698 3.14436 -8.94942
439 1 17.2968 20.4416 4.7172 -8.94947
440 1 18.8691 18.8692 3.14479 -8.94977
441 1 20.4415 20.4415 4.71724 -8.94962
442 1 1.56975 11.007 7.8607 -8.94762
443 1 4.71144 11.007 7.85549 -8.93604
444 1 7.87609 11.007 7.8744 -8.94322
445 1 11.0875 11.007 7.63684 -8.11644
446 1 14.1621 11.007 7.85549 -8.97166
447 1 17.2993 11.007 7.86223 -8.95136
448 1 20.4415 11.007 7.86195 -8.94996
449 1 22.0133 12.5795 6.28922 -8.94961
450 1 1.56868 14.153 7.86091 -8.95209
451 1 3.14215 12.5794 6.28747 -8.94829
452 1 4.7002 14.1634 7.85095 -8.93978
453 1 6.28554 12.5776 6.28285 -8.96062
454 1 7.82455 14.1872 7.82643 -8.85894
455 1 9.42175 12.5982 6.28296 -8.90978
456 1 11.024 14.1611 7.83622 -8.91419
457 1 12.6169 12.6101 6.25573 -8.85468
458 1 14.1554 14.1519 7.86428 -8.95393
459 1 15.7324 12.5813 6.28696 -8.95711
460 1 17.2979 14.1522 7.86241 -8.94951
461 1 18.8705 12.5796 6.28942 -8.95127
462 1 20.4412 14.1521 7.86196 -8.95017
463 1 22.013 15.7247 6.28924 -8.94997
464 1 1.57156 17.2973 7.86197 -8.94986
465 1 3.14024 15.7276 6.28637 -8.94625
466 1 4.71408 17.301 7.8601 -8.94829
467 1 6.27973 15.7348 6.27871 -8.93093
468 1 7.86031 17.3044 7.86003 -8.95674
469 1 9.43493 15.7312 6.28508 -8.95
470 1 11.007 17.2995 7.86121 -8.95085
471 1 12.585 15.7335 6.28305 -8.95449
472 1 14.1544 17.2994 7.86039 -8.94475
473 1 15.7256 15.725 6.28973 -8.95167
474 1 17.2975 17.2973 7.86177 -8.94924
475 1 18.8693 15.7244 6.28964 -8.94971
476 1 20.4415 17.2969 7.86204 -8.94967
477 1 -0.000152345 18.8692 6.28963 -8.94969
478 1 1.57227 20.4416 7.8621 -8.94967
479 1 3.14405 18.8701 6.28912 -8.94935
480 1 4.71674 20.4423 7.86184 -8.94996
481 1 6.28879 18.8715 6.28851 -8.95083
482 1 7.86197 20.4429 7.86176 -8.95101
483 1 9.43486 18.871 6.28876 -8.9499
484 1 11.0071 20.4422 7.86187 -8.94948
485 1 12.5797 18.8708 6.28922 -8.95195
486 1 14.1523 20.4421 7.86182 -8.94969
487 1 15.7248 18.8697 6.28935 -8.94866
488 1 17.2968 20.4416 7.86205 -8.94963
489 1 18.8692 18.8692 6.2896 -8.94951
490 1 20.4415 20.4415 7.86209 -8.94962
491 1 22.0121 12.5795 9.43439 -8.95146
492 1 3.13481 12.5808 9.43211 -8.95819
493 1 6.24598 12.6163 9.40217 -8.88597
494 1 9.36479 12.8194 9.43178 -8.10684
495 1 12.5626 12.5674 9.43492 -8.90024
496 1 15.7244 12.579 9.43411 -8.9404
497 1 18.8696 12.5797 9.43439 -8.94856
498 1 22.0132 15.7246 9.43457 -8.94982
499 1 3.14143 15.7262 9.4348 -8.95056
500 1 6.2782 15.7393 9.43031 -8.94663
501 1 9.43037 15.7266 9.43184 -9.00187
502 1 12.5878 15.7325 9.42486 -8.92698
503 1 15.7277 15.7265 9.43343 -8.94815
512 1 1.56971 11.007 11.0077 -8.9501
513 1 4.70955 11.007 11.0009 -8.96869
514 1 7.79251 11.007 10.7713 -8.02452
519 1 1.56994 14.1524 11.0076 -8.95127
520 1 4.70651 14.1544 11.0115 -8.95991
522 1 11.0587 14.1898 10.9936 -8.81232
527 1 4.71514 17.299 11.0082 -8.94767
529 1 11.0084 17.3043 11.0058 -8.95958
351 1 22.0138 12.5794 4.88961e-05 -8.94963
377 1 18.8691 15.7243 -4.81127e-05 -8.94964
389 1 15.7243 18.8692 3.89296e-05 -8.94964
383 1 6.28965 18.8692 2.65113e-06 -8.94955
687 3 8.65236 11.007 12.5729 2.3107
686 1 20.4415 20.4415 20.4415 -8.94958
685 1 18.8692 18.8692 18.8692 -8.9494
515 1 11.0766 11.007 11.2426 -8.02452
516 1 14.1595 11.007 11.013 -8.96869
517 1 17.2994 11.007 11.0062 -8.9501
518 1 20.4415 11.007 11.007 -8.94995
684 1 17.2967 20.4416 20.4416 -8.94948
683 1 15.7247 18.8696 18.8696 -8.94876
521 1 7.81036 14.1898 11.0203 -8.81232
682 1 14.1518 20.4416 20.4416 -8.94969
523 1 14.1625 14.1544 11.0024 -8.95991
524 1 17.2991 14.1524 11.0063 -8.95127
525 1 20.4415 14.1521 11.007 -8.95006
526 1 1.57153 17.2973 11.007 -8.94901
681 1 12.5795 18.8695 18.8695 -8.94974
528 1 7.86062 17.3043 11.0081 -8.95958
680 1 11.007 20.4416 20.4416 -8.9496
530 1 14.1539 17.299 11.0057 -8.94767
679 1 9.43453 18.8696 18.8695 -8.94949
532 1 20.4415 17.2969 11.007 -8.94957
533 1 1.57222 20.4416 11.007 -8.9496
678 1 7.8621 20.4416 20.4416 -8.94962
677 1 6.28959 18.8696 18.8695 -8.94926
536 1 11.0071 20.4429 11.0069 -8.95107
537 1 14.1523 20.4421 11.0068 -8.9493
676 1 4.71724 20.4416 20.4416 -8.94959
539 1 20.4415 20.4415 11.007 -8.94964
540 1 1.56972 11.007 14.1517 -8.95136
541 1 4.70701 11.007 14.1584 -8.97166
542 1 7.78156 11.007 14.3771 -8.11644
543 1 10.993 11.007 14.1395 -8.94322
544 1 14.1576 11.007 14.1584 -8.93604
545 1 17.2993 11.007 14.1532 -8.94762
546 1 20.4415 11.007 14.152 -8.94996
547 1 22.0134 12.5797 12.5795 -8.94856
548 1 1.57112 14.1522 14.1515 -8.94951
549 1 3.14468 12.579 12.5798 -8.9404
550 1 4.71371 14.1519 14.1496 -8.95393
551 1 6.30645 12.5674 12.579 -8.90024
552 1 7.84509 14.1611 14.1777 -8.91419
553 1 9.50426 12.8194 12.5821 -8.10684
554 1 11.0445 14.1872 14.1875 -8.85894
555 1 12.6231 12.6163 12.6117 -8.88597
556 1 14.1689 14.1634 14.163 -8.93978
557 1 15.7343 12.5808 12.5818 -8.95819
558 1 17.3004 14.153 14.153 -8.95209
559 1 18.8708 12.5795 12.5795 -8.95146
560 1 20.4418 14.1521 14.1519 -8.95017
561 1 -0.000730349 15.7247 12.5795 -8.94988
562 1 1.57151 17.2973 14.1521 -8.94924
563 1 3.14137 15.7265 12.5805 -8.94815
564 1 4.71466 17.2994 14.1535 -8.94475
565 1 6.28125 15.7325 12.589 -8.92698
566 1 7.86204 17.2995 14.1527 -8.95085
567 1 9.43869 15.7266 12.5821 -9.00187
568 1 11.0088 17.3044 14.1539 -8.95674
569 1 12.5909 15.7393 12.5836 -8.94663
570 1 14.155 17.301 14.1538 -8.94829
571 1 15.7276 15.7262 12.5791 -8.95056
572 1 17.2975 17.2973 14.1519 -8.94986
573 1 18.8697 15.7246 12.5793 -8.94982
574 1 20.4415 17.2969 14.1519 -8.94967
575 1 22.0137 18.8693 12.5794 -8.94959
576 1 1.57224 20.4416 14.1518 -8.94963
577 1 3.14414 18.8699 12.5796 -8.94951
578 1 4.71679 20.4421 14.1521 -8.94969
579 1 6.2886 18.8714 12.5802 -8.95024
580 1 7.86199 20.4422 14.152 -8.94948
581 1 9.43462 18.8715 12.5799 -8.9473
582 1 11.0071 20.4429 14.1521 -8.95101
583 1 12.5807 18.8726 12.5795 -8.95149
584 1 14.1523 20.4423 14.1521 -8.94996
585 1 15.7248 18.8697 12.5793 -8.9496
586 1 17.2968 20.4416 14.1518 -8.94967
587 1 18.8692 18.8692 12.5794 -8.94952
588 1 20.4415 20.4415 14.1518 -8.94962
589 1 1.57005 11.007 17.2979 -8.94906
590 1 4.70976 11.007 17.3041 -8.94316
591 1 7.85802 11.007 17.296 -9.00122
592 1 11.0051 11.007 17.2961 -8.94382
593 1 14.154 11.007 17.3 -8.94658
594 1 17.2974 11.007 17.2974 -8.94948
595 1 20.4412 11.007 17.2969 -8.94978
596 1 22.0125 12.5796 15.7245 -8.95127
597 1 1.57001 14.1529 17.2978 -8.95052
598 1 3.13667 12.5813 15.7269 -8.95711
599 1 4.70743 14.1612 17.3063 -8.931
600 1 6.25217 12.6101 15.7582 -8.85468
601 1 7.86209 14.155 17.3039 -8.9528
602 1 9.44731 12.5982 15.7309 -8.90978
603 1 11.0109 14.1564 17.306 -8.95383
604 1 12.5835 12.5776 15.7311 -8.96062
605 1 14.1537 14.1524 17.2995 -8.95258
606 1 15.7269 12.5794 15.7264 -8.94829
607 1 17.2973 14.1519 17.2972 -8.94955
608 1 18.8696 12.5795 15.7247 -8.94961
609 1 20.4412 14.1519 17.2969 -8.94993
610 1 22.0137 15.7244 15.7243 -8.94971
611 1 1.57206 17.2969 17.2967 -8.95025
612 1 3.1435 15.725 15.7242 -8.95167
613 1 4.71541 17.2996 17.2986 -8.94986
614 1 6.28405 15.7335 15.7309 -8.95449
615 1 7.86178 17.2986 17.2983 -8.94778
616 1 9.43413 15.7312 15.7288 -8.95
617 1 11.0072 17.2986 17.2983 -8.94927
618 1 12.5893 15.7348 15.7352 -8.93093
619 1 14.1542 17.2992 17.2993 -8.94543
620 1 15.7288 15.7276 15.7275 -8.94625
621 1 17.2977 17.2974 17.2974 -8.94868
622 1 18.87 15.7247 15.7247 -8.94997
623 1 20.4416 17.2968 17.2968 -8.94967
624 1 -0.000166724 18.8692 15.7243 -8.94951
625 1 1.57229 20.4416 17.2967 -8.94947
626 1 3.14423 18.8697 15.7246 -8.94866
627 1 4.71706 20.4419 17.2969 -8.95026
628 1 6.28934 18.8708 15.7247 -8.95195
629 1 7.86198 20.442 17.297 -8.94954
630 1 9.4342 18.871 15.7251 -8.9499
631 1 11.0069 20.4419 17.297 -8.94956
632 1 12.5803 18.8715 15.7254 -8.95083
633 1 14.1521 20.442 17.297 -8.94978
634 1 15.725 18.8701 15.7248 -8.94935
635 1 17.2968 20.4417 17.2968 -8.94958
636 1 18.8692 18.8692 15.7243 -8.94969
637 1 20.4415 20.4415 17.2967 -8.94962
638 1 1.57196 11.007 20.4419 -8.9496
639 1 4.71606 11.007 20.4436 -8.94936
640 1 7.86219 11.007 20.4427 -8.94745
641 1 11.0071 11.007 20.4417 -8.94824
642 1 14.1524 11.007 20.4419 -8.95001
643 1 17.2969 11.007 20.4416 -8.94959
644 1 20.4414 11.007 20.4416 -8.94961
645 1 -0.000531936 12.5795 18.8694 -8.94941
646 1 1.57198 14.152 20.4419 -8.94951
647 1 3.14302 12.58 18.8709 -8.94822
648 1 4.71632 14.1527 20.4436 -8.95102
649 1 6.28781 12.5804 18.8757 -8.95802
650 1 7.86232 14.1525 20.443 -8.95046
651 1 9.43442 12.5794 18.8711 -8.95065
652 1 11.0071 14.1522 20.4429 -8.95198
653 1 12.5797 12.5788 18.8706 -8.95079
654 1 14.1521 14.1519 20.4417 -8.95031
655 1 15.7249 12.5795 18.8699 -8.94904
656 1 17.2968 14.1519 20.4416 -8.94946
657 1 18.8692 12.5794 18.8693 -8.94959
658 1 20.4414 14.1518 20.4416 -8.94958
659 1 22.0133 15.7246 18.8694 -8.94962
660 1 1.57195 17.2971 20.4419 -8.94871
661 1 3.14251 15.7265 18.8713 -8.94531
662 1 4.71706 17.2971 20.4419 -8.94992
663 1 6.28925 15.7256 18.871 -8.94998
664 1 7.86205 17.2971 20.4419 -8.94943
665 1 9.43468 15.7257 18.8711 -8.94806
666 1 11.007 17.2971 20.4419 -8.9493
667 1 12.5808 15.7258 18.872 -8.94988
668 1 14.1522 17.2971 20.4421 -8.94948
669 1 15.7248 15.7246 18.8698 -8.95028
670 1 17.2968 17.2968 20.4416 -8.94969
671 1 18.8691 15.7243 18.8692 -8.94973
672 1 20.4414 17.2967 20.4416 -8.94961
673 1 22.0138 18.8692 18.8691 -8.94977
674 1 1.57231 20.4416 20.4416 -8.94951
675 1 3.14436 18.8698 18.8695 -8.94942
391 1 18.8691 18.8692 22.0139 -8.94945
353 1 3.14439 12.5795 22.0143 -8.9494
359 1 12.5796 12.5794 22.013 -8.951
369 1 6.28951 15.7246 22.0139 -8.95007
375 1 15.7246 15.7245 22.0135 -8.94984
363 1 18.8692 12.5794 22.0139 -8.94963
365 1 -8.92504e-05 15.7243 22.0139 -8.94964
381 1 3.14472 18.8692 22.0139 -8.94964
387 1 12.5794 18.8692 22.0139 -8.94955
