ITEM: TIMESTEP
85
ITEM: NUMBER OF ATOMS
688
ITEM: BOX BOUNDS pp pp pp
0.0000000000000000e+00 2.2013900999999997e+01
0.0000000000000000e+00 2.2013900999999997e+01
0.0000000000000000e+00 2.2013900999999997e+01
ITEM: ATOMS id type x y z c_pot
1 1 22.0137 1.4547e-16 3.79852e-05 -8.94932
2 1 1.57206 1.57214 1.57216 -8.94932
193 1 11.0632 7.82094 10.9952 -8.80673
4 1 4.71705 1.57208 1.57212 -8.94963
175 1 18.8695 9.43428 9.4343 -8.94811
6 1 7.86205 1.57206 1.57211 -8.9495
7 1 9.43453 -6.21816e-16 8.20034e-16 -8.94958
8 1 11.007 1.57205 1.5721 -8.94953
9 1 12.5795 2.27039e-16 -4.308e-06 -8.94955
10 1 14.152 1.57208 1.57217 -8.94951
174 1 15.7234 9.43578 9.43414 -8.93979
12 1 17.297 1.57202 1.57216 -8.9494
191 1 4.70451 7.85889 11.0118 -8.9612
14 1 20.4414 1.57225 1.57234 -8.94944
15 1 22.0136 3.14449 6.63277e-05 -8.94928
16 1 1.57184 4.71675 1.57214 -8.94974
190 1 1.56905 7.86141 11.0078 -8.95186
18 1 4.71635 4.71616 1.57121 -8.94943
173 1 12.5594 9.44795 9.43525 -8.90035
20 1 7.8619 4.7162 1.57149 -8.94914
21 1 9.43453 3.1442 8.36595e-16 -8.9495
22 1 11.0071 4.71615 1.57154 -8.9493
188 1 17.2984 4.7159 11.0067 -8.94878
24 1 14.1524 4.71619 1.57155 -8.95001
172 1 9.36761 9.18573 9.43122 -8.11578
26 1 17.2977 4.71627 1.57157 -8.94841
171 1 6.24569 9.39548 9.40056 -8.8853
28 1 20.4416 4.71694 1.57218 -8.94956
186 1 11.0088 4.70888 11.0056 -8.96092
30 1 1.57183 7.86187 1.57217 -8.9493
31 1 3.14403 6.28901 0.000659643 -8.95
32 1 4.71666 7.86196 1.57195 -8.95053
170 1 3.1335 9.4328 9.43128 -8.95841
34 1 7.86197 7.8616 1.57059 -8.95263
35 1 9.43453 6.28862 1.37817e-15 -8.9495
36 1 11.0068 7.86122 1.57019 -8.95094
37 1 12.5798 6.28888 -1.17636e-05 -8.95043
38 1 14.1533 7.8608 1.56939 -8.95131
169 1 22.0114 9.4344 9.4343 -8.9515
40 1 17.2977 7.86158 1.57151 -8.94927
168 1 18.8703 6.28875 9.43427 -8.95003
42 1 20.4416 7.86193 1.57214 -8.94948
167 1 15.7291 6.28659 9.43285 -8.94801
166 1 12.5897 6.28015 9.42311 -8.92499
45 1 6.28934 9.43454 0.0011493 -8.95109
46 1 9.43453 9.43469 1.35069e-15 -8.94923
165 1 9.43025 6.28785 9.4309 -9.00327
48 1 15.7252 9.43425 -0.000672674 -8.94933
184 1 4.71383 4.71362 11.0088 -8.94695
50 1 22.0137 3.9255e-17 3.14465 -8.9495
51 1 1.57182 1.57191 4.7168 -8.94945
52 1 3.14441 -1.29925e-16 3.14436 -8.94955
53 1 4.71652 1.57137 4.71634 -8.94986
54 1 6.28955 -1.01799e-16 3.14437 -8.94957
55 1 7.86205 1.57147 4.71644 -8.94957
56 1 9.43457 -3.5142e-16 3.14433 -8.94955
57 1 11.0072 1.5715 4.71645 -8.9495
58 1 12.5796 -1.98975e-16 3.1444 -8.94948
59 1 14.1523 1.5715 4.71672 -8.95057
60 1 15.7246 2.74242e-16 3.14451 -8.94998
61 1 17.2971 1.57208 4.71701 -8.94934
62 1 18.8692 5.90482e-16 3.14475 -8.9495
63 1 20.4414 1.57222 4.71713 -8.94957
64 1 22.0134 3.14435 3.14444 -8.94923
65 1 1.57036 4.71566 4.71572 -8.94841
66 1 3.14372 3.14369 3.14366 -8.94841
67 1 4.71344 4.71314 4.71299 -8.94484
68 1 6.28926 3.14366 3.14378 -8.94958
69 1 7.86131 4.71381 4.71441 -8.94905
70 1 9.43455 3.14364 3.14383 -8.94934
71 1 11.0076 4.71409 4.71455 -8.94741
72 1 12.5797 3.14366 3.14394 -8.94908
73 1 14.1549 4.7127 4.71392 -8.94984
74 1 15.7253 3.14335 3.1438 -8.94935
75 1 17.2975 4.71646 4.71686 -8.95051
76 1 18.8692 3.14448 3.14462 -8.94982
77 1 20.4412 4.71677 4.7169 -8.94973
78 1 22.0136 6.28936 3.14437 -8.94974
79 1 1.57095 7.86171 4.71601 -8.94949
80 1 3.14349 6.28887 3.14335 -8.95059
81 1 4.7142 7.86103 4.7131 -8.95322
82 1 6.28736 6.28708 3.14037 -8.9499
83 1 7.85694 7.85576 4.7059 -8.95369
84 1 9.43431 6.28731 3.14168 -8.94781
85 1 11.0076 7.85785 4.70806 -8.9532
86 1 12.5805 6.28743 3.14146 -8.95011
87 1 14.1638 7.8512 4.70544 -8.9304
88 1 15.7278 6.28624 3.14136 -8.94477
89 1 17.3003 7.8604 4.71541 -8.95067
90 1 18.8701 6.28894 3.14409 -8.94961
91 1 20.4419 7.86173 4.71667 -8.95001
92 1 -0.000314615 9.4344 3.14425 -8.9495
93 1 3.14354 9.43431 3.14338 -8.94883
94 1 6.28932 9.43523 3.14296 -8.95081
95 1 9.43503 9.43466 3.14305 -8.95105
96 1 12.5821 9.43342 3.13711 -8.95873
97 1 15.7274 9.43342 3.14172 -8.94775
98 1 18.8702 9.43425 3.144 -8.9493
99 1 22.0137 1.4214e-15 6.2896 -8.94966
100 1 1.57189 1.572 7.86204 -8.94963
101 1 3.14414 7.73125e-16 6.28924 -8.94975
102 1 4.71617 1.57084 7.86158 -8.95024
103 1 6.28925 -3.36085e-16 6.28901 -8.9504
104 1 7.86184 1.57042 7.86154 -8.95119
105 1 9.43472 4.30356e-16 6.28902 -8.95003
106 1 11.0071 1.5713 7.86171 -8.94938
107 1 12.5796 1.47076e-15 6.28931 -8.95023
108 1 14.1527 1.57132 7.86153 -8.94975
109 1 15.7248 1.47987e-15 6.28933 -8.94947
110 1 17.2972 1.57199 7.86189 -8.94952
111 1 18.8693 6.49163e-16 6.28957 -8.94957
112 1 20.4415 1.5722 7.86203 -8.94955
113 1 -0.000503738 3.14428 6.28943 -8.94968
114 1 1.57053 4.71584 7.86168 -8.94996
115 1 3.14305 3.14271 6.2884 -8.94907
116 1 4.71198 4.71054 7.85883 -8.94767
117 1 6.28817 3.14098 6.28779 -8.95101
118 1 7.85941 4.70776 7.85934 -8.9572
119 1 9.43485 3.14183 6.28815 -8.95012
120 1 11.0071 4.71361 7.86051 -8.95124
121 1 12.58 3.14221 6.28876 -8.9524
122 1 14.1556 4.71329 7.85936 -8.9439
123 1 15.7255 3.14348 6.28892 -8.9483
124 1 17.2983 4.71597 7.86143 -8.9491
125 1 18.8695 3.14434 6.28942 -8.94941
126 1 20.4415 4.71665 7.86191 -8.94972
127 1 22.0121 6.2887 6.28879 -8.95012
128 1 1.56697 7.86025 7.86028 -8.95253
129 1 3.138 6.28474 6.28478 -8.94597
130 1 4.69698 7.84833 7.84895 -8.94013
131 1 6.27721 6.27652 6.27616 -8.93006
132 1 7.82151 7.82355 7.8243 -8.85703
133 1 9.43444 6.28064 6.28331 -8.94999
134 1 11.0268 7.85073 7.8322 -8.91106
135 1 12.5871 6.27828 6.28042 -8.9542
136 1 14.1563 7.86221 7.8639 -8.95485
137 1 15.7266 6.28836 6.28928 -8.9522
138 1 17.2984 7.86171 7.86246 -8.9498
139 1 18.8695 6.28919 6.28952 -8.94988
140 1 20.4409 7.86162 7.86184 -8.95033
141 1 22.0127 9.43432 6.28876 -8.94954
142 1 3.14081 9.43425 6.2864 -8.94814
143 1 6.28458 9.43615 6.28218 -8.96179
144 1 9.42 9.41271 6.28266 -8.90807
145 1 12.6191 9.40305 6.25359 -8.85526
146 1 15.7341 9.43231 6.2859 -8.95755
147 1 18.871 9.43423 6.28912 -8.95155
148 1 -0.00023397 1.23172e-15 9.4345 -8.94956
149 1 3.14418 1.5994e-15 9.43456 -8.94945
150 1 6.28903 7.55182e-16 9.4345 -8.9509
151 1 9.43456 1.2906e-15 9.43423 -8.94906
152 1 12.5799 1.82158e-15 9.43418 -8.95024
153 1 15.7249 1.78718e-15 9.43431 -8.9495
154 1 18.8693 1.72399e-15 9.43447 -8.94958
155 1 -0.000457007 3.14427 9.4345 -8.9494
156 1 3.1435 3.14338 9.43471 -8.9495
157 1 6.28758 3.13982 9.43438 -8.9522
158 1 9.43428 3.14217 9.43373 -8.94673
159 1 12.5809 3.14166 9.43323 -8.95044
160 1 15.7256 3.14331 9.43401 -8.9493
161 1 18.8695 3.14425 9.4344 -8.94949
162 1 22.0126 6.28888 9.43459 -8.95002
163 1 3.13943 6.28658 9.43466 -8.95092
164 1 6.27468 6.27116 9.42882 -8.94513
177 1 4.71624 1.57126 11.0073 -8.94919
178 1 7.86194 1.57065 11.0071 -8.95114
181 1 17.2972 1.57197 11.0069 -8.94952
11 1 15.7244 5.12957e-16 1.62852e-05 -8.94963
19 1 6.28952 3.14427 -1.45033e-05 -8.94944
25 1 15.7247 3.14428 7.08995e-05 -8.94957
43 1 22.0136 9.43443 0.000121474 -8.94954
41 1 18.8694 6.28944 -0.000121532 -8.94952
176 1 1.57183 1.57197 11.007 -8.94952
343 1 18.8694 9.4344 18.8697 -8.9495
342 1 15.7255 9.43431 18.8705 -8.94883
179 1 11.0071 1.57065 11.0068 -8.95114
180 1 14.1528 1.57126 11.0066 -8.94919
341 1 12.5797 9.43523 18.8709 -8.95081
182 1 20.4415 1.57218 11.007 -8.94958
183 1 1.57068 4.7159 11.0072 -8.94878
340 1 9.43403 9.43466 18.8708 -8.95105
185 1 7.86023 4.70888 11.0083 -8.96092
339 1 6.28693 9.43342 18.8768 -8.95873
187 1 14.1552 4.71362 11.0051 -8.94695
338 1 3.14167 9.43342 18.8722 -8.94775
189 1 20.4415 4.71655 11.007 -8.94952
337 1 -0.00112664 9.43425 18.8699 -8.9493
336 1 20.4413 7.86193 20.4418 -8.94948
192 1 7.8059 7.82094 11.0187 -8.80673
335 1 18.8694 6.28936 18.8695 -8.94974
194 1 14.1645 7.85889 11.0021 -8.9612
195 1 17.3 7.86141 11.0061 -8.95186
196 1 20.4415 7.86164 11.007 -8.95016
197 1 -0.000237034 1.62042e-15 12.5794 -8.94958
198 1 1.57187 1.57199 14.152 -8.94952
199 1 3.14415 1.66328e-15 12.5796 -8.9495
200 1 4.71636 1.57132 14.1524 -8.94975
201 1 6.28915 1.74941e-15 12.5797 -8.95024
202 1 7.86196 1.5713 14.1522 -8.94938
203 1 9.4345 1.741e-15 12.5797 -8.94906
204 1 11.0072 1.57042 14.1524 -8.95119
205 1 12.58 1.10724e-15 12.5794 -8.9509
206 1 14.1529 1.57084 14.1523 -8.95024
207 1 15.7249 1.44065e-15 12.5793 -8.94945
208 1 17.2972 1.572 14.1519 -8.94963
209 1 18.8693 1.28934e-15 12.5794 -8.94956
210 1 20.4415 1.5722 14.1519 -8.94955
211 1 22.0134 3.14425 12.5795 -8.94949
212 1 1.57074 4.71597 14.1525 -8.9491
213 1 3.14341 3.14331 12.5799 -8.9493
214 1 4.71344 4.71329 14.1545 -8.9439
215 1 6.28815 3.14166 12.5807 -8.95044
216 1 7.86196 4.71361 14.1534 -8.95124
217 1 9.43478 3.14217 12.5802 -8.94673
218 1 11.0096 4.70776 14.1546 -8.9572
219 1 12.5815 3.13982 12.5795 -8.9522
220 1 14.1571 4.71054 14.1551 -8.94767
221 1 15.7256 3.14338 12.5792 -8.9495
222 1 17.2985 4.71584 14.1522 -8.94996
223 1 18.8695 3.14427 12.5794 -8.9494
224 1 20.4415 4.71665 14.152 -8.94972
225 1 -0.00121258 6.28875 12.5796 -8.95003
226 1 1.57065 7.86171 14.1514 -8.9498
227 1 3.13994 6.28659 12.581 -8.94801
228 1 4.71274 7.86221 14.15 -8.95485
229 1 6.27935 6.28015 12.5908 -8.92499
230 1 7.84228 7.85073 14.1817 -8.91106
231 1 9.43881 6.28785 12.583 -9.00327
232 1 11.0475 7.82355 14.1896 -8.85703
233 1 12.5944 6.27116 12.5851 -8.94513
234 1 14.1721 7.84833 14.1649 -8.94013
235 1 15.7296 6.28658 12.5792 -8.95092
236 1 17.3021 7.86025 14.1536 -8.95253
237 1 18.8704 6.28888 12.5793 -8.95002
238 1 20.4421 7.86162 14.1521 -8.95033
239 1 22.0134 9.43428 12.5796 -8.94811
240 1 3.14565 9.43578 12.5798 -8.93979
241 1 6.30967 9.44795 12.5786 -8.90035
242 1 9.50145 9.18573 12.5827 -8.11578
243 1 12.6234 9.39548 12.6133 -8.8853
244 1 15.7356 9.4328 12.5826 -8.95841
245 1 18.8715 9.4344 12.5796 -8.9515
246 1 -0.000206131 4.36712e-16 15.7243 -8.94957
247 1 1.572 1.57208 17.2969 -8.94934
248 1 3.14428 1.84688e-15 15.7246 -8.94947
249 1 4.71677 1.5715 17.2972 -8.95057
250 1 6.28944 1.6771e-15 15.7246 -8.95023
251 1 7.86182 1.5715 17.2975 -8.9495
252 1 9.43434 1.98597e-16 15.7249 -8.95003
253 1 11.007 1.57147 17.2975 -8.94957
254 1 12.5798 4.48984e-16 15.7249 -8.9504
255 1 14.1525 1.57137 17.2976 -8.94986
256 1 15.7249 9.09646e-16 15.7247 -8.94975
257 1 17.2972 1.57191 17.2971 -8.94945
258 1 18.8693 1.07926e-15 15.7243 -8.94966
259 1 20.4415 1.57222 17.2968 -8.94957
260 1 -0.00041587 3.14434 15.7245 -8.94941
261 1 1.57152 4.71646 17.297 -8.95051
262 1 3.14359 3.14348 15.725 -8.9483
263 1 4.71415 4.7127 17.3 -8.94984
264 1 6.28904 3.14221 15.7251 -8.9524
265 1 7.86148 4.71409 17.2994 -8.94741
266 1 9.4342 3.14183 15.7258 -8.95012
267 1 11.0077 4.71381 17.2995 -8.94905
268 1 12.5809 3.14098 15.7261 -8.95101
269 1 14.1556 4.71314 17.3009 -8.94484
270 1 15.726 3.14271 15.7255 -8.94907
271 1 17.2987 4.71566 17.2982 -8.94841
272 1 18.8696 3.14428 15.7245 -8.94968
273 1 20.4418 4.71677 17.297 -8.94973
274 1 22.0134 6.28919 15.7244 -8.94988
275 1 1.56877 7.8604 17.2985 -8.95067
276 1 3.14246 6.28836 15.7246 -8.9522
277 1 4.70522 7.8512 17.3085 -8.9304
278 1 6.28199 6.27828 15.7335 -8.9542
279 1 7.86142 7.85785 17.3058 -8.9532
280 1 9.43462 6.28064 15.7306 -8.94999
281 1 11.0121 7.85576 17.308 -8.95369
282 1 12.5919 6.27652 15.7377 -8.93006
283 1 14.1549 7.86103 17.3008 -8.95322
284 1 15.7311 6.28474 15.7291 -8.94597
285 1 17.2981 7.86171 17.2979 -8.94949
286 1 18.8708 6.2887 15.7251 -8.95012
287 1 20.4411 7.86173 17.2972 -8.95001
288 1 22.0119 9.43423 15.7248 -8.95155
289 1 3.13498 9.43231 15.728 -8.95755
290 1 6.24998 9.40305 15.7603 -8.85526
291 1 9.44906 9.41271 15.7312 -8.90807
292 1 12.5845 9.43615 15.7317 -8.96179
293 1 15.7282 9.43425 15.7275 -8.94814
294 1 18.8702 9.43432 15.7251 -8.94954
295 1 22.0138 4.87049e-16 18.8691 -8.9495
296 1 1.57204 1.57202 20.4417 -8.9494
297 1 3.1445 -1.03422e-16 18.8694 -8.94998
298 1 4.71709 1.57208 20.4417 -8.94951
299 1 6.28948 -8.53308e-16 18.8695 -8.94948
300 1 7.86203 1.57205 20.4418 -8.94953
301 1 9.43448 -6.32445e-17 18.8696 -8.94955
302 1 11.007 1.57206 20.4418 -8.9495
303 1 12.5795 1.50072e-15 18.8695 -8.94957
304 1 14.152 1.57208 20.4418 -8.94963
305 1 15.7246 1.00686e-15 18.8695 -8.94955
306 1 17.297 1.57214 20.4417 -8.94932
307 1 18.8693 1.84216e-15 18.8692 -8.9495
308 1 20.4416 1.57225 20.4416 -8.94944
309 1 22.0137 3.14448 18.8693 -8.94982
310 1 1.57141 4.71627 20.4423 -8.94841
311 1 3.14376 3.14335 18.8701 -8.94935
312 1 4.71663 4.71619 20.4423 -8.95001
313 1 6.28935 3.14366 18.87 -8.94908
314 1 7.86194 4.71615 20.4424 -8.9493
315 1 9.43451 3.14364 18.8701 -8.94934
316 1 11.0072 4.7162 20.4424 -8.94914
317 1 12.5798 3.14366 18.8701 -8.94958
318 1 14.1527 4.71616 20.4427 -8.94943
319 1 15.7253 3.14369 18.8702 -8.94841
320 1 17.2972 4.71675 20.4418 -8.94974
321 1 18.8696 3.14435 18.8695 -8.94923
322 1 20.4413 4.71694 20.4417 -8.94956
323 1 22.0128 6.28894 18.8698 -8.94961
324 1 1.57135 7.86158 20.4424 -8.94927
325 1 3.14123 6.28624 18.8725 -8.94477
326 1 4.71571 7.8608 20.4445 -8.95131
327 1 6.28859 6.28743 18.8724 -8.95011
328 1 7.86224 7.86122 20.4437 -8.95094
329 1 9.43475 6.28731 18.8722 -8.94781
330 1 11.0071 7.8616 20.4433 -8.95263
331 1 12.5817 6.28708 18.8735 -8.9499
332 1 14.1524 7.86196 20.442 -8.95053
333 1 15.7256 6.28887 18.8706 -8.95059
334 1 17.2972 7.86187 20.4417 -8.9493
5 1 6.2896 -4.4396e-16 22.0139 -8.94955
47 1 12.5797 9.43454 22.0128 -8.95109
44 1 3.14384 9.43425 22.0146 -8.94933
39 1 15.725 6.28901 22.0132 -8.95
27 1 18.8693 3.14449 22.0138 -8.94928
33 1 6.2893 6.28888 22.0139 -8.95043
3 1 3.14469 3.15963e-17 22.0139 -8.94963
13 1 18.8692 4.033e-16 22.0139 -8.94932
17 1 3.1444 3.14428 22.0138 -8.94957
23 1 12.5795 3.14427 22.0139 -8.94944
29 1 -0.000304963 6.28944 22.014 -8.94952
49 1 18.8694 9.43443 22.0138 -8.94954
344 1 1.57177 11.007 1.57212 -8.9495
345 1 4.7163 11.007 1.57185 -8.95021
346 1 7.86214 11.007 1.57231 -8.94746
347 1 11.0071 11.007 1.57147 -8.94641
348 1 14.1539 11.007 1.56923 -8.94948
349 1 17.2978 11.007 1.57149 -8.9495
350 1 20.4416 11.007 1.57212 -8.94954
688 3 10.2176 11.007 9.43944 2.29242
352 1 1.57183 14.152 1.57217 -8.9493
511 1 18.8695 18.8697 9.4344 -8.94949
354 1 4.71666 14.1519 1.57195 -8.95053
355 1 6.28934 12.5794 0.0011493 -8.95109
356 1 7.86197 14.1523 1.57059 -8.95263
357 1 9.43453 12.5792 1.20178e-15 -8.94923
358 1 11.0068 14.1527 1.57019 -8.95094
510 1 15.7256 18.8706 9.43401 -8.9493
360 1 14.1533 14.1531 1.56939 -8.95131
361 1 15.7252 12.5797 -0.000672674 -8.94933
362 1 17.2977 14.1523 1.57151 -8.94927
538 1 17.2972 20.4419 11.0069 -8.94952
364 1 20.4416 14.152 1.57214 -8.94948
535 1 7.86194 20.4432 11.0071 -8.95114
366 1 1.57184 17.2972 1.57214 -8.94974
367 1 3.14403 15.7249 0.000659643 -8.95
368 1 4.71635 17.2977 1.57121 -8.94943
509 1 12.5809 18.8722 9.43323 -8.95044
370 1 7.8619 17.2977 1.57149 -8.94914
371 1 9.43453 15.7253 1.46107e-15 -8.9495
372 1 11.0071 17.2977 1.57154 -8.9493
373 1 12.5798 15.725 -1.17636e-05 -8.95043
374 1 14.1524 17.2977 1.57155 -8.95001
508 1 9.43428 18.8717 9.43373 -8.94673
376 1 17.2977 17.2976 1.57157 -8.94841
507 1 6.28758 18.8741 9.43438 -8.9522
378 1 20.4416 17.297 1.57218 -8.94956
379 1 22.0136 18.8694 6.63277e-05 -8.94928
380 1 1.57206 20.4418 1.57216 -8.94932
534 1 4.71624 20.4426 11.0073 -8.94919
382 1 4.71705 20.4418 1.57212 -8.94963
506 1 3.1435 18.8705 9.43471 -8.9495
384 1 7.86205 20.4418 1.57211 -8.9495
385 1 9.43453 18.8697 3.01228e-16 -8.9495
386 1 11.007 20.4419 1.5721 -8.94953
531 1 17.2984 17.298 11.0067 -8.94878
388 1 14.152 20.4418 1.57217 -8.94951
505 1 -0.000457007 18.8696 9.4345 -8.9494
390 1 17.297 20.4419 1.57216 -8.9494
504 1 18.8703 15.7251 9.43427 -8.95003
392 1 20.4414 20.4416 1.57234 -8.94944
393 1 1.57089 11.007 4.71574 -8.9494
394 1 4.71422 11.007 4.7128 -8.94628
395 1 7.86438 11.007 4.71903 -8.94196
396 1 11.0117 11.007 4.72015 -9.00198
397 1 14.1616 11.007 4.70777 -8.94222
398 1 17.3004 11.007 4.71514 -8.94903
399 1 20.442 11.007 4.71653 -8.94983
400 1 -0.000314615 12.5795 3.14425 -8.9495
401 1 1.57095 14.1522 4.71601 -8.94949
402 1 3.14354 12.5796 3.14338 -8.94883
403 1 4.7142 14.1529 4.7131 -8.95322
404 1 6.28932 12.5787 3.14296 -8.95081
405 1 7.85694 14.1581 4.7059 -8.95369
406 1 9.43503 12.5792 3.14305 -8.95105
407 1 11.0076 14.1561 4.70806 -8.9532
408 1 12.5821 12.5805 3.13711 -8.95873
409 1 14.1638 14.1627 4.70544 -8.9304
410 1 15.7274 12.5805 3.14172 -8.94775
411 1 17.3003 14.1535 4.71541 -8.95067
412 1 18.8702 12.5796 3.144 -8.9493
413 1 20.4419 14.1522 4.71667 -8.95001
414 1 22.0136 15.7245 3.14437 -8.94974
415 1 1.57036 17.2982 4.71572 -8.94841
416 1 3.14349 15.725 3.14335 -8.95059
417 1 4.71344 17.3008 4.71299 -8.94484
418 1 6.28736 15.7268 3.14037 -8.9499
419 1 7.86131 17.3001 4.71441 -8.94905
420 1 9.43431 15.7266 3.14168 -8.94781
421 1 11.0076 17.2998 4.71455 -8.94741
422 1 12.5805 15.7265 3.14146 -8.95011
423 1 14.1549 17.3012 4.71392 -8.94984
424 1 15.7278 15.7277 3.14136 -8.94477
425 1 17.2975 17.2974 4.71686 -8.95051
426 1 18.8701 15.725 3.14409 -8.94961
427 1 20.4412 17.2971 4.7169 -8.94973
428 1 22.0134 18.8696 3.14444 -8.94923
429 1 1.57182 20.442 4.7168 -8.94945
430 1 3.14372 18.8702 3.14366 -8.94841
431 1 4.71652 20.4425 4.71634 -8.94986
432 1 6.28926 18.8702 3.14378 -8.94958
433 1 7.86205 20.4424 4.71644 -8.94957
434 1 9.43455 18.8703 3.14383 -8.94934
435 1 11.0072 20.4424 4.71645 -8.9495
436 1 12.5797 18.8702 3.14394 -8.94908
437 1 14.1523 20.4424 4.71672 -8.95057
438 1 15.7253 18.8706 3.1438 -8.94935
439 1 17.2971 20.4418 4.71701 -8.94934
440 1 18.8692 18.8694 3.14462 -8.94982
441 1 20.4414 20.4417 4.71713 -8.94957
442 1 1.56859 11.007 7.86001 -8.94712
443 1 4.71077 11.007 7.85449 -8.93496
444 1 7.87867 11.007 7.87801 -8.94432
445 1 11.0835 11.007 7.63621 -8.11721
446 1 14.161 11.007 7.85423 -8.97119
447 1 17.2995 11.007 7.86197 -8.95103
448 1 20.4412 11.007 7.86175 -8.94979
449 1 22.0127 12.5796 6.28876 -8.94954
450 1 1.56697 14.1536 7.86028 -8.95253
451 1 3.14081 12.5797 6.2864 -8.94814
452 1 4.69698 14.1656 7.84895 -8.94013
453 1 6.28458 12.5778 6.28218 -8.96179
454 1 7.82151 14.1903 7.8243 -8.85703
455 1 9.42 12.6012 6.28266 -8.90807
456 1 11.0268 14.1632 7.8322 -8.91106
457 1 12.6191 12.6109 6.25359 -8.85526
458 1 14.1563 14.1517 7.8639 -8.95485
459 1 15.7341 12.5816 6.2859 -8.95755
460 1 17.2984 14.1522 7.86246 -8.9498
461 1 18.871 12.5797 6.28912 -8.95155
462 1 20.4409 14.1523 7.86184 -8.95033
463 1 22.0121 15.7252 6.28879 -8.95012
464 1 1.57053 17.2981 7.86168 -8.94996
465 1 3.138 15.7292 6.28478 -8.94597
466 1 4.71198 17.3034 7.85883 -8.94767
467 1 6.27721 15.7374 6.27616 -8.93006
468 1 7.85941 17.3061 7.85934 -8.9572
469 1 9.43444 15.7333 6.28331 -8.94999
470 1 11.0071 17.3003 7.86051 -8.95124
471 1 12.5871 15.7356 6.28042 -8.9542
472 1 14.1556 17.3006 7.85936 -8.9439
473 1 15.7266 15.7255 6.28928 -8.9522
474 1 17.2983 17.2979 7.86143 -8.9491
475 1 18.8695 15.7247 6.28952 -8.94988
476 1 20.4415 17.2973 7.86191 -8.94972
477 1 -0.000503738 18.8696 6.28943 -8.94968
478 1 1.57189 20.4419 7.86204 -8.94963
479 1 3.14305 18.8712 6.2884 -8.94907
480 1 4.71617 20.4431 7.86158 -8.95024
481 1 6.28817 18.8729 6.28779 -8.95101
482 1 7.86184 20.4435 7.86154 -8.95119
483 1 9.43485 18.8721 6.28815 -8.95012
484 1 11.0071 20.4426 7.86171 -8.94938
485 1 12.58 18.8717 6.28876 -8.9524
486 1 14.1527 20.4426 7.86153 -8.94975
487 1 15.7255 18.8704 6.28892 -8.9483
488 1 17.2972 20.4419 7.86189 -8.94952
489 1 18.8695 18.8696 6.28942 -8.94941
490 1 20.4415 20.4417 7.86203 -8.94955
491 1 22.0114 12.5795 9.4343 -8.9515
492 1 3.1335 12.5811 9.43128 -8.95841
493 1 6.24569 12.6184 9.40056 -8.8853
494 1 9.36761 12.8282 9.43122 -8.11578
495 1 12.5594 12.5659 9.43525 -8.90035
496 1 15.7234 12.5781 9.43414 -8.93979
497 1 18.8695 12.5796 9.4343 -8.94811
498 1 22.0126 15.725 9.43459 -8.95002
499 1 3.13943 15.7273 9.43466 -8.95092
500 1 6.27468 15.7427 9.42882 -8.94513
501 1 9.43025 15.7261 9.4309 -9.00327
502 1 12.5897 15.7338 9.42311 -8.92499
503 1 15.7291 15.7273 9.43285 -8.94801
512 1 1.56985 11.007 11.0077 -8.94924
513 1 4.71244 11.007 10.999 -8.96821
514 1 7.79813 11.007 10.7654 -8.03066
519 1 1.56905 14.1525 11.0078 -8.95186
520 1 4.70451 14.155 11.0118 -8.9612
522 1 11.0632 14.193 10.9952 -8.80673
527 1 4.71383 17.3003 11.0088 -8.94695
529 1 11.0088 17.305 11.0056 -8.96092
351 1 22.0136 12.5795 0.000121474 -8.94954
377 1 18.8694 15.7245 -0.000121532 -8.94952
389 1 15.7247 18.8696 7.08995e-05 -8.94957
383 1 6.28952 18.8696 -1.45033e-05 -8.94944
687 3 8.6515 11.007 12.5745 2.29242
686 1 20.4416 20.4416 20.4416 -8.94944
685 1 18.8696 18.8696 18.8695 -8.94923
515 1 11.0709 11.007 11.2485 -8.03066
516 1 14.1566 11.007 11.0149 -8.96821
517 1 17.2992 11.007 11.0062 -8.94924
518 1 20.4415 11.007 11.007 -8.94941
684 1 17.297 20.4418 20.4417 -8.94932
683 1 15.7253 18.8702 18.8702 -8.94841
521 1 7.8059 14.193 11.0187 -8.80673
682 1 14.152 20.4418 20.4418 -8.94963
523 1 14.1645 14.155 11.0021 -8.9612
524 1 17.3 14.1525 11.0061 -8.95186
525 1 20.4415 14.1523 11.007 -8.95016
526 1 1.57068 17.298 11.0072 -8.94878
681 1 12.5798 18.8702 18.8701 -8.94958
528 1 7.86023 17.305 11.0083 -8.96092
680 1 11.007 20.4418 20.4418 -8.9495
530 1 14.1552 17.3003 11.0051 -8.94695
679 1 9.43451 18.8703 18.8701 -8.94934
532 1 20.4415 17.2974 11.007 -8.94952
533 1 1.57183 20.4419 11.007 -8.94952
678 1 7.86203 20.4419 20.4418 -8.94953
677 1 6.28935 18.8702 18.87 -8.94908
536 1 11.0071 20.4432 11.0068 -8.95114
537 1 14.1528 20.4426 11.0066 -8.94919
676 1 4.71709 20.4418 20.4417 -8.94951
539 1 20.4415 20.4417 11.007 -8.94958
540 1 1.56953 11.007 14.1519 -8.95103
541 1 4.70808 11.007 14.1597 -8.97119
542 1 7.78557 11.007 14.3777 -8.11721
543 1 10.9904 11.007 14.1359 -8.94432
544 1 14.1583 11.007 14.1594 -8.93496
545 1 17.3005 11.007 14.1539 -8.94712
546 1 20.4417 11.007 14.1521 -8.94979
547 1 22.0134 12.5796 12.5796 -8.94811
548 1 1.57065 14.1522 14.1514 -8.9498
549 1 3.14565 12.5781 12.5798 -8.93979
550 1 4.71274 14.1517 14.15 -8.95485
551 1 6.30967 12.5659 12.5786 -8.90035
552 1 7.84228 14.1632 14.1817 -8.91106
553 1 9.50145 12.8282 12.5827 -8.11578
554 1 11.0475 14.1903 14.1896 -8.85703
555 1 12.6234 12.6184 12.6133 -8.8853
556 1 14.1721 14.1656 14.1649 -8.94013
557 1 15.7356 12.5811 12.5826 -8.95841
558 1 17.3021 14.1536 14.1536 -8.95253
559 1 18.8715 12.5795 12.5796 -8.9515
560 1 20.4421 14.1523 14.1521 -8.95033
561 1 -0.00121258 15.7251 12.5796 -8.95003
562 1 1.57074 17.2979 14.1525 -8.9491
563 1 3.13994 15.7273 12.581 -8.94801
564 1 4.71344 17.3006 14.1545 -8.9439
565 1 6.27935 15.7338 12.5908 -8.92499
566 1 7.86196 17.3003 14.1534 -8.95124
567 1 9.43881 15.7261 12.583 -9.00327
568 1 11.0096 17.3061 14.1546 -8.9572
569 1 12.5944 15.7427 12.5851 -8.94513
570 1 14.1571 17.3034 14.1551 -8.94767
571 1 15.7296 15.7273 12.5792 -8.95092
572 1 17.2985 17.2981 14.1522 -8.94996
573 1 18.8704 15.725 12.5793 -8.95002
574 1 20.4415 17.2973 14.152 -8.94972
575 1 22.0134 18.8697 12.5795 -8.94949
576 1 1.57187 20.4419 14.152 -8.94952
577 1 3.14341 18.8706 12.5799 -8.9493
578 1 4.71636 20.4426 14.1524 -8.94975
579 1 6.28815 18.8722 12.5807 -8.95044
580 1 7.86196 20.4426 14.1522 -8.94938
581 1 9.43478 18.8717 12.5802 -8.94673
582 1 11.0072 20.4435 14.1524 -8.95119
583 1 12.5815 18.8741 12.5795 -8.9522
584 1 14.1529 20.4431 14.1523 -8.95024
585 1 15.7256 18.8705 12.5792 -8.9495
586 1 17.2972 20.4419 14.1519 -8.94963
587 1 18.8695 18.8696 12.5794 -8.9494
588 1 20.4415 20.4417 14.1519 -8.94955
589 1 1.56866 11.007 17.2988 -8.94903
590 1 4.70745 11.007 17.3061 -8.94222
591 1 7.85731 11.007 17.2938 -9.00198
592 1 11.0047 11.007 17.2949 -8.94196
593 1 14.1548 11.007 17.3011 -8.94628
594 1 17.2982 11.007 17.2982 -8.9494
595 1 20.441 11.007 17.2974 -8.94983
596 1 22.0119 12.5797 15.7248 -8.95155
597 1 1.56877 14.1535 17.2985 -8.95067
598 1 3.13498 12.5816 15.728 -8.95755
599 1 4.70522 14.1627 17.3085 -8.9304
600 1 6.24998 12.6109 15.7603 -8.85526
601 1 7.86142 14.1561 17.3058 -8.9532
602 1 9.44906 12.6012 15.7312 -8.90807
603 1 11.0121 14.1581 17.308 -8.95369
604 1 12.5845 12.5778 15.7317 -8.96179
605 1 14.1549 14.1529 17.3008 -8.95322
606 1 15.7282 12.5797 15.7275 -8.94814
607 1 17.2981 14.1522 17.2979 -8.94949
608 1 18.8702 12.5796 15.7251 -8.94954
609 1 20.4411 14.1522 17.2972 -8.95001
610 1 22.0134 15.7247 15.7244 -8.94988
611 1 1.57152 17.2974 17.297 -8.95051
612 1 3.14246 15.7255 15.7246 -8.9522
613 1 4.71415 17.3012 17.3 -8.94984
614 1 6.28199 15.7356 15.7335 -8.9542
615 1 7.86148 17.2998 17.2994 -8.94741
616 1 9.43462 15.7333 15.7306 -8.94999
617 1 11.0077 17.3001 17.2995 -8.94905
618 1 12.5919 15.7374 15.7377 -8.93006
619 1 14.1556 17.3008 17.3009 -8.94484
620 1 15.7311 15.7292 15.7291 -8.94597
621 1 17.2987 17.2982 17.2982 -8.94841
622 1 18.8708 15.7252 15.7251 -8.95012
623 1 20.4418 17.2971 17.297 -8.94973
624 1 -0.00041587 18.8696 15.7245 -8.94941
625 1 1.572 20.4418 17.2969 -8.94934
626 1 3.14359 18.8704 15.725 -8.9483
627 1 4.71677 20.4424 17.2972 -8.95057
628 1 6.28904 18.8717 15.7251 -8.9524
629 1 7.86182 20.4424 17.2975 -8.9495
630 1 9.4342 18.8721 15.7258 -8.95012
631 1 11.007 20.4424 17.2975 -8.94957
632 1 12.5809 18.8729 15.7261 -8.95101
633 1 14.1525 20.4425 17.2976 -8.94986
634 1 15.726 18.8712 15.7255 -8.94907
635 1 17.2972 20.442 17.2971 -8.94945
636 1 18.8696 18.8696 15.7245 -8.94968
637 1 20.4415 20.4417 17.2968 -8.94957
638 1 1.57129 11.007 20.4424 -8.9495
639 1 4.71521 11.007 20.4447 -8.94948
640 1 7.86193 11.007 20.4424 -8.94641
641 1 11.0069 11.007 20.4416 -8.94746
642 1 14.1528 11.007 20.4421 -8.95021
643 1 17.2973 11.007 20.4418 -8.9495
644 1 20.4413 11.007 20.4418 -8.94954
645 1 -0.00112664 12.5796 18.8699 -8.9493
646 1 1.57135 14.1523 20.4424 -8.94927
647 1 3.14167 12.5805 18.8722 -8.94775
648 1 4.71571 14.1531 20.4445 -8.95131
649 1 6.28693 12.5805 18.8768 -8.95873
650 1 7.86224 14.1527 20.4437 -8.95094
651 1 9.43403 12.5792 18.8708 -8.95105
652 1 11.0071 14.1523 20.4433 -8.95263
653 1 12.5797 12.5787 18.8709 -8.95081
654 1 14.1524 14.1519 20.442 -8.95053
655 1 15.7255 12.5796 18.8705 -8.94883
656 1 17.2972 14.152 20.4417 -8.9493
657 1 18.8694 12.5795 18.8697 -8.9495
658 1 20.4413 14.152 20.4418 -8.94948
659 1 22.0128 15.725 18.8698 -8.94961
660 1 1.57141 17.2976 20.4423 -8.94841
661 1 3.14123 15.7277 18.8725 -8.94477
662 1 4.71663 17.2977 20.4423 -8.95001
663 1 6.28859 15.7265 18.8724 -8.95011
664 1 7.86194 17.2977 20.4424 -8.9493
665 1 9.43475 15.7266 18.8722 -8.94781
666 1 11.0072 17.2977 20.4424 -8.94914
667 1 12.5817 15.7268 18.8735 -8.9499
668 1 14.1527 17.2977 20.4427 -8.94943
669 1 15.7256 15.725 18.8706 -8.95059
670 1 17.2972 17.2972 20.4418 -8.94974
671 1 18.8694 15.7245 18.8695 -8.94974
672 1 20.4413 17.297 20.4417 -8.94956
673 1 22.0137 18.8694 18.8693 -8.94982
674 1 1.57204 20.4419 20.4417 -8.9494
675 1 3.14376 18.8706 18.8701 -8.94935
391 1 18.8693 18.8694 22.0138 -8.94928
353 1 3.14384 12.5797 22.0146 -8.94933
359 1 12.5797 12.5794 22.0128 -8.95109
369 1 6.2893 15.725 22.0139 -8.95043
375 1 15.725 15.7249 22.0132 -8.95
363 1 18.8694 12.5795 22.0138 -8.94954
365 1 -0.000304963 15.7245 22.014 -8.94952
381 1 3.1444 18.8696 22.0138 -8.94957
387 1 12.5795 18.8696 22.0139 -8.94944
