ITEM: TIMESTEP
108
ITEM: NUMBER OF ATOMS
688
ITEM: BOX BOUNDS pp pp pp
0.0000000000000000e+00 2.2013900999999997e+01
0.0000000000000000e+00 2.2013900999999997e+01
0.0000000000000000e+00 2.2013900999999997e+01
ITEM: ATOMS id type x y z c_pot
1 1 22.0134 7.84353e-16 3.92059e-05 -8.94901
2 1 1.57142 1.57174 1.5718 -8.94912
193 1 11.0649 7.81844 10.9966 -8.80593
4 1 4.71652 1.57164 1.57167 -8.94948
175 1 18.8692 9.43441 9.43428 -8.94782
6 1 7.86189 1.57165 1.57174 -8.94935
7 1 9.43453 9.61929e-16 -4.17157e-16 -8.94943
8 1 11.0072 1.57166 1.57179 -8.94939
9 1 12.5797 6.70139e-16 4.14184e-05 -8.94941
10 1 14.1524 1.57165 1.57189 -8.94941
174 1 15.7223 9.43627 9.43428 -8.93964
12 1 17.2976 1.57159 1.57189 -8.94923
191 1 4.70344 7.85811 11.0115 -8.96177
14 1 20.4413 1.57194 1.57215 -8.94921
15 1 22.0133 3.14395 7.74329e-05 -8.94911
16 1 1.57111 4.71606 1.57178 -8.94974
190 1 1.56856 7.86132 11.0078 -8.95224
18 1 4.71553 4.71526 1.57054 -8.94942
173 1 12.5574 9.448 9.43549 -8.90195
20 1 7.86162 4.71538 1.57095 -8.94908
21 1 9.43453 3.14357 -5.69678e-16 -8.94939
22 1 11.0074 4.71538 1.57101 -8.94926
188 1 17.2994 4.71516 11.0065 -8.94868
24 1 14.1532 4.7153 1.5709 -8.95011
172 1 9.37041 9.1827 9.43046 -8.11918
26 1 17.2984 4.7155 1.57107 -8.9483
171 1 6.2465 9.39415 9.39956 -8.8856
28 1 20.4416 4.71638 1.57191 -8.94945
186 1 11.0096 4.70801 11.0057 -8.96133
30 1 1.57122 7.86148 1.57195 -8.94918
31 1 3.14331 6.28843 0.000887364 -8.95009
32 1 4.71619 7.86167 1.57174 -8.95067
170 1 3.13323 9.43253 9.43049 -8.95834
34 1 7.86189 7.86129 1.57033 -8.95301
35 1 9.43453 6.28807 -1.75479e-14 -8.9496
36 1 11.0071 7.86091 1.56969 -8.95129
37 1 12.5802 6.28835 -0.000118356 -8.95073
38 1 14.1542 7.86035 1.56854 -8.95141
169 1 22.011 9.43437 9.4341 -8.95138
40 1 17.2986 7.86104 1.57087 -8.94909
168 1 18.8706 6.28839 9.43412 -8.9502
42 1 20.4417 7.86153 1.57182 -8.94933
167 1 15.7303 6.28599 9.43233 -8.94798
166 1 12.5913 6.27895 9.42212 -8.92422
45 1 6.28906 9.43453 0.00141292 -8.95117
46 1 9.43453 9.43477 -1.88012e-15 -8.94909
165 1 9.43037 6.28689 9.42998 -9.0032
48 1 15.726 9.43403 -0.00105398 -8.9493
184 1 4.71226 4.71239 11.0092 -8.94651
50 1 22.0132 3.09606e-16 3.14426 -8.94926
51 1 1.57096 1.57139 4.71614 -8.94927
52 1 3.14371 -1.34987e-15 3.14372 -8.94946
53 1 4.71571 1.57068 4.71552 -8.94988
54 1 6.28918 -1.11434e-15 3.14375 -8.9495
55 1 7.86177 1.57085 4.71574 -8.94961
56 1 9.43462 7.49502e-16 3.14381 -8.94946
57 1 11.0075 1.571 4.71583 -8.94949
58 1 12.5799 -4.86162e-16 3.14393 -8.94941
59 1 14.1529 1.57096 4.71615 -8.95073
60 1 15.7251 6.81851e-16 3.1441 -8.95006
61 1 17.2976 1.57169 4.71659 -8.94923
62 1 18.8694 4.59797e-16 3.14449 -8.94932
63 1 20.4413 1.57189 4.71679 -8.94944
64 1 22.0127 3.14373 3.14394 -8.94909
65 1 1.56904 4.71461 4.71476 -8.94834
66 1 3.14267 3.14274 3.14274 -8.94823
67 1 4.71176 4.71149 4.7114 -8.94463
68 1 6.28859 3.14265 3.14287 -8.94946
69 1 7.86048 4.71221 4.71306 -8.94894
70 1 9.43453 3.14278 3.14309 -8.94922
71 1 11.008 4.71283 4.71322 -8.94725
72 1 12.5803 3.14281 3.1432 -8.94898
73 1 14.1563 4.71129 4.71244 -8.94972
74 1 15.7262 3.1424 3.14304 -8.94929
75 1 17.2983 4.71572 4.71622 -8.9507
76 1 18.8695 3.14391 3.14422 -8.94982
77 1 20.4409 4.71617 4.71644 -8.94981
78 1 22.0131 6.28881 3.14385 -8.94971
79 1 1.56993 7.86118 4.71522 -8.94953
80 1 3.1424 6.28806 3.14244 -8.95077
81 1 4.71287 7.86016 4.71197 -8.95346
82 1 6.28632 6.28588 3.13911 -8.94987
83 1 7.85587 7.8541 4.70463 -8.95342
84 1 9.43426 6.28626 3.14065 -8.94771
85 1 11.0083 7.85669 4.70655 -8.95335
86 1 12.5815 6.28645 3.14007 -8.95028
87 1 14.1654 7.85038 4.70389 -8.93034
88 1 15.7291 6.28527 3.14023 -8.94471
89 1 17.3013 7.85988 4.71456 -8.95068
90 1 18.8707 6.28832 3.14352 -8.94957
91 1 20.4418 7.86136 4.71614 -8.95004
92 1 -0.000653852 9.43419 3.14372 -8.94941
93 1 3.14279 9.43407 3.1428 -8.94875
94 1 6.28909 9.43509 3.14283 -8.9508
95 1 9.43525 9.43442 3.14331 -8.95117
96 1 12.5831 9.43327 3.13634 -8.95895
97 1 15.7288 9.43302 3.14048 -8.94753
98 1 18.8709 9.43398 3.14332 -8.9492
99 1 22.0133 -3.23611e-16 6.2893 -8.94958
100 1 1.57113 1.57153 7.86181 -8.94955
101 1 3.14325 -4.37561e-15 6.28867 -8.94981
102 1 4.71523 1.57007 7.86118 -8.95043
103 1 6.28874 -3.58699e-14 6.28849 -8.95053
104 1 7.86147 1.5699 7.86121 -8.95136
105 1 9.43469 -2.3205e-14 6.28855 -8.95014
106 1 11.0072 1.57097 7.86136 -8.94941
107 1 12.5799 -1.36421e-14 6.2889 -8.95033
108 1 14.1533 1.57087 7.86103 -8.94976
109 1 15.7254 1.3021e-15 6.28888 -8.94944
110 1 17.2978 1.57164 7.86151 -8.94935
111 1 18.8695 8.30795e-16 6.28928 -8.94943
112 1 20.4414 1.57188 7.86183 -8.94943
113 1 -0.00118509 3.14358 6.28897 -8.94964
114 1 1.56912 4.71478 7.86113 -8.95005
115 1 3.14159 3.14138 6.2874 -8.94886
116 1 4.70973 4.70844 7.85755 -8.94722
117 1 6.2871 3.13959 6.28681 -8.95105
118 1 7.85829 4.70616 7.85839 -8.95728
119 1 9.4347 3.14079 6.28732 -8.95028
120 1 11.0076 4.71259 7.8594 -8.9514
121 1 12.5806 3.14127 6.28792 -8.95258
122 1 14.1569 4.71231 7.85821 -8.94353
123 1 15.7264 3.14269 6.2882 -8.94812
124 1 17.2991 4.71534 7.86093 -8.94906
125 1 18.8698 3.14381 6.28904 -8.94934
126 1 20.4412 4.71606 7.86165 -8.94982
127 1 22.0112 6.28803 6.28823 -8.95025
128 1 1.5656 7.85964 7.85965 -8.95273
129 1 3.13594 6.28325 6.28341 -8.94597
130 1 4.69498 7.84677 7.84769 -8.94045
131 1 6.27503 6.27434 6.27431 -8.92992
132 1 7.82008 7.82109 7.82311 -8.85746
133 1 9.43402 6.27863 6.28163 -8.94991
134 1 11.0285 7.84847 7.82974 -8.90944
135 1 12.5888 6.27665 6.27813 -8.95368
136 1 14.1571 7.86205 7.86314 -8.95544
137 1 15.7278 6.28775 6.28836 -8.95253
138 1 17.2986 7.86175 7.86227 -8.95011
139 1 18.8697 6.28881 6.28918 -8.9501
140 1 20.4405 7.86144 7.86164 -8.95044
141 1 22.0121 9.43412 6.2882 -8.94951
142 1 3.13964 9.43387 6.28547 -8.94818
143 1 6.28366 9.4354 6.28162 -8.96211
144 1 9.41917 9.41046 6.2823 -8.90743
145 1 12.6199 9.40274 6.25235 -8.85554
146 1 15.735 9.43224 6.28488 -8.95766
147 1 18.8713 9.43414 6.28865 -8.95166
148 1 -0.000590965 3.73236e-18 9.43446 -8.94943
149 1 3.1434 3.488e-15 9.4346 -8.9494
150 1 6.28854 -5.93586e-14 9.43453 -8.9512
151 1 9.43448 -2.05578e-13 9.4341 -8.94891
152 1 12.5802 -5.22407e-15 9.43391 -8.95027
153 1 15.7256 1.98434e-15 9.43394 -8.94939
154 1 18.8696 6.56619e-16 9.4343 -8.94945
155 1 -0.000957815 3.14368 9.43444 -8.94929
156 1 3.14231 3.1424 9.43465 -8.94941
157 1 6.28648 3.1386 9.4342 -8.95252
158 1 9.43414 3.14185 9.43338 -8.94666
159 1 12.5816 3.14101 9.4327 -8.95051
160 1 15.7266 3.14258 9.43348 -8.94911
161 1 18.8699 3.14369 9.43417 -8.94937
162 1 22.0119 6.28841 9.4345 -8.95027
163 1 3.13755 6.28537 9.43424 -8.95114
164 1 6.27206 6.26865 9.42755 -8.94417
177 1 4.71548 1.57075 11.0076 -8.94916
178 1 7.86176 1.57045 11.0072 -8.95125
181 1 17.2979 1.57159 11.0067 -8.94938
11 1 15.7249 1.67085e-17 8.77226e-05 -8.94952
19 1 6.28914 3.14361 -6.17959e-05 -8.94932
25 1 15.7254 3.14356 0.000109823 -8.94948
43 1 22.0132 9.43422 0.000237864 -8.94938
41 1 18.8697 6.28891 -0.000204761 -8.94935
176 1 1.57116 1.57159 11.0072 -8.94938
343 1 18.8697 9.43419 18.8702 -8.94941
342 1 15.7263 9.43407 18.8711 -8.94875
179 1 11.0073 1.57045 11.0067 -8.95125
180 1 14.1536 1.57075 11.0063 -8.94916
341 1 12.58 9.43509 18.8711 -8.9508
182 1 20.4415 1.57186 11.007 -8.94946
183 1 1.56967 4.71516 11.0074 -8.94868
340 1 9.43381 9.43442 18.8706 -8.95117
185 1 7.85949 4.70801 11.0082 -8.96133
339 1 6.28599 9.43327 18.8776 -8.95895
187 1 14.1568 4.71239 11.0047 -8.94651
338 1 3.14024 9.43302 18.8734 -8.94753
189 1 20.4415 4.71597 11.007 -8.94954
337 1 -0.00180011 9.43398 18.8706 -8.9492
336 1 20.4412 7.86153 20.4421 -8.94933
192 1 7.80412 7.81844 11.0173 -8.80593
335 1 18.8699 6.28881 18.8701 -8.94971
194 1 14.1656 7.85811 11.0024 -8.96177
195 1 17.3005 7.86132 11.0061 -8.95224
196 1 20.4415 7.86156 11.007 -8.95024
197 1 -0.00056824 1.12033e-16 12.5796 -8.94945
198 1 1.57127 1.57164 14.1524 -8.94935
199 1 3.14345 -1.41088e-15 12.58 -8.94939
200 1 4.71576 1.57087 14.1529 -8.94976
201 1 6.28883 -3.28074e-14 12.58 -8.95027
202 1 7.86186 1.57097 14.1525 -8.94941
203 1 9.43458 -7.89223e-15 12.5798 -8.94891
204 1 11.0076 1.5699 14.1527 -8.95136
205 1 12.5805 -1.48144e-14 12.5794 -8.9512
206 1 14.1538 1.57007 14.1527 -8.95043
207 1 15.7257 1.71854e-15 12.5793 -8.9494
208 1 17.2979 1.57153 14.1521 -8.94955
209 1 18.8696 2.65366e-16 12.5794 -8.94943
210 1 20.4415 1.57188 14.1521 -8.94943
211 1 22.013 3.14369 12.5797 -8.94937
212 1 1.56994 4.71534 14.153 -8.94906
213 1 3.14246 3.14258 12.5804 -8.94911
214 1 4.71217 4.71231 14.1557 -8.94353
215 1 6.28749 3.14101 12.5812 -8.95051
216 1 7.86149 4.71259 14.1545 -8.9514
217 1 9.43492 3.14185 12.5805 -8.94666
218 1 11.0108 4.70616 14.1555 -8.95728
219 1 12.5826 3.1386 12.5797 -8.95252
220 1 14.1593 4.70844 14.1563 -8.94722
221 1 15.7267 3.1424 12.5792 -8.94941
222 1 17.2999 4.71478 14.1528 -8.95005
223 1 18.87 3.14368 12.5795 -8.94929
224 1 20.4417 4.71606 14.1523 -8.94982
225 1 -0.00152987 6.28839 12.5798 -8.9502
226 1 1.57044 7.86175 14.1516 -8.95011
227 1 3.13879 6.28599 12.5816 -8.94798
228 1 4.71198 7.86205 14.1508 -8.95544
229 1 6.27779 6.27895 12.5918 -8.92422
230 1 7.84056 7.84847 14.1842 -8.90944
231 1 9.43869 6.28689 12.5839 -9.0032
232 1 11.049 7.82109 14.1908 -8.85746
233 1 12.597 6.26865 12.5864 -8.94417
234 1 14.1741 7.84677 14.1662 -8.94045
235 1 15.7315 6.28537 12.5797 -8.95114
236 1 17.3035 7.85964 14.1543 -8.95273
237 1 18.8711 6.28841 12.5794 -8.95027
238 1 20.4425 7.86144 14.1523 -8.95044
239 1 22.0138 9.43441 12.5796 -8.94782
240 1 3.14679 9.43627 12.5796 -8.93964
241 1 6.31166 9.448 12.5784 -8.90195
242 1 9.49865 9.1827 12.5834 -8.11918
243 1 12.6226 9.39415 12.6143 -8.8856
244 1 15.7358 9.43253 12.5834 -8.95834
245 1 18.872 9.43437 12.5798 -8.95138
246 1 -0.000476049 2.818e-16 15.7246 -8.94943
247 1 1.57148 1.57169 17.2973 -8.94923
248 1 3.14367 -1.1356e-16 15.725 -8.94944
249 1 4.7162 1.57096 17.2978 -8.95073
250 1 6.28914 1.011e-15 15.725 -8.95033
251 1 7.8616 1.571 17.2981 -8.94949
252 1 9.43437 -2.17566e-16 15.7254 -8.95014
253 1 11.0073 1.57085 17.2982 -8.94961
254 1 12.5803 -4.09408e-17 15.7254 -8.95053
255 1 14.1533 1.57068 17.2984 -8.94988
256 1 15.7258 -1.59773e-16 15.7252 -8.94981
257 1 17.2981 1.57139 17.2978 -8.94927
258 1 18.8697 7.37653e-17 15.7246 -8.94958
259 1 20.4417 1.57189 17.2971 -8.94944
260 1 -0.000707224 3.14381 15.7249 -8.94934
261 1 1.57075 4.71572 17.2977 -8.9507
262 1 3.1427 3.14269 15.7257 -8.94812
263 1 4.71275 4.71129 17.3015 -8.94972
264 1 6.28845 3.14127 15.726 -8.95258
265 1 7.86103 4.71283 17.3007 -8.94725
266 1 9.43436 3.14079 15.7266 -8.95028
267 1 11.0086 4.71221 17.3008 -8.94894
268 1 12.582 3.13959 15.7271 -8.95105
269 1 14.1573 4.71149 17.3025 -8.94463
270 1 15.7275 3.14138 15.7265 -8.94886
271 1 17.3 4.71461 17.2991 -8.94834
272 1 18.8702 3.14358 15.7249 -8.94964
273 1 20.4421 4.71617 17.2975 -8.94981
274 1 22.0132 6.28881 15.7247 -8.9501
275 1 1.56771 7.85988 17.2993 -8.95068
276 1 3.14127 6.28775 15.7255 -8.95253
277 1 4.70366 7.85038 17.31 -8.93034
278 1 6.28023 6.27665 15.7358 -8.95368
279 1 7.86072 7.85669 17.3073 -8.95335
280 1 9.43504 6.27863 15.7323 -8.94991
281 1 11.0132 7.8541 17.3093 -8.95342
282 1 12.594 6.27434 15.7396 -8.92992
283 1 14.1562 7.86016 17.3019 -8.95346
284 1 15.7331 6.28325 15.7305 -8.94597
285 1 17.2991 7.86118 17.2987 -8.94953
286 1 18.8718 6.28803 15.7257 -8.95025
287 1 20.4412 7.86136 17.2978 -8.95004
288 1 22.0117 9.43414 15.7252 -8.95166
289 1 3.13409 9.43224 15.729 -8.95766
290 1 6.24919 9.40274 15.7615 -8.85554
291 1 9.44989 9.41046 15.7316 -8.90743
292 1 12.5854 9.4354 15.7323 -8.96211
293 1 15.7294 9.43387 15.7284 -8.94818
294 1 18.8709 9.43412 15.7257 -8.94951
295 1 22.0136 4.41439e-18 18.8694 -8.94932
296 1 1.57151 1.57159 20.442 -8.94923
297 1 3.14395 -1.17465e-16 18.8698 -8.95006
298 1 4.71663 1.57165 20.442 -8.94941
299 1 6.28914 -7.17566e-16 18.87 -8.94941
300 1 7.86185 1.57166 20.4421 -8.94939
301 1 9.43444 -1.83445e-16 18.8701 -8.94946
302 1 11.0072 1.57165 20.4422 -8.94935
303 1 12.5799 2.29661e-16 18.8701 -8.9495
304 1 14.1525 1.57164 20.4422 -8.94948
305 1 15.7254 6.92544e-16 18.8702 -8.94946
306 1 17.2976 1.57174 20.4421 -8.94912
307 1 18.8698 7.74108e-16 18.8696 -8.94926
308 1 20.4417 1.57194 20.4418 -8.94921
309 1 22.0134 3.14391 18.8697 -8.94982
310 1 1.57066 4.7155 20.4428 -8.9483
311 1 3.14286 3.1424 18.8709 -8.94929
312 1 4.71584 4.7153 20.443 -8.95011
313 1 6.28881 3.14281 18.8707 -8.94898
314 1 7.86167 4.71538 20.4429 -8.94926
315 1 9.43453 3.14278 18.8708 -8.94922
316 1 11.0074 4.71538 20.4429 -8.94908
317 1 12.5805 3.14265 18.871 -8.94946
318 1 14.1535 4.71526 20.4434 -8.94942
319 1 15.7264 3.14274 18.8712 -8.94823
320 1 17.2979 4.71606 20.4421 -8.94974
321 1 18.8702 3.14373 18.87 -8.94909
322 1 20.4413 4.71638 20.442 -8.94945
323 1 22.0123 6.28832 18.8704 -8.94957
324 1 1.57049 7.86104 20.443 -8.94909
325 1 3.13997 6.28527 18.8737 -8.94471
326 1 4.71486 7.86035 20.4454 -8.95141
327 1 6.28761 6.28645 18.8738 -8.95028
328 1 7.86198 7.86091 20.4442 -8.95129
329 1 9.4348 6.28626 18.8733 -8.94771
330 1 11.0072 7.86129 20.4436 -8.95301
331 1 12.5827 6.28588 18.8748 -8.94987
332 1 14.1529 7.86167 20.4422 -8.95067
333 1 15.7267 6.28806 18.8715 -8.95077
334 1 17.2978 7.86148 20.442 -8.94918
5 1 6.28933 1.3247e-17 22.0139 -8.94941
47 1 12.58 9.43453 22.0125 -8.95117
44 1 3.14309 9.43403 22.015 -8.9493
39 1 15.7257 6.28843 22.013 -8.95009
27 1 18.8697 3.14395 22.0138 -8.94911
33 1 6.28888 6.28835 22.014 -8.95073
3 1 3.1442 -1.18022e-16 22.0138 -8.94952
13 1 18.8696 1.32646e-15 22.0139 -8.94901
17 1 3.1437 3.14356 22.0138 -8.94948
23 1 12.5799 3.14361 22.014 -8.94932
29 1 -0.000688217 6.28891 22.0141 -8.94935
49 1 18.8698 9.43422 22.0137 -8.94938
344 1 1.57119 11.007 1.57193 -8.94942
345 1 4.71585 11.007 1.57185 -8.95032
346 1 7.86226 11.007 1.57264 -8.94703
347 1 11.0075 11.007 1.57171 -8.94595
348 1 14.1549 11.007 1.56836 -8.94954
349 1 17.2987 11.007 1.57079 -8.94939
350 1 20.4417 11.007 1.57178 -8.9494
688 3 10.2146 11.007 9.44012 2.29079
352 1 1.57122 14.1524 1.57195 -8.94918
511 1 18.8699 18.8702 9.43417 -8.94937
354 1 4.71619 14.1522 1.57174 -8.95067
355 1 6.28906 12.5794 0.00141292 -8.95117
356 1 7.86189 14.1526 1.57033 -8.95301
357 1 9.43453 12.5791 2.21807e-15 -8.94909
358 1 11.0071 14.153 1.56969 -8.95129
510 1 15.7266 18.8713 9.43348 -8.94911
360 1 14.1542 14.1536 1.56854 -8.95141
361 1 15.726 12.5799 -0.00105398 -8.9493
362 1 17.2986 14.1529 1.57087 -8.94909
538 1 17.2979 20.4423 11.0067 -8.94938
364 1 20.4417 14.1524 1.57182 -8.94933
535 1 7.86176 20.4435 11.0072 -8.95125
366 1 1.57111 17.2978 1.57178 -8.94974
367 1 3.14331 15.7255 0.000887364 -8.95009
368 1 4.71553 17.2986 1.57054 -8.94942
509 1 12.5816 18.8729 9.4327 -8.95051
370 1 7.86162 17.2985 1.57095 -8.94908
371 1 9.43453 15.7258 1.83391e-14 -8.9496
372 1 11.0074 17.2985 1.57101 -8.94926
373 1 12.5802 15.7256 -0.000118356 -8.95073
374 1 14.1532 17.2986 1.5709 -8.95011
508 1 9.43414 18.8721 9.43338 -8.94666
376 1 17.2984 17.2984 1.57107 -8.9483
507 1 6.28648 18.8753 9.4342 -8.95252
378 1 20.4416 17.2975 1.57191 -8.94945
379 1 22.0133 18.87 7.74329e-05 -8.94911
380 1 1.57142 20.4422 1.5718 -8.94912
534 1 4.71548 20.4431 11.0076 -8.94916
382 1 4.71652 20.4423 1.57167 -8.94948
506 1 3.14231 18.8715 9.43465 -8.94941
384 1 7.86189 20.4423 1.57174 -8.94935
385 1 9.43453 18.8703 8.24882e-16 -8.94939
386 1 11.0072 20.4422 1.57179 -8.94939
531 1 17.2994 17.2987 11.0065 -8.94868
388 1 14.1524 20.4422 1.57189 -8.94941
505 1 -0.000957815 18.8702 9.43444 -8.94929
390 1 17.2976 20.4423 1.57189 -8.94923
504 1 18.8706 15.7255 9.43412 -8.9502
392 1 20.4413 20.442 1.57215 -8.94921
393 1 1.57009 11.007 4.71498 -8.9494
394 1 4.7134 11.007 4.71213 -8.9462
395 1 7.86433 11.007 4.71984 -8.94149
396 1 11.012 11.007 4.72105 -9.00215
397 1 14.1631 11.007 4.70629 -8.94182
398 1 17.3016 11.007 4.71408 -8.94896
399 1 20.442 11.007 4.71592 -8.94986
400 1 -0.000653852 12.5797 3.14372 -8.94941
401 1 1.56993 14.1527 4.71522 -8.94953
402 1 3.14279 12.5798 3.1428 -8.94875
403 1 4.71287 14.1537 4.71197 -8.95346
404 1 6.28909 12.5788 3.14283 -8.9508
405 1 7.85587 14.1598 4.70463 -8.95342
406 1 9.43525 12.5795 3.14331 -8.95117
407 1 11.0083 14.1572 4.70655 -8.95335
408 1 12.5831 12.5806 3.13634 -8.95895
409 1 14.1654 14.1635 4.70389 -8.93034
410 1 15.7288 12.5809 3.14048 -8.94753
411 1 17.3013 14.154 4.71456 -8.95068
412 1 18.8709 12.5799 3.14332 -8.9492
413 1 20.4418 14.1525 4.71614 -8.95004
414 1 22.0131 15.7251 3.14385 -8.94971
415 1 1.56904 17.2993 4.71476 -8.94834
416 1 3.1424 15.7258 3.14244 -8.95077
417 1 4.71176 17.3024 4.7114 -8.94463
418 1 6.28632 15.728 3.13911 -8.94987
419 1 7.86048 17.3017 4.71306 -8.94894
420 1 9.43426 15.7276 3.14065 -8.94771
421 1 11.008 17.3011 4.71322 -8.94725
422 1 12.5815 15.7274 3.14007 -8.95028
423 1 14.1563 17.3026 4.71244 -8.94972
424 1 15.7291 15.7286 3.14023 -8.94471
425 1 17.2983 17.2982 4.71622 -8.9507
426 1 18.8707 15.7256 3.14352 -8.94957
427 1 20.4409 17.2977 4.71644 -8.94981
428 1 22.0127 18.8702 3.14394 -8.94909
429 1 1.57096 20.4425 4.71614 -8.94927
430 1 3.14267 18.8712 3.14274 -8.94823
431 1 4.71571 20.4432 4.71552 -8.94988
432 1 6.28859 18.8713 3.14287 -8.94946
433 1 7.86177 20.443 4.71574 -8.94961
434 1 9.43453 18.8711 3.14309 -8.94922
435 1 11.0075 20.4429 4.71583 -8.94949
436 1 12.5803 18.8711 3.1432 -8.94898
437 1 14.1529 20.4429 4.71615 -8.95073
438 1 15.7262 18.8715 3.14304 -8.94929
439 1 17.2976 20.4422 4.71659 -8.94923
440 1 18.8695 18.87 3.14422 -8.94982
441 1 20.4413 20.442 4.71679 -8.94944
442 1 1.56783 11.007 7.85931 -8.94687
443 1 4.71059 11.007 7.85371 -8.93489
444 1 7.87944 11.007 7.8786 -8.94389
445 1 11.0816 11.007 7.63537 -8.12208
446 1 14.1598 11.007 7.8535 -8.97096
447 1 17.2992 11.007 7.86165 -8.95082
448 1 20.4408 11.007 7.86148 -8.94964
449 1 22.0121 12.5798 6.2882 -8.94951
450 1 1.5656 14.1543 7.85965 -8.95273
451 1 3.13964 12.58 6.28547 -8.94818
452 1 4.69498 14.1671 7.84769 -8.94045
453 1 6.28366 12.5785 6.28162 -8.96211
454 1 7.82008 14.1928 7.82311 -8.85746
455 1 9.41917 12.6034 6.2823 -8.90743
456 1 11.0285 14.1654 7.82974 -8.90944
457 1 12.6199 12.6112 6.25235 -8.85554
458 1 14.1571 14.1519 7.86314 -8.95544
459 1 15.735 12.5817 6.28488 -8.95766
460 1 17.2986 14.1521 7.86227 -8.95011
461 1 18.8713 12.5798 6.28865 -8.95166
462 1 20.4405 14.1525 7.86164 -8.95044
463 1 22.0112 15.7259 6.28823 -8.95025
464 1 1.56912 17.2991 7.86113 -8.95005
465 1 3.13594 15.7306 6.28341 -8.94597
466 1 4.70973 17.3055 7.85755 -8.94722
467 1 6.27503 15.7396 6.27431 -8.92992
468 1 7.85829 17.3077 7.85839 -8.95728
469 1 9.43402 15.7353 6.28163 -8.94991
470 1 11.0076 17.3013 7.8594 -8.9514
471 1 12.5888 15.7373 6.27813 -8.95368
472 1 14.1569 17.3016 7.85821 -8.94353
473 1 15.7278 15.7262 6.28836 -8.95253
474 1 17.2991 17.2986 7.86093 -8.94906
475 1 18.8697 15.7251 6.28918 -8.9501
476 1 20.4412 17.2978 7.86165 -8.94982
477 1 -0.00118509 18.8703 6.28897 -8.94964
478 1 1.57113 20.4424 7.86181 -8.94955
479 1 3.14159 18.8725 6.2874 -8.94886
480 1 4.71523 20.4438 7.86118 -8.95043
481 1 6.2871 18.8743 6.28681 -8.95105
482 1 7.86147 20.444 7.86121 -8.95136
483 1 9.4347 18.8731 6.28732 -8.95028
484 1 11.0072 20.4429 7.86136 -8.94941
485 1 12.5806 18.8726 6.28792 -8.95258
486 1 14.1533 20.443 7.86103 -8.94976
487 1 15.7264 18.8712 6.2882 -8.94812
488 1 17.2978 20.4423 7.86151 -8.94935
489 1 18.8698 18.8701 6.28904 -8.94934
490 1 20.4414 20.442 7.86183 -8.94943
491 1 22.011 12.5795 9.4341 -8.95138
492 1 3.13323 12.5814 9.43049 -8.95834
493 1 6.2465 12.6197 9.39956 -8.8856
494 1 9.37041 12.8312 9.43046 -8.11918
495 1 12.5574 12.5659 9.43549 -8.90195
496 1 15.7223 12.5776 9.43428 -8.93964
497 1 18.8692 12.5795 9.43428 -8.94782
498 1 22.0119 15.7255 9.4345 -8.95027
499 1 3.13755 15.7285 9.43424 -8.95114
500 1 6.27206 15.7453 9.42755 -8.94417
501 1 9.43037 15.727 9.42998 -9.0032
502 1 12.5913 15.735 9.42212 -8.92422
503 1 15.7303 15.7279 9.43233 -8.94798
512 1 1.57057 11.007 11.0073 -8.94862
513 1 4.71511 11.007 10.9977 -8.96784
514 1 7.80215 11.007 10.7637 -8.03213
519 1 1.56856 14.1526 11.0078 -8.95224
520 1 4.70344 14.1558 11.0115 -8.96177
522 1 11.0649 14.1955 10.9966 -8.80593
527 1 4.71226 17.3015 11.0092 -8.94651
529 1 11.0096 17.3059 11.0057 -8.96133
351 1 22.0132 12.5797 0.000237864 -8.94938
377 1 18.8697 15.725 -0.000204761 -8.94935
389 1 15.7254 18.8703 0.000109823 -8.94948
383 1 6.28914 18.8703 -6.17959e-05 -8.94932
687 3 8.65442 11.007 12.5738 2.29079
686 1 20.4417 20.442 20.4418 -8.94921
685 1 18.8702 18.8702 18.87 -8.94909
515 1 11.0669 11.007 11.2502 -8.03213
516 1 14.1539 11.007 11.0162 -8.96784
517 1 17.2985 11.007 11.0066 -8.94862
518 1 20.4415 11.007 11.007 -8.9489
684 1 17.2976 20.4422 20.4421 -8.94912
683 1 15.7264 18.8712 18.8712 -8.94823
521 1 7.80412 14.1955 11.0173 -8.80593
682 1 14.1525 20.4423 20.4422 -8.94948
523 1 14.1656 14.1558 11.0024 -8.96177
524 1 17.3005 14.1526 11.0061 -8.95224
525 1 20.4415 14.1523 11.007 -8.95024
526 1 1.56967 17.2987 11.0074 -8.94868
681 1 12.5805 18.8713 18.871 -8.94946
528 1 7.85949 17.3059 11.0082 -8.96133
680 1 11.0072 20.4423 20.4422 -8.94935
530 1 14.1568 17.3015 11.0047 -8.94651
679 1 9.43453 18.8711 18.8708 -8.94922
532 1 20.4415 17.2979 11.007 -8.94954
533 1 1.57116 20.4423 11.0072 -8.94938
678 1 7.86185 20.4422 20.4421 -8.94939
677 1 6.28881 18.8711 18.8707 -8.94898
536 1 11.0073 20.4435 11.0067 -8.95125
537 1 14.1536 20.4431 11.0063 -8.94916
676 1 4.71663 20.4422 20.442 -8.94941
539 1 20.4415 20.442 11.007 -8.94946
540 1 1.56988 11.007 14.1522 -8.95082
541 1 4.70925 11.007 14.1604 -8.97096
542 1 7.7875 11.007 14.3785 -8.12208
543 1 10.9896 11.007 14.1353 -8.94389
544 1 14.1585 11.007 14.1602 -8.93489
545 1 17.3012 11.007 14.1546 -8.94687
546 1 20.4421 11.007 14.1524 -8.94964
547 1 22.0138 12.5795 12.5796 -8.94782
548 1 1.57044 14.1521 14.1516 -8.95011
549 1 3.14679 12.5776 12.5796 -8.93964
550 1 4.71198 14.1519 14.1508 -8.95544
551 1 6.31166 12.5659 12.5784 -8.90195
552 1 7.84056 14.1654 14.1842 -8.90944
553 1 9.49865 12.8312 12.5834 -8.11918
554 1 11.049 14.1928 14.1908 -8.85746
555 1 12.6226 12.6197 12.6143 -8.8856
556 1 14.1741 14.1671 14.1662 -8.94045
557 1 15.7358 12.5814 12.5834 -8.95834
558 1 17.3035 14.1543 14.1543 -8.95273
559 1 18.872 12.5795 12.5798 -8.95138
560 1 20.4425 14.1525 14.1523 -8.95044
561 1 -0.00152987 15.7255 12.5798 -8.9502
562 1 1.56994 17.2986 14.153 -8.94906
563 1 3.13879 15.7279 12.5816 -8.94798
564 1 4.71217 17.3016 14.1557 -8.94353
565 1 6.27779 15.735 12.5918 -8.92422
566 1 7.86149 17.3013 14.1545 -8.9514
567 1 9.43869 15.727 12.5839 -9.0032
568 1 11.0108 17.3077 14.1555 -8.95728
569 1 12.597 15.7453 12.5864 -8.94417
570 1 14.1593 17.3055 14.1563 -8.94722
571 1 15.7315 15.7285 12.5797 -8.95114
572 1 17.2999 17.2991 14.1528 -8.95005
573 1 18.8711 15.7255 12.5794 -8.95027
574 1 20.4417 17.2978 14.1523 -8.94982
575 1 22.013 18.8702 12.5797 -8.94937
576 1 1.57127 20.4423 14.1524 -8.94935
577 1 3.14246 18.8713 12.5804 -8.94911
578 1 4.71576 20.443 14.1529 -8.94976
579 1 6.28749 18.8729 12.5812 -8.95051
580 1 7.86186 20.4429 14.1525 -8.94941
581 1 9.43492 18.8721 12.5805 -8.94666
582 1 11.0076 20.444 14.1527 -8.95136
583 1 12.5826 18.8753 12.5797 -8.95252
584 1 14.1538 20.4438 14.1527 -8.95043
585 1 15.7267 18.8715 12.5792 -8.94941
586 1 17.2979 20.4424 14.1521 -8.94955
587 1 18.87 18.8702 12.5795 -8.94929
588 1 20.4415 20.442 14.1521 -8.94943
589 1 1.56749 11.007 17.2998 -8.94896
590 1 4.70591 11.007 17.3076 -8.94182
591 1 7.85707 11.007 17.2929 -9.00215
592 1 11.0047 11.007 17.2941 -8.94149
593 1 14.1557 11.007 17.3018 -8.9462
594 1 17.299 11.007 17.2989 -8.9494
595 1 20.4409 11.007 17.298 -8.94986
596 1 22.0117 12.5798 15.7252 -8.95166
597 1 1.56771 14.154 17.2993 -8.95068
598 1 3.13409 12.5817 15.729 -8.95766
599 1 4.70366 14.1635 17.31 -8.93034
600 1 6.24919 12.6112 15.7615 -8.85554
601 1 7.86072 14.1572 17.3073 -8.95335
602 1 9.44989 12.6034 15.7316 -8.90743
603 1 11.0132 14.1598 17.3093 -8.95342
604 1 12.5854 12.5785 15.7323 -8.96211
605 1 14.1562 14.1537 17.3019 -8.95346
606 1 15.7294 12.58 15.7284 -8.94818
607 1 17.2991 14.1527 17.2987 -8.94953
608 1 18.8709 12.5798 15.7257 -8.94951
609 1 20.4412 14.1525 17.2978 -8.95004
610 1 22.0132 15.7251 15.7247 -8.9501
611 1 1.57075 17.2982 17.2977 -8.9507
612 1 3.14127 15.7262 15.7255 -8.95253
613 1 4.71275 17.3026 17.3015 -8.94972
614 1 6.28023 15.7373 15.7358 -8.95368
615 1 7.86103 17.3011 17.3007 -8.94725
616 1 9.43504 15.7353 15.7323 -8.94991
617 1 11.0086 17.3017 17.3008 -8.94894
618 1 12.594 15.7396 15.7396 -8.92992
619 1 14.1573 17.3024 17.3025 -8.94463
620 1 15.7331 15.7306 15.7305 -8.94597
621 1 17.3 17.2993 17.2991 -8.94834
622 1 18.8718 15.7259 15.7257 -8.95025
623 1 20.4421 17.2977 17.2975 -8.94981
624 1 -0.000707224 18.8701 15.7249 -8.94934
625 1 1.57148 20.4422 17.2973 -8.94923
626 1 3.1427 18.8712 15.7257 -8.94812
627 1 4.7162 20.4429 17.2978 -8.95073
628 1 6.28845 18.8726 15.726 -8.95258
629 1 7.8616 20.4429 17.2981 -8.94949
630 1 9.43436 18.8731 15.7266 -8.95028
631 1 11.0073 20.443 17.2982 -8.94961
632 1 12.582 18.8743 15.7271 -8.95105
633 1 14.1533 20.4432 17.2984 -8.94988
634 1 15.7275 18.8725 15.7265 -8.94886
635 1 17.2981 20.4425 17.2978 -8.94927
636 1 18.8702 18.8703 15.7249 -8.94964
637 1 20.4417 20.442 17.2971 -8.94944
638 1 1.57036 11.007 20.4431 -8.94939
639 1 4.71415 11.007 20.4455 -8.94954
640 1 7.86158 11.007 20.4422 -8.94595
641 1 11.0068 11.007 20.4413 -8.94703
642 1 14.1532 11.007 20.442 -8.95032
643 1 17.2979 11.007 20.442 -8.94942
644 1 20.4412 11.007 20.4421 -8.9494
645 1 -0.00180011 12.5799 18.8706 -8.9492
646 1 1.57049 14.1529 20.443 -8.94909
647 1 3.14024 12.5809 18.8734 -8.94753
648 1 4.71486 14.1536 20.4454 -8.95141
649 1 6.28599 12.5806 18.8776 -8.95895
650 1 7.86198 14.153 20.4442 -8.95129
651 1 9.43381 12.5795 18.8706 -8.95117
652 1 11.0072 14.1526 20.4436 -8.95301
653 1 12.58 12.5788 18.8711 -8.9508
654 1 14.1529 14.1522 20.4422 -8.95067
655 1 15.7263 12.5798 18.8711 -8.94875
656 1 17.2978 14.1524 20.442 -8.94918
657 1 18.8697 12.5797 18.8702 -8.94941
658 1 20.4412 14.1524 20.4421 -8.94933
659 1 22.0123 15.7256 18.8704 -8.94957
660 1 1.57066 17.2984 20.4428 -8.9483
661 1 3.13997 15.7286 18.8737 -8.94471
662 1 4.71584 17.2986 20.443 -8.95011
663 1 6.28761 15.7274 18.8738 -8.95028
664 1 7.86167 17.2985 20.4429 -8.94926
665 1 9.4348 15.7276 18.8733 -8.94771
666 1 11.0074 17.2985 20.4429 -8.94908
667 1 12.5827 15.728 18.8748 -8.94987
668 1 14.1535 17.2986 20.4434 -8.94942
669 1 15.7267 15.7258 18.8715 -8.95077
670 1 17.2979 17.2978 20.4421 -8.94974
671 1 18.8699 15.7251 18.8701 -8.94971
672 1 20.4413 17.2975 20.442 -8.94945
673 1 22.0134 18.87 18.8697 -8.94982
674 1 1.57151 20.4423 20.442 -8.94923
675 1 3.14286 18.8715 18.8709 -8.94929
391 1 18.8697 18.87 22.0138 -8.94911
353 1 3.14309 12.5799 22.015 -8.9493
359 1 12.58 12.5794 22.0125 -8.95117
369 1 6.28888 15.7256 22.014 -8.95073
375 1 15.7257 15.7255 22.013 -8.95009
363 1 18.8698 12.5797 22.0137 -8.94938
365 1 -0.000688217 15.725 22.0141 -8.94935
381 1 3.1437 18.8703 22.0138 -8.94948
387 1 12.5799 18.8703 22.014 -8.94932
