ITEM: TIMESTEP
75
ITEM: NUMBER OF ATOMS
688
ITEM: BOX BOUNDS pp pp pp
0.0000000000000000e+00 2.2013900999999997e+01
0.0000000000000000e+00 2.2013900999999997e+01
0.0000000000000000e+00 2.2013900999999997e+01
ITEM: ATOMS id type x y z c_pot
1 1 22.0138 -4.88365e-16 2.72818e-05 -8.94942
2 1 1.5722 1.57225 1.57225 -8.94939
193 1 11.0615 7.82224 10.9947 -8.80888
4 1 4.71715 1.57221 1.57223 -8.94966
175 1 18.8696 9.43425 9.43433 -8.94828
6 1 7.86207 1.57218 1.57221 -8.94955
7 1 9.43453 -1.03723e-15 9.38253e-16 -8.94961
8 1 11.007 1.57217 1.5722 -8.94957
9 1 12.5794 -9.35242e-17 -5.85556e-06 -8.94959
10 1 14.1519 1.5722 1.57225 -8.94954
174 1 15.7238 9.43545 9.43413 -8.93998
12 1 17.2969 1.57215 1.57224 -8.94945
191 1 4.70523 7.85914 11.0118 -8.96073
14 1 20.4414 1.57233 1.57238 -8.94951
15 1 22.0137 3.14463 5.34147e-05 -8.94935
16 1 1.57203 4.71693 1.57225 -8.94972
190 1 1.56937 7.86144 11.0077 -8.95162
18 1 4.71658 4.71645 1.57146 -8.94945
173 1 12.5606 9.44755 9.43509 -8.90036
20 1 7.86197 4.71648 1.5717 -8.94919
21 1 9.43453 3.14441 7.19048e-16 -8.94955
22 1 11.0071 4.71643 1.57173 -8.94935
188 1 17.298 4.71618 11.0068 -8.94886
24 1 14.1522 4.71648 1.57178 -8.94997
172 1 9.3666 9.18914 9.43142 -8.11202
26 1 17.2974 4.71652 1.57175 -8.94851
171 1 6.24569 9.39622 9.40111 -8.88521
28 1 20.4416 4.71707 1.57226 -8.94959
186 1 11.0086 4.70917 11.0057 -8.96048
30 1 1.57201 7.86196 1.57225 -8.94937
31 1 3.14423 6.28917 0.000555928 -8.94994
32 1 4.71679 7.86201 1.57205 -8.95045
170 1 3.1339 9.43291 9.43162 -8.95836
34 1 7.86195 7.86166 1.57075 -8.9524
35 1 9.43453 6.28883 1.42774e-15 -8.94948
36 1 11.0068 7.86131 1.57044 -8.95075
37 1 12.5797 6.28906 1.66316e-05 -8.95028
38 1 14.1531 7.86097 1.56976 -8.95122
169 1 22.0117 9.43441 9.43435 -8.95151
40 1 17.2974 7.86174 1.57174 -8.94937
168 1 18.8701 6.28893 9.43433 -8.94996
42 1 20.4416 7.86201 1.57223 -8.94953
167 1 15.7286 6.28688 9.43309 -8.94805
166 1 12.589 6.28064 9.42374 -8.92574
45 1 6.28941 9.43452 0.00104415 -8.95106
46 1 9.43453 9.43461 1.1134e-15 -8.94935
165 1 9.43025 6.28786 9.43128 -9.00275
48 1 15.725 9.43432 -0.00053892 -8.94935
184 1 4.71439 4.71413 11.0086 -8.9472
50 1 22.0138 -5.46002e-16 3.14474 -8.94956
51 1 1.57203 1.57207 4.71697 -8.94951
52 1 3.14456 -1.86795e-16 3.14453 -8.94956
53 1 4.71672 1.57161 4.71659 -8.94984
54 1 6.28961 1.04362e-16 3.14454 -8.94959
55 1 7.86208 1.57169 4.71666 -8.94956
56 1 9.43455 -3.53471e-16 3.1445 -8.94958
57 1 11.0072 1.57169 4.71665 -8.94951
58 1 12.5795 -4.80755e-16 3.14454 -8.94951
59 1 14.1521 1.5717 4.71688 -8.95045
60 1 15.7244 -2.50982e-16 3.14462 -8.94992
61 1 17.2969 1.5722 4.71711 -8.94939
62 1 18.8691 2.97334e-16 3.1448 -8.94955
63 1 20.4415 1.5723 4.71719 -8.9496
64 1 22.0135 3.14451 3.14458 -8.9493
65 1 1.57081 4.71602 4.71607 -8.94849
66 1 3.14402 3.14399 3.14396 -8.94853
67 1 4.71404 4.71379 4.71364 -8.94503
68 1 6.28941 3.14399 3.14407 -8.94965
69 1 7.86156 4.71444 4.71493 -8.94912
70 1 9.43454 3.14393 3.14408 -8.9494
71 1 11.0074 4.71458 4.71501 -8.94753
72 1 12.5796 3.14395 3.14417 -8.94915
73 1 14.1544 4.71333 4.7145 -8.94986
74 1 15.725 3.14369 3.14405 -8.94938
75 1 17.2973 4.71669 4.71702 -8.95041
76 1 18.8692 3.14462 3.14471 -8.9498
77 1 20.4413 4.71694 4.71703 -8.9497
78 1 22.0137 6.28949 3.14452 -8.94974
79 1 1.5713 7.86184 4.7163 -8.9495
80 1 3.14382 6.28909 3.14368 -8.95047
81 1 4.7147 7.86127 4.71362 -8.953
82 1 6.28773 6.28751 3.14098 -8.9499
83 1 7.85743 7.85645 4.70661 -8.95374
84 1 9.43433 6.28769 3.14212 -8.94789
85 1 11.0073 7.85828 4.7088 -8.95303
86 1 12.5802 6.28781 3.14204 -8.95005
87 1 14.163 7.8517 4.70621 -8.93051
88 1 15.7273 6.28669 3.14185 -8.94492
89 1 17.2998 7.86063 4.71572 -8.95063
90 1 18.8699 6.28913 3.14427 -8.94962
91 1 20.4418 7.86184 4.71684 -8.94998
92 1 -0.000216931 9.43444 3.14443 -8.94954
93 1 3.14381 9.43436 3.14365 -8.94889
94 1 6.28934 9.4352 3.14307 -8.95081
95 1 9.43488 9.43465 3.14294 -8.95093
96 1 12.5817 9.43345 3.13748 -8.95852
97 1 15.7268 9.43361 3.14224 -8.94791
98 1 18.8699 9.43434 3.14423 -8.94934
99 1 22.0138 1.2074e-15 6.28965 -8.94967
100 1 1.57208 1.57214 7.86208 -8.94965
101 1 3.14437 9.62321e-16 6.28939 -8.94972
102 1 4.71643 1.57115 7.8617 -8.95013
103 1 6.28936 8.51561e-16 6.28918 -8.95033
104 1 7.86191 1.57066 7.86164 -8.95112
105 1 9.43469 4.33807e-16 6.28918 -8.94999
106 1 11.0071 1.57144 7.86179 -8.94941
107 1 12.5796 9.679e-16 6.28941 -8.95018
108 1 14.1525 1.57151 7.86166 -8.94972
109 1 15.7246 8.44622e-16 6.28944 -8.94949
110 1 17.297 1.57212 7.86198 -8.94957
111 1 18.8692 8.24615e-16 6.28962 -8.9496
112 1 20.4415 1.57229 7.86207 -8.94958
113 1 -0.000327433 3.14448 6.28953 -8.94969
114 1 1.571 4.71619 7.86183 -8.94992
115 1 3.14351 3.1432 6.28874 -8.94918
116 1 4.71286 4.71147 7.85935 -8.9479
117 1 6.28846 3.14155 6.2881 -8.95095
118 1 7.85981 4.70843 7.85964 -8.95705
119 1 9.43487 3.14225 6.28842 -8.95003
120 1 11.007 4.71394 7.86085 -8.95111
121 1 12.5799 3.14259 6.28899 -8.95225
122 1 14.1551 4.71375 7.8598 -8.94419
123 1 15.7252 3.14378 6.28912 -8.94842
124 1 17.298 4.71623 7.86159 -8.94915
125 1 18.8694 3.14451 6.28951 -8.94945
126 1 20.4415 4.71684 7.86197 -8.9497
127 1 22.0125 6.28893 6.28899 -8.95006
128 1 1.56763 7.86051 7.86054 -8.95238
129 1 3.13889 6.28537 6.28539 -8.94604
130 1 4.69814 7.84912 7.84965 -8.93996
131 1 6.2782 6.27753 6.27712 -8.93041
132 1 7.8227 7.82483 7.82518 -8.85778
133 1 9.43464 6.28146 6.28402 -8.95001
134 1 11.0257 7.85163 7.83369 -8.91227
135 1 12.5862 6.27907 6.28146 -8.9544
136 1 14.1559 7.86214 7.86412 -8.95447
137 1 15.7261 6.28859 6.28952 -8.952
138 1 17.2982 7.86169 7.86246 -8.94967
139 1 18.8694 6.28931 6.28958 -8.9498
140 1 20.441 7.86171 7.86189 -8.95027
141 1 22.013 9.43438 6.28896 -8.94957
142 1 3.14134 9.43435 6.28682 -8.94816
143 1 6.28497 9.43627 6.2824 -8.96142
144 1 9.42059 9.41383 6.28275 -8.9087
145 1 12.6184 9.40319 6.25427 -8.8554
146 1 15.7335 9.43238 6.28633 -8.95743
147 1 18.8708 9.43428 6.28926 -8.95146
148 1 -0.000143281 1.36907e-15 9.43451 -8.94959
149 1 3.14439 1.6196e-15 9.43455 -8.94948
150 1 6.28916 1.4579e-15 9.43448 -8.95076
151 1 9.43457 1.23937e-15 9.43427 -8.94923
152 1 12.5798 1.47632e-15 9.43425 -8.95021
153 1 15.7247 1.68953e-15 9.4344 -8.94954
154 1 18.8692 1.61589e-15 9.4345 -8.94961
155 1 -0.000314599 3.14446 9.43451 -8.94945
156 1 3.14385 3.14373 9.43469 -8.94954
157 1 6.28793 3.14039 9.43439 -8.95196
158 1 9.43435 3.14227 9.43384 -8.94688
159 1 12.5807 3.14197 9.43342 -8.95036
160 1 15.7253 3.14361 9.43417 -8.94939
161 1 18.8694 3.14444 9.43445 -8.94953
162 1 22.0129 6.28906 9.43459 -8.94993
163 1 3.14025 6.28707 9.43475 -8.95079
164 1 6.27603 6.27243 9.42942 -8.94575
177 1 4.71647 1.57148 11.0072 -8.94922
178 1 7.86196 1.57077 11.0071 -8.95112
181 1 17.297 1.5721 11.0069 -8.94956
11 1 15.7243 3.5697e-16 6.96228e-06 -8.94966
19 1 6.28959 3.14446 -4.20062e-06 -8.94949
25 1 15.7245 3.14447 5.64569e-05 -8.9496
43 1 22.0137 9.43448 8.98404e-05 -8.94959
41 1 18.8693 6.28955 -8.92148e-05 -8.94958
176 1 1.57202 1.5721 11.007 -8.94956
343 1 18.8693 9.43444 18.8695 -8.94954
342 1 15.7253 9.43436 18.8702 -8.94889
179 1 11.0071 1.57077 11.0068 -8.95112
180 1 14.1526 1.57148 11.0067 -8.94922
341 1 12.5797 9.4352 18.8708 -8.95081
182 1 20.4415 1.57227 11.007 -8.94961
183 1 1.57105 4.71618 11.0071 -8.94886
340 1 9.43418 9.43465 18.871 -8.95093
185 1 7.86044 4.70917 11.0082 -8.96048
339 1 6.28732 9.43345 18.8764 -8.95852
187 1 14.1547 4.71413 11.0053 -8.9472
338 1 3.14225 9.43361 18.8717 -8.94791
189 1 20.4415 4.71676 11.007 -8.94954
337 1 -0.000864478 9.43434 18.8697 -8.94934
336 1 20.4414 7.86201 20.4417 -8.94953
192 1 7.80758 7.82224 11.0192 -8.80888
335 1 18.8692 6.28949 18.8694 -8.94974
194 1 14.1638 7.85914 11.0021 -8.96073
195 1 17.2997 7.86144 11.0062 -8.95162
196 1 20.4415 7.86171 11.007 -8.95012
197 1 -0.000142729 1.4417e-15 12.5794 -8.94961
198 1 1.57205 1.57212 14.1519 -8.94957
199 1 3.14436 1.85072e-15 12.5795 -8.94954
200 1 4.71655 1.57151 14.1522 -8.94972
201 1 6.28925 1.68596e-15 12.5797 -8.95021
202 1 7.86197 1.57144 14.1521 -8.94941
203 1 9.43449 1.39092e-15 12.5796 -8.94923
204 1 11.0071 1.57066 14.1523 -8.95112
205 1 12.5799 1.69357e-15 12.5794 -8.95076
206 1 14.1526 1.57115 14.1522 -8.95013
207 1 15.7247 1.69901e-15 12.5793 -8.94948
208 1 17.297 1.57214 14.1518 -8.94965
209 1 18.8692 1.43842e-15 12.5794 -8.94959
210 1 20.4415 1.57229 14.1518 -8.94958
211 1 22.0136 3.14444 12.5795 -8.94953
212 1 1.57107 4.71623 14.1523 -8.94915
213 1 3.14374 3.14361 12.5797 -8.94939
214 1 4.71394 4.71375 14.1541 -8.94419
215 1 6.28835 3.14197 12.5805 -8.95036
216 1 7.86204 4.71394 14.153 -8.95111
217 1 9.43471 3.14227 12.5801 -8.94688
218 1 11.0092 4.70843 14.1543 -8.95705
219 1 12.5811 3.14039 12.5795 -8.95196
220 1 14.1562 4.71147 14.1546 -8.9479
221 1 15.7252 3.14373 12.5792 -8.94954
222 1 17.2981 4.71619 14.1521 -8.94992
223 1 18.8694 3.14446 12.5794 -8.94945
224 1 20.4415 4.71684 14.1519 -8.9497
225 1 -0.00102114 6.28893 12.5796 -8.94996
226 1 1.57082 7.86169 14.1514 -8.94967
227 1 3.14049 6.28688 12.5808 -8.94805
228 1 4.71311 7.86214 14.1498 -8.95447
229 1 6.2801 6.28064 12.5902 -8.92574
230 1 7.84335 7.85163 14.1802 -8.91227
231 1 9.43881 6.28786 12.5826 -9.00275
232 1 11.0464 7.82483 14.1887 -8.85778
233 1 12.593 6.27243 12.5845 -8.94575
234 1 14.1709 7.84912 14.1643 -8.93996
235 1 15.7288 6.28707 12.5791 -8.95079
236 1 17.3014 7.86051 14.1534 -8.95238
237 1 18.8701 6.28906 12.5793 -8.94993
238 1 20.4419 7.86171 14.152 -8.95027
239 1 22.0134 9.43425 12.5796 -8.94828
240 1 3.14522 9.43545 12.5798 -8.93998
241 1 6.30846 9.44755 12.5788 -8.90036
242 1 9.50246 9.18914 12.5825 -8.11202
243 1 12.6234 9.39622 12.6128 -8.88521
244 1 15.7352 9.43291 12.5823 -8.95836
245 1 18.8713 9.43441 12.5795 -8.95151
246 1 -0.000125227 5.1197e-16 15.7243 -8.9496
247 1 1.57214 1.5722 17.2968 -8.94939
248 1 3.14445 1.04137e-15 15.7245 -8.94949
249 1 4.71692 1.5717 17.297 -8.95045
250 1 6.2895 1.82633e-15 15.7245 -8.95018
251 1 7.86189 1.57169 17.2973 -8.94951
252 1 9.43437 9.10738e-17 15.7247 -8.94999
253 1 11.007 1.57169 17.2972 -8.94956
254 1 12.5797 1.26173e-15 15.7247 -8.95033
255 1 14.1523 1.57161 17.2973 -8.94984
256 1 15.7247 1.34936e-15 15.7245 -8.94972
257 1 17.297 1.57207 17.2969 -8.94951
258 1 18.8692 1.35138e-15 15.7243 -8.94967
259 1 20.4415 1.5723 17.2967 -8.9496
260 1 -0.000302993 3.14451 15.7244 -8.94945
261 1 1.57177 4.71669 17.2969 -8.95041
262 1 3.14387 3.14378 15.7248 -8.94842
263 1 4.71468 4.71333 17.2994 -8.94986
264 1 6.28919 3.14259 15.7249 -8.95225
265 1 7.86161 4.71458 17.2989 -8.94753
266 1 9.43419 3.14225 15.7255 -8.95003
267 1 11.0075 4.71444 17.299 -8.94912
268 1 12.5806 3.14155 15.7258 -8.95095
269 1 14.155 4.71379 17.3003 -8.94503
270 1 15.7255 3.1432 15.7252 -8.94918
271 1 17.2982 4.71602 17.2978 -8.94849
272 1 18.8694 3.14448 15.7244 -8.94969
273 1 20.4417 4.71694 17.2969 -8.9497
274 1 22.0135 6.28931 15.7243 -8.9498
275 1 1.56927 7.86063 17.2982 -8.95063
276 1 3.14291 6.28859 15.7244 -8.952
277 1 4.70602 7.8517 17.3077 -8.93051
278 1 6.28281 6.27907 15.7324 -8.9544
279 1 7.86171 7.85828 17.3051 -8.95303
280 1 9.43442 6.28146 15.7299 -8.95001
281 1 11.0116 7.85645 17.3073 -8.95374
282 1 12.5909 6.27753 15.7368 -8.93041
283 1 14.1544 7.86127 17.3003 -8.953
284 1 15.7302 6.28537 15.7285 -8.94604
285 1 17.2978 7.86184 17.2976 -8.9495
286 1 18.8705 6.28893 15.7249 -8.95006
287 1 20.4411 7.86184 17.2971 -8.94998
288 1 22.0121 9.43428 15.7246 -8.95146
289 1 3.13557 9.43238 15.7276 -8.95743
290 1 6.25062 9.40319 15.7596 -8.8554
291 1 9.44846 9.41383 15.7311 -8.9087
292 1 12.5841 9.43627 15.7315 -8.96142
293 1 15.7277 9.43435 15.7271 -8.94816
294 1 18.87 9.43438 15.7249 -8.94957
295 1 22.0138 5.56363e-16 18.8691 -8.94955
296 1 1.57218 1.57215 20.4417 -8.94945
297 1 3.14462 -5.69272e-16 18.8693 -8.94992
298 1 4.71717 1.5722 20.4416 -8.94954
299 1 6.28956 -1.14047e-15 18.8694 -8.94951
300 1 7.86207 1.57217 20.4417 -8.94957
301 1 9.4345 -2.28324e-16 18.8694 -8.94958
302 1 11.007 1.57218 20.4417 -8.94955
303 1 12.5794 9.59303e-16 18.8694 -8.94959
304 1 14.1519 1.57221 20.4417 -8.94966
305 1 15.7245 4.58052e-16 18.8694 -8.94956
306 1 17.2969 1.57225 20.4417 -8.94939
307 1 18.8692 1.72018e-15 18.8692 -8.94956
308 1 20.4415 1.57233 20.4415 -8.94951
309 1 22.0138 3.14462 18.8692 -8.9498
310 1 1.57165 4.71652 20.4421 -8.94851
311 1 3.14403 3.14369 18.8699 -8.94938
312 1 4.71684 4.71648 20.4421 -8.94997
313 1 6.28947 3.14395 18.8697 -8.94915
314 1 7.862 4.71643 20.4422 -8.94935
315 1 9.43452 3.14393 18.8698 -8.9494
316 1 11.0071 4.71648 20.4422 -8.94919
317 1 12.5796 3.14399 18.8698 -8.94965
318 1 14.1525 4.71645 20.4424 -8.94945
319 1 15.725 3.14399 18.8699 -8.94853
320 1 17.297 4.71693 20.4417 -8.94972
321 1 18.8694 3.14451 18.8693 -8.9493
322 1 20.4414 4.71707 20.4416 -8.94959
323 1 22.013 6.28913 18.8696 -8.94962
324 1 1.57164 7.86174 20.4422 -8.94937
325 1 3.14176 6.28669 18.8721 -8.94492
326 1 4.71598 7.86097 20.4441 -8.95122
327 1 6.28889 6.28781 18.8719 -8.95005
328 1 7.86229 7.86131 20.4435 -8.95075
329 1 9.43473 6.28769 18.8718 -8.94789
330 1 11.0071 7.86166 20.4432 -8.9524
331 1 12.5813 6.28751 18.8729 -8.9499
332 1 14.1523 7.86201 20.4419 -8.95045
333 1 15.7252 6.28909 18.8702 -8.95047
334 1 17.297 7.86196 20.4417 -8.94937
5 1 6.28964 -4.05276e-16 22.0139 -8.94959
47 1 12.5797 9.43452 22.0129 -8.95106
44 1 3.14409 9.43432 22.0144 -8.94935
39 1 15.7248 6.28917 22.0133 -8.94994
27 1 18.8692 3.14463 22.0138 -8.94935
33 1 6.2894 6.28906 22.0139 -8.95028
3 1 3.14477 -1.75185e-16 22.0139 -8.94966
13 1 18.8692 -4.12455e-17 22.0139 -8.94942
17 1 3.14457 3.14447 22.0138 -8.9496
23 1 12.5795 3.14446 22.0139 -8.94949
29 1 -0.000197633 6.28955 22.014 -8.94958
49 1 18.8693 9.43448 22.0138 -8.94959
344 1 1.57196 11.007 1.57221 -8.94955
345 1 4.71645 11.007 1.5719 -8.95014
346 1 7.86207 11.007 1.57222 -8.94775
347 1 11.007 11.007 1.57134 -8.94676
348 1 14.1535 11.007 1.56963 -8.94944
349 1 17.2975 11.007 1.57172 -8.94954
350 1 20.4416 11.007 1.57222 -8.94958
688 3 10.2169 11.007 9.43934 2.29983
352 1 1.57201 14.1519 1.57225 -8.94937
511 1 18.8694 18.8695 9.43445 -8.94953
354 1 4.71679 14.1519 1.57205 -8.95045
355 1 6.28941 12.5794 0.00104415 -8.95106
356 1 7.86195 14.1522 1.57075 -8.9524
357 1 9.43453 12.5793 8.44767e-16 -8.94935
358 1 11.0068 14.1526 1.57044 -8.95075
510 1 15.7253 18.8703 9.43417 -8.94939
360 1 14.1531 14.1529 1.56976 -8.95122
361 1 15.725 12.5796 -0.00053892 -8.94935
362 1 17.2974 14.1522 1.57174 -8.94937
538 1 17.297 20.4418 11.0069 -8.94956
364 1 20.4416 14.1519 1.57223 -8.94953
535 1 7.86196 20.4431 11.0071 -8.95112
366 1 1.57203 17.297 1.57225 -8.94972
367 1 3.14423 15.7247 0.000555928 -8.94994
368 1 4.71658 17.2975 1.57146 -8.94945
509 1 12.5807 18.8719 9.43342 -8.95036
370 1 7.86197 17.2974 1.5717 -8.94919
371 1 9.43453 15.7251 1.71416e-15 -8.94948
372 1 11.0071 17.2975 1.57173 -8.94935
373 1 12.5797 15.7248 1.66316e-05 -8.95028
374 1 14.1522 17.2974 1.57178 -8.94997
508 1 9.43435 18.8716 9.43384 -8.94688
376 1 17.2974 17.2974 1.57175 -8.94851
507 1 6.28793 18.8735 9.43439 -8.95196
378 1 20.4416 17.2968 1.57226 -8.94959
379 1 22.0137 18.8693 5.34147e-05 -8.94935
380 1 1.5722 20.4417 1.57225 -8.94939
534 1 4.71647 20.4424 11.0072 -8.94922
382 1 4.71715 20.4417 1.57223 -8.94966
506 1 3.14385 18.8702 9.43469 -8.94954
384 1 7.86207 20.4417 1.57221 -8.94955
385 1 9.43453 18.8695 -1.74575e-16 -8.94955
386 1 11.007 20.4417 1.5722 -8.94957
531 1 17.298 17.2977 11.0068 -8.94886
388 1 14.1519 20.4417 1.57225 -8.94954
505 1 -0.000314599 18.8694 9.43451 -8.94945
390 1 17.2969 20.4417 1.57224 -8.94945
504 1 18.8701 15.725 9.43433 -8.94996
392 1 20.4414 20.4416 1.57238 -8.94951
393 1 1.5712 11.007 4.71606 -8.94942
394 1 4.71456 11.007 4.7132 -8.94637
395 1 7.86428 11.007 4.71855 -8.94257
396 1 11.0115 11.007 4.7194 -9.00168
397 1 14.1607 11.007 4.70852 -8.94251
398 1 17.2998 11.007 4.71553 -8.94904
399 1 20.4419 11.007 4.71673 -8.94981
400 1 -0.000216931 12.5795 3.14443 -8.94954
401 1 1.5713 14.1521 4.7163 -8.9495
402 1 3.14381 12.5795 3.14365 -8.94889
403 1 4.7147 14.1526 4.71362 -8.953
404 1 6.28934 12.5787 3.14307 -8.95081
405 1 7.85743 14.1575 4.70661 -8.95374
406 1 9.43488 12.5793 3.14294 -8.95093
407 1 11.0073 14.1556 4.7088 -8.95303
408 1 12.5817 12.5805 3.13748 -8.95852
409 1 14.163 14.1622 4.70621 -8.93051
410 1 15.7268 12.5803 3.14224 -8.94791
411 1 17.2998 14.1533 4.71572 -8.95063
412 1 18.8699 12.5796 3.14423 -8.94934
413 1 20.4418 14.1521 4.71684 -8.94998
414 1 22.0137 15.7244 3.14452 -8.94974
415 1 1.57081 17.2979 4.71607 -8.94849
416 1 3.14382 15.7248 3.14368 -8.95047
417 1 4.71404 17.3001 4.71364 -8.94503
418 1 6.28773 15.7264 3.14098 -8.9499
419 1 7.86156 17.2995 4.71493 -8.94912
420 1 9.43433 15.7262 3.14212 -8.94789
421 1 11.0074 17.2993 4.71501 -8.94753
422 1 12.5802 15.7261 3.14204 -8.95005
423 1 14.1544 17.3006 4.7145 -8.94986
424 1 15.7273 15.7272 3.14185 -8.94492
425 1 17.2973 17.2972 4.71702 -8.95041
426 1 18.8699 15.7248 3.14427 -8.94962
427 1 20.4413 17.297 4.71703 -8.9497
428 1 22.0135 18.8694 3.14458 -8.9493
429 1 1.57203 20.4418 4.71697 -8.94951
430 1 3.14402 18.8699 3.14396 -8.94853
431 1 4.71672 20.4423 4.71659 -8.94984
432 1 6.28941 18.8699 3.14407 -8.94965
433 1 7.86208 20.4422 4.71666 -8.94956
434 1 9.43454 18.87 3.14408 -8.9494
435 1 11.0072 20.4422 4.71665 -8.94951
436 1 12.5796 18.87 3.14417 -8.94915
437 1 14.1521 20.4422 4.71688 -8.95045
438 1 15.725 18.8702 3.14405 -8.94938
439 1 17.2969 20.4417 4.71711 -8.94939
440 1 18.8692 18.8693 3.14471 -8.9498
441 1 20.4415 20.4416 4.71719 -8.9496
442 1 1.56903 11.007 7.86029 -8.9473
443 1 4.71096 11.007 7.85486 -8.93537
444 1 7.8776 11.007 7.87674 -8.94403
445 1 11.0846 11.007 7.63711 -8.11649
446 1 14.1615 11.007 7.85467 -8.97134
447 1 17.2995 11.007 7.86209 -8.95117
448 1 20.4414 11.007 7.86184 -8.94986
449 1 22.013 12.5795 6.28896 -8.94957
450 1 1.56763 14.1534 7.86054 -8.95238
451 1 3.14134 12.5796 6.28682 -8.94816
452 1 4.69814 14.1648 7.84965 -8.93996
453 1 6.28497 12.5776 6.2824 -8.96142
454 1 7.8227 14.1891 7.82518 -8.85778
455 1 9.42059 12.6001 6.28275 -8.9087
456 1 11.0257 14.1623 7.83369 -8.91227
457 1 12.6184 12.6107 6.25427 -8.8554
458 1 14.1559 14.1518 7.86412 -8.95447
459 1 15.7335 12.5815 6.28633 -8.95743
460 1 17.2982 14.1522 7.86246 -8.94967
461 1 18.8708 12.5796 6.28926 -8.95146
462 1 20.441 14.1522 7.86189 -8.95027
463 1 22.0125 15.725 6.28899 -8.95006
464 1 1.571 17.2977 7.86183 -8.94992
465 1 3.13889 15.7285 6.28539 -8.94604
466 1 4.71286 17.3024 7.85935 -8.9479
467 1 6.2782 15.7364 6.27712 -8.93041
468 1 7.85981 17.3055 7.85964 -8.95705
469 1 9.43464 15.7324 6.28402 -8.95001
470 1 11.007 17.3 7.86085 -8.95111
471 1 12.5862 15.7348 6.28146 -8.9544
472 1 14.1551 17.3002 7.8598 -8.94419
473 1 15.7261 15.7253 6.28952 -8.952
474 1 17.298 17.2977 7.86159 -8.94915
475 1 18.8694 15.7246 6.28958 -8.9498
476 1 20.4415 17.2971 7.86197 -8.9497
477 1 -0.000327433 18.8694 6.28953 -8.94969
478 1 1.57208 20.4418 7.86208 -8.94965
479 1 3.14351 18.8707 6.28874 -8.94918
480 1 4.71643 20.4427 7.8617 -8.95013
481 1 6.28846 18.8724 6.2881 -8.95095
482 1 7.86191 20.4432 7.86164 -8.95112
483 1 9.43487 18.8716 6.28842 -8.95003
484 1 11.0071 20.4425 7.86179 -8.94941
485 1 12.5799 18.8713 6.28899 -8.95225
486 1 14.1525 20.4424 7.86166 -8.94972
487 1 15.7252 18.8701 6.28912 -8.94842
488 1 17.297 20.4418 7.86198 -8.94957
489 1 18.8694 18.8694 6.28951 -8.94945
490 1 20.4415 20.4416 7.86207 -8.94958
491 1 22.0117 12.5795 9.43435 -8.95151
492 1 3.1339 12.581 9.43162 -8.95836
493 1 6.24569 12.6177 9.40111 -8.88521
494 1 9.3666 12.8248 9.43142 -8.11202
495 1 12.5606 12.5664 9.43509 -8.90036
496 1 15.7238 12.5784 9.43413 -8.93998
497 1 18.8696 12.5797 9.43433 -8.94828
498 1 22.0129 15.7248 9.43459 -8.94993
499 1 3.14025 15.7268 9.43475 -8.95079
500 1 6.27603 15.7415 9.42942 -8.94575
501 1 9.43025 15.726 9.43128 -9.00275
502 1 12.589 15.7333 9.42374 -8.92574
503 1 15.7286 15.727 9.43309 -8.94805
512 1 1.56972 11.007 11.0077 -8.94958
513 1 4.71122 11.007 10.9997 -8.96846
514 1 7.79573 11.007 10.7671 -8.03011
519 1 1.56937 14.1525 11.0077 -8.95162
520 1 4.70523 14.1548 11.0118 -8.96073
522 1 11.0615 14.1917 10.9947 -8.80888
527 1 4.71439 17.2998 11.0086 -8.9472
529 1 11.0086 17.3047 11.0057 -8.96048
351 1 22.0137 12.5794 8.98404e-05 -8.94959
377 1 18.8693 15.7244 -8.92148e-05 -8.94958
389 1 15.7245 18.8694 5.64569e-05 -8.9496
383 1 6.28959 18.8694 -4.20062e-06 -8.94949
687 3 8.65218 11.007 12.5746 2.29983
686 1 20.4415 20.4416 20.4415 -8.94951
685 1 18.8694 18.8694 18.8693 -8.9493
515 1 11.0733 11.007 11.2468 -8.03011
516 1 14.1578 11.007 11.0142 -8.96846
517 1 17.2993 11.007 11.0062 -8.94958
518 1 20.4415 11.007 11.007 -8.94964
684 1 17.2969 20.4417 20.4417 -8.94939
683 1 15.725 18.8699 18.8699 -8.94853
521 1 7.80758 14.1917 11.0192 -8.80888
682 1 14.1519 20.4417 20.4417 -8.94966
523 1 14.1638 14.1548 11.0021 -8.96073
524 1 17.2997 14.1525 11.0062 -8.95162
525 1 20.4415 14.1522 11.007 -8.95012
526 1 1.57105 17.2977 11.0071 -8.94886
681 1 12.5796 18.8699 18.8698 -8.94965
528 1 7.86044 17.3047 11.0082 -8.96048
680 1 11.007 20.4417 20.4417 -8.94955
530 1 14.1547 17.2998 11.0053 -8.9472
679 1 9.43452 18.87 18.8698 -8.9494
532 1 20.4415 17.2971 11.007 -8.94954
533 1 1.57202 20.4418 11.007 -8.94956
678 1 7.86207 20.4417 20.4417 -8.94957
677 1 6.28947 18.87 18.8697 -8.94915
536 1 11.0071 20.4431 11.0068 -8.95112
537 1 14.1526 20.4424 11.0067 -8.94922
676 1 4.71717 20.4417 20.4416 -8.94954
539 1 20.4415 20.4416 11.007 -8.94961
540 1 1.56955 11.007 14.1518 -8.95117
541 1 4.70758 11.007 14.1592 -8.97134
542 1 7.78442 11.007 14.3768 -8.11649
543 1 10.9915 11.007 14.1372 -8.94403
544 1 14.1581 11.007 14.159 -8.93537
545 1 17.3 11.007 14.1536 -8.9473
546 1 20.4416 11.007 14.1521 -8.94986
547 1 22.0134 12.5797 12.5796 -8.94828
548 1 1.57082 14.1522 14.1514 -8.94967
549 1 3.14522 12.5784 12.5798 -8.93998
550 1 4.71311 14.1518 14.1498 -8.95447
551 1 6.30846 12.5664 12.5788 -8.90036
552 1 7.84335 14.1623 14.1802 -8.91227
553 1 9.50246 12.8248 12.5825 -8.11202
554 1 11.0464 14.1891 14.1887 -8.85778
555 1 12.6234 12.6177 12.6128 -8.88521
556 1 14.1709 14.1648 14.1643 -8.93996
557 1 15.7352 12.581 12.5823 -8.95836
558 1 17.3014 14.1534 14.1534 -8.95238
559 1 18.8713 12.5795 12.5795 -8.95151
560 1 20.4419 14.1522 14.152 -8.95027
561 1 -0.00102114 15.725 12.5796 -8.94996
562 1 1.57107 17.2977 14.1523 -8.94915
563 1 3.14049 15.727 12.5808 -8.94805
564 1 4.71394 17.3002 14.1541 -8.94419
565 1 6.2801 15.7333 12.5902 -8.92574
566 1 7.86204 17.3 14.153 -8.95111
567 1 9.43881 15.726 12.5826 -9.00275
568 1 11.0092 17.3055 14.1543 -8.95705
569 1 12.593 15.7415 12.5845 -8.94575
570 1 14.1562 17.3024 14.1546 -8.9479
571 1 15.7288 15.7268 12.5791 -8.95079
572 1 17.2981 17.2977 14.1521 -8.94992
573 1 18.8701 15.7248 12.5793 -8.94993
574 1 20.4415 17.2971 14.1519 -8.9497
575 1 22.0136 18.8695 12.5795 -8.94953
576 1 1.57205 20.4418 14.1519 -8.94957
577 1 3.14374 18.8703 12.5797 -8.94939
578 1 4.71655 20.4424 14.1522 -8.94972
579 1 6.28835 18.8719 12.5805 -8.95036
580 1 7.86197 20.4425 14.1521 -8.94941
581 1 9.43471 18.8716 12.5801 -8.94688
582 1 11.0071 20.4432 14.1523 -8.95112
583 1 12.5811 18.8735 12.5795 -8.95196
584 1 14.1526 20.4427 14.1522 -8.95013
585 1 15.7252 18.8702 12.5792 -8.94954
586 1 17.297 20.4418 14.1518 -8.94965
587 1 18.8694 18.8694 12.5794 -8.94945
588 1 20.4415 20.4416 14.1518 -8.94958
589 1 1.56922 11.007 17.2984 -8.94904
590 1 4.70832 11.007 17.3054 -8.94251
591 1 7.85754 11.007 17.2945 -9.00168
592 1 11.0048 11.007 17.2954 -8.94257
593 1 14.1545 11.007 17.3007 -8.94637
594 1 17.2979 11.007 17.2978 -8.94942
595 1 20.4411 11.007 17.2972 -8.94981
596 1 22.0121 12.5796 15.7246 -8.95146
597 1 1.56927 14.1533 17.2982 -8.95063
598 1 3.13557 12.5815 15.7276 -8.95743
599 1 4.70602 14.1622 17.3077 -8.93051
600 1 6.25062 12.6107 15.7596 -8.8554
601 1 7.86171 14.1556 17.3051 -8.95303
602 1 9.44846 12.6001 15.7311 -8.9087
603 1 11.0116 14.1575 17.3073 -8.95374
604 1 12.5841 12.5776 15.7315 -8.96142
605 1 14.1544 14.1526 17.3003 -8.953
606 1 15.7277 12.5796 15.7271 -8.94816
607 1 17.2978 14.1521 17.2976 -8.9495
608 1 18.87 12.5795 15.7249 -8.94957
609 1 20.4411 14.1521 17.2971 -8.94998
610 1 22.0135 15.7246 15.7243 -8.9498
611 1 1.57177 17.2972 17.2969 -8.95041
612 1 3.14291 15.7253 15.7244 -8.952
613 1 4.71468 17.3006 17.2994 -8.94986
614 1 6.28281 15.7348 15.7324 -8.9544
615 1 7.86161 17.2993 17.2989 -8.94753
616 1 9.43442 15.7324 15.7299 -8.95001
617 1 11.0075 17.2995 17.299 -8.94912
618 1 12.5909 15.7364 15.7368 -8.93041
619 1 14.155 17.3001 17.3003 -8.94503
620 1 15.7302 15.7285 15.7285 -8.94604
621 1 17.2982 17.2979 17.2978 -8.94849
622 1 18.8705 15.725 15.7249 -8.95006
623 1 20.4417 17.297 17.2969 -8.9497
624 1 -0.000302993 18.8694 15.7244 -8.94945
625 1 1.57214 20.4417 17.2968 -8.94939
626 1 3.14387 18.8701 15.7248 -8.94842
627 1 4.71692 20.4422 17.297 -8.95045
628 1 6.28919 18.8713 15.7249 -8.95225
629 1 7.86189 20.4422 17.2973 -8.94951
630 1 9.43419 18.8716 15.7255 -8.95003
631 1 11.007 20.4422 17.2972 -8.94956
632 1 12.5806 18.8724 15.7258 -8.95095
633 1 14.1523 20.4423 17.2973 -8.94984
634 1 15.7255 18.8707 15.7252 -8.94918
635 1 17.297 20.4418 17.2969 -8.94951
636 1 18.8694 18.8694 15.7244 -8.94969
637 1 20.4415 20.4416 17.2967 -8.9496
638 1 1.5716 11.007 20.4422 -8.94954
639 1 4.71559 11.007 20.4443 -8.94944
640 1 7.86206 11.007 20.4426 -8.94676
641 1 11.007 11.007 20.4417 -8.94775
642 1 14.1526 11.007 20.442 -8.95014
643 1 17.2971 11.007 20.4417 -8.94955
644 1 20.4414 11.007 20.4417 -8.94958
645 1 -0.000864478 12.5796 18.8697 -8.94934
646 1 1.57164 14.1522 20.4422 -8.94937
647 1 3.14225 12.5803 18.8717 -8.94791
648 1 4.71598 14.1529 20.4441 -8.95122
649 1 6.28732 12.5805 18.8764 -8.95852
650 1 7.86229 14.1526 20.4435 -8.95075
651 1 9.43418 12.5793 18.871 -8.95093
652 1 11.0071 14.1522 20.4432 -8.9524
653 1 12.5797 12.5787 18.8708 -8.95081
654 1 14.1523 14.1519 20.4419 -8.95045
655 1 15.7253 12.5795 18.8702 -8.94889
656 1 17.297 14.1519 20.4417 -8.94937
657 1 18.8693 12.5795 18.8695 -8.94954
658 1 20.4414 14.1519 20.4417 -8.94953
659 1 22.013 15.7248 18.8696 -8.94962
660 1 1.57165 17.2974 20.4421 -8.94851
661 1 3.14176 15.7272 18.8721 -8.94492
662 1 4.71684 17.2974 20.4421 -8.94997
663 1 6.28889 15.7261 18.8719 -8.95005
664 1 7.862 17.2975 20.4422 -8.94935
665 1 9.43473 15.7262 18.8718 -8.94789
666 1 11.0071 17.2974 20.4422 -8.94919
667 1 12.5813 15.7264 18.8729 -8.9499
668 1 14.1525 17.2975 20.4424 -8.94945
669 1 15.7252 15.7248 18.8702 -8.95047
670 1 17.297 17.297 20.4417 -8.94972
671 1 18.8692 15.7244 18.8694 -8.94974
672 1 20.4414 17.2968 20.4416 -8.94959
673 1 22.0138 18.8693 18.8692 -8.9498
674 1 1.57218 20.4417 20.4417 -8.94945
675 1 3.14403 18.8702 18.8699 -8.94938
391 1 18.8692 18.8693 22.0138 -8.94935
353 1 3.14409 12.5796 22.0144 -8.94935
359 1 12.5797 12.5794 22.0129 -8.95106
369 1 6.2894 15.7248 22.0139 -8.95028
375 1 15.7248 15.7247 22.0133 -8.94994
363 1 18.8693 12.5794 22.0138 -8.94959
365 1 -0.000197633 15.7244 22.014 -8.94958
381 1 3.14457 18.8694 22.0138 -8.9496
387 1 12.5795 18.8694 22.0139 -8.94949
