ITEM: TIMESTEP
78
ITEM: NUMBER OF ATOMS
688
ITEM: BOX BOUNDS pp pp pp
0.0000000000000000e+00 2.2013900999999997e+01
0.0000000000000000e+00 2.2013900999999997e+01
0.0000000000000000e+00 2.2013900999999997e+01
ITEM: ATOMS id type x y z c_pot
1 1 22.0138 -2.84698e-16 3.03166e-05 -8.94939
2 1 1.57217 1.57222 1.57223 -8.94937
193 1 11.062 7.82188 10.9949 -8.80814
4 1 4.71712 1.57218 1.5722 -8.94966
175 1 18.8696 9.43425 9.43432 -8.94823
6 1 7.86206 1.57215 1.57219 -8.94954
7 1 9.43453 -9.74871e-16 1.00739e-15 -8.9496
8 1 11.007 1.57214 1.57218 -8.94956
9 1 12.5794 6.37451e-17 -5.85514e-06 -8.94958
10 1 14.1519 1.57217 1.57223 -8.94953
174 1 15.7237 9.43555 9.43413 -8.93992
12 1 17.2969 1.57212 1.57222 -8.94943
191 1 4.70502 7.85907 11.0118 -8.96086
14 1 20.4414 1.57231 1.57237 -8.9495
15 1 22.0137 3.14459 5.7269e-05 -8.94933
16 1 1.57198 4.71688 1.57222 -8.94973
190 1 1.56928 7.86143 11.0078 -8.95169
18 1 4.71652 4.71637 1.57139 -8.94944
173 1 12.5603 9.44768 9.43513 -8.90032
20 1 7.86195 4.7164 1.57164 -8.94918
21 1 9.43453 3.14435 8.19825e-16 -8.94954
22 1 11.0071 4.71635 1.57168 -8.94933
188 1 17.2981 4.71611 11.0067 -8.94883
24 1 14.1523 4.7164 1.57172 -8.94998
172 1 9.36682 9.18799 9.43137 -8.11309
26 1 17.2975 4.71645 1.5717 -8.94848
171 1 6.24567 9.396 9.40095 -8.88526
28 1 20.4416 4.71704 1.57224 -8.94958
186 1 11.0087 4.70909 11.0057 -8.96062
30 1 1.57197 7.86194 1.57223 -8.94935
31 1 3.14418 6.28913 0.000585486 -8.94996
32 1 4.71675 7.862 1.57202 -8.95047
170 1 3.13377 9.43288 9.43153 -8.95838
34 1 7.86196 7.86165 1.5707 -8.95247
35 1 9.43453 6.28877 1.44278e-15 -8.94948
36 1 11.0068 7.86129 1.57037 -8.9508
37 1 12.5797 6.28901 9.45851e-06 -8.95033
38 1 14.1532 7.86092 1.56965 -8.95125
169 1 22.0116 9.43441 9.43434 -8.95151
40 1 17.2975 7.8617 1.57168 -8.94934
168 1 18.8701 6.28888 9.43431 -8.94998
42 1 20.4416 7.86199 1.57221 -8.94952
167 1 15.7287 6.28679 9.43302 -8.94804
166 1 12.5892 6.2805 9.42356 -8.92553
45 1 6.28939 9.43452 0.00107435 -8.95107
46 1 9.43453 9.43463 1.23027e-15 -8.94931
165 1 9.43024 6.28789 9.43117 -9.00293
48 1 15.725 9.4343 -0.000575537 -8.94935
184 1 4.71423 4.71399 11.0087 -8.94712
50 1 22.0138 -3.64018e-16 3.14472 -8.94954
51 1 1.57198 1.57203 4.71693 -8.94949
52 1 3.14452 -2.65647e-16 3.14449 -8.94956
53 1 4.71667 1.57154 4.71652 -8.94985
54 1 6.2896 3.22657e-17 3.14449 -8.94958
55 1 7.86208 1.57163 4.7166 -8.94957
56 1 9.43456 -4.30371e-16 3.14446 -8.94957
57 1 11.0072 1.57164 4.71659 -8.94951
58 1 12.5795 -4.80229e-16 3.1445 -8.9495
59 1 14.1522 1.57165 4.71684 -8.95049
60 1 15.7245 -1.36779e-16 3.14459 -8.94994
61 1 17.297 1.57217 4.71709 -8.94938
62 1 18.8691 4.58675e-16 3.14479 -8.94954
63 1 20.4415 1.57228 4.71718 -8.94959
64 1 22.0135 3.14447 3.14454 -8.94928
65 1 1.57069 4.71593 4.71597 -8.94846
66 1 3.14394 3.14391 3.14388 -8.94849
67 1 4.71387 4.71361 4.71345 -8.94497
68 1 6.28938 3.1439 3.14399 -8.94963
69 1 7.8615 4.71427 4.71478 -8.9491
70 1 9.43454 3.14385 3.14401 -8.94938
71 1 11.0075 4.71444 4.71489 -8.9475
72 1 12.5796 3.14387 3.14411 -8.94913
73 1 14.1545 4.71315 4.71434 -8.94986
74 1 15.7251 3.1436 3.14398 -8.94937
75 1 17.2974 4.71663 4.71698 -8.95044
76 1 18.8692 3.14459 3.14469 -8.94981
77 1 20.4412 4.7169 4.71699 -8.94971
78 1 22.0137 6.28946 3.14448 -8.94974
79 1 1.57121 7.86181 4.71622 -8.9495
80 1 3.14373 6.28904 3.14359 -8.95051
81 1 4.71456 7.86121 4.71347 -8.95307
82 1 6.28763 6.28739 3.14081 -8.9499
83 1 7.85729 7.85625 4.7064 -8.95372
84 1 9.43432 6.28758 3.142 -8.94787
85 1 11.0074 7.85816 4.70858 -8.95308
86 1 12.5802 6.2877 3.14188 -8.95006
87 1 14.1633 7.85154 4.70598 -8.93047
88 1 15.7274 6.28656 3.14171 -8.94487
89 1 17.2999 7.86057 4.71564 -8.95064
90 1 18.87 6.28908 3.14422 -8.94962
91 1 20.4418 7.86181 4.7168 -8.94999
92 1 -0.000242344 9.43443 3.14438 -8.94953
93 1 3.14373 9.43435 3.14358 -8.94887
94 1 6.28934 9.43521 3.14303 -8.95081
95 1 9.43492 9.43466 3.14297 -8.95097
96 1 12.5818 9.43344 3.13737 -8.95859
97 1 15.727 9.43356 3.14209 -8.94786
98 1 18.87 9.43431 3.14417 -8.94933
99 1 22.0138 1.26501e-15 6.28964 -8.94967
100 1 1.57204 1.57211 7.86207 -8.94964
101 1 3.14431 8.96612e-16 6.28935 -8.94973
102 1 4.71636 1.57107 7.86167 -8.95016
103 1 6.28933 6.18261e-16 6.28913 -8.95035
104 1 7.8619 1.57059 7.86161 -8.95114
105 1 9.4347 2.53305e-16 6.28913 -8.95
106 1 11.0071 1.5714 7.86177 -8.9494
107 1 12.5796 1.02201e-15 6.28939 -8.95019
108 1 14.1526 1.57146 7.86163 -8.94973
109 1 15.7247 1.03296e-15 6.28942 -8.94949
110 1 17.2971 1.57208 7.86196 -8.94956
111 1 18.8692 7.35631e-16 6.28961 -8.9496
112 1 20.4415 1.57227 7.86206 -8.94957
113 1 -0.000371874 3.14442 6.28951 -8.94969
114 1 1.57087 4.7161 7.86179 -8.94993
115 1 3.14339 3.14306 6.28865 -8.94915
116 1 4.71262 4.71121 7.8592 -8.94783
117 1 6.28839 3.14139 6.28802 -8.95097
118 1 7.8597 4.70824 7.85956 -8.9571
119 1 9.43487 3.14213 6.28835 -8.95005
120 1 11.007 4.71385 7.86077 -8.95115
121 1 12.5799 3.14248 6.28893 -8.9523
122 1 14.1553 4.71362 7.85968 -8.94411
123 1 15.7253 3.1437 6.28907 -8.94838
124 1 17.2981 4.71615 7.86154 -8.94913
125 1 18.8694 3.14446 6.28949 -8.94944
126 1 20.4415 4.71679 7.86196 -8.94971
127 1 22.0124 6.28886 6.28893 -8.95008
128 1 1.56744 7.86044 7.86047 -8.95243
129 1 3.13863 6.28519 6.28522 -8.94601
130 1 4.6978 7.84889 7.84944 -8.94001
131 1 6.27792 6.27724 6.27684 -8.93031
132 1 7.82236 7.82448 7.82493 -8.85747
133 1 9.43458 6.28123 6.28382 -8.95001
134 1 11.026 7.85138 7.83326 -8.9119
135 1 12.5865 6.27884 6.28117 -8.95435
136 1 14.1561 7.86217 7.86406 -8.95458
137 1 15.7263 6.28853 6.28946 -8.95206
138 1 17.2983 7.86169 7.86246 -8.9497
139 1 18.8695 6.28928 6.28957 -8.94982
140 1 20.441 7.86169 7.86188 -8.95029
141 1 22.0129 9.43437 6.2889 -8.94956
142 1 3.14119 9.43432 6.2867 -8.94815
143 1 6.28486 9.43624 6.28234 -8.96153
144 1 9.42042 9.41351 6.28272 -8.90851
145 1 12.6186 9.40315 6.25407 -8.85537
146 1 15.7337 9.43236 6.28621 -8.95746
147 1 18.8709 9.43427 6.28923 -8.95148
148 1 -0.000166016 1.33058e-15 9.43451 -8.94959
149 1 3.14433 1.63177e-15 9.43456 -8.94947
150 1 6.28912 1.32303e-15 9.43448 -8.95081
151 1 9.43457 1.21301e-15 9.43426 -8.94918
152 1 12.5798 1.43575e-15 9.43423 -8.95022
153 1 15.7248 1.71597e-15 9.43437 -8.94953
154 1 18.8692 1.50734e-15 9.4345 -8.94961
155 1 -0.000351458 3.14441 9.43451 -8.94944
156 1 3.14375 3.14364 9.4347 -8.94953
157 1 6.28784 3.14023 9.43439 -8.95203
158 1 9.43433 3.14224 9.43381 -8.94682
159 1 12.5808 3.14188 9.43337 -8.95039
160 1 15.7254 3.14353 9.43413 -8.94936
161 1 18.8694 3.14439 9.43444 -8.94952
162 1 22.0128 6.28901 9.43459 -8.94995
163 1 3.14002 6.28693 9.43473 -8.95083
164 1 6.27564 6.27207 9.42925 -8.94558
177 1 4.71641 1.57142 11.0072 -8.94921
178 1 7.86196 1.57073 11.0071 -8.95112
181 1 17.2971 1.57207 11.0069 -8.94955
11 1 15.7243 4.38391e-16 8.92093e-06 -8.94965
19 1 6.28957 3.14441 -6.25108e-06 -8.94947
25 1 15.7245 3.14442 6.0452e-05 -8.94959
43 1 22.0136 9.43447 9.85908e-05 -8.94958
41 1 18.8693 6.28952 -9.78993e-05 -8.94957
176 1 1.57197 1.57207 11.007 -8.94955
343 1 18.8693 9.43443 18.8695 -8.94953
342 1 15.7253 9.43435 18.8703 -8.94887
179 1 11.0071 1.57073 11.0068 -8.95112
180 1 14.1526 1.57142 11.0067 -8.94921
341 1 12.5797 9.43521 18.8709 -8.95081
182 1 20.4415 1.57225 11.007 -8.9496
183 1 1.57095 4.71611 11.0072 -8.94883
340 1 9.43413 9.43466 18.8709 -8.95097
185 1 7.86039 4.70909 11.0082 -8.96062
339 1 6.28721 9.43344 18.8765 -8.95859
187 1 14.1548 4.71399 11.0052 -8.94712
338 1 3.14209 9.43356 18.8718 -8.94786
189 1 20.4415 4.71671 11.007 -8.94953
337 1 -0.000935991 9.43431 18.8697 -8.94933
336 1 20.4414 7.86199 20.4417 -8.94952
192 1 7.80709 7.82188 11.019 -8.80814
335 1 18.8693 6.28946 18.8694 -8.94974
194 1 14.164 7.85907 11.0021 -8.96086
195 1 17.2998 7.86143 11.0061 -8.95169
196 1 20.4415 7.86169 11.007 -8.95013
197 1 -0.000166383 1.3951e-15 12.5794 -8.94961
198 1 1.572 1.57208 14.1519 -8.94956
199 1 3.14431 1.84006e-15 12.5795 -8.94953
200 1 4.7165 1.57146 14.1523 -8.94973
201 1 6.28922 1.75199e-15 12.5797 -8.95022
202 1 7.86197 1.5714 14.1521 -8.9494
203 1 9.43449 1.46254e-15 12.5796 -8.94918
204 1 11.0072 1.57059 14.1523 -8.95114
205 1 12.5799 1.58432e-15 12.5794 -8.95081
206 1 14.1527 1.57107 14.1522 -8.95016
207 1 15.7247 1.67089e-15 12.5793 -8.94947
208 1 17.297 1.57211 14.1518 -8.94964
209 1 18.8692 1.42826e-15 12.5794 -8.94959
210 1 20.4415 1.57227 14.1518 -8.94957
211 1 22.0135 3.14439 12.5795 -8.94952
212 1 1.57098 4.71615 14.1524 -8.94913
213 1 3.14365 3.14353 12.5798 -8.94936
214 1 4.71381 4.71362 14.1542 -8.94411
215 1 6.28829 3.14188 12.5805 -8.95039
216 1 7.86202 4.71385 14.1531 -8.95115
217 1 9.43473 3.14224 12.5801 -8.94682
218 1 11.0094 4.70824 14.1543 -8.9571
219 1 12.5812 3.14023 12.5795 -8.95203
220 1 14.1564 4.71121 14.1547 -8.94783
221 1 15.7253 3.14364 12.5792 -8.94953
222 1 17.2982 4.7161 14.1521 -8.94993
223 1 18.8694 3.14441 12.5794 -8.94944
224 1 20.4415 4.71679 14.1519 -8.94971
225 1 -0.00107624 6.28888 12.5796 -8.94998
226 1 1.57077 7.86169 14.1514 -8.9497
227 1 3.14033 6.28679 12.5809 -8.94804
228 1 4.713 7.86217 14.1498 -8.95458
229 1 6.27989 6.2805 12.5903 -8.92553
230 1 7.84304 7.85138 14.1806 -8.9119
231 1 9.43882 6.28789 12.5827 -9.00293
232 1 11.0467 7.82448 14.189 -8.85747
233 1 12.5934 6.27207 12.5847 -8.94558
234 1 14.1713 7.84889 14.1645 -8.94001
235 1 15.729 6.28693 12.5792 -8.95083
236 1 17.3016 7.86044 14.1534 -8.95243
237 1 18.8702 6.28901 12.5793 -8.94995
238 1 20.442 7.86169 14.152 -8.95029
239 1 22.0134 9.43425 12.5796 -8.94823
240 1 3.14534 9.43555 12.5798 -8.93992
241 1 6.3088 9.44768 12.5788 -8.90032
242 1 9.50224 9.18799 12.5825 -8.11309
243 1 12.6234 9.396 12.613 -8.88526
244 1 15.7353 9.43288 12.5824 -8.95838
245 1 18.8714 9.43441 12.5796 -8.95151
246 1 -0.000145456 4.09417e-16 15.7243 -8.9496
247 1 1.57211 1.57217 17.2968 -8.94938
248 1 3.14441 1.22308e-15 15.7245 -8.94949
249 1 4.71688 1.57165 17.2971 -8.95049
250 1 6.28949 1.7481e-15 15.7245 -8.95019
251 1 7.86187 1.57164 17.2973 -8.94951
252 1 9.43436 -4.53611e-17 15.7248 -8.95
253 1 11.007 1.57163 17.2973 -8.94957
254 1 12.5797 1.13297e-15 15.7248 -8.95035
255 1 14.1524 1.57154 17.2974 -8.94985
256 1 15.7247 1.22452e-15 15.7246 -8.94973
257 1 17.2971 1.57203 17.297 -8.94949
258 1 18.8692 1.30751e-15 15.7243 -8.94967
259 1 20.4415 1.57228 17.2967 -8.94959
260 1 -0.000333591 3.14446 15.7244 -8.94944
261 1 1.5717 4.71663 17.2969 -8.95044
262 1 3.1438 3.1437 15.7248 -8.94838
263 1 4.71454 4.71315 17.2996 -8.94986
264 1 6.28916 3.14248 15.725 -8.9523
265 1 7.86158 4.71444 17.299 -8.9475
266 1 9.43419 3.14213 15.7256 -8.95005
267 1 11.0076 4.71427 17.2991 -8.9491
268 1 12.5807 3.14139 15.7259 -8.95097
269 1 14.1552 4.71361 17.3004 -8.94497
270 1 15.7257 3.14306 15.7253 -8.94915
271 1 17.2984 4.71593 17.2979 -8.94846
272 1 18.8694 3.14442 15.7244 -8.94969
273 1 20.4417 4.7169 17.2969 -8.94971
274 1 22.0135 6.28928 15.7243 -8.94982
275 1 1.56913 7.86057 17.2983 -8.95064
276 1 3.14279 6.28853 15.7244 -8.95206
277 1 4.70579 7.85154 17.3079 -8.93047
278 1 6.28258 6.27884 15.7327 -8.95435
279 1 7.86163 7.85816 17.3053 -8.95308
280 1 9.43448 6.28123 15.7301 -8.95001
281 1 11.0118 7.85625 17.3075 -8.95372
282 1 12.5911 6.27724 15.7371 -8.93031
283 1 14.1545 7.86121 17.3004 -8.95307
284 1 15.7304 6.28519 15.7287 -8.94601
285 1 17.2979 7.86181 17.2977 -8.9495
286 1 18.8706 6.28886 15.725 -8.95008
287 1 20.4411 7.86181 17.2971 -8.94999
288 1 22.0121 9.43427 15.7247 -8.95148
289 1 3.13539 9.43236 15.7277 -8.95746
290 1 6.25042 9.40315 15.7598 -8.85537
291 1 9.44864 9.41351 15.7312 -8.90851
292 1 12.5842 9.43624 15.7316 -8.96153
293 1 15.7279 9.43432 15.7272 -8.94815
294 1 18.87 9.43437 15.725 -8.94956
295 1 22.0138 6.62839e-16 18.8691 -8.94954
296 1 1.57214 1.57212 20.4417 -8.94943
297 1 3.14459 -4.4202e-16 18.8693 -8.94994
298 1 4.71715 1.57217 20.4417 -8.94953
299 1 6.28954 -1.18228e-15 18.8694 -8.9495
300 1 7.86206 1.57214 20.4417 -8.94956
301 1 9.4345 -3.08964e-16 18.8694 -8.94957
302 1 11.007 1.57215 20.4417 -8.94954
303 1 12.5795 1.0901e-15 18.8694 -8.94958
304 1 14.1519 1.57218 20.4417 -8.94966
305 1 15.7245 5.19672e-16 18.8694 -8.94956
306 1 17.2969 1.57222 20.4417 -8.94937
307 1 18.8692 1.66386e-15 18.8692 -8.94954
308 1 20.4415 1.57231 20.4415 -8.9495
309 1 22.0138 3.14459 18.8692 -8.94981
310 1 1.57159 4.71645 20.4422 -8.94848
311 1 3.14396 3.1436 18.8699 -8.94937
312 1 4.71679 4.7164 20.4422 -8.94998
313 1 6.28944 3.14387 18.8698 -8.94913
314 1 7.86199 4.71635 20.4422 -8.94933
315 1 9.43451 3.14385 18.8699 -8.94938
316 1 11.0071 4.7164 20.4423 -8.94918
317 1 12.5797 3.1439 18.8699 -8.94963
318 1 14.1525 4.71637 20.4425 -8.94944
319 1 15.7251 3.14391 18.87 -8.94849
320 1 17.2971 4.71688 20.4417 -8.94973
321 1 18.8695 3.14447 18.8694 -8.94928
322 1 20.4413 4.71704 20.4417 -8.94958
323 1 22.013 6.28908 18.8697 -8.94962
324 1 1.57157 7.8617 20.4422 -8.94934
325 1 3.14161 6.28656 18.8722 -8.94487
326 1 4.71591 7.86092 20.4443 -8.95125
327 1 6.28881 6.2877 18.872 -8.95006
328 1 7.86228 7.86129 20.4435 -8.9508
329 1 9.43473 6.28758 18.8719 -8.94787
330 1 11.0071 7.86165 20.4432 -8.95247
331 1 12.5814 6.28739 18.8731 -8.9499
332 1 14.1523 7.862 20.4419 -8.95047
333 1 15.7253 6.28904 18.8703 -8.95051
334 1 17.2971 7.86194 20.4417 -8.94935
5 1 6.28963 -4.21599e-16 22.0139 -8.94958
47 1 12.5797 9.43452 22.0128 -8.95107
44 1 3.14403 9.4343 22.0145 -8.94935
39 1 15.7249 6.28913 22.0133 -8.94996
27 1 18.8693 3.14459 22.0138 -8.94933
33 1 6.28937 6.28901 22.0139 -8.95033
3 1 3.14475 -3.47784e-17 22.0139 -8.94965
13 1 18.8692 9.03139e-17 22.0139 -8.94939
17 1 3.14453 3.14442 22.0138 -8.94959
23 1 12.5795 3.14441 22.0139 -8.94947
29 1 -0.000224792 6.28952 22.014 -8.94957
49 1 18.8693 9.43447 22.0138 -8.94958
344 1 1.57191 11.007 1.57219 -8.94953
345 1 4.71641 11.007 1.57189 -8.95016
346 1 7.86209 11.007 1.57224 -8.94766
347 1 11.007 11.007 1.57138 -8.94665
348 1 14.1536 11.007 1.56952 -8.94945
349 1 17.2975 11.007 1.57165 -8.94953
350 1 20.4416 11.007 1.57219 -8.94957
688 3 10.2171 11.007 9.4394 2.29719
352 1 1.57197 14.152 1.57223 -8.94935
511 1 18.8694 18.8695 9.43444 -8.94952
354 1 4.71675 14.1519 1.57202 -8.95047
355 1 6.28939 12.5794 0.00107435 -8.95107
356 1 7.86196 14.1523 1.5707 -8.95247
357 1 9.43453 12.5793 9.62317e-16 -8.94931
358 1 11.0068 14.1526 1.57037 -8.9508
510 1 15.7254 18.8704 9.43413 -8.94936
360 1 14.1532 14.153 1.56965 -8.95125
361 1 15.725 12.5796 -0.000575537 -8.94935
362 1 17.2975 14.1522 1.57168 -8.94934
538 1 17.2971 20.4418 11.0069 -8.94955
364 1 20.4416 14.1519 1.57221 -8.94952
535 1 7.86196 20.4432 11.0071 -8.95112
366 1 1.57198 17.297 1.57222 -8.94973
367 1 3.14418 15.7248 0.000585486 -8.94996
368 1 4.71652 17.2975 1.57139 -8.94944
509 1 12.5808 18.872 9.43337 -8.95039
370 1 7.86195 17.2975 1.57164 -8.94918
371 1 9.43453 15.7251 1.75563e-15 -8.94948
372 1 11.0071 17.2975 1.57168 -8.94933
373 1 12.5797 15.7249 9.45851e-06 -8.95033
374 1 14.1523 17.2975 1.57172 -8.94998
508 1 9.43433 18.8717 9.43381 -8.94682
376 1 17.2975 17.2974 1.5717 -8.94848
507 1 6.28784 18.8737 9.43439 -8.95203
378 1 20.4416 17.2969 1.57224 -8.94958
379 1 22.0137 18.8693 5.7269e-05 -8.94933
380 1 1.57217 20.4417 1.57223 -8.94937
534 1 4.71641 20.4425 11.0072 -8.94921
382 1 4.71712 20.4417 1.5722 -8.94966
506 1 3.14375 18.8703 9.4347 -8.94953
384 1 7.86206 20.4418 1.57219 -8.94954
385 1 9.43453 18.8695 1.63091e-17 -8.94954
386 1 11.007 20.4418 1.57218 -8.94956
531 1 17.2981 17.2978 11.0067 -8.94883
388 1 14.1519 20.4417 1.57223 -8.94953
505 1 -0.000351458 18.8695 9.43451 -8.94944
390 1 17.2969 20.4418 1.57222 -8.94943
504 1 18.8701 15.725 9.43431 -8.94998
392 1 20.4414 20.4416 1.57237 -8.9495
393 1 1.57112 11.007 4.71597 -8.94942
394 1 4.71447 11.007 4.71308 -8.94634
395 1 7.86431 11.007 4.71868 -8.94238
396 1 11.0116 11.007 4.71963 -9.00176
397 1 14.161 11.007 4.7083 -8.94242
398 1 17.3 11.007 4.71543 -8.94904
399 1 20.4419 11.007 4.71668 -8.94982
400 1 -0.000242344 12.5795 3.14438 -8.94953
401 1 1.57121 14.1521 4.71622 -8.9495
402 1 3.14373 12.5796 3.14358 -8.94887
403 1 4.71456 14.1527 4.71347 -8.95307
404 1 6.28934 12.5787 3.14303 -8.95081
405 1 7.85729 14.1576 4.7064 -8.95372
406 1 9.43492 12.5792 3.14297 -8.95097
407 1 11.0074 14.1557 4.70858 -8.95308
408 1 12.5818 12.5805 3.13737 -8.95859
409 1 14.1633 14.1624 4.70598 -8.93047
410 1 15.727 12.5803 3.14209 -8.94786
411 1 17.2999 14.1533 4.71564 -8.95064
412 1 18.87 12.5796 3.14417 -8.94933
413 1 20.4418 14.1521 4.7168 -8.94999
414 1 22.0137 15.7244 3.14448 -8.94974
415 1 1.57069 17.298 4.71597 -8.94846
416 1 3.14373 15.7249 3.14359 -8.95051
417 1 4.71387 17.3003 4.71345 -8.94497
418 1 6.28763 15.7265 3.14081 -8.9499
419 1 7.8615 17.2996 4.71478 -8.9491
420 1 9.43432 15.7263 3.142 -8.94787
421 1 11.0075 17.2995 4.71489 -8.9475
422 1 12.5802 15.7262 3.14188 -8.95006
423 1 14.1545 17.3007 4.71434 -8.94986
424 1 15.7274 15.7273 3.14171 -8.94487
425 1 17.2974 17.2973 4.71698 -8.95044
426 1 18.87 15.7248 3.14422 -8.94962
427 1 20.4412 17.297 4.71699 -8.94971
428 1 22.0135 18.8694 3.14454 -8.94928
429 1 1.57198 20.4419 4.71693 -8.94949
430 1 3.14394 18.87 3.14388 -8.94849
431 1 4.71667 20.4424 4.71652 -8.94985
432 1 6.28938 18.87 3.14399 -8.94963
433 1 7.86208 20.4423 4.7166 -8.94957
434 1 9.43454 18.87 3.14401 -8.94938
435 1 11.0072 20.4423 4.71659 -8.94951
436 1 12.5796 18.87 3.14411 -8.94913
437 1 14.1522 20.4423 4.71684 -8.95049
438 1 15.7251 18.8703 3.14398 -8.94937
439 1 17.297 20.4417 4.71709 -8.94938
440 1 18.8692 18.8693 3.14469 -8.94981
441 1 20.4415 20.4416 4.71718 -8.94959
442 1 1.5689 11.007 7.86021 -8.94725
443 1 4.7109 11.007 7.85475 -8.93525
444 1 7.8779 11.007 7.87712 -8.94416
445 1 11.0843 11.007 7.63688 -8.11666
446 1 14.1613 11.007 7.85454 -8.97129
447 1 17.2995 11.007 7.86206 -8.95113
448 1 20.4413 11.007 7.86182 -8.94984
449 1 22.0129 12.5795 6.2889 -8.94956
450 1 1.56744 14.1535 7.86047 -8.95243
451 1 3.14119 12.5796 6.2867 -8.94815
452 1 4.6978 14.165 7.84944 -8.94001
453 1 6.28486 12.5777 6.28234 -8.96153
454 1 7.82236 14.1894 7.82493 -8.85747
455 1 9.42042 12.6004 6.28272 -8.90851
456 1 11.026 14.1625 7.83326 -8.9119
457 1 12.6186 12.6108 6.25407 -8.85537
458 1 14.1561 14.1517 7.86406 -8.95458
459 1 15.7337 12.5815 6.28621 -8.95746
460 1 17.2983 14.1522 7.86246 -8.9497
461 1 18.8709 12.5796 6.28923 -8.95148
462 1 20.441 14.1522 7.86188 -8.95029
463 1 22.0124 15.725 6.28893 -8.95008
464 1 1.57087 17.2978 7.86179 -8.94993
465 1 3.13863 15.7287 6.28522 -8.94601
466 1 4.71262 17.3027 7.8592 -8.94783
467 1 6.27792 15.7367 6.27684 -8.93031
468 1 7.8597 17.3057 7.85956 -8.9571
469 1 9.43458 15.7327 6.28382 -8.95001
470 1 11.007 17.3001 7.86077 -8.95115
471 1 12.5865 15.7351 6.28117 -8.95435
472 1 14.1553 17.3003 7.85968 -8.94411
473 1 15.7263 15.7254 6.28946 -8.95206
474 1 17.2981 17.2977 7.86154 -8.94913
475 1 18.8695 15.7246 6.28957 -8.94982
476 1 20.4415 17.2971 7.86196 -8.94971
477 1 -0.000371874 18.8695 6.28951 -8.94969
478 1 1.57204 20.4418 7.86207 -8.94964
479 1 3.14339 18.8708 6.28865 -8.94915
480 1 4.71636 20.4428 7.86167 -8.95016
481 1 6.28839 18.8725 6.28802 -8.95097
482 1 7.8619 20.4433 7.86161 -8.95114
483 1 9.43487 18.8718 6.28835 -8.95005
484 1 11.0071 20.4425 7.86177 -8.9494
485 1 12.5799 18.8714 6.28893 -8.9523
486 1 14.1526 20.4424 7.86163 -8.94973
487 1 15.7253 18.8702 6.28907 -8.94838
488 1 17.2971 20.4418 7.86196 -8.94956
489 1 18.8694 18.8694 6.28949 -8.94944
490 1 20.4415 20.4416 7.86206 -8.94957
491 1 22.0116 12.5795 9.43434 -8.95151
492 1 3.13377 12.581 9.43153 -8.95838
493 1 6.24567 12.6179 9.40095 -8.88526
494 1 9.36682 12.8259 9.43137 -8.11309
495 1 12.5603 12.5662 9.43513 -8.90032
496 1 15.7237 12.5784 9.43413 -8.93992
497 1 18.8696 12.5796 9.43432 -8.94823
498 1 22.0128 15.7249 9.43459 -8.94995
499 1 3.14002 15.727 9.43473 -8.95083
500 1 6.27564 15.7418 9.42925 -8.94558
501 1 9.43024 15.726 9.43117 -9.00293
502 1 12.5892 15.7334 9.42356 -8.92553
503 1 15.7287 15.7271 9.43302 -8.94804
512 1 1.56974 11.007 11.0077 -8.94948
513 1 4.71156 11.007 10.9995 -8.96838
514 1 7.79648 11.007 10.7665 -8.03024
519 1 1.56928 14.1525 11.0078 -8.95169
520 1 4.70502 14.1548 11.0118 -8.96086
522 1 11.062 14.192 10.9949 -8.80814
527 1 4.71423 17.2999 11.0087 -8.94712
529 1 11.0087 17.3048 11.0057 -8.96062
351 1 22.0136 12.5794 9.85908e-05 -8.94958
377 1 18.8693 15.7244 -9.78993e-05 -8.94957
389 1 15.7245 18.8695 6.0452e-05 -8.94959
383 1 6.28957 18.8695 -6.25108e-06 -8.94947
687 3 8.65194 11.007 12.5745 2.29719
686 1 20.4415 20.4416 20.4415 -8.9495
685 1 18.8695 18.8694 18.8694 -8.94928
515 1 11.0726 11.007 11.2474 -8.03024
516 1 14.1575 11.007 11.0144 -8.96838
517 1 17.2993 11.007 11.0062 -8.94948
518 1 20.4415 11.007 11.007 -8.94958
684 1 17.2969 20.4417 20.4417 -8.94937
683 1 15.7251 18.87 18.87 -8.94849
521 1 7.80709 14.192 11.019 -8.80814
682 1 14.1519 20.4417 20.4417 -8.94966
523 1 14.164 14.1548 11.0021 -8.96086
524 1 17.2998 14.1525 11.0061 -8.95169
525 1 20.4415 14.1522 11.007 -8.95013
526 1 1.57095 17.2978 11.0072 -8.94883
681 1 12.5797 18.87 18.8699 -8.94963
528 1 7.86039 17.3048 11.0082 -8.96062
680 1 11.007 20.4418 20.4417 -8.94954
530 1 14.1548 17.2999 11.0052 -8.94712
679 1 9.43451 18.87 18.8699 -8.94938
532 1 20.4415 17.2972 11.007 -8.94953
533 1 1.57197 20.4418 11.007 -8.94955
678 1 7.86206 20.4418 20.4417 -8.94956
677 1 6.28944 18.87 18.8698 -8.94913
536 1 11.0071 20.4432 11.0068 -8.95112
537 1 14.1526 20.4425 11.0067 -8.94921
676 1 4.71715 20.4417 20.4417 -8.94953
539 1 20.4415 20.4417 11.007 -8.9496
540 1 1.56953 11.007 14.1518 -8.95113
541 1 4.70772 11.007 14.1594 -8.97129
542 1 7.78476 11.007 14.377 -8.11666
543 1 10.9912 11.007 14.1368 -8.94416
544 1 14.1582 11.007 14.1592 -8.93525
545 1 17.3002 11.007 14.1537 -8.94725
546 1 20.4416 11.007 14.1521 -8.94984
547 1 22.0134 12.5796 12.5796 -8.94823
548 1 1.57077 14.1522 14.1514 -8.9497
549 1 3.14534 12.5784 12.5798 -8.93992
550 1 4.713 14.1517 14.1498 -8.95458
551 1 6.3088 12.5662 12.5788 -8.90032
552 1 7.84304 14.1625 14.1806 -8.9119
553 1 9.50224 12.8259 12.5825 -8.11309
554 1 11.0467 14.1894 14.189 -8.85747
555 1 12.6234 12.6179 12.613 -8.88526
556 1 14.1713 14.165 14.1645 -8.94001
557 1 15.7353 12.581 12.5824 -8.95838
558 1 17.3016 14.1535 14.1534 -8.95243
559 1 18.8714 12.5795 12.5796 -8.95151
560 1 20.442 14.1522 14.152 -8.95029
561 1 -0.00107624 15.725 12.5796 -8.94998
562 1 1.57098 17.2977 14.1524 -8.94913
563 1 3.14033 15.7271 12.5809 -8.94804
564 1 4.71381 17.3003 14.1542 -8.94411
565 1 6.27989 15.7334 12.5903 -8.92553
566 1 7.86202 17.3001 14.1531 -8.95115
567 1 9.43882 15.726 12.5827 -9.00293
568 1 11.0094 17.3057 14.1543 -8.9571
569 1 12.5934 15.7418 12.5847 -8.94558
570 1 14.1564 17.3027 14.1547 -8.94783
571 1 15.729 15.727 12.5792 -8.95083
572 1 17.2982 17.2978 14.1521 -8.94993
573 1 18.8702 15.7249 12.5793 -8.94995
574 1 20.4415 17.2971 14.1519 -8.94971
575 1 22.0135 18.8695 12.5795 -8.94952
576 1 1.572 20.4418 14.1519 -8.94956
577 1 3.14365 18.8704 12.5798 -8.94936
578 1 4.7165 20.4424 14.1523 -8.94973
579 1 6.28829 18.872 12.5805 -8.95039
580 1 7.86197 20.4425 14.1521 -8.9494
581 1 9.43473 18.8717 12.5801 -8.94682
582 1 11.0072 20.4433 14.1523 -8.95114
583 1 12.5812 18.8737 12.5795 -8.95203
584 1 14.1527 20.4428 14.1522 -8.95016
585 1 15.7253 18.8703 12.5792 -8.94953
586 1 17.297 20.4418 14.1518 -8.94964
587 1 18.8694 18.8695 12.5794 -8.94944
588 1 20.4415 20.4416 14.1518 -8.94957
589 1 1.56906 11.007 17.2985 -8.94904
590 1 4.70806 11.007 17.3056 -8.94242
591 1 7.85746 11.007 17.2943 -9.00176
592 1 11.0047 11.007 17.2952 -8.94238
593 1 14.1546 11.007 17.3008 -8.94634
594 1 17.2979 11.007 17.2979 -8.94942
595 1 20.4411 11.007 17.2972 -8.94982
596 1 22.0121 12.5796 15.7247 -8.95148
597 1 1.56913 14.1533 17.2983 -8.95064
598 1 3.13539 12.5815 15.7277 -8.95746
599 1 4.70579 14.1624 17.3079 -8.93047
600 1 6.25042 12.6108 15.7598 -8.85537
601 1 7.86163 14.1557 17.3053 -8.95308
602 1 9.44864 12.6004 15.7312 -8.90851
603 1 11.0118 14.1576 17.3075 -8.95372
604 1 12.5842 12.5777 15.7316 -8.96153
605 1 14.1545 14.1527 17.3004 -8.95307
606 1 15.7279 12.5796 15.7272 -8.94815
607 1 17.2979 14.1521 17.2977 -8.9495
608 1 18.87 12.5795 15.725 -8.94956
609 1 20.4411 14.1521 17.2971 -8.94999
610 1 22.0135 15.7246 15.7243 -8.94982
611 1 1.5717 17.2973 17.2969 -8.95044
612 1 3.14279 15.7254 15.7244 -8.95206
613 1 4.71454 17.3007 17.2996 -8.94986
614 1 6.28258 15.7351 15.7327 -8.95435
615 1 7.86158 17.2995 17.299 -8.9475
616 1 9.43448 15.7327 15.7301 -8.95001
617 1 11.0076 17.2996 17.2991 -8.9491
618 1 12.5911 15.7367 15.7371 -8.93031
619 1 14.1552 17.3003 17.3004 -8.94497
620 1 15.7304 15.7287 15.7287 -8.94601
621 1 17.2984 17.298 17.2979 -8.94846
622 1 18.8706 15.725 15.725 -8.95008
623 1 20.4417 17.297 17.2969 -8.94971
624 1 -0.000333591 18.8694 15.7244 -8.94944
625 1 1.57211 20.4417 17.2968 -8.94938
626 1 3.1438 18.8702 15.7248 -8.94838
627 1 4.71688 20.4423 17.2971 -8.95049
628 1 6.28916 18.8714 15.725 -8.9523
629 1 7.86187 20.4423 17.2973 -8.94951
630 1 9.43419 18.8718 15.7256 -8.95005
631 1 11.007 20.4423 17.2973 -8.94957
632 1 12.5807 18.8725 15.7259 -8.95097
633 1 14.1524 20.4424 17.2974 -8.94985
634 1 15.7257 18.8708 15.7253 -8.94915
635 1 17.2971 20.4419 17.297 -8.94949
636 1 18.8694 18.8695 15.7244 -8.94969
637 1 20.4415 20.4416 17.2967 -8.94959
638 1 1.57152 11.007 20.4422 -8.94953
639 1 4.71548 11.007 20.4444 -8.94945
640 1 7.86203 11.007 20.4425 -8.94665
641 1 11.007 11.007 20.4417 -8.94766
642 1 14.1526 11.007 20.442 -8.95016
643 1 17.2971 11.007 20.4417 -8.94953
644 1 20.4414 11.007 20.4417 -8.94957
645 1 -0.000935991 12.5796 18.8697 -8.94933
646 1 1.57157 14.1522 20.4422 -8.94934
647 1 3.14209 12.5803 18.8718 -8.94786
648 1 4.71591 14.153 20.4443 -8.95125
649 1 6.28721 12.5805 18.8765 -8.95859
650 1 7.86228 14.1526 20.4435 -8.9508
651 1 9.43413 12.5792 18.8709 -8.95097
652 1 11.0071 14.1523 20.4432 -8.95247
653 1 12.5797 12.5787 18.8709 -8.95081
654 1 14.1523 14.1519 20.4419 -8.95047
655 1 15.7253 12.5796 18.8703 -8.94887
656 1 17.2971 14.152 20.4417 -8.94935
657 1 18.8693 12.5795 18.8695 -8.94953
658 1 20.4414 14.1519 20.4417 -8.94952
659 1 22.013 15.7248 18.8697 -8.94962
660 1 1.57159 17.2974 20.4422 -8.94848
661 1 3.14161 15.7273 18.8722 -8.94487
662 1 4.71679 17.2975 20.4422 -8.94998
663 1 6.28881 15.7262 18.872 -8.95006
664 1 7.86199 17.2975 20.4422 -8.94933
665 1 9.43473 15.7263 18.8719 -8.94787
666 1 11.0071 17.2975 20.4423 -8.94918
667 1 12.5814 15.7265 18.8731 -8.9499
668 1 14.1525 17.2975 20.4425 -8.94944
669 1 15.7253 15.7249 18.8703 -8.95051
670 1 17.2971 17.297 20.4417 -8.94973
671 1 18.8693 15.7244 18.8694 -8.94974
672 1 20.4413 17.2969 20.4417 -8.94958
673 1 22.0138 18.8693 18.8692 -8.94981
674 1 1.57214 20.4418 20.4417 -8.94943
675 1 3.14396 18.8703 18.8699 -8.94937
391 1 18.8693 18.8693 22.0138 -8.94933
353 1 3.14403 12.5796 22.0145 -8.94935
359 1 12.5797 12.5794 22.0128 -8.95107
369 1 6.28937 15.7249 22.0139 -8.95033
375 1 15.7249 15.7248 22.0133 -8.94996
363 1 18.8693 12.5794 22.0138 -8.94958
365 1 -0.000224792 15.7244 22.014 -8.94957
381 1 3.14453 18.8695 22.0138 -8.94959
387 1 12.5795 18.8695 22.0139 -8.94947
