ITEM: TIMESTEP
37
ITEM: NUMBER OF ATOMS
688
ITEM: BOX BOUNDS pp pp pp
0.0000000000000000e+00 2.2013900999999997e+01
0.0000000000000000e+00 2.2013900999999997e+01
0.0000000000000000e+00 2.2013900999999997e+01
ITEM: ATOMS id type x y z c_pot
1 1 22.0139 -1.54917e-16 7.67006e-12 -8.94963
2 1 1.57242 1.57242 1.57242 -8.94963
193 1 11.0094 7.85997 11.0058 -8.91355
4 1 4.71726 1.57242 1.57242 -8.94963
175 1 18.8691 9.43453 9.43453 -8.94965
6 1 7.86211 1.57242 1.57242 -8.94963
7 1 9.43453 4.03986e-16 2.09534e-16 -8.94963
8 1 11.007 1.57242 1.57242 -8.94963
9 1 12.5794 1.75743e-16 3.25119e-11 -8.94963
10 1 14.1518 1.57242 1.57242 -8.94963
174 1 15.7243 9.43451 9.43453 -8.95017
12 1 17.2966 1.57242 1.57242 -8.94963
191 1 4.71716 7.86205 11.0069 -8.94956
14 1 20.4415 1.57242 1.57242 -8.94963
15 1 22.0139 3.14484 1.93682e-10 -8.94963
16 1 1.57242 4.71726 1.57242 -8.94963
190 1 1.57242 7.86211 11.0069 -8.94965
18 1 4.71726 4.71726 1.57242 -8.94963
173 1 12.5825 9.43204 9.43449 -8.91181
20 1 7.86211 4.71726 1.57242 -8.94963
21 1 9.43453 3.14484 2.99393e-16 -8.94963
22 1 11.007 4.71726 1.57242 -8.94963
188 1 17.2966 4.71726 11.007 -8.94964
24 1 14.1518 4.71726 1.57242 -8.94963
172 1 9.39438 9.35044 9.43412 -7.95196
26 1 17.2966 4.71726 1.57242 -8.94963
171 1 6.28684 9.43258 9.43281 -8.93048
28 1 20.4415 4.71726 1.57242 -8.94963
186 1 11.007 4.71717 11.0069 -8.94947
30 1 1.57242 7.86211 1.57242 -8.94963
31 1 3.14484 6.28969 3.86579e-08 -8.94963
32 1 4.71726 7.86211 1.57242 -8.94963
170 1 3.14478 9.43451 9.43452 -8.9502
34 1 7.86211 7.86211 1.57242 -8.94963
35 1 9.43453 6.28969 5.26853e-16 -8.94963
36 1 11.007 7.86211 1.57242 -8.94964
37 1 12.5794 6.28969 1.04787e-07 -8.94963
38 1 14.1518 7.86211 1.57242 -8.94963
169 1 22.0139 9.43453 9.43453 -8.94965
40 1 17.2966 7.86211 1.57242 -8.94963
168 1 18.8691 6.28969 9.43453 -8.94963
42 1 20.4415 7.86211 1.57242 -8.94963
167 1 15.7242 6.28969 9.43453 -8.9497
166 1 12.5794 6.28962 9.43448 -8.95001
45 1 6.28969 9.43453 1.17477e-06 -8.94964
46 1 9.43453 9.43453 1.19432e-16 -8.94964
165 1 9.43449 6.28754 9.43458 -8.9667
48 1 15.7242 9.43453 6.97878e-08 -8.94963
184 1 4.71727 4.71727 11.0069 -8.94973
50 1 22.0139 -7.37321e-17 3.14484 -8.94963
51 1 1.57242 1.57242 4.71726 -8.94963
52 1 3.14484 -6.76054e-17 3.14484 -8.94963
53 1 4.71726 1.57242 4.71726 -8.94963
54 1 6.28969 3.58159e-16 3.14484 -8.94963
55 1 7.86211 1.57242 4.71726 -8.94963
56 1 9.43453 2.43627e-16 3.14484 -8.94963
57 1 11.007 1.57242 4.71726 -8.94963
58 1 12.5794 7.09226e-17 3.14484 -8.94963
59 1 14.1518 1.57242 4.71726 -8.94963
60 1 15.7242 1.31944e-16 3.14484 -8.94963
61 1 17.2966 1.57242 4.71726 -8.94963
62 1 18.8691 9.21113e-17 3.14484 -8.94963
63 1 20.4415 1.57242 4.71726 -8.94963
64 1 22.0139 3.14484 3.14484 -8.94963
65 1 1.57242 4.71726 4.71726 -8.94963
66 1 3.14484 3.14484 3.14484 -8.94963
67 1 4.71726 4.71726 4.71726 -8.94961
68 1 6.28969 3.14484 3.14484 -8.94963
69 1 7.86211 4.71727 4.71727 -8.9497
70 1 9.43453 3.14484 3.14484 -8.94963
71 1 11.0069 4.71727 4.71727 -8.94965
72 1 12.5794 3.14484 3.14484 -8.94963
73 1 14.1518 4.71726 4.71726 -8.94963
74 1 15.7242 3.14484 3.14484 -8.94963
75 1 17.2966 4.71726 4.71726 -8.94963
76 1 18.8691 3.14484 3.14484 -8.94963
77 1 20.4415 4.71726 4.71726 -8.94963
78 1 22.0139 6.28969 3.14484 -8.94963
79 1 1.57242 7.86211 4.71726 -8.94963
80 1 3.14484 6.28969 3.14484 -8.94963
81 1 4.71726 7.86211 4.71726 -8.94965
82 1 6.28969 6.28969 3.14484 -8.94963
83 1 7.86209 7.86209 4.71722 -8.94987
84 1 9.43453 6.28969 3.14484 -8.94965
85 1 11.0069 7.86215 4.7173 -8.95087
86 1 12.5794 6.28969 3.14485 -8.9497
87 1 14.1518 7.86206 4.71722 -8.94882
88 1 15.7242 6.28969 3.14484 -8.94961
89 1 17.2966 7.86211 4.71726 -8.94964
90 1 18.8691 6.28969 3.14484 -8.94963
91 1 20.4415 7.86211 4.71726 -8.94963
92 1 -7.36256e-10 9.43453 3.14484 -8.94963
93 1 3.14484 9.43453 3.14484 -8.94964
94 1 6.28969 9.43453 3.14484 -8.94967
95 1 9.43451 9.4345 3.14481 -8.94938
96 1 12.5794 9.4345 3.14479 -8.94972
97 1 15.7242 9.43453 3.14485 -8.9497
98 1 18.8691 9.43453 3.14484 -8.94963
99 1 22.0139 1.74383e-16 6.28969 -8.94963
100 1 1.57242 1.57242 7.86211 -8.94963
101 1 3.14484 -8.32222e-17 6.28969 -8.94963
102 1 4.71726 1.57242 7.86211 -8.94963
103 1 6.28969 2.40134e-16 6.28969 -8.94963
104 1 7.86211 1.57242 7.86211 -8.94964
105 1 9.43453 4.31534e-16 6.28969 -8.94963
106 1 11.007 1.57242 7.86211 -8.94964
107 1 12.5794 2.15225e-16 6.28969 -8.94963
108 1 14.1518 1.57242 7.86211 -8.94963
109 1 15.7242 3.3017e-16 6.28969 -8.94963
110 1 17.2966 1.57242 7.86211 -8.94963
111 1 18.8691 2.12981e-16 6.28969 -8.94963
112 1 20.4415 1.57242 7.86211 -8.94963
113 1 2.09638e-09 3.14484 6.28969 -8.94963
114 1 1.57242 4.71726 7.86211 -8.94963
115 1 3.14484 3.14484 6.28969 -8.94963
116 1 4.71727 4.71727 7.86211 -8.9497
117 1 6.28969 3.14484 6.28969 -8.94963
118 1 7.86208 4.71721 7.86208 -8.94974
119 1 9.43453 3.14484 6.28969 -8.94964
120 1 11.007 4.71723 7.86209 -8.94945
121 1 12.5794 3.14484 6.28969 -8.94963
122 1 14.1518 4.71726 7.86211 -8.94964
123 1 15.7242 3.14484 6.28969 -8.94963
124 1 17.2966 4.71726 7.86211 -8.94964
125 1 18.8691 3.14484 6.28969 -8.94963
126 1 20.4415 4.71726 7.86211 -8.94963
127 1 22.0139 6.28969 6.28969 -8.94963
128 1 1.57242 7.86211 7.86211 -8.94964
129 1 3.14484 6.28968 6.28968 -8.94961
130 1 4.71717 7.86205 7.86205 -8.94913
131 1 6.28964 6.28964 6.28964 -8.94889
132 1 7.86032 7.86045 7.86034 -8.92293
133 1 9.43454 6.28972 6.28973 -8.95089
134 1 11.0076 7.86166 7.86137 -8.94146
135 1 12.5794 6.28964 6.28967 -8.94986
136 1 14.1518 7.86206 7.86205 -8.94926
137 1 15.7242 6.28969 6.28968 -8.94966
138 1 17.2966 7.86211 7.86211 -8.94964
139 1 18.8691 6.28969 6.28969 -8.94963
140 1 20.4415 7.86211 7.86211 -8.94963
141 1 22.0139 9.43453 6.28969 -8.94963
142 1 3.14484 9.43453 6.28969 -8.9497
143 1 6.2896 9.43445 6.28958 -8.94931
144 1 9.43391 9.43382 6.28922 -8.94103
145 1 12.5812 9.43273 6.28798 -8.92181
146 1 15.7243 9.43452 6.28968 -8.94995
147 1 18.8691 9.43453 6.28969 -8.94964
148 1 3.6439e-10 3.77587e-16 9.43453 -8.94963
149 1 3.14484 3.35847e-16 9.43453 -8.94963
150 1 6.28969 3.83076e-16 9.43453 -8.94963
151 1 9.43453 9.2068e-17 9.43453 -8.94965
152 1 12.5794 6.23524e-16 9.43453 -8.94963
153 1 15.7242 3.87083e-16 9.43453 -8.94963
154 1 18.8691 1.71206e-16 9.43453 -8.94963
155 1 4.00875e-10 3.14484 9.43453 -8.94963
156 1 3.14484 3.14484 9.43453 -8.94963
157 1 6.28969 3.14484 9.43453 -8.94963
158 1 9.43453 3.1448 9.43453 -8.95021
159 1 12.5794 3.14484 9.43453 -8.94965
160 1 15.7242 3.14484 9.43453 -8.94963
161 1 18.8691 3.14484 9.43453 -8.94963
162 1 22.0139 6.28969 9.43453 -8.94963
163 1 3.14484 6.28969 9.43453 -8.94965
164 1 6.28972 6.28968 9.43451 -8.95156
177 1 4.71726 1.57242 11.007 -8.94963
178 1 7.86211 1.57242 11.007 -8.94964
181 1 17.2966 1.57242 11.007 -8.94963
11 1 15.7242 3.40469e-16 2.78529e-11 -8.94963
19 1 6.28969 3.14484 5.49847e-09 -8.94963
25 1 15.7242 3.14484 1.74938e-09 -8.94963
43 1 22.0139 9.43453 4.07886e-09 -8.94963
41 1 18.8691 6.28969 1.27315e-09 -8.94963
176 1 1.57242 1.57242 11.007 -8.94963
343 1 18.8691 9.43453 18.8691 -8.94963
342 1 15.7242 9.43453 18.8691 -8.94964
179 1 11.007 1.57242 11.007 -8.94964
180 1 14.1518 1.57242 11.007 -8.94963
341 1 12.5794 9.43453 18.8691 -8.94967
182 1 20.4415 1.57242 11.007 -8.94963
183 1 1.57242 4.71726 11.007 -8.94964
340 1 9.43455 9.4345 18.8691 -8.94938
185 1 7.86206 4.71717 11.007 -8.94947
339 1 6.28966 9.4345 18.8691 -8.94972
187 1 14.1518 4.71727 11.007 -8.94973
338 1 3.14485 9.43453 18.8691 -8.9497
189 1 20.4415 4.71726 11.007 -8.94963
337 1 4.78311e-08 9.43453 18.8691 -8.94963
336 1 20.4415 7.86211 20.4415 -8.94963
192 1 7.85968 7.85997 11.0081 -8.91355
335 1 18.8691 6.28969 18.8691 -8.94963
194 1 14.1519 7.86205 11.007 -8.94956
195 1 17.2966 7.86211 11.007 -8.94965
196 1 20.4415 7.86211 11.007 -8.94963
197 1 -8.22344e-11 1.37326e-16 12.5794 -8.94963
198 1 1.57242 1.57242 14.1518 -8.94963
199 1 3.14484 3.5475e-16 12.5794 -8.94963
200 1 4.71726 1.57242 14.1518 -8.94963
201 1 6.28969 6.58271e-16 12.5794 -8.94963
202 1 7.86211 1.57242 14.1518 -8.94964
203 1 9.43453 6.35632e-17 12.5794 -8.94965
204 1 11.007 1.57242 14.1518 -8.94964
205 1 12.5794 3.9098e-16 12.5794 -8.94963
206 1 14.1518 1.57242 14.1518 -8.94963
207 1 15.7242 3.4456e-16 12.5794 -8.94963
208 1 17.2966 1.57242 14.1518 -8.94963
209 1 18.8691 3.84144e-16 12.5794 -8.94963
210 1 20.4415 1.57242 14.1518 -8.94963
211 1 22.0139 3.14484 12.5794 -8.94963
212 1 1.57242 4.71726 14.1518 -8.94964
213 1 3.14484 3.14484 12.5794 -8.94963
214 1 4.71726 4.71726 14.1518 -8.94964
215 1 6.28969 3.14484 12.5794 -8.94965
216 1 7.86208 4.71723 14.1518 -8.94945
217 1 9.43453 3.1448 12.5794 -8.95021
218 1 11.007 4.71721 14.1518 -8.94974
219 1 12.5794 3.14484 12.5794 -8.94963
220 1 14.1518 4.71727 14.1518 -8.9497
221 1 15.7242 3.14484 12.5794 -8.94963
222 1 17.2966 4.71726 14.1518 -8.94963
223 1 18.8691 3.14484 12.5794 -8.94963
224 1 20.4415 4.71726 14.1518 -8.94963
225 1 1.01333e-07 6.28969 12.5794 -8.94963
226 1 1.57242 7.86211 14.1518 -8.94964
227 1 3.14485 6.28969 12.5794 -8.9497
228 1 4.71721 7.86206 14.1518 -8.94926
229 1 6.28967 6.28962 12.5794 -8.95001
230 1 7.86145 7.86166 14.1525 -8.94146
231 1 9.43457 6.28754 12.5793 -8.9667
232 1 11.0087 7.86045 14.1536 -8.92293
233 1 12.5793 6.28968 12.5794 -8.95156
234 1 14.1519 7.86205 14.1519 -8.94913
235 1 15.7242 6.28969 12.5794 -8.94965
236 1 17.2966 7.86211 14.1518 -8.94964
237 1 18.8691 6.28969 12.5794 -8.94963
238 1 20.4415 7.86211 14.1518 -8.94963
239 1 22.0139 9.43453 12.5794 -8.94965
240 1 3.14475 9.43451 12.5794 -8.95017
241 1 6.28652 9.43204 12.5794 -8.91181
242 1 9.47468 9.35044 12.5798 -7.95196
243 1 12.5822 9.43258 12.5811 -8.93048
244 1 15.7243 9.43451 12.5794 -8.9502
245 1 18.8691 9.43453 12.5794 -8.94965
246 1 8.41755e-11 1.82016e-16 15.7242 -8.94963
247 1 1.57242 1.57242 17.2966 -8.94963
248 1 3.14484 4.05386e-16 15.7242 -8.94963
249 1 4.71726 1.57242 17.2966 -8.94963
250 1 6.28969 2.46428e-16 15.7242 -8.94963
251 1 7.86211 1.57242 17.2966 -8.94963
252 1 9.43453 4.33028e-16 15.7242 -8.94963
253 1 11.007 1.57242 17.2966 -8.94963
254 1 12.5794 2.42125e-16 15.7242 -8.94963
255 1 14.1518 1.57242 17.2966 -8.94963
256 1 15.7242 -9.94543e-17 15.7242 -8.94963
257 1 17.2966 1.57242 17.2966 -8.94963
258 1 18.8691 1.973e-16 15.7242 -8.94963
259 1 20.4415 1.57242 17.2966 -8.94963
260 1 6.73294e-10 3.14484 15.7242 -8.94963
261 1 1.57242 4.71726 17.2966 -8.94963
262 1 3.14484 3.14484 15.7242 -8.94963
263 1 4.71726 4.71726 17.2966 -8.94963
264 1 6.28969 3.14484 15.7242 -8.94963
265 1 7.86211 4.71727 17.2966 -8.94965
266 1 9.43453 3.14484 15.7242 -8.94964
267 1 11.0069 4.71727 17.2966 -8.9497
268 1 12.5794 3.14484 15.7242 -8.94963
269 1 14.1518 4.71726 17.2966 -8.94961
270 1 15.7242 3.14484 15.7242 -8.94963
271 1 17.2966 4.71726 17.2966 -8.94963
272 1 18.8691 3.14484 15.7242 -8.94963
273 1 20.4415 4.71726 17.2966 -8.94963
274 1 22.0139 6.28969 15.7242 -8.94963
275 1 1.57242 7.86211 17.2966 -8.94964
276 1 3.14484 6.28969 15.7242 -8.94966
277 1 4.71722 7.86206 17.2967 -8.94882
278 1 6.28967 6.28964 15.7242 -8.94986
279 1 7.86212 7.86215 17.2966 -8.95087
280 1 9.43452 6.28972 15.7242 -8.95089
281 1 11.007 7.86209 17.2967 -8.94987
282 1 12.5794 6.28964 15.7243 -8.94889
283 1 14.1518 7.86211 17.2966 -8.94965
284 1 15.7242 6.28968 15.7242 -8.94961
285 1 17.2966 7.86211 17.2966 -8.94963
286 1 18.8691 6.28969 15.7242 -8.94963
287 1 20.4415 7.86211 17.2966 -8.94963
288 1 22.0139 9.43453 15.7242 -8.94964
289 1 3.1448 9.43452 15.7242 -8.94995
290 1 6.28789 9.43273 15.7259 -8.92181
291 1 9.43515 9.43382 15.7247 -8.94103
292 1 12.5795 9.43445 15.7243 -8.94931
293 1 15.7242 9.43453 15.7242 -8.9497
294 1 18.8691 9.43453 15.7242 -8.94963
295 1 22.0139 9.91968e-17 18.8691 -8.94963
296 1 1.57242 1.57242 20.4415 -8.94963
297 1 3.14484 1.3583e-16 18.8691 -8.94963
298 1 4.71726 1.57242 20.4415 -8.94963
299 1 6.28969 6.79797e-17 18.8691 -8.94963
300 1 7.86211 1.57242 20.4415 -8.94963
301 1 9.43453 2.53024e-16 18.8691 -8.94963
302 1 11.007 1.57242 20.4415 -8.94963
303 1 12.5794 3.91797e-16 18.8691 -8.94963
304 1 14.1518 1.57242 20.4415 -8.94963
305 1 15.7242 -7.18764e-17 18.8691 -8.94963
306 1 17.2966 1.57242 20.4415 -8.94963
307 1 18.8691 -6.05242e-17 18.8691 -8.94963
308 1 20.4415 1.57242 20.4415 -8.94963
309 1 22.0139 3.14484 18.8691 -8.94963
310 1 1.57242 4.71726 20.4415 -8.94963
311 1 3.14484 3.14484 18.8691 -8.94963
312 1 4.71726 4.71726 20.4415 -8.94963
313 1 6.28969 3.14484 18.8691 -8.94963
314 1 7.86211 4.71726 20.4415 -8.94963
315 1 9.43453 3.14484 18.8691 -8.94963
316 1 11.007 4.71726 20.4415 -8.94963
317 1 12.5794 3.14484 18.8691 -8.94963
318 1 14.1518 4.71726 20.4415 -8.94963
319 1 15.7242 3.14484 18.8691 -8.94963
320 1 17.2966 4.71726 20.4415 -8.94963
321 1 18.8691 3.14484 18.8691 -8.94963
322 1 20.4415 4.71726 20.4415 -8.94963
323 1 22.0139 6.28969 18.8691 -8.94963
324 1 1.57242 7.86211 20.4415 -8.94963
325 1 3.14484 6.28969 18.8691 -8.94961
326 1 4.71726 7.86211 20.4415 -8.94963
327 1 6.28969 6.28969 18.8691 -8.9497
328 1 7.86211 7.86211 20.4415 -8.94964
329 1 9.43453 6.28969 18.8691 -8.94965
330 1 11.007 7.86211 20.4415 -8.94963
331 1 12.5794 6.28969 18.8691 -8.94963
332 1 14.1518 7.86211 20.4415 -8.94963
333 1 15.7242 6.28969 18.8691 -8.94963
334 1 17.2966 7.86211 20.4415 -8.94963
5 1 6.28969 1.82694e-16 22.0139 -8.94963
47 1 12.5794 9.43453 22.0139 -8.94964
44 1 3.14484 9.43453 22.0139 -8.94963
39 1 15.7242 6.28969 22.0139 -8.94963
27 1 18.8691 3.14484 22.0139 -8.94963
33 1 6.28969 6.28969 22.0139 -8.94963
3 1 3.14484 3.32931e-16 22.0139 -8.94963
13 1 18.8691 -1.29245e-16 22.0139 -8.94963
17 1 3.14484 3.14484 22.0139 -8.94963
23 1 12.5794 3.14484 22.0139 -8.94963
29 1 1.23924e-09 6.28969 22.0139 -8.94963
49 1 18.8691 9.43453 22.0139 -8.94963
344 1 1.57242 11.007 1.57242 -8.94963
345 1 4.71726 11.007 1.57242 -8.94963
346 1 7.86211 11.007 1.57242 -8.94968
347 1 11.007 11.007 1.57238 -8.9502
348 1 14.1518 11.007 1.57242 -8.94963
349 1 17.2966 11.007 1.57242 -8.94963
350 1 20.4415 11.007 1.57242 -8.94963
688 3 10.2206 11.007 9.43447 3.79758
352 1 1.57242 14.1518 1.57242 -8.94963
511 1 18.8691 18.8691 9.43453 -8.94963
354 1 4.71726 14.1518 1.57242 -8.94963
355 1 6.28969 12.5794 1.17477e-06 -8.94964
356 1 7.86211 14.1518 1.57242 -8.94963
357 1 9.43453 12.5794 1.18066e-16 -8.94964
358 1 11.007 14.1518 1.57242 -8.94964
510 1 15.7242 18.8691 9.43453 -8.94963
360 1 14.1518 14.1518 1.57242 -8.94963
361 1 15.7242 12.5794 6.97878e-08 -8.94963
362 1 17.2966 14.1518 1.57242 -8.94963
538 1 17.2966 20.4415 11.007 -8.94963
364 1 20.4415 14.1518 1.57242 -8.94963
535 1 7.86211 20.4415 11.007 -8.94964
366 1 1.57242 17.2966 1.57242 -8.94963
367 1 3.14484 15.7242 3.86579e-08 -8.94963
368 1 4.71726 17.2966 1.57242 -8.94963
509 1 12.5794 18.8691 9.43453 -8.94965
370 1 7.86211 17.2966 1.57242 -8.94963
371 1 9.43453 15.7242 5.32465e-16 -8.94963
372 1 11.007 17.2966 1.57242 -8.94963
373 1 12.5794 15.7242 1.04787e-07 -8.94963
374 1 14.1518 17.2966 1.57242 -8.94963
508 1 9.43453 18.8691 9.43453 -8.95021
376 1 17.2966 17.2966 1.57242 -8.94963
507 1 6.28969 18.8691 9.43453 -8.94963
378 1 20.4415 17.2966 1.57242 -8.94963
379 1 22.0139 18.8691 1.93682e-10 -8.94963
380 1 1.57242 20.4415 1.57242 -8.94963
534 1 4.71726 20.4415 11.007 -8.94963
382 1 4.71726 20.4415 1.57242 -8.94963
506 1 3.14484 18.8691 9.43453 -8.94963
384 1 7.86211 20.4415 1.57242 -8.94963
385 1 9.43453 18.8691 2.76424e-16 -8.94963
386 1 11.007 20.4415 1.57242 -8.94963
531 1 17.2966 17.2966 11.007 -8.94964
388 1 14.1518 20.4415 1.57242 -8.94963
505 1 4.00875e-10 18.8691 9.43453 -8.94963
390 1 17.2966 20.4415 1.57242 -8.94963
504 1 18.8691 15.7242 9.43453 -8.94963
392 1 20.4415 20.4415 1.57242 -8.94963
393 1 1.57242 11.007 4.71726 -8.94963
394 1 4.71727 11.007 4.71727 -8.9497
395 1 7.86214 11.007 4.7172 -8.95138
396 1 11.007 11.007 4.71509 -8.9656
397 1 14.1517 11.007 4.71731 -8.95134
398 1 17.2966 11.007 4.71726 -8.94962
399 1 20.4415 11.007 4.71726 -8.94963
400 1 -7.36256e-10 12.5794 3.14484 -8.94963
401 1 1.57242 14.1518 4.71726 -8.94963
402 1 3.14484 12.5794 3.14484 -8.94964
403 1 4.71726 14.1518 4.71726 -8.94965
404 1 6.28969 12.5794 3.14484 -8.94967
405 1 7.86209 14.1518 4.71722 -8.94987
406 1 9.43451 12.5794 3.14481 -8.94938
407 1 11.0069 14.1517 4.7173 -8.95087
408 1 12.5794 12.5794 3.14479 -8.94972
409 1 14.1518 14.1518 4.71722 -8.94882
410 1 15.7242 12.5794 3.14485 -8.9497
411 1 17.2966 14.1518 4.71726 -8.94964
412 1 18.8691 12.5794 3.14484 -8.94963
413 1 20.4415 14.1518 4.71726 -8.94963
414 1 22.0139 15.7242 3.14484 -8.94963
415 1 1.57242 17.2966 4.71726 -8.94963
416 1 3.14484 15.7242 3.14484 -8.94963
417 1 4.71726 17.2966 4.71726 -8.94961
418 1 6.28969 15.7242 3.14484 -8.94963
419 1 7.86211 17.2966 4.71727 -8.9497
420 1 9.43453 15.7242 3.14484 -8.94965
421 1 11.0069 17.2966 4.71727 -8.94965
422 1 12.5794 15.7242 3.14485 -8.9497
423 1 14.1518 17.2966 4.71726 -8.94963
424 1 15.7242 15.7242 3.14484 -8.94961
425 1 17.2966 17.2966 4.71726 -8.94963
426 1 18.8691 15.7242 3.14484 -8.94963
427 1 20.4415 17.2966 4.71726 -8.94963
428 1 22.0139 18.8691 3.14484 -8.94963
429 1 1.57242 20.4415 4.71726 -8.94963
430 1 3.14484 18.8691 3.14484 -8.94963
431 1 4.71726 20.4415 4.71726 -8.94963
432 1 6.28969 18.8691 3.14484 -8.94963
433 1 7.86211 20.4415 4.71726 -8.94963
434 1 9.43453 18.8691 3.14484 -8.94963
435 1 11.007 20.4415 4.71726 -8.94963
436 1 12.5794 18.8691 3.14484 -8.94963
437 1 14.1518 20.4415 4.71726 -8.94963
438 1 15.7242 18.8691 3.14484 -8.94963
439 1 17.2966 20.4415 4.71726 -8.94963
440 1 18.8691 18.8691 3.14484 -8.94963
441 1 20.4415 20.4415 4.71726 -8.94963
442 1 1.57242 11.007 7.86211 -8.94964
443 1 4.71722 11.007 7.86213 -8.95189
444 1 7.85894 11.007 7.85748 -8.92878
445 1 11.0477 11.007 7.77866 -7.95835
446 1 14.1529 11.007 7.86197 -8.95833
447 1 17.2967 11.007 7.86211 -8.9499
448 1 20.4415 11.007 7.86211 -8.94964
449 1 22.0139 12.5794 6.28969 -8.94963
450 1 1.57242 14.1518 7.86211 -8.94964
451 1 3.14484 12.5794 6.28969 -8.9497
452 1 4.71717 14.1519 7.86205 -8.94913
453 1 6.2896 12.5795 6.28958 -8.94931
454 1 7.86032 14.1535 7.86034 -8.92293
455 1 9.43391 12.5801 6.28922 -8.94103
456 1 11.0076 14.1522 7.86137 -8.94146
457 1 12.5812 12.5812 6.28798 -8.92181
458 1 14.1518 14.1518 7.86205 -8.94926
459 1 15.7243 12.5794 6.28968 -8.94995
460 1 17.2966 14.1518 7.86211 -8.94964
461 1 18.8691 12.5794 6.28969 -8.94964
462 1 20.4415 14.1518 7.86211 -8.94963
463 1 22.0139 15.7242 6.28969 -8.94963
464 1 1.57242 17.2966 7.86211 -8.94963
465 1 3.14484 15.7242 6.28968 -8.94961
466 1 4.71727 17.2966 7.86211 -8.9497
467 1 6.28964 15.7243 6.28964 -8.94889
468 1 7.86208 17.2967 7.86208 -8.94974
469 1 9.43454 15.7242 6.28973 -8.95089
470 1 11.007 17.2967 7.86209 -8.94945
471 1 12.5794 15.7243 6.28967 -8.94986
472 1 14.1518 17.2966 7.86211 -8.94964
473 1 15.7242 15.7242 6.28968 -8.94966
474 1 17.2966 17.2966 7.86211 -8.94964
475 1 18.8691 15.7242 6.28969 -8.94963
476 1 20.4415 17.2966 7.86211 -8.94963
477 1 2.09638e-09 18.8691 6.28969 -8.94963
478 1 1.57242 20.4415 7.86211 -8.94963
479 1 3.14484 18.8691 6.28969 -8.94963
480 1 4.71726 20.4415 7.86211 -8.94963
481 1 6.28969 18.8691 6.28969 -8.94963
482 1 7.86211 20.4415 7.86211 -8.94964
483 1 9.43453 18.8691 6.28969 -8.94964
484 1 11.007 20.4415 7.86211 -8.94964
485 1 12.5794 18.8691 6.28969 -8.94963
486 1 14.1518 20.4415 7.86211 -8.94963
487 1 15.7242 18.8691 6.28969 -8.94963
488 1 17.2966 20.4415 7.86211 -8.94963
489 1 18.8691 18.8691 6.28969 -8.94963
490 1 20.4415 20.4415 7.86211 -8.94963
491 1 22.0139 12.5794 9.43453 -8.94965
492 1 3.14478 12.5794 9.43452 -8.9502
493 1 6.28684 12.5813 9.43281 -8.93048
494 1 9.39438 12.6635 9.43412 -7.95196
495 1 12.5825 12.5819 9.43449 -8.91181
496 1 15.7243 12.5794 9.43453 -8.95017
497 1 18.8691 12.5794 9.43453 -8.94965
498 1 22.0139 15.7242 9.43453 -8.94963
499 1 3.14484 15.7242 9.43453 -8.94965
500 1 6.28972 15.7242 9.43451 -8.95156
501 1 9.43449 15.7264 9.43458 -8.9667
502 1 12.5794 15.7243 9.43448 -8.95001
503 1 15.7242 15.7242 9.43453 -8.9497
512 1 1.5724 11.007 11.007 -8.94992
513 1 4.71609 11.007 11.0068 -8.95866
514 1 7.81784 11.007 10.9257 -7.91486
519 1 1.57242 14.1518 11.0069 -8.94965
520 1 4.71716 14.1519 11.0069 -8.94956
522 1 11.0094 14.1539 11.0058 -8.91355
527 1 4.71727 17.2966 11.0069 -8.94973
529 1 11.007 17.2967 11.0069 -8.94947
351 1 22.0139 12.5794 4.07886e-09 -8.94963
377 1 18.8691 15.7242 1.27315e-09 -8.94963
389 1 15.7242 18.8691 1.74938e-09 -8.94963
383 1 6.28969 18.8691 5.49847e-09 -8.94963
687 3 8.64848 11.007 12.5794 3.79758
686 1 20.4415 20.4415 20.4415 -8.94963
685 1 18.8691 18.8691 18.8691 -8.94963
515 1 11.0512 11.007 11.0882 -7.91486
516 1 14.153 11.007 11.0071 -8.95866
517 1 17.2967 11.007 11.007 -8.94992
518 1 20.4415 11.007 11.007 -8.94964
684 1 17.2966 20.4415 20.4415 -8.94963
683 1 15.7242 18.8691 18.8691 -8.94963
521 1 7.85968 14.1539 11.0081 -8.91355
682 1 14.1518 20.4415 20.4415 -8.94963
523 1 14.1519 14.1519 11.007 -8.94956
524 1 17.2966 14.1518 11.007 -8.94965
525 1 20.4415 14.1518 11.007 -8.94963
526 1 1.57242 17.2966 11.007 -8.94964
681 1 12.5794 18.8691 18.8691 -8.94963
528 1 7.86206 17.2967 11.007 -8.94947
680 1 11.007 20.4415 20.4415 -8.94963
530 1 14.1518 17.2966 11.007 -8.94973
679 1 9.43453 18.8691 18.8691 -8.94963
532 1 20.4415 17.2966 11.007 -8.94963
533 1 1.57242 20.4415 11.007 -8.94963
678 1 7.86211 20.4415 20.4415 -8.94963
677 1 6.28969 18.8691 18.8691 -8.94963
536 1 11.007 20.4415 11.007 -8.94964
537 1 14.1518 20.4415 11.007 -8.94963
676 1 4.71726 20.4415 20.4415 -8.94963
539 1 20.4415 20.4415 11.007 -8.94963
540 1 1.5724 11.007 14.1518 -8.9499
541 1 4.71621 11.007 14.1519 -8.95833
542 1 7.82139 11.007 14.2352 -7.95835
543 1 11.0101 11.007 14.1564 -8.92878
544 1 14.1518 11.007 14.1518 -8.95189
545 1 17.2966 11.007 14.1518 -8.94964
546 1 20.4415 11.007 14.1518 -8.94964
547 1 22.0139 12.5794 12.5794 -8.94965
548 1 1.57242 14.1518 14.1518 -8.94964
549 1 3.14475 12.5794 12.5794 -8.95017
550 1 4.71721 14.1518 14.1518 -8.94926
551 1 6.28652 12.5819 12.5794 -8.91181
552 1 7.86145 14.1522 14.1525 -8.94146
553 1 9.47468 12.6635 12.5798 -7.95196
554 1 11.0087 14.1535 14.1536 -8.92293
555 1 12.5822 12.5813 12.5811 -8.93048
556 1 14.1519 14.1519 14.1519 -8.94913
557 1 15.7243 12.5794 12.5794 -8.9502
558 1 17.2966 14.1518 14.1518 -8.94964
559 1 18.8691 12.5794 12.5794 -8.94965
560 1 20.4415 14.1518 14.1518 -8.94963
561 1 1.01333e-07 15.7242 12.5794 -8.94963
562 1 1.57242 17.2966 14.1518 -8.94964
563 1 3.14485 15.7242 12.5794 -8.9497
564 1 4.71726 17.2966 14.1518 -8.94964
565 1 6.28967 15.7243 12.5794 -8.95001
566 1 7.86208 17.2967 14.1518 -8.94945
567 1 9.43457 15.7264 12.5793 -8.9667
568 1 11.007 17.2967 14.1518 -8.94974
569 1 12.5793 15.7242 12.5794 -8.95156
570 1 14.1518 17.2966 14.1518 -8.9497
571 1 15.7242 15.7242 12.5794 -8.94965
572 1 17.2966 17.2966 14.1518 -8.94963
573 1 18.8691 15.7242 12.5794 -8.94963
574 1 20.4415 17.2966 14.1518 -8.94963
575 1 22.0139 18.8691 12.5794 -8.94963
576 1 1.57242 20.4415 14.1518 -8.94963
577 1 3.14484 18.8691 12.5794 -8.94963
578 1 4.71726 20.4415 14.1518 -8.94963
579 1 6.28969 18.8691 12.5794 -8.94965
580 1 7.86211 20.4415 14.1518 -8.94964
581 1 9.43453 18.8691 12.5794 -8.95021
582 1 11.007 20.4415 14.1518 -8.94964
583 1 12.5794 18.8691 12.5794 -8.94963
584 1 14.1518 20.4415 14.1518 -8.94963
585 1 15.7242 18.8691 12.5794 -8.94963
586 1 17.2966 20.4415 14.1518 -8.94963
587 1 18.8691 18.8691 12.5794 -8.94963
588 1 20.4415 20.4415 14.1518 -8.94963
589 1 1.57242 11.007 17.2966 -8.94962
590 1 4.71731 11.007 17.2966 -8.95134
591 1 7.86208 11.007 17.2988 -8.9656
592 1 11.0069 11.007 17.2967 -8.95138
593 1 14.1518 11.007 17.2966 -8.9497
594 1 17.2966 11.007 17.2966 -8.94963
595 1 20.4415 11.007 17.2966 -8.94963
596 1 22.0139 12.5794 15.7242 -8.94964
597 1 1.57242 14.1518 17.2966 -8.94964
598 1 3.1448 12.5794 15.7242 -8.94995
599 1 4.71722 14.1518 17.2967 -8.94882
600 1 6.28789 12.5812 15.7259 -8.92181
601 1 7.86212 14.1517 17.2966 -8.95087
602 1 9.43515 12.5801 15.7247 -8.94103
603 1 11.007 14.1518 17.2967 -8.94987
604 1 12.5795 12.5795 15.7243 -8.94931
605 1 14.1518 14.1518 17.2966 -8.94965
606 1 15.7242 12.5794 15.7242 -8.9497
607 1 17.2966 14.1518 17.2966 -8.94963
608 1 18.8691 12.5794 15.7242 -8.94963
609 1 20.4415 14.1518 17.2966 -8.94963
610 1 22.0139 15.7242 15.7242 -8.94963
611 1 1.57242 17.2966 17.2966 -8.94963
612 1 3.14484 15.7242 15.7242 -8.94966
613 1 4.71726 17.2966 17.2966 -8.94963
614 1 6.28967 15.7243 15.7242 -8.94986
615 1 7.86211 17.2966 17.2966 -8.94965
616 1 9.43452 15.7242 15.7242 -8.95089
617 1 11.0069 17.2966 17.2966 -8.9497
618 1 12.5794 15.7243 15.7243 -8.94889
619 1 14.1518 17.2966 17.2966 -8.94961
620 1 15.7242 15.7242 15.7242 -8.94961
621 1 17.2966 17.2966 17.2966 -8.94963
622 1 18.8691 15.7242 15.7242 -8.94963
623 1 20.4415 17.2966 17.2966 -8.94963
624 1 6.73295e-10 18.8691 15.7242 -8.94963
625 1 1.57242 20.4415 17.2966 -8.94963
626 1 3.14484 18.8691 15.7242 -8.94963
627 1 4.71726 20.4415 17.2966 -8.94963
628 1 6.28969 18.8691 15.7242 -8.94963
629 1 7.86211 20.4415 17.2966 -8.94963
630 1 9.43453 18.8691 15.7242 -8.94964
631 1 11.007 20.4415 17.2966 -8.94963
632 1 12.5794 18.8691 15.7242 -8.94963
633 1 14.1518 20.4415 17.2966 -8.94963
634 1 15.7242 18.8691 15.7242 -8.94963
635 1 17.2966 20.4415 17.2966 -8.94963
636 1 18.8691 18.8691 15.7242 -8.94963
637 1 20.4415 20.4415 17.2966 -8.94963
638 1 1.57242 11.007 20.4415 -8.94963
639 1 4.71727 11.007 20.4415 -8.94963
640 1 7.86211 11.007 20.4415 -8.9502
641 1 11.0069 11.007 20.4415 -8.94968
642 1 14.1518 11.007 20.4415 -8.94963
643 1 17.2966 11.007 20.4415 -8.94963
644 1 20.4415 11.007 20.4415 -8.94963
645 1 4.78311e-08 12.5794 18.8691 -8.94963
646 1 1.57242 14.1518 20.4415 -8.94963
647 1 3.14485 12.5794 18.8691 -8.9497
648 1 4.71726 14.1518 20.4415 -8.94963
649 1 6.28966 12.5794 18.8691 -8.94972
650 1 7.86211 14.1518 20.4415 -8.94964
651 1 9.43455 12.5794 18.8691 -8.94938
652 1 11.007 14.1518 20.4415 -8.94963
653 1 12.5794 12.5794 18.8691 -8.94967
654 1 14.1518 14.1518 20.4415 -8.94963
655 1 15.7242 12.5794 18.8691 -8.94964
656 1 17.2966 14.1518 20.4415 -8.94963
657 1 18.8691 12.5794 18.8691 -8.94963
658 1 20.4415 14.1518 20.4415 -8.94963
659 1 22.0139 15.7242 18.8691 -8.94963
660 1 1.57242 17.2966 20.4415 -8.94963
661 1 3.14484 15.7242 18.8691 -8.94961
662 1 4.71726 17.2966 20.4415 -8.94963
663 1 6.28969 15.7242 18.8691 -8.9497
664 1 7.86211 17.2966 20.4415 -8.94963
665 1 9.43453 15.7242 18.8691 -8.94965
666 1 11.007 17.2966 20.4415 -8.94963
667 1 12.5794 15.7242 18.8691 -8.94963
668 1 14.1518 17.2966 20.4415 -8.94963
669 1 15.7242 15.7242 18.8691 -8.94963
670 1 17.2966 17.2966 20.4415 -8.94963
671 1 18.8691 15.7242 18.8691 -8.94963
672 1 20.4415 17.2966 20.4415 -8.94963
673 1 22.0139 18.8691 18.8691 -8.94963
674 1 1.57242 20.4415 20.4415 -8.94963
675 1 3.14484 18.8691 18.8691 -8.94963
391 1 18.8691 18.8691 22.0139 -8.94963
353 1 3.14484 12.5794 22.0139 -8.94963
359 1 12.5794 12.5794 22.0139 -8.94964
369 1 6.28969 15.7242 22.0139 -8.94963
375 1 15.7242 15.7242 22.0139 -8.94963
363 1 18.8691 12.5794 22.0139 -8.94963
365 1 1.23924e-09 15.7242 22.0139 -8.94963
381 1 3.14484 18.8691 22.0139 -8.94963
387 1 12.5794 18.8691 22.0139 -8.94963
