ITEM: TIMESTEP
93
ITEM: NUMBER OF ATOMS
688
ITEM: BOX BOUNDS pp pp pp
0.0000000000000000e+00 2.2013900999999997e+01
0.0000000000000000e+00 2.2013900999999997e+01
0.0000000000000000e+00 2.2013900999999997e+01
ITEM: ATOMS id type x y z c_pot
1 1 22.0136 4.39906e-16 4.61007e-05 -8.94921
2 1 1.57187 1.57201 1.57204 -8.94925
193 1 11.0642 7.81986 10.9958 -8.80622
4 1 4.7169 1.57193 1.57197 -8.94958
175 1 18.8694 9.43432 9.43429 -8.94797
6 1 7.86201 1.57191 1.57198 -8.94945
7 1 9.43453 3.2021e-16 -3.09106e-16 -8.94953
8 1 11.0071 1.57191 1.57199 -8.94948
9 1 12.5795 4.25242e-16 3.39857e-06 -8.9495
10 1 14.1521 1.57193 1.57207 -8.94947
174 1 15.723 9.43604 9.43419 -8.93968
12 1 17.2972 1.57187 1.57206 -8.94934
191 1 4.70394 7.85861 11.0117 -8.96152
14 1 20.4414 1.57216 1.57228 -8.94936
15 1 22.0135 3.14432 7.4926e-05 -8.94921
16 1 1.5716 4.71653 1.57202 -8.94975
190 1 1.56879 7.86138 11.0079 -8.95205
18 1 4.71608 4.71584 1.57095 -8.94942
173 1 12.5584 9.44812 9.43535 -8.90098
20 1 7.86182 4.71591 1.57128 -8.9491
21 1 9.43453 3.14397 -4.99104e-17 -8.94945
22 1 11.0072 4.71586 1.57134 -8.94927
188 1 17.2988 4.71561 11.0066 -8.94873
24 1 14.1527 4.71587 1.57131 -8.95005
172 1 9.36905 9.18445 9.431 -8.1179
26 1 17.2979 4.716 1.57138 -8.94834
171 1 6.24594 9.39489 9.40011 -8.88543
28 1 20.4416 4.71677 1.57209 -8.94952
186 1 11.0091 4.70857 11.0056 -8.96119
30 1 1.57162 7.86176 1.57209 -8.94925
31 1 3.14379 6.28881 0.000753858 -8.95005
32 1 4.71651 7.86189 1.57186 -8.95059
170 1 3.13327 9.4327 9.43095 -8.95841
34 1 7.86197 7.86151 1.57046 -8.95282
35 1 9.43453 6.28842 1.43534e-15 -8.94952
36 1 11.0069 7.86112 1.56997 -8.9511
37 1 12.5799 6.28869 -4.60314e-05 -8.95056
38 1 14.1536 7.86063 1.56904 -8.95137
169 1 22.0112 9.43438 9.43424 -8.95146
40 1 17.298 7.86139 1.57127 -8.94919
168 1 18.8704 6.2886 9.43421 -8.9501
42 1 20.4417 7.86181 1.57203 -8.94943
167 1 15.7296 6.28634 9.43263 -8.94799
166 1 12.5904 6.27966 9.42262 -8.92454
45 1 6.28926 9.43455 0.00124734 -8.95112
46 1 9.43453 9.43475 6.83038e-16 -8.94915
165 1 9.43027 6.28766 9.43053 -9.0033
48 1 15.7255 9.43417 -0.000812266 -8.94931
184 1 4.71323 4.71313 11.009 -8.94673
50 1 22.0135 2.36796e-17 3.14453 -8.94942
51 1 1.57155 1.57173 4.71659 -8.94938
52 1 3.1442 2.4896e-16 3.14415 -8.94952
53 1 4.71627 1.57112 4.71606 -8.94988
54 1 6.28945 -1.37236e-16 3.14417 -8.94954
55 1 7.86198 1.57123 4.71619 -8.94959
56 1 9.4346 -1.80568e-16 3.14415 -8.94952
57 1 11.0073 1.57131 4.71623 -8.94949
58 1 12.5797 7.63502e-17 3.14424 -8.94945
59 1 14.1525 1.57129 4.71654 -8.95065
60 1 15.7247 7.1121e-17 3.14438 -8.95003
61 1 17.2972 1.57194 4.71689 -8.94929
62 1 18.8693 1.06368e-15 3.14468 -8.94943
63 1 20.4414 1.57211 4.71703 -8.94952
64 1 22.0132 3.14414 3.14428 -8.94917
65 1 1.56988 4.71528 4.71536 -8.94836
66 1 3.14337 3.14335 3.14333 -8.94832
67 1 4.71282 4.7125 4.71235 -8.94471
68 1 6.28906 3.14329 3.14345 -8.94953
69 1 7.86102 4.71319 4.71388 -8.949
70 1 9.43455 3.14332 3.14356 -8.94929
71 1 11.0077 4.7136 4.71404 -8.94733
72 1 12.5799 3.14334 3.14368 -8.94903
73 1 14.1554 4.71212 4.71335 -8.9498
74 1 15.7256 3.14299 3.14352 -8.94933
75 1 17.2978 4.71619 4.71665 -8.9506
76 1 18.8693 3.1443 3.1445 -8.94983
77 1 20.4411 4.71657 4.71675 -8.94976
78 1 22.0134 6.28919 3.14418 -8.94973
79 1 1.57058 7.86153 4.7157 -8.9495
80 1 3.14311 6.28861 3.143 -8.95068
81 1 4.7137 7.86074 4.71263 -8.95338
82 1 6.28697 6.28663 3.13982 -8.94989
83 1 7.85648 7.8551 4.7053 -8.95358
84 1 9.4343 6.28692 3.14126 -8.94776
85 1 11.0079 7.85741 4.70741 -8.9533
86 1 12.5808 6.28705 3.1409 -8.95019
87 1 14.1645 7.85082 4.70478 -8.93034
88 1 15.7283 6.28583 3.14091 -8.94471
89 1 17.3007 7.86018 4.71509 -8.95068
90 1 18.8703 6.28872 3.14389 -8.94959
91 1 20.4419 7.8616 4.71648 -8.95003
92 1 -0.000429652 9.43433 3.14405 -8.94946
93 1 3.14327 9.43423 3.14313 -8.94878
94 1 6.28927 9.43522 3.14289 -8.95079
95 1 9.43514 9.43462 3.14318 -8.95113
96 1 12.5825 9.43338 3.13679 -8.95886
97 1 15.728 9.43326 3.14122 -8.94764
98 1 18.8705 9.43416 3.14376 -8.94926
99 1 22.0136 1.06753e-15 6.28952 -8.94964
100 1 1.57165 1.57184 7.86198 -8.9496
101 1 3.14386 1.12887e-15 6.28905 -8.94978
102 1 4.71586 1.57053 7.86145 -8.95033
103 1 6.28911 -6.05573e-16 6.28883 -8.95046
104 1 7.86174 1.57021 7.86144 -8.95126
105 1 9.43473 1.1724e-16 6.28885 -8.95007
106 1 11.0071 1.57117 7.86161 -8.94937
107 1 12.5797 1.77014e-15 6.28919 -8.95027
108 1 14.1529 1.57113 7.86136 -8.94976
109 1 15.725 1.58219e-15 6.28919 -8.94946
110 1 17.2974 1.57186 7.86178 -8.94946
111 1 18.8694 5.30186e-16 6.28949 -8.94952
112 1 20.4415 1.57209 7.86198 -8.9495
113 1 -0.000725296 3.14403 6.28929 -8.94967
114 1 1.57002 4.71545 7.86149 -8.95
115 1 3.14254 3.1422 6.28804 -8.94897
116 1 4.7111 4.70967 7.85832 -8.94746
117 1 6.28782 3.14043 6.28744 -8.95104
118 1 7.85898 4.70713 7.859 -8.95729
119 1 9.43482 3.14143 6.28786 -8.9502
120 1 11.0072 4.71325 7.86011 -8.95133
121 1 12.5802 3.14184 6.28849 -8.95251
122 1 14.1561 4.71287 7.85891 -8.94369
123 1 15.7258 3.14318 6.28868 -8.9482
124 1 17.2986 4.71571 7.86126 -8.94907
125 1 18.8696 3.14415 6.28931 -8.94938
126 1 20.4414 4.71643 7.86183 -8.94976
127 1 22.0118 6.28845 6.28858 -8.95017
128 1 1.56638 7.86001 7.86004 -8.95264
129 1 3.13716 6.28415 6.28421 -8.94594
130 1 4.69603 7.84766 7.84839 -8.94028
131 1 6.27629 6.2756 6.27533 -8.92992
132 1 7.82074 7.82252 7.82375 -8.85728
133 1 9.43426 6.27985 6.28263 -8.94997
134 1 11.0276 7.84985 7.83103 -8.91028
135 1 12.5878 6.27759 6.27945 -8.954
136 1 14.1567 7.86221 7.86362 -8.95512
137 1 15.7271 6.28813 6.28896 -8.95236
138 1 17.2985 7.86173 7.86242 -8.94993
139 1 18.8696 6.28905 6.28942 -8.94997
140 1 20.4407 7.86154 7.86177 -8.95037
141 1 22.0125 9.43425 6.28855 -8.94952
142 1 3.14032 9.43412 6.28601 -8.94814
143 1 6.28423 9.43596 6.282 -8.96207
144 1 9.41955 9.41171 6.28255 -8.90764
145 1 12.6195 9.40293 6.25302 -8.85528
146 1 15.7345 9.43228 6.28549 -8.95762
147 1 18.8712 9.43419 6.28895 -8.95161
148 1 -0.000348635 4.12307e-16 9.43449 -8.94952
149 1 3.14392 1.27886e-15 9.43458 -8.94942
150 1 6.28889 5.25834e-16 9.43452 -8.95103
151 1 9.43454 5.79137e-16 9.43418 -8.94896
152 1 12.58 1.36974e-15 9.43409 -8.95025
153 1 15.7252 1.9384e-15 9.4342 -8.94945
154 1 18.8694 1.29879e-15 9.43443 -8.94954
155 1 -0.000623606 3.14406 9.43449 -8.94936
156 1 3.14309 3.14302 9.43471 -8.94946
157 1 6.28718 3.13931 9.43434 -8.95237
158 1 9.43422 3.14207 9.43361 -8.94666
159 1 12.5811 3.14139 9.43304 -8.95049
160 1 15.726 3.14302 9.43383 -8.94922
161 1 18.8697 3.14404 9.43433 -8.94944
162 1 22.0123 6.28869 9.43457 -8.95012
163 1 3.13865 6.28611 9.43454 -8.95102
164 1 6.27349 6.27007 9.42828 -8.94463
177 1 4.71598 1.57105 11.0074 -8.94917
178 1 7.8619 1.57056 11.0072 -8.95118
181 1 17.2975 1.57183 11.0068 -8.94947
11 1 15.7245 3.38819e-16 3.39391e-05 -8.9496
19 1 6.28941 3.14404 -3.25161e-05 -8.94939
25 1 15.7249 3.14403 8.45029e-05 -8.94954
43 1 22.0134 9.43437 0.000158034 -8.94949
41 1 18.8695 6.28928 -0.00015502 -8.94946
176 1 1.5716 1.57183 11.0071 -8.94947
343 1 18.8695 9.43433 18.8699 -8.94946
342 1 15.7258 9.43423 18.8708 -8.94878
179 1 11.0072 1.57056 11.0067 -8.95118
180 1 14.1531 1.57105 11.0065 -8.94917
341 1 12.5798 9.43522 18.871 -8.95079
182 1 20.4415 1.57206 11.007 -8.94954
183 1 1.5703 4.71561 11.0073 -8.94873
340 1 9.43391 9.43462 18.8707 -8.95113
185 1 7.85996 4.70857 11.0083 -8.96119
339 1 6.28656 9.43338 18.8771 -8.95886
187 1 14.1558 4.71313 11.0049 -8.94673
338 1 3.14109 9.43326 18.8727 -8.94764
189 1 20.4415 4.71632 11.007 -8.94952
337 1 -0.00139408 9.43416 18.8701 -8.94926
336 1 20.4413 7.86181 20.4419 -8.94943
192 1 7.80485 7.81986 11.0181 -8.80622
335 1 18.8695 6.28919 18.8697 -8.94973
194 1 14.1651 7.85861 11.0022 -8.96152
195 1 17.3003 7.86138 11.006 -8.95205
196 1 20.4415 7.8616 11.007 -8.95019
197 1 -0.000353272 9.09265e-16 12.5795 -8.94954
198 1 1.57165 1.57186 14.1521 -8.94946
199 1 3.1439 1.74653e-15 12.5797 -8.94945
200 1 4.71615 1.57113 14.1525 -8.94976
201 1 6.28904 1.57347e-15 12.5798 -8.95025
202 1 7.86193 1.57117 14.1523 -8.94937
203 1 9.43452 1.30732e-15 12.5797 -8.94896
204 1 11.0073 1.57021 14.1525 -8.95126
205 1 12.5802 4.8923e-16 12.5794 -8.95103
206 1 14.1532 1.57053 14.1525 -8.95033
207 1 15.7251 1.01856e-15 12.5793 -8.94942
208 1 17.2974 1.57184 14.1519 -8.9496
209 1 18.8694 7.9167e-16 12.5794 -8.94952
210 1 20.4415 1.57209 14.1519 -8.9495
211 1 22.0133 3.14404 12.5796 -8.94944
212 1 1.57042 4.71571 14.1526 -8.94907
213 1 3.14307 3.14302 12.5801 -8.94922
214 1 4.71294 4.71287 14.155 -8.94369
215 1 6.28793 3.14139 12.5809 -8.95049
216 1 7.86182 4.71325 14.1538 -8.95133
217 1 9.43484 3.14207 12.5803 -8.94666
218 1 11.0101 4.70713 14.1549 -8.95729
219 1 12.5819 3.13931 12.5796 -8.95237
220 1 14.158 4.70967 14.1556 -8.94746
221 1 15.726 3.14302 12.5792 -8.94946
222 1 17.299 4.71545 14.1524 -8.95
223 1 18.8697 3.14406 12.5794 -8.94936
224 1 20.4416 4.71643 14.1521 -8.94976
225 1 -0.00136692 6.2886 12.5797 -8.9501
226 1 1.57053 7.86173 14.1515 -8.94993
227 1 3.13944 6.28634 12.5813 -8.94799
228 1 4.7124 7.86221 14.1503 -8.95512
229 1 6.27866 6.27966 12.5913 -8.92454
230 1 7.84145 7.84985 14.1829 -8.91028
231 1 9.43879 6.28766 12.5834 -9.0033
232 1 11.0483 7.82252 14.1902 -8.85728
233 1 12.5956 6.27007 12.5856 -8.94463
234 1 14.173 7.84766 14.1655 -8.94028
235 1 15.7304 6.28611 12.5794 -8.95102
236 1 17.3027 7.86001 14.1539 -8.95264
237 1 18.8706 6.28869 12.5793 -8.95012
238 1 20.4422 7.86154 14.1521 -8.95037
239 1 22.0135 9.43432 12.5796 -8.94797
240 1 3.14609 9.43604 12.5797 -8.93968
241 1 6.31061 9.44812 12.5786 -8.90098
242 1 9.5 9.18445 12.5829 -8.1179
243 1 12.6231 9.39489 12.6138 -8.88543
244 1 15.7358 9.4327 12.5829 -8.95841
245 1 18.8718 9.43438 12.5797 -8.95146
246 1 -0.000305754 1.13068e-16 15.7244 -8.94952
247 1 1.57182 1.57194 17.297 -8.94929
248 1 3.14407 1.71958e-15 15.7247 -8.94946
249 1 4.71659 1.57129 17.2974 -8.95065
250 1 6.28935 1.7152e-15 15.7247 -8.95027
251 1 7.86174 1.57131 17.2977 -8.94949
252 1 9.43433 3.50093e-16 15.725 -8.95007
253 1 11.0071 1.57123 17.2977 -8.94959
254 1 12.5799 5.4546e-17 15.7251 -8.95046
255 1 14.1528 1.57112 17.2978 -8.94988
256 1 15.7252 8.39928e-16 15.7248 -8.94978
257 1 17.2975 1.57173 17.2973 -8.94938
258 1 18.8694 1.35128e-15 15.7244 -8.94964
259 1 20.4416 1.57211 17.2969 -8.94952
260 1 -0.000532217 3.14415 15.7246 -8.94938
261 1 1.57124 4.71619 17.2972 -8.9506
262 1 3.14327 3.14318 15.7252 -8.9482
263 1 4.71362 4.71212 17.3006 -8.9498
264 1 6.28886 3.14184 15.7254 -8.95251
265 1 7.86132 4.7136 17.2999 -8.94733
266 1 9.43424 3.14143 15.726 -8.9502
267 1 11.008 4.71319 17.3 -8.949
268 1 12.5812 3.14043 15.7265 -8.95104
269 1 14.1562 4.7125 17.3015 -8.94471
270 1 15.7265 3.1422 15.7259 -8.94897
271 1 17.2992 4.71528 17.2985 -8.94836
272 1 18.8698 3.14403 15.7246 -8.94967
273 1 20.4419 4.71657 17.2971 -8.94976
274 1 22.0133 6.28905 15.7245 -8.94997
275 1 1.56832 7.86018 17.2988 -8.95068
276 1 3.14199 6.28813 15.7249 -8.95236
277 1 4.70453 7.85082 17.3091 -8.93034
278 1 6.28124 6.27759 15.7344 -8.954
279 1 7.86112 7.85741 17.3065 -8.9533
280 1 9.4348 6.27985 15.7313 -8.94997
281 1 11.0126 7.8551 17.3086 -8.95358
282 1 12.5928 6.2756 15.7386 -8.92992
283 1 14.1554 7.86074 17.3013 -8.95338
284 1 15.7319 6.28415 15.7297 -8.94594
285 1 17.2985 7.86153 17.2982 -8.9495
286 1 18.8712 6.28845 15.7253 -8.95017
287 1 20.4411 7.8616 17.2974 -8.95003
288 1 22.0118 9.43419 15.7249 -8.95161
289 1 3.13453 9.43228 15.7284 -8.95762
290 1 6.24952 9.40293 15.7609 -8.85528
291 1 9.44951 9.41171 15.7314 -8.90764
292 1 12.5848 9.43596 15.7319 -8.96207
293 1 15.7287 9.43412 15.7279 -8.94814
294 1 18.8705 9.43425 15.7254 -8.94952
295 1 22.0137 9.76188e-16 18.8692 -8.94943
296 1 1.57187 1.57187 20.4418 -8.94934
297 1 3.14433 2.0821e-16 18.8695 -8.95003
298 1 4.71696 1.57193 20.4418 -8.94947
299 1 6.28938 -4.97525e-16 18.8697 -8.94945
300 1 7.86198 1.57191 20.4419 -8.94948
301 1 9.43446 -7.39423e-17 18.8698 -8.94952
302 1 11.0071 1.57191 20.4419 -8.94945
303 1 12.5796 1.11246e-15 18.8697 -8.94954
304 1 14.1522 1.57193 20.4419 -8.94958
305 1 15.7249 1.47518e-15 18.8697 -8.94952
306 1 17.2972 1.57201 20.4419 -8.94925
307 1 18.8694 1.58372e-15 18.8694 -8.94942
308 1 20.4416 1.57216 20.4416 -8.94936
309 1 22.0136 3.1443 18.8694 -8.94983
310 1 1.57114 4.716 20.4425 -8.94834
311 1 3.14344 3.14299 18.8704 -8.94933
312 1 4.71637 4.71587 20.4426 -8.95005
313 1 6.28918 3.14334 18.8702 -8.94903
314 1 7.86186 4.71586 20.4426 -8.94927
315 1 9.4345 3.14332 18.8703 -8.94929
316 1 11.0072 4.71591 20.4426 -8.9491
317 1 12.58 3.14329 18.8705 -8.94953
318 1 14.153 4.71584 20.443 -8.94942
319 1 15.7257 3.14335 18.8706 -8.94832
320 1 17.2975 4.71653 20.4419 -8.94975
321 1 18.8698 3.14414 18.8696 -8.94917
322 1 20.4413 4.71677 20.4418 -8.94952
323 1 22.0126 6.28872 18.87 -8.94959
324 1 1.57104 7.86139 20.4426 -8.94919
325 1 3.14073 6.28583 18.873 -8.94471
326 1 4.71541 7.86063 20.4449 -8.95137
327 1 6.28823 6.28705 18.873 -8.95019
328 1 7.86216 7.86112 20.4439 -8.9511
329 1 9.43476 6.28692 18.8726 -8.94776
330 1 11.0071 7.86151 20.4434 -8.95282
331 1 12.5821 6.28663 18.8741 -8.94989
332 1 14.1525 7.86189 20.442 -8.95059
333 1 15.7259 6.28861 18.8709 -8.95068
334 1 17.2974 7.86176 20.4418 -8.94925
5 1 6.28953 -3.00574e-16 22.0139 -8.9495
47 1 12.5798 9.43455 22.0127 -8.95112
44 1 3.14357 9.43417 22.0147 -8.94931
39 1 15.7253 6.28881 22.0131 -8.95005
27 1 18.8695 3.14432 22.0138 -8.94921
33 1 6.28917 6.28869 22.0139 -8.95056
3 1 3.14456 -4.34191e-16 22.0139 -8.9496
13 1 18.8693 9.59295e-16 22.0139 -8.94921
17 1 3.14419 3.14403 22.0138 -8.94954
23 1 12.5796 3.14404 22.0139 -8.94939
29 1 -0.000436696 6.28928 22.0141 -8.94946
49 1 18.8695 9.43437 22.0137 -8.94949
344 1 1.57156 11.007 1.57204 -8.94947
345 1 4.71614 11.007 1.57182 -8.95027
346 1 7.86221 11.007 1.57243 -8.94723
347 1 11.0073 11.007 1.57159 -8.94615
348 1 14.1543 11.007 1.56887 -8.94952
349 1 17.2981 11.007 1.57123 -8.94946
350 1 20.4417 11.007 1.572 -8.94949
688 3 10.2167 11.007 9.43941 2.29239
352 1 1.57162 14.1521 1.57209 -8.94925
511 1 18.8697 18.8699 9.43433 -8.94944
354 1 4.71651 14.152 1.57186 -8.95059
355 1 6.28926 12.5794 0.00124734 -8.95112
356 1 7.86197 14.1524 1.57046 -8.95282
357 1 9.43453 12.5792 5.87922e-16 -8.94915
358 1 11.0069 14.1528 1.56997 -8.9511
510 1 15.726 18.8709 9.43383 -8.94922
360 1 14.1536 14.1533 1.56904 -8.95137
361 1 15.7255 12.5797 -0.000812266 -8.94931
362 1 17.298 14.1525 1.57127 -8.94919
538 1 17.2975 20.4421 11.0068 -8.94947
364 1 20.4417 14.1521 1.57203 -8.94943
535 1 7.8619 20.4433 11.0072 -8.95118
366 1 1.5716 17.2974 1.57202 -8.94975
367 1 3.14379 15.7251 0.000753858 -8.95005
368 1 4.71608 17.2981 1.57095 -8.94942
509 1 12.5811 18.8725 9.43304 -8.95049
370 1 7.86182 17.298 1.57128 -8.9491
371 1 9.43453 15.7255 1.06372e-15 -8.94952
372 1 11.0072 17.298 1.57134 -8.94927
373 1 12.5799 15.7252 -4.60314e-05 -8.95056
374 1 14.1527 17.298 1.57131 -8.95005
508 1 9.43422 18.8718 9.43361 -8.94666
376 1 17.2979 17.2979 1.57138 -8.94834
507 1 6.28718 18.8746 9.43434 -8.95237
378 1 20.4416 17.2971 1.57209 -8.94952
379 1 22.0135 18.8696 7.4926e-05 -8.94921
380 1 1.57187 20.4419 1.57204 -8.94925
534 1 4.71598 20.4429 11.0074 -8.94917
382 1 4.7169 20.442 1.57197 -8.94958
506 1 3.14309 18.8709 9.43471 -8.94946
384 1 7.86201 20.442 1.57198 -8.94945
385 1 9.43453 18.8699 1.46759e-16 -8.94945
386 1 11.0071 20.442 1.57199 -8.94948
531 1 17.2988 17.2983 11.0066 -8.94873
388 1 14.1521 20.442 1.57207 -8.94947
505 1 -0.000623606 18.8698 9.43449 -8.94936
390 1 17.2972 20.442 1.57206 -8.94934
504 1 18.8704 15.7253 9.43421 -8.9501
392 1 20.4414 20.4417 1.57228 -8.94936
393 1 1.57058 11.007 4.71543 -8.94939
394 1 4.7139 11.007 4.71248 -8.94622
395 1 7.86441 11.007 4.71945 -8.94154
396 1 11.0119 11.007 4.72068 -9.00214
397 1 14.1623 11.007 4.70712 -8.942
398 1 17.3009 11.007 4.71473 -8.949
399 1 20.442 11.007 4.71631 -8.94985
400 1 -0.000429652 12.5796 3.14405 -8.94946
401 1 1.57058 14.1524 4.7157 -8.9495
402 1 3.14327 12.5797 3.14313 -8.94878
403 1 4.7137 14.1532 4.71263 -8.95338
404 1 6.28927 12.5787 3.14289 -8.95079
405 1 7.85648 14.1588 4.7053 -8.95358
406 1 9.43514 12.5793 3.14318 -8.95113
407 1 11.0079 14.1565 4.70741 -8.9533
408 1 12.5825 12.5805 3.13679 -8.95886
409 1 14.1645 14.1631 4.70478 -8.93034
410 1 15.728 12.5806 3.14122 -8.94764
411 1 17.3007 14.1537 4.71509 -8.95068
412 1 18.8705 12.5797 3.14376 -8.94926
413 1 20.4419 14.1523 4.71648 -8.95003
414 1 22.0134 15.7247 3.14418 -8.94973
415 1 1.56988 17.2986 4.71536 -8.94836
416 1 3.14311 15.7253 3.143 -8.95068
417 1 4.71282 17.3014 4.71235 -8.94471
418 1 6.28697 15.7273 3.13982 -8.94989
419 1 7.86102 17.3007 4.71388 -8.949
420 1 9.4343 15.727 3.14126 -8.94776
421 1 11.0077 17.3003 4.71404 -8.94733
422 1 12.5808 15.7269 3.1409 -8.95019
423 1 14.1554 17.3018 4.71335 -8.9498
424 1 15.7283 15.7281 3.14091 -8.94471
425 1 17.2978 17.2977 4.71665 -8.9506
426 1 18.8703 15.7252 3.14389 -8.94959
427 1 20.4411 17.2973 4.71675 -8.94976
428 1 22.0132 18.8698 3.14428 -8.94917
429 1 1.57155 20.4422 4.71659 -8.94938
430 1 3.14337 18.8705 3.14333 -8.94832
431 1 4.71627 20.4428 4.71606 -8.94988
432 1 6.28906 18.8706 3.14345 -8.94953
433 1 7.86198 20.4427 4.71619 -8.94959
434 1 9.43455 18.8706 3.14356 -8.94929
435 1 11.0073 20.4426 4.71623 -8.94949
436 1 12.5799 18.8706 3.14368 -8.94903
437 1 14.1525 20.4426 4.71654 -8.95065
438 1 15.7256 18.8709 3.14352 -8.94933
439 1 17.2972 20.442 4.71689 -8.94929
440 1 18.8693 18.8696 3.1445 -8.94983
441 1 20.4414 20.4418 4.71703 -8.94952
442 1 1.56823 11.007 7.85973 -8.94698
443 1 4.71068 11.007 7.85417 -8.93468
444 1 7.87956 11.007 7.87884 -8.94416
445 1 11.0825 11.007 7.63567 -8.11906
446 1 14.1605 11.007 7.85389 -8.97106
447 1 17.2995 11.007 7.86185 -8.95093
448 1 20.4411 11.007 7.86165 -8.94972
449 1 22.0125 12.5797 6.28855 -8.94952
450 1 1.56638 14.1539 7.86004 -8.95264
451 1 3.14032 12.5798 6.28601 -8.94814
452 1 4.69603 14.1662 7.84839 -8.94028
453 1 6.28423 12.5779 6.282 -8.96207
454 1 7.82074 14.1914 7.82375 -8.85728
455 1 9.41955 12.6022 6.28255 -8.90764
456 1 11.0276 14.1641 7.83103 -8.91028
457 1 12.6195 12.611 6.25302 -8.85528
458 1 14.1567 14.1517 7.86362 -8.95512
459 1 15.7345 12.5816 6.28549 -8.95762
460 1 17.2985 14.1522 7.86242 -8.94993
461 1 18.8712 12.5797 6.28895 -8.95161
462 1 20.4407 14.1524 7.86177 -8.95037
463 1 22.0118 15.7255 6.28858 -8.95017
464 1 1.57002 17.2984 7.86149 -8.95
465 1 3.13716 15.7298 6.28421 -8.94594
466 1 4.7111 17.3042 7.85832 -8.94746
467 1 6.27629 15.7383 6.27533 -8.92992
468 1 7.85898 17.3068 7.859 -8.95729
469 1 9.43426 15.734 6.28263 -8.94997
470 1 11.0072 17.3006 7.86011 -8.95133
471 1 12.5878 15.7363 6.27945 -8.954
472 1 14.1561 17.301 7.85891 -8.94369
473 1 15.7271 15.7258 6.28896 -8.95236
474 1 17.2986 17.2982 7.86126 -8.94907
475 1 18.8696 15.7248 6.28942 -8.94997
476 1 20.4414 17.2975 7.86183 -8.94976
477 1 -0.000725296 18.8699 6.28929 -8.94967
478 1 1.57165 20.4421 7.86198 -8.9496
479 1 3.14254 18.8717 6.28804 -8.94897
480 1 4.71586 20.4434 7.86145 -8.95033
481 1 6.28782 18.8735 6.28744 -8.95104
482 1 7.86174 20.4437 7.86144 -8.95126
483 1 9.43482 18.8725 6.28786 -8.9502
484 1 11.0071 20.4427 7.86161 -8.94937
485 1 12.5802 18.8721 6.28849 -8.95251
486 1 14.1529 20.4428 7.86136 -8.94976
487 1 15.7258 18.8707 6.28868 -8.9482
488 1 17.2974 20.442 7.86178 -8.94946
489 1 18.8696 18.8697 6.28931 -8.94938
490 1 20.4415 20.4418 7.86198 -8.9495
491 1 22.0112 12.5795 9.43424 -8.95146
492 1 3.13327 12.5812 9.43095 -8.95841
493 1 6.24594 12.619 9.40011 -8.88543
494 1 9.36905 12.8295 9.431 -8.1179
495 1 12.5584 12.5658 9.43535 -8.90098
496 1 15.723 12.5779 9.43419 -8.93968
497 1 18.8694 12.5796 9.43429 -8.94797
498 1 22.0123 15.7252 9.43457 -8.95012
499 1 3.13865 15.7278 9.43454 -8.95102
500 1 6.27349 15.7438 9.42828 -8.94463
501 1 9.43027 15.7262 9.43053 -9.0033
502 1 12.5904 15.7342 9.42262 -8.92454
503 1 15.7296 15.7276 9.43263 -8.94799
512 1 1.57006 11.007 11.0076 -8.94895
513 1 4.71358 11.007 10.9984 -8.96804
514 1 7.80005 11.007 10.7646 -8.03201
519 1 1.56879 14.1525 11.0079 -8.95205
520 1 4.70394 14.1553 11.0117 -8.96152
522 1 11.0642 14.194 10.9958 -8.80622
527 1 4.71323 17.3008 11.009 -8.94673
529 1 11.0091 17.3053 11.0056 -8.96119
351 1 22.0134 12.5795 0.000158034 -8.94949
377 1 18.8695 15.7246 -0.00015502 -8.94946
389 1 15.7249 18.8699 8.45029e-05 -8.94954
383 1 6.28941 18.8699 -3.25161e-05 -8.94939
687 3 8.65233 11.007 12.5745 2.29239
686 1 20.4416 20.4417 20.4416 -8.94936
685 1 18.8698 18.8698 18.8696 -8.94917
515 1 11.069 11.007 11.2493 -8.03201
516 1 14.1555 11.007 11.0155 -8.96804
517 1 17.299 11.007 11.0063 -8.94895
518 1 20.4415 11.007 11.007 -8.9492
684 1 17.2972 20.4419 20.4419 -8.94925
683 1 15.7257 18.8705 18.8706 -8.94832
521 1 7.80485 14.194 11.0181 -8.80622
682 1 14.1522 20.442 20.4419 -8.94958
523 1 14.1651 14.1553 11.0022 -8.96152
524 1 17.3003 14.1525 11.006 -8.95205
525 1 20.4415 14.1523 11.007 -8.95019
526 1 1.5703 17.2983 11.0073 -8.94873
681 1 12.58 18.8706 18.8705 -8.94953
528 1 7.85996 17.3053 11.0083 -8.96119
680 1 11.0071 20.442 20.4419 -8.94945
530 1 14.1558 17.3008 11.0049 -8.94673
679 1 9.4345 18.8706 18.8703 -8.94929
532 1 20.4415 17.2976 11.007 -8.94952
533 1 1.5716 20.4421 11.0071 -8.94947
678 1 7.86198 20.442 20.4419 -8.94948
677 1 6.28918 18.8706 18.8702 -8.94903
536 1 11.0072 20.4433 11.0067 -8.95118
537 1 14.1531 20.4429 11.0065 -8.94917
676 1 4.71696 20.442 20.4418 -8.94947
539 1 20.4415 20.4418 11.007 -8.94954
540 1 1.5696 11.007 14.1521 -8.95093
541 1 4.70856 11.007 14.16 -8.97106
542 1 7.78651 11.007 14.3782 -8.11906
543 1 10.9895 11.007 14.1351 -8.94416
544 1 14.1584 11.007 14.1597 -8.93468
545 1 17.3008 11.007 14.1542 -8.94698
546 1 20.4419 11.007 14.1522 -8.94972
547 1 22.0135 12.5796 12.5796 -8.94797
548 1 1.57053 14.1522 14.1515 -8.94993
549 1 3.14609 12.5779 12.5797 -8.93968
550 1 4.7124 14.1517 14.1503 -8.95512
551 1 6.31061 12.5658 12.5786 -8.90098
552 1 7.84145 14.1641 14.1829 -8.91028
553 1 9.5 12.8295 12.5829 -8.1179
554 1 11.0483 14.1914 14.1902 -8.85728
555 1 12.6231 12.619 12.6138 -8.88543
556 1 14.173 14.1662 14.1655 -8.94028
557 1 15.7358 12.5812 12.5829 -8.95841
558 1 17.3027 14.1539 14.1539 -8.95264
559 1 18.8718 12.5795 12.5797 -8.95146
560 1 20.4422 14.1524 14.1521 -8.95037
561 1 -0.00136692 15.7253 12.5797 -8.9501
562 1 1.57042 17.2982 14.1526 -8.94907
563 1 3.13944 15.7276 12.5813 -8.94799
564 1 4.71294 17.301 14.155 -8.94369
565 1 6.27866 15.7342 12.5913 -8.92454
566 1 7.86182 17.3006 14.1538 -8.95133
567 1 9.43879 15.7262 12.5834 -9.0033
568 1 11.0101 17.3068 14.1549 -8.95729
569 1 12.5956 15.7438 12.5856 -8.94463
570 1 14.158 17.3042 14.1556 -8.94746
571 1 15.7304 15.7278 12.5794 -8.95102
572 1 17.299 17.2984 14.1524 -8.95
573 1 18.8706 15.7252 12.5793 -8.95012
574 1 20.4416 17.2975 14.1521 -8.94976
575 1 22.0133 18.8699 12.5796 -8.94944
576 1 1.57165 20.442 14.1521 -8.94946
577 1 3.14307 18.8709 12.5801 -8.94922
578 1 4.71615 20.4428 14.1525 -8.94976
579 1 6.28793 18.8725 12.5809 -8.95049
580 1 7.86193 20.4427 14.1523 -8.94937
581 1 9.43484 18.8718 12.5803 -8.94666
582 1 11.0073 20.4437 14.1525 -8.95126
583 1 12.5819 18.8746 12.5796 -8.95237
584 1 14.1532 20.4434 14.1525 -8.95033
585 1 15.726 18.8709 12.5792 -8.94946
586 1 17.2974 20.4421 14.1519 -8.9496
587 1 18.8697 18.8698 12.5794 -8.94936
588 1 20.4415 20.4418 14.1519 -8.9495
589 1 1.56814 11.007 17.2992 -8.949
590 1 4.70673 11.007 17.3068 -8.942
591 1 7.85717 11.007 17.2932 -9.00214
592 1 11.0046 11.007 17.2944 -8.94154
593 1 14.1552 11.007 17.3014 -8.94622
594 1 17.2985 11.007 17.2985 -8.94939
595 1 20.4409 11.007 17.2976 -8.94985
596 1 22.0118 12.5797 15.7249 -8.95161
597 1 1.56832 14.1537 17.2988 -8.95068
598 1 3.13453 12.5816 15.7284 -8.95762
599 1 4.70453 14.1631 17.3091 -8.93034
600 1 6.24952 12.611 15.7609 -8.85528
601 1 7.86112 14.1565 17.3065 -8.9533
602 1 9.44951 12.6022 15.7314 -8.90764
603 1 11.0126 14.1588 17.3086 -8.95358
604 1 12.5848 12.5779 15.7319 -8.96207
605 1 14.1554 14.1532 17.3013 -8.95338
606 1 15.7287 12.5798 15.7279 -8.94814
607 1 17.2985 14.1524 17.2982 -8.9495
608 1 18.8705 12.5797 15.7254 -8.94952
609 1 20.4411 14.1523 17.2974 -8.95003
610 1 22.0133 15.7248 15.7245 -8.94997
611 1 1.57124 17.2977 17.2972 -8.9506
612 1 3.14199 15.7258 15.7249 -8.95236
613 1 4.71362 17.3018 17.3006 -8.9498
614 1 6.28124 15.7363 15.7344 -8.954
615 1 7.86132 17.3003 17.2999 -8.94733
616 1 9.4348 15.734 15.7313 -8.94997
617 1 11.008 17.3007 17.3 -8.949
618 1 12.5928 15.7383 15.7386 -8.92992
619 1 14.1562 17.3014 17.3015 -8.94471
620 1 15.7319 15.7298 15.7297 -8.94594
621 1 17.2992 17.2986 17.2985 -8.94836
622 1 18.8712 15.7255 15.7253 -8.95017
623 1 20.4419 17.2973 17.2971 -8.94976
624 1 -0.000532217 18.8697 15.7246 -8.94938
625 1 1.57182 20.442 17.297 -8.94929
626 1 3.14327 18.8707 15.7252 -8.9482
627 1 4.71659 20.4426 17.2974 -8.95065
628 1 6.28886 18.8721 15.7254 -8.95251
629 1 7.86174 20.4426 17.2977 -8.94949
630 1 9.43424 18.8725 15.726 -8.9502
631 1 11.0071 20.4427 17.2977 -8.94959
632 1 12.5812 18.8735 15.7265 -8.95104
633 1 14.1528 20.4428 17.2978 -8.94988
634 1 15.7265 18.8717 15.7259 -8.94897
635 1 17.2975 20.4422 17.2973 -8.94938
636 1 18.8698 18.8699 15.7246 -8.94967
637 1 20.4416 20.4418 17.2969 -8.94952
638 1 1.57095 11.007 20.4427 -8.94946
639 1 4.7148 11.007 20.445 -8.94952
640 1 7.86179 11.007 20.4423 -8.94615
641 1 11.0069 11.007 20.4415 -8.94723
642 1 14.1529 11.007 20.4421 -8.95027
643 1 17.2975 11.007 20.4419 -8.94947
644 1 20.4413 11.007 20.4419 -8.94949
645 1 -0.00139408 12.5797 18.8701 -8.94926
646 1 1.57104 14.1525 20.4426 -8.94919
647 1 3.14109 12.5806 18.8727 -8.94764
648 1 4.71541 14.1533 20.4449 -8.95137
649 1 6.28656 12.5805 18.8771 -8.95886
650 1 7.86216 14.1528 20.4439 -8.9511
651 1 9.43391 12.5793 18.8707 -8.95113
652 1 11.0071 14.1524 20.4434 -8.95282
653 1 12.5798 12.5787 18.871 -8.95079
654 1 14.1525 14.152 20.442 -8.95059
655 1 15.7258 12.5797 18.8708 -8.94878
656 1 17.2974 14.1521 20.4418 -8.94925
657 1 18.8695 12.5796 18.8699 -8.94946
658 1 20.4413 14.1521 20.4419 -8.94943
659 1 22.0126 15.7252 18.87 -8.94959
660 1 1.57114 17.2979 20.4425 -8.94834
661 1 3.14073 15.7281 18.873 -8.94471
662 1 4.71637 17.298 20.4426 -8.95005
663 1 6.28823 15.7269 18.873 -8.95019
664 1 7.86186 17.298 20.4426 -8.94927
665 1 9.43476 15.727 18.8726 -8.94776
666 1 11.0072 17.298 20.4426 -8.9491
667 1 12.5821 15.7273 18.8741 -8.94989
668 1 14.153 17.2981 20.443 -8.94942
669 1 15.7259 15.7253 18.8709 -8.95068
670 1 17.2975 17.2974 20.4419 -8.94975
671 1 18.8695 15.7247 18.8697 -8.94973
672 1 20.4413 17.2971 20.4418 -8.94952
673 1 22.0136 18.8696 18.8694 -8.94983
674 1 1.57187 20.442 20.4418 -8.94934
675 1 3.14344 18.8709 18.8704 -8.94933
391 1 18.8695 18.8696 22.0138 -8.94921
353 1 3.14357 12.5797 22.0147 -8.94931
359 1 12.5798 12.5794 22.0127 -8.95112
369 1 6.28917 15.7252 22.0139 -8.95056
375 1 15.7253 15.7251 22.0131 -8.95005
363 1 18.8695 12.5795 22.0137 -8.94949
365 1 -0.000436696 15.7246 22.0141 -8.94946
381 1 3.14419 18.8699 22.0138 -8.94954
387 1 12.5796 18.8699 22.0139 -8.94939
