ITEM: TIMESTEP
96
ITEM: NUMBER OF ATOMS
688
ITEM: BOX BOUNDS pp pp pp
0.0000000000000000e+00 2.2013900999999997e+01
0.0000000000000000e+00 2.2013900999999997e+01
0.0000000000000000e+00 2.2013900999999997e+01
ITEM: ATOMS id type x y z c_pot
1 1 22.0136 5.19763e-16 4.7645e-05 -8.94916
2 1 1.57177 1.57195 1.57199 -8.94921
193 1 11.0645 7.81946 10.9961 -8.80608
4 1 4.71683 1.57186 1.5719 -8.94955
175 1 18.8694 9.43435 9.43428 -8.94793
6 1 7.86199 1.57185 1.57193 -8.94942
7 1 9.43453 6.48366e-16 -7.30876e-16 -8.94951
8 1 11.0071 1.57184 1.57194 -8.94945
9 1 12.5796 3.39995e-16 9.58344e-06 -8.94948
10 1 14.1522 1.57186 1.57203 -8.94945
174 1 15.7228 9.43612 9.43422 -8.93966
12 1 17.2973 1.5718 1.57202 -8.94931
191 1 4.70376 7.85849 11.0117 -8.96161
14 1 20.4414 1.57211 1.57225 -8.94932
15 1 22.0134 3.14424 7.7155e-05 -8.94919
16 1 1.57149 4.71642 1.57196 -8.94975
190 1 1.56871 7.86136 11.0079 -8.95212
18 1 4.71595 4.7157 1.57084 -8.94942
173 1 12.5581 9.44813 9.43538 -8.90124
20 1 7.86177 4.71578 1.5712 -8.94909
21 1 9.43453 3.14387 -3.87863e-16 -8.94944
22 1 11.0072 4.71574 1.57125 -8.94927
188 1 17.2989 4.71549 11.0066 -8.94871
24 1 14.1528 4.71572 1.57121 -8.95007
172 1 9.36953 9.18394 9.43089 -8.11847
26 1 17.298 4.71588 1.5713 -8.94833
171 1 6.24609 9.39469 9.39996 -8.88549
28 1 20.4416 4.71668 1.57205 -8.94951
186 1 11.0092 4.70844 11.0056 -8.96126
30 1 1.57152 7.8617 1.57205 -8.94922
31 1 3.14367 6.28872 0.000790409 -8.95006
32 1 4.71644 7.86184 1.57182 -8.95061
170 1 3.13323 9.43266 9.43083 -8.9584
34 1 7.86196 7.86146 1.57042 -8.95289
35 1 9.43453 6.28833 1.42083e-15 -8.94954
36 1 11.0069 7.86107 1.56989 -8.95116
37 1 12.58 6.28861 -6.21764e-05 -8.95061
38 1 14.1538 7.86056 1.56891 -8.95139
169 1 22.0111 9.43438 9.43421 -8.95144
40 1 17.2982 7.8613 1.57117 -8.94916
168 1 18.8705 6.28853 9.43419 -8.95012
42 1 20.4417 7.86175 1.57198 -8.9494
167 1 15.7298 6.28624 9.43254 -8.94799
166 1 12.5907 6.27947 9.42246 -8.92443
45 1 6.28922 9.43455 0.00128808 -8.95113
46 1 9.43453 9.43476 7.08239e-16 -8.94912
165 1 9.43029 6.28752 9.43038 -9.00328
48 1 15.7256 9.43413 -0.000872187 -8.94931
184 1 4.71297 4.71293 11.0091 -8.94666
50 1 22.0135 -1.68387e-16 3.14447 -8.94938
51 1 1.57141 1.57164 4.71648 -8.94935
52 1 3.1441 2.03651e-16 3.14405 -8.94951
53 1 4.71615 1.57101 4.71593 -8.94988
54 1 6.2894 -3.48859e-16 3.14407 -8.94953
55 1 7.86194 1.57113 4.71608 -8.9496
56 1 9.43461 1.81796e-16 3.14406 -8.9495
57 1 11.0074 1.57123 4.71613 -8.94949
58 1 12.5797 1.79157e-16 3.14416 -8.94944
59 1 14.1526 1.57121 4.71645 -8.95068
60 1 15.7248 4.39088e-16 3.14431 -8.95004
61 1 17.2973 1.57188 4.71682 -8.94928
62 1 18.8693 8.21894e-16 3.14464 -8.9494
63 1 20.4414 1.57206 4.71698 -8.9495
64 1 22.0131 3.14404 3.1442 -8.94915
65 1 1.56967 4.71511 4.71521 -8.94835
66 1 3.14321 3.1432 3.14318 -8.94829
67 1 4.71255 4.71224 4.7121 -8.94468
68 1 6.28895 3.14313 3.1433 -8.94951
69 1 7.86088 4.71293 4.71367 -8.94898
70 1 9.43455 3.14318 3.14344 -8.94927
71 1 11.0078 4.7134 4.71383 -8.9473
72 1 12.58 3.14321 3.14356 -8.94901
73 1 14.1557 4.71189 4.71311 -8.94978
74 1 15.7258 3.14283 3.1434 -8.94932
75 1 17.2979 4.71607 4.71655 -8.95063
76 1 18.8694 3.14421 3.14444 -8.94983
77 1 20.441 4.71648 4.71668 -8.94977
78 1 22.0134 6.28911 3.1441 -8.94973
79 1 1.57041 7.86145 4.71558 -8.9495
80 1 3.14294 6.28848 3.14285 -8.95072
81 1 4.71349 7.86061 4.71245 -8.95342
82 1 6.28681 6.28643 3.13961 -8.94989
83 1 7.8563 7.85483 4.7051 -8.95353
84 1 9.43429 6.28676 3.1411 -8.94774
85 1 11.0081 7.85723 4.70716 -8.95331
86 1 12.581 6.28689 3.14068 -8.95021
87 1 14.1648 7.85069 4.70453 -8.93032
88 1 15.7285 6.28567 3.14073 -8.9447
89 1 17.3009 7.86009 4.71495 -8.95069
90 1 18.8704 6.28862 3.14379 -8.94959
91 1 20.4419 7.86154 4.7164 -8.95003
92 1 -0.000482642 9.4343 3.14396 -8.94944
93 1 3.14315 9.4342 3.14303 -8.94877
94 1 6.28924 9.43521 3.14287 -8.95079
95 1 9.43518 9.43458 3.14322 -8.95116
96 1 12.5826 9.43336 3.13667 -8.9589
97 1 15.7282 9.43319 3.14102 -8.9476
98 1 18.8706 9.43411 3.14365 -8.94924
99 1 22.0135 7.89368e-16 6.28948 -8.94963
100 1 1.57154 1.57176 7.86194 -8.94959
101 1 3.14372 8.57826e-16 6.28897 -8.94979
102 1 4.71572 1.57041 7.86138 -8.95036
103 1 6.28904 -5.14265e-16 6.28875 -8.95048
104 1 7.86168 1.57013 7.86139 -8.95128
105 1 9.43473 3.82292e-16 6.28878 -8.95009
106 1 11.0071 1.57112 7.86155 -8.94938
107 1 12.5798 1.51553e-15 6.28913 -8.95029
108 1 14.153 1.57106 7.86129 -8.94976
109 1 15.7251 1.3494e-15 6.28912 -8.94945
110 1 17.2975 1.5718 7.86172 -8.94944
111 1 18.8694 6.18273e-16 6.28945 -8.94949
112 1 20.4415 1.57203 7.86195 -8.94948
113 1 -0.000830593 3.14392 6.28922 -8.94967
114 1 1.5698 4.71528 7.86141 -8.95002
115 1 3.14231 3.14199 6.28788 -8.94894
116 1 4.71073 4.70933 7.85811 -8.94739
117 1 6.28765 3.1402 6.28729 -8.95105
118 1 7.8588 4.70688 7.85885 -8.9573
119 1 9.43479 3.14126 6.28773 -8.95022
120 1 11.0073 4.71309 7.85993 -8.95135
121 1 12.5803 3.14169 6.28836 -8.95254
122 1 14.1563 4.71272 7.85873 -8.94363
123 1 15.7259 3.14305 6.28857 -8.94817
124 1 17.2988 4.71561 7.86118 -8.94907
125 1 18.8696 3.14407 6.28925 -8.94937
126 1 20.4414 4.71633 7.86179 -8.94977
127 1 22.0116 6.28834 6.28849 -8.9502
128 1 1.56616 7.85991 7.85994 -8.95268
129 1 3.13683 6.28391 6.28399 -8.94594
130 1 4.69571 7.84741 7.84819 -8.94034
131 1 6.27593 6.27526 6.27503 -8.92991
132 1 7.82052 7.82214 7.82358 -8.85735
133 1 9.43419 6.27953 6.28236 -8.94996
134 1 11.0279 7.84948 7.83063 -8.91001
135 1 12.5881 6.27733 6.27908 -8.95391
136 1 14.1568 7.86219 7.8635 -8.95522
137 1 15.7273 6.28803 6.28882 -8.95242
138 1 17.2986 7.86174 7.86239 -8.94998
139 1 18.8697 6.28899 6.28936 -8.95001
140 1 20.4407 7.86151 7.86174 -8.95039
141 1 22.0124 9.43422 6.28846 -8.94952
142 1 3.14013 9.43407 6.28586 -8.94815
143 1 6.28409 9.43586 6.28193 -8.96212
144 1 9.41941 9.41133 6.28248 -8.90754
145 1 12.6197 9.40288 6.25282 -8.85534
146 1 15.7347 9.43227 6.28532 -8.95764
147 1 18.8712 9.43418 6.28888 -8.95163
148 1 -0.000403469 2.41001e-16 9.43449 -8.9495
149 1 3.1438 1.34456e-15 9.43459 -8.94941
150 1 6.28881 7.49365e-16 9.43452 -8.95107
151 1 9.43453 4.11208e-16 9.43417 -8.94893
152 1 12.5801 8.24752e-16 9.43405 -8.95026
153 1 15.7253 1.65356e-15 9.43414 -8.94944
154 1 18.8695 7.97522e-16 9.4344 -8.94952
155 1 -0.000701069 3.14396 9.43448 -8.94934
156 1 3.14291 3.14286 9.4347 -8.94945
157 1 6.28701 3.13911 9.43431 -8.95243
158 1 9.4342 3.14203 9.43355 -8.94665
159 1 12.5812 3.14129 9.43295 -8.95051
160 1 15.7261 3.1429 9.43374 -8.94919
161 1 18.8697 3.14395 9.43429 -8.94942
162 1 22.0122 6.28862 9.43456 -8.95016
163 1 3.13834 6.28592 9.43447 -8.95106
164 1 6.27306 6.26967 9.42807 -8.94447
177 1 4.71587 1.57097 11.0075 -8.94917
178 1 7.86188 1.57053 11.0072 -8.9512
181 1 17.2976 1.57177 11.0068 -8.94944
11 1 15.7246 -8.13407e-18 4.43526e-05 -8.94958
19 1 6.28936 3.14393 -4.05271e-05 -8.94937
25 1 15.725 3.14392 9.03496e-05 -8.94953
43 1 22.0133 9.43434 0.000176117 -8.94946
41 1 18.8696 6.2892 -0.000168436 -8.94943
176 1 1.57149 1.57177 11.0071 -8.94944
343 1 18.8695 9.4343 18.8699 -8.94944
342 1 15.7259 9.4342 18.8709 -8.94877
179 1 11.0072 1.57053 11.0067 -8.9512
180 1 14.1532 1.57097 11.0064 -8.94917
341 1 12.5798 9.43521 18.871 -8.95079
182 1 20.4415 1.57201 11.007 -8.94952
183 1 1.57013 4.71549 11.0073 -8.94871
340 1 9.43388 9.43458 18.8707 -8.95116
185 1 7.85984 4.70844 11.0083 -8.96126
339 1 6.28641 9.43336 18.8772 -8.9589
187 1 14.1561 4.71293 11.0048 -8.94666
338 1 3.14086 9.43319 18.8729 -8.9476
189 1 20.4415 4.71623 11.007 -8.94952
337 1 -0.00150463 9.43411 18.8703 -8.94924
336 1 20.4413 7.86175 20.4419 -8.9494
192 1 7.80456 7.81946 11.0178 -8.80608
335 1 18.8696 6.28911 18.8698 -8.94973
194 1 14.1653 7.85849 11.0022 -8.96161
195 1 17.3004 7.86136 11.006 -8.95212
196 1 20.4415 7.86158 11.007 -8.95021
197 1 -0.00040661 3.93074e-16 12.5795 -8.94952
198 1 1.57156 1.5718 14.1522 -8.94944
199 1 3.14379 1.76093e-15 12.5798 -8.94944
200 1 4.71606 1.57106 14.1526 -8.94976
201 1 6.289 1.85442e-15 12.5799 -8.95026
202 1 7.86192 1.57112 14.1523 -8.94938
203 1 9.43453 9.95386e-16 12.5797 -8.94893
204 1 11.0074 1.57013 14.1525 -8.95128
205 1 12.5802 4.49881e-16 12.5794 -8.95107
206 1 14.1533 1.57041 14.1525 -8.95036
207 1 15.7253 1.1016e-15 12.5793 -8.94941
208 1 17.2975 1.57176 14.152 -8.94959
209 1 18.8695 4.37149e-16 12.5794 -8.9495
210 1 20.4415 1.57203 14.152 -8.94948
211 1 22.0132 3.14395 12.5796 -8.94942
212 1 1.57029 4.71561 14.1527 -8.94907
213 1 3.14292 3.1429 12.5802 -8.94919
214 1 4.71273 4.71272 14.1552 -8.94363
215 1 6.28783 3.14129 12.581 -8.95051
216 1 7.86175 4.71309 14.154 -8.95135
217 1 9.43486 3.14203 12.5803 -8.94665
218 1 11.0103 4.70688 14.1551 -8.9573
219 1 12.582 3.13911 12.5796 -8.95243
220 1 14.1583 4.70933 14.1558 -8.94739
221 1 15.7262 3.14286 12.5792 -8.94945
222 1 17.2993 4.71528 14.1525 -8.95002
223 1 18.8698 3.14396 12.5794 -8.94934
224 1 20.4416 4.71633 14.1521 -8.94977
225 1 -0.00141928 6.28853 12.5797 -8.95012
226 1 1.57049 7.86174 14.1515 -8.94998
227 1 3.13926 6.28624 12.5814 -8.94799
228 1 4.71227 7.86219 14.1504 -8.95522
229 1 6.2784 6.27947 12.5914 -8.92443
230 1 7.84117 7.84948 14.1833 -8.91001
231 1 9.43877 6.28752 12.5835 -9.00328
232 1 11.0485 7.82214 14.1903 -8.85735
233 1 12.596 6.26967 12.5858 -8.94447
234 1 14.1734 7.84741 14.1657 -8.94034
235 1 15.7307 6.28592 12.5794 -8.95106
236 1 17.3029 7.85991 14.154 -8.95268
237 1 18.8708 6.28862 12.5793 -8.95016
238 1 20.4423 7.86151 14.1522 -8.95039
239 1 22.0136 9.43435 12.5796 -8.94793
240 1 3.14627 9.43612 12.5797 -8.93966
241 1 6.31092 9.44813 12.5785 -8.90124
242 1 9.49953 9.18394 12.583 -8.11847
243 1 12.623 9.39469 12.6139 -8.88549
244 1 15.7358 9.43266 12.5831 -8.9584
245 1 18.8718 9.43438 12.5797 -8.95144
246 1 -0.000350348 1.8177e-16 15.7245 -8.94949
247 1 1.57174 1.57188 17.2971 -8.94928
248 1 3.14398 1.50724e-15 15.7248 -8.94945
249 1 4.7165 1.57121 17.2975 -8.95068
250 1 6.2893 1.42539e-15 15.7248 -8.95029
251 1 7.86171 1.57123 17.2978 -8.94949
252 1 9.43433 6.56637e-16 15.7251 -8.95009
253 1 11.0071 1.57113 17.2978 -8.9496
254 1 12.58 1.96993e-16 15.7252 -8.95048
255 1 14.1529 1.57101 17.298 -8.94988
256 1 15.7253 6.22519e-16 15.7249 -8.94979
257 1 17.2976 1.57164 17.2974 -8.94935
258 1 18.8694 1.48844e-15 15.7244 -8.94963
259 1 20.4416 1.57206 17.2969 -8.9495
260 1 -0.000580396 3.14407 15.7247 -8.94937
261 1 1.57112 4.71607 17.2973 -8.95063
262 1 3.14313 3.14305 15.7253 -8.94817
263 1 4.71339 4.71189 17.3008 -8.94978
264 1 6.28876 3.14169 15.7255 -8.95254
265 1 7.86124 4.7134 17.3001 -8.9473
266 1 9.43426 3.14126 15.7262 -8.95022
267 1 11.0082 4.71293 17.3002 -8.94898
268 1 12.5814 3.1402 15.7266 -8.95105
269 1 14.1565 4.71224 17.3018 -8.94468
270 1 15.7267 3.14199 15.726 -8.94894
271 1 17.2994 4.71511 17.2987 -8.94835
272 1 18.8699 3.14392 15.7247 -8.94967
273 1 20.4419 4.71648 17.2972 -8.94977
274 1 22.0133 6.28899 15.7245 -8.95001
275 1 1.56814 7.86009 17.2989 -8.95069
276 1 3.1418 6.28803 15.7251 -8.95242
277 1 4.70428 7.85069 17.3094 -8.93032
278 1 6.28095 6.27733 15.7348 -8.95391
279 1 7.86101 7.85723 17.3067 -8.95331
280 1 9.43487 6.27953 15.7315 -8.94996
281 1 11.0128 7.85483 17.3088 -8.95353
282 1 12.5931 6.27526 15.7389 -8.92991
283 1 14.1556 7.86061 17.3015 -8.95342
284 1 15.7322 6.28391 15.7299 -8.94594
285 1 17.2986 7.86145 17.2983 -8.9495
286 1 18.8713 6.28834 15.7254 -8.9502
287 1 20.4411 7.86154 17.2975 -8.95003
288 1 22.0117 9.43418 15.725 -8.95163
289 1 3.13438 9.43227 15.7286 -8.95764
290 1 6.24939 9.40288 15.7611 -8.85534
291 1 9.44964 9.41133 15.7314 -8.90754
292 1 12.585 9.43586 15.732 -8.96212
293 1 15.7289 9.43407 15.728 -8.94815
294 1 18.8706 9.43422 15.7254 -8.94952
295 1 22.0137 8.4895e-16 18.8693 -8.9494
296 1 1.57179 1.5718 20.4419 -8.94931
297 1 3.14425 4.50294e-16 18.8696 -8.95004
298 1 4.71689 1.57186 20.4419 -8.94945
299 1 6.28933 -6.7385e-16 18.8697 -8.94944
300 1 7.86195 1.57184 20.442 -8.94945
301 1 9.43445 8.64817e-18 18.8698 -8.9495
302 1 11.0071 1.57185 20.442 -8.94942
303 1 12.5797 6.84635e-16 18.8698 -8.94953
304 1 14.1522 1.57186 20.442 -8.94955
305 1 15.725 1.3205e-15 18.8698 -8.94951
306 1 17.2973 1.57195 20.4419 -8.94921
307 1 18.8695 1.35939e-15 18.8694 -8.94938
308 1 20.4416 1.57211 20.4416 -8.94932
309 1 22.0136 3.14421 18.8695 -8.94983
310 1 1.57102 4.71588 20.4426 -8.94833
311 1 3.1433 3.14283 18.8705 -8.94932
312 1 4.71624 4.71572 20.4427 -8.95007
313 1 6.2891 3.14321 18.8703 -8.94901
314 1 7.86182 4.71574 20.4426 -8.94927
315 1 9.43451 3.14318 18.8705 -8.94927
316 1 11.0073 4.71578 20.4427 -8.94909
317 1 12.5801 3.14313 18.8706 -8.94951
318 1 14.1531 4.7157 20.4431 -8.94942
319 1 15.7258 3.1432 18.8707 -8.94829
320 1 17.2976 4.71642 20.4419 -8.94975
321 1 18.8699 3.14404 18.8697 -8.94915
322 1 20.4413 4.71668 20.4419 -8.94951
323 1 22.0125 6.28862 18.8701 -8.94959
324 1 1.5709 7.8613 20.4427 -8.94916
325 1 3.14053 6.28567 18.8732 -8.9447
326 1 4.71528 7.86056 20.445 -8.95139
327 1 6.28807 6.28689 18.8732 -8.95021
328 1 7.86212 7.86107 20.444 -8.95116
329 1 9.43477 6.28676 18.8728 -8.94774
330 1 11.0071 7.86146 20.4435 -8.95289
331 1 12.5823 6.28643 18.8743 -8.94989
332 1 14.1526 7.86184 20.4421 -8.95061
333 1 15.7261 6.28848 18.8711 -8.95072
334 1 17.2975 7.8617 20.4419 -8.94922
5 1 6.28949 -2.30078e-16 22.0139 -8.94948
47 1 12.5798 9.43455 22.0126 -8.95113
44 1 3.14345 9.43413 22.0148 -8.94931
39 1 15.7254 6.28872 22.0131 -8.95006
27 1 18.8695 3.14424 22.0138 -8.94919
33 1 6.2891 6.28861 22.014 -8.95061
3 1 3.14449 -6.1607e-16 22.0139 -8.94958
13 1 18.8694 7.98867e-16 22.0139 -8.94916
17 1 3.14408 3.14392 22.0138 -8.94953
23 1 12.5797 3.14393 22.0139 -8.94937
29 1 -0.000497463 6.2892 22.0141 -8.94943
49 1 18.8696 9.43434 22.0137 -8.94946
344 1 1.57146 11.007 1.572 -8.94945
345 1 4.71607 11.007 1.57182 -8.95029
346 1 7.86223 11.007 1.57248 -8.94715
347 1 11.0073 11.007 1.57163 -8.94607
348 1 14.1544 11.007 1.56873 -8.94953
349 1 17.2983 11.007 1.57112 -8.94944
350 1 20.4417 11.007 1.57195 -8.94947
688 3 10.2163 11.007 9.43948 2.29223
352 1 1.57152 14.1522 1.57205 -8.94922
511 1 18.8697 18.87 9.43429 -8.94942
354 1 4.71644 14.1521 1.57182 -8.95061
355 1 6.28922 12.5794 0.00128808 -8.95113
356 1 7.86196 14.1524 1.57042 -8.95289
357 1 9.43453 12.5791 5.85607e-16 -8.94912
358 1 11.0069 14.1528 1.56989 -8.95116
510 1 15.7261 18.871 9.43374 -8.94919
360 1 14.1538 14.1533 1.56891 -8.95139
361 1 15.7256 12.5798 -0.000872187 -8.94931
362 1 17.2982 14.1526 1.57117 -8.94916
538 1 17.2976 20.4421 11.0068 -8.94944
364 1 20.4417 14.1522 1.57198 -8.9494
535 1 7.86188 20.4434 11.0072 -8.9512
366 1 1.57149 17.2975 1.57196 -8.94975
367 1 3.14367 15.7252 0.000790409 -8.95006
368 1 4.71595 17.2982 1.57084 -8.94942
509 1 12.5812 18.8726 9.43295 -8.95051
370 1 7.86177 17.2981 1.5712 -8.94909
371 1 9.43453 15.7256 1.00812e-15 -8.94954
372 1 11.0072 17.2982 1.57125 -8.94927
373 1 12.58 15.7253 -6.21764e-05 -8.95061
374 1 14.1528 17.2982 1.57121 -8.95007
508 1 9.4342 18.8719 9.43355 -8.94665
376 1 17.298 17.298 1.5713 -8.94833
507 1 6.28701 18.8748 9.43431 -8.95243
378 1 20.4416 17.2972 1.57205 -8.94951
379 1 22.0134 18.8697 7.7155e-05 -8.94919
380 1 1.57177 20.442 1.57199 -8.94921
534 1 4.71587 20.4429 11.0075 -8.94917
382 1 4.71683 20.442 1.5719 -8.94955
506 1 3.14291 18.871 9.4347 -8.94945
384 1 7.86199 20.4421 1.57193 -8.94942
385 1 9.43453 18.87 1.98028e-16 -8.94944
386 1 11.0071 20.4421 1.57194 -8.94945
531 1 17.2989 17.2984 11.0066 -8.94871
388 1 14.1522 20.442 1.57203 -8.94945
505 1 -0.000701069 18.8699 9.43448 -8.94934
390 1 17.2973 20.4421 1.57202 -8.94931
504 1 18.8705 15.7254 9.43419 -8.95012
392 1 20.4414 20.4418 1.57225 -8.94932
393 1 1.57045 11.007 4.71531 -8.94939
394 1 4.71377 11.007 4.71237 -8.94621
395 1 7.8644 11.007 4.7196 -8.94146
396 1 11.0119 11.007 4.72083 -9.00216
397 1 14.1626 11.007 4.70688 -8.94193
398 1 17.3011 11.007 4.71456 -8.94899
399 1 20.442 11.007 4.71621 -8.94986
400 1 -0.000482642 12.5796 3.14396 -8.94944
401 1 1.57041 14.1525 4.71558 -8.9495
402 1 3.14315 12.5797 3.14303 -8.94877
403 1 4.71349 14.1533 4.71245 -8.95342
404 1 6.28924 12.5787 3.14287 -8.95079
405 1 7.8563 14.1591 4.7051 -8.95353
406 1 9.43518 12.5793 3.14322 -8.95116
407 1 11.0081 14.1567 4.70716 -8.95331
408 1 12.5826 12.5805 3.13667 -8.9589
409 1 14.1648 14.1632 4.70453 -8.93032
410 1 15.7282 12.5807 3.14102 -8.9476
411 1 17.3009 14.1538 4.71495 -8.95069
412 1 18.8706 12.5798 3.14365 -8.94924
413 1 20.4419 14.1524 4.7164 -8.95003
414 1 22.0134 15.7248 3.1441 -8.94973
415 1 1.56967 17.2988 4.71521 -8.94835
416 1 3.14294 15.7254 3.14285 -8.95072
417 1 4.71255 17.3017 4.7121 -8.94468
418 1 6.28681 15.7275 3.13961 -8.94989
419 1 7.86088 17.301 4.71367 -8.94898
420 1 9.43429 15.7271 3.1411 -8.94774
421 1 11.0078 17.3005 4.71383 -8.9473
422 1 12.581 15.727 3.14068 -8.95021
423 1 14.1557 17.302 4.71311 -8.94978
424 1 15.7285 15.7282 3.14073 -8.9447
425 1 17.2979 17.2978 4.71655 -8.95063
426 1 18.8704 15.7253 3.14379 -8.94959
427 1 20.441 17.2974 4.71668 -8.94977
428 1 22.0131 18.8699 3.1442 -8.94915
429 1 1.57141 20.4423 4.71648 -8.94935
430 1 3.14321 18.8707 3.14318 -8.94829
431 1 4.71615 20.4429 4.71593 -8.94988
432 1 6.28895 18.8708 3.1433 -8.94951
433 1 7.86194 20.4428 4.71608 -8.9496
434 1 9.43455 18.8707 3.14344 -8.94927
435 1 11.0074 20.4427 4.71613 -8.94949
436 1 12.58 18.8707 3.14356 -8.94901
437 1 14.1526 20.4427 4.71645 -8.95068
438 1 15.7258 18.8711 3.1434 -8.94932
439 1 17.2973 20.442 4.71682 -8.94928
440 1 18.8694 18.8697 3.14444 -8.94983
441 1 20.4414 20.4418 4.71698 -8.9495
442 1 1.56811 11.007 7.85961 -8.94693
443 1 4.71067 11.007 7.85406 -8.93467
444 1 7.87968 11.007 7.87893 -8.9441
445 1 11.0822 11.007 7.63557 -8.11978
446 1 14.1603 11.007 7.85376 -8.97102
447 1 17.2994 11.007 7.8618 -8.95089
448 1 20.441 11.007 7.86161 -8.9497
449 1 22.0124 12.5797 6.28846 -8.94952
450 1 1.56616 14.154 7.85994 -8.95268
451 1 3.14013 12.5798 6.28586 -8.94815
452 1 4.69571 14.1665 7.84819 -8.94034
453 1 6.28409 12.578 6.28193 -8.96212
454 1 7.82052 14.1918 7.82358 -8.85735
455 1 9.41941 12.6026 6.28248 -8.90754
456 1 11.0279 14.1644 7.83063 -8.91001
457 1 12.6197 12.611 6.25282 -8.85534
458 1 14.1568 14.1517 7.8635 -8.95522
459 1 15.7347 12.5816 6.28532 -8.95764
460 1 17.2986 14.1522 7.86239 -8.94998
461 1 18.8712 12.5797 6.28888 -8.95163
462 1 20.4407 14.1524 7.86174 -8.95039
463 1 22.0116 15.7256 6.28849 -8.9502
464 1 1.5698 17.2986 7.86141 -8.95002
465 1 3.13683 15.73 6.28399 -8.94594
466 1 4.71073 17.3046 7.85811 -8.94739
467 1 6.27593 15.7386 6.27503 -8.92991
468 1 7.8588 17.307 7.85885 -8.9573
469 1 9.43419 15.7344 6.28236 -8.94996
470 1 11.0073 17.3008 7.85993 -8.95135
471 1 12.5881 15.7366 6.27908 -8.95391
472 1 14.1563 17.3012 7.85873 -8.94363
473 1 15.7273 15.7259 6.28882 -8.95242
474 1 17.2988 17.2983 7.86118 -8.94907
475 1 18.8697 15.7249 6.28936 -8.95001
476 1 20.4414 17.2976 7.86179 -8.94977
477 1 -0.000830593 18.87 6.28922 -8.94967
478 1 1.57154 20.4421 7.86194 -8.94959
479 1 3.14231 18.8719 6.28788 -8.94894
480 1 4.71572 20.4435 7.86138 -8.95036
481 1 6.28765 18.8737 6.28729 -8.95105
482 1 7.86168 20.4438 7.86139 -8.95128
483 1 9.43479 18.8726 6.28773 -8.95022
484 1 11.0071 20.4428 7.86155 -8.94938
485 1 12.5803 18.8722 6.28836 -8.95254
486 1 14.153 20.4428 7.86129 -8.94976
487 1 15.7259 18.8708 6.28857 -8.94817
488 1 17.2975 20.4421 7.86172 -8.94944
489 1 18.8696 18.8698 6.28925 -8.94937
490 1 20.4415 20.4419 7.86195 -8.94948
491 1 22.0111 12.5795 9.43421 -8.95144
492 1 3.13323 12.5812 9.43083 -8.9584
493 1 6.24609 12.6192 9.39996 -8.88549
494 1 9.36953 12.83 9.43089 -8.11847
495 1 12.5581 12.5658 9.43538 -8.90124
496 1 15.7228 12.5778 9.43422 -8.93966
497 1 18.8694 12.5796 9.43428 -8.94793
498 1 22.0122 15.7253 9.43456 -8.95016
499 1 3.13834 15.728 9.43447 -8.95106
500 1 6.27306 15.7442 9.42807 -8.94447
501 1 9.43029 15.7264 9.43038 -9.00328
502 1 12.5907 15.7344 9.42246 -8.92443
503 1 15.7298 15.7277 9.43254 -8.94799
512 1 1.57018 11.007 11.0075 -8.94884
513 1 4.71402 11.007 10.9982 -8.96797
514 1 7.80072 11.007 10.7644 -8.03232
519 1 1.56871 14.1525 11.0079 -8.95212
520 1 4.70376 14.1554 11.0117 -8.96161
522 1 11.0645 14.1944 10.9961 -8.80608
527 1 4.71297 17.301 11.0091 -8.94666
529 1 11.0092 17.3055 11.0056 -8.96126
351 1 22.0133 12.5796 0.000176117 -8.94946
377 1 18.8696 15.7247 -0.000168436 -8.94943
389 1 15.725 18.87 9.03496e-05 -8.94953
383 1 6.28936 18.87 -4.05271e-05 -8.94937
687 3 8.65277 11.007 12.5744 2.29223
686 1 20.4416 20.4418 20.4416 -8.94932
685 1 18.8699 18.8699 18.8697 -8.94915
515 1 11.0683 11.007 11.2495 -8.03232
516 1 14.155 11.007 11.0157 -8.96797
517 1 17.2989 11.007 11.0064 -8.94884
518 1 20.4415 11.007 11.007 -8.94911
684 1 17.2973 20.442 20.4419 -8.94921
683 1 15.7258 18.8707 18.8707 -8.94829
521 1 7.80456 14.1944 11.0178 -8.80608
682 1 14.1522 20.442 20.442 -8.94955
523 1 14.1653 14.1554 11.0022 -8.96161
524 1 17.3004 14.1525 11.006 -8.95212
525 1 20.4415 14.1523 11.007 -8.95021
526 1 1.57013 17.2984 11.0073 -8.94871
681 1 12.5801 18.8708 18.8706 -8.94951
528 1 7.85984 17.3055 11.0083 -8.96126
680 1 11.0071 20.4421 20.442 -8.94942
530 1 14.1561 17.301 11.0048 -8.94666
679 1 9.43451 18.8707 18.8705 -8.94927
532 1 20.4415 17.2977 11.007 -8.94952
533 1 1.57149 20.4421 11.0071 -8.94944
678 1 7.86195 20.4421 20.442 -8.94945
677 1 6.2891 18.8707 18.8703 -8.94901
536 1 11.0072 20.4434 11.0067 -8.9512
537 1 14.1532 20.4429 11.0064 -8.94917
676 1 4.71689 20.442 20.4419 -8.94945
539 1 20.4415 20.4419 11.007 -8.94952
540 1 1.56965 11.007 14.1521 -8.95089
541 1 4.70874 11.007 14.1601 -8.97102
542 1 7.78683 11.007 14.3783 -8.11978
543 1 10.9894 11.007 14.135 -8.9441
544 1 14.1584 11.007 14.1598 -8.93467
545 1 17.301 11.007 14.1543 -8.94693
546 1 20.4419 11.007 14.1523 -8.9497
547 1 22.0136 12.5796 12.5796 -8.94793
548 1 1.57049 14.1522 14.1515 -8.94998
549 1 3.14627 12.5778 12.5797 -8.93966
550 1 4.71227 14.1517 14.1504 -8.95522
551 1 6.31092 12.5658 12.5785 -8.90124
552 1 7.84117 14.1644 14.1833 -8.91001
553 1 9.49953 12.83 12.583 -8.11847
554 1 11.0485 14.1918 14.1903 -8.85735
555 1 12.623 12.6192 12.6139 -8.88549
556 1 14.1734 14.1665 14.1657 -8.94034
557 1 15.7358 12.5812 12.5831 -8.9584
558 1 17.3029 14.154 14.154 -8.95268
559 1 18.8718 12.5795 12.5797 -8.95144
560 1 20.4423 14.1524 14.1522 -8.95039
561 1 -0.00141928 15.7254 12.5797 -8.95012
562 1 1.57029 17.2983 14.1527 -8.94907
563 1 3.13926 15.7277 12.5814 -8.94799
564 1 4.71273 17.3012 14.1552 -8.94363
565 1 6.2784 15.7344 12.5914 -8.92443
566 1 7.86175 17.3008 14.154 -8.95135
567 1 9.43877 15.7264 12.5835 -9.00328
568 1 11.0103 17.307 14.1551 -8.9573
569 1 12.596 15.7442 12.5858 -8.94447
570 1 14.1583 17.3046 14.1558 -8.94739
571 1 15.7307 15.728 12.5794 -8.95106
572 1 17.2993 17.2986 14.1525 -8.95002
573 1 18.8708 15.7253 12.5793 -8.95016
574 1 20.4416 17.2976 14.1521 -8.94977
575 1 22.0132 18.87 12.5796 -8.94942
576 1 1.57156 20.4421 14.1522 -8.94944
577 1 3.14292 18.871 12.5802 -8.94919
578 1 4.71606 20.4428 14.1526 -8.94976
579 1 6.28783 18.8726 12.581 -8.95051
580 1 7.86192 20.4428 14.1523 -8.94938
581 1 9.43486 18.8719 12.5803 -8.94665
582 1 11.0074 20.4438 14.1525 -8.95128
583 1 12.582 18.8748 12.5796 -8.95243
584 1 14.1533 20.4435 14.1525 -8.95036
585 1 15.7262 18.871 12.5792 -8.94945
586 1 17.2975 20.4421 14.152 -8.94959
587 1 18.8698 18.8699 12.5794 -8.94934
588 1 20.4415 20.4419 14.152 -8.94948
589 1 1.56795 11.007 17.2993 -8.94899
590 1 4.70647 11.007 17.307 -8.94193
591 1 7.85713 11.007 17.2931 -9.00216
592 1 11.0047 11.007 17.2943 -8.94146
593 1 14.1553 11.007 17.3015 -8.94621
594 1 17.2986 11.007 17.2986 -8.94939
595 1 20.4409 11.007 17.2977 -8.94986
596 1 22.0117 12.5797 15.725 -8.95163
597 1 1.56814 14.1538 17.2989 -8.95069
598 1 3.13438 12.5816 15.7286 -8.95764
599 1 4.70428 14.1632 17.3094 -8.93032
600 1 6.24939 12.611 15.7611 -8.85534
601 1 7.86101 14.1567 17.3067 -8.95331
602 1 9.44964 12.6026 15.7314 -8.90754
603 1 11.0128 14.1591 17.3088 -8.95353
604 1 12.585 12.578 15.732 -8.96212
605 1 14.1556 14.1533 17.3015 -8.95342
606 1 15.7289 12.5798 15.728 -8.94815
607 1 17.2986 14.1525 17.2983 -8.9495
608 1 18.8706 12.5797 15.7254 -8.94952
609 1 20.4411 14.1524 17.2975 -8.95003
610 1 22.0133 15.7249 15.7245 -8.95001
611 1 1.57112 17.2978 17.2973 -8.95063
612 1 3.1418 15.7259 15.7251 -8.95242
613 1 4.71339 17.302 17.3008 -8.94978
614 1 6.28095 15.7366 15.7348 -8.95391
615 1 7.86124 17.3005 17.3001 -8.9473
616 1 9.43487 15.7344 15.7315 -8.94996
617 1 11.0082 17.301 17.3002 -8.94898
618 1 12.5931 15.7386 15.7389 -8.92991
619 1 14.1565 17.3017 17.3018 -8.94468
620 1 15.7322 15.73 15.7299 -8.94594
621 1 17.2994 17.2988 17.2987 -8.94835
622 1 18.8713 15.7256 15.7254 -8.9502
623 1 20.4419 17.2974 17.2972 -8.94977
624 1 -0.000580396 18.8698 15.7247 -8.94937
625 1 1.57174 20.442 17.2971 -8.94928
626 1 3.14313 18.8708 15.7253 -8.94817
627 1 4.7165 20.4427 17.2975 -8.95068
628 1 6.28876 18.8722 15.7255 -8.95254
629 1 7.86171 20.4427 17.2978 -8.94949
630 1 9.43426 18.8726 15.7262 -8.95022
631 1 11.0071 20.4428 17.2978 -8.9496
632 1 12.5814 18.8737 15.7266 -8.95105
633 1 14.1529 20.4429 17.298 -8.94988
634 1 15.7267 18.8719 15.726 -8.94894
635 1 17.2976 20.4423 17.2974 -8.94935
636 1 18.8699 18.87 15.7247 -8.94967
637 1 20.4416 20.4418 17.2969 -8.9495
638 1 1.5708 11.007 20.4428 -8.94944
639 1 4.71463 11.007 20.4452 -8.94953
640 1 7.86173 11.007 20.4423 -8.94607
641 1 11.0068 11.007 20.4414 -8.94715
642 1 14.153 11.007 20.4421 -8.95029
643 1 17.2976 11.007 20.4419 -8.94945
644 1 20.4413 11.007 20.442 -8.94947
645 1 -0.00150463 12.5798 18.8703 -8.94924
646 1 1.5709 14.1526 20.4427 -8.94916
647 1 3.14086 12.5807 18.8729 -8.9476
648 1 4.71528 14.1533 20.445 -8.95139
649 1 6.28641 12.5805 18.8772 -8.9589
650 1 7.86212 14.1528 20.444 -8.95116
651 1 9.43388 12.5793 18.8707 -8.95116
652 1 11.0071 14.1524 20.4435 -8.95289
653 1 12.5798 12.5787 18.871 -8.95079
654 1 14.1526 14.1521 20.4421 -8.95061
655 1 15.7259 12.5797 18.8709 -8.94877
656 1 17.2975 14.1522 20.4419 -8.94922
657 1 18.8695 12.5796 18.8699 -8.94944
658 1 20.4413 14.1522 20.4419 -8.9494
659 1 22.0125 15.7253 18.8701 -8.94959
660 1 1.57102 17.298 20.4426 -8.94833
661 1 3.14053 15.7282 18.8732 -8.9447
662 1 4.71624 17.2982 20.4427 -8.95007
663 1 6.28807 15.727 18.8732 -8.95021
664 1 7.86182 17.2982 20.4426 -8.94927
665 1 9.43477 15.7271 18.8728 -8.94774
666 1 11.0073 17.2981 20.4427 -8.94909
667 1 12.5823 15.7275 18.8743 -8.94989
668 1 14.1531 17.2982 20.4431 -8.94942
669 1 15.7261 15.7254 18.8711 -8.95072
670 1 17.2976 17.2975 20.4419 -8.94975
671 1 18.8696 15.7248 18.8698 -8.94973
672 1 20.4413 17.2972 20.4419 -8.94951
673 1 22.0136 18.8697 18.8695 -8.94983
674 1 1.57179 20.4421 20.4419 -8.94931
675 1 3.1433 18.8711 18.8705 -8.94932
391 1 18.8695 18.8697 22.0138 -8.94919
353 1 3.14345 12.5798 22.0148 -8.94931
359 1 12.5798 12.5794 22.0126 -8.95113
369 1 6.2891 15.7253 22.014 -8.95061
375 1 15.7254 15.7252 22.0131 -8.95006
363 1 18.8696 12.5796 22.0137 -8.94946
365 1 -0.000497463 15.7247 22.0141 -8.94943
381 1 3.14408 18.87 22.0138 -8.94953
387 1 12.5797 18.87 22.0139 -8.94937
