ITEM: TIMESTEP
112
ITEM: NUMBER OF ATOMS
688
ITEM: BOX BOUNDS pp pp pp
0.0000000000000000e+00 2.2013900999999997e+01
0.0000000000000000e+00 2.2013900999999997e+01
0.0000000000000000e+00 2.2013900999999997e+01
ITEM: ATOMS id type x y z c_pot
1 1 22.0134 -2.33875e-16 3.60939e-05 -8.94899
2 1 1.57136 1.57171 1.57177 -8.9491
193 1 11.065 7.81829 10.9967 -8.80587
4 1 4.71647 1.5716 1.57163 -8.94947
175 1 18.8691 9.43442 9.43428 -8.94781
6 1 7.86187 1.57162 1.57171 -8.94934
7 1 9.43453 1.1537e-15 -5.80897e-16 -8.94942
8 1 11.0072 1.57163 1.57177 -8.94938
9 1 12.5798 4.39765e-16 4.81483e-05 -8.9494
10 1 14.1525 1.57162 1.57187 -8.9494
174 1 15.7222 9.43628 9.43428 -8.93963
12 1 17.2976 1.57156 1.57187 -8.94921
191 1 4.70341 7.85805 11.0115 -8.96179
14 1 20.4413 1.57191 1.57213 -8.94919
15 1 22.0132 3.1439 7.63373e-05 -8.9491
16 1 1.57105 4.716 1.57175 -8.94974
190 1 1.56855 7.86131 11.0078 -8.95225
18 1 4.71546 4.71519 1.5705 -8.94942
173 1 12.5573 9.44798 9.4355 -8.90209
20 1 7.86159 4.71532 1.57092 -8.94908
21 1 9.43453 3.14352 -1.06156e-14 -8.94938
22 1 11.0074 4.71532 1.57097 -8.94926
188 1 17.2995 4.71512 11.0065 -8.94868
24 1 14.1533 4.71524 1.57085 -8.95012
172 1 9.37046 9.18243 9.43038 -8.11901
26 1 17.2985 4.71544 1.57104 -8.9483
171 1 6.24655 9.39407 9.3995 -8.88561
28 1 20.4416 4.71632 1.57189 -8.94944
186 1 11.0096 4.70793 11.0057 -8.96133
30 1 1.57117 7.86144 1.57193 -8.94917
31 1 3.14325 6.28838 0.000900867 -8.95009
32 1 4.71614 7.86164 1.57173 -8.95068
170 1 3.13324 9.4325 9.43044 -8.95834
34 1 7.86188 7.86125 1.57032 -8.95303
35 1 9.43453 6.28803 -7.91742e-14 -8.94961
36 1 11.0071 7.86088 1.56966 -8.9513
37 1 12.5802 6.2883 -0.000128544 -8.95074
38 1 14.1543 7.86032 1.56848 -8.95141
169 1 22.011 9.43437 9.43408 -8.95137
40 1 17.2986 7.861 1.57082 -8.94908
168 1 18.8706 6.28837 9.4341 -8.95021
42 1 20.4417 7.8615 1.5718 -8.94932
167 1 15.7303 6.28596 9.43231 -8.94798
166 1 12.5913 6.27886 9.42208 -8.9242
45 1 6.28904 9.43452 0.00143328 -8.95118
46 1 9.43453 9.43476 -4.87316e-14 -8.94909
165 1 9.43037 6.28677 9.42992 -9.00321
48 1 15.726 9.43401 -0.00108317 -8.94929
184 1 4.71216 4.71232 11.0092 -8.9465
50 1 22.0131 -4.81739e-16 3.14422 -8.94924
51 1 1.57088 1.57135 4.71608 -8.94926
52 1 3.14363 -2.78121e-14 3.14367 -8.94945
53 1 4.71563 1.57063 4.71546 -8.94988
54 1 6.28913 -1.8017e-14 3.1437 -8.9495
55 1 7.86173 1.57081 4.71568 -8.94962
56 1 9.43462 -1.61608e-14 3.14377 -8.94946
57 1 11.0075 1.57097 4.71578 -8.94949
58 1 12.58 -1.46715e-14 3.1439 -8.94941
59 1 14.1529 1.57092 4.7161 -8.95074
60 1 15.7252 -8.36227e-15 3.14406 -8.95006
61 1 17.2976 1.57167 4.71655 -8.94922
62 1 18.8694 2.27791e-16 3.14446 -8.94931
63 1 20.4413 1.57186 4.71675 -8.94943
64 1 22.0127 3.14368 3.1439 -8.94908
65 1 1.56894 4.71454 4.71469 -8.94835
66 1 3.14258 3.14267 3.14267 -8.94822
67 1 4.71164 4.71139 4.71131 -8.94462
68 1 6.28852 3.14258 3.1428 -8.94945
69 1 7.86041 4.7121 4.71297 -8.94893
70 1 9.43452 3.14272 3.14303 -8.94922
71 1 11.0081 4.71274 4.71313 -8.94724
72 1 12.5803 3.14276 3.14314 -8.94897
73 1 14.1564 4.71121 4.71234 -8.94971
74 1 15.7263 3.14234 3.14298 -8.94929
75 1 17.2984 4.71567 4.71616 -8.95071
76 1 18.8695 3.14387 3.14419 -8.94981
77 1 20.4409 4.71612 4.71641 -8.94981
78 1 22.0131 6.28876 3.14381 -8.94971
79 1 1.56985 7.86113 4.71517 -8.94953
80 1 3.14231 6.28799 3.14238 -8.95078
81 1 4.71277 7.86009 4.71191 -8.95346
82 1 6.28625 6.2858 3.13904 -8.94987
83 1 7.85581 7.854 4.70456 -8.9534
84 1 9.43425 6.28618 3.14059 -8.94771
85 1 11.0084 7.85661 4.70647 -8.95335
86 1 12.5815 6.28639 3.13999 -8.95028
87 1 14.1655 7.85034 4.7038 -8.93033
88 1 15.7292 6.28521 3.14016 -8.94471
89 1 17.3014 7.85985 4.7145 -8.95068
90 1 18.8707 6.28827 3.14348 -8.94957
91 1 20.4418 7.86133 4.71611 -8.95004
92 1 -0.000682884 9.43417 3.14369 -8.9494
93 1 3.14273 9.43404 3.14277 -8.94874
94 1 6.28906 9.43506 3.14283 -8.9508
95 1 9.43526 9.43438 3.14332 -8.95116
96 1 12.5831 9.43325 3.1363 -8.95895
97 1 15.7289 9.433 3.14041 -8.94753
98 1 18.8709 9.43396 3.14327 -8.94919
99 1 22.0132 -2.75135e-16 6.28927 -8.94957
100 1 1.57106 1.57149 7.86178 -8.94955
101 1 3.14317 -4.12076e-14 6.28862 -8.94981
102 1 4.71514 1.57002 7.86114 -8.95044
103 1 6.28868 -2.47456e-13 6.28844 -8.95053
104 1 7.86143 1.56987 7.86118 -8.95137
105 1 9.43468 -1.37042e-13 6.28851 -8.95014
106 1 11.0072 1.57094 7.86133 -8.94942
107 1 12.58 -1.01981e-13 6.28886 -8.95034
108 1 14.1533 1.57085 7.86098 -8.94976
109 1 15.7254 -4.47625e-15 6.28884 -8.94943
110 1 17.2978 1.57161 7.86148 -8.94934
111 1 18.8696 2.78059e-16 6.28925 -8.94942
112 1 20.4414 1.57185 7.86181 -8.94942
113 1 -0.00124682 3.14352 6.28893 -8.94964
114 1 1.56902 4.7147 7.86109 -8.95005
115 1 3.14148 3.1413 6.28733 -8.94885
116 1 4.70959 4.70832 7.85748 -8.94721
117 1 6.28701 3.1395 6.28674 -8.95105
118 1 7.85822 4.70604 7.85832 -8.95727
119 1 9.43469 3.14072 6.28725 -8.95029
120 1 11.0076 4.71251 7.85932 -8.9514
121 1 12.5807 3.14121 6.28785 -8.95258
122 1 14.157 4.71225 7.85814 -8.94353
123 1 15.7264 3.14264 6.28814 -8.94812
124 1 17.2992 4.7153 7.86089 -8.94906
125 1 18.8698 3.14377 6.289 -8.94933
126 1 20.4412 4.71602 7.86163 -8.94983
127 1 22.0111 6.28798 6.28819 -8.95026
128 1 1.56553 7.8596 7.85961 -8.95273
129 1 3.13582 6.28316 6.28333 -8.94598
130 1 4.69489 7.84667 7.84763 -8.94046
131 1 6.27491 6.2742 6.27421 -8.92992
132 1 7.82002 7.82094 7.82303 -8.85741
133 1 9.434 6.2785 6.28153 -8.94991
134 1 11.0286 7.84833 7.82963 -8.90935
135 1 12.5889 6.27655 6.278 -8.95366
136 1 14.1571 7.86202 7.86309 -8.95546
137 1 15.7279 6.28771 6.28829 -8.95254
138 1 17.2986 7.86175 7.86225 -8.95012
139 1 18.8697 6.28879 6.28914 -8.95011
140 1 20.4404 7.86143 7.86163 -8.95044
141 1 22.012 9.43411 6.28817 -8.94951
142 1 3.13957 9.43384 6.28541 -8.94818
143 1 6.28359 9.43533 6.28157 -8.96211
144 1 9.41914 9.41035 6.28227 -8.9074
145 1 12.6199 9.4027 6.25228 -8.85547
146 1 15.735 9.43223 6.28481 -8.95766
147 1 18.8713 9.43413 6.28862 -8.95166
148 1 -0.000624336 -9.56429e-16 9.43446 -8.94942
149 1 3.14334 -1.46548e-14 9.4346 -8.9494
150 1 6.28849 -2.61315e-13 9.43453 -8.95122
151 1 9.43447 -5.13308e-13 9.43409 -8.94891
152 1 12.5803 -7.59165e-14 9.43388 -8.95027
153 1 15.7257 -1.66476e-15 9.43391 -8.94938
154 1 18.8697 5.77013e-16 9.43428 -8.94944
155 1 -0.00100139 3.14364 9.43443 -8.94929
156 1 3.14222 3.14233 9.43464 -8.94941
157 1 6.28639 3.13852 9.43418 -8.95253
158 1 9.43413 3.14181 9.43336 -8.94667
159 1 12.5816 3.14097 9.43267 -8.9505
160 1 15.7267 3.14253 9.43344 -8.9491
161 1 18.8699 3.14366 9.43415 -8.94936
162 1 22.0118 6.28838 9.43449 -8.95028
163 1 3.13745 6.2853 9.4342 -8.95115
164 1 6.27194 6.26851 9.42748 -8.94414
177 1 4.71541 1.57072 11.0076 -8.94916
178 1 7.86174 1.57043 11.0073 -8.95126
181 1 17.2979 1.57156 11.0067 -8.94937
11 1 15.7249 -1.19679e-16 9.65516e-05 -8.94951
19 1 6.2891 3.14356 -6.48995e-05 -8.94931
25 1 15.7254 3.1435 0.000113084 -8.94948
43 1 22.0131 9.4342 0.000249045 -8.94937
41 1 18.8698 6.28886 -0.000210231 -8.94934
176 1 1.57111 1.57156 11.0072 -8.94937
343 1 18.8697 9.43417 18.8702 -8.9494
342 1 15.7263 9.43404 18.8711 -8.94874
179 1 11.0073 1.57043 11.0066 -8.95126
180 1 14.1536 1.57072 11.0063 -8.94916
341 1 12.58 9.43506 18.8711 -8.9508
182 1 20.4415 1.57183 11.007 -8.94945
183 1 1.56961 4.71512 11.0074 -8.94868
340 1 9.4338 9.43438 18.8706 -8.95116
185 1 7.85943 4.70793 11.0082 -8.96133
339 1 6.28593 9.43325 18.8776 -8.95895
187 1 14.1569 4.71232 11.0047 -8.9465
338 1 3.14016 9.433 18.8735 -8.94753
189 1 20.4415 4.71594 11.007 -8.94954
337 1 -0.00183745 9.43396 18.8706 -8.94919
336 1 20.4412 7.8615 20.4421 -8.94932
192 1 7.80409 7.81829 11.0172 -8.80587
335 1 18.8699 6.28876 18.8701 -8.94971
194 1 14.1656 7.85805 11.0024 -8.96179
195 1 17.3005 7.86131 11.0061 -8.95225
196 1 20.4415 7.86156 11.007 -8.95024
197 1 -0.000592483 1.43919e-15 12.5796 -8.94944
198 1 1.57123 1.57161 14.1524 -8.94934
199 1 3.14339 -3.14738e-14 12.58 -8.94938
200 1 4.71571 1.57085 14.1529 -8.94976
201 1 6.2888 -2.38049e-13 12.58 -8.95027
202 1 7.86185 1.57094 14.1526 -8.94942
203 1 9.43459 -8.8806e-14 12.5798 -8.94891
204 1 11.0076 1.56987 14.1527 -8.95137
205 1 12.5806 -1.07852e-13 12.5794 -8.95122
206 1 14.1539 1.57002 14.1528 -8.95044
207 1 15.7257 -8.90237e-16 12.5793 -8.9494
208 1 17.298 1.57149 14.1521 -8.94955
209 1 18.8697 -9.24716e-17 12.5794 -8.94942
210 1 20.4415 1.57185 14.1521 -8.94942
211 1 22.013 3.14366 12.5797 -8.94936
212 1 1.5699 4.7153 14.153 -8.94906
213 1 3.14239 3.14253 12.5805 -8.9491
214 1 4.71209 4.71225 14.1558 -8.94353
215 1 6.28743 3.14097 12.5812 -8.9505
216 1 7.86145 4.71251 14.1546 -8.9514
217 1 9.43493 3.14181 12.5805 -8.94667
218 1 11.0108 4.70604 14.1556 -8.95727
219 1 12.5827 3.13852 12.5797 -8.95253
220 1 14.1595 4.70832 14.1564 -8.94721
221 1 15.7268 3.14233 12.5793 -8.94941
222 1 17.3 4.7147 14.1528 -8.95005
223 1 18.8701 3.14364 12.5795 -8.94929
224 1 20.4417 4.71602 14.1523 -8.94983
225 1 -0.00153893 6.28837 12.5798 -8.95021
226 1 1.57044 7.86175 14.1516 -8.95012
227 1 3.13873 6.28596 12.5816 -8.94798
228 1 4.71195 7.86202 14.1508 -8.95546
229 1 6.27772 6.27886 12.5918 -8.9242
230 1 7.84049 7.84833 14.1843 -8.90935
231 1 9.43868 6.28677 12.584 -9.00321
232 1 11.049 7.82094 14.1909 -8.85741
233 1 12.5971 6.26851 12.5864 -8.94414
234 1 14.1742 7.84667 14.1663 -8.94046
235 1 15.7316 6.2853 12.5797 -8.95115
236 1 17.3035 7.8596 14.1543 -8.95273
237 1 18.8711 6.28838 12.5794 -8.95028
238 1 20.4425 7.86143 14.1523 -8.95044
239 1 22.0138 9.43442 12.5796 -8.94781
240 1 3.14687 9.43628 12.5796 -8.93963
241 1 6.31177 9.44798 12.5784 -8.90209
242 1 9.4986 9.18243 12.5835 -8.11901
243 1 12.6225 9.39407 12.6144 -8.88561
244 1 15.7358 9.4325 12.5835 -8.95834
245 1 18.872 9.43437 12.5798 -8.95137
246 1 -0.000492629 -9.55959e-16 15.7246 -8.94942
247 1 1.57144 1.57167 17.2973 -8.94922
248 1 3.14362 -2.67283e-14 15.7251 -8.94943
249 1 4.71615 1.57092 17.2978 -8.95074
250 1 6.28911 -1.32516e-14 15.725 -8.95034
251 1 7.86158 1.57097 17.2981 -8.94949
252 1 9.43438 -2.02453e-14 15.7254 -8.95014
253 1 11.0073 1.57081 17.2982 -8.94962
254 1 12.5804 -1.42923e-14 15.7255 -8.95053
255 1 14.1534 1.57063 17.2984 -8.94988
256 1 15.7259 -9.30125e-15 15.7253 -8.94981
257 1 17.2982 1.57135 17.2978 -8.94926
258 1 18.8697 -6.84884e-16 15.7246 -8.94957
259 1 20.4417 1.57186 17.2972 -8.94943
260 1 -0.000722581 3.14377 15.7249 -8.94933
261 1 1.57069 4.71567 17.2977 -8.95071
262 1 3.14264 3.14264 15.7258 -8.94812
263 1 4.71266 4.71121 17.3016 -8.94971
264 1 6.2884 3.14121 15.7261 -8.95258
265 1 7.86099 4.71274 17.3008 -8.94724
266 1 9.43437 3.14072 15.7266 -8.95029
267 1 11.0086 4.7121 17.3009 -8.94893
268 1 12.582 3.1395 15.7272 -8.95105
269 1 14.1574 4.71139 17.3026 -8.94462
270 1 15.7276 3.1413 15.7266 -8.94885
271 1 17.3001 4.71454 17.2992 -8.94835
272 1 18.8703 3.14352 15.725 -8.94964
273 1 20.4421 4.71612 17.2975 -8.94981
274 1 22.0132 6.28879 15.7248 -8.95011
275 1 1.56766 7.85985 17.2994 -8.95068
276 1 3.14121 6.28771 15.7256 -8.95254
277 1 4.70358 7.85034 17.3101 -8.93033
278 1 6.28014 6.27655 15.7359 -8.95366
279 1 7.86069 7.85661 17.3074 -8.95335
280 1 9.43506 6.2785 15.7324 -8.94991
281 1 11.0132 7.854 17.3093 -8.9534
282 1 12.5941 6.2742 15.7397 -8.92992
283 1 14.1563 7.86009 17.302 -8.95346
284 1 15.7332 6.28316 15.7306 -8.94598
285 1 17.2992 7.86113 17.2987 -8.94953
286 1 18.8719 6.28798 15.7257 -8.95026
287 1 20.4412 7.86133 17.2978 -8.95004
288 1 22.0117 9.43413 15.7253 -8.95166
289 1 3.13407 9.43223 15.7291 -8.95766
290 1 6.24916 9.4027 15.7616 -8.85547
291 1 9.44992 9.41035 15.7316 -8.9074
292 1 12.5855 9.43533 15.7323 -8.96211
293 1 15.7295 9.43384 15.7285 -8.94818
294 1 18.8709 9.43411 15.7257 -8.94951
295 1 22.0136 -9.36654e-16 18.8694 -8.94931
296 1 1.57146 1.57156 20.442 -8.94921
297 1 3.1439 -5.25084e-16 18.8698 -8.95006
298 1 4.71658 1.57162 20.442 -8.9494
299 1 6.2891 -4.26912e-16 18.87 -8.94941
300 1 7.86183 1.57163 20.4421 -8.94938
301 1 9.43444 -6.14354e-16 18.8701 -8.94946
302 1 11.0072 1.57162 20.4422 -8.94934
303 1 12.5799 -2.9764e-16 18.8702 -8.9495
304 1 14.1526 1.5716 20.4423 -8.94947
305 1 15.7254 -1.98121e-16 18.8702 -8.94945
306 1 17.2977 1.57171 20.4421 -8.9491
307 1 18.8698 1.32592e-16 18.8697 -8.94924
308 1 20.4417 1.57191 20.4418 -8.94919
309 1 22.0134 3.14387 18.8697 -8.94981
310 1 1.57061 4.71544 20.4429 -8.9483
311 1 3.14279 3.14234 18.8709 -8.94929
312 1 4.71577 4.71524 20.443 -8.95012
313 1 6.28876 3.14276 18.8708 -8.94897
314 1 7.86164 4.71532 20.4429 -8.94926
315 1 9.43453 3.14272 18.8709 -8.94922
316 1 11.0075 4.71532 20.443 -8.94908
317 1 12.5805 3.14258 18.8711 -8.94945
318 1 14.1536 4.71519 20.4434 -8.94942
319 1 15.7265 3.14267 18.8712 -8.94822
320 1 17.298 4.716 20.4422 -8.94974
321 1 18.8703 3.14368 18.87 -8.94908
322 1 20.4414 4.71632 20.442 -8.94944
323 1 22.0123 6.28827 18.8704 -8.94957
324 1 1.57043 7.861 20.4431 -8.94908
325 1 3.1399 6.28521 18.8737 -8.94471
326 1 4.7148 7.86032 20.4454 -8.95141
327 1 6.28754 6.28639 18.8739 -8.95028
328 1 7.86195 7.86088 20.4442 -8.9513
329 1 9.4348 6.28618 18.8733 -8.94771
330 1 11.0072 7.86125 20.4436 -8.95303
331 1 12.5828 6.2858 18.8749 -8.94987
332 1 14.1529 7.86164 20.4422 -8.95068
333 1 15.7267 6.28799 18.8715 -8.95078
334 1 17.2979 7.86144 20.442 -8.94917
5 1 6.2893 1.40737e-16 22.0139 -8.9494
47 1 12.58 9.43452 22.0125 -8.95118
44 1 3.14304 9.43401 22.015 -8.94929
39 1 15.7258 6.28838 22.013 -8.95009
27 1 18.8697 3.1439 22.0138 -8.9491
33 1 6.28883 6.2883 22.014 -8.95074
3 1 3.14414 -2.0468e-16 22.0138 -8.94951
13 1 18.8696 1.18657e-15 22.0139 -8.94899
17 1 3.14364 3.1435 22.0138 -8.94948
23 1 12.58 3.14356 22.014 -8.94931
29 1 -0.00071868 6.28886 22.0141 -8.94934
49 1 18.8698 9.4342 22.0137 -8.94937
344 1 1.57114 11.007 1.57193 -8.94941
345 1 4.71582 11.007 1.57186 -8.95033
346 1 7.86225 11.007 1.57266 -8.94703
347 1 11.0075 11.007 1.57172 -8.94594
348 1 14.155 11.007 1.56831 -8.94954
349 1 17.2988 11.007 1.57074 -8.94939
350 1 20.4418 11.007 1.57176 -8.94939
688 3 10.2141 11.007 9.4405 2.28984
352 1 1.57117 14.1525 1.57193 -8.94917
511 1 18.8699 18.8702 9.43415 -8.94936
354 1 4.71614 14.1523 1.57173 -8.95068
355 1 6.28904 12.5794 0.00143328 -8.95118
356 1 7.86188 14.1526 1.57032 -8.95303
357 1 9.43453 12.5791 4.90026e-14 -8.94909
358 1 11.0071 14.153 1.56966 -8.9513
510 1 15.7267 18.8714 9.43344 -8.9491
360 1 14.1543 14.1536 1.56848 -8.95141
361 1 15.726 12.5799 -0.00108317 -8.94929
362 1 17.2986 14.1529 1.57082 -8.94908
538 1 17.2979 20.4423 11.0067 -8.94937
364 1 20.4417 14.1524 1.5718 -8.94932
535 1 7.86174 20.4435 11.0073 -8.95126
366 1 1.57105 17.2979 1.57175 -8.94974
367 1 3.14325 15.7255 0.000900867 -8.95009
368 1 4.71546 17.2987 1.5705 -8.94942
509 1 12.5816 18.8729 9.43267 -8.9505
370 1 7.86159 17.2986 1.57092 -8.94908
371 1 9.43453 15.7259 8.07608e-14 -8.94961
372 1 11.0074 17.2986 1.57097 -8.94926
373 1 12.5802 15.7256 -0.000128544 -8.95074
374 1 14.1533 17.2987 1.57085 -8.95012
508 1 9.43413 18.8721 9.43336 -8.94667
376 1 17.2985 17.2985 1.57104 -8.9483
507 1 6.28639 18.8754 9.43418 -8.95253
378 1 20.4416 17.2976 1.57189 -8.94944
379 1 22.0132 18.87 7.63373e-05 -8.9491
380 1 1.57136 20.4422 1.57177 -8.9491
534 1 4.71541 20.4432 11.0076 -8.94916
382 1 4.71647 20.4423 1.57163 -8.94947
506 1 3.14222 18.8716 9.43464 -8.94941
384 1 7.86187 20.4423 1.57171 -8.94934
385 1 9.43453 18.8704 1.10431e-14 -8.94938
386 1 11.0072 20.4423 1.57177 -8.94938
531 1 17.2995 17.2988 11.0065 -8.94868
388 1 14.1525 20.4423 1.57187 -8.9494
505 1 -0.00100139 18.8703 9.43443 -8.94929
390 1 17.2976 20.4423 1.57187 -8.94921
504 1 18.8706 15.7255 9.4341 -8.95021
392 1 20.4413 20.442 1.57213 -8.94919
393 1 1.57004 11.007 4.71494 -8.9494
394 1 4.71335 11.007 4.7121 -8.94619
395 1 7.86431 11.007 4.71985 -8.9415
396 1 11.012 11.007 4.72105 -9.00218
397 1 14.1632 11.007 4.70621 -8.94181
398 1 17.3016 11.007 4.71401 -8.94896
399 1 20.442 11.007 4.71588 -8.94986
400 1 -0.000682884 12.5797 3.14369 -8.9494
401 1 1.56985 14.1528 4.71517 -8.94953
402 1 3.14273 12.5799 3.14277 -8.94874
403 1 4.71277 14.1538 4.71191 -8.95346
404 1 6.28906 12.5788 3.14283 -8.9508
405 1 7.85581 14.1599 4.70456 -8.9534
406 1 9.43526 12.5795 3.14332 -8.95116
407 1 11.0084 14.1573 4.70647 -8.95335
408 1 12.5831 12.5806 3.1363 -8.95895
409 1 14.1655 14.1636 4.7038 -8.93033
410 1 15.7289 12.5809 3.14041 -8.94753
411 1 17.3014 14.1541 4.7145 -8.95068
412 1 18.8709 12.5799 3.14327 -8.94919
413 1 20.4418 14.1526 4.71611 -8.95004
414 1 22.0131 15.7251 3.14381 -8.94971
415 1 1.56894 17.2994 4.71469 -8.94835
416 1 3.14231 15.7259 3.14238 -8.95078
417 1 4.71164 17.3025 4.71131 -8.94462
418 1 6.28625 15.7281 3.13904 -8.94987
419 1 7.86041 17.3018 4.71297 -8.94893
420 1 9.43425 15.7277 3.14059 -8.94771
421 1 11.0081 17.3012 4.71313 -8.94724
422 1 12.5815 15.7275 3.13999 -8.95028
423 1 14.1564 17.3027 4.71234 -8.94971
424 1 15.7292 15.7287 3.14016 -8.94471
425 1 17.2984 17.2982 4.71616 -8.95071
426 1 18.8707 15.7256 3.14348 -8.94957
427 1 20.4409 17.2978 4.71641 -8.94981
428 1 22.0127 18.8702 3.1439 -8.94908
429 1 1.57088 20.4426 4.71608 -8.94926
430 1 3.14258 18.8712 3.14267 -8.94822
431 1 4.71563 20.4433 4.71546 -8.94988
432 1 6.28852 18.8713 3.1428 -8.94945
433 1 7.86173 20.4431 4.71568 -8.94962
434 1 9.43452 18.8712 3.14303 -8.94922
435 1 11.0075 20.4429 4.71578 -8.94949
436 1 12.5803 18.8711 3.14314 -8.94897
437 1 14.1529 20.443 4.7161 -8.95074
438 1 15.7263 18.8716 3.14298 -8.94929
439 1 17.2976 20.4422 4.71655 -8.94922
440 1 18.8695 18.87 3.14419 -8.94981
441 1 20.4413 20.442 4.71675 -8.94943
442 1 1.5678 11.007 7.85927 -8.94686
443 1 4.71058 11.007 7.85366 -8.93491
444 1 7.87946 11.007 7.87855 -8.94378
445 1 11.0816 11.007 7.63518 -8.12302
446 1 14.1597 11.007 7.85347 -8.97096
447 1 17.2991 11.007 7.86163 -8.95081
448 1 20.4408 11.007 7.86146 -8.94963
449 1 22.012 12.5798 6.28817 -8.94951
450 1 1.56553 14.1543 7.85961 -8.95273
451 1 3.13957 12.5801 6.28541 -8.94818
452 1 4.69489 14.1672 7.84763 -8.94046
453 1 6.28359 12.5786 6.28157 -8.96211
454 1 7.82002 14.193 7.82303 -8.85741
455 1 9.41914 12.6035 6.28227 -8.9074
456 1 11.0286 14.1656 7.82963 -8.90935
457 1 12.6199 12.6112 6.25228 -8.85547
458 1 14.1571 14.1519 7.86309 -8.95546
459 1 15.735 12.5817 6.28481 -8.95766
460 1 17.2986 14.1521 7.86225 -8.95012
461 1 18.8713 12.5798 6.28862 -8.95166
462 1 20.4404 14.1525 7.86163 -8.95044
463 1 22.0111 15.7259 6.28819 -8.95026
464 1 1.56902 17.2992 7.86109 -8.95005
465 1 3.13582 15.7307 6.28333 -8.94598
466 1 4.70959 17.3056 7.85748 -8.94721
467 1 6.27491 15.7397 6.27421 -8.92992
468 1 7.85822 17.3079 7.85832 -8.95727
469 1 9.434 15.7354 6.28153 -8.94991
470 1 11.0076 17.3014 7.85932 -8.9514
471 1 12.5889 15.7373 6.278 -8.95366
472 1 14.157 17.3017 7.85814 -8.94353
473 1 15.7279 15.7262 6.28829 -8.95254
474 1 17.2992 17.2986 7.86089 -8.94906
475 1 18.8697 15.7251 6.28914 -8.95011
476 1 20.4412 17.2979 7.86163 -8.94983
477 1 -0.00124682 18.8704 6.28893 -8.94964
478 1 1.57106 20.4424 7.86178 -8.94955
479 1 3.14148 18.8726 6.28733 -8.94885
480 1 4.71514 20.4439 7.86114 -8.95044
481 1 6.28701 18.8744 6.28674 -8.95105
482 1 7.86143 20.444 7.86118 -8.95137
483 1 9.43469 18.8732 6.28725 -8.95029
484 1 11.0072 20.443 7.86133 -8.94942
485 1 12.5807 18.8727 6.28785 -8.95258
486 1 14.1533 20.4431 7.86098 -8.94976
487 1 15.7264 18.8713 6.28814 -8.94812
488 1 17.2978 20.4423 7.86148 -8.94934
489 1 18.8698 18.8701 6.289 -8.94933
490 1 20.4414 20.442 7.86181 -8.94942
491 1 22.011 12.5795 9.43408 -8.95137
492 1 3.13324 12.5814 9.43044 -8.95834
493 1 6.24655 12.6198 9.3995 -8.88561
494 1 9.37046 12.8315 9.43038 -8.11901
495 1 12.5573 12.5659 9.4355 -8.90209
496 1 15.7222 12.5776 9.43428 -8.93963
497 1 18.8691 12.5795 9.43428 -8.94781
498 1 22.0118 15.7255 9.43449 -8.95028
499 1 3.13745 15.7286 9.4342 -8.95115
500 1 6.27194 15.7454 9.42748 -8.94414
501 1 9.43037 15.7271 9.42992 -9.00321
502 1 12.5913 15.735 9.42208 -8.9242
503 1 15.7303 15.7279 9.43231 -8.94798
512 1 1.57064 11.007 11.0073 -8.94859
513 1 4.71525 11.007 10.9976 -8.96783
514 1 7.80229 11.007 10.7635 -8.03164
519 1 1.56855 14.1526 11.0078 -8.95225
520 1 4.70341 14.1558 11.0115 -8.96179
522 1 11.065 14.1956 10.9967 -8.80587
527 1 4.71216 17.3016 11.0092 -8.9465
529 1 11.0096 17.306 11.0057 -8.96133
351 1 22.0131 12.5797 0.000249045 -8.94937
377 1 18.8698 15.725 -0.000210231 -8.94934
389 1 15.7254 18.8704 0.000113084 -8.94948
383 1 6.2891 18.8703 -6.48995e-05 -8.94931
687 3 8.65497 11.007 12.5734 2.28984
686 1 20.4417 20.442 20.4418 -8.94919
685 1 18.8703 18.8702 18.87 -8.94908
515 1 11.0668 11.007 11.2504 -8.03164
516 1 14.1538 11.007 11.0163 -8.96783
517 1 17.2984 11.007 11.0066 -8.94859
518 1 20.4415 11.007 11.007 -8.94887
684 1 17.2977 20.4422 20.4421 -8.9491
683 1 15.7265 18.8712 18.8712 -8.94822
521 1 7.80409 14.1956 11.0172 -8.80587
682 1 14.1526 20.4423 20.4423 -8.94947
523 1 14.1656 14.1558 11.0024 -8.96179
524 1 17.3005 14.1526 11.0061 -8.95225
525 1 20.4415 14.1523 11.007 -8.95024
526 1 1.56961 17.2988 11.0074 -8.94868
681 1 12.5805 18.8713 18.8711 -8.94945
528 1 7.85943 17.306 11.0082 -8.96133
680 1 11.0072 20.4423 20.4422 -8.94934
530 1 14.1569 17.3016 11.0047 -8.9465
679 1 9.43453 18.8712 18.8709 -8.94922
532 1 20.4415 17.298 11.007 -8.94954
533 1 1.57111 20.4423 11.0072 -8.94937
678 1 7.86183 20.4423 20.4421 -8.94938
677 1 6.28876 18.8711 18.8708 -8.94897
536 1 11.0073 20.4435 11.0066 -8.95126
537 1 14.1536 20.4432 11.0063 -8.94916
676 1 4.71658 20.4423 20.442 -8.9494
539 1 20.4415 20.4421 11.007 -8.94945
540 1 1.56992 11.007 14.1523 -8.95081
541 1 4.70932 11.007 14.1604 -8.97096
542 1 7.78749 11.007 14.3787 -8.12302
543 1 10.9896 11.007 14.1353 -8.94378
544 1 14.1585 11.007 14.1602 -8.93491
545 1 17.3013 11.007 14.1546 -8.94686
546 1 20.4422 11.007 14.1524 -8.94963
547 1 22.0138 12.5795 12.5796 -8.94781
548 1 1.57044 14.1521 14.1516 -8.95012
549 1 3.14687 12.5776 12.5796 -8.93963
550 1 4.71195 14.1519 14.1508 -8.95546
551 1 6.31177 12.5659 12.5784 -8.90209
552 1 7.84049 14.1656 14.1843 -8.90935
553 1 9.4986 12.8315 12.5835 -8.11901
554 1 11.049 14.193 14.1909 -8.85741
555 1 12.6225 12.6198 12.6144 -8.88561
556 1 14.1742 14.1672 14.1663 -8.94046
557 1 15.7358 12.5814 12.5835 -8.95834
558 1 17.3035 14.1543 14.1543 -8.95273
559 1 18.872 12.5795 12.5798 -8.95137
560 1 20.4425 14.1525 14.1523 -8.95044
561 1 -0.00153893 15.7255 12.5798 -8.95021
562 1 1.5699 17.2986 14.153 -8.94906
563 1 3.13873 15.7279 12.5816 -8.94798
564 1 4.71209 17.3017 14.1558 -8.94353
565 1 6.27772 15.735 12.5918 -8.9242
566 1 7.86145 17.3014 14.1546 -8.9514
567 1 9.43868 15.7271 12.584 -9.00321
568 1 11.0108 17.3079 14.1556 -8.95727
569 1 12.5971 15.7454 12.5864 -8.94414
570 1 14.1595 17.3056 14.1564 -8.94721
571 1 15.7316 15.7286 12.5797 -8.95115
572 1 17.3 17.2992 14.1528 -8.95005
573 1 18.8711 15.7255 12.5794 -8.95028
574 1 20.4417 17.2979 14.1523 -8.94983
575 1 22.013 18.8702 12.5797 -8.94936
576 1 1.57123 20.4423 14.1524 -8.94934
577 1 3.14239 18.8714 12.5805 -8.9491
578 1 4.71571 20.4431 14.1529 -8.94976
579 1 6.28743 18.8729 12.5812 -8.9505
580 1 7.86185 20.443 14.1526 -8.94942
581 1 9.43493 18.8721 12.5805 -8.94667
582 1 11.0076 20.444 14.1527 -8.95137
583 1 12.5827 18.8754 12.5797 -8.95253
584 1 14.1539 20.4439 14.1528 -8.95044
585 1 15.7268 18.8716 12.5793 -8.94941
586 1 17.298 20.4424 14.1521 -8.94955
587 1 18.8701 18.8703 12.5795 -8.94929
588 1 20.4415 20.442 14.1521 -8.94942
589 1 1.56744 11.007 17.2999 -8.94896
590 1 4.70585 11.007 17.3077 -8.94181
591 1 7.85706 11.007 17.2928 -9.00218
592 1 11.0047 11.007 17.2941 -8.9415
593 1 14.1557 11.007 17.3018 -8.94619
594 1 17.299 11.007 17.299 -8.9494
595 1 20.4409 11.007 17.298 -8.94986
596 1 22.0117 12.5798 15.7253 -8.95166
597 1 1.56766 14.1541 17.2994 -8.95068
598 1 3.13407 12.5817 15.7291 -8.95766
599 1 4.70358 14.1636 17.3101 -8.93033
600 1 6.24916 12.6112 15.7616 -8.85547
601 1 7.86069 14.1573 17.3074 -8.95335
602 1 9.44992 12.6035 15.7316 -8.9074
603 1 11.0132 14.1599 17.3093 -8.9534
604 1 12.5855 12.5786 15.7323 -8.96211
605 1 14.1563 14.1538 17.302 -8.95346
606 1 15.7295 12.5801 15.7285 -8.94818
607 1 17.2992 14.1528 17.2987 -8.94953
608 1 18.8709 12.5798 15.7257 -8.94951
609 1 20.4412 14.1526 17.2978 -8.95004
610 1 22.0132 15.7251 15.7248 -8.95011
611 1 1.57069 17.2982 17.2977 -8.95071
612 1 3.14121 15.7262 15.7256 -8.95254
613 1 4.71266 17.3027 17.3016 -8.94971
614 1 6.28014 15.7373 15.7359 -8.95366
615 1 7.86099 17.3012 17.3008 -8.94724
616 1 9.43506 15.7354 15.7324 -8.94991
617 1 11.0086 17.3018 17.3009 -8.94893
618 1 12.5941 15.7397 15.7397 -8.92992
619 1 14.1574 17.3025 17.3026 -8.94462
620 1 15.7332 15.7307 15.7306 -8.94598
621 1 17.3001 17.2994 17.2992 -8.94835
622 1 18.8719 15.7259 15.7257 -8.95026
623 1 20.4421 17.2978 17.2975 -8.94981
624 1 -0.000722581 18.8701 15.7249 -8.94933
625 1 1.57144 20.4422 17.2973 -8.94922
626 1 3.14264 18.8713 15.7258 -8.94812
627 1 4.71615 20.443 17.2978 -8.95074
628 1 6.2884 18.8727 15.7261 -8.95258
629 1 7.86158 20.4429 17.2981 -8.94949
630 1 9.43437 18.8732 15.7266 -8.95029
631 1 11.0073 20.4431 17.2982 -8.94962
632 1 12.582 18.8744 15.7272 -8.95105
633 1 14.1534 20.4433 17.2984 -8.94988
634 1 15.7276 18.8726 15.7266 -8.94885
635 1 17.2982 20.4426 17.2978 -8.94926
636 1 18.8703 18.8704 15.725 -8.94964
637 1 20.4417 20.442 17.2972 -8.94943
638 1 1.5703 11.007 20.4432 -8.94939
639 1 4.71408 11.007 20.4456 -8.94954
640 1 7.86156 11.007 20.4422 -8.94594
641 1 11.0068 11.007 20.4412 -8.94703
642 1 14.1532 11.007 20.442 -8.95033
643 1 17.2979 11.007 20.442 -8.94941
644 1 20.4412 11.007 20.4421 -8.94939
645 1 -0.00183745 12.5799 18.8706 -8.94919
646 1 1.57043 14.1529 20.4431 -8.94908
647 1 3.14016 12.5809 18.8735 -8.94753
648 1 4.7148 14.1536 20.4454 -8.95141
649 1 6.28593 12.5806 18.8776 -8.95895
650 1 7.86195 14.153 20.4442 -8.9513
651 1 9.4338 12.5795 18.8706 -8.95116
652 1 11.0072 14.1526 20.4436 -8.95303
653 1 12.58 12.5788 18.8711 -8.9508
654 1 14.1529 14.1523 20.4422 -8.95068
655 1 15.7263 12.5799 18.8711 -8.94874
656 1 17.2979 14.1525 20.442 -8.94917
657 1 18.8697 12.5797 18.8702 -8.9494
658 1 20.4412 14.1524 20.4421 -8.94932
659 1 22.0123 15.7256 18.8704 -8.94957
660 1 1.57061 17.2985 20.4429 -8.9483
661 1 3.1399 15.7287 18.8737 -8.94471
662 1 4.71577 17.2987 20.443 -8.95012
663 1 6.28754 15.7275 18.8739 -8.95028
664 1 7.86164 17.2986 20.4429 -8.94926
665 1 9.4348 15.7277 18.8733 -8.94771
666 1 11.0075 17.2986 20.443 -8.94908
667 1 12.5828 15.7281 18.8749 -8.94987
668 1 14.1536 17.2987 20.4434 -8.94942
669 1 15.7267 15.7259 18.8715 -8.95078
670 1 17.298 17.2979 20.4422 -8.94974
671 1 18.8699 15.7251 18.8701 -8.94971
672 1 20.4414 17.2976 20.442 -8.94944
673 1 22.0134 18.87 18.8697 -8.94981
674 1 1.57146 20.4423 20.442 -8.94921
675 1 3.14279 18.8716 18.8709 -8.94929
391 1 18.8697 18.87 22.0138 -8.9491
353 1 3.14304 12.5799 22.015 -8.94929
359 1 12.58 12.5794 22.0125 -8.95118
369 1 6.28883 15.7256 22.014 -8.95074
375 1 15.7258 15.7255 22.013 -8.95009
363 1 18.8698 12.5797 22.0137 -8.94937
365 1 -0.00071868 15.725 22.0141 -8.94934
381 1 3.14364 18.8704 22.0138 -8.94948
387 1 12.58 18.8703 22.014 -8.94931
