ITEM: TIMESTEP
113
ITEM: NUMBER OF ATOMS
688
ITEM: BOX BOUNDS pp pp pp
0.0000000000000000e+00 2.2013900999999997e+01
0.0000000000000000e+00 2.2013900999999997e+01
0.0000000000000000e+00 2.2013900999999997e+01
ITEM: ATOMS id type x y z c_pot
1 1 22.0133 -1.31656e-15 3.51747e-05 -8.94899
2 1 1.57134 1.5717 1.57176 -8.9491
193 1 11.065 7.81824 10.9967 -8.80585
4 1 4.71645 1.57159 1.57162 -8.94947
175 1 18.8691 9.43442 9.43428 -8.94781
6 1 7.86186 1.57161 1.5717 -8.94934
7 1 9.43453 -6.99911e-18 -5.54408e-16 -8.94942
8 1 11.0072 1.57162 1.57177 -8.94938
9 1 12.5798 -6.5852e-16 5.00352e-05 -8.94939
10 1 14.1525 1.57161 1.57187 -8.9494
174 1 15.7222 9.43628 9.43428 -8.93963
12 1 17.2976 1.57155 1.57187 -8.94921
191 1 4.70341 7.85804 11.0115 -8.9618
14 1 20.4413 1.5719 1.57212 -8.94919
15 1 22.0132 3.14389 7.5984e-05 -8.9491
16 1 1.57103 4.71598 1.57174 -8.94973
190 1 1.56855 7.86131 11.0078 -8.95225
18 1 4.71544 4.71517 1.57049 -8.94942
173 1 12.5573 9.44798 9.43551 -8.90214
20 1 7.86158 4.7153 1.57091 -8.94908
21 1 9.43453 3.14351 -1.47258e-14 -8.94938
22 1 11.0074 4.7153 1.57096 -8.94926
188 1 17.2995 4.71511 11.0065 -8.94868
24 1 14.1533 4.71522 1.57084 -8.95012
172 1 9.37048 9.18235 9.43036 -8.11896
26 1 17.2985 4.71542 1.57103 -8.9483
171 1 6.24657 9.39405 9.39948 -8.88561
28 1 20.4416 4.71631 1.57189 -8.94944
186 1 11.0096 4.7079 11.0057 -8.96133
30 1 1.57115 7.86143 1.57193 -8.94917
31 1 3.14323 6.28837 0.000904556 -8.95009
32 1 4.71613 7.86163 1.57173 -8.95068
170 1 3.13324 9.4325 9.43043 -8.95833
34 1 7.86187 7.86124 1.57032 -8.95303
35 1 9.43453 6.28802 -1.23179e-13 -8.94961
36 1 11.0071 7.86087 1.56965 -8.9513
37 1 12.5802 6.28829 -0.000131423 -8.95074
38 1 14.1543 7.86031 1.56847 -8.95141
169 1 22.011 9.43437 9.43408 -8.95137
40 1 17.2986 7.86099 1.57081 -8.94908
168 1 18.8706 6.28837 9.4341 -8.95021
42 1 20.4417 7.86149 1.5718 -8.94931
167 1 15.7303 6.28595 9.4323 -8.94798
166 1 12.5914 6.27884 9.42206 -8.92419
45 1 6.28903 9.43452 0.001439 -8.95118
46 1 9.43453 9.43476 -6.53851e-14 -8.94909
165 1 9.43038 6.28673 9.4299 -9.00322
48 1 15.726 9.434 -0.00109129 -8.94929
184 1 4.71213 4.7123 11.0092 -8.94649
50 1 22.0131 -1.82364e-15 3.14421 -8.94924
51 1 1.57085 1.57134 4.71607 -8.94926
52 1 3.14361 -4.44272e-14 3.14365 -8.94945
53 1 4.71561 1.57062 4.71544 -8.94988
54 1 6.28912 -1.97106e-14 3.14369 -8.94949
55 1 7.86172 1.5708 4.71567 -8.94962
56 1 9.43461 -1.33033e-14 3.14376 -8.94946
57 1 11.0075 1.57096 4.71576 -8.94949
58 1 12.58 -2.02017e-14 3.14389 -8.94941
59 1 14.1529 1.57091 4.71608 -8.95074
60 1 15.7252 -1.43917e-14 3.14405 -8.95006
61 1 17.2976 1.57166 4.71654 -8.94922
62 1 18.8694 -8.52226e-17 3.14445 -8.94931
63 1 20.4413 1.57185 4.71674 -8.94943
64 1 22.0127 3.14366 3.14389 -8.94908
65 1 1.56891 4.71452 4.71467 -8.94835
66 1 3.14256 3.14265 3.14265 -8.94822
67 1 4.71161 4.71136 4.71128 -8.94462
68 1 6.2885 3.14256 3.14278 -8.94945
69 1 7.8604 4.71207 4.71294 -8.94893
70 1 9.43452 3.1427 3.14302 -8.94922
71 1 11.0081 4.71272 4.7131 -8.94724
72 1 12.5803 3.14274 3.14313 -8.94897
73 1 14.1564 4.71119 4.71231 -8.94971
74 1 15.7263 3.14232 3.14297 -8.94928
75 1 17.2984 4.71565 4.71615 -8.95071
76 1 18.8695 3.14386 3.14418 -8.94981
77 1 20.4409 4.71611 4.71639 -8.94981
78 1 22.013 6.28875 3.1438 -8.94971
79 1 1.56983 7.86112 4.71515 -8.94953
80 1 3.14229 6.28797 3.14237 -8.95078
81 1 4.71275 7.86007 4.71189 -8.95346
82 1 6.28623 6.28577 3.13902 -8.94987
83 1 7.8558 7.85397 4.70455 -8.9534
84 1 9.43425 6.28616 3.14057 -8.94771
85 1 11.0084 7.85658 4.70645 -8.95335
86 1 12.5815 6.28637 3.13996 -8.95029
87 1 14.1655 7.85033 4.70378 -8.93033
88 1 15.7292 6.2852 3.14014 -8.94471
89 1 17.3014 7.85984 4.71449 -8.95068
90 1 18.8707 6.28826 3.14347 -8.94957
91 1 20.4418 7.86132 4.7161 -8.95004
92 1 -0.000691062 9.43416 3.14368 -8.9494
93 1 3.14272 9.43404 3.14277 -8.94874
94 1 6.28905 9.43506 3.14283 -8.9508
95 1 9.43526 9.43437 3.14332 -8.95116
96 1 12.5831 9.43325 3.13628 -8.95895
97 1 15.7289 9.43299 3.14039 -8.94752
98 1 18.8709 9.43396 3.14326 -8.94919
99 1 22.0132 -1.77055e-15 6.28926 -8.94957
100 1 1.57104 1.57148 7.86178 -8.94955
101 1 3.14315 -5.22016e-14 6.28861 -8.94981
102 1 4.71511 1.57001 7.86113 -8.95044
103 1 6.28867 -3.15857e-13 6.28843 -8.95053
104 1 7.86142 1.56986 7.86117 -8.95137
105 1 9.43468 -3.53156e-13 6.2885 -8.95015
106 1 11.0072 1.57094 7.86132 -8.94943
107 1 12.58 -1.24012e-13 6.28885 -8.95034
108 1 14.1534 1.57084 7.86097 -8.94976
109 1 15.7255 -7.68251e-15 6.28883 -8.94943
110 1 17.2978 1.57161 7.86147 -8.94934
111 1 18.8696 -4.45365e-16 6.28924 -8.94941
112 1 20.4414 1.57185 7.8618 -8.94941
113 1 -0.00126418 3.14351 6.28892 -8.94964
114 1 1.56899 4.71468 7.86108 -8.95005
115 1 3.14145 3.14127 6.28731 -8.94885
116 1 4.70955 4.70829 7.85746 -8.9472
117 1 6.28698 3.13947 6.28672 -8.95105
118 1 7.8582 4.70601 7.8583 -8.95727
119 1 9.43468 3.14071 6.28723 -8.95029
120 1 11.0076 4.71248 7.8593 -8.9514
121 1 12.5807 3.1412 6.28783 -8.95258
122 1 14.157 4.71223 7.85812 -8.94352
123 1 15.7264 3.14263 6.28813 -8.94811
124 1 17.2992 4.71529 7.86087 -8.94906
125 1 18.8698 3.14376 6.28899 -8.94933
126 1 20.4412 4.71601 7.86162 -8.94983
127 1 22.0111 6.28797 6.28817 -8.95026
128 1 1.56551 7.85959 7.85959 -8.95273
129 1 3.13579 6.28314 6.28331 -8.94598
130 1 4.69487 7.84665 7.84761 -8.94046
131 1 6.27488 6.27416 6.27419 -8.92992
132 1 7.82001 7.82089 7.82301 -8.85739
133 1 9.43399 6.27846 6.2815 -8.94991
134 1 11.0286 7.84829 7.8296 -8.90933
135 1 12.5889 6.27652 6.27797 -8.95365
136 1 14.1571 7.86201 7.86307 -8.95547
137 1 15.7279 6.2877 6.28827 -8.95255
138 1 17.2986 7.86175 7.86225 -8.95013
139 1 18.8697 6.28878 6.28913 -8.95012
140 1 20.4404 7.86143 7.86162 -8.95045
141 1 22.012 9.43411 6.28816 -8.94951
142 1 3.13955 9.43383 6.2854 -8.94819
143 1 6.28358 9.43531 6.28156 -8.96212
144 1 9.41913 9.41032 6.28226 -8.90739
145 1 12.6199 9.40268 6.25226 -8.85546
146 1 15.735 9.43223 6.2848 -8.95766
147 1 18.8713 9.43413 6.28861 -8.95166
148 1 -0.000633781 -2.48104e-15 9.43446 -8.94942
149 1 3.14332 -2.51532e-14 9.4346 -8.9494
150 1 6.28848 -5.0383e-13 9.43453 -8.95123
151 1 9.43447 -5.80154e-13 9.43409 -8.94891
152 1 12.5803 -1.84548e-13 9.43387 -8.95027
153 1 15.7257 -3.85479e-15 9.4339 -8.94938
154 1 18.8697 2.09387e-16 9.43427 -8.94944
155 1 -0.0010136 3.14363 9.43443 -8.94929
156 1 3.14219 3.14232 9.43464 -8.94941
157 1 6.28637 3.1385 9.43417 -8.95253
158 1 9.43413 3.1418 9.43335 -8.94667
159 1 12.5816 3.14096 9.43266 -8.9505
160 1 15.7267 3.14252 9.43343 -8.9491
161 1 18.87 3.14365 9.43415 -8.94936
162 1 22.0118 6.28837 9.43448 -8.95028
163 1 3.13742 6.28528 9.4342 -8.95115
164 1 6.27191 6.26847 9.42746 -8.94413
177 1 4.7154 1.57071 11.0077 -8.94916
178 1 7.86173 1.57043 11.0073 -8.95126
181 1 17.298 1.57156 11.0067 -8.94937
11 1 15.7249 -6.41138e-16 9.90806e-05 -8.94951
19 1 6.28909 3.14354 -6.57424e-05 -8.94931
25 1 15.7254 3.14349 0.000113971 -8.94948
43 1 22.0131 9.43419 0.000252221 -8.94937
41 1 18.8698 6.28885 -0.000211756 -8.94934
176 1 1.57109 1.57156 11.0072 -8.94937
343 1 18.8697 9.43416 18.8702 -8.9494
342 1 15.7263 9.43404 18.8711 -8.94874
179 1 11.0073 1.57043 11.0066 -8.95126
180 1 14.1537 1.57071 11.0062 -8.94916
341 1 12.58 9.43506 18.8711 -8.9508
182 1 20.4415 1.57183 11.007 -8.94945
183 1 1.56959 4.71511 11.0074 -8.94868
340 1 9.4338 9.43437 18.8706 -8.95116
185 1 7.85942 4.7079 11.0082 -8.96133
339 1 6.28592 9.43325 18.8776 -8.95895
187 1 14.1569 4.7123 11.0047 -8.94649
338 1 3.14014 9.43299 18.8735 -8.94752
189 1 20.4415 4.71593 11.007 -8.94954
337 1 -0.00184719 9.43396 18.8706 -8.94919
336 1 20.4412 7.86149 20.4421 -8.94931
192 1 7.80408 7.81824 11.0172 -8.80585
335 1 18.8699 6.28875 18.8701 -8.94971
194 1 14.1657 7.85804 11.0024 -8.9618
195 1 17.3005 7.86131 11.0061 -8.95225
196 1 20.4415 7.86156 11.007 -8.95025
197 1 -0.00059907 7.93659e-16 12.5796 -8.94944
198 1 1.57121 1.57161 14.1524 -8.94934
199 1 3.14338 -3.87192e-14 12.58 -8.94938
200 1 4.7157 1.57084 14.1529 -8.94976
201 1 6.28879 -2.96832e-13 12.58 -8.95027
202 1 7.86184 1.57094 14.1526 -8.94943
203 1 9.43459 -3.72808e-13 12.5798 -8.94891
204 1 11.0076 1.56986 14.1527 -8.95137
205 1 12.5806 -1.31777e-13 12.5794 -8.95123
206 1 14.1539 1.57001 14.1528 -8.95044
207 1 15.7257 -2.01872e-15 12.5793 -8.9494
208 1 17.298 1.57148 14.1521 -8.94955
209 1 18.8697 -6.43195e-16 12.5794 -8.94942
210 1 20.4415 1.57185 14.1521 -8.94941
211 1 22.013 3.14365 12.5798 -8.94936
212 1 1.56989 4.71529 14.153 -8.94906
213 1 3.14237 3.14252 12.5805 -8.9491
214 1 4.71207 4.71223 14.1558 -8.94352
215 1 6.28742 3.14096 12.5812 -8.9505
216 1 7.86144 4.71248 14.1546 -8.9514
217 1 9.43493 3.1418 12.5806 -8.94667
218 1 11.0109 4.70601 14.1556 -8.95727
219 1 12.5827 3.1385 12.5797 -8.95253
220 1 14.1595 4.70829 14.1564 -8.9472
221 1 15.7269 3.14232 12.5793 -8.94941
222 1 17.3001 4.71468 14.1528 -8.95005
223 1 18.8701 3.14363 12.5795 -8.94929
224 1 20.4417 4.71601 14.1523 -8.94983
225 1 -0.00154102 6.28837 12.5798 -8.95021
226 1 1.57044 7.86175 14.1517 -8.95013
227 1 3.13872 6.28595 12.5816 -8.94798
228 1 4.71195 7.86201 14.1508 -8.95547
229 1 6.2777 6.27884 12.5918 -8.92419
230 1 7.84047 7.84829 14.1843 -8.90933
231 1 9.43868 6.28673 12.584 -9.00322
232 1 11.0491 7.82089 14.1909 -8.85739
233 1 12.5971 6.26847 12.5864 -8.94413
234 1 14.1742 7.84665 14.1663 -8.94046
235 1 15.7316 6.28528 12.5797 -8.95115
236 1 17.3036 7.85959 14.1543 -8.95273
237 1 18.8711 6.28837 12.5794 -8.95028
238 1 20.4426 7.86143 14.1523 -8.95045
239 1 22.0139 9.43442 12.5796 -8.94781
240 1 3.14689 9.43628 12.5796 -8.93963
241 1 6.3118 9.44798 12.5784 -8.90214
242 1 9.49858 9.18235 12.5835 -8.11896
243 1 12.6225 9.39405 12.6144 -8.88561
244 1 15.7358 9.4325 12.5835 -8.95833
245 1 18.872 9.43437 12.5798 -8.95137
246 1 -0.000496946 -2.3297e-15 15.7247 -8.94941
247 1 1.57143 1.57166 17.2974 -8.94922
248 1 3.14361 -4.31724e-14 15.7251 -8.94943
249 1 4.71613 1.57091 17.2978 -8.95074
250 1 6.2891 -1.30442e-14 15.7251 -8.95034
251 1 7.86158 1.57096 17.2981 -8.94949
252 1 9.43438 -1.68025e-14 15.7254 -8.95015
253 1 11.0073 1.5708 17.2982 -8.94962
254 1 12.5804 -1.8612e-14 15.7255 -8.95053
255 1 14.1535 1.57062 17.2985 -8.94988
256 1 15.7259 -1.53131e-14 15.7253 -8.94981
257 1 17.2982 1.57134 17.2978 -8.94926
258 1 18.8697 -1.07526e-15 15.7246 -8.94957
259 1 20.4417 1.57185 17.2972 -8.94943
260 1 -0.000726537 3.14376 15.7249 -8.94933
261 1 1.57068 4.71565 17.2978 -8.95071
262 1 3.14262 3.14263 15.7258 -8.94811
263 1 4.71264 4.71119 17.3016 -8.94971
264 1 6.28839 3.1412 15.7261 -8.95258
265 1 7.86098 4.71272 17.3008 -8.94724
266 1 9.43438 3.14071 15.7267 -8.95029
267 1 11.0087 4.71207 17.301 -8.94893
268 1 12.5821 3.13947 15.7272 -8.95105
269 1 14.1575 4.71136 17.3026 -8.94462
270 1 15.7276 3.14127 15.7266 -8.94885
271 1 17.3001 4.71452 17.2992 -8.94835
272 1 18.8703 3.14351 15.725 -8.94964
273 1 20.4421 4.71611 17.2975 -8.94981
274 1 22.0132 6.28878 15.7248 -8.95012
275 1 1.56765 7.85984 17.2994 -8.95068
276 1 3.14119 6.2877 15.7256 -8.95255
277 1 4.70356 7.85033 17.3101 -8.93033
278 1 6.28012 6.27652 15.7359 -8.95365
279 1 7.86068 7.85658 17.3075 -8.95335
280 1 9.43507 6.27846 15.7324 -8.94991
281 1 11.0133 7.85397 17.3094 -8.9534
282 1 12.5942 6.27416 15.7397 -8.92992
283 1 14.1563 7.86007 17.302 -8.95346
284 1 15.7333 6.28314 15.7306 -8.94598
285 1 17.2992 7.86112 17.2987 -8.94953
286 1 18.8719 6.28797 15.7257 -8.95026
287 1 20.4412 7.86132 17.2978 -8.95004
288 1 22.0117 9.43413 15.7253 -8.95166
289 1 3.13406 9.43223 15.7291 -8.95766
290 1 6.24916 9.40268 15.7616 -8.85546
291 1 9.44993 9.41032 15.7316 -8.90739
292 1 12.5855 9.43531 15.7323 -8.96212
293 1 15.7295 9.43383 15.7285 -8.94819
294 1 18.8709 9.43411 15.7257 -8.94951
295 1 22.0136 -1.96447e-15 18.8694 -8.94931
296 1 1.57145 1.57155 20.442 -8.94921
297 1 3.14389 -1.66719e-15 18.8698 -8.95006
298 1 4.71656 1.57161 20.442 -8.9494
299 1 6.2891 -1.43359e-15 18.87 -8.94941
300 1 7.86183 1.57162 20.4421 -8.94938
301 1 9.43444 -1.83747e-15 18.8701 -8.94946
302 1 11.0072 1.57161 20.4422 -8.94934
303 1 12.5799 -1.38385e-15 18.8702 -8.94949
304 1 14.1526 1.57159 20.4423 -8.94947
305 1 15.7254 -1.06185e-15 18.8702 -8.94945
306 1 17.2977 1.5717 20.4421 -8.9491
307 1 18.8698 -4.93651e-16 18.8697 -8.94924
308 1 20.4417 1.5719 20.4418 -8.94919
309 1 22.0134 3.14386 18.8697 -8.94981
310 1 1.57059 4.71542 20.4429 -8.9483
311 1 3.14278 3.14232 18.8709 -8.94928
312 1 4.71575 4.71522 20.4431 -8.95012
313 1 6.28874 3.14274 18.8708 -8.94897
314 1 7.86164 4.7153 20.4429 -8.94926
315 1 9.43454 3.1427 18.8709 -8.94922
316 1 11.0075 4.7153 20.443 -8.94908
317 1 12.5806 3.14256 18.8711 -8.94945
318 1 14.1536 4.71517 20.4434 -8.94942
319 1 15.7265 3.14265 18.8712 -8.94822
320 1 17.298 4.71598 20.4422 -8.94973
321 1 18.8703 3.14366 18.87 -8.94908
322 1 20.4414 4.71631 20.442 -8.94944
323 1 22.0123 6.28826 18.8704 -8.94957
324 1 1.57041 7.86099 20.4431 -8.94908
325 1 3.13988 6.2852 18.8738 -8.94471
326 1 4.71478 7.86031 20.4454 -8.95141
327 1 6.28752 6.28637 18.8739 -8.95029
328 1 7.86195 7.86087 20.4443 -8.9513
329 1 9.43481 6.28616 18.8733 -8.94771
330 1 11.0072 7.86124 20.4436 -8.95303
331 1 12.5828 6.28577 18.8749 -8.94987
332 1 14.1529 7.86163 20.4422 -8.95068
333 1 15.7268 6.28797 18.8715 -8.95078
334 1 17.2979 7.86143 20.442 -8.94917
5 1 6.28929 -8.86074e-16 22.0139 -8.94939
47 1 12.58 9.43452 22.0125 -8.95118
44 1 3.14302 9.434 22.015 -8.94929
39 1 15.7258 6.28837 22.013 -8.95009
27 1 18.8697 3.14389 22.0138 -8.9491
33 1 6.28882 6.28829 22.014 -8.95074
3 1 3.14413 -1.06922e-15 22.0138 -8.94951
13 1 18.8696 9.13758e-16 22.0139 -8.94899
17 1 3.14362 3.14349 22.0138 -8.94948
23 1 12.58 3.14354 22.014 -8.94931
29 1 -0.000727109 6.28885 22.0141 -8.94934
49 1 18.8698 9.43419 22.0136 -8.94937
344 1 1.57113 11.007 1.57193 -8.94941
345 1 4.71581 11.007 1.57187 -8.95033
346 1 7.86225 11.007 1.57266 -8.94702
347 1 11.0075 11.007 1.57172 -8.94594
348 1 14.155 11.007 1.5683 -8.94953
349 1 17.2988 11.007 1.57073 -8.94939
350 1 20.4418 11.007 1.57175 -8.94939
688 3 10.2139 11.007 9.44061 2.28958
352 1 1.57115 14.1525 1.57193 -8.94917
511 1 18.87 18.8702 9.43415 -8.94936
354 1 4.71613 14.1523 1.57173 -8.95068
355 1 6.28903 12.5794 0.001439 -8.95118
356 1 7.86187 14.1527 1.57032 -8.95303
357 1 9.43453 12.5791 6.55741e-14 -8.94909
358 1 11.0071 14.153 1.56965 -8.9513
510 1 15.7267 18.8714 9.43343 -8.9491
360 1 14.1543 14.1536 1.56847 -8.95141
361 1 15.726 12.5799 -0.00109129 -8.94929
362 1 17.2986 14.1529 1.57081 -8.94908
538 1 17.298 20.4423 11.0067 -8.94937
364 1 20.4417 14.1524 1.5718 -8.94931
535 1 7.86173 20.4435 11.0073 -8.95126
366 1 1.57103 17.2979 1.57174 -8.94973
367 1 3.14323 15.7255 0.000904556 -8.95009
368 1 4.71544 17.2987 1.57049 -8.94942
509 1 12.5816 18.8729 9.43266 -8.9505
370 1 7.86158 17.2986 1.57091 -8.94908
371 1 9.43453 15.7259 1.24743e-13 -8.94961
372 1 11.0074 17.2986 1.57096 -8.94926
373 1 12.5802 15.7256 -0.000131423 -8.95074
374 1 14.1533 17.2987 1.57084 -8.95012
508 1 9.43413 18.8721 9.43335 -8.94667
376 1 17.2985 17.2985 1.57103 -8.9483
507 1 6.28637 18.8754 9.43417 -8.95253
378 1 20.4416 17.2976 1.57189 -8.94944
379 1 22.0132 18.87 7.5984e-05 -8.9491
380 1 1.57134 20.4422 1.57176 -8.9491
534 1 4.7154 20.4432 11.0077 -8.94916
382 1 4.71645 20.4423 1.57162 -8.94947
506 1 3.14219 18.8716 9.43464 -8.94941
384 1 7.86186 20.4423 1.5717 -8.94934
385 1 9.43453 18.8704 1.49053e-14 -8.94938
386 1 11.0072 20.4423 1.57177 -8.94938
531 1 17.2995 17.2988 11.0065 -8.94868
388 1 14.1525 20.4423 1.57187 -8.9494
505 1 -0.0010136 18.8703 9.43443 -8.94929
390 1 17.2976 20.4423 1.57187 -8.94921
504 1 18.8706 15.7255 9.4341 -8.95021
392 1 20.4413 20.442 1.57212 -8.94919
393 1 1.57002 11.007 4.71493 -8.9494
394 1 4.71333 11.007 4.71209 -8.94619
395 1 7.86431 11.007 4.71985 -8.9415
396 1 11.012 11.007 4.72105 -9.00219
397 1 14.1632 11.007 4.70619 -8.94181
398 1 17.3016 11.007 4.714 -8.94896
399 1 20.442 11.007 4.71587 -8.94986
400 1 -0.000691062 12.5797 3.14368 -8.9494
401 1 1.56983 14.1528 4.71515 -8.94953
402 1 3.14272 12.5799 3.14277 -8.94874
403 1 4.71275 14.1538 4.71189 -8.95346
404 1 6.28905 12.5788 3.14283 -8.9508
405 1 7.8558 14.1599 4.70455 -8.9534
406 1 9.43526 12.5795 3.14332 -8.95116
407 1 11.0084 14.1573 4.70645 -8.95335
408 1 12.5831 12.5807 3.13628 -8.95895
409 1 14.1655 14.1636 4.70378 -8.93033
410 1 15.7289 12.5809 3.14039 -8.94752
411 1 17.3014 14.1541 4.71449 -8.95068
412 1 18.8709 12.5799 3.14326 -8.94919
413 1 20.4418 14.1526 4.7161 -8.95004
414 1 22.013 15.7252 3.1438 -8.94971
415 1 1.56891 17.2994 4.71467 -8.94835
416 1 3.14229 15.7259 3.14237 -8.95078
417 1 4.71161 17.3025 4.71128 -8.94462
418 1 6.28623 15.7281 3.13902 -8.94987
419 1 7.8604 17.3018 4.71294 -8.94893
420 1 9.43425 15.7277 3.14057 -8.94771
421 1 11.0081 17.3012 4.7131 -8.94724
422 1 12.5815 15.7275 3.13996 -8.95029
423 1 14.1564 17.3027 4.71231 -8.94971
424 1 15.7292 15.7287 3.14014 -8.94471
425 1 17.2984 17.2982 4.71615 -8.95071
426 1 18.8707 15.7256 3.14347 -8.94957
427 1 20.4409 17.2978 4.71639 -8.94981
428 1 22.0127 18.8702 3.14389 -8.94908
429 1 1.57085 20.4426 4.71607 -8.94926
430 1 3.14256 18.8713 3.14265 -8.94822
431 1 4.71561 20.4433 4.71544 -8.94988
432 1 6.2885 18.8713 3.14278 -8.94945
433 1 7.86172 20.4431 4.71567 -8.94962
434 1 9.43452 18.8712 3.14302 -8.94922
435 1 11.0075 20.4429 4.71576 -8.94949
436 1 12.5803 18.8712 3.14313 -8.94897
437 1 14.1529 20.443 4.71608 -8.95074
438 1 15.7263 18.8716 3.14297 -8.94928
439 1 17.2976 20.4422 4.71654 -8.94922
440 1 18.8695 18.87 3.14418 -8.94981
441 1 20.4413 20.442 4.71674 -8.94943
442 1 1.56779 11.007 7.85926 -8.94686
443 1 4.71058 11.007 7.85364 -8.93491
444 1 7.87947 11.007 7.87855 -8.94375
445 1 11.0816 11.007 7.63514 -8.1233
446 1 14.1597 11.007 7.85346 -8.97097
447 1 17.2991 11.007 7.86163 -8.95081
448 1 20.4408 11.007 7.86145 -8.94963
449 1 22.012 12.5798 6.28816 -8.94951
450 1 1.56551 14.1543 7.85959 -8.95273
451 1 3.13955 12.5801 6.2854 -8.94819
452 1 4.69487 14.1673 7.84761 -8.94046
453 1 6.28358 12.5786 6.28156 -8.96212
454 1 7.82001 14.193 7.82301 -8.85739
455 1 9.41913 12.6036 6.28226 -8.90739
456 1 11.0286 14.1656 7.8296 -8.90933
457 1 12.6199 12.6112 6.25226 -8.85546
458 1 14.1571 14.1519 7.86307 -8.95547
459 1 15.735 12.5817 6.2848 -8.95766
460 1 17.2986 14.1521 7.86225 -8.95013
461 1 18.8713 12.5798 6.28861 -8.95166
462 1 20.4404 14.1525 7.86162 -8.95045
463 1 22.0111 15.7259 6.28817 -8.95026
464 1 1.56899 17.2992 7.86108 -8.95005
465 1 3.13579 15.7308 6.28331 -8.94598
466 1 4.70955 17.3056 7.85746 -8.9472
467 1 6.27488 15.7397 6.27419 -8.92992
468 1 7.8582 17.3079 7.8583 -8.95727
469 1 9.43399 15.7354 6.2815 -8.94991
470 1 11.0076 17.3014 7.8593 -8.9514
471 1 12.5889 15.7374 6.27797 -8.95365
472 1 14.157 17.3017 7.85812 -8.94352
473 1 15.7279 15.7262 6.28827 -8.95255
474 1 17.2992 17.2986 7.86087 -8.94906
475 1 18.8697 15.7251 6.28913 -8.95012
476 1 20.4412 17.2979 7.86162 -8.94983
477 1 -0.00126418 18.8704 6.28892 -8.94964
478 1 1.57104 20.4424 7.86178 -8.94955
479 1 3.14145 18.8726 6.28731 -8.94885
480 1 4.71511 20.4439 7.86113 -8.95044
481 1 6.28698 18.8744 6.28672 -8.95105
482 1 7.86142 20.444 7.86117 -8.95137
483 1 9.43468 18.8732 6.28723 -8.95029
484 1 11.0072 20.443 7.86132 -8.94943
485 1 12.5807 18.8727 6.28783 -8.95258
486 1 14.1534 20.4431 7.86097 -8.94976
487 1 15.7264 18.8713 6.28813 -8.94811
488 1 17.2978 20.4423 7.86147 -8.94934
489 1 18.8698 18.8701 6.28899 -8.94933
490 1 20.4414 20.4421 7.8618 -8.94941
491 1 22.011 12.5795 9.43408 -8.95137
492 1 3.13324 12.5814 9.43043 -8.95833
493 1 6.24657 12.6199 9.39948 -8.88561
494 1 9.37048 12.8315 9.43036 -8.11895
495 1 12.5573 12.5659 9.43551 -8.90214
496 1 15.7222 12.5776 9.43428 -8.93963
497 1 18.8691 12.5795 9.43428 -8.94781
498 1 22.0118 15.7255 9.43448 -8.95028
499 1 3.13742 15.7286 9.4342 -8.95115
500 1 6.27191 15.7454 9.42746 -8.94413
501 1 9.43038 15.7272 9.4299 -9.00322
502 1 12.5914 15.7351 9.42206 -8.92419
503 1 15.7303 15.728 9.4323 -8.94798
512 1 1.57065 11.007 11.0073 -8.94859
513 1 4.71529 11.007 10.9976 -8.96783
514 1 7.80232 11.007 10.7635 -8.03152
519 1 1.56855 14.1526 11.0078 -8.95225
520 1 4.70341 14.1559 11.0115 -8.9618
522 1 11.065 14.1957 10.9967 -8.80585
527 1 4.71213 17.3016 11.0092 -8.94649
529 1 11.0096 17.306 11.0057 -8.96133
351 1 22.0131 12.5797 0.000252221 -8.94937
377 1 18.8698 15.7251 -0.000211756 -8.94934
389 1 15.7254 18.8704 0.000113971 -8.94948
383 1 6.28909 18.8704 -6.57424e-05 -8.94931
687 3 8.65514 11.007 12.5733 2.28958
686 1 20.4417 20.442 20.4418 -8.94919
685 1 18.8703 18.8702 18.87 -8.94908
515 1 11.0667 11.007 11.2504 -8.03152
516 1 14.1538 11.007 11.0163 -8.96783
517 1 17.2984 11.007 11.0066 -8.94859
518 1 20.4415 11.007 11.007 -8.94886
684 1 17.2977 20.4422 20.4421 -8.9491
683 1 15.7265 18.8713 18.8712 -8.94822
521 1 7.80408 14.1957 11.0172 -8.80585
682 1 14.1526 20.4423 20.4423 -8.94947
523 1 14.1657 14.1559 11.0024 -8.9618
524 1 17.3005 14.1526 11.0061 -8.95225
525 1 20.4415 14.1523 11.007 -8.95025
526 1 1.56959 17.2988 11.0074 -8.94868
681 1 12.5806 18.8713 18.8711 -8.94945
528 1 7.85942 17.306 11.0082 -8.96133
680 1 11.0072 20.4423 20.4422 -8.94934
530 1 14.1569 17.3016 11.0047 -8.94649
679 1 9.43454 18.8712 18.8709 -8.94922
532 1 20.4415 17.298 11.007 -8.94954
533 1 1.57109 20.4423 11.0072 -8.94937
678 1 7.86183 20.4423 20.4421 -8.94938
677 1 6.28874 18.8712 18.8708 -8.94897
536 1 11.0073 20.4435 11.0066 -8.95126
537 1 14.1537 20.4432 11.0062 -8.94916
676 1 4.71656 20.4423 20.442 -8.9494
539 1 20.4415 20.4421 11.007 -8.94945
540 1 1.56993 11.007 14.1523 -8.95081
541 1 4.70933 11.007 14.1604 -8.97097
542 1 7.7875 11.007 14.3788 -8.1233
543 1 10.9896 11.007 14.1354 -8.94375
544 1 14.1585 11.007 14.1603 -8.93491
545 1 17.3013 11.007 14.1546 -8.94686
546 1 20.4422 11.007 14.1524 -8.94963
547 1 22.0139 12.5795 12.5796 -8.94781
548 1 1.57044 14.1521 14.1517 -8.95013
549 1 3.14689 12.5776 12.5796 -8.93963
550 1 4.71195 14.1519 14.1508 -8.95547
551 1 6.3118 12.5659 12.5784 -8.90214
552 1 7.84047 14.1656 14.1843 -8.90933
553 1 9.49858 12.8315 12.5835 -8.11896
554 1 11.0491 14.193 14.1909 -8.85739
555 1 12.6225 12.6199 12.6144 -8.88561
556 1 14.1742 14.1673 14.1663 -8.94046
557 1 15.7358 12.5814 12.5835 -8.95833
558 1 17.3036 14.1543 14.1543 -8.95273
559 1 18.872 12.5795 12.5798 -8.95137
560 1 20.4426 14.1525 14.1523 -8.95045
561 1 -0.00154102 15.7255 12.5798 -8.95021
562 1 1.56989 17.2986 14.153 -8.94906
563 1 3.13872 15.728 12.5816 -8.94798
564 1 4.71207 17.3017 14.1558 -8.94352
565 1 6.2777 15.7351 12.5918 -8.92419
566 1 7.86144 17.3014 14.1546 -8.9514
567 1 9.43868 15.7272 12.584 -9.00322
568 1 11.0109 17.3079 14.1556 -8.95727
569 1 12.5971 15.7454 12.5864 -8.94413
570 1 14.1595 17.3056 14.1564 -8.9472
571 1 15.7316 15.7286 12.5797 -8.95115
572 1 17.3001 17.2992 14.1528 -8.95005
573 1 18.8711 15.7255 12.5794 -8.95028
574 1 20.4417 17.2979 14.1523 -8.94983
575 1 22.013 18.8702 12.5798 -8.94936
576 1 1.57121 20.4423 14.1524 -8.94934
577 1 3.14237 18.8714 12.5805 -8.9491
578 1 4.7157 20.4431 14.1529 -8.94976
579 1 6.28742 18.8729 12.5812 -8.9505
580 1 7.86184 20.443 14.1526 -8.94943
581 1 9.43493 18.8721 12.5806 -8.94667
582 1 11.0076 20.444 14.1527 -8.95137
583 1 12.5827 18.8754 12.5797 -8.95253
584 1 14.1539 20.4439 14.1528 -8.95044
585 1 15.7269 18.8716 12.5793 -8.94941
586 1 17.298 20.4424 14.1521 -8.94955
587 1 18.8701 18.8703 12.5795 -8.94929
588 1 20.4415 20.4421 14.1521 -8.94941
589 1 1.56743 11.007 17.2999 -8.94896
590 1 4.70584 11.007 17.3077 -8.94181
591 1 7.85706 11.007 17.2928 -9.00219
592 1 11.0048 11.007 17.294 -8.9415
593 1 14.1557 11.007 17.3018 -8.94619
594 1 17.299 11.007 17.299 -8.9494
595 1 20.4409 11.007 17.298 -8.94986
596 1 22.0117 12.5798 15.7253 -8.95166
597 1 1.56765 14.1541 17.2994 -8.95068
598 1 3.13406 12.5817 15.7291 -8.95766
599 1 4.70356 14.1636 17.3101 -8.93033
600 1 6.24916 12.6112 15.7616 -8.85546
601 1 7.86068 14.1573 17.3075 -8.95335
602 1 9.44993 12.6036 15.7316 -8.90739
603 1 11.0133 14.1599 17.3094 -8.9534
604 1 12.5855 12.5786 15.7323 -8.96212
605 1 14.1563 14.1538 17.302 -8.95346
606 1 15.7295 12.5801 15.7285 -8.94819
607 1 17.2992 14.1528 17.2987 -8.94953
608 1 18.8709 12.5798 15.7257 -8.94951
609 1 20.4412 14.1526 17.2978 -8.95004
610 1 22.0132 15.7251 15.7248 -8.95012
611 1 1.57068 17.2982 17.2978 -8.95071
612 1 3.14119 15.7262 15.7256 -8.95255
613 1 4.71264 17.3027 17.3016 -8.94971
614 1 6.28012 15.7374 15.7359 -8.95365
615 1 7.86098 17.3012 17.3008 -8.94724
616 1 9.43507 15.7354 15.7324 -8.94991
617 1 11.0087 17.3018 17.301 -8.94893
618 1 12.5942 15.7397 15.7397 -8.92992
619 1 14.1575 17.3025 17.3026 -8.94462
620 1 15.7333 15.7308 15.7306 -8.94598
621 1 17.3001 17.2994 17.2992 -8.94835
622 1 18.8719 15.7259 15.7257 -8.95026
623 1 20.4421 17.2978 17.2975 -8.94981
624 1 -0.000726537 18.8701 15.7249 -8.94933
625 1 1.57143 20.4422 17.2974 -8.94922
626 1 3.14262 18.8713 15.7258 -8.94811
627 1 4.71613 20.443 17.2978 -8.95074
628 1 6.28839 18.8727 15.7261 -8.95258
629 1 7.86158 20.4429 17.2981 -8.94949
630 1 9.43438 18.8732 15.7267 -8.95029
631 1 11.0073 20.4431 17.2982 -8.94962
632 1 12.5821 18.8744 15.7272 -8.95105
633 1 14.1535 20.4433 17.2985 -8.94988
634 1 15.7276 18.8726 15.7266 -8.94885
635 1 17.2982 20.4426 17.2978 -8.94926
636 1 18.8703 18.8704 15.725 -8.94964
637 1 20.4417 20.442 17.2972 -8.94943
638 1 1.57028 11.007 20.4432 -8.94939
639 1 4.71407 11.007 20.4456 -8.94953
640 1 7.86155 11.007 20.4422 -8.94594
641 1 11.0068 11.007 20.4412 -8.94702
642 1 14.1533 11.007 20.442 -8.95033
643 1 17.2979 11.007 20.442 -8.94941
644 1 20.4412 11.007 20.4421 -8.94939
645 1 -0.00184719 12.5799 18.8706 -8.94919
646 1 1.57041 14.1529 20.4431 -8.94908
647 1 3.14014 12.5809 18.8735 -8.94752
648 1 4.71478 14.1536 20.4454 -8.95141
649 1 6.28592 12.5807 18.8776 -8.95895
650 1 7.86195 14.153 20.4443 -8.9513
651 1 9.4338 12.5795 18.8706 -8.95116
652 1 11.0072 14.1527 20.4436 -8.95303
653 1 12.58 12.5788 18.8711 -8.9508
654 1 14.1529 14.1523 20.4422 -8.95068
655 1 15.7263 12.5799 18.8711 -8.94874
656 1 17.2979 14.1525 20.442 -8.94917
657 1 18.8697 12.5797 18.8702 -8.9494
658 1 20.4412 14.1524 20.4421 -8.94931
659 1 22.0123 15.7256 18.8704 -8.94957
660 1 1.57059 17.2985 20.4429 -8.9483
661 1 3.13988 15.7287 18.8738 -8.94471
662 1 4.71575 17.2987 20.4431 -8.95012
663 1 6.28752 15.7275 18.8739 -8.95029
664 1 7.86164 17.2986 20.4429 -8.94926
665 1 9.43481 15.7277 18.8733 -8.94771
666 1 11.0075 17.2986 20.443 -8.94908
667 1 12.5828 15.7281 18.8749 -8.94987
668 1 14.1536 17.2987 20.4434 -8.94942
669 1 15.7268 15.7259 18.8715 -8.95078
670 1 17.298 17.2979 20.4422 -8.94973
671 1 18.8699 15.7252 18.8701 -8.94971
672 1 20.4414 17.2976 20.442 -8.94944
673 1 22.0134 18.87 18.8697 -8.94981
674 1 1.57145 20.4423 20.442 -8.94921
675 1 3.14278 18.8716 18.8709 -8.94928
391 1 18.8697 18.87 22.0138 -8.9491
353 1 3.14302 12.5799 22.015 -8.94929
359 1 12.58 12.5794 22.0125 -8.95118
369 1 6.28882 15.7256 22.014 -8.95074
375 1 15.7258 15.7255 22.013 -8.95009
363 1 18.8698 12.5797 22.0136 -8.94937
365 1 -0.000727109 15.7251 22.0141 -8.94934
381 1 3.14362 18.8704 22.0138 -8.94948
387 1 12.58 18.8704 22.014 -8.94931
