ITEM: TIMESTEP
55
ITEM: NUMBER OF ATOMS
688
ITEM: BOX BOUNDS pp pp pp
0.0000000000000000e+00 2.2013900999999997e+01
0.0000000000000000e+00 2.2013900999999997e+01
0.0000000000000000e+00 2.2013900999999997e+01
ITEM: ATOMS id type x y z c_pot
1 1 22.0139 -7.63583e-16 1.21508e-07 -8.94963
2 1 1.57242 1.57242 1.57242 -8.94963
193 1 11.0338 7.84013 10.9959 -8.84429
4 1 4.71727 1.57242 1.57242 -8.94965
175 1 18.8692 9.43447 9.43452 -8.94958
6 1 7.86211 1.57242 1.57242 -8.94963
7 1 9.43453 7.51425e-16 1.04837e-16 -8.94963
8 1 11.007 1.57242 1.57242 -8.94964
9 1 12.5794 -1.24074e-16 6.58268e-08 -8.94963
10 1 14.1518 1.57242 1.57242 -8.94964
174 1 15.7251 9.43396 9.43444 -8.94593
12 1 17.2966 1.57242 1.57242 -8.94963
191 1 4.71389 7.86091 11.0081 -8.95356
14 1 20.4415 1.57242 1.57242 -8.94963
15 1 22.0139 3.14484 7.72736e-07 -8.94962
16 1 1.57242 4.71726 1.57242 -8.94963
190 1 1.57206 7.86198 11.007 -8.95
18 1 4.71725 4.71725 1.57239 -8.94961
173 1 12.5769 9.43571 9.43415 -8.90271
20 1 7.86211 4.71726 1.57241 -8.94962
21 1 9.43453 3.14484 1.76944e-16 -8.94964
22 1 11.007 4.71726 1.57241 -8.94965
188 1 17.2967 4.71725 11.007 -8.94961
24 1 14.1518 4.71726 1.57242 -8.94974
172 1 9.35956 9.236 9.43189 -8.0664
26 1 17.2967 4.71725 1.5724 -8.94952
171 1 6.26172 9.41393 9.41591 -8.8949
28 1 20.4415 4.71726 1.57242 -8.94963
186 1 11.008 4.71424 11.0068 -8.95272
30 1 1.57242 7.86211 1.57242 -8.94964
31 1 3.14483 6.28967 2.64865e-05 -8.94962
32 1 4.71724 7.8621 1.57242 -8.94973
170 1 3.14178 9.43402 9.43392 -8.95487
34 1 7.86204 7.86202 1.5722 -8.95003
35 1 9.43453 6.28967 1.62813e-15 -8.94962
36 1 11.0069 7.86203 1.57226 -8.94966
37 1 12.5794 6.28967 2.03442e-05 -8.94965
38 1 14.1519 7.86197 1.57214 -8.94985
169 1 22.0137 9.43451 9.4345 -8.95029
40 1 17.2966 7.86211 1.57242 -8.94971
168 1 18.8691 6.28966 9.43452 -8.94966
42 1 20.4415 7.86211 1.57242 -8.94963
167 1 15.7246 6.28937 9.43441 -8.94912
166 1 12.5817 6.28699 9.4319 -8.93986
45 1 6.28964 9.4345 0.000166362 -8.9501
46 1 9.43453 9.43445 1.50096e-16 -8.94978
165 1 9.43304 6.28233 9.43403 -8.98991
48 1 15.7242 9.43453 -8.29059e-06 -8.94961
184 1 4.71707 4.71706 11.007 -8.94982
50 1 22.0139 -2.13462e-16 3.14484 -8.94963
51 1 1.57242 1.57242 4.71726 -8.94964
52 1 3.14484 -5.08859e-16 3.14484 -8.94962
53 1 4.71725 1.5724 4.71725 -8.94962
54 1 6.28969 9.11633e-16 3.14484 -8.94964
55 1 7.86211 1.57242 4.71726 -8.94963
56 1 9.43453 -2.31505e-16 3.14484 -8.94964
57 1 11.007 1.57241 4.71725 -8.94963
58 1 12.5794 -1.7135e-16 3.14484 -8.94963
59 1 14.1518 1.5724 4.71725 -8.94968
60 1 15.7242 1.62596e-16 3.14484 -8.94964
61 1 17.2966 1.57242 4.71726 -8.94963
62 1 18.8691 -3.88484e-18 3.14484 -8.94963
63 1 20.4415 1.57242 4.71726 -8.94963
64 1 22.0139 3.14484 3.14484 -8.94962
65 1 1.57238 4.71723 4.71723 -8.94951
66 1 3.14483 3.14483 3.14483 -8.94954
67 1 4.71702 4.71702 4.71702 -8.94854
68 1 6.28969 3.14484 3.14484 -8.94973
69 1 7.86213 4.71719 4.7172 -8.95002
70 1 9.43452 3.14483 3.14483 -8.94966
71 1 11.007 4.7171 4.71711 -8.9493
72 1 12.5794 3.14484 3.14484 -8.94962
73 1 14.152 4.71694 4.71709 -8.94968
74 1 15.7242 3.14481 3.14482 -8.9496
75 1 17.2966 4.71726 4.71727 -8.94974
76 1 18.8691 3.14484 3.14484 -8.94964
77 1 20.4415 4.71726 4.71726 -8.94963
78 1 22.0139 6.28969 3.14484 -8.94965
79 1 1.57241 7.86211 4.71725 -8.9497
80 1 3.14482 6.28967 3.14481 -8.94971
81 1 4.71704 7.86197 4.71691 -8.95029
82 1 6.28954 6.28954 3.14453 -8.9497
83 1 7.86121 7.86114 4.71479 -8.95213
84 1 9.43453 6.28953 3.14468 -8.94934
85 1 11.0066 7.86144 4.71571 -8.95154
86 1 12.5794 6.28962 3.14476 -8.95006
87 1 14.1544 7.85948 4.71468 -8.93938
88 1 15.7245 6.28944 3.1446 -8.94844
89 1 17.2969 7.86198 4.71714 -8.94984
90 1 18.8691 6.28967 3.14483 -8.94962
91 1 20.4415 7.8621 4.71726 -8.94968
92 1 4.95991e-08 9.43453 3.14484 -8.94964
93 1 3.14482 9.43453 3.14482 -8.94961
94 1 6.28957 9.43456 3.14456 -8.95019
95 1 9.43412 9.43407 3.14381 -8.94914
96 1 12.58 9.43392 3.14267 -8.95325
97 1 15.7243 9.4345 3.14475 -8.94972
98 1 18.8691 9.43453 3.14484 -8.94961
99 1 22.0139 7.95188e-16 6.28969 -8.94963
100 1 1.57242 1.57242 7.86211 -8.94964
101 1 3.14484 1.19389e-16 6.28968 -8.94963
102 1 4.71724 1.57239 7.8621 -8.94964
103 1 6.28967 9.36009e-16 6.28967 -8.94971
104 1 7.86207 1.57224 7.86206 -8.95008
105 1 9.43453 2.1588e-16 6.28968 -8.94966
106 1 11.007 1.57232 7.86207 -8.9497
107 1 12.5794 6.3096e-16 6.28968 -8.9497
108 1 14.1518 1.57239 7.86209 -8.94963
109 1 15.7242 7.28278e-16 6.28968 -8.94963
110 1 17.2966 1.57242 7.86211 -8.94964
111 1 18.8691 -1.60998e-16 6.28969 -8.94963
112 1 20.4415 1.57242 7.86211 -8.94963
113 1 4.23676e-07 3.14484 6.28969 -8.94964
114 1 1.57241 4.71725 7.86211 -8.9497
115 1 3.14482 3.14481 6.28967 -8.94969
116 1 4.71702 4.71687 7.86194 -8.94977
117 1 6.28955 3.14455 6.28954 -8.94984
118 1 7.8615 4.71499 7.86138 -8.95301
119 1 9.43458 3.14467 6.28961 -8.94962
120 1 11.0073 4.71631 7.86167 -8.94959
121 1 12.5794 3.14462 6.28961 -8.95013
122 1 14.1521 4.71691 7.86193 -8.94854
123 1 15.7242 3.14482 6.28967 -8.94954
124 1 17.2967 4.71724 7.86209 -8.94962
125 1 18.8691 3.14484 6.28968 -8.94963
126 1 20.4415 4.71726 7.86211 -8.94964
127 1 22.0139 6.28966 6.28967 -8.94966
128 1 1.57198 7.86195 7.86196 -8.95028
129 1 3.14432 6.28931 6.28931 -8.94863
130 1 4.71252 7.85888 7.85896 -8.94316
131 1 6.28714 6.28707 6.287 -8.93974
132 1 7.84198 7.84279 7.84195 -8.87249
133 1 9.43496 6.28818 6.28892 -8.95101
134 1 11.0144 7.85756 7.85178 -8.92534
135 1 12.5805 6.28721 6.28847 -8.95228
136 1 14.1531 7.86147 7.86264 -8.95044
137 1 15.7243 6.28962 6.28969 -8.95019
138 1 17.2968 7.86201 7.86212 -8.94955
139 1 18.8691 6.28968 6.28968 -8.94962
140 1 20.4415 7.86209 7.8621 -8.94972
141 1 22.0139 9.43453 6.28967 -8.94966
142 1 3.14454 9.43453 6.28949 -8.94968
143 1 6.28786 9.43449 6.28687 -8.95336
144 1 9.42863 9.42604 6.28512 -8.92222
145 1 12.5998 9.41556 6.27063 -8.87153
146 1 15.7264 9.43394 6.28906 -8.95335
147 1 18.8692 9.4345 6.28966 -8.95009
148 1 -3.12133e-09 7.48303e-16 9.43453 -8.94963
149 1 3.14484 1.80081e-15 9.43453 -8.94964
150 1 6.28966 1.53786e-15 9.43452 -8.94973
151 1 9.43453 3.98859e-16 9.43452 -8.95007
152 1 12.5794 1.61074e-15 9.43451 -8.94971
153 1 15.7242 1.36589e-15 9.43453 -8.94964
154 1 18.8691 1.23855e-15 9.43453 -8.94963
155 1 -2.75753e-07 3.14484 9.43453 -8.94964
156 1 3.14483 3.14483 9.43453 -8.94971
157 1 6.2895 3.1444 9.43445 -8.94982
158 1 9.43454 3.14375 9.43446 -8.95089
159 1 12.5795 3.1445 9.43439 -8.94968
160 1 15.7242 3.14482 9.43453 -8.94968
161 1 18.8691 3.14484 9.43453 -8.94964
162 1 22.0139 6.28967 9.43453 -8.94964
163 1 3.14453 6.2895 9.43453 -8.94991
164 1 6.28723 6.28578 9.43361 -8.95076
177 1 4.71725 1.5724 11.007 -8.94962
178 1 7.86203 1.57215 11.0069 -8.95015
181 1 17.2966 1.57242 11.007 -8.94964
11 1 15.7242 9.18547e-16 6.07575e-08 -8.94964
19 1 6.28969 3.14484 1.26671e-06 -8.94964
25 1 15.7242 3.14484 2.37021e-06 -8.94964
43 1 22.0139 9.43453 1.0424e-07 -8.94964
41 1 18.8691 6.28969 3.41468e-07 -8.94965
176 1 1.57242 1.57242 11.007 -8.94964
343 1 18.8691 9.43453 18.8691 -8.94964
342 1 15.7242 9.43453 18.8691 -8.94961
179 1 11.007 1.57215 11.007 -8.95015
180 1 14.1518 1.5724 11.0069 -8.94962
341 1 12.5795 9.43456 18.8693 -8.95019
182 1 20.4415 1.57242 11.007 -8.94963
183 1 1.5724 4.71725 11.0069 -8.94961
340 1 9.43494 9.43407 18.8701 -8.94914
185 1 7.86107 4.71424 11.0071 -8.95272
339 1 6.28904 9.43392 18.8712 -8.95325
187 1 14.152 4.71706 11.0069 -8.94982
338 1 3.14474 9.4345 18.8692 -8.94972
189 1 20.4415 4.71726 11.007 -8.94963
337 1 -1.00919e-05 9.43453 18.8691 -8.94961
336 1 20.4415 7.86211 20.4415 -8.94963
192 1 7.83523 7.84013 11.018 -8.84429
335 1 18.8691 6.28969 18.8691 -8.94965
194 1 14.1552 7.86091 11.0058 -8.95356
195 1 17.297 7.86198 11.0069 -8.95
196 1 20.4415 7.86209 11.007 -8.94972
197 1 7.80543e-08 1.1257e-15 12.5794 -8.94963
198 1 1.57242 1.57242 14.1518 -8.94964
199 1 3.14484 9.94982e-16 12.5794 -8.94964
200 1 4.71724 1.57239 14.1518 -8.94963
201 1 6.28967 1.68855e-15 12.5794 -8.94971
202 1 7.86207 1.57232 14.1518 -8.9497
203 1 9.43452 -2.39831e-16 12.5794 -8.95007
204 1 11.007 1.57224 14.1518 -8.95008
205 1 12.5794 1.28924e-15 12.5794 -8.94973
206 1 14.1518 1.57239 14.1518 -8.94964
207 1 15.7242 1.7828e-15 12.5794 -8.94964
208 1 17.2966 1.57242 14.1518 -8.94964
209 1 18.8691 1.11574e-15 12.5794 -8.94963
210 1 20.4415 1.57242 14.1518 -8.94963
211 1 22.0139 3.14484 12.5794 -8.94964
212 1 1.57239 4.71724 14.1518 -8.94962
213 1 3.14482 3.14482 12.5794 -8.94968
214 1 4.71694 4.71691 14.152 -8.94854
215 1 6.28952 3.1445 12.5795 -8.94968
216 1 7.86172 4.71631 14.1522 -8.94959
217 1 9.43452 3.14375 12.5794 -8.95089
218 1 11.0076 4.71499 14.1525 -8.95301
219 1 12.5796 3.1444 12.5794 -8.94982
220 1 14.152 4.71687 14.152 -8.94977
221 1 15.7242 3.14483 12.5794 -8.94971
222 1 17.2967 4.71725 14.1518 -8.9497
223 1 18.8691 3.14484 12.5794 -8.94964
224 1 20.4415 4.71726 14.1518 -8.94964
225 1 -3.43204e-05 6.28966 12.5794 -8.94966
226 1 1.57222 7.86201 14.1518 -8.94955
227 1 3.14443 6.28937 12.5795 -8.94912
228 1 4.71599 7.86147 14.1513 -8.95044
229 1 6.28735 6.28699 12.582 -8.93986
230 1 7.85468 7.85756 14.1621 -8.92534
231 1 9.43602 6.28233 12.5799 -8.98991
232 1 11.0271 7.84279 14.1719 -8.87249
233 1 12.5818 6.28578 12.5803 -8.95076
234 1 14.1565 7.85888 14.1549 -8.94316
235 1 15.7245 6.2895 12.5794 -8.94991
236 1 17.2971 7.86195 14.1519 -8.95028
237 1 18.8691 6.28967 12.5794 -8.94964
238 1 20.4415 7.86209 14.1518 -8.94972
239 1 22.0138 9.43447 12.5794 -8.94958
240 1 3.14394 9.43396 12.5795 -8.94593
241 1 6.29214 9.43571 12.5797 -8.90271
242 1 9.5095 9.236 12.582 -8.0664
243 1 12.6073 9.41393 12.598 -8.8949
244 1 15.7273 9.43402 12.58 -8.95487
245 1 18.8693 9.43451 12.5794 -8.95029
246 1 6.81855e-08 -2.92166e-16 15.7242 -8.94963
247 1 1.57242 1.57242 17.2966 -8.94963
248 1 3.14484 1.04976e-15 15.7242 -8.94963
249 1 4.71725 1.5724 17.2966 -8.94968
250 1 6.28968 8.68304e-16 15.7242 -8.9497
251 1 7.86211 1.57241 17.2966 -8.94963
252 1 9.43452 -2.11558e-16 15.7242 -8.94966
253 1 11.0069 1.57242 17.2966 -8.94963
254 1 12.5794 8.88875e-16 15.7242 -8.94971
255 1 14.1518 1.5724 17.2967 -8.94962
256 1 15.7242 -1.42141e-16 15.7242 -8.94963
257 1 17.2966 1.57242 17.2966 -8.94964
258 1 18.8691 9.66979e-16 15.7242 -8.94963
259 1 20.4415 1.57242 17.2966 -8.94963
260 1 -2.17555e-06 3.14484 15.7242 -8.94963
261 1 1.57242 4.71726 17.2966 -8.94974
262 1 3.14482 3.14482 15.7242 -8.94954
263 1 4.7171 4.71694 17.2968 -8.94968
264 1 6.28962 3.14462 15.7243 -8.95013
265 1 7.86211 4.7171 17.2968 -8.9493
266 1 9.43448 3.14467 15.7243 -8.94962
267 1 11.0069 4.71719 17.2967 -8.95002
268 1 12.5795 3.14455 15.7244 -8.94984
269 1 14.152 4.71702 17.2969 -8.94854
270 1 15.7242 3.14481 15.7242 -8.94969
271 1 17.2967 4.71723 17.2967 -8.94951
272 1 18.8691 3.14484 15.7242 -8.94964
273 1 20.4415 4.71726 17.2966 -8.94963
274 1 22.0139 6.28968 15.7242 -8.94962
275 1 1.57215 7.86198 17.2968 -8.94984
276 1 3.14475 6.28962 15.7242 -8.95019
277 1 4.71468 7.85948 17.2992 -8.93938
278 1 6.28859 6.28721 15.7254 -8.95228
279 1 7.86247 7.86144 17.2982 -8.95154
280 1 9.4341 6.28818 15.725 -8.95101
281 1 11.0079 7.86114 17.2991 -8.95213
282 1 12.5819 6.28707 15.7269 -8.93974
283 1 14.152 7.86197 17.297 -8.95029
284 1 15.7247 6.28931 15.7246 -8.94863
285 1 17.2967 7.86211 17.2966 -8.9497
286 1 18.8691 6.28966 15.7242 -8.94966
287 1 20.4415 7.8621 17.2966 -8.94968
288 1 22.0137 9.4345 15.7242 -8.95009
289 1 3.14264 9.43394 15.7248 -8.95335
290 1 6.26925 9.41556 15.7433 -8.87153
291 1 9.44042 9.42604 15.7288 -8.92222
292 1 12.5812 9.43449 15.727 -8.95336
293 1 15.7245 9.43453 15.7244 -8.94968
294 1 18.8691 9.43453 15.7242 -8.94966
295 1 22.0139 1.60812e-16 18.8691 -8.94963
296 1 1.57242 1.57242 20.4415 -8.94963
297 1 3.14484 9.15427e-17 18.8691 -8.94964
298 1 4.71727 1.57242 20.4415 -8.94964
299 1 6.28969 -2.56725e-16 18.8691 -8.94963
300 1 7.86211 1.57242 20.4415 -8.94964
301 1 9.43453 -4.08807e-18 18.8691 -8.94964
302 1 11.007 1.57242 20.4415 -8.94963
303 1 12.5794 1.04623e-15 18.8691 -8.94964
304 1 14.1518 1.57242 20.4415 -8.94965
305 1 15.7242 -6.94336e-16 18.8691 -8.94962
306 1 17.2966 1.57242 20.4415 -8.94963
307 1 18.8691 4.07679e-17 18.8691 -8.94963
308 1 20.4415 1.57242 20.4415 -8.94963
309 1 22.0139 3.14484 18.8691 -8.94964
310 1 1.5724 4.71725 20.4415 -8.94952
311 1 3.14483 3.14481 18.8691 -8.9496
312 1 4.71727 4.71726 20.4415 -8.94974
313 1 6.28969 3.14484 18.8691 -8.94962
314 1 7.8621 4.71726 20.4415 -8.94965
315 1 9.43453 3.14483 18.8691 -8.94966
316 1 11.0069 4.71726 20.4415 -8.94962
317 1 12.5794 3.14484 18.8691 -8.94973
318 1 14.1518 4.71725 20.4415 -8.94961
319 1 15.7242 3.14483 18.8691 -8.94954
320 1 17.2966 4.71726 20.4415 -8.94963
321 1 18.8691 3.14484 18.8691 -8.94962
322 1 20.4415 4.71726 20.4415 -8.94963
323 1 22.0139 6.28967 18.8691 -8.94962
324 1 1.57242 7.86211 20.4415 -8.94971
325 1 3.1446 6.28944 18.8693 -8.94844
326 1 4.71713 7.86197 20.4418 -8.94985
327 1 6.28971 6.28962 18.8691 -8.95006
328 1 7.86215 7.86203 20.4416 -8.94966
329 1 9.43453 6.28953 18.8692 -8.94934
330 1 11.007 7.86202 20.4417 -8.95003
331 1 12.5795 6.28954 18.8694 -8.9497
332 1 14.1518 7.8621 20.4415 -8.94973
333 1 15.7242 6.28967 18.8691 -8.94971
334 1 17.2966 7.86211 20.4415 -8.94964
5 1 6.28969 3.24991e-17 22.0139 -8.94963
47 1 12.5794 9.4345 22.0137 -8.9501
44 1 3.14483 9.43453 22.0139 -8.94961
39 1 15.7242 6.28967 22.0139 -8.94962
27 1 18.8691 3.14484 22.0139 -8.94962
33 1 6.28968 6.28967 22.0139 -8.94965
3 1 3.14484 7.06548e-16 22.0139 -8.94964
13 1 18.8691 -9.8393e-16 22.0139 -8.94963
17 1 3.14484 3.14484 22.0139 -8.94964
23 1 12.5794 3.14484 22.0139 -8.94964
29 1 3.85652e-07 6.28969 22.0139 -8.94965
49 1 18.8691 9.43453 22.0139 -8.94964
344 1 1.57242 11.007 1.57242 -8.94965
345 1 4.71723 11.007 1.5724 -8.94964
346 1 7.86209 11.007 1.57236 -8.94991
347 1 11.0069 11.007 1.57143 -8.95116
348 1 14.1519 11.007 1.5722 -8.94945
349 1 17.2966 11.007 1.57242 -8.94968
350 1 20.4415 11.007 1.57242 -8.94963
688 3 10.2194 11.007 9.4356 2.52539
352 1 1.57242 14.1518 1.57242 -8.94964
511 1 18.8691 18.8691 9.43453 -8.94964
354 1 4.71724 14.1518 1.57242 -8.94973
355 1 6.28964 12.5794 0.000166362 -8.9501
356 1 7.86204 14.1519 1.5722 -8.95003
357 1 9.43453 12.5795 8.18635e-17 -8.94978
358 1 11.0069 14.1519 1.57226 -8.94966
510 1 15.7242 18.8691 9.43453 -8.94968
360 1 14.1519 14.1519 1.57214 -8.94985
361 1 15.7242 12.5794 -8.29059e-06 -8.94961
362 1 17.2966 14.1518 1.57242 -8.94971
538 1 17.2966 20.4415 11.007 -8.94964
364 1 20.4415 14.1518 1.57242 -8.94963
535 1 7.86203 20.4418 11.0069 -8.95015
366 1 1.57242 17.2966 1.57242 -8.94963
367 1 3.14483 15.7242 2.64865e-05 -8.94962
368 1 4.71725 17.2967 1.57239 -8.94961
509 1 12.5795 18.8694 9.43439 -8.94968
370 1 7.86211 17.2966 1.57241 -8.94962
371 1 9.43453 15.7242 1.53014e-15 -8.94962
372 1 11.007 17.2966 1.57241 -8.94965
373 1 12.5794 15.7242 2.03442e-05 -8.94965
374 1 14.1518 17.2966 1.57242 -8.94974
508 1 9.43454 18.8702 9.43446 -8.95089
376 1 17.2967 17.2967 1.5724 -8.94952
507 1 6.2895 18.8695 9.43445 -8.94982
378 1 20.4415 17.2966 1.57242 -8.94963
379 1 22.0139 18.8691 7.72736e-07 -8.94962
380 1 1.57242 20.4415 1.57242 -8.94963
534 1 4.71725 20.4415 11.007 -8.94962
382 1 4.71727 20.4415 1.57242 -8.94965
506 1 3.14483 18.8691 9.43453 -8.94971
384 1 7.86211 20.4415 1.57242 -8.94963
385 1 9.43453 18.8691 -4.1054e-17 -8.94964
386 1 11.007 20.4415 1.57242 -8.94964
531 1 17.2967 17.2967 11.007 -8.94961
388 1 14.1518 20.4415 1.57242 -8.94964
505 1 -2.75753e-07 18.8691 9.43453 -8.94964
390 1 17.2966 20.4415 1.57242 -8.94963
504 1 18.8691 15.7242 9.43452 -8.94966
392 1 20.4415 20.4415 1.57242 -8.94963
393 1 1.5724 11.007 4.71724 -8.94966
394 1 4.71701 11.007 4.71685 -8.94867
395 1 7.86244 11.007 4.71614 -8.95179
396 1 11.008 11.007 4.71032 -8.98831
397 1 14.1533 11.007 4.71564 -8.94838
398 1 17.2968 11.007 4.71716 -8.94945
399 1 20.4415 11.007 4.71726 -8.94965
400 1 4.95991e-08 12.5794 3.14484 -8.94964
401 1 1.57241 14.1518 4.71725 -8.9497
402 1 3.14482 12.5794 3.14482 -8.94961
403 1 4.71704 14.1519 4.71691 -8.95029
404 1 6.28957 12.5793 3.14456 -8.95019
405 1 7.86121 14.1528 4.71479 -8.95213
406 1 9.43412 12.5798 3.14381 -8.94914
407 1 11.0066 14.1525 4.71571 -8.95154
408 1 12.58 12.58 3.14267 -8.95325
409 1 14.1544 14.1544 4.71468 -8.93938
410 1 15.7243 12.5794 3.14475 -8.94972
411 1 17.2969 14.1519 4.71714 -8.94984
412 1 18.8691 12.5794 3.14484 -8.94961
413 1 20.4415 14.1518 4.71726 -8.94968
414 1 22.0139 15.7242 3.14484 -8.94965
415 1 1.57238 17.2967 4.71723 -8.94951
416 1 3.14482 15.7242 3.14481 -8.94971
417 1 4.71702 17.2969 4.71702 -8.94854
418 1 6.28954 15.7244 3.14453 -8.9497
419 1 7.86213 17.2967 4.7172 -8.95002
420 1 9.43453 15.7244 3.14468 -8.94934
421 1 11.007 17.2968 4.71711 -8.9493
422 1 12.5794 15.7243 3.14476 -8.95006
423 1 14.152 17.297 4.71709 -8.94968
424 1 15.7245 15.7245 3.1446 -8.94844
425 1 17.2966 17.2966 4.71727 -8.94974
426 1 18.8691 15.7242 3.14483 -8.94962
427 1 20.4415 17.2966 4.71726 -8.94963
428 1 22.0139 18.8691 3.14484 -8.94962
429 1 1.57242 20.4415 4.71726 -8.94964
430 1 3.14483 18.8691 3.14483 -8.94954
431 1 4.71725 20.4415 4.71725 -8.94962
432 1 6.28969 18.8691 3.14484 -8.94973
433 1 7.86211 20.4415 4.71726 -8.94963
434 1 9.43452 18.8691 3.14483 -8.94966
435 1 11.007 20.4415 4.71725 -8.94963
436 1 12.5794 18.8691 3.14484 -8.94962
437 1 14.1518 20.4415 4.71725 -8.94968
438 1 15.7242 18.8691 3.14482 -8.9496
439 1 17.2966 20.4415 4.71726 -8.94963
440 1 18.8691 18.8691 3.14484 -8.94964
441 1 20.4415 20.4415 4.71726 -8.94963
442 1 1.57209 11.007 7.86194 -8.9493
443 1 4.71517 11.007 7.86002 -8.94507
444 1 7.8644 11.007 7.85556 -8.93895
445 1 11.0868 11.007 7.67143 -8.07372
446 1 14.1604 11.007 7.85999 -8.96864
447 1 17.2975 11.007 7.86216 -8.95156
448 1 20.4415 11.007 7.8621 -8.94984
449 1 22.0139 12.5794 6.28967 -8.94966
450 1 1.57198 14.1519 7.86196 -8.95028
451 1 3.14454 12.5794 6.28949 -8.94968
452 1 4.71252 14.155 7.85896 -8.94316
453 1 6.28786 12.5794 6.28687 -8.95336
454 1 7.84198 14.1711 7.84195 -8.87249
455 1 9.42863 12.5879 6.28512 -8.92222
456 1 11.0144 14.1563 7.85178 -8.92534
457 1 12.5998 12.5983 6.27063 -8.87153
458 1 14.1531 14.1524 7.86264 -8.95044
459 1 15.7264 12.58 6.28906 -8.95335
460 1 17.2968 14.1519 7.86212 -8.94955
461 1 18.8692 12.5794 6.28966 -8.95009
462 1 20.4415 14.1518 7.8621 -8.94972
463 1 22.0139 15.7242 6.28967 -8.94966
464 1 1.57241 17.2966 7.86211 -8.9497
465 1 3.14432 15.7246 6.28931 -8.94863
466 1 4.71702 17.297 7.86194 -8.94977
467 1 6.28714 15.7268 6.287 -8.93974
468 1 7.8615 17.2989 7.86138 -8.95301
469 1 9.43496 15.7257 6.28892 -8.95101
470 1 11.0073 17.2976 7.86167 -8.94959
471 1 12.5805 15.7267 6.28847 -8.95228
472 1 14.1521 17.297 7.86193 -8.94854
473 1 15.7243 15.7243 6.28969 -8.95019
474 1 17.2967 17.2967 7.86209 -8.94962
475 1 18.8691 15.7242 6.28968 -8.94962
476 1 20.4415 17.2966 7.86211 -8.94964
477 1 4.23676e-07 18.8691 6.28969 -8.94964
478 1 1.57242 20.4415 7.86211 -8.94964
479 1 3.14482 18.8691 6.28967 -8.94969
480 1 4.71724 20.4415 7.8621 -8.94964
481 1 6.28955 18.8693 6.28954 -8.94984
482 1 7.86207 20.4417 7.86206 -8.95008
483 1 9.43458 18.8692 6.28961 -8.94962
484 1 11.007 20.4416 7.86207 -8.9497
485 1 12.5794 18.8693 6.28961 -8.95013
486 1 14.1518 20.4415 7.86209 -8.94963
487 1 15.7242 18.8691 6.28967 -8.94954
488 1 17.2966 20.4415 7.86211 -8.94964
489 1 18.8691 18.8691 6.28968 -8.94963
490 1 20.4415 20.4415 7.86211 -8.94963
491 1 22.0137 12.5794 9.4345 -8.95029
492 1 3.14178 12.5799 9.43392 -8.95487
493 1 6.26172 12.6 9.41591 -8.8949
494 1 9.35956 12.7779 9.43189 -8.0664
495 1 12.5769 12.5782 9.43415 -8.90271
496 1 15.7251 12.5799 9.43444 -8.94593
497 1 18.8692 12.5794 9.43452 -8.94958
498 1 22.0139 15.7242 9.43453 -8.94964
499 1 3.14453 15.7244 9.43453 -8.94991
500 1 6.28723 15.7281 9.43361 -8.95076
501 1 9.43304 15.7316 9.43403 -8.98991
502 1 12.5817 15.7269 9.4319 -8.93986
503 1 15.7246 15.7245 9.43441 -8.94912
512 1 1.57144 11.007 11.0071 -8.95139
513 1 4.70842 11.007 11.0055 -8.96703
514 1 7.7804 11.007 10.8148 -8.0078
519 1 1.57206 14.1519 11.007 -8.95
520 1 4.71389 14.153 11.0081 -8.95356
522 1 11.0338 14.1738 10.9959 -8.84429
527 1 4.71707 17.2968 11.007 -8.94982
529 1 11.008 17.2997 11.0068 -8.95272
351 1 22.0139 12.5794 1.0424e-07 -8.94964
377 1 18.8691 15.7242 3.41468e-07 -8.94965
389 1 15.7242 18.8691 2.37021e-06 -8.94964
383 1 6.28969 18.8691 1.26671e-06 -8.94964
687 3 8.64966 11.007 12.5783 2.52539
686 1 20.4415 20.4415 20.4415 -8.94963
685 1 18.8691 18.8691 18.8691 -8.94962
515 1 11.0887 11.007 11.1991 -8.0078
516 1 14.1606 11.007 11.0084 -8.96703
517 1 17.2976 11.007 11.0068 -8.95139
518 1 20.4415 11.007 11.007 -8.95002
684 1 17.2966 20.4415 20.4415 -8.94963
683 1 15.7242 18.8691 18.8691 -8.94954
521 1 7.83523 14.1738 11.018 -8.84429
682 1 14.1518 20.4415 20.4415 -8.94965
523 1 14.1552 14.153 11.0058 -8.95356
524 1 17.297 14.1519 11.0069 -8.95
525 1 20.4415 14.1518 11.007 -8.94972
526 1 1.5724 17.2967 11.0069 -8.94961
681 1 12.5794 18.8691 18.8691 -8.94973
528 1 7.86107 17.2997 11.0071 -8.95272
680 1 11.007 20.4415 20.4415 -8.94963
530 1 14.152 17.2968 11.0069 -8.94982
679 1 9.43453 18.8691 18.8691 -8.94966
532 1 20.4415 17.2966 11.007 -8.94963
533 1 1.57242 20.4415 11.007 -8.94964
678 1 7.86211 20.4415 20.4415 -8.94964
677 1 6.28969 18.8691 18.8691 -8.94962
536 1 11.007 20.4418 11.007 -8.95015
537 1 14.1518 20.4415 11.0069 -8.94962
676 1 4.71727 20.4415 20.4415 -8.94964
539 1 20.4415 20.4415 11.007 -8.94963
540 1 1.57153 11.007 14.1517 -8.95156
541 1 4.70866 11.007 14.1539 -8.96864
542 1 7.78222 11.007 14.3425 -8.07372
543 1 11.0047 11.007 14.1583 -8.93895
544 1 14.1539 11.007 14.1539 -8.94507
545 1 17.297 11.007 14.152 -8.9493
546 1 20.4414 11.007 14.1518 -8.94984
547 1 22.0138 12.5794 12.5794 -8.94958
548 1 1.57222 14.1519 14.1518 -8.94955
549 1 3.14394 12.5799 12.5795 -8.94593
550 1 4.71599 14.1524 14.1513 -8.95044
551 1 6.29214 12.5782 12.5797 -8.90271
552 1 7.85468 14.1563 14.1621 -8.92534
553 1 9.5095 12.7779 12.582 -8.0664
554 1 11.0271 14.1711 14.1719 -8.87249
555 1 12.6073 12.6 12.598 -8.8949
556 1 14.1565 14.155 14.1549 -8.94316
557 1 15.7273 12.5799 12.58 -8.95487
558 1 17.2971 14.1519 14.1519 -8.95028
559 1 18.8693 12.5794 12.5794 -8.95029
560 1 20.4415 14.1518 14.1518 -8.94972
561 1 -3.43204e-05 15.7242 12.5794 -8.94966
562 1 1.57239 17.2967 14.1518 -8.94962
563 1 3.14443 15.7245 12.5795 -8.94912
564 1 4.71694 17.297 14.152 -8.94854
565 1 6.28735 15.7269 12.582 -8.93986
566 1 7.86172 17.2976 14.1522 -8.94959
567 1 9.43602 15.7316 12.5799 -8.98991
568 1 11.0076 17.2989 14.1525 -8.95301
569 1 12.5818 15.7281 12.5803 -8.95076
570 1 14.152 17.297 14.152 -8.94977
571 1 15.7245 15.7244 12.5794 -8.94991
572 1 17.2967 17.2966 14.1518 -8.9497
573 1 18.8691 15.7242 12.5794 -8.94964
574 1 20.4415 17.2966 14.1518 -8.94964
575 1 22.0139 18.8691 12.5794 -8.94964
576 1 1.57242 20.4415 14.1518 -8.94964
577 1 3.14482 18.8691 12.5794 -8.94968
578 1 4.71724 20.4415 14.1518 -8.94963
579 1 6.28952 18.8694 12.5795 -8.94968
580 1 7.86207 20.4416 14.1518 -8.9497
581 1 9.43452 18.8702 12.5794 -8.95089
582 1 11.007 20.4417 14.1518 -8.95008
583 1 12.5796 18.8695 12.5794 -8.94982
584 1 14.1518 20.4415 14.1518 -8.94964
585 1 15.7242 18.8691 12.5794 -8.94971
586 1 17.2966 20.4415 14.1518 -8.94964
587 1 18.8691 18.8691 12.5794 -8.94964
588 1 20.4415 20.4415 14.1518 -8.94963
589 1 1.57221 11.007 17.2967 -8.94945
590 1 4.71574 11.007 17.2983 -8.94838
591 1 7.86103 11.007 17.3036 -8.98831
592 1 11.0066 11.007 17.2978 -8.95179
593 1 14.152 11.007 17.297 -8.94867
594 1 17.2967 11.007 17.2967 -8.94966
595 1 20.4415 11.007 17.2966 -8.94965
596 1 22.0137 12.5794 15.7242 -8.95009
597 1 1.57215 14.1519 17.2968 -8.94984
598 1 3.14264 12.58 15.7248 -8.95335
599 1 4.71468 14.1544 17.2992 -8.93938
600 1 6.26925 12.5983 15.7433 -8.87153
601 1 7.86247 14.1525 17.2982 -8.95154
602 1 9.44042 12.5879 15.7288 -8.92222
603 1 11.0079 14.1528 17.2991 -8.95213
604 1 12.5812 12.5794 15.727 -8.95336
605 1 14.152 14.1519 17.297 -8.95029
606 1 15.7245 12.5794 15.7244 -8.94968
607 1 17.2967 14.1518 17.2966 -8.9497
608 1 18.8691 12.5794 15.7242 -8.94966
609 1 20.4415 14.1518 17.2966 -8.94968
610 1 22.0139 15.7242 15.7242 -8.94962
611 1 1.57242 17.2966 17.2966 -8.94974
612 1 3.14475 15.7243 15.7242 -8.95019
613 1 4.7171 17.297 17.2968 -8.94968
614 1 6.28859 15.7267 15.7254 -8.95228
615 1 7.86211 17.2968 17.2968 -8.9493
616 1 9.4341 15.7257 15.725 -8.95101
617 1 11.0069 17.2967 17.2967 -8.95002
618 1 12.5819 15.7268 15.7269 -8.93974
619 1 14.152 17.2969 17.2969 -8.94854
620 1 15.7247 15.7246 15.7246 -8.94863
621 1 17.2967 17.2967 17.2967 -8.94951
622 1 18.8691 15.7242 15.7242 -8.94966
623 1 20.4415 17.2966 17.2966 -8.94963
624 1 -2.17555e-06 18.8691 15.7242 -8.94963
625 1 1.57242 20.4415 17.2966 -8.94963
626 1 3.14482 18.8691 15.7242 -8.94954
627 1 4.71725 20.4415 17.2966 -8.94968
628 1 6.28962 18.8693 15.7243 -8.95013
629 1 7.86211 20.4415 17.2966 -8.94963
630 1 9.43448 18.8692 15.7243 -8.94962
631 1 11.0069 20.4415 17.2966 -8.94963
632 1 12.5795 18.8693 15.7244 -8.94984
633 1 14.1518 20.4415 17.2967 -8.94962
634 1 15.7242 18.8691 15.7242 -8.94969
635 1 17.2966 20.4415 17.2966 -8.94964
636 1 18.8691 18.8691 15.7242 -8.94964
637 1 20.4415 20.4415 17.2966 -8.94963
638 1 1.57242 11.007 20.4415 -8.94968
639 1 4.71715 11.007 20.4417 -8.94945
640 1 7.86217 11.007 20.4425 -8.95116
641 1 11.007 11.007 20.4415 -8.94991
642 1 14.1518 11.007 20.4415 -8.94964
643 1 17.2966 11.007 20.4415 -8.94965
644 1 20.4415 11.007 20.4415 -8.94963
645 1 -1.00919e-05 12.5794 18.8691 -8.94961
646 1 1.57242 14.1518 20.4415 -8.94971
647 1 3.14474 12.5794 18.8692 -8.94972
648 1 4.71713 14.1519 20.4418 -8.94985
649 1 6.28904 12.58 18.8712 -8.95325
650 1 7.86215 14.1519 20.4416 -8.94966
651 1 9.43494 12.5798 18.8701 -8.94914
652 1 11.007 14.1519 20.4417 -8.95003
653 1 12.5795 12.5793 18.8693 -8.95019
654 1 14.1518 14.1518 20.4415 -8.94973
655 1 15.7242 12.5794 18.8691 -8.94961
656 1 17.2966 14.1518 20.4415 -8.94964
657 1 18.8691 12.5794 18.8691 -8.94964
658 1 20.4415 14.1518 20.4415 -8.94963
659 1 22.0139 15.7242 18.8691 -8.94962
660 1 1.5724 17.2967 20.4415 -8.94952
661 1 3.1446 15.7245 18.8693 -8.94844
662 1 4.71727 17.2966 20.4415 -8.94974
663 1 6.28971 15.7243 18.8691 -8.95006
664 1 7.8621 17.2966 20.4415 -8.94965
665 1 9.43453 15.7244 18.8692 -8.94934
666 1 11.0069 17.2966 20.4415 -8.94962
667 1 12.5795 15.7244 18.8694 -8.9497
668 1 14.1518 17.2967 20.4415 -8.94961
669 1 15.7242 15.7242 18.8691 -8.94971
670 1 17.2966 17.2966 20.4415 -8.94963
671 1 18.8691 15.7242 18.8691 -8.94965
672 1 20.4415 17.2966 20.4415 -8.94963
673 1 22.0139 18.8691 18.8691 -8.94964
674 1 1.57242 20.4415 20.4415 -8.94963
675 1 3.14483 18.8691 18.8691 -8.9496
391 1 18.8691 18.8691 22.0139 -8.94962
353 1 3.14483 12.5794 22.0139 -8.94961
359 1 12.5794 12.5794 22.0137 -8.9501
369 1 6.28968 15.7242 22.0139 -8.94965
375 1 15.7242 15.7242 22.0139 -8.94962
363 1 18.8691 12.5794 22.0139 -8.94964
365 1 3.85652e-07 15.7242 22.0139 -8.94965
381 1 3.14484 18.8691 22.0139 -8.94964
387 1 12.5794 18.8691 22.0139 -8.94964
