ITEM: TIMESTEP
70
ITEM: NUMBER OF ATOMS
688
ITEM: BOX BOUNDS pp pp pp
0.0000000000000000e+00 2.2013900999999997e+01
0.0000000000000000e+00 2.2013900999999997e+01
0.0000000000000000e+00 2.2013900999999997e+01
ITEM: ATOMS id type x y z c_pot
1 1 22.0138 -5.48095e-16 2.27578e-05 -8.94946
2 1 1.57225 1.57228 1.57228 -8.94942
193 1 11.0607 7.82278 10.9944 -8.80998
4 1 4.71718 1.57225 1.57227 -8.94968
175 1 18.8696 9.43424 9.43435 -8.94836
6 1 7.86208 1.57222 1.57225 -8.94957
7 1 9.43453 -9.46476e-16 8.1055e-16 -8.94962
8 1 11.007 1.57221 1.57224 -8.94959
9 1 12.5794 -1.62493e-16 -5.42388e-06 -8.9496
10 1 14.1519 1.57224 1.57228 -8.94955
174 1 15.724 9.4353 9.43412 -8.94008
12 1 17.2968 1.5722 1.57227 -8.94947
191 1 4.70558 7.85924 11.0117 -8.96052
14 1 20.4414 1.57235 1.57239 -8.94954
15 1 22.0138 3.14467 4.73776e-05 -8.94938
16 1 1.5721 4.71699 1.57228 -8.94971
190 1 1.56953 7.86146 11.0077 -8.95152
18 1 4.71667 4.71656 1.57157 -8.94945
173 1 12.5612 9.44731 9.43502 -8.90047
20 1 7.86199 4.71658 1.57178 -8.94922
21 1 9.43453 3.14448 6.19681e-16 -8.94957
22 1 11.007 4.71653 1.57181 -8.94937
188 1 17.2979 4.7163 11.0068 -8.9489
24 1 14.1521 4.71659 1.57186 -8.94996
172 1 9.36619 9.19086 9.43151 -8.11011
26 1 17.2973 4.71661 1.57183 -8.94856
171 1 6.24575 9.3966 9.40139 -8.88506
28 1 20.4416 4.71711 1.57229 -8.9496
186 1 11.0086 4.70929 11.0057 -8.96025
30 1 1.57208 7.86199 1.57227 -8.9494
31 1 3.14431 6.28924 0.000510188 -8.94991
32 1 4.71684 7.86202 1.57209 -8.95041
170 1 3.13412 9.43296 9.43177 -8.95832
34 1 7.86195 7.86169 1.57082 -8.95229
35 1 9.43453 6.28891 1.40614e-15 -8.94947
36 1 11.0068 7.86135 1.57055 -8.95067
37 1 12.5796 6.28913 2.65099e-05 -8.95022
38 1 14.153 7.86104 1.56992 -8.95117
169 1 22.0118 9.43441 9.43437 -8.95151
40 1 17.2973 7.8618 1.57183 -8.94941
168 1 18.87 6.289 9.43435 -8.94994
42 1 20.4416 7.86203 1.57227 -8.94955
167 1 15.7283 6.28701 9.43319 -8.94808
166 1 12.5886 6.28086 9.42404 -8.92609
45 1 6.28943 9.43451 0.000996288 -8.95105
46 1 9.43453 9.43457 9.91366e-16 -8.9494
165 1 9.43026 6.28777 9.43144 -9.00248
48 1 15.7249 9.43435 -0.000483743 -8.94937
184 1 4.71462 4.71436 11.0085 -8.94733
50 1 22.0138 -7.50978e-16 3.14476 -8.94958
51 1 1.57211 1.57213 4.71703 -8.94953
52 1 3.14461 -8.33385e-17 3.14458 -8.94957
53 1 4.71679 1.5717 4.71668 -8.94982
54 1 6.28963 5.29515e-17 3.1446 -8.9496
55 1 7.8621 1.57178 4.71675 -8.94956
56 1 9.43455 -3.44551e-16 3.14456 -8.94959
57 1 11.0071 1.57177 4.71672 -8.94952
58 1 12.5795 -4.44976e-16 3.14459 -8.94952
59 1 14.1521 1.57178 4.71693 -8.9504
60 1 15.7244 -1.54865e-16 3.14466 -8.94989
61 1 17.2969 1.57224 4.71714 -8.94942
62 1 18.8691 1.65532e-16 3.14481 -8.94957
63 1 20.4415 1.57233 4.71721 -8.94961
64 1 22.0136 3.14457 3.14462 -8.94933
65 1 1.571 4.71617 4.71621 -8.94854
66 1 3.14413 3.1441 3.14407 -8.94859
67 1 4.71429 4.71406 4.71392 -8.94513
68 1 6.28947 3.14411 3.14419 -8.94968
69 1 7.86165 4.7147 4.71515 -8.94916
70 1 9.43454 3.14405 3.14417 -8.94943
71 1 11.0074 4.71478 4.7152 -8.9476
72 1 12.5795 3.14406 3.14426 -8.94918
73 1 14.1541 4.71361 4.71474 -8.94987
74 1 15.7249 3.14383 3.14415 -8.94939
75 1 17.2972 4.71678 4.71707 -8.95036
76 1 18.8692 3.14467 3.14474 -8.94979
77 1 20.4413 4.717 4.71707 -8.94969
78 1 22.0138 6.28953 3.14458 -8.94974
79 1 1.57144 7.86189 4.71641 -8.94951
80 1 3.14394 6.28917 3.14382 -8.95042
81 1 4.7149 7.86136 4.71386 -8.95289
82 1 6.28788 6.28769 3.14125 -8.94989
83 1 7.85765 7.85675 4.70695 -8.95376
84 1 9.43434 6.28784 3.14232 -8.94793
85 1 11.0072 7.85846 4.70914 -8.95296
86 1 12.58 6.28797 3.14229 -8.95002
87 1 14.1626 7.85196 4.70658 -8.93059
88 1 15.7271 6.2869 3.14206 -8.94501
89 1 17.2996 7.86074 4.71585 -8.9506
90 1 18.8698 6.2892 3.14435 -8.94962
91 1 20.4418 7.86188 4.7169 -8.94997
92 1 -0.000180686 9.43446 3.1445 -8.94956
93 1 3.14392 9.43438 3.14377 -8.94893
94 1 6.28934 9.43518 3.14313 -8.95081
95 1 9.43481 9.43463 3.1429 -8.95086
96 1 12.5816 9.43345 3.13766 -8.95841
97 1 15.7266 9.43369 3.14246 -8.94799
98 1 18.8698 9.43437 3.14431 -8.94936
99 1 22.0138 1.27903e-15 6.28966 -8.94967
100 1 1.57215 1.57219 7.86209 -8.94966
101 1 3.14445 1.09832e-15 6.28944 -8.9497
102 1 4.71653 1.57128 7.86174 -8.95008
103 1 6.2894 9.40817e-16 6.28924 -8.9503
104 1 7.86193 1.57077 7.86168 -8.95109
105 1 9.43467 5.4774e-16 6.28924 -8.94997
106 1 11.0071 1.57151 7.86182 -8.94943
107 1 12.5795 6.93893e-16 6.28945 -8.95015
108 1 14.1524 1.57159 7.86172 -8.94971
109 1 15.7245 7.10377e-16 6.28948 -8.9495
110 1 17.2969 1.57217 7.862 -8.94959
111 1 18.8692 8.3037e-16 6.28964 -8.94962
112 1 20.4415 1.57232 7.86208 -8.9496
113 1 -0.000265663 3.14455 6.28957 -8.94969
114 1 1.57118 4.71633 7.86188 -8.9499
115 1 3.14369 3.14339 6.28887 -8.94923
116 1 4.71324 4.71188 7.85957 -8.94801
117 1 6.28857 3.14179 6.28823 -8.95092
118 1 7.85997 4.70873 7.85976 -8.95698
119 1 9.43487 3.14244 6.28853 -8.94999
120 1 11.007 4.71408 7.86097 -8.95104
121 1 12.5798 3.14275 6.28907 -8.95217
122 1 14.1549 4.71395 7.85998 -8.94433
123 1 15.7251 3.1439 6.2892 -8.94849
124 1 17.2979 4.71633 7.86164 -8.94917
125 1 18.8693 3.14457 6.28954 -8.94947
126 1 20.4415 4.71691 7.862 -8.94969
127 1 22.0127 6.28902 6.28907 -8.95003
128 1 1.56793 7.86062 7.86065 -8.95231
129 1 3.13928 6.28566 6.28567 -8.94608
130 1 4.69869 7.8495 7.84999 -8.9399
131 1 6.27864 6.27798 6.27756 -8.93056
132 1 7.82323 7.82538 7.82555 -8.85822
133 1 9.43473 6.28182 6.28433 -8.95001
134 1 11.0252 7.852 7.83439 -8.91283
135 1 12.5859 6.27943 6.28193 -8.95447
136 1 14.1558 7.8621 7.86419 -8.95431
137 1 15.726 6.28869 6.2896 -8.95191
138 1 17.2982 7.86168 7.86245 -8.94962
139 1 18.8694 6.28936 6.28961 -8.94977
140 1 20.4411 7.86175 7.86192 -8.95025
141 1 22.0131 9.4344 6.28904 -8.94958
142 1 3.14158 9.43438 6.28701 -8.94819
143 1 6.28514 9.43631 6.28252 -8.96123
144 1 9.42088 9.41434 6.28281 -8.90896
145 1 12.6181 9.40328 6.25462 -8.85514
146 1 15.7332 9.43243 6.28652 -8.95736
147 1 18.8707 9.4343 6.28931 -8.95141
148 1 -0.000112008 1.69048e-15 9.43451 -8.94961
149 1 3.14446 1.79345e-15 9.43455 -8.9495
150 1 6.28921 1.52225e-15 9.43447 -8.9507
151 1 9.43457 1.16449e-15 9.4343 -8.94931
152 1 12.5798 1.38722e-15 9.43428 -8.9502
153 1 15.7246 1.61969e-15 9.43442 -8.94955
154 1 18.8692 1.639e-15 9.43451 -8.94962
155 1 -0.00026257 3.14453 9.43451 -8.94948
156 1 3.14398 3.14387 9.43468 -8.94956
157 1 6.28807 3.14065 9.43439 -8.95183
158 1 9.43438 3.14231 9.43388 -8.94697
159 1 12.5806 3.14212 9.43349 -8.95033
160 1 15.7252 3.14374 9.43423 -8.94942
161 1 18.8693 3.14451 9.43447 -8.94955
162 1 22.013 6.28913 9.43458 -8.94989
163 1 3.1406 6.28727 9.43478 -8.95073
164 1 6.27664 6.27303 9.42968 -8.94601
177 1 4.71657 1.57157 11.0072 -8.94924
178 1 7.86196 1.57083 11.0071 -8.95111
181 1 17.297 1.57215 11.0069 -8.94957
11 1 15.7243 4.5065e-16 4.70011e-06 -8.94967
19 1 6.28961 3.14453 -1.83222e-06 -8.94951
25 1 15.7244 3.14454 5.05926e-05 -8.94961
43 1 22.0137 9.43449 7.65849e-05 -8.9496
41 1 18.8692 6.28958 -7.63024e-05 -8.9496
176 1 1.57209 1.57215 11.007 -8.94957
343 1 18.8692 9.43446 18.8694 -8.94956
342 1 15.7251 9.43438 18.8701 -8.94893
179 1 11.0071 1.57083 11.0068 -8.95111
180 1 14.1525 1.57157 11.0067 -8.94924
341 1 12.5797 9.43518 18.8708 -8.95081
182 1 20.4415 1.57231 11.007 -8.94962
183 1 1.5712 4.7163 11.0071 -8.9489
340 1 9.43425 9.43463 18.871 -8.95086
185 1 7.8605 4.70929 11.0082 -8.96025
339 1 6.28747 9.43345 18.8762 -8.95841
187 1 14.1544 4.71436 11.0054 -8.94733
338 1 3.14248 9.43369 18.8714 -8.94799
189 1 20.4415 4.71684 11.007 -8.94955
337 1 -0.000758142 9.43437 18.8696 -8.94936
336 1 20.4414 7.86203 20.4416 -8.94955
192 1 7.80835 7.82278 11.0195 -8.80998
335 1 18.8692 6.28953 18.8693 -8.94974
194 1 14.1635 7.85924 11.0022 -8.96052
195 1 17.2995 7.86146 11.0062 -8.95152
196 1 20.4415 7.86174 11.007 -8.95011
197 1 -0.000110418 1.29215e-15 12.5794 -8.94962
198 1 1.57211 1.57217 14.1519 -8.94959
199 1 3.14444 1.78696e-15 12.5795 -8.94955
200 1 4.71663 1.57159 14.1522 -8.94971
201 1 6.28929 1.61195e-15 12.5796 -8.9502
202 1 7.86198 1.57151 14.1521 -8.94943
203 1 9.43449 1.32794e-15 12.5796 -8.94931
204 1 11.0071 1.57077 14.1522 -8.95109
205 1 12.5799 1.74811e-15 12.5794 -8.9507
206 1 14.1525 1.57128 14.1522 -8.95008
207 1 15.7246 1.74607e-15 12.5794 -8.9495
208 1 17.2969 1.57219 14.1518 -8.94966
209 1 18.8692 1.67608e-15 12.5794 -8.94961
210 1 20.4415 1.57232 14.1518 -8.9496
211 1 22.0136 3.14451 12.5794 -8.94955
212 1 1.5712 4.71633 14.1523 -8.94917
213 1 3.14386 3.14374 12.5797 -8.94942
214 1 4.71416 4.71395 14.1539 -8.94433
215 1 6.28842 3.14212 12.5804 -8.95033
216 1 7.86206 4.71408 14.1529 -8.95104
217 1 9.43468 3.14231 12.58 -8.94697
218 1 11.0091 4.70873 14.1541 -8.95698
219 1 12.581 3.14065 12.5795 -8.95183
220 1 14.1558 4.71188 14.1543 -8.94801
221 1 15.7251 3.14387 12.5792 -8.94956
222 1 17.2979 4.71633 14.152 -8.9499
223 1 18.8693 3.14453 12.5794 -8.94948
224 1 20.4415 4.71691 14.1519 -8.94969
225 1 -0.000935886 6.289 12.5796 -8.94994
226 1 1.57091 7.86168 14.1514 -8.94962
227 1 3.14074 6.28701 12.5807 -8.94808
228 1 4.71328 7.8621 14.1497 -8.95431
229 1 6.28042 6.28086 12.5899 -8.92609
230 1 7.84384 7.852 14.1795 -8.91283
231 1 9.4388 6.28777 12.5825 -9.00248
232 1 11.0458 7.82538 14.1883 -8.85822
233 1 12.5924 6.27303 12.5842 -8.94601
234 1 14.1704 7.8495 14.1639 -8.9399
235 1 15.7285 6.28727 12.5791 -8.95073
236 1 17.3011 7.86062 14.1533 -8.95231
237 1 18.87 6.28913 12.5793 -8.94989
238 1 20.4419 7.86175 14.152 -8.95025
239 1 22.0133 9.43424 12.5796 -8.94836
240 1 3.14505 9.4353 12.5798 -8.94008
241 1 6.30791 9.44731 12.5789 -8.90047
242 1 9.50287 9.19086 12.5824 -8.11011
243 1 12.6233 9.3966 12.6125 -8.88506
244 1 15.7349 9.43296 12.5821 -8.95832
245 1 18.8712 9.43441 12.5795 -8.95151
246 1 -9.75616e-05 5.47558e-16 15.7243 -8.94962
247 1 1.5722 1.57224 17.2968 -8.94942
248 1 3.14451 8.83712e-16 15.7244 -8.9495
249 1 4.71697 1.57178 17.297 -8.9504
250 1 6.28953 1.59748e-15 15.7245 -8.95015
251 1 7.86192 1.57177 17.2972 -8.94952
252 1 9.43438 4.25971e-17 15.7247 -8.94997
253 1 11.007 1.57178 17.2972 -8.94956
254 1 12.5797 1.24581e-15 15.7247 -8.9503
255 1 14.1523 1.5717 17.2972 -8.94982
256 1 15.7246 1.39517e-15 15.7245 -8.9497
257 1 17.297 1.57213 17.2969 -8.94953
258 1 18.8691 1.51932e-15 15.7242 -8.94967
259 1 20.4415 1.57233 17.2967 -8.94961
260 1 -0.000258009 3.14457 15.7244 -8.94947
261 1 1.57187 4.71678 17.2968 -8.95036
262 1 3.14399 3.1439 15.7247 -8.94849
263 1 4.71491 4.71361 17.2992 -8.94987
264 1 6.28925 3.14275 15.7248 -8.95217
265 1 7.86167 4.71478 17.2987 -8.9476
266 1 9.43419 3.14244 15.7254 -8.94999
267 1 11.0074 4.7147 17.2988 -8.94916
268 1 12.5805 3.14179 15.7257 -8.95092
269 1 14.1548 4.71406 17.3 -8.94513
270 1 15.7254 3.14339 15.725 -8.94923
271 1 17.2981 4.71617 17.2977 -8.94854
272 1 18.8693 3.14455 15.7243 -8.94969
273 1 20.4417 4.717 17.2968 -8.94969
274 1 22.0136 6.28936 15.7243 -8.94977
275 1 1.56949 7.86074 17.2981 -8.9506
276 1 3.1431 6.28869 15.7243 -8.95191
277 1 4.70641 7.85196 17.3073 -8.93059
278 1 6.28317 6.27943 15.732 -8.95447
279 1 7.86183 7.85846 17.3048 -8.95296
280 1 9.43433 6.28182 15.7296 -8.95001
281 1 11.0114 7.85675 17.307 -8.95376
282 1 12.5904 6.27798 15.7363 -8.93056
283 1 14.1542 7.86136 17.3 -8.95289
284 1 15.7298 6.28566 15.7282 -8.94608
285 1 17.2976 7.86189 17.2975 -8.94951
286 1 18.8703 6.28902 15.7248 -8.95003
287 1 20.4412 7.86188 17.297 -8.94997
288 1 22.0122 9.4343 15.7246 -8.95141
289 1 3.13586 9.43243 15.7274 -8.95736
290 1 6.25096 9.40328 15.7593 -8.85514
291 1 9.44817 9.41434 15.7311 -8.90896
292 1 12.5839 9.43631 15.7314 -8.96123
293 1 15.7275 9.43438 15.7269 -8.94819
294 1 18.8699 9.4344 15.7249 -8.94958
295 1 22.0138 5.3172e-16 18.8691 -8.94957
296 1 1.57222 1.5722 20.4416 -8.94947
297 1 3.14466 -4.35998e-16 18.8692 -8.94989
298 1 4.7172 1.57224 20.4416 -8.94955
299 1 6.28958 -1.03775e-15 18.8693 -8.94952
300 1 7.86208 1.57221 20.4417 -8.94959
301 1 9.43451 -2.92702e-16 18.8693 -8.94959
302 1 11.007 1.57222 20.4416 -8.94957
303 1 12.5794 6.793e-16 18.8693 -8.9496
304 1 14.1519 1.57225 20.4416 -8.94968
305 1 15.7244 3.14352e-16 18.8693 -8.94957
306 1 17.2968 1.57228 20.4416 -8.94942
307 1 18.8692 1.45285e-15 18.8691 -8.94958
308 1 20.4415 1.57235 20.4415 -8.94954
309 1 22.0138 3.14467 18.8692 -8.94979
310 1 1.57175 4.71661 20.4421 -8.94856
311 1 3.14414 3.14383 18.8698 -8.94939
312 1 4.71692 4.71659 20.442 -8.94996
313 1 6.28952 3.14406 18.8696 -8.94918
314 1 7.86202 4.71653 20.4421 -8.94937
315 1 9.43452 3.14405 18.8697 -8.94943
316 1 11.0071 4.71658 20.4421 -8.94922
317 1 12.5796 3.14411 18.8697 -8.94968
318 1 14.1524 4.71656 20.4423 -8.94945
319 1 15.7249 3.1441 18.8698 -8.94859
320 1 17.297 4.71699 20.4416 -8.94971
321 1 18.8694 3.14457 18.8693 -8.94933
322 1 20.4414 4.71711 20.4416 -8.9496
323 1 22.0131 6.2892 18.8696 -8.94962
324 1 1.57175 7.8618 20.4421 -8.94941
325 1 3.14198 6.2869 18.8718 -8.94501
326 1 4.71609 7.86104 20.444 -8.95117
327 1 6.28901 6.28797 18.8716 -8.95002
328 1 7.8623 7.86135 20.4433 -8.95067
329 1 9.43471 6.28784 18.8716 -8.94793
330 1 11.0071 7.86169 20.4431 -8.95229
331 1 12.5812 6.28769 18.8726 -8.94989
332 1 14.1522 7.86202 20.4418 -8.95041
333 1 15.7251 6.28917 18.8701 -8.95042
334 1 17.297 7.86199 20.4416 -8.9494
5 1 6.28966 -2.03963e-16 22.0139 -8.9496
47 1 12.5796 9.43451 22.0129 -8.95105
44 1 3.14419 9.43435 22.0144 -8.94937
39 1 15.7247 6.28924 22.0134 -8.94991
27 1 18.8692 3.14467 22.0139 -8.94938
33 1 6.28943 6.28913 22.0139 -8.95022
3 1 3.14479 -3.66371e-17 22.0139 -8.94967
13 1 18.8691 -9.52149e-17 22.0139 -8.94946
17 1 3.14462 3.14454 22.0139 -8.94961
23 1 12.5794 3.14453 22.0139 -8.94951
29 1 -0.000159765 6.28958 22.014 -8.9496
49 1 18.8692 9.43449 22.0138 -8.9496
344 1 1.57204 11.007 1.57224 -8.94956
345 1 4.71652 11.007 1.57193 -8.9501
346 1 7.86205 11.007 1.5722 -8.94788
347 1 11.0069 11.007 1.57129 -8.94694
348 1 14.1533 11.007 1.56981 -8.94941
349 1 17.2973 11.007 1.57181 -8.94956
350 1 20.4416 11.007 1.57226 -8.94959
688 3 10.2163 11.007 9.43952 2.30237
352 1 1.57208 14.1519 1.57227 -8.9494
511 1 18.8693 18.8694 9.43447 -8.94955
354 1 4.71684 14.1519 1.57209 -8.95041
355 1 6.28943 12.5794 0.000996288 -8.95105
356 1 7.86195 14.1522 1.57082 -8.95229
357 1 9.43453 12.5793 7.79842e-16 -8.9494
358 1 11.0068 14.1525 1.57055 -8.95067
510 1 15.7252 18.8702 9.43423 -8.94942
360 1 14.153 14.1529 1.56992 -8.95117
361 1 15.7249 12.5796 -0.000483743 -8.94937
362 1 17.2973 14.1521 1.57183 -8.94941
538 1 17.297 20.4418 11.0069 -8.94957
364 1 20.4416 14.1519 1.57227 -8.94955
535 1 7.86196 20.4431 11.0071 -8.95111
366 1 1.5721 17.2969 1.57228 -8.94971
367 1 3.14431 15.7247 0.000510188 -8.94991
368 1 4.71667 17.2973 1.57157 -8.94945
509 1 12.5806 18.8718 9.43349 -8.95033
370 1 7.86199 17.2973 1.57178 -8.94922
371 1 9.43453 15.725 1.57475e-15 -8.94947
372 1 11.007 17.2974 1.57181 -8.94937
373 1 12.5796 15.7248 2.65099e-05 -8.95022
374 1 14.1521 17.2973 1.57186 -8.94996
508 1 9.43438 18.8716 9.43388 -8.94697
376 1 17.2973 17.2973 1.57183 -8.94856
507 1 6.28807 18.8732 9.43439 -8.95183
378 1 20.4416 17.2968 1.57229 -8.9496
379 1 22.0138 18.8692 4.73776e-05 -8.94938
380 1 1.57225 20.4416 1.57228 -8.94942
534 1 4.71657 20.4423 11.0072 -8.94924
382 1 4.71718 20.4417 1.57227 -8.94968
506 1 3.14398 18.87 9.43468 -8.94956
384 1 7.86208 20.4417 1.57225 -8.94957
385 1 9.43453 18.8694 -3.55889e-16 -8.94957
386 1 11.007 20.4417 1.57224 -8.94959
531 1 17.2979 17.2976 11.0068 -8.9489
388 1 14.1519 20.4417 1.57228 -8.94955
505 1 -0.00026257 18.8694 9.43451 -8.94948
390 1 17.2968 20.4417 1.57227 -8.94947
504 1 18.87 15.7249 9.43435 -8.94994
392 1 20.4414 20.4416 1.57239 -8.94954
393 1 1.57133 11.007 4.71619 -8.94944
394 1 4.71472 11.007 4.7134 -8.94642
395 1 7.86422 11.007 4.71834 -8.94289
396 1 11.0114 11.007 4.71901 -9.00161
397 1 14.1603 11.007 4.70887 -8.94267
398 1 17.2996 11.007 4.71569 -8.94904
399 1 20.4419 11.007 4.71681 -8.9498
400 1 -0.000180686 12.5794 3.1445 -8.94956
401 1 1.57144 14.152 4.71641 -8.94951
402 1 3.14392 12.5795 3.14377 -8.94893
403 1 4.7149 14.1525 4.71386 -8.95289
404 1 6.28934 12.5787 3.14313 -8.95081
405 1 7.85765 14.1572 4.70695 -8.95376
406 1 9.43481 12.5793 3.1429 -8.95086
407 1 11.0072 14.1554 4.70914 -8.95296
408 1 12.5816 12.5804 3.13766 -8.95841
409 1 14.1626 14.1619 4.70658 -8.93059
410 1 15.7266 12.5802 3.14246 -8.94799
411 1 17.2996 14.1532 4.71585 -8.9506
412 1 18.8698 12.5795 3.14431 -8.94936
413 1 20.4418 14.152 4.7169 -8.94997
414 1 22.0138 15.7244 3.14458 -8.94974
415 1 1.571 17.2977 4.71621 -8.94854
416 1 3.14394 15.7247 3.14382 -8.95042
417 1 4.71429 17.2998 4.71392 -8.94513
418 1 6.28788 15.7262 3.14125 -8.94989
419 1 7.86165 17.2992 4.71515 -8.94916
420 1 9.43434 15.7261 3.14232 -8.94793
421 1 11.0074 17.2991 4.7152 -8.9476
422 1 12.58 15.7259 3.14229 -8.95002
423 1 14.1541 17.3003 4.71474 -8.94987
424 1 15.7271 15.727 3.14206 -8.94501
425 1 17.2972 17.2971 4.71707 -8.95036
426 1 18.8698 15.7247 3.14435 -8.94962
427 1 20.4413 17.2969 4.71707 -8.94969
428 1 22.0136 18.8693 3.14462 -8.94933
429 1 1.57211 20.4418 4.71703 -8.94953
430 1 3.14413 18.8698 3.14407 -8.94859
431 1 4.71679 20.4422 4.71668 -8.94982
432 1 6.28947 18.8698 3.14419 -8.94968
433 1 7.8621 20.4421 4.71675 -8.94956
434 1 9.43454 18.8699 3.14417 -8.94943
435 1 11.0071 20.4421 4.71672 -8.94952
436 1 12.5795 18.8698 3.14426 -8.94918
437 1 14.1521 20.4421 4.71693 -8.9504
438 1 15.7249 18.8701 3.14415 -8.94939
439 1 17.2969 20.4417 4.71714 -8.94942
440 1 18.8692 18.8692 3.14474 -8.94979
441 1 20.4415 20.4416 4.71721 -8.94961
442 1 1.56924 11.007 7.86041 -8.94739
443 1 4.71108 11.007 7.85503 -8.93557
444 1 7.87716 11.007 7.87613 -8.94374
445 1 11.0854 11.007 7.63694 -8.11654
446 1 14.1617 11.007 7.85489 -8.97144
447 1 17.2995 11.007 7.86214 -8.95123
448 1 20.4414 11.007 7.86188 -8.94989
449 1 22.0131 12.5795 6.28904 -8.94958
450 1 1.56793 14.1533 7.86065 -8.95231
451 1 3.14158 12.5795 6.28701 -8.94819
452 1 4.69869 14.1644 7.84999 -8.9399
453 1 6.28514 12.5776 6.28252 -8.96123
454 1 7.82323 14.1885 7.82555 -8.85822
455 1 9.42088 12.5996 6.28281 -8.90896
456 1 11.0252 14.1619 7.83439 -8.91283
457 1 12.6181 12.6106 6.25462 -8.85514
458 1 14.1558 14.1518 7.86419 -8.95431
459 1 15.7332 12.5815 6.28652 -8.95736
460 1 17.2982 14.1522 7.86245 -8.94962
461 1 18.8707 12.5796 6.28931 -8.95141
462 1 20.4411 14.1522 7.86192 -8.95025
463 1 22.0127 15.7249 6.28907 -8.95003
464 1 1.57118 17.2976 7.86188 -8.9499
465 1 3.13928 15.7282 6.28567 -8.94608
466 1 4.71324 17.302 7.85957 -8.94801
467 1 6.27864 15.7359 6.27756 -8.93056
468 1 7.85997 17.3052 7.85976 -8.95698
469 1 9.43473 15.7321 6.28433 -8.95001
470 1 11.007 17.2998 7.86097 -8.95104
471 1 12.5859 15.7345 6.28193 -8.95447
472 1 14.1549 17.2999 7.85998 -8.94433
473 1 15.726 15.7252 6.2896 -8.95191
474 1 17.2979 17.2976 7.86164 -8.94917
475 1 18.8694 15.7245 6.28961 -8.94977
476 1 20.4415 17.297 7.862 -8.94969
477 1 -0.000265663 18.8694 6.28957 -8.94969
478 1 1.57215 20.4417 7.86209 -8.94966
479 1 3.14369 18.8705 6.28887 -8.94923
480 1 4.71653 20.4426 7.86174 -8.95008
481 1 6.28857 18.8721 6.28823 -8.95092
482 1 7.86193 20.4431 7.86168 -8.95109
483 1 9.43487 18.8715 6.28853 -8.94999
484 1 11.0071 20.4424 7.86182 -8.94943
485 1 12.5798 18.8712 6.28907 -8.95217
486 1 14.1524 20.4423 7.86172 -8.94971
487 1 15.7251 18.87 6.2892 -8.94849
488 1 17.2969 20.4417 7.862 -8.94959
489 1 18.8693 18.8693 6.28954 -8.94947
490 1 20.4415 20.4416 7.86208 -8.9496
491 1 22.0118 12.5795 9.43437 -8.95151
492 1 3.13412 12.5809 9.43177 -8.95832
493 1 6.24575 12.6173 9.40139 -8.88506
494 1 9.36619 12.823 9.43151 -8.11011
495 1 12.5612 12.5666 9.43502 -8.90047
496 1 15.724 12.5786 9.43412 -8.94008
497 1 18.8696 12.5797 9.43435 -8.94836
498 1 22.013 15.7248 9.43458 -8.94989
499 1 3.1406 15.7266 9.43478 -8.95073
500 1 6.27664 15.7409 9.42968 -8.94601
501 1 9.43026 15.7261 9.43144 -9.00248
502 1 12.5886 15.733 9.42404 -8.92609
503 1 15.7283 15.7269 9.43319 -8.94808
512 1 1.56969 11.007 11.0077 -8.94973
513 1 4.71072 11.007 11 -8.96858
514 1 7.79449 11.007 10.7677 -8.02922
519 1 1.56953 14.1524 11.0077 -8.95152
520 1 4.70558 14.1547 11.0117 -8.96052
522 1 11.0607 14.1911 10.9944 -8.80998
527 1 4.71462 17.2995 11.0085 -8.94733
529 1 11.0086 17.3046 11.0057 -8.96025
351 1 22.0137 12.5794 7.65849e-05 -8.9496
377 1 18.8692 15.7243 -7.63024e-05 -8.9496
389 1 15.7244 18.8694 5.05926e-05 -8.94961
383 1 6.28961 18.8694 -1.83222e-06 -8.94951
687 3 8.65275 11.007 12.5744 2.30237
686 1 20.4415 20.4416 20.4415 -8.94954
685 1 18.8694 18.8693 18.8693 -8.94933
515 1 11.0746 11.007 11.2462 -8.02922
516 1 14.1583 11.007 11.0139 -8.96858
517 1 17.2994 11.007 11.0062 -8.94973
518 1 20.4415 11.007 11.007 -8.94974
684 1 17.2968 20.4416 20.4416 -8.94942
683 1 15.7249 18.8698 18.8698 -8.94859
521 1 7.80835 14.1911 11.0195 -8.80998
682 1 14.1519 20.4417 20.4416 -8.94968
523 1 14.1635 14.1547 11.0022 -8.96052
524 1 17.2995 14.1524 11.0062 -8.95152
525 1 20.4415 14.1522 11.007 -8.95011
526 1 1.5712 17.2976 11.0071 -8.9489
681 1 12.5796 18.8698 18.8697 -8.94968
528 1 7.8605 17.3046 11.0082 -8.96025
680 1 11.007 20.4417 20.4416 -8.94957
530 1 14.1544 17.2995 11.0054 -8.94733
679 1 9.43452 18.8699 18.8697 -8.94943
532 1 20.4415 17.2971 11.007 -8.94955
533 1 1.57209 20.4418 11.007 -8.94957
678 1 7.86208 20.4417 20.4417 -8.94959
677 1 6.28952 18.8698 18.8696 -8.94918
536 1 11.0071 20.4431 11.0068 -8.95111
537 1 14.1525 20.4423 11.0067 -8.94924
676 1 4.7172 20.4417 20.4416 -8.94955
539 1 20.4415 20.4416 11.007 -8.94962
540 1 1.56958 11.007 14.1518 -8.95123
541 1 4.70739 11.007 14.159 -8.97144
542 1 7.78361 11.007 14.377 -8.11654
543 1 10.9919 11.007 14.1378 -8.94374
544 1 14.158 11.007 14.1589 -8.93557
545 1 17.2998 11.007 14.1535 -8.94739
546 1 20.4416 11.007 14.152 -8.94989
547 1 22.0133 12.5797 12.5796 -8.94836
548 1 1.57091 14.1522 14.1514 -8.94962
549 1 3.14505 12.5786 12.5798 -8.94008
550 1 4.71328 14.1518 14.1497 -8.95431
551 1 6.30791 12.5666 12.5789 -8.90047
552 1 7.84384 14.1619 14.1795 -8.91283
553 1 9.50287 12.823 12.5824 -8.11011
554 1 11.0458 14.1885 14.1883 -8.85822
555 1 12.6233 12.6173 12.6125 -8.88506
556 1 14.1704 14.1644 14.1639 -8.9399
557 1 15.7349 12.5809 12.5821 -8.95832
558 1 17.3011 14.1533 14.1533 -8.95231
559 1 18.8712 12.5795 12.5795 -8.95151
560 1 20.4419 14.1522 14.152 -8.95025
561 1 -0.000935886 15.7249 12.5796 -8.94994
562 1 1.5712 17.2976 14.1523 -8.94917
563 1 3.14074 15.7269 12.5807 -8.94808
564 1 4.71416 17.2999 14.1539 -8.94433
565 1 6.28042 15.733 12.5899 -8.92609
566 1 7.86206 17.2998 14.1529 -8.95104
567 1 9.4388 15.7261 12.5825 -9.00248
568 1 11.0091 17.3052 14.1541 -8.95698
569 1 12.5924 15.7409 12.5842 -8.94601
570 1 14.1558 17.302 14.1543 -8.94801
571 1 15.7285 15.7266 12.5791 -8.95073
572 1 17.2979 17.2976 14.152 -8.9499
573 1 18.87 15.7248 12.5793 -8.94989
574 1 20.4415 17.297 14.1519 -8.94969
575 1 22.0136 18.8694 12.5794 -8.94955
576 1 1.57211 20.4417 14.1519 -8.94959
577 1 3.14386 18.8702 12.5797 -8.94942
578 1 4.71663 20.4423 14.1522 -8.94971
579 1 6.28842 18.8718 12.5804 -8.95033
580 1 7.86198 20.4424 14.1521 -8.94943
581 1 9.43468 18.8716 12.58 -8.94697
582 1 11.0071 20.4431 14.1522 -8.95109
583 1 12.581 18.8732 12.5795 -8.95183
584 1 14.1525 20.4426 14.1522 -8.95008
585 1 15.7251 18.87 12.5792 -8.94956
586 1 17.2969 20.4417 14.1518 -8.94966
587 1 18.8693 18.8694 12.5794 -8.94948
588 1 20.4415 20.4416 14.1518 -8.9496
589 1 1.56947 11.007 17.2982 -8.94904
590 1 4.70872 11.007 17.305 -8.94267
591 1 7.85766 11.007 17.2949 -9.00161
592 1 11.0048 11.007 17.2956 -8.94289
593 1 14.1543 11.007 17.3005 -8.94642
594 1 17.2977 11.007 17.2977 -8.94944
595 1 20.4411 11.007 17.2971 -8.9498
596 1 22.0122 12.5796 15.7246 -8.95141
597 1 1.56949 14.1532 17.2981 -8.9506
598 1 3.13586 12.5815 15.7274 -8.95736
599 1 4.70641 14.1619 17.3073 -8.93059
600 1 6.25096 12.6106 15.7593 -8.85514
601 1 7.86183 14.1554 17.3048 -8.95296
602 1 9.44817 12.5996 15.7311 -8.90896
603 1 11.0114 14.1572 17.307 -8.95376
604 1 12.5839 12.5776 15.7314 -8.96123
605 1 14.1542 14.1525 17.3 -8.95289
606 1 15.7275 12.5795 15.7269 -8.94819
607 1 17.2976 14.152 17.2975 -8.94951
608 1 18.8699 12.5795 15.7249 -8.94958
609 1 20.4412 14.152 17.297 -8.94997
610 1 22.0136 15.7245 15.7243 -8.94977
611 1 1.57187 17.2971 17.2968 -8.95036
612 1 3.1431 15.7252 15.7243 -8.95191
613 1 4.71491 17.3003 17.2992 -8.94987
614 1 6.28317 15.7345 15.732 -8.95447
615 1 7.86167 17.2991 17.2987 -8.9476
616 1 9.43433 15.7321 15.7296 -8.95001
617 1 11.0074 17.2992 17.2988 -8.94916
618 1 12.5904 15.7359 15.7363 -8.93056
619 1 14.1548 17.2998 17.3 -8.94513
620 1 15.7298 15.7282 15.7282 -8.94608
621 1 17.2981 17.2977 17.2977 -8.94854
622 1 18.8703 15.7249 15.7248 -8.95003
623 1 20.4417 17.2969 17.2968 -8.94969
624 1 -0.000258009 18.8693 15.7244 -8.94947
625 1 1.5722 20.4417 17.2968 -8.94942
626 1 3.14399 18.87 15.7247 -8.94849
627 1 4.71697 20.4421 17.297 -8.9504
628 1 6.28925 18.8712 15.7248 -8.95217
629 1 7.86192 20.4421 17.2972 -8.94952
630 1 9.43419 18.8715 15.7254 -8.94999
631 1 11.007 20.4421 17.2972 -8.94956
632 1 12.5805 18.8721 15.7257 -8.95092
633 1 14.1523 20.4422 17.2972 -8.94982
634 1 15.7254 18.8705 15.725 -8.94923
635 1 17.297 20.4418 17.2969 -8.94953
636 1 18.8693 18.8694 15.7243 -8.94969
637 1 20.4415 20.4416 17.2967 -8.94961
638 1 1.57172 11.007 20.4421 -8.94956
639 1 4.71574 11.007 20.4441 -8.94941
640 1 7.86211 11.007 20.4426 -8.94694
641 1 11.007 11.007 20.4417 -8.94788
642 1 14.1525 11.007 20.442 -8.9501
643 1 17.297 11.007 20.4417 -8.94956
644 1 20.4414 11.007 20.4416 -8.94959
645 1 -0.000758142 12.5795 18.8696 -8.94936
646 1 1.57175 14.1521 20.4421 -8.94941
647 1 3.14248 12.5802 18.8714 -8.94799
648 1 4.71609 14.1529 20.444 -8.95117
649 1 6.28747 12.5804 18.8762 -8.95841
650 1 7.8623 14.1525 20.4433 -8.95067
651 1 9.43425 12.5793 18.871 -8.95086
652 1 11.0071 14.1522 20.4431 -8.95229
653 1 12.5797 12.5787 18.8708 -8.95081
654 1 14.1522 14.1519 20.4418 -8.95041
655 1 15.7251 12.5795 18.8701 -8.94893
656 1 17.297 14.1519 20.4416 -8.9494
657 1 18.8692 12.5794 18.8694 -8.94956
658 1 20.4414 14.1519 20.4416 -8.94955
659 1 22.0131 15.7247 18.8696 -8.94962
660 1 1.57175 17.2973 20.4421 -8.94856
661 1 3.14198 15.727 18.8718 -8.94501
662 1 4.71692 17.2973 20.442 -8.94996
663 1 6.28901 15.7259 18.8716 -8.95002
664 1 7.86202 17.2974 20.4421 -8.94937
665 1 9.43471 15.7261 18.8716 -8.94793
666 1 11.0071 17.2973 20.4421 -8.94922
667 1 12.5812 15.7262 18.8726 -8.94989
668 1 14.1524 17.2973 20.4423 -8.94945
669 1 15.7251 15.7247 18.8701 -8.95042
670 1 17.297 17.2969 20.4416 -8.94971
671 1 18.8692 15.7244 18.8693 -8.94974
672 1 20.4414 17.2968 20.4416 -8.9496
673 1 22.0138 18.8692 18.8692 -8.94979
674 1 1.57222 20.4417 20.4416 -8.94947
675 1 3.14414 18.8701 18.8698 -8.94939
391 1 18.8692 18.8692 22.0139 -8.94938
353 1 3.14419 12.5796 22.0144 -8.94937
359 1 12.5796 12.5794 22.0129 -8.95105
369 1 6.28943 15.7248 22.0139 -8.95022
375 1 15.7247 15.7247 22.0134 -8.94991
363 1 18.8692 12.5794 22.0138 -8.9496
365 1 -0.000159765 15.7243 22.014 -8.9496
381 1 3.14462 18.8694 22.0139 -8.94961
387 1 12.5794 18.8694 22.0139 -8.94951
