ITEM: TIMESTEP
63
ITEM: NUMBER OF ATOMS
688
ITEM: BOX BOUNDS pp pp pp
0.0000000000000000e+00 2.2013900999999997e+01
0.0000000000000000e+00 2.2013900999999997e+01
0.0000000000000000e+00 2.2013900999999997e+01
ITEM: ATOMS id type x y z c_pot
1 1 22.0139 -1.02475e-15 6.56418e-06 -8.94958
2 1 1.57238 1.57239 1.57238 -8.94954
193 1 11.0551 7.82619 10.993 -8.81444
4 1 4.71725 1.57238 1.57239 -8.9497
175 1 18.8695 9.43427 9.43443 -8.94883
6 1 7.8621 1.57237 1.57238 -8.94963
7 1 9.43453 -5.25362e-16 6.12709e-16 -8.94964
8 1 11.007 1.57237 1.57237 -8.94964
9 1 12.5794 -4.70946e-16 -1.34599e-06 -8.94964
10 1 14.1518 1.57238 1.57238 -8.94961
174 1 15.7248 9.43447 9.43416 -8.94104
12 1 17.2967 1.57235 1.57237 -8.94956
191 1 4.70792 7.85972 11.011 -8.95897
14 1 20.4415 1.57241 1.57242 -8.94961
15 1 22.0139 3.1448 1.99403e-05 -8.94952
16 1 1.57232 4.71718 1.57239 -8.94966
190 1 1.57048 7.86158 11.0074 -8.95094
18 1 4.71702 4.71698 1.57202 -8.94951
173 1 12.5648 9.44511 9.43464 -8.89897
20 1 7.86207 4.71699 1.57215 -8.9494
21 1 9.43453 3.14474 2.21593e-16 -8.94964
22 1 11.007 4.71697 1.57214 -8.94951
188 1 17.2972 4.71682 11.0069 -8.94917
24 1 14.1519 4.71702 1.57222 -8.94989
172 1 9.36133 9.19705 9.43179 -8.10236
26 1 17.2969 4.71698 1.57215 -8.94892
171 1 6.2472 9.39971 9.40374 -8.88588
28 1 20.4415 4.71722 1.57238 -8.94962
186 1 11.0084 4.71026 11.006 -8.95847
30 1 1.57232 7.86208 1.57238 -8.94953
31 1 3.14461 6.28948 0.000278849 -8.94976
32 1 4.71704 7.86205 1.57227 -8.95017
170 1 3.13599 9.43326 9.43254 -8.95785
34 1 7.86192 7.86179 1.5713 -8.95154
35 1 9.43453 6.28931 1.55297e-15 -8.9495
36 1 11.0068 7.86158 1.57124 -8.95021
37 1 12.5795 6.28942 5.72129e-05 -8.94992
38 1 14.1525 7.86142 1.57081 -8.95079
169 1 22.0125 9.43444 9.43442 -8.95132
40 1 17.2969 7.86201 1.57219 -8.94961
168 1 18.8696 6.28935 9.43445 -8.94981
42 1 20.4415 7.86209 1.57238 -8.94961
167 1 15.7269 6.28784 9.43373 -8.94828
166 1 12.5866 6.28238 9.42618 -8.92871
45 1 6.28952 9.43447 0.000714122 -8.95089
46 1 9.43453 9.43443 6.81159e-16 -8.94968
165 1 9.4307 6.2864 9.43233 -9.00112
48 1 15.7245 9.43446 -0.000227987 -8.94945
184 1 4.71571 4.71552 11.0078 -8.94817
50 1 22.0139 -7.9483e-16 3.14483 -8.94963
51 1 1.57234 1.57233 4.7172 -8.94962
52 1 3.14477 -2.83313e-17 3.14476 -8.94959
53 1 4.71705 1.57209 4.71702 -8.94972
54 1 6.28968 2.77221e-16 3.14478 -8.94962
55 1 7.86212 1.57216 4.71707 -8.94957
56 1 9.43453 -5.04687e-16 3.14477 -8.94963
57 1 11.007 1.57212 4.71703 -8.94956
58 1 12.5794 -3.95466e-16 3.14477 -8.94958
59 1 14.1519 1.57212 4.71713 -8.95008
60 1 15.7243 -9.53167e-17 3.14478 -8.94974
61 1 17.2967 1.57237 4.71723 -8.94953
62 1 18.8691 7.71696e-17 3.14484 -8.94962
63 1 20.4415 1.5724 4.71726 -8.94963
64 1 22.0138 3.14476 3.14478 -8.94948
65 1 1.57178 4.71677 4.71679 -8.94889
66 1 3.14455 3.14454 3.14453 -8.94897
67 1 4.71552 4.71541 4.71534 -8.94599
68 1 6.28963 3.14459 3.14461 -8.94978
69 1 7.86199 4.71593 4.71616 -8.94947
70 1 9.43452 3.14451 3.14457 -8.94955
71 1 11.0072 4.71581 4.71608 -8.94807
72 1 12.5794 3.14453 3.1446 -8.94937
73 1 14.1531 4.71505 4.71587 -8.94983
74 1 15.7245 3.14439 3.14454 -8.94947
75 1 17.2968 4.71709 4.71723 -8.95011
76 1 18.8691 3.1448 3.14482 -8.94973
77 1 20.4414 4.71718 4.7172 -8.94965
78 1 22.0139 6.28965 3.14476 -8.94972
79 1 1.57201 7.86204 4.7169 -8.94961
80 1 3.14446 6.28946 3.14438 -8.95011
81 1 4.71584 7.86167 4.71511 -8.9521
82 1 6.28864 6.28855 3.14267 -8.94985
83 1 7.85891 7.85836 4.70923 -8.95376
84 1 9.43441 6.28857 3.14335 -8.94829
85 1 11.0067 7.85945 4.71124 -8.95246
86 1 12.5796 6.28874 3.14348 -8.94996
87 1 14.1602 7.85391 4.70896 -8.93187
88 1 15.7259 6.28797 3.14316 -8.94583
89 1 17.2984 7.86128 4.71643 -8.9504
90 1 18.8694 6.28947 3.14462 -8.94962
91 1 20.4417 7.86202 4.71713 -8.94988
92 1 -5.1882e-05 9.43451 3.14474 -8.94962
93 1 3.1444 9.43445 3.14433 -8.94919
94 1 6.28933 9.43494 3.14357 -8.95074
95 1 9.43445 9.43438 3.14285 -8.95034
96 1 12.5809 9.43352 3.13894 -8.95736
97 1 15.7255 9.4341 3.14354 -8.94856
98 1 18.8694 9.43448 3.14463 -8.94947
99 1 22.0139 1.28084e-15 6.28969 -8.94966
100 1 1.57235 1.57236 7.86211 -8.94967
101 1 3.14472 8.77359e-16 6.28961 -8.94965
102 1 4.71693 1.57187 7.86193 -8.94983
103 1 6.28954 1.15714e-15 6.28949 -8.9501
104 1 7.86199 1.57137 7.86185 -8.95087
105 1 9.4346 6.24752e-17 6.28949 -8.94986
106 1 11.0071 1.57185 7.86193 -8.94956
107 1 12.5794 1.07192e-15 6.28958 -8.95001
108 1 14.1521 1.57199 7.86193 -8.94966
109 1 15.7243 1.14941e-15 6.28962 -8.94955
110 1 17.2967 1.57234 7.86208 -8.94965
111 1 18.8691 8.30904e-16 6.28968 -8.94965
112 1 20.4415 1.5724 7.8621 -8.94963
113 1 -7.04923e-05 3.14477 6.28966 -8.94969
114 1 1.57192 4.71689 7.86204 -8.94982
115 1 3.14437 3.14422 6.28936 -8.94948
116 1 4.71501 4.71407 7.86068 -8.94866
117 1 6.28902 3.143 6.28882 -8.95065
118 1 7.86065 4.71055 7.86034 -8.95627
119 1 9.43481 3.14341 6.28902 -8.94979
120 1 11.0071 4.71479 7.8614 -8.9506
121 1 12.5796 3.14355 6.28935 -8.9516
122 1 14.1538 4.71513 7.86086 -8.94545
123 1 15.7246 3.14442 6.28948 -8.9489
124 1 17.2972 4.71682 7.86188 -8.94934
125 1 18.8691 3.14476 6.28964 -8.94956
126 1 20.4415 4.71715 7.86207 -8.94966
127 1 22.0133 6.28938 6.2894 -8.94988
128 1 1.56961 7.86119 7.86121 -8.95175
129 1 3.1414 6.28719 6.28721 -8.94661
130 1 4.70249 7.85208 7.85242 -8.93986
131 1 6.28126 6.28075 6.28042 -8.93186
132 1 7.82689 7.82882 7.82819 -8.85842
133 1 9.4351 6.28389 6.28601 -8.95011
134 1 11.0222 7.85381 7.83897 -8.91587
135 1 12.5839 6.28176 6.28443 -8.95434
136 1 14.1549 7.86177 7.86418 -8.95335
137 1 15.7251 6.28912 6.28979 -8.95133
138 1 17.2977 7.86172 7.86233 -8.94944
139 1 18.8692 6.28954 6.28966 -8.94966
140 1 20.4413 7.86193 7.86201 -8.95007
141 1 22.0135 9.43448 6.28939 -8.94964
142 1 3.14282 9.4345 6.28805 -8.94852
143 1 6.28597 9.43606 6.28339 -8.95961
144 1 9.42304 9.41756 6.28313 -8.91163
145 1 12.6147 9.40485 6.25758 -8.85697
146 1 15.7312 9.43282 6.28749 -8.95662
147 1 18.8701 9.43439 6.28951 -8.95105
148 1 -2.2232e-05 1.1971e-15 9.43453 -8.94963
149 1 3.14473 1.73385e-15 9.43454 -8.94959
150 1 6.28943 1.51162e-15 9.43447 -8.95031
151 1 9.43456 1.3083e-15 9.4344 -8.94976
152 1 12.5796 1.40658e-15 9.4344 -8.95005
153 1 15.7243 1.36382e-15 9.43451 -8.94961
154 1 18.8691 1.40188e-15 9.43453 -8.94964
155 1 -7.98145e-05 3.14475 9.43452 -8.94957
156 1 3.14449 3.14444 9.4346 -8.94966
157 1 6.28866 3.14215 9.43437 -8.95105
158 1 9.43449 3.14264 9.43409 -8.94792
159 1 12.5802 3.14299 9.43385 -8.95008
160 1 15.7246 3.14433 9.43443 -8.94959
161 1 18.8691 3.14475 9.43452 -8.94962
162 1 22.0135 6.28943 9.43455 -8.94974
163 1 3.14237 6.28826 9.43476 -8.95037
164 1 6.28027 6.27682 9.43111 -8.94755
177 1 4.71695 1.57201 11.007 -8.94939
178 1 7.86194 1.57125 11.007 -8.95098
181 1 17.2967 1.57233 11.007 -8.94963
11 1 15.7242 4.16159e-16 6.7094e-07 -8.94967
19 1 6.28967 3.14476 4.96255e-06 -8.9496
25 1 15.7243 3.14476 2.73515e-05 -8.94965
43 1 22.0139 9.43452 2.47789e-05 -8.94965
41 1 18.8691 6.28967 -2.29748e-05 -8.94967
176 1 1.57233 1.57233 11.0069 -8.94963
343 1 18.8691 9.43451 18.8692 -8.94962
342 1 15.7247 9.43445 18.8696 -8.94919
179 1 11.0071 1.57125 11.0069 -8.95098
180 1 14.1521 1.57201 11.0069 -8.94939
341 1 12.5797 9.43494 18.8703 -8.95074
182 1 20.4415 1.5724 11.007 -8.94964
183 1 1.57187 4.71682 11.007 -8.94917
340 1 9.43461 9.43438 18.871 -8.95034
185 1 7.86069 4.71026 11.0079 -8.95847
339 1 6.28815 9.43352 18.875 -8.95736
187 1 14.1533 4.71552 11.0061 -8.94817
338 1 3.14358 9.4341 18.8704 -8.94856
189 1 20.4415 4.71713 11.007 -8.9496
337 1 -0.000318165 9.43448 18.8693 -8.94947
336 1 20.4414 7.86209 20.4415 -8.94961
192 1 7.81392 7.82619 11.0209 -8.81444
335 1 18.8691 6.28965 18.8691 -8.94972
194 1 14.1611 7.85972 11.0029 -8.95897
195 1 17.2986 7.86158 11.0065 -8.95094
196 1 20.4415 7.86191 11.007 -8.95
197 1 -2.04253e-05 1.5442e-15 12.5794 -8.94964
198 1 1.57233 1.57234 14.1518 -8.94965
199 1 3.14472 1.88275e-15 12.5794 -8.94961
200 1 4.71696 1.57199 14.152 -8.94966
201 1 6.28947 1.40262e-15 12.5795 -8.95005
202 1 7.862 1.57185 14.152 -8.94956
203 1 9.4345 1.06904e-15 12.5795 -8.94976
204 1 11.0071 1.57137 14.1521 -8.95087
205 1 12.5796 1.48159e-15 12.5794 -8.95031
206 1 14.1521 1.57187 14.152 -8.94983
207 1 15.7243 1.62822e-15 12.5794 -8.94959
208 1 17.2967 1.57236 14.1518 -8.94967
209 1 18.8691 1.75298e-15 12.5794 -8.94963
210 1 20.4415 1.5724 14.1518 -8.94963
211 1 22.0138 3.14475 12.5794 -8.94962
212 1 1.57184 4.71682 14.152 -8.94934
213 1 3.14441 3.14433 12.5795 -8.94959
214 1 4.71528 4.71513 14.153 -8.94545
215 1 6.28883 3.14299 12.58 -8.95008
216 1 7.86196 4.71479 14.1525 -8.9506
217 1 9.43457 3.14264 12.5798 -8.94792
218 1 11.0084 4.71055 14.1536 -8.95627
219 1 12.5804 3.14215 12.5795 -8.95105
220 1 14.154 4.71407 14.1532 -8.94866
221 1 15.7246 3.14444 12.5793 -8.94966
222 1 17.2971 4.71689 14.1519 -8.94982
223 1 18.8691 3.14475 12.5794 -8.94957
224 1 20.4415 4.71715 14.1518 -8.94966
225 1 -0.000492017 6.28935 12.5795 -8.94981
226 1 1.5714 7.86172 14.1516 -8.94944
227 1 3.14217 6.28784 12.5802 -8.94828
228 1 4.71418 7.86177 14.1497 -8.95335
229 1 6.28241 6.28238 12.5877 -8.92871
230 1 7.84687 7.85381 14.1749 -8.91587
231 1 9.43836 6.2864 12.5816 -9.00112
232 1 11.0422 7.82882 14.1857 -8.85842
233 1 12.5888 6.27682 12.5828 -8.94755
234 1 14.1666 7.85208 14.1615 -8.93986
235 1 15.7267 6.28826 12.5791 -8.95037
236 1 17.2995 7.86119 14.1527 -8.95175
237 1 18.8695 6.28943 12.5794 -8.94974
238 1 20.4417 7.86193 14.1519 -8.95007
239 1 22.0134 9.43427 12.5795 -8.94883
240 1 3.1443 9.43447 12.5797 -8.94104
241 1 6.30425 9.44511 12.5793 -8.89897
242 1 9.50773 9.19705 12.5821 -8.10236
243 1 12.6219 9.39971 12.6102 -8.88588
244 1 15.7331 9.43326 12.5814 -8.95785
245 1 18.8704 9.43444 12.5795 -8.95132
246 1 -1.90147e-05 5.64855e-16 15.7242 -8.94965
247 1 1.57236 1.57237 17.2967 -8.94953
248 1 3.14473 9.8399e-16 15.7243 -8.94955
249 1 4.71714 1.57212 17.2968 -8.95008
250 1 6.28961 1.272e-15 15.7243 -8.95001
251 1 7.86203 1.57212 17.2969 -8.94956
252 1 9.43446 -1.55277e-16 15.7244 -8.94986
253 1 11.0069 1.57216 17.2968 -8.94957
254 1 12.5795 1.26573e-15 15.7244 -8.9501
255 1 14.152 1.57209 17.2969 -8.94972
256 1 15.7243 8.06868e-16 15.7243 -8.94965
257 1 17.2967 1.57233 17.2967 -8.94962
258 1 18.8691 1.48623e-15 15.7242 -8.94966
259 1 20.4415 1.5724 17.2966 -8.94963
260 1 -8.99053e-05 3.14476 15.7243 -8.94956
261 1 1.57223 4.71709 17.2967 -8.95011
262 1 3.14446 3.14442 15.7244 -8.9489
263 1 4.71596 4.71505 17.298 -8.94983
264 1 6.28943 3.14355 15.7245 -8.9516
265 1 7.8619 4.71581 17.2978 -8.94807
266 1 9.43425 3.14341 15.7249 -8.94979
267 1 11.0071 4.71593 17.2977 -8.94947
268 1 12.58 3.143 15.7251 -8.95065
269 1 14.1535 4.71541 17.2986 -8.94599
270 1 15.7247 3.14422 15.7245 -8.94948
271 1 17.2973 4.71677 17.2971 -8.94889
272 1 18.8691 3.14477 15.7242 -8.94969
273 1 20.4416 4.71718 17.2967 -8.94965
274 1 22.0137 6.28954 15.7242 -8.94966
275 1 1.57062 7.86128 17.2975 -8.9504
276 1 3.14392 6.28912 15.7241 -8.95133
277 1 4.70886 7.85391 17.3049 -8.93187
278 1 6.28518 6.28176 15.7295 -8.95434
279 1 7.86234 7.85945 17.3027 -8.95246
280 1 9.43396 6.28389 15.7279 -8.95011
281 1 11.0102 7.85836 17.3047 -8.95376
282 1 12.5878 6.28075 15.7335 -8.93186
283 1 14.1532 7.86167 17.2988 -8.9521
284 1 15.7277 6.28719 15.7267 -8.94661
285 1 17.2971 7.86204 17.297 -8.94961
286 1 18.8697 6.28938 15.7245 -8.94988
287 1 20.4413 7.86202 17.2968 -8.94988
288 1 22.0128 9.43439 15.7244 -8.95105
289 1 3.13785 9.43282 15.7264 -8.95662
290 1 6.25431 9.40485 15.7563 -8.85697
291 1 9.44602 9.41756 15.7308 -8.91163
292 1 12.5831 9.43606 15.7305 -8.95961
293 1 15.7262 9.4345 15.7259 -8.94852
294 1 18.8694 9.43448 15.7245 -8.94964
295 1 22.0139 5.31161e-16 18.8691 -8.94962
296 1 1.57236 1.57235 20.4415 -8.94956
297 1 3.14479 -6.94712e-17 18.8691 -8.94974
298 1 4.71726 1.57238 20.4415 -8.94961
299 1 6.28966 -1.21283e-15 18.8691 -8.94958
300 1 7.8621 1.57237 20.4415 -8.94964
301 1 9.43453 -7.39339e-16 18.8691 -8.94963
302 1 11.007 1.57237 20.4415 -8.94963
303 1 12.5794 6.05275e-16 18.8691 -8.94962
304 1 14.1518 1.57238 20.4415 -8.9497
305 1 15.7243 1.78406e-16 18.8691 -8.94959
306 1 17.2967 1.57239 20.4415 -8.94954
307 1 18.8691 5.19522e-16 18.8691 -8.94963
308 1 20.4415 1.57241 20.4415 -8.94961
309 1 22.0139 3.1448 18.8691 -8.94973
310 1 1.57213 4.71698 20.4417 -8.94892
311 1 3.14455 3.14439 18.8694 -8.94947
312 1 4.71717 4.71702 20.4417 -8.94989
313 1 6.28964 3.14453 18.8693 -8.94937
314 1 7.86207 4.71697 20.4418 -8.94951
315 1 9.43454 3.14451 18.8693 -8.94955
316 1 11.007 4.71699 20.4418 -8.9494
317 1 12.5794 3.14459 18.8693 -8.94978
318 1 14.152 4.71698 20.4419 -8.94951
319 1 15.7245 3.14454 18.8694 -8.94897
320 1 17.2967 4.71718 20.4415 -8.94966
321 1 18.8692 3.14476 18.8691 -8.94948
322 1 20.4414 4.71722 20.4415 -8.94962
323 1 22.0135 6.28947 18.8693 -8.94962
324 1 1.57218 7.86201 20.4417 -8.94961
325 1 3.14313 6.28797 18.8707 -8.94583
326 1 4.71656 7.86142 20.4431 -8.95079
327 1 6.28946 6.28874 18.8704 -8.94996
328 1 7.8623 7.86158 20.4427 -8.95021
329 1 9.43464 6.28857 18.8706 -8.94829
330 1 11.0071 7.86179 20.4426 -8.95154
331 1 12.5804 6.28855 18.8712 -8.94985
332 1 14.152 7.86205 20.4416 -8.95017
333 1 15.7246 6.28946 18.8695 -8.95011
334 1 17.2967 7.86208 20.4415 -8.94953
5 1 6.28968 3.67158e-16 22.0139 -8.94964
47 1 12.5795 9.43447 22.0132 -8.95089
44 1 3.14458 9.43446 22.0141 -8.94945
39 1 15.7244 6.28948 22.0136 -8.94976
27 1 18.8691 3.1448 22.0139 -8.94952
33 1 6.28957 6.28942 22.0138 -8.94992
3 1 3.14484 -8.71801e-17 22.0139 -8.94967
13 1 18.8691 -8.40836e-16 22.0139 -8.94958
17 1 3.14479 3.14476 22.0139 -8.94965
23 1 12.5794 3.14476 22.0139 -8.9496
29 1 -3.83105e-05 6.28967 22.0139 -8.94967
49 1 18.8691 9.43452 22.0139 -8.94965
344 1 1.5723 11.007 1.57236 -8.94963
345 1 4.71687 11.007 1.57214 -8.94989
346 1 7.86199 11.007 1.57217 -8.94873
347 1 11.0068 11.007 1.57109 -8.94823
348 1 14.1527 11.007 1.5708 -8.94931
349 1 17.2969 11.007 1.57218 -8.94964
350 1 20.4415 11.007 1.57238 -8.94963
688 3 10.2197 11.007 9.43708 2.31705
352 1 1.57232 14.1518 1.57238 -8.94953
511 1 18.8691 18.8692 9.43452 -8.94962
354 1 4.71704 14.1519 1.57227 -8.95017
355 1 6.28952 12.5794 0.000714122 -8.95089
356 1 7.86192 14.1521 1.5713 -8.95154
357 1 9.43453 12.5795 6.36807e-16 -8.94968
358 1 11.0068 14.1523 1.57124 -8.95021
510 1 15.7246 18.8696 9.43443 -8.94959
360 1 14.1525 14.1525 1.57081 -8.95079
361 1 15.7245 12.5794 -0.000227987 -8.94945
362 1 17.2969 14.1519 1.57219 -8.94961
538 1 17.2967 20.4416 11.007 -8.94963
364 1 20.4415 14.1518 1.57238 -8.94961
535 1 7.86194 20.4426 11.007 -8.95098
366 1 1.57232 17.2967 1.57239 -8.94966
367 1 3.14461 15.7244 0.000278849 -8.94976
368 1 4.71702 17.2969 1.57202 -8.94951
509 1 12.5802 18.8709 9.43385 -8.95008
370 1 7.86207 17.2969 1.57215 -8.9494
371 1 9.43453 15.7246 1.41861e-15 -8.9495
372 1 11.007 17.2969 1.57214 -8.94951
373 1 12.5795 15.7245 5.72129e-05 -8.94992
374 1 14.1519 17.2969 1.57222 -8.94989
508 1 9.43449 18.8713 9.43409 -8.94792
376 1 17.2969 17.2969 1.57215 -8.94892
507 1 6.28866 18.8718 9.43437 -8.95105
378 1 20.4415 17.2967 1.57238 -8.94962
379 1 22.0139 18.8691 1.99403e-05 -8.94952
380 1 1.57238 20.4415 1.57238 -8.94954
534 1 4.71695 20.4419 11.007 -8.94939
382 1 4.71725 20.4415 1.57239 -8.9497
506 1 3.14449 18.8695 9.4346 -8.94966
384 1 7.8621 20.4415 1.57238 -8.94963
385 1 9.43453 18.8692 -6.77041e-16 -8.94964
386 1 11.007 20.4415 1.57237 -8.94964
531 1 17.2972 17.2971 11.0069 -8.94917
388 1 14.1518 20.4415 1.57238 -8.94961
505 1 -7.98145e-05 18.8691 9.43452 -8.94957
390 1 17.2967 20.4415 1.57237 -8.94956
504 1 18.8696 15.7245 9.43445 -8.94981
392 1 20.4415 20.4415 1.57242 -8.94961
393 1 1.57191 11.007 4.71678 -8.94953
394 1 4.71557 11.007 4.71465 -8.94688
395 1 7.86363 11.007 4.71718 -8.94531
396 1 11.0105 11.007 4.7163 -8.99956
397 1 14.1579 11.007 4.71105 -8.94387
398 1 17.2983 11.007 4.71639 -8.9491
399 1 20.4417 11.007 4.71709 -8.94975
400 1 -5.1882e-05 12.5794 3.14474 -8.94962
401 1 1.57201 14.1519 4.7169 -8.94961
402 1 3.1444 12.5794 3.14433 -8.94919
403 1 4.71584 14.1522 4.71511 -8.9521
404 1 6.28933 12.579 3.14357 -8.95074
405 1 7.85891 14.1555 4.70923 -8.95376
406 1 9.43445 12.5795 3.14285 -8.95034
407 1 11.0067 14.1545 4.71124 -8.95246
408 1 12.5809 12.5804 3.13894 -8.95736
409 1 14.1602 14.16 4.70896 -8.93187
410 1 15.7255 12.5798 3.14354 -8.94856
411 1 17.2984 14.1526 4.71643 -8.9504
412 1 18.8694 12.5794 3.14463 -8.94947
413 1 20.4417 14.1519 4.71713 -8.94988
414 1 22.0139 15.7243 3.14476 -8.94972
415 1 1.57178 17.2971 4.71679 -8.94889
416 1 3.14446 15.7244 3.14438 -8.95011
417 1 4.71552 17.2985 4.71534 -8.94599
418 1 6.28864 15.7253 3.14267 -8.94985
419 1 7.86199 17.298 4.71616 -8.94947
420 1 9.43441 15.7253 3.14335 -8.94829
421 1 11.0072 17.2981 4.71608 -8.94807
422 1 12.5796 15.7252 3.14348 -8.94996
423 1 14.1531 17.2988 4.71587 -8.94983
424 1 15.7259 15.7259 3.14316 -8.94583
425 1 17.2968 17.2968 4.71723 -8.95011
426 1 18.8694 15.7244 3.14462 -8.94962
427 1 20.4414 17.2967 4.7172 -8.94965
428 1 22.0138 18.8691 3.14478 -8.94948
429 1 1.57234 20.4416 4.7172 -8.94962
430 1 3.14455 18.8694 3.14453 -8.94897
431 1 4.71705 20.4418 4.71702 -8.94972
432 1 6.28963 18.8693 3.14461 -8.94978
433 1 7.86212 20.4417 4.71707 -8.94957
434 1 9.43452 18.8694 3.14457 -8.94955
435 1 11.007 20.4418 4.71703 -8.94956
436 1 12.5794 18.8694 3.1446 -8.94937
437 1 14.1519 20.4418 4.71713 -8.95008
438 1 15.7245 18.8695 3.14454 -8.94947
439 1 17.2967 20.4415 4.71723 -8.94953
440 1 18.8691 18.8691 3.14482 -8.94973
441 1 20.4415 20.4415 4.71726 -8.94963
442 1 1.57039 11.007 7.86104 -8.94797
443 1 4.71203 11.007 7.85623 -8.93714
444 1 7.8744 11.007 7.87136 -8.94346
445 1 11.0882 11.007 7.64178 -8.1033
446 1 14.1624 11.007 7.85635 -8.97157
447 1 17.299 11.007 7.86228 -8.95152
448 1 20.4415 11.007 7.86201 -8.95
449 1 22.0135 12.5794 6.28939 -8.94964
450 1 1.56961 14.1527 7.86121 -8.95175
451 1 3.14282 12.5794 6.28805 -8.94852
452 1 4.70249 14.1618 7.85242 -8.93986
453 1 6.28597 12.5778 6.28339 -8.95961
454 1 7.82689 14.1851 7.82819 -8.85842
455 1 9.42304 12.5963 6.28313 -8.91163
456 1 11.0222 14.1601 7.83897 -8.91587
457 1 12.6147 12.6091 6.25758 -8.85697
458 1 14.1549 14.1521 7.86418 -8.95335
459 1 15.7312 12.5811 6.28749 -8.95662
460 1 17.2977 14.1522 7.86233 -8.94944
461 1 18.8701 12.5795 6.28951 -8.95105
462 1 20.4413 14.152 7.86201 -8.95007
463 1 22.0133 15.7245 6.2894 -8.94988
464 1 1.57192 17.297 7.86204 -8.94982
465 1 3.1414 15.7267 6.28721 -8.94661
466 1 4.71501 17.2998 7.86068 -8.94866
467 1 6.28126 15.7331 6.28042 -8.93186
468 1 7.86065 17.3034 7.86034 -8.95627
469 1 9.4351 15.73 6.28601 -8.95011
470 1 11.0071 17.2991 7.8614 -8.9506
471 1 12.5839 15.7321 6.28443 -8.95434
472 1 14.1538 17.2988 7.86086 -8.94545
473 1 15.7251 15.7248 6.28979 -8.95133
474 1 17.2972 17.2971 7.86188 -8.94934
475 1 18.8692 15.7244 6.28966 -8.94966
476 1 20.4415 17.2967 7.86207 -8.94966
477 1 -7.04923e-05 18.8691 6.28966 -8.94969
478 1 1.57235 20.4415 7.86211 -8.94967
479 1 3.14437 18.8697 6.28936 -8.94948
480 1 4.71693 20.442 7.86193 -8.94983
481 1 6.28902 18.8709 6.28882 -8.95065
482 1 7.86199 20.4425 7.86185 -8.95087
483 1 9.43481 18.8705 6.28902 -8.94979
484 1 11.0071 20.4421 7.86193 -8.94956
485 1 12.5796 18.8703 6.28935 -8.9516
486 1 14.1521 20.4419 7.86193 -8.94966
487 1 15.7246 18.8695 6.28948 -8.9489
488 1 17.2967 20.4416 7.86208 -8.94965
489 1 18.8691 18.8691 6.28964 -8.94956
490 1 20.4415 20.4415 7.8621 -8.94963
491 1 22.0125 12.5795 9.43442 -8.95132
492 1 3.13599 12.5806 9.43254 -8.95785
493 1 6.2472 12.6142 9.40374 -8.88588
494 1 9.36133 12.8168 9.43179 -8.10236
495 1 12.5648 12.5688 9.43464 -8.89897
496 1 15.7248 12.5794 9.43416 -8.94104
497 1 18.8695 12.5796 9.43443 -8.94883
498 1 22.0135 15.7245 9.43455 -8.94974
499 1 3.14237 15.7256 9.43476 -8.95037
500 1 6.28027 15.7371 9.43111 -8.94755
501 1 9.4307 15.7275 9.43233 -9.00112
502 1 12.5866 15.7315 9.42618 -8.92871
503 1 15.7269 15.7261 9.43373 -8.94828
512 1 1.56991 11.007 11.0076 -8.95055
513 1 4.70836 11.007 11.002 -8.96895
514 1 7.78791 11.007 10.7742 -8.0257
519 1 1.57048 14.1523 11.0074 -8.95094
520 1 4.70792 14.1542 11.011 -8.95897
522 1 11.0551 14.1877 10.993 -8.81444
527 1 4.71571 17.2984 11.0078 -8.94817
529 1 11.0084 17.3036 11.006 -8.95847
351 1 22.0139 12.5794 2.47789e-05 -8.94965
377 1 18.8691 15.7242 -2.29748e-05 -8.94967
389 1 15.7243 18.8691 2.73515e-05 -8.94965
383 1 6.28967 18.8691 4.96255e-06 -8.9496
687 3 8.64937 11.007 12.5768 2.31705
686 1 20.4415 20.4415 20.4415 -8.94961
685 1 18.8692 18.8691 18.8691 -8.94948
515 1 11.0811 11.007 11.2397 -8.0257
516 1 14.1607 11.007 11.0119 -8.96895
517 1 17.2992 11.007 11.0063 -8.95055
518 1 20.4415 11.007 11.007 -8.95013
684 1 17.2967 20.4415 20.4415 -8.94954
683 1 15.7245 18.8694 18.8694 -8.94897
521 1 7.81392 14.1877 11.0209 -8.81444
682 1 14.1518 20.4415 20.4415 -8.9497
523 1 14.1611 14.1542 11.0029 -8.95897
524 1 17.2986 14.1523 11.0065 -8.95094
525 1 20.4415 14.152 11.007 -8.95
526 1 1.57187 17.2971 11.007 -8.94917
681 1 12.5794 18.8693 18.8693 -8.94978
528 1 7.86069 17.3036 11.0079 -8.95847
680 1 11.007 20.4415 20.4415 -8.94963
530 1 14.1533 17.2984 11.0061 -8.94817
679 1 9.43454 18.8694 18.8693 -8.94955
532 1 20.4415 17.2968 11.007 -8.9496
533 1 1.57233 20.4416 11.0069 -8.94963
678 1 7.8621 20.4415 20.4415 -8.94964
677 1 6.28964 18.8694 18.8693 -8.94937
536 1 11.0071 20.4426 11.0069 -8.95098
537 1 14.1521 20.4419 11.0069 -8.94939
676 1 4.71726 20.4415 20.4415 -8.94961
539 1 20.4415 20.4415 11.007 -8.94964
540 1 1.57001 11.007 14.1516 -8.95152
541 1 4.70669 11.007 14.1576 -8.97157
542 1 7.78088 11.007 14.3721 -8.1033
543 1 10.9947 11.007 14.1425 -8.94346
544 1 14.157 11.007 14.1577 -8.93714
545 1 17.2987 11.007 14.1529 -8.94797
546 1 20.4414 11.007 14.1519 -8.95
547 1 22.0134 12.5796 12.5795 -8.94883
548 1 1.5714 14.1522 14.1516 -8.94944
549 1 3.1443 12.5794 12.5797 -8.94104
550 1 4.71418 14.1521 14.1497 -8.95335
551 1 6.30425 12.5688 12.5793 -8.89897
552 1 7.84687 14.1601 14.1749 -8.91587
553 1 9.50773 12.8168 12.5821 -8.10236
554 1 11.0422 14.1851 14.1857 -8.85842
555 1 12.6219 12.6142 12.6102 -8.88588
556 1 14.1666 14.1618 14.1615 -8.93986
557 1 15.7331 12.5806 12.5814 -8.95785
558 1 17.2995 14.1527 14.1527 -8.95175
559 1 18.8704 12.5795 12.5795 -8.95132
560 1 20.4417 14.152 14.1519 -8.95007
561 1 -0.000492017 15.7245 12.5795 -8.94981
562 1 1.57184 17.2971 14.152 -8.94934
563 1 3.14217 15.7261 12.5802 -8.94828
564 1 4.71528 17.2988 14.153 -8.94545
565 1 6.28241 15.7315 12.5877 -8.92871
566 1 7.86196 17.2991 14.1525 -8.9506
567 1 9.43836 15.7275 12.5816 -9.00112
568 1 11.0084 17.3034 14.1536 -8.95627
569 1 12.5888 15.7371 12.5828 -8.94755
570 1 14.154 17.2998 14.1532 -8.94866
571 1 15.7267 15.7256 12.5791 -8.95037
572 1 17.2971 17.297 14.1519 -8.94982
573 1 18.8695 15.7245 12.5794 -8.94974
574 1 20.4415 17.2967 14.1518 -8.94966
575 1 22.0138 18.8692 12.5794 -8.94962
576 1 1.57233 20.4416 14.1518 -8.94965
577 1 3.14441 18.8696 12.5795 -8.94959
578 1 4.71696 20.4419 14.152 -8.94966
579 1 6.28883 18.8709 12.58 -8.95008
580 1 7.862 20.4421 14.152 -8.94956
581 1 9.43457 18.8713 12.5798 -8.94792
582 1 11.0071 20.4425 14.1521 -8.95087
583 1 12.5804 18.8718 12.5795 -8.95105
584 1 14.1521 20.442 14.152 -8.94983
585 1 15.7246 18.8695 12.5793 -8.94966
586 1 17.2967 20.4415 14.1518 -8.94967
587 1 18.8691 18.8691 12.5794 -8.94957
588 1 20.4415 20.4415 14.1518 -8.94963
589 1 1.57071 11.007 17.2975 -8.9491
590 1 4.71112 11.007 17.3028 -8.94387
591 1 7.85859 11.007 17.2976 -8.99956
592 1 11.0054 11.007 17.2967 -8.94531
593 1 14.1535 11.007 17.2992 -8.94688
594 1 17.2971 11.007 17.2971 -8.94953
595 1 20.4413 11.007 17.2968 -8.94975
596 1 22.0128 12.5795 15.7244 -8.95105
597 1 1.57062 14.1526 17.2975 -8.9504
598 1 3.13785 12.5811 15.7264 -8.95662
599 1 4.70886 14.16 17.3049 -8.93187
600 1 6.25431 12.6091 15.7563 -8.85697
601 1 7.86234 14.1545 17.3027 -8.95246
602 1 9.44602 12.5963 15.7308 -8.91163
603 1 11.0102 14.1555 17.3047 -8.95376
604 1 12.5831 12.5778 15.7305 -8.95961
605 1 14.1532 14.1522 17.2988 -8.9521
606 1 15.7262 12.5794 15.7259 -8.94852
607 1 17.2971 14.1519 17.297 -8.94961
608 1 18.8694 12.5794 15.7245 -8.94964
609 1 20.4413 14.1519 17.2968 -8.94988
610 1 22.0137 15.7244 15.7242 -8.94966
611 1 1.57223 17.2968 17.2967 -8.95011
612 1 3.14392 15.7248 15.7241 -8.95133
613 1 4.71596 17.2988 17.298 -8.94983
614 1 6.28518 15.7321 15.7295 -8.95434
615 1 7.8619 17.2981 17.2978 -8.94807
616 1 9.43396 15.73 15.7279 -8.95011
617 1 11.0071 17.298 17.2977 -8.94947
618 1 12.5878 15.7331 15.7335 -8.93186
619 1 14.1535 17.2985 17.2986 -8.94599
620 1 15.7277 15.7267 15.7267 -8.94661
621 1 17.2973 17.2971 17.2971 -8.94889
622 1 18.8697 15.7245 15.7245 -8.94988
623 1 20.4416 17.2967 17.2967 -8.94965
624 1 -8.99053e-05 18.8691 15.7243 -8.94956
625 1 1.57236 20.4415 17.2967 -8.94953
626 1 3.14446 18.8695 15.7244 -8.9489
627 1 4.71714 20.4418 17.2968 -8.95008
628 1 6.28943 18.8703 15.7245 -8.9516
629 1 7.86203 20.4418 17.2969 -8.94956
630 1 9.43425 18.8705 15.7249 -8.94979
631 1 11.0069 20.4417 17.2968 -8.94957
632 1 12.58 18.8709 15.7251 -8.95065
633 1 14.152 20.4418 17.2969 -8.94972
634 1 15.7247 18.8697 15.7245 -8.94948
635 1 17.2967 20.4416 17.2967 -8.94962
636 1 18.8691 18.8691 15.7242 -8.94969
637 1 20.4415 20.4415 17.2966 -8.94963
638 1 1.57216 11.007 20.4417 -8.94964
639 1 4.7164 11.007 20.4431 -8.94931
640 1 7.86224 11.007 20.4428 -8.94823
641 1 11.0071 11.007 20.4417 -8.94873
642 1 14.1522 11.007 20.4418 -8.94989
643 1 17.2968 11.007 20.4415 -8.94963
644 1 20.4414 11.007 20.4415 -8.94963
645 1 -0.000318165 12.5794 18.8693 -8.94947
646 1 1.57218 14.1519 20.4417 -8.94961
647 1 3.14358 12.5798 18.8704 -8.94856
648 1 4.71656 14.1525 20.4431 -8.95079
649 1 6.28815 12.5804 18.875 -8.95736
650 1 7.8623 14.1523 20.4427 -8.95021
651 1 9.43461 12.5795 18.871 -8.95034
652 1 11.0071 14.1521 20.4426 -8.95154
653 1 12.5797 12.579 18.8703 -8.95074
654 1 14.152 14.1519 20.4416 -8.95017
655 1 15.7247 12.5794 18.8696 -8.94919
656 1 17.2967 14.1518 20.4415 -8.94953
657 1 18.8691 12.5794 18.8692 -8.94962
658 1 20.4414 14.1518 20.4415 -8.94961
659 1 22.0135 15.7244 18.8693 -8.94962
660 1 1.57213 17.2969 20.4417 -8.94892
661 1 3.14313 15.7259 18.8707 -8.94583
662 1 4.71717 17.2969 20.4417 -8.94989
663 1 6.28946 15.7252 18.8704 -8.94996
664 1 7.86207 17.2969 20.4418 -8.94951
665 1 9.43464 15.7253 18.8706 -8.94829
666 1 11.007 17.2969 20.4418 -8.9494
667 1 12.5804 15.7253 18.8712 -8.94985
668 1 14.152 17.2969 20.4419 -8.94951
669 1 15.7246 15.7244 18.8695 -8.95011
670 1 17.2967 17.2967 20.4415 -8.94966
671 1 18.8691 15.7243 18.8691 -8.94972
672 1 20.4414 17.2967 20.4415 -8.94962
673 1 22.0139 18.8691 18.8691 -8.94973
674 1 1.57236 20.4415 20.4415 -8.94956
675 1 3.14455 18.8695 18.8694 -8.94947
391 1 18.8691 18.8691 22.0139 -8.94952
353 1 3.14458 12.5794 22.0141 -8.94945
359 1 12.5795 12.5794 22.0132 -8.95089
369 1 6.28957 15.7245 22.0138 -8.94992
375 1 15.7244 15.7244 22.0136 -8.94976
363 1 18.8691 12.5794 22.0139 -8.94965
365 1 -3.83105e-05 15.7242 22.0139 -8.94967
381 1 3.14479 18.8691 22.0139 -8.94965
387 1 12.5794 18.8691 22.0139 -8.9496
