ITEM: TIMESTEP
64
ITEM: NUMBER OF ATOMS
688
ITEM: BOX BOUNDS pp pp pp
0.0000000000000000e+00 2.2013900999999997e+01
0.0000000000000000e+00 2.2013900999999997e+01
0.0000000000000000e+00 2.2013900999999997e+01
ITEM: ATOMS id type x y z c_pot
1 1 22.0139 -9.11393e-16 9.7884e-06 -8.94955
2 1 1.57235 1.57237 1.57236 -8.94951
193 1 11.0573 7.82492 10.9932 -8.81339
4 1 4.71724 1.57236 1.57237 -8.9497
175 1 18.8696 9.43425 9.43441 -8.94868
6 1 7.86209 1.57234 1.57235 -8.94962
7 1 9.43453 -7.94853e-16 7.59085e-16 -8.94964
8 1 11.007 1.57234 1.57235 -8.94963
9 1 12.5794 -4.83779e-16 -2.3424e-06 -8.94963
10 1 14.1518 1.57235 1.57236 -8.9496
174 1 15.7246 9.4347 9.43413 -8.94068
12 1 17.2967 1.57232 1.57235 -8.94954
191 1 4.70717 7.85959 11.0113 -8.95951
14 1 20.4415 1.5724 1.57241 -8.9496
15 1 22.0138 3.14477 2.66336e-05 -8.94948
16 1 1.57228 4.71714 1.57237 -8.94967
190 1 1.5702 7.86154 11.0075 -8.95111
18 1 4.71694 4.71688 1.57191 -8.94949
173 1 12.5636 9.44586 9.43479 -8.89991
20 1 7.86205 4.7169 1.57206 -8.94935
21 1 9.43453 3.14469 3.58477e-16 -8.94962
22 1 11.007 4.71686 1.57206 -8.94947
188 1 17.2974 4.71669 11.0069 -8.94909
24 1 14.1519 4.71693 1.57214 -8.9499
172 1 9.36343 9.1961 9.43182 -8.10444
26 1 17.297 4.7169 1.57207 -8.94881
171 1 6.24644 9.39858 9.40287 -8.88507
28 1 20.4415 4.7172 1.57236 -8.94962
186 1 11.0084 4.70991 11.0059 -8.9591
30 1 1.57227 7.86206 1.57235 -8.9495
31 1 3.14454 6.28942 0.000342061 -8.9498
32 1 4.71699 7.86204 1.57223 -8.95025
170 1 3.13532 9.43316 9.43232 -8.95806
34 1 7.86192 7.86176 1.57115 -8.95178
35 1 9.43453 6.28921 1.53372e-15 -8.94948
36 1 11.0067 7.86151 1.57103 -8.95034
37 1 12.5795 6.28935 5.2822e-05 -8.94999
38 1 14.1526 7.86131 1.57056 -8.95092
169 1 22.0123 9.43443 9.4344 -8.9514
40 1 17.297 7.86197 1.57211 -8.94956
168 1 18.8697 6.28926 9.43442 -8.94985
42 1 20.4415 7.86208 1.57236 -8.9496
167 1 15.7273 6.28758 9.43358 -8.94821
166 1 12.5873 6.28187 9.42546 -8.92766
45 1 6.28949 9.43448 0.000800572 -8.95096
46 1 9.43453 9.43446 8.52265e-16 -8.94961
165 1 9.4305 6.28688 9.43207 -9.00152
48 1 15.7246 9.43443 -0.000293655 -8.94942
184 1 4.71542 4.7152 11.008 -8.9479
50 1 22.0139 -7.60609e-16 3.14482 -8.94962
51 1 1.57229 1.57229 4.71717 -8.9496
52 1 3.14474 -1.37678e-16 3.14473 -8.94958
53 1 4.71699 1.57199 4.71694 -8.94975
54 1 6.28967 1.07987e-16 3.14475 -8.94962
55 1 7.86211 1.57207 4.71699 -8.94956
56 1 9.43453 -4.40322e-16 3.14473 -8.94962
57 1 11.0071 1.57204 4.71696 -8.94955
58 1 12.5794 -5.1163e-16 3.14473 -8.94956
59 1 14.152 1.57204 4.71708 -8.95017
60 1 15.7243 -1.08751e-16 3.14476 -8.94978
61 1 17.2967 1.57234 4.71722 -8.9495
62 1 18.8691 1.8284e-16 3.14484 -8.94961
63 1 20.4415 1.57239 4.71725 -8.94963
64 1 22.0138 3.14473 3.14475 -8.94944
65 1 1.57159 4.71663 4.71665 -8.94878
66 1 3.14446 3.14444 3.14442 -8.94886
67 1 4.71519 4.71505 4.71495 -8.94568
68 1 6.2896 3.14449 3.14452 -8.94976
69 1 7.86191 4.71561 4.7159 -8.94937
70 1 9.43452 3.1444 3.14447 -8.94952
71 1 11.0072 4.71553 4.71585 -8.94791
72 1 12.5794 3.14442 3.14453 -8.94931
73 1 14.1534 4.71465 4.71558 -8.94984
74 1 15.7246 3.14426 3.14445 -8.94944
75 1 17.2969 4.71703 4.7172 -8.95018
76 1 18.8691 3.14478 3.14481 -8.94975
77 1 20.4414 4.71715 4.71718 -8.94966
78 1 22.0139 6.28963 3.14473 -8.94972
79 1 1.57187 7.86201 4.71679 -8.94958
80 1 3.14434 6.2894 3.14424 -8.9502
81 1 4.71559 7.8616 4.71475 -8.95236
82 1 6.28844 6.28833 3.14228 -8.94987
83 1 7.85854 7.8579 4.70849 -8.95385
84 1 9.43439 6.28837 3.14306 -8.94816
85 1 11.0068 7.85916 4.71059 -8.95265
86 1 12.5797 6.28853 3.14317 -8.94996
87 1 14.161 7.85325 4.70821 -8.93138
88 1 15.7262 6.28767 3.14285 -8.94554
89 1 17.2988 7.86113 4.71628 -8.95047
90 1 18.8695 6.28941 3.14456 -8.94962
91 1 20.4417 7.86199 4.71708 -8.94991
92 1 -7.82043e-05 9.4345 3.14469 -8.94961
93 1 3.14428 9.43444 3.14419 -8.94911
94 1 6.28933 9.43502 3.14342 -8.95077
95 1 9.43455 9.43446 3.14283 -8.95051
96 1 12.5811 9.4335 3.13852 -8.95773
97 1 15.7258 9.434 3.14325 -8.94837
98 1 18.8695 9.43445 3.14456 -8.94944
99 1 22.0139 1.15999e-15 6.28968 -8.94966
100 1 1.57231 1.57233 7.86211 -8.94967
101 1 3.14467 8.52292e-16 6.28958 -8.94966
102 1 4.71684 1.57173 7.86189 -8.9499
103 1 6.28951 9.39247e-16 6.28943 -8.95017
104 1 7.86198 1.57119 7.8618 -8.95095
105 1 9.43462 3.27688e-16 6.28943 -8.9499
106 1 11.0071 1.57175 7.8619 -8.94952
107 1 12.5795 8.14122e-16 6.28955 -8.95005
108 1 14.1522 1.57189 7.86188 -8.94967
109 1 15.7244 9.63331e-16 6.28959 -8.94954
110 1 17.2968 1.5723 7.86207 -8.94964
111 1 18.8691 9.61105e-16 6.28967 -8.94964
112 1 20.4415 1.57239 7.8621 -8.94963
113 1 -0.000106837 3.14473 6.28965 -8.94969
114 1 1.57174 4.71676 7.86201 -8.94984
115 1 3.14422 3.14402 6.28925 -8.94942
116 1 4.71454 4.71345 7.86038 -8.94846
117 1 6.2889 3.14267 6.28867 -8.95075
118 1 7.86048 4.70997 7.86018 -8.95655
119 1 9.43484 3.14314 6.28889 -8.94985
120 1 11.007 4.71459 7.86131 -8.95073
121 1 12.5797 3.14333 6.28929 -8.95179
122 1 14.1541 4.71478 7.86062 -8.94506
123 1 15.7247 3.1443 6.28942 -8.94877
124 1 17.2974 4.7167 7.86183 -8.94928
125 1 18.8692 3.14472 6.28962 -8.94953
126 1 20.4415 4.7171 7.86206 -8.94967
127 1 22.0131 6.2893 6.28932 -8.94993
128 1 1.56913 7.86103 7.86105 -8.95194
129 1 3.1408 6.28675 6.28677 -8.9464
130 1 4.70124 7.85123 7.85161 -8.93982
131 1 6.28044 6.27988 6.2795 -8.93123
132 1 7.82547 7.82754 7.82705 -8.85897
133 1 9.43501 6.28325 6.28552 -8.95001
134 1 11.0232 7.85329 7.83745 -8.915
135 1 12.5845 6.28102 6.28371 -8.95443
136 1 14.1551 7.86188 7.86427 -8.95367
137 1 15.7253 6.28901 6.28977 -8.95151
138 1 17.2978 7.86169 7.86238 -8.94947
139 1 18.8693 6.2895 6.28965 -8.94968
140 1 20.4412 7.86188 7.86199 -8.95012
141 1 22.0134 9.43446 6.2893 -8.94963
142 1 3.14247 9.43448 6.28775 -8.94839
143 1 6.28575 9.43621 6.28309 -8.96017
144 1 9.42235 9.41656 6.28304 -8.91064
145 1 12.6159 9.40425 6.25656 -8.85586
146 1 15.7318 9.43268 6.28721 -8.9569
147 1 18.8703 9.43436 6.28946 -8.95117
148 1 -3.73986e-05 1.41633e-15 9.43452 -8.94963
149 1 3.14467 1.71024e-15 9.43454 -8.94956
150 1 6.28937 1.4881e-15 9.43447 -8.95043
151 1 9.43457 1.28478e-15 9.43437 -8.94964
152 1 12.5796 1.40197e-15 9.43437 -8.9501
153 1 15.7244 1.64294e-15 9.43449 -8.9496
154 1 18.8691 1.73186e-15 9.43452 -8.94964
155 1 -0.000117846 3.14471 9.43452 -8.94955
156 1 3.14437 3.1443 9.43462 -8.94963
157 1 6.2885 3.14171 9.43437 -8.95128
158 1 9.43446 3.14252 9.43403 -8.94758
159 1 12.5803 3.14273 9.43375 -8.95016
160 1 15.7248 3.14418 9.43439 -8.94955
161 1 18.8692 3.1447 9.43451 -8.9496
162 1 22.0133 6.28936 9.43456 -8.94978
163 1 3.14189 6.28799 9.43479 -8.95047
164 1 6.27917 6.27562 9.43069 -8.94701
177 1 4.71685 1.5719 11.0071 -8.94934
178 1 7.86195 1.57112 11.007 -8.95103
181 1 17.2968 1.5723 11.007 -8.94962
11 1 15.7242 3.2419e-16 1.081e-06 -8.94967
19 1 6.28966 3.14472 4.15374e-06 -8.94958
25 1 15.7243 3.14472 3.32464e-05 -8.94965
43 1 22.0138 9.43452 3.61604e-05 -8.94964
41 1 18.8691 6.28966 -3.4713e-05 -8.94966
176 1 1.57228 1.5723 11.0069 -8.94962
343 1 18.8691 9.4345 18.8692 -8.94961
342 1 15.7248 9.43444 18.8697 -8.94911
179 1 11.0071 1.57112 11.0069 -8.95103
180 1 14.1522 1.5719 11.0068 -8.94934
341 1 12.5797 9.43502 18.8705 -8.95077
182 1 20.4415 1.57238 11.007 -8.94964
183 1 1.5717 4.71669 11.007 -8.94909
340 1 9.43451 9.43446 18.8711 -8.95051
185 1 7.86067 4.70991 11.008 -8.9591
339 1 6.28798 9.4335 18.8754 -8.95773
187 1 14.1536 4.7152 11.0059 -8.9479
338 1 3.1433 9.434 18.8706 -8.94837
189 1 20.4415 4.71707 11.007 -8.94958
337 1 -0.000422257 9.43445 18.8693 -8.94944
336 1 20.4414 7.86208 20.4415 -8.9496
192 1 7.81179 7.82492 11.0207 -8.81339
335 1 18.8691 6.28963 18.8692 -8.94972
194 1 14.1619 7.85959 11.0026 -8.95951
195 1 17.2989 7.86154 11.0064 -8.95111
196 1 20.4415 7.86186 11.007 -8.95003
197 1 -3.51706e-05 1.79257e-15 12.5794 -8.94964
198 1 1.57229 1.5723 14.1518 -8.94964
199 1 3.14466 1.2756e-15 12.5794 -8.9496
200 1 4.71688 1.57189 14.152 -8.94967
201 1 6.28943 1.55661e-15 12.5795 -8.9501
202 1 7.86199 1.57175 14.152 -8.94952
203 1 9.43449 1.09043e-15 12.5795 -8.94964
204 1 11.0071 1.57119 14.1521 -8.95095
205 1 12.5797 1.58853e-15 12.5794 -8.95043
206 1 14.1522 1.57173 14.152 -8.9499
207 1 15.7244 2.23564e-15 12.5794 -8.94956
208 1 17.2967 1.57233 14.1518 -8.94967
209 1 18.8691 1.99671e-15 12.5794 -8.94963
210 1 20.4415 1.57239 14.1518 -8.94963
211 1 22.0138 3.1447 12.5794 -8.9496
212 1 1.57168 4.7167 14.1521 -8.94928
213 1 3.14428 3.14418 12.5795 -8.94955
214 1 4.71495 4.71478 14.1533 -8.94506
215 1 6.28871 3.14273 12.5801 -8.95016
216 1 7.86201 4.71459 14.1526 -8.95073
217 1 9.4346 3.14252 12.5799 -8.94758
218 1 11.0086 4.70997 14.1537 -8.95655
219 1 12.5806 3.14171 12.5795 -8.95128
220 1 14.1545 4.71345 14.1535 -8.94846
221 1 15.7247 3.1443 12.5793 -8.94963
222 1 17.2973 4.71676 14.1519 -8.94984
223 1 18.8692 3.14471 12.5794 -8.94955
224 1 20.4415 4.7171 14.1518 -8.94967
225 1 -0.000612937 6.28926 12.5795 -8.94985
226 1 1.57125 7.86169 14.1515 -8.94947
227 1 3.14175 6.28758 12.5803 -8.94821
228 1 4.71394 7.86188 14.1496 -8.95367
229 1 6.28179 6.28187 12.5884 -8.92766
230 1 7.84588 7.85329 14.1765 -8.915
231 1 9.43856 6.28688 12.5818 -9.00152
232 1 11.0436 7.82754 14.1868 -8.85897
233 1 12.5899 6.27562 12.5832 -8.94701
234 1 14.1678 7.85123 14.1623 -8.93982
235 1 15.7272 6.28799 12.5791 -8.95047
236 1 17.2999 7.86103 14.1528 -8.95194
237 1 18.8696 6.28936 12.5793 -8.94978
238 1 20.4417 7.86188 14.1519 -8.95012
239 1 22.0134 9.43425 12.5795 -8.94868
240 1 3.14449 9.4347 12.5798 -8.94068
241 1 6.30543 9.44586 12.5791 -8.89991
242 1 9.50562 9.1961 12.5821 -8.10444
243 1 12.6226 9.39858 12.611 -8.88507
244 1 15.7337 9.43316 12.5816 -8.95806
245 1 18.8706 9.43443 12.5795 -8.9514
246 1 -3.21183e-05 8.64022e-16 15.7242 -8.94964
247 1 1.57233 1.57234 17.2967 -8.9495
248 1 3.14469 9.79712e-16 15.7243 -8.94954
249 1 4.7171 1.57204 17.2968 -8.95017
250 1 6.28959 1.39605e-15 15.7244 -8.95005
251 1 7.86201 1.57204 17.2969 -8.94955
252 1 9.43444 -3.9781e-17 15.7245 -8.9499
253 1 11.0069 1.57207 17.2969 -8.94956
254 1 12.5795 1.28926e-15 15.7245 -8.95017
255 1 14.1521 1.57199 17.297 -8.94975
256 1 15.7244 1.06566e-15 15.7243 -8.94966
257 1 17.2968 1.57229 17.2967 -8.9496
258 1 18.8691 1.36606e-15 15.7242 -8.94966
259 1 20.4415 1.57239 17.2967 -8.94963
260 1 -0.000125959 3.14472 15.7243 -8.94953
261 1 1.57215 4.71703 17.2967 -8.95018
262 1 3.14435 3.1443 15.7245 -8.94877
263 1 4.71568 4.71465 17.2983 -8.94984
264 1 6.28939 3.14333 15.7246 -8.95179
265 1 7.86184 4.71553 17.2981 -8.94791
266 1 9.43422 3.14314 15.725 -8.94985
267 1 11.0071 4.71561 17.298 -8.94937
268 1 12.5802 3.14267 15.7252 -8.95075
269 1 14.1539 4.71505 17.2989 -8.94568
270 1 15.7248 3.14402 15.7247 -8.94942
271 1 17.2975 4.71663 17.2973 -8.94878
272 1 18.8692 3.14473 15.7243 -8.94969
273 1 20.4416 4.71715 17.2967 -8.94966
274 1 22.0137 6.2895 15.7242 -8.94968
275 1 1.5703 7.86113 17.2976 -8.95047
276 1 3.14371 6.28901 15.7241 -8.95151
277 1 4.70808 7.85325 17.3057 -8.93138
278 1 6.28458 6.28102 15.7302 -8.95443
279 1 7.86222 7.85916 17.3033 -8.95265
280 1 9.43405 6.28325 15.7284 -8.95001
281 1 11.0105 7.8579 17.3054 -8.95385
282 1 12.5886 6.27988 15.7344 -8.93123
283 1 14.1535 7.8616 17.2991 -8.95236
284 1 15.7283 6.28675 15.7271 -8.9464
285 1 17.2972 7.86201 17.2971 -8.94958
286 1 18.8698 6.2893 15.7246 -8.94993
287 1 20.4412 7.86199 17.2968 -8.94991
288 1 22.0126 9.43436 15.7244 -8.95117
289 1 3.13721 9.43268 15.7267 -8.9569
290 1 6.25313 9.40425 15.7573 -8.85586
291 1 9.44671 9.41656 15.7309 -8.91064
292 1 12.5833 9.43621 15.7308 -8.96017
293 1 15.7266 9.43448 15.7262 -8.94839
294 1 18.8695 9.43446 15.7246 -8.94963
295 1 22.0139 6.99058e-16 18.8691 -8.94961
296 1 1.57234 1.57232 20.4415 -8.94954
297 1 3.14476 -1.60705e-16 18.8691 -8.94978
298 1 4.71725 1.57235 20.4415 -8.9496
299 1 6.28965 -1.26202e-15 18.8692 -8.94956
300 1 7.8621 1.57234 20.4416 -8.94963
301 1 9.43453 -6.49508e-16 18.8692 -8.94962
302 1 11.007 1.57234 20.4415 -8.94962
303 1 12.5794 5.9672e-16 18.8692 -8.94962
304 1 14.1518 1.57236 20.4415 -8.9497
305 1 15.7243 1.80545e-16 18.8692 -8.94958
306 1 17.2967 1.57237 20.4415 -8.94951
307 1 18.8691 6.15776e-16 18.8691 -8.94962
308 1 20.4415 1.5724 20.4415 -8.9496
309 1 22.0139 3.14478 18.8691 -8.94975
310 1 1.57205 4.7169 20.4418 -8.94881
311 1 3.14446 3.14426 18.8694 -8.94944
312 1 4.71712 4.71693 20.4418 -8.9499
313 1 6.28962 3.14442 18.8694 -8.94931
314 1 7.86206 4.71686 20.4418 -8.94947
315 1 9.43454 3.1444 18.8694 -8.94952
316 1 11.007 4.7169 20.4418 -8.94935
317 1 12.5795 3.14449 18.8694 -8.94976
318 1 14.1521 4.71688 20.442 -8.94949
319 1 15.7246 3.14444 18.8695 -8.94886
320 1 17.2968 4.71714 20.4415 -8.94967
321 1 18.8692 3.14473 18.8692 -8.94944
322 1 20.4414 4.7172 20.4415 -8.94962
323 1 22.0134 6.28941 18.8693 -8.94962
324 1 1.57209 7.86197 20.4418 -8.94956
325 1 3.14281 6.28767 18.8711 -8.94554
326 1 4.71643 7.86131 20.4433 -8.95092
327 1 6.28936 6.28853 18.8707 -8.94996
328 1 7.86231 7.86151 20.4429 -8.95034
329 1 9.43467 6.28837 18.8708 -8.94816
330 1 11.0071 7.86176 20.4427 -8.95178
331 1 12.5806 6.28833 18.8716 -8.94987
332 1 14.1521 7.86204 20.4417 -8.95025
333 1 15.7247 6.2894 18.8697 -8.9502
334 1 17.2968 7.86206 20.4415 -8.9495
5 1 6.28968 2.11024e-16 22.0139 -8.94963
47 1 12.5796 9.43448 22.0131 -8.95096
44 1 3.14449 9.43443 22.0142 -8.94942
39 1 15.7245 6.28942 22.0136 -8.9498
27 1 18.8691 3.14477 22.0139 -8.94948
33 1 6.28954 6.28935 22.0138 -8.94999
3 1 3.14484 -1.9535e-16 22.0139 -8.94967
13 1 18.8691 -7.12775e-16 22.0139 -8.94955
17 1 3.14476 3.14472 22.0139 -8.94965
23 1 12.5794 3.14472 22.0139 -8.94958
29 1 -6.10858e-05 6.28966 22.0139 -8.94966
49 1 18.8691 9.43452 22.0139 -8.94964
344 1 1.57225 11.007 1.57234 -8.94961
345 1 4.71678 11.007 1.57208 -8.94995
346 1 7.86199 11.007 1.57216 -8.94847
347 1 11.0068 11.007 1.57113 -8.9478
348 1 14.1528 11.007 1.57052 -8.94933
349 1 17.297 11.007 1.5721 -8.94962
350 1 20.4415 11.007 1.57236 -8.94962
688 3 10.2172 11.007 9.43733 2.31244
352 1 1.57227 14.1518 1.57235 -8.9495
511 1 18.8692 18.8692 9.43451 -8.9496
354 1 4.71699 14.1519 1.57223 -8.95025
355 1 6.28949 12.5794 0.000800572 -8.95096
356 1 7.86192 14.1521 1.57115 -8.95178
357 1 9.43453 12.5794 8.23218e-16 -8.94961
358 1 11.0067 14.1524 1.57103 -8.95034
510 1 15.7248 18.8697 9.43439 -8.94955
360 1 14.1526 14.1526 1.57056 -8.95092
361 1 15.7246 12.5795 -0.000293655 -8.94942
362 1 17.297 14.1519 1.57211 -8.94956
538 1 17.2968 20.4416 11.007 -8.94962
364 1 20.4415 14.1518 1.57236 -8.9496
535 1 7.86195 20.4428 11.007 -8.95103
366 1 1.57228 17.2968 1.57237 -8.94967
367 1 3.14454 15.7245 0.000342061 -8.9498
368 1 4.71694 17.297 1.57191 -8.94949
509 1 12.5803 18.8712 9.43375 -8.95016
370 1 7.86205 17.297 1.57206 -8.94935
371 1 9.43453 15.7247 1.41006e-15 -8.94948
372 1 11.007 17.297 1.57206 -8.94947
373 1 12.5795 15.7246 5.2822e-05 -8.94999
374 1 14.1519 17.297 1.57214 -8.9499
508 1 9.43446 18.8714 9.43403 -8.94758
376 1 17.297 17.297 1.57207 -8.94881
507 1 6.2885 18.8722 9.43437 -8.95128
378 1 20.4415 17.2967 1.57236 -8.94962
379 1 22.0138 18.8691 2.66336e-05 -8.94948
380 1 1.57235 20.4415 1.57236 -8.94951
534 1 4.71685 20.442 11.0071 -8.94934
382 1 4.71724 20.4415 1.57237 -8.9497
506 1 3.14437 18.8696 9.43462 -8.94963
384 1 7.86209 20.4416 1.57235 -8.94962
385 1 9.43453 18.8692 -6.34198e-16 -8.94962
386 1 11.007 20.4416 1.57235 -8.94963
531 1 17.2974 17.2972 11.0069 -8.94909
388 1 14.1518 20.4415 1.57236 -8.9496
505 1 -0.000117846 18.8692 9.43452 -8.94955
390 1 17.2967 20.4416 1.57235 -8.94954
504 1 18.8697 15.7246 9.43442 -8.94985
392 1 20.4415 20.4415 1.57241 -8.9496
393 1 1.57176 11.007 4.71663 -8.9495
394 1 4.71532 11.007 4.71427 -8.94671
395 1 7.86384 11.007 4.71752 -8.94446
396 1 11.0108 11.007 4.7172 -9.00044
397 1 14.1587 11.007 4.71038 -8.94347
398 1 17.2987 11.007 4.71621 -8.94907
399 1 20.4417 11.007 4.71703 -8.94977
400 1 -7.82043e-05 12.5794 3.14469 -8.94961
401 1 1.57187 14.1519 4.71679 -8.94958
402 1 3.14428 12.5795 3.14419 -8.94911
403 1 4.71559 14.1523 4.71475 -8.95236
404 1 6.28933 12.5789 3.14342 -8.95077
405 1 7.85854 14.156 4.70849 -8.95385
406 1 9.43455 12.5794 3.14283 -8.95051
407 1 11.0068 14.1547 4.71059 -8.95265
408 1 12.5811 12.5804 3.13852 -8.95773
409 1 14.161 14.1606 4.70821 -8.93138
410 1 15.7258 12.5799 3.14325 -8.94837
411 1 17.2988 14.1528 4.71628 -8.95047
412 1 18.8695 12.5794 3.14456 -8.94944
413 1 20.4417 14.1519 4.71708 -8.94991
414 1 22.0139 15.7243 3.14473 -8.94972
415 1 1.57159 17.2973 4.71665 -8.94878
416 1 3.14434 15.7245 3.14424 -8.9502
417 1 4.71519 17.2989 4.71495 -8.94568
418 1 6.28844 15.7256 3.14228 -8.94987
419 1 7.86191 17.2983 4.7159 -8.94937
420 1 9.43439 15.7255 3.14306 -8.94816
421 1 11.0072 17.2984 4.71585 -8.94791
422 1 12.5797 15.7254 3.14317 -8.94996
423 1 14.1534 17.2993 4.71558 -8.94984
424 1 15.7262 15.7262 3.14285 -8.94554
425 1 17.2969 17.2969 4.7172 -8.95018
426 1 18.8695 15.7245 3.14456 -8.94962
427 1 20.4414 17.2968 4.71718 -8.94966
428 1 22.0138 18.8692 3.14475 -8.94944
429 1 1.57229 20.4416 4.71717 -8.9496
430 1 3.14446 18.8695 3.14442 -8.94886
431 1 4.71699 20.4419 4.71694 -8.94975
432 1 6.2896 18.8694 3.14452 -8.94976
433 1 7.86211 20.4418 4.71699 -8.94956
434 1 9.43452 18.8695 3.14447 -8.94952
435 1 11.0071 20.4419 4.71696 -8.94955
436 1 12.5794 18.8695 3.14453 -8.94931
437 1 14.152 20.4419 4.71708 -8.95017
438 1 15.7246 18.8696 3.14445 -8.94944
439 1 17.2967 20.4416 4.71722 -8.9495
440 1 18.8691 18.8691 3.14481 -8.94975
441 1 20.4415 20.4415 4.71725 -8.94963
442 1 1.57005 11.007 7.86086 -8.94777
443 1 4.7117 11.007 7.85582 -8.9365
444 1 7.87544 11.007 7.87319 -8.94312
445 1 11.0876 11.007 7.6393 -8.10804
446 1 14.1622 11.007 7.85587 -8.97162
447 1 17.2992 11.007 7.86226 -8.95144
448 1 20.4415 11.007 7.86198 -8.94998
449 1 22.0134 12.5794 6.2893 -8.94963
450 1 1.56913 14.1529 7.86105 -8.95194
451 1 3.14247 12.5794 6.28775 -8.94839
452 1 4.70124 14.1627 7.85161 -8.93982
453 1 6.28575 12.5777 6.28309 -8.96017
454 1 7.82547 14.1864 7.82705 -8.85897
455 1 9.42235 12.5973 6.28304 -8.91064
456 1 11.0232 14.1606 7.83745 -8.915
457 1 12.6159 12.6096 6.25656 -8.85586
458 1 14.1551 14.152 7.86427 -8.95367
459 1 15.7318 12.5812 6.28721 -8.9569
460 1 17.2978 14.1522 7.86238 -8.94947
461 1 18.8703 12.5795 6.28946 -8.95117
462 1 20.4412 14.152 7.86199 -8.95012
463 1 22.0131 15.7246 6.28932 -8.94993
464 1 1.57174 17.2971 7.86201 -8.94984
465 1 3.1408 15.7272 6.28677 -8.9464
466 1 4.71454 17.3004 7.86038 -8.94846
467 1 6.28044 15.734 6.2795 -8.93123
468 1 7.86048 17.3039 7.86018 -8.95655
469 1 9.43501 15.7306 6.28552 -8.95001
470 1 11.007 17.2993 7.86131 -8.95073
471 1 12.5845 15.7329 6.28371 -8.95443
472 1 14.1541 17.2991 7.86062 -8.94506
473 1 15.7253 15.7249 6.28977 -8.95151
474 1 17.2974 17.2972 7.86183 -8.94928
475 1 18.8693 15.7244 6.28965 -8.94968
476 1 20.4415 17.2968 7.86206 -8.94967
477 1 -0.000106837 18.8692 6.28965 -8.94969
478 1 1.57231 20.4416 7.86211 -8.94967
479 1 3.14422 18.8699 6.28925 -8.94942
480 1 4.71684 20.4422 7.86189 -8.9499
481 1 6.2889 18.8712 6.28867 -8.95075
482 1 7.86198 20.4427 7.8618 -8.95095
483 1 9.43484 18.8708 6.28889 -8.94985
484 1 11.0071 20.4422 7.8619 -8.94952
485 1 12.5797 18.8706 6.28929 -8.95179
486 1 14.1522 20.442 7.86188 -8.94967
487 1 15.7247 18.8696 6.28942 -8.94877
488 1 17.2968 20.4416 7.86207 -8.94964
489 1 18.8692 18.8692 6.28962 -8.94953
490 1 20.4415 20.4415 7.8621 -8.94963
491 1 22.0123 12.5795 9.4344 -8.9514
492 1 3.13532 12.5807 9.43232 -8.95806
493 1 6.24644 12.6153 9.40287 -8.88507
494 1 9.36343 12.8178 9.43182 -8.10444
495 1 12.5636 12.568 9.43479 -8.89991
496 1 15.7246 12.5792 9.43413 -8.94068
497 1 18.8696 12.5797 9.43441 -8.94868
498 1 22.0133 15.7245 9.43456 -8.94978
499 1 3.14189 15.7259 9.43479 -8.95047
500 1 6.27917 15.7383 9.43069 -8.94701
501 1 9.4305 15.727 9.43207 -9.00152
502 1 12.5873 15.732 9.42546 -8.92766
503 1 15.7273 15.7263 9.43358 -8.94821
512 1 1.56978 11.007 11.0077 -8.95032
513 1 4.70896 11.007 11.0014 -8.96888
514 1 7.78984 11.007 10.7708 -8.02848
519 1 1.5702 14.1524 11.0075 -8.95111
520 1 4.70717 14.1543 11.0113 -8.95951
522 1 11.0573 14.189 10.9932 -8.81339
527 1 4.71542 17.2987 11.008 -8.9479
529 1 11.0084 17.304 11.0059 -8.9591
351 1 22.0138 12.5794 3.61604e-05 -8.94964
377 1 18.8691 15.7242 -3.4713e-05 -8.94966
389 1 15.7243 18.8692 3.32464e-05 -8.94965
383 1 6.28966 18.8692 4.15374e-06 -8.94958
687 3 8.65181 11.007 12.5766 2.31244
686 1 20.4415 20.4415 20.4415 -8.9496
685 1 18.8692 18.8692 18.8692 -8.94944
515 1 11.0792 11.007 11.2431 -8.02848
516 1 14.1601 11.007 11.0125 -8.96888
517 1 17.2993 11.007 11.0062 -8.95032
518 1 20.4415 11.007 11.007 -8.95005
684 1 17.2967 20.4415 20.4415 -8.94951
683 1 15.7246 18.8695 18.8695 -8.94886
521 1 7.81179 14.189 11.0207 -8.81339
682 1 14.1518 20.4415 20.4415 -8.9497
523 1 14.1619 14.1543 11.0026 -8.95951
524 1 17.2989 14.1524 11.0064 -8.95111
525 1 20.4415 14.152 11.007 -8.95003
526 1 1.5717 17.2972 11.007 -8.94909
681 1 12.5795 18.8694 18.8694 -8.94976
528 1 7.86067 17.304 11.008 -8.9591
680 1 11.007 20.4416 20.4415 -8.94962
530 1 14.1536 17.2987 11.0059 -8.9479
679 1 9.43454 18.8695 18.8694 -8.94952
532 1 20.4415 17.2968 11.007 -8.94958
533 1 1.57228 20.4416 11.0069 -8.94962
678 1 7.8621 20.4416 20.4416 -8.94963
677 1 6.28962 18.8695 18.8694 -8.94931
536 1 11.0071 20.4428 11.0069 -8.95103
537 1 14.1522 20.442 11.0068 -8.94934
676 1 4.71725 20.4415 20.4415 -8.9496
539 1 20.4415 20.4415 11.007 -8.94964
540 1 1.56985 11.007 14.1516 -8.95144
541 1 4.70684 11.007 14.158 -8.97162
542 1 7.78141 11.007 14.3746 -8.10804
543 1 10.9936 11.007 14.1407 -8.94312
544 1 14.1574 11.007 14.1581 -8.9365
545 1 17.299 11.007 14.153 -8.94777
546 1 20.4414 11.007 14.1519 -8.94998
547 1 22.0134 12.5797 12.5795 -8.94868
548 1 1.57125 14.1522 14.1515 -8.94947
549 1 3.14449 12.5792 12.5798 -8.94068
550 1 4.71394 14.152 14.1496 -8.95367
551 1 6.30543 12.568 12.5791 -8.89991
552 1 7.84588 14.1606 14.1765 -8.915
553 1 9.50562 12.8178 12.5821 -8.10444
554 1 11.0436 14.1864 14.1868 -8.85897
555 1 12.6226 12.6153 12.611 -8.88507
556 1 14.1678 14.1627 14.1623 -8.93982
557 1 15.7337 12.5807 12.5816 -8.95806
558 1 17.2999 14.1529 14.1528 -8.95194
559 1 18.8706 12.5795 12.5795 -8.9514
560 1 20.4417 14.152 14.1519 -8.95012
561 1 -0.000612937 15.7246 12.5795 -8.94985
562 1 1.57168 17.2972 14.1521 -8.94928
563 1 3.14175 15.7263 12.5803 -8.94821
564 1 4.71495 17.2991 14.1533 -8.94506
565 1 6.28179 15.732 12.5884 -8.92766
566 1 7.86201 17.2993 14.1526 -8.95073
567 1 9.43856 15.727 12.5818 -9.00152
568 1 11.0086 17.3039 14.1537 -8.95655
569 1 12.5899 15.7383 12.5832 -8.94701
570 1 14.1545 17.3004 14.1535 -8.94846
571 1 15.7272 15.7259 12.5791 -8.95047
572 1 17.2973 17.2971 14.1519 -8.94984
573 1 18.8696 15.7245 12.5793 -8.94978
574 1 20.4415 17.2968 14.1518 -8.94967
575 1 22.0138 18.8692 12.5794 -8.9496
576 1 1.57229 20.4416 14.1518 -8.94964
577 1 3.14428 18.8697 12.5795 -8.94955
578 1 4.71688 20.442 14.152 -8.94967
579 1 6.28871 18.8712 12.5801 -8.95016
580 1 7.86199 20.4422 14.152 -8.94952
581 1 9.4346 18.8714 12.5799 -8.94758
582 1 11.0071 20.4427 14.1521 -8.95095
583 1 12.5806 18.8722 12.5795 -8.95128
584 1 14.1522 20.4422 14.152 -8.9499
585 1 15.7247 18.8696 12.5793 -8.94963
586 1 17.2967 20.4416 14.1518 -8.94967
587 1 18.8692 18.8692 12.5794 -8.94955
588 1 20.4415 20.4415 14.1518 -8.94963
589 1 1.57037 11.007 17.2977 -8.94907
590 1 4.71039 11.007 17.3035 -8.94347
591 1 7.85827 11.007 17.2967 -9.00044
592 1 11.0052 11.007 17.2964 -8.94446
593 1 14.1537 11.007 17.2996 -8.94671
594 1 17.2973 11.007 17.2973 -8.9495
595 1 20.4412 11.007 17.2969 -8.94977
596 1 22.0126 12.5795 15.7244 -8.95117
597 1 1.5703 14.1528 17.2976 -8.95047
598 1 3.13721 12.5812 15.7267 -8.9569
599 1 4.70808 14.1606 17.3057 -8.93138
600 1 6.25313 12.6096 15.7573 -8.85586
601 1 7.86222 14.1547 17.3033 -8.95265
602 1 9.44671 12.5973 15.7309 -8.91064
603 1 11.0105 14.156 17.3054 -8.95385
604 1 12.5833 12.5777 15.7308 -8.96017
605 1 14.1535 14.1523 17.2991 -8.95236
606 1 15.7266 12.5794 15.7262 -8.94839
607 1 17.2972 14.1519 17.2971 -8.94958
608 1 18.8695 12.5794 15.7246 -8.94963
609 1 20.4412 14.1519 17.2968 -8.94991
610 1 22.0137 15.7244 15.7242 -8.94968
611 1 1.57215 17.2969 17.2967 -8.95018
612 1 3.14371 15.7249 15.7241 -8.95151
613 1 4.71568 17.2993 17.2983 -8.94984
614 1 6.28458 15.7329 15.7302 -8.95443
615 1 7.86184 17.2984 17.2981 -8.94791
616 1 9.43405 15.7306 15.7284 -8.95001
617 1 11.0071 17.2983 17.298 -8.94937
618 1 12.5886 15.734 15.7344 -8.93123
619 1 14.1539 17.2989 17.2989 -8.94568
620 1 15.7283 15.7272 15.7271 -8.9464
621 1 17.2975 17.2973 17.2973 -8.94878
622 1 18.8698 15.7246 15.7246 -8.94993
623 1 20.4416 17.2968 17.2967 -8.94966
624 1 -0.000125959 18.8692 15.7243 -8.94953
625 1 1.57233 20.4416 17.2967 -8.9495
626 1 3.14435 18.8696 15.7245 -8.94877
627 1 4.7171 20.4419 17.2968 -8.95017
628 1 6.28939 18.8706 15.7246 -8.95179
629 1 7.86201 20.4419 17.2969 -8.94955
630 1 9.43422 18.8708 15.725 -8.94985
631 1 11.0069 20.4418 17.2969 -8.94956
632 1 12.5802 18.8712 15.7252 -8.95075
633 1 14.1521 20.4419 17.297 -8.94975
634 1 15.7248 18.8699 15.7247 -8.94942
635 1 17.2968 20.4416 17.2967 -8.9496
636 1 18.8692 18.8692 15.7243 -8.94969
637 1 20.4415 20.4415 17.2967 -8.94963
638 1 1.57206 11.007 20.4418 -8.94962
639 1 4.71623 11.007 20.4434 -8.94933
640 1 7.86223 11.007 20.4428 -8.9478
641 1 11.0071 11.007 20.4417 -8.94847
642 1 14.1523 11.007 20.4418 -8.94995
643 1 17.2968 11.007 20.4416 -8.94961
644 1 20.4414 11.007 20.4415 -8.94962
645 1 -0.000422257 12.5794 18.8693 -8.94944
646 1 1.57209 14.1519 20.4418 -8.94956
647 1 3.1433 12.5799 18.8706 -8.94837
648 1 4.71643 14.1526 20.4433 -8.95092
649 1 6.28798 12.5804 18.8754 -8.95773
650 1 7.86231 14.1524 20.4429 -8.95034
651 1 9.43451 12.5794 18.8711 -8.95051
652 1 11.0071 14.1521 20.4427 -8.95178
653 1 12.5797 12.5789 18.8705 -8.95077
654 1 14.1521 14.1519 20.4417 -8.95025
655 1 15.7248 12.5795 18.8697 -8.94911
656 1 17.2968 14.1518 20.4415 -8.9495
657 1 18.8691 12.5794 18.8692 -8.94961
658 1 20.4414 14.1518 20.4415 -8.9496
659 1 22.0134 15.7245 18.8693 -8.94962
660 1 1.57205 17.297 20.4418 -8.94881
661 1 3.14281 15.7262 18.8711 -8.94554
662 1 4.71712 17.297 20.4418 -8.9499
663 1 6.28936 15.7254 18.8707 -8.94996
664 1 7.86206 17.297 20.4418 -8.94947
665 1 9.43467 15.7255 18.8708 -8.94816
666 1 11.007 17.297 20.4418 -8.94935
667 1 12.5806 15.7256 18.8716 -8.94987
668 1 14.1521 17.297 20.442 -8.94949
669 1 15.7247 15.7245 18.8697 -8.9502
670 1 17.2968 17.2968 20.4415 -8.94967
671 1 18.8691 15.7243 18.8692 -8.94972
672 1 20.4414 17.2967 20.4415 -8.94962
673 1 22.0139 18.8691 18.8691 -8.94975
674 1 1.57234 20.4416 20.4415 -8.94954
675 1 3.14446 18.8696 18.8694 -8.94944
391 1 18.8691 18.8691 22.0139 -8.94948
353 1 3.14449 12.5795 22.0142 -8.94942
359 1 12.5796 12.5794 22.0131 -8.95096
369 1 6.28954 15.7246 22.0138 -8.94999
375 1 15.7245 15.7245 22.0136 -8.9498
363 1 18.8691 12.5794 22.0139 -8.94964
365 1 -6.10858e-05 15.7242 22.0139 -8.94966
381 1 3.14476 18.8692 22.0139 -8.94965
387 1 12.5794 18.8692 22.0139 -8.94958
