ITEM: TIMESTEP
79
ITEM: NUMBER OF ATOMS
688
ITEM: BOX BOUNDS pp pp pp
0.0000000000000000e+00 2.2013900999999997e+01
0.0000000000000000e+00 2.2013900999999997e+01
0.0000000000000000e+00 2.2013900999999997e+01
ITEM: ATOMS id type x y z c_pot
1 1 22.0138 -2.27743e-16 3.13705e-05 -8.94938
2 1 1.57215 1.57221 1.57222 -8.94937
193 1 11.0621 7.82176 10.9949 -8.80789
4 1 4.71712 1.57216 1.57219 -8.94965
175 1 18.8696 9.43426 9.43432 -8.94822
6 1 7.86206 1.57214 1.57218 -8.94953
7 1 9.43453 -8.91301e-16 1.04136e-15 -8.9496
8 1 11.007 1.57213 1.57217 -8.94956
9 1 12.5794 1.18571e-16 -5.78864e-06 -8.94957
10 1 14.1519 1.57216 1.57222 -8.94953
174 1 15.7237 9.43558 9.43413 -8.9399
12 1 17.2969 1.57211 1.57221 -8.94943
191 1 4.70495 7.85905 11.0118 -8.96091
14 1 20.4414 1.5723 1.57236 -8.94949
15 1 22.0137 3.14458 5.85718e-05 -8.94932
16 1 1.57197 4.71687 1.57221 -8.94973
190 1 1.56924 7.86143 11.0078 -8.95171
18 1 4.7165 4.71634 1.57137 -8.94944
173 1 12.5601 9.44772 9.43515 -8.9003
20 1 7.86194 4.71638 1.57162 -8.94917
21 1 9.43453 3.14433 8.42181e-16 -8.94953
22 1 11.0071 4.71633 1.57166 -8.94933
188 1 17.2981 4.71608 11.0067 -8.94883
24 1 14.1523 4.71637 1.57169 -8.94999
172 1 9.36689 9.18759 9.43135 -8.11347
26 1 17.2975 4.71643 1.57168 -8.94847
171 1 6.24567 9.39593 9.40089 -8.88527
28 1 20.4416 4.71702 1.57223 -8.94958
186 1 11.0087 4.70907 11.0057 -8.96066
30 1 1.57195 7.86193 1.57222 -8.94934
31 1 3.14416 6.28911 0.000595628 -8.94996
32 1 4.71674 7.86199 1.57201 -8.95048
170 1 3.13373 9.43286 9.4315 -8.95838
34 1 7.86196 7.86164 1.57068 -8.95249
35 1 9.43453 6.28875 1.42468e-15 -8.94948
36 1 11.0068 7.86128 1.57034 -8.95082
37 1 12.5797 6.28899 6.83152e-06 -8.95034
38 1 14.1532 7.86091 1.56961 -8.95126
169 1 22.0116 9.4344 9.43434 -8.95151
40 1 17.2975 7.86168 1.57166 -8.94933
168 1 18.8702 6.28886 9.43431 -8.94999
42 1 20.4416 7.86198 1.5722 -8.94951
167 1 15.7288 6.28676 9.433 -8.94803
166 1 12.5892 6.28046 9.4235 -8.92545
45 1 6.28938 9.43453 0.00108462 -8.95107
46 1 9.43453 9.43464 1.24091e-15 -8.9493
165 1 9.43024 6.28789 9.43114 -9.00299
48 1 15.7251 9.43429 -0.000588324 -8.94935
184 1 4.71418 4.71394 11.0087 -8.9471
50 1 22.0137 -2.89763e-16 3.14471 -8.94954
51 1 1.57196 1.57202 4.71691 -8.94949
52 1 3.14451 -2.80235e-16 3.14447 -8.94956
53 1 4.71665 1.57152 4.7165 -8.94985
54 1 6.28959 -6.69136e-18 3.14448 -8.94958
55 1 7.86207 1.57161 4.71658 -8.94957
56 1 9.43456 -4.43977e-16 3.14444 -8.94957
57 1 11.0072 1.57162 4.71658 -8.94951
58 1 12.5795 -4.65907e-16 3.14449 -8.9495
59 1 14.1522 1.57163 4.71682 -8.9505
60 1 15.7245 -6.89285e-17 3.14458 -8.94994
61 1 17.297 1.57216 4.71708 -8.94937
62 1 18.8691 4.71833e-16 3.14478 -8.94953
63 1 20.4415 1.57227 4.71717 -8.94959
64 1 22.0135 3.14445 3.14453 -8.94927
65 1 1.57064 4.71589 4.71594 -8.94845
66 1 3.14391 3.14388 3.14385 -8.94848
67 1 4.71382 4.71355 4.71339 -8.94495
68 1 6.28936 3.14387 3.14397 -8.94962
69 1 7.86147 4.7142 4.71473 -8.94909
70 1 9.43454 3.14382 3.14399 -8.94938
71 1 11.0075 4.7144 4.71484 -8.94749
72 1 12.5796 3.14384 3.14409 -8.94912
73 1 14.1546 4.71309 4.71428 -8.94986
74 1 15.7251 3.14356 3.14396 -8.94937
75 1 17.2974 4.71661 4.71696 -8.95045
76 1 18.8692 3.14457 3.14468 -8.94981
77 1 20.4412 4.71688 4.71698 -8.94971
78 1 22.0137 6.28945 3.14447 -8.94974
79 1 1.57117 7.8618 4.71619 -8.9495
80 1 3.1437 6.28902 3.14356 -8.95052
81 1 4.71452 7.86119 4.71342 -8.95309
82 1 6.28759 6.28735 3.14075 -8.9499
83 1 7.85724 7.85619 4.70633 -8.95372
84 1 9.43432 6.28755 3.14195 -8.94786
85 1 11.0075 7.85812 4.70851 -8.9531
86 1 12.5803 6.28767 3.14183 -8.95007
87 1 14.1634 7.85149 4.70591 -8.93046
88 1 15.7275 6.28652 3.14166 -8.94485
89 1 17.3 7.86054 4.71561 -8.95064
90 1 18.87 6.28906 3.14421 -8.94961
91 1 20.4418 7.8618 4.71678 -8.94999
92 1 -0.000251464 9.43443 3.14437 -8.94953
93 1 3.14371 9.43434 3.14355 -8.94887
94 1 6.28934 9.43522 3.14302 -8.95081
95 1 9.43494 9.43466 3.14298 -8.95098
96 1 12.5819 9.43344 3.13733 -8.95861
97 1 15.727 9.43354 3.14204 -8.94785
98 1 18.87 9.43431 3.14415 -8.94933
99 1 22.0138 1.25157e-15 6.28963 -8.94967
100 1 1.57202 1.57209 7.86207 -8.94964
101 1 3.14429 8.93041e-16 6.28934 -8.94973
102 1 4.71634 1.57104 7.86166 -8.95017
103 1 6.28932 5.39183e-16 6.28912 -8.95036
104 1 7.86189 1.57057 7.8616 -8.95115
105 1 9.4347 2.19139e-16 6.28912 -8.95001
106 1 11.0071 1.57139 7.86176 -8.9494
107 1 12.5796 1.03412e-15 6.28938 -8.9502
108 1 14.1526 1.57144 7.86161 -8.94973
109 1 15.7247 1.09227e-15 6.28941 -8.94949
110 1 17.2971 1.57207 7.86195 -8.94955
111 1 18.8692 7.17749e-16 6.28961 -8.94959
112 1 20.4415 1.57226 7.86206 -8.94957
113 1 -0.000388069 3.14441 6.2895 -8.94969
114 1 1.57083 4.71606 7.86177 -8.94993
115 1 3.14334 3.14302 6.28862 -8.94914
116 1 4.71253 4.71112 7.85915 -8.94781
117 1 6.28836 3.14134 6.28799 -8.95098
118 1 7.85967 4.70818 7.85953 -8.95712
119 1 9.43486 3.14209 6.28832 -8.95006
120 1 11.007 4.71382 7.86073 -8.95117
121 1 12.5799 3.14245 6.28891 -8.95231
122 1 14.1553 4.71357 7.85964 -8.94408
123 1 15.7253 3.14367 6.28905 -8.94837
124 1 17.2981 4.71613 7.86153 -8.94913
125 1 18.8694 3.14445 6.28948 -8.94944
126 1 20.4415 4.71677 7.86195 -8.94971
127 1 22.0124 6.28884 6.28891 -8.95008
128 1 1.56737 7.86041 7.86044 -8.95244
129 1 3.13855 6.28513 6.28516 -8.946
130 1 4.69768 7.84881 7.84937 -8.94002
131 1 6.27782 6.27714 6.27675 -8.93027
132 1 7.82224 7.82435 7.82484 -8.85737
133 1 9.43456 6.28115 6.28375 -8.95001
134 1 11.0261 7.85129 7.83311 -8.91178
135 1 12.5866 6.27876 6.28107 -8.95433
136 1 14.1561 7.86217 7.86404 -8.95462
137 1 15.7263 6.2885 6.28943 -8.95208
138 1 17.2983 7.86169 7.86246 -8.94971
139 1 18.8695 6.28927 6.28956 -8.94983
140 1 20.441 7.86168 7.86187 -8.9503
141 1 22.0129 9.43436 6.28888 -8.94956
142 1 3.14114 9.43431 6.28666 -8.94815
143 1 6.28482 9.43623 6.28231 -8.96157
144 1 9.42036 9.4134 6.28271 -8.90845
145 1 12.6187 9.40314 6.25401 -8.85536
146 1 15.7337 9.43235 6.28617 -8.95748
147 1 18.8709 9.43426 6.28921 -8.95149
148 1 -0.000174326 1.34682e-15 9.43451 -8.94958
149 1 3.14431 1.64133e-15 9.43456 -8.94947
150 1 6.28911 1.3257e-15 9.43449 -8.95082
151 1 9.43457 1.28541e-15 9.43426 -8.94916
152 1 12.5798 1.46074e-15 9.43422 -8.95023
153 1 15.7248 1.78411e-15 9.43437 -8.94952
154 1 18.8692 1.49121e-15 9.43449 -8.9496
155 1 -0.000364748 3.14439 9.43451 -8.94944
156 1 3.14372 3.1436 9.4347 -8.94952
157 1 6.28781 3.14017 9.43439 -8.95206
158 1 9.43432 3.14223 9.4338 -8.94681
159 1 12.5808 3.14185 9.43335 -8.95039
160 1 15.7254 3.1435 9.43412 -8.94935
161 1 18.8694 3.14437 9.43443 -8.94951
162 1 22.0128 6.28899 9.43459 -8.94996
163 1 3.13994 6.28689 9.43472 -8.95085
164 1 6.27551 6.27194 9.42919 -8.94552
177 1 4.71639 1.57139 11.0073 -8.94921
178 1 7.86195 1.57072 11.0071 -8.95112
181 1 17.2971 1.57205 11.0069 -8.94954
11 1 15.7243 4.38391e-16 9.70212e-06 -8.94965
19 1 6.28957 3.1444 -7.08896e-06 -8.94947
25 1 15.7245 3.14441 6.18514e-05 -8.94959
43 1 22.0136 9.43446 0.000101617 -8.94957
41 1 18.8693 6.28951 -0.000100958 -8.94956
176 1 1.57195 1.57205 11.007 -8.94954
343 1 18.8693 9.43443 18.8695 -8.94953
342 1 15.7253 9.43434 18.8704 -8.94887
179 1 11.0071 1.57072 11.0068 -8.95112
180 1 14.1527 1.57139 11.0066 -8.94921
341 1 12.5797 9.43522 18.8709 -8.95081
182 1 20.4415 1.57224 11.007 -8.9496
183 1 1.57091 4.71608 11.0072 -8.94883
340 1 9.43412 9.43466 18.8709 -8.95098
185 1 7.86037 4.70907 11.0082 -8.96066
339 1 6.28717 9.43344 18.8766 -8.95861
187 1 14.1549 4.71394 11.0052 -8.9471
338 1 3.14203 9.43354 18.8719 -8.94785
189 1 20.4415 4.71669 11.007 -8.94953
337 1 -0.000961079 9.43431 18.8698 -8.94933
336 1 20.4413 7.86198 20.4417 -8.94951
192 1 7.80692 7.82176 11.019 -8.80789
335 1 18.8693 6.28945 18.8694 -8.94974
194 1 14.1641 7.85905 11.0021 -8.96091
195 1 17.2998 7.86143 11.0061 -8.95171
196 1 20.4415 7.86168 11.007 -8.95014
197 1 -0.000175052 1.3943e-15 12.5794 -8.9496
198 1 1.57198 1.57207 14.152 -8.94955
199 1 3.14429 1.76407e-15 12.5795 -8.94952
200 1 4.71648 1.57144 14.1523 -8.94973
201 1 6.28921 1.81533e-15 12.5797 -8.95023
202 1 7.86197 1.57139 14.1521 -8.9494
203 1 9.43449 1.55356e-15 12.5796 -8.94916
204 1 11.0072 1.57057 14.1523 -8.95115
205 1 12.5799 1.6072e-15 12.5794 -8.95082
206 1 14.1527 1.57104 14.1522 -8.95017
207 1 15.7247 1.68366e-15 12.5793 -8.94947
208 1 17.297 1.57209 14.1518 -8.94964
209 1 18.8692 1.44475e-15 12.5794 -8.94958
210 1 20.4415 1.57226 14.1518 -8.94957
211 1 22.0135 3.14437 12.5795 -8.94951
212 1 1.57095 4.71613 14.1524 -8.94913
213 1 3.14362 3.1435 12.5798 -8.94935
214 1 4.71376 4.71357 14.1543 -8.94408
215 1 6.28828 3.14185 12.5806 -8.95039
216 1 7.86202 4.71382 14.1532 -8.95117
217 1 9.43473 3.14223 12.5801 -8.94681
218 1 11.0094 4.70818 14.1544 -8.95712
219 1 12.5813 3.14017 12.5795 -8.95206
220 1 14.1565 4.71112 14.1547 -8.94781
221 1 15.7253 3.1436 12.5792 -8.94952
222 1 17.2982 4.71606 14.1521 -8.94993
223 1 18.8694 3.14439 12.5794 -8.94944
224 1 20.4415 4.71677 14.1519 -8.94971
225 1 -0.00109515 6.28886 12.5796 -8.94999
226 1 1.57075 7.86169 14.1514 -8.94971
227 1 3.14028 6.28676 12.5809 -8.94803
228 1 4.71297 7.86217 14.1499 -8.95462
229 1 6.27981 6.28046 12.5904 -8.92545
230 1 7.84293 7.85129 14.1808 -8.91178
231 1 9.43881 6.28789 12.5828 -9.00299
232 1 11.0468 7.82435 14.1891 -8.85737
233 1 12.5935 6.27194 12.5847 -8.94552
234 1 14.1714 7.84881 14.1645 -8.94002
235 1 15.7291 6.28689 12.5792 -8.95085
236 1 17.3017 7.86041 14.1535 -8.95244
237 1 18.8702 6.28899 12.5793 -8.94996
238 1 20.442 7.86168 14.152 -8.9503
239 1 22.0134 9.43426 12.5796 -8.94822
240 1 3.14538 9.43558 12.5798 -8.9399
241 1 6.30892 9.44772 12.5787 -8.9003
242 1 9.50217 9.18759 12.5826 -8.11347
243 1 12.6234 9.39593 12.613 -8.88527
244 1 15.7353 9.43286 12.5824 -8.95838
245 1 18.8714 9.4344 12.5796 -8.95151
246 1 -0.00015287 4.05225e-16 15.7243 -8.94959
247 1 1.57209 1.57216 17.2968 -8.94937
248 1 3.14439 1.27099e-15 15.7245 -8.94949
249 1 4.71687 1.57163 17.2971 -8.9505
250 1 6.28948 1.78803e-15 15.7245 -8.9502
251 1 7.86187 1.57162 17.2973 -8.94951
252 1 9.43436 -8.31538e-17 15.7248 -8.95001
253 1 11.007 1.57161 17.2973 -8.94957
254 1 12.5797 1.07389e-15 15.7248 -8.95036
255 1 14.1524 1.57152 17.2974 -8.94985
256 1 15.7248 1.19844e-15 15.7246 -8.94973
257 1 17.2971 1.57202 17.297 -8.94949
258 1 18.8692 1.25407e-15 15.7243 -8.94967
259 1 20.4415 1.57227 17.2967 -8.94959
260 1 -0.000344367 3.14445 15.7244 -8.94944
261 1 1.57168 4.71661 17.2969 -8.95045
262 1 3.14377 3.14367 15.7248 -8.94837
263 1 4.71448 4.71309 17.2996 -8.94986
264 1 6.28914 3.14245 15.725 -8.95231
265 1 7.86156 4.7144 17.2991 -8.94749
266 1 9.43419 3.14209 15.7256 -8.95006
267 1 11.0076 4.7142 17.2992 -8.94909
268 1 12.5807 3.14134 15.7259 -8.95098
269 1 14.1552 4.71355 17.3005 -8.94495
270 1 15.7257 3.14302 15.7253 -8.94914
271 1 17.2984 4.71589 17.298 -8.94845
272 1 18.8694 3.14441 15.7244 -8.94969
273 1 20.4417 4.71688 17.2969 -8.94971
274 1 22.0135 6.28927 15.7243 -8.94983
275 1 1.56908 7.86054 17.2983 -8.95064
276 1 3.14274 6.2885 15.7245 -8.95208
277 1 4.70571 7.85149 17.308 -8.93046
278 1 6.2825 6.27876 15.7328 -8.95433
279 1 7.8616 7.85812 17.3054 -8.9531
280 1 9.4345 6.28115 15.7301 -8.95001
281 1 11.0118 7.85619 17.3076 -8.95372
282 1 12.5912 6.27714 15.7372 -8.93027
283 1 14.1545 7.86119 17.3005 -8.95309
284 1 15.7305 6.28513 15.7287 -8.946
285 1 17.2979 7.8618 17.2977 -8.9495
286 1 18.8706 6.28884 15.725 -8.95008
287 1 20.4411 7.8618 17.2971 -8.94999
288 1 22.012 9.43426 15.7247 -8.95149
289 1 3.13533 9.43235 15.7277 -8.95748
290 1 6.25036 9.40314 15.7599 -8.85536
291 1 9.4487 9.4134 15.7312 -8.90845
292 1 12.5842 9.43623 15.7316 -8.96157
293 1 15.7279 9.43431 15.7272 -8.94815
294 1 18.8701 9.43436 15.725 -8.94956
295 1 22.0138 6.34893e-16 18.8691 -8.94953
296 1 1.57213 1.57211 20.4417 -8.94943
297 1 3.14458 -3.6898e-16 18.8693 -8.94994
298 1 4.71715 1.57216 20.4417 -8.94953
299 1 6.28953 -1.19186e-15 18.8694 -8.9495
300 1 7.86206 1.57213 20.4417 -8.94956
301 1 9.4345 -3.10028e-16 18.8695 -8.94957
302 1 11.007 1.57214 20.4417 -8.94953
303 1 12.5795 1.11512e-15 18.8694 -8.94958
304 1 14.1519 1.57216 20.4417 -8.94965
305 1 15.7245 5.31915e-16 18.8694 -8.94956
306 1 17.2969 1.57221 20.4417 -8.94937
307 1 18.8692 1.70639e-15 18.8692 -8.94954
308 1 20.4415 1.5723 20.4415 -8.94949
309 1 22.0138 3.14457 18.8692 -8.94981
310 1 1.57156 4.71643 20.4422 -8.94847
311 1 3.14393 3.14356 18.8699 -8.94937
312 1 4.71677 4.71637 20.4422 -8.94999
313 1 6.28943 3.14384 18.8698 -8.94912
314 1 7.86198 4.71633 20.4422 -8.94933
315 1 9.43451 3.14382 18.8699 -8.94938
316 1 11.0071 4.71638 20.4423 -8.94917
317 1 12.5797 3.14387 18.8699 -8.94962
318 1 14.1526 4.71634 20.4425 -8.94944
319 1 15.7251 3.14388 18.8701 -8.94848
320 1 17.2971 4.71687 20.4417 -8.94973
321 1 18.8695 3.14445 18.8694 -8.94927
322 1 20.4413 4.71702 20.4417 -8.94958
323 1 22.013 6.28906 18.8697 -8.94961
324 1 1.57154 7.86168 20.4422 -8.94933
325 1 3.14156 6.28652 18.8722 -8.94485
326 1 4.71588 7.86091 20.4443 -8.95126
327 1 6.28878 6.28767 18.8721 -8.95007
328 1 7.86227 7.86128 20.4436 -8.95082
329 1 9.43474 6.28755 18.8719 -8.94786
330 1 11.0071 7.86164 20.4432 -8.95249
331 1 12.5815 6.28735 18.8732 -8.9499
332 1 14.1523 7.86199 20.4419 -8.95048
333 1 15.7254 6.28902 18.8703 -8.95052
334 1 17.2971 7.86193 20.4417 -8.94934
5 1 6.28963 -4.04566e-16 22.0139 -8.94957
47 1 12.5797 9.43453 22.0128 -8.95107
44 1 3.144 9.43429 22.0145 -8.94935
39 1 15.7249 6.28911 22.0133 -8.94996
27 1 18.8693 3.14458 22.0138 -8.94932
33 1 6.28936 6.28899 22.0139 -8.95034
3 1 3.14475 -3.24193e-17 22.0139 -8.94965
13 1 18.8692 9.15781e-17 22.0139 -8.94938
17 1 3.14451 3.14441 22.0138 -8.94959
23 1 12.5795 3.1444 22.0139 -8.94947
29 1 -0.000234676 6.28951 22.014 -8.94956
49 1 18.8693 9.43446 22.0138 -8.94957
344 1 1.57189 11.007 1.57218 -8.94953
345 1 4.7164 11.007 1.57188 -8.95017
346 1 7.8621 11.007 1.57225 -8.94763
347 1 11.007 11.007 1.57139 -8.94662
348 1 14.1536 11.007 1.56948 -8.94945
349 1 17.2976 11.007 1.57163 -8.94952
350 1 20.4416 11.007 1.57218 -8.94956
688 3 10.2172 11.007 9.43941 2.29626
352 1 1.57195 14.152 1.57222 -8.94934
511 1 18.8694 18.8695 9.43443 -8.94951
354 1 4.71674 14.1519 1.57201 -8.95048
355 1 6.28938 12.5794 0.00108462 -8.95107
356 1 7.86196 14.1523 1.57068 -8.95249
357 1 9.43453 12.5793 9.97498e-16 -8.9493
358 1 11.0068 14.1526 1.57034 -8.95082
510 1 15.7254 18.8704 9.43412 -8.94935
360 1 14.1532 14.153 1.56961 -8.95126
361 1 15.7251 12.5796 -0.000588324 -8.94935
362 1 17.2975 14.1522 1.57166 -8.94933
538 1 17.2971 20.4418 11.0069 -8.94954
364 1 20.4416 14.1519 1.5722 -8.94951
535 1 7.86195 20.4432 11.0071 -8.95112
366 1 1.57197 17.297 1.57221 -8.94973
367 1 3.14416 15.7248 0.000595628 -8.94996
368 1 4.7165 17.2976 1.57137 -8.94944
509 1 12.5808 18.8721 9.43335 -8.95039
370 1 7.86194 17.2975 1.57162 -8.94917
371 1 9.43453 15.7251 1.75723e-15 -8.94948
372 1 11.0071 17.2976 1.57166 -8.94933
373 1 12.5797 15.7249 6.83152e-06 -8.95034
374 1 14.1523 17.2975 1.57169 -8.94999
508 1 9.43432 18.8717 9.4338 -8.94681
376 1 17.2975 17.2975 1.57168 -8.94847
507 1 6.28781 18.8737 9.43439 -8.95206
378 1 20.4416 17.2969 1.57223 -8.94958
379 1 22.0137 18.8693 5.85718e-05 -8.94932
380 1 1.57215 20.4417 1.57222 -8.94937
534 1 4.71639 20.4425 11.0073 -8.94921
382 1 4.71712 20.4417 1.57219 -8.94965
506 1 3.14372 18.8703 9.4347 -8.94952
384 1 7.86206 20.4418 1.57218 -8.94953
385 1 9.43453 18.8696 9.76997e-17 -8.94953
386 1 11.007 20.4418 1.57217 -8.94956
531 1 17.2981 17.2978 11.0067 -8.94883
388 1 14.1519 20.4417 1.57222 -8.94953
505 1 -0.000364748 18.8695 9.43451 -8.94944
390 1 17.2969 20.4418 1.57221 -8.94943
504 1 18.8702 15.725 9.43431 -8.94999
392 1 20.4414 20.4416 1.57236 -8.94949
393 1 1.57109 11.007 4.71594 -8.94942
394 1 4.71443 11.007 4.71304 -8.94634
395 1 7.86432 11.007 4.71873 -8.94232
396 1 11.0116 11.007 4.7197 -9.00179
397 1 14.1611 11.007 4.70822 -8.94239
398 1 17.3 11.007 4.71539 -8.94904
399 1 20.4419 11.007 4.71666 -8.94982
400 1 -0.000251464 12.5795 3.14437 -8.94953
401 1 1.57117 14.1521 4.71619 -8.9495
402 1 3.14371 12.5796 3.14355 -8.94887
403 1 4.71452 14.1527 4.71342 -8.95309
404 1 6.28934 12.5787 3.14302 -8.95081
405 1 7.85724 14.1577 4.70633 -8.95372
406 1 9.43494 12.5792 3.14298 -8.95098
407 1 11.0075 14.1558 4.70851 -8.9531
408 1 12.5819 12.5805 3.13733 -8.95861
409 1 14.1634 14.1624 4.70591 -8.93046
410 1 15.727 12.5804 3.14204 -8.94785
411 1 17.3 14.1534 4.71561 -8.95064
412 1 18.87 12.5796 3.14415 -8.94933
413 1 20.4418 14.1521 4.71678 -8.94999
414 1 22.0137 15.7245 3.14447 -8.94974
415 1 1.57064 17.298 4.71594 -8.94845
416 1 3.1437 15.7249 3.14356 -8.95052
417 1 4.71382 17.3004 4.71339 -8.94495
418 1 6.28759 15.7266 3.14075 -8.9499
419 1 7.86147 17.2997 4.71473 -8.94909
420 1 9.43432 15.7264 3.14195 -8.94786
421 1 11.0075 17.2995 4.71484 -8.94749
422 1 12.5803 15.7262 3.14183 -8.95007
423 1 14.1546 17.3008 4.71428 -8.94986
424 1 15.7275 15.7274 3.14166 -8.94485
425 1 17.2974 17.2973 4.71696 -8.95045
426 1 18.87 15.7248 3.14421 -8.94961
427 1 20.4412 17.297 4.71698 -8.94971
428 1 22.0135 18.8694 3.14453 -8.94927
429 1 1.57196 20.4419 4.71691 -8.94949
430 1 3.14391 18.87 3.14385 -8.94848
431 1 4.71665 20.4424 4.7165 -8.94985
432 1 6.28936 18.87 3.14397 -8.94962
433 1 7.86207 20.4423 4.71658 -8.94957
434 1 9.43454 18.8701 3.14399 -8.94938
435 1 11.0072 20.4423 4.71658 -8.94951
436 1 12.5796 18.8701 3.14409 -8.94912
437 1 14.1522 20.4423 4.71682 -8.9505
438 1 15.7251 18.8703 3.14396 -8.94937
439 1 17.297 20.4417 4.71708 -8.94937
440 1 18.8692 18.8693 3.14468 -8.94981
441 1 20.4415 20.4416 4.71717 -8.94959
442 1 1.56886 11.007 7.86018 -8.94723
443 1 4.71088 11.007 7.85471 -8.93521
444 1 7.878 11.007 7.87725 -8.9442
445 1 11.0842 11.007 7.6368 -8.1167
446 1 14.1613 11.007 7.8545 -8.97127
447 1 17.2995 11.007 7.86205 -8.95111
448 1 20.4413 11.007 7.86181 -8.94984
449 1 22.0129 12.5795 6.28888 -8.94956
450 1 1.56737 14.1535 7.86044 -8.95244
451 1 3.14114 12.5796 6.28666 -8.94815
452 1 4.69768 14.1651 7.84937 -8.94002
453 1 6.28482 12.5777 6.28231 -8.96157
454 1 7.82224 14.1895 7.82484 -8.85737
455 1 9.42036 12.6005 6.28271 -8.90845
456 1 11.0261 14.1626 7.83311 -8.91178
457 1 12.6187 12.6108 6.25401 -8.85536
458 1 14.1561 14.1517 7.86404 -8.95462
459 1 15.7337 12.5815 6.28617 -8.95748
460 1 17.2983 14.1522 7.86246 -8.94971
461 1 18.8709 12.5796 6.28921 -8.95149
462 1 20.441 14.1522 7.86187 -8.9503
463 1 22.0124 15.7251 6.28891 -8.95008
464 1 1.57083 17.2978 7.86177 -8.94993
465 1 3.13855 15.7288 6.28516 -8.946
466 1 4.71253 17.3028 7.85915 -8.94781
467 1 6.27782 15.7368 6.27675 -8.93027
468 1 7.85967 17.3057 7.85953 -8.95712
469 1 9.43456 15.7328 6.28375 -8.95001
470 1 11.007 17.3001 7.86073 -8.95117
471 1 12.5866 15.7351 6.28107 -8.95433
472 1 14.1553 17.3003 7.85964 -8.94408
473 1 15.7263 15.7254 6.28943 -8.95208
474 1 17.2981 17.2978 7.86153 -8.94913
475 1 18.8695 15.7246 6.28956 -8.94983
476 1 20.4415 17.2971 7.86195 -8.94971
477 1 -0.000388069 18.8695 6.2895 -8.94969
478 1 1.57202 20.4418 7.86207 -8.94964
479 1 3.14334 18.8709 6.28862 -8.94914
480 1 4.71634 20.4429 7.86166 -8.95017
481 1 6.28836 18.8726 6.28799 -8.95098
482 1 7.86189 20.4433 7.8616 -8.95115
483 1 9.43486 18.8718 6.28832 -8.95006
484 1 11.0071 20.4425 7.86176 -8.9494
485 1 12.5799 18.8715 6.28891 -8.95231
486 1 14.1526 20.4425 7.86161 -8.94973
487 1 15.7253 18.8702 6.28905 -8.94837
488 1 17.2971 20.4418 7.86195 -8.94955
489 1 18.8694 18.8695 6.28948 -8.94944
490 1 20.4415 20.4416 7.86206 -8.94957
491 1 22.0116 12.5795 9.43434 -8.95151
492 1 3.13373 12.581 9.4315 -8.95838
493 1 6.24567 12.618 9.40089 -8.88527
494 1 9.36689 12.8263 9.43135 -8.11347
495 1 12.5601 12.5662 9.43515 -8.9003
496 1 15.7237 12.5783 9.43413 -8.9399
497 1 18.8696 12.5796 9.43432 -8.94822
498 1 22.0128 15.7249 9.43459 -8.94996
499 1 3.13994 15.727 9.43472 -8.95085
500 1 6.27551 15.742 9.42919 -8.94552
501 1 9.43024 15.726 9.43114 -9.00299
502 1 12.5892 15.7334 9.4235 -8.92545
503 1 15.7288 15.7271 9.433 -8.94803
512 1 1.56975 11.007 11.0077 -8.94945
513 1 4.71167 11.007 10.9994 -8.96835
514 1 7.79673 11.007 10.7663 -8.03027
519 1 1.56924 14.1525 11.0078 -8.95171
520 1 4.70495 14.1549 11.0118 -8.96091
522 1 11.0621 14.1921 10.9949 -8.80789
527 1 4.71418 17.3 11.0087 -8.9471
529 1 11.0087 17.3048 11.0057 -8.96066
351 1 22.0136 12.5794 0.000101617 -8.94957
377 1 18.8693 15.7244 -0.000100958 -8.94956
389 1 15.7245 18.8695 6.18514e-05 -8.94959
383 1 6.28957 18.8695 -7.08896e-06 -8.94947
687 3 8.65185 11.007 12.5745 2.29626
686 1 20.4415 20.4416 20.4415 -8.94949
685 1 18.8695 18.8694 18.8694 -8.94927
515 1 11.0723 11.007 11.2476 -8.03027
516 1 14.1574 11.007 11.0145 -8.96835
517 1 17.2993 11.007 11.0062 -8.94945
518 1 20.4415 11.007 11.007 -8.94956
684 1 17.2969 20.4417 20.4417 -8.94937
683 1 15.7251 18.87 18.8701 -8.94848
521 1 7.80692 14.1921 11.019 -8.80789
682 1 14.1519 20.4417 20.4417 -8.94965
523 1 14.1641 14.1549 11.0021 -8.96091
524 1 17.2998 14.1525 11.0061 -8.95171
525 1 20.4415 14.1522 11.007 -8.95014
526 1 1.57091 17.2978 11.0072 -8.94883
681 1 12.5797 18.87 18.8699 -8.94962
528 1 7.86037 17.3048 11.0082 -8.96066
680 1 11.007 20.4418 20.4417 -8.94953
530 1 14.1549 17.3 11.0052 -8.9471
679 1 9.43451 18.8701 18.8699 -8.94938
532 1 20.4415 17.2972 11.007 -8.94953
533 1 1.57195 20.4418 11.007 -8.94954
678 1 7.86206 20.4418 20.4417 -8.94956
677 1 6.28943 18.8701 18.8698 -8.94912
536 1 11.0071 20.4432 11.0068 -8.95112
537 1 14.1527 20.4425 11.0066 -8.94921
676 1 4.71715 20.4417 20.4417 -8.94953
539 1 20.4415 20.4417 11.007 -8.9496
540 1 1.56953 11.007 14.1519 -8.95111
541 1 4.70777 11.007 14.1594 -8.97127
542 1 7.78488 11.007 14.3771 -8.1167
543 1 10.9911 11.007 14.1366 -8.9442
544 1 14.1582 11.007 14.1592 -8.93521
545 1 17.3002 11.007 14.1537 -8.94723
546 1 20.4416 11.007 14.1521 -8.94984
547 1 22.0134 12.5796 12.5796 -8.94822
548 1 1.57075 14.1522 14.1514 -8.94971
549 1 3.14538 12.5783 12.5798 -8.9399
550 1 4.71297 14.1517 14.1499 -8.95462
551 1 6.30892 12.5662 12.5787 -8.9003
552 1 7.84293 14.1626 14.1808 -8.91178
553 1 9.50217 12.8263 12.5826 -8.11347
554 1 11.0468 14.1895 14.1891 -8.85737
555 1 12.6234 12.618 12.613 -8.88527
556 1 14.1714 14.1651 14.1645 -8.94002
557 1 15.7353 12.581 12.5824 -8.95838
558 1 17.3017 14.1535 14.1535 -8.95244
559 1 18.8714 12.5795 12.5796 -8.95151
560 1 20.442 14.1522 14.152 -8.9503
561 1 -0.00109515 15.725 12.5796 -8.94999
562 1 1.57095 17.2978 14.1524 -8.94913
563 1 3.14028 15.7271 12.5809 -8.94803
564 1 4.71376 17.3003 14.1543 -8.94408
565 1 6.27981 15.7334 12.5904 -8.92545
566 1 7.86202 17.3001 14.1532 -8.95117
567 1 9.43881 15.726 12.5828 -9.00299
568 1 11.0094 17.3057 14.1544 -8.95712
569 1 12.5935 15.742 12.5847 -8.94552
570 1 14.1565 17.3028 14.1547 -8.94781
571 1 15.7291 15.727 12.5792 -8.95085
572 1 17.2982 17.2978 14.1521 -8.94993
573 1 18.8702 15.7249 12.5793 -8.94996
574 1 20.4415 17.2971 14.1519 -8.94971
575 1 22.0135 18.8695 12.5795 -8.94951
576 1 1.57198 20.4418 14.152 -8.94955
577 1 3.14362 18.8704 12.5798 -8.94935
578 1 4.71648 20.4425 14.1523 -8.94973
579 1 6.28828 18.8721 12.5806 -8.95039
580 1 7.86197 20.4425 14.1521 -8.9494
581 1 9.43473 18.8717 12.5801 -8.94681
582 1 11.0072 20.4433 14.1523 -8.95115
583 1 12.5813 18.8737 12.5795 -8.95206
584 1 14.1527 20.4429 14.1522 -8.95017
585 1 15.7253 18.8703 12.5792 -8.94952
586 1 17.297 20.4418 14.1518 -8.94964
587 1 18.8694 18.8695 12.5794 -8.94944
588 1 20.4415 20.4416 14.1518 -8.94957
589 1 1.56901 11.007 17.2985 -8.94904
590 1 4.70798 11.007 17.3057 -8.94239
591 1 7.85744 11.007 17.2942 -9.00179
592 1 11.0047 11.007 17.2952 -8.94232
593 1 14.1546 11.007 17.3009 -8.94634
594 1 17.298 11.007 17.298 -8.94942
595 1 20.441 11.007 17.2972 -8.94982
596 1 22.012 12.5796 15.7247 -8.95149
597 1 1.56908 14.1534 17.2983 -8.95064
598 1 3.13533 12.5815 15.7277 -8.95748
599 1 4.70571 14.1624 17.308 -8.93046
600 1 6.25036 12.6108 15.7599 -8.85536
601 1 7.8616 14.1558 17.3054 -8.9531
602 1 9.4487 12.6005 15.7312 -8.90845
603 1 11.0118 14.1577 17.3076 -8.95372
604 1 12.5842 12.5777 15.7316 -8.96157
605 1 14.1545 14.1527 17.3005 -8.95309
606 1 15.7279 12.5796 15.7272 -8.94815
607 1 17.2979 14.1521 17.2977 -8.9495
608 1 18.8701 12.5795 15.725 -8.94956
609 1 20.4411 14.1521 17.2971 -8.94999
610 1 22.0135 15.7246 15.7243 -8.94983
611 1 1.57168 17.2973 17.2969 -8.95045
612 1 3.14274 15.7254 15.7245 -8.95208
613 1 4.71448 17.3008 17.2996 -8.94986
614 1 6.2825 15.7351 15.7328 -8.95433
615 1 7.86156 17.2995 17.2991 -8.94749
616 1 9.4345 15.7328 15.7301 -8.95001
617 1 11.0076 17.2997 17.2992 -8.94909
618 1 12.5912 15.7368 15.7372 -8.93027
619 1 14.1552 17.3004 17.3005 -8.94495
620 1 15.7305 15.7288 15.7287 -8.946
621 1 17.2984 17.298 17.298 -8.94845
622 1 18.8706 15.7251 15.725 -8.95008
623 1 20.4417 17.297 17.2969 -8.94971
624 1 -0.000344367 18.8695 15.7244 -8.94944
625 1 1.57209 20.4417 17.2968 -8.94937
626 1 3.14377 18.8702 15.7248 -8.94837
627 1 4.71687 20.4423 17.2971 -8.9505
628 1 6.28914 18.8715 15.725 -8.95231
629 1 7.86187 20.4423 17.2973 -8.94951
630 1 9.43419 18.8718 15.7256 -8.95006
631 1 11.007 20.4423 17.2973 -8.94957
632 1 12.5807 18.8726 15.7259 -8.95098
633 1 14.1524 20.4424 17.2974 -8.94985
634 1 15.7257 18.8709 15.7253 -8.94914
635 1 17.2971 20.4419 17.297 -8.94949
636 1 18.8694 18.8695 15.7244 -8.94969
637 1 20.4415 20.4416 17.2967 -8.94959
638 1 1.57149 11.007 20.4423 -8.94952
639 1 4.71545 11.007 20.4444 -8.94945
640 1 7.86202 11.007 20.4425 -8.94662
641 1 11.007 11.007 20.4416 -8.94763
642 1 14.1527 11.007 20.442 -8.95017
643 1 17.2972 11.007 20.4417 -8.94953
644 1 20.4414 11.007 20.4417 -8.94956
645 1 -0.000961079 12.5796 18.8698 -8.94933
646 1 1.57154 14.1522 20.4422 -8.94933
647 1 3.14203 12.5804 18.8719 -8.94785
648 1 4.71588 14.153 20.4443 -8.95126
649 1 6.28717 12.5805 18.8766 -8.95861
650 1 7.86227 14.1526 20.4436 -8.95082
651 1 9.43412 12.5792 18.8709 -8.95098
652 1 11.0071 14.1523 20.4432 -8.95249
653 1 12.5797 12.5787 18.8709 -8.95081
654 1 14.1523 14.1519 20.4419 -8.95048
655 1 15.7253 12.5796 18.8704 -8.94887
656 1 17.2971 14.152 20.4417 -8.94934
657 1 18.8693 12.5795 18.8695 -8.94953
658 1 20.4413 14.1519 20.4417 -8.94951
659 1 22.013 15.7248 18.8697 -8.94961
660 1 1.57156 17.2975 20.4422 -8.94847
661 1 3.14156 15.7274 18.8722 -8.94485
662 1 4.71677 17.2975 20.4422 -8.94999
663 1 6.28878 15.7262 18.8721 -8.95007
664 1 7.86198 17.2976 20.4422 -8.94933
665 1 9.43474 15.7264 18.8719 -8.94786
666 1 11.0071 17.2975 20.4423 -8.94917
667 1 12.5815 15.7266 18.8732 -8.9499
668 1 14.1526 17.2976 20.4425 -8.94944
669 1 15.7254 15.7249 18.8703 -8.95052
670 1 17.2971 17.297 20.4417 -8.94973
671 1 18.8693 15.7245 18.8694 -8.94974
672 1 20.4413 17.2969 20.4417 -8.94958
673 1 22.0138 18.8693 18.8692 -8.94981
674 1 1.57213 20.4418 20.4417 -8.94943
675 1 3.14393 18.8703 18.8699 -8.94937
391 1 18.8693 18.8693 22.0138 -8.94932
353 1 3.144 12.5796 22.0145 -8.94935
359 1 12.5797 12.5794 22.0128 -8.95107
369 1 6.28936 15.7249 22.0139 -8.95034
375 1 15.7249 15.7248 22.0133 -8.94996
363 1 18.8693 12.5794 22.0138 -8.94957
365 1 -0.000234676 15.7244 22.014 -8.94956
381 1 3.14451 18.8695 22.0138 -8.94959
387 1 12.5795 18.8695 22.0139 -8.94947
