ITEM: TIMESTEP
48
ITEM: NUMBER OF ATOMS
688
ITEM: BOX BOUNDS pp pp pp
0.0000000000000000e+00 2.2013900999999997e+01
0.0000000000000000e+00 2.2013900999999997e+01
0.0000000000000000e+00 2.2013900999999997e+01
ITEM: ATOMS id type x y z c_pot
1 1 22.0139 -6.02345e-16 2.80255e-09 -8.94963
2 1 1.57242 1.57242 1.57242 -8.94963
193 1 11.019 7.85172 11.0014 -8.87454
4 1 4.71726 1.57242 1.57242 -8.94963
175 1 18.8691 9.43452 9.43453 -8.94968
6 1 7.86211 1.57242 1.57242 -8.94963
7 1 9.43453 9.34016e-16 4.51662e-16 -8.94963
8 1 11.007 1.57242 1.57242 -8.94963
9 1 12.5794 1.71258e-16 4.49873e-09 -8.94963
10 1 14.1518 1.57242 1.57242 -8.94963
174 1 15.7247 9.43431 9.43451 -8.94888
12 1 17.2966 1.57242 1.57242 -8.94963
191 1 4.7163 7.86168 11.0071 -8.9507
14 1 20.4415 1.57242 1.57242 -8.94963
15 1 22.0139 3.14484 3.02013e-08 -8.94963
16 1 1.57242 4.71726 1.57242 -8.94963
190 1 1.57237 7.86209 11.007 -8.94974
18 1 4.71726 4.71726 1.57242 -8.94963
173 1 12.5821 9.43172 9.43434 -8.90723
20 1 7.86211 4.71726 1.57242 -8.94964
21 1 9.43453 3.14484 2.59547e-16 -8.94963
22 1 11.007 4.71726 1.57242 -8.94964
188 1 17.2966 4.71727 11.007 -8.94965
24 1 14.1518 4.71727 1.57242 -8.94966
172 1 9.36938 9.28183 9.43297 -8.03338
26 1 17.2966 4.71726 1.57242 -8.94962
171 1 6.27609 9.42499 9.42595 -8.90847
28 1 20.4415 4.71726 1.57242 -8.94963
186 1 11.0074 4.71635 11.0069 -8.95005
30 1 1.57242 7.86211 1.57242 -8.94963
31 1 3.14484 6.28968 2.21086e-06 -8.94963
32 1 4.71726 7.86211 1.57242 -8.94965
170 1 3.14406 9.43438 9.43438 -8.9522
34 1 7.86209 7.86209 1.57239 -8.94968
35 1 9.43453 6.28969 1.17953e-15 -8.94964
36 1 11.0069 7.8621 1.57241 -8.94964
37 1 12.5794 6.28969 3.31683e-06 -8.94964
38 1 14.1518 7.86209 1.57238 -8.94964
169 1 22.0139 9.43453 9.43452 -8.9498
40 1 17.2966 7.86211 1.57242 -8.94966
168 1 18.8691 6.28969 9.43453 -8.94963
42 1 20.4415 7.86211 1.57242 -8.94963
167 1 15.7242 6.28966 9.43451 -8.94957
166 1 12.5799 6.28895 9.4339 -8.94682
45 1 6.28968 9.43452 2.82579e-05 -8.94975
46 1 9.43453 9.43451 1.40751e-16 -8.94968
165 1 9.43414 6.2832 9.43453 -8.97858
48 1 15.7242 9.43453 9.60602e-07 -8.94963
184 1 4.71726 4.71726 11.007 -8.94995
50 1 22.0139 -3.35075e-16 3.14484 -8.94963
51 1 1.57242 1.57242 4.71726 -8.94963
52 1 3.14484 -3.93784e-16 3.14484 -8.94963
53 1 4.71726 1.57242 4.71726 -8.94963
54 1 6.28969 9.47655e-16 3.14484 -8.94963
55 1 7.86211 1.57242 4.71727 -8.94964
56 1 9.43453 3.50715e-16 3.14484 -8.94963
57 1 11.007 1.57242 4.71726 -8.94963
58 1 12.5794 2.57308e-17 3.14484 -8.94963
59 1 14.1518 1.57242 4.71726 -8.94964
60 1 15.7242 4.56178e-17 3.14484 -8.94963
61 1 17.2966 1.57242 4.71726 -8.94963
62 1 18.8691 -1.18386e-17 3.14484 -8.94963
63 1 20.4415 1.57242 4.71726 -8.94963
64 1 22.0139 3.14484 3.14484 -8.94963
65 1 1.57242 4.71726 4.71726 -8.94962
66 1 3.14484 3.14484 3.14484 -8.94962
67 1 4.71724 4.71723 4.71724 -8.94938
68 1 6.28969 3.14484 3.14484 -8.94966
69 1 7.86212 4.71728 4.71728 -8.94991
70 1 9.43453 3.14484 3.14484 -8.94964
71 1 11.0069 4.71726 4.71725 -8.94962
72 1 12.5794 3.14484 3.14484 -8.94964
73 1 14.1518 4.71722 4.71724 -8.94964
74 1 15.7242 3.14484 3.14484 -8.94963
75 1 17.2966 4.71727 4.71726 -8.94965
76 1 18.8691 3.14484 3.14484 -8.94963
77 1 20.4415 4.71726 4.71726 -8.94963
78 1 22.0139 6.28969 3.14484 -8.94963
79 1 1.57242 7.86211 4.71727 -8.94966
80 1 3.14484 6.28968 3.14484 -8.94965
81 1 4.71724 7.86208 4.71722 -8.94979
82 1 6.28967 6.28967 3.1448 -8.94965
83 1 7.86189 7.8619 4.71667 -8.95078
84 1 9.43453 6.28967 3.14484 -8.94963
85 1 11.0068 7.86207 4.71703 -8.95146
86 1 12.5794 6.2897 3.14485 -8.94991
87 1 14.1524 7.86148 4.71665 -8.94527
88 1 15.7242 6.28966 3.14481 -8.94935
89 1 17.2967 7.86209 4.71725 -8.94967
90 1 18.8691 6.28968 3.14484 -8.94963
91 1 20.4415 7.86211 4.71726 -8.94964
92 1 6.05071e-08 9.43453 3.14484 -8.94963
93 1 3.14484 9.43453 3.14485 -8.94965
94 1 6.28967 9.43453 3.1448 -8.94985
95 1 9.43433 9.43432 3.14451 -8.94895
96 1 12.5796 9.4343 3.14423 -8.95077
97 1 15.7242 9.43453 3.14485 -8.94984
98 1 18.8691 9.43453 3.14484 -8.94963
99 1 22.0139 3.6888e-16 6.28969 -8.94963
100 1 1.57242 1.57242 7.86211 -8.94963
101 1 3.14484 2.69966e-17 6.28969 -8.94963
102 1 4.71726 1.57242 7.86211 -8.94963
103 1 6.28968 3.53671e-16 6.28968 -8.94964
104 1 7.8621 1.57239 7.8621 -8.94974
105 1 9.43453 5.42889e-16 6.28969 -8.94963
106 1 11.007 1.5724 7.8621 -8.94966
107 1 12.5794 2.78333e-16 6.28969 -8.94964
108 1 14.1518 1.57242 7.86211 -8.94964
109 1 15.7242 3.76107e-16 6.28969 -8.94963
110 1 17.2966 1.57242 7.86211 -8.94963
111 1 18.8691 2.06337e-17 6.28969 -8.94963
112 1 20.4415 1.57242 7.86211 -8.94963
113 1 1.46219e-07 3.14484 6.28969 -8.94963
114 1 1.57242 4.71727 7.86211 -8.94965
115 1 3.14484 3.14484 6.28969 -8.94966
116 1 4.71725 4.71724 7.86209 -8.94985
117 1 6.28966 3.1448 6.28966 -8.94964
118 1 7.86188 4.71665 7.86187 -8.95077
119 1 9.43454 3.14483 6.28968 -8.94964
120 1 11.0071 4.71697 7.86192 -8.94923
121 1 12.5794 3.14481 6.28967 -8.94971
122 1 14.1518 4.71722 7.86209 -8.94946
123 1 15.7242 3.14484 6.28969 -8.94963
124 1 17.2966 4.71726 7.86211 -8.94965
125 1 18.8691 3.14484 6.28969 -8.94963
126 1 20.4415 4.71726 7.86211 -8.94963
127 1 22.0139 6.28968 6.28968 -8.94964
128 1 1.57236 7.86209 7.86209 -8.94978
129 1 3.14478 6.28964 6.28964 -8.94939
130 1 4.71611 7.86133 7.86134 -8.94679
131 1 6.28909 6.28908 6.28907 -8.94553
132 1 7.85308 7.85348 7.85302 -8.89306
133 1 9.43465 6.28947 6.28965 -8.95142
134 1 11.0102 7.85999 7.85813 -8.93299
135 1 12.5796 6.28908 6.28944 -8.95078
136 1 14.1522 7.86181 7.86206 -8.94932
137 1 15.7242 6.28968 6.28968 -8.94981
138 1 17.2967 7.86209 7.8621 -8.94963
139 1 18.8691 6.28969 6.28969 -8.94963
140 1 20.4415 7.86211 7.86211 -8.94965
141 1 22.0139 9.43453 6.28969 -8.94964
142 1 3.14481 9.43453 6.28968 -8.94985
143 1 6.28903 9.43425 6.28879 -8.9502
144 1 9.43178 9.43094 6.28747 -8.93125
145 1 12.5885 9.42563 6.28104 -8.89187
146 1 15.7248 9.43437 6.28954 -8.9512
147 1 18.8691 9.43453 6.28968 -8.94974
148 1 3.42339e-09 8.77633e-16 9.43453 -8.94963
149 1 3.14484 1.1913e-15 9.43453 -8.94963
150 1 6.28968 9.83782e-16 9.43453 -8.94964
151 1 9.43453 1.90342e-16 9.43453 -8.94982
152 1 12.5794 9.77878e-16 9.43453 -8.94964
153 1 15.7242 1.10727e-15 9.43453 -8.94963
154 1 18.8691 7.61798e-16 9.43453 -8.94963
155 1 1.0274e-07 3.14484 9.43453 -8.94963
156 1 3.14484 3.14484 9.43453 -8.94965
157 1 6.28966 3.14479 9.43451 -8.94964
158 1 9.43453 3.14445 9.43453 -8.95125
159 1 12.5794 3.1448 9.43451 -8.94966
160 1 15.7242 3.14484 9.43453 -8.94965
161 1 18.8691 3.14484 9.43453 -8.94963
162 1 22.0139 6.28969 9.43453 -8.94963
163 1 3.14482 6.28967 9.43452 -8.94975
164 1 6.28925 6.28886 9.43432 -8.95203
177 1 4.71727 1.57242 11.007 -8.94964
178 1 7.86209 1.57237 11.0069 -8.94976
181 1 17.2966 1.57242 11.007 -8.94963
11 1 15.7242 5.7389e-16 3.78671e-09 -8.94963
19 1 6.28969 3.14484 1.73294e-07 -8.94963
25 1 15.7242 3.14484 1.63108e-07 -8.94963
43 1 22.0139 9.43453 3.10734e-08 -8.94963
41 1 18.8691 6.28969 8.18718e-08 -8.94963
176 1 1.57242 1.57242 11.007 -8.94963
343 1 18.8691 9.43453 18.8691 -8.94963
342 1 15.7242 9.43453 18.8691 -8.94965
179 1 11.007 1.57237 11.007 -8.94976
180 1 14.1518 1.57242 11.007 -8.94964
341 1 12.5794 9.43453 18.8691 -8.94985
182 1 20.4415 1.57242 11.007 -8.94963
183 1 1.57242 4.71727 11.007 -8.94965
340 1 9.43472 9.43432 18.8694 -8.94895
185 1 7.86168 4.71635 11.007 -8.95005
339 1 6.28945 9.4343 18.8697 -8.95077
187 1 14.1518 4.71726 11.0069 -8.94995
338 1 3.14485 9.43453 18.869 -8.94984
189 1 20.4415 4.71726 11.007 -8.94963
337 1 6.32898e-07 9.43453 18.8691 -8.94963
336 1 20.4415 7.86211 20.4415 -8.94963
192 1 7.85003 7.85172 11.0125 -8.87454
335 1 18.8691 6.28969 18.8691 -8.94963
194 1 14.1528 7.86168 11.0068 -8.9507
195 1 17.2967 7.86209 11.007 -8.94974
196 1 20.4415 7.86211 11.007 -8.94965
197 1 -7.72011e-10 6.61594e-16 12.5794 -8.94963
198 1 1.57242 1.57242 14.1518 -8.94963
199 1 3.14484 9.41988e-16 12.5794 -8.94963
200 1 4.71726 1.57242 14.1518 -8.94964
201 1 6.28968 1.2294e-15 12.5794 -8.94964
202 1 7.8621 1.5724 14.1518 -8.94966
203 1 9.43453 -1.5548e-16 12.5794 -8.94982
204 1 11.007 1.57239 14.1518 -8.94974
205 1 12.5794 7.59002e-16 12.5794 -8.94964
206 1 14.1518 1.57242 14.1518 -8.94963
207 1 15.7242 1.27141e-15 12.5794 -8.94963
208 1 17.2966 1.57242 14.1518 -8.94963
209 1 18.8691 9.80584e-16 12.5794 -8.94963
210 1 20.4415 1.57242 14.1518 -8.94963
211 1 22.0139 3.14484 12.5794 -8.94963
212 1 1.57242 4.71726 14.1518 -8.94965
213 1 3.14484 3.14484 12.5794 -8.94965
214 1 4.71722 4.71722 14.1518 -8.94946
215 1 6.28967 3.1448 12.5794 -8.94966
216 1 7.86192 4.71697 14.152 -8.94923
217 1 9.43453 3.14445 12.5794 -8.95125
218 1 11.0072 4.71665 14.152 -8.95077
219 1 12.5794 3.14479 12.5794 -8.94964
220 1 14.1518 4.71724 14.1518 -8.94985
221 1 15.7242 3.14484 12.5794 -8.94965
222 1 17.2966 4.71727 14.1518 -8.94965
223 1 18.8691 3.14484 12.5794 -8.94963
224 1 20.4415 4.71726 14.1518 -8.94963
225 1 -8.87898e-07 6.28969 12.5794 -8.94963
226 1 1.57239 7.86209 14.1518 -8.94963
227 1 3.14481 6.28966 12.5794 -8.94957
228 1 4.71684 7.86181 14.1518 -8.94932
229 1 6.28917 6.28895 12.58 -8.94682
230 1 7.8589 7.85999 14.1558 -8.93299
231 1 9.43492 6.2832 12.5794 -8.97858
232 1 11.016 7.85348 14.1609 -8.89306
233 1 12.5798 6.28886 12.5796 -8.95203
234 1 14.1529 7.86133 14.1526 -8.94679
235 1 15.7242 6.28967 12.5794 -8.94975
236 1 17.2967 7.86209 14.1518 -8.94978
237 1 18.8691 6.28969 12.5794 -8.94963
238 1 20.4415 7.86211 14.1518 -8.94965
239 1 22.0139 9.43452 12.5794 -8.94968
240 1 3.14439 9.43431 12.5794 -8.94888
241 1 6.28691 9.43172 12.5796 -8.90723
242 1 9.49967 9.28183 12.5809 -8.03338
243 1 12.593 9.42499 12.588 -8.90847
244 1 15.725 9.43438 12.5795 -8.9522
245 1 18.8691 9.43453 12.5794 -8.9498
246 1 1.0122e-08 -6.10447e-17 15.7242 -8.94963
247 1 1.57242 1.57242 17.2966 -8.94963
248 1 3.14484 6.49963e-16 15.7242 -8.94963
249 1 4.71726 1.57242 17.2966 -8.94964
250 1 6.28969 4.32211e-16 15.7242 -8.94964
251 1 7.86211 1.57242 17.2966 -8.94963
252 1 9.43453 4.45183e-16 15.7242 -8.94963
253 1 11.0069 1.57242 17.2966 -8.94964
254 1 12.5794 3.03263e-16 15.7242 -8.94964
255 1 14.1518 1.57242 17.2966 -8.94963
256 1 15.7242 -8.75105e-17 15.7242 -8.94963
257 1 17.2966 1.57242 17.2966 -8.94963
258 1 18.8691 4.59975e-16 15.7242 -8.94963
259 1 20.4415 1.57242 17.2966 -8.94963
260 1 -1.88568e-08 3.14484 15.7242 -8.94963
261 1 1.57242 4.71727 17.2966 -8.94965
262 1 3.14484 3.14484 15.7242 -8.94963
263 1 4.71724 4.71722 17.2967 -8.94964
264 1 6.28967 3.14481 15.7242 -8.94971
265 1 7.86211 4.71726 17.2966 -8.94962
266 1 9.43452 3.14483 15.7242 -8.94964
267 1 11.0069 4.71728 17.2966 -8.94991
268 1 12.5794 3.1448 15.7242 -8.94964
269 1 14.1518 4.71723 17.2967 -8.94938
270 1 15.7242 3.14484 15.7242 -8.94966
271 1 17.2966 4.71726 17.2966 -8.94962
272 1 18.8691 3.14484 15.7242 -8.94963
273 1 20.4415 4.71726 17.2966 -8.94963
274 1 22.0139 6.28969 15.7242 -8.94963
275 1 1.57239 7.86209 17.2967 -8.94967
276 1 3.14484 6.28968 15.7242 -8.94981
277 1 4.71665 7.86148 17.2973 -8.94527
278 1 6.28945 6.28908 15.7245 -8.95078
279 1 7.86222 7.86207 17.2969 -8.95146
280 1 9.43441 6.28947 15.7243 -8.95142
281 1 11.0072 7.8619 17.2972 -8.95078
282 1 12.58 6.28908 15.7248 -8.94553
283 1 14.1518 7.86208 17.2967 -8.94979
284 1 15.7243 6.28964 15.7243 -8.94939
285 1 17.2966 7.86211 17.2966 -8.94966
286 1 18.8691 6.28968 15.7242 -8.94964
287 1 20.4415 7.86211 17.2966 -8.94964
288 1 22.0139 9.43453 15.7242 -8.94974
289 1 3.1443 9.43437 15.7244 -8.9512
290 1 6.28057 9.42563 15.7329 -8.89187
291 1 9.43727 9.43094 15.7264 -8.93125
292 1 12.58 9.43425 15.7251 -8.9502
293 1 15.7242 9.43453 15.7242 -8.94985
294 1 18.8691 9.43453 15.7242 -8.94964
295 1 22.0139 3.43179e-17 18.8691 -8.94963
296 1 1.57242 1.57242 20.4415 -8.94963
297 1 3.14484 9.11367e-17 18.8691 -8.94963
298 1 4.71726 1.57242 20.4415 -8.94963
299 1 6.28969 1.34896e-17 18.8691 -8.94963
300 1 7.86211 1.57242 20.4415 -8.94963
301 1 9.43453 4.39764e-16 18.8691 -8.94963
302 1 11.007 1.57242 20.4415 -8.94963
303 1 12.5794 9.82493e-16 18.8691 -8.94963
304 1 14.1518 1.57242 20.4415 -8.94963
305 1 15.7242 -5.62328e-16 18.8691 -8.94963
306 1 17.2966 1.57242 20.4415 -8.94963
307 1 18.8691 -3.4919e-16 18.8691 -8.94963
308 1 20.4415 1.57242 20.4415 -8.94963
309 1 22.0139 3.14484 18.8691 -8.94963
310 1 1.57242 4.71726 20.4415 -8.94962
311 1 3.14484 3.14484 18.8691 -8.94963
312 1 4.71727 4.71727 20.4415 -8.94966
313 1 6.28969 3.14484 18.8691 -8.94964
314 1 7.86211 4.71726 20.4415 -8.94964
315 1 9.43453 3.14484 18.8691 -8.94964
316 1 11.0069 4.71726 20.4415 -8.94964
317 1 12.5794 3.14484 18.8691 -8.94966
318 1 14.1518 4.71726 20.4415 -8.94963
319 1 15.7242 3.14484 18.8691 -8.94962
320 1 17.2966 4.71726 20.4415 -8.94963
321 1 18.8691 3.14484 18.8691 -8.94963
322 1 20.4415 4.71726 20.4415 -8.94963
323 1 22.0139 6.28968 18.8691 -8.94963
324 1 1.57242 7.86211 20.4415 -8.94966
325 1 3.14481 6.28966 18.8691 -8.94935
326 1 4.71724 7.86209 20.4415 -8.94964
327 1 6.2897 6.2897 18.869 -8.94991
328 1 7.86211 7.8621 20.4415 -8.94964
329 1 9.43452 6.28967 18.8691 -8.94963
330 1 11.007 7.86209 20.4415 -8.94968
331 1 12.5794 6.28967 18.8691 -8.94965
332 1 14.1518 7.86211 20.4415 -8.94965
333 1 15.7242 6.28968 18.8691 -8.94965
334 1 17.2966 7.86211 20.4415 -8.94963
5 1 6.28969 2.07732e-16 22.0139 -8.94963
47 1 12.5794 9.43452 22.0139 -8.94975
44 1 3.14484 9.43453 22.0139 -8.94963
39 1 15.7242 6.28968 22.0139 -8.94963
27 1 18.8691 3.14484 22.0139 -8.94963
33 1 6.28969 6.28969 22.0139 -8.94964
3 1 3.14484 7.57153e-16 22.0139 -8.94963
13 1 18.8691 -5.36015e-16 22.0139 -8.94963
17 1 3.14484 3.14484 22.0139 -8.94963
23 1 12.5794 3.14484 22.0139 -8.94963
29 1 8.50778e-08 6.28969 22.0139 -8.94963
49 1 18.8691 9.43453 22.0139 -8.94963
344 1 1.57242 11.007 1.57242 -8.94963
345 1 4.71726 11.007 1.57242 -8.94962
346 1 7.86211 11.007 1.57242 -8.94986
347 1 11.0069 11.007 1.57203 -8.95131
348 1 14.1518 11.007 1.57241 -8.94959
349 1 17.2966 11.007 1.57242 -8.94965
350 1 20.4415 11.007 1.57242 -8.94963
688 3 10.2201 11.007 9.43479 2.91901
352 1 1.57242 14.1518 1.57242 -8.94963
511 1 18.8691 18.8691 9.43453 -8.94963
354 1 4.71726 14.1518 1.57242 -8.94965
355 1 6.28968 12.5794 2.82579e-05 -8.94975
356 1 7.86209 14.1518 1.57239 -8.94968
357 1 9.43453 12.5794 1.44718e-16 -8.94968
358 1 11.0069 14.1518 1.57241 -8.94964
510 1 15.7242 18.8691 9.43453 -8.94965
360 1 14.1518 14.1518 1.57238 -8.94964
361 1 15.7242 12.5794 9.60602e-07 -8.94963
362 1 17.2966 14.1518 1.57242 -8.94966
538 1 17.2966 20.4415 11.007 -8.94963
364 1 20.4415 14.1518 1.57242 -8.94963
535 1 7.86209 20.4415 11.0069 -8.94976
366 1 1.57242 17.2966 1.57242 -8.94963
367 1 3.14484 15.7242 2.21086e-06 -8.94963
368 1 4.71726 17.2966 1.57242 -8.94963
509 1 12.5794 18.8691 9.43451 -8.94966
370 1 7.86211 17.2966 1.57242 -8.94964
371 1 9.43453 15.7242 1.15618e-15 -8.94964
372 1 11.007 17.2966 1.57242 -8.94964
373 1 12.5794 15.7242 3.31683e-06 -8.94964
374 1 14.1518 17.2966 1.57242 -8.94966
508 1 9.43453 18.8694 9.43453 -8.95125
376 1 17.2966 17.2966 1.57242 -8.94962
507 1 6.28966 18.8691 9.43451 -8.94964
378 1 20.4415 17.2966 1.57242 -8.94963
379 1 22.0139 18.8691 3.02013e-08 -8.94963
380 1 1.57242 20.4415 1.57242 -8.94963
534 1 4.71727 20.4415 11.007 -8.94964
382 1 4.71726 20.4415 1.57242 -8.94963
506 1 3.14484 18.8691 9.43453 -8.94965
384 1 7.86211 20.4415 1.57242 -8.94963
385 1 9.43453 18.8691 8.12599e-17 -8.94963
386 1 11.007 20.4415 1.57242 -8.94963
531 1 17.2966 17.2966 11.007 -8.94965
388 1 14.1518 20.4415 1.57242 -8.94963
505 1 1.0274e-07 18.8691 9.43453 -8.94963
390 1 17.2966 20.4415 1.57242 -8.94963
504 1 18.8691 15.7242 9.43453 -8.94963
392 1 20.4415 20.4415 1.57242 -8.94963
393 1 1.57242 11.007 4.71726 -8.94964
394 1 4.71726 11.007 4.71724 -8.94948
395 1 7.86222 11.007 4.71674 -8.9529
396 1 11.0072 11.007 4.71078 -8.9771
397 1 14.152 11.007 4.71702 -8.95094
398 1 17.2967 11.007 4.71726 -8.94959
399 1 20.4415 11.007 4.71726 -8.94963
400 1 6.05071e-08 12.5794 3.14484 -8.94963
401 1 1.57242 14.1518 4.71727 -8.94966
402 1 3.14484 12.5794 3.14485 -8.94965
403 1 4.71724 14.1518 4.71722 -8.94979
404 1 6.28967 12.5794 3.1448 -8.94985
405 1 7.86189 14.152 4.71667 -8.95078
406 1 9.43433 12.5796 3.14451 -8.94895
407 1 11.0068 14.1518 4.71703 -8.95146
408 1 12.5796 12.5796 3.14423 -8.95077
409 1 14.1524 14.1524 4.71665 -8.94527
410 1 15.7242 12.5794 3.14485 -8.94984
411 1 17.2967 14.1518 4.71725 -8.94967
412 1 18.8691 12.5794 3.14484 -8.94963
413 1 20.4415 14.1518 4.71726 -8.94964
414 1 22.0139 15.7242 3.14484 -8.94963
415 1 1.57242 17.2966 4.71726 -8.94962
416 1 3.14484 15.7242 3.14484 -8.94965
417 1 4.71724 17.2967 4.71724 -8.94938
418 1 6.28967 15.7242 3.1448 -8.94965
419 1 7.86212 17.2966 4.71728 -8.94991
420 1 9.43453 15.7242 3.14484 -8.94963
421 1 11.0069 17.2966 4.71725 -8.94962
422 1 12.5794 15.7242 3.14485 -8.94991
423 1 14.1518 17.2967 4.71724 -8.94964
424 1 15.7242 15.7242 3.14481 -8.94935
425 1 17.2966 17.2966 4.71726 -8.94965
426 1 18.8691 15.7242 3.14484 -8.94963
427 1 20.4415 17.2966 4.71726 -8.94963
428 1 22.0139 18.8691 3.14484 -8.94963
429 1 1.57242 20.4415 4.71726 -8.94963
430 1 3.14484 18.8691 3.14484 -8.94962
431 1 4.71726 20.4415 4.71726 -8.94963
432 1 6.28969 18.8691 3.14484 -8.94966
433 1 7.86211 20.4415 4.71727 -8.94964
434 1 9.43453 18.8691 3.14484 -8.94964
435 1 11.007 20.4415 4.71726 -8.94963
436 1 12.5794 18.8691 3.14484 -8.94964
437 1 14.1518 20.4415 4.71726 -8.94964
438 1 15.7242 18.8691 3.14484 -8.94963
439 1 17.2966 20.4415 4.71726 -8.94963
440 1 18.8691 18.8691 3.14484 -8.94963
441 1 20.4415 20.4415 4.71726 -8.94963
442 1 1.57238 11.007 7.86209 -8.94963
443 1 4.71666 11.007 7.86167 -8.95022
444 1 7.85963 11.007 7.85258 -8.93484
445 1 11.0744 11.007 7.71271 -8.04188
446 1 14.1565 11.007 7.86138 -8.96427
447 1 17.2969 11.007 7.86211 -8.95077
448 1 20.4415 11.007 7.86211 -8.94969
449 1 22.0139 12.5794 6.28969 -8.94964
450 1 1.57236 14.1518 7.86209 -8.94978
451 1 3.14481 12.5794 6.28968 -8.94985
452 1 4.71611 14.1526 7.86134 -8.94679
453 1 6.28903 12.5797 6.28879 -8.9502
454 1 7.85308 14.1604 7.85302 -8.89306
455 1 9.43178 12.583 6.28747 -8.93125
456 1 11.0102 14.1539 7.85813 -8.93299
457 1 12.5885 12.5883 6.28104 -8.89187
458 1 14.1522 14.1521 7.86206 -8.94932
459 1 15.7248 12.5795 6.28954 -8.9512
460 1 17.2967 14.1518 7.8621 -8.94963
461 1 18.8691 12.5794 6.28968 -8.94974
462 1 20.4415 14.1518 7.86211 -8.94965
463 1 22.0139 15.7242 6.28968 -8.94964
464 1 1.57242 17.2966 7.86211 -8.94965
465 1 3.14478 15.7243 6.28964 -8.94939
466 1 4.71725 17.2967 7.86209 -8.94985
467 1 6.28909 15.7248 6.28907 -8.94553
468 1 7.86188 17.2972 7.86187 -8.95077
469 1 9.43465 15.7244 6.28965 -8.95142
470 1 11.0071 17.2969 7.86192 -8.94923
471 1 12.5796 15.7248 6.28944 -8.95078
472 1 14.1518 17.2967 7.86209 -8.94946
473 1 15.7242 15.7242 6.28968 -8.94981
474 1 17.2966 17.2966 7.86211 -8.94965
475 1 18.8691 15.7242 6.28969 -8.94963
476 1 20.4415 17.2966 7.86211 -8.94963
477 1 1.46219e-07 18.8691 6.28969 -8.94963
478 1 1.57242 20.4415 7.86211 -8.94963
479 1 3.14484 18.8691 6.28969 -8.94966
480 1 4.71726 20.4415 7.86211 -8.94963
481 1 6.28966 18.8691 6.28966 -8.94964
482 1 7.8621 20.4415 7.8621 -8.94974
483 1 9.43454 18.8691 6.28968 -8.94964
484 1 11.007 20.4415 7.8621 -8.94966
485 1 12.5794 18.8691 6.28967 -8.94971
486 1 14.1518 20.4415 7.86211 -8.94964
487 1 15.7242 18.8691 6.28969 -8.94963
488 1 17.2966 20.4415 7.86211 -8.94963
489 1 18.8691 18.8691 6.28969 -8.94963
490 1 20.4415 20.4415 7.86211 -8.94963
491 1 22.0139 12.5794 9.43452 -8.9498
492 1 3.14406 12.5795 9.43438 -8.9522
493 1 6.27609 12.5889 9.42595 -8.90847
494 1 9.36938 12.7321 9.43297 -8.03338
495 1 12.5821 12.5822 9.43434 -8.90723
496 1 15.7247 12.5796 9.43451 -8.94888
497 1 18.8691 12.5794 9.43453 -8.94968
498 1 22.0139 15.7242 9.43453 -8.94963
499 1 3.14482 15.7242 9.43452 -8.94975
500 1 6.28925 15.725 9.43432 -8.95203
501 1 9.43414 15.7307 9.43453 -8.97858
502 1 12.5799 15.725 9.4339 -8.94682
503 1 15.7242 15.7242 9.43451 -8.94957
512 1 1.57215 11.007 11.007 -8.95081
513 1 4.71215 11.007 11.0064 -8.9637
514 1 7.79029 11.007 10.8603 -7.98727
519 1 1.57237 14.1518 11.007 -8.94974
520 1 4.7163 14.1522 11.0071 -8.9507
522 1 11.019 14.1622 11.0014 -8.87454
527 1 4.71726 17.2966 11.007 -8.94995
529 1 11.0074 17.2976 11.0069 -8.95005
351 1 22.0139 12.5794 3.10734e-08 -8.94963
377 1 18.8691 15.7242 8.18718e-08 -8.94963
389 1 15.7242 18.8691 1.63108e-07 -8.94963
383 1 6.28969 18.8691 1.73294e-07 -8.94963
687 3 8.649 11.007 12.5791 2.91901
686 1 20.4415 20.4415 20.4415 -8.94963
685 1 18.8691 18.8691 18.8691 -8.94963
515 1 11.0788 11.007 11.1536 -7.98727
516 1 14.1569 11.007 11.0075 -8.9637
517 1 17.2969 11.007 11.0069 -8.95081
518 1 20.4415 11.007 11.007 -8.94976
684 1 17.2966 20.4415 20.4415 -8.94963
683 1 15.7242 18.8691 18.8691 -8.94962
521 1 7.85003 14.1622 11.0125 -8.87454
682 1 14.1518 20.4415 20.4415 -8.94963
523 1 14.1528 14.1522 11.0068 -8.9507
524 1 17.2967 14.1518 11.007 -8.94974
525 1 20.4415 14.1518 11.007 -8.94965
526 1 1.57242 17.2966 11.007 -8.94965
681 1 12.5794 18.8691 18.8691 -8.94966
528 1 7.86168 17.2976 11.007 -8.95005
680 1 11.007 20.4415 20.4415 -8.94963
530 1 14.1518 17.2966 11.0069 -8.94995
679 1 9.43453 18.8691 18.8691 -8.94964
532 1 20.4415 17.2966 11.007 -8.94963
533 1 1.57242 20.4415 11.007 -8.94963
678 1 7.86211 20.4415 20.4415 -8.94963
677 1 6.28969 18.8691 18.8691 -8.94964
536 1 11.007 20.4415 11.007 -8.94976
537 1 14.1518 20.4415 11.007 -8.94964
676 1 4.71726 20.4415 20.4415 -8.94963
539 1 20.4415 20.4415 11.007 -8.94963
540 1 1.57218 11.007 14.1518 -8.95077
541 1 4.71255 11.007 14.1525 -8.96427
542 1 7.79462 11.007 14.3012 -8.04188
543 1 11.0094 11.007 14.1613 -8.93484
544 1 14.1524 11.007 14.1522 -8.95022
545 1 17.2967 11.007 14.1518 -8.94963
546 1 20.4415 11.007 14.1518 -8.94969
547 1 22.0139 12.5794 12.5794 -8.94968
548 1 1.57239 14.1518 14.1518 -8.94963
549 1 3.14439 12.5796 12.5794 -8.94888
550 1 4.71684 14.1521 14.1518 -8.94932
551 1 6.28691 12.5822 12.5796 -8.90723
552 1 7.8589 14.1539 14.1558 -8.93299
553 1 9.49967 12.7321 12.5809 -8.03338
554 1 11.016 14.1604 14.1609 -8.89306
555 1 12.593 12.5889 12.588 -8.90847
556 1 14.1529 14.1526 14.1526 -8.94679
557 1 15.725 12.5795 12.5795 -8.9522
558 1 17.2967 14.1518 14.1518 -8.94978
559 1 18.8691 12.5794 12.5794 -8.9498
560 1 20.4415 14.1518 14.1518 -8.94965
561 1 -8.87898e-07 15.7242 12.5794 -8.94963
562 1 1.57242 17.2966 14.1518 -8.94965
563 1 3.14481 15.7242 12.5794 -8.94957
564 1 4.71722 17.2967 14.1518 -8.94946
565 1 6.28917 15.725 12.58 -8.94682
566 1 7.86192 17.2969 14.152 -8.94923
567 1 9.43492 15.7307 12.5794 -8.97858
568 1 11.0072 17.2972 14.152 -8.95077
569 1 12.5798 15.725 12.5796 -8.95203
570 1 14.1518 17.2967 14.1518 -8.94985
571 1 15.7242 15.7242 12.5794 -8.94975
572 1 17.2966 17.2966 14.1518 -8.94965
573 1 18.8691 15.7242 12.5794 -8.94963
574 1 20.4415 17.2966 14.1518 -8.94963
575 1 22.0139 18.8691 12.5794 -8.94963
576 1 1.57242 20.4415 14.1518 -8.94963
577 1 3.14484 18.8691 12.5794 -8.94965
578 1 4.71726 20.4415 14.1518 -8.94964
579 1 6.28967 18.8691 12.5794 -8.94966
580 1 7.8621 20.4415 14.1518 -8.94966
581 1 9.43453 18.8694 12.5794 -8.95125
582 1 11.007 20.4415 14.1518 -8.94974
583 1 12.5794 18.8691 12.5794 -8.94964
584 1 14.1518 20.4415 14.1518 -8.94963
585 1 15.7242 18.8691 12.5794 -8.94965
586 1 17.2966 20.4415 14.1518 -8.94963
587 1 18.8691 18.8691 12.5794 -8.94963
588 1 20.4415 20.4415 14.1518 -8.94963
589 1 1.57241 11.007 17.2966 -8.94959
590 1 4.71705 11.007 17.2969 -8.95094
591 1 7.86185 11.007 17.3031 -8.9771
592 1 11.0068 11.007 17.2972 -8.9529
593 1 14.1518 11.007 17.2967 -8.94948
594 1 17.2966 11.007 17.2966 -8.94964
595 1 20.4415 11.007 17.2966 -8.94963
596 1 22.0139 12.5794 15.7242 -8.94974
597 1 1.57239 14.1518 17.2967 -8.94967
598 1 3.1443 12.5795 15.7244 -8.9512
599 1 4.71665 14.1524 17.2973 -8.94527
600 1 6.28057 12.5883 15.7329 -8.89187
601 1 7.86222 14.1518 17.2969 -8.95146
602 1 9.43727 12.583 15.7264 -8.93125
603 1 11.0072 14.152 17.2972 -8.95078
604 1 12.58 12.5797 15.7251 -8.9502
605 1 14.1518 14.1518 17.2967 -8.94979
606 1 15.7242 12.5794 15.7242 -8.94985
607 1 17.2966 14.1518 17.2966 -8.94966
608 1 18.8691 12.5794 15.7242 -8.94964
609 1 20.4415 14.1518 17.2966 -8.94964
610 1 22.0139 15.7242 15.7242 -8.94963
611 1 1.57242 17.2966 17.2966 -8.94965
612 1 3.14484 15.7242 15.7242 -8.94981
613 1 4.71724 17.2967 17.2967 -8.94964
614 1 6.28945 15.7248 15.7245 -8.95078
615 1 7.86211 17.2966 17.2966 -8.94962
616 1 9.43441 15.7244 15.7243 -8.95142
617 1 11.0069 17.2966 17.2966 -8.94991
618 1 12.58 15.7248 15.7248 -8.94553
619 1 14.1518 17.2967 17.2967 -8.94938
620 1 15.7243 15.7243 15.7243 -8.94939
621 1 17.2966 17.2966 17.2966 -8.94962
622 1 18.8691 15.7242 15.7242 -8.94964
623 1 20.4415 17.2966 17.2966 -8.94963
624 1 -1.88568e-08 18.8691 15.7242 -8.94963
625 1 1.57242 20.4415 17.2966 -8.94963
626 1 3.14484 18.8691 15.7242 -8.94963
627 1 4.71726 20.4415 17.2966 -8.94964
628 1 6.28967 18.8691 15.7242 -8.94971
629 1 7.86211 20.4415 17.2966 -8.94963
630 1 9.43452 18.8691 15.7242 -8.94964
631 1 11.0069 20.4415 17.2966 -8.94964
632 1 12.5794 18.8691 15.7242 -8.94964
633 1 14.1518 20.4415 17.2966 -8.94963
634 1 15.7242 18.8691 15.7242 -8.94966
635 1 17.2966 20.4415 17.2966 -8.94963
636 1 18.8691 18.8691 15.7242 -8.94963
637 1 20.4415 20.4415 17.2966 -8.94963
638 1 1.57242 11.007 20.4415 -8.94965
639 1 4.71726 11.007 20.4415 -8.94959
640 1 7.86212 11.007 20.4419 -8.95131
641 1 11.0069 11.007 20.4415 -8.94986
642 1 14.1518 11.007 20.4415 -8.94962
643 1 17.2966 11.007 20.4415 -8.94963
644 1 20.4415 11.007 20.4415 -8.94963
645 1 6.32898e-07 12.5794 18.8691 -8.94963
646 1 1.57242 14.1518 20.4415 -8.94966
647 1 3.14485 12.5794 18.869 -8.94984
648 1 4.71724 14.1518 20.4415 -8.94964
649 1 6.28945 12.5796 18.8697 -8.95077
650 1 7.86211 14.1518 20.4415 -8.94964
651 1 9.43472 12.5796 18.8694 -8.94895
652 1 11.007 14.1518 20.4415 -8.94968
653 1 12.5794 12.5794 18.8691 -8.94985
654 1 14.1518 14.1518 20.4415 -8.94965
655 1 15.7242 12.5794 18.8691 -8.94965
656 1 17.2966 14.1518 20.4415 -8.94963
657 1 18.8691 12.5794 18.8691 -8.94963
658 1 20.4415 14.1518 20.4415 -8.94963
659 1 22.0139 15.7242 18.8691 -8.94963
660 1 1.57242 17.2966 20.4415 -8.94962
661 1 3.14481 15.7242 18.8691 -8.94935
662 1 4.71727 17.2966 20.4415 -8.94966
663 1 6.2897 15.7242 18.869 -8.94991
664 1 7.86211 17.2966 20.4415 -8.94964
665 1 9.43452 15.7242 18.8691 -8.94963
666 1 11.0069 17.2966 20.4415 -8.94964
667 1 12.5794 15.7242 18.8691 -8.94965
668 1 14.1518 17.2966 20.4415 -8.94963
669 1 15.7242 15.7242 18.8691 -8.94965
670 1 17.2966 17.2966 20.4415 -8.94963
671 1 18.8691 15.7242 18.8691 -8.94963
672 1 20.4415 17.2966 20.4415 -8.94963
673 1 22.0139 18.8691 18.8691 -8.94963
674 1 1.57242 20.4415 20.4415 -8.94963
675 1 3.14484 18.8691 18.8691 -8.94963
391 1 18.8691 18.8691 22.0139 -8.94963
353 1 3.14484 12.5794 22.0139 -8.94963
359 1 12.5794 12.5794 22.0139 -8.94975
369 1 6.28969 15.7242 22.0139 -8.94964
375 1 15.7242 15.7242 22.0139 -8.94963
363 1 18.8691 12.5794 22.0139 -8.94963
365 1 8.50778e-08 15.7242 22.0139 -8.94963
381 1 3.14484 18.8691 22.0139 -8.94963
387 1 12.5794 18.8691 22.0139 -8.94963
