ITEM: TIMESTEP
52
ITEM: NUMBER OF ATOMS
688
ITEM: BOX BOUNDS pp pp pp
0.0000000000000000e+00 2.2013900999999997e+01
0.0000000000000000e+00 2.2013900999999997e+01
0.0000000000000000e+00 2.2013900999999997e+01
ITEM: ATOMS id type x y z c_pot
1 1 22.0139 -6.96831e-16 2.46739e-08 -8.94963
2 1 1.57242 1.57242 1.57242 -8.94963
193 1 11.0266 7.84561 10.9984 -8.85756
4 1 4.71726 1.57242 1.57242 -8.94964
175 1 18.8691 9.4345 9.43453 -8.94966
6 1 7.86211 1.57242 1.57242 -8.94963
7 1 9.43453 9.1478e-16 4.63086e-16 -8.94963
8 1 11.007 1.57242 1.57242 -8.94963
9 1 12.5794 3.78838e-17 2.55847e-08 -8.94963
10 1 14.1518 1.57242 1.57242 -8.94963
174 1 15.7249 9.43412 9.43448 -8.94746
12 1 17.2966 1.57242 1.57242 -8.94963
191 1 4.71523 7.8613 11.0075 -8.95203
14 1 20.4415 1.57242 1.57242 -8.94963
15 1 22.0139 3.14484 1.97865e-07 -8.94963
16 1 1.57242 4.71726 1.57242 -8.94963
190 1 1.57225 7.86205 11.007 -8.94985
18 1 4.71726 4.71726 1.57241 -8.94962
173 1 12.5799 9.43333 9.43422 -8.90495
20 1 7.86211 4.71726 1.57242 -8.94964
21 1 9.43453 3.14484 2.53025e-16 -8.94964
22 1 11.007 4.71726 1.57242 -8.94965
188 1 17.2966 4.71726 11.007 -8.94964
24 1 14.1518 4.71727 1.57243 -8.9497
172 1 9.36293 9.25525 9.43231 -8.05166
26 1 17.2966 4.71726 1.57242 -8.94959
171 1 6.26839 9.41923 9.4207 -8.90022
28 1 20.4415 4.71726 1.57242 -8.94963
186 1 11.0077 4.71537 11.0069 -8.95124
30 1 1.57242 7.86211 1.57242 -8.94964
31 1 3.14484 6.28968 9.46488e-06 -8.94962
32 1 4.71726 7.8621 1.57242 -8.94968
170 1 3.14307 9.43421 9.43418 -8.95362
34 1 7.86207 7.86207 1.57232 -8.94981
35 1 9.43453 6.28968 1.52913e-15 -8.94964
36 1 11.0069 7.86208 1.57237 -8.94964
37 1 12.5794 6.28968 1.00834e-05 -8.94964
38 1 14.1519 7.86204 1.57229 -8.94971
169 1 22.0138 9.43452 9.43452 -8.95002
40 1 17.2966 7.86211 1.57242 -8.94968
168 1 18.8691 6.28968 9.43453 -8.94964
42 1 20.4415 7.86211 1.57242 -8.94963
167 1 15.7244 6.28956 9.43448 -8.94937
166 1 12.5807 6.28807 9.43305 -8.94343
45 1 6.28966 9.43451 8.14811e-05 -8.9499
46 1 9.43453 9.43448 6.13439e-17 -8.94973
165 1 9.43365 6.2822 9.43433 -8.98478
48 1 15.7242 9.43453 -1.50364e-07 -8.94962
184 1 4.7172 4.7172 11.007 -8.94996
50 1 22.0139 -2.86028e-16 3.14484 -8.94963
51 1 1.57242 1.57242 4.71726 -8.94964
52 1 3.14484 -4.73131e-16 3.14484 -8.94963
53 1 4.71726 1.57241 4.71726 -8.94962
54 1 6.28969 1.02878e-15 3.14484 -8.94964
55 1 7.86211 1.57242 4.71727 -8.94963
56 1 9.43453 1.16553e-16 3.14484 -8.94964
57 1 11.007 1.57242 4.71726 -8.94963
58 1 12.5794 -8.78095e-17 3.14484 -8.94963
59 1 14.1518 1.57241 4.71726 -8.94965
60 1 15.7242 8.76745e-17 3.14484 -8.94963
61 1 17.2966 1.57242 4.71726 -8.94963
62 1 18.8691 -9.70512e-17 3.14484 -8.94963
63 1 20.4415 1.57242 4.71726 -8.94963
64 1 22.0139 3.14484 3.14484 -8.94963
65 1 1.57241 4.71725 4.71725 -8.94958
66 1 3.14484 3.14484 3.14484 -8.94959
67 1 4.71716 4.71716 4.71716 -8.94903
68 1 6.28969 3.14485 3.14485 -8.9497
69 1 7.86213 4.71726 4.71726 -8.95
70 1 9.43453 3.14484 3.14484 -8.94965
71 1 11.0069 4.71721 4.71721 -8.94951
72 1 12.5794 3.14484 3.14484 -8.94963
73 1 14.1519 4.71713 4.71719 -8.94966
74 1 15.7242 3.14483 3.14484 -8.94962
75 1 17.2966 4.71727 4.71726 -8.94969
76 1 18.8691 3.14484 3.14484 -8.94964
77 1 20.4415 4.71726 4.71726 -8.94963
78 1 22.0139 6.28969 3.14484 -8.94964
79 1 1.57242 7.86211 4.71726 -8.94968
80 1 3.14484 6.28968 3.14483 -8.94967
81 1 4.71717 7.86203 4.71711 -8.94999
82 1 6.28963 6.28962 3.14471 -8.94967
83 1 7.86161 7.86158 4.71587 -8.95147
84 1 9.43454 6.28963 3.14479 -8.94952
85 1 11.0067 7.86182 4.7165 -8.95151
86 1 12.5794 6.28968 3.14483 -8.95001
87 1 14.1532 7.86063 4.71582 -8.94228
88 1 15.7243 6.28958 3.14474 -8.94897
89 1 17.2968 7.86205 4.71721 -8.94974
90 1 18.8691 6.28968 3.14484 -8.94963
91 1 20.4415 7.86211 4.71726 -8.94965
92 1 2.34592e-07 9.43453 3.14484 -8.94963
93 1 3.14484 9.43453 3.14484 -8.94964
94 1 6.28963 9.43454 3.14471 -8.95002
95 1 9.4342 9.43417 3.14418 -8.94896
96 1 12.5798 9.4341 3.14353 -8.95196
97 1 15.7242 9.43453 3.14483 -8.94983
98 1 18.8691 9.43453 3.14484 -8.94963
99 1 22.0139 5.81917e-16 6.28969 -8.94963
100 1 1.57242 1.57242 7.86211 -8.94964
101 1 3.14484 1.01208e-17 6.28969 -8.94963
102 1 4.71726 1.57241 7.8621 -8.94963
103 1 6.28968 7.1893e-16 6.28968 -8.94967
104 1 7.86209 1.57234 7.86209 -8.94989
105 1 9.43453 3.82856e-16 6.28968 -8.94964
106 1 11.007 1.57237 7.86209 -8.94968
107 1 12.5794 4.53536e-16 6.28968 -8.94966
108 1 14.1518 1.57241 7.8621 -8.94964
109 1 15.7242 4.49587e-16 6.28969 -8.94963
110 1 17.2966 1.57242 7.86211 -8.94964
111 1 18.8691 -1.36164e-16 6.28969 -8.94963
112 1 20.4415 1.57242 7.86211 -8.94963
113 1 4.66638e-07 3.14484 6.28969 -8.94964
114 1 1.57242 4.71726 7.86211 -8.94967
115 1 3.14484 3.14484 6.28968 -8.94967
116 1 4.71718 4.71712 7.86204 -8.94986
117 1 6.28962 3.14471 6.28962 -8.94971
118 1 7.86169 4.71592 7.86163 -8.95187
119 1 9.43455 3.14478 6.28966 -8.94963
120 1 11.0073 4.71666 7.86178 -8.94936
121 1 12.5794 3.14474 6.28965 -8.94987
122 1 14.1519 4.71711 7.86203 -8.94909
123 1 15.7242 3.14484 6.28968 -8.9496
124 1 17.2966 4.71726 7.8621 -8.94964
125 1 18.8691 3.14484 6.28969 -8.94963
126 1 20.4415 4.71726 7.86211 -8.94963
127 1 22.0139 6.28968 6.28968 -8.94964
128 1 1.57223 7.86204 7.86204 -8.94999
129 1 3.14462 6.28953 6.28953 -8.94907
130 1 4.71458 7.86029 7.86032 -8.94489
131 1 6.28826 6.28824 6.28821 -8.94263
132 1 7.84737 7.84796 7.84729 -8.88106
133 1 9.4348 6.28894 6.28937 -8.95128
134 1 11.0122 7.85872 7.8551 -8.92879
135 1 12.58 6.28828 6.28905 -8.95154
136 1 14.1526 7.86161 7.86228 -8.94977
137 1 15.7242 6.28966 6.28968 -8.94998
138 1 17.2967 7.86206 7.86211 -8.9496
139 1 18.8691 6.28968 6.28968 -8.94963
140 1 20.4415 7.8621 7.8621 -8.94967
141 1 22.0139 9.43453 6.28968 -8.94965
142 1 3.14473 9.43453 6.28962 -8.94983
143 1 6.28845 9.43428 6.28789 -8.95164
144 1 9.43018 9.4285 6.28619 -8.92624
145 1 12.5943 9.4203 6.27563 -8.87968
146 1 15.7255 9.43418 6.28934 -8.95227
147 1 18.8691 9.43452 6.28967 -8.94989
148 1 1.32965e-08 8.99648e-16 9.43453 -8.94963
149 1 3.14484 1.58256e-15 9.43453 -8.94964
150 1 6.28968 1.31111e-15 9.43452 -8.94967
151 1 9.43453 3.05416e-16 9.43453 -8.94997
152 1 12.5794 1.27826e-15 9.43452 -8.94967
153 1 15.7242 1.25919e-15 9.43453 -8.94964
154 1 18.8691 9.60515e-16 9.43453 -8.94963
155 1 2.81105e-07 3.14484 9.43453 -8.94964
156 1 3.14484 3.14484 9.43453 -8.94968
157 1 6.28961 3.14466 9.43449 -8.9497
158 1 9.43454 3.1441 9.43451 -8.95128
159 1 12.5794 3.14469 9.43446 -8.94966
160 1 15.7242 3.14484 9.43453 -8.94967
161 1 18.8691 3.14484 9.43453 -8.94964
162 1 22.0139 6.28968 9.43453 -8.94963
163 1 3.14473 6.28962 9.43452 -8.94983
164 1 6.28842 6.28755 9.43403 -8.95149
177 1 4.71726 1.57242 11.007 -8.94964
178 1 7.86207 1.57229 11.0069 -8.94993
181 1 17.2966 1.57242 11.007 -8.94963
11 1 15.7242 6.58631e-16 1.97053e-08 -8.94963
19 1 6.28969 3.14484 5.58689e-07 -8.94963
25 1 15.7242 3.14484 7.97128e-07 -8.94964
43 1 22.0139 9.43453 -1.48882e-09 -8.94963
41 1 18.8691 6.28969 2.69058e-07 -8.94964
176 1 1.57242 1.57242 11.007 -8.94963
343 1 18.8691 9.43453 18.8691 -8.94963
342 1 15.7242 9.43453 18.8691 -8.94964
179 1 11.007 1.57229 11.007 -8.94993
180 1 14.1518 1.57242 11.0069 -8.94964
341 1 12.5794 9.43454 18.8692 -8.95002
182 1 20.4415 1.57242 11.007 -8.94963
183 1 1.57242 4.71726 11.007 -8.94964
340 1 9.43486 9.43417 18.8697 -8.94896
185 1 7.86134 4.71537 11.007 -8.95124
339 1 6.28925 9.4341 18.8704 -8.95196
187 1 14.1519 4.7172 11.0069 -8.94996
338 1 3.14482 9.43453 18.8691 -8.94983
189 1 20.4415 4.71726 11.007 -8.94963
337 1 -8.7434e-07 9.43453 18.8691 -8.94963
336 1 20.4415 7.86211 20.4415 -8.94963
192 1 7.84246 7.84561 11.0155 -8.85756
335 1 18.8691 6.28969 18.8691 -8.94964
194 1 14.1538 7.8613 11.0064 -8.95203
195 1 17.2968 7.86205 11.0069 -8.94985
196 1 20.4415 7.8621 11.007 -8.94968
197 1 2.51796e-08 8.94273e-16 12.5794 -8.94963
198 1 1.57242 1.57242 14.1518 -8.94964
199 1 3.14484 1.00504e-15 12.5794 -8.94964
200 1 4.71726 1.57241 14.1518 -8.94964
201 1 6.28968 1.43613e-15 12.5794 -8.94967
202 1 7.86209 1.57237 14.1518 -8.94968
203 1 9.43453 -2.21932e-16 12.5794 -8.94997
204 1 11.007 1.57234 14.1518 -8.94989
205 1 12.5794 1.05917e-15 12.5794 -8.94967
206 1 14.1518 1.57241 14.1518 -8.94963
207 1 15.7242 1.7675e-15 12.5794 -8.94964
208 1 17.2966 1.57242 14.1518 -8.94964
209 1 18.8691 1.12581e-15 12.5794 -8.94963
210 1 20.4415 1.57242 14.1518 -8.94963
211 1 22.0139 3.14484 12.5794 -8.94964
212 1 1.57241 4.71726 14.1518 -8.94964
213 1 3.14484 3.14484 12.5794 -8.94967
214 1 4.71712 4.71711 14.1519 -8.94909
215 1 6.28961 3.14469 12.5794 -8.94966
216 1 7.86179 4.71666 14.1521 -8.94936
217 1 9.43452 3.1441 12.5794 -8.95128
218 1 11.0074 4.71592 14.1523 -8.95187
219 1 12.5795 3.14466 12.5794 -8.9497
220 1 14.1519 4.71712 14.1519 -8.94986
221 1 15.7242 3.14484 12.5794 -8.94968
222 1 17.2966 4.71726 14.1518 -8.94967
223 1 18.8691 3.14484 12.5794 -8.94964
224 1 20.4415 4.71726 14.1518 -8.94963
225 1 -9.36012e-06 6.28968 12.5794 -8.94964
226 1 1.57233 7.86206 14.1518 -8.9496
227 1 3.14468 6.28956 12.5794 -8.94937
228 1 4.71644 7.86161 14.1516 -8.94977
229 1 6.28839 6.28807 12.5808 -8.94343
230 1 7.85681 7.85872 14.1588 -8.92879
231 1 9.4354 6.2822 12.5796 -8.98478
232 1 11.0217 7.84796 14.1666 -8.88106
233 1 12.5806 6.28755 12.5799 -8.95149
234 1 14.1545 7.86029 14.1536 -8.94489
235 1 15.7243 6.28962 12.5794 -8.94983
236 1 17.2968 7.86204 14.1519 -8.94999
237 1 18.8691 6.28968 12.5794 -8.94963
238 1 20.4415 7.8621 14.1518 -8.94967
239 1 22.0138 9.4345 12.5794 -8.94966
240 1 3.14413 9.43412 12.5794 -8.94746
241 1 6.28915 9.43333 12.5797 -8.90495
242 1 9.50613 9.25525 12.5816 -8.05166
243 1 12.6007 9.41923 12.5932 -8.90022
244 1 15.726 9.43421 12.5797 -8.95362
245 1 18.8692 9.43452 12.5794 -8.95002
246 1 4.67127e-08 -2.17312e-16 15.7242 -8.94963
247 1 1.57242 1.57242 17.2966 -8.94963
248 1 3.14484 7.92273e-16 15.7242 -8.94963
249 1 4.71726 1.57241 17.2966 -8.94965
250 1 6.28968 6.4678e-16 15.7242 -8.94966
251 1 7.86211 1.57242 17.2966 -8.94963
252 1 9.43453 6.42938e-17 15.7242 -8.94964
253 1 11.0069 1.57242 17.2966 -8.94963
254 1 12.5794 6.62642e-16 15.7242 -8.94967
255 1 14.1518 1.57241 17.2966 -8.94962
256 1 15.7242 -1.9031e-16 15.7242 -8.94963
257 1 17.2966 1.57242 17.2966 -8.94964
258 1 18.8691 6.8417e-16 15.7242 -8.94963
259 1 20.4415 1.57242 17.2966 -8.94963
260 1 -3.87858e-07 3.14484 15.7242 -8.94963
261 1 1.57242 4.71727 17.2966 -8.94969
262 1 3.14484 3.14484 15.7242 -8.9496
263 1 4.7172 4.71713 17.2967 -8.94966
264 1 6.28965 3.14474 15.7243 -8.94987
265 1 7.86211 4.71721 17.2967 -8.94951
266 1 9.43451 3.14478 15.7242 -8.94963
267 1 11.0069 4.71726 17.2966 -8.95
268 1 12.5794 3.14471 15.7243 -8.94971
269 1 14.1519 4.71716 17.2967 -8.94903
270 1 15.7242 3.14484 15.7242 -8.94967
271 1 17.2967 4.71725 17.2966 -8.94958
272 1 18.8691 3.14484 15.7242 -8.94964
273 1 20.4415 4.71726 17.2966 -8.94963
274 1 22.0139 6.28968 15.7242 -8.94963
275 1 1.5723 7.86205 17.2967 -8.94974
276 1 3.14481 6.28966 15.7242 -8.94998
277 1 4.71582 7.86063 17.2981 -8.94228
278 1 6.2891 6.28828 15.7248 -8.95154
279 1 7.86235 7.86182 17.2974 -8.95151
280 1 9.43426 6.28894 15.7245 -8.95128
281 1 11.0075 7.86158 17.298 -8.95147
282 1 12.5808 6.28824 15.7257 -8.94263
283 1 14.1519 7.86203 17.2968 -8.94999
284 1 15.7244 6.28953 15.7244 -8.94907
285 1 17.2966 7.86211 17.2966 -8.94968
286 1 18.8691 6.28968 15.7242 -8.94964
287 1 20.4415 7.86211 17.2966 -8.94965
288 1 22.0138 9.43452 15.7242 -8.94989
289 1 3.14359 9.43418 15.7246 -8.95227
290 1 6.27474 9.4203 15.7383 -8.87968
291 1 9.43887 9.4285 15.7277 -8.92624
292 1 12.5806 9.43428 15.726 -8.95164
293 1 15.7243 9.43453 15.7243 -8.94983
294 1 18.8691 9.43453 15.7242 -8.94965
295 1 22.0139 4.32147e-17 18.8691 -8.94963
296 1 1.57242 1.57242 20.4415 -8.94963
297 1 3.14484 1.16508e-16 18.8691 -8.94963
298 1 4.71726 1.57242 20.4415 -8.94963
299 1 6.28969 -1.2973e-16 18.8691 -8.94963
300 1 7.86211 1.57242 20.4415 -8.94963
301 1 9.43453 2.88866e-16 18.8691 -8.94964
302 1 11.007 1.57242 20.4415 -8.94963
303 1 12.5794 1.17429e-15 18.8691 -8.94964
304 1 14.1518 1.57242 20.4415 -8.94964
305 1 15.7242 -7.02204e-16 18.8691 -8.94963
306 1 17.2966 1.57242 20.4415 -8.94963
307 1 18.8691 -1.54765e-16 18.8691 -8.94963
308 1 20.4415 1.57242 20.4415 -8.94963
309 1 22.0139 3.14484 18.8691 -8.94964
310 1 1.57242 4.71726 20.4415 -8.94959
311 1 3.14484 3.14483 18.8691 -8.94962
312 1 4.71727 4.71727 20.4415 -8.9497
313 1 6.28969 3.14484 18.8691 -8.94963
314 1 7.86211 4.71726 20.4415 -8.94965
315 1 9.43453 3.14484 18.8691 -8.94965
316 1 11.0069 4.71726 20.4415 -8.94964
317 1 12.5794 3.14485 18.8691 -8.9497
318 1 14.1518 4.71726 20.4415 -8.94962
319 1 15.7242 3.14484 18.8691 -8.94959
320 1 17.2966 4.71726 20.4415 -8.94963
321 1 18.8691 3.14484 18.8691 -8.94963
322 1 20.4415 4.71726 20.4415 -8.94963
323 1 22.0139 6.28968 18.8691 -8.94963
324 1 1.57242 7.86211 20.4415 -8.94968
325 1 3.14474 6.28958 18.8692 -8.94897
326 1 4.7172 7.86204 20.4416 -8.94971
327 1 6.2897 6.28968 18.8691 -8.95001
328 1 7.86212 7.86208 20.4415 -8.94964
329 1 9.43452 6.28963 18.8691 -8.94952
330 1 11.007 7.86207 20.4416 -8.94981
331 1 12.5794 6.28962 18.8692 -8.94967
332 1 14.1518 7.8621 20.4415 -8.94968
333 1 15.7242 6.28968 18.8691 -8.94967
334 1 17.2966 7.86211 20.4415 -8.94964
5 1 6.28969 1.84286e-17 22.0139 -8.94963
47 1 12.5794 9.43451 22.0138 -8.9499
44 1 3.14484 9.43453 22.0139 -8.94962
39 1 15.7242 6.28968 22.0139 -8.94962
27 1 18.8691 3.14484 22.0139 -8.94963
33 1 6.28968 6.28968 22.0139 -8.94964
3 1 3.14484 8.42119e-16 22.0139 -8.94963
13 1 18.8691 -6.95288e-16 22.0139 -8.94963
17 1 3.14484 3.14484 22.0139 -8.94964
23 1 12.5794 3.14484 22.0139 -8.94963
29 1 2.92811e-07 6.28969 22.0139 -8.94964
49 1 18.8691 9.43453 22.0139 -8.94963
344 1 1.57242 11.007 1.57242 -8.94964
345 1 4.71726 11.007 1.57241 -8.94962
346 1 7.8621 11.007 1.5724 -8.94993
347 1 11.0069 11.007 1.57171 -8.95144
348 1 14.1518 11.007 1.57234 -8.94953
349 1 17.2966 11.007 1.57242 -8.94967
350 1 20.4415 11.007 1.57242 -8.94963
688 3 10.219 11.007 9.43526 2.6706
352 1 1.57242 14.1518 1.57242 -8.94964
511 1 18.8691 18.8691 9.43453 -8.94964
354 1 4.71726 14.1518 1.57242 -8.94968
355 1 6.28966 12.5794 8.14811e-05 -8.9499
356 1 7.86207 14.1518 1.57232 -8.94981
357 1 9.43453 12.5794 8.23181e-17 -8.94973
358 1 11.0069 14.1518 1.57237 -8.94964
510 1 15.7242 18.8691 9.43453 -8.94967
360 1 14.1519 14.1519 1.57229 -8.94971
361 1 15.7242 12.5794 -1.50364e-07 -8.94962
362 1 17.2966 14.1518 1.57242 -8.94968
538 1 17.2966 20.4415 11.007 -8.94963
364 1 20.4415 14.1518 1.57242 -8.94963
535 1 7.86207 20.4416 11.0069 -8.94993
366 1 1.57242 17.2966 1.57242 -8.94963
367 1 3.14484 15.7242 9.46488e-06 -8.94962
368 1 4.71726 17.2966 1.57241 -8.94962
509 1 12.5794 18.8692 9.43446 -8.94966
370 1 7.86211 17.2966 1.57242 -8.94964
371 1 9.43453 15.7242 1.46531e-15 -8.94964
372 1 11.007 17.2966 1.57242 -8.94965
373 1 12.5794 15.7242 1.00834e-05 -8.94964
374 1 14.1518 17.2966 1.57243 -8.9497
508 1 9.43454 18.8698 9.43451 -8.95128
376 1 17.2966 17.2966 1.57242 -8.94959
507 1 6.28961 18.8692 9.43449 -8.9497
378 1 20.4415 17.2966 1.57242 -8.94963
379 1 22.0139 18.8691 1.97865e-07 -8.94963
380 1 1.57242 20.4415 1.57242 -8.94963
534 1 4.71726 20.4415 11.007 -8.94964
382 1 4.71726 20.4415 1.57242 -8.94964
506 1 3.14484 18.8691 9.43453 -8.94968
384 1 7.86211 20.4415 1.57242 -8.94963
385 1 9.43453 18.8691 8.41578e-17 -8.94964
386 1 11.007 20.4415 1.57242 -8.94963
531 1 17.2966 17.2966 11.007 -8.94964
388 1 14.1518 20.4415 1.57242 -8.94963
505 1 2.81105e-07 18.8691 9.43453 -8.94964
390 1 17.2966 20.4415 1.57242 -8.94963
504 1 18.8691 15.7242 9.43453 -8.94964
392 1 20.4415 20.4415 1.57242 -8.94963
393 1 1.57242 11.007 4.71726 -8.94965
394 1 4.71718 11.007 4.71711 -8.94913
395 1 7.8623 11.007 4.71638 -8.9527
396 1 11.0076 11.007 4.70993 -8.98333
397 1 14.1525 11.007 4.71645 -8.94975
398 1 17.2967 11.007 4.71722 -8.94954
399 1 20.4415 11.007 4.71726 -8.94964
400 1 2.34592e-07 12.5794 3.14484 -8.94963
401 1 1.57242 14.1518 4.71726 -8.94968
402 1 3.14484 12.5794 3.14484 -8.94964
403 1 4.71717 14.1519 4.71711 -8.94999
404 1 6.28963 12.5794 3.14471 -8.95002
405 1 7.86161 14.1523 4.71587 -8.95147
406 1 9.4342 12.5797 3.14418 -8.94896
407 1 11.0067 14.1521 4.7165 -8.95151
408 1 12.5798 12.5798 3.14353 -8.95196
409 1 14.1532 14.1533 4.71582 -8.94228
410 1 15.7242 12.5794 3.14483 -8.94983
411 1 17.2968 14.1518 4.71721 -8.94974
412 1 18.8691 12.5794 3.14484 -8.94963
413 1 20.4415 14.1518 4.71726 -8.94965
414 1 22.0139 15.7242 3.14484 -8.94964
415 1 1.57241 17.2966 4.71725 -8.94958
416 1 3.14484 15.7242 3.14483 -8.94967
417 1 4.71716 17.2967 4.71716 -8.94903
418 1 6.28963 15.7243 3.14471 -8.94967
419 1 7.86213 17.2966 4.71726 -8.95
420 1 9.43454 15.7243 3.14479 -8.94952
421 1 11.0069 17.2967 4.71721 -8.94951
422 1 12.5794 15.7242 3.14483 -8.95001
423 1 14.1519 17.2968 4.71719 -8.94966
424 1 15.7243 15.7243 3.14474 -8.94897
425 1 17.2966 17.2966 4.71726 -8.94969
426 1 18.8691 15.7242 3.14484 -8.94963
427 1 20.4415 17.2966 4.71726 -8.94963
428 1 22.0139 18.8691 3.14484 -8.94963
429 1 1.57242 20.4415 4.71726 -8.94964
430 1 3.14484 18.8691 3.14484 -8.94959
431 1 4.71726 20.4415 4.71726 -8.94962
432 1 6.28969 18.8691 3.14485 -8.9497
433 1 7.86211 20.4415 4.71727 -8.94963
434 1 9.43453 18.8691 3.14484 -8.94965
435 1 11.007 20.4415 4.71726 -8.94963
436 1 12.5794 18.8691 3.14484 -8.94963
437 1 14.1518 20.4415 4.71726 -8.94965
438 1 15.7242 18.8691 3.14484 -8.94962
439 1 17.2966 20.4415 4.71726 -8.94963
440 1 18.8691 18.8691 3.14484 -8.94964
441 1 20.4415 20.4415 4.71726 -8.94963
442 1 1.57228 11.007 7.86204 -8.94951
443 1 4.71597 11.007 7.86095 -8.94772
444 1 7.8618 11.007 7.85303 -8.93699
445 1 11.0825 11.007 7.68774 -8.06179
446 1 14.1588 11.007 7.86076 -8.9668
447 1 17.2972 11.007 7.86213 -8.95126
448 1 20.4415 11.007 7.86211 -8.94976
449 1 22.0139 12.5794 6.28968 -8.94965
450 1 1.57223 14.1519 7.86204 -8.94999
451 1 3.14473 12.5794 6.28962 -8.94983
452 1 4.71458 14.1536 7.86032 -8.94489
453 1 6.28845 12.5796 6.28789 -8.95164
454 1 7.84737 14.1659 7.84729 -8.88106
455 1 9.43018 12.5854 6.28619 -8.92624
456 1 11.0122 14.1552 7.8551 -8.92879
457 1 12.5943 12.5936 6.27563 -8.87968
458 1 14.1526 14.1523 7.86228 -8.94977
459 1 15.7255 12.5797 6.28934 -8.95227
460 1 17.2967 14.1518 7.86211 -8.9496
461 1 18.8691 12.5794 6.28967 -8.94989
462 1 20.4415 14.1518 7.8621 -8.94967
463 1 22.0139 15.7242 6.28968 -8.94964
464 1 1.57242 17.2966 7.86211 -8.94967
465 1 3.14462 15.7244 6.28953 -8.94907
466 1 4.71718 17.2968 7.86204 -8.94986
467 1 6.28826 15.7257 6.28821 -8.94263
468 1 7.86169 17.298 7.86163 -8.95187
469 1 9.4348 15.725 6.28937 -8.95128
470 1 11.0073 17.2972 7.86178 -8.94936
471 1 12.58 15.7256 6.28905 -8.95154
472 1 14.1519 17.2968 7.86203 -8.94909
473 1 15.7242 15.7242 6.28968 -8.94998
474 1 17.2966 17.2966 7.8621 -8.94964
475 1 18.8691 15.7242 6.28968 -8.94963
476 1 20.4415 17.2966 7.86211 -8.94963
477 1 4.66638e-07 18.8691 6.28969 -8.94964
478 1 1.57242 20.4415 7.86211 -8.94964
479 1 3.14484 18.8691 6.28968 -8.94967
480 1 4.71726 20.4415 7.8621 -8.94963
481 1 6.28962 18.8692 6.28962 -8.94971
482 1 7.86209 20.4416 7.86209 -8.94989
483 1 9.43455 18.8691 6.28966 -8.94963
484 1 11.007 20.4415 7.86209 -8.94968
485 1 12.5794 18.8692 6.28965 -8.94987
486 1 14.1518 20.4415 7.8621 -8.94964
487 1 15.7242 18.8691 6.28968 -8.9496
488 1 17.2966 20.4415 7.86211 -8.94964
489 1 18.8691 18.8691 6.28969 -8.94963
490 1 20.4415 20.4415 7.86211 -8.94963
491 1 22.0138 12.5794 9.43452 -8.95002
492 1 3.14307 12.5797 9.43418 -8.95362
493 1 6.26839 12.5947 9.4207 -8.90022
494 1 9.36293 12.7587 9.43231 -8.05166
495 1 12.5799 12.5806 9.43422 -8.90495
496 1 15.7249 12.5798 9.43448 -8.94746
497 1 18.8691 12.5794 9.43453 -8.94966
498 1 22.0139 15.7242 9.43453 -8.94963
499 1 3.14473 15.7243 9.43452 -8.94983
500 1 6.28842 15.7263 9.43403 -8.95149
501 1 9.43365 15.7317 9.43433 -8.98478
502 1 12.5807 15.7258 9.43305 -8.94343
503 1 15.7244 15.7243 9.43448 -8.94937
512 1 1.57183 11.007 11.007 -8.95122
513 1 4.70992 11.007 11.006 -8.96564
514 1 7.78322 11.007 10.8338 -8.00041
519 1 1.57225 14.1519 11.007 -8.94985
520 1 4.71523 14.1526 11.0075 -8.95203
522 1 11.0266 14.1683 10.9984 -8.85756
527 1 4.7172 17.2967 11.007 -8.94996
529 1 11.0077 17.2985 11.0069 -8.95124
351 1 22.0139 12.5794 -1.48882e-09 -8.94963
377 1 18.8691 15.7242 2.69058e-07 -8.94964
389 1 15.7242 18.8691 7.97128e-07 -8.94964
383 1 6.28969 18.8691 5.58689e-07 -8.94963
687 3 8.65007 11.007 12.5786 2.6706
686 1 20.4415 20.4415 20.4415 -8.94963
685 1 18.8691 18.8691 18.8691 -8.94963
515 1 11.0858 11.007 11.1801 -8.00041
516 1 14.1591 11.007 11.0079 -8.96564
517 1 17.2972 11.007 11.0069 -8.95122
518 1 20.4415 11.007 11.007 -8.94989
684 1 17.2966 20.4415 20.4415 -8.94963
683 1 15.7242 18.8691 18.8691 -8.94959
521 1 7.84246 14.1683 11.0155 -8.85756
682 1 14.1518 20.4415 20.4415 -8.94964
523 1 14.1538 14.1526 11.0064 -8.95203
524 1 17.2968 14.1519 11.0069 -8.94985
525 1 20.4415 14.1518 11.007 -8.94968
526 1 1.57242 17.2966 11.007 -8.94964
681 1 12.5794 18.8691 18.8691 -8.9497
528 1 7.86134 17.2985 11.007 -8.95124
680 1 11.007 20.4415 20.4415 -8.94963
530 1 14.1519 17.2967 11.0069 -8.94996
679 1 9.43453 18.8691 18.8691 -8.94965
532 1 20.4415 17.2966 11.007 -8.94963
533 1 1.57242 20.4415 11.007 -8.94963
678 1 7.86211 20.4415 20.4415 -8.94963
677 1 6.28969 18.8691 18.8691 -8.94963
536 1 11.007 20.4416 11.007 -8.94993
537 1 14.1518 20.4415 11.0069 -8.94964
676 1 4.71726 20.4415 20.4415 -8.94963
539 1 20.4415 20.4415 11.007 -8.94963
540 1 1.57189 11.007 14.1518 -8.95126
541 1 4.71031 11.007 14.1531 -8.9668
542 1 7.78652 11.007 14.3262 -8.06179
543 1 11.0073 11.007 14.1609 -8.93699
544 1 14.1531 11.007 14.153 -8.94772
545 1 17.2968 11.007 14.1519 -8.94951
546 1 20.4415 11.007 14.1518 -8.94976
547 1 22.0138 12.5794 12.5794 -8.94966
548 1 1.57233 14.1518 14.1518 -8.9496
549 1 3.14413 12.5798 12.5794 -8.94746
550 1 4.71644 14.1523 14.1516 -8.94977
551 1 6.28915 12.5806 12.5797 -8.90495
552 1 7.85681 14.1552 14.1588 -8.92879
553 1 9.50613 12.7587 12.5816 -8.05166
554 1 11.0217 14.1659 14.1666 -8.88106
555 1 12.6007 12.5947 12.5932 -8.90022
556 1 14.1545 14.1536 14.1536 -8.94489
557 1 15.726 12.5797 12.5797 -8.95362
558 1 17.2968 14.1519 14.1519 -8.94999
559 1 18.8692 12.5794 12.5794 -8.95002
560 1 20.4415 14.1518 14.1518 -8.94967
561 1 -9.36012e-06 15.7242 12.5794 -8.94964
562 1 1.57241 17.2966 14.1518 -8.94964
563 1 3.14468 15.7243 12.5794 -8.94937
564 1 4.71712 17.2968 14.1519 -8.94909
565 1 6.28839 15.7258 12.5808 -8.94343
566 1 7.86179 17.2972 14.1521 -8.94936
567 1 9.4354 15.7317 12.5796 -8.98478
568 1 11.0074 17.298 14.1523 -8.95187
569 1 12.5806 15.7263 12.5799 -8.95149
570 1 14.1519 17.2968 14.1519 -8.94986
571 1 15.7243 15.7243 12.5794 -8.94983
572 1 17.2966 17.2966 14.1518 -8.94967
573 1 18.8691 15.7242 12.5794 -8.94963
574 1 20.4415 17.2966 14.1518 -8.94963
575 1 22.0139 18.8691 12.5794 -8.94964
576 1 1.57242 20.4415 14.1518 -8.94964
577 1 3.14484 18.8691 12.5794 -8.94967
578 1 4.71726 20.4415 14.1518 -8.94964
579 1 6.28961 18.8692 12.5794 -8.94966
580 1 7.86209 20.4415 14.1518 -8.94968
581 1 9.43452 18.8698 12.5794 -8.95128
582 1 11.007 20.4416 14.1518 -8.94989
583 1 12.5795 18.8692 12.5794 -8.9497
584 1 14.1518 20.4415 14.1518 -8.94963
585 1 15.7242 18.8691 12.5794 -8.94968
586 1 17.2966 20.4415 14.1518 -8.94964
587 1 18.8691 18.8691 12.5794 -8.94964
588 1 20.4415 20.4415 14.1518 -8.94963
589 1 1.57234 11.007 17.2967 -8.94954
590 1 4.71651 11.007 17.2975 -8.94975
591 1 7.8615 11.007 17.304 -8.98333
592 1 11.0068 11.007 17.2975 -8.9527
593 1 14.1519 11.007 17.2968 -8.94913
594 1 17.2966 11.007 17.2966 -8.94965
595 1 20.4415 11.007 17.2966 -8.94964
596 1 22.0138 12.5794 15.7242 -8.94989
597 1 1.5723 14.1518 17.2967 -8.94974
598 1 3.14359 12.5797 15.7246 -8.95227
599 1 4.71582 14.1533 17.2981 -8.94228
600 1 6.27474 12.5936 15.7383 -8.87968
601 1 7.86235 14.1521 17.2974 -8.95151
602 1 9.43887 12.5854 15.7277 -8.92624
603 1 11.0075 14.1523 17.298 -8.95147
604 1 12.5806 12.5796 15.726 -8.95164
605 1 14.1519 14.1519 17.2968 -8.94999
606 1 15.7243 12.5794 15.7243 -8.94983
607 1 17.2966 14.1518 17.2966 -8.94968
608 1 18.8691 12.5794 15.7242 -8.94965
609 1 20.4415 14.1518 17.2966 -8.94965
610 1 22.0139 15.7242 15.7242 -8.94963
611 1 1.57242 17.2966 17.2966 -8.94969
612 1 3.14481 15.7242 15.7242 -8.94998
613 1 4.7172 17.2968 17.2967 -8.94966
614 1 6.2891 15.7256 15.7248 -8.95154
615 1 7.86211 17.2967 17.2967 -8.94951
616 1 9.43426 15.725 15.7245 -8.95128
617 1 11.0069 17.2966 17.2966 -8.95
618 1 12.5808 15.7257 15.7257 -8.94263
619 1 14.1519 17.2967 17.2967 -8.94903
620 1 15.7244 15.7244 15.7244 -8.94907
621 1 17.2967 17.2966 17.2966 -8.94958
622 1 18.8691 15.7242 15.7242 -8.94964
623 1 20.4415 17.2966 17.2966 -8.94963
624 1 -3.87858e-07 18.8691 15.7242 -8.94963
625 1 1.57242 20.4415 17.2966 -8.94963
626 1 3.14484 18.8691 15.7242 -8.9496
627 1 4.71726 20.4415 17.2966 -8.94965
628 1 6.28965 18.8692 15.7243 -8.94987
629 1 7.86211 20.4415 17.2966 -8.94963
630 1 9.43451 18.8691 15.7242 -8.94963
631 1 11.0069 20.4415 17.2966 -8.94963
632 1 12.5794 18.8692 15.7243 -8.94971
633 1 14.1518 20.4415 17.2966 -8.94962
634 1 15.7242 18.8691 15.7242 -8.94967
635 1 17.2966 20.4415 17.2966 -8.94964
636 1 18.8691 18.8691 15.7242 -8.94964
637 1 20.4415 20.4415 17.2966 -8.94963
638 1 1.57242 11.007 20.4415 -8.94967
639 1 4.71722 11.007 20.4416 -8.94953
640 1 7.86214 11.007 20.4422 -8.95144
641 1 11.007 11.007 20.4415 -8.94993
642 1 14.1518 11.007 20.4415 -8.94962
643 1 17.2966 11.007 20.4415 -8.94964
644 1 20.4415 11.007 20.4415 -8.94963
645 1 -8.7434e-07 12.5794 18.8691 -8.94963
646 1 1.57242 14.1518 20.4415 -8.94968
647 1 3.14482 12.5794 18.8691 -8.94983
648 1 4.7172 14.1519 20.4416 -8.94971
649 1 6.28925 12.5798 18.8704 -8.95196
650 1 7.86212 14.1518 20.4415 -8.94964
651 1 9.43486 12.5797 18.8697 -8.94896
652 1 11.007 14.1518 20.4416 -8.94981
653 1 12.5794 12.5794 18.8692 -8.95002
654 1 14.1518 14.1518 20.4415 -8.94968
655 1 15.7242 12.5794 18.8691 -8.94964
656 1 17.2966 14.1518 20.4415 -8.94964
657 1 18.8691 12.5794 18.8691 -8.94963
658 1 20.4415 14.1518 20.4415 -8.94963
659 1 22.0139 15.7242 18.8691 -8.94963
660 1 1.57242 17.2966 20.4415 -8.94959
661 1 3.14474 15.7243 18.8692 -8.94897
662 1 4.71727 17.2966 20.4415 -8.9497
663 1 6.2897 15.7242 18.8691 -8.95001
664 1 7.86211 17.2966 20.4415 -8.94965
665 1 9.43452 15.7243 18.8691 -8.94952
666 1 11.0069 17.2966 20.4415 -8.94964
667 1 12.5794 15.7243 18.8692 -8.94967
668 1 14.1518 17.2966 20.4415 -8.94962
669 1 15.7242 15.7242 18.8691 -8.94967
670 1 17.2966 17.2966 20.4415 -8.94963
671 1 18.8691 15.7242 18.8691 -8.94964
672 1 20.4415 17.2966 20.4415 -8.94963
673 1 22.0139 18.8691 18.8691 -8.94964
674 1 1.57242 20.4415 20.4415 -8.94963
675 1 3.14484 18.8691 18.8691 -8.94962
391 1 18.8691 18.8691 22.0139 -8.94963
353 1 3.14484 12.5794 22.0139 -8.94962
359 1 12.5794 12.5794 22.0138 -8.9499
369 1 6.28968 15.7242 22.0139 -8.94964
375 1 15.7242 15.7242 22.0139 -8.94962
363 1 18.8691 12.5794 22.0139 -8.94963
365 1 2.92811e-07 15.7242 22.0139 -8.94964
381 1 3.14484 18.8691 22.0139 -8.94964
387 1 12.5794 18.8691 22.0139 -8.94963
