ITEM: TIMESTEP
45
ITEM: NUMBER OF ATOMS
688
ITEM: BOX BOUNDS pp pp pp
0.0000000000000000e+00 2.2013900999999997e+01
0.0000000000000000e+00 2.2013900999999997e+01
0.0000000000000000e+00 2.2013900999999997e+01
ITEM: ATOMS id type x y z c_pot
1 1 22.0139 -4.37927e-16 5.50932e-10 -8.94963
2 1 1.57242 1.57242 1.57242 -8.94963
193 1 11.015 7.85511 11.0032 -8.88678
4 1 4.71726 1.57242 1.57242 -8.94963
175 1 18.8691 9.43453 9.43453 -8.94968
6 1 7.86211 1.57242 1.57242 -8.94963
7 1 9.43453 8.04142e-16 4.42001e-16 -8.94963
8 1 11.007 1.57242 1.57242 -8.94963
9 1 12.5794 2.14485e-16 1.12956e-09 -8.94963
10 1 14.1518 1.57242 1.57242 -8.94963
174 1 15.7245 9.43441 9.43452 -8.94954
12 1 17.2966 1.57242 1.57242 -8.94963
191 1 4.71674 7.86185 11.0069 -8.95013
14 1 20.4415 1.57242 1.57242 -8.94963
15 1 22.0139 3.14484 7.38697e-09 -8.94963
16 1 1.57242 4.71726 1.57242 -8.94963
190 1 1.5724 7.8621 11.0069 -8.9497
18 1 4.71726 4.71726 1.57242 -8.94963
173 1 12.5828 9.43139 9.4344 -8.90879
20 1 7.86211 4.71726 1.57242 -8.94964
21 1 9.43453 3.14484 2.80346e-16 -8.94963
22 1 11.007 4.71726 1.57242 -8.94963
188 1 17.2966 4.71727 11.007 -8.94964
24 1 14.1518 4.71727 1.57242 -8.94965
172 1 9.37567 9.30211 9.4334 -8.01727
26 1 17.2966 4.71726 1.57242 -8.94963
171 1 6.28045 9.42812 9.4288 -8.91498
28 1 20.4415 4.71726 1.57242 -8.94963
186 1 11.0072 4.71676 11.0069 -8.94963
30 1 1.57242 7.86211 1.57242 -8.94963
31 1 3.14484 6.28969 7.2813e-07 -8.94963
32 1 4.71726 7.86211 1.57242 -8.94964
170 1 3.14444 9.43445 9.43445 -8.95139
34 1 7.8621 7.8621 1.57241 -8.94965
35 1 9.43453 6.28969 8.8101e-16 -8.94964
36 1 11.0069 7.86211 1.57242 -8.94964
37 1 12.5794 6.28969 1.34644e-06 -8.94963
38 1 14.1518 7.8621 1.5724 -8.94962
169 1 22.0139 9.43453 9.43453 -8.94972
40 1 17.2966 7.86211 1.57242 -8.94965
168 1 18.8691 6.28969 9.43453 -8.94963
42 1 20.4415 7.86211 1.57242 -8.94963
167 1 15.7242 6.28969 9.43452 -8.94965
166 1 12.5796 6.28929 9.43421 -8.94838
45 1 6.28968 9.43453 1.21639e-05 -8.94969
46 1 9.43453 9.43452 1.0274e-16 -8.94966
165 1 9.43432 6.28443 9.43458 -8.97458
48 1 15.7242 9.43453 5.91007e-07 -8.94963
184 1 4.71727 4.71727 11.007 -8.94988
50 1 22.0139 -3.3859e-16 3.14484 -8.94963
51 1 1.57242 1.57242 4.71726 -8.94963
52 1 3.14484 -3.143e-16 3.14484 -8.94963
53 1 4.71726 1.57242 4.71726 -8.94963
54 1 6.28969 7.7708e-16 3.14484 -8.94963
55 1 7.86211 1.57242 4.71726 -8.94963
56 1 9.43453 3.80673e-16 3.14484 -8.94963
57 1 11.007 1.57242 4.71726 -8.94963
58 1 12.5794 7.18776e-17 3.14484 -8.94963
59 1 14.1518 1.57242 4.71726 -8.94963
60 1 15.7242 1.24473e-16 3.14484 -8.94963
61 1 17.2966 1.57242 4.71726 -8.94963
62 1 18.8691 3.80314e-17 3.14484 -8.94963
63 1 20.4415 1.57242 4.71726 -8.94963
64 1 22.0139 3.14484 3.14484 -8.94963
65 1 1.57242 4.71726 4.71726 -8.94963
66 1 3.14484 3.14484 3.14484 -8.94963
67 1 4.71725 4.71725 4.71725 -8.94951
68 1 6.28969 3.14484 3.14484 -8.94965
69 1 7.86211 4.71727 4.71727 -8.94983
70 1 9.43453 3.14484 3.14484 -8.94963
71 1 11.0069 4.71727 4.71726 -8.94965
72 1 12.5794 3.14484 3.14484 -8.94964
73 1 14.1518 4.71725 4.71726 -8.94964
74 1 15.7242 3.14484 3.14484 -8.94963
75 1 17.2966 4.71726 4.71726 -8.94964
76 1 18.8691 3.14484 3.14484 -8.94963
77 1 20.4415 4.71726 4.71726 -8.94963
78 1 22.0139 6.28969 3.14484 -8.94963
79 1 1.57242 7.86211 4.71727 -8.94965
80 1 3.14484 6.28969 3.14484 -8.94964
81 1 4.71725 7.86209 4.71725 -8.94972
82 1 6.28968 6.28968 3.14483 -8.94964
83 1 7.862 7.862 4.71696 -8.9504
84 1 9.43453 6.28968 3.14485 -8.94965
85 1 11.0069 7.86214 4.7172 -8.95136
86 1 12.5794 6.2897 3.14485 -8.94983
87 1 14.1521 7.86179 4.71695 -8.9468
88 1 15.7242 6.28967 3.14483 -8.94949
89 1 17.2967 7.8621 4.71726 -8.94965
90 1 18.8691 6.28969 3.14484 -8.94963
91 1 20.4415 7.86211 4.71726 -8.94963
92 1 1.31012e-08 9.43453 3.14484 -8.94963
93 1 3.14484 9.43453 3.14484 -8.94965
94 1 6.28968 9.43453 3.14482 -8.94977
95 1 9.43441 9.4344 3.14466 -8.94904
96 1 12.5795 9.43439 3.14451 -8.95024
97 1 15.7242 9.43453 3.14485 -8.9498
98 1 18.8691 9.43453 3.14484 -8.94963
99 1 22.0139 2.4048e-16 6.28969 -8.94963
100 1 1.57242 1.57242 7.86211 -8.94963
101 1 3.14484 -1.02889e-17 6.28969 -8.94963
102 1 4.71726 1.57242 7.86211 -8.94963
103 1 6.28969 2.40752e-16 6.28969 -8.94964
104 1 7.8621 1.57241 7.8621 -8.94969
105 1 9.43453 5.76599e-16 6.28969 -8.94963
106 1 11.007 1.57241 7.8621 -8.94965
107 1 12.5794 2.59538e-16 6.28969 -8.94964
108 1 14.1518 1.57242 7.86211 -8.94964
109 1 15.7242 3.51741e-16 6.28969 -8.94963
110 1 17.2966 1.57242 7.86211 -8.94963
111 1 18.8691 1.08369e-16 6.28969 -8.94963
112 1 20.4415 1.57242 7.86211 -8.94963
113 1 4.92448e-08 3.14484 6.28969 -8.94963
114 1 1.57242 4.71727 7.86211 -8.94964
115 1 3.14484 3.14484 6.28969 -8.94965
116 1 4.71727 4.71726 7.8621 -8.94981
117 1 6.28968 3.14483 6.28968 -8.94963
118 1 7.86198 4.71694 7.86197 -8.95026
119 1 9.43453 3.14484 6.28969 -8.94964
120 1 11.0071 4.7171 7.86199 -8.94925
121 1 12.5794 3.14483 6.28968 -8.94966
122 1 14.1518 4.71724 7.8621 -8.94957
123 1 15.7242 3.14484 6.28969 -8.94963
124 1 17.2966 4.71727 7.86211 -8.94964
125 1 18.8691 3.14484 6.28969 -8.94963
126 1 20.4415 4.71726 7.86211 -8.94963
127 1 22.0139 6.28969 6.28969 -8.94963
128 1 1.5724 7.8621 7.8621 -8.94971
129 1 3.14482 6.28967 6.28967 -8.94951
130 1 4.71668 7.86172 7.86171 -8.94779
131 1 6.28938 6.28939 6.28938 -8.947
132 1 7.85612 7.85642 7.8561 -8.90225
133 1 9.43459 6.28963 6.28972 -8.95137
134 1 11.0091 7.86068 7.85956 -8.93579
135 1 12.5795 6.28938 6.28957 -8.95039
136 1 14.152 7.86192 7.86202 -8.94921
137 1 15.7242 6.28969 6.28968 -8.94974
138 1 17.2967 7.8621 7.8621 -8.94964
139 1 18.8691 6.28969 6.28969 -8.94963
140 1 20.4415 7.86211 7.86211 -8.94964
141 1 22.0139 9.43453 6.28969 -8.94964
142 1 3.14483 9.43453 6.28969 -8.94981
143 1 6.2893 9.4343 6.28917 -8.94965
144 1 9.43265 9.43217 6.28819 -8.93455
145 1 12.5854 9.42857 6.28394 -8.90102
146 1 15.7245 9.43445 6.28961 -8.95066
147 1 18.8691 9.43453 6.28968 -8.94969
148 1 1.72357e-09 7.91002e-16 9.43453 -8.94963
149 1 3.14484 8.87286e-16 9.43453 -8.94963
150 1 6.28969 7.27903e-16 9.43453 -8.94964
151 1 9.43453 5.07517e-17 9.43453 -8.94975
152 1 12.5794 8.70659e-16 9.43453 -8.94964
153 1 15.7242 8.84912e-16 9.43453 -8.94963
154 1 18.8691 6.12089e-16 9.43453 -8.94963
155 1 3.17677e-08 3.14484 9.43453 -8.94963
156 1 3.14484 3.14484 9.43453 -8.94964
157 1 6.28968 3.14483 9.43452 -8.94964
158 1 9.43453 3.14462 9.43453 -8.951
159 1 12.5794 3.14483 9.43452 -8.94967
160 1 15.7242 3.14484 9.43453 -8.94964
161 1 18.8691 3.14484 9.43453 -8.94963
162 1 22.0139 6.28969 9.43453 -8.94963
163 1 3.14484 6.28968 9.43452 -8.94971
164 1 6.28953 6.28933 9.43443 -8.95211
177 1 4.71727 1.57242 11.007 -8.94964
178 1 7.8621 1.5724 11.007 -8.9497
181 1 17.2966 1.57242 11.007 -8.94963
11 1 15.7242 5.83768e-16 1.01661e-09 -8.94963
19 1 6.28969 3.14484 6.89866e-08 -8.94963
25 1 15.7242 3.14484 4.79361e-08 -8.94963
43 1 22.0139 9.43453 2.47262e-08 -8.94963
41 1 18.8691 6.28969 2.8266e-08 -8.94963
176 1 1.57242 1.57242 11.007 -8.94963
343 1 18.8691 9.43453 18.8691 -8.94963
342 1 15.7242 9.43453 18.8691 -8.94965
179 1 11.007 1.5724 11.007 -8.9497
180 1 14.1518 1.57242 11.007 -8.94964
341 1 12.5794 9.43453 18.8691 -8.94977
182 1 20.4415 1.57242 11.007 -8.94963
183 1 1.57242 4.71727 11.007 -8.94964
340 1 9.43465 9.4344 18.8692 -8.94904
185 1 7.86185 4.71676 11.007 -8.94963
339 1 6.28955 9.43439 18.8694 -8.95024
187 1 14.1518 4.71727 11.007 -8.94988
338 1 3.14485 9.43453 18.869 -8.9498
189 1 20.4415 4.71726 11.007 -8.94963
337 1 4.17379e-07 9.43453 18.8691 -8.94963
336 1 20.4415 7.86211 20.4415 -8.94963
192 1 7.85407 7.85511 11.0107 -8.88678
335 1 18.8691 6.28969 18.8691 -8.94963
194 1 14.1523 7.86185 11.007 -8.95013
195 1 17.2967 7.8621 11.007 -8.9497
196 1 20.4415 7.86211 11.007 -8.94964
197 1 -1.56808e-09 4.8348e-16 12.5794 -8.94963
198 1 1.57242 1.57242 14.1518 -8.94963
199 1 3.14484 8.03705e-16 12.5794 -8.94963
200 1 4.71726 1.57242 14.1518 -8.94964
201 1 6.28969 1.0506e-15 12.5794 -8.94964
202 1 7.8621 1.57241 14.1518 -8.94965
203 1 9.43453 -1.55728e-16 12.5794 -8.94975
204 1 11.007 1.57241 14.1518 -8.94969
205 1 12.5794 6.05632e-16 12.5794 -8.94964
206 1 14.1518 1.57242 14.1518 -8.94963
207 1 15.7242 9.25232e-16 12.5794 -8.94963
208 1 17.2966 1.57242 14.1518 -8.94963
209 1 18.8691 8.47614e-16 12.5794 -8.94963
210 1 20.4415 1.57242 14.1518 -8.94963
211 1 22.0139 3.14484 12.5794 -8.94963
212 1 1.57242 4.71727 14.1518 -8.94964
213 1 3.14484 3.14484 12.5794 -8.94964
214 1 4.71725 4.71724 14.1518 -8.94957
215 1 6.28968 3.14483 12.5794 -8.94967
216 1 7.86199 4.7171 14.1519 -8.94925
217 1 9.43453 3.14462 12.5794 -8.951
218 1 11.0071 4.71694 14.1519 -8.95026
219 1 12.5794 3.14483 12.5794 -8.94964
220 1 14.1518 4.71726 14.1518 -8.94981
221 1 15.7242 3.14484 12.5794 -8.94964
222 1 17.2966 4.71727 14.1518 -8.94964
223 1 18.8691 3.14484 12.5794 -8.94963
224 1 20.4415 4.71726 14.1518 -8.94963
225 1 1.5108e-07 6.28969 12.5794 -8.94963
226 1 1.57241 7.8621 14.1518 -8.94964
227 1 3.14484 6.28969 12.5794 -8.94965
228 1 4.71701 7.86192 14.1519 -8.94921
229 1 6.28945 6.28929 12.5797 -8.94838
230 1 7.85998 7.86068 14.1543 -8.93579
231 1 9.43473 6.28443 12.5793 -8.97458
232 1 11.0129 7.85642 14.1578 -8.90225
233 1 12.5795 6.28933 12.5795 -8.95211
234 1 14.1524 7.86172 14.1522 -8.94779
235 1 15.7242 6.28968 12.5794 -8.94971
236 1 17.2967 7.8621 14.1518 -8.94971
237 1 18.8691 6.28969 12.5794 -8.94963
238 1 20.4415 7.86211 14.1518 -8.94964
239 1 22.0139 9.43453 12.5794 -8.94968
240 1 3.14454 9.43441 12.5794 -8.94954
241 1 6.28625 9.43139 12.5795 -8.90879
242 1 9.49338 9.30211 12.5805 -8.01727
243 1 12.5886 9.42812 12.5851 -8.91498
244 1 15.7246 9.43445 12.5794 -8.95139
245 1 18.8691 9.43453 12.5794 -8.94972
246 1 2.7165e-09 2.01905e-17 15.7242 -8.94963
247 1 1.57242 1.57242 17.2966 -8.94963
248 1 3.14484 5.91822e-16 15.7242 -8.94963
249 1 4.71726 1.57242 17.2966 -8.94963
250 1 6.28969 3.28178e-16 15.7242 -8.94964
251 1 7.86211 1.57242 17.2966 -8.94963
252 1 9.43453 5.47008e-16 15.7242 -8.94963
253 1 11.007 1.57242 17.2966 -8.94963
254 1 12.5794 2.49684e-16 15.7242 -8.94964
255 1 14.1518 1.57242 17.2966 -8.94963
256 1 15.7242 -7.77799e-17 15.7242 -8.94963
257 1 17.2966 1.57242 17.2966 -8.94963
258 1 18.8691 3.14371e-16 15.7242 -8.94963
259 1 20.4415 1.57242 17.2966 -8.94963
260 1 4.30276e-09 3.14484 15.7242 -8.94963
261 1 1.57242 4.71726 17.2966 -8.94964
262 1 3.14484 3.14484 15.7242 -8.94963
263 1 4.71726 4.71725 17.2966 -8.94964
264 1 6.28968 3.14483 15.7242 -8.94966
265 1 7.86211 4.71727 17.2966 -8.94965
266 1 9.43453 3.14484 15.7242 -8.94964
267 1 11.0069 4.71727 17.2966 -8.94983
268 1 12.5794 3.14483 15.7242 -8.94963
269 1 14.1518 4.71725 17.2966 -8.94951
270 1 15.7242 3.14484 15.7242 -8.94965
271 1 17.2966 4.71726 17.2966 -8.94963
272 1 18.8691 3.14484 15.7242 -8.94963
273 1 20.4415 4.71726 17.2966 -8.94963
274 1 22.0139 6.28969 15.7242 -8.94963
275 1 1.57241 7.8621 17.2966 -8.94965
276 1 3.14484 6.28969 15.7242 -8.94974
277 1 4.71696 7.86179 17.2969 -8.9468
278 1 6.28957 6.28938 15.7243 -8.95039
279 1 7.86217 7.86214 17.2967 -8.95136
280 1 9.43447 6.28963 15.7242 -8.95137
281 1 11.0071 7.862 17.2969 -8.9504
282 1 12.5797 6.28939 15.7245 -8.947
283 1 14.1518 7.86209 17.2967 -8.94972
284 1 15.7242 6.28967 15.7242 -8.94951
285 1 17.2966 7.86211 17.2966 -8.94965
286 1 18.8691 6.28969 15.7242 -8.94963
287 1 20.4415 7.86211 17.2966 -8.94963
288 1 22.0139 9.43453 15.7242 -8.94969
289 1 3.14457 9.43445 15.7243 -8.95066
290 1 6.28365 9.42857 15.73 -8.90102
291 1 9.43641 9.43217 15.7257 -8.93455
292 1 12.5798 9.4343 15.7247 -8.94965
293 1 15.7242 9.43453 15.7242 -8.94981
294 1 18.8691 9.43453 15.7242 -8.94964
295 1 22.0139 6.93803e-17 18.8691 -8.94963
296 1 1.57242 1.57242 20.4415 -8.94963
297 1 3.14484 1.54481e-16 18.8691 -8.94963
298 1 4.71726 1.57242 20.4415 -8.94963
299 1 6.28969 7.88688e-17 18.8691 -8.94963
300 1 7.86211 1.57242 20.4415 -8.94963
301 1 9.43453 4.24335e-16 18.8691 -8.94963
302 1 11.007 1.57242 20.4415 -8.94963
303 1 12.5794 7.79427e-16 18.8691 -8.94963
304 1 14.1518 1.57242 20.4415 -8.94963
305 1 15.7242 -3.99241e-16 18.8691 -8.94963
306 1 17.2966 1.57242 20.4415 -8.94963
307 1 18.8691 -3.43894e-16 18.8691 -8.94963
308 1 20.4415 1.57242 20.4415 -8.94963
309 1 22.0139 3.14484 18.8691 -8.94963
310 1 1.57242 4.71726 20.4415 -8.94963
311 1 3.14484 3.14484 18.8691 -8.94963
312 1 4.71726 4.71727 20.4415 -8.94965
313 1 6.28969 3.14484 18.8691 -8.94964
314 1 7.86211 4.71726 20.4415 -8.94963
315 1 9.43453 3.14484 18.8691 -8.94963
316 1 11.007 4.71726 20.4415 -8.94964
317 1 12.5794 3.14484 18.8691 -8.94965
318 1 14.1518 4.71726 20.4415 -8.94963
319 1 15.7242 3.14484 18.8691 -8.94963
320 1 17.2966 4.71726 20.4415 -8.94963
321 1 18.8691 3.14484 18.8691 -8.94963
322 1 20.4415 4.71726 20.4415 -8.94963
323 1 22.0139 6.28969 18.8691 -8.94963
324 1 1.57242 7.86211 20.4415 -8.94965
325 1 3.14483 6.28967 18.8691 -8.94949
326 1 4.71726 7.8621 20.4415 -8.94962
327 1 6.28969 6.2897 18.869 -8.94983
328 1 7.86211 7.86211 20.4415 -8.94964
329 1 9.43453 6.28968 18.8691 -8.94965
330 1 11.007 7.8621 20.4415 -8.94965
331 1 12.5794 6.28968 18.8691 -8.94964
332 1 14.1518 7.86211 20.4415 -8.94964
333 1 15.7242 6.28969 18.8691 -8.94964
334 1 17.2966 7.86211 20.4415 -8.94963
5 1 6.28969 2.77366e-16 22.0139 -8.94963
47 1 12.5794 9.43453 22.0139 -8.94969
44 1 3.14484 9.43453 22.0139 -8.94963
39 1 15.7242 6.28969 22.0139 -8.94963
27 1 18.8691 3.14484 22.0139 -8.94963
33 1 6.28969 6.28969 22.0139 -8.94963
3 1 3.14484 6.98731e-16 22.0139 -8.94963
13 1 18.8691 -3.82523e-16 22.0139 -8.94963
17 1 3.14484 3.14484 22.0139 -8.94963
23 1 12.5794 3.14484 22.0139 -8.94963
29 1 2.85971e-08 6.28969 22.0139 -8.94963
49 1 18.8691 9.43453 22.0139 -8.94963
344 1 1.57242 11.007 1.57242 -8.94963
345 1 4.71726 11.007 1.57242 -8.94963
346 1 7.86211 11.007 1.57242 -8.94979
347 1 11.0069 11.007 1.5722 -8.95101
348 1 14.1518 11.007 1.57242 -8.94962
349 1 17.2966 11.007 1.57242 -8.94964
350 1 20.4415 11.007 1.57242 -8.94963
688 3 10.2204 11.007 9.43466 3.14112
352 1 1.57242 14.1518 1.57242 -8.94963
511 1 18.8691 18.8691 9.43453 -8.94963
354 1 4.71726 14.1518 1.57242 -8.94964
355 1 6.28968 12.5794 1.21639e-05 -8.94969
356 1 7.8621 14.1518 1.57241 -8.94965
357 1 9.43453 12.5794 9.62345e-17 -8.94966
358 1 11.0069 14.1518 1.57242 -8.94964
510 1 15.7242 18.8691 9.43453 -8.94964
360 1 14.1518 14.1518 1.5724 -8.94962
361 1 15.7242 12.5794 5.91007e-07 -8.94963
362 1 17.2966 14.1518 1.57242 -8.94965
538 1 17.2966 20.4415 11.007 -8.94963
364 1 20.4415 14.1518 1.57242 -8.94963
535 1 7.8621 20.4415 11.007 -8.9497
366 1 1.57242 17.2966 1.57242 -8.94963
367 1 3.14484 15.7242 7.2813e-07 -8.94963
368 1 4.71726 17.2966 1.57242 -8.94963
509 1 12.5794 18.8691 9.43452 -8.94967
370 1 7.86211 17.2966 1.57242 -8.94964
371 1 9.43453 15.7242 8.69828e-16 -8.94964
372 1 11.007 17.2966 1.57242 -8.94963
373 1 12.5794 15.7242 1.34644e-06 -8.94963
374 1 14.1518 17.2966 1.57242 -8.94965
508 1 9.43453 18.8693 9.43453 -8.951
376 1 17.2966 17.2966 1.57242 -8.94963
507 1 6.28968 18.8691 9.43452 -8.94964
378 1 20.4415 17.2966 1.57242 -8.94963
379 1 22.0139 18.8691 7.38697e-09 -8.94963
380 1 1.57242 20.4415 1.57242 -8.94963
534 1 4.71727 20.4415 11.007 -8.94964
382 1 4.71726 20.4415 1.57242 -8.94963
506 1 3.14484 18.8691 9.43453 -8.94964
384 1 7.86211 20.4415 1.57242 -8.94963
385 1 9.43453 18.8691 1.79595e-16 -8.94963
386 1 11.007 20.4415 1.57242 -8.94963
531 1 17.2966 17.2966 11.007 -8.94964
388 1 14.1518 20.4415 1.57242 -8.94963
505 1 3.17677e-08 18.8691 9.43453 -8.94963
390 1 17.2966 20.4415 1.57242 -8.94963
504 1 18.8691 15.7242 9.43453 -8.94963
392 1 20.4415 20.4415 1.57242 -8.94963
393 1 1.57242 11.007 4.71726 -8.94964
394 1 4.71727 11.007 4.71727 -8.94962
395 1 7.86218 11.007 4.71695 -8.9526
396 1 11.0071 11.007 4.71197 -8.97315
397 1 14.1518 11.007 4.7172 -8.95137
398 1 17.2966 11.007 4.71726 -8.94961
399 1 20.4415 11.007 4.71726 -8.94963
400 1 1.31012e-08 12.5794 3.14484 -8.94963
401 1 1.57242 14.1518 4.71727 -8.94965
402 1 3.14484 12.5794 3.14484 -8.94965
403 1 4.71725 14.1518 4.71725 -8.94972
404 1 6.28968 12.5794 3.14482 -8.94977
405 1 7.862 14.1519 4.71696 -8.9504
406 1 9.43441 12.5795 3.14466 -8.94904
407 1 11.0069 14.1518 4.7172 -8.95136
408 1 12.5795 12.5795 3.14451 -8.95024
409 1 14.1521 14.1521 4.71695 -8.9468
410 1 15.7242 12.5794 3.14485 -8.9498
411 1 17.2967 14.1518 4.71726 -8.94965
412 1 18.8691 12.5794 3.14484 -8.94963
413 1 20.4415 14.1518 4.71726 -8.94963
414 1 22.0139 15.7242 3.14484 -8.94963
415 1 1.57242 17.2966 4.71726 -8.94963
416 1 3.14484 15.7242 3.14484 -8.94964
417 1 4.71725 17.2966 4.71725 -8.94951
418 1 6.28968 15.7242 3.14483 -8.94964
419 1 7.86211 17.2966 4.71727 -8.94983
420 1 9.43453 15.7242 3.14485 -8.94965
421 1 11.0069 17.2966 4.71726 -8.94965
422 1 12.5794 15.7242 3.14485 -8.94983
423 1 14.1518 17.2967 4.71726 -8.94964
424 1 15.7242 15.7242 3.14483 -8.94949
425 1 17.2966 17.2966 4.71726 -8.94964
426 1 18.8691 15.7242 3.14484 -8.94963
427 1 20.4415 17.2966 4.71726 -8.94963
428 1 22.0139 18.8691 3.14484 -8.94963
429 1 1.57242 20.4415 4.71726 -8.94963
430 1 3.14484 18.8691 3.14484 -8.94963
431 1 4.71726 20.4415 4.71726 -8.94963
432 1 6.28969 18.8691 3.14484 -8.94965
433 1 7.86211 20.4415 4.71726 -8.94963
434 1 9.43453 18.8691 3.14484 -8.94963
435 1 11.007 20.4415 4.71726 -8.94963
436 1 12.5794 18.8691 3.14484 -8.94964
437 1 14.1518 20.4415 4.71726 -8.94963
438 1 15.7242 18.8691 3.14484 -8.94963
439 1 17.2966 20.4415 4.71726 -8.94963
440 1 18.8691 18.8691 3.14484 -8.94963
441 1 20.4415 20.4415 4.71726 -8.94963
442 1 1.5724 11.007 7.8621 -8.94965
443 1 4.71694 11.007 7.86194 -8.95129
444 1 7.85887 11.007 7.85359 -8.93314
445 1 11.0674 11.007 7.73195 -8.02522
446 1 14.1551 11.007 7.86165 -8.96248
447 1 17.2968 11.007 7.86211 -8.95044
448 1 20.4415 11.007 7.86211 -8.94966
449 1 22.0139 12.5794 6.28969 -8.94964
450 1 1.5724 14.1518 7.8621 -8.94971
451 1 3.14483 12.5794 6.28969 -8.94981
452 1 4.71668 14.1522 7.86171 -8.94779
453 1 6.2893 12.5796 6.28917 -8.94965
454 1 7.85612 14.1575 7.8561 -8.90225
455 1 9.43265 12.5817 6.28819 -8.93455
456 1 11.0091 14.1532 7.85956 -8.93579
457 1 12.5854 12.5853 6.28394 -8.90102
458 1 14.152 14.152 7.86202 -8.94921
459 1 15.7245 12.5795 6.28961 -8.95066
460 1 17.2967 14.1518 7.8621 -8.94964
461 1 18.8691 12.5794 6.28968 -8.94969
462 1 20.4415 14.1518 7.86211 -8.94964
463 1 22.0139 15.7242 6.28969 -8.94963
464 1 1.57242 17.2966 7.86211 -8.94964
465 1 3.14482 15.7242 6.28967 -8.94951
466 1 4.71727 17.2966 7.8621 -8.94981
467 1 6.28938 15.7245 6.28938 -8.947
468 1 7.86198 17.297 7.86197 -8.95026
469 1 9.43459 15.7243 6.28972 -8.95137
470 1 11.0071 17.2968 7.86199 -8.94925
471 1 12.5795 15.7245 6.28957 -8.95039
472 1 14.1518 17.2967 7.8621 -8.94957
473 1 15.7242 15.7242 6.28968 -8.94974
474 1 17.2966 17.2966 7.86211 -8.94964
475 1 18.8691 15.7242 6.28969 -8.94963
476 1 20.4415 17.2966 7.86211 -8.94963
477 1 4.92448e-08 18.8691 6.28969 -8.94963
478 1 1.57242 20.4415 7.86211 -8.94963
479 1 3.14484 18.8691 6.28969 -8.94965
480 1 4.71726 20.4415 7.86211 -8.94963
481 1 6.28968 18.8691 6.28968 -8.94963
482 1 7.8621 20.4415 7.8621 -8.94969
483 1 9.43453 18.8691 6.28969 -8.94964
484 1 11.007 20.4415 7.8621 -8.94965
485 1 12.5794 18.8691 6.28968 -8.94966
486 1 14.1518 20.4415 7.86211 -8.94964
487 1 15.7242 18.8691 6.28969 -8.94963
488 1 17.2966 20.4415 7.86211 -8.94963
489 1 18.8691 18.8691 6.28969 -8.94963
490 1 20.4415 20.4415 7.86211 -8.94963
491 1 22.0139 12.5794 9.43453 -8.94972
492 1 3.14444 12.5795 9.43445 -8.95139
493 1 6.28045 12.5858 9.4288 -8.91498
494 1 9.37567 12.7118 9.4334 -8.01727
495 1 12.5828 12.5825 9.4344 -8.90879
496 1 15.7245 12.5795 9.43452 -8.94954
497 1 18.8691 12.5794 9.43453 -8.94968
498 1 22.0139 15.7242 9.43453 -8.94963
499 1 3.14484 15.7242 9.43452 -8.94971
500 1 6.28953 15.7246 9.43443 -8.95211
501 1 9.43432 15.7295 9.43458 -8.97458
502 1 12.5796 15.7246 9.43421 -8.94838
503 1 15.7242 15.7242 9.43452 -8.94965
512 1 1.57228 11.007 11.007 -8.95049
513 1 4.71363 11.007 11.0066 -8.96228
514 1 7.79723 11.007 10.8798 -7.97412
519 1 1.5724 14.1518 11.0069 -8.9497
520 1 4.71674 14.152 11.0069 -8.95013
522 1 11.015 14.1588 11.0032 -8.88678
527 1 4.71727 17.2966 11.007 -8.94988
529 1 11.0072 17.2971 11.0069 -8.94963
351 1 22.0139 12.5794 2.47262e-08 -8.94963
377 1 18.8691 15.7242 2.8266e-08 -8.94963
389 1 15.7242 18.8691 4.79361e-08 -8.94963
383 1 6.28969 18.8691 6.89866e-08 -8.94963
687 3 8.64868 11.007 12.5792 3.14112
686 1 20.4415 20.4415 20.4415 -8.94963
685 1 18.8691 18.8691 18.8691 -8.94963
515 1 11.0718 11.007 11.1341 -7.97412
516 1 14.1554 11.007 11.0073 -8.96228
517 1 17.2968 11.007 11.0069 -8.95049
518 1 20.4415 11.007 11.007 -8.9497
684 1 17.2966 20.4415 20.4415 -8.94963
683 1 15.7242 18.8691 18.8691 -8.94963
521 1 7.85407 14.1588 11.0107 -8.88678
682 1 14.1518 20.4415 20.4415 -8.94963
523 1 14.1523 14.152 11.007 -8.95013
524 1 17.2967 14.1518 11.007 -8.9497
525 1 20.4415 14.1518 11.007 -8.94964
526 1 1.57242 17.2966 11.007 -8.94964
681 1 12.5794 18.8691 18.8691 -8.94965
528 1 7.86185 17.2971 11.007 -8.94963
680 1 11.007 20.4415 20.4415 -8.94963
530 1 14.1518 17.2966 11.007 -8.94988
679 1 9.43453 18.8691 18.8691 -8.94963
532 1 20.4415 17.2966 11.007 -8.94963
533 1 1.57242 20.4415 11.007 -8.94963
678 1 7.86211 20.4415 20.4415 -8.94963
677 1 6.28969 18.8691 18.8691 -8.94964
536 1 11.007 20.4415 11.007 -8.9497
537 1 14.1518 20.4415 11.007 -8.94964
676 1 4.71726 20.4415 20.4415 -8.94963
539 1 20.4415 20.4415 11.007 -8.94963
540 1 1.5723 11.007 14.1518 -8.95044
541 1 4.71397 11.007 14.1522 -8.96248
542 1 7.80166 11.007 14.282 -8.02522
543 1 11.0102 11.007 14.1603 -8.93314
544 1 14.1521 11.007 14.152 -8.95129
545 1 17.2967 11.007 14.1518 -8.94965
546 1 20.4415 11.007 14.1518 -8.94966
547 1 22.0139 12.5794 12.5794 -8.94968
548 1 1.57241 14.1518 14.1518 -8.94964
549 1 3.14454 12.5795 12.5794 -8.94954
550 1 4.71701 14.152 14.1519 -8.94921
551 1 6.28625 12.5825 12.5795 -8.90879
552 1 7.85998 14.1532 14.1543 -8.93579
553 1 9.49338 12.7118 12.5805 -8.01727
554 1 11.0129 14.1575 14.1578 -8.90225
555 1 12.5886 12.5858 12.5851 -8.91498
556 1 14.1524 14.1522 14.1522 -8.94779
557 1 15.7246 12.5795 12.5794 -8.95139
558 1 17.2967 14.1518 14.1518 -8.94971
559 1 18.8691 12.5794 12.5794 -8.94972
560 1 20.4415 14.1518 14.1518 -8.94964
561 1 1.5108e-07 15.7242 12.5794 -8.94963
562 1 1.57242 17.2966 14.1518 -8.94964
563 1 3.14484 15.7242 12.5794 -8.94965
564 1 4.71725 17.2967 14.1518 -8.94957
565 1 6.28945 15.7246 12.5797 -8.94838
566 1 7.86199 17.2968 14.1519 -8.94925
567 1 9.43473 15.7295 12.5793 -8.97458
568 1 11.0071 17.297 14.1519 -8.95026
569 1 12.5795 15.7246 12.5795 -8.95211
570 1 14.1518 17.2966 14.1518 -8.94981
571 1 15.7242 15.7242 12.5794 -8.94971
572 1 17.2966 17.2966 14.1518 -8.94964
573 1 18.8691 15.7242 12.5794 -8.94963
574 1 20.4415 17.2966 14.1518 -8.94963
575 1 22.0139 18.8691 12.5794 -8.94963
576 1 1.57242 20.4415 14.1518 -8.94963
577 1 3.14484 18.8691 12.5794 -8.94964
578 1 4.71726 20.4415 14.1518 -8.94964
579 1 6.28968 18.8691 12.5794 -8.94967
580 1 7.8621 20.4415 14.1518 -8.94965
581 1 9.43453 18.8693 12.5794 -8.951
582 1 11.007 20.4415 14.1518 -8.94969
583 1 12.5794 18.8691 12.5794 -8.94964
584 1 14.1518 20.4415 14.1518 -8.94963
585 1 15.7242 18.8691 12.5794 -8.94964
586 1 17.2966 20.4415 14.1518 -8.94963
587 1 18.8691 18.8691 12.5794 -8.94963
588 1 20.4415 20.4415 14.1518 -8.94963
589 1 1.57242 11.007 17.2966 -8.94961
590 1 4.71722 11.007 17.2967 -8.95137
591 1 7.86197 11.007 17.3019 -8.97315
592 1 11.0069 11.007 17.2969 -8.9526
593 1 14.1518 11.007 17.2966 -8.94962
594 1 17.2966 11.007 17.2966 -8.94964
595 1 20.4415 11.007 17.2966 -8.94963
596 1 22.0139 12.5794 15.7242 -8.94969
597 1 1.57241 14.1518 17.2966 -8.94965
598 1 3.14457 12.5795 15.7243 -8.95066
599 1 4.71696 14.1521 17.2969 -8.9468
600 1 6.28365 12.5853 15.73 -8.90102
601 1 7.86217 14.1518 17.2967 -8.95136
602 1 9.43641 12.5817 15.7257 -8.93455
603 1 11.0071 14.1519 17.2969 -8.9504
604 1 12.5798 12.5796 15.7247 -8.94965
605 1 14.1518 14.1518 17.2967 -8.94972
606 1 15.7242 12.5794 15.7242 -8.94981
607 1 17.2966 14.1518 17.2966 -8.94965
608 1 18.8691 12.5794 15.7242 -8.94964
609 1 20.4415 14.1518 17.2966 -8.94963
610 1 22.0139 15.7242 15.7242 -8.94963
611 1 1.57242 17.2966 17.2966 -8.94964
612 1 3.14484 15.7242 15.7242 -8.94974
613 1 4.71726 17.2967 17.2966 -8.94964
614 1 6.28957 15.7245 15.7243 -8.95039
615 1 7.86211 17.2966 17.2966 -8.94965
616 1 9.43447 15.7243 15.7242 -8.95137
617 1 11.0069 17.2966 17.2966 -8.94983
618 1 12.5797 15.7245 15.7245 -8.947
619 1 14.1518 17.2966 17.2966 -8.94951
620 1 15.7242 15.7242 15.7242 -8.94951
621 1 17.2966 17.2966 17.2966 -8.94963
622 1 18.8691 15.7242 15.7242 -8.94963
623 1 20.4415 17.2966 17.2966 -8.94963
624 1 4.30276e-09 18.8691 15.7242 -8.94963
625 1 1.57242 20.4415 17.2966 -8.94963
626 1 3.14484 18.8691 15.7242 -8.94963
627 1 4.71726 20.4415 17.2966 -8.94963
628 1 6.28968 18.8691 15.7242 -8.94966
629 1 7.86211 20.4415 17.2966 -8.94963
630 1 9.43453 18.8691 15.7242 -8.94964
631 1 11.007 20.4415 17.2966 -8.94963
632 1 12.5794 18.8691 15.7242 -8.94963
633 1 14.1518 20.4415 17.2966 -8.94963
634 1 15.7242 18.8691 15.7242 -8.94965
635 1 17.2966 20.4415 17.2966 -8.94963
636 1 18.8691 18.8691 15.7242 -8.94963
637 1 20.4415 20.4415 17.2966 -8.94963
638 1 1.57242 11.007 20.4415 -8.94964
639 1 4.71726 11.007 20.4415 -8.94962
640 1 7.86211 11.007 20.4417 -8.95101
641 1 11.0069 11.007 20.4415 -8.94979
642 1 14.1518 11.007 20.4415 -8.94963
643 1 17.2966 11.007 20.4415 -8.94963
644 1 20.4415 11.007 20.4415 -8.94963
645 1 4.17379e-07 12.5794 18.8691 -8.94963
646 1 1.57242 14.1518 20.4415 -8.94965
647 1 3.14485 12.5794 18.869 -8.9498
648 1 4.71726 14.1518 20.4415 -8.94962
649 1 6.28955 12.5795 18.8694 -8.95024
650 1 7.86211 14.1518 20.4415 -8.94964
651 1 9.43465 12.5795 18.8692 -8.94904
652 1 11.007 14.1518 20.4415 -8.94965
653 1 12.5794 12.5794 18.8691 -8.94977
654 1 14.1518 14.1518 20.4415 -8.94964
655 1 15.7242 12.5794 18.8691 -8.94965
656 1 17.2966 14.1518 20.4415 -8.94963
657 1 18.8691 12.5794 18.8691 -8.94963
658 1 20.4415 14.1518 20.4415 -8.94963
659 1 22.0139 15.7242 18.8691 -8.94963
660 1 1.57242 17.2966 20.4415 -8.94963
661 1 3.14483 15.7242 18.8691 -8.94949
662 1 4.71726 17.2966 20.4415 -8.94965
663 1 6.28969 15.7242 18.869 -8.94983
664 1 7.86211 17.2966 20.4415 -8.94963
665 1 9.43453 15.7242 18.8691 -8.94965
666 1 11.007 17.2966 20.4415 -8.94964
667 1 12.5794 15.7242 18.8691 -8.94964
668 1 14.1518 17.2966 20.4415 -8.94963
669 1 15.7242 15.7242 18.8691 -8.94964
670 1 17.2966 17.2966 20.4415 -8.94963
671 1 18.8691 15.7242 18.8691 -8.94963
672 1 20.4415 17.2966 20.4415 -8.94963
673 1 22.0139 18.8691 18.8691 -8.94963
674 1 1.57242 20.4415 20.4415 -8.94963
675 1 3.14484 18.8691 18.8691 -8.94963
391 1 18.8691 18.8691 22.0139 -8.94963
353 1 3.14484 12.5794 22.0139 -8.94963
359 1 12.5794 12.5794 22.0139 -8.94969
369 1 6.28969 15.7242 22.0139 -8.94963
375 1 15.7242 15.7242 22.0139 -8.94963
363 1 18.8691 12.5794 22.0139 -8.94963
365 1 2.85971e-08 15.7242 22.0139 -8.94963
381 1 3.14484 18.8691 22.0139 -8.94963
387 1 12.5794 18.8691 22.0139 -8.94963
