ITEM: TIMESTEP
117
ITEM: NUMBER OF ATOMS
688
ITEM: BOX BOUNDS pp pp pp
0.0000000000000000e+00 2.2013900999999997e+01
0.0000000000000000e+00 2.2013900999999997e+01
0.0000000000000000e+00 2.2013900999999997e+01
ITEM: ATOMS id type x y z c_pot
1 1 22.0133 -1.40211e-14 3.08632e-05 -8.94896
2 1 1.57126 1.57166 1.57172 -8.94908
193 1 11.065 7.81805 10.9967 -8.80573
4 1 4.71637 1.57155 1.57157 -8.94946
175 1 18.8691 9.43443 9.43428 -8.9478
6 1 7.86184 1.57157 1.57167 -8.94933
7 1 9.43453 -3.65167e-14 -2.40625e-16 -8.94941
8 1 11.0073 1.57158 1.57174 -8.94937
9 1 12.5798 -2.78932e-14 5.85315e-05 -8.94938
10 1 14.1526 1.57157 1.57184 -8.9494
174 1 15.7221 9.43629 9.43429 -8.93962
12 1 17.2977 1.57152 1.57185 -8.94919
191 1 4.70339 7.85796 11.0115 -8.96182
14 1 20.4413 1.57187 1.5721 -8.94917
15 1 22.0132 3.14383 7.42525e-05 -8.94909
16 1 1.57095 4.71591 1.57171 -8.94973
190 1 1.56854 7.8613 11.0078 -8.95226
18 1 4.71535 4.71508 1.57045 -8.94942
173 1 12.5571 9.44796 9.43551 -8.90233
20 1 7.86154 4.71523 1.57086 -8.94907
21 1 9.43453 3.14345 7.25251e-14 -8.94938
22 1 11.0075 4.71524 1.57092 -8.94926
188 1 17.2995 4.71505 11.0065 -8.94868
24 1 14.1534 4.71515 1.57079 -8.95013
172 1 9.37052 9.18194 9.43027 -8.11876
26 1 17.2985 4.71536 1.57099 -8.9483
171 1 6.24663 9.39394 9.3994 -8.88559
28 1 20.4416 4.71625 1.57186 -8.94943
186 1 11.0097 4.7078 11.0057 -8.96133
30 1 1.57109 7.86139 1.57192 -8.94916
31 1 3.14316 6.28831 0.000920738 -8.95009
32 1 4.71606 7.86159 1.57172 -8.95068
170 1 3.13326 9.43247 9.43037 -8.95833
34 1 7.86185 7.8612 1.5703 -8.95304
35 1 9.43453 6.28796 -1.23387e-12 -8.94962
36 1 11.0071 7.86083 1.56961 -8.95132
37 1 12.5803 6.28824 -0.00014448 -8.95075
38 1 14.1544 7.86027 1.5684 -8.95141
169 1 22.011 9.43437 9.43406 -8.95136
40 1 17.2987 7.86095 1.57076 -8.94907
168 1 18.8706 6.28835 9.43409 -8.95023
42 1 20.4417 7.86144 1.57177 -8.9493
167 1 15.7304 6.2859 9.43227 -8.94799
166 1 12.5914 6.27874 9.42202 -8.92415
45 1 6.28899 9.43451 0.00146502 -8.95119
46 1 9.43453 9.43475 -8.54669e-14 -8.94909
165 1 9.43038 6.28656 9.42983 -9.00325
48 1 15.7261 9.43398 -0.00112745 -8.94929
184 1 4.71201 4.71221 11.0092 -8.94648
50 1 22.0131 -2.84382e-14 3.14416 -8.94922
51 1 1.57075 1.57129 4.716 -8.94925
52 1 3.14352 -1.57776e-13 3.14359 -8.94944
53 1 4.7155 1.57056 4.71536 -8.94987
54 1 6.28906 3.41173e-13 3.14362 -8.94949
55 1 7.86167 1.57075 4.7156 -8.94962
56 1 9.43461 5.49069e-13 3.14371 -8.94945
57 1 11.0075 1.57092 4.7157 -8.94949
58 1 12.58 6.30825e-14 3.14384 -8.9494
59 1 14.153 1.57087 4.71602 -8.95074
60 1 15.7252 -6.92964e-14 3.14401 -8.95006
61 1 17.2977 1.57163 4.71649 -8.94921
62 1 18.8694 -7.58735e-15 3.14442 -8.94929
63 1 20.4412 1.57182 4.7167 -8.94942
64 1 22.0126 3.1436 3.14384 -8.94907
65 1 1.56879 4.71443 4.7146 -8.94835
66 1 3.14244 3.14256 3.14258 -8.94821
67 1 4.71146 4.71123 4.71117 -8.94462
68 1 6.28842 3.14247 3.1427 -8.94945
69 1 7.86032 4.71194 4.71284 -8.94893
70 1 9.43451 3.14263 3.14295 -8.94921
71 1 11.0081 4.71262 4.71299 -8.94723
72 1 12.5804 3.14267 3.14306 -8.94897
73 1 14.1565 4.7111 4.7122 -8.9497
74 1 15.7264 3.14225 3.1429 -8.94928
75 1 17.2984 4.71559 4.71608 -8.95072
76 1 18.8696 3.1438 3.14414 -8.94981
77 1 20.4408 4.71605 4.71635 -8.94982
78 1 22.013 6.28868 3.14376 -8.94971
79 1 1.56974 7.86106 4.71509 -8.94954
80 1 3.14218 6.28789 3.1423 -8.95078
81 1 4.71263 7.85997 4.71182 -8.95347
82 1 6.28614 6.28567 3.13895 -8.94987
83 1 7.85573 7.85384 4.70448 -8.95339
84 1 9.43424 6.28607 3.14049 -8.94771
85 1 11.0084 7.85649 4.70635 -8.95335
86 1 12.5816 6.2863 3.13987 -8.95029
87 1 14.1656 7.85028 4.70367 -8.93031
88 1 15.7293 6.28513 3.14006 -8.94471
89 1 17.3015 7.85981 4.71442 -8.95068
90 1 18.8707 6.28821 3.14342 -8.94957
91 1 20.4418 7.86129 4.71605 -8.95005
92 1 -0.000728136 9.43414 3.14364 -8.9494
93 1 3.14265 9.43401 3.14274 -8.94874
94 1 6.28901 9.43502 3.14282 -8.95081
95 1 9.43526 9.43433 3.14332 -8.95116
96 1 12.5832 9.43323 3.13622 -8.95896
97 1 15.729 9.43297 3.1403 -8.94752
98 1 18.8709 9.43394 3.1432 -8.94918
99 1 22.0131 -3.79711e-14 6.28921 -8.94956
100 1 1.57095 1.57144 7.86174 -8.94954
101 1 3.14304 2.26936e-13 6.28855 -8.9498
102 1 4.715 1.56995 7.86109 -8.95045
103 1 6.28859 -4.44388e-13 6.28837 -8.95054
104 1 7.86137 1.56981 7.86112 -8.95139
105 1 9.43466 -7.74881e-12 6.28845 -8.95016
106 1 11.0072 1.57091 7.86127 -8.94944
107 1 12.58 2.07643e-13 6.2888 -8.95034
108 1 14.1534 1.57081 7.86091 -8.94976
109 1 15.7255 2.29087e-14 6.28877 -8.94943
110 1 17.2979 1.57158 7.86142 -8.94933
111 1 18.8696 -1.38531e-14 6.2892 -8.9494
112 1 20.4414 1.57182 7.86177 -8.9494
113 1 -0.00134253 3.14345 6.28887 -8.94963
114 1 1.56887 4.7146 7.86103 -8.95006
115 1 3.1413 3.14117 6.28723 -8.94884
116 1 4.70938 4.70814 7.85737 -8.94719
117 1 6.28687 3.13937 6.28663 -8.95105
118 1 7.85811 4.70587 7.85821 -8.95726
119 1 9.43466 3.14062 6.28715 -8.95029
120 1 11.0077 4.71238 7.85921 -8.95139
121 1 12.5807 3.14112 6.28774 -8.95258
122 1 14.1571 4.71216 7.85803 -8.94352
123 1 15.7265 3.14258 6.28805 -8.94811
124 1 17.2992 4.71525 7.86083 -8.94906
125 1 18.8698 3.14371 6.28895 -8.94933
126 1 20.4412 4.71597 7.86159 -8.94984
127 1 22.011 6.28792 6.28813 -8.95027
128 1 1.56542 7.85954 7.85954 -8.95274
129 1 3.13564 6.28303 6.28322 -8.94598
130 1 4.69476 7.84653 7.84753 -8.94047
131 1 6.27474 6.274 6.27407 -8.9299
132 1 7.81993 7.82069 7.8229 -8.85728
133 1 9.43397 6.2783 6.28138 -8.9499
134 1 11.0287 7.84812 7.82947 -8.90921
135 1 12.589 6.27641 6.27782 -8.95363
136 1 14.1571 7.86196 7.86302 -8.9555
137 1 15.7279 6.28765 6.28818 -8.95256
138 1 17.2986 7.86175 7.86222 -8.95014
139 1 18.8697 6.28875 6.28909 -8.95013
140 1 20.4404 7.86142 7.8616 -8.95046
141 1 22.012 9.43409 6.28812 -8.94951
142 1 3.13947 9.43378 6.28534 -8.94819
143 1 6.28351 9.43523 6.2815 -8.96214
144 1 9.4191 9.41019 6.28221 -8.90736
145 1 12.6199 9.40261 6.25217 -8.8554
146 1 15.735 9.43222 6.28472 -8.95767
147 1 18.8713 9.43413 6.28857 -8.95167
148 1 -0.00067682 -2.4108e-14 9.43445 -8.94941
149 1 3.14323 7.96229e-14 9.4346 -8.9494
150 1 6.28841 -7.71977e-12 9.43452 -8.95125
151 1 9.43445 -9.34809e-13 9.43407 -8.94892
152 1 12.5803 -3.05922e-12 9.43384 -8.95028
153 1 15.7257 1.81959e-14 9.43385 -8.94937
154 1 18.8697 -9.3303e-15 9.43425 -8.94943
155 1 -0.00106844 3.14358 9.43442 -8.94928
156 1 3.14208 3.14224 9.43463 -8.9494
157 1 6.28626 3.13841 9.43414 -8.95254
158 1 9.43412 3.14174 9.43331 -8.94668
159 1 12.5817 3.1409 9.43261 -8.9505
160 1 15.7268 3.14247 9.43338 -8.94909
161 1 18.87 3.14362 9.43413 -8.94935
162 1 22.0118 6.28834 9.43447 -8.9503
163 1 3.1373 6.28519 9.43415 -8.95116
164 1 6.27178 6.26831 9.42738 -8.9441
177 1 4.71531 1.57068 11.0077 -8.94915
178 1 7.8617 1.5704 11.0073 -8.95128
181 1 17.298 1.57153 11.0067 -8.94936
11 1 15.725 -1.08797e-14 0.000110629 -8.94949
19 1 6.28903 3.14348 -6.93135e-05 -8.9493
25 1 15.7255 3.14342 0.000117781 -8.94947
43 1 22.0131 9.43417 0.000266689 -8.94935
41 1 18.8698 6.28879 -0.000218584 -8.94932
176 1 1.57103 1.57153 11.0072 -8.94936
343 1 18.8698 9.43414 18.8703 -8.9494
342 1 15.7264 9.43401 18.8712 -8.94874
179 1 11.0074 1.5704 11.0066 -8.95128
180 1 14.1537 1.57068 11.0062 -8.94915
341 1 12.58 9.43502 18.8711 -8.95081
182 1 20.4415 1.57181 11.007 -8.94943
183 1 1.56951 4.71505 11.0074 -8.94868
340 1 9.43379 9.43433 18.8706 -8.95116
185 1 7.85936 4.7078 11.0082 -8.96133
339 1 6.28585 9.43323 18.8777 -8.95896
187 1 14.157 4.71221 11.0047 -8.94648
338 1 3.14005 9.43297 18.8736 -8.94752
189 1 20.4415 4.7159 11.007 -8.94955
337 1 -0.00188689 9.43394 18.8707 -8.94918
336 1 20.4412 7.86144 20.4421 -8.9493
192 1 7.80403 7.81805 11.0172 -8.80572
335 1 18.87 6.28868 18.8701 -8.94971
194 1 14.1657 7.85796 11.0024 -8.96182
195 1 17.3005 7.8613 11.0061 -8.95226
196 1 20.4415 7.86156 11.007 -8.95025
197 1 -0.000627489 -4.06396e-14 12.5797 -8.94943
198 1 1.57116 1.57158 14.1525 -8.94933
199 1 3.14331 2.94591e-13 12.58 -8.94937
200 1 4.71564 1.57081 14.153 -8.94976
201 1 6.28875 -9.68389e-14 12.5801 -8.95028
202 1 7.86183 1.57091 14.1526 -8.94944
203 1 9.43461 -1.02127e-11 12.5798 -8.94892
204 1 11.0077 1.56981 14.1528 -8.95139
205 1 12.5806 1.72885e-13 12.5794 -8.95125
206 1 14.1541 1.56995 14.1528 -8.95045
207 1 15.7258 6.44525e-14 12.5793 -8.9494
208 1 17.2981 1.57144 14.1522 -8.94954
209 1 18.8697 -1.59894e-14 12.5794 -8.94941
210 1 20.4416 1.57182 14.1521 -8.9494
211 1 22.013 3.14362 12.5798 -8.94935
212 1 1.56983 4.71525 14.1531 -8.94906
213 1 3.14229 3.14247 12.5805 -8.94909
214 1 4.71198 4.71216 14.1559 -8.94352
215 1 6.28735 3.1409 12.5813 -8.9505
216 1 7.8614 4.71238 14.1547 -8.95139
217 1 9.43494 3.14174 12.5806 -8.94668
218 1 11.0109 4.70587 14.1557 -8.95726
219 1 12.5828 3.13841 12.5798 -8.95254
220 1 14.1597 4.70814 14.1565 -8.94719
221 1 15.727 3.14224 12.5793 -8.9494
222 1 17.3002 4.7146 14.1529 -8.95006
223 1 18.8701 3.14358 12.5795 -8.94928
224 1 20.4418 4.71597 14.1523 -8.94984
225 1 -0.00154803 6.28835 12.5798 -8.95023
226 1 1.57045 7.86175 14.1517 -8.95014
227 1 3.13866 6.2859 12.5816 -8.94799
228 1 4.71192 7.86196 14.1509 -8.9555
229 1 6.27762 6.27874 12.5919 -8.92415
230 1 7.84039 7.84812 14.1844 -8.90922
231 1 9.43868 6.28656 12.5841 -9.00325
232 1 11.0491 7.82069 14.191 -8.8573
233 1 12.5973 6.26831 12.5865 -8.9441
234 1 14.1743 7.84653 14.1664 -8.94047
235 1 15.7318 6.28519 12.5797 -8.95116
236 1 17.3036 7.85954 14.1544 -8.95274
237 1 18.8712 6.28834 12.5794 -8.9503
238 1 20.4426 7.86142 14.1523 -8.95046
239 1 22.0139 9.43443 12.5796 -8.9478
240 1 3.14699 9.43629 12.5796 -8.93962
241 1 6.31193 9.44796 12.5784 -8.90233
242 1 9.49852 9.18196 12.5836 -8.11869
243 1 12.6224 9.39394 12.6145 -8.88559
244 1 15.7358 9.43247 12.5835 -8.95833
245 1 18.872 9.43437 12.5798 -8.95136
246 1 -0.00051427 -2.75733e-14 15.7247 -8.9494
247 1 1.57138 1.57163 17.2974 -8.94921
248 1 3.14355 -1.51859e-13 15.7251 -8.94943
249 1 4.71607 1.57087 17.2979 -8.95074
250 1 6.28906 3.76256e-13 15.7251 -8.95034
251 1 7.86156 1.57092 17.2982 -8.94949
252 1 9.43439 5.66627e-13 15.7255 -8.95016
253 1 11.0074 1.57075 17.2983 -8.94962
254 1 12.5805 1.17078e-13 15.7255 -8.95054
255 1 14.1536 1.57056 17.2985 -8.94987
256 1 15.726 -6.76375e-14 15.7254 -8.9498
257 1 17.2983 1.57129 17.2979 -8.94925
258 1 18.8698 -9.78114e-15 15.7247 -8.94956
259 1 20.4417 1.57182 17.2972 -8.94942
260 1 -0.000742264 3.14371 15.725 -8.94933
261 1 1.57062 4.71559 17.2978 -8.95072
262 1 3.14255 3.14258 15.7258 -8.94811
263 1 4.71253 4.7111 17.3017 -8.9497
264 1 6.28832 3.14112 15.7262 -8.95258
265 1 7.86095 4.71262 17.3009 -8.94723
266 1 9.4344 3.14062 15.7268 -8.95029
267 1 11.0087 4.71194 17.3011 -8.94893
268 1 12.5822 3.13937 15.7273 -8.95105
269 1 14.1576 4.71123 17.3027 -8.94462
270 1 15.7278 3.14117 15.7267 -8.94884
271 1 17.3003 4.71443 17.2993 -8.94835
272 1 18.8704 3.14345 15.725 -8.94963
273 1 20.4421 4.71605 17.2976 -8.94982
274 1 22.0132 6.28875 15.7248 -8.95013
275 1 1.56759 7.85981 17.2995 -8.95068
276 1 3.14111 6.28765 15.7257 -8.95256
277 1 4.70348 7.85028 17.3102 -8.93031
278 1 6.28002 6.27641 15.7361 -8.95363
279 1 7.86064 7.85649 17.3075 -8.95335
280 1 9.43509 6.2783 15.7325 -8.9499
281 1 11.0133 7.85384 17.3094 -8.95339
282 1 12.5943 6.274 15.7398 -8.9299
283 1 14.1564 7.85997 17.3021 -8.95347
284 1 15.7334 6.28303 15.7307 -8.94598
285 1 17.2993 7.86106 17.2988 -8.94954
286 1 18.872 6.28792 15.7258 -8.95027
287 1 20.4412 7.86129 17.2978 -8.95005
288 1 22.0117 9.43413 15.7253 -8.95167
289 1 3.13404 9.43222 15.7292 -8.95767
290 1 6.24912 9.40261 15.7617 -8.8554
291 1 9.44996 9.41019 15.7317 -8.90736
292 1 12.5855 9.43523 15.7324 -8.96214
293 1 15.7296 9.43378 15.7286 -8.94819
294 1 18.871 9.43409 15.7258 -8.94951
295 1 22.0135 -1.39438e-14 18.8695 -8.94929
296 1 1.57139 1.57152 20.4421 -8.94919
297 1 3.14382 -2.57456e-14 18.8699 -8.95006
298 1 4.7165 1.57157 20.4421 -8.9494
299 1 6.28905 -4.33164e-14 18.8701 -8.9494
300 1 7.8618 1.57158 20.4422 -8.94937
301 1 9.43445 -4.32345e-14 18.8702 -8.94945
302 1 11.0072 1.57157 20.4422 -8.94933
303 1 12.58 -2.50129e-14 18.8703 -8.94949
304 1 14.1527 1.57155 20.4423 -8.94946
305 1 15.7255 -1.15919e-14 18.8703 -8.94944
306 1 17.2978 1.57166 20.4422 -8.94908
307 1 18.8699 -6.86353e-15 18.8697 -8.94922
308 1 20.4417 1.57187 20.4418 -8.94917
309 1 22.0134 3.1438 18.8698 -8.94981
310 1 1.57053 4.71536 20.4429 -8.9483
311 1 3.14269 3.14225 18.871 -8.94928
312 1 4.71567 4.71515 20.4431 -8.95013
313 1 6.28868 3.14267 18.8708 -8.94897
314 1 7.86161 4.71524 20.443 -8.94926
315 1 9.43454 3.14263 18.8709 -8.94921
316 1 11.0075 4.71523 20.443 -8.94907
317 1 12.5806 3.14247 18.8712 -8.94945
318 1 14.1537 4.71508 20.4435 -8.94942
319 1 15.7266 3.14256 18.8713 -8.94821
320 1 17.2981 4.71591 20.4422 -8.94973
321 1 18.8704 3.1436 18.8701 -8.94907
322 1 20.4414 4.71625 20.442 -8.94943
323 1 22.0122 6.28821 18.8705 -8.94957
324 1 1.57035 7.86095 20.4431 -8.94907
325 1 3.13978 6.28513 18.8738 -8.94471
326 1 4.7147 7.86027 20.4455 -8.95141
327 1 6.28744 6.2863 18.874 -8.95029
328 1 7.86191 7.86083 20.4443 -8.95132
329 1 9.43481 6.28607 18.8734 -8.94771
330 1 11.0072 7.8612 20.4436 -8.95304
331 1 12.5829 6.28567 18.875 -8.94987
332 1 14.153 7.86159 20.4422 -8.95068
333 1 15.7269 6.28789 18.8716 -8.95078
334 1 17.298 7.86139 20.442 -8.94916
5 1 6.28924 -4.27416e-14 22.0138 -8.94938
47 1 12.5801 9.43451 22.0124 -8.95119
44 1 3.14295 9.43398 22.015 -8.94929
39 1 15.7259 6.28831 22.013 -8.95009
27 1 18.8698 3.14383 22.0138 -8.94909
33 1 6.28877 6.28824 22.014 -8.95075
3 1 3.14406 -2.43119e-14 22.0138 -8.94949
13 1 18.8697 -5.36627e-15 22.0139 -8.94896
17 1 3.14354 3.14342 22.0138 -8.94947
23 1 12.58 3.14348 22.014 -8.9493
29 1 -0.000764363 6.28879 22.0141 -8.94932
49 1 18.8699 9.43417 22.0136 -8.94935
344 1 1.57108 11.007 1.57192 -8.94941
345 1 4.71576 11.007 1.57188 -8.95033
346 1 7.86224 11.007 1.57268 -8.94702
347 1 11.0075 11.007 1.57171 -8.94593
348 1 14.1551 11.007 1.56823 -8.94953
349 1 17.2988 11.007 1.57067 -8.94938
350 1 20.4418 11.007 1.57173 -8.94938
688 3 10.2131 11.007 9.44106 2.28831
352 1 1.57109 14.1525 1.57192 -8.94916
511 1 18.87 18.8703 9.43413 -8.94935
354 1 4.71606 14.1523 1.57172 -8.95068
355 1 6.28899 12.5794 0.00146502 -8.95119
356 1 7.86185 14.1527 1.5703 -8.95304
357 1 9.43453 12.5792 6.90322e-14 -8.94909
358 1 11.0071 14.1531 1.56961 -8.95132
510 1 15.7268 18.8714 9.43338 -8.94909
360 1 14.1544 14.1536 1.5684 -8.95141
361 1 15.7261 12.5799 -0.00112745 -8.94929
362 1 17.2987 14.153 1.57076 -8.94907
538 1 17.298 20.4424 11.0067 -8.94936
364 1 20.4417 14.1525 1.57177 -8.9493
535 1 7.8617 20.4435 11.0073 -8.95128
366 1 1.57095 17.298 1.57171 -8.94973
367 1 3.14316 15.7256 0.000920738 -8.95009
368 1 4.71535 17.2988 1.57045 -8.94942
509 1 12.5817 18.873 9.43261 -8.9505
370 1 7.86154 17.2987 1.57086 -8.94907
371 1 9.43453 15.7259 1.24555e-12 -8.94962
372 1 11.0075 17.2987 1.57092 -8.94926
373 1 12.5803 15.7257 -0.00014448 -8.95075
374 1 14.1534 17.2987 1.57079 -8.95013
508 1 9.43412 18.8722 9.43331 -8.94668
376 1 17.2985 17.2985 1.57099 -8.9483
507 1 6.28626 18.8755 9.43414 -8.95254
378 1 20.4416 17.2977 1.57186 -8.94943
379 1 22.0132 18.8701 7.42525e-05 -8.94909
380 1 1.57126 20.4422 1.57172 -8.94908
534 1 4.71531 20.4432 11.0077 -8.94915
382 1 4.71637 20.4424 1.57157 -8.94946
506 1 3.14208 18.8717 9.43463 -8.9494
384 1 7.86184 20.4423 1.57167 -8.94933
385 1 9.43453 18.8705 -7.25001e-14 -8.94938
386 1 11.0073 20.4423 1.57174 -8.94937
531 1 17.2995 17.2988 11.0065 -8.94868
388 1 14.1526 20.4423 1.57184 -8.9494
505 1 -0.00106844 18.8703 9.43442 -8.94928
390 1 17.2977 20.4424 1.57185 -8.94919
504 1 18.8706 15.7256 9.43409 -8.95023
392 1 20.4413 20.442 1.5721 -8.94917
393 1 1.56996 11.007 4.71488 -8.9494
394 1 4.71326 11.007 4.71205 -8.94619
395 1 7.86429 11.007 4.71986 -8.94149
396 1 11.012 11.007 4.72105 -9.00222
397 1 14.1633 11.007 4.70611 -8.9418
398 1 17.3017 11.007 4.71392 -8.94895
399 1 20.442 11.007 4.71582 -8.94986
400 1 -0.000728136 12.5798 3.14364 -8.9494
401 1 1.56974 14.1528 4.71509 -8.94954
402 1 3.14265 12.5799 3.14274 -8.94874
403 1 4.71263 14.1539 4.71182 -8.95347
404 1 6.28901 12.5789 3.14282 -8.95081
405 1 7.85573 14.1601 4.70448 -8.95339
406 1 9.43526 12.5796 3.14332 -8.95116
407 1 11.0084 14.1574 4.70635 -8.95335
408 1 12.5832 12.5807 3.13622 -8.95896
409 1 14.1656 14.1636 4.70367 -8.93031
410 1 15.729 12.5809 3.1403 -8.94752
411 1 17.3015 14.1541 4.71442 -8.95068
412 1 18.8709 12.58 3.1432 -8.94918
413 1 20.4418 14.1526 4.71605 -8.95005
414 1 22.013 15.7252 3.14376 -8.94971
415 1 1.56879 17.2995 4.7146 -8.94835
416 1 3.14218 15.726 3.1423 -8.95078
417 1 4.71146 17.3027 4.71117 -8.94462
418 1 6.28614 15.7282 3.13895 -8.94987
419 1 7.86032 17.302 4.71284 -8.94893
420 1 9.43424 15.7278 3.14049 -8.94771
421 1 11.0081 17.3013 4.71299 -8.94723
422 1 12.5816 15.7276 3.13987 -8.95029
423 1 14.1565 17.3028 4.7122 -8.9497
424 1 15.7293 15.7288 3.14006 -8.94471
425 1 17.2984 17.2983 4.71608 -8.95072
426 1 18.8707 15.7257 3.14342 -8.94957
427 1 20.4408 17.2978 4.71635 -8.94982
428 1 22.0126 18.8703 3.14384 -8.94907
429 1 1.57075 20.4426 4.716 -8.94925
430 1 3.14244 18.8713 3.14258 -8.94821
431 1 4.7155 20.4433 4.71536 -8.94987
432 1 6.28842 18.8714 3.1427 -8.94945
433 1 7.86167 20.4432 4.7156 -8.94962
434 1 9.43451 18.8713 3.14295 -8.94921
435 1 11.0075 20.443 4.7157 -8.94949
436 1 12.5804 18.8712 3.14306 -8.94897
437 1 14.153 20.443 4.71602 -8.95074
438 1 15.7264 18.8717 3.1429 -8.94928
439 1 17.2977 20.4423 4.71649 -8.94921
440 1 18.8696 18.8701 3.14414 -8.94981
441 1 20.4412 20.4421 4.7167 -8.94942
442 1 1.56776 11.007 7.85921 -8.94685
443 1 4.71059 11.007 7.85358 -8.93489
444 1 7.8796 11.007 7.87854 -8.94357
445 1 11.0816 11.007 7.63495 -8.12459
446 1 14.1596 11.007 7.85343 -8.97098
447 1 17.2991 11.007 7.8616 -8.9508
448 1 20.4407 11.007 7.86143 -8.94962
449 1 22.012 12.5798 6.28812 -8.94951
450 1 1.56542 14.1544 7.85954 -8.95274
451 1 3.13947 12.5801 6.28534 -8.94819
452 1 4.69476 14.1674 7.84753 -8.94047
453 1 6.28351 12.5787 6.2815 -8.96214
454 1 7.81993 14.1932 7.8229 -8.85731
455 1 9.4191 12.6037 6.28221 -8.90736
456 1 11.0287 14.1658 7.82947 -8.90922
457 1 12.6199 12.6113 6.25217 -8.8554
458 1 14.1571 14.1519 7.86302 -8.9555
459 1 15.735 12.5817 6.28472 -8.95767
460 1 17.2986 14.1521 7.86222 -8.95014
461 1 18.8713 12.5798 6.28857 -8.95167
462 1 20.4404 14.1525 7.8616 -8.95046
463 1 22.011 15.726 6.28813 -8.95027
464 1 1.56887 17.2993 7.86103 -8.95006
465 1 3.13564 15.7309 6.28322 -8.94598
466 1 4.70938 17.3058 7.85737 -8.94719
467 1 6.27474 15.7399 6.27407 -8.9299
468 1 7.85811 17.308 7.85821 -8.95726
469 1 9.43397 15.7356 6.28138 -8.9499
470 1 11.0077 17.3015 7.85921 -8.95139
471 1 12.589 15.7375 6.27782 -8.95363
472 1 14.1571 17.3017 7.85803 -8.94352
473 1 15.7279 15.7262 6.28818 -8.95256
474 1 17.2992 17.2986 7.86083 -8.94906
475 1 18.8697 15.7252 6.28909 -8.95013
476 1 20.4412 17.2979 7.86159 -8.94984
477 1 -0.00134253 18.8705 6.28887 -8.94963
478 1 1.57095 20.4425 7.86174 -8.94954
479 1 3.1413 18.8727 6.28723 -8.94884
480 1 4.715 20.444 7.86109 -8.95045
481 1 6.28687 18.8745 6.28663 -8.95105
482 1 7.86137 20.4441 7.86112 -8.95139
483 1 9.43466 18.8733 6.28715 -8.95029
484 1 11.0072 20.443 7.86127 -8.94944
485 1 12.5807 18.8728 6.28774 -8.95258
486 1 14.1534 20.4431 7.86091 -8.94976
487 1 15.7265 18.8713 6.28805 -8.94811
488 1 17.2979 20.4423 7.86142 -8.94933
489 1 18.8698 18.8702 6.28895 -8.94933
490 1 20.4414 20.4421 7.86177 -8.9494
491 1 22.011 12.5795 9.43406 -8.95136
492 1 3.13326 12.5814 9.43037 -8.95833
493 1 6.24663 12.62 9.3994 -8.88558
494 1 9.37054 12.8319 9.43027 -8.11863
495 1 12.5571 12.5659 9.43551 -8.90233
496 1 15.7221 12.5776 9.43429 -8.93962
497 1 18.8691 12.5795 9.43428 -8.9478
498 1 22.0118 15.7256 9.43447 -8.9503
499 1 3.1373 15.7287 9.43415 -8.95116
500 1 6.27178 15.7456 9.42738 -8.9441
501 1 9.43038 15.7273 9.42983 -9.00325
502 1 12.5914 15.7352 9.42202 -8.92415
503 1 15.7304 15.728 9.43227 -8.94799
512 1 1.57073 11.007 11.0073 -8.94857
513 1 4.71544 11.007 10.9975 -8.96786
514 1 7.80233 11.007 10.7634 -8.03095
519 1 1.56854 14.1526 11.0078 -8.95226
520 1 4.70339 14.1559 11.0115 -8.96182
522 1 11.065 14.1958 10.9967 -8.80573
527 1 4.71201 17.3017 11.0092 -8.94648
529 1 11.0097 17.3061 11.0057 -8.96133
351 1 22.0131 12.5797 0.000266689 -8.94935
377 1 18.8698 15.7251 -0.000218584 -8.94932
389 1 15.7255 18.8705 0.000117781 -8.94947
383 1 6.28903 18.8704 -6.93135e-05 -8.9493
687 3 8.65594 11.007 12.5728 2.28831
686 1 20.4417 20.442 20.4418 -8.94917
685 1 18.8704 18.8703 18.8701 -8.94907
515 1 11.0667 11.007 11.2505 -8.03095
516 1 14.1536 11.007 11.0164 -8.96786
517 1 17.2983 11.007 11.0066 -8.94857
518 1 20.4415 11.007 11.007 -8.94883
684 1 17.2978 20.4422 20.4422 -8.94908
683 1 15.7266 18.8713 18.8713 -8.94821
521 1 7.80403 14.1958 11.0172 -8.80575
682 1 14.1527 20.4424 20.4423 -8.94946
523 1 14.1657 14.1559 11.0024 -8.96182
524 1 17.3005 14.1526 11.0061 -8.95226
525 1 20.4415 14.1523 11.007 -8.95025
526 1 1.56951 17.2988 11.0074 -8.94868
681 1 12.5806 18.8714 18.8712 -8.94945
528 1 7.85936 17.3061 11.0082 -8.96133
680 1 11.0072 20.4423 20.4422 -8.94933
530 1 14.157 17.3017 11.0047 -8.94648
679 1 9.43454 18.8713 18.8709 -8.94921
532 1 20.4415 17.298 11.007 -8.94955
533 1 1.57103 20.4424 11.0072 -8.94936
678 1 7.8618 20.4423 20.4422 -8.94937
677 1 6.28868 18.8712 18.8708 -8.94897
536 1 11.0074 20.4435 11.0066 -8.95128
537 1 14.1537 20.4432 11.0062 -8.94915
676 1 4.7165 20.4423 20.4421 -8.9494
539 1 20.4415 20.4421 11.007 -8.94943
540 1 1.56999 11.007 14.1523 -8.9508
541 1 4.70942 11.007 14.1605 -8.97098
542 1 7.78751 11.007 14.3789 -8.12459
543 1 10.9895 11.007 14.1354 -8.94357
544 1 14.1585 11.007 14.1603 -8.93489
545 1 17.3013 11.007 14.1547 -8.94685
546 1 20.4422 11.007 14.1525 -8.94962
547 1 22.0139 12.5795 12.5796 -8.9478
548 1 1.57045 14.1521 14.1517 -8.95014
549 1 3.14699 12.5776 12.5796 -8.93962
550 1 4.71192 14.1519 14.1509 -8.9555
551 1 6.31193 12.5659 12.5784 -8.90233
552 1 7.84039 14.1658 14.1844 -8.90922
553 1 9.49852 12.8319 12.5836 -8.11869
554 1 11.0491 14.1932 14.191 -8.8573
555 1 12.6224 12.62 12.6145 -8.88558
556 1 14.1743 14.1674 14.1664 -8.94047
557 1 15.7358 12.5814 12.5835 -8.95833
558 1 17.3036 14.1544 14.1544 -8.95274
559 1 18.872 12.5795 12.5798 -8.95136
560 1 20.4426 14.1525 14.1523 -8.95046
561 1 -0.00154803 15.7256 12.5798 -8.95023
562 1 1.56983 17.2986 14.1531 -8.94906
563 1 3.13866 15.728 12.5816 -8.94799
564 1 4.71198 17.3017 14.1559 -8.94352
565 1 6.27762 15.7352 12.5919 -8.92415
566 1 7.8614 17.3015 14.1547 -8.95139
567 1 9.43868 15.7273 12.5841 -9.00325
568 1 11.0109 17.308 14.1557 -8.95726
569 1 12.5973 15.7456 12.5865 -8.9441
570 1 14.1597 17.3058 14.1565 -8.94719
571 1 15.7318 15.7287 12.5797 -8.95116
572 1 17.3002 17.2993 14.1529 -8.95006
573 1 18.8712 15.7256 12.5794 -8.9503
574 1 20.4418 17.2979 14.1523 -8.94984
575 1 22.013 18.8703 12.5798 -8.94935
576 1 1.57116 20.4423 14.1525 -8.94933
577 1 3.14229 18.8714 12.5805 -8.94909
578 1 4.71564 20.4431 14.153 -8.94976
579 1 6.28735 18.873 12.5813 -8.9505
580 1 7.86183 20.443 14.1526 -8.94944
581 1 9.43494 18.8722 12.5806 -8.94668
582 1 11.0077 20.4441 14.1528 -8.95139
583 1 12.5828 18.8755 12.5798 -8.95254
584 1 14.1541 20.444 14.1528 -8.95045
585 1 15.727 18.8717 12.5793 -8.9494
586 1 17.2981 20.4425 14.1522 -8.94954
587 1 18.8701 18.8703 12.5795 -8.94928
588 1 20.4416 20.4421 14.1521 -8.9494
589 1 1.56738 11.007 17.3 -8.94895
590 1 4.70577 11.007 17.3078 -8.9418
591 1 7.85705 11.007 17.2929 -9.00222
592 1 11.0048 11.007 17.294 -8.94149
593 1 14.1558 11.007 17.3018 -8.94619
594 1 17.2991 11.007 17.299 -8.9494
595 1 20.4409 11.007 17.2981 -8.94986
596 1 22.0117 12.5798 15.7253 -8.95167
597 1 1.56759 14.1541 17.2995 -8.95068
598 1 3.13404 12.5817 15.7292 -8.95767
599 1 4.70348 14.1636 17.3102 -8.93031
600 1 6.24912 12.6113 15.7617 -8.8554
601 1 7.86064 14.1574 17.3075 -8.95335
602 1 9.44996 12.6037 15.7317 -8.90736
603 1 11.0133 14.1601 17.3094 -8.95339
604 1 12.5855 12.5787 15.7324 -8.96214
605 1 14.1564 14.1539 17.3021 -8.95347
606 1 15.7296 12.5801 15.7286 -8.94819
607 1 17.2993 14.1528 17.2988 -8.94954
608 1 18.871 12.5798 15.7258 -8.94951
609 1 20.4412 14.1526 17.2978 -8.95005
610 1 22.0132 15.7252 15.7248 -8.95013
611 1 1.57062 17.2983 17.2978 -8.95072
612 1 3.14111 15.7262 15.7257 -8.95256
613 1 4.71253 17.3028 17.3017 -8.9497
614 1 6.28002 15.7375 15.7361 -8.95363
615 1 7.86095 17.3013 17.3009 -8.94723
616 1 9.43509 15.7356 15.7325 -8.9499
617 1 11.0087 17.302 17.3011 -8.94893
618 1 12.5943 15.7399 15.7398 -8.9299
619 1 14.1576 17.3027 17.3027 -8.94462
620 1 15.7334 15.7309 15.7307 -8.94598
621 1 17.3003 17.2995 17.2993 -8.94835
622 1 18.872 15.726 15.7258 -8.95027
623 1 20.4421 17.2978 17.2976 -8.94982
624 1 -0.000742264 18.8702 15.725 -8.94933
625 1 1.57138 20.4423 17.2974 -8.94921
626 1 3.14255 18.8713 15.7258 -8.94811
627 1 4.71607 20.443 17.2979 -8.95074
628 1 6.28832 18.8728 15.7262 -8.95258
629 1 7.86156 20.443 17.2982 -8.94949
630 1 9.4344 18.8733 15.7268 -8.95029
631 1 11.0074 20.4432 17.2983 -8.94962
632 1 12.5822 18.8745 15.7273 -8.95105
633 1 14.1536 20.4433 17.2985 -8.94987
634 1 15.7278 18.8727 15.7267 -8.94884
635 1 17.2983 20.4426 17.2979 -8.94925
636 1 18.8704 18.8705 15.725 -8.94963
637 1 20.4417 20.4421 17.2972 -8.94942
638 1 1.57021 11.007 20.4432 -8.94938
639 1 4.71399 11.007 20.4457 -8.94953
640 1 7.86153 11.007 20.4422 -8.94593
641 1 11.0068 11.007 20.4412 -8.94702
642 1 14.1533 11.007 20.442 -8.95033
643 1 17.298 11.007 20.442 -8.94941
644 1 20.4412 11.007 20.4422 -8.94938
645 1 -0.00188689 12.58 18.8707 -8.94918
646 1 1.57035 14.153 20.4431 -8.94907
647 1 3.14005 12.5809 18.8736 -8.94752
648 1 4.7147 14.1536 20.4455 -8.95141
649 1 6.28585 12.5807 18.8777 -8.95896
650 1 7.86191 14.1531 20.4443 -8.95132
651 1 9.43379 12.5796 18.8706 -8.95116
652 1 11.0072 14.1527 20.4436 -8.95304
653 1 12.58 12.5789 18.8711 -8.95081
654 1 14.153 14.1523 20.4422 -8.95068
655 1 15.7264 12.5799 18.8712 -8.94874
656 1 17.298 14.1525 20.442 -8.94916
657 1 18.8698 12.5798 18.8703 -8.9494
658 1 20.4412 14.1525 20.4421 -8.9493
659 1 22.0122 15.7257 18.8705 -8.94957
660 1 1.57053 17.2985 20.4429 -8.9483
661 1 3.13978 15.7288 18.8738 -8.94471
662 1 4.71567 17.2987 20.4431 -8.95013
663 1 6.28744 15.7276 18.874 -8.95029
664 1 7.86161 17.2987 20.443 -8.94926
665 1 9.43481 15.7278 18.8734 -8.94771
666 1 11.0075 17.2987 20.443 -8.94907
667 1 12.5829 15.7282 18.875 -8.94987
668 1 14.1537 17.2988 20.4435 -8.94942
669 1 15.7269 15.726 18.8716 -8.95078
670 1 17.2981 17.298 20.4422 -8.94973
671 1 18.87 15.7252 18.8701 -8.94971
672 1 20.4414 17.2977 20.442 -8.94943
673 1 22.0134 18.8701 18.8698 -8.94981
674 1 1.57139 20.4424 20.4421 -8.94919
675 1 3.14269 18.8717 18.871 -8.94928
391 1 18.8698 18.8701 22.0138 -8.94909
353 1 3.14295 12.5799 22.015 -8.94929
359 1 12.5801 12.5794 22.0124 -8.95119
369 1 6.28877 15.7257 22.014 -8.95075
375 1 15.7259 15.7256 22.013 -8.95009
363 1 18.8699 12.5797 22.0136 -8.94935
365 1 -0.000764363 15.7251 22.0141 -8.94932
381 1 3.14354 18.8705 22.0138 -8.94947
387 1 12.58 18.8704 22.014 -8.9493
