ITEM: TIMESTEP
74
ITEM: NUMBER OF ATOMS
688
ITEM: BOX BOUNDS pp pp pp
0.0000000000000000e+00 2.2013900999999997e+01
0.0000000000000000e+00 2.2013900999999997e+01
0.0000000000000000e+00 2.2013900999999997e+01
ITEM: ATOMS id type x y z c_pot
1 1 22.0138 -5.25235e-16 2.63137e-05 -8.94943
2 1 1.57221 1.57226 1.57226 -8.9494
193 1 11.0613 7.82236 10.9946 -8.80912
4 1 4.71715 1.57222 1.57224 -8.94967
175 1 18.8696 9.43424 9.43434 -8.9483
6 1 7.86207 1.57219 1.57222 -8.94956
7 1 9.43453 -1.00288e-15 8.93226e-16 -8.94961
8 1 11.007 1.57218 1.57221 -8.94958
9 1 12.5794 -1.26958e-16 -5.8022e-06 -8.94959
10 1 14.1519 1.57221 1.57226 -8.94954
174 1 15.7239 9.43542 9.43412 -8.94
12 1 17.2969 1.57216 1.57225 -8.94945
191 1 4.7053 7.85916 11.0118 -8.96069
14 1 20.4414 1.57233 1.57238 -8.94952
15 1 22.0137 3.14463 5.21523e-05 -8.94936
16 1 1.57205 4.71694 1.57225 -8.94972
190 1 1.5694 7.86145 11.0077 -8.9516
18 1 4.7166 4.71647 1.57148 -8.94945
173 1 12.5607 9.4475 9.43507 -8.90038
20 1 7.86197 4.7165 1.57172 -8.9492
21 1 9.43453 3.14442 6.98895e-16 -8.94955
22 1 11.0071 4.71645 1.57175 -8.94935
188 1 17.298 4.71621 11.0068 -8.94887
24 1 14.1522 4.7165 1.57179 -8.94997
172 1 9.36652 9.18951 9.43144 -8.11166
26 1 17.2974 4.71654 1.57177 -8.94852
171 1 6.2457 9.3963 9.40117 -8.88519
28 1 20.4416 4.71708 1.57227 -8.94959
186 1 11.0086 4.7092 11.0057 -8.96044
30 1 1.57203 7.86197 1.57225 -8.94937
31 1 3.14425 6.28919 0.000546338 -8.94993
32 1 4.7168 7.86201 1.57206 -8.95044
170 1 3.13395 9.43292 9.43165 -8.95835
34 1 7.86195 7.86167 1.57076 -8.95238
35 1 9.43453 6.28884 1.42957e-15 -8.94948
36 1 11.0068 7.86132 1.57046 -8.95073
37 1 12.5797 6.28907 1.88185e-05 -8.95027
38 1 14.1531 7.86099 1.56979 -8.95121
169 1 22.0117 9.43441 9.43436 -8.95151
40 1 17.2974 7.86175 1.57176 -8.94938
168 1 18.8701 6.28895 9.43433 -8.94996
42 1 20.4416 7.86201 1.57224 -8.94954
167 1 15.7285 6.2869 9.43311 -8.94806
166 1 12.5889 6.28069 9.4238 -8.92581
45 1 6.28941 9.43452 0.00103424 -8.95106
46 1 9.43453 9.4346 1.08408e-15 -8.94936
165 1 9.43025 6.28785 9.43131 -9.00269
48 1 15.7249 9.43432 -0.000527221 -8.94936
184 1 4.71443 4.71418 11.0086 -8.94723
50 1 22.0138 -5.9478e-16 3.14474 -8.94956
51 1 1.57205 1.57209 4.71698 -8.94951
52 1 3.14457 -1.63193e-16 3.14454 -8.94956
53 1 4.71673 1.57163 4.71661 -8.94983
54 1 6.28962 1.58549e-16 3.14455 -8.94959
55 1 7.86209 1.57171 4.71668 -8.94956
56 1 9.43455 -3.29097e-16 3.14451 -8.94958
57 1 11.0072 1.57171 4.71666 -8.94951
58 1 12.5795 -4.49625e-16 3.14455 -8.94951
59 1 14.1521 1.57172 4.71689 -8.95044
60 1 15.7244 -2.5997e-16 3.14463 -8.94991
61 1 17.2969 1.5722 4.71712 -8.9494
62 1 18.8691 2.26071e-16 3.1448 -8.94955
63 1 20.4415 1.57231 4.7172 -8.9496
64 1 22.0135 3.14453 3.14459 -8.9493
65 1 1.57085 4.71605 4.7161 -8.9485
66 1 3.14404 3.14401 3.14398 -8.94854
67 1 4.71409 4.71384 4.71369 -8.94505
68 1 6.28943 3.14402 3.1441 -8.94966
69 1 7.86158 4.71449 4.71498 -8.94913
70 1 9.43454 3.14395 3.1441 -8.94941
71 1 11.0074 4.71462 4.71505 -8.94755
72 1 12.5796 3.14397 3.14419 -8.94915
73 1 14.1543 4.71339 4.71455 -8.94986
74 1 15.725 3.14372 3.14407 -8.94938
75 1 17.2973 4.71671 4.71703 -8.9504
76 1 18.8692 3.14463 3.14472 -8.9498
77 1 20.4413 4.71695 4.71703 -8.9497
78 1 22.0137 6.2895 3.14453 -8.94974
79 1 1.57133 7.86185 4.71632 -8.9495
80 1 3.14384 6.28911 3.14371 -8.95046
81 1 4.71474 7.86129 4.71367 -8.95298
82 1 6.28776 6.28755 3.14104 -8.9499
83 1 7.85748 7.85651 4.70668 -8.95374
84 1 9.43433 6.28772 3.14216 -8.9479
85 1 11.0073 7.85832 4.70887 -8.95301
86 1 12.5801 6.28784 3.1421 -8.95004
87 1 14.163 7.85175 4.70628 -8.93052
88 1 15.7273 6.28674 3.14189 -8.94494
89 1 17.2997 7.86066 4.71575 -8.95062
90 1 18.8699 6.28914 3.14429 -8.94962
91 1 20.4418 7.86185 4.71685 -8.94998
92 1 -0.000209041 9.43445 3.14444 -8.94954
93 1 3.14383 9.43437 3.14368 -8.9489
94 1 6.28934 9.4352 3.14308 -8.95081
95 1 9.43487 9.43464 3.14293 -8.95092
96 1 12.5817 9.43345 3.13752 -8.9585
97 1 15.7268 9.43363 3.14229 -8.94793
98 1 18.8699 9.43434 3.14425 -8.94935
99 1 22.0138 1.21839e-15 6.28965 -8.94967
100 1 1.5721 1.57215 7.86208 -8.94965
101 1 3.14438 1.05437e-15 6.2894 -8.94971
102 1 4.71645 1.57118 7.86171 -8.95012
103 1 6.28937 8.83851e-16 6.28919 -8.95033
104 1 7.86192 1.57068 7.86165 -8.95111
105 1 9.43469 4.66354e-16 6.28919 -8.94999
106 1 11.0071 1.57146 7.8618 -8.94942
107 1 12.5795 8.9439e-16 6.28942 -8.95017
108 1 14.1525 1.57153 7.86167 -8.94972
109 1 15.7246 7.91036e-16 6.28945 -8.94949
110 1 17.297 1.57213 7.86198 -8.94957
111 1 18.8692 8.25631e-16 6.28963 -8.94961
112 1 20.4415 1.5723 7.86207 -8.94959
113 1 -0.000313827 3.14449 6.28954 -8.94969
114 1 1.57104 4.71622 7.86184 -8.94991
115 1 3.14355 3.14324 6.28877 -8.94919
116 1 4.71294 4.71156 7.8594 -8.94792
117 1 6.28848 3.1416 6.28813 -8.95095
118 1 7.85985 4.7085 7.85967 -8.95704
119 1 9.43487 3.14229 6.28844 -8.95002
120 1 11.007 4.71397 7.86088 -8.95109
121 1 12.5799 3.14262 6.28901 -8.95224
122 1 14.1551 4.71379 7.85983 -8.94422
123 1 15.7252 3.14381 6.28914 -8.94844
124 1 17.298 4.71625 7.8616 -8.94915
125 1 18.8694 3.14452 6.28952 -8.94945
126 1 20.4415 4.71685 7.86198 -8.9497
127 1 22.0125 6.28894 6.289 -8.95006
128 1 1.56769 7.86054 7.86056 -8.95237
129 1 3.13897 6.28543 6.28545 -8.94604
130 1 4.69825 7.8492 7.84972 -8.93995
131 1 6.27829 6.27762 6.27721 -8.93044
132 1 7.82281 7.82495 7.82526 -8.85788
133 1 9.43466 6.28153 6.28409 -8.95001
134 1 11.0256 7.85171 7.83384 -8.91239
135 1 12.5862 6.27914 6.28156 -8.95442
136 1 14.1559 7.86214 7.86413 -8.95444
137 1 15.7261 6.28861 6.28953 -8.95198
138 1 17.2982 7.86169 7.86246 -8.94966
139 1 18.8694 6.28932 6.28959 -8.94979
140 1 20.441 7.86172 7.8619 -8.95027
141 1 22.013 9.43439 6.28897 -8.94957
142 1 3.14139 9.43436 6.28686 -8.94817
143 1 6.285 9.43628 6.28243 -8.96138
144 1 9.42065 9.41393 6.28276 -8.90875
145 1 12.6184 9.4032 6.25434 -8.85539
146 1 15.7334 9.43239 6.28637 -8.95741
147 1 18.8708 9.43428 6.28927 -8.95145
148 1 -0.00013635 1.44007e-15 9.43451 -8.9496
149 1 3.1444 1.65351e-15 9.43455 -8.94949
150 1 6.28917 1.49592e-15 9.43448 -8.95075
151 1 9.43457 1.27647e-15 9.43428 -8.94924
152 1 12.5798 1.45245e-15 9.43426 -8.95021
153 1 15.7247 1.6561e-15 9.4344 -8.94954
154 1 18.8692 1.62667e-15 9.4345 -8.94962
155 1 -0.000303215 3.14447 9.43451 -8.94946
156 1 3.14388 3.14376 9.43469 -8.94954
157 1 6.28796 3.14045 9.43439 -8.95193
158 1 9.43436 3.14228 9.43385 -8.94689
159 1 12.5807 3.142 9.43343 -8.95036
160 1 15.7253 3.14364 9.43418 -8.94939
161 1 18.8694 3.14445 9.43445 -8.94953
162 1 22.0129 6.28907 9.43459 -8.94992
163 1 3.14032 6.28711 9.43476 -8.95078
164 1 6.27616 6.27256 9.42947 -8.94581
177 1 4.71649 1.5715 11.0072 -8.94923
178 1 7.86196 1.57078 11.0071 -8.95111
181 1 17.297 1.57211 11.0069 -8.94956
11 1 15.7243 3.69337e-16 6.41857e-06 -8.94966
19 1 6.28959 3.14448 -3.6392e-06 -8.94949
25 1 15.7245 3.14449 5.51919e-05 -8.94961
43 1 22.0137 9.43448 8.70285e-05 -8.94959
41 1 18.8692 6.28955 -8.64622e-05 -8.94959
176 1 1.57203 1.57211 11.007 -8.94956
343 1 18.8693 9.43445 18.8695 -8.94954
342 1 15.7252 9.43437 18.8702 -8.9489
179 1 11.0071 1.57078 11.0068 -8.95111
180 1 14.1526 1.5715 11.0067 -8.94923
341 1 12.5797 9.4352 18.8708 -8.95081
182 1 20.4415 1.57228 11.007 -8.94961
183 1 1.57108 4.71621 11.0071 -8.94887
340 1 9.43419 9.43464 18.871 -8.95092
185 1 7.86045 4.7092 11.0082 -8.96044
339 1 6.28735 9.43345 18.8764 -8.9585
187 1 14.1546 4.71418 11.0053 -8.94723
338 1 3.1423 9.43363 18.8716 -8.94793
189 1 20.4415 4.71678 11.007 -8.94954
337 1 -0.000841771 9.43434 18.8697 -8.94935
336 1 20.4414 7.86201 20.4417 -8.94954
192 1 7.80774 7.82236 11.0193 -8.80912
335 1 18.8692 6.2895 18.8694 -8.94974
194 1 14.1638 7.85916 11.0021 -8.96069
195 1 17.2997 7.86145 11.0062 -8.9516
196 1 20.4415 7.86172 11.007 -8.95012
197 1 -0.000135544 1.40741e-15 12.5794 -8.94962
198 1 1.57206 1.57213 14.1519 -8.94957
199 1 3.14438 1.77277e-15 12.5795 -8.94954
200 1 4.71657 1.57153 14.1522 -8.94972
201 1 6.28926 1.67313e-15 12.5796 -8.95021
202 1 7.86197 1.57146 14.1521 -8.94942
203 1 9.43449 1.41198e-15 12.5796 -8.94924
204 1 11.0071 1.57068 14.1523 -8.95111
205 1 12.5799 1.73799e-15 12.5794 -8.95075
206 1 14.1526 1.57118 14.1522 -8.95012
207 1 15.7247 1.73382e-15 12.5793 -8.94949
208 1 17.297 1.57215 14.1518 -8.94965
209 1 18.8692 1.48514e-15 12.5794 -8.9496
210 1 20.4415 1.5723 14.1518 -8.94959
211 1 22.0136 3.14445 12.5794 -8.94953
212 1 1.5711 4.71625 14.1523 -8.94915
213 1 3.14376 3.14364 12.5797 -8.94939
214 1 4.71399 4.71379 14.1541 -8.94422
215 1 6.28836 3.142 12.5805 -8.95036
216 1 7.86204 4.71397 14.153 -8.95109
217 1 9.4347 3.14228 12.5801 -8.94689
218 1 11.0092 4.7085 14.1542 -8.95704
219 1 12.5811 3.14045 12.5795 -8.95193
220 1 14.1561 4.71156 14.1545 -8.94792
221 1 15.7252 3.14376 12.5792 -8.94954
222 1 17.298 4.71622 14.1521 -8.94991
223 1 18.8694 3.14447 12.5794 -8.94946
224 1 20.4415 4.71685 14.1519 -8.9497
225 1 -0.0010033 6.28895 12.5796 -8.94996
226 1 1.57084 7.86169 14.1514 -8.94966
227 1 3.14055 6.2869 12.5808 -8.94806
228 1 4.71315 7.86214 14.1498 -8.95444
229 1 6.28017 6.28069 12.5901 -8.92581
230 1 7.84345 7.85171 14.1801 -8.91239
231 1 9.43881 6.28785 12.5826 -9.00269
232 1 11.0462 7.82495 14.1886 -8.85788
233 1 12.5929 6.27256 12.5844 -8.94581
234 1 14.1708 7.8492 14.1642 -8.93995
235 1 15.7287 6.28711 12.5791 -8.95078
236 1 17.3014 7.86054 14.1533 -8.95237
237 1 18.8701 6.28907 12.5793 -8.94992
238 1 20.4419 7.86172 14.152 -8.95027
239 1 22.0134 9.43424 12.5796 -8.9483
240 1 3.14519 9.43542 12.5798 -8.94
241 1 6.30835 9.4475 12.5788 -8.90038
242 1 9.50254 9.18951 12.5825 -8.11166
243 1 12.6234 9.3963 12.6127 -8.88519
244 1 15.7351 9.43292 12.5822 -8.95835
245 1 18.8713 9.43441 12.5795 -8.95151
246 1 -0.00011908 5.11225e-16 15.7243 -8.94961
247 1 1.57216 1.5722 17.2968 -8.9494
248 1 3.14446 9.63966e-16 15.7244 -8.94949
249 1 4.71693 1.57172 17.297 -8.95044
250 1 6.28951 1.76313e-15 15.7245 -8.95017
251 1 7.8619 1.57171 17.2972 -8.94951
252 1 9.43437 8.60357e-17 15.7247 -8.94999
253 1 11.007 1.57171 17.2972 -8.94956
254 1 12.5797 1.28051e-15 15.7247 -8.95033
255 1 14.1523 1.57163 17.2973 -8.94983
256 1 15.7247 1.36768e-15 15.7245 -8.94971
257 1 17.297 1.57209 17.2969 -8.94951
258 1 18.8692 1.38261e-15 15.7242 -8.94967
259 1 20.4415 1.57231 17.2967 -8.9496
260 1 -0.000293325 3.14452 15.7244 -8.94945
261 1 1.57179 4.71671 17.2969 -8.9504
262 1 3.1439 3.14381 15.7248 -8.94844
263 1 4.71473 4.71339 17.2994 -8.94986
264 1 6.2892 3.14262 15.7249 -8.95224
265 1 7.86162 4.71462 17.2988 -8.94755
266 1 9.43419 3.14229 15.7255 -8.95002
267 1 11.0075 4.71449 17.2989 -8.94913
268 1 12.5806 3.1416 15.7258 -8.95095
269 1 14.155 4.71384 17.3002 -8.94505
270 1 15.7255 3.14324 15.7251 -8.94919
271 1 17.2982 4.71605 17.2978 -8.9485
272 1 18.8694 3.14449 15.7244 -8.94969
273 1 20.4417 4.71695 17.2969 -8.9497
274 1 22.0135 6.28932 15.7243 -8.94979
275 1 1.56931 7.86066 17.2982 -8.95062
276 1 3.14295 6.28861 15.7244 -8.95198
277 1 4.7061 7.85175 17.3076 -8.93052
278 1 6.28288 6.27914 15.7323 -8.95442
279 1 7.86173 7.85832 17.305 -8.95301
280 1 9.4344 6.28153 15.7298 -8.95001
281 1 11.0116 7.85651 17.3072 -8.95374
282 1 12.5908 6.27762 15.7367 -8.93044
283 1 14.1543 7.86129 17.3002 -8.95298
284 1 15.7301 6.28543 15.7284 -8.94604
285 1 17.2977 7.86185 17.2976 -8.9495
286 1 18.8704 6.28894 15.7249 -8.95006
287 1 20.4411 7.86185 17.297 -8.94998
288 1 22.0121 9.43428 15.7246 -8.95145
289 1 3.13563 9.43239 15.7275 -8.95741
290 1 6.25068 9.4032 15.7596 -8.85539
291 1 9.44841 9.41393 15.7311 -8.90875
292 1 12.5841 9.43628 15.7315 -8.96138
293 1 15.7277 9.43436 15.727 -8.94817
294 1 18.8699 9.43439 15.7249 -8.94957
295 1 22.0138 5.16517e-16 18.8691 -8.94955
296 1 1.57219 1.57216 20.4417 -8.94945
297 1 3.14463 -5.72564e-16 18.8693 -8.94991
298 1 4.71718 1.57221 20.4416 -8.94954
299 1 6.28956 -1.1075e-15 18.8694 -8.94951
300 1 7.86207 1.57218 20.4417 -8.94958
301 1 9.43451 -2.04508e-16 18.8694 -8.94958
302 1 11.007 1.57219 20.4417 -8.94956
303 1 12.5794 9.24037e-16 18.8694 -8.94959
304 1 14.1519 1.57222 20.4417 -8.94967
305 1 15.7245 4.18664e-16 18.8694 -8.94956
306 1 17.2968 1.57226 20.4416 -8.9494
307 1 18.8692 1.68496e-15 18.8692 -8.94956
308 1 20.4415 1.57233 20.4415 -8.94952
309 1 22.0138 3.14463 18.8692 -8.9498
310 1 1.57167 4.71654 20.4421 -8.94852
311 1 3.14406 3.14372 18.8698 -8.94938
312 1 4.71686 4.7165 20.4421 -8.94997
313 1 6.28948 3.14397 18.8697 -8.94915
314 1 7.862 4.71645 20.4422 -8.94935
315 1 9.43452 3.14395 18.8698 -8.94941
316 1 11.0071 4.7165 20.4422 -8.9492
317 1 12.5796 3.14402 18.8698 -8.94966
318 1 14.1525 4.71647 20.4424 -8.94945
319 1 15.725 3.14401 18.8699 -8.94854
320 1 17.297 4.71694 20.4416 -8.94972
321 1 18.8694 3.14453 18.8693 -8.9493
322 1 20.4414 4.71708 20.4416 -8.94959
323 1 22.0131 6.28914 18.8696 -8.94962
324 1 1.57167 7.86175 20.4421 -8.94938
325 1 3.1418 6.28674 18.872 -8.94494
326 1 4.716 7.86099 20.4441 -8.95121
327 1 6.28892 6.28784 18.8718 -8.95004
328 1 7.86229 7.86132 20.4434 -8.95073
329 1 9.43472 6.28772 18.8717 -8.9479
330 1 11.0071 7.86167 20.4431 -8.95238
331 1 12.5813 6.28755 18.8729 -8.9499
332 1 14.1523 7.86201 20.4418 -8.95044
333 1 15.7252 6.28911 18.8702 -8.95046
334 1 17.297 7.86197 20.4416 -8.94937
5 1 6.28965 -3.73216e-16 22.0139 -8.94959
47 1 12.5796 9.43452 22.0129 -8.95106
44 1 3.14412 9.43432 22.0144 -8.94936
39 1 15.7248 6.28919 22.0134 -8.94993
27 1 18.8692 3.14463 22.0138 -8.94936
33 1 6.28941 6.28907 22.0139 -8.95027
3 1 3.14478 -1.64905e-16 22.0139 -8.94966
13 1 18.8692 -6.07107e-17 22.0139 -8.94943
17 1 3.14458 3.14449 22.0138 -8.94961
23 1 12.5795 3.14448 22.0139 -8.94949
29 1 -0.000189305 6.28955 22.014 -8.94959
49 1 18.8693 9.43448 22.0138 -8.94959
344 1 1.57198 11.007 1.57222 -8.94955
345 1 4.71647 11.007 1.57191 -8.95013
346 1 7.86207 11.007 1.57222 -8.94777
347 1 11.007 11.007 1.57133 -8.94679
348 1 14.1534 11.007 1.56967 -8.94943
349 1 17.2974 11.007 1.57174 -8.94955
350 1 20.4416 11.007 1.57223 -8.94958
688 3 10.2168 11.007 9.43932 2.30059
352 1 1.57203 14.1519 1.57225 -8.94937
511 1 18.8694 18.8694 9.43445 -8.94953
354 1 4.7168 14.1519 1.57206 -8.95044
355 1 6.28941 12.5794 0.00103424 -8.95106
356 1 7.86195 14.1522 1.57076 -8.95238
357 1 9.43453 12.5793 8.3064e-16 -8.94936
358 1 11.0068 14.1526 1.57046 -8.95073
510 1 15.7253 18.8703 9.43418 -8.94939
360 1 14.1531 14.1529 1.56979 -8.95121
361 1 15.7249 12.5796 -0.000527221 -8.94936
362 1 17.2974 14.1521 1.57176 -8.94938
538 1 17.297 20.4418 11.0069 -8.94956
364 1 20.4416 14.1519 1.57224 -8.94954
535 1 7.86196 20.4431 11.0071 -8.95111
366 1 1.57205 17.297 1.57225 -8.94972
367 1 3.14425 15.7247 0.000546338 -8.94993
368 1 4.7166 17.2974 1.57148 -8.94945
509 1 12.5807 18.8719 9.43343 -8.95036
370 1 7.86197 17.2974 1.57172 -8.9492
371 1 9.43453 15.7251 1.705e-15 -8.94948
372 1 11.0071 17.2975 1.57175 -8.94935
373 1 12.5797 15.7248 1.88185e-05 -8.95027
374 1 14.1522 17.2974 1.57179 -8.94997
508 1 9.43436 18.8716 9.43385 -8.94689
376 1 17.2974 17.2974 1.57177 -8.94852
507 1 6.28796 18.8735 9.43439 -8.95193
378 1 20.4416 17.2968 1.57227 -8.94959
379 1 22.0137 18.8693 5.21523e-05 -8.94936
380 1 1.57221 20.4416 1.57226 -8.9494
534 1 4.71649 20.4424 11.0072 -8.94923
382 1 4.71715 20.4417 1.57224 -8.94967
506 1 3.14388 18.8701 9.43469 -8.94954
384 1 7.86207 20.4417 1.57222 -8.94956
385 1 9.43453 18.8695 -2.09068e-16 -8.94955
386 1 11.007 20.4417 1.57221 -8.94958
531 1 17.298 17.2977 11.0068 -8.94887
388 1 14.1519 20.4417 1.57226 -8.94954
505 1 -0.000303215 18.8694 9.43451 -8.94946
390 1 17.2969 20.4417 1.57225 -8.94945
504 1 18.8701 15.725 9.43433 -8.94996
392 1 20.4414 20.4416 1.57238 -8.94952
393 1 1.57123 11.007 4.71608 -8.94943
394 1 4.7146 11.007 4.71324 -8.94638
395 1 7.86427 11.007 4.7185 -8.94264
396 1 11.0115 11.007 4.71932 -9.00165
397 1 14.1607 11.007 4.70859 -8.94254
398 1 17.2998 11.007 4.71557 -8.94904
399 1 20.4419 11.007 4.71675 -8.94981
400 1 -0.000209041 12.5795 3.14444 -8.94954
401 1 1.57133 14.152 4.71632 -8.9495
402 1 3.14383 12.5795 3.14368 -8.9489
403 1 4.71474 14.1526 4.71367 -8.95298
404 1 6.28934 12.5787 3.14308 -8.95081
405 1 7.85748 14.1574 4.70668 -8.95374
406 1 9.43487 12.5793 3.14293 -8.95092
407 1 11.0073 14.1556 4.70887 -8.95301
408 1 12.5817 12.5805 3.13752 -8.9585
409 1 14.163 14.1622 4.70628 -8.93052
410 1 15.7268 12.5803 3.14229 -8.94793
411 1 17.2997 14.1532 4.71575 -8.95062
412 1 18.8699 12.5796 3.14425 -8.94935
413 1 20.4418 14.1521 4.71685 -8.94998
414 1 22.0137 15.7244 3.14453 -8.94974
415 1 1.57085 17.2978 4.7161 -8.9485
416 1 3.14384 15.7248 3.14371 -8.95046
417 1 4.71409 17.3001 4.71369 -8.94505
418 1 6.28776 15.7264 3.14104 -8.9499
419 1 7.86158 17.2994 4.71498 -8.94913
420 1 9.43433 15.7262 3.14216 -8.9479
421 1 11.0074 17.2993 4.71505 -8.94755
422 1 12.5801 15.7261 3.1421 -8.95004
423 1 14.1543 17.3005 4.71455 -8.94986
424 1 15.7273 15.7272 3.14189 -8.94494
425 1 17.2973 17.2972 4.71703 -8.9504
426 1 18.8699 15.7248 3.14429 -8.94962
427 1 20.4413 17.297 4.71703 -8.9497
428 1 22.0135 18.8694 3.14459 -8.9493
429 1 1.57205 20.4418 4.71698 -8.94951
430 1 3.14404 18.8699 3.14398 -8.94854
431 1 4.71673 20.4423 4.71661 -8.94983
432 1 6.28943 18.8699 3.1441 -8.94966
433 1 7.86209 20.4422 4.71668 -8.94956
434 1 9.43454 18.8699 3.1441 -8.94941
435 1 11.0072 20.4422 4.71666 -8.94951
436 1 12.5796 18.8699 3.14419 -8.94915
437 1 14.1521 20.4422 4.71689 -8.95044
438 1 15.725 18.8702 3.14407 -8.94938
439 1 17.2969 20.4417 4.71712 -8.9494
440 1 18.8692 18.8693 3.14472 -8.9498
441 1 20.4415 20.4416 4.7172 -8.9496
442 1 1.56907 11.007 7.86032 -8.94732
443 1 4.71098 11.007 7.85489 -8.93541
444 1 7.87751 11.007 7.87661 -8.94399
445 1 11.0848 11.007 7.63716 -8.11642
446 1 14.1615 11.007 7.85471 -8.97135
447 1 17.2995 11.007 7.8621 -8.95118
448 1 20.4414 11.007 7.86185 -8.94987
449 1 22.013 12.5795 6.28897 -8.94957
450 1 1.56769 14.1534 7.86056 -8.95237
451 1 3.14139 12.5795 6.28686 -8.94817
452 1 4.69825 14.1647 7.84972 -8.93995
453 1 6.285 12.5776 6.28243 -8.96138
454 1 7.82281 14.189 7.82526 -8.85788
455 1 9.42065 12.6 6.28276 -8.90875
456 1 11.0256 14.1622 7.83384 -8.91239
457 1 12.6184 12.6107 6.25434 -8.85539
458 1 14.1559 14.1518 7.86413 -8.95444
459 1 15.7334 12.5815 6.28637 -8.95741
460 1 17.2982 14.1522 7.86246 -8.94966
461 1 18.8708 12.5796 6.28927 -8.95145
462 1 20.441 14.1522 7.8619 -8.95027
463 1 22.0125 15.725 6.289 -8.95006
464 1 1.57104 17.2977 7.86184 -8.94991
465 1 3.13897 15.7285 6.28545 -8.94604
466 1 4.71294 17.3023 7.8594 -8.94792
467 1 6.27829 15.7363 6.27721 -8.93044
468 1 7.85985 17.3054 7.85967 -8.95704
469 1 9.43466 15.7324 6.28409 -8.95001
470 1 11.007 17.2999 7.86088 -8.95109
471 1 12.5862 15.7348 6.28156 -8.95442
472 1 14.1551 17.3001 7.85983 -8.94422
473 1 15.7261 15.7253 6.28953 -8.95198
474 1 17.298 17.2977 7.8616 -8.94915
475 1 18.8694 15.7246 6.28959 -8.94979
476 1 20.4415 17.297 7.86198 -8.9497
477 1 -0.000313827 18.8694 6.28954 -8.94969
478 1 1.5721 20.4417 7.86208 -8.94965
479 1 3.14355 18.8707 6.28877 -8.94919
480 1 4.71645 20.4427 7.86171 -8.95012
481 1 6.28848 18.8723 6.28813 -8.95095
482 1 7.86192 20.4432 7.86165 -8.95111
483 1 9.43487 18.8716 6.28844 -8.95002
484 1 11.0071 20.4424 7.8618 -8.94942
485 1 12.5799 18.8713 6.28901 -8.95224
486 1 14.1525 20.4424 7.86167 -8.94972
487 1 15.7252 18.8701 6.28914 -8.94844
488 1 17.297 20.4418 7.86198 -8.94957
489 1 18.8694 18.8694 6.28952 -8.94945
490 1 20.4415 20.4416 7.86207 -8.94959
491 1 22.0117 12.5795 9.43436 -8.95151
492 1 3.13395 12.581 9.43165 -8.95835
493 1 6.2457 12.6176 9.40117 -8.88519
494 1 9.36652 12.8244 9.43144 -8.11166
495 1 12.5607 12.5664 9.43507 -8.90038
496 1 15.7239 12.5785 9.43412 -8.94
497 1 18.8696 12.5797 9.43434 -8.9483
498 1 22.0129 15.7248 9.43459 -8.94992
499 1 3.14032 15.7268 9.43476 -8.95078
500 1 6.27616 15.7413 9.42947 -8.94581
501 1 9.43025 15.7261 9.43131 -9.00269
502 1 12.5889 15.7332 9.4238 -8.92581
503 1 15.7285 15.727 9.43311 -8.94806
512 1 1.56971 11.007 11.0077 -8.94961
513 1 4.71111 11.007 10.9998 -8.96849
514 1 7.79548 11.007 10.7672 -8.03004
519 1 1.5694 14.1525 11.0077 -8.9516
520 1 4.7053 14.1547 11.0118 -8.96069
522 1 11.0613 14.1915 10.9946 -8.80912
527 1 4.71443 17.2997 11.0086 -8.94723
529 1 11.0086 17.3047 11.0057 -8.96044
351 1 22.0137 12.5794 8.70285e-05 -8.94959
377 1 18.8692 15.7243 -8.64622e-05 -8.94959
389 1 15.7245 18.8694 5.51919e-05 -8.94961
383 1 6.28959 18.8694 -3.6392e-06 -8.94949
687 3 8.65227 11.007 12.5746 2.30059
686 1 20.4415 20.4416 20.4415 -8.94952
685 1 18.8694 18.8694 18.8693 -8.9493
515 1 11.0736 11.007 11.2467 -8.03004
516 1 14.1579 11.007 11.0141 -8.96849
517 1 17.2993 11.007 11.0062 -8.94961
518 1 20.4415 11.007 11.007 -8.94966
684 1 17.2968 20.4416 20.4416 -8.9494
683 1 15.725 18.8699 18.8699 -8.94854
521 1 7.80774 14.1915 11.0193 -8.80912
682 1 14.1519 20.4417 20.4417 -8.94967
523 1 14.1638 14.1547 11.0021 -8.96069
524 1 17.2997 14.1525 11.0062 -8.9516
525 1 20.4415 14.1522 11.007 -8.95012
526 1 1.57108 17.2977 11.0071 -8.94887
681 1 12.5796 18.8699 18.8698 -8.94966
528 1 7.86045 17.3047 11.0082 -8.96044
680 1 11.007 20.4417 20.4417 -8.94956
530 1 14.1546 17.2997 11.0053 -8.94723
679 1 9.43452 18.8699 18.8698 -8.94941
532 1 20.4415 17.2971 11.007 -8.94954
533 1 1.57203 20.4418 11.007 -8.94956
678 1 7.86207 20.4417 20.4417 -8.94958
677 1 6.28948 18.8699 18.8697 -8.94915
536 1 11.0071 20.4431 11.0068 -8.95111
537 1 14.1526 20.4424 11.0067 -8.94923
676 1 4.71718 20.4417 20.4416 -8.94954
539 1 20.4415 20.4416 11.007 -8.94961
540 1 1.56955 11.007 14.1518 -8.95118
541 1 4.70754 11.007 14.1592 -8.97135
542 1 7.7843 11.007 14.3767 -8.11642
543 1 10.9916 11.007 14.1373 -8.94399
544 1 14.1581 11.007 14.159 -8.93541
545 1 17.3 11.007 14.1536 -8.94732
546 1 20.4416 11.007 14.1521 -8.94987
547 1 22.0134 12.5797 12.5796 -8.9483
548 1 1.57084 14.1522 14.1514 -8.94966
549 1 3.14519 12.5785 12.5798 -8.94
550 1 4.71315 14.1518 14.1498 -8.95444
551 1 6.30835 12.5664 12.5788 -8.90038
552 1 7.84345 14.1622 14.1801 -8.91239
553 1 9.50254 12.8244 12.5825 -8.11166
554 1 11.0462 14.189 14.1886 -8.85788
555 1 12.6234 12.6176 12.6127 -8.88519
556 1 14.1708 14.1647 14.1642 -8.93995
557 1 15.7351 12.581 12.5822 -8.95835
558 1 17.3014 14.1534 14.1533 -8.95237
559 1 18.8713 12.5795 12.5795 -8.95151
560 1 20.4419 14.1522 14.152 -8.95027
561 1 -0.0010033 15.725 12.5796 -8.94996
562 1 1.5711 17.2977 14.1523 -8.94915
563 1 3.14055 15.727 12.5808 -8.94806
564 1 4.71399 17.3001 14.1541 -8.94422
565 1 6.28017 15.7332 12.5901 -8.92581
566 1 7.86204 17.2999 14.153 -8.95109
567 1 9.43881 15.7261 12.5826 -9.00269
568 1 11.0092 17.3054 14.1542 -8.95704
569 1 12.5929 15.7413 12.5844 -8.94581
570 1 14.1561 17.3023 14.1545 -8.94792
571 1 15.7287 15.7268 12.5791 -8.95078
572 1 17.298 17.2977 14.1521 -8.94991
573 1 18.8701 15.7248 12.5793 -8.94992
574 1 20.4415 17.297 14.1519 -8.9497
575 1 22.0136 18.8694 12.5794 -8.94953
576 1 1.57206 20.4418 14.1519 -8.94957
577 1 3.14376 18.8703 12.5797 -8.94939
578 1 4.71657 20.4424 14.1522 -8.94972
579 1 6.28836 18.8719 12.5805 -8.95036
580 1 7.86197 20.4424 14.1521 -8.94942
581 1 9.4347 18.8716 12.5801 -8.94689
582 1 11.0071 20.4432 14.1523 -8.95111
583 1 12.5811 18.8735 12.5795 -8.95193
584 1 14.1526 20.4427 14.1522 -8.95012
585 1 15.7252 18.8701 12.5792 -8.94954
586 1 17.297 20.4417 14.1518 -8.94965
587 1 18.8694 18.8694 12.5794 -8.94946
588 1 20.4415 20.4416 14.1518 -8.94959
589 1 1.56928 11.007 17.2983 -8.94904
590 1 4.7084 11.007 17.3053 -8.94254
591 1 7.85756 11.007 17.2946 -9.00165
592 1 11.0048 11.007 17.2954 -8.94264
593 1 14.1545 11.007 17.3007 -8.94638
594 1 17.2978 11.007 17.2978 -8.94943
595 1 20.4411 11.007 17.2972 -8.94981
596 1 22.0121 12.5796 15.7246 -8.95145
597 1 1.56931 14.1532 17.2982 -8.95062
598 1 3.13563 12.5815 15.7275 -8.95741
599 1 4.7061 14.1622 17.3076 -8.93052
600 1 6.25068 12.6107 15.7596 -8.85539
601 1 7.86173 14.1556 17.305 -8.95301
602 1 9.44841 12.6 15.7311 -8.90875
603 1 11.0116 14.1574 17.3072 -8.95374
604 1 12.5841 12.5776 15.7315 -8.96138
605 1 14.1543 14.1526 17.3002 -8.95298
606 1 15.7277 12.5795 15.727 -8.94817
607 1 17.2977 14.152 17.2976 -8.9495
608 1 18.8699 12.5795 15.7249 -8.94957
609 1 20.4411 14.1521 17.297 -8.94998
610 1 22.0135 15.7246 15.7243 -8.94979
611 1 1.57179 17.2972 17.2969 -8.9504
612 1 3.14295 15.7253 15.7244 -8.95198
613 1 4.71473 17.3005 17.2994 -8.94986
614 1 6.28288 15.7348 15.7323 -8.95442
615 1 7.86162 17.2993 17.2988 -8.94755
616 1 9.4344 15.7324 15.7298 -8.95001
617 1 11.0075 17.2994 17.2989 -8.94913
618 1 12.5908 15.7363 15.7367 -8.93044
619 1 14.155 17.3001 17.3002 -8.94505
620 1 15.7301 15.7285 15.7284 -8.94604
621 1 17.2982 17.2978 17.2978 -8.9485
622 1 18.8704 15.725 15.7249 -8.95006
623 1 20.4417 17.297 17.2969 -8.9497
624 1 -0.000293325 18.8694 15.7244 -8.94945
625 1 1.57216 20.4417 17.2968 -8.9494
626 1 3.1439 18.8701 15.7248 -8.94844
627 1 4.71693 20.4422 17.297 -8.95044
628 1 6.2892 18.8713 15.7249 -8.95224
629 1 7.8619 20.4422 17.2972 -8.94951
630 1 9.43419 18.8716 15.7255 -8.95002
631 1 11.007 20.4422 17.2972 -8.94956
632 1 12.5806 18.8723 15.7258 -8.95095
633 1 14.1523 20.4423 17.2973 -8.94983
634 1 15.7255 18.8707 15.7251 -8.94919
635 1 17.297 20.4418 17.2969 -8.94951
636 1 18.8694 18.8694 15.7244 -8.94969
637 1 20.4415 20.4416 17.2967 -8.9496
638 1 1.57162 11.007 20.4422 -8.94955
639 1 4.71562 11.007 20.4442 -8.94943
640 1 7.86207 11.007 20.4426 -8.94679
641 1 11.007 11.007 20.4417 -8.94777
642 1 14.1526 11.007 20.442 -8.95013
643 1 17.2971 11.007 20.4417 -8.94955
644 1 20.4414 11.007 20.4417 -8.94958
645 1 -0.000841771 12.5796 18.8697 -8.94935
646 1 1.57167 14.1521 20.4421 -8.94938
647 1 3.1423 12.5803 18.8716 -8.94793
648 1 4.716 14.1529 20.4441 -8.95121
649 1 6.28735 12.5805 18.8764 -8.9585
650 1 7.86229 14.1526 20.4434 -8.95073
651 1 9.43419 12.5793 18.871 -8.95092
652 1 11.0071 14.1522 20.4431 -8.95238
653 1 12.5797 12.5787 18.8708 -8.95081
654 1 14.1523 14.1519 20.4418 -8.95044
655 1 15.7252 12.5795 18.8702 -8.9489
656 1 17.297 14.1519 20.4416 -8.94937
657 1 18.8693 12.5795 18.8695 -8.94954
658 1 20.4414 14.1519 20.4417 -8.94954
659 1 22.0131 15.7248 18.8696 -8.94962
660 1 1.57167 17.2974 20.4421 -8.94852
661 1 3.1418 15.7272 18.872 -8.94494
662 1 4.71686 17.2974 20.4421 -8.94997
663 1 6.28892 15.7261 18.8718 -8.95004
664 1 7.862 17.2975 20.4422 -8.94935
665 1 9.43472 15.7262 18.8717 -8.9479
666 1 11.0071 17.2974 20.4422 -8.9492
667 1 12.5813 15.7264 18.8729 -8.9499
668 1 14.1525 17.2974 20.4424 -8.94945
669 1 15.7252 15.7248 18.8702 -8.95046
670 1 17.297 17.297 20.4416 -8.94972
671 1 18.8692 15.7244 18.8694 -8.94974
672 1 20.4414 17.2968 20.4416 -8.94959
673 1 22.0138 18.8693 18.8692 -8.9498
674 1 1.57219 20.4417 20.4417 -8.94945
675 1 3.14406 18.8702 18.8698 -8.94938
391 1 18.8692 18.8693 22.0138 -8.94936
353 1 3.14412 12.5796 22.0144 -8.94936
359 1 12.5796 12.5794 22.0129 -8.95106
369 1 6.28941 15.7248 22.0139 -8.95027
375 1 15.7248 15.7247 22.0134 -8.94993
363 1 18.8693 12.5794 22.0138 -8.94959
365 1 -0.000189305 15.7243 22.014 -8.94959
381 1 3.14458 18.8694 22.0138 -8.94961
387 1 12.5795 18.8694 22.0139 -8.94949
