ITEM: TIMESTEP
104
ITEM: NUMBER OF ATOMS
688
ITEM: BOX BOUNDS pp pp pp
0.0000000000000000e+00 2.2013900999999997e+01
0.0000000000000000e+00 2.2013900999999997e+01
0.0000000000000000e+00 2.2013900999999997e+01
ITEM: ATOMS id type x y z c_pot
189 1 20.4414 4.71618 11.007 -8.94944
2 1 1.57205 1.57211 1.57197 -8.94924
175 1 18.8714 9.43368 9.43383 -8.94953
4 1 4.71702 1.57207 1.57194 -8.94959
174 1 15.732 9.43197 9.4317 -8.94774
6 1 7.86204 1.57204 1.57194 -8.94952
7 1 9.43452 9.112e-16 -0.000163341 -8.94958
8 1 11.007 1.57203 1.57196 -8.94953
173 1 12.5966 9.41193 9.4005 -8.83788
10 1 14.152 1.57207 1.57207 -8.94949
172 1 9.37181 9.19396 9.40664 -7.80671
12 1 17.297 1.57202 1.57205 -8.94949
188 1 17.2982 4.71538 11.0067 -8.94889
14 1 20.4415 1.57216 1.5722 -8.94937
171 1 6.24853 9.38871 9.3974 -8.86234
16 1 1.57193 4.71682 1.57175 -8.94989
170 1 3.13234 9.43129 9.43085 -8.95472
18 1 4.71632 4.7162 1.57075 -8.94949
169 1 22.011 9.43394 9.43377 -8.95095
20 1 7.86181 4.71618 1.57106 -8.94913
183 1 1.57027 4.71529 11.0072 -8.94914
22 1 11.0071 4.71614 1.5712 -8.94921
168 1 18.8703 6.28807 9.43409 -8.94921
24 1 14.1523 4.71615 1.57127 -8.94978
167 1 15.728 6.28565 9.43316 -8.94526
26 1 17.2977 4.7161 1.57142 -8.94872
166 1 12.58 6.28583 9.43337 -8.95435
28 1 20.4417 4.71689 1.57203 -8.9496
165 1 9.42986 6.30073 9.43613 -9.01011
30 1 1.57199 7.86194 1.57177 -8.94939
164 1 6.27943 6.27497 9.43377 -8.95513
32 1 4.71685 7.86219 1.57123 -8.95036
163 1 3.13845 6.28465 9.43339 -8.94715
34 1 7.86172 7.86161 1.56988 -8.95214
35 1 9.43428 6.28886 -0.000815016 -8.94974
36 1 11.0065 7.86127 1.56982 -8.95064
37 1 12.5794 6.28897 -0.000709801 -8.94979
38 1 14.1533 7.86065 1.56924 -8.95124
162 1 -0.00182626 6.28814 9.43414 -8.94953
40 1 17.2978 7.86147 1.57132 -8.9493
161 1 18.8695 3.144 9.43438 -8.94948
42 1 20.4418 7.86189 1.57196 -8.94949
181 1 17.2971 1.57184 11.0069 -8.94954
44 1 3.14436 9.43444 -0.000231326 -8.94967
160 1 15.7252 3.14316 9.43422 -8.94937
159 1 12.5793 3.14353 9.43468 -8.95011
158 1 9.4344 3.14532 9.43489 -8.94451
48 1 15.7253 9.43416 -0.000640331 -8.94948
157 1 6.28816 3.14054 9.43485 -8.95148
50 1 22.0136 1.48403e-15 3.14456 -8.94956
51 1 1.57178 1.57182 4.71672 -8.94961
52 1 3.14435 9.86578e-16 3.14423 -8.94957
53 1 4.71651 1.57124 4.71629 -8.95002
54 1 6.28952 1.76384e-15 3.14425 -8.94949
55 1 7.86205 1.57135 4.71638 -8.94949
56 1 9.43461 9.75968e-16 3.14424 -8.94953
57 1 11.0073 1.57146 4.71645 -8.94938
58 1 12.5796 1.00949e-15 3.14434 -8.94941
59 1 14.1522 1.5715 4.71682 -8.95048
60 1 15.7245 8.17125e-17 3.14449 -8.94993
61 1 17.297 1.57194 4.71701 -8.94973
62 1 18.8692 -5.48862e-16 3.14466 -8.94965
63 1 20.4414 1.57213 4.71706 -8.94956
64 1 22.0133 3.14416 3.14416 -8.94914
65 1 1.57006 4.71526 4.7152 -8.94826
66 1 3.1436 3.14352 3.14337 -8.94825
67 1 4.71315 4.71272 4.71258 -8.94417
68 1 6.2892 3.14354 3.14357 -8.94945
69 1 7.86118 4.7136 4.71423 -8.94843
70 1 9.43458 3.14356 3.14367 -8.94946
71 1 11.0075 4.71418 4.71466 -8.94716
72 1 12.5797 3.14364 3.14389 -8.94907
73 1 14.1545 4.71289 4.7142 -8.94883
74 1 15.7252 3.14334 3.14377 -8.9493
75 1 17.2983 4.71549 4.71596 -8.94908
76 1 18.8694 3.14417 3.14434 -8.94942
77 1 20.4413 4.71641 4.71653 -8.94971
78 1 22.0136 6.28932 3.1441 -8.94974
79 1 1.57096 7.8617 4.71565 -8.9495
80 1 3.1435 6.28888 3.14285 -8.95083
81 1 4.71453 7.86122 4.71282 -8.95409
82 1 6.28737 6.28709 3.13998 -8.95018
83 1 7.85754 7.85638 4.7062 -8.95627
84 1 9.43419 6.28715 3.14124 -8.94805
85 1 11.0068 7.85852 4.70839 -8.95431
86 1 12.5802 6.28742 3.14135 -8.95
87 1 14.1618 7.85272 4.70569 -8.93819
88 1 15.7276 6.28629 3.1411 -8.94649
89 1 17.3002 7.8603 4.7149 -8.95033
90 1 18.8702 6.28884 3.14385 -8.94964
91 1 20.4419 7.86163 4.71634 -8.94981
92 1 -0.000264602 9.43439 3.14397 -8.94949
93 1 3.14363 9.43438 3.14299 -8.94883
94 1 6.28944 9.43552 3.14299 -8.95087
95 1 9.43404 9.43438 3.14284 -8.94906
96 1 12.5819 9.43329 3.13665 -8.95698
97 1 15.7274 9.43339 3.14133 -8.94812
98 1 18.8703 9.43422 3.14374 -8.94936
99 1 22.0136 9.7592e-16 6.28951 -8.94954
100 1 1.57174 1.57178 7.86189 -8.94949
101 1 3.14419 1.02019e-15 6.28926 -8.94978
102 1 4.71641 1.57087 7.86175 -8.95012
103 1 6.28946 1.10674e-15 6.28921 -8.95069
104 1 7.86227 1.57079 7.86203 -8.9516
105 1 9.43479 1.71358e-15 6.28915 -8.95028
106 1 11.0068 1.57176 7.86224 -8.94992
107 1 12.5795 8.14386e-16 6.28958 -8.95038
108 1 14.1521 1.57161 7.86208 -8.95001
109 1 15.7245 -2.48807e-16 6.28956 -8.94983
110 1 17.2971 1.57188 7.86193 -8.94948
111 1 18.8692 1.56318e-15 6.28955 -8.94952
112 1 20.4414 1.57208 7.86199 -8.94954
113 1 -0.000619629 3.14404 6.28927 -8.94944
114 1 1.57023 4.71522 7.86126 -8.94898
115 1 3.14319 3.14261 6.28846 -8.94974
116 1 4.71315 4.711 7.85978 -8.95008
117 1 6.28837 3.14087 6.28798 -8.95165
118 1 7.8605 4.70881 7.86046 -8.96075
119 1 9.43481 3.14174 6.28817 -8.94993
120 1 11.0056 4.71465 7.86178 -8.95522
121 1 12.5796 3.14242 6.28916 -8.9522
122 1 14.153 4.71388 7.86145 -8.95077
123 1 15.725 3.1433 6.28926 -8.94998
124 1 17.2979 4.71555 7.86154 -8.9488
125 1 18.8694 3.14413 6.2894 -8.94943
126 1 20.4413 4.71624 7.86173 -8.94936
127 1 22.012 6.28833 6.28836 -8.95038
128 1 1.56654 7.85973 7.85968 -8.9528
129 1 3.13728 6.28389 6.2838 -8.94597
130 1 4.69606 7.84658 7.84736 -8.94047
131 1 6.27657 6.27565 6.27579 -8.9273
132 1 7.82166 7.82144 7.8222 -8.83933
133 1 9.4339 6.28076 6.28295 -8.94508
134 1 11.025 7.8462 7.83204 -8.88663
135 1 12.5862 6.27897 6.28111 -8.94712
136 1 14.165 7.85163 7.85293 -8.94159
137 1 15.7292 6.28515 6.28612 -8.94758
138 1 17.3009 7.85991 7.8607 -8.9511
139 1 18.8703 6.28841 6.28877 -8.95006
140 1 20.4413 7.86116 7.86134 -8.95061
141 1 -0.00107384 9.43426 6.28839 -8.9494
142 1 3.14113 9.43436 6.28629 -8.94799
143 1 6.28634 9.43731 6.28366 -8.96408
144 1 9.42256 9.41876 6.28622 -8.93254
145 1 12.6096 9.41171 6.25615 -8.89746
146 1 15.7334 9.43206 6.28461 -8.95443
147 1 18.8714 9.43404 6.2885 -8.95074
148 1 -0.000310497 9.25987e-16 9.43449 -8.94956
149 1 3.14409 -1.04619e-16 9.4345 -8.94961
150 1 6.28935 8.6969e-16 9.43469 -8.95072
151 1 9.43474 1.54211e-15 9.43461 -8.94779
152 1 12.5794 8.30211e-16 9.4346 -8.94977
153 1 15.7247 -2.20504e-16 9.43441 -8.94971
154 1 18.8693 1.10052e-15 9.43446 -8.94957
155 1 22.0133 3.14398 9.43444 -8.94946
156 1 3.14319 3.14265 9.43438 -8.94933
177 1 4.71629 1.5709 11.0073 -8.94968
184 1 4.71286 4.7117 11.0081 -8.94703
3 1 3.14472 1.09403e-15 -0.000165095 -8.9496
11 1 15.7243 -2.89926e-16 -0.000100528 -8.94957
41 1 18.8695 6.28935 -0.000162053 -8.94952
19 1 6.2895 3.14437 -0.000341333 -8.94943
25 1 15.7245 3.14435 -0.000220415 -8.94969
176 1 1.57172 1.57179 11.0071 -8.9495
47 1 12.5795 9.43434 22.0126 -8.95158
178 1 7.86242 1.57145 11.0071 -8.94999
179 1 11.0066 1.57218 11.0068 -8.94858
180 1 14.1522 1.57146 11.0068 -8.9497
343 1 18.8698 9.43434 18.8699 -8.94939
182 1 20.4414 1.57206 11.007 -8.94955
342 1 15.7257 9.43399 18.8714 -8.94916
46 1 9.43419 9.4345 22.0131 -8.94881
185 1 7.86045 4.71369 11.0079 -8.95369
186 1 11.0059 4.71819 11.0063 -8.94742
187 1 14.1538 4.71372 11.0061 -8.94794
341 1 12.5794 9.43433 18.8725 -8.95362
340 1 9.43417 9.43475 18.8686 -8.9472
190 1 1.56661 7.8598 11.0071 -8.95115
191 1 4.6984 7.85267 11.0088 -8.95126
192 1 7.81599 7.84705 11.0364 -8.86661
193 1 11.0353 7.86871 11.0255 -8.89863
194 1 14.1653 7.85507 11.0046 -8.94757
195 1 17.3016 7.8596 11.0063 -8.94969
196 1 20.4415 7.86098 11.0068 -8.9503
197 1 22.0136 7.6399e-17 12.5795 -8.94955
198 1 1.57182 1.57182 14.1522 -8.94948
199 1 3.14415 -4.95543e-16 12.5797 -8.94953
200 1 4.71663 1.57098 14.1526 -8.95079
201 1 6.28964 1.56115e-15 12.5797 -8.95097
202 1 7.86237 1.57175 14.1523 -8.94946
203 1 9.4347 1.03376e-15 12.5796 -8.94907
204 1 11.0068 1.57161 14.1523 -8.94965
205 1 12.5793 -1.12694e-16 12.5793 -8.95097
206 1 14.1522 1.57091 14.1522 -8.95138
207 1 15.7246 7.89263e-16 12.5794 -8.94965
208 1 17.2971 1.57182 14.1519 -8.94964
209 1 18.8693 1.79738e-15 12.5794 -8.94954
210 1 20.4414 1.57209 14.1519 -8.94952
211 1 22.0133 3.144 12.5796 -8.9494
212 1 1.57045 4.71531 14.1531 -8.94943
213 1 3.14328 3.1427 12.5802 -8.94906
214 1 4.71301 4.71071 14.1564 -8.94792
215 1 6.28881 3.14094 12.5804 -8.95342
216 1 7.86287 4.71533 14.1531 -8.95016
217 1 9.43473 3.14436 12.5796 -8.94805
218 1 11.0058 4.71448 14.1534 -8.94926
219 1 12.5793 3.14148 12.5794 -8.9547
220 1 14.1554 4.70938 14.1556 -8.95205
221 1 15.7251 3.14296 12.5793 -8.94949
222 1 17.2985 4.71501 14.1526 -8.94988
223 1 18.8695 3.14401 12.5794 -8.94938
224 1 20.4415 4.71627 14.1522 -8.94958
225 1 -0.00159715 6.28826 12.5799 -8.94974
226 1 1.56787 7.85979 14.1545 -8.9511
227 1 3.13867 6.28497 12.5821 -8.94887
228 1 4.70218 7.84817 14.1669 -8.92698
229 1 6.27748 6.27325 12.5903 -8.94716
230 1 7.86193 7.85786 14.1599 -8.95192
231 1 9.43485 6.29203 12.5779 -8.95289
232 1 11.005 7.85565 14.1615 -8.94181
233 1 12.5868 6.27218 12.5863 -8.96406
234 1 14.1778 7.83619 14.178 -8.90126
235 1 15.7294 6.28461 12.5803 -8.94945
236 1 17.3044 7.85797 14.1558 -8.95227
237 1 18.8707 6.28814 12.5796 -8.9495
238 1 20.4422 7.86102 14.1529 -8.95104
239 1 22.0114 9.43387 12.5803 -8.95175
240 1 3.13168 9.43133 12.5838 -8.95588
241 1 6.24333 9.39438 12.6237 -8.82088
242 1 9.43549 9.43106 12.5691 -8.63733
243 1 12.6533 9.35955 12.6549 -8.70685
244 1 15.7442 9.42841 12.5867 -8.96025
245 1 18.8734 9.43363 12.5803 -8.95317
246 1 -0.000236763 4.50584e-17 15.7244 -8.94956
247 1 1.57191 1.57189 17.2972 -8.94931
248 1 3.14432 -9.24201e-17 15.7249 -8.94995
249 1 4.71718 1.57203 17.2971 -8.94975
250 1 6.28975 2.76153e-16 15.7246 -8.94957
251 1 7.86201 1.57196 17.2972 -8.9494
252 1 9.43451 3.10733e-16 15.7248 -8.94969
253 1 11.0069 1.5719 17.2972 -8.94945
254 1 12.5793 2.49744e-17 15.7246 -8.94962
255 1 14.1519 1.57188 17.2971 -8.94966
256 1 15.7247 1.5661e-15 15.7247 -8.95034
257 1 17.2972 1.57169 17.2973 -8.94953
258 1 18.8692 1.70176e-15 15.7244 -8.94965
259 1 20.4415 1.5721 17.2969 -8.94962
260 1 -0.000483787 3.14408 15.7247 -8.94955
261 1 1.5712 4.7158 17.2983 -8.94819
262 1 3.14336 3.14269 15.7259 -8.94887
263 1 4.71658 4.71591 17.2984 -8.95011
264 1 6.28977 3.14366 15.7251 -8.94981
265 1 7.86188 4.71605 17.298 -8.94844
266 1 9.43436 3.14337 15.7254 -8.94925
267 1 11.0066 4.71578 17.2981 -8.9486
268 1 12.5792 3.14318 15.7251 -8.94953
269 1 14.1524 4.71526 17.2986 -8.94991
270 1 15.7257 3.14204 15.7258 -8.94983
271 1 17.299 4.71469 17.2991 -8.9465
272 1 18.8696 3.14396 15.7246 -8.94974
273 1 20.4419 4.71634 17.2976 -8.94941
274 1 22.0129 6.28841 15.7256 -8.94999
275 1 1.57135 7.86145 17.2982 -8.9492
276 1 3.14025 6.28509 15.7293 -8.94415
277 1 4.71577 7.86071 17.3008 -8.95193
278 1 6.28846 6.28694 15.7285 -8.95103
279 1 7.86299 7.86198 17.2984 -8.95234
280 1 9.43383 6.28686 15.7275 -8.9429
281 1 11.0053 7.86112 17.2995 -8.95128
282 1 12.5799 6.28533 15.7291 -8.94932
283 1 14.1548 7.8587 17.304 -8.95313
284 1 15.7323 6.28119 15.7325 -8.93755
285 1 17.2988 7.86089 17.2991 -8.94912
286 1 18.8715 6.28776 15.7261 -8.94993
287 1 20.4419 7.86166 17.2977 -8.94931
288 1 -0.000905598 9.43409 15.7257 -8.94922
289 1 3.14121 9.4333 15.7282 -8.94729
290 1 6.28718 9.43383 15.7325 -8.96159
291 1 9.43504 9.43826 15.7184 -8.95073
292 1 12.5848 9.43094 15.7408 -8.96643
293 1 15.7305 9.43245 15.7309 -8.94668
294 1 18.8713 9.43392 15.7261 -8.94906
295 1 22.0137 1.27598e-15 18.8693 -8.94936
296 1 1.57229 1.5722 20.4416 -8.94954
297 1 3.14476 -1.02669e-15 18.8693 -8.94972
298 1 4.71717 1.57223 20.4415 -8.94952
299 1 6.28959 -1.60613e-15 18.8693 -8.94947
300 1 7.86203 1.57217 20.4416 -8.94955
301 1 9.43449 -5.58078e-16 18.8694 -8.94956
302 1 11.007 1.57216 20.4416 -8.94956
303 1 12.5794 8.98049e-16 18.8693 -8.94949
304 1 14.1519 1.57219 20.4416 -8.9495
305 1 15.7243 1.81012e-15 18.8693 -8.94966
306 1 17.2968 1.57216 20.4416 -8.94966
307 1 18.8693 1.75302e-15 18.8694 -8.94942
308 1 20.4416 1.5722 20.4416 -8.94915
309 1 22.0137 3.14432 18.8696 -8.94915
310 1 1.57213 4.71691 20.4418 -8.94971
311 1 3.14453 3.14428 18.8696 -8.94974
312 1 4.71701 4.71683 20.4416 -8.94996
313 1 6.28956 3.14434 18.8695 -8.9493
314 1 7.86189 4.71661 20.4416 -8.94939
315 1 9.43441 3.14417 18.8696 -8.94953
316 1 11.0069 4.71654 20.4417 -8.94943
317 1 12.5794 3.1442 18.8696 -8.9493
318 1 14.1519 4.71662 20.4418 -8.94971
319 1 15.7245 3.14407 18.8697 -8.94976
320 1 17.2973 4.71646 20.442 -8.94952
321 1 18.8696 3.14407 18.8697 -8.94874
322 1 20.4417 4.71699 20.4417 -8.94961
323 1 -0.000172177 6.28934 18.8697 -8.94954
324 1 1.57208 7.86192 20.4419 -8.94949
325 1 3.14411 6.28892 18.8705 -8.95004
326 1 4.71699 7.86196 20.4421 -8.95036
327 1 6.28968 6.28922 18.8701 -8.95038
328 1 7.86207 7.86192 20.4415 -8.95016
329 1 9.43416 6.2886 18.8704 -8.94932
330 1 11.0064 7.86169 20.4417 -8.95012
331 1 12.5791 6.28877 18.8706 -8.94985
332 1 14.1523 7.86141 20.4425 -8.95118
333 1 15.7257 6.28801 18.8715 -8.95015
334 1 17.2974 7.8617 20.442 -8.94939
335 1 18.8698 6.28914 18.8699 -8.94953
336 1 20.4417 7.86195 20.4417 -8.94953
337 1 22.0137 9.4344 18.8697 -8.94951
338 1 3.144 9.43427 18.8705 -8.94934
339 1 6.28966 9.4347 18.8707 -8.95175
45 1 6.28952 9.43469 22.0136 -8.94989
5 1 6.2896 1.09076e-15 22.0137 -8.94955
9 1 12.5794 9.00947e-18 22.0138 -8.94955
39 1 15.7251 6.28874 22.0133 -8.95013
15 1 22.0138 3.14457 22.0138 -8.94958
17 1 3.1445 3.14442 22.0135 -8.94953
33 1 6.28933 6.28921 22.013 -8.95042
23 1 12.5795 3.14432 22.0136 -8.94941
31 1 3.14451 6.28949 22.0137 -8.95006
27 1 18.8694 3.14439 22.0138 -8.94928
29 1 22.0138 6.28952 22.0138 -8.94952
1 1 22.0138 8.95669e-16 22.0138 -8.94933
13 1 18.8692 1.35876e-15 22.0138 -8.94941
21 1 9.43449 3.14429 22.0136 -8.94952
43 1 22.0138 9.43446 22.0138 -8.94956
49 1 18.8696 9.43441 22.0137 -8.94952
344 1 1.57192 11.007 1.57172 -8.94955
345 1 4.71653 11.007 1.57112 -8.94992
346 1 7.86205 11.007 1.57218 -8.94684
347 1 11.0067 11.007 1.57029 -8.94885
348 1 14.1538 11.007 1.56902 -8.94959
349 1 17.2979 11.007 1.57131 -8.94948
350 1 20.4418 11.007 1.57192 -8.94953
538 1 17.2971 20.4421 11.0069 -8.94954
352 1 1.57199 14.152 1.57177 -8.94939
353 1 3.14436 12.5795 -0.000231326 -8.94967
354 1 4.71685 14.1517 1.57123 -8.95036
688 3 10.2323 11.007 9.53646 2.25728
356 1 7.86172 14.1523 1.56988 -8.95214
511 1 18.8695 18.8699 9.43438 -8.94948
358 1 11.0065 14.1526 1.56982 -8.95064
510 1 15.7252 18.8707 9.43422 -8.94937
360 1 14.1533 14.1533 1.56924 -8.95124
361 1 15.7253 12.5797 -0.000640331 -8.94948
362 1 17.2978 14.1524 1.57132 -8.9493
532 1 20.4414 17.2977 11.007 -8.94944
364 1 20.4418 14.152 1.57196 -8.94949
509 1 12.5793 18.8704 9.43468 -8.95011
366 1 1.57193 17.2971 1.57175 -8.94989
508 1 9.4344 18.8686 9.43489 -8.94451
368 1 4.71632 17.2977 1.57075 -8.94949
507 1 6.28816 18.8734 9.43485 -8.95148
370 1 7.86181 17.2977 1.57106 -8.94913
371 1 9.43428 15.725 -0.000815016 -8.94974
372 1 11.0071 17.2978 1.5712 -8.94921
373 1 12.5794 15.7249 -0.000709801 -8.94979
374 1 14.1523 17.2978 1.57127 -8.94978
506 1 3.14319 18.8713 9.43438 -8.94933
376 1 17.2977 17.2978 1.57142 -8.94872
505 1 22.0133 18.8699 9.43444 -8.94946
378 1 20.4417 17.297 1.57203 -8.9496
504 1 18.8703 15.7258 9.43409 -8.94921
380 1 1.57205 20.4418 1.57197 -8.94924
503 1 15.728 15.7283 9.43316 -8.94526
382 1 4.71702 20.4418 1.57194 -8.94959
502 1 12.58 15.7281 9.43337 -8.95435
384 1 7.86204 20.4419 1.57194 -8.94952
531 1 17.2982 17.2985 11.0067 -8.94889
386 1 11.007 20.4419 1.57196 -8.94953
501 1 9.42986 15.7132 9.43613 -9.01011
388 1 14.152 20.4418 1.57207 -8.94949
500 1 6.27943 15.7389 9.43377 -8.95513
390 1 17.297 20.4419 1.57205 -8.94949
499 1 3.13845 15.7293 9.43339 -8.94715
392 1 20.4415 20.4417 1.5722 -8.94937
393 1 1.57089 11.007 4.71546 -8.94939
394 1 4.71434 11.007 4.71317 -8.94584
395 1 7.86425 11.007 4.72195 -8.9357
396 1 11.0096 11.007 4.713 -8.98688
397 1 14.1606 11.007 4.70739 -8.94269
398 1 17.3004 11.007 4.71473 -8.94917
399 1 20.442 11.007 4.7162 -8.94974
400 1 -0.000264602 12.5795 3.14397 -8.94949
401 1 1.57096 14.1522 4.71565 -8.9495
402 1 3.14363 12.5795 3.14299 -8.94883
403 1 4.71453 14.1527 4.71282 -8.95409
404 1 6.28944 12.5784 3.14299 -8.95087
405 1 7.85754 14.1575 4.7062 -8.95627
406 1 9.43404 12.5795 3.14284 -8.94906
407 1 11.0068 14.1554 4.70839 -8.95431
408 1 12.5819 12.5806 3.13665 -8.95698
409 1 14.1618 14.1612 4.70569 -8.93819
410 1 15.7274 12.5805 3.14133 -8.94812
411 1 17.3002 14.1536 4.7149 -8.95033
412 1 18.8703 12.5797 3.14374 -8.94936
413 1 20.4419 14.1523 4.71634 -8.94981
414 1 22.0136 15.7246 3.1441 -8.94974
415 1 1.57006 17.2986 4.7152 -8.94826
416 1 3.1435 15.725 3.14285 -8.95083
417 1 4.71315 17.3012 4.71258 -8.94417
418 1 6.28737 15.7268 3.13998 -8.95018
419 1 7.86118 17.3003 4.71423 -8.94843
420 1 9.43419 15.7268 3.14124 -8.94805
421 1 11.0075 17.2997 4.71466 -8.94716
422 1 12.5802 15.7265 3.14135 -8.95
423 1 14.1545 17.301 4.7142 -8.94883
424 1 15.7276 15.7276 3.1411 -8.94649
425 1 17.2983 17.2984 4.71596 -8.94908
426 1 18.8702 15.7251 3.14385 -8.94964
427 1 20.4413 17.2975 4.71653 -8.94971
428 1 22.0133 18.8697 3.14416 -8.94914
429 1 1.57178 20.4421 4.71672 -8.94961
430 1 3.1436 18.8704 3.14337 -8.94825
431 1 4.71651 20.4427 4.71629 -8.95002
432 1 6.2892 18.8704 3.14357 -8.94945
433 1 7.86205 20.4426 4.71638 -8.94949
434 1 9.43458 18.8703 3.14367 -8.94946
435 1 11.0073 20.4424 4.71645 -8.94938
436 1 12.5797 18.8703 3.14389 -8.94907
437 1 14.1522 20.4424 4.71682 -8.95048
438 1 15.7252 18.8706 3.14377 -8.9493
439 1 17.297 20.442 4.71701 -8.94973
440 1 18.8694 18.8697 3.14434 -8.94942
441 1 20.4414 20.4418 4.71706 -8.94956
442 1 1.56863 11.007 7.85984 -8.94738
443 1 4.71107 11.007 7.85733 -8.93545
444 1 7.87639 11.007 7.89653 -8.91487
445 1 11.0692 11.007 7.69794 -8.23004
446 1 14.1658 11.007 7.85212 -8.95912
447 1 17.3015 11.007 7.86068 -8.95048
448 1 20.4417 11.007 7.86125 -8.94977
449 1 -0.00107384 12.5796 6.28839 -8.9494
450 1 1.56654 14.1542 7.85968 -8.9528
451 1 3.14113 12.5795 6.28629 -8.94799
452 1 4.69606 14.1673 7.84736 -8.94047
453 1 6.28634 12.5766 6.28366 -8.96408
454 1 7.82166 14.1925 7.8222 -8.83933
455 1 9.42256 12.5951 6.28622 -8.93254
456 1 11.025 14.1677 7.83204 -8.88663
457 1 12.6096 12.6022 6.25615 -8.89746
458 1 14.165 14.1623 7.85293 -8.94159
459 1 15.7334 12.5818 6.28461 -8.95443
460 1 17.3009 14.154 7.8607 -8.9511
461 1 18.8714 12.5799 6.2885 -8.95074
462 1 20.4413 14.1527 7.86134 -8.95061
463 1 22.012 15.7256 6.28836 -8.95038
464 1 1.57023 17.2987 7.86126 -8.94898
465 1 3.13728 15.73 6.2838 -8.94597
466 1 4.71315 17.3029 7.85978 -8.95008
467 1 6.27657 15.7382 6.27579 -8.9273
468 1 7.8605 17.3051 7.86046 -8.96075
469 1 9.4339 15.7331 6.28295 -8.94508
470 1 11.0056 17.2993 7.86178 -8.95522
471 1 12.5862 15.7349 6.28111 -8.94712
472 1 14.153 17.3 7.86145 -8.95077
473 1 15.7292 15.7288 6.28612 -8.94758
474 1 17.2979 17.2984 7.86154 -8.9488
475 1 18.8703 15.7255 6.28877 -8.95006
476 1 20.4413 17.2977 7.86173 -8.94936
477 1 -0.000619629 18.8699 6.28927 -8.94944
478 1 1.57174 20.4421 7.86189 -8.94949
479 1 3.14319 18.8713 6.28846 -8.94974
480 1 4.71641 20.443 7.86175 -8.95012
481 1 6.28837 18.873 6.28798 -8.95165
482 1 7.86227 20.4431 7.86203 -8.9516
483 1 9.43481 18.8722 6.28817 -8.94993
484 1 11.0068 20.4421 7.86224 -8.94992
485 1 12.5796 18.8715 6.28916 -8.9522
486 1 14.1521 20.4423 7.86208 -8.95001
487 1 15.725 18.8706 6.28926 -8.94998
488 1 17.2971 20.442 7.86193 -8.94948
489 1 18.8694 18.8698 6.2894 -8.94943
490 1 20.4414 20.4418 7.86199 -8.94954
491 1 22.011 12.58 9.43377 -8.95095
492 1 3.13234 12.5826 9.43085 -8.95472
493 1 6.24853 12.6252 9.3974 -8.86234
494 1 9.37181 12.8199 9.40664 -7.80671
495 1 12.5966 12.602 9.4005 -8.83788
496 1 15.732 12.5819 9.4317 -8.94774
497 1 18.8714 12.5802 9.43383 -8.94953
498 1 -0.00182626 15.7258 9.43414 -8.94953
526 1 1.57027 17.2986 11.0072 -8.94914
527 1 4.71286 17.3022 11.0081 -8.94703
534 1 4.71629 20.443 11.0073 -8.94968
389 1 15.7245 18.8696 -0.000220415 -8.94969
377 1 18.8695 15.7246 -0.000162053 -8.94952
383 1 6.2895 18.8695 -0.000341333 -8.94943
512 1 1.56537 11.007 11.0071 -8.95232
513 1 4.69284 11.007 11.0071 -9.01944
514 1 7.49745 11.007 11.0234 -7.88734
515 1 11.421 11.007 11.1824 -7.15584
516 1 14.1821 11.007 11.0172 -9.0205
517 1 17.3049 11.007 11.0068 -8.95438
518 1 20.4418 11.007 11.0068 -8.95072
519 1 1.56661 14.1541 11.0071 -8.95115
520 1 4.6984 14.1612 11.0088 -8.95126
521 1 7.81599 14.1668 11.0364 -8.86661
522 1 11.0353 14.1452 11.0255 -8.89863
523 1 14.1653 14.1588 11.0046 -8.94757
524 1 17.3016 14.1543 11.0063 -8.94969
525 1 20.4415 14.1529 11.0068 -8.9503
687 3 9.45585 11.007 10.9415 2.28386
391 1 18.8694 18.8695 22.0138 -8.94928
528 1 7.86045 17.3002 11.0079 -8.95369
529 1 11.0059 17.2957 11.0063 -8.94742
530 1 14.1538 17.3002 11.0061 -8.94794
686 1 20.4416 20.4417 20.4416 -8.94915
685 1 18.8696 18.8698 18.8697 -8.94874
533 1 1.57172 20.4421 11.0071 -8.9495
387 1 12.5795 18.8696 22.0136 -8.94941
535 1 7.86242 20.4424 11.0071 -8.94999
536 1 11.0066 20.4417 11.0068 -8.94858
537 1 14.1522 20.4424 11.0068 -8.9497
684 1 17.2968 20.4417 20.4416 -8.94966
539 1 20.4414 20.4418 11.007 -8.94955
540 1 1.56784 11.007 14.1546 -8.94914
541 1 4.70486 11.007 14.1609 -8.93965
542 1 7.85268 11.007 14.1379 -8.95359
543 1 11.0259 11.007 14.1446 -8.98763
544 1 14.1694 11.007 14.1665 -8.93766
545 1 17.3038 11.007 14.1559 -8.94807
546 1 20.4422 11.007 14.1532 -8.9502
547 1 22.0114 12.58 12.5803 -8.95175
548 1 1.56787 14.1541 14.1545 -8.9511
549 1 3.13168 12.5826 12.5838 -8.95588
550 1 4.70218 14.1657 14.1669 -8.92698
551 1 6.24333 12.6195 12.6237 -8.82088
552 1 7.86193 14.156 14.1599 -8.95192
553 1 9.43549 12.5828 12.5691 -8.63733
554 1 11.005 14.1582 14.1615 -8.94181
555 1 12.6533 12.6544 12.6549 -8.70685
556 1 14.1778 14.1777 14.178 -8.90126
557 1 15.7442 12.5855 12.5867 -8.96025
558 1 17.3044 14.1559 14.1558 -8.95227
559 1 18.8734 12.5803 12.5803 -8.95317
560 1 20.4422 14.1529 14.1529 -8.95104
561 1 -0.00159715 15.7256 12.5799 -8.94974
562 1 1.57045 17.2986 14.1531 -8.94943
563 1 3.13867 15.7289 12.5821 -8.94887
564 1 4.71301 17.3032 14.1564 -8.94792
565 1 6.27748 15.7406 12.5903 -8.94716
566 1 7.86287 17.2986 14.1531 -8.95016
567 1 9.43485 15.7219 12.5779 -8.95289
568 1 11.0058 17.2994 14.1534 -8.94926
569 1 12.5868 15.7417 12.5863 -8.96406
570 1 14.1554 17.3045 14.1556 -8.95205
571 1 15.7294 15.7293 12.5803 -8.94945
572 1 17.2985 17.2989 14.1526 -8.94988
573 1 18.8707 15.7258 12.5796 -8.9495
574 1 20.4415 17.2976 14.1522 -8.94958
575 1 22.0133 18.8699 12.5796 -8.9494
576 1 1.57182 20.4421 14.1522 -8.94948
577 1 3.14328 18.8712 12.5802 -8.94906
578 1 4.71663 20.4429 14.1526 -8.95079
579 1 6.28881 18.873 12.5804 -8.95342
580 1 7.86237 20.4422 14.1523 -8.94946
581 1 9.43473 18.8695 12.5796 -8.94805
582 1 11.0068 20.4423 14.1523 -8.94965
583 1 12.5793 18.8724 12.5794 -8.9547
584 1 14.1522 20.443 14.1522 -8.95138
585 1 15.7251 18.8709 12.5793 -8.94949
586 1 17.2971 20.4421 14.1519 -8.94964
587 1 18.8695 18.8699 12.5794 -8.94938
588 1 20.4414 20.4418 14.1519 -8.94952
589 1 1.57126 11.007 17.2983 -8.94945
590 1 4.71509 11.007 17.3004 -8.94882
591 1 7.86253 11.007 17.2952 -8.94438
592 1 11.0064 11.007 17.2975 -8.94494
593 1 14.1555 11.007 17.3031 -8.94758
594 1 17.299 11.007 17.2991 -8.94906
595 1 20.4419 11.007 17.2977 -8.94945
596 1 -0.000905598 12.5798 15.7257 -8.94922
597 1 1.57135 14.1524 17.2982 -8.9492
598 1 3.14121 12.5806 15.7282 -8.94729
599 1 4.71577 14.1532 17.3008 -8.95193
600 1 6.28718 12.5801 15.7325 -8.96159
601 1 7.86299 14.1519 17.2984 -8.95234
602 1 9.43504 12.5756 15.7184 -8.95073
603 1 11.0053 14.1528 17.2995 -8.95128
604 1 12.5848 12.583 15.7408 -8.96643
605 1 14.1548 14.1552 17.304 -8.95313
606 1 15.7305 12.5815 15.7309 -8.94668
607 1 17.2988 14.153 17.2991 -8.94912
608 1 18.8713 12.58 15.7261 -8.94906
609 1 20.4419 14.1522 17.2977 -8.94931
610 1 22.0129 15.7255 15.7256 -8.94999
611 1 1.5712 17.2981 17.2983 -8.94819
612 1 3.14025 15.7288 15.7293 -8.94415
613 1 4.71658 17.298 17.2984 -8.95011
614 1 6.28846 15.727 15.7285 -8.95103
615 1 7.86188 17.2978 17.298 -8.94844
616 1 9.43383 15.727 15.7275 -8.9429
617 1 11.0066 17.2981 17.2981 -8.9486
618 1 12.5799 15.7286 15.7291 -8.94932
619 1 14.1524 17.2986 17.2986 -8.94991
620 1 15.7323 15.7327 15.7325 -8.93755
621 1 17.299 17.2992 17.2991 -8.9465
622 1 18.8715 15.7261 15.7261 -8.94993
623 1 20.4419 17.2976 17.2976 -8.94941
624 1 -0.000483787 18.8698 15.7247 -8.94955
625 1 1.57191 20.442 17.2972 -8.94931
626 1 3.14336 18.8712 15.7259 -8.94887
627 1 4.71718 20.4419 17.2971 -8.94975
628 1 6.28977 18.8702 15.7251 -8.94981
629 1 7.86201 20.4419 17.2972 -8.9494
630 1 9.43436 18.8705 15.7254 -8.94925
631 1 11.0069 20.442 17.2972 -8.94945
632 1 12.5792 18.8707 15.7251 -8.94953
633 1 14.1519 20.442 17.2971 -8.94966
634 1 15.7257 18.8719 15.7258 -8.94983
635 1 17.2972 20.4422 17.2973 -8.94953
636 1 18.8696 18.8699 15.7246 -8.94974
637 1 20.4415 20.4418 17.2969 -8.94962
638 1 1.57203 11.007 20.4419 -8.94955
639 1 4.71677 11.007 20.4422 -8.95004
640 1 7.86213 11.007 20.4413 -8.94836
641 1 11.0063 11.007 20.4416 -8.94883
642 1 14.1527 11.007 20.4425 -8.95029
643 1 17.2975 11.007 20.442 -8.94948
644 1 20.4417 11.007 20.4417 -8.94955
645 1 22.0137 12.5795 18.8697 -8.94951
646 1 1.57208 14.152 20.4419 -8.94949
647 1 3.144 12.5796 18.8705 -8.94934
648 1 4.71699 14.1519 20.4421 -8.95036
649 1 6.28966 12.5792 18.8707 -8.95175
650 1 7.86207 14.152 20.4415 -8.95016
651 1 9.43417 12.5791 18.8686 -8.9472
652 1 11.0064 14.1522 20.4417 -8.95012
653 1 12.5794 12.5796 18.8725 -8.95362
654 1 14.1523 14.1525 20.4425 -8.95118
655 1 15.7257 12.5799 18.8714 -8.94916
656 1 17.2974 14.1522 20.442 -8.94939
657 1 18.8698 12.5796 18.8699 -8.94939
658 1 20.4417 14.152 20.4417 -8.94953
659 1 -0.000172177 15.7246 18.8697 -8.94954
660 1 1.57213 17.297 20.4418 -8.94971
661 1 3.14411 15.725 18.8705 -8.95004
662 1 4.71701 17.2971 20.4416 -8.94996
663 1 6.28968 15.7247 18.8701 -8.95038
664 1 7.86189 17.2973 20.4416 -8.94939
665 1 9.43416 15.7253 18.8704 -8.94932
666 1 11.0069 17.2974 20.4417 -8.94943
667 1 12.5791 15.7251 18.8706 -8.94985
668 1 14.1519 17.2973 20.4418 -8.94971
669 1 15.7257 15.7259 18.8715 -8.95015
670 1 17.2973 17.2974 20.442 -8.94952
671 1 18.8698 15.7248 18.8699 -8.94953
672 1 20.4417 17.2969 20.4417 -8.94961
673 1 22.0137 18.8696 18.8696 -8.94915
674 1 1.57229 20.4417 20.4416 -8.94954
675 1 3.14453 18.8696 18.8696 -8.94974
676 1 4.71717 20.4417 20.4415 -8.94952
677 1 6.28956 18.8696 18.8695 -8.9493
678 1 7.86203 20.4417 20.4416 -8.94955
679 1 9.43441 18.8697 18.8696 -8.94953
680 1 11.007 20.4417 20.4416 -8.94956
681 1 12.5794 18.8697 18.8696 -8.9493
682 1 14.1519 20.4417 20.4416 -8.9495
683 1 15.7245 18.8698 18.8697 -8.94976
355 1 6.28952 12.5792 22.0136 -8.94989
357 1 9.43419 12.5794 22.0131 -8.94881
359 1 12.5795 12.5796 22.0126 -8.95158
365 1 22.0138 15.7244 22.0138 -8.94952
367 1 3.14451 15.7244 22.0137 -8.95006
369 1 6.28933 15.7247 22.013 -8.95042
375 1 15.7251 15.7252 22.0133 -8.95013
381 1 3.1445 18.8695 22.0135 -8.94953
379 1 22.0138 18.8693 22.0138 -8.94958
351 1 22.0138 12.5794 22.0138 -8.94956
363 1 18.8696 12.5795 22.0137 -8.94952
385 1 9.43449 18.8696 22.0136 -8.94952
