ITEM: TIMESTEP
93
ITEM: NUMBER OF ATOMS
688
ITEM: BOX BOUNDS pp pp pp
0.0000000000000000e+00 2.2013900999999997e+01
0.0000000000000000e+00 2.2013900999999997e+01
0.0000000000000000e+00 2.2013900999999997e+01
ITEM: ATOMS id type x y z c_pot
189 1 20.4414 4.7163 11.007 -8.94945
2 1 1.5721 1.57215 1.57203 -8.94926
175 1 18.8713 9.43372 9.43389 -8.94954
4 1 4.71706 1.57211 1.57201 -8.94961
174 1 15.7318 9.43197 9.43173 -8.94773
6 1 7.86206 1.57208 1.572 -8.94953
7 1 9.43452 4.24125e-16 -0.000139188 -8.94959
8 1 11.007 1.57207 1.57201 -8.94955
173 1 12.5965 9.41171 9.40018 -8.8367
10 1 14.1519 1.57211 1.57211 -8.9495
172 1 9.37099 9.19454 9.40707 -7.80714
12 1 17.2969 1.57207 1.5721 -8.9495
188 1 17.2981 4.71552 11.0067 -8.94891
14 1 20.4415 1.5722 1.57223 -8.9494
171 1 6.24858 9.38886 9.39729 -8.86245
16 1 1.57198 4.71688 1.57183 -8.94988
170 1 3.13259 9.43142 9.43095 -8.95483
18 1 4.7164 4.71629 1.57088 -8.94949
169 1 22.0112 9.43399 9.43384 -8.95097
20 1 7.86185 4.71627 1.57117 -8.94914
183 1 1.57044 4.71546 11.0072 -8.94916
22 1 11.0071 4.71623 1.57129 -8.94923
168 1 18.8703 6.28819 9.43414 -8.94921
24 1 14.1522 4.71626 1.57137 -8.94978
167 1 15.7278 6.2858 9.43326 -8.94532
26 1 17.2976 4.7162 1.57149 -8.94872
166 1 12.5798 6.28582 9.4334 -8.95454
28 1 20.4417 4.71695 1.57208 -8.94961
165 1 9.42987 6.30042 9.43616 -9.00993
30 1 1.57202 7.86197 1.57184 -8.9494
164 1 6.27975 6.27516 9.4338 -8.95517
32 1 4.71687 7.8622 1.5713 -8.95033
163 1 3.13876 6.2849 9.43347 -8.94717
34 1 7.86173 7.86163 1.56996 -8.95211
35 1 9.4343 6.28892 -0.00075798 -8.94973
36 1 11.0065 7.8613 1.56992 -8.95059
37 1 12.5794 6.28903 -0.000659223 -8.94977
38 1 14.1532 7.86072 1.56936 -8.95123
162 1 -0.00169951 6.28827 9.43419 -8.94952
40 1 17.2977 7.86154 1.57142 -8.94932
161 1 18.8694 3.1441 9.4344 -8.9495
42 1 20.4417 7.86193 1.57201 -8.9495
181 1 17.2971 1.5719 11.0069 -8.94954
44 1 3.1444 9.43445 -0.000217688 -8.94967
160 1 15.7251 3.14325 9.43425 -8.94937
159 1 12.5794 3.14352 9.43468 -8.9501
158 1 9.43444 3.1452 9.43487 -8.94458
48 1 15.7252 9.4342 -0.000610211 -8.94948
157 1 6.28826 3.14066 9.43484 -8.95144
50 1 22.0137 1.6918e-15 3.14461 -8.94958
51 1 1.57186 1.57189 4.7168 -8.94963
52 1 3.1444 1.33748e-15 3.14431 -8.94957
53 1 4.71657 1.57133 4.71638 -8.95001
54 1 6.28955 1.70124e-15 3.14432 -8.9495
55 1 7.86206 1.57142 4.71646 -8.94948
56 1 9.4346 8.65704e-16 3.1443 -8.94954
57 1 11.0073 1.57152 4.71651 -8.94938
58 1 12.5796 1.0491e-15 3.1444 -8.94942
59 1 14.1521 1.57157 4.71686 -8.95044
60 1 15.7245 3.58973e-16 3.14454 -8.94991
61 1 17.2969 1.572 4.71705 -8.94973
62 1 18.8692 -2.94444e-16 3.1447 -8.94965
63 1 20.4414 1.57218 4.7171 -8.94958
64 1 22.0134 3.14424 3.14424 -8.94915
65 1 1.5702 4.7154 4.71536 -8.94827
66 1 3.1437 3.14363 3.1435 -8.94828
67 1 4.71333 4.71293 4.71279 -8.94421
68 1 6.28926 3.14365 3.14369 -8.94947
69 1 7.86128 4.71379 4.71439 -8.94846
70 1 9.43459 3.14366 3.14377 -8.94947
71 1 11.0075 4.71432 4.7148 -8.94721
72 1 12.5797 3.14373 3.14397 -8.94909
73 1 14.1544 4.71309 4.71439 -8.9489
74 1 15.7251 3.14346 3.14386 -8.94932
75 1 17.2982 4.71563 4.71608 -8.94907
76 1 18.8694 3.14425 3.14441 -8.94943
77 1 20.4413 4.71651 4.71662 -8.9497
78 1 22.0137 6.28938 3.14419 -8.94974
79 1 1.57106 7.86175 4.71579 -8.94949
80 1 3.1436 6.28896 3.143 -8.95079
81 1 4.71465 7.8613 4.71297 -8.95402
82 1 6.28748 6.28722 3.14017 -8.95017
83 1 7.85766 7.85653 4.70634 -8.95624
84 1 9.43422 6.28727 3.14139 -8.94805
85 1 11.0068 7.85861 4.7086 -8.95419
86 1 12.5802 6.28755 3.14155 -8.94996
87 1 14.1616 7.85281 4.7059 -8.93811
88 1 15.7275 6.28643 3.14126 -8.94647
89 1 17.3001 7.8604 4.71506 -8.95034
90 1 18.8701 6.28893 3.14395 -8.94965
91 1 20.4419 7.86169 4.71644 -8.94981
92 1 -0.000248718 9.43441 3.14406 -8.9495
93 1 3.14369 9.43439 3.14309 -8.94884
94 1 6.28945 9.43551 3.14299 -8.95088
95 1 9.43406 9.4344 3.14282 -8.94907
96 1 12.5818 9.43331 3.13678 -8.957
97 1 15.7272 9.43345 3.14152 -8.94813
98 1 18.8702 9.43426 3.14385 -8.94937
99 1 22.0137 7.21467e-16 6.28954 -8.94955
100 1 1.57182 1.57186 7.86193 -8.9495
101 1 3.14426 1.30423e-15 6.28932 -8.94977
102 1 4.71648 1.57096 7.86178 -8.9501
103 1 6.28947 1.41184e-15 6.28925 -8.95067
104 1 7.86228 1.57082 7.86204 -8.95158
105 1 9.43478 1.71423e-15 6.28918 -8.95026
106 1 11.0069 1.57176 7.86222 -8.94991
107 1 12.5795 9.20443e-16 6.28958 -8.95035
108 1 14.1521 1.57164 7.86209 -8.95
109 1 15.7245 3.16714e-16 6.28957 -8.94982
110 1 17.297 1.57194 7.86196 -8.94949
111 1 18.8692 1.05806e-15 6.28957 -8.94954
112 1 20.4414 1.57213 7.86201 -8.94956
113 1 -0.00054662 3.14414 6.28934 -8.94946
114 1 1.5704 4.7154 7.86136 -8.94901
115 1 3.14333 3.14277 6.28858 -8.94975
116 1 4.71338 4.71125 7.85991 -8.95011
117 1 6.28846 3.14103 6.28807 -8.95162
118 1 7.86061 4.70889 7.86051 -8.96067
119 1 9.43483 3.14183 6.28824 -8.9499
120 1 11.0057 4.71464 7.86184 -8.95507
121 1 12.5796 3.14251 6.28921 -8.95214
122 1 14.1529 4.71398 7.86154 -8.95082
123 1 15.7249 3.14341 6.28931 -8.94997
124 1 17.2979 4.71568 7.86161 -8.94883
125 1 18.8694 3.14422 6.28945 -8.94945
126 1 20.4413 4.71636 7.86179 -8.94937
127 1 22.0121 6.28844 6.28847 -8.95036
128 1 1.56675 7.85987 7.85981 -8.95279
129 1 3.13754 6.28411 6.28401 -8.94595
130 1 4.69635 7.8468 7.84751 -8.94037
131 1 6.27684 6.27591 6.27602 -8.92737
132 1 7.82189 7.82163 7.82234 -8.83942
133 1 9.43398 6.28092 6.28314 -8.94513
134 1 11.0244 7.84649 7.8325 -8.88709
135 1 12.586 6.2792 6.28145 -8.94737
136 1 14.1648 7.85167 7.85309 -8.94128
137 1 15.729 6.28531 6.28629 -8.94751
138 1 17.3008 7.86 7.8608 -8.95106
139 1 18.8703 6.28851 6.28886 -8.95004
140 1 20.4413 7.86124 7.86142 -8.9506
141 1 -0.00101673 9.43429 6.2885 -8.94942
142 1 3.14125 9.4344 6.28641 -8.94799
143 1 6.28641 9.43731 6.28358 -8.96403
144 1 9.42257 9.41886 6.28618 -8.93222
145 1 12.6095 9.41157 6.25623 -8.89721
146 1 15.7332 9.43211 6.28481 -8.95448
147 1 18.8713 9.43408 6.28861 -8.95074
148 1 -0.000265152 6.43957e-16 9.4345 -8.94957
149 1 3.14417 -7.66705e-17 9.4345 -8.94961
150 1 6.28937 7.27446e-16 9.43468 -8.95069
151 1 9.43474 1.59335e-15 9.4346 -8.94789
152 1 12.5795 1.04564e-15 9.4346 -8.94978
153 1 15.7246 2.17568e-16 9.43442 -8.94971
154 1 18.8693 1.2603e-15 9.43447 -8.94958
155 1 22.0134 3.14408 9.43446 -8.94948
156 1 3.14332 3.14281 9.43439 -8.94933
177 1 4.71635 1.57098 11.0073 -8.94967
184 1 4.7131 4.71192 11.0081 -8.94707
3 1 3.14475 1.65275e-15 -0.0001351 -8.94962
11 1 15.7243 4.86443e-17 -8.53196e-05 -8.94958
41 1 18.8695 6.28941 -0.000149205 -8.94954
19 1 6.28953 3.14443 -0.000297044 -8.94945
25 1 15.7244 3.14442 -0.000197227 -8.94969
176 1 1.5718 1.57186 11.007 -8.94951
47 1 12.5795 9.43436 22.0127 -8.95156
178 1 7.86242 1.57144 11.0071 -8.95003
179 1 11.0067 1.57215 11.0068 -8.94862
180 1 14.1522 1.5715 11.0068 -8.94969
343 1 18.8697 9.43437 18.8698 -8.94941
182 1 20.4415 1.57212 11.007 -8.94957
342 1 15.7256 9.43405 18.8713 -8.94917
46 1 9.43421 9.43449 22.0131 -8.94886
185 1 7.86056 4.71357 11.0079 -8.95369
186 1 11.0059 4.71805 11.0063 -8.94734
187 1 14.1536 4.71384 11.0061 -8.94797
341 1 12.5794 9.43434 18.8724 -8.95357
340 1 9.43416 9.43472 18.8687 -8.94727
190 1 1.56686 7.85994 11.0071 -8.95113
191 1 4.69887 7.85289 11.0088 -8.95132
192 1 7.8163 7.84684 11.0365 -8.8665
193 1 11.0348 7.86874 11.0252 -8.89896
194 1 14.1648 7.85524 11.0046 -8.94764
195 1 17.3014 7.85973 11.0063 -8.94964
196 1 20.4415 7.86108 11.0069 -8.95028
197 1 22.0137 3.9659e-16 12.5795 -8.94957
198 1 1.57189 1.57189 14.1521 -8.94949
199 1 3.14422 4.41131e-17 12.5797 -8.94953
200 1 4.71667 1.57106 14.1526 -8.95074
201 1 6.28963 1.26966e-15 12.5797 -8.95096
202 1 7.86236 1.57177 14.1522 -8.94946
203 1 9.4347 4.09283e-16 12.5796 -8.94911
204 1 11.0068 1.57163 14.1522 -8.94966
205 1 12.5793 2.65871e-16 12.5793 -8.95093
206 1 14.1521 1.571 14.1522 -8.95131
207 1 15.7246 7.88822e-16 12.5794 -8.94965
208 1 17.297 1.57189 14.1519 -8.94964
209 1 18.8692 1.74711e-15 12.5794 -8.94955
210 1 20.4415 1.57214 14.1519 -8.94953
211 1 22.0134 3.14411 12.5796 -8.94943
212 1 1.57059 4.71549 14.153 -8.94944
213 1 3.14341 3.14286 12.5801 -8.94908
214 1 4.71319 4.71095 14.1563 -8.94788
215 1 6.28886 3.14103 12.5804 -8.95336
216 1 7.86292 4.71534 14.153 -8.95016
217 1 9.43475 3.14429 12.5797 -8.94807
218 1 11.0058 4.7145 14.1533 -8.94926
219 1 12.5793 3.14157 12.5793 -8.95462
220 1 14.1552 4.70967 14.1554 -8.95206
221 1 15.7251 3.1431 12.5793 -8.94949
222 1 17.2984 4.71521 14.1525 -8.94989
223 1 18.8694 3.14411 12.5794 -8.9494
224 1 20.4415 4.7164 14.1521 -8.94958
225 1 -0.00148986 6.28839 12.5799 -8.94973
226 1 1.5681 7.85994 14.1543 -8.95109
227 1 3.13897 6.28521 12.5819 -8.9489
228 1 4.70261 7.84847 14.1666 -8.9272
229 1 6.27779 6.2734 12.5902 -8.94703
230 1 7.86205 7.85783 14.1599 -8.95195
231 1 9.43489 6.29184 12.5779 -8.95294
232 1 11.0048 7.85564 14.1615 -8.94164
233 1 12.5864 6.27242 12.586 -8.96413
234 1 14.1773 7.83657 14.1775 -8.90144
235 1 15.7291 6.28486 12.5802 -8.94946
236 1 17.3041 7.85819 14.1556 -8.95227
237 1 18.8705 6.28828 12.5796 -8.94948
238 1 20.4422 7.86113 14.1528 -8.95101
239 1 22.0115 9.43393 12.5802 -8.95169
240 1 3.13214 9.43145 12.5836 -8.95581
241 1 6.24412 9.39465 12.6234 -8.82133
242 1 9.43566 9.43097 12.5695 -8.6362
243 1 12.6525 9.35976 12.6547 -8.70679
244 1 15.7437 9.42855 12.5865 -8.96019
245 1 18.8732 9.4337 12.5802 -8.95309
246 1 -0.000202253 3.71845e-16 15.7244 -8.94957
247 1 1.57197 1.57195 17.2972 -8.94933
248 1 3.14437 -7.85938e-17 15.7248 -8.94992
249 1 4.7172 1.57208 17.297 -8.94975
250 1 6.28974 2.83801e-16 15.7246 -8.94957
251 1 7.86201 1.57199 17.2971 -8.94941
252 1 9.43451 2.58685e-16 15.7247 -8.9497
253 1 11.0069 1.57194 17.2972 -8.94946
254 1 12.5794 2.13025e-16 15.7246 -8.94961
255 1 14.1518 1.57194 17.297 -8.94965
256 1 15.7246 1.53463e-15 15.7246 -8.9503
257 1 17.2972 1.57177 17.2972 -8.94954
258 1 18.8692 1.72702e-15 15.7243 -8.94965
259 1 20.4415 1.57216 17.2968 -8.94964
260 1 -0.000439015 3.14419 15.7247 -8.94956
261 1 1.57128 4.71593 17.2981 -8.94823
262 1 3.14346 3.14285 15.7258 -8.94887
263 1 4.71664 4.71601 17.2983 -8.95009
264 1 6.28978 3.14374 15.725 -8.94981
265 1 7.86189 4.71611 17.2979 -8.94846
266 1 9.43438 3.14341 15.7253 -8.94926
267 1 11.0067 4.71586 17.2981 -8.94862
268 1 12.5792 3.14328 15.725 -8.94952
269 1 14.1523 4.71543 17.2984 -8.94991
270 1 15.7256 3.14224 15.7257 -8.94983
271 1 17.2988 4.71489 17.2989 -8.94656
272 1 18.8695 3.14409 15.7246 -8.94975
273 1 20.4418 4.71645 17.2974 -8.94943
274 1 22.013 6.28854 15.7255 -8.94998
275 1 1.57143 7.86154 17.2981 -8.94923
276 1 3.14045 6.28532 15.729 -8.94423
277 1 4.71586 7.86079 17.3006 -8.9519
278 1 6.28853 6.28704 15.7284 -8.951
279 1 7.86295 7.86193 17.2984 -8.95228
280 1 9.43383 6.28687 15.7275 -8.94293
281 1 11.0053 7.86113 17.2995 -8.95123
282 1 12.5798 6.28549 15.7289 -8.9493
283 1 14.1547 7.85886 17.3038 -8.95309
284 1 15.732 6.28153 15.7322 -8.93767
285 1 17.2987 7.86104 17.2989 -8.94916
286 1 18.8713 6.28793 15.7259 -8.94993
287 1 20.4418 7.86174 17.2975 -8.94933
288 1 -0.00084834 9.43414 15.7256 -8.94923
289 1 3.14144 9.43339 15.728 -8.94735
290 1 6.28735 9.43387 15.7324 -8.96157
291 1 9.43489 9.43813 15.7188 -8.9507
292 1 12.5845 9.43099 15.7407 -8.96632
293 1 15.7301 9.4326 15.7305 -8.94677
294 1 18.8712 9.434 15.7259 -8.94907
295 1 22.0138 1.31559e-15 18.8693 -8.94939
296 1 1.57231 1.57223 20.4415 -8.94956
297 1 3.14477 -1.05893e-15 18.8692 -8.94972
298 1 4.71719 1.57226 20.4415 -8.94953
299 1 6.28961 -1.07101e-15 18.8693 -8.94949
300 1 7.86204 1.57221 20.4416 -8.94957
301 1 9.43449 -7.10367e-16 18.8693 -8.94957
302 1 11.007 1.5722 20.4416 -8.94958
303 1 12.5794 1.23078e-15 18.8693 -8.9495
304 1 14.1518 1.57223 20.4416 -8.94952
305 1 15.7243 1.54206e-15 18.8693 -8.94966
306 1 17.2968 1.5722 20.4416 -8.94967
307 1 18.8693 1.77157e-15 18.8693 -8.94945
308 1 20.4416 1.57224 20.4416 -8.9492
309 1 22.0137 3.14439 18.8695 -8.94918
310 1 1.57216 4.71696 20.4418 -8.9497
311 1 3.14456 3.14435 18.8695 -8.94973
312 1 4.71704 4.71688 20.4416 -8.94993
313 1 6.28957 3.14439 18.8695 -8.94932
314 1 7.86191 4.71666 20.4416 -8.9494
315 1 9.43443 3.14423 18.8696 -8.94954
316 1 11.0069 4.71661 20.4417 -8.94944
317 1 12.5794 3.14427 18.8695 -8.94933
318 1 14.1519 4.7167 20.4417 -8.9497
319 1 15.7245 3.14417 18.8696 -8.94976
320 1 17.2973 4.71656 20.4419 -8.94952
321 1 18.8696 3.14417 18.8696 -8.94878
322 1 20.4416 4.71705 20.4417 -8.94963
323 1 -0.000161115 6.2894 18.8696 -8.94956
324 1 1.57211 7.86195 20.4418 -8.9495
325 1 3.14416 6.289 18.8704 -8.95003
326 1 4.71701 7.86198 20.4421 -8.95034
327 1 6.28967 6.28924 18.8701 -8.95033
328 1 7.86207 7.86192 20.4415 -8.95016
329 1 9.43418 6.28864 18.8703 -8.94932
330 1 11.0065 7.86171 20.4417 -8.95011
331 1 12.5791 6.28885 18.8705 -8.94982
332 1 14.1523 7.86147 20.4424 -8.95114
333 1 15.7256 6.28815 18.8714 -8.95013
334 1 17.2973 7.86176 20.4419 -8.9494
335 1 18.8697 6.28923 18.8698 -8.94955
336 1 20.4416 7.86198 20.4417 -8.94955
337 1 22.0137 9.43443 18.8697 -8.94953
338 1 3.14406 9.4343 18.8704 -8.94934
339 1 6.28966 9.43469 18.8707 -8.95171
45 1 6.28952 9.43468 22.0136 -8.9499
5 1 6.28962 8.09642e-16 22.0138 -8.94957
9 1 12.5794 4.35017e-17 22.0138 -8.94957
39 1 15.725 6.28883 22.0133 -8.95011
15 1 22.0138 3.14462 22.0138 -8.94959
17 1 3.14454 3.14447 22.0135 -8.94954
33 1 6.28935 6.28924 22.013 -8.95039
23 1 12.5795 3.14438 22.0137 -8.94943
31 1 3.14454 6.28952 22.0137 -8.95003
27 1 18.8694 3.14445 22.0138 -8.9493
29 1 22.0138 6.28955 22.0138 -8.94953
1 1 22.0138 1.23069e-15 22.0138 -8.94937
13 1 18.8692 1.33358e-15 22.0138 -8.94944
21 1 9.4345 3.14436 22.0136 -8.94953
43 1 22.0138 9.43447 22.0138 -8.94957
49 1 18.8695 9.43443 22.0137 -8.94954
344 1 1.57196 11.007 1.57179 -8.94956
345 1 4.71655 11.007 1.57117 -8.94992
346 1 7.86204 11.007 1.57214 -8.94693
347 1 11.0067 11.007 1.57031 -8.94885
348 1 14.1536 11.007 1.56915 -8.94958
349 1 17.2978 11.007 1.5714 -8.94949
350 1 20.4417 11.007 1.57199 -8.94954
538 1 17.2971 20.442 11.0069 -8.94954
352 1 1.57202 14.1519 1.57184 -8.9494
353 1 3.1444 12.5795 -0.000217688 -8.94967
354 1 4.71687 14.1517 1.5713 -8.95033
688 3 10.2326 11.007 9.53575 2.25581
356 1 7.86173 14.1523 1.56996 -8.95211
511 1 18.8694 18.8698 9.4344 -8.9495
358 1 11.0065 14.1526 1.56992 -8.95059
510 1 15.7251 18.8706 9.43425 -8.94937
360 1 14.1532 14.1532 1.56936 -8.95123
361 1 15.7252 12.5797 -0.000610211 -8.94948
362 1 17.2977 14.1524 1.57142 -8.94932
532 1 20.4414 17.2976 11.007 -8.94945
364 1 20.4417 14.152 1.57201 -8.9495
509 1 12.5794 18.8704 9.43468 -8.9501
366 1 1.57198 17.297 1.57183 -8.94988
508 1 9.43444 18.8687 9.43487 -8.94458
368 1 4.7164 17.2976 1.57088 -8.94949
507 1 6.28826 18.8732 9.43484 -8.95144
370 1 7.86185 17.2976 1.57117 -8.94914
371 1 9.4343 15.725 -0.00075798 -8.94973
372 1 11.0071 17.2977 1.57129 -8.94923
373 1 12.5794 15.7249 -0.000659223 -8.94977
374 1 14.1522 17.2976 1.57137 -8.94978
506 1 3.14332 18.8711 9.43439 -8.94933
376 1 17.2976 17.2977 1.57149 -8.94872
505 1 22.0134 18.8698 9.43446 -8.94948
378 1 20.4417 17.297 1.57208 -8.94961
504 1 18.8703 15.7257 9.43414 -8.94921
380 1 1.5721 20.4417 1.57203 -8.94926
503 1 15.7278 15.7281 9.43326 -8.94532
382 1 4.71706 20.4418 1.57201 -8.94961
502 1 12.5798 15.7281 9.4334 -8.95454
384 1 7.86206 20.4418 1.572 -8.94953
531 1 17.2981 17.2984 11.0067 -8.94891
386 1 11.007 20.4418 1.57201 -8.94955
501 1 9.42987 15.7135 9.43616 -9.00993
388 1 14.1519 20.4418 1.57211 -8.9495
500 1 6.27975 15.7387 9.4338 -8.95517
390 1 17.2969 20.4418 1.5721 -8.9495
499 1 3.13876 15.729 9.43347 -8.94717
392 1 20.4415 20.4417 1.57223 -8.9494
393 1 1.57097 11.007 4.71558 -8.9494
394 1 4.71442 11.007 4.71323 -8.94587
395 1 7.86425 11.007 4.72171 -8.93597
396 1 11.0096 11.007 4.71306 -8.98704
397 1 14.1603 11.007 4.70763 -8.94273
398 1 17.3002 11.007 4.7149 -8.94918
399 1 20.442 11.007 4.71631 -8.94974
400 1 -0.000248718 12.5795 3.14406 -8.9495
401 1 1.57106 14.1521 4.71579 -8.94949
402 1 3.14369 12.5795 3.14309 -8.94884
403 1 4.71465 14.1526 4.71297 -8.95402
404 1 6.28945 12.5784 3.14299 -8.95088
405 1 7.85766 14.1574 4.70634 -8.95624
406 1 9.43406 12.5795 3.14282 -8.94907
407 1 11.0068 14.1553 4.7086 -8.95419
408 1 12.5818 12.5806 3.13678 -8.957
409 1 14.1616 14.1611 4.7059 -8.93811
410 1 15.7272 12.5805 3.14152 -8.94813
411 1 17.3001 14.1535 4.71506 -8.95034
412 1 18.8702 12.5796 3.14385 -8.94937
413 1 20.4419 14.1522 4.71644 -8.94981
414 1 22.0137 15.7245 3.14419 -8.94974
415 1 1.5702 17.2985 4.71536 -8.94827
416 1 3.1436 15.7249 3.143 -8.95079
417 1 4.71333 17.301 4.71279 -8.94421
418 1 6.28748 15.7267 3.14017 -8.95017
419 1 7.86128 17.3001 4.71439 -8.94846
420 1 9.43422 15.7266 3.14139 -8.94805
421 1 11.0075 17.2996 4.7148 -8.94721
422 1 12.5802 15.7264 3.14155 -8.94996
423 1 14.1544 17.3008 4.71439 -8.9489
424 1 15.7275 15.7275 3.14126 -8.94647
425 1 17.2982 17.2983 4.71608 -8.94907
426 1 18.8701 15.725 3.14395 -8.94965
427 1 20.4413 17.2974 4.71662 -8.9497
428 1 22.0134 18.8697 3.14424 -8.94915
429 1 1.57186 20.442 4.7168 -8.94963
430 1 3.1437 18.8703 3.1435 -8.94828
431 1 4.71657 20.4426 4.71638 -8.95001
432 1 6.28926 18.8702 3.14369 -8.94947
433 1 7.86206 20.4425 4.71646 -8.94948
434 1 9.43459 18.8702 3.14377 -8.94947
435 1 11.0073 20.4424 4.71651 -8.94938
436 1 12.5797 18.8702 3.14397 -8.94909
437 1 14.1521 20.4423 4.71686 -8.95044
438 1 15.7251 18.8704 3.14386 -8.94932
439 1 17.2969 20.4419 4.71705 -8.94973
440 1 18.8694 18.8696 3.14441 -8.94943
441 1 20.4414 20.4417 4.7171 -8.94958
442 1 1.56875 11.007 7.85994 -8.94743
443 1 4.71113 11.007 7.85726 -8.93553
444 1 7.87616 11.007 7.89576 -8.915
445 1 11.0695 11.007 7.69722 -8.22951
446 1 14.1657 11.007 7.85224 -8.95929
447 1 17.3014 11.007 7.86079 -8.95052
448 1 20.4417 11.007 7.86133 -8.94979
449 1 -0.00101673 12.5796 6.2885 -8.94942
450 1 1.56675 14.154 7.85981 -8.95279
451 1 3.14125 12.5795 6.28641 -8.94799
452 1 4.69635 14.1671 7.84751 -8.94037
453 1 6.28641 12.5766 6.28358 -8.96403
454 1 7.82189 14.1923 7.82234 -8.83942
455 1 9.42257 12.595 6.28618 -8.93222
456 1 11.0244 14.1674 7.8325 -8.88709
457 1 12.6095 12.6023 6.25623 -8.89721
458 1 14.1648 14.1622 7.85309 -8.94128
459 1 15.7332 12.5818 6.28481 -8.95448
460 1 17.3008 14.1539 7.8608 -8.95106
461 1 18.8713 12.5798 6.28861 -8.95074
462 1 20.4413 14.1527 7.86142 -8.9506
463 1 22.0121 15.7255 6.28847 -8.95036
464 1 1.5704 17.2985 7.86136 -8.94901
465 1 3.13754 15.7298 6.28401 -8.94595
466 1 4.71338 17.3027 7.85991 -8.95011
467 1 6.27684 15.738 6.27602 -8.92737
468 1 7.86061 17.305 7.86051 -8.96067
469 1 9.43398 15.733 6.28314 -8.94513
470 1 11.0057 17.2993 7.86184 -8.95507
471 1 12.586 15.7347 6.28145 -8.94737
472 1 14.1529 17.2999 7.86154 -8.95082
473 1 15.729 15.7286 6.28629 -8.94751
474 1 17.2979 17.2982 7.86161 -8.94883
475 1 18.8703 15.7254 6.28886 -8.95004
476 1 20.4413 17.2975 7.86179 -8.94937
477 1 -0.00054662 18.8698 6.28934 -8.94946
478 1 1.57182 20.442 7.86193 -8.9495
479 1 3.14333 18.8711 6.28858 -8.94975
480 1 4.71648 20.4429 7.86178 -8.9501
481 1 6.28846 18.8729 6.28807 -8.95162
482 1 7.86228 20.4431 7.86204 -8.95158
483 1 9.43483 18.8721 6.28824 -8.9499
484 1 11.0069 20.4421 7.86222 -8.94991
485 1 12.5796 18.8714 6.28921 -8.95214
486 1 14.1521 20.4423 7.86209 -8.95
487 1 15.7249 18.8705 6.28931 -8.94997
488 1 17.297 20.442 7.86196 -8.94949
489 1 18.8694 18.8697 6.28945 -8.94945
490 1 20.4414 20.4418 7.86201 -8.94956
491 1 22.0112 12.5799 9.43384 -8.95097
492 1 3.13259 12.5825 9.43095 -8.95483
493 1 6.24858 12.625 9.39729 -8.86245
494 1 9.37099 12.8194 9.40707 -7.80714
495 1 12.5965 12.6022 9.40018 -8.8367
496 1 15.7318 12.5819 9.43173 -8.94773
497 1 18.8713 12.5802 9.43389 -8.94954
498 1 -0.00169951 15.7256 9.43419 -8.94952
526 1 1.57044 17.2984 11.0072 -8.94916
527 1 4.7131 17.302 11.0081 -8.94707
534 1 4.71635 20.4429 11.0073 -8.94967
389 1 15.7244 18.8695 -0.000197227 -8.94969
377 1 18.8695 15.7245 -0.000149205 -8.94954
383 1 6.28953 18.8695 -0.000297044 -8.94945
512 1 1.56561 11.007 11.0071 -8.95227
513 1 4.69334 11.007 11.0071 -9.01935
514 1 7.49817 11.007 11.0225 -7.88676
515 1 11.4222 11.007 11.1809 -7.15292
516 1 14.1819 11.007 11.0168 -9.02037
517 1 17.3047 11.007 11.0067 -8.95445
518 1 20.4418 11.007 11.0068 -8.95071
519 1 1.56686 14.154 11.0071 -8.95113
520 1 4.69887 14.161 11.0088 -8.95132
521 1 7.8163 14.1671 11.0365 -8.8665
522 1 11.0348 14.1452 11.0252 -8.89896
523 1 14.1648 14.1587 11.0046 -8.94764
524 1 17.3014 14.1542 11.0063 -8.94964
525 1 20.4415 14.1528 11.0069 -8.95028
687 3 9.45647 11.007 10.9444 2.28351
391 1 18.8694 18.8694 22.0138 -8.9493
528 1 7.86056 17.3003 11.0079 -8.95369
529 1 11.0059 17.2959 11.0063 -8.94734
530 1 14.1536 17.3001 11.0061 -8.94797
686 1 20.4416 20.4417 20.4416 -8.9492
685 1 18.8696 18.8697 18.8696 -8.94878
533 1 1.5718 20.442 11.007 -8.94951
387 1 12.5795 18.8695 22.0137 -8.94943
535 1 7.86242 20.4425 11.0071 -8.95003
536 1 11.0067 20.4418 11.0068 -8.94862
537 1 14.1522 20.4424 11.0068 -8.94969
684 1 17.2968 20.4417 20.4416 -8.94967
539 1 20.4415 20.4418 11.007 -8.94957
540 1 1.56808 11.007 14.1545 -8.94915
541 1 4.70533 11.007 14.1607 -8.93983
542 1 7.85291 11.007 14.1381 -8.95341
543 1 11.0254 11.007 14.1454 -8.98734
544 1 14.1687 11.007 14.1661 -8.93774
545 1 17.3034 11.007 14.1556 -8.94807
546 1 20.4422 11.007 14.1531 -8.95017
547 1 22.0115 12.58 12.5802 -8.95169
548 1 1.5681 14.154 14.1543 -8.95109
549 1 3.13214 12.5824 12.5836 -8.95581
550 1 4.70261 14.1654 14.1666 -8.9272
551 1 6.24412 12.6192 12.6234 -8.82133
552 1 7.86205 14.1561 14.1599 -8.95195
553 1 9.43566 12.5829 12.5695 -8.6362
554 1 11.0048 14.1583 14.1615 -8.94164
555 1 12.6525 12.6541 12.6547 -8.70679
556 1 14.1773 14.1773 14.1775 -8.90144
557 1 15.7437 12.5853 12.5865 -8.96019
558 1 17.3041 14.1557 14.1556 -8.95227
559 1 18.8732 12.5802 12.5802 -8.95309
560 1 20.4422 14.1528 14.1528 -8.95101
561 1 -0.00148986 15.7255 12.5799 -8.94973
562 1 1.57059 17.2984 14.153 -8.94944
563 1 3.13897 15.7287 12.5819 -8.9489
564 1 4.71319 17.303 14.1563 -8.94788
565 1 6.27779 15.7405 12.5902 -8.94703
566 1 7.86292 17.2986 14.153 -8.95016
567 1 9.43489 15.7221 12.5779 -8.95294
568 1 11.0058 17.2994 14.1533 -8.94926
569 1 12.5864 15.7415 12.586 -8.96413
570 1 14.1552 17.3042 14.1554 -8.95206
571 1 15.7291 15.729 12.5802 -8.94946
572 1 17.2984 17.2987 14.1525 -8.94989
573 1 18.8705 15.7256 12.5796 -8.94948
574 1 20.4415 17.2975 14.1521 -8.94958
575 1 22.0134 18.8698 12.5796 -8.94943
576 1 1.57189 20.442 14.1521 -8.94949
577 1 3.14341 18.871 12.5801 -8.94908
578 1 4.71667 20.4428 14.1526 -8.95074
579 1 6.28886 18.8729 12.5804 -8.95336
580 1 7.86236 20.4421 14.1522 -8.94946
581 1 9.43475 18.8696 12.5797 -8.94807
582 1 11.0068 20.4423 14.1522 -8.94966
583 1 12.5793 18.8723 12.5793 -8.95462
584 1 14.1521 20.4429 14.1522 -8.95131
585 1 15.7251 18.8708 12.5793 -8.94949
586 1 17.297 20.442 14.1519 -8.94964
587 1 18.8694 18.8698 12.5794 -8.9494
588 1 20.4415 20.4418 14.1519 -8.94953
589 1 1.57135 11.007 17.2981 -8.94947
590 1 4.71521 11.007 17.3003 -8.94882
591 1 7.86251 11.007 17.2953 -8.94434
592 1 11.0063 11.007 17.2977 -8.94516
593 1 14.1553 11.007 17.3029 -8.94756
594 1 17.2988 11.007 17.2989 -8.94908
595 1 20.4418 11.007 17.2976 -8.94946
596 1 -0.00084834 12.5798 15.7256 -8.94923
597 1 1.57143 14.1524 17.2981 -8.94923
598 1 3.14144 12.5805 15.728 -8.94735
599 1 4.71586 14.1531 17.3006 -8.9519
600 1 6.28735 12.58 15.7324 -8.96157
601 1 7.86295 14.152 17.2984 -8.95228
602 1 9.43489 12.5758 15.7188 -8.9507
603 1 11.0053 14.1528 17.2995 -8.95123
604 1 12.5845 12.5829 15.7407 -8.96632
605 1 14.1547 14.155 17.3038 -8.95309
606 1 15.7301 12.5813 15.7305 -8.94677
607 1 17.2987 14.1529 17.2989 -8.94916
608 1 18.8712 12.5799 15.7259 -8.94907
609 1 20.4418 14.1522 17.2975 -8.94933
610 1 22.013 15.7254 15.7255 -8.94998
611 1 1.57128 17.298 17.2981 -8.94823
612 1 3.14045 15.7286 15.729 -8.94423
613 1 4.71664 17.2979 17.2983 -8.95009
614 1 6.28853 15.7269 15.7284 -8.951
615 1 7.86189 17.2978 17.2979 -8.94846
616 1 9.43383 15.727 15.7275 -8.94293
617 1 11.0067 17.298 17.2981 -8.94862
618 1 12.5798 15.7284 15.7289 -8.9493
619 1 14.1523 17.2985 17.2984 -8.94991
620 1 15.732 15.7324 15.7322 -8.93767
621 1 17.2988 17.299 17.2989 -8.94656
622 1 18.8713 15.726 15.7259 -8.94993
623 1 20.4418 17.2974 17.2974 -8.94943
624 1 -0.000439015 18.8697 15.7247 -8.94956
625 1 1.57197 20.442 17.2972 -8.94933
626 1 3.14346 18.8711 15.7258 -8.94887
627 1 4.7172 20.4418 17.297 -8.94975
628 1 6.28978 18.8702 15.725 -8.94981
629 1 7.86201 20.4419 17.2971 -8.94941
630 1 9.43438 18.8705 15.7253 -8.94926
631 1 11.0069 20.442 17.2972 -8.94946
632 1 12.5792 18.8706 15.725 -8.94952
633 1 14.1518 20.442 17.297 -8.94965
634 1 15.7256 18.8717 15.7257 -8.94983
635 1 17.2972 20.4421 17.2972 -8.94954
636 1 18.8695 18.8698 15.7246 -8.94975
637 1 20.4415 20.4417 17.2968 -8.94964
638 1 1.57207 11.007 20.4418 -8.94956
639 1 4.7168 11.007 20.4421 -8.95002
640 1 7.86212 11.007 20.4414 -8.94841
641 1 11.0063 11.007 20.4416 -8.9489
642 1 14.1526 11.007 20.4424 -8.95025
643 1 17.2974 11.007 20.4419 -8.94949
644 1 20.4417 11.007 20.4417 -8.94957
645 1 22.0137 12.5795 18.8697 -8.94953
646 1 1.57211 14.152 20.4418 -8.9495
647 1 3.14406 12.5796 18.8704 -8.94934
648 1 4.71701 14.1519 20.4421 -8.95034
649 1 6.28966 12.5792 18.8707 -8.95171
650 1 7.86207 14.152 20.4415 -8.95016
651 1 9.43416 12.5792 18.8687 -8.94727
652 1 11.0065 14.1522 20.4417 -8.95011
653 1 12.5794 12.5796 18.8724 -8.95357
654 1 14.1523 14.1524 20.4424 -8.95114
655 1 15.7256 12.5798 18.8713 -8.94917
656 1 17.2973 14.1521 20.4419 -8.9494
657 1 18.8697 12.5795 18.8698 -8.94941
658 1 20.4416 14.1519 20.4417 -8.94955
659 1 -0.000161115 15.7245 18.8696 -8.94956
660 1 1.57216 17.2969 20.4418 -8.9497
661 1 3.14416 15.7249 18.8704 -8.95003
662 1 4.71704 17.297 20.4416 -8.94993
663 1 6.28967 15.7247 18.8701 -8.95033
664 1 7.86191 17.2972 20.4416 -8.9494
665 1 9.43418 15.7253 18.8703 -8.94932
666 1 11.0069 17.2973 20.4417 -8.94944
667 1 12.5791 15.7251 18.8705 -8.94982
668 1 14.1519 17.2972 20.4417 -8.9497
669 1 15.7256 15.7258 18.8714 -8.95013
670 1 17.2973 17.2973 20.4419 -8.94952
671 1 18.8697 15.7247 18.8698 -8.94955
672 1 20.4416 17.2969 20.4417 -8.94963
673 1 22.0137 18.8695 18.8695 -8.94918
674 1 1.57231 20.4417 20.4415 -8.94956
675 1 3.14456 18.8696 18.8695 -8.94973
676 1 4.71719 20.4416 20.4415 -8.94953
677 1 6.28957 18.8695 18.8695 -8.94932
678 1 7.86204 20.4417 20.4416 -8.94957
679 1 9.43443 18.8697 18.8696 -8.94954
680 1 11.007 20.4417 20.4416 -8.94958
681 1 12.5794 18.8696 18.8695 -8.94933
682 1 14.1518 20.4417 20.4416 -8.94952
683 1 15.7245 18.8697 18.8696 -8.94976
355 1 6.28952 12.5792 22.0136 -8.9499
357 1 9.43421 12.5794 22.0131 -8.94886
359 1 12.5795 12.5795 22.0127 -8.95156
365 1 22.0138 15.7244 22.0138 -8.94953
367 1 3.14454 15.7244 22.0137 -8.95003
369 1 6.28935 15.7247 22.013 -8.95039
375 1 15.725 15.7251 22.0133 -8.95011
381 1 3.14454 18.8694 22.0135 -8.94954
379 1 22.0138 18.8693 22.0138 -8.94959
351 1 22.0138 12.5794 22.0138 -8.94957
363 1 18.8695 12.5795 22.0137 -8.94954
385 1 9.4345 18.8695 22.0136 -8.94953
