ITEM: TIMESTEP
111
ITEM: NUMBER OF ATOMS
688
ITEM: BOX BOUNDS pp pp pp
0.0000000000000000e+00 2.2013900999999997e+01
0.0000000000000000e+00 2.2013900999999997e+01
0.0000000000000000e+00 2.2013900999999997e+01
ITEM: ATOMS id type x y z c_pot
189 1 20.4414 4.71611 11.007 -8.94943
2 1 1.57202 1.57209 1.57193 -8.94922
175 1 18.8714 9.43365 9.4338 -8.94952
4 1 4.717 1.57204 1.5719 -8.94958
174 1 15.7321 9.43198 9.43169 -8.94774
6 1 7.86204 1.57201 1.5719 -8.94951
7 1 9.43452 1.09774e-15 -0.000178333 -8.94957
8 1 11.0071 1.57201 1.57193 -8.94952
173 1 12.5967 9.41207 9.40072 -8.83855
10 1 14.152 1.57204 1.57204 -8.94948
172 1 9.37226 9.19363 9.40642 -7.8064
12 1 17.297 1.57199 1.57203 -8.94948
188 1 17.2982 4.7153 11.0067 -8.94888
14 1 20.4415 1.57214 1.57217 -8.94936
171 1 6.2485 9.38864 9.39747 -8.86234
16 1 1.5719 4.71678 1.5717 -8.9499
170 1 3.1322 9.43122 9.4308 -8.95466
18 1 4.71628 4.71615 1.57068 -8.9495
169 1 22.011 9.43391 9.43373 -8.95093
20 1 7.86179 4.71613 1.571 -8.94913
183 1 1.57017 4.71519 11.0073 -8.94913
22 1 11.0071 4.71609 1.57114 -8.9492
168 1 18.8704 6.28799 9.43406 -8.94921
24 1 14.1523 4.71609 1.57121 -8.94979
167 1 15.7281 6.28556 9.43311 -8.94523
26 1 17.2978 4.71604 1.57138 -8.94872
166 1 12.5801 6.28584 9.43335 -8.95424
28 1 20.4417 4.71685 1.572 -8.9496
165 1 9.42987 6.30089 9.43611 -9.01021
30 1 1.57197 7.86192 1.57173 -8.94939
164 1 6.27924 6.27487 9.43374 -8.9551
32 1 4.71683 7.86218 1.57119 -8.95037
163 1 3.13827 6.28451 9.43334 -8.94713
34 1 7.86171 7.86159 1.56984 -8.95215
35 1 9.43427 6.28883 -0.000848998 -8.94974
36 1 11.0065 7.86124 1.56977 -8.95066
37 1 12.5794 6.28893 -0.000739668 -8.94981
38 1 14.1533 7.86061 1.56918 -8.95124
162 1 -0.00190061 6.28806 9.4341 -8.94953
40 1 17.2979 7.86143 1.57127 -8.94929
161 1 18.8695 3.14394 9.43436 -8.94947
42 1 20.4418 7.86187 1.57192 -8.94948
181 1 17.2972 1.57181 11.0069 -8.94953
44 1 3.14434 9.43443 -0.000238158 -8.94967
160 1 15.7252 3.1431 9.4342 -8.94937
159 1 12.5793 3.14353 9.43467 -8.95011
158 1 9.43437 3.14539 9.43489 -8.94447
48 1 15.7253 9.43414 -0.000656502 -8.94948
157 1 6.2881 3.14048 9.43485 -8.95151
50 1 22.0136 1.47089e-15 3.14453 -8.94955
51 1 1.57174 1.57179 4.71667 -8.94961
52 1 3.14431 9.40271e-16 3.14418 -8.94957
53 1 4.71647 1.57119 4.71623 -8.95003
54 1 6.28951 1.77043e-15 3.1442 -8.94948
55 1 7.86204 1.5713 4.71633 -8.9495
56 1 9.43462 1.1824e-15 3.1442 -8.94952
57 1 11.0073 1.57143 4.71642 -8.94938
58 1 12.5796 9.82637e-16 3.14431 -8.9494
59 1 14.1522 1.57146 4.7168 -8.9505
60 1 15.7246 2.78161e-17 3.14447 -8.94993
61 1 17.297 1.57191 4.71698 -8.94973
62 1 18.8692 -5.28862e-16 3.14464 -8.94965
63 1 20.4414 1.5721 4.71703 -8.94956
64 1 22.0133 3.14412 3.14411 -8.94912
65 1 1.56997 4.71517 4.71511 -8.94825
66 1 3.14354 3.14345 3.14329 -8.94823
67 1 4.71304 4.71261 4.71246 -8.94414
68 1 6.28916 3.14347 3.1435 -8.94944
69 1 7.86112 4.7135 4.71413 -8.94842
70 1 9.43458 3.1435 3.14362 -8.94945
71 1 11.0075 4.71411 4.71457 -8.94714
72 1 12.5797 3.14358 3.14384 -8.94906
73 1 14.1546 4.71277 4.71408 -8.94879
74 1 15.7252 3.14327 3.14371 -8.94929
75 1 17.2983 4.7154 4.71589 -8.94909
76 1 18.8695 3.14411 3.1443 -8.94942
77 1 20.4413 4.71635 4.71648 -8.94971
78 1 22.0136 6.28928 3.14404 -8.94974
79 1 1.5709 7.86166 4.71558 -8.9495
80 1 3.14344 6.28883 3.14277 -8.95085
81 1 4.71445 7.86117 4.71275 -8.95412
82 1 6.2873 6.28702 3.13988 -8.95018
83 1 7.85746 7.8563 4.70613 -8.95629
84 1 9.43417 6.28708 3.14115 -8.94805
85 1 11.0069 7.85846 4.70827 -8.95437
86 1 12.5803 6.28735 3.14123 -8.95002
87 1 14.1619 7.85267 4.70558 -8.93824
88 1 15.7277 6.28621 3.14101 -8.9465
89 1 17.3003 7.86024 4.71481 -8.95032
90 1 18.8703 6.28879 3.14379 -8.94964
91 1 20.442 7.8616 4.71628 -8.94981
92 1 -0.000272797 9.43437 3.14391 -8.94948
93 1 3.1436 9.43437 3.14293 -8.94883
94 1 6.28943 9.43552 3.14299 -8.95087
95 1 9.43403 9.43437 3.14284 -8.94904
96 1 12.582 9.43328 3.13657 -8.95696
97 1 15.7275 9.43335 3.14123 -8.94811
98 1 18.8704 9.4342 3.14368 -8.94935
99 1 22.0136 1.22848e-15 6.28948 -8.94953
100 1 1.57169 1.57174 7.86187 -8.94948
101 1 3.14415 1.06197e-15 6.28922 -8.94978
102 1 4.71637 1.57081 7.86173 -8.95013
103 1 6.28944 1.0314e-15 6.28918 -8.9507
104 1 7.86227 1.57077 7.86203 -8.95161
105 1 9.43479 1.43437e-15 6.28913 -8.95029
106 1 11.0068 1.57176 7.86224 -8.94992
107 1 12.5795 7.62186e-16 6.28958 -8.95039
108 1 14.1521 1.57158 7.86208 -8.95001
109 1 15.7245 -6.04287e-16 6.28955 -8.94984
110 1 17.2971 1.57185 7.86192 -8.94948
111 1 18.8692 1.79368e-15 6.28953 -8.94952
112 1 20.4414 1.57205 7.86197 -8.94953
113 1 -0.000663649 3.14398 6.28923 -8.94943
114 1 1.57013 4.71511 7.8612 -8.94897
115 1 3.14311 3.14252 6.28839 -8.94974
116 1 4.71302 4.71086 7.85971 -8.95007
117 1 6.28832 3.14078 6.28793 -8.95167
118 1 7.86043 4.70877 7.86043 -8.96079
119 1 9.43479 3.1417 6.28812 -8.94995
120 1 11.0056 4.71465 7.86175 -8.95529
121 1 12.5796 3.14236 6.28913 -8.95223
122 1 14.153 4.71383 7.8614 -8.95075
123 1 15.725 3.14324 6.28922 -8.94998
124 1 17.298 4.71547 7.86149 -8.94878
125 1 18.8694 3.14407 6.28937 -8.94942
126 1 20.4413 4.71616 7.8617 -8.94935
127 1 22.012 6.28826 6.28829 -8.95039
128 1 1.56643 7.85965 7.8596 -8.9528
129 1 3.13714 6.28377 6.28368 -8.94598
130 1 4.6959 7.84647 7.84728 -8.94053
131 1 6.27642 6.27551 6.27566 -8.92726
132 1 7.82153 7.82135 7.82213 -8.83928
133 1 9.43385 6.28068 6.28284 -8.94505
134 1 11.0253 7.84603 7.8318 -8.88639
135 1 12.5864 6.27884 6.28092 -8.94699
136 1 14.1651 7.85163 7.85285 -8.94178
137 1 15.7293 6.28506 6.28602 -8.94762
138 1 17.301 7.85986 7.86064 -8.95112
139 1 18.8704 6.28834 6.28871 -8.95007
140 1 20.4413 7.86112 7.8613 -8.95061
141 1 -0.00110621 9.43424 6.28833 -8.9494
142 1 3.14106 9.43433 6.28623 -8.94799
143 1 6.28631 9.43731 6.28371 -8.9641
144 1 9.42256 9.4187 6.28624 -8.93271
145 1 12.6096 9.4118 6.25612 -8.89759
146 1 15.7335 9.43204 6.28449 -8.95441
147 1 18.8714 9.43402 6.28843 -8.95074
148 1 -0.000338494 9.30959e-16 9.43449 -8.94955
149 1 3.14405 -2.19218e-16 9.4345 -8.94961
150 1 6.28934 1.0393e-15 9.4347 -8.95073
151 1 9.43474 1.44432e-15 9.43461 -8.94774
152 1 12.5794 7.44556e-16 9.4346 -8.94976
153 1 15.7247 -5.56383e-16 9.4344 -8.94971
154 1 18.8693 1.06321e-15 9.43445 -8.94956
155 1 22.0133 3.14391 9.43443 -8.94945
156 1 3.1431 3.14255 9.43436 -8.94933
177 1 4.71624 1.57085 11.0073 -8.94969
184 1 4.71272 4.71158 11.0081 -8.94702
3 1 3.14471 8.78964e-16 -0.000184216 -8.94959
11 1 15.7243 -8.03229e-17 -0.00010988 -8.94956
41 1 18.8696 6.28931 -0.000169016 -8.94951
19 1 6.28949 3.14434 -0.000368743 -8.94942
25 1 15.7245 3.1443 -0.000234162 -8.94968
176 1 1.57167 1.57175 11.0071 -8.94949
47 1 12.5795 9.43434 22.0126 -8.95159
178 1 7.86242 1.57146 11.0071 -8.94997
179 1 11.0066 1.57221 11.0068 -8.94856
180 1 14.1523 1.57143 11.0068 -8.94971
343 1 18.8699 9.43432 18.87 -8.94937
182 1 20.4414 1.57203 11.007 -8.94955
342 1 15.7258 9.43396 18.8715 -8.94916
46 1 9.43419 9.4345 22.0131 -8.94878
185 1 7.86039 4.71376 11.0079 -8.95368
186 1 11.0059 4.71828 11.0063 -8.94747
187 1 14.1538 4.71366 11.0061 -8.94793
341 1 12.5794 9.43432 18.8725 -8.95364
340 1 9.43418 9.43477 18.8685 -8.94716
190 1 1.56646 7.85972 11.007 -8.95116
191 1 4.69813 7.85255 11.0088 -8.95122
192 1 7.81581 7.84717 11.0364 -8.86667
193 1 11.0357 7.86869 11.0256 -8.89846
194 1 14.1656 7.85497 11.0046 -8.94753
195 1 17.3017 7.85953 11.0063 -8.94972
196 1 20.4414 7.86093 11.0068 -8.95032
197 1 22.0136 -1.2596e-16 12.5795 -8.94954
198 1 1.57178 1.57178 14.1522 -8.94947
199 1 3.14411 -8.34932e-16 12.5798 -8.94953
200 1 4.71661 1.57093 14.1527 -8.95082
201 1 6.28964 1.5578e-15 12.5797 -8.95098
202 1 7.86237 1.57174 14.1523 -8.94945
203 1 9.4347 1.3581e-15 12.5796 -8.94905
204 1 11.0068 1.5716 14.1523 -8.94965
205 1 12.5793 -4.12243e-16 12.5793 -8.95099
206 1 14.1522 1.57086 14.1522 -8.95141
207 1 15.7246 7.92481e-16 12.5794 -8.94966
208 1 17.2971 1.57177 14.1519 -8.94964
209 1 18.8693 1.73185e-15 12.5794 -8.94953
210 1 20.4414 1.57206 14.1519 -8.94951
211 1 22.0133 3.14394 12.5796 -8.94939
212 1 1.57037 4.71521 14.1532 -8.94942
213 1 3.14321 3.1426 12.5802 -8.94906
214 1 4.7129 4.71058 14.1565 -8.94794
215 1 6.28877 3.1409 12.5805 -8.95344
216 1 7.86284 4.71532 14.1531 -8.95015
217 1 9.43472 3.1444 12.5796 -8.94805
218 1 11.0058 4.71447 14.1534 -8.94926
219 1 12.5793 3.14144 12.5794 -8.95475
220 1 14.1555 4.70921 14.1557 -8.95205
221 1 15.7252 3.14288 12.5793 -8.94949
222 1 17.2986 4.71488 14.1527 -8.94988
223 1 18.8695 3.14395 12.5794 -8.94937
224 1 20.4415 4.71619 14.1522 -8.94958
225 1 -0.00166019 6.28817 12.58 -8.94975
226 1 1.56774 7.8597 14.1546 -8.95111
227 1 3.1385 6.28484 12.5822 -8.94886
228 1 4.70193 7.84799 14.1671 -8.92686
229 1 6.27731 6.27317 12.5904 -8.94724
230 1 7.86185 7.85788 14.1599 -8.95189
231 1 9.43482 6.29213 12.5779 -8.95287
232 1 11.0051 7.85566 14.1615 -8.9419
233 1 12.587 6.27206 12.5864 -8.96401
234 1 14.1781 7.83599 14.1782 -8.90116
235 1 15.7296 6.28446 12.5804 -8.94944
236 1 17.3046 7.85784 14.156 -8.95228
237 1 18.8707 6.28805 12.5796 -8.94951
238 1 20.4423 7.86096 14.153 -8.95106
239 1 22.0113 9.43384 12.5803 -8.95179
240 1 3.13141 9.43125 12.5839 -8.95591
241 1 6.24288 9.39422 12.6239 -8.82071
242 1 9.43537 9.43108 12.5689 -8.63811
243 1 12.6538 9.35944 12.655 -8.70682
244 1 15.7445 9.42834 12.5869 -8.96028
245 1 18.8735 9.43359 12.5804 -8.9532
246 1 -0.000257594 2.64104e-17 15.7245 -8.94955
247 1 1.57188 1.57185 17.2973 -8.94931
248 1 3.14429 -4.00271e-17 15.7249 -8.94996
249 1 4.71718 1.572 17.2971 -8.94975
250 1 6.28975 4.16222e-16 15.7247 -8.94957
251 1 7.862 1.57194 17.2972 -8.94939
252 1 9.4345 5.26737e-16 15.7248 -8.94969
253 1 11.0069 1.57188 17.2973 -8.94944
254 1 12.5793 -7.27796e-17 15.7247 -8.94962
255 1 14.1519 1.57184 17.2971 -8.94966
256 1 15.7247 1.31548e-15 15.7247 -8.95037
257 1 17.2973 1.57164 17.2973 -8.94953
258 1 18.8693 1.8127e-15 15.7244 -8.94965
259 1 20.4415 1.57207 17.2969 -8.94961
260 1 -0.000509737 3.14402 15.7248 -8.94954
261 1 1.57115 4.71572 17.2983 -8.94817
262 1 3.1433 3.1426 15.726 -8.94887
263 1 4.71656 4.71585 17.2985 -8.95013
264 1 6.28976 3.14362 15.7251 -8.94981
265 1 7.86187 4.71603 17.298 -8.94843
266 1 9.43436 3.14335 15.7254 -8.94925
267 1 11.0066 4.71573 17.2982 -8.94859
268 1 12.5792 3.14312 15.7251 -8.94953
269 1 14.1524 4.71516 17.2987 -8.94992
270 1 15.7258 3.14192 15.7259 -8.94983
271 1 17.299 4.71457 17.2992 -8.94646
272 1 18.8696 3.14389 15.7247 -8.94973
273 1 20.4419 4.71626 17.2976 -8.9494
274 1 22.0129 6.28833 15.7257 -8.95
275 1 1.5713 7.8614 17.2983 -8.94919
276 1 3.14013 6.28496 15.7294 -8.9441
277 1 4.71571 7.86065 17.3009 -8.95195
278 1 6.28841 6.28688 15.7286 -8.95104
279 1 7.86302 7.862 17.2983 -8.95238
280 1 9.43383 6.28687 15.7275 -8.94288
281 1 11.0053 7.86111 17.2995 -8.9513
282 1 12.58 6.28524 15.7292 -8.94934
283 1 14.1549 7.85861 17.3042 -8.95316
284 1 15.7325 6.281 15.7327 -8.93749
285 1 17.299 7.8608 17.2992 -8.94909
286 1 18.8716 6.28765 15.7262 -8.94993
287 1 20.4419 7.86162 17.2977 -8.9493
288 1 -0.000938632 9.43405 15.7258 -8.94922
289 1 3.14108 9.43325 15.7284 -8.94725
290 1 6.28708 9.4338 15.7325 -8.9616
291 1 9.43513 9.43833 15.7182 -8.95076
292 1 12.585 9.43091 15.7409 -8.96649
293 1 15.7307 9.43236 15.7311 -8.94664
294 1 18.8714 9.43387 15.7262 -8.94905
295 1 22.0137 1.55813e-15 18.8693 -8.94934
296 1 1.57228 1.57218 20.4416 -8.94953
297 1 3.14474 -8.76798e-16 18.8693 -8.94972
298 1 4.71716 1.57221 20.4415 -8.94951
299 1 6.28959 -1.72877e-15 18.8693 -8.94946
300 1 7.86202 1.57215 20.4416 -8.94955
301 1 9.43448 -3.71272e-16 18.8694 -8.94955
302 1 11.007 1.57214 20.4416 -8.94955
303 1 12.5794 6.76273e-16 18.8694 -8.94948
304 1 14.1519 1.57217 20.4416 -8.9495
305 1 15.7243 1.77209e-15 18.8693 -8.94966
306 1 17.2968 1.57213 20.4416 -8.94965
307 1 18.8693 1.79743e-15 18.8694 -8.94941
308 1 20.4416 1.57218 20.4417 -8.94913
309 1 22.0137 3.14427 18.8696 -8.94914
310 1 1.57211 4.71687 20.4418 -8.94971
311 1 3.14451 3.14423 18.8696 -8.94975
312 1 4.717 4.7168 20.4416 -8.94997
313 1 6.28955 3.14431 18.8695 -8.94929
314 1 7.86188 4.71657 20.4416 -8.94939
315 1 9.4344 3.14414 18.8696 -8.94952
316 1 11.0069 4.7165 20.4417 -8.94942
317 1 12.5794 3.14416 18.8696 -8.94929
318 1 14.1519 4.71657 20.4418 -8.94972
319 1 15.7246 3.14401 18.8698 -8.94976
320 1 17.2974 4.7164 20.442 -8.94951
321 1 18.8697 3.14401 18.8698 -8.94871
322 1 20.4417 4.71696 20.4417 -8.9496
323 1 -0.000177501 6.2893 18.8697 -8.94953
324 1 1.57206 7.8619 20.4419 -8.94949
325 1 3.14408 6.28888 18.8706 -8.95005
326 1 4.71698 7.86196 20.4421 -8.95038
327 1 6.28968 6.28921 18.8701 -8.9504
328 1 7.86208 7.86193 20.4414 -8.95016
329 1 9.43415 6.28858 18.8704 -8.94932
330 1 11.0064 7.86168 20.4417 -8.95012
331 1 12.5791 6.28873 18.8706 -8.94986
332 1 14.1523 7.86138 20.4425 -8.9512
333 1 15.7257 6.28792 18.8716 -8.95016
334 1 17.2975 7.86166 20.442 -8.94938
335 1 18.8698 6.28908 18.8699 -8.94951
336 1 20.4417 7.86193 20.4418 -8.94952
337 1 22.0137 9.43439 18.8698 -8.9495
338 1 3.14396 9.43426 18.8706 -8.94934
339 1 6.28965 9.4347 18.8707 -8.95178
45 1 6.28952 9.43469 22.0136 -8.94989
5 1 6.28959 1.12044e-15 22.0137 -8.94954
9 1 12.5795 6.451e-17 22.0137 -8.94955
39 1 15.7251 6.28869 22.0133 -8.95014
15 1 22.0138 3.14454 22.0138 -8.94957
17 1 3.14447 3.14439 22.0135 -8.94953
33 1 6.28931 6.28919 22.0129 -8.95043
23 1 12.5795 3.14428 22.0136 -8.9494
31 1 3.14449 6.28947 22.0137 -8.95007
27 1 18.8695 3.14435 22.0138 -8.94927
29 1 22.0138 6.28949 22.0138 -8.94951
1 1 22.0138 8.09246e-16 22.0138 -8.94931
13 1 18.8692 1.49652e-15 22.0138 -8.94939
21 1 9.43449 3.14426 22.0136 -8.94951
43 1 22.0138 9.43445 22.0138 -8.94955
49 1 18.8696 9.43439 22.0137 -8.94951
344 1 1.5719 11.007 1.57168 -8.94955
345 1 4.71651 11.007 1.5711 -8.94993
346 1 7.86206 11.007 1.5722 -8.94679
347 1 11.0067 11.007 1.57027 -8.94885
348 1 14.1538 11.007 1.56895 -8.9496
349 1 17.298 11.007 1.57125 -8.94948
350 1 20.4418 11.007 1.57189 -8.94952
538 1 17.2972 20.4421 11.0069 -8.94953
352 1 1.57197 14.152 1.57173 -8.94939
353 1 3.14434 12.5795 -0.000238158 -8.94967
354 1 4.71683 14.1517 1.57119 -8.95037
688 3 10.2322 11.007 9.53686 2.25804
356 1 7.86171 14.1523 1.56984 -8.95215
511 1 18.8695 18.87 9.43436 -8.94947
358 1 11.0065 14.1527 1.56977 -8.95066
510 1 15.7252 18.8708 9.4342 -8.94937
360 1 14.1533 14.1533 1.56918 -8.95124
361 1 15.7253 12.5798 -0.000656502 -8.94948
362 1 17.2979 14.1525 1.57127 -8.94929
532 1 20.4414 17.2978 11.007 -8.94943
364 1 20.4418 14.152 1.57192 -8.94948
509 1 12.5793 18.8704 9.43467 -8.95011
366 1 1.5719 17.2971 1.5717 -8.9499
508 1 9.43437 18.8685 9.43489 -8.94447
368 1 4.71628 17.2977 1.57068 -8.9495
507 1 6.2881 18.8734 9.43485 -8.95151
370 1 7.86179 17.2978 1.571 -8.94913
371 1 9.43427 15.7251 -0.000848998 -8.94974
372 1 11.0071 17.2978 1.57114 -8.9492
373 1 12.5794 15.725 -0.000739668 -8.94981
374 1 14.1523 17.2978 1.57121 -8.94979
506 1 3.1431 18.8713 9.43436 -8.94933
376 1 17.2978 17.2979 1.57138 -8.94872
505 1 22.0133 18.87 9.43443 -8.94945
378 1 20.4417 17.2971 1.572 -8.9496
504 1 18.8704 15.7259 9.43406 -8.94921
380 1 1.57202 20.4418 1.57193 -8.94922
503 1 15.7281 15.7283 9.43311 -8.94523
382 1 4.717 20.4419 1.5719 -8.94958
502 1 12.5801 15.7281 9.43335 -8.95424
384 1 7.86204 20.4419 1.5719 -8.94951
531 1 17.2982 17.2986 11.0067 -8.94888
386 1 11.0071 20.4419 1.57193 -8.94952
501 1 9.42987 15.713 9.43611 -9.01021
388 1 14.152 20.4419 1.57204 -8.94948
500 1 6.27924 15.739 9.43374 -8.9551
390 1 17.297 20.4419 1.57203 -8.94948
499 1 3.13827 15.7294 9.43334 -8.94713
392 1 20.4415 20.4418 1.57217 -8.94936
393 1 1.57085 11.007 4.71539 -8.94939
394 1 4.7143 11.007 4.71314 -8.94582
395 1 7.86425 11.007 4.72208 -8.93555
396 1 11.0096 11.007 4.71294 -8.98679
397 1 14.1607 11.007 4.70726 -8.94266
398 1 17.3005 11.007 4.71463 -8.94917
399 1 20.4421 11.007 4.71614 -8.94974
400 1 -0.000272797 12.5795 3.14391 -8.94948
401 1 1.5709 14.1522 4.71558 -8.9495
402 1 3.1436 12.5795 3.14293 -8.94883
403 1 4.71445 14.1527 4.71275 -8.95412
404 1 6.28943 12.5784 3.14299 -8.95087
405 1 7.85746 14.1576 4.70613 -8.95629
406 1 9.43403 12.5795 3.14284 -8.94904
407 1 11.0069 14.1554 4.70827 -8.95437
408 1 12.582 12.5806 3.13657 -8.95696
409 1 14.1619 14.1612 4.70558 -8.93824
410 1 15.7275 12.5805 3.14123 -8.94811
411 1 17.3003 14.1537 4.71481 -8.95032
412 1 18.8704 12.5797 3.14368 -8.94935
413 1 20.442 14.1523 4.71628 -8.94981
414 1 22.0136 15.7246 3.14404 -8.94974
415 1 1.56997 17.2987 4.71511 -8.94825
416 1 3.14344 15.7251 3.14277 -8.95085
417 1 4.71304 17.3013 4.71246 -8.94414
418 1 6.2873 15.7269 3.13988 -8.95018
419 1 7.86112 17.3004 4.71413 -8.94842
420 1 9.43417 15.7268 3.14115 -8.94805
421 1 11.0075 17.2998 4.71457 -8.94714
422 1 12.5803 15.7265 3.14123 -8.95002
423 1 14.1546 17.3011 4.71408 -8.94879
424 1 15.7277 15.7277 3.14101 -8.9465
425 1 17.2983 17.2985 4.71589 -8.94909
426 1 18.8703 15.7251 3.14379 -8.94964
427 1 20.4413 17.2975 4.71648 -8.94971
428 1 22.0133 18.8698 3.14411 -8.94912
429 1 1.57174 20.4421 4.71667 -8.94961
430 1 3.14354 18.8704 3.14329 -8.94823
431 1 4.71647 20.4427 4.71623 -8.95003
432 1 6.28916 18.8704 3.1435 -8.94944
433 1 7.86204 20.4426 4.71633 -8.9495
434 1 9.43458 18.8704 3.14362 -8.94945
435 1 11.0073 20.4425 4.71642 -8.94938
436 1 12.5797 18.8703 3.14384 -8.94906
437 1 14.1522 20.4424 4.7168 -8.9505
438 1 15.7252 18.8706 3.14371 -8.94929
439 1 17.297 20.442 4.71698 -8.94973
440 1 18.8695 18.8698 3.1443 -8.94942
441 1 20.4414 20.4418 4.71703 -8.94956
442 1 1.56856 11.007 7.85978 -8.94735
443 1 4.71103 11.007 7.85737 -8.93542
444 1 7.87647 11.007 7.89693 -8.91482
445 1 11.069 11.007 7.69832 -8.23021
446 1 14.1659 11.007 7.85206 -8.95904
447 1 17.3016 11.007 7.86061 -8.95045
448 1 20.4417 11.007 7.8612 -8.94976
449 1 -0.00110621 12.5797 6.28833 -8.9494
450 1 1.56643 14.1542 7.8596 -8.9528
451 1 3.14106 12.5796 6.28623 -8.94799
452 1 4.6959 14.1674 7.84728 -8.94053
453 1 6.28631 12.5766 6.28371 -8.9641
454 1 7.82153 14.1926 7.82213 -8.83928
455 1 9.42256 12.5952 6.28624 -8.93271
456 1 11.0253 14.1679 7.8318 -8.88639
457 1 12.6096 12.6021 6.25612 -8.89759
458 1 14.1651 14.1623 7.85285 -8.94178
459 1 15.7335 12.5819 6.28449 -8.95441
460 1 17.301 14.154 7.86064 -8.95112
461 1 18.8714 12.5799 6.28843 -8.95074
462 1 20.4413 14.1528 7.8613 -8.95061
463 1 22.012 15.7256 6.28829 -8.95039
464 1 1.57013 17.2988 7.8612 -8.94897
465 1 3.13714 15.7301 6.28368 -8.94598
466 1 4.71302 17.303 7.85971 -8.95007
467 1 6.27642 15.7384 6.27566 -8.92726
468 1 7.86043 17.3051 7.86043 -8.96079
469 1 9.43385 15.7332 6.28284 -8.94505
470 1 11.0056 17.2993 7.86175 -8.95529
471 1 12.5864 15.7351 6.28092 -8.94699
472 1 14.153 17.3001 7.8614 -8.95075
473 1 15.7293 15.7288 6.28602 -8.94762
474 1 17.298 17.2984 7.86149 -8.94878
475 1 18.8704 15.7256 6.28871 -8.95007
476 1 20.4413 17.2977 7.8617 -8.94935
477 1 -0.000663649 18.8699 6.28923 -8.94943
478 1 1.57169 20.4422 7.86187 -8.94948
479 1 3.14311 18.8714 6.28839 -8.94974
480 1 4.71637 20.4431 7.86173 -8.95013
481 1 6.28832 18.8731 6.28793 -8.95167
482 1 7.86227 20.4431 7.86203 -8.95161
483 1 9.43479 18.8722 6.28812 -8.94995
484 1 11.0068 20.4421 7.86224 -8.94992
485 1 12.5796 18.8715 6.28913 -8.95223
486 1 14.1521 20.4423 7.86208 -8.95001
487 1 15.725 18.8707 6.28922 -8.94998
488 1 17.2971 20.442 7.86192 -8.94948
489 1 18.8694 18.8698 6.28937 -8.94942
490 1 20.4414 20.4419 7.86197 -8.94953
491 1 22.011 12.58 9.43373 -8.95093
492 1 3.1322 12.5827 9.4308 -8.95466
493 1 6.2485 12.6253 9.39747 -8.86234
494 1 9.37226 12.8203 9.40642 -7.8064
495 1 12.5967 12.6018 9.40072 -8.83855
496 1 15.7321 12.5819 9.43169 -8.94774
497 1 18.8714 12.5802 9.4338 -8.94952
498 1 -0.00190061 15.7258 9.4341 -8.94953
526 1 1.57017 17.2987 11.0073 -8.94913
527 1 4.71272 17.3023 11.0081 -8.94702
534 1 4.71624 20.443 11.0073 -8.94969
389 1 15.7245 18.8696 -0.000234162 -8.94968
377 1 18.8696 15.7246 -0.000169016 -8.94951
383 1 6.28949 18.8696 -0.000368743 -8.94942
512 1 1.56523 11.007 11.007 -8.95235
513 1 4.69256 11.007 11.0072 -9.0195
514 1 7.49722 11.007 11.0239 -7.88719
515 1 11.4203 11.007 11.1832 -7.15784
516 1 14.1821 11.007 11.0173 -9.02057
517 1 17.305 11.007 11.0068 -8.95434
518 1 20.4418 11.007 11.0068 -8.95072
519 1 1.56646 14.1542 11.007 -8.95116
520 1 4.69813 14.1614 11.0088 -8.95122
521 1 7.81581 14.1667 11.0364 -8.86667
522 1 11.0357 14.1452 11.0256 -8.89846
523 1 14.1656 14.1589 11.0046 -8.94753
524 1 17.3017 14.1544 11.0063 -8.94972
525 1 20.4414 14.153 11.0068 -8.95032
687 3 9.45528 11.007 10.9396 2.28432
391 1 18.8695 18.8696 22.0138 -8.94927
528 1 7.86039 17.3001 11.0079 -8.95368
529 1 11.0059 17.2956 11.0063 -8.94747
530 1 14.1538 17.3002 11.0061 -8.94793
686 1 20.4416 20.4417 20.4417 -8.94913
685 1 18.8697 18.8699 18.8698 -8.94871
533 1 1.57167 20.4422 11.0071 -8.94949
387 1 12.5795 18.8696 22.0136 -8.9494
535 1 7.86242 20.4424 11.0071 -8.94997
536 1 11.0066 20.4417 11.0068 -8.94856
537 1 14.1523 20.4425 11.0068 -8.94971
684 1 17.2968 20.4418 20.4416 -8.94965
539 1 20.4414 20.4419 11.007 -8.94955
540 1 1.56769 11.007 14.1547 -8.94914
541 1 4.70459 11.007 14.1611 -8.93954
542 1 7.85253 11.007 14.1379 -8.95368
543 1 11.0262 11.007 14.1441 -8.98781
544 1 14.1697 11.007 14.1667 -8.93761
545 1 17.304 11.007 14.156 -8.94807
546 1 20.4423 11.007 14.1533 -8.95022
547 1 22.0113 12.5801 12.5803 -8.95179
548 1 1.56774 14.1542 14.1546 -8.95111
549 1 3.13141 12.5826 12.5839 -8.95591
550 1 4.70193 14.1659 14.1671 -8.92686
551 1 6.24288 12.6197 12.6239 -8.82071
552 1 7.86185 14.156 14.1599 -8.95189
553 1 9.43537 12.5828 12.5689 -8.63811
554 1 11.0051 14.1582 14.1615 -8.9419
555 1 12.6538 12.6545 12.655 -8.70682
556 1 14.1781 14.1779 14.1782 -8.90116
557 1 15.7445 12.5856 12.5869 -8.96028
558 1 17.3046 14.1561 14.156 -8.95228
559 1 18.8735 12.5803 12.5804 -8.9532
560 1 20.4423 14.1529 14.153 -8.95106
561 1 -0.00166019 15.7257 12.58 -8.94975
562 1 1.57037 17.2987 14.1532 -8.94942
563 1 3.1385 15.7291 12.5822 -8.94886
564 1 4.7129 17.3033 14.1565 -8.94794
565 1 6.27731 15.7407 12.5904 -8.94724
566 1 7.86284 17.2986 14.1531 -8.95015
567 1 9.43482 15.7218 12.5779 -8.95287
568 1 11.0058 17.2994 14.1534 -8.94926
569 1 12.587 15.7418 12.5864 -8.96401
570 1 14.1555 17.3047 14.1557 -8.95205
571 1 15.7296 15.7294 12.5804 -8.94944
572 1 17.2986 17.299 14.1527 -8.94988
573 1 18.8707 15.7259 12.5796 -8.94951
574 1 20.4415 17.2977 14.1522 -8.94958
575 1 22.0133 18.87 12.5796 -8.94939
576 1 1.57178 20.4421 14.1522 -8.94947
577 1 3.14321 18.8713 12.5802 -8.94906
578 1 4.71661 20.443 14.1527 -8.95082
579 1 6.28877 18.873 12.5805 -8.95344
580 1 7.86237 20.4422 14.1523 -8.94945
581 1 9.43472 18.8695 12.5796 -8.94805
582 1 11.0068 20.4423 14.1523 -8.94965
583 1 12.5793 18.8725 12.5794 -8.95475
584 1 14.1522 20.443 14.1522 -8.95141
585 1 15.7252 18.871 12.5793 -8.94949
586 1 17.2971 20.4421 14.1519 -8.94964
587 1 18.8695 18.87 12.5794 -8.94937
588 1 20.4414 20.4418 14.1519 -8.94951
589 1 1.57121 11.007 17.2983 -8.94944
590 1 4.71502 11.007 17.3005 -8.94882
591 1 7.86254 11.007 17.2951 -8.94441
592 1 11.0065 11.007 17.2974 -8.94482
593 1 14.1556 11.007 17.3033 -8.94759
594 1 17.2991 11.007 17.2993 -8.94904
595 1 20.4419 11.007 17.2978 -8.94944
596 1 -0.000938632 12.5798 15.7258 -8.94922
597 1 1.5713 14.1525 17.2983 -8.94919
598 1 3.14108 12.5807 15.7284 -8.94725
599 1 4.71571 14.1532 17.3009 -8.95195
600 1 6.28708 12.5801 15.7325 -8.9616
601 1 7.86302 14.1519 17.2983 -8.95238
602 1 9.43513 12.5756 15.7182 -8.95076
603 1 11.0053 14.1528 17.2995 -8.9513
604 1 12.585 12.583 15.7409 -8.96649
605 1 14.1549 14.1553 17.3042 -8.95316
606 1 15.7307 12.5815 15.7311 -8.94664
607 1 17.299 14.1531 17.2992 -8.94909
608 1 18.8714 12.58 15.7262 -8.94905
609 1 20.4419 14.1523 17.2977 -8.9493
610 1 22.0129 15.7256 15.7257 -8.95
611 1 1.57115 17.2982 17.2983 -8.94817
612 1 3.14013 15.7289 15.7294 -8.9441
613 1 4.71656 17.2981 17.2985 -8.95013
614 1 6.28841 15.727 15.7286 -8.95104
615 1 7.86187 17.2979 17.298 -8.94843
616 1 9.43383 15.727 15.7275 -8.94288
617 1 11.0066 17.2982 17.2982 -8.94859
618 1 12.58 15.7287 15.7292 -8.94934
619 1 14.1524 17.2987 17.2987 -8.94992
620 1 15.7325 15.7329 15.7327 -8.93749
621 1 17.299 17.2993 17.2992 -8.94646
622 1 18.8716 15.7262 15.7262 -8.94993
623 1 20.4419 17.2976 17.2976 -8.9494
624 1 -0.000509737 18.8699 15.7248 -8.94954
625 1 1.57188 20.442 17.2973 -8.94931
626 1 3.1433 18.8713 15.726 -8.94887
627 1 4.71718 20.4419 17.2971 -8.94975
628 1 6.28976 18.8703 15.7251 -8.94981
629 1 7.862 20.442 17.2972 -8.94939
630 1 9.43436 18.8706 15.7254 -8.94925
631 1 11.0069 20.442 17.2973 -8.94944
632 1 12.5792 18.8708 15.7251 -8.94953
633 1 14.1519 20.4421 17.2971 -8.94966
634 1 15.7258 18.872 15.7259 -8.94983
635 1 17.2973 20.4423 17.2973 -8.94953
636 1 18.8696 18.87 15.7247 -8.94973
637 1 20.4415 20.4418 17.2969 -8.94961
638 1 1.57201 11.007 20.4419 -8.94955
639 1 4.71675 11.007 20.4422 -8.95005
640 1 7.86213 11.007 20.4413 -8.94833
641 1 11.0063 11.007 20.4415 -8.94879
642 1 14.1527 11.007 20.4425 -8.95031
643 1 17.2976 11.007 20.442 -8.94948
644 1 20.4417 11.007 20.4418 -8.94954
645 1 22.0137 12.5795 18.8698 -8.9495
646 1 1.57206 14.152 20.4419 -8.94949
647 1 3.14396 12.5796 18.8706 -8.94934
648 1 4.71698 14.1519 20.4421 -8.95038
649 1 6.28965 12.5792 18.8707 -8.95178
650 1 7.86208 14.152 20.4414 -8.95016
651 1 9.43418 12.5791 18.8685 -8.94716
652 1 11.0064 14.1522 20.4417 -8.95012
653 1 12.5794 12.5796 18.8725 -8.95364
654 1 14.1523 14.1525 20.4425 -8.9512
655 1 15.7258 12.5799 18.8715 -8.94916
656 1 17.2975 14.1522 20.442 -8.94938
657 1 18.8699 12.5796 18.87 -8.94937
658 1 20.4417 14.152 20.4418 -8.94952
659 1 -0.000177501 15.7246 18.8697 -8.94953
660 1 1.57211 17.297 20.4418 -8.94971
661 1 3.14408 15.725 18.8706 -8.95005
662 1 4.717 17.2971 20.4416 -8.94997
663 1 6.28968 15.7247 18.8701 -8.9504
664 1 7.86188 17.2973 20.4416 -8.94939
665 1 9.43415 15.7253 18.8704 -8.94932
666 1 11.0069 17.2974 20.4417 -8.94942
667 1 12.5791 15.7252 18.8706 -8.94986
668 1 14.1519 17.2973 20.4418 -8.94972
669 1 15.7257 15.726 18.8716 -8.95016
670 1 17.2974 17.2975 20.442 -8.94951
671 1 18.8698 15.7248 18.8699 -8.94951
672 1 20.4417 17.2969 20.4417 -8.9496
673 1 22.0137 18.8696 18.8696 -8.94914
674 1 1.57228 20.4417 20.4416 -8.94953
675 1 3.14451 18.8697 18.8696 -8.94975
676 1 4.71716 20.4417 20.4415 -8.94951
677 1 6.28955 18.8696 18.8695 -8.94929
678 1 7.86202 20.4417 20.4416 -8.94955
679 1 9.4344 18.8698 18.8696 -8.94952
680 1 11.007 20.4418 20.4416 -8.94955
681 1 12.5794 18.8697 18.8696 -8.94929
682 1 14.1519 20.4417 20.4416 -8.9495
683 1 15.7246 18.8699 18.8698 -8.94976
355 1 6.28952 12.5792 22.0136 -8.94989
357 1 9.43419 12.5794 22.0131 -8.94878
359 1 12.5795 12.5796 22.0126 -8.95159
365 1 22.0138 15.7244 22.0138 -8.94951
367 1 3.14449 15.7244 22.0137 -8.95007
369 1 6.28931 15.7247 22.0129 -8.95043
375 1 15.7251 15.7252 22.0133 -8.95014
381 1 3.14447 18.8695 22.0135 -8.94953
379 1 22.0138 18.8694 22.0138 -8.94957
351 1 22.0138 12.5794 22.0138 -8.94955
363 1 18.8696 12.5795 22.0137 -8.94951
385 1 9.43449 18.8696 22.0136 -8.94951
