ITEM: TIMESTEP
113
ITEM: NUMBER OF ATOMS
688
ITEM: BOX BOUNDS pp pp pp
0.0000000000000000e+00 2.2013900999999997e+01
0.0000000000000000e+00 2.2013900999999997e+01
0.0000000000000000e+00 2.2013900999999997e+01
ITEM: ATOMS id type x y z c_pot
189 1 20.4414 4.71608 11.007 -8.94943
2 1 1.57201 1.57208 1.57192 -8.94922
175 1 18.8714 9.43365 9.4338 -8.94952
4 1 4.71699 1.57203 1.57188 -8.94957
174 1 15.7321 9.43198 9.43169 -8.94774
6 1 7.86203 1.57201 1.57189 -8.9495
7 1 9.43452 1.19678e-15 -0.000182672 -8.94957
8 1 11.0071 1.572 1.57192 -8.94952
173 1 12.5967 9.41211 9.40079 -8.83874
10 1 14.152 1.57203 1.57204 -8.94948
172 1 9.37238 9.19354 9.40636 -7.80631
12 1 17.297 1.57198 1.57202 -8.94947
188 1 17.2982 4.71527 11.0067 -8.94888
14 1 20.4415 1.57213 1.57217 -8.94935
171 1 6.24849 9.38862 9.39749 -8.86234
16 1 1.57189 4.71677 1.57169 -8.9499
170 1 3.13216 9.4312 9.43078 -8.95464
18 1 4.71627 4.71614 1.57066 -8.9495
169 1 22.011 9.4339 9.43372 -8.95093
20 1 7.86179 4.71611 1.57098 -8.94912
183 1 1.57014 4.71516 11.0073 -8.94912
22 1 11.0071 4.71608 1.57113 -8.9492
168 1 18.8704 6.28797 9.43405 -8.94921
24 1 14.1523 4.71607 1.57119 -8.94979
167 1 15.7281 6.28554 9.4331 -8.94522
26 1 17.2978 4.71602 1.57137 -8.94872
166 1 12.5802 6.28585 9.43334 -8.95421
28 1 20.4417 4.71684 1.57199 -8.9496
165 1 9.42987 6.30094 9.4361 -9.01024
30 1 1.57196 7.86192 1.57172 -8.94939
164 1 6.27919 6.27484 9.43374 -8.95509
32 1 4.71682 7.86218 1.57118 -8.95037
163 1 3.13822 6.28447 9.43332 -8.94713
34 1 7.8617 7.86158 1.56982 -8.95215
35 1 9.43427 6.28882 -0.000858676 -8.94974
36 1 11.0065 7.86124 1.56975 -8.95067
37 1 12.5794 6.28892 -0.000748121 -8.94981
38 1 14.1533 7.8606 1.56916 -8.95124
162 1 -0.00192161 6.28803 9.4341 -8.94953
40 1 17.2979 7.86142 1.57126 -8.94929
161 1 18.8695 3.14393 9.43436 -8.94947
42 1 20.4418 7.86186 1.57191 -8.94948
181 1 17.2972 1.5718 11.0069 -8.94953
44 1 3.14434 9.43443 -0.00023991 -8.94967
160 1 15.7252 3.14309 9.43419 -8.94937
159 1 12.5793 3.14353 9.43467 -8.95011
158 1 9.43436 3.14542 9.43489 -8.94446
48 1 15.7253 9.43413 -0.000660861 -8.94949
157 1 6.28808 3.14047 9.43485 -8.95152
50 1 22.0136 1.41034e-15 3.14452 -8.94955
51 1 1.57172 1.57177 4.71666 -8.9496
52 1 3.1443 9.06854e-16 3.14417 -8.94957
53 1 4.71646 1.57118 4.71622 -8.95003
54 1 6.2895 1.77109e-15 3.14419 -8.94948
55 1 7.86203 1.57129 4.71632 -8.9495
56 1 9.43462 1.23097e-15 3.14418 -8.94952
57 1 11.0073 1.57142 4.71641 -8.94938
58 1 12.5796 9.54469e-16 3.14431 -8.9494
59 1 14.1522 1.57145 4.71679 -8.9505
60 1 15.7246 1.56584e-17 3.14446 -8.94994
61 1 17.297 1.5719 4.71698 -8.94974
62 1 18.8692 -4.64558e-16 3.14463 -8.94965
63 1 20.4414 1.57209 4.71702 -8.94955
64 1 22.0133 3.1441 3.14409 -8.94912
65 1 1.56995 4.71515 4.71508 -8.94825
66 1 3.14352 3.14344 3.14327 -8.94823
67 1 4.71301 4.71257 4.71242 -8.94414
68 1 6.28915 3.14345 3.14347 -8.94943
69 1 7.86111 4.71347 4.71411 -8.94841
70 1 9.43458 3.14349 3.1436 -8.94945
71 1 11.0076 4.71409 4.71455 -8.94714
72 1 12.5797 3.14357 3.14382 -8.94906
73 1 14.1546 4.71274 4.71405 -8.94878
74 1 15.7252 3.14325 3.1437 -8.94928
75 1 17.2984 4.71538 4.71588 -8.94909
76 1 18.8695 3.1441 3.14429 -8.94942
77 1 20.4413 4.71634 4.71646 -8.94971
78 1 22.0136 6.28927 3.14403 -8.94974
79 1 1.57089 7.86165 4.71555 -8.94951
80 1 3.14342 6.28881 3.14275 -8.95085
81 1 4.71443 7.86116 4.71272 -8.95413
82 1 6.28729 6.287 3.13985 -8.95018
83 1 7.85745 7.85628 4.70611 -8.95629
84 1 9.43417 6.28706 3.14113 -8.94805
85 1 11.0069 7.85845 4.70823 -8.95439
86 1 12.5803 6.28733 3.1412 -8.95003
87 1 14.1619 7.85266 4.70555 -8.93825
88 1 15.7277 6.28619 3.14099 -8.94651
89 1 17.3003 7.86023 4.71479 -8.95032
90 1 18.8703 6.28878 3.14378 -8.94964
91 1 20.442 7.86159 4.71626 -8.94981
92 1 -0.000274941 9.43437 3.14389 -8.94948
93 1 3.14359 9.43436 3.14291 -8.94883
94 1 6.28943 9.43552 3.14299 -8.95086
95 1 9.43403 9.43437 3.14285 -8.94904
96 1 12.582 9.43327 3.13655 -8.95695
97 1 15.7275 9.43334 3.1412 -8.94811
98 1 18.8704 9.43419 3.14366 -8.94935
99 1 22.0136 1.33174e-15 6.28948 -8.94953
100 1 1.57168 1.57173 7.86186 -8.94948
101 1 3.14414 1.08937e-15 6.28921 -8.94978
102 1 4.71635 1.5708 7.86172 -8.95013
103 1 6.28944 1.00828e-15 6.28918 -8.95071
104 1 7.86227 1.57077 7.86203 -8.95162
105 1 9.43479 1.31989e-15 6.28912 -8.95029
106 1 11.0068 1.57176 7.86224 -8.94992
107 1 12.5795 7.05895e-16 6.28958 -8.9504
108 1 14.1521 1.57158 7.86208 -8.95001
109 1 15.7245 -6.22605e-16 6.28954 -8.94984
110 1 17.2971 1.57184 7.86191 -8.94948
111 1 18.8692 1.78363e-15 6.28952 -8.94952
112 1 20.4414 1.57204 7.86197 -8.94953
113 1 -0.000676234 3.14396 6.28922 -8.94942
114 1 1.5701 4.71508 7.86118 -8.94897
115 1 3.14309 3.14249 6.28837 -8.94973
116 1 4.71299 4.71083 7.85969 -8.95006
117 1 6.2883 3.14076 6.28791 -8.95167
118 1 7.86041 4.70876 7.86042 -8.9608
119 1 9.43479 3.14168 6.28811 -8.94995
120 1 11.0056 4.71465 7.86174 -8.95531
121 1 12.5796 3.14235 6.28912 -8.95224
122 1 14.1531 4.71382 7.86139 -8.95074
123 1 15.725 3.14322 6.28921 -8.94998
124 1 17.298 4.71545 7.86148 -8.94877
125 1 18.8694 3.14406 6.28936 -8.94942
126 1 20.4413 4.71614 7.86169 -8.94935
127 1 22.012 6.28824 6.28827 -8.95039
128 1 1.5664 7.85963 7.85958 -8.9528
129 1 3.1371 6.28374 6.28364 -8.94598
130 1 4.69586 7.84643 7.84726 -8.94055
131 1 6.27638 6.27547 6.27563 -8.92726
132 1 7.8215 7.82132 7.82211 -8.83927
133 1 9.43384 6.28066 6.28281 -8.94505
134 1 11.0253 7.84599 7.83173 -8.88633
135 1 12.5864 6.27881 6.28086 -8.94695
136 1 14.1651 7.85162 7.85283 -8.94183
137 1 15.7293 6.28503 6.28599 -8.94763
138 1 17.301 7.85985 7.86062 -8.95112
139 1 18.8704 6.28832 6.28869 -8.95008
140 1 20.4413 7.8611 7.86128 -8.95061
141 1 -0.00111519 9.43423 6.28831 -8.9494
142 1 3.14104 9.43433 6.28621 -8.948
143 1 6.2863 9.43731 6.28373 -8.9641
144 1 9.42256 9.41869 6.28624 -8.93276
145 1 12.6096 9.41182 6.25612 -8.89762
146 1 15.7335 9.43203 6.28446 -8.9544
147 1 18.8715 9.43401 6.28841 -8.95074
148 1 -0.000346584 1.01075e-15 9.43449 -8.94955
149 1 3.14403 -2.18436e-16 9.43449 -8.94961
150 1 6.28934 1.08122e-15 9.4347 -8.95073
151 1 9.43474 1.42618e-15 9.43461 -8.94773
152 1 12.5794 7.58328e-16 9.43461 -8.94976
153 1 15.7247 -6.64247e-16 9.4344 -8.94971
154 1 18.8693 1.13761e-15 9.43445 -8.94956
155 1 22.0132 3.1439 9.43443 -8.94944
156 1 3.14308 3.14253 9.43436 -8.94933
177 1 4.71623 1.57084 11.0073 -8.9497
184 1 4.71268 4.71155 11.0082 -8.94701
3 1 3.1447 7.45397e-16 -0.000189811 -8.94959
11 1 15.7243 -2.34509e-17 -0.000112567 -8.94956
41 1 18.8696 6.2893 -0.000170874 -8.94951
19 1 6.28948 3.14433 -0.000376664 -8.94942
25 1 15.7245 3.14429 -0.000238058 -8.94968
176 1 1.57166 1.57174 11.0071 -8.94949
47 1 12.5795 9.43434 22.0126 -8.95159
178 1 7.86242 1.57147 11.0071 -8.94997
179 1 11.0066 1.57221 11.0068 -8.94856
180 1 14.1523 1.57142 11.0068 -8.94971
343 1 18.8699 9.43431 18.87 -8.94937
182 1 20.4414 1.57202 11.007 -8.94954
342 1 15.7258 9.43395 18.8716 -8.94916
46 1 9.43419 9.4345 22.0131 -8.94877
185 1 7.86037 4.71378 11.0079 -8.95368
186 1 11.0059 4.7183 11.0063 -8.94748
187 1 14.1538 4.71364 11.0061 -8.94792
341 1 12.5795 9.43432 18.8725 -8.95365
340 1 9.43418 9.43478 18.8685 -8.94715
190 1 1.56641 7.8597 11.007 -8.95116
191 1 4.69805 7.85252 11.0088 -8.95121
192 1 7.81576 7.8472 11.0363 -8.86668
193 1 11.0357 7.86868 11.0257 -8.89842
194 1 14.1657 7.85494 11.0047 -8.94752
195 1 17.3018 7.85951 11.0063 -8.94973
196 1 20.4414 7.86091 11.0068 -8.95032
197 1 22.0136 -1.60036e-16 12.5795 -8.94954
198 1 1.57177 1.57177 14.1522 -8.94946
199 1 3.1441 -8.59986e-16 12.5798 -8.94953
200 1 4.7166 1.57092 14.1527 -8.95082
201 1 6.28964 1.54603e-15 12.5797 -8.95098
202 1 7.86237 1.57174 14.1523 -8.94945
203 1 9.4347 1.43361e-15 12.5796 -8.94904
204 1 11.0068 1.57159 14.1523 -8.94965
205 1 12.5793 -4.87748e-16 12.5793 -8.951
206 1 14.1522 1.57084 14.1522 -8.95142
207 1 15.7247 7.59632e-16 12.5794 -8.94966
208 1 17.2971 1.57176 14.1519 -8.94964
209 1 18.8693 1.75388e-15 12.5794 -8.94953
210 1 20.4414 1.57205 14.1519 -8.94951
211 1 22.0133 3.14392 12.5796 -8.94939
212 1 1.57034 4.71518 14.1532 -8.94942
213 1 3.14319 3.14258 12.5802 -8.94905
214 1 4.71287 4.71055 14.1566 -8.94795
215 1 6.28876 3.14089 12.5805 -8.95345
216 1 7.86283 4.71532 14.1531 -8.95015
217 1 9.43471 3.14442 12.5796 -8.94804
218 1 11.0058 4.71447 14.1534 -8.94925
219 1 12.5793 3.14143 12.5794 -8.95476
220 1 14.1556 4.70917 14.1558 -8.95204
221 1 15.7252 3.14285 12.5793 -8.94949
222 1 17.2986 4.71485 14.1527 -8.94988
223 1 18.8695 3.14393 12.5794 -8.94936
224 1 20.4415 4.71617 14.1523 -8.94958
225 1 -0.00167798 6.28815 12.58 -8.94975
226 1 1.56771 7.85967 14.1546 -8.95111
227 1 3.13845 6.2848 12.5822 -8.94886
228 1 4.70186 7.84795 14.1671 -8.92682
229 1 6.27726 6.27315 12.5904 -8.94726
230 1 7.86183 7.85789 14.1599 -8.95188
231 1 9.43481 6.29216 12.5779 -8.95286
232 1 11.0052 7.85566 14.1615 -8.94192
233 1 12.5871 6.27202 12.5865 -8.964
234 1 14.1782 7.83594 14.1783 -8.90114
235 1 15.7296 6.28442 12.5804 -8.94944
236 1 17.3047 7.85781 14.156 -8.95228
237 1 18.8707 6.28803 12.5796 -8.94951
238 1 20.4423 7.86094 14.153 -8.95106
239 1 22.0113 9.43383 12.5803 -8.9518
240 1 3.13134 9.43123 12.5839 -8.95592
241 1 6.24276 9.39418 12.6239 -8.82065
242 1 9.43534 9.43108 12.5689 -8.63834
243 1 12.6539 9.35941 12.655 -8.70681
244 1 15.7446 9.42832 12.5869 -8.96029
245 1 18.8735 9.43358 12.5804 -8.95321
246 1 -0.000263531 4.32008e-17 15.7245 -8.94955
247 1 1.57188 1.57184 17.2973 -8.9493
248 1 3.14428 -7.45973e-17 15.7249 -8.94996
249 1 4.71717 1.572 17.2971 -8.94975
250 1 6.28975 4.36079e-16 15.7247 -8.94957
251 1 7.862 1.57194 17.2972 -8.94939
252 1 9.4345 6.05429e-16 15.7248 -8.94969
253 1 11.0069 1.57188 17.2973 -8.94944
254 1 12.5793 -1.12496e-16 15.7247 -8.94962
255 1 14.1519 1.57183 17.2971 -8.94966
256 1 15.7247 1.27184e-15 15.7247 -8.95038
257 1 17.2973 1.57163 17.2973 -8.94953
258 1 18.8693 1.79083e-15 15.7244 -8.94965
259 1 20.4415 1.57206 17.2969 -8.94961
260 1 -0.000517017 3.144 15.7248 -8.94954
261 1 1.57114 4.7157 17.2984 -8.94817
262 1 3.14328 3.14258 15.726 -8.94887
263 1 4.71655 4.71583 17.2985 -8.95013
264 1 6.28976 3.14361 15.7251 -8.94981
265 1 7.86187 4.71602 17.298 -8.94842
266 1 9.43435 3.14334 15.7254 -8.94925
267 1 11.0066 4.71572 17.2982 -8.94859
268 1 12.5792 3.1431 15.7252 -8.94953
269 1 14.1524 4.71513 17.2987 -8.94992
270 1 15.7258 3.14189 15.7259 -8.94983
271 1 17.2991 4.71453 17.2992 -8.94645
272 1 18.8697 3.14387 15.7247 -8.94973
273 1 20.4419 4.71624 17.2976 -8.9494
274 1 22.0129 6.28831 15.7257 -8.95
275 1 1.57128 7.86138 17.2984 -8.94918
276 1 3.14009 6.28492 15.7295 -8.94408
277 1 4.7157 7.86064 17.3009 -8.95195
278 1 6.2884 6.28687 15.7286 -8.95104
279 1 7.86302 7.86201 17.2983 -8.95239
280 1 9.43383 6.28687 15.7275 -8.94288
281 1 11.0053 7.86111 17.2995 -8.95131
282 1 12.58 6.28521 15.7293 -8.94934
283 1 14.155 7.85859 17.3042 -8.95317
284 1 15.7325 6.28095 15.7328 -8.93747
285 1 17.299 7.86078 17.2993 -8.94909
286 1 18.8716 6.28762 15.7262 -8.94993
287 1 20.4419 7.8616 17.2978 -8.94929
288 1 -0.000947881 9.43404 15.7259 -8.94921
289 1 3.14104 9.43323 15.7284 -8.94724
290 1 6.28705 9.43379 15.7326 -8.9616
291 1 9.43515 9.43835 15.7181 -8.95077
292 1 12.585 9.43091 15.7409 -8.9665
293 1 15.7308 9.43234 15.7311 -8.94663
294 1 18.8715 9.43386 15.7263 -8.94904
295 1 22.0137 1.60532e-15 18.8693 -8.94933
296 1 1.57227 1.57217 20.4416 -8.94953
297 1 3.14474 -7.93925e-16 18.8693 -8.94972
298 1 4.71716 1.57221 20.4415 -8.94951
299 1 6.28959 -1.71504e-15 18.8693 -8.94946
300 1 7.86202 1.57215 20.4416 -8.94954
301 1 9.43448 -3.0018e-16 18.8694 -8.94955
302 1 11.007 1.57213 20.4416 -8.94955
303 1 12.5794 6.40481e-16 18.8694 -8.94948
304 1 14.1519 1.57216 20.4416 -8.94949
305 1 15.7243 1.75028e-15 18.8693 -8.94966
306 1 17.2968 1.57212 20.4416 -8.94965
307 1 18.8693 1.83511e-15 18.8694 -8.9494
308 1 20.4416 1.57217 20.4417 -8.94912
309 1 22.0137 3.14426 18.8697 -8.94913
310 1 1.57211 4.71686 20.4419 -8.94971
311 1 3.1445 3.14422 18.8697 -8.94975
312 1 4.717 4.7168 20.4416 -8.94998
313 1 6.28955 3.1443 18.8695 -8.94929
314 1 7.86187 4.71656 20.4416 -8.94938
315 1 9.4344 3.14413 18.8696 -8.94951
316 1 11.0069 4.71649 20.4417 -8.94942
317 1 12.5794 3.14415 18.8696 -8.94929
318 1 14.1519 4.71655 20.4418 -8.94972
319 1 15.7246 3.14399 18.8698 -8.94976
320 1 17.2974 4.71638 20.442 -8.94951
321 1 18.8697 3.14399 18.8698 -8.9487
322 1 20.4417 4.71694 20.4417 -8.94959
323 1 -0.000178826 6.28929 18.8698 -8.94952
324 1 1.57206 7.86189 20.4419 -8.94949
325 1 3.14407 6.28887 18.8706 -8.95005
326 1 4.71698 7.86195 20.4421 -8.95038
327 1 6.28968 6.2892 18.8701 -8.95041
328 1 7.86208 7.86193 20.4414 -8.95016
329 1 9.43414 6.28857 18.8704 -8.94933
330 1 11.0064 7.86168 20.4417 -8.95012
331 1 12.5791 6.28872 18.8706 -8.94987
332 1 14.1523 7.86137 20.4425 -8.95121
333 1 15.7258 6.2879 18.8717 -8.95016
334 1 17.2975 7.86165 20.442 -8.94938
335 1 18.8698 6.28907 18.87 -8.94951
336 1 20.4417 7.86192 20.4418 -8.94952
337 1 22.0137 9.43438 18.8698 -8.9495
338 1 3.14395 9.43425 18.8706 -8.94934
339 1 6.28965 9.4347 18.8707 -8.95178
45 1 6.28952 9.43469 22.0136 -8.94989
5 1 6.28959 1.12976e-15 22.0137 -8.94954
9 1 12.5795 5.56376e-17 22.0137 -8.94954
39 1 15.7251 6.28867 22.0133 -8.95014
15 1 22.0138 3.14453 22.0138 -8.94957
17 1 3.14447 3.14438 22.0135 -8.94953
33 1 6.28931 6.28918 22.0129 -8.95044
23 1 12.5795 3.14427 22.0136 -8.9494
31 1 3.14449 6.28946 22.0137 -8.95007
27 1 18.8695 3.14434 22.0138 -8.94927
29 1 22.0138 6.28949 22.0138 -8.94951
1 1 22.0138 7.99316e-16 22.0138 -8.9493
13 1 18.8692 1.5121e-15 22.0138 -8.94938
21 1 9.43448 3.14424 22.0136 -8.9495
43 1 22.0138 9.43445 22.0138 -8.94955
49 1 18.8697 9.43439 22.0137 -8.94951
344 1 1.5719 11.007 1.57167 -8.94955
345 1 4.71651 11.007 1.57109 -8.94993
346 1 7.86206 11.007 1.57221 -8.94678
347 1 11.0067 11.007 1.57027 -8.94885
348 1 14.1538 11.007 1.56893 -8.9496
349 1 17.298 11.007 1.57124 -8.94947
350 1 20.4418 11.007 1.57188 -8.94952
538 1 17.2972 20.4421 11.0069 -8.94953
352 1 1.57196 14.152 1.57172 -8.94939
353 1 3.14434 12.5795 -0.00023991 -8.94967
354 1 4.71682 14.1517 1.57118 -8.95037
688 3 10.2322 11.007 9.53697 2.25826
356 1 7.8617 14.1523 1.56982 -8.95215
511 1 18.8695 18.87 9.43436 -8.94947
358 1 11.0065 14.1527 1.56975 -8.95067
510 1 15.7252 18.8708 9.43419 -8.94937
360 1 14.1533 14.1533 1.56916 -8.95124
361 1 15.7253 12.5798 -0.000660861 -8.94949
362 1 17.2979 14.1525 1.57126 -8.94929
532 1 20.4414 17.2978 11.007 -8.94943
364 1 20.4418 14.152 1.57191 -8.94948
509 1 12.5793 18.8704 9.43467 -8.95011
366 1 1.57189 17.2971 1.57169 -8.9499
508 1 9.43436 18.8685 9.43489 -8.94446
368 1 4.71627 17.2978 1.57066 -8.9495
507 1 6.28808 18.8734 9.43485 -8.95152
370 1 7.86179 17.2978 1.57098 -8.94912
371 1 9.43427 15.7251 -0.000858676 -8.94974
372 1 11.0071 17.2978 1.57113 -8.9492
373 1 12.5794 15.725 -0.000748121 -8.94981
374 1 14.1523 17.2978 1.57119 -8.94979
506 1 3.14308 18.8714 9.43436 -8.94933
376 1 17.2978 17.2979 1.57137 -8.94872
505 1 22.0132 18.87 9.43443 -8.94944
378 1 20.4417 17.2971 1.57199 -8.9496
504 1 18.8704 15.7259 9.43405 -8.94921
380 1 1.57201 20.4418 1.57192 -8.94922
503 1 15.7281 15.7284 9.4331 -8.94522
382 1 4.71699 20.4419 1.57188 -8.94957
502 1 12.5802 15.7281 9.43334 -8.95421
384 1 7.86203 20.4419 1.57189 -8.9495
531 1 17.2982 17.2986 11.0067 -8.94888
386 1 11.0071 20.4419 1.57192 -8.94952
501 1 9.42987 15.713 9.4361 -9.01024
388 1 14.152 20.4419 1.57204 -8.94948
500 1 6.27919 15.7391 9.43374 -8.95509
390 1 17.297 20.4419 1.57202 -8.94947
499 1 3.13822 15.7294 9.43332 -8.94713
392 1 20.4415 20.4418 1.57217 -8.94935
393 1 1.57084 11.007 4.71537 -8.94939
394 1 4.71429 11.007 4.71314 -8.94581
395 1 7.86425 11.007 4.72212 -8.93552
396 1 11.0096 11.007 4.71293 -8.98677
397 1 14.1607 11.007 4.70723 -8.94266
398 1 17.3005 11.007 4.7146 -8.94916
399 1 20.4421 11.007 4.71612 -8.94974
400 1 -0.000274941 12.5795 3.14389 -8.94948
401 1 1.57089 14.1523 4.71555 -8.94951
402 1 3.14359 12.5795 3.14291 -8.94883
403 1 4.71443 14.1527 4.71272 -8.95413
404 1 6.28943 12.5784 3.14299 -8.95086
405 1 7.85745 14.1576 4.70611 -8.95629
406 1 9.43403 12.5795 3.14285 -8.94904
407 1 11.0069 14.1555 4.70823 -8.95439
408 1 12.582 12.5806 3.13655 -8.95695
409 1 14.1619 14.1612 4.70555 -8.93825
410 1 15.7275 12.5806 3.1412 -8.94811
411 1 17.3003 14.1537 4.71479 -8.95032
412 1 18.8704 12.5797 3.14366 -8.94935
413 1 20.442 14.1523 4.71626 -8.94981
414 1 22.0136 15.7246 3.14403 -8.94974
415 1 1.56995 17.2988 4.71508 -8.94825
416 1 3.14342 15.7251 3.14275 -8.95085
417 1 4.71301 17.3013 4.71242 -8.94414
418 1 6.28729 15.7269 3.13985 -8.95018
419 1 7.86111 17.3004 4.71411 -8.94841
420 1 9.43417 15.7268 3.14113 -8.94805
421 1 11.0076 17.2998 4.71455 -8.94714
422 1 12.5803 15.7266 3.1412 -8.95003
423 1 14.1546 17.3012 4.71405 -8.94878
424 1 15.7277 15.7277 3.14099 -8.94651
425 1 17.2984 17.2985 4.71588 -8.94909
426 1 18.8703 15.7251 3.14378 -8.94964
427 1 20.4413 17.2976 4.71646 -8.94971
428 1 22.0133 18.8698 3.14409 -8.94912
429 1 1.57172 20.4421 4.71666 -8.9496
430 1 3.14352 18.8705 3.14327 -8.94823
431 1 4.71646 20.4427 4.71622 -8.95003
432 1 6.28915 18.8704 3.14347 -8.94943
433 1 7.86203 20.4426 4.71632 -8.9495
434 1 9.43458 18.8704 3.1436 -8.94945
435 1 11.0073 20.4425 4.71641 -8.94938
436 1 12.5797 18.8703 3.14382 -8.94906
437 1 14.1522 20.4424 4.71679 -8.9505
438 1 15.7252 18.8707 3.1437 -8.94928
439 1 17.297 20.442 4.71698 -8.94974
440 1 18.8695 18.8698 3.14429 -8.94942
441 1 20.4414 20.4418 4.71702 -8.94955
442 1 1.56854 11.007 7.85976 -8.94735
443 1 4.71101 11.007 7.85739 -8.93541
444 1 7.87649 11.007 7.89704 -8.9148
445 1 11.069 11.007 7.69841 -8.23024
446 1 14.1659 11.007 7.85205 -8.95902
447 1 17.3016 11.007 7.86059 -8.95044
448 1 20.4417 11.007 7.86118 -8.94975
449 1 -0.00111519 12.5797 6.28831 -8.9494
450 1 1.5664 14.1543 7.85958 -8.9528
451 1 3.14104 12.5796 6.28621 -8.948
452 1 4.69586 14.1675 7.84726 -8.94055
453 1 6.2863 12.5766 6.28373 -8.9641
454 1 7.8215 14.1926 7.82211 -8.83927
455 1 9.42256 12.5952 6.28624 -8.93276
456 1 11.0253 14.1679 7.83173 -8.88633
457 1 12.6096 12.6021 6.25612 -8.89762
458 1 14.1651 14.1623 7.85283 -8.94183
459 1 15.7335 12.5819 6.28446 -8.9544
460 1 17.301 14.1541 7.86062 -8.95112
461 1 18.8715 12.5799 6.28841 -8.95074
462 1 20.4413 14.1528 7.86128 -8.95061
463 1 22.012 15.7257 6.28827 -8.95039
464 1 1.5701 17.2988 7.86118 -8.94897
465 1 3.1371 15.7302 6.28364 -8.94598
466 1 4.71299 17.3031 7.85969 -8.95006
467 1 6.27638 15.7384 6.27563 -8.92726
468 1 7.86041 17.3051 7.86042 -8.9608
469 1 9.43384 15.7332 6.28281 -8.94505
470 1 11.0056 17.2992 7.86174 -8.95531
471 1 12.5864 15.7351 6.28086 -8.94695
472 1 14.1531 17.3001 7.86139 -8.95074
473 1 15.7293 15.7289 6.28599 -8.94763
474 1 17.298 17.2985 7.86148 -8.94877
475 1 18.8704 15.7256 6.28869 -8.95008
476 1 20.4413 17.2978 7.86169 -8.94935
477 1 -0.000676234 18.8699 6.28922 -8.94942
478 1 1.57168 20.4422 7.86186 -8.94948
479 1 3.14309 18.8714 6.28837 -8.94973
480 1 4.71635 20.4431 7.86172 -8.95013
481 1 6.2883 18.8731 6.28791 -8.95167
482 1 7.86227 20.4431 7.86203 -8.95162
483 1 9.43479 18.8722 6.28811 -8.94995
484 1 11.0068 20.4421 7.86224 -8.94992
485 1 12.5796 18.8716 6.28912 -8.95224
486 1 14.1521 20.4423 7.86208 -8.95001
487 1 15.725 18.8707 6.28921 -8.94998
488 1 17.2971 20.4421 7.86191 -8.94948
489 1 18.8694 18.8698 6.28936 -8.94942
490 1 20.4414 20.4419 7.86197 -8.94953
491 1 22.011 12.58 9.43372 -8.95093
492 1 3.13216 12.5827 9.43078 -8.95464
493 1 6.24849 12.6253 9.39749 -8.86234
494 1 9.37238 12.8204 9.40636 -7.80631
495 1 12.5967 12.6018 9.40079 -8.83874
496 1 15.7321 12.5819 9.43169 -8.94774
497 1 18.8714 12.5803 9.4338 -8.94952
498 1 -0.00192161 15.7259 9.4341 -8.94953
526 1 1.57014 17.2987 11.0073 -8.94912
527 1 4.71268 17.3024 11.0082 -8.94701
534 1 4.71623 20.4431 11.0073 -8.9497
389 1 15.7245 18.8696 -0.000238058 -8.94968
377 1 18.8696 15.7246 -0.000170874 -8.94951
383 1 6.28948 18.8696 -0.000376664 -8.94942
512 1 1.56519 11.007 11.007 -8.95235
513 1 4.69248 11.007 11.0072 -9.01952
514 1 7.49714 11.007 11.0241 -7.8872
515 1 11.4201 11.007 11.1835 -7.15833
516 1 14.1822 11.007 11.0174 -9.02059
517 1 17.305 11.007 11.0068 -8.95432
518 1 20.4418 11.007 11.0068 -8.95072
519 1 1.56641 14.1542 11.007 -8.95116
520 1 4.69805 14.1614 11.0088 -8.95121
521 1 7.81576 14.1667 11.0363 -8.86668
522 1 11.0357 14.1452 11.0257 -8.89842
523 1 14.1657 14.159 11.0047 -8.94752
524 1 17.3018 14.1544 11.0063 -8.94973
525 1 20.4414 14.153 11.0068 -8.95032
687 3 9.45515 11.007 10.939 2.28441
391 1 18.8695 18.8696 22.0138 -8.94927
528 1 7.86037 17.3001 11.0079 -8.95368
529 1 11.0059 17.2956 11.0063 -8.94748
530 1 14.1538 17.3003 11.0061 -8.94792
686 1 20.4416 20.4417 20.4417 -8.94912
685 1 18.8697 18.8699 18.8698 -8.9487
533 1 1.57166 20.4422 11.0071 -8.94949
387 1 12.5795 18.8696 22.0136 -8.9494
535 1 7.86242 20.4424 11.0071 -8.94997
536 1 11.0066 20.4417 11.0068 -8.94856
537 1 14.1523 20.4425 11.0068 -8.94971
684 1 17.2968 20.4418 20.4416 -8.94965
539 1 20.4414 20.4419 11.007 -8.94954
540 1 1.56765 11.007 14.1548 -8.94913
541 1 4.70451 11.007 14.1611 -8.93952
542 1 7.85249 11.007 14.1379 -8.95371
543 1 11.0263 11.007 14.144 -8.98786
544 1 14.1698 11.007 14.1668 -8.9376
545 1 17.3041 11.007 14.1561 -8.94807
546 1 20.4423 11.007 14.1533 -8.95022
547 1 22.0113 12.5801 12.5803 -8.9518
548 1 1.56771 14.1542 14.1546 -8.95111
549 1 3.13134 12.5827 12.5839 -8.95592
550 1 4.70186 14.166 14.1671 -8.92682
551 1 6.24276 12.6197 12.6239 -8.82065
552 1 7.86183 14.156 14.1599 -8.95188
553 1 9.43534 12.5828 12.5689 -8.63834
554 1 11.0052 14.1582 14.1615 -8.94192
555 1 12.6539 12.6545 12.655 -8.70681
556 1 14.1782 14.178 14.1783 -8.90114
557 1 15.7446 12.5856 12.5869 -8.96029
558 1 17.3047 14.1561 14.156 -8.95228
559 1 18.8735 12.5803 12.5804 -8.95321
560 1 20.4423 14.153 14.153 -8.95106
561 1 -0.00167798 15.7257 12.58 -8.94975
562 1 1.57034 17.2987 14.1532 -8.94942
563 1 3.13845 15.7291 12.5822 -8.94886
564 1 4.71287 17.3034 14.1566 -8.94795
565 1 6.27726 15.7407 12.5904 -8.94726
566 1 7.86283 17.2986 14.1531 -8.95015
567 1 9.43481 15.7217 12.5779 -8.95286
568 1 11.0058 17.2994 14.1534 -8.94925
569 1 12.5871 15.7419 12.5865 -8.964
570 1 14.1556 17.3047 14.1558 -8.95204
571 1 15.7296 15.7295 12.5804 -8.94944
572 1 17.2986 17.2991 14.1527 -8.94988
573 1 18.8707 15.7259 12.5796 -8.94951
574 1 20.4415 17.2977 14.1523 -8.94958
575 1 22.0133 18.87 12.5796 -8.94939
576 1 1.57177 20.4421 14.1522 -8.94946
577 1 3.14319 18.8713 12.5802 -8.94905
578 1 4.7166 20.443 14.1527 -8.95082
579 1 6.28876 18.873 12.5805 -8.95345
580 1 7.86237 20.4422 14.1523 -8.94945
581 1 9.43471 18.8695 12.5796 -8.94804
582 1 11.0068 20.4423 14.1523 -8.94965
583 1 12.5793 18.8725 12.5794 -8.95476
584 1 14.1522 20.4431 14.1522 -8.95142
585 1 15.7252 18.871 12.5793 -8.94949
586 1 17.2971 20.4421 14.1519 -8.94964
587 1 18.8695 18.87 12.5794 -8.94936
588 1 20.4414 20.4419 14.1519 -8.94951
589 1 1.57119 11.007 17.2984 -8.94943
590 1 4.715 11.007 17.3005 -8.94882
591 1 7.86255 11.007 17.2951 -8.94442
592 1 11.0065 11.007 17.2974 -8.94478
593 1 14.1557 11.007 17.3033 -8.9476
594 1 17.2991 11.007 17.2993 -8.94904
595 1 20.4419 11.007 17.2978 -8.94944
596 1 -0.000947881 12.5799 15.7259 -8.94921
597 1 1.57128 14.1525 17.2984 -8.94918
598 1 3.14104 12.5807 15.7284 -8.94724
599 1 4.7157 14.1533 17.3009 -8.95195
600 1 6.28705 12.5801 15.7326 -8.9616
601 1 7.86302 14.1519 17.2983 -8.95239
602 1 9.43515 12.5756 15.7181 -8.95077
603 1 11.0053 14.1528 17.2995 -8.95131
604 1 12.585 12.583 15.7409 -8.9665
605 1 14.155 14.1553 17.3042 -8.95317
606 1 15.7308 12.5816 15.7311 -8.94663
607 1 17.299 14.1531 17.2993 -8.94909
608 1 18.8715 12.58 15.7263 -8.94904
609 1 20.4419 14.1523 17.2978 -8.94929
610 1 22.0129 15.7256 15.7257 -8.95
611 1 1.57114 17.2982 17.2984 -8.94817
612 1 3.14009 15.729 15.7295 -8.94408
613 1 4.71655 17.2981 17.2985 -8.95013
614 1 6.2884 15.727 15.7286 -8.95104
615 1 7.86187 17.2979 17.298 -8.94842
616 1 9.43383 15.727 15.7275 -8.94288
617 1 11.0066 17.2982 17.2982 -8.94859
618 1 12.58 15.7287 15.7293 -8.94934
619 1 14.1524 17.2988 17.2987 -8.94992
620 1 15.7325 15.733 15.7328 -8.93747
621 1 17.2991 17.2994 17.2992 -8.94645
622 1 18.8716 15.7263 15.7262 -8.94993
623 1 20.4419 17.2977 17.2976 -8.9494
624 1 -0.000517017 18.8699 15.7248 -8.94954
625 1 1.57188 20.4421 17.2973 -8.9493
626 1 3.14328 18.8713 15.726 -8.94887
627 1 4.71717 20.4419 17.2971 -8.94975
628 1 6.28976 18.8703 15.7251 -8.94981
629 1 7.862 20.442 17.2972 -8.94939
630 1 9.43435 18.8706 15.7254 -8.94925
631 1 11.0069 20.442 17.2973 -8.94944
632 1 12.5792 18.8708 15.7252 -8.94953
633 1 14.1519 20.4421 17.2971 -8.94966
634 1 15.7258 18.872 15.7259 -8.94983
635 1 17.2973 20.4423 17.2973 -8.94953
636 1 18.8697 18.87 15.7247 -8.94973
637 1 20.4415 20.4418 17.2969 -8.94961
638 1 1.57201 11.007 20.4419 -8.94954
639 1 4.71675 11.007 20.4422 -8.95005
640 1 7.86213 11.007 20.4413 -8.94833
641 1 11.0063 11.007 20.4415 -8.94878
642 1 14.1527 11.007 20.4425 -8.95031
643 1 17.2976 11.007 20.442 -8.94948
644 1 20.4417 11.007 20.4418 -8.94954
645 1 22.0137 12.5795 18.8698 -8.9495
646 1 1.57206 14.152 20.4419 -8.94949
647 1 3.14395 12.5796 18.8706 -8.94934
648 1 4.71698 14.1519 20.4421 -8.95038
649 1 6.28965 12.5792 18.8707 -8.95178
650 1 7.86208 14.152 20.4414 -8.95016
651 1 9.43418 12.5791 18.8685 -8.94715
652 1 11.0064 14.1522 20.4417 -8.95012
653 1 12.5795 12.5796 18.8725 -8.95365
654 1 14.1523 14.1525 20.4425 -8.95121
655 1 15.7258 12.58 18.8716 -8.94916
656 1 17.2975 14.1523 20.442 -8.94938
657 1 18.8699 12.5796 18.87 -8.94937
658 1 20.4417 14.152 20.4418 -8.94952
659 1 -0.000178826 15.7246 18.8698 -8.94952
660 1 1.57211 17.297 20.4419 -8.94971
661 1 3.14407 15.725 18.8706 -8.95005
662 1 4.717 17.2971 20.4416 -8.94998
663 1 6.28968 15.7247 18.8701 -8.95041
664 1 7.86187 17.2973 20.4416 -8.94938
665 1 9.43414 15.7253 18.8704 -8.94933
666 1 11.0069 17.2974 20.4417 -8.94942
667 1 12.5791 15.7252 18.8706 -8.94987
668 1 14.1519 17.2973 20.4418 -8.94972
669 1 15.7258 15.726 18.8717 -8.95016
670 1 17.2974 17.2975 20.442 -8.94951
671 1 18.8698 15.7248 18.87 -8.94951
672 1 20.4417 17.297 20.4417 -8.94959
673 1 22.0137 18.8696 18.8697 -8.94913
674 1 1.57227 20.4417 20.4416 -8.94953
675 1 3.1445 18.8697 18.8697 -8.94975
676 1 4.71716 20.4417 20.4415 -8.94951
677 1 6.28955 18.8696 18.8695 -8.94929
678 1 7.86202 20.4418 20.4416 -8.94954
679 1 9.4344 18.8698 18.8696 -8.94951
680 1 11.007 20.4418 20.4416 -8.94955
681 1 12.5794 18.8698 18.8696 -8.94929
682 1 14.1519 20.4417 20.4416 -8.94949
683 1 15.7246 18.8699 18.8698 -8.94976
355 1 6.28952 12.5792 22.0136 -8.94989
357 1 9.43419 12.5794 22.0131 -8.94877
359 1 12.5795 12.5796 22.0126 -8.95159
365 1 22.0138 15.7244 22.0138 -8.94951
367 1 3.14449 15.7244 22.0137 -8.95007
369 1 6.28931 15.7247 22.0129 -8.95044
375 1 15.7251 15.7252 22.0133 -8.95014
381 1 3.14447 18.8695 22.0135 -8.94953
379 1 22.0138 18.8694 22.0138 -8.94957
351 1 22.0138 12.5795 22.0138 -8.94955
363 1 18.8697 12.5795 22.0137 -8.94951
385 1 9.43448 18.8697 22.0136 -8.9495
