ITEM: TIMESTEP
76
ITEM: NUMBER OF ATOMS
688
ITEM: BOX BOUNDS pp pp pp
0.0000000000000000e+00 2.2013900999999997e+01
0.0000000000000000e+00 2.2013900999999997e+01
0.0000000000000000e+00 2.2013900999999997e+01
ITEM: ATOMS id type x y z c_pot
189 1 20.4414 4.71651 11.007 -8.94947
2 1 1.57217 1.57222 1.57213 -8.94931
175 1 18.8712 9.43378 9.43397 -8.94957
4 1 4.71713 1.57218 1.57212 -8.94964
174 1 15.7316 9.43198 9.43181 -8.94774
6 1 7.86207 1.57216 1.5721 -8.94956
7 1 9.43452 -4.32685e-16 -9.99135e-05 -8.94961
8 1 11.007 1.57215 1.5721 -8.94957
173 1 12.5963 9.41133 9.39973 -8.83452
10 1 14.1519 1.57218 1.57219 -8.94952
172 1 9.36925 9.19574 9.40806 -7.80748
12 1 17.2969 1.57215 1.57217 -8.94952
188 1 17.2979 4.71577 11.0068 -8.94896
14 1 20.4415 1.57227 1.57229 -8.94944
171 1 6.24869 9.38921 9.39715 -8.86266
16 1 1.57208 4.71698 1.57196 -8.94986
170 1 3.13307 9.43166 9.43115 -8.95505
18 1 4.71653 4.71644 1.5711 -8.94949
169 1 22.0114 9.43408 9.43395 -8.951
20 1 7.86191 4.71643 1.57136 -8.94917
183 1 1.57074 4.71575 11.0072 -8.94919
22 1 11.007 4.71639 1.57146 -8.94926
168 1 18.8702 6.28841 9.43422 -8.94921
24 1 14.1521 4.71644 1.57155 -8.94977
167 1 15.7275 6.28608 9.43343 -8.94545
26 1 17.2975 4.71638 1.57162 -8.94874
166 1 12.5795 6.28578 9.43349 -8.9549
28 1 20.4417 4.71704 1.57217 -8.94962
165 1 9.42992 6.29975 9.43619 -9.00952
30 1 1.57209 7.862 1.57196 -8.94942
164 1 6.28038 6.27556 9.43388 -8.95525
32 1 4.71692 7.86221 1.57144 -8.95029
163 1 3.13934 6.28537 9.43363 -8.94722
34 1 7.86176 7.86168 1.57011 -8.95204
35 1 9.43434 6.28902 -0.00065658 -8.94972
36 1 11.0066 7.86137 1.57011 -8.9505
37 1 12.5794 6.28914 -0.000568569 -8.94972
38 1 14.1531 7.86084 1.56959 -8.95119
162 1 -0.00146956 6.28851 9.43427 -8.94951
40 1 17.2975 7.86167 1.57158 -8.94936
161 1 18.8694 3.14426 9.43443 -8.94953
42 1 20.4417 7.86199 1.57211 -8.94953
181 1 17.297 1.572 11.0069 -8.94956
44 1 3.14447 9.43446 -0.000187972 -8.94966
160 1 15.725 3.14343 9.4343 -8.94937
159 1 12.5794 3.14353 9.43469 -8.9501
158 1 9.43452 3.14498 9.43485 -8.94476
48 1 15.725 9.43426 -0.000548509 -8.94947
157 1 6.28843 3.1409 9.43482 -8.95134
50 1 22.0137 1.27223e-15 3.14469 -8.9496
51 1 1.57199 1.572 4.71692 -8.94965
52 1 3.1445 1.56832e-15 3.14444 -8.94957
53 1 4.71668 1.57148 4.71653 -8.94997
54 1 6.28959 1.00926e-15 3.14445 -8.94951
55 1 7.86208 1.57156 4.71659 -8.94947
56 1 9.43458 4.75242e-16 3.14442 -8.94956
57 1 11.0072 1.57163 4.71662 -8.94939
58 1 12.5795 1.1049e-15 3.14449 -8.94945
59 1 14.1521 1.57169 4.71693 -8.95036
60 1 15.7244 7.89571e-16 3.14461 -8.94988
61 1 17.2969 1.57209 4.71711 -8.94972
62 1 18.8691 2.77705e-16 3.14475 -8.94966
63 1 20.4414 1.57225 4.71717 -8.94961
64 1 22.0135 3.14438 3.14438 -8.94919
65 1 1.57048 4.71566 4.71563 -8.9483
66 1 3.14388 3.14383 3.14373 -8.94834
67 1 4.71368 4.71333 4.7132 -8.94432
68 1 6.28937 3.14386 3.1439 -8.94952
69 1 7.86145 4.71414 4.7147 -8.94853
70 1 9.43459 3.14384 3.14394 -8.94949
71 1 11.0075 4.71458 4.71507 -8.9473
72 1 12.5796 3.1439 3.14412 -8.94913
73 1 14.1541 4.71347 4.71474 -8.94904
74 1 15.725 3.14367 3.14403 -8.94937
75 1 17.298 4.71588 4.71628 -8.94906
76 1 18.8693 3.14439 3.14452 -8.94945
77 1 20.4414 4.71668 4.71677 -8.94969
78 1 22.0137 6.28947 3.14435 -8.94974
79 1 1.57124 7.86185 4.71602 -8.94948
80 1 3.14378 6.28909 3.14326 -8.95071
81 1 4.71489 7.86143 4.71326 -8.95388
82 1 6.28768 6.28746 3.14055 -8.95016
83 1 7.85791 7.85683 4.70664 -8.95618
84 1 9.43427 6.28749 3.14169 -8.94807
85 1 11.0067 7.85881 4.70904 -8.95397
86 1 12.58 6.28778 3.14193 -8.9499
87 1 14.1613 7.85302 4.70632 -8.93797
88 1 15.7272 6.28669 3.14157 -8.94644
89 1 17.2998 7.86059 4.71533 -8.95036
90 1 18.87 6.28907 3.14411 -8.94966
91 1 20.4419 7.86178 4.71662 -8.94981
92 1 -0.000214982 9.43444 3.14423 -8.94952
93 1 3.14382 9.43441 3.1433 -8.94886
94 1 6.28947 9.43548 3.14303 -8.95089
95 1 9.43408 9.43442 3.14279 -8.94908
96 1 12.5816 9.43334 3.13705 -8.95701
97 1 15.7269 9.43357 3.14187 -8.94817
98 1 18.87 9.43432 3.14404 -8.94939
99 1 22.0137 2.22105e-16 6.2896 -8.94958
100 1 1.57196 1.57198 7.86198 -8.94952
101 1 3.14439 9.83577e-16 6.28941 -8.94976
102 1 4.7166 1.57114 7.86184 -8.95005
103 1 6.28949 1.46155e-15 6.28931 -8.95061
104 1 7.86227 1.57089 7.86204 -8.95155
105 1 9.43475 1.14435e-15 6.28924 -8.95022
106 1 11.0069 1.57176 7.8622 -8.94991
107 1 12.5795 1.03905e-15 6.28959 -8.95029
108 1 14.152 1.57172 7.8621 -8.94999
109 1 15.7244 5.66787e-16 6.2896 -8.9498
110 1 17.297 1.57203 7.86199 -8.9495
111 1 18.8692 7.98814e-16 6.28961 -8.94955
112 1 20.4415 1.57221 7.86205 -8.94958
113 1 -0.000421734 3.14432 6.28945 -8.9495
114 1 1.57071 4.71571 7.86153 -8.94906
115 1 3.14357 3.14307 6.28878 -8.94977
116 1 4.71379 4.71173 7.86013 -8.95016
117 1 6.2886 3.14133 6.28823 -8.95155
118 1 7.86082 4.70906 7.8606 -8.9605
119 1 9.43486 3.14202 6.28836 -8.94984
120 1 11.0057 4.71464 7.86192 -8.95477
121 1 12.5796 3.14269 6.28928 -8.95202
122 1 14.1528 4.71418 7.86167 -8.95088
123 1 15.7248 3.14361 6.28939 -8.94995
124 1 17.2977 4.71592 7.86172 -8.94891
125 1 18.8693 3.14437 6.28952 -8.94948
126 1 20.4414 4.71656 7.86188 -8.9494
127 1 22.0123 6.28865 6.28868 -8.95033
128 1 1.56715 7.86011 7.86005 -8.95276
129 1 3.13804 6.28452 6.28443 -8.94593
130 1 4.69696 7.84725 7.84784 -8.94018
131 1 6.27738 6.27644 6.2765 -8.92752
132 1 7.8224 7.82202 7.82264 -8.83966
133 1 9.43415 6.28126 6.28352 -8.94524
134 1 11.0235 7.84708 7.83344 -8.88813
135 1 12.5855 6.27966 6.28211 -8.94783
136 1 14.1644 7.85178 7.85343 -8.94074
137 1 15.7286 6.28564 6.28661 -8.9474
138 1 17.3005 7.86016 7.86097 -8.95099
139 1 18.8702 6.2887 6.28902 -8.94999
140 1 20.4414 7.86138 7.86155 -8.95058
141 1 -0.000906834 9.43435 6.28868 -8.94944
142 1 3.1415 9.43446 6.28664 -8.94798
143 1 6.28655 9.4373 6.28347 -8.96392
144 1 9.42264 9.41911 6.2861 -8.93162
145 1 12.6094 9.41135 6.25643 -8.89663
146 1 15.7329 9.43222 6.2852 -8.95456
147 1 18.8711 9.43415 6.28879 -8.95073
148 1 -0.00019075 8.51096e-16 9.43451 -8.94959
149 1 3.1443 -8.59818e-17 9.4345 -8.94961
150 1 6.2894 3.88251e-16 9.43465 -8.95064
151 1 9.43474 8.46147e-16 9.43459 -8.94809
152 1 12.5795 8.31161e-16 9.43459 -8.9498
153 1 15.7246 4.64055e-16 9.43444 -8.94971
154 1 18.8692 1.58635e-15 9.43449 -8.9496
155 1 22.0135 3.14426 9.43448 -8.94951
156 1 3.14356 3.14311 9.43443 -8.94934
177 1 4.71648 1.57115 11.0072 -8.94965
184 1 4.71354 4.71234 11.008 -8.94714
3 1 3.14478 1.76735e-15 -8.94263e-05 -8.94964
11 1 15.7243 8.06299e-16 -6.08297e-05 -8.9496
41 1 18.8694 6.2895 -0.00012416 -8.94957
19 1 6.28957 3.14453 -0.000224755 -8.94948
25 1 15.7244 3.14453 -0.000156727 -8.9497
176 1 1.57193 1.57198 11.007 -8.94954
47 1 12.5795 9.43437 22.0127 -8.95153
178 1 7.8624 1.57144 11.0071 -8.9501
179 1 11.0067 1.5721 11.0068 -8.94869
180 1 14.1522 1.57159 11.0068 -8.94968
343 1 18.8696 9.43442 18.8697 -8.94945
182 1 20.4415 1.5722 11.007 -8.94959
342 1 15.7254 9.43415 18.8709 -8.94918
46 1 9.43423 9.43448 22.0132 -8.94897
185 1 7.86076 4.71338 11.0079 -8.95368
186 1 11.0059 4.71779 11.0063 -8.94718
187 1 14.1535 4.71408 11.0061 -8.94803
341 1 12.5794 9.43436 18.8722 -8.95346
340 1 9.43415 9.43467 18.8689 -8.94743
190 1 1.56734 7.86019 11.0071 -8.95108
191 1 4.69979 7.8533 11.0088 -8.95142
192 1 7.81696 7.84644 11.0365 -8.86619
193 1 11.0337 7.86876 11.0246 -8.89965
194 1 14.1639 7.85555 11.0045 -8.94775
195 1 17.301 7.85995 11.0063 -8.94956
196 1 20.4415 7.86123 11.0069 -8.95024
197 1 22.0137 8.82503e-16 12.5794 -8.94959
198 1 1.57201 1.57201 14.152 -8.94952
199 1 3.14434 7.38087e-16 12.5796 -8.94953
200 1 4.71674 1.57122 14.1525 -8.95065
201 1 6.28962 8.83543e-16 12.5796 -8.95091
202 1 7.86233 1.57181 14.1522 -8.94948
203 1 9.43468 4.2969e-16 12.5796 -8.94919
204 1 11.0068 1.57168 14.1522 -8.94967
205 1 12.5793 6.04204e-16 12.5793 -8.95087
206 1 14.1521 1.57116 14.1521 -8.95118
207 1 15.7245 1.2052e-15 12.5794 -8.94964
208 1 17.2969 1.57201 14.1518 -8.94963
209 1 18.8692 1.71577e-15 12.5794 -8.94957
210 1 20.4415 1.57223 14.1519 -8.94956
211 1 22.0135 3.14428 12.5795 -8.94946
212 1 1.57085 4.71579 14.1527 -8.94946
213 1 3.14363 3.14315 12.5799 -8.94912
214 1 4.71353 4.71141 14.1559 -8.94782
215 1 6.28896 3.14123 12.5803 -8.95324
216 1 7.86298 4.71539 14.153 -8.95017
217 1 9.43479 3.1442 12.5797 -8.94811
218 1 11.0058 4.71457 14.1533 -8.94927
219 1 12.5793 3.14174 12.5793 -8.95444
220 1 14.1549 4.71024 14.155 -8.95208
221 1 15.7249 3.14334 12.5793 -8.94949
222 1 17.2981 4.71557 14.1523 -8.94989
223 1 18.8694 3.14429 12.5794 -8.94943
224 1 20.4415 4.7166 14.152 -8.94958
225 1 -0.00129553 6.28861 12.5798 -8.94972
226 1 1.56851 7.86021 14.154 -8.95106
227 1 3.13953 6.28564 12.5817 -8.94894
228 1 4.70341 7.84906 14.1659 -8.92765
229 1 6.27838 6.27375 12.5899 -8.94679
230 1 7.86225 7.85777 14.16 -8.95191
231 1 9.43497 6.29148 12.578 -8.95308
232 1 11.0045 7.85564 14.1614 -8.94131
233 1 12.5858 6.27292 12.5855 -8.96424
234 1 14.1762 7.83735 14.1766 -8.90189
235 1 15.7285 6.28532 12.58 -8.94946
236 1 17.3035 7.85859 14.1552 -8.95225
237 1 18.8704 6.28852 12.5795 -8.94946
238 1 20.4421 7.8613 14.1526 -8.95094
239 1 22.0117 9.43402 12.5801 -8.95158
240 1 3.13297 9.43167 12.5834 -8.95569
241 1 6.2456 9.39521 12.6227 -8.82215
242 1 9.43587 9.43061 12.5704 -8.63463
243 1 12.6508 9.36027 12.6541 -8.70678
244 1 15.7426 9.42883 12.586 -8.96006
245 1 18.8729 9.43381 12.5801 -8.95295
246 1 -0.000144475 7.40927e-16 15.7243 -8.9496
247 1 1.57206 1.57205 17.297 -8.94935
248 1 3.14446 -9.10807e-17 15.7247 -8.94988
249 1 4.71722 1.57215 17.2969 -8.94975
250 1 6.28973 4.3062e-16 15.7245 -8.94957
251 1 7.86202 1.57206 17.2971 -8.94944
252 1 9.43451 6.09172e-16 15.7247 -8.94971
253 1 11.007 1.57202 17.2971 -8.94948
254 1 12.5794 7.68764e-16 15.7245 -8.94961
255 1 14.1518 1.57204 17.297 -8.94964
256 1 15.7245 1.32325e-15 15.7246 -8.95022
257 1 17.2971 1.5719 17.2971 -8.94955
258 1 18.8692 1.81409e-15 15.7243 -8.94965
259 1 20.4415 1.57224 17.2968 -8.94966
260 1 -0.000357021 3.14435 15.7245 -8.94958
261 1 1.57144 4.71616 17.2979 -8.9483
262 1 3.14364 3.14312 15.7255 -8.94888
263 1 4.71673 4.7162 17.298 -8.95004
264 1 6.2898 3.14389 15.7249 -8.9498
265 1 7.86191 4.71622 17.2978 -8.94851
266 1 9.4344 3.14352 15.7252 -8.94927
267 1 11.0067 4.71601 17.2979 -8.94867
268 1 12.5792 3.14347 15.7249 -8.94951
269 1 14.1522 4.71573 17.2981 -8.94989
270 1 15.7254 3.14259 15.7255 -8.94983
271 1 17.2985 4.71524 17.2986 -8.9467
272 1 18.8694 3.14428 15.7245 -8.94976
273 1 20.4418 4.71664 17.2973 -8.94946
274 1 22.0131 6.28876 15.7252 -8.94997
275 1 1.57159 7.86167 17.2978 -8.94929
276 1 3.14084 6.28572 15.7286 -8.9444
277 1 4.71601 7.86093 17.3002 -8.95184
278 1 6.28867 6.28723 15.7281 -8.95093
279 1 7.86288 7.86186 17.2985 -8.95215
280 1 9.43384 6.2869 15.7274 -8.94301
281 1 11.0053 7.86116 17.2995 -8.95115
282 1 12.5796 6.28582 15.7285 -8.94925
283 1 14.1544 7.85915 17.3032 -8.95299
284 1 15.7314 6.28217 15.7316 -8.93794
285 1 17.2983 7.86128 17.2985 -8.94923
286 1 18.8711 6.28823 15.7256 -8.94992
287 1 20.4418 7.86185 17.2973 -8.94937
288 1 -0.000742018 9.43423 15.7253 -8.94925
289 1 3.14185 9.43355 15.7276 -8.94748
290 1 6.28766 9.43393 15.7321 -8.9615
291 1 9.43462 9.43789 15.7195 -8.95069
292 1 12.584 9.43111 15.7403 -8.96609
293 1 15.7295 9.43288 15.7298 -8.94694
294 1 18.8708 9.43412 15.7256 -8.94911
295 1 22.0138 7.50861e-16 18.8692 -8.94944
296 1 1.57234 1.57229 20.4415 -8.94958
297 1 3.1448 -1.11436e-15 18.8692 -8.94972
298 1 4.71721 1.57231 20.4415 -8.94956
299 1 6.28962 -3.39892e-16 18.8692 -8.94952
300 1 7.86206 1.57226 20.4415 -8.94959
301 1 9.4345 -7.01988e-16 18.8693 -8.94959
302 1 11.007 1.57226 20.4415 -8.9496
303 1 12.5794 1.16659e-15 18.8692 -8.94953
304 1 14.1518 1.57228 20.4415 -8.94955
305 1 15.7243 1.03815e-15 18.8692 -8.94966
306 1 17.2967 1.57227 20.4416 -8.94968
307 1 18.8692 1.83665e-15 18.8692 -8.94949
308 1 20.4415 1.57229 20.4416 -8.94928
309 1 22.0138 3.14451 18.8694 -8.94924
310 1 1.57221 4.71704 20.4417 -8.94969
311 1 3.14462 3.14446 18.8694 -8.94972
312 1 4.71708 4.71696 20.4415 -8.94989
313 1 6.28959 3.14448 18.8694 -8.94935
314 1 7.86194 4.71677 20.4416 -8.94942
315 1 9.43445 3.14435 18.8695 -8.94957
316 1 11.0069 4.71673 20.4417 -8.94946
317 1 12.5794 3.1444 18.8694 -8.94937
318 1 14.1518 4.71683 20.4417 -8.94969
319 1 15.7244 3.14434 18.8695 -8.94976
320 1 17.2971 4.71671 20.4418 -8.94953
321 1 18.8695 3.14433 18.8695 -8.94887
322 1 20.4416 4.71713 20.4416 -8.94966
323 1 -0.000136624 6.2895 18.8694 -8.94959
324 1 1.57217 7.86199 20.4417 -8.94952
325 1 3.14425 6.28911 18.8702 -8.95
326 1 4.71705 7.862 20.442 -8.95029
327 1 6.28966 6.28929 18.87 -8.95025
328 1 7.86206 7.86192 20.4415 -8.95016
329 1 9.43423 6.28873 18.8703 -8.94931
330 1 11.0065 7.86175 20.4417 -8.95008
331 1 12.5791 6.28897 18.8703 -8.94978
332 1 14.1522 7.86156 20.4423 -8.95106
333 1 15.7254 6.28839 18.8711 -8.9501
334 1 17.2972 7.86186 20.4418 -8.94942
335 1 18.8695 6.28937 18.8696 -8.9496
336 1 20.4416 7.86203 20.4416 -8.94958
337 1 22.0137 9.43446 18.8695 -8.94956
338 1 3.14417 9.43434 18.8702 -8.94934
339 1 6.28968 9.43468 18.8706 -8.95164
45 1 6.28953 9.43466 22.0136 -8.94991
5 1 6.28964 6.30702e-16 22.0138 -8.94959
9 1 12.5794 2.10257e-16 22.0138 -8.9496
39 1 15.7249 6.28897 22.0134 -8.95007
15 1 22.0138 3.14469 22.0138 -8.9496
17 1 3.14461 3.14456 22.0136 -8.94954
33 1 6.28939 6.28931 22.0131 -8.95033
23 1 12.5794 3.14449 22.0137 -8.94946
31 1 3.1446 6.28956 22.0138 -8.94999
27 1 18.8693 3.14456 22.0138 -8.94934
29 1 22.0138 6.2896 22.0138 -8.94955
1 1 22.0138 1.36387e-15 22.0138 -8.94943
13 1 18.8691 1.37155e-15 22.0138 -8.94949
21 1 9.43451 3.14447 22.0137 -8.94956
43 1 22.0138 9.43449 22.0138 -8.94959
49 1 18.8694 9.43446 22.0138 -8.94957
344 1 1.57203 11.007 1.57191 -8.94957
345 1 4.71661 11.007 1.57127 -8.9499
346 1 7.86203 11.007 1.57209 -8.94711
347 1 11.0067 11.007 1.57035 -8.9489
348 1 14.1535 11.007 1.5694 -8.94954
349 1 17.2976 11.007 1.57157 -8.94952
350 1 20.4417 11.007 1.57209 -8.94957
538 1 17.297 20.4419 11.0069 -8.94956
352 1 1.57209 14.1519 1.57196 -8.94942
353 1 3.14447 12.5794 -0.000187972 -8.94966
354 1 4.71692 14.1517 1.57144 -8.95029
688 3 10.2333 11.007 9.53429 2.25364
356 1 7.86176 14.1522 1.57011 -8.95204
511 1 18.8694 18.8696 9.43443 -8.94953
358 1 11.0066 14.1525 1.57011 -8.9505
510 1 15.725 18.8705 9.4343 -8.94937
360 1 14.1531 14.1531 1.56959 -8.95119
361 1 15.725 12.5796 -0.000548509 -8.94947
362 1 17.2975 14.1522 1.57158 -8.94936
532 1 20.4414 17.2974 11.007 -8.94947
364 1 20.4417 14.1519 1.57211 -8.94953
509 1 12.5794 18.8704 9.43469 -8.9501
366 1 1.57208 17.2969 1.57196 -8.94986
508 1 9.43452 18.8689 9.43485 -8.94476
368 1 4.71653 17.2975 1.5711 -8.94949
507 1 6.28843 18.873 9.43482 -8.95134
370 1 7.86191 17.2975 1.57136 -8.94917
371 1 9.43434 15.7249 -0.00065658 -8.94972
372 1 11.007 17.2975 1.57146 -8.94926
373 1 12.5794 15.7248 -0.000568569 -8.94972
374 1 14.1521 17.2975 1.57155 -8.94977
506 1 3.14356 18.8708 9.43443 -8.94934
376 1 17.2975 17.2975 1.57162 -8.94874
505 1 22.0135 18.8696 9.43448 -8.94951
378 1 20.4417 17.2969 1.57217 -8.94962
504 1 18.8702 15.7255 9.43422 -8.94921
380 1 1.57217 20.4417 1.57213 -8.94931
503 1 15.7275 15.7278 9.43343 -8.94545
382 1 4.71713 20.4417 1.57212 -8.94964
502 1 12.5795 15.7281 9.43349 -8.9549
384 1 7.86207 20.4417 1.5721 -8.94956
531 1 17.2979 17.2981 11.0068 -8.94896
386 1 11.007 20.4418 1.5721 -8.94957
501 1 9.42992 15.7142 9.43619 -9.00952
388 1 14.1519 20.4417 1.57219 -8.94952
500 1 6.28038 15.7383 9.43388 -8.95525
390 1 17.2969 20.4418 1.57217 -8.94952
499 1 3.13934 15.7285 9.43363 -8.94722
392 1 20.4415 20.4416 1.57229 -8.94944
393 1 1.57112 11.007 4.71581 -8.9494
394 1 4.71458 11.007 4.71337 -8.94595
395 1 7.86423 11.007 4.72126 -8.93654
396 1 11.0095 11.007 4.71309 -8.98735
397 1 14.1599 11.007 4.7081 -8.94283
398 1 17.2999 11.007 4.71521 -8.94919
399 1 20.4419 11.007 4.7165 -8.94973
400 1 -0.000214982 12.5795 3.14423 -8.94952
401 1 1.57124 14.1521 4.71602 -8.94948
402 1 3.14382 12.5795 3.1433 -8.94886
403 1 4.71489 14.1525 4.71326 -8.95388
404 1 6.28947 12.5784 3.14303 -8.95089
405 1 7.85791 14.1571 4.70664 -8.95618
406 1 9.43408 12.5795 3.14279 -8.94908
407 1 11.0067 14.1551 4.70904 -8.95397
408 1 12.5816 12.5806 3.13705 -8.95701
409 1 14.1613 14.1609 4.70632 -8.93797
410 1 15.7269 12.5803 3.14187 -8.94817
411 1 17.2998 14.1533 4.71533 -8.95036
412 1 18.87 12.5796 3.14404 -8.94939
413 1 20.4419 14.1521 4.71662 -8.94981
414 1 22.0137 15.7244 3.14435 -8.94974
415 1 1.57048 17.2982 4.71563 -8.9483
416 1 3.14378 15.7248 3.14326 -8.95071
417 1 4.71368 17.3006 4.7132 -8.94432
418 1 6.28768 15.7264 3.14055 -8.95016
419 1 7.86145 17.2998 4.7147 -8.94853
420 1 9.43427 15.7264 3.14169 -8.94807
421 1 11.0075 17.2993 4.71507 -8.9473
422 1 12.58 15.7261 3.14193 -8.9499
423 1 14.1541 17.3004 4.71474 -8.94904
424 1 15.7272 15.7272 3.14157 -8.94644
425 1 17.298 17.298 4.71628 -8.94906
426 1 18.87 15.7248 3.14411 -8.94966
427 1 20.4414 17.2972 4.71677 -8.94969
428 1 22.0135 18.8695 3.14438 -8.94919
429 1 1.57199 20.4419 4.71692 -8.94965
430 1 3.14388 18.8701 3.14373 -8.94834
431 1 4.71668 20.4424 4.71653 -8.94997
432 1 6.28937 18.87 3.1439 -8.94952
433 1 7.86208 20.4423 4.71659 -8.94947
434 1 9.43459 18.8701 3.14394 -8.94949
435 1 11.0072 20.4423 4.71662 -8.94939
436 1 12.5796 18.87 3.14412 -8.94913
437 1 14.1521 20.4422 4.71693 -8.95036
438 1 15.725 18.8702 3.14403 -8.94937
439 1 17.2969 20.4418 4.71711 -8.94972
440 1 18.8693 18.8695 3.14452 -8.94945
441 1 20.4414 20.4416 4.71717 -8.94961
442 1 1.56899 11.007 7.86013 -8.94753
443 1 4.71124 11.007 7.85717 -8.9357
444 1 7.87572 11.007 7.89425 -8.9152
445 1 11.0702 11.007 7.69574 -8.22808
446 1 14.1656 11.007 7.85255 -8.95967
447 1 17.3012 11.007 7.861 -8.95058
448 1 20.4417 11.007 7.86146 -8.94983
449 1 -0.000906834 12.5796 6.28868 -8.94944
450 1 1.56715 14.1538 7.86005 -8.95276
451 1 3.1415 12.5794 6.28664 -8.94798
452 1 4.69696 14.1667 7.84784 -8.94018
453 1 6.28655 12.5766 6.28347 -8.96392
454 1 7.8224 14.1919 7.82264 -8.83966
455 1 9.42264 12.5948 6.2861 -8.93162
456 1 11.0235 14.1668 7.83344 -8.88813
457 1 12.6094 12.6026 6.25643 -8.89663
458 1 14.1644 14.1621 7.85343 -8.94074
459 1 15.7329 12.5817 6.2852 -8.95456
460 1 17.3005 14.1537 7.86097 -8.95099
461 1 18.8711 12.5798 6.28879 -8.95073
462 1 20.4414 14.1525 7.86155 -8.95058
463 1 22.0123 15.7253 6.28868 -8.95033
464 1 1.57071 17.2982 7.86153 -8.94906
465 1 3.13804 15.7294 6.28443 -8.94593
466 1 4.71379 17.3022 7.86013 -8.95016
467 1 6.27738 15.7375 6.2765 -8.92752
468 1 7.86082 17.3048 7.8606 -8.9605
469 1 9.43415 15.7326 6.28352 -8.94524
470 1 11.0057 17.2993 7.86192 -8.95477
471 1 12.5855 15.7342 6.28211 -8.94783
472 1 14.1528 17.2997 7.86167 -8.95088
473 1 15.7286 15.7283 6.28661 -8.9474
474 1 17.2977 17.298 7.86172 -8.94891
475 1 18.8702 15.7252 6.28902 -8.94999
476 1 20.4414 17.2973 7.86188 -8.9494
477 1 -0.000421734 18.8696 6.28945 -8.9495
478 1 1.57196 20.4419 7.86198 -8.94952
479 1 3.14357 18.8708 6.28878 -8.94977
480 1 4.7166 20.4428 7.86184 -8.95005
481 1 6.2886 18.8726 6.28823 -8.95155
482 1 7.86227 20.443 7.86204 -8.95155
483 1 9.43486 18.8719 6.28836 -8.94984
484 1 11.0069 20.4421 7.8622 -8.94991
485 1 12.5796 18.8712 6.28928 -8.95202
486 1 14.152 20.4422 7.8621 -8.94999
487 1 15.7248 18.8703 6.28939 -8.94995
488 1 17.297 20.4419 7.86199 -8.9495
489 1 18.8693 18.8695 6.28952 -8.94948
490 1 20.4415 20.4417 7.86205 -8.94958
491 1 22.0114 12.5798 9.43395 -8.951
492 1 3.13307 12.5822 9.43115 -8.95505
493 1 6.24869 12.6247 9.39715 -8.86266
494 1 9.36925 12.8182 9.40806 -7.80748
495 1 12.5963 12.6026 9.39973 -8.83452
496 1 15.7316 12.5819 9.43181 -8.94774
497 1 18.8712 12.5801 9.43397 -8.94957
498 1 -0.00146956 15.7254 9.43427 -8.94951
526 1 1.57074 17.2981 11.0072 -8.94919
527 1 4.71354 17.3016 11.008 -8.94714
534 1 4.71648 20.4428 11.0072 -8.94965
389 1 15.7244 18.8694 -0.000156727 -8.9497
377 1 18.8694 15.7244 -0.00012416 -8.94957
383 1 6.28957 18.8694 -0.000224755 -8.94948
512 1 1.56606 11.007 11.0071 -8.95219
513 1 4.69427 11.007 11.0071 -9.01913
514 1 7.49928 11.007 11.0209 -7.88648
515 1 11.4242 11.007 11.1785 -7.14618
516 1 14.1815 11.007 11.0162 -9.02009
517 1 17.3043 11.007 11.0067 -8.95454
518 1 20.4418 11.007 11.0068 -8.95072
519 1 1.56734 14.1537 11.0071 -8.95108
520 1 4.69979 14.1606 11.0088 -8.95142
521 1 7.81696 14.1675 11.0365 -8.86619
522 1 11.0337 14.1451 11.0246 -8.89965
523 1 14.1639 14.1584 11.0045 -8.94775
524 1 17.301 14.154 11.0063 -8.94956
525 1 20.4415 14.1527 11.0069 -8.95024
687 3 9.45805 11.007 10.9489 2.28252
391 1 18.8693 18.8693 22.0138 -8.94934
528 1 7.86076 17.3005 11.0079 -8.95368
529 1 11.0059 17.2961 11.0063 -8.94718
530 1 14.1535 17.2998 11.0061 -8.94803
686 1 20.4415 20.4416 20.4416 -8.94928
685 1 18.8695 18.8696 18.8695 -8.94887
533 1 1.57193 20.4419 11.007 -8.94954
387 1 12.5794 18.8694 22.0137 -8.94946
535 1 7.8624 20.4425 11.0071 -8.9501
536 1 11.0067 20.4418 11.0068 -8.94869
537 1 14.1522 20.4423 11.0068 -8.94968
684 1 17.2967 20.4416 20.4416 -8.94968
539 1 20.4415 20.4417 11.007 -8.94959
540 1 1.56852 11.007 14.1542 -8.94916
541 1 4.7062 11.007 14.1602 -8.94023
542 1 7.85332 11.007 14.1383 -8.95305
543 1 11.0243 11.007 14.1469 -8.98683
544 1 14.1675 11.007 14.1653 -8.93794
545 1 17.3027 11.007 14.1551 -8.94809
546 1 20.4421 11.007 14.1528 -8.95011
547 1 22.0117 12.5799 12.5801 -8.95158
548 1 1.56851 14.1537 14.154 -8.95106
549 1 3.13297 12.5822 12.5834 -8.95569
550 1 4.70341 14.1648 14.1659 -8.92765
551 1 6.2456 12.6187 12.6227 -8.82215
552 1 7.86225 14.1561 14.16 -8.95191
553 1 9.43587 12.5833 12.5704 -8.63463
554 1 11.0045 14.1583 14.1614 -8.94131
555 1 12.6508 12.6536 12.6541 -8.70678
556 1 14.1762 14.1766 14.1766 -8.90189
557 1 15.7426 12.5851 12.586 -8.96006
558 1 17.3035 14.1553 14.1552 -8.95225
559 1 18.8729 12.5801 12.5801 -8.95295
560 1 20.4421 14.1526 14.1526 -8.95094
561 1 -0.00129553 15.7253 12.5798 -8.94972
562 1 1.57085 17.2981 14.1527 -8.94946
563 1 3.13953 15.7283 12.5817 -8.94894
564 1 4.71353 17.3025 14.1559 -8.94782
565 1 6.27838 15.7402 12.5899 -8.94679
566 1 7.86298 17.2985 14.153 -8.95017
567 1 9.43497 15.7224 12.578 -8.95308
568 1 11.0058 17.2993 14.1533 -8.94927
569 1 12.5858 15.741 12.5855 -8.96424
570 1 14.1549 17.3037 14.155 -8.95208
571 1 15.7285 15.7286 12.58 -8.94946
572 1 17.2981 17.2983 14.1523 -8.94989
573 1 18.8704 15.7254 12.5795 -8.94946
574 1 20.4415 17.2973 14.152 -8.94958
575 1 22.0135 18.8696 12.5795 -8.94946
576 1 1.57201 20.4419 14.152 -8.94952
577 1 3.14363 18.8708 12.5799 -8.94912
578 1 4.71674 20.4427 14.1525 -8.95065
579 1 6.28896 18.8727 12.5803 -8.95324
580 1 7.86233 20.4421 14.1522 -8.94948
581 1 9.43479 18.8697 12.5797 -8.94811
582 1 11.0068 20.4422 14.1522 -8.94967
583 1 12.5793 18.8722 12.5793 -8.95444
584 1 14.1521 20.4427 14.1521 -8.95118
585 1 15.7249 18.8706 12.5793 -8.94949
586 1 17.2969 20.4419 14.1518 -8.94963
587 1 18.8694 18.8696 12.5794 -8.94943
588 1 20.4415 20.4417 14.1519 -8.94956
589 1 1.57151 11.007 17.2978 -8.94951
590 1 4.71542 11.007 17.3 -8.94883
591 1 7.86248 11.007 17.2955 -8.94427
592 1 11.0062 11.007 17.2981 -8.94555
593 1 14.1549 11.007 17.3024 -8.94754
594 1 17.2985 11.007 17.2985 -8.94911
595 1 20.4418 11.007 17.2974 -8.94949
596 1 -0.000742018 12.5797 15.7253 -8.94925
597 1 1.57159 14.1522 17.2978 -8.94929
598 1 3.14185 12.5804 15.7276 -8.94748
599 1 4.71601 14.153 17.3002 -8.95184
600 1 6.28766 12.58 15.7321 -8.9615
601 1 7.86288 14.152 17.2985 -8.95215
602 1 9.43462 12.576 15.7195 -8.95069
603 1 11.0053 14.1527 17.2995 -8.95115
604 1 12.584 12.5828 15.7403 -8.96609
605 1 14.1544 14.1547 17.3032 -8.95299
606 1 15.7295 12.581 15.7298 -8.94694
607 1 17.2983 14.1526 17.2985 -8.94923
608 1 18.8708 12.5798 15.7256 -8.94911
609 1 20.4418 14.1521 17.2973 -8.94937
610 1 22.0131 15.7251 15.7252 -8.94997
611 1 1.57144 17.2977 17.2979 -8.9483
612 1 3.14084 15.7282 15.7286 -8.9444
613 1 4.71673 17.2977 17.298 -8.95004
614 1 6.28867 15.7267 15.7281 -8.95093
615 1 7.86191 17.2977 17.2978 -8.94851
616 1 9.43384 15.727 15.7274 -8.94301
617 1 11.0067 17.2979 17.2979 -8.94867
618 1 12.5796 15.7281 15.7285 -8.94925
619 1 14.1522 17.2982 17.2981 -8.94989
620 1 15.7314 15.7317 15.7316 -8.93794
621 1 17.2985 17.2987 17.2986 -8.9467
622 1 18.8711 15.7257 15.7256 -8.94992
623 1 20.4418 17.2973 17.2973 -8.94946
624 1 -0.000357021 18.8695 15.7245 -8.94958
625 1 1.57206 20.4419 17.297 -8.94935
626 1 3.14364 18.8708 15.7255 -8.94888
627 1 4.71722 20.4417 17.2969 -8.94975
628 1 6.2898 18.87 15.7249 -8.9498
629 1 7.86202 20.4418 17.2971 -8.94944
630 1 9.4344 18.8704 15.7252 -8.94927
631 1 11.007 20.4419 17.2971 -8.94948
632 1 12.5792 18.8704 15.7249 -8.94951
633 1 14.1518 20.4419 17.297 -8.94964
634 1 15.7254 18.8713 15.7255 -8.94983
635 1 17.2971 20.442 17.2971 -8.94955
636 1 18.8694 18.8696 15.7245 -8.94976
637 1 20.4415 20.4417 17.2968 -8.94966
638 1 1.57213 11.007 20.4417 -8.94957
639 1 4.71685 11.007 20.442 -8.94999
640 1 7.86212 11.007 20.4414 -8.94851
641 1 11.0064 11.007 20.4417 -8.94905
642 1 14.1525 11.007 20.4423 -8.95019
643 1 17.2973 11.007 20.4418 -8.94951
644 1 20.4416 11.007 20.4416 -8.9496
645 1 22.0137 12.5794 18.8695 -8.94956
646 1 1.57217 14.1519 20.4417 -8.94952
647 1 3.14417 12.5796 18.8702 -8.94934
648 1 4.71705 14.1519 20.442 -8.95029
649 1 6.28968 12.5792 18.8706 -8.95164
650 1 7.86206 14.152 20.4415 -8.95016
651 1 9.43415 12.5792 18.8689 -8.94743
652 1 11.0065 14.1522 20.4417 -8.95008
653 1 12.5794 12.5795 18.8722 -8.95346
654 1 14.1522 14.1523 20.4423 -8.95106
655 1 15.7254 12.5797 18.8709 -8.94918
656 1 17.2972 14.152 20.4418 -8.94942
657 1 18.8696 12.5795 18.8697 -8.94945
658 1 20.4416 14.1519 20.4416 -8.94958
659 1 -0.000136624 15.7244 18.8694 -8.94959
660 1 1.57221 17.2969 20.4417 -8.94969
661 1 3.14425 15.7248 18.8702 -8.95
662 1 4.71708 17.2969 20.4415 -8.94989
663 1 6.28966 15.7246 18.87 -8.95025
664 1 7.86194 17.2971 20.4416 -8.94942
665 1 9.43423 15.7252 18.8703 -8.94931
666 1 11.0069 17.2972 20.4417 -8.94946
667 1 12.5791 15.7249 18.8703 -8.94978
668 1 14.1518 17.2971 20.4417 -8.94969
669 1 15.7254 15.7255 18.8711 -8.9501
670 1 17.2971 17.2972 20.4418 -8.94953
671 1 18.8695 15.7245 18.8696 -8.9496
672 1 20.4416 17.2968 20.4416 -8.94966
673 1 22.0138 18.8694 18.8694 -8.94924
674 1 1.57234 20.4416 20.4415 -8.94958
675 1 3.14462 18.8694 18.8694 -8.94972
676 1 4.71721 20.4416 20.4415 -8.94956
677 1 6.28959 18.8694 18.8694 -8.94935
678 1 7.86206 20.4416 20.4415 -8.94959
679 1 9.43445 18.8696 18.8695 -8.94957
680 1 11.007 20.4416 20.4415 -8.9496
681 1 12.5794 18.8695 18.8694 -8.94937
682 1 14.1518 20.4416 20.4415 -8.94955
683 1 15.7244 18.8696 18.8695 -8.94976
355 1 6.28953 12.5792 22.0136 -8.94991
357 1 9.43423 12.5794 22.0132 -8.94897
359 1 12.5795 12.5795 22.0127 -8.95153
365 1 22.0138 15.7243 22.0138 -8.94955
367 1 3.1446 15.7243 22.0138 -8.94999
369 1 6.28939 15.7246 22.0131 -8.95033
375 1 15.7249 15.7249 22.0134 -8.95007
381 1 3.14461 18.8693 22.0136 -8.94954
379 1 22.0138 18.8692 22.0138 -8.9496
351 1 22.0138 12.5794 22.0138 -8.94959
363 1 18.8694 12.5794 22.0138 -8.94957
385 1 9.43451 18.8694 22.0137 -8.94956
