ITEM: TIMESTEP
68
ITEM: NUMBER OF ATOMS
688
ITEM: BOX BOUNDS pp pp pp
0.0000000000000000e+00 2.2013900999999997e+01
0.0000000000000000e+00 2.2013900999999997e+01
0.0000000000000000e+00 2.2013900999999997e+01
ITEM: ATOMS id type x y z c_pot
189 1 20.4415 4.71662 11.007 -8.94949
2 1 1.57221 1.57225 1.57218 -8.94933
175 1 18.8711 9.43382 9.43402 -8.9496
4 1 4.71715 1.57222 1.57217 -8.94965
174 1 15.7314 9.43199 9.43186 -8.94776
6 1 7.86208 1.5722 1.57215 -8.94957
7 1 9.43453 -7.25532e-16 -8.1198e-05 -8.94962
8 1 11.007 1.57219 1.57215 -8.94959
173 1 12.5962 9.41111 9.39957 -8.83345
10 1 14.1519 1.57222 1.57222 -8.94953
172 1 9.36825 9.19643 9.40855 -7.80752
12 1 17.2968 1.57219 1.57221 -8.94953
188 1 17.2978 4.71591 11.0068 -8.94899
14 1 20.4415 1.5723 1.57232 -8.94947
171 1 6.24877 9.38946 9.39712 -8.86286
16 1 1.57213 4.71702 1.57203 -8.94984
170 1 3.13334 9.43179 9.43127 -8.95516
18 1 4.71659 4.71652 1.57122 -8.94949
169 1 22.0115 9.43412 9.434 -8.95102
20 1 7.86194 4.71652 1.57146 -8.94919
183 1 1.57089 4.71591 11.0072 -8.94922
22 1 11.007 4.71648 1.57155 -8.94928
168 1 18.8701 6.28853 9.43426 -8.94922
24 1 14.1521 4.71654 1.57165 -8.94977
167 1 15.7273 6.28624 9.43352 -8.94553
26 1 17.2974 4.71647 1.5717 -8.94875
166 1 12.5793 6.28577 9.43354 -8.95511
28 1 20.4416 4.71708 1.57221 -8.94963
165 1 9.42997 6.29932 9.43619 -9.00927
30 1 1.57213 7.86202 1.57202 -8.94943
164 1 6.28074 6.27581 9.43392 -8.9553
32 1 4.71695 7.86221 1.57152 -8.95026
163 1 3.13966 6.28563 9.43372 -8.94726
34 1 7.86178 7.86171 1.57021 -8.95199
35 1 9.43436 6.28908 -0.00060272 -8.94971
36 1 11.0066 7.8614 1.57022 -8.95045
37 1 12.5794 6.2892 -0.000519892 -8.9497
38 1 14.153 7.86091 1.56972 -8.95116
162 1 -0.00134525 6.28863 9.43431 -8.94951
40 1 17.2974 7.86173 1.57167 -8.94938
161 1 18.8694 3.14435 9.43445 -8.94954
42 1 20.4416 7.86201 1.57216 -8.94954
181 1 17.297 1.57205 11.0069 -8.94956
44 1 3.14451 9.43447 -0.000169981 -8.94965
160 1 15.725 3.14354 9.43432 -8.94938
159 1 12.5794 3.14355 9.43469 -8.95011
158 1 9.43456 3.14486 9.43483 -8.94489
48 1 15.7249 9.43429 -0.000511971 -8.94947
157 1 6.28851 3.14104 9.43481 -8.95128
50 1 22.0138 1.20416e-15 3.14472 -8.94962
51 1 1.57205 1.57206 4.71698 -8.94966
52 1 3.14455 1.55581e-15 3.1445 -8.94957
53 1 4.71674 1.57156 4.7166 -8.94995
54 1 6.28961 7.04205e-16 3.14451 -8.94952
55 1 7.86208 1.57163 4.71666 -8.94947
56 1 9.43457 3.72056e-16 3.14448 -8.94957
57 1 11.0072 1.57169 4.71667 -8.94939
58 1 12.5795 1.06994e-15 3.14453 -8.94946
59 1 14.1521 1.57175 4.71697 -8.95032
60 1 15.7244 7.50587e-16 3.14464 -8.94985
61 1 17.2969 1.57214 4.71714 -8.94971
62 1 18.8691 6.48937e-16 3.14477 -8.94966
63 1 20.4415 1.57229 4.71719 -8.94962
64 1 22.0135 3.14444 3.14445 -8.94922
65 1 1.57063 4.7158 4.71578 -8.94832
66 1 3.14398 3.14393 3.14385 -8.94839
67 1 4.71388 4.71355 4.71344 -8.9444
68 1 6.28942 3.14397 3.14401 -8.94955
69 1 7.86153 4.71434 4.71488 -8.94858
70 1 9.43458 3.14393 3.14403 -8.94951
71 1 11.0075 4.71472 4.71521 -8.94735
72 1 12.5796 3.14399 3.14419 -8.94915
73 1 14.1539 4.71368 4.71493 -8.94911
74 1 15.7249 3.14378 3.14412 -8.94939
75 1 17.2978 4.71602 4.71638 -8.94906
76 1 18.8693 3.14446 3.14457 -8.94947
77 1 20.4414 4.71676 4.71684 -8.94968
78 1 22.0137 6.28951 3.14443 -8.94974
79 1 1.57134 7.86189 4.71614 -8.94948
80 1 3.14388 6.28915 3.14341 -8.95066
81 1 4.71502 7.86149 4.71343 -8.95379
82 1 6.2878 6.28759 3.14076 -8.95014
83 1 7.85805 7.85701 4.70684 -8.95614
84 1 9.4343 6.28762 3.14186 -8.94809
85 1 11.0066 7.85892 4.70929 -8.95385
86 1 12.5799 6.28791 3.14214 -8.94986
87 1 14.1611 7.85315 4.70657 -8.93791
88 1 15.727 6.28684 3.14174 -8.94644
89 1 17.2996 7.86069 4.71547 -8.95037
90 1 18.8699 6.28914 3.1442 -8.94966
91 1 20.4419 7.86183 4.7167 -8.94981
92 1 -0.000194668 9.43445 3.14431 -8.94953
93 1 3.14389 9.43442 3.14341 -8.94888
94 1 6.28947 9.43545 3.14306 -8.95089
95 1 9.43409 9.43442 3.14278 -8.94909
96 1 12.5815 9.43335 3.13721 -8.957
97 1 15.7267 9.43363 3.14207 -8.9482
98 1 18.8699 9.43434 3.14413 -8.9494
99 1 22.0138 1.99741e-16 6.28962 -8.94959
100 1 1.57202 1.57204 7.86201 -8.94953
101 1 3.14445 6.08667e-16 6.28945 -8.94975
102 1 4.71666 1.57124 7.86187 -8.95003
103 1 6.28951 1.40324e-15 6.28935 -8.95058
104 1 7.86227 1.57094 7.86204 -8.95152
105 1 9.43473 9.27925e-16 6.28927 -8.9502
106 1 11.0069 1.57177 7.86218 -8.94991
107 1 12.5795 9.65249e-16 6.28959 -8.95026
108 1 14.152 1.57177 7.8621 -8.94998
109 1 15.7244 4.8199e-16 6.28961 -8.94979
110 1 17.2969 1.57208 7.86201 -8.94951
111 1 18.8692 6.1232e-16 6.28963 -8.94956
112 1 20.4415 1.57225 7.86206 -8.94959
113 1 -0.000359081 3.1444 6.2895 -8.94952
114 1 1.57088 4.71587 7.86161 -8.94909
115 1 3.1437 3.14323 6.28888 -8.94978
116 1 4.71402 4.71201 7.86026 -8.95018
117 1 6.28867 3.14151 6.28832 -8.9515
118 1 7.86092 4.70917 7.86064 -8.96038
119 1 9.43487 3.14214 6.28844 -8.94981
120 1 11.0058 4.71464 7.86195 -8.95459
121 1 12.5796 3.14279 6.28932 -8.95194
122 1 14.1528 4.7143 7.86174 -8.95091
123 1 15.7248 3.14371 6.28943 -8.94994
124 1 17.2976 4.71604 7.86178 -8.94895
125 1 18.8693 3.14445 6.28956 -8.9495
126 1 20.4414 4.71666 7.86192 -8.94941
127 1 22.0125 6.28875 6.28878 -8.9503
128 1 1.56738 7.86024 7.86018 -8.95273
129 1 3.13833 6.28476 6.28467 -8.94593
130 1 4.69733 7.84753 7.84806 -8.94008
131 1 6.2777 6.27676 6.2768 -8.92761
132 1 7.82271 7.82227 7.82283 -8.83978
133 1 9.43425 6.28146 6.28374 -8.94532
134 1 11.0229 7.84741 7.834 -8.88874
135 1 12.5852 6.27993 6.28249 -8.94807
136 1 14.1641 7.85187 7.85363 -8.94046
137 1 15.7284 6.28583 6.28679 -8.94735
138 1 17.3004 7.86025 7.86106 -8.95095
139 1 18.8701 6.2888 6.28909 -8.94996
140 1 20.4414 7.86145 7.86161 -8.95056
141 1 -0.000844092 9.43437 6.28878 -8.94945
142 1 3.14164 9.43449 6.28677 -8.94798
143 1 6.28663 9.43729 6.28343 -8.96384
144 1 9.42271 9.41928 6.28604 -8.93133
145 1 12.6093 9.41126 6.25659 -8.89628
146 1 15.7326 9.43229 6.28542 -8.9546
147 1 18.871 9.43419 6.28888 -8.95073
148 1 -0.000154986 9.51947e-16 9.43452 -8.94961
149 1 3.14437 -2.15311e-16 9.4345 -8.94961
150 1 6.28941 2.34038e-16 9.43464 -8.95061
151 1 9.43473 7.7237e-16 9.43458 -8.94821
152 1 12.5795 5.58202e-16 9.43459 -8.94981
153 1 15.7245 4.05586e-16 9.43445 -8.94971
154 1 18.8692 1.62092e-15 9.4345 -8.9496
155 1 22.0135 3.14435 9.43449 -8.94953
156 1 3.14368 3.14326 9.43444 -8.94935
177 1 4.71654 1.57124 11.0072 -8.94964
184 1 4.71377 4.71258 11.0079 -8.94719
3 1 3.1448 1.72685e-15 -6.92825e-05 -8.94965
11 1 15.7242 8.77918e-16 -4.93138e-05 -8.94961
41 1 18.8693 6.28954 -0.000110218 -8.94959
19 1 6.2896 3.14458 -0.000189862 -8.94949
25 1 15.7243 3.14459 -0.000135908 -8.9497
176 1 1.572 1.57204 11.007 -8.94955
47 1 12.5795 9.43438 22.0128 -8.95151
178 1 7.86238 1.57144 11.007 -8.95014
179 1 11.0068 1.57208 11.0069 -8.94874
180 1 14.1522 1.57164 11.0068 -8.94968
343 1 18.8695 9.43444 18.8696 -8.94948
182 1 20.4415 1.57224 11.007 -8.94961
342 1 15.7253 9.4342 18.8708 -8.94918
46 1 9.43425 9.43448 22.0132 -8.94903
185 1 7.86086 4.71329 11.0079 -8.95366
186 1 11.0059 4.71766 11.0063 -8.94708
187 1 14.1534 4.71421 11.0061 -8.94806
341 1 12.5794 9.43437 18.8721 -8.9534
340 1 9.43415 9.43464 18.869 -8.94752
190 1 1.56761 7.86032 11.0071 -8.95105
191 1 4.70031 7.85355 11.0088 -8.95147
192 1 7.81739 7.84623 11.0365 -8.86604
193 1 11.033 7.86875 11.0242 -8.90011
194 1 14.1635 7.85571 11.0045 -8.94781
195 1 17.3007 7.86007 11.0063 -8.94951
196 1 20.4415 7.86131 11.0069 -8.95021
197 1 22.0138 7.8766e-16 12.5794 -8.9496
198 1 1.57207 1.57206 14.152 -8.94953
199 1 3.1444 5.34939e-16 12.5796 -8.94954
200 1 4.71678 1.57131 14.1524 -8.9506
201 1 6.28962 5.44552e-16 12.5796 -8.95088
202 1 7.86232 1.57185 14.1522 -8.94949
203 1 9.43467 4.81092e-16 12.5796 -8.94923
204 1 11.0069 1.57171 14.1522 -8.94967
205 1 12.5793 4.2235e-16 12.5793 -8.95083
206 1 14.1521 1.57126 14.1521 -8.9511
207 1 15.7245 9.38939e-16 12.5794 -8.94964
208 1 17.2969 1.57207 14.1518 -8.94963
209 1 18.8692 1.58479e-15 12.5794 -8.94958
210 1 20.4415 1.57227 14.1518 -8.94958
211 1 22.0136 3.14437 12.5795 -8.94948
212 1 1.57099 4.71594 14.1526 -8.94947
213 1 3.14375 3.1433 12.5799 -8.94915
214 1 4.71371 4.71167 14.1557 -8.94779
215 1 6.289 3.14135 12.5803 -8.95317
216 1 7.863 4.71543 14.1529 -8.95016
217 1 9.4348 3.14416 12.5797 -8.94814
218 1 11.0058 4.71463 14.1532 -8.94928
219 1 12.5793 3.14184 12.5793 -8.95432
220 1 14.1547 4.71057 14.1548 -8.95208
221 1 15.7249 3.14347 12.5793 -8.94949
222 1 17.2979 4.71576 14.1522 -8.94988
223 1 18.8693 3.14437 12.5794 -8.94945
224 1 20.4415 4.7167 14.152 -8.94958
225 1 -0.00119035 6.28872 12.5798 -8.94971
226 1 1.56873 7.86036 14.1539 -8.95103
227 1 3.13984 6.28588 12.5816 -8.94897
228 1 4.70386 7.84939 14.1656 -8.9279
229 1 6.27872 6.27397 12.5898 -8.94667
230 1 7.86236 7.85776 14.16 -8.95183
231 1 9.43501 6.29128 12.578 -8.95319
232 1 11.0043 7.85567 14.1613 -8.94112
233 1 12.5854 6.27324 12.5853 -8.96429
234 1 14.1756 7.83784 14.1761 -8.9022
235 1 15.7283 6.28557 12.5798 -8.94945
236 1 17.3032 7.85881 14.155 -8.95223
237 1 18.8703 6.28864 12.5795 -8.94945
238 1 20.4421 7.86139 14.1525 -8.95089
239 1 22.0118 9.43406 12.58 -8.95151
240 1 3.13343 9.43179 12.5832 -8.95563
241 1 6.24644 9.39553 12.6223 -8.82275
242 1 9.43593 9.43028 12.5711 -8.63383
243 1 12.6499 9.36064 12.6537 -8.70688
244 1 15.7421 9.429 12.5857 -8.95999
245 1 18.8727 9.43386 12.58 -8.95286
246 1 -0.000116587 7.03159e-16 15.7243 -8.94961
247 1 1.5721 1.5721 17.297 -8.94937
248 1 3.1445 -3.81786e-16 15.7246 -8.94986
249 1 4.71723 1.57219 17.2969 -8.94975
250 1 6.28973 3.03847e-16 15.7245 -8.94958
251 1 7.86203 1.5721 17.297 -8.94946
252 1 9.43451 4.16889e-16 15.7246 -8.94971
253 1 11.007 1.57206 17.297 -8.94949
254 1 12.5794 8.07492e-16 15.7245 -8.94961
255 1 14.1518 1.57209 17.2969 -8.94964
256 1 15.7245 1.11966e-15 15.7245 -8.95017
257 1 17.297 1.57196 17.297 -8.94956
258 1 18.8692 1.75222e-15 15.7243 -8.94965
259 1 20.4415 1.57228 17.2967 -8.94967
260 1 -0.00031331 3.14443 15.7245 -8.94959
261 1 1.57152 4.71627 17.2977 -8.94835
262 1 3.14374 3.14327 15.7254 -8.94889
263 1 4.71677 4.7163 17.2979 -8.95001
264 1 6.2898 3.14398 15.7248 -8.9498
265 1 7.86192 4.71628 17.2977 -8.94855
266 1 9.43441 3.14358 15.7252 -8.94928
267 1 11.0067 4.7161 17.2978 -8.9487
268 1 12.5792 3.14358 15.7249 -8.9495
269 1 14.1521 4.71589 17.298 -8.94988
270 1 15.7253 3.14278 15.7253 -8.94982
271 1 17.2984 4.71543 17.2984 -8.94679
272 1 18.8694 3.14438 15.7244 -8.94976
273 1 20.4417 4.71673 17.2972 -8.94948
274 1 22.0132 6.28887 15.7251 -8.94995
275 1 1.57167 7.86174 17.2977 -8.94932
276 1 3.14105 6.28595 15.7283 -8.9445
277 1 4.71609 7.86101 17.3001 -8.9518
278 1 6.28874 6.28735 15.7279 -8.95089
279 1 7.86284 7.86183 17.2985 -8.95207
280 1 9.43386 6.28694 15.7273 -8.94308
281 1 11.0053 7.86118 17.2994 -8.95109
282 1 12.5795 6.28601 15.7283 -8.94924
283 1 14.1542 7.85932 17.3029 -8.95293
284 1 15.7311 6.28254 15.7312 -8.93812
285 1 17.2982 7.8614 17.2983 -8.94927
286 1 18.8709 6.28838 15.7255 -8.94992
287 1 20.4417 7.8619 17.2972 -8.9494
288 1 -0.000683543 9.43427 15.7252 -8.94927
289 1 3.14207 9.43363 15.7274 -8.94755
290 1 6.28781 9.43397 15.732 -8.96145
291 1 9.43448 9.43774 15.7198 -8.95071
292 1 12.5837 9.43118 15.7401 -8.96595
293 1 15.7291 9.43303 15.7295 -8.94703
294 1 18.8707 9.43418 15.7255 -8.94913
295 1 22.0138 6.13062e-16 18.8692 -8.94947
296 1 1.57236 1.57231 20.4415 -8.94959
297 1 3.14481 -1.06804e-15 18.8692 -8.94971
298 1 4.71723 1.57233 20.4415 -8.94957
299 1 6.28963 -3.27351e-16 18.8692 -8.94953
300 1 7.86207 1.57229 20.4415 -8.9496
301 1 9.43451 -4.64128e-16 18.8692 -8.9496
302 1 11.007 1.57228 20.4415 -8.94961
303 1 12.5794 1.14103e-15 18.8692 -8.94954
304 1 14.1518 1.57231 20.4415 -8.94956
305 1 15.7242 6.94621e-16 18.8692 -8.94966
306 1 17.2967 1.5723 20.4415 -8.94969
307 1 18.8692 1.79355e-15 18.8692 -8.94951
308 1 20.4415 1.57232 20.4416 -8.94933
309 1 22.0138 3.14456 18.8694 -8.94927
310 1 1.57224 4.71708 20.4417 -8.94968
311 1 3.14465 3.14452 18.8694 -8.94971
312 1 4.7171 4.717 20.4415 -8.94986
313 1 6.28961 3.14453 18.8693 -8.94937
314 1 7.86196 4.71683 20.4416 -8.94943
315 1 9.43447 3.14441 18.8694 -8.94958
316 1 11.0069 4.7168 20.4417 -8.94947
317 1 12.5794 3.14446 18.8694 -8.94939
318 1 14.1518 4.7169 20.4417 -8.94968
319 1 15.7244 3.14442 18.8694 -8.94977
320 1 17.2971 4.71679 20.4418 -8.94953
321 1 18.8694 3.1444 18.8694 -8.94892
322 1 20.4416 4.71717 20.4416 -8.94967
323 1 -0.000121705 6.28954 18.8694 -8.9496
324 1 1.5722 7.86201 20.4417 -8.94952
325 1 3.1443 6.28917 18.8701 -8.94998
326 1 4.71707 7.86201 20.442 -8.95026
327 1 6.28966 6.28932 18.8699 -8.9502
328 1 7.86206 7.86193 20.4416 -8.95015
329 1 9.43425 6.28878 18.8702 -8.94931
330 1 11.0066 7.86177 20.4417 -8.95007
331 1 12.5791 6.28904 18.8702 -8.94975
332 1 14.1522 7.86161 20.4422 -8.95101
333 1 15.7253 6.28852 18.8709 -8.95008
334 1 17.2971 7.86191 20.4418 -8.94944
335 1 18.8695 6.28943 18.8695 -8.94962
336 1 20.4416 7.86205 20.4416 -8.94959
337 1 22.0138 9.43447 18.8694 -8.94957
338 1 3.14423 9.43436 18.8701 -8.94935
339 1 6.28968 9.43468 18.8706 -8.9516
45 1 6.28953 9.43465 22.0136 -8.94992
5 1 6.28965 5.76223e-16 22.0138 -8.9496
9 1 12.5794 2.99092e-16 22.0138 -8.94961
39 1 15.7248 6.28904 22.0134 -8.95004
15 1 22.0138 3.14472 22.0138 -8.94961
17 1 3.14464 3.1446 22.0137 -8.94955
33 1 6.28941 6.28934 22.0132 -8.9503
23 1 12.5794 3.14454 22.0137 -8.94948
31 1 3.14463 6.28958 22.0138 -8.94997
27 1 18.8693 3.1446 22.0138 -8.94936
29 1 22.0139 6.28962 22.0138 -8.94956
1 1 22.0139 1.37686e-15 22.0139 -8.94947
13 1 18.8691 1.30983e-15 22.0138 -8.94952
21 1 9.43451 3.14452 22.0137 -8.94957
43 1 22.0138 9.4345 22.0138 -8.9496
49 1 18.8694 9.43448 22.0138 -8.94958
344 1 1.57207 11.007 1.57197 -8.94958
345 1 4.71664 11.007 1.57133 -8.94989
346 1 7.86202 11.007 1.57207 -8.94721
347 1 11.0067 11.007 1.57037 -8.94894
348 1 14.1533 11.007 1.56955 -8.94952
349 1 17.2975 11.007 1.57166 -8.94953
350 1 20.4416 11.007 1.57214 -8.94958
538 1 17.297 20.4419 11.0069 -8.94956
352 1 1.57213 14.1519 1.57202 -8.94943
353 1 3.14451 12.5794 -0.000169981 -8.94965
354 1 4.71695 14.1517 1.57152 -8.95026
688 3 10.2336 11.007 9.53337 2.25259
356 1 7.86178 14.1522 1.57021 -8.95199
511 1 18.8694 18.8696 9.43445 -8.94954
358 1 11.0066 14.1525 1.57022 -8.95045
510 1 15.725 18.8704 9.43432 -8.94938
360 1 14.153 14.153 1.56972 -8.95116
361 1 15.7249 12.5796 -0.000511971 -8.94947
362 1 17.2974 14.1522 1.57167 -8.94938
532 1 20.4415 17.2973 11.007 -8.94949
364 1 20.4416 14.1519 1.57216 -8.94954
509 1 12.5794 18.8703 9.43469 -8.95011
366 1 1.57213 17.2969 1.57203 -8.94984
508 1 9.43456 18.869 9.43483 -8.94489
368 1 4.71659 17.2974 1.57122 -8.94949
507 1 6.28851 18.8729 9.43481 -8.95128
370 1 7.86194 17.2974 1.57146 -8.94919
371 1 9.43436 15.7248 -0.00060272 -8.94971
372 1 11.007 17.2974 1.57155 -8.94928
373 1 12.5794 15.7247 -0.000519892 -8.9497
374 1 14.1521 17.2974 1.57165 -8.94977
506 1 3.14368 18.8706 9.43444 -8.94935
376 1 17.2974 17.2974 1.5717 -8.94875
505 1 22.0135 18.8696 9.43449 -8.94953
378 1 20.4416 17.2968 1.57221 -8.94963
504 1 18.8701 15.7254 9.43426 -8.94922
380 1 1.57221 20.4416 1.57218 -8.94933
503 1 15.7273 15.7277 9.43352 -8.94553
382 1 4.71715 20.4417 1.57217 -8.94965
502 1 12.5793 15.7281 9.43354 -8.95511
384 1 7.86208 20.4417 1.57215 -8.94957
531 1 17.2978 17.298 11.0068 -8.94899
386 1 11.007 20.4417 1.57215 -8.94959
501 1 9.42997 15.7146 9.43619 -9.00927
388 1 14.1519 20.4417 1.57222 -8.94953
500 1 6.28074 15.7381 9.43392 -8.9553
390 1 17.2968 20.4417 1.57221 -8.94953
499 1 3.13966 15.7283 9.43372 -8.94726
392 1 20.4415 20.4416 1.57232 -8.94947
393 1 1.57121 11.007 4.71593 -8.94941
394 1 4.71467 11.007 4.71347 -8.946
395 1 7.86421 11.007 4.721 -8.93687
396 1 11.0095 11.007 4.71305 -8.9875
397 1 14.1597 11.007 4.70838 -8.94289
398 1 17.2997 11.007 4.71537 -8.9492
399 1 20.4419 11.007 4.71659 -8.94973
400 1 -0.000194668 12.5795 3.14431 -8.94953
401 1 1.57134 14.152 4.71614 -8.94948
402 1 3.14389 12.5795 3.14341 -8.94888
403 1 4.71502 14.1524 4.71343 -8.95379
404 1 6.28947 12.5784 3.14306 -8.95089
405 1 7.85805 14.1569 4.70684 -8.95614
406 1 9.43409 12.5795 3.14278 -8.94909
407 1 11.0066 14.155 4.70929 -8.95385
408 1 12.5815 12.5805 3.13721 -8.957
409 1 14.1611 14.1607 4.70657 -8.93791
410 1 15.7267 12.5803 3.14207 -8.9482
411 1 17.2996 14.1532 4.71547 -8.95037
412 1 18.8699 12.5796 3.14413 -8.9494
413 1 20.4419 14.1521 4.7167 -8.94981
414 1 22.0137 15.7244 3.14443 -8.94974
415 1 1.57063 17.2981 4.71578 -8.94832
416 1 3.14388 15.7247 3.14341 -8.95066
417 1 4.71388 17.3003 4.71344 -8.9444
418 1 6.2878 15.7263 3.14076 -8.95014
419 1 7.86153 17.2996 4.71488 -8.94858
420 1 9.4343 15.7263 3.14186 -8.94809
421 1 11.0075 17.2992 4.71521 -8.94735
422 1 12.5799 15.726 3.14214 -8.94986
423 1 14.1539 17.3002 4.71493 -8.94911
424 1 15.727 15.7271 3.14174 -8.94644
425 1 17.2978 17.2979 4.71638 -8.94906
426 1 18.8699 15.7248 3.1442 -8.94966
427 1 20.4414 17.2971 4.71684 -8.94968
428 1 22.0135 18.8695 3.14445 -8.94922
429 1 1.57205 20.4418 4.71698 -8.94966
430 1 3.14398 18.87 3.14385 -8.94839
431 1 4.71674 20.4423 4.7166 -8.94995
432 1 6.28942 18.8699 3.14401 -8.94955
433 1 7.86208 20.4423 4.71666 -8.94947
434 1 9.43458 18.87 3.14403 -8.94951
435 1 11.0072 20.4422 4.71667 -8.94939
436 1 12.5796 18.8699 3.14419 -8.94915
437 1 14.1521 20.4422 4.71697 -8.95032
438 1 15.7249 18.8701 3.14412 -8.94939
439 1 17.2969 20.4418 4.71714 -8.94971
440 1 18.8693 18.8694 3.14457 -8.94947
441 1 20.4415 20.4416 4.71719 -8.94962
442 1 1.56913 11.007 7.86023 -8.9476
443 1 4.7113 11.007 7.85713 -8.93582
444 1 7.87545 11.007 7.89336 -8.91527
445 1 11.0706 11.007 7.69489 -8.22706
446 1 14.1654 11.007 7.85275 -8.95991
447 1 17.3011 11.007 7.86111 -8.95061
448 1 20.4417 11.007 7.86153 -8.94986
449 1 -0.000844092 12.5795 6.28878 -8.94945
450 1 1.56738 14.1537 7.86018 -8.95273
451 1 3.14164 12.5794 6.28677 -8.94798
452 1 4.69733 14.1664 7.84806 -8.94008
453 1 6.28663 12.5766 6.28343 -8.96384
454 1 7.82271 14.1916 7.82283 -8.83978
455 1 9.42271 12.5946 6.28604 -8.93133
456 1 11.0229 14.1665 7.834 -8.88874
457 1 12.6093 12.6026 6.25659 -8.89628
458 1 14.1641 14.162 7.85363 -8.94046
459 1 15.7326 12.5816 6.28542 -8.9546
460 1 17.3004 14.1536 7.86106 -8.95095
461 1 18.871 12.5797 6.28888 -8.95073
462 1 20.4414 14.1525 7.86161 -8.95056
463 1 22.0125 15.7251 6.28878 -8.9503
464 1 1.57088 17.298 7.86161 -8.94909
465 1 3.13833 15.7291 6.28467 -8.94593
466 1 4.71402 17.3019 7.86026 -8.95018
467 1 6.2777 15.7371 6.2768 -8.92761
468 1 7.86092 17.3047 7.86064 -8.96038
469 1 9.43425 15.7324 6.28374 -8.94532
470 1 11.0058 17.2993 7.86195 -8.95459
471 1 12.5852 15.734 6.28249 -8.94807
472 1 14.1528 17.2996 7.86174 -8.95091
473 1 15.7284 15.7281 6.28679 -8.94735
474 1 17.2976 17.2979 7.86178 -8.94895
475 1 18.8701 15.7251 6.28909 -8.94996
476 1 20.4414 17.2972 7.86192 -8.94941
477 1 -0.000359081 18.8695 6.2895 -8.94952
478 1 1.57202 20.4419 7.86201 -8.94953
479 1 3.1437 18.8707 6.28888 -8.94978
480 1 4.71666 20.4427 7.86187 -8.95003
481 1 6.28867 18.8724 6.28832 -8.9515
482 1 7.86227 20.443 7.86204 -8.95152
483 1 9.43487 18.8718 6.28844 -8.94981
484 1 11.0069 20.4421 7.86218 -8.94991
485 1 12.5796 18.8711 6.28932 -8.95194
486 1 14.152 20.4421 7.8621 -8.94998
487 1 15.7248 18.8702 6.28943 -8.94994
488 1 17.2969 20.4418 7.86201 -8.94951
489 1 18.8693 18.8695 6.28956 -8.9495
490 1 20.4415 20.4416 7.86206 -8.94959
491 1 22.0115 12.5798 9.434 -8.95102
492 1 3.13334 12.5821 9.43127 -8.95516
493 1 6.24877 12.6244 9.39712 -8.86286
494 1 9.36825 12.8175 9.40855 -7.80752
495 1 12.5962 12.6028 9.39957 -8.83345
496 1 15.7314 12.5819 9.43186 -8.94776
497 1 18.8711 12.5801 9.43402 -8.9496
498 1 -0.00134525 15.7253 9.43431 -8.94951
526 1 1.57089 17.298 11.0072 -8.94922
527 1 4.71377 17.3013 11.0079 -8.94719
534 1 4.71654 20.4427 11.0072 -8.94964
389 1 15.7243 18.8693 -0.000135908 -8.9497
377 1 18.8693 15.7244 -0.000110218 -8.94959
383 1 6.2896 18.8693 -0.000189862 -8.94949
512 1 1.56631 11.007 11.0072 -8.95214
513 1 4.6948 11.007 11.0071 -9.01901
514 1 7.50014 11.007 11.0199 -7.88636
515 1 11.4249 11.007 11.1772 -7.14197
516 1 14.1813 11.007 11.0159 -9.01995
517 1 17.3041 11.007 11.0066 -8.95457
518 1 20.4418 11.007 11.0068 -8.95073
519 1 1.56761 14.1536 11.0071 -8.95105
520 1 4.70031 14.1604 11.0088 -8.95147
521 1 7.81739 14.1677 11.0365 -8.86604
522 1 11.033 14.1451 11.0242 -8.90011
523 1 14.1635 14.1582 11.0045 -8.94781
524 1 17.3007 14.1538 11.0063 -8.94951
525 1 20.4415 14.1526 11.0069 -8.95021
687 3 9.45903 11.007 10.9514 2.28281
391 1 18.8693 18.8693 22.0138 -8.94936
528 1 7.86086 17.3006 11.0079 -8.95366
529 1 11.0059 17.2962 11.0063 -8.94708
530 1 14.1534 17.2997 11.0061 -8.94806
686 1 20.4415 20.4416 20.4416 -8.94933
685 1 18.8694 18.8695 18.8694 -8.94892
533 1 1.572 20.4419 11.007 -8.94955
387 1 12.5794 18.8694 22.0137 -8.94948
535 1 7.86238 20.4425 11.007 -8.95014
536 1 11.0068 20.4418 11.0069 -8.94874
537 1 14.1522 20.4423 11.0068 -8.94968
684 1 17.2967 20.4416 20.4415 -8.94969
539 1 20.4415 20.4417 11.007 -8.94961
540 1 1.56875 11.007 14.154 -8.94917
541 1 4.70667 11.007 14.1599 -8.94047
542 1 7.85353 11.007 14.1385 -8.95286
543 1 11.0237 11.007 14.1478 -8.98658
544 1 14.1668 11.007 14.1648 -8.93808
545 1 17.3024 11.007 14.1549 -8.9481
546 1 20.442 11.007 14.1527 -8.95009
547 1 22.0118 12.5798 12.58 -8.95151
548 1 1.56873 14.1535 14.1539 -8.95103
549 1 3.13343 12.5821 12.5832 -8.95563
550 1 4.70386 14.1645 14.1656 -8.9279
551 1 6.24644 12.6184 12.6223 -8.82275
552 1 7.86236 14.1561 14.16 -8.95183
553 1 9.43593 12.5836 12.5711 -8.63383
554 1 11.0043 14.1582 14.1613 -8.94112
555 1 12.6499 12.6533 12.6537 -8.70688
556 1 14.1756 14.1761 14.1761 -8.9022
557 1 15.7421 12.5849 12.5857 -8.95999
558 1 17.3032 14.1551 14.155 -8.95223
559 1 18.8727 12.58 12.58 -8.95286
560 1 20.4421 14.1525 14.1525 -8.95089
561 1 -0.00119035 15.7252 12.5798 -8.94971
562 1 1.57099 17.298 14.1526 -8.94947
563 1 3.13984 15.728 12.5816 -8.94897
564 1 4.71371 17.3022 14.1557 -8.94779
565 1 6.27872 15.7399 12.5898 -8.94667
566 1 7.863 17.2985 14.1529 -8.95016
567 1 9.43501 15.7226 12.578 -8.95319
568 1 11.0058 17.2993 14.1532 -8.94928
569 1 12.5854 15.7407 12.5853 -8.96429
570 1 14.1547 17.3033 14.1548 -8.95208
571 1 15.7283 15.7283 12.5798 -8.94945
572 1 17.2979 17.2981 14.1522 -8.94988
573 1 18.8703 15.7253 12.5795 -8.94945
574 1 20.4415 17.2972 14.152 -8.94958
575 1 22.0136 18.8695 12.5795 -8.94948
576 1 1.57207 20.4418 14.152 -8.94953
577 1 3.14375 18.8706 12.5799 -8.94915
578 1 4.71678 20.4426 14.1524 -8.9506
579 1 6.289 18.8726 12.5803 -8.95317
580 1 7.86232 20.4421 14.1522 -8.94949
581 1 9.4348 18.8697 12.5797 -8.94814
582 1 11.0069 20.4422 14.1522 -8.94967
583 1 12.5793 18.8721 12.5793 -8.95432
584 1 14.1521 20.4426 14.1521 -8.9511
585 1 15.7249 18.8704 12.5793 -8.94949
586 1 17.2969 20.4418 14.1518 -8.94963
587 1 18.8693 18.8695 12.5794 -8.94945
588 1 20.4415 20.4416 14.1518 -8.94958
589 1 1.57159 11.007 17.2977 -8.94953
590 1 4.71553 11.007 17.2998 -8.94883
591 1 7.86246 11.007 17.2957 -8.94426
592 1 11.0061 11.007 17.2983 -8.94577
593 1 14.1547 11.007 17.3021 -8.94754
594 1 17.2983 11.007 17.2983 -8.94914
595 1 20.4417 11.007 17.2973 -8.94951
596 1 -0.000683543 12.5796 15.7252 -8.94927
597 1 1.57167 14.1522 17.2977 -8.94932
598 1 3.14207 12.5803 15.7274 -8.94755
599 1 4.71609 14.1529 17.3001 -8.9518
600 1 6.28781 12.5799 15.732 -8.96145
601 1 7.86284 14.1521 17.2985 -8.95207
602 1 9.43448 12.5762 15.7198 -8.95071
603 1 11.0053 14.1527 17.2994 -8.95109
604 1 12.5837 12.5827 15.7401 -8.96595
605 1 14.1542 14.1546 17.3029 -8.95293
606 1 15.7291 12.5809 15.7295 -8.94703
607 1 17.2982 14.1525 17.2983 -8.94927
608 1 18.8707 12.5797 15.7255 -8.94913
609 1 20.4417 14.152 17.2972 -8.9494
610 1 22.0132 15.725 15.7251 -8.94995
611 1 1.57152 17.2976 17.2977 -8.94835
612 1 3.14105 15.728 15.7283 -8.9445
613 1 4.71677 17.2976 17.2979 -8.95001
614 1 6.28874 15.7265 15.7279 -8.95089
615 1 7.86192 17.2976 17.2977 -8.94855
616 1 9.43386 15.727 15.7273 -8.94308
617 1 11.0067 17.2978 17.2978 -8.9487
618 1 12.5795 15.7279 15.7283 -8.94924
619 1 14.1521 17.298 17.298 -8.94988
620 1 15.7311 15.7314 15.7312 -8.93812
621 1 17.2984 17.2985 17.2984 -8.94679
622 1 18.8709 15.7255 15.7255 -8.94992
623 1 20.4417 17.2972 17.2972 -8.94948
624 1 -0.00031331 18.8695 15.7245 -8.94959
625 1 1.5721 20.4418 17.297 -8.94937
626 1 3.14374 18.8706 15.7254 -8.94889
627 1 4.71723 20.4417 17.2969 -8.94975
628 1 6.2898 18.8699 15.7248 -8.9498
629 1 7.86203 20.4418 17.297 -8.94946
630 1 9.43441 18.8703 15.7252 -8.94928
631 1 11.007 20.4418 17.297 -8.94949
632 1 12.5792 18.8703 15.7249 -8.9495
633 1 14.1518 20.4418 17.2969 -8.94964
634 1 15.7253 18.8711 15.7253 -8.94982
635 1 17.297 20.4419 17.297 -8.94956
636 1 18.8694 18.8695 15.7244 -8.94976
637 1 20.4415 20.4416 17.2967 -8.94967
638 1 1.57217 11.007 20.4417 -8.94958
639 1 4.71689 11.007 20.442 -8.94998
640 1 7.86212 11.007 20.4414 -8.94857
641 1 11.0064 11.007 20.4417 -8.94914
642 1 14.1524 11.007 20.4422 -8.95016
643 1 17.2972 11.007 20.4418 -8.94953
644 1 20.4416 11.007 20.4416 -8.94961
645 1 22.0138 12.5794 18.8694 -8.94957
646 1 1.5722 14.1519 20.4417 -8.94952
647 1 3.14423 12.5795 18.8701 -8.94935
648 1 4.71707 14.1519 20.442 -8.95026
649 1 6.28968 12.5792 18.8706 -8.9516
650 1 7.86206 14.152 20.4416 -8.95015
651 1 9.43415 12.5793 18.869 -8.94752
652 1 11.0066 14.1521 20.4417 -8.95007
653 1 12.5794 12.5795 18.8721 -8.9534
654 1 14.1522 14.1523 20.4422 -8.95101
655 1 15.7253 12.5797 18.8708 -8.94918
656 1 17.2971 14.152 20.4418 -8.94944
657 1 18.8695 12.5795 18.8696 -8.94948
658 1 20.4416 14.1519 20.4416 -8.94959
659 1 -0.000121705 15.7244 18.8694 -8.9496
660 1 1.57224 17.2968 20.4417 -8.94968
661 1 3.1443 15.7247 18.8701 -8.94998
662 1 4.7171 17.2969 20.4415 -8.94986
663 1 6.28966 15.7246 18.8699 -8.9502
664 1 7.86196 17.2971 20.4416 -8.94943
665 1 9.43425 15.7251 18.8702 -8.94931
666 1 11.0069 17.2971 20.4417 -8.94947
667 1 12.5791 15.7249 18.8702 -8.94975
668 1 14.1518 17.297 20.4417 -8.94968
669 1 15.7253 15.7254 18.8709 -8.95008
670 1 17.2971 17.2971 20.4418 -8.94953
671 1 18.8695 15.7245 18.8695 -8.94962
672 1 20.4416 17.2967 20.4416 -8.94967
673 1 22.0138 18.8693 18.8694 -8.94927
674 1 1.57236 20.4416 20.4415 -8.94959
675 1 3.14465 18.8694 18.8694 -8.94971
676 1 4.71723 20.4416 20.4415 -8.94957
677 1 6.28961 18.8694 18.8693 -8.94937
678 1 7.86207 20.4416 20.4415 -8.9496
679 1 9.43447 18.8695 18.8694 -8.94958
680 1 11.007 20.4416 20.4415 -8.94961
681 1 12.5794 18.8694 18.8694 -8.94939
682 1 14.1518 20.4416 20.4415 -8.94956
683 1 15.7244 18.8695 18.8694 -8.94977
355 1 6.28953 12.5792 22.0136 -8.94992
357 1 9.43425 12.5794 22.0132 -8.94903
359 1 12.5795 12.5795 22.0128 -8.95151
365 1 22.0139 15.7243 22.0138 -8.94956
367 1 3.14463 15.7243 22.0138 -8.94997
369 1 6.28941 15.7246 22.0132 -8.9503
375 1 15.7248 15.7249 22.0134 -8.95004
381 1 3.14464 18.8693 22.0137 -8.94955
379 1 22.0138 18.8692 22.0138 -8.94961
351 1 22.0138 12.5794 22.0138 -8.9496
363 1 18.8694 12.5794 22.0138 -8.94958
385 1 9.43451 18.8694 22.0137 -8.94957
