ITEM: TIMESTEP
80
ITEM: NUMBER OF ATOMS
688
ITEM: BOX BOUNDS pp pp pp
0.0000000000000000e+00 2.2013900999999997e+01
0.0000000000000000e+00 2.2013900999999997e+01
0.0000000000000000e+00 2.2013900999999997e+01
ITEM: ATOMS id type x y z c_pot
189 1 20.4414 4.71646 11.007 -8.94947
2 1 1.57215 1.5722 1.57211 -8.94929
175 1 18.8712 9.43377 9.43395 -8.94956
4 1 4.71711 1.57217 1.57209 -8.94963
174 1 15.7316 9.43197 9.43178 -8.94773
6 1 7.86207 1.57214 1.57208 -8.94955
7 1 9.43452 -2.55853e-16 -0.000109717 -8.9496
8 1 11.007 1.57213 1.57208 -8.94957
173 1 12.5963 9.41143 9.39983 -8.83509
10 1 14.1519 1.57216 1.57217 -8.94951
172 1 9.36974 9.19539 9.40777 -7.80745
12 1 17.2969 1.57213 1.57216 -8.94951
188 1 17.2979 4.71571 11.0067 -8.94894
14 1 20.4415 1.57225 1.57228 -8.94943
171 1 6.24866 9.38911 9.39718 -8.86257
16 1 1.57205 4.71695 1.57193 -8.94986
170 1 3.13294 9.4316 9.43109 -8.95499
18 1 4.71649 4.7164 1.57104 -8.94949
169 1 22.0113 9.43406 9.43392 -8.95099
20 1 7.86189 4.71639 1.57131 -8.94916
183 1 1.57066 4.71568 11.0072 -8.94918
22 1 11.0071 4.71635 1.57141 -8.94925
168 1 18.8702 6.28835 9.4342 -8.94921
24 1 14.1522 4.71639 1.57151 -8.94978
167 1 15.7276 6.28601 9.43338 -8.94542
26 1 17.2975 4.71633 1.57159 -8.94873
166 1 12.5796 6.28579 9.43346 -8.9548
28 1 20.4417 4.71702 1.57214 -8.94962
165 1 9.4299 6.29994 9.43619 -9.00964
30 1 1.57207 7.86199 1.57193 -8.94941
164 1 6.28021 6.27545 9.43386 -8.95523
32 1 4.71691 7.86221 1.57141 -8.9503
163 1 3.13919 6.28524 9.43359 -8.94721
34 1 7.86176 7.86167 1.57007 -8.95206
35 1 9.43433 6.28899 -0.000683169 -8.94972
36 1 11.0066 7.86135 1.57006 -8.95053
37 1 12.5794 6.28911 -0.00059244 -8.94974
38 1 14.1531 7.86081 1.56953 -8.9512
162 1 -0.00153037 6.28845 9.43425 -8.94951
40 1 17.2976 7.86164 1.57154 -8.94935
161 1 18.8694 3.14422 9.43443 -8.94952
42 1 20.4417 7.86197 1.57209 -8.94952
181 1 17.297 1.57197 11.0069 -8.94955
44 1 3.14445 9.43446 -0.00019635 -8.94966
160 1 15.7251 3.14339 9.43428 -8.94937
159 1 12.5794 3.14353 9.43469 -8.9501
158 1 9.4345 3.14503 9.43485 -8.94471
48 1 15.7251 9.43424 -0.000565622 -8.94947
157 1 6.28838 3.14083 9.43483 -8.95137
50 1 22.0137 1.37697e-15 3.14467 -8.9496
51 1 1.57196 1.57197 4.71689 -8.94964
52 1 3.14448 1.52106e-15 3.14441 -8.94957
53 1 4.71665 1.57144 4.71649 -8.94998
54 1 6.28958 1.19632e-15 3.14442 -8.94951
55 1 7.86207 1.57152 4.71656 -8.94947
56 1 9.43459 5.416e-16 3.14439 -8.94955
57 1 11.0072 1.5716 4.71659 -8.94938
58 1 12.5796 1.11785e-15 3.14446 -8.94944
59 1 14.1521 1.57166 4.71692 -8.95038
60 1 15.7245 7.71991e-16 3.14459 -8.94988
61 1 17.2969 1.57207 4.71709 -8.94972
62 1 18.8691 1.4807e-16 3.14474 -8.94966
63 1 20.4414 1.57223 4.71715 -8.9496
64 1 22.0135 3.14434 3.14435 -8.94918
65 1 1.57041 4.71559 4.71556 -8.94829
66 1 3.14383 3.14378 3.14367 -8.94832
67 1 4.71359 4.71322 4.71309 -8.94429
68 1 6.28934 3.1438 3.14385 -8.94951
69 1 7.8614 4.71405 4.71462 -8.94851
70 1 9.43459 3.14379 3.1439 -8.94949
71 1 11.0075 4.71451 4.715 -8.94727
72 1 12.5796 3.14386 3.14408 -8.94912
73 1 14.1542 4.71337 4.71465 -8.949
74 1 15.725 3.14362 3.14399 -8.94935
75 1 17.298 4.71582 4.71623 -8.94906
76 1 18.8693 3.14436 3.14449 -8.94945
77 1 20.4414 4.71664 4.71673 -8.94969
78 1 22.0137 6.28944 3.14431 -8.94974
79 1 1.57119 7.86182 4.71596 -8.94948
80 1 3.14373 6.28905 3.14319 -8.95073
81 1 4.71482 7.86139 4.71318 -8.95392
82 1 6.28763 6.2874 3.14044 -8.95016
83 1 7.85784 7.85675 4.70656 -8.95619
84 1 9.43426 6.28743 3.14161 -8.94806
85 1 11.0067 7.85876 4.70892 -8.95403
86 1 12.5801 6.28772 3.14183 -8.94991
87 1 14.1614 7.85296 4.7062 -8.938
88 1 15.7273 6.28662 3.14148 -8.94645
89 1 17.2999 7.86054 4.71526 -8.95035
90 1 18.87 6.28903 3.14407 -8.94966
91 1 20.4419 7.86176 4.71657 -8.94981
92 1 -0.000224437 9.43443 3.14419 -8.94951
93 1 3.14378 9.43441 3.14324 -8.94885
94 1 6.28946 9.43549 3.14302 -8.95089
95 1 9.43408 9.43441 3.1428 -8.94908
96 1 12.5817 9.43333 3.13697 -8.95702
97 1 15.727 9.43353 3.14178 -8.94816
98 1 18.8701 9.4343 3.14399 -8.94939
99 1 22.0137 2.84976e-16 6.28959 -8.94957
100 1 1.57192 1.57195 7.86197 -8.94951
101 1 3.14436 1.19043e-15 6.28939 -8.94977
102 1 4.71656 1.57109 7.86182 -8.95007
103 1 6.28949 1.42414e-15 6.28929 -8.95063
104 1 7.86228 1.57087 7.86204 -8.95156
105 1 9.43476 1.14292e-15 6.28922 -8.95023
106 1 11.0069 1.57176 7.86221 -8.94991
107 1 12.5795 1.06772e-15 6.28959 -8.95031
108 1 14.152 1.5717 7.8621 -8.94999
109 1 15.7245 5.52465e-16 6.28959 -8.94981
110 1 17.297 1.57201 7.86198 -8.9495
111 1 18.8692 8.4974e-16 6.2896 -8.94955
112 1 20.4415 1.57219 7.86204 -8.94958
113 1 -0.000453708 3.14427 6.28942 -8.94949
114 1 1.57063 4.71563 7.86148 -8.94904
115 1 3.14351 3.14299 6.28872 -8.94977
116 1 4.71368 4.7116 7.86007 -8.95014
117 1 6.28856 3.14125 6.28819 -8.95157
118 1 7.86076 4.70901 7.86057 -8.96055
119 1 9.43485 3.14197 6.28833 -8.94986
120 1 11.0057 4.71464 7.8619 -8.95486
121 1 12.5796 3.14264 6.28927 -8.95205
122 1 14.1529 4.71412 7.86164 -8.95086
123 1 15.7249 3.14355 6.28937 -8.94996
124 1 17.2977 4.71586 7.8617 -8.94889
125 1 18.8693 3.14433 6.2895 -8.94947
126 1 20.4414 4.71651 7.86186 -8.94939
127 1 22.0123 6.28859 6.28862 -8.95034
128 1 1.56704 7.86004 7.85999 -8.95277
129 1 3.1379 6.28441 6.28431 -8.94594
130 1 4.69679 7.84712 7.84775 -8.94023
131 1 6.27723 6.27629 6.27637 -8.92747
132 1 7.82226 7.82191 7.82256 -8.83957
133 1 9.4341 6.28116 6.28342 -8.94521
134 1 11.0237 7.84692 7.83318 -8.88782
135 1 12.5856 6.27953 6.28194 -8.9477
136 1 14.1645 7.85174 7.85333 -8.94088
137 1 15.7287 6.28555 6.28653 -8.94743
138 1 17.3006 7.86012 7.86093 -8.95101
139 1 18.8702 6.28865 6.28898 -8.95
140 1 20.4413 7.86134 7.86152 -8.95059
141 1 -0.000936701 9.43433 6.28864 -8.94943
142 1 3.14143 9.43445 6.28657 -8.94798
143 1 6.28651 9.43731 6.28349 -8.96396
144 1 9.42262 9.41904 6.28613 -8.93178
145 1 12.6095 9.4114 6.25636 -8.8968
146 1 15.733 9.43219 6.2851 -8.95454
147 1 18.8712 9.43413 6.28874 -8.95074
148 1 -0.000209412 7.36341e-16 9.43451 -8.94959
149 1 3.14427 -7.73671e-17 9.4345 -8.94961
150 1 6.28939 4.27271e-16 9.43466 -8.95066
151 1 9.43474 9.76607e-16 9.43459 -8.94803
152 1 12.5795 9.21341e-16 9.43459 -8.94979
153 1 15.7246 4.6553e-16 9.43444 -8.94971
154 1 18.8692 1.58337e-15 9.43449 -8.94959
155 1 22.0134 3.14422 9.43448 -8.9495
156 1 3.1435 3.14303 9.43442 -8.94934
177 1 4.71644 1.5711 11.0072 -8.94965
184 1 4.71342 4.71222 11.008 -8.94712
3 1 3.14477 1.75006e-15 -0.000100413 -8.94964
11 1 15.7243 6.83643e-16 -6.68894e-05 -8.94959
41 1 18.8694 6.28948 -0.000130903 -8.94956
19 1 6.28956 3.1445 -0.000242877 -8.94947
25 1 15.7244 3.14451 -0.0001672 -8.94969
176 1 1.5719 1.57195 11.007 -8.94953
47 1 12.5795 9.43437 22.0127 -8.95154
178 1 7.8624 1.57143 11.0071 -8.95008
179 1 11.0067 1.57211 11.0068 -8.94867
180 1 14.1522 1.57157 11.0068 -8.94968
343 1 18.8696 9.43441 18.8697 -8.94944
182 1 20.4415 1.57218 11.007 -8.94959
342 1 15.7255 9.43413 18.871 -8.94918
46 1 9.43423 9.43449 22.0131 -8.94894
185 1 7.86071 4.71343 11.0079 -8.95369
186 1 11.0059 4.71786 11.0063 -8.94722
187 1 14.1535 4.71401 11.0061 -8.94801
341 1 12.5794 9.43435 18.8723 -8.9535
340 1 9.43415 9.43468 18.8688 -8.94738
190 1 1.56721 7.86013 11.0071 -8.9511
191 1 4.69954 7.85319 11.0088 -8.9514
192 1 7.81677 7.84654 11.0365 -8.86628
193 1 11.034 7.86876 11.0247 -8.89945
194 1 14.1642 7.85547 11.0045 -8.94772
195 1 17.3011 7.85989 11.0063 -8.94958
196 1 20.4415 7.86119 11.0069 -8.95025
197 1 22.0137 8.46284e-16 12.5794 -8.94958
198 1 1.57197 1.57198 14.152 -8.94951
199 1 3.14431 5.10684e-16 12.5796 -8.94953
200 1 4.71672 1.57118 14.1525 -8.95068
201 1 6.28963 1.0606e-15 12.5796 -8.95093
202 1 7.86234 1.5718 14.1522 -8.94948
203 1 9.43469 3.70188e-16 12.5796 -8.94917
204 1 11.0068 1.57166 14.1522 -8.94967
205 1 12.5793 5.52028e-16 12.5793 -8.95089
206 1 14.1521 1.57112 14.1521 -8.95121
207 1 15.7246 1.19913e-15 12.5794 -8.94964
208 1 17.297 1.57198 14.1519 -8.94963
209 1 18.8692 1.71774e-15 12.5794 -8.94956
210 1 20.4415 1.57221 14.1519 -8.94956
211 1 22.0135 3.14424 12.5795 -8.94945
212 1 1.57078 4.71571 14.1528 -8.94945
213 1 3.14357 3.14307 12.58 -8.94911
214 1 4.71344 4.71128 14.156 -8.94783
215 1 6.28893 3.14117 12.5803 -8.95328
216 1 7.86296 4.71537 14.153 -8.95017
217 1 9.43478 3.14422 12.5797 -8.9481
218 1 11.0058 4.71455 14.1533 -8.94927
219 1 12.5793 3.14169 12.5793 -8.95449
220 1 14.155 4.71009 14.1551 -8.95207
221 1 15.725 3.14328 12.5793 -8.94949
222 1 17.2982 4.71548 14.1524 -8.94989
223 1 18.8694 3.14424 12.5794 -8.94942
224 1 20.4415 4.71655 14.1521 -8.94958
225 1 -0.00134692 6.28855 12.5798 -8.94972
226 1 1.5684 7.86014 14.1541 -8.95107
227 1 3.13939 6.28552 12.5818 -8.94893
228 1 4.7032 7.8489 14.1661 -8.92752
229 1 6.27822 6.27365 12.59 -8.94685
230 1 7.8622 7.85778 14.16 -8.95194
231 1 9.43495 6.29158 12.578 -8.95303
232 1 11.0046 7.85563 14.1615 -8.9414
233 1 12.5859 6.27278 12.5857 -8.96422
234 1 14.1765 7.83713 14.1769 -8.90175
235 1 15.7287 6.2852 12.58 -8.94946
236 1 17.3037 7.85849 14.1553 -8.95226
237 1 18.8704 6.28846 12.5795 -8.94947
238 1 20.4421 7.86126 14.1527 -8.95096
239 1 22.0116 9.43399 12.5801 -8.95161
240 1 3.13275 9.43161 12.5834 -8.95573
241 1 6.2452 9.39505 12.6229 -8.82188
242 1 9.43583 9.43074 12.5701 -8.63498
243 1 12.6513 9.36011 12.6543 -8.70678
244 1 15.7429 9.42875 12.5861 -8.9601
245 1 18.873 9.43378 12.5801 -8.95299
246 1 -0.000159028 6.10048e-16 15.7243 -8.94959
247 1 1.57203 1.57202 17.2971 -8.94935
248 1 3.14444 -3.18168e-17 15.7247 -8.94989
249 1 4.71722 1.57213 17.2969 -8.94975
250 1 6.28974 4.33917e-16 15.7245 -8.94957
251 1 7.86202 1.57204 17.2971 -8.94943
252 1 9.43451 5.90697e-16 15.7247 -8.94971
253 1 11.0069 1.572 17.2971 -8.94948
254 1 12.5794 6.5236e-16 15.7246 -8.94961
255 1 14.1518 1.57201 17.297 -8.94964
256 1 15.7246 1.38051e-15 15.7246 -8.95024
257 1 17.2971 1.57187 17.2971 -8.94955
258 1 18.8692 1.81642e-15 15.7243 -8.94965
259 1 20.4415 1.57222 17.2968 -8.94965
260 1 -0.000378642 3.14431 15.7246 -8.94957
261 1 1.5714 4.7161 17.2979 -8.94828
262 1 3.14359 3.14305 15.7256 -8.94887
263 1 4.7167 4.71615 17.2981 -8.95005
264 1 6.2898 3.14385 15.7249 -8.9498
265 1 7.86191 4.71619 17.2978 -8.9485
266 1 9.43439 3.14349 15.7252 -8.94927
267 1 11.0067 4.71597 17.298 -8.94865
268 1 12.5792 3.14342 15.725 -8.94951
269 1 14.1522 4.71565 17.2982 -8.94989
270 1 15.7255 3.1425 15.7255 -8.94983
271 1 17.2986 4.71515 17.2987 -8.94666
272 1 18.8695 3.14423 15.7245 -8.94975
273 1 20.4418 4.7166 17.2973 -8.94945
274 1 22.0131 6.28871 15.7253 -8.94997
275 1 1.57155 7.86164 17.2979 -8.94927
276 1 3.14074 6.28562 15.7287 -8.94436
277 1 4.71597 7.8609 17.3003 -8.95186
278 1 6.28863 6.28718 15.7282 -8.95095
279 1 7.8629 7.86188 17.2985 -8.95219
280 1 9.43384 6.28689 15.7274 -8.94299
281 1 11.0053 7.86115 17.2995 -8.95117
282 1 12.5797 6.28573 15.7286 -8.94926
283 1 14.1545 7.85908 17.3034 -8.95302
284 1 15.7316 6.282 15.7317 -8.93786
285 1 17.2984 7.86122 17.2986 -8.94921
286 1 18.8711 6.28815 15.7257 -8.94992
287 1 20.4418 7.86182 17.2974 -8.94936
288 1 -0.00077041 9.4342 15.7254 -8.94925
289 1 3.14174 9.43351 15.7277 -8.94744
290 1 6.28758 9.43392 15.7322 -8.96152
291 1 9.43469 9.43795 15.7193 -8.95068
292 1 12.5841 9.43108 15.7404 -8.96615
293 1 15.7297 9.43281 15.73 -8.94689
294 1 18.8709 9.43409 15.7257 -8.9491
295 1 22.0138 9.09626e-16 18.8692 -8.94943
296 1 1.57233 1.57227 20.4415 -8.94957
297 1 3.14479 -1.12746e-15 18.8692 -8.94972
298 1 4.71721 1.5723 20.4415 -8.94955
299 1 6.28962 -5.08962e-16 18.8692 -8.94951
300 1 7.86206 1.57225 20.4415 -8.94959
301 1 9.4345 -8.25337e-16 18.8693 -8.94959
302 1 11.007 1.57224 20.4415 -8.94959
303 1 12.5794 1.21016e-15 18.8693 -8.94952
304 1 14.1518 1.57227 20.4415 -8.94954
305 1 15.7243 1.24228e-15 18.8692 -8.94966
306 1 17.2967 1.57226 20.4416 -8.94968
307 1 18.8692 1.8765e-15 18.8693 -8.94948
308 1 20.4415 1.57228 20.4416 -8.94926
309 1 22.0138 3.14448 18.8694 -8.94922
310 1 1.57219 4.71702 20.4417 -8.94969
311 1 3.14461 3.14443 18.8695 -8.94972
312 1 4.71707 4.71694 20.4415 -8.9499
313 1 6.28959 3.14445 18.8694 -8.94934
314 1 7.86193 4.71674 20.4416 -8.94941
315 1 9.43445 3.14432 18.8695 -8.94956
316 1 11.0069 4.7167 20.4417 -8.94945
317 1 12.5794 3.14436 18.8695 -8.94935
318 1 14.1519 4.7168 20.4417 -8.94969
319 1 15.7244 3.1443 18.8695 -8.94976
320 1 17.2972 4.71667 20.4419 -8.94953
321 1 18.8695 3.14429 18.8695 -8.94885
322 1 20.4416 4.71711 20.4416 -8.94965
323 1 -0.000143526 6.28948 18.8695 -8.94958
324 1 1.57215 7.86198 20.4417 -8.94951
325 1 3.14423 6.28908 18.8703 -8.95001
326 1 4.71704 7.862 20.442 -8.9503
327 1 6.28967 6.28928 18.87 -8.95027
328 1 7.86206 7.86192 20.4415 -8.95016
329 1 9.43421 6.2887 18.8703 -8.94931
330 1 11.0065 7.86174 20.4417 -8.95009
331 1 12.5791 6.28894 18.8703 -8.94979
332 1 14.1522 7.86154 20.4423 -8.95108
333 1 15.7254 6.28833 18.8711 -8.95011
334 1 17.2972 7.86184 20.4418 -8.94942
335 1 18.8696 6.28934 18.8696 -8.94959
336 1 20.4416 7.86202 20.4416 -8.94957
337 1 22.0137 9.43445 18.8695 -8.94955
338 1 3.14414 9.43433 18.8703 -8.94934
339 1 6.28967 9.43469 18.8706 -8.95166
45 1 6.28953 9.43467 22.0136 -8.94991
5 1 6.28963 6.50835e-16 22.0138 -8.94959
9 1 12.5794 2.17795e-16 22.0138 -8.94959
39 1 15.7249 6.28893 22.0134 -8.95008
15 1 22.0138 3.14467 22.0138 -8.9496
17 1 3.14459 3.14454 22.0136 -8.94954
33 1 6.28938 6.28929 22.0131 -8.95035
23 1 12.5794 3.14446 22.0137 -8.94946
31 1 3.14459 6.28955 22.0138 -8.95
27 1 18.8693 3.14453 22.0138 -8.94933
29 1 22.0138 6.28959 22.0138 -8.94954
1 1 22.0138 1.31931e-15 22.0138 -8.94942
13 1 18.8691 1.50109e-15 22.0138 -8.94948
21 1 9.43451 3.14444 22.0137 -8.94955
43 1 22.0138 9.43449 22.0138 -8.94959
49 1 18.8694 9.43445 22.0138 -8.94956
344 1 1.57201 11.007 1.57188 -8.94957
345 1 4.71659 11.007 1.57124 -8.9499
346 1 7.86203 11.007 1.5721 -8.94706
347 1 11.0067 11.007 1.57034 -8.94888
348 1 14.1535 11.007 1.56933 -8.94955
349 1 17.2976 11.007 1.57152 -8.94951
350 1 20.4417 11.007 1.57206 -8.94956
538 1 17.297 20.4419 11.0069 -8.94955
352 1 1.57207 14.1519 1.57193 -8.94941
353 1 3.14445 12.5794 -0.00019635 -8.94966
354 1 4.71691 14.1517 1.57141 -8.9503
688 3 10.2331 11.007 9.5347 2.25416
356 1 7.86176 14.1522 1.57007 -8.95206
511 1 18.8694 18.8697 9.43443 -8.94952
358 1 11.0066 14.1526 1.57006 -8.95053
510 1 15.7251 18.8705 9.43428 -8.94937
360 1 14.1531 14.1531 1.56953 -8.9512
361 1 15.7251 12.5797 -0.000565622 -8.94947
362 1 17.2976 14.1523 1.57154 -8.94935
532 1 20.4414 17.2974 11.007 -8.94947
364 1 20.4417 14.1519 1.57209 -8.94952
509 1 12.5794 18.8704 9.43469 -8.9501
366 1 1.57205 17.2969 1.57193 -8.94986
508 1 9.4345 18.8689 9.43485 -8.94471
368 1 4.71649 17.2975 1.57104 -8.94949
507 1 6.28838 18.8731 9.43483 -8.95137
370 1 7.86189 17.2975 1.57131 -8.94916
371 1 9.43433 15.7249 -0.000683169 -8.94972
372 1 11.0071 17.2975 1.57141 -8.94925
373 1 12.5794 15.7248 -0.00059244 -8.94974
374 1 14.1522 17.2975 1.57151 -8.94978
506 1 3.1435 18.8709 9.43442 -8.94934
376 1 17.2975 17.2976 1.57159 -8.94873
505 1 22.0134 18.8697 9.43448 -8.9495
378 1 20.4417 17.2969 1.57214 -8.94962
504 1 18.8702 15.7255 9.4342 -8.94921
380 1 1.57215 20.4417 1.57211 -8.94929
503 1 15.7276 15.7279 9.43338 -8.94542
382 1 4.71711 20.4417 1.57209 -8.94963
502 1 12.5796 15.7281 9.43346 -8.9548
384 1 7.86207 20.4418 1.57208 -8.94955
531 1 17.2979 17.2982 11.0067 -8.94894
386 1 11.007 20.4418 1.57208 -8.94957
501 1 9.4299 15.714 9.43619 -9.00964
388 1 14.1519 20.4417 1.57217 -8.94951
500 1 6.28021 15.7385 9.43386 -8.95523
390 1 17.2969 20.4418 1.57216 -8.94951
499 1 3.13919 15.7287 9.43359 -8.94721
392 1 20.4415 20.4416 1.57228 -8.94943
393 1 1.57108 11.007 4.71575 -8.9494
394 1 4.71454 11.007 4.71333 -8.94593
395 1 7.86424 11.007 4.72138 -8.93638
396 1 11.0095 11.007 4.71309 -8.98727
397 1 14.16 11.007 4.70797 -8.9428
398 1 17.2999 11.007 4.71513 -8.94919
399 1 20.442 11.007 4.71645 -8.94973
400 1 -0.000224437 12.5795 3.14419 -8.94951
401 1 1.57119 14.1521 4.71596 -8.94948
402 1 3.14378 12.5795 3.14324 -8.94885
403 1 4.71482 14.1525 4.71318 -8.95392
404 1 6.28946 12.5784 3.14302 -8.95089
405 1 7.85784 14.1571 4.70656 -8.95619
406 1 9.43408 12.5795 3.1428 -8.94908
407 1 11.0067 14.1551 4.70892 -8.95403
408 1 12.5817 12.5806 3.13697 -8.95702
409 1 14.1614 14.1609 4.7062 -8.938
410 1 15.727 12.5804 3.14178 -8.94816
411 1 17.2999 14.1534 4.71526 -8.95035
412 1 18.8701 12.5796 3.14399 -8.94939
413 1 20.4419 14.1521 4.71657 -8.94981
414 1 22.0137 15.7245 3.14431 -8.94974
415 1 1.57041 17.2983 4.71556 -8.94829
416 1 3.14373 15.7248 3.14319 -8.95073
417 1 4.71359 17.3007 4.71309 -8.94429
418 1 6.28763 15.7265 3.14044 -8.95016
419 1 7.8614 17.2999 4.71462 -8.94851
420 1 9.43426 15.7265 3.14161 -8.94806
421 1 11.0075 17.2994 4.715 -8.94727
422 1 12.5801 15.7262 3.14183 -8.94991
423 1 14.1542 17.3005 4.71465 -8.949
424 1 15.7273 15.7273 3.14148 -8.94645
425 1 17.298 17.2981 4.71623 -8.94906
426 1 18.87 15.7249 3.14407 -8.94966
427 1 20.4414 17.2973 4.71673 -8.94969
428 1 22.0135 18.8696 3.14435 -8.94918
429 1 1.57196 20.4419 4.71689 -8.94964
430 1 3.14383 18.8701 3.14367 -8.94832
431 1 4.71665 20.4425 4.71649 -8.94998
432 1 6.28934 18.8701 3.14385 -8.94951
433 1 7.86207 20.4424 4.71656 -8.94947
434 1 9.43459 18.8701 3.1439 -8.94949
435 1 11.0072 20.4423 4.71659 -8.94938
436 1 12.5796 18.87 3.14408 -8.94912
437 1 14.1521 20.4422 4.71692 -8.95038
438 1 15.725 18.8703 3.14399 -8.94935
439 1 17.2969 20.4418 4.71709 -8.94972
440 1 18.8693 18.8695 3.14449 -8.94945
441 1 20.4414 20.4417 4.71715 -8.9496
442 1 1.56893 11.007 7.86008 -8.9475
443 1 4.71121 11.007 7.85719 -8.93565
444 1 7.87584 11.007 7.89466 -8.91514
445 1 11.07 11.007 7.69615 -8.22852
446 1 14.1656 11.007 7.85245 -8.95956
447 1 17.3013 11.007 7.86095 -8.95057
448 1 20.4417 11.007 7.86143 -8.94982
449 1 -0.000936701 12.5796 6.28864 -8.94943
450 1 1.56704 14.1539 7.85999 -8.95277
451 1 3.14143 12.5795 6.28657 -8.94798
452 1 4.69679 14.1668 7.84775 -8.94023
453 1 6.28651 12.5766 6.28349 -8.96396
454 1 7.82226 14.192 7.82256 -8.83957
455 1 9.42262 12.5949 6.28613 -8.93178
456 1 11.0237 14.167 7.83318 -8.88782
457 1 12.6095 12.6025 6.25636 -8.8968
458 1 14.1645 14.1622 7.85333 -8.94088
459 1 15.733 12.5817 6.2851 -8.95454
460 1 17.3006 14.1538 7.86093 -8.95101
461 1 18.8712 12.5798 6.28874 -8.95074
462 1 20.4413 14.1526 7.86152 -8.95059
463 1 22.0123 15.7253 6.28862 -8.95034
464 1 1.57063 17.2983 7.86148 -8.94904
465 1 3.1379 15.7295 6.28431 -8.94594
466 1 4.71368 17.3023 7.86007 -8.95014
467 1 6.27723 15.7376 6.27637 -8.92747
468 1 7.86076 17.3049 7.86057 -8.96055
469 1 9.4341 15.7327 6.28342 -8.94521
470 1 11.0057 17.2993 7.8619 -8.95486
471 1 12.5856 15.7344 6.28194 -8.9477
472 1 14.1529 17.2998 7.86164 -8.95086
473 1 15.7287 15.7284 6.28653 -8.94743
474 1 17.2977 17.298 7.8617 -8.94889
475 1 18.8702 15.7252 6.28898 -8.95
476 1 20.4414 17.2974 7.86186 -8.94939
477 1 -0.000453708 18.8696 6.28942 -8.94949
478 1 1.57192 20.442 7.86197 -8.94951
479 1 3.14351 18.8709 6.28872 -8.94977
480 1 4.71656 20.4428 7.86182 -8.95007
481 1 6.28856 18.8727 6.28819 -8.95157
482 1 7.86228 20.443 7.86204 -8.95156
483 1 9.43485 18.8719 6.28833 -8.94986
484 1 11.0069 20.4421 7.86221 -8.94991
485 1 12.5796 18.8713 6.28927 -8.95205
486 1 14.152 20.4422 7.8621 -8.94999
487 1 15.7249 18.8703 6.28937 -8.94996
488 1 17.297 20.4419 7.86198 -8.9495
489 1 18.8693 18.8696 6.2895 -8.94947
490 1 20.4415 20.4417 7.86204 -8.94958
491 1 22.0113 12.5798 9.43392 -8.95099
492 1 3.13294 12.5823 9.43109 -8.95499
493 1 6.24866 12.6248 9.39718 -8.86257
494 1 9.36974 12.8185 9.40777 -7.80745
495 1 12.5963 12.6025 9.39983 -8.83509
496 1 15.7316 12.5819 9.43178 -8.94773
497 1 18.8712 12.5801 9.43395 -8.94956
498 1 -0.00153037 15.7255 9.43425 -8.94951
526 1 1.57066 17.2982 11.0072 -8.94918
527 1 4.71342 17.3017 11.008 -8.94712
534 1 4.71644 20.4428 11.0072 -8.94965
389 1 15.7244 18.8694 -0.0001672 -8.94969
377 1 18.8694 15.7244 -0.000130903 -8.94956
383 1 6.28956 18.8694 -0.000242877 -8.94947
512 1 1.56594 11.007 11.0071 -8.95221
513 1 4.69402 11.007 11.0071 -9.01919
514 1 7.49889 11.007 11.0213 -7.88671
515 1 11.4237 11.007 11.1791 -7.14791
516 1 14.1817 11.007 11.0164 -9.02017
517 1 17.3044 11.007 11.0067 -8.95452
518 1 20.4418 11.007 11.0068 -8.95072
519 1 1.56721 14.1538 11.0071 -8.9511
520 1 4.69954 14.1607 11.0088 -8.9514
521 1 7.81677 14.1674 11.0365 -8.86628
522 1 11.034 14.1451 11.0247 -8.89945
523 1 14.1642 14.1584 11.0045 -8.94772
524 1 17.3011 14.154 11.0063 -8.94958
525 1 20.4415 14.1527 11.0069 -8.95025
687 3 9.45768 11.007 10.9478 2.28261
391 1 18.8693 18.8694 22.0138 -8.94933
528 1 7.86071 17.3005 11.0079 -8.95369
529 1 11.0059 17.296 11.0063 -8.94722
530 1 14.1535 17.2999 11.0061 -8.94801
686 1 20.4415 20.4416 20.4416 -8.94926
685 1 18.8695 18.8696 18.8695 -8.94885
533 1 1.5719 20.442 11.007 -8.94953
387 1 12.5794 18.8694 22.0137 -8.94946
535 1 7.8624 20.4425 11.0071 -8.95008
536 1 11.0067 20.4418 11.0068 -8.94867
537 1 14.1522 20.4423 11.0068 -8.94968
684 1 17.2967 20.4416 20.4416 -8.94968
539 1 20.4415 20.4417 11.007 -8.94959
540 1 1.5684 11.007 14.1542 -8.94916
541 1 4.70597 11.007 14.1603 -8.94012
542 1 7.85321 11.007 14.1383 -8.95315
543 1 11.0246 11.007 14.1465 -8.98696
544 1 14.1678 11.007 14.1655 -8.93788
545 1 17.3029 11.007 14.1552 -8.94808
546 1 20.4421 11.007 14.1529 -8.95013
547 1 22.0116 12.5799 12.5801 -8.95161
548 1 1.5684 14.1538 14.1541 -8.95107
549 1 3.13275 12.5823 12.5834 -8.95573
550 1 4.7032 14.165 14.1661 -8.92752
551 1 6.2452 12.6188 12.6229 -8.82188
552 1 7.8622 14.1561 14.16 -8.95194
553 1 9.43583 12.5832 12.5701 -8.63498
554 1 11.0046 14.1583 14.1615 -8.9414
555 1 12.6513 12.6538 12.6543 -8.70678
556 1 14.1765 14.1768 14.1769 -8.90175
557 1 15.7429 12.5851 12.5861 -8.9601
558 1 17.3037 14.1554 14.1553 -8.95226
559 1 18.873 12.5801 12.5801 -8.95299
560 1 20.4421 14.1526 14.1527 -8.95096
561 1 -0.00134692 15.7253 12.5798 -8.94972
562 1 1.57078 17.2982 14.1528 -8.94945
563 1 3.13939 15.7284 12.5818 -8.94893
564 1 4.71344 17.3026 14.156 -8.94783
565 1 6.27822 15.7403 12.59 -8.94685
566 1 7.86296 17.2985 14.153 -8.95017
567 1 9.43495 15.7223 12.578 -8.95303
568 1 11.0058 17.2994 14.1533 -8.94927
569 1 12.5859 15.7411 12.5857 -8.96422
570 1 14.155 17.3038 14.1551 -8.95207
571 1 15.7287 15.7287 12.58 -8.94946
572 1 17.2982 17.2984 14.1524 -8.94989
573 1 18.8704 15.7254 12.5795 -8.94947
574 1 20.4415 17.2974 14.1521 -8.94958
575 1 22.0135 18.8697 12.5795 -8.94945
576 1 1.57197 20.4419 14.152 -8.94951
577 1 3.14357 18.8708 12.58 -8.94911
578 1 4.71672 20.4427 14.1525 -8.95068
579 1 6.28893 18.8727 12.5803 -8.95328
580 1 7.86234 20.4421 14.1522 -8.94948
581 1 9.43478 18.8697 12.5797 -8.9481
582 1 11.0068 20.4422 14.1522 -8.94967
583 1 12.5793 18.8722 12.5793 -8.95449
584 1 14.1521 20.4428 14.1521 -8.95121
585 1 15.725 18.8706 12.5793 -8.94949
586 1 17.297 20.4419 14.1519 -8.94963
587 1 18.8694 18.8697 12.5794 -8.94942
588 1 20.4415 20.4417 14.1519 -8.94956
589 1 1.57147 11.007 17.2979 -8.9495
590 1 4.71536 11.007 17.3 -8.94883
591 1 7.86249 11.007 17.2955 -8.94429
592 1 11.0062 11.007 17.298 -8.94544
593 1 14.155 11.007 17.3025 -8.94755
594 1 17.2985 11.007 17.2986 -8.9491
595 1 20.4418 11.007 17.2974 -8.94949
596 1 -0.00077041 12.5797 15.7254 -8.94925
597 1 1.57155 14.1523 17.2979 -8.94927
598 1 3.14174 12.5804 15.7277 -8.94744
599 1 4.71597 14.153 17.3003 -8.95186
600 1 6.28758 12.58 15.7322 -8.96152
601 1 7.8629 14.152 17.2985 -8.95219
602 1 9.43469 12.5759 15.7193 -8.95068
603 1 11.0053 14.1528 17.2995 -8.95117
604 1 12.5841 12.5828 15.7404 -8.96615
605 1 14.1545 14.1548 17.3034 -8.95302
606 1 15.7297 12.5811 15.73 -8.94689
607 1 17.2984 14.1527 17.2986 -8.94921
608 1 18.8709 12.5798 15.7257 -8.9491
609 1 20.4418 14.1521 17.2974 -8.94936
610 1 22.0131 15.7252 15.7253 -8.94997
611 1 1.5714 17.2978 17.2979 -8.94828
612 1 3.14074 15.7283 15.7287 -8.94436
613 1 4.7167 17.2977 17.2981 -8.95005
614 1 6.28863 15.7267 15.7282 -8.95095
615 1 7.86191 17.2977 17.2978 -8.9485
616 1 9.43384 15.727 15.7274 -8.94299
617 1 11.0067 17.2979 17.298 -8.94865
618 1 12.5797 15.7282 15.7286 -8.94926
619 1 14.1522 17.2982 17.2982 -8.94989
620 1 15.7316 15.7319 15.7317 -8.93786
621 1 17.2986 17.2988 17.2987 -8.94666
622 1 18.8711 15.7257 15.7257 -8.94992
623 1 20.4418 17.2973 17.2973 -8.94945
624 1 -0.000378642 18.8696 15.7246 -8.94957
625 1 1.57203 20.4419 17.2971 -8.94935
626 1 3.14359 18.8709 15.7256 -8.94887
627 1 4.71722 20.4418 17.2969 -8.94975
628 1 6.2898 18.87 15.7249 -8.9498
629 1 7.86202 20.4419 17.2971 -8.94943
630 1 9.43439 18.8704 15.7252 -8.94927
631 1 11.0069 20.4419 17.2971 -8.94948
632 1 12.5792 18.8705 15.725 -8.94951
633 1 14.1518 20.4419 17.297 -8.94964
634 1 15.7255 18.8714 15.7255 -8.94983
635 1 17.2971 20.442 17.2971 -8.94955
636 1 18.8695 18.8697 15.7245 -8.94975
637 1 20.4415 20.4417 17.2968 -8.94965
638 1 1.57212 11.007 20.4418 -8.94957
639 1 4.71684 11.007 20.4421 -8.95
640 1 7.86212 11.007 20.4414 -8.94848
641 1 11.0064 11.007 20.4416 -8.94901
642 1 14.1525 11.007 20.4423 -8.95021
643 1 17.2973 11.007 20.4419 -8.94951
644 1 20.4416 11.007 20.4416 -8.94959
645 1 22.0137 12.5794 18.8695 -8.94955
646 1 1.57215 14.1519 20.4417 -8.94951
647 1 3.14414 12.5796 18.8703 -8.94934
648 1 4.71704 14.1519 20.442 -8.9503
649 1 6.28967 12.5792 18.8706 -8.95166
650 1 7.86206 14.152 20.4415 -8.95016
651 1 9.43415 12.5792 18.8688 -8.94738
652 1 11.0065 14.1522 20.4417 -8.95009
653 1 12.5794 12.5795 18.8723 -8.9535
654 1 14.1522 14.1524 20.4423 -8.95108
655 1 15.7255 12.5798 18.871 -8.94918
656 1 17.2972 14.1521 20.4418 -8.94942
657 1 18.8696 12.5795 18.8697 -8.94944
658 1 20.4416 14.1519 20.4416 -8.94957
659 1 -0.000143526 15.7244 18.8695 -8.94958
660 1 1.57219 17.2969 20.4417 -8.94969
661 1 3.14423 15.7248 18.8703 -8.95001
662 1 4.71707 17.297 20.4415 -8.9499
663 1 6.28967 15.7246 18.87 -8.95027
664 1 7.86193 17.2972 20.4416 -8.94941
665 1 9.43421 15.7252 18.8703 -8.94931
666 1 11.0069 17.2972 20.4417 -8.94945
667 1 12.5791 15.725 18.8703 -8.94979
668 1 14.1519 17.2971 20.4417 -8.94969
669 1 15.7254 15.7256 18.8711 -8.95011
670 1 17.2972 17.2972 20.4419 -8.94953
671 1 18.8696 15.7246 18.8696 -8.94959
672 1 20.4416 17.2968 20.4416 -8.94965
673 1 22.0138 18.8694 18.8694 -8.94922
674 1 1.57233 20.4416 20.4415 -8.94957
675 1 3.14461 18.8695 18.8695 -8.94972
676 1 4.71721 20.4416 20.4415 -8.94955
677 1 6.28959 18.8694 18.8694 -8.94934
678 1 7.86206 20.4417 20.4415 -8.94959
679 1 9.43445 18.8696 18.8695 -8.94956
680 1 11.007 20.4417 20.4415 -8.94959
681 1 12.5794 18.8695 18.8695 -8.94935
682 1 14.1518 20.4416 20.4415 -8.94954
683 1 15.7244 18.8696 18.8695 -8.94976
355 1 6.28953 12.5792 22.0136 -8.94991
357 1 9.43423 12.5794 22.0131 -8.94894
359 1 12.5795 12.5795 22.0127 -8.95154
365 1 22.0138 15.7243 22.0138 -8.94954
367 1 3.14459 15.7243 22.0138 -8.95
369 1 6.28938 15.7246 22.0131 -8.95035
375 1 15.7249 15.725 22.0134 -8.95008
381 1 3.14459 18.8694 22.0136 -8.94954
379 1 22.0138 18.8692 22.0138 -8.9496
351 1 22.0138 12.5794 22.0138 -8.94959
363 1 18.8694 12.5794 22.0138 -8.94956
385 1 9.43451 18.8695 22.0137 -8.94955
