ITEM: TIMESTEP
102
ITEM: NUMBER OF ATOMS
688
ITEM: BOX BOUNDS pp pp pp
0.0000000000000000e+00 2.2013900999999997e+01
0.0000000000000000e+00 2.2013900999999997e+01
0.0000000000000000e+00 2.2013900999999997e+01
ITEM: ATOMS id type x y z c_pot
189 1 20.4414 4.7162 11.007 -8.94944
2 1 1.57206 1.57212 1.57198 -8.94924
175 1 18.8713 9.43368 9.43384 -8.94953
4 1 4.71703 1.57207 1.57195 -8.94959
174 1 15.7319 9.43197 9.4317 -8.94773
6 1 7.86205 1.57205 1.57195 -8.94952
7 1 9.43452 8.39298e-16 -0.000159148 -8.94958
8 1 11.007 1.57204 1.57197 -8.94953
173 1 12.5966 9.4119 9.40044 -8.83769
10 1 14.152 1.57207 1.57208 -8.94949
172 1 9.37168 9.19405 9.40671 -7.80679
12 1 17.2969 1.57203 1.57206 -8.94949
188 1 17.2981 4.71541 11.0067 -8.94889
14 1 20.4415 1.57217 1.5722 -8.94938
171 1 6.24854 9.38873 9.39738 -8.86235
16 1 1.57194 4.71683 1.57176 -8.94989
170 1 3.13238 9.43131 9.43087 -8.95474
18 1 4.71634 4.71622 1.57077 -8.94949
169 1 22.0111 9.43395 9.43379 -8.95095
20 1 7.86182 4.71619 1.57108 -8.94913
183 1 1.5703 4.71532 11.0072 -8.94914
22 1 11.0071 4.71616 1.57121 -8.94921
168 1 18.8703 6.28809 9.43409 -8.94921
24 1 14.1523 4.71617 1.57129 -8.94978
167 1 15.728 6.28567 9.43318 -8.94527
26 1 17.2977 4.71612 1.57143 -8.94872
166 1 12.58 6.28583 9.43337 -8.95438
28 1 20.4417 4.7169 1.57204 -8.94961
165 1 9.42986 6.30068 9.43614 -9.01008
30 1 1.57199 7.86194 1.57179 -8.94939
164 1 6.27948 6.275 9.43377 -8.95514
32 1 4.71685 7.86219 1.57124 -8.95035
163 1 3.1385 6.28469 9.4334 -8.94715
34 1 7.86172 7.86161 1.56989 -8.95213
35 1 9.43429 6.28887 -0.000805336 -8.94974
36 1 11.0065 7.86127 1.56984 -8.95063
37 1 12.5794 6.28898 -0.000701247 -8.94979
38 1 14.1533 7.86066 1.56926 -8.95124
162 1 -0.00180491 6.28816 9.43414 -8.94953
40 1 17.2978 7.86148 1.57134 -8.94931
161 1 18.8695 3.14402 9.43438 -8.94948
42 1 20.4418 7.8619 1.57197 -8.94949
181 1 17.2971 1.57185 11.0069 -8.94954
44 1 3.14437 9.43444 -0.000229195 -8.94967
160 1 15.7252 3.14317 9.43422 -8.94937
159 1 12.5793 3.14353 9.43468 -8.95011
158 1 9.4344 3.1453 9.43488 -8.94452
48 1 15.7253 9.43417 -0.000635477 -8.94948
157 1 6.28817 3.14056 9.43485 -8.95148
50 1 22.0137 1.52014e-15 3.14457 -8.94956
51 1 1.57179 1.57184 4.71673 -8.94962
52 1 3.14436 1.05829e-15 3.14425 -8.94957
53 1 4.71652 1.57126 4.7163 -8.95002
54 1 6.28953 1.79746e-15 3.14426 -8.94949
55 1 7.86205 1.57136 4.71639 -8.94949
56 1 9.43461 8.94872e-16 3.14425 -8.94953
57 1 11.0073 1.57147 4.71646 -8.94938
58 1 12.5796 1.02515e-15 3.14435 -8.94941
59 1 14.1522 1.57151 4.71683 -8.95047
60 1 15.7245 1.21282e-16 3.1445 -8.94992
61 1 17.297 1.57195 4.71701 -8.94973
62 1 18.8692 -5.23189e-16 3.14467 -8.94965
63 1 20.4414 1.57214 4.71707 -8.94957
64 1 22.0133 3.14418 3.14417 -8.94914
65 1 1.57008 4.71528 4.71523 -8.94826
66 1 3.14361 3.14354 3.14339 -8.94825
67 1 4.71318 4.71276 4.71262 -8.94417
68 1 6.28921 3.14356 3.14359 -8.94945
69 1 7.8612 4.71363 4.71425 -8.94844
70 1 9.43458 3.14358 3.14369 -8.94946
71 1 11.0075 4.71421 4.71468 -8.94717
72 1 12.5797 3.14365 3.1439 -8.94908
73 1 14.1545 4.71292 4.71423 -8.94884
74 1 15.7252 3.14336 3.14379 -8.9493
75 1 17.2983 4.71551 4.71598 -8.94908
76 1 18.8694 3.14418 3.14435 -8.94943
77 1 20.4413 4.71643 4.71655 -8.94971
78 1 22.0136 6.28933 3.14412 -8.94974
79 1 1.57097 7.86171 4.71568 -8.9495
80 1 3.14351 6.28889 3.14288 -8.95082
81 1 4.71455 7.86123 4.71285 -8.95408
82 1 6.28739 6.28711 3.14001 -8.95018
83 1 7.85756 7.85641 4.70623 -8.95627
84 1 9.4342 6.28717 3.14126 -8.94805
85 1 11.0068 7.85853 4.70842 -8.95429
86 1 12.5802 6.28745 3.14138 -8.94999
87 1 14.1618 7.85273 4.70573 -8.93818
88 1 15.7276 6.28631 3.14113 -8.94649
89 1 17.3002 7.86032 4.71493 -8.95033
90 1 18.8702 6.28886 3.14387 -8.94964
91 1 20.4419 7.86164 4.71636 -8.94981
92 1 -0.000262086 9.43439 3.14398 -8.94949
93 1 3.14364 9.43438 3.143 -8.94883
94 1 6.28944 9.43552 3.14299 -8.95087
95 1 9.43405 9.43439 3.14283 -8.94906
96 1 12.5819 9.43329 3.13667 -8.95698
97 1 15.7273 9.4334 3.14136 -8.94812
98 1 18.8703 9.43423 3.14376 -8.94936
99 1 22.0136 9.02992e-16 6.28951 -8.94954
100 1 1.57175 1.5718 7.8619 -8.94949
101 1 3.1442 1.04045e-15 6.28927 -8.94978
102 1 4.71642 1.57088 7.86175 -8.95011
103 1 6.28946 1.1494e-15 6.28921 -8.95069
104 1 7.86227 1.57079 7.86203 -8.9516
105 1 9.43478 1.77882e-15 6.28915 -8.95027
106 1 11.0068 1.57176 7.86223 -8.94991
107 1 12.5795 8.59164e-16 6.28958 -8.95037
108 1 14.1521 1.57161 7.86208 -8.95001
109 1 15.7245 -1.03831e-16 6.28956 -8.94983
110 1 17.2971 1.57189 7.86194 -8.94948
111 1 18.8692 1.46465e-15 6.28955 -8.94953
112 1 20.4414 1.57209 7.86199 -8.94954
113 1 -0.000607146 3.14406 6.28929 -8.94944
114 1 1.57026 4.71525 7.86128 -8.94899
115 1 3.14322 3.14264 6.28848 -8.94974
116 1 4.71319 4.71104 7.8598 -8.95009
117 1 6.28839 3.14089 6.288 -8.95165
118 1 7.86051 4.70882 7.86047 -8.96074
119 1 9.43481 3.14176 6.28818 -8.94993
120 1 11.0056 4.71464 7.86179 -8.95519
121 1 12.5796 3.14243 6.28917 -8.95219
122 1 14.153 4.7139 7.86147 -8.95078
123 1 15.725 3.14332 6.28926 -8.94997
124 1 17.2979 4.71557 7.86155 -8.9488
125 1 18.8694 3.14414 6.28941 -8.94943
126 1 20.4413 4.71626 7.86174 -8.94936
127 1 22.0121 6.28835 6.28838 -8.95037
128 1 1.56658 7.85975 7.8597 -8.9528
129 1 3.13732 6.28393 6.28383 -8.94597
130 1 4.69611 7.84662 7.84738 -8.94045
131 1 6.27662 6.27569 6.27583 -8.92731
132 1 7.8217 7.82147 7.82222 -8.83934
133 1 9.43391 6.28079 6.28298 -8.94509
134 1 11.0249 7.84624 7.83212 -8.8867
135 1 12.5862 6.279 6.28117 -8.94716
136 1 14.165 7.85164 7.85295 -8.94154
137 1 15.7291 6.28518 6.28615 -8.94757
138 1 17.3009 7.85992 7.86071 -8.95109
139 1 18.8703 6.28843 6.28878 -8.95006
140 1 20.4413 7.86118 7.86136 -8.95061
141 1 -0.00106439 9.43426 6.28841 -8.94941
142 1 3.14115 9.43437 6.28631 -8.94799
143 1 6.28636 9.43731 6.28365 -8.96407
144 1 9.42256 9.41877 6.28621 -8.93249
145 1 12.6096 9.41169 6.25616 -8.89742
146 1 15.7334 9.43207 6.28464 -8.95444
147 1 18.8714 9.43405 6.28852 -8.95074
148 1 -0.000302647 8.62206e-16 9.43449 -8.94956
149 1 3.1441 -6.20937e-17 9.4345 -8.94961
150 1 6.28935 8.52649e-16 9.43469 -8.95071
151 1 9.43474 1.57128e-15 9.43461 -8.94781
152 1 12.5794 8.74611e-16 9.4346 -8.94977
153 1 15.7247 -1.24469e-16 9.43441 -8.94971
154 1 18.8693 1.13227e-15 9.43446 -8.94957
155 1 22.0133 3.144 9.43444 -8.94946
156 1 3.14321 3.14268 9.43438 -8.94933
177 1 4.7163 1.57091 11.0073 -8.94968
184 1 4.7129 4.71174 11.0081 -8.94704
3 1 3.14473 1.20326e-15 -0.000159809 -8.9496
11 1 15.7243 -2.98252e-16 -9.78959e-05 -8.94957
41 1 18.8695 6.28936 -0.000159963 -8.94952
19 1 6.28951 3.14438 -0.000333652 -8.94943
25 1 15.7245 3.14436 -0.000216484 -8.94969
176 1 1.57173 1.5718 11.0071 -8.9495
47 1 12.5795 9.43435 22.0126 -8.95158
178 1 7.86242 1.57145 11.0071 -8.95
179 1 11.0066 1.57218 11.0068 -8.94859
180 1 14.1522 1.57146 11.0068 -8.9497
343 1 18.8698 9.43434 18.8699 -8.94939
182 1 20.4414 1.57207 11.007 -8.94956
342 1 15.7257 9.434 18.8714 -8.94916
46 1 9.4342 9.4345 22.0131 -8.94882
185 1 7.86047 4.71367 11.0079 -8.95369
186 1 11.0059 4.71817 11.0063 -8.94741
187 1 14.1537 4.71374 11.0061 -8.94794
341 1 12.5794 9.43433 18.8725 -8.95361
340 1 9.43417 9.43475 18.8686 -8.94721
190 1 1.56665 7.85983 11.0071 -8.95115
191 1 4.69848 7.85271 11.0088 -8.95127
192 1 7.81604 7.84702 11.0364 -8.86659
193 1 11.0353 7.86871 11.0254 -8.89869
194 1 14.1652 7.8551 11.0046 -8.94758
195 1 17.3016 7.85962 11.0063 -8.94968
196 1 20.4415 7.861 11.0068 -8.9503
197 1 22.0136 1.0432e-16 12.5795 -8.94955
198 1 1.57183 1.57183 14.1522 -8.94948
199 1 3.14416 -4.10579e-16 12.5797 -8.94953
200 1 4.71664 1.57099 14.1526 -8.95078
201 1 6.28964 1.54249e-15 12.5797 -8.95097
202 1 7.86236 1.57175 14.1523 -8.94946
203 1 9.4347 8.71973e-16 12.5796 -8.94908
204 1 11.0068 1.57161 14.1523 -8.94965
205 1 12.5793 -7.0538e-17 12.5793 -8.95096
206 1 14.1522 1.57092 14.1522 -8.95137
207 1 15.7246 7.32853e-16 12.5794 -8.94965
208 1 17.2971 1.57183 14.1519 -8.94964
209 1 18.8693 1.71918e-15 12.5794 -8.94954
210 1 20.4415 1.5721 14.1519 -8.94952
211 1 22.0133 3.14402 12.5796 -8.94941
212 1 1.57047 4.71534 14.1531 -8.94943
213 1 3.1433 3.14272 12.5801 -8.94907
214 1 4.71304 4.71075 14.1564 -8.94791
215 1 6.28882 3.14096 12.5804 -8.95341
216 1 7.86288 4.71533 14.153 -8.95016
217 1 9.43473 3.14435 12.5796 -8.94806
218 1 11.0058 4.71448 14.1534 -8.94926
219 1 12.5793 3.1415 12.5794 -8.95469
220 1 14.1554 4.70942 14.1556 -8.95206
221 1 15.7251 3.14298 12.5793 -8.94949
222 1 17.2985 4.71504 14.1526 -8.94989
223 1 18.8695 3.14403 12.5794 -8.94938
224 1 20.4415 4.71629 14.1522 -8.94958
225 1 -0.00157906 6.28828 12.5799 -8.94974
226 1 1.56791 7.85982 14.1545 -8.9511
227 1 3.13872 6.28501 12.5821 -8.94888
228 1 4.70226 7.84822 14.1668 -8.92702
229 1 6.27753 6.27328 12.5903 -8.94714
230 1 7.86195 7.85786 14.1599 -8.95193
231 1 9.43485 6.292 12.5779 -8.95289
232 1 11.005 7.85565 14.1615 -8.94178
233 1 12.5867 6.27222 12.5862 -8.96407
234 1 14.1777 7.83626 14.1779 -8.90129
235 1 15.7293 6.28465 12.5803 -8.94945
236 1 17.3044 7.85801 14.1558 -8.95227
237 1 18.8706 6.28816 12.5796 -8.94949
238 1 20.4422 7.86104 14.1529 -8.95103
239 1 22.0114 9.43388 12.5803 -8.95174
240 1 3.13176 9.43135 12.5838 -8.95587
241 1 6.24346 9.39442 12.6236 -8.82095
242 1 9.43552 9.43105 12.5692 -8.63712
243 1 12.6532 9.35958 12.6549 -8.70684
244 1 15.7441 9.42844 12.5867 -8.96024
245 1 18.8734 9.43364 12.5803 -8.95315
246 1 -0.000230849 6.79392e-17 15.7244 -8.94956
247 1 1.57192 1.5719 17.2972 -8.94932
248 1 3.14433 -1.17615e-16 15.7248 -8.94994
249 1 4.71719 1.57204 17.2971 -8.94975
250 1 6.28975 2.45686e-16 15.7246 -8.94957
251 1 7.86201 1.57197 17.2972 -8.9494
252 1 9.43451 2.39374e-16 15.7248 -8.9497
253 1 11.0069 1.57191 17.2972 -8.94945
254 1 12.5793 2.08527e-17 15.7246 -8.94962
255 1 14.1519 1.57189 17.2971 -8.94965
256 1 15.7246 1.5815e-15 15.7247 -8.95034
257 1 17.2972 1.5717 17.2973 -8.94954
258 1 18.8692 1.65213e-15 15.7244 -8.94965
259 1 20.4415 1.57211 17.2969 -8.94962
260 1 -0.000476291 3.1441 15.7247 -8.94955
261 1 1.57122 4.71582 17.2982 -8.9482
262 1 3.14338 3.14272 15.7259 -8.94887
263 1 4.71659 4.71593 17.2984 -8.95011
264 1 6.28977 3.14368 15.7251 -8.94981
265 1 7.86188 4.71606 17.298 -8.94844
266 1 9.43437 3.14338 15.7254 -8.94925
267 1 11.0067 4.71579 17.2981 -8.9486
268 1 12.5792 3.1432 15.7251 -8.94953
269 1 14.1524 4.71529 17.2986 -8.94991
270 1 15.7257 3.14207 15.7258 -8.94983
271 1 17.2989 4.71472 17.299 -8.94651
272 1 18.8696 3.14399 15.7246 -8.94974
273 1 20.4419 4.71636 17.2975 -8.94942
274 1 22.0129 6.28844 15.7256 -8.94999
275 1 1.57136 7.86147 17.2982 -8.94921
276 1 3.14028 6.28513 15.7293 -8.94416
277 1 4.71578 7.86072 17.3007 -8.95193
278 1 6.28847 6.28695 15.7285 -8.95102
279 1 7.86299 7.86197 17.2984 -8.95233
280 1 9.43383 6.28686 15.7275 -8.9429
281 1 11.0053 7.86112 17.2995 -8.95127
282 1 12.5799 6.28536 15.7291 -8.94932
283 1 14.1548 7.85873 17.304 -8.95313
284 1 15.7323 6.28125 15.7325 -8.93757
285 1 17.2988 7.86092 17.2991 -8.94912
286 1 18.8715 6.28779 15.726 -8.94993
287 1 20.4419 7.86168 17.2976 -8.94931
288 1 -0.000896032 9.43409 15.7257 -8.94922
289 1 3.14125 9.43331 15.7282 -8.9473
290 1 6.28721 9.43383 15.7325 -8.96159
291 1 9.43501 9.43824 15.7185 -8.95072
292 1 12.5847 9.43095 15.7408 -8.96641
293 1 15.7305 9.43247 15.7308 -8.9467
294 1 18.8713 9.43393 15.7261 -8.94906
295 1 22.0137 1.25173e-15 18.8693 -8.94936
296 1 1.57229 1.5722 20.4416 -8.94954
297 1 3.14476 -1.01895e-15 18.8693 -8.94972
298 1 4.71717 1.57224 20.4415 -8.94952
299 1 6.2896 -1.4716e-15 18.8693 -8.94948
300 1 7.86203 1.57218 20.4416 -8.94956
301 1 9.43449 -6.09931e-16 18.8694 -8.94956
302 1 11.007 1.57217 20.4416 -8.94956
303 1 12.5794 9.48603e-16 18.8693 -8.94949
304 1 14.1519 1.5722 20.4416 -8.94951
305 1 15.7243 1.80676e-15 18.8693 -8.94966
306 1 17.2968 1.57217 20.4416 -8.94966
307 1 18.8693 1.74947e-15 18.8694 -8.94943
308 1 20.4416 1.57221 20.4416 -8.94916
309 1 22.0137 3.14433 18.8696 -8.94916
310 1 1.57213 4.71691 20.4418 -8.94971
311 1 3.14453 3.14429 18.8696 -8.94974
312 1 4.71702 4.71684 20.4416 -8.94995
313 1 6.28956 3.14435 18.8695 -8.9493
314 1 7.86189 4.71662 20.4416 -8.94939
315 1 9.43442 3.14418 18.8696 -8.94953
316 1 11.0069 4.71655 20.4417 -8.94943
317 1 12.5794 3.14422 18.8696 -8.94931
318 1 14.1519 4.71663 20.4418 -8.94971
319 1 15.7245 3.14409 18.8697 -8.94976
320 1 17.2973 4.71648 20.442 -8.94952
321 1 18.8696 3.14409 18.8697 -8.94875
322 1 20.4416 4.717 20.4417 -8.94961
323 1 -0.000170477 6.28935 18.8697 -8.94954
324 1 1.57208 7.86192 20.4418 -8.9495
325 1 3.14412 6.28894 18.8705 -8.95004
326 1 4.71699 7.86197 20.4421 -8.95036
327 1 6.28967 6.28922 18.8701 -8.95037
328 1 7.86207 7.86192 20.4415 -8.95016
329 1 9.43416 6.28861 18.8704 -8.94932
330 1 11.0064 7.86169 20.4417 -8.95011
331 1 12.5791 6.28879 18.8705 -8.94985
332 1 14.1523 7.86142 20.4425 -8.95117
333 1 15.7257 6.28803 18.8715 -8.95015
334 1 17.2974 7.86171 20.442 -8.94939
335 1 18.8698 6.28916 18.8699 -8.94953
336 1 20.4417 7.86195 20.4417 -8.94954
337 1 22.0137 9.43441 18.8697 -8.94951
338 1 3.14401 9.43428 18.8705 -8.94934
339 1 6.28966 9.4347 18.8707 -8.95175
45 1 6.28952 9.43469 22.0136 -8.9499
5 1 6.2896 1.10081e-15 22.0137 -8.94956
9 1 12.5794 2.51512e-18 22.0138 -8.94956
39 1 15.7251 6.28875 22.0133 -8.95013
15 1 22.0138 3.14458 22.0138 -8.94958
17 1 3.1445 3.14443 22.0135 -8.94953
33 1 6.28933 6.28921 22.013 -8.95041
23 1 12.5795 3.14433 22.0136 -8.94941
31 1 3.14452 6.28949 22.0137 -8.95005
27 1 18.8694 3.1444 22.0138 -8.94928
29 1 22.0138 6.28952 22.0138 -8.94952
1 1 22.0138 9.39564e-16 22.0138 -8.94934
13 1 18.8692 1.32556e-15 22.0138 -8.94941
21 1 9.43449 3.1443 22.0136 -8.94952
43 1 22.0138 9.43446 22.0138 -8.94956
49 1 18.8696 9.43441 22.0137 -8.94953
344 1 1.57193 11.007 1.57173 -8.94955
345 1 4.71653 11.007 1.57113 -8.94992
346 1 7.86205 11.007 1.57217 -8.94685
347 1 11.0067 11.007 1.57029 -8.94885
348 1 14.1537 11.007 1.56904 -8.94959
349 1 17.2979 11.007 1.57132 -8.94948
350 1 20.4418 11.007 1.57194 -8.94953
538 1 17.2971 20.4421 11.0069 -8.94954
352 1 1.57199 14.152 1.57179 -8.94939
353 1 3.14437 12.5795 -0.000229195 -8.94967
354 1 4.71685 14.1517 1.57124 -8.95035
688 3 10.2323 11.007 9.53635 2.25704
356 1 7.86172 14.1523 1.56989 -8.95213
511 1 18.8695 18.8699 9.43438 -8.94948
358 1 11.0065 14.1526 1.56984 -8.95063
510 1 15.7252 18.8707 9.43422 -8.94937
360 1 14.1533 14.1532 1.56926 -8.95124
361 1 15.7253 12.5797 -0.000635477 -8.94948
362 1 17.2978 14.1524 1.57134 -8.94931
532 1 20.4414 17.2977 11.007 -8.94944
364 1 20.4418 14.152 1.57197 -8.94949
509 1 12.5793 18.8704 9.43468 -8.95011
366 1 1.57194 17.2971 1.57176 -8.94989
508 1 9.4344 18.8686 9.43488 -8.94452
368 1 4.71634 17.2977 1.57077 -8.94949
507 1 6.28817 18.8733 9.43485 -8.95148
370 1 7.86182 17.2977 1.57108 -8.94913
371 1 9.43429 15.725 -0.000805336 -8.94974
372 1 11.0071 17.2977 1.57121 -8.94921
373 1 12.5794 15.7249 -0.000701247 -8.94979
374 1 14.1523 17.2977 1.57129 -8.94978
506 1 3.14321 18.8712 9.43438 -8.94933
376 1 17.2977 17.2978 1.57143 -8.94872
505 1 22.0133 18.8699 9.43444 -8.94946
378 1 20.4417 17.297 1.57204 -8.94961
504 1 18.8703 15.7258 9.43409 -8.94921
380 1 1.57206 20.4418 1.57198 -8.94924
503 1 15.728 15.7282 9.43318 -8.94527
382 1 4.71703 20.4418 1.57195 -8.94959
502 1 12.58 15.7281 9.43337 -8.95438
384 1 7.86205 20.4419 1.57195 -8.94952
531 1 17.2981 17.2985 11.0067 -8.94889
386 1 11.007 20.4419 1.57197 -8.94953
501 1 9.42986 15.7132 9.43614 -9.01008
388 1 14.152 20.4418 1.57208 -8.94949
500 1 6.27948 15.7389 9.43377 -8.95514
390 1 17.2969 20.4419 1.57206 -8.94949
499 1 3.1385 15.7292 9.4334 -8.94715
392 1 20.4415 20.4417 1.5722 -8.94938
393 1 1.57091 11.007 4.71548 -8.94939
394 1 4.71436 11.007 4.71318 -8.94584
395 1 7.86425 11.007 4.72191 -8.93574
396 1 11.0096 11.007 4.71301 -8.98691
397 1 14.1605 11.007 4.70743 -8.94269
398 1 17.3003 11.007 4.71476 -8.94917
399 1 20.442 11.007 4.71622 -8.94974
400 1 -0.000262086 12.5795 3.14398 -8.94949
401 1 1.57097 14.1522 4.71568 -8.9495
402 1 3.14364 12.5795 3.143 -8.94883
403 1 4.71455 14.1527 4.71285 -8.95408
404 1 6.28944 12.5784 3.14299 -8.95087
405 1 7.85756 14.1575 4.70623 -8.95627
406 1 9.43405 12.5795 3.14283 -8.94906
407 1 11.0068 14.1554 4.70842 -8.95429
408 1 12.5819 12.5806 3.13667 -8.95698
409 1 14.1618 14.1612 4.70573 -8.93818
410 1 15.7273 12.5805 3.14136 -8.94812
411 1 17.3002 14.1536 4.71493 -8.95033
412 1 18.8703 12.5797 3.14376 -8.94936
413 1 20.4419 14.1523 4.71636 -8.94981
414 1 22.0136 15.7246 3.14412 -8.94974
415 1 1.57008 17.2986 4.71523 -8.94826
416 1 3.14351 15.725 3.14288 -8.95082
417 1 4.71318 17.3011 4.71262 -8.94417
418 1 6.28739 15.7268 3.14001 -8.95018
419 1 7.8612 17.3003 4.71425 -8.94844
420 1 9.4342 15.7267 3.14126 -8.94805
421 1 11.0075 17.2997 4.71468 -8.94717
422 1 12.5802 15.7265 3.14138 -8.94999
423 1 14.1545 17.301 4.71423 -8.94884
424 1 15.7276 15.7276 3.14113 -8.94649
425 1 17.2983 17.2984 4.71598 -8.94908
426 1 18.8702 15.725 3.14387 -8.94964
427 1 20.4413 17.2975 4.71655 -8.94971
428 1 22.0133 18.8697 3.14417 -8.94914
429 1 1.57179 20.4421 4.71673 -8.94962
430 1 3.14361 18.8704 3.14339 -8.94825
431 1 4.71652 20.4426 4.7163 -8.95002
432 1 6.28921 18.8703 3.14359 -8.94945
433 1 7.86205 20.4425 4.71639 -8.94949
434 1 9.43458 18.8703 3.14369 -8.94946
435 1 11.0073 20.4424 4.71646 -8.94938
436 1 12.5797 18.8702 3.1439 -8.94908
437 1 14.1522 20.4424 4.71683 -8.95047
438 1 15.7252 18.8705 3.14379 -8.9493
439 1 17.297 20.4419 4.71701 -8.94973
440 1 18.8694 18.8697 3.14435 -8.94943
441 1 20.4414 20.4418 4.71707 -8.94957
442 1 1.56865 11.007 7.85985 -8.94739
443 1 4.71108 11.007 7.85732 -8.93547
444 1 7.87636 11.007 7.89641 -8.91489
445 1 11.0692 11.007 7.69782 -8.22997
446 1 14.1658 11.007 7.85213 -8.95915
447 1 17.3015 11.007 7.8607 -8.95048
448 1 20.4417 11.007 7.86126 -8.94977
449 1 -0.00106439 12.5796 6.28841 -8.94941
450 1 1.56658 14.1541 7.8597 -8.9528
451 1 3.14115 12.5795 6.28631 -8.94799
452 1 4.69611 14.1673 7.84738 -8.94045
453 1 6.28636 12.5766 6.28365 -8.96407
454 1 7.8217 14.1924 7.82222 -8.83934
455 1 9.42256 12.5951 6.28621 -8.93249
456 1 11.0249 14.1677 7.83212 -8.8867
457 1 12.6096 12.6022 6.25616 -8.89742
458 1 14.165 14.1623 7.85295 -8.94154
459 1 15.7334 12.5818 6.28464 -8.95444
460 1 17.3009 14.154 7.86071 -8.95109
461 1 18.8714 12.5799 6.28852 -8.95074
462 1 20.4413 14.1527 7.86136 -8.95061
463 1 22.0121 15.7256 6.28838 -8.95037
464 1 1.57026 17.2987 7.86128 -8.94899
465 1 3.13732 15.73 6.28383 -8.94597
466 1 4.71319 17.3029 7.8598 -8.95009
467 1 6.27662 15.7382 6.27583 -8.92731
468 1 7.86051 17.3051 7.86047 -8.96074
469 1 9.43391 15.7331 6.28298 -8.94509
470 1 11.0056 17.2993 7.86179 -8.95519
471 1 12.5862 15.7349 6.28117 -8.94716
472 1 14.153 17.3 7.86147 -8.95078
473 1 15.7291 15.7287 6.28615 -8.94757
474 1 17.2979 17.2983 7.86155 -8.9488
475 1 18.8703 15.7255 6.28878 -8.95006
476 1 20.4413 17.2976 7.86174 -8.94936
477 1 -0.000607146 18.8698 6.28929 -8.94944
478 1 1.57175 20.4421 7.8619 -8.94949
479 1 3.14322 18.8713 6.28848 -8.94974
480 1 4.71642 20.443 7.86175 -8.95011
481 1 6.28839 18.873 6.288 -8.95165
482 1 7.86227 20.4431 7.86203 -8.9516
483 1 9.43481 18.8721 6.28818 -8.94993
484 1 11.0068 20.4421 7.86223 -8.94991
485 1 12.5796 18.8715 6.28917 -8.95219
486 1 14.1521 20.4423 7.86208 -8.95001
487 1 15.725 18.8706 6.28926 -8.94997
488 1 17.2971 20.442 7.86194 -8.94948
489 1 18.8694 18.8698 6.28941 -8.94943
490 1 20.4414 20.4418 7.86199 -8.94954
491 1 22.0111 12.58 9.43379 -8.95095
492 1 3.13238 12.5826 9.43087 -8.95474
493 1 6.24854 12.6252 9.39738 -8.86235
494 1 9.37168 12.8199 9.40671 -7.80679
495 1 12.5966 12.602 9.40044 -8.83769
496 1 15.7319 12.5819 9.4317 -8.94773
497 1 18.8713 12.5802 9.43384 -8.94953
498 1 -0.00180491 15.7257 9.43414 -8.94953
526 1 1.5703 17.2986 11.0072 -8.94914
527 1 4.7129 17.3022 11.0081 -8.94704
534 1 4.7163 20.443 11.0073 -8.94968
389 1 15.7245 18.8695 -0.000216484 -8.94969
377 1 18.8695 15.7245 -0.000159963 -8.94952
383 1 6.28951 18.8695 -0.000333652 -8.94943
512 1 1.56541 11.007 11.0071 -8.95231
513 1 4.69292 11.007 11.0071 -9.01943
514 1 7.49753 11.007 11.0233 -7.88732
515 1 11.4212 11.007 11.1821 -7.1553
516 1 14.182 11.007 11.0171 -9.02048
517 1 17.3048 11.007 11.0068 -8.95439
518 1 20.4418 11.007 11.0068 -8.95072
519 1 1.56665 14.1541 11.0071 -8.95115
520 1 4.69848 14.1612 11.0088 -8.95127
521 1 7.81604 14.1669 11.0364 -8.86659
522 1 11.0353 14.1452 11.0254 -8.89869
523 1 14.1652 14.1588 11.0046 -8.94758
524 1 17.3016 14.1543 11.0063 -8.94968
525 1 20.4415 14.1529 11.0068 -8.9503
687 3 9.45599 11.007 10.942 2.28376
391 1 18.8694 18.8695 22.0138 -8.94928
528 1 7.86047 17.3002 11.0079 -8.95369
529 1 11.0059 17.2957 11.0063 -8.94741
530 1 14.1537 17.3002 11.0061 -8.94794
686 1 20.4416 20.4417 20.4416 -8.94916
685 1 18.8696 18.8698 18.8697 -8.94875
533 1 1.57173 20.4421 11.0071 -8.9495
387 1 12.5795 18.8696 22.0136 -8.94941
535 1 7.86242 20.4425 11.0071 -8.95
536 1 11.0066 20.4417 11.0068 -8.94859
537 1 14.1522 20.4424 11.0068 -8.9497
684 1 17.2968 20.4417 20.4416 -8.94966
539 1 20.4414 20.4418 11.007 -8.94956
540 1 1.56788 11.007 14.1546 -8.94914
541 1 4.70494 11.007 14.1609 -8.93968
542 1 7.85272 11.007 14.1379 -8.95356
543 1 11.0258 11.007 14.1448 -8.98758
544 1 14.1693 11.007 14.1664 -8.93767
545 1 17.3037 11.007 14.1558 -8.94807
546 1 20.4422 11.007 14.1532 -8.95019
547 1 22.0114 12.58 12.5803 -8.95174
548 1 1.56791 14.1541 14.1545 -8.9511
549 1 3.13176 12.5826 12.5838 -8.95587
550 1 4.70226 14.1657 14.1668 -8.92702
551 1 6.24346 12.6195 12.6236 -8.82095
552 1 7.86195 14.156 14.1599 -8.95193
553 1 9.43552 12.5829 12.5692 -8.63712
554 1 11.005 14.1583 14.1615 -8.94178
555 1 12.6532 12.6543 12.6549 -8.70684
556 1 14.1777 14.1776 14.1779 -8.90129
557 1 15.7441 12.5855 12.5867 -8.96024
558 1 17.3044 14.1559 14.1558 -8.95227
559 1 18.8734 12.5803 12.5803 -8.95315
560 1 20.4422 14.1529 14.1529 -8.95103
561 1 -0.00157906 15.7256 12.5799 -8.94974
562 1 1.57047 17.2986 14.1531 -8.94943
563 1 3.13872 15.7289 12.5821 -8.94888
564 1 4.71304 17.3032 14.1564 -8.94791
565 1 6.27753 15.7406 12.5903 -8.94714
566 1 7.86288 17.2986 14.153 -8.95016
567 1 9.43485 15.7219 12.5779 -8.95289
568 1 11.0058 17.2994 14.1534 -8.94926
569 1 12.5867 15.7417 12.5862 -8.96407
570 1 14.1554 17.3045 14.1556 -8.95206
571 1 15.7293 15.7292 12.5803 -8.94945
572 1 17.2985 17.2989 14.1526 -8.94989
573 1 18.8706 15.7257 12.5796 -8.94949
574 1 20.4415 17.2976 14.1522 -8.94958
575 1 22.0133 18.8699 12.5796 -8.94941
576 1 1.57183 20.4421 14.1522 -8.94948
577 1 3.1433 18.8712 12.5801 -8.94907
578 1 4.71664 20.4429 14.1526 -8.95078
579 1 6.28882 18.8729 12.5804 -8.95341
580 1 7.86236 20.4422 14.1523 -8.94946
581 1 9.43473 18.8696 12.5796 -8.94806
582 1 11.0068 20.4423 14.1523 -8.94965
583 1 12.5793 18.8724 12.5794 -8.95469
584 1 14.1522 20.443 14.1522 -8.95137
585 1 15.7251 18.8709 12.5793 -8.94949
586 1 17.2971 20.4421 14.1519 -8.94964
587 1 18.8695 18.8699 12.5794 -8.94938
588 1 20.4415 20.4418 14.1519 -8.94952
589 1 1.57128 11.007 17.2982 -8.94945
590 1 4.71511 11.007 17.3004 -8.94882
591 1 7.86253 11.007 17.2952 -8.94437
592 1 11.0064 11.007 17.2976 -8.94498
593 1 14.1555 11.007 17.3031 -8.94758
594 1 17.2989 11.007 17.2991 -8.94906
595 1 20.4419 11.007 17.2977 -8.94945
596 1 -0.000896032 12.5798 15.7257 -8.94922
597 1 1.57136 14.1524 17.2982 -8.94921
598 1 3.14125 12.5806 15.7282 -8.9473
599 1 4.71578 14.1532 17.3007 -8.95193
600 1 6.28721 12.5801 15.7325 -8.96159
601 1 7.86299 14.1519 17.2984 -8.95233
602 1 9.43501 12.5757 15.7185 -8.95072
603 1 11.0053 14.1528 17.2995 -8.95127
604 1 12.5847 12.583 15.7408 -8.96641
605 1 14.1548 14.1552 17.304 -8.95313
606 1 15.7305 12.5814 15.7308 -8.9467
607 1 17.2988 14.153 17.2991 -8.94912
608 1 18.8713 12.58 15.7261 -8.94906
609 1 20.4419 14.1522 17.2976 -8.94931
610 1 22.0129 15.7255 15.7256 -8.94999
611 1 1.57122 17.2981 17.2982 -8.9482
612 1 3.14028 15.7288 15.7293 -8.94416
613 1 4.71659 17.298 17.2984 -8.95011
614 1 6.28847 15.7269 15.7285 -8.95102
615 1 7.86188 17.2978 17.298 -8.94844
616 1 9.43383 15.727 15.7275 -8.9429
617 1 11.0067 17.2981 17.2981 -8.9486
618 1 12.5799 15.7285 15.7291 -8.94932
619 1 14.1524 17.2986 17.2986 -8.94991
620 1 15.7323 15.7327 15.7325 -8.93757
621 1 17.2989 17.2992 17.299 -8.94651
622 1 18.8715 15.7261 15.726 -8.94993
623 1 20.4419 17.2975 17.2975 -8.94942
624 1 -0.000476291 18.8698 15.7247 -8.94955
625 1 1.57192 20.442 17.2972 -8.94932
626 1 3.14338 18.8712 15.7259 -8.94887
627 1 4.71719 20.4419 17.2971 -8.94975
628 1 6.28977 18.8702 15.7251 -8.94981
629 1 7.86201 20.4419 17.2972 -8.9494
630 1 9.43437 18.8705 15.7254 -8.94925
631 1 11.0069 20.442 17.2972 -8.94945
632 1 12.5792 18.8707 15.7251 -8.94953
633 1 14.1519 20.442 17.2971 -8.94965
634 1 15.7257 18.8718 15.7258 -8.94983
635 1 17.2972 20.4422 17.2973 -8.94954
636 1 18.8696 18.8699 15.7246 -8.94974
637 1 20.4415 20.4418 17.2969 -8.94962
638 1 1.57204 11.007 20.4418 -8.94955
639 1 4.71677 11.007 20.4422 -8.95004
640 1 7.86213 11.007 20.4413 -8.94837
641 1 11.0063 11.007 20.4416 -8.94884
642 1 14.1526 11.007 20.4424 -8.95028
643 1 17.2975 11.007 20.442 -8.94949
644 1 20.4417 11.007 20.4417 -8.94956
645 1 22.0137 12.5795 18.8697 -8.94951
646 1 1.57208 14.152 20.4418 -8.9495
647 1 3.14401 12.5796 18.8705 -8.94934
648 1 4.71699 14.1519 20.4421 -8.95036
649 1 6.28966 12.5792 18.8707 -8.95175
650 1 7.86207 14.152 20.4415 -8.95016
651 1 9.43417 12.5792 18.8686 -8.94721
652 1 11.0064 14.1522 20.4417 -8.95011
653 1 12.5794 12.5796 18.8725 -8.95361
654 1 14.1523 14.1525 20.4425 -8.95117
655 1 15.7257 12.5799 18.8714 -8.94916
656 1 17.2974 14.1522 20.442 -8.94939
657 1 18.8698 12.5796 18.8699 -8.94939
658 1 20.4417 14.1519 20.4417 -8.94954
659 1 -0.000170477 15.7245 18.8697 -8.94954
660 1 1.57213 17.297 20.4418 -8.94971
661 1 3.14412 15.725 18.8705 -8.95004
662 1 4.71702 17.2971 20.4416 -8.94995
663 1 6.28967 15.7247 18.8701 -8.95037
664 1 7.86189 17.2973 20.4416 -8.94939
665 1 9.43416 15.7253 18.8704 -8.94932
666 1 11.0069 17.2973 20.4417 -8.94943
667 1 12.5791 15.7251 18.8705 -8.94985
668 1 14.1519 17.2973 20.4418 -8.94971
669 1 15.7257 15.7259 18.8715 -8.95015
670 1 17.2973 17.2974 20.442 -8.94952
671 1 18.8698 15.7247 18.8699 -8.94953
672 1 20.4416 17.2969 20.4417 -8.94961
673 1 22.0137 18.8696 18.8696 -8.94916
674 1 1.57229 20.4417 20.4416 -8.94954
675 1 3.14453 18.8696 18.8696 -8.94974
676 1 4.71717 20.4417 20.4415 -8.94952
677 1 6.28956 18.8696 18.8695 -8.9493
678 1 7.86203 20.4417 20.4416 -8.94956
679 1 9.43442 18.8697 18.8696 -8.94953
680 1 11.007 20.4417 20.4416 -8.94956
681 1 12.5794 18.8697 18.8696 -8.94931
682 1 14.1519 20.4417 20.4416 -8.94951
683 1 15.7245 18.8698 18.8697 -8.94976
355 1 6.28952 12.5792 22.0136 -8.9499
357 1 9.4342 12.5794 22.0131 -8.94882
359 1 12.5795 12.5796 22.0126 -8.95158
365 1 22.0138 15.7244 22.0138 -8.94952
367 1 3.14452 15.7244 22.0137 -8.95005
369 1 6.28933 15.7247 22.013 -8.95041
375 1 15.7251 15.7251 22.0133 -8.95013
381 1 3.1445 18.8695 22.0135 -8.94953
379 1 22.0138 18.8693 22.0138 -8.94958
351 1 22.0138 12.5794 22.0138 -8.94956
363 1 18.8696 12.5795 22.0137 -8.94953
385 1 9.43449 18.8696 22.0136 -8.94952
