ITEM: TIMESTEP
110
ITEM: NUMBER OF ATOMS
688
ITEM: BOX BOUNDS pp pp pp
0.0000000000000000e+00 2.2013900999999997e+01
0.0000000000000000e+00 2.2013900999999997e+01
0.0000000000000000e+00 2.2013900999999997e+01
ITEM: ATOMS id type x y z c_pot
189 1 20.4414 4.71612 11.007 -8.94943
2 1 1.57202 1.57209 1.57194 -8.94922
175 1 18.8714 9.43366 9.43381 -8.94952
4 1 4.717 1.57204 1.5719 -8.94958
174 1 15.732 9.43198 9.43169 -8.94774
6 1 7.86204 1.57202 1.57191 -8.94951
7 1 9.43452 1.07362e-15 -0.000176211 -8.94957
8 1 11.0071 1.57201 1.57193 -8.94952
173 1 12.5967 9.41205 9.40069 -8.83847
10 1 14.152 1.57204 1.57205 -8.94948
172 1 9.3722 9.19368 9.40645 -7.80645
12 1 17.297 1.57199 1.57203 -8.94948
188 1 17.2982 4.71531 11.0067 -8.94888
14 1 20.4415 1.57214 1.57218 -8.94936
171 1 6.2485 9.38865 9.39746 -8.86231
16 1 1.5719 4.71679 1.57171 -8.9499
170 1 3.13222 9.43123 9.4308 -8.95466
18 1 4.71629 4.71616 1.57069 -8.9495
169 1 22.011 9.43391 9.43374 -8.95094
20 1 7.8618 4.71613 1.57101 -8.94913
183 1 1.57019 4.7152 11.0073 -8.94913
22 1 11.0071 4.7161 1.57115 -8.9492
168 1 18.8704 6.288 9.43406 -8.94921
24 1 14.1523 4.7161 1.57122 -8.94979
167 1 15.7281 6.28557 9.43312 -8.94523
26 1 17.2978 4.71605 1.57139 -8.94872
166 1 12.5801 6.28584 9.43335 -8.95426
28 1 20.4417 4.71686 1.572 -8.9496
165 1 9.42987 6.30087 9.43611 -9.0102
30 1 1.57197 7.86193 1.57174 -8.94939
164 1 6.27927 6.27488 9.43375 -8.95511
32 1 4.71683 7.86218 1.5712 -8.95037
163 1 3.13829 6.28453 9.43334 -8.94713
34 1 7.86171 7.86159 1.56984 -8.95215
35 1 9.43427 6.28883 -0.000844242 -8.94974
36 1 11.0065 7.86125 1.56978 -8.95066
37 1 12.5794 6.28894 -0.000735505 -8.94981
38 1 14.1533 7.86062 1.56919 -8.95124
162 1 -0.00189027 6.28807 9.43411 -8.94953
40 1 17.2979 7.86143 1.57128 -8.9493
161 1 18.8695 3.14395 9.43437 -8.94947
42 1 20.4418 7.86187 1.57192 -8.94948
181 1 17.2972 1.57181 11.0069 -8.94953
44 1 3.14434 9.43444 -0.000237265 -8.94967
160 1 15.7252 3.14311 9.4342 -8.94937
159 1 12.5793 3.14353 9.43467 -8.95011
158 1 9.43437 3.14538 9.43489 -8.94448
48 1 15.7253 9.43414 -0.00065432 -8.94948
157 1 6.2881 3.14049 9.43485 -8.95151
50 1 22.0136 1.50719e-15 3.14453 -8.94955
51 1 1.57174 1.57179 4.71668 -8.94961
52 1 3.14431 9.67365e-16 3.14419 -8.94957
53 1 4.71648 1.5712 4.71624 -8.95003
54 1 6.28951 1.76883e-15 3.14421 -8.94948
55 1 7.86204 1.57131 4.71634 -8.9495
56 1 9.43462 1.16544e-15 3.1442 -8.94952
57 1 11.0073 1.57144 4.71642 -8.94938
58 1 12.5796 9.92382e-16 3.14432 -8.94941
59 1 14.1522 1.57147 4.7168 -8.95049
60 1 15.7245 3.55617e-17 3.14447 -8.94993
61 1 17.297 1.57192 4.71699 -8.94973
62 1 18.8692 -5.3263e-16 3.14464 -8.94965
63 1 20.4414 1.57211 4.71703 -8.94956
64 1 22.0133 3.14412 3.14411 -8.94913
65 1 1.56998 4.71518 4.71512 -8.94825
66 1 3.14354 3.14346 3.1433 -8.94823
67 1 4.71306 4.71262 4.71247 -8.94415
68 1 6.28917 3.14348 3.14351 -8.94944
69 1 7.86113 4.71352 4.71414 -8.94842
70 1 9.43458 3.14351 3.14362 -8.94945
71 1 11.0075 4.71412 4.71459 -8.94715
72 1 12.5797 3.14359 3.14385 -8.94907
73 1 14.1546 4.71279 4.7141 -8.9488
74 1 15.7252 3.14328 3.14372 -8.94929
75 1 17.2983 4.71541 4.7159 -8.94909
76 1 18.8695 3.14412 3.1443 -8.94942
77 1 20.4413 4.71636 4.71649 -8.94971
78 1 22.0136 6.28929 3.14405 -8.94974
79 1 1.57091 7.86167 4.71559 -8.9495
80 1 3.14345 6.28883 3.14278 -8.95085
81 1 4.71446 7.86118 4.71276 -8.95412
82 1 6.28731 6.28703 3.13989 -8.95018
83 1 7.85747 7.85631 4.70614 -8.95629
84 1 9.43418 6.28709 3.14116 -8.94805
85 1 11.0069 7.85847 4.70828 -8.95436
86 1 12.5803 6.28736 3.14125 -8.95002
87 1 14.1619 7.85268 4.7056 -8.93823
88 1 15.7277 6.28622 3.14103 -8.9465
89 1 17.3003 7.86025 4.71483 -8.95032
90 1 18.8703 6.2888 3.1438 -8.94964
91 1 20.442 7.8616 4.71629 -8.94981
92 1 -0.000271712 9.43438 3.14392 -8.94948
93 1 3.1436 9.43437 3.14294 -8.94883
94 1 6.28943 9.43552 3.14299 -8.95087
95 1 9.43403 9.43437 3.14284 -8.94905
96 1 12.582 9.43328 3.13658 -8.95696
97 1 15.7275 9.43336 3.14124 -8.94811
98 1 18.8703 9.4342 3.14369 -8.94935
99 1 22.0136 1.1963e-15 6.28949 -8.94953
100 1 1.5717 1.57175 7.86187 -8.94948
101 1 3.14415 1.06145e-15 6.28923 -8.94978
102 1 4.71637 1.57082 7.86173 -8.95013
103 1 6.28945 1.0404e-15 6.28919 -8.9507
104 1 7.86227 1.57077 7.86203 -8.95161
105 1 9.43479 1.48987e-15 6.28913 -8.95029
106 1 11.0068 1.57176 7.86224 -8.94992
107 1 12.5795 7.60843e-16 6.28958 -8.95039
108 1 14.1521 1.57159 7.86208 -8.95001
109 1 15.7245 -5.84707e-16 6.28955 -8.94984
110 1 17.2971 1.57186 7.86192 -8.94948
111 1 18.8692 1.80549e-15 6.28953 -8.94952
112 1 20.4414 1.57205 7.86197 -8.94953
113 1 -0.000657471 3.14399 6.28924 -8.94943
114 1 1.57014 4.71513 7.86121 -8.94897
115 1 3.14313 3.14253 6.2884 -8.94974
116 1 4.71304 4.71088 7.85972 -8.95007
117 1 6.28833 3.14079 6.28793 -8.95166
118 1 7.86044 4.70878 7.86044 -8.96079
119 1 9.43479 3.1417 6.28813 -8.94994
120 1 11.0056 4.71465 7.86175 -8.95528
121 1 12.5796 3.14237 6.28914 -8.95223
122 1 14.153 4.71384 7.86141 -8.95075
123 1 15.725 3.14324 6.28923 -8.94998
124 1 17.298 4.71548 7.8615 -8.94878
125 1 18.8694 3.14408 6.28937 -8.94942
126 1 20.4413 4.71617 7.8617 -8.94935
127 1 22.012 6.28827 6.2883 -8.95038
128 1 1.56644 7.85967 7.85961 -8.9528
129 1 3.13716 6.28379 6.28369 -8.94598
130 1 4.69592 7.84648 7.84729 -8.94052
131 1 6.27644 6.27553 6.27568 -8.92727
132 1 7.82155 7.82136 7.82214 -8.83929
133 1 9.43386 6.28069 6.28285 -8.94506
134 1 11.0252 7.84606 7.83183 -8.88643
135 1 12.5863 6.27886 6.28094 -8.94701
136 1 14.1651 7.85163 7.85286 -8.94175
137 1 15.7293 6.28507 6.28603 -8.94761
138 1 17.301 7.85987 7.86065 -8.95112
139 1 18.8704 6.28835 6.28872 -8.95007
140 1 20.4413 7.86112 7.8613 -8.95061
141 1 -0.00110175 9.43424 6.28834 -8.9494
142 1 3.14107 9.43434 6.28624 -8.94799
143 1 6.28631 9.43731 6.28371 -8.96409
144 1 9.42256 9.41871 6.28623 -8.93269
145 1 12.6096 9.41178 6.25613 -8.89757
146 1 15.7335 9.43204 6.28451 -8.95441
147 1 18.8714 9.43402 6.28844 -8.95074
148 1 -0.000334536 9.30899e-16 9.43449 -8.94955
149 1 3.14405 -2.06413e-16 9.4345 -8.94961
150 1 6.28934 1.02163e-15 9.4347 -8.95073
151 1 9.43474 1.45942e-15 9.43461 -8.94775
152 1 12.5794 7.4316e-16 9.4346 -8.94976
153 1 15.7247 -4.93464e-16 9.4344 -8.94971
154 1 18.8693 1.05604e-15 9.43446 -8.94956
155 1 22.0133 3.14392 9.43443 -8.94945
156 1 3.14312 3.14257 9.43436 -8.94933
177 1 4.71625 1.57086 11.0073 -8.94969
184 1 4.71274 4.7116 11.0081 -8.94702
3 1 3.14471 9.43547e-16 -0.000181489 -8.94959
11 1 15.7243 -9.465e-17 -0.000108563 -8.94956
41 1 18.8696 6.28931 -0.000168081 -8.94951
19 1 6.28949 3.14434 -0.000364867 -8.94942
25 1 15.7245 3.14431 -0.000232244 -8.94968
176 1 1.57168 1.57176 11.0071 -8.94949
47 1 12.5795 9.43434 22.0126 -8.95158
178 1 7.86242 1.57146 11.0071 -8.94997
179 1 11.0066 1.5722 11.0068 -8.94856
180 1 14.1523 1.57143 11.0068 -8.94971
343 1 18.8699 9.43432 18.87 -8.94937
182 1 20.4414 1.57204 11.007 -8.94955
342 1 15.7258 9.43396 18.8715 -8.94916
46 1 9.43419 9.4345 22.0131 -8.94878
185 1 7.8604 4.71375 11.0079 -8.95368
186 1 11.0059 4.71827 11.0063 -8.94746
187 1 14.1538 4.71367 11.0061 -8.94793
341 1 12.5794 9.43432 18.8725 -8.95364
340 1 9.43418 9.43477 18.8685 -8.94716
190 1 1.56648 7.85973 11.007 -8.95116
191 1 4.69816 7.85257 11.0088 -8.95123
192 1 7.81583 7.84715 11.0364 -8.86666
193 1 11.0356 7.86869 11.0256 -8.89849
194 1 14.1656 7.85498 11.0046 -8.94753
195 1 17.3017 7.85954 11.0063 -8.94972
196 1 20.4414 7.86094 11.0068 -8.95032
197 1 22.0136 -9.27694e-17 12.5795 -8.94954
198 1 1.57178 1.57178 14.1522 -8.94947
199 1 3.14411 -7.9119e-16 12.5798 -8.94953
200 1 4.71661 1.57094 14.1527 -8.95081
201 1 6.28964 1.56998e-15 12.5797 -8.95098
202 1 7.86237 1.57174 14.1523 -8.94945
203 1 9.4347 1.32587e-15 12.5796 -8.94905
204 1 11.0068 1.5716 14.1523 -8.94965
205 1 12.5793 -3.82634e-16 12.5793 -8.95099
206 1 14.1522 1.57086 14.1522 -8.95141
207 1 15.7246 7.91526e-16 12.5794 -8.94966
208 1 17.2971 1.57178 14.1519 -8.94964
209 1 18.8693 1.71133e-15 12.5794 -8.94953
210 1 20.4414 1.57206 14.1519 -8.94951
211 1 22.0133 3.14395 12.5796 -8.94939
212 1 1.57038 4.71523 14.1532 -8.94942
213 1 3.14322 3.14262 12.5802 -8.94906
214 1 4.71292 4.7106 14.1565 -8.94794
215 1 6.28878 3.14091 12.5805 -8.95344
216 1 7.86285 4.71532 14.1531 -8.95015
217 1 9.43472 3.1444 12.5796 -8.94805
218 1 11.0058 4.71447 14.1534 -8.94926
219 1 12.5793 3.14145 12.5794 -8.95474
220 1 14.1555 4.70923 14.1557 -8.95205
221 1 15.7252 3.14289 12.5793 -8.94949
222 1 17.2986 4.7149 14.1527 -8.94988
223 1 18.8695 3.14396 12.5794 -8.94937
224 1 20.4415 4.7162 14.1522 -8.94958
225 1 -0.00165141 6.28819 12.58 -8.94975
226 1 1.56776 7.85971 14.1546 -8.95111
227 1 3.13852 6.28486 12.5821 -8.94886
228 1 4.70197 7.84802 14.1671 -8.92687
229 1 6.27733 6.27319 12.5904 -8.94723
230 1 7.86186 7.85788 14.1599 -8.9519
231 1 9.43482 6.29212 12.5779 -8.95287
232 1 11.0051 7.85566 14.1615 -8.94188
233 1 12.587 6.27207 12.5864 -8.96402
234 1 14.178 7.83602 14.1782 -8.90118
235 1 15.7295 6.28448 12.5804 -8.94944
236 1 17.3046 7.85786 14.156 -8.95228
237 1 18.8707 6.28806 12.5796 -8.9495
238 1 20.4423 7.86096 14.153 -8.95105
239 1 22.0113 9.43384 12.5803 -8.95178
240 1 3.13145 9.43126 12.5839 -8.95591
241 1 6.24294 9.39424 12.6239 -8.8207
242 1 9.43539 9.43107 12.5689 -8.63799
243 1 12.6537 9.35945 12.655 -8.70685
244 1 15.7445 9.42835 12.5869 -8.96028
245 1 18.8735 9.43359 12.5804 -8.9532
246 1 -0.000254676 4.02598e-17 15.7245 -8.94955
247 1 1.57189 1.57186 17.2973 -8.94931
248 1 3.1443 -4.16976e-17 15.7249 -8.94996
249 1 4.71718 1.57201 17.2971 -8.94975
250 1 6.28975 3.97596e-16 15.7247 -8.94957
251 1 7.862 1.57194 17.2972 -8.94939
252 1 9.43451 4.76593e-16 15.7248 -8.94969
253 1 11.0069 1.57189 17.2972 -8.94944
254 1 12.5793 -6.681e-17 15.7247 -8.94962
255 1 14.1519 1.57185 17.2971 -8.94966
256 1 15.7247 1.33816e-15 15.7247 -8.95037
257 1 17.2972 1.57165 17.2973 -8.94953
258 1 18.8693 1.74631e-15 15.7244 -8.94965
259 1 20.4415 1.57208 17.2969 -8.94961
260 1 -0.000506141 3.14403 15.7248 -8.94954
261 1 1.57116 4.71573 17.2983 -8.94817
262 1 3.14331 3.14262 15.726 -8.94887
263 1 4.71656 4.71585 17.2985 -8.95013
264 1 6.28976 3.14362 15.7251 -8.94981
265 1 7.86187 4.71603 17.298 -8.94843
266 1 9.43436 3.14335 15.7254 -8.94925
267 1 11.0066 4.71574 17.2982 -8.94859
268 1 12.5792 3.14313 15.7251 -8.94953
269 1 14.1524 4.71517 17.2987 -8.94992
270 1 15.7258 3.14194 15.7259 -8.94983
271 1 17.299 4.71458 17.2992 -8.94647
272 1 18.8696 3.1439 15.7247 -8.94974
273 1 20.4419 4.71627 17.2976 -8.9494
274 1 22.0129 6.28834 15.7257 -8.95
275 1 1.57131 7.86141 17.2983 -8.94919
276 1 3.14014 6.28498 15.7294 -8.9441
277 1 4.71572 7.86066 17.3008 -8.95194
278 1 6.28842 6.28689 15.7285 -8.95104
279 1 7.86301 7.862 17.2983 -8.95237
280 1 9.43383 6.28686 15.7275 -8.94289
281 1 11.0053 7.86111 17.2995 -8.9513
282 1 12.58 6.28525 15.7292 -8.94934
283 1 14.1549 7.85862 17.3042 -8.95316
284 1 15.7325 6.28103 15.7327 -8.93749
285 1 17.2989 7.86082 17.2992 -8.9491
286 1 18.8716 6.28767 15.7262 -8.94993
287 1 20.4419 7.86162 17.2977 -8.9493
288 1 -0.000934061 9.43406 15.7258 -8.94922
289 1 3.1411 9.43325 15.7284 -8.94726
290 1 6.28709 9.4338 15.7325 -8.9616
291 1 9.43511 9.43832 15.7182 -8.95076
292 1 12.5849 9.43092 15.7409 -8.96648
293 1 15.7307 9.43237 15.731 -8.94664
294 1 18.8714 9.43388 15.7262 -8.94905
295 1 22.0137 1.51778e-15 18.8693 -8.94934
296 1 1.57228 1.57218 20.4416 -8.94954
297 1 3.14475 -9.11407e-16 18.8693 -8.94972
298 1 4.71716 1.57222 20.4415 -8.94951
299 1 6.28959 -1.79659e-15 18.8693 -8.94947
300 1 7.86202 1.57216 20.4416 -8.94955
301 1 9.43448 -4.08999e-16 18.8694 -8.94955
302 1 11.007 1.57214 20.4416 -8.94955
303 1 12.5794 7.29761e-16 18.8694 -8.94948
304 1 14.1519 1.57217 20.4416 -8.9495
305 1 15.7243 1.8017e-15 18.8693 -8.94966
306 1 17.2968 1.57213 20.4416 -8.94965
307 1 18.8693 1.81465e-15 18.8694 -8.94941
308 1 20.4416 1.57218 20.4417 -8.94913
309 1 22.0137 3.14428 18.8696 -8.94914
310 1 1.57211 4.71688 20.4418 -8.94971
311 1 3.14451 3.14424 18.8696 -8.94975
312 1 4.717 4.71681 20.4416 -8.94997
313 1 6.28955 3.14431 18.8695 -8.94929
314 1 7.86188 4.71658 20.4416 -8.94939
315 1 9.43441 3.14414 18.8696 -8.94952
316 1 11.0069 4.7165 20.4417 -8.94942
317 1 12.5794 3.14417 18.8696 -8.9493
318 1 14.1519 4.71658 20.4418 -8.94972
319 1 15.7246 3.14402 18.8697 -8.94976
320 1 17.2974 4.71641 20.442 -8.94951
321 1 18.8697 3.14402 18.8698 -8.94871
322 1 20.4417 4.71696 20.4417 -8.9496
323 1 -0.000176819 6.28931 18.8697 -8.94953
324 1 1.57206 7.8619 20.4419 -8.94949
325 1 3.14408 6.28889 18.8706 -8.95005
326 1 4.71698 7.86196 20.4421 -8.95037
327 1 6.28968 6.28921 18.8701 -8.9504
328 1 7.86208 7.86193 20.4414 -8.95016
329 1 9.43415 6.28858 18.8704 -8.94932
330 1 11.0064 7.86168 20.4417 -8.95012
331 1 12.5791 6.28874 18.8706 -8.94986
332 1 14.1523 7.86138 20.4425 -8.9512
333 1 15.7257 6.28793 18.8716 -8.95016
334 1 17.2975 7.86166 20.442 -8.94938
335 1 18.8698 6.28909 18.8699 -8.94951
336 1 20.4417 7.86193 20.4417 -8.94952
337 1 22.0137 9.43439 18.8698 -8.9495
338 1 3.14397 9.43426 18.8706 -8.94934
339 1 6.28966 9.4347 18.8707 -8.95177
45 1 6.28952 9.43469 22.0136 -8.94989
5 1 6.28959 1.11877e-15 22.0137 -8.94954
9 1 12.5795 7.62402e-17 22.0137 -8.94955
39 1 15.7251 6.28869 22.0133 -8.95014
15 1 22.0138 3.14455 22.0138 -8.94957
17 1 3.14448 3.14439 22.0135 -8.94953
33 1 6.28931 6.28919 22.0129 -8.95043
23 1 12.5795 3.14428 22.0136 -8.9494
31 1 3.14449 6.28947 22.0137 -8.95007
27 1 18.8695 3.14435 22.0138 -8.94927
29 1 22.0138 6.2895 22.0138 -8.94951
1 1 22.0138 8.38019e-16 22.0138 -8.94931
13 1 18.8692 1.48597e-15 22.0138 -8.94939
21 1 9.43449 3.14426 22.0136 -8.94951
43 1 22.0138 9.43445 22.0138 -8.94955
49 1 18.8696 9.43439 22.0137 -8.94951
344 1 1.5719 11.007 1.57169 -8.94955
345 1 4.71651 11.007 1.5711 -8.94993
346 1 7.86206 11.007 1.5722 -8.9468
347 1 11.0067 11.007 1.57028 -8.94885
348 1 14.1538 11.007 1.56896 -8.9496
349 1 17.298 11.007 1.57126 -8.94948
350 1 20.4418 11.007 1.57189 -8.94952
538 1 17.2972 20.4421 11.0069 -8.94953
352 1 1.57197 14.152 1.57174 -8.94939
353 1 3.14434 12.5795 -0.000237265 -8.94967
354 1 4.71683 14.1517 1.5712 -8.95037
688 3 10.2322 11.007 9.53681 2.258
356 1 7.86171 14.1523 1.56984 -8.95215
511 1 18.8695 18.8699 9.43437 -8.94947
358 1 11.0065 14.1527 1.56978 -8.95066
510 1 15.7252 18.8708 9.4342 -8.94937
360 1 14.1533 14.1533 1.56919 -8.95124
361 1 15.7253 12.5798 -0.00065432 -8.94948
362 1 17.2979 14.1525 1.57128 -8.9493
532 1 20.4414 17.2978 11.007 -8.94943
364 1 20.4418 14.152 1.57192 -8.94948
509 1 12.5793 18.8704 9.43467 -8.95011
366 1 1.5719 17.2971 1.57171 -8.9499
508 1 9.43437 18.8685 9.43489 -8.94448
368 1 4.71629 17.2977 1.57069 -8.9495
507 1 6.2881 18.8734 9.43485 -8.95151
370 1 7.8618 17.2978 1.57101 -8.94913
371 1 9.43427 15.7251 -0.000844242 -8.94974
372 1 11.0071 17.2978 1.57115 -8.9492
373 1 12.5794 15.725 -0.000735505 -8.94981
374 1 14.1523 17.2978 1.57122 -8.94979
506 1 3.14312 18.8713 9.43436 -8.94933
376 1 17.2978 17.2979 1.57139 -8.94872
505 1 22.0133 18.87 9.43443 -8.94945
378 1 20.4417 17.297 1.572 -8.9496
504 1 18.8704 15.7259 9.43406 -8.94921
380 1 1.57202 20.4418 1.57194 -8.94922
503 1 15.7281 15.7283 9.43312 -8.94523
382 1 4.717 20.4419 1.5719 -8.94958
502 1 12.5801 15.7281 9.43335 -8.95426
384 1 7.86204 20.4419 1.57191 -8.94951
531 1 17.2982 17.2986 11.0067 -8.94888
386 1 11.0071 20.4419 1.57193 -8.94952
501 1 9.42987 15.713 9.43611 -9.0102
388 1 14.152 20.4419 1.57205 -8.94948
500 1 6.27927 15.739 9.43375 -8.95511
390 1 17.297 20.4419 1.57203 -8.94948
499 1 3.13829 15.7294 9.43334 -8.94713
392 1 20.4415 20.4418 1.57218 -8.94936
393 1 1.57086 11.007 4.7154 -8.94939
394 1 4.7143 11.007 4.71315 -8.94582
395 1 7.86425 11.007 4.72206 -8.93557
396 1 11.0096 11.007 4.71295 -8.9868
397 1 14.1607 11.007 4.70728 -8.94267
398 1 17.3004 11.007 4.71464 -8.94917
399 1 20.4421 11.007 4.71615 -8.94974
400 1 -0.000271712 12.5795 3.14392 -8.94948
401 1 1.57091 14.1522 4.71559 -8.9495
402 1 3.1436 12.5795 3.14294 -8.94883
403 1 4.71446 14.1527 4.71276 -8.95412
404 1 6.28943 12.5784 3.14299 -8.95087
405 1 7.85747 14.1576 4.70614 -8.95629
406 1 9.43403 12.5795 3.14284 -8.94905
407 1 11.0069 14.1554 4.70828 -8.95436
408 1 12.582 12.5806 3.13658 -8.95696
409 1 14.1619 14.1612 4.7056 -8.93823
410 1 15.7275 12.5805 3.14124 -8.94811
411 1 17.3003 14.1536 4.71483 -8.95032
412 1 18.8703 12.5797 3.14369 -8.94935
413 1 20.442 14.1523 4.71629 -8.94981
414 1 22.0136 15.7246 3.14405 -8.94974
415 1 1.56998 17.2987 4.71512 -8.94825
416 1 3.14345 15.7251 3.14278 -8.95085
417 1 4.71306 17.3013 4.71247 -8.94415
418 1 6.28731 15.7269 3.13989 -8.95018
419 1 7.86113 17.3004 4.71414 -8.94842
420 1 9.43418 15.7268 3.14116 -8.94805
421 1 11.0075 17.2998 4.71459 -8.94715
422 1 12.5803 15.7265 3.14125 -8.95002
423 1 14.1546 17.3011 4.7141 -8.9488
424 1 15.7277 15.7277 3.14103 -8.9465
425 1 17.2983 17.2985 4.7159 -8.94909
426 1 18.8703 15.7251 3.1438 -8.94964
427 1 20.4413 17.2975 4.71649 -8.94971
428 1 22.0133 18.8698 3.14411 -8.94913
429 1 1.57174 20.4421 4.71668 -8.94961
430 1 3.14354 18.8704 3.1433 -8.94823
431 1 4.71648 20.4427 4.71624 -8.95003
432 1 6.28917 18.8704 3.14351 -8.94944
433 1 7.86204 20.4426 4.71634 -8.9495
434 1 9.43458 18.8704 3.14362 -8.94945
435 1 11.0073 20.4425 4.71642 -8.94938
436 1 12.5797 18.8703 3.14385 -8.94907
437 1 14.1522 20.4424 4.7168 -8.95049
438 1 15.7252 18.8706 3.14372 -8.94929
439 1 17.297 20.442 4.71699 -8.94973
440 1 18.8695 18.8698 3.1443 -8.94942
441 1 20.4414 20.4418 4.71703 -8.94956
442 1 1.56857 11.007 7.85979 -8.94736
443 1 4.71103 11.007 7.85737 -8.93543
444 1 7.87646 11.007 7.89688 -8.91482
445 1 11.0691 11.007 7.69827 -8.2302
446 1 14.1659 11.007 7.85207 -8.95905
447 1 17.3016 11.007 7.86062 -8.95045
448 1 20.4417 11.007 7.86121 -8.94976
449 1 -0.00110175 12.5797 6.28834 -8.9494
450 1 1.56644 14.1542 7.85961 -8.9528
451 1 3.14107 12.5796 6.28624 -8.94799
452 1 4.69592 14.1674 7.84729 -8.94052
453 1 6.28631 12.5766 6.28371 -8.96409
454 1 7.82155 14.1925 7.82214 -8.83929
455 1 9.42256 12.5952 6.28623 -8.93269
456 1 11.0252 14.1678 7.83183 -8.88643
457 1 12.6096 12.6021 6.25613 -8.89757
458 1 14.1651 14.1623 7.85286 -8.94175
459 1 15.7335 12.5819 6.28451 -8.95441
460 1 17.301 14.154 7.86065 -8.95112
461 1 18.8714 12.5799 6.28844 -8.95074
462 1 20.4413 14.1528 7.8613 -8.95061
463 1 22.012 15.7256 6.2883 -8.95038
464 1 1.57014 17.2988 7.86121 -8.94897
465 1 3.13716 15.7301 6.28369 -8.94598
466 1 4.71304 17.303 7.85972 -8.95007
467 1 6.27644 15.7384 6.27568 -8.92727
468 1 7.86044 17.3051 7.86044 -8.96079
469 1 9.43386 15.7332 6.28285 -8.94506
470 1 11.0056 17.2993 7.86175 -8.95528
471 1 12.5863 15.735 6.28094 -8.94701
472 1 14.153 17.3001 7.86141 -8.95075
473 1 15.7293 15.7288 6.28603 -8.94761
474 1 17.298 17.2984 7.8615 -8.94878
475 1 18.8704 15.7255 6.28872 -8.95007
476 1 20.4413 17.2977 7.8617 -8.94935
477 1 -0.000657471 18.8699 6.28924 -8.94943
478 1 1.5717 20.4422 7.86187 -8.94948
479 1 3.14313 18.8714 6.2884 -8.94974
480 1 4.71637 20.4431 7.86173 -8.95013
481 1 6.28833 18.8731 6.28793 -8.95166
482 1 7.86227 20.4431 7.86203 -8.95161
483 1 9.43479 18.8722 6.28813 -8.94994
484 1 11.0068 20.4421 7.86224 -8.94992
485 1 12.5796 18.8715 6.28914 -8.95223
486 1 14.1521 20.4423 7.86208 -8.95001
487 1 15.725 18.8707 6.28923 -8.94998
488 1 17.2971 20.442 7.86192 -8.94948
489 1 18.8694 18.8698 6.28937 -8.94942
490 1 20.4414 20.4419 7.86197 -8.94953
491 1 22.011 12.58 9.43374 -8.95094
492 1 3.13222 12.5827 9.4308 -8.95466
493 1 6.2485 12.6253 9.39746 -8.86231
494 1 9.3722 12.8202 9.40645 -7.80645
495 1 12.5967 12.6018 9.40069 -8.83847
496 1 15.732 12.5819 9.43169 -8.94774
497 1 18.8714 12.5802 9.43381 -8.94952
498 1 -0.00189027 15.7258 9.43411 -8.94953
526 1 1.57019 17.2987 11.0073 -8.94913
527 1 4.71274 17.3023 11.0081 -8.94702
534 1 4.71625 20.443 11.0073 -8.94969
389 1 15.7245 18.8696 -0.000232244 -8.94968
377 1 18.8696 15.7246 -0.000168081 -8.94951
383 1 6.28949 18.8696 -0.000364867 -8.94942
512 1 1.56525 11.007 11.0071 -8.95234
513 1 4.6926 11.007 11.0072 -9.01949
514 1 7.49716 11.007 11.0239 -7.88746
515 1 11.4204 11.007 11.1831 -7.15734
516 1 14.1821 11.007 11.0173 -9.02056
517 1 17.305 11.007 11.0068 -8.95434
518 1 20.4418 11.007 11.0068 -8.95072
519 1 1.56648 14.1542 11.007 -8.95116
520 1 4.69816 14.1613 11.0088 -8.95123
521 1 7.81583 14.1667 11.0364 -8.86666
522 1 11.0356 14.1452 11.0256 -8.89849
523 1 14.1656 14.1589 11.0046 -8.94753
524 1 17.3017 14.1544 11.0063 -8.94972
525 1 20.4414 14.153 11.0068 -8.95032
687 3 9.45548 11.007 10.9399 2.28412
391 1 18.8695 18.8695 22.0138 -8.94927
528 1 7.8604 17.3002 11.0079 -8.95368
529 1 11.0059 17.2956 11.0063 -8.94746
530 1 14.1538 17.3002 11.0061 -8.94793
686 1 20.4416 20.4417 20.4417 -8.94913
685 1 18.8697 18.8699 18.8698 -8.94871
533 1 1.57168 20.4421 11.0071 -8.94949
387 1 12.5795 18.8696 22.0136 -8.9494
535 1 7.86242 20.4424 11.0071 -8.94997
536 1 11.0066 20.4417 11.0068 -8.94856
537 1 14.1523 20.4425 11.0068 -8.94971
684 1 17.2968 20.4418 20.4416 -8.94965
539 1 20.4414 20.4419 11.007 -8.94955
540 1 1.56771 11.007 14.1547 -8.94914
541 1 4.70463 11.007 14.161 -8.93956
542 1 7.85255 11.007 14.1379 -8.95367
543 1 11.0262 11.007 14.1442 -8.98779
544 1 14.1697 11.007 14.1667 -8.93762
545 1 17.304 11.007 14.156 -8.94807
546 1 20.4422 11.007 14.1532 -8.95021
547 1 22.0113 12.5801 12.5803 -8.95178
548 1 1.56776 14.1542 14.1546 -8.95111
549 1 3.13145 12.5826 12.5839 -8.95591
550 1 4.70197 14.1659 14.1671 -8.92687
551 1 6.24294 12.6197 12.6239 -8.8207
552 1 7.86186 14.156 14.1599 -8.9519
553 1 9.43539 12.5828 12.5689 -8.63799
554 1 11.0051 14.1582 14.1615 -8.94188
555 1 12.6537 12.6544 12.655 -8.70685
556 1 14.178 14.1779 14.1782 -8.90118
557 1 15.7445 12.5856 12.5869 -8.96028
558 1 17.3046 14.156 14.156 -8.95228
559 1 18.8735 12.5803 12.5804 -8.9532
560 1 20.4423 14.1529 14.153 -8.95105
561 1 -0.00165141 15.7257 12.58 -8.94975
562 1 1.57038 17.2987 14.1532 -8.94942
563 1 3.13852 15.729 12.5821 -8.94886
564 1 4.71292 17.3033 14.1565 -8.94794
565 1 6.27733 15.7407 12.5904 -8.94723
566 1 7.86285 17.2986 14.1531 -8.95015
567 1 9.43482 15.7218 12.5779 -8.95287
568 1 11.0058 17.2994 14.1534 -8.94926
569 1 12.587 15.7418 12.5864 -8.96402
570 1 14.1555 17.3047 14.1557 -8.95205
571 1 15.7295 15.7294 12.5804 -8.94944
572 1 17.2986 17.299 14.1527 -8.94988
573 1 18.8707 15.7258 12.5796 -8.9495
574 1 20.4415 17.2977 14.1522 -8.94958
575 1 22.0133 18.87 12.5796 -8.94939
576 1 1.57178 20.4421 14.1522 -8.94947
577 1 3.14322 18.8713 12.5802 -8.94906
578 1 4.71661 20.443 14.1527 -8.95081
579 1 6.28878 18.873 12.5805 -8.95344
580 1 7.86237 20.4422 14.1523 -8.94945
581 1 9.43472 18.8695 12.5796 -8.94805
582 1 11.0068 20.4423 14.1523 -8.94965
583 1 12.5793 18.8725 12.5794 -8.95474
584 1 14.1522 20.443 14.1522 -8.95141
585 1 15.7252 18.871 12.5793 -8.94949
586 1 17.2971 20.4421 14.1519 -8.94964
587 1 18.8695 18.8699 12.5794 -8.94937
588 1 20.4414 20.4418 14.1519 -8.94951
589 1 1.57122 11.007 17.2983 -8.94944
590 1 4.71503 11.007 17.3005 -8.94882
591 1 7.86254 11.007 17.2951 -8.9444
592 1 11.0065 11.007 17.2974 -8.94484
593 1 14.1556 11.007 17.3033 -8.94759
594 1 17.2991 11.007 17.2992 -8.94905
595 1 20.4419 11.007 17.2978 -8.94944
596 1 -0.000934061 12.5798 15.7258 -8.94922
597 1 1.57131 14.1525 17.2983 -8.94919
598 1 3.1411 12.5806 15.7284 -8.94726
599 1 4.71572 14.1532 17.3008 -8.95194
600 1 6.28709 12.5801 15.7325 -8.9616
601 1 7.86301 14.1519 17.2983 -8.95237
602 1 9.43511 12.5756 15.7182 -8.95076
603 1 11.0053 14.1528 17.2995 -8.9513
604 1 12.5849 12.583 15.7409 -8.96648
605 1 14.1549 14.1553 17.3042 -8.95316
606 1 15.7307 12.5815 15.731 -8.94664
607 1 17.2989 14.1531 17.2992 -8.9491
608 1 18.8714 12.58 15.7262 -8.94905
609 1 20.4419 14.1523 17.2977 -8.9493
610 1 22.0129 15.7256 15.7257 -8.95
611 1 1.57116 17.2982 17.2983 -8.94817
612 1 3.14014 15.7289 15.7294 -8.9441
613 1 4.71656 17.298 17.2985 -8.95013
614 1 6.28842 15.727 15.7285 -8.95104
615 1 7.86187 17.2979 17.298 -8.94843
616 1 9.43383 15.727 15.7275 -8.94289
617 1 11.0066 17.2982 17.2982 -8.94859
618 1 12.58 15.7286 15.7292 -8.94934
619 1 14.1524 17.2987 17.2987 -8.94992
620 1 15.7325 15.7329 15.7327 -8.93749
621 1 17.299 17.2993 17.2992 -8.94647
622 1 18.8716 15.7262 15.7262 -8.94993
623 1 20.4419 17.2976 17.2976 -8.9494
624 1 -0.000506141 18.8699 15.7248 -8.94954
625 1 1.57189 20.442 17.2973 -8.94931
626 1 3.14331 18.8713 15.726 -8.94887
627 1 4.71718 20.4419 17.2971 -8.94975
628 1 6.28976 18.8703 15.7251 -8.94981
629 1 7.862 20.442 17.2972 -8.94939
630 1 9.43436 18.8706 15.7254 -8.94925
631 1 11.0069 20.442 17.2972 -8.94944
632 1 12.5792 18.8708 15.7251 -8.94953
633 1 14.1519 20.4421 17.2971 -8.94966
634 1 15.7258 18.872 15.7259 -8.94983
635 1 17.2972 20.4422 17.2973 -8.94953
636 1 18.8696 18.87 15.7247 -8.94974
637 1 20.4415 20.4418 17.2969 -8.94961
638 1 1.57202 11.007 20.4419 -8.94955
639 1 4.71676 11.007 20.4422 -8.95005
640 1 7.86213 11.007 20.4413 -8.94834
641 1 11.0063 11.007 20.4415 -8.94879
642 1 14.1527 11.007 20.4425 -8.9503
643 1 17.2976 11.007 20.442 -8.94948
644 1 20.4417 11.007 20.4418 -8.94954
645 1 22.0137 12.5795 18.8698 -8.9495
646 1 1.57206 14.152 20.4419 -8.94949
647 1 3.14397 12.5796 18.8706 -8.94934
648 1 4.71698 14.1519 20.4421 -8.95037
649 1 6.28966 12.5792 18.8707 -8.95177
650 1 7.86208 14.152 20.4414 -8.95016
651 1 9.43418 12.5791 18.8685 -8.94716
652 1 11.0064 14.1522 20.4417 -8.95012
653 1 12.5794 12.5796 18.8725 -8.95364
654 1 14.1523 14.1525 20.4425 -8.9512
655 1 15.7258 12.5799 18.8715 -8.94916
656 1 17.2975 14.1522 20.442 -8.94938
657 1 18.8699 12.5796 18.87 -8.94937
658 1 20.4417 14.152 20.4417 -8.94952
659 1 -0.000176819 15.7246 18.8697 -8.94953
660 1 1.57211 17.297 20.4418 -8.94971
661 1 3.14408 15.725 18.8706 -8.95005
662 1 4.717 17.2971 20.4416 -8.94997
663 1 6.28968 15.7247 18.8701 -8.9504
664 1 7.86188 17.2973 20.4416 -8.94939
665 1 9.43415 15.7253 18.8704 -8.94932
666 1 11.0069 17.2974 20.4417 -8.94942
667 1 12.5791 15.7252 18.8706 -8.94986
668 1 14.1519 17.2973 20.4418 -8.94972
669 1 15.7257 15.726 18.8716 -8.95016
670 1 17.2974 17.2975 20.442 -8.94951
671 1 18.8698 15.7248 18.8699 -8.94951
672 1 20.4417 17.2969 20.4417 -8.9496
673 1 22.0137 18.8696 18.8696 -8.94914
674 1 1.57228 20.4417 20.4416 -8.94954
675 1 3.14451 18.8697 18.8696 -8.94975
676 1 4.71716 20.4417 20.4415 -8.94951
677 1 6.28955 18.8696 18.8695 -8.94929
678 1 7.86202 20.4417 20.4416 -8.94955
679 1 9.43441 18.8698 18.8696 -8.94952
680 1 11.007 20.4418 20.4416 -8.94955
681 1 12.5794 18.8697 18.8696 -8.9493
682 1 14.1519 20.4417 20.4416 -8.9495
683 1 15.7246 18.8699 18.8697 -8.94976
355 1 6.28952 12.5792 22.0136 -8.94989
357 1 9.43419 12.5794 22.0131 -8.94878
359 1 12.5795 12.5796 22.0126 -8.95158
365 1 22.0138 15.7244 22.0138 -8.94951
367 1 3.14449 15.7244 22.0137 -8.95007
369 1 6.28931 15.7247 22.0129 -8.95043
375 1 15.7251 15.7252 22.0133 -8.95014
381 1 3.14448 18.8695 22.0135 -8.94953
379 1 22.0138 18.8694 22.0138 -8.94957
351 1 22.0138 12.5794 22.0138 -8.94955
363 1 18.8696 12.5795 22.0137 -8.94951
385 1 9.43449 18.8696 22.0136 -8.94951
