ITEM: TIMESTEP
117
ITEM: NUMBER OF ATOMS
688
ITEM: BOX BOUNDS pp pp pp
0.0000000000000000e+00 2.2013900999999997e+01
0.0000000000000000e+00 2.2013900999999997e+01
0.0000000000000000e+00 2.2013900999999997e+01
ITEM: ATOMS id type x y z c_pot
189 1 20.4414 4.71604 11.007 -8.94943
2 1 1.572 1.57207 1.5719 -8.94921
175 1 18.8714 9.43364 9.43378 -8.94951
4 1 4.71698 1.57202 1.57186 -8.94957
174 1 15.7321 9.43198 9.43169 -8.94774
6 1 7.86203 1.57199 1.57187 -8.9495
7 1 9.43452 1.4313e-15 -0.000190855 -8.94956
8 1 11.0071 1.57199 1.5719 -8.94952
173 1 12.5967 9.41219 9.40091 -8.83909
10 1 14.152 1.57202 1.57202 -8.94947
172 1 9.37258 9.19337 9.40626 -7.80612
12 1 17.297 1.57196 1.572 -8.94947
188 1 17.2983 4.71523 11.0067 -8.94887
14 1 20.4415 1.57212 1.57215 -8.94934
171 1 6.24847 9.38859 9.39754 -8.86234
16 1 1.57187 4.71675 1.57167 -8.9499
170 1 3.13209 9.43116 9.43076 -8.95461
18 1 4.71625 4.71611 1.57062 -8.9495
169 1 22.0109 9.43388 9.4337 -8.95092
20 1 7.86178 4.71608 1.57095 -8.94912
183 1 1.57009 4.7151 11.0073 -8.94912
22 1 11.0071 4.71605 1.5711 -8.94919
168 1 18.8704 6.28793 9.43403 -8.94921
24 1 14.1524 4.71604 1.57116 -8.94979
167 1 15.7282 6.28549 9.43307 -8.9452
26 1 17.2978 4.71599 1.57134 -8.94872
166 1 12.5803 6.28585 9.43333 -8.95415
28 1 20.4417 4.71682 1.57197 -8.9496
165 1 9.42987 6.30102 9.43609 -9.01028
30 1 1.57195 7.86191 1.5717 -8.94938
164 1 6.2791 6.2748 9.43373 -8.95508
32 1 4.71682 7.86218 1.57116 -8.95038
163 1 3.13812 6.28439 9.43329 -8.94712
34 1 7.8617 7.86157 1.5698 -8.95216
35 1 9.43426 6.2888 -0.000876767 -8.94974
36 1 11.0065 7.86123 1.56973 -8.95068
37 1 12.5794 6.2889 -0.000763849 -8.94982
38 1 14.1534 7.86058 1.56912 -8.95125
162 1 -0.00196062 6.28799 9.43408 -8.94953
40 1 17.298 7.86139 1.57123 -8.94929
161 1 18.8695 3.1439 9.43435 -8.94946
42 1 20.4418 7.86185 1.57189 -8.94947
181 1 17.2972 1.57178 11.0069 -8.94953
44 1 3.14433 9.43443 -0.00024294 -8.94967
160 1 15.7252 3.14306 9.43419 -8.94937
159 1 12.5793 3.14354 9.43467 -8.95011
158 1 9.43435 3.14545 9.4349 -8.94445
48 1 15.7254 9.43412 -0.000668715 -8.94949
157 1 6.28805 3.14044 9.43486 -8.95153
50 1 22.0136 1.26247e-15 3.1445 -8.94954
51 1 1.5717 1.57175 4.71663 -8.9496
52 1 3.14428 8.04558e-16 3.14414 -8.94956
53 1 4.71644 1.57116 4.71619 -8.95004
54 1 6.28949 1.75763e-15 3.14417 -8.94948
55 1 7.86203 1.57127 4.7163 -8.9495
56 1 9.43462 1.27632e-15 3.14416 -8.94952
57 1 11.0073 1.57141 4.71639 -8.94938
58 1 12.5796 9.19175e-16 3.14429 -8.9494
59 1 14.1522 1.57143 4.71678 -8.95051
60 1 15.7246 2.19069e-17 3.14445 -8.94994
61 1 17.297 1.57188 4.71696 -8.94974
62 1 18.8692 -2.93928e-16 3.14462 -8.94964
63 1 20.4414 1.57208 4.71701 -8.94955
64 1 22.0133 3.14407 3.14406 -8.94912
65 1 1.5699 4.7151 4.71504 -8.94825
66 1 3.14349 3.1434 3.14323 -8.94822
67 1 4.71296 4.71251 4.71236 -8.94413
68 1 6.28913 3.14342 3.14344 -8.94943
69 1 7.86108 4.71342 4.71406 -8.94841
70 1 9.43458 3.14346 3.14357 -8.94944
71 1 11.0076 4.71405 4.7145 -8.94713
72 1 12.5797 3.14354 3.1438 -8.94906
73 1 14.1547 4.71268 4.71399 -8.94875
74 1 15.7253 3.14321 3.14367 -8.94928
75 1 17.2984 4.71533 4.71584 -8.9491
76 1 18.8695 3.14407 3.14426 -8.94941
77 1 20.4413 4.7163 4.71643 -8.94972
78 1 22.0136 6.28925 3.144 -8.94974
79 1 1.57086 7.86163 4.71551 -8.94951
80 1 3.14339 6.28879 3.1427 -8.95086
81 1 4.7144 7.86113 4.71269 -8.95415
82 1 6.28725 6.28696 3.1398 -8.95018
83 1 7.85741 7.85624 4.70608 -8.9563
84 1 9.43416 6.28702 3.14108 -8.94804
85 1 11.0069 7.85842 4.70817 -8.95442
86 1 12.5803 6.28729 3.14114 -8.95004
87 1 14.1619 7.85264 4.7055 -8.93827
88 1 15.7277 6.28615 3.14094 -8.94652
89 1 17.3004 7.8602 4.71474 -8.95031
90 1 18.8703 6.28875 3.14374 -8.94964
91 1 20.442 7.86157 4.71623 -8.94981
92 1 -0.000278709 9.43436 3.14386 -8.94948
93 1 3.14357 9.43436 3.14288 -8.94882
94 1 6.28942 9.43552 3.14299 -8.95086
95 1 9.43402 9.43436 3.14285 -8.94903
96 1 12.582 9.43326 3.13652 -8.95694
97 1 15.7275 9.43333 3.14114 -8.94811
98 1 18.8704 9.43418 3.14363 -8.94935
99 1 22.0136 1.58018e-15 6.28946 -8.94953
100 1 1.57165 1.57171 7.86185 -8.94948
101 1 3.14411 1.11044e-15 6.28919 -8.94979
102 1 4.71633 1.57077 7.86171 -8.95014
103 1 6.28944 9.59579e-16 6.28916 -8.95071
104 1 7.86226 1.57076 7.86203 -8.95162
105 1 9.43479 1.19101e-15 6.28911 -8.9503
106 1 11.0068 1.57176 7.86225 -8.94992
107 1 12.5795 6.1106e-16 6.28958 -8.95041
108 1 14.1521 1.57157 7.86207 -8.95001
109 1 15.7245 -6.18737e-16 6.28954 -8.94984
110 1 17.2971 1.57183 7.8619 -8.94948
111 1 18.8692 1.80536e-15 6.28951 -8.94951
112 1 20.4414 1.57202 7.86196 -8.94952
113 1 -0.000699807 3.14393 6.28919 -8.94942
114 1 1.57004 4.71503 7.86115 -8.94896
115 1 3.14305 3.14244 6.28834 -8.94973
116 1 4.71292 4.71076 7.85965 -8.95006
117 1 6.28828 3.14071 6.28788 -8.95168
118 1 7.86037 4.70874 7.86041 -8.96082
119 1 9.43478 3.14166 6.28809 -8.94996
120 1 11.0056 4.71465 7.86172 -8.95535
121 1 12.5796 3.14232 6.28911 -8.95225
122 1 14.1531 4.71379 7.86136 -8.95072
123 1 15.725 3.14319 6.28919 -8.94998
124 1 17.298 4.7154 7.86145 -8.94876
125 1 18.8694 3.14403 6.28934 -8.94941
126 1 20.4413 4.7161 7.86167 -8.94934
127 1 22.0119 6.2882 6.28823 -8.95039
128 1 1.56634 7.85959 7.85954 -8.9528
129 1 3.13703 6.28368 6.28358 -8.94599
130 1 4.69578 7.84638 7.84723 -8.94058
131 1 6.2763 6.2754 6.27557 -8.92724
132 1 7.82144 7.82127 7.82207 -8.83925
133 1 9.43382 6.28061 6.28275 -8.94504
134 1 11.0255 7.84591 7.83162 -8.88622
135 1 12.5865 6.27874 6.28076 -8.94689
136 1 14.1652 7.85162 7.85279 -8.94193
137 1 15.7294 6.28498 6.28594 -8.94765
138 1 17.301 7.85982 7.86059 -8.95113
139 1 18.8704 6.28829 6.28866 -8.95008
140 1 20.4413 7.86108 7.86126 -8.95061
141 1 -0.00113172 9.43422 6.28828 -8.94939
142 1 3.141 9.43431 6.28618 -8.948
143 1 6.28628 9.43731 6.28376 -8.9641
144 1 9.42256 9.41866 6.28625 -8.93285
145 1 12.6096 9.41186 6.2561 -8.89767
146 1 15.7336 9.43202 6.2844 -8.95439
147 1 18.8715 9.434 6.28838 -8.95074
148 1 -0.000361848 1.13769e-15 9.43448 -8.94954
149 1 3.14401 -1.34191e-16 9.43449 -8.94961
150 1 6.28933 1.20521e-15 9.4347 -8.95074
151 1 9.43473 1.49321e-15 9.43462 -8.94771
152 1 12.5794 7.94236e-16 9.43461 -8.94976
153 1 15.7247 -7.43961e-16 9.43439 -8.94971
154 1 18.8693 1.32453e-15 9.43445 -8.94955
155 1 22.0132 3.14386 9.43442 -8.94944
156 1 3.14304 3.14248 9.43435 -8.94933
177 1 4.71621 1.57081 11.0074 -8.9497
184 1 4.7126 4.71149 11.0082 -8.947
3 1 3.14469 6.32269e-16 -0.000200434 -8.94958
11 1 15.7243 1.21817e-16 -0.000117607 -8.94956
41 1 18.8696 6.28928 -0.00017418 -8.9495
19 1 6.28947 3.14431 -0.000391593 -8.94942
25 1 15.7245 3.14426 -0.000245305 -8.94968
176 1 1.57163 1.57172 11.0071 -8.94949
47 1 12.5795 9.43433 22.0126 -8.95159
178 1 7.86242 1.57147 11.0071 -8.94996
179 1 11.0066 1.57223 11.0068 -8.94855
180 1 14.1523 1.57141 11.0068 -8.94971
343 1 18.8699 9.4343 18.8701 -8.94936
182 1 20.4414 1.572 11.007 -8.94954
342 1 15.7259 9.43393 18.8716 -8.94916
46 1 9.43418 9.4345 22.013 -8.94876
185 1 7.86034 4.71382 11.0079 -8.95368
186 1 11.0059 4.71835 11.0063 -8.94751
187 1 14.1539 4.7136 11.0061 -8.94792
341 1 12.5795 9.43432 18.8725 -8.95366
340 1 9.43419 9.43479 18.8685 -8.94713
190 1 1.56634 7.85965 11.007 -8.95117
191 1 4.69791 7.85245 11.0088 -8.9512
192 1 7.81567 7.84726 11.0363 -8.8667
193 1 11.0359 7.86867 11.0258 -8.89833
194 1 14.1658 7.85489 11.0047 -8.94749
195 1 17.3018 7.85947 11.0063 -8.94974
196 1 20.4414 7.86088 11.0068 -8.95033
197 1 22.0136 -2.41614e-16 12.5795 -8.94953
198 1 1.57174 1.57174 14.1523 -8.94946
199 1 3.14407 -8.72338e-16 12.5798 -8.94953
200 1 4.71659 1.5709 14.1527 -8.95083
201 1 6.28964 1.49662e-15 12.5797 -8.95099
202 1 7.86237 1.57173 14.1523 -8.94945
203 1 9.4347 1.60697e-15 12.5796 -8.94903
204 1 11.0068 1.57159 14.1523 -8.94965
205 1 12.5793 -5.80147e-16 12.5793 -8.95101
206 1 14.1522 1.57082 14.1522 -8.95144
207 1 15.7247 7.63519e-16 12.5794 -8.94966
208 1 17.2971 1.57174 14.1519 -8.94964
209 1 18.8693 1.78908e-15 12.5794 -8.94952
210 1 20.4414 1.57203 14.152 -8.9495
211 1 22.0133 3.14389 12.5796 -8.94938
212 1 1.5703 4.71513 14.1532 -8.94942
213 1 3.14315 3.14253 12.5802 -8.94905
214 1 4.71282 4.71048 14.1566 -8.94796
215 1 6.28874 3.14087 12.5805 -8.95347
216 1 7.86282 4.71532 14.1531 -8.95015
217 1 9.4347 3.14444 12.5796 -8.94804
218 1 11.0058 4.71447 14.1534 -8.94925
219 1 12.5793 3.14141 12.5794 -8.95478
220 1 14.1556 4.70908 14.1558 -8.95204
221 1 15.7252 3.14281 12.5793 -8.94949
222 1 17.2987 4.71478 14.1527 -8.94988
223 1 18.8695 3.1439 12.5794 -8.94936
224 1 20.4415 4.71613 14.1523 -8.94958
225 1 -0.00171106 6.28811 12.58 -8.94975
226 1 1.56764 7.85962 14.1547 -8.95111
227 1 3.13836 6.28473 12.5822 -8.94885
228 1 4.70173 7.84786 14.1672 -8.92676
229 1 6.27717 6.27312 12.5904 -8.9473
230 1 7.86179 7.8579 14.1598 -8.95186
231 1 9.4348 6.29221 12.5779 -8.95285
232 1 11.0052 7.85567 14.1615 -8.94196
233 1 12.5872 6.27196 12.5865 -8.96397
234 1 14.1783 7.83584 14.1784 -8.90109
235 1 15.7297 6.28435 12.5805 -8.94943
236 1 17.3048 7.85774 14.1561 -8.95228
237 1 18.8708 6.28798 12.5797 -8.94951
238 1 20.4423 7.8609 14.153 -8.95107
239 1 22.0112 9.43381 12.5803 -8.95181
240 1 3.1312 9.4312 12.5839 -8.95594
241 1 6.24253 9.3941 12.624 -8.82054
242 1 9.43527 9.43108 12.5688 -8.6388
243 1 12.6542 9.35935 12.6551 -8.7068
244 1 15.7447 9.42828 12.587 -8.96031
245 1 18.8736 9.43356 12.5804 -8.95323
246 1 -0.00027461 1.10682e-16 15.7245 -8.94955
247 1 1.57186 1.57182 17.2973 -8.9493
248 1 3.14427 -1.61129e-16 15.7249 -8.94997
249 1 4.71717 1.57198 17.2971 -8.94975
250 1 6.28975 5.40688e-16 15.7247 -8.94957
251 1 7.862 1.57193 17.2973 -8.94938
252 1 9.4345 7.54818e-16 15.7248 -8.94969
253 1 11.0069 1.57186 17.2973 -8.94944
254 1 12.5793 -1.18805e-16 15.7247 -8.94962
255 1 14.1519 1.57181 17.2972 -8.94966
256 1 15.7247 1.18644e-15 15.7247 -8.95039
257 1 17.2973 1.57161 17.2974 -8.94953
258 1 18.8693 1.73421e-15 15.7244 -8.94965
259 1 20.4415 1.57204 17.297 -8.94961
260 1 -0.000530487 3.14397 15.7248 -8.94954
261 1 1.57112 4.71565 17.2984 -8.94816
262 1 3.14326 3.14253 15.7261 -8.94887
263 1 4.71653 4.71579 17.2985 -8.95014
264 1 6.28975 3.14358 15.7252 -8.94981
265 1 7.86187 4.716 17.298 -8.94842
266 1 9.43435 3.14333 15.7254 -8.94925
267 1 11.0066 4.7157 17.2982 -8.94858
268 1 12.5792 3.14307 15.7252 -8.94954
269 1 14.1524 4.71508 17.2988 -8.94992
270 1 15.7259 3.14183 15.726 -8.94983
271 1 17.2991 4.71447 17.2993 -8.94643
272 1 18.8697 3.14383 15.7247 -8.94973
273 1 20.4419 4.7162 17.2977 -8.9494
274 1 22.0129 6.28826 15.7258 -8.95
275 1 1.57126 7.86135 17.2984 -8.94917
276 1 3.14003 6.28485 15.7296 -8.94406
277 1 4.71567 7.86061 17.3009 -8.95196
278 1 6.28837 6.28684 15.7286 -8.95105
279 1 7.86304 7.86202 17.2983 -8.95241
280 1 9.43383 6.28687 15.7275 -8.94288
281 1 11.0053 7.86111 17.2995 -8.95132
282 1 12.58 6.28517 15.7293 -8.94935
283 1 14.155 7.85854 17.3043 -8.95318
284 1 15.7326 6.28085 15.7329 -8.93744
285 1 17.2991 7.86073 17.2993 -8.94907
286 1 18.8717 6.28757 15.7263 -8.94992
287 1 20.4419 7.86158 17.2978 -8.94929
288 1 -0.000964973 9.43402 15.7259 -8.94921
289 1 3.14097 9.4332 15.7285 -8.94722
290 1 6.287 9.43378 15.7326 -8.96161
291 1 9.4352 9.43839 15.718 -8.9508
292 1 12.5851 9.43089 15.7409 -8.96654
293 1 15.7309 9.43229 15.7312 -8.9466
294 1 18.8715 9.43384 15.7263 -8.94904
295 1 22.0137 1.69294e-15 18.8694 -8.94932
296 1 1.57227 1.57216 20.4416 -8.94953
297 1 3.14474 -6.55207e-16 18.8693 -8.94972
298 1 4.71715 1.5722 20.4415 -8.9495
299 1 6.28958 -1.5574e-15 18.8693 -8.94946
300 1 7.86202 1.57214 20.4416 -8.94954
301 1 9.43448 -3.99859e-17 18.8694 -8.94955
302 1 11.007 1.57212 20.4416 -8.94955
303 1 12.5794 5.79384e-16 18.8694 -8.94947
304 1 14.1519 1.57215 20.4416 -8.94949
305 1 15.7243 1.75754e-15 18.8694 -8.94966
306 1 17.2968 1.57211 20.4416 -8.94964
307 1 18.8693 1.81711e-15 18.8694 -8.9494
308 1 20.4416 1.57216 20.4417 -8.9491
309 1 22.0137 3.14424 18.8697 -8.94912
310 1 1.5721 4.71684 20.4419 -8.94971
311 1 3.14449 3.1442 18.8697 -8.94975
312 1 4.71699 4.71678 20.4416 -8.94998
313 1 6.28954 3.14428 18.8695 -8.94929
314 1 7.86187 4.71654 20.4416 -8.94938
315 1 9.4344 3.14411 18.8696 -8.94951
316 1 11.0069 4.71647 20.4417 -8.94942
317 1 12.5794 3.14413 18.8696 -8.94928
318 1 14.1519 4.71653 20.4418 -8.94973
319 1 15.7246 3.14396 18.8698 -8.94976
320 1 17.2974 4.71635 20.442 -8.94951
321 1 18.8697 3.14396 18.8698 -8.94869
322 1 20.4417 4.71692 20.4417 -8.94959
323 1 -0.000181066 6.28926 18.8698 -8.94952
324 1 1.57205 7.86188 20.4419 -8.94949
325 1 3.14406 6.28885 18.8707 -8.95005
326 1 4.71697 7.86195 20.4422 -8.95039
327 1 6.28968 6.2892 18.8701 -8.95042
328 1 7.86208 7.86193 20.4414 -8.95016
329 1 9.43414 6.28856 18.8704 -8.94933
330 1 11.0064 7.86167 20.4417 -8.95013
331 1 12.5791 6.2887 18.8706 -8.94988
332 1 14.1523 7.86135 20.4425 -8.95122
333 1 15.7258 6.28785 18.8717 -8.95016
334 1 17.2975 7.86162 20.4421 -8.94938
335 1 18.8699 6.28903 18.87 -8.9495
336 1 20.4417 7.86191 20.4418 -8.94951
337 1 22.0137 9.43437 18.8699 -8.94949
338 1 3.14394 9.43424 18.8707 -8.94934
339 1 6.28965 9.4347 18.8707 -8.95179
45 1 6.28952 9.4347 22.0136 -8.94989
5 1 6.28958 1.2189e-15 22.0137 -8.94954
9 1 12.5795 4.7995e-17 22.0137 -8.94954
39 1 15.7252 6.28864 22.0133 -8.95015
15 1 22.0138 3.14452 22.0138 -8.94956
17 1 3.14445 3.14436 22.0135 -8.94953
33 1 6.2893 6.28917 22.0129 -8.95044
23 1 12.5795 3.14425 22.0136 -8.94939
31 1 3.14448 6.28945 22.0137 -8.95008
27 1 18.8695 3.14431 22.0138 -8.94926
29 1 22.0138 6.28947 22.0138 -8.9495
1 1 22.0138 8.89264e-16 22.0138 -8.94929
13 1 18.8692 1.55694e-15 22.0138 -8.94937
21 1 9.43448 3.14422 22.0136 -8.9495
43 1 22.0138 9.43444 22.0138 -8.94955
49 1 18.8697 9.43438 22.0137 -8.94951
344 1 1.57189 11.007 1.57165 -8.94954
345 1 4.7165 11.007 1.57108 -8.94993
346 1 7.86206 11.007 1.57222 -8.94675
347 1 11.0067 11.007 1.57026 -8.94885
348 1 14.1539 11.007 1.5689 -8.94961
349 1 17.298 11.007 1.57121 -8.94947
350 1 20.4418 11.007 1.57186 -8.94951
538 1 17.2972 20.4421 11.0069 -8.94953
352 1 1.57195 14.152 1.5717 -8.94938
353 1 3.14433 12.5795 -0.00024294 -8.94967
354 1 4.71682 14.1517 1.57116 -8.95038
688 3 10.2322 11.007 9.53717 2.25865
356 1 7.8617 14.1523 1.5698 -8.95216
511 1 18.8695 18.87 9.43435 -8.94946
358 1 11.0065 14.1527 1.56973 -8.95068
510 1 15.7252 18.8708 9.43419 -8.94937
360 1 14.1534 14.1533 1.56912 -8.95125
361 1 15.7254 12.5798 -0.000668715 -8.94949
362 1 17.298 14.1525 1.57123 -8.94929
532 1 20.4414 17.2979 11.007 -8.94943
364 1 20.4418 14.1521 1.57189 -8.94947
509 1 12.5793 18.8704 9.43467 -8.95011
366 1 1.57187 17.2971 1.57167 -8.9499
508 1 9.43435 18.8684 9.4349 -8.94445
368 1 4.71625 17.2978 1.57062 -8.9495
507 1 6.28805 18.8735 9.43486 -8.95153
370 1 7.86178 17.2978 1.57095 -8.94912
371 1 9.43426 15.7251 -0.000876767 -8.94974
372 1 11.0071 17.2979 1.5711 -8.94919
373 1 12.5794 15.725 -0.000763849 -8.94982
374 1 14.1524 17.2979 1.57116 -8.94979
506 1 3.14304 18.8714 9.43435 -8.94933
376 1 17.2978 17.2979 1.57134 -8.94872
505 1 22.0132 18.87 9.43442 -8.94944
378 1 20.4417 17.2971 1.57197 -8.9496
504 1 18.8704 15.726 9.43403 -8.94921
380 1 1.572 20.4418 1.5719 -8.94921
503 1 15.7282 15.7284 9.43307 -8.9452
382 1 4.71698 20.4419 1.57186 -8.94957
502 1 12.5803 15.728 9.43333 -8.95415
384 1 7.86203 20.4419 1.57187 -8.9495
531 1 17.2983 17.2987 11.0067 -8.94887
386 1 11.0071 20.4419 1.5719 -8.94952
501 1 9.42987 15.7129 9.43609 -9.01028
388 1 14.152 20.4419 1.57202 -8.94947
500 1 6.2791 15.7391 9.43373 -8.95508
390 1 17.297 20.4419 1.572 -8.94947
499 1 3.13812 15.7295 9.43329 -8.94712
392 1 20.4415 20.4418 1.57215 -8.94934
393 1 1.57082 11.007 4.71533 -8.9494
394 1 4.71426 11.007 4.71313 -8.9458
395 1 7.86425 11.007 4.72218 -8.93545
396 1 11.0096 11.007 4.71289 -8.98673
397 1 14.1608 11.007 4.70716 -8.94265
398 1 17.3005 11.007 4.71454 -8.94916
399 1 20.4421 11.007 4.71609 -8.94974
400 1 -0.000278709 12.5795 3.14386 -8.94948
401 1 1.57086 14.1523 4.71551 -8.94951
402 1 3.14357 12.5795 3.14288 -8.94882
403 1 4.7144 14.1528 4.71269 -8.95415
404 1 6.28942 12.5784 3.14299 -8.95086
405 1 7.85741 14.1577 4.70608 -8.9563
406 1 9.43402 12.5795 3.14285 -8.94903
407 1 11.0069 14.1555 4.70817 -8.95442
408 1 12.582 12.5806 3.13652 -8.95694
409 1 14.1619 14.1613 4.7055 -8.93827
410 1 15.7275 12.5806 3.14114 -8.94811
411 1 17.3004 14.1537 4.71474 -8.95031
412 1 18.8704 12.5797 3.14363 -8.94935
413 1 20.442 14.1523 4.71623 -8.94981
414 1 22.0136 15.7247 3.144 -8.94974
415 1 1.5699 17.2988 4.71504 -8.94825
416 1 3.14339 15.7251 3.1427 -8.95086
417 1 4.71296 17.3014 4.71236 -8.94413
418 1 6.28725 15.7269 3.1398 -8.95018
419 1 7.86108 17.3005 4.71406 -8.94841
420 1 9.43416 15.7269 3.14108 -8.94804
421 1 11.0076 17.2999 4.7145 -8.94713
422 1 12.5803 15.7266 3.14114 -8.95004
423 1 14.1547 17.3012 4.71399 -8.94875
424 1 15.7277 15.7278 3.14094 -8.94652
425 1 17.2984 17.2986 4.71584 -8.9491
426 1 18.8703 15.7252 3.14374 -8.94964
427 1 20.4413 17.2976 4.71643 -8.94972
428 1 22.0133 18.8698 3.14406 -8.94912
429 1 1.5717 20.4421 4.71663 -8.9496
430 1 3.14349 18.8705 3.14323 -8.94822
431 1 4.71644 20.4427 4.71619 -8.95004
432 1 6.28913 18.8705 3.14344 -8.94943
433 1 7.86203 20.4426 4.7163 -8.9495
434 1 9.43458 18.8704 3.14357 -8.94944
435 1 11.0073 20.4425 4.71639 -8.94938
436 1 12.5797 18.8704 3.1438 -8.94906
437 1 14.1522 20.4425 4.71678 -8.95051
438 1 15.7253 18.8707 3.14367 -8.94928
439 1 17.297 20.442 4.71696 -8.94974
440 1 18.8695 18.8698 3.14426 -8.94941
441 1 20.4414 20.4418 4.71701 -8.94955
442 1 1.56851 11.007 7.85973 -8.94733
443 1 4.71099 11.007 7.85741 -8.9354
444 1 7.87651 11.007 7.89723 -8.91477
445 1 11.0689 11.007 7.69858 -8.23026
446 1 14.1659 11.007 7.85202 -8.95898
447 1 17.3016 11.007 7.86055 -8.95043
448 1 20.4417 11.007 7.86116 -8.94975
449 1 -0.00113172 12.5797 6.28828 -8.94939
450 1 1.56634 14.1543 7.85954 -8.9528
451 1 3.141 12.5796 6.28618 -8.948
452 1 4.69578 14.1675 7.84723 -8.94058
453 1 6.28628 12.5766 6.28376 -8.9641
454 1 7.82144 14.1926 7.82207 -8.83925
455 1 9.42256 12.5952 6.28625 -8.93285
456 1 11.0255 14.168 7.83162 -8.88622
457 1 12.6096 12.602 6.2561 -8.89767
458 1 14.1652 14.1623 7.85279 -8.94193
459 1 15.7336 12.5819 6.2844 -8.95439
460 1 17.301 14.1541 7.86059 -8.95113
461 1 18.8715 12.5799 6.28838 -8.95074
462 1 20.4413 14.1528 7.86126 -8.95061
463 1 22.0119 15.7257 6.28823 -8.95039
464 1 1.57004 17.2989 7.86115 -8.94896
465 1 3.13703 15.7302 6.28358 -8.94599
466 1 4.71292 17.3031 7.85965 -8.95006
467 1 6.2763 15.7385 6.27557 -8.92724
468 1 7.86037 17.3052 7.86041 -8.96082
469 1 9.43382 15.7333 6.28275 -8.94504
470 1 11.0056 17.2992 7.86172 -8.95535
471 1 12.5865 15.7352 6.28076 -8.94689
472 1 14.1531 17.3001 7.86136 -8.95072
473 1 15.7294 15.7289 6.28594 -8.94765
474 1 17.298 17.2985 7.86145 -8.94876
475 1 18.8704 15.7256 6.28866 -8.95008
476 1 20.4413 17.2978 7.86167 -8.94934
477 1 -0.000699807 18.87 6.28919 -8.94942
478 1 1.57165 20.4422 7.86185 -8.94948
479 1 3.14305 18.8715 6.28834 -8.94973
480 1 4.71633 20.4431 7.86171 -8.95014
481 1 6.28828 18.8732 6.28788 -8.95168
482 1 7.86226 20.4431 7.86203 -8.95162
483 1 9.43478 18.8722 6.28809 -8.94996
484 1 11.0068 20.4421 7.86225 -8.94992
485 1 12.5796 18.8716 6.28911 -8.95225
486 1 14.1521 20.4423 7.86207 -8.95001
487 1 15.725 18.8707 6.28919 -8.94998
488 1 17.2971 20.4421 7.8619 -8.94948
489 1 18.8694 18.8699 6.28934 -8.94941
490 1 20.4414 20.4419 7.86196 -8.94952
491 1 22.0109 12.58 9.4337 -8.95092
492 1 3.13209 12.5827 9.43076 -8.95461
493 1 6.24847 12.6253 9.39754 -8.86234
494 1 9.37258 12.8205 9.40626 -7.80612
495 1 12.5967 12.6017 9.40091 -8.83909
496 1 15.7321 12.5819 9.43169 -8.94774
497 1 18.8714 12.5803 9.43378 -8.94951
498 1 -0.00196062 15.7259 9.43408 -8.94953
526 1 1.57009 17.2988 11.0073 -8.94912
527 1 4.7126 17.3024 11.0082 -8.947
534 1 4.71621 20.4431 11.0074 -8.9497
389 1 15.7245 18.8696 -0.000245305 -8.94968
377 1 18.8696 15.7246 -0.00017418 -8.9495
383 1 6.28947 18.8696 -0.000391593 -8.94942
512 1 1.56511 11.007 11.007 -8.95236
513 1 4.69233 11.007 11.0072 -9.01954
514 1 7.49697 11.007 11.0244 -7.8873
515 1 11.4198 11.007 11.184 -7.15915
516 1 14.1822 11.007 11.0175 -9.02062
517 1 17.3051 11.007 11.0069 -8.9543
518 1 20.4418 11.007 11.0068 -8.95072
519 1 1.56634 14.1542 11.007 -8.95117
520 1 4.69791 14.1614 11.0088 -8.9512
521 1 7.81567 14.1666 11.0363 -8.8667
522 1 11.0359 14.1452 11.0258 -8.89833
523 1 14.1658 14.159 11.0047 -8.94749
524 1 17.3018 14.1544 11.0063 -8.94974
525 1 20.4414 14.153 11.0068 -8.95033
687 3 9.45494 11.007 10.938 2.28454
391 1 18.8695 18.8696 22.0138 -8.94926
528 1 7.86034 17.3001 11.0079 -8.95368
529 1 11.0059 17.2956 11.0063 -8.94751
530 1 14.1539 17.3003 11.0061 -8.94792
686 1 20.4416 20.4417 20.4417 -8.9491
685 1 18.8697 18.8699 18.8698 -8.94869
533 1 1.57163 20.4422 11.0071 -8.94949
387 1 12.5795 18.8697 22.0136 -8.94939
535 1 7.86242 20.4424 11.0071 -8.94996
536 1 11.0066 20.4417 11.0068 -8.94855
537 1 14.1523 20.4425 11.0068 -8.94971
684 1 17.2968 20.4418 20.4416 -8.94964
539 1 20.4414 20.4419 11.007 -8.94954
540 1 1.56758 11.007 14.1548 -8.94913
541 1 4.70437 11.007 14.1612 -8.93947
542 1 7.85242 11.007 14.1378 -8.95376
543 1 11.0265 11.007 14.1437 -8.98796
544 1 14.17 11.007 14.1669 -8.93758
545 1 17.3042 11.007 14.1561 -8.94807
546 1 20.4423 11.007 14.1533 -8.95023
547 1 22.0112 12.5801 12.5803 -8.95181
548 1 1.56764 14.1543 14.1547 -8.95111
549 1 3.1312 12.5827 12.5839 -8.95594
550 1 4.70173 14.166 14.1672 -8.92676
551 1 6.24253 12.6198 12.624 -8.82054
552 1 7.86179 14.156 14.1598 -8.95186
553 1 9.43527 12.5828 12.5688 -8.6388
554 1 11.0052 14.1582 14.1615 -8.94196
555 1 12.6542 12.6546 12.6551 -8.7068
556 1 14.1783 14.1781 14.1784 -8.90109
557 1 15.7447 12.5856 12.587 -8.96031
558 1 17.3048 14.1562 14.1561 -8.95228
559 1 18.8736 12.5803 12.5804 -8.95323
560 1 20.4423 14.153 14.153 -8.95107
561 1 -0.00171106 15.7258 12.58 -8.94975
562 1 1.5703 17.2988 14.1532 -8.94942
563 1 3.13836 15.7292 12.5822 -8.94885
564 1 4.71282 17.3034 14.1566 -8.94796
565 1 6.27717 15.7408 12.5904 -8.9473
566 1 7.86282 17.2986 14.1531 -8.95015
567 1 9.4348 15.7217 12.5779 -8.95285
568 1 11.0058 17.2994 14.1534 -8.94925
569 1 12.5872 15.7419 12.5865 -8.96397
570 1 14.1556 17.3048 14.1558 -8.95204
571 1 15.7297 15.7296 12.5805 -8.94943
572 1 17.2987 17.2991 14.1527 -8.94988
573 1 18.8708 15.7259 12.5797 -8.94951
574 1 20.4415 17.2978 14.1523 -8.94958
575 1 22.0133 18.87 12.5796 -8.94938
576 1 1.57174 20.4422 14.1523 -8.94946
577 1 3.14315 18.8714 12.5802 -8.94905
578 1 4.71659 20.443 14.1527 -8.95083
579 1 6.28874 18.873 12.5805 -8.95347
580 1 7.86237 20.4422 14.1523 -8.94945
581 1 9.4347 18.8695 12.5796 -8.94804
582 1 11.0068 20.4423 14.1523 -8.94965
583 1 12.5793 18.8725 12.5794 -8.95478
584 1 14.1522 20.4431 14.1522 -8.95144
585 1 15.7252 18.8711 12.5793 -8.94949
586 1 17.2971 20.4422 14.1519 -8.94964
587 1 18.8695 18.87 12.5794 -8.94936
588 1 20.4414 20.4419 14.152 -8.9495
589 1 1.57117 11.007 17.2984 -8.94943
590 1 4.71497 11.007 17.3006 -8.94882
591 1 7.86255 11.007 17.295 -8.94443
592 1 11.0065 11.007 17.2973 -8.94472
593 1 14.1557 11.007 17.3034 -8.9476
594 1 17.2992 11.007 17.2994 -8.94903
595 1 20.4419 11.007 17.2979 -8.94943
596 1 -0.000964973 12.5799 15.7259 -8.94921
597 1 1.57126 14.1525 17.2984 -8.94917
598 1 3.14097 12.5807 15.7285 -8.94722
599 1 4.71567 14.1533 17.3009 -8.95196
600 1 6.287 12.5801 15.7326 -8.96161
601 1 7.86304 14.1519 17.2983 -8.95241
602 1 9.4352 12.5755 15.718 -8.9508
603 1 11.0053 14.1528 17.2995 -8.95132
604 1 12.5851 12.583 15.7409 -8.96654
605 1 14.155 14.1554 17.3043 -8.95318
606 1 15.7309 12.5816 15.7312 -8.9466
607 1 17.2991 14.1532 17.2993 -8.94907
608 1 18.8715 12.5801 15.7263 -8.94904
609 1 20.4419 14.1523 17.2978 -8.94929
610 1 22.0129 15.7256 15.7258 -8.95
611 1 1.57112 17.2982 17.2984 -8.94816
612 1 3.14003 15.729 15.7296 -8.94406
613 1 4.71653 17.2981 17.2985 -8.95014
614 1 6.28837 15.7271 15.7286 -8.95105
615 1 7.86187 17.2979 17.298 -8.94842
616 1 9.43383 15.727 15.7275 -8.94288
617 1 11.0066 17.2982 17.2982 -8.94858
618 1 12.58 15.7287 15.7293 -8.94935
619 1 14.1524 17.2988 17.2988 -8.94992
620 1 15.7326 15.7331 15.7329 -8.93744
621 1 17.2991 17.2994 17.2993 -8.94643
622 1 18.8717 15.7263 15.7263 -8.94992
623 1 20.4419 17.2977 17.2977 -8.9494
624 1 -0.000530487 18.8699 15.7248 -8.94954
625 1 1.57186 20.4421 17.2973 -8.9493
626 1 3.14326 18.8714 15.7261 -8.94887
627 1 4.71717 20.4419 17.2971 -8.94975
628 1 6.28975 18.8703 15.7252 -8.94981
629 1 7.862 20.442 17.2973 -8.94938
630 1 9.43435 18.8706 15.7254 -8.94925
631 1 11.0069 20.442 17.2973 -8.94944
632 1 12.5792 18.8708 15.7252 -8.94954
633 1 14.1519 20.4421 17.2972 -8.94966
634 1 15.7259 18.8721 15.726 -8.94983
635 1 17.2973 20.4423 17.2974 -8.94953
636 1 18.8697 18.8701 15.7247 -8.94973
637 1 20.4415 20.4419 17.297 -8.94961
638 1 1.572 11.007 20.4419 -8.94954
639 1 4.71674 11.007 20.4422 -8.95005
640 1 7.86214 11.007 20.4413 -8.94831
641 1 11.0063 11.007 20.4415 -8.94875
642 1 14.1527 11.007 20.4425 -8.95032
643 1 17.2976 11.007 20.4421 -8.94947
644 1 20.4417 11.007 20.4418 -8.94953
645 1 22.0137 12.5795 18.8699 -8.94949
646 1 1.57205 14.152 20.4419 -8.94949
647 1 3.14394 12.5797 18.8707 -8.94934
648 1 4.71697 14.152 20.4422 -8.95039
649 1 6.28965 12.5792 18.8707 -8.95179
650 1 7.86208 14.152 20.4414 -8.95016
651 1 9.43419 12.5791 18.8685 -8.94713
652 1 11.0064 14.1522 20.4417 -8.95013
653 1 12.5795 12.5796 18.8725 -8.95366
654 1 14.1523 14.1525 20.4425 -8.95122
655 1 15.7259 12.58 18.8716 -8.94916
656 1 17.2975 14.1523 20.4421 -8.94938
657 1 18.8699 12.5796 18.8701 -8.94936
658 1 20.4417 14.152 20.4418 -8.94951
659 1 -0.000181066 15.7246 18.8698 -8.94952
660 1 1.5721 17.2971 20.4419 -8.94971
661 1 3.14406 15.7251 18.8707 -8.95005
662 1 4.71699 17.2971 20.4416 -8.94998
663 1 6.28968 15.7247 18.8701 -8.95042
664 1 7.86187 17.2974 20.4416 -8.94938
665 1 9.43414 15.7253 18.8704 -8.94933
666 1 11.0069 17.2974 20.4417 -8.94942
667 1 12.5791 15.7252 18.8706 -8.94988
668 1 14.1519 17.2974 20.4418 -8.94973
669 1 15.7258 15.726 18.8717 -8.95016
670 1 17.2974 17.2976 20.442 -8.94951
671 1 18.8699 15.7249 18.87 -8.9495
672 1 20.4417 17.297 20.4417 -8.94959
673 1 22.0137 18.8697 18.8697 -8.94912
674 1 1.57227 20.4417 20.4416 -8.94953
675 1 3.14449 18.8697 18.8697 -8.94975
676 1 4.71715 20.4417 20.4415 -8.9495
677 1 6.28954 18.8696 18.8695 -8.94929
678 1 7.86202 20.4418 20.4416 -8.94954
679 1 9.4344 18.8698 18.8696 -8.94951
680 1 11.007 20.4418 20.4416 -8.94955
681 1 12.5794 18.8698 18.8696 -8.94928
682 1 14.1519 20.4418 20.4416 -8.94949
683 1 15.7246 18.8699 18.8698 -8.94976
355 1 6.28952 12.5792 22.0136 -8.94989
357 1 9.43418 12.5794 22.013 -8.94876
359 1 12.5795 12.5796 22.0126 -8.95159
365 1 22.0138 15.7244 22.0138 -8.9495
367 1 3.14448 15.7244 22.0137 -8.95008
369 1 6.2893 15.7247 22.0129 -8.95044
375 1 15.7252 15.7253 22.0133 -8.95015
381 1 3.14445 18.8695 22.0135 -8.94953
379 1 22.0138 18.8694 22.0138 -8.94956
351 1 22.0138 12.5795 22.0138 -8.94955
363 1 18.8697 12.5795 22.0137 -8.94951
385 1 9.43448 18.8697 22.0136 -8.9495
