ITEM: TIMESTEP
77
ITEM: NUMBER OF ATOMS
688
ITEM: BOX BOUNDS pp pp pp
0.0000000000000000e+00 2.2013900999999997e+01
0.0000000000000000e+00 2.2013900999999997e+01
0.0000000000000000e+00 2.2013900999999997e+01
ITEM: ATOMS id type x y z c_pot
189 1 20.4414 4.7165 11.007 -8.94947
2 1 1.57217 1.57222 1.57213 -8.9493
175 1 18.8712 9.43378 9.43397 -8.94957
4 1 4.71712 1.57218 1.57211 -8.94964
174 1 15.7316 9.43198 9.4318 -8.94774
6 1 7.86207 1.57215 1.5721 -8.94956
7 1 9.43452 -3.8335e-16 -0.000102259 -8.94961
8 1 11.007 1.57214 1.5721 -8.94957
173 1 12.5963 9.41135 9.39975 -8.83466
10 1 14.1519 1.57218 1.57218 -8.94952
172 1 9.36937 9.19565 9.40799 -7.80748
12 1 17.2969 1.57214 1.57217 -8.94952
188 1 17.2979 4.71576 11.0067 -8.94895
14 1 20.4415 1.57226 1.57229 -8.94944
171 1 6.24869 9.38919 9.39716 -8.86268
16 1 1.57207 4.71697 1.57195 -8.94986
170 1 3.13304 9.43165 9.43113 -8.95503
18 1 4.71652 4.71643 1.57109 -8.94949
169 1 22.0114 9.43408 9.43394 -8.951
20 1 7.8619 4.71642 1.57135 -8.94917
183 1 1.57072 4.71573 11.0072 -8.94919
22 1 11.007 4.71638 1.57145 -8.94926
168 1 18.8702 6.2884 9.43421 -8.94921
24 1 14.1521 4.71643 1.57154 -8.94977
167 1 15.7275 6.28606 9.43342 -8.94544
26 1 17.2975 4.71637 1.57162 -8.94874
166 1 12.5795 6.28579 9.43348 -8.95488
28 1 20.4417 4.71703 1.57216 -8.94962
165 1 9.42992 6.29979 9.43619 -9.00955
30 1 1.57209 7.862 1.57195 -8.94942
164 1 6.28034 6.27553 9.43387 -8.95525
32 1 4.71692 7.86221 1.57143 -8.95029
163 1 3.1393 6.28534 9.43362 -8.94722
34 1 7.86176 7.86168 1.5701 -8.95204
35 1 9.43434 6.28901 -0.000663032 -8.94972
36 1 11.0066 7.86136 1.5701 -8.95051
37 1 12.5794 6.28913 -0.00057437 -8.94973
38 1 14.1531 7.86083 1.56957 -8.95119
162 1 -0.00148435 6.28849 9.43426 -8.94951
40 1 17.2976 7.86166 1.57157 -8.94935
161 1 18.8694 3.14425 9.43443 -8.94952
42 1 20.4417 7.86198 1.57211 -8.94953
181 1 17.297 1.57199 11.0069 -8.94956
44 1 3.14446 9.43446 -0.000190039 -8.94966
160 1 15.725 3.14342 9.43429 -8.94937
159 1 12.5794 3.14353 9.43469 -8.9501
158 1 9.43452 3.14499 9.43485 -8.94475
48 1 15.725 9.43426 -0.000552719 -8.94947
157 1 6.28842 3.14088 9.43482 -8.95135
50 1 22.0137 1.29522e-15 3.14468 -8.9496
51 1 1.57198 1.57199 4.71691 -8.94965
52 1 3.1445 1.58532e-15 3.14443 -8.94957
53 1 4.71668 1.57147 4.71652 -8.94998
54 1 6.28959 1.05821e-15 3.14444 -8.94951
55 1 7.86208 1.57155 4.71658 -8.94947
56 1 9.43458 5.08006e-16 3.14442 -8.94955
57 1 11.0072 1.57162 4.71661 -8.94939
58 1 12.5795 1.12138e-15 3.14448 -8.94945
59 1 14.1521 1.57168 4.71693 -8.95037
60 1 15.7244 8.04907e-16 3.1446 -8.94988
61 1 17.2969 1.57208 4.7171 -8.94972
62 1 18.8691 2.43876e-16 3.14475 -8.94966
63 1 20.4414 1.57225 4.71716 -8.9496
64 1 22.0135 3.14437 3.14437 -8.94919
65 1 1.57046 4.71565 4.71561 -8.9483
66 1 3.14387 3.14381 3.14372 -8.94834
67 1 4.71366 4.7133 4.71318 -8.94431
68 1 6.28936 3.14385 3.14389 -8.94952
69 1 7.86144 4.71412 4.71468 -8.94853
70 1 9.43459 3.14383 3.14393 -8.94949
71 1 11.0075 4.71456 4.71505 -8.94729
72 1 12.5796 3.14389 3.14411 -8.94913
73 1 14.1541 4.71344 4.71472 -8.94903
74 1 15.725 3.14366 3.14402 -8.94936
75 1 17.298 4.71587 4.71626 -8.94906
76 1 18.8693 3.14439 3.14451 -8.94945
77 1 20.4414 4.71667 4.71676 -8.94969
78 1 22.0137 6.28946 3.14434 -8.94974
79 1 1.57123 7.86184 4.71601 -8.94948
80 1 3.14377 6.28908 3.14325 -8.95071
81 1 4.71487 7.86142 4.71324 -8.95389
82 1 6.28767 6.28744 3.14052 -8.95016
83 1 7.85789 7.85681 4.70662 -8.95618
84 1 9.43427 6.28748 3.14167 -8.94807
85 1 11.0067 7.8588 4.70901 -8.95399
86 1 12.58 6.28777 3.1419 -8.9499
87 1 14.1613 7.853 4.70629 -8.93798
88 1 15.7272 6.28667 3.14155 -8.94644
89 1 17.2998 7.86058 4.71531 -8.95036
90 1 18.87 6.28906 3.1441 -8.94966
91 1 20.4419 7.86178 4.71661 -8.94981
92 1 -0.000217313 9.43443 3.14422 -8.94952
93 1 3.14381 9.43441 3.14328 -8.94886
94 1 6.28947 9.43548 3.14303 -8.95089
95 1 9.43408 9.43442 3.14279 -8.94908
96 1 12.5817 9.43334 3.13703 -8.95701
97 1 15.7269 9.43356 3.14185 -8.94817
98 1 18.87 9.43431 3.14403 -8.94939
99 1 22.0137 2.27335e-16 6.2896 -8.94957
100 1 1.57195 1.57197 7.86198 -8.94952
101 1 3.14438 1.06852e-15 6.2894 -8.94976
102 1 4.71659 1.57113 7.86183 -8.95006
103 1 6.28949 1.46278e-15 6.28931 -8.95062
104 1 7.86227 1.57089 7.86204 -8.95155
105 1 9.43475 1.16795e-15 6.28923 -8.95022
106 1 11.0069 1.57176 7.8622 -8.94991
107 1 12.5795 1.05492e-15 6.28959 -8.9503
108 1 14.152 1.57172 7.8621 -8.94999
109 1 15.7244 5.5451e-16 6.2896 -8.9498
110 1 17.297 1.57203 7.86199 -8.9495
111 1 18.8692 7.89718e-16 6.28961 -8.94955
112 1 20.4415 1.57221 7.86204 -8.94958
113 1 -0.000429436 3.14431 6.28944 -8.9495
114 1 1.57069 4.71569 7.86152 -8.94905
115 1 3.14356 3.14305 6.28876 -8.94977
116 1 4.71377 4.7117 7.86012 -8.95015
117 1 6.28859 3.14131 6.28822 -8.95156
118 1 7.8608 4.70904 7.86059 -8.96051
119 1 9.43486 3.14201 6.28836 -8.94985
120 1 11.0057 4.71464 7.86191 -8.95479
121 1 12.5796 3.14268 6.28928 -8.95203
122 1 14.1528 4.71416 7.86166 -8.95088
123 1 15.7248 3.14359 6.28939 -8.94996
124 1 17.2977 4.7159 7.86172 -8.9489
125 1 18.8693 3.14436 6.28952 -8.94948
126 1 20.4414 4.71654 7.86187 -8.94939
127 1 22.0123 6.28863 6.28866 -8.95033
128 1 1.56712 7.86009 7.86004 -8.95276
129 1 3.138 6.28449 6.2844 -8.94593
130 1 4.69692 7.84722 7.84782 -8.94019
131 1 6.27734 6.27641 6.27647 -8.92751
132 1 7.82236 7.822 7.82262 -8.83964
133 1 9.43414 6.28123 6.2835 -8.94523
134 1 11.0235 7.84704 7.83337 -8.88805
135 1 12.5855 6.27963 6.28207 -8.9478
136 1 14.1644 7.85177 7.8534 -8.94077
137 1 15.7287 6.28562 6.28659 -8.94741
138 1 17.3006 7.86015 7.86096 -8.951
139 1 18.8702 6.28869 6.28901 -8.94999
140 1 20.4414 7.86137 7.86154 -8.95058
141 1 -0.000914149 9.43434 6.28867 -8.94944
142 1 3.14148 9.43446 6.28662 -8.94798
143 1 6.28654 9.4373 6.28347 -8.96393
144 1 9.42263 9.4191 6.28611 -8.93166
145 1 12.6094 9.41136 6.25641 -8.89667
146 1 15.7329 9.43222 6.28518 -8.95456
147 1 18.8711 9.43415 6.28878 -8.95073
148 1 -0.000195221 7.96273e-16 9.43451 -8.94959
149 1 3.14429 -8.53038e-17 9.4345 -8.94961
150 1 6.2894 3.78565e-16 9.43465 -8.95065
151 1 9.43474 8.86369e-16 9.43459 -8.94807
152 1 12.5795 8.72255e-16 9.43459 -8.9498
153 1 15.7246 4.6483e-16 9.43444 -8.94971
154 1 18.8692 1.56995e-15 9.43449 -8.94959
155 1 22.0135 3.14425 9.43448 -8.94951
156 1 3.14354 3.14309 9.43442 -8.94934
177 1 4.71647 1.57114 11.0072 -8.94965
184 1 4.71351 4.71231 11.008 -8.94713
3 1 3.14478 1.77923e-15 -9.203e-05 -8.94964
11 1 15.7243 7.95967e-16 -6.22755e-05 -8.9496
41 1 18.8694 6.28949 -0.000125806 -8.94957
19 1 6.28957 3.14452 -0.000229099 -8.94947
25 1 15.7244 3.14453 -0.000159258 -8.9497
176 1 1.57192 1.57197 11.007 -8.94954
47 1 12.5795 9.43437 22.0127 -8.95153
178 1 7.8624 1.57143 11.0071 -8.95009
179 1 11.0067 1.5721 11.0068 -8.94869
180 1 14.1522 1.57159 11.0068 -8.94968
343 1 18.8696 9.43442 18.8697 -8.94945
182 1 20.4415 1.5722 11.007 -8.94959
342 1 15.7254 9.43415 18.871 -8.94918
46 1 9.43423 9.43448 22.0132 -8.94896
185 1 7.86075 4.7134 11.0079 -8.95368
186 1 11.0059 4.71781 11.0063 -8.94719
187 1 14.1535 4.71406 11.0061 -8.94802
341 1 12.5794 9.43436 18.8722 -8.95347
340 1 9.43415 9.43467 18.8689 -8.94742
190 1 1.56731 7.86018 11.0071 -8.95109
191 1 4.69973 7.85328 11.0088 -8.95141
192 1 7.81691 7.84646 11.0365 -8.86621
193 1 11.0338 7.86876 11.0246 -8.8996
194 1 14.164 7.85553 11.0045 -8.94775
195 1 17.301 7.85994 11.0063 -8.94956
196 1 20.4415 7.86122 11.0069 -8.95024
197 1 22.0137 8.76304e-16 12.5794 -8.94959
198 1 1.572 1.572 14.152 -8.94952
199 1 3.14433 6.97753e-16 12.5796 -8.94953
200 1 4.71674 1.57121 14.1525 -8.95066
201 1 6.28962 9.22804e-16 12.5796 -8.95092
202 1 7.86233 1.57181 14.1522 -8.94948
203 1 9.43468 4.23491e-16 12.5796 -8.94918
204 1 11.0068 1.57167 14.1522 -8.94967
205 1 12.5793 6.10403e-16 12.5793 -8.95087
206 1 14.1521 1.57115 14.1521 -8.95119
207 1 15.7245 1.18635e-15 12.5794 -8.94964
208 1 17.297 1.572 14.1518 -8.94963
209 1 18.8692 1.71421e-15 12.5794 -8.94957
210 1 20.4415 1.57222 14.1519 -8.94956
211 1 22.0135 3.14427 12.5795 -8.94946
212 1 1.57083 4.71577 14.1528 -8.94945
213 1 3.14362 3.14313 12.5799 -8.94912
214 1 4.71351 4.71138 14.1559 -8.94782
215 1 6.28895 3.14121 12.5803 -8.95325
216 1 7.86297 4.71538 14.153 -8.95017
217 1 9.43479 3.1442 12.5797 -8.94811
218 1 11.0058 4.71457 14.1533 -8.94927
219 1 12.5793 3.14173 12.5793 -8.95445
220 1 14.1549 4.71021 14.1551 -8.95208
221 1 15.7249 3.14333 12.5793 -8.94949
222 1 17.2981 4.71555 14.1523 -8.94989
223 1 18.8694 3.14427 12.5794 -8.94943
224 1 20.4415 4.71659 14.152 -8.94958
225 1 -0.00130803 6.2886 12.5798 -8.94972
226 1 1.56848 7.8602 14.154 -8.95106
227 1 3.1395 6.28561 12.5817 -8.94894
228 1 4.70336 7.84902 14.166 -8.92762
229 1 6.27834 6.27372 12.59 -8.94681
230 1 7.86224 7.85777 14.16 -8.95192
231 1 9.43497 6.2915 12.578 -8.95307
232 1 11.0045 7.85564 14.1614 -8.94134
233 1 12.5858 6.27289 12.5856 -8.96424
234 1 14.1763 7.8373 14.1767 -8.90185
235 1 15.7286 6.28529 12.58 -8.94946
236 1 17.3035 7.85857 14.1552 -8.95226
237 1 18.8704 6.2885 12.5795 -8.94946
238 1 20.4421 7.86129 14.1526 -8.95094
239 1 22.0117 9.43401 12.5801 -8.95158
240 1 3.13292 9.43166 12.5834 -8.9557
241 1 6.2455 9.39517 12.6227 -8.82213
242 1 9.43586 9.43065 12.5704 -8.63473
243 1 12.6509 9.36023 12.6542 -8.70676
244 1 15.7427 9.42881 12.586 -8.96007
245 1 18.8729 9.4338 12.5801 -8.95296
246 1 -0.000147962 7.16583e-16 15.7243 -8.9496
247 1 1.57205 1.57204 17.297 -8.94935
248 1 3.14445 -7.96952e-17 15.7247 -8.94988
249 1 4.71722 1.57215 17.2969 -8.94975
250 1 6.28973 4.30104e-16 15.7245 -8.94957
251 1 7.86202 1.57206 17.2971 -8.94944
252 1 9.43451 6.32418e-16 15.7247 -8.94971
253 1 11.0069 1.57201 17.2971 -8.94948
254 1 12.5794 7.51716e-16 15.7245 -8.94961
255 1 14.1518 1.57203 17.297 -8.94964
256 1 15.7245 1.34056e-15 15.7246 -8.95023
257 1 17.2971 1.57189 17.2971 -8.94955
258 1 18.8692 1.76555e-15 15.7243 -8.94965
259 1 20.4415 1.57223 17.2968 -8.94966
260 1 -0.000362269 3.14434 15.7245 -8.94958
261 1 1.57143 4.71614 17.2979 -8.9483
262 1 3.14363 3.1431 15.7256 -8.94888
263 1 4.71672 4.71619 17.2981 -8.95004
264 1 6.2898 3.14388 15.7249 -8.9498
265 1 7.86191 4.71621 17.2978 -8.94851
266 1 9.4344 3.14351 15.7252 -8.94927
267 1 11.0067 4.716 17.2979 -8.94867
268 1 12.5792 3.14346 15.7249 -8.94951
269 1 14.1522 4.71571 17.2982 -8.94989
270 1 15.7254 3.14257 15.7255 -8.94983
271 1 17.2985 4.71522 17.2986 -8.94669
272 1 18.8694 3.14427 15.7245 -8.94975
273 1 20.4418 4.71663 17.2973 -8.94946
274 1 22.0131 6.28875 15.7252 -8.94997
275 1 1.57158 7.86167 17.2978 -8.94928
276 1 3.14081 6.2857 15.7286 -8.94439
277 1 4.716 7.86093 17.3003 -8.95185
278 1 6.28866 6.28722 15.7281 -8.95094
279 1 7.86289 7.86187 17.2985 -8.95216
280 1 9.43384 6.2869 15.7274 -8.94301
281 1 11.0053 7.86116 17.2995 -8.95115
282 1 12.5796 6.2858 15.7285 -8.94926
283 1 14.1544 7.85914 17.3033 -8.953
284 1 15.7315 6.28213 15.7316 -8.93792
285 1 17.2983 7.86126 17.2985 -8.94923
286 1 18.8711 6.28821 15.7256 -8.94992
287 1 20.4418 7.86184 17.2973 -8.94937
288 1 -0.000748939 9.43422 15.7254 -8.94925
289 1 3.14182 9.43354 15.7276 -8.94747
290 1 6.28764 9.43393 15.7321 -8.9615
291 1 9.43464 9.4379 15.7194 -8.95069
292 1 12.584 9.4311 15.7403 -8.9661
293 1 15.7295 9.43286 15.7299 -8.94692
294 1 18.8709 9.43411 15.7256 -8.94911
295 1 22.0138 7.63388e-16 18.8692 -8.94944
296 1 1.57234 1.57228 20.4415 -8.94958
297 1 3.1448 -1.10234e-15 18.8692 -8.94972
298 1 4.71721 1.5723 20.4415 -8.94956
299 1 6.28962 -3.77862e-16 18.8692 -8.94952
300 1 7.86206 1.57226 20.4415 -8.94959
301 1 9.4345 -7.38924e-16 18.8693 -8.94959
302 1 11.007 1.57225 20.4415 -8.9496
303 1 12.5794 1.20662e-15 18.8692 -8.94953
304 1 14.1518 1.57228 20.4415 -8.94955
305 1 15.7243 1.07793e-15 18.8692 -8.94966
306 1 17.2967 1.57227 20.4416 -8.94968
307 1 18.8692 1.84102e-15 18.8693 -8.94949
308 1 20.4415 1.57229 20.4416 -8.94928
309 1 22.0138 3.1445 18.8694 -8.94924
310 1 1.57221 4.71704 20.4417 -8.94969
311 1 3.14462 3.14446 18.8694 -8.94972
312 1 4.71707 4.71695 20.4415 -8.94989
313 1 6.28959 3.14447 18.8694 -8.94935
314 1 7.86194 4.71677 20.4416 -8.94941
315 1 9.43445 3.14434 18.8695 -8.94957
316 1 11.0069 4.71673 20.4417 -8.94946
317 1 12.5794 3.14439 18.8694 -8.94936
318 1 14.1518 4.71682 20.4417 -8.94969
319 1 15.7244 3.14433 18.8695 -8.94976
320 1 17.2972 4.7167 20.4418 -8.94953
321 1 18.8695 3.14432 18.8695 -8.94887
322 1 20.4416 4.71713 20.4416 -8.94965
323 1 -0.000138327 6.28949 18.8695 -8.94959
324 1 1.57216 7.86199 20.4417 -8.94952
325 1 3.14425 6.28911 18.8702 -8.95
326 1 4.71704 7.862 20.442 -8.95029
327 1 6.28966 6.28929 18.87 -8.95025
328 1 7.86206 7.86192 20.4415 -8.95016
329 1 9.43422 6.28872 18.8703 -8.94931
330 1 11.0065 7.86174 20.4417 -8.95008
331 1 12.5791 6.28897 18.8703 -8.94978
332 1 14.1522 7.86156 20.4423 -8.95106
333 1 15.7254 6.28838 18.8711 -8.9501
334 1 17.2972 7.86185 20.4418 -8.94942
335 1 18.8695 6.28936 18.8696 -8.9496
336 1 20.4416 7.86203 20.4416 -8.94958
337 1 22.0137 9.43446 18.8695 -8.94956
338 1 3.14416 9.43434 18.8702 -8.94934
339 1 6.28967 9.43469 18.8706 -8.95165
45 1 6.28953 9.43466 22.0136 -8.94991
5 1 6.28964 6.38967e-16 22.0138 -8.94959
9 1 12.5794 2.22574e-16 22.0138 -8.94959
39 1 15.7249 6.28896 22.0134 -8.95007
15 1 22.0138 3.14469 22.0138 -8.9496
17 1 3.1446 3.14455 22.0136 -8.94954
33 1 6.28938 6.2893 22.0131 -8.95034
23 1 12.5794 3.14448 22.0137 -8.94946
31 1 3.1446 6.28956 22.0138 -8.94999
27 1 18.8693 3.14455 22.0138 -8.94933
29 1 22.0138 6.2896 22.0138 -8.94955
1 1 22.0138 1.35896e-15 22.0138 -8.94943
13 1 18.8691 1.41622e-15 22.0138 -8.94949
21 1 9.43451 3.14446 22.0137 -8.94955
43 1 22.0138 9.43449 22.0138 -8.94959
49 1 18.8694 9.43446 22.0138 -8.94956
344 1 1.57203 11.007 1.5719 -8.94957
345 1 4.7166 11.007 1.57126 -8.9499
346 1 7.86203 11.007 1.57209 -8.9471
347 1 11.0067 11.007 1.57035 -8.94889
348 1 14.1535 11.007 1.56939 -8.94954
349 1 17.2976 11.007 1.57156 -8.94951
350 1 20.4417 11.007 1.57208 -8.94956
538 1 17.297 20.4419 11.0069 -8.94956
352 1 1.57209 14.1519 1.57195 -8.94942
353 1 3.14446 12.5794 -0.000190039 -8.94966
354 1 4.71692 14.1517 1.57143 -8.95029
688 3 10.2333 11.007 9.53439 2.25371
356 1 7.86176 14.1522 1.5701 -8.95204
511 1 18.8694 18.8696 9.43443 -8.94952
358 1 11.0066 14.1525 1.5701 -8.95051
510 1 15.725 18.8705 9.43429 -8.94937
360 1 14.1531 14.1531 1.56957 -8.95119
361 1 15.725 12.5796 -0.000552719 -8.94947
362 1 17.2976 14.1522 1.57157 -8.94935
532 1 20.4414 17.2974 11.007 -8.94947
364 1 20.4417 14.1519 1.57211 -8.94953
509 1 12.5794 18.8704 9.43469 -8.9501
366 1 1.57207 17.2969 1.57195 -8.94986
508 1 9.43452 18.8689 9.43485 -8.94475
368 1 4.71652 17.2975 1.57109 -8.94949
507 1 6.28842 18.873 9.43482 -8.95135
370 1 7.8619 17.2975 1.57135 -8.94917
371 1 9.43434 15.7249 -0.000663032 -8.94972
372 1 11.007 17.2975 1.57145 -8.94926
373 1 12.5794 15.7248 -0.00057437 -8.94973
374 1 14.1521 17.2975 1.57154 -8.94977
506 1 3.14354 18.8708 9.43442 -8.94934
376 1 17.2975 17.2975 1.57162 -8.94874
505 1 22.0135 18.8696 9.43448 -8.94951
378 1 20.4417 17.2969 1.57216 -8.94962
504 1 18.8702 15.7255 9.43421 -8.94921
380 1 1.57217 20.4417 1.57213 -8.9493
503 1 15.7275 15.7278 9.43342 -8.94544
382 1 4.71712 20.4417 1.57211 -8.94964
502 1 12.5795 15.7281 9.43348 -8.95488
384 1 7.86207 20.4417 1.5721 -8.94956
531 1 17.2979 17.2981 11.0067 -8.94895
386 1 11.007 20.4418 1.5721 -8.94957
501 1 9.42992 15.7141 9.43619 -9.00955
388 1 14.1519 20.4417 1.57218 -8.94952
500 1 6.28034 15.7384 9.43387 -8.95525
390 1 17.2969 20.4418 1.57217 -8.94952
499 1 3.1393 15.7286 9.43362 -8.94722
392 1 20.4415 20.4416 1.57229 -8.94944
393 1 1.57111 11.007 4.71579 -8.9494
394 1 4.71457 11.007 4.71336 -8.94595
395 1 7.86423 11.007 4.72129 -8.9365
396 1 11.0095 11.007 4.71309 -8.98733
397 1 14.16 11.007 4.70806 -8.94282
398 1 17.2999 11.007 4.71519 -8.94919
399 1 20.4419 11.007 4.71648 -8.94973
400 1 -0.000217313 12.5795 3.14422 -8.94952
401 1 1.57123 14.1521 4.71601 -8.94948
402 1 3.14381 12.5795 3.14328 -8.94886
403 1 4.71487 14.1525 4.71324 -8.95389
404 1 6.28947 12.5784 3.14303 -8.95089
405 1 7.85789 14.1571 4.70662 -8.95618
406 1 9.43408 12.5795 3.14279 -8.94908
407 1 11.0067 14.1551 4.70901 -8.95399
408 1 12.5817 12.5806 3.13703 -8.95701
409 1 14.1613 14.1609 4.70629 -8.93798
410 1 15.7269 12.5803 3.14185 -8.94817
411 1 17.2998 14.1533 4.71531 -8.95036
412 1 18.87 12.5796 3.14403 -8.94939
413 1 20.4419 14.1521 4.71661 -8.94981
414 1 22.0137 15.7244 3.14434 -8.94974
415 1 1.57046 17.2983 4.71561 -8.9483
416 1 3.14377 15.7248 3.14325 -8.95071
417 1 4.71366 17.3006 4.71318 -8.94431
418 1 6.28767 15.7265 3.14052 -8.95016
419 1 7.86144 17.2998 4.71468 -8.94853
420 1 9.43427 15.7264 3.14167 -8.94807
421 1 11.0075 17.2993 4.71505 -8.94729
422 1 12.58 15.7261 3.1419 -8.9499
423 1 14.1541 17.3005 4.71472 -8.94903
424 1 15.7272 15.7272 3.14155 -8.94644
425 1 17.298 17.298 4.71626 -8.94906
426 1 18.87 15.7248 3.1441 -8.94966
427 1 20.4414 17.2972 4.71676 -8.94969
428 1 22.0135 18.8695 3.14437 -8.94919
429 1 1.57198 20.4419 4.71691 -8.94965
430 1 3.14387 18.8701 3.14372 -8.94834
431 1 4.71668 20.4424 4.71652 -8.94998
432 1 6.28936 18.8701 3.14389 -8.94952
433 1 7.86208 20.4424 4.71658 -8.94947
434 1 9.43459 18.8701 3.14393 -8.94949
435 1 11.0072 20.4423 4.71661 -8.94939
436 1 12.5796 18.87 3.14411 -8.94913
437 1 14.1521 20.4422 4.71693 -8.95037
438 1 15.725 18.8702 3.14402 -8.94936
439 1 17.2969 20.4418 4.7171 -8.94972
440 1 18.8693 18.8695 3.14451 -8.94945
441 1 20.4414 20.4417 4.71716 -8.9496
442 1 1.56897 11.007 7.86012 -8.94753
443 1 4.71124 11.007 7.85718 -8.93569
444 1 7.87575 11.007 7.89435 -8.91519
445 1 11.0701 11.007 7.69584 -8.22818
446 1 14.1656 11.007 7.85252 -8.95965
447 1 17.3012 11.007 7.86099 -8.95058
448 1 20.4417 11.007 7.86146 -8.94983
449 1 -0.000914149 12.5796 6.28867 -8.94944
450 1 1.56712 14.1538 7.86004 -8.95276
451 1 3.14148 12.5794 6.28662 -8.94798
452 1 4.69692 14.1667 7.84782 -8.94019
453 1 6.28654 12.5766 6.28347 -8.96393
454 1 7.82236 14.1919 7.82262 -8.83964
455 1 9.42263 12.5948 6.28611 -8.93166
456 1 11.0235 14.1669 7.83337 -8.88805
457 1 12.6094 12.6025 6.25641 -8.89667
458 1 14.1644 14.1621 7.8534 -8.94077
459 1 15.7329 12.5817 6.28518 -8.95456
460 1 17.3006 14.1538 7.86096 -8.951
461 1 18.8711 12.5798 6.28878 -8.95073
462 1 20.4414 14.1525 7.86154 -8.95058
463 1 22.0123 15.7253 6.28866 -8.95033
464 1 1.57069 17.2982 7.86152 -8.94905
465 1 3.138 15.7294 6.2844 -8.94593
466 1 4.71377 17.3022 7.86012 -8.95015
467 1 6.27734 15.7375 6.27647 -8.92751
468 1 7.8608 17.3049 7.86059 -8.96051
469 1 9.43414 15.7327 6.2835 -8.94523
470 1 11.0057 17.2993 7.86191 -8.95479
471 1 12.5855 15.7343 6.28207 -8.9478
472 1 14.1528 17.2997 7.86166 -8.95088
473 1 15.7287 15.7283 6.28659 -8.94741
474 1 17.2977 17.298 7.86172 -8.9489
475 1 18.8702 15.7252 6.28901 -8.94999
476 1 20.4414 17.2974 7.86187 -8.94939
477 1 -0.000429436 18.8696 6.28944 -8.9495
478 1 1.57195 20.4419 7.86198 -8.94952
479 1 3.14356 18.8708 6.28876 -8.94977
480 1 4.71659 20.4428 7.86183 -8.95006
481 1 6.28859 18.8726 6.28822 -8.95156
482 1 7.86227 20.443 7.86204 -8.95155
483 1 9.43486 18.8719 6.28836 -8.94985
484 1 11.0069 20.4421 7.8622 -8.94991
485 1 12.5796 18.8712 6.28928 -8.95203
486 1 14.152 20.4422 7.8621 -8.94999
487 1 15.7248 18.8703 6.28939 -8.94996
488 1 17.297 20.4419 7.86199 -8.9495
489 1 18.8693 18.8695 6.28952 -8.94948
490 1 20.4415 20.4417 7.86204 -8.94958
491 1 22.0114 12.5798 9.43394 -8.951
492 1 3.13304 12.5823 9.43113 -8.95503
493 1 6.24869 12.6247 9.39716 -8.86268
494 1 9.36937 12.8183 9.40799 -7.80748
495 1 12.5963 12.6025 9.39975 -8.83466
496 1 15.7316 12.5819 9.4318 -8.94774
497 1 18.8712 12.5801 9.43397 -8.94957
498 1 -0.00148435 15.7254 9.43426 -8.94951
526 1 1.57072 17.2982 11.0072 -8.94919
527 1 4.71351 17.3016 11.008 -8.94713
534 1 4.71647 20.4428 11.0072 -8.94965
389 1 15.7244 18.8694 -0.000159258 -8.9497
377 1 18.8694 15.7244 -0.000125806 -8.94957
383 1 6.28957 18.8694 -0.000229099 -8.94947
512 1 1.56603 11.007 11.0071 -8.9522
513 1 4.69421 11.007 11.0071 -9.01915
514 1 7.4993 11.007 11.021 -7.88625
515 1 11.4241 11.007 11.1786 -7.14687
516 1 14.1816 11.007 11.0163 -9.02011
517 1 17.3044 11.007 11.0067 -8.95454
518 1 20.4418 11.007 11.0068 -8.95072
519 1 1.56731 14.1537 11.0071 -8.95109
520 1 4.69973 14.1606 11.0088 -8.95141
521 1 7.81691 14.1674 11.0365 -8.86621
522 1 11.0338 14.1451 11.0246 -8.8996
523 1 14.164 14.1584 11.0045 -8.94775
524 1 17.301 14.154 11.0063 -8.94956
525 1 20.4415 14.1527 11.0069 -8.95024
687 3 9.45782 11.007 10.9486 2.28275
391 1 18.8693 18.8694 22.0138 -8.94933
528 1 7.86075 17.3005 11.0079 -8.95368
529 1 11.0059 17.2961 11.0063 -8.94719
530 1 14.1535 17.2998 11.0061 -8.94802
686 1 20.4415 20.4416 20.4416 -8.94928
685 1 18.8695 18.8696 18.8695 -8.94887
533 1 1.57192 20.4419 11.007 -8.94954
387 1 12.5794 18.8694 22.0137 -8.94946
535 1 7.8624 20.4425 11.0071 -8.95009
536 1 11.0067 20.4418 11.0068 -8.94869
537 1 14.1522 20.4423 11.0068 -8.94968
684 1 17.2967 20.4416 20.4416 -8.94968
539 1 20.4415 20.4417 11.007 -8.94959
540 1 1.56849 11.007 14.1542 -8.94916
541 1 4.70614 11.007 14.1602 -8.9402
542 1 7.85329 11.007 14.1383 -8.95308
543 1 11.0244 11.007 14.1469 -8.98686
544 1 14.1676 11.007 14.1653 -8.93793
545 1 17.3028 11.007 14.1552 -8.94808
546 1 20.4421 11.007 14.1529 -8.95012
547 1 22.0117 12.5799 12.5801 -8.95158
548 1 1.56848 14.1537 14.154 -8.95106
549 1 3.13292 12.5822 12.5834 -8.9557
550 1 4.70336 14.1649 14.166 -8.92762
551 1 6.2455 12.6187 12.6227 -8.82213
552 1 7.86224 14.1561 14.16 -8.95192
553 1 9.43586 12.5833 12.5704 -8.63473
554 1 11.0045 14.1583 14.1614 -8.94134
555 1 12.6509 12.6537 12.6542 -8.70676
556 1 14.1763 14.1766 14.1767 -8.90185
557 1 15.7427 12.5851 12.586 -8.96007
558 1 17.3035 14.1553 14.1552 -8.95226
559 1 18.8729 12.5801 12.5801 -8.95296
560 1 20.4421 14.1526 14.1526 -8.95094
561 1 -0.00130803 15.7253 12.5798 -8.94972
562 1 1.57083 17.2981 14.1528 -8.94945
563 1 3.1395 15.7283 12.5817 -8.94894
564 1 4.71351 17.3025 14.1559 -8.94782
565 1 6.27834 15.7402 12.59 -8.94681
566 1 7.86297 17.2985 14.153 -8.95017
567 1 9.43497 15.7224 12.578 -8.95307
568 1 11.0058 17.2993 14.1533 -8.94927
569 1 12.5858 15.741 12.5856 -8.96424
570 1 14.1549 17.3037 14.1551 -8.95208
571 1 15.7286 15.7286 12.58 -8.94946
572 1 17.2981 17.2983 14.1523 -8.94989
573 1 18.8704 15.7254 12.5795 -8.94946
574 1 20.4415 17.2973 14.152 -8.94958
575 1 22.0135 18.8696 12.5795 -8.94946
576 1 1.572 20.4419 14.152 -8.94952
577 1 3.14362 18.8708 12.5799 -8.94912
578 1 4.71674 20.4427 14.1525 -8.95066
579 1 6.28895 18.8727 12.5803 -8.95325
580 1 7.86233 20.4421 14.1522 -8.94948
581 1 9.43479 18.8697 12.5797 -8.94811
582 1 11.0068 20.4422 14.1522 -8.94967
583 1 12.5793 18.8722 12.5793 -8.95445
584 1 14.1521 20.4427 14.1521 -8.95119
585 1 15.7249 18.8706 12.5793 -8.94949
586 1 17.297 20.4419 14.1518 -8.94963
587 1 18.8694 18.8696 12.5794 -8.94943
588 1 20.4415 20.4417 14.1519 -8.94956
589 1 1.5715 11.007 17.2978 -8.94951
590 1 4.7154 11.007 17.3 -8.94883
591 1 7.86248 11.007 17.2955 -8.94428
592 1 11.0062 11.007 17.2981 -8.94553
593 1 14.1549 11.007 17.3024 -8.94754
594 1 17.2985 11.007 17.2986 -8.94911
595 1 20.4418 11.007 17.2974 -8.94949
596 1 -0.000748939 12.5797 15.7254 -8.94925
597 1 1.57158 14.1522 17.2978 -8.94928
598 1 3.14182 12.5804 15.7276 -8.94747
599 1 4.716 14.153 17.3003 -8.95185
600 1 6.28764 12.58 15.7321 -8.9615
601 1 7.86289 14.152 17.2985 -8.95216
602 1 9.43464 12.576 15.7194 -8.95069
603 1 11.0053 14.1527 17.2995 -8.95115
604 1 12.584 12.5828 15.7403 -8.9661
605 1 14.1544 14.1548 17.3033 -8.953
606 1 15.7295 12.581 15.7299 -8.94692
607 1 17.2983 14.1526 17.2985 -8.94923
608 1 18.8709 12.5798 15.7256 -8.94911
609 1 20.4418 14.1521 17.2973 -8.94937
610 1 22.0131 15.7252 15.7252 -8.94997
611 1 1.57143 17.2978 17.2979 -8.9483
612 1 3.14081 15.7282 15.7286 -8.94439
613 1 4.71672 17.2977 17.2981 -8.95004
614 1 6.28866 15.7267 15.7281 -8.95094
615 1 7.86191 17.2977 17.2978 -8.94851
616 1 9.43384 15.727 15.7274 -8.94301
617 1 11.0067 17.2979 17.2979 -8.94867
618 1 12.5796 15.7281 15.7285 -8.94926
619 1 14.1522 17.2982 17.2982 -8.94989
620 1 15.7315 15.7318 15.7316 -8.93792
621 1 17.2985 17.2987 17.2986 -8.94669
622 1 18.8711 15.7257 15.7256 -8.94992
623 1 20.4418 17.2973 17.2973 -8.94946
624 1 -0.000362269 18.8696 15.7245 -8.94958
625 1 1.57205 20.4419 17.297 -8.94935
626 1 3.14363 18.8708 15.7256 -8.94888
627 1 4.71722 20.4418 17.2969 -8.94975
628 1 6.2898 18.87 15.7249 -8.9498
629 1 7.86202 20.4418 17.2971 -8.94944
630 1 9.4344 18.8704 15.7252 -8.94927
631 1 11.0069 20.4419 17.2971 -8.94948
632 1 12.5792 18.8704 15.7249 -8.94951
633 1 14.1518 20.4419 17.297 -8.94964
634 1 15.7254 18.8713 15.7255 -8.94983
635 1 17.2971 20.442 17.2971 -8.94955
636 1 18.8694 18.8696 15.7245 -8.94975
637 1 20.4415 20.4417 17.2968 -8.94966
638 1 1.57213 11.007 20.4417 -8.94957
639 1 4.71685 11.007 20.442 -8.95
640 1 7.86212 11.007 20.4414 -8.9485
641 1 11.0064 11.007 20.4417 -8.94904
642 1 14.1525 11.007 20.4423 -8.95019
643 1 17.2973 11.007 20.4418 -8.94951
644 1 20.4416 11.007 20.4416 -8.94959
645 1 22.0137 12.5794 18.8695 -8.94956
646 1 1.57216 14.1519 20.4417 -8.94952
647 1 3.14416 12.5796 18.8702 -8.94934
648 1 4.71704 14.1519 20.442 -8.95029
649 1 6.28967 12.5792 18.8706 -8.95165
650 1 7.86206 14.152 20.4415 -8.95016
651 1 9.43415 12.5792 18.8689 -8.94742
652 1 11.0065 14.1522 20.4417 -8.95008
653 1 12.5794 12.5795 18.8722 -8.95347
654 1 14.1522 14.1523 20.4423 -8.95106
655 1 15.7254 12.5798 18.871 -8.94918
656 1 17.2972 14.152 20.4418 -8.94942
657 1 18.8696 12.5795 18.8697 -8.94945
658 1 20.4416 14.1519 20.4416 -8.94958
659 1 -0.000138327 15.7244 18.8695 -8.94959
660 1 1.57221 17.2969 20.4417 -8.94969
661 1 3.14425 15.7248 18.8702 -8.95
662 1 4.71707 17.2969 20.4415 -8.94989
663 1 6.28966 15.7246 18.87 -8.95025
664 1 7.86194 17.2971 20.4416 -8.94941
665 1 9.43422 15.7252 18.8703 -8.94931
666 1 11.0069 17.2972 20.4417 -8.94946
667 1 12.5791 15.7249 18.8703 -8.94978
668 1 14.1518 17.2971 20.4417 -8.94969
669 1 15.7254 15.7255 18.8711 -8.9501
670 1 17.2972 17.2972 20.4418 -8.94953
671 1 18.8695 15.7245 18.8696 -8.9496
672 1 20.4416 17.2968 20.4416 -8.94965
673 1 22.0138 18.8694 18.8694 -8.94924
674 1 1.57234 20.4416 20.4415 -8.94958
675 1 3.14462 18.8694 18.8694 -8.94972
676 1 4.71721 20.4416 20.4415 -8.94956
677 1 6.28959 18.8694 18.8694 -8.94935
678 1 7.86206 20.4416 20.4415 -8.94959
679 1 9.43445 18.8696 18.8695 -8.94957
680 1 11.007 20.4416 20.4415 -8.9496
681 1 12.5794 18.8695 18.8694 -8.94936
682 1 14.1518 20.4416 20.4415 -8.94955
683 1 15.7244 18.8696 18.8695 -8.94976
355 1 6.28953 12.5792 22.0136 -8.94991
357 1 9.43423 12.5794 22.0132 -8.94896
359 1 12.5795 12.5795 22.0127 -8.95153
365 1 22.0138 15.7243 22.0138 -8.94955
367 1 3.1446 15.7243 22.0138 -8.94999
369 1 6.28938 15.7246 22.0131 -8.95034
375 1 15.7249 15.7249 22.0134 -8.95007
381 1 3.1446 18.8693 22.0136 -8.94954
379 1 22.0138 18.8692 22.0138 -8.9496
351 1 22.0138 12.5794 22.0138 -8.94959
363 1 18.8694 12.5794 22.0138 -8.94956
385 1 9.43451 18.8694 22.0137 -8.94955
