ITEM: TIMESTEP
88
ITEM: NUMBER OF ATOMS
688
ITEM: BOX BOUNDS pp pp pp
0.0000000000000000e+00 2.2013900999999997e+01
0.0000000000000000e+00 2.2013900999999997e+01
0.0000000000000000e+00 2.2013900999999997e+01
ITEM: ATOMS id type x y z c_pot
189 1 20.4414 4.71636 11.007 -8.94946
2 1 1.57212 1.57217 1.57206 -8.94927
175 1 18.8713 9.43374 9.43391 -8.94955
4 1 4.71708 1.57213 1.57204 -8.94961
174 1 15.7318 9.43197 9.43175 -8.94773
6 1 7.86206 1.5721 1.57203 -8.94954
7 1 9.43452 1.74136e-16 -0.000128033 -8.9496
8 1 11.007 1.57209 1.57204 -8.94955
173 1 12.5964 9.41161 9.40004 -8.83612
10 1 14.1519 1.57213 1.57213 -8.9495
172 1 9.37055 9.19484 9.40731 -7.80729
12 1 17.2969 1.57209 1.57212 -8.9495
188 1 17.298 4.71559 11.0067 -8.94892
14 1 20.4415 1.57222 1.57225 -8.94941
171 1 6.24861 9.38894 9.39725 -8.86246
16 1 1.57201 4.71691 1.57186 -8.94987
170 1 3.13272 9.43149 9.431 -8.95489
18 1 4.71643 4.71633 1.57094 -8.94949
169 1 22.0112 9.43402 9.43387 -8.95098
20 1 7.86187 4.71631 1.57122 -8.94915
183 1 1.57052 4.71554 11.0072 -8.94917
22 1 11.0071 4.71628 1.57134 -8.94924
168 1 18.8703 6.28825 9.43416 -8.94921
24 1 14.1522 4.71631 1.57142 -8.94978
167 1 15.7277 6.28587 9.4333 -8.94536
26 1 17.2976 4.71625 1.57153 -8.94872
166 1 12.5797 6.28581 9.43342 -8.95463
28 1 20.4417 4.71697 1.5721 -8.94961
165 1 9.42988 6.30025 9.43617 -9.00983
30 1 1.57204 7.86198 1.57187 -8.9494
164 1 6.27992 6.27526 9.43382 -8.9552
32 1 4.71689 7.8622 1.57134 -8.95032
163 1 3.13891 6.28502 9.43352 -8.94718
34 1 7.86174 7.86165 1.56999 -8.95209
35 1 9.43431 6.28894 -0.000730451 -8.94973
36 1 11.0065 7.86132 1.56997 -8.95057
37 1 12.5794 6.28906 -0.0006347 -8.94976
38 1 14.1532 7.86075 1.56942 -8.95122
162 1 -0.00163761 6.28834 9.43421 -8.94952
40 1 17.2977 7.86158 1.57146 -8.94933
161 1 18.8694 3.14414 9.43441 -8.94951
42 1 20.4417 7.86195 1.57204 -8.94951
181 1 17.2971 1.57192 11.0069 -8.94955
44 1 3.14441 9.43445 -0.000210248 -8.94966
160 1 15.7251 3.1433 9.43426 -8.94937
159 1 12.5794 3.14352 9.43468 -8.9501
158 1 9.43447 3.14514 9.43487 -8.94463
48 1 15.7251 9.43421 -0.000594435 -8.94947
157 1 6.2883 3.14072 9.43484 -8.95141
50 1 22.0137 1.61241e-15 3.14464 -8.94958
51 1 1.57189 1.57192 4.71683 -8.94963
52 1 3.14443 1.40957e-15 3.14435 -8.94957
53 1 4.7166 1.57137 4.71642 -8.95
54 1 6.28956 1.53292e-15 3.14436 -8.9495
55 1 7.86206 1.57145 4.71649 -8.94948
56 1 9.4346 8.74871e-16 3.14434 -8.94954
57 1 11.0073 1.57155 4.71654 -8.94938
58 1 12.5796 1.09341e-15 3.14442 -8.94943
59 1 14.1521 1.5716 4.71688 -8.95042
60 1 15.7245 5.69715e-16 3.14456 -8.9499
61 1 17.2969 1.57202 4.71706 -8.94972
62 1 18.8692 -2.1876e-16 3.14471 -8.94966
63 1 20.4414 1.5722 4.71712 -8.94959
64 1 22.0134 3.14428 3.14428 -8.94916
65 1 1.57028 4.71547 4.71543 -8.94827
66 1 3.14375 3.14368 3.14356 -8.94829
67 1 4.71343 4.71304 4.7129 -8.94424
68 1 6.28929 3.14371 3.14375 -8.94948
69 1 7.86132 4.71388 4.71447 -8.94848
70 1 9.43459 3.14371 3.14382 -8.94948
71 1 11.0075 4.71439 4.71487 -8.94723
72 1 12.5797 3.14378 3.14401 -8.9491
73 1 14.1543 4.71319 4.71448 -8.94894
74 1 15.7251 3.14352 3.14391 -8.94933
75 1 17.2981 4.7157 4.71613 -8.94907
76 1 18.8694 3.14429 3.14444 -8.94944
77 1 20.4414 4.71656 4.71666 -8.9497
78 1 22.0137 6.2894 3.14424 -8.94974
79 1 1.57111 7.86178 4.71585 -8.94949
80 1 3.14365 6.28899 3.14307 -8.95077
81 1 4.71471 7.86133 4.71304 -8.95398
82 1 6.28753 6.28728 3.14027 -8.95017
83 1 7.85773 7.85661 4.70642 -8.95622
84 1 9.43424 6.28733 3.14147 -8.94806
85 1 11.0067 7.85866 4.70871 -8.95414
86 1 12.5801 6.28761 3.14165 -8.94994
87 1 14.1616 7.85286 4.706 -8.93807
88 1 15.7274 6.2865 3.14134 -8.94646
89 1 17.3 7.86045 4.71513 -8.95034
90 1 18.8701 6.28897 3.14399 -8.94965
91 1 20.4419 7.86172 4.71649 -8.94981
92 1 -0.000240205 9.43441 3.14411 -8.9495
93 1 3.14373 9.4344 3.14315 -8.94884
94 1 6.28946 9.4355 3.143 -8.95088
95 1 9.43407 9.43441 3.14281 -8.94908
96 1 12.5818 9.43332 3.13685 -8.95701
97 1 15.7271 9.43348 3.14161 -8.94814
98 1 18.8702 9.43427 3.1439 -8.94938
99 1 22.0137 6.03307e-16 6.28956 -8.94956
100 1 1.57186 1.57189 7.86194 -8.9495
101 1 3.1443 1.41125e-15 6.28934 -8.94977
102 1 4.71651 1.57101 7.8618 -8.95009
103 1 6.28948 1.45714e-15 6.28926 -8.95065
104 1 7.86228 1.57084 7.86204 -8.95157
105 1 9.43477 1.53037e-15 6.28919 -8.95025
106 1 11.0069 1.57176 7.86222 -8.94991
107 1 12.5795 9.78958e-16 6.28958 -8.95033
108 1 14.1521 1.57167 7.86209 -8.95
109 1 15.7245 4.14763e-16 6.28958 -8.94982
110 1 17.297 1.57196 7.86197 -8.94949
111 1 18.8692 1.05661e-15 6.28958 -8.94954
112 1 20.4414 1.57215 7.86202 -8.94956
113 1 -0.00051198 3.14419 6.28937 -8.94947
114 1 1.57049 4.71548 7.86141 -8.94902
115 1 3.1434 3.14285 6.28863 -8.94976
116 1 4.71349 4.71137 7.85997 -8.95012
117 1 6.2885 3.14111 6.28812 -8.9516
118 1 7.86067 4.70893 7.86053 -8.96063
119 1 9.43484 3.14188 6.28827 -8.94989
120 1 11.0057 4.71464 7.86186 -8.955
121 1 12.5796 3.14256 6.28923 -8.95211
122 1 14.1529 4.71403 7.86157 -8.95083
123 1 15.7249 3.14346 6.28933 -8.94997
124 1 17.2978 4.71574 7.86164 -8.94885
125 1 18.8693 3.14426 6.28947 -8.94946
126 1 20.4414 4.71641 7.86182 -8.94938
127 1 22.0122 6.2885 6.28853 -8.95035
128 1 1.56686 7.85993 7.85987 -8.95278
129 1 3.13767 6.28422 6.28412 -8.94595
130 1 4.69651 7.84691 7.84759 -8.94032
131 1 6.27698 6.27605 6.27614 -8.9274
132 1 7.82202 7.82173 7.82242 -8.83947
133 1 9.43402 6.28101 6.28324 -8.94516
134 1 11.0242 7.84664 7.83274 -8.88734
135 1 12.5858 6.27932 6.28163 -8.94749
136 1 14.1647 7.85169 7.85317 -8.94113
137 1 15.7289 6.2854 6.28638 -8.94748
138 1 17.3007 7.86004 7.86085 -8.95105
139 1 18.8702 6.28857 6.28891 -8.95002
140 1 20.4413 7.86128 7.86146 -8.9506
141 1 -0.000987959 9.43431 6.28855 -8.94942
142 1 3.14132 9.43442 6.28647 -8.94798
143 1 6.28645 9.43731 6.28355 -8.96401
144 1 9.42258 9.41892 6.28617 -8.93206
145 1 12.6095 9.4115 6.25627 -8.89707
146 1 15.7331 9.43214 6.28492 -8.9545
147 1 18.8713 9.4341 6.28866 -8.95074
148 1 -0.000244112 7.48491e-16 9.4345 -8.94958
149 1 3.1442 -3.64374e-18 9.4345 -8.94961
150 1 6.28938 6.90645e-16 9.43467 -8.95068
151 1 9.43474 1.40281e-15 9.4346 -8.94794
152 1 12.5795 1.01245e-15 9.4346 -8.94978
153 1 15.7246 3.2522e-16 9.43443 -8.94971
154 1 18.8692 1.42685e-15 9.43448 -8.94958
155 1 22.0134 3.14413 9.43447 -8.94949
156 1 3.14339 3.14289 9.4344 -8.94933
177 1 4.71639 1.57103 11.0073 -8.94967
184 1 4.71322 4.71203 11.008 -8.94708
3 1 3.14476 1.74184e-15 -0.00012168 -8.94962
11 1 15.7243 3.02411e-16 -7.83137e-05 -8.94959
41 1 18.8694 6.28943 -0.00014262 -8.94955
19 1 6.28954 3.14446 -0.00027657 -8.94945
25 1 15.7244 3.14445 -0.000186093 -8.94969
176 1 1.57183 1.57189 11.007 -8.94952
47 1 12.5795 9.43436 22.0127 -8.95155
178 1 7.86241 1.57144 11.0071 -8.95005
179 1 11.0067 1.57214 11.0068 -8.94864
180 1 14.1522 1.57153 11.0068 -8.94969
343 1 18.8697 9.43438 18.8698 -8.94942
182 1 20.4415 1.57214 11.007 -8.94958
342 1 15.7256 9.43408 18.8712 -8.94917
46 1 9.43421 9.43449 22.0131 -8.94889
185 1 7.86061 4.71352 11.0079 -8.95369
186 1 11.0059 4.71798 11.0063 -8.9473
187 1 14.1536 4.7139 11.0061 -8.94798
341 1 12.5794 9.43434 18.8724 -8.95355
340 1 9.43415 9.43471 18.8688 -8.94731
190 1 1.56699 7.86001 11.0071 -8.95112
191 1 4.69911 7.853 11.0088 -8.95135
192 1 7.81647 7.84673 11.0365 -8.86643
193 1 11.0345 7.86874 11.025 -8.89913
194 1 14.1646 7.85532 11.0045 -8.94767
195 1 17.3013 7.85979 11.0063 -8.94962
196 1 20.4415 7.86112 11.0069 -8.95027
197 1 22.0137 6.33846e-16 12.5795 -8.94957
198 1 1.57192 1.57192 14.1521 -8.9495
199 1 3.14425 3.03201e-16 12.5797 -8.94953
200 1 4.71669 1.5711 14.1525 -8.95072
201 1 6.28963 1.24385e-15 12.5796 -8.95095
202 1 7.86235 1.57178 14.1522 -8.94947
203 1 9.43469 4.17425e-16 12.5796 -8.94913
204 1 11.0068 1.57164 14.1522 -8.94966
205 1 12.5793 4.14275e-16 12.5793 -8.95092
206 1 14.1521 1.57104 14.1522 -8.95128
207 1 15.7246 9.88382e-16 12.5794 -8.94965
208 1 17.297 1.57192 14.1519 -8.94963
209 1 18.8692 1.74819e-15 12.5794 -8.94955
210 1 20.4415 1.57217 14.1519 -8.94954
211 1 22.0134 3.14416 12.5796 -8.94944
212 1 1.57066 4.71557 14.1529 -8.94944
213 1 3.14347 3.14293 12.58 -8.94909
214 1 4.71328 4.71107 14.1562 -8.94786
215 1 6.28889 3.14108 12.5804 -8.95333
216 1 7.86293 4.71535 14.153 -8.95016
217 1 9.43476 3.14426 12.5797 -8.94808
218 1 11.0058 4.71452 14.1533 -8.94927
219 1 12.5793 3.14161 12.5793 -8.95457
220 1 14.1551 4.70982 14.1553 -8.95207
221 1 15.725 3.14316 12.5793 -8.94949
222 1 17.2983 4.71531 14.1524 -8.94989
223 1 18.8694 3.14416 12.5794 -8.94941
224 1 20.4415 4.71645 14.1521 -8.94958
225 1 -0.00143753 6.28845 12.5799 -8.94973
226 1 1.56821 7.86002 14.1542 -8.95108
227 1 3.13912 6.28532 12.5819 -8.94891
228 1 4.70283 7.84862 14.1664 -8.92732
229 1 6.27794 6.27349 12.5901 -8.94696
230 1 7.8621 7.85781 14.1599 -8.95195
231 1 9.43492 6.29175 12.5779 -8.95297
232 1 11.0047 7.85563 14.1615 -8.94156
233 1 12.5863 6.27255 12.5859 -8.96416
234 1 14.177 7.83677 14.1773 -8.90155
235 1 15.7289 6.28498 12.5801 -8.94946
236 1 17.304 7.8583 14.1555 -8.95227
237 1 18.8705 6.28834 12.5795 -8.94948
238 1 20.4422 7.86117 14.1528 -8.95099
239 1 22.0115 9.43395 12.5802 -8.95166
240 1 3.13236 9.43151 12.5836 -8.95578
241 1 6.24451 9.3948 12.6232 -8.82149
242 1 9.43573 9.4309 12.5697 -8.63571
243 1 12.652 9.35988 12.6545 -8.7068
244 1 15.7434 9.42862 12.5864 -8.96015
245 1 18.8731 9.43373 12.5802 -8.95306
246 1 -0.000186007 4.07269e-16 15.7244 -8.94958
247 1 1.57199 1.57198 17.2971 -8.94933
248 1 3.14439 -7.91537e-17 15.7247 -8.94991
249 1 4.71721 1.5721 17.297 -8.94975
250 1 6.28974 3.47183e-16 15.7246 -8.94957
251 1 7.86202 1.57201 17.2971 -8.94942
252 1 9.43451 3.1818e-16 15.7247 -8.9497
253 1 11.0069 1.57196 17.2971 -8.94947
254 1 12.5794 4.27996e-16 15.7246 -8.94961
255 1 14.1518 1.57197 17.297 -8.94965
256 1 15.7246 1.4623e-15 15.7246 -8.95028
257 1 17.2971 1.5718 17.2972 -8.94954
258 1 18.8692 1.72202e-15 15.7243 -8.94965
259 1 20.4415 1.57218 17.2968 -8.94964
260 1 -0.000416938 3.14423 15.7246 -8.94956
261 1 1.57133 4.71599 17.298 -8.94825
262 1 3.14351 3.14292 15.7257 -8.94887
263 1 4.71666 4.71607 17.2982 -8.95007
264 1 6.28979 3.14378 15.725 -8.9498
265 1 7.8619 4.71613 17.2979 -8.94847
266 1 9.43438 3.14344 15.7253 -8.94926
267 1 11.0067 4.7159 17.298 -8.94863
268 1 12.5792 3.14333 15.725 -8.94952
269 1 14.1523 4.71551 17.2984 -8.9499
270 1 15.7256 3.14233 15.7256 -8.94983
271 1 17.2987 4.71499 17.2988 -8.9466
272 1 18.8695 3.14414 15.7245 -8.94975
273 1 20.4418 4.71651 17.2974 -8.94944
274 1 22.013 6.28861 15.7254 -8.94998
275 1 1.57148 7.86158 17.298 -8.94925
276 1 3.14056 6.28543 15.7289 -8.94428
277 1 4.7159 7.86083 17.3005 -8.95189
278 1 6.28857 6.28709 15.7283 -8.95098
279 1 7.86294 7.86191 17.2984 -8.95225
280 1 9.43383 6.28687 15.7274 -8.94295
281 1 11.0053 7.86113 17.2995 -8.95121
282 1 12.5797 6.28558 15.7288 -8.94929
283 1 14.1546 7.85894 17.3036 -8.95306
284 1 15.7319 6.2817 15.732 -8.93773
285 1 17.2986 7.8611 17.2988 -8.94918
286 1 18.8713 6.28801 15.7258 -8.94993
287 1 20.4418 7.86177 17.2975 -8.94934
288 1 -0.000820019 9.43416 15.7255 -8.94924
289 1 3.14155 9.43343 15.7279 -8.94738
290 1 6.28744 9.43389 15.7323 -8.96155
291 1 9.43482 9.43807 15.719 -8.95069
292 1 12.5844 9.43102 15.7406 -8.96626
293 1 15.73 9.43268 15.7303 -8.94681
294 1 18.8711 9.43403 15.7258 -8.94908
295 1 22.0138 1.21444e-15 18.8692 -8.9494
296 1 1.57232 1.57225 20.4415 -8.94956
297 1 3.14478 -1.12494e-15 18.8692 -8.94972
298 1 4.7172 1.57227 20.4415 -8.94954
299 1 6.28961 -9.35202e-16 18.8693 -8.9495
300 1 7.86205 1.57222 20.4415 -8.94958
301 1 9.4345 -8.6566e-16 18.8693 -8.94958
302 1 11.007 1.57221 20.4416 -8.94958
303 1 12.5794 1.22228e-15 18.8693 -8.94951
304 1 14.1518 1.57224 20.4415 -8.94953
305 1 15.7243 1.44926e-15 18.8692 -8.94966
306 1 17.2967 1.57222 20.4416 -8.94967
307 1 18.8693 1.94458e-15 18.8693 -8.94946
308 1 20.4416 1.57225 20.4416 -8.94922
309 1 22.0137 3.14443 18.8695 -8.9492
310 1 1.57217 4.71698 20.4418 -8.9497
311 1 3.14458 3.14438 18.8695 -8.94973
312 1 4.71705 4.7169 20.4416 -8.94992
313 1 6.28958 3.14441 18.8694 -8.94932
314 1 7.86192 4.71669 20.4416 -8.9494
315 1 9.43444 3.14426 18.8695 -8.94955
316 1 11.0069 4.71664 20.4417 -8.94944
317 1 12.5794 3.14431 18.8695 -8.94934
318 1 14.1519 4.71674 20.4417 -8.9497
319 1 15.7245 3.14422 18.8696 -8.94976
320 1 17.2972 4.7166 20.4419 -8.94952
321 1 18.8696 3.14421 18.8696 -8.94881
322 1 20.4416 4.71707 20.4416 -8.94963
323 1 -0.000154993 6.28943 18.8695 -8.94956
324 1 1.57213 7.86196 20.4418 -8.94951
325 1 3.14418 6.28903 18.8704 -8.95002
326 1 4.71702 7.86198 20.4421 -8.95032
327 1 6.28967 6.28926 18.87 -8.95031
328 1 7.86207 7.86192 20.4415 -8.95016
329 1 9.43419 6.28866 18.8703 -8.94932
330 1 11.0065 7.86172 20.4417 -8.9501
331 1 12.5791 6.28888 18.8704 -8.94981
332 1 14.1523 7.86149 20.4424 -8.95112
333 1 15.7255 6.28822 18.8713 -8.95012
334 1 17.2973 7.86179 20.4419 -8.94941
335 1 18.8696 6.28927 18.8697 -8.94957
336 1 20.4416 7.862 20.4417 -8.94956
337 1 22.0137 9.43444 18.8696 -8.94954
338 1 3.14409 9.43431 18.8704 -8.94934
339 1 6.28967 9.43469 18.8707 -8.95169
45 1 6.28952 9.43468 22.0136 -8.9499
5 1 6.28962 7.44856e-16 22.0138 -8.94957
9 1 12.5794 2.03807e-16 22.0138 -8.94958
39 1 15.725 6.28887 22.0133 -8.9501
15 1 22.0138 3.14464 22.0138 -8.94959
17 1 3.14456 3.1445 22.0136 -8.94954
33 1 6.28936 6.28926 22.013 -8.95038
23 1 12.5795 3.14441 22.0137 -8.94944
31 1 3.14456 6.28953 22.0137 -8.95002
27 1 18.8694 3.14448 22.0138 -8.94931
29 1 22.0138 6.28957 22.0138 -8.94953
1 1 22.0138 1.27334e-15 22.0138 -8.94939
13 1 18.8691 1.44547e-15 22.0138 -8.94945
21 1 9.4345 3.14439 22.0136 -8.94954
43 1 22.0138 9.43448 22.0138 -8.94958
49 1 18.8695 9.43444 22.0137 -8.94955
344 1 1.57198 11.007 1.57182 -8.94956
345 1 4.71657 11.007 1.57119 -8.94991
346 1 7.86204 11.007 1.57213 -8.94698
347 1 11.0067 11.007 1.57032 -8.94886
348 1 14.1536 11.007 1.56922 -8.94957
349 1 17.2977 11.007 1.57145 -8.9495
350 1 20.4417 11.007 1.57201 -8.94955
538 1 17.2971 20.442 11.0069 -8.94955
352 1 1.57204 14.1519 1.57187 -8.9494
353 1 3.14441 12.5795 -0.000210248 -8.94966
354 1 4.71689 14.1517 1.57134 -8.95032
688 3 10.2328 11.007 9.53539 2.25523
356 1 7.86174 14.1523 1.56999 -8.95209
511 1 18.8694 18.8698 9.43441 -8.94951
358 1 11.0065 14.1526 1.56997 -8.95057
510 1 15.7251 18.8706 9.43426 -8.94937
360 1 14.1532 14.1532 1.56942 -8.95122
361 1 15.7251 12.5797 -0.000594435 -8.94947
362 1 17.2977 14.1523 1.57146 -8.94933
532 1 20.4414 17.2975 11.007 -8.94946
364 1 20.4417 14.152 1.57204 -8.94951
509 1 12.5794 18.8704 9.43468 -8.9501
366 1 1.57201 17.297 1.57186 -8.94987
508 1 9.43447 18.8688 9.43487 -8.94463
368 1 4.71643 17.2976 1.57094 -8.94949
507 1 6.2883 18.8732 9.43484 -8.95141
370 1 7.86187 17.2976 1.57122 -8.94915
371 1 9.43431 15.725 -0.000730451 -8.94973
372 1 11.0071 17.2976 1.57134 -8.94924
373 1 12.5794 15.7248 -0.0006347 -8.94976
374 1 14.1522 17.2976 1.57142 -8.94978
506 1 3.14339 18.871 9.4344 -8.94933
376 1 17.2976 17.2976 1.57153 -8.94872
505 1 22.0134 18.8698 9.43447 -8.94949
378 1 20.4417 17.2969 1.5721 -8.94961
504 1 18.8703 15.7256 9.43416 -8.94921
380 1 1.57212 20.4417 1.57206 -8.94927
503 1 15.7277 15.728 9.4333 -8.94536
382 1 4.71708 20.4418 1.57204 -8.94961
502 1 12.5797 15.7281 9.43342 -8.95463
384 1 7.86206 20.4418 1.57203 -8.94954
531 1 17.298 17.2983 11.0067 -8.94892
386 1 11.007 20.4418 1.57204 -8.94955
501 1 9.42988 15.7136 9.43617 -9.00983
388 1 14.1519 20.4418 1.57213 -8.9495
500 1 6.27992 15.7386 9.43382 -8.9552
390 1 17.2969 20.4418 1.57212 -8.9495
499 1 3.13891 15.7289 9.43352 -8.94718
392 1 20.4415 20.4417 1.57225 -8.94941
393 1 1.57101 11.007 4.71564 -8.9494
394 1 4.71446 11.007 4.71326 -8.94589
395 1 7.86424 11.007 4.72159 -8.93612
396 1 11.0096 11.007 4.71308 -8.98713
397 1 14.1602 11.007 4.70775 -8.94275
398 1 17.3001 11.007 4.71498 -8.94919
399 1 20.442 11.007 4.71636 -8.94974
400 1 -0.000240205 12.5795 3.14411 -8.9495
401 1 1.57111 14.1521 4.71585 -8.94949
402 1 3.14373 12.5795 3.14315 -8.94884
403 1 4.71471 14.1526 4.71304 -8.95398
404 1 6.28946 12.5784 3.143 -8.95088
405 1 7.85773 14.1573 4.70642 -8.95622
406 1 9.43407 12.5795 3.14281 -8.94908
407 1 11.0067 14.1552 4.70871 -8.95414
408 1 12.5818 12.5806 3.13685 -8.95701
409 1 14.1616 14.161 4.706 -8.93807
410 1 15.7271 12.5804 3.14161 -8.94814
411 1 17.3 14.1534 4.71513 -8.95034
412 1 18.8702 12.5796 3.1439 -8.94938
413 1 20.4419 14.1522 4.71649 -8.94981
414 1 22.0137 15.7245 3.14424 -8.94974
415 1 1.57028 17.2984 4.71543 -8.94827
416 1 3.14365 15.7249 3.14307 -8.95077
417 1 4.71343 17.3009 4.7129 -8.94424
418 1 6.28753 15.7266 3.14027 -8.95017
419 1 7.86132 17.3 4.71447 -8.94848
420 1 9.43424 15.7266 3.14147 -8.94806
421 1 11.0075 17.2995 4.71487 -8.94723
422 1 12.5801 15.7263 3.14165 -8.94994
423 1 14.1543 17.3007 4.71448 -8.94894
424 1 15.7274 15.7274 3.14134 -8.94646
425 1 17.2981 17.2982 4.71613 -8.94907
426 1 18.8701 15.7249 3.14399 -8.94965
427 1 20.4414 17.2973 4.71666 -8.9497
428 1 22.0134 18.8696 3.14428 -8.94916
429 1 1.57189 20.442 4.71683 -8.94963
430 1 3.14375 18.8702 3.14356 -8.94829
431 1 4.7166 20.4425 4.71642 -8.95
432 1 6.28929 18.8702 3.14375 -8.94948
433 1 7.86206 20.4424 4.71649 -8.94948
434 1 9.43459 18.8702 3.14382 -8.94948
435 1 11.0073 20.4424 4.71654 -8.94938
436 1 12.5797 18.8701 3.14401 -8.9491
437 1 14.1521 20.4423 4.71688 -8.95042
438 1 15.7251 18.8704 3.14391 -8.94933
439 1 17.2969 20.4419 4.71706 -8.94972
440 1 18.8694 18.8696 3.14444 -8.94944
441 1 20.4414 20.4417 4.71712 -8.94959
442 1 1.56882 11.007 7.85999 -8.94745
443 1 4.71116 11.007 7.85724 -8.93558
444 1 7.87604 11.007 7.89536 -8.91505
445 1 11.0697 11.007 7.69684 -8.22919
446 1 14.1657 11.007 7.85231 -8.95939
447 1 17.3014 11.007 7.86085 -8.95054
448 1 20.4417 11.007 7.86137 -8.9498
449 1 -0.000987959 12.5796 6.28855 -8.94942
450 1 1.56686 14.154 7.85987 -8.95278
451 1 3.14132 12.5795 6.28647 -8.94798
452 1 4.69651 14.167 7.84759 -8.94032
453 1 6.28645 12.5766 6.28355 -8.96401
454 1 7.82202 14.1922 7.82242 -8.83947
455 1 9.42258 12.595 6.28617 -8.93206
456 1 11.0242 14.1673 7.83274 -8.88734
457 1 12.6095 12.6024 6.25627 -8.89707
458 1 14.1647 14.1622 7.85317 -8.94113
459 1 15.7331 12.5818 6.28492 -8.9545
460 1 17.3007 14.1539 7.86085 -8.95105
461 1 18.8713 12.5798 6.28866 -8.95074
462 1 20.4413 14.1526 7.86146 -8.9506
463 1 22.0122 15.7254 6.28853 -8.95035
464 1 1.57049 17.2984 7.86141 -8.94902
465 1 3.13767 15.7297 6.28412 -8.94595
466 1 4.71349 17.3025 7.85997 -8.95012
467 1 6.27698 15.7379 6.27614 -8.9274
468 1 7.86067 17.305 7.86053 -8.96063
469 1 9.43402 15.7329 6.28324 -8.94516
470 1 11.0057 17.2993 7.86186 -8.955
471 1 12.5858 15.7346 6.28163 -8.94749
472 1 14.1529 17.2999 7.86157 -8.95083
473 1 15.7289 15.7285 6.28638 -8.94748
474 1 17.2978 17.2982 7.86164 -8.94885
475 1 18.8702 15.7253 6.28891 -8.95002
476 1 20.4414 17.2975 7.86182 -8.94938
477 1 -0.00051198 18.8697 6.28937 -8.94947
478 1 1.57186 20.442 7.86194 -8.9495
479 1 3.1434 18.871 6.28863 -8.94976
480 1 4.71651 20.4429 7.8618 -8.95009
481 1 6.2885 18.8728 6.28812 -8.9516
482 1 7.86228 20.4431 7.86204 -8.95157
483 1 9.43484 18.872 6.28827 -8.94989
484 1 11.0069 20.4421 7.86222 -8.94991
485 1 12.5796 18.8713 6.28923 -8.95211
486 1 14.1521 20.4422 7.86209 -8.95
487 1 15.7249 18.8704 6.28933 -8.94997
488 1 17.297 20.4419 7.86197 -8.94949
489 1 18.8693 18.8696 6.28947 -8.94946
490 1 20.4414 20.4417 7.86202 -8.94956
491 1 22.0112 12.5799 9.43387 -8.95098
492 1 3.13272 12.5824 9.431 -8.95489
493 1 6.24861 12.625 9.39725 -8.86246
494 1 9.37055 12.8191 9.40731 -7.80729
495 1 12.5964 12.6023 9.40004 -8.83612
496 1 15.7318 12.5819 9.43175 -8.94773
497 1 18.8713 12.5802 9.43391 -8.94955
498 1 -0.00163761 15.7256 9.43421 -8.94952
526 1 1.57052 17.2984 11.0072 -8.94917
527 1 4.71322 17.3019 11.008 -8.94708
534 1 4.71639 20.4429 11.0073 -8.94967
389 1 15.7244 18.8694 -0.000186093 -8.94969
377 1 18.8694 15.7245 -0.00014262 -8.94955
383 1 6.28954 18.8694 -0.00027657 -8.94945
512 1 1.56573 11.007 11.0071 -8.95225
513 1 4.69358 11.007 11.0071 -9.01929
514 1 7.49834 11.007 11.0221 -7.88696
515 1 11.4228 11.007 11.1803 -7.15094
516 1 14.1818 11.007 11.0167 -9.0203
517 1 17.3046 11.007 11.0067 -8.95448
518 1 20.4418 11.007 11.0068 -8.95071
519 1 1.56699 14.1539 11.0071 -8.95112
520 1 4.69911 14.1609 11.0088 -8.95135
521 1 7.81647 14.1672 11.0365 -8.86643
522 1 11.0345 14.1452 11.025 -8.89913
523 1 14.1646 14.1586 11.0045 -8.94767
524 1 17.3013 14.1541 11.0063 -8.94962
525 1 20.4415 14.1528 11.0069 -8.95027
687 3 9.45701 11.007 10.9457 2.28304
391 1 18.8694 18.8694 22.0138 -8.94931
528 1 7.86061 17.3004 11.0079 -8.95369
529 1 11.0059 17.2959 11.0063 -8.9473
530 1 14.1536 17.3 11.0061 -8.94798
686 1 20.4416 20.4416 20.4416 -8.94922
685 1 18.8696 18.8697 18.8696 -8.94881
533 1 1.57183 20.442 11.007 -8.94952
387 1 12.5795 18.8695 22.0137 -8.94944
535 1 7.86241 20.4425 11.0071 -8.95005
536 1 11.0067 20.4418 11.0068 -8.94864
537 1 14.1522 20.4424 11.0068 -8.94969
684 1 17.2967 20.4417 20.4416 -8.94967
539 1 20.4415 20.4418 11.007 -8.94958
540 1 1.56819 11.007 14.1544 -8.94915
541 1 4.70556 11.007 14.1605 -8.93993
542 1 7.85302 11.007 14.1381 -8.95332
543 1 11.0251 11.007 14.1458 -8.9872
544 1 14.1684 11.007 14.1659 -8.93779
545 1 17.3032 11.007 14.1555 -8.94808
546 1 20.4421 11.007 14.153 -8.95015
547 1 22.0115 12.5799 12.5802 -8.95166
548 1 1.56821 14.1539 14.1542 -8.95108
549 1 3.13236 12.5824 12.5836 -8.95578
550 1 4.70283 14.1653 14.1664 -8.92732
551 1 6.24451 12.6191 12.6232 -8.82149
552 1 7.8621 14.1561 14.1599 -8.95195
553 1 9.43573 12.583 12.5697 -8.63571
554 1 11.0047 14.1583 14.1615 -8.94156
555 1 12.652 12.654 12.6545 -8.7068
556 1 14.177 14.1771 14.1773 -8.90155
557 1 15.7434 12.5853 12.5864 -8.96015
558 1 17.304 14.1556 14.1555 -8.95227
559 1 18.8731 12.5802 12.5802 -8.95306
560 1 20.4422 14.1527 14.1528 -8.95099
561 1 -0.00143753 15.7255 12.5799 -8.94973
562 1 1.57066 17.2983 14.1529 -8.94944
563 1 3.13912 15.7286 12.5819 -8.94891
564 1 4.71328 17.3028 14.1562 -8.94786
565 1 6.27794 15.7404 12.5901 -8.94696
566 1 7.86293 17.2986 14.153 -8.95016
567 1 9.43492 15.7222 12.5779 -8.95297
568 1 11.0058 17.2994 14.1533 -8.94927
569 1 12.5863 15.7414 12.5859 -8.96416
570 1 14.1551 17.3041 14.1553 -8.95207
571 1 15.7289 15.7289 12.5801 -8.94946
572 1 17.2983 17.2986 14.1524 -8.94989
573 1 18.8705 15.7256 12.5795 -8.94948
574 1 20.4415 17.2974 14.1521 -8.94958
575 1 22.0134 18.8697 12.5796 -8.94944
576 1 1.57192 20.442 14.1521 -8.9495
577 1 3.14347 18.871 12.58 -8.94909
578 1 4.71669 20.4428 14.1525 -8.95072
579 1 6.28889 18.8728 12.5804 -8.95333
580 1 7.86235 20.4421 14.1522 -8.94947
581 1 9.43476 18.8696 12.5797 -8.94808
582 1 11.0068 20.4423 14.1522 -8.94966
583 1 12.5793 18.8723 12.5793 -8.95457
584 1 14.1521 20.4429 14.1522 -8.95128
585 1 15.725 18.8707 12.5793 -8.94949
586 1 17.297 20.442 14.1519 -8.94963
587 1 18.8694 18.8697 12.5794 -8.94941
588 1 20.4415 20.4417 14.1519 -8.94954
589 1 1.57139 11.007 17.298 -8.94948
590 1 4.71527 11.007 17.3002 -8.94883
591 1 7.8625 11.007 17.2954 -8.94432
592 1 11.0063 11.007 17.2978 -8.94526
593 1 14.1552 11.007 17.3027 -8.94756
594 1 17.2987 11.007 17.2988 -8.94908
595 1 20.4418 11.007 17.2975 -8.94947
596 1 -0.000820019 12.5797 15.7255 -8.94924
597 1 1.57148 14.1523 17.298 -8.94925
598 1 3.14155 12.5805 15.7279 -8.94738
599 1 4.7159 14.1531 17.3005 -8.95189
600 1 6.28744 12.58 15.7323 -8.96155
601 1 7.86294 14.152 17.2984 -8.95225
602 1 9.43482 12.5758 15.719 -8.95069
603 1 11.0053 14.1528 17.2995 -8.95121
604 1 12.5844 12.5829 15.7406 -8.96626
605 1 14.1546 14.155 17.3036 -8.95306
606 1 15.73 12.5812 15.7303 -8.94681
607 1 17.2986 14.1528 17.2988 -8.94918
608 1 18.8711 12.5799 15.7258 -8.94908
609 1 20.4418 14.1521 17.2975 -8.94934
610 1 22.013 15.7253 15.7254 -8.94998
611 1 1.57133 17.2979 17.298 -8.94825
612 1 3.14056 15.7285 15.7289 -8.94428
613 1 4.71666 17.2978 17.2982 -8.95007
614 1 6.28857 15.7268 15.7283 -8.95098
615 1 7.8619 17.2978 17.2979 -8.94847
616 1 9.43383 15.727 15.7274 -8.94295
617 1 11.0067 17.298 17.298 -8.94863
618 1 12.5797 15.7283 15.7288 -8.94929
619 1 14.1523 17.2984 17.2984 -8.9499
620 1 15.7319 15.7322 15.732 -8.93773
621 1 17.2987 17.2989 17.2988 -8.9466
622 1 18.8713 15.7259 15.7258 -8.94993
623 1 20.4418 17.2974 17.2974 -8.94944
624 1 -0.000416938 18.8697 15.7246 -8.94956
625 1 1.57199 20.4419 17.2971 -8.94933
626 1 3.14351 18.871 15.7257 -8.94887
627 1 4.71721 20.4418 17.297 -8.94975
628 1 6.28979 18.8701 15.725 -8.9498
629 1 7.86202 20.4419 17.2971 -8.94942
630 1 9.43438 18.8705 15.7253 -8.94926
631 1 11.0069 20.4419 17.2971 -8.94947
632 1 12.5792 18.8706 15.725 -8.94952
633 1 14.1518 20.4419 17.297 -8.94965
634 1 15.7256 18.8716 15.7256 -8.94983
635 1 17.2971 20.4421 17.2972 -8.94954
636 1 18.8695 18.8698 15.7245 -8.94975
637 1 20.4415 20.4417 17.2968 -8.94964
638 1 1.57208 11.007 20.4418 -8.94956
639 1 4.71681 11.007 20.4421 -8.95001
640 1 7.86212 11.007 20.4414 -8.94844
641 1 11.0064 11.007 20.4416 -8.94894
642 1 14.1526 11.007 20.4424 -8.95024
643 1 17.2974 11.007 20.4419 -8.9495
644 1 20.4416 11.007 20.4417 -8.94958
645 1 22.0137 12.5795 18.8696 -8.94954
646 1 1.57213 14.1519 20.4418 -8.94951
647 1 3.14409 12.5796 18.8704 -8.94934
648 1 4.71702 14.1519 20.4421 -8.95032
649 1 6.28967 12.5792 18.8707 -8.95169
650 1 7.86207 14.152 20.4415 -8.95016
651 1 9.43415 12.5792 18.8688 -8.94731
652 1 11.0065 14.1522 20.4417 -8.9501
653 1 12.5794 12.5796 18.8724 -8.95355
654 1 14.1523 14.1524 20.4424 -8.95112
655 1 15.7256 12.5798 18.8712 -8.94917
656 1 17.2973 14.1521 20.4419 -8.94941
657 1 18.8697 12.5795 18.8698 -8.94942
658 1 20.4416 14.1519 20.4417 -8.94956
659 1 -0.000154993 15.7245 18.8695 -8.94956
660 1 1.57217 17.2969 20.4418 -8.9497
661 1 3.14418 15.7249 18.8704 -8.95002
662 1 4.71705 17.297 20.4416 -8.94992
663 1 6.28967 15.7246 18.87 -8.95031
664 1 7.86192 17.2972 20.4416 -8.9494
665 1 9.43419 15.7252 18.8703 -8.94932
666 1 11.0069 17.2973 20.4417 -8.94944
667 1 12.5791 15.725 18.8704 -8.94981
668 1 14.1519 17.2972 20.4417 -8.9497
669 1 15.7255 15.7257 18.8713 -8.95012
670 1 17.2972 17.2973 20.4419 -8.94952
671 1 18.8696 15.7246 18.8697 -8.94957
672 1 20.4416 17.2968 20.4416 -8.94963
673 1 22.0137 18.8695 18.8695 -8.9492
674 1 1.57232 20.4417 20.4415 -8.94956
675 1 3.14458 18.8695 18.8695 -8.94973
676 1 4.7172 20.4416 20.4415 -8.94954
677 1 6.28958 18.8695 18.8694 -8.94932
678 1 7.86205 20.4417 20.4415 -8.94958
679 1 9.43444 18.8696 18.8695 -8.94955
680 1 11.007 20.4417 20.4416 -8.94958
681 1 12.5794 18.8696 18.8695 -8.94934
682 1 14.1518 20.4417 20.4415 -8.94953
683 1 15.7245 18.8697 18.8696 -8.94976
355 1 6.28952 12.5792 22.0136 -8.9499
357 1 9.43421 12.5794 22.0131 -8.94889
359 1 12.5795 12.5795 22.0127 -8.95155
365 1 22.0138 15.7243 22.0138 -8.94953
367 1 3.14456 15.7244 22.0137 -8.95002
369 1 6.28936 15.7246 22.013 -8.95038
375 1 15.725 15.725 22.0133 -8.9501
381 1 3.14456 18.8694 22.0136 -8.94954
379 1 22.0138 18.8693 22.0138 -8.94959
351 1 22.0138 12.5794 22.0138 -8.94958
363 1 18.8695 12.5795 22.0137 -8.94955
385 1 9.4345 18.8695 22.0136 -8.94954
