ITEM: TIMESTEP
44
ITEM: NUMBER OF ATOMS
688
ITEM: BOX BOUNDS pp pp pp
0.0000000000000000e+00 2.2013900999999997e+01
0.0000000000000000e+00 2.2013900999999997e+01
0.0000000000000000e+00 2.2013900999999997e+01
ITEM: ATOMS id type x y z c_pot
189 1 20.4415 4.71726 11.007 -8.94963
2 1 1.57242 1.57242 1.57242 -8.94963
175 1 18.8691 9.43452 9.43453 -8.94974
4 1 4.71726 1.57242 1.57242 -8.94963
174 1 15.7248 9.43432 9.43444 -8.95067
6 1 7.86211 1.57242 1.57242 -8.94963
7 1 9.43453 -3.58858e-16 4.43055e-10 -8.94963
8 1 11.007 1.57242 1.57242 -8.94963
173 1 12.5877 9.42496 9.42779 -8.85933
10 1 14.1518 1.57242 1.57242 -8.94963
172 1 9.37028 9.29291 9.42055 -7.77585
12 1 17.2966 1.57242 1.57242 -8.94963
188 1 17.2966 4.71727 11.007 -8.94966
14 1 20.4415 1.57242 1.57242 -8.94963
171 1 6.28 9.42627 9.42673 -8.8979
16 1 1.57242 4.71726 1.57242 -8.94963
170 1 3.14434 9.43438 9.43438 -8.95138
18 1 4.71726 4.71726 1.57242 -8.94963
169 1 22.0139 9.43452 9.43452 -8.94973
20 1 7.86211 4.71726 1.57242 -8.94964
183 1 1.57242 4.71726 11.007 -8.94964
22 1 11.007 4.71726 1.57242 -8.94963
168 1 18.8691 6.28969 9.43453 -8.94963
24 1 14.1518 4.71727 1.57242 -8.94965
167 1 15.7242 6.28969 9.43453 -8.9497
26 1 17.2966 4.71726 1.57242 -8.94963
166 1 12.5793 6.28937 9.43452 -8.9529
28 1 20.4415 4.71726 1.57242 -8.94963
165 1 9.43438 6.2846 9.43454 -8.97514
30 1 1.57242 7.86211 1.57242 -8.94963
164 1 6.28963 6.28935 9.43452 -8.95352
32 1 4.71726 7.86211 1.57242 -8.94964
163 1 3.14485 6.28969 9.43453 -8.94977
34 1 7.8621 7.8621 1.57241 -8.94966
35 1 9.43453 6.28969 3.44295e-07 -8.94963
36 1 11.0069 7.86211 1.57242 -8.94965
37 1 12.5794 6.28969 7.10645e-07 -8.94964
38 1 14.1518 7.8621 1.5724 -8.94963
162 1 5.52132e-07 6.28969 9.43453 -8.94963
40 1 17.2966 7.86211 1.57242 -8.94965
161 1 18.8691 3.14484 9.43453 -8.94963
42 1 20.4415 7.86211 1.57242 -8.94963
181 1 17.2966 1.57242 11.007 -8.94963
44 1 3.14484 9.43453 2.69166e-08 -8.94963
160 1 15.7242 3.14484 9.43453 -8.94962
159 1 12.5794 3.14484 9.43453 -8.94973
158 1 9.43453 3.14461 9.43453 -8.95096
48 1 15.7242 9.43453 6.44201e-07 -8.94963
157 1 6.28968 3.14483 9.43453 -8.94968
50 1 22.0139 6.22757e-16 3.14484 -8.94963
51 1 1.57242 1.57242 4.71726 -8.94963
52 1 3.14484 7.84249e-16 3.14484 -8.94963
53 1 4.71726 1.57242 4.71726 -8.94963
54 1 6.28969 5.8764e-16 3.14484 -8.94963
55 1 7.86211 1.57242 4.71726 -8.94963
56 1 9.43453 -3.69371e-16 3.14484 -8.94963
57 1 11.007 1.57242 4.71726 -8.94963
58 1 12.5794 1.87872e-17 3.14484 -8.94963
59 1 14.1518 1.57242 4.71726 -8.94963
60 1 15.7242 -7.66087e-17 3.14484 -8.94963
61 1 17.2966 1.57242 4.71726 -8.94963
62 1 18.8691 -1.12302e-16 3.14484 -8.94963
63 1 20.4415 1.57242 4.71726 -8.94963
64 1 22.0139 3.14484 3.14484 -8.94963
65 1 1.57242 4.71726 4.71726 -8.94962
66 1 3.14484 3.14484 3.14484 -8.94963
67 1 4.71725 4.71725 4.71725 -8.94949
68 1 6.28969 3.14484 3.14484 -8.94965
69 1 7.86211 4.71728 4.71728 -8.94986
70 1 9.43453 3.14484 3.14484 -8.94964
71 1 11.0069 4.71727 4.71726 -8.94966
72 1 12.5794 3.14484 3.14484 -8.94964
73 1 14.1518 4.71725 4.71726 -8.94964
74 1 15.7242 3.14484 3.14484 -8.94963
75 1 17.2966 4.71726 4.71726 -8.94964
76 1 18.8691 3.14484 3.14484 -8.94963
77 1 20.4415 4.71726 4.71726 -8.94963
78 1 22.0139 6.28969 3.14484 -8.94963
79 1 1.57242 7.86211 4.71727 -8.94965
80 1 3.14484 6.28969 3.14484 -8.94964
81 1 4.71726 7.8621 4.71725 -8.94982
82 1 6.28968 6.28968 3.14483 -8.94964
83 1 7.86199 7.86199 4.71691 -8.95055
84 1 9.43453 6.28968 3.14484 -8.94964
85 1 11.0069 7.86213 4.71718 -8.95138
86 1 12.5794 6.28969 3.14485 -8.94983
87 1 14.1521 7.86178 4.71694 -8.94686
88 1 15.7242 6.28967 3.14483 -8.94949
89 1 17.2966 7.8621 4.71726 -8.94967
90 1 18.8691 6.28969 3.14484 -8.94963
91 1 20.4415 7.86211 4.71726 -8.94963
92 1 8.8233e-09 9.43453 3.14484 -8.94963
93 1 3.14484 9.43453 3.14484 -8.94964
94 1 6.28968 9.43453 3.14483 -8.94978
95 1 9.43441 9.4344 3.14465 -8.94913
96 1 12.5795 9.43439 3.1445 -8.95028
97 1 15.7242 9.43453 3.14485 -8.9498
98 1 18.8691 9.43453 3.14484 -8.94963
99 1 22.0139 -3.83048e-16 6.28969 -8.94963
100 1 1.57242 1.57242 7.86211 -8.94963
101 1 3.14484 -2.03873e-16 6.28969 -8.94963
102 1 4.71726 1.57242 7.86211 -8.94964
103 1 6.28969 4.74576e-16 6.28969 -8.94964
104 1 7.8621 1.57241 7.8621 -8.9497
105 1 9.43453 2.07963e-16 6.28969 -8.94963
106 1 11.007 1.57241 7.8621 -8.94965
107 1 12.5794 -3.71466e-16 6.28969 -8.94964
108 1 14.1518 1.57242 7.86211 -8.94964
109 1 15.7242 6.01274e-16 6.28969 -8.94963
110 1 17.2966 1.57242 7.86211 -8.94963
111 1 18.8691 8.80144e-16 6.28969 -8.94963
112 1 20.4415 1.57242 7.86211 -8.94963
113 1 7.2364e-08 3.14484 6.28969 -8.94963
114 1 1.57242 4.71727 7.86211 -8.94965
115 1 3.14484 3.14484 6.28969 -8.94965
116 1 4.71727 4.71726 7.86211 -8.94988
117 1 6.28968 3.14482 6.28968 -8.94963
118 1 7.86197 4.71689 7.86196 -8.95048
119 1 9.43453 3.14484 6.28969 -8.94963
120 1 11.0071 4.71705 7.86197 -8.9492
121 1 12.5794 3.14483 6.28968 -8.94965
122 1 14.1518 4.71725 7.86211 -8.94978
123 1 15.7242 3.14484 6.28969 -8.94964
124 1 17.2966 4.71727 7.86211 -8.94966
125 1 18.8691 3.14484 6.28969 -8.94963
126 1 20.4415 4.71726 7.86211 -8.94963
127 1 22.0139 6.28969 6.28969 -8.94963
128 1 1.57239 7.86209 7.86209 -8.9497
129 1 3.14481 6.28966 6.28966 -8.94948
130 1 4.71658 7.86164 7.86163 -8.9472
131 1 6.28933 6.28934 6.28934 -8.94648
132 1 7.85529 7.85535 7.85506 -8.88855
133 1 9.4346 6.28962 6.28971 -8.95147
134 1 11.0094 7.86014 7.85918 -8.92914
135 1 12.5795 6.28936 6.28956 -8.95026
136 1 14.1524 7.86158 7.86168 -8.94615
137 1 15.7242 6.28967 6.28967 -8.94958
138 1 17.2967 7.86209 7.8621 -8.94967
139 1 18.8691 6.28969 6.28969 -8.94963
140 1 20.4415 7.86211 7.86211 -8.94964
141 1 3.38602e-07 9.43453 6.28969 -8.94964
142 1 3.14484 9.43453 6.28969 -8.9498
143 1 6.28944 9.43444 6.28924 -8.9514
144 1 9.43251 9.43228 6.28797 -8.93934
145 1 12.5854 9.42855 6.28371 -8.90404
146 1 15.7245 9.43446 6.28962 -8.95084
147 1 18.8691 9.43453 6.28968 -8.94969
148 1 -1.86775e-10 4.81663e-16 9.43453 -8.94963
149 1 3.14484 -1.54579e-16 9.43453 -8.94963
150 1 6.28969 2.50043e-16 9.43453 -8.94964
151 1 9.43453 3.42822e-16 9.43453 -8.94975
152 1 12.5794 -6.26037e-16 9.43453 -8.94964
153 1 15.7242 5.01416e-16 9.43453 -8.94963
154 1 18.8691 5.99699e-16 9.43453 -8.94963
155 1 22.0139 3.14484 9.43453 -8.94963
156 1 3.14484 3.14484 9.43453 -8.94964
177 1 4.71726 1.57242 11.007 -8.94963
184 1 4.71727 4.71726 11.0069 -8.94974
3 1 3.14484 6.79433e-16 1.31493e-09 -8.94963
11 1 15.7242 1.01062e-15 2.35003e-09 -8.94963
41 1 18.8691 6.28969 3.02808e-08 -8.94963
19 1 6.28969 3.14484 3.87289e-08 -8.94963
25 1 15.7242 3.14484 2.87492e-08 -8.94963
176 1 1.57242 1.57242 11.007 -8.94963
47 1 12.5794 9.43453 22.0139 -8.94969
178 1 7.8621 1.57241 11.007 -8.94969
179 1 11.007 1.57241 11.007 -8.94964
180 1 14.1518 1.57242 11.007 -8.94964
343 1 18.8691 9.43453 18.8691 -8.94963
182 1 20.4415 1.57242 11.007 -8.94963
342 1 15.7242 9.43453 18.8691 -8.94963
46 1 9.43453 9.43453 22.0139 -8.94965
185 1 7.86196 4.71692 11.0071 -8.94995
186 1 11.0071 4.71708 11.0071 -8.9487
187 1 14.1518 4.71724 11.0069 -8.94969
341 1 12.5794 9.43453 18.8691 -8.94976
340 1 9.43453 9.43453 18.8691 -8.94977
190 1 1.5724 7.8621 11.007 -8.94966
191 1 4.71686 7.86194 11.007 -8.953
192 1 7.85527 7.85689 11.0129 -8.89936
193 1 11.0098 7.86148 11.009 -8.93341
194 1 14.1523 7.86172 11.007 -8.95128
195 1 17.2967 7.86209 11.007 -8.94961
196 1 20.4415 7.86211 11.007 -8.94964
197 1 22.0139 4.16773e-16 12.5794 -8.94963
198 1 1.57242 1.57242 14.1518 -8.94963
199 1 3.14484 -3.46504e-16 12.5794 -8.94963
200 1 4.71726 1.57242 14.1518 -8.94963
201 1 6.28969 6.45671e-16 12.5794 -8.94964
202 1 7.86211 1.57242 14.1518 -8.94964
203 1 9.43453 7.30621e-16 12.5794 -8.94964
204 1 11.007 1.57242 14.1518 -8.94964
205 1 12.5794 -4.11721e-16 12.5794 -8.94964
206 1 14.1518 1.57242 14.1518 -8.94964
207 1 15.7242 -3.26699e-16 12.5794 -8.94963
208 1 17.2966 1.57242 14.1518 -8.94963
209 1 18.8691 1.47725e-16 12.5794 -8.94963
210 1 20.4415 1.57242 14.1518 -8.94963
211 1 22.0139 3.14484 12.5794 -8.94963
212 1 1.57242 4.71726 14.1518 -8.94965
213 1 3.14484 3.14484 12.5794 -8.94964
214 1 4.71725 4.71724 14.1518 -8.94957
215 1 6.28968 3.14482 12.5794 -8.94969
216 1 7.86211 4.71723 14.1518 -8.94992
217 1 9.43453 3.14482 12.5794 -8.94976
218 1 11.007 4.71722 14.1518 -8.94972
219 1 12.5794 3.14482 12.5794 -8.94973
220 1 14.1518 4.71723 14.1518 -8.94973
221 1 15.7242 3.14484 12.5794 -8.94963
222 1 17.2966 4.71727 14.1518 -8.94966
223 1 18.8691 3.14484 12.5794 -8.94963
224 1 20.4415 4.71726 14.1518 -8.94963
225 1 2.6533e-07 6.28969 12.5794 -8.94963
226 1 1.5724 7.8621 14.1518 -8.94964
227 1 3.14484 6.28969 12.5794 -8.94981
228 1 4.71687 7.86171 14.1522 -8.94626
229 1 6.28938 6.28911 12.5797 -8.94886
230 1 7.86157 7.86127 14.1528 -8.94576
231 1 9.4346 6.2892 12.5793 -8.95423
232 1 11.0073 7.86139 14.1526 -8.94551
233 1 12.5795 6.28908 12.5795 -8.95288
234 1 14.1526 7.86133 14.1526 -8.94218
235 1 15.7242 6.28969 12.5794 -8.94988
236 1 17.2967 7.86209 14.1518 -8.9497
237 1 18.8691 6.28969 12.5794 -8.94963
238 1 20.4415 7.86211 14.1518 -8.94964
239 1 22.0139 9.43452 12.5794 -8.9497
240 1 3.14445 9.43437 12.5795 -8.95061
241 1 6.28303 9.42666 12.5873 -8.88257
242 1 9.43326 9.42329 12.5899 -8.65679
243 1 12.5926 9.41893 12.5944 -8.80058
244 1 15.7248 9.43435 12.5795 -8.95223
245 1 18.8691 9.43452 12.5794 -8.94976
246 1 3.19833e-09 2.72905e-16 15.7242 -8.94963
247 1 1.57242 1.57242 17.2966 -8.94963
248 1 3.14484 -7.77208e-16 15.7242 -8.94963
249 1 4.71726 1.57242 17.2966 -8.94963
250 1 6.28969 1.81338e-16 15.7242 -8.94963
251 1 7.86211 1.57242 17.2966 -8.94963
252 1 9.43453 2.40457e-16 15.7242 -8.94963
253 1 11.007 1.57242 17.2966 -8.94963
254 1 12.5794 6.35425e-16 15.7242 -8.94963
255 1 14.1518 1.57242 17.2966 -8.94963
256 1 15.7242 8.32289e-16 15.7242 -8.94963
257 1 17.2966 1.57242 17.2966 -8.94963
258 1 18.8691 1.08563e-15 15.7242 -8.94963
259 1 20.4415 1.57242 17.2966 -8.94963
260 1 2.01298e-08 3.14484 15.7242 -8.94963
261 1 1.57242 4.71726 17.2966 -8.94963
262 1 3.14484 3.14484 15.7242 -8.94963
263 1 4.71726 4.71726 17.2966 -8.94963
264 1 6.28969 3.14484 15.7242 -8.94964
265 1 7.86211 4.71727 17.2966 -8.94967
266 1 9.43453 3.14484 15.7242 -8.94962
267 1 11.0069 4.71727 17.2966 -8.94967
268 1 12.5794 3.14484 15.7242 -8.94963
269 1 14.1518 4.71726 17.2966 -8.94965
270 1 15.7242 3.14484 15.7242 -8.94963
271 1 17.2966 4.71726 17.2966 -8.94962
272 1 18.8691 3.14484 15.7242 -8.94963
273 1 20.4415 4.71726 17.2966 -8.94963
274 1 22.0139 6.28969 15.7242 -8.94963
275 1 1.57242 7.86211 17.2966 -8.94965
276 1 3.14483 6.28967 15.7242 -8.94947
277 1 4.71726 7.8621 17.2966 -8.94971
278 1 6.28965 6.28966 15.7243 -8.94952
279 1 7.86209 7.86208 17.2967 -8.94973
280 1 9.43453 6.2897 15.7242 -8.94958
281 1 11.007 7.86209 17.2967 -8.94973
282 1 12.5794 6.28967 15.7242 -8.94976
283 1 14.1518 7.86209 17.2967 -8.94972
284 1 15.7242 6.28966 15.7242 -8.94928
285 1 17.2966 7.86211 17.2966 -8.94966
286 1 18.8691 6.28969 15.7242 -8.94963
287 1 20.4415 7.86211 17.2966 -8.94963
288 1 7.30473e-07 9.43453 15.7242 -8.94963
289 1 3.14486 9.43453 15.7242 -8.9498
290 1 6.28968 9.43451 15.7245 -8.95169
291 1 9.43441 9.43442 15.7248 -8.95195
292 1 12.5795 9.43438 15.7248 -8.95254
293 1 15.7242 9.43453 15.7242 -8.94989
294 1 18.8691 9.43453 15.7242 -8.94963
295 1 22.0139 5.70343e-17 18.8691 -8.94963
296 1 1.57242 1.57242 20.4415 -8.94963
297 1 3.14484 5.48368e-17 18.8691 -8.94963
298 1 4.71726 1.57242 20.4415 -8.94963
299 1 6.28969 1.51875e-16 18.8691 -8.94963
300 1 7.86211 1.57242 20.4415 -8.94963
301 1 9.43453 -3.72766e-16 18.8691 -8.94963
302 1 11.007 1.57242 20.4415 -8.94963
303 1 12.5794 1.75356e-16 18.8691 -8.94963
304 1 14.1518 1.57242 20.4415 -8.94963
305 1 15.7242 7.0372e-16 18.8691 -8.94963
306 1 17.2966 1.57242 20.4415 -8.94963
307 1 18.8691 1.13907e-16 18.8691 -8.94963
308 1 20.4415 1.57242 20.4415 -8.94963
309 1 22.0139 3.14484 18.8691 -8.94963
310 1 1.57242 4.71726 20.4415 -8.94963
311 1 3.14484 3.14484 18.8691 -8.94963
312 1 4.71726 4.71726 20.4415 -8.94963
313 1 6.28969 3.14484 18.8691 -8.94963
314 1 7.86211 4.71726 20.4415 -8.94963
315 1 9.43453 3.14484 18.8691 -8.94963
316 1 11.007 4.71726 20.4415 -8.94963
317 1 12.5794 3.14484 18.8691 -8.94963
318 1 14.1518 4.71726 20.4415 -8.94963
319 1 15.7242 3.14484 18.8691 -8.94963
320 1 17.2966 4.71726 20.4415 -8.94963
321 1 18.8691 3.14484 18.8691 -8.94963
322 1 20.4415 4.71726 20.4415 -8.94963
323 1 3.8842e-08 6.28969 18.8691 -8.94963
324 1 1.57242 7.86211 20.4415 -8.94963
325 1 3.14484 6.28969 18.8691 -8.94963
326 1 4.71726 7.86211 20.4415 -8.94964
327 1 6.28968 6.28968 18.8691 -8.94963
328 1 7.86211 7.86211 20.4415 -8.94964
329 1 9.43453 6.28969 18.8691 -8.94962
330 1 11.007 7.86211 20.4415 -8.94964
331 1 12.5794 6.28969 18.8691 -8.94963
332 1 14.1518 7.86211 20.4415 -8.94964
333 1 15.7242 6.28969 18.8691 -8.94963
334 1 17.2966 7.86211 20.4415 -8.94963
335 1 18.8691 6.28969 18.8691 -8.94963
336 1 20.4415 7.86211 20.4415 -8.94963
337 1 22.0139 9.43453 18.8691 -8.94963
338 1 3.14484 9.43453 18.8691 -8.94963
339 1 6.28969 9.43453 18.8691 -8.94971
45 1 6.28969 9.43453 22.0139 -8.94964
5 1 6.28969 1.24785e-15 22.0139 -8.94963
9 1 12.5794 -2.19171e-16 22.0139 -8.94963
39 1 15.7242 6.28969 22.0139 -8.94963
15 1 22.0139 3.14484 22.0139 -8.94963
17 1 3.14484 3.14484 22.0139 -8.94963
33 1 6.28969 6.28969 22.0139 -8.94963
23 1 12.5794 3.14484 22.0139 -8.94963
31 1 3.14484 6.28969 22.0139 -8.94963
27 1 18.8691 3.14484 22.0139 -8.94963
29 1 22.0139 6.28969 22.0139 -8.94963
1 1 22.0139 1.33635e-16 22.0139 -8.94963
13 1 18.8691 4.07861e-16 22.0139 -8.94963
21 1 9.43453 3.14484 22.0139 -8.94963
43 1 22.0139 9.43453 22.0139 -8.94963
49 1 18.8691 9.43453 22.0139 -8.94963
344 1 1.57242 11.007 1.57242 -8.94963
345 1 4.71726 11.007 1.57242 -8.94963
346 1 7.86211 11.007 1.57242 -8.94967
347 1 11.0069 11.007 1.57219 -8.95103
348 1 14.1518 11.007 1.57242 -8.94962
349 1 17.2966 11.007 1.57242 -8.94964
350 1 20.4415 11.007 1.57242 -8.94963
538 1 17.2966 20.4415 11.007 -8.94963
352 1 1.57242 14.1518 1.57242 -8.94963
353 1 3.14484 12.5794 2.69166e-08 -8.94963
354 1 4.71726 14.1518 1.57242 -8.94964
688 3 10.2292 11.007 9.46132 2.87988
356 1 7.8621 14.1518 1.57241 -8.94966
511 1 18.8691 18.8691 9.43453 -8.94963
358 1 11.0069 14.1518 1.57242 -8.94965
510 1 15.7242 18.8691 9.43453 -8.94962
360 1 14.1518 14.1518 1.5724 -8.94963
361 1 15.7242 12.5794 6.44201e-07 -8.94963
362 1 17.2966 14.1518 1.57242 -8.94965
532 1 20.4415 17.2966 11.007 -8.94963
364 1 20.4415 14.1518 1.57242 -8.94963
509 1 12.5794 18.8691 9.43453 -8.94973
366 1 1.57242 17.2966 1.57242 -8.94963
508 1 9.43453 18.8693 9.43453 -8.95096
368 1 4.71726 17.2966 1.57242 -8.94963
507 1 6.28968 18.8691 9.43453 -8.94968
370 1 7.86211 17.2966 1.57242 -8.94964
371 1 9.43453 15.7242 3.44295e-07 -8.94963
372 1 11.007 17.2966 1.57242 -8.94963
373 1 12.5794 15.7242 7.10645e-07 -8.94964
374 1 14.1518 17.2966 1.57242 -8.94965
506 1 3.14484 18.8691 9.43453 -8.94964
376 1 17.2966 17.2966 1.57242 -8.94963
505 1 22.0139 18.8691 9.43453 -8.94963
378 1 20.4415 17.2966 1.57242 -8.94963
504 1 18.8691 15.7242 9.43453 -8.94963
380 1 1.57242 20.4415 1.57242 -8.94963
503 1 15.7242 15.7242 9.43453 -8.9497
382 1 4.71726 20.4415 1.57242 -8.94963
502 1 12.5793 15.7245 9.43452 -8.9529
384 1 7.86211 20.4415 1.57242 -8.94963
531 1 17.2966 17.2966 11.007 -8.94966
386 1 11.007 20.4415 1.57242 -8.94963
501 1 9.43438 15.7293 9.43454 -8.97514
388 1 14.1518 20.4415 1.57242 -8.94963
500 1 6.28963 15.7246 9.43452 -8.95352
390 1 17.2966 20.4415 1.57242 -8.94963
499 1 3.14485 15.7242 9.43453 -8.94977
392 1 20.4415 20.4415 1.57242 -8.94963
393 1 1.57242 11.007 4.71726 -8.94964
394 1 4.71727 11.007 4.71726 -8.94956
395 1 7.86217 11.007 4.71718 -8.95078
396 1 11.0071 11.007 4.71188 -8.97266
397 1 14.1518 11.007 4.7172 -8.95121
398 1 17.2966 11.007 4.71726 -8.94961
399 1 20.4415 11.007 4.71726 -8.94963
400 1 8.8233e-09 12.5794 3.14484 -8.94963
401 1 1.57242 14.1518 4.71727 -8.94965
402 1 3.14484 12.5794 3.14484 -8.94964
403 1 4.71726 14.1518 4.71725 -8.94982
404 1 6.28968 12.5794 3.14483 -8.94978
405 1 7.86199 14.1519 4.71691 -8.95055
406 1 9.43441 12.5795 3.14465 -8.94913
407 1 11.0069 14.1518 4.71718 -8.95138
408 1 12.5795 12.5795 3.1445 -8.95028
409 1 14.1521 14.1521 4.71694 -8.94686
410 1 15.7242 12.5794 3.14485 -8.9498
411 1 17.2966 14.1518 4.71726 -8.94967
412 1 18.8691 12.5794 3.14484 -8.94963
413 1 20.4415 14.1518 4.71726 -8.94963
414 1 22.0139 15.7242 3.14484 -8.94963
415 1 1.57242 17.2966 4.71726 -8.94962
416 1 3.14484 15.7242 3.14484 -8.94964
417 1 4.71725 17.2966 4.71725 -8.94949
418 1 6.28968 15.7242 3.14483 -8.94964
419 1 7.86211 17.2966 4.71728 -8.94986
420 1 9.43453 15.7242 3.14484 -8.94964
421 1 11.0069 17.2966 4.71726 -8.94966
422 1 12.5794 15.7242 3.14485 -8.94983
423 1 14.1518 17.2967 4.71726 -8.94964
424 1 15.7242 15.7242 3.14483 -8.94949
425 1 17.2966 17.2966 4.71726 -8.94964
426 1 18.8691 15.7242 3.14484 -8.94963
427 1 20.4415 17.2966 4.71726 -8.94963
428 1 22.0139 18.8691 3.14484 -8.94963
429 1 1.57242 20.4415 4.71726 -8.94963
430 1 3.14484 18.8691 3.14484 -8.94963
431 1 4.71726 20.4415 4.71726 -8.94963
432 1 6.28969 18.8691 3.14484 -8.94965
433 1 7.86211 20.4415 4.71726 -8.94963
434 1 9.43453 18.8691 3.14484 -8.94964
435 1 11.007 20.4415 4.71726 -8.94963
436 1 12.5794 18.8691 3.14484 -8.94964
437 1 14.1518 20.4415 4.71726 -8.94963
438 1 15.7242 18.8691 3.14484 -8.94963
439 1 17.2966 20.4415 4.71726 -8.94963
440 1 18.8691 18.8691 3.14484 -8.94963
441 1 20.4415 20.4415 4.71726 -8.94963
442 1 1.5724 11.007 7.8621 -8.94964
443 1 4.71687 11.007 7.86191 -8.95181
444 1 7.85859 11.007 7.8598 -8.91327
445 1 11.0664 11.007 7.73431 -8.08053
446 1 14.155 11.007 7.86179 -8.9644
447 1 17.2968 11.007 7.8621 -8.95033
448 1 20.4415 11.007 7.86211 -8.94967
449 1 3.38602e-07 12.5794 6.28969 -8.94964
450 1 1.57239 14.1518 7.86209 -8.9497
451 1 3.14484 12.5794 6.28969 -8.9498
452 1 4.71658 14.1523 7.86163 -8.9472
453 1 6.28944 12.5795 6.28924 -8.9514
454 1 7.85529 14.1585 7.85506 -8.88855
455 1 9.43251 12.5816 6.28797 -8.93934
456 1 11.0094 14.1538 7.85918 -8.92914
457 1 12.5854 12.5854 6.28371 -8.90404
458 1 14.1524 14.1523 7.86168 -8.94615
459 1 15.7245 12.5794 6.28962 -8.95084
460 1 17.2967 14.1518 7.8621 -8.94967
461 1 18.8691 12.5794 6.28968 -8.94969
462 1 20.4415 14.1518 7.86211 -8.94964
463 1 22.0139 15.7242 6.28969 -8.94963
464 1 1.57242 17.2966 7.86211 -8.94965
465 1 3.14481 15.7242 6.28966 -8.94948
466 1 4.71727 17.2966 7.86211 -8.94988
467 1 6.28933 15.7246 6.28934 -8.94648
468 1 7.86197 17.297 7.86196 -8.95048
469 1 9.4346 15.7243 6.28971 -8.95147
470 1 11.0071 17.2968 7.86197 -8.9492
471 1 12.5795 15.7245 6.28956 -8.95026
472 1 14.1518 17.2967 7.86211 -8.94978
473 1 15.7242 15.7242 6.28967 -8.94958
474 1 17.2966 17.2966 7.86211 -8.94966
475 1 18.8691 15.7242 6.28969 -8.94963
476 1 20.4415 17.2966 7.86211 -8.94963
477 1 7.2364e-08 18.8691 6.28969 -8.94963
478 1 1.57242 20.4415 7.86211 -8.94963
479 1 3.14484 18.8691 6.28969 -8.94965
480 1 4.71726 20.4415 7.86211 -8.94964
481 1 6.28968 18.8691 6.28968 -8.94963
482 1 7.8621 20.4415 7.8621 -8.9497
483 1 9.43453 18.8691 6.28969 -8.94963
484 1 11.007 20.4415 7.8621 -8.94965
485 1 12.5794 18.8691 6.28968 -8.94965
486 1 14.1518 20.4415 7.86211 -8.94964
487 1 15.7242 18.8691 6.28969 -8.94964
488 1 17.2966 20.4415 7.86211 -8.94963
489 1 18.8691 18.8691 6.28969 -8.94963
490 1 20.4415 20.4415 7.86211 -8.94963
491 1 22.0139 12.5794 9.43452 -8.94973
492 1 3.14434 12.5795 9.43438 -8.95138
493 1 6.28 12.5876 9.42673 -8.8979
494 1 9.37028 12.721 9.42055 -7.77585
495 1 12.5877 12.5889 9.42779 -8.85933
496 1 15.7248 12.5796 9.43444 -8.95067
497 1 18.8691 12.5794 9.43453 -8.94974
498 1 5.52132e-07 15.7242 9.43453 -8.94963
526 1 1.57242 17.2966 11.007 -8.94964
527 1 4.71727 17.2966 11.0069 -8.94974
534 1 4.71726 20.4415 11.007 -8.94963
389 1 15.7242 18.8691 2.87492e-08 -8.94963
377 1 18.8691 15.7242 3.02808e-08 -8.94963
383 1 6.28969 18.8691 3.87289e-08 -8.94963
512 1 1.57216 11.007 11.007 -8.95065
513 1 4.71303 11.007 11.0071 -8.99244
514 1 7.61818 11.007 11.0076 -7.59383
515 1 11.299 11.007 11.1171 -6.90615
516 1 14.156 11.007 11.0075 -9.00001
517 1 17.2969 11.007 11.0069 -8.95059
518 1 20.4415 11.007 11.007 -8.94976
519 1 1.5724 14.1518 11.007 -8.94966
520 1 4.71686 14.152 11.007 -8.953
521 1 7.85527 14.157 11.0129 -8.89936
522 1 11.0098 14.1524 11.009 -8.93341
523 1 14.1523 14.1522 11.007 -8.95128
524 1 17.2967 14.1518 11.007 -8.94961
525 1 20.4415 14.1518 11.007 -8.94964
687 3 9.44758 11.007 11.0048 3.0227
391 1 18.8691 18.8691 22.0139 -8.94963
528 1 7.86196 17.297 11.0071 -8.94995
529 1 11.0071 17.2968 11.0071 -8.9487
530 1 14.1518 17.2967 11.0069 -8.94969
686 1 20.4415 20.4415 20.4415 -8.94963
685 1 18.8691 18.8691 18.8691 -8.94963
533 1 1.57242 20.4415 11.007 -8.94963
387 1 12.5794 18.8691 22.0139 -8.94963
535 1 7.8621 20.4415 11.007 -8.94969
536 1 11.007 20.4415 11.007 -8.94964
537 1 14.1518 20.4415 11.007 -8.94964
684 1 17.2966 20.4415 20.4415 -8.94963
539 1 20.4415 20.4415 11.007 -8.94963
540 1 1.57241 11.007 14.1518 -8.9496
541 1 4.71714 11.007 14.1519 -8.95205
542 1 7.86112 11.007 14.1515 -8.94732
543 1 11.0079 11.007 14.1568 -8.96948
544 1 14.1522 11.007 14.1522 -8.95251
545 1 17.2967 11.007 14.1518 -8.94961
546 1 20.4415 11.007 14.1518 -8.94964
547 1 22.0139 12.5794 12.5794 -8.9497
548 1 1.5724 14.1518 14.1518 -8.94964
549 1 3.14445 12.5795 12.5795 -8.95061
550 1 4.71687 14.1522 14.1522 -8.94626
551 1 6.28303 12.5872 12.5873 -8.88257
552 1 7.86157 14.1526 14.1528 -8.94576
553 1 9.43326 12.5906 12.5899 -8.65679
554 1 11.0073 14.1525 14.1526 -8.94551
555 1 12.5926 12.595 12.5944 -8.80058
556 1 14.1526 14.1526 14.1526 -8.94218
557 1 15.7248 12.5796 12.5795 -8.95223
558 1 17.2967 14.1518 14.1518 -8.9497
559 1 18.8691 12.5794 12.5794 -8.94976
560 1 20.4415 14.1518 14.1518 -8.94964
561 1 2.6533e-07 15.7242 12.5794 -8.94963
562 1 1.57242 17.2966 14.1518 -8.94965
563 1 3.14484 15.7242 12.5794 -8.94981
564 1 4.71725 17.2967 14.1518 -8.94957
565 1 6.28938 15.7248 12.5797 -8.94886
566 1 7.86211 17.2967 14.1518 -8.94992
567 1 9.4346 15.7247 12.5793 -8.95423
568 1 11.007 17.2967 14.1518 -8.94972
569 1 12.5795 15.7248 12.5795 -8.95288
570 1 14.1518 17.2967 14.1518 -8.94973
571 1 15.7242 15.7242 12.5794 -8.94988
572 1 17.2966 17.2966 14.1518 -8.94966
573 1 18.8691 15.7242 12.5794 -8.94963
574 1 20.4415 17.2966 14.1518 -8.94963
575 1 22.0139 18.8691 12.5794 -8.94963
576 1 1.57242 20.4415 14.1518 -8.94963
577 1 3.14484 18.8691 12.5794 -8.94964
578 1 4.71726 20.4415 14.1518 -8.94963
579 1 6.28968 18.8691 12.5794 -8.94969
580 1 7.86211 20.4415 14.1518 -8.94964
581 1 9.43453 18.8691 12.5794 -8.94976
582 1 11.007 20.4415 14.1518 -8.94964
583 1 12.5794 18.8691 12.5794 -8.94973
584 1 14.1518 20.4415 14.1518 -8.94964
585 1 15.7242 18.8691 12.5794 -8.94963
586 1 17.2966 20.4415 14.1518 -8.94963
587 1 18.8691 18.8691 12.5794 -8.94963
588 1 20.4415 20.4415 14.1518 -8.94963
589 1 1.57242 11.007 17.2966 -8.94964
590 1 4.71726 11.007 17.2966 -8.94958
591 1 7.8621 11.007 17.2967 -8.94933
592 1 11.007 11.007 17.2969 -8.95067
593 1 14.1518 11.007 17.2967 -8.94964
594 1 17.2966 11.007 17.2966 -8.94966
595 1 20.4415 11.007 17.2966 -8.94963
596 1 7.30473e-07 12.5794 15.7242 -8.94963
597 1 1.57242 14.1518 17.2966 -8.94965
598 1 3.14486 12.5794 15.7242 -8.9498
599 1 4.71726 14.1518 17.2966 -8.94971
600 1 6.28968 12.5794 15.7245 -8.95169
601 1 7.86209 14.1518 17.2967 -8.94973
602 1 9.43441 12.5795 15.7248 -8.95195
603 1 11.007 14.1518 17.2967 -8.94973
604 1 12.5795 12.5795 15.7248 -8.95254
605 1 14.1518 14.1518 17.2967 -8.94972
606 1 15.7242 12.5794 15.7242 -8.94989
607 1 17.2966 14.1518 17.2966 -8.94966
608 1 18.8691 12.5794 15.7242 -8.94963
609 1 20.4415 14.1518 17.2966 -8.94963
610 1 22.0139 15.7242 15.7242 -8.94963
611 1 1.57242 17.2966 17.2966 -8.94963
612 1 3.14483 15.7242 15.7242 -8.94947
613 1 4.71726 17.2966 17.2966 -8.94963
614 1 6.28965 15.7242 15.7243 -8.94952
615 1 7.86211 17.2966 17.2966 -8.94967
616 1 9.43453 15.7242 15.7242 -8.94958
617 1 11.0069 17.2966 17.2966 -8.94967
618 1 12.5794 15.7242 15.7242 -8.94976
619 1 14.1518 17.2966 17.2966 -8.94965
620 1 15.7242 15.7242 15.7242 -8.94928
621 1 17.2966 17.2966 17.2966 -8.94962
622 1 18.8691 15.7242 15.7242 -8.94963
623 1 20.4415 17.2966 17.2966 -8.94963
624 1 2.01298e-08 18.8691 15.7242 -8.94963
625 1 1.57242 20.4415 17.2966 -8.94963
626 1 3.14484 18.8691 15.7242 -8.94963
627 1 4.71726 20.4415 17.2966 -8.94963
628 1 6.28969 18.8691 15.7242 -8.94964
629 1 7.86211 20.4415 17.2966 -8.94963
630 1 9.43453 18.8691 15.7242 -8.94962
631 1 11.007 20.4415 17.2966 -8.94963
632 1 12.5794 18.8691 15.7242 -8.94963
633 1 14.1518 20.4415 17.2966 -8.94963
634 1 15.7242 18.8691 15.7242 -8.94963
635 1 17.2966 20.4415 17.2966 -8.94963
636 1 18.8691 18.8691 15.7242 -8.94963
637 1 20.4415 20.4415 17.2966 -8.94963
638 1 1.57242 11.007 20.4415 -8.94963
639 1 4.71726 11.007 20.4415 -8.94963
640 1 7.86211 11.007 20.4415 -8.94963
641 1 11.007 11.007 20.4415 -8.94974
642 1 14.1518 11.007 20.4415 -8.94964
643 1 17.2966 11.007 20.4415 -8.94963
644 1 20.4415 11.007 20.4415 -8.94963
645 1 22.0139 12.5794 18.8691 -8.94963
646 1 1.57242 14.1518 20.4415 -8.94963
647 1 3.14484 12.5794 18.8691 -8.94963
648 1 4.71726 14.1518 20.4415 -8.94964
649 1 6.28969 12.5794 18.8691 -8.94971
650 1 7.86211 14.1518 20.4415 -8.94964
651 1 9.43453 12.5794 18.8691 -8.94977
652 1 11.007 14.1518 20.4415 -8.94964
653 1 12.5794 12.5794 18.8691 -8.94976
654 1 14.1518 14.1518 20.4415 -8.94964
655 1 15.7242 12.5794 18.8691 -8.94963
656 1 17.2966 14.1518 20.4415 -8.94963
657 1 18.8691 12.5794 18.8691 -8.94963
658 1 20.4415 14.1518 20.4415 -8.94963
659 1 3.8842e-08 15.7242 18.8691 -8.94963
660 1 1.57242 17.2966 20.4415 -8.94963
661 1 3.14484 15.7242 18.8691 -8.94963
662 1 4.71726 17.2966 20.4415 -8.94963
663 1 6.28968 15.7242 18.8691 -8.94963
664 1 7.86211 17.2966 20.4415 -8.94963
665 1 9.43453 15.7242 18.8691 -8.94962
666 1 11.007 17.2966 20.4415 -8.94963
667 1 12.5794 15.7242 18.8691 -8.94963
668 1 14.1518 17.2966 20.4415 -8.94963
669 1 15.7242 15.7242 18.8691 -8.94963
670 1 17.2966 17.2966 20.4415 -8.94963
671 1 18.8691 15.7242 18.8691 -8.94963
672 1 20.4415 17.2966 20.4415 -8.94963
673 1 22.0139 18.8691 18.8691 -8.94963
674 1 1.57242 20.4415 20.4415 -8.94963
675 1 3.14484 18.8691 18.8691 -8.94963
676 1 4.71726 20.4415 20.4415 -8.94963
677 1 6.28969 18.8691 18.8691 -8.94963
678 1 7.86211 20.4415 20.4415 -8.94963
679 1 9.43453 18.8691 18.8691 -8.94963
680 1 11.007 20.4415 20.4415 -8.94963
681 1 12.5794 18.8691 18.8691 -8.94963
682 1 14.1518 20.4415 20.4415 -8.94963
683 1 15.7242 18.8691 18.8691 -8.94963
355 1 6.28969 12.5794 22.0139 -8.94964
357 1 9.43453 12.5794 22.0139 -8.94965
359 1 12.5794 12.5794 22.0139 -8.94969
365 1 22.0139 15.7242 22.0139 -8.94963
367 1 3.14484 15.7242 22.0139 -8.94963
369 1 6.28969 15.7242 22.0139 -8.94963
375 1 15.7242 15.7242 22.0139 -8.94963
381 1 3.14484 18.8691 22.0139 -8.94963
379 1 22.0139 18.8691 22.0139 -8.94963
351 1 22.0139 12.5794 22.0139 -8.94963
363 1 18.8691 12.5794 22.0139 -8.94963
385 1 9.43453 18.8691 22.0139 -8.94963
