ITEM: TIMESTEP
55
ITEM: NUMBER OF ATOMS
688
ITEM: BOX BOUNDS pp pp pp
0.0000000000000000e+00 2.2013900999999997e+01
0.0000000000000000e+00 2.2013900999999997e+01
0.0000000000000000e+00 2.2013900999999997e+01
ITEM: ATOMS id type x y z c_pot
189 1 20.4415 4.71721 11.007 -8.94961
2 1 1.5724 1.57241 1.5724 -8.94956
175 1 18.87 9.43422 9.43438 -8.94987
4 1 4.71726 1.57241 1.57241 -8.94969
174 1 15.7293 9.43244 9.43297 -8.94811
6 1 7.8621 1.5724 1.5724 -8.94964
7 1 9.43453 -9.20347e-16 -1.95643e-06 -8.94964
8 1 11.007 1.5724 1.5724 -8.94965
173 1 12.5951 9.40978 9.40218 -8.8241
10 1 14.1518 1.57241 1.57241 -8.94963
172 1 9.35767 9.21068 9.41293 -7.8067
12 1 17.2967 1.5724 1.5724 -8.94961
188 1 17.2969 4.71699 11.0069 -8.94944
14 1 20.4415 1.57242 1.57242 -8.94962
171 1 6.25145 9.39504 9.39937 -8.86625
16 1 1.5724 4.71725 1.57239 -8.9497
170 1 3.13722 9.4331 9.43279 -8.95579
18 1 4.71712 4.71712 1.57217 -8.94955
169 1 22.0129 9.43441 9.43439 -8.95094
20 1 7.86209 4.71713 1.57226 -8.94946
183 1 1.57214 4.71703 11.007 -8.94954
22 1 11.007 4.71712 1.57225 -8.94954
168 1 18.8693 6.28943 9.43449 -8.94942
24 1 14.1518 4.71717 1.57232 -8.9498
167 1 15.7255 6.28817 9.43423 -8.94687
26 1 17.2968 4.71711 1.57226 -8.94917
166 1 12.5787 6.2862 9.43418 -8.95692
28 1 20.4415 4.71725 1.57241 -8.94964
165 1 9.43153 6.29194 9.43557 -9.00314
30 1 1.57239 7.8621 1.57239 -8.94959
164 1 6.28507 6.28046 9.43433 -8.95574
32 1 4.71718 7.86213 1.57222 -8.94993
163 1 3.14301 6.28824 9.43438 -8.94809
34 1 7.8619 7.86187 1.57142 -8.95106
35 1 9.4345 6.28956 -0.000137291 -8.94964
36 1 11.0067 7.86178 1.57156 -8.94987
37 1 12.5794 6.2896 -9.9888e-05 -8.94962
38 1 14.1523 7.86159 1.57126 -8.9505
162 1 -0.000293092 6.28949 9.4345 -8.94956
40 1 17.2967 7.86208 1.57232 -8.94966
161 1 18.8691 3.14481 9.43452 -8.94966
42 1 20.4415 7.8621 1.57241 -8.94963
181 1 17.2967 1.57238 11.007 -8.94962
44 1 3.1448 9.43452 -2.17885e-05 -8.94963
160 1 15.7244 3.1445 9.43448 -8.94945
159 1 12.5795 3.14415 9.4346 -8.95008
158 1 9.43472 3.14396 9.43464 -8.94771
48 1 15.7243 9.4345 -0.000119626 -8.94953
157 1 6.28921 3.14318 9.43464 -8.95054
50 1 22.0139 7.10892e-16 3.14484 -8.94965
51 1 1.5724 1.57239 4.71725 -8.94968
52 1 3.14481 1.66396e-15 3.14481 -8.94959
53 1 4.71714 1.57222 4.71713 -8.94969
54 1 6.28969 9.54292e-16 3.14483 -8.94962
55 1 7.86211 1.57228 4.71717 -8.94953
56 1 9.43453 -4.9454e-16 3.14482 -8.94964
57 1 11.007 1.57226 4.71714 -8.94953
58 1 12.5794 4.67555e-16 3.14481 -8.9496
59 1 14.1519 1.57226 4.71719 -8.94985
60 1 15.7242 7.34034e-16 3.14482 -8.94966
61 1 17.2967 1.57239 4.71726 -8.94965
62 1 18.8691 4.66438e-16 3.14484 -8.94964
63 1 20.4415 1.57242 4.71727 -8.94965
64 1 22.0139 3.1448 3.1448 -8.94952
65 1 1.57201 4.71694 4.71694 -8.94896
66 1 3.14468 3.14467 3.14467 -8.94911
67 1 4.71598 4.71593 4.71589 -8.94618
68 1 6.28968 3.14474 3.14475 -8.9498
69 1 7.8621 4.71643 4.71659 -8.94948
70 1 9.43453 3.14468 3.14471 -8.94966
71 1 11.0071 4.71634 4.71651 -8.94835
72 1 12.5794 3.1447 3.14473 -8.94947
73 1 14.1525 4.7159 4.71653 -8.94967
74 1 15.7243 3.14462 3.14471 -8.94956
75 1 17.2969 4.71703 4.71709 -8.94935
76 1 18.8691 3.14482 3.14482 -8.94961
77 1 20.4415 4.71721 4.71722 -8.94963
78 1 22.0139 6.28968 3.14482 -8.9497
79 1 1.57222 7.8621 4.71707 -8.94962
80 1 3.14466 6.28959 3.14456 -8.95008
81 1 4.71642 7.86194 4.71567 -8.95229
82 1 6.28897 6.28892 3.14326 -8.94991
83 1 7.85978 7.85926 4.71041 -8.95495
84 1 9.4345 6.28888 3.14376 -8.94856
85 1 11.0062 7.86027 4.71279 -8.95215
86 1 12.5794 6.28912 3.14407 -8.94981
87 1 14.158 7.8559 4.71051 -8.9378
88 1 15.7253 6.28855 3.14364 -8.94704
89 1 17.2978 7.86162 4.71671 -8.95028
90 1 18.8692 6.28959 3.14473 -8.94967
91 1 20.4416 7.86207 4.71719 -8.94976
92 1 -1.8254e-05 9.43452 3.1448 -8.94964
93 1 3.1446 9.43449 3.14452 -8.94929
94 1 6.28947 9.43496 3.1439 -8.95076
95 1 9.43396 9.43418 3.14299 -8.94907
96 1 12.5806 9.43351 3.13972 -8.95575
97 1 15.725 9.4343 3.14402 -8.94891
98 1 18.8692 9.43451 3.14474 -8.94954
99 1 22.0139 6.87006e-17 6.28969 -8.94964
100 1 1.57239 1.57239 7.8621 -8.94963
101 1 3.14481 6.20124e-16 6.28967 -8.94967
102 1 4.71713 1.57215 7.86206 -8.94977
103 1 6.28961 1.40219e-15 6.28959 -8.95007
104 1 7.8621 1.57172 7.86203 -8.95099
105 1 9.43457 -3.15769e-17 6.28958 -8.94984
106 1 11.007 1.57206 7.86205 -8.94991
107 1 12.5794 1.58032e-16 6.28963 -8.94992
108 1 14.1519 1.57225 7.86211 -8.94981
109 1 15.7242 4.7504e-16 6.28968 -8.94968
110 1 17.2967 1.57239 7.8621 -8.94959
111 1 18.8691 1.10717e-15 6.28968 -8.94963
112 1 20.4415 1.57242 7.86211 -8.94964
113 1 -2.12333e-05 3.14482 6.28968 -8.94966
114 1 1.57216 4.71704 7.86207 -8.94952
115 1 3.14464 3.14453 6.28956 -8.94984
116 1 4.71617 4.71526 7.86153 -8.95043
117 1 6.28922 3.14351 6.28913 -8.95066
118 1 7.86146 4.7116 7.86101 -8.95788
119 1 9.43476 3.14378 6.28919 -8.94947
120 1 11.0068 4.71516 7.86181 -8.95186
121 1 12.5795 3.14397 6.28948 -8.95088
122 1 14.1523 4.71593 7.8621 -8.95078
123 1 15.7243 3.1446 6.28964 -8.94978
124 1 17.2968 4.71703 7.86206 -8.94945
125 1 18.8691 3.14482 6.28968 -8.94964
126 1 20.4415 4.71721 7.8621 -8.94958
127 1 22.0135 6.28949 6.2895 -8.94992
128 1 1.57026 7.86141 7.86141 -8.95181
129 1 3.14207 6.28763 6.28762 -8.94658
130 1 4.70369 7.85234 7.85246 -8.93896
131 1 6.28227 6.28181 6.28169 -8.9309
132 1 7.82939 7.82819 7.82817 -8.8442
133 1 9.43522 6.28487 6.28663 -8.94717
134 1 11.0172 7.85197 7.84281 -8.89873
135 1 12.5823 6.28378 6.28643 -8.95079
136 1 14.1603 7.85465 7.85693 -8.93832
137 1 15.7259 6.28815 6.2886 -8.94755
138 1 17.2984 7.86131 7.86178 -8.95034
139 1 18.8693 6.2895 6.28957 -8.9497
140 1 20.4415 7.86197 7.86201 -8.95016
141 1 -0.000205649 9.4345 6.2895 -8.9496
142 1 3.14347 9.4346 6.28847 -8.94842
143 1 6.28754 9.43659 6.28428 -8.9618
144 1 9.42482 9.42234 6.28521 -8.92985
145 1 12.6061 9.41169 6.261 -8.89276
146 1 15.7294 9.43328 6.28779 -8.9546
147 1 18.8698 9.43443 6.2895 -8.95048
148 1 -3.53283e-06 1.77663e-15 9.43453 -8.94964
149 1 3.1448 2.62433e-16 9.43452 -8.94963
150 1 6.28959 -6.25399e-16 9.43455 -8.95009
151 1 9.43459 6.19611e-16 9.43454 -8.94958
152 1 12.5794 -8.33922e-16 9.43454 -8.9498
153 1 15.7243 -3.39709e-16 9.43452 -8.94967
154 1 18.8691 1.21961e-15 9.43453 -8.94964
155 1 22.0139 3.14481 9.43453 -8.94965
156 1 3.14462 3.14454 9.43451 -8.94954
177 1 4.71709 1.57214 11.007 -8.9496
184 1 4.716 4.71545 11.0072 -8.94819
3 1 3.14484 2.05957e-15 -8.34954e-07 -8.94965
11 1 15.7242 1.79968e-15 -7.42291e-07 -8.94964
41 1 18.8691 6.28968 -7.36708e-06 -8.94967
19 1 6.28968 3.14483 -9.63968e-06 -8.94962
25 1 15.7242 3.14483 -8.14456e-06 -8.94969
176 1 1.57239 1.57239 11.007 -8.94964
47 1 12.5795 9.43443 22.0133 -8.95092
178 1 7.86212 1.57186 11.007 -8.95033
179 1 11.007 1.57215 11.007 -8.94934
180 1 14.1519 1.5722 11.0069 -8.94969
343 1 18.8691 9.43452 18.8691 -8.94965
182 1 20.4415 1.57242 11.007 -8.94965
342 1 15.7244 9.43448 18.8694 -8.94939
46 1 9.4344 9.43444 22.0135 -8.94962
185 1 7.86149 4.7135 11.0078 -8.95287
186 1 11.0067 4.71656 11.0069 -8.94635
187 1 14.1526 4.71583 11.0065 -8.9487
341 1 12.5794 9.43445 18.8705 -8.95225
340 1 9.43435 9.43448 18.8693 -8.94879
190 1 1.57052 7.86142 11.007 -8.95043
191 1 4.70708 7.85682 11.0083 -8.95182
192 1 7.82608 7.84509 11.0335 -8.86795
193 1 11.0239 7.86726 11.019 -8.9094
194 1 14.1586 7.85766 11.0049 -8.94812
195 1 17.2984 7.86123 11.0067 -8.94926
196 1 20.4415 7.86193 11.0069 -8.94997
197 1 22.0139 3.89183e-16 12.5794 -8.94964
198 1 1.5724 1.5724 14.1518 -8.94964
199 1 3.1448 2.11731e-16 12.5794 -8.94961
200 1 4.71713 1.57213 14.1519 -8.94995
201 1 6.28962 7.82028e-16 12.5794 -8.95026
202 1 7.86216 1.57226 14.1519 -8.94964
203 1 9.43456 -1.98028e-16 12.5794 -8.94959
204 1 11.0069 1.57219 14.1519 -8.94972
205 1 12.5794 -7.47909e-16 12.5794 -8.95024
206 1 14.1519 1.57211 14.1519 -8.95018
207 1 15.7243 -2.39486e-16 12.5794 -8.94964
208 1 17.2967 1.5724 14.1518 -8.94963
209 1 18.8691 -3.47414e-16 12.5794 -8.94963
210 1 20.4415 1.57242 14.1518 -8.94964
211 1 22.0139 3.14481 12.5794 -8.94964
212 1 1.57214 4.71704 14.1519 -8.94965
213 1 3.14464 3.14456 12.5794 -8.94951
214 1 4.71581 4.71494 14.1533 -8.94812
215 1 6.28932 3.14321 12.5798 -8.95185
216 1 7.86266 4.71629 14.1523 -8.95024
217 1 9.43473 3.14433 12.5796 -8.94878
218 1 11.0064 4.7158 14.1526 -8.94934
219 1 12.5795 3.14338 12.5794 -8.95255
220 1 14.1529 4.71446 14.1529 -8.95153
221 1 15.7244 3.14456 12.5793 -8.94954
222 1 17.2968 4.71705 14.1518 -8.94989
223 1 18.8691 3.14481 12.5794 -8.94963
224 1 20.4415 4.71722 14.1518 -8.94961
225 1 -0.000278632 6.28951 12.5794 -8.94966
226 1 1.57098 7.86151 14.1525 -8.95059
227 1 3.14299 6.28832 12.5801 -8.94926
228 1 4.70905 7.85398 14.1604 -8.93135
229 1 6.28316 6.27871 12.5862 -8.94609
230 1 7.86298 7.8582 14.1587 -8.95043
231 1 9.43537 6.28947 12.5787 -8.9534
232 1 11.0036 7.85694 14.1588 -8.94017
233 1 12.582 6.27834 12.5821 -8.96362
234 1 14.1676 7.84575 14.1679 -8.90861
235 1 15.7256 6.28821 12.5793 -8.94949
236 1 17.2994 7.86095 14.1529 -8.95157
237 1 18.8693 6.28948 12.5794 -8.94949
238 1 20.4416 7.86197 14.1519 -8.95027
239 1 22.0131 9.43438 12.5796 -8.95081
240 1 3.13842 9.43297 12.5814 -8.95443
241 1 6.25658 9.40013 12.6165 -8.83181
242 1 9.43545 9.42898 12.5768 -8.62787
243 1 12.6367 9.36854 12.6449 -8.71646
244 1 15.7352 9.43133 12.5827 -8.95853
245 1 18.8705 9.43433 12.5796 -8.95175
246 1 -2.16926e-06 7.37663e-16 15.7242 -8.94964
247 1 1.57239 1.57238 17.2967 -8.94956
248 1 3.1448 -9.03802e-16 15.7243 -8.94966
249 1 4.71727 1.5724 17.2967 -8.94969
250 1 6.28969 2.46845e-16 15.7242 -8.94964
251 1 7.86209 1.57238 17.2967 -8.94959
252 1 9.43452 2.42264e-16 15.7243 -8.94968
253 1 11.007 1.57238 17.2967 -8.9496
254 1 12.5794 1.46153e-15 15.7243 -8.94963
255 1 14.1518 1.57239 17.2967 -8.94963
256 1 15.7243 1.08491e-15 15.7243 -8.94975
257 1 17.2967 1.57237 17.2967 -8.9496
258 1 18.8691 1.45027e-15 15.7242 -8.94964
259 1 20.4415 1.57242 17.2966 -8.94966
260 1 -3.01402e-05 3.14482 15.7242 -8.94966
261 1 1.57222 4.71707 17.2968 -8.94904
262 1 3.1446 3.14449 15.7245 -8.94926
263 1 4.71714 4.71707 17.2969 -8.94976
264 1 6.28973 3.14467 15.7243 -8.9498
265 1 7.86204 4.71701 17.2969 -8.94918
266 1 9.43449 3.14445 15.7245 -8.94943
267 1 11.007 4.71699 17.2969 -8.94929
268 1 12.5793 3.14455 15.7244 -8.94953
269 1 14.1518 4.71705 17.2968 -8.94989
270 1 15.7245 3.14436 15.7245 -8.94971
271 1 17.297 4.71687 17.297 -8.94831
272 1 18.8691 3.14482 15.7242 -8.94973
273 1 20.4415 4.71721 17.2967 -8.94958
274 1 22.0137 6.28954 15.7244 -8.94975
275 1 1.57231 7.86208 17.2968 -8.94965
276 1 3.14334 6.28824 15.7257 -8.94611
277 1 4.71681 7.8617 17.298 -8.95103
278 1 6.28925 6.28868 15.7258 -8.95023
279 1 7.86234 7.86169 17.298 -8.95102
280 1 9.43426 6.28807 15.7259 -8.94478
281 1 11.0062 7.86154 17.2981 -8.95031
282 1 12.5792 6.28829 15.7257 -8.94944
283 1 14.1528 7.86103 17.2993 -8.95181
284 1 15.7272 6.28672 15.7271 -8.94162
285 1 17.2969 7.86205 17.2969 -8.94971
286 1 18.8695 6.28942 15.7245 -8.94976
287 1 20.4415 7.8621 17.2967 -8.94958
288 1 -0.000150874 9.4345 15.7244 -8.94948
289 1 3.144 9.43432 15.7252 -8.94859
290 1 6.28898 9.43423 15.7296 -8.95985
291 1 9.43374 9.43577 15.7234 -8.95036
292 1 12.5813 9.43242 15.7354 -8.96354
293 1 15.7259 9.43424 15.726 -8.94829
294 1 18.8694 9.43449 15.7245 -8.94941
295 1 22.0139 -1.67918e-16 18.8691 -8.94962
296 1 1.57242 1.57242 20.4415 -8.94963
297 1 3.14484 -6.58414e-16 18.8691 -8.94965
298 1 4.71726 1.57242 20.4415 -8.94964
299 1 6.28968 8.90569e-17 18.8691 -8.94962
300 1 7.86211 1.57242 20.4415 -8.94964
301 1 9.43453 -1.04213e-15 18.8691 -8.94964
302 1 11.007 1.57242 20.4415 -8.94964
303 1 12.5794 8.40769e-16 18.8691 -8.94963
304 1 14.1518 1.57242 20.4415 -8.94963
305 1 15.7242 1.43162e-15 18.8691 -8.94964
306 1 17.2966 1.57242 20.4415 -8.94966
307 1 18.8691 1.54462e-15 18.8691 -8.94962
308 1 20.4415 1.57242 20.4415 -8.9496
309 1 22.0139 3.14482 18.8691 -8.94955
310 1 1.5724 4.71725 20.4415 -8.94964
311 1 3.14482 3.14482 18.8691 -8.94965
312 1 4.71724 4.71723 20.4415 -8.94966
313 1 6.28968 3.14482 18.8691 -8.94959
314 1 7.86209 4.71722 20.4415 -8.94957
315 1 9.43453 3.1448 18.8691 -8.94968
316 1 11.007 4.71722 20.4415 -8.9496
317 1 12.5794 3.14481 18.8691 -8.94961
318 1 14.1518 4.71724 20.4415 -8.94964
319 1 15.7242 3.14482 18.8691 -8.94973
320 1 17.2967 4.71721 20.4415 -8.94958
321 1 18.8691 3.1448 18.8691 -8.94945
322 1 20.4415 4.71727 20.4415 -8.94967
323 1 -6.6548e-06 6.28969 18.8691 -8.94968
324 1 1.57241 7.8621 20.4415 -8.94961
325 1 3.14473 6.28958 18.8693 -8.94975
326 1 4.71723 7.86209 20.4416 -8.94991
327 1 6.28964 6.28956 18.8693 -8.94977
328 1 7.86208 7.86202 20.4416 -8.94999
329 1 9.43448 6.28941 18.8694 -8.9494
330 1 11.0069 7.86201 20.4416 -8.94988
331 1 12.5793 6.28954 18.8693 -8.94961
332 1 14.1519 7.86198 20.4417 -8.95027
333 1 15.7245 6.28943 18.8695 -8.94978
334 1 17.2967 7.8621 20.4415 -8.94959
335 1 18.8691 6.28968 18.8691 -8.94972
336 1 20.4415 7.86211 20.4415 -8.94964
337 1 22.0139 9.43453 18.8691 -8.94966
338 1 3.14472 9.4345 18.8693 -8.94946
339 1 6.28969 9.43459 18.8697 -8.951
45 1 6.28964 9.43456 22.0138 -8.94986
5 1 6.28968 1.46087e-15 22.0139 -8.94963
9 1 12.5794 -1.11895e-16 22.0139 -8.94964
39 1 15.7243 6.28955 22.0137 -8.94972
15 1 22.0139 3.14484 22.0139 -8.94963
17 1 3.14482 3.14482 22.0139 -8.9496
33 1 6.28961 6.2896 22.0137 -8.94986
23 1 12.5794 3.14482 22.0139 -8.94962
31 1 3.14482 6.28968 22.0139 -8.94972
27 1 18.8691 3.14482 22.0139 -8.94956
29 1 22.0139 6.28969 22.0139 -8.94963
1 1 22.0139 1.42407e-15 22.0139 -8.94962
13 1 18.8691 1.87666e-15 22.0139 -8.94962
21 1 9.43453 3.14482 22.0139 -8.94964
43 1 22.0139 9.43453 22.0139 -8.94964
49 1 18.8691 9.43453 22.0139 -8.94965
344 1 1.57239 11.007 1.57238 -8.94965
345 1 4.71707 11.007 1.5721 -8.94972
346 1 7.86199 11.007 1.57218 -8.9485
347 1 11.0067 11.007 1.57067 -8.95019
348 1 14.1524 11.007 1.57131 -8.94932
349 1 17.2968 11.007 1.57231 -8.94967
350 1 20.4415 11.007 1.57241 -8.94964
538 1 17.2967 20.4415 11.007 -8.94962
352 1 1.57239 14.1518 1.57239 -8.94959
353 1 3.1448 12.5794 -2.17885e-05 -8.94963
354 1 4.71718 14.1518 1.57222 -8.94993
688 3 10.2382 11.007 9.5204 2.27672
356 1 7.8619 14.152 1.57142 -8.95106
511 1 18.8691 18.8691 9.43452 -8.94966
358 1 11.0067 14.1521 1.57156 -8.94987
510 1 15.7244 18.8694 9.43448 -8.94945
360 1 14.1523 14.1523 1.57126 -8.9505
361 1 15.7243 12.5794 -0.000119626 -8.94953
362 1 17.2967 14.1518 1.57232 -8.94966
532 1 20.4415 17.2967 11.007 -8.94961
364 1 20.4415 14.1518 1.57241 -8.94963
509 1 12.5795 18.8697 9.4346 -8.95008
366 1 1.5724 17.2967 1.57239 -8.9497
508 1 9.43472 18.8699 9.43464 -8.94771
368 1 4.71712 17.2968 1.57217 -8.94955
507 1 6.28921 18.8707 9.43464 -8.95054
370 1 7.86209 17.2968 1.57226 -8.94946
371 1 9.4345 15.7243 -0.000137291 -8.94964
372 1 11.007 17.2968 1.57225 -8.94954
373 1 12.5794 15.7243 -9.9888e-05 -8.94962
374 1 14.1518 17.2967 1.57232 -8.9498
506 1 3.14462 18.8694 9.43451 -8.94954
376 1 17.2968 17.2968 1.57226 -8.94917
505 1 22.0139 18.8691 9.43453 -8.94965
378 1 20.4415 17.2966 1.57241 -8.94964
504 1 18.8693 15.7245 9.43449 -8.94942
380 1 1.5724 20.4415 1.5724 -8.94956
503 1 15.7255 15.7257 9.43423 -8.94687
382 1 4.71726 20.4415 1.57241 -8.94969
502 1 12.5787 15.7277 9.43418 -8.95692
384 1 7.8621 20.4415 1.5724 -8.94964
531 1 17.2969 17.2969 11.0069 -8.94944
386 1 11.007 20.4415 1.5724 -8.94965
501 1 9.43153 15.722 9.43557 -9.00314
388 1 14.1518 20.4415 1.57241 -8.94963
500 1 6.28507 15.7334 9.43433 -8.95574
390 1 17.2967 20.4415 1.5724 -8.94961
499 1 3.14301 15.7257 9.43438 -8.94809
392 1 20.4415 20.4415 1.57242 -8.94962
393 1 1.57212 11.007 4.71699 -8.94958
394 1 4.71597 11.007 4.71534 -8.94703
395 1 7.86327 11.007 4.71842 -8.942
396 1 11.0089 11.007 4.71104 -8.9876
397 1 14.1562 11.007 4.71236 -8.94451
398 1 17.2977 11.007 4.71668 -8.94927
399 1 20.4416 11.007 4.71718 -8.9497
400 1 -1.8254e-05 12.5794 3.1448 -8.94964
401 1 1.57222 14.1518 4.71707 -8.94962
402 1 3.1446 12.5794 3.14452 -8.94929
403 1 4.71642 14.152 4.71567 -8.95229
404 1 6.28947 12.5789 3.1439 -8.95076
405 1 7.85978 14.1546 4.71041 -8.95495
406 1 9.43396 12.5797 3.14299 -8.94907
407 1 11.0062 14.1536 4.71279 -8.95215
408 1 12.5806 12.5804 3.13972 -8.95575
409 1 14.158 14.158 4.71051 -8.9378
410 1 15.725 12.5796 3.14402 -8.94891
411 1 17.2978 14.1523 4.71671 -8.95028
412 1 18.8692 12.5794 3.14474 -8.94954
413 1 20.4416 14.1518 4.71719 -8.94976
414 1 22.0139 15.7242 3.14482 -8.9497
415 1 1.57201 17.297 4.71694 -8.94896
416 1 3.14466 15.7243 3.14456 -8.95008
417 1 4.71598 17.298 4.71589 -8.94618
418 1 6.28897 15.725 3.14326 -8.94991
419 1 7.8621 17.2975 4.71659 -8.94948
420 1 9.4345 15.725 3.14376 -8.94856
421 1 11.0071 17.2976 4.71651 -8.94835
422 1 12.5794 15.7248 3.14407 -8.94981
423 1 14.1525 17.298 4.71653 -8.94967
424 1 15.7253 15.7254 3.14364 -8.94704
425 1 17.2969 17.2969 4.71709 -8.94935
426 1 18.8692 15.7243 3.14473 -8.94967
427 1 20.4415 17.2967 4.71722 -8.94963
428 1 22.0139 18.8691 3.1448 -8.94952
429 1 1.5724 20.4415 4.71725 -8.94968
430 1 3.14468 18.8692 3.14467 -8.94911
431 1 4.71714 20.4417 4.71713 -8.94969
432 1 6.28968 18.8692 3.14475 -8.9498
433 1 7.86211 20.4416 4.71717 -8.94953
434 1 9.43453 18.8692 3.14471 -8.94966
435 1 11.007 20.4416 4.71714 -8.94953
436 1 12.5794 18.8692 3.14473 -8.94947
437 1 14.1519 20.4416 4.71719 -8.94985
438 1 15.7243 18.8693 3.14471 -8.94956
439 1 17.2967 20.4415 4.71726 -8.94965
440 1 18.8691 18.8691 3.14482 -8.94961
441 1 20.4415 20.4415 4.71727 -8.94965
442 1 1.57092 11.007 7.86131 -8.94856
443 1 4.71254 11.007 7.85776 -8.9386
444 1 7.87097 11.007 7.88103 -8.9169
445 1 11.0747 11.007 7.68943 -8.20927
446 1 14.1635 11.007 7.85638 -8.9636
447 1 17.2992 11.007 7.8619 -8.95094
448 1 20.4416 11.007 7.862 -8.95004
449 1 -0.000205649 12.5794 6.2895 -8.9496
450 1 1.57026 14.1525 7.86141 -8.95181
451 1 3.14347 12.5793 6.28847 -8.94842
452 1 4.70369 14.1616 7.85246 -8.93896
453 1 6.28754 12.5773 6.28428 -8.9618
454 1 7.82939 14.1857 7.82817 -8.8442
455 1 9.42482 12.5916 6.28521 -8.92985
456 1 11.0172 14.1619 7.84281 -8.89873
457 1 12.6061 12.6022 6.261 -8.89276
458 1 14.1603 14.1593 7.85693 -8.93832
459 1 15.7294 12.5806 6.28779 -8.9546
460 1 17.2984 14.1526 7.86178 -8.95034
461 1 18.8698 12.5795 6.2895 -8.95048
462 1 20.4415 14.1519 7.86201 -8.95016
463 1 22.0135 15.7244 6.2895 -8.94992
464 1 1.57216 17.2969 7.86207 -8.94952
465 1 3.14207 15.7263 6.28762 -8.94658
466 1 4.71617 17.2986 7.86153 -8.95043
467 1 6.28227 15.7321 6.28169 -8.9309
468 1 7.86146 17.3023 7.86101 -8.95788
469 1 9.43522 15.729 6.28663 -8.94717
470 1 11.0068 17.2987 7.86181 -8.95186
471 1 12.5823 15.7301 6.28643 -8.95079
472 1 14.1523 17.298 7.8621 -8.95078
473 1 15.7259 15.7258 6.2886 -8.94755
474 1 17.2968 17.2969 7.86206 -8.94945
475 1 18.8693 15.7244 6.28957 -8.9497
476 1 20.4415 17.2967 7.8621 -8.94958
477 1 -2.12333e-05 18.8691 6.28968 -8.94966
478 1 1.57239 20.4415 7.8621 -8.94963
479 1 3.14464 18.8694 6.28956 -8.94984
480 1 4.71713 20.4417 7.86206 -8.94977
481 1 6.28922 18.8704 6.28913 -8.95066
482 1 7.8621 20.4422 7.86203 -8.95099
483 1 9.43476 18.8701 6.28919 -8.94947
484 1 11.007 20.4418 7.86205 -8.94991
485 1 12.5795 18.8699 6.28948 -8.95088
486 1 14.1519 20.4417 7.86211 -8.94981
487 1 15.7243 18.8693 6.28964 -8.94978
488 1 17.2967 20.4415 7.8621 -8.94959
489 1 18.8691 18.8691 6.28968 -8.94964
490 1 20.4415 20.4415 7.86211 -8.94964
491 1 22.0129 12.5795 9.43439 -8.95094
492 1 3.13722 12.5808 9.43279 -8.95579
493 1 6.25145 12.6189 9.39937 -8.86625
494 1 9.35767 12.8032 9.41293 -7.8067
495 1 12.5951 12.6041 9.40218 -8.8241
496 1 15.7293 12.5815 9.43297 -8.94811
497 1 18.87 12.5797 9.43438 -8.94987
498 1 -0.000293092 15.7244 9.4345 -8.94956
526 1 1.57214 17.2969 11.007 -8.94954
527 1 4.716 17.2984 11.0072 -8.94819
534 1 4.71709 20.4418 11.007 -8.9496
389 1 15.7242 18.8691 -8.14456e-06 -8.94969
377 1 18.8691 15.7242 -7.36708e-06 -8.94967
383 1 6.28968 18.8691 -9.63968e-06 -8.94962
512 1 1.56906 11.007 11.0072 -8.95176
513 1 4.70012 11.007 11.0075 -9.01691
514 1 7.51269 11.007 11.0112 -7.86637
515 1 11.4215 11.007 11.1607 -7.09549
516 1 14.177 11.007 11.0123 -9.01833
517 1 17.3012 11.007 11.0066 -8.95416
518 1 20.4416 11.007 11.0069 -8.95073
519 1 1.57052 14.1525 11.007 -8.95043
520 1 4.70708 14.1571 11.0083 -8.95182
521 1 7.82608 14.1688 11.0335 -8.86795
522 1 11.0239 14.1466 11.019 -8.9094
523 1 14.1586 14.1562 11.0049 -8.94812
524 1 17.2984 14.1527 11.0067 -8.94926
525 1 20.4415 14.152 11.0069 -8.94997
687 3 9.4639 11.007 10.9783 2.32122
391 1 18.8691 18.8691 22.0139 -8.94956
528 1 7.86149 17.3004 11.0078 -8.95287
529 1 11.0067 17.2973 11.0069 -8.94635
530 1 14.1526 17.2981 11.0065 -8.9487
686 1 20.4415 20.4415 20.4415 -8.9496
685 1 18.8691 18.8691 18.8691 -8.94945
533 1 1.57239 20.4415 11.007 -8.94964
387 1 12.5794 18.8691 22.0139 -8.94962
535 1 7.86212 20.442 11.007 -8.95033
536 1 11.007 20.4417 11.007 -8.94934
537 1 14.1519 20.4417 11.0069 -8.94969
684 1 17.2966 20.4415 20.4415 -8.94966
539 1 20.4415 20.4415 11.007 -8.94965
540 1 1.57109 11.007 14.1525 -8.94931
541 1 4.7116 11.007 14.1565 -8.94415
542 1 7.85588 11.007 14.1429 -8.95085
543 1 11.0167 11.007 14.1556 -8.98318
544 1 14.16 11.007 14.1593 -8.94106
545 1 17.2988 11.007 14.1529 -8.94854
546 1 20.4416 11.007 14.152 -8.94988
547 1 22.0131 12.5795 12.5796 -8.95081
548 1 1.57098 14.1524 14.1525 -8.95059
549 1 3.13842 12.5809 12.5814 -8.95443
550 1 4.70905 14.1599 14.1604 -8.93135
551 1 6.25658 12.6138 12.6165 -8.83181
552 1 7.86298 14.1557 14.1587 -8.95043
553 1 9.43545 12.5849 12.5768 -8.62787
554 1 11.0036 14.157 14.1588 -8.94017
555 1 12.6367 12.6454 12.6449 -8.71646
556 1 14.1676 14.1681 14.1679 -8.90861
557 1 15.7352 12.5826 12.5827 -8.95853
558 1 17.2994 14.153 14.1529 -8.95157
559 1 18.8705 12.5796 12.5796 -8.95175
560 1 20.4416 14.1519 14.1519 -8.95027
561 1 -0.000278632 15.7244 12.5794 -8.94966
562 1 1.57214 17.2969 14.1519 -8.94965
563 1 3.14299 15.7256 12.5801 -8.94926
564 1 4.71581 17.299 14.1533 -8.94812
565 1 6.28316 15.7352 12.5862 -8.94609
566 1 7.86266 17.2976 14.1523 -8.95024
567 1 9.43537 15.7244 12.5787 -8.9534
568 1 11.0064 17.2981 14.1526 -8.94934
569 1 12.582 15.7356 12.5821 -8.96362
570 1 14.1529 17.2994 14.1529 -8.95153
571 1 15.7256 15.7257 12.5793 -8.94949
572 1 17.2968 17.2968 14.1518 -8.94989
573 1 18.8693 15.7244 12.5794 -8.94949
574 1 20.4415 17.2967 14.1518 -8.94961
575 1 22.0139 18.8691 12.5794 -8.94964
576 1 1.5724 20.4415 14.1518 -8.94964
577 1 3.14464 18.8693 12.5794 -8.94951
578 1 4.71713 20.4418 14.1519 -8.94995
579 1 6.28932 18.8707 12.5798 -8.95185
580 1 7.86216 20.4416 14.1519 -8.94964
581 1 9.43473 18.8696 12.5796 -8.94878
582 1 11.0069 20.4417 14.1519 -8.94972
583 1 12.5795 18.8705 12.5794 -8.95255
584 1 14.1519 20.4418 14.1519 -8.95018
585 1 15.7244 18.8693 12.5793 -8.94954
586 1 17.2967 20.4415 14.1518 -8.94963
587 1 18.8691 18.8691 12.5794 -8.94963
588 1 20.4415 20.4415 14.1518 -8.94964
589 1 1.57228 11.007 17.2968 -8.9497
590 1 4.71656 11.007 17.2979 -8.94891
591 1 7.8623 11.007 17.2965 -8.94539
592 1 11.0063 11.007 17.2987 -8.94827
593 1 14.153 11.007 17.2989 -8.94798
594 1 17.297 11.007 17.2969 -8.94952
595 1 20.4415 11.007 17.2967 -8.94963
596 1 -0.000150874 12.5794 15.7244 -8.94948
597 1 1.57231 14.1518 17.2968 -8.94965
598 1 3.144 12.5796 15.7252 -8.94859
599 1 4.71681 14.1522 17.298 -8.95103
600 1 6.28898 12.5797 15.7296 -8.95985
601 1 7.86234 14.1522 17.298 -8.95102
602 1 9.43374 12.5781 15.7234 -8.95036
603 1 11.0062 14.1524 17.2981 -8.95031
604 1 12.5813 12.5815 15.7354 -8.96354
605 1 14.1528 14.1529 17.2993 -8.95181
606 1 15.7259 12.5797 15.726 -8.94829
607 1 17.2969 14.1519 17.2969 -8.94971
608 1 18.8694 12.5794 15.7245 -8.94941
609 1 20.4415 14.1518 17.2967 -8.94958
610 1 22.0137 15.7244 15.7244 -8.94975
611 1 1.57222 17.2968 17.2968 -8.94904
612 1 3.14334 15.7257 15.7257 -8.94611
613 1 4.71714 17.2968 17.2969 -8.94976
614 1 6.28925 15.7252 15.7258 -8.95023
615 1 7.86204 17.2969 17.2969 -8.94918
616 1 9.43426 15.7258 15.7259 -8.94478
617 1 11.007 17.2969 17.2969 -8.94929
618 1 12.5792 15.7256 15.7257 -8.94944
619 1 14.1518 17.2969 17.2968 -8.94989
620 1 15.7272 15.7272 15.7271 -8.94162
621 1 17.297 17.297 17.297 -8.94831
622 1 18.8695 15.7245 15.7245 -8.94976
623 1 20.4415 17.2967 17.2967 -8.94958
624 1 -3.01402e-05 18.8691 15.7242 -8.94966
625 1 1.57239 20.4415 17.2967 -8.94956
626 1 3.1446 18.8694 15.7245 -8.94926
627 1 4.71727 20.4415 17.2967 -8.94969
628 1 6.28973 18.8692 15.7243 -8.9498
629 1 7.86209 20.4415 17.2967 -8.94959
630 1 9.43449 18.8695 15.7245 -8.94943
631 1 11.007 20.4415 17.2967 -8.9496
632 1 12.5793 18.8693 15.7244 -8.94953
633 1 14.1518 20.4415 17.2967 -8.94963
634 1 15.7245 18.8695 15.7245 -8.94971
635 1 17.2967 20.4415 17.2967 -8.9496
636 1 18.8691 18.8691 15.7242 -8.94973
637 1 20.4415 20.4415 17.2966 -8.94966
638 1 1.5724 11.007 20.4415 -8.94963
639 1 4.71718 11.007 20.4416 -8.94977
640 1 7.86211 11.007 20.4415 -8.94925
641 1 11.0068 11.007 20.4416 -8.95
642 1 14.152 11.007 20.4417 -8.94984
643 1 17.2967 11.007 20.4415 -8.94963
644 1 20.4415 11.007 20.4415 -8.94965
645 1 22.0139 12.5794 18.8691 -8.94966
646 1 1.57241 14.1518 20.4415 -8.94961
647 1 3.14472 12.5794 18.8693 -8.94946
648 1 4.71723 14.1518 20.4416 -8.94991
649 1 6.28969 12.5793 18.8697 -8.951
650 1 7.86208 14.1519 20.4416 -8.94999
651 1 9.43435 12.5794 18.8693 -8.94879
652 1 11.0069 14.1519 20.4416 -8.94988
653 1 12.5794 12.5794 18.8705 -8.95225
654 1 14.1519 14.1519 20.4417 -8.95027
655 1 15.7244 12.5794 18.8694 -8.94939
656 1 17.2967 14.1518 20.4415 -8.94959
657 1 18.8691 12.5794 18.8691 -8.94965
658 1 20.4415 14.1518 20.4415 -8.94964
659 1 -6.6548e-06 15.7242 18.8691 -8.94968
660 1 1.5724 17.2967 20.4415 -8.94964
661 1 3.14473 15.7243 18.8693 -8.94975
662 1 4.71724 17.2967 20.4415 -8.94966
663 1 6.28964 15.7243 18.8693 -8.94977
664 1 7.86209 17.2967 20.4415 -8.94957
665 1 9.43448 15.7245 18.8694 -8.9494
666 1 11.007 17.2967 20.4415 -8.9496
667 1 12.5793 15.7244 18.8693 -8.94961
668 1 14.1518 17.2967 20.4415 -8.94964
669 1 15.7245 15.7245 18.8695 -8.94978
670 1 17.2967 17.2967 20.4415 -8.94958
671 1 18.8691 15.7242 18.8691 -8.94972
672 1 20.4415 17.2966 20.4415 -8.94967
673 1 22.0139 18.8691 18.8691 -8.94955
674 1 1.57242 20.4415 20.4415 -8.94963
675 1 3.14482 18.8691 18.8691 -8.94965
676 1 4.71726 20.4415 20.4415 -8.94964
677 1 6.28968 18.8691 18.8691 -8.94959
678 1 7.86211 20.4415 20.4415 -8.94964
679 1 9.43453 18.8691 18.8691 -8.94968
680 1 11.007 20.4415 20.4415 -8.94964
681 1 12.5794 18.8691 18.8691 -8.94961
682 1 14.1518 20.4415 20.4415 -8.94963
683 1 15.7242 18.8691 18.8691 -8.94973
355 1 6.28964 12.5793 22.0138 -8.94986
357 1 9.4344 12.5795 22.0135 -8.94962
359 1 12.5795 12.5795 22.0133 -8.95092
365 1 22.0139 15.7242 22.0139 -8.94963
367 1 3.14482 15.7242 22.0139 -8.94972
369 1 6.28961 15.7243 22.0137 -8.94986
375 1 15.7243 15.7243 22.0137 -8.94972
381 1 3.14482 18.8691 22.0139 -8.9496
379 1 22.0139 18.8691 22.0139 -8.94963
351 1 22.0139 12.5794 22.0139 -8.94964
363 1 18.8691 12.5794 22.0139 -8.94965
385 1 9.43453 18.8691 22.0139 -8.94964
