ITEM: TIMESTEP
52
ITEM: NUMBER OF ATOMS
688
ITEM: BOX BOUNDS pp pp pp
0.0000000000000000e+00 2.2013900999999997e+01
0.0000000000000000e+00 2.2013900999999997e+01
0.0000000000000000e+00 2.2013900999999997e+01
ITEM: ATOMS id type x y z c_pot
189 1 20.4415 4.71726 11.007 -8.94964
2 1 1.57242 1.57242 1.57242 -8.94962
175 1 18.8694 9.43442 9.43449 -8.94994
4 1 4.71727 1.57242 1.57242 -8.94966
174 1 15.7273 9.43325 9.43385 -8.9488
6 1 7.86211 1.57242 1.57242 -8.94964
7 1 9.43453 -8.61498e-16 5.4685e-08 -8.94963
8 1 11.007 1.57242 1.57242 -8.94964
173 1 12.5933 9.41242 9.40962 -8.82479
10 1 14.1518 1.57242 1.57242 -8.94964
172 1 9.35447 9.22957 9.41509 -7.80138
12 1 17.2966 1.57242 1.57242 -8.94963
188 1 17.2967 4.71723 11.0069 -8.94966
14 1 20.4415 1.57242 1.57242 -8.94963
171 1 6.25786 9.40365 9.4061 -8.8686
16 1 1.57242 4.71726 1.57242 -8.94965
170 1 3.14061 9.4338 9.43369 -8.95525
18 1 4.71723 4.71723 1.57237 -8.9496
169 1 22.0135 9.43448 9.43448 -8.95048
20 1 7.86211 4.71725 1.5724 -8.9496
183 1 1.57238 4.71723 11.007 -8.94967
22 1 11.007 4.71724 1.5724 -8.94963
168 1 18.8691 6.28964 9.43452 -8.94955
24 1 14.1518 4.71726 1.57242 -8.94976
167 1 15.7246 6.28917 9.43443 -8.94817
26 1 17.2967 4.71723 1.57239 -8.94947
166 1 12.579 6.2874 9.43441 -8.95643
28 1 20.4415 4.71726 1.57242 -8.94963
165 1 9.43296 6.28646 9.43494 -8.99504
30 1 1.57242 7.86211 1.57242 -8.94963
164 1 6.28754 6.28477 9.43448 -8.95544
32 1 4.71725 7.86211 1.57238 -8.94975
163 1 3.14433 6.28928 9.4345 -8.94905
34 1 7.862 7.86199 1.57205 -8.95028
35 1 9.43453 6.28966 -2.37681e-05 -8.94963
36 1 11.0069 7.86199 1.57215 -8.94968
37 1 12.5794 6.28967 -1.02651e-05 -8.94963
38 1 14.152 7.8619 1.57199 -8.94997
162 1 -5.13545e-05 6.28965 9.43453 -8.9496
40 1 17.2966 7.86211 1.57241 -8.94971
161 1 18.8691 3.14484 9.43453 -8.94965
42 1 20.4415 7.86211 1.57242 -8.94963
181 1 17.2966 1.57242 11.007 -8.94963
44 1 3.14484 9.43453 -1.91181e-06 -8.94963
160 1 15.7243 3.14477 9.43452 -8.94954
159 1 12.5794 3.14458 9.43455 -8.94996
158 1 9.43462 3.14391 9.43456 -8.94998
48 1 15.7242 9.43453 -1.66944e-05 -8.9496
157 1 6.28951 3.14428 9.43456 -8.95008
50 1 22.0139 4.28851e-16 3.14484 -8.94964
51 1 1.57242 1.57242 4.71726 -8.94965
52 1 3.14484 1.90531e-15 3.14484 -8.94962
53 1 4.71724 1.57238 4.71723 -8.94962
54 1 6.28969 1.41319e-15 3.14484 -8.94964
55 1 7.86211 1.57241 4.71725 -8.9496
56 1 9.43453 -4.87539e-16 3.14484 -8.94964
57 1 11.007 1.57239 4.71724 -8.9496
58 1 12.5794 4.66963e-16 3.14484 -8.94963
59 1 14.1518 1.57238 4.71725 -8.94968
60 1 15.7242 5.81194e-16 3.14484 -8.94963
61 1 17.2966 1.57242 4.71726 -8.94964
62 1 18.8691 1.32795e-16 3.14484 -8.94963
63 1 20.4415 1.57242 4.71726 -8.94964
64 1 22.0139 3.14484 3.14484 -8.94961
65 1 1.57233 4.7172 4.7172 -8.9494
66 1 3.14481 3.14481 3.14481 -8.94946
67 1 4.71685 4.71684 4.71684 -8.94787
68 1 6.28969 3.14484 3.14484 -8.94978
69 1 7.86214 4.71711 4.71714 -8.94999
70 1 9.43452 3.14482 3.14483 -8.94968
71 1 11.007 4.717 4.71702 -8.94911
72 1 12.5794 3.14483 3.14483 -8.94961
73 1 14.152 4.7168 4.71703 -8.9497
74 1 15.7242 3.1448 3.14482 -8.9496
75 1 17.2967 4.71722 4.71723 -8.94956
76 1 18.8691 3.14484 3.14484 -8.94963
77 1 20.4415 4.71726 4.71726 -8.94963
78 1 22.0139 6.28969 3.14484 -8.94966
79 1 1.5724 7.86211 4.71724 -8.9497
80 1 3.14481 6.28967 3.14479 -8.94981
81 1 4.717 7.86202 4.71674 -8.95107
82 1 6.28944 6.28944 3.14432 -8.94976
83 1 7.86092 7.86072 4.7136 -8.95351
84 1 9.43453 6.28942 3.14453 -8.94913
85 1 11.0064 7.86122 4.71512 -8.95149
86 1 12.5793 6.28956 3.14468 -8.94998
87 1 14.1551 7.85873 4.71373 -8.93973
88 1 15.7246 6.28931 3.14445 -8.94817
89 1 17.297 7.86194 4.71709 -8.95001
90 1 18.8691 6.28966 3.14482 -8.94964
91 1 20.4415 7.8621 4.71725 -8.94969
92 1 -6.18991e-07 9.43453 3.14484 -8.94964
93 1 3.1448 9.43452 3.14479 -8.94954
94 1 6.28957 9.43467 3.14448 -8.95041
95 1 9.43399 9.43407 3.14359 -8.94898
96 1 12.5802 9.43379 3.14195 -8.95378
97 1 15.7244 9.43448 3.14466 -8.94954
98 1 18.8691 9.43453 3.14483 -8.94961
99 1 22.0139 3.03132e-17 6.28969 -8.94963
100 1 1.57242 1.57242 7.86211 -8.94964
101 1 3.14484 3.34413e-16 6.28969 -8.94965
102 1 4.71724 1.57237 7.8621 -8.94968
103 1 6.28966 1.4292e-15 6.28966 -8.94978
104 1 7.86207 1.57215 7.86206 -8.95037
105 1 9.43454 3.83749e-16 6.28967 -8.94969
106 1 11.007 1.57226 7.86206 -8.94981
107 1 12.5794 2.18477e-17 6.28967 -8.94974
108 1 14.1518 1.57239 7.86211 -8.94971
109 1 15.7242 6.76732e-16 6.28969 -8.94965
110 1 17.2966 1.57242 7.86211 -8.94962
111 1 18.8691 1.07483e-15 6.28969 -8.94963
112 1 20.4415 1.57242 7.86211 -8.94963
113 1 1.10606e-06 3.14484 6.28969 -8.94965
114 1 1.5724 4.71724 7.86211 -8.94968
115 1 3.14481 3.14479 6.28967 -8.94977
116 1 4.71696 4.71667 7.86194 -8.95038
117 1 6.28949 3.14437 6.28947 -8.95005
118 1 7.86155 4.71404 7.86134 -8.95519
119 1 9.43461 3.14451 6.28952 -8.94947
120 1 11.0072 4.71591 7.86166 -8.95025
121 1 12.5795 3.14451 6.28958 -8.95018
122 1 14.152 4.71678 7.86211 -8.95037
123 1 15.7242 3.14479 6.28968 -8.94969
124 1 17.2967 4.71723 7.8621 -8.94965
125 1 18.8691 3.14484 6.28969 -8.94965
126 1 20.4415 4.71726 7.86211 -8.94962
127 1 22.0138 6.28964 6.28964 -8.94972
128 1 1.57167 7.86186 7.86186 -8.95081
129 1 3.1439 6.289 6.289 -8.94791
130 1 4.70984 7.85686 7.8569 -8.94014
131 1 6.28577 6.28567 6.2856 -8.93573
132 1 7.83696 7.83615 7.8357 -8.85289
133 1 9.43517 6.28743 6.28838 -8.94906
134 1 11.0144 7.85518 7.84969 -8.90864
135 1 12.5808 6.28653 6.28822 -8.95139
136 1 14.1567 7.85784 7.85931 -8.93958
137 1 15.7248 6.28918 6.28929 -8.94851
138 1 17.2973 7.86182 7.86199 -8.95003
139 1 18.8691 6.28965 6.28966 -8.94964
140 1 20.4415 7.86207 7.86208 -8.94985
141 1 -3.77319e-05 9.43452 6.28965 -8.94963
142 1 3.1444 9.43455 6.28931 -8.9492
143 1 6.28824 9.43549 6.28627 -8.95833
144 1 9.4274 9.42577 6.28532 -8.9314
145 1 12.6005 9.41533 6.26776 -8.89111
146 1 15.727 9.43387 6.28886 -8.95361
147 1 18.8693 9.4345 6.28963 -8.95013
148 1 8.71175e-08 1.45823e-15 9.43453 -8.94963
149 1 3.14484 1.38371e-16 9.43453 -8.94964
150 1 6.28966 -3.8747e-16 9.43453 -8.94978
151 1 9.43454 7.15969e-16 9.43453 -8.94998
152 1 12.5794 -8.30808e-16 9.43453 -8.94971
153 1 15.7242 1.33862e-16 9.43453 -8.94964
154 1 18.8691 1.23274e-15 9.43453 -8.94964
155 1 22.0139 3.14484 9.43453 -8.94965
156 1 3.14481 3.1448 9.43452 -8.94964
177 1 4.71723 1.57237 11.007 -8.94962
184 1 4.71687 4.71671 11.007 -8.94914
3 1 3.14484 1.71893e-15 1.25836e-07 -8.94964
11 1 15.7242 1.87751e-15 2.03893e-07 -8.94963
41 1 18.8691 6.28969 4.36375e-07 -8.94965
19 1 6.28969 3.14484 5.75155e-07 -8.94964
25 1 15.7242 3.14484 4.10283e-07 -8.94965
176 1 1.57242 1.57242 11.007 -8.94964
47 1 12.5794 9.43448 22.0137 -8.9503
178 1 7.86207 1.57218 11.007 -8.9501
179 1 11.007 1.57229 11.007 -8.94958
180 1 14.1518 1.57237 11.0069 -8.94968
343 1 18.8691 9.43453 18.8691 -8.94965
182 1 20.4415 1.57242 11.007 -8.94963
342 1 15.7243 9.43452 18.8691 -8.94955
46 1 9.43447 9.43448 22.0138 -8.94973
185 1 7.86155 4.71481 11.0076 -8.95196
186 1 11.0072 4.71649 11.0072 -8.94685
187 1 14.1521 4.71671 11.0068 -8.94929
341 1 12.5794 9.43448 18.8696 -8.95109
340 1 9.43446 9.43449 18.8692 -8.94951
190 1 1.57177 7.86186 11.007 -8.95005
191 1 4.71192 7.85927 11.0077 -8.95222
192 1 7.83577 7.84682 11.028 -8.87361
193 1 11.0178 7.86473 11.0149 -8.91821
194 1 14.1557 7.85925 11.0057 -8.94869
195 1 17.2973 7.86177 11.0069 -8.94946
196 1 20.4415 7.86207 11.007 -8.94979
197 1 22.0139 7.09111e-16 12.5794 -8.94963
198 1 1.57242 1.57242 14.1518 -8.94965
199 1 3.14484 -1.49037e-17 12.5794 -8.94963
200 1 4.71723 1.57235 14.1518 -8.94971
201 1 6.28966 8.78867e-16 12.5794 -8.94985
202 1 7.86212 1.57238 14.1518 -8.94967
203 1 9.43454 2.37287e-16 12.5794 -8.94966
204 1 11.0069 1.57236 14.1518 -8.9497
205 1 12.5794 -1.16413e-15 12.5794 -8.94985
206 1 14.1518 1.57235 14.1518 -8.9498
207 1 15.7242 -8.55907e-16 12.5794 -8.94964
208 1 17.2966 1.57242 14.1518 -8.94963
209 1 18.8691 -4.74359e-16 12.5794 -8.94963
210 1 20.4415 1.57242 14.1518 -8.94963
211 1 22.0139 3.14484 12.5794 -8.94964
212 1 1.57238 4.71723 14.1518 -8.9497
213 1 3.14481 3.1448 12.5794 -8.94965
214 1 4.71677 4.71648 14.1523 -8.9488
215 1 6.28951 3.14424 12.5795 -8.95071
216 1 7.86229 4.71685 14.152 -8.95032
217 1 9.4346 3.1446 12.5794 -8.94937
218 1 11.0068 4.71664 14.1522 -8.94954
219 1 12.5794 3.14429 12.5794 -8.95112
220 1 14.1522 4.7163 14.1522 -8.95068
221 1 15.7242 3.14479 12.5794 -8.94961
222 1 17.2967 4.71725 14.1518 -8.94983
223 1 18.8691 3.14484 12.5794 -8.94965
224 1 20.4415 4.71726 14.1518 -8.94963
225 1 -5.27472e-05 6.28965 12.5794 -8.94964
226 1 1.57192 7.8619 14.152 -8.95015
227 1 3.14428 6.28929 12.5796 -8.9496
228 1 4.71289 7.85777 14.1562 -8.93567
229 1 6.28628 6.28362 12.5829 -8.94647
230 1 7.86222 7.85913 14.1566 -8.94844
231 1 9.43518 6.28884 12.5792 -8.95363
232 1 11.0051 7.85865 14.1561 -8.94076
233 1 12.5806 6.28328 12.5806 -8.96102
234 1 14.1606 7.85318 14.1606 -8.91751
235 1 15.7246 6.28927 12.5793 -8.94982
236 1 17.2976 7.86173 14.1522 -8.95074
237 1 18.8691 6.28965 12.5794 -8.94957
238 1 20.4415 7.86208 14.1518 -8.94987
239 1 22.0136 9.43448 12.5794 -8.9503
240 1 3.14153 9.43372 12.5804 -8.95342
241 1 6.26516 9.40679 12.6086 -8.83964
242 1 9.43424 9.42718 12.582 -8.63057
243 1 12.6243 9.38043 12.6324 -8.73118
244 1 15.7301 9.43301 12.5809 -8.95698
245 1 18.8696 9.43447 12.5794 -8.95086
246 1 2.66143e-07 5.09938e-16 15.7242 -8.94964
247 1 1.57242 1.57242 17.2966 -8.94962
248 1 3.14484 -1.05228e-15 15.7242 -8.94963
249 1 4.71726 1.57242 17.2966 -8.94965
250 1 6.28969 3.70897e-16 15.7242 -8.94964
251 1 7.86211 1.57242 17.2966 -8.94962
252 1 9.43453 -2.67939e-16 15.7242 -8.94965
253 1 11.007 1.57242 17.2966 -8.94963
254 1 12.5794 1.33078e-15 15.7242 -8.94964
255 1 14.1518 1.57242 17.2966 -8.94963
256 1 15.7242 1.54419e-15 15.7242 -8.94965
257 1 17.2966 1.57241 17.2966 -8.94962
258 1 18.8691 1.62283e-15 15.7242 -8.94963
259 1 20.4415 1.57242 17.2966 -8.94964
260 1 -2.2759e-06 3.14484 15.7242 -8.94965
261 1 1.57238 4.71722 17.2967 -8.94943
262 1 3.14479 3.14477 15.7243 -8.9495
263 1 4.71723 4.71722 17.2967 -8.94966
264 1 6.28969 3.14481 15.7242 -8.94975
265 1 7.8621 4.71722 17.2967 -8.94956
266 1 9.43452 3.14475 15.7243 -8.94954
267 1 11.007 4.71722 17.2967 -8.94961
268 1 12.5794 3.14478 15.7243 -8.9496
269 1 14.1518 4.71724 17.2967 -8.94981
270 1 15.7243 3.14474 15.7243 -8.94965
271 1 17.2967 4.71718 17.2967 -8.94918
272 1 18.8691 3.14484 15.7242 -8.94967
273 1 20.4415 4.71726 17.2966 -8.94962
274 1 22.0139 6.28965 15.7242 -8.94965
275 1 1.57242 7.86211 17.2966 -8.94971
276 1 3.14434 6.2892 15.7247 -8.94776
277 1 4.71711 7.86197 17.2971 -8.95036
278 1 6.2894 6.28928 15.7248 -8.94978
279 1 7.86212 7.86186 17.2973 -8.95034
280 1 9.43447 6.28907 15.7248 -8.94688
281 1 11.0067 7.86185 17.2973 -8.94996
282 1 12.5794 6.28924 15.7247 -8.94986
283 1 14.1522 7.86174 17.2976 -8.95076
284 1 15.7252 6.28869 15.7252 -8.94537
285 1 17.2967 7.86211 17.2967 -8.94979
286 1 18.8692 6.28963 15.7243 -8.94967
287 1 20.4415 7.86211 17.2966 -8.94963
288 1 -2.29611e-05 9.43452 15.7242 -8.94958
289 1 3.14465 9.43448 15.7245 -8.94935
290 1 6.28939 9.43438 15.7272 -8.95732
291 1 9.43387 9.43467 15.7248 -8.95067
292 1 12.5804 9.43338 15.7306 -8.96046
293 1 15.7247 9.43445 15.7247 -8.94931
294 1 18.8691 9.43452 15.7243 -8.94956
295 1 22.0139 -7.41328e-16 18.8691 -8.94963
296 1 1.57242 1.57242 20.4415 -8.94963
297 1 3.14484 -5.78594e-16 18.8691 -8.94964
298 1 4.71726 1.57242 20.4415 -8.94964
299 1 6.28969 1.83372e-16 18.8691 -8.94963
300 1 7.86211 1.57242 20.4415 -8.94964
301 1 9.43453 -9.85509e-16 18.8691 -8.94964
302 1 11.007 1.57242 20.4415 -8.94963
303 1 12.5794 3.03874e-16 18.8691 -8.94963
304 1 14.1518 1.57242 20.4415 -8.94963
305 1 15.7242 1.42746e-15 18.8691 -8.94963
306 1 17.2966 1.57242 20.4415 -8.94964
307 1 18.8691 8.72714e-16 18.8691 -8.94963
308 1 20.4415 1.57242 20.4415 -8.94963
309 1 22.0139 3.14484 18.8691 -8.94961
310 1 1.57242 4.71726 20.4415 -8.94963
311 1 3.14484 3.14484 18.8691 -8.94964
312 1 4.71726 4.71726 20.4415 -8.94963
313 1 6.28969 3.14484 18.8691 -8.94964
314 1 7.86211 4.71726 20.4415 -8.94962
315 1 9.43453 3.14484 18.8691 -8.94966
316 1 11.007 4.71726 20.4415 -8.94963
317 1 12.5794 3.14484 18.8691 -8.94964
318 1 14.1518 4.71726 20.4415 -8.94964
319 1 15.7242 3.14484 18.8691 -8.94967
320 1 17.2966 4.71726 20.4415 -8.94962
321 1 18.8691 3.14484 18.8691 -8.94959
322 1 20.4415 4.71726 20.4415 -8.94964
323 1 1.02802e-06 6.28969 18.8691 -8.94965
324 1 1.57242 7.86211 20.4415 -8.94963
325 1 3.14482 6.28967 18.8691 -8.94967
326 1 4.71726 7.8621 20.4415 -8.94973
327 1 6.28966 6.28965 18.8691 -8.94965
328 1 7.86209 7.86208 20.4415 -8.9498
329 1 9.43452 6.28962 18.8691 -8.94951
330 1 11.0069 7.86208 20.4415 -8.94974
331 1 12.5794 6.28965 18.8691 -8.94962
332 1 14.1518 7.86208 20.4415 -8.94986
333 1 15.7243 6.28963 18.8692 -8.94966
334 1 17.2966 7.86211 20.4415 -8.94963
335 1 18.8691 6.28969 18.8691 -8.94967
336 1 20.4415 7.86211 20.4415 -8.94963
337 1 22.0139 9.43453 18.8691 -8.94964
338 1 3.14482 9.43452 18.8691 -8.94957
339 1 6.28968 9.43455 18.8693 -8.95039
45 1 6.28968 9.43454 22.0139 -8.94974
5 1 6.28969 1.77101e-15 22.0139 -8.94963
9 1 12.5794 -2.71736e-16 22.0139 -8.94963
39 1 15.7242 6.28966 22.0139 -8.94963
15 1 22.0139 3.14484 22.0139 -8.94963
17 1 3.14484 3.14484 22.0139 -8.94962
33 1 6.28967 6.28966 22.0139 -8.94969
23 1 12.5794 3.14484 22.0139 -8.94963
31 1 3.14484 6.28969 22.0139 -8.94965
27 1 18.8691 3.14484 22.0139 -8.94962
29 1 22.0139 6.28969 22.0139 -8.94963
1 1 22.0139 1.36028e-15 22.0139 -8.94963
13 1 18.8691 1.6654e-15 22.0139 -8.94963
21 1 9.43453 3.14484 22.0139 -8.94964
43 1 22.0139 9.43453 22.0139 -8.94964
49 1 18.8691 9.43453 22.0139 -8.94964
344 1 1.57242 11.007 1.57242 -8.94965
345 1 4.71722 11.007 1.57235 -8.94965
346 1 7.86206 11.007 1.57232 -8.94922
347 1 11.0069 11.007 1.57116 -8.95128
348 1 14.152 11.007 1.57207 -8.9494
349 1 17.2966 11.007 1.57241 -8.94969
350 1 20.4415 11.007 1.57242 -8.94964
538 1 17.2966 20.4415 11.007 -8.94963
352 1 1.57242 14.1518 1.57242 -8.94963
353 1 3.14484 12.5794 -1.91181e-06 -8.94963
354 1 4.71725 14.1518 1.57238 -8.94975
688 3 10.2393 11.007 9.50748 2.35373
356 1 7.862 14.1519 1.57205 -8.95028
511 1 18.8691 18.8691 9.43453 -8.94965
358 1 11.0069 14.1519 1.57215 -8.94968
510 1 15.7243 18.8691 9.43452 -8.94954
360 1 14.152 14.152 1.57199 -8.94997
361 1 15.7242 12.5794 -1.66944e-05 -8.9496
362 1 17.2966 14.1518 1.57241 -8.94971
532 1 20.4415 17.2966 11.007 -8.94964
364 1 20.4415 14.1518 1.57242 -8.94963
509 1 12.5794 18.8693 9.43455 -8.94996
366 1 1.57242 17.2966 1.57242 -8.94965
508 1 9.43462 18.87 9.43456 -8.94998
368 1 4.71723 17.2967 1.57237 -8.9496
507 1 6.28951 18.8696 9.43456 -8.95008
370 1 7.86211 17.2967 1.5724 -8.9496
371 1 9.43453 15.7242 -2.37681e-05 -8.94963
372 1 11.007 17.2967 1.5724 -8.94963
373 1 12.5794 15.7242 -1.02651e-05 -8.94963
374 1 14.1518 17.2966 1.57242 -8.94976
506 1 3.14481 18.8691 9.43452 -8.94964
376 1 17.2967 17.2967 1.57239 -8.94947
505 1 22.0139 18.8691 9.43453 -8.94965
378 1 20.4415 17.2966 1.57242 -8.94963
504 1 18.8691 15.7243 9.43452 -8.94955
380 1 1.57242 20.4415 1.57242 -8.94962
503 1 15.7246 15.7247 9.43443 -8.94817
382 1 4.71727 20.4415 1.57242 -8.94966
502 1 12.579 15.7265 9.43441 -8.95643
384 1 7.86211 20.4415 1.57242 -8.94964
531 1 17.2967 17.2967 11.0069 -8.94966
386 1 11.007 20.4415 1.57242 -8.94964
501 1 9.43296 15.7274 9.43494 -8.99504
388 1 14.1518 20.4415 1.57242 -8.94964
500 1 6.28754 15.7291 9.43448 -8.95544
390 1 17.2966 20.4415 1.57242 -8.94963
499 1 3.14433 15.7246 9.4345 -8.94905
392 1 20.4415 20.4415 1.57242 -8.94963
393 1 1.57237 11.007 4.71722 -8.94968
394 1 4.7168 11.007 4.71657 -8.94819
395 1 7.86254 11.007 4.7174 -8.94637
396 1 11.0081 11.007 4.7093 -8.98502
397 1 14.1539 11.007 4.71499 -8.94691
398 1 17.297 11.007 4.71709 -8.94945
399 1 20.4415 11.007 4.71725 -8.94966
400 1 -6.18991e-07 12.5794 3.14484 -8.94964
401 1 1.5724 14.1518 4.71724 -8.9497
402 1 3.1448 12.5794 3.14479 -8.94954
403 1 4.717 14.1519 4.71674 -8.95107
404 1 6.28957 12.5792 3.14448 -8.95041
405 1 7.86092 14.1532 4.7136 -8.95351
406 1 9.43399 12.5798 3.14359 -8.94898
407 1 11.0064 14.1527 4.71512 -8.95149
408 1 12.5802 12.5801 3.14195 -8.95378
409 1 14.1551 14.1552 4.71373 -8.93973
410 1 15.7244 12.5794 3.14466 -8.94954
411 1 17.297 14.152 4.71709 -8.95001
412 1 18.8691 12.5794 3.14483 -8.94961
413 1 20.4415 14.1518 4.71725 -8.94969
414 1 22.0139 15.7242 3.14484 -8.94966
415 1 1.57233 17.2967 4.7172 -8.9494
416 1 3.14481 15.7242 3.14479 -8.94981
417 1 4.71685 17.2971 4.71684 -8.94787
418 1 6.28944 15.7245 3.14432 -8.94976
419 1 7.86214 17.2968 4.71714 -8.94999
420 1 9.43453 15.7245 3.14453 -8.94913
421 1 11.007 17.2969 4.71702 -8.94911
422 1 12.5793 15.7243 3.14468 -8.94998
423 1 14.152 17.2971 4.71703 -8.9497
424 1 15.7246 15.7246 3.14445 -8.94817
425 1 17.2967 17.2967 4.71723 -8.94956
426 1 18.8691 15.7242 3.14482 -8.94964
427 1 20.4415 17.2966 4.71726 -8.94963
428 1 22.0139 18.8691 3.14484 -8.94961
429 1 1.57242 20.4415 4.71726 -8.94965
430 1 3.14481 18.8691 3.14481 -8.94946
431 1 4.71724 20.4415 4.71723 -8.94962
432 1 6.28969 18.8691 3.14484 -8.94978
433 1 7.86211 20.4415 4.71725 -8.9496
434 1 9.43452 18.8691 3.14483 -8.94968
435 1 11.007 20.4415 4.71724 -8.9496
436 1 12.5794 18.8691 3.14483 -8.94961
437 1 14.1518 20.4415 4.71725 -8.94968
438 1 15.7242 18.8691 3.14482 -8.9496
439 1 17.2966 20.4415 4.71726 -8.94964
440 1 18.8691 18.8691 3.14484 -8.94963
441 1 20.4415 20.4415 4.71726 -8.94964
442 1 1.57186 11.007 7.86182 -8.94922
443 1 4.71421 11.007 7.85938 -8.94306
444 1 7.86581 11.007 7.8709 -8.91686
445 1 11.0766 11.007 7.69174 -8.18573
446 1 14.1614 11.007 7.8591 -8.9662
447 1 17.2979 11.007 7.86205 -8.95118
448 1 20.4415 11.007 7.86209 -8.94992
449 1 -3.77319e-05 12.5794 6.28965 -8.94963
450 1 1.57167 14.152 7.86186 -8.95081
451 1 3.1444 12.5794 6.28931 -8.9492
452 1 4.70984 14.157 7.8569 -8.94014
453 1 6.28824 12.5784 6.28627 -8.95833
454 1 7.83696 14.1777 7.8357 -8.85289
455 1 9.4274 12.5881 6.28532 -8.9314
456 1 11.0144 14.1587 7.84969 -8.90864
457 1 12.6005 12.5986 6.26776 -8.89111
458 1 14.1567 14.1561 7.85931 -8.93958
459 1 15.727 12.58 6.28886 -8.95361
460 1 17.2973 14.1521 7.86199 -8.95003
461 1 18.8693 12.5794 6.28963 -8.95013
462 1 20.4415 14.1518 7.86208 -8.94985
463 1 22.0138 15.7243 6.28964 -8.94972
464 1 1.5724 17.2967 7.86211 -8.94968
465 1 3.1439 15.7249 6.289 -8.94791
466 1 4.71696 17.2972 7.86194 -8.95038
467 1 6.28577 15.7282 6.2856 -8.93573
468 1 7.86155 17.2999 7.86134 -8.95519
469 1 9.43517 15.7265 6.28838 -8.94906
470 1 11.0072 17.298 7.86166 -8.95025
471 1 12.5808 15.7274 6.28822 -8.95139
472 1 14.152 17.2971 7.86211 -8.95037
473 1 15.7248 15.7247 6.28929 -8.94851
474 1 17.2967 17.2967 7.8621 -8.94965
475 1 18.8691 15.7243 6.28966 -8.94964
476 1 20.4415 17.2966 7.86211 -8.94962
477 1 1.10606e-06 18.8691 6.28969 -8.94965
478 1 1.57242 20.4415 7.86211 -8.94964
479 1 3.14481 18.8691 6.28967 -8.94977
480 1 4.71724 20.4415 7.8621 -8.94968
481 1 6.28949 18.8695 6.28947 -8.95005
482 1 7.86207 20.4418 7.86206 -8.95037
483 1 9.43461 18.8694 6.28952 -8.94947
484 1 11.007 20.4416 7.86206 -8.94981
485 1 12.5795 18.8694 6.28958 -8.95018
486 1 14.1518 20.4415 7.86211 -8.94971
487 1 15.7242 18.8691 6.28968 -8.94969
488 1 17.2966 20.4415 7.86211 -8.94962
489 1 18.8691 18.8691 6.28969 -8.94965
490 1 20.4415 20.4415 7.86211 -8.94963
491 1 22.0135 12.5794 9.43448 -8.95048
492 1 3.14061 12.5801 9.43369 -8.95525
493 1 6.25786 12.6102 9.4061 -8.8686
494 1 9.35447 12.7843 9.41509 -7.80138
495 1 12.5933 12.6015 9.40962 -8.82479
496 1 15.7273 12.5807 9.43385 -8.9488
497 1 18.8694 12.5795 9.43449 -8.94994
498 1 -5.13545e-05 15.7243 9.43453 -8.9496
526 1 1.57238 17.2967 11.007 -8.94967
527 1 4.71687 17.2972 11.007 -8.94914
534 1 4.71723 20.4415 11.007 -8.94962
389 1 15.7242 18.8691 4.10283e-07 -8.94965
377 1 18.8691 15.7242 4.36375e-07 -8.94965
383 1 6.28969 18.8691 5.75155e-07 -8.94964
512 1 1.57082 11.007 11.007 -8.95142
513 1 4.70524 11.007 11.0076 -9.01281
514 1 7.52191 11.007 11.008 -7.83085
515 1 11.4063 11.007 11.1478 -7.04965
516 1 14.1704 11.007 11.0099 -9.0153
517 1 17.2988 11.007 11.0068 -8.95312
518 1 20.4415 11.007 11.0069 -8.95031
519 1 1.57177 14.152 11.007 -8.95005
520 1 4.71192 14.1546 11.0077 -8.95222
521 1 7.83577 14.1671 11.028 -8.87361
522 1 11.0178 14.1492 11.0149 -8.91821
523 1 14.1557 14.1546 11.0057 -8.94869
524 1 17.2973 14.1521 11.0069 -8.94946
525 1 20.4415 14.1518 11.007 -8.94979
687 3 9.4652 11.007 10.99 2.38025
391 1 18.8691 18.8691 22.0139 -8.94962
528 1 7.86155 17.2991 11.0076 -8.95196
529 1 11.0072 17.2974 11.0072 -8.94685
530 1 14.1521 17.2972 11.0068 -8.94929
686 1 20.4415 20.4415 20.4415 -8.94963
685 1 18.8691 18.8691 18.8691 -8.94959
533 1 1.57242 20.4415 11.007 -8.94964
387 1 12.5794 18.8691 22.0139 -8.94963
535 1 7.86207 20.4417 11.007 -8.9501
536 1 11.007 20.4416 11.007 -8.94958
537 1 14.1518 20.4415 11.0069 -8.94968
684 1 17.2966 20.4415 20.4415 -8.94964
539 1 20.4415 20.4415 11.007 -8.94963
540 1 1.57199 11.007 14.152 -8.94948
541 1 4.71448 11.007 14.1541 -8.94747
542 1 7.8578 11.007 14.147 -8.94912
543 1 11.0124 11.007 14.1587 -8.97984
544 1 14.1561 11.007 14.1559 -8.94456
545 1 17.2974 11.007 14.1522 -8.94914
546 1 20.4415 11.007 14.1518 -8.94975
547 1 22.0136 12.5794 12.5794 -8.9503
548 1 1.57192 14.152 14.152 -8.95015
549 1 3.14153 12.5802 12.5804 -8.95342
550 1 4.71289 14.1561 14.1562 -8.93567
551 1 6.26516 12.6071 12.6086 -8.83964
552 1 7.86222 14.1548 14.1566 -8.94844
553 1 9.43424 12.5867 12.582 -8.63057
554 1 11.0051 14.1552 14.1561 -8.94076
555 1 12.6243 12.6335 12.6324 -8.73118
556 1 14.1606 14.1607 14.1606 -8.91751
557 1 15.7301 12.5809 12.5809 -8.95698
558 1 17.2976 14.1522 14.1522 -8.95074
559 1 18.8696 12.5794 12.5794 -8.95086
560 1 20.4415 14.1518 14.1518 -8.94987
561 1 -5.27472e-05 15.7242 12.5794 -8.94964
562 1 1.57238 17.2967 14.1518 -8.9497
563 1 3.14428 15.7246 12.5796 -8.9496
564 1 4.71677 17.2974 14.1523 -8.9488
565 1 6.28628 15.7303 12.5829 -8.94647
566 1 7.86229 17.2971 14.152 -8.95032
567 1 9.43518 15.7251 12.5792 -8.95363
568 1 11.0068 17.2973 14.1522 -8.94954
569 1 12.5806 15.7306 12.5806 -8.96102
570 1 14.1522 17.2976 14.1522 -8.95068
571 1 15.7246 15.7246 12.5793 -8.94982
572 1 17.2967 17.2967 14.1518 -8.94983
573 1 18.8691 15.7243 12.5794 -8.94957
574 1 20.4415 17.2966 14.1518 -8.94963
575 1 22.0139 18.8691 12.5794 -8.94964
576 1 1.57242 20.4415 14.1518 -8.94965
577 1 3.14481 18.8691 12.5794 -8.94965
578 1 4.71723 20.4415 14.1518 -8.94971
579 1 6.28951 18.8697 12.5795 -8.95071
580 1 7.86212 20.4415 14.1518 -8.94967
581 1 9.4346 18.8693 12.5794 -8.94937
582 1 11.0069 20.4415 14.1518 -8.9497
583 1 12.5794 18.8696 12.5794 -8.95112
584 1 14.1518 20.4416 14.1518 -8.9498
585 1 15.7242 18.8691 12.5794 -8.94961
586 1 17.2966 20.4415 14.1518 -8.94963
587 1 18.8691 18.8691 12.5794 -8.94965
588 1 20.4415 20.4415 14.1518 -8.94963
589 1 1.57241 11.007 17.2967 -8.94972
590 1 4.71702 11.007 17.2971 -8.94922
591 1 7.86214 11.007 17.2967 -8.94714
592 1 11.0067 11.007 17.2981 -8.94995
593 1 14.1522 11.007 17.2974 -8.9488
594 1 17.2967 11.007 17.2967 -8.9497
595 1 20.4415 11.007 17.2966 -8.94964
596 1 -2.29611e-05 12.5794 15.7242 -8.94958
597 1 1.57242 14.1518 17.2966 -8.94971
598 1 3.14465 12.5794 15.7245 -8.94935
599 1 4.71711 14.1519 17.2971 -8.95036
600 1 6.28939 12.5795 15.7272 -8.95732
601 1 7.86212 14.152 17.2973 -8.95034
602 1 9.43387 12.5792 15.7248 -8.95067
603 1 11.0067 14.1521 17.2973 -8.94996
604 1 12.5804 12.5805 15.7306 -8.96046
605 1 14.1522 14.1522 17.2976 -8.95076
606 1 15.7247 12.5794 15.7247 -8.94931
607 1 17.2967 14.1518 17.2967 -8.94979
608 1 18.8691 12.5794 15.7243 -8.94956
609 1 20.4415 14.1518 17.2966 -8.94963
610 1 22.0139 15.7242 15.7242 -8.94965
611 1 1.57238 17.2967 17.2967 -8.94943
612 1 3.14434 15.7247 15.7247 -8.94776
613 1 4.71723 17.2967 17.2967 -8.94966
614 1 6.2894 15.7246 15.7248 -8.94978
615 1 7.8621 17.2967 17.2967 -8.94956
616 1 9.43447 15.7248 15.7248 -8.94688
617 1 11.007 17.2967 17.2967 -8.94961
618 1 12.5794 15.7247 15.7247 -8.94986
619 1 14.1518 17.2967 17.2967 -8.94981
620 1 15.7252 15.7252 15.7252 -8.94537
621 1 17.2967 17.2967 17.2967 -8.94918
622 1 18.8692 15.7243 15.7243 -8.94967
623 1 20.4415 17.2966 17.2966 -8.94962
624 1 -2.2759e-06 18.8691 15.7242 -8.94965
625 1 1.57242 20.4415 17.2966 -8.94962
626 1 3.14479 18.8691 15.7243 -8.9495
627 1 4.71726 20.4415 17.2966 -8.94965
628 1 6.28969 18.8691 15.7242 -8.94975
629 1 7.86211 20.4415 17.2966 -8.94962
630 1 9.43452 18.8691 15.7243 -8.94954
631 1 11.007 20.4415 17.2966 -8.94963
632 1 12.5794 18.8691 15.7243 -8.9496
633 1 14.1518 20.4415 17.2966 -8.94963
634 1 15.7243 18.8692 15.7243 -8.94965
635 1 17.2966 20.4415 17.2966 -8.94962
636 1 18.8691 18.8691 15.7242 -8.94967
637 1 20.4415 20.4415 17.2966 -8.94964
638 1 1.57242 11.007 20.4415 -8.94964
639 1 4.71725 11.007 20.4415 -8.94968
640 1 7.86211 11.007 20.4415 -8.94951
641 1 11.0069 11.007 20.4415 -8.95012
642 1 14.1518 11.007 20.4415 -8.94971
643 1 17.2966 11.007 20.4415 -8.94964
644 1 20.4415 11.007 20.4415 -8.94963
645 1 22.0139 12.5794 18.8691 -8.94964
646 1 1.57242 14.1518 20.4415 -8.94963
647 1 3.14482 12.5794 18.8691 -8.94957
648 1 4.71726 14.1518 20.4415 -8.94973
649 1 6.28968 12.5794 18.8693 -8.95039
650 1 7.86209 14.1518 20.4415 -8.9498
651 1 9.43446 12.5794 18.8692 -8.94951
652 1 11.0069 14.1518 20.4415 -8.94974
653 1 12.5794 12.5794 18.8696 -8.95109
654 1 14.1518 14.1518 20.4415 -8.94986
655 1 15.7243 12.5794 18.8691 -8.94955
656 1 17.2966 14.1518 20.4415 -8.94963
657 1 18.8691 12.5794 18.8691 -8.94965
658 1 20.4415 14.1518 20.4415 -8.94963
659 1 1.02802e-06 15.7242 18.8691 -8.94965
660 1 1.57242 17.2966 20.4415 -8.94963
661 1 3.14482 15.7242 18.8691 -8.94967
662 1 4.71726 17.2966 20.4415 -8.94963
663 1 6.28966 15.7243 18.8691 -8.94965
664 1 7.86211 17.2966 20.4415 -8.94962
665 1 9.43452 15.7243 18.8691 -8.94951
666 1 11.007 17.2966 20.4415 -8.94963
667 1 12.5794 15.7242 18.8691 -8.94962
668 1 14.1518 17.2966 20.4415 -8.94964
669 1 15.7243 15.7243 18.8692 -8.94966
670 1 17.2966 17.2966 20.4415 -8.94962
671 1 18.8691 15.7242 18.8691 -8.94967
672 1 20.4415 17.2966 20.4415 -8.94964
673 1 22.0139 18.8691 18.8691 -8.94961
674 1 1.57242 20.4415 20.4415 -8.94963
675 1 3.14484 18.8691 18.8691 -8.94964
676 1 4.71726 20.4415 20.4415 -8.94964
677 1 6.28969 18.8691 18.8691 -8.94964
678 1 7.86211 20.4415 20.4415 -8.94964
679 1 9.43453 18.8691 18.8691 -8.94966
680 1 11.007 20.4415 20.4415 -8.94963
681 1 12.5794 18.8691 18.8691 -8.94964
682 1 14.1518 20.4415 20.4415 -8.94963
683 1 15.7242 18.8691 18.8691 -8.94967
355 1 6.28968 12.5794 22.0139 -8.94974
357 1 9.43447 12.5794 22.0138 -8.94973
359 1 12.5794 12.5794 22.0137 -8.9503
365 1 22.0139 15.7242 22.0139 -8.94963
367 1 3.14484 15.7242 22.0139 -8.94965
369 1 6.28967 15.7242 22.0139 -8.94969
375 1 15.7242 15.7242 22.0139 -8.94963
381 1 3.14484 18.8691 22.0139 -8.94962
379 1 22.0139 18.8691 22.0139 -8.94963
351 1 22.0139 12.5794 22.0139 -8.94964
363 1 18.8691 12.5794 22.0139 -8.94964
385 1 9.43453 18.8691 22.0139 -8.94964
