ITEM: TIMESTEP
66
ITEM: NUMBER OF ATOMS
688
ITEM: BOX BOUNDS pp pp pp
0.0000000000000000e+00 2.2013900999999997e+01
0.0000000000000000e+00 2.2013900999999997e+01
0.0000000000000000e+00 2.2013900999999997e+01
ITEM: ATOMS id type x y z c_pot
189 1 20.4415 4.71664 11.007 -8.94949
2 1 1.57222 1.57226 1.57219 -8.94934
175 1 18.8711 9.43383 9.43403 -8.9496
4 1 4.71716 1.57223 1.57219 -8.94966
174 1 15.7314 9.43199 9.43188 -8.94777
6 1 7.86208 1.57221 1.57217 -8.94957
7 1 9.43453 -7.39261e-16 -7.62789e-05 -8.94962
8 1 11.007 1.5722 1.57216 -8.94959
173 1 12.5961 9.41105 9.39953 -8.83317
10 1 14.1519 1.57223 1.57223 -8.94953
172 1 9.36797 9.19659 9.40864 -7.80753
12 1 17.2968 1.5722 1.57222 -8.94953
188 1 17.2978 4.71595 11.0068 -8.949
14 1 20.4415 1.57231 1.57232 -8.94948
171 1 6.24879 9.38954 9.39711 -8.86287
16 1 1.57214 4.71704 1.57204 -8.94984
170 1 3.13342 9.43183 9.43131 -8.95519
18 1 4.71661 4.71654 1.57125 -8.94949
169 1 22.0115 9.43414 9.43402 -8.95102
20 1 7.86194 4.71654 1.57149 -8.94919
183 1 1.57094 4.71595 11.0071 -8.94922
22 1 11.007 4.7165 1.57157 -8.94929
168 1 18.8701 6.28856 9.43427 -8.94922
24 1 14.1521 4.71656 1.57168 -8.94977
167 1 15.7272 6.28629 9.43354 -8.94555
26 1 17.2974 4.71649 1.57171 -8.94876
166 1 12.5793 6.28576 9.43356 -8.95517
28 1 20.4416 4.71709 1.57222 -8.94963
165 1 9.42999 6.29919 9.43619 -9.0092
30 1 1.57214 7.86202 1.57204 -8.94943
164 1 6.28085 6.27589 9.43393 -8.95531
32 1 4.71696 7.86221 1.57154 -8.95026
163 1 3.13975 6.2857 9.43374 -8.94727
34 1 7.86178 7.86171 1.57023 -8.95198
35 1 9.43437 6.2891 -0.000587759 -8.94971
36 1 11.0066 7.86141 1.57025 -8.95044
37 1 12.5794 6.28921 -0.000506273 -8.9497
38 1 14.153 7.86092 1.56976 -8.95115
162 1 -0.00131048 6.28866 9.43432 -8.94951
40 1 17.2974 7.86174 1.57169 -8.94939
161 1 18.8693 3.14437 9.43446 -8.94955
42 1 20.4416 7.86202 1.57218 -8.94954
181 1 17.297 1.57206 11.0069 -8.94956
44 1 3.14452 9.43447 -0.000164778 -8.94965
160 1 15.725 3.14356 9.43433 -8.94938
159 1 12.5794 3.14356 9.43468 -8.95011
158 1 9.43458 3.14483 9.43483 -8.94493
48 1 15.7249 9.4343 -0.0005014 -8.94947
157 1 6.28854 3.14109 9.43481 -8.95126
50 1 22.0138 1.17359e-15 3.14473 -8.94962
51 1 1.57207 1.57207 4.71699 -8.94966
52 1 3.14456 1.54585e-15 3.14452 -8.94957
53 1 4.71675 1.57158 4.71662 -8.94995
54 1 6.28961 6.91632e-16 3.14453 -8.94953
55 1 7.86209 1.57165 4.71668 -8.94947
56 1 9.43457 4.34202e-16 3.1445 -8.94957
57 1 11.0072 1.5717 4.71669 -8.9494
58 1 12.5795 1.09129e-15 3.14454 -8.94946
59 1 14.1521 1.57177 4.71698 -8.95031
60 1 15.7244 7.25083e-16 3.14465 -8.94985
61 1 17.2968 1.57215 4.71714 -8.94971
62 1 18.8691 7.4357e-16 3.14478 -8.94966
63 1 20.4415 1.5723 4.7172 -8.94962
64 1 22.0135 3.14446 3.14447 -8.94923
65 1 1.57068 4.71584 4.71582 -8.94833
66 1 3.14401 3.14396 3.14388 -8.9484
67 1 4.71393 4.71362 4.7135 -8.94442
68 1 6.28943 3.144 3.14404 -8.94956
69 1 7.86156 4.7144 4.71493 -8.94859
70 1 9.43458 3.14396 3.14406 -8.94951
71 1 11.0075 4.71476 4.71524 -8.94737
72 1 12.5796 3.14402 3.14421 -8.94916
73 1 14.1539 4.71374 4.71498 -8.94913
74 1 15.7249 3.14382 3.14414 -8.94939
75 1 17.2978 4.71605 4.71641 -8.94906
76 1 18.8693 3.14448 3.14458 -8.94947
77 1 20.4414 4.71678 4.71686 -8.94968
78 1 22.0138 6.28952 3.14445 -8.94974
79 1 1.57137 7.8619 4.71618 -8.94948
80 1 3.1439 6.28917 3.14345 -8.95065
81 1 4.71506 7.86151 4.71348 -8.95377
82 1 6.28783 6.28763 3.14083 -8.95014
83 1 7.85809 7.85706 4.70689 -8.95613
84 1 9.43431 6.28765 3.14191 -8.94809
85 1 11.0066 7.85895 4.70937 -8.95381
86 1 12.5799 6.28794 3.14219 -8.94986
87 1 14.1611 7.8532 4.70665 -8.9379
88 1 15.727 6.28688 3.14179 -8.94644
89 1 17.2996 7.86072 4.71551 -8.95037
90 1 18.8699 6.28916 3.14422 -8.94967
91 1 20.4419 7.86184 4.71672 -8.94982
92 1 -0.000188775 9.43445 3.14434 -8.94953
93 1 3.14391 9.43443 3.14345 -8.94888
94 1 6.28947 9.43545 3.14307 -8.95089
95 1 9.43409 9.43442 3.14277 -8.94909
96 1 12.5815 9.43336 3.13725 -8.95699
97 1 15.7267 9.43365 3.14213 -8.94821
98 1 18.8699 9.43435 3.14416 -8.94941
99 1 22.0138 2.06624e-16 6.28963 -8.94959
100 1 1.57204 1.57205 7.86201 -8.94954
101 1 3.14447 5.90043e-16 6.28946 -8.94975
102 1 4.71668 1.57127 7.86187 -8.95002
103 1 6.28951 1.39238e-15 6.28936 -8.95057
104 1 7.86226 1.57096 7.86204 -8.95152
105 1 9.43473 8.79792e-16 6.28928 -8.95019
106 1 11.0069 1.57177 7.86218 -8.94991
107 1 12.5795 9.02218e-16 6.28959 -8.95026
108 1 14.152 1.57178 7.8621 -8.94998
109 1 15.7244 4.58695e-16 6.28962 -8.94979
110 1 17.2969 1.57209 7.86201 -8.94951
111 1 18.8692 6.21545e-16 6.28963 -8.94957
112 1 20.4415 1.57226 7.86206 -8.9496
113 1 -0.000342269 3.14442 6.28951 -8.94953
114 1 1.57092 4.71591 7.86163 -8.9491
115 1 3.14373 3.14327 6.28891 -8.94979
116 1 4.71408 4.71209 7.8603 -8.95019
117 1 6.28869 3.14156 6.28834 -8.95149
118 1 7.86095 4.7092 7.86065 -8.96035
119 1 9.43488 3.14218 6.28846 -8.9498
120 1 11.0058 4.71464 7.86196 -8.95454
121 1 12.5796 3.14282 6.28933 -8.95192
122 1 14.1528 4.71433 7.86176 -8.95091
123 1 15.7248 3.14374 6.28944 -8.94994
124 1 17.2976 4.71608 7.86179 -8.94896
125 1 18.8693 3.14446 6.28956 -8.94951
126 1 20.4414 4.71668 7.86193 -8.94942
127 1 22.0125 6.28878 6.28881 -8.9503
128 1 1.56745 7.86028 7.86022 -8.95272
129 1 3.13841 6.28482 6.28474 -8.94593
130 1 4.69744 7.84761 7.84812 -8.94006
131 1 6.27779 6.27686 6.27688 -8.92765
132 1 7.82281 7.82235 7.8229 -8.83978
133 1 9.43427 6.28152 6.28381 -8.94534
134 1 11.0228 7.8475 7.83416 -8.88889
135 1 12.5852 6.28002 6.28259 -8.94814
136 1 14.1641 7.8519 7.85369 -8.94038
137 1 15.7284 6.28588 6.28684 -8.94733
138 1 17.3004 7.86028 7.86109 -8.95094
139 1 18.8701 6.28883 6.28911 -8.94995
140 1 20.4414 7.86147 7.86163 -8.95056
141 1 -0.000826133 9.43438 6.28881 -8.94946
142 1 3.14168 9.4345 6.28681 -8.94798
143 1 6.28665 9.43729 6.28342 -8.96382
144 1 9.42274 9.41934 6.28603 -8.93127
145 1 12.6092 9.41124 6.25665 -8.89617
146 1 15.7326 9.43231 6.28549 -8.95461
147 1 18.871 9.4342 6.28891 -8.95073
148 1 -0.000145569 9.63855e-16 9.43452 -8.94961
149 1 3.14439 -1.89738e-16 9.4345 -8.94961
150 1 6.28942 2.01701e-16 9.43464 -8.95061
151 1 9.43473 7.62118e-16 9.43458 -8.94824
152 1 12.5795 4.08821e-16 9.43458 -8.94981
153 1 15.7245 3.86363e-16 9.43446 -8.94971
154 1 18.8692 1.6008e-15 9.4345 -8.94961
155 1 22.0136 3.14437 9.4345 -8.94953
156 1 3.14372 3.14331 9.43444 -8.94935
177 1 4.71656 1.57127 11.0072 -8.94964
184 1 4.71384 4.71265 11.0079 -8.9472
3 1 3.1448 1.71511e-15 -6.41943e-05 -8.94965
11 1 15.7242 9.44135e-16 -4.6292e-05 -8.94961
41 1 18.8693 6.28955 -0.00010629 -8.94959
19 1 6.2896 3.14459 -0.000180612 -8.9495
25 1 15.7243 3.1446 -0.000130233 -8.9497
176 1 1.57202 1.57205 11.007 -8.94956
47 1 12.5795 9.43438 22.0128 -8.9515
178 1 7.86238 1.57145 11.007 -8.95015
179 1 11.0068 1.57208 11.0069 -8.94875
180 1 14.1522 1.57166 11.0068 -8.94968
343 1 18.8695 9.43445 18.8695 -8.94948
182 1 20.4415 1.57225 11.007 -8.94961
342 1 15.7253 9.43422 18.8707 -8.94919
46 1 9.43425 9.43448 22.0132 -8.94905
185 1 7.86089 4.71327 11.0079 -8.95366
186 1 11.0059 4.71762 11.0063 -8.94706
187 1 14.1533 4.71425 11.0061 -8.94808
341 1 12.5794 9.43437 18.8721 -8.95338
340 1 9.43415 9.43463 18.869 -8.94754
190 1 1.56768 7.86036 11.0071 -8.95103
191 1 4.70046 7.85362 11.0088 -8.95149
192 1 7.81752 7.84617 11.0365 -8.866
193 1 11.0328 7.86875 11.0241 -8.90026
194 1 14.1633 7.85576 11.0045 -8.94782
195 1 17.3007 7.8601 11.0063 -8.9495
196 1 20.4415 7.86133 11.0069 -8.95021
197 1 22.0138 7.66573e-16 12.5794 -8.94961
198 1 1.57208 1.57208 14.152 -8.94954
199 1 3.14442 4.21908e-16 12.5796 -8.94954
200 1 4.71679 1.57133 14.1524 -8.95058
201 1 6.28962 4.15924e-16 12.5796 -8.95087
202 1 7.86231 1.57186 14.1521 -8.9495
203 1 9.43467 4.37433e-16 12.5796 -8.94924
204 1 11.0069 1.57172 14.1522 -8.94968
205 1 12.5794 3.23334e-16 12.5793 -8.95082
206 1 14.1521 1.57128 14.1521 -8.95108
207 1 15.7245 8.26937e-16 12.5794 -8.94964
208 1 17.2969 1.57208 14.1518 -8.94963
209 1 18.8692 1.54201e-15 12.5794 -8.94958
210 1 20.4415 1.57228 14.1518 -8.94958
211 1 22.0136 3.14439 12.5795 -8.94949
212 1 1.57103 4.71599 14.1526 -8.94947
213 1 3.14378 3.14335 12.5798 -8.94915
214 1 4.71376 4.71175 14.1556 -8.94779
215 1 6.28901 3.14139 12.5803 -8.95315
216 1 7.86301 4.71544 14.1529 -8.95016
217 1 9.43481 3.14415 12.5797 -8.94815
218 1 11.0058 4.71465 14.1532 -8.94928
219 1 12.5793 3.14187 12.5793 -8.95429
220 1 14.1546 4.71067 14.1548 -8.95208
221 1 15.7249 3.14351 12.5793 -8.94949
222 1 17.2979 4.71581 14.1522 -8.94988
223 1 18.8693 3.14439 12.5794 -8.94946
224 1 20.4415 4.71673 14.152 -8.94958
225 1 -0.0011609 6.28875 12.5797 -8.94971
226 1 1.56879 7.86039 14.1538 -8.95103
227 1 3.13993 6.28595 12.5815 -8.94897
228 1 4.70398 7.84949 14.1655 -8.92798
229 1 6.27882 6.27404 12.5897 -8.94664
230 1 7.86239 7.85776 14.16 -8.95181
231 1 9.43503 6.29123 12.578 -8.95322
232 1 11.0042 7.85568 14.1613 -8.94107
233 1 12.5853 6.27333 12.5852 -8.9643
234 1 14.1755 7.83798 14.1759 -8.9023
235 1 15.7282 6.28564 12.5798 -8.94945
236 1 17.3031 7.85888 14.1549 -8.95223
237 1 18.8702 6.28867 12.5795 -8.94945
238 1 20.442 7.86141 14.1525 -8.95088
239 1 22.0119 9.43407 12.58 -8.95149
240 1 3.13356 9.43182 12.5832 -8.9556
241 1 6.24668 9.39563 12.6222 -8.82286
242 1 9.43595 9.43018 12.5713 -8.63353
243 1 12.6496 9.36075 12.6536 -8.70694
244 1 15.7419 9.42905 12.5856 -8.95996
245 1 18.8726 9.43388 12.58 -8.95284
246 1 -0.000109247 6.12199e-16 15.7243 -8.94961
247 1 1.57212 1.57211 17.297 -8.94938
248 1 3.14452 -4.10609e-16 15.7246 -8.94985
249 1 4.71724 1.5722 17.2969 -8.94974
250 1 6.28973 2.59628e-16 15.7245 -8.94958
251 1 7.86203 1.57211 17.297 -8.94946
252 1 9.43451 3.76253e-16 15.7246 -8.94972
253 1 11.007 1.57207 17.297 -8.9495
254 1 12.5794 8.21404e-16 15.7245 -8.94961
255 1 14.1518 1.57211 17.2969 -8.94963
256 1 15.7245 1.09923e-15 15.7245 -8.95016
257 1 17.297 1.57198 17.297 -8.94956
258 1 18.8692 1.83381e-15 15.7243 -8.94965
259 1 20.4415 1.57229 17.2967 -8.94967
260 1 -0.000301255 3.14445 15.7245 -8.94959
261 1 1.57155 4.7163 17.2977 -8.94836
262 1 3.14377 3.14331 15.7254 -8.94889
263 1 4.71679 4.71633 17.2979 -8.95001
264 1 6.28981 3.144 15.7248 -8.9498
265 1 7.86193 4.7163 17.2977 -8.94856
266 1 9.43442 3.1436 15.7251 -8.94929
267 1 11.0067 4.71613 17.2978 -8.94871
268 1 12.5792 3.14361 15.7248 -8.9495
269 1 14.1521 4.71593 17.2979 -8.94988
270 1 15.7253 3.14284 15.7253 -8.94982
271 1 17.2983 4.71548 17.2984 -8.94682
272 1 18.8694 3.1444 15.7244 -8.94976
273 1 20.4417 4.71676 17.2971 -8.94948
274 1 22.0132 6.2889 15.7251 -8.94995
275 1 1.57169 7.86176 17.2976 -8.94933
276 1 3.14111 6.28601 15.7283 -8.94453
277 1 4.71611 7.86103 17.3 -8.95179
278 1 6.28876 6.28739 15.7279 -8.95088
279 1 7.86283 7.86182 17.2985 -8.95205
280 1 9.43387 6.28695 15.7273 -8.9431
281 1 11.0053 7.86118 17.2994 -8.95108
282 1 12.5795 6.28607 15.7282 -8.94923
283 1 14.1542 7.85937 17.3028 -8.95291
284 1 15.731 6.28264 15.7311 -8.93817
285 1 17.2981 7.86143 17.2982 -8.94929
286 1 18.8709 6.28842 15.7254 -8.94992
287 1 20.4417 7.86191 17.2972 -8.9494
288 1 -0.000667098 9.43428 15.7252 -8.94927
289 1 3.14213 9.43366 15.7273 -8.94757
290 1 6.28786 9.43398 15.732 -8.96143
291 1 9.43444 9.4377 15.72 -8.95072
292 1 12.5836 9.4312 15.74 -8.96591
293 1 15.729 9.43307 15.7294 -8.94706
294 1 18.8706 9.4342 15.7254 -8.94914
295 1 22.0138 6.25997e-16 18.8692 -8.94948
296 1 1.57236 1.57232 20.4415 -8.94959
297 1 3.14481 -9.96882e-16 18.8691 -8.94971
298 1 4.71723 1.57234 20.4415 -8.94957
299 1 6.28964 -2.67518e-16 18.8692 -8.94954
300 1 7.86207 1.5723 20.4415 -8.94961
301 1 9.43451 -5.03447e-16 18.8692 -8.94961
302 1 11.007 1.57229 20.4415 -8.94961
303 1 12.5794 1.10349e-15 18.8692 -8.94955
304 1 14.1518 1.57232 20.4415 -8.94957
305 1 15.7242 6.10276e-16 18.8692 -8.94965
306 1 17.2967 1.57231 20.4415 -8.94969
307 1 18.8692 1.81722e-15 18.8692 -8.94951
308 1 20.4415 1.57232 20.4415 -8.94934
309 1 22.0138 3.14458 18.8693 -8.94928
310 1 1.57224 4.71709 20.4417 -8.94968
311 1 3.14466 3.14454 18.8694 -8.94971
312 1 4.71711 4.71701 20.4415 -8.94985
313 1 6.28961 3.14454 18.8693 -8.94937
314 1 7.86197 4.71685 20.4416 -8.94943
315 1 9.43447 3.14442 18.8694 -8.94959
316 1 11.0069 4.71682 20.4417 -8.94947
317 1 12.5794 3.14447 18.8694 -8.94939
318 1 14.1518 4.71691 20.4416 -8.94968
319 1 15.7244 3.14445 18.8694 -8.94977
320 1 17.2971 4.71681 20.4418 -8.94954
321 1 18.8694 3.14442 18.8694 -8.94893
322 1 20.4416 4.71717 20.4416 -8.94967
323 1 -0.000117373 6.28955 18.8694 -8.94961
324 1 1.57221 7.86202 20.4417 -8.94953
325 1 3.14432 6.28919 18.8701 -8.94997
326 1 4.71707 7.86202 20.442 -8.95025
327 1 6.28966 6.28932 18.8699 -8.95018
328 1 7.86206 7.86193 20.4416 -8.95015
329 1 9.43426 6.2888 18.8702 -8.94931
330 1 11.0066 7.86177 20.4417 -8.95007
331 1 12.5791 6.28906 18.8702 -8.94975
332 1 14.1522 7.86162 20.4422 -8.95099
333 1 15.7253 6.28855 18.8709 -8.95007
334 1 17.2971 7.86192 20.4418 -8.94944
335 1 18.8694 6.28945 18.8695 -8.94963
336 1 20.4416 7.86205 20.4416 -8.9496
337 1 22.0138 9.43448 18.8694 -8.94958
338 1 3.14425 9.43437 18.8701 -8.94935
339 1 6.28968 9.43468 18.8705 -8.95159
45 1 6.28954 9.43465 22.0136 -8.94992
5 1 6.28965 5.75053e-16 22.0138 -8.94961
9 1 12.5794 3.20774e-16 22.0138 -8.94961
39 1 15.7248 6.28907 22.0134 -8.95003
15 1 22.0139 3.14473 22.0138 -8.94961
17 1 3.14465 3.14461 22.0137 -8.94955
33 1 6.28942 6.28935 22.0132 -8.95029
23 1 12.5794 3.14456 22.0137 -8.94949
31 1 3.14464 6.28959 22.0138 -8.94996
27 1 18.8693 3.14462 22.0138 -8.94936
29 1 22.0139 6.28963 22.0138 -8.94956
1 1 22.0139 1.39297e-15 22.0139 -8.94948
13 1 18.8691 1.41945e-15 22.0138 -8.94952
21 1 9.43452 3.14454 22.0137 -8.94957
43 1 22.0138 9.4345 22.0138 -8.94961
49 1 18.8693 9.43448 22.0138 -8.94959
344 1 1.57209 11.007 1.57199 -8.94958
345 1 4.71665 11.007 1.57135 -8.94988
346 1 7.86202 11.007 1.57207 -8.94724
347 1 11.0067 11.007 1.57037 -8.94896
348 1 14.1533 11.007 1.56959 -8.94951
349 1 17.2975 11.007 1.57168 -8.94953
350 1 20.4416 11.007 1.57216 -8.94958
538 1 17.297 20.4418 11.0069 -8.94956
352 1 1.57214 14.1519 1.57204 -8.94943
353 1 3.14452 12.5794 -0.000164778 -8.94965
354 1 4.71696 14.1517 1.57154 -8.95026
688 3 10.2337 11.007 9.53308 2.25222
356 1 7.86178 14.1522 1.57023 -8.95198
511 1 18.8693 18.8695 9.43446 -8.94955
358 1 11.0066 14.1525 1.57025 -8.95044
510 1 15.725 18.8703 9.43433 -8.94938
360 1 14.153 14.153 1.56976 -8.95115
361 1 15.7249 12.5796 -0.0005014 -8.94947
362 1 17.2974 14.1522 1.57169 -8.94939
532 1 20.4415 17.2973 11.007 -8.94949
364 1 20.4416 14.1519 1.57218 -8.94954
509 1 12.5794 18.8703 9.43468 -8.95011
366 1 1.57214 17.2969 1.57204 -8.94984
508 1 9.43458 18.8691 9.43483 -8.94493
368 1 4.71661 17.2974 1.57125 -8.94949
507 1 6.28854 18.8728 9.43481 -8.95126
370 1 7.86194 17.2974 1.57149 -8.94919
371 1 9.43437 15.7248 -0.000587759 -8.94971
372 1 11.007 17.2974 1.57157 -8.94929
373 1 12.5794 15.7247 -0.000506273 -8.9497
374 1 14.1521 17.2973 1.57168 -8.94977
506 1 3.14372 18.8706 9.43444 -8.94935
376 1 17.2974 17.2974 1.57171 -8.94876
505 1 22.0136 18.8695 9.4345 -8.94953
378 1 20.4416 17.2968 1.57222 -8.94963
504 1 18.8701 15.7253 9.43427 -8.94922
380 1 1.57222 20.4416 1.57219 -8.94934
503 1 15.7272 15.7276 9.43354 -8.94555
382 1 4.71716 20.4417 1.57219 -8.94966
502 1 12.5793 15.7281 9.43356 -8.95517
384 1 7.86208 20.4417 1.57217 -8.94957
531 1 17.2978 17.298 11.0068 -8.949
386 1 11.007 20.4417 1.57216 -8.94959
501 1 9.42999 15.7147 9.43619 -9.0092
388 1 14.1519 20.4417 1.57223 -8.94953
500 1 6.28085 15.738 9.43393 -8.95531
390 1 17.2968 20.4417 1.57222 -8.94953
499 1 3.13975 15.7282 9.43374 -8.94727
392 1 20.4415 20.4416 1.57232 -8.94948
393 1 1.57123 11.007 4.71596 -8.94941
394 1 4.7147 11.007 4.7135 -8.94601
395 1 7.86421 11.007 4.72093 -8.93697
396 1 11.0095 11.007 4.71304 -8.98754
397 1 14.1596 11.007 4.70846 -8.94292
398 1 17.2996 11.007 4.71541 -8.9492
399 1 20.4419 11.007 4.71662 -8.94973
400 1 -0.000188775 12.5794 3.14434 -8.94953
401 1 1.57137 14.152 4.71618 -8.94948
402 1 3.14391 12.5795 3.14345 -8.94888
403 1 4.71506 14.1524 4.71348 -8.95377
404 1 6.28947 12.5785 3.14307 -8.95089
405 1 7.85809 14.1568 4.70689 -8.95613
406 1 9.43409 12.5795 3.14277 -8.94909
407 1 11.0066 14.1549 4.70937 -8.95381
408 1 12.5815 12.5805 3.13725 -8.95699
409 1 14.1611 14.1607 4.70665 -8.9379
410 1 15.7267 12.5803 3.14213 -8.94821
411 1 17.2996 14.1532 4.71551 -8.95037
412 1 18.8699 12.5795 3.14416 -8.94941
413 1 20.4419 14.1521 4.71672 -8.94982
414 1 22.0138 15.7244 3.14445 -8.94974
415 1 1.57068 17.2981 4.71582 -8.94833
416 1 3.1439 15.7247 3.14345 -8.95065
417 1 4.71393 17.3003 4.7135 -8.94442
418 1 6.28783 15.7263 3.14083 -8.95014
419 1 7.86156 17.2995 4.71493 -8.94859
420 1 9.43431 15.7262 3.14191 -8.94809
421 1 11.0075 17.2991 4.71524 -8.94737
422 1 12.5799 15.726 3.14219 -8.94986
423 1 14.1539 17.3002 4.71498 -8.94913
424 1 15.727 15.727 3.14179 -8.94644
425 1 17.2978 17.2978 4.71641 -8.94906
426 1 18.8699 15.7247 3.14422 -8.94967
427 1 20.4414 17.2971 4.71686 -8.94968
428 1 22.0135 18.8694 3.14447 -8.94923
429 1 1.57207 20.4418 4.71699 -8.94966
430 1 3.14401 18.8699 3.14388 -8.9484
431 1 4.71675 20.4423 4.71662 -8.94995
432 1 6.28943 18.8699 3.14404 -8.94956
433 1 7.86209 20.4422 4.71668 -8.94947
434 1 9.43458 18.8699 3.14406 -8.94951
435 1 11.0072 20.4422 4.71669 -8.9494
436 1 12.5796 18.8699 3.14421 -8.94916
437 1 14.1521 20.4421 4.71698 -8.95031
438 1 15.7249 18.8701 3.14414 -8.94939
439 1 17.2968 20.4418 4.71714 -8.94971
440 1 18.8693 18.8694 3.14458 -8.94947
441 1 20.4415 20.4416 4.7172 -8.94962
442 1 1.56916 11.007 7.86026 -8.94762
443 1 4.71132 11.007 7.85713 -8.93586
444 1 7.87536 11.007 7.8931 -8.91528
445 1 11.0707 11.007 7.69465 -8.22673
446 1 14.1654 11.007 7.85281 -8.95997
447 1 17.301 11.007 7.86114 -8.95061
448 1 20.4417 11.007 7.86155 -8.94987
449 1 -0.000826133 12.5795 6.28881 -8.94946
450 1 1.56745 14.1536 7.86022 -8.95272
451 1 3.14168 12.5794 6.28681 -8.94798
452 1 4.69744 14.1663 7.84812 -8.94006
453 1 6.28665 12.5766 6.28342 -8.96382
454 1 7.82281 14.1916 7.8229 -8.83978
455 1 9.42274 12.5946 6.28603 -8.93127
456 1 11.0228 14.1664 7.83416 -8.88889
457 1 12.6092 12.6027 6.25665 -8.89617
458 1 14.1641 14.162 7.85369 -8.94038
459 1 15.7326 12.5816 6.28549 -8.95461
460 1 17.3004 14.1536 7.86109 -8.95094
461 1 18.871 12.5797 6.28891 -8.95073
462 1 20.4414 14.1524 7.86163 -8.95056
463 1 22.0125 15.7251 6.28881 -8.9503
464 1 1.57092 17.298 7.86163 -8.9491
465 1 3.13841 15.7291 6.28474 -8.94593
466 1 4.71408 17.3018 7.8603 -8.95019
467 1 6.27779 15.737 6.27688 -8.92765
468 1 7.86095 17.3047 7.86065 -8.96035
469 1 9.43427 15.7324 6.28381 -8.94534
470 1 11.0058 17.2993 7.86196 -8.95454
471 1 12.5852 15.7339 6.28259 -8.94814
472 1 14.1528 17.2996 7.86176 -8.95091
473 1 15.7284 15.728 6.28684 -8.94733
474 1 17.2976 17.2978 7.86179 -8.94896
475 1 18.8701 15.7251 6.28911 -8.94995
476 1 20.4414 17.2972 7.86193 -8.94942
477 1 -0.000342269 18.8695 6.28951 -8.94953
478 1 1.57204 20.4418 7.86201 -8.94954
479 1 3.14373 18.8706 6.28891 -8.94979
480 1 4.71668 20.4426 7.86187 -8.95002
481 1 6.28869 18.8723 6.28834 -8.95149
482 1 7.86226 20.4429 7.86204 -8.95152
483 1 9.43488 18.8717 6.28846 -8.9498
484 1 11.0069 20.4421 7.86218 -8.94991
485 1 12.5796 18.8711 6.28933 -8.95192
486 1 14.152 20.4421 7.8621 -8.94998
487 1 15.7248 18.8702 6.28944 -8.94994
488 1 17.2969 20.4418 7.86201 -8.94951
489 1 18.8693 18.8694 6.28956 -8.94951
490 1 20.4415 20.4416 7.86206 -8.9496
491 1 22.0115 12.5798 9.43402 -8.95102
492 1 3.13342 12.5821 9.43131 -8.95519
493 1 6.24879 12.6244 9.39711 -8.86287
494 1 9.36797 12.8173 9.40864 -7.80753
495 1 12.5961 12.6029 9.39953 -8.83317
496 1 15.7314 12.5819 9.43188 -8.94777
497 1 18.8711 12.5801 9.43403 -8.9496
498 1 -0.00131048 15.7252 9.43432 -8.94951
526 1 1.57094 17.298 11.0071 -8.94922
527 1 4.71384 17.3013 11.0079 -8.9472
534 1 4.71656 20.4426 11.0072 -8.94964
389 1 15.7243 18.8693 -0.000130233 -8.9497
377 1 18.8693 15.7244 -0.00010629 -8.94959
383 1 6.2896 18.8693 -0.000180612 -8.9495
512 1 1.56637 11.007 11.0072 -8.95213
513 1 4.69495 11.007 11.0071 -9.01896
514 1 7.50023 11.007 11.0197 -7.88673
515 1 11.425 11.007 11.1769 -7.1403
516 1 14.1812 11.007 11.0158 -9.01992
517 1 17.3041 11.007 11.0066 -8.95457
518 1 20.4418 11.007 11.0068 -8.95073
519 1 1.56768 14.1535 11.0071 -8.95103
520 1 4.70046 14.1603 11.0088 -8.95149
521 1 7.81752 14.1677 11.0365 -8.866
522 1 11.0328 14.1452 11.0241 -8.90026
523 1 14.1633 14.1581 11.0045 -8.94782
524 1 17.3007 14.1538 11.0063 -8.9495
525 1 20.4415 14.1526 11.0069 -8.95021
687 3 9.45952 11.007 10.9521 2.28269
391 1 18.8693 18.8693 22.0138 -8.94936
528 1 7.86089 17.3006 11.0079 -8.95366
529 1 11.0059 17.2963 11.0063 -8.94706
530 1 14.1533 17.2997 11.0061 -8.94808
686 1 20.4415 20.4416 20.4415 -8.94934
685 1 18.8694 18.8695 18.8694 -8.94893
533 1 1.57202 20.4418 11.007 -8.94956
387 1 12.5794 18.8693 22.0137 -8.94949
535 1 7.86238 20.4425 11.007 -8.95015
536 1 11.0068 20.4418 11.0069 -8.94875
537 1 14.1522 20.4422 11.0068 -8.94968
684 1 17.2967 20.4416 20.4415 -8.94969
539 1 20.4415 20.4416 11.007 -8.94961
540 1 1.56882 11.007 14.1539 -8.94918
541 1 4.7068 11.007 14.1598 -8.94054
542 1 7.85359 11.007 14.1386 -8.9528
543 1 11.0235 11.007 14.148 -8.98651
544 1 14.1666 11.007 14.1647 -8.93813
545 1 17.3023 11.007 14.1548 -8.9481
546 1 20.442 11.007 14.1527 -8.95008
547 1 22.0119 12.5798 12.58 -8.95149
548 1 1.56879 14.1535 14.1538 -8.95103
549 1 3.13356 12.5821 12.5832 -8.9556
550 1 4.70398 14.1644 14.1655 -8.92798
551 1 6.24668 12.6183 12.6222 -8.82286
552 1 7.86239 14.1561 14.16 -8.95181
553 1 9.43595 12.5837 12.5713 -8.63353
554 1 11.0042 14.1582 14.1613 -8.94107
555 1 12.6496 12.6531 12.6536 -8.70694
556 1 14.1755 14.1759 14.1759 -8.9023
557 1 15.7419 12.5849 12.5856 -8.95996
558 1 17.3031 14.155 14.1549 -8.95223
559 1 18.8726 12.58 12.58 -8.95284
560 1 20.442 14.1525 14.1525 -8.95088
561 1 -0.0011609 15.7251 12.5797 -8.94971
562 1 1.57103 17.2979 14.1526 -8.94947
563 1 3.13993 15.728 12.5815 -8.94897
564 1 4.71376 17.3022 14.1556 -8.94779
565 1 6.27882 15.7399 12.5897 -8.94664
566 1 7.86301 17.2985 14.1529 -8.95016
567 1 9.43503 15.7227 12.578 -8.95322
568 1 11.0058 17.2993 14.1532 -8.94928
569 1 12.5853 15.7406 12.5852 -8.9643
570 1 14.1546 17.3032 14.1548 -8.95208
571 1 15.7282 15.7283 12.5798 -8.94945
572 1 17.2979 17.2981 14.1522 -8.94988
573 1 18.8702 15.7252 12.5795 -8.94945
574 1 20.4415 17.2972 14.152 -8.94958
575 1 22.0136 18.8695 12.5795 -8.94949
576 1 1.57208 20.4418 14.152 -8.94954
577 1 3.14378 18.8706 12.5798 -8.94915
578 1 4.71679 20.4426 14.1524 -8.95058
579 1 6.28901 18.8725 12.5803 -8.95315
580 1 7.86231 20.442 14.1521 -8.9495
581 1 9.43481 18.8697 12.5797 -8.94815
582 1 11.0069 20.4422 14.1522 -8.94968
583 1 12.5793 18.872 12.5793 -8.95429
584 1 14.1521 20.4426 14.1521 -8.95108
585 1 15.7249 18.8704 12.5793 -8.94949
586 1 17.2969 20.4418 14.1518 -8.94963
587 1 18.8693 18.8695 12.5794 -8.94946
588 1 20.4415 20.4416 14.1518 -8.94958
589 1 1.57162 11.007 17.2977 -8.94954
590 1 4.71556 11.007 17.2997 -8.94883
591 1 7.86246 11.007 17.2957 -8.94426
592 1 11.0061 11.007 17.2983 -8.94584
593 1 14.1546 11.007 17.302 -8.94754
594 1 17.2982 11.007 17.2983 -8.94915
595 1 20.4417 11.007 17.2972 -8.94951
596 1 -0.000667098 12.5796 15.7252 -8.94927
597 1 1.57169 14.1521 17.2976 -8.94933
598 1 3.14213 12.5802 15.7273 -8.94757
599 1 4.71611 14.1529 17.3 -8.95179
600 1 6.28786 12.5799 15.732 -8.96143
601 1 7.86283 14.1521 17.2985 -8.95205
602 1 9.43444 12.5762 15.72 -8.95072
603 1 11.0053 14.1527 17.2994 -8.95108
604 1 12.5836 12.5827 15.74 -8.96591
605 1 14.1542 14.1545 17.3028 -8.95291
606 1 15.729 12.5808 15.7294 -8.94706
607 1 17.2981 14.1525 17.2982 -8.94929
608 1 18.8706 12.5797 15.7254 -8.94914
609 1 20.4417 14.152 17.2972 -8.9494
610 1 22.0132 15.725 15.7251 -8.94995
611 1 1.57155 17.2976 17.2977 -8.94836
612 1 3.14111 15.7279 15.7283 -8.94453
613 1 4.71679 17.2976 17.2979 -8.95001
614 1 6.28876 15.7265 15.7279 -8.95088
615 1 7.86193 17.2976 17.2977 -8.94856
616 1 9.43387 15.727 15.7273 -8.9431
617 1 11.0067 17.2978 17.2978 -8.94871
618 1 12.5795 15.7278 15.7282 -8.94923
619 1 14.1521 17.298 17.2979 -8.94988
620 1 15.731 15.7313 15.7311 -8.93817
621 1 17.2983 17.2984 17.2984 -8.94682
622 1 18.8709 15.7255 15.7254 -8.94992
623 1 20.4417 17.2971 17.2971 -8.94948
624 1 -0.000301255 18.8694 15.7245 -8.94959
625 1 1.57212 20.4418 17.297 -8.94938
626 1 3.14377 18.8706 15.7254 -8.94889
627 1 4.71724 20.4417 17.2969 -8.94974
628 1 6.28981 18.8699 15.7248 -8.9498
629 1 7.86203 20.4418 17.297 -8.94946
630 1 9.43442 18.8703 15.7251 -8.94929
631 1 11.007 20.4418 17.297 -8.9495
632 1 12.5792 18.8703 15.7248 -8.9495
633 1 14.1518 20.4418 17.2969 -8.94963
634 1 15.7253 18.8711 15.7253 -8.94982
635 1 17.297 20.4419 17.297 -8.94956
636 1 18.8694 18.8695 15.7244 -8.94976
637 1 20.4415 20.4416 17.2967 -8.94967
638 1 1.57218 11.007 20.4417 -8.94958
639 1 4.7169 11.007 20.442 -8.94997
640 1 7.86212 11.007 20.4415 -8.94859
641 1 11.0064 11.007 20.4417 -8.94916
642 1 14.1524 11.007 20.4422 -8.95015
643 1 17.2972 11.007 20.4418 -8.94953
644 1 20.4416 11.007 20.4416 -8.94961
645 1 22.0138 12.5794 18.8694 -8.94958
646 1 1.57221 14.1519 20.4417 -8.94953
647 1 3.14425 12.5795 18.8701 -8.94935
648 1 4.71707 14.1519 20.442 -8.95025
649 1 6.28968 12.5792 18.8705 -8.95159
650 1 7.86206 14.152 20.4416 -8.95015
651 1 9.43415 12.5793 18.869 -8.94754
652 1 11.0066 14.1521 20.4417 -8.95007
653 1 12.5794 12.5795 18.8721 -8.95338
654 1 14.1522 14.1523 20.4422 -8.95099
655 1 15.7253 12.5797 18.8707 -8.94919
656 1 17.2971 14.152 20.4418 -8.94944
657 1 18.8695 12.5795 18.8695 -8.94948
658 1 20.4416 14.1518 20.4416 -8.9496
659 1 -0.000117373 15.7244 18.8694 -8.94961
660 1 1.57224 17.2968 20.4417 -8.94968
661 1 3.14432 15.7247 18.8701 -8.94997
662 1 4.71711 17.2969 20.4415 -8.94985
663 1 6.28966 15.7246 18.8699 -8.95018
664 1 7.86197 17.2971 20.4416 -8.94943
665 1 9.43426 15.7251 18.8702 -8.94931
666 1 11.0069 17.2971 20.4417 -8.94947
667 1 12.5791 15.7248 18.8702 -8.94975
668 1 14.1518 17.297 20.4416 -8.94968
669 1 15.7253 15.7254 18.8709 -8.95007
670 1 17.2971 17.2971 20.4418 -8.94954
671 1 18.8694 15.7245 18.8695 -8.94963
672 1 20.4416 17.2967 20.4416 -8.94967
673 1 22.0138 18.8693 18.8693 -8.94928
674 1 1.57236 20.4416 20.4415 -8.94959
675 1 3.14466 18.8694 18.8694 -8.94971
676 1 4.71723 20.4416 20.4415 -8.94957
677 1 6.28961 18.8694 18.8693 -8.94937
678 1 7.86207 20.4416 20.4415 -8.94961
679 1 9.43447 18.8695 18.8694 -8.94959
680 1 11.007 20.4416 20.4415 -8.94961
681 1 12.5794 18.8694 18.8694 -8.94939
682 1 14.1518 20.4416 20.4415 -8.94957
683 1 15.7244 18.8695 18.8694 -8.94977
355 1 6.28954 12.5793 22.0136 -8.94992
357 1 9.43425 12.5794 22.0132 -8.94905
359 1 12.5795 12.5795 22.0128 -8.9515
365 1 22.0139 15.7243 22.0138 -8.94956
367 1 3.14464 15.7243 22.0138 -8.94996
369 1 6.28942 15.7246 22.0132 -8.95029
375 1 15.7248 15.7248 22.0134 -8.95003
381 1 3.14465 18.8693 22.0137 -8.94955
379 1 22.0139 18.8692 22.0138 -8.94961
351 1 22.0138 12.5794 22.0138 -8.94961
363 1 18.8693 12.5794 22.0138 -8.94959
385 1 9.43452 18.8694 22.0137 -8.94957
