ITEM: TIMESTEP
38
ITEM: NUMBER OF ATOMS
688
ITEM: BOX BOUNDS pp pp pp
0.0000000000000000e+00 2.2013900999999997e+01
0.0000000000000000e+00 2.2013900999999997e+01
0.0000000000000000e+00 2.2013900999999997e+01
ITEM: ATOMS id type x y z c_pot
189 1 20.4415 4.71726 11.007 -8.94963
2 1 1.57242 1.57242 1.57242 -8.94963
175 1 18.8691 9.43453 9.43453 -8.94967
4 1 4.71726 1.57242 1.57242 -8.94963
174 1 15.7244 9.43446 9.43449 -8.95039
6 1 7.86211 1.57242 1.57242 -8.94963
7 1 9.43453 -1.49078e-16 2.58603e-10 -8.94963
8 1 11.007 1.57242 1.57242 -8.94963
173 1 12.5847 9.42943 9.43198 -8.88079
10 1 14.1518 1.57242 1.57242 -8.94963
172 1 9.38976 9.33504 9.42551 -7.72131
12 1 17.2966 1.57242 1.57242 -8.94963
188 1 17.2966 4.71726 11.007 -8.94964
14 1 20.4415 1.57242 1.57242 -8.94963
171 1 6.28596 9.43151 9.43168 -8.91906
16 1 1.57242 4.71726 1.57242 -8.94963
170 1 3.14471 9.43448 9.43448 -8.95008
18 1 4.71726 4.71726 1.57242 -8.94963
169 1 22.0139 9.43453 9.43453 -8.94965
20 1 7.86211 4.71726 1.57242 -8.94963
183 1 1.57242 4.71726 11.007 -8.94963
22 1 11.007 4.71726 1.57242 -8.94963
168 1 18.8691 6.28969 9.43453 -8.94963
24 1 14.1518 4.71726 1.57242 -8.94964
167 1 15.7242 6.28969 9.43453 -8.94976
26 1 17.2966 4.71726 1.57242 -8.94963
166 1 12.5793 6.28961 9.43453 -8.9516
28 1 20.4415 4.71726 1.57242 -8.94963
165 1 9.43449 6.2869 9.43453 -8.96784
30 1 1.57242 7.86211 1.57242 -8.94963
164 1 6.28973 6.28967 9.43453 -8.95224
32 1 4.71726 7.86211 1.57242 -8.94963
163 1 3.14485 6.28969 9.43453 -8.94971
34 1 7.86211 7.86211 1.57242 -8.94963
35 1 9.43453 6.28969 7.86196e-08 -8.94963
36 1 11.007 7.86211 1.57242 -8.94964
37 1 12.5794 6.28969 1.15175e-07 -8.94963
38 1 14.1518 7.86211 1.57242 -8.94963
162 1 1.54553e-07 6.28969 9.43453 -8.94963
40 1 17.2966 7.86211 1.57242 -8.94964
161 1 18.8691 3.14484 9.43453 -8.94963
42 1 20.4415 7.86211 1.57242 -8.94963
181 1 17.2966 1.57242 11.007 -8.94963
44 1 3.14484 9.43453 3.7365e-09 -8.94963
160 1 15.7242 3.14484 9.43453 -8.94963
159 1 12.5794 3.14484 9.43453 -8.94968
158 1 9.43453 3.14478 9.43453 -8.95036
48 1 15.7242 9.43453 1.15444e-07 -8.94963
157 1 6.28969 3.14484 9.43453 -8.94965
50 1 22.0139 4.57495e-16 3.14484 -8.94963
51 1 1.57242 1.57242 4.71726 -8.94963
52 1 3.14484 4.78813e-16 3.14484 -8.94963
53 1 4.71726 1.57242 4.71726 -8.94963
54 1 6.28969 2.00708e-16 3.14484 -8.94963
55 1 7.86211 1.57242 4.71726 -8.94963
56 1 9.43453 -7.39427e-17 3.14484 -8.94963
57 1 11.007 1.57242 4.71726 -8.94963
58 1 12.5794 9.85115e-17 3.14484 -8.94963
59 1 14.1518 1.57242 4.71726 -8.94963
60 1 15.7242 -8.82781e-17 3.14484 -8.94963
61 1 17.2966 1.57242 4.71726 -8.94963
62 1 18.8691 8.41575e-18 3.14484 -8.94963
63 1 20.4415 1.57242 4.71726 -8.94963
64 1 22.0139 3.14484 3.14484 -8.94963
65 1 1.57242 4.71726 4.71726 -8.94963
66 1 3.14484 3.14484 3.14484 -8.94963
67 1 4.71726 4.71726 4.71726 -8.9496
68 1 6.28969 3.14484 3.14484 -8.94964
69 1 7.86211 4.71727 4.71727 -8.94973
70 1 9.43453 3.14484 3.14484 -8.94963
71 1 11.0069 4.71727 4.71727 -8.94966
72 1 12.5794 3.14484 3.14484 -8.94963
73 1 14.1518 4.71726 4.71726 -8.94963
74 1 15.7242 3.14484 3.14484 -8.94963
75 1 17.2966 4.71726 4.71726 -8.94963
76 1 18.8691 3.14484 3.14484 -8.94963
77 1 20.4415 4.71726 4.71726 -8.94963
78 1 22.0139 6.28969 3.14484 -8.94963
79 1 1.57242 7.86211 4.71726 -8.94964
80 1 3.14484 6.28969 3.14484 -8.94963
81 1 4.71726 7.86211 4.71726 -8.94969
82 1 6.28968 6.28968 3.14484 -8.94963
83 1 7.86208 7.86208 4.71719 -8.94997
84 1 9.43453 6.28969 3.14484 -8.94965
85 1 11.0069 7.86215 4.71729 -8.95101
86 1 12.5794 6.28969 3.14485 -8.94972
87 1 14.1519 7.86204 4.71719 -8.94861
88 1 15.7242 6.28968 3.14484 -8.9496
89 1 17.2966 7.86211 4.71726 -8.94964
90 1 18.8691 6.28969 3.14484 -8.94963
91 1 20.4415 7.86211 4.71726 -8.94963
92 1 -1.3551e-09 9.43453 3.14484 -8.94963
93 1 3.14484 9.43453 3.14484 -8.94964
94 1 6.28969 9.43453 3.14484 -8.94968
95 1 9.4345 9.4345 3.14479 -8.94937
96 1 12.5794 9.43449 3.14476 -8.94977
97 1 15.7242 9.43453 3.14485 -8.94971
98 1 18.8691 9.43453 3.14484 -8.94963
99 1 22.0139 -2.98392e-16 6.28969 -8.94963
100 1 1.57242 1.57242 7.86211 -8.94963
101 1 3.14484 -1.97188e-16 6.28969 -8.94963
102 1 4.71726 1.57242 7.86211 -8.94963
103 1 6.28969 2.35267e-16 6.28969 -8.94963
104 1 7.86211 1.57242 7.86211 -8.94965
105 1 9.43453 8.85433e-17 6.28969 -8.94963
106 1 11.007 1.57242 7.86211 -8.94964
107 1 12.5794 -4.74395e-17 6.28969 -8.94963
108 1 14.1518 1.57242 7.86211 -8.94963
109 1 15.7242 2.89835e-16 6.28969 -8.94963
110 1 17.2966 1.57242 7.86211 -8.94963
111 1 18.8691 5.89029e-16 6.28969 -8.94963
112 1 20.4415 1.57242 7.86211 -8.94963
113 1 5.91687e-09 3.14484 6.28969 -8.94963
114 1 1.57242 4.71726 7.86211 -8.94964
115 1 3.14484 3.14484 6.28969 -8.94964
116 1 4.71727 4.71727 7.86211 -8.94973
117 1 6.28968 3.14484 6.28968 -8.94962
118 1 7.86207 4.71717 7.86207 -8.94982
119 1 9.43453 3.14484 6.28969 -8.94964
120 1 11.007 4.71721 7.86207 -8.94936
121 1 12.5794 3.14484 6.28968 -8.94963
122 1 14.1518 4.71726 7.86211 -8.94969
123 1 15.7242 3.14484 6.28969 -8.94963
124 1 17.2966 4.71726 7.86211 -8.94964
125 1 18.8691 3.14484 6.28969 -8.94963
126 1 20.4415 4.71726 7.86211 -8.94963
127 1 22.0139 6.28969 6.28969 -8.94963
128 1 1.57242 7.86211 7.86211 -8.94963
129 1 3.14484 6.28968 6.28968 -8.9496
130 1 4.71712 7.86201 7.86201 -8.94881
131 1 6.28961 6.28961 6.28961 -8.94851
132 1 7.85953 7.8596 7.85947 -8.91243
133 1 9.43454 6.28972 6.28974 -8.95119
134 1 11.008 7.86129 7.86096 -8.93651
135 1 12.5794 6.28961 6.28966 -8.94986
136 1 14.1519 7.86197 7.86197 -8.9481
137 1 15.7242 6.28968 6.28968 -8.94963
138 1 17.2966 7.8621 7.8621 -8.94963
139 1 18.8691 6.28969 6.28969 -8.94963
140 1 20.4415 7.86211 7.86211 -8.94963
141 1 9.51229e-08 9.43453 6.28969 -8.94963
142 1 3.14484 9.43453 6.28969 -8.94973
143 1 6.28961 9.43446 6.28957 -8.95006
144 1 9.43372 9.43366 6.28894 -8.94279
145 1 12.5817 9.43223 6.28746 -8.91905
146 1 15.7243 9.43451 6.28967 -8.95013
147 1 18.8691 9.43453 6.28969 -8.94965
148 1 2.98975e-10 1.321e-16 9.43453 -8.94963
149 1 3.14484 -6.78515e-17 9.43453 -8.94963
150 1 6.28969 2.14834e-16 9.43453 -8.94963
151 1 9.43453 2.98329e-16 9.43453 -8.94966
152 1 12.5794 -2.67933e-16 9.43453 -8.94963
153 1 15.7242 4.04451e-16 9.43453 -8.94963
154 1 18.8691 3.70435e-16 9.43453 -8.94963
155 1 22.0139 3.14484 9.43453 -8.94963
156 1 3.14484 3.14484 9.43453 -8.94963
177 1 4.71726 1.57242 11.007 -8.94963
184 1 4.71727 4.71727 11.0069 -8.94969
3 1 3.14484 3.61752e-16 5.80956e-11 -8.94963
11 1 15.7242 5.55901e-16 1.14008e-10 -8.94963
41 1 18.8691 6.28969 2.42707e-09 -8.94963
19 1 6.28969 3.14484 3.23808e-09 -8.94963
25 1 15.7242 3.14484 2.24966e-09 -8.94963
176 1 1.57242 1.57242 11.007 -8.94963
47 1 12.5794 9.43453 22.0139 -8.94965
178 1 7.86211 1.57242 11.007 -8.94964
179 1 11.007 1.57242 11.007 -8.94963
180 1 14.1518 1.57242 11.007 -8.94963
343 1 18.8691 9.43453 18.8691 -8.94963
182 1 20.4415 1.57242 11.007 -8.94963
342 1 15.7242 9.43453 18.8691 -8.94963
46 1 9.43453 9.43453 22.0139 -8.94964
185 1 7.86207 4.71718 11.007 -8.94966
186 1 11.007 4.71721 11.007 -8.94922
187 1 14.1518 4.71726 11.007 -8.94966
341 1 12.5794 9.43453 18.8691 -8.94966
340 1 9.43453 9.43453 18.8691 -8.9497
190 1 1.57242 7.86211 11.007 -8.94965
191 1 4.71724 7.86213 11.007 -8.95232
192 1 7.85951 7.86001 11.0092 -8.91737
193 1 11.0081 7.86164 11.0078 -8.93841
194 1 14.1519 7.86204 11.007 -8.95145
195 1 17.2966 7.86211 11.007 -8.94963
196 1 20.4415 7.86211 11.007 -8.94963
197 1 22.0139 1.58589e-16 12.5794 -8.94963
198 1 1.57242 1.57242 14.1518 -8.94963
199 1 3.14484 -1.27273e-16 12.5794 -8.94963
200 1 4.71726 1.57242 14.1518 -8.94963
201 1 6.28969 3.72023e-16 12.5794 -8.94963
202 1 7.86211 1.57242 14.1518 -8.94964
203 1 9.43453 4.7229e-16 12.5794 -8.94963
204 1 11.007 1.57242 14.1518 -8.94963
205 1 12.5794 -2.02559e-16 12.5794 -8.94963
206 1 14.1518 1.57242 14.1518 -8.94963
207 1 15.7242 -1.0583e-16 12.5794 -8.94963
208 1 17.2966 1.57242 14.1518 -8.94963
209 1 18.8691 1.61173e-16 12.5794 -8.94963
210 1 20.4415 1.57242 14.1518 -8.94963
211 1 22.0139 3.14484 12.5794 -8.94963
212 1 1.57242 4.71726 14.1518 -8.94964
213 1 3.14484 3.14484 12.5794 -8.94963
214 1 4.71726 4.71726 14.1518 -8.94962
215 1 6.28968 3.14484 12.5794 -8.94964
216 1 7.86211 4.71726 14.1518 -8.94975
217 1 9.43453 3.14484 12.5794 -8.9497
218 1 11.007 4.71726 14.1518 -8.94968
219 1 12.5794 3.14484 12.5794 -8.94965
220 1 14.1518 4.71726 14.1518 -8.94966
221 1 15.7242 3.14484 12.5794 -8.94963
222 1 17.2966 4.71726 14.1518 -8.94964
223 1 18.8691 3.14484 12.5794 -8.94963
224 1 20.4415 4.71726 14.1518 -8.94963
225 1 1.1468e-07 6.28969 12.5794 -8.94963
226 1 1.57242 7.86211 14.1518 -8.94962
227 1 3.14484 6.28969 12.5794 -8.94972
228 1 4.71718 7.86202 14.1519 -8.94844
229 1 6.28963 6.28957 12.5794 -8.9494
230 1 7.86184 7.86179 14.1522 -8.9464
231 1 9.43454 6.28949 12.5793 -8.95337
232 1 11.0072 7.86186 14.1521 -8.94708
233 1 12.5794 6.28956 12.5794 -8.95084
234 1 14.152 7.86195 14.152 -8.94713
235 1 15.7242 6.28969 12.5794 -8.94975
236 1 17.2966 7.8621 14.1518 -8.94963
237 1 18.8691 6.28969 12.5794 -8.94963
238 1 20.4415 7.86211 14.1518 -8.94963
239 1 22.0139 9.43453 12.5794 -8.94965
240 1 3.14474 9.43448 12.5794 -8.94977
241 1 6.2872 9.43161 12.5823 -8.90861
242 1 9.43386 9.42499 12.5887 -8.66589
243 1 12.5843 9.42889 12.5848 -8.8599
244 1 15.7244 9.43447 12.5794 -8.95044
245 1 18.8691 9.43453 12.5794 -8.94966
246 1 1.4135e-10 1.67028e-16 15.7242 -8.94963
247 1 1.57242 1.57242 17.2966 -8.94963
248 1 3.14484 -3.9377e-16 15.7242 -8.94963
249 1 4.71726 1.57242 17.2966 -8.94963
250 1 6.28969 1.74322e-16 15.7242 -8.94963
251 1 7.86211 1.57242 17.2966 -8.94963
252 1 9.43453 2.31523e-16 15.7242 -8.94963
253 1 11.007 1.57242 17.2966 -8.94963
254 1 12.5794 2.95201e-16 15.7242 -8.94963
255 1 14.1518 1.57242 17.2966 -8.94963
256 1 15.7242 4.5469e-16 15.7242 -8.94963
257 1 17.2966 1.57242 17.2966 -8.94963
258 1 18.8691 6.72103e-16 15.7242 -8.94963
259 1 20.4415 1.57242 17.2966 -8.94963
260 1 2.03183e-09 3.14484 15.7242 -8.94963
261 1 1.57242 4.71726 17.2966 -8.94963
262 1 3.14484 3.14484 15.7242 -8.94963
263 1 4.71726 4.71726 17.2966 -8.94963
264 1 6.28969 3.14484 15.7242 -8.94963
265 1 7.86211 4.71727 17.2966 -8.94965
266 1 9.43453 3.14484 15.7242 -8.94963
267 1 11.007 4.71727 17.2966 -8.94965
268 1 12.5794 3.14484 15.7242 -8.94963
269 1 14.1518 4.71726 17.2966 -8.94964
270 1 15.7242 3.14484 15.7242 -8.94963
271 1 17.2966 4.71726 17.2966 -8.94963
272 1 18.8691 3.14484 15.7242 -8.94963
273 1 20.4415 4.71726 17.2966 -8.94963
274 1 22.0139 6.28969 15.7242 -8.94963
275 1 1.57242 7.86211 17.2966 -8.94964
276 1 3.14484 6.28968 15.7242 -8.9496
277 1 4.71726 7.86211 17.2966 -8.94965
278 1 6.28968 6.28968 15.7242 -8.94957
279 1 7.8621 7.8621 17.2966 -8.94967
280 1 9.43453 6.2897 15.7242 -8.9498
281 1 11.007 7.8621 17.2966 -8.94967
282 1 12.5794 6.28968 15.7242 -8.94967
283 1 14.1518 7.86211 17.2966 -8.94965
284 1 15.7242 6.28968 15.7242 -8.94956
285 1 17.2966 7.86211 17.2966 -8.94964
286 1 18.8691 6.28969 15.7242 -8.94963
287 1 20.4415 7.86211 17.2966 -8.94963
288 1 1.5672e-07 9.43453 15.7242 -8.94963
289 1 3.14485 9.43453 15.7242 -8.94972
290 1 6.28969 9.43453 15.7243 -8.95045
291 1 9.4345 9.43449 15.7245 -8.95178
292 1 12.5794 9.43449 15.7244 -8.95067
293 1 15.7242 9.43453 15.7242 -8.94977
294 1 18.8691 9.43453 15.7242 -8.94963
295 1 22.0139 2.11528e-16 18.8691 -8.94963
296 1 1.57242 1.57242 20.4415 -8.94963
297 1 3.14484 1.10943e-16 18.8691 -8.94963
298 1 4.71726 1.57242 20.4415 -8.94963
299 1 6.28969 1.299e-16 18.8691 -8.94963
300 1 7.86211 1.57242 20.4415 -8.94963
301 1 9.43453 -2.14914e-16 18.8691 -8.94963
302 1 11.007 1.57242 20.4415 -8.94963
303 1 12.5794 2.08534e-16 18.8691 -8.94963
304 1 14.1518 1.57242 20.4415 -8.94963
305 1 15.7242 4.30133e-16 18.8691 -8.94963
306 1 17.2966 1.57242 20.4415 -8.94963
307 1 18.8691 7.43455e-17 18.8691 -8.94963
308 1 20.4415 1.57242 20.4415 -8.94963
309 1 22.0139 3.14484 18.8691 -8.94963
310 1 1.57242 4.71726 20.4415 -8.94963
311 1 3.14484 3.14484 18.8691 -8.94963
312 1 4.71726 4.71726 20.4415 -8.94963
313 1 6.28969 3.14484 18.8691 -8.94963
314 1 7.86211 4.71726 20.4415 -8.94963
315 1 9.43453 3.14484 18.8691 -8.94963
316 1 11.007 4.71726 20.4415 -8.94963
317 1 12.5794 3.14484 18.8691 -8.94963
318 1 14.1518 4.71726 20.4415 -8.94963
319 1 15.7242 3.14484 18.8691 -8.94963
320 1 17.2966 4.71726 20.4415 -8.94963
321 1 18.8691 3.14484 18.8691 -8.94963
322 1 20.4415 4.71726 20.4415 -8.94963
323 1 3.0398e-09 6.28969 18.8691 -8.94963
324 1 1.57242 7.86211 20.4415 -8.94963
325 1 3.14484 6.28969 18.8691 -8.94963
326 1 4.71726 7.86211 20.4415 -8.94963
327 1 6.28969 6.28969 18.8691 -8.94963
328 1 7.86211 7.86211 20.4415 -8.94963
329 1 9.43453 6.28969 18.8691 -8.94963
330 1 11.007 7.86211 20.4415 -8.94963
331 1 12.5794 6.28969 18.8691 -8.94963
332 1 14.1518 7.86211 20.4415 -8.94963
333 1 15.7242 6.28969 18.8691 -8.94963
334 1 17.2966 7.86211 20.4415 -8.94963
335 1 18.8691 6.28969 18.8691 -8.94963
336 1 20.4415 7.86211 20.4415 -8.94963
337 1 22.0139 9.43453 18.8691 -8.94963
338 1 3.14484 9.43453 18.8691 -8.94963
339 1 6.28969 9.43453 18.8691 -8.94965
45 1 6.28969 9.43453 22.0139 -8.94963
5 1 6.28969 6.3056e-16 22.0139 -8.94963
9 1 12.5794 -1.1319e-16 22.0139 -8.94963
39 1 15.7242 6.28969 22.0139 -8.94963
15 1 22.0139 3.14484 22.0139 -8.94963
17 1 3.14484 3.14484 22.0139 -8.94963
33 1 6.28969 6.28969 22.0139 -8.94963
23 1 12.5794 3.14484 22.0139 -8.94963
31 1 3.14484 6.28969 22.0139 -8.94963
27 1 18.8691 3.14484 22.0139 -8.94963
29 1 22.0139 6.28969 22.0139 -8.94963
1 1 22.0139 1.7045e-16 22.0139 -8.94963
13 1 18.8691 2.63061e-16 22.0139 -8.94963
21 1 9.43453 3.14484 22.0139 -8.94963
43 1 22.0139 9.43453 22.0139 -8.94963
49 1 18.8691 9.43453 22.0139 -8.94963
344 1 1.57242 11.007 1.57242 -8.94963
345 1 4.71726 11.007 1.57242 -8.94963
346 1 7.86211 11.007 1.57242 -8.94966
347 1 11.0069 11.007 1.57236 -8.95033
348 1 14.1518 11.007 1.57242 -8.94963
349 1 17.2966 11.007 1.57242 -8.94963
350 1 20.4415 11.007 1.57242 -8.94963
538 1 17.2966 20.4415 11.007 -8.94963
352 1 1.57242 14.1518 1.57242 -8.94963
353 1 3.14484 12.5794 3.7365e-09 -8.94963
354 1 4.71726 14.1518 1.57242 -8.94963
688 3 10.2247 11.007 9.44404 3.45062
356 1 7.86211 14.1518 1.57242 -8.94963
511 1 18.8691 18.8691 9.43453 -8.94963
358 1 11.007 14.1518 1.57242 -8.94964
510 1 15.7242 18.8691 9.43453 -8.94963
360 1 14.1518 14.1518 1.57242 -8.94963
361 1 15.7242 12.5794 1.15444e-07 -8.94963
362 1 17.2966 14.1518 1.57242 -8.94964
532 1 20.4415 17.2966 11.007 -8.94963
364 1 20.4415 14.1518 1.57242 -8.94963
509 1 12.5794 18.8691 9.43453 -8.94968
366 1 1.57242 17.2966 1.57242 -8.94963
508 1 9.43453 18.8691 9.43453 -8.95036
368 1 4.71726 17.2966 1.57242 -8.94963
507 1 6.28969 18.8691 9.43453 -8.94965
370 1 7.86211 17.2966 1.57242 -8.94963
371 1 9.43453 15.7242 7.86196e-08 -8.94963
372 1 11.007 17.2966 1.57242 -8.94963
373 1 12.5794 15.7242 1.15175e-07 -8.94963
374 1 14.1518 17.2966 1.57242 -8.94964
506 1 3.14484 18.8691 9.43453 -8.94963
376 1 17.2966 17.2966 1.57242 -8.94963
505 1 22.0139 18.8691 9.43453 -8.94963
378 1 20.4415 17.2966 1.57242 -8.94963
504 1 18.8691 15.7242 9.43453 -8.94963
380 1 1.57242 20.4415 1.57242 -8.94963
503 1 15.7242 15.7242 9.43453 -8.94976
382 1 4.71726 20.4415 1.57242 -8.94963
502 1 12.5793 15.7243 9.43453 -8.9516
384 1 7.86211 20.4415 1.57242 -8.94963
531 1 17.2966 17.2966 11.007 -8.94964
386 1 11.007 20.4415 1.57242 -8.94963
501 1 9.43449 15.727 9.43453 -8.96784
388 1 14.1518 20.4415 1.57242 -8.94963
500 1 6.28973 15.7242 9.43453 -8.95224
390 1 17.2966 20.4415 1.57242 -8.94963
499 1 3.14485 15.7242 9.43453 -8.94971
392 1 20.4415 20.4415 1.57242 -8.94963
393 1 1.57242 11.007 4.71726 -8.94963
394 1 4.71727 11.007 4.71727 -8.94967
395 1 7.86214 11.007 4.71723 -8.95079
396 1 11.007 11.007 4.71458 -8.96669
397 1 14.1517 11.007 4.71731 -8.95139
398 1 17.2966 11.007 4.71726 -8.94962
399 1 20.4415 11.007 4.71726 -8.94963
400 1 -1.3551e-09 12.5794 3.14484 -8.94963
401 1 1.57242 14.1518 4.71726 -8.94964
402 1 3.14484 12.5794 3.14484 -8.94964
403 1 4.71726 14.1518 4.71726 -8.94969
404 1 6.28969 12.5794 3.14484 -8.94968
405 1 7.86208 14.1518 4.71719 -8.94997
406 1 9.4345 12.5794 3.14479 -8.94937
407 1 11.0069 14.1517 4.71729 -8.95101
408 1 12.5794 12.5794 3.14476 -8.94977
409 1 14.1519 14.1519 4.71719 -8.94861
410 1 15.7242 12.5794 3.14485 -8.94971
411 1 17.2966 14.1518 4.71726 -8.94964
412 1 18.8691 12.5794 3.14484 -8.94963
413 1 20.4415 14.1518 4.71726 -8.94963
414 1 22.0139 15.7242 3.14484 -8.94963
415 1 1.57242 17.2966 4.71726 -8.94963
416 1 3.14484 15.7242 3.14484 -8.94963
417 1 4.71726 17.2966 4.71726 -8.9496
418 1 6.28968 15.7242 3.14484 -8.94963
419 1 7.86211 17.2966 4.71727 -8.94973
420 1 9.43453 15.7242 3.14484 -8.94965
421 1 11.0069 17.2966 4.71727 -8.94966
422 1 12.5794 15.7242 3.14485 -8.94972
423 1 14.1518 17.2966 4.71726 -8.94963
424 1 15.7242 15.7242 3.14484 -8.9496
425 1 17.2966 17.2966 4.71726 -8.94963
426 1 18.8691 15.7242 3.14484 -8.94963
427 1 20.4415 17.2966 4.71726 -8.94963
428 1 22.0139 18.8691 3.14484 -8.94963
429 1 1.57242 20.4415 4.71726 -8.94963
430 1 3.14484 18.8691 3.14484 -8.94963
431 1 4.71726 20.4415 4.71726 -8.94963
432 1 6.28969 18.8691 3.14484 -8.94964
433 1 7.86211 20.4415 4.71726 -8.94963
434 1 9.43453 18.8691 3.14484 -8.94963
435 1 11.007 20.4415 4.71726 -8.94963
436 1 12.5794 18.8691 3.14484 -8.94963
437 1 14.1518 20.4415 4.71726 -8.94963
438 1 15.7242 18.8691 3.14484 -8.94963
439 1 17.2966 20.4415 4.71726 -8.94963
440 1 18.8691 18.8691 3.14484 -8.94963
441 1 20.4415 20.4415 4.71726 -8.94963
442 1 1.57242 11.007 7.86211 -8.94965
443 1 4.71719 11.007 7.86212 -8.95241
444 1 7.85866 11.007 7.85962 -8.9129
445 1 11.0515 11.007 7.77054 -7.99856
446 1 14.153 11.007 7.86203 -8.96097
447 1 17.2967 11.007 7.86211 -8.94993
448 1 20.4415 11.007 7.86211 -8.94964
449 1 9.51229e-08 12.5794 6.28969 -8.94963
450 1 1.57242 14.1518 7.86211 -8.94963
451 1 3.14484 12.5794 6.28969 -8.94973
452 1 4.71712 14.1519 7.86201 -8.94881
453 1 6.28961 12.5794 6.28957 -8.95006
454 1 7.85953 14.1543 7.85947 -8.91243
455 1 9.43372 12.5802 6.28894 -8.94279
456 1 11.008 14.1526 7.86096 -8.93651
457 1 12.5817 12.5817 6.28746 -8.91905
458 1 14.1519 14.1519 7.86197 -8.9481
459 1 15.7243 12.5794 6.28967 -8.95013
460 1 17.2966 14.1518 7.8621 -8.94963
461 1 18.8691 12.5794 6.28969 -8.94965
462 1 20.4415 14.1518 7.86211 -8.94963
463 1 22.0139 15.7242 6.28969 -8.94963
464 1 1.57242 17.2966 7.86211 -8.94964
465 1 3.14484 15.7242 6.28968 -8.9496
466 1 4.71727 17.2966 7.86211 -8.94973
467 1 6.28961 15.7243 6.28961 -8.94851
468 1 7.86207 17.2967 7.86207 -8.94982
469 1 9.43454 15.7242 6.28974 -8.95119
470 1 11.007 17.2967 7.86207 -8.94936
471 1 12.5794 15.7243 6.28966 -8.94986
472 1 14.1518 17.2966 7.86211 -8.94969
473 1 15.7242 15.7242 6.28968 -8.94963
474 1 17.2966 17.2966 7.86211 -8.94964
475 1 18.8691 15.7242 6.28969 -8.94963
476 1 20.4415 17.2966 7.86211 -8.94963
477 1 5.91687e-09 18.8691 6.28969 -8.94963
478 1 1.57242 20.4415 7.86211 -8.94963
479 1 3.14484 18.8691 6.28969 -8.94964
480 1 4.71726 20.4415 7.86211 -8.94963
481 1 6.28968 18.8691 6.28968 -8.94962
482 1 7.86211 20.4415 7.86211 -8.94965
483 1 9.43453 18.8691 6.28969 -8.94964
484 1 11.007 20.4415 7.86211 -8.94964
485 1 12.5794 18.8691 6.28968 -8.94963
486 1 14.1518 20.4415 7.86211 -8.94963
487 1 15.7242 18.8691 6.28969 -8.94963
488 1 17.2966 20.4415 7.86211 -8.94963
489 1 18.8691 18.8691 6.28969 -8.94963
490 1 20.4415 20.4415 7.86211 -8.94963
491 1 22.0139 12.5794 9.43453 -8.94965
492 1 3.14471 12.5794 9.43448 -8.95008
493 1 6.28596 12.5824 9.43168 -8.91906
494 1 9.38976 12.6789 9.42551 -7.72131
495 1 12.5847 12.5845 9.43198 -8.88079
496 1 15.7244 12.5794 9.43449 -8.95039
497 1 18.8691 12.5794 9.43453 -8.94967
498 1 1.54553e-07 15.7242 9.43453 -8.94963
526 1 1.57242 17.2966 11.007 -8.94963
527 1 4.71727 17.2966 11.0069 -8.94969
534 1 4.71726 20.4415 11.007 -8.94963
389 1 15.7242 18.8691 2.24966e-09 -8.94963
377 1 18.8691 15.7242 2.42707e-09 -8.94963
383 1 6.28969 18.8691 3.23808e-09 -8.94963
512 1 1.57233 11.007 11.007 -8.95043
513 1 4.71417 11.007 11.007 -8.97724
514 1 7.69191 11.007 11.0083 -7.35759
515 1 11.2114 11.007 11.0884 -6.65473
516 1 14.1547 11.007 11.0071 -8.9828
517 1 17.2967 11.007 11.007 -8.95037
518 1 20.4415 11.007 11.007 -8.94968
519 1 1.57242 14.1518 11.007 -8.94965
520 1 4.71724 14.1518 11.007 -8.95232
521 1 7.85951 14.1539 11.0092 -8.91737
522 1 11.0081 14.1523 11.0078 -8.93841
523 1 14.1519 14.1519 11.007 -8.95145
524 1 17.2966 14.1518 11.007 -8.94963
525 1 20.4415 14.1518 11.007 -8.94963
687 3 9.43955 11.007 11.008 3.76961
391 1 18.8691 18.8691 22.0139 -8.94963
528 1 7.86207 17.2967 11.007 -8.94966
529 1 11.007 17.2967 11.007 -8.94922
530 1 14.1518 17.2966 11.007 -8.94966
686 1 20.4415 20.4415 20.4415 -8.94963
685 1 18.8691 18.8691 18.8691 -8.94963
533 1 1.57242 20.4415 11.007 -8.94963
387 1 12.5794 18.8691 22.0139 -8.94963
535 1 7.86211 20.4415 11.007 -8.94964
536 1 11.007 20.4415 11.007 -8.94963
537 1 14.1518 20.4415 11.007 -8.94963
684 1 17.2966 20.4415 20.4415 -8.94963
539 1 20.4415 20.4415 11.007 -8.94963
540 1 1.57242 11.007 14.1518 -8.94963
541 1 4.7173 11.007 14.1518 -8.952
542 1 7.86176 11.007 14.1518 -8.94808
543 1 11.0073 11.007 14.1543 -8.9642
544 1 14.1518 11.007 14.1518 -8.95328
545 1 17.2966 11.007 14.1518 -8.94964
546 1 20.4415 11.007 14.1518 -8.94963
547 1 22.0139 12.5794 12.5794 -8.94965
548 1 1.57242 14.1518 14.1518 -8.94962
549 1 3.14474 12.5794 12.5794 -8.94977
550 1 4.71718 14.1519 14.1519 -8.94844
551 1 6.2872 12.5823 12.5823 -8.90861
552 1 7.86184 14.1521 14.1522 -8.9464
553 1 9.43386 12.5889 12.5887 -8.66589
554 1 11.0072 14.152 14.1521 -8.94708
555 1 12.5843 12.585 12.5848 -8.8599
556 1 14.152 14.152 14.152 -8.94713
557 1 15.7244 12.5794 12.5794 -8.95044
558 1 17.2966 14.1518 14.1518 -8.94963
559 1 18.8691 12.5794 12.5794 -8.94966
560 1 20.4415 14.1518 14.1518 -8.94963
561 1 1.1468e-07 15.7242 12.5794 -8.94963
562 1 1.57242 17.2966 14.1518 -8.94964
563 1 3.14484 15.7242 12.5794 -8.94972
564 1 4.71726 17.2966 14.1518 -8.94962
565 1 6.28963 15.7243 12.5794 -8.9494
566 1 7.86211 17.2966 14.1518 -8.94975
567 1 9.43454 15.7244 12.5793 -8.95337
568 1 11.007 17.2966 14.1518 -8.94968
569 1 12.5794 15.7243 12.5794 -8.95084
570 1 14.1518 17.2966 14.1518 -8.94966
571 1 15.7242 15.7242 12.5794 -8.94975
572 1 17.2966 17.2966 14.1518 -8.94964
573 1 18.8691 15.7242 12.5794 -8.94963
574 1 20.4415 17.2966 14.1518 -8.94963
575 1 22.0139 18.8691 12.5794 -8.94963
576 1 1.57242 20.4415 14.1518 -8.94963
577 1 3.14484 18.8691 12.5794 -8.94963
578 1 4.71726 20.4415 14.1518 -8.94963
579 1 6.28968 18.8691 12.5794 -8.94964
580 1 7.86211 20.4415 14.1518 -8.94964
581 1 9.43453 18.8691 12.5794 -8.9497
582 1 11.007 20.4415 14.1518 -8.94963
583 1 12.5794 18.8691 12.5794 -8.94965
584 1 14.1518 20.4415 14.1518 -8.94963
585 1 15.7242 18.8691 12.5794 -8.94963
586 1 17.2966 20.4415 14.1518 -8.94963
587 1 18.8691 18.8691 12.5794 -8.94963
588 1 20.4415 20.4415 14.1518 -8.94963
589 1 1.57242 11.007 17.2966 -8.94963
590 1 4.71726 11.007 17.2966 -8.94961
591 1 7.8621 11.007 17.2966 -8.94956
592 1 11.007 11.007 17.2967 -8.95018
593 1 14.1518 11.007 17.2966 -8.94964
594 1 17.2966 11.007 17.2966 -8.94964
595 1 20.4415 11.007 17.2966 -8.94963
596 1 1.5672e-07 12.5794 15.7242 -8.94963
597 1 1.57242 14.1518 17.2966 -8.94964
598 1 3.14485 12.5794 15.7242 -8.94972
599 1 4.71726 14.1518 17.2966 -8.94965
600 1 6.28969 12.5794 15.7243 -8.95045
601 1 7.8621 14.1518 17.2966 -8.94967
602 1 9.4345 12.5794 15.7245 -8.95178
603 1 11.007 14.1518 17.2966 -8.94967
604 1 12.5794 12.5794 15.7244 -8.95067
605 1 14.1518 14.1518 17.2966 -8.94965
606 1 15.7242 12.5794 15.7242 -8.94977
607 1 17.2966 14.1518 17.2966 -8.94964
608 1 18.8691 12.5794 15.7242 -8.94963
609 1 20.4415 14.1518 17.2966 -8.94963
610 1 22.0139 15.7242 15.7242 -8.94963
611 1 1.57242 17.2966 17.2966 -8.94963
612 1 3.14484 15.7242 15.7242 -8.9496
613 1 4.71726 17.2966 17.2966 -8.94963
614 1 6.28968 15.7242 15.7242 -8.94957
615 1 7.86211 17.2966 17.2966 -8.94965
616 1 9.43453 15.7242 15.7242 -8.9498
617 1 11.007 17.2966 17.2966 -8.94965
618 1 12.5794 15.7242 15.7242 -8.94967
619 1 14.1518 17.2966 17.2966 -8.94964
620 1 15.7242 15.7242 15.7242 -8.94956
621 1 17.2966 17.2966 17.2966 -8.94963
622 1 18.8691 15.7242 15.7242 -8.94963
623 1 20.4415 17.2966 17.2966 -8.94963
624 1 2.03183e-09 18.8691 15.7242 -8.94963
625 1 1.57242 20.4415 17.2966 -8.94963
626 1 3.14484 18.8691 15.7242 -8.94963
627 1 4.71726 20.4415 17.2966 -8.94963
628 1 6.28969 18.8691 15.7242 -8.94963
629 1 7.86211 20.4415 17.2966 -8.94963
630 1 9.43453 18.8691 15.7242 -8.94963
631 1 11.007 20.4415 17.2966 -8.94963
632 1 12.5794 18.8691 15.7242 -8.94963
633 1 14.1518 20.4415 17.2966 -8.94963
634 1 15.7242 18.8691 15.7242 -8.94963
635 1 17.2966 20.4415 17.2966 -8.94963
636 1 18.8691 18.8691 15.7242 -8.94963
637 1 20.4415 20.4415 17.2966 -8.94963
638 1 1.57242 11.007 20.4415 -8.94963
639 1 4.71726 11.007 20.4415 -8.94963
640 1 7.86211 11.007 20.4415 -8.94963
641 1 11.007 11.007 20.4415 -8.94966
642 1 14.1518 11.007 20.4415 -8.94963
643 1 17.2966 11.007 20.4415 -8.94963
644 1 20.4415 11.007 20.4415 -8.94963
645 1 22.0139 12.5794 18.8691 -8.94963
646 1 1.57242 14.1518 20.4415 -8.94963
647 1 3.14484 12.5794 18.8691 -8.94963
648 1 4.71726 14.1518 20.4415 -8.94963
649 1 6.28969 12.5794 18.8691 -8.94965
650 1 7.86211 14.1518 20.4415 -8.94963
651 1 9.43453 12.5794 18.8691 -8.9497
652 1 11.007 14.1518 20.4415 -8.94963
653 1 12.5794 12.5794 18.8691 -8.94966
654 1 14.1518 14.1518 20.4415 -8.94963
655 1 15.7242 12.5794 18.8691 -8.94963
656 1 17.2966 14.1518 20.4415 -8.94963
657 1 18.8691 12.5794 18.8691 -8.94963
658 1 20.4415 14.1518 20.4415 -8.94963
659 1 3.0398e-09 15.7242 18.8691 -8.94963
660 1 1.57242 17.2966 20.4415 -8.94963
661 1 3.14484 15.7242 18.8691 -8.94963
662 1 4.71726 17.2966 20.4415 -8.94963
663 1 6.28969 15.7242 18.8691 -8.94963
664 1 7.86211 17.2966 20.4415 -8.94963
665 1 9.43453 15.7242 18.8691 -8.94963
666 1 11.007 17.2966 20.4415 -8.94963
667 1 12.5794 15.7242 18.8691 -8.94963
668 1 14.1518 17.2966 20.4415 -8.94963
669 1 15.7242 15.7242 18.8691 -8.94963
670 1 17.2966 17.2966 20.4415 -8.94963
671 1 18.8691 15.7242 18.8691 -8.94963
672 1 20.4415 17.2966 20.4415 -8.94963
673 1 22.0139 18.8691 18.8691 -8.94963
674 1 1.57242 20.4415 20.4415 -8.94963
675 1 3.14484 18.8691 18.8691 -8.94963
676 1 4.71726 20.4415 20.4415 -8.94963
677 1 6.28969 18.8691 18.8691 -8.94963
678 1 7.86211 20.4415 20.4415 -8.94963
679 1 9.43453 18.8691 18.8691 -8.94963
680 1 11.007 20.4415 20.4415 -8.94963
681 1 12.5794 18.8691 18.8691 -8.94963
682 1 14.1518 20.4415 20.4415 -8.94963
683 1 15.7242 18.8691 18.8691 -8.94963
355 1 6.28969 12.5794 22.0139 -8.94963
357 1 9.43453 12.5794 22.0139 -8.94964
359 1 12.5794 12.5794 22.0139 -8.94965
365 1 22.0139 15.7242 22.0139 -8.94963
367 1 3.14484 15.7242 22.0139 -8.94963
369 1 6.28969 15.7242 22.0139 -8.94963
375 1 15.7242 15.7242 22.0139 -8.94963
381 1 3.14484 18.8691 22.0139 -8.94963
379 1 22.0139 18.8691 22.0139 -8.94963
351 1 22.0139 12.5794 22.0139 -8.94963
363 1 18.8691 12.5794 22.0139 -8.94963
385 1 9.43453 18.8691 22.0139 -8.94963
