ITEM: TIMESTEP
95
ITEM: NUMBER OF ATOMS
688
ITEM: BOX BOUNDS pp pp pp
0.0000000000000000e+00 2.2013900999999997e+01
0.0000000000000000e+00 2.2013900999999997e+01
0.0000000000000000e+00 2.2013900999999997e+01
ITEM: ATOMS id type x y z c_pot
189 1 20.4414 4.71628 11.007 -8.94945
2 1 1.57209 1.57214 1.57202 -8.94926
175 1 18.8713 9.43371 9.43388 -8.94954
4 1 4.71705 1.5721 1.57199 -8.9496
174 1 15.7319 9.43197 9.43172 -8.94773
6 1 7.86205 1.57208 1.57199 -8.94953
7 1 9.43452 5.22352e-16 -0.000143753 -8.94959
8 1 11.007 1.57207 1.572 -8.94954
173 1 12.5965 9.41175 9.40024 -8.83693
10 1 14.1519 1.5721 1.57211 -8.9495
172 1 9.37115 9.19442 9.40698 -7.80707
12 1 17.2969 1.57206 1.57209 -8.9495
188 1 17.2981 4.7155 11.0067 -8.94891
14 1 20.4415 1.5722 1.57223 -8.94939
171 1 6.24857 9.38883 9.39731 -8.86244
16 1 1.57197 4.71687 1.57181 -8.94988
170 1 3.13254 9.4314 9.43093 -8.95481
18 1 4.71638 4.71627 1.57085 -8.94949
169 1 22.0111 9.43398 9.43383 -8.95097
20 1 7.86184 4.71625 1.57114 -8.94914
183 1 1.57041 4.71542 11.0072 -8.94915
22 1 11.0071 4.71622 1.57127 -8.94922
168 1 18.8703 6.28817 9.43413 -8.94921
24 1 14.1522 4.71624 1.57135 -8.94978
167 1 15.7278 6.28577 9.43324 -8.94531
26 1 17.2977 4.71619 1.57148 -8.94872
166 1 12.5799 6.28582 9.43339 -8.9545
28 1 20.4417 4.71694 1.57207 -8.94961
165 1 9.42987 6.30048 9.43616 -9.00996
30 1 1.57202 7.86196 1.57183 -8.9494
164 1 6.27969 6.27512 9.4338 -8.95517
32 1 4.71687 7.8622 1.57129 -8.95034
163 1 3.1387 6.28485 9.43346 -8.94716
34 1 7.86173 7.86163 1.56994 -8.95211
35 1 9.4343 6.2889 -0.000769012 -8.94973
36 1 11.0065 7.8613 1.5699 -8.9506
37 1 12.5794 6.28902 -0.000669034 -8.94977
38 1 14.1532 7.8607 1.56934 -8.95123
162 1 -0.0017242 6.28825 9.43418 -8.94952
40 1 17.2978 7.86153 1.5714 -8.94932
161 1 18.8694 3.14408 9.4344 -8.94949
42 1 20.4417 7.86192 1.572 -8.9495
181 1 17.2971 1.57189 11.0069 -8.94954
44 1 3.14439 9.43445 -0.000220521 -8.94967
160 1 15.7251 3.14323 9.43424 -8.94937
159 1 12.5794 3.14352 9.43468 -8.95011
158 1 9.43443 3.14522 9.43488 -8.94457
48 1 15.7252 9.43419 -0.000616315 -8.94948
157 1 6.28824 3.14063 9.43485 -8.95145
50 1 22.0137 1.64715e-15 3.1446 -8.94957
51 1 1.57184 1.57188 4.71678 -8.94962
52 1 3.14439 1.32816e-15 3.1443 -8.94957
53 1 4.71656 1.57131 4.71636 -8.95001
54 1 6.28954 1.76482e-15 3.14431 -8.94949
55 1 7.86206 1.5714 4.71644 -8.94948
56 1 9.4346 8.38078e-16 3.14429 -8.94953
57 1 11.0073 1.57151 4.7165 -8.94938
58 1 12.5796 1.01236e-15 3.14439 -8.94942
59 1 14.1522 1.57155 4.71686 -8.95045
60 1 15.7245 2.12201e-16 3.14453 -8.94991
61 1 17.297 1.57199 4.71704 -8.94973
62 1 18.8692 -3.39707e-16 3.14469 -8.94965
63 1 20.4414 1.57217 4.71709 -8.94958
64 1 22.0134 3.14423 3.14423 -8.94915
65 1 1.57018 4.71537 4.71533 -8.94826
66 1 3.14368 3.14361 3.14347 -8.94827
67 1 4.7133 4.71289 4.71275 -8.9442
68 1 6.28925 3.14363 3.14366 -8.94947
69 1 7.86126 4.71375 4.71436 -8.94846
70 1 9.43459 3.14364 3.14375 -8.94947
71 1 11.0075 4.71429 4.71478 -8.9472
72 1 12.5797 3.14371 3.14396 -8.94909
73 1 14.1544 4.71305 4.71435 -8.94889
74 1 15.7251 3.14344 3.14385 -8.94932
75 1 17.2982 4.7156 4.71606 -8.94907
76 1 18.8694 3.14424 3.14439 -8.94943
77 1 20.4413 4.71649 4.71661 -8.9497
78 1 22.0137 6.28937 3.14418 -8.94974
79 1 1.57104 7.86174 4.71576 -8.94949
80 1 3.14358 6.28894 3.14297 -8.95079
81 1 4.71463 7.86128 4.71294 -8.95403
82 1 6.28746 6.28719 3.14013 -8.95017
83 1 7.85764 7.8565 4.70631 -8.95625
84 1 9.43422 6.28724 3.14136 -8.94805
85 1 11.0068 7.85859 4.70856 -8.95422
86 1 12.5802 6.28753 3.14151 -8.94997
87 1 14.1617 7.85279 4.70586 -8.93812
88 1 15.7275 6.2864 3.14123 -8.94647
89 1 17.3001 7.86038 4.71503 -8.95034
90 1 18.8702 6.28891 3.14393 -8.94965
91 1 20.4419 7.86168 4.71642 -8.94981
92 1 -0.000251982 9.4344 3.14404 -8.9495
93 1 3.14368 9.43439 3.14307 -8.94884
94 1 6.28945 9.43551 3.14299 -8.95088
95 1 9.43406 9.4344 3.14282 -8.94907
96 1 12.5818 9.43331 3.13675 -8.957
97 1 15.7272 9.43344 3.14148 -8.94813
98 1 18.8702 9.43425 3.14383 -8.94937
99 1 22.0137 7.83712e-16 6.28954 -8.94955
100 1 1.57181 1.57184 7.86192 -8.9495
101 1 3.14425 1.26835e-15 6.2893 -8.94977
102 1 4.71646 1.57094 7.86178 -8.9501
103 1 6.28947 1.34219e-15 6.28924 -8.95067
104 1 7.86228 1.57081 7.86204 -8.95159
105 1 9.43478 1.73961e-15 6.28917 -8.95026
106 1 11.0069 1.57176 7.86223 -8.94991
107 1 12.5795 9.1117e-16 6.28958 -8.95035
108 1 14.1521 1.57164 7.86209 -8.95
109 1 15.7245 2.21534e-16 6.28957 -8.94982
110 1 17.297 1.57193 7.86195 -8.94949
111 1 18.8692 1.08574e-15 6.28957 -8.94953
112 1 20.4414 1.57212 7.86201 -8.94955
113 1 -0.000560625 3.14412 6.28933 -8.94946
114 1 1.57037 4.71536 7.86134 -8.949
115 1 3.1433 3.14274 6.28855 -8.94975
116 1 4.71334 4.7112 7.85988 -8.9501
117 1 6.28844 3.14099 6.28805 -8.95163
118 1 7.86059 4.70887 7.8605 -8.96069
119 1 9.43482 3.14182 6.28822 -8.94991
120 1 11.0057 4.71464 7.86183 -8.9551
121 1 12.5796 3.14249 6.2892 -8.95215
122 1 14.153 4.71396 7.86152 -8.95081
123 1 15.7249 3.14339 6.2893 -8.94997
124 1 17.2979 4.71565 7.86159 -8.94883
125 1 18.8694 3.1442 6.28944 -8.94945
126 1 20.4413 4.71633 7.86178 -8.94937
127 1 22.0121 6.28842 6.28845 -8.95036
128 1 1.56671 7.85984 7.85978 -8.95279
129 1 3.13749 6.28407 6.28397 -8.94596
130 1 4.69629 7.84675 7.84748 -8.94039
131 1 6.27679 6.27586 6.27597 -8.92735
132 1 7.82185 7.82159 7.82231 -8.8394
133 1 9.43396 6.28089 6.2831 -8.94512
134 1 11.0245 7.84643 7.83241 -8.88699
135 1 12.586 6.27915 6.28139 -8.94732
136 1 14.1648 7.85166 7.85306 -8.94134
137 1 15.729 6.28528 6.28626 -8.94752
138 1 17.3008 7.85998 7.86078 -8.95107
139 1 18.8703 6.28849 6.28884 -8.95004
140 1 20.4413 7.86123 7.86141 -8.9506
141 1 -0.00102804 9.43428 6.28848 -8.94941
142 1 3.14123 9.43439 6.28638 -8.94799
143 1 6.2864 9.43731 6.2836 -8.96404
144 1 9.42257 9.41884 6.28619 -8.93229
145 1 12.6096 9.4116 6.25621 -8.89726
146 1 15.7333 9.4321 6.28477 -8.95447
147 1 18.8713 9.43407 6.28859 -8.95074
148 1 -0.000273744 6.72536e-16 9.4345 -8.94957
149 1 3.14415 -5.0627e-17 9.4345 -8.94961
150 1 6.28937 7.25629e-16 9.43468 -8.9507
151 1 9.43474 1.61008e-15 9.4346 -8.94787
152 1 12.5795 1.05644e-15 9.4346 -8.94978
153 1 15.7247 1.89878e-16 9.43442 -8.94971
154 1 18.8693 1.2059e-15 9.43447 -8.94957
155 1 22.0134 3.14406 9.43446 -8.94947
156 1 3.14329 3.14278 9.43439 -8.94933
177 1 4.71634 1.57097 11.0073 -8.94967
184 1 4.71305 4.71187 11.0081 -8.94706
3 1 3.14474 1.57351e-15 -0.000140678 -8.94961
11 1 15.7243 -4.40017e-17 -8.81944e-05 -8.94958
41 1 18.8695 6.2894 -0.000151782 -8.94953
19 1 6.28952 3.14442 -0.000305421 -8.94944
25 1 15.7244 3.1444 -0.000201708 -8.94969
176 1 1.57178 1.57185 11.007 -8.94951
47 1 12.5795 9.43435 22.0127 -8.95157
178 1 7.86242 1.57144 11.0071 -8.95002
179 1 11.0067 1.57216 11.0068 -8.94861
180 1 14.1522 1.57149 11.0068 -8.94969
343 1 18.8698 9.43436 18.8699 -8.94941
182 1 20.4414 1.57211 11.007 -8.94957
342 1 15.7256 9.43404 18.8713 -8.94917
46 1 9.4342 9.43449 22.0131 -8.94885
185 1 7.86054 4.7136 11.0079 -8.95369
186 1 11.0059 4.71808 11.0063 -8.94736
187 1 14.1537 4.71382 11.0061 -8.94796
341 1 12.5794 9.43434 18.8724 -8.95358
340 1 9.43416 9.43473 18.8687 -8.94725
190 1 1.56681 7.85992 11.0071 -8.95113
191 1 4.69878 7.85284 11.0088 -8.9513
192 1 7.81624 7.84688 11.0365 -8.86653
193 1 11.0349 7.86873 11.0252 -8.89889
194 1 14.1649 7.8552 11.0046 -8.94762
195 1 17.3014 7.8597 11.0063 -8.94965
196 1 20.4415 7.86106 11.0069 -8.95028
197 1 22.0136 3.06517e-16 12.5795 -8.94956
198 1 1.57187 1.57188 14.1521 -8.94949
199 1 3.1442 -8.91332e-17 12.5797 -8.94953
200 1 4.71666 1.57105 14.1526 -8.95075
201 1 6.28963 1.33408e-15 12.5797 -8.95096
202 1 7.86236 1.57176 14.1522 -8.94946
203 1 9.4347 4.71592e-16 12.5796 -8.9491
204 1 11.0068 1.57162 14.1523 -8.94966
205 1 12.5793 2.2638e-16 12.5793 -8.95094
206 1 14.1522 1.57098 14.1522 -8.95132
207 1 15.7246 7.8692e-16 12.5794 -8.94965
208 1 17.297 1.57187 14.1519 -8.94964
209 1 18.8693 1.7219e-15 12.5794 -8.94955
210 1 20.4415 1.57213 14.1519 -8.94953
211 1 22.0134 3.14409 12.5796 -8.94942
212 1 1.57056 4.71545 14.153 -8.94943
213 1 3.14338 3.14283 12.5801 -8.94908
214 1 4.71316 4.7109 14.1563 -8.94788
215 1 6.28885 3.14101 12.5804 -8.95337
216 1 7.86291 4.71534 14.153 -8.95016
217 1 9.43475 3.14431 12.5796 -8.94807
218 1 11.0058 4.7145 14.1534 -8.94926
219 1 12.5793 3.14155 12.5793 -8.95463
220 1 14.1553 4.70961 14.1555 -8.95206
221 1 15.7251 3.14307 12.5793 -8.94949
222 1 17.2984 4.71517 14.1525 -8.94989
223 1 18.8694 3.14409 12.5794 -8.94939
224 1 20.4415 4.71637 14.1522 -8.94958
225 1 -0.00151074 6.28836 12.5799 -8.94973
226 1 1.56805 7.85991 14.1544 -8.95109
227 1 3.13892 6.28516 12.582 -8.94889
228 1 4.70253 7.84841 14.1666 -8.92716
229 1 6.27773 6.27337 12.5902 -8.94706
230 1 7.86203 7.85784 14.1599 -8.95195
231 1 9.43488 6.29188 12.5779 -8.95293
232 1 11.0049 7.85564 14.1615 -8.94167
233 1 12.5865 6.27237 12.5861 -8.96412
234 1 14.1774 7.83649 14.1776 -8.90141
235 1 15.7291 6.28481 12.5802 -8.94945
236 1 17.3042 7.85815 14.1557 -8.95227
237 1 18.8706 6.28825 12.5796 -8.94948
238 1 20.4422 7.86111 14.1528 -8.95101
239 1 22.0115 9.43392 12.5802 -8.9517
240 1 3.13205 9.43143 12.5837 -8.95583
241 1 6.24396 9.3946 12.6234 -8.82125
242 1 9.43563 9.43099 12.5694 -8.63641
243 1 12.6526 9.35972 12.6547 -8.7068
244 1 15.7438 9.42852 12.5865 -8.9602
245 1 18.8732 9.43368 12.5802 -8.95311
246 1 -0.000208852 3.09068e-16 15.7244 -8.94957
247 1 1.57196 1.57194 17.2972 -8.94932
248 1 3.14436 -7.86966e-17 15.7248 -8.94993
249 1 4.7172 1.57207 17.297 -8.94975
250 1 6.28974 2.59373e-16 15.7246 -8.94957
251 1 7.86201 1.57199 17.2972 -8.94941
252 1 9.43451 2.17351e-16 15.7248 -8.9497
253 1 11.0069 1.57194 17.2972 -8.94946
254 1 12.5793 1.37081e-16 15.7246 -8.94961
255 1 14.1518 1.57193 17.2971 -8.94965
256 1 15.7246 1.58446e-15 15.7246 -8.95031
257 1 17.2972 1.57175 17.2972 -8.94954
258 1 18.8692 1.73307e-15 15.7243 -8.94965
259 1 20.4415 1.57215 17.2969 -8.94963
260 1 -0.000447787 3.14417 15.7247 -8.94956
261 1 1.57127 4.71591 17.2981 -8.94822
262 1 3.14344 3.14282 15.7258 -8.94887
263 1 4.71663 4.71599 17.2983 -8.95009
264 1 6.28978 3.14373 15.725 -8.94981
265 1 7.86189 4.7161 17.2979 -8.94846
266 1 9.43437 3.1434 15.7253 -8.94926
267 1 11.0067 4.71584 17.2981 -8.94862
268 1 12.5792 3.14326 15.7251 -8.94952
269 1 14.1523 4.7154 17.2985 -8.94991
270 1 15.7256 3.1422 15.7257 -8.94983
271 1 17.2988 4.71485 17.2989 -8.94655
272 1 18.8695 3.14406 15.7246 -8.94974
273 1 20.4418 4.71643 17.2975 -8.94943
274 1 22.013 6.28852 15.7255 -8.94999
275 1 1.57142 7.86152 17.2981 -8.94923
276 1 3.14041 6.28527 15.7291 -8.94422
277 1 4.71584 7.86077 17.3006 -8.95191
278 1 6.28852 6.28702 15.7284 -8.951
279 1 7.86296 7.86194 17.2984 -8.95229
280 1 9.43383 6.28686 15.7275 -8.94292
281 1 11.0053 7.86113 17.2995 -8.95124
282 1 12.5798 6.28546 15.729 -8.9493
283 1 14.1547 7.85883 17.3038 -8.9531
284 1 15.7321 6.28146 15.7323 -8.93764
285 1 17.2987 7.86101 17.2989 -8.94915
286 1 18.8714 6.2879 15.7259 -8.94993
287 1 20.4418 7.86172 17.2976 -8.94933
288 1 -0.000859573 9.43413 15.7256 -8.94923
289 1 3.1414 9.43337 15.7281 -8.94734
290 1 6.28732 9.43386 15.7324 -8.96157
291 1 9.43492 9.43816 15.7187 -8.9507
292 1 12.5846 9.43098 15.7407 -8.96634
293 1 15.7302 9.43257 15.7306 -8.94675
294 1 18.8712 9.43398 15.726 -8.94907
295 1 22.0138 1.38868e-15 18.8693 -8.94938
296 1 1.57231 1.57223 20.4415 -8.94955
297 1 3.14477 -1.01721e-15 18.8692 -8.94972
298 1 4.71718 1.57226 20.4415 -8.94953
299 1 6.2896 -1.12706e-15 18.8693 -8.94949
300 1 7.86204 1.5722 20.4416 -8.94957
301 1 9.43449 -7.0297e-16 18.8693 -8.94957
302 1 11.007 1.57219 20.4416 -8.94957
303 1 12.5794 1.16692e-15 18.8693 -8.9495
304 1 14.1518 1.57222 20.4416 -8.94952
305 1 15.7243 1.58268e-15 18.8693 -8.94966
306 1 17.2968 1.57219 20.4416 -8.94966
307 1 18.8693 1.78865e-15 18.8693 -8.94944
308 1 20.4416 1.57223 20.4416 -8.94919
309 1 22.0137 3.14438 18.8695 -8.94918
310 1 1.57215 4.71695 20.4418 -8.9497
311 1 3.14455 3.14433 18.8696 -8.94974
312 1 4.71703 4.71687 20.4416 -8.94994
313 1 6.28957 3.14438 18.8695 -8.94931
314 1 7.8619 4.71665 20.4416 -8.9494
315 1 9.43443 3.14422 18.8696 -8.94954
316 1 11.0069 4.7166 20.4417 -8.94943
317 1 12.5794 3.14426 18.8695 -8.94932
318 1 14.1519 4.71668 20.4417 -8.94971
319 1 15.7245 3.14415 18.8696 -8.94976
320 1 17.2973 4.71654 20.4419 -8.94952
321 1 18.8696 3.14415 18.8697 -8.94877
322 1 20.4416 4.71704 20.4417 -8.94962
323 1 -0.000163437 6.28939 18.8696 -8.94955
324 1 1.5721 7.86194 20.4418 -8.9495
325 1 3.14415 6.28898 18.8705 -8.95003
326 1 4.71701 7.86198 20.4421 -8.95034
327 1 6.28967 6.28924 18.8701 -8.95034
328 1 7.86207 7.86192 20.4415 -8.95016
329 1 9.43418 6.28863 18.8703 -8.94932
330 1 11.0065 7.86171 20.4417 -8.95011
331 1 12.5791 6.28883 18.8705 -8.94983
332 1 14.1523 7.86146 20.4424 -8.95115
333 1 15.7256 6.28812 18.8714 -8.95013
334 1 17.2974 7.86175 20.4419 -8.9494
335 1 18.8697 6.28921 18.8698 -8.94955
336 1 20.4416 7.86198 20.4417 -8.94955
337 1 22.0137 9.43442 18.8697 -8.94952
338 1 3.14405 9.43429 18.8705 -8.94934
339 1 6.28966 9.43469 18.8707 -8.95172
45 1 6.28952 9.43468 22.0136 -8.9499
5 1 6.28961 8.69813e-16 22.0138 -8.94957
9 1 12.5794 -1.01284e-17 22.0138 -8.94957
39 1 15.725 6.28881 22.0133 -8.95011
15 1 22.0138 3.14461 22.0138 -8.94958
17 1 3.14453 3.14446 22.0135 -8.94954
33 1 6.28934 6.28924 22.013 -8.9504
23 1 12.5795 3.14437 22.0137 -8.94943
31 1 3.14454 6.28951 22.0137 -8.95004
27 1 18.8694 3.14444 22.0138 -8.9493
29 1 22.0138 6.28954 22.0138 -8.94953
1 1 22.0138 1.17945e-15 22.0138 -8.94936
13 1 18.8692 1.31308e-15 22.0138 -8.94943
21 1 9.4345 3.14434 22.0136 -8.94953
43 1 22.0138 9.43447 22.0138 -8.94957
49 1 18.8695 9.43442 22.0137 -8.94954
344 1 1.57195 11.007 1.57178 -8.94956
345 1 4.71655 11.007 1.57116 -8.94992
346 1 7.86205 11.007 1.57215 -8.94691
347 1 11.0067 11.007 1.57031 -8.94885
348 1 14.1537 11.007 1.56912 -8.94958
349 1 17.2978 11.007 1.57138 -8.94949
350 1 20.4417 11.007 1.57197 -8.94954
538 1 17.2971 20.442 11.0069 -8.94954
352 1 1.57202 14.1519 1.57183 -8.9494
353 1 3.14439 12.5795 -0.000220521 -8.94967
354 1 4.71687 14.1517 1.57129 -8.95034
688 3 10.2325 11.007 9.53589 2.25607
356 1 7.86173 14.1523 1.56994 -8.95211
511 1 18.8694 18.8698 9.4344 -8.94949
358 1 11.0065 14.1526 1.5699 -8.9506
510 1 15.7251 18.8707 9.43424 -8.94937
360 1 14.1532 14.1532 1.56934 -8.95123
361 1 15.7252 12.5797 -0.000616315 -8.94948
362 1 17.2978 14.1524 1.5714 -8.94932
532 1 20.4414 17.2976 11.007 -8.94945
364 1 20.4417 14.152 1.572 -8.9495
509 1 12.5794 18.8704 9.43468 -8.95011
366 1 1.57197 17.297 1.57181 -8.94988
508 1 9.43443 18.8687 9.43488 -8.94457
368 1 4.71638 17.2976 1.57085 -8.94949
507 1 6.28824 18.8733 9.43485 -8.95145
370 1 7.86184 17.2976 1.57114 -8.94914
371 1 9.4343 15.725 -0.000769012 -8.94973
372 1 11.0071 17.2977 1.57127 -8.94922
373 1 12.5794 15.7249 -0.000669034 -8.94977
374 1 14.1522 17.2977 1.57135 -8.94978
506 1 3.14329 18.8711 9.43439 -8.94933
376 1 17.2977 17.2977 1.57148 -8.94872
505 1 22.0134 18.8698 9.43446 -8.94947
378 1 20.4417 17.297 1.57207 -8.94961
504 1 18.8703 15.7257 9.43413 -8.94921
380 1 1.57209 20.4418 1.57202 -8.94926
503 1 15.7278 15.7281 9.43324 -8.94531
382 1 4.71705 20.4418 1.57199 -8.9496
502 1 12.5799 15.7281 9.43339 -8.9545
384 1 7.86205 20.4418 1.57199 -8.94953
531 1 17.2981 17.2984 11.0067 -8.94891
386 1 11.007 20.4418 1.572 -8.94954
501 1 9.42987 15.7134 9.43616 -9.00996
388 1 14.1519 20.4418 1.57211 -8.9495
500 1 6.27969 15.7388 9.4338 -8.95517
390 1 17.2969 20.4418 1.57209 -8.9495
499 1 3.1387 15.7291 9.43346 -8.94716
392 1 20.4415 20.4417 1.57223 -8.94939
393 1 1.57095 11.007 4.71556 -8.94939
394 1 4.71441 11.007 4.71322 -8.94587
395 1 7.86425 11.007 4.72176 -8.93592
396 1 11.0096 11.007 4.71305 -8.98701
397 1 14.1604 11.007 4.70758 -8.94272
398 1 17.3002 11.007 4.71487 -8.94918
399 1 20.442 11.007 4.71629 -8.94974
400 1 -0.000251982 12.5795 3.14404 -8.9495
401 1 1.57104 14.1522 4.71576 -8.94949
402 1 3.14368 12.5795 3.14307 -8.94884
403 1 4.71463 14.1526 4.71294 -8.95403
404 1 6.28945 12.5784 3.14299 -8.95088
405 1 7.85764 14.1574 4.70631 -8.95625
406 1 9.43406 12.5795 3.14282 -8.94907
407 1 11.0068 14.1553 4.70856 -8.95422
408 1 12.5818 12.5806 3.13675 -8.957
409 1 14.1617 14.1611 4.70586 -8.93812
410 1 15.7272 12.5805 3.14148 -8.94813
411 1 17.3001 14.1535 4.71503 -8.95034
412 1 18.8702 12.5797 3.14383 -8.94937
413 1 20.4419 14.1522 4.71642 -8.94981
414 1 22.0137 15.7245 3.14418 -8.94974
415 1 1.57018 17.2985 4.71533 -8.94826
416 1 3.14358 15.725 3.14297 -8.95079
417 1 4.7133 17.301 4.71275 -8.9442
418 1 6.28746 15.7267 3.14013 -8.95017
419 1 7.86126 17.3001 4.71436 -8.94846
420 1 9.43422 15.7267 3.14136 -8.94805
421 1 11.0075 17.2996 4.71478 -8.9472
422 1 12.5802 15.7264 3.14151 -8.94997
423 1 14.1544 17.3009 4.71435 -8.94889
424 1 15.7275 15.7275 3.14123 -8.94647
425 1 17.2982 17.2983 4.71606 -8.94907
426 1 18.8702 15.725 3.14393 -8.94965
427 1 20.4413 17.2974 4.71661 -8.9497
428 1 22.0134 18.8697 3.14423 -8.94915
429 1 1.57184 20.442 4.71678 -8.94962
430 1 3.14368 18.8703 3.14347 -8.94827
431 1 4.71656 20.4426 4.71636 -8.95001
432 1 6.28925 18.8703 3.14366 -8.94947
433 1 7.86206 20.4425 4.71644 -8.94948
434 1 9.43459 18.8703 3.14375 -8.94947
435 1 11.0073 20.4424 4.7165 -8.94938
436 1 12.5797 18.8702 3.14396 -8.94909
437 1 14.1522 20.4423 4.71686 -8.95045
438 1 15.7251 18.8705 3.14385 -8.94932
439 1 17.297 20.4419 4.71704 -8.94973
440 1 18.8694 18.8697 3.14439 -8.94943
441 1 20.4414 20.4417 4.71709 -8.94958
442 1 1.56873 11.007 7.85992 -8.94742
443 1 4.71112 11.007 7.85728 -8.93552
444 1 7.87621 11.007 7.89591 -8.91497
445 1 11.0694 11.007 7.69736 -8.22963
446 1 14.1658 11.007 7.85221 -8.95926
447 1 17.3014 11.007 7.86077 -8.95051
448 1 20.4417 11.007 7.86131 -8.94979
449 1 -0.00102804 12.5796 6.28848 -8.94941
450 1 1.56671 14.1541 7.85978 -8.95279
451 1 3.14123 12.5795 6.28638 -8.94799
452 1 4.69629 14.1671 7.84748 -8.94039
453 1 6.2864 12.5766 6.2836 -8.96404
454 1 7.82185 14.1923 7.82231 -8.8394
455 1 9.42257 12.5951 6.28619 -8.93229
456 1 11.0245 14.1675 7.83241 -8.88699
457 1 12.6096 12.6023 6.25621 -8.89726
458 1 14.1648 14.1622 7.85306 -8.94134
459 1 15.7333 12.5818 6.28477 -8.95447
460 1 17.3008 14.1539 7.86078 -8.95107
461 1 18.8713 12.5798 6.28859 -8.95074
462 1 20.4413 14.1527 7.86141 -8.9506
463 1 22.0121 15.7255 6.28845 -8.95036
464 1 1.57037 17.2985 7.86134 -8.949
465 1 3.13749 15.7298 6.28397 -8.94596
466 1 4.71334 17.3027 7.85988 -8.9501
467 1 6.27679 15.738 6.27597 -8.92735
468 1 7.86059 17.305 7.8605 -8.96069
469 1 9.43396 15.733 6.2831 -8.94512
470 1 11.0057 17.2993 7.86183 -8.9551
471 1 12.586 15.7348 6.28139 -8.94732
472 1 14.153 17.2999 7.86152 -8.95081
473 1 15.729 15.7286 6.28626 -8.94752
474 1 17.2979 17.2982 7.86159 -8.94883
475 1 18.8703 15.7254 6.28884 -8.95004
476 1 20.4413 17.2976 7.86178 -8.94937
477 1 -0.000560625 18.8698 6.28933 -8.94946
478 1 1.57181 20.4421 7.86192 -8.9495
479 1 3.1433 18.8712 6.28855 -8.94975
480 1 4.71646 20.443 7.86178 -8.9501
481 1 6.28844 18.8729 6.28805 -8.95163
482 1 7.86228 20.4431 7.86204 -8.95159
483 1 9.43482 18.8721 6.28822 -8.94991
484 1 11.0069 20.4421 7.86223 -8.94991
485 1 12.5796 18.8714 6.2892 -8.95215
486 1 14.1521 20.4423 7.86209 -8.95
487 1 15.7249 18.8705 6.2893 -8.94997
488 1 17.297 20.442 7.86195 -8.94949
489 1 18.8694 18.8697 6.28944 -8.94945
490 1 20.4414 20.4418 7.86201 -8.94955
491 1 22.0111 12.5799 9.43383 -8.95097
492 1 3.13254 12.5825 9.43093 -8.95481
493 1 6.24857 12.6251 9.39731 -8.86244
494 1 9.37115 12.8195 9.40698 -7.80707
495 1 12.5965 12.6021 9.40024 -8.83693
496 1 15.7319 12.5819 9.43172 -8.94773
497 1 18.8713 12.5802 9.43388 -8.94954
498 1 -0.0017242 15.7257 9.43418 -8.94952
526 1 1.57041 17.2985 11.0072 -8.94915
527 1 4.71305 17.302 11.0081 -8.94706
534 1 4.71634 20.4429 11.0073 -8.94967
389 1 15.7244 18.8695 -0.000201708 -8.94969
377 1 18.8695 15.7245 -0.000151782 -8.94953
383 1 6.28952 18.8695 -0.000305421 -8.94944
512 1 1.56557 11.007 11.0071 -8.95228
513 1 4.69324 11.007 11.0071 -9.01937
514 1 7.49805 11.007 11.0227 -7.88681
515 1 11.422 11.007 11.1812 -7.15357
516 1 14.1819 11.007 11.0169 -9.02039
517 1 17.3047 11.007 11.0067 -8.95444
518 1 20.4418 11.007 11.0068 -8.95071
519 1 1.56681 14.154 11.0071 -8.95113
520 1 4.69878 14.1611 11.0088 -8.9513
521 1 7.81624 14.167 11.0365 -8.86653
522 1 11.0349 14.1452 11.0252 -8.89889
523 1 14.1649 14.1587 11.0046 -8.94762
524 1 17.3014 14.1542 11.0063 -8.94965
525 1 20.4415 14.1528 11.0069 -8.95028
687 3 9.45631 11.007 10.9438 2.28362
391 1 18.8694 18.8695 22.0138 -8.9493
528 1 7.86054 17.3003 11.0079 -8.95369
529 1 11.0059 17.2958 11.0063 -8.94736
530 1 14.1537 17.3001 11.0061 -8.94796
686 1 20.4416 20.4417 20.4416 -8.94919
685 1 18.8696 18.8698 18.8697 -8.94877
533 1 1.57178 20.4421 11.007 -8.94951
387 1 12.5795 18.8695 22.0137 -8.94943
535 1 7.86242 20.4425 11.0071 -8.95002
536 1 11.0067 20.4417 11.0068 -8.94861
537 1 14.1522 20.4424 11.0068 -8.94969
684 1 17.2968 20.4417 20.4416 -8.94966
539 1 20.4414 20.4418 11.007 -8.94957
540 1 1.56803 11.007 14.1545 -8.94914
541 1 4.70524 11.007 14.1607 -8.9398
542 1 7.85286 11.007 14.138 -8.95345
543 1 11.0255 11.007 14.1453 -8.9874
544 1 14.1688 11.007 14.1662 -8.93773
545 1 17.3035 11.007 14.1556 -8.94807
546 1 20.4422 11.007 14.1531 -8.95017
547 1 22.0115 12.58 12.5802 -8.9517
548 1 1.56805 14.154 14.1544 -8.95109
549 1 3.13205 12.5825 12.5837 -8.95583
550 1 4.70253 14.1655 14.1666 -8.92716
551 1 6.24396 12.6193 12.6234 -8.82125
552 1 7.86203 14.1561 14.1599 -8.95195
553 1 9.43563 12.5829 12.5694 -8.63641
554 1 11.0049 14.1583 14.1615 -8.94167
555 1 12.6526 12.6542 12.6547 -8.7068
556 1 14.1774 14.1774 14.1776 -8.90141
557 1 15.7438 12.5854 12.5865 -8.9602
558 1 17.3042 14.1558 14.1557 -8.95227
559 1 18.8732 12.5802 12.5802 -8.95311
560 1 20.4422 14.1528 14.1528 -8.95101
561 1 -0.00151074 15.7255 12.5799 -8.94973
562 1 1.57056 17.2984 14.153 -8.94943
563 1 3.13892 15.7287 12.582 -8.94889
564 1 4.71316 17.303 14.1563 -8.94788
565 1 6.27773 15.7405 12.5902 -8.94706
566 1 7.86291 17.2986 14.153 -8.95016
567 1 9.43488 15.722 12.5779 -8.95293
568 1 11.0058 17.2994 14.1534 -8.94926
569 1 12.5865 15.7415 12.5861 -8.96412
570 1 14.1553 17.3043 14.1555 -8.95206
571 1 15.7291 15.7291 12.5802 -8.94945
572 1 17.2984 17.2987 14.1525 -8.94989
573 1 18.8706 15.7257 12.5796 -8.94948
574 1 20.4415 17.2975 14.1522 -8.94958
575 1 22.0134 18.8698 12.5796 -8.94942
576 1 1.57187 20.442 14.1521 -8.94949
577 1 3.14338 18.8711 12.5801 -8.94908
578 1 4.71666 20.4429 14.1526 -8.95075
579 1 6.28885 18.8729 12.5804 -8.95337
580 1 7.86236 20.4421 14.1522 -8.94946
581 1 9.43475 18.8696 12.5796 -8.94807
582 1 11.0068 20.4423 14.1523 -8.94966
583 1 12.5793 18.8724 12.5793 -8.95463
584 1 14.1522 20.4429 14.1522 -8.95132
585 1 15.7251 18.8708 12.5793 -8.94949
586 1 17.297 20.442 14.1519 -8.94964
587 1 18.8694 18.8698 12.5794 -8.94939
588 1 20.4415 20.4418 14.1519 -8.94953
589 1 1.57133 11.007 17.2981 -8.94947
590 1 4.71519 11.007 17.3003 -8.94882
591 1 7.86251 11.007 17.2953 -8.94434
592 1 11.0063 11.007 17.2977 -8.94511
593 1 14.1553 11.007 17.3029 -8.94757
594 1 17.2988 11.007 17.299 -8.94907
595 1 20.4419 11.007 17.2976 -8.94946
596 1 -0.000859573 12.5798 15.7256 -8.94923
597 1 1.57142 14.1524 17.2981 -8.94923
598 1 3.1414 12.5805 15.7281 -8.94734
599 1 4.71584 14.1531 17.3006 -8.95191
600 1 6.28732 12.58 15.7324 -8.96157
601 1 7.86296 14.152 17.2984 -8.95229
602 1 9.43492 12.5757 15.7187 -8.9507
603 1 11.0053 14.1528 17.2995 -8.95124
604 1 12.5846 12.5829 15.7407 -8.96634
605 1 14.1547 14.1551 17.3038 -8.9531
606 1 15.7302 12.5813 15.7306 -8.94675
607 1 17.2987 14.1529 17.2989 -8.94915
608 1 18.8712 12.5799 15.726 -8.94907
609 1 20.4418 14.1522 17.2976 -8.94933
610 1 22.013 15.7254 15.7255 -8.94999
611 1 1.57127 17.298 17.2981 -8.94822
612 1 3.14041 15.7286 15.7291 -8.94422
613 1 4.71663 17.2979 17.2983 -8.95009
614 1 6.28852 15.7269 15.7284 -8.951
615 1 7.86189 17.2978 17.2979 -8.94846
616 1 9.43383 15.727 15.7275 -8.94292
617 1 11.0067 17.2981 17.2981 -8.94862
618 1 12.5798 15.7284 15.729 -8.9493
619 1 14.1523 17.2985 17.2985 -8.94991
620 1 15.7321 15.7324 15.7323 -8.93764
621 1 17.2988 17.2991 17.2989 -8.94655
622 1 18.8714 15.726 15.7259 -8.94993
623 1 20.4418 17.2975 17.2975 -8.94943
624 1 -0.000447787 18.8697 15.7247 -8.94956
625 1 1.57196 20.442 17.2972 -8.94932
626 1 3.14344 18.8711 15.7258 -8.94887
627 1 4.7172 20.4418 17.297 -8.94975
628 1 6.28978 18.8702 15.725 -8.94981
629 1 7.86201 20.4419 17.2972 -8.94941
630 1 9.43437 18.8705 15.7253 -8.94926
631 1 11.0069 20.442 17.2972 -8.94946
632 1 12.5792 18.8706 15.7251 -8.94952
633 1 14.1518 20.442 17.2971 -8.94965
634 1 15.7256 18.8717 15.7257 -8.94983
635 1 17.2972 20.4421 17.2972 -8.94954
636 1 18.8695 18.8698 15.7246 -8.94974
637 1 20.4415 20.4418 17.2969 -8.94963
638 1 1.57206 11.007 20.4418 -8.94956
639 1 4.71679 11.007 20.4421 -8.95002
640 1 7.86212 11.007 20.4414 -8.9484
641 1 11.0063 11.007 20.4416 -8.94889
642 1 14.1526 11.007 20.4424 -8.95026
643 1 17.2974 11.007 20.4419 -8.94949
644 1 20.4417 11.007 20.4417 -8.94957
645 1 22.0137 12.5795 18.8697 -8.94952
646 1 1.5721 14.152 20.4418 -8.9495
647 1 3.14405 12.5796 18.8705 -8.94934
648 1 4.71701 14.1519 20.4421 -8.95034
649 1 6.28966 12.5792 18.8707 -8.95172
650 1 7.86207 14.152 20.4415 -8.95016
651 1 9.43416 12.5792 18.8687 -8.94725
652 1 11.0065 14.1522 20.4417 -8.95011
653 1 12.5794 12.5796 18.8724 -8.95358
654 1 14.1523 14.1524 20.4424 -8.95115
655 1 15.7256 12.5799 18.8713 -8.94917
656 1 17.2974 14.1522 20.4419 -8.9494
657 1 18.8698 12.5795 18.8699 -8.94941
658 1 20.4416 14.1519 20.4417 -8.94955
659 1 -0.000163437 15.7245 18.8696 -8.94955
660 1 1.57215 17.297 20.4418 -8.9497
661 1 3.14415 15.7249 18.8705 -8.95003
662 1 4.71703 17.297 20.4416 -8.94994
663 1 6.28967 15.7247 18.8701 -8.95034
664 1 7.8619 17.2972 20.4416 -8.9494
665 1 9.43418 15.7253 18.8703 -8.94932
666 1 11.0069 17.2973 20.4417 -8.94943
667 1 12.5791 15.7251 18.8705 -8.94983
668 1 14.1519 17.2972 20.4417 -8.94971
669 1 15.7256 15.7258 18.8714 -8.95013
670 1 17.2973 17.2974 20.4419 -8.94952
671 1 18.8697 15.7247 18.8698 -8.94955
672 1 20.4416 17.2969 20.4417 -8.94962
673 1 22.0137 18.8695 18.8695 -8.94918
674 1 1.57231 20.4417 20.4415 -8.94955
675 1 3.14455 18.8696 18.8696 -8.94974
676 1 4.71718 20.4416 20.4415 -8.94953
677 1 6.28957 18.8695 18.8695 -8.94931
678 1 7.86204 20.4417 20.4416 -8.94957
679 1 9.43443 18.8697 18.8696 -8.94954
680 1 11.007 20.4417 20.4416 -8.94957
681 1 12.5794 18.8696 18.8695 -8.94932
682 1 14.1518 20.4417 20.4416 -8.94952
683 1 15.7245 18.8697 18.8696 -8.94976
355 1 6.28952 12.5792 22.0136 -8.9499
357 1 9.4342 12.5794 22.0131 -8.94885
359 1 12.5795 12.5795 22.0127 -8.95157
365 1 22.0138 15.7244 22.0138 -8.94953
367 1 3.14454 15.7244 22.0137 -8.95004
369 1 6.28934 15.7247 22.013 -8.9504
375 1 15.725 15.7251 22.0133 -8.95011
381 1 3.14453 18.8694 22.0135 -8.94954
379 1 22.0138 18.8693 22.0138 -8.94958
351 1 22.0138 12.5794 22.0138 -8.94957
363 1 18.8695 12.5795 22.0137 -8.94954
385 1 9.4345 18.8696 22.0136 -8.94953
