ITEM: TIMESTEP
117
ITEM: NUMBER OF ATOMS
691
ITEM: BOX BOUNDS pp pp pp
0.0000000000000000e+00 2.2013900999999997e+01
0.0000000000000000e+00 2.2013900999999997e+01
0.0000000000000000e+00 2.2013900999999997e+01
ITEM: ATOMS id type xs ys zs
175 1 0.857307 0.428479 0.428559
2 1 0.0713948 0.0713289 0.0714637
195 1 0.786196 0.356841 0.499971
4 1 0.214243 0.0713518 0.0714511
445 1 0.499671 0.499713 0.356515
6 1 0.357115 0.0713785 0.0714559
350 1 0.928594 0.499947 0.0714923
8 1 0.499992 0.0713896 0.0714709
348 1 0.642906 0.499943 0.0714829
10 1 0.64287 0.071381 0.0714858
347 1 0.499969 0.499951 0.0714134
12 1 0.785743 0.0713554 0.0714902
194 1 0.644853 0.354885 0.498084
14 1 0.928595 0.0713301 0.0714815
346 1 0.357056 0.49995 0.0713811
16 1 0.0713862 0.214175 0.0714437
17 1 0.142804 0.142745 5.68636e-05
18 1 0.214208 0.214159 0.0714079
19 1 0.285684 0.142781 3.97925e-05
20 1 0.357111 0.214191 0.0714108
21 1 0.428558 0.142802 4.6425e-05
22 1 0.499989 0.2142 0.0714343
23 1 0.571434 0.142802 6.60095e-05
24 1 0.642866 0.214195 0.0714565
25 1 0.714313 0.14278 8.52991e-05
26 1 0.785769 0.214165 0.0714676
27 1 0.857201 0.142743 9.52414e-05
28 1 0.928596 0.214176 0.0714682
344 1 0.0713768 0.499947 0.071452
30 1 0.0713788 0.357055 0.0714397
31 1 0.142798 0.285613 3.83196e-05
32 1 0.214188 0.357042 0.0713915
33 1 0.285651 0.285608 3.47951e-05
34 1 0.357076 0.357042 0.0713582
448 1 0.928582 0.499943 0.35715
36 1 0.499982 0.357052 0.0714027
37 1 0.571429 0.285638 4.8008e-05
38 1 0.642883 0.35705 0.0714455
39 1 0.714347 0.285603 0.000115609
40 1 0.785785 0.357041 0.071479
41 1 0.857211 0.285606 9.55738e-05
42 1 0.928596 0.357056 0.0714742
160 1 0.714456 0.142491 0.428486
44 1 0.142793 0.428504 3.81371e-05
45 1 0.285629 0.428503 3.18873e-05
46 1 0.428543 0.428515 1.92804e-05
47 1 0.571439 0.428516 8.20635e-05
48 1 0.714381 0.42849 0.000150038
49 1 0.85722 0.428499 0.000113222
174 1 0.714899 0.428416 0.428281
51 1 0.0713725 0.0712872 0.214274
193 1 0.499896 0.355887 0.499364
53 1 0.214205 0.0712956 0.214248
173 1 0.573304 0.427082 0.427465
55 1 0.357098 0.071332 0.214261
192 1 0.355127 0.354966 0.498082
57 1 0.499986 0.0713468 0.214276
191 1 0.21377 0.356843 0.499918
59 1 0.64287 0.071339 0.214289
189 1 0.928657 0.21408 0.50002
61 1 0.785757 0.0713048 0.214283
188 1 0.785977 0.213931 0.499969
63 1 0.928593 0.0712903 0.214288
64 1 0.999984 0.142733 0.142863
65 1 0.0713408 0.214131 0.214236
66 1 0.142773 0.142714 0.142821
67 1 0.214102 0.214048 0.214116
68 1 0.285659 0.14274 0.14282
69 1 0.357075 0.214113 0.214179
70 1 0.428546 0.142763 0.14284
71 1 0.499977 0.214135 0.21422
72 1 0.571426 0.142768 0.142859
73 1 0.64287 0.214138 0.214229
74 1 0.714308 0.142752 0.142865
75 1 0.785828 0.21408 0.214178
76 1 0.857192 0.142723 0.142857
77 1 0.928598 0.214141 0.21426
78 1 0.999974 0.285605 0.142854
79 1 0.0713231 0.357031 0.214234
80 1 0.142749 0.285583 0.142797
81 1 0.214071 0.356977 0.214105
82 1 0.285587 0.285548 0.14271
83 1 0.35694 0.356918 0.213944
84 1 0.428533 0.285586 0.14278
85 1 0.499958 0.356975 0.214173
86 1 0.571419 0.285596 0.142816
87 1 0.642932 0.356966 0.214076
88 1 0.714348 0.285572 0.142796
89 1 0.785819 0.357008 0.214205
90 1 0.857195 0.285596 0.142854
91 1 0.928584 0.357042 0.21427
92 1 0.999967 0.428498 0.142865
93 1 0.142739 0.428488 0.142801
94 1 0.285558 0.428469 0.142704
95 1 0.428489 0.428457 0.142689
96 1 0.571418 0.428474 0.14277
97 1 0.714365 0.428471 0.142817
98 1 0.857189 0.428497 0.142879
187 1 0.643108 0.21362 0.499905
100 1 0.0713686 0.0712594 0.357142
172 1 0.426022 0.426678 0.426824
102 1 0.214162 0.0712139 0.357093
171 1 0.284825 0.428352 0.428077
104 1 0.35707 0.0712592 0.3571
170 1 0.142563 0.428462 0.428489
106 1 0.499986 0.0712991 0.357113
169 1 0.999953 0.428482 0.428585
108 1 0.642897 0.0712692 0.357122
168 1 0.857385 0.285472 0.428506
110 1 0.785806 0.0712206 0.357114
167 1 0.715068 0.284845 0.427916
112 1 0.928601 0.0712621 0.357151
113 1 0.999978 0.142686 0.285688
114 1 0.0713037 0.214084 0.357087
115 1 0.142711 0.142633 0.285623
116 1 0.213937 0.213875 0.356879
117 1 0.28559 0.142625 0.285606
118 1 0.35697 0.2139 0.356949
119 1 0.428532 0.142693 0.28565
120 1 0.499971 0.214045 0.35705
121 1 0.571427 0.142704 0.285667
122 1 0.642951 0.213948 0.356999
123 1 0.714356 0.142651 0.285647
124 1 0.786004 0.213894 0.356911
125 1 0.857242 0.142644 0.285647
126 1 0.928643 0.21409 0.357101
127 1 0.999957 0.285574 0.285677
128 1 0.0712702 0.357008 0.357087
129 1 0.14264 0.285508 0.28558
130 1 0.213835 0.356873 0.35687
131 1 0.285316 0.285277 0.285271
132 1 0.356242 0.35629 0.356088
133 1 0.42852 0.285485 0.285555
134 1 0.499942 0.356986 0.357153
135 1 0.571396 0.285512 0.285601
136 1 0.643463 0.356456 0.35632
137 1 0.71455 0.285352 0.285383
138 1 0.785999 0.356931 0.356978
139 1 0.85726 0.28554 0.285637
140 1 0.928622 0.357021 0.357119
141 1 0.999938 0.428489 0.285691
142 1 0.142628 0.428462 0.285586
143 1 0.285307 0.428384 0.285315
144 1 0.428276 0.428295 0.285164
145 1 0.571475 0.428373 0.285367
146 1 0.714497 0.428421 0.285484
147 1 0.857222 0.428488 0.285677
185 1 0.356869 0.213628 0.499882
166 1 0.571479 0.28522 0.428416
165 1 0.42841 0.28515 0.428367
164 1 0.284871 0.28484 0.427884
163 1 0.142559 0.285462 0.428478
162 1 0.999974 0.285555 0.428568
161 1 0.857256 0.142631 0.428556
155 1 0.999988 0.142671 0.428576
156 1 0.142718 0.142624 0.42854
157 1 0.285514 0.142483 0.428465
158 1 0.428516 0.142579 0.428507
159 1 0.571452 0.142592 0.428517
176 1 0.0713816 0.0712553 0.500032
177 1 0.214172 0.0712147 0.500011
446 1 0.643194 0.499831 0.356567
444 1 0.356415 0.499932 0.356239
443 1 0.213869 0.499954 0.356878
183 1 0.0713297 0.214079 0.500009
184 1 0.214008 0.213931 0.499944
345 1 0.214181 0.499951 0.0714064
349 1 0.785786 0.499951 0.0715147
393 1 0.0713201 0.499943 0.214251
394 1 0.214071 0.499944 0.214122
395 1 0.356917 0.499927 0.213953
396 1 0.499897 0.499892 0.214009
397 1 0.642948 0.499895 0.214075
398 1 0.78579 0.499954 0.214254
399 1 0.92857 0.499946 0.214295
442 1 0.0712708 0.499938 0.357106
43 1 1.00001 0.428504 6.73636e-05
29 1 1 0.285618 6.08626e-05
15 1 4.24836e-06 0.142752 6.69936e-05
513 1 0.214106 0.499879 0.499966
11 1 0.71432 -1.22872e-05 0.000106523
9 1 0.571439 9.35999e-06 9.77784e-05
7 1 0.428553 7.80639e-06 8.06374e-05
642 1 0.642985 0.499965 0.928897
644 1 0.928646 0.49995 0.928699
178 1 0.357069 0.0712134 0.500017
640 1 0.357068 0.499978 0.928737
180 1 0.642921 0.0712184 0.500033
643 1 0.785866 0.499959 0.928801
546 1 0.928664 0.499915 0.642942
545 1 0.78598 0.499875 0.643079
639 1 0.214197 0.499965 0.928675
541 1 0.214231 0.4999 0.642901
186 1 0.499992 0.213832 0.500013
517 1 0.785786 0.499884 0.500087
638 1 0.0714096 0.499951 0.928655
332 1 0.642931 0.357049 0.928789
190 1 0.0713044 0.357007 0.500024
331 1 0.571425 0.28563 0.857261
330 1 0.500003 0.357096 0.928612
329 1 0.428602 0.285642 0.857217
328 1 0.357095 0.357064 0.92869
327 1 0.285553 0.285502 0.857401
196 1 0.928666 0.357009 0.500043
595 1 0.928705 0.499945 0.785865
198 1 0.0713984 0.0712728 0.642926
691 3 0.500554 0.464871 0.571603
200 1 0.214189 0.0712443 0.642933
689 2 0.500477 0.431552 0.539008
202 1 0.357078 0.0712592 0.642939
688 2 0.534609 0.496626 0.569064
204 1 0.500006 0.0714053 0.642937
590 1 0.214127 0.499981 0.7859
206 1 0.642938 0.0712609 0.642962
687 2 0.465982 0.496239 0.57125
208 1 0.785837 0.0712476 0.642959
343 1 0.857308 0.428484 0.857339
210 1 0.928631 0.0712748 0.642936
211 1 6.33811e-06 0.142676 0.571481
212 1 0.0713605 0.214098 0.642933
213 1 0.142742 0.142638 0.571472
214 1 0.214057 0.213976 0.642969
215 1 0.285527 0.142521 0.571464
216 1 0.356905 0.213698 0.643021
217 1 0.428524 0.142629 0.571492
218 1 0.500017 0.214336 0.642847
219 1 0.571479 0.14263 0.571505
220 1 0.643129 0.213664 0.643061
221 1 0.714483 0.142516 0.571489
222 1 0.785986 0.213955 0.643007
223 1 0.85727 0.142637 0.571488
224 1 0.928676 0.214094 0.642947
225 1 1.00001 0.285545 0.571479
226 1 0.071367 0.357025 0.642908
227 1 0.142629 0.285458 0.571462
228 1 0.213916 0.356901 0.642936
229 1 0.285163 0.285081 0.571434
230 1 0.355451 0.355078 0.644578
231 1 0.428153 0.285214 0.571473
232 1 0.500055 0.358098 0.642441
233 1 0.571873 0.285226 0.5715
234 1 0.644759 0.354933 0.644826
235 1 0.714867 0.285053 0.571487
236 1 0.786193 0.356861 0.643029
237 1 0.85739 0.285451 0.571491
238 1 0.928696 0.357017 0.642933
239 1 1.05349e-05 0.428477 0.571483
240 1 0.142819 0.428456 0.571453
241 1 0.285927 0.428308 0.571372
242 1 0.416422 0.423935 0.571501
243 1 0.58399 0.423566 0.571818
244 1 0.714178 0.428249 0.571516
245 1 0.857216 0.428453 0.571508
589 1 0.0714134 0.499947 0.785815
247 1 0.0714085 0.0713016 0.785807
342 1 0.714546 0.428454 0.857521
249 1 0.214206 0.071284 0.785836
341 1 0.571516 0.428533 0.857381
251 1 0.35712 0.0713753 0.785813
340 1 0.428537 0.428541 0.857275
253 1 0.500005 0.071403 0.785836
339 1 0.28557 0.428502 0.857339
255 1 0.642898 0.0713733 0.785844
338 1 0.142787 0.428502 0.857249
257 1 0.78583 0.0712832 0.785875
337 1 4.1738e-05 0.428499 0.857252
259 1 0.928634 0.0713025 0.785823
260 1 2.14116e-05 0.1427 0.714379
261 1 0.0713769 0.214132 0.785829
262 1 0.142765 0.142671 0.714388
263 1 0.214054 0.213982 0.785974
264 1 0.28557 0.142567 0.714446
265 1 0.357111 0.214112 0.785845
266 1 0.428595 0.142752 0.714367
267 1 0.500011 0.214154 0.785863
268 1 0.571426 0.142742 0.714388
269 1 0.642929 0.21408 0.785902
270 1 0.714466 0.142548 0.714488
271 1 0.786014 0.213943 0.786046
272 1 0.857277 0.142663 0.714416
273 1 0.928683 0.214122 0.785852
274 1 3.39538e-05 0.28558 0.714376
275 1 0.0713967 0.357044 0.785814
276 1 0.142671 0.285522 0.714412
277 1 0.214093 0.356993 0.785894
278 1 0.285076 0.284993 0.714911
279 1 0.356822 0.356795 0.786255
280 1 0.428709 0.285453 0.714383
281 1 0.500027 0.357191 0.785676
282 1 0.57135 0.285413 0.714443
283 1 0.643302 0.35672 0.786425
284 1 0.715042 0.284904 0.715034
285 1 0.786044 0.356927 0.786031
286 1 0.85741 0.285496 0.714465
287 1 0.928702 0.357029 0.785853
288 1 5.3703e-05 0.428491 0.714375
289 1 0.142741 0.428492 0.714384
290 1 0.285282 0.428465 0.714595
291 1 0.427506 0.427741 0.714498
292 1 0.572744 0.427637 0.714781
293 1 0.714995 0.428325 0.714877
294 1 0.857404 0.428465 0.714481
326 1 0.214202 0.357051 0.928662
296 1 0.0714068 0.0713243 0.928661
336 1 0.92864 0.357051 0.928686
298 1 0.214244 0.0713548 0.928656
325 1 0.142774 0.285588 0.85726
300 1 0.35712 0.0713979 0.928653
335 1 0.857298 0.28556 0.857326
302 1 0.5 0.071414 0.928667
334 1 0.785849 0.357024 0.928765
304 1 0.642884 0.0713985 0.928684
305 1 0.714349 -1.23107e-07 0.857289
306 1 0.785772 0.0713545 0.928697
333 1 0.71451 0.28546 0.857503
308 1 0.92862 0.0713246 0.928681
309 1 2.15026e-05 0.142725 0.857253
310 1 0.0714027 0.214173 0.928656
311 1 0.142775 0.142699 0.857276
312 1 0.2142 0.214146 0.92869
313 1 0.285669 0.142745 0.857253
314 1 0.357132 0.214209 0.928634
315 1 0.428562 0.142794 0.857241
316 1 0.500001 0.214218 0.92865
317 1 0.571448 0.14279 0.857262
318 1 0.642878 0.214201 0.928683
319 1 0.714358 0.142731 0.857301
320 1 0.785828 0.214129 0.928755
321 1 0.857267 0.142687 0.857316
322 1 0.928631 0.214166 0.928682
323 1 3.26106e-05 0.285603 0.85725
324 1 0.0714069 0.357058 0.928649
512 1 0.0713648 0.49991 0.500047
303 1 0.571453 3.75064e-05 0.857284
301 1 0.428553 3.35648e-05 0.857266
254 1 0.571456 3.89074e-05 0.714412
252 1 0.428558 3.21486e-05 0.714395
540 1 0.0714385 0.499917 0.6429
35 1 0.428561 0.285639 1.00001
179 1 0.499996 0.0712891 0.500025
181 1 0.785824 0.0712201 0.500028
518 1 0.928585 0.499912 0.500076
182 1 0.928616 0.0712576 0.500039
511 1 0.857184 0.857071 0.428637
148 1 -7.24727e-06 0.999858 0.428608
510 1 0.714355 0.857154 0.428626
509 1 0.571479 0.857286 0.428575
508 1 0.428492 0.857312 0.428545
99 1 -1.63175e-05 0.999875 0.285739
507 1 0.285623 0.85715 0.42859
154 1 0.857198 0.999857 0.428606
352 1 0.0713787 0.642834 0.0714715
353 1 0.14279 0.571402 5.62364e-05
354 1 0.214181 0.642863 0.0714387
355 1 0.285622 0.571423 7.27886e-05
356 1 0.357051 0.642897 0.071443
357 1 0.428529 0.571453 0.000134861
358 1 0.499972 0.642924 0.0714887
359 1 0.571457 0.571455 0.00021657
360 1 0.642918 0.642901 0.0715393
361 1 0.71439 0.571428 0.00020528
362 1 0.78579 0.64286 0.071545
363 1 0.857225 0.571404 0.000137521
364 1 0.928597 0.642834 0.0715111
153 1 0.714349 0.999869 0.428596
366 1 0.0713846 0.785702 0.0714857
367 1 0.142786 0.714294 7.73902e-05
368 1 0.214189 0.785752 0.0714695
369 1 0.285605 0.714359 0.000121363
370 1 0.357067 0.785787 0.071486
371 1 0.428513 0.714404 0.000170044
372 1 0.499986 0.785797 0.0715229
373 1 0.571469 0.714408 0.000220936
374 1 0.642904 0.785783 0.071551
375 1 0.71441 0.71438 0.000234521
376 1 0.785794 0.785754 0.0715487
377 1 0.857232 0.714303 0.00015134
378 1 0.9286 0.785702 0.0715177
379 1 8.63444e-06 0.857123 9.2652e-05
380 1 0.0713977 0.928529 0.0714835
381 1 0.142798 0.85715 8.08279e-05
382 1 0.214231 0.928561 0.071475
383 1 0.285645 0.857195 9.66718e-05
384 1 0.357102 0.928589 0.0714847
385 1 0.428538 0.857225 0.000125341
386 1 0.499991 0.9286 0.0715044
387 1 0.571451 0.857227 0.000151604
388 1 0.642881 0.92859 0.0715204
389 1 0.714354 0.857205 0.000158991
390 1 0.785755 0.928563 0.0715214
391 1 0.857218 0.857164 0.000135175
392 1 0.928594 0.928531 0.0715055
515 1 0.497728 0.500692 0.484175
62 1 0.857171 0.999926 0.142902
60 1 0.714309 0.999956 0.142906
58 1 0.571431 0.999974 0.142896
56 1 0.428547 0.999974 0.14288
52 1 0.142803 0.999925 0.142872
13 1 0.857186 0.999951 0.00010024
400 1 0.999966 0.571389 0.142885
401 1 0.0713284 0.642837 0.21428
402 1 0.142742 0.5714 0.142824
403 1 0.214087 0.642897 0.214164
404 1 0.285562 0.57142 0.142737
405 1 0.356934 0.642965 0.214012
406 1 0.428487 0.571426 0.142713
407 1 0.499917 0.642982 0.214047
408 1 0.571425 0.57142 0.142734
409 1 0.642956 0.642954 0.214123
410 1 0.714349 0.57141 0.14287
411 1 0.785787 0.642863 0.214292
412 1 0.857184 0.571396 0.142906
413 1 0.928571 0.642828 0.214322
414 1 0.999973 0.714262 0.142904
415 1 0.0713472 0.7857 0.214302
416 1 0.142752 0.714293 0.142853
417 1 0.214122 0.785788 0.214221
418 1 0.285574 0.714354 0.142792
419 1 0.357032 0.785808 0.214215
420 1 0.428492 0.714376 0.142812
421 1 0.499976 0.785801 0.214254
422 1 0.571441 0.714359 0.142868
423 1 0.642898 0.785779 0.214291
424 1 0.714368 0.714342 0.142893
425 1 0.785799 0.785754 0.214303
426 1 0.857189 0.71428 0.142926
427 1 0.928584 0.785689 0.214333
428 1 0.999983 0.857107 0.142908
429 1 0.0713805 0.928498 0.214314
430 1 0.142778 0.85714 0.142877
431 1 0.214204 0.928545 0.214282
432 1 0.285635 0.857175 0.142867
433 1 0.357089 0.928572 0.214282
434 1 0.428532 0.857191 0.142885
435 1 0.499987 0.928578 0.214299
436 1 0.571437 0.857185 0.14291
437 1 0.642878 0.928563 0.214316
438 1 0.714328 0.857164 0.142926
439 1 0.785756 0.928534 0.214324
440 1 0.857186 0.857132 0.142924
441 1 0.928583 0.928496 0.214331
3 1 0.142821 0.999946 6.66141e-05
151 1 0.428533 0.999938 0.428572
516 1 0.64312 0.500622 0.498998
506 1 0.142796 0.857068 0.428615
514 1 0.356544 0.500671 0.498465
447 1 0.785884 0.499982 0.357051
152 1 0.571449 0.999938 0.428583
449 1 0.999935 0.571387 0.285719
450 1 0.0712963 0.642824 0.357154
451 1 0.142645 0.571415 0.28562
452 1 0.21389 0.642999 0.356945
453 1 0.285346 0.571497 0.285355
454 1 0.356278 0.643577 0.356298
455 1 0.428318 0.571534 0.285101
456 1 0.499812 0.643248 0.356612
457 1 0.571445 0.571486 0.284916
458 1 0.643381 0.643472 0.356617
459 1 0.714397 0.571459 0.285576
460 1 0.785891 0.642925 0.357107
461 1 0.857194 0.571403 0.285716
462 1 0.928575 0.642811 0.357195
463 1 0.99995 0.714252 0.28575
464 1 0.0713665 0.785657 0.357192
465 1 0.142667 0.714326 0.28566
466 1 0.214147 0.785744 0.357133
467 1 0.285359 0.714543 0.285436
468 1 0.356948 0.785956 0.357003
469 1 0.428422 0.714489 0.285479
470 1 0.499986 0.7859 0.357064
471 1 0.571449 0.714427 0.285571
472 1 0.642953 0.785895 0.357099
473 1 0.714485 0.714467 0.285582
474 1 0.785786 0.785724 0.357186
475 1 0.857211 0.714288 0.28574
476 1 0.928576 0.785651 0.357211
477 1 0.999976 0.857072 0.285765
478 1 0.0713853 0.928465 0.35718
479 1 0.142768 0.857108 0.285729
480 1 0.214202 0.928496 0.357152
481 1 0.285589 0.857209 0.285666
482 1 0.357066 0.928581 0.357123
483 1 0.42852 0.857213 0.285679
484 1 0.499989 0.928588 0.357139
485 1 0.571441 0.857199 0.285704
486 1 0.642899 0.928567 0.357154
487 1 0.714349 0.857176 0.285726
488 1 0.785766 0.928493 0.357179
489 1 0.857179 0.857095 0.285763
490 1 0.928585 0.928465 0.35719
491 1 0.999947 0.571357 0.428626
492 1 0.142632 0.571379 0.428554
493 1 0.284893 0.571702 0.428086
494 1 0.426108 0.573432 0.426398
495 1 0.573313 0.572801 0.42542
496 1 0.714635 0.571638 0.428426
497 1 0.857204 0.57137 0.428639
498 1 0.999975 0.714217 0.428642
499 1 0.142767 0.714241 0.42862
500 1 0.285524 0.7144 0.428539
501 1 0.428314 0.714842 0.428267
502 1 0.571572 0.714695 0.428462
503 1 0.714423 0.714413 0.428623
504 1 0.857181 0.714237 0.428663
505 1 -9.69481e-06 0.857051 0.42863
1 1 6.02499e-06 0.999927 7.71925e-05
50 1 0.999989 0.999909 0.142894
54 1 0.285666 0.999956 0.142869
101 1 0.142781 0.999875 0.285711
103 1 0.285638 0.999917 0.285691
105 1 0.428539 0.999945 0.285701
107 1 0.571434 0.999945 0.285715
109 1 0.714326 0.999915 0.285723
111 1 0.857185 0.999875 0.285731
149 1 0.142787 0.999853 0.428592
150 1 0.285632 0.999864 0.428576
365 1 8.93684e-06 0.71427 9.26594e-05
351 1 7.64183e-06 0.571392 8.16002e-05
5 1 0.285677 0.999983 6.67641e-05
521 1 0.35703 0.643042 0.499996
522 1 0.499079 0.645033 0.499791
299 1 0.285671 0.999989 0.857247
690 2 0.537231 0.571593 0.502127
307 1 0.857223 0.999934 0.857275
686 1 0.928624 0.928538 0.928683
295 1 2.10925e-05 0.999915 0.857235
685 1 0.857264 0.857179 0.857307
199 1 0.142801 0.999861 0.57148
519 1 0.0713969 0.642788 0.500063
520 1 0.21422 0.642805 0.500071
246 1 2.19688e-05 0.999889 0.714367
205 1 0.57146 0.999983 0.571512
523 1 0.64313 0.643235 0.500208
524 1 0.785783 0.642821 0.500161
297 1 0.142816 0.999922 0.85724
258 1 0.857229 0.999901 0.714392
256 1 0.714381 0.999946 0.714423
528 1 0.357058 0.785846 0.500033
529 1 0.499991 0.786318 0.500046
530 1 0.642953 0.785892 0.5001
676 1 0.214229 0.928581 0.928671
675 1 0.142806 0.85714 0.857242
533 1 0.0714018 0.928457 0.50005
250 1 0.285648 0.999927 0.714388
248 1 0.142813 0.999889 0.714366
209 1 0.857216 0.999869 0.571496
207 1 0.714375 0.99989 0.571504
203 1 0.428545 0.999975 0.5715
201 1 0.285637 0.999875 0.57148
674 1 0.0714127 0.928529 0.928659
684 1 0.785793 0.928598 0.928723
542 1 0.356745 0.500775 0.644158
543 1 0.500309 0.503545 0.65581
683 1 0.714422 0.857293 0.857378
682 1 0.642906 0.928638 0.928731
681 1 0.571481 0.857328 0.857383
547 1 2.26296e-05 0.571355 0.571495
548 1 0.0714462 0.642794 0.642908
549 1 0.142874 0.571348 0.571465
550 1 0.214257 0.642811 0.642871
551 1 0.285931 0.571173 0.571427
552 1 0.356923 0.643225 0.643089
553 1 0.427786 0.572892 0.571811
554 1 0.499869 0.643836 0.643854
555 1 0.574083 0.57386 0.575851
556 1 0.643803 0.643877 0.643956
557 1 0.714357 0.571239 0.571706
558 1 0.785983 0.642896 0.643055
559 1 0.857206 0.571354 0.571543
560 1 0.928667 0.642807 0.64295
561 1 2.30284e-05 0.714222 0.571499
562 1 0.071429 0.785654 0.64292
563 1 0.142826 0.714237 0.571482
564 1 0.214224 0.785703 0.642922
565 1 0.285645 0.714316 0.571482
566 1 0.357003 0.785958 0.643026
567 1 0.428462 0.714893 0.571737
568 1 0.50002 0.786158 0.643122
569 1 0.571581 0.714937 0.571785
570 1 0.64307 0.78609 0.643134
571 1 0.71449 0.714436 0.571617
572 1 0.785871 0.785774 0.643006
573 1 0.857241 0.714264 0.571534
574 1 0.928645 0.785672 0.642945
575 1 1.58591e-05 0.857058 0.571494
576 1 0.0714178 0.928473 0.642923
577 1 0.142819 0.85707 0.571485
578 1 0.214227 0.928501 0.642927
579 1 0.285642 0.857144 0.571487
580 1 0.357079 0.928614 0.64296
581 1 0.42851 0.857357 0.571551
582 1 0.500008 0.928707 0.642983
583 1 0.571503 0.857377 0.571576
584 1 0.642943 0.928648 0.642994
585 1 0.714396 0.857194 0.571535
586 1 0.785813 0.928532 0.642963
587 1 0.857216 0.857091 0.571513
588 1 0.928624 0.928483 0.642936
673 1 3.39839e-05 0.857113 0.85724
672 1 0.928652 0.785727 0.928711
591 1 0.356939 0.500032 0.786203
592 1 0.500034 0.500219 0.786082
680 1 0.499999 0.928649 0.928717
594 1 0.786036 0.499967 0.786071
671 1 0.857341 0.714362 0.857369
596 1 6.07397e-05 0.571368 0.714367
597 1 0.0714078 0.642834 0.785808
598 1 0.142769 0.571387 0.714364
599 1 0.214041 0.642992 0.785942
600 1 0.285196 0.571729 0.714731
601 1 0.35655 0.643538 0.78649
602 1 0.427034 0.573523 0.716091
603 1 0.499986 0.643555 0.786586
604 1 0.573257 0.573611 0.716964
605 1 0.643664 0.643692 0.786855
606 1 0.715061 0.571769 0.715041
607 1 0.786119 0.643046 0.786111
608 1 0.857388 0.571401 0.714476
609 1 0.928712 0.642847 0.785858
610 1 5.71533e-05 0.714243 0.714365
611 1 0.0714278 0.785685 0.785794
612 1 0.142821 0.714258 0.714345
613 1 0.214183 0.785782 0.785842
614 1 0.285546 0.714474 0.714465
615 1 0.356977 0.786027 0.786003
616 1 0.428365 0.715016 0.714781
617 1 0.500004 0.786093 0.78608
618 1 0.571639 0.715047 0.714879
619 1 0.643062 0.786081 0.786095
620 1 0.714745 0.714726 0.714796
621 1 0.785952 0.785884 0.785986
622 1 0.857333 0.714318 0.714446
623 1 0.928675 0.78571 0.785835
624 1 3.48247e-05 0.857083 0.714365
625 1 0.0714225 0.928502 0.785796
626 1 0.142822 0.857097 0.714358
627 1 0.214225 0.92855 0.785817
628 1 0.285624 0.857218 0.71441
629 1 0.35709 0.928661 0.785854
630 1 0.428524 0.857393 0.714478
631 1 0.500004 0.928706 0.785887
632 1 0.571497 0.857419 0.714517
633 1 0.642932 0.928684 0.785895
634 1 0.714444 0.8573 0.714493
635 1 0.785827 0.928588 0.785872
636 1 0.85725 0.857134 0.714406
637 1 0.928635 0.928515 0.785816
670 1 0.785885 0.785837 0.928823
669 1 0.714651 0.714621 0.857654
679 1 0.428527 0.857315 0.857351
678 1 0.357099 0.928627 0.928693
677 1 0.285614 0.857256 0.857307
668 1 0.64296 0.785878 0.928843
667 1 0.571549 0.714621 0.857619
645 1 4.593e-05 0.571394 0.857258
646 1 0.0714061 0.64284 0.928667
647 1 0.142785 0.571413 0.857259
648 1 0.21418 0.642889 0.928708
649 1 0.285558 0.571489 0.857401
650 1 0.357018 0.642989 0.928858
651 1 0.428484 0.571649 0.857683
652 1 0.499995 0.643055 0.928956
653 1 0.571587 0.571663 0.857925
654 1 0.64303 0.643024 0.929019
655 1 0.714566 0.57151 0.857607
656 1 0.785885 0.642911 0.928833
657 1 0.857319 0.571423 0.857358
658 1 0.928651 0.642846 0.92871
659 1 4.34422e-05 0.714278 0.857258
660 1 0.0713999 0.785716 0.928675
661 1 0.142755 0.714328 0.857279
662 1 0.214169 0.785794 0.92872
663 1 0.285463 0.714532 0.857465
664 1 0.35705 0.785856 0.92877
665 1 0.428461 0.714602 0.857545
666 1 0.499997 0.785889 0.928817
641 1 0.499998 0.499999 0.928759
593 1 0.643284 0.499972 0.786538
544 1 0.643855 0.500457 0.644776
197 1 9.20972e-06 0.999865 0.571487
539 1 0.928602 0.928462 0.500059
538 1 0.785786 0.928493 0.500062
537 1 0.642912 0.928572 0.500065
536 1 0.499998 0.928678 0.500051
535 1 0.357083 0.928559 0.50004
534 1 0.214217 0.928479 0.50004
532 1 0.928602 0.785647 0.500075
531 1 0.785799 0.785711 0.500094
527 1 0.214215 0.785686 0.500049
526 1 0.0714035 0.785641 0.50006
525 1 0.928588 0.642789 0.500089
