ITEM: TIMESTEP
8
ITEM: NUMBER OF ATOMS
687
ITEM: BOX BOUNDS pp pp pp
0.0000000000000000e+00 2.2013900999999997e+01
0.0000000000000000e+00 2.2013900999999997e+01
0.0000000000000000e+00 2.2013900999999997e+01
ITEM: ATOMS id type xs ys zs
1 1 9.03863e-07 9.03863e-07 9.03863e-07
2 1 0.0714277 0.0714277 0.0714277
518 1 0.928601 0.49999 0.49999
4 1 0.214285 0.0714262 0.0714262
5 1 0.285714 1.58693e-07 1.58693e-07
6 1 0.357143 0.0714262 0.0714262
7 1 0.428571 7.60634e-07 7.60634e-07
8 1 0.5 0.0714269 0.0714269
9 1 0.571428 1.6471e-06 1.6471e-06
10 1 0.642858 0.0714278 0.0714278
11 1 0.714286 2.37317e-06 2.37317e-06
12 1 0.785715 0.0714284 0.0714284
13 1 0.857144 2.39171e-06 2.39171e-06
14 1 0.928572 0.0714286 0.0714286
196 1 0.928578 0.357137 0.5
16 1 0.0714262 0.214285 0.0714262
448 1 0.928578 0.5 0.357137
18 1 0.214277 0.214277 0.0714058
445 1 0.499437 0.499437 0.356209
20 1 0.357145 0.214276 0.071408
517 1 0.785883 0.49997 0.49997
22 1 0.500003 0.214279 0.0714174
350 1 0.928573 0.5 0.0714294
24 1 0.642859 0.214282 0.0714226
349 1 0.785718 0.499999 0.0714308
26 1 0.785716 0.214284 0.0714264
27 1 0.857143 0.142857 2.61629e-07
28 1 0.928572 0.214285 0.0714283
29 1 1.58693e-07 0.285714 1.58693e-07
30 1 0.0714262 0.357143 0.0714262
348 1 0.642862 0.5 0.0714238
32 1 0.214276 0.357145 0.071408
164 1 0.28539 0.28539 0.428588
34 1 0.357142 0.357142 0.0713967
163 1 0.142783 0.285686 0.428585
36 1 0.500002 0.35714 0.0714086
162 1 0.999994 0.285711 0.428572
38 1 0.642862 0.35714 0.0714179
39 1 0.714287 0.285711 1.04952e-06
40 1 0.785717 0.357142 0.0714275
41 1 0.857144 0.285713 2.17211e-06
42 1 0.928572 0.357142 0.0714286
43 1 7.60634e-07 0.428571 7.60634e-07
161 1 0.857146 0.142855 0.428571
160 1 0.714295 0.142846 0.428575
193 1 0.499437 0.356209 0.499437
47 1 0.571429 0.428567 4.7998e-06
48 1 0.714289 0.428567 1.06935e-05
49 1 0.857147 0.428569 5.93038e-06
515 1 0.486255 0.486255 0.486255
51 1 0.0714262 0.0714262 0.214285
175 1 0.857174 0.428556 0.428556
53 1 0.214277 0.0714058 0.214277
174 1 0.714386 0.428594 0.428594
55 1 0.357145 0.071408 0.214276
173 1 0.572832 0.427119 0.427119
57 1 0.500003 0.0714174 0.214279
172 1 0.422763 0.422763 0.422763
59 1 0.642859 0.0714226 0.214282
171 1 0.285547 0.428456 0.428456
61 1 0.785716 0.0714264 0.214284
62 1 0.857143 2.61629e-07 0.142857
63 1 0.928572 0.0714283 0.214285
64 1 0.999998 0.142856 0.142856
65 1 0.0714058 0.214277 0.214277
66 1 0.142836 0.142836 0.142836
67 1 0.214049 0.214049 0.214049
68 1 0.285711 0.142833 0.142833
69 1 0.357154 0.214171 0.214171
70 1 0.428576 0.142842 0.142842
71 1 0.500023 0.214231 0.214231
72 1 0.571432 0.142849 0.142849
73 1 0.642876 0.214255 0.214255
74 1 0.714288 0.142853 0.142853
75 1 0.785729 0.214272 0.214272
76 1 0.857144 0.142856 0.142856
77 1 0.928573 0.214284 0.214284
78 1 0.999998 0.285714 0.142855
79 1 0.071408 0.357145 0.214276
80 1 0.142833 0.285711 0.142833
81 1 0.214171 0.357154 0.214171
82 1 0.285677 0.285677 0.142714
83 1 0.357047 0.357047 0.213871
84 1 0.428585 0.285686 0.142783
85 1 0.500014 0.35709 0.214113
86 1 0.571439 0.285698 0.142819
87 1 0.642903 0.357116 0.214181
88 1 0.714297 0.285706 0.142836
89 1 0.785732 0.357142 0.21427
90 1 0.857146 0.285713 0.142854
91 1 0.928573 0.357143 0.214283
92 1 0.999998 0.428572 0.142855
93 1 0.142842 0.428576 0.142842
94 1 0.285686 0.428585 0.142783
95 1 0.428575 0.428575 0.142802
96 1 0.571445 0.428571 0.142815
97 1 0.714295 0.428575 0.142846
98 1 0.857146 0.428571 0.142855
99 1 1.58693e-07 1.58693e-07 0.285714
100 1 0.0714262 0.0714262 0.357143
170 1 0.142802 0.428575 0.428575
102 1 0.214276 0.071408 0.357145
169 1 0.999998 0.428569 0.428569
104 1 0.357142 0.0713967 0.357142
168 1 0.857153 0.285707 0.428574
106 1 0.500002 0.0714086 0.35714
167 1 0.714343 0.285668 0.428602
108 1 0.642862 0.0714179 0.35714
109 1 0.714287 1.04952e-06 0.285711
110 1 0.785717 0.0714275 0.357142
111 1 0.857144 2.17211e-06 0.285713
112 1 0.928572 0.0714286 0.357142
113 1 0.999998 0.142855 0.285714
114 1 0.071408 0.214276 0.357145
115 1 0.142833 0.142833 0.285711
116 1 0.214171 0.214171 0.357154
117 1 0.285677 0.142714 0.285677
118 1 0.357047 0.213871 0.357047
119 1 0.428585 0.142783 0.285686
120 1 0.500014 0.214113 0.35709
121 1 0.571439 0.142819 0.285698
122 1 0.642903 0.214181 0.357116
123 1 0.714297 0.142836 0.285706
124 1 0.785732 0.21427 0.357142
125 1 0.857146 0.142854 0.285713
126 1 0.928573 0.214283 0.357143
127 1 0.999993 0.285712 0.285712
128 1 0.0713967 0.357142 0.357142
129 1 0.142714 0.285677 0.285677
130 1 0.213871 0.357047 0.357047
131 1 0.284216 0.284216 0.284216
132 1 0.353695 0.353695 0.353695
133 1 0.428588 0.28539 0.28539
134 1 0.500175 0.356318 0.356318
135 1 0.57152 0.285549 0.285549
136 1 0.643423 0.356606 0.356606
137 1 0.714395 0.28562 0.28562
138 1 0.785804 0.357119 0.357119
139 1 0.857162 0.285707 0.285707
140 1 0.928579 0.357139 0.357139
141 1 0.999994 0.428572 0.285711
142 1 0.142783 0.428585 0.285686
143 1 0.28539 0.428588 0.28539
144 1 0.428456 0.428456 0.285547
145 1 0.571497 0.42851 0.285529
146 1 0.714343 0.428602 0.285668
147 1 0.857153 0.428574 0.285707
148 1 7.60634e-07 7.60634e-07 0.428571
166 1 0.571497 0.285529 0.42851
165 1 0.428456 0.285547 0.428456
514 1 0.356209 0.499437 0.499437
152 1 0.571429 4.7998e-06 0.428567
153 1 0.714289 1.06935e-05 0.428567
154 1 0.857147 5.93038e-06 0.428569
155 1 0.999998 0.142855 0.428572
156 1 0.142842 0.142842 0.428576
157 1 0.285686 0.142783 0.428585
158 1 0.428575 0.142802 0.428575
159 1 0.571445 0.142815 0.428571
180 1 0.642862 0.0714238 0.5
181 1 0.785718 0.0714308 0.499999
182 1 0.928573 0.0714294 0.5
176 1 0.0714269 0.0714269 0.5
177 1 0.214279 0.0714174 0.500003
178 1 0.35714 0.0714086 0.500002
179 1 0.500001 0.0714122 0.500001
644 1 0.92858 0.499996 0.92858
643 1 0.78573 0.49999 0.92861
642 1 0.642858 0.499984 0.928614
183 1 0.0714174 0.214279 0.500003
184 1 0.214231 0.214231 0.500023
185 1 0.35709 0.214113 0.500014
186 1 0.500005 0.214122 0.500005
187 1 0.642889 0.21425 0.500007
188 1 0.785722 0.214281 0.500003
641 1 0.49999 0.49999 0.928601
190 1 0.0714086 0.35714 0.500002
191 1 0.214113 0.35709 0.500014
192 1 0.356318 0.356318 0.500175
640 1 0.357137 0.5 0.928578
194 1 0.64266 0.357444 0.500099
195 1 0.785745 0.357123 0.500016
45 1 0.285711 0.428572 0.999994
197 1 1.6471e-06 1.6471e-06 0.571428
198 1 0.0714278 0.0714278 0.642858
343 1 0.857174 0.428553 0.857174
200 1 0.214282 0.0714226 0.642859
342 1 0.714312 0.428525 0.857247
202 1 0.35714 0.0714179 0.642862
203 1 0.428567 4.7998e-06 0.571429
204 1 0.5 0.0714238 0.642862
205 1 0.571428 1.63424e-05 0.571428
206 1 0.642859 0.0714304 0.642859
207 1 0.714289 1.99418e-05 0.571426
208 1 0.785718 0.0714348 0.642857
209 1 0.857149 1.11578e-05 0.571426
210 1 0.928573 0.0714304 0.642857
211 1 0.999999 0.142856 0.571429
212 1 0.0714226 0.214282 0.642859
213 1 0.142849 0.142849 0.571432
214 1 0.214255 0.214255 0.642876
215 1 0.285698 0.142819 0.571439
216 1 0.357116 0.214181 0.642903
217 1 0.428571 0.142815 0.571445
218 1 0.500007 0.21425 0.642889
219 1 0.571439 0.142827 0.571439
220 1 0.642872 0.214255 0.642872
221 1 0.714292 0.142851 0.571429
222 1 0.785722 0.214275 0.642855
223 1 0.857146 0.142855 0.571428
224 1 0.928574 0.214283 0.642857
225 1 0.999998 0.285711 0.571429
226 1 0.0714179 0.35714 0.642862
227 1 0.142819 0.285698 0.571439
228 1 0.214181 0.357116 0.642903
229 1 0.285549 0.285549 0.57152
230 1 0.356606 0.356606 0.643423
231 1 0.42851 0.285529 0.571497
232 1 0.500099 0.357444 0.64266
233 1 0.571458 0.285546 0.571458
234 1 0.642835 0.357043 0.642835
235 1 0.714305 0.285684 0.571412
236 1 0.785761 0.357085 0.642826
237 1 0.857148 0.285706 0.571426
238 1 0.928583 0.357133 0.642854
239 1 4.7998e-06 0.428567 0.571429
240 1 0.142815 0.428571 0.571445
241 1 0.285529 0.42851 0.571497
242 1 0.427119 0.427119 0.572832
243 1 0.570836 0.427652 0.570836
244 1 0.713985 0.428769 0.57133
245 1 0.857178 0.42854 0.571422
246 1 2.37317e-06 2.37317e-06 0.714286
247 1 0.0714284 0.0714284 0.785715
341 1 0.571422 0.42854 0.857178
249 1 0.214284 0.0714264 0.785716
250 1 0.285711 1.04952e-06 0.714287
251 1 0.357142 0.0714275 0.785717
252 1 0.428567 1.06935e-05 0.714289
253 1 0.499999 0.0714308 0.785718
254 1 0.571426 1.99418e-05 0.714289
255 1 0.642857 0.0714348 0.785718
256 1 0.714287 3.18427e-05 0.714287
257 1 0.785717 0.0714356 0.785717
258 1 0.857153 2.05369e-05 0.714283
259 1 0.928573 0.0714309 0.785715
260 1 1 0.142857 0.714286
261 1 0.0714264 0.214284 0.785716
262 1 0.142853 0.142853 0.714288
263 1 0.214272 0.214272 0.785729
264 1 0.285706 0.142836 0.714297
265 1 0.357142 0.21427 0.785732
266 1 0.428575 0.142846 0.714295
267 1 0.500003 0.214281 0.785722
268 1 0.571429 0.142851 0.714292
269 1 0.642855 0.214275 0.785722
270 1 0.714289 0.142849 0.714289
271 1 0.785722 0.214267 0.785722
272 1 0.857146 0.142855 0.714286
273 1 0.928574 0.214283 0.785715
274 1 1.04952e-06 0.285711 0.714287
275 1 0.0714275 0.357142 0.785717
276 1 0.142836 0.285706 0.714297
277 1 0.21427 0.357142 0.785732
278 1 0.28562 0.28562 0.714395
279 1 0.357119 0.357119 0.785804
280 1 0.428602 0.285668 0.714343
281 1 0.500016 0.357123 0.785745
282 1 0.571412 0.285684 0.714305
283 1 0.642826 0.357085 0.785761
284 1 0.714309 0.285625 0.714309
285 1 0.785808 0.357033 0.785808
286 1 0.857158 0.285696 0.714286
287 1 0.928592 0.357132 0.785723
288 1 1.06935e-05 0.428567 0.714289
289 1 0.142846 0.428575 0.714295
290 1 0.285668 0.428602 0.714343
291 1 0.428594 0.428594 0.714386
292 1 0.57133 0.428769 0.713985
293 1 0.714823 0.428006 0.714823
294 1 0.857247 0.428525 0.714312
295 1 2.39171e-06 2.39171e-06 0.857144
296 1 0.0714286 0.0714286 0.928572
297 1 0.142857 2.61629e-07 0.857143
298 1 0.214285 0.0714283 0.928572
299 1 0.285713 2.17211e-06 0.857144
300 1 0.357142 0.0714286 0.928572
301 1 0.428569 5.93038e-06 0.857147
302 1 0.5 0.0714294 0.928573
303 1 0.571426 1.11578e-05 0.857149
304 1 0.642857 0.0714304 0.928573
305 1 0.714283 2.05369e-05 0.857153
306 1 0.785715 0.0714309 0.928573
307 1 0.857151 2.27657e-05 0.857151
308 1 0.928572 0.0714302 0.928572
309 1 2.61629e-07 0.142857 0.857143
310 1 0.0714283 0.214285 0.928572
311 1 0.142856 0.142856 0.857144
312 1 0.214284 0.214284 0.928573
313 1 0.285713 0.142854 0.857146
314 1 0.357143 0.214283 0.928573
315 1 0.428571 0.142855 0.857146
316 1 0.5 0.214283 0.928574
317 1 0.571428 0.142855 0.857146
318 1 0.642857 0.214283 0.928574
319 1 0.714286 0.142855 0.857146
320 1 0.785715 0.214283 0.928574
321 1 0.857144 0.142856 0.857144
322 1 0.928573 0.214284 0.928573
323 1 2.17211e-06 0.285713 0.857144
324 1 0.0714286 0.357142 0.928572
325 1 0.142854 0.285713 0.857146
326 1 0.214283 0.357143 0.928573
327 1 0.285707 0.285707 0.857162
328 1 0.357139 0.357139 0.928579
329 1 0.428574 0.285707 0.857153
330 1 0.5 0.357137 0.928578
331 1 0.571426 0.285706 0.857148
332 1 0.642854 0.357133 0.928583
333 1 0.714286 0.285696 0.857158
334 1 0.785723 0.357132 0.928592
335 1 0.857156 0.285699 0.857156
336 1 0.928576 0.35714 0.928576
337 1 5.93038e-06 0.428569 0.857147
338 1 0.142855 0.428571 0.857146
339 1 0.285707 0.428574 0.857153
340 1 0.428556 0.428556 0.857174
638 1 0.0714294 0.5 0.928573
595 1 0.92861 0.49999 0.78573
594 1 0.78588 0.499909 0.78588
593 1 0.642918 0.499932 0.7859
540 1 0.0714238 0.5 0.642862
544 1 0.64431 0.498597 0.64431
545 1 0.7859 0.499932 0.642918
546 1 0.928614 0.499984 0.642858
589 1 0.0714308 0.499999 0.785718
592 1 0.49997 0.49997 0.785883
17 1 0.142856 0.142856 0.999998
19 1 0.285714 0.142855 0.999998
21 1 0.428572 0.142855 0.999998
23 1 0.571429 0.142856 0.999999
25 1 0.714286 0.142857 1
31 1 0.142855 0.285714 0.999998
33 1 0.285712 0.285712 0.999993
35 1 0.428572 0.285711 0.999994
37 1 0.571429 0.285711 0.999998
44 1 0.142855 0.428572 0.999998
15 1 1 0.142857 1
46 1 0.428569 0.428569 0.999998
189 1 0.928574 0.214283 0.5
344 1 0.0714269 0.5 0.0714269
345 1 0.214279 0.500003 0.0714174
346 1 0.35714 0.500002 0.0714086
347 1 0.500001 0.500001 0.0714122
511 1 0.857174 0.857174 0.428553
510 1 0.714312 0.857247 0.428525
509 1 0.571422 0.857178 0.42854
351 1 1.6471e-06 0.571428 1.6471e-06
352 1 0.0714278 0.642858 0.0714278
150 1 0.285711 0.999994 0.428572
354 1 0.214282 0.642859 0.0714226
149 1 0.142855 0.999998 0.428572
356 1 0.35714 0.642862 0.0714179
357 1 0.428567 0.571429 4.7998e-06
358 1 0.5 0.642862 0.0714238
359 1 0.571428 0.571428 1.63424e-05
360 1 0.642859 0.642859 0.0714304
361 1 0.714289 0.571426 1.99418e-05
362 1 0.785718 0.642857 0.0714348
363 1 0.857149 0.571426 1.11578e-05
364 1 0.928573 0.642857 0.0714304
365 1 2.37317e-06 0.714286 2.37317e-06
366 1 0.0714284 0.785715 0.0714284
107 1 0.571429 0.999998 0.285711
368 1 0.214284 0.785716 0.0714264
369 1 0.285711 0.714287 1.04952e-06
370 1 0.357142 0.785717 0.0714275
371 1 0.428567 0.714289 1.06935e-05
372 1 0.499999 0.785718 0.0714308
373 1 0.571426 0.714289 1.99418e-05
374 1 0.642857 0.785718 0.0714348
375 1 0.714287 0.714287 3.18427e-05
376 1 0.785717 0.785717 0.0714356
377 1 0.857153 0.714283 2.05369e-05
378 1 0.928573 0.785715 0.0714309
379 1 2.39171e-06 0.857144 2.39171e-06
380 1 0.0714286 0.928572 0.0714286
381 1 0.142857 0.857143 2.61629e-07
382 1 0.214285 0.928572 0.0714283
383 1 0.285713 0.857144 2.17211e-06
384 1 0.357142 0.928572 0.0714286
385 1 0.428569 0.857147 5.93038e-06
386 1 0.5 0.928573 0.0714294
387 1 0.571426 0.857149 1.11578e-05
388 1 0.642857 0.928573 0.0714304
389 1 0.714283 0.857153 2.05369e-05
390 1 0.785715 0.928573 0.0714309
391 1 0.857151 0.857151 2.27657e-05
392 1 0.928572 0.928572 0.0714302
393 1 0.0714174 0.500003 0.214279
394 1 0.214231 0.500023 0.214231
395 1 0.35709 0.500014 0.214113
396 1 0.500005 0.500005 0.214122
397 1 0.642889 0.500007 0.21425
398 1 0.785722 0.500003 0.214281
508 1 0.428556 0.857174 0.428556
400 1 0.999999 0.571429 0.142856
401 1 0.0714226 0.642859 0.214282
402 1 0.142849 0.571432 0.142849
403 1 0.214255 0.642876 0.214255
404 1 0.285698 0.571439 0.142819
405 1 0.357116 0.642903 0.214181
406 1 0.428571 0.571445 0.142815
407 1 0.500007 0.642889 0.21425
408 1 0.571439 0.571439 0.142827
409 1 0.642872 0.642872 0.214255
410 1 0.714292 0.571429 0.142851
411 1 0.785722 0.642855 0.214275
412 1 0.857146 0.571428 0.142855
413 1 0.928574 0.642857 0.214283
414 1 1 0.714286 0.142857
415 1 0.0714264 0.785716 0.214284
416 1 0.142853 0.714288 0.142853
417 1 0.214272 0.785729 0.214272
418 1 0.285706 0.714297 0.142836
419 1 0.357142 0.785732 0.21427
420 1 0.428575 0.714295 0.142846
421 1 0.500003 0.785722 0.214281
422 1 0.571429 0.714292 0.142851
423 1 0.642855 0.785722 0.214275
424 1 0.714289 0.714289 0.142849
425 1 0.785722 0.785722 0.214267
426 1 0.857146 0.714286 0.142855
427 1 0.928574 0.785715 0.214283
428 1 2.61629e-07 0.857143 0.142857
429 1 0.0714283 0.928572 0.214285
430 1 0.142856 0.857144 0.142856
431 1 0.214284 0.928573 0.214284
432 1 0.285713 0.857146 0.142854
433 1 0.357143 0.928573 0.214283
434 1 0.428571 0.857146 0.142855
435 1 0.5 0.928574 0.214283
436 1 0.571428 0.857146 0.142855
437 1 0.642857 0.928574 0.214283
438 1 0.714286 0.857146 0.142855
439 1 0.785715 0.928574 0.214283
440 1 0.857144 0.857144 0.142856
441 1 0.928573 0.928573 0.214284
442 1 0.0714086 0.500002 0.35714
443 1 0.214113 0.500014 0.35709
444 1 0.356318 0.500175 0.356318
507 1 0.285707 0.857153 0.428574
446 1 0.64266 0.500099 0.357444
447 1 0.785745 0.500016 0.357123
506 1 0.142855 0.857146 0.428571
449 1 0.999998 0.571429 0.285711
450 1 0.0714179 0.642862 0.35714
451 1 0.142819 0.571439 0.285698
452 1 0.214181 0.642903 0.357116
453 1 0.285549 0.57152 0.285549
454 1 0.356606 0.643423 0.356606
455 1 0.42851 0.571497 0.285529
456 1 0.500099 0.64266 0.357444
457 1 0.571458 0.571458 0.285546
458 1 0.642835 0.642835 0.357043
459 1 0.714305 0.571412 0.285684
460 1 0.785761 0.642826 0.357085
461 1 0.857148 0.571426 0.285706
462 1 0.928583 0.642854 0.357133
463 1 1.04952e-06 0.714287 0.285711
464 1 0.0714275 0.785717 0.357142
465 1 0.142836 0.714297 0.285706
466 1 0.21427 0.785732 0.357142
467 1 0.28562 0.714395 0.28562
468 1 0.357119 0.785804 0.357119
469 1 0.428602 0.714343 0.285668
470 1 0.500016 0.785745 0.357123
471 1 0.571412 0.714305 0.285684
472 1 0.642826 0.785761 0.357085
473 1 0.714309 0.714309 0.285625
474 1 0.785808 0.785808 0.357033
475 1 0.857158 0.714286 0.285696
476 1 0.928592 0.785723 0.357132
477 1 2.17211e-06 0.857144 0.285713
478 1 0.0714286 0.928572 0.357142
479 1 0.142854 0.857146 0.285713
480 1 0.214283 0.928573 0.357143
481 1 0.285707 0.857162 0.285707
482 1 0.357139 0.928579 0.357139
483 1 0.428574 0.857153 0.285707
484 1 0.5 0.928578 0.357137
485 1 0.571426 0.857148 0.285706
486 1 0.642854 0.928583 0.357133
487 1 0.714286 0.857158 0.285696
488 1 0.785723 0.928592 0.357132
489 1 0.857156 0.857156 0.285699
490 1 0.928576 0.928576 0.35714
491 1 4.7998e-06 0.571429 0.428567
492 1 0.142815 0.571445 0.428571
493 1 0.285529 0.571497 0.42851
494 1 0.427119 0.572832 0.427119
495 1 0.570836 0.570836 0.427652
496 1 0.713985 0.57133 0.428769
497 1 0.857178 0.571422 0.42854
498 1 1.06935e-05 0.714289 0.428567
499 1 0.142846 0.714295 0.428575
500 1 0.285668 0.714343 0.428602
501 1 0.428594 0.714386 0.428594
502 1 0.57133 0.713985 0.428769
503 1 0.714823 0.714823 0.428006
504 1 0.857247 0.714312 0.428525
505 1 5.93038e-06 0.857147 0.428569
52 1 0.142856 0.999998 0.142856
54 1 0.285714 0.999998 0.142855
56 1 0.428572 0.999998 0.142855
58 1 0.571429 0.999999 0.142856
60 1 0.714286 1 0.142857
101 1 0.142855 0.999998 0.285714
103 1 0.285712 0.999993 0.285712
105 1 0.428572 0.999994 0.285711
519 1 0.0714238 0.642862 0.5
523 1 0.64431 0.64431 0.498597
524 1 0.7859 0.642918 0.499932
525 1 0.928614 0.642858 0.499984
526 1 0.0714308 0.785718 0.499999
529 1 0.49997 0.785883 0.49997
530 1 0.642918 0.7859 0.499932
531 1 0.78588 0.78588 0.499909
532 1 0.92861 0.78573 0.49999
533 1 0.0714294 0.928573 0.5
151 1 0.428569 0.999998 0.428569
535 1 0.357137 0.928578 0.5
536 1 0.49999 0.928601 0.49999
537 1 0.642858 0.928614 0.499984
538 1 0.78573 0.92861 0.49999
539 1 0.92858 0.92858 0.499996
50 1 1 1 0.142857
399 1 0.928574 0.5 0.214283
512 1 0.0714122 0.500001 0.500001
513 1 0.214122 0.500005 0.500005
687 3 0.535714 0.535714 0.535714
686 1 0.928593 0.928593 0.928593
516 1 0.643776 0.500592 0.500592
685 1 0.85738 0.85738 0.85738
684 1 0.785717 0.928596 0.928596
248 1 0.142857 1 0.714286
520 1 0.21425 0.642889 0.500007
521 1 0.357444 0.64266 0.500099
522 1 0.500592 0.643776 0.500592
201 1 0.285711 0.999998 0.571429
199 1 0.142856 0.999999 0.571429
667 1 0.571414 0.714338 0.857316
666 1 0.49999 0.78573 0.92861
527 1 0.214281 0.785722 0.500003
528 1 0.357123 0.785745 0.500016
665 1 0.428525 0.714312 0.857247
664 1 0.357132 0.785723 0.928592
663 1 0.285696 0.714286 0.857158
662 1 0.214283 0.785715 0.928574
661 1 0.142855 0.714286 0.857146
660 1 0.0714309 0.785715 0.928573
659 1 2.05369e-05 0.714283 0.857153
658 1 0.928586 0.642852 0.928586
657 1 0.857197 0.571406 0.857197
656 1 0.785742 0.642843 0.928645
655 1 0.714338 0.571414 0.857316
683 1 0.714274 0.857257 0.857257
541 1 0.21425 0.500007 0.642889
542 1 0.357444 0.500099 0.64266
543 1 0.500592 0.500592 0.643776
682 1 0.642852 0.928586 0.928586
681 1 0.571406 0.857197 0.857197
680 1 0.499996 0.92858 0.92858
547 1 1.63424e-05 0.571428 0.571428
548 1 0.0714304 0.642859 0.642859
549 1 0.142827 0.571439 0.571439
550 1 0.214255 0.642872 0.642872
551 1 0.285546 0.571458 0.571458
552 1 0.357043 0.642835 0.642835
553 1 0.427652 0.570836 0.570836
554 1 0.498597 0.64431 0.64431
555 1 0.585174 0.585174 0.585174
556 1 0.648666 0.648666 0.648666
557 1 0.715219 0.571991 0.571991
558 1 0.785881 0.642972 0.642972
559 1 0.857307 0.571424 0.571424
560 1 0.928627 0.642854 0.642854
561 1 1.99418e-05 0.714289 0.571426
562 1 0.0714348 0.785718 0.642857
563 1 0.142851 0.714292 0.571429
564 1 0.214275 0.785722 0.642855
565 1 0.285684 0.714305 0.571412
566 1 0.357085 0.785761 0.642826
567 1 0.428769 0.713985 0.57133
568 1 0.499932 0.7859 0.642918
569 1 0.571991 0.715219 0.571991
570 1 0.642972 0.785881 0.642972
571 1 0.715111 0.715111 0.571254
572 1 0.786038 0.786038 0.64284
573 1 0.857316 0.714338 0.571414
574 1 0.928645 0.785742 0.642843
575 1 1.11578e-05 0.857149 0.571426
576 1 0.0714304 0.928573 0.642857
577 1 0.142855 0.857146 0.571428
578 1 0.214283 0.928574 0.642857
579 1 0.285706 0.857148 0.571426
580 1 0.357133 0.928583 0.642854
581 1 0.42854 0.857178 0.571422
582 1 0.499984 0.928614 0.642858
583 1 0.571424 0.857307 0.571424
584 1 0.642854 0.928627 0.642854
585 1 0.714338 0.857316 0.571414
586 1 0.785742 0.928645 0.642843
587 1 0.857197 0.857197 0.571406
588 1 0.928586 0.928586 0.642852
679 1 0.428553 0.857174 0.857174
590 1 0.214281 0.500003 0.785722
591 1 0.357123 0.500016 0.785745
678 1 0.35714 0.928576 0.928576
677 1 0.285699 0.857156 0.857156
676 1 0.214284 0.928573 0.928573
675 1 0.142856 0.857144 0.857144
596 1 1.99418e-05 0.571426 0.714289
597 1 0.0714348 0.642857 0.785718
598 1 0.142851 0.571429 0.714292
599 1 0.214275 0.642855 0.785722
600 1 0.285684 0.571412 0.714305
601 1 0.357085 0.642826 0.785761
602 1 0.428769 0.57133 0.713985
603 1 0.499932 0.642918 0.7859
604 1 0.571991 0.571991 0.715219
605 1 0.642972 0.642972 0.785881
606 1 0.715111 0.571254 0.715111
607 1 0.786038 0.64284 0.786038
608 1 0.857316 0.571414 0.714338
609 1 0.928645 0.642843 0.785742
610 1 3.18427e-05 0.714287 0.714287
611 1 0.0714356 0.785717 0.785717
612 1 0.142849 0.714289 0.714289
613 1 0.214267 0.785722 0.785722
614 1 0.285625 0.714309 0.714309
615 1 0.357033 0.785808 0.785808
616 1 0.428006 0.714823 0.714823
617 1 0.499909 0.78588 0.78588
618 1 0.571254 0.715111 0.715111
619 1 0.64284 0.786038 0.786038
620 1 0.717733 0.717733 0.717733
621 1 0.787212 0.787212 0.787212
622 1 0.857557 0.714381 0.714381
623 1 0.928714 0.785752 0.785752
624 1 2.05369e-05 0.857153 0.714283
625 1 0.0714309 0.928573 0.785715
626 1 0.142855 0.857146 0.714286
627 1 0.214283 0.928574 0.785715
628 1 0.285696 0.857158 0.714286
629 1 0.357132 0.928592 0.785723
630 1 0.428525 0.857247 0.714312
631 1 0.49999 0.92861 0.78573
632 1 0.571414 0.857316 0.714338
633 1 0.642843 0.928645 0.785742
634 1 0.714381 0.857557 0.714381
635 1 0.785752 0.928714 0.785752
636 1 0.857257 0.857257 0.714274
637 1 0.928596 0.928596 0.785717
674 1 0.0714302 0.928572 0.928572
673 1 2.27657e-05 0.857151 0.857151
672 1 0.928596 0.785717 0.928596
671 1 0.857257 0.714274 0.857257
670 1 0.785752 0.785752 0.928714
669 1 0.714381 0.714381 0.857557
668 1 0.642843 0.785742 0.928645
645 1 1.11578e-05 0.571426 0.857149
646 1 0.0714304 0.642857 0.928573
647 1 0.142855 0.571428 0.857146
648 1 0.214283 0.642857 0.928574
649 1 0.285706 0.571426 0.857148
650 1 0.357133 0.642854 0.928583
651 1 0.42854 0.571422 0.857178
652 1 0.499984 0.642858 0.928614
653 1 0.571424 0.571424 0.857307
654 1 0.642854 0.642854 0.928627
353 1 0.142856 0.571429 0.999999
355 1 0.285711 0.571429 0.999998
367 1 0.142857 0.714286 1
639 1 0.214283 0.5 0.928574
534 1 0.214283 0.928574 0.5
3 1 0.142857 1 1
