ITEM: TIMESTEP
120
ITEM: NUMBER OF ATOMS
693
ITEM: BOX BOUNDS pp pp pp
-5.4763554122318602e-03 2.2015023352267999e+01
-4.5437370873016129e-03 2.2014090733943089e+01
-8.9749398988091308e-03 2.2018521936754581e+01
ITEM: ATOMS id type xs ys zs
1 1 1.31112e-10 1.31632e-10 1.31455e-10
2 1 0.0714286 0.0714286 0.0714286
3 1 0.142857 1.24574e-10 1.36893e-10
4 1 0.214286 0.0714286 0.0714286
5 1 0.285714 1.7509e-10 1.19638e-10
6 1 0.357143 0.0714286 0.0714286
7 1 0.428571 6.86744e-11 8.08097e-11
8 1 0.5 0.0714286 0.0714286
9 1 0.571429 1.99459e-10 2.01925e-10
10 1 0.642857 0.0714286 0.0714286
11 1 0.714286 1.34851e-10 1.17704e-10
12 1 0.785714 0.0714286 0.0714286
13 1 0.857143 1.28846e-10 1.32332e-10
14 1 0.928571 0.0714286 0.0714286
15 1 1.32761e-10 0.142857 1.38151e-10
16 1 0.0714286 0.214286 0.0714286
17 1 0.142857 0.142857 2.33837e-10
18 1 0.214286 0.214286 0.0714286
19 1 0.285714 0.142857 -1.83004e-09
20 1 0.357143 0.214286 0.0714285
21 1 0.428571 0.142857 5.09317e-09
22 1 0.5 0.214286 0.0714287
23 1 0.571429 0.142857 4.59817e-09
24 1 0.642857 0.214286 0.0714285
25 1 0.714286 0.142857 -8.12916e-10
26 1 0.785714 0.214286 0.0714286
27 1 0.857143 0.142857 1.41711e-10
28 1 0.928571 0.214286 0.0714286
29 1 1.36318e-10 0.285714 1.07693e-10
30 1 0.0714286 0.357143 0.0714286
31 1 0.142857 0.285714 -1.21481e-10
32 1 0.214286 0.357143 0.0714286
33 1 0.285714 0.285714 1.43501e-08
34 1 0.357143 0.357143 0.0714291
35 1 0.428571 0.285714 1
36 1 0.5 0.357143 0.0714266
37 1 0.571429 0.285714 1
38 1 0.642857 0.357143 0.0714289
39 1 0.714286 0.285714 8.80484e-09
40 1 0.785714 0.357143 0.0714286
41 1 0.857143 0.285714 5.60142e-10
42 1 0.928571 0.357143 0.0714286
43 1 1.0017e-10 0.428571 1.55918e-10
44 1 0.0714286 0.5 0.0714286
45 1 0.142857 0.428571 -1.96917e-09
46 1 0.214286 0.5 0.0714286
47 1 0.285714 0.428571 6.25618e-09
48 1 0.357144 0.5 0.0714297
49 1 0.428571 0.428571 9.28888e-08
50 1 0.5 0.5 0.0714308
51 1 0.571429 0.428571 1.89218e-07
52 1 0.642856 0.5 0.0714299
53 1 0.714286 0.428571 8.23308e-09
54 1 0.785714 0.5 0.0714286
55 1 0.857143 0.428571 -1.71922e-09
56 1 0.928571 0.5 0.0714286
57 1 1.19199e-10 0.571429 1.63129e-10
58 1 0.0714286 0.642857 0.0714286
59 1 0.142857 0.571429 -1.52983e-09
60 1 0.214286 0.642857 0.0714286
61 1 0.285714 0.571429 4.18884e-08
62 1 0.357143 0.642857 0.071429
63 1 0.428571 0.571429 1
64 1 0.5 0.642856 0.0714294
65 1 0.571429 0.571429 6.59033e-08
66 1 0.642857 0.642857 0.0714286
67 1 0.714286 0.571429 1.69344e-08
68 1 0.785714 0.642857 0.0714286
69 1 0.857143 0.571429 -1.07114e-09
70 1 0.928571 0.642857 0.0714286
71 1 1.22022e-10 0.714286 1.10012e-10
72 1 0.0714286 0.785714 0.0714286
73 1 0.142857 0.714286 -4.31737e-10
74 1 0.214286 0.785714 0.0714286
75 1 0.285714 0.714286 1.08046e-08
76 1 0.357143 0.785714 0.0714285
77 1 0.428571 0.714286 3.23562e-08
78 1 0.5 0.785714 0.0714285
79 1 0.571429 0.714286 -5.52256e-09
80 1 0.642857 0.785714 0.0714286
81 1 0.714286 0.714286 8.40535e-13
82 1 0.785714 0.785714 0.0714286
83 1 0.857143 0.714286 4.68587e-10
84 1 0.928571 0.785714 0.0714286
85 1 1.36325e-10 0.857143 1.37909e-10
86 1 0.0714286 0.928571 0.0714286
87 1 0.142857 0.857143 2.80179e-10
88 1 0.214286 0.928571 0.0714286
89 1 0.285714 0.857143 -1.14323e-09
90 1 0.357143 0.928571 0.0714286
91 1 0.428571 0.857143 -2.17322e-09
92 1 0.5 0.928571 0.0714286
93 1 0.571429 0.857143 -2.01879e-09
94 1 0.642857 0.928571 0.0714286
95 1 0.714286 0.857143 3.04799e-10
96 1 0.785714 0.928571 0.0714286
97 1 0.857143 0.857143 1.15996e-10
98 1 0.928571 0.928571 0.0714286
99 1 1.31822e-10 1.31417e-10 0.142857
100 1 0.0714286 0.0714286 0.214286
101 1 0.142857 1.45226e-10 0.142857
102 1 0.214286 0.0714286 0.214286
103 1 0.285714 -6.27931e-10 0.142857
104 1 0.357143 0.0714285 0.214286
105 1 0.428571 8.08853e-10 0.142857
106 1 0.5 0.0714286 0.214286
107 1 0.571429 -2.91658e-10 0.142857
108 1 0.642857 0.0714286 0.214286
109 1 0.714286 -2.42365e-10 0.142857
110 1 0.785714 0.0714286 0.214286
111 1 0.857143 1.52743e-10 0.142857
112 1 0.928571 0.0714286 0.214286
113 1 1.10406e-10 0.142857 0.142857
114 1 0.0714286 0.214286 0.214286
115 1 0.142857 0.142857 0.142857
116 1 0.214286 0.214286 0.214286
117 1 0.285714 0.142857 0.142857
118 1 0.357142 0.214285 0.214285
119 1 0.428571 0.142857 0.142857
120 1 0.5 0.214284 0.214285
121 1 0.571429 0.142857 0.142857
122 1 0.642857 0.214285 0.214285
123 1 0.714286 0.142857 0.142857
124 1 0.785714 0.214286 0.214286
125 1 0.857143 0.142857 0.142857
126 1 0.928571 0.214286 0.214286
127 1 9.85269e-12 0.285714 0.142857
128 1 0.0714286 0.357143 0.214286
129 1 0.142857 0.285714 0.142857
130 1 0.214286 0.357143 0.214286
131 1 0.285715 0.285715 0.142857
132 1 0.357163 0.35714 0.214304
133 1 0.428569 0.285712 0.142855
134 1 0.50001 0.357056 0.21413
135 1 0.571431 0.285712 0.142855
136 1 0.642852 0.357136 0.214284
137 1 0.714286 0.285714 0.142857
138 1 0.785714 0.357143 0.214286
139 1 0.857143 0.285714 0.142857
140 1 0.928571 0.357143 0.214286
141 1 8.93323e-11 0.428571 0.142857
142 1 0.0714286 0.5 0.214286
143 1 0.142857 0.428571 0.142857
144 1 0.214287 0.5 0.214287
145 1 0.285716 0.428572 0.142859
146 1 0.357191 0.499999 0.214323
147 1 0.428587 0.428575 0.142862
148 1 0.500033 0.500078 0.213811
149 1 0.571417 0.428575 0.142869
150 1 0.642822 0.499996 0.214314
151 1 0.714284 0.428572 0.142859
152 1 0.785713 0.5 0.214287
153 1 0.857143 0.428571 0.142857
154 1 0.928571 0.5 0.214286
155 1 -1.32644e-10 0.571429 0.142857
156 1 0.0714286 0.642857 0.214286
157 1 0.142857 0.571429 0.142857
158 1 0.214286 0.642857 0.214286
159 1 0.285716 0.571428 0.142859
160 1 0.357157 0.642843 0.214324
161 1 0.428574 0.571426 0.142836
162 1 0.499992 0.642838 0.214299
163 1 0.571427 0.571423 0.14286
164 1 0.642865 0.64286 0.214287
165 1 0.714285 0.571428 0.142858
166 1 0.785714 0.642857 0.214286
167 1 0.857143 0.571429 0.142857
168 1 0.928571 0.642857 0.214286
169 1 3.04966e-10 0.714286 0.142857
170 1 0.0714286 0.785714 0.214286
171 1 0.142857 0.714286 0.142857
172 1 0.214286 0.785714 0.214286
173 1 0.285715 0.714285 0.142858
174 1 0.357143 0.785714 0.214286
175 1 0.428571 0.714285 0.142858
176 1 0.5 0.785713 0.214286
177 1 0.571428 0.714285 0.142858
178 1 0.642857 0.785714 0.214286
179 1 0.714286 0.714286 0.142857
180 1 0.785714 0.785714 0.214286
181 1 0.857143 0.714286 0.142857
182 1 0.928571 0.785714 0.214286
183 1 1.12869e-10 0.857143 0.142857
184 1 0.0714286 0.928571 0.214286
185 1 0.142857 0.857143 0.142857
186 1 0.214286 0.928571 0.214286
187 1 0.285714 0.857143 0.142857
188 1 0.357143 0.928571 0.214286
189 1 0.428571 0.857143 0.142857
190 1 0.5 0.928571 0.214286
191 1 0.571429 0.857143 0.142857
192 1 0.642857 0.928571 0.214286
193 1 0.714286 0.857143 0.142857
194 1 0.785714 0.928571 0.214286
195 1 0.857143 0.857143 0.142857
196 1 0.928571 0.928571 0.214286
197 1 1.29352e-10 1.33118e-10 0.285714
198 1 0.0714286 0.0714286 0.357143
199 1 0.142857 1.0178e-10 0.285714
200 1 0.214286 0.0714286 0.357143
201 1 0.285714 3.01459e-10 0.285714
202 1 0.357143 0.0714285 0.357143
203 1 0.428571 -2.05271e-08 0.285714
204 1 0.5 0.0714281 0.357143
205 1 0.571429 -1.04287e-08 0.285714
206 1 0.642857 0.0714286 0.357143
207 1 0.714286 9.66493e-10 0.285714
208 1 0.785714 0.0714286 0.357143
209 1 0.857143 1.09654e-10 0.285714
210 1 0.928571 0.0714286 0.357143
211 1 1.06075e-10 0.142857 0.285714
212 1 0.0714286 0.214286 0.357143
213 1 0.142857 0.142857 0.285714
214 1 0.214286 0.214286 0.357143
215 1 0.285714 0.142857 0.285714
216 1 0.357142 0.214284 0.357143
217 1 0.428571 0.142856 0.285714
218 1 0.499999 0.214251 0.357143
219 1 0.571429 0.142857 0.285714
220 1 0.642857 0.214287 0.357143
221 1 0.714286 0.142857 0.285714
222 1 0.785714 0.214286 0.357143
223 1 0.857143 0.142857 0.285714
224 1 0.928571 0.214286 0.357143
225 1 -6.04718e-10 0.285714 0.285714
226 1 0.0714285 0.357143 0.357143
227 1 0.142857 0.285714 0.285714
228 1 0.214284 0.357143 0.357143
229 1 0.285712 0.285712 0.285712
230 1 0.356997 0.35705 0.357151
231 1 0.428544 0.285656 0.285686
232 1 0.500316 0.355631 0.357422
233 1 0.571436 0.2857 0.2857
234 1 0.642838 0.357178 0.357142
235 1 0.714285 0.285715 0.285715
236 1 0.785713 0.357144 0.357143
237 1 0.857143 0.285714 0.285714
238 1 0.928571 0.357143 0.357143
239 1 -2.4324e-09 0.428571 0.285714
240 1 0.0714284 0.5 0.357143
241 1 0.142857 0.428571 0.285714
242 1 0.21427 0.500002 0.357143
243 1 0.285711 0.428564 0.285713
244 1 0.355892 0.499712 0.357146
245 1 0.427602 0.428389 0.284651
246 1 0.928571 0.928571 0.928571
247 1 0.572214 0.428366 0.285099
248 1 0.644204 0.499768 0.356896
249 1 0.71425 0.428588 0.285731
250 1 0.785753 0.5 0.357143
251 1 0.857143 0.428571 0.285714
252 1 0.928572 0.5 0.357143
253 1 4.23652e-09 0.571429 0.285714
254 1 0.0714285 0.642857 0.357143
255 1 0.142857 0.571429 0.285714
256 1 0.214283 0.642857 0.357143
257 1 0.285731 0.571443 0.285719
258 1 0.356946 0.643055 0.357141
259 1 0.428223 0.571824 0.284506
260 1 0.500302 0.644035 0.357132
261 1 0.571608 0.571881 0.284835
262 1 0.642933 0.642971 0.357136
263 1 0.714272 0.571429 0.285725
264 1 0.785716 0.642857 0.357143
265 1 0.857143 0.571429 0.285714
266 1 0.928571 0.642857 0.357143
267 1 -2.88315e-10 0.714286 0.285714
268 1 0.0714286 0.785714 0.357143
269 1 0.142857 0.714286 0.285714
270 1 0.214286 0.785714 0.357143
271 1 0.285711 0.714289 0.285711
272 1 0.357143 0.785717 0.357143
273 1 0.428558 0.714272 0.285719
274 1 0.499998 0.785734 0.357143
275 1 0.571433 0.714278 0.285712
276 1 0.642857 0.785716 0.357143
277 1 0.714287 0.714287 0.285713
278 1 0.785714 0.785714 0.357143
279 1 0.857143 0.714286 0.285714
280 1 0.928571 0.785714 0.357143
281 1 1.28326e-10 0.857143 0.285714
282 1 0.0714286 0.928571 0.357143
283 1 0.142857 0.857143 0.285714
284 1 0.214286 0.928571 0.357143
285 1 0.285714 0.857143 0.285714
286 1 0.357143 0.928571 0.357143
287 1 0.428571 0.857143 0.285714
288 1 0.5 0.928572 0.357143
289 1 0.571429 0.857143 0.285714
290 1 0.642857 0.928571 0.357143
291 1 0.714286 0.857143 0.285714
292 1 0.785714 0.928571 0.357143
293 1 0.857143 0.857143 0.285714
294 1 0.928571 0.928571 0.357143
295 1 1.29035e-10 1.32846e-10 0.428571
296 1 0.0714286 0.0714286 0.5
297 1 0.142857 1.22531e-10 0.428571
298 1 0.214286 0.0714286 0.5
299 1 0.285714 1.41747e-10 0.428571
300 1 0.357143 0.0714286 0.5
301 1 0.428571 -8.62314e-09 0.428571
302 1 0.5 0.0714286 0.5
303 1 0.571429 2.46253e-10 0.428571
304 1 0.642857 0.0714286 0.5
305 1 0.714286 4.97205e-10 0.428571
306 1 0.785714 0.0714286 0.5
307 1 0.857143 1.50379e-10 0.428571
308 1 0.928571 0.0714286 0.5
309 1 1.30238e-10 0.142857 0.428571
310 1 0.0714286 0.214286 0.5
311 1 0.142857 0.142857 0.428571
312 1 0.214286 0.214286 0.5
313 1 0.285714 0.142857 0.428571
314 1 0.357143 0.214285 0.5
315 1 0.428571 0.142857 0.428572
316 1 0.5 0.214286 0.499999
317 1 0.571429 0.142857 0.428572
318 1 0.642857 0.214286 0.5
319 1 0.714286 0.142857 0.428571
320 1 0.785714 0.214286 0.5
321 1 0.857143 0.142857 0.428571
322 1 0.928571 0.214286 0.5
323 1 -8.96561e-10 0.285714 0.428571
324 1 0.0714286 0.357143 0.5
325 1 0.142857 0.285714 0.428571
326 1 0.214286 0.357143 0.5
327 1 0.285712 0.285712 0.428574
328 1 0.357134 0.357129 0.500004
329 1 0.42856 0.285699 0.428577
330 1 0.500004 0.357158 0.500005
331 1 0.571425 0.285737 0.428564
332 1 0.642872 0.357139 0.500011
333 1 0.714285 0.285716 0.428571
334 1 0.785714 0.357143 0.5
335 1 0.857143 0.285714 0.428571
336 1 0.928571 0.357143 0.5
337 1 3.38761e-09 0.428571 0.428571
338 1 0.0714286 0.5 0.5
339 1 0.142857 0.428571 0.428572
340 1 0.214287 0.5 0.499999
341 1 0.285715 0.428564 0.428576
342 1 0.357165 0.500003 0.499983
343 1 0.427815 0.42809 0.42952
344 1 0.499969 0.499984 0.501829
345 1 0.572004 0.427499 0.429288
346 1 0.642926 0.499997 0.500126
347 1 0.714271 0.428587 0.428569
348 1 0.785715 0.5 0.5
349 1 0.857143 0.428571 0.428572
350 1 0.928571 0.5 0.5
351 1 1.44141e-08 0.571429 0.428571
352 1 0.0714286 0.642857 0.5
353 1 0.142857 0.571429 0.428572
354 1 0.214286 0.642857 0.5
355 1 0.285727 0.571443 0.428566
356 1 0.357155 0.642846 0.499963
357 1 0.427915 0.572103 0.429801
358 1 0.500011 0.642795 0.499951
359 1 0.57192 0.572531 0.429513
360 1 0.642846 0.642815 0.499958
361 1 0.71432 0.571445 0.428589
362 1 0.785715 0.642858 0.5
363 1 0.857144 0.571429 0.428572
364 1 0.928571 0.642857 0.5
365 1 -4.92996e-10 0.714286 0.428571
366 1 0.0714286 0.785714 0.5
367 1 0.142857 0.714286 0.428571
368 1 0.214286 0.785714 0.5
369 1 0.285711 0.714289 0.428575
370 1 0.357143 0.785714 0.5
371 1 0.428558 0.714275 0.428567
372 1 0.5 0.785713 0.499999
373 1 0.571432 0.714278 0.428565
374 1 0.642857 0.785714 0.5
375 1 0.714287 0.714287 0.428573
376 1 0.785714 0.785714 0.5
377 1 0.857143 0.714286 0.428571
378 1 0.928571 0.785714 0.5
379 1 1.58819e-10 0.857143 0.428571
380 1 0.0714286 0.928571 0.5
381 1 0.142857 0.857143 0.428571
382 1 0.214286 0.928571 0.5
383 1 0.285714 0.857143 0.428571
384 1 0.357143 0.928571 0.5
385 1 0.428571 0.857143 0.428572
386 1 0.5 0.928571 0.5
387 1 0.571429 0.857143 0.428572
388 1 0.642857 0.928571 0.5
389 1 0.714286 0.857143 0.428571
390 1 0.785714 0.928571 0.5
391 1 0.857143 0.857143 0.428571
392 1 0.928571 0.928571 0.5
393 1 1.31332e-10 1.30723e-10 0.571429
394 1 0.0714286 0.0714286 0.642857
395 1 0.142857 1.45903e-10 0.571429
396 1 0.214286 0.0714286 0.642857
397 1 0.285714 -2.94246e-10 0.571429
398 1 0.357143 0.0714286 0.642857
399 1 0.428571 6.03561e-10 0.571429
400 1 0.5 0.0714286 0.642857
401 1 0.571429 -6.16185e-10 0.571429
402 1 0.642857 0.0714286 0.642857
403 1 0.714286 -1.71887e-10 0.571429
404 1 0.785714 0.0714286 0.642857
405 1 0.857143 1.59142e-10 0.571429
406 1 0.928571 0.0714286 0.642857
407 1 1.08544e-10 0.142857 0.571429
408 1 0.0714286 0.214286 0.642857
409 1 0.142857 0.142857 0.571429
410 1 0.214286 0.214286 0.642857
411 1 0.285714 0.142857 0.571429
412 1 0.357143 0.214286 0.642857
413 1 0.428571 0.142857 0.571429
414 1 0.5 0.214286 0.642857
415 1 0.571429 0.142857 0.571429
416 1 0.642857 0.214286 0.642857
417 1 0.714286 0.142857 0.571429
418 1 0.785714 0.214286 0.642857
419 1 0.857143 0.142857 0.571429
420 1 0.928571 0.214286 0.642857
421 1 1.5699e-10 0.285714 0.571429
422 1 0.0714286 0.357143 0.642857
423 1 0.142857 0.285714 0.571429
424 1 0.214286 0.357143 0.642857
425 1 0.285714 0.285714 0.571429
426 1 0.357143 0.357143 0.642857
427 1 0.428572 0.285715 0.571428
428 1 0.5 0.357145 0.642855
429 1 0.571429 0.285715 0.571428
430 1 0.642857 0.357143 0.642857
431 1 0.714286 0.285714 0.571429
432 1 0.785714 0.357143 0.642857
433 1 0.857143 0.285714 0.571429
434 1 0.928571 0.357143 0.642857
435 1 9.29946e-10 0.428571 0.571429
436 1 0.0714286 0.5 0.642857
437 1 0.142857 0.428571 0.571429
438 1 0.214286 0.5 0.642857
439 1 0.285716 0.428572 0.571427
440 1 0.357145 0.5 0.642855
441 1 0.428578 0.428577 0.571413
442 1 0.5 0.5 0.642879
443 1 0.571422 0.428586 0.571395
444 1 0.642855 0.5 0.642857
445 1 0.714287 0.42857 0.57143
446 1 0.785714 0.5 0.642857
447 1 0.857143 0.428571 0.571429
448 1 0.928571 0.5 0.642857
449 1 -2.31084e-11 0.571429 0.571429
450 1 0.0714286 0.642857 0.642857
451 1 0.142857 0.571429 0.571429
452 1 0.214286 0.642857 0.642857
453 1 0.285716 0.571429 0.571427
454 1 0.357143 0.642857 0.642856
455 1 0.428577 0.571422 0.571428
456 1 0.5 0.642855 0.642854
457 1 0.571422 0.571407 0.571393
458 1 0.642857 0.642856 0.642856
459 1 0.714287 0.57143 0.57143
460 1 0.785714 0.642857 0.642857
461 1 0.857143 0.571429 0.571429
462 1 0.928571 0.642857 0.642857
463 1 4.6627e-10 0.714286 0.571429
464 1 0.0714286 0.785714 0.642857
465 1 0.142857 0.714286 0.571429
466 1 0.214286 0.785714 0.642857
467 1 0.285715 0.714285 0.571428
468 1 0.357143 0.785714 0.642857
469 1 0.428572 0.714284 0.571427
470 1 0.5 0.785714 0.642857
471 1 0.571428 0.714283 0.571426
472 1 0.642857 0.785714 0.642857
473 1 0.714285 0.714285 0.571428
474 1 0.785714 0.785714 0.642857
475 1 0.857143 0.714286 0.571429
476 1 0.928571 0.785714 0.642857
477 1 1.18375e-10 0.857143 0.571429
478 1 0.0714286 0.928571 0.642857
479 1 0.142857 0.857143 0.571429
480 1 0.214286 0.928571 0.642857
481 1 0.285714 0.857143 0.571429
482 1 0.357143 0.928571 0.642857
483 1 0.428571 0.857143 0.571429
484 1 0.5 0.928571 0.642857
485 1 0.571429 0.857143 0.571429
486 1 0.642857 0.928571 0.642857
487 1 0.714286 0.857143 0.571429
488 1 0.785714 0.928571 0.642857
489 1 0.857143 0.857143 0.571429
490 1 0.928571 0.928571 0.642857
491 1 1.31227e-10 1.3182e-10 0.714286
492 1 0.0714286 0.0714286 0.785714
493 1 0.142857 1.24177e-10 0.714286
494 1 0.214286 0.0714286 0.785714
495 1 0.285714 1.69271e-10 0.714286
496 1 0.357143 0.0714286 0.785714
497 1 0.428571 8.2682e-11 0.714286
498 1 0.5 0.0714286 0.785714
499 1 0.571429 2.28859e-10 0.714286
500 1 0.642857 0.0714286 0.785714
501 1 0.714286 1.5673e-10 0.714286
502 1 0.785714 0.0714286 0.785714
503 1 0.857143 1.21529e-10 0.714286
504 1 0.928571 0.0714286 0.785714
505 1 1.32339e-10 0.142857 0.714286
506 1 0.0714286 0.214286 0.785714
507 1 0.142857 0.142857 0.714286
508 1 0.214286 0.214286 0.785714
509 1 0.285714 0.142857 0.714286
510 1 0.357143 0.214286 0.785714
511 1 0.428571 0.142857 0.714286
512 1 0.5 0.214286 0.785714
513 1 0.571429 0.142857 0.714286
514 1 0.642857 0.214286 0.785714
515 1 0.714286 0.142857 0.714286
516 1 0.785714 0.214286 0.785714
517 1 0.857143 0.142857 0.714286
518 1 0.928571 0.214286 0.785714
519 1 1.50225e-10 0.285714 0.714286
520 1 0.0714286 0.357143 0.785714
521 1 0.142857 0.285714 0.714286
522 1 0.214286 0.357143 0.785714
523 1 0.285714 0.285714 0.714286
524 1 0.357143 0.357143 0.785714
525 1 0.428571 0.285714 0.714286
526 1 0.5 0.357143 0.785714
527 1 0.571429 0.285714 0.714286
528 1 0.642857 0.357143 0.785714
529 1 0.714286 0.285714 0.714286
530 1 0.785714 0.357143 0.785714
531 1 0.857143 0.285714 0.714286
532 1 0.928571 0.357143 0.785714
533 1 3.32138e-11 0.428571 0.714286
534 1 0.0714286 0.5 0.785714
535 1 0.142857 0.428571 0.714286
536 1 0.214286 0.5 0.785714
537 1 0.285714 0.428571 0.714286
538 1 0.357143 0.5 0.785714
539 1 0.428571 0.428571 0.714286
540 1 0.5 0.5 0.785715
541 1 0.571429 0.428571 0.714285
542 1 0.642857 0.5 0.785714
543 1 0.714286 0.428571 0.714286
544 1 0.785714 0.5 0.785714
545 1 0.857143 0.428571 0.714286
546 1 0.928571 0.5 0.785714
547 1 1.44998e-10 0.571429 0.714286
548 1 0.0714286 0.642857 0.785714
549 1 0.142857 0.571429 0.714286
550 1 0.214286 0.642857 0.785714
551 1 0.285714 0.571429 0.714286
552 1 0.357143 0.642857 0.785714
553 1 0.428571 0.571429 0.714286
554 1 0.5 0.642857 0.785714
555 1 0.571429 0.571429 0.714285
556 1 0.642857 0.642857 0.785714
557 1 0.714286 0.571429 0.714286
558 1 0.785714 0.642857 0.785714
559 1 0.857143 0.571429 0.714286
560 1 0.928571 0.642857 0.785714
561 1 1.30758e-10 0.714286 0.714286
562 1 0.0714286 0.785714 0.785714
563 1 0.142857 0.714286 0.714286
564 1 0.214286 0.785714 0.785714
565 1 0.285714 0.714286 0.714286
566 1 0.357143 0.785714 0.785714
567 1 0.428571 0.714286 0.714286
568 1 0.5 0.785714 0.785714
569 1 0.571429 0.714286 0.714286
570 1 0.642857 0.785714 0.785714
571 1 0.714286 0.714286 0.714286
572 1 0.785714 0.785714 0.785714
573 1 0.857143 0.714286 0.714286
574 1 0.928571 0.785714 0.785714
575 1 1.3182e-10 0.857143 0.714286
576 1 0.0714286 0.928571 0.785714
577 1 0.142857 0.857143 0.714286
578 1 0.214286 0.928571 0.785714
579 1 0.285714 0.857143 0.714286
580 1 0.357143 0.928571 0.785714
581 1 0.428571 0.857143 0.714286
582 1 0.5 0.928571 0.785714
583 1 0.571429 0.857143 0.714286
584 1 0.642857 0.928571 0.785714
585 1 0.714286 0.857143 0.714286
586 1 0.785714 0.928571 0.785714
587 1 0.857143 0.857143 0.714286
588 1 0.928571 0.928571 0.785714
589 1 1.31449e-10 1.31495e-10 0.857143
590 1 0.0714286 0.0714286 0.928571
591 1 0.142857 1.31813e-10 0.857143
592 1 0.214286 0.0714286 0.928571
593 1 0.285714 1.31053e-10 0.857143
594 1 0.357143 0.0714286 0.928571
595 1 0.428571 1.17958e-10 0.857143
596 1 0.5 0.0714286 0.928571
597 1 0.571429 1.18397e-10 0.857143
598 1 0.642857 0.0714286 0.928571
599 1 0.714286 1.30882e-10 0.857143
600 1 0.785714 0.0714286 0.928571
601 1 0.857143 1.31875e-10 0.857143
602 1 0.928571 0.0714286 0.928571
603 1 1.31317e-10 0.142857 0.857143
604 1 0.0714286 0.214286 0.928571
605 1 0.142857 0.142857 0.857143
606 1 0.214286 0.214286 0.928571
607 1 0.285714 0.142857 0.857143
608 1 0.357143 0.214286 0.928571
609 1 0.428571 0.142857 0.857143
610 1 0.5 0.214286 0.928571
611 1 0.571429 0.142857 0.857143
612 1 0.642857 0.214286 0.928571
613 1 0.714286 0.142857 0.857143
614 1 0.785714 0.214286 0.928571
615 1 0.857143 0.142857 0.857143
616 1 0.928571 0.214286 0.928571
617 1 1.31618e-10 0.285714 0.857143
618 1 0.0714286 0.357143 0.928571
619 1 0.142857 0.285714 0.857143
620 1 0.214286 0.357143 0.928571
621 1 0.285714 0.285714 0.857143
622 1 0.357143 0.357143 0.928571
623 1 0.428571 0.285714 0.857143
624 1 0.5 0.357143 0.928571
625 1 0.571429 0.285714 0.857143
626 1 0.642857 0.357143 0.928571
627 1 0.714286 0.285714 0.857143
628 1 0.785714 0.357143 0.928571
629 1 0.857143 0.285714 0.857143
630 1 0.928571 0.357143 0.928571
631 1 1.36319e-10 0.428571 0.857143
632 1 0.0714286 0.5 0.928571
633 1 0.142857 0.428571 0.857143
634 1 0.214286 0.5 0.928571
635 1 0.285714 0.428571 0.857143
636 1 0.357143 0.5 0.928571
637 1 0.428571 0.428571 0.857143
638 1 0.5 0.5 0.928571
639 1 0.571429 0.428571 0.857143
640 1 0.642857 0.5 0.928571
641 1 0.714286 0.428571 0.857143
642 1 0.785714 0.5 0.928571
643 1 0.857143 0.428571 0.857143
644 1 0.928571 0.5 0.928571
645 1 1.36442e-10 0.571429 0.857143
646 1 0.0714286 0.642857 0.928571
647 1 0.142857 0.571429 0.857143
648 1 0.214286 0.642857 0.928571
649 1 0.285714 0.571429 0.857143
650 1 0.357143 0.642857 0.928571
651 1 0.428571 0.571429 0.857143
652 1 0.5 0.642857 0.928571
653 1 0.571429 0.571429 0.857143
654 1 0.642857 0.642857 0.928571
655 1 0.714286 0.571429 0.857143
656 1 0.785714 0.642857 0.928571
657 1 0.857143 0.571429 0.857143
658 1 0.928571 0.642857 0.928571
659 1 1.31225e-10 0.714286 0.857143
660 1 0.0714286 0.785714 0.928571
661 1 0.142857 0.714286 0.857143
662 1 0.214286 0.785714 0.928571
663 1 0.285714 0.714286 0.857143
664 1 0.357143 0.785714 0.928571
665 1 0.428571 0.714286 0.857143
666 1 0.5 0.785714 0.928571
667 1 0.571429 0.714286 0.857143
668 1 0.642857 0.785714 0.928571
669 1 0.714286 0.714286 0.857143
670 1 0.785714 0.785714 0.928571
671 1 0.857143 0.714286 0.857143
672 1 0.928571 0.785714 0.928571
673 1 1.3141e-10 0.857143 0.857143
674 1 0.0714286 0.928571 0.928571
675 1 0.142857 0.857143 0.857143
676 1 0.214286 0.928571 0.928571
677 1 0.285714 0.857143 0.857143
678 1 0.357143 0.928571 0.928571
679 1 0.428571 0.857143 0.857143
680 1 0.5 0.928571 0.928571
681 1 0.571429 0.857143 0.857143
682 1 0.642857 0.928571 0.928571
683 1 0.714286 0.857143 0.857143
684 1 0.785714 0.928571 0.928571
685 1 0.857143 0.857143 0.857143
686 2 0.568472 0.536319 0.354303
687 2 0.569423 0.497597 0.393209
688 2 0.466966 0.571329 0.356857
689 2 0.501275 0.430028 0.320664
690 2 0.427589 0.53338 0.357057
691 2 0.463267 0.428941 0.358458
692 3 0.499136 0.49948 0.349434
693 3 0.498785 0.499807 0.415949
