ITEM: TIMESTEP
120
ITEM: NUMBER OF ATOMS
693
ITEM: BOX BOUNDS pp pp pp
-1.1915212946539629e-02 2.2021462209802319e+01
-1.3275122797585292e-02 2.2022822119653373e+01
-1.5004859650336520e-02 2.2024551856506143e+01
ITEM: ATOMS id type xs ys zs
1 1 1.2518e-10 1.25601e-10 1.24993e-10
2 1 0.0714286 0.0714286 0.0714286
3 1 0.142857 1.23203e-10 1.33077e-10
4 1 0.214286 0.0714286 0.0714286
5 1 0.285714 1.34667e-10 1.08499e-10
6 1 0.357143 0.0714286 0.0714286
7 1 0.428571 1.43487e-10 6.90257e-11
8 1 0.5 0.0714286 0.0714286
9 1 0.571429 1.44396e-10 6.81463e-11
10 1 0.642857 0.0714286 0.0714286
11 1 0.714286 1.34416e-10 1.08762e-10
12 1 0.785714 0.0714286 0.0714286
13 1 0.857143 1.23238e-10 1.33036e-10
14 1 0.928571 0.0714286 0.0714286
15 1 1.2517e-10 0.142857 1.31456e-10
16 1 0.0714286 0.214286 0.0714286
17 1 0.142857 0.142857 2.46178e-10
18 1 0.214286 0.214286 0.0714286
19 1 0.285714 0.142857 -7.52949e-11
20 1 0.357143 0.214286 0.0714286
21 1 0.428571 0.142857 -1.34299e-09
22 1 0.5 0.214286 0.0714285
23 1 0.571429 0.142857 -1.34173e-09
24 1 0.642857 0.214286 0.0714286
25 1 0.714286 0.142857 -7.57554e-11
26 1 0.785714 0.214286 0.0714286
27 1 0.857143 0.142857 2.46254e-10
28 1 0.928571 0.214286 0.0714286
29 1 1.25194e-10 0.285714 1.36795e-10
30 1 0.0714286 0.357143 0.0714286
31 1 0.142857 0.285714 2.72322e-10
32 1 0.214286 0.357143 0.0714286
33 1 0.285714 0.285714 -1.2067e-08
34 1 0.357142 0.357142 0.0714276
35 1 0.428571 0.285714 2.15578e-08
36 1 0.5 0.357142 0.0714287
37 1 0.571429 0.285714 2.15313e-08
38 1 0.642858 0.357142 0.0714277
39 1 0.714286 0.285714 -1.20552e-08
40 1 0.785714 0.357143 0.0714286
41 1 0.857143 0.285714 2.72247e-10
42 1 0.928571 0.357143 0.0714286
43 1 1.25072e-10 0.428571 9.77914e-11
44 1 0.0714286 0.5 0.0714286
45 1 0.142857 0.428571 -1.38268e-10
46 1 0.214286 0.5 0.0714286
47 1 0.285714 0.428571 6.57982e-09
48 1 0.357142 0.499999 0.0714281
49 1 0.428571 0.428571 -7.54389e-07
50 1 0.5 0.499999 0.0714119
51 1 0.571429 0.428571 -7.54066e-07
52 1 0.642858 0.499999 0.0714281
53 1 0.714286 0.428571 6.42853e-09
54 1 0.785714 0.5 0.0714286
55 1 0.857143 0.428571 -1.33626e-10
56 1 0.928571 0.5 0.0714286
57 1 1.25001e-10 0.571429 1.54646e-10
58 1 0.0714286 0.642857 0.0714286
59 1 0.142857 0.571429 -2.75283e-09
60 1 0.214286 0.642857 0.0714286
61 1 0.285714 0.571429 6.33214e-08
62 1 0.357141 0.642859 0.0714271
63 1 0.428571 0.571429 0.999998
64 1 0.5 0.642859 0.0714267
65 1 0.571429 0.571429 0.999998
66 1 0.642859 0.642859 0.0714271
67 1 0.714286 0.571429 6.35677e-08
68 1 0.785714 0.642857 0.0714286
69 1 0.857143 0.571429 -2.76106e-09
70 1 0.928571 0.642857 0.0714286
71 1 1.25236e-10 0.714286 1.23357e-10
72 1 0.0714286 0.785714 0.0714286
73 1 0.142857 0.714286 6.5613e-10
74 1 0.214286 0.785714 0.0714286
75 1 0.285714 0.714286 -1.92422e-08
76 1 0.357143 0.785714 0.0714285
77 1 0.428571 0.714286 1.75288e-09
78 1 0.5 0.785714 0.0714286
79 1 0.571429 0.714286 1.88676e-09
80 1 0.642857 0.785714 0.0714285
81 1 0.714286 0.714286 -1.93344e-08
82 1 0.785714 0.785714 0.0714286
83 1 0.857143 0.714286 6.58435e-10
84 1 0.928571 0.785714 0.0714286
85 1 1.25165e-10 0.857143 1.38985e-10
86 1 0.0714286 0.928571 0.0714286
87 1 0.142857 0.857143 3.14832e-10
88 1 0.214286 0.928571 0.0714286
89 1 0.285714 0.857143 -6.46499e-10
90 1 0.357143 0.928571 0.0714286
91 1 0.428571 0.857143 -2.4121e-09
92 1 0.5 0.928571 0.0714286
93 1 0.571429 0.857143 -2.4161e-09
94 1 0.642857 0.928571 0.0714286
95 1 0.714286 0.857143 -6.48833e-10
96 1 0.785714 0.928571 0.0714286
97 1 0.857143 0.857143 3.14592e-10
98 1 0.928571 0.928571 0.0714286
99 1 1.25175e-10 1.24528e-10 0.142857
100 1 0.0714286 0.0714286 0.214286
101 1 0.142857 1.44277e-10 0.142857
102 1 0.214286 0.0714286 0.214286
103 1 0.285714 3.47305e-10 0.142857
104 1 0.357143 0.0714286 0.214286
105 1 0.428571 -3.1564e-11 0.142857
106 1 0.5 0.0714286 0.214286
107 1 0.571429 -4.29086e-11 0.142857
108 1 0.642857 0.0714286 0.214286
109 1 0.714286 3.51969e-10 0.142857
110 1 0.785714 0.0714286 0.214286
111 1 0.857143 1.44492e-10 0.142857
112 1 0.928571 0.0714286 0.214286
113 1 1.2512e-10 0.142857 0.142857
114 1 0.0714286 0.214286 0.214286
115 1 0.142857 0.142857 0.142857
116 1 0.214286 0.214286 0.214286
117 1 0.285714 0.142857 0.142857
118 1 0.357143 0.214286 0.214286
119 1 0.428571 0.142857 0.142857
120 1 0.5 0.21429 0.214289
121 1 0.571429 0.142857 0.142857
122 1 0.642857 0.214286 0.214286
123 1 0.714286 0.142857 0.142857
124 1 0.785714 0.214286 0.214286
125 1 0.857143 0.142857 0.142857
126 1 0.928571 0.214286 0.214286
127 1 1.23591e-10 0.285714 0.142857
128 1 0.0714286 0.357143 0.214286
129 1 0.142857 0.285714 0.142857
130 1 0.214286 0.357143 0.214285
131 1 0.285715 0.285715 0.142857
132 1 0.357155 0.357154 0.214287
133 1 0.428572 0.285715 0.142858
134 1 0.5 0.357165 0.214317
135 1 0.571428 0.285715 0.142858
136 1 0.642845 0.357154 0.214287
137 1 0.714285 0.285715 0.142857
138 1 0.785714 0.357143 0.214285
139 1 0.857143 0.285714 0.142857
140 1 0.928571 0.357143 0.214286
141 1 1.25558e-10 0.428571 0.142857
142 1 0.0714286 0.5 0.214286
143 1 0.142857 0.428571 0.142857
144 1 0.21429 0.5 0.21429
145 1 0.285715 0.428572 0.142858
146 1 0.357148 0.499969 0.214312
147 1 0.428541 0.428544 0.142819
148 1 0.5 0.499956 0.212983
149 1 0.571459 0.428544 0.142819
150 1 0.642853 0.499969 0.214312
151 1 0.714285 0.428572 0.142858
152 1 0.78571 0.5 0.21429
153 1 0.857143 0.428571 0.142857
154 1 0.928571 0.5 0.214286
155 1 1.27138e-10 0.571429 0.142857
156 1 0.0714286 0.642857 0.214286
157 1 0.142857 0.571429 0.142857
158 1 0.214286 0.642857 0.214286
159 1 0.285718 0.571428 0.142862
160 1 0.357135 0.642877 0.21428
161 1 0.428542 0.571458 0.142756
162 1 0.5 0.642884 0.214277
163 1 0.571458 0.571458 0.142756
164 1 0.642865 0.642877 0.21428
165 1 0.714282 0.571428 0.142862
166 1 0.785714 0.642857 0.214286
167 1 0.857143 0.571429 0.142857
168 1 0.928571 0.642857 0.214286
169 1 1.22695e-10 0.714286 0.142857
170 1 0.0714286 0.785714 0.214286
171 1 0.142857 0.714286 0.142857
172 1 0.214286 0.785714 0.214286
173 1 0.285714 0.714286 0.142857
174 1 0.357142 0.785715 0.214285
175 1 0.428571 0.714284 0.142859
176 1 0.5 0.785711 0.214289
177 1 0.571429 0.714284 0.142859
178 1 0.642858 0.785715 0.214285
179 1 0.714286 0.714286 0.142857
180 1 0.785714 0.785714 0.214286
181 1 0.857143 0.714286 0.142857
182 1 0.928571 0.785714 0.214286
183 1 1.25508e-10 0.857143 0.142857
184 1 0.0714286 0.928571 0.214286
185 1 0.142857 0.857143 0.142857
186 1 0.214286 0.928571 0.214286
187 1 0.285714 0.857143 0.142857
188 1 0.357143 0.928571 0.214286
189 1 0.428571 0.857143 0.142857
190 1 0.5 0.928571 0.214286
191 1 0.571429 0.857143 0.142857
192 1 0.642857 0.928571 0.214286
193 1 0.714286 0.857143 0.142857
194 1 0.785714 0.928571 0.214286
195 1 0.857143 0.857143 0.142857
196 1 0.928571 0.928571 0.214286
197 1 1.25188e-10 1.28884e-10 0.285714
198 1 0.0714286 0.0714286 0.357143
199 1 0.142857 1.28811e-10 0.285714
200 1 0.214286 0.0714286 0.357143
201 1 0.285714 2.09227e-10 0.285714
202 1 0.357143 0.0714286 0.357143
203 1 0.428571 1.60262e-08 0.285714
204 1 0.5 0.0714277 0.357143
205 1 0.571429 1.61463e-08 0.285714
206 1 0.642857 0.0714286 0.357143
207 1 0.714286 2.26044e-10 0.285714
208 1 0.785714 0.0714286 0.357143
209 1 0.857143 1.28415e-10 0.285714
210 1 0.928571 0.0714286 0.357143
211 1 1.25189e-10 0.142857 0.285714
212 1 0.0714286 0.214286 0.357143
213 1 0.142857 0.142857 0.285714
214 1 0.214286 0.214286 0.357143
215 1 0.285714 0.142857 0.285714
216 1 0.357145 0.214287 0.357142
217 1 0.428571 0.142856 0.285714
218 1 0.5 0.214222 0.357141
219 1 0.571429 0.142856 0.285714
220 1 0.642855 0.214287 0.357142
221 1 0.714286 0.142857 0.285714
222 1 0.785714 0.214286 0.357143
223 1 0.857143 0.142857 0.285714
224 1 0.928571 0.214286 0.357143
225 1 1.21139e-10 0.285714 0.285714
226 1 0.0714286 0.357143 0.357143
227 1 0.142857 0.285714 0.285714
228 1 0.214288 0.357145 0.357142
229 1 0.285714 0.285714 0.285714
230 1 0.357137 0.357135 0.357094
231 1 0.428541 0.285698 0.285697
232 1 0.500001 0.354276 0.355705
233 1 0.571459 0.285698 0.285697
234 1 0.642862 0.357136 0.357095
235 1 0.714286 0.285714 0.285714
236 1 0.785712 0.357145 0.357142
237 1 0.857143 0.285714 0.285714
238 1 0.928571 0.357143 0.357143
239 1 5.06003e-11 0.428571 0.285714
240 1 0.0714276 0.5 0.357143
241 1 0.142856 0.428571 0.285714
242 1 0.214218 0.5 0.357141
243 1 0.285695 0.428538 0.285693
244 1 0.354127 0.499859 0.355715
245 1 0.42825 0.428262 0.285222
246 1 0.500012 0.496673 0.35129
247 1 0.57175 0.428262 0.285222
248 1 0.645863 0.499858 0.355721
249 1 0.714304 0.428538 0.285693
250 1 0.785781 0.5 0.357141
251 1 0.857144 0.428571 0.285714
252 1 0.928572 0.5 0.357143
253 1 2.35868e-11 0.571429 0.285714
254 1 0.0714285 0.642857 0.357143
255 1 0.142857 0.571429 0.285714
256 1 0.214284 0.642855 0.357142
257 1 0.285721 0.57146 0.285715
258 1 0.356955 0.642997 0.357094
259 1 0.426875 0.5717 0.282487
260 1 0.499985 0.648167 0.356951
261 1 0.573128 0.571695 0.28247
262 1 0.643046 0.642998 0.357094
263 1 0.714279 0.571459 0.285716
264 1 0.785716 0.642855 0.357142
265 1 0.857143 0.571429 0.285714
266 1 0.928571 0.642857 0.357143
267 1 1.37059e-10 0.714286 0.285714
268 1 0.0714286 0.785714 0.357143
269 1 0.142857 0.714286 0.285714
270 1 0.214286 0.785714 0.357143
271 1 0.285712 0.714288 0.285711
272 1 0.357147 0.785713 0.357143
273 1 0.428532 0.714314 0.285665
274 1 0.5 0.785835 0.357142
275 1 0.571468 0.714314 0.285665
276 1 0.642853 0.785713 0.357143
277 1 0.714288 0.714288 0.285711
278 1 0.785714 0.785714 0.357143
279 1 0.857143 0.714286 0.285714
280 1 0.928571 0.785714 0.357143
281 1 1.24788e-10 0.857143 0.285714
282 1 0.0714286 0.928571 0.357143
283 1 0.142857 0.857143 0.285714
284 1 0.214286 0.928571 0.357143
285 1 0.285714 0.857143 0.285714
286 1 0.357143 0.928571 0.357143
287 1 0.42857 0.857144 0.285713
288 1 0.5 0.928573 0.357143
289 1 0.57143 0.857144 0.285713
290 1 0.642857 0.928571 0.357143
291 1 0.714286 0.857143 0.285714
292 1 0.785714 0.928571 0.357143
293 1 0.857143 0.857143 0.285714
294 1 0.928571 0.928571 0.357143
295 1 1.25191e-10 1.28541e-10 0.428571
296 1 0.0714286 0.0714286 0.5
297 1 0.142857 8.07565e-11 0.428571
298 1 0.214286 0.0714286 0.5
299 1 0.285714 9.83324e-10 0.428571
300 1 0.357143 0.0714285 0.5
301 1 0.428571 3.50186e-10 0.428571
302 1 0.5 0.0714285 0.5
303 1 0.571429 5.51039e-10 0.428571
304 1 0.642857 0.0714285 0.5
305 1 0.714286 9.97436e-10 0.428571
306 1 0.785714 0.0714286 0.5
307 1 0.857143 8.06137e-11 0.428571
308 1 0.928571 0.0714286 0.5
309 1 1.24998e-10 0.142857 0.428571
310 1 0.0714286 0.214286 0.5
311 1 0.142857 0.142857 0.428571
312 1 0.214286 0.214286 0.5
313 1 0.285714 0.142857 0.428571
314 1 0.357142 0.214284 0.500001
315 1 0.428571 0.142856 0.428572
316 1 0.5 0.214284 0.5
317 1 0.571429 0.142856 0.428572
318 1 0.642858 0.214284 0.500001
319 1 0.714286 0.142857 0.428571
320 1 0.785714 0.214286 0.5
321 1 0.857143 0.142857 0.428571
322 1 0.928571 0.214286 0.5
323 1 1.23505e-10 0.285714 0.428571
324 1 0.0714285 0.357143 0.5
325 1 0.142857 0.285714 0.428571
326 1 0.214284 0.357142 0.500001
327 1 0.285718 0.285718 0.428571
328 1 0.357096 0.357096 0.500048
329 1 0.428556 0.28564 0.428591
330 1 0.5 0.357011 0.500223
331 1 0.571444 0.285641 0.428591
332 1 0.642903 0.357096 0.500047
333 1 0.714282 0.285718 0.428571
334 1 0.785716 0.357142 0.500001
335 1 0.857143 0.285714 0.428571
336 1 0.928571 0.357143 0.5
337 1 -2.67056e-11 0.428571 0.428571
338 1 0.0714285 0.5 0.5
339 1 0.142855 0.428571 0.428572
340 1 0.214283 0.5 0.5
341 1 0.285638 0.428553 0.428594
342 1 0.35696 0.499979 0.500248
343 1 0.42562 0.425631 0.431325
344 1 0.5 0.498847 0.503314
345 1 0.574372 0.425635 0.431317
346 1 0.64304 0.499979 0.500248
347 1 0.714362 0.428553 0.428594
348 1 0.785717 0.5 0.5
349 1 0.857145 0.428571 0.428572
350 1 0.928571 0.5 0.5
351 1 3.28343e-11 0.571429 0.428571
352 1 0.0714286 0.642857 0.5
353 1 0.142856 0.571429 0.428572
354 1 0.214285 0.642857 0.5
355 1 0.285666 0.571444 0.428572
356 1 0.357072 0.642929 0.50007
357 1 0.424563 0.57523 0.432661
358 1 0.5 0.643103 0.500193
359 1 0.575445 0.57523 0.432682
360 1 0.642929 0.64293 0.50007
361 1 0.714334 0.571444 0.428572
362 1 0.785715 0.642857 0.5
363 1 0.857144 0.571429 0.428572
364 1 0.928571 0.642857 0.5
365 1 1.37895e-10 0.714286 0.428571
366 1 0.0714286 0.785714 0.5
367 1 0.142857 0.714286 0.428571
368 1 0.214286 0.785714 0.5
369 1 0.285716 0.714284 0.428574
370 1 0.357143 0.785715 0.5
371 1 0.428557 0.714334 0.428617
372 1 0.5 0.785716 0.499997
373 1 0.571443 0.714334 0.428617
374 1 0.642857 0.785715 0.5
375 1 0.714284 0.714284 0.428574
376 1 0.785714 0.785714 0.5
377 1 0.857143 0.714286 0.428571
378 1 0.928571 0.785714 0.5
379 1 1.2481e-10 0.857143 0.428571
380 1 0.0714286 0.928571 0.5
381 1 0.142857 0.857143 0.428571
382 1 0.214286 0.928571 0.5
383 1 0.285714 0.857143 0.428571
384 1 0.357143 0.928571 0.5
385 1 0.42857 0.857144 0.428573
386 1 0.5 0.928571 0.5
387 1 0.57143 0.857144 0.428573
388 1 0.642857 0.928571 0.5
389 1 0.714286 0.857143 0.428571
390 1 0.785714 0.928571 0.5
391 1 0.857143 0.857143 0.428571
392 1 0.928571 0.928571 0.5
393 1 1.25176e-10 1.24905e-10 0.571429
394 1 0.0714286 0.0714286 0.642857
395 1 0.142857 1.67782e-10 0.571429
396 1 0.214286 0.0714286 0.642857
397 1 0.285714 -3.34952e-10 0.571429
398 1 0.357143 0.0714286 0.642857
399 1 0.428571 2.82551e-10 0.571429
400 1 0.5 0.0714286 0.642857
401 1 0.571429 2.70184e-10 0.571429
402 1 0.642857 0.0714286 0.642857
403 1 0.714286 -3.25457e-10 0.571429
404 1 0.785714 0.0714286 0.642857
405 1 0.857143 1.67906e-10 0.571429
406 1 0.928571 0.0714286 0.642857
407 1 1.25192e-10 0.142857 0.571429
408 1 0.0714286 0.214286 0.642857
409 1 0.142857 0.142857 0.571429
410 1 0.214286 0.214286 0.642857
411 1 0.285714 0.142857 0.571429
412 1 0.357143 0.214286 0.642857
413 1 0.428571 0.142857 0.571429
414 1 0.5 0.214286 0.642857
415 1 0.571429 0.142857 0.571429
416 1 0.642857 0.214286 0.642857
417 1 0.714286 0.142857 0.571429
418 1 0.785714 0.214286 0.642857
419 1 0.857143 0.142857 0.571429
420 1 0.928571 0.214286 0.642857
421 1 1.20239e-10 0.285714 0.571429
422 1 0.0714286 0.357143 0.642857
423 1 0.142857 0.285714 0.571429
424 1 0.214286 0.357143 0.642857
425 1 0.285714 0.285714 0.571429
426 1 0.357144 0.357144 0.642857
427 1 0.428568 0.285715 0.571428
428 1 0.5 0.357148 0.642857
429 1 0.571432 0.285715 0.571428
430 1 0.642856 0.357144 0.642857
431 1 0.714286 0.285714 0.571429
432 1 0.785714 0.357143 0.642857
433 1 0.857143 0.285714 0.571429
434 1 0.928571 0.357143 0.642857
435 1 1.23702e-10 0.428571 0.571429
436 1 0.0714286 0.5 0.642857
437 1 0.142857 0.428571 0.571429
438 1 0.214286 0.5 0.642857
439 1 0.285714 0.428567 0.571429
440 1 0.357145 0.499999 0.642859
441 1 0.428557 0.428571 0.571391
442 1 0.5 0.499998 0.642931
443 1 0.571443 0.428571 0.571391
444 1 0.642855 0.499999 0.642859
445 1 0.714286 0.428567 0.571429
446 1 0.785714 0.5 0.642857
447 1 0.857143 0.428571 0.571429
448 1 0.928571 0.5 0.642857
449 1 1.2452e-10 0.571429 0.571429
450 1 0.0714286 0.642857 0.642857
451 1 0.142857 0.571429 0.571429
452 1 0.214286 0.642857 0.642857
453 1 0.285715 0.571432 0.571428
454 1 0.357142 0.642857 0.642858
455 1 0.42855 0.571435 0.571482
456 1 0.5 0.642856 0.642859
457 1 0.57145 0.571435 0.571483
458 1 0.642858 0.642857 0.642858
459 1 0.714285 0.571432 0.571428
460 1 0.785714 0.642857 0.642857
461 1 0.857143 0.571429 0.571429
462 1 0.928571 0.642857 0.642857
463 1 1.23891e-10 0.714286 0.571429
464 1 0.0714286 0.785714 0.642857
465 1 0.142857 0.714286 0.571429
466 1 0.214286 0.785714 0.642857
467 1 0.285714 0.714286 0.571429
468 1 0.357143 0.785714 0.642857
469 1 0.428567 0.714285 0.571429
470 1 0.5 0.785714 0.642857
471 1 0.571433 0.714285 0.571429
472 1 0.642857 0.785714 0.642857
473 1 0.714286 0.714286 0.571429
474 1 0.785714 0.785714 0.642857
475 1 0.857143 0.714286 0.571429
476 1 0.928571 0.785714 0.642857
477 1 1.25515e-10 0.857143 0.571429
478 1 0.0714286 0.928571 0.642857
479 1 0.142857 0.857143 0.571429
480 1 0.214286 0.928571 0.642857
481 1 0.285714 0.857143 0.571429
482 1 0.357143 0.928571 0.642857
483 1 0.428571 0.857143 0.571429
484 1 0.5 0.928571 0.642857
485 1 0.571429 0.857143 0.571429
486 1 0.642857 0.928571 0.642857
487 1 0.714286 0.857143 0.571429
488 1 0.785714 0.928571 0.642857
489 1 0.857143 0.857143 0.571429
490 1 0.928571 0.928571 0.642857
491 1 1.2518e-10 1.25491e-10 0.714286
492 1 0.0714286 0.0714286 0.785714
493 1 0.142857 1.17955e-10 0.714286
494 1 0.214286 0.0714286 0.785714
495 1 0.285714 1.64449e-10 0.714286
496 1 0.357143 0.0714286 0.785714
497 1 0.428571 1.15513e-10 0.714286
498 1 0.5 0.0714286 0.785714
499 1 0.571429 1.16624e-10 0.714286
500 1 0.642857 0.0714286 0.785714
501 1 0.714286 1.64095e-10 0.714286
502 1 0.785714 0.0714286 0.785714
503 1 0.857143 1.18053e-10 0.714286
504 1 0.928571 0.0714286 0.785714
505 1 1.25133e-10 0.142857 0.714286
506 1 0.0714286 0.214286 0.785714
507 1 0.142857 0.142857 0.714286
508 1 0.214286 0.214286 0.785714
509 1 0.285714 0.142857 0.714286
510 1 0.357143 0.214286 0.785714
511 1 0.428571 0.142857 0.714286
512 1 0.5 0.214286 0.785714
513 1 0.571429 0.142857 0.714286
514 1 0.642857 0.214286 0.785714
515 1 0.714286 0.142857 0.714286
516 1 0.785714 0.214286 0.785714
517 1 0.857143 0.142857 0.714286
518 1 0.928571 0.214286 0.785714
519 1 1.25174e-10 0.285714 0.714286
520 1 0.0714286 0.357143 0.785714
521 1 0.142857 0.285714 0.714286
522 1 0.214286 0.357143 0.785714
523 1 0.285714 0.285714 0.714286
524 1 0.357143 0.357143 0.785714
525 1 0.428571 0.285714 0.714286
526 1 0.5 0.357143 0.785714
527 1 0.571429 0.285714 0.714286
528 1 0.642857 0.357143 0.785714
529 1 0.714286 0.285714 0.714286
530 1 0.785714 0.357143 0.785714
531 1 0.857143 0.285714 0.714286
532 1 0.928571 0.357143 0.785714
533 1 1.25086e-10 0.428571 0.714286
534 1 0.0714286 0.5 0.785714
535 1 0.142857 0.428571 0.714286
536 1 0.214286 0.5 0.785714
537 1 0.285714 0.428571 0.714286
538 1 0.357143 0.5 0.785714
539 1 0.428571 0.428571 0.714285
540 1 0.5 0.5 0.785715
541 1 0.571429 0.428571 0.714285
542 1 0.642857 0.5 0.785714
543 1 0.714286 0.428571 0.714286
544 1 0.785714 0.5 0.785714
545 1 0.857143 0.428571 0.714286
546 1 0.928571 0.5 0.785714
547 1 1.25207e-10 0.571429 0.714286
548 1 0.0714286 0.642857 0.785714
549 1 0.142857 0.571429 0.714286
550 1 0.214286 0.642857 0.785714
551 1 0.285714 0.571429 0.714286
552 1 0.357143 0.642857 0.785714
553 1 0.428571 0.571429 0.714287
554 1 0.5 0.642857 0.785714
555 1 0.571429 0.571429 0.714287
556 1 0.642857 0.642857 0.785714
557 1 0.714286 0.571429 0.714286
558 1 0.785714 0.642857 0.785714
559 1 0.857143 0.571429 0.714286
560 1 0.928571 0.642857 0.785714
561 1 1.25234e-10 0.714286 0.714286
562 1 0.0714286 0.785714 0.785714
563 1 0.142857 0.714286 0.714286
564 1 0.214286 0.785714 0.785714
565 1 0.285714 0.714286 0.714286
566 1 0.357143 0.785714 0.785714
567 1 0.428571 0.714286 0.714286
568 1 0.5 0.785714 0.785714
569 1 0.571429 0.714286 0.714286
570 1 0.642857 0.785714 0.785714
571 1 0.714286 0.714286 0.714286
572 1 0.785714 0.785714 0.785714
573 1 0.857143 0.714286 0.714286
574 1 0.928571 0.785714 0.785714
575 1 1.25187e-10 0.857143 0.714286
576 1 0.0714286 0.928571 0.785714
577 1 0.142857 0.857143 0.714286
578 1 0.214286 0.928571 0.785714
579 1 0.285714 0.857143 0.714286
580 1 0.357143 0.928571 0.785714
581 1 0.428571 0.857143 0.714286
582 1 0.5 0.928571 0.785714
583 1 0.571429 0.857143 0.714286
584 1 0.642857 0.928571 0.785714
585 1 0.714286 0.857143 0.714286
586 1 0.785714 0.928571 0.785714
587 1 0.857143 0.857143 0.714286
588 1 0.928571 0.928571 0.785714
589 1 1.25178e-10 1.25256e-10 0.857143
590 1 0.0714286 0.0714286 0.928571
591 1 0.142857 1.25674e-10 0.857143
592 1 0.214286 0.0714286 0.928571
593 1 0.285714 1.24489e-10 0.857143
594 1 0.357143 0.0714286 0.928571
595 1 0.428571 1.23941e-10 0.857143
596 1 0.5 0.0714286 0.928571
597 1 0.571429 1.23907e-10 0.857143
598 1 0.642857 0.0714286 0.928571
599 1 0.714286 1.2449e-10 0.857143
600 1 0.785714 0.0714286 0.928571
601 1 0.857143 1.25676e-10 0.857143
602 1 0.928571 0.0714286 0.928571
603 1 1.25178e-10 0.142857 0.857143
604 1 0.0714286 0.214286 0.928571
605 1 0.142857 0.142857 0.857143
606 1 0.214286 0.214286 0.928571
607 1 0.285714 0.142857 0.857143
608 1 0.357143 0.214286 0.928571
609 1 0.428571 0.142857 0.857143
610 1 0.5 0.214286 0.928571
611 1 0.571429 0.142857 0.857143
612 1 0.642857 0.214286 0.928571
613 1 0.714286 0.142857 0.857143
614 1 0.785714 0.214286 0.928571
615 1 0.857143 0.142857 0.857143
616 1 0.928571 0.214286 0.928571
617 1 1.25177e-10 0.285714 0.857143
618 1 0.0714286 0.357143 0.928571
619 1 0.142857 0.285714 0.857143
620 1 0.214286 0.357143 0.928571
621 1 0.285714 0.285714 0.857143
622 1 0.357143 0.357143 0.928571
623 1 0.428571 0.285714 0.857143
624 1 0.5 0.357143 0.928571
625 1 0.571429 0.285714 0.857143
626 1 0.642857 0.357143 0.928571
627 1 0.714286 0.285714 0.857143
628 1 0.785714 0.357143 0.928571
629 1 0.857143 0.285714 0.857143
630 1 0.928571 0.357143 0.928571
631 1 1.25185e-10 0.428571 0.857143
632 1 0.0714286 0.5 0.928571
633 1 0.142857 0.428571 0.857143
634 1 0.214286 0.5 0.928571
635 1 0.285714 0.428571 0.857143
636 1 0.357143 0.5 0.928571
637 1 0.428571 0.428571 0.857143
638 1 0.5 0.5 0.928571
639 1 0.571429 0.428571 0.857143
640 1 0.642857 0.5 0.928571
641 1 0.714286 0.428571 0.857143
642 1 0.785714 0.5 0.928571
643 1 0.857143 0.428571 0.857143
644 1 0.928571 0.5 0.928571
645 1 1.25169e-10 0.571429 0.857143
646 1 0.0714286 0.642857 0.928571
647 1 0.142857 0.571429 0.857143
648 1 0.214286 0.642857 0.928571
649 1 0.285714 0.571429 0.857143
650 1 0.357143 0.642857 0.928571
651 1 0.428571 0.571429 0.857143
652 1 0.5 0.642857 0.928571
653 1 0.571429 0.571429 0.857143
654 1 0.642857 0.642857 0.928571
655 1 0.714286 0.571429 0.857143
656 1 0.785714 0.642857 0.928571
657 1 0.857143 0.571429 0.857143
658 1 0.928571 0.642857 0.928571
659 1 1.25183e-10 0.714286 0.857143
660 1 0.0714286 0.785714 0.928571
661 1 0.142857 0.714286 0.857143
662 1 0.214286 0.785714 0.928571
663 1 0.285714 0.714286 0.857143
664 1 0.357143 0.785714 0.928571
665 1 0.428571 0.714286 0.857143
666 1 0.5 0.785714 0.928571
667 1 0.571429 0.714286 0.857143
668 1 0.642857 0.785714 0.928571
669 1 0.714286 0.714286 0.857143
670 1 0.785714 0.785714 0.928571
671 1 0.857143 0.714286 0.857143
672 1 0.928571 0.785714 0.928571
673 1 1.25179e-10 0.857143 0.857143
674 1 0.0714286 0.928571 0.928571
675 1 0.142857 0.857143 0.857143
676 1 0.214286 0.928571 0.928571
677 1 0.285714 0.857143 0.857143
678 1 0.357143 0.928571 0.928571
679 1 0.428571 0.857143 0.857143
680 1 0.5 0.928571 0.928571
681 1 0.571429 0.857143 0.857143
682 1 0.642857 0.928571 0.928571
683 1 0.714286 0.857143 0.857143
684 1 0.785714 0.928571 0.928571
685 1 0.857143 0.857143 0.857143
686 1 0.928571 0.928571 0.928571
687 2 0.5 0.499986 0.28557
688 3 0.499985 0.427998 0.393586
689 3 0.428343 0.500151 0.393222
690 3 0.500006 0.535761 0.428114
691 3 0.57163 0.500167 0.393222
692 3 0.537038 0.572044 0.357388
693 3 0.463077 0.571939 0.357383
