ITEM: TIMESTEP
118
ITEM: NUMBER OF ATOMS
695
ITEM: BOX BOUNDS pp pp pp
0.0000000000000000e+00 2.2013900999999997e+01
0.0000000000000000e+00 2.2013900999999997e+01
0.0000000000000000e+00 2.2013900999999997e+01
ITEM: ATOMS id type xs ys zs
15 1 0.999854 0.142569 0.000201118
2 1 0.0712245 0.0710868 0.0715372
19 1 0.285472 0.142447 0.000120582
4 1 0.21404 0.0710405 0.0714788
175 1 0.857575 0.428253 0.428663
6 1 0.356954 0.0710911 0.0714885
174 1 0.716462 0.426517 0.427002
8 1 0.499877 0.0711765 0.0715344
173 1 0.573779 0.42645 0.428178
10 1 0.642779 0.0712481 0.0715899
172 1 0.419623 0.419134 0.419647
12 1 0.785653 0.0712594 0.0716216
446 1 0.643908 0.499342 0.356752
14 1 0.928484 0.071195 0.0716089
346 1 0.356866 0.499688 0.0714756
16 1 0.0711362 0.213918 0.0715004
17 1 0.142587 0.142457 0.000121014
18 1 0.213891 0.213777 0.0713473
194 1 0.645009 0.355309 0.499101
20 1 0.3569 0.213836 0.0714075
193 1 0.497512 0.356535 0.498579
22 1 0.499867 0.213937 0.0715081
399 1 0.928498 0.499763 0.214355
24 1 0.642747 0.214032 0.0715896
514 1 0.356565 0.497363 0.498254
26 1 0.785602 0.214054 0.0716068
27 1 0.857075 0.142628 0.000263029
28 1 0.928417 0.214007 0.0715649
516 1 0.655274 0.497762 0.499745
30 1 0.0711355 0.356829 0.0715283
515 1 0.482284 0.482728 0.48401
32 1 0.213891 0.35675 0.0714125
33 1 0.285385 0.285269 0.000100129
34 1 0.356847 0.356737 0.0712972
35 1 0.428384 0.285337 0.000178226
36 1 0.499839 0.356846 0.0715309
37 1 0.5713 0.285418 0.000246718
38 1 0.642692 0.356932 0.0715855
39 1 0.714169 0.285479 0.000272193
40 1 0.785575 0.356924 0.0715556
393 1 0.0711644 0.499737 0.214336
42 1 0.928397 0.356884 0.0715695
349 1 0.785623 0.49978 0.0715479
394 1 0.213802 0.499734 0.214145
45 1 0.28538 0.428229 0.000189811
46 1 0.428414 0.428314 0.000164202
47 1 0.571278 0.428373 0.000154348
48 1 0.714138 0.428388 0.000179893
49 1 0.857025 0.428336 0.000214444
171 1 0.284579 0.426967 0.427532
51 1 0.071195 0.0710224 0.214342
395 1 0.356627 0.499573 0.213954
53 1 0.213925 0.0708792 0.214212
170 1 0.142422 0.428096 0.428579
55 1 0.356902 0.0709856 0.214222
169 1 0.999919 0.428289 0.42872
57 1 0.499877 0.0711435 0.214279
168 1 0.857407 0.285143 0.428579
59 1 0.642786 0.0712478 0.21435
167 1 0.714896 0.284523 0.428202
61 1 0.785669 0.0712354 0.214374
398 1 0.785754 0.499778 0.214216
63 1 0.928488 0.0711322 0.214376
64 1 0.999785 0.142495 0.142918
65 1 0.0710103 0.213781 0.214217
66 1 0.142449 0.14232 0.142765
67 1 0.213483 0.21335 0.213793
68 1 0.285386 0.142317 0.14274
69 1 0.35674 0.213502 0.213917
70 1 0.4284 0.142446 0.142821
71 1 0.49989 0.213785 0.214151
72 1 0.571332 0.142569 0.142915
73 1 0.642797 0.213941 0.214283
74 1 0.714204 0.142628 0.142966
75 1 0.785677 0.213934 0.214279
76 1 0.857049 0.142587 0.142958
77 1 0.928445 0.213898 0.214288
78 1 0.999747 0.285388 0.142912
79 1 0.0710469 0.356785 0.214266
80 1 0.142398 0.285254 0.142755
81 1 0.213574 0.356587 0.213914
82 1 0.285149 0.285033 0.1424
83 1 0.356324 0.356206 0.213213
84 1 0.428368 0.285212 0.14267
85 1 0.499813 0.356715 0.214161
86 1 0.571295 0.285395 0.142893
87 1 0.642691 0.356901 0.214307
88 1 0.714151 0.285475 0.142938
89 1 0.785737 0.35678 0.214159
90 1 0.857035 0.285418 0.142898
91 1 0.92844 0.356842 0.21432
92 1 0.999785 0.4283 0.142949
93 1 0.142475 0.428258 0.142848
94 1 0.28523 0.428189 0.142623
95 1 0.428266 0.428171 0.142695
96 1 0.571246 0.428325 0.142982
97 1 0.714151 0.428367 0.142887
98 1 0.857042 0.428327 0.142929
166 1 0.571277 0.284906 0.42867
100 1 0.0712369 0.071006 0.357239
165 1 0.427228 0.28453 0.427564
102 1 0.21397 0.0708715 0.357192
442 1 0.0712524 0.499706 0.357241
104 1 0.356876 0.0708369 0.357147
513 1 0.214198 0.499371 0.499962
106 1 0.499846 0.0711374 0.357183
21 1 0.428405 0.14251 0.000157591
108 1 0.642774 0.0712271 0.357235
23 1 0.571321 0.142589 0.000209521
110 1 0.785715 0.0711494 0.357228
443 1 0.213859 0.499639 0.357096
112 1 0.928527 0.0711027 0.357243
113 1 0.999814 0.142444 0.285767
114 1 0.07108 0.213764 0.357175
115 1 0.142441 0.142261 0.285674
116 1 0.213581 0.213396 0.357001
117 1 0.285169 0.14194 0.285458
118 1 0.356337 0.21276 0.356644
119 1 0.428348 0.142241 0.285568
120 1 0.499734 0.21365 0.357015
121 1 0.57131 0.142509 0.285725
122 1 0.642779 0.213804 0.357156
123 1 0.714224 0.142551 0.285768
124 1 0.785888 0.213657 0.357028
125 1 0.857128 0.142469 0.285735
126 1 0.928532 0.213842 0.35718
127 1 0.999747 0.285294 0.285711
128 1 0.0709768 0.356712 0.357154
129 1 0.142069 0.28501 0.285458
130 1 0.212878 0.356152 0.356626
131 1 0.283949 0.28381 0.284261
132 1 0.352962 0.352842 0.353327
133 1 0.428229 0.284591 0.285007
134 1 0.500493 0.355931 0.356353
135 1 0.571467 0.285114 0.285506
136 1 0.643324 0.356376 0.356707
137 1 0.714397 0.285192 0.285531
138 1 0.786438 0.356222 0.35661
139 1 0.857268 0.285197 0.28557
140 1 0.928619 0.356767 0.357173
141 1 0.999818 0.428291 0.285771
142 1 0.142332 0.428222 0.285612
143 1 0.284635 0.428047 0.284962
144 1 0.427181 0.427107 0.284919
145 1 0.571327 0.42848 0.28604
146 1 0.714587 0.428124 0.285284
147 1 0.857234 0.428292 0.285689
164 1 0.284573 0.284378 0.428453
185 1 0.356638 0.213457 0.500039
397 1 0.642676 0.499846 0.214322
25 1 0.714208 0.142643 0.00025387
29 1 0.999793 0.285424 0.000187945
396 1 0.499621 0.499551 0.214292
345 1 0.213954 0.499719 0.071511
155 1 0.999877 0.142434 0.428684
156 1 0.142523 0.14229 0.428668
157 1 0.285268 0.14209 0.428625
158 1 0.428275 0.142263 0.428575
159 1 0.571252 0.142476 0.428673
160 1 0.714285 0.14238 0.428665
161 1 0.857184 0.142435 0.428661
162 1 0.999862 0.285268 0.428665
163 1 0.142286 0.285053 0.428613
31 1 0.142528 0.285329 0.000142483
41 1 0.857018 0.285472 0.00022468
348 1 0.642695 0.499802 0.071529
448 1 0.928636 0.499791 0.357229
344 1 0.0711941 0.499736 0.0715756
350 1 0.928451 0.499754 0.0715998
43 1 0.999809 0.428299 0.000207284
191 1 0.213612 0.356395 0.500023
445 1 0.497726 0.497961 0.356462
447 1 0.786169 0.499869 0.356977
347 1 0.499849 0.499743 0.0714945
186 1 0.499538 0.213922 0.499974
44 1 0.142549 0.428258 0.000186412
176 1 0.071298 0.0710259 0.500154
644 1 0.928502 0.499738 0.928871
643 1 0.785668 0.499786 0.928859
638 1 0.0712133 0.499721 0.928848
595 1 0.928596 0.499751 0.786061
593 1 0.642569 0.499775 0.785537
642 1 0.642738 0.499839 0.928659
592 1 0.499927 0.500003 0.785086
591 1 0.356243 0.499577 0.786945
589 1 0.0711837 0.499704 0.786034
641 1 0.499934 0.499836 0.928592
640 1 0.356823 0.49972 0.929033
544 1 0.644614 0.496895 0.643927
543 1 0.495417 0.499155 0.654798
542 1 0.354686 0.497819 0.64547
639 1 0.213933 0.499698 0.928914
343 1 0.857141 0.428284 0.85751
342 1 0.71419 0.428384 0.857475
341 1 0.57125 0.428357 0.857407
340 1 0.428337 0.428281 0.857789
196 1 0.928747 0.356719 0.500163
179 1 0.499857 0.071124 0.500144
198 1 0.0713445 0.0710712 0.643065
594 1 0.785937 0.499656 0.786228
200 1 0.214094 0.070988 0.643057
590 1 0.213681 0.49962 0.786259
202 1 0.35697 0.0709764 0.643033
546 1 0.928659 0.499795 0.643122
204 1 0.499884 0.0710673 0.643044
545 1 0.786231 0.499712 0.643209
206 1 0.642791 0.0711168 0.643073
541 1 0.213632 0.499536 0.643145
208 1 0.785816 0.0711567 0.643118
540 1 0.0712495 0.499701 0.643047
210 1 0.928632 0.0711518 0.643089
211 1 0.999938 0.142458 0.57162
212 1 0.0712478 0.213839 0.643081
213 1 0.142604 0.142349 0.571621
214 1 0.213855 0.213633 0.643144
215 1 0.285389 0.142236 0.571596
216 1 0.356714 0.213485 0.64313
217 1 0.428331 0.142348 0.57157
218 1 0.499744 0.213632 0.643149
219 1 0.571221 0.142548 0.571554
220 1 0.642843 0.213331 0.643188
221 1 0.714361 0.142283 0.57163
222 1 0.785976 0.213581 0.64324
223 1 0.857241 0.142437 0.571634
224 1 0.92865 0.213849 0.643125
225 1 0.999947 0.28528 0.571622
226 1 0.0712017 0.356747 0.64306
227 1 0.142456 0.285149 0.5716
228 1 0.213631 0.356493 0.643134
229 1 0.284898 0.284686 0.571763
230 1 0.355737 0.355604 0.643834
231 1 0.428015 0.284864 0.571732
232 1 0.498127 0.355615 0.645217
233 1 0.571128 0.2855 0.571532
234 1 0.645071 0.354015 0.64533
235 1 0.714883 0.28436 0.571735
236 1 0.78669 0.356075 0.643675
237 1 0.857462 0.285095 0.57169
238 1 0.928747 0.35675 0.643142
239 1 -3.57577e-05 0.428271 0.5716
240 1 0.142529 0.428113 0.571547
241 1 0.284966 0.427718 0.571644
242 1 0.427213 0.427001 0.574463
243 1 0.573354 0.414089 0.573696
244 1 0.715799 0.425959 0.572846
245 1 0.857523 0.428177 0.57168
691 2 0.565847 0.486124 0.52965
247 1 0.0713481 0.0711146 0.785957
177 1 0.214035 0.0709207 0.500151
249 1 0.2141 0.0710361 0.785949
338 1 0.142479 0.428206 0.857496
251 1 0.356957 0.0710075 0.785966
337 1 0.999841 0.428281 0.857436
253 1 0.499864 0.0710869 0.78601
336 1 0.928446 0.35687 0.928843
255 1 0.642809 0.0711904 0.786057
256 1 0.714378 4.39284e-05 0.714632
257 1 0.78581 0.0712494 0.786099
335 1 0.857187 0.285355 0.857562
259 1 0.928636 0.0712041 0.786025
260 1 -3.4199e-05 0.142504 0.714541
261 1 0.0712436 0.213883 0.785989
262 1 0.142639 0.142404 0.714533
263 1 0.213868 0.21368 0.786088
264 1 0.285429 0.142284 0.714547
265 1 0.356671 0.213499 0.786237
266 1 0.428345 0.14226 0.714572
267 1 0.499766 0.213645 0.786209
268 1 0.571284 0.142322 0.714622
269 1 0.642842 0.213686 0.786213
270 1 0.714351 0.142345 0.714661
271 1 0.785977 0.213682 0.786318
272 1 0.857261 0.142475 0.714623
273 1 0.928641 0.213892 0.786083
274 1 0.999949 0.285324 0.714565
275 1 0.0711347 0.356763 0.786017
276 1 0.142475 0.28521 0.714572
277 1 0.213568 0.356448 0.786305
278 1 0.284954 0.284773 0.71489
279 1 0.356138 0.356025 0.786861
280 1 0.427737 0.284394 0.715256
281 1 0.499698 0.356355 0.786735
282 1 0.571239 0.284576 0.715027
283 1 0.643102 0.356281 0.786725
284 1 0.715071 0.284372 0.715411
285 1 0.785978 0.356612 0.786342
286 1 0.857501 0.285109 0.714812
287 1 0.928571 0.356818 0.786049
288 1 0.999895 0.42828 0.714548
289 1 0.142346 0.428141 0.714614
290 1 0.28429 0.427438 0.715424
291 1 0.426322 0.426396 0.716765
292 1 0.571989 0.42652 0.715295
293 1 0.714869 0.427655 0.715221
294 1 0.857355 0.428253 0.714685
180 1 0.642787 0.0711428 0.500178
296 1 0.071303 0.0711315 0.928799
518 1 0.928547 0.49983 0.500239
298 1 0.214083 0.0710667 0.928775
339 1 0.285171 0.428082 0.857778
300 1 0.356963 0.0710946 0.928779
517 1 0.785693 0.499889 0.500384
302 1 0.499869 0.071169 0.928819
334 1 0.785616 0.356914 0.928883
304 1 0.64279 0.0712429 0.928868
305 1 0.714316 -2.4506e-05 0.857538
306 1 0.78571 0.071274 0.928906
307 1 0.857302 -1.62853e-06 0.857573
308 1 0.928581 0.0712401 0.92889
309 1 -6.08343e-05 0.142545 0.857428
310 1 0.0711927 0.213926 0.928805
311 1 0.142623 0.142439 0.857401
312 1 0.21394 0.213803 0.928817
313 1 0.285424 0.142349 0.857447
314 1 0.356881 0.213825 0.928854
315 1 0.428368 0.142417 0.857456
316 1 0.499842 0.213901 0.92888
317 1 0.571317 0.142499 0.85749
318 1 0.642773 0.213971 0.928915
319 1 0.714276 0.142552 0.85753
320 1 0.785698 0.213987 0.928955
321 1 0.857216 0.14256 0.857545
322 1 0.928495 0.213998 0.928867
323 1 0.999848 0.285382 0.857433
324 1 0.0711629 0.356817 0.928818
325 1 0.142466 0.285239 0.857484
326 1 0.213894 0.356717 0.928886
327 1 0.285181 0.285039 0.857679
328 1 0.356847 0.356734 0.928955
329 1 0.428256 0.285145 0.857701
330 1 0.499854 0.356801 0.928958
331 1 0.571315 0.28521 0.857663
332 1 0.64273 0.356888 0.928929
333 1 0.714378 0.285237 0.857744
195 1 0.786614 0.356241 0.500099
192 1 0.355631 0.355459 0.500616
190 1 0.0711866 0.356704 0.500117
189 1 0.928604 0.213826 0.500144
512 1 0.0713528 0.499685 0.500148
188 1 0.78595 0.213616 0.500101
187 1 0.642847 0.213594 0.500172
184 1 0.213758 0.213531 0.500147
183 1 0.0711795 0.213781 0.500146
181 1 0.785777 0.0711149 0.500151
178 1 0.356929 0.0709608 0.500124
182 1 0.928588 0.0711123 0.50015
690 2 0.569367 0.507016 0.466654
511 1 0.857397 0.85717 0.428629
510 1 0.714543 0.857445 0.428608
351 1 0.999884 0.571183 0.000248087
353 1 0.142617 0.571178 0.000229363
509 1 0.571509 0.857545 0.428539
58 1 0.571346 0.999866 0.142918
148 1 0.999967 0.999702 0.428704
352 1 0.0712752 0.642622 0.0716201
101 1 0.142636 0.999607 0.28579
354 1 0.214043 0.642625 0.0715773
355 1 0.285435 0.571178 0.000254169
356 1 0.356927 0.642627 0.0714864
357 1 0.428431 0.571173 0.000168522
358 1 0.499888 0.642652 0.0713987
359 1 0.571324 0.571214 6.4539e-05
360 1 0.642754 0.642656 0.0714839
361 1 0.714214 0.571225 0.000173496
362 1 0.785707 0.642665 0.0715901
363 1 0.857116 0.571196 0.0002694
364 1 0.928532 0.642641 0.071638
99 1 0.999916 0.999702 0.285826
366 1 0.0713267 0.78549 0.0716351
60 1 0.714255 0.999903 0.142968
368 1 0.214079 0.785512 0.0715701
369 1 0.285493 0.714106 0.000248807
370 1 0.356936 0.785571 0.0714426
371 1 0.428446 0.714117 0.000150073
372 1 0.499879 0.785639 0.0714339
373 1 0.571378 0.714183 0.000175381
374 1 0.642842 0.78568 0.0715201
375 1 0.71432 0.714192 0.000394891
376 1 0.785792 0.785653 0.0716506
377 1 0.857216 0.714134 0.000355953
378 1 0.928599 0.785551 0.0716689
365 1 0.999968 0.714081 0.000286828
380 1 0.071316 0.928329 0.0716063
381 1 0.142719 0.856942 0.000237386
382 1 0.214086 0.928329 0.0715252
383 1 0.285532 0.856963 0.00016937
384 1 0.356962 0.928378 0.071498
385 1 0.428424 0.857017 0.0001661
386 1 0.49988 0.928453 0.0715218
387 1 0.571355 0.857103 0.000232967
388 1 0.642818 0.928511 0.071578
389 1 0.714325 0.857145 0.000337472
390 1 0.785741 0.928511 0.0716386
391 1 0.857285 0.85713 0.000416865
392 1 0.928595 0.92844 0.0716687
508 1 0.428461 0.857399 0.428599
507 1 0.285501 0.857012 0.428675
506 1 0.14275 0.856866 0.428713
56 1 0.428411 0.999778 0.142876
54 1 0.28548 0.999687 0.142866
505 1 6.30862e-05 0.856935 0.428712
504 1 0.857523 0.714296 0.428649
400 1 0.999866 0.571191 0.142991
401 1 0.0712819 0.64261 0.214405
402 1 0.142585 0.571184 0.142934
403 1 0.213953 0.642655 0.214272
404 1 0.285384 0.57116 0.142823
405 1 0.356737 0.642721 0.213988
406 1 0.428314 0.571142 0.14271
407 1 0.499789 0.642839 0.21373
408 1 0.571227 0.571171 0.142939
409 1 0.642803 0.642801 0.213861
410 1 0.714231 0.571219 0.142818
411 1 0.785838 0.642762 0.214158
412 1 0.857113 0.571217 0.142945
413 1 0.92859 0.642661 0.214376
414 1 0.999944 0.714065 0.143024
415 1 0.0713263 0.785469 0.214422
416 1 0.142658 0.714057 0.142978
417 1 0.213971 0.785558 0.214268
418 1 0.285433 0.714109 0.142829
419 1 0.356673 0.785847 0.213915
420 1 0.428335 0.714205 0.142603
421 1 0.499819 0.78591 0.213905
422 1 0.571348 0.714279 0.142608
423 1 0.642978 0.785925 0.213942
424 1 0.714331 0.714223 0.142771
425 1 0.785998 0.785854 0.214102
426 1 0.857201 0.714141 0.142956
427 1 0.928668 0.785579 0.21437
428 1 0.999971 0.856937 0.143021
429 1 0.071294 0.928293 0.214399
430 1 0.142665 0.856908 0.142959
431 1 0.214011 0.928312 0.214287
432 1 0.28543 0.857011 0.142807
433 1 0.356894 0.928441 0.214219
434 1 0.428377 0.857085 0.142776
435 1 0.499876 0.928547 0.214219
436 1 0.571367 0.857155 0.142805
437 1 0.642862 0.92861 0.214258
438 1 0.714349 0.857165 0.142871
439 1 0.78581 0.928583 0.214304
440 1 0.857247 0.85709 0.142969
441 1 0.928599 0.928411 0.214393
503 1 0.715419 0.71534 0.427837
502 1 0.572826 0.716285 0.426264
501 1 0.426991 0.716181 0.426817
152 1 0.571355 0.999899 0.428703
500 1 0.285209 0.71432 0.428528
151 1 0.428459 0.99975 0.428701
109 1 0.714292 0.999952 0.285765
449 1 0.999939 0.571188 0.285818
450 1 0.0713723 0.642557 0.357306
451 1 0.142586 0.571146 0.285764
452 1 0.214041 0.64253 0.357253
453 1 0.285141 0.571296 0.285435
454 1 0.356231 0.643309 0.356502
455 1 0.428036 0.571274 0.284917
456 1 0.498244 0.645277 0.354823
457 1 0.571033 0.571351 0.286065
458 1 0.644521 0.64474 0.354974
459 1 0.714524 0.571331 0.285231
460 1 0.78636 0.643089 0.356774
461 1 0.857285 0.571271 0.285675
462 1 0.928714 0.642665 0.357258
463 1 1.00002 0.714056 0.285849
464 1 0.0713761 0.785447 0.357294
465 1 0.142666 0.714015 0.285832
466 1 0.213965 0.785556 0.357168
467 1 0.285174 0.714315 0.285469
468 1 0.356391 0.786289 0.356582
469 1 0.427714 0.71501 0.284602
470 1 0.499821 0.786648 0.356482
471 1 0.571467 0.714926 0.284688
472 1 0.643514 0.786745 0.356362
473 1 0.714982 0.714908 0.284912
474 1 0.786245 0.786069 0.356879
475 1 0.857448 0.714289 0.285634
476 1 0.928748 0.785588 0.35724
477 1 1 0.856924 0.285838
478 1 0.071342 0.928271 0.357272
479 1 0.142657 0.856892 0.285798
480 1 0.214078 0.928268 0.357234
481 1 0.285307 0.857137 0.285566
482 1 0.356923 0.928475 0.357156
483 1 0.428287 0.857369 0.285465
484 1 0.499911 0.928695 0.357102
485 1 0.571441 0.857456 0.285445
486 1 0.642912 0.928758 0.357132
487 1 0.71458 0.857479 0.285475
488 1 0.785835 0.928585 0.357199
489 1 0.857352 0.857156 0.285701
490 1 0.928633 0.928398 0.357246
491 1 1 0.571166 0.428749
492 1 0.142817 0.571065 0.42872
493 1 0.285849 0.571111 0.42885
494 1 0.427221 0.573757 0.426262
495 1 0.571267 0.576019 0.417409
496 1 0.714647 0.572286 0.427318
497 1 0.857266 0.571277 0.428697
498 1 1.00009 0.714049 0.428747
499 1 0.142764 0.713971 0.428749
531 1 0.786315 0.786114 0.499997
107 1 0.571355 0.999934 0.285722
50 1 0.999904 0.99974 0.142996
527 1 0.214117 0.785508 0.500152
5 1 0.285537 0.999722 0.000145164
521 1 0.357143 0.64349 0.499697
154 1 0.857204 0.999806 0.428692
523 1 0.644265 0.644373 0.496951
7 1 0.428426 0.999779 0.000160692
444 1 0.35596 0.500149 0.356261
9 1 0.571338 0.999857 0.000211236
520 1 0.214324 0.642432 0.500208
11 1 0.714257 0.999904 0.000267038
367 1 0.142689 0.714072 0.000253227
379 1 1.00001 0.856981 0.000301055
153 1 0.714306 0.999891 0.428707
150 1 0.285505 0.999602 0.428691
52 1 0.142625 0.999648 0.142913
103 1 0.285439 0.999613 0.285705
111 1 0.857157 0.99982 0.285802
149 1 0.142693 0.999608 0.428702
1 1 0.999964 0.999804 0.000256154
13 1 0.857156 0.999892 0.000297354
3 1 0.142701 0.999722 0.000178723
62 1 0.857128 0.999857 0.142996
105 1 0.428398 0.99979 0.285692
522 1 0.500211 0.654467 0.497
299 1 0.285551 0.999716 0.857374
258 1 0.857314 0.999936 0.7146
695 3 0.505179 0.567067 0.538207
248 1 0.142771 0.999696 0.7145
694 3 0.568 0.534558 0.50641
692 2 0.538671 0.573863 0.505081
246 1 5.46696e-05 0.999789 0.714532
254 1 0.571375 0.999832 0.714568
252 1 0.428472 0.999721 0.7145
197 1 2.48581e-05 0.999738 0.57161
677 1 0.285488 0.85707 0.857494
676 1 0.214127 0.928371 0.928814
675 1 0.142754 0.857009 0.857466
250 1 0.285574 0.999687 0.714492
674 1 0.071404 0.928399 0.928864
673 1 0.000192043 0.857094 0.857552
528 1 0.356912 0.785851 0.500192
529 1 0.50023 0.785446 0.500102
672 1 0.928746 0.785638 0.929024
671 1 0.857558 0.714293 0.857822
670 1 0.78602 0.785864 0.92932
209 1 0.857278 0.999856 0.571619
669 1 0.714813 0.71467 0.85843
668 1 0.642882 0.785803 0.929087
667 1 0.571462 0.714407 0.857717
666 1 0.499905 0.785677 0.928912
665 1 0.428429 0.714248 0.857642
207 1 0.714363 0.999869 0.571649
205 1 0.571381 0.99979 0.571622
203 1 0.428485 0.999682 0.571587
664 1 0.356968 0.785592 0.928874
689 2 0.470899 0.568186 0.505928
686 1 0.928745 0.928565 0.929011
201 1 0.285556 0.99964 0.571599
663 1 0.285273 0.714338 0.857765
547 1 3.03754e-05 0.571187 0.571623
548 1 0.0714329 0.642567 0.64304
549 1 0.142902 0.571021 0.571533
550 1 0.213907 0.642502 0.643069
551 1 0.286281 0.570701 0.571519
552 1 0.355313 0.643969 0.644685
553 1 0.417557 0.570275 0.57582
554 1 0.497608 0.643172 0.643817
555 1 0.588707 0.588881 0.586742
556 1 0.650965 0.651872 0.651806
557 1 0.714676 0.573521 0.573561
558 1 0.786834 0.643856 0.644166
559 1 0.857235 0.571489 0.571838
560 1 0.928912 0.642774 0.643191
561 1 0.000153665 0.714098 0.571624
562 1 0.0714977 0.785517 0.64306
563 1 0.142781 0.714004 0.571582
564 1 0.214089 0.785532 0.643086
565 1 0.285309 0.714158 0.571604
566 1 0.356734 0.785954 0.643325
567 1 0.427554 0.714239 0.57245
568 1 0.499949 0.785745 0.643176
569 1 0.573363 0.714786 0.573347
570 1 0.644017 0.786462 0.6442
571 1 0.715547 0.715399 0.571183
572 1 0.786674 0.786456 0.64329
573 1 0.857633 0.714412 0.571682
574 1 0.928994 0.785759 0.643123
575 1 0.000146219 0.856992 0.571606
576 1 0.0714493 0.928338 0.64306
577 1 0.142803 0.856893 0.571606
578 1 0.214175 0.928306 0.643055
579 1 0.285542 0.856978 0.571624
580 1 0.357047 0.928367 0.643045
581 1 0.428565 0.85695 0.571601
582 1 0.499983 0.928402 0.643077
583 1 0.571687 0.857052 0.571812
584 1 0.642983 0.928666 0.643192
585 1 0.714639 0.857436 0.571729
586 1 0.786012 0.928741 0.643147
587 1 0.857519 0.857268 0.571604
588 1 0.928773 0.928501 0.643092
685 1 0.85771 0.85752 0.857952
662 1 0.21406 0.785593 0.928921
684 1 0.785829 0.928622 0.929021
683 1 0.714501 0.857451 0.857838
682 1 0.642832 0.928569 0.928935
661 1 0.142662 0.71413 0.857508
681 1 0.571362 0.857274 0.857639
596 1 -1.10936e-07 0.571201 0.714582
597 1 0.0713349 0.64264 0.786049
598 1 0.142478 0.571129 0.71462
599 1 0.213793 0.642733 0.786218
600 1 0.284607 0.571201 0.715142
601 1 0.356176 0.64329 0.786993
602 1 0.42605 0.572799 0.716635
603 1 0.499935 0.642934 0.786235
604 1 0.573086 0.573162 0.714123
605 1 0.643801 0.643797 0.786576
606 1 0.71503 0.570808 0.71519
607 1 0.78646 0.642825 0.786695
608 1 0.857463 0.57131 0.714768
609 1 0.928856 0.642697 0.786188
610 1 0.000291269 0.714158 0.714605
611 1 0.0714881 0.785579 0.78604
612 1 0.142693 0.714079 0.714557
613 1 0.213973 0.785699 0.786154
614 1 0.284934 0.714585 0.715076
615 1 0.35676 0.785886 0.786291
616 1 0.427921 0.714914 0.715325
617 1 0.499738 0.786079 0.786447
618 1 0.570735 0.715447 0.71571
619 1 0.643061 0.786426 0.786778
620 1 0.718136 0.717918 0.718239
621 1 0.787215 0.787028 0.787426
622 1 0.858351 0.71472 0.715117
623 1 0.929143 0.785859 0.786298
624 1 0.000203543 0.857052 0.714566
625 1 0.0714511 0.928389 0.785978
626 1 0.142801 0.856949 0.714524
627 1 0.214145 0.928383 0.785977
628 1 0.285483 0.857106 0.714616
629 1 0.357005 0.928414 0.785975
630 1 0.42848 0.857156 0.714601
631 1 0.49991 0.928527 0.786051
632 1 0.571477 0.857369 0.714748
633 1 0.642887 0.928735 0.78619
634 1 0.714908 0.858132 0.715109
635 1 0.786069 0.928937 0.786306
636 1 0.857672 0.857439 0.714751
637 1 0.92881 0.928576 0.786094
680 1 0.49988 0.928473 0.928848
660 1 0.071383 0.785543 0.928894
659 1 9.96349e-05 0.714131 0.857533
658 1 0.928622 0.642649 0.928944
657 1 0.857288 0.571175 0.857606
679 1 0.428378 0.857133 0.857531
678 1 0.356976 0.928396 0.928804
645 1 0.99995 0.571179 0.857487
646 1 0.0713038 0.642633 0.928879
647 1 0.142565 0.571176 0.857511
648 1 0.21401 0.642661 0.928931
649 1 0.285228 0.571222 0.857753
650 1 0.356901 0.642691 0.929019
651 1 0.428354 0.571237 0.857752
652 1 0.499957 0.642709 0.928804
653 1 0.571489 0.571412 0.857067
654 1 0.642873 0.642758 0.928905
655 1 0.714326 0.571261 0.857477
656 1 0.785839 0.642677 0.929049
688 2 0.508306 0.539624 0.577499
199 1 0.142746 0.999643 0.571607
536 1 0.500015 0.928356 0.500209
303 1 0.571343 0.999881 0.857474
693 3 0.534829 0.500862 0.565455
687 2 0.564516 0.504846 0.602301
295 1 3.93394e-05 0.999827 0.857442
297 1 0.142745 0.999738 0.857384
301 1 0.428428 0.999773 0.857404
538 1 0.785896 0.928588 0.500162
537 1 0.642937 0.928592 0.500197
539 1 0.928699 0.92843 0.500142
533 1 0.0714052 0.928293 0.500156
535 1 0.357014 0.928371 0.500172
534 1 0.214145 0.928266 0.500156
532 1 0.928824 0.785641 0.500158
530 1 0.643251 0.786195 0.500048
526 1 0.0714473 0.78547 0.500164
524 1 0.78613 0.642954 0.500051
525 1 0.928716 0.642691 0.500203
519 1 0.071469 0.642538 0.500182
