ITEM: TIMESTEP
120
ITEM: NUMBER OF ATOMS
695
ITEM: BOX BOUNDS pp pp pp
-1.0673739354033299e-02 2.2020220736209801e+01
-1.2862240780610811e-02 2.2022409237636396e+01
-1.0037624486340414e-02 2.2019584621342108e+01
ITEM: ATOMS id type xs ys zs
1 1 1.3068e-10 1.30656e-10 1.30858e-10
2 1 0.0714286 0.0714286 0.0714286
3 1 0.142857 1.27411e-10 1.35295e-10
4 1 0.214286 0.0714286 0.0714286
5 1 0.285714 1.63534e-10 9.98141e-11
6 1 0.357143 0.0714286 0.0714286
7 1 0.428571 3.55547e-11 1.60066e-10
8 1 0.5 0.0714286 0.0714286
9 1 0.571429 5.74301e-12 2.16439e-10
10 1 0.642857 0.0714286 0.0714286
11 1 0.714286 1.26056e-10 9.3653e-11
12 1 0.785714 0.0714286 0.0714286
13 1 0.857143 1.36209e-10 1.35736e-10
14 1 0.928571 0.0714286 0.0714286
15 1 1.29753e-10 0.142857 1.34865e-10
16 1 0.0714286 0.214286 0.0714286
17 1 0.142857 0.142857 1.61595e-10
18 1 0.214286 0.214286 0.0714286
19 1 0.285714 0.142857 3.84142e-11
20 1 0.357143 0.214286 0.0714286
21 1 0.428571 0.142857 -1.87281e-09
22 1 0.5 0.214286 0.0714285
23 1 0.571429 0.142857 -2.73384e-09
24 1 0.642857 0.214286 0.0714285
25 1 0.714286 0.142857 -6.8444e-10
26 1 0.785714 0.214286 0.0714286
27 1 0.857143 0.142857 2.60995e-10
28 1 0.928571 0.214286 0.0714286
29 1 1.26108e-10 0.285714 1.00191e-10
30 1 0.0714286 0.357143 0.0714286
31 1 0.142857 0.285714 -2.40973e-10
32 1 0.214286 0.357143 0.0714285
33 1 0.285714 0.285714 1.91344e-09
34 1 0.357143 0.357143 0.0714284
35 1 0.428571 0.285714 7.99664e-09
36 1 0.5 0.357143 0.0714294
37 1 0.571429 0.285714 1.58092e-08
38 1 0.642857 0.357143 0.071429
39 1 0.714286 0.285714 1.44121e-08
40 1 0.785714 0.357143 0.0714285
41 1 0.857143 0.285714 -1.30456e-09
42 1 0.928571 0.357143 0.0714286
43 1 1.85013e-10 0.428571 1.66147e-10
44 1 0.0714286 0.5 0.0714286
45 1 0.142857 0.428571 1.26444e-09
46 1 0.214286 0.5 0.0714286
47 1 0.285714 0.428571 -2.64673e-08
48 1 0.357142 0.5 0.0714279
49 1 0.428571 0.428571 -6.5254e-08
50 1 0.499997 0.5 0.0714181
51 1 0.571429 0.428571 -1.57349e-07
52 1 0.642857 0.5 0.0714273
53 1 0.714286 0.428571 -4.64445e-08
54 1 0.785714 0.5 0.0714286
55 1 0.857143 0.428571 1.41483e-09
56 1 0.928571 0.5 0.0714286
57 1 7.21075e-11 0.571429 3.79297e-10
58 1 0.0714286 0.642857 0.0714286
59 1 0.142857 0.571429 3.04004e-10
60 1 0.214286 0.642857 0.0714285
61 1 0.285714 0.571429 -1.50724e-08
62 1 0.357143 0.642857 0.0714287
63 1 0.428571 0.571429 -2.09658e-07
64 1 0.5 0.642857 0.0714283
65 1 0.571429 0.571429 -4.26877e-07
66 1 0.642857 0.642857 0.0714284
67 1 0.714286 0.571429 -3.01696e-08
68 1 0.785714 0.642857 0.0714286
69 1 0.857143 0.571429 6.27893e-10
70 1 0.928571 0.642857 0.0714286
71 1 1.1699e-10 0.714286 5.65293e-11
72 1 0.0714286 0.785714 0.0714286
73 1 0.142857 0.714286 -7.72387e-10
74 1 0.214286 0.785714 0.0714286
75 1 0.285714 0.714286 1.03581e-08
76 1 0.357143 0.785714 0.0714285
77 1 0.428571 0.714286 -9.63543e-09
78 1 0.5 0.785714 0.0714285
79 1 0.571429 0.714286 1.42859e-08
80 1 0.642857 0.785714 0.0714286
81 1 0.714286 0.714286 -2.57942e-09
82 1 0.785714 0.785714 0.0714286
83 1 0.857143 0.714286 2.63527e-10
84 1 0.928571 0.785714 0.0714286
85 1 1.35792e-10 0.857143 1.37896e-10
86 1 0.0714286 0.928571 0.0714286
87 1 0.142857 0.857143 2.20412e-10
88 1 0.214286 0.928571 0.0714286
89 1 0.285714 0.857143 -7.8734e-10
90 1 0.357143 0.928571 0.0714286
91 1 0.428571 0.857143 -9.03695e-10
92 1 0.5 0.928571 0.0714286
93 1 0.571429 0.857143 -9.86853e-10
94 1 0.642857 0.928571 0.0714286
95 1 0.714286 0.857143 7.01054e-10
96 1 0.785714 0.928571 0.0714286
97 1 0.857143 0.857143 5.17148e-11
98 1 0.928571 0.928571 0.0714286
99 1 1.30642e-10 1.315e-10 0.142857
100 1 0.0714286 0.0714286 0.214286
101 1 0.142857 1.47786e-10 0.142857
102 1 0.214286 0.0714286 0.214286
103 1 0.285714 -1.82288e-10 0.142857
104 1 0.357143 0.0714286 0.214286
105 1 0.428571 1.1056e-09 0.142857
106 1 0.5 0.0714286 0.214286
107 1 0.571429 1.483e-09 0.142857
108 1 0.642857 0.0714286 0.214286
109 1 0.714286 1.18822e-10 0.142857
110 1 0.785714 0.0714286 0.214286
111 1 0.857143 1.1552e-10 0.142857
112 1 0.928571 0.0714286 0.214286
113 1 1.40683e-10 0.142857 0.142857
114 1 0.0714286 0.214286 0.214286
115 1 0.142857 0.142857 0.142857
116 1 0.214286 0.214286 0.214286
117 1 0.285714 0.142857 0.142857
118 1 0.357143 0.214286 0.214286
119 1 0.428571 0.142857 0.142857
120 1 0.5 0.214289 0.214288
121 1 0.571429 0.142857 0.142857
122 1 0.642857 0.214286 0.214286
123 1 0.714286 0.142857 0.142857
124 1 0.785714 0.214286 0.214286
125 1 0.857143 0.142857 0.142857
126 1 0.928571 0.214286 0.214286
127 1 3.52588e-10 0.285714 0.142857
128 1 0.0714286 0.357143 0.214286
129 1 0.142857 0.285714 0.142857
130 1 0.214286 0.357143 0.214286
131 1 0.285714 0.285714 0.142857
132 1 0.357146 0.357154 0.214281
133 1 0.428572 0.285716 0.142858
134 1 0.500014 0.357198 0.214344
135 1 0.571428 0.285716 0.142859
136 1 0.642857 0.357166 0.214311
137 1 0.714285 0.285715 0.142858
138 1 0.785715 0.357143 0.214285
139 1 0.857143 0.285714 0.142857
140 1 0.928571 0.357143 0.214286
141 1 -1.16256e-10 0.428571 0.142857
142 1 0.0714286 0.5 0.214286
143 1 0.142857 0.428571 0.142857
144 1 0.214287 0.5 0.214288
145 1 0.285713 0.428571 0.142856
146 1 0.357077 0.500005 0.214269
147 1 0.428565 0.428574 0.142858
148 1 0.500245 0.500001 0.21355
149 1 0.571422 0.428575 0.142848
150 1 0.642884 0.500006 0.214223
151 1 0.714286 0.42857 0.142856
152 1 0.785715 0.500001 0.214286
153 1 0.857143 0.428571 0.142857
154 1 0.928571 0.5 0.214286
155 1 7.88781e-10 0.571429 0.142857
156 1 0.0714286 0.642857 0.214286
157 1 0.142857 0.571429 0.142857
158 1 0.214287 0.642856 0.214286
159 1 0.285714 0.57143 0.142857
160 1 0.357156 0.642843 0.2143
161 1 0.428566 0.571426 0.142848
162 1 0.499983 0.642858 0.214289
163 1 0.57142 0.571433 0.14283
164 1 0.642873 0.642883 0.214278
165 1 0.714286 0.57143 0.142857
166 1 0.785714 0.642856 0.214287
167 1 0.857143 0.571429 0.142857
168 1 0.928571 0.642857 0.214286
169 1 2.98405e-10 0.714286 0.142857
170 1 0.0714286 0.785714 0.214286
171 1 0.142857 0.714286 0.142857
172 1 0.214286 0.785714 0.214286
173 1 0.285715 0.714285 0.142858
174 1 0.357143 0.785714 0.214286
175 1 0.428571 0.714285 0.142857
176 1 0.5 0.785714 0.214286
177 1 0.571428 0.714285 0.142858
178 1 0.642857 0.785714 0.214286
179 1 0.714286 0.714286 0.142857
180 1 0.785714 0.785714 0.214286
181 1 0.857143 0.714286 0.142857
182 1 0.928571 0.785714 0.214286
183 1 1.23356e-10 0.857143 0.142857
184 1 0.0714286 0.928571 0.214286
185 1 0.142857 0.857143 0.142857
186 1 0.214286 0.928571 0.214286
187 1 0.285714 0.857143 0.142857
188 1 0.357143 0.928571 0.214286
189 1 0.428571 0.857143 0.142857
190 1 0.5 0.928571 0.214286
191 1 0.571429 0.857143 0.142857
192 1 0.642857 0.928571 0.214286
193 1 0.714286 0.857143 0.142857
194 1 0.785714 0.928571 0.214286
195 1 0.857143 0.857143 0.142857
196 1 0.928571 0.928571 0.214286
197 1 1.32272e-10 1.30472e-10 0.285714
198 1 0.0714286 0.0714286 0.357143
199 1 0.142857 9.06376e-11 0.285714
200 1 0.214286 0.0714286 0.357143
201 1 0.285714 7.83002e-10 0.285714
202 1 0.357143 0.0714286 0.357143
203 1 0.428571 -5.17255e-09 0.285714
204 1 0.5 0.0714281 0.357143
205 1 0.571429 -9.01658e-09 0.285714
206 1 0.642857 0.0714286 0.357143
207 1 0.714286 1.73478e-10 0.285714
208 1 0.785714 0.0714286 0.357143
209 1 0.857143 1.08432e-10 0.285714
210 1 0.928571 0.0714286 0.357143
211 1 1.35382e-10 0.142857 0.285714
212 1 0.0714286 0.214286 0.357143
213 1 0.142857 0.142857 0.285714
214 1 0.214286 0.214286 0.357143
215 1 0.285714 0.142857 0.285714
216 1 0.357144 0.214287 0.357143
217 1 0.428571 0.142857 0.285714
218 1 0.5 0.214246 0.357143
219 1 0.571429 0.142857 0.285714
220 1 0.642856 0.214285 0.357143
221 1 0.714286 0.142857 0.285714
222 1 0.785714 0.214286 0.357143
223 1 0.857143 0.142857 0.285714
224 1 0.928571 0.214286 0.357143
225 1 8.32047e-10 0.285714 0.285714
226 1 0.0714286 0.357143 0.357143
227 1 0.142857 0.285714 0.285714
228 1 0.214287 0.357144 0.357142
229 1 0.285715 0.285715 0.285714
230 1 0.357158 0.357159 0.35712
231 1 0.428555 0.285699 0.285705
232 1 0.499943 0.354799 0.35602
233 1 0.571445 0.285699 0.285715
234 1 0.642906 0.357044 0.35714
235 1 0.714287 0.285713 0.285713
236 1 0.785716 0.357142 0.357143
237 1 0.857143 0.285714 0.285714
238 1 0.928571 0.357143 0.357143
239 1 8.50212e-09 0.428571 0.285714
240 1 0.0714281 0.5 0.357143
241 1 0.142857 0.428571 0.285714
242 1 0.214247 0.5 0.357142
243 1 0.285737 0.428571 0.285708
244 1 0.35487 0.499967 0.356145
245 1 0.428153 0.427868 0.285432
246 1 0.500953 0.500193 0.353558
247 1 0.571596 0.427628 0.284701
248 1 0.644081 0.500262 0.357431
249 1 0.714297 0.428561 0.285707
250 1 0.785739 0.499999 0.357141
251 1 0.857143 0.428571 0.285714
252 1 0.928572 0.5 0.357143
253 1 7.14557e-10 0.571429 0.285714
254 1 0.0714286 0.642857 0.357143
255 1 0.142858 0.571429 0.285714
256 1 0.214287 0.642855 0.357142
257 1 0.285767 0.571428 0.285726
258 1 0.357094 0.642882 0.357114
259 1 0.427844 0.572155 0.28488
260 1 0.500031 0.644289 0.357049
261 1 0.571931 0.572489 0.284527
262 1 0.642896 0.642861 0.357141
263 1 0.714233 0.571407 0.285737
264 1 0.785714 0.642856 0.357143
265 1 0.857142 0.571429 0.285714
266 1 0.928571 0.642857 0.357143
267 1 3.53041e-10 0.714286 0.285714
268 1 0.0714286 0.785714 0.357143
269 1 0.142857 0.714286 0.285714
270 1 0.214286 0.785714 0.357143
271 1 0.285714 0.714286 0.285713
272 1 0.357143 0.785714 0.357143
273 1 0.428577 0.714272 0.28572
274 1 0.5 0.78574 0.357143
275 1 0.571426 0.714252 0.285723
276 1 0.642856 0.785714 0.357143
277 1 0.714286 0.714286 0.285714
278 1 0.785714 0.785714 0.357143
279 1 0.857143 0.714286 0.285714
280 1 0.928571 0.785714 0.357143
281 1 1.2442e-10 0.857143 0.285714
282 1 0.0714286 0.928571 0.357143
283 1 0.142857 0.857143 0.285714
284 1 0.214286 0.928571 0.357143
285 1 0.285714 0.857143 0.285714
286 1 0.357143 0.928571 0.357143
287 1 0.428571 0.857143 0.285714
288 1 0.5 0.928572 0.357143
289 1 0.571429 0.857143 0.285714
290 1 0.642857 0.928571 0.357143
291 1 0.714286 0.857143 0.285714
292 1 0.785714 0.928571 0.357143
293 1 0.857143 0.857143 0.285714
294 1 0.928571 0.928571 0.357143
295 1 1.34377e-10 1.29286e-10 0.428571
296 1 0.0714286 0.0714286 0.5
297 1 0.142857 9.02414e-11 0.428571
298 1 0.214286 0.0714286 0.5
299 1 0.285714 7.88581e-10 0.428571
300 1 0.357143 0.0714286 0.5
301 1 0.428571 -7.40801e-09 0.428571
302 1 0.5 0.0714286 0.5
303 1 0.571429 -9.32417e-09 0.428571
304 1 0.642857 0.0714286 0.5
305 1 0.714286 -1.36182e-10 0.428571
306 1 0.785714 0.0714286 0.5
307 1 0.857143 1.24848e-10 0.428571
308 1 0.928571 0.0714286 0.5
309 1 3.2169e-11 0.142857 0.428571
310 1 0.0714286 0.214286 0.5
311 1 0.142857 0.142857 0.428571
312 1 0.214286 0.214286 0.5
313 1 0.285714 0.142857 0.428571
314 1 0.357143 0.214286 0.5
315 1 0.428571 0.142857 0.428572
316 1 0.5 0.214283 0.5
317 1 0.571429 0.142857 0.428572
318 1 0.642857 0.214286 0.5
319 1 0.714286 0.142857 0.428571
320 1 0.785714 0.214286 0.5
321 1 0.857143 0.142857 0.428571
322 1 0.928571 0.214286 0.5
323 1 1.88458e-09 0.285714 0.428571
324 1 0.0714286 0.357143 0.5
325 1 0.142857 0.285714 0.428571
326 1 0.214285 0.357142 0.500001
327 1 0.285717 0.285717 0.428571
328 1 0.357148 0.357139 0.500014
329 1 0.428577 0.285699 0.428584
330 1 0.499994 0.356948 0.500224
331 1 0.57142 0.285718 0.428583
332 1 0.642856 0.357118 0.500025
333 1 0.714286 0.285714 0.428573
334 1 0.785714 0.357143 0.5
335 1 0.857143 0.285714 0.428571
336 1 0.928571 0.357143 0.5
337 1 -9.68264e-09 0.428571 0.428571
338 1 0.0714286 0.5 0.5
339 1 0.142856 0.428571 0.428572
340 1 0.214285 0.500001 0.5
341 1 0.285656 0.428561 0.428585
342 1 0.357052 0.50001 0.500144
343 1 0.425986 0.426207 0.430504
344 1 0.500139 0.499423 0.502837
345 1 0.574015 0.427679 0.430439
346 1 0.642818 0.500017 0.499936
347 1 0.714303 0.428578 0.428547
348 1 0.785713 0.5 0.499999
349 1 0.857143 0.428571 0.428572
350 1 0.928571 0.5 0.5
351 1 -1.16712e-08 0.571429 0.428571
352 1 0.0714286 0.642857 0.5
353 1 0.142857 0.571429 0.428572
354 1 0.214286 0.642857 0.5
355 1 0.285701 0.571439 0.428566
356 1 0.357139 0.642862 0.500003
357 1 0.426248 0.574362 0.430089
358 1 0.500007 0.642979 0.500083
359 1 0.573871 0.572697 0.429378
360 1 0.642851 0.642869 0.500002
361 1 0.714252 0.571412 0.428539
362 1 0.785713 0.642856 0.499999
363 1 0.857143 0.571429 0.428572
364 1 0.928571 0.642857 0.5
365 1 7.65959e-10 0.714286 0.428571
366 1 0.0714286 0.785714 0.5
367 1 0.142857 0.714286 0.428571
368 1 0.214286 0.785714 0.5
369 1 0.285716 0.714284 0.428572
370 1 0.357143 0.785714 0.5
371 1 0.428591 0.714272 0.428565
372 1 0.5 0.785716 0.5
373 1 0.571408 0.714242 0.428566
374 1 0.642856 0.785714 0.499999
375 1 0.714284 0.714284 0.428572
376 1 0.785714 0.785714 0.5
377 1 0.857143 0.714286 0.428571
378 1 0.928571 0.785714 0.5
379 1 8.36619e-11 0.857143 0.428571
380 1 0.0714286 0.928571 0.5
381 1 0.142857 0.857143 0.428571
382 1 0.214286 0.928571 0.5
383 1 0.285714 0.857143 0.428571
384 1 0.357143 0.928571 0.5
385 1 0.428571 0.857143 0.428572
386 1 0.5 0.928571 0.5
387 1 0.571429 0.857142 0.428572
388 1 0.642857 0.928571 0.5
389 1 0.714286 0.857143 0.428571
390 1 0.785714 0.928571 0.5
391 1 0.857143 0.857143 0.428571
392 1 0.928571 0.928571 0.5
393 1 1.31102e-10 1.31361e-10 0.571429
394 1 0.0714286 0.0714286 0.642857
395 1 0.142857 1.44158e-10 0.571429
396 1 0.214286 0.0714286 0.642857
397 1 0.285714 -1.76424e-10 0.571429
398 1 0.357143 0.0714286 0.642857
399 1 0.428571 2.90698e-10 0.571429
400 1 0.5 0.0714286 0.642857
401 1 0.571429 2.89513e-10 0.571429
402 1 0.642857 0.0714286 0.642857
403 1 0.714286 -1.67778e-10 0.571429
404 1 0.785714 0.0714286 0.642857
405 1 0.857143 1.24459e-10 0.571429
406 1 0.928571 0.0714286 0.642857
407 1 1.61536e-10 0.142857 0.571429
408 1 0.0714286 0.214286 0.642857
409 1 0.142857 0.142857 0.571429
410 1 0.214286 0.214286 0.642857
411 1 0.285714 0.142857 0.571429
412 1 0.357143 0.214286 0.642857
413 1 0.428571 0.142857 0.571429
414 1 0.5 0.214286 0.642857
415 1 0.571429 0.142857 0.571429
416 1 0.642857 0.214286 0.642857
417 1 0.714286 0.142857 0.571429
418 1 0.785714 0.214286 0.642857
419 1 0.857143 0.142857 0.571429
420 1 0.928571 0.214286 0.642857
421 1 -1.97715e-10 0.285714 0.571429
422 1 0.0714286 0.357143 0.642857
423 1 0.142857 0.285714 0.571429
424 1 0.214286 0.357143 0.642857
425 1 0.285715 0.285715 0.571428
426 1 0.357144 0.357144 0.642856
427 1 0.428568 0.285713 0.57143
428 1 0.5 0.357145 0.642858
429 1 0.571432 0.285711 0.571431
430 1 0.642857 0.357143 0.642857
431 1 0.714286 0.285714 0.571429
432 1 0.785714 0.357143 0.642857
433 1 0.857143 0.285714 0.571429
434 1 0.928571 0.357143 0.642857
435 1 2.32253e-10 0.428571 0.571429
436 1 0.0714286 0.5 0.642857
437 1 0.142857 0.428571 0.571429
438 1 0.214286 0.5 0.642857
439 1 0.285715 0.428569 0.571428
440 1 0.357144 0.5 0.642858
441 1 0.428575 0.428576 0.571377
442 1 0.5 0.499998 0.64291
443 1 0.571428 0.428566 0.57139
444 1 0.642855 0.499999 0.642855
445 1 0.714283 0.428572 0.571426
446 1 0.785714 0.5 0.642857
447 1 0.857143 0.428571 0.571429
448 1 0.928571 0.5 0.642857
449 1 1.52855e-10 0.571429 0.571429
450 1 0.0714286 0.642857 0.642857
451 1 0.142857 0.571429 0.571429
452 1 0.214286 0.642857 0.642857
453 1 0.285714 0.571431 0.571428
454 1 0.357143 0.642857 0.642857
455 1 0.428562 0.571418 0.571412
456 1 0.5 0.642856 0.642857
457 1 0.57144 0.571434 0.571437
458 1 0.642857 0.642857 0.642857
459 1 0.714283 0.571428 0.571426
460 1 0.785714 0.642857 0.642857
461 1 0.857143 0.571429 0.571429
462 1 0.928571 0.642857 0.642857
463 1 -2.57342e-10 0.714286 0.571429
464 1 0.0714286 0.785714 0.642857
465 1 0.142857 0.714286 0.571429
466 1 0.214286 0.785714 0.642857
467 1 0.285715 0.714285 0.571428
468 1 0.357143 0.785714 0.642857
469 1 0.42857 0.714285 0.571428
470 1 0.5 0.785714 0.642857
471 1 0.57143 0.714286 0.571429
472 1 0.642857 0.785714 0.642857
473 1 0.714286 0.714286 0.571429
474 1 0.785714 0.785714 0.642857
475 1 0.857143 0.714286 0.571429
476 1 0.928571 0.785714 0.642857
477 1 1.43636e-10 0.857143 0.571429
478 1 0.0714286 0.928571 0.642857
479 1 0.142857 0.857143 0.571429
480 1 0.214286 0.928571 0.642857
481 1 0.285714 0.857143 0.571429
482 1 0.357143 0.928571 0.642857
483 1 0.428571 0.857143 0.571429
484 1 0.5 0.928571 0.642857
485 1 0.571429 0.857143 0.571429
486 1 0.642857 0.928571 0.642857
487 1 0.714286 0.857143 0.571429
488 1 0.785714 0.928571 0.642857
489 1 0.857143 0.857143 0.571429
490 1 0.928571 0.928571 0.642857
491 1 1.30508e-10 1.30709e-10 0.714286
492 1 0.0714286 0.0714286 0.785714
493 1 0.142857 1.29828e-10 0.714286
494 1 0.214286 0.0714286 0.785714
495 1 0.285714 1.3879e-10 0.714286
496 1 0.357143 0.0714286 0.785714
497 1 0.428571 9.61026e-11 0.714286
498 1 0.5 0.0714286 0.785714
499 1 0.571429 1.08348e-10 0.714286
500 1 0.642857 0.0714286 0.785714
501 1 0.714286 1.40024e-10 0.714286
502 1 0.785714 0.0714286 0.785714
503 1 0.857143 1.29207e-10 0.714286
504 1 0.928571 0.0714286 0.785714
505 1 1.31982e-10 0.142857 0.714286
506 1 0.0714286 0.214286 0.785714
507 1 0.142857 0.142857 0.714286
508 1 0.214286 0.214286 0.785714
509 1 0.285714 0.142857 0.714286
510 1 0.357143 0.214286 0.785714
511 1 0.428571 0.142857 0.714286
512 1 0.5 0.214286 0.785714
513 1 0.571429 0.142857 0.714286
514 1 0.642857 0.214286 0.785714
515 1 0.714286 0.142857 0.714286
516 1 0.785714 0.214286 0.785714
517 1 0.857143 0.142857 0.714286
518 1 0.928571 0.214286 0.785714
519 1 1.27565e-10 0.285714 0.714286
520 1 0.0714286 0.357143 0.785714
521 1 0.142857 0.285714 0.714286
522 1 0.214286 0.357143 0.785714
523 1 0.285714 0.285714 0.714286
524 1 0.357143 0.357143 0.785714
525 1 0.428571 0.285714 0.714286
526 1 0.5 0.357143 0.785714
527 1 0.571429 0.285714 0.714286
528 1 0.642857 0.357143 0.785714
529 1 0.714286 0.285714 0.714286
530 1 0.785714 0.357143 0.785714
531 1 0.857143 0.285714 0.714286
532 1 0.928571 0.357143 0.785714
533 1 9.53798e-11 0.428571 0.714286
534 1 0.0714286 0.5 0.785714
535 1 0.142857 0.428571 0.714286
536 1 0.214286 0.5 0.785714
537 1 0.285714 0.428571 0.714286
538 1 0.357143 0.5 0.785714
539 1 0.428571 0.428571 0.714285
540 1 0.5 0.5 0.785715
541 1 0.571429 0.428571 0.714286
542 1 0.642857 0.5 0.785714
543 1 0.714286 0.428571 0.714286
544 1 0.785714 0.5 0.785714
545 1 0.857143 0.428571 0.714286
546 1 0.928571 0.5 0.785714
547 1 1.12276e-10 0.571429 0.714286
548 1 0.0714286 0.642857 0.785714
549 1 0.142857 0.571429 0.714286
550 1 0.214286 0.642857 0.785714
551 1 0.285714 0.571429 0.714286
552 1 0.357143 0.642857 0.785714
553 1 0.428571 0.571429 0.714286
554 1 0.5 0.642857 0.785714
555 1 0.571429 0.571429 0.714286
556 1 0.642857 0.642857 0.785714
557 1 0.714286 0.571429 0.714286
558 1 0.785714 0.642857 0.785714
559 1 0.857143 0.571429 0.714286
560 1 0.928571 0.642857 0.785714
561 1 1.2982e-10 0.714286 0.714286
562 1 0.0714286 0.785714 0.785714
563 1 0.142857 0.714286 0.714286
564 1 0.214286 0.785714 0.785714
565 1 0.285714 0.714286 0.714286
566 1 0.357143 0.785714 0.785714
567 1 0.428571 0.714286 0.714286
568 1 0.5 0.785714 0.785714
569 1 0.571429 0.714286 0.714286
570 1 0.642857 0.785714 0.785714
571 1 0.714286 0.714286 0.714286
572 1 0.785714 0.785714 0.785714
573 1 0.857143 0.714286 0.714286
574 1 0.928571 0.785714 0.785714
575 1 1.30651e-10 0.857143 0.714286
576 1 0.0714286 0.928571 0.785714
577 1 0.142857 0.857143 0.714286
578 1 0.214286 0.928571 0.785714
579 1 0.285714 0.857143 0.714286
580 1 0.357143 0.928571 0.785714
581 1 0.428571 0.857143 0.714286
582 1 0.5 0.928571 0.785714
583 1 0.571429 0.857143 0.714286
584 1 0.642857 0.928571 0.785714
585 1 0.714286 0.857143 0.714286
586 1 0.785714 0.928571 0.785714
587 1 0.857143 0.857143 0.714286
588 1 0.928571 0.928571 0.785714
589 1 1.30657e-10 1.30853e-10 0.857143
590 1 0.0714286 0.0714286 0.928571
591 1 0.142857 1.30897e-10 0.857143
592 1 0.214286 0.0714286 0.928571
593 1 0.285714 1.30728e-10 0.857143
594 1 0.357143 0.0714286 0.928571
595 1 0.428571 1.263e-10 0.857143
596 1 0.5 0.0714286 0.928571
597 1 0.571429 1.26713e-10 0.857143
598 1 0.642857 0.0714286 0.928571
599 1 0.714286 1.32763e-10 0.857143
600 1 0.785714 0.0714286 0.928571
601 1 0.857143 1.30604e-10 0.857143
602 1 0.928571 0.0714286 0.928571
603 1 1.30522e-10 0.142857 0.857143
604 1 0.0714286 0.214286 0.928571
605 1 0.142857 0.142857 0.857143
606 1 0.214286 0.214286 0.928571
607 1 0.285714 0.142857 0.857143
608 1 0.357143 0.214286 0.928571
609 1 0.428571 0.142857 0.857143
610 1 0.5 0.214286 0.928571
611 1 0.571429 0.142857 0.857143
612 1 0.642857 0.214286 0.928571
613 1 0.714286 0.142857 0.857143
614 1 0.785714 0.214286 0.928571
615 1 0.857143 0.142857 0.857143
616 1 0.928571 0.214286 0.928571
617 1 1.31443e-10 0.285714 0.857143
618 1 0.0714286 0.357143 0.928571
619 1 0.142857 0.285714 0.857143
620 1 0.214286 0.357143 0.928571
621 1 0.285714 0.285714 0.857143
622 1 0.357143 0.357143 0.928571
623 1 0.428571 0.285714 0.857143
624 1 0.5 0.357143 0.928571
625 1 0.571429 0.285714 0.857143
626 1 0.642857 0.357143 0.928571
627 1 0.714286 0.285714 0.857143
628 1 0.785714 0.357143 0.928571
629 1 0.857143 0.285714 0.857143
630 1 0.928571 0.357143 0.928571
631 1 1.26169e-10 0.428571 0.857143
632 1 0.0714286 0.5 0.928571
633 1 0.142857 0.428571 0.857143
634 1 0.214286 0.5 0.928571
635 1 0.285714 0.428571 0.857143
636 1 0.357143 0.5 0.928571
637 1 0.428571 0.428571 0.857143
638 1 0.5 0.5 0.928571
639 1 0.571429 0.428571 0.857143
640 1 0.642857 0.5 0.928571
641 1 0.714286 0.428571 0.857143
642 1 0.785714 0.5 0.928571
643 1 0.857143 0.428571 0.857143
644 1 0.928571 0.5 0.928571
645 1 1.26109e-10 0.571429 0.857143
646 1 0.0714286 0.642857 0.928571
647 1 0.142857 0.571429 0.857143
648 1 0.214286 0.642857 0.928571
649 1 0.285714 0.571429 0.857143
650 1 0.357143 0.642857 0.928571
651 1 0.428571 0.571429 0.857143
652 1 0.5 0.642857 0.928571
653 1 0.571429 0.571429 0.857143
654 1 0.642857 0.642857 0.928571
655 1 0.714286 0.571429 0.857143
656 1 0.785714 0.642857 0.928571
657 1 0.857143 0.571429 0.857143
658 1 0.928571 0.642857 0.928571
659 1 1.33278e-10 0.714286 0.857143
660 1 0.0714286 0.785714 0.928571
661 1 0.142857 0.714286 0.857143
662 1 0.214286 0.785714 0.928571
663 1 0.285714 0.714286 0.857143
664 1 0.357143 0.785714 0.928571
665 1 0.428571 0.714286 0.857143
666 1 0.5 0.785714 0.928571
667 1 0.571429 0.714286 0.857143
668 1 0.642857 0.785714 0.928571
669 1 0.714286 0.714286 0.857143
670 1 0.785714 0.785714 0.928571
671 1 0.857143 0.714286 0.857143
672 1 0.928571 0.785714 0.928571
673 1 1.30249e-10 0.857143 0.857143
674 1 0.0714286 0.928571 0.928571
675 1 0.142857 0.857143 0.857143
676 1 0.214286 0.928571 0.928571
677 1 0.285714 0.857143 0.857143
678 1 0.357143 0.928571 0.928571
679 1 0.428571 0.857143 0.857143
680 1 0.5 0.928571 0.928571
681 1 0.571429 0.857143 0.857143
682 1 0.642857 0.928571 0.928571
683 1 0.714286 0.857143 0.857143
684 1 0.785714 0.928571 0.928571
685 1 0.857143 0.857143 0.857143
686 1 0.928571 0.928571 0.928571
687 2 0.572947 0.504082 0.315913
688 2 0.463557 0.499826 0.28409
689 2 0.572425 0.459486 0.361196
690 2 0.464099 0.572272 0.356883
691 2 0.535694 0.572209 0.357261
692 2 0.499949 0.464482 0.429388
693 3 0.499731 0.427842 0.392562
694 3 0.428254 0.499883 0.392894
695 3 0.499933 0.536042 0.428743
