ITEM: TIMESTEP
118
ITEM: NUMBER OF ATOMS
692
ITEM: BOX BOUNDS pp pp pp
0.0000000000000000e+00 2.2013900999999997e+01
0.0000000000000000e+00 2.2013900999999997e+01
0.0000000000000000e+00 2.2013900999999997e+01
ITEM: ATOMS id type xs ys zs
1 1 2.18253e-05 2.08445e-05 1.21492e-05
2 1 0.0713062 0.071305 0.0713758
514 1 0.356597 0.497749 0.497585
4 1 0.214135 0.071217 0.0713748
175 1 0.857683 0.428628 0.428333
6 1 0.357071 0.0712468 0.0713754
174 1 0.715929 0.428011 0.427443
8 1 0.50001 0.0713406 0.0713768
173 1 0.574371 0.426487 0.427044
10 1 0.642912 0.0714361 0.0713785
172 1 0.421463 0.421455 0.422299
12 1 0.785771 0.0714754 0.071379
13 1 0.857237 0.000110619 2.70032e-05
14 1 0.928577 0.0714284 0.0713781
15 1 0.999901 0.142768 2.05609e-05
16 1 0.071218 0.214134 0.0713749
17 1 0.142582 0.142581 6.62967e-05
18 1 0.21394 0.213938 0.0713702
515 1 0.489324 0.489381 0.478784
20 1 0.35697 0.213969 0.0713719
21 1 0.428509 0.142627 6.14485e-05
22 1 0.499984 0.214078 0.0713752
23 1 0.571463 0.142752 3.75646e-05
24 1 0.642904 0.214202 0.0713782
196 1 0.928738 0.357134 0.499915
26 1 0.785766 0.214254 0.0713788
27 1 0.857183 0.14284 2.797e-05
28 1 0.928527 0.214245 0.0713774
445 1 0.498996 0.498998 0.355737
30 1 0.0712475 0.357069 0.0713755
195 1 0.786369 0.357059 0.499852
32 1 0.21397 0.356968 0.0713719
33 1 0.285294 0.285292 0.000271792
34 1 0.356881 0.35688 0.0713701
35 1 0.428446 0.285394 0.000185154
36 1 0.499954 0.356971 0.0713775
37 1 0.571451 0.285544 0.000104011
38 1 0.642889 0.357094 0.0713797
39 1 0.714367 0.285649 8.96003e-05
40 1 0.785757 0.357153 0.071379
41 1 0.85717 0.285692 3.85601e-05
42 1 0.928545 0.357131 0.0713778
194 1 0.644888 0.355694 0.498401
44 1 0.142627 0.428507 6.19067e-05
45 1 0.285395 0.428444 0.000185801
46 1 0.428403 0.428401 0.000268774
47 1 0.571425 0.428508 0.000106915
48 1 0.714353 0.4286 7.16045e-05
49 1 0.857212 0.428591 4.86454e-05
50 1 2.0996e-05 1.9819e-05 0.142744
51 1 0.0713116 0.0713101 0.214138
193 1 0.497744 0.356587 0.49759
53 1 0.214076 0.0711553 0.214064
171 1 0.284203 0.427436 0.427456
55 1 0.357039 0.0712068 0.214071
170 1 0.142427 0.428385 0.428336
57 1 0.500004 0.0713404 0.21409
169 1 5.57698e-05 0.428575 0.428436
59 1 0.642921 0.0714653 0.214114
168 1 0.857394 0.285634 0.428384
61 1 0.785804 0.0715061 0.214117
167 1 0.714982 0.285102 0.427896
63 1 0.928615 0.0714544 0.214129
64 1 0.999899 0.142767 0.142733
65 1 0.0711566 0.214074 0.214064
66 1 0.142578 0.142576 0.14268
67 1 0.213727 0.213726 0.213798
68 1 0.285502 0.142532 0.14266
69 1 0.356863 0.213787 0.21384
70 1 0.428508 0.142624 0.142688
71 1 0.499977 0.213987 0.213955
72 1 0.571463 0.142751 0.142717
73 1 0.642936 0.214153 0.214037
74 1 0.714346 0.142841 0.142732
75 1 0.785845 0.214194 0.21403
76 1 0.857182 0.14284 0.142729
77 1 0.928561 0.21421 0.2141
78 1 0.999878 0.285641 0.142729
79 1 0.0712076 0.357038 0.214071
80 1 0.142533 0.2855 0.14266
81 1 0.213788 0.356861 0.213839
82 1 0.285287 0.285286 0.142463
83 1 0.356555 0.356554 0.213308
84 1 0.428445 0.28539 0.14256
85 1 0.499933 0.356825 0.213767
86 1 0.57145 0.285544 0.142651
87 1 0.642973 0.357007 0.213876
88 1 0.714365 0.285649 0.142669
89 1 0.785848 0.357116 0.214011
90 1 0.857169 0.285691 0.142718
91 1 0.928592 0.357105 0.214089
92 1 0.999943 0.428561 0.142731
93 1 0.142625 0.428507 0.142688
94 1 0.285391 0.428443 0.142559
95 1 0.4284 0.428398 0.142487
96 1 0.571423 0.428507 0.142655
97 1 0.714351 0.4286 0.142688
98 1 0.857211 0.428591 0.142709
166 1 0.571372 0.285187 0.428162
100 1 0.0713274 0.0713255 0.35701
189 1 0.928596 0.214238 0.499911
102 1 0.214075 0.071161 0.356958
188 1 0.785904 0.214226 0.49988
104 1 0.356992 0.0711151 0.356918
105 1 0.428545 -8.7217e-06 0.285495
106 1 0.499985 0.0713856 0.356929
107 1 0.571492 0.000148447 0.28549
108 1 0.642926 0.0715538 0.35696
109 1 0.714429 0.000243852 0.285487
110 1 0.785855 0.071575 0.356961
111 1 0.857327 0.000220111 0.285495
112 1 0.928626 0.0714815 0.357011
113 1 0.999916 0.142766 0.285557
114 1 0.0711629 0.214073 0.356957
115 1 0.142554 0.142553 0.285479
116 1 0.21368 0.213678 0.356749
117 1 0.285328 0.142286 0.285315
118 1 0.356482 0.21318 0.356469
119 1 0.428458 0.142501 0.285388
120 1 0.499876 0.213865 0.356711
121 1 0.571449 0.142736 0.285469
122 1 0.642946 0.214064 0.356851
123 1 0.714381 0.142833 0.285501
124 1 0.785982 0.21409 0.356807
125 1 0.857247 0.142833 0.285506
126 1 0.928598 0.214215 0.356976
127 1 0.99987 0.285597 0.285509
128 1 0.0711169 0.35699 0.356918
129 1 0.142287 0.285327 0.285315
130 1 0.213182 0.35648 0.356469
131 1 0.284484 0.284483 0.284497
132 1 0.354211 0.35421 0.354175
133 1 0.428283 0.284951 0.284892
134 1 0.500053 0.356326 0.35593
135 1 0.571514 0.28533 0.285206
136 1 0.64371 0.356339 0.355979
137 1 0.714631 0.285416 0.285181
138 1 0.786322 0.35684 0.356591
139 1 0.857332 0.285585 0.285416
140 1 0.928703 0.357094 0.356934
141 1 -7.4867e-06 0.428543 0.285495
142 1 0.142501 0.428456 0.285388
143 1 0.28495 0.42828 0.284889
144 1 0.427722 0.42772 0.284271
145 1 0.571577 0.428325 0.285098
146 1 0.714584 0.42858 0.285238
147 1 0.857417 0.428535 0.28538
165 1 0.427437 0.284202 0.427456
184 1 0.213735 0.213733 0.499847
183 1 0.0711832 0.214078 0.499904
151 1 0.428577 5.33349e-05 0.428436
152 1 0.571515 0.000298725 0.428412
153 1 0.714482 0.000406919 0.428401
154 1 0.85733 0.000235108 0.428445
155 1 0.999925 0.142783 0.428459
156 1 0.142574 0.142572 0.42842
157 1 0.285343 0.142332 0.428362
158 1 0.428386 0.142426 0.428336
159 1 0.571386 0.142802 0.428394
160 1 0.714393 0.142855 0.428417
161 1 0.857232 0.142885 0.428448
162 1 0.999902 0.285612 0.428443
163 1 0.142334 0.285341 0.428362
164 1 0.284573 0.284572 0.427987
182 1 0.928636 0.071502 0.49992
58 1 0.571479 4.24097e-05 0.142732
60 1 0.714373 0.000113444 0.142733
177 1 0.21408 0.071181 0.499904
346 1 0.356972 0.499952 0.0713772
347 1 0.499976 0.499974 0.0713817
148 1 6.42212e-05 6.22583e-05 0.428466
99 1 4.73803e-05 4.56972e-05 0.285572
62 1 0.857237 0.000110147 0.142732
395 1 0.356825 0.499931 0.213764
396 1 0.499879 0.499876 0.21389
442 1 0.0713867 0.499984 0.356929
443 1 0.213864 0.499874 0.356709
176 1 0.0713388 0.0713367 0.499919
43 1 0.999945 0.428561 2.40991e-05
178 1 0.357002 0.0712033 0.499903
179 1 0.49999 0.0714942 0.499912
31 1 0.142537 0.285503 8.57058e-05
29 1 0.99988 0.285642 2.36701e-05
25 1 0.714347 0.142841 2.59057e-05
185 1 0.356603 0.21348 0.499818
186 1 0.499736 0.214103 0.499749
187 1 0.642889 0.214122 0.499896
19 1 0.285505 0.142536 8.54112e-05
190 1 0.0712058 0.357 0.499903
513 1 0.214105 0.499735 0.499749
9 1 0.571479 4.28699e-05 2.47816e-05
11 1 0.714374 0.000113638 2.61027e-05
512 1 0.0714964 0.499988 0.499912
191 1 0.213482 0.356601 0.499818
192 1 0.355059 0.355058 0.499569
642 1 0.642936 0.500041 0.928742
641 1 0.499888 0.499886 0.92888
640 1 0.356827 0.499935 0.92899
639 1 0.213991 0.499976 0.928797
590 1 0.213855 0.499881 0.786049
589 1 0.0713833 0.499986 0.785827
594 1 0.786507 0.499967 0.786279
541 1 0.214077 0.499744 0.642997
592 1 0.499036 0.499033 0.787045
540 1 0.0714905 0.49999 0.642841
197 1 7.22437e-05 7.02456e-05 0.571378
246 1 6.56436e-05 6.38884e-05 0.714291
295 1 4.9222e-05 4.79143e-05 0.857185
338 1 0.142506 0.428457 0.857363
331 1 0.571514 0.285332 0.857548
330 1 0.499938 0.356827 0.928988
329 1 0.428285 0.284965 0.857847
337 1 0.999994 0.428544 0.85726
543 1 0.489706 0.489716 0.66392
542 1 0.356495 0.497774 0.645169
339 1 0.284964 0.428282 0.857849
688 3 0.492683 0.492664 0.571339
198 1 0.07134 0.071338 0.642838
343 1 0.857418 0.428535 0.857378
200 1 0.214082 0.0711829 0.642851
336 1 0.928594 0.357105 0.928667
202 1 0.357003 0.071203 0.642849
203 1 0.428579 8.35013e-05 0.571376
204 1 0.499992 0.0714893 0.64284
205 1 0.571538 0.000356801 0.571377
206 1 0.642916 0.071657 0.642825
207 1 0.714502 0.000352956 0.571378
208 1 0.785857 0.071605 0.642844
209 1 0.857343 0.000247893 0.571379
210 1 0.928637 0.0715027 0.642837
211 1 0.99993 0.14279 0.571378
212 1 0.0711851 0.21408 0.642852
213 1 0.142583 0.142581 0.571378
214 1 0.213737 0.213735 0.642911
215 1 0.285351 0.142376 0.571376
216 1 0.356605 0.213479 0.642931
217 1 0.428408 0.142594 0.571374
218 1 0.499747 0.214079 0.642995
219 1 0.571327 0.143049 0.571373
220 1 0.642889 0.214117 0.642855
221 1 0.714401 0.1429 0.571377
222 1 0.785904 0.214225 0.642877
223 1 0.857233 0.142902 0.571378
224 1 0.928598 0.214239 0.642846
225 1 0.999919 0.285611 0.571377
226 1 0.0712051 0.357001 0.642849
227 1 0.142378 0.285349 0.571376
228 1 0.21348 0.356603 0.64293
229 1 0.284692 0.284691 0.571384
230 1 0.355068 0.355066 0.643238
231 1 0.428052 0.284846 0.571376
232 1 0.497788 0.356506 0.645151
233 1 0.571023 0.286086 0.571366
234 1 0.644877 0.355678 0.644361
235 1 0.714686 0.285363 0.571379
236 1 0.786371 0.357056 0.642913
237 1 0.857368 0.285638 0.571379
238 1 0.928738 0.357134 0.642841
239 1 8.66243e-05 0.428577 0.571377
240 1 0.142596 0.428406 0.571374
241 1 0.284848 0.428051 0.571376
242 1 0.425212 0.425213 0.57146
243 1 0.572382 0.414977 0.57138
244 1 0.714496 0.428105 0.571402
245 1 0.857522 0.428639 0.571378
342 1 0.714586 0.428579 0.85752
247 1 0.07133 0.0713283 0.785746
341 1 0.571582 0.428322 0.857671
249 1 0.214078 0.0711661 0.785796
335 1 0.857333 0.285587 0.85734
251 1 0.356993 0.0711198 0.785835
252 1 0.428577 5.24516e-05 0.714319
253 1 0.499988 0.0713828 0.785826
254 1 0.571516 0.000297394 0.714345
255 1 0.642929 0.0715519 0.785798
256 1 0.714483 0.000408399 0.714356
257 1 0.785857 0.071576 0.785797
258 1 0.857332 0.000236511 0.714313
259 1 0.928628 0.0714831 0.785746
260 1 0.999928 0.142785 0.714297
261 1 0.0711677 0.214076 0.785796
262 1 0.142577 0.142575 0.714336
263 1 0.213688 0.213686 0.786003
264 1 0.285348 0.142338 0.714391
265 1 0.35649 0.213199 0.786277
266 1 0.428389 0.142417 0.714417
267 1 0.499883 0.213857 0.786046
268 1 0.57139 0.142794 0.714361
269 1 0.642953 0.214058 0.785909
270 1 0.714395 0.142855 0.714338
271 1 0.785984 0.21409 0.78595
272 1 0.857234 0.142886 0.714309
273 1 0.928601 0.214216 0.78578
274 1 0.999905 0.285613 0.714312
275 1 0.0711206 0.356991 0.785836
276 1 0.142339 0.285346 0.714391
277 1 0.213199 0.356487 0.786279
278 1 0.284584 0.284582 0.714772
279 1 0.354304 0.354303 0.788485
280 1 0.42746 0.284162 0.715283
281 1 0.500036 0.356327 0.786819
282 1 0.571382 0.285162 0.714602
283 1 0.643714 0.356333 0.786784
284 1 0.714984 0.285101 0.714861
285 1 0.786318 0.356844 0.786163
286 1 0.857397 0.285633 0.714374
287 1 0.928704 0.357094 0.785823
288 1 5.40932e-05 0.428575 0.71432
289 1 0.142416 0.428387 0.714418
290 1 0.284157 0.427454 0.715288
291 1 0.421665 0.421659 0.720283
292 1 0.574347 0.426443 0.715745
293 1 0.715908 0.428026 0.715301
294 1 0.857682 0.428626 0.714427
340 1 0.427747 0.427744 0.858493
296 1 0.0713141 0.0713128 0.928616
334 1 0.78585 0.357117 0.928746
298 1 0.21408 0.0711613 0.928686
333 1 0.714634 0.285415 0.857578
300 1 0.357041 0.071211 0.92868
332 1 0.642977 0.357006 0.928884
302 1 0.500005 0.071342 0.928664
303 1 0.571493 0.00014801 0.857267
304 1 0.642923 0.071465 0.928644
305 1 0.714431 0.000244119 0.857272
306 1 0.785806 0.0715064 0.928642
307 1 0.857329 0.000221991 0.857264
308 1 0.928617 0.071456 0.928628
309 1 0.999919 0.142768 0.857198
310 1 0.0711624 0.214078 0.928686
311 1 0.14256 0.142558 0.857273
312 1 0.213741 0.21374 0.928939
313 1 0.285335 0.142298 0.857432
314 1 0.356868 0.213797 0.928902
315 1 0.428459 0.142505 0.857362
316 1 0.499978 0.21399 0.928796
317 1 0.571452 0.142734 0.857288
318 1 0.642937 0.214154 0.928719
319 1 0.714385 0.142832 0.857258
320 1 0.785847 0.214194 0.928728
321 1 0.857249 0.142834 0.857251
322 1 0.928564 0.214212 0.928655
323 1 0.999873 0.285599 0.857245
324 1 0.0712117 0.357039 0.928681
325 1 0.142299 0.285333 0.857433
326 1 0.213797 0.356865 0.928903
327 1 0.284522 0.28452 0.858219
328 1 0.356567 0.356565 0.92942
181 1 0.785857 0.0716045 0.499912
180 1 0.642915 0.0716576 0.499928
511 1 0.857615 0.857613 0.428366
345 1 0.214078 0.499982 0.0713752
539 1 0.928817 0.928815 0.499906
537 1 0.64316 0.929221 0.499853
510 1 0.714936 0.858251 0.428045
509 1 0.571649 0.858004 0.428181
350 1 0.928618 0.500034 0.0713787
536 1 0.500138 0.928953 0.499925
352 1 0.0714367 0.642911 0.0713786
353 1 0.142752 0.571462 3.80676e-05
354 1 0.214203 0.642903 0.0713781
355 1 0.285545 0.571449 0.000104707
356 1 0.357095 0.642888 0.071379
357 1 0.428509 0.571424 0.000107672
358 1 0.500033 0.642887 0.0713809
349 1 0.785801 0.500056 0.0713797
360 1 0.642925 0.642924 0.0713827
361 1 0.714394 0.571511 8.38679e-05
362 1 0.785864 0.642958 0.0713807
363 1 0.857294 0.571503 6.83582e-05
364 1 0.928696 0.64294 0.0713797
535 1 0.357136 0.928734 0.499915
366 1 0.0714761 0.78577 0.0713791
534 1 0.214241 0.928594 0.499911
368 1 0.214255 0.785766 0.0713785
369 1 0.285649 0.714366 9.0062e-05
370 1 0.357154 0.785756 0.0713787
371 1 0.428602 0.714352 7.16708e-05
372 1 0.500057 0.7858 0.0713793
373 1 0.571513 0.714393 8.36362e-05
374 1 0.64296 0.785863 0.0713803
375 1 0.71444 0.714439 0.000141153
376 1 0.785886 0.785885 0.0713814
377 1 0.857353 0.714436 9.41897e-05
378 1 0.928729 0.785836 0.0713802
379 1 0.000111447 0.857237 2.71431e-05
380 1 0.0714294 0.928576 0.0713781
381 1 0.142841 0.857182 2.80748e-05
382 1 0.214247 0.928526 0.0713773
383 1 0.285693 0.85717 3.8459e-05
384 1 0.357132 0.928544 0.0713776
385 1 0.428593 0.857211 4.84028e-05
386 1 0.500036 0.928617 0.0713784
387 1 0.571504 0.857293 6.79935e-05
388 1 0.642942 0.928695 0.0713794
389 1 0.714437 0.857352 9.38923e-05
390 1 0.785837 0.928728 0.07138
391 1 0.857348 0.857348 9.31894e-05
392 1 0.928684 0.928683 0.0713796
393 1 0.0713411 0.500003 0.21409
394 1 0.213987 0.499976 0.213954
533 1 0.0715043 0.928634 0.49992
530 1 0.643826 0.787326 0.499186
397 1 0.642932 0.50004 0.214022
508 1 0.428631 0.857679 0.428332
507 1 0.285638 0.85739 0.428385
400 1 4.3094e-05 0.571477 0.142732
401 1 0.0714659 0.64292 0.214114
402 1 0.142752 0.571461 0.142717
403 1 0.214153 0.642935 0.214036
404 1 0.285544 0.571448 0.14265
405 1 0.357006 0.642974 0.213871
406 1 0.428509 0.571422 0.142652
407 1 0.500043 0.642931 0.214019
408 1 0.571455 0.571453 0.142741
409 1 0.642996 0.642994 0.213995
410 1 0.714393 0.57151 0.142678
411 1 0.786016 0.643032 0.213893
412 1 0.857293 0.571503 0.142691
413 1 0.928791 0.642971 0.214052
414 1 0.000114203 0.714372 0.142733
415 1 0.0715069 0.785803 0.214117
416 1 0.142841 0.714345 0.142731
417 1 0.214194 0.785845 0.214029
418 1 0.285649 0.714365 0.142667
419 1 0.357118 0.785848 0.214011
420 1 0.428602 0.714351 0.142687
421 1 0.500067 0.785915 0.213976
422 1 0.571512 0.714392 0.142677
423 1 0.643035 0.786015 0.213893
424 1 0.714438 0.714437 0.142624
425 1 0.786057 0.786056 0.213836
426 1 0.857353 0.714435 0.142667
427 1 0.928839 0.785914 0.214031
428 1 0.00011109 0.857236 0.142732
429 1 0.0714559 0.928614 0.214129
430 1 0.142841 0.857181 0.142729
431 1 0.214212 0.92856 0.2141
432 1 0.285692 0.857169 0.142718
433 1 0.357106 0.928591 0.214089
434 1 0.428592 0.85721 0.142709
435 1 0.500035 0.928686 0.214073
436 1 0.571504 0.857292 0.142691
437 1 0.642973 0.92879 0.214052
438 1 0.714437 0.857352 0.142667
439 1 0.785915 0.928838 0.214031
440 1 0.857348 0.857347 0.142668
441 1 0.928768 0.928767 0.214064
529 1 0.500324 0.786664 0.499982
528 1 0.357066 0.78636 0.499853
444 1 0.356322 0.500045 0.355923
506 1 0.142888 0.85723 0.428448
446 1 0.643302 0.500139 0.356594
505 1 0.00023728 0.857328 0.428445
504 1 0.858253 0.714934 0.428045
449 1 0.000149541 0.571491 0.28549
450 1 0.071555 0.642925 0.35696
451 1 0.142736 0.571447 0.285468
452 1 0.214063 0.642946 0.356849
453 1 0.28533 0.571513 0.285203
454 1 0.356329 0.643719 0.355966
455 1 0.428324 0.571577 0.285084
456 1 0.500145 0.643299 0.356585
457 1 0.571482 0.571479 0.285459
458 1 0.64367 0.643667 0.356447
459 1 0.714654 0.57163 0.285141
460 1 0.786744 0.6434 0.356235
461 1 0.857541 0.571549 0.285324
462 1 0.929075 0.643058 0.35682
463 1 0.000244965 0.714428 0.285487
464 1 0.0715772 0.785853 0.356961
465 1 0.142834 0.714381 0.2855
466 1 0.214093 0.785979 0.356808
467 1 0.285414 0.714633 0.285177
468 1 0.356843 0.78632 0.356591
469 1 0.428582 0.714583 0.285236
470 1 0.499973 0.786505 0.356478
471 1 0.571634 0.714653 0.285139
472 1 0.643403 0.786743 0.356234
473 1 0.714813 0.714811 0.284865
474 1 0.786924 0.786922 0.356049
475 1 0.857675 0.714638 0.285224
476 1 0.929123 0.786091 0.356801
477 1 0.000221771 0.857326 0.285495
478 1 0.0714836 0.928624 0.357011
479 1 0.142835 0.857245 0.285507
480 1 0.214217 0.928596 0.356977
481 1 0.285587 0.857331 0.285416
482 1 0.357096 0.928701 0.356934
483 1 0.428537 0.857416 0.28538
484 1 0.50005 0.928908 0.356867
485 1 0.571551 0.857539 0.285323
486 1 0.64306 0.929074 0.356819
487 1 0.71464 0.857674 0.285224
488 1 0.786092 0.929121 0.356801
489 1 0.857654 0.857652 0.285238
490 1 0.928803 0.928801 0.356966
491 1 0.000300536 0.571513 0.428412
492 1 0.142803 0.571384 0.428394
493 1 0.285181 0.571371 0.42816
494 1 0.426449 0.574387 0.426986
495 1 0.572068 0.572056 0.427444
496 1 0.71647 0.571696 0.426834
497 1 0.858006 0.571647 0.428182
498 1 0.000409219 0.714481 0.428402
499 1 0.142858 0.714391 0.428418
500 1 0.285108 0.714976 0.4279
501 1 0.42802 0.715923 0.427443
502 1 0.571702 0.716468 0.426831
503 1 0.717216 0.717214 0.425992
527 1 0.214231 0.7859 0.499881
348 1 0.642888 0.500031 0.0713815
56 1 0.428563 0.999943 0.142731
54 1 0.285643 0.999877 0.142729
516 1 0.648653 0.500334 0.498235
344 1 0.0713411 0.500008 0.071377
521 1 0.355709 0.64487 0.498408
522 1 0.500369 0.648614 0.498207
523 1 0.648005 0.648 0.490623
524 1 0.787329 0.643824 0.499186
525 1 0.929223 0.643158 0.499853
3 1 0.14277 0.9999 2.04719e-05
448 1 0.92891 0.500048 0.356867
447 1 0.786507 0.49997 0.356479
517 1 0.786665 0.500319 0.499984
518 1 0.928956 0.500136 0.499925
399 1 0.928687 0.500034 0.214074
398 1 0.785916 0.500065 0.213977
52 1 0.142768 0.999898 0.142733
101 1 0.142768 0.999914 0.285557
103 1 0.285599 0.999868 0.28551
149 1 0.142785 0.999923 0.428459
150 1 0.285614 0.9999 0.428443
7 1 0.428563 0.999944 2.37761e-05
5 1 0.285644 0.999879 2.34589e-05
367 1 0.142841 0.714346 2.6266e-05
520 1 0.214127 0.642886 0.499897
365 1 0.000114374 0.714373 2.64101e-05
351 1 4.35265e-05 0.571478 2.51893e-05
531 1 0.786473 0.786471 0.499904
532 1 0.929034 0.786061 0.499897
538 1 0.786063 0.929032 0.499897
301 1 0.428545 0.999993 0.85726
299 1 0.285601 0.999872 0.857244
692 3 0.506473 0.56229 0.534902
691 3 0.562341 0.506679 0.607396
297 1 0.14277 0.999918 0.857198
690 3 0.506689 0.562414 0.607483
689 3 0.562279 0.506893 0.534722
248 1 0.142787 0.999926 0.714297
250 1 0.285616 0.999903 0.714312
201 1 0.285613 0.999916 0.571377
199 1 0.142792 0.999927 0.571378
544 1 0.64846 0.500308 0.644528
676 1 0.214213 0.928563 0.928655
675 1 0.142835 0.857248 0.857251
674 1 0.0714571 0.928616 0.928628
673 1 0.000223129 0.857328 0.857264
672 1 0.928839 0.785915 0.928729
671 1 0.857677 0.714639 0.857536
670 1 0.78606 0.786059 0.928927
545 1 0.786692 0.500317 0.642779
546 1 0.92896 0.500136 0.642832
669 1 0.71482 0.714819 0.857902
668 1 0.643034 0.786017 0.928867
667 1 0.571633 0.714656 0.857617
666 1 0.500067 0.785916 0.928782
665 1 0.428581 0.714585 0.857521
593 1 0.643301 0.500135 0.786176
664 1 0.357118 0.785849 0.928746
663 1 0.285414 0.714634 0.85758
662 1 0.214195 0.785847 0.928728
687 2 0.527206 0.527271 0.571283
686 1 0.928769 0.928769 0.928695
685 1 0.857656 0.857655 0.857523
684 1 0.785916 0.928839 0.928729
683 1 0.714639 0.857675 0.857536
547 1 0.000359294 0.571537 0.571377
548 1 0.0716588 0.642914 0.642825
549 1 0.143051 0.571325 0.571373
550 1 0.214118 0.642887 0.642857
551 1 0.286087 0.571018 0.57137
552 1 0.355676 0.644877 0.644371
553 1 0.414972 0.572357 0.571433
554 1 0.500305 0.648448 0.644531
555 1 0.593169 0.593155 0.571438
556 1 0.648036 0.648035 0.652165
557 1 0.715878 0.574061 0.571408
558 1 0.787338 0.643831 0.643585
559 1 0.857905 0.571929 0.57138
560 1 0.929225 0.643159 0.642905
561 1 0.000355435 0.714501 0.571378
562 1 0.0716074 0.785856 0.642844
563 1 0.142903 0.714399 0.571377
564 1 0.214229 0.785901 0.642876
565 1 0.285371 0.714679 0.571379
566 1 0.357063 0.786363 0.642909
567 1 0.428123 0.714471 0.571392
568 1 0.500318 0.786687 0.642777
569 1 0.57406 0.71587 0.571405
570 1 0.643831 0.787335 0.643584
571 1 0.714701 0.714699 0.571381
572 1 0.786476 0.786474 0.642856
573 1 0.857779 0.714825 0.57138
574 1 0.929036 0.786062 0.642861
575 1 0.000250109 0.857342 0.571379
576 1 0.0715049 0.928635 0.642837
577 1 0.142905 0.857231 0.571378
578 1 0.214242 0.928595 0.642845
579 1 0.285642 0.857363 0.571378
580 1 0.357137 0.928734 0.64284
581 1 0.428642 0.857515 0.571377
582 1 0.500137 0.928956 0.642832
583 1 0.571931 0.857902 0.571379
584 1 0.64316 0.929223 0.642905
585 1 0.714826 0.857777 0.57138
586 1 0.786064 0.929034 0.642861
587 1 0.857626 0.857624 0.571379
588 1 0.928818 0.928816 0.642852
661 1 0.142832 0.714384 0.857259
660 1 0.0715072 0.785805 0.928642
591 1 0.356324 0.500028 0.786826
682 1 0.642973 0.92879 0.928707
681 1 0.571551 0.85754 0.857435
680 1 0.500036 0.928687 0.928683
679 1 0.428536 0.857417 0.857377
596 1 0.000298974 0.571515 0.714346
597 1 0.0715526 0.642928 0.785798
598 1 0.142794 0.571389 0.714363
599 1 0.214057 0.642953 0.785912
600 1 0.285157 0.57138 0.714608
601 1 0.356329 0.643716 0.786791
602 1 0.426428 0.574344 0.715772
603 1 0.500136 0.643299 0.786178
604 1 0.57213 0.572128 0.715349
605 1 0.64369 0.643689 0.786327
606 1 0.716464 0.57167 0.715909
607 1 0.786745 0.643397 0.786523
608 1 0.858009 0.571648 0.71458
609 1 0.929076 0.64306 0.785941
610 1 0.000410102 0.714482 0.714356
611 1 0.0715772 0.785856 0.785797
612 1 0.142856 0.714394 0.714339
613 1 0.214091 0.785984 0.785951
614 1 0.285101 0.714984 0.714864
615 1 0.356846 0.786317 0.786163
616 1 0.428028 0.715904 0.715302
617 1 0.499969 0.786505 0.786279
618 1 0.571669 0.71646 0.715908
619 1 0.643397 0.786743 0.786522
620 1 0.71723 0.717229 0.71678
621 1 0.786929 0.786928 0.786715
622 1 0.858259 0.714938 0.714718
623 1 0.929125 0.786094 0.785959
624 1 0.000238306 0.85733 0.714313
625 1 0.0714848 0.928626 0.785746
626 1 0.142888 0.857232 0.714309
627 1 0.214218 0.9286 0.78578
628 1 0.285636 0.857393 0.714373
629 1 0.357096 0.928703 0.785823
630 1 0.428628 0.857679 0.714426
631 1 0.50005 0.928908 0.78589
632 1 0.571649 0.858006 0.714579
633 1 0.643061 0.929074 0.78594
634 1 0.714939 0.858257 0.714717
635 1 0.786095 0.929124 0.785959
636 1 0.857617 0.857615 0.714394
637 1 0.928805 0.928803 0.785792
638 1 0.0713425 0.500003 0.928665
659 1 0.000245083 0.71443 0.857272
658 1 0.928791 0.642972 0.928707
657 1 0.857542 0.57155 0.857436
656 1 0.786018 0.643033 0.928868
678 1 0.357107 0.928593 0.928667
677 1 0.285589 0.857332 0.85734
645 1 0.000148879 0.571492 0.857268
646 1 0.0714656 0.642922 0.928645
647 1 0.142734 0.571451 0.857289
648 1 0.214154 0.642936 0.928721
649 1 0.285331 0.571512 0.857551
650 1 0.357006 0.642976 0.928887
651 1 0.428323 0.571579 0.857677
652 1 0.500043 0.642935 0.928743
653 1 0.571496 0.571494 0.857319
654 1 0.643001 0.643 0.928772
655 1 0.714657 0.571632 0.857618
644 1 0.928688 0.500034 0.928684
643 1 0.785917 0.500065 0.928782
595 1 0.928909 0.500049 0.785891
359 1 0.571459 0.571457 1.00003
526 1 0.0716074 0.785855 0.499912
519 1 0.0716603 0.642914 0.499929
