ITEM: TIMESTEP
12
ITEM: NUMBER OF ATOMS
686
ITEM: BOX BOUNDS pp pp pp
0.0000000000000000e+00 2.2013900999999997e+01
0.0000000000000000e+00 2.2013900999999997e+01
0.0000000000000000e+00 2.2013900999999997e+01
ITEM: ATOMS id type xs ys zs
1 1 -7.44959e-07 1.34057e-05 -7.44959e-07
2 1 0.0714246 0.0714455 0.0714246
3 1 0.142856 1.13155e-05 -3.4098e-06
4 1 0.214282 0.0714459 0.0714189
5 1 0.285711 2.05047e-05 -6.01606e-06
6 1 0.357142 0.0714547 0.0714155
7 1 0.42857 3.41987e-05 -5.05897e-06
8 1 0.500001 0.0714647 0.0714163
9 1 0.57143 4.21136e-05 -2.60508e-06
10 1 0.642859 0.0714683 0.0714206
11 1 0.714288 3.82607e-05 2.55543e-07
12 1 0.785713 0.0714625 0.0714249
13 1 0.857143 2.5625e-05 8.4307e-07
14 1 0.928567 0.071453 0.0714272
513 1 0.213866 0.5 0.499945
16 1 0.0714192 0.214307 0.0714192
442 1 0.0713885 0.500011 0.357143
18 1 0.214285 0.214308 0.0714127
397 1 0.642844 0.500011 0.2143
20 1 0.357148 0.214315 0.0714104
396 1 0.499945 0.5 0.213866
22 1 0.500003 0.214326 0.0714129
350 1 0.928553 0.500004 0.0714277
24 1 0.642852 0.21433 0.0714201
349 1 0.785689 0.500015 0.0714416
26 1 0.785703 0.214324 0.0714243
348 1 0.642854 0.500018 0.0714242
28 1 0.928559 0.214315 0.0714245
347 1 0.49999 0.500015 0.0713454
30 1 0.0714159 0.357156 0.0714159
346 1 0.357143 0.500011 0.0713885
32 1 0.214287 0.357158 0.07141
175 1 0.857019 0.428635 0.428562
34 1 0.357144 0.35716 0.071403
174 1 0.713519 0.428995 0.42889
36 1 0.499999 0.35717 0.0713961
173 1 0.570703 0.429624 0.429388
38 1 0.642851 0.357175 0.0714273
172 1 0.429281 0.429454 0.429281
40 1 0.785692 0.357174 0.071434
171 1 0.285946 0.428579 0.428507
42 1 0.928553 0.357162 0.0714247
170 1 0.142821 0.428551 0.428528
169 1 0.999924 0.428596 0.42857
168 1 0.85703 0.285837 0.428588
167 1 0.714147 0.28599 0.428637
166 1 0.571409 0.286206 0.428598
165 1 0.428568 0.286132 0.428568
164 1 0.285732 0.285789 0.428567
50 1 -3.4098e-06 1.13155e-05 0.142856
51 1 0.0714189 0.0714459 0.214282
52 1 0.142852 8.58693e-06 0.142852
53 1 0.214278 0.0714472 0.214278
54 1 0.285707 1.52432e-05 0.142846
55 1 0.357138 0.0714638 0.214273
56 1 0.428569 2.68309e-05 0.142844
57 1 0.500001 0.0714797 0.214274
58 1 0.571431 3.37704e-05 0.142848
59 1 0.642858 0.0714843 0.21428
60 1 0.71429 3.08719e-05 0.142853
61 1 0.785713 0.0714729 0.214284
62 1 0.857143 2.05716e-05 0.142857
63 1 0.928565 0.0714568 0.214286
64 1 0.99999 0.142881 0.142856
65 1 0.0714127 0.214308 0.214285
66 1 0.142849 0.142875 0.142849
67 1 0.21429 0.214319 0.21429
68 1 0.285713 0.142882 0.142845
69 1 0.357146 0.214333 0.214289
70 1 0.428574 0.142896 0.142847
71 1 0.499999 0.214347 0.214291
72 1 0.571429 0.142906 0.142852
73 1 0.642844 0.214366 0.21431
74 1 0.714281 0.142904 0.142856
75 1 0.785681 0.214356 0.214312
76 1 0.857134 0.142893 0.142858
77 1 0.928547 0.214323 0.214294
78 1 0.99998 0.285735 0.142855
79 1 0.07141 0.357158 0.214287
80 1 0.142849 0.285732 0.142849
81 1 0.214291 0.357161 0.214291
82 1 0.285724 0.285744 0.142859
83 1 0.357143 0.357173 0.214288
84 1 0.428565 0.285747 0.142854
85 1 0.499987 0.357198 0.214284
86 1 0.571432 0.285761 0.142868
87 1 0.642835 0.35721 0.214339
88 1 0.714259 0.28577 0.142888
89 1 0.785643 0.357214 0.214359
90 1 0.857117 0.285752 0.142871
91 1 0.928523 0.357175 0.214307
92 1 0.999975 0.428581 0.142856
93 1 0.14285 0.428579 0.14285
94 1 0.285714 0.428574 0.142851
95 1 0.428528 0.428551 0.142821
96 1 0.571454 0.42856 0.142837
97 1 0.714259 0.428595 0.142907
98 1 0.857102 0.428595 0.142886
99 1 -6.01606e-06 2.05047e-05 0.285711
100 1 0.0714155 0.0714547 0.357142
101 1 0.142846 1.52432e-05 0.285707
102 1 0.214273 0.0714638 0.357138
103 1 0.285702 2.48943e-05 0.285702
104 1 0.357125 0.0715016 0.357125
105 1 0.42856 5.23808e-05 0.285691
106 1 0.499994 0.0715277 0.357122
107 1 0.571431 6.46474e-05 0.285694
108 1 0.642863 0.0715477 0.357128
109 1 0.714294 5.97474e-05 0.285699
110 1 0.785711 0.0715148 0.357141
111 1 0.857144 3.50134e-05 0.285711
112 1 0.928565 0.071473 0.357143
113 1 0.999984 0.142887 0.285716
114 1 0.0714104 0.214315 0.357148
115 1 0.142845 0.142882 0.285713
116 1 0.214289 0.214333 0.357146
117 1 0.285717 0.142909 0.285717
118 1 0.357152 0.21437 0.357152
119 1 0.428561 0.14293 0.285709
120 1 0.499986 0.214391 0.35716
121 1 0.571433 0.142951 0.285716
122 1 0.642828 0.214446 0.357173
123 1 0.714265 0.142957 0.285731
124 1 0.785645 0.214426 0.357179
125 1 0.857124 0.142917 0.285725
126 1 0.928527 0.214346 0.357157
127 1 0.999961 0.285746 0.285725
128 1 0.071403 0.35716 0.357144
129 1 0.142859 0.285744 0.285724
130 1 0.214288 0.357173 0.357143
131 1 0.285726 0.285763 0.285726
132 1 0.3573 0.357367 0.3573
133 1 0.428567 0.285789 0.285732
134 1 0.499957 0.357291 0.357189
135 1 0.571416 0.285822 0.285749
136 1 0.642634 0.357502 0.357417
137 1 0.714215 0.285853 0.285792
138 1 0.785532 0.357323 0.357254
139 1 0.857065 0.285799 0.28576
140 1 0.928464 0.357206 0.357172
141 1 0.999945 0.428591 0.285731
142 1 0.142851 0.428574 0.285714
143 1 0.285718 0.428595 0.285718
144 1 0.428507 0.428579 0.285946
145 1 0.571413 0.428654 0.286017
146 1 0.714175 0.428681 0.285861
147 1 0.857028 0.428627 0.285778
148 1 -5.05897e-06 3.41987e-05 0.42857
149 1 0.142844 2.68309e-05 0.428569
150 1 0.285691 5.23808e-05 0.42856
151 1 0.428541 0.000108569 0.428541
152 1 0.571433 0.000146449 0.428539
153 1 0.714304 0.000123724 0.42855
154 1 0.857154 6.61354e-05 0.428564
155 1 0.99998 0.142899 0.428575
156 1 0.142847 0.142896 0.428574
157 1 0.285709 0.14293 0.428561
158 1 0.428526 0.142958 0.428526
159 1 0.571452 0.142995 0.42853
160 1 0.714261 0.143022 0.428567
161 1 0.857112 0.142951 0.428577
162 1 0.99995 0.28576 0.428579
163 1 0.142854 0.285747 0.428565
176 1 0.0714163 0.0714647 0.500001
177 1 0.214274 0.0714797 0.500001
178 1 0.357122 0.0715277 0.499994
179 1 0.499983 0.0715445 0.499983
180 1 0.642866 0.071601 0.499985
181 1 0.78571 0.0715524 0.499994
182 1 0.928565 0.0714886 0.5
186 1 0.499977 0.214093 0.499977
187 1 0.642812 0.214495 0.499981
192 1 0.357189 0.357291 0.499957
193 1 0.499981 0.354622 0.499981
512 1 0.0713454 0.500015 0.49999
344 1 0.071416 0.499999 0.071416
345 1 0.214286 0.500002 0.0714097
393 1 0.0714097 0.500002 0.214286
395 1 0.357138 0.500012 0.214262
443 1 0.214262 0.500012 0.357138
518 1 0.928552 0.500026 0.499962
644 1 0.928551 0.500016 0.928551
643 1 0.785701 0.500031 0.928547
642 1 0.642883 0.500024 0.92858
641 1 0.499962 0.500026 0.928552
638 1 0.0714277 0.500004 0.928553
595 1 0.928547 0.500031 0.785701
49 1 0.857122 0.428593 0.999983
183 1 0.0714129 0.214326 0.500003
184 1 0.214291 0.214347 0.499999
185 1 0.35716 0.214391 0.499986
589 1 0.0714416 0.500015 0.785689
546 1 0.92858 0.500024 0.642883
188 1 0.78564 0.214457 0.499993
189 1 0.928519 0.214363 0.500001
190 1 0.0713961 0.35717 0.499999
191 1 0.214284 0.357198 0.499987
541 1 0.2143 0.500011 0.642844
540 1 0.0714242 0.500018 0.642854
194 1 0.64263 0.357905 0.500085
195 1 0.78556 0.357315 0.5
196 1 0.928484 0.357209 0.49999
197 1 -2.60508e-06 4.21136e-05 0.57143
198 1 0.0714206 0.0714683 0.642859
199 1 0.142848 3.37704e-05 0.571431
200 1 0.21428 0.0714843 0.642858
201 1 0.285694 6.46474e-05 0.571431
202 1 0.357128 0.0715477 0.642863
203 1 0.428539 0.000146449 0.571433
204 1 0.499985 0.071601 0.642866
205 1 0.571434 0.000215652 0.571434
206 1 0.642863 0.0716124 0.642863
207 1 0.714303 0.000161702 0.571427
208 1 0.785711 0.0715517 0.642854
209 1 0.857153 7.86587e-05 0.571428
210 1 0.928567 0.071491 0.642856
211 1 0.999983 0.142907 0.571429
212 1 0.0714201 0.21433 0.642852
213 1 0.142852 0.142906 0.571429
214 1 0.21431 0.214366 0.642844
215 1 0.285716 0.142951 0.571433
216 1 0.357173 0.214446 0.642828
217 1 0.42853 0.142995 0.571452
218 1 0.499981 0.214495 0.642812
219 1 0.571448 0.143031 0.571448
220 1 0.642832 0.214498 0.642832
221 1 0.714258 0.143039 0.571421
222 1 0.785648 0.214442 0.642826
223 1 0.857113 0.142963 0.571421
224 1 0.92853 0.214361 0.642844
225 1 0.999957 0.285767 0.571423
226 1 0.0714273 0.357175 0.642851
227 1 0.142868 0.285761 0.571432
228 1 0.214339 0.35721 0.642835
229 1 0.285749 0.285822 0.571416
230 1 0.357417 0.357502 0.642634
231 1 0.428598 0.286206 0.571409
232 1 0.500085 0.357905 0.64263
233 1 0.571401 0.286036 0.571401
234 1 0.642705 0.357888 0.642705
235 1 0.714191 0.285953 0.571404
236 1 0.785613 0.357286 0.642805
237 1 0.857048 0.285831 0.571412
238 1 0.928511 0.3572 0.642844
239 1 0.999961 0.4286 0.571422
240 1 0.142837 0.42856 0.571454
241 1 0.286017 0.428654 0.571413
242 1 0.429388 0.429624 0.570703
243 1 0.570895 0.427395 0.570895
244 1 0.71393 0.428902 0.571442
245 1 0.857098 0.428659 0.571438
246 1 2.55543e-07 3.82607e-05 0.714288
247 1 0.0714249 0.0714625 0.785713
248 1 0.142853 3.08719e-05 0.71429
249 1 0.214284 0.0714729 0.785713
250 1 0.285699 5.97474e-05 0.714294
251 1 0.357141 0.0715148 0.785711
252 1 0.42855 0.000123724 0.714304
253 1 0.499994 0.0715524 0.78571
254 1 0.571427 0.000161702 0.714303
255 1 0.642854 0.0715517 0.785711
256 1 0.714303 0.000132975 0.714303
257 1 0.785712 0.0715163 0.785712
258 1 0.857154 7.1713e-05 0.714292
259 1 0.928569 0.0714791 0.785712
260 1 0.999988 0.142904 0.714282
261 1 0.0714243 0.214324 0.785703
262 1 0.142856 0.142904 0.714281
263 1 0.214312 0.214356 0.785681
264 1 0.285731 0.142957 0.714265
265 1 0.357179 0.214426 0.785645
266 1 0.428567 0.143022 0.714261
267 1 0.499993 0.214457 0.78564
268 1 0.571421 0.143039 0.714258
269 1 0.642826 0.214442 0.785648
270 1 0.714258 0.143018 0.714258
271 1 0.78567 0.214395 0.78567
272 1 0.857121 0.142946 0.714271
273 1 0.928546 0.214343 0.785696
274 1 0.999973 0.28576 0.71427
275 1 0.071434 0.357174 0.785692
276 1 0.142888 0.28577 0.714259
277 1 0.214359 0.357214 0.785643
278 1 0.285792 0.285853 0.714215
279 1 0.357254 0.357323 0.785532
280 1 0.428637 0.28599 0.714147
281 1 0.5 0.357315 0.78556
282 1 0.571404 0.285953 0.714191
283 1 0.642805 0.357286 0.785613
284 1 0.714187 0.285898 0.714187
285 1 0.785674 0.357219 0.785674
286 1 0.857077 0.285808 0.714247
287 1 0.928531 0.357192 0.785687
288 1 0.999979 0.428598 0.714273
289 1 0.142907 0.428595 0.714259
290 1 0.285861 0.428681 0.714175
291 1 0.42889 0.428995 0.713519
292 1 0.571442 0.428902 0.71393
293 1 0.714224 0.428726 0.714224
294 1 0.857148 0.428621 0.714279
295 1 8.4307e-07 2.5625e-05 0.857143
296 1 0.0714272 0.071453 0.928567
297 1 0.142857 2.05716e-05 0.857143
298 1 0.214286 0.0714568 0.928565
299 1 0.285711 3.50134e-05 0.857144
300 1 0.357143 0.071473 0.928565
301 1 0.428564 6.61354e-05 0.857154
302 1 0.5 0.0714886 0.928565
303 1 0.571428 7.86587e-05 0.857153
304 1 0.642856 0.071491 0.928567
305 1 0.714292 7.1713e-05 0.857154
306 1 0.785712 0.0714791 0.928569
307 1 0.857145 4.38167e-05 0.857145
308 1 0.928568 0.0714623 0.928568
309 1 0.999993 0.142895 0.857135
310 1 0.0714245 0.214315 0.928559
311 1 0.142858 0.142893 0.857134
312 1 0.214294 0.214323 0.928547
313 1 0.285725 0.142917 0.857124
314 1 0.357157 0.214346 0.928527
315 1 0.428577 0.142951 0.857112
316 1 0.500001 0.214363 0.928519
317 1 0.571421 0.142963 0.857113
318 1 0.642844 0.214361 0.92853
319 1 0.714271 0.142946 0.857121
320 1 0.785696 0.214343 0.928546
321 1 0.85713 0.142917 0.85713
322 1 0.928558 0.214324 0.928558
323 1 0.999985 0.285748 0.857126
324 1 0.0714247 0.357162 0.928553
325 1 0.142871 0.285752 0.857117
326 1 0.214307 0.357175 0.928523
327 1 0.28576 0.285799 0.857065
328 1 0.357172 0.357206 0.928464
329 1 0.428588 0.285837 0.85703
330 1 0.49999 0.357209 0.928484
331 1 0.571412 0.285831 0.857048
332 1 0.642844 0.3572 0.928511
333 1 0.714247 0.285808 0.857077
334 1 0.785687 0.357192 0.928531
335 1 0.857107 0.285778 0.857107
336 1 0.928551 0.357172 0.928551
337 1 0.999983 0.428593 0.857122
338 1 0.142886 0.428595 0.857102
339 1 0.285778 0.428627 0.857028
340 1 0.428562 0.428635 0.857019
341 1 0.571438 0.428659 0.857098
342 1 0.714279 0.428621 0.857148
343 1 0.857114 0.428615 0.857114
48 1 0.714273 0.428598 0.999979
15 1 0.999993 0.142885 0.999993
17 1 0.142856 0.142881 0.99999
19 1 0.285716 0.142887 0.999984
21 1 0.428575 0.142899 0.99998
23 1 0.571429 0.142907 0.999983
25 1 0.714282 0.142904 0.999988
27 1 0.857135 0.142895 0.999993
29 1 0.999988 0.285738 0.999988
31 1 0.142855 0.285735 0.99998
33 1 0.285725 0.285746 0.999961
35 1 0.428579 0.28576 0.99995
37 1 0.571423 0.285767 0.999957
39 1 0.71427 0.28576 0.999973
41 1 0.857126 0.285748 0.999985
43 1 0.999987 0.428582 0.999987
44 1 0.142856 0.428581 0.999975
45 1 0.285731 0.428591 0.999945
46 1 0.42857 0.428596 0.999924
47 1 0.571422 0.4286 0.999961
539 1 0.928575 0.928621 0.499997
538 1 0.785739 0.928678 0.49999
511 1 0.857139 0.857197 0.428559
510 1 0.71432 0.857273 0.428523
509 1 0.571446 0.857378 0.428482
508 1 0.428464 0.857314 0.428464
507 1 0.285702 0.857168 0.428553
502 1 0.571417 0.714222 0.428531
352 1 0.0714195 0.642845 0.0714195
501 1 0.428693 0.713868 0.428693
354 1 0.214283 0.642849 0.0714143
500 1 0.285753 0.714317 0.428555
356 1 0.35714 0.642866 0.0714104
499 1 0.142861 0.714301 0.428555
358 1 0.49999 0.642884 0.0714086
498 1 0.999971 0.714307 0.428563
360 1 0.642857 0.642882 0.0714383
497 1 0.857041 0.571537 0.428585
362 1 0.785698 0.64286 0.0714425
496 1 0.713715 0.5716 0.428829
364 1 0.928561 0.642848 0.0714308
517 1 0.785548 0.500272 0.500172
366 1 0.0714235 0.785703 0.0714235
495 1 0.570731 0.571169 0.426227
368 1 0.21428 0.785708 0.0714191
494 1 0.429322 0.57096 0.429322
370 1 0.357142 0.785717 0.0714204
493 1 0.285964 0.571494 0.428541
372 1 0.499998 0.785726 0.0714259
492 1 0.142813 0.571479 0.428522
374 1 0.642854 0.785726 0.0714345
491 1 0.999947 0.571454 0.428564
376 1 0.785709 0.785716 0.0714387
514 1 0.354307 0.500138 0.499934
378 1 0.92857 0.785706 0.0714321
379 1 1.44269e-06 0.857138 1.44269e-06
380 1 0.0714265 0.928571 0.0714265
445 1 0.499934 0.500138 0.354307
382 1 0.214281 0.928576 0.0714224
534 1 0.214271 0.928604 0.499997
384 1 0.357138 0.928588 0.0714207
385 1 0.428569 0.857163 -8.39916e-06
386 1 0.5 0.928597 0.0714232
387 1 0.571428 0.857172 4.16004e-07
388 1 0.642859 0.928597 0.071428
389 1 0.714287 0.857165 1.12914e-06
390 1 0.785717 0.928589 0.0714316
391 1 0.857144 0.857149 1.58013e-06
392 1 0.928571 0.928576 0.0714303
537 1 0.642902 0.928812 0.499956
394 1 0.214284 0.500005 0.214284
536 1 0.499949 0.928846 0.499949
506 1 0.142853 0.857154 0.428569
505 1 -8.39916e-06 0.857163 0.428569
398 1 0.785648 0.500025 0.214363
399 1 0.928513 0.500013 0.214313
400 1 0.999978 0.571423 0.142856
401 1 0.0714143 0.642849 0.214283
402 1 0.14285 0.571422 0.14285
403 1 0.214293 0.642853 0.214293
404 1 0.285713 0.571439 0.142855
405 1 0.357127 0.642882 0.214288
406 1 0.428522 0.571479 0.142813
407 1 0.499951 0.64291 0.214248
408 1 0.571452 0.571484 0.142799
409 1 0.642865 0.642917 0.214307
410 1 0.714262 0.571447 0.142897
411 1 0.785657 0.642863 0.214352
412 1 0.857107 0.571431 0.142888
413 1 0.928528 0.642853 0.214306
414 1 0.999987 0.714275 0.142855
415 1 0.0714191 0.785708 0.21428
416 1 0.14285 0.714274 0.14285
417 1 0.214291 0.785702 0.214291
418 1 0.285718 0.714275 0.142867
419 1 0.357143 0.785709 0.214299
420 1 0.428555 0.714301 0.142861
421 1 0.49998 0.785741 0.214289
422 1 0.571426 0.714305 0.142859
423 1 0.642853 0.785728 0.214307
424 1 0.71427 0.714289 0.142897
425 1 0.785689 0.785708 0.214315
426 1 0.857124 0.714278 0.142878
427 1 0.928552 0.785708 0.214293
428 1 0.999995 0.857137 0.142856
429 1 0.0714224 0.928576 0.214281
430 1 0.142851 0.857139 0.142851
431 1 0.214279 0.928577 0.214279
432 1 0.28571 0.857145 0.142853
433 1 0.357134 0.928589 0.214274
434 1 0.428569 0.857154 0.142853
435 1 0.499997 0.928604 0.214271
436 1 0.571427 0.85716 0.142854
437 1 0.642861 0.928606 0.214277
438 1 0.714285 0.857155 0.142863
439 1 0.785716 0.928593 0.214285
440 1 0.857138 0.857143 0.142866
441 1 0.928567 0.928581 0.214286
504 1 0.857069 0.714336 0.428567
535 1 0.357102 0.928664 0.49999
444 1 0.357144 0.500032 0.357144
503 1 0.713971 0.714169 0.428802
446 1 0.642726 0.500078 0.357636
447 1 0.785561 0.500086 0.357222
448 1 0.928473 0.500029 0.357162
449 1 0.999949 0.571434 0.285727
450 1 0.0714104 0.642866 0.35714
451 1 0.142855 0.571439 0.285713
452 1 0.214288 0.642882 0.357127
453 1 0.285708 0.571455 0.285708
454 1 0.357314 0.642784 0.357314
455 1 0.428541 0.571494 0.285964
456 1 0.499934 0.642932 0.357552
457 1 0.571368 0.571494 0.285616
458 1 0.642624 0.642859 0.357767
459 1 0.714188 0.571489 0.285823
460 1 0.785556 0.642891 0.357234
461 1 0.857045 0.571454 0.285764
462 1 0.928493 0.642882 0.357151
463 1 0.999968 0.714282 0.285719
464 1 0.0714204 0.785717 0.357142
465 1 0.142867 0.714275 0.285718
466 1 0.214299 0.785709 0.357143
467 1 0.285736 0.714276 0.285736
468 1 0.357169 0.785704 0.357169
469 1 0.428555 0.714317 0.285753
470 1 0.499964 0.785811 0.357099
471 1 0.571413 0.714333 0.285755
472 1 0.642819 0.785763 0.357152
473 1 0.714198 0.714273 0.285808
474 1 0.785666 0.78574 0.35716
475 1 0.857081 0.714283 0.285745
476 1 0.928539 0.785726 0.357145
477 1 0.999988 0.857148 0.285712
478 1 0.0714207 0.928588 0.357138
479 1 0.142853 0.857145 0.28571
480 1 0.214274 0.928589 0.357134
481 1 0.285715 0.85714 0.285715
482 1 0.357117 0.928606 0.357117
483 1 0.428553 0.857168 0.285702
484 1 0.49999 0.928664 0.357102
485 1 0.571425 0.857199 0.285702
486 1 0.642864 0.928664 0.357105
487 1 0.714279 0.85717 0.285713
488 1 0.785725 0.928622 0.357129
489 1 0.857129 0.857154 0.28572
490 1 0.928569 0.928601 0.357138
519 1 0.0714086 0.642884 0.49999
520 1 0.214248 0.64291 0.499951
525 1 0.92855 0.642946 0.499957
526 1 0.0714259 0.785726 0.499998
528 1 0.357099 0.785811 0.499964
529 1 0.499999 0.786069 0.499999
530 1 0.643222 0.786017 0.499597
531 1 0.785691 0.785834 0.499979
532 1 0.928562 0.785764 0.499982
533 1 0.0714232 0.928597 0.5
521 1 0.357552 0.642932 0.499934
524 1 0.785258 0.642946 0.500056
527 1 0.214289 0.785741 0.49998
686 2 0.578724 0.522539 0.578724
685 2 0.569625 0.625858 0.569625
684 1 0.785718 0.928607 0.928575
515 1 0.928573 0.928586 0.928573
516 1 0.644134 0.501283 0.501709
683 1 0.714294 0.857209 0.857151
682 1 0.64286 0.928623 0.928577
670 1 0.785709 0.785735 0.928558
669 1 0.71428 0.714368 0.857119
592 1 0.500172 0.500272 0.785548
522 1 0.500838 0.645235 0.500838
523 1 0.641574 0.642397 0.501129
375 1 0.714287 0.714312 0.999994
668 1 0.642868 0.785769 0.928568
667 1 0.571428 0.714369 0.857121
373 1 0.571424 0.714319 0.999999
666 1 0.499982 0.785764 0.928562
665 1 0.428567 0.714336 0.857069
664 1 0.357145 0.785726 0.928539
663 1 0.285745 0.714283 0.857081
662 1 0.214293 0.785708 0.928552
661 1 0.142878 0.714278 0.857124
660 1 0.0714321 0.785706 0.92857
659 1 0.999995 0.714286 0.857138
658 1 0.928559 0.64286 0.928559
657 1 0.857129 0.571472 0.857129
656 1 0.785708 0.642899 0.928553
655 1 0.714278 0.571544 0.857166
681 1 0.571426 0.85724 0.857151
680 1 0.499997 0.928621 0.928575
542 1 0.357636 0.500078 0.642726
543 1 0.501709 0.501283 0.644134
544 1 0.642841 0.50083 0.642841
545 1 0.785496 0.500215 0.642794
679 1 0.428559 0.857197 0.857139
547 1 1.00002 0.571467 0.571423
548 1 0.0714383 0.642882 0.642857
549 1 0.142799 0.571484 0.571452
550 1 0.214307 0.642917 0.642865
551 1 0.285616 0.571494 0.571368
552 1 0.357767 0.642859 0.642624
553 1 0.426227 0.571169 0.570731
554 1 0.501129 0.642397 0.641574
555 1 0.857138 0.857167 0.857138
556 1 0.641657 0.642325 0.641657
557 1 0.717437 0.571555 0.571486
558 1 0.7854 0.643049 0.642873
559 1 0.857439 0.571569 0.571439
560 1 0.928575 0.642955 0.642889
561 1 0.999999 0.714319 0.571424
562 1 0.0714345 0.785726 0.642854
563 1 0.142859 0.714305 0.571426
564 1 0.214307 0.785728 0.642853
565 1 0.285755 0.714333 0.571413
566 1 0.357152 0.785763 0.642819
567 1 0.428531 0.714222 0.571417
568 1 0.499597 0.786017 0.643222
569 1 0.571029 0.717797 0.571029
570 1 0.643345 0.786088 0.643345
571 1 0.714294 0.714558 0.571451
572 1 0.785724 0.785844 0.642861
573 1 0.857121 0.714369 0.571428
574 1 0.928568 0.785769 0.642868
575 1 4.16004e-07 0.857172 0.571428
576 1 0.071428 0.928597 0.642859
577 1 0.142854 0.85716 0.571427
578 1 0.214277 0.928606 0.642861
579 1 0.285702 0.857199 0.571425
580 1 0.357105 0.928664 0.642864
581 1 0.428482 0.857378 0.571446
582 1 0.499956 0.928812 0.642902
583 1 0.571441 0.858091 0.571441
584 1 0.642898 0.928829 0.642898
585 1 0.714327 0.85736 0.571414
586 1 0.785747 0.928691 0.642865
587 1 0.857151 0.85724 0.571426
588 1 0.928577 0.928623 0.64286
678 1 0.357138 0.928601 0.928569
590 1 0.214363 0.500025 0.785648
591 1 0.357222 0.500086 0.785561
677 1 0.28572 0.857154 0.857129
593 1 0.642794 0.500215 0.785496
594 1 0.785741 0.500086 0.785741
676 1 0.214286 0.928581 0.928567
596 1 0.999998 0.571456 0.714278
597 1 0.0714425 0.64286 0.785698
598 1 0.142897 0.571447 0.714262
599 1 0.214352 0.642863 0.785657
600 1 0.285823 0.571489 0.714188
601 1 0.357234 0.642891 0.785556
602 1 0.428829 0.5716 0.713715
603 1 0.500056 0.642946 0.785258
604 1 0.571486 0.571555 0.717437
605 1 0.642873 0.643049 0.7854
606 1 0.714376 0.571752 0.714376
607 1 0.785706 0.642983 0.785706
608 1 0.857166 0.571544 0.714278
609 1 0.928553 0.642899 0.785708
610 1 0.999994 0.714312 0.714287
611 1 0.0714387 0.785716 0.785709
612 1 0.142897 0.714289 0.71427
613 1 0.214315 0.785708 0.785689
614 1 0.285808 0.714273 0.714198
615 1 0.35716 0.78574 0.785666
616 1 0.428802 0.714169 0.713971
617 1 0.499979 0.785834 0.785691
618 1 0.571451 0.714558 0.714294
619 1 0.642861 0.785844 0.785724
620 1 0.714051 0.714237 0.714051
621 1 0.785709 0.785792 0.785709
622 1 0.857119 0.714368 0.71428
623 1 0.928558 0.785735 0.785709
624 1 1.12914e-06 0.857165 0.714287
625 1 0.0714316 0.928589 0.785717
626 1 0.142863 0.857155 0.714285
627 1 0.214285 0.928593 0.785716
628 1 0.285713 0.85717 0.714279
629 1 0.357129 0.928622 0.785725
630 1 0.428523 0.857273 0.71432
631 1 0.49999 0.928678 0.785739
632 1 0.571414 0.85736 0.714327
633 1 0.642865 0.928691 0.785747
634 1 0.714342 0.857311 0.714342
635 1 0.785726 0.928636 0.785726
636 1 0.857151 0.857209 0.714294
637 1 0.928575 0.928607 0.785718
675 1 0.142866 0.857143 0.857138
639 1 0.214313 0.500013 0.928513
640 1 0.357162 0.500029 0.928473
674 1 0.0714303 0.928576 0.928571
673 1 1.58013e-06 0.857149 0.857144
672 1 0.92857 0.785715 0.92857
671 1 0.85713 0.714317 0.85713
645 1 0.999987 0.571437 0.857128
646 1 0.0714308 0.642848 0.928561
647 1 0.142888 0.571431 0.857107
648 1 0.214306 0.642853 0.928528
649 1 0.285764 0.571454 0.857045
650 1 0.357151 0.642882 0.928493
651 1 0.428585 0.571537 0.857041
652 1 0.499957 0.642946 0.92855
653 1 0.571439 0.571569 0.857439
654 1 0.642889 0.642955 0.928575
351 1 0.999992 0.571424 0.999992
353 1 0.142856 0.571423 0.999978
355 1 0.285727 0.571434 0.999949
357 1 0.428564 0.571454 0.999947
359 1 0.571423 0.571467 1.00002
361 1 0.714278 0.571456 0.999998
363 1 0.857128 0.571437 0.999987
367 1 0.142855 0.714275 0.999987
369 1 0.285719 0.714282 0.999968
371 1 0.428563 0.714307 0.999971
365 1 0.999998 0.714274 0.999998
377 1 0.857138 0.714286 0.999995
381 1 0.142856 0.857137 0.999995
383 1 0.285712 0.857148 0.999988
