ITEM: TIMESTEP
626
ITEM: NUMBER OF ATOMS
688
ITEM: BOX BOUNDS pp pp pp
0.0000000000000000e+00 2.2013900999999997e+01
0.0000000000000000e+00 2.2013900999999997e+01
0.0000000000000000e+00 2.2013900999999997e+01
ITEM: ATOMS id type xs ys zs
126 1 0.857116 0.428562 0.285673
2 1 0.0713927 0.0713899 0.0713813
125 1 0.714296 0.428515 0.28561
4 1 0.214266 0.0713784 0.0713907
124 1 0.571511 0.42852 0.285803
6 1 0.357126 0.071381 0.0713793
345 1 0.214246 0.499973 0.0714238
8 1 0.499993 0.0713914 0.0713917
123 1 0.428353 0.428362 0.285569
10 1 0.642851 0.0714173 0.0714063
397 1 0.642857 0.499947 0.214185
12 1 0.785689 0.0714311 0.0714068
396 1 0.499932 0.499926 0.213857
14 1 0.928557 0.0714316 0.0714022
395 1 0.357167 0.499971 0.214334
16 1 0.0713929 0.214266 0.0713894
118 1 0.714133 0.285805 0.285797
18 1 0.214223 0.214224 0.0714035
349 1 0.785707 0.499994 0.071374
20 1 0.357111 0.214235 0.0714048
348 1 0.642871 0.499973 0.0713952
22 1 0.49997 0.214249 0.0714181
347 1 0.499951 0.499954 0.0713809
24 1 0.642851 0.214276 0.0714245
113 1 0.999956 0.285694 0.285689
26 1 0.785682 0.214285 0.0714148
112 1 0.857097 0.142876 0.285701
28 1 0.928549 0.214271 0.071391
111 1 0.71423 0.142906 0.285716
30 1 0.0713815 0.357126 0.0713788
110 1 0.571381 0.142889 0.285708
32 1 0.21424 0.357106 0.0714017
109 1 0.428558 0.142857 0.28569
34 1 0.357048 0.357041 0.0713883
108 1 0.285659 0.142774 0.285661
36 1 0.499971 0.357088 0.0714299
107 1 0.142813 0.142808 0.285677
38 1 0.642845 0.357086 0.0714173
106 1 0.999955 0.142835 0.285702
40 1 0.785704 0.357117 0.0714008
105 1 0.857141 2.03931e-05 0.285699
42 1 0.928551 0.357141 0.0713951
104 1 0.714278 4.90389e-05 0.285695
114 1 0.142775 0.285652 0.28567
115 1 0.28566 0.285668 0.285673
116 1 0.428574 0.285744 0.28575
47 1 0.571415 0.428506 9.41121e-06
394 1 0.21426 0.49995 0.214265
117 1 0.571355 0.285807 0.285799
122 1 0.28575 0.428576 0.285754
51 1 0.0713983 0.0713952 0.214278
98 1 0.857136 0.428563 0.14282
53 1 0.214247 0.0713892 0.214258
121 1 0.142846 0.428559 0.285684
55 1 0.357123 0.0713939 0.214262
120 1 0.999977 0.428556 0.285691
57 1 0.499979 0.0714325 0.21427
119 1 0.857083 0.285706 0.285697
59 1 0.642837 0.0714479 0.214274
60 1 0.714281 2.81903e-05 0.142823
61 1 0.785687 0.0714564 0.214274
62 1 0.857142 1.57269e-05 0.142825
63 1 0.928556 0.0714373 0.214273
64 1 0.999947 0.142833 0.142836
65 1 0.0713941 0.214246 0.214255
66 1 0.142831 0.142827 0.142834
67 1 0.214212 0.214215 0.214224
68 1 0.285667 0.142804 0.142822
69 1 0.357126 0.214241 0.214259
70 1 0.428557 0.142835 0.142835
71 1 0.499955 0.214265 0.214275
72 1 0.571409 0.142846 0.142846
73 1 0.642812 0.214306 0.214297
74 1 0.714252 0.142874 0.142847
75 1 0.785647 0.214316 0.214306
76 1 0.857112 0.142867 0.142852
77 1 0.928514 0.214269 0.214265
78 1 0.999954 0.285705 0.142819
79 1 0.0713856 0.357118 0.21427
80 1 0.142807 0.285664 0.14282
81 1 0.214239 0.357123 0.214254
82 1 0.285633 0.285635 0.142794
83 1 0.35703 0.357021 0.214216
84 1 0.428539 0.285648 0.142852
85 1 0.499976 0.357165 0.214336
86 1 0.571394 0.285695 0.142865
87 1 0.642813 0.357127 0.214314
88 1 0.714245 0.285697 0.142856
89 1 0.785693 0.357121 0.21425
90 1 0.857118 0.285698 0.142834
91 1 0.928534 0.357137 0.214244
92 1 0.999954 0.428563 0.142817
93 1 0.142832 0.428562 0.142839
94 1 0.285648 0.428548 0.142845
95 1 0.428487 0.428486 0.142794
96 1 0.571417 0.428509 0.142826
97 1 0.714284 0.428542 0.142818
346 1 0.35709 0.499977 0.0714359
46 1 0.428491 0.428487 5.17222e-05
393 1 0.0714229 0.499981 0.214269
398 1 0.785721 0.499985 0.214223
399 1 0.928563 0.49999 0.214245
103 1 0.571413 2.29682e-05 0.285689
344 1 0.0713958 0.499993 0.0713895
350 1 0.928575 0.499993 0.0713922
99 1 1.30028e-06 4.77786e-06 0.285707
35 1 0.428533 0.285648 4.01706e-06
33 1 0.285643 0.285647 5.03234e-06
127 1 0.0713922 0.0713922 0.357132
128 1 0.214264 0.0713718 0.357128
129 1 0.357094 0.071364 0.357094
130 1 0.499983 0.0714384 0.357117
131 1 0.642828 0.0714676 0.357124
132 1 0.785683 0.0714626 0.357135
133 1 0.92856 0.0714399 0.35714
134 1 0.0713794 0.214267 0.357126
135 1 0.214238 0.214247 0.357133
136 1 0.357068 0.214233 0.35708
137 1 0.499982 0.214394 0.357193
138 1 0.642756 0.214406 0.35717
139 1 0.785636 0.214326 0.357144
140 1 0.928503 0.214289 0.35714
141 1 0.0713703 0.357094 0.357089
142 1 0.214222 0.357063 0.357078
143 1 0.35701 0.357028 0.357032
144 1 0.500109 0.35755 0.357483
145 1 0.642498 0.357484 0.357437
146 1 0.78567 0.35711 0.357074
147 1 0.928544 0.357126 0.357105
685 3 0.491249 0.491251 0.485303
149 1 0.0713961 0.0714046 0.499993
544 1 0.642471 0.499589 0.642241
151 1 0.214272 0.0713974 0.499974
245 1 0.857002 0.428612 0.571406
153 1 0.357124 0.0713956 0.499974
244 1 0.713867 0.428636 0.571426
155 1 0.499979 0.0714045 0.499959
463 1 0.0714387 0.499982 0.357116
157 1 0.642829 0.0714678 0.499971
158 1 0.714278 5.85196e-05 0.428549
159 1 0.785672 0.0714618 0.49999
160 1 0.857127 1.89137e-05 0.428568
161 1 0.928546 0.0714405 0.499989
162 1 0.999953 0.142835 0.428563
163 1 0.0713985 0.214273 0.499982
164 1 0.142832 0.142839 0.42856
165 1 0.214245 0.214257 0.499951
166 1 0.285677 0.142823 0.428552
167 1 0.35717 0.214324 0.499979
168 1 0.428519 0.14283 0.428519
169 1 0.499922 0.214139 0.499954
170 1 0.571395 0.142915 0.428539
171 1 0.642759 0.214422 0.499957
172 1 0.714232 0.142913 0.42857
173 1 0.785629 0.214356 0.499981
174 1 0.857096 0.14289 0.42858
175 1 0.928499 0.214298 0.499987
176 1 0.999941 0.285712 0.428555
177 1 0.0713916 0.357126 0.499976
178 1 0.142821 0.285674 0.428552
179 1 0.214331 0.357169 0.499972
180 1 0.285731 0.285737 0.428577
181 1 0.35742 0.357413 0.500139
182 1 0.428436 0.285704 0.428461
183 1 0.499912 0.355879 0.500084
184 1 0.571401 0.286103 0.42859
185 1 0.642571 0.357625 0.499913
186 1 0.714159 0.285804 0.428585
187 1 0.785537 0.357254 0.500001
188 1 0.857043 0.28575 0.428575
189 1 0.928492 0.357169 0.499982
190 1 0.999961 0.428544 0.428534
191 1 0.142834 0.428526 0.428527
192 1 0.285702 0.428425 0.428466
193 1 0.427907 0.427905 0.428001
194 1 0.571284 0.42965 0.429374
195 1 0.714316 0.428414 0.428294
196 1 0.857165 0.42853 0.428487
543 1 0.497414 0.497424 0.648372
198 1 0.0714098 0.0714055 0.642831
243 1 0.571625 0.42613 0.572115
200 1 0.214275 0.0713987 0.64282
242 1 0.429026 0.429036 0.571789
202 1 0.357124 0.071378 0.642812
241 1 0.285874 0.428493 0.571484
204 1 0.499995 0.071382 0.642819
496 1 0.785861 0.499947 0.499793
206 1 0.642844 0.0714027 0.642828
156 1 0.571416 2.04985e-05 0.428537
208 1 0.785688 0.0714417 0.642827
469 1 0.928564 0.499999 0.357106
210 1 0.928553 0.0714401 0.642837
211 1 0.999961 0.142854 0.57141
212 1 0.0713949 0.214283 0.642816
213 1 0.142824 0.142833 0.571397
214 1 0.214262 0.214251 0.6428
215 1 0.285701 0.142821 0.571381
216 1 0.357106 0.214259 0.642798
217 1 0.42853 0.142837 0.571387
218 1 0.49994 0.214238 0.642818
219 1 0.571419 0.142815 0.571413
220 1 0.64285 0.214249 0.64285
221 1 0.714227 0.142906 0.571382
222 1 0.785648 0.214337 0.642802
223 1 0.857101 0.142886 0.571408
224 1 0.928518 0.214308 0.642827
225 1 0.999951 0.285729 0.571396
226 1 0.0713657 0.357133 0.642816
227 1 0.142823 0.285697 0.571375
228 1 0.214264 0.357113 0.642787
229 1 0.285734 0.285734 0.571357
230 1 0.357199 0.357203 0.64266
231 1 0.428496 0.285869 0.571477
232 1 0.499786 0.357076 0.642972
233 1 0.571459 0.285601 0.571536
234 1 0.64282 0.357151 0.642892
235 1 0.714102 0.285853 0.571338
236 1 0.785608 0.357203 0.642793
237 1 0.857038 0.285762 0.571388
238 1 0.928493 0.357169 0.642823
239 1 0.999937 0.428569 0.571387
240 1 0.142835 0.428535 0.571385
464 1 0.214397 0.499982 0.357206
492 1 0.214134 0.499924 0.499949
466 1 0.499966 0.499973 0.354879
467 1 0.642926 0.499789 0.357123
491 1 0.0713996 0.499976 0.499961
493 1 0.355888 0.499914 0.500084
495 1 0.645884 0.499239 0.499028
540 1 0.07138 0.499989 0.642819
541 1 0.214242 0.499945 0.642821
542 1 0.357081 0.499764 0.642968
545 1 0.785327 0.499969 0.642695
588 1 0.214217 0.499981 0.785697
247 1 0.0714123 0.0714041 0.785672
343 1 0.857086 0.4286 0.857073
249 1 0.214277 0.0713903 0.785669
342 1 0.714277 0.428532 0.857107
251 1 0.357138 0.0713621 0.785673
341 1 0.571431 0.42849 0.857225
253 1 0.499998 0.0713682 0.785663
340 1 0.428354 0.428359 0.857441
255 1 0.642847 0.0713927 0.785666
41 1 0.85712 0.285701 0.999961
257 1 0.785702 0.0714232 0.785676
637 1 0.214223 0.499987 0.928556
259 1 0.928556 0.071424 0.785674
260 1 0.999963 0.142851 0.714251
261 1 0.0713901 0.214278 0.785677
262 1 0.142845 0.142846 0.714238
263 1 0.214254 0.214249 0.785657
264 1 0.285681 0.142814 0.714231
265 1 0.357075 0.214163 0.785714
266 1 0.428553 0.142782 0.714247
267 1 0.499968 0.214204 0.785692
268 1 0.571399 0.142817 0.714238
269 1 0.642842 0.21426 0.785687
270 1 0.714267 0.14285 0.714267
271 1 0.785671 0.214303 0.785675
272 1 0.857118 0.142876 0.714241
273 1 0.928539 0.2143 0.78567
274 1 0.999949 0.285729 0.714249
275 1 0.0713562 0.357144 0.785668
276 1 0.142816 0.285686 0.714236
277 1 0.214162 0.357083 0.785709
278 1 0.285689 0.285684 0.714191
279 1 0.356792 0.356791 0.785979
280 1 0.42845 0.285475 0.714341
281 1 0.499977 0.357014 0.785804
282 1 0.57137 0.285679 0.71424
283 1 0.642884 0.357043 0.785748
284 1 0.714244 0.28573 0.714251
285 1 0.785632 0.357202 0.785616
286 1 0.857073 0.285756 0.714239
287 1 0.928509 0.357175 0.785663
288 1 0.99992 0.428588 0.714239
289 1 0.142781 0.42855 0.714258
290 1 0.285474 0.428452 0.714342
291 1 0.427528 0.427538 0.715203
292 1 0.571646 0.428313 0.714298
293 1 0.714058 0.428696 0.714049
294 1 0.857003 0.428615 0.714186
27 1 0.857124 0.14286 0.999971
296 1 0.0714086 0.0714098 0.928535
39 1 0.71428 0.285689 0.999998
298 1 0.214269 0.0713905 0.928532
339 1 0.285611 0.428526 0.857158
300 1 0.35714 0.0713853 0.928537
338 1 0.142789 0.428562 0.857109
302 1 0.499998 0.0714006 0.928534
37 1 0.571425 0.285674 0.999999
304 1 0.642851 0.0714117 0.928529
43 1 0.999968 0.428576 0.999961
306 1 0.785704 0.0714206 0.928533
638 1 0.357072 0.499984 0.92862
308 1 0.928562 0.0714283 0.928529
309 1 0.999967 0.142855 0.857102
310 1 0.0713923 0.214258 0.92853
311 1 0.142832 0.142837 0.857095
312 1 0.214215 0.214214 0.928536
313 1 0.285663 0.142789 0.857114
314 1 0.357109 0.214206 0.928557
315 1 0.428563 0.142807 0.857109
316 1 0.499992 0.214226 0.928555
317 1 0.571424 0.142813 0.857118
318 1 0.642844 0.214253 0.928548
319 1 0.714274 0.142841 0.857103
320 1 0.785708 0.214269 0.928548
321 1 0.857116 0.142864 0.857105
322 1 0.928535 0.21429 0.928523
323 1 0.999948 0.285726 0.857087
324 1 0.0713832 0.357132 0.928539
325 1 0.142774 0.285669 0.857114
326 1 0.214206 0.357105 0.928556
327 1 0.28558 0.285586 0.857184
328 1 0.357017 0.357022 0.928658
329 1 0.42853 0.285599 0.857165
330 1 0.499983 0.357064 0.928625
331 1 0.571418 0.285653 0.857156
332 1 0.642856 0.357098 0.928582
333 1 0.714291 0.285685 0.857123
334 1 0.785712 0.357138 0.928533
335 1 0.857107 0.285734 0.85709
336 1 0.928523 0.357153 0.928519
337 1 0.999942 0.428583 0.857079
590 1 0.499594 0.499605 0.786275
591 1 0.642883 0.499756 0.785649
49 1 0.857117 0.428566 0.999943
31 1 0.142794 0.285681 0.99996
45 1 0.285651 0.428531 0.999996
639 1 0.499896 0.49991 0.928741
640 1 0.642886 0.499924 0.928604
25 1 0.714277 0.142851 0.999974
589 1 0.357016 0.499973 0.785793
44 1 0.142803 0.428558 0.999969
29 1 0.999961 0.285718 0.999963
48 1 0.714297 0.428546 0.999978
15 1 0.999973 0.142837 0.999955
17 1 0.142814 0.142815 0.999949
19 1 0.285683 0.142787 0.999957
21 1 0.428561 0.142811 0.999964
23 1 0.571417 0.142819 0.99996
445 1 0.428516 0.571514 0.285816
444 1 0.285812 0.571355 0.285797
446 1 0.571626 0.571626 0.285124
462 1 0.857202 0.857202 0.285659
461 1 0.714321 0.857221 0.285641
460 1 0.571431 0.85717 0.28565
438 1 0.714296 0.857171 0.142797
443 1 0.142885 0.571387 0.285708
352 1 0.071419 0.642846 0.0713988
102 1 0.428557 0.999975 0.285686
354 1 0.214279 0.64284 0.0714301
101 1 0.285694 0.99996 0.285693
356 1 0.357101 0.642844 0.0714183
357 1 0.428512 0.571417 6.49802e-06
358 1 0.499968 0.642864 0.0713903
359 1 0.571423 0.57143 4.34412e-05
360 1 0.642885 0.642883 0.071337
437 1 0.642859 0.928597 0.214251
362 1 0.78573 0.64286 0.0713654
100 1 0.142845 0.99995 0.285698
364 1 0.928576 0.642851 0.071386
451 1 0.28581 0.714126 0.285805
366 1 0.0714181 0.785696 0.0714045
436 1 0.571428 0.857158 0.142801
368 1 0.214281 0.785688 0.0714107
56 1 0.42856 0.999964 0.14282
370 1 0.357125 0.785714 0.0714005
439 1 0.785744 0.928617 0.214244
372 1 0.499986 0.785718 0.0713771
442 1 2.34542e-05 0.571424 0.285692
374 1 0.642863 0.78574 0.0713643
441 1 0.928581 0.928591 0.214263
376 1 0.785743 0.785744 0.0713582
449 1 4.55038e-05 0.714272 0.285694
378 1 0.928599 0.78572 0.071382
54 1 0.285694 0.99996 0.142819
380 1 0.0714299 0.928555 0.0714038
52 1 0.14284 0.999956 0.142828
382 1 0.214275 0.928545 0.0714111
454 1 0.714464 0.714459 0.285419
384 1 0.357133 0.928551 0.0713998
453 1 0.571389 0.714288 0.285576
386 1 0.500008 0.928563 0.0713919
452 1 0.428525 0.714289 0.285611
388 1 0.642855 0.928562 0.0713858
440 1 0.857175 0.857182 0.142809
390 1 0.785717 0.928596 0.071387
448 1 0.857161 0.571426 0.285646
392 1 0.92857 0.92858 0.0713966
447 1 0.71428 0.571398 0.285569
459 1 0.428564 0.857119 0.285675
458 1 0.285708 0.857082 0.285706
457 1 0.142874 0.857102 0.285711
456 1 2.64879e-05 0.857132 0.285709
450 1 0.142915 0.714226 0.285717
455 1 0.857219 0.714324 0.28564
400 1 0.999992 0.571418 0.142813
401 1 0.0714526 0.642832 0.21428
402 1 0.142853 0.5714 0.142848
403 1 0.214301 0.642807 0.214307
404 1 0.285696 0.571385 0.142856
405 1 0.357131 0.642807 0.21432
406 1 0.428499 0.57141 0.142815
407 1 0.499952 0.642859 0.214189
408 1 0.571462 0.571446 0.14269
409 1 0.642966 0.642961 0.213996
410 1 0.714297 0.571401 0.142764
411 1 0.785768 0.64287 0.214194
412 1 0.857158 0.571423 0.142805
413 1 0.928592 0.642852 0.214241
414 1 9.10696e-06 0.714286 0.142822
415 1 0.0714592 0.785685 0.214277
416 1 0.142868 0.71426 0.142854
417 1 0.214315 0.785638 0.214308
418 1 0.285707 0.714249 0.142863
419 1 0.357122 0.785692 0.214238
420 1 0.428537 0.714278 0.14283
421 1 0.49998 0.785712 0.214219
422 1 0.571401 0.7143 0.142765
423 1 0.642869 0.785767 0.214193
424 1 0.714353 0.714352 0.142729
425 1 0.78579 0.785785 0.214179
426 1 0.857184 0.714302 0.142799
427 1 0.928615 0.785739 0.214249
428 1 1.0636e-05 0.857142 0.142833
429 1 0.071437 0.928545 0.214269
430 1 0.142866 0.857119 0.142849
431 1 0.214266 0.928521 0.214264
432 1 0.285693 0.857117 0.142834
433 1 0.357133 0.928535 0.214247
434 1 0.428554 0.857127 0.142827
435 1 0.499998 0.928565 0.21425
50 1 0.999998 0.999996 0.142839
58 1 0.571412 0.999991 0.142815
355 1 0.285674 0.571423 5.13423e-06
207 1 0.714265 0.999993 0.571391
688 3 0.525341 0.525345 0.538128
687 3 0.580329 0.580278 0.541045
686 3 0.561386 0.561401 0.603454
586 1 0.785693 0.92854 0.642821
468 1 0.785686 0.500011 0.357092
148 1 0.999994 0.999991 0.428568
470 1 0.0714714 0.642828 0.357114
471 1 0.214408 0.642765 0.357166
472 1 0.357482 0.642492 0.357432
473 1 0.499792 0.642929 0.357108
474 1 0.643263 0.643273 0.35649
475 1 0.785831 0.642909 0.356972
476 1 0.928618 0.642864 0.357086
477 1 0.0714632 0.785685 0.35714
478 1 0.214323 0.785639 0.357147
479 1 0.35711 0.785673 0.357079
480 1 0.500014 0.785685 0.357086
481 1 0.6429 0.785827 0.356981
482 1 0.785836 0.785835 0.356996
483 1 0.928633 0.785735 0.357109
484 1 0.0714448 0.928548 0.357146
485 1 0.214287 0.928506 0.357146
486 1 0.357119 0.928542 0.357103
487 1 0.5 0.928561 0.357101
488 1 0.642864 0.928621 0.357092
489 1 0.785736 0.928631 0.357103
490 1 0.92858 0.928587 0.357138
585 1 0.714231 0.857068 0.571367
203 1 0.42857 0.999944 0.571393
584 1 0.642859 0.928515 0.64282
494 1 0.928553 0.928557 0.642828
583 1 0.571457 0.8572 0.571376
199 1 0.142851 0.999956 0.571406
201 1 0.285732 0.999948 0.5714
498 1 1.66823e-05 0.571413 0.428535
499 1 0.0714608 0.642832 0.499976
500 1 0.142928 0.571386 0.428538
501 1 0.214406 0.642759 0.49995
502 1 0.286091 0.571396 0.428591
503 1 0.357641 0.642574 0.499906
504 1 0.429638 0.571293 0.429375
505 1 0.499235 0.645886 0.499045
506 1 0.572259 0.57225 0.424201
507 1 0.644029 0.644033 0.498383
508 1 0.714107 0.571534 0.428245
509 1 0.785734 0.642904 0.499751
510 1 0.857149 0.571456 0.428479
511 1 0.928586 0.642861 0.499949
512 1 3.95522e-05 0.714283 0.428543
513 1 0.0714627 0.785673 0.499984
514 1 0.142932 0.71423 0.428575
515 1 0.214349 0.785623 0.499982
516 1 0.285803 0.714162 0.428582
517 1 0.357264 0.785542 0.499989
518 1 0.4284 0.714329 0.428294
519 1 0.499947 0.785865 0.499794
520 1 0.571534 0.714113 0.428245
521 1 0.642906 0.785732 0.499743
522 1 0.714597 0.714613 0.428142
523 1 0.785696 0.785702 0.499951
524 1 0.85724 0.714334 0.428487
525 1 0.928583 0.785707 0.499988
526 1 1.0257e-05 0.857122 0.428563
527 1 0.0714502 0.928539 0.499992
528 1 0.14289 0.857089 0.428571
529 1 0.2143 0.928505 0.499991
530 1 0.285748 0.857043 0.428569
531 1 0.357175 0.928499 0.499988
532 1 0.428534 0.857156 0.428482
533 1 0.499993 0.928579 0.49994
534 1 0.571457 0.857157 0.428477
535 1 0.642858 0.928587 0.499953
536 1 0.714336 0.857226 0.428487
537 1 0.785713 0.928577 0.499995
538 1 0.857169 0.857168 0.428556
539 1 0.928562 0.92856 0.499998
582 1 0.500005 0.928458 0.642801
581 1 0.428614 0.857019 0.571399
580 1 0.357166 0.928492 0.642816
579 1 0.285771 0.857047 0.571394
578 1 0.214305 0.92851 0.642822
205 1 0.571423 0.999979 0.571398
546 1 0.928462 0.500002 0.642811
547 1 0.99998 0.571426 0.571406
548 1 0.0714061 0.642843 0.642828
549 1 0.14282 0.571416 0.571416
550 1 0.214257 0.642842 0.642859
551 1 0.285588 0.571455 0.571522
552 1 0.357144 0.642819 0.642885
553 1 0.426141 0.571632 0.572108
554 1 0.499595 0.64247 0.642238
555 1 0.857119 0.857123 0.571406
556 1 0.643072 0.643066 0.64261
557 1 0.715229 0.571488 0.571113
558 1 0.785507 0.642863 0.642763
559 1 0.857197 0.571452 0.571371
560 1 0.928508 0.64286 0.642824
561 1 0.999998 0.714263 0.571396
562 1 0.0714481 0.785691 0.642825
563 1 0.142905 0.714219 0.571375
564 1 0.214342 0.785643 0.642806
565 1 0.285858 0.714093 0.571336
566 1 0.357203 0.7856 0.642798
567 1 0.42863 0.713856 0.571418
568 1 0.499979 0.785331 0.6427
569 1 0.571489 0.715226 0.571117
570 1 0.642862 0.785503 0.642773
571 1 0.714151 0.714149 0.571241
572 1 0.785633 0.785625 0.642765
573 1 0.857072 0.714225 0.571369
574 1 0.928546 0.785693 0.642816
575 1 0.999995 0.857121 0.571418
576 1 0.0714482 0.92854 0.64283
577 1 0.142887 0.857093 0.571405
150 1 0.142843 0.999948 0.428567
152 1 0.285707 0.999943 0.428553
154 1 0.428554 0.99997 0.428536
465 1 0.357553 0.500108 0.357488
197 1 0.999999 0.999999 0.571417
209 1 0.857119 0.999998 0.571414
497 1 0.928581 0.500003 0.49994
369 1 0.28569 0.714282 0.999996
387 1 0.571436 0.857127 0.999938
391 1 0.857159 0.85715 0.999955
684 1 0.928554 0.928557 0.928512
683 1 0.857113 0.857115 0.857076
592 1 0.785558 0.500042 0.785546
682 1 0.785711 0.928566 0.92851
594 1 0.999927 0.571421 0.714226
595 1 0.0713878 0.642845 0.785667
596 1 0.142818 0.571404 0.714233
597 1 0.214262 0.642841 0.785688
598 1 0.285671 0.571374 0.714235
599 1 0.357041 0.642886 0.785758
600 1 0.428317 0.571649 0.714296
601 1 0.499755 0.64289 0.785642
602 1 0.571336 0.571338 0.716987
603 1 0.642974 0.64298 0.785675
604 1 0.713709 0.571285 0.713792
605 1 0.785559 0.642763 0.785532
606 1 0.85693 0.571406 0.714126
607 1 0.928498 0.642835 0.785641
608 1 0.999971 0.714285 0.714261
609 1 0.0714162 0.785694 0.785677
610 1 0.142854 0.714275 0.71426
611 1 0.214301 0.785676 0.785661
612 1 0.285728 0.714242 0.714258
613 1 0.357204 0.785622 0.785618
614 1 0.428703 0.714054 0.714049
615 1 0.500042 0.785549 0.785551
616 1 0.571289 0.713705 0.713795
617 1 0.642765 0.785568 0.785529
618 1 0.714126 0.71413 0.71408
619 1 0.785631 0.785642 0.785608
620 1 0.857065 0.714257 0.714212
621 1 0.928538 0.785693 0.785658
622 1 0.99999 0.85711 0.714249
623 1 0.0714317 0.928557 0.785679
624 1 0.142876 0.857102 0.714238
625 1 0.214302 0.928539 0.785676
626 1 0.28576 0.857079 0.714235
627 1 0.357173 0.928509 0.785665
628 1 0.428614 0.857004 0.714194
629 1 0.500019 0.928489 0.785646
630 1 0.57141 0.856913 0.714127
631 1 0.642834 0.928494 0.785639
632 1 0.714249 0.857068 0.714218
633 1 0.785695 0.928536 0.785666
634 1 0.85711 0.857113 0.71423
635 1 0.928553 0.928556 0.78567
681 1 0.714249 0.857096 0.857052
246 1 0.999995 0.999989 0.714252
680 1 0.64285 0.928542 0.928508
679 1 0.571431 0.85708 0.857057
678 1 0.500013 0.928531 0.928505
677 1 0.428597 0.85709 0.857069
676 1 0.357156 0.92853 0.928515
643 1 0.999953 0.571433 0.857081
644 1 0.0714136 0.642841 0.928533
645 1 0.14282 0.571426 0.857111
646 1 0.214255 0.642853 0.92855
647 1 0.285655 0.571419 0.857148
648 1 0.357098 0.642863 0.928586
649 1 0.428494 0.571423 0.857227
650 1 0.49994 0.64288 0.928601
651 1 0.57139 0.571403 0.857593
652 1 0.642887 0.642893 0.928568
653 1 0.714173 0.571394 0.857007
654 1 0.785694 0.642838 0.928483
655 1 0.857076 0.571435 0.857053
656 1 0.928535 0.642854 0.928504
657 1 0.999973 0.714259 0.85708
658 1 0.0714096 0.785708 0.928544
659 1 0.142843 0.714269 0.857106
660 1 0.21427 0.78571 0.928555
661 1 0.285681 0.714284 0.85712
662 1 0.357137 0.785709 0.928532
663 1 0.428541 0.714276 0.857111
664 1 0.499996 0.785686 0.928503
665 1 0.571391 0.714174 0.857016
666 1 0.64284 0.785695 0.92849
667 1 0.7143 0.714301 0.857089
668 1 0.78572 0.785718 0.928513
669 1 0.857094 0.714247 0.857062
670 1 0.928567 0.785707 0.928523
671 1 0.999989 0.857133 0.857098
672 1 0.0714169 0.92855 0.928528
673 1 0.142865 0.857131 0.857109
674 1 0.214286 0.928528 0.928517
675 1 0.285742 0.857105 0.857096
248 1 0.142851 0.999968 0.714255
250 1 0.285724 0.999958 0.714247
252 1 0.428588 0.999934 0.714236
593 1 0.928489 0.500027 0.785637
299 1 0.285714 0.999951 0.857095
7 1 0.428568 0.999971 0.999956
351 1 0.999982 0.571428 0.999963
353 1 0.142819 0.571422 0.999968
307 1 0.857126 0.99998 0.857099
373 1 0.571416 0.714287 0.999947
365 1 0.999998 0.714285 0.999964
367 1 0.142843 0.714279 0.999978
361 1 0.714288 0.571415 0.99995
379 1 0.999992 0.857128 0.999957
385 1 0.428569 0.85711 0.999947
3 1 0.142835 0.999974 0.999966
5 1 0.285712 0.999975 0.999969
641 1 0.78568 0.500003 0.928492
363 1 0.857133 0.571432 0.999937
303 1 0.571431 0.99995 0.857084
9 1 0.571423 0.999982 0.999973
377 1 0.857139 0.714285 0.999935
389 1 0.714276 0.857137 0.999941
381 1 0.14285 0.857123 0.999966
254 1 0.57142 0.999931 0.714225
301 1 0.428585 0.999929 0.85709
297 1 0.142852 0.999957 0.85709
295 1 0.999991 0.999986 0.8571
642 1 0.928533 0.500012 0.928508
258 1 0.857118 0.999995 0.71425
305 1 0.714279 0.99998 0.857088
587 1 0.0713684 0.500005 0.785665
375 1 0.714318 0.714319 0.999936
383 1 0.285707 0.85712 0.999961
256 1 0.714271 0.999964 0.714258
371 1 0.428543 0.714298 0.99998
1 1 0.99999 0.999992 0.999965
11 1 0.71428 0.999998 0.99997
13 1 0.857128 0.999993 0.999958
636 1 0.0713999 0.500003 0.928543
