ITEM: TIMESTEP
23
ITEM: NUMBER OF ATOMS
685
ITEM: BOX BOUNDS pp pp pp
0.0000000000000000e+00 2.2013900999999997e+01
0.0000000000000000e+00 2.2013900999999997e+01
0.0000000000000000e+00 2.2013900999999997e+01
ITEM: ATOMS id type xs ys zs
1 1 9.1178e-17 -2.36111e-17 -2.0885e-17
2 1 0.07144 0.07144 0.07144
3 1 0.142871 4.51267e-17 5.86399e-18
4 1 0.214304 0.0714415 0.0714415
5 1 0.285729 8.1533e-17 4.71686e-17
6 1 0.357156 0.0714429 0.0714429
7 1 0.428577 8.20447e-18 6.0982e-17
8 1 0.5 0.071443 0.071443
9 1 0.571423 2.27103e-17 3.72993e-17
10 1 0.642844 0.0714429 0.0714429
11 1 0.714271 -1.80892e-17 6.65158e-17
12 1 0.785696 0.0714415 0.0714415
13 1 0.857129 1.07963e-16 -4.8177e-17
14 1 0.92856 0.07144 0.07144
15 1 4.83579e-17 0.142871 1.06771e-16
16 1 0.0714415 0.214304 0.0714415
17 1 0.142877 0.142877 7.40878e-17
18 1 0.214315 0.214315 0.0714533
19 1 0.285734 0.14288 5.67988e-17
20 1 0.357164 0.214319 0.0714549
21 1 0.428579 0.142881 7.0625e-17
22 1 0.5 0.214321 0.0714541
23 1 0.571421 0.142881 6.617e-17
24 1 0.642836 0.214319 0.0714549
25 1 0.714266 0.14288 4.36057e-17
26 1 0.785685 0.214315 0.0714533
27 1 0.857123 0.142877 8.04805e-17
28 1 0.928558 0.214304 0.0714415
29 1 -1.66447e-17 0.285729 -6.37483e-18
30 1 0.0714429 0.357156 0.0714429
31 1 0.14288 0.285734 2.98581e-17
32 1 0.214319 0.357164 0.0714549
33 1 0.285737 0.285737 1.10688e-16
34 1 0.357158 0.357158 0.0714637
35 1 0.428582 0.285744 9.69841e-17
36 1 0.5 0.35717 0.0714705
37 1 0.571418 0.285744 8.38991e-17
38 1 0.642842 0.357158 0.0714637
39 1 0.714263 0.285737 1.09107e-16
40 1 0.785681 0.357164 0.0714549
41 1 0.85712 0.285734 -2.33568e-17
42 1 0.928557 0.357156 0.0714429
43 1 1.18647e-16 0.428577 7.88382e-17
44 1 0.142881 0.428579 5.92622e-17
45 1 0.285744 0.428582 6.25215e-17
46 1 0.428575 0.428575 2.27316e-18
47 1 0.571425 0.428575 -3.22262e-17
48 1 0.714256 0.428582 7.01374e-17
49 1 0.857119 0.428579 1.0075e-16
50 1 3.26341e-17 9.58598e-17 0.142871
51 1 0.0714415 0.0714415 0.214304
52 1 0.142877 8.89401e-17 0.142877
53 1 0.214315 0.0714533 0.214315
54 1 0.285734 5.85637e-17 0.14288
55 1 0.357164 0.0714549 0.214319
56 1 0.428579 2.15348e-17 0.142881
57 1 0.5 0.0714541 0.214321
58 1 0.571421 8.91236e-17 0.142881
59 1 0.642836 0.0714549 0.214319
60 1 0.714266 -2.01231e-17 0.14288
61 1 0.785685 0.0714533 0.214315
62 1 0.857123 7.61557e-17 0.142877
63 1 0.928558 0.0714415 0.214304
64 1 -1.50788e-17 0.142877 0.142877
65 1 0.0714533 0.214315 0.214315
66 1 0.142888 0.142888 0.142888
67 1 0.214361 0.214361 0.214361
68 1 0.285741 0.14289 0.14289
69 1 0.357185 0.214356 0.214356
70 1 0.428583 0.142892 0.142892
71 1 0.5 0.214357 0.214357
72 1 0.571417 0.142892 0.142892
73 1 0.642815 0.214356 0.214356
74 1 0.714259 0.14289 0.14289
75 1 0.785639 0.214361 0.214361
76 1 0.857112 0.142888 0.142888
77 1 0.928547 0.214315 0.214315
78 1 4.42071e-17 0.285734 0.14288
79 1 0.0714549 0.357164 0.214319
80 1 0.14289 0.285741 0.14289
81 1 0.214356 0.357185 0.214356
82 1 0.28576 0.28576 0.142927
83 1 0.357202 0.357202 0.214431
84 1 0.428595 0.285768 0.142933
85 1 0.5 0.357255 0.214464
86 1 0.571405 0.285768 0.142933
87 1 0.642798 0.357202 0.214431
88 1 0.71424 0.28576 0.142927
89 1 0.785644 0.357185 0.214356
90 1 0.85711 0.285741 0.14289
91 1 0.928545 0.357164 0.214319
92 1 8.0762e-17 0.428579 0.142881
93 1 0.142892 0.428583 0.142892
94 1 0.285768 0.428595 0.142933
95 1 0.428568 0.428568 0.142926
96 1 0.571432 0.428568 0.142926
97 1 0.714232 0.428595 0.142933
98 1 0.857108 0.428583 0.142892
99 1 4.77176e-17 7.91412e-17 0.285729
100 1 0.0714429 0.0714429 0.357156
101 1 0.14288 5.66976e-17 0.285734
102 1 0.214319 0.0714549 0.357164
103 1 0.285737 1.30175e-17 0.285737
104 1 0.357158 0.0714637 0.357158
105 1 0.428582 7.37444e-17 0.285744
106 1 0.5 0.0714705 0.35717
107 1 0.571418 4.98576e-17 0.285744
108 1 0.642842 0.0714637 0.357158
109 1 0.714263 4.68692e-17 0.285737
110 1 0.785681 0.0714549 0.357164
111 1 0.85712 8.61564e-17 0.285734
112 1 0.928557 0.0714429 0.357156
113 1 6.27031e-17 0.14288 0.285734
114 1 0.0714549 0.214319 0.357164
115 1 0.14289 0.14289 0.285741
116 1 0.214356 0.214356 0.357185
117 1 0.28576 0.142927 0.28576
118 1 0.357202 0.214431 0.357202
119 1 0.428595 0.142933 0.285768
120 1 0.5 0.214464 0.357255
121 1 0.571405 0.142933 0.285768
122 1 0.642798 0.214431 0.357202
123 1 0.71424 0.142927 0.28576
124 1 0.785644 0.214356 0.357185
125 1 0.85711 0.14289 0.285741
126 1 0.928545 0.214319 0.357164
127 1 8.74582e-17 0.285737 0.285737
128 1 0.0714637 0.357158 0.357158
129 1 0.142927 0.28576 0.28576
130 1 0.214431 0.357202 0.357202
131 1 0.285907 0.285907 0.285907
132 1 0.357663 0.357663 0.357663
133 1 0.428647 0.28587 0.28587
134 1 0.5 0.357645 0.357645
135 1 0.571353 0.28587 0.28587
136 1 0.642337 0.357663 0.357663
137 1 0.714093 0.285907 0.285907
138 1 0.785569 0.357202 0.357202
139 1 0.857073 0.28576 0.28576
140 1 0.928536 0.357158 0.357158
141 1 6.52829e-17 0.428582 0.285744
142 1 0.142933 0.428595 0.285768
143 1 0.28587 0.428647 0.28587
144 1 0.428562 0.428562 0.286017
145 1 0.571438 0.428562 0.286017
146 1 0.71413 0.428647 0.28587
147 1 0.857067 0.428595 0.285768
148 1 7.88066e-17 4.97259e-17 0.428577
149 1 0.142881 4.37944e-17 0.428579
150 1 0.285744 5.65003e-17 0.428582
151 1 0.428575 6.60941e-17 0.428575
152 1 0.571425 6.37037e-17 0.428575
153 1 0.714256 6.36377e-17 0.428582
154 1 0.857119 8.39862e-17 0.428579
155 1 1.03539e-16 0.142881 0.428579
156 1 0.142892 0.142892 0.428583
157 1 0.285768 0.142933 0.428595
158 1 0.428568 0.142926 0.428568
159 1 0.571432 0.142926 0.428568
160 1 0.714232 0.142933 0.428595
161 1 0.857108 0.142892 0.428583
162 1 7.39488e-17 0.285744 0.428582
163 1 0.142933 0.285768 0.428595
164 1 0.28587 0.28587 0.428647
165 1 0.428562 0.286017 0.428562
166 1 0.571438 0.286017 0.428562
167 1 0.71413 0.28587 0.428647
168 1 0.857067 0.285768 0.428595
169 1 2.81279e-17 0.428575 0.428575
170 1 0.142926 0.428568 0.428568
171 1 0.286017 0.428562 0.428562
172 1 0.429894 0.429894 0.429894
173 1 0.570106 0.429894 0.429894
174 1 0.713983 0.428562 0.428562
175 1 0.857074 0.428568 0.428568
176 1 0.071443 0.071443 0.5
177 1 0.214321 0.0714541 0.5
178 1 0.35717 0.0714705 0.5
179 1 0.5 0.0714364 0.5
180 1 0.64283 0.0714705 0.5
181 1 0.785679 0.0714541 0.5
182 1 0.928557 0.071443 0.5
183 1 0.0714541 0.214321 0.5
184 1 0.214357 0.214357 0.5
185 1 0.357255 0.214464 0.5
186 1 0.5 0.214182 0.5
187 1 0.642745 0.214464 0.5
188 1 0.785643 0.214357 0.5
189 1 0.928546 0.214321 0.5
190 1 0.0714705 0.35717 0.5
191 1 0.214464 0.357255 0.5
192 1 0.357645 0.357645 0.5
193 1 0.5 0.355722 0.5
194 1 0.642355 0.357645 0.5
195 1 0.785536 0.357255 0.5
196 1 0.92853 0.35717 0.5
197 1 6.47535e-17 5.71942e-17 0.571423
198 1 0.0714429 0.0714429 0.642844
199 1 0.142881 -9.8567e-20 0.571421
200 1 0.214319 0.0714549 0.642836
201 1 0.285744 6.9738e-17 0.571418
202 1 0.357158 0.0714637 0.642842
203 1 0.428575 5.57597e-17 0.571425
204 1 0.5 0.0714705 0.64283
205 1 0.571425 -4.26279e-17 0.571425
206 1 0.642842 0.0714637 0.642842
207 1 0.714256 -1.27181e-17 0.571418
208 1 0.785681 0.0714549 0.642836
209 1 0.857119 4.10102e-17 0.571421
210 1 0.928557 0.0714429 0.642844
211 1 -1.15792e-18 0.142881 0.571421
212 1 0.0714549 0.214319 0.642836
213 1 0.142892 0.142892 0.571417
214 1 0.214356 0.214356 0.642815
215 1 0.285768 0.142933 0.571405
216 1 0.357202 0.214431 0.642798
217 1 0.428568 0.142926 0.571432
218 1 0.5 0.214464 0.642745
219 1 0.571432 0.142926 0.571432
220 1 0.642798 0.214431 0.642798
221 1 0.714232 0.142933 0.571405
222 1 0.785644 0.214356 0.642815
223 1 0.857108 0.142892 0.571417
224 1 0.928545 0.214319 0.642836
225 1 3.20334e-17 0.285744 0.571418
226 1 0.0714637 0.357158 0.642842
227 1 0.142933 0.285768 0.571405
228 1 0.214431 0.357202 0.642798
229 1 0.28587 0.28587 0.571353
230 1 0.357663 0.357663 0.642337
231 1 0.428562 0.286017 0.571438
232 1 0.5 0.357645 0.642355
233 1 0.571438 0.286017 0.571438
234 1 0.642337 0.357663 0.642337
235 1 0.71413 0.28587 0.571353
236 1 0.785569 0.357202 0.642798
237 1 0.857067 0.285768 0.571405
238 1 0.928536 0.357158 0.642842
239 1 5.1741e-17 0.428575 0.571425
240 1 0.142926 0.428568 0.571432
241 1 0.286017 0.428562 0.571438
242 1 0.429894 0.429894 0.570106
243 1 0.570106 0.429894 0.570106
244 1 0.713983 0.428562 0.571438
245 1 0.857074 0.428568 0.571432
246 1 6.72162e-17 4.89728e-17 0.714271
247 1 0.0714415 0.0714415 0.785696
248 1 0.14288 -1.94021e-18 0.714266
249 1 0.214315 0.0714533 0.785685
250 1 0.285737 8.11631e-17 0.714263
251 1 0.357164 0.0714549 0.785681
252 1 0.428582 6.56958e-17 0.714256
253 1 0.5 0.0714541 0.785679
254 1 0.571418 8.33162e-17 0.714256
255 1 0.642836 0.0714549 0.785681
256 1 0.714263 4.9724e-17 0.714263
257 1 0.785685 0.0714533 0.785685
258 1 0.85712 1.0347e-16 0.714266
259 1 0.928558 0.0714415 0.785696
260 1 8.70803e-17 0.14288 0.714266
261 1 0.0714533 0.214315 0.785685
262 1 0.14289 0.14289 0.714259
263 1 0.214361 0.214361 0.785639
264 1 0.28576 0.142927 0.71424
265 1 0.357185 0.214356 0.785644
266 1 0.428595 0.142933 0.714232
267 1 0.5 0.214357 0.785643
268 1 0.571405 0.142933 0.714232
269 1 0.642815 0.214356 0.785644
270 1 0.71424 0.142927 0.71424
271 1 0.785639 0.214361 0.785639
272 1 0.85711 0.14289 0.714259
273 1 0.928547 0.214315 0.785685
274 1 1.17786e-17 0.285737 0.714263
275 1 0.0714549 0.357164 0.785681
276 1 0.142927 0.28576 0.71424
277 1 0.214356 0.357185 0.785644
278 1 0.285907 0.285907 0.714093
279 1 0.357202 0.357202 0.785569
280 1 0.428647 0.28587 0.71413
281 1 0.5 0.357255 0.785536
282 1 0.571353 0.28587 0.71413
283 1 0.642798 0.357202 0.785569
284 1 0.714093 0.285907 0.714093
285 1 0.785644 0.357185 0.785644
286 1 0.857073 0.28576 0.71424
287 1 0.928545 0.357164 0.785681
288 1 4.05117e-17 0.428582 0.714256
289 1 0.142933 0.428595 0.714232
290 1 0.28587 0.428647 0.71413
291 1 0.428562 0.428562 0.713983
292 1 0.571438 0.428562 0.713983
293 1 0.71413 0.428647 0.71413
294 1 0.857067 0.428595 0.714232
295 1 4.31693e-17 3.14285e-17 0.857129
296 1 0.07144 0.07144 0.92856
297 1 0.142877 4.92892e-17 0.857123
298 1 0.214304 0.0714415 0.928558
299 1 0.285734 -1.76167e-17 0.85712
300 1 0.357156 0.0714429 0.928557
301 1 0.428579 -8.17355e-18 0.857119
302 1 0.5 0.071443 0.928557
303 1 0.571421 8.94247e-17 0.857119
304 1 0.642844 0.0714429 0.928557
305 1 0.714266 3.95454e-17 0.85712
306 1 0.785696 0.0714415 0.928558
307 1 0.857123 4.89141e-17 0.857123
308 1 0.92856 0.07144 0.92856
309 1 9.61006e-17 0.142877 0.857123
310 1 0.0714415 0.214304 0.928558
311 1 0.142888 0.142888 0.857112
312 1 0.214315 0.214315 0.928547
313 1 0.285741 0.14289 0.85711
314 1 0.357164 0.214319 0.928545
315 1 0.428583 0.142892 0.857108
316 1 0.5 0.214321 0.928546
317 1 0.571417 0.142892 0.857108
318 1 0.642836 0.214319 0.928545
319 1 0.714259 0.14289 0.85711
320 1 0.785685 0.214315 0.928547
321 1 0.857112 0.142888 0.857112
322 1 0.928558 0.214304 0.928558
323 1 9.97719e-17 0.285734 0.85712
324 1 0.0714429 0.357156 0.928557
325 1 0.14289 0.285741 0.85711
326 1 0.214319 0.357164 0.928545
327 1 0.28576 0.28576 0.857073
328 1 0.357158 0.357158 0.928536
329 1 0.428595 0.285768 0.857067
330 1 0.5 0.35717 0.92853
331 1 0.571405 0.285768 0.857067
332 1 0.642842 0.357158 0.928536
333 1 0.71424 0.28576 0.857073
334 1 0.785681 0.357164 0.928545
335 1 0.85711 0.285741 0.85711
336 1 0.928557 0.357156 0.928557
337 1 2.59216e-17 0.428579 0.857119
338 1 0.142892 0.428583 0.857108
339 1 0.285768 0.428595 0.857067
340 1 0.428568 0.428568 0.857074
341 1 0.571432 0.428568 0.857074
342 1 0.714232 0.428595 0.857067
343 1 0.857108 0.428583 0.857108
344 1 0.071443 0.5 0.071443
345 1 0.214321 0.5 0.0714541
346 1 0.35717 0.5 0.0714705
347 1 0.5 0.5 0.0714364
348 1 0.64283 0.5 0.0714705
349 1 0.785679 0.5 0.0714541
350 1 0.928557 0.5 0.071443
351 1 1.00975e-16 0.571423 8.40924e-17
352 1 0.0714429 0.642844 0.0714429
353 1 0.142881 0.571421 7.00539e-17
354 1 0.214319 0.642836 0.0714549
355 1 0.285744 0.571418 8.3448e-17
356 1 0.357158 0.642842 0.0714637
357 1 0.428575 0.571425 4.95997e-17
358 1 0.5 0.64283 0.0714705
359 1 0.571425 0.571425 2.68021e-17
360 1 0.642842 0.642842 0.0714637
361 1 0.714256 0.571418 4.96316e-17
362 1 0.785681 0.642836 0.0714549
363 1 0.857119 0.571421 1.02316e-16
364 1 0.928557 0.642844 0.0714429
365 1 9.08776e-17 0.714271 -5.3156e-17
366 1 0.0714415 0.785696 0.0714415
367 1 0.14288 0.714266 7.9266e-17
368 1 0.214315 0.785685 0.0714533
369 1 0.285737 0.714263 9.69386e-17
370 1 0.357164 0.785681 0.0714549
371 1 0.428582 0.714256 5.52318e-17
372 1 0.5 0.785679 0.0714541
373 1 0.571418 0.714256 5.97184e-17
374 1 0.642836 0.785681 0.0714549
375 1 0.714263 0.714263 6.09083e-17
376 1 0.785685 0.785685 0.0714533
377 1 0.85712 0.714266 9.84453e-17
378 1 0.928558 0.785696 0.0714415
379 1 -1.84146e-17 0.857129 2.17401e-17
380 1 0.07144 0.92856 0.07144
381 1 0.142877 0.857123 7.80123e-17
382 1 0.214304 0.928558 0.0714415
383 1 0.285734 0.85712 6.81372e-17
384 1 0.357156 0.928557 0.0714429
385 1 0.428579 0.857119 8.80229e-17
386 1 0.5 0.928557 0.071443
387 1 0.571421 0.857119 5.05601e-17
388 1 0.642844 0.928557 0.0714429
389 1 0.714266 0.85712 4.51581e-17
390 1 0.785696 0.928558 0.0714415
391 1 0.857123 0.857123 8.724e-17
392 1 0.92856 0.92856 0.07144
393 1 0.0714541 0.5 0.214321
394 1 0.214357 0.5 0.214357
395 1 0.357255 0.5 0.214464
396 1 0.5 0.5 0.214182
397 1 0.642745 0.5 0.214464
398 1 0.785643 0.5 0.214357
399 1 0.928546 0.5 0.214321
400 1 -5.62316e-20 0.571421 0.142881
401 1 0.0714549 0.642836 0.214319
402 1 0.142892 0.571417 0.142892
403 1 0.214356 0.642815 0.214356
404 1 0.285768 0.571405 0.142933
405 1 0.357202 0.642798 0.214431
406 1 0.428568 0.571432 0.142926
407 1 0.5 0.642745 0.214464
408 1 0.571432 0.571432 0.142926
409 1 0.642798 0.642798 0.214431
410 1 0.714232 0.571405 0.142933
411 1 0.785644 0.642815 0.214356
412 1 0.857108 0.571417 0.142892
413 1 0.928545 0.642836 0.214319
414 1 5.83616e-17 0.714266 0.14288
415 1 0.0714533 0.785685 0.214315
416 1 0.14289 0.714259 0.14289
417 1 0.214361 0.785639 0.214361
418 1 0.28576 0.71424 0.142927
419 1 0.357185 0.785644 0.214356
420 1 0.428595 0.714232 0.142933
421 1 0.5 0.785643 0.214357
422 1 0.571405 0.714232 0.142933
423 1 0.642815 0.785644 0.214356
424 1 0.71424 0.71424 0.142927
425 1 0.785639 0.785639 0.214361
426 1 0.85711 0.714259 0.14289
427 1 0.928547 0.785685 0.214315
428 1 8.88894e-17 0.857123 0.142877
429 1 0.0714415 0.928558 0.214304
430 1 0.142888 0.857112 0.142888
431 1 0.214315 0.928547 0.214315
432 1 0.285741 0.85711 0.14289
433 1 0.357164 0.928545 0.214319
434 1 0.428583 0.857108 0.142892
435 1 0.5 0.928546 0.214321
436 1 0.571417 0.857108 0.142892
437 1 0.642836 0.928545 0.214319
438 1 0.714259 0.85711 0.14289
439 1 0.785685 0.928547 0.214315
440 1 0.857112 0.857112 0.142888
441 1 0.928558 0.928558 0.214304
442 1 0.0714705 0.5 0.35717
443 1 0.214464 0.5 0.357255
444 1 0.357645 0.5 0.357645
445 1 0.5 0.5 0.355722
446 1 0.642355 0.5 0.357645
447 1 0.785536 0.5 0.357255
448 1 0.92853 0.5 0.35717
449 1 4.777e-17 0.571418 0.285744
450 1 0.0714637 0.642842 0.357158
451 1 0.142933 0.571405 0.285768
452 1 0.214431 0.642798 0.357202
453 1 0.28587 0.571353 0.28587
454 1 0.357663 0.642337 0.357663
455 1 0.428562 0.571438 0.286017
456 1 0.5 0.642355 0.357645
457 1 0.571438 0.571438 0.286017
458 1 0.642337 0.642337 0.357663
459 1 0.71413 0.571353 0.28587
460 1 0.785569 0.642798 0.357202
461 1 0.857067 0.571405 0.285768
462 1 0.928536 0.642842 0.357158
463 1 8.15613e-17 0.714263 0.285737
464 1 0.0714549 0.785681 0.357164
465 1 0.142927 0.71424 0.28576
466 1 0.214356 0.785644 0.357185
467 1 0.285907 0.714093 0.285907
468 1 0.357202 0.785569 0.357202
469 1 0.428647 0.71413 0.28587
470 1 0.5 0.785536 0.357255
471 1 0.571353 0.71413 0.28587
472 1 0.642798 0.785569 0.357202
473 1 0.714093 0.714093 0.285907
474 1 0.785644 0.785644 0.357185
475 1 0.857073 0.71424 0.28576
476 1 0.928545 0.785681 0.357164
477 1 1.11055e-16 0.85712 0.285734
478 1 0.0714429 0.928557 0.357156
479 1 0.14289 0.85711 0.285741
480 1 0.214319 0.928545 0.357164
481 1 0.28576 0.857073 0.28576
482 1 0.357158 0.928536 0.357158
483 1 0.428595 0.857067 0.285768
484 1 0.5 0.92853 0.35717
485 1 0.571405 0.857067 0.285768
486 1 0.642842 0.928536 0.357158
487 1 0.71424 0.857073 0.28576
488 1 0.785681 0.928545 0.357164
489 1 0.85711 0.85711 0.285741
490 1 0.928557 0.928557 0.357156
491 1 3.00518e-17 0.571425 0.428575
492 1 0.142926 0.571432 0.428568
493 1 0.286017 0.571438 0.428562
494 1 0.429894 0.570106 0.429894
495 1 0.570106 0.570106 0.429894
496 1 0.713983 0.571438 0.428562
497 1 0.857074 0.571432 0.428568
498 1 4.47687e-17 0.714256 0.428582
499 1 0.142933 0.714232 0.428595
500 1 0.28587 0.71413 0.428647
501 1 0.428562 0.713983 0.428562
502 1 0.571438 0.713983 0.428562
503 1 0.71413 0.71413 0.428647
504 1 0.857067 0.714232 0.428595
505 1 8.61596e-17 0.857119 0.428579
506 1 0.142892 0.857108 0.428583
507 1 0.285768 0.857067 0.428595
508 1 0.428568 0.857074 0.428568
509 1 0.571432 0.857074 0.428568
510 1 0.714232 0.857067 0.428595
511 1 0.857108 0.857108 0.428583
512 1 0.0714364 0.5 0.5
513 1 0.214182 0.5 0.5
514 1 0.355722 0.5 0.5
515 1 0.92856 0.92856 0.92856
516 1 0.644278 0.5 0.5
517 1 0.785818 0.5 0.5
518 1 0.928564 0.5 0.5
519 1 0.0714705 0.64283 0.5
520 1 0.214464 0.642745 0.5
521 1 0.357645 0.642355 0.5
522 1 0.5 0.644278 0.5
523 1 0.642355 0.642355 0.5
524 1 0.785536 0.642745 0.5
525 1 0.92853 0.64283 0.5
526 1 0.0714541 0.785679 0.5
527 1 0.214357 0.785643 0.5
528 1 0.357255 0.785536 0.5
529 1 0.5 0.785818 0.5
530 1 0.642745 0.785536 0.5
531 1 0.785643 0.785643 0.5
532 1 0.928546 0.785679 0.5
533 1 0.071443 0.928557 0.5
534 1 0.214321 0.928546 0.5
535 1 0.35717 0.92853 0.5
536 1 0.5 0.928564 0.5
537 1 0.64283 0.92853 0.5
538 1 0.785679 0.928546 0.5
539 1 0.928557 0.928557 0.5
540 1 0.0714705 0.5 0.64283
541 1 0.214464 0.5 0.642745
542 1 0.357645 0.5 0.642355
543 1 0.5 0.5 0.644278
544 1 0.642355 0.5 0.642355
545 1 0.785536 0.5 0.642745
546 1 0.92853 0.5 0.64283
547 1 3.17171e-17 0.571425 0.571425
548 1 0.0714637 0.642842 0.642842
549 1 0.142926 0.571432 0.571432
550 1 0.214431 0.642798 0.642798
551 1 0.286017 0.571438 0.571438
552 1 0.357663 0.642337 0.642337
553 1 0.429894 0.570106 0.570106
554 1 0.5 0.642355 0.642355
555 1 0.570106 0.570106 0.570106
556 1 0.642337 0.642337 0.642337
557 1 0.713983 0.571438 0.571438
558 1 0.785569 0.642798 0.642798
559 1 0.857074 0.571432 0.571432
560 1 0.928536 0.642842 0.642842
561 1 2.04153e-17 0.714256 0.571418
562 1 0.0714549 0.785681 0.642836
563 1 0.142933 0.714232 0.571405
564 1 0.214356 0.785644 0.642815
565 1 0.28587 0.71413 0.571353
566 1 0.357202 0.785569 0.642798
567 1 0.428562 0.713983 0.571438
568 1 0.5 0.785536 0.642745
569 1 0.571438 0.713983 0.571438
570 1 0.642798 0.785569 0.642798
571 1 0.71413 0.71413 0.571353
572 1 0.785644 0.785644 0.642815
573 1 0.857067 0.714232 0.571405
574 1 0.928545 0.785681 0.642836
575 1 -2.78918e-17 0.857119 0.571421
576 1 0.0714429 0.928557 0.642844
577 1 0.142892 0.857108 0.571417
578 1 0.214319 0.928545 0.642836
579 1 0.285768 0.857067 0.571405
580 1 0.357158 0.928536 0.642842
581 1 0.428568 0.857074 0.571432
582 1 0.5 0.92853 0.64283
583 1 0.571432 0.857074 0.571432
584 1 0.642842 0.928536 0.642842
585 1 0.714232 0.857067 0.571405
586 1 0.785681 0.928545 0.642836
587 1 0.857108 0.857108 0.571417
588 1 0.928557 0.928557 0.642844
589 1 0.0714541 0.5 0.785679
590 1 0.214357 0.5 0.785643
591 1 0.357255 0.5 0.785536
592 1 0.5 0.5 0.785818
593 1 0.642745 0.5 0.785536
594 1 0.785643 0.5 0.785643
595 1 0.928546 0.5 0.785679
596 1 6.76298e-17 0.571418 0.714256
597 1 0.0714549 0.642836 0.785681
598 1 0.142933 0.571405 0.714232
599 1 0.214356 0.642815 0.785644
600 1 0.28587 0.571353 0.71413
601 1 0.357202 0.642798 0.785569
602 1 0.428562 0.571438 0.713983
603 1 0.5 0.642745 0.785536
604 1 0.571438 0.571438 0.713983
605 1 0.642798 0.642798 0.785569
606 1 0.71413 0.571353 0.71413
607 1 0.785644 0.642815 0.785644
608 1 0.857067 0.571405 0.714232
609 1 0.928545 0.642836 0.785681
610 1 8.79681e-17 0.714263 0.714263
611 1 0.0714533 0.785685 0.785685
612 1 0.142927 0.71424 0.71424
613 1 0.214361 0.785639 0.785639
614 1 0.285907 0.714093 0.714093
615 1 0.357185 0.785644 0.785644
616 1 0.428647 0.71413 0.71413
617 1 0.5 0.785643 0.785643
618 1 0.571353 0.71413 0.71413
619 1 0.642815 0.785644 0.785644
620 1 0.714093 0.714093 0.714093
621 1 0.785639 0.785639 0.785639
622 1 0.857073 0.71424 0.71424
623 1 0.928547 0.785685 0.785685
624 1 1.03242e-17 0.85712 0.714266
625 1 0.0714415 0.928558 0.785696
626 1 0.14289 0.85711 0.714259
627 1 0.214315 0.928547 0.785685
628 1 0.28576 0.857073 0.71424
629 1 0.357164 0.928545 0.785681
630 1 0.428595 0.857067 0.714232
631 1 0.5 0.928546 0.785679
632 1 0.571405 0.857067 0.714232
633 1 0.642836 0.928545 0.785681
634 1 0.71424 0.857073 0.71424
635 1 0.785685 0.928547 0.785685
636 1 0.85711 0.85711 0.714259
637 1 0.928558 0.928558 0.785696
638 1 0.071443 0.5 0.928557
639 1 0.214321 0.5 0.928546
640 1 0.35717 0.5 0.92853
641 1 0.5 0.5 0.928564
642 1 0.64283 0.5 0.92853
643 1 0.785679 0.5 0.928546
644 1 0.928557 0.5 0.928557
645 1 -7.81946e-17 0.571421 0.857119
646 1 0.0714429 0.642844 0.928557
647 1 0.142892 0.571417 0.857108
648 1 0.214319 0.642836 0.928545
649 1 0.285768 0.571405 0.857067
650 1 0.357158 0.642842 0.928536
651 1 0.428568 0.571432 0.857074
652 1 0.5 0.64283 0.92853
653 1 0.571432 0.571432 0.857074
654 1 0.642842 0.642842 0.928536
655 1 0.714232 0.571405 0.857067
656 1 0.785681 0.642836 0.928545
657 1 0.857108 0.571417 0.857108
658 1 0.928557 0.642844 0.928557
659 1 1.65931e-18 0.714266 0.85712
660 1 0.0714415 0.785696 0.928558
661 1 0.14289 0.714259 0.85711
662 1 0.214315 0.785685 0.928547
663 1 0.28576 0.71424 0.857073
664 1 0.357164 0.785681 0.928545
665 1 0.428595 0.714232 0.857067
666 1 0.5 0.785679 0.928546
667 1 0.571405 0.714232 0.857067
668 1 0.642836 0.785681 0.928545
669 1 0.71424 0.71424 0.857073
670 1 0.785685 0.785685 0.928547
671 1 0.85711 0.714259 0.85711
672 1 0.928558 0.785696 0.928558
673 1 3.75292e-17 0.857123 0.857123
674 1 0.07144 0.92856 0.92856
675 1 0.142888 0.857112 0.857112
676 1 0.214304 0.928558 0.928558
677 1 0.285741 0.85711 0.85711
678 1 0.357156 0.928557 0.928557
679 1 0.428583 0.857108 0.857108
680 1 0.5 0.928557 0.928557
681 1 0.571417 0.857108 0.857108
682 1 0.642844 0.928557 0.928557
683 1 0.714259 0.85711 0.85711
684 1 0.785696 0.928558 0.928558
685 1 0.857112 0.857112 0.857112
