ITEM: TIMESTEP
116
ITEM: NUMBER OF ATOMS
693
ITEM: BOX BOUNDS pp pp pp
0.0000000000000000e+00 2.2009546999999998e+01
0.0000000000000000e+00 2.2009546999999998e+01
0.0000000000000000e+00 2.2009546999999998e+01
ITEM: ATOMS id type xs ys zs
688 2 0.456294 0.497783 0.465853
2 1 0.0713829 0.071411 0.0714428
17 1 0.142786 0.142831 4.22907e-05
4 1 0.214223 0.0714166 0.071454
691 3 0.501759 0.467881 0.473974
6 1 0.357097 0.0714281 0.0714534
7 1 0.428538 3.82523e-05 5.75588e-05
8 1 0.499983 0.071435 0.0714392
9 1 0.571428 4.24005e-05 3.94325e-05
10 1 0.64287 0.0714326 0.0714206
513 1 0.213725 0.500005 0.500066
12 1 0.785745 0.0714225 0.07141
516 1 0.644701 0.499894 0.499869
14 1 0.928582 0.0714147 0.0714203
19 1 0.285651 0.142833 5.31387e-05
16 1 0.0713833 0.214261 0.0714271
103 1 0.285627 -2.72093e-06 0.285695
18 1 0.214198 0.214234 0.0714218
105 1 0.428527 2.98722e-05 0.285686
20 1 0.357089 0.214238 0.0714285
687 2 0.538393 0.500011 0.459149
22 1 0.499985 0.214239 0.0714075
396 1 0.500045 0.499985 0.213612
24 1 0.642884 0.214235 0.0713723
445 1 0.500294 0.500051 0.354665
26 1 0.78578 0.214228 0.0713502
195 1 0.785989 0.356989 0.49999
28 1 0.928591 0.21426 0.071403
347 1 0.499997 0.499999 0.0712915
30 1 0.0713984 0.357136 0.0714299
58 1 0.571431 3.58175e-05 0.142839
32 1 0.214206 0.357119 0.0714282
444 1 0.356975 0.500032 0.356849
34 1 0.357065 0.357084 0.0713901
164 1 0.285299 0.285322 0.428501
36 1 0.499992 0.357083 0.0713541
163 1 0.14263 0.285562 0.428561
38 1 0.642935 0.357074 0.0712785
162 1 0.999955 0.285634 0.428572
40 1 0.785801 0.357107 0.0713391
348 1 0.642953 0.500001 0.0712793
42 1 0.928605 0.357132 0.0713999
161 1 0.857185 0.142773 0.428577
111 1 0.857175 -1.524e-05 0.285708
160 1 0.714383 0.142697 0.428556
148 1 -3.64328e-05 -2.58598e-05 0.428594
159 1 0.571471 0.142629 0.428541
158 1 0.428476 0.142639 0.428556
395 1 0.357063 0.499985 0.214125
107 1 0.571438 3.27001e-05 0.285674
51 1 0.0713769 0.0713896 0.21428
175 1 0.85733 0.42852 0.428529
53 1 0.214197 0.0713772 0.214263
192 1 0.356186 0.356214 0.500207
55 1 0.357086 0.0714026 0.214264
60 1 0.714321 2.67844e-05 0.142829
57 1 0.499982 0.0714125 0.214253
174 1 0.714739 0.428408 0.428468
59 1 0.642884 0.0714018 0.214238
173 1 0.575987 0.424764 0.424644
61 1 0.785777 0.0713769 0.214233
153 1 0.71433 -2.31703e-05 0.42858
63 1 0.928584 0.0713932 0.214271
64 1 0.999983 0.142816 0.142835
65 1 0.0713513 0.214213 0.214238
66 1 0.142771 0.142797 0.14283
67 1 0.214106 0.21413 0.214165
68 1 0.285644 0.142808 0.14284
69 1 0.357062 0.214172 0.214213
70 1 0.428536 0.142817 0.142836
71 1 0.499981 0.214181 0.214205
72 1 0.571432 0.142816 0.142816
73 1 0.642925 0.214146 0.214151
74 1 0.714333 0.142799 0.14279
75 1 0.785896 0.214102 0.214102
76 1 0.857206 0.142793 0.142791
77 1 0.928616 0.214215 0.214227
78 1 -2.99946e-06 0.285688 0.142827
79 1 0.0713809 0.357121 0.214251
80 1 0.142775 0.285673 0.142823
81 1 0.214144 0.357083 0.214198
82 1 0.285593 0.285617 0.142757
83 1 0.356974 0.35698 0.214019
84 1 0.428532 0.285625 0.14278
85 1 0.500001 0.357005 0.214065
86 1 0.571453 0.285617 0.142727
87 1 0.64311 0.356914 0.213825
88 1 0.714426 0.285584 0.14265
89 1 0.785909 0.35705 0.214105
90 1 0.857228 0.285661 0.142773
91 1 0.928636 0.357114 0.214225
92 1 1.60094e-05 0.428572 0.142833
93 1 0.142803 0.428571 0.142846
94 1 0.285619 0.428547 0.142798
95 1 0.428511 0.428494 0.142675
96 1 0.571526 0.428492 0.142544
97 1 0.714446 0.428527 0.14265
98 1 0.857242 0.428559 0.142774
172 1 0.424442 0.425032 0.425377
100 1 0.0713607 0.0713758 0.357148
54 1 0.285654 1.53477e-05 0.142865
102 1 0.21417 0.0713542 0.357133
171 1 0.284661 0.42819 0.428323
104 1 0.357049 0.0713501 0.357118
170 1 0.142535 0.428498 0.428545
106 1 0.499979 0.0713778 0.357116
349 1 0.785814 0.500007 0.0713455
108 1 0.642907 0.0713404 0.357104
394 1 0.214206 0.50002 0.21425
110 1 0.78577 0.0713609 0.357128
169 1 0.999968 0.428549 0.428567
112 1 0.928573 0.0713806 0.357146
113 1 0.999973 0.142795 0.285698
114 1 0.0713304 0.214191 0.357124
115 1 0.142749 0.142767 0.285685
116 1 0.214078 0.214097 0.357082
117 1 0.285584 0.142711 0.285651
118 1 0.356959 0.213969 0.357054
119 1 0.428523 0.142759 0.285667
120 1 0.499975 0.214079 0.35709
121 1 0.571438 0.142749 0.285647
122 1 0.643019 0.213924 0.356994
123 1 0.714391 0.142692 0.285615
124 1 0.78586 0.214124 0.357071
125 1 0.857203 0.142775 0.285674
126 1 0.9286 0.214201 0.35712
127 1 -2.1771e-05 0.285648 0.285667
128 1 0.0712897 0.35707 0.357101
129 1 0.142654 0.28558 0.285615
130 1 0.213816 0.356894 0.356954
131 1 0.285284 0.28531 0.28536
132 1 0.355956 0.356093 0.356159
133 1 0.428488 0.285498 0.285575
134 1 0.500013 0.35674 0.356842
135 1 0.571494 0.285456 0.285483
136 1 0.644185 0.355896 0.355814
137 1 0.714772 0.285233 0.285233
138 1 0.786081 0.356984 0.356983
139 1 0.857307 0.285601 0.285607
140 1 0.928647 0.357086 0.357098
141 1 9.5253e-06 0.428568 0.285682
142 1 0.142744 0.428566 0.285675
143 1 0.285479 0.42853 0.285539
144 1 0.428407 0.428383 0.28523
145 1 0.571821 0.428326 0.28482
146 1 0.714686 0.428464 0.285341
147 1 0.857306 0.428553 0.285615
168 1 0.85727 0.285594 0.428548
154 1 0.857161 -2.40395e-05 0.428589
167 1 0.71459 0.285389 0.428482
166 1 0.571609 0.285106 0.428532
186 1 0.499962 0.213686 0.500051
165 1 0.428357 0.285176 0.428636
56 1 0.428537 3.09968e-05 0.142855
155 1 0.999955 0.142788 0.428585
156 1 0.142724 0.142753 0.428581
157 1 0.285539 0.142673 0.428563
345 1 0.214224 0.500009 0.07145
346 1 0.357074 0.499998 0.0714201
187 1 0.642994 0.213948 0.500033
185 1 0.356884 0.21387 0.500048
46 1 0.428514 0.428536 3.64684e-05
31 1 0.142791 0.285695 3.36633e-05
29 1 0.999986 0.285705 1.1735e-05
27 1 0.857165 0.14284 -7.95512e-06
21 1 0.428538 0.14284 4.22992e-05
11 1 0.714308 3.62565e-05 2.28426e-05
44 1 0.142804 0.428572 3.79744e-05
33 1 0.285628 0.285665 4.59706e-05
15 1 0.999976 0.142845 1.90309e-05
25 1 0.714308 0.142843 -3.13808e-06
23 1 0.571427 0.142844 1.88287e-05
197 1 -4.78212e-05 -2.01614e-05 0.571472
209 1 0.85715 -1.76131e-05 0.57147
48 1 0.714355 0.428554 0.999944
47 1 0.571463 0.428537 0.99996
644 1 0.928594 0.500011 0.928599
207 1 0.71432 -1.57688e-05 0.57148
45 1 0.28563 0.428555 1.00005
43 1 -4.59071e-07 0.428575 1.00001
39 1 0.714335 0.285673 0.999947
37 1 0.571436 0.285672 0.999983
250 1 0.285586 1.82316e-05 0.714428
49 1 0.857193 0.428568 0.99998
258 1 0.85715 5.69647e-07 0.714345
199 1 0.142751 -1.92979e-05 0.571485
301 1 0.42853 4.51887e-05 0.857263
35 1 0.428534 0.285668 1.00003
591 1 0.356969 0.499964 0.786
594 1 0.785793 0.5 0.785817
303 1 0.571432 4.91019e-05 0.857242
690 2 0.49858 0.453308 0.526231
305 1 0.714312 4.03233e-05 0.857217
595 1 0.928598 0.500012 0.785784
198 1 0.0713378 0.0713845 0.642923
543 1 0.499803 0.500389 0.646347
200 1 0.21414 0.0713565 0.642957
589 1 0.071383 0.500013 0.785796
202 1 0.357016 0.071319 0.642994
335 1 0.857161 0.285696 0.857185
204 1 0.499975 0.0713396 0.642982
640 1 0.357041 0.499998 0.928719
206 1 0.642896 0.0713636 0.642953
41 1 0.857178 0.285695 0.999979
208 1 0.785747 0.0713824 0.642921
343 1 0.857179 0.428567 0.857187
210 1 0.928551 0.0713939 0.64291
211 1 0.999942 0.142794 0.571477
212 1 0.0713037 0.214199 0.642943
213 1 0.142711 0.142753 0.571495
214 1 0.214037 0.214081 0.643019
215 1 0.28552 0.142651 0.571524
216 1 0.356864 0.213824 0.643133
217 1 0.428457 0.142535 0.57155
218 1 0.499958 0.213926 0.643086
219 1 0.57146 0.142606 0.57153
220 1 0.64296 0.21405 0.64301
221 1 0.714359 0.142718 0.571495
222 1 0.785805 0.214162 0.642956
223 1 0.857168 0.142785 0.571475
224 1 0.928562 0.214222 0.642922
225 1 0.999938 0.285643 0.571485
226 1 0.071289 0.357081 0.642959
227 1 0.142618 0.285562 0.571524
228 1 0.213873 0.356924 0.643093
229 1 0.28526 0.285259 0.571636
230 1 0.356058 0.355929 0.643926
231 1 0.428253 0.284709 0.571761
232 1 0.499926 0.35651 0.64343
233 1 0.571499 0.28501 0.571657
234 1 0.64326 0.356708 0.643212
235 1 0.714526 0.285427 0.571579
236 1 0.785925 0.357008 0.642998
237 1 0.857229 0.28562 0.571482
238 1 0.928605 0.357094 0.642937
239 1 0.999973 0.428551 0.57149
240 1 0.142579 0.428501 0.571536
241 1 0.284908 0.428209 0.571662
242 1 0.425387 0.424807 0.574926
243 1 0.573544 0.426301 0.573975
244 1 0.71498 0.428383 0.57162
245 1 0.857355 0.428525 0.571502
590 1 0.21417 0.500011 0.785845
247 1 0.0713451 0.071403 0.785798
342 1 0.714339 0.428555 0.857197
249 1 0.214156 0.0713832 0.78585
334 1 0.785757 0.357126 0.928574
251 1 0.357057 0.0713957 0.78586
252 1 0.428512 3.77527e-05 0.714431
253 1 0.499981 0.071417 0.78584
254 1 0.57144 3.95211e-05 0.714409
255 1 0.64288 0.0714246 0.785811
256 1 0.714322 2.21764e-05 0.714373
257 1 0.78574 0.0714181 0.785786
341 1 0.571471 0.428522 0.857261
259 1 0.928554 0.0714123 0.785775
260 1 0.999941 0.142811 0.714358
261 1 0.071323 0.21423 0.785818
262 1 0.142712 0.142772 0.714401
263 1 0.214074 0.214133 0.785929
264 1 0.285526 0.142678 0.714477
265 1 0.357016 0.214134 0.785922
266 1 0.428493 0.142701 0.714464
267 1 0.499985 0.21419 0.785869
268 1 0.571447 0.142754 0.714423
269 1 0.64289 0.21422 0.785821
270 1 0.714339 0.142778 0.714388
271 1 0.785765 0.214225 0.785804
272 1 0.857161 0.142806 0.714358
273 1 0.92856 0.214248 0.785785
274 1 0.999942 0.285665 0.714373
275 1 0.0713601 0.35713 0.785798
276 1 0.142644 0.2856 0.714447
277 1 0.214136 0.357098 0.785866
278 1 0.285257 0.285293 0.714743
279 1 0.356934 0.35696 0.786078
280 1 0.428435 0.28538 0.714624
281 1 0.499991 0.357094 0.785911
282 1 0.571487 0.285528 0.714483
283 1 0.642859 0.357125 0.785789
284 1 0.714431 0.285551 0.714466
285 1 0.785765 0.35711 0.785792
286 1 0.8572 0.285646 0.714379
287 1 0.928578 0.357128 0.785779
288 1 -1.66463e-05 0.42857 0.714362
289 1 0.142749 0.428573 0.714387
290 1 0.285515 0.428536 0.714475
291 1 0.428316 0.428305 0.71483
292 1 0.571376 0.428597 0.714199
293 1 0.714416 0.428512 0.714425
294 1 0.857221 0.428554 0.714376
340 1 0.428448 0.428506 0.857407
296 1 0.0713677 0.0714194 0.928635
339 1 0.285583 0.428544 0.857296
298 1 0.214207 0.0714207 0.92866
299 1 0.285627 3.04798e-05 0.857268
300 1 0.357089 0.0714312 0.92866
338 1 0.14278 0.428571 0.857227
302 1 0.499982 0.0714412 0.928644
337 1 0.999985 0.428574 0.857197
304 1 0.642868 0.0714432 0.928622
336 1 0.928581 0.357138 0.928593
306 1 0.785732 0.0714376 0.928606
297 1 0.142766 1.22135e-05 0.857244
308 1 0.928564 0.0714269 0.928608
309 1 0.999954 0.142834 0.857208
310 1 0.0713705 0.214268 0.928625
311 1 0.142745 0.142807 0.857256
312 1 0.214186 0.214236 0.928669
313 1 0.285615 0.142801 0.857277
314 1 0.35708 0.214238 0.928665
315 1 0.428528 0.14282 0.857258
316 1 0.499983 0.21425 0.928635
317 1 0.57143 0.142834 0.857229
318 1 0.642872 0.214259 0.9286
319 1 0.714307 0.142842 0.857203
320 1 0.785739 0.214266 0.928581
321 1 0.857154 0.142837 0.857195
322 1 0.928567 0.214274 0.928597
323 1 0.999967 0.285701 0.857199
324 1 0.0713851 0.357139 0.928619
325 1 0.14276 0.285683 0.857241
326 1 0.214194 0.357121 0.928654
327 1 0.28557 0.285614 0.857339
328 1 0.357047 0.357084 0.928699
329 1 0.428523 0.285639 0.857291
330 1 0.499982 0.357107 0.928633
331 1 0.571433 0.285663 0.857227
332 1 0.642892 0.357108 0.928575
333 1 0.714308 0.28569 0.857184
540 1 0.0713765 0.500021 0.642939
201 1 0.285585 -5.51716e-07 0.571505
514 1 0.354899 0.499594 0.500008
546 1 0.928644 0.500019 0.642936
183 1 0.0713108 0.214187 0.500035
178 1 0.357023 0.0713196 0.500038
512 1 0.0713012 0.50002 0.500041
177 1 0.214149 0.0713473 0.500038
176 1 0.0713451 0.0713743 0.500034
196 1 0.92862 0.357083 0.500017
194 1 0.643547 0.356349 0.500176
190 1 0.0712709 0.357064 0.500037
189 1 0.928576 0.214205 0.500028
193 1 0.499928 0.355348 0.500056
191 1 0.213821 0.356887 0.500058
188 1 0.785822 0.214142 0.500027
184 1 0.214048 0.214078 0.500042
3 1 0.142798 1.28204e-05 1.00006
182 1 0.928558 0.0713814 0.50003
179 1 0.499976 0.0712931 0.500034
180 1 0.642901 0.0713261 0.500028
181 1 0.785755 0.0713639 0.500029
350 1 0.928618 0.500011 0.0714064
150 1 0.285601 0.99999 0.428582
152 1 0.571447 1.00001 0.428567
511 1 0.857169 0.857176 0.428592
510 1 0.714332 0.857225 0.42859
393 1 0.0714123 0.500015 0.214269
52 1 0.142797 0.999995 0.142868
149 1 0.142765 0.999974 0.428592
352 1 0.0714176 0.642882 0.0714537
443 1 0.214126 0.500054 0.357106
354 1 0.214227 0.64289 0.071472
344 1 0.0714132 0.500012 0.0714405
356 1 0.357068 0.642927 0.0714508
109 1 0.71434 1.00001 0.285676
358 1 0.499994 0.642948 0.0713694
529 1 0.499952 0.786386 0.500062
360 1 0.642956 0.64296 0.0713021
151 1 0.428507 1.00003 0.428573
362 1 0.785818 0.642917 0.0713617
101 1 0.142784 0.999979 0.285716
364 1 0.928622 0.642889 0.0714191
524 1 0.785807 0.642959 0.499999
366 1 0.0714096 0.785744 0.0714631
62 1 0.857182 1.00001 0.142837
368 1 0.214216 0.785771 0.0714784
369 1 0.285623 0.714366 0.000109577
370 1 0.357077 0.785807 0.0714592
371 1 0.428522 0.71439 9.05423e-05
372 1 0.499986 0.785827 0.071426
528 1 0.356941 0.786122 0.500071
374 1 0.642911 0.785834 0.0713918
383 1 0.285641 0.857217 8.50772e-05
376 1 0.78581 0.785816 0.0713825
397 1 0.643119 0.499999 0.213854
378 1 0.928615 0.785759 0.0714314
398 1 0.785915 0.500008 0.214113
380 1 0.0713946 0.928592 0.0714601
522 1 0.499918 0.644851 0.500096
382 1 0.214224 0.928608 0.0714694
520 1 0.214177 0.642934 0.500066
384 1 0.357093 0.928628 0.0714637
379 1 0.999996 0.857174 4.12595e-05
386 1 0.499984 0.92864 0.0714469
99 1 0.999978 0.99998 0.285722
388 1 0.642879 0.92864 0.0714287
389 1 0.714334 0.857231 2.64039e-05
390 1 0.785758 0.928627 0.0714219
50 1 0.999987 0.999995 0.142865
392 1 0.928596 0.928602 0.0714353
442 1 0.0713747 0.500021 0.357131
532 1 0.92858 0.785755 0.50003
517 1 0.786228 0.50002 0.500008
502 1 0.571413 0.714884 0.428359
509 1 0.571463 0.857386 0.428538
508 1 0.428477 0.857454 0.428552
507 1 0.285587 0.857278 0.428579
400 1 2.77965e-05 0.571451 0.142845
401 1 0.0714243 0.642888 0.214286
402 1 0.142822 0.571451 0.142865
403 1 0.214227 0.642898 0.214284
404 1 0.285647 0.571456 0.142844
405 1 0.357053 0.642965 0.214156
406 1 0.428514 0.571492 0.14269
407 1 0.499996 0.643041 0.21393
408 1 0.571536 0.571513 0.14252
409 1 0.643128 0.64312 0.213788
410 1 0.714454 0.571484 0.142654
411 1 0.785914 0.642963 0.214122
412 1 0.857249 0.571461 0.142784
413 1 0.928654 0.6429 0.214247
414 1 2.58006e-05 0.714319 0.142859
415 1 0.0714117 0.785747 0.214296
416 1 0.14282 0.714318 0.14288
417 1 0.21419 0.785796 0.214263
418 1 0.285634 0.714361 0.142849
419 1 0.357038 0.785865 0.214203
420 1 0.428514 0.714414 0.14277
421 1 0.499977 0.785894 0.21416
422 1 0.571474 0.714443 0.142695
423 1 0.642964 0.785926 0.214119
424 1 0.71445 0.714453 0.142664
425 1 0.785913 0.785911 0.214128
426 1 0.857247 0.714356 0.142799
427 1 0.928643 0.785773 0.214262
428 1 1.00001 0.857174 0.142866
429 1 0.0713924 0.928578 0.214299
430 1 0.142802 0.857181 0.142876
431 1 0.214209 0.928602 0.214283
432 1 0.28564 0.857215 0.14286
433 1 0.35708 0.928639 0.214264
434 1 0.42853 0.857242 0.142838
435 1 0.499983 0.928657 0.214246
436 1 0.571442 0.857255 0.142811
437 1 0.642896 0.92866 0.214233
438 1 0.714357 0.857255 0.142798
439 1 0.785784 0.928635 0.214244
440 1 0.857226 0.857223 0.142816
441 1 0.928593 0.928587 0.214287
501 1 0.428355 0.715134 0.42844
5 1 0.285655 1.00003 6.54516e-05
504 1 0.857213 0.714362 0.428581
503 1 0.714378 0.714449 0.428582
506 1 0.142777 0.857181 0.428597
505 1 -2.18348e-05 0.85716 0.428597
521 1 0.356797 0.64353 0.500167
449 1 3.24681e-05 0.571458 0.285696
450 1 0.0714128 0.642898 0.357151
451 1 0.142805 0.571464 0.2857
452 1 0.214189 0.642919 0.357159
453 1 0.28563 0.571485 0.285655
454 1 0.356711 0.643384 0.35678
455 1 0.428517 0.571506 0.28527
456 1 0.499843 0.643787 0.35618
457 1 0.571813 0.571729 0.284688
458 1 0.644126 0.644115 0.355754
459 1 0.714667 0.57154 0.285339
460 1 0.786022 0.642992 0.357019
461 1 0.857305 0.571468 0.285624
462 1 0.928661 0.642912 0.357125
463 1 1.00003 0.714327 0.285712
464 1 0.0713979 0.785747 0.357163
465 1 0.142803 0.714331 0.285722
466 1 0.214183 0.7858 0.357143
467 1 0.285522 0.714483 0.285589
468 1 0.356978 0.786012 0.357039
469 1 0.428395 0.714618 0.28544
470 1 0.49998 0.786116 0.356974
471 1 0.571555 0.714689 0.285317
472 1 0.642996 0.786081 0.356987
473 1 0.714771 0.714777 0.285243
474 1 0.785807 0.785815 0.357128
475 1 0.857309 0.714388 0.285642
476 1 0.928607 0.785756 0.357153
477 1 -2.09537e-06 0.857163 0.285727
478 1 0.0713789 0.928571 0.35716
479 1 0.142794 0.857175 0.285724
480 1 0.214192 0.928598 0.357146
481 1 0.285606 0.857253 0.285676
482 1 0.357051 0.92867 0.357117
483 1 0.428508 0.857317 0.285641
484 1 0.499984 0.928702 0.357106
485 1 0.571463 0.857339 0.285609
486 1 0.642906 0.92867 0.357108
487 1 0.714396 0.857317 0.285628
488 1 0.785759 0.928595 0.357145
489 1 0.857201 0.857193 0.285706
490 1 0.928576 0.928573 0.357158
491 1 1.00001 0.571469 0.428577
492 1 0.142767 0.57148 0.428575
493 1 0.285686 0.571496 0.428653
494 1 0.426405 0.573927 0.425927
495 1 0.574793 0.575209 0.423324
496 1 0.714539 0.571519 0.428487
497 1 0.85729 0.571498 0.428543
498 1 5.68053e-06 0.714325 0.428595
499 1 0.142791 0.714343 0.428606
500 1 0.285549 0.714505 0.428574
399 1 0.928651 0.500013 0.214231
1 1 0.99998 1.00001 3.3432e-05
523 1 0.642781 0.643024 0.500107
448 1 0.928647 0.500017 0.357115
447 1 0.78597 0.500013 0.357038
446 1 0.643603 0.499979 0.356384
391 1 0.857192 0.857205 2.04998e-05
387 1 0.571438 0.85724 4.9848e-05
385 1 0.428532 0.857235 7.44974e-05
381 1 0.142795 0.857188 7.31853e-05
377 1 0.857205 0.714337 9.93687e-06
367 1 0.142806 0.714321 6.71499e-05
365 1 1.00001 0.714315 3.52391e-05
359 1 0.571471 0.571482 7.05361e-06
357 1 0.428512 0.571477 8.81367e-05
351 1 8.22328e-06 0.571447 2.34762e-05
530 1 0.642851 0.785861 0.500051
353 1 0.142812 0.571447 5.18638e-05
355 1 0.285635 0.571455 7.92353e-05
692 3 0.525475 0.532672 0.496757
375 1 0.714373 0.714385 4.50107e-06
13 1 0.857161 1.00002 1.00002
307 1 0.857156 1.00002 0.8572
544 1 0.643286 0.499964 0.643182
515 1 0.928579 0.928608 0.928621
246 1 0.999951 0.999993 0.714347
542 1 0.357035 0.499987 0.642945
686 2 0.546671 0.500899 0.53106
541 1 0.214164 0.500053 0.642952
295 1 0.999963 1.00001 0.857205
373 1 0.571456 0.7144 1.00004
203 1 0.428499 1.00002 0.571519
639 1 0.214204 0.500008 0.928659
545 1 0.78597 0.500024 0.643015
363 1 0.857203 0.571452 0.999993
361 1 0.714367 0.571462 0.999969
248 1 0.142748 0.999996 0.714378
643 1 0.785774 0.500006 0.928589
638 1 0.0713972 0.500011 0.928623
670 1 0.78579 0.785807 0.928639
205 1 0.571444 1 0.571506
669 1 0.714403 0.714428 0.857324
592 1 0.499959 0.500023 0.786558
668 1 0.642908 0.785839 0.928673
667 1 0.571476 0.714473 0.857395
666 1 0.499984 0.785846 0.928712
537 1 0.642886 0.928623 0.500036
593 1 0.642893 0.499975 0.78588
665 1 0.42849 0.714478 0.857442
685 1 0.857194 0.857219 0.857224
693 3 0.470791 0.500409 0.528831
684 1 0.785748 0.928629 0.928622
641 1 0.499986 0.500001 0.928772
683 1 0.714343 0.857252 0.85725
682 1 0.642879 0.928647 0.928643
681 1 0.571446 0.857278 0.857291
547 1 1.00001 0.571471 0.571488
548 1 0.0713701 0.642912 0.642941
549 1 0.142751 0.571494 0.57153
550 1 0.214053 0.642991 0.643014
551 1 0.285652 0.571614 0.571498
552 1 0.356136 0.644122 0.644033
553 1 0.425748 0.575294 0.575512
554 1 0.499852 0.643889 0.644087
555 1 0.573891 0.574478 0.575922
556 1 0.643804 0.64381 0.643915
557 1 0.714933 0.57168 0.571735
558 1 0.786023 0.643055 0.643065
559 1 0.857347 0.571508 0.571506
560 1 0.928648 0.642926 0.642939
561 1 -1.3823e-05 0.714331 0.571473
562 1 0.0713561 0.785769 0.642925
563 1 0.142751 0.714369 0.571495
564 1 0.214107 0.785872 0.642995
565 1 0.28545 0.714629 0.571591
566 1 0.356873 0.786236 0.643195
567 1 0.428261 0.715435 0.571874
568 1 0.499973 0.786193 0.643184
569 1 0.571295 0.71478 0.571716
570 1 0.642941 0.786015 0.643048
571 1 0.714357 0.714457 0.571491
572 1 0.785779 0.785821 0.64293
573 1 0.857195 0.714359 0.571464
574 1 0.928579 0.785764 0.642908
575 1 0.999964 0.857167 0.571471
576 1 0.0713525 0.928586 0.642919
577 1 0.142756 0.857197 0.571489
578 1 0.214154 0.92863 0.642957
579 1 0.285553 0.857328 0.571532
580 1 0.357017 0.928727 0.643009
581 1 0.428461 0.857529 0.571579
582 1 0.499982 0.928722 0.642999
583 1 0.57145 0.857374 0.571549
584 1 0.642895 0.928664 0.64296
585 1 0.71432 0.857227 0.571481
586 1 0.785742 0.928604 0.642914
587 1 0.857158 0.857179 0.571468
588 1 0.928556 0.928583 0.642905
680 1 0.499983 0.928651 0.928667
664 1 0.357059 0.785838 0.928733
679 1 0.428519 0.857282 0.857317
678 1 0.357083 0.928643 0.928681
677 1 0.285598 0.857268 0.857318
676 1 0.214204 0.928624 0.928676
675 1 0.142753 0.857217 0.85727
596 1 4.26033e-06 0.57146 0.714367
597 1 0.0713816 0.642893 0.785806
598 1 0.14277 0.571462 0.7144
599 1 0.214143 0.642925 0.785882
600 1 0.285546 0.571486 0.714505
601 1 0.356839 0.643183 0.786281
602 1 0.428128 0.571927 0.715624
603 1 0.499999 0.643131 0.786271
604 1 0.571668 0.571738 0.715088
605 1 0.643036 0.643083 0.786131
606 1 0.714508 0.571502 0.71456
607 1 0.785836 0.642942 0.785866
608 1 0.857255 0.571476 0.714401
609 1 0.928612 0.642901 0.785798
610 1 0.999991 0.714343 0.714368
611 1 0.0713566 0.785775 0.785815
612 1 0.142709 0.71438 0.714419
613 1 0.214079 0.785894 0.785947
614 1 0.285271 0.714739 0.714779
615 1 0.356977 0.785978 0.786019
616 1 0.428362 0.714819 0.714858
617 1 0.499986 0.785958 0.785995
618 1 0.571554 0.714701 0.714749
619 1 0.642948 0.785922 0.785933
620 1 0.71463 0.714669 0.714688
621 1 0.785851 0.785877 0.785882
622 1 0.857272 0.714402 0.714413
623 1 0.928605 0.785782 0.785801
624 1 0.999963 0.857179 0.71435
625 1 0.0713561 0.928598 0.785797
626 1 0.14274 0.857214 0.714391
627 1 0.214157 0.928646 0.785858
628 1 0.285527 0.857361 0.714501
629 1 0.357051 0.928682 0.785883
630 1 0.428489 0.8574 0.71452
631 1 0.499983 0.928685 0.78587
632 1 0.571464 0.857357 0.714486
633 1 0.642893 0.928669 0.785838
634 1 0.714361 0.857293 0.714413
635 1 0.785756 0.928637 0.785799
636 1 0.857173 0.857202 0.714352
637 1 0.928565 0.9286 0.785776
674 1 0.0713767 0.928602 0.928646
663 1 0.285532 0.714456 0.85742
662 1 0.214179 0.785803 0.928713
673 1 0.999979 0.857187 0.857219
672 1 0.928598 0.78576 0.928624
671 1 0.857209 0.71435 0.857226
536 1 0.49998 0.928747 0.500043
645 1 0.999995 0.571449 0.857205
646 1 0.0713989 0.642882 0.928635
647 1 0.142788 0.571451 0.857238
648 1 0.214199 0.642898 0.928684
649 1 0.285592 0.571463 0.857322
650 1 0.357024 0.642966 0.928795
651 1 0.428435 0.571545 0.857598
652 1 0.499988 0.64297 0.928768
653 1 0.571495 0.571539 0.857466
654 1 0.642935 0.642959 0.928692
655 1 0.71436 0.571457 0.857254
656 1 0.785787 0.642906 0.928616
657 1 0.857194 0.571453 0.857205
658 1 0.928601 0.642887 0.928612
659 1 0.999994 0.714324 0.857216
660 1 0.0713881 0.785753 0.928647
661 1 0.14277 0.714339 0.857258
535 1 0.357028 0.928701 0.500047
642 1 0.642906 0.500002 0.92861
538 1 0.785742 0.928587 0.500031
539 1 0.928561 0.928572 0.500031
531 1 0.785756 0.785795 0.500031
525 1 0.928616 0.642911 0.500022
534 1 0.214171 0.928609 0.500041
533 1 0.0713628 0.928574 0.500036
527 1 0.214154 0.785833 0.500047
526 1 0.0713749 0.785755 0.500038
519 1 0.0713983 0.642896 0.500042
689 2 0.473601 0.548433 0.502315
518 1 0.928679 0.500017 0.500018
