ITEM: TIMESTEP
118
ITEM: NUMBER OF ATOMS
693
ITEM: BOX BOUNDS pp pp pp
0.0000000000000000e+00 2.2013900999999997e+01
0.0000000000000000e+00 2.2013900999999997e+01
0.0000000000000000e+00 2.2013900999999997e+01
ITEM: ATOMS id type xs ys zs
1 1 7.37584e-05 5.55965e-05 0.000101027
2 1 0.0713372 0.0714143 0.0713856
3 1 0.142809 1.22151e-05 9.09064e-06
4 1 0.214155 0.0713589 0.0713223
175 1 0.857261 0.428749 0.428525
6 1 0.357062 0.0713504 0.0713352
174 1 0.715362 0.427898 0.427064
8 1 0.499984 0.0713726 0.0713948
194 1 0.644483 0.356258 0.497368
10 1 0.642901 0.0714088 0.0714711
173 1 0.57171 0.427425 0.425006
12 1 0.785799 0.0714349 0.0715178
193 1 0.499659 0.354451 0.499506
14 1 0.928624 0.0714446 0.0714983
192 1 0.35305 0.352874 0.499973
16 1 0.071342 0.214272 0.0714082
17 1 0.142721 0.142747 4.15921e-05
18 1 0.214043 0.214118 0.0712704
514 1 0.355144 0.499273 0.495753
20 1 0.357004 0.214098 0.0712761
190 1 0.0709952 0.357084 0.499955
22 1 0.499969 0.214123 0.0713507
443 1 0.214209 0.499992 0.356898
24 1 0.642925 0.214166 0.0714626
189 1 0.92854 0.214237 0.499965
26 1 0.78587 0.214205 0.0715587
27 1 0.857345 0.142764 0.00026562
28 1 0.928647 0.214284 0.0715086
29 1 8.0125e-05 0.285718 0.000118601
30 1 0.0714049 0.357175 0.0714092
188 1 0.785994 0.214066 0.499878
32 1 0.21416 0.357158 0.0713489
33 1 0.2855 0.28554 5.85808e-05
34 1 0.356976 0.357043 0.0712109
35 1 0.428493 0.285539 3.06596e-05
36 1 0.499942 0.357055 0.0712396
37 1 0.571457 0.285547 0.000134674
38 1 0.642951 0.357079 0.0713608
39 1 0.714504 0.285561 0.000341307
40 1 0.785878 0.357146 0.0714876
187 1 0.642995 0.214006 0.49995
42 1 0.928683 0.357172 0.0714797
184 1 0.213484 0.213603 0.499917
183 1 0.0710312 0.214103 0.49995
52 1 0.142689 4.81996e-05 0.142663
444 1 0.359728 0.49991 0.359732
394 1 0.214078 0.500037 0.214017
48 1 0.714481 0.428586 0.000155441
181 1 0.785836 0.0714619 0.49996
50 1 0.999954 9.46816e-05 0.142771
51 1 0.0712131 0.0714184 0.214111
172 1 0.421619 0.413059 0.424758
53 1 0.213993 0.0712802 0.213989
171 1 0.283926 0.427025 0.427545
55 1 0.357002 0.0712891 0.214029
56 1 0.428526 3.1833e-05 0.142695
57 1 0.499979 0.0713573 0.214099
58 1 0.571444 6.49669e-05 0.142761
59 1 0.642884 0.0714317 0.21418
60 1 0.714334 0.000100167 0.142818
61 1 0.785742 0.0714869 0.214221
170 1 0.142225 0.42848 0.428308
63 1 0.928539 0.0714899 0.214194
64 1 0.999905 0.142848 0.142784
65 1 0.0711053 0.214178 0.214062
66 1 0.142565 0.142701 0.142617
67 1 0.213617 0.21377 0.213653
68 1 0.285495 0.142647 0.142587
69 1 0.356826 0.213806 0.213757
70 1 0.428491 0.14268 0.142655
71 1 0.499963 0.213965 0.213907
72 1 0.571444 0.142747 0.142746
73 1 0.642981 0.21407 0.214008
74 1 0.714363 0.142795 0.14282
75 1 0.785838 0.214198 0.21413
76 1 0.857201 0.142844 0.142856
77 1 0.928537 0.214272 0.214183
78 1 0.999959 0.285742 0.142808
79 1 0.0712709 0.357175 0.214136
80 1 0.142644 0.285686 0.142681
81 1 0.213969 0.357153 0.213979
82 1 0.28533 0.285426 0.142345
83 1 0.356581 0.356647 0.213236
84 1 0.428432 0.285448 0.142457
85 1 0.499886 0.35687 0.21354
86 1 0.571444 0.285545 0.142568
87 1 0.64309 0.356911 0.213638
88 1 0.71444 0.285605 0.142708
89 1 0.785891 0.357126 0.214035
90 1 0.857245 0.285712 0.142826
91 1 0.928604 0.357179 0.214179
92 1 1.00002 0.428621 0.142784
93 1 0.142743 0.428611 0.142711
94 1 0.28557 0.428647 0.142703
95 1 0.428373 0.42851 0.142464
96 1 0.571471 0.428558 0.142338
97 1 0.714436 0.428614 0.14261
98 1 0.857293 0.428617 0.14276
169 1 0.999804 0.428656 0.428506
100 1 0.0711647 0.0714153 0.356992
101 1 0.142583 7.58456e-05 0.285475
102 1 0.213903 0.0712313 0.356892
103 1 0.28549 3.69465e-05 0.285439
104 1 0.356942 0.0711377 0.356916
168 1 0.857222 0.285723 0.428511
106 1 0.499971 0.0713218 0.356983
167 1 0.714917 0.285054 0.427858
108 1 0.642874 0.071458 0.357039
166 1 0.571453 0.285149 0.428104
110 1 0.785757 0.0715124 0.357038
111 1 0.85718 0.000197766 0.285577
112 1 0.928503 0.0715052 0.357044
113 1 0.999805 0.142843 0.285584
114 1 0.070996 0.214134 0.356963
115 1 0.142407 0.142615 0.285408
116 1 0.213413 0.213559 0.356615
117 1 0.285242 0.142299 0.28525
118 1 0.356425 0.213 0.356477
119 1 0.428442 0.142468 0.285377
120 1 0.49989 0.213727 0.356777
121 1 0.571432 0.142671 0.2855
122 1 0.642922 0.214031 0.356868
123 1 0.714333 0.142801 0.285579
124 1 0.785929 0.214073 0.356857
125 1 0.857177 0.142841 0.28558
126 1 0.928479 0.214286 0.357052
127 1 0.999778 0.285693 0.285569
128 1 0.0709557 0.35708 0.356951
129 1 0.142147 0.285393 0.285273
130 1 0.212894 0.356449 0.356421
131 1 0.284148 0.284272 0.284179
132 1 0.3533 0.35341 0.353435
133 1 0.428246 0.284769 0.284788
134 1 0.500559 0.35575 0.355197
135 1 0.571648 0.285125 0.284935
136 1 0.643403 0.356536 0.355812
137 1 0.714582 0.285453 0.285222
138 1 0.78617 0.356892 0.356635
139 1 0.857268 0.28564 0.285508
140 1 0.928525 0.357198 0.357048
141 1 0.999946 0.428622 0.28556
142 1 0.14262 0.428625 0.28548
143 1 0.285547 0.428932 0.28555
144 1 0.427842 0.427568 0.284817
145 1 0.571968 0.428247 0.284177
146 1 0.714606 0.428628 0.285067
147 1 0.857334 0.428605 0.285467
148 1 0.999889 0.000125916 0.428474
165 1 0.427522 0.284136 0.427689
150 1 0.285446 4.1199e-05 0.428407
151 1 0.428545 2.66136e-05 0.428461
152 1 0.571462 0.00012006 0.428487
153 1 0.714368 0.00023676 0.428488
164 1 0.28399 0.283983 0.427739
155 1 0.999803 0.142826 0.428485
156 1 0.142393 0.142598 0.428417
157 1 0.28516 0.142179 0.428326
158 1 0.428413 0.142325 0.428399
159 1 0.571435 0.142676 0.428478
160 1 0.714367 0.142758 0.428483
161 1 0.85718 0.142848 0.428481
162 1 0.999727 0.28569 0.42851
163 1 0.142068 0.285332 0.428372
345 1 0.214215 0.500041 0.071321
177 1 0.213914 0.0712166 0.499929
178 1 0.35694 0.0711056 0.499928
393 1 0.0713572 0.500052 0.214112
344 1 0.0714558 0.500051 0.0713792
350 1 0.928724 0.500064 0.0714329
154 1 0.857196 0.000182775 0.428487
149 1 0.14257 7.00135e-05 0.428434
109 1 0.714319 0.000170347 0.285594
107 1 0.571436 0.000110183 0.285555
105 1 0.42851 5.35986e-05 0.285488
99 1 0.999883 0.000127378 0.285574
62 1 0.857183 0.00011627 0.142829
54 1 0.285591 2.1541e-05 0.142653
176 1 0.0711995 0.0713951 0.499947
182 1 0.928562 0.0714788 0.499952
185 1 0.356429 0.212908 0.499864
513 1 0.213762 0.499931 0.499608
191 1 0.212995 0.356541 0.499956
49 1 0.857379 0.428605 0.000172675
43 1 0.000122351 0.428611 8.34055e-05
41 1 0.857363 0.28567 0.000244744
31 1 0.142763 0.285686 5.34597e-05
25 1 0.714412 0.142743 0.000228193
13 1 0.857287 6.69144e-05 0.000170844
15 1 5.30306e-05 0.142833 0.00012937
11 1 0.714382 5.36292e-05 0.000148258
21 1 0.428508 0.142703 4.73326e-05
23 1 0.571451 0.14272 0.00013521
644 1 0.928859 0.500055 0.928783
643 1 0.786071 0.500068 0.92891
639 1 0.21423 0.500037 0.928614
638 1 0.0715279 0.500046 0.928654
180 1 0.642927 0.0714532 0.500006
594 1 0.786657 0.5 0.786552
642 1 0.643037 0.500011 0.92873
592 1 0.5 0.499378 0.786231
546 1 0.928851 0.500062 0.642967
641 1 0.500062 0.499967 0.928522
186 1 0.499959 0.213713 0.500056
545 1 0.786484 0.500024 0.643189
544 1 0.64534 0.50013 0.645128
543 1 0.497718 0.494771 0.661626
640 1 0.357062 0.500019 0.928613
595 1 0.929028 0.500042 0.786017
337 1 0.000213671 0.428589 0.857341
336 1 0.928833 0.357124 0.928828
335 1 0.857695 0.285468 0.857698
195 1 0.78599 0.357193 0.500053
196 1 0.928503 0.357199 0.500028
693 3 0.506004 0.442048 0.540699
198 1 0.0712908 0.0713723 0.642926
689 3 0.564499 0.477427 0.511493
200 1 0.213996 0.071208 0.642959
201 1 0.285489 2.11451e-06 0.571421
202 1 0.356982 0.071117 0.642931
203 1 0.428563 1.03689e-05 0.571417
204 1 0.500048 0.0712697 0.642947
205 1 0.571522 8.71119e-05 0.571444
206 1 0.64304 0.0712244 0.643009
207 1 0.714474 0.000139506 0.57145
208 1 0.785979 0.0713327 0.642961
343 1 0.857661 0.428538 0.857611
210 1 0.928677 0.0714237 0.642925
211 1 0.999896 0.142785 0.571439
212 1 0.0711661 0.214092 0.642962
213 1 0.142461 0.142586 0.571461
214 1 0.213566 0.213631 0.643163
215 1 0.285206 0.142206 0.571488
216 1 0.356542 0.213155 0.643126
217 1 0.428428 0.142322 0.571491
218 1 0.499909 0.213706 0.643073
219 1 0.571576 0.142656 0.571595
220 1 0.643643 0.213111 0.643636
221 1 0.714555 0.142587 0.571473
222 1 0.78634 0.213734 0.643084
223 1 0.857318 0.142751 0.571433
224 1 0.928748 0.214139 0.642956
225 1 0.999848 0.285638 0.57145
226 1 0.0712155 0.3571 0.642875
227 1 0.142152 0.28532 0.571487
228 1 0.213405 0.356766 0.642924
229 1 0.284105 0.284149 0.571935
230 1 0.354286 0.354195 0.644768
231 1 0.427666 0.284336 0.571553
232 1 0.49738 0.355949 0.644207
233 1 0.572456 0.285109 0.572492
234 1 0.649572 0.350648 0.649354
235 1 0.715072 0.284865 0.571187
236 1 0.78688 0.356423 0.643651
237 1 0.857418 0.285548 0.571487
238 1 0.928827 0.357111 0.642972
239 1 0.999909 0.428629 0.57143
240 1 0.142581 0.428545 0.571359
241 1 0.285513 0.42822 0.571294
242 1 0.41682 0.423329 0.571811
243 1 0.584211 0.41124 0.5818
244 1 0.713897 0.427197 0.572987
245 1 0.857127 0.428606 0.571568
342 1 0.714826 0.428495 0.857846
247 1 0.0713886 0.0713627 0.78587
248 1 0.142727 1.29371e-05 0.714401
249 1 0.214105 0.0712391 0.785885
593 1 0.643329 0.499953 0.786383
251 1 0.357029 0.0711735 0.785883
44 1 0.142833 0.428602 1.00001
253 1 0.500006 0.0712234 0.785953
542 1 0.357062 0.499715 0.64395
255 1 0.643001 0.0712262 0.786046
197 1 0.999965 0.000103525 0.571428
257 1 0.786094 0.0711893 0.786115
258 1 0.857398 0.000103696 0.714446
259 1 0.928786 0.0713716 0.785932
260 1 3.56688e-05 0.142752 0.714429
261 1 0.0713528 0.214137 0.785918
262 1 0.142572 0.142602 0.714478
263 1 0.213768 0.213776 0.786151
264 1 0.285351 0.142323 0.714532
265 1 0.356672 0.213482 0.786238
266 1 0.428466 0.142295 0.714516
267 1 0.499898 0.213616 0.786258
268 1 0.571501 0.142379 0.714625
269 1 0.643156 0.213467 0.786529
270 1 0.714814 0.142066 0.714831
271 1 0.786855 0.213247 0.78688
272 1 0.857519 0.142603 0.714536
273 1 0.928995 0.214053 0.786073
274 1 0.00012211 0.285624 0.714437
275 1 0.071386 0.357104 0.785867
276 1 0.142427 0.285469 0.714471
277 1 0.213711 0.356855 0.786046
278 1 0.284466 0.284498 0.715212
279 1 0.355725 0.355696 0.787192
280 1 0.427781 0.284047 0.715195
281 1 0.499939 0.356452 0.786354
282 1 0.571309 0.284321 0.715242
283 1 0.644257 0.355709 0.787753
284 1 0.717042 0.282994 0.717127
285 1 0.786781 0.356719 0.786723
286 1 0.85805 0.285286 0.714822
287 1 0.928997 0.357076 0.786038
288 1 0.000159859 0.428596 0.714407
289 1 0.142575 0.428561 0.714349
290 1 0.284546 0.428201 0.714682
291 1 0.424652 0.424864 0.716903
292 1 0.574751 0.42504 0.71582
293 1 0.716154 0.428198 0.715947
294 1 0.857839 0.428522 0.714709
341 1 0.571733 0.428178 0.857611
296 1 0.071428 0.071377 0.92871
340 1 0.428265 0.428159 0.857767
298 1 0.214173 0.0713052 0.928677
199 1 0.142632 4.39257e-05 0.571433
300 1 0.357062 0.0712999 0.928673
339 1 0.285426 0.428505 0.857379
302 1 0.499986 0.0713141 0.928734
338 1 0.142786 0.428578 0.857263
304 1 0.642946 0.0713368 0.92882
209 1 0.857299 0.000150464 0.571429
306 1 0.785926 0.0713457 0.928885
307 1 0.857453 7.37109e-05 0.857471
308 1 0.92879 0.0713781 0.928844
309 1 0.000143008 0.142749 0.857385
310 1 0.0714045 0.214213 0.928739
311 1 0.142687 0.142656 0.857364
312 1 0.21402 0.21403 0.928803
313 1 0.28547 0.142504 0.857406
314 1 0.356986 0.214011 0.928774
315 1 0.428467 0.142533 0.857407
316 1 0.499971 0.21401 0.928829
317 1 0.57147 0.142534 0.857516
318 1 0.642989 0.214007 0.928988
319 1 0.714575 0.142494 0.857654
320 1 0.786129 0.213974 0.929157
321 1 0.857634 0.142518 0.857676
322 1 0.928818 0.214188 0.928872
323 1 0.00015882 0.285649 0.857376
324 1 0.0714642 0.357144 0.928696
325 1 0.14264 0.285561 0.857375
326 1 0.214122 0.357084 0.928717
327 1 0.285115 0.285115 0.857778
328 1 0.356889 0.35689 0.92893
329 1 0.428414 0.285227 0.85759
330 1 0.500007 0.356918 0.928786
331 1 0.57151 0.285206 0.857719
332 1 0.643111 0.356908 0.929146
333 1 0.715049 0.285014 0.858351
334 1 0.786094 0.357058 0.929042
246 1 6.1985e-05 7.11913e-05 0.714397
295 1 0.000125222 5.10748e-05 0.857318
19 1 0.285582 0.142703 1.00002
45 1 0.285615 0.428586 1.00001
46 1 0.428507 0.428533 0.999983
47 1 0.571473 0.428535 0.999976
179 1 0.500023 0.0713146 0.499988
538 1 0.785916 0.928903 0.49995
511 1 0.85736 0.857558 0.42842
346 1 0.357056 0.500036 0.0713259
347 1 0.499962 0.500052 0.0710862
510 1 0.714634 0.857918 0.428244
509 1 0.571485 0.857601 0.42835
537 1 0.643016 0.928941 0.499944
536 1 0.500082 0.928748 0.499951
352 1 0.0714724 0.642924 0.0713467
535 1 0.356991 0.928926 0.49989
354 1 0.214236 0.642902 0.0712628
348 1 0.642958 0.500067 0.071213
356 1 0.357051 0.64298 0.0710563
349 1 0.785906 0.500076 0.071384
358 1 0.49998 0.642982 0.0711086
396 1 0.499797 0.50011 0.213254
360 1 0.642963 0.643022 0.0711717
361 1 0.714476 0.571529 3.60241e-05
362 1 0.785921 0.643006 0.0713426
532 1 0.928767 0.786088 0.499934
364 1 0.928743 0.642963 0.0713989
365 1 0.000160697 0.714382 4.10969e-05
366 1 0.071434 0.785821 0.07132
530 1 0.643442 0.786823 0.49957
368 1 0.214149 0.7859 0.0711459
397 1 0.643082 0.500136 0.213672
370 1 0.357088 0.78589 0.0711545
398 1 0.785993 0.500096 0.213908
372 1 0.500008 0.785903 0.0712174
442 1 0.0712854 0.500049 0.356935
374 1 0.642942 0.78593 0.0713135
375 1 0.714483 0.714487 0.000125892
376 1 0.785904 0.78594 0.0713957
528 1 0.356555 0.787104 0.499745
378 1 0.928725 0.785869 0.0713985
526 1 0.0711969 0.78607 0.499917
380 1 0.0713808 0.928683 0.0713405
515 1 0.475296 0.499642 0.466809
382 1 0.214198 0.928665 0.0712761
445 1 0.500254 0.500326 0.352174
384 1 0.357091 0.928659 0.071289
525 1 0.928916 0.643155 0.499953
386 1 0.499999 0.928675 0.0713442
524 1 0.787052 0.643732 0.499631
388 1 0.642911 0.928705 0.0714165
389 1 0.714428 0.857347 0.000135427
390 1 0.785818 0.928728 0.0714615
391 1 0.857376 0.857355 0.000177151
392 1 0.92866 0.928717 0.0714446
523 1 0.647021 0.646615 0.49381
522 1 0.499569 0.644749 0.499842
395 1 0.357107 0.500038 0.214378
508 1 0.428529 0.857681 0.428361
507 1 0.285231 0.857919 0.428261
506 1 0.142485 0.857545 0.428375
399 1 0.928685 0.500073 0.214119
400 1 6.61122e-05 0.571504 0.142745
401 1 0.0713605 0.642944 0.214072
402 1 0.14278 0.571479 0.142678
403 1 0.214041 0.642913 0.213925
404 1 0.285603 0.571426 0.142664
405 1 0.356623 0.643434 0.213158
406 1 0.428393 0.571596 0.142398
407 1 0.499961 0.643232 0.213556
408 1 0.571495 0.571594 0.1423
409 1 0.643147 0.643317 0.21345
410 1 0.714476 0.57158 0.142485
411 1 0.786048 0.643147 0.213784
412 1 0.857341 0.571543 0.142691
413 1 0.928725 0.643009 0.214063
414 1 1.00006 0.714406 0.142712
415 1 0.0712234 0.785977 0.213967
416 1 0.142734 0.714399 0.142599
417 1 0.213709 0.786308 0.213561
418 1 0.285413 0.71462 0.14223
419 1 0.35692 0.786231 0.213699
420 1 0.428502 0.71459 0.142372
421 1 0.499997 0.78615 0.2138
422 1 0.571471 0.714567 0.142429
423 1 0.643021 0.786162 0.21383
424 1 0.714492 0.714585 0.142491
425 1 0.785982 0.786124 0.213875
426 1 0.857352 0.714498 0.142652
427 1 0.928696 0.785997 0.214018
428 1 0.99999 0.85733 0.142695
429 1 0.0712649 0.928762 0.214059
430 1 0.142642 0.857388 0.142536
431 1 0.214033 0.928806 0.213951
432 1 0.285564 0.857385 0.142517
433 1 0.357029 0.928777 0.213994
434 1 0.428528 0.857372 0.142575
435 1 0.499991 0.928772 0.21405
436 1 0.571463 0.857377 0.142644
437 1 0.642902 0.928796 0.214114
438 1 0.714397 0.857403 0.142695
439 1 0.785789 0.928816 0.214138
440 1 0.857277 0.857389 0.14272
441 1 0.928608 0.928804 0.214117
505 1 0.999938 0.857433 0.428441
504 1 0.857814 0.714865 0.428207
521 1 0.352526 0.647719 0.499061
503 1 0.716188 0.716461 0.426693
502 1 0.571298 0.71527 0.427789
501 1 0.427757 0.715734 0.427649
500 1 0.283869 0.716254 0.427398
449 1 1.00003 0.57152 0.285512
450 1 0.0711073 0.643051 0.356884
451 1 0.142674 0.571446 0.285454
452 1 0.213009 0.643552 0.35638
453 1 0.285595 0.57109 0.28555
454 1 0.353415 0.646588 0.353411
455 1 0.427807 0.572588 0.284765
456 1 0.500865 0.644104 0.355537
457 1 0.572089 0.572028 0.284342
458 1 0.643659 0.643905 0.355362
459 1 0.714807 0.571729 0.284783
460 1 0.786764 0.643732 0.356088
461 1 0.857469 0.571601 0.285356
462 1 0.928821 0.64309 0.356884
463 1 0.999965 0.714523 0.285442
464 1 0.0711389 0.786074 0.356864
465 1 0.142269 0.714709 0.285199
466 1 0.213451 0.786599 0.356472
467 1 0.284248 0.715779 0.284089
468 1 0.356543 0.787037 0.356419
469 1 0.428399 0.715231 0.284806
470 1 0.499916 0.786434 0.356633
471 1 0.571675 0.715092 0.284801
472 1 0.643026 0.786413 0.356581
473 1 0.714801 0.714973 0.28481
474 1 0.786452 0.786688 0.356363
475 1 0.85757 0.714756 0.285208
476 1 0.928775 0.786106 0.356863
477 1 0.999943 0.857427 0.285475
478 1 0.0712202 0.928786 0.35696
479 1 0.14248 0.857543 0.285323
480 1 0.213941 0.928893 0.356858
481 1 0.285314 0.857771 0.285194
482 1 0.356989 0.928921 0.356893
483 1 0.428483 0.857627 0.285307
484 1 0.499989 0.928842 0.356931
485 1 0.571457 0.85756 0.285381
486 1 0.64291 0.928891 0.356961
487 1 0.714428 0.857577 0.285396
488 1 0.785875 0.928991 0.356927
489 1 0.857389 0.857605 0.285365
490 1 0.928585 0.928824 0.356996
491 1 0.999961 0.571516 0.428463
492 1 0.142321 0.571552 0.428283
493 1 0.284082 0.572715 0.427561
494 1 0.421568 0.586506 0.424785
495 1 0.572754 0.572563 0.426441
496 1 0.716632 0.573139 0.426162
497 1 0.857692 0.571632 0.428373
498 1 0.999988 0.714578 0.428407
499 1 0.14216 0.714806 0.428274
520 1 0.213029 0.643522 0.499801
512 1 0.0712118 0.500042 0.499925
516 1 0.65426 0.502491 0.498827
519 1 0.0711676 0.64306 0.499905
9 1 0.571456 1.00002 8.01223e-05
448 1 0.928715 0.500087 0.356948
447 1 0.786323 0.500101 0.356561
446 1 0.643535 0.500315 0.356558
7 1 0.428541 0.999994 9.40495e-06
379 1 0.000125617 0.857267 6.19127e-05
527 1 0.213603 0.786469 0.499867
529 1 0.500164 0.786117 0.500016
531 1 0.786227 0.786357 0.499929
533 1 0.0712631 0.928777 0.499935
534 1 0.213967 0.928857 0.499911
539 1 0.928643 0.928821 0.499936
377 1 0.857406 0.714451 0.000133023
363 1 0.857403 0.571522 0.000124186
351 1 0.000157185 0.571496 5.07939e-05
303 1 0.571485 1.00002 0.857375
692 3 0.531145 0.546976 0.522892
691 3 0.556059 0.501784 0.586609
690 3 0.505166 0.563595 0.596991
301 1 0.428537 0.999978 0.857286
688 3 0.47691 0.502956 0.565774
687 2 0.532243 0.500116 0.546026
297 1 0.142807 0.999997 0.857267
305 1 0.714479 1.00006 0.857451
5 1 0.285652 0.999988 0.999979
387 1 0.571472 0.857305 1.00003
385 1 0.428558 0.857266 0.999943
299 1 0.285634 0.999954 0.857251
677 1 0.285616 0.85735 0.857275
676 1 0.214238 0.928642 0.928624
256 1 0.714546 1.00009 0.714517
675 1 0.14282 0.857325 0.857295
254 1 0.57153 1.00007 0.71446
674 1 0.0714847 0.928677 0.92868
252 1 0.428577 0.99998 0.71438
673 1 0.000252951 0.857354 0.857364
250 1 0.28558 0.999963 0.714386
666 1 0.500033 0.785904 0.928657
672 1 0.928892 0.785915 0.928808
671 1 0.857752 0.714629 0.85765
670 1 0.786113 0.786071 0.929023
669 1 0.71491 0.714858 0.858045
665 1 0.428616 0.714505 0.857244
540 1 0.0714283 0.500038 0.642837
541 1 0.214139 0.499978 0.642704
664 1 0.35713 0.785854 0.928571
686 1 0.928832 0.928747 0.928822
685 1 0.857719 0.857632 0.857669
684 1 0.785945 0.928766 0.928853
683 1 0.714625 0.857595 0.857612
547 1 9.54013e-05 0.571527 0.571419
548 1 0.0714422 0.642993 0.642856
549 1 0.142662 0.571499 0.571313
550 1 0.213735 0.643168 0.642836
551 1 0.285368 0.571657 0.571016
552 1 0.355046 0.645593 0.64446
553 1 0.414113 0.576443 0.569267
554 1 0.499877 0.645888 0.644066
555 1 0.59341 0.58988 0.57569
556 1 0.648703 0.649318 0.651892
557 1 0.716233 0.574325 0.573248
558 1 0.787627 0.644091 0.644051
559 1 0.857698 0.571775 0.571583
560 1 0.929166 0.643137 0.64302
561 1 8.81928e-05 0.714581 0.571438
562 1 0.0713556 0.786016 0.642945
563 1 0.142347 0.714739 0.571453
564 1 0.213776 0.786342 0.643111
565 1 0.284288 0.715805 0.571889
566 1 0.356832 0.786712 0.642967
567 1 0.427912 0.715403 0.571332
568 1 0.500235 0.786529 0.642792
569 1 0.573442 0.714862 0.571788
570 1 0.643707 0.787077 0.643638
571 1 0.714932 0.715028 0.57159
572 1 0.786518 0.786563 0.643035
573 1 0.857716 0.714848 0.571516
574 1 0.928953 0.786107 0.642963
575 1 3.61489e-05 0.857428 0.571428
576 1 0.0713598 0.928743 0.642919
577 1 0.142583 0.857495 0.571443
578 1 0.214069 0.928789 0.642937
579 1 0.285331 0.85778 0.571436
580 1 0.35706 0.928825 0.642882
581 1 0.428549 0.857656 0.57136
582 1 0.500109 0.928819 0.642884
583 1 0.571748 0.85751 0.571443
584 1 0.643091 0.928961 0.642969
585 1 0.714694 0.857665 0.571471
586 1 0.786041 0.928926 0.642949
587 1 0.857486 0.857582 0.571425
588 1 0.928749 0.928805 0.642925
589 1 0.0715085 0.500044 0.785826
590 1 0.214071 0.500047 0.785836
591 1 0.356863 0.500096 0.786042
682 1 0.64296 0.928719 0.928778
367 1 0.142878 0.714355 0.999947
681 1 0.571507 0.85746 0.857433
663 1 0.28553 0.714576 0.857379
596 1 0.000278194 0.571501 0.714396
597 1 0.0715731 0.642946 0.785808
598 1 0.142786 0.571465 0.714284
599 1 0.214103 0.643021 0.785821
600 1 0.285203 0.571628 0.714349
601 1 0.35667 0.643481 0.786274
602 1 0.427088 0.57349 0.714336
603 1 0.500152 0.643067 0.785838
604 1 0.573117 0.572926 0.714764
605 1 0.643892 0.643854 0.786485
606 1 0.716263 0.571583 0.715914
607 1 0.786822 0.643341 0.786674
608 1 0.857973 0.571557 0.714722
609 1 0.929119 0.643029 0.786027
610 1 0.000358247 0.71452 0.714446
611 1 0.0715377 0.785917 0.785876
612 1 0.142691 0.714522 0.714398
613 1 0.214006 0.786114 0.786018
614 1 0.284875 0.715273 0.71499
615 1 0.356917 0.786236 0.786001
616 1 0.428197 0.715578 0.714859
617 1 0.499909 0.786378 0.786173
618 1 0.571299 0.716176 0.715627
619 1 0.643293 0.786636 0.786506
620 1 0.717484 0.717406 0.717158
621 1 0.787027 0.786966 0.786917
622 1 0.858387 0.715021 0.714947
623 1 0.929175 0.786124 0.786099
624 1 0.000162684 0.857392 0.714422
625 1 0.0714544 0.928699 0.785853
626 1 0.142712 0.857413 0.714441
627 1 0.214182 0.9287 0.785845
628 1 0.285519 0.85756 0.714441
629 1 0.357093 0.928708 0.785823
630 1 0.428599 0.857605 0.714398
631 1 0.500028 0.928798 0.78592
632 1 0.571592 0.857827 0.714607
633 1 0.643044 0.928902 0.786037
634 1 0.714906 0.858155 0.714808
635 1 0.786139 0.928985 0.78611
636 1 0.857634 0.85762 0.714531
637 1 0.928842 0.928784 0.785927
680 1 0.500007 0.928666 0.928682
679 1 0.428519 0.857385 0.857308
353 1 0.142879 0.571479 0.999968
662 1 0.214222 0.785872 0.928619
668 1 0.643011 0.785999 0.928845
678 1 0.3571 0.928638 0.928619
667 1 0.571593 0.714613 0.857478
645 1 0.00026512 0.571502 0.857315
646 1 0.071558 0.642929 0.928632
647 1 0.142876 0.571491 0.857208
648 1 0.214273 0.642924 0.928575
649 1 0.285585 0.571513 0.857217
650 1 0.357123 0.642942 0.928547
651 1 0.428565 0.571496 0.857094
652 1 0.500061 0.642929 0.928487
653 1 0.571704 0.571578 0.85718
654 1 0.643068 0.643033 0.928737
655 1 0.714755 0.571597 0.857665
656 1 0.786099 0.64303 0.928922
657 1 0.857676 0.57155 0.85757
658 1 0.928887 0.642977 0.92877
659 1 0.000291714 0.714428 0.857325
660 1 0.0715359 0.785824 0.928652
661 1 0.142871 0.714406 0.857237
355 1 0.285671 0.571466 0.999924
357 1 0.428557 0.571461 0.999798
359 1 0.571497 0.571503 0.999822
369 1 0.285658 0.714403 0.999846
371 1 0.428581 0.7144 0.999831
373 1 0.571488 0.714433 0.999931
381 1 0.142821 0.857265 0.99995
518 1 0.928486 0.500105 0.500047
517 1 0.785326 0.500332 0.500247
383 1 0.285673 0.857251 0.999909
