ITEM: TIMESTEP
120
ITEM: NUMBER OF ATOMS
688
ITEM: BOX BOUNDS pp pp pp
1.9195582843382459e-03 2.2007627438571468e+01
1.9194811372559655e-03 2.2007627515718514e+01
-2.6966036361390075e-03 2.2012243600491960e+01
ITEM: ATOMS id type xs ys zs
1 1 1.30225e-10 1.30225e-10 1.34232e-10
2 1 0.0714286 0.0714286 0.0714286
3 1 0.142857 1.29144e-10 1.39604e-10
4 1 0.214286 0.0714286 0.0714286
5 1 0.285714 1.30601e-10 1.34105e-10
6 1 0.357143 0.0714286 0.0714286
7 1 0.428571 1.39028e-10 1.32463e-10
8 1 0.5 0.0714286 0.0714286
9 1 0.571429 1.61136e-10 1.30629e-10
10 1 0.642857 0.0714286 0.0714286
11 1 0.714286 1.42656e-10 1.2189e-10
12 1 0.785714 0.0714286 0.0714286
13 1 0.857143 1.27122e-10 1.40715e-10
14 1 0.928571 0.0714286 0.0714286
15 1 1.29144e-10 0.142857 1.39604e-10
16 1 0.0714286 0.214286 0.0714286
17 1 0.142857 0.142857 2.53888e-10
18 1 0.214286 0.214286 0.0714286
19 1 0.285714 0.142857 3.35082e-10
20 1 0.357143 0.214286 0.0714286
21 1 0.428571 0.142857 -2.56396e-09
22 1 0.5 0.214286 0.0714285
23 1 0.571429 0.142857 -2.49523e-09
24 1 0.642857 0.214286 0.0714286
25 1 0.714286 0.142857 2.97682e-10
26 1 0.785714 0.214286 0.0714286
27 1 0.857143 0.142857 2.57825e-10
28 1 0.928571 0.214286 0.0714286
29 1 1.30601e-10 0.285714 1.34105e-10
30 1 0.0714286 0.357143 0.0714286
31 1 0.142857 0.285714 3.35081e-10
32 1 0.214286 0.357143 0.0714286
33 1 0.285714 0.285714 1.12543e-08
34 1 0.357143 0.357143 0.0714291
35 1 0.428571 0.285714 1.98641e-08
36 1 0.5 0.357144 0.0714304
37 1 0.571429 0.285714 1.59055e-08
38 1 0.642857 0.357143 0.0714291
39 1 0.714286 0.285714 1.18114e-08
40 1 0.785714 0.357143 0.0714286
41 1 0.857143 0.285714 7.62723e-10
42 1 0.928571 0.357143 0.0714286
43 1 1.39028e-10 0.428571 1.32463e-10
44 1 0.0714286 0.5 0.0714286
45 1 0.142857 0.428571 -2.56396e-09
46 1 0.214286 0.5 0.0714285
47 1 0.285714 0.428571 1.98641e-08
48 1 0.357144 0.5 0.0714304
49 1 0.428571 0.428571 5.01745e-07
50 1 0.5 0.5 0.0714356
51 1 0.571429 0.428571 5.25704e-07
52 1 0.642856 0.5 0.0714314
53 1 0.714286 0.428571 4.36662e-08
54 1 0.785714 0.5 0.0714286
55 1 0.857143 0.428571 -1.90533e-09
56 1 0.928571 0.5 0.0714286
57 1 1.61136e-10 0.571429 1.30629e-10
58 1 0.0714286 0.642857 0.0714286
59 1 0.142857 0.571429 -2.49523e-09
60 1 0.214286 0.642857 0.0714286
61 1 0.285714 0.571429 1.59055e-08
62 1 0.357143 0.642857 0.0714291
63 1 0.428571 0.571429 5.25704e-07
64 1 0.5 0.642856 0.0714314
65 1 0.571429 0.571429 8.63155e-07
66 1 0.642857 0.642857 0.0714298
67 1 0.714286 0.571429 5.23545e-08
68 1 0.785714 0.642857 0.0714286
69 1 0.857143 0.571429 -4.93182e-09
70 1 0.928571 0.642857 0.0714286
71 1 1.42656e-10 0.714286 1.2189e-10
72 1 0.0714286 0.785714 0.0714286
73 1 0.142857 0.714286 2.97681e-10
74 1 0.214286 0.785714 0.0714286
75 1 0.285714 0.714286 1.18114e-08
76 1 0.357143 0.785714 0.0714286
77 1 0.428571 0.714286 4.36662e-08
78 1 0.5 0.785714 0.0714286
79 1 0.571429 0.714286 5.23546e-08
80 1 0.642857 0.785714 0.0714286
81 1 0.714286 0.714286 2.90753e-08
82 1 0.785714 0.785714 0.0714286
83 1 0.857143 0.714286 7.54217e-10
84 1 0.928571 0.785714 0.0714286
85 1 1.27122e-10 0.857143 1.40715e-10
86 1 0.0714286 0.928571 0.0714286
87 1 0.142857 0.857143 2.57825e-10
88 1 0.214286 0.928571 0.0714286
89 1 0.285714 0.857143 7.62723e-10
90 1 0.357143 0.928571 0.0714286
91 1 0.428571 0.857143 -1.90533e-09
92 1 0.5 0.928571 0.0714286
93 1 0.571429 0.857143 -4.93182e-09
94 1 0.642857 0.928571 0.0714286
95 1 0.714286 0.857143 7.54219e-10
96 1 0.785714 0.928571 0.0714286
97 1 0.857143 0.857143 5.5595e-10
98 1 0.928571 0.928571 0.0714286
99 1 1.25852e-10 1.25851e-10 0.142857
100 1 0.0714286 0.0714286 0.214286
101 1 0.142857 1.22977e-10 0.142857
102 1 0.214286 0.0714286 0.214286
103 1 0.285714 -2.5617e-10 0.142857
104 1 0.357143 0.0714286 0.214286
105 1 0.428571 -3.19786e-10 0.142857
106 1 0.5 0.0714286 0.214286
107 1 0.571429 9.39678e-10 0.142857
108 1 0.642857 0.0714286 0.214286
109 1 0.714286 -5.24103e-10 0.142857
110 1 0.785714 0.0714286 0.214286
111 1 0.857143 -9.97502e-11 0.142857
112 1 0.928571 0.0714286 0.214286
113 1 1.22977e-10 0.142857 0.142857
114 1 0.0714286 0.214286 0.214286
115 1 0.142857 0.142857 0.142857
116 1 0.214286 0.214286 0.214286
117 1 0.285714 0.142857 0.142857
118 1 0.357143 0.214286 0.214286
119 1 0.428571 0.142857 0.142857
120 1 0.5 0.214288 0.214287
121 1 0.571429 0.142857 0.142857
122 1 0.642857 0.214286 0.214286
123 1 0.714286 0.142857 0.142857
124 1 0.785714 0.214286 0.214286
125 1 0.857143 0.142857 0.142857
126 1 0.928571 0.214286 0.214286
127 1 -2.56171e-10 0.285714 0.142857
128 1 0.0714286 0.357143 0.214286
129 1 0.142857 0.285714 0.142857
130 1 0.214286 0.357143 0.214286
131 1 0.285715 0.285715 0.142858
132 1 0.35716 0.35716 0.214303
133 1 0.428572 0.285717 0.142859
134 1 0.500001 0.357204 0.214347
135 1 0.571428 0.285716 0.142859
136 1 0.642839 0.357164 0.214307
137 1 0.714285 0.285715 0.142858
138 1 0.785713 0.357144 0.214287
139 1 0.857143 0.285714 0.142857
140 1 0.928571 0.357143 0.214286
141 1 -3.19783e-10 0.428571 0.142857
142 1 0.0714286 0.5 0.214286
143 1 0.142857 0.428571 0.142857
144 1 0.214288 0.5 0.214287
145 1 0.285717 0.428572 0.142859
146 1 0.357204 0.500001 0.214347
147 1 0.428577 0.428577 0.142891
148 1 0.500033 0.500033 0.214094
149 1 0.571424 0.428579 0.142894
150 1 0.642785 0.500018 0.214409
151 1 0.714283 0.428573 0.14286
152 1 0.785709 0.500001 0.21429
153 1 0.857143 0.428571 0.142857
154 1 0.928571 0.5 0.214286
155 1 9.3968e-10 0.571429 0.142857
156 1 0.0714286 0.642857 0.214286
157 1 0.142857 0.571429 0.142857
158 1 0.214286 0.642857 0.214286
159 1 0.285716 0.571428 0.142859
160 1 0.357164 0.642839 0.214307
161 1 0.428579 0.571424 0.142894
162 1 0.500018 0.642785 0.214409
163 1 0.571424 0.571424 0.142916
164 1 0.642822 0.642822 0.21435
165 1 0.714281 0.571428 0.142863
166 1 0.785711 0.642856 0.214289
167 1 0.857143 0.571429 0.142857
168 1 0.928571 0.642857 0.214286
169 1 -5.24102e-10 0.714286 0.142857
170 1 0.0714286 0.785714 0.214286
171 1 0.142857 0.714286 0.142857
172 1 0.214286 0.785714 0.214286
173 1 0.285715 0.714285 0.142858
174 1 0.357144 0.785713 0.214287
175 1 0.428573 0.714283 0.14286
176 1 0.500001 0.785709 0.21429
177 1 0.571428 0.714281 0.142863
178 1 0.642856 0.785711 0.214289
179 1 0.714285 0.714285 0.142858
180 1 0.785714 0.785714 0.214286
181 1 0.857143 0.714286 0.142857
182 1 0.928571 0.785714 0.214286
183 1 -9.97502e-11 0.857143 0.142857
184 1 0.0714286 0.928571 0.214286
185 1 0.142857 0.857143 0.142857
186 1 0.214286 0.928571 0.214286
187 1 0.285714 0.857143 0.142857
188 1 0.357143 0.928571 0.214286
189 1 0.428571 0.857143 0.142857
190 1 0.5 0.928571 0.214286
191 1 0.571429 0.857143 0.142857
192 1 0.642857 0.928571 0.214286
193 1 0.714286 0.857143 0.142857
194 1 0.785714 0.928571 0.214286
195 1 0.857143 0.857143 0.142857
196 1 0.928571 0.928571 0.214286
197 1 1.29925e-10 1.29925e-10 0.285714
198 1 0.0714286 0.0714286 0.357143
199 1 0.142857 1.27154e-10 0.285714
200 1 0.214286 0.0714286 0.357143
201 1 0.285714 -7.67148e-10 0.285714
202 1 0.357143 0.0714286 0.357143
203 1 0.428571 -1.85437e-08 0.285714
204 1 0.5 0.0714287 0.357143
205 1 0.571429 -3.78895e-08 0.285714
206 1 0.642857 0.0714286 0.357143
207 1 0.714286 -1.16265e-08 0.285714
208 1 0.785714 0.0714286 0.357143
209 1 0.857143 -5.38251e-10 0.285714
210 1 0.928571 0.0714286 0.357143
211 1 1.27153e-10 0.142857 0.285714
212 1 0.0714286 0.214286 0.357143
213 1 0.142857 0.142857 0.285714
214 1 0.214286 0.214286 0.357143
215 1 0.285714 0.142857 0.285714
216 1 0.357144 0.214287 0.357143
217 1 0.428571 0.142858 0.285714
218 1 0.5 0.214293 0.357143
219 1 0.571429 0.142858 0.285714
220 1 0.642856 0.214289 0.357143
221 1 0.714286 0.142857 0.285714
222 1 0.785714 0.214286 0.357143
223 1 0.857143 0.142857 0.285714
224 1 0.928571 0.214286 0.357143
225 1 -7.67143e-10 0.285714 0.285714
226 1 0.0714286 0.357143 0.357143
227 1 0.142857 0.285714 0.285714
228 1 0.214287 0.357144 0.357143
229 1 0.285716 0.285716 0.285715
230 1 0.357203 0.357203 0.357141
231 1 0.428577 0.285748 0.28572
232 1 0.500033 0.356932 0.357167
233 1 0.571424 0.285751 0.285722
234 1 0.642787 0.357264 0.357158
235 1 0.714283 0.285717 0.285716
236 1 0.785709 0.357147 0.357144
237 1 0.857143 0.285714 0.285714
238 1 0.928571 0.357143 0.357143
239 1 -1.85438e-08 0.428571 0.285714
240 1 0.0714287 0.5 0.357143
241 1 0.142858 0.428571 0.285714
242 1 0.214293 0.5 0.357143
243 1 0.285748 0.428577 0.28572
244 1 0.356932 0.500033 0.357167
245 1 0.428502 0.428502 0.285658
246 1 0.928571 0.928571 0.928571
247 1 0.571508 0.428599 0.285755
248 1 0.643408 0.499866 0.357003
249 1 0.714221 0.428606 0.285749
250 1 0.785656 0.500005 0.357147
251 1 0.857142 0.428572 0.285715
252 1 0.928571 0.5 0.357143
253 1 -3.78895e-08 0.571429 0.285714
254 1 0.0714286 0.642857 0.357143
255 1 0.142858 0.571429 0.285714
256 1 0.214289 0.642856 0.357143
257 1 0.285751 0.571424 0.285722
258 1 0.357264 0.642787 0.357158
259 1 0.428599 0.571508 0.285755
260 1 0.499866 0.643408 0.357003
261 1 0.571551 0.571551 0.285196
262 1 0.642837 0.642837 0.357058
263 1 0.714162 0.571411 0.285786
264 1 0.785677 0.64285 0.357148
265 1 0.85714 0.571428 0.285716
266 1 0.928571 0.642857 0.357143
267 1 -1.16265e-08 0.714286 0.285714
268 1 0.0714286 0.785714 0.357143
269 1 0.142857 0.714286 0.285714
270 1 0.214286 0.785714 0.357143
271 1 0.285717 0.714283 0.285716
272 1 0.357147 0.785709 0.357144
273 1 0.428606 0.714221 0.285749
274 1 0.500005 0.785656 0.357147
275 1 0.571411 0.714162 0.285786
276 1 0.64285 0.785677 0.357148
277 1 0.714265 0.714265 0.285733
278 1 0.785712 0.785712 0.357144
279 1 0.857142 0.714285 0.285715
280 1 0.928571 0.785714 0.357143
281 1 -5.38251e-10 0.857143 0.285714
282 1 0.0714286 0.928571 0.357143
283 1 0.142857 0.857143 0.285714
284 1 0.214286 0.928571 0.357143
285 1 0.285714 0.857143 0.285714
286 1 0.357143 0.928571 0.357143
287 1 0.428572 0.857142 0.285715
288 1 0.5 0.928571 0.357143
289 1 0.571428 0.85714 0.285716
290 1 0.642857 0.928571 0.357143
291 1 0.714285 0.857142 0.285715
292 1 0.785714 0.928571 0.357143
293 1 0.857143 0.857143 0.285714
294 1 0.928571 0.928571 0.357143
295 1 1.07957e-10 1.07957e-10 0.428571
296 1 0.0714286 0.0714286 0.5
297 1 0.142857 1.08751e-10 0.428571
298 1 0.214286 0.0714286 0.5
299 1 0.285714 1.65836e-10 0.428571
300 1 0.357143 0.0714286 0.5
301 1 0.428571 1 0.428571
302 1 0.5 0.0714286 0.5
303 1 0.571429 1 0.428571
304 1 0.642857 0.0714286 0.5
305 1 0.714286 -2.83092e-08 0.428571
306 1 0.785714 0.0714286 0.5
307 1 0.857143 3.77476e-10 0.428571
308 1 0.928571 0.0714286 0.5
309 1 1.08751e-10 0.142857 0.428571
310 1 0.0714286 0.214286 0.5
311 1 0.142857 0.142857 0.428571
312 1 0.214286 0.214286 0.5
313 1 0.285714 0.142857 0.428571
314 1 0.357143 0.214286 0.5
315 1 0.428571 0.142858 0.428571
316 1 0.5 0.214288 0.499999
317 1 0.571429 0.142858 0.428571
318 1 0.642857 0.214287 0.5
319 1 0.714286 0.142857 0.428571
320 1 0.785714 0.214286 0.5
321 1 0.857143 0.142857 0.428571
322 1 0.928571 0.214286 0.5
323 1 1.65838e-10 0.285714 0.428571
324 1 0.0714286 0.357143 0.5
325 1 0.142857 0.285714 0.428571
326 1 0.214286 0.357143 0.5
327 1 0.285717 0.285717 0.428571
328 1 0.357161 0.357161 0.499985
329 1 0.428578 0.285748 0.428567
330 1 0.500018 0.357254 0.499936
331 1 0.571424 0.285769 0.428567
332 1 0.642826 0.357204 0.499969
333 1 0.714281 0.28572 0.428571
334 1 0.785711 0.357146 0.499999
335 1 0.857143 0.285714 0.428571
336 1 0.928571 0.357143 0.5
337 1 1 0.428571 0.428571
338 1 0.0714286 0.5 0.5
339 1 0.142858 0.428571 0.428571
340 1 0.214288 0.5 0.499999
341 1 0.285748 0.428578 0.428567
342 1 0.357254 0.500018 0.499936
343 1 0.428256 0.428256 0.428698
344 1 0.499862 0.499862 0.504186
345 1 0.571891 0.427704 0.42874
346 1 0.642849 0.499913 0.499988
347 1 0.714167 0.428642 0.428553
348 1 0.785678 0.500005 0.499993
349 1 0.85714 0.428573 0.428571
350 1 0.928571 0.5 0.5
351 1 1 0.571429 0.428571
352 1 0.0714286 0.642857 0.5
353 1 0.142858 0.571429 0.428571
354 1 0.214287 0.642857 0.5
355 1 0.285769 0.571424 0.428567
356 1 0.357204 0.642826 0.499969
357 1 0.427704 0.571891 0.42874
358 1 0.499913 0.642849 0.499988
359 1 0.857143 0.857143 0.857143
360 1 0.64293 0.64293 0.500072
361 1 0.714478 0.571396 0.428539
362 1 0.78568 0.642851 0.499994
363 1 0.857136 0.571428 0.428571
364 1 0.928571 0.642857 0.5
365 1 -2.83092e-08 0.714286 0.428571
366 1 0.0714286 0.785714 0.5
367 1 0.142857 0.714286 0.428571
368 1 0.214286 0.785714 0.5
369 1 0.28572 0.714281 0.428571
370 1 0.357146 0.785711 0.499999
371 1 0.428642 0.714167 0.428553
372 1 0.500005 0.785678 0.499993
373 1 0.571396 0.714478 0.428539
374 1 0.642851 0.78568 0.499994
375 1 0.714225 0.714225 0.428571
376 1 0.785712 0.785712 0.499999
377 1 0.857141 0.714285 0.428571
378 1 0.928571 0.785714 0.5
379 1 3.77477e-10 0.857143 0.428571
380 1 0.0714286 0.928571 0.5
381 1 0.142857 0.857143 0.428571
382 1 0.214286 0.928571 0.5
383 1 0.285714 0.857143 0.428571
384 1 0.357143 0.928571 0.5
385 1 0.428573 0.85714 0.428571
386 1 0.5 0.928571 0.5
387 1 0.571428 0.857136 0.428571
388 1 0.642857 0.928571 0.5
389 1 0.714285 0.857141 0.428571
390 1 0.785714 0.928571 0.5
391 1 0.857143 0.857143 0.428571
392 1 0.928571 0.928571 0.5
393 1 1.3152e-10 1.3152e-10 0.571429
394 1 0.0714286 0.0714286 0.642857
395 1 0.142857 1.28447e-10 0.571429
396 1 0.214286 0.0714286 0.642857
397 1 0.285714 -8.4147e-10 0.571429
398 1 0.357143 0.0714286 0.642857
399 1 0.428571 -1.1589e-08 0.571429
400 1 0.5 0.0714286 0.642857
401 1 0.571429 -2.65964e-08 0.571429
402 1 0.642857 0.0714286 0.642857
403 1 0.714286 -1.1479e-08 0.571429
404 1 0.785714 0.0714286 0.642857
405 1 0.857143 -5.39535e-10 0.571429
406 1 0.928571 0.0714286 0.642857
407 1 1.28447e-10 0.142857 0.571429
408 1 0.0714286 0.214286 0.642857
409 1 0.142857 0.142857 0.571429
410 1 0.214286 0.214286 0.642857
411 1 0.285714 0.142857 0.571429
412 1 0.357143 0.214286 0.642857
413 1 0.428571 0.142857 0.571429
414 1 0.5 0.214286 0.642857
415 1 0.571429 0.142857 0.571429
416 1 0.642857 0.214286 0.642857
417 1 0.714286 0.142857 0.571429
418 1 0.785714 0.214286 0.642857
419 1 0.857143 0.142857 0.571429
420 1 0.928571 0.214286 0.642857
421 1 -8.41469e-10 0.285714 0.571429
422 1 0.0714286 0.357143 0.642857
423 1 0.142857 0.285714 0.571429
424 1 0.214286 0.357143 0.642857
425 1 0.285715 0.285715 0.571428
426 1 0.357144 0.357144 0.642856
427 1 0.428573 0.285717 0.571426
428 1 0.500001 0.357149 0.64285
429 1 0.571428 0.285719 0.571424
430 1 0.642856 0.357145 0.642854
431 1 0.714285 0.285715 0.571428
432 1 0.785714 0.357143 0.642857
433 1 0.857143 0.285714 0.571429
434 1 0.928571 0.357143 0.642857
435 1 -1.15889e-08 0.428571 0.571429
436 1 0.0714286 0.5 0.642857
437 1 0.142857 0.428571 0.571429
438 1 0.214286 0.5 0.642857
439 1 0.285717 0.428573 0.571426
440 1 0.357149 0.500001 0.64285
441 1 0.428581 0.428581 0.571371
442 1 0.500004 0.500004 0.642862
443 1 0.571435 0.428618 0.571312
444 1 0.642848 0.500004 0.642819
445 1 0.714265 0.42859 0.571407
446 1 0.785712 0.500001 0.642855
447 1 0.857142 0.428572 0.571428
448 1 0.928571 0.5 0.642857
449 1 -2.65964e-08 0.571429 0.571429
450 1 0.0714286 0.642857 0.642857
451 1 0.142857 0.571429 0.571429
452 1 0.214286 0.642857 0.642857
453 1 0.285719 0.571428 0.571424
454 1 0.357145 0.642856 0.642854
455 1 0.428618 0.571435 0.571312
456 1 0.500004 0.642848 0.642819
457 1 0.571419 0.571419 0.571628
458 1 0.642852 0.642852 0.642824
459 1 0.714227 0.571428 0.571368
460 1 0.785712 0.642856 0.642855
461 1 0.857141 0.571429 0.571428
462 1 0.928571 0.642857 0.642857
463 1 -1.1479e-08 0.714286 0.571429
464 1 0.0714286 0.785714 0.642857
465 1 0.142857 0.714286 0.571429
466 1 0.214286 0.785714 0.642857
467 1 0.285715 0.714285 0.571428
468 1 0.357143 0.785714 0.642857
469 1 0.42859 0.714265 0.571407
470 1 0.500001 0.785712 0.642855
471 1 0.571428 0.714227 0.571368
472 1 0.642856 0.785712 0.642855
473 1 0.714269 0.714269 0.571412
474 1 0.785714 0.785714 0.642857
475 1 0.857142 0.714285 0.571428
476 1 0.928571 0.785714 0.642857
477 1 -5.39536e-10 0.857143 0.571429
478 1 0.0714286 0.928571 0.642857
479 1 0.142857 0.857143 0.571429
480 1 0.214286 0.928571 0.642857
481 1 0.285714 0.857143 0.571429
482 1 0.357143 0.928571 0.642857
483 1 0.428572 0.857142 0.571428
484 1 0.5 0.928571 0.642857
485 1 0.571429 0.857141 0.571428
486 1 0.642857 0.928571 0.642857
487 1 0.714285 0.857142 0.571428
488 1 0.785714 0.928571 0.642857
489 1 0.857143 0.857143 0.571429
490 1 0.928571 0.928571 0.642857
491 1 1.25713e-10 1.25713e-10 0.714286
492 1 0.0714286 0.0714286 0.785714
493 1 0.142857 1.2243e-10 0.714286
494 1 0.214286 0.0714286 0.785714
495 1 0.285714 -9.47815e-11 0.714286
496 1 0.357143 0.0714286 0.785714
497 1 0.428571 -1.86593e-10 0.714286
498 1 0.5 0.0714286 0.785714
499 1 0.571429 1.29323e-09 0.714286
500 1 0.642857 0.0714286 0.785714
501 1 0.714286 -2.2213e-10 0.714286
502 1 0.785714 0.0714286 0.785714
503 1 0.857143 -9.38729e-11 0.714286
504 1 0.928571 0.0714286 0.785714
505 1 1.2243e-10 0.142857 0.714286
506 1 0.0714286 0.214286 0.785714
507 1 0.142857 0.142857 0.714286
508 1 0.214286 0.214286 0.785714
509 1 0.285714 0.142857 0.714286
510 1 0.357143 0.214286 0.785714
511 1 0.428571 0.142857 0.714286
512 1 0.5 0.214286 0.785714
513 1 0.571429 0.142857 0.714286
514 1 0.642857 0.214286 0.785714
515 1 0.714286 0.142857 0.714286
516 1 0.785714 0.214286 0.785714
517 1 0.857143 0.142857 0.714286
518 1 0.928571 0.214286 0.785714
519 1 -9.47812e-11 0.285714 0.714286
520 1 0.0714286 0.357143 0.785714
521 1 0.142857 0.285714 0.714286
522 1 0.214286 0.357143 0.785714
523 1 0.285714 0.285714 0.714286
524 1 0.357143 0.357143 0.785714
525 1 0.428572 0.285714 0.714286
526 1 0.5 0.357143 0.785714
527 1 0.571429 0.285714 0.714286
528 1 0.642857 0.357143 0.785714
529 1 0.714286 0.285714 0.714286
530 1 0.785714 0.357143 0.785714
531 1 0.857143 0.285714 0.714286
532 1 0.928571 0.357143 0.785714
533 1 -1.86596e-10 0.428571 0.714286
534 1 0.0714286 0.5 0.785714
535 1 0.142857 0.428571 0.714286
536 1 0.214286 0.5 0.785714
537 1 0.285714 0.428572 0.714286
538 1 0.357143 0.5 0.785714
539 1 0.428571 0.428571 0.714285
540 1 0.5 0.5 0.785714
541 1 0.571429 0.428572 0.714284
542 1 0.642857 0.5 0.785714
543 1 0.714285 0.428572 0.714285
544 1 0.785714 0.5 0.785714
545 1 0.857143 0.428571 0.714286
546 1 0.928571 0.5 0.785714
547 1 1.29323e-09 0.571429 0.714286
548 1 0.0714286 0.642857 0.785714
549 1 0.142857 0.571429 0.714286
550 1 0.214286 0.642857 0.785714
551 1 0.285714 0.571429 0.714286
552 1 0.357143 0.642857 0.785714
553 1 0.428572 0.571429 0.714284
554 1 0.5 0.642857 0.785714
555 1 0.571429 0.571429 0.71428
556 1 0.642857 0.642857 0.785714
557 1 0.714285 0.571429 0.714284
558 1 0.785714 0.642857 0.785714
559 1 0.857143 0.571429 0.714286
560 1 0.928571 0.642857 0.785714
561 1 -2.22131e-10 0.714286 0.714286
562 1 0.0714286 0.785714 0.785714
563 1 0.142857 0.714286 0.714286
564 1 0.214286 0.785714 0.785714
565 1 0.285714 0.714286 0.714286
566 1 0.357143 0.785714 0.785714
567 1 0.428572 0.714285 0.714285
568 1 0.5 0.785714 0.785714
569 1 0.571429 0.714285 0.714284
570 1 0.642857 0.785714 0.785714
571 1 0.714285 0.714285 0.714285
572 1 0.785714 0.785714 0.785714
573 1 0.857143 0.714286 0.714286
574 1 0.928571 0.785714 0.785714
575 1 -9.38728e-11 0.857143 0.714286
576 1 0.0714286 0.928571 0.785714
577 1 0.142857 0.857143 0.714286
578 1 0.214286 0.928571 0.785714
579 1 0.285714 0.857143 0.714286
580 1 0.357143 0.928571 0.785714
581 1 0.428571 0.857143 0.714286
582 1 0.5 0.928571 0.785714
583 1 0.571429 0.857143 0.714286
584 1 0.642857 0.928571 0.785714
585 1 0.714286 0.857143 0.714286
586 1 0.785714 0.928571 0.785714
587 1 0.857143 0.857143 0.714286
588 1 0.928571 0.928571 0.785714
589 1 1.30311e-10 1.30311e-10 0.857143
590 1 0.0714286 0.0714286 0.928571
591 1 0.142857 1.30284e-10 0.857143
592 1 0.214286 0.0714286 0.928571
593 1 0.285714 1.30674e-10 0.857143
594 1 0.357143 0.0714286 0.928571
595 1 0.428571 1.42547e-10 0.857143
596 1 0.5 0.0714286 0.928571
597 1 0.571429 1.22154e-10 0.857143
598 1 0.642857 0.0714286 0.928571
599 1 0.714286 1.45342e-10 0.857143
600 1 0.785714 0.0714286 0.928571
601 1 0.857143 1.30416e-10 0.857143
602 1 0.928571 0.0714286 0.928571
603 1 1.30284e-10 0.142857 0.857143
604 1 0.0714286 0.214286 0.928571
605 1 0.142857 0.142857 0.857143
606 1 0.214286 0.214286 0.928571
607 1 0.285714 0.142857 0.857143
608 1 0.357143 0.214286 0.928571
609 1 0.428571 0.142857 0.857143
610 1 0.5 0.214286 0.928571
611 1 0.571429 0.142857 0.857143
612 1 0.642857 0.214286 0.928571
613 1 0.714286 0.142857 0.857143
614 1 0.785714 0.214286 0.928571
615 1 0.857143 0.142857 0.857143
616 1 0.928571 0.214286 0.928571
617 1 1.30674e-10 0.285714 0.857143
618 1 0.0714286 0.357143 0.928571
619 1 0.142857 0.285714 0.857143
620 1 0.214286 0.357143 0.928571
621 1 0.285714 0.285714 0.857143
622 1 0.357143 0.357143 0.928571
623 1 0.428571 0.285714 0.857143
624 1 0.5 0.357143 0.928571
625 1 0.571429 0.285714 0.857143
626 1 0.642857 0.357143 0.928571
627 1 0.714286 0.285714 0.857143
628 1 0.785714 0.357143 0.928571
629 1 0.857143 0.285714 0.857143
630 1 0.928571 0.357143 0.928571
631 1 1.42548e-10 0.428571 0.857143
632 1 0.0714286 0.5 0.928571
633 1 0.142857 0.428571 0.857143
634 1 0.214286 0.5 0.928571
635 1 0.285714 0.428571 0.857143
636 1 0.357143 0.5 0.928571
637 1 0.428571 0.428571 0.857143
638 1 0.5 0.5 0.928572
639 1 0.571429 0.428571 0.857143
640 1 0.642857 0.5 0.928571
641 1 0.714286 0.428571 0.857143
642 1 0.785714 0.5 0.928571
643 1 0.857143 0.428571 0.857143
644 1 0.928571 0.5 0.928571
645 1 1.22154e-10 0.571429 0.857143
646 1 0.0714286 0.642857 0.928571
647 1 0.142857 0.571429 0.857143
648 1 0.214286 0.642857 0.928571
649 1 0.285714 0.571429 0.857143
650 1 0.357143 0.642857 0.928571
651 1 0.428571 0.571429 0.857143
652 1 0.5 0.642857 0.928571
653 1 0.571429 0.571429 0.857143
654 1 0.642857 0.642857 0.928571
655 1 0.714286 0.571429 0.857143
656 1 0.785714 0.642857 0.928571
657 1 0.857143 0.571429 0.857143
658 1 0.928571 0.642857 0.928571
659 1 1.45342e-10 0.714286 0.857143
660 1 0.0714286 0.785714 0.928571
661 1 0.142857 0.714286 0.857143
662 1 0.214286 0.785714 0.928571
663 1 0.285714 0.714286 0.857143
664 1 0.357143 0.785714 0.928571
665 1 0.428571 0.714286 0.857143
666 1 0.5 0.785714 0.928571
667 1 0.571429 0.714286 0.857143
668 1 0.642857 0.785714 0.928571
669 1 0.714286 0.714286 0.857143
670 1 0.785714 0.785714 0.928571
671 1 0.857143 0.714286 0.857143
672 1 0.928571 0.785714 0.928571
673 1 1.30416e-10 0.857143 0.857143
674 1 0.0714286 0.928571 0.928571
675 1 0.142857 0.857143 0.857143
676 1 0.214286 0.928571 0.928571
677 1 0.285714 0.857143 0.857143
678 1 0.357143 0.928571 0.928571
679 1 0.428571 0.857143 0.857143
680 1 0.5 0.928571 0.928571
681 1 0.571429 0.857143 0.857143
682 1 0.642857 0.928571 0.928571
683 1 0.714286 0.857143 0.857143
684 1 0.785714 0.928571 0.928571
685 3 0.536237 0.536237 0.391902
686 3 0.577162 0.577161 0.434323
687 3 0.493831 0.493831 0.350692
688 3 0.499602 0.499602 0.425657
