ITEM: TIMESTEP
120
ITEM: NUMBER OF ATOMS
697
ITEM: BOX BOUNDS pp pp pp
-1.4214122578076194e-02 2.2023761119433850e+01
-1.7444778899064994e-02 2.2026991775754844e+01
-1.8564564720661647e-02 2.2028111561576413e+01
ITEM: ATOMS id type xs ys zs
1 1 1.28976e-10 1.29203e-10 1.2842e-10
2 1 0.0714286 0.0714286 0.0714286
3 1 0.142857 1.2597e-10 1.35324e-10
4 1 0.214286 0.0714286 0.0714286
5 1 0.285714 1.41966e-10 1.17608e-10
6 1 0.357143 0.0714286 0.0714286
7 1 0.428571 1.27581e-10 9.96956e-11
8 1 0.5 0.0714286 0.0714286
9 1 0.571429 1.56568e-10 1.38951e-10
10 1 0.642857 0.0714286 0.0714286
11 1 0.714286 1.2839e-10 1.03595e-10
12 1 0.785714 0.0714286 0.0714286
13 1 0.857143 1.28521e-10 1.38663e-10
14 1 0.928571 0.0714286 0.0714286
15 1 1.25579e-10 0.142857 1.36038e-10
16 1 0.0714286 0.214286 0.0714286
17 1 0.142857 0.142857 2.33921e-10
18 1 0.214286 0.214286 0.0714286
19 1 0.285714 0.142857 -2.95631e-11
20 1 0.357143 0.214286 0.0714286
21 1 0.428571 0.142857 -8.64793e-10
22 1 0.5 0.214286 0.0714285
23 1 0.571429 0.142857 -1.62446e-09
24 1 0.642857 0.214286 0.0714286
25 1 0.714286 0.142857 -2.27498e-10
26 1 0.785714 0.214286 0.0714286
27 1 0.857143 0.142857 2.85271e-10
28 1 0.928571 0.214286 0.0714286
29 1 1.44118e-10 0.285714 1.05911e-10
30 1 0.0714286 0.357143 0.0714286
31 1 0.142857 0.285714 -1.90245e-10
32 1 0.214286 0.357143 0.0714286
33 1 0.285714 0.285714 -4.8244e-09
34 1 0.357142 0.357142 0.071428
35 1 0.428571 0.285714 2.6676e-08
36 1 0.5 0.357142 0.0714286
37 1 0.571429 0.285714 3.58195e-08
38 1 0.642858 0.357142 0.0714281
39 1 0.714286 0.285714 -6.32993e-10
40 1 0.785714 0.357143 0.0714286
41 1 0.857143 0.285714 -3.8329e-10
42 1 0.928571 0.357143 0.0714286
43 1 1.02634e-10 0.428571 1.29612e-10
44 1 0.0714286 0.5 0.0714286
45 1 0.142857 0.428571 -9.19421e-10
46 1 0.214286 0.5 0.0714285
47 1 0.285714 0.428571 2.3515e-08
48 1 0.357142 0.5 0.0714282
49 1 0.428572 0.428572 -3.02635e-07
50 1 0.5 0.499999 0.0714386
51 1 0.571428 0.428572 -4.75018e-07
52 1 0.642858 0.5 0.0714284
53 1 0.714286 0.428571 3.38855e-08
54 1 0.785714 0.5 0.0714285
55 1 0.857143 0.428571 -1.54605e-09
56 1 0.928571 0.5 0.0714286
57 1 9.74035e-11 0.571429 2.59898e-10
58 1 0.0714286 0.642857 0.0714286
59 1 0.142857 0.571429 -4.72876e-09
60 1 0.214286 0.642857 0.0714286
61 1 0.285714 0.571429 5.49278e-08
62 1 0.357142 0.642858 0.0714278
63 1 0.428572 0.571428 -8.95727e-07
64 1 0.5 0.642858 0.0714277
65 1 0.571428 0.571428 -1.01887e-06
66 1 0.642858 0.642858 0.0714278
67 1 0.714286 0.571429 6.81818e-08
68 1 0.785714 0.642857 0.0714286
69 1 0.857143 0.571429 -5.62672e-09
70 1 0.928571 0.642857 0.0714286
71 1 1.42311e-10 0.714286 6.92821e-11
72 1 0.0714286 0.785714 0.0714286
73 1 0.142857 0.714286 -1.38529e-10
74 1 0.214286 0.785714 0.0714286
75 1 0.285714 0.714286 -7.95514e-09
76 1 0.357143 0.785714 0.0714286
77 1 0.428571 0.714286 2.58998e-08
78 1 0.5 0.785714 0.0714286
79 1 0.571429 0.714286 3.62237e-08
80 1 0.642857 0.785714 0.0714285
81 1 0.714286 0.714286 -6.66412e-09
82 1 0.785714 0.785714 0.0714286
83 1 0.857143 0.714286 -1.14438e-11
84 1 0.928571 0.785714 0.0714286
85 1 1.26315e-10 0.857143 1.42857e-10
86 1 0.0714286 0.928571 0.0714286
87 1 0.142857 0.857143 2.62367e-10
88 1 0.214286 0.928571 0.0714286
89 1 0.285714 0.857143 -3.42262e-10
90 1 0.357143 0.928571 0.0714286
91 1 0.428571 0.857143 -2.18381e-09
92 1 0.5 0.928571 0.0714286
93 1 0.571429 0.857143 -2.52256e-09
94 1 0.642857 0.928571 0.0714286
95 1 0.714286 0.857143 -4.47402e-10
96 1 0.785714 0.928571 0.0714286
97 1 0.857143 0.857143 2.98763e-10
98 1 0.928571 0.928571 0.0714286
99 1 1.28545e-10 1.27149e-10 0.142857
100 1 0.0714286 0.0714286 0.214286
101 1 0.142857 1.70432e-10 0.142857
102 1 0.214286 0.0714286 0.214286
103 1 0.285714 1.03164e-10 0.142857
104 1 0.357143 0.0714286 0.214286
105 1 0.428571 -3.98439e-12 0.142857
106 1 0.5 0.0714286 0.214286
107 1 0.571429 -3.56768e-10 0.142857
108 1 0.642857 0.0714286 0.214286
109 1 0.714286 3.45052e-10 0.142857
110 1 0.785714 0.0714286 0.214286
111 1 0.857143 1.39525e-10 0.142857
112 1 0.928571 0.0714286 0.214286
113 1 1.55042e-10 0.142857 0.142857
114 1 0.0714286 0.214286 0.214286
115 1 0.142857 0.142857 0.142857
116 1 0.214286 0.214286 0.214286
117 1 0.285714 0.142857 0.142857
118 1 0.357143 0.214286 0.214286
119 1 0.428571 0.142857 0.142857
120 1 0.5 0.214289 0.214289
121 1 0.571429 0.142857 0.142857
122 1 0.642857 0.214286 0.214286
123 1 0.714286 0.142857 0.142857
124 1 0.785714 0.214286 0.214286
125 1 0.857143 0.142857 0.142857
126 1 0.928571 0.214286 0.214286
127 1 -8.03225e-11 0.285714 0.142857
128 1 0.0714286 0.357143 0.214286
129 1 0.142857 0.285714 0.142857
130 1 0.214286 0.357143 0.214285
131 1 0.285715 0.285715 0.142858
132 1 0.357159 0.357158 0.21429
133 1 0.428572 0.285715 0.142858
134 1 0.499997 0.357162 0.214324
135 1 0.571428 0.285715 0.142859
136 1 0.642845 0.357162 0.214302
137 1 0.714285 0.285715 0.142858
138 1 0.785714 0.357143 0.214286
139 1 0.857143 0.285714 0.142857
140 1 0.928571 0.357143 0.214286
141 1 2.49573e-11 0.428571 0.142857
142 1 0.0714286 0.5 0.214286
143 1 0.142857 0.428571 0.142857
144 1 0.214288 0.500001 0.214288
145 1 0.285715 0.428572 0.142858
146 1 0.357153 0.499974 0.214321
147 1 0.42855 0.428551 0.142833
148 1 0.500009 0.499966 0.213236
149 1 0.571451 0.428553 0.142821
150 1 0.642838 0.49998 0.214343
151 1 0.714285 0.428572 0.142858
152 1 0.785711 0.5 0.214288
153 1 0.857143 0.428571 0.142857
154 1 0.928571 0.5 0.214286
155 1 1.32948e-10 0.571429 0.142857
156 1 0.0714286 0.642857 0.214286
157 1 0.142857 0.571429 0.142857
158 1 0.214286 0.642857 0.214286
159 1 0.285717 0.571428 0.14286
160 1 0.357137 0.642869 0.214289
161 1 0.42855 0.571446 0.142787
162 1 0.500001 0.642866 0.214311
163 1 0.57145 0.571447 0.142779
164 1 0.642861 0.642864 0.214295
165 1 0.714283 0.571428 0.142861
166 1 0.785713 0.642856 0.214287
167 1 0.857143 0.571429 0.142857
168 1 0.928571 0.642857 0.214286
169 1 -1.51324e-10 0.714286 0.142857
170 1 0.0714286 0.785714 0.214286
171 1 0.142857 0.714286 0.142857
172 1 0.214286 0.785714 0.214286
173 1 0.285715 0.714285 0.142857
174 1 0.357143 0.785714 0.214286
175 1 0.428572 0.714284 0.142859
176 1 0.5 0.785711 0.214289
177 1 0.571429 0.714284 0.142859
178 1 0.642857 0.785714 0.214286
179 1 0.714285 0.714285 0.142857
180 1 0.785714 0.785714 0.214286
181 1 0.857143 0.714286 0.142857
182 1 0.928571 0.785714 0.214286
183 1 1.39014e-10 0.857143 0.142857
184 1 0.0714286 0.928571 0.214286
185 1 0.142857 0.857143 0.142857
186 1 0.214286 0.928571 0.214286
187 1 0.285714 0.857143 0.142857
188 1 0.357143 0.928571 0.214286
189 1 0.428571 0.857143 0.142857
190 1 0.5 0.928571 0.214286
191 1 0.571429 0.857143 0.142857
192 1 0.642857 0.928571 0.214286
193 1 0.714286 0.857143 0.142857
194 1 0.785714 0.928571 0.214286
195 1 0.857143 0.857143 0.142857
196 1 0.928571 0.928571 0.214286
197 1 1.30216e-10 1.37313e-10 0.285714
198 1 0.0714286 0.0714286 0.357143
199 1 0.142857 4.42659e-11 0.285714
200 1 0.214286 0.0714286 0.357143
201 1 0.285714 1.06397e-09 0.285714
202 1 0.357143 0.0714286 0.357143
203 1 0.428571 7.8737e-09 0.285714
204 1 0.5 0.071428 0.357143
205 1 0.571429 1.22744e-08 0.285714
206 1 0.642857 0.0714286 0.357143
207 1 0.714286 1.14358e-10 0.285714
208 1 0.785714 0.0714286 0.357143
209 1 0.857143 1.1168e-10 0.285714
210 1 0.928571 0.0714286 0.357143
211 1 7.01134e-11 0.142857 0.285714
212 1 0.0714286 0.214286 0.357143
213 1 0.142857 0.142857 0.285714
214 1 0.214286 0.214286 0.357143
215 1 0.285714 0.142857 0.285714
216 1 0.357145 0.214288 0.357143
217 1 0.428571 0.142857 0.285714
218 1 0.5 0.214239 0.357142
219 1 0.571429 0.142857 0.285714
220 1 0.642855 0.214286 0.357143
221 1 0.714286 0.142857 0.285714
222 1 0.785714 0.214286 0.357143
223 1 0.857143 0.142857 0.285714
224 1 0.928571 0.214286 0.357143
225 1 6.0543e-10 0.285714 0.285714
226 1 0.0714286 0.357143 0.357143
227 1 0.142857 0.285714 0.285714
228 1 0.214287 0.357144 0.357142
229 1 0.285715 0.285715 0.285714
230 1 0.357172 0.357166 0.357107
231 1 0.428547 0.285701 0.285702
232 1 0.499936 0.354625 0.355798
233 1 0.571451 0.285724 0.285719
234 1 0.642882 0.357085 0.357113
235 1 0.714287 0.285713 0.285713
236 1 0.785714 0.357144 0.357142
237 1 0.857143 0.285714 0.285714
238 1 0.928571 0.357143 0.357143
239 1 8.54221e-10 0.428571 0.285714
240 1 0.071428 0.5 0.357143
241 1 0.142857 0.428571 0.285714
242 1 0.214243 0.500006 0.357141
243 1 0.285704 0.428543 0.285691
244 1 0.354153 0.499507 0.356063
245 1 0.428404 0.428276 0.285318
246 1 0.499256 0.497568 0.352283
247 1 0.571609 0.427909 0.28458
248 1 0.646419 0.499844 0.356124
249 1 0.714274 0.428547 0.285704
250 1 0.785778 0.500003 0.357142
251 1 0.857143 0.428571 0.285714
252 1 0.928572 0.5 0.357143
253 1 -2.92912e-09 0.571429 0.285714
254 1 0.0714285 0.642857 0.357143
255 1 0.142857 0.571429 0.285714
256 1 0.214283 0.642857 0.357142
257 1 0.285737 0.571453 0.285724
258 1 0.356919 0.643072 0.357114
259 1 0.427307 0.571933 0.282455
260 1 0.500071 0.647982 0.357021
261 1 0.572762 0.572033 0.282378
262 1 0.643062 0.643029 0.357111
263 1 0.714233 0.571438 0.285731
264 1 0.785716 0.642856 0.357143
265 1 0.857142 0.571429 0.285714
266 1 0.928571 0.642857 0.357143
267 1 -4.31554e-11 0.714286 0.285714
268 1 0.0714286 0.785714 0.357143
269 1 0.142857 0.714286 0.285714
270 1 0.214286 0.785714 0.357143
271 1 0.28571 0.714289 0.28571
272 1 0.357146 0.785715 0.357143
273 1 0.428537 0.714293 0.285686
274 1 0.5 0.785805 0.357143
275 1 0.571465 0.714289 0.285687
276 1 0.642854 0.785714 0.357143
277 1 0.714289 0.714289 0.285711
278 1 0.785714 0.785714 0.357143
279 1 0.857143 0.714286 0.285714
280 1 0.928571 0.785714 0.357143
281 1 1.03391e-10 0.857143 0.285714
282 1 0.0714286 0.928571 0.357143
283 1 0.142857 0.857143 0.285714
284 1 0.214286 0.928571 0.357143
285 1 0.285714 0.857143 0.285714
286 1 0.357143 0.928571 0.357143
287 1 0.428571 0.857144 0.285713
288 1 0.5 0.928573 0.357143
289 1 0.571429 0.857144 0.285713
290 1 0.642857 0.928571 0.357143
291 1 0.714286 0.857143 0.285714
292 1 0.785714 0.928571 0.357143
293 1 0.857143 0.857143 0.285714
294 1 0.928571 0.928571 0.357143
295 1 1.30228e-10 1.36622e-10 0.428571
296 1 0.0714286 0.0714286 0.5
297 1 0.142857 -2.80375e-12 0.428571
298 1 0.214286 0.0714286 0.5
299 1 0.285714 1.56663e-09 0.428571
300 1 0.357143 0.0714286 0.5
301 1 0.428571 -9.28928e-10 0.428571
302 1 0.5 0.0714285 0.5
303 1 0.571429 8.62074e-09 0.428571
304 1 0.642857 0.0714286 0.5
305 1 0.714286 4.14793e-10 0.428571
306 1 0.785714 0.0714286 0.5
307 1 0.857143 7.57718e-11 0.428571
308 1 0.928571 0.0714286 0.5
309 1 7.23966e-11 0.142857 0.428571
310 1 0.0714286 0.214286 0.5
311 1 0.142857 0.142857 0.428571
312 1 0.214286 0.214286 0.5
313 1 0.285714 0.142857 0.428571
314 1 0.357143 0.214285 0.5
315 1 0.428571 0.142856 0.428572
316 1 0.500001 0.214283 0.5
317 1 0.571429 0.142857 0.428572
318 1 0.642857 0.214286 0.5
319 1 0.714286 0.142857 0.428571
320 1 0.785714 0.214286 0.5
321 1 0.857143 0.142857 0.428571
322 1 0.928571 0.214286 0.5
323 1 6.0374e-10 0.285714 0.428571
324 1 0.0714286 0.357143 0.5
325 1 0.142857 0.285714 0.428571
326 1 0.214285 0.357142 0.500001
327 1 0.285718 0.285718 0.428571
328 1 0.357129 0.357119 0.500037
329 1 0.428579 0.28568 0.428586
330 1 0.50001 0.356946 0.500232
331 1 0.571419 0.285717 0.428565
332 1 0.642866 0.357135 0.500009
333 1 0.714284 0.285716 0.428572
334 1 0.785714 0.357143 0.5
335 1 0.857143 0.285714 0.428571
336 1 0.928571 0.357143 0.5
337 1 1.03973e-09 0.428571 0.428571
338 1 0.0714285 0.5 0.5
339 1 0.142856 0.428571 0.428572
340 1 0.214284 0.500001 0.5
341 1 0.285649 0.428561 0.428592
342 1 0.357006 0.499987 0.500199
343 1 0.425599 0.425361 0.431026
344 1 0.500007 0.499404 0.503305
345 1 0.574405 0.425239 0.431504
346 1 0.642987 0.499989 0.500181
347 1 0.71433 0.428563 0.428582
348 1 0.785716 0.500001 0.499999
349 1 0.857144 0.428571 0.428572
350 1 0.928571 0.5 0.5
351 1 -3.24373e-09 0.571429 0.428571
352 1 0.0714286 0.642857 0.5
353 1 0.142857 0.571429 0.428572
354 1 0.214285 0.642857 0.5
355 1 0.285691 0.571446 0.428566
356 1 0.357105 0.642883 0.500012
357 1 0.425245 0.574895 0.432331
358 1 0.499992 0.642969 0.500051
359 1 0.57482 0.57525 0.432557
360 1 0.642904 0.64289 0.50002
361 1 0.714277 0.571427 0.428557
362 1 0.785714 0.642857 0.499999
363 1 0.857143 0.571429 0.428572
364 1 0.928571 0.642857 0.5
365 1 4.80412e-11 0.714286 0.428571
366 1 0.0714286 0.785714 0.5
367 1 0.142857 0.714286 0.428571
368 1 0.214286 0.785714 0.5
369 1 0.285713 0.714287 0.428575
370 1 0.357143 0.785714 0.5
371 1 0.428557 0.714287 0.42859
372 1 0.5 0.785713 0.499997
373 1 0.571445 0.714292 0.42859
374 1 0.642857 0.785714 0.5
375 1 0.714286 0.714286 0.428575
376 1 0.785714 0.785714 0.5
377 1 0.857143 0.714286 0.428571
378 1 0.928571 0.785714 0.5
379 1 9.27696e-11 0.857143 0.428571
380 1 0.0714286 0.928571 0.5
381 1 0.142857 0.857143 0.428571
382 1 0.214286 0.928571 0.5
383 1 0.285714 0.857143 0.428571
384 1 0.357143 0.928571 0.5
385 1 0.428571 0.857144 0.428572
386 1 0.5 0.928571 0.5
387 1 0.571429 0.857144 0.428572
388 1 0.642857 0.928571 0.5
389 1 0.714286 0.857143 0.428571
390 1 0.785714 0.928571 0.5
391 1 0.857143 0.857143 0.428571
392 1 0.928571 0.928571 0.5
393 1 1.28468e-10 1.27973e-10 0.571429
394 1 0.0714286 0.0714286 0.642857
395 1 0.142857 1.84944e-10 0.571429
396 1 0.214286 0.0714286 0.642857
397 1 0.285714 -2.50679e-10 0.571429
398 1 0.357143 0.0714286 0.642857
399 1 0.428571 -9.36315e-10 0.571429
400 1 0.5 0.0714286 0.642857
401 1 0.571429 -1.49554e-09 0.571429
402 1 0.642857 0.0714286 0.642857
403 1 0.714286 2.63384e-10 0.571429
404 1 0.785714 0.0714286 0.642857
405 1 0.857143 1.3994e-10 0.571429
406 1 0.928571 0.0714286 0.642857
407 1 1.59038e-10 0.142857 0.571429
408 1 0.0714286 0.214286 0.642857
409 1 0.142857 0.142857 0.571429
410 1 0.214286 0.214286 0.642857
411 1 0.285714 0.142857 0.571429
412 1 0.357143 0.214286 0.642857
413 1 0.428571 0.142857 0.571429
414 1 0.5 0.214286 0.642857
415 1 0.571429 0.142857 0.571429
416 1 0.642857 0.214286 0.642857
417 1 0.714286 0.142857 0.571429
418 1 0.785714 0.214286 0.642857
419 1 0.857143 0.142857 0.571429
420 1 0.928571 0.214286 0.642857
421 1 -1.34593e-10 0.285714 0.571429
422 1 0.0714286 0.357143 0.642857
423 1 0.142857 0.285714 0.571429
424 1 0.214286 0.357143 0.642857
425 1 0.285714 0.285714 0.571428
426 1 0.357144 0.357144 0.642857
427 1 0.428568 0.285713 0.57143
428 1 0.5 0.357146 0.642858
429 1 0.571433 0.285713 0.57143
430 1 0.642856 0.357144 0.642856
431 1 0.714285 0.285715 0.571428
432 1 0.785714 0.357143 0.642857
433 1 0.857143 0.285714 0.571429
434 1 0.928571 0.357143 0.642857
435 1 -1.37886e-11 0.428571 0.571429
436 1 0.0714286 0.5 0.642857
437 1 0.142857 0.428571 0.571429
438 1 0.214286 0.5 0.642857
439 1 0.285714 0.428568 0.571429
440 1 0.357145 0.499999 0.642859
441 1 0.42857 0.428572 0.571382
442 1 0.5 0.499997 0.642927
443 1 0.57143 0.428573 0.571401
444 1 0.642856 0.499999 0.642859
445 1 0.714286 0.428569 0.571429
446 1 0.785714 0.5 0.642857
447 1 0.857143 0.428571 0.571429
448 1 0.928571 0.5 0.642857
449 1 1.22959e-10 0.571429 0.571429
450 1 0.0714286 0.642857 0.642857
451 1 0.142857 0.571429 0.571429
452 1 0.214286 0.642857 0.642857
453 1 0.285714 0.571432 0.571428
454 1 0.357143 0.642857 0.642857
455 1 0.428557 0.57142 0.571461
456 1 0.5 0.642856 0.642857
457 1 0.571443 0.57142 0.571464
458 1 0.642857 0.642857 0.642857
459 1 0.714285 0.571431 0.571428
460 1 0.785714 0.642857 0.642857
461 1 0.857143 0.571429 0.571429
462 1 0.928571 0.642857 0.642857
463 1 -1.19626e-10 0.714286 0.571429
464 1 0.0714286 0.785714 0.642857
465 1 0.142857 0.714286 0.571429
466 1 0.214286 0.785714 0.642857
467 1 0.285715 0.714285 0.571428
468 1 0.357143 0.785714 0.642857
469 1 0.42857 0.714283 0.571427
470 1 0.5 0.785714 0.642857
471 1 0.57143 0.714283 0.571427
472 1 0.642857 0.785714 0.642857
473 1 0.714286 0.714286 0.571428
474 1 0.785714 0.785714 0.642857
475 1 0.857143 0.714286 0.571429
476 1 0.928571 0.785714 0.642857
477 1 1.37646e-10 0.857143 0.571429
478 1 0.0714286 0.928571 0.642857
479 1 0.142857 0.857143 0.571429
480 1 0.214286 0.928571 0.642857
481 1 0.285714 0.857143 0.571429
482 1 0.357143 0.928571 0.642857
483 1 0.428571 0.857143 0.571429
484 1 0.5 0.928571 0.642857
485 1 0.571429 0.857143 0.571429
486 1 0.642857 0.928571 0.642857
487 1 0.714286 0.857143 0.571429
488 1 0.785714 0.928571 0.642857
489 1 0.857143 0.857143 0.571429
490 1 0.928571 0.928571 0.642857
491 1 1.28991e-10 1.29095e-10 0.714286
492 1 0.0714286 0.0714286 0.785714
493 1 0.142857 1.23075e-10 0.714286
494 1 0.214286 0.0714286 0.785714
495 1 0.285714 1.34143e-10 0.714286
496 1 0.357143 0.0714286 0.785714
497 1 0.428571 1.3584e-10 0.714286
498 1 0.5 0.0714286 0.785714
499 1 0.571429 1.76794e-10 0.714286
500 1 0.642857 0.0714286 0.785714
501 1 0.714286 1.08276e-10 0.714286
502 1 0.785714 0.0714286 0.785714
503 1 0.857143 1.2989e-10 0.714286
504 1 0.928571 0.0714286 0.785714
505 1 1.23687e-10 0.142857 0.714286
506 1 0.0714286 0.214286 0.785714
507 1 0.142857 0.142857 0.714286
508 1 0.214286 0.214286 0.785714
509 1 0.285714 0.142857 0.714286
510 1 0.357143 0.214286 0.785714
511 1 0.428571 0.142857 0.714286
512 1 0.5 0.214286 0.785714
513 1 0.571429 0.142857 0.714286
514 1 0.642857 0.214286 0.785714
515 1 0.714286 0.142857 0.714286
516 1 0.785714 0.214286 0.785714
517 1 0.857143 0.142857 0.714286
518 1 0.928571 0.214286 0.785714
519 1 1.48823e-10 0.285714 0.714286
520 1 0.0714286 0.357143 0.785714
521 1 0.142857 0.285714 0.714286
522 1 0.214286 0.357143 0.785714
523 1 0.285714 0.285714 0.714286
524 1 0.357143 0.357143 0.785714
525 1 0.428571 0.285714 0.714286
526 1 0.5 0.357143 0.785714
527 1 0.571429 0.285714 0.714286
528 1 0.642857 0.357143 0.785714
529 1 0.714286 0.285714 0.714286
530 1 0.785714 0.357143 0.785714
531 1 0.857143 0.285714 0.714286
532 1 0.928571 0.357143 0.785714
533 1 1.04632e-10 0.428571 0.714286
534 1 0.0714286 0.5 0.785714
535 1 0.142857 0.428571 0.714286
536 1 0.214286 0.5 0.785714
537 1 0.285714 0.428571 0.714286
538 1 0.357143 0.5 0.785714
539 1 0.428571 0.428571 0.714286
540 1 0.5 0.5 0.785715
541 1 0.571429 0.428571 0.714286
542 1 0.642857 0.5 0.785714
543 1 0.714286 0.428571 0.714286
544 1 0.785714 0.5 0.785714
545 1 0.857143 0.428571 0.714286
546 1 0.928571 0.5 0.785714
547 1 9.6454e-11 0.571429 0.714286
548 1 0.0714286 0.642857 0.785714
549 1 0.142857 0.571429 0.714286
550 1 0.214286 0.642857 0.785714
551 1 0.285714 0.571429 0.714286
552 1 0.357143 0.642857 0.785714
553 1 0.428571 0.571429 0.714287
554 1 0.5 0.642857 0.785714
555 1 0.571429 0.571429 0.714287
556 1 0.642857 0.642857 0.785714
557 1 0.714286 0.571429 0.714286
558 1 0.785714 0.642857 0.785714
559 1 0.857143 0.571429 0.714286
560 1 0.928571 0.642857 0.785714
561 1 1.39412e-10 0.714286 0.714286
562 1 0.0714286 0.785714 0.785714
563 1 0.142857 0.714286 0.714286
564 1 0.214286 0.785714 0.785714
565 1 0.285714 0.714286 0.714286
566 1 0.357143 0.785714 0.785714
567 1 0.428571 0.714286 0.714286
568 1 0.5 0.785714 0.785714
569 1 0.571429 0.714286 0.714286
570 1 0.642857 0.785714 0.785714
571 1 0.714286 0.714286 0.714286
572 1 0.785714 0.785714 0.785714
573 1 0.857143 0.714286 0.714286
574 1 0.928571 0.785714 0.785714
575 1 1.27649e-10 0.857143 0.714286
576 1 0.0714286 0.928571 0.785714
577 1 0.142857 0.857143 0.714286
578 1 0.214286 0.928571 0.785714
579 1 0.285714 0.857143 0.714286
580 1 0.357143 0.928571 0.785714
581 1 0.428571 0.857143 0.714286
582 1 0.5 0.928571 0.785714
583 1 0.571429 0.857143 0.714286
584 1 0.642857 0.928571 0.785714
585 1 0.714286 0.857143 0.714286
586 1 0.785714 0.928571 0.785714
587 1 0.857143 0.857143 0.714286
588 1 0.928571 0.928571 0.785714
589 1 1.28907e-10 1.28907e-10 0.857143
590 1 0.0714286 0.0714286 0.928571
591 1 0.142857 1.29019e-10 0.857143
592 1 0.214286 0.0714286 0.928571
593 1 0.285714 1.28549e-10 0.857143
594 1 0.357143 0.0714286 0.928571
595 1 0.428571 1.25352e-10 0.857143
596 1 0.5 0.0714286 0.928571
597 1 0.571429 1.25211e-10 0.857143
598 1 0.642857 0.0714286 0.928571
599 1 0.714286 1.29232e-10 0.857143
600 1 0.785714 0.0714286 0.928571
601 1 0.857143 1.28915e-10 0.857143
602 1 0.928571 0.0714286 0.928571
603 1 1.29081e-10 0.142857 0.857143
604 1 0.0714286 0.214286 0.928571
605 1 0.142857 0.142857 0.857143
606 1 0.214286 0.214286 0.928571
607 1 0.285714 0.142857 0.857143
608 1 0.357143 0.214286 0.928571
609 1 0.428571 0.142857 0.857143
610 1 0.5 0.214286 0.928571
611 1 0.571429 0.142857 0.857143
612 1 0.642857 0.214286 0.928571
613 1 0.714286 0.142857 0.857143
614 1 0.785714 0.214286 0.928571
615 1 0.857143 0.142857 0.857143
616 1 0.928571 0.214286 0.928571
617 1 1.28004e-10 0.285714 0.857143
618 1 0.0714286 0.357143 0.928571
619 1 0.142857 0.285714 0.857143
620 1 0.214286 0.357143 0.928571
621 1 0.285714 0.285714 0.857143
622 1 0.357143 0.357143 0.928571
623 1 0.428571 0.285714 0.857143
624 1 0.5 0.357143 0.928571
625 1 0.571429 0.285714 0.857143
626 1 0.642857 0.357143 0.928571
627 1 0.714286 0.285714 0.857143
628 1 0.785714 0.357143 0.928571
629 1 0.857143 0.285714 0.857143
630 1 0.928571 0.357143 0.928571
631 1 1.28385e-10 0.428571 0.857143
632 1 0.0714286 0.5 0.928571
633 1 0.142857 0.428571 0.857143
634 1 0.214286 0.5 0.928571
635 1 0.285714 0.428571 0.857143
636 1 0.357143 0.5 0.928571
637 1 0.428571 0.428571 0.857143
638 1 0.5 0.5 0.928572
639 1 0.571429 0.428571 0.857143
640 1 0.642857 0.5 0.928571
641 1 0.714286 0.428571 0.857143
642 1 0.785714 0.5 0.928571
643 1 0.857143 0.428571 0.857143
644 1 0.928571 0.5 0.928571
645 1 1.27614e-10 0.571429 0.857143
646 1 0.0714286 0.642857 0.928571
647 1 0.142857 0.571429 0.857143
648 1 0.214286 0.642857 0.928571
649 1 0.285714 0.571429 0.857143
650 1 0.357143 0.642857 0.928571
651 1 0.428571 0.571429 0.857143
652 1 0.5 0.642857 0.928571
653 1 0.571429 0.571429 0.857143
654 1 0.642857 0.642857 0.928571
655 1 0.714286 0.571429 0.857143
656 1 0.785714 0.642857 0.928571
657 1 0.857143 0.571429 0.857143
658 1 0.928571 0.642857 0.928571
659 1 1.29296e-10 0.714286 0.857143
660 1 0.0714286 0.785714 0.928571
661 1 0.142857 0.714286 0.857143
662 1 0.214286 0.785714 0.928571
663 1 0.285714 0.714286 0.857143
664 1 0.357143 0.785714 0.928571
665 1 0.428571 0.714286 0.857143
666 1 0.5 0.785714 0.928571
667 1 0.571429 0.714286 0.857143
668 1 0.642857 0.785714 0.928571
669 1 0.714286 0.714286 0.857143
670 1 0.785714 0.785714 0.928571
671 1 0.857143 0.714286 0.857143
672 1 0.928571 0.785714 0.928571
673 1 1.28881e-10 0.857143 0.857143
674 1 0.0714286 0.928571 0.928571
675 1 0.142857 0.857143 0.857143
676 1 0.214286 0.928571 0.928571
677 1 0.285714 0.857143 0.857143
678 1 0.357143 0.928571 0.928571
679 1 0.428571 0.857143 0.857143
680 1 0.5 0.928571 0.928571
681 1 0.571429 0.857143 0.857143
682 1 0.642857 0.928571 0.928571
683 1 0.714286 0.857143 0.857143
684 1 0.785714 0.928571 0.928571
685 1 0.857143 0.857143 0.857143
686 1 0.928571 0.928571 0.928571
687 2 0.500036 0.499836 0.282514
688 2 0.424631 0.536151 0.354144
689 2 0.574247 0.535657 0.354843
690 2 0.572146 0.463177 0.355671
691 2 0.499952 0.464502 0.429478
692 3 0.499936 0.427072 0.393691
693 3 0.427981 0.499139 0.395509
694 3 0.500043 0.536296 0.428207
695 3 0.571938 0.500073 0.39628
696 3 0.536843 0.573626 0.357307
697 3 0.463585 0.57376 0.357303
