ITEM: TIMESTEP
627
ITEM: NUMBER OF ATOMS
688
ITEM: BOX BOUNDS pp pp pp
0.0000000000000000e+00 2.2013900999999997e+01
0.0000000000000000e+00 2.2013900999999997e+01
0.0000000000000000e+00 2.2013900999999997e+01
ITEM: ATOMS id type xs ys zs
123 1 0.428454 0.428416 0.285123
2 1 0.0714538 0.0714164 0.0714489
29 1 2.34099e-05 0.285701 3.5467e-05
4 1 0.214308 0.0714174 0.0714638
126 1 0.857272 0.428572 0.28571
6 1 0.357162 0.0714237 0.0714699
21 1 0.428574 0.142838 6.1462e-05
8 1 0.500015 0.0714375 0.0714711
99 1 5.18448e-05 1.95793e-05 0.285708
10 1 0.642872 0.0714503 0.071447
115 1 0.285662 0.285625 0.285686
12 1 0.785741 0.0714377 0.0714404
114 1 0.142863 0.285686 0.285715
14 1 0.928599 0.0714383 0.0714375
17 1 0.142867 0.142837 3.76148e-05
16 1 0.0714488 0.214278 0.0714526
31 1 0.142858 0.285693 5.54759e-05
18 1 0.214291 0.214262 0.0714769
105 1 0.857186 4.67854e-05 0.285706
20 1 0.35716 0.214275 0.0714956
33 1 0.285706 0.285677 8.22244e-05
22 1 0.500026 0.214288 0.0715008
60 1 0.714321 3.99155e-05 0.142861
24 1 0.64289 0.214272 0.0714792
62 1 0.857178 3.40996e-05 0.142855
26 1 0.785751 0.214285 0.0714598
45 1 0.285712 0.428565 8.31326e-05
28 1 0.9286 0.214278 0.0714414
113 1 4.05087e-05 0.285698 0.28571
30 1 0.071453 0.357136 0.0714569
112 1 0.857189 0.142873 0.285712
32 1 0.214292 0.357137 0.0714744
46 1 0.428598 0.428568 9.44704e-05
34 1 0.357145 0.357128 0.0714651
35 1 0.428579 0.285695 9.93941e-05
36 1 0.500059 0.35714 0.0714892
37 1 0.571471 0.2857 9.11687e-05
38 1 0.64293 0.357139 0.0714749
39 1 0.714333 0.285699 6.08368e-05
40 1 0.785774 0.35715 0.0714629
119 1 0.857223 0.285709 0.285719
42 1 0.928612 0.357141 0.0714473
23 1 0.571441 0.142847 6.30135e-05
118 1 0.714399 0.285699 0.28573
117 1 0.57157 0.285665 0.285724
106 1 3.58504e-05 0.142858 0.285715
47 1 0.571502 0.428561 8.37222e-05
116 1 0.428649 0.285708 0.285766
111 1 0.714329 0.142875 0.285733
110 1 0.571481 0.142869 0.285751
51 1 0.0714674 0.0714247 0.214298
50 1 4.39027e-05 1.78207e-05 0.142859
53 1 0.214321 0.0714212 0.214315
122 1 0.285686 0.42856 0.285687
55 1 0.357177 0.0714326 0.214326
58 1 0.571455 2.81409e-05 0.142872
57 1 0.50003 0.0714562 0.214323
109 1 0.428613 0.14287 0.28576
59 1 0.642892 0.0714575 0.214308
108 1 0.28574 0.142842 0.285746
61 1 0.785756 0.0714517 0.214291
107 1 0.14289 0.142838 0.285734
63 1 0.928614 0.0714467 0.214289
64 1 2.55039e-05 0.142856 0.142873
65 1 0.071453 0.214265 0.214295
66 1 0.142879 0.142839 0.142887
67 1 0.214291 0.214252 0.214296
68 1 0.285738 0.142843 0.1429
69 1 0.357178 0.214277 0.214339
70 1 0.428596 0.14287 0.142917
71 1 0.50004 0.214306 0.21434
72 1 0.571457 0.142881 0.1429
73 1 0.64293 0.214288 0.214311
74 1 0.714318 0.142868 0.142879
75 1 0.785766 0.214295 0.214289
76 1 0.857181 0.142873 0.142864
77 1 0.928611 0.214286 0.214289
78 1 2.80491e-05 0.285712 0.142874
79 1 0.0714585 0.357133 0.214293
80 1 0.142876 0.285701 0.142884
81 1 0.214288 0.357129 0.214299
82 1 0.285707 0.28568 0.142878
83 1 0.357101 0.357057 0.214209
84 1 0.428617 0.285713 0.142925
85 1 0.500131 0.357141 0.214257
86 1 0.571495 0.285717 0.142904
87 1 0.643027 0.357109 0.214275
88 1 0.714362 0.285713 0.142887
89 1 0.785815 0.357145 0.214296
90 1 0.8572 0.285706 0.142866
91 1 0.928633 0.357142 0.21428
92 1 4.49411e-05 0.42858 0.142867
93 1 0.14289 0.428572 0.142877
94 1 0.285739 0.428583 0.142886
95 1 0.428593 0.428556 0.142758
96 1 0.571572 0.428561 0.142818
97 1 0.71439 0.428598 0.142884
98 1 0.857216 0.428592 0.142863
121 1 0.142861 0.428553 0.285701
125 1 0.71451 0.428567 0.285714
124 1 0.571836 0.428434 0.285549
102 1 0.428624 7.86693e-06 0.285742
103 1 0.571471 3.08078e-05 0.285727
104 1 0.714332 4.70483e-05 0.285707
120 1 6.04247e-05 0.428569 0.285698
49 1 0.857197 0.428576 3.59672e-05
44 1 0.142872 0.428567 5.38456e-05
25 1 0.714306 0.142841 4.49495e-05
56 1 0.428602 1.65692e-05 0.142877
19 1 0.285718 0.142835 6.47322e-05
48 1 0.714349 0.428574 6.90072e-05
27 1 0.857176 0.142855 2.98315e-05
43 1 2.91383e-05 0.428569 3.01501e-05
41 1 0.857176 0.285703 4.01936e-05
15 1 1.91792e-05 0.142848 2.81101e-05
13 1 0.857174 1.5193e-05 1.27705e-05
9 1 0.571439 9.54789e-06 2.23596e-05
54 1 0.28575 7.55732e-06 0.142881
11 1 0.714304 2.02802e-05 4.8628e-06
52 1 0.142894 3.59928e-06 0.142877
1 1 3.18718e-05 2.95707e-06 2.21353e-05
127 1 0.0714642 0.0714231 0.357152
128 1 0.214328 0.0714059 0.357167
129 1 0.357187 0.0714078 0.357176
130 1 0.500035 0.0714333 0.357176
131 1 0.642899 0.0714473 0.357161
132 1 0.785755 0.0714503 0.357147
133 1 0.928613 0.0714436 0.357141
134 1 0.071459 0.21427 0.357155
135 1 0.214307 0.214252 0.357171
136 1 0.357179 0.214248 0.357208
137 1 0.500053 0.214283 0.357225
138 1 0.642942 0.214266 0.357191
139 1 0.785776 0.214284 0.357158
140 1 0.928627 0.214277 0.357151
141 1 0.0714442 0.357112 0.357149
142 1 0.214233 0.357069 0.35714
143 1 0.356909 0.35687 0.356959
144 1 0.500362 0.357032 0.357076
145 1 0.643117 0.357069 0.357184
146 1 0.78587 0.357122 0.357168
147 1 0.928647 0.357129 0.357152
687 2 0.427548 0.46386 0.499881
149 1 0.0714655 0.0714189 0.500005
245 1 0.857302 0.428526 0.57153
151 1 0.214315 0.0713987 0.500008
244 1 0.714622 0.42844 0.571683
153 1 0.357176 0.0713868 0.500035
243 1 0.572022 0.428171 0.572051
155 1 0.500036 0.0713984 0.500035
156 1 0.571477 2.55623e-06 0.428589
157 1 0.6429 0.0714144 0.50003
158 1 0.714335 2.42621e-05 0.428581
159 1 0.785765 0.0714306 0.500014
546 1 0.928655 0.499994 0.64292
161 1 0.928616 0.0714291 0.500004
162 1 4.0317e-05 0.142846 0.428577
163 1 0.071454 0.21425 0.500022
164 1 0.142886 0.142829 0.428591
165 1 0.214291 0.214231 0.500049
166 1 0.285742 0.142822 0.428607
167 1 0.357161 0.214237 0.500086
168 1 0.428614 0.14285 0.428632
169 1 0.500058 0.214245 0.500097
170 1 0.571475 0.142834 0.428633
171 1 0.642939 0.214226 0.500087
172 1 0.714343 0.142844 0.428598
173 1 0.785792 0.214252 0.500046
174 1 0.857192 0.142861 0.428584
175 1 0.928619 0.214266 0.500015
176 1 3.41337e-05 0.285687 0.428579
177 1 0.0714286 0.357112 0.500031
178 1 0.142857 0.285674 0.428601
179 1 0.214233 0.357104 0.500087
180 1 0.285693 0.285634 0.428636
181 1 0.356987 0.356971 0.500165
182 1 0.428633 0.28571 0.428714
183 1 0.500315 0.357057 0.500135
184 1 0.571579 0.285635 0.428675
185 1 0.643137 0.357034 0.500165
186 1 0.71442 0.285677 0.428638
187 1 0.78588 0.357095 0.50009
188 1 0.85723 0.285695 0.4286
189 1 0.928648 0.357109 0.500029
190 1 4.3045e-05 0.428547 0.428586
191 1 0.142783 0.42851 0.428582
192 1 0.285589 0.42845 0.428552
193 1 0.42852 0.427423 0.426327
194 1 0.571932 0.428297 0.42866
195 1 0.714607 0.428526 0.428631
196 1 0.85731 0.428555 0.428594
242 1 0.428515 0.427528 0.574097
198 1 0.0714551 0.0714071 0.642865
241 1 0.285542 0.428399 0.571738
200 1 0.214298 0.0713837 0.642888
160 1 0.857189 2.4673e-05 0.428565
202 1 0.357158 0.071373 0.642895
148 1 5.31774e-05 1.04059e-05 0.428573
204 1 0.500019 0.0713659 0.642912
240 1 0.14275 0.428489 0.571559
206 1 0.642892 0.0713854 0.642896
207 1 0.714331 9.12342e-06 0.571448
208 1 0.785756 0.071405 0.642882
494 1 0.502648 0.499862 0.502831
210 1 0.928606 0.0714173 0.642869
211 1 3.09341e-05 0.142838 0.571447
212 1 0.0714292 0.214238 0.642893
213 1 0.142873 0.142821 0.571454
214 1 0.214276 0.214207 0.642933
215 1 0.285723 0.142801 0.571478
216 1 0.357144 0.214197 0.642962
217 1 0.428591 0.142821 0.571496
218 1 0.500021 0.214194 0.642973
219 1 0.571463 0.1428 0.571497
220 1 0.642933 0.214178 0.642968
221 1 0.714335 0.142809 0.571479
222 1 0.785784 0.214228 0.642927
223 1 0.857186 0.142839 0.571447
224 1 0.928614 0.214243 0.6429
225 1 2.84608e-05 0.285672 0.571475
226 1 0.0714079 0.357079 0.642941
227 1 0.142839 0.285656 0.571486
228 1 0.214188 0.357036 0.643027
229 1 0.285669 0.2856 0.571561
230 1 0.356869 0.356842 0.643305
231 1 0.428621 0.285702 0.571535
232 1 0.500285 0.35689 0.643284
233 1 0.571565 0.285574 0.571606
234 1 0.643129 0.356936 0.643164
235 1 0.714426 0.28562 0.571546
236 1 0.785877 0.357054 0.643008
237 1 0.857226 0.285656 0.571488
238 1 0.928635 0.357087 0.642931
239 1 3.34418e-05 0.428532 0.571497
492 1 0.213713 0.499976 0.500138
544 1 0.643111 0.499959 0.643149
466 1 0.500269 0.499098 0.354784
464 1 0.214196 0.499959 0.357142
209 1 0.857198 7.94594e-06 0.571432
495 1 0.643729 0.499887 0.500313
541 1 0.214209 0.49996 0.643008
545 1 0.785898 0.499978 0.643004
540 1 0.0714174 0.499987 0.642936
467 1 0.64322 0.499932 0.357133
496 1 0.786083 0.499965 0.50013
491 1 0.071349 0.499983 0.500055
463 1 0.0714359 0.499987 0.357136
468 1 0.785982 0.49999 0.357134
497 1 0.928686 0.499997 0.500042
343 1 0.857194 0.428561 0.857218
247 1 0.0714424 0.0714103 0.785739
307 1 0.857173 2.05826e-07 0.857162
249 1 0.21429 0.0713821 0.785749
593 1 0.642972 0.499979 0.785921
251 1 0.357141 0.0713805 0.78576
589 1 0.07143 0.499995 0.785797
253 1 0.500004 0.0713784 0.785766
342 1 0.714359 0.428547 0.857258
255 1 0.642878 0.0713851 0.785761
341 1 0.571488 0.428518 0.857348
257 1 0.785751 0.0714 0.785747
340 1 0.428564 0.428523 0.85742
259 1 0.928595 0.0714107 0.785744
260 1 2.773e-05 0.142823 0.714319
261 1 0.0714238 0.214234 0.78577
262 1 0.142851 0.142802 0.714322
263 1 0.214252 0.21421 0.785822
264 1 0.285703 0.142777 0.714347
265 1 0.357133 0.214203 0.785828
266 1 0.428567 0.142784 0.714369
267 1 0.500009 0.214204 0.785848
268 1 0.571456 0.142776 0.71436
269 1 0.642914 0.214192 0.78584
270 1 0.714324 0.142793 0.714357
271 1 0.785774 0.21422 0.785802
272 1 0.857187 0.142816 0.714331
273 1 0.928607 0.214237 0.785771
274 1 1.51589e-05 0.285665 0.714345
275 1 0.0714216 0.357114 0.785791
276 1 0.142812 0.285643 0.714384
277 1 0.214244 0.357089 0.785846
278 1 0.285621 0.285571 0.714486
279 1 0.357066 0.35701 0.785991
280 1 0.428577 0.285619 0.714475
281 1 0.500079 0.35701 0.78601
282 1 0.57154 0.285562 0.714519
283 1 0.642962 0.357046 0.785921
284 1 0.714404 0.285594 0.714442
285 1 0.785795 0.357091 0.785826
286 1 0.857217 0.28566 0.714372
287 1 0.928616 0.357108 0.785784
288 1 2.18057e-05 0.428546 0.714356
289 1 0.142824 0.428533 0.714405
290 1 0.285669 0.42852 0.714511
291 1 0.428542 0.428434 0.715101
292 1 0.571593 0.428441 0.714674
293 1 0.71444 0.428506 0.714479
294 1 0.857234 0.428535 0.714386
590 1 0.21425 0.499984 0.785849
296 1 0.0714452 0.0714136 0.928602
595 1 0.928624 0.499997 0.785784
298 1 0.214293 0.0714029 0.928612
594 1 0.785811 0.499985 0.78581
300 1 0.357145 0.0714039 0.928624
592 1 0.500081 0.499995 0.786102
302 1 0.500001 0.0714029 0.928619
339 1 0.285679 0.428538 0.857295
304 1 0.642878 0.0714146 0.928613
338 1 0.14285 0.428551 0.857226
306 1 0.785736 0.0714204 0.928606
337 1 2.11472e-05 0.428562 0.8572
308 1 0.928598 0.0714262 0.928594
309 1 1.35413e-05 0.142831 0.857176
310 1 0.0714334 0.21426 0.928619
311 1 0.142851 0.142814 0.857193
312 1 0.214267 0.214241 0.92864
313 1 0.285703 0.142812 0.857209
314 1 0.357133 0.214241 0.928669
315 1 0.42857 0.142801 0.857219
316 1 0.500014 0.214245 0.928667
317 1 0.571438 0.142814 0.857215
318 1 0.642902 0.214241 0.928662
319 1 0.714316 0.142816 0.857207
320 1 0.785747 0.214263 0.928627
321 1 0.85718 0.142832 0.857184
322 1 0.928598 0.214267 0.928614
323 1 1.56513e-05 0.285683 0.8572
324 1 0.0714305 0.357124 0.928631
325 1 0.142839 0.285678 0.857223
326 1 0.214271 0.357119 0.928661
327 1 0.285665 0.285639 0.857285
328 1 0.357125 0.357097 0.928721
329 1 0.428573 0.285627 0.857299
330 1 0.500036 0.357101 0.928732
331 1 0.571476 0.285626 0.857305
332 1 0.642911 0.357104 0.928687
333 1 0.714346 0.285651 0.857257
334 1 0.785768 0.357121 0.928637
335 1 0.857179 0.28567 0.857209
336 1 0.928604 0.357125 0.928618
639 1 0.214282 0.499995 0.928658
258 1 0.857178 3.79538e-06 0.714305
348 1 0.642952 0.500037 0.0714609
462 1 0.857232 0.857214 0.285695
353 1 0.142878 0.57144 4.20386e-05
361 1 0.714361 0.571462 4.36646e-05
461 1 0.714376 0.857219 0.285699
444 1 0.285697 0.571467 0.285695
460 1 0.571516 0.857202 0.285714
443 1 0.142886 0.571437 0.285709
352 1 0.0714687 0.642878 0.0714473
381 1 0.14289 0.85716 1.51631e-05
354 1 0.214316 0.64288 0.0714695
5 1 0.285731 0.999993 3.80357e-05
356 1 0.357179 0.642903 0.0714585
357 1 0.428601 0.571462 7.00019e-05
358 1 0.500076 0.642903 0.0714563
440 1 0.857209 0.857202 0.142831
360 1 0.642964 0.642928 0.0714296
442 1 8.56459e-05 0.57146 0.285701
362 1 0.785802 0.642907 0.0714228
454 1 0.714514 0.714437 0.285633
364 1 0.928642 0.642882 0.0714263
453 1 0.571598 0.714393 0.285694
366 1 0.0714718 0.78575 0.0714298
369 1 0.285748 0.714312 4.09028e-05
368 1 0.214327 0.785737 0.0714475
355 1 0.285724 0.571455 6.51223e-05
370 1 0.35718 0.785733 0.0714569
439 1 0.785778 0.928634 0.214267
372 1 0.50005 0.785755 0.0714418
452 1 0.428685 0.714363 0.285714
374 1 0.642921 0.785777 0.0714202
451 1 0.285728 0.714378 0.285675
376 1 0.785785 0.785783 0.0714076
450 1 0.142885 0.714352 0.285679
378 1 0.928639 0.785762 0.0714134
449 1 8.44719e-05 0.714348 0.285688
380 1 0.0714654 0.928582 0.0714288
345 1 0.214302 0.500004 0.0714681
382 1 0.214314 0.928571 0.0714528
438 1 0.714354 0.857206 0.142835
384 1 0.357168 0.928587 0.0714598
448 1 0.857297 0.571479 0.285699
386 1 0.500027 0.928606 0.0714497
447 1 0.714519 0.571487 0.285725
388 1 0.642888 0.928612 0.0714347
446 1 0.571758 0.571614 0.285648
390 1 0.785756 0.928616 0.0714257
445 1 0.428582 0.57155 0.285668
392 1 0.92862 0.928593 0.0714265
459 1 0.428662 0.857167 0.285737
441 1 0.928631 0.928615 0.21427
395 1 0.357179 0.500068 0.214234
458 1 0.285785 0.857156 0.285737
457 1 0.142937 0.857155 0.285717
456 1 8.91668e-05 0.857178 0.285705
455 1 0.8573 0.714379 0.285667
400 1 6.77748e-05 0.571451 0.142853
401 1 0.0714951 0.642888 0.214273
402 1 0.142901 0.57144 0.14287
403 1 0.214329 0.6429 0.214272
404 1 0.285742 0.57147 0.142879
405 1 0.357193 0.642933 0.214252
406 1 0.428613 0.571511 0.142831
407 1 0.500132 0.642924 0.214283
408 1 0.571597 0.571537 0.142809
409 1 0.643051 0.642978 0.214229
410 1 0.714408 0.571489 0.142855
411 1 0.785859 0.642937 0.214259
412 1 0.857235 0.571467 0.142843
413 1 0.92867 0.642904 0.214257
414 1 6.92456e-05 0.714325 0.142848
415 1 0.0714916 0.785753 0.214271
416 1 0.142898 0.714314 0.142862
417 1 0.214339 0.785754 0.214286
418 1 0.285766 0.71432 0.142862
419 1 0.357222 0.785746 0.214311
420 1 0.428651 0.714336 0.142877
421 1 0.500086 0.785767 0.214295
422 1 0.571528 0.714357 0.142857
423 1 0.642973 0.7858 0.214265
424 1 0.714405 0.714375 0.14282
425 1 0.785832 0.785812 0.214238
426 1 0.857232 0.714343 0.14283
427 1 0.928665 0.785779 0.21425
428 1 5.21105e-05 0.857179 0.142847
429 1 0.0714879 0.928596 0.214283
430 1 0.142907 0.857168 0.142869
431 1 0.214333 0.928572 0.214304
432 1 0.28576 0.857158 0.142876
433 1 0.357197 0.928583 0.214309
434 1 0.428627 0.857166 0.142881
435 1 0.500053 0.928603 0.214298
436 1 0.571487 0.8572 0.142856
437 1 0.642914 0.928632 0.21428
396 1 0.500158 0.500067 0.213805
399 1 0.928653 0.500016 0.214271
398 1 0.785844 0.500039 0.214279
397 1 0.643025 0.500065 0.214286
359 1 0.5715 0.571469 5.81929e-05
101 1 0.285765 0.999989 0.285746
394 1 0.214312 0.500009 0.214304
393 1 0.0714774 0.500009 0.214289
347 1 0.500074 0.500042 0.0714001
349 1 0.785788 0.500026 0.0714439
383 1 0.285734 0.857165 2.93189e-05
367 1 0.142874 0.714312 2.72307e-05
371 1 0.428599 0.71432 4.69844e-05
3 1 0.142879 0.999996 2.32715e-05
350 1 0.928617 0.50002 0.0714447
100 1 0.142908 1 0.285726
346 1 0.357176 0.500036 0.0714762
365 1 4.66779e-05 0.714313 1.21063e-05
351 1 3.85118e-05 0.57144 1.75529e-05
385 1 0.428594 0.857167 1.98519e-05
387 1 0.571455 0.857175 7.45655e-06
373 1 0.571483 0.71434 2.35183e-05
363 1 0.857206 0.571447 2.41201e-05
344 1 0.0714746 0.500006 0.0714532
375 1 0.714347 0.714344 6.28458e-06
379 1 3.9101e-05 0.85717 6.39445e-06
377 1 0.857196 0.714323 4.13998e-06
7 1 0.428586 0.999999 3.69363e-05
389 1 0.714331 0.85718 3.35787e-06
205 1 0.571466 0.999979 0.571451
688 2 0.499955 0.53616 0.42827
199 1 0.142889 0.999975 0.571433
197 1 4.35937e-05 0.999994 0.571428
588 1 0.928631 0.928597 0.642866
587 1 0.857227 0.857195 0.571437
586 1 0.785765 0.928602 0.642878
470 1 0.0714528 0.642913 0.357114
471 1 0.214175 0.642984 0.357066
472 1 0.356986 0.643112 0.356942
473 1 0.500185 0.643021 0.357049
474 1 0.643306 0.643134 0.356948
475 1 0.786012 0.642998 0.357096
476 1 0.928708 0.64293 0.357121
477 1 0.0714998 0.785749 0.357145
478 1 0.214364 0.785742 0.357161
479 1 0.357246 0.785732 0.357188
480 1 0.500128 0.78574 0.357175
481 1 0.642995 0.785796 0.357163
482 1 0.785853 0.785798 0.357133
483 1 0.928679 0.785773 0.357122
484 1 0.0714971 0.928586 0.357144
485 1 0.214357 0.928561 0.357159
486 1 0.357211 0.928563 0.357165
487 1 0.500075 0.92858 0.357154
488 1 0.642929 0.928611 0.357149
489 1 0.785782 0.928634 0.357139
490 1 0.928645 0.92862 0.357135
203 1 0.428594 0.999957 0.571453
150 1 0.142907 0.999991 0.42858
493 1 0.354552 0.500955 0.50029
585 1 0.714365 0.857182 0.571452
581 1 0.428646 0.85711 0.57146
584 1 0.642897 0.928571 0.642885
583 1 0.571507 0.857135 0.571467
498 1 6.15741e-05 0.571469 0.428576
499 1 0.0714465 0.642905 0.500048
500 1 0.142697 0.571484 0.428572
501 1 0.214181 0.642911 0.500119
502 1 0.285013 0.571657 0.428416
503 1 0.356992 0.642981 0.500377
504 1 0.426267 0.572507 0.428606
505 1 0.500093 0.642807 0.500338
506 1 0.574122 0.572411 0.428633
507 1 0.64328 0.643041 0.500352
508 1 0.71508 0.571523 0.428615
509 1 0.786008 0.642969 0.500106
510 1 0.857411 0.571477 0.428587
511 1 0.928707 0.642909 0.500027
512 1 8.94159e-05 0.714335 0.42856
513 1 0.071498 0.785746 0.500011
514 1 0.14289 0.714321 0.428596
515 1 0.214339 0.78573 0.500026
516 1 0.285756 0.714304 0.428624
517 1 0.357232 0.785696 0.500058
518 1 0.428728 0.714234 0.428669
519 1 0.500112 0.785678 0.500058
520 1 0.571549 0.714228 0.428667
521 1 0.642991 0.785757 0.500042
522 1 0.714494 0.714355 0.428613
523 1 0.785843 0.785788 0.50002
524 1 0.857294 0.714363 0.428577
525 1 0.928677 0.785775 0.500008
526 1 7.87749e-05 0.857176 0.428567
527 1 0.0714921 0.928582 0.499998
528 1 0.142928 0.857156 0.428585
529 1 0.214337 0.92855 0.500014
530 1 0.285789 0.85713 0.428605
531 1 0.357208 0.928546 0.500018
532 1 0.428673 0.857117 0.428604
533 1 0.50006 0.928548 0.500017
534 1 0.571528 0.857146 0.428594
535 1 0.642919 0.928581 0.500011
536 1 0.71439 0.857202 0.428583
537 1 0.785791 0.928606 0.49999
538 1 0.857235 0.857203 0.428565
539 1 0.928633 0.9286 0.49999
201 1 0.285749 0.99996 0.571445
582 1 0.50004 0.928544 0.642886
542 1 0.357031 0.500071 0.643206
580 1 0.357178 0.928541 0.642877
579 1 0.285763 0.857139 0.571455
469 1 0.928695 0.500013 0.357128
154 1 0.428615 0.999973 0.428588
547 1 4.10938e-05 0.571455 0.571493
548 1 0.0714224 0.642906 0.642934
549 1 0.142749 0.571467 0.571552
550 1 0.214212 0.642937 0.643044
551 1 0.285404 0.571629 0.571854
552 1 0.35711 0.642931 0.643125
553 1 0.428557 0.57163 0.571946
554 1 0.500129 0.642882 0.643148
555 1 0.57195 0.571677 0.572037
556 1 0.643112 0.64297 0.643134
557 1 0.714633 0.571481 0.571637
558 1 0.785882 0.642919 0.642971
559 1 0.857312 0.571469 0.571521
560 1 0.928664 0.642904 0.64292
561 1 7.47807e-05 0.714335 0.57147
562 1 0.0714628 0.78574 0.642882
563 1 0.142855 0.714328 0.571494
564 1 0.214303 0.785744 0.642924
565 1 0.285694 0.71437 0.571579
566 1 0.357192 0.785719 0.642925
567 1 0.428648 0.714314 0.571576
568 1 0.500072 0.78571 0.642931
569 1 0.571572 0.714324 0.57158
570 1 0.642958 0.785758 0.642921
571 1 0.714505 0.714398 0.571561
572 1 0.785828 0.785784 0.642909
573 1 0.857288 0.714361 0.57149
574 1 0.92865 0.785762 0.642882
575 1 6.02641e-05 0.857173 0.571435
576 1 0.0714662 0.928584 0.642868
577 1 0.142908 0.857151 0.571431
578 1 0.214317 0.928558 0.642868
152 1 0.285763 0.999977 0.428585
465 1 0.356987 0.500003 0.357034
543 1 0.500235 0.500016 0.643793
686 1 0.928605 0.928584 0.928585
685 1 0.857184 0.857177 0.857164
391 1 0.85719 0.857178 0.999996
642 1 0.642923 0.500004 0.928679
684 1 0.785748 0.928592 0.92858
295 1 2.48788e-05 0.999996 0.857155
250 1 0.285728 0.99997 0.714306
596 1 2.77882e-05 0.571446 0.714343
597 1 0.071432 0.642874 0.785773
598 1 0.142842 0.571425 0.714392
599 1 0.214265 0.642886 0.785835
600 1 0.285647 0.571452 0.714508
601 1 0.357134 0.642872 0.785875
602 1 0.428573 0.571434 0.714619
603 1 0.500058 0.642869 0.785879
604 1 0.571623 0.571486 0.714638
605 1 0.642981 0.642905 0.785868
606 1 0.714441 0.571447 0.714455
607 1 0.785801 0.642888 0.785792
608 1 0.857236 0.571444 0.714375
609 1 0.928627 0.642876 0.785762
610 1 4.31065e-05 0.714314 0.714335
611 1 0.0714486 0.785735 0.785755
612 1 0.142849 0.714336 0.714368
613 1 0.214297 0.785732 0.785768
614 1 0.285707 0.714318 0.714404
615 1 0.357161 0.785722 0.785772
616 1 0.428616 0.714285 0.714411
617 1 0.500033 0.785734 0.785777
618 1 0.571523 0.71432 0.714411
619 1 0.642914 0.785754 0.785772
620 1 0.714421 0.714355 0.714408
621 1 0.785785 0.785757 0.785765
622 1 0.857231 0.714343 0.714345
623 1 0.928625 0.785754 0.785754
624 1 4.23502e-05 0.857169 0.714306
625 1 0.0714505 0.928572 0.78573
626 1 0.142882 0.857154 0.714318
627 1 0.214307 0.928559 0.785739
628 1 0.285735 0.857133 0.714322
629 1 0.357162 0.928549 0.785733
630 1 0.428605 0.857124 0.714325
631 1 0.500012 0.928561 0.785743
632 1 0.571478 0.857139 0.714315
633 1 0.642888 0.928568 0.78574
634 1 0.714343 0.857179 0.714317
635 1 0.785752 0.928592 0.785741
636 1 0.857198 0.857182 0.714312
637 1 0.928611 0.928583 0.785731
254 1 0.571442 0.999965 0.714313
683 1 0.714325 0.857184 0.857166
640 1 0.357139 0.500004 0.92871
299 1 0.285714 0.999968 0.857178
246 1 2.65392e-05 0.999992 0.7143
641 1 0.500044 0.500011 0.928717
301 1 0.428569 0.999971 0.85718
645 1 2.55507e-05 0.571439 0.85719
646 1 0.0714467 0.642869 0.928611
647 1 0.142855 0.57143 0.857223
648 1 0.214291 0.642866 0.928634
649 1 0.285681 0.571438 0.857283
650 1 0.357158 0.642883 0.928656
651 1 0.428587 0.571436 0.857321
652 1 0.500039 0.642886 0.928658
653 1 0.571516 0.571457 0.857316
654 1 0.642922 0.64291 0.928637
655 1 0.714359 0.571448 0.857235
656 1 0.785774 0.642887 0.928604
657 1 0.857206 0.571439 0.857195
658 1 0.928618 0.642873 0.928598
659 1 2.01805e-05 0.714306 0.85717
660 1 0.0714525 0.785736 0.928604
661 1 0.142866 0.714313 0.857199
662 1 0.214296 0.785728 0.928609
663 1 0.28571 0.714305 0.857218
664 1 0.357153 0.785723 0.928608
665 1 0.428594 0.7143 0.857227
666 1 0.500025 0.785736 0.928615
667 1 0.571486 0.714315 0.857227
668 1 0.642893 0.785752 0.928597
669 1 0.714356 0.714324 0.857199
670 1 0.785767 0.785755 0.928588
671 1 0.857193 0.71432 0.857177
672 1 0.928614 0.785745 0.928582
673 1 2.94125e-05 0.857167 0.857161
674 1 0.0714561 0.928581 0.928596
675 1 0.142876 0.85715 0.857175
676 1 0.214304 0.928574 0.928603
677 1 0.285729 0.857141 0.857172
678 1 0.357152 0.928564 0.9286
679 1 0.428584 0.857145 0.857172
680 1 0.500017 0.928573 0.928598
681 1 0.571452 0.857148 0.857164
682 1 0.642875 0.928591 0.928584
252 1 0.42859 0.999957 0.714315
591 1 0.357089 0.500002 0.785987
256 1 0.714316 0.999984 0.714312
644 1 0.928604 0.500006 0.928609
303 1 0.57143 0.999978 0.857178
248 1 0.142876 0.999979 0.714304
297 1 0.142875 0.999978 0.85718
643 1 0.785779 0.500008 0.928634
305 1 0.714316 0.999991 0.857176
638 1 0.0714409 0.500003 0.928622
