ITEM: TIMESTEP
37
ITEM: NUMBER OF ATOMS
684
ITEM: BOX BOUNDS pp pp pp
0.0000000000000000e+00 2.2009546999999998e+01
0.0000000000000000e+00 2.2009546999999998e+01
0.0000000000000000e+00 2.2009546999999998e+01
ITEM: ATOMS id type xs ys zs
175 1 0.856861 0.42865 0.42865
2 1 0.0714368 0.0714368 0.0714368
174 1 0.7133 0.42917 0.42917
4 1 0.214317 0.0714329 0.0714329
173 1 0.5701 0.43046 0.43046
6 1 0.357171 0.0714343 0.0714343
172 1 0.429946 0.429946 0.429946
8 1 0.500005 0.0714386 0.0714386
171 1 0.286046 0.428573 0.428573
10 1 0.642836 0.0714443 0.0714443
170 1 0.142921 0.428576 0.428576
12 1 0.785677 0.0714465 0.0714465
169 1 0.999929 0.428594 0.428594
14 1 0.928541 0.0714436 0.0714436
517 1 0.785313 0.499987 0.499987
16 1 0.0714329 0.214317 0.0714329
147 1 0.85695 0.428652 0.285867
18 1 0.214327 0.214327 0.0714312
146 1 0.714006 0.428742 0.286079
20 1 0.35718 0.214336 0.0714308
145 1 0.571438 0.428664 0.286185
22 1 0.500005 0.214342 0.0714359
144 1 0.428573 0.428573 0.286046
24 1 0.642824 0.214347 0.0714458
143 1 0.285904 0.428673 0.285904
26 1 0.785657 0.214346 0.0714529
142 1 0.14293 0.428609 0.285789
28 1 0.928528 0.21433 0.0714423
141 1 0.999942 0.428605 0.285781
30 1 0.0714343 0.357171 0.0714343
140 1 0.928425 0.357216 0.357216
32 1 0.214336 0.35718 0.0714308
139 1 0.856964 0.285852 0.285852
34 1 0.357175 0.357175 0.0714252
138 1 0.785314 0.357432 0.357432
36 1 0.500008 0.357198 0.0714435
137 1 0.714029 0.285991 0.285991
38 1 0.642824 0.357192 0.0714551
136 1 0.642239 0.357843 0.357843
40 1 0.785646 0.357194 0.0714649
135 1 0.571348 0.28593 0.28593
42 1 0.928524 0.35718 0.0714462
134 1 0.500072 0.357762 0.357762
133 1 0.428673 0.285904 0.285904
132 1 0.357692 0.357692 0.357692
131 1 0.28592 0.28592 0.28592
130 1 0.214435 0.357212 0.357212
129 1 0.142914 0.28577 0.28577
128 1 0.0714252 0.357175 0.357175
168 1 0.85695 0.285867 0.428652
51 1 0.0714329 0.0714329 0.214317
167 1 0.714006 0.286079 0.428742
53 1 0.214327 0.0714312 0.214327
166 1 0.571438 0.286185 0.428664
55 1 0.35718 0.0714308 0.214336
165 1 0.428573 0.286046 0.428573
57 1 0.500005 0.0714359 0.214342
164 1 0.285904 0.285904 0.428673
59 1 0.642824 0.0714458 0.214347
163 1 0.14293 0.285789 0.428609
61 1 0.785657 0.0714529 0.214346
162 1 0.999942 0.285781 0.428605
63 1 0.928528 0.0714423 0.21433
64 1 0.999977 0.142887 0.142887
65 1 0.0714312 0.214327 0.214327
66 1 0.142888 0.142888 0.142888
67 1 0.214365 0.214365 0.214365
68 1 0.285753 0.142886 0.142886
69 1 0.357199 0.214363 0.214363
70 1 0.428592 0.142893 0.142893
71 1 0.500006 0.214375 0.214375
72 1 0.571414 0.142899 0.142899
73 1 0.642796 0.214387 0.214387
74 1 0.714239 0.142906 0.142906
75 1 0.785595 0.214403 0.214403
76 1 0.857082 0.142906 0.142906
77 1 0.928496 0.214351 0.214351
78 1 0.99997 0.285754 0.142891
79 1 0.0714308 0.35718 0.214336
80 1 0.142886 0.285753 0.142886
81 1 0.214363 0.357199 0.214363
82 1 0.28577 0.28577 0.142914
83 1 0.357212 0.357212 0.214435
84 1 0.428609 0.285789 0.14293
85 1 0.500018 0.357292 0.21451
86 1 0.5714 0.285798 0.142943
87 1 0.642764 0.357256 0.214509
88 1 0.714209 0.285798 0.142953
89 1 0.785565 0.357249 0.214451
90 1 0.857062 0.28578 0.142924
91 1 0.928485 0.357198 0.214362
92 1 0.99997 0.428593 0.142897
93 1 0.142893 0.428592 0.142893
94 1 0.285789 0.428609 0.14293
95 1 0.428576 0.428576 0.142921
96 1 0.571427 0.428593 0.142959
97 1 0.714195 0.428621 0.142993
98 1 0.857055 0.42861 0.142935
161 1 0.857055 0.142935 0.42861
100 1 0.0714343 0.0714343 0.357171
160 1 0.714195 0.142993 0.428621
102 1 0.214336 0.0714308 0.35718
159 1 0.571427 0.142959 0.428593
104 1 0.357175 0.0714252 0.357175
158 1 0.428576 0.142921 0.428576
106 1 0.500008 0.0714435 0.357198
157 1 0.285789 0.14293 0.428609
108 1 0.642824 0.0714551 0.357192
156 1 0.142893 0.142893 0.428592
110 1 0.785646 0.0714649 0.357194
155 1 0.99997 0.142897 0.428593
112 1 0.928524 0.0714462 0.35718
113 1 0.99997 0.142891 0.285754
114 1 0.0714308 0.214336 0.35718
115 1 0.142886 0.142886 0.285753
116 1 0.214363 0.214363 0.357199
117 1 0.28577 0.142914 0.28577
118 1 0.357212 0.214435 0.357212
119 1 0.428609 0.14293 0.285789
120 1 0.500018 0.21451 0.357292
121 1 0.5714 0.142943 0.285798
122 1 0.642764 0.214509 0.357256
123 1 0.714209 0.142953 0.285798
124 1 0.785565 0.214451 0.357249
125 1 0.857062 0.142924 0.28578
126 1 0.928485 0.214362 0.357198
127 1 0.999944 0.285767 0.285767
49 1 0.857081 0.428605 0.999983
177 1 0.214342 0.0714359 0.500005
178 1 0.357198 0.0714435 0.500008
179 1 0.500004 0.0714224 0.500004
180 1 0.642819 0.0714912 0.500007
181 1 0.785642 0.0714763 0.500014
182 1 0.928526 0.0714525 0.500009
183 1 0.0714359 0.214342 0.500005
184 1 0.214375 0.214375 0.500006
185 1 0.357292 0.21451 0.500018
186 1 0.500001 0.214229 0.500001
187 1 0.642714 0.214595 0.500012
188 1 0.785553 0.214473 0.50003
189 1 0.928487 0.214369 0.500013
190 1 0.0714435 0.357198 0.500008
191 1 0.21451 0.357292 0.500018
192 1 0.357762 0.357762 0.500072
193 1 0.500013 0.355847 0.500013
194 1 0.642234 0.358157 0.500059
195 1 0.785287 0.357474 0.500087
196 1 0.928412 0.357241 0.500026
343 1 0.857041 0.428633 0.857041
198 1 0.0714443 0.0714443 0.642836
342 1 0.714172 0.428665 0.85692
200 1 0.214347 0.0714458 0.642824
341 1 0.571417 0.428715 0.856833
202 1 0.357192 0.0714551 0.642824
340 1 0.42865 0.42865 0.856861
204 1 0.500007 0.0714912 0.642819
339 1 0.285867 0.428652 0.85695
206 1 0.642834 0.0714994 0.642834
338 1 0.142935 0.42861 0.857055
208 1 0.785647 0.0714862 0.642824
337 1 0.999983 0.428605 0.857081
210 1 0.928532 0.0714582 0.642836
211 1 0.999976 0.142902 0.571419
212 1 0.0714458 0.214347 0.642824
213 1 0.142899 0.142899 0.571414
214 1 0.214387 0.214387 0.642796
215 1 0.285798 0.142943 0.5714
216 1 0.357256 0.214509 0.642764
217 1 0.428593 0.142959 0.571427
218 1 0.500012 0.214595 0.642714
219 1 0.571429 0.142979 0.571429
220 1 0.642778 0.214568 0.642778
221 1 0.714188 0.143017 0.571402
222 1 0.785562 0.214478 0.642776
223 1 0.857059 0.142942 0.571416
224 1 0.928493 0.214374 0.642819
225 1 0.999952 0.285787 0.571414
226 1 0.0714551 0.357192 0.642824
227 1 0.142943 0.285798 0.5714
228 1 0.214509 0.357256 0.642764
229 1 0.28593 0.28593 0.571348
230 1 0.357843 0.357843 0.642239
231 1 0.428664 0.286185 0.571438
232 1 0.500059 0.358157 0.642234
233 1 0.571442 0.286116 0.571442
234 1 0.642259 0.358129 0.642259
235 1 0.713955 0.286142 0.571341
236 1 0.785349 0.357422 0.642687
237 1 0.856956 0.285876 0.571398
238 1 0.928435 0.357234 0.642807
239 1 0.999937 0.42861 0.571421
240 1 0.142959 0.428593 0.571427
241 1 0.286185 0.428664 0.571438
242 1 0.43046 0.43046 0.5701
243 1 0.570285 0.428604 0.570285
244 1 0.713271 0.429194 0.57137
245 1 0.856833 0.428715 0.571417
336 1 0.928523 0.357189 0.928523
247 1 0.0714465 0.0714465 0.785677
335 1 0.857026 0.285833 0.857026
249 1 0.214346 0.0714529 0.785657
334 1 0.78563 0.35722 0.928475
251 1 0.357194 0.0714649 0.785646
333 1 0.714179 0.285863 0.856978
253 1 0.500014 0.0714763 0.785642
332 1 0.642807 0.357234 0.928435
255 1 0.642824 0.0714862 0.785647
331 1 0.571398 0.285876 0.856956
257 1 0.785662 0.0714845 0.785662
330 1 0.500026 0.357241 0.928412
259 1 0.928538 0.0714582 0.785675
260 1 0.999982 0.142905 0.714249
261 1 0.0714529 0.214346 0.785657
262 1 0.142906 0.142906 0.714239
263 1 0.214403 0.214403 0.785595
264 1 0.285798 0.142953 0.714209
265 1 0.357249 0.214451 0.785565
266 1 0.428621 0.142993 0.714195
267 1 0.50003 0.214473 0.785553
268 1 0.571402 0.143017 0.714188
269 1 0.642776 0.214478 0.785562
270 1 0.714213 0.143003 0.714213
271 1 0.785577 0.214465 0.785577
272 1 0.857066 0.142944 0.714231
273 1 0.928504 0.214366 0.785649
274 1 0.999964 0.285782 0.714234
275 1 0.0714649 0.357194 0.785646
276 1 0.142953 0.285798 0.714209
277 1 0.214451 0.357249 0.785565
278 1 0.285991 0.285991 0.714029
279 1 0.357432 0.357432 0.785314
280 1 0.428742 0.286079 0.714006
281 1 0.500087 0.357474 0.785287
282 1 0.571341 0.286142 0.713955
283 1 0.642687 0.357422 0.785349
284 1 0.713996 0.286114 0.713996
285 1 0.785438 0.3574 0.785438
286 1 0.856978 0.285863 0.714179
287 1 0.928475 0.35722 0.78563
288 1 0.999973 0.428605 0.714236
289 1 0.142993 0.428621 0.714195
290 1 0.286079 0.428742 0.714006
291 1 0.42917 0.42917 0.7133
292 1 0.57137 0.429194 0.713271
293 1 0.713586 0.42919 0.713586
294 1 0.85692 0.428665 0.714172
329 1 0.428652 0.285867 0.85695
296 1 0.0714436 0.0714436 0.928541
328 1 0.357216 0.357216 0.928425
298 1 0.21433 0.0714423 0.928528
327 1 0.285852 0.285852 0.856964
300 1 0.35718 0.0714462 0.928524
326 1 0.214362 0.357198 0.928485
302 1 0.500009 0.0714525 0.928526
325 1 0.142924 0.28578 0.857062
304 1 0.642836 0.0714582 0.928532
324 1 0.0714462 0.35718 0.928524
306 1 0.785675 0.0714582 0.928538
323 1 0.999976 0.285772 0.857083
308 1 0.928541 0.0714517 0.928541
309 1 0.999986 0.1429 0.857099
310 1 0.0714423 0.21433 0.928528
311 1 0.142906 0.142906 0.857082
312 1 0.214351 0.214351 0.928496
313 1 0.28578 0.142924 0.857062
314 1 0.357198 0.214362 0.928485
315 1 0.42861 0.142935 0.857055
316 1 0.500013 0.214369 0.928487
317 1 0.571416 0.142942 0.857059
318 1 0.642819 0.214374 0.928493
319 1 0.714231 0.142944 0.857066
320 1 0.785649 0.214366 0.928504
321 1 0.857078 0.142933 0.857078
322 1 0.928523 0.214346 0.928523
48 1 0.714236 0.428605 0.999973
593 1 0.642765 0.49999 0.785243
545 1 0.785243 0.49999 0.642765
47 1 0.571421 0.42861 0.999937
592 1 0.499987 0.499987 0.785313
15 1 0.999985 0.142887 0.999985
17 1 0.142887 0.142887 0.999977
19 1 0.285754 0.142891 0.99997
21 1 0.428593 0.142897 0.99997
23 1 0.571419 0.142902 0.999976
25 1 0.714249 0.142905 0.999982
27 1 0.857099 0.1429 0.999986
29 1 0.999982 0.285752 0.999982
31 1 0.142891 0.285754 0.99997
33 1 0.285767 0.285767 0.999944
35 1 0.428605 0.285781 0.999942
37 1 0.571414 0.285787 0.999952
39 1 0.714234 0.285782 0.999964
41 1 0.857083 0.285772 0.999976
43 1 0.999984 0.428593 0.999984
44 1 0.142897 0.428593 0.99997
45 1 0.285781 0.428605 0.999942
46 1 0.428594 0.428594 0.999929
205 1 0.571425 6.17652e-06 0.571425
256 1 0.714254 3.36526e-06 0.714254
176 1 0.0714386 0.0714386 0.500005
511 1 0.857041 0.857041 0.428633
345 1 0.214342 0.500005 0.0714359
346 1 0.357198 0.500008 0.0714435
347 1 0.500004 0.500004 0.0714224
348 1 0.642819 0.500007 0.0714912
349 1 0.785642 0.500014 0.0714763
350 1 0.928526 0.500009 0.0714525
149 1 0.142897 0.99997 0.428593
352 1 0.0714443 0.642836 0.0714443
150 1 0.285781 0.999942 0.428605
354 1 0.214347 0.642824 0.0714458
151 1 0.428594 0.999929 0.428594
356 1 0.357192 0.642824 0.0714551
152 1 0.571421 0.999937 0.42861
358 1 0.500007 0.642819 0.0714912
153 1 0.714236 0.999973 0.428605
360 1 0.642834 0.642834 0.0714994
154 1 0.857081 0.999983 0.428605
362 1 0.785647 0.642824 0.0714862
148 1 0.999984 0.999984 0.428593
364 1 0.928532 0.642836 0.0714582
111 1 0.857083 0.999976 0.285772
366 1 0.0714465 0.785677 0.0714465
109 1 0.714234 0.999964 0.285782
368 1 0.214346 0.785657 0.0714529
107 1 0.571414 0.999952 0.285787
370 1 0.357194 0.785646 0.0714649
105 1 0.428605 0.999942 0.285781
372 1 0.500014 0.785642 0.0714763
103 1 0.285767 0.999944 0.285767
374 1 0.642824 0.785647 0.0714862
101 1 0.142891 0.99997 0.285754
376 1 0.785662 0.785662 0.0714845
99 1 0.999982 0.999982 0.285752
378 1 0.928538 0.785675 0.0714582
62 1 0.857099 0.999986 0.1429
380 1 0.0714436 0.928541 0.0714436
60 1 0.714249 0.999982 0.142905
382 1 0.21433 0.928528 0.0714423
58 1 0.571419 0.999976 0.142902
384 1 0.35718 0.928524 0.0714462
56 1 0.428593 0.99997 0.142897
386 1 0.500009 0.928526 0.0714525
54 1 0.285754 0.99997 0.142891
388 1 0.642836 0.928532 0.0714582
52 1 0.142887 0.999977 0.142887
390 1 0.785675 0.928538 0.0714582
50 1 0.999985 0.999985 0.142887
392 1 0.928541 0.928541 0.0714517
393 1 0.0714359 0.500005 0.214342
394 1 0.214375 0.500006 0.214375
395 1 0.357292 0.500018 0.21451
396 1 0.500001 0.500001 0.214229
397 1 0.642714 0.500012 0.214595
398 1 0.785553 0.50003 0.214473
399 1 0.928487 0.500013 0.214369
400 1 0.999976 0.571419 0.142902
401 1 0.0714458 0.642824 0.214347
402 1 0.142899 0.571414 0.142899
403 1 0.214387 0.642796 0.214387
404 1 0.285798 0.5714 0.142943
405 1 0.357256 0.642764 0.214509
406 1 0.428593 0.571427 0.142959
407 1 0.500012 0.642714 0.214595
408 1 0.571429 0.571429 0.142979
409 1 0.642778 0.642778 0.214568
410 1 0.714188 0.571402 0.143017
411 1 0.785562 0.642776 0.214478
412 1 0.857059 0.571416 0.142942
413 1 0.928493 0.642819 0.214374
414 1 0.999982 0.714249 0.142905
415 1 0.0714529 0.785657 0.214346
416 1 0.142906 0.714239 0.142906
417 1 0.214403 0.785595 0.214403
418 1 0.285798 0.714209 0.142953
419 1 0.357249 0.785565 0.214451
420 1 0.428621 0.714195 0.142993
421 1 0.50003 0.785553 0.214473
422 1 0.571402 0.714188 0.143017
423 1 0.642776 0.785562 0.214478
424 1 0.714213 0.714213 0.143003
425 1 0.785577 0.785577 0.214465
426 1 0.857066 0.714231 0.142944
427 1 0.928504 0.785649 0.214366
428 1 0.999986 0.857099 0.1429
429 1 0.0714423 0.928528 0.21433
430 1 0.142906 0.857082 0.142906
431 1 0.214351 0.928496 0.214351
432 1 0.28578 0.857062 0.142924
433 1 0.357198 0.928485 0.214362
434 1 0.42861 0.857055 0.142935
435 1 0.500013 0.928487 0.214369
436 1 0.571416 0.857059 0.142942
437 1 0.642819 0.928493 0.214374
438 1 0.714231 0.857066 0.142944
439 1 0.785649 0.928504 0.214366
440 1 0.857078 0.857078 0.142933
441 1 0.928523 0.928523 0.214346
442 1 0.0714435 0.500008 0.357198
443 1 0.21451 0.500018 0.357292
444 1 0.357762 0.500072 0.357762
445 1 0.500013 0.500013 0.355847
446 1 0.642234 0.500059 0.358157
447 1 0.785287 0.500087 0.357474
448 1 0.928412 0.500026 0.357241
449 1 0.999952 0.571414 0.285787
450 1 0.0714551 0.642824 0.357192
451 1 0.142943 0.5714 0.285798
452 1 0.214509 0.642764 0.357256
453 1 0.28593 0.571348 0.28593
454 1 0.357843 0.642239 0.357843
455 1 0.428664 0.571438 0.286185
456 1 0.500059 0.642234 0.358157
457 1 0.571442 0.571442 0.286116
458 1 0.642259 0.642259 0.358129
459 1 0.713955 0.571341 0.286142
460 1 0.785349 0.642687 0.357422
461 1 0.856956 0.571398 0.285876
462 1 0.928435 0.642807 0.357234
463 1 0.999964 0.714234 0.285782
464 1 0.0714649 0.785646 0.357194
465 1 0.142953 0.714209 0.285798
466 1 0.214451 0.785565 0.357249
467 1 0.285991 0.714029 0.285991
468 1 0.357432 0.785314 0.357432
469 1 0.428742 0.714006 0.286079
470 1 0.500087 0.785287 0.357474
471 1 0.571341 0.713955 0.286142
472 1 0.642687 0.785349 0.357422
473 1 0.713996 0.713996 0.286114
474 1 0.785438 0.785438 0.3574
475 1 0.856978 0.714179 0.285863
476 1 0.928475 0.78563 0.35722
477 1 0.999976 0.857083 0.285772
478 1 0.0714462 0.928524 0.35718
479 1 0.142924 0.857062 0.28578
480 1 0.214362 0.928485 0.357198
481 1 0.285852 0.856964 0.285852
482 1 0.357216 0.928425 0.357216
483 1 0.428652 0.85695 0.285867
484 1 0.500026 0.928412 0.357241
485 1 0.571398 0.856956 0.285876
486 1 0.642807 0.928435 0.357234
487 1 0.714179 0.856978 0.285863
488 1 0.78563 0.928475 0.35722
489 1 0.857026 0.857026 0.285833
490 1 0.928523 0.928523 0.357189
491 1 0.999937 0.571421 0.42861
492 1 0.142959 0.571427 0.428593
493 1 0.286185 0.571438 0.428664
494 1 0.43046 0.5701 0.43046
495 1 0.570285 0.570285 0.428604
496 1 0.713271 0.57137 0.429194
497 1 0.856833 0.571417 0.428715
498 1 0.999973 0.714236 0.428605
499 1 0.142993 0.714195 0.428621
500 1 0.286079 0.714006 0.428742
501 1 0.42917 0.7133 0.42917
502 1 0.57137 0.713271 0.429194
503 1 0.713586 0.713586 0.42919
504 1 0.85692 0.714172 0.428665
505 1 0.999983 0.857081 0.428605
506 1 0.142935 0.857055 0.42861
507 1 0.285867 0.85695 0.428652
508 1 0.42865 0.856861 0.42865
509 1 0.571417 0.856833 0.428715
510 1 0.714172 0.85692 0.428665
524 1 0.785243 0.642765 0.49999
344 1 0.0714386 0.500005 0.0714386
529 1 0.499987 0.785313 0.499987
530 1 0.642765 0.785243 0.49999
359 1 0.571425 0.571425 6.17652e-06
375 1 0.714254 0.714254 3.36526e-06
512 1 0.0714224 0.500004 0.500004
513 1 0.214229 0.500001 0.500001
514 1 0.355847 0.500013 0.500013
515 1 0.928541 0.928541 0.928541
516 1 0.642824 0.501144 0.501144
684 1 0.785676 0.928542 0.928542
683 1 0.71423 0.857066 0.857066
519 1 0.0714912 0.642819 0.500007
520 1 0.214595 0.642714 0.500012
521 1 0.358157 0.642234 0.500059
522 1 0.501144 0.642824 0.501144
523 1 0.640968 0.640968 0.501329
307 1 0.857101 0.999997 0.857101
305 1 0.714249 0.999998 0.857093
526 1 0.0714763 0.785642 0.500014
527 1 0.214473 0.785553 0.50003
528 1 0.357474 0.785287 0.500087
303 1 0.571423 0.999993 0.857087
301 1 0.428605 0.999983 0.857081
531 1 0.785498 0.785498 0.500081
532 1 0.928485 0.785631 0.500029
533 1 0.0714525 0.928526 0.500009
534 1 0.214369 0.928487 0.500013
535 1 0.357241 0.928412 0.500026
299 1 0.285772 0.999976 0.857083
297 1 0.1429 0.999986 0.857099
538 1 0.785631 0.928485 0.500029
539 1 0.928529 0.928529 0.500015
540 1 0.0714912 0.500007 0.642819
541 1 0.214595 0.500012 0.642714
542 1 0.358157 0.500059 0.642234
543 1 0.501144 0.501144 0.642824
544 1 0.640968 0.501329 0.640968
682 1 0.642836 0.928536 0.928536
681 1 0.571423 0.857053 0.857053
547 1 6.17652e-06 0.571425 0.571425
548 1 0.0714994 0.642834 0.642834
549 1 0.142979 0.571429 0.571429
550 1 0.214568 0.642778 0.642778
551 1 0.286116 0.571442 0.571442
552 1 0.358129 0.642259 0.642259
553 1 0.428604 0.570285 0.570285
554 1 0.501329 0.640968 0.640968
555 1 0.857064 0.857064 0.857064
556 1 0.641483 0.641483 0.641483
557 1 0.715582 0.571416 0.571416
558 1 0.785382 0.642855 0.642855
559 1 0.857199 0.571427 0.571427
560 1 0.928508 0.642852 0.642852
561 1 0.999985 0.714231 0.57142
562 1 0.0714862 0.785647 0.642824
563 1 0.143017 0.714188 0.571402
564 1 0.214478 0.785562 0.642776
565 1 0.286142 0.713955 0.571341
566 1 0.357422 0.785349 0.642687
567 1 0.429194 0.713271 0.57137
568 1 0.49999 0.785243 0.642765
569 1 0.571416 0.715582 0.571416
570 1 0.642855 0.785382 0.642855
571 1 0.713667 0.713667 0.571357
572 1 0.785524 0.785524 0.642756
573 1 0.856918 0.714136 0.57141
574 1 0.928498 0.785639 0.642819
575 1 0.999993 0.857087 0.571423
576 1 0.0714582 0.928532 0.642836
577 1 0.142942 0.857059 0.571416
578 1 0.214374 0.928493 0.642819
579 1 0.285876 0.856956 0.571398
580 1 0.357234 0.928435 0.642807
581 1 0.428715 0.856833 0.571417
582 1 0.500002 0.92847 0.642836
583 1 0.571427 0.857199 0.571427
584 1 0.642852 0.928508 0.642852
585 1 0.714136 0.856918 0.57141
586 1 0.785639 0.928498 0.642819
587 1 0.857053 0.857053 0.571423
588 1 0.928536 0.928536 0.642836
589 1 0.0714763 0.500014 0.785642
590 1 0.214473 0.50003 0.785553
591 1 0.357474 0.500087 0.785287
680 1 0.500015 0.928529 0.928529
679 1 0.428633 0.857041 0.857041
594 1 0.785498 0.500081 0.785498
595 1 0.928485 0.500029 0.785631
596 1 0.999985 0.57142 0.714231
597 1 0.0714862 0.642824 0.785647
598 1 0.143017 0.571402 0.714188
599 1 0.214478 0.642776 0.785562
600 1 0.286142 0.571341 0.713955
601 1 0.357422 0.642687 0.785349
602 1 0.429194 0.57137 0.713271
603 1 0.49999 0.642765 0.785243
604 1 0.571416 0.571416 0.715582
605 1 0.642855 0.642855 0.785382
606 1 0.713667 0.571357 0.713667
607 1 0.785524 0.642756 0.785524
608 1 0.856918 0.57141 0.714136
609 1 0.928498 0.642819 0.785639
610 1 3.36526e-06 0.714254 0.714254
611 1 0.0714845 0.785662 0.785662
612 1 0.143003 0.714213 0.714213
613 1 0.214465 0.785577 0.785577
614 1 0.286114 0.713996 0.713996
615 1 0.3574 0.785438 0.785438
616 1 0.42919 0.713586 0.713586
617 1 0.500081 0.785498 0.785498
618 1 0.571357 0.713667 0.713667
619 1 0.642756 0.785524 0.785524
620 1 0.713737 0.713737 0.713737
621 1 0.785509 0.785509 0.785509
622 1 0.856994 0.714216 0.714216
623 1 0.928515 0.785658 0.785658
624 1 0.999998 0.857093 0.714249
625 1 0.0714582 0.928538 0.785675
626 1 0.142944 0.857066 0.714231
627 1 0.214366 0.928504 0.785649
628 1 0.285863 0.856978 0.714179
629 1 0.35722 0.928475 0.78563
630 1 0.428665 0.85692 0.714172
631 1 0.500029 0.928485 0.785631
632 1 0.57141 0.856918 0.714136
633 1 0.642819 0.928498 0.785639
634 1 0.714216 0.856994 0.714216
635 1 0.785658 0.928515 0.785658
636 1 0.857066 0.857066 0.71423
637 1 0.928542 0.928542 0.785676
638 1 0.0714525 0.500009 0.928526
639 1 0.214369 0.500013 0.928487
640 1 0.357241 0.500026 0.928412
678 1 0.357189 0.928523 0.928523
677 1 0.285833 0.857026 0.857026
643 1 0.785631 0.500029 0.928485
644 1 0.928529 0.500015 0.928529
645 1 0.999993 0.571423 0.857087
646 1 0.0714582 0.642836 0.928532
647 1 0.142942 0.571416 0.857059
648 1 0.214374 0.642819 0.928493
649 1 0.285876 0.571398 0.856956
650 1 0.357234 0.642807 0.928435
651 1 0.428715 0.571417 0.856833
652 1 0.500002 0.642836 0.92847
653 1 0.571427 0.571427 0.857199
654 1 0.642852 0.642852 0.928508
655 1 0.714136 0.57141 0.856918
656 1 0.785639 0.642819 0.928498
657 1 0.857053 0.571423 0.857053
658 1 0.928536 0.642836 0.928536
659 1 0.999998 0.714249 0.857093
660 1 0.0714582 0.785675 0.928538
661 1 0.142944 0.714231 0.857066
662 1 0.214366 0.785649 0.928504
663 1 0.285863 0.714179 0.856978
664 1 0.35722 0.78563 0.928475
665 1 0.428665 0.714172 0.85692
666 1 0.500029 0.785631 0.928485
667 1 0.57141 0.714136 0.856918
668 1 0.642819 0.785639 0.928498
669 1 0.714216 0.714216 0.856994
670 1 0.785658 0.785658 0.928515
671 1 0.857066 0.71423 0.857066
672 1 0.928542 0.785676 0.928542
673 1 0.999997 0.857101 0.857101
674 1 0.0714517 0.928541 0.928541
675 1 0.142933 0.857078 0.857078
676 1 0.214346 0.928523 0.928523
197 1 0.99999 0.99999 0.571424
199 1 0.142902 0.999976 0.571419
201 1 0.285787 0.999952 0.571414
203 1 0.42861 0.999937 0.571421
3 1 0.142887 0.999985 0.999985
207 1 0.714231 0.999985 0.57142
209 1 0.857087 0.999993 0.571423
246 1 0.999994 0.999994 0.714258
248 1 0.142905 0.999982 0.714249
250 1 0.285782 0.999964 0.714234
252 1 0.428605 0.999973 0.714236
254 1 0.57142 0.999985 0.714231
5 1 0.285752 0.999982 0.999982
258 1 0.857093 0.999998 0.714249
295 1 0.999996 0.999996 0.857112
351 1 0.99999 0.571424 0.99999
353 1 0.142902 0.571419 0.999976
355 1 0.285787 0.571414 0.999952
357 1 0.42861 0.571421 0.999937
546 1 0.92847 0.500002 0.642836
361 1 0.714231 0.57142 0.999985
363 1 0.857087 0.571423 0.999993
365 1 0.999994 0.714258 0.999994
367 1 0.142905 0.714249 0.999982
369 1 0.285782 0.714234 0.999964
371 1 0.428605 0.714236 0.999973
373 1 0.57142 0.714231 0.999985
641 1 0.499999 0.499999 0.928449
377 1 0.857093 0.714249 0.999998
379 1 0.999996 0.857112 0.999996
381 1 0.1429 0.857099 0.999986
383 1 0.285772 0.857083 0.999976
385 1 0.428605 0.857081 0.999983
387 1 0.571423 0.857087 0.999993
389 1 0.714249 0.857093 0.999998
391 1 0.857101 0.857101 0.999997
1 1 0.999992 0.999992 0.999992
13 1 0.857112 0.999996 0.999996
11 1 0.714258 0.999994 0.999994
9 1 0.571424 0.99999 0.99999
7 1 0.428593 0.999984 0.999984
642 1 0.642836 0.500002 0.92847
525 1 0.92847 0.642836 0.500002
518 1 0.928449 0.499999 0.499999
536 1 0.499999 0.928449 0.499999
537 1 0.642836 0.92847 0.500002
