ITEM: TIMESTEP
63
ITEM: NUMBER OF ATOMS
688
ITEM: BOX BOUNDS pp pp pp
0.0000000000000000e+00 2.2009546999999998e+01
0.0000000000000000e+00 2.2009546999999998e+01
0.0000000000000000e+00 2.2009546999999998e+01
ITEM: ATOMS id type xs ys zs
1 1 1 1.3144e-05 6.73858e-05
2 1 0.0714383 0.0714518 0.0715041
175 1 0.857139 0.428558 0.428626
4 1 0.214299 0.0714507 0.0715036
174 1 0.714226 0.428547 0.428606
6 1 0.357152 0.0714487 0.0715039
7 1 0.428575 6.46017e-06 6.7373e-05
8 1 0.5 0.0714475 0.071504
9 1 0.571424 6.46018e-06 6.7373e-05
10 1 0.642848 0.0714487 0.0715039
173 1 0.57029 0.429667 0.429764
12 1 0.7857 0.0714507 0.0715036
172 1 0.42971 0.429667 0.429764
14 1 0.928561 0.0714518 0.0715041
688 2 0.5 0.496371 0.455135
16 1 0.0714419 0.214315 0.0715053
17 1 0.142876 0.142889 6.73843e-05
18 1 0.214316 0.214327 0.071518
19 1 0.285731 0.142888 6.7377e-05
20 1 0.357163 0.214327 0.0715178
21 1 0.428578 0.142887 6.73711e-05
22 1 0.5 0.214326 0.0715163
23 1 0.571422 0.142887 6.73711e-05
24 1 0.642837 0.214327 0.0715178
25 1 0.714269 0.142888 6.7377e-05
26 1 0.785684 0.214327 0.071518
27 1 0.857123 0.142889 6.73844e-05
28 1 0.928557 0.214315 0.0715053
50 1 1 1.30126e-05 0.142934
30 1 0.0714443 0.357163 0.0715062
31 1 0.142883 0.285746 6.73774e-05
32 1 0.214326 0.357176 0.0715241
33 1 0.285738 0.285747 6.73722e-05
34 1 0.357158 0.357166 0.0715348
99 1 1 1.34308e-05 0.285792
36 1 0.5 0.357183 0.0715469
105 1 0.428574 -3.96338e-06 0.285794
38 1 0.642841 0.357166 0.0715348
39 1 0.714262 0.285747 6.73722e-05
40 1 0.785673 0.357176 0.0715241
41 1 0.857117 0.285746 6.73774e-05
42 1 0.928555 0.357163 0.0715062
43 1 1 0.428583 6.73731e-05
107 1 0.571425 -3.96337e-06 0.285794
149 1 0.142874 1.09516e-05 0.428645
46 1 0.428571 0.428578 6.7365e-05
47 1 0.571428 0.428578 6.7365e-05
150 1 0.285729 5.6399e-07 0.428647
153 1 0.71427 5.64023e-07 0.428647
171 1 0.285773 0.428547 0.428606
51 1 0.071439 0.071452 0.214369
52 1 0.14287 1.11251e-05 0.142937
53 1 0.214303 0.0714567 0.214371
54 1 0.285725 7.50938e-06 0.142935
55 1 0.357152 0.0714501 0.214369
56 1 0.428575 4.35319e-06 0.142936
57 1 0.5 0.071446 0.21437
58 1 0.571424 4.35322e-06 0.142936
59 1 0.642848 0.0714501 0.214369
60 1 0.714275 7.50941e-06 0.142935
61 1 0.785697 0.0714567 0.214371
62 1 0.857129 1.11251e-05 0.142937
63 1 0.92856 0.071452 0.214369
64 1 1 0.142884 0.142938
65 1 0.0714485 0.214316 0.214372
66 1 0.142884 0.142896 0.142949
67 1 0.214349 0.214359 0.214417
68 1 0.285734 0.142894 0.142947
69 1 0.357171 0.214345 0.214404
70 1 0.428579 0.142892 0.142947
71 1 0.5 0.214341 0.214404
72 1 0.57142 0.142892 0.142947
73 1 0.642828 0.214345 0.214404
74 1 0.714266 0.142894 0.142947
75 1 0.785651 0.214359 0.214417
76 1 0.857116 0.142896 0.142949
77 1 0.928551 0.214316 0.214372
78 1 1 0.285739 0.142939
79 1 0.0714533 0.357165 0.214374
80 1 0.142893 0.285751 0.142953
81 1 0.214363 0.357198 0.214426
82 1 0.285763 0.285772 0.142993
83 1 0.357216 0.35722 0.214517
84 1 0.428596 0.285772 0.142997
85 1 0.5 0.357271 0.214559
86 1 0.571403 0.285772 0.142997
87 1 0.642784 0.35722 0.214517
88 1 0.714237 0.285772 0.142993
89 1 0.785636 0.357198 0.214426
90 1 0.857106 0.285751 0.142953
91 1 0.928546 0.357165 0.214374
92 1 1 0.428584 0.142939
93 1 0.142894 0.428589 0.142954
94 1 0.285779 0.428611 0.143018
95 1 0.428556 0.428563 0.143016
96 1 0.571444 0.428563 0.143016
97 1 0.71422 0.428611 0.143018
98 1 0.857105 0.428589 0.142954
170 1 0.142861 0.428558 0.428626
100 1 0.0714403 0.0714525 0.357221
101 1 0.142874 1.1464e-05 0.285798
102 1 0.214312 0.0714628 0.357231
103 1 0.28572 4.13009e-06 0.28579
104 1 0.357138 0.0714435 0.35721
169 1 1 0.428568 0.428633
106 1 0.5 0.0714319 0.357221
168 1 0.85706 0.285772 0.428667
108 1 0.642862 0.0714435 0.35721
109 1 0.714279 4.13011e-06 0.28579
110 1 0.785687 0.0714628 0.357231
111 1 0.857125 1.1464e-05 0.285798
112 1 0.928559 0.0714525 0.357221
113 1 1 0.142887 0.285799
114 1 0.0714564 0.214323 0.357231
115 1 0.142889 0.142899 0.28581
116 1 0.214368 0.214375 0.357274
117 1 0.285737 0.14291 0.285808
118 1 0.35716 0.214363 0.357234
119 1 0.42858 0.142895 0.285809
120 1 0.5 0.214333 0.357269
121 1 0.57142 0.142895 0.285809
122 1 0.642839 0.214363 0.357234
123 1 0.714262 0.14291 0.285808
124 1 0.785631 0.214375 0.357274
125 1 0.85711 0.142899 0.28581
126 1 0.928543 0.214323 0.357231
127 1 1 0.285731 0.28579
128 1 0.0714481 0.357149 0.357211
129 1 0.142908 0.28575 0.285811
130 1 0.214373 0.357172 0.357239
131 1 0.285864 0.285873 0.285945
132 1 0.35751 0.357509 0.357618
133 1 0.428624 0.285805 0.285898
134 1 0.5 0.357369 0.35763
135 1 0.571376 0.285805 0.285898
136 1 0.64249 0.357509 0.357618
137 1 0.714135 0.285873 0.285945
138 1 0.785627 0.357172 0.357239
139 1 0.857091 0.28575 0.285811
140 1 0.928551 0.357149 0.357211
141 1 1 0.428581 0.285793
142 1 0.142916 0.428594 0.285819
143 1 0.285879 0.428683 0.285971
144 1 0.428605 0.428597 0.28626
145 1 0.571394 0.428597 0.28626
146 1 0.714121 0.428683 0.285971
147 1 0.857083 0.428594 0.285819
148 1 1 1.34105e-05 0.428643
167 1 0.714055 0.285946 0.428797
166 1 0.571466 0.285745 0.428594
151 1 0.428558 -9.26669e-06 0.428634
152 1 0.571441 -9.26668e-06 0.428634
165 1 0.428533 0.285745 0.428594
164 1 0.285944 0.285946 0.428797
155 1 1 0.142887 0.428645
156 1 0.142889 0.142898 0.42865
157 1 0.285761 0.142939 0.428666
158 1 0.428547 0.142847 0.428627
159 1 0.571453 0.142847 0.428627
160 1 0.714238 0.142939 0.428666
161 1 0.857111 0.142898 0.42865
162 1 1 0.285739 0.428646
163 1 0.142939 0.285772 0.428667
154 1 0.857125 1.09516e-05 0.428645
49 1 0.857115 0.428586 6.73721e-05
48 1 0.714249 0.428592 6.73689e-05
45 1 0.285751 0.428592 6.73689e-05
44 1 0.142885 0.428586 6.73721e-05
37 1 0.571415 0.285755 6.73689e-05
35 1 0.428584 0.285755 6.73689e-05
29 1 1 0.285738 6.73797e-05
15 1 1 0.142883 6.73876e-05
5 1 0.285724 8.4589e-06 6.73793e-05
3 1 0.142867 1.12813e-05 6.73854e-05
13 1 0.857132 1.12813e-05 6.73854e-05
11 1 0.714275 8.45893e-06 6.73793e-05
176 1 0.07144 0.0714521 0.500067
177 1 0.214311 0.0714593 0.500067
199 1 0.142874 1.09531e-05 0.57149
201 1 0.285729 5.64657e-07 0.571488
207 1 0.71427 5.64683e-07 0.571488
181 1 0.785688 0.0714593 0.500067
182 1 0.928559 0.0714521 0.500067
183 1 0.0714535 0.214323 0.500067
209 1 0.857125 1.09531e-05 0.57149
246 1 1 1.34321e-05 0.714342
295 1 1 1.30116e-05 0.857201
301 1 0.428575 4.35365e-06 0.857199
303 1 0.571424 4.35367e-06 0.857199
189 1 0.928546 0.214323 0.500067
335 1 0.857106 0.285751 0.857182
334 1 0.785673 0.357176 0.928611
192 1 0.35818 0.358163 0.500067
193 1 0.5 0.355479 0.500067
194 1 0.64182 0.358163 0.500067
333 1 0.714237 0.285772 0.857142
332 1 0.642841 0.357166 0.9286
197 1 1 1.34127e-05 0.571492
198 1 0.0714403 0.0714525 0.642914
343 1 0.857105 0.428589 0.857181
200 1 0.214312 0.0714628 0.642904
342 1 0.71422 0.428611 0.857117
202 1 0.357138 0.0714435 0.642924
203 1 0.428558 -9.26444e-06 0.571501
204 1 0.5 0.0714319 0.642914
205 1 0.571441 -9.26443e-06 0.571501
206 1 0.642862 0.0714435 0.642924
341 1 0.571444 0.428563 0.857119
208 1 0.785687 0.0714628 0.642904
340 1 0.428556 0.428563 0.857119
210 1 0.928559 0.0714525 0.642914
211 1 1 0.142887 0.57149
212 1 0.0714564 0.214323 0.642904
213 1 0.142889 0.142898 0.571485
214 1 0.214368 0.214375 0.642861
215 1 0.285761 0.142939 0.571469
216 1 0.35716 0.214363 0.642901
217 1 0.428547 0.142847 0.571508
218 1 0.5 0.214333 0.642866
219 1 0.571453 0.142847 0.571508
220 1 0.642839 0.214363 0.642901
221 1 0.714238 0.142939 0.571469
222 1 0.785631 0.214375 0.642861
223 1 0.857111 0.142898 0.571485
224 1 0.928543 0.214323 0.642904
225 1 1 0.285739 0.571488
226 1 0.0714481 0.357149 0.642924
227 1 0.142939 0.285772 0.571468
228 1 0.214373 0.357172 0.642896
229 1 0.285944 0.285946 0.571338
230 1 0.35751 0.357509 0.642517
231 1 0.428533 0.285745 0.571541
232 1 0.5 0.357369 0.642504
233 1 0.571466 0.285745 0.571541
234 1 0.64249 0.357509 0.642517
235 1 0.714055 0.285946 0.571338
236 1 0.785627 0.357172 0.642896
237 1 0.85706 0.285772 0.571468
238 1 0.928551 0.357149 0.642924
239 1 1 0.428568 0.571502
240 1 0.142861 0.428558 0.571508
241 1 0.285773 0.428547 0.571529
242 1 0.42971 0.429667 0.570371
243 1 0.57029 0.429667 0.570371
244 1 0.714226 0.428547 0.571529
245 1 0.857139 0.428558 0.571508
339 1 0.285779 0.428611 0.857117
247 1 0.071439 0.071452 0.785766
248 1 0.142874 1.14645e-05 0.714337
249 1 0.214303 0.0714567 0.785764
250 1 0.28572 4.13029e-06 0.714345
251 1 0.357152 0.0714501 0.785766
252 1 0.428574 -3.9631e-06 0.714341
253 1 0.5 0.071446 0.785764
254 1 0.571425 -3.96309e-06 0.714341
255 1 0.642848 0.0714501 0.785766
256 1 0.714279 4.13031e-06 0.714345
257 1 0.785697 0.0714567 0.785764
258 1 0.857125 1.14646e-05 0.714337
259 1 0.92856 0.071452 0.785766
260 1 1 0.142887 0.714336
261 1 0.0714485 0.214316 0.785763
262 1 0.142889 0.142899 0.714325
263 1 0.214349 0.214359 0.785717
264 1 0.285737 0.14291 0.714326
265 1 0.357171 0.214345 0.785731
266 1 0.42858 0.142895 0.714326
267 1 0.5 0.214341 0.785731
268 1 0.57142 0.142895 0.714326
269 1 0.642828 0.214345 0.785731
270 1 0.714262 0.14291 0.714326
271 1 0.785651 0.214359 0.785717
272 1 0.85711 0.142899 0.714325
273 1 0.928551 0.214316 0.785763
274 1 1 0.285731 0.714344
275 1 0.0714533 0.357165 0.785761
276 1 0.142908 0.28575 0.714324
277 1 0.214363 0.357198 0.785709
278 1 0.285864 0.285873 0.71419
279 1 0.357216 0.35722 0.785617
280 1 0.428624 0.285805 0.714237
281 1 0.5 0.357271 0.785576
282 1 0.571376 0.285805 0.714237
283 1 0.642784 0.35722 0.785617
284 1 0.714135 0.285873 0.71419
285 1 0.785636 0.357198 0.785709
286 1 0.857091 0.28575 0.714324
287 1 0.928546 0.357165 0.785761
288 1 1 0.428581 0.714341
289 1 0.142916 0.428594 0.714315
290 1 0.285879 0.428683 0.714164
291 1 0.428605 0.428597 0.713874
292 1 0.571394 0.428597 0.713874
293 1 0.714121 0.428683 0.714164
294 1 0.857083 0.428594 0.714315
338 1 0.142894 0.428589 0.857181
296 1 0.0714383 0.0714518 0.928631
297 1 0.14287 1.11244e-05 0.857198
298 1 0.214299 0.0714507 0.928631
299 1 0.285725 7.50974e-06 0.8572
300 1 0.357152 0.0714487 0.928631
337 1 1 0.428584 0.857196
302 1 0.5 0.0714475 0.928631
336 1 0.928555 0.357163 0.928629
304 1 0.642848 0.0714487 0.928631
305 1 0.714275 7.50977e-06 0.8572
306 1 0.7857 0.0714507 0.928631
307 1 0.857129 1.11244e-05 0.857198
308 1 0.928561 0.0714518 0.928631
309 1 1 0.142884 0.857197
310 1 0.0714419 0.214315 0.928629
311 1 0.142884 0.142896 0.857186
312 1 0.214316 0.214327 0.928617
313 1 0.285734 0.142894 0.857188
314 1 0.357163 0.214327 0.928617
315 1 0.428579 0.142892 0.857187
316 1 0.5 0.214326 0.928618
317 1 0.57142 0.142892 0.857187
318 1 0.642837 0.214327 0.928617
319 1 0.714266 0.142894 0.857188
320 1 0.785684 0.214327 0.928617
321 1 0.857116 0.142896 0.857186
322 1 0.928557 0.214315 0.928629
323 1 1 0.285739 0.857196
324 1 0.0714443 0.357163 0.928629
325 1 0.142893 0.285751 0.857182
326 1 0.214326 0.357176 0.928611
327 1 0.285763 0.285772 0.857142
328 1 0.357158 0.357166 0.9286
329 1 0.428596 0.285772 0.857137
330 1 0.5 0.357183 0.928588
331 1 0.571403 0.285772 0.857137
686 2 0.5 0.496371 0.545
196 1 0.928538 0.357158 0.500067
195 1 0.785517 0.357244 0.500067
191 1 0.214482 0.357244 0.500067
190 1 0.0714617 0.357158 0.500067
188 1 0.785644 0.214362 0.500067
187 1 0.642766 0.214472 0.500067
186 1 0.5 0.214024 0.500067
185 1 0.357233 0.214472 0.500067
184 1 0.214356 0.214362 0.500067
178 1 0.357148 0.0714541 0.500067
179 1 0.5 0.0713873 0.500067
180 1 0.642852 0.0714541 0.500067
344 1 0.0714438 0.500005 0.0715055
345 1 0.214325 0.500005 0.071521
511 1 0.857115 0.857127 0.428647
510 1 0.714239 0.857067 0.428668
509 1 0.571463 0.857117 0.428619
349 1 0.785674 0.500005 0.071521
350 1 0.928556 0.500005 0.0715055
351 1 1 0.571428 6.73752e-05
352 1 0.0714428 0.64285 0.0715041
394 1 0.214354 0.500005 0.214419
354 1 0.214323 0.642837 0.0715201
348 1 0.642822 0.500003 0.071554
356 1 0.357157 0.642844 0.0715309
357 1 0.42857 0.571428 6.73662e-05
358 1 0.5 0.642824 0.07154
359 1 0.571429 0.571428 6.73662e-05
360 1 0.642842 0.642844 0.0715309
347 1 0.5 0.500002 0.0714941
362 1 0.785677 0.642837 0.0715201
346 1 0.357177 0.500003 0.071554
364 1 0.928557 0.64285 0.0715041
395 1 0.357288 0.500007 0.214612
366 1 0.0714401 0.785705 0.0715023
367 1 0.14288 0.714271 6.73782e-05
368 1 0.214313 0.785691 0.0715144
369 1 0.285736 0.714267 6.73717e-05
370 1 0.35716 0.785688 0.0715148
371 1 0.428583 0.714257 6.73676e-05
372 1 0.5 0.785686 0.0715141
373 1 0.571416 0.714257 6.73676e-05
374 1 0.642839 0.785688 0.0715148
375 1 0.714264 0.714267 6.73717e-05
376 1 0.785687 0.785691 0.0715144
377 1 0.857119 0.714271 6.73782e-05
378 1 0.928559 0.785705 0.0715023
396 1 0.5 0.499994 0.214124
380 1 0.0714373 0.928573 0.0715024
381 1 0.142874 0.857132 6.73823e-05
382 1 0.214298 0.928569 0.0715029
383 1 0.285729 0.857129 6.7377e-05
384 1 0.357152 0.928565 0.0715037
397 1 0.642711 0.500007 0.214612
386 1 0.5 0.928564 0.071504
398 1 0.785646 0.500005 0.214419
388 1 0.642848 0.928565 0.0715037
389 1 0.71427 0.857129 6.7377e-05
390 1 0.785701 0.928569 0.0715029
391 1 0.857125 0.857132 6.73823e-05
392 1 0.928562 0.928573 0.0715024
393 1 0.0714499 0.500005 0.214373
508 1 0.428537 0.857117 0.428619
507 1 0.285761 0.857067 0.428668
506 1 0.142884 0.857127 0.428647
505 1 1 0.857141 0.428643
504 1 0.857086 0.714262 0.428657
399 1 0.92855 0.500005 0.214373
400 1 1 0.571428 0.142937
401 1 0.0714492 0.642851 0.214368
402 1 0.142892 0.571423 0.142951
403 1 0.214351 0.642822 0.214411
404 1 0.285776 0.571401 0.143011
405 1 0.357215 0.642787 0.214504
406 1 0.428556 0.571439 0.143009
407 1 0.5 0.642734 0.214525
408 1 0.571444 0.571439 0.143009
409 1 0.642785 0.642787 0.214504
410 1 0.714224 0.571401 0.143011
411 1 0.785648 0.642822 0.214411
412 1 0.857108 0.571423 0.142951
413 1 0.92855 0.642851 0.214368
414 1 1 0.714279 0.142934
415 1 0.0714444 0.785709 0.214364
416 1 0.142888 0.714268 0.142946
417 1 0.214338 0.785667 0.214404
418 1 0.285759 0.714243 0.142985
419 1 0.357166 0.785668 0.214398
420 1 0.428594 0.71424 0.142986
421 1 0.5 0.785663 0.214404
422 1 0.571406 0.71424 0.142986
423 1 0.642834 0.785668 0.214398
424 1 0.71424 0.714243 0.142985
425 1 0.785661 0.785667 0.214404
426 1 0.857112 0.714268 0.142946
427 1 0.928555 0.785709 0.214364
428 1 1 0.857141 0.142933
429 1 0.0714384 0.928574 0.214366
430 1 0.14288 0.857128 0.142943
431 1 0.214303 0.928561 0.214371
432 1 0.285732 0.857122 0.142944
433 1 0.357152 0.928557 0.214369
434 1 0.428579 0.857118 0.142947
435 1 0.5 0.928555 0.214372
436 1 0.57142 0.857118 0.142947
437 1 0.642847 0.928557 0.214369
438 1 0.714268 0.857122 0.142944
439 1 0.785696 0.928561 0.214371
440 1 0.85712 0.857128 0.142943
441 1 0.928561 0.928574 0.214366
503 1 0.71411 0.714101 0.428772
502 1 0.571449 0.714022 0.428628
444 1 0.357652 0.500099 0.357933
445 1 0.5 0.500002 0.355302
446 1 0.642347 0.500099 0.357933
501 1 0.428551 0.714022 0.428628
500 1 0.285889 0.714101 0.428772
449 1 1 0.571431 0.28579
450 1 0.0714373 0.642872 0.357204
451 1 0.142907 0.571421 0.285814
452 1 0.214335 0.64286 0.357221
453 1 0.285851 0.57135 0.285943
454 1 0.357429 0.642558 0.357545
455 1 0.428626 0.571382 0.286251
456 1 0.5 0.642693 0.357472
457 1 0.571373 0.571382 0.286251
458 1 0.64257 0.642558 0.357545
459 1 0.714148 0.57135 0.285943
460 1 0.785664 0.64286 0.357221
461 1 0.857092 0.571421 0.285814
462 1 0.928562 0.642872 0.357204
463 1 1 0.714291 0.285782
464 1 0.0714499 0.785705 0.357223
465 1 0.142894 0.714276 0.285798
466 1 0.214354 0.785655 0.357261
467 1 0.285834 0.714164 0.285915
468 1 0.357179 0.785615 0.357254
469 1 0.428608 0.714209 0.28587
470 1 0.5 0.785616 0.357309
471 1 0.571392 0.714209 0.28587
472 1 0.64282 0.785615 0.357254
473 1 0.714165 0.714164 0.285915
474 1 0.785646 0.785655 0.357261
475 1 0.857106 0.714276 0.285798
476 1 0.92855 0.785705 0.357223
477 1 1 0.85714 0.285793
478 1 0.0714392 0.928574 0.357219
479 1 0.142885 0.857126 0.285804
480 1 0.214311 0.928554 0.357229
481 1 0.285742 0.857098 0.285812
482 1 0.357139 0.928551 0.357211
483 1 0.428584 0.857097 0.285814
484 1 0.5 0.928542 0.357228
485 1 0.571415 0.857097 0.285814
486 1 0.642861 0.928551 0.357211
487 1 0.714257 0.857098 0.285812
488 1 0.785689 0.928554 0.357229
489 1 0.857114 0.857126 0.285804
490 1 0.92856 0.928574 0.357219
491 1 1 0.571446 0.428631
492 1 0.142835 0.57146 0.428623
493 1 0.285684 0.571504 0.428595
494 1 0.429593 0.570399 0.429606
495 1 0.570406 0.570399 0.429606
496 1 0.714316 0.571504 0.428595
497 1 0.857164 0.57146 0.428623
498 1 1 0.714288 0.428642
499 1 0.142913 0.714262 0.428657
442 1 0.0714448 0.500005 0.357217
443 1 0.214382 0.500009 0.357284
447 1 0.785618 0.500009 0.357284
448 1 0.928555 0.500005 0.357217
687 2 0.5 0.547858 0.500067
387 1 0.571422 0.857126 6.73725e-05
385 1 0.428577 0.857126 6.73725e-05
379 1 1 0.85714 6.73839e-05
365 1 1 0.714278 6.73814e-05
363 1 0.857116 0.571425 6.73728e-05
361 1 0.71425 0.571417 6.73685e-05
355 1 0.28575 0.571417 6.73685e-05
353 1 0.142883 0.571425 6.73728e-05
545 1 0.785618 0.500009 0.64285
546 1 0.928555 0.500005 0.642917
514 1 0.355485 0.500041 0.500067
515 1 0.928562 0.928573 0.928632
516 1 0.644514 0.500041 0.500067
685 1 0.85712 0.857128 0.857192
684 1 0.785701 0.928569 0.928632
589 1 0.0714499 0.500005 0.785762
541 1 0.214382 0.500009 0.64285
521 1 0.357911 0.641945 0.500067
522 1 0.5 0.645114 0.500067
523 1 0.642088 0.641945 0.500067
540 1 0.0714448 0.500005 0.642917
590 1 0.214354 0.500005 0.785716
591 1 0.357288 0.500007 0.785523
592 1 0.5 0.499994 0.786011
593 1 0.642711 0.500007 0.785523
663 1 0.285759 0.714243 0.85715
669 1 0.71424 0.714243 0.85715
668 1 0.642839 0.785688 0.92862
667 1 0.571406 0.71424 0.857148
533 1 0.0714389 0.928574 0.500067
534 1 0.21431 0.928556 0.500067
666 1 0.5 0.785686 0.928621
665 1 0.428594 0.71424 0.857148
664 1 0.35716 0.785688 0.92862
538 1 0.785689 0.928556 0.500067
539 1 0.928561 0.928574 0.500067
683 1 0.714268 0.857122 0.857191
682 1 0.642848 0.928565 0.928631
542 1 0.357652 0.500099 0.642202
543 1 0.5 0.500002 0.644833
544 1 0.642347 0.500099 0.642202
681 1 0.57142 0.857118 0.857188
680 1 0.5 0.928564 0.928631
547 1 1 0.571446 0.571504
548 1 0.0714373 0.642872 0.642931
549 1 0.142835 0.57146 0.571512
550 1 0.214335 0.64286 0.642914
551 1 0.285684 0.571504 0.571539
552 1 0.357429 0.642558 0.64259
553 1 0.429593 0.570399 0.570529
554 1 0.5 0.642693 0.642663
555 1 0.570406 0.570399 0.570529
556 1 0.64257 0.642558 0.64259
557 1 0.714316 0.571504 0.571539
558 1 0.785664 0.64286 0.642914
559 1 0.857164 0.57146 0.571512
560 1 0.928562 0.642872 0.642931
561 1 1 0.714288 0.571493
562 1 0.0714499 0.785705 0.642912
563 1 0.142913 0.714262 0.571478
564 1 0.214354 0.785655 0.642874
565 1 0.285889 0.714101 0.571363
566 1 0.357179 0.785615 0.642881
567 1 0.428551 0.714022 0.571507
568 1 0.5 0.785616 0.642826
569 1 0.571449 0.714022 0.571507
570 1 0.64282 0.785615 0.642881
571 1 0.71411 0.714101 0.571363
572 1 0.785646 0.785655 0.642874
573 1 0.857086 0.714262 0.571478
574 1 0.92855 0.785705 0.642912
575 1 1 0.857141 0.571492
576 1 0.0714392 0.928574 0.642916
577 1 0.142884 0.857127 0.571487
578 1 0.214311 0.928554 0.642905
579 1 0.285761 0.857067 0.571467
580 1 0.357139 0.928551 0.642924
581 1 0.428537 0.857117 0.571516
582 1 0.5 0.928542 0.642907
583 1 0.571463 0.857117 0.571516
584 1 0.642861 0.928551 0.642924
585 1 0.714239 0.857067 0.571467
586 1 0.785689 0.928554 0.642905
587 1 0.857115 0.857127 0.571487
588 1 0.92856 0.928574 0.642916
679 1 0.428579 0.857118 0.857188
678 1 0.357152 0.928565 0.928631
677 1 0.285732 0.857122 0.857191
676 1 0.214298 0.928569 0.928632
675 1 0.14288 0.857128 0.857192
674 1 0.0714373 0.928573 0.928632
673 1 1 0.857141 0.857202
596 1 1 0.571431 0.714344
597 1 0.0714492 0.642851 0.785767
598 1 0.142907 0.571421 0.714321
599 1 0.214351 0.642822 0.785723
600 1 0.285851 0.57135 0.714191
601 1 0.357215 0.642787 0.785631
602 1 0.428626 0.571382 0.713883
603 1 0.5 0.642734 0.78561
604 1 0.571373 0.571382 0.713883
605 1 0.642785 0.642787 0.785631
606 1 0.714148 0.57135 0.714191
607 1 0.785648 0.642822 0.785723
608 1 0.857092 0.571421 0.714321
609 1 0.92855 0.642851 0.785767
610 1 1 0.714291 0.714352
611 1 0.0714444 0.785709 0.785771
612 1 0.142894 0.714276 0.714337
613 1 0.214338 0.785667 0.785731
614 1 0.285834 0.714164 0.71422
615 1 0.357166 0.785668 0.785737
616 1 0.428608 0.714209 0.714265
617 1 0.5 0.785663 0.78573
618 1 0.571392 0.714209 0.714265
619 1 0.642834 0.785668 0.785737
620 1 0.714165 0.714164 0.71422
621 1 0.785661 0.785667 0.785731
622 1 0.857106 0.714276 0.714337
623 1 0.928555 0.785709 0.785771
624 1 1 0.85714 0.714342
625 1 0.0714384 0.928574 0.785769
626 1 0.142885 0.857126 0.714331
627 1 0.214303 0.928561 0.785764
628 1 0.285742 0.857098 0.714322
629 1 0.357152 0.928557 0.785765
630 1 0.428584 0.857097 0.714321
631 1 0.5 0.928555 0.785763
632 1 0.571415 0.857097 0.714321
633 1 0.642847 0.928557 0.785765
634 1 0.714257 0.857098 0.714322
635 1 0.785696 0.928561 0.785764
636 1 0.857114 0.857126 0.714331
637 1 0.928561 0.928574 0.785769
638 1 0.0714438 0.500005 0.928629
639 1 0.214325 0.500005 0.928614
672 1 0.928559 0.785705 0.928632
671 1 0.857112 0.714268 0.857189
670 1 0.785687 0.785691 0.92862
643 1 0.785674 0.500005 0.928614
644 1 0.928556 0.500005 0.928629
645 1 1 0.571428 0.857198
646 1 0.0714428 0.64285 0.928631
647 1 0.142892 0.571423 0.857184
648 1 0.214323 0.642837 0.928615
649 1 0.285776 0.571401 0.857124
650 1 0.357157 0.642844 0.928604
651 1 0.428556 0.571439 0.857125
652 1 0.5 0.642824 0.928595
653 1 0.571444 0.571439 0.857125
654 1 0.642842 0.642844 0.928604
655 1 0.714224 0.571401 0.857124
656 1 0.785677 0.642837 0.928615
657 1 0.857108 0.571423 0.857184
658 1 0.928557 0.64285 0.928631
659 1 1 0.714279 0.857201
660 1 0.0714401 0.785705 0.928632
661 1 0.142888 0.714268 0.857189
662 1 0.214313 0.785691 0.92862
642 1 0.642822 0.500003 0.928581
641 1 0.5 0.500002 0.928641
640 1 0.357177 0.500003 0.928581
595 1 0.92855 0.500005 0.785762
594 1 0.785646 0.500005 0.785716
537 1 0.642846 0.928528 0.500067
536 1 0.5 0.928605 0.500067
535 1 0.357153 0.928528 0.500067
532 1 0.928552 0.785706 0.500067
531 1 0.785657 0.785665 0.500067
530 1 0.64274 0.785493 0.500067
529 1 0.5 0.786081 0.500067
528 1 0.35726 0.785493 0.500067
519 1 0.0714441 0.642866 0.500067
520 1 0.214404 0.642801 0.500067
524 1 0.785595 0.642801 0.500067
512 1 0.0713911 0.500006 0.500067
525 1 0.928555 0.642866 0.500067
513 1 0.214025 0.500011 0.500067
518 1 0.928608 0.500006 0.500067
517 1 0.785975 0.500011 0.500067
526 1 0.0714471 0.785706 0.500067
527 1 0.214343 0.785665 0.500067
