ITEM: TIMESTEP
212
ITEM: NUMBER OF ATOMS
685
ITEM: BOX BOUNDS pp pp pp
0.0000000000000000e+00 2.2013900999999997e+01
0.0000000000000000e+00 2.2013900999999997e+01
0.0000000000000000e+00 2.2013900999999997e+01
ITEM: ATOMS id type xs ys zs
343 1 0.857015 0.857003 0.428631
2 1 0.0714242 0.0714106 0.0714289
342 1 0.714123 0.856882 0.428664
4 1 0.214304 0.0714215 0.0714308
341 1 0.571382 0.856761 0.428715
6 1 0.357192 0.0714178 0.071419
340 1 0.428639 0.85681 0.428666
8 1 0.500013 0.0714173 0.0714277
297 1 0.285766 0.999888 0.428604
10 1 0.64284 0.0714306 0.0714216
339 1 0.285866 0.856894 0.42865
12 1 0.785671 0.0714131 0.0714329
338 1 0.142933 0.857025 0.428631
14 1 0.928526 0.0714311 0.0714441
337 1 0.999964 0.85705 0.4286
16 1 0.0714077 0.214313 0.0714243
336 1 0.856843 0.714137 0.428683
18 1 0.214301 0.214301 0.0714367
335 1 0.713502 0.713504 0.429194
20 1 0.357195 0.214315 0.0714301
334 1 0.571289 0.713174 0.429178
22 1 0.50002 0.214332 0.0714321
333 1 0.429124 0.71328 0.429134
24 1 0.642851 0.214334 0.0714399
332 1 0.286053 0.713912 0.428738
26 1 0.785656 0.214355 0.0714582
331 1 0.142994 0.714125 0.428646
28 1 0.928507 0.214316 0.0714492
330 1 0.999945 0.714229 0.428621
30 1 0.0713952 0.35717 0.0714213
329 1 0.856715 0.571405 0.428723
32 1 0.214294 0.357181 0.0714148
328 1 0.713113 0.571292 0.429208
34 1 0.357174 0.357163 0.0713946
327 1 0.570193 0.570027 0.428679
36 1 0.500022 0.357175 0.0714224
326 1 0.430251 0.569863 0.430268
38 1 0.642832 0.357186 0.071449
325 1 0.286399 0.571194 0.428716
40 1 0.785638 0.357186 0.071459
324 1 0.142925 0.571411 0.428588
42 1 0.928508 0.357193 0.0714437
323 1 0.999868 0.571427 0.428607
44 1 0.0714158 0.500026 0.071429
322 1 0.856745 0.428667 0.428675
46 1 0.214297 0.500027 0.0714252
321 1 0.713183 0.429118 0.429176
48 1 0.357193 0.500011 0.0713999
320 1 0.570142 0.430212 0.430451
50 1 0.500002 0.500015 0.0713845
319 1 0.429525 0.429138 0.429501
52 1 0.642825 0.50001 0.0714822
318 1 0.285925 0.428341 0.428515
54 1 0.785623 0.500027 0.0714782
317 1 0.142779 0.428502 0.428546
56 1 0.928509 0.500023 0.0714656
316 1 0.999807 0.428596 0.428608
58 1 0.0714061 0.642843 0.0714298
315 1 0.856886 0.285871 0.428656
60 1 0.214332 0.642845 0.071452
314 1 0.713968 0.286024 0.428739
62 1 0.357174 0.642851 0.0714536
313 1 0.571459 0.285948 0.428608
64 1 0.500011 0.642813 0.0714903
296 1 0.14288 0.999926 0.428591
66 1 0.642825 0.642833 0.0715131
312 1 0.428432 0.285587 0.428513
68 1 0.785632 0.642807 0.0714917
311 1 0.285706 0.285706 0.428625
70 1 0.928502 0.642828 0.0714754
383 1 0.6427 0.785175 0.499985
72 1 0.0714227 0.785674 0.0714403
298 1 0.428601 0.999849 0.428595
74 1 0.214342 0.785678 0.071447
310 1 0.142791 0.285733 0.428598
76 1 0.357192 0.785646 0.071457
309 1 0.999865 0.285768 0.428617
78 1 0.500017 0.78564 0.0714661
308 1 0.857032 0.142923 0.42862
80 1 0.642808 0.78564 0.0714816
307 1 0.714192 0.14296 0.428622
82 1 0.785651 0.785655 0.0714742
306 1 0.571436 0.142848 0.428571
84 1 0.928515 0.785684 0.0714508
305 1 0.428542 0.142766 0.428554
86 1 0.0714332 0.928539 0.0714407
304 1 0.285721 0.142831 0.428596
88 1 0.214329 0.928518 0.0714499
303 1 0.142829 0.142843 0.428583
90 1 0.357187 0.928524 0.071458
302 1 0.99993 0.142877 0.428604
92 1 0.500011 0.928518 0.0714727
301 1 0.857051 0.999961 0.428608
94 1 0.642846 0.928511 0.0714751
300 1 0.714247 0.999921 0.428599
96 1 0.785655 0.928521 0.0714591
299 1 0.571409 0.999878 0.4286
98 1 0.928534 0.928513 0.071456
99 1 0.999976 0.999956 0.142896
100 1 0.0714181 0.0714018 0.214313
101 1 0.142879 0.999962 0.142891
102 1 0.214313 0.0714023 0.214318
103 1 0.28576 0.999951 0.142899
104 1 0.357181 0.0714016 0.214333
105 1 0.428601 0.999939 0.142894
106 1 0.500023 0.0714061 0.214348
107 1 0.571428 0.999943 0.142904
108 1 0.642833 0.0714286 0.214366
109 1 0.714256 0.999953 0.142902
110 1 0.785662 0.071431 0.214342
111 1 0.857077 0.999963 0.142896
112 1 0.928507 0.0714379 0.214325
113 1 0.99994 0.142875 0.142886
114 1 0.0713874 0.214311 0.214319
115 1 0.142872 0.142862 0.142873
116 1 0.214307 0.214321 0.21431
117 1 0.285745 0.142872 0.142872
118 1 0.357172 0.214328 0.21433
119 1 0.428608 0.142879 0.142868
120 1 0.500025 0.214341 0.214343
121 1 0.571436 0.142886 0.142893
122 1 0.642792 0.214362 0.214378
123 1 0.714234 0.142908 0.142905
124 1 0.785587 0.214408 0.214405
125 1 0.857082 0.142904 0.142903
126 1 0.92846 0.214335 0.214343
127 1 0.999939 0.285761 0.142884
128 1 0.071355 0.357181 0.214323
129 1 0.142841 0.285742 0.142868
130 1 0.214281 0.357159 0.214302
131 1 0.285726 0.285734 0.142867
132 1 0.357117 0.357123 0.214304
133 1 0.428614 0.285758 0.142892
134 1 0.500011 0.357217 0.214469
135 1 0.571409 0.285768 0.142932
136 1 0.642737 0.357237 0.214486
137 1 0.714219 0.28578 0.14294
138 1 0.785548 0.357248 0.214465
139 1 0.857036 0.285789 0.142932
140 1 0.928439 0.357218 0.214364
141 1 0.999925 0.428602 0.1429
142 1 0.0713789 0.500018 0.214335
143 1 0.142849 0.4286 0.142859
144 1 0.214313 0.500008 0.214342
145 1 0.285739 0.428591 0.142879
146 1 0.357193 0.49998 0.214377
147 1 0.42855 0.428535 0.142815
148 1 0.499983 0.499967 0.214137
149 1 0.571434 0.428572 0.142934
150 1 0.642662 0.499976 0.214589
151 1 0.714172 0.428628 0.14299
152 1 0.785504 0.500027 0.214486
153 1 0.857037 0.428614 0.142954
154 1 0.928434 0.500021 0.214378
155 1 0.999925 0.571438 0.142896
156 1 0.0714133 0.642842 0.214358
157 1 0.142878 0.571434 0.142895
158 1 0.214344 0.642795 0.214378
159 1 0.285755 0.57142 0.142918
160 1 0.357212 0.642757 0.214474
161 1 0.428575 0.571429 0.142897
162 1 0.49999 0.642671 0.214603
163 1 0.571406 0.57143 0.142971
164 1 0.642737 0.642758 0.214582
165 1 0.714156 0.571406 0.143022
166 1 0.785518 0.642774 0.214496
167 1 0.857031 0.571423 0.142944
168 1 0.928444 0.642819 0.214383
169 1 0.999954 0.714245 0.142916
170 1 0.0714429 0.785632 0.21436
171 1 0.142882 0.714259 0.14293
172 1 0.214398 0.785603 0.214423
173 1 0.285795 0.714218 0.142947
174 1 0.357244 0.785537 0.214466
175 1 0.42861 0.714175 0.143001
176 1 0.500023 0.785521 0.21449
177 1 0.571401 0.714159 0.143026
178 1 0.642745 0.785523 0.214507
179 1 0.714181 0.71419 0.143035
180 1 0.785537 0.785536 0.214487
181 1 0.857025 0.714204 0.142959
182 1 0.928472 0.785634 0.21439
183 1 0.999962 0.857089 0.142894
184 1 0.0714272 0.928514 0.214339
185 1 0.142911 0.857085 0.142908
186 1 0.214342 0.928477 0.214354
187 1 0.285775 0.857061 0.142924
188 1 0.357212 0.928462 0.214369
189 1 0.428617 0.85706 0.142946
190 1 0.500016 0.928453 0.214369
191 1 0.571413 0.857045 0.14295
192 1 0.642824 0.928455 0.214373
193 1 0.714214 0.857056 0.142957
194 1 0.785625 0.928482 0.214358
195 1 0.857064 0.857061 0.142932
196 1 0.928515 0.928487 0.214349
197 1 0.99998 0.999955 0.285758
198 1 0.071417 0.0714044 0.35717
199 1 0.142877 0.999945 0.285747
200 1 0.214311 0.0713698 0.357174
201 1 0.285763 0.99992 0.285768
202 1 0.357155 0.0713568 0.357156
203 1 0.428615 0.999906 0.285786
204 1 0.500022 0.0713781 0.357179
205 1 0.57142 0.999935 0.285789
206 1 0.642828 0.0714159 0.357175
207 1 0.714236 0.999921 0.285777
208 1 0.785649 0.0714321 0.357193
209 1 0.857065 0.999964 0.28578
210 1 0.928493 0.0714247 0.357174
211 1 0.999935 0.142877 0.285744
212 1 0.0713701 0.214309 0.357163
213 1 0.142836 0.142844 0.285736
214 1 0.214256 0.214286 0.357163
215 1 0.285738 0.142838 0.285739
216 1 0.357113 0.214265 0.357142
217 1 0.428606 0.142868 0.285777
218 1 0.499996 0.214409 0.357249
219 1 0.571411 0.142884 0.285775
220 1 0.642785 0.214417 0.357226
221 1 0.714211 0.142929 0.285789
222 1 0.785545 0.214443 0.357252
223 1 0.857057 0.142909 0.285779
224 1 0.928432 0.21436 0.3572
225 1 0.999892 0.285764 0.285765
226 1 0.0713219 0.35716 0.357163
227 1 0.142813 0.285725 0.285735
228 1 0.214275 0.357148 0.357177
229 1 0.285772 0.285788 0.285796
230 1 0.357373 0.357317 0.357414
231 1 0.428673 0.285836 0.285871
232 1 0.499976 0.357799 0.357945
233 1 0.571293 0.285907 0.28593
234 1 0.642201 0.357762 0.357829
235 1 0.714015 0.28596 0.285983
236 1 0.785242 0.357427 0.357449
237 1 0.856912 0.285861 0.285871
238 1 0.928344 0.357219 0.35722
239 1 0.999866 0.428623 0.285776
240 1 0.071355 0.500016 0.357183
241 1 0.142827 0.428613 0.285779
242 1 0.214424 0.499931 0.357295
243 1 0.28574 0.428578 0.285794
244 1 0.357544 0.499858 0.357399
245 1 0.428469 0.428413 0.285746
246 1 0.49997 0.499797 0.355628
247 1 0.571402 0.428555 0.286109
248 1 0.642146 0.499951 0.358142
249 1 0.713935 0.428734 0.286097
250 1 0.785169 0.500077 0.357502
251 1 0.85689 0.428662 0.28587
252 1 0.928332 0.500049 0.35724
253 1 0.999893 0.57142 0.285796
254 1 0.0714229 0.642813 0.357211
255 1 0.142877 0.571402 0.285796
256 1 0.214521 0.642673 0.357318
257 1 0.285845 0.571296 0.285862
258 1 0.357748 0.642201 0.357745
259 1 0.428583 0.571342 0.286004
260 1 0.499923 0.641919 0.358337
261 1 0.571372 0.571376 0.286068
262 1 0.642147 0.642157 0.358171
263 1 0.713867 0.571295 0.286179
264 1 0.78524 0.642634 0.357458
265 1 0.85689 0.57139 0.285903
266 1 0.928375 0.642787 0.357246
267 1 0.99993 0.71423 0.285784
268 1 0.0714457 0.785627 0.357208
269 1 0.142947 0.714177 0.28582
270 1 0.21446 0.785531 0.357255
271 1 0.285954 0.714026 0.28598
272 1 0.357401 0.785267 0.357433
273 1 0.428743 0.713914 0.286113
274 1 0.500055 0.785186 0.357492
275 1 0.571263 0.713865 0.286185
276 1 0.642625 0.785293 0.357429
277 1 0.71393 0.713951 0.286134
278 1 0.785397 0.785396 0.357407
279 1 0.856922 0.714159 0.285879
280 1 0.928434 0.785617 0.357216
281 1 0.999944 0.857063 0.285787
282 1 0.0714252 0.928496 0.357189
283 1 0.14293 0.85703 0.285796
284 1 0.214369 0.928442 0.357208
285 1 0.28585 0.856936 0.28587
286 1 0.35722 0.928376 0.357214
287 1 0.428653 0.856914 0.285881
288 1 0.500022 0.92836 0.357251
289 1 0.571377 0.856898 0.285897
290 1 0.642793 0.928382 0.357242
291 1 0.714149 0.856938 0.285883
292 1 0.785599 0.928448 0.35723
293 1 0.857008 0.85698 0.285843
294 1 0.928517 0.928487 0.357186
295 1 0.999983 0.99996 0.428582
382 1 0.499951 0.785233 0.499977
367 1 0.35495 0.499599 0.499981
354 1 0.499995 0.213946 0.5
370 1 0.785183 0.49994 0.499982
377 1 0.785125 0.642728 0.499983
65 1 0.571417 0.571431 7.58781e-06
389 1 0.49999 0.928389 0.499999
390 1 0.642824 0.928409 0.499994
372 1 0.0714727 0.642787 0.499994
344 1 0.0714102 0.0713972 0.500012
345 1 0.214304 0.0713748 0.500015
346 1 0.357166 0.071344 0.500014
685 2 0.454048 0.495201 0.500533
684 1 0.785651 0.928531 0.928521
349 1 0.785631 0.0714458 0.500011
350 1 0.928497 0.0714478 0.500009
351 1 0.0713494 0.214301 0.50001
352 1 0.214257 0.21428 0.500018
353 1 0.357151 0.214256 0.500017
97 1 0.857085 0.857068 0.99999
355 1 0.642707 0.2145 0.50001
356 1 0.785527 0.214447 0.500027
357 1 0.928438 0.214352 0.500022
358 1 0.0713002 0.35717 0.500015
359 1 0.214316 0.357181 0.500023
360 1 0.357471 0.357183 0.500069
361 1 0.500057 0.355167 0.500024
362 1 0.642215 0.35796 0.500063
363 1 0.785201 0.357462 0.500095
364 1 0.928315 0.35725 0.500034
683 1 0.714191 0.857054 0.857039
23 1 0.571445 0.142881 0.999963
71 1 0.999994 0.714252 0.999983
368 1 0.928531 0.928518 0.928511
369 1 0.642532 0.50104 0.501179
95 1 0.714231 0.857066 0.99999
682 1 0.642837 0.928506 0.928513
391 1 0.785601 0.92845 0.500018
373 1 0.214648 0.642553 0.500002
374 1 0.358074 0.642234 0.500063
375 1 0.501141 0.642716 0.501086
376 1 0.640836 0.640879 0.501306
93 1 0.571423 0.857056 0.999986
681 1 0.571427 0.857025 0.857025
680 1 0.500022 0.928523 0.928514
380 1 0.214478 0.785479 0.500036
381 1 0.357458 0.785236 0.500102
91 1 0.428621 0.857068 0.999981
679 1 0.42862 0.857028 0.857015
384 1 0.785447 0.785432 0.500074
385 1 0.928447 0.785599 0.500034
678 1 0.357185 0.9285 0.928504
387 1 0.21435 0.928443 0.500018
388 1 0.357241 0.928341 0.500037
89 1 0.285774 0.857072 0.999969
677 1 0.285843 0.857017 0.857011
676 1 0.214353 0.928506 0.928509
675 1 0.14292 0.85706 0.857062
393 1 0.999975 0.999964 0.571424
394 1 0.0714084 0.0713976 0.642846
395 1 0.142892 0.999938 0.571412
396 1 0.214315 0.0713795 0.642846
397 1 0.285769 0.999892 0.571427
398 1 0.357158 0.0713877 0.64285
399 1 0.428614 0.999851 0.571421
400 1 0.500012 0.0714053 0.642828
401 1 0.571406 0.999949 0.57143
402 1 0.642843 0.0714489 0.642846
403 1 0.714236 0.999946 0.571416
404 1 0.785636 0.0714393 0.642816
405 1 0.857057 0.999968 0.571422
406 1 0.928505 0.0714366 0.642843
407 1 0.999921 0.142879 0.571418
408 1 0.071378 0.214317 0.642848
409 1 0.142852 0.142846 0.571426
410 1 0.214277 0.214302 0.642842
411 1 0.28572 0.142827 0.571428
412 1 0.357138 0.214316 0.642858
413 1 0.428544 0.142787 0.571454
414 1 0.499985 0.214476 0.642773
415 1 0.571436 0.142863 0.571455
416 1 0.642784 0.214471 0.642827
417 1 0.714183 0.142962 0.571408
418 1 0.785536 0.214461 0.642793
419 1 0.85705 0.142916 0.571407
420 1 0.928439 0.214365 0.642814
421 1 0.999859 0.285769 0.571426
422 1 0.0713402 0.357167 0.642861
423 1 0.142803 0.285737 0.571433
424 1 0.214331 0.357177 0.642812
425 1 0.285721 0.285722 0.571411
426 1 0.357489 0.357429 0.642551
427 1 0.428522 0.285692 0.571515
428 1 0.49997 0.358151 0.642097
429 1 0.571453 0.285877 0.571507
430 1 0.642233 0.358036 0.642283
431 1 0.713923 0.286108 0.571354
432 1 0.785275 0.357418 0.642677
433 1 0.856898 0.28587 0.571402
434 1 0.928346 0.357237 0.642813
435 1 0.999816 0.428619 0.571422
436 1 0.0714064 0.500014 0.642817
437 1 0.14281 0.428521 0.57147
438 1 0.214526 0.499929 0.642707
439 1 0.286048 0.42842 0.571517
440 1 0.357964 0.499842 0.642544
441 1 0.429979 0.429458 0.570642
442 1 0.501152 0.500812 0.643139
443 1 0.570295 0.428359 0.570306
444 1 0.640836 0.501229 0.641002
445 1 0.713171 0.429121 0.571394
446 1 0.785132 0.499964 0.642756
447 1 0.856723 0.428725 0.571404
448 1 0.928382 0.50002 0.642808
449 1 0.999925 0.571413 0.571429
450 1 0.0714778 0.642805 0.64284
451 1 0.142939 0.571398 0.57144
452 1 0.214598 0.642665 0.64273
453 1 0.286341 0.57118 0.571379
454 1 0.358118 0.642122 0.642269
455 1 0.428719 0.569723 0.570085
456 1 0.501244 0.640461 0.640615
457 1 0.857052 0.857035 0.857034
458 1 0.641401 0.641407 0.641468
459 1 0.715411 0.571366 0.571429
460 1 0.785277 0.642821 0.642839
461 1 0.857097 0.571404 0.571418
462 1 0.92845 0.642824 0.64283
463 1 0.999942 0.714214 0.571398
464 1 0.0714632 0.785624 0.642805
465 1 0.143026 0.714129 0.57138
466 1 0.214487 0.785493 0.642767
467 1 0.286118 0.713856 0.571354
468 1 0.357406 0.785275 0.642662
469 1 0.429166 0.713214 0.571387
470 1 0.499961 0.785115 0.642752
471 1 0.57134 0.715489 0.571415
472 1 0.642788 0.785336 0.642826
473 1 0.713579 0.713593 0.571333
474 1 0.785474 0.785482 0.642734
475 1 0.856849 0.7141 0.571383
476 1 0.928464 0.785627 0.64279
477 1 0.999966 0.857046 0.571422
478 1 0.0714373 0.928505 0.642831
479 1 0.142935 0.857022 0.5714
480 1 0.214373 0.928451 0.642823
481 1 0.285881 0.856888 0.571406
482 1 0.35722 0.928366 0.642806
483 1 0.428696 0.856757 0.571404
484 1 0.499993 0.928422 0.642833
485 1 0.57141 0.85712 0.571426
486 1 0.642851 0.928447 0.64284
487 1 0.714078 0.856879 0.571398
488 1 0.785609 0.928478 0.642807
489 1 0.857034 0.857011 0.571409
490 1 0.928518 0.928493 0.642819
491 1 0.99998 0.999966 0.714245
492 1 0.0714239 0.0714182 0.785672
493 1 0.14289 0.999941 0.714261
494 1 0.214315 0.071409 0.785672
495 1 0.285768 0.99992 0.714243
496 1 0.357198 0.0714284 0.785657
497 1 0.428612 0.999931 0.714251
498 1 0.500018 0.0714201 0.785646
499 1 0.571401 0.999951 0.714231
500 1 0.642831 0.0714629 0.785641
501 1 0.71426 0.999957 0.714241
502 1 0.785649 0.0714435 0.785652
503 1 0.857067 0.999976 0.714229
504 1 0.928512 0.0714471 0.785663
505 1 0.999937 0.142869 0.714263
506 1 0.071397 0.214315 0.785679
507 1 0.142854 0.142853 0.714274
508 1 0.214338 0.214358 0.785665
509 1 0.285751 0.142874 0.714253
510 1 0.35722 0.214399 0.785611
511 1 0.428596 0.142927 0.714215
512 1 0.500026 0.21444 0.785587
513 1 0.571422 0.142956 0.714213
514 1 0.642779 0.214441 0.785564
515 1 0.7142 0.142971 0.71422
516 1 0.785562 0.214469 0.785572
517 1 0.85705 0.142919 0.714228
518 1 0.928463 0.214337 0.785658
519 1 0.999889 0.285788 0.714251
520 1 0.0713862 0.357198 0.785663
521 1 0.142848 0.285757 0.71425
522 1 0.214362 0.3572 0.785645
523 1 0.285833 0.285852 0.714166
524 1 0.357325 0.357337 0.785456
525 1 0.42873 0.285984 0.714062
526 1 0.500072 0.357377 0.785348
527 1 0.571283 0.286091 0.713976
528 1 0.642663 0.35738 0.785391
529 1 0.713978 0.286078 0.714007
530 1 0.785409 0.35738 0.785426
531 1 0.856924 0.285861 0.714179
532 1 0.928423 0.357232 0.785627
533 1 0.999908 0.428595 0.714259
534 1 0.0714219 0.500009 0.785655
535 1 0.142887 0.428599 0.714228
536 1 0.214392 0.500025 0.785599
537 1 0.285929 0.428646 0.714108
538 1 0.357386 0.500052 0.785405
539 1 0.429031 0.428954 0.713658
540 1 0.499959 0.499929 0.785432
541 1 0.571338 0.429048 0.713369
542 1 0.642713 0.499954 0.785251
543 1 0.71352 0.42916 0.713572
544 1 0.785453 0.500069 0.785473
545 1 0.856848 0.428656 0.714155
546 1 0.928423 0.500036 0.785649
547 1 0.999929 0.571441 0.714207
548 1 0.0714448 0.642841 0.785615
549 1 0.142954 0.571392 0.714188
550 1 0.214444 0.642769 0.785552
551 1 0.28608 0.571287 0.714008
552 1 0.357389 0.642641 0.78535
553 1 0.429127 0.571264 0.713414
554 1 0.499952 0.642707 0.785196
555 1 0.571363 0.571341 0.715619
556 1 0.642807 0.642829 0.785377
557 1 0.713585 0.571326 0.713648
558 1 0.785468 0.642748 0.785485
559 1 0.856849 0.571401 0.714111
560 1 0.928458 0.642815 0.785627
561 1 0.999979 0.714227 0.714234
562 1 0.071477 0.78563 0.785639
563 1 0.143002 0.714167 0.714188
564 1 0.214443 0.785544 0.785557
565 1 0.286099 0.713934 0.713976
566 1 0.357405 0.785402 0.785412
567 1 0.429211 0.713456 0.713509
568 1 0.500061 0.785445 0.785467
569 1 0.57123 0.71354 0.713572
570 1 0.642697 0.785488 0.785481
571 1 0.713692 0.713688 0.713718
572 1 0.785481 0.785467 0.785465
573 1 0.856928 0.714196 0.714195
574 1 0.928466 0.785644 0.785648
575 1 0.99997 0.85707 0.714224
576 1 0.0714442 0.92851 0.785663
577 1 0.142938 0.857036 0.71422
578 1 0.214355 0.928482 0.785646
579 1 0.28586 0.856939 0.714172
580 1 0.357233 0.928424 0.785632
581 1 0.428652 0.856852 0.714161
582 1 0.500008 0.928458 0.785627
583 1 0.571385 0.856843 0.714114
584 1 0.642817 0.928441 0.785628
585 1 0.71419 0.856961 0.71419
586 1 0.785631 0.928488 0.78564
587 1 0.857032 0.857019 0.714216
588 1 0.928513 0.928497 0.785673
589 1 0.999974 0.999957 0.857109
590 1 0.0714278 0.071407 0.92855
591 1 0.142888 0.999967 0.857098
592 1 0.214323 0.071422 0.928535
593 1 0.285763 0.999943 0.857096
594 1 0.357177 0.0714352 0.928541
595 1 0.428628 0.999952 0.857069
596 1 0.500034 0.0714324 0.928536
597 1 0.571412 0.999968 0.857081
598 1 0.64283 0.0714439 0.928535
599 1 0.714247 0.999956 0.857071
600 1 0.785664 0.0714294 0.928538
601 1 0.857073 0.999967 0.857097
602 1 0.928513 0.0714414 0.928547
603 1 0.999955 0.142888 0.857102
604 1 0.0714067 0.214335 0.928536
605 1 0.14287 0.142873 0.857098
606 1 0.214339 0.214332 0.928514
607 1 0.285781 0.142908 0.857092
608 1 0.357201 0.214333 0.928503
609 1 0.428612 0.142914 0.857072
610 1 0.500026 0.21435 0.928496
611 1 0.571436 0.14291 0.857079
612 1 0.642827 0.214346 0.928502
613 1 0.714225 0.142917 0.857069
614 1 0.785646 0.214358 0.928503
615 1 0.857079 0.14292 0.857073
616 1 0.928507 0.214336 0.928515
617 1 0.999941 0.285764 0.857095
618 1 0.071408 0.357167 0.928539
619 1 0.142883 0.28575 0.857105
620 1 0.214342 0.357182 0.928509
621 1 0.285794 0.285806 0.857032
622 1 0.357188 0.357208 0.928473
623 1 0.42865 0.28583 0.856991
624 1 0.500039 0.357216 0.928441
625 1 0.5714 0.285851 0.856968
626 1 0.642815 0.357235 0.92844
627 1 0.714186 0.285855 0.856976
628 1 0.785629 0.35722 0.928479
629 1 0.856993 0.285831 0.857017
630 1 0.928494 0.357201 0.928524
631 1 0.999936 0.428617 0.857075
632 1 0.0714287 0.500026 0.928532
633 1 0.142879 0.428631 0.857081
634 1 0.214324 0.500038 0.928502
635 1 0.285809 0.428628 0.857033
636 1 0.357224 0.500028 0.928451
637 1 0.428611 0.42862 0.856962
638 1 0.49999 0.500004 0.928484
639 1 0.571419 0.428683 0.856864
640 1 0.642841 0.499996 0.928472
641 1 0.714136 0.428661 0.856926
642 1 0.785604 0.500035 0.928485
643 1 0.857021 0.428645 0.857026
644 1 0.928491 0.500016 0.928504
645 1 0.999936 0.571428 0.857085
646 1 0.0714164 0.64287 0.928543
647 1 0.142912 0.571415 0.857068
648 1 0.214358 0.642845 0.928494
649 1 0.285826 0.571411 0.85698
650 1 0.357218 0.642833 0.928426
651 1 0.4287 0.57141 0.856864
652 1 0.499989 0.642846 0.928458
653 1 0.5714 0.571415 0.857208
654 1 0.642849 0.64285 0.928486
655 1 0.714097 0.571406 0.85691
656 1 0.785605 0.642826 0.92849
657 1 0.857026 0.571404 0.857034
658 1 0.928521 0.64283 0.928515
659 1 0.999963 0.714243 0.857074
660 1 0.0714416 0.785653 0.928532
661 1 0.142918 0.714253 0.857048
662 1 0.21435 0.785657 0.928489
663 1 0.285852 0.71417 0.856975
664 1 0.357227 0.785623 0.928473
665 1 0.428655 0.714147 0.85691
666 1 0.500024 0.785615 0.928483
667 1 0.571393 0.714106 0.856897
668 1 0.6428 0.785618 0.928479
669 1 0.714183 0.714184 0.856977
670 1 0.785637 0.78562 0.928511
671 1 0.857036 0.714219 0.857034
672 1 0.928513 0.785663 0.928527
673 1 0.999956 0.857097 0.857091
674 1 0.0714206 0.928537 0.928538
392 1 0.928501 0.928492 0.500009
3 1 0.142871 0.999977 0.99999
5 1 0.285758 0.999978 0.999979
7 1 0.428611 0.999988 0.999991
11 1 0.714259 0.999978 0.999989
13 1 0.85708 0.999994 0.999988
15 1 0.999961 0.14287 0.999983
17 1 0.142864 0.142854 0.999982
19 1 0.285756 0.142863 0.99997
21 1 0.428601 0.142881 0.999979
379 1 0.071466 0.785607 0.500018
25 1 0.714251 0.142889 0.999982
27 1 0.857099 0.142884 0.999976
29 1 0.999982 0.285762 0.999983
31 1 0.142853 0.285748 0.999975
33 1 0.28575 0.285753 0.99994
35 1 0.428623 0.285773 0.999958
37 1 0.571433 0.285776 0.999947
39 1 0.714246 0.285779 0.999973
41 1 0.857062 0.285775 0.999972
43 1 0.999966 0.428584 0.999995
45 1 0.142854 0.428608 0.999978
47 1 0.285759 0.428606 0.999936
49 1 0.428589 0.428598 0.999936
51 1 0.571443 0.428605 0.999935
53 1 0.714235 0.428607 0.999967
55 1 0.857061 0.428605 0.999979
57 1 0.999967 0.571451 0.999988
59 1 0.142868 0.571435 0.999967
61 1 0.285758 0.571446 0.999958
63 1 0.428614 0.571429 0.999935
67 1 0.71424 0.571419 0.999982
69 1 0.85706 0.571434 0.999983
75 1 0.285783 0.71425 0.999963
77 1 0.428606 0.714268 0.999954
79 1 0.571409 0.714239 0.999971
1 1 0.999984 0.999974 0.999979
83 1 0.85706 0.714249 0.999993
386 1 0.071455 0.928504 0.500003
87 1 0.142892 0.857086 0.999984
9 1 0.571435 0.99999 0.999985
85 1 0.999972 0.857111 0.999992
366 1 0.213921 0.499872 0.500011
73 1 0.142868 0.71427 0.999972
81 1 0.714248 0.714251 0.999986
378 1 0.928389 0.642822 0.500001
371 1 0.928328 0.500005 0.500022
365 1 0.071286 0.49999 0.50001
348 1 0.642818 0.0714288 0.50002
347 1 0.500003 0.0713025 0.500012
