ITEM: TIMESTEP
619
ITEM: NUMBER OF ATOMS
684
ITEM: BOX BOUNDS pp pp pp
0.0000000000000000e+00 2.2013900999999997e+01
0.0000000000000000e+00 2.2013900999999997e+01
0.0000000000000000e+00 2.2013900999999997e+01
ITEM: ATOMS id type xs ys zs
126 1 0.856972 0.428645 0.285851
2 1 0.0714399 0.0714368 0.0714418
125 1 0.714025 0.428747 0.286066
4 1 0.214315 0.0714421 0.071436
124 1 0.571451 0.428668 0.286187
6 1 0.357161 0.0714373 0.0714408
123 1 0.428593 0.428586 0.286059
8 1 0.50001 0.071432 0.0714426
122 1 0.285921 0.428684 0.285919
10 1 0.642843 0.0714358 0.0714391
121 1 0.14294 0.428615 0.285795
12 1 0.785684 0.0714346 0.0714343
120 1 0.999955 0.428613 0.285775
14 1 0.928551 0.0714363 0.071442
106 1 0.999972 0.142889 0.285753
16 1 0.0714336 0.214312 0.0714396
107 1 0.142893 0.14289 0.285748
18 1 0.214335 0.214332 0.0714433
108 1 0.285782 0.142933 0.285779
20 1 0.35718 0.214334 0.0714487
109 1 0.428613 0.142939 0.285801
22 1 0.500013 0.21434 0.0714394
110 1 0.571406 0.142945 0.2858
24 1 0.64283 0.214346 0.0714447
111 1 0.71422 0.142952 0.285797
26 1 0.785667 0.214343 0.0714481
112 1 0.857079 0.142919 0.285776
28 1 0.928536 0.214323 0.0714469
98 1 0.857067 0.428607 0.142924
30 1 0.071435 0.357169 0.0714378
97 1 0.714208 0.428618 0.142982
32 1 0.214344 0.357183 0.0714432
96 1 0.57144 0.4286 0.142965
34 1 0.357167 0.35718 0.0714389
95 1 0.42859 0.42859 0.142936
36 1 0.500013 0.357199 0.0714585
94 1 0.285795 0.428616 0.142937
38 1 0.642834 0.357185 0.0714594
93 1 0.142906 0.428601 0.142901
40 1 0.785654 0.357184 0.0714553
92 1 0.99998 0.428593 0.142888
42 1 0.928534 0.357177 0.0714507
91 1 0.928502 0.357192 0.214355
90 1 0.857074 0.285778 0.142919
89 1 0.785587 0.357248 0.214447
88 1 0.71422 0.285798 0.142955
87 1 0.642774 0.357257 0.214512
86 1 0.571411 0.285793 0.142945
85 1 0.500029 0.357301 0.214523
119 1 0.856985 0.285847 0.285844
51 1 0.0714429 0.0714431 0.21431
118 1 0.71405 0.285981 0.285981
53 1 0.214331 0.0714375 0.214337
117 1 0.571362 0.285937 0.285934
55 1 0.357179 0.0714414 0.21434
116 1 0.428684 0.285919 0.285918
57 1 0.500014 0.0714441 0.214342
115 1 0.285925 0.285934 0.285933
59 1 0.64283 0.0714564 0.214339
114 1 0.142927 0.285774 0.28578
61 1 0.785664 0.0714511 0.214335
113 1 0.999964 0.285764 0.285763
63 1 0.928536 0.0714438 0.21432
64 1 0.999981 0.142886 0.142888
65 1 0.0714446 0.214331 0.214328
66 1 0.142893 0.142887 0.142884
67 1 0.214368 0.214368 0.214371
68 1 0.285748 0.142893 0.142896
69 1 0.357202 0.214366 0.214371
70 1 0.428602 0.142905 0.142903
71 1 0.500012 0.214379 0.214374
72 1 0.571415 0.142898 0.142908
73 1 0.642807 0.214388 0.214384
74 1 0.714252 0.142902 0.142904
75 1 0.785606 0.214389 0.214398
76 1 0.857088 0.142902 0.142893
77 1 0.928515 0.214346 0.214348
78 1 0.999983 0.285751 0.142895
79 1 0.0714437 0.357182 0.214339
80 1 0.14289 0.285755 0.1429
81 1 0.214375 0.357206 0.214372
82 1 0.285773 0.285775 0.142927
83 1 0.357222 0.357225 0.214454
84 1 0.428622 0.285803 0.142941
127 1 0.0714412 0.0714336 0.357174
128 1 0.214334 0.071446 0.35718
129 1 0.357177 0.0714426 0.357178
130 1 0.500012 0.0714571 0.357201
131 1 0.642826 0.0714661 0.357188
132 1 0.785653 0.0714576 0.357192
133 1 0.928536 0.0714483 0.357178
134 1 0.0714402 0.214342 0.357184
135 1 0.214374 0.214376 0.357208
136 1 0.357225 0.21445 0.357223
137 1 0.500027 0.214524 0.357303
138 1 0.642778 0.214508 0.357253
139 1 0.785582 0.214443 0.357245
140 1 0.928504 0.214358 0.35719
141 1 0.0714423 0.357168 0.357173
142 1 0.214453 0.357224 0.35722
143 1 0.357704 0.357708 0.357707
144 1 0.500087 0.357772 0.357767
145 1 0.64226 0.357838 0.357843
146 1 0.785339 0.357423 0.357423
147 1 0.928443 0.35721 0.357203
245 1 0.856834 0.428698 0.571412
149 1 0.0714426 0.0714452 0.500006
244 1 0.713276 0.42918 0.571368
151 1 0.214348 0.0714379 0.500015
243 1 0.570299 0.428592 0.570296
153 1 0.357195 0.0714572 0.500009
242 1 0.430463 0.43046 0.570117
155 1 0.5 0.0714282 0.500008
241 1 0.286184 0.428667 0.57146
157 1 0.642827 0.0714859 0.500013
240 1 0.142963 0.428596 0.571433
159 1 0.785648 0.0714605 0.50001
239 1 0.999944 0.428608 0.571421
161 1 0.928531 0.0714429 0.500002
162 1 0.999976 0.142893 0.428595
163 1 0.0714416 0.21435 0.500012
164 1 0.142895 0.142901 0.428602
165 1 0.21438 0.214385 0.500008
166 1 0.285794 0.142935 0.428615
167 1 0.357301 0.214522 0.500028
168 1 0.428582 0.142936 0.428588
169 1 0.500007 0.214236 0.500009
170 1 0.571437 0.142966 0.428596
171 1 0.642733 0.214584 0.500019
172 1 0.714206 0.142981 0.42862
173 1 0.785568 0.214452 0.50003
174 1 0.857069 0.142928 0.428611
175 1 0.928496 0.214363 0.50001
176 1 0.999961 0.285775 0.428604
177 1 0.0714567 0.357196 0.500016
178 1 0.142946 0.2858 0.428618
179 1 0.214526 0.357301 0.500029
180 1 0.285921 0.28592 0.428685
181 1 0.35777 0.357767 0.500093
182 1 0.42859 0.286055 0.42859
183 1 0.500029 0.355847 0.500023
184 1 0.571455 0.286184 0.428667
185 1 0.642252 0.358154 0.500056
186 1 0.714025 0.286068 0.428733
187 1 0.7853 0.357459 0.500081
188 1 0.856973 0.285854 0.428645
189 1 0.928421 0.357231 0.500027
190 1 0.999941 0.42859 0.428592
191 1 0.142942 0.428585 0.428587
192 1 0.286051 0.428587 0.428588
193 1 0.429962 0.429967 0.42995
194 1 0.570114 0.430459 0.430461
195 1 0.713323 0.429165 0.429163
196 1 0.856879 0.428648 0.428639
238 1 0.928441 0.357216 0.642808
198 1 0.0714418 0.0714396 0.642842
237 1 0.856978 0.28586 0.571403
200 1 0.214337 0.0714455 0.642833
236 1 0.785361 0.3574 0.642689
202 1 0.357186 0.0714536 0.642836
235 1 0.713973 0.286125 0.571347
204 1 0.50001 0.0714874 0.642828
234 1 0.642272 0.358107 0.642264
206 1 0.642837 0.0714934 0.642842
233 1 0.571452 0.286104 0.571457
208 1 0.785654 0.0714675 0.642823
232 1 0.500058 0.358152 0.642249
210 1 0.928532 0.0714488 0.642835
211 1 0.999985 0.142897 0.571419
212 1 0.0714496 0.214341 0.64283
213 1 0.142905 0.142903 0.571419
214 1 0.214384 0.214383 0.642811
215 1 0.285801 0.142951 0.571403
216 1 0.357255 0.214503 0.642782
217 1 0.428593 0.142961 0.571435
218 1 0.500019 0.214586 0.64273
219 1 0.571439 0.142978 0.571435
220 1 0.642783 0.214541 0.642789
221 1 0.714195 0.143003 0.5714
222 1 0.785569 0.214461 0.64278
223 1 0.857071 0.142924 0.571415
224 1 0.928499 0.214368 0.642824
225 1 0.999958 0.285781 0.571419
226 1 0.0714609 0.35718 0.64283
227 1 0.142957 0.285805 0.571413
228 1 0.214507 0.357256 0.642775
229 1 0.285931 0.285931 0.571362
230 1 0.357842 0.357838 0.642257
231 1 0.428669 0.286182 0.571451
545 1 0.785243 0.499977 0.642755
496 1 0.785325 0.499975 0.499973
546 1 0.928462 0.499998 0.642838
497 1 0.928462 0.499996 0.499996
343 1 0.857045 0.428615 0.857045
247 1 0.0714424 0.0714392 0.785683
342 1 0.714176 0.428652 0.856919
249 1 0.214343 0.0714537 0.785665
341 1 0.571414 0.428707 0.856842
251 1 0.357185 0.0714526 0.785654
340 1 0.428651 0.428642 0.856885
253 1 0.500009 0.0714626 0.785647
339 1 0.285857 0.428644 0.856967
255 1 0.642823 0.0714728 0.785652
338 1 0.142925 0.428606 0.85707
257 1 0.785652 0.0714658 0.785659
337 1 0.999979 0.428591 0.857088
259 1 0.928537 0.0714467 0.785681
260 1 0.999978 0.142899 0.71425
261 1 0.0714506 0.214338 0.785672
262 1 0.142901 0.142897 0.714243
263 1 0.214393 0.214387 0.785608
264 1 0.28579 0.142954 0.714227
265 1 0.357241 0.214442 0.785585
266 1 0.42862 0.142987 0.714203
267 1 0.500031 0.214464 0.785567
268 1 0.571403 0.14301 0.714192
269 1 0.642784 0.214463 0.785568
270 1 0.714219 0.142985 0.714218
271 1 0.785579 0.214443 0.785577
272 1 0.857068 0.142925 0.714236
273 1 0.928511 0.214353 0.785655
274 1 0.999965 0.285769 0.714236
275 1 0.0714534 0.357188 0.785656
276 1 0.142957 0.285795 0.71422
277 1 0.214443 0.357238 0.785586
278 1 0.285984 0.285993 0.714047
279 1 0.357425 0.357425 0.785338
280 1 0.428735 0.286069 0.714023
281 1 0.500085 0.35746 0.785305
282 1 0.571341 0.286122 0.713972
283 1 0.642684 0.357406 0.785355
284 1 0.714001 0.286094 0.714004
285 1 0.785442 0.357384 0.78544
286 1 0.856987 0.285845 0.71418
287 1 0.928475 0.357213 0.785633
288 1 0.999969 0.428599 0.714244
289 1 0.14299 0.428618 0.714205
290 1 0.286066 0.428736 0.714025
291 1 0.429163 0.429163 0.713322
292 1 0.57137 0.429172 0.713278
293 1 0.713588 0.429171 0.71359
294 1 0.856917 0.428657 0.714175
336 1 0.928522 0.357185 0.928528
296 1 0.0714383 0.071437 0.928548
335 1 0.857029 0.285824 0.857037
298 1 0.214328 0.0714465 0.928531
334 1 0.785641 0.357205 0.928477
300 1 0.357172 0.071447 0.928534
333 1 0.714187 0.285846 0.856987
302 1 0.500009 0.071449 0.928531
332 1 0.642805 0.357218 0.928439
304 1 0.642844 0.0714513 0.928532
331 1 0.571397 0.285858 0.85697
306 1 0.785679 0.0714473 0.928541
330 1 0.500025 0.357227 0.928425
308 1 0.928533 0.0714423 0.928543
309 1 0.999982 0.142893 0.857112
310 1 0.071453 0.214321 0.928535
311 1 0.142901 0.142899 0.857092
312 1 0.214339 0.214347 0.928506
313 1 0.285779 0.14292 0.857081
314 1 0.357198 0.214356 0.928503
315 1 0.428606 0.14293 0.857066
316 1 0.500016 0.214364 0.928499
317 1 0.571422 0.142932 0.857072
318 1 0.642823 0.214355 0.928504
319 1 0.714229 0.142923 0.857074
320 1 0.785658 0.214355 0.928513
321 1 0.857085 0.142912 0.85708
322 1 0.928527 0.214334 0.928526
323 1 0.999982 0.285766 0.857091
324 1 0.0714508 0.357174 0.928532
325 1 0.142919 0.285771 0.857079
326 1 0.214357 0.357197 0.928506
327 1 0.285846 0.285848 0.856982
328 1 0.357208 0.357207 0.928448
329 1 0.428645 0.28585 0.85697
590 1 0.499976 0.499976 0.785324
591 1 0.642756 0.499979 0.785242
15 1 0.999988 0.142888 0.999988
17 1 0.142891 0.142888 0.999988
48 1 0.714236 0.428604 0.999969
37 1 0.571414 0.285782 0.999962
39 1 0.714235 0.285773 0.999974
21 1 0.428592 0.142897 0.999978
19 1 0.285749 0.142887 0.999985
47 1 0.571423 0.428612 0.999938
46 1 0.428586 0.42859 0.999948
33 1 0.285764 0.285773 0.999965
35 1 0.428612 0.285774 0.999955
640 1 0.642827 0.49999 0.928467
639 1 0.499992 0.499992 0.928456
41 1 0.85709 0.285765 0.999977
45 1 0.285775 0.428599 0.999957
49 1 0.857092 0.428592 0.999976
44 1 0.142892 0.42859 0.999975
25 1 0.714257 0.142889 0.999978
23 1 0.571421 0.1429 0.999982
29 1 0.99999 0.285742 0.999986
43 1 0.999982 0.428588 0.999991
31 1 0.14289 0.285753 0.999981
27 1 0.857104 0.142891 0.999984
60 1 0.714249 0.99998 0.14289
394 1 0.214382 0.500013 0.214389
455 1 0.856983 0.714187 0.285848
396 1 0.500009 0.500014 0.214231
397 1 0.642729 0.500019 0.214596
349 1 0.785651 0.500012 0.0714699
103 1 0.571415 0.999964 0.285789
105 1 0.857093 0.99998 0.285764
352 1 0.0714382 0.642841 0.0714426
454 1 0.714002 0.714001 0.286099
354 1 0.214344 0.64283 0.0714488
453 1 0.571342 0.713964 0.286123
356 1 0.357188 0.642834 0.071462
102 1 0.428603 0.999956 0.285779
358 1 0.500006 0.642829 0.0714873
101 1 0.28577 0.999966 0.285765
360 1 0.642835 0.642836 0.0714861
58 1 0.571419 0.999981 0.142897
362 1 0.785646 0.642822 0.071465
346 1 0.357202 0.500007 0.0714574
364 1 0.928538 0.642837 0.0714519
62 1 0.857107 0.999981 0.142891
366 1 0.0714393 0.785681 0.0714444
104 1 0.714249 0.999967 0.28578
368 1 0.214342 0.785664 0.0714473
449 1 0.999971 0.714241 0.28577
370 1 0.357184 0.785656 0.071466
448 1 0.856966 0.571394 0.285858
372 1 0.500013 0.785649 0.0714631
446 1 0.571459 0.57145 0.286112
374 1 0.642825 0.78565 0.0714676
52 1 0.142889 0.999987 0.142884
376 1 0.785661 0.785657 0.0714702
50 1 0.999985 0.999986 0.14289
378 1 0.928535 0.785682 0.0714478
462 1 0.857033 0.857034 0.285815
380 1 0.0714442 0.928549 0.0714357
461 1 0.714187 0.856985 0.285849
382 1 0.214319 0.928539 0.0714435
460 1 0.571401 0.856969 0.285861
384 1 0.357175 0.928531 0.0714505
459 1 0.428647 0.856966 0.285855
386 1 0.500006 0.928531 0.0714479
458 1 0.285842 0.856983 0.285848
388 1 0.642837 0.928541 0.0714469
457 1 0.142921 0.857075 0.285773
390 1 0.785682 0.928541 0.0714538
456 1 0.999979 0.857097 0.285756
392 1 0.928538 0.928545 0.0714429
447 1 0.713967 0.571345 0.286125
452 1 0.428736 0.714028 0.286068
395 1 0.357299 0.50003 0.214517
451 1 0.285992 0.714051 0.285989
450 1 0.142955 0.714218 0.285794
398 1 0.785566 0.500028 0.214461
399 1 0.928495 0.500012 0.214359
400 1 0.999982 0.571424 0.142893
401 1 0.0714421 0.642831 0.214343
402 1 0.142904 0.571416 0.142905
403 1 0.214387 0.64281 0.214384
404 1 0.285801 0.571404 0.142953
405 1 0.357251 0.642778 0.214507
406 1 0.428588 0.571437 0.142962
407 1 0.500011 0.642726 0.214586
408 1 0.571439 0.571434 0.142968
409 1 0.642786 0.642787 0.214551
410 1 0.714199 0.571406 0.143
411 1 0.78557 0.642782 0.214461
412 1 0.857069 0.571417 0.142924
413 1 0.928507 0.642821 0.21436
414 1 0.999982 0.714253 0.142897
415 1 0.0714457 0.785663 0.214341
416 1 0.1429 0.71425 0.142902
417 1 0.214396 0.785611 0.214392
418 1 0.285792 0.714217 0.142948
419 1 0.357239 0.785581 0.214452
420 1 0.428618 0.71421 0.142994
421 1 0.500033 0.785565 0.214454
422 1 0.571405 0.714202 0.143003
423 1 0.642782 0.785574 0.214459
424 1 0.714213 0.714214 0.14298
425 1 0.785587 0.785586 0.214438
426 1 0.857075 0.714236 0.142923
427 1 0.928512 0.785651 0.214347
428 1 0.999983 0.857112 0.1429
429 1 0.0714492 0.928536 0.214322
430 1 0.142903 0.857088 0.142908
431 1 0.214346 0.92851 0.214342
432 1 0.285778 0.857077 0.142922
433 1 0.357192 0.928507 0.21435
434 1 0.428612 0.857069 0.142923
435 1 0.50001 0.928499 0.214355
436 1 0.571421 0.857064 0.142933
437 1 0.642819 0.928495 0.214364
438 1 0.714228 0.857074 0.142923
439 1 0.785653 0.928506 0.21436
440 1 0.857084 0.857079 0.142918
441 1 0.928528 0.928531 0.214333
442 1 0.999968 0.571419 0.285781
443 1 0.142941 0.571412 0.285802
444 1 0.285933 0.571363 0.285931
445 1 0.42867 0.571458 0.286188
348 1 0.642833 0.500002 0.0714822
56 1 0.428595 0.999981 0.14289
54 1 0.285745 0.999979 0.142891
99 1 0.99999 0.999984 0.285744
100 1 0.142893 0.99998 0.285754
393 1 0.0714426 0.500008 0.214344
345 1 0.214341 0.500009 0.0714411
347 1 0.500008 0.500011 0.0714258
350 1 0.928533 0.500003 0.071453
344 1 0.0714389 0.500009 0.0714344
207 1 0.714228 0.999967 0.571413
464 1 0.214522 0.500027 0.357305
465 1 0.357774 0.500087 0.357773
586 1 0.785635 0.928482 0.642814
585 1 0.714127 0.856908 0.571396
468 1 0.785302 0.50008 0.357461
469 1 0.928419 0.500021 0.357239
470 1 0.0714572 0.642834 0.357189
471 1 0.214506 0.642776 0.357256
472 1 0.357841 0.642261 0.357834
473 1 0.500055 0.642251 0.358142
474 1 0.642265 0.642265 0.358113
475 1 0.785356 0.642693 0.3574
476 1 0.928437 0.642815 0.357222
477 1 0.0714534 0.785658 0.357183
478 1 0.214446 0.78558 0.357245
479 1 0.357419 0.785341 0.357427
480 1 0.500075 0.7853 0.357461
481 1 0.642688 0.785358 0.357403
482 1 0.785438 0.785441 0.357378
483 1 0.928477 0.785629 0.357212
484 1 0.0714463 0.928528 0.35717
485 1 0.214359 0.928509 0.357196
486 1 0.357214 0.928441 0.357203
487 1 0.500029 0.928423 0.35723
488 1 0.642816 0.92844 0.357218
489 1 0.785636 0.928482 0.357212
490 1 0.928532 0.928529 0.357185
493 1 0.35585 0.500029 0.500025
203 1 0.428606 0.99994 0.571417
584 1 0.642846 0.928498 0.642842
494 1 0.928525 0.928529 0.642837
495 1 0.642841 0.501139 0.501129
583 1 0.571414 0.857201 0.571416
542 1 0.358147 0.500059 0.642251
498 1 0.999937 0.571425 0.428605
499 1 0.0714861 0.642828 0.500007
500 1 0.142967 0.571434 0.428594
501 1 0.214587 0.642734 0.500017
502 1 0.286188 0.57146 0.428671
503 1 0.358151 0.642249 0.500064
504 1 0.430454 0.570115 0.430466
505 1 0.501142 0.642835 0.501138
506 1 0.5703 0.570299 0.428588
507 1 0.64097 0.640969 0.501312
508 1 0.713278 0.571366 0.429179
509 1 0.785245 0.642753 0.499977
510 1 0.856843 0.571413 0.428694
511 1 0.928462 0.642831 0.49999
512 1 0.999972 0.714243 0.428598
513 1 0.0714639 0.785647 0.500011
514 1 0.142991 0.714207 0.428613
515 1 0.214463 0.785564 0.500033
516 1 0.28607 0.714026 0.428742
517 1 0.357458 0.785305 0.500084
518 1 0.429163 0.713324 0.42916
519 1 0.499976 0.785326 0.499975
520 1 0.571369 0.713279 0.429179
521 1 0.642757 0.785242 0.499975
522 1 0.713586 0.713589 0.429178
523 1 0.785491 0.785493 0.50007
524 1 0.85692 0.714178 0.428649
525 1 0.928479 0.785635 0.500017
526 1 0.999976 0.857083 0.428598
527 1 0.0714495 0.928535 0.500009
528 1 0.142928 0.857068 0.428609
529 1 0.214359 0.928501 0.500014
530 1 0.285855 0.856973 0.428643
531 1 0.357229 0.928421 0.500028
532 1 0.428641 0.856887 0.428645
533 1 0.5 0.928462 0.499994
534 1 0.571411 0.85684 0.428703
535 1 0.642837 0.928461 0.499992
536 1 0.714171 0.856919 0.42865
537 1 0.785632 0.928484 0.50002
538 1 0.857041 0.857044 0.428624
539 1 0.928525 0.928526 0.500008
467 1 0.642252 0.500061 0.35815
197 1 0.999989 0.999994 0.571418
582 1 0.499992 0.928467 0.64284
543 1 0.501129 0.501132 0.64284
544 1 0.640973 0.501315 0.640966
581 1 0.428699 0.85684 0.571412
160 1 0.857085 0.99998 0.428593
547 1 5.75118e-07 0.57143 0.571421
548 1 0.0714803 0.642834 0.642836
549 1 0.142972 0.571434 0.571433
550 1 0.214548 0.642788 0.642787
551 1 0.286107 0.571454 0.571454
552 1 0.358111 0.642265 0.64227
553 1 0.428591 0.570301 0.570293
554 1 0.501315 0.640968 0.640965
555 1 0.857052 0.85705 0.571416
556 1 0.641462 0.641468 0.641461
557 1 0.715578 0.5714 0.571405
558 1 0.785367 0.64284 0.642842
559 1 0.857201 0.571414 0.571419
560 1 0.92849 0.642841 0.642845
561 1 0.999972 0.714234 0.571417
562 1 0.0714664 0.785647 0.642826
563 1 0.143002 0.714198 0.571404
564 1 0.214463 0.785568 0.642784
565 1 0.286123 0.713966 0.571339
566 1 0.357403 0.785357 0.64269
567 1 0.429177 0.713285 0.571371
568 1 0.499982 0.785242 0.642754
569 1 0.571406 0.715579 0.571403
570 1 0.642845 0.785366 0.642843
571 1 0.713654 0.713656 0.571341
572 1 0.785515 0.78551 0.642743
573 1 0.856914 0.71413 0.571396
574 1 0.928485 0.785632 0.642809
575 1 0.999977 0.857084 0.57142
576 1 0.0714588 0.928533 0.642835
577 1 0.142929 0.85707 0.571413
578 1 0.214366 0.928496 0.64282
579 1 0.285859 0.856966 0.571399
580 1 0.357218 0.928438 0.642813
148 1 0.999986 0.999991 0.428587
466 1 0.500023 0.500026 0.355847
152 1 0.28578 0.999957 0.428608
154 1 0.428593 0.999949 0.42859
156 1 0.57142 0.99994 0.428606
158 1 0.71424 0.999965 0.428598
463 1 0.0714593 0.50001 0.357197
209 1 0.857086 0.99999 0.571423
541 1 0.214596 0.500015 0.642725
201 1 0.28578 0.999962 0.57141
492 1 0.214233 0.500007 0.500014
199 1 0.142894 0.999984 0.571419
150 1 0.142895 0.999976 0.428592
540 1 0.0714878 0.500006 0.642823
491 1 0.0714242 0.500002 0.500006
205 1 0.571422 0.999999 0.571423
587 1 0.0714604 0.500014 0.785651
588 1 0.214459 0.500035 0.78557
589 1 0.357459 0.500084 0.785303
684 1 0.928537 0.928534 0.928532
683 1 0.857061 0.857056 0.857056
592 1 0.785495 0.500062 0.785494
593 1 0.928482 0.500022 0.785629
594 1 0.999975 0.571416 0.714231
595 1 0.0714691 0.642817 0.785651
596 1 0.143008 0.571405 0.714199
597 1 0.214465 0.64279 0.785573
598 1 0.286129 0.571344 0.713963
599 1 0.357402 0.642686 0.785359
600 1 0.429185 0.571364 0.713281
601 1 0.499974 0.642757 0.785246
602 1 0.571397 0.5714 0.715584
603 1 0.642838 0.642837 0.785366
604 1 0.713658 0.571339 0.713654
605 1 0.78551 0.642745 0.78551
606 1 0.856911 0.571403 0.714131
607 1 0.928483 0.642803 0.785631
608 1 0.999987 0.714254 0.714248
609 1 0.0714678 0.785667 0.785663
610 1 0.142983 0.714218 0.714216
611 1 0.214441 0.785581 0.785579
612 1 0.286091 0.714 0.714006
613 1 0.357376 0.785443 0.785438
614 1 0.429169 0.713591 0.713599
615 1 0.500069 0.785497 0.78549
616 1 0.571339 0.713653 0.713657
617 1 0.642741 0.78551 0.78551
618 1 0.713717 0.713721 0.713717
619 1 0.785497 0.785494 0.785498
620 1 0.856981 0.714201 0.714203
621 1 0.928502 0.785659 0.785655
622 1 0.999989 0.857086 0.714249
623 1 0.0714482 0.928539 0.785684
624 1 0.142924 0.857071 0.714234
625 1 0.214351 0.928512 0.785652
626 1 0.285848 0.856986 0.714187
627 1 0.357211 0.928481 0.785632
628 1 0.428648 0.856915 0.714173
629 1 0.500014 0.92848 0.785628
630 1 0.571402 0.856913 0.714127
631 1 0.642818 0.928484 0.785632
632 1 0.714209 0.856984 0.714207
633 1 0.785655 0.928505 0.78565
634 1 0.857059 0.857062 0.714219
635 1 0.928539 0.92854 0.785675
387 1 0.571425 0.857085 0.999986
637 1 0.214359 0.500009 0.928496
638 1 0.35723 0.500028 0.928425
391 1 0.857099 0.857095 0.999984
389 1 0.714246 0.857093 0.999987
641 1 0.785625 0.500019 0.928473
9 1 0.571421 0.999987 0.999988
643 1 0.999987 0.57142 0.857085
644 1 0.0714499 0.642835 0.928534
645 1 0.142926 0.571414 0.857065
646 1 0.214358 0.642823 0.928503
647 1 0.28586 0.571403 0.856965
648 1 0.35722 0.642807 0.928437
649 1 0.428698 0.571418 0.856841
650 1 0.499993 0.642836 0.928466
651 1 0.571411 0.571417 0.857201
652 1 0.642844 0.64285 0.928495
653 1 0.714134 0.571399 0.856913
654 1 0.785637 0.64282 0.928482
655 1 0.857046 0.571412 0.857047
656 1 0.928525 0.642841 0.928523
657 1 0.999983 0.714244 0.857094
658 1 0.0714498 0.785675 0.928537
659 1 0.142923 0.714236 0.857072
660 1 0.214349 0.785656 0.928513
661 1 0.28585 0.714184 0.85698
662 1 0.357211 0.78564 0.928491
663 1 0.428648 0.71417 0.85692
664 1 0.50002 0.785632 0.928479
665 1 0.571397 0.71412 0.856906
666 1 0.642812 0.785633 0.928491
667 1 0.714201 0.714208 0.856982
668 1 0.785654 0.785652 0.928501
669 1 0.857055 0.714223 0.857058
670 1 0.928535 0.785671 0.928537
671 1 0.999991 0.857104 0.857095
672 1 0.0714419 0.928536 0.92854
673 1 0.142917 0.857077 0.857078
674 1 0.214336 0.928525 0.92853
675 1 0.28582 0.857032 0.857036
676 1 0.357179 0.928528 0.928522
677 1 0.428609 0.85704 0.857033
678 1 0.500007 0.928529 0.928531
679 1 0.571414 0.857051 0.857049
680 1 0.64283 0.928533 0.928524
681 1 0.71422 0.857057 0.857055
682 1 0.785679 0.928539 0.928541
246 1 0.999991 0.999992 0.714265
11 1 0.714261 0.99999 0.999991
383 1 0.285766 0.857094 0.999978
252 1 0.428603 0.99997 0.714248
254 1 0.571415 0.999969 0.714232
256 1 0.714252 0.999979 0.714251
258 1 0.857095 0.999987 0.714246
353 1 0.142899 0.571421 0.99998
367 1 0.142895 0.714253 0.999984
299 1 0.285763 0.999982 0.857091
301 1 0.428596 0.999978 0.857087
385 1 0.428595 0.857088 0.999976
305 1 0.714247 0.999989 0.857087
307 1 0.857098 0.999989 0.857097
351 1 0.999989 0.57142 0.999992
250 1 0.285776 0.999972 0.714244
5 1 0.285741 0.999997 0.999989
357 1 0.428608 0.571422 0.999935
355 1 0.285783 0.571417 0.999969
361 1 0.714229 0.571424 0.999974
3 1 0.142888 0.999987 0.999991
365 1 0.99999 0.714265 0.999988
303 1 0.571423 0.999984 0.857087
295 1 0.999992 0.999994 0.857109
371 1 0.428605 0.714241 0.999967
373 1 0.571416 0.714224 0.999968
375 1 0.714249 0.714252 0.999992
377 1 0.857089 0.714246 0.999987
248 1 0.142895 0.999983 0.714252
642 1 0.92853 0.500007 0.928526
369 1 0.285776 0.714245 0.999971
363 1 0.857087 0.571421 0.999988
7 1 0.428595 0.999984 0.999991
1 1 0.999989 0.999991 0.999987
297 1 0.142888 0.999982 0.857105
379 1 0.999991 0.857112 0.99999
381 1 0.142885 0.857106 0.999982
13 1 0.85711 0.999991 0.999995
636 1 0.0714566 0.500004 0.928531
359 1 0.571428 0.571419 0.999997
