ITEM: TIMESTEP
116
ITEM: NUMBER OF ATOMS
690
ITEM: BOX BOUNDS pp pp pp
0.0000000000000000e+00 2.2009546999999998e+01
0.0000000000000000e+00 2.2009546999999998e+01
0.0000000000000000e+00 2.2009546999999998e+01
ITEM: ATOMS id type xs ys zs
397 1 0.642976 0.499945 0.214049
2 1 0.0714275 0.071387 0.0714429
688 3 0.502212 0.464364 0.477495
4 1 0.214273 0.0713882 0.0714387
445 1 0.500165 0.49947 0.353834
6 1 0.357136 0.0713905 0.071433
193 1 0.500025 0.35442 0.49974
8 1 0.500005 0.071389 0.0714266
396 1 0.500016 0.49989 0.213526
10 1 0.642877 0.0713859 0.0714241
395 1 0.357101 0.499959 0.214143
12 1 0.785747 0.0713823 0.0714262
175 1 0.857355 0.428484 0.428509
14 1 0.928597 0.0713849 0.0714365
187 1 0.642926 0.214203 0.499948
16 1 0.0714247 0.214244 0.0714077
186 1 0.500018 0.213734 0.499905
18 1 0.214249 0.214223 0.0713742
347 1 0.500006 0.499972 0.0712039
20 1 0.357131 0.214226 0.0713664
185 1 0.357098 0.214232 0.49994
22 1 0.500007 0.214221 0.0713533
162 1 8.25468e-06 0.285643 0.428556
24 1 0.642888 0.214218 0.071352
164 1 0.285693 0.285683 0.428619
26 1 0.78578 0.214211 0.0713554
161 1 0.857188 0.142786 0.42856
28 1 0.928606 0.21424 0.071402
160 1 0.714356 0.142767 0.428546
30 1 0.0714287 0.357119 0.071405
165 1 0.428301 0.285264 0.428212
32 1 0.214257 0.357113 0.0713688
159 1 0.571508 0.142657 0.428471
34 1 0.357095 0.357068 0.0712732
163 1 0.142807 0.285637 0.428559
36 1 0.500009 0.357069 0.0712669
166 1 0.571766 0.285207 0.428186
38 1 0.642932 0.357058 0.0712482
158 1 0.428516 0.142676 0.428476
40 1 0.78578 0.3571 0.0713495
167 1 0.714365 0.285641 0.428602
42 1 0.928607 0.357115 0.0713986
157 1 0.285667 0.142791 0.428549
44 1 0.142848 0.428561 -7.78698e-06
147 1 0.857244 0.428536 0.285638
146 1 0.714481 0.428527 0.285515
145 1 0.571874 0.428116 0.284872
144 1 0.428228 0.428148 0.284986
156 1 0.142828 0.142797 0.428562
184 1 0.214234 0.214221 0.499985
51 1 0.0714257 0.0713658 0.214288
174 1 0.715003 0.428242 0.428235
53 1 0.214254 0.0713418 0.214263
143 1 0.285588 0.428545 0.285567
55 1 0.357135 0.07135 0.214262
142 1 0.142795 0.428544 0.285657
57 1 0.500006 0.0713461 0.214254
180 1 0.642915 0.0713727 0.49998
59 1 0.642883 0.0713415 0.214251
179 1 0.500007 0.0713151 0.499976
61 1 0.785771 0.0713318 0.21425
173 1 0.574935 0.426106 0.42548
63 1 0.928598 0.0713616 0.214285
64 1 1.47958e-05 0.142792 0.142837
65 1 0.0714058 0.214201 0.214234
66 1 0.142832 0.142785 0.142827
67 1 0.214197 0.214151 0.214177
68 1 0.285694 0.142782 0.142816
69 1 0.357124 0.214171 0.214184
70 1 0.428569 0.14278 0.142806
71 1 0.500011 0.214161 0.214167
72 1 0.571447 0.142775 0.142799
73 1 0.642908 0.21415 0.214162
74 1 0.71433 0.142769 0.142799
75 1 0.785849 0.214125 0.214149
76 1 0.857199 0.142775 0.142813
77 1 0.928629 0.214194 0.214227
78 1 1.80278e-05 0.285669 0.142819
79 1 0.0714134 0.357102 0.214236
80 1 0.142823 0.285659 0.142798
81 1 0.214204 0.357078 0.214177
82 1 0.285627 0.285593 0.142697
83 1 0.356956 0.356912 0.213918
84 1 0.428566 0.285609 0.14272
85 1 0.500017 0.356988 0.214052
86 1 0.571458 0.285601 0.142704
87 1 0.643105 0.356877 0.213856
88 1 0.714414 0.28557 0.142663
89 1 0.785845 0.357062 0.21415
90 1 0.857215 0.285649 0.142783
91 1 0.928625 0.357097 0.214228
92 1 1.94683e-05 0.428551 0.14283
93 1 0.142836 0.42855 0.142818
94 1 0.285663 0.428537 0.14275
95 1 0.428508 0.428443 0.142552
96 1 0.571523 0.42844 0.142518
97 1 0.714386 0.42852 0.142708
98 1 0.857207 0.428543 0.142799
172 1 0.425588 0.426367 0.425797
100 1 0.0714215 0.071372 0.357142
178 1 0.357095 0.0713919 0.49998
102 1 0.214257 0.0713646 0.357134
171 1 0.285016 0.428221 0.428227
104 1 0.357099 0.071317 0.357092
170 1 0.142637 0.428479 0.428512
106 1 0.500008 0.071338 0.357096
169 1 -2.95618e-06 0.428523 0.428547
108 1 0.64292 0.0713004 0.357086
168 1 0.857218 0.285626 0.428554
110 1 0.78576 0.071348 0.357131
155 1 6.8322e-06 0.142798 0.428566
112 1 0.928593 0.0713661 0.357141
113 1 1.24413e-05 0.142787 0.285701
114 1 0.071415 0.214213 0.357124
115 1 0.142831 0.142779 0.285695
116 1 0.214236 0.214199 0.35712
117 1 0.285639 0.142703 0.285626
118 1 0.356993 0.213997 0.356951
119 1 0.428572 0.14275 0.28564
120 1 0.500016 0.214167 0.357028
121 1 0.571449 0.142739 0.285632
122 1 0.643053 0.213951 0.356929
123 1 0.714393 0.142678 0.285609
124 1 0.785801 0.214176 0.357107
125 1 0.857197 0.142767 0.285687
126 1 0.928611 0.214207 0.357121
127 1 1.56614e-05 0.28563 0.285656
128 1 0.0713587 0.357059 0.357082
129 1 0.142744 0.285589 0.28561
130 1 0.213979 0.356931 0.35694
131 1 0.28545 0.285411 0.285419
132 1 0.356345 0.356353 0.35629
133 1 0.428614 0.285589 0.285569
134 1 0.500044 0.357368 0.357267
135 1 0.57143 0.285563 0.28554
136 1 0.643837 0.356207 0.356148
137 1 0.714631 0.285351 0.285357
138 1 0.786069 0.356919 0.356925
139 1 0.857298 0.285576 0.285597
140 1 0.928663 0.357058 0.357079
141 1 1.44205e-05 0.428542 0.285675
176 1 0.0714152 0.071394 0.500002
177 1 0.214248 0.0713989 0.499996
43 1 1.61285e-05 0.428559 1.36544e-06
11 1 0.714311 -6.19682e-06 3.97764e-05
5 1 0.2857 -2.79125e-06 5.04449e-05
7 1 0.428568 1.00318e-06 4.73254e-05
9 1 0.571441 -6.93312e-07 4.29103e-05
13 1 0.857171 -1.2417e-05 3.908e-05
3 1 0.142845 -1.01972e-05 4.89678e-05
643 1 0.785761 0.499996 0.928581
638 1 0.071427 0.499998 0.928601
644 1 0.928599 0.499996 0.928597
642 1 0.642885 0.500004 0.928527
49 1 0.857185 0.428554 0.999983
640 1 0.357132 0.500011 0.928524
182 1 0.928588 0.0713873 0.500002
639 1 0.214266 0.500003 0.928587
595 1 0.928605 0.5 0.785772
594 1 0.785787 0.500002 0.785781
248 1 0.142816 2.88826e-05 0.714322
39 1 0.714336 0.285666 0.999923
33 1 0.285685 0.285676 0.99994
590 1 0.214234 0.500017 0.785775
190 1 0.0713793 0.357077 0.500001
191 1 0.214197 0.357066 0.499999
192 1 0.357641 0.35767 0.500015
589 1 0.0714067 0.500005 0.785774
194 1 0.642475 0.357515 0.500074
195 1 0.785812 0.357052 0.499994
196 1 0.92862 0.357075 0.499998
29 1 1.49054e-05 0.285691 0.999993
198 1 0.0714108 0.0714182 0.642871
686 2 0.502499 0.498153 0.538915
200 1 0.214242 0.0714342 0.642873
201 1 0.285662 2.90663e-05 0.571444
202 1 0.357082 0.0714177 0.642908
203 1 0.428533 5.81878e-05 0.571462
204 1 0.500005 0.0714169 0.6429
205 1 0.571471 4.33934e-05 0.57146
206 1 0.642921 0.0714096 0.642901
343 1 0.857183 0.428561 0.85717
208 1 0.785757 0.0714184 0.64287
27 1 0.85718 0.14282 0.999994
210 1 0.928587 0.071412 0.64287
211 1 1 0.142819 0.571434
212 1 0.0714101 0.214248 0.64287
213 1 0.142826 0.142823 0.571431
214 1 0.214242 0.214248 0.642852
215 1 0.28567 0.142828 0.571412
216 1 0.357011 0.214073 0.642957
217 1 0.42851 0.142687 0.571439
218 1 0.50001 0.214074 0.642888
219 1 0.571501 0.142692 0.571439
220 1 0.642982 0.214098 0.642938
221 1 0.714341 0.142811 0.571414
222 1 0.785765 0.21424 0.642852
223 1 0.857179 0.142813 0.57143
224 1 0.928593 0.214245 0.642869
225 1 1 0.28566 0.571439
226 1 0.0713602 0.357086 0.642912
227 1 0.142812 0.285656 0.57143
228 1 0.214039 0.35699 0.643006
229 1 0.28571 0.28569 0.57133
230 1 0.356583 0.356562 0.643365
231 1 0.428359 0.285158 0.571565
232 1 0.500021 0.356632 0.642918
233 1 0.571633 0.285236 0.571555
234 1 0.643311 0.356673 0.643248
235 1 0.714316 0.285669 0.571351
236 1 0.785918 0.357013 0.642963
237 1 0.857194 0.28565 0.571428
238 1 0.928625 0.357088 0.642902
239 1 0.999988 0.428534 0.571461
240 1 0.142647 0.428497 0.571501
241 1 0.28515 0.428228 0.571741
242 1 0.427022 0.426313 0.573377
243 1 0.572638 0.426963 0.573068
244 1 0.71473 0.428298 0.571636
245 1 0.857311 0.4285 0.571475
23 1 0.571442 0.142828 0.999983
247 1 0.0714095 0.071428 0.785747
342 1 0.714324 0.428577 0.857138
249 1 0.214231 0.0714375 0.785776
250 1 0.285642 7.10504e-05 0.714367
251 1 0.357109 0.0714549 0.785782
252 1 0.428545 8.88157e-05 0.714376
253 1 0.500005 0.071459 0.785776
254 1 0.571461 8.10006e-05 0.714372
255 1 0.642898 0.0714485 0.785775
256 1 0.714354 5.41123e-05 0.714356
257 1 0.785769 0.0714302 0.785765
341 1 0.571458 0.428575 0.857072
259 1 0.928591 0.0714237 0.785743
260 1 1 0.142836 0.714304
261 1 0.0714014 0.21425 0.785756
262 1 0.142822 0.14284 0.714308
263 1 0.214212 0.214233 0.785778
264 1 0.285635 0.142803 0.714353
265 1 0.357107 0.214257 0.78576
266 1 0.428549 0.142816 0.714341
267 1 0.500006 0.214267 0.785731
268 1 0.571462 0.142815 0.714337
269 1 0.642901 0.214254 0.785751
270 1 0.714363 0.142803 0.71434
271 1 0.785788 0.214231 0.785764
272 1 0.857179 0.142833 0.714303
273 1 0.928601 0.214249 0.78575
274 1 0.999998 0.285669 0.714328
275 1 0.0714146 0.357127 0.785754
276 1 0.142764 0.285643 0.714358
277 1 0.214255 0.357144 0.785748
278 1 0.285519 0.285541 0.714447
279 1 0.35713 0.357153 0.785741
280 1 0.428533 0.285602 0.714351
281 1 0.500003 0.357202 0.785621
282 1 0.571482 0.285606 0.714347
283 1 0.642871 0.357152 0.785721
284 1 0.714456 0.285559 0.714411
285 1 0.785775 0.357113 0.785757
286 1 0.857225 0.285647 0.714341
287 1 0.928602 0.35712 0.785753
288 1 1 0.428557 0.714337
289 1 0.142795 0.428566 0.714349
290 1 0.285667 0.428624 0.714312
291 1 0.428589 0.428638 0.714015
292 1 0.571412 0.428643 0.71401
293 1 0.71441 0.428537 0.714374
294 1 0.857222 0.428549 0.714348
340 1 0.428546 0.428583 0.857069
296 1 0.071418 0.0714181 0.92861
297 1 0.142817 2.67067e-05 0.857211
298 1 0.214263 0.0714275 0.928615
339 1 0.285703 0.428599 0.857123
300 1 0.357129 0.0714364 0.928611
338 1 0.14284 0.428571 0.857171
302 1 0.500004 0.0714376 0.928606
337 1 1.05315e-05 0.428563 0.857176
304 1 0.64288 0.0714319 0.928604
336 1 0.928598 0.357126 0.928578
306 1 0.785748 0.0714218 0.928604
307 1 0.857185 2.0429e-05 0.857201
308 1 0.928594 0.0714152 0.928605
309 1 1 0.142836 0.857175
310 1 0.0714241 0.214267 0.928585
311 1 0.142824 0.14284 0.857183
312 1 0.214261 0.214264 0.928575
313 1 0.285685 0.142853 0.857182
314 1 0.357134 0.214271 0.928558
315 1 0.428565 0.142862 0.857169
316 1 0.500005 0.214271 0.928546
317 1 0.571444 0.14286 0.857166
318 1 0.642879 0.214266 0.928549
319 1 0.714324 0.142847 0.857172
320 1 0.785754 0.214257 0.928563
321 1 0.857183 0.142835 0.857174
322 1 0.928597 0.214262 0.928581
323 1 9.60462e-06 0.285695 0.857167
324 1 0.0714292 0.357131 0.928581
325 1 0.142839 0.285702 0.857165
326 1 0.214272 0.35714 0.928556
327 1 0.285688 0.285702 0.857158
328 1 0.357126 0.357131 0.928514
329 1 0.428577 0.285711 0.857116
330 1 0.500004 0.357142 0.928473
331 1 0.571433 0.285709 0.857111
332 1 0.642887 0.357124 0.928503
333 1 0.714321 0.285696 0.857143
334 1 0.785754 0.357125 0.928552
335 1 0.857181 0.28569 0.857162
514 1 0.353705 0.499816 0.500208
21 1 0.428569 0.142831 0.999988
17 1 0.142841 0.142826 1
15 1 1.13371e-05 0.142828 1.00001
544 1 0.643286 0.499949 0.642921
258 1 0.857176 1.50182e-05 0.714315
295 1 1 1.0589e-05 0.85719
299 1 0.285676 4.48292e-05 0.857224
301 1 0.428559 5.47626e-05 0.857225
305 1 0.714329 3.69193e-05 0.857214
303 1 0.571448 5.112e-05 0.857221
516 1 0.645555 0.499778 0.500067
189 1 0.9286 0.214224 0.499997
188 1 0.785783 0.214205 0.499986
19 1 0.2857 0.14283 0.999998
25 1 0.714315 0.142823 0.999986
31 1 0.142845 0.285692 0.999982
35 1 0.428569 0.285678 0.999919
37 1 0.571445 0.285675 0.999911
41 1 0.857184 0.285683 0.999973
45 1 0.285694 0.428561 0.999944
46 1 0.428554 0.428542 0.999873
47 1 0.571459 0.428538 0.999863
48 1 0.714334 0.428551 0.999929
183 1 0.0714111 0.214229 0.499998
181 1 0.785758 0.0713804 0.499996
511 1 0.857144 0.85711 0.428589
510 1 0.714291 0.857079 0.428605
346 1 0.357116 0.499978 0.0713361
687 2 0.496002 0.510024 0.487545
509 1 0.571485 0.857197 0.428573
349 1 0.785772 0.499984 0.0713807
508 1 0.428515 0.857193 0.428577
153 1 0.714328 0.999942 0.428566
352 1 0.0714332 0.642852 0.0714603
353 1 0.142848 0.571428 2.76703e-05
354 1 0.214274 0.642852 0.07146
355 1 0.285694 0.571429 6.61412e-06
356 1 0.357116 0.642867 0.0714349
357 1 0.428551 0.571444 -3.71019e-05
358 1 0.500002 0.64286 0.0714025
154 1 0.857166 0.999952 0.428575
360 1 0.642911 0.642878 0.0713874
150 1 0.285678 0.999964 0.428565
362 1 0.78576 0.642857 0.0714332
152 1 0.571467 0.999952 0.428548
364 1 0.928599 0.642854 0.0714519
365 1 1.19616e-05 0.714289 5.48858e-05
366 1 0.0714322 0.785705 0.0714837
367 1 0.142844 0.714292 6.5947e-05
368 1 0.214276 0.785709 0.0714999
369 1 0.285685 0.714311 8.27601e-05
370 1 0.357134 0.785714 0.071497
371 1 0.428562 0.714316 7.10111e-05
372 1 0.500001 0.785717 0.0714873
373 1 0.571443 0.714318 5.94947e-05
374 1 0.642876 0.78572 0.0714769
375 1 0.714335 0.714318 5.4777e-05
376 1 0.785753 0.785723 0.0714701
377 1 0.85718 0.714296 5.21507e-05
378 1 0.928595 0.785708 0.0714755
151 1 0.428543 0.99996 0.428549
380 1 0.0714304 0.928548 0.0714802
381 1 0.142841 0.857152 8.11356e-05
382 1 0.214277 0.928553 0.0714837
383 1 0.285694 0.857163 8.89677e-05
384 1 0.357137 0.928556 0.0714833
149 1 0.142836 0.999966 0.428574
386 1 0.500003 0.928558 0.0714785
148 1 1 0.999961 0.428577
388 1 0.642873 0.928557 0.0714729
389 1 0.714317 0.857164 7.26672e-05
390 1 0.785741 0.928555 0.0714691
391 1 0.857178 0.857155 6.56383e-05
392 1 0.928593 0.92855 0.0714732
507 1 0.28569 0.857117 0.428594
394 1 0.214244 0.499984 0.214235
538 1 0.78574 0.928551 0.500008
537 1 0.642904 0.928581 0.500011
536 1 0.500001 0.928704 0.500014
398 1 0.785808 0.499978 0.214195
506 1 0.142838 0.857129 0.428585
400 1 1.79922e-05 0.57142 0.142859
401 1 0.0714348 0.642847 0.214298
402 1 0.142849 0.571419 0.142857
403 1 0.214281 0.642838 0.2143
404 1 0.285691 0.571411 0.142831
405 1 0.357114 0.642843 0.214271
406 1 0.428523 0.571431 0.142708
407 1 0.49999 0.642803 0.214215
408 1 0.571506 0.571437 0.142633
409 1 0.642965 0.642907 0.214124
410 1 0.714356 0.571414 0.142778
411 1 0.785763 0.642846 0.214261
412 1 0.857191 0.57142 0.142836
413 1 0.928598 0.642848 0.214288
414 1 1.54411e-05 0.714274 0.142888
415 1 0.0714394 0.78569 0.214322
416 1 0.142859 0.714271 0.142896
417 1 0.214304 0.785664 0.214348
418 1 0.285706 0.71427 0.142903
419 1 0.357145 0.78567 0.214333
420 1 0.428567 0.714267 0.142883
421 1 0.499997 0.785669 0.214325
422 1 0.571434 0.714274 0.14286
423 1 0.642867 0.785689 0.214303
424 1 0.714341 0.714302 0.14284
425 1 0.785744 0.785697 0.214306
426 1 0.857176 0.714278 0.142877
427 1 0.92859 0.785695 0.214313
428 1 1.37387e-05 0.857117 0.1429
429 1 0.0714321 0.928525 0.21432
430 1 0.142862 0.857109 0.142912
431 1 0.214279 0.928515 0.214315
432 1 0.285711 0.857112 0.142911
433 1 0.35714 0.928515 0.214313
434 1 0.428571 0.857112 0.142908
435 1 0.500002 0.928517 0.214309
436 1 0.571433 0.857115 0.142899
437 1 0.64287 0.928518 0.214302
438 1 0.714307 0.857122 0.14289
439 1 0.785744 0.928522 0.214299
440 1 0.857168 0.857119 0.142895
441 1 0.928585 0.928524 0.214317
442 1 0.071391 0.499989 0.357121
443 1 0.214182 0.499999 0.357109
444 1 0.357153 0.500054 0.357151
505 1 0.999993 0.857123 0.428586
446 1 0.642888 0.500027 0.357036
447 1 0.785842 0.49999 0.357069
448 1 0.928618 0.499988 0.357114
449 1 1.15518e-05 0.571423 0.285704
450 1 0.0714147 0.642867 0.35714
451 1 0.142839 0.571421 0.285702
452 1 0.214272 0.642865 0.357135
453 1 0.285698 0.571393 0.285686
454 1 0.357292 0.642672 0.35728
455 1 0.428463 0.571446 0.285516
456 1 0.499945 0.642702 0.357205
457 1 0.571652 0.571527 0.285189
458 1 0.64304 0.643005 0.356875
459 1 0.714358 0.57139 0.285616
460 1 0.785779 0.642874 0.357099
461 1 0.857194 0.571418 0.28568
462 1 0.928589 0.642864 0.357137
463 1 9.57686e-06 0.714277 0.285728
464 1 0.0714309 0.78569 0.35717
465 1 0.142864 0.714268 0.285738
466 1 0.21431 0.785658 0.357199
467 1 0.285765 0.714199 0.285803
468 1 0.357129 0.785665 0.357172
469 1 0.42858 0.714215 0.285756
470 1 0.49999 0.785659 0.357223
471 1 0.571403 0.714233 0.285714
472 1 0.642898 0.785727 0.357128
473 1 0.714347 0.714303 0.285681
474 1 0.785672 0.785632 0.357215
475 1 0.857173 0.71428 0.285718
476 1 0.928559 0.785683 0.357174
477 1 3.29253e-06 0.857104 0.285746
478 1 0.0714231 0.928533 0.357158
479 1 0.142863 0.857096 0.285753
480 1 0.214272 0.928523 0.357159
481 1 0.285711 0.857085 0.285748
482 1 0.357115 0.928526 0.357142
483 1 0.428573 0.857083 0.285752
484 1 0.500002 0.928525 0.357154
485 1 0.571426 0.857089 0.285741
486 1 0.642895 0.928528 0.357135
487 1 0.714315 0.857111 0.285722
488 1 0.78573 0.928507 0.357162
489 1 0.857144 0.857091 0.285753
490 1 0.928578 0.928527 0.357159
491 1 -1.2163e-05 0.571446 0.428564
492 1 0.142753 0.571473 0.428546
493 1 0.285621 0.571533 0.428438
494 1 0.428968 0.571155 0.428227
495 1 0.572052 0.572105 0.426629
496 1 0.714388 0.571494 0.428402
497 1 0.857216 0.571454 0.428547
498 1 0.999986 0.714286 0.428588
499 1 0.14286 0.71428 0.428599
500 1 0.285807 0.714173 0.428696
501 1 0.428464 0.714271 0.428575
502 1 0.571533 0.714353 0.428498
503 1 0.714093 0.714072 0.428754
504 1 0.857098 0.714255 0.428608
109 1 0.714329 0.999918 0.285696
107 1 0.571442 0.999925 0.285702
52 1 0.142849 0.999949 0.14288
62 1 0.857175 0.999948 0.142869
99 1 6.73861e-06 0.999946 0.285728
103 1 0.285689 0.999922 0.285705
105 1 0.428568 0.999927 0.285707
512 1 0.0712851 0.5 0.500013
111 1 0.857166 0.999934 0.285724
101 1 0.142848 0.999942 0.285726
518 1 0.928666 0.499994 0.500008
519 1 0.0713864 0.64289 0.500019
520 1 0.214267 0.642876 0.500024
60 1 0.714309 0.999949 0.142865
58 1 0.571439 0.99995 0.142867
524 1 0.785611 0.642818 0.500021
525 1 0.92856 0.642878 0.500015
526 1 0.0714024 0.785727 0.500014
527 1 0.214238 0.78575 0.500013
528 1 0.357094 0.785773 0.500023
56 1 0.428571 0.999951 0.142872
530 1 0.642849 0.785672 0.500033
531 1 0.785711 0.785701 0.500013
532 1 0.928562 0.785714 0.500014
534 1 0.214247 0.928579 0.500008
535 1 0.35709 0.928617 0.500011
1 1 8.98624e-06 0.999985 4.40086e-05
399 1 0.928614 0.499985 0.214254
393 1 0.0714237 0.499987 0.214264
350 1 0.928605 0.499989 0.0714196
348 1 0.642916 0.499973 0.0713004
345 1 0.214266 0.499989 0.0714046
344 1 0.0714318 0.49999 0.0714274
50 1 1.11026e-05 0.999954 0.142883
54 1 0.285707 0.999952 0.142877
387 1 0.571441 0.857169 8.15279e-05
385 1 0.428564 0.85717 8.81906e-05
379 1 9.47832e-06 0.857145 6.43269e-05
363 1 0.857183 0.571427 1.59067e-05
351 1 1.47611e-05 0.571426 2.7748e-05
533 1 0.0714105 0.928562 0.50001
539 1 0.928576 0.928553 0.500009
545 1 0.785923 0.499999 0.642946
541 1 0.2141 0.50003 0.642949
690 3 0.460781 0.510515 0.517082
515 1 0.928596 0.92859 0.928638
689 3 0.535051 0.521818 0.508248
540 1 0.0713597 0.500007 0.64292
546 1 0.928626 0.500002 0.642913
246 1 0.999996 1.00001 0.714312
655 1 0.714343 0.571444 0.857212
654 1 0.642905 0.642908 0.928651
522 1 0.49991 0.645757 0.500651
207 1 0.714334 1 0.571441
199 1 0.142825 1 0.57144
669 1 0.71438 0.71439 0.857319
668 1 0.642894 0.785782 0.928688
667 1 0.571453 0.714413 0.85732
666 1 0.500001 0.785792 0.928698
665 1 0.428549 0.714419 0.857326
664 1 0.357112 0.785784 0.928702
663 1 0.285622 0.7144 0.85734
662 1 0.214236 0.785768 0.928693
209 1 0.857168 0.999986 0.571438
661 1 0.142805 0.714334 0.857251
660 1 0.0714137 0.785739 0.928655
659 1 1 0.714318 0.857225
658 1 0.928598 0.642868 0.928628
657 1 0.85719 0.571439 0.857204
197 1 0.999996 0.999988 0.571438
656 1 0.785765 0.642877 0.928633
685 1 0.857206 0.85721 0.857244
542 1 0.357022 0.500111 0.64256
543 1 0.499996 0.500297 0.644362
684 1 0.785755 0.928601 0.928647
683 1 0.714351 0.857235 0.857271
682 1 0.642885 0.928613 0.928656
547 1 0.999977 0.571464 0.571473
548 1 0.0713227 0.642935 0.642946
549 1 0.142623 0.571523 0.571532
550 1 0.213895 0.643119 0.643115
551 1 0.285059 0.571878 0.571865
552 1 0.355975 0.6442 0.644079
553 1 0.426064 0.575649 0.575344
554 1 0.499992 0.643933 0.643446
555 1 0.573748 0.574675 0.575751
556 1 0.643921 0.644038 0.644022
557 1 0.71479 0.571712 0.571796
558 1 0.786031 0.643051 0.643073
559 1 0.857306 0.571496 0.571502
560 1 0.928633 0.64292 0.642935
561 1 0.999976 0.714321 0.571453
562 1 0.0713808 0.785769 0.642896
563 1 0.142787 0.714351 0.571453
564 1 0.21417 0.785847 0.642922
565 1 0.285626 0.714429 0.571407
566 1 0.356871 0.786257 0.643184
567 1 0.428184 0.715389 0.571964
568 1 0.499998 0.78625 0.643152
569 1 0.571721 0.7152 0.571955
570 1 0.643081 0.786172 0.643152
571 1 0.714242 0.714283 0.571353
572 1 0.785772 0.785786 0.642888
573 1 0.857146 0.714312 0.571438
574 1 0.928579 0.785753 0.642887
575 1 0.999986 0.857156 0.571445
576 1 0.0714007 0.928596 0.642882
577 1 0.14281 0.857182 0.571449
578 1 0.214223 0.928638 0.642897
579 1 0.28564 0.857247 0.571458
580 1 0.357055 0.928756 0.642964
581 1 0.42848 0.857503 0.571554
582 1 0.500003 0.928765 0.642966
583 1 0.571507 0.857451 0.571546
584 1 0.642936 0.928722 0.642952
585 1 0.714326 0.857185 0.571447
586 1 0.785759 0.928606 0.642885
587 1 0.85716 0.857155 0.571443
588 1 0.928581 0.928585 0.642878
681 1 0.571455 0.857254 0.857286
680 1 0.500003 0.928621 0.928663
679 1 0.428549 0.857259 0.857292
678 1 0.357122 0.928617 0.928665
677 1 0.285649 0.857245 0.857288
676 1 0.214253 0.928606 0.92866
675 1 0.142792 0.857218 0.857259
596 1 0.999996 0.571452 0.71436
597 1 0.0713903 0.642895 0.785805
598 1 0.142761 0.571467 0.714391
599 1 0.214189 0.642928 0.785858
600 1 0.285583 0.571487 0.714444
601 1 0.357026 0.643046 0.786028
602 1 0.428502 0.571709 0.714393
603 1 0.499999 0.643026 0.78591
604 1 0.571513 0.571655 0.714429
605 1 0.642973 0.643023 0.786019
606 1 0.714463 0.571489 0.71449
607 1 0.785819 0.642925 0.785855
608 1 0.85724 0.571458 0.714386
609 1 0.928609 0.642892 0.785801
610 1 0.999986 0.714356 0.714373
611 1 0.0713678 0.785795 0.78582
612 1 0.14268 0.714431 0.714443
613 1 0.214112 0.785905 0.785927
614 1 0.285273 0.714772 0.714759
615 1 0.357038 0.785934 0.785956
616 1 0.428452 0.714742 0.714694
617 1 0.500001 0.785938 0.785945
618 1 0.571539 0.714706 0.714688
619 1 0.642956 0.785912 0.785938
620 1 0.714682 0.714716 0.714714
621 1 0.78587 0.785882 0.7859
622 1 0.857283 0.714404 0.714419
623 1 0.928616 0.785787 0.78581
624 1 0.999988 0.857185 0.714329
625 1 0.0713977 0.928612 0.785771
626 1 0.142783 0.857225 0.714354
627 1 0.214202 0.92867 0.785824
628 1 0.285556 0.857385 0.714472
629 1 0.357088 0.928696 0.785845
630 1 0.428514 0.85741 0.714488
631 1 0.500003 0.9287 0.785845
632 1 0.571485 0.857391 0.714481
633 1 0.642912 0.928682 0.785835
634 1 0.714422 0.857347 0.714448
635 1 0.78579 0.928653 0.785809
636 1 0.85719 0.8572 0.714337
637 1 0.928593 0.928605 0.785764
653 1 0.571469 0.571506 0.857212
674 1 0.0714135 0.928591 0.928645
673 1 0.999999 0.857189 0.857225
672 1 0.928599 0.785739 0.928648
671 1 0.857202 0.714332 0.857241
652 1 0.500001 0.642906 0.928632
670 1 0.785775 0.785767 0.928673
645 1 7.53394e-06 0.571438 0.857202
646 1 0.0714216 0.642868 0.928633
647 1 0.142827 0.571444 0.857209
648 1 0.214255 0.642875 0.928644
649 1 0.285678 0.571447 0.857202
650 1 0.357106 0.642908 0.928665
651 1 0.428535 0.57151 0.857205
641 1 0.500003 0.500012 0.928535
593 1 0.642861 0.500028 0.785698
592 1 0.500001 0.500075 0.785948
591 1 0.35717 0.500054 0.785629
359 1 0.57146 0.571444 0.999946
361 1 0.714333 0.571429 0.999987
513 1 0.213615 0.500008 0.500048
517 1 0.786227 0.499987 0.500025
521 1 0.357657 0.642318 0.500048
523 1 0.64187 0.641913 0.500121
529 1 0.499993 0.78633 0.500086
