ITEM: TIMESTEP
5
ITEM: NUMBER OF ATOMS
687
ITEM: BOX BOUNDS pp pp pp
0.0000000000000000e+00 2.2013900999999997e+01
0.0000000000000000e+00 2.2013900999999997e+01
0.0000000000000000e+00 2.2013900999999997e+01
ITEM: ATOMS id type xs ys zs
175 1 0.857144 0.428529 0.428524
2 1 0.0714254 0.0714253 0.0714253
174 1 0.714265 0.42858 0.428459
4 1 0.214292 0.0714318 0.0714284
173 1 0.571333 0.429731 0.429566
6 1 0.357137 0.0714353 0.0714283
172 1 0.429834 0.42982 0.430015
8 1 0.500007 0.0714356 0.0714372
171 1 0.286116 0.428647 0.428641
10 1 0.642852 0.0714378 0.0714272
170 1 0.142957 0.42856 0.428549
12 1 0.785717 0.0714347 0.0714351
169 1 -9.03265e-06 0.42858 0.428577
14 1 0.928571 0.0714357 0.0714342
446 1 0.642821 0.500027 0.357508
16 1 0.0714399 0.214294 0.0714306
513 1 0.21424 0.499989 0.499945
18 1 0.214299 0.214303 0.0714517
397 1 0.64281 0.499964 0.214407
20 1 0.357151 0.214313 0.0714436
396 1 0.499978 0.499981 0.214424
22 1 0.500005 0.214319 0.0714587
516 1 0.645576 0.499814 0.499331
24 1 0.642846 0.214316 0.0714496
517 1 0.785881 0.499975 0.499897
26 1 0.785703 0.214309 0.0714439
194 1 0.642514 0.357924 0.499912
28 1 0.92856 0.214292 0.0714327
155 1 -1.84373e-05 0.142877 0.428581
30 1 0.0714296 0.357144 0.0714321
147 1 0.857073 0.428594 0.285769
32 1 0.214318 0.35716 0.0714437
146 1 0.714213 0.428599 0.285761
34 1 0.357156 0.357165 0.0714847
399 1 0.928545 0.500007 0.214308
36 1 0.499998 0.357171 0.071496
145 1 0.571423 0.428732 0.286193
38 1 0.642839 0.357155 0.0714647
144 1 0.42873 0.428734 0.286289
40 1 0.785698 0.357155 0.07144
143 1 0.285953 0.428689 0.285926
42 1 0.928557 0.357152 0.0714367
142 1 0.14294 0.428603 0.285757
141 1 0.999999 0.428586 0.285741
140 1 0.928534 0.357157 0.357148
139 1 0.857097 0.285747 0.285742
138 1 0.785644 0.35716 0.357147
137 1 0.714141 0.285851 0.285852
136 1 0.64249 0.357572 0.357511
168 1 0.857032 0.285803 0.428616
51 1 0.0714327 0.0714295 0.214294
167 1 0.714173 0.28586 0.428615
53 1 0.214302 0.0714376 0.2143
166 1 0.571469 0.28609 0.428618
55 1 0.357164 0.0714382 0.214311
165 1 0.428573 0.286038 0.428564
57 1 0.500002 0.0714354 0.214319
164 1 0.285835 0.285861 0.428611
59 1 0.642839 0.0714365 0.214323
163 1 0.142915 0.28576 0.428592
61 1 0.785708 0.0714371 0.214308
162 1 0.999982 0.285741 0.428593
63 1 0.928562 0.0714293 0.214287
64 1 1 0.142864 0.142862
65 1 0.0714415 0.214297 0.214302
66 1 0.142878 0.142874 0.142874
67 1 0.21434 0.21435 0.214344
68 1 0.285727 0.142875 0.142874
69 1 0.357186 0.214356 0.21435
70 1 0.428578 0.142892 0.142878
71 1 0.499994 0.214351 0.214339
72 1 0.571421 0.142893 0.142876
73 1 0.64282 0.21434 0.214334
74 1 0.714278 0.142889 0.142875
75 1 0.785662 0.214333 0.214331
76 1 0.857126 0.142868 0.142873
77 1 0.928551 0.21431 0.214303
78 1 0.999992 0.285724 0.142869
79 1 0.071444 0.357161 0.214323
80 1 0.142879 0.285722 0.142868
81 1 0.214357 0.357187 0.214349
82 1 0.285764 0.285765 0.142918
83 1 0.357248 0.35725 0.21449
84 1 0.428597 0.28576 0.142934
85 1 0.500003 0.357293 0.214548
86 1 0.5714 0.285763 0.142917
87 1 0.642791 0.357218 0.214431
88 1 0.714244 0.285748 0.142911
89 1 0.785662 0.357165 0.214328
90 1 0.857131 0.285727 0.142873
91 1 0.928554 0.357162 0.214307
92 1 -1.94294e-05 0.428573 0.142876
93 1 0.142892 0.42858 0.14289
94 1 0.285767 0.4286 0.142939
95 1 0.428568 0.428579 0.143019
96 1 0.571425 0.428586 0.142994
97 1 0.714249 0.42857 0.142926
98 1 0.857123 0.428581 0.142871
161 1 0.857117 0.142884 0.428588
100 1 0.0714305 0.0714335 0.357144
160 1 0.714251 0.142931 0.428585
102 1 0.214314 0.0714368 0.357157
159 1 0.571447 0.142938 0.428555
104 1 0.35715 0.0714676 0.35714
158 1 0.428546 0.14293 0.428532
106 1 0.500015 0.0714699 0.357166
192 1 0.357558 0.357595 0.500031
108 1 0.642845 0.0714629 0.357146
157 1 0.285755 0.142904 0.428575
110 1 0.785702 0.071432 0.357153
156 1 0.142876 0.142884 0.428576
112 1 0.928551 0.0714431 0.357154
113 1 0.999994 0.142878 0.285727
114 1 0.0714369 0.214315 0.35716
115 1 0.142862 0.142871 0.28572
116 1 0.214341 0.214337 0.357168
117 1 0.285751 0.142904 0.285744
118 1 0.357186 0.214431 0.357175
119 1 0.428589 0.142933 0.285752
120 1 0.500014 0.21453 0.357271
121 1 0.571418 0.142914 0.285762
122 1 0.642811 0.214415 0.357184
123 1 0.714252 0.142896 0.28575
124 1 0.785652 0.214344 0.357186
125 1 0.857124 0.142872 0.285728
126 1 0.928546 0.214308 0.357164
127 1 1 0.285727 0.285734
128 1 0.0714727 0.357147 0.357142
129 1 0.142919 0.285759 0.285749
130 1 0.214442 0.357216 0.357205
131 1 0.285909 0.285912 0.285895
132 1 0.357687 0.357692 0.357668
133 1 0.428676 0.285937 0.285912
134 1 0.500116 0.357809 0.357844
135 1 0.571338 0.285928 0.285904
56 1 0.428572 -1.52194e-05 0.142887
60 1 0.714275 -1.90266e-05 0.142876
179 1 0.499993 0.0713963 0.499986
180 1 0.642844 0.0714377 0.499996
149 1 0.142876 -1.74367e-05 0.42857
185 1 0.357222 0.214439 0.499965
186 1 0.499955 0.214147 0.499922
187 1 0.642824 0.214427 0.499932
189 1 0.928558 0.214303 0.500008
151 1 0.428577 -2.37975e-05 0.428584
348 1 0.642824 0.5 0.0714726
344 1 0.0714346 0.50001 0.0714368
347 1 0.500001 0.500004 0.0714839
176 1 0.0714288 0.071437 0.500006
48 1 0.714278 0.428583 -4.25636e-06
47 1 0.571423 0.428597 2.26066e-05
512 1 0.0714269 0.499996 0.499996
46 1 0.428574 0.428581 1.46115e-05
44 1 0.142878 0.428578 -1.45855e-05
43 1 0.999993 0.428574 -3.85218e-06
21 1 0.428569 0.142874 -3.41793e-06
25 1 0.714276 0.142869 -1.5679e-06
248 1 0.142882 -1.15532e-05 0.714277
49 1 0.857123 0.428589 0.999993
199 1 0.142874 -8.20261e-06 0.571429
41 1 0.857126 0.285718 1
39 1 0.714278 0.28573 1.00001
181 1 0.785694 0.0714338 0.500011
182 1 0.928548 0.0714461 0.500007
593 1 0.642943 0.499944 0.785639
184 1 0.214319 0.214338 0.499981
592 1 0.499955 0.499946 0.785967
45 1 0.285739 0.428593 0.999988
37 1 0.571419 0.285731 1.00001
188 1 0.785618 0.214406 0.500012
545 1 0.785538 0.499992 0.642826
543 1 0.499667 0.499689 0.645098
542 1 0.357885 0.500007 0.642427
541 1 0.214442 0.499974 0.642819
193 1 0.500035 0.355855 0.500153
323 1 1 0.285728 0.857125
195 1 0.785493 0.357346 0.500063
196 1 0.928494 0.357193 0.500027
343 1 0.857122 0.428585 0.857104
198 1 0.0714282 0.0714357 0.642851
342 1 0.714286 0.42858 0.857122
200 1 0.214308 0.071439 0.642839
33 1 0.285723 0.285733 1.00001
202 1 0.357153 0.0714363 0.642851
341 1 0.571484 0.428585 0.857148
204 1 0.499999 0.0713992 0.642831
340 1 0.428519 0.428545 0.857124
206 1 0.642858 0.0714165 0.642853
339 1 0.28581 0.428629 0.857014
208 1 0.785692 0.0714402 0.642836
338 1 0.142877 0.428594 0.857112
210 1 0.928553 0.0714432 0.642853
211 1 -1.31482e-05 0.142876 0.571422
212 1 0.0714295 0.214309 0.642839
213 1 0.142874 0.142875 0.571428
214 1 0.214318 0.214328 0.642839
215 1 0.285753 0.142894 0.571407
216 1 0.357143 0.214336 0.642826
217 1 0.428552 0.142873 0.571429
218 1 0.499931 0.214294 0.642851
219 1 0.571454 0.142785 0.571429
220 1 0.642911 0.214288 0.642886
221 1 0.714233 0.14295 0.5714
222 1 0.785622 0.21441 0.642797
223 1 0.857124 0.142881 0.571427
224 1 0.928547 0.214306 0.642846
225 1 0.999991 0.285736 0.571413
226 1 0.0714564 0.357158 0.642841
227 1 0.142896 0.285762 0.571414
228 1 0.214357 0.357186 0.642841
229 1 0.285827 0.285861 0.571342
230 1 0.357337 0.357334 0.642609
231 1 0.428502 0.285852 0.571491
232 1 0.499806 0.357141 0.642868
233 1 0.571524 0.285391 0.571529
234 1 0.642807 0.357389 0.642932
235 1 0.714059 0.285985 0.571351
236 1 0.785585 0.357258 0.642774
237 1 0.857025 0.285812 0.57141
238 1 0.9285 0.357182 0.642835
239 1 0.999984 0.428593 0.571425
240 1 0.142917 0.428573 0.571438
241 1 0.285982 0.428636 0.571444
242 1 0.428743 0.42891 0.57131
243 1 0.571968 0.426367 0.57187
244 1 0.713691 0.429011 0.571463
245 1 0.857015 0.428597 0.57145
337 1 0.999997 0.428585 0.857122
247 1 0.071425 0.0714281 0.785715
336 1 0.928563 0.357155 0.928551
249 1 0.214307 0.0714268 0.785698
335 1 0.857117 0.285738 0.857111
251 1 0.35715 0.0714168 0.785702
334 1 0.785694 0.357157 0.928553
253 1 0.500013 0.0714235 0.785696
333 1 0.714287 0.285732 0.85712
255 1 0.642839 0.0714291 0.785698
332 1 0.64286 0.357162 0.928562
257 1 0.785706 0.0714251 0.785702
331 1 0.571418 0.28576 0.857099
259 1 0.928556 0.0714387 0.785693
260 1 -1.67697e-05 0.142874 0.714273
261 1 0.0714257 0.214297 0.785705
262 1 0.142875 0.142869 0.714272
263 1 0.214316 0.214329 0.785678
264 1 0.285732 0.142881 0.714276
265 1 0.357133 0.2143 0.785696
266 1 0.428562 0.142869 0.714273
267 1 0.500006 0.214334 0.785665
268 1 0.571423 0.14289 0.714244
269 1 0.642849 0.214322 0.785676
270 1 0.714279 0.142887 0.714281
271 1 0.785687 0.21433 0.785669
272 1 0.857122 0.142883 0.714256
273 1 0.92856 0.2143 0.785697
274 1 0.999988 0.285729 0.714274
275 1 0.0714444 0.357163 0.7857
276 1 0.14289 0.28575 0.714261
277 1 0.214364 0.357196 0.785635
278 1 0.285778 0.28581 0.714208
279 1 0.357177 0.357206 0.785646
280 1 0.428552 0.285707 0.71426
281 1 0.500038 0.357224 0.78563
282 1 0.571383 0.285807 0.714213
283 1 0.642876 0.357166 0.785748
284 1 0.71426 0.285775 0.714231
285 1 0.785678 0.357185 0.785659
286 1 0.857078 0.285775 0.714231
287 1 0.928556 0.357165 0.785695
288 1 -1.70486e-05 0.428584 0.714275
289 1 0.142948 0.4286 0.714245
290 1 0.285877 0.428671 0.714138
291 1 0.428673 0.428527 0.714047
292 1 0.57165 0.428589 0.714343
293 1 0.714195 0.428736 0.714195
294 1 0.8571 0.428585 0.714254
330 1 0.499994 0.357175 0.928543
296 1 0.0714345 0.0714346 0.928572
329 1 0.428566 0.285754 0.857112
298 1 0.214296 0.0714291 0.928569
328 1 0.357151 0.35716 0.928533
300 1 0.357144 0.0714338 0.928569
327 1 0.285745 0.285758 0.857098
302 1 0.499996 0.0714348 0.928552
326 1 0.21431 0.357173 0.928546
304 1 0.642851 0.0714347 0.92856
325 1 0.142876 0.285734 0.857124
306 1 0.785711 0.0714362 0.928557
324 1 0.0714408 0.357161 0.928554
308 1 0.928562 0.0714341 0.928565
309 1 0.999997 0.142867 0.857136
310 1 0.0714373 0.214293 0.928558
311 1 0.142861 0.142868 0.857126
312 1 0.214301 0.214307 0.928559
313 1 0.285722 0.142868 0.857137
314 1 0.357162 0.2143 0.928551
315 1 0.428586 0.142869 0.857122
316 1 0.500002 0.214303 0.928559
317 1 0.57143 0.142866 0.857122
318 1 0.642843 0.214307 0.928557
319 1 0.714269 0.142868 0.857122
320 1 0.785706 0.214294 0.928566
321 1 0.85713 0.142871 0.857125
322 1 0.928559 0.214294 0.928559
15 1 0.999996 0.142856 0.999996
17 1 0.142865 0.142865 0.999999
19 1 0.28572 0.142861 0.999995
31 1 0.142872 0.285726 0.999988
23 1 0.571428 0.142874 0.999998
29 1 0.999997 0.285712 0.999995
27 1 0.857138 0.142863 0.999995
35 1 0.428585 0.285731 1
177 1 0.214317 0.0714298 0.500005
178 1 0.357159 0.0714555 0.500005
183 1 0.0714349 0.214318 0.499993
190 1 0.0714675 0.357168 0.500005
191 1 0.214455 0.357256 0.499977
107 1 0.571417 1 0.285737
511 1 0.857096 0.857101 0.428597
346 1 0.357169 0.500009 0.0714848
518 1 0.928603 0.499982 0.499979
529 1 0.499961 0.785738 0.499944
510 1 0.7142 0.857014 0.428637
350 1 0.928549 0.500004 0.0714457
150 1 0.285739 0.999994 0.428601
352 1 0.0714332 0.642851 0.071427
345 1 0.214325 0.500002 0.0714363
354 1 0.21432 0.642844 0.0714435
152 1 0.571427 0.99997 0.4286
356 1 0.357158 0.642833 0.0714659
153 1 0.714267 0.999969 0.428595
358 1 0.499992 0.642824 0.0714617
359 1 0.571421 0.571425 3.79178e-05
360 1 0.642845 0.642849 0.0714546
154 1 0.857112 0.999979 0.428582
362 1 0.785693 0.642832 0.0714356
525 1 0.92851 0.642866 0.499985
364 1 0.928549 0.642854 0.0714421
148 1 0.99999 1 0.428575
366 1 0.0714282 0.78571 0.0714318
111 1 0.857118 0.999995 0.285728
368 1 0.21431 0.785691 0.0714433
109 1 0.714271 0.999999 0.285729
370 1 0.357162 0.785691 0.0714314
105 1 0.428591 0.999991 0.28574
372 1 0.500012 0.785691 0.0714359
103 1 0.285727 1 0.28572
374 1 0.642831 0.785695 0.071436
101 1 0.142877 0.99999 0.285728
376 1 0.785703 0.785694 0.0714397
99 1 0.999996 1 0.28572
378 1 0.928558 0.785709 0.0714389
62 1 0.857139 0.999992 0.142871
380 1 0.071435 0.928573 0.0714356
524 1 0.785426 0.642827 0.499946
382 1 0.214286 0.928566 0.071433
58 1 0.571425 0.999985 0.142884
384 1 0.357157 0.928551 0.0714448
349 1 0.785705 0.500012 0.0714339
386 1 0.500004 0.928552 0.0714441
54 1 0.285729 0.999984 0.142877
388 1 0.642852 0.928551 0.0714433
52 1 0.142867 0.999998 0.142866
390 1 0.785704 0.928558 0.0714418
50 1 0.999995 0.999995 0.142854
392 1 0.928565 0.928565 0.0714361
509 1 0.571471 0.857037 0.428613
394 1 0.214356 0.5 0.214346
395 1 0.357303 0.500005 0.214562
508 1 0.428552 0.857146 0.428555
507 1 0.285773 0.857073 0.428593
398 1 0.785639 0.500001 0.214355
522 1 0.499409 0.64534 0.499298
400 1 -6.56647e-06 0.571425 0.142873
401 1 0.0714463 0.642843 0.214329
402 1 0.142886 0.571427 0.142891
403 1 0.21434 0.642819 0.214334
404 1 0.285767 0.571402 0.142915
405 1 0.357223 0.642768 0.214436
406 1 0.428588 0.571419 0.142987
407 1 0.499944 0.64281 0.214419
408 1 0.571426 0.571421 0.142873
409 1 0.642883 0.642882 0.214275
410 1 0.714238 0.571415 0.142925
411 1 0.78565 0.642834 0.214352
412 1 0.857127 0.571415 0.142874
413 1 0.928553 0.642845 0.214305
414 1 -1.68805e-05 0.714275 0.142879
415 1 0.0714403 0.785696 0.21431
416 1 0.142882 0.714272 0.142888
417 1 0.214343 0.785664 0.214332
418 1 0.285754 0.714238 0.142905
419 1 0.357166 0.785663 0.214331
420 1 0.428581 0.714249 0.14292
421 1 0.500004 0.785641 0.214365
422 1 0.571406 0.714236 0.142923
423 1 0.642827 0.785653 0.214352
424 1 0.714267 0.71427 0.142892
425 1 0.785679 0.785685 0.214332
426 1 0.85713 0.714264 0.142874
427 1 0.928565 0.785711 0.214294
428 1 0.999988 0.857136 0.142866
429 1 0.0714324 0.928565 0.214289
430 1 0.14287 0.85713 0.142869
431 1 0.214299 0.928562 0.214303
432 1 0.285724 0.857129 0.142867
433 1 0.357164 0.928548 0.21431
434 1 0.42859 0.85712 0.142881
435 1 0.500011 0.928561 0.21431
436 1 0.571426 0.857115 0.142872
437 1 0.642841 0.928557 0.214305
438 1 0.714262 0.857126 0.142873
439 1 0.785697 0.928556 0.214297
440 1 0.857132 0.857126 0.142872
441 1 0.928551 0.928552 0.214296
506 1 0.142879 0.857127 0.428579
443 1 0.214549 0.500009 0.357283
444 1 0.357821 0.500121 0.357843
445 1 0.500384 0.500389 0.356928
505 1 0.99998 0.85711 0.428585
447 1 0.785621 0.50006 0.357224
448 1 0.928521 0.500016 0.357189
449 1 1.00001 0.571412 0.285739
450 1 0.0714624 0.642837 0.357151
451 1 0.142917 0.571411 0.285762
452 1 0.214419 0.642796 0.357196
453 1 0.285935 0.571333 0.285919
454 1 0.357521 0.642521 0.357508
455 1 0.428731 0.571422 0.286207
456 1 0.499953 0.642815 0.357526
457 1 0.571522 0.57153 0.28569
458 1 0.64297 0.64298 0.357119
459 1 0.714182 0.571392 0.285806
460 1 0.785703 0.642868 0.357153
461 1 0.85707 0.571421 0.285776
462 1 0.928522 0.642851 0.357179
463 1 1.00001 0.714276 0.285727
464 1 0.0714324 0.785694 0.357148
465 1 0.142896 0.714245 0.285751
466 1 0.214318 0.785674 0.357155
467 1 0.285849 0.714145 0.285837
468 1 0.357153 0.785676 0.357139
469 1 0.428595 0.714219 0.285767
470 1 0.500052 0.785592 0.357254
471 1 0.571361 0.714183 0.28582
472 1 0.642835 0.785672 0.357199
473 1 0.7143 0.714304 0.285726
474 1 0.785607 0.785621 0.357242
475 1 0.857108 0.714278 0.285743
476 1 0.928535 0.78569 0.357174
477 1 0.99999 0.857117 0.285727
478 1 0.0714435 0.928555 0.357154
479 1 0.142868 0.857134 0.285728
480 1 0.214303 0.928543 0.357154
481 1 0.285745 0.857093 0.285752
482 1 0.357162 0.928531 0.357164
483 1 0.428593 0.857071 0.285776
484 1 0.500019 0.928514 0.35719
485 1 0.571415 0.857063 0.285785
486 1 0.642839 0.928518 0.357179
487 1 0.714268 0.857107 0.285756
488 1 0.785682 0.928523 0.357189
489 1 0.857098 0.857101 0.285754
490 1 0.928549 0.928549 0.357154
491 1 0.999993 0.571429 0.428587
492 1 0.142948 0.571441 0.428563
493 1 0.286067 0.571483 0.428637
494 1 0.429567 0.571405 0.429612
495 1 0.572143 0.572272 0.426217
496 1 0.714085 0.57163 0.42855
497 1 0.857082 0.571485 0.428586
498 1 0.999972 0.714274 0.428589
499 1 0.142912 0.714251 0.428573
500 1 0.285744 0.714259 0.428556
501 1 0.428498 0.714289 0.428493
502 1 0.571516 0.713961 0.428628
503 1 0.713991 0.714012 0.428829
504 1 0.857048 0.714237 0.42861
520 1 0.214367 0.642833 0.49994
521 1 0.357386 0.642925 0.499828
442 1 0.0714745 0.500007 0.357166
393 1 0.0714404 0.499999 0.21432
353 1 0.14289 0.571427 -2.43083e-05
367 1 0.142877 0.714269 -2.38228e-05
375 1 0.714287 0.714283 -2.45124e-05
3 1 0.142854 0.999993 0.999994
687 3 0.565707 0.565529 0.565655
514 1 0.356192 0.500235 0.500223
515 1 0.92856 0.928556 0.92856
686 3 0.508219 0.508281 0.508461
685 2 0.536846 0.516005 0.555049
684 1 0.785708 0.928555 0.928554
519 1 0.0714468 0.64283 0.5
307 1 0.857133 0.999998 0.857133
305 1 0.714274 0.999987 0.857117
303 1 0.571432 0.999985 0.857114
301 1 0.428587 0.999987 0.857112
299 1 0.285722 0.99998 0.857122
297 1 0.142871 0.999996 0.857136
295 1 0.999993 0.999989 0.857137
527 1 0.214357 0.785651 0.499996
528 1 0.357248 0.785622 0.500027
258 1 0.857112 0.999995 0.714264
530 1 0.642719 0.785268 0.500024
531 1 0.785539 0.785563 0.500068
532 1 0.928522 0.785676 0.500011
256 1 0.714273 0.999953 0.714265
534 1 0.214311 0.928551 0.499999
535 1 0.357184 0.928515 0.500022
536 1 0.500007 0.928548 0.499995
254 1 0.571427 0.999949 0.714263
538 1 0.785668 0.928525 0.500019
539 1 0.92855 0.928546 0.500005
540 1 0.0714635 0.500008 0.642838
683 1 0.714253 0.857105 0.85709
682 1 0.64285 0.928549 0.928548
681 1 0.571422 0.857101 0.857088
544 1 0.643031 0.500095 0.642835
680 1 0.500001 0.928544 0.928552
679 1 0.428604 0.857097 0.857097
547 1 1.00001 0.571432 0.571415
548 1 0.0714344 0.642843 0.64285
549 1 0.14284 0.571439 0.571439
550 1 0.214265 0.642895 0.642905
551 1 0.285534 0.571578 0.5715
552 1 0.357141 0.643033 0.6429
553 1 0.425914 0.572322 0.571769
554 1 0.500103 0.642087 0.641935
555 1 0.857102 0.857107 0.857102
556 1 0.642176 0.641958 0.642163
557 1 0.71532 0.571381 0.571357
558 1 0.785474 0.642878 0.642852
559 1 0.857209 0.571493 0.571448
560 1 0.928526 0.642879 0.642867
561 1 0.999966 0.714267 0.571414
562 1 0.0714325 0.785689 0.642834
563 1 0.142914 0.714247 0.571415
564 1 0.214353 0.785665 0.642835
565 1 0.285815 0.714211 0.571362
566 1 0.357206 0.785685 0.642837
567 1 0.42862 0.713985 0.571448
568 1 0.500021 0.785278 0.642708
569 1 0.571232 0.714436 0.571186
570 1 0.642761 0.785263 0.642749
571 1 0.713776 0.713765 0.571336
572 1 0.785538 0.785566 0.642762
573 1 0.856943 0.71418 0.571414
574 1 0.928511 0.785675 0.642839
575 1 0.999987 0.857111 0.571429
576 1 0.0714506 0.92855 0.642849
577 1 0.142875 0.857122 0.571428
578 1 0.21431 0.928547 0.642846
579 1 0.285792 0.857073 0.571417
580 1 0.357181 0.928521 0.64285
581 1 0.428611 0.857033 0.571469
582 1 0.500006 0.928454 0.642834
583 1 0.571458 0.856994 0.571446
584 1 0.642851 0.928441 0.642855
585 1 0.714156 0.856917 0.57142
586 1 0.78566 0.928512 0.64283
587 1 0.85709 0.857094 0.571431
588 1 0.928548 0.928551 0.642852
678 1 0.357153 0.928555 0.928551
590 1 0.21441 0.50002 0.785606
591 1 0.357387 0.500081 0.785429
677 1 0.285754 0.857106 0.857099
676 1 0.214297 0.928557 0.928555
594 1 0.785646 0.500054 0.785627
595 1 0.928551 0.500003 0.785671
596 1 0.999982 0.571421 0.71426
597 1 0.0714473 0.642829 0.785687
598 1 0.142964 0.571399 0.714232
599 1 0.214402 0.642801 0.785623
600 1 0.285954 0.571342 0.714072
601 1 0.357257 0.642804 0.785571
602 1 0.429003 0.571512 0.713489
603 1 0.499974 0.642811 0.785369
604 1 0.571549 0.57141 0.715525
605 1 0.642907 0.642911 0.785528
606 1 0.714069 0.571452 0.714023
607 1 0.78566 0.64284 0.785647
608 1 0.857032 0.571438 0.714206
609 1 0.928537 0.642846 0.785672
610 1 0.999975 0.714283 0.714276
611 1 0.0714313 0.7857 0.785706
612 1 0.142884 0.714274 0.714285
613 1 0.214321 0.785684 0.785687
614 1 0.285752 0.714289 0.714291
615 1 0.357266 0.785588 0.78559
616 1 0.428872 0.713993 0.713925
617 1 0.500063 0.78556 0.785536
618 1 0.571344 0.713735 0.713774
619 1 0.642763 0.785575 0.78554
620 1 0.713955 0.713981 0.713942
621 1 0.785603 0.785622 0.7856
622 1 0.857057 0.714256 0.714249
623 1 0.928535 0.785689 0.785683
624 1 0.999984 0.857114 0.714264
625 1 0.0714371 0.928558 0.7857
626 1 0.142875 0.857127 0.714269
627 1 0.2143 0.928558 0.785701
628 1 0.285759 0.857103 0.714265
629 1 0.357178 0.92853 0.785678
630 1 0.428646 0.85701 0.7142
631 1 0.500018 0.928512 0.785673
632 1 0.571403 0.856921 0.714151
633 1 0.64283 0.928509 0.78566
634 1 0.714212 0.857021 0.714218
635 1 0.785675 0.92853 0.785676
636 1 0.857094 0.857095 0.714249
637 1 0.928559 0.928558 0.785707
675 1 0.142872 0.85713 0.857131
639 1 0.214301 0.500007 0.928544
640 1 0.357203 0.500028 0.92847
674 1 0.071432 0.928564 0.928562
673 1 0.999992 0.857133 0.857137
672 1 0.928567 0.78572 0.928561
644 1 0.928557 0.5 0.928558
645 1 1.00001 0.571423 0.857116
646 1 0.0714467 0.64285 0.92855
647 1 0.142881 0.571416 0.857114
648 1 0.21431 0.642838 0.928546
649 1 0.285811 0.571418 0.85702
650 1 0.357178 0.642842 0.928492
651 1 0.428605 0.57148 0.856995
652 1 0.499982 0.642861 0.928496
653 1 0.571472 0.571497 0.857274
654 1 0.642877 0.642894 0.928536
655 1 0.714228 0.571451 0.85705
656 1 0.785683 0.64285 0.928533
657 1 0.857102 0.571439 0.857106
658 1 0.928558 0.64285 0.928557
659 1 1 0.714266 0.857121
660 1 0.0714395 0.7857 0.928547
661 1 0.142881 0.714262 0.857121
662 1 0.214301 0.785694 0.928557
663 1 0.285772 0.714237 0.857081
664 1 0.357169 0.785679 0.928537
665 1 0.4286 0.71424 0.857026
666 1 0.500006 0.785683 0.928513
667 1 0.571402 0.714181 0.856951
668 1 0.642832 0.785681 0.928518
669 1 0.714271 0.714281 0.857078
670 1 0.785689 0.785702 0.928539
671 1 0.857116 0.714273 0.85711
197 1 0.999997 0.999995 0.571425
5 1 0.285714 0.999999 0.999994
203 1 0.428604 0.999962 0.571426
205 1 0.571427 0.999947 0.571417
207 1 0.714269 0.999963 0.571418
209 1 0.857114 0.999998 0.571425
246 1 0.999994 0.999997 0.714292
7 1 0.428575 0.999998 0.999997
250 1 0.285727 0.999997 0.714274
252 1 0.428588 0.999961 0.714276
351 1 0.999992 0.571423 1
201 1 0.285724 0.999996 0.571418
355 1 0.285734 0.571422 0.999996
357 1 0.428583 0.571431 0.999986
361 1 0.714272 0.571424 0.99999
363 1 0.857121 0.57143 1.00001
365 1 0.999997 0.71429 0.999999
546 1 0.928541 0.499985 0.642849
369 1 0.285729 0.71427 1
371 1 0.42858 0.71428 0.999979
373 1 0.571418 0.71427 0.999971
589 1 0.0714496 0.500004 0.785699
377 1 0.857118 0.714273 1
379 1 0.999993 0.857138 0.999989
381 1 0.142865 0.857139 1
383 1 0.285731 0.857126 0.999992
385 1 0.428586 0.857108 0.999988
387 1 0.571427 0.857118 0.99999
389 1 0.714267 0.857115 0.999988
391 1 0.857134 0.857137 0.999986
1 1 0.999998 0.999999 0.999998
13 1 0.857137 0.999991 0.999994
11 1 0.714284 0.999996 0.99999
9 1 0.57143 0.999994 0.999993
643 1 0.785684 0.500018 0.928543
642 1 0.642873 0.499995 0.928572
641 1 0.499972 0.500005 0.928646
638 1 0.0714438 0.5 0.928551
537 1 0.642838 0.928455 0.500016
533 1 0.0714416 0.928547 0.500001
526 1 0.0714303 0.785688 0.500009
523 1 0.642147 0.642088 0.499999
