ITEM: TIMESTEP
117
ITEM: NUMBER OF ATOMS
693
ITEM: BOX BOUNDS pp pp pp
0.0000000000000000e+00 2.2013900999999997e+01
0.0000000000000000e+00 2.2013900999999997e+01
0.0000000000000000e+00 2.2013900999999997e+01
ITEM: ATOMS id type xs ys zs
196 1 0.928929 0.356881 0.500019
2 1 0.0713838 0.0712577 0.0714379
175 1 0.857657 0.428405 0.428482
4 1 0.214232 0.071233 0.0713907
445 1 0.498556 0.499136 0.355941
6 1 0.357126 0.0712562 0.0713958
174 1 0.716426 0.426836 0.42673
8 1 0.500009 0.0712901 0.0714379
173 1 0.573014 0.427181 0.428518
10 1 0.64288 0.071317 0.0714913
399 1 0.928552 0.499907 0.214256
12 1 0.785746 0.0713221 0.071521
172 1 0.422073 0.420331 0.422779
14 1 0.928599 0.0712999 0.0715043
15 1 1.97324e-05 0.142701 9.98039e-05
16 1 0.071326 0.214067 0.0713938
17 1 0.142778 0.142641 2.74009e-05
18 1 0.214096 0.213967 0.0712692
393 1 0.0712066 0.4999 0.214157
20 1 0.35707 0.21401 0.0712678
21 1 0.428573 0.142701 -1.95201e-06
22 1 0.499997 0.214059 0.0713352
350 1 0.928592 0.499921 0.0715623
24 1 0.642886 0.214101 0.0714224
345 1 0.21407 0.499907 0.0713624
26 1 0.785769 0.214108 0.0714848
27 1 0.857225 0.142714 0.000160398
28 1 0.928588 0.214106 0.071469
159 1 0.571425 0.142523 0.428461
30 1 0.0713078 0.356975 0.0714098
158 1 0.428489 0.142387 0.428431
32 1 0.214061 0.356918 0.0712857
33 1 0.285555 0.285443 -1.19905e-05
34 1 0.356977 0.356883 0.0711874
35 1 0.428557 0.28552 -3.707e-05
36 1 0.49998 0.356944 0.071327
37 1 0.571455 0.285554 5.08154e-05
38 1 0.642868 0.356997 0.0714753
39 1 0.714371 0.285557 0.000191213
40 1 0.785764 0.357012 0.0715276
41 1 0.857239 0.285555 0.000181498
42 1 0.928581 0.357 0.0715008
157 1 0.285413 0.142248 0.428411
156 1 0.142667 0.14249 0.428509
45 1 0.285527 0.428421 4.94358e-05
46 1 0.428513 0.428442 7.51298e-05
47 1 0.571459 0.428477 0.000150939
48 1 0.714383 0.428492 0.000278218
49 1 0.857262 0.428465 0.000246323
171 1 0.283877 0.427476 0.427315
51 1 0.0713423 0.0711871 0.214208
195 1 0.786971 0.35642 0.49984
53 1 0.214132 0.0710919 0.214128
170 1 0.142271 0.428333 0.428336
55 1 0.357078 0.0711206 0.214156
194 1 0.646596 0.354059 0.496755
57 1 0.499994 0.071176 0.214203
514 1 0.355397 0.499317 0.496532
59 1 0.642877 0.0712218 0.214252
169 1 0.999961 0.428446 0.428543
61 1 0.785755 0.0712342 0.214258
168 1 0.857687 0.285225 0.42836
63 1 0.928616 0.0712209 0.214232
64 1 0.999953 0.142628 0.1428
65 1 0.0712092 0.213946 0.214095
66 1 0.142664 0.14252 0.142684
67 1 0.213783 0.213644 0.213775
68 1 0.285582 0.14251 0.142656
69 1 0.356915 0.213723 0.213847
70 1 0.428534 0.142566 0.142707
71 1 0.499971 0.213852 0.213987
72 1 0.571441 0.14262 0.142777
73 1 0.642918 0.213938 0.214079
74 1 0.71432 0.142653 0.142826
75 1 0.785845 0.213956 0.214083
76 1 0.857188 0.142644 0.142827
77 1 0.928613 0.213997 0.214146
78 1 0.999914 0.285512 0.142794
79 1 0.0711799 0.356918 0.214106
80 1 0.142591 0.285417 0.142642
81 1 0.213764 0.356758 0.213791
82 1 0.285362 0.285248 0.142366
83 1 0.356555 0.356468 0.213243
84 1 0.428481 0.285345 0.142516
85 1 0.499938 0.356711 0.213829
86 1 0.571431 0.285425 0.142669
87 1 0.642862 0.35686 0.214008
88 1 0.71433 0.285497 0.14276
89 1 0.785819 0.356917 0.214084
90 1 0.857188 0.285514 0.142803
91 1 0.928562 0.356958 0.214195
92 1 0.999908 0.428443 0.142833
93 1 0.142594 0.428407 0.142686
94 1 0.28537 0.42835 0.142477
95 1 0.428382 0.428306 0.142451
96 1 0.571377 0.428392 0.142814
97 1 0.714286 0.428453 0.142871
98 1 0.857172 0.428447 0.142879
515 1 0.483832 0.494113 0.478222
100 1 0.0713647 0.071185 0.357101
167 1 0.715643 0.284089 0.427359
102 1 0.214115 0.0710655 0.357036
516 1 0.653163 0.497949 0.49852
104 1 0.357052 0.0710197 0.357038
166 1 0.571366 0.285046 0.428198
106 1 0.499987 0.0711448 0.357066
165 1 0.427744 0.284521 0.427614
108 1 0.642889 0.0711788 0.357097
164 1 0.284475 0.284399 0.427822
110 1 0.785867 0.0711378 0.357053
193 1 0.498454 0.356674 0.499008
112 1 0.928656 0.0712085 0.357107
113 1 -2.43754e-05 0.142568 0.285614
114 1 0.0712358 0.213924 0.35701
115 1 0.142603 0.142434 0.285513
116 1 0.2137 0.213552 0.356738
117 1 0.285405 0.14222 0.285379
118 1 0.356611 0.21318 0.356564
119 1 0.428487 0.142374 0.285465
120 1 0.499904 0.213691 0.356788
121 1 0.571432 0.142488 0.285551
122 1 0.642936 0.213757 0.356855
123 1 0.714362 0.14252 0.285575
124 1 0.786235 0.21354 0.356658
125 1 0.857322 0.142484 0.285529
126 1 0.928735 0.213933 0.357001
127 1 0.999906 0.285425 0.285556
128 1 0.0710825 0.356866 0.356963
129 1 0.142297 0.285211 0.285324
130 1 0.213104 0.356391 0.356435
131 1 0.284491 0.284388 0.284448
132 1 0.354148 0.354194 0.354074
133 1 0.42832 0.284863 0.284942
134 1 0.500269 0.356065 0.356037
135 1 0.571507 0.285086 0.285209
136 1 0.643345 0.356287 0.356069
137 1 0.71458 0.285186 0.2852
138 1 0.786552 0.356342 0.356394
139 1 0.857428 0.285285 0.285397
140 1 0.928739 0.356895 0.357005
141 1 0.99988 0.428417 0.285592
142 1 0.14237 0.428344 0.285374
143 1 0.284809 0.42817 0.284787
144 1 0.427703 0.427569 0.284288
145 1 0.571382 0.428243 0.285533
146 1 0.714424 0.428376 0.285337
147 1 0.857285 0.428403 0.28556
163 1 0.142388 0.285269 0.428417
192 1 0.354584 0.354649 0.498831
162 1 2.67805e-05 0.285424 0.428509
161 1 0.857371 0.14251 0.428505
160 1 0.714538 0.142295 0.428406
189 1 0.928797 0.213962 0.500005
187 1 0.643228 0.213443 0.499779
155 1 2.9633e-05 0.142585 0.428546
177 1 0.214169 0.0711524 0.500007
448 1 0.928664 0.499909 0.357052
447 1 0.786121 0.499889 0.35684
180 1 0.642945 0.071223 0.500034
181 1 0.785925 0.07121 0.500027
182 1 0.928711 0.0712516 0.500038
183 1 0.0713354 0.21397 0.499998
184 1 0.213889 0.213754 0.499937
185 1 0.356731 0.213432 0.499781
346 1 0.356971 0.49989 0.0713412
347 1 0.499963 0.499892 0.0714594
348 1 0.642852 0.499913 0.0716196
349 1 0.785778 0.499922 0.0716255
394 1 0.213839 0.499879 0.213898
395 1 0.35669 0.49979 0.213688
396 1 0.499753 0.499718 0.213987
397 1 0.642758 0.499832 0.214376
398 1 0.78579 0.499888 0.214222
442 1 0.0711527 0.499885 0.356984
443 1 0.213557 0.499804 0.356585
444 1 0.356153 0.499685 0.355799
446 1 0.642788 0.49976 0.357543
176 1 0.0714196 0.0712284 0.500031
44 1 0.142719 0.428441 6.13665e-05
43 1 1.00001 0.42846 0.000140489
186 1 0.499937 0.214089 0.499843
188 1 0.786217 0.213704 0.499926
31 1 0.142728 0.285501 2.22377e-05
190 1 0.0712896 0.356917 0.499987
191 1 0.213531 0.356691 0.499889
29 1 1 0.28555 9.91341e-05
25 1 0.714334 0.142741 0.000122352
23 1 0.571455 0.142734 5.51796e-05
19 1 0.285671 0.142655 -1.15462e-05
513 1 0.213808 0.499795 0.499762
9 1 0.571455 -1.23714e-05 0.000141913
13 1 0.857222 -4.17507e-06 0.000204819
512 1 0.0713036 0.499899 0.500008
11 1 0.714336 2.72301e-06 0.000189481
640 1 0.35695 0.499951 0.928939
639 1 0.214083 0.49993 0.928795
643 1 0.786008 0.499952 0.929069
642 1 0.643011 0.499989 0.928998
641 1 0.50003 0.499996 0.928926
595 1 0.928986 0.499948 0.7861
594 1 0.786635 0.499895 0.78659
593 1 0.643537 0.500064 0.786591
638 1 0.0714011 0.499929 0.928768
591 1 0.356431 0.499953 0.786794
590 1 0.213848 0.499922 0.786117
545 1 0.786787 0.500054 0.643204
589 1 0.0714165 0.499938 0.785952
546 1 0.928966 0.499974 0.643033
544 1 0.64835 0.499861 0.645391
541 1 0.213906 0.499896 0.642882
542 1 0.355437 0.499564 0.645175
337 1 0.000124367 0.428455 0.857394
336 1 0.928717 0.356992 0.928819
335 1 0.857494 0.285439 0.857548
334 1 0.785941 0.356984 0.928955
690 3 0.502989 0.466239 0.56935
198 1 0.071473 0.0712878 0.642958
540 1 0.0714503 0.499933 0.642916
200 1 0.214235 0.0712474 0.642941
207 1 0.714478 2.98378e-05 0.571545
202 1 0.35714 0.0712711 0.642905
343 1 0.857545 0.428418 0.857607
204 1 0.500068 0.0714462 0.642912
517 1 0.785602 0.499865 0.500254
206 1 0.64297 0.0713732 0.642967
342 1 0.71473 0.428469 0.857817
208 1 0.785957 0.0713111 0.643017
209 1 0.857358 -1.74493e-05 0.571531
210 1 0.928755 0.0713127 0.64299
211 1 9.39287e-05 0.142634 0.571501
212 1 0.0714245 0.214041 0.642959
213 1 0.142755 0.142574 0.571482
214 1 0.214026 0.213897 0.642981
215 1 0.285525 0.14245 0.571445
216 1 0.356894 0.213715 0.642926
217 1 0.428565 0.142616 0.571411
218 1 0.500085 0.214355 0.642754
219 1 0.571491 0.142785 0.571426
220 1 0.643234 0.213645 0.643068
221 1 0.71459 0.142456 0.571492
222 1 0.786233 0.213788 0.643111
223 1 0.857421 0.142575 0.571516
224 1 0.928852 0.214016 0.643011
225 1 0.000133536 0.285453 0.571493
226 1 0.0714388 0.356983 0.64291
227 1 0.142583 0.285357 0.571458
228 1 0.213889 0.356905 0.642828
229 1 0.284958 0.284899 0.571507
230 1 0.355513 0.355505 0.643979
231 1 0.42808 0.285015 0.571286
232 1 0.498942 0.357698 0.643058
233 1 0.572097 0.285656 0.571271
234 1 0.646038 0.354573 0.645813
235 1 0.715244 0.284646 0.571542
236 1 0.787065 0.35642 0.643488
237 1 0.857711 0.285257 0.571543
238 1 0.929016 0.356935 0.643018
239 1 0.000141656 0.428458 0.571482
240 1 0.142766 0.428413 0.571395
241 1 0.285967 0.428461 0.571191
242 1 0.418867 0.425278 0.570618
243 1 0.581171 0.414327 0.570385
244 1 0.715648 0.426537 0.572479
245 1 0.857691 0.428367 0.571552
341 1 0.571654 0.428478 0.857501
247 1 0.0714892 0.0713266 0.785855
340 1 0.428337 0.428331 0.857762
249 1 0.214265 0.0712949 0.785839
339 1 0.285336 0.428359 0.857584
251 1 0.357164 0.0713466 0.785806
333 1 0.714667 0.285362 0.857722
253 1 0.500044 0.0714253 0.785847
254 1 0.571494 0.000138362 0.714468
255 1 0.642937 0.0714428 0.785905
256 1 0.714484 0.000184487 0.714537
257 1 0.785938 0.0713742 0.785993
258 1 0.857387 6.42348e-05 0.714504
259 1 0.928757 0.0713547 0.785922
260 1 0.000130079 0.142686 0.714435
261 1 0.0714544 0.214091 0.785863
262 1 0.142814 0.142646 0.714408
263 1 0.214065 0.21392 0.785953
264 1 0.285615 0.142557 0.714405
265 1 0.357002 0.213889 0.78592
266 1 0.428627 0.142701 0.71432
267 1 0.500045 0.2141 0.785871
268 1 0.571469 0.142773 0.714389
269 1 0.643001 0.214039 0.785979
270 1 0.714561 0.142539 0.714555
271 1 0.786233 0.213802 0.786253
272 1 0.857435 0.142634 0.714517
273 1 0.928857 0.214048 0.785982
274 1 0.000191637 0.285518 0.714446
275 1 0.071403 0.356978 0.785892
276 1 0.142707 0.285483 0.714395
277 1 0.213827 0.356774 0.786059
278 1 0.28508 0.284985 0.714777
279 1 0.356215 0.356189 0.786757
280 1 0.428372 0.285008 0.714562
281 1 0.50013 0.357004 0.785971
282 1 0.571424 0.285362 0.714452
283 1 0.643604 0.356549 0.786831
284 1 0.715522 0.28455 0.715423
285 1 0.786515 0.356667 0.786481
286 1 0.857786 0.285301 0.714704
287 1 0.928915 0.356964 0.786012
288 1 0.000198987 0.428478 0.714464
289 1 0.142598 0.428439 0.714444
290 1 0.284564 0.428046 0.715
291 1 0.425789 0.426092 0.716283
292 1 0.57359 0.427206 0.714821
293 1 0.716128 0.427839 0.715812
294 1 0.857874 0.428446 0.714701
295 1 0.000126131 1.65802e-06 0.857339
296 1 0.0714518 0.0713158 0.9287
338 1 0.142698 0.428431 0.857366
298 1 0.214265 0.0712977 0.928665
332 1 0.642994 0.357004 0.928934
300 1 0.357152 0.0713429 0.928643
301 1 0.428592 4.94673e-05 0.857298
302 1 0.500026 0.0713858 0.928679
303 1 0.571479 9.69571e-05 0.85736
304 1 0.642908 0.0714044 0.928739
305 1 0.714403 0.000119614 0.85742
306 1 0.785816 0.071387 0.928793
307 1 0.857361 9.49601e-05 0.857452
308 1 0.928697 0.0713565 0.928784
309 1 0.000110265 0.142706 0.857324
310 1 0.0714013 0.214094 0.928694
311 1 0.142809 0.142653 0.857287
312 1 0.214137 0.214002 0.928699
313 1 0.285653 0.142632 0.857273
314 1 0.357112 0.21408 0.928631
315 1 0.428592 0.142738 0.857233
316 1 0.500026 0.214139 0.928649
317 1 0.571481 0.142773 0.85729
318 1 0.642923 0.214148 0.928738
319 1 0.714413 0.14273 0.857386
320 1 0.785898 0.214077 0.928876
321 1 0.857385 0.142668 0.857451
322 1 0.928704 0.214106 0.928788
323 1 0.00010275 0.285535 0.857345
324 1 0.0713888 0.356986 0.928716
325 1 0.142703 0.285464 0.857331
326 1 0.214088 0.356928 0.928732
327 1 0.285359 0.28525 0.857543
328 1 0.35697 0.35689 0.928836
329 1 0.428574 0.285495 0.85731
330 1 0.500049 0.357017 0.928697
331 1 0.571498 0.28553 0.857361
178 1 0.35709 0.0711348 0.499996
518 1 0.92864 0.499942 0.500101
179 1 0.500035 0.0713063 0.500011
344 1 0.0713189 0.499916 0.0714615
511 1 0.85738 0.857266 0.428579
539 1 0.928735 0.928587 0.500058
538 1 0.785948 0.928681 0.500072
154 1 0.85729 0.9999 0.428584
153 1 0.714402 0.999914 0.428585
510 1 0.714575 0.857513 0.428499
152 1 0.571459 0.999892 0.428603
352 1 0.0713501 0.642848 0.0715166
151 1 0.428593 0.999848 0.428595
354 1 0.214118 0.64287 0.0714505
355 1 0.285538 0.571418 0.000153305
356 1 0.357021 0.642879 0.0714508
357 1 0.428515 0.571427 0.000225509
358 1 0.499989 0.642847 0.0715794
359 1 0.57147 0.571428 0.000308033
360 1 0.642872 0.642831 0.0717119
361 1 0.714411 0.571411 0.000412662
362 1 0.785787 0.642836 0.0717113
363 1 0.857292 0.571405 0.000331959
364 1 0.928613 0.642842 0.0716177
150 1 0.285643 0.999811 0.428562
366 1 0.0713851 0.785737 0.0715384
148 1 5.02279e-05 0.999878 0.42859
368 1 0.214169 0.785789 0.0714843
369 1 0.285574 0.714402 0.000225564
370 1 0.357106 0.785755 0.0715209
371 1 0.428557 0.714367 0.000248726
372 1 0.500003 0.785752 0.0715958
373 1 0.571473 0.714384 0.000352284
374 1 0.642892 0.785757 0.07168
375 1 0.714437 0.714401 0.000510621
376 1 0.785806 0.785771 0.0717122
377 1 0.857315 0.714361 0.000389052
378 1 0.928635 0.785743 0.0716302
379 1 7.01911e-05 0.857197 0.000221208
380 1 0.0714111 0.928544 0.0715092
381 1 0.14281 0.857208 0.000161767
382 1 0.214256 0.928534 0.071476
109 1 0.714321 0.999866 0.285716
384 1 0.357137 0.928533 0.0714916
385 1 0.428571 0.857208 0.000192743
386 1 0.500011 0.928548 0.0715404
107 1 0.571441 0.999843 0.285704
388 1 0.642885 0.928567 0.0715923
389 1 0.714377 0.857258 0.000339334
390 1 0.785762 0.928579 0.0716152
391 1 0.857306 0.85727 0.000350296
392 1 0.928629 0.928575 0.0715842
509 1 0.571471 0.857224 0.42865
149 1 0.142795 0.999841 0.428571
534 1 0.214218 0.928553 0.500032
532 1 0.928815 0.785842 0.500071
531 1 0.786228 0.786123 0.500053
530 1 0.643364 0.78652 0.499939
508 1 0.428608 0.857276 0.428619
400 1 0.999928 0.571376 0.142891
401 1 0.0712596 0.642842 0.214226
402 1 0.142636 0.571387 0.142763
403 1 0.213939 0.642908 0.214022
404 1 0.285439 0.57138 0.142631
405 1 0.356777 0.643008 0.213744
406 1 0.428423 0.571347 0.142655
407 1 0.49995 0.642805 0.214196
408 1 0.571355 0.571301 0.142971
409 1 0.64279 0.64276 0.214271
410 1 0.714273 0.571323 0.142995
411 1 0.78576 0.642806 0.214291
412 1 0.857174 0.57137 0.142956
413 1 0.928567 0.642825 0.214312
414 1 0.999961 0.714278 0.142931
415 1 0.0713072 0.785744 0.214252
416 1 0.142694 0.714317 0.142823
417 1 0.214007 0.785885 0.214072
418 1 0.285505 0.71439 0.142695
419 1 0.357049 0.785795 0.214175
420 1 0.42853 0.714301 0.142851
421 1 0.499983 0.78574 0.214273
422 1 0.571416 0.714281 0.14296
423 1 0.64287 0.78572 0.214333
424 1 0.714312 0.714271 0.143005
425 1 0.785818 0.785772 0.214272
426 1 0.857191 0.714279 0.142989
427 1 0.928617 0.785735 0.214305
428 1 0.999994 0.857138 0.14292
429 1 0.0713782 0.928509 0.214269
430 1 0.14275 0.857168 0.142841
431 1 0.214193 0.92851 0.214222
432 1 0.285654 0.857151 0.142847
433 1 0.357114 0.928486 0.214257
434 1 0.428559 0.85713 0.142902
435 1 0.500003 0.92849 0.214302
436 1 0.57144 0.857132 0.142964
437 1 0.642874 0.928508 0.214338
438 1 0.714314 0.857141 0.142996
439 1 0.785755 0.928529 0.214329
440 1 0.857207 0.857164 0.142966
441 1 0.928629 0.928534 0.214293
111 1 0.857237 0.999876 0.285675
103 1 0.285631 0.99978 0.285635
527 1 0.214048 0.785907 0.499985
507 1 0.285568 0.857312 0.42853
526 1 0.07141 0.785782 0.500039
99 1 6.85965e-06 0.999858 0.285699
524 1 0.786715 0.643248 0.499975
449 1 0.999903 0.571374 0.285649
450 1 0.0711949 0.642853 0.357063
451 1 0.142476 0.571384 0.285474
452 1 0.213519 0.643115 0.356683
453 1 0.285049 0.571425 0.285057
454 1 0.355421 0.644293 0.355328
455 1 0.427972 0.571572 0.284713
456 1 0.500134 0.642947 0.356802
457 1 0.571222 0.571104 0.285776
458 1 0.643015 0.643079 0.356373
459 1 0.714322 0.571255 0.285552
460 1 0.78621 0.64311 0.356766
461 1 0.857245 0.571377 0.285645
462 1 0.928669 0.642838 0.357128
463 1 0.999947 0.714291 0.285692
464 1 0.0713328 0.785752 0.357111
465 1 0.142516 0.714402 0.285527
466 1 0.213923 0.785975 0.356908
467 1 0.285026 0.714816 0.285036
468 1 0.356897 0.786119 0.35691
469 1 0.428488 0.714457 0.285465
470 1 0.50002 0.785868 0.357062
471 1 0.571395 0.714368 0.285595
472 1 0.642899 0.785861 0.357073
473 1 0.714473 0.714419 0.285451
474 1 0.78622 0.786168 0.356786
475 1 0.857327 0.714373 0.285619
476 1 0.928741 0.785789 0.357109
477 1 1.65846e-05 0.85714 0.285703
478 1 0.0713999 0.9285 0.357141
479 1 0.142708 0.857184 0.285633
480 1 0.21418 0.928523 0.357098
481 1 0.285561 0.857256 0.285588
482 1 0.357111 0.928529 0.357126
483 1 0.428552 0.857164 0.285679
484 1 0.500021 0.928516 0.357156
485 1 0.571444 0.857153 0.285723
486 1 0.642893 0.92854 0.357173
487 1 0.714344 0.857178 0.285713
488 1 0.785874 0.928626 0.3571
489 1 0.857323 0.857247 0.285632
490 1 0.928667 0.928534 0.357146
491 1 0.999952 0.571355 0.428581
492 1 0.142385 0.571365 0.4284
493 1 0.284171 0.571782 0.427596
494 1 0.424418 0.576199 0.42509
495 1 0.572163 0.571307 0.428767
496 1 0.715444 0.572111 0.427452
497 1 0.857436 0.571339 0.428579
498 1 5.74416e-05 0.714316 0.428592
499 1 0.142568 0.714379 0.428507
500 1 0.284873 0.715021 0.427985
501 1 0.428395 0.71512 0.428251
502 1 0.571277 0.714523 0.428574
503 1 0.715665 0.71564 0.427442
504 1 0.857618 0.714489 0.428491
505 1 6.71353e-05 0.857159 0.428599
506 1 0.142762 0.857173 0.428566
3 1 0.14285 0.999929 9.02992e-05
105 1 0.428558 0.999802 0.285668
101 1 0.142762 0.999817 0.285655
62 1 0.857171 0.99991 0.14292
50 1 7.44107e-07 0.99989 0.142879
54 1 0.285677 0.999843 0.142817
60 1 0.714306 0.999908 0.142928
523 1 0.646409 0.645699 0.495965
519 1 0.0713488 0.642855 0.500035
521 1 0.355293 0.644704 0.498468
522 1 0.498894 0.642996 0.500114
1 1 5.45846e-05 0.999961 0.00015173
52 1 0.142791 0.999851 0.142821
56 1 0.428566 0.999861 0.142849
58 1 0.571441 0.999887 0.142897
7 1 0.428583 0.999959 8.99921e-05
5 1 0.285712 0.999934 6.63827e-05
387 1 0.571463 0.857235 0.000269474
383 1 0.285682 0.857204 0.000153539
520 1 0.213766 0.642966 0.499942
367 1 0.142769 0.714339 0.000172385
533 1 0.0714524 0.928537 0.500047
365 1 5.40978e-05 0.71432 0.000232484
353 1 0.142735 0.571402 0.000124184
351 1 2.82631e-05 0.571395 0.000196722
299 1 0.285717 1 0.857275
252 1 0.428625 1.00006 0.714398
692 3 0.503768 0.542525 0.564427
689 2 0.532074 0.555669 0.51955
686 1 0.928765 0.928695 0.928886
205 1 0.571493 1.00006 0.571534
297 1 0.142875 0.999974 0.857292
250 1 0.285714 0.999985 0.714392
687 2 0.535799 0.501242 0.563063
248 1 0.14288 0.999955 0.714407
246 1 0.000140353 0.999983 0.71444
199 1 0.142844 0.999899 0.571496
203 1 0.428627 0.999955 0.571499
688 2 0.470573 0.503906 0.572144
201 1 0.285678 0.999903 0.571483
691 3 0.563908 0.513982 0.523267
693 3 0.566512 0.502805 0.600102
197 1 0.000106608 0.999931 0.571512
673 1 0.000201245 0.857296 0.857448
672 1 0.928811 0.785871 0.928969
671 1 0.857698 0.714599 0.857822
543 1 0.495996 0.500819 0.660901
670 1 0.786068 0.786035 0.929239
669 1 0.714954 0.714909 0.858357
668 1 0.642985 0.785968 0.929097
667 1 0.571558 0.714685 0.857823
666 1 0.500022 0.78591 0.92896
665 1 0.428509 0.714621 0.857692
592 1 0.499862 0.500155 0.786916
644 1 0.928751 0.499934 0.928885
685 1 0.85762 0.857565 0.85774
684 1 0.785874 0.928734 0.928924
658 1 0.928787 0.642907 0.928948
683 1 0.714548 0.857552 0.85771
664 1 0.357083 0.785891 0.928886
547 1 0.000122977 0.571402 0.571507
548 1 0.07145 0.64288 0.642949
549 1 0.142788 0.571376 0.57141
550 1 0.213765 0.642984 0.642945
551 1 0.285882 0.571307 0.571279
552 1 0.354841 0.645007 0.644824
553 1 0.416044 0.574875 0.572034
554 1 0.4981 0.643181 0.644204
555 1 0.586427 0.591915 0.577641
556 1 0.64907 0.648401 0.650219
557 1 0.71483 0.573374 0.572502
558 1 0.787233 0.643655 0.643799
559 1 0.857506 0.571544 0.57162
560 1 0.929066 0.64298 0.64308
561 1 0.000164604 0.714387 0.571536
562 1 0.071485 0.785827 0.642993
563 1 0.142667 0.714426 0.571482
564 1 0.214077 0.785948 0.64301
565 1 0.28514 0.714786 0.571472
566 1 0.356914 0.786286 0.643084
567 1 0.428333 0.714467 0.571599
568 1 0.500005 0.78602 0.643215
569 1 0.572663 0.715547 0.572303
570 1 0.643691 0.787083 0.643799
571 1 0.715194 0.715275 0.5717
572 1 0.78649 0.786406 0.643249
573 1 0.857696 0.714626 0.571636
574 1 0.928961 0.785944 0.643069
575 1 0.000148014 0.857221 0.571526
576 1 0.0715022 0.928589 0.642973
577 1 0.142816 0.857214 0.571503
578 1 0.214252 0.928616 0.642963
579 1 0.285584 0.857335 0.571507
580 1 0.357151 0.928684 0.642962
581 1 0.428626 0.857253 0.571577
582 1 0.500073 0.928717 0.64303
583 1 0.571638 0.857487 0.57171
584 1 0.643059 0.928958 0.643113
585 1 0.714695 0.857602 0.571638
586 1 0.786037 0.928838 0.643076
587 1 0.857499 0.857384 0.571562
588 1 0.928803 0.928665 0.643015
663 1 0.285276 0.714752 0.857811
662 1 0.21413 0.785912 0.92889
682 1 0.642929 0.928709 0.92887
681 1 0.571493 0.857453 0.857581
680 1 0.500021 0.928671 0.9288
679 1 0.428541 0.857387 0.857476
678 1 0.357139 0.928639 0.928745
596 1 0.000239677 0.571431 0.714512
597 1 0.0714418 0.642922 0.785979
598 1 0.142583 0.57142 0.714489
599 1 0.213784 0.643121 0.786187
600 1 0.284461 0.571743 0.715077
601 1 0.356019 0.643937 0.787175
602 1 0.425292 0.574194 0.716737
603 1 0.500035 0.643302 0.786505
604 1 0.573912 0.57356 0.715825
605 1 0.644045 0.643978 0.787512
606 1 0.716572 0.571891 0.716348
607 1 0.786847 0.643377 0.786886
608 1 0.858021 0.571535 0.714843
609 1 0.929061 0.642989 0.786163
610 1 0.000293364 0.714415 0.714529
611 1 0.0715001 0.785859 0.78597
612 1 0.142674 0.714437 0.714498
613 1 0.213985 0.786088 0.786139
614 1 0.284816 0.715166 0.715136
615 1 0.356876 0.786262 0.786229
616 1 0.428099 0.715404 0.71518
617 1 0.49996 0.786252 0.786347
618 1 0.571295 0.71546 0.715373
619 1 0.643163 0.786476 0.786582
620 1 0.717027 0.716964 0.717084
621 1 0.786846 0.786802 0.786949
622 1 0.85817 0.71481 0.714952
623 1 0.929071 0.78602 0.786167
624 1 0.000207257 0.857274 0.714489
625 1 0.0715169 0.928626 0.785892
626 1 0.142842 0.85726 0.714452
627 1 0.214257 0.928674 0.785893
628 1 0.285592 0.857442 0.714512
629 1 0.357136 0.928739 0.785905
630 1 0.428574 0.857505 0.714567
631 1 0.500035 0.9288 0.785989
632 1 0.571514 0.857625 0.714714
633 1 0.642983 0.928892 0.786074
634 1 0.714854 0.858049 0.714937
635 1 0.78607 0.928972 0.786159
636 1 0.857607 0.857512 0.714642
637 1 0.928829 0.92872 0.785987
661 1 0.142714 0.714446 0.857464
660 1 0.07145 0.785812 0.928829
659 1 0.000195453 0.714402 0.857481
677 1 0.285611 0.85738 0.857437
676 1 0.214266 0.928626 0.928742
675 1 0.142813 0.8573 0.857404
674 1 0.0714792 0.928619 0.92877
645 1 0.000159705 0.571426 0.857453
646 1 0.0714238 0.642887 0.928814
647 1 0.142703 0.571437 0.857422
648 1 0.214093 0.642945 0.928869
649 1 0.285306 0.571532 0.857683
650 1 0.356942 0.643042 0.929084
651 1 0.428293 0.57171 0.857977
652 1 0.500045 0.643 0.928997
653 1 0.571733 0.571703 0.857804
654 1 0.64308 0.643047 0.92928
655 1 0.714836 0.571557 0.858051
656 1 0.78606 0.642979 0.92921
657 1 0.857616 0.571469 0.857715
537 1 0.642992 0.928727 0.500107
536 1 0.500075 0.928573 0.500114
535 1 0.357141 0.928584 0.500067
529 1 0.500135 0.785819 0.500276
528 1 0.356953 0.786168 0.500014
525 1 0.928851 0.642914 0.500093
