ITEM: TIMESTEP
10
ITEM: NUMBER OF ATOMS
689
ITEM: BOX BOUNDS pp pp pp
0.0000000000000000e+00 2.2013900999999997e+01
0.0000000000000000e+00 2.2013900999999997e+01
0.0000000000000000e+00 2.2013900999999997e+01
ITEM: ATOMS id type xs ys zs
1 1 0.999999 9.77611e-07 9.77611e-07
2 1 0.0714225 0.0714223 0.0714223
3 1 0.142855 1.58526e-06 1.58526e-06
4 1 0.214282 0.0714172 0.0714172
5 1 0.285714 2.0687e-06 2.0687e-06
6 1 0.357144 0.0714187 0.0714187
7 1 0.428572 2.31307e-06 2.31307e-06
8 1 0.500002 0.0714212 0.0714212
9 1 0.571429 2.32217e-06 2.32217e-06
10 1 0.642858 0.0714225 0.0714225
11 1 0.714287 1.93442e-06 1.93442e-06
12 1 0.785717 0.0714226 0.0714226
13 1 0.857144 1.19577e-06 1.19577e-06
14 1 0.928573 0.0714251 0.0714251
445 1 0.499805 0.499889 0.353483
16 1 0.0714172 0.214281 0.0714156
396 1 0.499975 0.499961 0.213735
18 1 0.21426 0.214259 0.0713661
155 1 0.999996 0.142845 0.428574
20 1 0.357149 0.214259 0.0713795
156 1 0.142814 0.142812 0.428581
22 1 0.500004 0.214268 0.0714006
157 1 0.285652 0.142721 0.428579
24 1 0.642856 0.214268 0.0713968
158 1 0.428545 0.14274 0.428537
26 1 0.78573 0.214269 0.0713909
159 1 0.571452 0.142763 0.428538
28 1 0.928576 0.214282 0.0714203
160 1 0.714328 0.142758 0.428579
30 1 0.0714177 0.357143 0.0714165
161 1 0.857171 0.142824 0.428577
32 1 0.214257 0.357145 0.0713743
162 1 0.999993 0.285695 0.428575
34 1 0.357137 0.357132 0.0713502
147 1 0.857268 0.428576 0.285631
36 1 0.500004 0.357132 0.0713898
146 1 0.714624 0.42852 0.285267
38 1 0.642864 0.357134 0.071375
145 1 0.571617 0.428323 0.285631
40 1 0.785733 0.357143 0.0713928
144 1 0.428143 0.428272 0.285561
42 1 0.928576 0.357143 0.0714201
143 1 0.285252 0.428484 0.285227
142 1 0.142707 0.428577 0.285632
141 1 0.999993 0.428575 0.285695
140 1 0.928655 0.357119 0.357119
139 1 0.857345 0.285622 0.285622
138 1 0.786331 0.356777 0.356777
137 1 0.715409 0.284553 0.284553
687 3 0.499146 0.458398 0.458398
51 1 0.0714172 0.0714156 0.214281
175 1 0.857409 0.428512 0.428512
53 1 0.21426 0.0713661 0.214259
174 1 0.715883 0.42727 0.42727
55 1 0.357149 0.0713795 0.214259
173 1 0.578963 0.424622 0.424622
57 1 0.500004 0.0714006 0.214268
172 1 0.420834 0.425144 0.425144
59 1 0.642856 0.0713968 0.214268
171 1 0.284432 0.42765 0.42765
61 1 0.78573 0.0713909 0.214269
170 1 0.142612 0.428522 0.428522
63 1 0.928576 0.0714203 0.214282
64 1 0.999995 0.142849 0.142849
65 1 0.0713682 0.214257 0.214257
66 1 0.142802 0.1428 0.1428
67 1 0.213956 0.213951 0.213951
68 1 0.285706 0.142797 0.142797
69 1 0.357149 0.214109 0.214109
70 1 0.428582 0.142821 0.142821
71 1 0.500009 0.2142 0.2142
72 1 0.571429 0.142829 0.142829
73 1 0.642849 0.214159 0.214159
74 1 0.714292 0.14282 0.14282
75 1 0.785905 0.214089 0.214089
76 1 0.857173 0.142825 0.142825
77 1 0.928605 0.214264 0.214264
78 1 0.999994 0.285712 0.142844
79 1 0.0713763 0.357145 0.214252
80 1 0.142795 0.285702 0.142792
81 1 0.214093 0.357129 0.214077
82 1 0.285638 0.285633 0.142612
83 1 0.356956 0.356947 0.213766
84 1 0.428589 0.285663 0.142755
85 1 0.499978 0.357077 0.214157
86 1 0.571418 0.285676 0.14278
87 1 0.642974 0.356999 0.213853
88 1 0.714337 0.285658 0.142684
89 1 0.785854 0.357131 0.214117
90 1 0.857181 0.285705 0.142813
91 1 0.928603 0.357143 0.214258
92 1 0.999996 0.428574 0.142845
93 1 0.142814 0.428581 0.142812
94 1 0.285652 0.428579 0.142721
95 1 0.428545 0.428537 0.14274
96 1 0.571452 0.428538 0.142763
97 1 0.714328 0.428579 0.142758
98 1 0.857171 0.428577 0.142824
169 1 0.999997 0.428564 0.428564
100 1 0.0714177 0.0714165 0.357143
168 1 0.857268 0.285631 0.428576
102 1 0.214257 0.0713743 0.357145
167 1 0.714624 0.285267 0.42852
104 1 0.357137 0.0713502 0.357132
166 1 0.571617 0.285631 0.428323
106 1 0.500004 0.0713898 0.357132
165 1 0.428143 0.285561 0.428272
108 1 0.642864 0.071375 0.357134
164 1 0.285252 0.285227 0.428484
110 1 0.785733 0.0713928 0.357143
163 1 0.142707 0.285632 0.428577
112 1 0.928576 0.0714201 0.357143
113 1 0.999994 0.142844 0.285712
114 1 0.0713763 0.214252 0.357145
115 1 0.142795 0.142792 0.285702
116 1 0.214093 0.214077 0.357129
117 1 0.285638 0.142612 0.285633
118 1 0.356956 0.213766 0.356947
119 1 0.428589 0.142755 0.285663
120 1 0.499978 0.214157 0.357077
121 1 0.571418 0.14278 0.285676
122 1 0.642974 0.213853 0.356999
123 1 0.714337 0.142684 0.285658
124 1 0.785854 0.214117 0.357131
125 1 0.857181 0.142813 0.285705
126 1 0.928603 0.214258 0.357143
127 1 0.99999 0.2857 0.2857
128 1 0.0713337 0.357123 0.357123
129 1 0.142599 0.285617 0.285617
130 1 0.213725 0.35686 0.35686
131 1 0.284488 0.284472 0.284472
132 1 0.35413 0.35398 0.35398
133 1 0.428548 0.285426 0.285426
134 1 0.499798 0.357186 0.357186
135 1 0.571378 0.285496 0.285496
136 1 0.64504 0.354726 0.354726
186 1 0.499975 0.213735 0.499961
193 1 0.499805 0.353483 0.499889
514 1 0.349663 0.499681 0.499681
516 1 0.652085 0.499356 0.499356
347 1 0.500003 0.499998 0.0713674
397 1 0.642931 0.499995 0.214056
179 1 0.500003 0.0713674 0.499998
187 1 0.642931 0.214056 0.499995
176 1 0.0714198 0.0714208 0.500002
177 1 0.214264 0.0713982 0.500005
178 1 0.357132 0.0713792 0.500002
49 1 0.85715 0.42857 0.999998
180 1 0.642868 0.0713937 0.5
181 1 0.78573 0.0714076 0.500003
182 1 0.928576 0.0714227 0.500001
183 1 0.0713955 0.21426 0.500008
184 1 0.214171 0.214161 0.50003
185 1 0.357022 0.213976 0.500006
644 1 0.928577 0.499997 0.928579
48 1 0.714296 0.428568 0.999994
188 1 0.785796 0.214181 0.50002
189 1 0.928593 0.214263 0.500006
190 1 0.0713577 0.35712 0.500012
191 1 0.2139 0.356966 0.500046
192 1 0.355955 0.356156 0.500921
643 1 0.785732 0.499991 0.928596
194 1 0.643675 0.356522 0.500609
195 1 0.786074 0.356942 0.500042
196 1 0.928639 0.357116 0.50001
197 1 0.999999 2.0741e-06 0.571428
198 1 0.0714219 0.0714259 0.642859
199 1 0.142845 5.77528e-06 0.571427
200 1 0.214269 0.0714154 0.642865
201 1 0.2857 1.24376e-05 0.571426
202 1 0.357133 0.071402 0.642873
203 1 0.428566 1.63041e-05 0.571429
204 1 0.500002 0.0714057 0.642872
205 1 0.571438 1.70784e-05 0.571428
206 1 0.642869 0.0714063 0.642869
207 1 0.714299 1.2696e-05 0.571425
208 1 0.785727 0.0714186 0.642862
209 1 0.857151 4.93709e-06 0.571427
210 1 0.928575 0.0714262 0.642859
211 1 0.999998 0.142849 0.571432
212 1 0.0714058 0.214268 0.642868
213 1 0.142828 0.142828 0.57144
214 1 0.214193 0.214186 0.642922
215 1 0.28567 0.142762 0.571454
216 1 0.357056 0.214051 0.642987
217 1 0.428542 0.142736 0.571474
218 1 0.499999 0.214108 0.642954
219 1 0.571461 0.142753 0.571467
220 1 0.642929 0.214071 0.642961
221 1 0.714318 0.142787 0.571441
222 1 0.785784 0.2142 0.642899
223 1 0.857163 0.142834 0.571435
224 1 0.928588 0.214269 0.642865
225 1 0.999997 0.285698 0.571437
226 1 0.07138 0.357125 0.642881
227 1 0.142748 0.285652 0.571461
228 1 0.213996 0.357002 0.643047
229 1 0.285352 0.285315 0.57165
230 1 0.356393 0.356481 0.643717
231 1 0.428359 0.285393 0.5716
232 1 0.499913 0.357019 0.643026
233 1 0.571547 0.285461 0.571539
234 1 0.643597 0.356431 0.643704
235 1 0.714544 0.285361 0.571566
236 1 0.786032 0.35695 0.643078
237 1 0.857235 0.285648 0.571453
238 1 0.928623 0.357121 0.642882
239 1 0.999999 0.42856 0.571444
240 1 0.142682 0.428526 0.571501
241 1 0.285008 0.427906 0.572283
242 1 0.426938 0.425482 0.573408
243 1 0.573044 0.425367 0.57345
244 1 0.715239 0.427539 0.572564
245 1 0.857332 0.428514 0.571502
246 1 0.999998 4.35329e-06 0.714286
247 1 0.0714242 0.0714295 0.785717
248 1 0.142844 1.71303e-05 0.714287
249 1 0.214277 0.0714296 0.785724
250 1 0.285703 3.60015e-05 0.714295
251 1 0.35714 0.0714283 0.785729
252 1 0.42857 3.60943e-05 0.714301
253 1 0.500001 0.0714273 0.785729
254 1 0.571433 3.36834e-05 0.7143
255 1 0.642861 0.0714272 0.785727
256 1 0.714298 2.70398e-05 0.714294
257 1 0.785722 0.0714271 0.785722
258 1 0.857152 1.03661e-05 0.714288
259 1 0.928574 0.0714286 0.785716
260 1 0.999999 0.142853 0.714289
261 1 0.0714182 0.214278 0.785723
262 1 0.142839 0.142841 0.714298
263 1 0.214247 0.214246 0.78576
264 1 0.285688 0.142804 0.714321
265 1 0.357131 0.214242 0.785771
266 1 0.42857 0.142811 0.714322
267 1 0.500001 0.214254 0.785758
268 1 0.571432 0.142815 0.714318
269 1 0.642868 0.214245 0.785764
270 1 0.714309 0.142809 0.714314
271 1 0.78575 0.214249 0.785755
272 1 0.857157 0.142843 0.714295
273 1 0.928581 0.214278 0.785723
274 1 1 0.285705 0.714297
275 1 0.0714133 0.357136 0.785729
276 1 0.142793 0.285678 0.71433
277 1 0.214237 0.357121 0.785781
278 1 0.285533 0.285526 0.714514
279 1 0.357108 0.357108 0.785881
280 1 0.428546 0.285566 0.714482
281 1 0.499997 0.357121 0.785824
282 1 0.571438 0.285575 0.71446
283 1 0.642887 0.357105 0.785876
284 1 0.714455 0.285526 0.714499
285 1 0.78576 0.357122 0.785783
286 1 0.857211 0.285669 0.714335
287 1 0.928585 0.357137 0.785729
288 1 0.999999 0.428565 0.714301
289 1 0.142792 0.42856 0.714335
290 1 0.285587 0.428588 0.714496
291 1 0.428544 0.42874 0.714203
292 1 0.571439 0.428707 0.714185
293 1 0.714387 0.428588 0.714504
294 1 0.857206 0.428562 0.714339
295 1 0.999998 4.34699e-06 0.857145
296 1 0.0714261 0.0714296 0.928572
297 1 0.142847 1.9253e-05 0.857153
298 1 0.214283 0.0714294 0.928574
299 1 0.285712 2.17409e-05 0.857157
300 1 0.357143 0.071429 0.928575
301 1 0.428572 1.78762e-05 0.857157
302 1 0.500001 0.0714288 0.928575
303 1 0.57143 1.60864e-05 0.857156
304 1 0.642858 0.0714288 0.928575
305 1 0.71429 1.45944e-05 0.857154
306 1 0.785716 0.0714288 0.928574
307 1 0.857149 9.67419e-06 0.857149
308 1 0.928572 0.071429 0.928572
309 1 1 0.142856 0.857145
310 1 0.0714253 0.214284 0.928572
311 1 0.14285 0.142853 0.857149
312 1 0.214279 0.214279 0.928574
313 1 0.28571 0.142848 0.857156
314 1 0.357142 0.214275 0.928578
315 1 0.428571 0.142847 0.857157
316 1 0.500001 0.214276 0.92858
317 1 0.57143 0.142847 0.857157
318 1 0.642859 0.214277 0.928579
319 1 0.71429 0.142848 0.857155
320 1 0.78572 0.21428 0.928577
321 1 0.857148 0.142853 0.857149
322 1 0.928573 0.214284 0.928573
323 1 0.999999 0.285712 0.857147
324 1 0.0714236 0.35714 0.928574
325 1 0.142844 0.285707 0.857156
326 1 0.214274 0.357137 0.92858
327 1 0.285696 0.285693 0.85719
328 1 0.357137 0.357132 0.928588
329 1 0.428572 0.285693 0.857184
330 1 0.500001 0.357132 0.928587
331 1 0.571429 0.285694 0.857181
332 1 0.642864 0.357133 0.92859
333 1 0.714303 0.285694 0.857188
334 1 0.785724 0.357138 0.928581
335 1 0.857154 0.285708 0.857156
336 1 0.928575 0.357141 0.928575
337 1 0.999999 0.428567 0.857151
338 1 0.142835 0.428559 0.857166
339 1 0.285689 0.428557 0.857195
340 1 0.428549 0.428543 0.857198
341 1 0.571453 0.428542 0.857194
342 1 0.714308 0.42856 0.857189
343 1 0.857161 0.428562 0.857164
642 1 0.642871 0.499985 0.928613
641 1 0.500002 0.499982 0.928637
540 1 0.0713751 0.499994 0.642878
546 1 0.928623 0.499995 0.642879
589 1 0.0713997 0.499988 0.785737
590 1 0.214193 0.499959 0.785816
591 1 0.357063 0.500007 0.785879
592 1 0.499996 0.500003 0.786114
593 1 0.642924 0.499997 0.785853
594 1 0.78579 0.499969 0.785803
595 1 0.928593 0.49999 0.785735
638 1 0.0714198 0.499996 0.92858
639 1 0.214265 0.499988 0.928599
640 1 0.35713 0.499984 0.928616
15 1 0.999999 0.142856 0.999998
17 1 0.142851 0.142852 0.999991
19 1 0.285713 0.142849 0.99999
21 1 0.428573 0.14285 0.999994
23 1 0.57143 0.142851 0.999996
25 1 0.714287 0.142852 0.999995
27 1 0.857146 0.142854 0.999996
29 1 0.999999 0.285713 0.999998
31 1 0.142848 0.285712 0.999989
33 1 0.285707 0.285705 0.999976
35 1 0.428575 0.285703 0.999985
37 1 0.57143 0.285705 0.999991
39 1 0.714292 0.285707 0.999987
41 1 0.857148 0.285712 0.999995
43 1 0.999999 0.428571 0.999999
44 1 0.142847 0.42857 0.999995
45 1 0.285703 0.428569 0.999987
46 1 0.428568 0.428562 0.99999
47 1 0.571436 0.428561 0.999994
344 1 0.0714198 0.500002 0.0714208
345 1 0.214264 0.500005 0.0713982
346 1 0.357132 0.500002 0.0713792
539 1 0.928577 0.928579 0.499997
348 1 0.642868 0.5 0.0713937
349 1 0.78573 0.500003 0.0714076
350 1 0.928576 0.500001 0.0714227
351 1 0.999999 0.571428 2.0741e-06
352 1 0.0714219 0.642859 0.0714259
353 1 0.142845 0.571427 5.77528e-06
354 1 0.214269 0.642865 0.0714154
355 1 0.2857 0.571426 1.24376e-05
356 1 0.357133 0.642873 0.071402
357 1 0.428566 0.571429 1.63041e-05
358 1 0.500002 0.642872 0.0714057
359 1 0.571438 0.571428 1.70784e-05
360 1 0.642869 0.642869 0.0714063
361 1 0.714299 0.571425 1.2696e-05
362 1 0.785727 0.642862 0.0714186
363 1 0.857151 0.571427 4.93709e-06
364 1 0.928575 0.642859 0.0714262
365 1 0.999998 0.714286 4.35329e-06
366 1 0.0714242 0.785717 0.0714295
367 1 0.142844 0.714287 1.71303e-05
368 1 0.214277 0.785724 0.0714296
369 1 0.285703 0.714295 3.60015e-05
370 1 0.35714 0.785729 0.0714283
371 1 0.42857 0.714301 3.60943e-05
372 1 0.500001 0.785729 0.0714273
373 1 0.571433 0.7143 3.36834e-05
374 1 0.642861 0.785727 0.0714272
375 1 0.714298 0.714294 2.70398e-05
376 1 0.785722 0.785722 0.0714271
377 1 0.857152 0.714288 1.03661e-05
378 1 0.928574 0.785716 0.0714286
379 1 0.999998 0.857145 4.34699e-06
380 1 0.0714261 0.928572 0.0714296
381 1 0.142847 0.857153 1.9253e-05
382 1 0.214283 0.928574 0.0714294
383 1 0.285712 0.857157 2.17409e-05
384 1 0.357143 0.928575 0.071429
385 1 0.428572 0.857157 1.78762e-05
386 1 0.500001 0.928575 0.0714288
387 1 0.57143 0.857156 1.60864e-05
388 1 0.642858 0.928575 0.0714288
389 1 0.71429 0.857154 1.45944e-05
390 1 0.785716 0.928574 0.0714288
391 1 0.857149 0.857149 9.67419e-06
392 1 0.928572 0.928572 0.071429
393 1 0.0713955 0.500008 0.21426
394 1 0.214171 0.50003 0.214161
395 1 0.357022 0.500006 0.213976
511 1 0.857161 0.857164 0.428562
538 1 0.785732 0.928596 0.499991
398 1 0.785796 0.50002 0.214181
399 1 0.928593 0.500006 0.214263
400 1 0.999998 0.571432 0.142849
401 1 0.0714058 0.642868 0.214268
402 1 0.142828 0.57144 0.142828
403 1 0.214193 0.642922 0.214186
404 1 0.28567 0.571454 0.142762
405 1 0.357056 0.642987 0.214051
406 1 0.428542 0.571474 0.142736
407 1 0.499999 0.642954 0.214108
408 1 0.571461 0.571467 0.142753
409 1 0.642929 0.642961 0.214071
410 1 0.714318 0.571441 0.142787
411 1 0.785784 0.642899 0.2142
412 1 0.857163 0.571435 0.142834
413 1 0.928588 0.642865 0.214269
414 1 0.999999 0.714289 0.142853
415 1 0.0714182 0.785723 0.214278
416 1 0.142839 0.714298 0.142841
417 1 0.214247 0.78576 0.214246
418 1 0.285688 0.714321 0.142804
419 1 0.357131 0.785771 0.214242
420 1 0.42857 0.714322 0.142811
421 1 0.500001 0.785758 0.214254
422 1 0.571432 0.714318 0.142815
423 1 0.642868 0.785764 0.214245
424 1 0.714309 0.714314 0.142809
425 1 0.78575 0.785755 0.214249
426 1 0.857157 0.714295 0.142843
427 1 0.928581 0.785723 0.214278
428 1 1 0.857145 0.142856
429 1 0.0714253 0.928572 0.214284
430 1 0.14285 0.857149 0.142853
431 1 0.214279 0.928574 0.214279
432 1 0.28571 0.857156 0.142848
433 1 0.357142 0.928578 0.214275
434 1 0.428571 0.857157 0.142847
435 1 0.500001 0.92858 0.214276
436 1 0.57143 0.857157 0.142847
437 1 0.642859 0.928579 0.214277
438 1 0.71429 0.857155 0.142848
439 1 0.78572 0.928577 0.21428
440 1 0.857148 0.857149 0.142853
441 1 0.928573 0.928573 0.214284
442 1 0.0713577 0.500012 0.35712
443 1 0.2139 0.500046 0.356966
444 1 0.355955 0.500921 0.356156
510 1 0.714308 0.857189 0.42856
446 1 0.643675 0.500609 0.356522
447 1 0.786074 0.500042 0.356942
448 1 0.928639 0.50001 0.357116
449 1 0.999997 0.571437 0.285698
450 1 0.07138 0.642881 0.357125
451 1 0.142748 0.571461 0.285652
452 1 0.213996 0.643047 0.357002
453 1 0.285352 0.57165 0.285315
454 1 0.356393 0.643717 0.356481
455 1 0.428359 0.5716 0.285393
456 1 0.499913 0.643026 0.357019
457 1 0.571547 0.571539 0.285461
458 1 0.643597 0.643704 0.356431
459 1 0.714544 0.571566 0.285361
460 1 0.786032 0.643078 0.35695
461 1 0.857235 0.571453 0.285648
462 1 0.928623 0.642882 0.357121
463 1 1 0.714297 0.285705
464 1 0.0714133 0.785729 0.357136
465 1 0.142793 0.71433 0.285678
466 1 0.214237 0.785781 0.357121
467 1 0.285533 0.714514 0.285526
468 1 0.357108 0.785881 0.357108
469 1 0.428546 0.714482 0.285566
470 1 0.499997 0.785824 0.357121
471 1 0.571438 0.71446 0.285575
472 1 0.642887 0.785876 0.357105
473 1 0.714455 0.714499 0.285526
474 1 0.78576 0.785783 0.357122
475 1 0.857211 0.714335 0.285669
476 1 0.928585 0.785729 0.357137
477 1 0.999999 0.857147 0.285712
478 1 0.0714236 0.928574 0.35714
479 1 0.142844 0.857156 0.285707
480 1 0.214274 0.92858 0.357137
481 1 0.285696 0.85719 0.285693
482 1 0.357137 0.928588 0.357132
483 1 0.428572 0.857184 0.285693
484 1 0.500001 0.928587 0.357132
485 1 0.571429 0.857181 0.285694
486 1 0.642864 0.92859 0.357133
487 1 0.714303 0.857188 0.285694
488 1 0.785724 0.928581 0.357138
489 1 0.857154 0.857156 0.285708
490 1 0.928575 0.928575 0.357141
491 1 0.999999 0.571444 0.42856
492 1 0.142682 0.571501 0.428526
493 1 0.285008 0.572283 0.427906
494 1 0.426938 0.573408 0.425482
495 1 0.573044 0.57345 0.425367
496 1 0.715239 0.572564 0.427539
497 1 0.857332 0.571502 0.428514
498 1 0.999999 0.714301 0.428565
499 1 0.142792 0.714335 0.42856
500 1 0.285587 0.714496 0.428588
501 1 0.428544 0.714203 0.42874
502 1 0.571439 0.714185 0.428707
503 1 0.714387 0.714504 0.428588
504 1 0.857206 0.714339 0.428562
505 1 0.999999 0.857151 0.428567
506 1 0.142835 0.857166 0.428559
507 1 0.285689 0.857195 0.428557
508 1 0.428549 0.857198 0.428543
509 1 0.571453 0.857194 0.428542
50 1 0.999999 0.999998 0.142856
52 1 0.142851 0.999991 0.142852
54 1 0.285713 0.99999 0.142849
56 1 0.428573 0.999994 0.14285
58 1 0.57143 0.999996 0.142851
60 1 0.714287 0.999995 0.142852
62 1 0.857146 0.999996 0.142854
99 1 0.999999 0.999998 0.285713
101 1 0.142848 0.999989 0.285712
103 1 0.285707 0.999976 0.285705
105 1 0.428575 0.999985 0.285703
107 1 0.57143 0.999991 0.285705
109 1 0.714292 0.999987 0.285707
111 1 0.857148 0.999995 0.285712
148 1 0.999999 0.999999 0.428571
149 1 0.142847 0.999995 0.42857
150 1 0.285703 0.999987 0.428569
151 1 0.428568 0.99999 0.428562
152 1 0.571436 0.999994 0.428561
153 1 0.714296 0.999994 0.428568
154 1 0.85715 0.999998 0.42857
519 1 0.0713751 0.642878 0.499994
525 1 0.928623 0.642879 0.499995
526 1 0.0713997 0.785737 0.499988
527 1 0.214193 0.785816 0.499959
528 1 0.357063 0.785879 0.500007
529 1 0.499996 0.786114 0.500003
530 1 0.642924 0.785853 0.499997
531 1 0.78579 0.785803 0.499969
532 1 0.928593 0.785735 0.49999
533 1 0.0714198 0.92858 0.499996
534 1 0.214265 0.928599 0.499988
535 1 0.35713 0.928616 0.499984
536 1 0.500002 0.928637 0.499982
537 1 0.642871 0.928613 0.499985
512 1 0.0713338 0.500005 0.500005
513 1 0.213482 0.500055 0.500055
689 3 0.501211 0.504427 0.504427
515 1 0.928575 0.928579 0.928579
688 3 0.44039 0.513933 0.513933
517 1 0.786528 0.500035 0.500035
518 1 0.928667 0.500005 0.500005
670 1 0.785744 0.78574 0.928635
520 1 0.214066 0.642991 0.500039
521 1 0.356963 0.642848 0.50031
522 1 0.499956 0.644633 0.500535
523 1 0.642978 0.642672 0.500258
524 1 0.785931 0.642992 0.50003
669 1 0.714386 0.714362 0.857404
668 1 0.642868 0.785753 0.92865
667 1 0.571466 0.714382 0.857393
666 1 0.500003 0.785754 0.928648
665 1 0.428539 0.71439 0.857411
664 1 0.357136 0.785759 0.928664
663 1 0.285587 0.71439 0.857462
662 1 0.214245 0.785752 0.928676
661 1 0.142769 0.71429 0.857232
660 1 0.0714087 0.78572 0.928594
659 1 0.999992 0.714286 0.857161
658 1 0.928579 0.642855 0.928584
657 1 0.857179 0.571415 0.857182
656 1 0.785744 0.642851 0.928623
655 1 0.714344 0.571403 0.857257
686 3 0.562132 0.513195 0.513195
541 1 0.214066 0.500039 0.642991
542 1 0.356963 0.50031 0.642848
543 1 0.499956 0.500535 0.644633
544 1 0.642978 0.500258 0.642672
545 1 0.785931 0.50003 0.642992
685 1 0.857199 0.8572 0.8572
547 1 0.999998 0.571435 0.571435
548 1 0.0713319 0.64287 0.64287
549 1 0.142683 0.571481 0.571481
550 1 0.213623 0.643151 0.643151
551 1 0.285225 0.572259 0.572259
552 1 0.354142 0.645817 0.645817
553 1 0.425783 0.578431 0.578431
554 1 0.499936 0.645732 0.645732
555 1 0.573332 0.577541 0.577541
556 1 0.645929 0.645844 0.645844
557 1 0.714942 0.572425 0.572425
558 1 0.786308 0.643131 0.643131
559 1 0.857319 0.571483 0.571483
560 1 0.928654 0.642872 0.642872
561 1 0.999995 0.714303 0.57142
562 1 0.0713671 0.785751 0.642849
563 1 0.142718 0.714363 0.571411
564 1 0.214042 0.785956 0.642872
565 1 0.285308 0.714751 0.571489
566 1 0.356861 0.786332 0.643076
567 1 0.428279 0.714862 0.571894
568 1 0.499996 0.786339 0.643091
569 1 0.571633 0.714828 0.571793
570 1 0.643096 0.786253 0.64303
571 1 0.714611 0.714695 0.571461
572 1 0.785906 0.785909 0.642852
573 1 0.857262 0.714358 0.571411
574 1 0.928615 0.785746 0.642851
575 1 0.999997 0.857157 0.571423
576 1 0.0714142 0.928588 0.642854
577 1 0.14281 0.857191 0.57141
578 1 0.21425 0.928637 0.642849
579 1 0.285646 0.85728 0.571405
580 1 0.357123 0.92868 0.64286
581 1 0.428531 0.857324 0.571427
582 1 0.500003 0.92868 0.642865
583 1 0.571471 0.857313 0.571424
584 1 0.642879 0.928668 0.642859
585 1 0.714344 0.857257 0.571403
586 1 0.785744 0.928623 0.642851
587 1 0.857179 0.857182 0.571415
588 1 0.928579 0.928584 0.642855
684 1 0.785721 0.928585 0.928585
683 1 0.714318 0.857223 0.857223
682 1 0.64286 0.928588 0.928588
681 1 0.571437 0.857219 0.857219
680 1 0.500002 0.92859 0.92859
679 1 0.428572 0.857225 0.857225
678 1 0.357143 0.928592 0.928592
596 1 0.999995 0.57142 0.714303
597 1 0.0713671 0.642849 0.785751
598 1 0.142718 0.571411 0.714363
599 1 0.214042 0.642872 0.785956
600 1 0.285308 0.571489 0.714751
601 1 0.356861 0.643076 0.786332
602 1 0.428279 0.571894 0.714862
603 1 0.499996 0.643091 0.786339
604 1 0.571633 0.571793 0.714828
605 1 0.643096 0.64303 0.786253
606 1 0.714611 0.571461 0.714695
607 1 0.785906 0.642852 0.785909
608 1 0.857262 0.571411 0.714358
609 1 0.928615 0.642851 0.785746
610 1 0.999989 0.714299 0.714299
611 1 0.071331 0.785753 0.785753
612 1 0.142545 0.714399 0.714399
613 1 0.213719 0.786267 0.786267
614 1 0.284087 0.715861 0.715861
615 1 0.357004 0.786057 0.786057
616 1 0.427974 0.715363 0.715363
617 1 0.500012 0.78597 0.78597
618 1 0.572025 0.715321 0.715321
619 1 0.64298 0.786008 0.786008
620 1 0.715606 0.715557 0.715557
621 1 0.786085 0.786071 0.786071
622 1 0.857399 0.714376 0.714376
623 1 0.928624 0.785743 0.785743
624 1 0.999992 0.857161 0.714286
625 1 0.0714087 0.928594 0.78572
626 1 0.142769 0.857232 0.71429
627 1 0.214245 0.928676 0.785752
628 1 0.285587 0.857462 0.71439
629 1 0.357136 0.928664 0.785759
630 1 0.428539 0.857411 0.71439
631 1 0.500003 0.928648 0.785754
632 1 0.571466 0.857393 0.714382
633 1 0.642868 0.92865 0.785753
634 1 0.714386 0.857404 0.714362
635 1 0.785744 0.928635 0.78574
636 1 0.857204 0.857206 0.714295
637 1 0.92858 0.928585 0.785719
677 1 0.285687 0.857249 0.857249
676 1 0.214278 0.928594 0.928594
675 1 0.142757 0.857242 0.857242
674 1 0.0714153 0.928586 0.928586
673 1 0.99999 0.857157 0.857157
672 1 0.92858 0.785719 0.928585
671 1 0.857204 0.714295 0.857206
645 1 0.999997 0.571423 0.857157
646 1 0.0714142 0.642854 0.928588
647 1 0.14281 0.57141 0.857191
648 1 0.21425 0.642849 0.928637
649 1 0.285646 0.571405 0.85728
650 1 0.357123 0.64286 0.92868
651 1 0.428531 0.571427 0.857324
652 1 0.500003 0.642865 0.92868
653 1 0.571471 0.571424 0.857313
654 1 0.642879 0.642859 0.928668
