ITEM: TIMESTEP
120
ITEM: NUMBER OF ATOMS
696
ITEM: BOX BOUNDS pp pp pp
-1.7350271810350714e-02 2.2026897268666122e+01
-1.5500818358798640e-02 2.2025047815214570e+01
-1.0735348059143727e-02 2.2020282344914929e+01
ITEM: ATOMS id type xs ys zs
1 1 1.31914e-10 1.31564e-10 1.31527e-10
2 1 0.0714286 0.0714286 0.0714286
3 1 0.142857 1.31184e-10 1.34339e-10
4 1 0.214286 0.0714286 0.0714286
5 1 0.285714 1.40351e-10 1.24996e-10
6 1 0.357143 0.0714286 0.0714286
7 1 0.428571 1.47748e-10 1.22527e-10
8 1 0.5 0.0714286 0.0714286
9 1 0.571429 1.37432e-10 1.33611e-10
10 1 0.642857 0.0714286 0.0714286
11 1 0.714286 1.42355e-10 1.23536e-10
12 1 0.785714 0.0714286 0.0714286
13 1 0.857143 1.35783e-10 1.33137e-10
14 1 0.928571 0.0714286 0.0714286
15 1 1.32062e-10 0.142857 1.34079e-10
16 1 0.0714286 0.214286 0.0714286
17 1 0.142857 0.142857 2.03319e-10
18 1 0.214286 0.214286 0.0714286
19 1 0.285714 0.142857 1.377e-10
20 1 0.357143 0.214286 0.0714286
21 1 0.428571 0.142857 1.72775e-11
22 1 0.5 0.214286 0.0714286
23 1 0.571429 0.142857 -1.37248e-10
24 1 0.642857 0.214286 0.0714286
25 1 0.714286 0.142857 5.33571e-11
26 1 0.785714 0.214286 0.0714286
27 1 0.857143 0.142857 2.29554e-10
28 1 0.928571 0.214286 0.0714286
29 1 1.39244e-10 0.285714 1.1875e-10
30 1 0.0714286 0.357143 0.0714286
31 1 0.142857 0.285714 -9.05365e-11
32 1 0.214286 0.357143 0.0714286
33 1 0.285714 0.285714 1.24636e-08
34 1 0.357143 0.357143 0.071429
35 1 0.428571 0.285714 -1.05579e-08
36 1 0.5 0.357143 0.0714286
37 1 0.571429 0.285714 -6.46248e-11
38 1 0.642857 0.357143 0.071429
39 1 0.714286 0.285714 1.18868e-08
40 1 0.785714 0.357143 0.0714285
41 1 0.857143 0.285714 -6.91318e-10
42 1 0.928571 0.357143 0.0714286
43 1 1.49509e-10 0.428571 1.25674e-10
44 1 0.0714286 0.5 0.0714286
45 1 0.142857 0.428571 -1.84999e-10
46 1 0.214286 0.5 0.0714286
47 1 0.285714 0.428571 -2.98146e-08
48 1 0.357143 0.5 0.0714285
49 1 0.428571 0.428571 3.79818e-07
50 1 0.5 0.5 0.0714237
51 1 0.571429 0.428571 -5.69842e-08
52 1 0.642857 0.5 0.071427
53 1 0.714286 0.428571 -4.49466e-08
54 1 0.785714 0.5 0.0714286
55 1 0.857143 0.428571 3.9714e-11
56 1 0.928571 0.5 0.0714286
57 1 1.05648e-10 0.571429 1.63944e-10
58 1 0.0714286 0.642857 0.0714286
59 1 0.142857 0.571429 -4.17631e-10
60 1 0.214286 0.642857 0.0714285
61 1 0.285714 0.571429 -8.16401e-09
62 1 0.357143 0.642857 0.0714292
63 1 0.428571 0.571429 5.07726e-08
64 1 0.5 0.642857 0.0714271
65 1 0.571429 0.571429 -5.7568e-07
66 1 0.642857 0.642857 0.0714278
67 1 0.714286 0.571429 -2.43886e-08
68 1 0.785714 0.642857 0.0714286
69 1 0.857143 0.571429 1.35258e-10
70 1 0.928571 0.642857 0.0714286
71 1 1.33349e-10 0.714286 1.12748e-10
72 1 0.0714286 0.785714 0.0714286
73 1 0.142857 0.714286 -4.14824e-10
74 1 0.214286 0.785714 0.0714286
75 1 0.285714 0.714286 1.61686e-08
76 1 0.357143 0.785714 0.0714285
77 1 0.428571 0.714286 -3.49725e-08
78 1 0.5 0.785714 0.0714286
79 1 0.571429 0.714286 -1.98139e-08
80 1 0.642857 0.785714 0.0714286
81 1 0.714286 0.714286 -1.47075e-08
82 1 0.785714 0.785714 0.0714286
83 1 0.857143 0.714286 1.47082e-11
84 1 0.928571 0.785714 0.0714286
85 1 1.37352e-10 0.857143 1.33833e-10
86 1 0.0714286 0.928571 0.0714286
87 1 0.142857 0.857143 2.65373e-10
88 1 0.214286 0.928571 0.0714286
89 1 0.285714 0.857143 -3.37832e-10
90 1 0.357143 0.928571 0.0714286
91 1 0.428571 0.857143 -2.18859e-10
92 1 0.5 0.928571 0.0714286
93 1 0.571429 0.857143 -1.30378e-10
94 1 0.642857 0.928571 0.0714286
95 1 0.714286 0.857143 -8.87357e-11
96 1 0.785714 0.928571 0.0714286
97 1 0.857143 0.857143 2.01211e-11
98 1 0.928571 0.928571 0.0714286
99 1 1.32663e-10 1.32239e-10 0.142857
100 1 0.0714286 0.0714286 0.214286
101 1 0.142857 1.36361e-10 0.142857
102 1 0.214286 0.0714286 0.214286
103 1 0.285714 1.99875e-10 0.142857
104 1 0.357143 0.0714286 0.214286
105 1 0.428571 6.47985e-10 0.142857
106 1 0.5 0.0714286 0.214286
107 1 0.571429 7.32686e-10 0.142857
108 1 0.642857 0.0714286 0.214286
109 1 0.714286 2.58355e-10 0.142857
110 1 0.785714 0.0714286 0.214286
111 1 0.857143 1.09614e-10 0.142857
112 1 0.928571 0.0714286 0.214286
113 1 1.38272e-10 0.142857 0.142857
114 1 0.0714286 0.214286 0.214286
115 1 0.142857 0.142857 0.142857
116 1 0.214286 0.214286 0.214286
117 1 0.285714 0.142857 0.142857
118 1 0.357143 0.214286 0.214286
119 1 0.428571 0.142857 0.142857
120 1 0.5 0.214287 0.214287
121 1 0.571429 0.142857 0.142857
122 1 0.642857 0.214286 0.214286
123 1 0.714286 0.142857 0.142857
124 1 0.785714 0.214286 0.214286
125 1 0.857143 0.142857 0.142857
126 1 0.928571 0.214286 0.214286
127 1 2.74569e-10 0.285714 0.142857
128 1 0.0714286 0.357143 0.214286
129 1 0.142857 0.285714 0.142857
130 1 0.214286 0.357143 0.214286
131 1 0.285715 0.285715 0.142857
132 1 0.357152 0.357156 0.214297
133 1 0.428571 0.285715 0.142857
134 1 0.500003 0.357154 0.214273
135 1 0.571429 0.285715 0.142858
136 1 0.642843 0.357161 0.214312
137 1 0.714285 0.285715 0.142858
138 1 0.785714 0.357143 0.214285
139 1 0.857143 0.285714 0.142857
140 1 0.928571 0.357143 0.214286
141 1 3.24071e-10 0.428571 0.142857
142 1 0.0714286 0.5 0.214286
143 1 0.142857 0.428571 0.142857
144 1 0.214287 0.5 0.214287
145 1 0.285715 0.428571 0.142857
146 1 0.357153 0.500011 0.21427
147 1 0.42858 0.428584 0.14289
148 1 0.499976 0.499979 0.213973
149 1 0.571418 0.428575 0.142855
150 1 0.642909 0.499985 0.214193
151 1 0.714287 0.42857 0.142856
152 1 0.785714 0.5 0.214287
153 1 0.857143 0.428571 0.142857
154 1 0.928571 0.5 0.214286
155 1 8.04105e-10 0.571429 0.142857
156 1 0.0714286 0.642857 0.214286
157 1 0.142857 0.571429 0.142857
158 1 0.214286 0.642857 0.214286
159 1 0.285715 0.571429 0.142857
160 1 0.357169 0.642835 0.21432
161 1 0.428574 0.571416 0.142863
162 1 0.499983 0.642906 0.214195
163 1 0.571432 0.571431 0.142816
164 1 0.642894 0.642892 0.214249
165 1 0.714287 0.571429 0.142856
166 1 0.785714 0.642857 0.214286
167 1 0.857143 0.571429 0.142857
168 1 0.928571 0.642857 0.214286
169 1 2.94212e-10 0.714286 0.142857
170 1 0.0714286 0.785714 0.214286
171 1 0.142857 0.714286 0.142857
172 1 0.214286 0.785714 0.214286
173 1 0.285715 0.714285 0.142858
174 1 0.357143 0.785714 0.214286
175 1 0.42857 0.714286 0.142856
176 1 0.5 0.785715 0.214286
177 1 0.571429 0.714287 0.142856
178 1 0.642857 0.785714 0.214286
179 1 0.714286 0.714286 0.142856
180 1 0.785714 0.785714 0.214286
181 1 0.857143 0.714286 0.142857
182 1 0.928571 0.785714 0.214286
183 1 1.12411e-10 0.857143 0.142857
184 1 0.0714286 0.928571 0.214286
185 1 0.142857 0.857143 0.142857
186 1 0.214286 0.928571 0.214286
187 1 0.285714 0.857143 0.142857
188 1 0.357143 0.928571 0.214286
189 1 0.428571 0.857143 0.142857
190 1 0.5 0.928571 0.214286
191 1 0.571429 0.857143 0.142857
192 1 0.642857 0.928571 0.214286
193 1 0.714286 0.857143 0.142857
194 1 0.785714 0.928571 0.214286
195 1 0.857143 0.857143 0.142857
196 1 0.928571 0.928571 0.214286
197 1 1.32145e-10 1.3108e-10 0.285714
198 1 0.0714286 0.0714286 0.357143
199 1 0.142857 1.44124e-10 0.285714
200 1 0.214286 0.0714286 0.357143
201 1 0.285714 3.58932e-10 0.285714
202 1 0.357143 0.0714286 0.357143
203 1 0.428571 3.35909e-09 0.285714
204 1 0.5 0.0714282 0.357143
205 1 0.571429 -4.65153e-09 0.285714
206 1 0.642857 0.0714286 0.357143
207 1 0.714286 -4.13488e-10 0.285714
208 1 0.785714 0.0714286 0.357143
209 1 0.857143 1.41316e-10 0.285714
210 1 0.928571 0.0714286 0.357143
211 1 1.40687e-10 0.142857 0.285714
212 1 0.0714286 0.214286 0.357143
213 1 0.142857 0.142857 0.285714
214 1 0.214286 0.214286 0.357143
215 1 0.285714 0.142857 0.285714
216 1 0.357144 0.214287 0.357143
217 1 0.428571 0.142857 0.285714
218 1 0.5 0.214251 0.357141
219 1 0.571429 0.142857 0.285714
220 1 0.642857 0.214285 0.357143
221 1 0.714286 0.142857 0.285714
222 1 0.785714 0.214286 0.357143
223 1 0.857143 0.142857 0.285714
224 1 0.928571 0.214286 0.357143
225 1 4.32465e-10 0.285714 0.285714
226 1 0.0714286 0.357143 0.357143
227 1 0.142857 0.285714 0.285714
228 1 0.214287 0.357144 0.357143
229 1 0.285714 0.285714 0.285714
230 1 0.357145 0.357144 0.35713
231 1 0.428568 0.285718 0.285711
232 1 0.49992 0.354773 0.356532
233 1 0.571431 0.285718 0.285717
234 1 0.642929 0.357029 0.357131
235 1 0.714287 0.285713 0.285713
236 1 0.785715 0.357143 0.357143
237 1 0.857143 0.285714 0.285714
238 1 0.928571 0.357143 0.357143
239 1 7.34711e-09 0.428571 0.285714
240 1 0.0714281 0.5 0.357143
241 1 0.142857 0.428571 0.285714
242 1 0.214245 0.5 0.357141
243 1 0.285718 0.428566 0.28571
244 1 0.354646 0.499927 0.356448
245 1 0.427826 0.427884 0.284833
246 1 0.49984 0.500609 0.353967
247 1 0.572078 0.427631 0.284262
248 1 0.645609 0.500278 0.35654
249 1 0.714314 0.428551 0.285702
250 1 0.78576 0.499999 0.357141
251 1 0.857144 0.428571 0.285714
252 1 0.928572 0.5 0.357143
253 1 -2.73007e-09 0.571429 0.285714
254 1 0.0714286 0.642857 0.357143
255 1 0.142857 0.571429 0.285714
256 1 0.214285 0.642856 0.357143
257 1 0.285718 0.571433 0.285717
258 1 0.35706 0.642907 0.35713
259 1 0.427747 0.572081 0.284423
260 1 0.500289 0.644043 0.357318
261 1 0.572302 0.572408 0.284694
262 1 0.642802 0.642813 0.357145
263 1 0.714254 0.571423 0.285721
264 1 0.785713 0.642856 0.357143
265 1 0.857143 0.571429 0.285714
266 1 0.928571 0.642857 0.357143
267 1 -2.90956e-10 0.714286 0.285714
268 1 0.0714286 0.785714 0.357143
269 1 0.142857 0.714286 0.285714
270 1 0.214286 0.785714 0.357143
271 1 0.285713 0.714287 0.285713
272 1 0.357143 0.785715 0.357143
273 1 0.428563 0.714304 0.285707
274 1 0.499999 0.785735 0.357141
275 1 0.57141 0.714259 0.285723
276 1 0.642856 0.785713 0.357143
277 1 0.714285 0.714285 0.285715
278 1 0.785714 0.785714 0.357143
279 1 0.857143 0.714286 0.285714
280 1 0.928571 0.785714 0.357143
281 1 1.30195e-10 0.857143 0.285714
282 1 0.0714286 0.928571 0.357143
283 1 0.142857 0.857143 0.285714
284 1 0.214286 0.928571 0.357143
285 1 0.285714 0.857143 0.285714
286 1 0.357143 0.928571 0.357143
287 1 0.428571 0.857143 0.285714
288 1 0.5 0.928572 0.357143
289 1 0.571429 0.857143 0.285714
290 1 0.642857 0.928571 0.357143
291 1 0.714286 0.857143 0.285714
292 1 0.785714 0.928571 0.357143
293 1 0.857143 0.857143 0.285714
294 1 0.928571 0.928571 0.357143
295 1 1.31749e-10 1.30409e-10 0.428571
296 1 0.0714286 0.0714286 0.5
297 1 0.142857 8.72066e-11 0.428571
298 1 0.214286 0.0714286 0.5
299 1 0.285714 8.87064e-10 0.428571
300 1 0.357143 0.0714286 0.5
301 1 0.428571 -6.17387e-09 0.428571
302 1 0.5 0.0714286 0.5
303 1 0.571429 -1.06774e-08 0.428571
304 1 0.642857 0.0714286 0.5
305 1 0.714286 -2.85258e-10 0.428571
306 1 0.785714 0.0714286 0.5
307 1 0.857143 1.1874e-10 0.428571
308 1 0.928571 0.0714286 0.5
309 1 1.11135e-10 0.142857 0.428571
310 1 0.0714286 0.214286 0.5
311 1 0.142857 0.142857 0.428571
312 1 0.214286 0.214286 0.5
313 1 0.285714 0.142857 0.428571
314 1 0.357143 0.214286 0.5
315 1 0.428571 0.142857 0.428572
316 1 0.5 0.214285 0.5
317 1 0.571429 0.142857 0.428572
318 1 0.642857 0.214285 0.5
319 1 0.714286 0.142857 0.428571
320 1 0.785714 0.214286 0.5
321 1 0.857143 0.142857 0.428571
322 1 0.928571 0.214286 0.5
323 1 7.47208e-10 0.285714 0.428571
324 1 0.0714286 0.357143 0.5
325 1 0.142857 0.285714 0.428571
326 1 0.214286 0.357143 0.5
327 1 0.285716 0.285716 0.428571
328 1 0.357135 0.357136 0.500008
329 1 0.428566 0.2857 0.428571
330 1 0.499987 0.357079 0.500114
331 1 0.571431 0.28569 0.428567
332 1 0.642879 0.357122 0.500021
333 1 0.714286 0.285714 0.428573
334 1 0.785715 0.357143 0.5
335 1 0.857143 0.285714 0.428571
336 1 0.928571 0.357143 0.5
337 1 2.39523e-09 0.428571 0.428571
338 1 0.0714286 0.5 0.5
339 1 0.142857 0.428571 0.428572
340 1 0.214285 0.5 0.5
341 1 0.2857 0.428565 0.42857
342 1 0.357046 0.499986 0.500138
343 1 0.42661 0.426579 0.430506
344 1 0.500003 0.499219 0.50205
345 1 0.573319 0.42638 0.43112
346 1 0.642949 0.50001 0.500129
347 1 0.714302 0.428567 0.428565
348 1 0.785715 0.5 0.5
349 1 0.857143 0.428571 0.428572
350 1 0.928571 0.5 0.5
351 1 -4.09909e-09 0.571429 0.428571
352 1 0.0714286 0.642857 0.5
353 1 0.142857 0.571429 0.428572
354 1 0.214285 0.642857 0.5
355 1 0.285688 0.571432 0.428569
356 1 0.357121 0.642871 0.500028
357 1 0.426531 0.574009 0.430255
358 1 0.500006 0.642973 0.500063
359 1 0.573323 0.57441 0.429853
360 1 0.642868 0.64286 0.500018
361 1 0.71428 0.571422 0.428566
362 1 0.785714 0.642857 0.5
363 1 0.857143 0.571429 0.428572
364 1 0.928571 0.642857 0.5
365 1 -4.12148e-10 0.714286 0.428571
366 1 0.0714286 0.785714 0.5
367 1 0.142857 0.714286 0.428571
368 1 0.214286 0.785714 0.5
369 1 0.285715 0.714285 0.428572
370 1 0.357143 0.785714 0.5
371 1 0.42859 0.714266 0.42855
372 1 0.5 0.785715 0.5
373 1 0.571401 0.714257 0.428556
374 1 0.642857 0.785714 0.499999
375 1 0.714282 0.714283 0.428571
376 1 0.785714 0.785714 0.5
377 1 0.857143 0.714286 0.428571
378 1 0.928571 0.785714 0.5
379 1 1.37674e-10 0.857143 0.428571
380 1 0.0714286 0.928571 0.5
381 1 0.142857 0.857143 0.428571
382 1 0.214286 0.928571 0.5
383 1 0.285714 0.857143 0.428571
384 1 0.357143 0.928571 0.5
385 1 0.428571 0.857143 0.428572
386 1 0.5 0.928571 0.5
387 1 0.571429 0.857143 0.428572
388 1 0.642857 0.928571 0.5
389 1 0.714286 0.857143 0.428571
390 1 0.785714 0.928571 0.5
391 1 0.857143 0.857143 0.428571
392 1 0.928571 0.928571 0.5
393 1 1.32126e-10 1.31995e-10 0.571429
394 1 0.0714286 0.0714286 0.642857
395 1 0.142857 1.4488e-10 0.571429
396 1 0.214286 0.0714286 0.642857
397 1 0.285714 -2.54749e-12 0.571429
398 1 0.357143 0.0714286 0.642857
399 1 0.428571 2.25912e-10 0.571429
400 1 0.5 0.0714286 0.642857
401 1 0.571429 7.85764e-11 0.571429
402 1 0.642857 0.0714286 0.642857
403 1 0.714286 -1.90526e-10 0.571429
404 1 0.785714 0.0714286 0.642857
405 1 0.857143 1.27061e-10 0.571429
406 1 0.928571 0.0714286 0.642857
407 1 1.41512e-10 0.142857 0.571429
408 1 0.0714286 0.214286 0.642857
409 1 0.142857 0.142857 0.571429
410 1 0.214286 0.214286 0.642857
411 1 0.285714 0.142857 0.571429
412 1 0.357143 0.214286 0.642857
413 1 0.428571 0.142857 0.571429
414 1 0.5 0.214286 0.642857
415 1 0.571429 0.142857 0.571429
416 1 0.642857 0.214286 0.642857
417 1 0.714286 0.142857 0.571429
418 1 0.785714 0.214286 0.642857
419 1 0.857143 0.142857 0.571429
420 1 0.928571 0.214286 0.642857
421 1 2.0242e-10 0.285714 0.571429
422 1 0.0714286 0.357143 0.642857
423 1 0.142857 0.285714 0.571429
424 1 0.214286 0.357143 0.642857
425 1 0.285714 0.285714 0.571429
426 1 0.357143 0.357143 0.642857
427 1 0.42857 0.285715 0.571428
428 1 0.5 0.357145 0.642856
429 1 0.57143 0.285715 0.571428
430 1 0.642857 0.357143 0.642857
431 1 0.714286 0.285714 0.571429
432 1 0.785714 0.357143 0.642857
433 1 0.857143 0.285714 0.571429
434 1 0.928571 0.357143 0.642857
435 1 1.52121e-10 0.428571 0.571429
436 1 0.0714286 0.5 0.642857
437 1 0.142857 0.428571 0.571429
438 1 0.214286 0.5 0.642857
439 1 0.285715 0.42857 0.571428
440 1 0.357144 0.5 0.642857
441 1 0.428575 0.428582 0.571385
442 1 0.5 0.5 0.642886
443 1 0.571425 0.428586 0.571382
444 1 0.642856 0.5 0.642857
445 1 0.714286 0.42857 0.571428
446 1 0.785714 0.5 0.642857
447 1 0.857143 0.428571 0.571429
448 1 0.928571 0.5 0.642857
449 1 2.05573e-10 0.571429 0.571429
450 1 0.0714286 0.642857 0.642857
451 1 0.142857 0.571429 0.571429
452 1 0.214286 0.642857 0.642857
453 1 0.285714 0.57143 0.571429
454 1 0.357143 0.642857 0.642857
455 1 0.428568 0.571427 0.571407
456 1 0.5 0.642856 0.642857
457 1 0.571438 0.571427 0.571419
458 1 0.642857 0.642857 0.642857
459 1 0.714286 0.57143 0.571428
460 1 0.785714 0.642857 0.642857
461 1 0.857143 0.571429 0.571429
462 1 0.928571 0.642857 0.642857
463 1 -2.17263e-11 0.714286 0.571429
464 1 0.0714286 0.785714 0.642857
465 1 0.142857 0.714286 0.571429
466 1 0.214286 0.785714 0.642857
467 1 0.285714 0.714286 0.571429
468 1 0.357143 0.785714 0.642857
469 1 0.42857 0.714285 0.571428
470 1 0.5 0.785714 0.642857
471 1 0.57143 0.714285 0.571428
472 1 0.642857 0.785714 0.642857
473 1 0.714286 0.714286 0.571429
474 1 0.785714 0.785714 0.642857
475 1 0.857143 0.714286 0.571429
476 1 0.928571 0.785714 0.642857
477 1 1.24574e-10 0.857143 0.571429
478 1 0.0714286 0.928571 0.642857
479 1 0.142857 0.857143 0.571429
480 1 0.214286 0.928571 0.642857
481 1 0.285714 0.857143 0.571429
482 1 0.357143 0.928571 0.642857
483 1 0.428571 0.857143 0.571429
484 1 0.5 0.928571 0.642857
485 1 0.571429 0.857143 0.571429
486 1 0.642857 0.928571 0.642857
487 1 0.714286 0.857143 0.571429
488 1 0.785714 0.928571 0.642857
489 1 0.857143 0.857143 0.571429
490 1 0.928571 0.928571 0.642857
491 1 1.32008e-10 1.31603e-10 0.714286
492 1 0.0714286 0.0714286 0.785714
493 1 0.142857 1.31662e-10 0.714286
494 1 0.214286 0.0714286 0.785714
495 1 0.285714 1.37173e-10 0.714286
496 1 0.357143 0.0714286 0.785714
497 1 0.428571 1.26445e-10 0.714286
498 1 0.5 0.0714286 0.785714
499 1 0.571429 1.20937e-10 0.714286
500 1 0.642857 0.0714286 0.785714
501 1 0.714286 1.3158e-10 0.714286
502 1 0.785714 0.0714286 0.785714
503 1 0.857143 1.29345e-10 0.714286
504 1 0.928571 0.0714286 0.785714
505 1 1.33027e-10 0.142857 0.714286
506 1 0.0714286 0.214286 0.785714
507 1 0.142857 0.142857 0.714286
508 1 0.214286 0.214286 0.785714
509 1 0.285714 0.142857 0.714286
510 1 0.357143 0.214286 0.785714
511 1 0.428571 0.142857 0.714286
512 1 0.5 0.214286 0.785714
513 1 0.571429 0.142857 0.714286
514 1 0.642857 0.214286 0.785714
515 1 0.714286 0.142857 0.714286
516 1 0.785714 0.214286 0.785714
517 1 0.857143 0.142857 0.714286
518 1 0.928571 0.214286 0.785714
519 1 1.32854e-10 0.285714 0.714286
520 1 0.0714286 0.357143 0.785714
521 1 0.142857 0.285714 0.714286
522 1 0.214286 0.357143 0.785714
523 1 0.285714 0.285714 0.714286
524 1 0.357143 0.357143 0.785714
525 1 0.428571 0.285714 0.714286
526 1 0.5 0.357143 0.785714
527 1 0.571429 0.285714 0.714286
528 1 0.642857 0.357143 0.785714
529 1 0.714286 0.285714 0.714286
530 1 0.785714 0.357143 0.785714
531 1 0.857143 0.285714 0.714286
532 1 0.928571 0.357143 0.785714
533 1 1.31898e-10 0.428571 0.714286
534 1 0.0714286 0.5 0.785714
535 1 0.142857 0.428571 0.714286
536 1 0.214286 0.5 0.785714
537 1 0.285714 0.428571 0.714286
538 1 0.357143 0.5 0.785714
539 1 0.428571 0.428571 0.714285
540 1 0.5 0.5 0.785715
541 1 0.571429 0.428571 0.714285
542 1 0.642857 0.5 0.785714
543 1 0.714286 0.428571 0.714286
544 1 0.785714 0.5 0.785714
545 1 0.857143 0.428571 0.714286
546 1 0.928571 0.5 0.785714
547 1 1.21688e-10 0.571429 0.714286
548 1 0.0714286 0.642857 0.785714
549 1 0.142857 0.571429 0.714286
550 1 0.214286 0.642857 0.785714
551 1 0.285714 0.571429 0.714286
552 1 0.357143 0.642857 0.785714
553 1 0.428571 0.571429 0.714286
554 1 0.5 0.642857 0.785714
555 1 0.571429 0.571429 0.714286
556 1 0.642857 0.642857 0.785714
557 1 0.714286 0.571429 0.714286
558 1 0.785714 0.642857 0.785714
559 1 0.857143 0.571429 0.714286
560 1 0.928571 0.642857 0.785714
561 1 1.34099e-10 0.714286 0.714286
562 1 0.0714286 0.785714 0.785714
563 1 0.142857 0.714286 0.714286
564 1 0.214286 0.785714 0.785714
565 1 0.285714 0.714286 0.714286
566 1 0.357143 0.785714 0.785714
567 1 0.428571 0.714286 0.714286
568 1 0.5 0.785714 0.785714
569 1 0.571429 0.714286 0.714286
570 1 0.642857 0.785714 0.785714
571 1 0.714286 0.714286 0.714286
572 1 0.785714 0.785714 0.785714
573 1 0.857143 0.714286 0.714286
574 1 0.928571 0.785714 0.785714
575 1 1.30592e-10 0.857143 0.714286
576 1 0.0714286 0.928571 0.785714
577 1 0.142857 0.857143 0.714286
578 1 0.214286 0.928571 0.785714
579 1 0.285714 0.857143 0.714286
580 1 0.357143 0.928571 0.785714
581 1 0.428571 0.857143 0.714286
582 1 0.5 0.928571 0.785714
583 1 0.571429 0.857143 0.714286
584 1 0.642857 0.928571 0.785714
585 1 0.714286 0.857143 0.714286
586 1 0.785714 0.928571 0.785714
587 1 0.857143 0.857143 0.714286
588 1 0.928571 0.928571 0.785714
589 1 1.32045e-10 1.31683e-10 0.857143
590 1 0.0714286 0.0714286 0.928571
591 1 0.142857 1.31742e-10 0.857143
592 1 0.214286 0.0714286 0.928571
593 1 0.285714 1.31866e-10 0.857143
594 1 0.357143 0.0714286 0.928571
595 1 0.428571 1.32177e-10 0.857143
596 1 0.5 0.0714286 0.928571
597 1 0.571429 1.321e-10 0.857143
598 1 0.642857 0.0714286 0.928571
599 1 0.714286 1.3202e-10 0.857143
600 1 0.785714 0.0714286 0.928571
601 1 0.857143 1.31757e-10 0.857143
602 1 0.928571 0.0714286 0.928571
603 1 1.32097e-10 0.142857 0.857143
604 1 0.0714286 0.214286 0.928571
605 1 0.142857 0.142857 0.857143
606 1 0.214286 0.214286 0.928571
607 1 0.285714 0.142857 0.857143
608 1 0.357143 0.214286 0.928571
609 1 0.428571 0.142857 0.857143
610 1 0.5 0.214286 0.928571
611 1 0.571429 0.142857 0.857143
612 1 0.642857 0.214286 0.928571
613 1 0.714286 0.142857 0.857143
614 1 0.785714 0.214286 0.928571
615 1 0.857143 0.142857 0.857143
616 1 0.928571 0.214286 0.928571
617 1 1.3194e-10 0.285714 0.857143
618 1 0.0714286 0.357143 0.928571
619 1 0.142857 0.285714 0.857143
620 1 0.214286 0.357143 0.928571
621 1 0.285714 0.285714 0.857143
622 1 0.357143 0.357143 0.928571
623 1 0.428571 0.285714 0.857143
624 1 0.5 0.357143 0.928571
625 1 0.571429 0.285714 0.857143
626 1 0.642857 0.357143 0.928571
627 1 0.714286 0.285714 0.857143
628 1 0.785714 0.357143 0.928571
629 1 0.857143 0.285714 0.857143
630 1 0.928571 0.357143 0.928571
631 1 1.32706e-10 0.428571 0.857143
632 1 0.0714286 0.5 0.928571
633 1 0.142857 0.428571 0.857143
634 1 0.214286 0.5 0.928571
635 1 0.285714 0.428571 0.857143
636 1 0.357143 0.5 0.928571
637 1 0.428571 0.428571 0.857143
638 1 0.5 0.5 0.928571
639 1 0.571429 0.428571 0.857143
640 1 0.642857 0.5 0.928571
641 1 0.714286 0.428571 0.857143
642 1 0.785714 0.5 0.928571
643 1 0.857143 0.428571 0.857143
644 1 0.928571 0.5 0.928571
645 1 1.3256e-10 0.571429 0.857143
646 1 0.0714286 0.642857 0.928571
647 1 0.142857 0.571429 0.857143
648 1 0.214286 0.642857 0.928571
649 1 0.285714 0.571429 0.857143
650 1 0.357143 0.642857 0.928571
651 1 0.428571 0.571429 0.857143
652 1 0.5 0.642857 0.928571
653 1 0.571429 0.571429 0.857143
654 1 0.642857 0.642857 0.928571
655 1 0.714286 0.571429 0.857143
656 1 0.785714 0.642857 0.928571
657 1 0.857143 0.571429 0.857143
658 1 0.928571 0.642857 0.928571
659 1 1.32466e-10 0.714286 0.857143
660 1 0.0714286 0.785714 0.928571
661 1 0.142857 0.714286 0.857143
662 1 0.214286 0.785714 0.928571
663 1 0.285714 0.714286 0.857143
664 1 0.357143 0.785714 0.928571
665 1 0.428571 0.714286 0.857143
666 1 0.5 0.785714 0.928571
667 1 0.571429 0.714286 0.857143
668 1 0.642857 0.785714 0.928571
669 1 0.714286 0.714286 0.857143
670 1 0.785714 0.785714 0.928571
671 1 0.857143 0.714286 0.857143
672 1 0.928571 0.785714 0.928571
673 1 1.32013e-10 0.857143 0.857143
674 1 0.0714286 0.928571 0.928571
675 1 0.142857 0.857143 0.857143
676 1 0.214286 0.928571 0.928571
677 1 0.285714 0.857143 0.857143
678 1 0.357143 0.928571 0.928571
679 1 0.428571 0.857143 0.857143
680 1 0.5 0.928571 0.928571
681 1 0.571429 0.857143 0.857143
682 1 0.642857 0.928571 0.928571
683 1 0.714286 0.857143 0.857143
684 1 0.785714 0.928571 0.928571
685 1 0.857143 0.857143 0.857143
686 1 0.928571 0.928571 0.928571
687 2 0.504017 0.572901 0.316001
688 2 0.459311 0.5728 0.361006
689 2 0.499241 0.427159 0.31974
690 2 0.572675 0.503421 0.316838
691 2 0.572364 0.459621 0.360147
692 2 0.428294 0.49987 0.32115
693 3 0.49994 0.428429 0.393756
694 3 0.427945 0.499828 0.393406
695 3 0.5001 0.535975 0.428576
696 3 0.571874 0.500734 0.394327
