ITEM: TIMESTEP
15
ITEM: NUMBER OF ATOMS
689
ITEM: BOX BOUNDS pp pp pp
0.0000000000000000e+00 2.2013900999999997e+01
0.0000000000000000e+00 2.2013900999999997e+01
0.0000000000000000e+00 2.2013900999999997e+01
ITEM: ATOMS id type xs ys zs
1 1 0.000100107 0.000100107 0.000107037
2 1 0.0713227 0.0713227 0.0713147
687 2 0.499612 0.412779 0.434784
4 1 0.214202 0.0712622 0.0712477
175 1 0.857041 0.428748 0.428696
6 1 0.357142 0.0713177 0.0712987
7 1 0.428546 8.8058e-06 1.85247e-05
8 1 0.500022 0.0713965 0.0713769
9 1 0.571406 7.36444e-05 8.10501e-05
10 1 0.642875 0.0714423 0.071425
11 1 0.714303 0.000140608 0.00014854
12 1 0.785748 0.0714508 0.0714425
13 1 0.857236 0.000168557 0.000177734
14 1 0.928578 0.0714351 0.0714317
445 1 0.498836 0.498836 0.357976
16 1 0.0712622 0.214202 0.0712477
157 1 0.285297 0.142117 0.42846
18 1 0.214082 0.214082 0.0709806
156 1 0.142483 0.142483 0.428536
20 1 0.35713 0.21415 0.0711368
155 1 0.999858 0.142737 0.428553
22 1 0.500035 0.214256 0.0713324
154 1 0.857239 7.02777e-05 0.428495
24 1 0.642875 0.214272 0.0713719
153 1 0.714391 4.65181e-05 0.428513
26 1 0.785759 0.214244 0.0713581
158 1 0.428439 0.142235 0.428543
28 1 0.928551 0.214249 0.0713692
159 1 0.571516 0.142599 0.428623
30 1 0.0713177 0.357142 0.0712987
160 1 0.714435 0.142746 0.428586
32 1 0.21415 0.35713 0.0711368
161 1 0.857191 0.142821 0.428553
34 1 0.357127 0.357127 0.0711861
515 1 0.488349 0.488349 0.487619
36 1 0.499991 0.357171 0.071449
147 1 0.857201 0.428642 0.285683
38 1 0.642834 0.357148 0.0714125
146 1 0.714616 0.428724 0.28564
40 1 0.785748 0.357113 0.0713936
41 1 0.85717 0.285677 9.17873e-06
42 1 0.928567 0.357119 0.0713892
43 1 8.8058e-06 0.428546 1.85247e-05
145 1 0.571645 0.428505 0.286228
144 1 0.42773 0.42773 0.286023
143 1 0.284695 0.428302 0.285089
142 1 0.142435 0.428513 0.285506
48 1 0.714289 0.428533 5.99147e-05
49 1 0.8572 0.428512 7.27327e-05
174 1 0.714953 0.429019 0.428916
51 1 0.0712383 0.0712383 0.214164
173 1 0.580686 0.428802 0.428064
53 1 0.214045 0.0709728 0.21401
172 1 0.417207 0.417207 0.424005
55 1 0.357106 0.0711208 0.214063
171 1 0.284156 0.427342 0.428274
57 1 0.500048 0.0713104 0.214179
170 1 0.142235 0.428439 0.428543
59 1 0.642912 0.0713722 0.214207
169 1 0.999731 0.428592 0.428575
61 1 0.785782 0.0713638 0.214208
168 1 0.857165 0.285722 0.428604
63 1 0.928552 0.071369 0.214228
64 1 0.99986 0.142749 0.142734
65 1 0.0709728 0.214045 0.21401
66 1 0.142323 0.142323 0.142292
67 1 0.212863 0.212863 0.212814
68 1 0.285579 0.142463 0.142424
69 1 0.356867 0.213607 0.213614
70 1 0.428607 0.142675 0.142648
71 1 0.500055 0.214068 0.214131
72 1 0.571478 0.142798 0.142771
73 1 0.642954 0.214156 0.214155
74 1 0.714344 0.142794 0.142767
75 1 0.785881 0.214122 0.214095
76 1 0.857178 0.142789 0.142774
77 1 0.928521 0.214196 0.214175
78 1 0.999858 0.285671 0.142716
79 1 0.0711208 0.357106 0.214063
80 1 0.142463 0.285579 0.142424
81 1 0.213607 0.356867 0.213614
82 1 0.285335 0.285335 0.142074
83 1 0.356553 0.356553 0.213472
84 1 0.428537 0.285551 0.142615
85 1 0.499889 0.357002 0.214534
86 1 0.571428 0.285691 0.142829
87 1 0.642979 0.357078 0.214122
88 1 0.714373 0.285643 0.1427
89 1 0.785852 0.35713 0.214159
90 1 0.857182 0.285668 0.142758
91 1 0.92853 0.357137 0.214191
92 1 0.999933 0.428587 0.142765
93 1 0.142675 0.428607 0.142648
94 1 0.285551 0.428537 0.142615
95 1 0.428509 0.428509 0.14303
96 1 0.571336 0.428565 0.143104
97 1 0.714323 0.42858 0.142825
98 1 0.85718 0.428572 0.142811
167 1 0.714658 0.285571 0.428702
100 1 0.071251 0.071251 0.357091
166 1 0.571861 0.285387 0.42867
102 1 0.21403 0.0710121 0.35703
165 1 0.427342 0.284156 0.428274
104 1 0.35704 0.0709819 0.357019
164 1 0.28411 0.28411 0.42829
106 1 0.500043 0.071217 0.357103
163 1 0.142117 0.285297 0.42846
108 1 0.642945 0.071327 0.357095
162 1 0.999733 0.285626 0.428555
110 1 0.785804 0.0713919 0.357079
111 1 0.857197 7.75601e-06 0.285648
112 1 0.928562 0.0713825 0.357094
113 1 0.999828 0.142714 0.285632
114 1 0.0710121 0.21403 0.35703
115 1 0.142387 0.142387 0.285486
116 1 0.213394 0.213394 0.356734
117 1 0.285269 0.141995 0.285231
118 1 0.356452 0.213169 0.356627
119 1 0.428513 0.142435 0.285506
120 1 0.499965 0.213943 0.357151
121 1 0.571493 0.1427 0.285651
122 1 0.643072 0.213937 0.357122
123 1 0.714422 0.142692 0.2856
124 1 0.785882 0.214172 0.357097
125 1 0.857192 0.14277 0.285639
126 1 0.928499 0.214207 0.357102
127 1 0.999754 0.285628 0.285592
128 1 0.0709819 0.35704 0.357019
129 1 0.141995 0.285269 0.285231
130 1 0.213169 0.356452 0.356627
131 1 0.282553 0.282553 0.28262
132 1 0.351534 0.351534 0.352042
133 1 0.428302 0.284695 0.285089
134 1 0.500395 0.356467 0.357326
135 1 0.571512 0.285481 0.285718
136 1 0.644398 0.355808 0.355998
137 1 0.714826 0.285289 0.285286
138 1 0.786 0.357179 0.357128
139 1 0.857247 0.285648 0.285614
140 1 0.928463 0.35716 0.357119
141 1 0.99985 0.428598 0.285629
62 1 0.857183 1.99948e-05 0.142863
60 1 0.714321 2.5749e-05 0.142845
688 2 0.412779 0.499612 0.434784
181 1 0.785831 0.0714608 0.499985
443 1 0.213943 0.499965 0.357151
396 1 0.499799 0.499799 0.215119
346 1 0.357171 0.499991 0.071449
347 1 0.499959 0.499959 0.0716144
348 1 0.642802 0.499966 0.0715285
349 1 0.785755 0.499974 0.0714767
350 1 0.928609 0.499983 0.0714423
395 1 0.357002 0.499889 0.214534
182 1 0.928598 0.0714284 0.499973
27 1 0.857174 0.142881 2.58314e-05
23 1 0.571438 0.142873 4.60852e-06
25 1 0.714303 0.142884 2.8405e-05
176 1 0.0712951 0.0712951 0.500009
177 1 0.214067 0.0710833 0.500042
644 1 0.928698 0.499927 0.928734
643 1 0.785864 0.499939 0.928835
47 1 0.571386 0.428593 0.999997
46 1 0.428622 0.428622 0.999909
513 1 0.213625 0.49996 0.500105
183 1 0.0710833 0.214067 0.500042
184 1 0.213564 0.213564 0.500115
185 1 0.356489 0.213124 0.500126
186 1 0.49996 0.213625 0.500105
45 1 0.285746 0.428614 0.999881
188 1 0.785834 0.214245 0.500095
189 1 0.9285 0.214234 0.500018
638 1 0.0714684 0.499982 0.928649
191 1 0.213124 0.356489 0.500126
192 1 0.353348 0.353348 0.502489
193 1 0.499723 0.35466 0.500948
194 1 0.643861 0.356275 0.50156
195 1 0.785767 0.357316 0.500279
196 1 0.928386 0.357173 0.500052
197 1 4.4212e-05 4.4212e-05 0.571409
198 1 0.0713432 0.0713432 0.642925
343 1 0.857295 0.428456 0.857355
200 1 0.214105 0.071157 0.643034
342 1 0.714407 0.428577 0.857327
202 1 0.357037 0.0711397 0.643074
341 1 0.571497 0.42879 0.856915
204 1 0.500005 0.0712676 0.643059
340 1 0.428772 0.428772 0.856788
206 1 0.642959 0.07148 0.643012
207 1 0.71445 0.000188636 0.571474
208 1 0.785871 0.0715527 0.642933
209 1 0.857314 0.00017796 0.571401
210 1 0.928652 0.0714932 0.642876
211 1 0.999902 0.142771 0.571464
212 1 0.071157 0.214105 0.643034
213 1 0.142545 0.142545 0.571568
214 1 0.213655 0.213655 0.643465
215 1 0.285368 0.142193 0.571713
216 1 0.356963 0.213746 0.643247
217 1 0.428476 0.142299 0.571675
218 1 0.500014 0.214065 0.64311
219 1 0.571498 0.142594 0.571652
220 1 0.642866 0.21435 0.643028
221 1 0.714429 0.142786 0.571589
222 1 0.785823 0.214259 0.643026
223 1 0.857218 0.142861 0.57146
224 1 0.928543 0.214244 0.642927
225 1 0.999768 0.285626 0.571512
226 1 0.0711397 0.357037 0.643074
227 1 0.142193 0.285368 0.571713
228 1 0.213746 0.356963 0.643247
229 1 0.283861 0.283861 0.572848
230 1 0.356384 0.356384 0.643549
231 1 0.427976 0.284574 0.571792
232 1 0.500097 0.357435 0.642503
233 1 0.57154 0.285524 0.571749
234 1 0.642773 0.357647 0.642984
235 1 0.714545 0.285594 0.571883
236 1 0.785705 0.357312 0.643049
237 1 0.857137 0.285733 0.571529
238 1 0.928462 0.357123 0.642952
239 1 0.999763 0.428557 0.571531
240 1 0.142299 0.428476 0.571675
241 1 0.284574 0.427976 0.571792
242 1 0.426743 0.426743 0.572055
243 1 0.57087 0.430803 0.57023
244 1 0.714161 0.429378 0.571888
245 1 0.857053 0.428751 0.571607
246 1 0.000117587 0.000117587 0.714332
247 1 0.0714037 0.0714037 0.785815
339 1 0.285832 0.428649 0.857092
249 1 0.214198 0.0713188 0.785868
338 1 0.142868 0.428568 0.857253
251 1 0.357077 0.071355 0.785891
337 1 5.25323e-05 0.428508 0.857276
253 1 0.499982 0.0714622 0.785889
254 1 0.571463 0.000163784 0.714483
255 1 0.642905 0.0715784 0.7859
256 1 0.714481 0.000379848 0.714501
257 1 0.785843 0.0716499 0.785871
258 1 0.857399 0.000333236 0.714407
259 1 0.928687 0.0715645 0.785805
260 1 0.999955 0.142814 0.714377
261 1 0.0713188 0.214198 0.785868
262 1 0.142637 0.142637 0.714527
263 1 0.21413 0.21413 0.785995
264 1 0.285572 0.142597 0.714575
265 1 0.357127 0.214223 0.785914
266 1 0.428527 0.142704 0.714541
267 1 0.500038 0.214358 0.785824
268 1 0.571498 0.142852 0.714491
269 1 0.642887 0.214369 0.785818
270 1 0.714358 0.14294 0.714417
271 1 0.785778 0.214294 0.785841
272 1 0.857235 0.142903 0.714374
273 1 0.928581 0.214262 0.78581
274 1 0.999885 0.285632 0.714423
275 1 0.071355 0.357077 0.785891
276 1 0.142597 0.285572 0.714575
277 1 0.214223 0.357127 0.785914
278 1 0.285379 0.285379 0.714833
279 1 0.357238 0.357238 0.78573
280 1 0.428597 0.285638 0.71441
281 1 0.50017 0.357452 0.785398
282 1 0.571472 0.285907 0.714305
283 1 0.642878 0.357378 0.785658
284 1 0.714343 0.285766 0.714465
285 1 0.785792 0.357114 0.78587
286 1 0.857159 0.285692 0.714391
287 1 0.928602 0.357062 0.785847
288 1 0.999961 0.428512 0.714446
289 1 0.142704 0.428527 0.714541
290 1 0.285638 0.428597 0.71441
291 1 0.428833 0.428833 0.713887
292 1 0.571589 0.429438 0.713631
293 1 0.714622 0.428855 0.714702
294 1 0.857285 0.428564 0.714517
295 1 0.000161197 0.000161197 0.857265
296 1 0.0714341 0.0714341 0.928602
336 1 0.928615 0.357075 0.928653
298 1 0.214247 0.0713786 0.92859
44 1 0.142826 0.428591 0.999945
300 1 0.357119 0.0714076 0.928613
301 1 0.428508 5.25323e-05 0.857276
302 1 0.499982 0.0714684 0.928649
303 1 0.571399 0.000176626 0.85734
304 1 0.642854 0.0715335 0.928694
305 1 0.714388 0.0003386 0.85742
306 1 0.78577 0.0715845 0.928717
307 1 0.8574 0.000411996 0.857422
308 1 0.928665 0.0715689 0.928686
309 1 4.31933e-06 0.142864 0.857221
310 1 0.0713786 0.214247 0.92859
311 1 0.142786 0.142786 0.857243
312 1 0.214237 0.214237 0.928555
313 1 0.285671 0.142793 0.857262
314 1 0.357167 0.214289 0.928551
315 1 0.428568 0.142868 0.857253
316 1 0.500019 0.214338 0.928569
317 1 0.571436 0.142926 0.857258
318 1 0.642855 0.214328 0.928609
319 1 0.714322 0.142942 0.857268
320 1 0.785743 0.214292 0.92863
321 1 0.857212 0.142937 0.857249
322 1 0.92859 0.214276 0.928622
323 1 0.999983 0.28566 0.857241
324 1 0.0714076 0.357119 0.928613
325 1 0.142793 0.285671 0.857262
326 1 0.214289 0.357167 0.928551
327 1 0.285723 0.285723 0.857241
328 1 0.357234 0.357234 0.92844
329 1 0.428649 0.285832 0.857092
330 1 0.500036 0.357264 0.928412
331 1 0.571438 0.285851 0.857094
332 1 0.64283 0.357186 0.92854
333 1 0.714297 0.285732 0.857213
334 1 0.785756 0.357081 0.928658
335 1 0.857188 0.285662 0.857243
514 1 0.35466 0.499723 0.500948
595 1 0.928787 0.499945 0.785958
39 1 0.714291 0.285703 0.999983
37 1 0.57142 0.285755 0.99996
35 1 0.428614 0.285746 0.999881
33 1 0.285694 0.285694 0.999793
31 1 0.142766 0.285686 0.999873
589 1 0.0714622 0.499982 0.785889
29 1 0.999967 0.285685 0.999978
297 1 0.142864 4.31933e-06 0.857221
15 1 0.999978 0.142851 0.999986
17 1 0.142765 0.142765 0.999872
19 1 0.285686 0.142766 0.999873
21 1 0.428591 0.142826 0.999945
178 1 0.357024 0.0709535 0.500073
179 1 0.50003 0.0711203 0.500095
180 1 0.64296 0.07134 0.500051
187 1 0.643022 0.213996 0.500206
190 1 0.0709535 0.357024 0.500073
344 1 0.0713965 0.500022 0.0713769
345 1 0.214256 0.500035 0.0713324
539 1 0.928719 0.928719 0.499922
538 1 0.785946 0.928845 0.499946
148 1 0.999986 0.999986 0.428526
101 1 0.142714 0.999828 0.285632
532 1 0.928845 0.785946 0.499946
351 1 7.36444e-05 0.571406 8.10501e-05
352 1 0.0714423 0.642875 0.071425
152 1 0.571491 0.999893 0.428568
354 1 0.214272 0.642875 0.0713719
151 1 0.428592 0.999731 0.428575
356 1 0.357148 0.642834 0.0714125
150 1 0.285626 0.999733 0.428555
358 1 0.499966 0.642802 0.0715285
359 1 0.571394 0.571394 0.000125305
360 1 0.64283 0.64283 0.0715925
361 1 0.714341 0.571411 0.000233197
362 1 0.785799 0.64287 0.0715716
363 1 0.857272 0.57139 0.000189008
364 1 0.928662 0.642858 0.0715097
365 1 0.000140608 0.714303 0.00014854
366 1 0.0714508 0.785748 0.0714425
149 1 0.142737 0.999858 0.428553
368 1 0.214244 0.785759 0.0713581
109 1 0.714353 0.999986 0.285641
370 1 0.357113 0.785748 0.0713936
371 1 0.428533 0.714289 5.99147e-05
372 1 0.499974 0.785755 0.0714767
373 1 0.571411 0.714341 0.000233197
374 1 0.64287 0.785799 0.0715716
375 1 0.714409 0.714409 0.000420654
376 1 0.785814 0.785814 0.0716522
377 1 0.857367 0.714373 0.000351058
378 1 0.928693 0.78577 0.0715751
379 1 0.000168557 0.857236 0.000177734
380 1 0.0714351 0.928578 0.0714317
107 1 0.571479 0.999952 0.285652
382 1 0.214249 0.928551 0.0713692
383 1 0.285677 0.85717 9.17873e-06
384 1 0.357119 0.928567 0.0713892
385 1 0.428512 0.8572 7.27327e-05
386 1 0.499983 0.928609 0.0714423
387 1 0.57139 0.857272 0.000189008
388 1 0.642858 0.928662 0.0715097
389 1 0.714373 0.857367 0.000351058
390 1 0.78577 0.928693 0.0715751
391 1 0.857389 0.857389 0.0004257
392 1 0.928668 0.928668 0.0715674
393 1 0.0713104 0.500048 0.214179
394 1 0.214068 0.500055 0.214131
99 1 0.999956 0.999956 0.28566
58 1 0.571452 1 0.142815
397 1 0.642854 0.500089 0.214339
398 1 0.785814 0.500082 0.214241
399 1 0.928576 0.500034 0.214226
400 1 1 0.571452 0.142815
401 1 0.0713722 0.642912 0.214207
402 1 0.142798 0.571478 0.142771
403 1 0.214156 0.642954 0.214155
404 1 0.285691 0.571428 0.142829
405 1 0.357078 0.642979 0.214122
406 1 0.428565 0.571336 0.143104
407 1 0.500089 0.642854 0.214339
408 1 0.571335 0.571335 0.143109
409 1 0.642904 0.642904 0.214416
410 1 0.714312 0.571465 0.142869
411 1 0.785868 0.643002 0.214222
412 1 0.857212 0.571446 0.142851
413 1 0.928626 0.642906 0.214236
414 1 2.5749e-05 0.714321 0.142845
415 1 0.0713638 0.785782 0.214208
416 1 0.142794 0.714344 0.142767
417 1 0.214122 0.785881 0.214095
418 1 0.285643 0.714373 0.1427
419 1 0.35713 0.785852 0.214159
420 1 0.42858 0.714323 0.142825
421 1 0.500082 0.785814 0.214241
422 1 0.571465 0.714312 0.142869
423 1 0.643002 0.785868 0.214222
424 1 0.714338 0.714338 0.142915
425 1 0.785833 0.785833 0.21424
426 1 0.85724 0.71434 0.14289
427 1 0.928627 0.785779 0.214247
428 1 1.99948e-05 0.857183 0.142863
429 1 0.071369 0.928552 0.214228
430 1 0.142789 0.857178 0.142774
431 1 0.214196 0.928521 0.214175
432 1 0.285668 0.857182 0.142758
433 1 0.357137 0.92853 0.214191
434 1 0.428572 0.85718 0.142811
435 1 0.500034 0.928576 0.214226
436 1 0.571446 0.857212 0.142851
437 1 0.642906 0.928626 0.214236
438 1 0.71434 0.85724 0.14289
439 1 0.785779 0.928627 0.214247
440 1 0.857225 0.857225 0.142917
441 1 0.928606 0.928606 0.214257
442 1 0.071217 0.500043 0.357103
56 1 0.428587 0.999933 0.142765
444 1 0.356467 0.500395 0.357326
511 1 0.857367 0.857367 0.428443
446 1 0.643995 0.502022 0.356237
447 1 0.785837 0.500356 0.357293
448 1 0.92849 0.500076 0.357146
449 1 0.999952 0.571479 0.285652
450 1 0.071327 0.642945 0.357095
451 1 0.1427 0.571493 0.285651
452 1 0.213937 0.643072 0.357122
453 1 0.285481 0.571512 0.285718
454 1 0.355808 0.644398 0.355998
455 1 0.428505 0.571645 0.286228
456 1 0.502022 0.643995 0.356237
457 1 0.571306 0.571306 0.286395
458 1 0.643203 0.643203 0.357683
459 1 0.714685 0.571968 0.285555
460 1 0.785878 0.643108 0.357303
461 1 0.857244 0.571544 0.285695
462 1 0.928597 0.642935 0.357109
463 1 0.999986 0.714353 0.285641
464 1 0.0713919 0.785804 0.357079
465 1 0.142692 0.714422 0.2856
466 1 0.214172 0.785882 0.357097
467 1 0.285289 0.714826 0.285286
468 1 0.357179 0.786 0.357128
469 1 0.428724 0.714616 0.28564
470 1 0.500356 0.785837 0.357293
471 1 0.571968 0.714685 0.285555
472 1 0.643108 0.785878 0.357303
473 1 0.71453 0.71453 0.285705
474 1 0.785936 0.785936 0.357065
475 1 0.857258 0.714393 0.285654
476 1 0.928677 0.785828 0.357042
477 1 7.75601e-06 0.857197 0.285648
478 1 0.0713825 0.928562 0.357094
479 1 0.14277 0.857192 0.285639
480 1 0.214207 0.928499 0.357102
481 1 0.285648 0.857247 0.285614
482 1 0.35716 0.928463 0.357119
483 1 0.428642 0.857201 0.285683
484 1 0.500076 0.92849 0.357146
485 1 0.571544 0.857244 0.285695
486 1 0.642935 0.928597 0.357109
487 1 0.714393 0.857258 0.285654
488 1 0.785828 0.928677 0.357042
489 1 0.857243 0.857243 0.285625
490 1 0.928639 0.928639 0.357055
491 1 0.999893 0.571491 0.428568
492 1 0.142599 0.571516 0.428623
493 1 0.285387 0.571861 0.42867
494 1 0.428802 0.580686 0.428064
495 1 0.570927 0.570927 0.431199
496 1 0.714271 0.572012 0.429423
497 1 0.857162 0.571634 0.428736
498 1 4.65181e-05 0.714391 0.428513
499 1 0.142746 0.714435 0.428586
500 1 0.285571 0.714658 0.428702
501 1 0.429019 0.714953 0.428916
502 1 0.572012 0.714271 0.429423
503 1 0.714926 0.714926 0.428835
504 1 0.857422 0.714544 0.428556
505 1 7.02777e-05 0.857239 0.428495
506 1 0.142821 0.857191 0.428553
507 1 0.285722 0.857165 0.428604
508 1 0.428748 0.857041 0.428696
509 1 0.571634 0.857162 0.428736
510 1 0.714544 0.857422 0.428556
105 1 0.428598 0.99985 0.285629
526 1 0.0714608 0.785831 0.499985
103 1 0.285628 0.999754 0.285592
50 1 0.999975 0.999975 0.142838
52 1 0.142749 0.99986 0.142734
54 1 0.285671 0.999858 0.142716
533 1 0.0714284 0.928598 0.499973
353 1 0.142873 0.571438 4.60852e-06
367 1 0.142884 0.714303 2.8405e-05
381 1 0.142881 0.857174 2.58314e-05
5 1 0.285685 0.999967 0.999978
3 1 0.142851 0.999978 0.999986
689 2 0.532837 0.532837 0.535012
686 1 0.928953 0.928953 0.928972
516 1 0.643142 0.502039 0.501944
685 1 0.857964 0.857964 0.857992
684 1 0.785932 0.928992 0.929017
252 1 0.428512 0.999961 0.714446
250 1 0.285632 0.999885 0.714423
521 1 0.356275 0.643861 0.50156
522 1 0.502039 0.643142 0.501944
248 1 0.142814 0.999955 0.714377
205 1 0.571498 0.999971 0.57153
203 1 0.428557 0.999763 0.571531
201 1 0.285626 0.999768 0.571512
527 1 0.214245 0.785834 0.500095
528 1 0.357316 0.785767 0.500279
199 1 0.142771 0.999902 0.571464
668 1 0.643015 0.786074 0.929147
667 1 0.571685 0.714778 0.85785
666 1 0.499939 0.785864 0.928835
592 1 0.500432 0.500432 0.7852
534 1 0.214234 0.9285 0.500018
535 1 0.357173 0.928386 0.500052
665 1 0.428577 0.714407 0.857327
664 1 0.357081 0.785756 0.928658
663 1 0.285732 0.714297 0.857213
662 1 0.214292 0.785743 0.92863
540 1 0.0712676 0.500005 0.643059
541 1 0.214065 0.500014 0.64311
542 1 0.357435 0.500097 0.642503
543 1 0.500643 0.500643 0.64093
683 1 0.71477 0.857901 0.857945
682 1 0.642868 0.92884 0.928872
681 1 0.571461 0.857548 0.857605
547 1 0.999971 0.571498 0.57153
548 1 0.07148 0.642959 0.643012
549 1 0.142594 0.571498 0.571652
550 1 0.21435 0.642866 0.643028
551 1 0.285524 0.57154 0.571749
552 1 0.357647 0.642773 0.642984
553 1 0.430803 0.57087 0.57023
554 1 0.500557 0.644335 0.644462
555 1 0.579871 0.579871 0.579302
556 1 0.647728 0.647728 0.647782
557 1 0.715627 0.572955 0.572954
558 1 0.787395 0.644058 0.644101
559 1 0.857482 0.571803 0.571817
560 1 0.929055 0.643115 0.643135
561 1 0.000188636 0.71445 0.571474
562 1 0.0715527 0.785871 0.642933
563 1 0.142786 0.714429 0.571589
564 1 0.214259 0.785823 0.643026
565 1 0.285594 0.714545 0.571883
566 1 0.357312 0.785705 0.643049
567 1 0.429378 0.714161 0.571888
568 1 0.50048 0.786292 0.643519
569 1 0.572955 0.715627 0.572954
570 1 0.644058 0.787395 0.644101
571 1 0.715901 0.715901 0.572586
572 1 0.786939 0.786939 0.64365
573 1 0.85789 0.714887 0.571748
574 1 0.92913 0.786137 0.643059
575 1 0.00017796 0.857314 0.571401
576 1 0.0714932 0.928652 0.642876
577 1 0.142861 0.857218 0.57146
578 1 0.214244 0.928543 0.642927
579 1 0.285733 0.857137 0.571529
580 1 0.357123 0.928462 0.642952
581 1 0.428751 0.857053 0.571607
582 1 0.500043 0.928658 0.643039
583 1 0.571803 0.857482 0.571817
584 1 0.643115 0.929055 0.643135
585 1 0.714887 0.85789 0.571748
586 1 0.786137 0.92913 0.643059
587 1 0.857604 0.857604 0.571482
588 1 0.928854 0.928854 0.642882
680 1 0.499927 0.928698 0.928734
590 1 0.214358 0.500038 0.785824
679 1 0.428456 0.857295 0.857355
678 1 0.357075 0.928615 0.928653
677 1 0.285662 0.857188 0.857243
676 1 0.214276 0.92859 0.928622
675 1 0.142937 0.857212 0.857249
596 1 0.000163784 0.571463 0.714483
597 1 0.0715784 0.642905 0.7859
598 1 0.142852 0.571498 0.714491
599 1 0.214369 0.642887 0.785818
600 1 0.285907 0.571472 0.714305
601 1 0.357378 0.642878 0.785658
602 1 0.429438 0.571589 0.713631
603 1 0.500459 0.64335 0.7862
604 1 0.572576 0.572576 0.715062
605 1 0.643968 0.643968 0.787362
606 1 0.715715 0.572447 0.71581
607 1 0.786873 0.643586 0.786939
608 1 0.857814 0.571713 0.714886
609 1 0.929107 0.643041 0.786152
610 1 0.000379848 0.714481 0.714501
611 1 0.0716499 0.785843 0.785871
612 1 0.14294 0.714358 0.714417
613 1 0.214294 0.785778 0.785841
614 1 0.285766 0.714343 0.714465
615 1 0.357114 0.785792 0.78587
616 1 0.428855 0.714622 0.714702
617 1 0.500077 0.786203 0.786278
618 1 0.572447 0.715715 0.71581
619 1 0.643586 0.786873 0.786939
620 1 0.717397 0.717397 0.717458
621 1 0.787348 0.787348 0.787389
622 1 0.85832 0.715126 0.715155
623 1 0.929297 0.786229 0.78625
624 1 0.000333236 0.857399 0.714407
625 1 0.0715645 0.928687 0.785805
626 1 0.142903 0.857235 0.714374
627 1 0.214262 0.928581 0.78581
628 1 0.285692 0.857159 0.714391
629 1 0.357062 0.928602 0.785847
630 1 0.428564 0.857285 0.714517
631 1 0.499945 0.928787 0.785958
632 1 0.571713 0.857814 0.714886
633 1 0.643041 0.929107 0.786152
634 1 0.715126 0.85832 0.715155
635 1 0.786229 0.929297 0.78625
636 1 0.857928 0.857928 0.714804
637 1 0.928998 0.928998 0.785957
674 1 0.0715689 0.928665 0.928686
639 1 0.214338 0.500019 0.928569
673 1 0.000411996 0.8574 0.857422
672 1 0.928992 0.785932 0.929017
671 1 0.857901 0.71477 0.857945
670 1 0.7862 0.7862 0.929326
669 1 0.715079 0.715079 0.858348
645 1 0.000176626 0.571399 0.85734
646 1 0.0715335 0.642854 0.928694
647 1 0.142926 0.571436 0.857258
648 1 0.214328 0.642855 0.928609
649 1 0.285851 0.571438 0.857094
650 1 0.357186 0.64283 0.92854
651 1 0.42879 0.571497 0.856915
652 1 0.500021 0.642905 0.928713
653 1 0.571699 0.571699 0.857319
654 1 0.64303 0.64303 0.929091
655 1 0.714778 0.571685 0.85785
656 1 0.786074 0.643015 0.929147
657 1 0.857548 0.571461 0.857605
658 1 0.92884 0.642868 0.928872
659 1 0.0003386 0.714388 0.85742
660 1 0.0715845 0.78577 0.928717
661 1 0.142942 0.714322 0.857268
591 1 0.357452 0.50017 0.785398
355 1 0.285755 0.57142 0.99996
357 1 0.428593 0.571386 0.999997
546 1 0.928658 0.500043 0.643039
369 1 0.285703 0.714291 0.999983
545 1 0.786292 0.50048 0.643519
642 1 0.642905 0.500021 0.928713
641 1 0.500062 0.500062 0.92842
640 1 0.357264 0.500036 0.928412
299 1 0.28566 0.999983 0.857241
594 1 0.786203 0.500077 0.786278
593 1 0.64335 0.500459 0.7862
544 1 0.644335 0.500557 0.644462
537 1 0.643024 0.928742 0.500048
517 1 0.785782 0.500569 0.500528
518 1 0.928439 0.500101 0.500091
536 1 0.500101 0.928439 0.500091
523 1 0.644904 0.644904 0.500602
520 1 0.213996 0.643022 0.500206
519 1 0.07134 0.64296 0.500051
512 1 0.0711203 0.50003 0.500095
531 1 0.786337 0.786337 0.50011
530 1 0.643572 0.786466 0.500512
524 1 0.786466 0.643572 0.500512
525 1 0.928742 0.643024 0.500048
529 1 0.500569 0.785782 0.500528
