ITEM: TIMESTEP
224
ITEM: NUMBER OF ATOMS
691
ITEM: BOX BOUNDS pp pp pp
0.0000000000000000e+00 2.2013900999999997e+01
0.0000000000000000e+00 2.2013900999999997e+01
0.0000000000000000e+00 2.2013900999999997e+01
ITEM: ATOMS id type xs ys zs
392 1 0.928631 0.92855 0.499929
2 1 0.0714465 0.0713932 0.0714137
390 1 0.642921 0.92862 0.499882
4 1 0.214265 0.0713813 0.071452
685 3 0.506139 0.521552 0.460493
6 1 0.357154 0.0713763 0.0714563
386 1 0.0714184 0.928591 0.499938
8 1 0.500048 0.0713725 0.071413
385 1 0.928638 0.785716 0.499924
10 1 0.64294 0.0713558 0.0713874
384 1 0.785776 0.785729 0.499928
12 1 0.785822 0.0713478 0.0713665
383 1 0.643012 0.785938 0.499586
14 1 0.928637 0.0713809 0.071384
382 1 0.499742 0.78604 0.499691
16 1 0.0714656 0.214201 0.0714177
343 1 0.857275 0.857194 0.428469
18 1 0.214245 0.214161 0.0714588
342 1 0.714472 0.857411 0.42836
20 1 0.357143 0.214156 0.0714769
341 1 0.571473 0.857405 0.428374
22 1 0.500051 0.214154 0.0714264
340 1 0.428473 0.857483 0.428373
24 1 0.642961 0.214148 0.0713839
339 1 0.28562 0.857377 0.428479
26 1 0.785853 0.214163 0.0713408
338 1 0.142828 0.85722 0.428515
28 1 0.928666 0.214188 0.0713632
337 1 5.36302e-05 0.857162 0.428507
30 1 0.071476 0.357089 0.0714149
336 1 0.85752 0.714412 0.428312
32 1 0.214251 0.357072 0.0714786
335 1 0.71517 0.715187 0.42763
34 1 0.357121 0.35704 0.071478
334 1 0.571857 0.715056 0.427554
36 1 0.500049 0.357043 0.0714216
333 1 0.427893 0.715338 0.427676
38 1 0.642972 0.357045 0.0713035
332 1 0.285329 0.714714 0.428284
40 1 0.785874 0.357052 0.0712728
331 1 0.14281 0.714354 0.428542
42 1 0.92867 0.357077 0.071342
377 1 0.786014 0.643 0.499501
44 1 0.0714773 0.499947 0.0714012
330 1 0.000131406 0.7143 0.428494
46 1 0.214255 0.499954 0.0714531
329 1 0.857519 0.571353 0.428328
48 1 0.35713 0.499981 0.0714424
328 1 0.715708 0.572419 0.42681
50 1 0.50004 0.499981 0.0713095
327 1 0.57615 0.575036 0.421219
52 1 0.642965 0.499973 0.0712024
326 1 0.426026 0.574123 0.426963
54 1 0.785863 0.499956 0.0711791
376 1 0.644551 0.644764 0.496294
56 1 0.928664 0.499938 0.0712991
375 1 0.499091 0.648156 0.498183
58 1 0.0714516 0.642816 0.0713829
325 1 0.285459 0.571702 0.428482
60 1 0.214248 0.642856 0.0714361
324 1 0.142858 0.571465 0.428563
62 1 0.357114 0.642899 0.0713792
63 1 0.428541 0.571422 1.43156e-05
64 1 0.500046 0.642888 0.0712946
374 1 0.35651 0.644105 0.499175
66 1 0.642954 0.642906 0.0711261
370 1 0.78535 0.499506 0.499377
68 1 0.785863 0.642855 0.071142
369 1 0.652449 0.497834 0.496067
70 1 0.928657 0.642817 0.0712856
367 1 0.355068 0.499641 0.499786
72 1 0.0714345 0.785708 0.0713772
323 1 0.00017182 0.571393 0.428521
74 1 0.214233 0.785749 0.0714076
322 1 0.857656 0.42835 0.428281
76 1 0.35714 0.785763 0.0713768
391 1 0.785793 0.92854 0.499924
78 1 0.500033 0.78578 0.07129
364 1 0.928766 0.357031 0.499943
80 1 0.642941 0.785759 0.0712132
363 1 0.786048 0.3568 0.49992
82 1 0.785857 0.785768 0.0711847
362 1 0.64352 0.356896 0.499564
84 1 0.92866 0.785711 0.071287
361 1 0.499854 0.353922 0.499899
86 1 0.0714362 0.928556 0.0714023
321 1 0.716053 0.426686 0.426496
88 1 0.214259 0.928577 0.0714103
89 1 0.285673 0.857193 4.16945e-05
90 1 0.357147 0.928571 0.0713938
320 1 0.573801 0.426585 0.426495
92 1 0.50005 0.928564 0.0713452
319 1 0.42743 0.426416 0.426116
94 1 0.64294 0.928555 0.0712949
318 1 0.285694 0.428283 0.428332
96 1 0.785817 0.928543 0.0712945
317 1 0.142966 0.428536 0.428576
98 1 0.928652 0.928556 0.0713334
99 1 6.38457e-05 0.999972 0.142818
100 1 0.0714702 0.0713957 0.214247
101 1 0.142861 0.999999 0.142826
102 1 0.214288 0.0713983 0.214236
103 1 0.285716 2.94436e-06 0.142837
104 1 0.357174 0.0714039 0.214226
105 1 0.428605 1.19959e-05 0.142815
106 1 0.500049 0.0713852 0.214208
107 1 0.571503 0.999996 0.142773
108 1 0.642953 0.0713727 0.21417
109 1 0.714387 0.999986 0.142748
110 1 0.785843 0.0713668 0.214165
111 1 0.857256 0.99999 0.14275
112 1 0.928689 0.0713774 0.214203
113 1 7.26993e-05 0.142787 0.142806
114 1 0.0714935 0.21422 0.214246
115 1 0.142864 0.142788 0.14282
116 1 0.214296 0.214206 0.214254
117 1 0.285725 0.142777 0.14285
118 1 0.357159 0.214195 0.214232
119 1 0.428601 0.142769 0.142824
120 1 0.500068 0.21419 0.214223
121 1 0.571511 0.142755 0.142787
122 1 0.642986 0.214142 0.214128
123 1 0.714392 0.142753 0.142765
124 1 0.785904 0.214117 0.214095
125 1 0.857276 0.142756 0.142747
126 1 0.928766 0.214165 0.214162
127 1 0.000100849 0.285644 0.142808
128 1 0.0715333 0.357079 0.214226
129 1 0.142886 0.285654 0.142849
130 1 0.214325 0.357069 0.214241
131 1 0.28569 0.285609 0.142852
132 1 0.357101 0.35697 0.214049
133 1 0.42862 0.285619 0.142822
134 1 0.500125 0.357034 0.214091
135 1 0.571517 0.285584 0.14275
136 1 0.643077 0.356932 0.213855
137 1 0.714456 0.285564 0.142675
138 1 0.786024 0.356919 0.213879
139 1 0.857329 0.285595 0.142678
140 1 0.928791 0.357042 0.214111
141 1 0.000116642 0.428508 0.142781
142 1 0.0715203 0.499966 0.214227
143 1 0.142901 0.428512 0.142824
144 1 0.214341 0.499988 0.214265
145 1 0.28573 0.428538 0.142849
146 1 0.357198 0.500044 0.214198
147 1 0.428596 0.428499 0.142694
148 1 0.500167 0.50007 0.213732
149 1 0.571569 0.428479 0.142594
150 1 0.643058 0.500006 0.213842
151 1 0.71446 0.428503 0.14252
152 1 0.786033 0.499944 0.213868
153 1 0.857341 0.428474 0.142627
154 1 0.928806 0.499948 0.214113
155 1 0.000111671 0.571385 0.142777
156 1 0.0715137 0.642838 0.214203
157 1 0.142886 0.571399 0.142829
158 1 0.214285 0.642874 0.214204
159 1 0.28571 0.57143 0.142829
160 1 0.357084 0.642977 0.213996
161 1 0.428595 0.57149 0.142699
162 1 0.500109 0.642914 0.214055
163 1 0.571566 0.571505 0.142564
164 1 0.643163 0.6431 0.213503
165 1 0.714495 0.571426 0.14245
166 1 0.786056 0.642958 0.213798
167 1 0.857342 0.571411 0.142603
168 1 0.928791 0.642853 0.214069
169 1 8.90624e-05 0.714258 0.14275
170 1 0.0714809 0.785735 0.214194
171 1 0.142871 0.71429 0.142801
172 1 0.214215 0.785821 0.214145
173 1 0.28567 0.714356 0.142739
174 1 0.357112 0.785858 0.214081
175 1 0.428611 0.714361 0.142697
176 1 0.500017 0.78587 0.214019
177 1 0.571491 0.714387 0.142546
178 1 0.643 0.785902 0.213908
179 1 0.714507 0.714427 0.142422
180 1 0.786054 0.785982 0.213848
181 1 0.857345 0.714304 0.142586
182 1 0.928792 0.785783 0.214086
183 1 7.86638e-05 0.85717 0.142757
184 1 0.0714652 0.928604 0.214214
185 1 0.142843 0.857175 0.142785
186 1 0.214268 0.928643 0.214208
187 1 0.28569 0.857209 0.142777
188 1 0.357148 0.928643 0.214192
189 1 0.42859 0.857205 0.142731
190 1 0.500034 0.92866 0.214152
191 1 0.571493 0.85722 0.142659
192 1 0.642953 0.928661 0.21411
193 1 0.71442 0.857211 0.142626
194 1 0.785868 0.928671 0.214092
195 1 0.857319 0.857213 0.14263
196 1 0.92871 0.928619 0.214166
197 1 7.8746e-05 0.999994 0.285649
198 1 0.0714892 0.0714227 0.357108
199 1 0.142873 2.30193e-05 0.285672
200 1 0.214308 0.0714435 0.357115
201 1 0.285708 3.66675e-05 0.285636
202 1 0.357154 0.0714296 0.357096
203 1 0.428609 6.31217e-05 0.285606
204 1 0.500061 0.0714111 0.35708
205 1 0.571491 3.32429e-05 0.285585
206 1 0.642959 0.0713773 0.357059
207 1 0.714419 3.96244e-05 0.285573
208 1 0.785837 0.0713665 0.357054
209 1 0.857269 1.53974e-05 0.285616
210 1 0.928666 0.0713891 0.357081
211 1 9.7671e-05 0.142817 0.285657
212 1 0.0715438 0.214245 0.357117
213 1 0.142901 0.142833 0.285712
214 1 0.214327 0.214241 0.357119
215 1 0.2857 0.142787 0.285662
216 1 0.357089 0.214043 0.356998
217 1 0.428644 0.142801 0.28567
218 1 0.500135 0.214133 0.357084
219 1 0.571495 0.142768 0.285628
220 1 0.643043 0.213961 0.356957
221 1 0.714434 0.142722 0.285571
222 1 0.785984 0.214008 0.356931
223 1 0.857313 0.142745 0.285608
224 1 0.928742 0.214181 0.35705
225 1 0.000176794 0.285616 0.285608
226 1 0.0715878 0.357097 0.357128
227 1 0.142913 0.285629 0.285659
228 1 0.214246 0.357044 0.357066
229 1 0.285619 0.285504 0.285537
230 1 0.356827 0.356633 0.356649
231 1 0.428664 0.285561 0.285567
232 1 0.500316 0.356949 0.356937
233 1 0.571545 0.285482 0.285469
234 1 0.643531 0.356322 0.356272
235 1 0.714631 0.285333 0.285297
236 1 0.786552 0.356463 0.356398
237 1 0.857517 0.285419 0.285398
238 1 0.928897 0.357 0.356984
239 1 0.000207921 0.428523 0.285601
240 1 0.0716082 0.499967 0.357096
241 1 0.142972 0.428549 0.285708
242 1 0.214376 0.499983 0.357138
243 1 0.285768 0.428576 0.285637
244 1 0.357356 0.500029 0.357103
245 1 0.428481 0.428284 0.285214
246 1 0.500131 0.499784 0.354226
247 1 0.571852 0.428322 0.285219
248 1 0.643964 0.49938 0.356121
249 1 0.714817 0.428242 0.284887
250 1 0.786359 0.499852 0.356477
251 1 0.85752 0.428446 0.285394
252 1 0.928883 0.499943 0.356934
253 1 0.00020441 0.571383 0.285574
254 1 0.0715272 0.642862 0.357094
255 1 0.142938 0.571404 0.285676
256 1 0.214123 0.642989 0.357022
257 1 0.285706 0.571421 0.285603
258 1 0.356469 0.6436 0.356358
259 1 0.428506 0.571699 0.285421
260 1 0.499764 0.64333 0.356853
261 1 0.572017 0.571812 0.285409
262 1 0.644689 0.64466 0.354951
263 1 0.714841 0.571465 0.284878
264 1 0.786644 0.643295 0.356346
265 1 0.857515 0.571422 0.285368
266 1 0.92886 0.64287 0.356967
267 1 0.000165412 0.714317 0.28557
268 1 0.0714844 0.785755 0.357064
269 1 0.142835 0.714354 0.285621
270 1 0.214136 0.785908 0.356975
271 1 0.285475 0.714573 0.285378
272 1 0.35688 0.78619 0.356767
273 1 0.428519 0.714562 0.285328
274 1 0.49999 0.786073 0.356775
275 1 0.571464 0.714615 0.285172
276 1 0.643173 0.786354 0.356579
277 1 0.715079 0.715022 0.284683
278 1 0.786185 0.786114 0.356686
279 1 0.857574 0.714502 0.285323
280 1 0.928777 0.785783 0.356986
281 1 0.00011584 0.857188 0.285604
282 1 0.0714671 0.92859 0.357086
283 1 0.142841 0.857218 0.285623
284 1 0.21426 0.928658 0.357071
285 1 0.285619 0.857346 0.285543
286 1 0.357103 0.928734 0.357015
287 1 0.428566 0.857313 0.285518
288 1 0.500053 0.928709 0.356999
289 1 0.571485 0.857353 0.285462
290 1 0.642933 0.928728 0.356978
291 1 0.714524 0.857419 0.285376
292 1 0.785881 0.9287 0.356988
293 1 0.857374 0.857291 0.2855
294 1 0.928676 0.928594 0.357055
295 1 5.77586e-05 0.999988 0.42851
296 1 0.142862 3.59395e-05 0.428524
297 1 0.285709 6.76167e-05 0.428529
298 1 0.428581 9.06184e-05 0.428515
299 1 0.57149 2.20435e-05 0.428492
300 1 0.714381 2.67682e-05 0.428497
301 1 0.857246 0.99997 0.428485
302 1 9.00413e-05 0.142802 0.428524
303 1 0.142899 0.142839 0.428537
304 1 0.285751 0.142823 0.428568
305 1 0.428591 0.142698 0.428536
306 1 0.571575 0.142689 0.428513
307 1 0.714398 0.142694 0.428533
308 1 0.857284 0.142748 0.428493
309 1 0.000170098 0.28566 0.42854
310 1 0.14295 0.285705 0.428587
311 1 0.285823 0.285688 0.428647
312 1 0.428385 0.285224 0.428273
313 1 0.571866 0.285362 0.428402
314 1 0.714661 0.285164 0.428326
315 1 0.857414 0.285529 0.428462
316 1 0.000219083 0.42851 0.428516
344 1 0.071464 0.0714056 0.499948
87 1 0.142796 0.857157 2.46913e-05
75 1 0.285642 0.714318 5.26768e-05
73 1 0.142792 0.714289 2.05695e-05
61 1 0.285622 0.571426 9.17751e-05
59 1 0.142802 0.571402 4.64996e-05
345 1 0.214283 0.0714336 0.499971
389 1 0.499988 0.928677 0.499915
49 1 0.428526 0.428473 0.000163038
47 1 0.285652 0.428494 0.000144983
45 1 0.142807 0.428508 7.0704e-05
388 1 0.357086 0.928723 0.499961
347 1 0.500057 0.0713202 0.499999
37 1 0.571507 0.285549 8.67822e-05
35 1 0.428561 0.285549 0.000154724
33 1 0.28564 0.285555 0.000117955
31 1 0.14281 0.285611 6.90218e-05
387 1 0.21423 0.92866 0.49996
349 1 0.785822 0.071316 0.499944
350 1 0.928664 0.0713698 0.499932
23 1 0.571503 0.142719 5.10484e-05
21 1 0.428592 0.142726 9.49713e-05
19 1 0.285674 0.142746 8.93033e-05
17 1 0.142811 0.142768 6.41636e-05
5 1 0.285689 0.999951 2.8054e-05
3 1 0.142828 0.999969 1.43666e-05
351 1 0.0715073 0.214257 0.499971
356 1 0.785929 0.214061 0.499965
357 1 0.928713 0.214187 0.499941
381 1 0.356948 0.78615 0.49992
371 1 0.928671 0.49989 0.499878
378 1 0.928738 0.642855 0.499856
379 1 0.071394 0.785761 0.499957
348 1 0.64295 0.071354 0.499975
7 1 0.428593 0.999937 3.66911e-07
380 1 0.214147 0.785901 0.499996
39 1 0.71441 0.285565 1.23244e-06
372 1 0.0714739 0.642855 0.499998
358 1 0.0715508 0.357103 0.499973
346 1 0.357143 0.071396 0.499979
53 1 0.714388 0.428507 0.999894
51 1 0.571495 0.428481 0.999999
41 1 0.857253 0.285616 0.999958
690 3 0.603429 0.594014 0.568829
1 1 2.21503e-05 0.999961 0.999955
77 1 0.428558 0.714335 0.999986
665 1 0.428464 0.714388 0.85735
664 1 0.357075 0.785779 0.928668
97 1 0.857216 0.857122 0.999875
689 3 0.498464 0.542502 0.532305
688 3 0.467621 0.477381 0.504572
687 3 0.542064 0.570805 0.594865
663 1 0.285486 0.714431 0.857447
662 1 0.214153 0.785783 0.928681
661 1 0.142696 0.714335 0.857237
359 1 0.21442 0.357148 0.50007
360 1 0.357527 0.357218 0.500204
686 3 0.571196 0.538892 0.536552
684 1 0.785775 0.928502 0.928484
683 1 0.714315 0.857046 0.857025
682 1 0.642902 0.928493 0.928512
365 1 0.071504 0.500008 0.500011
681 1 0.571446 0.85708 0.857081
680 1 0.500044 0.928545 0.928563
368 1 0.928611 0.928535 0.928511
679 1 0.428546 0.857161 0.857191
678 1 0.357115 0.928575 0.928629
660 1 0.0713525 0.785697 0.928578
355 1 0.642942 0.214154 0.500104
677 1 0.285575 0.857246 0.857273
676 1 0.214205 0.928597 0.928637
675 1 0.142712 0.857228 0.857225
674 1 0.0713758 0.928583 0.928589
673 1 0.999949 0.857132 0.857109
659 1 0.999915 0.71425 0.857089
658 1 0.928565 0.642803 0.928451
657 1 0.857105 0.571357 0.856991
656 1 0.785735 0.642784 0.92836
672 1 0.928579 0.78566 0.928473
671 1 0.857105 0.714195 0.856996
670 1 0.78577 0.785677 0.928438
669 1 0.714339 0.714284 0.857092
668 1 0.642871 0.785669 0.928425
655 1 0.714211 0.571269 0.856912
654 1 0.642884 0.642839 0.928478
653 1 0.571343 0.571307 0.857388
667 1 0.571326 0.714195 0.857052
652 1 0.499949 0.642857 0.928568
666 1 0.499999 0.785728 0.928532
393 1 2.68362e-05 0.999973 0.571366
394 1 0.0714184 0.0713833 0.642815
395 1 0.14282 2.15009e-05 0.571394
396 1 0.214233 0.0713987 0.642845
397 1 0.285661 4.9652e-05 0.571418
398 1 0.357079 0.071286 0.64292
399 1 0.428562 0.999974 0.571421
400 1 0.500041 0.071244 0.642901
401 1 0.571484 0.999954 0.571407
402 1 0.642962 0.0711807 0.642897
403 1 0.714366 0.999896 0.571368
404 1 0.785818 0.0712445 0.642818
405 1 0.857205 0.999909 0.571355
406 1 0.928649 0.0713325 0.642803
407 1 7.00282e-05 0.142796 0.571376
408 1 0.0714626 0.214219 0.642835
409 1 0.142872 0.142829 0.571399
410 1 0.214195 0.214145 0.642891
411 1 0.285667 0.14277 0.571442
412 1 0.35695 0.213844 0.643119
413 1 0.42855 0.142588 0.571525
414 1 0.500031 0.2137 0.643123
415 1 0.571546 0.142682 0.571552
416 1 0.643108 0.213657 0.643169
417 1 0.714452 0.142632 0.571417
418 1 0.785959 0.213987 0.642898
419 1 0.85728 0.142721 0.571382
420 1 0.9287 0.214166 0.642816
421 1 0.000109402 0.285637 0.571388
422 1 0.0714071 0.357073 0.64287
423 1 0.142882 0.285652 0.571428
424 1 0.214041 0.356975 0.643049
425 1 0.285661 0.285559 0.571478
426 1 0.356209 0.356076 0.64392
427 1 0.428309 0.285052 0.571899
428 1 0.498731 0.35527 0.644894
429 1 0.571818 0.285792 0.572159
430 1 0.644684 0.355106 0.645042
431 1 0.714613 0.285237 0.571473
432 1 0.786267 0.356703 0.643099
433 1 0.857362 0.285499 0.571396
434 1 0.928704 0.357063 0.642802
435 1 4.19873e-05 0.428534 0.571369
436 1 0.0714066 0.49999 0.642875
437 1 0.142887 0.428531 0.57151
438 1 0.214148 0.499979 0.643006
439 1 0.285598 0.428316 0.571844
440 1 0.35635 0.498847 0.644332
441 1 0.427188 0.42627 0.575153
442 1 0.497899 0.496082 0.648307
443 1 0.572825 0.418573 0.576888
444 1 0.642501 0.498253 0.642589
445 1 0.714357 0.42752 0.572069
446 1 0.785442 0.499624 0.642685
447 1 0.857168 0.428489 0.57129
448 1 0.92856 0.499898 0.642781
449 1 6.69348e-05 0.571381 0.571359
450 1 0.0713161 0.642866 0.642866
451 1 0.142904 0.571455 0.571514
452 1 0.213889 0.643038 0.64311
453 1 0.286149 0.571759 0.571896
454 1 0.355232 0.644825 0.644985
455 1 0.418026 0.574124 0.57441
456 1 0.497655 0.644402 0.643643
457 1 0.857178 0.857094 0.857052
458 1 0.643694 0.644138 0.644933
459 1 0.716424 0.571472 0.571216
460 1 0.785739 0.642926 0.642878
461 1 0.857329 0.571244 0.571184
462 1 0.928529 0.64281 0.642759
463 1 0.999975 0.714282 0.571373
464 1 0.0713248 0.785749 0.642838
465 1 0.142734 0.714411 0.571468
466 1 0.214042 0.785918 0.642933
467 1 0.285329 0.714665 0.571533
468 1 0.356809 0.786213 0.643073
469 1 0.427861 0.714632 0.57156
470 1 0.49964 0.78582 0.642851
471 1 0.571249 0.71628 0.571285
472 1 0.642899 0.78572 0.642893
473 1 0.713906 0.713904 0.571155
474 1 0.785635 0.785566 0.642654
475 1 0.857092 0.71418 0.571298
476 1 0.92852 0.78566 0.642748
477 1 0.999989 0.857131 0.571353
478 1 0.0713785 0.928595 0.642821
479 1 0.142779 0.857222 0.571411
480 1 0.214178 0.928665 0.642867
481 1 0.28554 0.857362 0.571425
482 1 0.357061 0.9287 0.642893
483 1 0.428491 0.857289 0.571394
484 1 0.499979 0.928563 0.642863
485 1 0.571398 0.857385 0.571333
486 1 0.642896 0.928491 0.642817
487 1 0.714271 0.857019 0.571296
488 1 0.785753 0.92846 0.642742
489 1 0.857164 0.857094 0.571323
490 1 0.928579 0.928519 0.642782
491 1 2.02013e-06 0.999961 0.714227
492 1 0.071397 0.0713723 0.785698
493 1 0.142785 0.999993 0.714275
494 1 0.214189 0.0713541 0.785786
495 1 0.285636 0.999995 0.714331
496 1 0.357078 0.07126 0.785838
497 1 0.428544 0.999926 0.714337
498 1 0.500026 0.0712 0.785829
499 1 0.57148 0.999819 0.71429
500 1 0.642953 0.0711868 0.78578
501 1 0.714367 0.999837 0.714245
502 1 0.785851 0.0712183 0.785739
503 1 0.857195 0.999872 0.714211
504 1 0.928644 0.0713192 0.78568
505 1 4.39437e-05 0.142761 0.71426
506 1 0.0714055 0.214164 0.785735
507 1 0.142796 0.142782 0.714306
508 1 0.214055 0.21402 0.785907
509 1 0.285579 0.142616 0.714402
510 1 0.356893 0.213817 0.786097
511 1 0.428514 0.142502 0.714497
512 1 0.499973 0.213832 0.786077
513 1 0.571505 0.14247 0.714488
514 1 0.643047 0.213854 0.786016
515 1 0.714494 0.14247 0.714416
516 1 0.786048 0.21391 0.785954
517 1 0.857294 0.142669 0.714286
518 1 0.928694 0.214123 0.785752
519 1 6.72339e-05 0.285625 0.714266
520 1 0.0713546 0.357054 0.785764
521 1 0.142694 0.285564 0.714381
522 1 0.213965 0.356908 0.786045
523 1 0.285293 0.285235 0.714728
524 1 0.356589 0.356511 0.786541
525 1 0.427989 0.284682 0.715209
526 1 0.499916 0.356571 0.786569
527 1 0.571547 0.284921 0.715005
528 1 0.643143 0.356623 0.786411
529 1 0.715027 0.284848 0.715027
530 1 0.785904 0.356968 0.78583
531 1 0.857442 0.285463 0.714396
532 1 0.928637 0.357072 0.785707
533 1 0.999986 0.428516 0.714262
534 1 0.0713188 0.499957 0.785745
535 1 0.142688 0.428511 0.714418
536 1 0.214013 0.499945 0.786008
537 1 0.285094 0.428111 0.714966
538 1 0.356833 0.499916 0.786316
539 1 0.427398 0.427174 0.716162
540 1 0.499626 0.499496 0.786215
541 1 0.571754 0.42745 0.715081
542 1 0.642843 0.499639 0.785536
543 1 0.714421 0.428368 0.714499
544 1 0.785676 0.499941 0.785587
545 1 0.857225 0.428479 0.71425
546 1 0.928533 0.499958 0.785635
547 1 0.99992 0.571376 0.714233
548 1 0.0712807 0.642842 0.785736
549 1 0.142664 0.571422 0.714438
550 1 0.21403 0.642915 0.78597
551 1 0.285345 0.571449 0.714774
552 1 0.356818 0.642989 0.786242
553 1 0.428056 0.57143 0.714517
554 1 0.499655 0.642835 0.78571
555 1 0.571246 0.571124 0.716319
556 1 0.64288 0.642859 0.785837
557 1 0.713767 0.570932 0.713744
558 1 0.785576 0.642653 0.785478
559 1 0.856969 0.571297 0.714048
560 1 0.928463 0.642762 0.785588
561 1 0.999916 0.714269 0.71423
562 1 0.0712719 0.785761 0.785744
563 1 0.142561 0.714411 0.71442
564 1 0.213934 0.786007 0.786018
565 1 0.284948 0.714941 0.714992
566 1 0.356913 0.785984 0.786008
567 1 0.428046 0.714818 0.714847
568 1 0.499939 0.785762 0.785771
569 1 0.571034 0.714048 0.714107
570 1 0.642786 0.7856 0.785593
571 1 0.714487 0.714469 0.714483
572 1 0.785771 0.785704 0.785672
573 1 0.857177 0.714259 0.714204
574 1 0.928563 0.785684 0.78564
575 1 0.999935 0.85712 0.714239
576 1 0.0713558 0.928571 0.785695
577 1 0.142709 0.857242 0.714326
578 1 0.214152 0.928644 0.7858
579 1 0.285504 0.857414 0.714461
580 1 0.357069 0.92862 0.785793
581 1 0.428461 0.857322 0.714407
582 1 0.50002 0.928505 0.785725
583 1 0.571381 0.857049 0.714201
584 1 0.642876 0.928434 0.785645
585 1 0.714325 0.857096 0.714227
586 1 0.785776 0.928475 0.785653
587 1 0.857138 0.85706 0.714168
588 1 0.928571 0.928502 0.785641
589 1 0.999994 0.999952 0.85712
590 1 0.0713909 0.0713516 0.928588
591 1 0.142774 0.999978 0.857191
592 1 0.214222 0.0713293 0.928637
593 1 0.285639 0.999963 0.857243
594 1 0.357116 0.0713032 0.928658
595 1 0.428577 0.999915 0.857218
596 1 0.500046 0.0712753 0.928636
597 1 0.571487 0.999874 0.857167
598 1 0.642948 0.0712654 0.92858
599 1 0.714363 0.999864 0.857112
600 1 0.785812 0.0712841 0.928557
601 1 0.857212 0.999886 0.857109
602 1 0.928655 0.0713191 0.928557
603 1 3.54403e-05 0.142747 0.857161
604 1 0.0713898 0.214194 0.928618
605 1 0.142775 0.14274 0.857201
606 1 0.214183 0.214123 0.928719
607 1 0.28558 0.142624 0.857324
608 1 0.35705 0.214072 0.928797
609 1 0.428545 0.142602 0.857317
610 1 0.500029 0.214059 0.928769
611 1 0.571509 0.142588 0.857293
612 1 0.642991 0.21406 0.928705
613 1 0.714432 0.142605 0.857244
614 1 0.785877 0.214104 0.92865
615 1 0.857307 0.142676 0.857187
616 1 0.928653 0.21419 0.928573
617 1 6.04662e-06 0.285629 0.85717
618 1 0.0713717 0.35706 0.928612
619 1 0.142721 0.285558 0.857263
620 1 0.214165 0.357009 0.928747
621 1 0.285449 0.285403 0.857529
622 1 0.35698 0.356914 0.928925
623 1 0.428447 0.28534 0.857587
624 1 0.500024 0.356925 0.928847
625 1 0.571506 0.285363 0.857518
626 1 0.64295 0.356975 0.92872
627 1 0.714528 0.285406 0.857423
628 1 0.785832 0.357044 0.928564
629 1 0.85728 0.285577 0.857181
630 1 0.928639 0.357074 0.928529
631 1 0.999964 0.428506 0.85713
632 1 0.071363 0.499956 0.928594
633 1 0.142736 0.428507 0.857255
634 1 0.214148 0.499953 0.928735
635 1 0.285457 0.428429 0.857522
636 1 0.357013 0.499977 0.928833
637 1 0.428351 0.428278 0.857797
638 1 0.499932 0.499897 0.928727
639 1 0.571444 0.428365 0.857425
640 1 0.642914 0.499894 0.928506
641 1 0.714391 0.428456 0.857206
642 1 0.785763 0.499954 0.928439
643 1 0.857198 0.42852 0.857077
644 1 0.928589 0.49995 0.928482
645 1 0.999931 0.571382 0.8571
646 1 0.0713433 0.64284 0.928569
647 1 0.142716 0.571412 0.857252
648 1 0.21416 0.64288 0.928695
649 1 0.285469 0.571436 0.857452
650 1 0.357037 0.642887 0.928745
651 1 0.428467 0.571377 0.857337
95 1 0.714358 0.85712 0.999845
691 3 0.539628 0.477614 0.510719
93 1 0.57148 0.857146 0.999899
353 1 0.357188 0.214186 0.500049
11 1 0.714373 0.99991 0.999924
13 1 0.857216 0.999932 0.999936
15 1 4.13953e-05 0.142778 0.999994
43 1 3.23835e-05 0.428512 0.999943
55 1 0.857238 0.428501 0.999882
57 1 2.04385e-05 0.571379 0.999927
65 1 0.571467 0.571421 0.999917
67 1 0.71436 0.571389 0.999766
373 1 0.214235 0.642926 0.500105
69 1 0.857218 0.571384 0.999826
71 1 3.27692e-06 0.714246 0.999924
79 1 0.57146 0.71429 0.999838
366 1 0.214179 0.500047 0.500188
81 1 0.714373 0.71429 0.999782
83 1 0.857208 0.714236 0.999815
85 1 6.56411e-06 0.857118 0.999947
354 1 0.500148 0.213736 0.500177
25 1 0.714395 0.142719 0.999996
91 1 0.428582 0.857172 0.999984
9 1 0.571493 0.99992 0.999957
27 1 0.857256 0.142744 0.99999
29 1 3.91804e-05 0.285633 0.999958
352 1 0.214308 0.214238 0.500011
