ITEM: TIMESTEP
622
ITEM: NUMBER OF ATOMS
687
ITEM: BOX BOUNDS pp pp pp
0.0000000000000000e+00 2.2013900999999997e+01
0.0000000000000000e+00 2.2013900999999997e+01
0.0000000000000000e+00 2.2013900999999997e+01
ITEM: ATOMS id type xs ys zs
126 1 0.857004 0.428595 0.28575
2 1 0.0714187 0.0714332 0.0714332
125 1 0.714019 0.42869 0.285896
4 1 0.21429 0.0714356 0.0714356
124 1 0.571394 0.428534 0.285903
6 1 0.357166 0.0714317 0.0714317
123 1 0.428362 0.428472 0.285641
8 1 0.500024 0.0714297 0.0714297
122 1 0.285731 0.428651 0.285804
10 1 0.642821 0.071449 0.071449
121 1 0.142826 0.428609 0.285737
12 1 0.78569 0.0714363 0.0714365
120 1 0.999915 0.428586 0.285735
14 1 0.928566 0.071436 0.071436
98 1 0.857073 0.428579 0.142895
16 1 0.0714107 0.214277 0.0714363
97 1 0.714224 0.428585 0.14295
18 1 0.214303 0.214297 0.0714432
96 1 0.57143 0.428551 0.142887
20 1 0.357167 0.214316 0.0714643
60 1 0.714274 4.47666e-07 0.14288
22 1 0.500012 0.214312 0.071455
95 1 0.428524 0.428533 0.142828
24 1 0.642813 0.214319 0.071481
94 1 0.2857 0.428579 0.142895
26 1 0.785682 0.21431 0.0714599
93 1 0.142845 0.428565 0.142854
28 1 0.928547 0.214286 0.0714368
107 1 0.142865 0.142889 0.285735
30 1 0.0714114 0.35715 0.0714386
106 1 0.99996 0.142865 0.285714
32 1 0.214281 0.357138 0.0714379
108 1 0.285708 0.142885 0.285718
34 1 0.357131 0.357123 0.0714287
13 1 0.857097 2.35457e-06 2.25711e-06
36 1 0.500008 0.357145 0.0714705
48 1 0.714243 0.428592 2.3116e-07
38 1 0.64285 0.357139 0.0714495
109 1 0.428591 0.142934 0.285757
40 1 0.785669 0.357174 0.0714587
103 1 0.571413 6.05812e-09 0.28574
42 1 0.92853 0.357158 0.071436
92 1 0.999959 0.428585 0.14286
110 1 0.571386 0.142948 0.285765
111 1 0.714227 0.142928 0.285752
102 1 0.428587 6.83248e-08 0.285738
33 1 0.28571 0.285714 1.66582e-07
398 1 0.7856 0.499999 0.214364
112 1 0.857084 0.142893 0.285748
119 1 0.857034 0.285746 0.285746
51 1 0.0714107 0.0714362 0.214277
118 1 0.714044 0.28591 0.28591
53 1 0.214302 0.0714433 0.214297
117 1 0.571213 0.285997 0.285997
55 1 0.357167 0.0714643 0.214316
116 1 0.428694 0.285927 0.285927
57 1 0.500011 0.071455 0.214312
115 1 0.285743 0.285798 0.285798
59 1 0.642813 0.071481 0.214319
114 1 0.142836 0.285715 0.285715
61 1 0.785682 0.0714599 0.21431
113 1 0.999961 0.285704 0.285704
63 1 0.928547 0.0714368 0.214286
64 1 0.999986 0.142853 0.142853
65 1 0.0713966 0.214296 0.214296
66 1 0.142876 0.142878 0.142878
67 1 0.214295 0.214329 0.214329
68 1 0.285735 0.14287 0.14287
69 1 0.357178 0.214351 0.214351
70 1 0.428593 0.142886 0.142886
71 1 0.499992 0.214358 0.214358
72 1 0.571417 0.14289 0.14289
73 1 0.642769 0.214385 0.214385
74 1 0.714235 0.1429 0.1429
75 1 0.785618 0.214365 0.214365
76 1 0.857101 0.142891 0.142891
77 1 0.928507 0.214313 0.214313
78 1 0.99996 0.285714 0.142865
79 1 0.0714038 0.357159 0.214297
80 1 0.142865 0.285735 0.142889
81 1 0.214282 0.357151 0.214308
82 1 0.285708 0.285718 0.142885
83 1 0.357095 0.357132 0.214304
84 1 0.428591 0.285757 0.142934
85 1 0.499957 0.357252 0.214503
86 1 0.571386 0.285765 0.142948
87 1 0.642789 0.357188 0.214412
88 1 0.714227 0.285752 0.142928
89 1 0.785609 0.357194 0.214363
90 1 0.857083 0.285748 0.142893
91 1 0.928496 0.357166 0.21431
45 1 0.285721 0.428583 2.53347e-07
101 1 0.28571 1.71396e-07 0.285714
344 1 0.0714144 0.5 0.0714224
50 1 0.99998 4.28011e-07 0.142855
25 1 0.714274 0.142881 3.92355e-07
397 1 0.642704 0.499999 0.214498
15 1 0.99998 0.142855 3.48938e-07
100 1 0.142844 1.58621e-07 0.28572
105 1 0.857096 4.52494e-07 0.285743
393 1 0.0713835 0.5 0.214298
62 1 0.85709 4.48973e-07 0.142872
99 1 0.999974 2.72787e-07 0.28572
104 1 0.714271 1.29417e-06 0.28573
35 1 0.428587 0.285738 3.22858e-08
39 1 0.714271 0.28573 1.32945e-06
29 1 0.999973 0.285721 2.08204e-07
31 1 0.142844 0.28572 1.0737e-07
37 1 0.571413 0.28574 5.38832e-09
44 1 0.142838 0.428572 2.28053e-07
27 1 0.85709 0.142872 4.85519e-07
9 1 0.571424 3.12618e-07 2.94435e-07
3 1 0.142861 5.64568e-07 5.59875e-07
1 1 0.999976 3.03912e-07 3.19888e-07
5 1 0.285742 3.47599e-07 2.91121e-07
49 1 0.857112 0.428565 1.74909e-06
41 1 0.857096 0.285743 4.87069e-07
127 1 0.0714115 0.0714386 0.35715
128 1 0.214281 0.0714378 0.357138
129 1 0.357131 0.0714287 0.357123
130 1 0.500008 0.0714706 0.357145
131 1 0.64285 0.0714495 0.357139
132 1 0.785669 0.0714588 0.357174
133 1 0.92853 0.0714362 0.357159
134 1 0.0714038 0.214297 0.357159
135 1 0.214282 0.214308 0.357151
136 1 0.357095 0.214304 0.357132
137 1 0.499957 0.214503 0.357252
138 1 0.642789 0.214412 0.357188
139 1 0.785609 0.214363 0.357194
140 1 0.928496 0.21431 0.357166
141 1 0.0713549 0.357134 0.357134
142 1 0.2143 0.357169 0.357169
143 1 0.357274 0.357365 0.357365
144 1 0.499832 0.358228 0.358228
145 1 0.642286 0.357649 0.357649
146 1 0.785529 0.357182 0.357182
147 1 0.928468 0.357143 0.357143
245 1 0.85704 0.428547 0.571457
149 1 0.0714144 0.0714227 0.499999
244 1 0.714059 0.428504 0.5715
151 1 0.214281 0.0714407 0.5
243 1 0.570071 0.42987 0.570139
153 1 0.35712 0.0714283 0.5
493 1 0.35456 0.499998 0.499998
155 1 0.500008 0.071387 0.5
687 2 0.509056 0.5 0.5
157 1 0.642793 0.0714573 0.5
463 1 0.0713811 0.5 0.357147
159 1 0.785664 0.0714429 0.5
242 1 0.42894 0.429216 0.570785
161 1 0.928537 0.0714457 0.5
162 1 0.999959 0.14286 0.428585
163 1 0.0713835 0.214298 0.5
164 1 0.142845 0.142854 0.428565
165 1 0.214277 0.214317 0.5
166 1 0.2857 0.142895 0.428579
167 1 0.35712 0.214324 0.5
168 1 0.428524 0.142828 0.428533
169 1 0.499947 0.213983 0.5
170 1 0.57143 0.142887 0.428551
171 1 0.642704 0.214498 0.499999
172 1 0.714224 0.14295 0.428585
173 1 0.7856 0.214364 0.499999
174 1 0.857072 0.142895 0.428579
175 1 0.928492 0.214302 0.5
176 1 0.999915 0.285735 0.428586
177 1 0.0713811 0.357147 0.5
178 1 0.142826 0.285737 0.428609
179 1 0.214362 0.357253 0.5
180 1 0.285731 0.285804 0.428651
181 1 0.357538 0.357475 0.5
182 1 0.428362 0.285641 0.428472
183 1 0.499794 0.355061 0.500001
184 1 0.571394 0.285903 0.428534
185 1 0.642057 0.357847 0.5
186 1 0.714019 0.285896 0.42869
187 1 0.785459 0.357256 0.5
188 1 0.857004 0.28575 0.428595
189 1 0.928485 0.357158 0.5
190 1 0.999926 0.428543 0.428543
191 1 0.142766 0.428525 0.428525
192 1 0.285859 0.42855 0.42855
193 1 0.428939 0.429216 0.429216
194 1 0.570075 0.429862 0.429861
195 1 0.714059 0.428502 0.428502
196 1 0.85704 0.428545 0.428545
241 1 0.285859 0.428551 0.57145
198 1 0.0714115 0.0714383 0.64285
240 1 0.142766 0.428525 0.571475
200 1 0.214281 0.071438 0.642862
239 1 0.999924 0.428544 0.571457
202 1 0.357131 0.0714292 0.642877
468 1 0.785459 0.5 0.357256
204 1 0.500009 0.0714703 0.642854
545 1 0.785458 0.499999 0.642743
206 1 0.64285 0.0714493 0.642862
540 1 0.0713808 0.5 0.642853
208 1 0.785668 0.0714598 0.642826
238 1 0.928468 0.357143 0.642857
210 1 0.92853 0.0714355 0.642842
211 1 0.999959 0.14286 0.571415
212 1 0.0714038 0.214297 0.642841
213 1 0.142845 0.142854 0.571436
214 1 0.214283 0.214308 0.642849
215 1 0.2857 0.142895 0.571421
216 1 0.357096 0.214304 0.642868
217 1 0.428524 0.142828 0.571466
218 1 0.499956 0.214504 0.642747
219 1 0.571431 0.142888 0.571448
220 1 0.642789 0.214412 0.642814
221 1 0.714222 0.142951 0.571415
222 1 0.78561 0.214362 0.642807
223 1 0.857072 0.142897 0.571421
224 1 0.928496 0.21431 0.642834
225 1 0.999915 0.285734 0.571414
226 1 0.0713548 0.357134 0.642866
227 1 0.142827 0.285737 0.571391
228 1 0.214299 0.357169 0.642831
229 1 0.285731 0.285804 0.571349
230 1 0.357274 0.357366 0.642634
231 1 0.428364 0.285641 0.571529
232 1 0.499834 0.35823 0.641769
233 1 0.571394 0.285904 0.571468
234 1 0.642286 0.357647 0.642348
235 1 0.71402 0.285894 0.571311
236 1 0.785531 0.357181 0.642817
237 1 0.857004 0.28575 0.571406
152 1 0.285721 2.59671e-07 0.428583
464 1 0.214362 0.5 0.357253
207 1 0.714243 3.2372e-07 0.571407
201 1 0.285721 2.92176e-07 0.571416
492 1 0.213786 0.5 0.5
158 1 0.714243 2.59529e-07 0.428592
497 1 0.928473 0.5 0.5
541 1 0.214362 0.499999 0.642747
544 1 0.642056 0.499999 0.642157
491 1 0.0712757 0.499999 0.499999
160 1 0.857112 1.8165e-06 0.428565
209 1 0.857111 1.75395e-06 0.571435
150 1 0.142838 2.38245e-07 0.428572
199 1 0.142838 8.72761e-08 0.571428
343 1 0.857072 0.428579 0.857107
247 1 0.0714108 0.0714362 0.785723
342 1 0.714219 0.428589 0.857038
249 1 0.214303 0.0714428 0.785703
341 1 0.571431 0.42855 0.857115
251 1 0.357167 0.071464 0.785684
246 1 0.999974 8.04622e-08 0.714278
253 1 0.500011 0.0714554 0.785687
295 1 0.99998 1.33684e-07 0.857145
255 1 0.642813 0.0714816 0.785682
340 1 0.428524 0.428533 0.857172
257 1 0.785682 0.0714617 0.785687
339 1 0.285701 0.428579 0.857105
259 1 0.928546 0.0714372 0.785714
260 1 0.99996 0.142865 0.714285
261 1 0.0713961 0.214295 0.785705
262 1 0.142864 0.142889 0.714265
263 1 0.214296 0.21433 0.785672
264 1 0.285708 0.142885 0.714282
265 1 0.357178 0.214352 0.785648
266 1 0.42859 0.142933 0.714243
267 1 0.499992 0.214357 0.785643
268 1 0.571386 0.142948 0.714235
269 1 0.642769 0.214385 0.785616
270 1 0.71423 0.142925 0.714248
271 1 0.785618 0.214365 0.785635
272 1 0.857083 0.142893 0.714252
273 1 0.928507 0.214313 0.785686
274 1 0.99996 0.285705 0.714297
275 1 0.071404 0.357159 0.785703
276 1 0.142837 0.285715 0.714285
277 1 0.214282 0.357151 0.785692
278 1 0.285743 0.285798 0.714202
279 1 0.357095 0.357132 0.785696
280 1 0.428694 0.285929 0.714071
281 1 0.499956 0.357252 0.785496
282 1 0.571205 0.286003 0.713996
283 1 0.642789 0.357187 0.785589
284 1 0.714043 0.285911 0.714089
285 1 0.785608 0.357193 0.785637
286 1 0.857033 0.285746 0.714253
287 1 0.928496 0.357165 0.785689
288 1 0.999915 0.428586 0.714266
289 1 0.142826 0.428609 0.714263
290 1 0.28573 0.428651 0.714196
291 1 0.428364 0.42847 0.714359
292 1 0.571391 0.428531 0.714095
293 1 0.714021 0.42869 0.714106
294 1 0.857004 0.428593 0.714249
338 1 0.142846 0.428565 0.857145
296 1 0.0714186 0.0714333 0.928567
337 1 0.999959 0.428585 0.85714
298 1 0.21429 0.0714355 0.928564
336 1 0.928529 0.357158 0.928564
300 1 0.357166 0.0714316 0.928569
335 1 0.857083 0.285748 0.857108
302 1 0.500023 0.0714304 0.928569
334 1 0.785668 0.357176 0.92854
304 1 0.642821 0.0714489 0.928553
333 1 0.71423 0.285752 0.857075
306 1 0.785688 0.071435 0.928563
332 1 0.642849 0.357138 0.928551
308 1 0.928565 0.0714362 0.928564
309 1 0.999984 0.142854 0.857146
310 1 0.0714114 0.214277 0.928564
311 1 0.142876 0.142878 0.857122
312 1 0.214303 0.214297 0.928557
313 1 0.285735 0.14287 0.85713
314 1 0.357166 0.214315 0.928536
315 1 0.428593 0.142886 0.857114
316 1 0.500012 0.214313 0.928545
317 1 0.571418 0.142889 0.85711
318 1 0.642813 0.214319 0.928518
319 1 0.714235 0.142901 0.857099
320 1 0.785681 0.214313 0.928539
321 1 0.857101 0.14289 0.85711
322 1 0.928547 0.214286 0.928563
323 1 0.999961 0.285715 0.857134
324 1 0.071411 0.35715 0.928562
325 1 0.142865 0.285734 0.857111
326 1 0.214281 0.357138 0.928562
327 1 0.285708 0.285718 0.857116
328 1 0.357131 0.357123 0.928571
329 1 0.42859 0.285757 0.857067
330 1 0.500008 0.357146 0.92853
331 1 0.571386 0.285765 0.857053
17 1 0.142855 0.142849 1
307 1 0.857091 5.0065e-07 0.857127
256 1 0.714274 9.3517e-07 0.714268
23 1 0.571425 0.142878 1
593 1 0.785595 0.499998 0.78564
592 1 0.642712 0.5 0.785511
305 1 0.714275 2.97619e-07 0.857122
642 1 0.785662 0.5 0.928554
639 1 0.35712 0.5 0.928572
301 1 0.428587 4.32361e-08 0.857134
250 1 0.285709 2.02835e-07 0.714289
43 1 0.999963 0.428581 1
47 1 0.571443 0.428558 1
21 1 0.428587 0.142866 1
19 1 0.285727 0.142851 1
46 1 0.428576 0.42856 1
462 1 0.857083 0.857107 0.285748
461 1 0.71423 0.857075 0.285752
451 1 0.285743 0.714202 0.285798
450 1 0.142837 0.714285 0.285715
460 1 0.571386 0.857053 0.285765
394 1 0.214277 0.5 0.214317
459 1 0.42859 0.857067 0.285757
449 1 0.99996 0.714296 0.285704
352 1 0.0714115 0.64285 0.0714383
448 1 0.857004 0.571406 0.28575
354 1 0.214281 0.642862 0.071438
54 1 0.285727 1 0.142851
356 1 0.357132 0.642877 0.0714293
347 1 0.500008 0.5 0.071387
358 1 0.500009 0.642854 0.0714702
346 1 0.35712 0.5 0.0714283
360 1 0.64285 0.642862 0.0714493
396 1 0.499947 0.5 0.213983
362 1 0.785668 0.642826 0.0714599
447 1 0.71402 0.571311 0.285894
364 1 0.92853 0.642842 0.0714355
446 1 0.571394 0.571468 0.285904
366 1 0.0714108 0.785723 0.0714363
445 1 0.428364 0.571529 0.285641
368 1 0.214303 0.785703 0.0714427
395 1 0.35712 0.5 0.214324
370 1 0.357167 0.785684 0.0714639
385 1 0.428587 0.857134 4.09486e-08
372 1 0.500011 0.785687 0.0714554
361 1 0.714243 0.571407 3.16719e-07
374 1 0.642813 0.785682 0.0714817
444 1 0.285731 0.571349 0.285804
376 1 0.785682 0.785687 0.0714616
443 1 0.142827 0.571391 0.285737
378 1 0.928546 0.785714 0.0714371
442 1 0.999915 0.571414 0.285734
380 1 0.0714186 0.928567 0.0714333
355 1 0.285721 0.571416 2.92302e-07
382 1 0.21429 0.928564 0.0714355
441 1 0.928547 0.928563 0.214286
384 1 0.357166 0.928569 0.0714316
455 1 0.857033 0.714253 0.285746
386 1 0.500023 0.928569 0.0714304
454 1 0.714043 0.714089 0.285911
388 1 0.642821 0.928553 0.0714489
453 1 0.571205 0.713996 0.286003
390 1 0.785688 0.928563 0.071435
452 1 0.428694 0.714071 0.285929
392 1 0.928565 0.928564 0.0714362
458 1 0.285708 0.857116 0.285718
457 1 0.142865 0.857111 0.285734
456 1 0.999961 0.857134 0.285715
440 1 0.857101 0.85711 0.14289
439 1 0.785681 0.928539 0.214313
438 1 0.714235 0.857099 0.142901
437 1 0.642813 0.928518 0.214319
400 1 0.999959 0.571415 0.14286
401 1 0.0714038 0.642841 0.214297
402 1 0.142845 0.571435 0.142854
403 1 0.214283 0.642849 0.214308
404 1 0.2857 0.571421 0.142895
405 1 0.357096 0.642868 0.214304
406 1 0.428524 0.571466 0.142828
407 1 0.499956 0.642747 0.214504
408 1 0.571431 0.571448 0.142888
409 1 0.642789 0.642814 0.214412
410 1 0.714222 0.571415 0.142951
411 1 0.78561 0.642807 0.214362
412 1 0.857072 0.571421 0.142897
413 1 0.928496 0.642834 0.21431
414 1 0.99996 0.714285 0.142865
415 1 0.071396 0.785705 0.214296
416 1 0.142864 0.714265 0.142888
417 1 0.214296 0.785672 0.21433
418 1 0.285708 0.714282 0.142885
419 1 0.357178 0.785648 0.214352
420 1 0.42859 0.714243 0.142933
421 1 0.499992 0.785643 0.214357
422 1 0.571386 0.714235 0.142949
423 1 0.642769 0.785616 0.214385
424 1 0.71423 0.714248 0.142925
425 1 0.785618 0.785635 0.214365
426 1 0.857083 0.714252 0.142893
427 1 0.928508 0.785686 0.214313
428 1 0.999984 0.857146 0.142854
429 1 0.0714113 0.928564 0.214277
430 1 0.142876 0.857122 0.142878
431 1 0.214303 0.928557 0.214297
432 1 0.285735 0.85713 0.14287
433 1 0.357166 0.928536 0.214315
434 1 0.428593 0.857114 0.142886
435 1 0.500012 0.928545 0.214313
436 1 0.571418 0.85711 0.142889
56 1 0.428587 1 0.142866
349 1 0.785664 0.5 0.0714429
389 1 0.714275 0.857122 3.42367e-07
399 1 0.928492 0.5 0.214302
348 1 0.642793 0.5 0.0714573
58 1 0.571425 1 0.142878
369 1 0.285709 0.71429 2.1492e-07
350 1 0.928537 0.5 0.0714456
52 1 0.142855 1 0.142849
345 1 0.214282 0.5 0.0714407
375 1 0.714274 0.714268 8.86387e-07
379 1 0.99998 0.857145 2.18236e-07
391 1 0.857091 0.857127 5.67259e-07
353 1 0.142838 0.571428 1.30538e-07
365 1 0.999974 0.714278 5.17067e-08
367 1 0.142843 0.71428 2.4158e-08
363 1 0.857111 0.571435 1.68125e-06
546 1 0.928484 0.500001 0.642841
542 1 0.357539 0.5 0.642525
580 1 0.357132 0.92857 0.642877
465 1 0.357538 0.5 0.357475
574 1 0.928497 0.78569 0.642835
579 1 0.2857 0.857105 0.571422
587 1 0.857071 0.857105 0.571421
470 1 0.071355 0.642866 0.357134
471 1 0.214299 0.642831 0.357169
472 1 0.357274 0.642634 0.357366
473 1 0.499834 0.641769 0.35823
474 1 0.642286 0.642348 0.357647
475 1 0.785531 0.642817 0.357181
476 1 0.928468 0.642857 0.357143
477 1 0.071404 0.785703 0.357159
478 1 0.214282 0.785692 0.357151
479 1 0.357095 0.785696 0.357132
480 1 0.499956 0.785496 0.357252
481 1 0.642789 0.785589 0.357187
482 1 0.785608 0.785637 0.357193
483 1 0.928496 0.785689 0.357165
484 1 0.0714109 0.928562 0.35715
485 1 0.214281 0.928562 0.357138
486 1 0.357131 0.928571 0.357123
487 1 0.500008 0.92853 0.357146
488 1 0.642849 0.928551 0.357138
489 1 0.785668 0.928539 0.357176
490 1 0.928529 0.928563 0.357158
586 1 0.785667 0.928538 0.642824
578 1 0.214281 0.928562 0.642862
577 1 0.142846 0.857146 0.571435
494 1 0.92853 0.928564 0.642842
573 1 0.857006 0.714249 0.571407
585 1 0.714219 0.857039 0.571412
584 1 0.642849 0.928551 0.642861
498 1 0.999924 0.571457 0.428544
499 1 0.0713808 0.642853 0.5
500 1 0.142766 0.571475 0.428525
501 1 0.214362 0.642747 0.499999
502 1 0.285859 0.57145 0.428551
503 1 0.357539 0.642525 0.5
504 1 0.42894 0.570785 0.429216
505 1 0.499805 0.644943 0.500001
506 1 0.570071 0.570139 0.42987
507 1 0.642056 0.642157 0.499999
508 1 0.714059 0.5715 0.428504
509 1 0.785458 0.642743 0.499999
510 1 0.85704 0.571457 0.428547
511 1 0.928484 0.642841 0.500001
512 1 0.999915 0.714265 0.428586
513 1 0.0713832 0.785702 0.5
514 1 0.142826 0.714263 0.428609
515 1 0.214277 0.785683 0.500001
516 1 0.28573 0.714196 0.428651
517 1 0.357119 0.785675 0.5
518 1 0.428364 0.714359 0.42847
519 1 0.499947 0.786016 0.5
520 1 0.571391 0.714095 0.428531
521 1 0.642712 0.785511 0.5
522 1 0.714021 0.714106 0.42869
523 1 0.785595 0.785641 0.499998
524 1 0.857004 0.714249 0.428593
525 1 0.928492 0.785698 0.500001
526 1 0.999959 0.85714 0.428585
527 1 0.0714144 0.928577 0.500001
528 1 0.142846 0.857145 0.428565
529 1 0.214281 0.928559 0.5
530 1 0.285701 0.857105 0.428579
531 1 0.35712 0.928572 0.5
532 1 0.428524 0.857172 0.428533
533 1 0.500008 0.928614 0.5
534 1 0.571431 0.857115 0.42855
535 1 0.642796 0.928531 0.5
536 1 0.714219 0.857038 0.428589
537 1 0.785662 0.928554 0.5
538 1 0.857072 0.857107 0.428579
539 1 0.928534 0.928555 0.5
583 1 0.571431 0.857115 0.57145
495 1 0.644988 0.500005 0.500004
576 1 0.0714111 0.928562 0.64285
572 1 0.785609 0.78564 0.642809
582 1 0.500009 0.92853 0.642854
575 1 0.999959 0.85714 0.571415
581 1 0.428524 0.857172 0.571466
547 1 0.999924 0.571456 0.571456
548 1 0.0713543 0.642867 0.642867
549 1 0.142766 0.571475 0.571475
550 1 0.214299 0.642831 0.642831
551 1 0.28586 0.571449 0.571449
552 1 0.357275 0.642634 0.642634
553 1 0.42894 0.570784 0.570784
554 1 0.499836 0.641768 0.641768
555 1 0.570069 0.570128 0.570128
556 1 0.642285 0.642352 0.642352
557 1 0.714058 0.571498 0.571498
558 1 0.785533 0.642818 0.642818
559 1 0.857042 0.571454 0.571454
560 1 0.928469 0.642856 0.642856
561 1 0.999916 0.714266 0.571414
562 1 0.0714042 0.785704 0.642841
563 1 0.142827 0.714262 0.571391
564 1 0.214283 0.785691 0.642848
565 1 0.28573 0.714196 0.571349
566 1 0.357095 0.785696 0.642869
567 1 0.428363 0.714358 0.571529
568 1 0.499956 0.785496 0.642748
569 1 0.571393 0.714092 0.571469
570 1 0.64279 0.785589 0.642813
571 1 0.714022 0.714108 0.571311
467 1 0.642057 0.5 0.357847
203 1 0.428576 1 0.57144
496 1 0.78593 0.5 0.5
197 1 0.999964 1 0.571419
686 2 0.45417 0.5 0.5
466 1 0.499794 0.500001 0.355061
154 1 0.428576 1 0.42856
543 1 0.499805 0.500001 0.644943
205 1 0.571442 1 0.571442
156 1 0.571443 1 0.428558
148 1 0.999963 1 0.428581
469 1 0.928485 0.5 0.357158
258 1 0.857096 1 0.714258
685 1 0.928565 0.928564 0.928564
594 1 0.928492 0.500001 0.785698
7 1 0.428556 1 1
684 1 0.857101 0.85711 0.85711
591 1 0.499947 0.5 0.786016
643 1 0.928534 0.5 0.928555
595 1 0.999916 0.571414 0.714266
596 1 0.0714043 0.642841 0.785704
597 1 0.142827 0.571391 0.714262
598 1 0.214283 0.642848 0.785691
599 1 0.28573 0.571349 0.714196
600 1 0.357095 0.642869 0.785696
601 1 0.428362 0.571529 0.714358
602 1 0.499956 0.642748 0.785496
603 1 0.571393 0.571469 0.714092
604 1 0.64279 0.642813 0.785589
605 1 0.714022 0.571311 0.714108
606 1 0.785609 0.642809 0.78564
607 1 0.857006 0.571407 0.714249
608 1 0.928497 0.642835 0.78569
609 1 0.999959 0.714295 0.714295
610 1 0.0713958 0.785705 0.785705
611 1 0.142838 0.714285 0.714285
612 1 0.214298 0.78567 0.78567
613 1 0.285742 0.714202 0.714202
614 1 0.357178 0.785648 0.785648
615 1 0.428694 0.714069 0.714069
616 1 0.499994 0.785644 0.785644
617 1 0.571208 0.714003 0.714003
618 1 0.642769 0.785616 0.785616
619 1 0.714043 0.714089 0.714089
620 1 0.785619 0.785635 0.785635
621 1 0.857031 0.714253 0.714253
622 1 0.928506 0.785685 0.785685
623 1 0.999961 0.857135 0.714284
624 1 0.0714112 0.928564 0.785724
625 1 0.142864 0.857111 0.714266
626 1 0.214303 0.928557 0.785703
627 1 0.285708 0.857115 0.714281
628 1 0.357166 0.928536 0.785684
629 1 0.42859 0.857067 0.714243
630 1 0.500012 0.928545 0.785687
631 1 0.571385 0.857052 0.714235
632 1 0.642814 0.928518 0.785682
633 1 0.714231 0.857075 0.714248
634 1 0.785681 0.928536 0.785684
635 1 0.857083 0.857108 0.714253
636 1 0.928546 0.928563 0.785714
683 1 0.785687 0.928564 0.928564
682 1 0.714234 0.857097 0.857097
681 1 0.642821 0.928553 0.928553
248 1 0.142844 1 0.71428
297 1 0.142856 1 0.85715
589 1 0.214277 0.500001 0.785683
680 1 0.571419 0.85711 0.85711
644 1 0.999959 0.571415 0.85714
645 1 0.0714111 0.64285 0.928562
646 1 0.142846 0.571435 0.857146
647 1 0.214281 0.642862 0.928562
648 1 0.2857 0.571422 0.857105
649 1 0.357132 0.642877 0.92857
650 1 0.428524 0.571466 0.857172
651 1 0.500009 0.642854 0.92853
652 1 0.571431 0.57145 0.857115
653 1 0.642849 0.642862 0.928551
654 1 0.714219 0.571412 0.857039
655 1 0.785667 0.642824 0.928538
656 1 0.857071 0.571421 0.857106
657 1 0.92853 0.642842 0.928564
658 1 0.999961 0.714284 0.857135
659 1 0.0714112 0.785724 0.928564
660 1 0.142864 0.714266 0.857111
661 1 0.214303 0.785703 0.928557
662 1 0.285708 0.714282 0.857115
663 1 0.357166 0.785684 0.928536
664 1 0.42859 0.714243 0.857067
665 1 0.500012 0.785687 0.928544
666 1 0.571385 0.714235 0.857052
667 1 0.642814 0.785682 0.928518
668 1 0.714231 0.714248 0.857075
669 1 0.785681 0.785684 0.928536
670 1 0.857083 0.714253 0.857108
671 1 0.928546 0.785714 0.928563
672 1 0.999984 0.857146 0.857146
673 1 0.0714185 0.928567 0.928567
674 1 0.142877 0.857122 0.857122
675 1 0.21429 0.928565 0.928565
676 1 0.285736 0.857131 0.857131
677 1 0.357167 0.928569 0.928569
678 1 0.428592 0.857114 0.857114
679 1 0.500023 0.928569 0.928569
638 1 0.214281 0.5 0.928559
590 1 0.357119 0.5 0.785675
588 1 0.0713833 0.5 0.785702
371 1 0.428588 0.714262 1
641 1 0.642796 0.5 0.928531
252 1 0.428588 1 0.714262
299 1 0.285727 0.999999 0.857148
377 1 0.857096 0.714258 1
640 1 0.500008 0.5 0.928614
254 1 0.571413 1 0.714261
637 1 0.0714144 0.500001 0.928578
303 1 0.571425 1 0.857121
351 1 0.999964 0.571419 1
387 1 0.571425 0.857121 1
359 1 0.571442 0.571442 1
357 1 0.428576 0.57144 1
381 1 0.142855 0.85715 1
383 1 0.285727 0.857147 0.999999
11 1 0.714289 1 1
373 1 0.571413 0.714261 1
