ITEM: TIMESTEP
630
ITEM: NUMBER OF ATOMS
688
ITEM: BOX BOUNDS pp pp pp
0.0000000000000000e+00 2.2013900999999997e+01
0.0000000000000000e+00 2.2013900999999997e+01
0.0000000000000000e+00 2.2013900999999997e+01
ITEM: ATOMS id type xs ys zs
25 1 0.714406 0.142735 4.34216e-05
2 1 0.0714302 0.0714065 0.0714253
126 1 0.857338 0.428638 0.285695
4 1 0.214267 0.0713453 0.0714327
125 1 0.714991 0.428431 0.285411
6 1 0.357133 0.0713177 0.0714384
116 1 0.428575 0.284854 0.285068
8 1 0.500031 0.0713241 0.0714252
396 1 0.500193 0.499833 0.214183
10 1 0.642934 0.0713546 0.0714148
49 1 0.857264 0.42857 2.24849e-05
12 1 0.78582 0.0713954 0.0714107
29 1 2.11438e-05 0.28567 3.29302e-05
14 1 0.928633 0.0714491 0.0714262
115 1 0.285117 0.28503 0.285115
16 1 0.0713926 0.214224 0.0714252
17 1 0.142803 0.14275 2.10375e-05
18 1 0.214159 0.214117 0.0713589
19 1 0.285664 0.142718 4.70598e-05
20 1 0.357093 0.214092 0.0713706
21 1 0.428569 0.142701 5.4583e-05
22 1 0.500062 0.214095 0.0713694
23 1 0.571493 0.142708 5.50474e-05
24 1 0.643026 0.214122 0.0713716
101 1 0.285768 1.7305e-05 0.285722
26 1 0.78589 0.214177 0.0714051
27 1 0.857251 0.142796 2.61425e-05
28 1 0.928642 0.214246 0.0714406
120 1 0.999993 0.428598 0.285683
30 1 0.0713996 0.357104 0.0714213
31 1 0.142789 0.285634 3.70157e-05
32 1 0.214178 0.357073 0.0713551
33 1 0.285618 0.285567 2.47271e-05
34 1 0.357057 0.357006 0.0712183
35 1 0.428565 0.285539 4.44462e-05
36 1 0.500085 0.356993 0.071234
37 1 0.571539 0.285556 5.08088e-05
38 1 0.643094 0.357038 0.071276
39 1 0.714467 0.285599 4.75295e-05
40 1 0.785907 0.357105 0.071396
119 1 0.857265 0.28574 0.285752
42 1 0.928653 0.357124 0.071431
118 1 0.71462 0.285599 0.285684
44 1 0.142796 0.428545 2.73064e-05
45 1 0.28565 0.42855 2.34791e-05
46 1 0.428602 0.428541 1.48157e-05
47 1 0.57155 0.428559 4.48039e-05
48 1 0.714467 0.42857 4.06282e-05
117 1 0.572283 0.284662 0.284943
50 1 5.25057e-05 8.30767e-05 0.142831
51 1 0.071464 0.0714705 0.214285
124 1 0.573549 0.426588 0.283619
53 1 0.214279 0.0713743 0.214275
123 1 0.426942 0.426461 0.283738
55 1 0.357164 0.0712954 0.214264
114 1 0.142672 0.28561 0.285634
57 1 0.500075 0.0712848 0.214247
41 1 0.85726 0.285657 4.61732e-05
59 1 0.642969 0.0713356 0.214243
60 1 0.714375 1.5844e-05 0.142805
61 1 0.785817 0.0714809 0.214273
62 1 0.857242 9.03477e-05 0.142817
63 1 0.928642 0.0715063 0.214278
64 1 1.39525e-05 0.142857 0.142857
65 1 0.0713719 0.214242 0.214266
66 1 0.142789 0.142762 0.14282
67 1 0.214066 0.214024 0.214115
68 1 0.285651 0.142677 0.142809
69 1 0.357033 0.213896 0.21406
70 1 0.428583 0.14266 0.142791
71 1 0.500145 0.213902 0.214029
72 1 0.571544 0.142683 0.142782
73 1 0.643254 0.213885 0.214023
74 1 0.714473 0.142716 0.142782
75 1 0.785911 0.214239 0.214269
76 1 0.857251 0.142853 0.142852
77 1 0.928633 0.214301 0.214302
78 1 1.28383e-05 0.285687 0.142846
79 1 0.0713441 0.357111 0.214234
80 1 0.142722 0.2856 0.142773
81 1 0.21396 0.35696 0.214006
82 1 0.285431 0.285377 0.14251
83 1 0.356514 0.356366 0.21325
84 1 0.428559 0.285392 0.142533
85 1 0.500212 0.356551 0.213377
86 1 0.571682 0.285427 0.142541
87 1 0.643722 0.356486 0.213557
88 1 0.714655 0.285477 0.142653
89 1 0.786076 0.357058 0.214158
90 1 0.85731 0.285663 0.142824
91 1 0.928666 0.357149 0.214266
92 1 1.78118e-05 0.428573 0.142818
93 1 0.142741 0.42855 0.142754
94 1 0.285538 0.428525 0.142562
95 1 0.428562 0.428431 0.14239
96 1 0.57171 0.428466 0.142365
97 1 0.714603 0.428565 0.142667
98 1 0.857311 0.428597 0.142797
99 1 7.41845e-05 0.000126567 0.285686
100 1 0.142896 0.000102084 0.285715
122 1 0.285023 0.428364 0.284972
121 1 0.142614 0.428558 0.28557
15 1 2.54108e-05 0.142814 2.94893e-05
104 1 0.714383 0.000110349 0.285688
105 1 0.857254 0.000142772 0.285668
106 1 5.35107e-05 0.14291 0.285734
107 1 0.142865 0.142858 0.285747
108 1 0.28567 0.142661 0.28568
109 1 0.428636 0.142579 0.285642
110 1 0.571602 0.142582 0.285656
111 1 0.714406 0.142846 0.285745
112 1 0.85724 0.142917 0.285732
113 1 1.01507e-05 0.285725 0.285733
52 1 0.142874 2.38735e-05 0.14284
43 1 2.30095e-05 0.428559 1.95627e-05
127 1 0.0714858 0.0715184 0.357153
128 1 0.21434 0.0714852 0.357184
129 1 0.357206 0.0713653 0.357177
130 1 0.500069 0.0713387 0.357183
131 1 0.642932 0.0714505 0.357178
132 1 0.785814 0.0715152 0.357139
133 1 0.928657 0.0715285 0.357134
134 1 0.0714761 0.214336 0.357197
135 1 0.214308 0.214271 0.357222
136 1 0.357123 0.213873 0.357043
137 1 0.500214 0.213846 0.357036
138 1 0.643005 0.214238 0.357268
139 1 0.785837 0.214315 0.357195
140 1 0.928644 0.214329 0.357171
141 1 0.0714017 0.357181 0.35717
142 1 0.213877 0.356962 0.356914
143 1 0.355554 0.355202 0.355327
144 1 0.501958 0.355119 0.354824
145 1 0.643359 0.356999 0.357244
146 1 0.785892 0.357204 0.357226
147 1 0.928644 0.357189 0.357166
148 1 7.24187e-05 0.000134288 0.428553
149 1 0.0714765 0.0715115 0.499999
150 1 0.142896 0.000133078 0.428567
151 1 0.214332 0.071506 0.500016
687 3 0.425827 0.459234 0.499148
153 1 0.35722 0.0715141 0.50002
245 1 0.857434 0.428552 0.571521
155 1 0.500051 0.0714362 0.500025
244 1 0.715205 0.428183 0.57206
157 1 0.642936 0.0714091 0.500012
158 1 0.714398 0.000109484 0.428555
159 1 0.785828 0.0714731 0.500003
160 1 0.857249 0.000136629 0.428545
161 1 0.928649 0.0715061 0.49999
162 1 6.82408e-05 0.142927 0.428576
163 1 0.0714955 0.214336 0.500018
164 1 0.142911 0.142927 0.42861
165 1 0.214359 0.214357 0.50004
166 1 0.285805 0.142931 0.42868
167 1 0.357371 0.214679 0.500054
168 1 0.428646 0.142897 0.42865
169 1 0.500014 0.214495 0.500089
170 1 0.571497 0.14289 0.428678
171 1 0.643002 0.214193 0.500064
172 1 0.714403 0.142854 0.428608
173 1 0.78586 0.214251 0.500043
174 1 0.857236 0.142909 0.42858
175 1 0.928668 0.214308 0.500009
176 1 9.23212e-05 0.285758 0.428605
177 1 0.0715655 0.357205 0.500026
178 1 0.14296 0.285804 0.428674
179 1 0.214693 0.357455 0.500036
180 1 0.285872 0.285783 0.428796
181 1 0.358147 0.358643 0.499894
182 1 0.428774 0.285887 0.428127
183 1 0.499635 0.358116 0.50046
184 1 0.571489 0.285937 0.428818
185 1 0.642913 0.357104 0.500068
186 1 0.714455 0.285688 0.4287
187 1 0.78586 0.357143 0.500046
188 1 0.857257 0.285741 0.428613
189 1 0.928691 0.357159 0.50001
190 1 5.09936e-05 0.428621 0.428586
191 1 0.142921 0.428684 0.428604
192 1 0.285852 0.428263 0.427441
193 1 0.429324 0.425882 0.415683
194 1 0.57076 0.429497 0.428359
195 1 0.714265 0.428742 0.428697
196 1 0.857235 0.428634 0.428595
197 1 5.70616e-05 0.00010455 0.571429
198 1 0.0714639 0.071468 0.642855
199 1 0.142884 0.000106293 0.571438
200 1 0.214308 0.0714388 0.642862
243 1 0.574023 0.425707 0.574786
202 1 0.357166 0.0712752 0.642912
242 1 0.428904 0.425311 0.583476
204 1 0.500029 0.0712004 0.64293
241 1 0.285511 0.42796 0.572782
206 1 0.642939 0.0712752 0.642909
207 1 0.71438 4.59533e-05 0.571436
208 1 0.785823 0.0714006 0.642888
209 1 0.857248 9.72832e-05 0.571431
210 1 0.928645 0.0714609 0.642859
211 1 6.80443e-05 0.1429 0.57142
212 1 0.071466 0.214283 0.642855
213 1 0.142897 0.142891 0.571432
214 1 0.214269 0.214202 0.642897
215 1 0.285793 0.142894 0.571419
216 1 0.357058 0.213747 0.643201
217 1 0.428622 0.142772 0.571501
218 1 0.50016 0.213598 0.643296
219 1 0.571495 0.142662 0.571488
220 1 0.643133 0.213837 0.64313
221 1 0.714407 0.142765 0.571474
222 1 0.785915 0.21413 0.642949
223 1 0.857253 0.142858 0.571439
224 1 0.928678 0.214251 0.642875
225 1 9.53163e-05 0.285731 0.571424
226 1 0.0713881 0.35712 0.642922
227 1 0.142962 0.285783 0.571418
228 1 0.213825 0.356846 0.643312
229 1 0.285877 0.285726 0.571367
230 1 0.355544 0.355113 0.644974
231 1 0.428675 0.28543 0.57211
232 1 0.501845 0.354885 0.645245
233 1 0.571703 0.285044 0.571706
234 1 0.644214 0.356007 0.644171
235 1 0.714537 0.285509 0.571549
236 1 0.786248 0.356878 0.643184
237 1 0.857302 0.285672 0.571463
238 1 0.928741 0.357094 0.642921
239 1 8.64086e-05 0.428597 0.571451
240 1 0.142857 0.428645 0.571524
545 1 0.786207 0.499967 0.64319
467 1 0.643306 0.499589 0.356283
494 1 0.50656 0.498866 0.514345
152 1 0.285774 0.000104712 0.4286
466 1 0.500954 0.497222 0.344432
495 1 0.643792 0.499413 0.501505
544 1 0.643847 0.499936 0.643891
156 1 0.571484 1.33862e-05 0.428584
201 1 0.285759 7.42338e-05 0.571426
246 1 4.06176e-05 6.44877e-05 0.714302
247 1 0.0714272 0.0714108 0.785748
343 1 0.8573 0.428533 0.857277
249 1 0.214226 0.0712959 0.785798
342 1 0.714526 0.428491 0.857444
251 1 0.357108 0.0712348 0.78583
341 1 0.571601 0.428463 0.857622
253 1 0.500025 0.0711995 0.785852
340 1 0.428578 0.428466 0.857442
255 1 0.642966 0.0712145 0.785838
339 1 0.2856 0.428506 0.857451
257 1 0.785836 0.0713242 0.785794
258 1 0.857237 4.40766e-05 0.714315
259 1 0.928643 0.071417 0.785749
260 1 4.69518e-05 0.142837 0.7143
261 1 0.0713666 0.214172 0.78581
262 1 0.142821 0.142789 0.714318
263 1 0.214037 0.213975 0.786014
264 1 0.285607 0.142569 0.714465
265 1 0.35703 0.213926 0.786072
266 1 0.428569 0.142491 0.714542
267 1 0.500103 0.213865 0.78613
268 1 0.571588 0.142441 0.714547
269 1 0.643205 0.213826 0.78615
270 1 0.714479 0.142614 0.714436
271 1 0.785993 0.21403 0.78595
272 1 0.857269 0.142776 0.714341
273 1 0.928679 0.214181 0.785807
274 1 3.992e-05 0.285645 0.71435
275 1 0.0713625 0.357069 0.785849
276 1 0.142643 0.285527 0.714486
277 1 0.214083 0.356993 0.786054
278 1 0.2851 0.284973 0.715081
279 1 0.357025 0.356836 0.786389
280 1 0.428588 0.285003 0.715105
281 1 0.50015 0.356753 0.786531
282 1 0.572182 0.284742 0.71532
283 1 0.643251 0.356801 0.786369
284 1 0.714894 0.28518 0.71485
285 1 0.786008 0.356981 0.78601
286 1 0.857409 0.285544 0.714455
287 1 0.928686 0.357071 0.785837
288 1 1.49012e-05 0.428536 0.714394
289 1 0.142656 0.428515 0.714549
290 1 0.285386 0.428448 0.715011
291 1 0.428648 0.428188 0.714728
292 1 0.572023 0.428225 0.715558
293 1 0.714816 0.428378 0.714862
294 1 0.857397 0.428493 0.714481
295 1 2.67308e-05 2.5428e-05 0.857168
296 1 0.0714197 0.0713794 0.928607
338 1 0.142758 0.428531 0.857312
298 1 0.214247 0.0713298 0.928631
337 1 1.61892e-05 0.42854 0.857233
300 1 0.357117 0.0712992 0.928649
336 1 0.928641 0.357103 0.928639
302 1 0.500012 0.0712792 0.928654
335 1 0.857296 0.285599 0.857282
304 1 0.642931 0.0713037 0.928638
334 1 0.785876 0.357072 0.928699
306 1 0.785821 0.0713459 0.928625
333 1 0.714534 0.285487 0.857445
308 1 0.928637 0.0713958 0.928607
309 1 2.10398e-05 0.142792 0.857205
310 1 0.0713935 0.214206 0.928645
311 1 0.142763 0.142718 0.85725
312 1 0.214182 0.214129 0.928688
313 1 0.28563 0.142668 0.8573
314 1 0.35708 0.214088 0.928735
315 1 0.428548 0.142621 0.857336
316 1 0.500039 0.214069 0.928761
317 1 0.571514 0.142613 0.857347
318 1 0.643011 0.214087 0.928754
319 1 0.714463 0.142635 0.857318
320 1 0.78587 0.214151 0.928691
321 1 0.857276 0.142747 0.857239
322 1 0.928645 0.214214 0.928636
323 1 1.89222e-05 0.285643 0.857232
324 1 0.0713962 0.357092 0.928644
325 1 0.142757 0.285597 0.857297
326 1 0.214187 0.357064 0.928703
327 1 0.285561 0.285487 0.857467
328 1 0.3571 0.357027 0.928766
329 1 0.428556 0.28542 0.857543
330 1 0.500046 0.357004 0.928811
331 1 0.57161 0.285412 0.857577
332 1 0.643033 0.357027 0.928794
641 1 0.500053 0.499988 0.92876
591 1 0.35707 0.49993 0.786115
592 1 0.500123 0.499921 0.786229
13 1 0.857224 1.9659e-05 0.999992
640 1 0.357134 0.499988 0.928712
593 1 0.643223 0.499984 0.786266
594 1 0.785989 0.499998 0.78598
248 1 0.142854 5.26642e-05 0.71431
1 1 4.3193e-05 2.65846e-05 0.999998
595 1 0.928666 0.499997 0.785834
462 1 0.857308 0.857377 0.285593
345 1 0.214208 0.50003 0.071343
346 1 0.35712 0.500036 0.0713085
347 1 0.500092 0.500037 0.0714141
461 1 0.71449 0.857435 0.285583
460 1 0.571507 0.857189 0.285714
459 1 0.42873 0.857131 0.285734
102 1 0.428651 0.999926 0.28572
352 1 0.0714264 0.642941 0.0713528
353 1 0.142816 0.571472 4.29778e-06
354 1 0.214248 0.642964 0.0713331
355 1 0.285686 0.571471 1.04274e-05
356 1 0.357182 0.642947 0.0713588
357 1 0.428616 0.571473 5.7279e-05
358 1 0.500093 0.642933 0.07145
56 1 0.42861 0.999939 0.142854
360 1 0.643022 0.643007 0.0713061
350 1 0.928665 0.50004 0.0713922
362 1 0.785908 0.643004 0.0713194
54 1 0.285739 0.999954 0.142855
364 1 0.928676 0.642946 0.0713546
445 1 0.427334 0.572242 0.285237
366 1 0.0714438 0.785839 0.0713528
399 1 0.92868 0.500058 0.214209
368 1 0.21428 0.78583 0.0713467
7 1 0.428581 0.999928 2.66163e-05
370 1 0.357214 0.785761 0.0714225
455 1 0.857411 0.714536 0.285558
372 1 0.500069 0.785775 0.0714179
454 1 0.714918 0.714909 0.285257
374 1 0.642938 0.785821 0.0713687
453 1 0.571475 0.714416 0.285826
376 1 0.785878 0.7859 0.0712875
452 1 0.42882 0.714329 0.285834
378 1 0.928675 0.785851 0.0713365
451 1 0.285306 0.714908 0.285251
380 1 0.0714687 0.928652 0.0713909
348 1 0.643069 0.500088 0.0713103
382 1 0.214319 0.928589 0.07142
450 1 0.142544 0.714687 0.285412
384 1 0.357183 0.928559 0.0714376
449 1 2.47535e-06 0.714496 0.285581
386 1 0.500039 0.928563 0.0714184
448 1 0.857373 0.571546 0.285627
388 1 0.642914 0.928604 0.0713937
447 1 0.714924 0.571639 0.2855
390 1 0.78581 0.928662 0.0713638
446 1 0.573129 0.572573 0.284972
392 1 0.92865 0.92868 0.0713808
458 1 0.285747 0.85735 0.285647
394 1 0.214 0.500058 0.213983
395 1 0.356874 0.50003 0.213706
359 1 0.57152 0.571495 5.80507e-05
397 1 0.643398 0.500095 0.21379
457 1 0.142836 0.85739 0.285609
456 1 6.26488e-05 0.857348 0.285615
400 1 3.54792e-05 0.571491 0.142772
401 1 0.071348 0.642994 0.214137
402 1 0.142763 0.571513 0.14272
403 1 0.21399 0.643169 0.213916
404 1 0.285587 0.571551 0.142605
405 1 0.356866 0.643265 0.213823
406 1 0.428637 0.571491 0.142768
407 1 0.500136 0.642838 0.21441
408 1 0.571642 0.571543 0.14271
409 1 0.643488 0.643394 0.213742
410 1 0.714599 0.571598 0.142663
411 1 0.786068 0.64309 0.214092
412 1 0.857333 0.571537 0.142747
413 1 0.9287 0.642989 0.214164
414 1 5.13006e-05 0.714424 0.142747
415 1 0.0713886 0.785944 0.214125
416 1 0.142782 0.714466 0.142681
417 1 0.214192 0.785995 0.21408
418 1 0.285642 0.714507 0.142644
419 1 0.357264 0.785832 0.21426
420 1 0.428704 0.714357 0.142871
421 1 0.500122 0.78577 0.214272
422 1 0.571528 0.714383 0.142842
423 1 0.643002 0.785916 0.214202
424 1 0.714594 0.714591 0.14257
425 1 0.786006 0.786044 0.214045
426 1 0.857333 0.71447 0.142708
427 1 0.928701 0.785922 0.214142
428 1 5.78299e-05 0.857301 0.142757
429 1 0.0714686 0.928717 0.214223
430 1 0.142865 0.857287 0.142764
431 1 0.21432 0.928671 0.214244
432 1 0.285777 0.857217 0.142828
433 1 0.357238 0.928571 0.214287
434 1 0.428658 0.857169 0.142843
435 1 0.500075 0.928561 0.214262
436 1 0.57151 0.857209 0.142815
437 1 0.642938 0.92864 0.214241
438 1 0.714403 0.857294 0.142754
439 1 0.785851 0.928756 0.214189
440 1 0.857286 0.857332 0.142724
441 1 0.928673 0.92873 0.214212
442 1 0.999986 0.571517 0.285626
443 1 0.142538 0.571579 0.285509
444 1 0.284919 0.571912 0.284969
398 1 0.786039 0.500098 0.214128
383 1 0.28575 0.857164 7.02833e-06
349 1 0.785909 0.500064 0.0713646
5 1 0.285724 0.999939 3.01252e-05
3 1 0.142861 0.999978 1.76294e-05
371 1 0.428629 0.714335 2.77655e-05
393 1 0.0713405 0.500039 0.214179
344 1 0.0714061 0.500014 0.0713908
103 1 0.571498 0.999966 0.285708
58 1 0.57149 0.999962 0.14283
9 1 0.571458 0.999937 1.07306e-05
385 1 0.428604 0.857151 1.17116e-05
373 1 0.571494 0.714364 5.89229e-06
688 3 0.499419 0.529939 0.429075
205 1 0.571475 0.999944 0.571423
465 1 0.355663 0.500518 0.3556
203 1 0.428633 0.999951 0.571426
588 1 0.928647 0.928702 0.642877
468 1 0.785903 0.500126 0.357174
587 1 0.8573 0.857355 0.571461
470 1 0.0711772 0.643079 0.357017
471 1 0.213294 0.643718 0.356504
472 1 0.35578 0.644375 0.356122
473 1 0.500006 0.64128 0.357895
474 1 0.644412 0.644355 0.356149
475 1 0.786197 0.643158 0.357072
476 1 0.928683 0.643023 0.357067
477 1 0.0713636 0.785982 0.357036
478 1 0.214092 0.786148 0.356986
479 1 0.357142 0.786068 0.357103
480 1 0.500128 0.785412 0.357266
481 1 0.643158 0.786133 0.357072
482 1 0.786026 0.786049 0.357011
483 1 0.928711 0.785959 0.357037
484 1 0.0714651 0.928754 0.357103
485 1 0.214312 0.928755 0.357121
486 1 0.357242 0.928637 0.357158
487 1 0.500093 0.928506 0.357157
488 1 0.642968 0.9287 0.357122
489 1 0.785861 0.928776 0.357067
490 1 0.928682 0.928751 0.357079
491 1 0.0714096 0.500062 0.500033
492 1 0.21444 0.500313 0.500126
493 1 0.346366 0.504009 0.500654
586 1 0.785837 0.928709 0.642901
463 1 0.0712813 0.500045 0.357085
496 1 0.786049 0.500064 0.500113
497 1 0.928681 0.500059 0.5
498 1 0.999934 0.571542 0.428559
499 1 0.0711492 0.643114 0.500022
500 1 0.14231 0.571673 0.428524
501 1 0.213358 0.643596 0.500133
502 1 0.283474 0.573495 0.427099
503 1 0.35518 0.644681 0.50121
504 1 0.419519 0.573702 0.429279
505 1 0.500068 0.641355 0.500118
506 1 0.579921 0.574159 0.429321
507 1 0.644668 0.644522 0.501336
508 1 0.714442 0.571705 0.428694
509 1 0.786288 0.643166 0.500077
510 1 0.857286 0.571565 0.428569
511 1 0.928691 0.643028 0.499992
512 1 0.999979 0.714527 0.428507
513 1 0.0713333 0.785985 0.500007
514 1 0.142508 0.714701 0.42849
515 1 0.214036 0.786162 0.50006
516 1 0.285129 0.715168 0.428474
517 1 0.357061 0.786134 0.5001
518 1 0.428411 0.714132 0.428725
519 1 0.500073 0.785401 0.500014
520 1 0.571807 0.714408 0.428736
521 1 0.643188 0.786173 0.500086
522 1 0.7149 0.714847 0.428568
523 1 0.786031 0.786044 0.500027
524 1 0.857437 0.714581 0.428516
525 1 0.928691 0.785947 0.499996
526 1 5.65834e-05 0.857359 0.428525
527 1 0.0714467 0.928743 0.499993
528 1 0.142804 0.857403 0.428535
529 1 0.214286 0.928761 0.500013
530 1 0.28568 0.857449 0.428565
531 1 0.357219 0.928669 0.499995
532 1 0.428709 0.857093 0.428581
533 1 0.500076 0.928509 0.499993
534 1 0.571523 0.857162 0.42858
535 1 0.642965 0.928688 0.499984
536 1 0.714534 0.857449 0.428531
537 1 0.78587 0.928751 0.499988
538 1 0.857318 0.85739 0.428514
539 1 0.928669 0.92874 0.499988
585 1 0.714497 0.857417 0.5715
541 1 0.213767 0.500034 0.643327
542 1 0.355844 0.500754 0.64386
584 1 0.64292 0.928602 0.642868
154 1 0.428657 0.999996 0.428594
540 1 0.0712998 0.500011 0.642997
583 1 0.571485 0.857187 0.571426
547 1 0.999961 0.571502 0.571477
548 1 0.0711933 0.643045 0.643023
549 1 0.142324 0.571648 0.571609
550 1 0.213447 0.643617 0.643644
551 1 0.28356 0.573436 0.573268
552 1 0.356799 0.643388 0.643546
553 1 0.426903 0.571198 0.571955
554 1 0.499968 0.642834 0.643041
555 1 0.574416 0.573703 0.57362
556 1 0.643892 0.643696 0.643949
557 1 0.715312 0.571651 0.571931
558 1 0.786203 0.643097 0.643146
559 1 0.857477 0.57152 0.571539
560 1 0.928693 0.642989 0.642951
561 1 0.999962 0.714493 0.571486
562 1 0.0713165 0.785947 0.642975
563 1 0.142487 0.714678 0.571618
564 1 0.214021 0.786162 0.643156
565 1 0.285011 0.715278 0.572048
566 1 0.357183 0.785852 0.64296
567 1 0.428656 0.714136 0.571487
568 1 0.500019 0.785718 0.642939
569 1 0.571566 0.714638 0.571591
570 1 0.643035 0.785967 0.642997
571 1 0.715022 0.714961 0.571948
572 1 0.786026 0.786041 0.643069
573 1 0.857435 0.714537 0.571517
574 1 0.928671 0.785908 0.642939
575 1 2.41212e-05 0.857337 0.571452
576 1 0.0714266 0.928704 0.642891
577 1 0.142778 0.857391 0.571487
578 1 0.214269 0.928722 0.642909
579 1 0.28566 0.857442 0.571512
580 1 0.357197 0.928563 0.642864
581 1 0.428668 0.857092 0.571426
582 1 0.500032 0.928506 0.642864
543 1 0.501612 0.50076 0.644212
469 1 0.928634 0.500079 0.357134
464 1 0.213738 0.500096 0.356852
546 1 0.92872 0.50001 0.642963
686 1 0.928633 0.928636 0.928573
590 1 0.214076 0.50001 0.786053
685 1 0.857238 0.857255 0.857187
684 1 0.785783 0.928604 0.928575
391 1 0.857243 0.857258 0.99995
367 1 0.142848 0.714378 0.999988
389 1 0.714347 0.857221 0.99996
596 1 0.999983 0.571482 0.714401
597 1 0.0713255 0.642958 0.785865
598 1 0.14259 0.571533 0.714563
599 1 0.214052 0.643068 0.786089
600 1 0.285205 0.571788 0.715083
601 1 0.357104 0.642925 0.785998
602 1 0.428525 0.57137 0.714644
603 1 0.500029 0.642878 0.785911
604 1 0.57206 0.57178 0.715239
605 1 0.643158 0.643076 0.786166
606 1 0.714799 0.571556 0.714757
607 1 0.785956 0.642989 0.785924
608 1 0.857378 0.571489 0.714464
609 1 0.928651 0.642941 0.785819
610 1 0.999973 0.71444 0.714406
611 1 0.0713499 0.785888 0.785848
612 1 0.142566 0.714611 0.71461
613 1 0.214206 0.785879 0.785892
614 1 0.285517 0.714585 0.714649
615 1 0.357152 0.785754 0.785809
616 1 0.428612 0.714339 0.714463
617 1 0.500027 0.785729 0.785796
618 1 0.571502 0.714399 0.714462
619 1 0.642921 0.7858 0.785809
620 1 0.714698 0.714662 0.714717
621 1 0.78589 0.785906 0.78587
622 1 0.85735 0.71446 0.714438
623 1 0.928636 0.785852 0.785802
624 1 1.85434e-05 0.857295 0.714354
625 1 0.0714242 0.928665 0.785768
626 1 0.142769 0.857347 0.714414
627 1 0.21428 0.928598 0.785771
628 1 0.285716 0.857233 0.714364
629 1 0.357155 0.928514 0.785763
630 1 0.428605 0.857131 0.714338
631 1 0.500009 0.928488 0.78576
632 1 0.571459 0.857147 0.714315
633 1 0.642899 0.92853 0.785749
634 1 0.714399 0.857283 0.71437
635 1 0.785795 0.928623 0.785769
636 1 0.857273 0.857316 0.714372
637 1 0.928637 0.92866 0.785758
643 1 0.785878 0.500023 0.92867
639 1 0.214201 0.500004 0.928697
589 1 0.0713458 0.5 0.785866
387 1 0.571471 0.857177 0.99998
642 1 0.643016 0.500025 0.928756
644 1 0.928644 0.500009 0.928616
683 1 0.71435 0.857201 0.857179
645 1 6.80166e-06 0.571459 0.857222
646 1 0.0714137 0.64292 0.928624
647 1 0.142759 0.571479 0.857303
648 1 0.214239 0.642926 0.928676
649 1 0.285642 0.571467 0.857402
650 1 0.357158 0.642898 0.928668
651 1 0.428587 0.571438 0.857354
652 1 0.50004 0.642903 0.928668
653 1 0.571549 0.571461 0.857465
654 1 0.642973 0.642949 0.928681
655 1 0.714499 0.57149 0.857376
656 1 0.785862 0.64295 0.928615
657 1 0.857283 0.571472 0.857248
658 1 0.928647 0.642927 0.928595
659 1 1.28099e-05 0.714386 0.857212
660 1 0.0714252 0.785812 0.928615
661 1 0.142768 0.714418 0.857302
662 1 0.214283 0.785782 0.928619
663 1 0.285687 0.714357 0.857286
664 1 0.357166 0.785739 0.928615
665 1 0.42859 0.71431 0.85725
666 1 0.500031 0.785746 0.928601
667 1 0.571469 0.714339 0.857241
668 1 0.642906 0.785779 0.928583
669 1 0.714445 0.714434 0.857304
670 1 0.785828 0.785837 0.928583
671 1 0.857259 0.714394 0.857223
672 1 0.928635 0.785814 0.928572
673 1 2.39802e-05 0.857249 0.857189
674 1 0.0714465 0.928612 0.928598
675 1 0.142834 0.85723 0.857219
676 1 0.214294 0.928563 0.928604
677 1 0.285724 0.857166 0.857201
678 1 0.357154 0.928534 0.928603
679 1 0.428588 0.857124 0.857181
680 1 0.500012 0.928527 0.928591
681 1 0.571452 0.85714 0.857176
682 1 0.642889 0.928557 0.928581
377 1 0.857261 0.714401 0.999946
250 1 0.285714 0.999936 0.714323
252 1 0.428588 0.999859 0.714342
254 1 0.571473 0.999857 0.714331
256 1 0.714361 0.999951 0.714322
297 1 0.142849 0.999974 0.857191
299 1 0.285697 0.999913 0.8572
301 1 0.428566 0.999878 0.857207
303 1 0.571458 0.999886 0.857208
305 1 0.714354 0.99993 0.857193
381 1 0.142868 0.857208 0.999985
351 1 3.50964e-05 0.571473 0.999994
361 1 0.714457 0.571518 0.999993
363 1 0.85727 0.571493 0.999985
365 1 4.96871e-05 0.714371 0.999973
307 1 0.857222 0.999998 0.85718
379 1 4.93981e-05 0.857242 0.999977
11 1 0.714348 0.999986 0.999995
638 1 0.0714057 0.500007 0.928638
375 1 0.714417 0.71442 0.999944
369 1 0.285727 0.714358 0.999998
