ITEM: TIMESTEP
120
ITEM: NUMBER OF ATOMS
692
ITEM: BOX BOUNDS pp pp pp
-8.1465566327000305e-03 2.2017693553488485e+01
-6.0950389541065174e-03 2.2015642035809883e+01
-7.8682050370325919e-03 2.2017415201892824e+01
ITEM: ATOMS id type xs ys zs
1 1 1.33002e-10 1.31992e-10 1.3237e-10
2 1 0.0714286 0.0714286 0.0714286
3 1 0.142857 1.28953e-10 1.35439e-10
4 1 0.214286 0.0714286 0.0714286
5 1 0.285714 1.1194e-10 1.20054e-10
6 1 0.357143 0.0714286 0.0714286
7 1 0.428571 1.64967e-10 1.70636e-10
8 1 0.5 0.0714286 0.0714286
9 1 0.571429 9.95593e-11 1.64512e-10
10 1 0.642857 0.0714286 0.0714286
11 1 0.714286 1.24647e-10 1.11638e-10
12 1 0.785714 0.0714286 0.0714286
13 1 0.857143 1.30301e-10 1.36739e-10
14 1 0.928571 0.0714286 0.0714286
15 1 1.26189e-10 0.142857 1.38709e-10
16 1 0.0714286 0.214286 0.0714286
17 1 0.142857 0.142857 1.27859e-10
18 1 0.214286 0.214286 0.0714286
19 1 0.285714 0.142857 -2.51709e-10
20 1 0.357143 0.214286 0.0714285
21 1 0.428571 0.142857 5.395e-10
22 1 0.5 0.214286 0.0714286
23 1 0.571429 0.142857 6.68092e-10
24 1 0.642857 0.214286 0.0714285
25 1 0.714286 0.142857 -1.07383e-09
26 1 0.785714 0.214286 0.0714286
27 1 0.857143 0.142857 2.61276e-10
28 1 0.928571 0.214286 0.0714286
29 1 1.65856e-10 0.285714 9.66548e-11
30 1 0.0714286 0.357143 0.0714286
31 1 0.142857 0.285714 5.18045e-10
32 1 0.214286 0.357143 0.0714286
33 1 0.285714 0.285714 4.93666e-09
34 1 0.357143 0.357143 0.0714287
35 1 0.428571 0.285714 1
36 1 0.5 0.357143 0.0714272
37 1 0.571429 0.285714 1
38 1 0.642857 0.357143 0.0714291
39 1 0.714286 0.285714 1.63445e-08
40 1 0.785714 0.357143 0.0714285
41 1 0.857143 0.285714 -6.21356e-10
42 1 0.928571 0.357143 0.0714286
43 1 9.77176e-11 0.428571 2.07709e-10
44 1 0.0714286 0.5 0.0714286
45 1 0.142857 0.428571 -2.2365e-09
46 1 0.214286 0.5 0.0714286
47 1 0.285714 0.428571 1
48 1 0.357144 0.5 0.07143
49 1 0.428571 0.428571 8.47101e-08
50 1 0.5 0.5 0.0714313
51 1 0.571429 0.428571 6.48433e-08
52 1 0.642856 0.5 0.0714298
53 1 0.714286 0.428571 1
54 1 0.785714 0.5 0.0714285
55 1 0.857143 0.428571 -3.4608e-09
56 1 0.928571 0.5 0.0714286
57 1 1.60801e-10 0.571429 1.42899e-10
58 1 0.0714286 0.642857 0.0714286
59 1 0.142857 0.571429 -5.30439e-09
60 1 0.214286 0.642857 0.0714286
61 1 0.285714 0.571429 4.55505e-09
62 1 0.357143 0.642857 0.0714288
63 1 0.428571 0.571429 3.36873e-07
64 1 0.5 0.642856 0.0714301
65 1 0.571429 0.571429 -1.41852e-07
66 1 0.642857 0.642857 0.0714286
67 1 0.714286 0.571429 2.62286e-08
68 1 0.785714 0.642857 0.0714286
69 1 0.857143 0.571429 -2.55597e-09
70 1 0.928571 0.642857 0.0714286
71 1 1.24559e-10 0.714286 1.18537e-10
72 1 0.0714286 0.785714 0.0714286
73 1 0.142857 0.714286 1.4109e-10
74 1 0.214286 0.785714 0.0714286
75 1 0.285714 0.714286 5.64316e-09
76 1 0.357143 0.785714 0.0714286
77 1 0.428571 0.714286 1.97353e-08
78 1 0.5 0.785714 0.0714285
79 1 0.571429 0.714286 3.51805e-08
80 1 0.642857 0.785714 0.0714286
81 1 0.714286 0.714286 2.14421e-09
82 1 0.785714 0.785714 0.0714286
83 1 0.857143 0.714286 -1.83379e-10
84 1 0.928571 0.785714 0.0714286
85 1 1.33633e-10 0.857143 1.36055e-10
86 1 0.0714286 0.928571 0.0714286
87 1 0.142857 0.857143 2.1302e-10
88 1 0.214286 0.928571 0.0714286
89 1 0.285714 0.857143 6.00763e-10
90 1 0.357143 0.928571 0.0714286
91 1 0.428571 0.857143 -3.00748e-09
92 1 0.5 0.928571 0.0714286
93 1 0.571429 0.857143 -1.58133e-09
94 1 0.642857 0.928571 0.0714286
95 1 0.714286 0.857143 3.80379e-10
96 1 0.785714 0.928571 0.0714286
97 1 0.857143 0.857143 1.77286e-10
98 1 0.928571 0.928571 0.0714286
99 1 1.30499e-10 1.32869e-10 0.142857
100 1 0.0714286 0.0714286 0.214286
101 1 0.142857 1.36755e-10 0.142857
102 1 0.214286 0.0714286 0.214286
103 1 0.285714 -1.68887e-10 0.142857
104 1 0.357143 0.0714286 0.214286
105 1 0.428571 -1.27756e-09 0.142857
106 1 0.5 0.0714285 0.214286
107 1 0.571429 -6.20402e-10 0.142857
108 1 0.642857 0.0714286 0.214286
109 1 0.714286 -4.20152e-10 0.142857
110 1 0.785714 0.0714286 0.214286
111 1 0.857143 1.47528e-10 0.142857
112 1 0.928571 0.0714286 0.214286
113 1 1.73553e-10 0.142857 0.142857
114 1 0.0714286 0.214286 0.214286
115 1 0.142857 0.142857 0.142857
116 1 0.214286 0.214286 0.214286
117 1 0.285714 0.142857 0.142857
118 1 0.357143 0.214286 0.214286
119 1 0.428571 0.142857 0.142857
120 1 0.5 0.214284 0.214285
121 1 0.571429 0.142857 0.142857
122 1 0.642858 0.214285 0.214285
123 1 0.714286 0.142857 0.142857
124 1 0.785714 0.214286 0.214286
125 1 0.857143 0.142857 0.142857
126 1 0.928571 0.214286 0.214286
127 1 -2.00428e-10 0.285714 0.142857
128 1 0.0714286 0.357143 0.214286
129 1 0.142857 0.285714 0.142857
130 1 0.214286 0.357143 0.214286
131 1 0.285714 0.285714 0.142857
132 1 0.357141 0.357133 0.21428
133 1 0.42857 0.285713 0.142856
134 1 0.499994 0.357081 0.21417
135 1 0.57143 0.285713 0.142856
136 1 0.642832 0.357145 0.21431
137 1 0.714285 0.285715 0.142858
138 1 0.785714 0.357143 0.214286
139 1 0.857143 0.285714 0.142857
140 1 0.928571 0.357143 0.214286
141 1 7.97945e-10 0.428571 0.142857
142 1 0.0714286 0.5 0.214286
143 1 0.142857 0.428571 0.142857
144 1 0.214289 0.5 0.214288
145 1 0.285716 0.428572 0.142859
146 1 0.357181 0.500024 0.214321
147 1 0.428581 0.428576 0.142864
148 1 0.499985 0.500088 0.213838
149 1 0.571414 0.428575 0.142861
150 1 0.642809 0.499994 0.214325
151 1 0.714284 0.428572 0.142859
152 1 0.785713 0.5 0.214286
153 1 0.857143 0.428571 0.142857
154 1 0.928571 0.5 0.214286
155 1 8.19176e-11 0.571429 0.142857
156 1 0.0714286 0.642857 0.214286
157 1 0.142857 0.571429 0.142857
158 1 0.214286 0.642857 0.214286
159 1 0.285717 0.571428 0.14286
160 1 0.357153 0.642847 0.214296
161 1 0.428573 0.571427 0.142881
162 1 0.499987 0.64281 0.214343
163 1 0.571425 0.571426 0.142848
164 1 0.642858 0.642851 0.2143
165 1 0.714284 0.571428 0.142858
166 1 0.785714 0.642857 0.214286
167 1 0.857143 0.571429 0.142857
168 1 0.928571 0.642857 0.214286
169 1 3.66586e-10 0.714286 0.142857
170 1 0.0714286 0.785714 0.214286
171 1 0.142857 0.714286 0.142857
172 1 0.214286 0.785714 0.214286
173 1 0.285715 0.714285 0.142857
174 1 0.357143 0.785714 0.214286
175 1 0.428572 0.714283 0.14286
176 1 0.5 0.785711 0.214288
177 1 0.571428 0.714284 0.142859
178 1 0.642857 0.785714 0.214286
179 1 0.714286 0.714286 0.142857
180 1 0.785714 0.785714 0.214286
181 1 0.857143 0.714286 0.142857
182 1 0.928571 0.785714 0.214286
183 1 1.43676e-10 0.857143 0.142857
184 1 0.0714286 0.928571 0.214286
185 1 0.142857 0.857143 0.142857
186 1 0.214286 0.928571 0.214286
187 1 0.285714 0.857143 0.142857
188 1 0.357143 0.928571 0.214286
189 1 0.428571 0.857143 0.142857
190 1 0.5 0.928571 0.214286
191 1 0.571429 0.857143 0.142857
192 1 0.642857 0.928571 0.214286
193 1 0.714286 0.857143 0.142857
194 1 0.785714 0.928571 0.214286
195 1 0.857143 0.857143 0.142857
196 1 0.928571 0.928571 0.214286
197 1 1.38575e-10 1.29795e-10 0.285714
198 1 0.0714286 0.0714286 0.357143
199 1 0.142857 1.20266e-10 0.285714
200 1 0.214286 0.0714286 0.357143
201 1 0.285714 1.18522e-10 0.285714
202 1 0.357143 0.0714286 0.357143
203 1 0.428571 -1.06883e-08 0.285714
204 1 0.5 0.0714281 0.357143
205 1 0.571429 -1.93173e-08 0.285714
206 1 0.642857 0.0714286 0.357143
207 1 0.714286 5.13878e-10 0.285714
208 1 0.785714 0.0714286 0.357143
209 1 0.857143 6.1003e-11 0.285714
210 1 0.928571 0.0714286 0.357143
211 1 7.73629e-11 0.142857 0.285714
212 1 0.0714286 0.214286 0.357143
213 1 0.142857 0.142857 0.285714
214 1 0.214286 0.214286 0.357143
215 1 0.285714 0.142857 0.285714
216 1 0.357144 0.214287 0.357143
217 1 0.428571 0.142857 0.285714
218 1 0.5 0.214254 0.357143
219 1 0.571429 0.142856 0.285714
220 1 0.642857 0.214285 0.357143
221 1 0.714286 0.142857 0.285714
222 1 0.785714 0.214286 0.357143
223 1 0.857143 0.142857 0.285714
224 1 0.928571 0.214286 0.357143
225 1 1.37109e-09 0.285714 0.285714
226 1 0.0714286 0.357143 0.357143
227 1 0.142857 0.285714 0.285714
228 1 0.214289 0.357145 0.357143
229 1 0.285716 0.285716 0.285715
230 1 0.357184 0.357189 0.357167
231 1 0.428575 0.285718 0.28571
232 1 0.499731 0.355744 0.357432
233 1 0.571447 0.28568 0.285695
234 1 0.642961 0.357095 0.357147
235 1 0.714287 0.285713 0.285713
236 1 0.785715 0.357143 0.357143
237 1 0.857143 0.285714 0.285714
238 1 0.928571 0.357143 0.357143
239 1 -2.41897e-09 0.428571 0.285714
240 1 0.0714282 0.5 0.357143
241 1 0.142857 0.428571 0.285714
242 1 0.214252 0.5 0.357143
243 1 0.285731 0.428571 0.285716
244 1 0.354656 0.500004 0.357168
245 1 0.427768 0.428258 0.285002
246 1 0.928571 0.928571 0.928571
247 1 0.57232 0.428434 0.284753
248 1 0.643836 0.499818 0.357141
249 1 0.714268 0.42858 0.285725
250 1 0.785732 0.500001 0.357143
251 1 0.857143 0.428571 0.285714
252 1 0.928572 0.5 0.357143
253 1 7.45514e-09 0.571429 0.285714
254 1 0.0714286 0.642857 0.357143
255 1 0.142857 0.571429 0.285714
256 1 0.214289 0.642855 0.357143
257 1 0.285759 0.57143 0.285714
258 1 0.357195 0.642804 0.357141
259 1 0.428154 0.571856 0.285047
260 1 0.499911 0.645181 0.357142
261 1 0.571757 0.5718 0.284841
262 1 0.642894 0.642935 0.35714
263 1 0.714289 0.571436 0.285712
264 1 0.785715 0.642857 0.357143
265 1 0.857143 0.571429 0.285714
266 1 0.928571 0.642857 0.357143
267 1 9.42681e-10 0.714286 0.285714
268 1 0.0714286 0.785714 0.357143
269 1 0.142857 0.714286 0.285714
270 1 0.214286 0.785714 0.357143
271 1 0.285717 0.714283 0.285715
272 1 0.357145 0.785711 0.357143
273 1 0.428571 0.71424 0.285715
274 1 0.5 0.785744 0.357143
275 1 0.571426 0.714238 0.28573
276 1 0.642855 0.785713 0.357143
277 1 0.714286 0.714287 0.285713
278 1 0.785714 0.785714 0.357143
279 1 0.857143 0.714286 0.285714
280 1 0.928571 0.785714 0.357143
281 1 1.22568e-10 0.857143 0.285714
282 1 0.0714286 0.928571 0.357143
283 1 0.142857 0.857143 0.285714
284 1 0.214286 0.928571 0.357143
285 1 0.285714 0.857143 0.285714
286 1 0.357143 0.928571 0.357143
287 1 0.428571 0.857143 0.285714
288 1 0.5 0.928572 0.357143
289 1 0.571429 0.857143 0.285714
290 1 0.642857 0.928571 0.357143
291 1 0.714286 0.857143 0.285714
292 1 0.785714 0.928571 0.357143
293 1 0.857143 0.857143 0.285714
294 1 0.928571 0.928571 0.357143
295 1 1.41819e-10 1.32363e-10 0.428571
296 1 0.0714286 0.0714286 0.5
297 1 0.142857 1.81763e-10 0.428571
298 1 0.214286 0.0714286 0.5
299 1 0.285714 -6.62553e-10 0.428571
300 1 0.357143 0.0714286 0.5
301 1 0.428571 1.06777e-09 0.428571
302 1 0.5 0.0714286 0.5
303 1 0.571429 -1.11908e-08 0.428571
304 1 0.642857 0.0714286 0.5
305 1 0.714286 8.65054e-11 0.428571
306 1 0.785714 0.0714286 0.5
307 1 0.857143 1.08747e-10 0.428571
308 1 0.928571 0.0714286 0.5
309 1 6.99247e-11 0.142857 0.428571
310 1 0.0714286 0.214286 0.5
311 1 0.142857 0.142857 0.428571
312 1 0.214286 0.214286 0.5
313 1 0.285714 0.142857 0.428571
314 1 0.357143 0.214286 0.499999
315 1 0.428571 0.142858 0.428572
316 1 0.5 0.214287 0.499999
317 1 0.571429 0.142857 0.428572
318 1 0.642857 0.214285 0.5
319 1 0.714286 0.142857 0.428571
320 1 0.785714 0.214286 0.5
321 1 0.857143 0.142857 0.428571
322 1 0.928571 0.214286 0.5
323 1 1.25554e-09 0.285714 0.428571
324 1 0.0714286 0.357143 0.5
325 1 0.142857 0.285714 0.428571
326 1 0.214286 0.357143 0.5
327 1 0.285717 0.285717 0.428571
328 1 0.357148 0.357149 0.499995
329 1 0.42858 0.285767 0.428563
330 1 0.499974 0.357187 0.499962
331 1 0.571434 0.285714 0.428569
332 1 0.642863 0.357132 0.500002
333 1 0.714287 0.285713 0.428573
334 1 0.785714 0.357143 0.5
335 1 0.857143 0.285714 0.428571
336 1 0.928571 0.357143 0.5
337 1 2.22114e-09 0.428571 0.428571
338 1 0.0714286 0.5 0.5
339 1 0.142857 0.428571 0.428572
340 1 0.214289 0.5 0.499997
341 1 0.285755 0.428571 0.428574
342 1 0.357193 0.500001 0.499951
343 1 0.427973 0.427926 0.429195
344 1 0.499962 0.499982 0.501959
345 1 0.572125 0.428132 0.42945
346 1 0.642837 0.500002 0.499986
347 1 0.714266 0.42858 0.428564
348 1 0.785714 0.5 0.5
349 1 0.857143 0.428571 0.428572
350 1 0.928571 0.5 0.5
351 1 7.39365e-09 0.571429 0.428571
352 1 0.0714286 0.642857 0.5
353 1 0.142857 0.571429 0.428572
354 1 0.214286 0.642857 0.5
355 1 0.285756 0.571429 0.428572
356 1 0.357148 0.642852 0.499995
357 1 0.427839 0.572123 0.429287
358 1 0.499986 0.64281 0.499946
359 1 0.572061 0.57208 0.429479
360 1 0.642863 0.642856 0.499991
361 1 0.714293 0.571437 0.428574
362 1 0.785714 0.642857 0.5
363 1 0.857143 0.571429 0.428572
364 1 0.928571 0.642857 0.5
365 1 9.47188e-10 0.714286 0.428571
366 1 0.0714286 0.785714 0.5
367 1 0.142857 0.714286 0.428571
368 1 0.214286 0.785714 0.5
369 1 0.285717 0.714283 0.428571
370 1 0.357143 0.785714 0.5
371 1 0.428571 0.714244 0.428571
372 1 0.5 0.785711 0.499997
373 1 0.571426 0.714242 0.428556
374 1 0.642857 0.785714 0.499999
375 1 0.714286 0.714286 0.428572
376 1 0.785714 0.785714 0.5
377 1 0.857143 0.714286 0.428571
378 1 0.928571 0.785714 0.5
379 1 1.2414e-10 0.857143 0.428571
380 1 0.0714286 0.928571 0.5
381 1 0.142857 0.857143 0.428571
382 1 0.214286 0.928571 0.5
383 1 0.285714 0.857143 0.428571
384 1 0.357143 0.928571 0.5
385 1 0.428571 0.857143 0.428572
386 1 0.5 0.928571 0.5
387 1 0.571429 0.857143 0.428572
388 1 0.642857 0.928571 0.5
389 1 0.714286 0.857143 0.428571
390 1 0.785714 0.928571 0.5
391 1 0.857143 0.857143 0.428571
392 1 0.928571 0.928571 0.5
393 1 1.30918e-10 1.31623e-10 0.571429
394 1 0.0714286 0.0714286 0.642857
395 1 0.142857 1.20408e-10 0.571429
396 1 0.214286 0.0714286 0.642857
397 1 0.285714 2.56792e-10 0.571429
398 1 0.357143 0.0714286 0.642857
399 1 0.428571 -6.97278e-10 0.571429
400 1 0.5 0.0714286 0.642857
401 1 0.571429 3.16208e-10 0.571429
402 1 0.642857 0.0714286 0.642857
403 1 0.714286 -2.70369e-10 0.571429
404 1 0.785714 0.0714286 0.642857
405 1 0.857143 1.48628e-10 0.571429
406 1 0.928571 0.0714286 0.642857
407 1 1.59072e-10 0.142857 0.571429
408 1 0.0714286 0.214286 0.642857
409 1 0.142857 0.142857 0.571429
410 1 0.214286 0.214286 0.642857
411 1 0.285714 0.142857 0.571429
412 1 0.357143 0.214286 0.642857
413 1 0.428571 0.142857 0.571429
414 1 0.5 0.214286 0.642857
415 1 0.571429 0.142857 0.571429
416 1 0.642857 0.214286 0.642857
417 1 0.714286 0.142857 0.571429
418 1 0.785714 0.214286 0.642857
419 1 0.857143 0.142857 0.571429
420 1 0.928571 0.214286 0.642857
421 1 1.01461e-10 0.285714 0.571429
422 1 0.0714286 0.357143 0.642857
423 1 0.142857 0.285714 0.571429
424 1 0.214286 0.357143 0.642857
425 1 0.285714 0.285714 0.571428
426 1 0.357143 0.357143 0.642857
427 1 0.428572 0.285717 0.571426
428 1 0.5 0.357145 0.642855
429 1 0.571428 0.285716 0.571427
430 1 0.642857 0.357143 0.642857
431 1 0.714286 0.285714 0.571429
432 1 0.785714 0.357143 0.642857
433 1 0.857143 0.285714 0.571429
434 1 0.928571 0.357143 0.642857
435 1 9.94493e-10 0.428571 0.571429
436 1 0.0714286 0.5 0.642857
437 1 0.142857 0.428571 0.571429
438 1 0.214286 0.5 0.642857
439 1 0.285717 0.428572 0.571426
440 1 0.357145 0.5 0.642854
441 1 0.428575 0.428576 0.571383
442 1 0.499999 0.5 0.64288
443 1 0.571421 0.428575 0.57141
444 1 0.642855 0.5 0.642855
445 1 0.714285 0.428572 0.571427
446 1 0.785714 0.5 0.642857
447 1 0.857143 0.428571 0.571429
448 1 0.928571 0.5 0.642857
449 1 3.83722e-10 0.571429 0.571429
450 1 0.0714286 0.642857 0.642857
451 1 0.142857 0.571429 0.571429
452 1 0.214286 0.642857 0.642857
453 1 0.285717 0.571428 0.571426
454 1 0.357143 0.642857 0.642857
455 1 0.428575 0.571424 0.571382
456 1 0.5 0.642855 0.642854
457 1 0.571423 0.571423 0.571416
458 1 0.642857 0.642857 0.642857
459 1 0.714285 0.571428 0.571428
460 1 0.785714 0.642857 0.642857
461 1 0.857143 0.571429 0.571429
462 1 0.928571 0.642857 0.642857
463 1 3.48698e-10 0.714286 0.571429
464 1 0.0714286 0.785714 0.642857
465 1 0.142857 0.714286 0.571429
466 1 0.214286 0.785714 0.642857
467 1 0.285714 0.714286 0.571428
468 1 0.357143 0.785714 0.642857
469 1 0.428572 0.714283 0.571426
470 1 0.5 0.785714 0.642857
471 1 0.571428 0.714284 0.571427
472 1 0.642857 0.785714 0.642857
473 1 0.714286 0.714286 0.571429
474 1 0.785714 0.785714 0.642857
475 1 0.857143 0.714286 0.571429
476 1 0.928571 0.785714 0.642857
477 1 1.44869e-10 0.857143 0.571429
478 1 0.0714286 0.928571 0.642857
479 1 0.142857 0.857143 0.571429
480 1 0.214286 0.928571 0.642857
481 1 0.285714 0.857143 0.571429
482 1 0.357143 0.928571 0.642857
483 1 0.428571 0.857143 0.571429
484 1 0.5 0.928571 0.642857
485 1 0.571429 0.857143 0.571429
486 1 0.642857 0.928571 0.642857
487 1 0.714286 0.857143 0.571429
488 1 0.785714 0.928571 0.642857
489 1 0.857143 0.857143 0.571429
490 1 0.928571 0.928571 0.642857
491 1 1.32852e-10 1.32167e-10 0.714286
492 1 0.0714286 0.0714286 0.785714
493 1 0.142857 1.32359e-10 0.714286
494 1 0.214286 0.0714286 0.785714
495 1 0.285714 1.21022e-10 0.714286
496 1 0.357143 0.0714286 0.785714
497 1 0.428571 1.77296e-10 0.714286
498 1 0.5 0.0714286 0.785714
499 1 0.571429 9.54707e-11 0.714286
500 1 0.642857 0.0714286 0.785714
501 1 0.714286 1.4519e-10 0.714286
502 1 0.785714 0.0714286 0.785714
503 1 0.857143 1.28253e-10 0.714286
504 1 0.928571 0.0714286 0.785714
505 1 1.32874e-10 0.142857 0.714286
506 1 0.0714286 0.214286 0.785714
507 1 0.142857 0.142857 0.714286
508 1 0.214286 0.214286 0.785714
509 1 0.285714 0.142857 0.714286
510 1 0.357143 0.214286 0.785714
511 1 0.428571 0.142857 0.714286
512 1 0.5 0.214286 0.785714
513 1 0.571429 0.142857 0.714286
514 1 0.642857 0.214286 0.785714
515 1 0.714286 0.142857 0.714286
516 1 0.785714 0.214286 0.785714
517 1 0.857143 0.142857 0.714286
518 1 0.928571 0.214286 0.785714
519 1 1.45926e-10 0.285714 0.714286
520 1 0.0714286 0.357143 0.785714
521 1 0.142857 0.285714 0.714286
522 1 0.214286 0.357143 0.785714
523 1 0.285714 0.285714 0.714286
524 1 0.357143 0.357143 0.785714
525 1 0.428571 0.285714 0.714286
526 1 0.5 0.357143 0.785714
527 1 0.571429 0.285714 0.714286
528 1 0.642857 0.357143 0.785714
529 1 0.714286 0.285714 0.714286
530 1 0.785714 0.357143 0.785714
531 1 0.857143 0.285714 0.714286
532 1 0.928571 0.357143 0.785714
533 1 6.41891e-11 0.428571 0.714286
534 1 0.0714286 0.5 0.785714
535 1 0.142857 0.428571 0.714286
536 1 0.214286 0.5 0.785714
537 1 0.285714 0.428571 0.714286
538 1 0.357143 0.5 0.785714
539 1 0.428571 0.428571 0.714285
540 1 0.5 0.5 0.785715
541 1 0.571429 0.428571 0.714286
542 1 0.642857 0.5 0.785714
543 1 0.714286 0.428571 0.714286
544 1 0.785714 0.5 0.785714
545 1 0.857143 0.428571 0.714286
546 1 0.928571 0.5 0.785714
547 1 1.51517e-10 0.571429 0.714286
548 1 0.0714286 0.642857 0.785714
549 1 0.142857 0.571429 0.714286
550 1 0.214286 0.642857 0.785714
551 1 0.285714 0.571429 0.714286
552 1 0.357143 0.642857 0.785714
553 1 0.428571 0.571429 0.714285
554 1 0.5 0.642857 0.785714
555 1 0.571429 0.571429 0.714286
556 1 0.642857 0.642857 0.785714
557 1 0.714286 0.571429 0.714286
558 1 0.785714 0.642857 0.785714
559 1 0.857143 0.571429 0.714286
560 1 0.928571 0.642857 0.785714
561 1 1.31477e-10 0.714286 0.714286
562 1 0.0714286 0.785714 0.785714
563 1 0.142857 0.714286 0.714286
564 1 0.214286 0.785714 0.785714
565 1 0.285714 0.714286 0.714286
566 1 0.357143 0.785714 0.785714
567 1 0.428571 0.714286 0.714286
568 1 0.5 0.785714 0.785714
569 1 0.571429 0.714286 0.714286
570 1 0.642857 0.785714 0.785714
571 1 0.714286 0.714286 0.714286
572 1 0.785714 0.785714 0.785714
573 1 0.857143 0.714286 0.714286
574 1 0.928571 0.785714 0.785714
575 1 1.33424e-10 0.857143 0.714286
576 1 0.0714286 0.928571 0.785714
577 1 0.142857 0.857143 0.714286
578 1 0.214286 0.928571 0.785714
579 1 0.285714 0.857143 0.714286
580 1 0.357143 0.928571 0.785714
581 1 0.428571 0.857143 0.714286
582 1 0.5 0.928571 0.785714
583 1 0.571429 0.857143 0.714286
584 1 0.642857 0.928571 0.785714
585 1 0.714286 0.857143 0.714286
586 1 0.785714 0.928571 0.785714
587 1 0.857143 0.857143 0.714286
588 1 0.928571 0.928571 0.785714
589 1 1.32637e-10 1.32111e-10 0.857143
590 1 0.0714286 0.0714286 0.928571
591 1 0.142857 1.32021e-10 0.857143
592 1 0.214286 0.0714286 0.928571
593 1 0.285714 1.32338e-10 0.857143
594 1 0.357143 0.0714286 0.928571
595 1 0.428571 1.28668e-10 0.857143
596 1 0.5 0.0714286 0.928571
597 1 0.571429 1.29987e-10 0.857143
598 1 0.642857 0.0714286 0.928571
599 1 0.714286 1.32553e-10 0.857143
600 1 0.785714 0.0714286 0.928571
601 1 0.857143 1.31939e-10 0.857143
602 1 0.928571 0.0714286 0.928571
603 1 1.32859e-10 0.142857 0.857143
604 1 0.0714286 0.214286 0.928571
605 1 0.142857 0.142857 0.857143
606 1 0.214286 0.214286 0.928571
607 1 0.285714 0.142857 0.857143
608 1 0.357143 0.214286 0.928571
609 1 0.428571 0.142857 0.857143
610 1 0.5 0.214286 0.928571
611 1 0.571429 0.142857 0.857143
612 1 0.642857 0.214286 0.928571
613 1 0.714286 0.142857 0.857143
614 1 0.785714 0.214286 0.928571
615 1 0.857143 0.142857 0.857143
616 1 0.928571 0.214286 0.928571
617 1 1.30737e-10 0.285714 0.857143
618 1 0.0714286 0.357143 0.928571
619 1 0.142857 0.285714 0.857143
620 1 0.214286 0.357143 0.928571
621 1 0.285714 0.285714 0.857143
622 1 0.357143 0.357143 0.928571
623 1 0.428571 0.285714 0.857143
624 1 0.5 0.357143 0.928571
625 1 0.571429 0.285714 0.857143
626 1 0.642857 0.357143 0.928571
627 1 0.714286 0.285714 0.857143
628 1 0.785714 0.357143 0.928571
629 1 0.857143 0.285714 0.857143
630 1 0.928571 0.357143 0.928571
631 1 1.34585e-10 0.428571 0.857143
632 1 0.0714286 0.5 0.928571
633 1 0.142857 0.428571 0.857143
634 1 0.214286 0.5 0.928571
635 1 0.285714 0.428571 0.857143
636 1 0.357143 0.5 0.928571
637 1 0.428571 0.428571 0.857143
638 1 0.5 0.5 0.928571
639 1 0.571429 0.428571 0.857143
640 1 0.642857 0.5 0.928571
641 1 0.714286 0.428571 0.857143
642 1 0.785714 0.5 0.928571
643 1 0.857143 0.428571 0.857143
644 1 0.928571 0.5 0.928571
645 1 1.41783e-10 0.571429 0.857143
646 1 0.0714286 0.642857 0.928571
647 1 0.142857 0.571429 0.857143
648 1 0.214286 0.642857 0.928571
649 1 0.285714 0.571429 0.857143
650 1 0.357143 0.642857 0.928571
651 1 0.428571 0.571429 0.857143
652 1 0.5 0.642857 0.928571
653 1 0.571429 0.571429 0.857143
654 1 0.642857 0.642857 0.928571
655 1 0.714286 0.571429 0.857143
656 1 0.785714 0.642857 0.928571
657 1 0.857143 0.571429 0.857143
658 1 0.928571 0.642857 0.928571
659 1 1.30655e-10 0.714286 0.857143
660 1 0.0714286 0.785714 0.928571
661 1 0.142857 0.714286 0.857143
662 1 0.214286 0.785714 0.928571
663 1 0.285714 0.714286 0.857143
664 1 0.357143 0.785714 0.928571
665 1 0.428571 0.714286 0.857143
666 1 0.5 0.785714 0.928571
667 1 0.571429 0.714286 0.857143
668 1 0.642857 0.785714 0.928571
669 1 0.714286 0.714286 0.857143
670 1 0.785714 0.785714 0.928571
671 1 0.857143 0.714286 0.857143
672 1 0.928571 0.785714 0.928571
673 1 1.32727e-10 0.857143 0.857143
674 1 0.0714286 0.928571 0.928571
675 1 0.142857 0.857143 0.857143
676 1 0.214286 0.928571 0.928571
677 1 0.285714 0.857143 0.857143
678 1 0.357143 0.928571 0.928571
679 1 0.428571 0.857143 0.857143
680 1 0.5 0.928571 0.928571
681 1 0.571429 0.857143 0.857143
682 1 0.642857 0.928571 0.928571
683 1 0.714286 0.857143 0.857143
684 1 0.785714 0.928571 0.928571
685 1 0.857143 0.857143 0.857143
686 2 0.536731 0.42962 0.358591
687 2 0.498408 0.429369 0.320165
688 2 0.571199 0.53553 0.357129
689 3 0.502494 0.496785 0.352207
690 3 0.500043 0.499944 0.417946
691 3 0.499932 0.561991 0.356826
692 3 0.436843 0.499991 0.356936
