ITEM: TIMESTEP
18
ITEM: NUMBER OF ATOMS
691
ITEM: BOX BOUNDS pp pp pp
0.0000000000000000e+00 2.2013900999999997e+01
0.0000000000000000e+00 2.2013900999999997e+01
0.0000000000000000e+00 2.2013900999999997e+01
ITEM: ATOMS id type xs ys zs
1 1 6.96331e-06 1.82798e-06 1.68732e-05
2 1 0.0713489 0.071343 0.0713529
688 3 0.425154 0.497058 0.465329
4 1 0.214217 0.0713123 0.071327
175 1 0.857264 0.428554 0.428541
6 1 0.357114 0.0713228 0.0713269
174 1 0.714448 0.42828 0.42818
8 1 0.499988 0.0713115 0.0713062
173 1 0.574124 0.42366 0.42429
10 1 0.64292 0.0712771 0.0712674
172 1 0.429647 0.423404 0.411136
12 1 0.785868 0.0712948 0.0712799
13 1 0.857219 7.33666e-06 9.88736e-06
14 1 0.928629 0.0713804 0.0713634
448 1 0.928627 0.500001 0.357122
16 1 0.0713213 0.214231 0.0713305
447 1 0.786047 0.499998 0.356981
18 1 0.214138 0.214146 0.0711985
446 1 0.643866 0.499966 0.356222
20 1 0.357101 0.214158 0.0712338
193 1 0.502868 0.348972 0.499175
22 1 0.500011 0.214142 0.0711907
350 1 0.928601 0.499996 0.071386
24 1 0.64302 0.214091 0.0710496
345 1 0.214218 0.499997 0.0713164
26 1 0.785922 0.214177 0.0711899
344 1 0.0713645 0.499999 0.0713669
28 1 0.92863 0.214253 0.0713417
399 1 0.928621 0.499999 0.214198
30 1 0.0713464 0.357142 0.0713544
155 1 0.99994 0.142763 0.428564
32 1 0.21418 0.35712 0.0712775
156 1 0.142555 0.142552 0.428513
34 1 0.357106 0.357092 0.0712912
157 1 0.285429 0.14221 0.428425
36 1 0.50003 0.35709 0.0712523
147 1 0.857365 0.428563 0.285596
38 1 0.642981 0.357107 0.0711571
146 1 0.714953 0.428359 0.285146
40 1 0.785865 0.357141 0.0712668
398 1 0.785982 0.499994 0.214062
42 1 0.928613 0.357146 0.0713634
43 1 0.999979 0.428569 4.54795e-06
145 1 0.572316 0.427972 0.28451
144 1 0.428583 0.427917 0.284062
143 1 0.285179 0.428339 0.284956
142 1 0.142512 0.428545 0.285451
397 1 0.643224 0.499995 0.213834
396 1 0.500126 0.499936 0.214138
171 1 0.285019 0.426957 0.426812
51 1 0.0713016 0.0713001 0.214177
170 1 0.142966 0.428602 0.428571
53 1 0.214109 0.0711364 0.214075
169 1 1.27131e-05 0.428585 0.42857
55 1 0.357076 0.0711697 0.214076
168 1 0.857421 0.285613 0.428552
57 1 0.50002 0.0711317 0.214043
167 1 0.715225 0.284995 0.428268
59 1 0.643061 0.0710016 0.213976
166 1 0.573466 0.282936 0.426802
61 1 0.785982 0.0711685 0.214081
165 1 0.428492 0.285079 0.42731
63 1 0.92865 0.0713445 0.21421
64 1 0.999961 0.142771 0.142748
65 1 0.0711506 0.214121 0.21408
66 1 0.142585 0.142587 0.142565
67 1 0.213454 0.213452 0.213382
68 1 0.285588 0.142578 0.142552
69 1 0.356936 0.213693 0.213675
70 1 0.428541 0.142606 0.142573
71 1 0.50017 0.213607 0.213583
72 1 0.571532 0.142497 0.142452
73 1 0.643951 0.213039 0.21295
74 1 0.71468 0.14242 0.14237
75 1 0.786386 0.213813 0.213752
76 1 0.857385 0.142681 0.142644
77 1 0.928715 0.214187 0.214151
78 1 0.99996 0.285694 0.142747
79 1 0.0712356 0.357117 0.214127
80 1 0.142603 0.285619 0.142578
81 1 0.213828 0.356953 0.213765
82 1 0.285484 0.285471 0.142338
83 1 0.356966 0.356768 0.213993
84 1 0.428557 0.285489 0.142451
85 1 0.500231 0.356671 0.213856
86 1 0.571683 0.285373 0.142155
87 1 0.64357 0.356694 0.213336
88 1 0.714708 0.28549 0.142279
89 1 0.786166 0.357036 0.213917
90 1 0.857365 0.285662 0.142652
91 1 0.92867 0.357141 0.214176
92 1 0.999967 0.428576 0.142772
93 1 0.142708 0.428568 0.142678
94 1 0.285612 0.428509 0.142605
95 1 0.428568 0.428475 0.142557
96 1 0.571557 0.428474 0.142533
97 1 0.714509 0.428553 0.142571
98 1 0.857275 0.42858 0.14273
164 1 0.284007 0.283682 0.427204
100 1 0.0713013 0.0713081 0.357101
163 1 0.142319 0.285411 0.428478
102 1 0.214087 0.0711125 0.357033
162 1 0.999934 0.285681 0.428572
104 1 0.357077 0.071082 0.357024
161 1 0.857351 0.142713 0.428568
106 1 0.500045 0.0710223 0.357
160 1 0.714735 0.142379 0.428483
108 1 0.643112 0.0709621 0.35698
159 1 0.571787 0.142026 0.428364
110 1 0.78597 0.0712156 0.357075
158 1 0.428582 0.142368 0.428398
112 1 0.92864 0.0713561 0.357122
113 1 0.999942 0.142745 0.285647
114 1 0.0711376 0.214109 0.35705
115 1 0.142479 0.142479 0.285473
116 1 0.213431 0.21337 0.35658
117 1 0.285394 0.142191 0.285306
118 1 0.356795 0.213058 0.356498
119 1 0.428547 0.142273 0.285325
120 1 0.500382 0.212831 0.356353
121 1 0.571787 0.141973 0.285165
122 1 0.644073 0.212811 0.356235
123 1 0.714887 0.142154 0.285284
124 1 0.786332 0.213864 0.35694
125 1 0.857429 0.142646 0.285594
126 1 0.928693 0.21419 0.357109
127 1 0.99993 0.285667 0.285629
128 1 0.0711882 0.357126 0.357081
129 1 0.142215 0.285376 0.285306
130 1 0.213177 0.356533 0.35649
131 1 0.283725 0.28359 0.283527
132 1 0.353027 0.352887 0.353902
133 1 0.428515 0.284461 0.284514
134 1 0.504482 0.35204 0.353058
135 1 0.573753 0.282975 0.282956
136 1 0.645606 0.354769 0.35477
137 1 0.715718 0.284613 0.284537
138 1 0.786418 0.356877 0.356849
139 1 0.857587 0.285554 0.285511
140 1 0.928685 0.35714 0.357114
141 1 0.999949 0.428585 0.28565
395 1 0.357085 0.499969 0.214161
348 1 0.642925 0.499994 0.0712996
347 1 0.500022 0.499994 0.0713283
346 1 0.357128 0.499995 0.0713302
192 1 0.354287 0.349196 0.500001
176 1 0.0713101 0.071323 0.499999
186 1 0.500246 0.213196 0.499939
187 1 0.643605 0.213413 0.499939
516 1 0.645186 0.499879 0.498713
194 1 0.643396 0.356337 0.499699
195 1 0.785967 0.357057 0.499945
44 1 0.142789 0.428573 4.23439e-06
31 1 0.142752 0.285689 3.30318e-06
17 1 0.142752 0.142756 3.18639e-06
197 1 0.99998 6.34901e-06 0.571432
177 1 0.214119 0.0711576 0.500002
178 1 0.357117 0.071174 0.50001
179 1 0.50004 0.071162 0.500014
180 1 0.643065 0.0711282 0.500017
181 1 0.785913 0.0713046 0.500022
182 1 0.928619 0.0713827 0.500008
644 1 0.928601 0.499982 0.928637
643 1 0.785813 0.499995 0.928661
185 1 0.357002 0.213254 0.500008
256 1 0.714438 2.7165e-05 0.714409
27 1 0.857233 0.142815 0.999953
188 1 0.786096 0.214051 0.50002
189 1 0.928628 0.214221 0.500015
47 1 0.571446 0.428574 0.999928
46 1 0.428579 0.428567 0.999929
639 1 0.214234 0.499997 0.928685
638 1 0.0713667 0.499993 0.928657
25 1 0.714403 0.142747 0.999922
23 1 0.571448 0.142748 0.99994
595 1 0.928618 0.499984 0.78583
691 3 0.394946 0.431629 0.50014
198 1 0.0712924 0.0713154 0.642898
690 3 0.466425 0.433563 0.501625
200 1 0.2141 0.0711105 0.642969
689 3 0.437715 0.497963 0.535034
202 1 0.35711 0.0711372 0.642969
343 1 0.857233 0.428552 0.857243
204 1 0.500055 0.0711701 0.642972
342 1 0.714447 0.428584 0.857287
206 1 0.643057 0.0711779 0.642987
341 1 0.571567 0.428562 0.857248
208 1 0.785896 0.0713519 0.642929
209 1 0.857255 2.95006e-05 0.571448
210 1 0.928607 0.0714045 0.642883
211 1 0.999918 0.142772 0.571446
212 1 0.0710944 0.214089 0.642962
213 1 0.142551 0.142541 0.57149
214 1 0.213421 0.213302 0.643455
215 1 0.285448 0.142214 0.571583
216 1 0.356889 0.213141 0.643423
217 1 0.428607 0.142491 0.571572
218 1 0.500363 0.213284 0.643332
219 1 0.571747 0.142268 0.571564
220 1 0.643651 0.213539 0.643304
221 1 0.714643 0.142541 0.571525
222 1 0.786051 0.214122 0.642978
223 1 0.857295 0.142767 0.571468
224 1 0.928587 0.214232 0.642896
225 1 0.999892 0.285676 0.571442
226 1 0.0711031 0.357087 0.64296
227 1 0.142278 0.285364 0.571552
228 1 0.21289 0.356265 0.643833
229 1 0.283988 0.283586 0.572774
230 1 0.35316 0.352933 0.645985
231 1 0.428719 0.285571 0.572328
232 1 0.504283 0.353151 0.645722
233 1 0.573235 0.28397 0.572515
234 1 0.643838 0.356878 0.643049
235 1 0.714927 0.285384 0.571516
236 1 0.78599 0.357138 0.64292
237 1 0.857309 0.285674 0.571456
238 1 0.928584 0.35714 0.642887
239 1 0.999996 0.428575 0.571442
240 1 0.142912 0.428587 0.571521
241 1 0.284323 0.426238 0.574049
242 1 0.427436 0.424047 0.589602
243 1 0.571962 0.428256 0.571806
244 1 0.714438 0.428606 0.571323
245 1 0.857257 0.428585 0.571454
246 1 0.999983 2.37889e-05 0.714325
247 1 0.071288 0.0713106 0.785827
340 1 0.428603 0.428539 0.857273
249 1 0.214124 0.0711287 0.785926
339 1 0.285663 0.428533 0.857371
251 1 0.357111 0.0712212 0.785896
338 1 0.142708 0.428562 0.857356
253 1 0.500033 0.0712494 0.785893
337 1 0.999951 0.428556 0.857241
255 1 0.643012 0.0712235 0.785921
336 1 0.928589 0.357133 0.928613
257 1 0.785877 0.0713814 0.785837
258 1 0.857263 7.18924e-05 0.71435
259 1 0.928603 0.0714229 0.785775
260 1 0.999887 0.142767 0.714352
261 1 0.0710827 0.214096 0.785945
262 1 0.142463 0.142452 0.714536
263 1 0.213349 0.213313 0.786759
264 1 0.285431 0.142197 0.714693
265 1 0.357021 0.213784 0.786233
266 1 0.428595 0.142432 0.714586
267 1 0.500155 0.213846 0.786173
268 1 0.571718 0.142301 0.71464
269 1 0.643588 0.213593 0.786483
270 1 0.714645 0.14256 0.71452
271 1 0.785994 0.214161 0.785894
272 1 0.857279 0.14279 0.714362
273 1 0.928571 0.214241 0.785793
274 1 0.999832 0.285656 0.714377
275 1 0.0711914 0.357091 0.785908
276 1 0.142115 0.285273 0.714798
277 1 0.213808 0.356921 0.786324
278 1 0.283355 0.283158 0.716925
279 1 0.357022 0.35685 0.785885
280 1 0.428629 0.284762 0.715163
281 1 0.500204 0.356922 0.785742
282 1 0.573381 0.283781 0.716217
283 1 0.643327 0.357021 0.786095
284 1 0.714879 0.285477 0.7146
285 1 0.785932 0.357114 0.785862
286 1 0.857287 0.285674 0.714368
287 1 0.928581 0.357122 0.785799
288 1 0.999908 0.428561 0.714371
289 1 0.142426 0.428515 0.714656
290 1 0.285025 0.428358 0.715251
291 1 0.428311 0.428038 0.715775
292 1 0.572506 0.428164 0.714845
293 1 0.714733 0.428619 0.714482
294 1 0.857287 0.428569 0.714384
295 1 0.999996 2.92822e-05 0.857219
296 1 0.0713402 0.0713478 0.928658
335 1 0.857235 0.285689 0.857225
298 1 0.214225 0.0713161 0.928671
334 1 0.785814 0.357138 0.928615
300 1 0.357128 0.0713413 0.928646
333 1 0.714512 0.285646 0.85735
302 1 0.499998 0.0713521 0.928637
332 1 0.642945 0.357143 0.928628
304 1 0.642908 0.0713481 0.928649
305 1 0.714383 2.18213e-05 0.857284
306 1 0.785823 0.071384 0.928636
307 1 0.857251 8.09981e-05 0.857248
308 1 0.928604 0.071429 0.928616
309 1 0.999909 0.142793 0.857239
310 1 0.0713058 0.214228 0.928675
311 1 0.142564 0.142567 0.857458
312 1 0.214147 0.214145 0.92881
313 1 0.285628 0.142598 0.857428
314 1 0.357126 0.214182 0.928699
315 1 0.428579 0.142684 0.857343
316 1 0.500018 0.214196 0.928667
317 1 0.571518 0.142651 0.857382
318 1 0.642979 0.214175 0.92871
319 1 0.714534 0.142651 0.857391
320 1 0.78584 0.214242 0.928615
321 1 0.857246 0.142818 0.857226
322 1 0.928587 0.214268 0.928605
323 1 0.999911 0.285685 0.857244
324 1 0.0713395 0.357136 0.928656
325 1 0.142588 0.285607 0.857456
326 1 0.214194 0.357121 0.92872
327 1 0.285525 0.285484 0.857649
328 1 0.357137 0.357115 0.928608
329 1 0.428596 0.285587 0.857378
330 1 0.500036 0.357133 0.928555
331 1 0.571616 0.285556 0.857523
45 1 0.285703 0.428567 0.999974
21 1 0.428559 0.142768 0.999967
39 1 0.714405 0.285687 0.999899
37 1 0.571463 0.285676 0.999903
35 1 0.42857 0.285687 0.999939
33 1 0.285672 0.285673 0.99998
589 1 0.071251 0.5 0.785904
19 1 0.285677 0.14275 0.999989
15 1 0.999972 0.142825 0.999994
196 1 0.92862 0.357156 0.500005
29 1 0.999969 0.285705 0.999994
41 1 0.857224 0.285704 0.999956
48 1 0.714363 0.428579 0.999959
49 1 0.857207 0.42857 0.999991
183 1 0.0711841 0.214131 0.500003
184 1 0.213687 0.21355 0.500003
190 1 0.0713371 0.357139 0.500012
191 1 0.214058 0.356661 0.500033
511 1 0.857345 0.85733 0.428537
510 1 0.714596 0.857543 0.428493
539 1 0.928637 0.928648 0.499995
393 1 0.0712725 0.50001 0.214141
517 1 0.786141 0.500054 0.499927
349 1 0.785815 0.500001 0.0713429
509 1 0.57159 0.857489 0.42853
351 1 0.999987 0.571418 2.01447e-05
352 1 0.0713558 0.642875 0.0713486
152 1 0.571496 0.999862 0.428551
354 1 0.214205 0.642907 0.0712709
153 1 0.714454 0.999937 0.428552
356 1 0.357127 0.642901 0.0712769
154 1 0.857265 0.999996 0.428564
358 1 0.500013 0.64289 0.0712824
442 1 0.0712724 0.500056 0.357085
360 1 0.642938 0.642896 0.0712565
361 1 0.714365 0.571428 1.66741e-05
362 1 0.785834 0.642869 0.0713348
363 1 0.857213 0.571418 2.72247e-05
364 1 0.928608 0.642855 0.0713915
365 1 0.999998 0.714306 3.6711e-05
366 1 0.0713647 0.785788 0.0713457
151 1 0.428564 0.999869 0.428556
368 1 0.214222 0.785816 0.0713046
150 1 0.285647 0.999879 0.428551
370 1 0.357118 0.785808 0.0713152
526 1 0.0712668 0.785926 0.499989
372 1 0.499997 0.785811 0.0713118
373 1 0.571451 0.714351 8.5045e-06
374 1 0.642915 0.785836 0.0712852
375 1 0.714383 0.714356 4.78934e-05
376 1 0.785848 0.785819 0.071315
377 1 0.857243 0.714316 6.35572e-05
378 1 0.928625 0.785759 0.071393
379 1 1.53885e-05 0.857199 3.99462e-05
380 1 0.0713996 0.928595 0.0713859
149 1 0.142747 0.999939 0.428553
382 1 0.214249 0.92859 0.0713673
383 1 0.285691 0.857199 1.68549e-06
384 1 0.357121 0.928588 0.0713653
385 1 0.428554 0.857199 3.85353e-06
386 1 0.499985 0.928589 0.0713602
387 1 0.571429 0.857216 1.70589e-05
388 1 0.64288 0.928598 0.0713558
389 1 0.714347 0.85724 4.94095e-05
390 1 0.785796 0.928609 0.0713724
391 1 0.857247 0.857233 6.80012e-05
392 1 0.928628 0.928617 0.0714011
508 1 0.428619 0.857318 0.428564
394 1 0.213997 0.50004 0.213911
525 1 0.928717 0.642924 0.499999
524 1 0.786448 0.643255 0.499946
533 1 0.0713614 0.928635 0.499993
532 1 0.928694 0.785865 0.499997
523 1 0.64478 0.644419 0.499544
400 1 0.999955 0.571427 0.142762
401 1 0.0711824 0.642948 0.214039
402 1 0.1427 0.571465 0.142638
403 1 0.213865 0.64321 0.213631
404 1 0.285616 0.571475 0.142539
405 1 0.357024 0.643199 0.213661
406 1 0.428574 0.571448 0.142653
407 1 0.50019 0.643191 0.213614
408 1 0.571544 0.57146 0.142563
409 1 0.643424 0.643295 0.213427
410 1 0.71448 0.571452 0.142601
411 1 0.786119 0.642963 0.213915
412 1 0.857259 0.571422 0.14274
413 1 0.928633 0.642872 0.214158
414 1 0.999946 0.714336 0.142734
415 1 0.0711794 0.785972 0.214016
416 1 0.142662 0.71445 0.142551
417 1 0.214037 0.786096 0.213901
418 1 0.285601 0.71448 0.142515
419 1 0.357063 0.786039 0.213957
420 1 0.428567 0.714454 0.142565
421 1 0.500056 0.786062 0.21392
422 1 0.571541 0.714495 0.142463
423 1 0.64316 0.786228 0.213746
424 1 0.714556 0.714499 0.142406
425 1 0.786295 0.786245 0.213715
426 1 0.857311 0.714344 0.142689
427 1 0.928671 0.785838 0.214141
428 1 0.999974 0.857237 0.142756
429 1 0.071352 0.928639 0.214196
430 1 0.142758 0.85727 0.142705
431 1 0.214202 0.928637 0.214158
432 1 0.285659 0.857267 0.1427
433 1 0.357107 0.928621 0.214157
434 1 0.428551 0.857257 0.142706
435 1 0.499995 0.928622 0.21414
436 1 0.571454 0.857286 0.14267
437 1 0.642937 0.928649 0.21411
438 1 0.714416 0.857323 0.142639
439 1 0.785877 0.928674 0.214141
440 1 0.857316 0.857296 0.142692
441 1 0.928634 0.928626 0.214218
507 1 0.285638 0.857401 0.428538
443 1 0.21365 0.500183 0.356679
444 1 0.355541 0.501398 0.356028
445 1 0.502352 0.501622 0.355249
530 1 0.643448 0.786456 0.499992
506 1 0.14271 0.857355 0.428534
505 1 0.999983 0.857259 0.428548
449 1 0.999906 0.571443 0.285616
450 1 0.0710122 0.643064 0.356956
451 1 0.142382 0.571606 0.285297
452 1 0.21219 0.644917 0.355221
453 1 0.285057 0.572027 0.284548
454 1 0.355807 0.644878 0.355272
455 1 0.428565 0.571904 0.285171
456 1 0.50158 0.645251 0.354798
457 1 0.572444 0.572162 0.284646
458 1 0.646594 0.646344 0.353694
459 1 0.715009 0.571623 0.285113
460 1 0.786511 0.643207 0.356778
461 1 0.857363 0.571439 0.285582
462 1 0.928677 0.642899 0.357077
463 1 0.999852 0.714417 0.285565
464 1 0.0712058 0.785966 0.35704
465 1 0.142031 0.715061 0.284952
466 1 0.213927 0.786331 0.356866
467 1 0.285138 0.715216 0.284843
468 1 0.357033 0.786321 0.356866
469 1 0.428589 0.715069 0.285015
470 1 0.500231 0.786394 0.356822
471 1 0.572236 0.715494 0.284577
472 1 0.643433 0.786602 0.356705
473 1 0.715895 0.715775 0.284194
474 1 0.786248 0.786193 0.356908
475 1 0.85756 0.714483 0.285478
476 1 0.928693 0.785863 0.357075
477 1 0.999964 0.857267 0.285638
478 1 0.0713499 0.92864 0.357107
479 1 0.142673 0.857416 0.285553
480 1 0.214188 0.928658 0.357085
481 1 0.285601 0.857443 0.285526
482 1 0.357113 0.928633 0.357087
483 1 0.428563 0.857404 0.285539
484 1 0.500015 0.928644 0.357077
485 1 0.57155 0.857516 0.285475
486 1 0.64298 0.928701 0.357057
487 1 0.714581 0.857583 0.285446
488 1 0.785901 0.928698 0.357078
489 1 0.857358 0.857337 0.285591
490 1 0.928638 0.928636 0.357111
491 1 0.999995 0.571464 0.428546
492 1 0.142769 0.57172 0.428471
493 1 0.282966 0.575232 0.424678
494 1 0.42911 0.57962 0.425142
495 1 0.576299 0.577488 0.423313
496 1 0.714847 0.57185 0.428148
497 1 0.857359 0.571483 0.428523
498 1 0.999942 0.714409 0.428534
499 1 0.14239 0.714787 0.428429
500 1 0.285189 0.715412 0.428229
501 1 0.428771 0.715301 0.428287
502 1 0.572329 0.715549 0.428123
503 1 0.715351 0.715262 0.428169
504 1 0.857526 0.71451 0.428493
148 1 0.999982 0.999992 0.428561
515 1 0.521366 0.5069 0.489901
111 1 0.857278 0.999967 0.285654
109 1 0.71446 0.999872 0.285587
11 1 0.714336 0.99998 -2.54522e-06
50 1 0.99999 0.999984 0.142799
52 1 0.142775 0.999933 0.142754
54 1 0.285668 0.999926 0.142739
56 1 0.428548 0.999928 0.142734
58 1 0.571443 0.999902 0.142707
60 1 0.714397 0.999892 0.1427
62 1 0.857256 0.999963 0.142765
99 1 0.999982 0.999983 0.285673
101 1 0.142739 0.999929 0.285635
103 1 0.285638 0.999882 0.285606
105 1 0.428549 0.999875 0.285595
107 1 0.571484 0.999839 0.285572
3 1 0.142821 0.999967 5.14788e-06
521 1 0.35581 0.643589 0.499276
522 1 0.501366 0.643191 0.499671
381 1 0.142825 0.8572 1.18023e-05
534 1 0.214202 0.928639 0.5
353 1 0.142797 0.57143 1.08261e-05
367 1 0.142797 0.714338 1.872e-05
687 2 0.49851 0.533427 0.568141
513 1 0.213024 0.500383 0.500166
514 1 0.339232 0.505212 0.501499
303 1 0.571447 0.99998 0.857267
591 1 0.357158 0.500053 0.785662
686 1 0.928658 0.928675 0.928683
685 1 0.857365 0.857382 0.857399
301 1 0.42856 0.999966 0.857248
299 1 0.285684 0.99994 0.857255
546 1 0.928646 0.500006 0.642909
545 1 0.786099 0.500113 0.643001
297 1 0.142785 0.999942 0.857253
544 1 0.64379 0.500256 0.64291
254 1 0.57149 0.999951 0.714414
252 1 0.42857 0.99993 0.714395
527 1 0.214027 0.786169 0.500007
528 1 0.357126 0.786042 0.500009
529 1 0.50035 0.78605 0.500029
250 1 0.28566 0.999897 0.71439
248 1 0.142748 0.999941 0.714364
207 1 0.714443 0.999992 0.571479
205 1 0.5715 0.999918 0.571481
592 1 0.500245 0.500101 0.785885
203 1 0.428576 0.999898 0.571466
201 1 0.285657 0.999887 0.571456
199 1 0.142751 0.999943 0.571443
369 1 0.285688 0.714346 0.999996
669 1 0.714635 0.7146 0.857577
540 1 0.0712112 0.500059 0.642961
541 1 0.213302 0.500271 0.643633
542 1 0.354512 0.502308 0.644282
543 1 0.501796 0.500443 0.647698
684 1 0.785816 0.92868 0.928703
683 1 0.714474 0.857409 0.857438
682 1 0.642886 0.928643 0.928676
547 1 0.999996 0.571474 0.57146
548 1 0.0709443 0.64313 0.643096
549 1 0.142694 0.571782 0.571629
550 1 0.211463 0.645668 0.645475
551 1 0.282415 0.575923 0.575654
552 1 0.35541 0.645602 0.645213
553 1 0.425917 0.580316 0.574424
554 1 0.501722 0.644154 0.643749
555 1 0.576472 0.574638 0.57293
556 1 0.6447 0.64441 0.643981
557 1 0.715215 0.57192 0.571416
558 1 0.786459 0.643305 0.643236
559 1 0.857439 0.571541 0.571515
560 1 0.928701 0.642957 0.642965
561 1 0.999936 0.71443 0.571457
562 1 0.0711885 0.786022 0.642953
563 1 0.142355 0.714846 0.571595
564 1 0.213922 0.78641 0.643164
565 1 0.285211 0.715485 0.571741
566 1 0.357137 0.786338 0.64311
567 1 0.428891 0.715094 0.571524
568 1 0.500349 0.786223 0.643122
569 1 0.572417 0.715287 0.57158
570 1 0.643453 0.786475 0.643277
571 1 0.715232 0.715112 0.571721
572 1 0.786216 0.786193 0.643185
573 1 0.857512 0.714546 0.571539
574 1 0.928703 0.785911 0.642945
575 1 0.999987 0.857277 0.571432
576 1 0.0713579 0.928667 0.642882
577 1 0.142713 0.857373 0.571458
578 1 0.214204 0.928673 0.642913
579 1 0.285657 0.857409 0.571468
580 1 0.357139 0.928642 0.64292
581 1 0.428659 0.857288 0.571471
582 1 0.500044 0.928663 0.642947
583 1 0.571636 0.857455 0.571537
584 1 0.643009 0.928756 0.642986
585 1 0.714615 0.857531 0.57156
586 1 0.785912 0.928761 0.642956
587 1 0.857349 0.85735 0.571478
588 1 0.928651 0.928682 0.642885
681 1 0.571484 0.857319 0.857351
590 1 0.213975 0.500071 0.786175
680 1 0.499987 0.92861 0.928644
679 1 0.428566 0.857265 0.857293
678 1 0.357124 0.928597 0.928634
677 1 0.285683 0.85727 0.857299
676 1 0.214259 0.928596 0.928639
596 1 0.999902 0.571454 0.71442
597 1 0.0711543 0.642968 0.786036
598 1 0.142265 0.571685 0.71483
599 1 0.213809 0.643324 0.786505
600 1 0.284762 0.5724 0.715787
601 1 0.357141 0.643251 0.786332
602 1 0.42873 0.572135 0.714467
603 1 0.500327 0.643219 0.786108
604 1 0.57278 0.572473 0.715043
605 1 0.643489 0.64339 0.786417
606 1 0.715032 0.571799 0.714736
607 1 0.786159 0.64314 0.786141
608 1 0.85741 0.57152 0.714493
609 1 0.92867 0.642921 0.78591
610 1 0.99983 0.714472 0.714477
611 1 0.0711374 0.786083 0.78609
612 1 0.141717 0.715423 0.71539
613 1 0.214069 0.78615 0.786141
614 1 0.284966 0.715544 0.715421
615 1 0.35715 0.786023 0.786012
616 1 0.428891 0.714956 0.714768
617 1 0.500144 0.786045 0.786038
618 1 0.572152 0.715142 0.714954
619 1 0.643255 0.786211 0.786215
620 1 0.715168 0.715089 0.715054
621 1 0.786153 0.78614 0.786162
622 1 0.857515 0.714593 0.714608
623 1 0.928728 0.785927 0.785942
624 1 0.999988 0.857326 0.714371
625 1 0.071371 0.928683 0.785818
626 1 0.142681 0.857487 0.714462
627 1 0.214225 0.928652 0.785844
628 1 0.28564 0.857458 0.714472
629 1 0.357125 0.928635 0.785838
630 1 0.428622 0.857384 0.714457
631 1 0.500014 0.928662 0.78586
632 1 0.57161 0.857495 0.714552
633 1 0.642969 0.928735 0.78591
634 1 0.714644 0.85756 0.714623
635 1 0.785917 0.928807 0.785913
636 1 0.857404 0.857424 0.714466
637 1 0.928672 0.928714 0.785817
675 1 0.142786 0.857296 0.857321
674 1 0.0714183 0.928614 0.928647
640 1 0.357165 0.500006 0.928563
673 1 8.42496e-06 0.857306 0.857321
672 1 0.928668 0.785798 0.928722
671 1 0.857383 0.714433 0.857427
670 1 0.7859 0.785884 0.928822
645 1 0.999964 0.571419 0.85728
646 1 0.0713641 0.642873 0.9287
647 1 0.142703 0.57147 0.857411
648 1 0.214221 0.64291 0.928751
649 1 0.285667 0.571489 0.857472
650 1 0.357158 0.6429 0.928677
651 1 0.428644 0.5715 0.857221
652 1 0.500039 0.642905 0.92866
653 1 0.571625 0.571557 0.857354
654 1 0.642974 0.642941 0.928771
655 1 0.714533 0.571526 0.857418
656 1 0.785867 0.642911 0.928755
657 1 0.857284 0.571442 0.857315
658 1 0.928632 0.642861 0.928685
659 1 0.999976 0.71436 0.857341
660 1 0.07138 0.785805 0.928717
661 1 0.142661 0.714487 0.857538
662 1 0.21424 0.78582 0.928709
663 1 0.285646 0.714486 0.857489
664 1 0.357131 0.785806 0.928676
665 1 0.428633 0.714451 0.857376
666 1 0.500009 0.78582 0.928696
667 1 0.5716 0.714537 0.857489
668 1 0.642949 0.78587 0.928771
593 1 0.643277 0.500156 0.785991
355 1 0.285701 0.571427 0.999985
357 1 0.428581 0.571418 0.999955
594 1 0.785968 0.500041 0.785925
642 1 0.642931 0.500013 0.928636
641 1 0.500045 0.500018 0.928535
538 1 0.785894 0.92871 0.500011
537 1 0.642998 0.928718 0.500026
512 1 0.0713167 0.50006 0.500015
359 1 0.571452 0.571427 0.999976
518 1 0.928647 0.500009 0.500001
371 1 0.428569 0.714339 0.99999
536 1 0.50004 0.928617 0.500027
535 1 0.357138 0.928602 0.500011
531 1 0.786176 0.786129 0.500025
5 1 0.285691 0.999964 0.999998
520 1 0.21336 0.643868 0.500007
519 1 0.0711997 0.64303 0.500006
7 1 0.428554 0.999969 0.999992
9 1 0.571427 0.999971 0.999991
