ITEM: TIMESTEP
21
ITEM: NUMBER OF ATOMS
695
ITEM: BOX BOUNDS pp pp pp
0.0000000000000000e+00 2.2013900999999997e+01
0.0000000000000000e+00 2.2013900999999997e+01
0.0000000000000000e+00 2.2013900999999997e+01
ITEM: ATOMS id type xs ys zs
396 1 0.500148 0.499905 0.21356
2 1 0.0712999 0.0712965 0.0713966
196 1 0.928628 0.357172 0.49999
4 1 0.214148 0.0712532 0.0713609
691 3 0.420808 0.496879 0.465759
6 1 0.357082 0.0712632 0.0713241
175 1 0.857242 0.428608 0.428508
8 1 0.500017 0.0712456 0.0712709
174 1 0.714817 0.428199 0.427809
10 1 0.642997 0.0711977 0.0712075
195 1 0.786201 0.356993 0.499849
12 1 0.785964 0.0712216 0.0712216
13 1 0.857269 1.00563e-05 1.9658e-05
14 1 0.928673 0.0713305 0.0713487
15 1 0.999925 0.142759 5.52333e-05
16 1 0.0712576 0.214159 0.0713677
17 1 0.142635 0.142644 0.000144411
18 1 0.214041 0.214032 0.0712463
19 1 0.285597 0.142636 6.87586e-05
20 1 0.357048 0.214014 0.0712246
350 1 0.928621 0.499996 0.0714284
22 1 0.500054 0.213985 0.0711292
348 1 0.643075 0.499981 0.0713064
24 1 0.643144 0.213926 0.0709657
347 1 0.500066 0.499964 0.0713145
26 1 0.786068 0.214044 0.0710939
346 1 0.357044 0.499959 0.0713434
28 1 0.928683 0.21419 0.0713196
29 1 0.99993 0.285663 5.09658e-05
30 1 0.0712816 0.357097 0.0713893
31 1 0.142626 0.285587 0.000117413
32 1 0.214067 0.357022 0.0713136
33 1 0.285554 0.285524 9.50263e-05
34 1 0.357032 0.356948 0.0712894
344 1 0.0712927 0.499989 0.0714039
36 1 0.500081 0.356932 0.0711987
189 1 0.92866 0.214177 0.499986
38 1 0.64314 0.356963 0.0710915
186 1 0.500175 0.213193 0.499847
40 1 0.786 0.357065 0.0712418
185 1 0.35692 0.213128 0.499938
42 1 0.928649 0.357123 0.0713768
43 1 0.999949 0.428554 6.59824e-05
44 1 0.142678 0.428524 0.000101666
45 1 0.28558 0.428483 9.89611e-05
46 1 0.428539 0.428473 4.84318e-05
47 1 0.571543 0.428497 2.1503e-05
48 1 0.714505 0.428541 2.9277e-05
49 1 0.857278 0.428559 4.09485e-05
173 1 0.574028 0.423501 0.424667
51 1 0.0712708 0.0712615 0.214147
172 1 0.429609 0.424082 0.409616
53 1 0.214044 0.0710867 0.214041
171 1 0.284649 0.426646 0.4265
55 1 0.357041 0.0710783 0.214021
170 1 0.142974 0.428615 0.428643
57 1 0.500065 0.0710086 0.213973
169 1 0.999954 0.428606 0.428582
59 1 0.643165 0.0708801 0.213894
168 1 0.857539 0.285536 0.428465
61 1 0.7861 0.0710532 0.213999
167 1 0.715531 0.284627 0.427938
63 1 0.928711 0.0712827 0.214161
64 1 0.999976 0.142709 0.142726
65 1 0.0711151 0.214049 0.214051
66 1 0.14252 0.142514 0.142568
67 1 0.213405 0.213363 0.213388
68 1 0.285518 0.142464 0.142526
69 1 0.356874 0.213486 0.213583
70 1 0.428536 0.142456 0.142499
71 1 0.500217 0.21336 0.21344
72 1 0.571625 0.142331 0.142353
73 1 0.644196 0.21271 0.212712
74 1 0.714829 0.14224 0.142237
75 1 0.786671 0.213531 0.213506
76 1 0.85752 0.142557 0.142545
77 1 0.928815 0.214102 0.214083
78 1 0.999961 0.285646 0.142735
79 1 0.0711643 0.357063 0.214111
80 1 0.142512 0.285527 0.142573
81 1 0.213677 0.356811 0.21369
82 1 0.285379 0.285307 0.142298
83 1 0.356847 0.356546 0.213843
84 1 0.428545 0.285272 0.142334
85 1 0.500297 0.356413 0.213573
86 1 0.571812 0.285139 0.141995
87 1 0.643826 0.35643 0.213062
88 1 0.714927 0.285276 0.142116
89 1 0.786338 0.35692 0.213806
90 1 0.857502 0.285576 0.142575
91 1 0.928711 0.357112 0.214159
92 1 0.999939 0.428562 0.14279
93 1 0.14259 0.42851 0.142659
94 1 0.285474 0.428405 0.142522
95 1 0.428523 0.428322 0.142342
96 1 0.571722 0.428327 0.142347
97 1 0.714676 0.428474 0.142522
98 1 0.857353 0.428556 0.142733
166 1 0.573318 0.282913 0.426739
100 1 0.0712656 0.0712698 0.357057
165 1 0.428269 0.285195 0.4272
102 1 0.214031 0.0710656 0.356991
164 1 0.284012 0.283654 0.427266
104 1 0.35706 0.0709976 0.356983
163 1 0.142244 0.285302 0.428467
106 1 0.500083 0.0709036 0.356957
162 1 0.999929 0.28565 0.428551
108 1 0.643189 0.0708354 0.35693
161 1 0.857429 0.142625 0.428512
110 1 0.78606 0.0711073 0.357018
160 1 0.714826 0.142218 0.428398
112 1 0.928678 0.0713038 0.357085
113 1 0.999961 0.142685 0.2856
114 1 0.0711103 0.214041 0.357016
115 1 0.142434 0.142413 0.285442
116 1 0.213419 0.213299 0.356595
117 1 0.285339 0.142077 0.285262
118 1 0.356747 0.212912 0.356436
119 1 0.428549 0.142092 0.285237
120 1 0.500371 0.21267 0.356252
121 1 0.571869 0.141772 0.28507
122 1 0.644096 0.212654 0.356153
123 1 0.715024 0.141968 0.285168
124 1 0.786508 0.21366 0.35678
125 1 0.857554 0.142521 0.285509
126 1 0.928761 0.214122 0.35705
127 1 0.999936 0.28562 0.285599
128 1 0.0711304 0.357092 0.357082
129 1 0.142135 0.28527 0.285272
130 1 0.213036 0.356375 0.356412
131 1 0.283741 0.283519 0.283586
132 1 0.352906 0.352745 0.353756
133 1 0.42845 0.284194 0.284314
134 1 0.504324 0.351776 0.352602
135 1 0.573714 0.282805 0.28286
136 1 0.646138 0.354133 0.353982
137 1 0.716069 0.284235 0.284176
138 1 0.786561 0.356758 0.356659
139 1 0.857734 0.285445 0.285405
140 1 0.928707 0.357133 0.35709
141 1 0.999892 0.428583 0.285661
142 1 0.142344 0.428477 0.285393
143 1 0.284877 0.428189 0.284693
144 1 0.428322 0.42765 0.283378
145 1 0.57246 0.427871 0.284402
146 1 0.714998 0.428383 0.285032
147 1 0.85736 0.428569 0.285592
159 1 0.571808 0.141914 0.428297
158 1 0.428572 0.142291 0.428351
157 1 0.285377 0.142115 0.428397
156 1 0.142489 0.142463 0.428476
155 1 0.999934 0.142715 0.428531
345 1 0.214095 0.499968 0.0713401
194 1 0.64459 0.355385 0.498492
193 1 0.502368 0.348702 0.499132
395 1 0.3569 0.499939 0.213856
176 1 0.0712596 0.0712849 0.499979
182 1 0.928627 0.0713495 0.49999
183 1 0.0711203 0.214047 0.5
184 1 0.213561 0.213381 0.499985
177 1 0.214063 0.071107 0.499994
180 1 0.643101 0.0710466 0.499997
181 1 0.785966 0.0712283 0.499999
187 1 0.643652 0.213214 0.499832
188 1 0.786222 0.213911 0.499943
644 1 0.928618 0.499994 0.928717
638 1 0.0712546 0.499985 0.92878
178 1 0.357107 0.0711379 0.500006
179 1 0.50006 0.0711303 0.500001
197 1 0.999938 1.15763e-05 0.571427
246 1 0.999911 3.792e-05 0.714369
693 3 0.46637 0.434837 0.502813
330 1 0.500047 0.356999 0.928722
329 1 0.428508 0.285386 0.857561
640 1 0.356994 0.499982 0.928873
639 1 0.214038 0.499972 0.928903
252 1 0.428572 4.33196e-05 0.714427
254 1 0.571531 1.61743e-05 0.71444
328 1 0.356996 0.356945 0.928839
327 1 0.285209 0.285141 0.858066
326 1 0.213998 0.35698 0.928936
325 1 0.142297 0.285388 0.857737
324 1 0.0712172 0.357068 0.928782
323 1 0.99981 0.285607 0.857355
322 1 0.928579 0.214209 0.928666
321 1 0.857283 0.142742 0.857288
695 3 0.50294 0.476219 0.559027
198 1 0.0711973 0.0712577 0.642929
692 3 0.433574 0.49742 0.539093
200 1 0.214001 0.0710436 0.643026
687 2 0.494352 0.430595 0.540474
202 1 0.357081 0.0711983 0.643003
343 1 0.857315 0.428568 0.85733
204 1 0.500062 0.071248 0.642966
342 1 0.714646 0.428593 0.857505
206 1 0.643083 0.07116 0.642975
341 1 0.57167 0.428489 0.85764
208 1 0.785937 0.0713116 0.642938
209 1 0.857271 1.81516e-05 0.571457
210 1 0.92859 0.0713778 0.642896
211 1 0.999878 0.142717 0.571447
212 1 0.0709501 0.213943 0.643037
213 1 0.142442 0.142418 0.571514
214 1 0.21319 0.213014 0.643569
215 1 0.285378 0.142116 0.571643
216 1 0.356794 0.213448 0.643494
217 1 0.428577 0.142524 0.571594
218 1 0.500282 0.213601 0.643301
219 1 0.571724 0.142306 0.571533
220 1 0.643734 0.213302 0.643304
221 1 0.714706 0.142438 0.571482
222 1 0.786196 0.213982 0.642989
223 1 0.85734 0.142706 0.571452
224 1 0.928591 0.214171 0.642912
225 1 0.999849 0.285628 0.571457
226 1 0.0709177 0.356994 0.643068
227 1 0.142085 0.285184 0.571641
228 1 0.21241 0.35573 0.644432
229 1 0.283582 0.28325 0.572569
230 1 0.351073 0.351173 0.648021
231 1 0.42841 0.285466 0.572494
232 1 0.504834 0.353797 0.646231
233 1 0.573266 0.283972 0.572507
234 1 0.64604 0.354868 0.645363
235 1 0.715274 0.2851 0.571485
236 1 0.786359 0.357067 0.643053
237 1 0.85742 0.285622 0.571435
238 1 0.928597 0.357142 0.64291
239 1 0.999917 0.428597 0.571476
240 1 0.142779 0.428567 0.57167
241 1 0.282814 0.425449 0.575125
242 1 0.41922 0.417496 0.593258
243 1 0.578285 0.422329 0.573714
244 1 0.715009 0.428614 0.571534
245 1 0.857235 0.428669 0.571489
340 1 0.428424 0.428418 0.857766
247 1 0.071134 0.0712098 0.785929
339 1 0.285345 0.428406 0.857754
249 1 0.213965 0.0709844 0.786081
338 1 0.142463 0.428484 0.857587
251 1 0.357062 0.0711968 0.785974
337 1 0.999876 0.428533 0.857337
253 1 0.500043 0.0712734 0.785908
336 1 0.928599 0.35711 0.928675
255 1 0.64305 0.0712187 0.785934
335 1 0.857315 0.285629 0.857306
257 1 0.785925 0.0713428 0.785879
258 1 0.85728 8.55237e-05 0.714393
259 1 0.928567 0.0713883 0.78583
260 1 0.999792 0.142678 0.714411
261 1 0.0708279 0.213884 0.786143
262 1 0.142248 0.142233 0.714677
263 1 0.212424 0.212358 0.787669
264 1 0.285279 0.141971 0.714834
265 1 0.356874 0.2135 0.78647
266 1 0.428542 0.14246 0.7146
267 1 0.500125 0.213753 0.786237
268 1 0.571694 0.142281 0.714618
269 1 0.643682 0.213408 0.786599
270 1 0.714714 0.14244 0.714546
271 1 0.786171 0.213982 0.786041
272 1 0.857313 0.142721 0.714396
273 1 0.928554 0.21416 0.785868
274 1 0.999732 0.285566 0.714455
275 1 0.0709835 0.356979 0.786076
276 1 0.141698 0.284939 0.715102
277 1 0.213348 0.356658 0.786785
278 1 0.282355 0.282129 0.717935
279 1 0.356482 0.356391 0.786486
280 1 0.428572 0.284825 0.715251
281 1 0.500111 0.356791 0.786087
282 1 0.573151 0.283809 0.716197
283 1 0.643678 0.356778 0.786688
284 1 0.71564 0.284783 0.715283
285 1 0.786154 0.357083 0.786036
286 1 0.857435 0.285597 0.714444
287 1 0.928582 0.357101 0.785865
288 1 0.999807 0.428557 0.714441
289 1 0.142103 0.428434 0.714909
290 1 0.284395 0.428218 0.715846
291 1 0.427362 0.427507 0.717143
292 1 0.573016 0.427702 0.715689
293 1 0.714969 0.428791 0.714745
294 1 0.857332 0.428646 0.714447
334 1 0.785941 0.357091 0.928699
296 1 0.0711899 0.071234 0.92882
333 1 0.714709 0.285479 0.857553
298 1 0.214124 0.0712114 0.928821
332 1 0.643087 0.357038 0.928791
300 1 0.357097 0.0712923 0.928721
331 1 0.571663 0.285398 0.857682
302 1 0.500022 0.0713291 0.928657
303 1 0.5715 4.00684e-05 0.857307
304 1 0.642963 0.0713184 0.92865
305 1 0.714452 5.76875e-05 0.857324
306 1 0.78588 0.0713504 0.92865
307 1 0.857271 8.76399e-05 0.857297
308 1 0.928582 0.0713847 0.928672
309 1 0.999775 0.14269 0.857355
310 1 0.0711467 0.214115 0.928835
311 1 0.142186 0.1422 0.857834
312 1 0.213945 0.213931 0.92905
313 1 0.285478 0.14238 0.857628
314 1 0.357041 0.214012 0.928825
315 1 0.42856 0.142583 0.857415
316 1 0.50003 0.214076 0.928705
317 1 0.571549 0.142586 0.857396
318 1 0.643058 0.214057 0.928735
319 1 0.7146 0.142566 0.857425
320 1 0.785944 0.214138 0.928663
301 1 0.428567 3.54078e-05 0.857315
295 1 0.999914 3.14574e-05 0.857311
690 2 0.568398 0.499839 0.537751
256 1 0.714493 4.93371e-05 0.714448
694 3 0.394683 0.43277 0.500383
21 1 0.428552 0.142675 0.999978
23 1 0.571503 0.142655 0.999911
25 1 0.714492 0.14265 0.999884
27 1 0.857301 0.142741 0.999943
35 1 0.428546 0.285541 0.999981
37 1 0.571542 0.285534 0.999906
192 1 0.35409 0.349685 0.500171
191 1 0.213694 0.356476 0.500061
190 1 0.0712415 0.357102 0.500041
39 1 0.71454 0.285564 0.999901
41 1 0.857304 0.28565 0.999966
539 1 0.928617 0.928658 0.499993
688 2 0.425382 0.530829 0.499845
394 1 0.213767 0.500006 0.213764
393 1 0.0711574 0.500005 0.214124
442 1 0.0711351 0.500064 0.357091
349 1 0.785928 0.500001 0.0713771
533 1 0.0712877 0.928687 0.499972
351 1 0.999952 0.571431 9.33243e-05
352 1 0.0712672 0.642911 0.0713783
353 1 0.142671 0.571446 0.000115389
354 1 0.214055 0.642973 0.0712732
355 1 0.285562 0.571454 0.000135422
356 1 0.357041 0.642999 0.0712787
357 1 0.428535 0.571466 0.000139463
358 1 0.500059 0.643002 0.0713028
359 1 0.571559 0.571493 0.000138459
360 1 0.643098 0.643021 0.0712537
361 1 0.714518 0.571491 0.000123328
362 1 0.785974 0.642944 0.0713537
363 1 0.857292 0.571451 0.000101465
364 1 0.928637 0.642887 0.0714265
365 1 0.999958 0.714367 0.000118411
366 1 0.0712804 0.785866 0.0713691
367 1 0.142653 0.71443 0.000136712
368 1 0.214089 0.785952 0.0712969
369 1 0.285549 0.714487 0.000157227
370 1 0.357069 0.785955 0.0713329
371 1 0.428546 0.714495 0.000164716
372 1 0.500044 0.785945 0.0713422
373 1 0.571553 0.71451 0.000143625
374 1 0.643033 0.785979 0.0712896
375 1 0.714545 0.714501 0.000122341
376 1 0.785996 0.78595 0.0712667
377 1 0.857337 0.714405 0.000118766
378 1 0.92867 0.785832 0.0714031
379 1 0.999979 0.857272 0.000112774
380 1 0.0713422 0.928641 0.0714106
381 1 0.142714 0.857306 0.000115522
382 1 0.21418 0.928652 0.0713901
383 1 0.285614 0.857335 0.000117403
384 1 0.357099 0.928648 0.0713837
385 1 0.428557 0.857328 9.84013e-05
386 1 0.500013 0.928638 0.0713669
387 1 0.571499 0.857336 8.26644e-05
388 1 0.642951 0.928644 0.0713411
389 1 0.71446 0.857355 8.13464e-05
390 1 0.785888 0.928661 0.0713478
391 1 0.85732 0.857319 8.43344e-05
392 1 0.928666 0.928657 0.0713982
511 1 0.857333 0.857327 0.428578
510 1 0.714594 0.857463 0.428595
509 1 0.571603 0.857319 0.428606
534 1 0.214122 0.928726 0.499986
397 1 0.643371 0.499986 0.213694
398 1 0.786067 0.499993 0.214041
399 1 0.928607 0.500009 0.214225
400 1 0.99991 0.571442 0.142777
401 1 0.0710369 0.642998 0.213989
402 1 0.142549 0.571486 0.142593
403 1 0.213539 0.643364 0.213386
404 1 0.285442 0.571522 0.142394
405 1 0.356744 0.643476 0.213253
406 1 0.428506 0.571532 0.142494
407 1 0.500164 0.643396 0.213354
408 1 0.571692 0.571555 0.142381
409 1 0.643731 0.643617 0.213127
410 1 0.714652 0.571509 0.142569
411 1 0.786309 0.643073 0.213846
412 1 0.857332 0.571447 0.142761
413 1 0.928641 0.642913 0.214163
414 1 0.99991 0.714389 0.142722
415 1 0.071046 0.786078 0.213946
416 1 0.142487 0.714555 0.142466
417 1 0.213709 0.78644 0.213612
418 1 0.285419 0.71468 0.142314
419 1 0.356981 0.786289 0.213777
420 1 0.428545 0.714627 0.142465
421 1 0.500107 0.786215 0.213849
422 1 0.571652 0.714675 0.142402
423 1 0.643284 0.786413 0.213688
424 1 0.714785 0.714706 0.142267
425 1 0.786777 0.78671 0.213345
426 1 0.857438 0.71442 0.142654
427 1 0.928735 0.785911 0.214113
428 1 0.999956 0.8573 0.142738
429 1 0.0712939 0.928683 0.21416
430 1 0.14262 0.857406 0.142632
431 1 0.214112 0.928735 0.214096
432 1 0.285582 0.857413 0.142635
433 1 0.357087 0.928684 0.214112
434 1 0.428564 0.857367 0.142676
435 1 0.500043 0.928636 0.214119
436 1 0.57153 0.857381 0.14265
437 1 0.643024 0.928666 0.214081
438 1 0.714526 0.857443 0.142586
439 1 0.785977 0.928729 0.214101
440 1 0.857447 0.85741 0.142625
441 1 0.92867 0.92865 0.214194
508 1 0.428599 0.857324 0.428554
443 1 0.213245 0.500177 0.356518
444 1 0.354493 0.501379 0.354967
445 1 0.502151 0.501792 0.352118
446 1 0.642724 0.500061 0.356663
447 1 0.785861 0.50008 0.356952
448 1 0.928538 0.50004 0.35715
449 1 0.999808 0.571471 0.285623
450 1 0.0708234 0.643129 0.356936
451 1 0.142125 0.571659 0.285197
452 1 0.211878 0.644988 0.355172
453 1 0.284476 0.572257 0.284066
454 1 0.354073 0.646206 0.353772
455 1 0.428275 0.572098 0.284918
456 1 0.501044 0.645042 0.354526
457 1 0.572909 0.572824 0.283956
458 1 0.647698 0.647687 0.352401
459 1 0.715141 0.571649 0.284979
460 1 0.786555 0.643402 0.356779
461 1 0.857339 0.571482 0.285616
462 1 0.928602 0.642949 0.357107
463 1 0.999772 0.714476 0.285544
464 1 0.0710583 0.786068 0.356996
465 1 0.141696 0.715275 0.284776
466 1 0.213643 0.786611 0.356738
467 1 0.284223 0.71613 0.28395
468 1 0.356849 0.78659 0.35669
469 1 0.428415 0.715343 0.284712
470 1 0.500212 0.786318 0.356821
471 1 0.572148 0.715618 0.284553
472 1 0.64345 0.786562 0.356819
473 1 0.716868 0.716778 0.283363
474 1 0.786283 0.786249 0.357015
475 1 0.857687 0.714591 0.285469
476 1 0.928654 0.785902 0.357086
477 1 0.99992 0.857321 0.285606
478 1 0.0712859 0.928681 0.357064
479 1 0.142531 0.857555 0.285476
480 1 0.214105 0.928745 0.357033
481 1 0.285484 0.85768 0.28541
482 1 0.357105 0.928677 0.357057
483 1 0.428585 0.857492 0.285496
484 1 0.500075 0.928578 0.357089
485 1 0.571633 0.857532 0.285492
486 1 0.643047 0.928626 0.357085
487 1 0.714694 0.857693 0.285446
488 1 0.785952 0.928666 0.357093
489 1 0.857423 0.857389 0.285604
490 1 0.92864 0.928637 0.357099
491 1 0.999857 0.57151 0.42857
492 1 0.142613 0.571777 0.428493
493 1 0.281915 0.575841 0.423794
494 1 0.426178 0.579549 0.42338
495 1 0.579212 0.58108 0.421826
496 1 0.714993 0.572466 0.427832
497 1 0.857215 0.571564 0.428576
498 1 0.999809 0.714468 0.428539
499 1 0.142112 0.714955 0.428392
500 1 0.2846 0.715819 0.427988
501 1 0.428299 0.715239 0.428039
502 1 0.572053 0.715099 0.428224
503 1 0.715244 0.715339 0.428461
504 1 0.857423 0.714539 0.428595
505 1 0.999913 0.857305 0.428527
506 1 0.142573 0.857481 0.428492
507 1 0.285524 0.857576 0.428493
1 1 0.999963 0.999987 7.84146e-05
3 1 0.142743 0.999954 9.4871e-05
5 1 0.285648 0.999969 6.36615e-05
7 1 0.428558 0.999985 2.20174e-05
526 1 0.071097 0.78605 0.499984
50 1 0.999989 0.999974 0.142788
52 1 0.142713 0.999942 0.142744
54 1 0.285617 0.999924 0.142718
56 1 0.428551 0.999905 0.142706
58 1 0.571501 0.999865 0.142664
60 1 0.714488 0.999858 0.142642
62 1 0.857337 0.999945 0.142722
99 1 0.999975 0.999971 0.28564
101 1 0.142676 0.999937 0.285586
103 1 0.285589 0.999883 0.28556
105 1 0.428566 0.99982 0.285562
107 1 0.571555 0.999756 0.285542
109 1 0.71455 0.999811 0.285548
111 1 0.857344 0.999925 0.285622
148 1 0.99996 0.999984 0.428535
149 1 0.14269 0.999944 0.428517
150 1 0.285616 0.999878 0.428527
151 1 0.42859 0.99982 0.428549
152 1 0.571548 0.999758 0.428553
153 1 0.714506 0.999846 0.42855
154 1 0.857295 0.999953 0.428552
521 1 0.354627 0.644102 0.499061
515 1 0.514976 0.514355 0.472312
516 1 0.645558 0.500921 0.497291
522 1 0.50012 0.6437 0.498901
666 1 0.500049 0.786038 0.928919
299 1 0.285611 0.99998 0.857378
514 1 0.336754 0.504638 0.502213
297 1 0.14265 0.999915 0.857397
544 1 0.642536 0.500832 0.643012
665 1 0.428427 0.714864 0.85793
664 1 0.357016 0.786056 0.928971
663 1 0.285222 0.714889 0.858049
662 1 0.214024 0.786034 0.928982
661 1 0.142326 0.714709 0.857837
545 1 0.785849 0.500306 0.643111
523 1 0.644797 0.644987 0.500982
250 1 0.285588 0.999971 0.714455
248 1 0.142626 0.999956 0.714435
660 1 0.0712346 0.785934 0.928891
207 1 0.714482 0.999954 0.571495
205 1 0.571531 0.999901 0.571496
203 1 0.42859 0.999933 0.571483
201 1 0.285622 0.999926 0.571471
199 1 0.142675 0.999958 0.571444
659 1 0.999861 0.71448 0.857497
673 1 0.999886 0.857434 0.857458
672 1 0.928668 0.785902 0.928817
671 1 0.857448 0.714553 0.857538
670 1 0.786023 0.78602 0.928898
669 1 0.71482 0.714811 0.857828
668 1 0.643088 0.786061 0.928926
667 1 0.571681 0.714847 0.85791
540 1 0.0710125 0.500093 0.643073
541 1 0.212862 0.500358 0.64404
542 1 0.353585 0.503258 0.645664
543 1 0.499967 0.501155 0.653313
689 2 0.492484 0.524403 0.566002
686 1 0.928635 0.92872 0.92874
685 1 0.857388 0.85747 0.857463
547 1 0.999843 0.57154 0.57151
548 1 0.0706498 0.643268 0.64321
549 1 0.142514 0.571878 0.57177
550 1 0.211469 0.645415 0.64518
551 1 0.28121 0.577231 0.576961
552 1 0.353928 0.646422 0.646264
553 1 0.425818 0.582739 0.574606
554 1 0.500585 0.645158 0.645905
555 1 0.571911 0.577647 0.573187
556 1 0.644047 0.644509 0.644569
557 1 0.714505 0.572117 0.572015
558 1 0.786265 0.643361 0.643399
559 1 0.857205 0.571621 0.571621
560 1 0.928592 0.643039 0.643031
561 1 0.999786 0.714526 0.5715
562 1 0.0709637 0.786208 0.643057
563 1 0.142022 0.715075 0.571676
564 1 0.213518 0.786807 0.643353
565 1 0.284572 0.715929 0.571979
566 1 0.356695 0.7867 0.643426
567 1 0.428056 0.715469 0.571837
568 1 0.499987 0.786518 0.643489
569 1 0.571552 0.715579 0.572096
570 1 0.643339 0.786547 0.6435
571 1 0.714997 0.715201 0.572118
572 1 0.786213 0.786261 0.643277
573 1 0.857414 0.714592 0.571636
574 1 0.928642 0.786006 0.643008
575 1 0.9999 0.857356 0.571447
576 1 0.07125 0.928749 0.642915
577 1 0.142541 0.857539 0.571486
578 1 0.214076 0.92882 0.642964
579 1 0.285492 0.857627 0.571531
580 1 0.357081 0.928802 0.642977
581 1 0.428548 0.857393 0.571567
582 1 0.500056 0.928752 0.643007
583 1 0.571574 0.857431 0.57166
584 1 0.643054 0.928786 0.643044
585 1 0.714598 0.857515 0.57166
586 1 0.785949 0.928791 0.643005
587 1 0.857339 0.857385 0.571527
588 1 0.928625 0.928732 0.642918
684 1 0.785897 0.92875 0.928745
590 1 0.213521 0.500075 0.786595
683 1 0.714597 0.857557 0.85754
592 1 0.500079 0.500313 0.786957
682 1 0.642972 0.928737 0.928734
681 1 0.571576 0.857529 0.857516
680 1 0.500025 0.928718 0.928723
596 1 0.999759 0.571529 0.714516
597 1 0.0708836 0.643123 0.786244
598 1 0.141838 0.571806 0.715107
599 1 0.213192 0.643667 0.787052
600 1 0.283696 0.572931 0.716631
601 1 0.356306 0.643967 0.787328
602 1 0.426755 0.573536 0.716412
603 1 0.499984 0.643756 0.7872
604 1 0.572895 0.573457 0.71638
605 1 0.64365 0.643756 0.786985
606 1 0.71491 0.571916 0.715014
607 1 0.786268 0.643252 0.786308
608 1 0.857378 0.57161 0.714585
609 1 0.928641 0.643021 0.786021
610 1 0.999681 0.714618 0.714598
611 1 0.070823 0.78635 0.786341
612 1 0.140915 0.716079 0.716006
613 1 0.213499 0.786698 0.78665
614 1 0.284049 0.716388 0.716214
615 1 0.356735 0.786644 0.786576
616 1 0.428079 0.715834 0.715675
617 1 0.500047 0.786456 0.786455
618 1 0.572 0.715697 0.715651
619 1 0.643358 0.786481 0.786467
620 1 0.715177 0.71524 0.715277
621 1 0.786217 0.786251 0.786248
622 1 0.857528 0.714682 0.714689
623 1 0.928659 0.786047 0.786044
624 1 0.999873 0.857454 0.714454
625 1 0.0712313 0.928787 0.785929
626 1 0.142431 0.857717 0.714603
627 1 0.214062 0.928838 0.785995
628 1 0.285383 0.857858 0.714683
629 1 0.357056 0.928869 0.785981
630 1 0.428485 0.857726 0.714682
631 1 0.500049 0.928833 0.785961
632 1 0.571629 0.8577 0.714711
633 1 0.643055 0.928853 0.785991
634 1 0.714692 0.857676 0.7147
635 1 0.785971 0.928862 0.78597
636 1 0.857408 0.857504 0.714533
637 1 0.928637 0.928782 0.785893
658 1 0.928649 0.642927 0.928789
679 1 0.42854 0.857538 0.857522
678 1 0.357095 0.928719 0.928755
677 1 0.285487 0.857586 0.85759
676 1 0.214154 0.928699 0.928792
675 1 0.142542 0.85753 0.857569
674 1 0.0713063 0.928676 0.928777
645 1 0.99988 0.571465 0.857402
646 1 0.071226 0.642942 0.928853
647 1 0.142426 0.57154 0.857669
648 1 0.213984 0.643026 0.929023
649 1 0.285273 0.571616 0.857968
650 1 0.35697 0.643077 0.929081
651 1 0.428361 0.571688 0.8579
652 1 0.500046 0.64309 0.929049
653 1 0.571694 0.571739 0.857916
654 1 0.643142 0.643109 0.929035
655 1 0.714712 0.571653 0.857678
656 1 0.786016 0.643021 0.928889
657 1 0.85737 0.571521 0.857437
643 1 0.785946 0.50003 0.928783
642 1 0.643086 0.500043 0.928876
641 1 0.50005 0.500024 0.928902
595 1 0.928603 0.500027 0.785908
594 1 0.78608 0.500149 0.786092
593 1 0.643375 0.500284 0.786468
591 1 0.35661 0.500044 0.786322
589 1 0.0710441 0.500006 0.786068
546 1 0.928549 0.50008 0.642948
538 1 0.785911 0.928674 0.500046
537 1 0.643024 0.92862 0.500077
536 1 0.500069 0.928559 0.500057
11 1 0.714409 0.999985 0.99999
518 1 0.928516 0.500079 0.500034
535 1 0.357121 0.928643 0.500016
9 1 0.571468 0.999981 0.999993
532 1 0.928615 0.785904 0.500024
531 1 0.7861 0.786114 0.500177
530 1 0.643245 0.78632 0.500206
529 1 0.500069 0.786035 0.500102
528 1 0.356857 0.786206 0.500018
527 1 0.213749 0.786413 0.500013
512 1 0.0711244 0.500097 0.500067
525 1 0.928554 0.64297 0.500058
524 1 0.786176 0.643277 0.500224
513 1 0.212331 0.500446 0.500297
520 1 0.212891 0.644065 0.500045
519 1 0.0709942 0.64312 0.500042
517 1 0.785964 0.500252 0.499986
