ITEM: TIMESTEP
120
ITEM: NUMBER OF ATOMS
696
ITEM: BOX BOUNDS pp pp pp
0.0000000000000000e+00 2.2013900999999997e+01
0.0000000000000000e+00 2.2013900999999997e+01
0.0000000000000000e+00 2.2013900999999997e+01
ITEM: ATOMS id type xs ys zs
1 1 7.44458e-05 -4.09333e-05 0.000206701
2 1 0.071291 0.0713099 0.071449
103 1 0.285331 -4.19013e-06 0.285454
4 1 0.214056 0.0712637 0.0713465
448 1 0.928762 0.499975 0.357014
6 1 0.356968 0.0712603 0.07136
447 1 0.786613 0.499936 0.356464
8 1 0.49992 0.0712784 0.0714503
689 2 0.562808 0.501337 0.472858
10 1 0.642874 0.0713036 0.0715648
175 1 0.857495 0.428482 0.428548
12 1 0.785801 0.0713162 0.0716344
194 1 0.644187 0.356257 0.496881
14 1 0.928626 0.0713251 0.0716048
193 1 0.499831 0.353964 0.499126
16 1 0.0713047 0.214159 0.0714606
17 1 0.142673 0.142646 9.13192e-05
18 1 0.213942 0.213996 0.0712671
19 1 0.2855 0.142608 5.41882e-05
20 1 0.356903 0.213974 0.0712649
21 1 0.428438 0.142609 0.000108136
22 1 0.499902 0.213996 0.0713782
23 1 0.571408 0.14261 0.00024187
24 1 0.642897 0.214031 0.0715443
25 1 0.714416 0.142614 0.000381292
26 1 0.785889 0.214059 0.0716718
27 1 0.857389 0.14262 0.000427727
28 1 0.928667 0.21415 0.0715993
444 1 0.359607 0.499736 0.359908
30 1 0.0713722 0.357082 0.0714623
31 1 0.142726 0.285594 0.000102986
32 1 0.214077 0.357065 0.0713574
33 1 0.28543 0.285449 7.84723e-05
34 1 0.356882 0.356947 0.0712016
35 1 0.428427 0.285443 8.19949e-05
36 1 0.499868 0.356954 0.0712914
37 1 0.571419 0.285436 0.000241626
38 1 0.642889 0.356983 0.0714668
39 1 0.714508 0.285433 0.000528931
40 1 0.785892 0.357024 0.0715855
41 1 0.85741 0.28554 0.000401425
42 1 0.928697 0.357063 0.0715707
443 1 0.214062 0.499922 0.356907
44 1 0.1428 0.428525 5.88896e-05
99 1 0.999812 2.33174e-05 0.285659
46 1 0.428455 0.428467 7.38287e-05
47 1 0.571424 0.428451 0.000144324
48 1 0.714479 0.428481 0.000320685
49 1 0.857416 0.42851 0.000327884
50 1 0.999907 -3.58706e-06 0.14285
51 1 0.0711312 0.0713059 0.21417
174 1 0.716211 0.426706 0.425985
53 1 0.213856 0.0711741 0.214005
173 1 0.569986 0.425586 0.421244
55 1 0.35686 0.0711605 0.21401
192 1 0.352743 0.352467 0.500043
57 1 0.499899 0.071227 0.214104
172 1 0.42117 0.411594 0.424534
59 1 0.642856 0.0712944 0.214221
171 1 0.283616 0.426627 0.427326
61 1 0.785734 0.0713466 0.214291
170 1 0.142086 0.428343 0.428307
63 1 0.928514 0.0713579 0.214271
64 1 0.999878 0.142715 0.142845
65 1 0.0710298 0.214033 0.21409
66 1 0.142466 0.142576 0.142636
67 1 0.21344 0.213585 0.213613
68 1 0.28535 0.142494 0.142557
69 1 0.356599 0.213517 0.21363
70 1 0.42839 0.142534 0.142639
71 1 0.499863 0.21372 0.213824
72 1 0.571395 0.142598 0.142769
73 1 0.642973 0.21384 0.213977
74 1 0.714358 0.142642 0.14288
75 1 0.78587 0.213992 0.214145
76 1 0.857209 0.142694 0.142935
77 1 0.928556 0.214093 0.214214
78 1 0.999943 0.285618 0.142859
79 1 0.0712013 0.357061 0.214166
80 1 0.142544 0.285565 0.142688
81 1 0.213782 0.35701 0.213937
82 1 0.285148 0.285236 0.142258
83 1 0.356224 0.356299 0.213003
84 1 0.428304 0.285273 0.142387
85 1 0.499751 0.356632 0.213401
86 1 0.571383 0.285378 0.142556
87 1 0.6431 0.356658 0.213545
88 1 0.714446 0.285432 0.142731
89 1 0.785987 0.356896 0.213954
90 1 0.857283 0.285546 0.142862
91 1 0.928631 0.357032 0.214207
92 1 0.999999 0.428525 0.142842
93 1 0.14265 0.428519 0.142728
94 1 0.285422 0.428545 0.142685
95 1 0.428254 0.428436 0.142507
96 1 0.571327 0.428501 0.142519
97 1 0.714422 0.428488 0.142629
98 1 0.85731 0.428503 0.142816
169 1 0.999804 0.428524 0.428579
100 1 0.0710791 0.0712985 0.35707
101 1 0.142458 8.32007e-07 0.285531
102 1 0.213772 0.0711244 0.356947
168 1 0.857295 0.285472 0.428578
104 1 0.356801 0.0710195 0.356943
167 1 0.714971 0.284637 0.427841
106 1 0.499886 0.0711683 0.357013
166 1 0.571317 0.284432 0.427806
108 1 0.642847 0.0713082 0.357091
165 1 0.427334 0.283563 0.427623
110 1 0.785739 0.0713676 0.357124
111 1 0.857149 8.88819e-05 0.285668
112 1 0.928468 0.0713649 0.357132
113 1 0.999758 0.142698 0.285651
114 1 0.0709149 0.213983 0.357019
115 1 0.142286 0.142474 0.285444
116 1 0.213242 0.213361 0.356628
117 1 0.285071 0.142117 0.285238
118 1 0.356212 0.212683 0.356434
119 1 0.428286 0.142204 0.285323
120 1 0.499723 0.213263 0.356644
121 1 0.57138 0.142438 0.285479
122 1 0.642942 0.213676 0.356796
123 1 0.714342 0.14259 0.2856
124 1 0.78598 0.213797 0.356873
125 1 0.857186 0.142655 0.285633
126 1 0.928481 0.214104 0.357116
127 1 0.999762 0.285529 0.285601
128 1 0.0708733 0.356935 0.356984
129 1 0.141993 0.285221 0.285265
130 1 0.212633 0.356213 0.356358
131 1 0.283838 0.283961 0.284035
132 1 0.352774 0.352835 0.353168
133 1 0.42784 0.284183 0.28448
134 1 0.499682 0.35476 0.354352
135 1 0.571596 0.284717 0.284759
136 1 0.643607 0.355962 0.355509
137 1 0.714664 0.285127 0.285119
138 1 0.786555 0.356345 0.356338
139 1 0.857394 0.285357 0.285449
140 1 0.928613 0.356996 0.357071
141 1 0.999928 0.428509 0.285606
142 1 0.142487 0.428525 0.285495
143 1 0.285234 0.428792 0.285499
144 1 0.426913 0.42674 0.2844
145 1 0.572212 0.427759 0.284268
146 1 0.714846 0.428315 0.284756
147 1 0.85745 0.428431 0.285442
164 1 0.283778 0.283691 0.427733
163 1 0.141947 0.285161 0.428413
189 1 0.928561 0.214059 0.500069
188 1 0.786075 0.213789 0.499948
162 1 0.999707 0.285526 0.428585
153 1 0.714341 0.000162218 0.428588
154 1 0.857156 6.42039e-05 0.428598
155 1 0.999764 0.142682 0.428572
156 1 0.142293 0.142463 0.42849
157 1 0.285026 0.142017 0.428384
158 1 0.428302 0.142101 0.428443
159 1 0.57139 0.142432 0.428529
160 1 0.714351 0.142565 0.428575
161 1 0.857192 0.142658 0.428561
344 1 0.0714154 0.499971 0.0714359
349 1 0.785903 0.499987 0.0714975
396 1 0.499547 0.499993 0.214095
397 1 0.643043 0.500011 0.213674
398 1 0.786044 0.499994 0.213901
399 1 0.928686 0.499978 0.21417
442 1 0.0712138 0.499965 0.356986
176 1 0.0711388 0.0712793 0.50004
177 1 0.213814 0.0711192 0.500016
62 1 0.857168 1.36992e-05 0.142928
60 1 0.714313 5.61033e-06 0.142907
181 1 0.785821 0.0713252 0.500084
182 1 0.928545 0.0713394 0.500052
183 1 0.0709829 0.21396 0.500034
109 1 0.714294 7.40783e-05 0.285663
395 1 0.356814 0.499951 0.214347
187 1 0.642955 0.213861 0.500012
514 1 0.354649 0.498751 0.494863
345 1 0.214129 0.499964 0.0713407
346 1 0.35695 0.499959 0.0713644
347 1 0.499878 0.499964 0.0713413
348 1 0.642901 0.499973 0.0713555
149 1 0.142462 -9.68958e-06 0.428519
148 1 0.999823 1.75207e-05 0.428571
393 1 0.0712763 0.499968 0.214148
394 1 0.213895 0.499954 0.213996
178 1 0.356833 0.0710203 0.500015
184 1 0.21337 0.213443 0.499985
185 1 0.356307 0.212711 0.499933
513 1 0.213588 0.499833 0.499482
512 1 0.0711528 0.499956 0.499978
190 1 0.0709423 0.356943 0.500016
191 1 0.212838 0.356359 0.49995
43 1 0.000134206 0.428525 0.000183235
29 1 9.90686e-05 0.285611 0.000220278
15 1 6.74161e-05 0.142711 0.000232239
13 1 0.857308 -2.69088e-05 0.000316793
11 1 0.714379 -2.4153e-05 0.00029715
644 1 0.928912 0.499974 0.92894
592 1 0.500062 0.499208 0.78655
643 1 0.786123 0.499976 0.929136
546 1 0.928916 0.499967 0.643108
545 1 0.786765 0.499974 0.643471
544 1 0.646312 0.500647 0.645792
543 1 0.497888 0.494043 0.662249
542 1 0.356071 0.499548 0.643972
642 1 0.643048 0.499914 0.928964
641 1 0.500049 0.499874 0.928689
640 1 0.357021 0.499951 0.928681
595 1 0.929132 0.499948 0.786193
341 1 0.571826 0.427994 0.857812
340 1 0.4282 0.428065 0.857868
594 1 0.786919 0.499865 0.786951
593 1 0.643526 0.499868 0.786783
339 1 0.285364 0.428428 0.857445
338 1 0.14278 0.428506 0.857329
337 1 0.000275406 0.428501 0.857474
336 1 0.928906 0.357013 0.928998
196 1 0.928559 0.357003 0.500137
696 3 0.50854 0.441844 0.538677
198 1 0.0712697 0.0712614 0.643025
199 1 0.142558 -3.86262e-05 0.571532
200 1 0.213935 0.0711256 0.643051
541 1 0.21392 0.49989 0.642691
202 1 0.35691 0.0710728 0.64302
540 1 0.0713893 0.499957 0.642901
204 1 0.500002 0.0712167 0.643062
692 3 0.568596 0.475603 0.511947
206 1 0.643053 0.0712203 0.643167
197 1 -6.87011e-05 -5.81321e-06 0.571529
208 1 0.786018 0.0711861 0.643096
209 1 0.857293 3.69327e-05 0.571541
210 1 0.928702 0.071283 0.64304
211 1 0.999897 0.14264 0.571539
212 1 0.0711733 0.213965 0.643058
213 1 0.142403 0.142468 0.571551
214 1 0.213512 0.213522 0.64324
215 1 0.285118 0.142095 0.571572
216 1 0.356504 0.213119 0.643132
217 1 0.428352 0.142239 0.571564
218 1 0.499812 0.21341 0.643195
219 1 0.571633 0.14261 0.571764
220 1 0.643795 0.213304 0.643973
221 1 0.714541 0.142462 0.571637
222 1 0.786514 0.213412 0.643259
223 1 0.857364 0.142559 0.571545
224 1 0.928841 0.213943 0.643092
225 1 0.999867 0.285481 0.571558
226 1 0.071232 0.356986 0.642956
227 1 0.142092 0.285191 0.571553
228 1 0.213354 0.356685 0.642926
229 1 0.28397 0.283973 0.572006
230 1 0.354268 0.354297 0.644496
231 1 0.42769 0.284356 0.57142
232 1 0.496698 0.354804 0.644668
233 1 0.57243 0.28489 0.572658
234 1 0.650865 0.348666 0.651178
235 1 0.715174 0.284443 0.571129
236 1 0.787219 0.355754 0.644307
237 1 0.857506 0.2853 0.571646
238 1 0.928974 0.356899 0.643172
239 1 0.999937 0.428491 0.571538
240 1 0.142501 0.428439 0.571364
241 1 0.285326 0.428088 0.571108
242 1 0.417238 0.423477 0.570872
243 1 0.585707 0.408844 0.584992
244 1 0.714692 0.425635 0.574448
245 1 0.857339 0.428259 0.571873
687 2 0.520163 0.475139 0.57328
247 1 0.0713973 0.0712564 0.785966
246 1 6.67103e-05 -3.49511e-05 0.714502
249 1 0.214068 0.0711658 0.785957
335 1 0.857863 0.28528 0.857985
251 1 0.356947 0.0711066 0.785991
334 1 0.786178 0.356931 0.929293
253 1 0.499961 0.0711635 0.786089
254 1 0.571516 8.68439e-05 0.714613
255 1 0.643008 0.0711209 0.786246
343 1 0.857804 0.42842 0.857874
257 1 0.786169 0.0710238 0.786314
258 1 0.857434 -3.12337e-06 0.71458
259 1 0.928848 0.071227 0.786076
260 1 8.4935e-05 0.142609 0.714548
261 1 0.0714023 0.214021 0.786024
262 1 0.142556 0.142503 0.714564
263 1 0.213744 0.213697 0.786209
264 1 0.285307 0.142264 0.71459
265 1 0.356532 0.21333 0.786375
266 1 0.428376 0.142168 0.714638
267 1 0.499777 0.213406 0.786472
268 1 0.571524 0.14225 0.714781
269 1 0.643203 0.213174 0.786864
270 1 0.714891 0.141811 0.71505
271 1 0.787216 0.212802 0.787373
272 1 0.857633 0.142385 0.714714
273 1 0.92917 0.213843 0.786292
274 1 0.000238887 0.285475 0.714583
275 1 0.0714135 0.357004 0.785972
276 1 0.142436 0.285376 0.714537
277 1 0.213646 0.356751 0.786121
278 1 0.284432 0.284456 0.715203
279 1 0.355582 0.355555 0.78729
280 1 0.427447 0.283735 0.715458
281 1 0.499846 0.356224 0.786607
282 1 0.571091 0.283843 0.715677
283 1 0.644584 0.355228 0.788018
284 1 0.717905 0.282105 0.718123
285 1 0.787087 0.356492 0.78718
286 1 0.85841 0.28496 0.71517
287 1 0.929141 0.356944 0.786248
288 1 0.00020866 0.428491 0.714529
289 1 0.142518 0.428465 0.714412
290 1 0.284338 0.428035 0.714757
291 1 0.42418 0.424625 0.717012
292 1 0.575426 0.42426 0.716306
293 1 0.716557 0.427988 0.716539
294 1 0.85801 0.42836 0.714955
333 1 0.715203 0.284764 0.858779
296 1 0.0714289 0.07127 0.928798
342 1 0.714925 0.428336 0.85815
298 1 0.214113 0.0712222 0.928744
332 1 0.643129 0.35677 0.929351
300 1 0.356982 0.0712267 0.928759
331 1 0.571513 0.28504 0.857938
302 1 0.499928 0.0712401 0.928852
303 1 0.571451 -1.2485e-05 0.857547
304 1 0.642931 0.0712408 0.928985
305 1 0.714508 1.54462e-06 0.857651
306 1 0.785965 0.0712218 0.929071
307 1 0.857515 -1.9961e-05 0.857649
308 1 0.92885 0.0712427 0.929004
309 1 0.00021363 0.142607 0.857523
310 1 0.0714152 0.214107 0.928831
311 1 0.142679 0.142559 0.857441
312 1 0.213973 0.21394 0.928857
313 1 0.285392 0.142409 0.857495
314 1 0.356911 0.213915 0.92885
315 1 0.428381 0.142425 0.857536
316 1 0.499918 0.213902 0.928948
317 1 0.571432 0.142405 0.857694
318 1 0.642986 0.213853 0.92919
319 1 0.71463 0.142307 0.8579
320 1 0.786217 0.213791 0.929423
321 1 0.857787 0.142291 0.857941
322 1 0.928897 0.214042 0.929045
323 1 0.000231225 0.28553 0.857521
324 1 0.0714777 0.357058 0.928785
325 1 0.14263 0.285465 0.857456
326 1 0.214082 0.357004 0.928771
327 1 0.285049 0.285022 0.857846
328 1 0.356833 0.356815 0.928996
329 1 0.428327 0.285103 0.857735
330 1 0.499968 0.356828 0.928913
256 1 0.714568 5.28688e-05 0.714683
195 1 0.786139 0.356819 0.500132
45 1 0.285552 0.428512 1.00004
179 1 0.499974 0.0712567 0.500111
180 1 0.642912 0.0713743 0.500121
186 1 0.499909 0.213465 0.500127
518 1 0.928556 0.499983 0.5002
511 1 0.857295 0.857476 0.428544
539 1 0.928593 0.928722 0.500044
538 1 0.785871 0.928822 0.500082
537 1 0.642987 0.928974 0.500049
515 1 0.473531 0.499904 0.463396
510 1 0.714608 0.857955 0.428317
350 1 0.928724 0.499979 0.0715313
152 1 0.571408 1.00009 0.428573
352 1 0.0714183 0.642853 0.0714042
151 1 0.428428 1.00003 0.428533
354 1 0.214137 0.642839 0.0712755
150 1 0.285311 0.999997 0.428482
356 1 0.356948 0.642919 0.0710641
56 1 0.428432 0.999968 0.142716
358 1 0.499892 0.642923 0.0712119
359 1 0.571446 0.571417 3.06107e-05
360 1 0.642897 0.64294 0.0713314
361 1 0.714464 0.571454 0.00022789
362 1 0.785908 0.642936 0.0714789
363 1 0.857424 0.571445 0.000281225
364 1 0.928731 0.642891 0.0715034
535 1 0.35685 0.928957 0.499993
366 1 0.0713679 0.785758 0.0713773
445 1 0.499116 0.500003 0.348229
368 1 0.214024 0.785872 0.0711411
446 1 0.644092 0.50003 0.356023
370 1 0.356963 0.785884 0.071164
3 1 0.142749 0.999932 6.84916e-05
372 1 0.499934 0.785883 0.0712978
373 1 0.571449 0.714396 0.00011844
374 1 0.642905 0.78589 0.0714509
375 1 0.714479 0.714439 0.000339611
376 1 0.7859 0.785891 0.0715345
377 1 0.857427 0.714395 0.000301384
378 1 0.92871 0.785805 0.0715073
533 1 0.0711772 0.928697 0.500034
380 1 0.07132 0.92861 0.0714039
521 1 0.351866 0.648402 0.499046
382 1 0.214086 0.928619 0.0713028
520 1 0.212867 0.643561 0.49977
384 1 0.356988 0.928624 0.0713245
385 1 0.428475 0.857245 4.31572e-05
386 1 0.49993 0.928635 0.0714173
387 1 0.571429 0.857285 0.000186135
388 1 0.64288 0.92865 0.0715297
389 1 0.714431 0.857316 0.000320475
390 1 0.785813 0.928658 0.0715917
391 1 0.8574 0.857304 0.000341852
392 1 0.928648 0.928637 0.0715556
532 1 0.928678 0.786001 0.500062
531 1 0.786132 0.78629 0.500103
530 1 0.643391 0.786968 0.49952
509 1 0.571379 0.857794 0.428394
508 1 0.428293 0.857951 0.428364
507 1 0.285034 0.858002 0.428328
506 1 0.142335 0.857518 0.42846
400 1 2.42552e-05 0.571427 0.14281
401 1 0.0712542 0.642881 0.214114
402 1 0.142674 0.57141 0.142697
403 1 0.213828 0.64289 0.21389
404 1 0.285445 0.571366 0.14265
405 1 0.356243 0.643614 0.212927
406 1 0.428272 0.571493 0.142474
407 1 0.49976 0.643299 0.213466
408 1 0.571339 0.571471 0.142483
409 1 0.643147 0.643359 0.213453
410 1 0.714438 0.5715 0.142563
411 1 0.786073 0.643119 0.213813
412 1 0.857337 0.571468 0.142768
413 1 0.9287 0.642946 0.214128
414 1 9.45172e-07 0.714342 0.142782
415 1 0.0710968 0.785936 0.214009
416 1 0.142604 0.714356 0.142612
417 1 0.213471 0.786366 0.213496
418 1 0.285202 0.714661 0.142137
419 1 0.356652 0.786402 0.213555
420 1 0.428348 0.714617 0.142322
421 1 0.499885 0.786231 0.213756
422 1 0.571393 0.714544 0.142495
423 1 0.642972 0.786173 0.213871
424 1 0.714475 0.714552 0.142572
425 1 0.785971 0.786099 0.213939
426 1 0.857341 0.714445 0.14274
427 1 0.92865 0.785941 0.214096
428 1 0.999928 0.857263 0.14277
429 1 0.0711597 0.928696 0.214118
430 1 0.142509 0.857358 0.142551
431 1 0.213872 0.928792 0.213959
432 1 0.285392 0.857411 0.142485
433 1 0.356871 0.928798 0.213972
434 1 0.428416 0.857384 0.142575
435 1 0.499904 0.928764 0.214064
436 1 0.571405 0.85736 0.142702
437 1 0.642862 0.928749 0.214172
438 1 0.714373 0.857358 0.142792
439 1 0.785767 0.928745 0.214222
440 1 0.857258 0.857326 0.14282
441 1 0.928561 0.928722 0.214205
505 1 0.999839 0.857351 0.428548
504 1 0.857773 0.714806 0.428323
503 1 0.716287 0.716652 0.426665
502 1 0.5709 0.715896 0.427559
501 1 0.427159 0.716491 0.427363
500 1 0.283464 0.716526 0.427288
499 1 0.141959 0.714809 0.428319
449 1 0.999975 0.57144 0.28557
450 1 0.0709753 0.642998 0.356937
451 1 0.14252 0.571381 0.28547
452 1 0.212725 0.643598 0.356337
453 1 0.285276 0.571033 0.285512
454 1 0.352705 0.647163 0.35299
455 1 0.426876 0.573174 0.284436
456 1 0.499685 0.644917 0.354825
457 1 0.57226 0.572295 0.284256
458 1 0.643932 0.644229 0.355363
459 1 0.714939 0.571723 0.284662
460 1 0.786881 0.643762 0.35606
461 1 0.857524 0.571532 0.285378
462 1 0.928794 0.643023 0.356961
463 1 0.999874 0.714466 0.285511
464 1 0.0709872 0.786036 0.356932
465 1 0.14206 0.714706 0.285203
466 1 0.213174 0.786696 0.356451
467 1 0.283833 0.716011 0.283877
468 1 0.35618 0.787365 0.356287
469 1 0.42793 0.715701 0.284465
470 1 0.499653 0.786811 0.356496
471 1 0.571565 0.715231 0.284759
472 1 0.642981 0.786562 0.356559
473 1 0.714834 0.715035 0.284792
474 1 0.786455 0.786704 0.356409
475 1 0.85757 0.714729 0.285261
476 1 0.928704 0.78604 0.356961
477 1 0.999847 0.857361 0.285556
478 1 0.0711063 0.928715 0.357045
479 1 0.142303 0.857537 0.285351
480 1 0.213777 0.928882 0.356912
481 1 0.285075 0.857878 0.285151
482 1 0.356803 0.929004 0.356903
483 1 0.428286 0.857799 0.285238
484 1 0.499878 0.928919 0.356959
485 1 0.571376 0.857625 0.285387
486 1 0.642864 0.928889 0.357018
487 1 0.714404 0.857574 0.285447
488 1 0.785844 0.928931 0.357016
489 1 0.857356 0.857553 0.285448
490 1 0.928519 0.92873 0.357101
491 1 0.999911 0.571437 0.42855
492 1 0.142213 0.571514 0.428297
493 1 0.283993 0.572872 0.427404
494 1 0.420453 0.587901 0.42453
495 1 0.57049 0.574792 0.421173
496 1 0.71685 0.573161 0.425749
497 1 0.857748 0.57155 0.42845
498 1 0.99988 0.71451 0.428506
528 1 0.35633 0.787221 0.499871
107 1 0.571377 1.00004 0.28559
52 1 0.142586 0.999972 0.142703
54 1 0.285461 0.999961 0.142658
58 1 0.571393 0.999986 0.142817
105 1 0.428387 1.00001 0.285494
524 1 0.786914 0.64367 0.499713
523 1 0.646671 0.646637 0.49255
522 1 0.498491 0.646263 0.499186
519 1 0.0710626 0.643003 0.499969
9 1 0.571413 0.99996 0.000199126
379 1 0.000116377 0.857195 0.000164419
365 1 0.000152888 0.714312 0.000143355
526 1 0.0710829 0.786009 0.500016
5 1 0.285562 0.999926 3.45832e-05
7 1 0.428465 0.999939 8.92297e-05
527 1 0.21343 0.786492 0.499969
534 1 0.213841 0.928826 0.500009
351 1 0.000156647 0.57142 0.00015044
695 3 0.533861 0.545339 0.521168
694 3 0.559152 0.503279 0.583443
693 3 0.503476 0.566106 0.59861
691 3 0.477309 0.503064 0.563926
297 1 0.14278 0.999914 0.857341
517 1 0.786015 0.500052 0.500572
690 2 0.583298 0.539132 0.505663
301 1 0.428464 0.999953 0.857414
299 1 0.285554 0.999904 0.857345
295 1 0.000151111 0.99995 0.857431
205 1 0.571505 1.00013 0.571583
252 1 0.428499 0.999983 0.714509
680 1 0.499945 0.928654 0.92883
679 1 0.428405 0.857445 0.857511
250 1 0.285513 0.999914 0.714476
248 1 0.142688 0.999931 0.714492
678 1 0.357006 0.928616 0.928726
529 1 0.499846 0.786669 0.500057
677 1 0.285499 0.857344 0.8574
676 1 0.214162 0.928589 0.928698
675 1 0.142791 0.85725 0.857366
674 1 0.0714715 0.928597 0.928764
207 1 0.714457 1.00008 0.571589
673 1 0.000292406 0.857289 0.857484
672 1 0.928939 0.785866 0.928969
671 1 0.857874 0.714625 0.857907
670 1 0.786178 0.786067 0.929282
669 1 0.715024 0.714926 0.858445
203 1 0.428464 1.00001 0.57153
668 1 0.643024 0.786027 0.929117
688 2 0.517468 0.527297 0.575826
686 1 0.928879 0.928683 0.928976
685 1 0.857844 0.85766 0.857913
684 1 0.785985 0.928727 0.929051
683 1 0.714703 0.857669 0.857901
547 1 5.7818e-05 0.57146 0.571521
548 1 0.0714275 0.64292 0.642927
549 1 0.142566 0.571445 0.571317
550 1 0.213766 0.643064 0.642838
551 1 0.285108 0.571555 0.570758
552 1 0.355458 0.645201 0.644173
553 1 0.413313 0.575675 0.567555
554 1 0.499817 0.648605 0.645496
555 1 0.592631 0.594882 0.578276
556 1 0.649558 0.650141 0.654401
557 1 0.716 0.575012 0.573822
558 1 0.78766 0.644214 0.64447
559 1 0.857673 0.571787 0.571813
560 1 0.929176 0.643092 0.643164
561 1 1.05946e-05 0.714503 0.571538
562 1 0.0713088 0.78594 0.643036
563 1 0.142253 0.71468 0.571532
564 1 0.21368 0.786309 0.643231
565 1 0.284096 0.715863 0.57211
566 1 0.356754 0.786668 0.643059
567 1 0.427805 0.715268 0.571439
568 1 0.500045 0.786962 0.643102
569 1 0.573273 0.716021 0.571832
570 1 0.643776 0.787192 0.644033
571 1 0.714511 0.7149 0.57174
572 1 0.786542 0.786591 0.643147
573 1 0.857582 0.714771 0.57166
574 1 0.92894 0.786043 0.643069
575 1 -1.9963e-05 0.857346 0.571531
576 1 0.0713157 0.928658 0.643018
577 1 0.142486 0.857442 0.571547
578 1 0.213986 0.928739 0.643041
579 1 0.285197 0.857789 0.571557
580 1 0.356958 0.928822 0.642998
581 1 0.428386 0.857743 0.571501
582 1 0.500027 0.928935 0.643032
583 1 0.571727 0.857778 0.571607
584 1 0.643097 0.92902 0.643142
585 1 0.714624 0.857621 0.571622
586 1 0.786048 0.928876 0.643075
587 1 0.857456 0.857522 0.571538
588 1 0.928743 0.928715 0.643033
589 1 0.0715264 0.499969 0.785909
590 1 0.214028 0.499992 0.785869
591 1 0.356715 0.500068 0.786153
682 1 0.642949 0.928703 0.928967
667 1 0.57163 0.7147 0.857861
666 1 0.499975 0.785918 0.928867
665 1 0.428493 0.714565 0.857536
596 1 0.000314742 0.571434 0.714509
597 1 0.0715901 0.642877 0.785896
598 1 0.142754 0.571408 0.71433
599 1 0.214068 0.642966 0.785879
600 1 0.285104 0.571652 0.714368
601 1 0.356593 0.643451 0.786373
602 1 0.426978 0.573642 0.714431
603 1 0.500057 0.643334 0.786391
604 1 0.573183 0.573363 0.715784
605 1 0.644147 0.644103 0.786786
606 1 0.716804 0.571491 0.716676
607 1 0.787065 0.643399 0.787085
608 1 0.858149 0.571521 0.714976
609 1 0.929222 0.642983 0.786214
610 1 0.000402091 0.714453 0.714556
611 1 0.0715537 0.785836 0.785962
612 1 0.142697 0.714429 0.714449
613 1 0.213972 0.786026 0.786072
614 1 0.284901 0.715118 0.71497
615 1 0.356695 0.786357 0.786259
616 1 0.427719 0.716052 0.715496
617 1 0.499774 0.786637 0.786566
618 1 0.571401 0.716985 0.716499
619 1 0.643437 0.786921 0.786975
620 1 0.718168 0.718091 0.717978
621 1 0.787325 0.787198 0.787358
622 1 0.858583 0.715054 0.715186
623 1 0.929279 0.786102 0.786271
624 1 0.000164005 0.857315 0.714523
625 1 0.0714441 0.928614 0.785945
626 1 0.142664 0.857343 0.714534
627 1 0.21413 0.928632 0.785922
628 1 0.285447 0.857506 0.714527
629 1 0.356986 0.928728 0.785964
630 1 0.428452 0.857772 0.714618
631 1 0.499968 0.928868 0.786105
632 1 0.571586 0.858069 0.714859
633 1 0.64306 0.928966 0.786266
634 1 0.71498 0.858317 0.715055
635 1 0.786208 0.928992 0.786311
636 1 0.857684 0.857598 0.714673
637 1 0.928882 0.928711 0.786058
638 1 0.071534 0.499971 0.928737
639 1 0.214196 0.499968 0.928659
664 1 0.357023 0.785845 0.928705
663 1 0.285468 0.714517 0.857452
662 1 0.214159 0.785809 0.928672
661 1 0.142851 0.714333 0.857307
681 1 0.571482 0.857536 0.857687
645 1 0.000310096 0.571428 0.857439
646 1 0.0715542 0.642855 0.928716
647 1 0.142866 0.571421 0.857271
648 1 0.214228 0.642856 0.928628
649 1 0.285533 0.571462 0.857284
650 1 0.357071 0.642869 0.928632
651 1 0.428544 0.571436 0.857207
652 1 0.500012 0.642894 0.928724
653 1 0.571761 0.571584 0.857523
654 1 0.643082 0.643006 0.928993
655 1 0.714845 0.57157 0.858012
656 1 0.78616 0.642985 0.929175
657 1 0.857789 0.571489 0.857813
658 1 0.928933 0.642914 0.928931
659 1 0.000334178 0.714366 0.857452
660 1 0.0715255 0.785752 0.928737
201 1 0.285389 0.999955 0.571523
536 1 0.499975 0.92888 0.500064
353 1 0.142838 0.571405 1.00002
355 1 0.285603 0.571393 0.999961
357 1 0.428507 0.571369 0.99991
367 1 0.142824 0.714286 0.999997
369 1 0.285574 0.714346 0.999874
371 1 0.428497 0.714366 0.999943
381 1 0.142754 0.857202 0.999998
383 1 0.28557 0.857218 0.999964
525 1 0.928826 0.643072 0.500076
516 1 0.65949 0.499743 0.499618
