ITEM: TIMESTEP
37
ITEM: NUMBER OF ATOMS
685
ITEM: BOX BOUNDS pp pp pp
0.0000000000000000e+00 2.2013900999999997e+01
0.0000000000000000e+00 2.2013900999999997e+01
0.0000000000000000e+00 2.2013900999999997e+01
ITEM: ATOMS id type xs ys zs
175 1 0.856857 0.428645 0.428645
2 1 0.0714405 0.0714405 0.0714405
174 1 0.713284 0.429165 0.429165
4 1 0.214321 0.0714356 0.0714356
173 1 0.569994 0.430901 0.430901
6 1 0.357175 0.0714365 0.0714365
172 1 0.429954 0.429954 0.429954
8 1 0.500007 0.071441 0.071441
171 1 0.286039 0.428563 0.428563
10 1 0.642836 0.071447 0.071447
170 1 0.142915 0.428572 0.428572
12 1 0.785676 0.0714496 0.0714496
169 1 0.999924 0.428592 0.428592
14 1 0.928544 0.0714471 0.0714471
518 1 0.928455 0.499994 0.499994
16 1 0.0714356 0.214321 0.0714356
517 1 0.785354 0.499975 0.499975
18 1 0.214331 0.214331 0.0714334
445 1 0.499994 0.499994 0.355754
20 1 0.357185 0.214339 0.0714324
396 1 0.499993 0.499993 0.214196
22 1 0.500007 0.214346 0.0714371
147 1 0.856929 0.428669 0.285889
24 1 0.642823 0.214351 0.0714488
146 1 0.714019 0.428725 0.286067
26 1 0.785655 0.21435 0.0714561
145 1 0.571433 0.428678 0.286218
28 1 0.928531 0.214333 0.0714457
144 1 0.428563 0.428563 0.286039
30 1 0.0714365 0.357175 0.0714365
143 1 0.285927 0.428692 0.285927
32 1 0.214339 0.357185 0.0714324
142 1 0.142936 0.428614 0.285795
34 1 0.357175 0.357175 0.0714252
141 1 0.999937 0.42861 0.285788
36 1 0.50001 0.3572 0.0714422
140 1 0.92842 0.357218 0.357218
38 1 0.642824 0.357194 0.0714559
139 1 0.856953 0.285864 0.285864
40 1 0.78565 0.357193 0.0714671
138 1 0.785291 0.357449 0.357449
42 1 0.928524 0.357184 0.0714511
137 1 0.714003 0.286017 0.286017
136 1 0.642153 0.357934 0.357934
135 1 0.571346 0.285949 0.285949
134 1 0.500125 0.357842 0.357842
133 1 0.428692 0.285927 0.285927
132 1 0.357711 0.357711 0.357711
131 1 0.285931 0.285931 0.285931
168 1 0.856929 0.285889 0.428669
51 1 0.0714356 0.0714356 0.214321
167 1 0.714019 0.286067 0.428725
53 1 0.214331 0.0714334 0.214331
166 1 0.571433 0.286218 0.428678
55 1 0.357185 0.0714324 0.214339
165 1 0.428563 0.286039 0.428563
57 1 0.500007 0.0714371 0.214346
164 1 0.285927 0.285927 0.428692
59 1 0.642823 0.0714488 0.214351
163 1 0.142936 0.285795 0.428614
61 1 0.785655 0.0714561 0.21435
162 1 0.999937 0.285788 0.42861
63 1 0.928531 0.0714457 0.214333
64 1 0.999978 0.142892 0.142892
65 1 0.0714334 0.214331 0.214331
66 1 0.142892 0.142892 0.142892
67 1 0.214372 0.214372 0.214372
68 1 0.285758 0.14289 0.14289
69 1 0.357206 0.214371 0.214371
70 1 0.428596 0.142897 0.142897
71 1 0.500008 0.214385 0.214385
72 1 0.571414 0.142904 0.142904
73 1 0.642793 0.214397 0.214397
74 1 0.714238 0.14291 0.14291
75 1 0.785587 0.214413 0.214413
76 1 0.857081 0.14291 0.14291
77 1 0.928492 0.214358 0.214358
78 1 0.999971 0.285758 0.142896
79 1 0.0714324 0.357185 0.214339
80 1 0.14289 0.285758 0.14289
81 1 0.214371 0.357206 0.214371
82 1 0.285774 0.285774 0.142916
83 1 0.357213 0.357213 0.214438
84 1 0.428614 0.285795 0.142936
85 1 0.500023 0.357302 0.214526
86 1 0.5714 0.285805 0.14295
87 1 0.642755 0.357267 0.214529
88 1 0.714203 0.285805 0.142963
89 1 0.785568 0.357247 0.214454
90 1 0.857062 0.285781 0.142929
91 1 0.928479 0.357204 0.214372
92 1 0.99997 0.428596 0.142901
93 1 0.142897 0.428596 0.142897
94 1 0.285795 0.428614 0.142936
95 1 0.428572 0.428572 0.142915
96 1 0.571428 0.42859 0.142958
97 1 0.714201 0.428616 0.14299
98 1 0.857052 0.428614 0.142944
161 1 0.857052 0.142944 0.428614
100 1 0.0714365 0.0714365 0.357175
160 1 0.714201 0.14299 0.428616
102 1 0.214339 0.0714324 0.357185
159 1 0.571428 0.142958 0.42859
104 1 0.357175 0.0714252 0.357175
158 1 0.428572 0.142915 0.428572
106 1 0.50001 0.0714422 0.3572
157 1 0.285795 0.142936 0.428614
108 1 0.642824 0.0714559 0.357194
156 1 0.142897 0.142897 0.428596
110 1 0.78565 0.0714671 0.357193
155 1 0.99997 0.142901 0.428596
112 1 0.928524 0.0714511 0.357184
113 1 0.999971 0.142896 0.285758
114 1 0.0714324 0.214339 0.357185
115 1 0.14289 0.14289 0.285758
116 1 0.214371 0.214371 0.357206
117 1 0.285774 0.142916 0.285774
118 1 0.357213 0.214438 0.357213
119 1 0.428614 0.142936 0.285795
120 1 0.500023 0.214526 0.357302
121 1 0.5714 0.14295 0.285805
122 1 0.642755 0.214529 0.357267
123 1 0.714203 0.142963 0.285805
124 1 0.785568 0.214454 0.357247
125 1 0.857062 0.142929 0.285781
126 1 0.928479 0.214372 0.357204
127 1 0.999944 0.28577 0.28577
128 1 0.0714252 0.357175 0.357175
129 1 0.142916 0.285774 0.285774
130 1 0.214438 0.357213 0.357213
186 1 0.499993 0.214196 0.499993
193 1 0.499994 0.355754 0.499994
514 1 0.355754 0.499994 0.499994
513 1 0.214196 0.499993 0.499993
642 1 0.642846 0.499996 0.928485
177 1 0.214346 0.0714371 0.500007
178 1 0.3572 0.0714422 0.50001
641 1 0.499994 0.499994 0.928455
593 1 0.64279 0.499968 0.785324
181 1 0.785645 0.0714755 0.500015
182 1 0.928527 0.0714562 0.500011
183 1 0.0714371 0.214346 0.500007
184 1 0.214385 0.214385 0.500008
185 1 0.357302 0.214526 0.500023
256 1 0.714262 3.47662e-06 0.714262
592 1 0.499975 0.499975 0.785354
188 1 0.785547 0.214488 0.500035
189 1 0.928482 0.214379 0.500015
190 1 0.0714422 0.3572 0.50001
191 1 0.214526 0.357302 0.500023
192 1 0.357842 0.357842 0.500125
47 1 0.571422 0.428609 0.999931
194 1 0.642269 0.358053 0.500009
195 1 0.785218 0.357539 0.500138
196 1 0.928394 0.35725 0.500033
343 1 0.857028 0.428648 0.857028
198 1 0.071447 0.071447 0.642836
342 1 0.714189 0.428653 0.856936
200 1 0.214351 0.0714488 0.642823
341 1 0.571416 0.428725 0.856796
202 1 0.357194 0.0714559 0.642824
340 1 0.428645 0.428645 0.856857
204 1 0.500005 0.0714851 0.642825
205 1 0.571426 1.50027e-05 0.571426
206 1 0.642842 0.0714906 0.642842
339 1 0.285889 0.428669 0.856929
208 1 0.785652 0.0714841 0.642825
338 1 0.142944 0.428614 0.857052
210 1 0.928534 0.0714613 0.642836
211 1 0.999976 0.142907 0.57142
212 1 0.0714488 0.214351 0.642823
213 1 0.142904 0.142904 0.571414
214 1 0.214397 0.214397 0.642793
215 1 0.285805 0.14295 0.5714
216 1 0.357267 0.214529 0.642755
217 1 0.42859 0.142958 0.571428
218 1 0.500001 0.214565 0.642726
219 1 0.571431 0.142943 0.571431
220 1 0.642796 0.214525 0.642796
221 1 0.714194 0.143014 0.571403
222 1 0.78556 0.21449 0.642774
223 1 0.857057 0.142948 0.571417
224 1 0.928491 0.214381 0.642819
225 1 0.99995 0.285793 0.571415
226 1 0.0714559 0.357194 0.642824
227 1 0.14295 0.285805 0.5714
228 1 0.214529 0.357267 0.642755
229 1 0.285949 0.285949 0.571346
230 1 0.357934 0.357934 0.642153
231 1 0.428678 0.286218 0.571433
232 1 0.500009 0.358053 0.642269
233 1 0.571452 0.285957 0.571452
234 1 0.642333 0.357976 0.642333
235 1 0.713949 0.286169 0.571341
236 1 0.785298 0.357478 0.642641
237 1 0.856944 0.285889 0.571399
238 1 0.928422 0.357243 0.642803
239 1 0.999931 0.428609 0.571422
240 1 0.142958 0.42859 0.571428
241 1 0.286218 0.428678 0.571433
242 1 0.430901 0.430901 0.569994
243 1 0.570386 0.427951 0.570386
244 1 0.712927 0.429516 0.571377
245 1 0.856796 0.428725 0.571416
337 1 0.999981 0.428609 0.857082
247 1 0.0714496 0.0714496 0.785676
336 1 0.928522 0.357195 0.928522
249 1 0.21435 0.0714561 0.785655
335 1 0.857025 0.285839 0.857025
251 1 0.357193 0.0714671 0.78565
334 1 0.785635 0.357218 0.92848
253 1 0.500015 0.0714755 0.785645
333 1 0.714169 0.285878 0.856967
255 1 0.642825 0.0714841 0.785652
332 1 0.642803 0.357243 0.928422
257 1 0.785669 0.0714815 0.785669
331 1 0.571399 0.285889 0.856944
259 1 0.92854 0.0714607 0.785675
260 1 0.999983 0.142908 0.714249
261 1 0.0714561 0.21435 0.785655
262 1 0.14291 0.14291 0.714238
263 1 0.214413 0.214413 0.785587
264 1 0.285805 0.142963 0.714203
265 1 0.357247 0.214454 0.785568
266 1 0.428616 0.14299 0.714201
267 1 0.500035 0.214488 0.785547
268 1 0.571403 0.143014 0.714194
269 1 0.642774 0.21449 0.78556
270 1 0.714223 0.142992 0.714223
271 1 0.785588 0.214458 0.785588
272 1 0.857067 0.142949 0.714231
273 1 0.928505 0.214372 0.785648
274 1 0.999963 0.285787 0.714232
275 1 0.0714671 0.357193 0.78565
276 1 0.142963 0.285805 0.714203
277 1 0.214454 0.357247 0.785568
278 1 0.286017 0.286017 0.714003
279 1 0.357449 0.357449 0.785291
280 1 0.428725 0.286067 0.714019
281 1 0.500138 0.357539 0.785218
282 1 0.571341 0.286169 0.713949
283 1 0.642641 0.357478 0.785298
284 1 0.714027 0.286082 0.714027
285 1 0.785441 0.3574 0.785441
286 1 0.856967 0.285878 0.714169
287 1 0.92848 0.357218 0.785635
288 1 0.999977 0.428601 0.714243
289 1 0.14299 0.428616 0.714201
290 1 0.286067 0.428725 0.714019
291 1 0.429165 0.429165 0.713284
292 1 0.571377 0.429516 0.712927
293 1 0.713632 0.429146 0.713632
294 1 0.856936 0.428653 0.714189
330 1 0.500033 0.35725 0.928394
296 1 0.0714471 0.0714471 0.928544
329 1 0.428669 0.285889 0.856929
298 1 0.214333 0.0714457 0.928531
328 1 0.357218 0.357218 0.92842
300 1 0.357184 0.0714511 0.928524
327 1 0.285864 0.285864 0.856953
302 1 0.500011 0.0714562 0.928527
326 1 0.214372 0.357204 0.928479
304 1 0.642836 0.0714613 0.928534
325 1 0.142929 0.285781 0.857062
306 1 0.785675 0.0714607 0.92854
324 1 0.0714511 0.357184 0.928524
308 1 0.928546 0.0714546 0.928546
309 1 0.99999 0.142903 0.8571
310 1 0.0714457 0.214333 0.928531
311 1 0.14291 0.14291 0.857081
312 1 0.214358 0.214358 0.928492
313 1 0.285781 0.142929 0.857062
314 1 0.357204 0.214372 0.928479
315 1 0.428614 0.142944 0.857052
316 1 0.500015 0.214379 0.928482
317 1 0.571417 0.142948 0.857057
318 1 0.642819 0.214381 0.928491
319 1 0.714231 0.142949 0.857067
320 1 0.785648 0.214372 0.928505
321 1 0.857084 0.142934 0.857084
322 1 0.928526 0.21435 0.928526
323 1 0.999979 0.285773 0.857086
546 1 0.928485 0.499996 0.642846
545 1 0.785324 0.499968 0.64279
49 1 0.857082 0.428609 0.999981
48 1 0.714243 0.428601 0.999977
15 1 0.999988 0.142891 0.999988
17 1 0.142892 0.142892 0.999978
19 1 0.285758 0.142896 0.999971
21 1 0.428596 0.142901 0.99997
23 1 0.57142 0.142907 0.999976
25 1 0.714249 0.142908 0.999983
27 1 0.8571 0.142903 0.99999
29 1 0.999985 0.285757 0.999985
31 1 0.142896 0.285758 0.999971
33 1 0.28577 0.28577 0.999944
35 1 0.42861 0.285788 0.999937
37 1 0.571415 0.285793 0.99995
39 1 0.714232 0.285787 0.999963
41 1 0.857086 0.285773 0.999979
43 1 0.999986 0.428596 0.999986
44 1 0.142901 0.428596 0.99997
45 1 0.285788 0.42861 0.999937
46 1 0.428592 0.428592 0.999924
187 1 0.642726 0.214565 0.500001
180 1 0.642825 0.0714851 0.500005
176 1 0.071441 0.071441 0.500007
179 1 0.5 0.0714136 0.5
511 1 0.857028 0.857028 0.428648
345 1 0.214346 0.500007 0.0714371
346 1 0.3572 0.50001 0.0714422
510 1 0.714189 0.856936 0.428653
509 1 0.571416 0.856796 0.428725
349 1 0.785645 0.500015 0.0714755
350 1 0.928527 0.500011 0.0714562
149 1 0.142901 0.99997 0.428596
352 1 0.071447 0.642836 0.071447
150 1 0.285788 0.999937 0.42861
354 1 0.214351 0.642823 0.0714488
151 1 0.428592 0.999924 0.428592
356 1 0.357194 0.642824 0.0714559
152 1 0.571422 0.999931 0.428609
358 1 0.500005 0.642825 0.0714851
359 1 0.571426 0.571426 1.50027e-05
360 1 0.642842 0.642842 0.0714906
153 1 0.714243 0.999977 0.428601
362 1 0.785652 0.642825 0.0714841
154 1 0.857082 0.999981 0.428609
364 1 0.928534 0.642836 0.0714613
148 1 0.999986 0.999986 0.428596
366 1 0.0714496 0.785676 0.0714496
111 1 0.857086 0.999979 0.285773
368 1 0.21435 0.785655 0.0714561
109 1 0.714232 0.999963 0.285787
370 1 0.357193 0.78565 0.0714671
107 1 0.571415 0.99995 0.285793
372 1 0.500015 0.785645 0.0714755
105 1 0.42861 0.999937 0.285788
374 1 0.642825 0.785652 0.0714841
103 1 0.28577 0.999944 0.28577
376 1 0.785669 0.785669 0.0714815
101 1 0.142896 0.999971 0.285758
378 1 0.92854 0.785675 0.0714607
99 1 0.999985 0.999985 0.285757
380 1 0.0714471 0.928544 0.0714471
62 1 0.8571 0.99999 0.142903
382 1 0.214333 0.928531 0.0714457
60 1 0.714249 0.999983 0.142908
384 1 0.357184 0.928524 0.0714511
58 1 0.57142 0.999976 0.142907
386 1 0.500011 0.928527 0.0714562
56 1 0.428596 0.99997 0.142901
388 1 0.642836 0.928534 0.0714613
54 1 0.285758 0.999971 0.142896
390 1 0.785675 0.92854 0.0714607
52 1 0.142892 0.999978 0.142892
392 1 0.928546 0.928546 0.0714546
393 1 0.0714371 0.500007 0.214346
394 1 0.214385 0.500008 0.214385
395 1 0.357302 0.500023 0.214526
537 1 0.642846 0.928485 0.499996
508 1 0.428645 0.856857 0.428645
398 1 0.785547 0.500035 0.214488
399 1 0.928482 0.500015 0.214379
400 1 0.999976 0.57142 0.142907
401 1 0.0714488 0.642823 0.214351
402 1 0.142904 0.571414 0.142904
403 1 0.214397 0.642793 0.214397
404 1 0.285805 0.5714 0.14295
405 1 0.357267 0.642755 0.214529
406 1 0.42859 0.571428 0.142958
407 1 0.500001 0.642726 0.214565
408 1 0.571431 0.571431 0.142943
409 1 0.642796 0.642796 0.214525
410 1 0.714194 0.571403 0.143014
411 1 0.78556 0.642774 0.21449
412 1 0.857057 0.571417 0.142948
413 1 0.928491 0.642819 0.214381
414 1 0.999983 0.714249 0.142908
415 1 0.0714561 0.785655 0.21435
416 1 0.14291 0.714238 0.14291
417 1 0.214413 0.785587 0.214413
418 1 0.285805 0.714203 0.142963
419 1 0.357247 0.785568 0.214454
420 1 0.428616 0.714201 0.14299
421 1 0.500035 0.785547 0.214488
422 1 0.571403 0.714194 0.143014
423 1 0.642774 0.78556 0.21449
424 1 0.714223 0.714223 0.142992
425 1 0.785588 0.785588 0.214458
426 1 0.857067 0.714231 0.142949
427 1 0.928505 0.785648 0.214372
428 1 0.99999 0.8571 0.142903
429 1 0.0714457 0.928531 0.214333
430 1 0.14291 0.857081 0.14291
431 1 0.214358 0.928492 0.214358
432 1 0.285781 0.857062 0.142929
433 1 0.357204 0.928479 0.214372
434 1 0.428614 0.857052 0.142944
435 1 0.500015 0.928482 0.214379
436 1 0.571417 0.857057 0.142948
437 1 0.642819 0.928491 0.214381
438 1 0.714231 0.857067 0.142949
439 1 0.785648 0.928505 0.214372
440 1 0.857084 0.857084 0.142934
441 1 0.928526 0.928526 0.21435
442 1 0.0714422 0.50001 0.3572
443 1 0.214526 0.500023 0.357302
444 1 0.357842 0.500125 0.357842
536 1 0.499994 0.928455 0.499994
446 1 0.642269 0.500009 0.358053
447 1 0.785218 0.500138 0.357539
448 1 0.928394 0.500033 0.35725
449 1 0.99995 0.571415 0.285793
450 1 0.0714559 0.642824 0.357194
451 1 0.14295 0.5714 0.285805
452 1 0.214529 0.642755 0.357267
453 1 0.285949 0.571346 0.285949
454 1 0.357934 0.642153 0.357934
455 1 0.428678 0.571433 0.286218
456 1 0.500009 0.642269 0.358053
457 1 0.571452 0.571452 0.285957
458 1 0.642333 0.642333 0.357976
459 1 0.713949 0.571341 0.286169
460 1 0.785298 0.642641 0.357478
461 1 0.856944 0.571399 0.285889
462 1 0.928422 0.642803 0.357243
463 1 0.999963 0.714232 0.285787
464 1 0.0714671 0.78565 0.357193
465 1 0.142963 0.714203 0.285805
466 1 0.214454 0.785568 0.357247
467 1 0.286017 0.714003 0.286017
468 1 0.357449 0.785291 0.357449
469 1 0.428725 0.714019 0.286067
470 1 0.500138 0.785218 0.357539
471 1 0.571341 0.713949 0.286169
472 1 0.642641 0.785298 0.357478
473 1 0.714027 0.714027 0.286082
474 1 0.785441 0.785441 0.3574
475 1 0.856967 0.714169 0.285878
476 1 0.92848 0.785635 0.357218
477 1 0.999979 0.857086 0.285773
478 1 0.0714511 0.928524 0.357184
479 1 0.142929 0.857062 0.285781
480 1 0.214372 0.928479 0.357204
481 1 0.285864 0.856953 0.285864
482 1 0.357218 0.92842 0.357218
483 1 0.428669 0.856929 0.285889
484 1 0.500033 0.928394 0.35725
485 1 0.571399 0.856944 0.285889
486 1 0.642803 0.928422 0.357243
487 1 0.714169 0.856967 0.285878
488 1 0.785635 0.92848 0.357218
489 1 0.857025 0.857025 0.285839
490 1 0.928522 0.928522 0.357195
491 1 0.999931 0.571422 0.428609
492 1 0.142958 0.571428 0.42859
493 1 0.286218 0.571433 0.428678
494 1 0.430901 0.569994 0.430901
495 1 0.570386 0.570386 0.427951
496 1 0.712927 0.571377 0.429516
497 1 0.856796 0.571416 0.428725
498 1 0.999977 0.714243 0.428601
499 1 0.14299 0.714201 0.428616
500 1 0.286067 0.714019 0.428725
501 1 0.429165 0.713284 0.429165
502 1 0.571377 0.712927 0.429516
503 1 0.713632 0.713632 0.429146
504 1 0.856936 0.714189 0.428653
505 1 0.999981 0.857082 0.428609
506 1 0.142944 0.857052 0.428614
507 1 0.285889 0.856929 0.428669
50 1 0.999988 0.999988 0.142891
344 1 0.071441 0.500007 0.071441
347 1 0.5 0.5 0.0714136
524 1 0.785324 0.64279 0.499968
525 1 0.928485 0.642846 0.499996
529 1 0.499975 0.785354 0.499975
530 1 0.64279 0.785324 0.499968
397 1 0.642726 0.500001 0.214565
348 1 0.642825 0.500005 0.0714851
375 1 0.714262 0.714262 3.47662e-06
685 2 0.569875 0.569875 0.569875
5 1 0.285757 0.999985 0.999985
7 1 0.428596 0.999986 0.999986
515 1 0.928544 0.928544 0.928544
516 1 0.642856 0.501072 0.501072
684 1 0.785675 0.928542 0.928542
683 1 0.714218 0.857053 0.857053
307 1 0.857107 1 0.857107
305 1 0.714248 0.999995 0.857096
521 1 0.358053 0.642269 0.500009
522 1 0.501072 0.642856 0.501072
523 1 0.641161 0.641161 0.501186
303 1 0.571425 0.999991 0.857088
301 1 0.428609 0.999981 0.857082
526 1 0.0714755 0.785645 0.500015
527 1 0.214488 0.785547 0.500035
528 1 0.357539 0.785218 0.500138
299 1 0.285773 0.999979 0.857086
297 1 0.142903 0.99999 0.8571
531 1 0.785441 0.785441 0.50013
532 1 0.928474 0.785628 0.500034
533 1 0.0714562 0.928527 0.500011
534 1 0.214379 0.928482 0.500015
535 1 0.35725 0.928394 0.500033
295 1 0.999999 0.999999 0.857113
258 1 0.857096 0.999995 0.714248
538 1 0.785628 0.928474 0.500034
539 1 0.928528 0.928528 0.500017
682 1 0.642836 0.928535 0.928535
681 1 0.571424 0.857044 0.857044
542 1 0.358053 0.500009 0.642269
543 1 0.501072 0.501072 0.642856
544 1 0.641161 0.501186 0.641161
680 1 0.500017 0.928528 0.928528
679 1 0.428648 0.857028 0.857028
547 1 1.50027e-05 0.571426 0.571426
548 1 0.0714906 0.642842 0.642842
549 1 0.142943 0.571431 0.571431
550 1 0.214525 0.642796 0.642796
551 1 0.285957 0.571452 0.571452
552 1 0.357976 0.642333 0.642333
553 1 0.427951 0.570386 0.570386
554 1 0.501186 0.641161 0.641161
555 1 0.857064 0.857064 0.857064
556 1 0.641747 0.641747 0.641747
557 1 0.715871 0.571436 0.571436
558 1 0.785472 0.642885 0.642885
559 1 0.857279 0.571429 0.571429
560 1 0.928525 0.642861 0.642861
561 1 0.999981 0.714237 0.571421
562 1 0.0714841 0.785652 0.642825
563 1 0.143014 0.714194 0.571403
564 1 0.21449 0.78556 0.642774
565 1 0.286169 0.713949 0.571341
566 1 0.357478 0.785298 0.642641
567 1 0.429516 0.712927 0.571377
568 1 0.499968 0.785324 0.64279
569 1 0.571436 0.715871 0.571436
570 1 0.642885 0.785472 0.642885
571 1 0.713339 0.713339 0.571352
572 1 0.785467 0.785467 0.642707
573 1 0.856889 0.714133 0.571412
574 1 0.928487 0.785637 0.642816
575 1 0.999991 0.857088 0.571425
576 1 0.0714613 0.928534 0.642836
577 1 0.142948 0.857057 0.571417
578 1 0.214381 0.928491 0.642819
579 1 0.285889 0.856944 0.571399
580 1 0.357243 0.928422 0.642803
581 1 0.428725 0.856796 0.571416
582 1 0.499996 0.928485 0.642846
583 1 0.571429 0.857279 0.571429
584 1 0.642861 0.928525 0.642861
585 1 0.714133 0.856889 0.571412
586 1 0.785637 0.928487 0.642816
587 1 0.857044 0.857044 0.571424
588 1 0.928535 0.928535 0.642836
589 1 0.0714755 0.500015 0.785645
590 1 0.214488 0.500035 0.785547
591 1 0.357539 0.500138 0.785218
678 1 0.357195 0.928522 0.928522
677 1 0.285839 0.857025 0.857025
594 1 0.785441 0.50013 0.785441
595 1 0.928474 0.500034 0.785628
596 1 0.999981 0.571421 0.714237
597 1 0.0714841 0.642825 0.785652
598 1 0.143014 0.571403 0.714194
599 1 0.21449 0.642774 0.78556
600 1 0.286169 0.571341 0.713949
601 1 0.357478 0.642641 0.785298
602 1 0.429516 0.571377 0.712927
603 1 0.499968 0.64279 0.785324
604 1 0.571436 0.571436 0.715871
605 1 0.642885 0.642885 0.785472
606 1 0.713339 0.571352 0.713339
607 1 0.785467 0.642707 0.785467
608 1 0.856889 0.571412 0.714133
609 1 0.928487 0.642816 0.785637
610 1 3.47662e-06 0.714262 0.714262
611 1 0.0714815 0.785669 0.785669
612 1 0.142992 0.714223 0.714223
613 1 0.214458 0.785588 0.785588
614 1 0.286082 0.714027 0.714027
615 1 0.3574 0.785441 0.785441
616 1 0.429146 0.713632 0.713632
617 1 0.50013 0.785441 0.785441
618 1 0.571352 0.713339 0.713339
619 1 0.642707 0.785467 0.785467
620 1 0.713799 0.713799 0.713799
621 1 0.785517 0.785517 0.785517
622 1 0.857014 0.714235 0.714235
623 1 0.928522 0.785667 0.785667
624 1 0.999995 0.857096 0.714248
625 1 0.0714607 0.92854 0.785675
626 1 0.142949 0.857067 0.714231
627 1 0.214372 0.928505 0.785648
628 1 0.285878 0.856967 0.714169
629 1 0.357218 0.92848 0.785635
630 1 0.428653 0.856936 0.714189
631 1 0.500034 0.928474 0.785628
632 1 0.571412 0.856889 0.714133
633 1 0.642816 0.928487 0.785637
634 1 0.714235 0.857014 0.714235
635 1 0.785667 0.928522 0.785667
636 1 0.857053 0.857053 0.714218
637 1 0.928542 0.928542 0.785675
638 1 0.0714562 0.500011 0.928527
639 1 0.214379 0.500015 0.928482
640 1 0.35725 0.500033 0.928394
676 1 0.21435 0.928526 0.928526
675 1 0.142934 0.857084 0.857084
643 1 0.785628 0.500034 0.928474
644 1 0.928528 0.500017 0.928528
645 1 0.999991 0.571425 0.857088
646 1 0.0714613 0.642836 0.928534
647 1 0.142948 0.571417 0.857057
648 1 0.214381 0.642819 0.928491
649 1 0.285889 0.571399 0.856944
650 1 0.357243 0.642803 0.928422
651 1 0.428725 0.571416 0.856796
652 1 0.499996 0.642846 0.928485
653 1 0.571429 0.571429 0.857279
654 1 0.642861 0.642861 0.928525
655 1 0.714133 0.571412 0.856889
656 1 0.785637 0.642816 0.928487
657 1 0.857044 0.571424 0.857044
658 1 0.928535 0.642836 0.928535
659 1 0.999995 0.714248 0.857096
660 1 0.0714607 0.785675 0.92854
661 1 0.142949 0.714231 0.857067
662 1 0.214372 0.785648 0.928505
663 1 0.285878 0.714169 0.856967
664 1 0.357218 0.785635 0.92848
665 1 0.428653 0.714189 0.856936
666 1 0.500034 0.785628 0.928474
667 1 0.571412 0.714133 0.856889
668 1 0.642816 0.785637 0.928487
669 1 0.714235 0.714235 0.857014
670 1 0.785667 0.785667 0.928522
671 1 0.857053 0.714218 0.857053
672 1 0.928542 0.785675 0.928542
673 1 1 0.857107 0.857107
674 1 0.0714546 0.928546 0.928546
197 1 0.999992 0.999992 0.571424
199 1 0.142907 0.999976 0.57142
201 1 0.285793 0.99995 0.571415
203 1 0.428609 0.999931 0.571422
207 1 0.714237 0.999981 0.571421
209 1 0.857088 0.999991 0.571425
246 1 0.999997 0.999997 0.714258
248 1 0.142908 0.999983 0.714249
250 1 0.285787 0.999963 0.714232
252 1 0.428601 0.999977 0.714243
254 1 0.571421 0.999981 0.714237
9 1 0.571424 0.999992 0.999992
351 1 0.999992 0.571424 0.999992
353 1 0.142907 0.57142 0.999976
355 1 0.285793 0.571415 0.99995
357 1 0.428609 0.571422 0.999931
361 1 0.714237 0.571421 0.999981
363 1 0.857088 0.571425 0.999991
365 1 0.999997 0.714258 0.999997
367 1 0.142908 0.714249 0.999983
369 1 0.285787 0.714232 0.999963
371 1 0.428601 0.714243 0.999977
373 1 0.571421 0.714237 0.999981
540 1 0.0714851 0.500005 0.642825
377 1 0.857096 0.714248 0.999995
379 1 0.999999 0.857113 0.999999
381 1 0.142903 0.8571 0.99999
383 1 0.285773 0.857086 0.999979
385 1 0.428609 0.857082 0.999981
387 1 0.571425 0.857088 0.999991
389 1 0.714248 0.857096 0.999995
391 1 0.857107 0.857107 1
1 1 0.999995 0.999995 0.999995
3 1 0.142891 0.999988 0.999988
13 1 0.857113 0.999999 0.999999
11 1 0.714258 0.999997 0.999997
541 1 0.214565 0.500001 0.642726
519 1 0.0714851 0.642825 0.500005
520 1 0.214565 0.642726 0.500001
512 1 0.0714136 0.5 0.5
