ITEM: TIMESTEP
224
ITEM: NUMBER OF ATOMS
690
ITEM: BOX BOUNDS pp pp pp
0.0000000000000000e+00 2.2013900999999997e+01
0.0000000000000000e+00 2.2013900999999997e+01
0.0000000000000000e+00 2.2013900999999997e+01
ITEM: ATOMS id type xs ys zs
392 1 0.928565 0.928621 0.499958
2 1 0.0714245 0.07146 0.0714322
685 3 0.507234 0.480477 0.470964
4 1 0.21426 0.0714345 0.0714675
343 1 0.857235 0.857281 0.428432
6 1 0.357123 0.0714363 0.071443
387 1 0.214172 0.928626 0.499976
8 1 0.499995 0.0714115 0.0713908
391 1 0.785735 0.928654 0.499917
10 1 0.64288 0.0714175 0.0713378
390 1 0.642847 0.928656 0.499879
12 1 0.78576 0.071429 0.0713375
389 1 0.499906 0.928611 0.499921
14 1 0.928592 0.0714441 0.0713645
342 1 0.714421 0.857463 0.428346
16 1 0.0714111 0.214298 0.0714439
341 1 0.571387 0.857303 0.428397
18 1 0.214216 0.214279 0.0715195
340 1 0.428421 0.857383 0.428442
20 1 0.357107 0.214262 0.0715216
339 1 0.285581 0.857268 0.428522
22 1 0.499994 0.214242 0.07144
338 1 0.142759 0.857216 0.428531
24 1 0.642875 0.214239 0.0713532
384 1 0.785891 0.785946 0.499819
26 1 0.785758 0.214232 0.0712968
383 1 0.642971 0.786001 0.499575
28 1 0.928601 0.214278 0.0713365
337 1 0.999995 0.857208 0.428499
30 1 0.0713942 0.357182 0.071446
336 1 0.857435 0.71447 0.428333
32 1 0.214217 0.357166 0.071536
335 1 0.715175 0.715178 0.427726
34 1 0.357073 0.357108 0.0715265
334 1 0.571664 0.714535 0.427856
36 1 0.49996 0.357091 0.0714394
333 1 0.427811 0.715 0.428002
38 1 0.642865 0.357072 0.0712834
382 1 0.499815 0.78591 0.499728
40 1 0.785738 0.35711 0.0712409
332 1 0.285376 0.714529 0.42844
42 1 0.928577 0.357155 0.0713317
381 1 0.356925 0.785918 0.499989
44 1 0.071368 0.500057 0.0714293
331 1 0.14273 0.714358 0.428537
46 1 0.214221 0.500039 0.0715379
330 1 2.51471e-05 0.714346 0.428479
48 1 0.357063 0.500007 0.0715293
329 1 0.857386 0.571449 0.428343
50 1 0.49994 0.499981 0.0713764
328 1 0.714809 0.571713 0.427714
52 1 0.642815 0.499977 0.0712588
327 1 0.574949 0.574044 0.418739
54 1 0.785708 0.499988 0.0712089
326 1 0.427868 0.572552 0.428294
56 1 0.928564 0.500033 0.0713047
378 1 0.928621 0.642894 0.499879
58 1 0.0713956 0.64292 0.0714006
325 1 0.285618 0.571621 0.428566
60 1 0.21421 0.642907 0.0714816
324 1 0.142771 0.571469 0.428559
62 1 0.357063 0.642889 0.0714265
323 1 2.03742e-05 0.571445 0.428494
64 1 0.499925 0.642858 0.0713501
377 1 0.785961 0.643035 0.499553
66 1 0.642815 0.642874 0.0711787
376 1 0.644891 0.645031 0.497272
68 1 0.78571 0.642882 0.0711727
375 1 0.498148 0.647758 0.499075
70 1 0.928551 0.642901 0.0713044
374 1 0.356733 0.643422 0.499653
72 1 0.0713993 0.785784 0.0713821
322 1 0.857505 0.428427 0.428358
74 1 0.214227 0.785784 0.0714249
321 1 0.715503 0.427757 0.427741
76 1 0.35708 0.785756 0.0713828
320 1 0.574583 0.427162 0.427146
78 1 0.499936 0.785741 0.0712953
386 1 0.0713587 0.928609 0.499974
80 1 0.642811 0.785758 0.0712197
372 1 0.0713092 0.64288 0.499972
82 1 0.785746 0.785807 0.0711915
370 1 0.786012 0.499888 0.49964
84 1 0.928579 0.78578 0.0713137
369 1 0.647229 0.498188 0.497885
86 1 0.0714324 0.928625 0.0713939
356 1 0.785764 0.214118 0.49992
88 1 0.214251 0.928638 0.0714078
319 1 0.42725 0.427835 0.428199
90 1 0.357113 0.928607 0.0713961
355 1 0.64289 0.214094 0.499933
92 1 0.499981 0.928598 0.0713431
380 1 0.214082 0.785827 0.499975
94 1 0.642846 0.928603 0.0712954
348 1 0.642808 0.0713513 0.49995
96 1 0.785739 0.928623 0.0712898
347 1 0.49993 0.0713809 0.499964
98 1 0.928599 0.928634 0.0713248
99 1 3.65027e-05 5.78533e-05 0.142815
100 1 0.0714423 0.0714616 0.214255
101 1 0.142837 5.87107e-05 0.142832
102 1 0.214281 0.0714731 0.214287
103 1 0.285702 4.79208e-05 0.14284
104 1 0.357147 0.0714917 0.214275
105 1 0.428558 3.19942e-05 0.142797
106 1 0.500005 0.0714678 0.214226
107 1 0.571438 1.0617e-05 0.142748
108 1 0.642891 0.0714321 0.214187
109 1 0.714321 2.39221e-05 0.142725
110 1 0.785779 0.0714144 0.214155
111 1 0.857201 4.61705e-05 0.142727
112 1 0.92865 0.0714309 0.214203
113 1 5.19676e-05 0.14286 0.142811
114 1 0.0714709 0.214291 0.214268
115 1 0.142844 0.142872 0.142878
116 1 0.21429 0.214303 0.214315
117 1 0.285719 0.142878 0.142908
118 1 0.357196 0.21431 0.214338
119 1 0.428593 0.142869 0.142867
120 1 0.500039 0.214282 0.214281
121 1 0.571451 0.142837 0.142808
122 1 0.64291 0.21422 0.214183
123 1 0.714352 0.142824 0.14274
124 1 0.785861 0.214151 0.214084
125 1 0.857224 0.142821 0.142738
126 1 0.92868 0.214253 0.214187
127 1 4.91936e-05 0.285725 0.142804
128 1 0.0714897 0.357176 0.214269
129 1 0.142847 0.285743 0.142891
130 1 0.214298 0.357196 0.214347
131 1 0.285683 0.2857 0.142932
132 1 0.357136 0.357111 0.214311
133 1 0.428603 0.285705 0.142928
134 1 0.500072 0.35719 0.214351
135 1 0.571444 0.285668 0.142809
136 1 0.643038 0.356989 0.213996
137 1 0.714369 0.285615 0.142658
138 1 0.785952 0.356982 0.213956
139 1 0.857256 0.285659 0.142701
140 1 0.928698 0.357086 0.214156
141 1 4.01005e-05 0.428609 0.142774
142 1 0.0714756 0.500049 0.21425
143 1 0.142854 0.428627 0.142918
144 1 0.214307 0.500044 0.214334
145 1 0.285697 0.428619 0.142972
146 1 0.357236 0.500039 0.214405
147 1 0.428576 0.428555 0.142901
148 1 0.500139 0.500074 0.213987
149 1 0.571482 0.428509 0.142697
150 1 0.642997 0.500019 0.21396
151 1 0.714372 0.428514 0.142574
152 1 0.785922 0.499955 0.213944
153 1 0.857215 0.428547 0.142657
154 1 0.928679 0.500022 0.214117
155 1 1.75613e-05 0.571484 0.142763
156 1 0.0714532 0.64292 0.214231
157 1 0.142848 0.571492 0.142877
158 1 0.214264 0.642914 0.214286
159 1 0.285673 0.571454 0.142917
160 1 0.357095 0.642941 0.214242
161 1 0.428524 0.571462 0.142827
162 1 0.500025 0.642888 0.214215
163 1 0.571468 0.571469 0.142715
164 1 0.643059 0.643054 0.213678
165 1 0.714362 0.571433 0.142522
166 1 0.785912 0.64296 0.213883
167 1 0.857219 0.571462 0.142625
168 1 0.928671 0.642909 0.214088
169 1 1.13308e-05 0.714358 0.142756
170 1 0.0714336 0.785798 0.214213
171 1 0.142838 0.71437 0.142829
172 1 0.214225 0.785813 0.214225
173 1 0.285655 0.714362 0.142832
174 1 0.357028 0.785857 0.214127
175 1 0.428535 0.71433 0.142762
176 1 0.499941 0.785839 0.214087
177 1 0.571384 0.714369 0.142613
178 1 0.64287 0.785885 0.213948
179 1 0.714368 0.714413 0.14245
180 1 0.785955 0.786001 0.213847
181 1 0.85723 0.714362 0.142612
182 1 0.928679 0.785825 0.214083
183 1 3.0119e-05 0.85722 0.142762
184 1 0.0714306 0.928657 0.214231
185 1 0.142834 0.857216 0.142807
186 1 0.21425 0.928664 0.214243
187 1 0.28566 0.857234 0.142801
188 1 0.357099 0.928655 0.214215
189 1 0.428525 0.85721 0.142757
190 1 0.499963 0.928637 0.214161
191 1 0.571398 0.857222 0.142686
192 1 0.642862 0.928655 0.214106
193 1 0.7143 0.857247 0.142635
194 1 0.785797 0.928692 0.214077
195 1 0.857236 0.857271 0.142632
196 1 0.928647 0.928672 0.214161
197 1 2.25873e-05 4.77389e-05 0.28565
198 1 0.0714168 0.0714614 0.357138
199 1 0.14285 5.40143e-05 0.285694
200 1 0.214276 0.0714743 0.357136
201 1 0.285669 8.48688e-05 0.28569
202 1 0.357114 0.0714681 0.357117
203 1 0.428545 7.83576e-05 0.285658
204 1 0.499994 0.0714607 0.357079
205 1 0.571426 6.17234e-05 0.285603
206 1 0.642868 0.0713886 0.357027
207 1 0.714328 6.71336e-05 0.285565
208 1 0.785776 0.0714065 0.357041
209 1 0.857219 4.8206e-05 0.285592
210 1 0.928612 0.0714195 0.357078
211 1 4.95715e-05 0.142866 0.285682
212 1 0.071466 0.21428 0.357134
213 1 0.142874 0.142893 0.285721
214 1 0.214287 0.214324 0.357175
215 1 0.28571 0.142882 0.285718
216 1 0.357147 0.214302 0.35715
217 1 0.428616 0.1429 0.285704
218 1 0.500059 0.214379 0.357191
219 1 0.57144 0.142851 0.285649
220 1 0.642971 0.214086 0.357005
221 1 0.714375 0.142745 0.285573
222 1 0.785874 0.214073 0.356996
223 1 0.857235 0.142795 0.285608
224 1 0.928662 0.214224 0.357075
225 1 8.56524e-05 0.285676 0.285645
226 1 0.0714628 0.357134 0.357108
227 1 0.142881 0.28572 0.285719
228 1 0.214244 0.357114 0.357137
229 1 0.285738 0.285718 0.285735
230 1 0.357044 0.357066 0.357126
231 1 0.428702 0.285814 0.28584
232 1 0.500229 0.35756 0.357574
233 1 0.571476 0.285707 0.285711
234 1 0.643588 0.356479 0.356525
235 1 0.714576 0.285401 0.285361
236 1 0.786223 0.356778 0.356722
237 1 0.857384 0.285544 0.285494
238 1 0.928779 0.357044 0.357009
239 1 0.000118172 0.428579 0.285642
240 1 0.071475 0.500025 0.357099
241 1 0.142909 0.428612 0.285732
242 1 0.214336 0.500071 0.357235
243 1 0.285805 0.428659 0.285832
244 1 0.357397 0.500152 0.35748
245 1 0.42847 0.428414 0.285711
246 1 0.500018 0.499949 0.354706
247 1 0.571838 0.428412 0.285474
248 1 0.644269 0.499165 0.356155
249 1 0.714853 0.42822 0.285079
250 1 0.786244 0.499939 0.356733
251 1 0.857401 0.428487 0.285457
252 1 0.928761 0.499987 0.356965
253 1 8.94656e-05 0.571461 0.285599
254 1 0.0714215 0.642922 0.357076
255 1 0.142868 0.571477 0.285702
256 1 0.214173 0.642937 0.357105
257 1 0.285742 0.571457 0.285783
258 1 0.356875 0.643046 0.357012
259 1 0.42853 0.571679 0.285767
260 1 0.499245 0.643685 0.356897
261 1 0.571982 0.571868 0.285923
262 1 0.644835 0.644734 0.355228
263 1 0.714758 0.571489 0.285119
264 1 0.786347 0.643105 0.356625
265 1 0.857408 0.571441 0.285404
266 1 0.928754 0.642912 0.356961
267 1 6.75758e-05 0.714369 0.285597
268 1 0.0713991 0.785801 0.357069
269 1 0.142809 0.714382 0.28566
270 1 0.214137 0.785861 0.357048
271 1 0.285591 0.714398 0.285626
272 1 0.356863 0.786016 0.356913
273 1 0.428344 0.714569 0.285398
274 1 0.499922 0.785999 0.356938
275 1 0.571403 0.714582 0.285324
276 1 0.643037 0.786285 0.356697
277 1 0.714999 0.715007 0.284746
278 1 0.786088 0.786103 0.356686
279 1 0.857417 0.714476 0.285372
280 1 0.928702 0.785834 0.356973
281 1 3.71163e-05 0.857231 0.285609
282 1 0.0714099 0.928623 0.357103
283 1 0.142806 0.857242 0.285655
284 1 0.214224 0.928667 0.357093
285 1 0.285597 0.857294 0.285606
286 1 0.357052 0.928712 0.357067
287 1 0.428498 0.857292 0.285576
288 1 0.499949 0.928682 0.357018
289 1 0.571385 0.857318 0.285479
290 1 0.642858 0.928733 0.356987
291 1 0.714408 0.857417 0.2854
292 1 0.785801 0.928708 0.356975
293 1 0.857291 0.85731 0.285481
294 1 0.928628 0.928638 0.357045
295 1 0.999991 2.79059e-05 0.428521
296 1 0.142799 3.98526e-05 0.428546
297 1 0.285655 6.58008e-05 0.428548
298 1 0.428494 6.57803e-05 0.428506
299 1 0.571392 3.55479e-05 0.428482
300 1 0.714295 2.88856e-05 0.428475
301 1 0.85718 2.2975e-05 0.4285
302 1 2.02575e-05 0.142829 0.428533
303 1 0.142841 0.142879 0.42857
304 1 0.285697 0.142895 0.428588
305 1 0.42854 0.142879 0.428543
306 1 0.571426 0.142787 0.428515
307 1 0.714341 0.142735 0.428489
308 1 0.85717 0.142781 0.428506
309 1 3.01461e-05 0.285677 0.428541
310 1 0.142868 0.285721 0.428597
311 1 0.285741 0.285765 0.428656
312 1 0.428479 0.28575 0.428566
313 1 0.571692 0.285611 0.428474
314 1 0.714566 0.285366 0.428376
315 1 0.857292 0.285575 0.428494
316 1 8.18049e-05 0.428526 0.428498
317 1 0.142789 0.428555 0.428575
318 1 0.285504 0.42843 0.428528
346 1 0.357067 0.071445 0.499987
344 1 0.0713781 0.0714316 0.49997
349 1 0.785722 0.0713794 0.499946
350 1 0.928546 0.0713964 0.49997
75 1 0.285611 0.714337 4.74136e-05
73 1 0.14275 0.714339 2.43311e-05
63 1 0.428444 0.57141 4.51077e-06
61 1 0.285581 0.571447 0.000107319
59 1 0.14273 0.571484 5.34754e-05
379 1 0.0713232 0.785782 0.499952
357 1 0.928567 0.21423 0.49996
388 1 0.357027 0.928646 0.499975
49 1 0.428434 0.42849 0.000121804
47 1 0.285573 0.42855 0.000151328
45 1 0.142723 0.428592 8.08149e-05
362 1 0.643403 0.356776 0.499719
363 1 0.785912 0.356976 0.499945
35 1 0.428483 0.285648 0.000100258
33 1 0.28557 0.285642 0.000165194
31 1 0.142746 0.285723 0.000103522
364 1 0.928616 0.357045 0.499963
351 1 0.0713993 0.214249 0.499997
21 1 0.428533 0.142796 4.51011e-05
19 1 0.285647 0.142825 8.53243e-05
17 1 0.142774 0.142837 6.90238e-05
371 1 0.928616 0.499973 0.499906
5 1 0.285668 3.01109e-06 1.70292e-05
3 1 0.142823 2.35498e-05 1.77417e-05
345 1 0.214217 0.0714456 0.499991
385 1 0.928598 0.785796 0.499934
87 1 0.142795 0.857213 1.91091e-05
354 1 0.49996 0.213995 0.499998
373 1 0.214051 0.642903 0.50002
97 1 0.857141 0.857219 0.999894
690 3 0.584171 0.580873 0.535493
689 3 0.526716 0.545502 0.500109
688 3 0.477447 0.499652 0.530402
77 1 0.428474 0.714282 0.999968
55 1 0.857079 0.428573 0.999857
353 1 0.357133 0.214293 0.500051
53 1 0.714224 0.428531 0.999866
687 3 0.578216 0.582907 0.604154
686 3 0.541599 0.527526 0.568972
684 1 0.78568 0.928584 0.928497
683 1 0.714188 0.857111 0.857038
51 1 0.57132 0.428514 0.999905
41 1 0.857127 0.285701 0.999895
359 1 0.21421 0.357143 0.500092
360 1 0.357219 0.357255 0.500317
682 1 0.642799 0.928536 0.928494
37 1 0.571376 0.285632 0.999976
29 1 0.999943 0.28573 0.999996
23 1 0.571416 0.142808 0.999974
661 1 0.142627 0.714341 0.857224
681 1 0.571343 0.857048 0.857037
680 1 0.499954 0.928518 0.928519
368 1 0.928549 0.928617 0.928534
679 1 0.428513 0.857077 0.857105
678 1 0.357094 0.928542 0.928564
660 1 0.0713126 0.785759 0.928572
677 1 0.285593 0.857175 0.857183
676 1 0.214209 0.928605 0.928609
675 1 0.142723 0.857203 0.857178
674 1 0.0713632 0.928618 0.928574
673 1 0.999917 0.857193 0.857137
672 1 0.928507 0.785752 0.928503
671 1 0.857031 0.714298 0.857064
659 1 0.999832 0.714317 0.857126
658 1 0.92844 0.64289 0.928492
670 1 0.785674 0.785773 0.928486
669 1 0.714245 0.714369 0.857111
668 1 0.642745 0.785679 0.928411
667 1 0.571272 0.714165 0.856908
666 1 0.499921 0.785676 0.928461
657 1 0.856944 0.571433 0.857026
656 1 0.785591 0.642836 0.92841
655 1 0.714065 0.571387 0.856925
665 1 0.428397 0.714284 0.857158
664 1 0.357047 0.785735 0.928581
663 1 0.285397 0.71443 0.857348
662 1 0.214129 0.785797 0.928646
393 1 0.999941 1.29612e-06 0.571402
394 1 0.0713452 0.0714086 0.642849
395 1 0.142771 7.69728e-06 0.571416
396 1 0.21415 0.0713706 0.642863
397 1 0.285607 8.54755e-06 0.571415
398 1 0.357022 0.0713015 0.642876
399 1 0.428467 0.999949 0.571423
400 1 0.499887 0.0712654 0.64286
401 1 0.571342 0.999953 0.571389
402 1 0.642785 0.0712752 0.642832
403 1 0.714235 0.999955 0.571374
404 1 0.785668 0.0713706 0.642816
405 1 0.857131 7.99317e-06 0.571385
406 1 0.928508 0.0714 0.642828
407 1 0.999937 0.14283 0.571417
408 1 0.0712847 0.214217 0.642863
409 1 0.14276 0.142835 0.571424
410 1 0.214095 0.214176 0.642903
411 1 0.285606 0.142787 0.571421
412 1 0.356884 0.21398 0.642979
413 1 0.428452 0.142722 0.571455
414 1 0.499888 0.214031 0.642929
415 1 0.571372 0.142653 0.571424
416 1 0.642877 0.213948 0.642914
417 1 0.714265 0.142718 0.571371
418 1 0.785671 0.214141 0.642822
419 1 0.857119 0.142768 0.571394
420 1 0.928502 0.214217 0.642828
421 1 0.999916 0.285656 0.571409
422 1 0.0712013 0.357085 0.642889
423 1 0.142716 0.285646 0.571441
424 1 0.213889 0.356938 0.643007
425 1 0.285532 0.285584 0.571511
426 1 0.356365 0.356417 0.643401
427 1 0.4284 0.285499 0.57175
428 1 0.499701 0.356761 0.643503
429 1 0.571545 0.285279 0.571655
430 1 0.64339 0.356399 0.643253
431 1 0.714358 0.285459 0.571368
432 1 0.785734 0.357006 0.642803
433 1 0.857151 0.285591 0.571371
434 1 0.928437 0.357088 0.64281
435 1 0.999875 0.428527 0.571421
436 1 0.0711495 0.499961 0.642882
437 1 0.142619 0.428492 0.571504
438 1 0.213887 0.499963 0.642995
439 1 0.285445 0.428388 0.571824
440 1 0.35646 0.499505 0.643664
441 1 0.427413 0.426849 0.573687
442 1 0.496814 0.497421 0.652516
443 1 0.572832 0.423918 0.572483
444 1 0.643021 0.498869 0.642763
445 1 0.714195 0.42832 0.571396
446 1 0.785353 0.499951 0.642598
447 1 0.857071 0.428545 0.571345
448 1 0.928358 0.499976 0.642782
449 1 0.999861 0.571419 0.571395
450 1 0.0711579 0.642893 0.64288
451 1 0.142575 0.571476 0.571503
452 1 0.213702 0.642999 0.643024
453 1 0.285299 0.571695 0.571836
454 1 0.355727 0.643984 0.643941
455 1 0.422145 0.574109 0.573835
456 1 0.498465 0.642415 0.642534
457 1 0.857109 0.857195 0.85711
458 1 0.64476 0.644621 0.643499
459 1 0.715269 0.571596 0.570941
460 1 0.785811 0.642992 0.64271
461 1 0.857185 0.571429 0.571274
462 1 0.928451 0.64288 0.642813
463 1 0.999892 0.714319 0.571377
464 1 0.0712577 0.785761 0.642857
465 1 0.14261 0.714359 0.571415
466 1 0.21401 0.785823 0.64289
467 1 0.285316 0.714485 0.571424
468 1 0.356792 0.785995 0.642986
469 1 0.427938 0.714574 0.571777
470 1 0.499859 0.785332 0.642665
471 1 0.571635 0.71543 0.571098
472 1 0.642945 0.785851 0.642742
473 1 0.714473 0.714526 0.570975
474 1 0.785723 0.785805 0.642741
475 1 0.857172 0.714369 0.571285
476 1 0.928486 0.785754 0.642801
477 1 0.999932 0.857193 0.571398
478 1 0.0713322 0.9286 0.642845
479 1 0.142712 0.857197 0.571403
480 1 0.21414 0.928601 0.642849
481 1 0.28551 0.857238 0.571407
482 1 0.357014 0.928576 0.642869
483 1 0.428487 0.857168 0.571413
484 1 0.499893 0.928428 0.642816
485 1 0.571344 0.857231 0.571309
486 1 0.642791 0.928545 0.642812
487 1 0.71429 0.857236 0.571281
488 1 0.785667 0.928583 0.642811
489 1 0.857136 0.857207 0.571374
490 1 0.928523 0.928604 0.642825
491 1 0.999917 1.44213e-06 0.714268
492 1 0.0713362 0.0714081 0.785724
493 1 0.142747 0.999988 0.714285
494 1 0.214135 0.0713532 0.785775
495 1 0.285576 0.999947 0.714312
496 1 0.357022 0.071281 0.785768
497 1 0.42847 0.999864 0.714287
498 1 0.499904 0.0712598 0.78574
499 1 0.571332 0.999845 0.714261
500 1 0.642777 0.0712905 0.7857
501 1 0.714221 0.999927 0.71426
502 1 0.78568 0.0713539 0.785701
503 1 0.857095 0.999994 0.714261
504 1 0.928514 0.071407 0.78569
505 1 0.999898 0.142831 0.714271
506 1 0.0712385 0.214222 0.785752
507 1 0.1427 0.14278 0.714313
508 1 0.214013 0.214102 0.78587
509 1 0.285524 0.142672 0.714368
510 1 0.356854 0.21392 0.785925
511 1 0.428413 0.142596 0.714371
512 1 0.499872 0.214016 0.785826
513 1 0.57133 0.142633 0.714309
514 1 0.64278 0.21406 0.785742
515 1 0.71425 0.14269 0.714278
516 1 0.785686 0.214153 0.785717
517 1 0.857074 0.142788 0.714253
518 1 0.928477 0.21425 0.785691
519 1 0.999813 0.285651 0.714296
520 1 0.0711597 0.357084 0.785782
521 1 0.142573 0.285593 0.714382
522 1 0.213777 0.356931 0.785978
523 1 0.285253 0.285335 0.714538
524 1 0.356324 0.356437 0.78647
525 1 0.428224 0.285114 0.714602
526 1 0.499801 0.356755 0.785989
527 1 0.571351 0.285309 0.714379
528 1 0.642951 0.356764 0.785921
529 1 0.714375 0.285389 0.714389
530 1 0.785628 0.357065 0.785665
531 1 0.857065 0.28563 0.714263
532 1 0.928383 0.357123 0.785679
533 1 0.999771 0.428557 0.714281
534 1 0.0711076 0.49998 0.785765
535 1 0.142448 0.428484 0.714414
536 1 0.213836 0.499948 0.785938
537 1 0.284931 0.428253 0.714714
538 1 0.356519 0.499873 0.786143
539 1 0.426494 0.426619 0.716076
540 1 0.499318 0.499489 0.78535
541 1 0.572078 0.427628 0.71453
542 1 0.642794 0.499694 0.785554
543 1 0.714287 0.428432 0.714186
544 1 0.785477 0.500014 0.78552
545 1 0.856949 0.428562 0.714172
546 1 0.928346 0.500001 0.785656
547 1 0.999742 0.571418 0.714285
548 1 0.0711452 0.642874 0.785737
549 1 0.142471 0.571424 0.714384
550 1 0.213876 0.64292 0.785881
551 1 0.285042 0.571428 0.71457
552 1 0.356513 0.643166 0.7862
553 1 0.427157 0.572277 0.714991
554 1 0.499579 0.642867 0.785546
555 1 0.571495 0.571509 0.716807
556 1 0.643001 0.643096 0.785707
557 1 0.713869 0.571289 0.71378
558 1 0.785531 0.642806 0.785523
559 1 0.856873 0.571396 0.714116
560 1 0.928371 0.642851 0.785646
561 1 0.999817 0.714319 0.714279
562 1 0.0712495 0.785785 0.785748
563 1 0.142504 0.714373 0.714372
564 1 0.213999 0.78586 0.785851
565 1 0.285099 0.714658 0.714674
566 1 0.356964 0.785764 0.785768
567 1 0.42836 0.714333 0.714282
568 1 0.499945 0.785574 0.785563
569 1 0.571135 0.713728 0.713662
570 1 0.642665 0.7856 0.785493
571 1 0.714577 0.714659 0.714445
572 1 0.785715 0.785829 0.785739
573 1 0.857124 0.714356 0.714237
574 1 0.928491 0.785772 0.785704
575 1 0.999907 0.85718 0.714284
576 1 0.0713294 0.928594 0.785701
577 1 0.142685 0.8572 0.714307
578 1 0.214145 0.928595 0.785751
579 1 0.285494 0.857259 0.714366
580 1 0.357052 0.928505 0.785716
581 1 0.428488 0.857066 0.714224
582 1 0.499936 0.928442 0.785671
583 1 0.571304 0.85693 0.714119
584 1 0.64275 0.928473 0.785629
585 1 0.714267 0.857233 0.714253
586 1 0.785677 0.928584 0.785685
587 1 0.857089 0.857186 0.71426
588 1 0.928508 0.928605 0.785695
589 1 0.999947 2.56504e-05 0.85713
590 1 0.0713619 0.0714387 0.928576
591 1 0.142762 6.2062e-06 0.857183
592 1 0.214189 0.0713781 0.928639
593 1 0.285617 0.99994 0.857189
594 1 0.357067 0.0713559 0.92862
595 1 0.428502 0.999908 0.857151
596 1 0.499938 0.0713412 0.928578
597 1 0.571358 0.999907 0.857108
598 1 0.642834 0.0713646 0.928527
599 1 0.714235 0.999955 0.857092
600 1 0.78569 0.0714019 0.928509
601 1 0.857106 9.07437e-06 0.857095
602 1 0.928558 0.0714364 0.928527
603 1 0.999915 0.142833 0.857146
604 1 0.0712912 0.214251 0.928635
605 1 0.142702 0.142788 0.857214
606 1 0.214115 0.214179 0.928722
607 1 0.285545 0.14271 0.857274
608 1 0.356995 0.214158 0.928721
609 1 0.428448 0.142689 0.857218
610 1 0.499929 0.214172 0.928624
611 1 0.571369 0.14272 0.857167
612 1 0.64281 0.214186 0.928547
613 1 0.714236 0.142746 0.857123
614 1 0.78571 0.214216 0.928531
615 1 0.857098 0.142814 0.857118
616 1 0.92852 0.214268 0.928546
617 1 0.999833 0.285686 0.857149
618 1 0.0712699 0.357155 0.928637
619 1 0.142597 0.28563 0.857283
620 1 0.21405 0.357071 0.928756
621 1 0.285281 0.285381 0.857518
622 1 0.356892 0.356982 0.928884
623 1 0.428391 0.285462 0.857345
624 1 0.499865 0.35699 0.928667
625 1 0.571325 0.285508 0.857221
626 1 0.642749 0.357066 0.928519
627 1 0.714267 0.285565 0.857171
628 1 0.785639 0.357107 0.928473
629 1 0.85706 0.285682 0.857097
630 1 0.928451 0.357151 0.928522
631 1 0.999775 0.428585 0.857134
632 1 0.0712392 0.500022 0.928624
633 1 0.142562 0.428521 0.857271
634 1 0.214054 0.500003 0.928699
635 1 0.285307 0.428464 0.857427
636 1 0.356869 0.499969 0.928759
637 1 0.42818 0.42831 0.857536
638 1 0.4998 0.49989 0.928532
639 1 0.571227 0.428503 0.857091
640 1 0.642713 0.499922 0.928456
641 1 0.714156 0.428493 0.857056
642 1 0.785575 0.500007 0.928411
643 1 0.856973 0.428579 0.857051
644 1 0.928414 0.500021 0.928496
645 1 0.999779 0.571448 0.857121
646 1 0.0712785 0.642907 0.928598
647 1 0.142582 0.571449 0.857248
648 1 0.214081 0.642895 0.928667
649 1 0.285347 0.571425 0.857362
650 1 0.356956 0.642859 0.928683
651 1 0.428334 0.571347 0.857242
652 1 0.499815 0.642828 0.928524
653 1 0.57116 0.571278 0.857334
654 1 0.642741 0.642843 0.928457
1 1 0.999983 3.50809e-05 0.999959
9 1 0.571419 0.999972 0.999941
11 1 0.714285 0.999993 0.999912
13 1 0.857152 1.55447e-05 0.999929
25 1 0.71429 0.142825 0.999925
95 1 0.714257 0.857164 0.999853
27 1 0.857164 0.142849 0.999939
39 1 0.714266 0.285658 0.999897
43 1 0.999913 0.428616 0.999981
57 1 0.999915 0.57147 0.999955
65 1 0.571291 0.571388 0.999908
67 1 0.714193 0.571417 0.999797
69 1 0.857064 0.571453 0.999843
71 1 0.999945 0.714337 0.999941
79 1 0.571325 0.714269 0.999844
81 1 0.714231 0.71431 0.999824
83 1 0.85709 0.714322 0.999851
85 1 0.999964 0.857203 0.999945
93 1 0.571375 0.857136 0.999873
367 1 0.354841 0.499908 0.500113
366 1 0.213846 0.500019 0.500114
361 1 0.500016 0.355333 0.50023
91 1 0.428528 0.857147 0.999936
7 1 0.428545 0.999981 0.999982
352 1 0.214218 0.214258 0.500002
365 1 0.0712978 0.499984 0.5
15 1 0.999975 0.142867 0.999978
358 1 0.0713773 0.357117 0.50001
89 1 0.285653 0.857182 0.999995
