ITEM: TIMESTEP
120
ITEM: NUMBER OF ATOMS
694
ITEM: BOX BOUNDS pp pp pp
-1.8038484676887526e-02 2.2027585481532689e+01
-1.3907973664761101e-02 2.2023454970520540e+01
-9.1948551647410594e-03 2.2018741852020526e+01
ITEM: ATOMS id type xs ys zs
1 1 1.31802e-10 1.32392e-10 1.32131e-10
2 1 0.0714286 0.0714286 0.0714286
3 1 0.142857 1.31678e-10 1.34903e-10
4 1 0.214286 0.0714286 0.0714286
5 1 0.285714 1.3604e-10 1.12053e-10
6 1 0.357143 0.0714286 0.0714286
7 1 0.428571 1.59044e-10 1.58636e-10
8 1 0.5 0.0714286 0.0714286
9 1 0.571429 1.03911e-10 1.93226e-10
10 1 0.642857 0.0714286 0.0714286
11 1 0.714286 1.29687e-10 1.04287e-10
12 1 0.785714 0.0714286 0.0714286
13 1 0.857143 1.34948e-10 1.3554e-10
14 1 0.928571 0.0714286 0.0714286
15 1 1.29938e-10 0.142857 1.35572e-10
16 1 0.0714286 0.214286 0.0714286
17 1 0.142857 0.142857 1.68363e-10
18 1 0.214286 0.214286 0.0714286
19 1 0.285714 0.142857 -1.83453e-10
20 1 0.357143 0.214286 0.0714286
21 1 0.428571 0.142857 5.26235e-10
22 1 0.5 0.214286 0.0714286
23 1 0.571429 0.142857 1.11193e-10
24 1 0.642857 0.214286 0.0714285
25 1 0.714286 0.142857 -6.72052e-10
26 1 0.785714 0.214286 0.0714286
27 1 0.857143 0.142857 2.23697e-10
28 1 0.928571 0.214286 0.0714286
29 1 1.45463e-10 0.285714 1.26787e-10
30 1 0.0714286 0.357143 0.0714286
31 1 0.142857 0.285714 2.65106e-10
32 1 0.214286 0.357143 0.0714286
33 1 0.285714 0.285714 5.49103e-09
34 1 0.357143 0.357143 0.0714287
35 1 0.428571 0.285714 -2.45238e-08
36 1 0.5 0.357143 0.0714282
37 1 0.571429 0.285714 -7.78929e-08
38 1 0.642857 0.357143 0.0714293
39 1 0.714286 0.285714 1.7973e-08
40 1 0.785714 0.357143 0.0714285
41 1 0.857143 0.285714 -2.89908e-10
42 1 0.928571 0.357143 0.0714286
43 1 1.11627e-10 0.428571 1.31783e-10
44 1 0.0714286 0.5 0.0714286
45 1 0.142857 0.428571 -6.71597e-10
46 1 0.214286 0.5 0.0714285
47 1 0.285714 0.428571 1.08118e-08
48 1 0.357143 0.5 0.0714296
49 1 0.428571 0.428571 1.39865e-07
50 1 0.5 0.5 0.0714251
51 1 0.571429 0.428571 4.81876e-07
52 1 0.642857 0.5 0.0714279
53 1 0.714286 0.428571 -2.87142e-08
54 1 0.785714 0.5 0.0714286
55 1 0.857143 0.428571 7.88417e-10
56 1 0.928571 0.5 0.0714286
57 1 1.0899e-10 0.571429 1.46174e-10
58 1 0.0714286 0.642857 0.0714286
59 1 0.142857 0.571429 -6.84894e-10
60 1 0.214286 0.642857 0.0714286
61 1 0.285714 0.571429 3.05438e-08
62 1 0.357143 0.642857 0.0714288
63 1 0.428571 0.571429 -2.56177e-07
64 1 0.5 0.642857 0.0714272
65 1 0.571429 0.571429 1.2101e-08
66 1 0.642857 0.642857 0.0714287
67 1 0.714286 0.571429 -2.03547e-08
68 1 0.785714 0.642857 0.0714286
69 1 0.857143 0.571429 8.57983e-10
70 1 0.928571 0.642857 0.0714286
71 1 1.39755e-10 0.714286 1.24226e-10
72 1 0.0714286 0.785714 0.0714286
73 1 0.142857 0.714286 7.45747e-11
74 1 0.214286 0.785714 0.0714286
75 1 0.285714 0.714286 8.08828e-09
76 1 0.357143 0.785714 0.0714285
77 1 0.428571 0.714286 -2.28566e-08
78 1 0.5 0.785714 0.0714286
79 1 0.571429 0.714286 -5.6779e-08
80 1 0.642857 0.785714 0.0714285
81 1 0.714286 0.714286 4.18961e-09
82 1 0.785714 0.785714 0.0714286
83 1 0.857143 0.714286 3.1768e-11
84 1 0.928571 0.785714 0.0714286
85 1 1.34409e-10 0.857143 1.35616e-10
86 1 0.0714286 0.928571 0.0714286
87 1 0.142857 0.857143 2.27323e-10
88 1 0.214286 0.928571 0.0714286
89 1 0.285714 0.857143 -9.52577e-10
90 1 0.357143 0.928571 0.0714286
91 1 0.428571 0.857143 8.69397e-10
92 1 0.5 0.928571 0.0714286
93 1 0.571429 0.857143 6.96313e-10
94 1 0.642857 0.928571 0.0714286
95 1 0.714286 0.857143 -2.59442e-10
96 1 0.785714 0.928571 0.0714286
97 1 0.857143 0.857143 1.23125e-10
98 1 0.928571 0.928571 0.0714286
99 1 1.32279e-10 1.32425e-10 0.142857
100 1 0.0714286 0.0714286 0.214286
101 1 0.142857 1.3732e-10 0.142857
102 1 0.214286 0.0714286 0.214286
103 1 0.285714 2.47975e-10 0.142857
104 1 0.357143 0.0714286 0.214286
105 1 0.428571 1.69201e-10 0.142857
106 1 0.5 0.0714286 0.214286
107 1 0.571429 5.83595e-10 0.142857
108 1 0.642857 0.0714286 0.214286
109 1 0.714286 1.92319e-10 0.142857
110 1 0.785714 0.0714286 0.214286
111 1 0.857143 1.24309e-10 0.142857
112 1 0.928571 0.0714286 0.214286
113 1 1.39897e-10 0.142857 0.142857
114 1 0.0714286 0.214286 0.214286
115 1 0.142857 0.142857 0.142857
116 1 0.214286 0.214286 0.214286
117 1 0.285714 0.142857 0.142857
118 1 0.357143 0.214286 0.214286
119 1 0.428571 0.142857 0.142857
120 1 0.5 0.214287 0.214287
121 1 0.571429 0.142857 0.142857
122 1 0.642857 0.214286 0.214286
123 1 0.714286 0.142857 0.142857
124 1 0.785714 0.214286 0.214286
125 1 0.857143 0.142857 0.142857
126 1 0.928571 0.214286 0.214286
127 1 2.05173e-11 0.285714 0.142857
128 1 0.0714286 0.357143 0.214286
129 1 0.142857 0.285714 0.142857
130 1 0.214286 0.357143 0.214286
131 1 0.285714 0.285714 0.142857
132 1 0.357156 0.357141 0.214291
133 1 0.428571 0.285714 0.142856
134 1 0.500004 0.357119 0.214235
135 1 0.571429 0.285714 0.142857
136 1 0.642842 0.357159 0.214302
137 1 0.714285 0.285715 0.142858
138 1 0.785714 0.357143 0.214286
139 1 0.857143 0.285714 0.142857
140 1 0.928571 0.357143 0.214286
141 1 6.18142e-10 0.428571 0.142857
142 1 0.0714286 0.5 0.214286
143 1 0.142857 0.428571 0.142857
144 1 0.214288 0.5 0.214287
145 1 0.285716 0.428572 0.142858
146 1 0.357201 0.500007 0.214344
147 1 0.428582 0.428569 0.14287
148 1 0.499952 0.499973 0.214058
149 1 0.571417 0.428584 0.142896
150 1 0.64289 0.499984 0.214223
151 1 0.714286 0.42857 0.142857
152 1 0.785713 0.5 0.214287
153 1 0.857143 0.428571 0.142857
154 1 0.928571 0.5 0.214286
155 1 7.59757e-10 0.571429 0.142857
156 1 0.0714286 0.642857 0.214286
157 1 0.142857 0.571429 0.142857
158 1 0.214286 0.642857 0.214286
159 1 0.285716 0.571428 0.142859
160 1 0.357168 0.642854 0.214311
161 1 0.428576 0.57143 0.14284
162 1 0.500005 0.642905 0.214195
163 1 0.57143 0.571415 0.142862
164 1 0.642871 0.642857 0.214278
165 1 0.714286 0.571429 0.142857
166 1 0.785714 0.642857 0.214286
167 1 0.857143 0.571429 0.142857
168 1 0.928571 0.642857 0.214286
169 1 2.10107e-10 0.714286 0.142857
170 1 0.0714286 0.785714 0.214286
171 1 0.142857 0.714286 0.142857
172 1 0.214286 0.785714 0.214286
173 1 0.285715 0.714285 0.142858
174 1 0.357143 0.785714 0.214285
175 1 0.42857 0.714287 0.142856
176 1 0.5 0.785715 0.214285
177 1 0.57143 0.714287 0.142856
178 1 0.642857 0.785714 0.214286
179 1 0.714286 0.714286 0.142857
180 1 0.785714 0.785714 0.214286
181 1 0.857143 0.714286 0.142857
182 1 0.928571 0.785714 0.214286
183 1 1.16592e-10 0.857143 0.142857
184 1 0.0714286 0.928571 0.214286
185 1 0.142857 0.857143 0.142857
186 1 0.214286 0.928571 0.214286
187 1 0.285714 0.857143 0.142857
188 1 0.357143 0.928571 0.214286
189 1 0.428571 0.857143 0.142857
190 1 0.5 0.928571 0.214286
191 1 0.571429 0.857143 0.142857
192 1 0.642857 0.928571 0.214286
193 1 0.714286 0.857143 0.142857
194 1 0.785714 0.928571 0.214286
195 1 0.857143 0.857143 0.142857
196 1 0.928571 0.928571 0.214286
197 1 1.30634e-10 1.33e-10 0.285714
198 1 0.0714286 0.0714286 0.357143
199 1 0.142857 1.49928e-10 0.285714
200 1 0.214286 0.0714286 0.357143
201 1 0.285714 2.93521e-10 0.285714
202 1 0.357143 0.0714286 0.357143
203 1 0.428571 4.10967e-09 0.285714
204 1 0.5 0.0714281 0.357143
205 1 0.571429 -1.20775e-09 0.285714
206 1 0.642857 0.0714286 0.357143
207 1 0.714286 1.85038e-11 0.285714
208 1 0.785714 0.0714286 0.357143
209 1 0.857143 1.33027e-10 0.285714
210 1 0.928571 0.0714286 0.357143
211 1 1.25219e-10 0.142857 0.285714
212 1 0.0714286 0.214286 0.357143
213 1 0.142857 0.142857 0.285714
214 1 0.214286 0.214286 0.357143
215 1 0.285714 0.142857 0.285714
216 1 0.357144 0.214286 0.357143
217 1 0.428571 0.142857 0.285714
218 1 0.5 0.214248 0.357141
219 1 0.571429 0.142857 0.285714
220 1 0.642856 0.214286 0.357143
221 1 0.714286 0.142857 0.285714
222 1 0.785714 0.214286 0.357143
223 1 0.857143 0.142857 0.285714
224 1 0.928571 0.214286 0.357143
225 1 1.45276e-10 0.285714 0.285714
226 1 0.0714286 0.357143 0.357143
227 1 0.142857 0.285714 0.285714
228 1 0.214286 0.357144 0.357143
229 1 0.285714 0.285714 0.285714
230 1 0.357137 0.357133 0.357128
231 1 0.428566 0.285725 0.28571
232 1 0.500007 0.354888 0.356526
233 1 0.571434 0.285715 0.285711
234 1 0.642857 0.357144 0.357131
235 1 0.714286 0.285714 0.285714
236 1 0.785714 0.357144 0.357143
237 1 0.857143 0.285714 0.285714
238 1 0.928571 0.357143 0.357143
239 1 4.88097e-10 0.428571 0.285714
240 1 0.0714282 0.5 0.357143
241 1 0.142857 0.428571 0.285714
242 1 0.214256 0.5 0.357142
243 1 0.285704 0.42856 0.285712
244 1 0.355168 0.499928 0.356215
245 1 0.427936 0.428461 0.285167
246 1 0.499663 0.500353 0.353601
247 1 0.57209 0.427921 0.284871
248 1 0.645146 0.500014 0.356487
249 1 0.714285 0.428566 0.285711
250 1 0.785754 0.5 0.357141
251 1 0.857143 0.428571 0.285714
252 1 0.928572 0.5 0.357143
253 1 -1.60156e-09 0.571429 0.285714
254 1 0.0714286 0.642857 0.357143
255 1 0.142857 0.571429 0.285714
256 1 0.214285 0.642856 0.357143
257 1 0.285711 0.571438 0.285721
258 1 0.357045 0.642923 0.35713
259 1 0.427769 0.571513 0.284763
260 1 0.500277 0.644095 0.357309
261 1 0.5723 0.57211 0.284845
262 1 0.64282 0.642839 0.357138
263 1 0.714267 0.571434 0.285715
264 1 0.785713 0.642856 0.357143
265 1 0.857143 0.571429 0.285714
266 1 0.928571 0.642857 0.357143
267 1 -3.40432e-10 0.714286 0.285714
268 1 0.0714286 0.785714 0.357143
269 1 0.142857 0.714286 0.285714
270 1 0.214286 0.785714 0.357143
271 1 0.285713 0.714287 0.285713
272 1 0.357143 0.785715 0.357143
273 1 0.42856 0.7143 0.285705
274 1 0.499999 0.78574 0.357142
275 1 0.571414 0.71428 0.285717
276 1 0.642856 0.785714 0.357143
277 1 0.714285 0.714285 0.285715
278 1 0.785714 0.785714 0.357143
279 1 0.857143 0.714286 0.285714
280 1 0.928571 0.785714 0.357143
281 1 1.3447e-10 0.857143 0.285714
282 1 0.0714286 0.928571 0.357143
283 1 0.142857 0.857143 0.285714
284 1 0.214286 0.928571 0.357143
285 1 0.285714 0.857143 0.285714
286 1 0.357143 0.928571 0.357143
287 1 0.428571 0.857143 0.285714
288 1 0.5 0.928572 0.357143
289 1 0.571429 0.857143 0.285714
290 1 0.642857 0.928571 0.357143
291 1 0.714286 0.857143 0.285714
292 1 0.785714 0.928571 0.357143
293 1 0.857143 0.857143 0.285714
294 1 0.928571 0.928571 0.357143
295 1 1.30048e-10 1.32787e-10 0.428571
296 1 0.0714286 0.0714286 0.5
297 1 0.142857 8.22822e-11 0.428571
298 1 0.214286 0.0714286 0.5
299 1 0.285714 9.81301e-10 0.428571
300 1 0.357143 0.0714286 0.5
301 1 0.428571 -5.69442e-09 0.428571
302 1 0.5 0.0714286 0.5
303 1 0.571429 -8.44011e-09 0.428571
304 1 0.642857 0.0714286 0.5
305 1 0.714286 4.06825e-10 0.428571
306 1 0.785714 0.0714286 0.5
307 1 0.857143 9.81407e-11 0.428571
308 1 0.928571 0.0714286 0.5
309 1 1.16147e-10 0.142857 0.428571
310 1 0.0714286 0.214286 0.5
311 1 0.142857 0.142857 0.428571
312 1 0.214286 0.214286 0.5
313 1 0.285714 0.142857 0.428571
314 1 0.357143 0.214286 0.5
315 1 0.428571 0.142857 0.428572
316 1 0.5 0.214285 0.5
317 1 0.571429 0.142857 0.428572
318 1 0.642857 0.214286 0.5
319 1 0.714286 0.142857 0.428571
320 1 0.785714 0.214286 0.5
321 1 0.857143 0.142857 0.428571
322 1 0.928571 0.214286 0.5
323 1 2.24743e-10 0.285714 0.428571
324 1 0.0714286 0.357143 0.5
325 1 0.142857 0.285714 0.428571
326 1 0.214285 0.357143 0.5
327 1 0.285716 0.285716 0.428571
328 1 0.357134 0.357135 0.500009
329 1 0.428568 0.285703 0.428569
330 1 0.499999 0.35709 0.500107
331 1 0.571432 0.285702 0.428569
332 1 0.642866 0.357134 0.50001
333 1 0.714284 0.285716 0.428571
334 1 0.785714 0.357143 0.5
335 1 0.857143 0.285714 0.428571
336 1 0.928571 0.357143 0.5
337 1 -2.08167e-09 0.428571 0.428571
338 1 0.0714286 0.5 0.5
339 1 0.142856 0.428571 0.428572
340 1 0.214284 0.5 0.5
341 1 0.28568 0.428562 0.428582
342 1 0.357034 0.499988 0.500159
343 1 0.426644 0.426661 0.43041
344 1 0.500026 0.499223 0.502081
345 1 0.573347 0.426645 0.430486
346 1 0.642944 0.499999 0.500128
347 1 0.714298 0.428567 0.428569
348 1 0.785715 0.5 0.5
349 1 0.857143 0.428571 0.428572
350 1 0.928571 0.5 0.5
351 1 -3.40166e-09 0.571429 0.428571
352 1 0.0714286 0.642857 0.5
353 1 0.142856 0.571429 0.428572
354 1 0.214285 0.642857 0.5
355 1 0.285674 0.571435 0.428578
356 1 0.357123 0.64287 0.500025
357 1 0.426501 0.573957 0.430174
358 1 0.500008 0.642969 0.500064
359 1 0.573334 0.574076 0.429694
360 1 0.642867 0.642859 0.500017
361 1 0.714298 0.571433 0.428569
362 1 0.785714 0.642857 0.5
363 1 0.857143 0.571429 0.428572
364 1 0.928571 0.642857 0.5
365 1 -4.77274e-10 0.714286 0.428571
366 1 0.0714286 0.785714 0.5
367 1 0.142857 0.714286 0.428571
368 1 0.214286 0.785714 0.5
369 1 0.285715 0.714285 0.428573
370 1 0.357143 0.785714 0.5
371 1 0.428588 0.714268 0.428552
372 1 0.5 0.785716 0.5
373 1 0.571402 0.714257 0.428558
374 1 0.642857 0.785714 0.499999
375 1 0.714283 0.714283 0.428571
376 1 0.785714 0.785714 0.5
377 1 0.857143 0.714286 0.428571
378 1 0.928571 0.785714 0.5
379 1 1.41849e-10 0.857143 0.428571
380 1 0.0714286 0.928571 0.5
381 1 0.142857 0.857143 0.428571
382 1 0.214286 0.928571 0.5
383 1 0.285714 0.857143 0.428571
384 1 0.357143 0.928571 0.5
385 1 0.428571 0.857143 0.428572
386 1 0.5 0.928571 0.5
387 1 0.571429 0.857143 0.428572
388 1 0.642857 0.928571 0.5
389 1 0.714286 0.857143 0.428571
390 1 0.785714 0.928571 0.5
391 1 0.857143 0.857143 0.428571
392 1 0.928571 0.928571 0.5
393 1 1.3224e-10 1.325e-10 0.571429
394 1 0.0714286 0.0714286 0.642857
395 1 0.142857 1.49234e-10 0.571429
396 1 0.214286 0.0714286 0.642857
397 1 0.285714 -7.28472e-11 0.571429
398 1 0.357143 0.0714286 0.642857
399 1 0.428571 7.12203e-10 0.571429
400 1 0.5 0.0714286 0.642857
401 1 0.571429 7.96161e-10 0.571429
402 1 0.642857 0.0714286 0.642857
403 1 0.714286 -1.68721e-10 0.571429
404 1 0.785714 0.0714286 0.642857
405 1 0.857143 1.39344e-10 0.571429
406 1 0.928571 0.0714286 0.642857
407 1 1.35623e-10 0.142857 0.571429
408 1 0.0714286 0.214286 0.642857
409 1 0.142857 0.142857 0.571429
410 1 0.214286 0.214286 0.642857
411 1 0.285714 0.142857 0.571429
412 1 0.357143 0.214286 0.642857
413 1 0.428571 0.142857 0.571429
414 1 0.5 0.214286 0.642857
415 1 0.571429 0.142857 0.571429
416 1 0.642857 0.214286 0.642857
417 1 0.714286 0.142857 0.571429
418 1 0.785714 0.214286 0.642857
419 1 0.857143 0.142857 0.571429
420 1 0.928571 0.214286 0.642857
421 1 1.6918e-11 0.285714 0.571429
422 1 0.0714286 0.357143 0.642857
423 1 0.142857 0.285714 0.571429
424 1 0.214286 0.357143 0.642857
425 1 0.285714 0.285714 0.571429
426 1 0.357143 0.357143 0.642857
427 1 0.42857 0.285715 0.571428
428 1 0.5 0.357145 0.642856
429 1 0.57143 0.285715 0.571428
430 1 0.642857 0.357143 0.642857
431 1 0.714286 0.285714 0.571429
432 1 0.785714 0.357143 0.642857
433 1 0.857143 0.285714 0.571429
434 1 0.928571 0.357143 0.642857
435 1 2.6407e-11 0.428571 0.571429
436 1 0.0714286 0.5 0.642857
437 1 0.142857 0.428571 0.571429
438 1 0.214286 0.5 0.642857
439 1 0.285714 0.428569 0.571429
440 1 0.357144 0.5 0.642858
441 1 0.428574 0.42858 0.571387
442 1 0.5 0.5 0.642888
443 1 0.571427 0.42858 0.571388
444 1 0.642856 0.5 0.642857
445 1 0.714285 0.42857 0.571428
446 1 0.785714 0.5 0.642857
447 1 0.857143 0.428571 0.571429
448 1 0.928571 0.5 0.642857
449 1 -2.12993e-12 0.571429 0.571429
450 1 0.0714286 0.642857 0.642857
451 1 0.142857 0.571429 0.571429
452 1 0.214286 0.642857 0.642857
453 1 0.285714 0.57143 0.571429
454 1 0.357143 0.642857 0.642857
455 1 0.428567 0.571427 0.571411
456 1 0.5 0.642856 0.642857
457 1 0.571438 0.571428 0.571418
458 1 0.642857 0.642857 0.642857
459 1 0.714286 0.57143 0.571428
460 1 0.785714 0.642857 0.642857
461 1 0.857143 0.571429 0.571429
462 1 0.928571 0.642857 0.642857
463 1 -7.80003e-12 0.714286 0.571429
464 1 0.0714286 0.785714 0.642857
465 1 0.142857 0.714286 0.571429
466 1 0.214286 0.785714 0.642857
467 1 0.285714 0.714286 0.571429
468 1 0.357143 0.785714 0.642857
469 1 0.42857 0.714285 0.571428
470 1 0.5 0.785714 0.642857
471 1 0.57143 0.714285 0.571428
472 1 0.642857 0.785714 0.642857
473 1 0.714286 0.714286 0.571429
474 1 0.785714 0.785714 0.642857
475 1 0.857143 0.714286 0.571429
476 1 0.928571 0.785714 0.642857
477 1 1.22503e-10 0.857143 0.571429
478 1 0.0714286 0.928571 0.642857
479 1 0.142857 0.857143 0.571429
480 1 0.214286 0.928571 0.642857
481 1 0.285714 0.857143 0.571429
482 1 0.357143 0.928571 0.642857
483 1 0.428571 0.857143 0.571429
484 1 0.5 0.928571 0.642857
485 1 0.571429 0.857143 0.571429
486 1 0.642857 0.928571 0.642857
487 1 0.714286 0.857143 0.571429
488 1 0.785714 0.928571 0.642857
489 1 0.857143 0.857143 0.571429
490 1 0.928571 0.928571 0.642857
491 1 1.31811e-10 1.32376e-10 0.714286
492 1 0.0714286 0.0714286 0.785714
493 1 0.142857 1.31767e-10 0.714286
494 1 0.214286 0.0714286 0.785714
495 1 0.285714 1.46705e-10 0.714286
496 1 0.357143 0.0714286 0.785714
497 1 0.428571 7.78024e-11 0.714286
498 1 0.5 0.0714286 0.785714
499 1 0.571429 6.96967e-11 0.714286
500 1 0.642857 0.0714286 0.785714
501 1 0.714286 1.49504e-10 0.714286
502 1 0.785714 0.0714286 0.785714
503 1 0.857143 1.30802e-10 0.714286
504 1 0.928571 0.0714286 0.785714
505 1 1.31303e-10 0.142857 0.714286
506 1 0.0714286 0.214286 0.785714
507 1 0.142857 0.142857 0.714286
508 1 0.214286 0.214286 0.785714
509 1 0.285714 0.142857 0.714286
510 1 0.357143 0.214286 0.785714
511 1 0.428571 0.142857 0.714286
512 1 0.5 0.214286 0.785714
513 1 0.571429 0.142857 0.714286
514 1 0.642857 0.214286 0.785714
515 1 0.714286 0.142857 0.714286
516 1 0.785714 0.214286 0.785714
517 1 0.857143 0.142857 0.714286
518 1 0.928571 0.214286 0.785714
519 1 1.33356e-10 0.285714 0.714286
520 1 0.0714286 0.357143 0.785714
521 1 0.142857 0.285714 0.714286
522 1 0.214286 0.357143 0.785714
523 1 0.285714 0.285714 0.714286
524 1 0.357143 0.357143 0.785714
525 1 0.428571 0.285714 0.714286
526 1 0.5 0.357143 0.785714
527 1 0.571429 0.285714 0.714286
528 1 0.642857 0.357143 0.785714
529 1 0.714286 0.285714 0.714286
530 1 0.785714 0.357143 0.785714
531 1 0.857143 0.285714 0.714286
532 1 0.928571 0.357143 0.785714
533 1 1.15292e-10 0.428571 0.714286
534 1 0.0714286 0.5 0.785714
535 1 0.142857 0.428571 0.714286
536 1 0.214286 0.5 0.785714
537 1 0.285714 0.428571 0.714286
538 1 0.357143 0.5 0.785714
539 1 0.428571 0.428571 0.714285
540 1 0.5 0.5 0.785715
541 1 0.571429 0.428571 0.714285
542 1 0.642857 0.5 0.785714
543 1 0.714286 0.428571 0.714286
544 1 0.785714 0.5 0.785714
545 1 0.857143 0.428571 0.714286
546 1 0.928571 0.5 0.785714
547 1 1.16712e-10 0.571429 0.714286
548 1 0.0714286 0.642857 0.785714
549 1 0.142857 0.571429 0.714286
550 1 0.214286 0.642857 0.785714
551 1 0.285714 0.571429 0.714286
552 1 0.357143 0.642857 0.785714
553 1 0.428571 0.571429 0.714286
554 1 0.5 0.642857 0.785714
555 1 0.571429 0.571429 0.714286
556 1 0.642857 0.642857 0.785714
557 1 0.714286 0.571429 0.714286
558 1 0.785714 0.642857 0.785714
559 1 0.857143 0.571429 0.714286
560 1 0.928571 0.642857 0.785714
561 1 1.31641e-10 0.714286 0.714286
562 1 0.0714286 0.785714 0.785714
563 1 0.142857 0.714286 0.714286
564 1 0.214286 0.785714 0.785714
565 1 0.285714 0.714286 0.714286
566 1 0.357143 0.785714 0.785714
567 1 0.428571 0.714286 0.714286
568 1 0.5 0.785714 0.785714
569 1 0.571429 0.714286 0.714286
570 1 0.642857 0.785714 0.785714
571 1 0.714286 0.714286 0.714286
572 1 0.785714 0.785714 0.785714
573 1 0.857143 0.714286 0.714286
574 1 0.928571 0.785714 0.785714
575 1 1.30744e-10 0.857143 0.714286
576 1 0.0714286 0.928571 0.785714
577 1 0.142857 0.857143 0.714286
578 1 0.214286 0.928571 0.785714
579 1 0.285714 0.857143 0.714286
580 1 0.357143 0.928571 0.785714
581 1 0.428571 0.857143 0.714286
582 1 0.5 0.928571 0.785714
583 1 0.571429 0.857143 0.714286
584 1 0.642857 0.928571 0.785714
585 1 0.714286 0.857143 0.714286
586 1 0.785714 0.928571 0.785714
587 1 0.857143 0.857143 0.714286
588 1 0.928571 0.928571 0.785714
589 1 1.31898e-10 1.32389e-10 0.857143
590 1 0.0714286 0.0714286 0.928571
591 1 0.142857 1.325e-10 0.857143
592 1 0.214286 0.0714286 0.928571
593 1 0.285714 1.3166e-10 0.857143
594 1 0.357143 0.0714286 0.928571
595 1 0.428571 1.33491e-10 0.857143
596 1 0.5 0.0714286 0.928571
597 1 0.571429 1.33161e-10 0.857143
598 1 0.642857 0.0714286 0.928571
599 1 0.714286 1.32607e-10 0.857143
600 1 0.785714 0.0714286 0.928571
601 1 0.857143 1.32354e-10 0.857143
602 1 0.928571 0.0714286 0.928571
603 1 1.31914e-10 0.142857 0.857143
604 1 0.0714286 0.214286 0.928571
605 1 0.142857 0.142857 0.857143
606 1 0.214286 0.214286 0.928571
607 1 0.285714 0.142857 0.857143
608 1 0.357143 0.214286 0.928571
609 1 0.428571 0.142857 0.857143
610 1 0.5 0.214286 0.928571
611 1 0.571429 0.142857 0.857143
612 1 0.642857 0.214286 0.928571
613 1 0.714286 0.142857 0.857143
614 1 0.785714 0.214286 0.928571
615 1 0.857143 0.142857 0.857143
616 1 0.928571 0.214286 0.928571
617 1 1.31767e-10 0.285714 0.857143
618 1 0.0714286 0.357143 0.928571
619 1 0.142857 0.285714 0.857143
620 1 0.214286 0.357143 0.928571
621 1 0.285714 0.285714 0.857143
622 1 0.357143 0.357143 0.928571
623 1 0.428571 0.285714 0.857143
624 1 0.5 0.357143 0.928571
625 1 0.571429 0.285714 0.857143
626 1 0.642857 0.357143 0.928571
627 1 0.714286 0.285714 0.857143
628 1 0.785714 0.357143 0.928571
629 1 0.857143 0.285714 0.857143
630 1 0.928571 0.357143 0.928571
631 1 1.32756e-10 0.428571 0.857143
632 1 0.0714286 0.5 0.928571
633 1 0.142857 0.428571 0.857143
634 1 0.214286 0.5 0.928571
635 1 0.285714 0.428571 0.857143
636 1 0.357143 0.5 0.928571
637 1 0.428571 0.428571 0.857143
638 1 0.5 0.5 0.928571
639 1 0.571429 0.428571 0.857143
640 1 0.642857 0.5 0.928571
641 1 0.714286 0.428571 0.857143
642 1 0.785714 0.5 0.928571
643 1 0.857143 0.428571 0.857143
644 1 0.928571 0.5 0.928571
645 1 1.32571e-10 0.571429 0.857143
646 1 0.0714286 0.642857 0.928571
647 1 0.142857 0.571429 0.857143
648 1 0.214286 0.642857 0.928571
649 1 0.285714 0.571429 0.857143
650 1 0.357143 0.642857 0.928571
651 1 0.428571 0.571429 0.857143
652 1 0.5 0.642857 0.928571
653 1 0.571429 0.571429 0.857143
654 1 0.642857 0.642857 0.928571
655 1 0.714286 0.571429 0.857143
656 1 0.785714 0.642857 0.928571
657 1 0.857143 0.571429 0.857143
658 1 0.928571 0.642857 0.928571
659 1 1.32096e-10 0.714286 0.857143
660 1 0.0714286 0.785714 0.928571
661 1 0.142857 0.714286 0.857143
662 1 0.214286 0.785714 0.928571
663 1 0.285714 0.714286 0.857143
664 1 0.357143 0.785714 0.928571
665 1 0.428571 0.714286 0.857143
666 1 0.5 0.785714 0.928571
667 1 0.571429 0.714286 0.857143
668 1 0.642857 0.785714 0.928571
669 1 0.714286 0.714286 0.857143
670 1 0.785714 0.785714 0.928571
671 1 0.857143 0.714286 0.857143
672 1 0.928571 0.785714 0.928571
673 1 1.31878e-10 0.857143 0.857143
674 1 0.0714286 0.928571 0.928571
675 1 0.142857 0.857143 0.857143
676 1 0.214286 0.928571 0.928571
677 1 0.285714 0.857143 0.857143
678 1 0.357143 0.928571 0.928571
679 1 0.428571 0.857143 0.857143
680 1 0.5 0.928571 0.928571
681 1 0.571429 0.857143 0.857143
682 1 0.642857 0.928571 0.928571
683 1 0.714286 0.857143 0.857143
684 1 0.785714 0.928571 0.928571
685 1 0.857143 0.857143 0.857143
686 1 0.928571 0.928571 0.928571
687 2 0.503523 0.572091 0.317292
688 2 0.460429 0.572107 0.360393
689 2 0.499947 0.42809 0.320675
690 2 0.571654 0.499938 0.321205
691 3 0.499978 0.428556 0.393475
692 3 0.428217 0.499866 0.393073
693 3 0.500049 0.535839 0.428483
694 3 0.571734 0.499995 0.393256
