ITEM: TIMESTEP
120
ITEM: NUMBER OF ATOMS
690
ITEM: BOX BOUNDS pp pp pp
-7.5772071743247153e-04 2.2010304717573192e+01
-1.5776072350421435e-03 2.2011124604090814e+01
-3.1583122426835507e-03 2.2012705309098461e+01
ITEM: ATOMS id type xs ys zs
1 1 3.59999e-10 1.6969e-09 -6.35905e-10
2 1 0.0714286 0.0714286 0.0714286
3 1 0.142857 4.34126e-09 2.13058e-08
4 1 0.214286 0.0714288 0.0714287
5 1 0.285714 -1.55844e-08 -1.61725e-09
6 1 0.357143 0.0714286 0.0714286
7 1 0.428571 5.51364e-09 -1.34263e-08
8 1 0.5 0.0714287 0.0714286
9 1 0.571429 -4.11926e-09 1.43777e-09
10 1 0.642857 0.0714289 0.0714287
11 1 0.714286 2.11251e-08 -5.29985e-09
12 1 0.785714 0.0714286 0.0714286
13 1 0.857143 -1.64856e-08 2.16815e-08
14 1 0.928571 0.0714286 0.0714286
15 1 6.56479e-09 0.142857 3.93579e-08
16 1 0.071429 0.214286 0.0714289
17 1 0.142857 0.142857 1.45691e-07
18 1 0.214287 0.214287 0.0714302
19 1 0.285714 0.142857 2.80962e-08
20 1 0.357144 0.214286 0.0714301
21 1 0.428572 0.142857 -4.57427e-08
22 1 0.5 0.214287 0.0714306
23 1 0.571429 0.142857 3.02186e-08
24 1 0.642856 0.214288 0.0714292
25 1 0.714286 0.142857 4.07388e-08
26 1 0.785713 0.214287 0.0714295
27 1 0.857143 0.142857 7.4508e-08
28 1 0.928571 0.214286 0.0714289
29 1 -2.19126e-08 0.285714 -3.90001e-08
30 1 0.0714284 0.357143 0.0714285
31 1 0.142857 0.285714 1.1267e-07
32 1 0.214285 0.357142 0.0714311
33 1 0.285713 0.285713 -6.55338e-07
34 1 0.357116 0.357116 0.0713997
35 1 0.428572 0.285716 3.17889e-06
36 1 0.500016 0.357132 0.0714227
37 1 0.57143 0.285714 1
38 1 0.64285 0.357152 0.0714452
39 1 0.714284 0.285716 2.4821e-06
40 1 0.78571 0.357146 0.0714341
41 1 0.857142 0.285715 4.62383e-07
42 1 0.928571 0.357143 0.0714285
43 1 -1.28291e-08 0.428571 4.87593e-10
44 1 0.0714285 0.5 0.0714285
45 1 0.142857 0.428572 1.14191e-07
46 1 0.214287 0.499999 0.071433
47 1 0.285714 0.428571 1.5541e-06
48 1 0.357123 0.500014 0.0714014
49 1 0.428562 0.428561 0.999956
50 1 0.500001 0.500014 0.0711408
51 1 0.571437 0.428562 -4.6256e-06
52 1 0.642834 0.500003 0.0714572
53 1 0.714284 0.428573 1.00001
54 1 0.785708 0.499998 0.0714344
55 1 0.857143 0.428572 2.586e-08
56 1 0.928571 0.5 0.0714286
57 1 7.20887e-09 0.571429 -1.68937e-08
58 1 0.0714284 0.642857 0.0714286
59 1 0.142857 0.571428 3.27468e-07
60 1 0.214284 0.642859 0.0714283
61 1 0.285713 0.57143 -1.15352e-06
62 1 0.357132 0.642869 0.0714236
63 1 0.428562 0.571439 0.999981
64 1 0.500006 0.642854 0.0714411
65 1 0.571439 0.571439 7.62106e-07
66 1 0.642844 0.642843 0.0714596
67 1 0.714284 0.571428 1
68 1 0.785712 0.642856 0.0714289
69 1 0.857143 0.571428 3.14062e-07
70 1 0.928571 0.642857 0.0714289
71 1 -5.50153e-08 0.714286 2.68908e-09
72 1 0.071429 0.785714 0.0714288
73 1 0.142857 0.714286 -8.73365e-08
74 1 0.214288 0.785712 0.0714314
75 1 0.285714 0.714286 1.25032e-06
76 1 0.357143 0.785714 0.0714288
77 1 0.428573 0.714284 3.115e-06
78 1 0.500002 0.78571 0.0714338
79 1 0.571429 0.714285 1
80 1 0.642855 0.785711 0.0714323
81 1 0.714283 0.714283 3.84217e-06
82 1 0.785712 0.785712 0.0714306
83 1 0.857143 0.714286 -6.72267e-08
84 1 0.928571 0.785714 0.0714286
85 1 1.48047e-08 0.857143 2.27593e-08
86 1 0.0714286 0.928571 0.0714286
87 1 0.142857 0.857143 1.8953e-07
88 1 0.214286 0.928571 0.0714287
89 1 0.285714 0.857143 -1.22318e-07
90 1 0.357143 0.928571 0.0714288
91 1 0.428572 0.857143 2.83088e-07
92 1 0.5 0.928571 0.0714286
93 1 0.571429 0.857143 4.13892e-09
94 1 0.642857 0.928571 0.0714286
95 1 0.714286 0.857143 2.44323e-07
96 1 0.785714 0.928571 0.0714288
97 1 0.857143 0.857143 1.46413e-07
98 1 0.928571 0.928571 0.0714286
99 1 -1.90613e-09 -1.83976e-09 0.142857
100 1 0.0714286 0.0714286 0.214286
101 1 0.142857 -2.36481e-08 0.142857
102 1 0.214286 0.0714288 0.214286
103 1 0.285714 -8.84862e-09 0.142857
104 1 0.357141 0.0714276 0.214284
105 1 0.428572 -1.03474e-07 0.142857
106 1 0.5 0.0714296 0.214286
107 1 0.571428 1.39572e-07 0.142857
108 1 0.642859 0.0714259 0.214284
109 1 0.714286 -4.508e-07 0.142857
110 1 0.785714 0.0714288 0.214286
111 1 0.857143 4.63307e-08 0.142857
112 1 0.928571 0.0714286 0.214286
113 1 2.52907e-09 0.142857 0.142857
114 1 0.0714284 0.214286 0.214286
115 1 0.142857 0.142857 0.142857
116 1 0.214287 0.214289 0.214286
117 1 0.285715 0.142859 0.142858
118 1 0.357133 0.214279 0.214276
119 1 0.428572 0.14286 0.142857
120 1 0.499999 0.214285 0.214288
121 1 0.571428 0.14286 0.142857
122 1 0.642879 0.21426 0.214264
123 1 0.714287 0.142857 0.142856
124 1 0.785715 0.214288 0.214285
125 1 0.857143 0.142857 0.142857
126 1 0.928572 0.214286 0.214286
127 1 5.60912e-08 0.285715 0.142857
128 1 0.0714323 0.357144 0.214287
129 1 0.142862 0.285718 0.142861
130 1 0.214318 0.357174 0.214316
131 1 0.285718 0.285718 0.142862
132 1 0.357027 0.357032 0.214126
133 1 0.428578 0.285725 0.142865
134 1 0.500057 0.357088 0.214316
135 1 0.571427 0.285728 0.142854
136 1 0.642914 0.357015 0.214282
137 1 0.714282 0.285719 0.142861
138 1 0.78568 0.357174 0.214318
139 1 0.857138 0.285718 0.142861
140 1 0.928568 0.357144 0.214286
141 1 -4.18598e-08 0.428571 0.142857
142 1 0.0714322 0.5 0.214288
143 1 0.142858 0.428572 0.142858
144 1 0.214303 0.499995 0.214319
145 1 0.285711 0.428566 0.142866
146 1 0.356955 0.500182 0.21413
147 1 0.428444 0.42846 0.142342
148 1 0.500207 0.499918 0.212036
149 1 0.571366 0.428562 0.142781
150 1 0.642878 0.500083 0.214305
151 1 0.714245 0.428574 0.142897
152 1 0.785687 0.499973 0.214309
153 1 0.85714 0.428571 0.142857
154 1 0.928568 0.499998 0.214287
155 1 -3.51843e-07 0.571428 0.142858
156 1 0.0714319 0.642857 0.214286
157 1 0.142858 0.571428 0.142859
158 1 0.214321 0.642834 0.214306
159 1 0.285693 0.571449 0.142842
160 1 0.357264 0.642702 0.214328
161 1 0.428465 0.571521 0.142701
162 1 0.49993 0.642862 0.214336
163 1 0.57135 0.571427 0.142875
164 1 0.642852 0.642775 0.214431
165 1 0.71426 0.571429 0.142867
166 1 0.785728 0.642873 0.214267
167 1 0.857137 0.571425 0.142861
168 1 0.928573 0.642859 0.214284
169 1 4.01498e-07 0.714286 0.142857
170 1 0.0714288 0.785714 0.214286
171 1 0.142862 0.714283 0.14286
172 1 0.214289 0.785709 0.214289
173 1 0.285737 0.714263 0.142882
174 1 0.357135 0.785705 0.214277
175 1 0.428571 0.714276 0.142873
176 1 0.500025 0.78569 0.214308
177 1 0.571432 0.71425 0.142899
178 1 0.642834 0.78568 0.21431
179 1 0.714266 0.714266 0.142876
180 1 0.785715 0.785717 0.214283
181 1 0.857142 0.714287 0.142856
182 1 0.928571 0.785714 0.214286
183 1 3.46779e-09 0.857143 0.142857
184 1 0.0714286 0.928571 0.214286
185 1 0.142857 0.857143 0.142857
186 1 0.214286 0.928571 0.214286
187 1 0.285715 0.857141 0.142857
188 1 0.357142 0.928571 0.214285
189 1 0.428574 0.857138 0.142861
190 1 0.500001 0.928569 0.214287
191 1 0.571429 0.85714 0.142858
192 1 0.642856 0.928568 0.214287
193 1 0.714283 0.857138 0.14286
194 1 0.785714 0.928572 0.214286
195 1 0.857143 0.857143 0.142857
196 1 0.928571 0.928571 0.214286
197 1 1.48618e-09 -1.40171e-09 0.285714
198 1 0.0714285 0.0714286 0.357143
199 1 0.142857 4.42342e-09 0.285714
200 1 0.214286 0.0714286 0.357143
201 1 0.285715 -7.6353e-08 0.285714
202 1 0.357144 0.0714309 0.357143
203 1 0.42857 -1.53555e-06 0.285713
204 1 0.499999 0.0713895 0.357143
205 1 0.57143 0.999996 0.285713
206 1 0.642857 0.0714289 0.357143
207 1 0.714286 1.49374e-07 0.285714
208 1 0.785714 0.0714288 0.357143
209 1 0.857143 1.01458e-08 0.285714
210 1 0.928571 0.0714285 0.357143
211 1 5.2899e-09 0.142857 0.285714
212 1 0.0714286 0.214286 0.357143
213 1 0.142857 0.142857 0.285714
214 1 0.214289 0.21429 0.357141
215 1 0.285715 0.142861 0.285715
216 1 0.357155 0.214299 0.357151
217 1 0.428549 0.142829 0.285692
218 1 0.500005 0.213771 0.357149
219 1 0.57145 0.142825 0.285692
220 1 0.642856 0.214281 0.357143
221 1 0.714286 0.142859 0.285715
222 1 0.785713 0.21429 0.357143
223 1 0.857143 0.142857 0.285714
224 1 0.928572 0.214286 0.357143
225 1 -1.42499e-07 0.285715 0.285714
226 1 0.0714311 0.357145 0.357142
227 1 0.142858 0.285714 0.285714
228 1 0.214301 0.35717 0.357123
229 1 0.285722 0.285737 0.28571
230 1 0.357025 0.357139 0.357226
231 1 0.428408 0.285494 0.285544
232 1 0.50037 0.351628 0.35709
233 1 0.571698 0.285468 0.285433
234 1 0.642948 0.357052 0.357147
235 1 0.714306 0.285716 0.285712
236 1 0.785681 0.357188 0.357143
237 1 0.857142 0.285715 0.285716
238 1 0.928566 0.357146 0.357143
239 1 5.71554e-07 0.428571 0.285713
240 1 0.0714253 0.5 0.357141
241 1 0.142884 0.428568 0.285711
242 1 0.214145 0.500012 0.357139
243 1 0.285993 0.428689 0.285795
244 1 0.355137 0.500324 0.357409
245 1 0.425919 0.426539 0.282712
246 1 0.928571 0.928571 0.928571
247 1 0.573002 0.427768 0.283493
248 1 0.645667 0.499921 0.357159
249 1 0.713977 0.428627 0.2858
250 1 0.78604 0.499992 0.357143
251 1 0.85712 0.428561 0.285703
252 1 0.92859 0.499997 0.357143
253 1 3.47314e-06 0.571429 0.285714
254 1 0.071434 0.642856 0.357142
255 1 0.142879 0.571434 0.28571
256 1 0.214338 0.642822 0.357128
257 1 0.285953 0.571368 0.285694
258 1 0.357315 0.642679 0.357302
259 1 0.427677 0.572867 0.285528
260 1 0.499762 0.644329 0.357186
261 1 0.571811 0.572324 0.284147
262 1 0.643011 0.64302 0.357155
263 1 0.71452 0.571591 0.285578
264 1 0.785737 0.642867 0.357143
265 1 0.85717 0.571441 0.285701
266 1 0.928574 0.642857 0.357143
267 1 4.03864e-07 0.714286 0.285714
268 1 0.0714287 0.785714 0.357143
269 1 0.142863 0.714284 0.285716
270 1 0.214289 0.785709 0.357141
271 1 0.285765 0.714227 0.285729
272 1 0.35715 0.785688 0.357156
273 1 0.428505 0.714501 0.285681
274 1 0.50001 0.785802 0.357155
275 1 0.571422 0.714035 0.285824
276 1 0.642833 0.785708 0.357144
277 1 0.714299 0.714309 0.285699
278 1 0.785712 0.785714 0.357143
279 1 0.857143 0.714286 0.285713
280 1 0.928571 0.785714 0.357143
281 1 -3.09719e-08 0.857143 0.285714
282 1 0.0714285 0.928571 0.357143
283 1 0.142857 0.857143 0.285714
284 1 0.214286 0.928571 0.357143
285 1 0.285717 0.857136 0.285716
286 1 0.357143 0.928569 0.357144
287 1 0.428568 0.857157 0.285712
288 1 0.500002 0.928571 0.357144
289 1 0.57143 0.857119 0.285712
290 1 0.642855 0.928569 0.357143
291 1 0.714285 0.857143 0.285714
292 1 0.785714 0.928572 0.357143
293 1 0.857143 0.857143 0.285714
294 1 0.928571 0.928571 0.357143
295 1 -2.70379e-10 -2.1389e-09 0.428571
296 1 0.0714286 0.0714286 0.5
297 1 0.142857 6.92599e-09 0.428571
298 1 0.214286 0.0714286 0.5
299 1 0.285714 -2.13407e-08 0.428571
300 1 0.357142 0.0714272 0.500001
301 1 0.42857 -2.17192e-06 0.428573
302 1 0.499999 0.071431 0.499999
303 1 0.57143 0.999996 0.428573
304 1 0.642859 0.0714257 0.500002
305 1 0.714286 1.55689e-07 0.428571
306 1 0.785714 0.0714288 0.5
307 1 0.857143 9.55666e-09 0.428571
308 1 0.928571 0.0714286 0.5
309 1 8.82808e-09 0.142857 0.428571
310 1 0.0714287 0.214286 0.5
311 1 0.142857 0.142858 0.428571
312 1 0.214286 0.214286 0.5
313 1 0.285714 0.142857 0.42857
314 1 0.35714 0.214272 0.500003
315 1 0.42855 0.142843 0.428593
316 1 0.49999 0.214306 0.49999
317 1 0.57145 0.142824 0.428595
318 1 0.642879 0.214259 0.500022
319 1 0.714286 0.142859 0.428571
320 1 0.785715 0.214288 0.500001
321 1 0.857143 0.142857 0.428571
322 1 0.928572 0.214286 0.5
323 1 -2.40412e-08 0.285715 0.428571
324 1 0.0714285 0.357143 0.5
325 1 0.142859 0.285716 0.428569
326 1 0.21428 0.357144 0.499996
327 1 0.2857 0.285706 0.428569
328 1 0.356957 0.35693 0.500145
329 1 0.428416 0.285694 0.428742
330 1 0.499982 0.35725 0.499872
331 1 0.571688 0.285464 0.428854
332 1 0.64293 0.356995 0.500033
333 1 0.714305 0.285716 0.428574
334 1 0.78568 0.357174 0.499967
335 1 0.857142 0.285715 0.42857
336 1 0.928568 0.357144 0.499999
337 1 0.999999 0.428571 0.428572
338 1 0.0714318 0.5 0.499999
339 1 0.142856 0.428568 0.428576
340 1 0.21432 0.5 0.499978
341 1 0.28568 0.428526 0.428569
342 1 0.357252 0.500259 0.499869
343 1 0.426608 0.427819 0.431278
344 1 0.499888 0.500006 0.501203
345 1 0.573093 0.427612 0.43097
346 1 0.642791 0.500091 0.499989
347 1 0.713977 0.428633 0.428485
348 1 0.785681 0.499973 0.499976
349 1 0.857119 0.428561 0.428583
350 1 0.928568 0.499998 0.499999
351 1 2.26015e-06 0.571429 0.428572
352 1 0.0714291 0.642857 0.5
353 1 0.14286 0.571434 0.428577
354 1 0.214289 0.642859 0.500002
355 1 0.285718 0.571534 0.428675
356 1 0.35717 0.642837 0.499974
357 1 0.428062 0.571921 0.428909
358 1 0.499821 0.642628 0.499777
359 1 0.571782 0.572359 0.430186
360 1 0.642835 0.642766 0.499854
361 1 0.714511 0.571589 0.428714
362 1 0.785727 0.642873 0.500018
363 1 0.857169 0.57144 0.428585
364 1 0.928573 0.642859 0.500002
365 1 4.82347e-07 0.714286 0.428571
366 1 0.071429 0.785714 0.5
367 1 0.142863 0.714282 0.428568
368 1 0.214289 0.785712 0.499998
369 1 0.28574 0.714262 0.428558
370 1 0.357146 0.785707 0.499999
371 1 0.428509 0.714232 0.428623
372 1 0.500013 0.785658 0.499965
373 1 0.571414 0.714023 0.42847
374 1 0.642834 0.785679 0.499976
375 1 0.714298 0.714309 0.428589
376 1 0.785715 0.785717 0.500003
377 1 0.857143 0.714286 0.428572
378 1 0.928571 0.785714 0.5
379 1 -3.28301e-08 0.857143 0.428571
380 1 0.0714286 0.928571 0.5
381 1 0.142857 0.857143 0.428571
382 1 0.214286 0.928571 0.5
383 1 0.285715 0.85714 0.428571
384 1 0.357143 0.92857 0.5
385 1 0.428569 0.857134 0.428574
386 1 0.500001 0.928566 0.499998
387 1 0.571431 0.857118 0.428576
388 1 0.642856 0.928568 0.499999
389 1 0.714285 0.857144 0.428572
390 1 0.785714 0.928572 0.5
391 1 0.857143 0.857143 0.428571
392 1 0.928571 0.928571 0.5
393 1 -1.42457e-09 -1.32972e-09 0.571429
394 1 0.0714286 0.0714286 0.642857
395 1 0.142857 -1.73177e-08 0.571429
396 1 0.214286 0.0714286 0.642857
397 1 0.285714 -1.01347e-07 0.571429
398 1 0.357143 0.0714287 0.642857
399 1 0.428572 -1.82278e-07 0.571428
400 1 0.5 0.0714285 0.642857
401 1 0.571428 1.61455e-08 0.571428
402 1 0.642857 0.0714289 0.642857
403 1 0.714286 -4.59199e-07 0.571429
404 1 0.785714 0.0714286 0.642857
405 1 0.857143 4.84118e-08 0.571429
406 1 0.928571 0.0714286 0.642857
407 1 3.56184e-08 0.142857 0.571429
408 1 0.0714286 0.214286 0.642857
409 1 0.142857 0.142857 0.571429
410 1 0.214285 0.214286 0.642858
411 1 0.285715 0.142857 0.571428
412 1 0.357145 0.214288 0.642854
413 1 0.428573 0.14286 0.571429
414 1 0.5 0.214286 0.642856
415 1 0.571426 0.142862 0.571427
416 1 0.642855 0.214288 0.642856
417 1 0.714287 0.142857 0.571429
418 1 0.785713 0.214287 0.642856
419 1 0.857143 0.142857 0.571429
420 1 0.928571 0.214286 0.642857
421 1 -3.40557e-07 0.285714 0.571428
422 1 0.0714289 0.357143 0.642857
423 1 0.142857 0.285715 0.571428
424 1 0.21429 0.357147 0.642852
425 1 0.285703 0.285703 0.57144
426 1 0.357129 0.35713 0.642874
427 1 0.42859 0.285737 0.571415
428 1 0.5 0.357132 0.642857
429 1 0.571413 0.28574 0.571419
430 1 0.642869 0.357132 0.642862
431 1 0.714283 0.285717 0.571426
432 1 0.785712 0.357146 0.642852
433 1 0.857138 0.285718 0.571424
434 1 0.928571 0.357143 0.642857
435 1 1.42731e-07 0.428572 0.571428
436 1 0.0714287 0.5 0.642857
437 1 0.142862 0.428574 0.571427
438 1 0.214288 0.499999 0.642854
439 1 0.285755 0.4286 0.571385
440 1 0.357146 0.500019 0.642837
441 1 0.428527 0.428544 0.571754
442 1 0.499987 0.50002 0.642943
443 1 0.57145 0.428547 0.571727
444 1 0.642866 0.500004 0.64286
445 1 0.714251 0.428577 0.571386
446 1 0.785711 0.499998 0.642852
447 1 0.85714 0.428571 0.571429
448 1 0.928571 0.5 0.642857
449 1 -2.11484e-07 0.571428 0.571428
450 1 0.0714289 0.642857 0.642857
451 1 0.142862 0.571426 0.571426
452 1 0.214288 0.642855 0.642855
453 1 0.285735 0.571423 0.571412
454 1 0.357148 0.642852 0.642846
455 1 0.428543 0.571457 0.57133
456 1 0.499986 0.64285 0.642827
457 1 0.571436 0.571457 0.571629
458 1 0.642863 0.642864 0.642846
459 1 0.714266 0.571427 0.571417
460 1 0.785713 0.642856 0.642857
461 1 0.857137 0.571425 0.571425
462 1 0.928571 0.642857 0.642857
463 1 9.91626e-08 0.714286 0.571429
464 1 0.0714287 0.785714 0.642857
465 1 0.142858 0.714285 0.571428
466 1 0.214287 0.785713 0.642856
467 1 0.285725 0.714276 0.571418
468 1 0.357146 0.785711 0.642854
469 1 0.428588 0.714256 0.571399
470 1 0.500002 0.78571 0.642852
471 1 0.571409 0.714228 0.571363
472 1 0.642853 0.78571 0.642851
473 1 0.714263 0.714265 0.571408
474 1 0.785712 0.785712 0.642855
475 1 0.857142 0.714286 0.571429
476 1 0.928571 0.785714 0.642857
477 1 3.20036e-08 0.857143 0.571429
478 1 0.0714286 0.928571 0.642857
479 1 0.142857 0.857143 0.571428
480 1 0.214286 0.928571 0.642857
481 1 0.285715 0.857142 0.571428
482 1 0.357143 0.928571 0.642857
483 1 0.428575 0.857137 0.571425
484 1 0.5 0.928571 0.642857
485 1 0.571427 0.857137 0.571426
486 1 0.642857 0.928571 0.642857
487 1 0.714282 0.857138 0.571425
488 1 0.785714 0.928571 0.642857
489 1 0.857143 0.857143 0.571429
490 1 0.928571 0.928571 0.642857
491 1 1.36006e-09 1.84929e-09 0.714286
492 1 0.0714286 0.0714286 0.785714
493 1 0.142857 -1.26482e-09 0.714286
494 1 0.214286 0.0714286 0.785714
495 1 0.285714 -1.79106e-08 0.714286
496 1 0.357143 0.0714286 0.785714
497 1 0.428571 7.24904e-09 0.714286
498 1 0.5 0.0714286 0.785714
499 1 0.571429 -7.18711e-09 0.714286
500 1 0.642857 0.0714286 0.785714
501 1 0.714286 1.48644e-08 0.714286
502 1 0.785714 0.0714286 0.785714
503 1 0.857143 -1.74286e-08 0.714286
504 1 0.928571 0.0714286 0.785714
505 1 -1.8743e-08 0.142857 0.714286
506 1 0.0714286 0.214286 0.785714
507 1 0.142857 0.142857 0.714286
508 1 0.214286 0.214286 0.785714
509 1 0.285714 0.142857 0.714285
510 1 0.357143 0.214286 0.785714
511 1 0.428571 0.142857 0.714286
512 1 0.5 0.214286 0.785714
513 1 0.571429 0.142857 0.714286
514 1 0.642857 0.214286 0.785714
515 1 0.714286 0.142857 0.714286
516 1 0.785714 0.214286 0.785714
517 1 0.857143 0.142857 0.714286
518 1 0.928571 0.214286 0.785714
519 1 3.86885e-08 0.285714 0.714286
520 1 0.0714286 0.357143 0.785714
521 1 0.142857 0.285715 0.714285
522 1 0.214286 0.357143 0.785714
523 1 0.285713 0.285713 0.714287
524 1 0.357142 0.357142 0.785715
525 1 0.428572 0.285715 0.714283
526 1 0.5 0.357142 0.785714
527 1 0.571428 0.285716 0.714283
528 1 0.642858 0.357142 0.785714
529 1 0.714286 0.285714 0.714286
530 1 0.785714 0.357143 0.785714
531 1 0.857143 0.285715 0.714285
532 1 0.928571 0.357143 0.785714
533 1 -9.93447e-09 0.428571 0.714286
534 1 0.0714286 0.5 0.785714
535 1 0.142857 0.428571 0.714286
536 1 0.214286 0.5 0.785714
537 1 0.285717 0.428574 0.71428
538 1 0.357143 0.500001 0.785712
539 1 0.42857 0.428569 0.714306
540 1 0.499999 0.500001 0.785717
541 1 0.571429 0.42857 0.714303
542 1 0.642858 0.5 0.785715
543 1 0.714284 0.428572 0.714281
544 1 0.785714 0.5 0.785714
545 1 0.857143 0.428571 0.714286
546 1 0.928571 0.5 0.785714
547 1 5.80694e-09 0.571429 0.714286
548 1 0.0714286 0.642857 0.785714
549 1 0.142857 0.571428 0.714286
550 1 0.214286 0.642857 0.785714
551 1 0.285715 0.571428 0.714283
552 1 0.357143 0.642857 0.785713
553 1 0.428569 0.571431 0.714274
554 1 0.499999 0.642857 0.785712
555 1 0.571431 0.571432 0.714298
556 1 0.642858 0.642858 0.785714
557 1 0.714285 0.571429 0.714283
558 1 0.785714 0.642857 0.785714
559 1 0.857143 0.571428 0.714285
560 1 0.928571 0.642857 0.785714
561 1 2.19097e-09 0.714286 0.714286
562 1 0.0714286 0.785714 0.785714
563 1 0.142857 0.714286 0.714286
564 1 0.214286 0.785714 0.785714
565 1 0.285715 0.714285 0.714284
566 1 0.357143 0.785714 0.785714
567 1 0.428572 0.714285 0.714282
568 1 0.5 0.785714 0.785714
569 1 0.571427 0.714283 0.714278
570 1 0.642857 0.785714 0.785714
571 1 0.714285 0.714285 0.714284
572 1 0.785714 0.785714 0.785714
573 1 0.857143 0.714286 0.714286
574 1 0.928571 0.785714 0.785714
575 1 -5.37735e-09 0.857143 0.714286
576 1 0.0714286 0.928571 0.785714
577 1 0.142857 0.857143 0.714286
578 1 0.214286 0.928571 0.785714
579 1 0.285714 0.857143 0.714286
580 1 0.357143 0.928571 0.785714
581 1 0.428572 0.857143 0.714285
582 1 0.5 0.928571 0.785714
583 1 0.571428 0.857143 0.714286
584 1 0.642857 0.928571 0.785714
585 1 0.714285 0.857143 0.714285
586 1 0.785714 0.928571 0.785714
587 1 0.857143 0.857143 0.714286
588 1 0.928571 0.928571 0.785714
589 1 1.14638e-10 -3.21039e-10 0.857143
590 1 0.0714286 0.0714286 0.928571
591 1 0.142857 4.68349e-10 0.857143
592 1 0.214286 0.0714286 0.928571
593 1 0.285714 -1.28696e-09 0.857143
594 1 0.357143 0.0714286 0.928571
595 1 0.428571 1.6277e-09 0.857143
596 1 0.5 0.0714286 0.928571
597 1 0.571429 7.31459e-10 0.857143
598 1 0.642857 0.0714286 0.928571
599 1 0.714286 6.95692e-10 0.857143
600 1 0.785714 0.0714286 0.928571
601 1 0.857143 -1.80258e-10 0.857143
602 1 0.928571 0.0714286 0.928571
603 1 -1.68788e-09 0.142857 0.857143
604 1 0.0714286 0.214286 0.928571
605 1 0.142857 0.142857 0.857143
606 1 0.214286 0.214286 0.928571
607 1 0.285714 0.142857 0.857143
608 1 0.357143 0.214286 0.928572
609 1 0.428571 0.142857 0.857143
610 1 0.5 0.214286 0.928572
611 1 0.571429 0.142857 0.857143
612 1 0.642857 0.214286 0.928571
613 1 0.714286 0.142857 0.857143
614 1 0.785714 0.214286 0.928572
615 1 0.857143 0.142857 0.857143
616 1 0.928571 0.214286 0.928571
617 1 3.09997e-09 0.285714 0.857143
618 1 0.0714286 0.357143 0.928571
619 1 0.142857 0.285714 0.857143
620 1 0.214286 0.357143 0.928572
621 1 0.285714 0.285714 0.857143
622 1 0.357141 0.357141 0.928569
623 1 0.428572 0.285714 0.857143
624 1 0.500001 0.357143 0.928571
625 1 0.571429 0.285714 0.857143
626 1 0.642858 0.357143 0.928573
627 1 0.714286 0.285714 0.857143
628 1 0.785714 0.357143 0.928572
629 1 0.857143 0.285714 0.857143
630 1 0.928571 0.357143 0.928571
631 1 2.17427e-10 0.428571 0.857143
632 1 0.0714286 0.5 0.928571
633 1 0.142857 0.428571 0.857143
634 1 0.214286 0.5 0.928572
635 1 0.285714 0.428572 0.857143
636 1 0.357142 0.500001 0.928569
637 1 0.428571 0.428571 0.857141
638 1 0.500002 0.500001 0.928553
639 1 0.571429 0.428571 0.857143
640 1 0.642856 0.5 0.928575
641 1 0.714285 0.428572 0.857143
642 1 0.785714 0.5 0.928572
643 1 0.857143 0.428571 0.857143
644 1 0.928571 0.5 0.928571
645 1 1.09308e-09 0.571429 0.857143
646 1 0.0714286 0.642857 0.928571
647 1 0.142857 0.571429 0.857143
648 1 0.214286 0.642857 0.928571
649 1 0.285714 0.571429 0.857143
650 1 0.357142 0.642858 0.92857
651 1 0.428571 0.571429 0.85714
652 1 0.500001 0.642857 0.928573
653 1 0.571429 0.571429 0.857143
654 1 0.642857 0.642857 0.928574
655 1 0.714285 0.571429 0.857143
656 1 0.785714 0.642857 0.928571
657 1 0.857143 0.571429 0.857143
658 1 0.928571 0.642857 0.928571
659 1 -7.06292e-10 0.714286 0.857143
660 1 0.0714286 0.785714 0.928571
661 1 0.142857 0.714286 0.857143
662 1 0.214286 0.785714 0.928572
663 1 0.285714 0.714286 0.857143
664 1 0.357143 0.785714 0.928572
665 1 0.428572 0.714286 0.857143
666 1 0.5 0.785714 0.928572
667 1 0.571429 0.714285 0.857143
668 1 0.642857 0.785714 0.928572
669 1 0.714286 0.714286 0.857143
670 1 0.785714 0.785714 0.928572
671 1 0.857143 0.714286 0.857143
672 1 0.928571 0.785714 0.928571
673 1 4.65601e-10 0.857143 0.857143
674 1 0.0714286 0.928571 0.928571
675 1 0.142857 0.857143 0.857143
676 1 0.214286 0.928571 0.928571
677 1 0.285714 0.857143 0.857143
678 1 0.357143 0.928571 0.928571
679 1 0.428571 0.857143 0.857143
680 1 0.5 0.928571 0.928571
681 1 0.571429 0.857143 0.857143
682 1 0.642857 0.928571 0.928571
683 1 0.714286 0.857143 0.857143
684 1 0.785714 0.928571 0.928571
685 1 0.857143 0.857143 0.857143
686 2 0.472712 0.500053 0.2996
687 2 0.558304 0.528796 0.3566
688 2 0.529671 0.436862 0.356973
689 2 0.467353 0.431845 0.357231
690 3 0.494391 0.500515 0.367964
