ITEM: TIMESTEP
10
ITEM: NUMBER OF ATOMS
693
ITEM: BOX BOUNDS pp pp pp
0.0000000000000000e+00 2.2013900999999997e+01
0.0000000000000000e+00 2.2013900999999997e+01
0.0000000000000000e+00 2.2013900999999997e+01
ITEM: ATOMS id type xs ys zs
447 1 0.78567 0.499995 0.35704
2 1 0.0714294 0.0713929 0.0713835
691 2 0.499724 0.425972 0.464351
4 1 0.214218 0.0713827 0.0713571
689 2 0.537777 0.498822 0.424944
6 1 0.357095 0.0713818 0.0713563
397 1 0.642917 0.499961 0.213517
8 1 0.499979 0.0713815 0.0713557
175 1 0.857354 0.428497 0.428541
10 1 0.642881 0.0713759 0.0713548
174 1 0.715247 0.427515 0.427802
12 1 0.785778 0.0713664 0.0713556
173 1 0.574309 0.419343 0.423172
14 1 0.928641 0.0713804 0.0713718
396 1 0.499865 0.499974 0.213198
16 1 0.0714262 0.214241 0.07138
395 1 0.356826 0.499983 0.213755
18 1 0.214197 0.214209 0.0713189
56 1 0.428524 5.82491e-07 0.14277
20 1 0.357042 0.214172 0.0712746
349 1 0.785845 0.500005 0.0713305
22 1 0.499958 0.214154 0.0712669
348 1 0.642918 0.499988 0.0711834
24 1 0.642897 0.21415 0.0712677
347 1 0.499934 0.499979 0.0710689
26 1 0.785827 0.214159 0.0712777
346 1 0.357 0.499981 0.0711597
28 1 0.92866 0.214217 0.0713653
196 1 0.928783 0.35704 0.499996
30 1 0.0714191 0.357122 0.0713722
157 1 0.285579 0.142698 0.428555
32 1 0.214192 0.357096 0.071311
156 1 0.142803 0.14277 0.428574
34 1 0.357008 0.35705 0.0711841
155 1 5.9351e-05 0.142775 0.428561
36 1 0.499949 0.35702 0.0711403
158 1 0.428457 0.142562 0.42849
38 1 0.642928 0.357035 0.0711835
159 1 0.571547 0.14265 0.428443
40 1 0.785854 0.357072 0.0712904
160 1 0.714453 0.142586 0.428521
42 1 0.928661 0.357114 0.071377
161 1 0.857309 0.142691 0.428539
162 1 8.30278e-05 0.285615 0.428553
163 1 0.142727 0.285608 0.428557
164 1 0.285386 0.285433 0.428457
147 1 0.857294 0.428571 0.285578
192 1 0.35681 0.356729 0.499733
191 1 0.214027 0.356994 0.499952
172 1 0.425435 0.427075 0.425737
51 1 0.071423 0.0713772 0.214243
186 1 0.500094 0.213504 0.499925
53 1 0.214186 0.0713519 0.214208
54 1 0.285635 2.71611e-07 0.142775
55 1 0.357061 0.0713293 0.214184
171 1 0.284944 0.42845 0.428244
57 1 0.499971 0.0713125 0.214167
187 1 0.643074 0.214006 0.499924
59 1 0.642915 0.0713043 0.214153
144 1 0.428024 0.428078 0.284667
61 1 0.785832 0.0712916 0.214165
170 1 0.142634 0.428563 0.428526
63 1 0.928663 0.0713531 0.214214
64 1 5.19646e-05 0.14278 0.142782
65 1 0.0714026 0.214194 0.214201
66 1 0.142793 0.142773 0.142762
67 1 0.21409 0.214112 0.21411
68 1 0.285584 0.142719 0.142706
69 1 0.356894 0.213983 0.213981
70 1 0.428498 0.14272 0.142704
71 1 0.499941 0.213989 0.213979
72 1 0.571447 0.142715 0.142693
73 1 0.64301 0.213989 0.213947
74 1 0.714384 0.1427 0.142684
75 1 0.786032 0.213969 0.213956
76 1 0.857293 0.142713 0.142701
77 1 0.928735 0.214138 0.214141
78 1 5.10573e-05 0.285663 0.142773
79 1 0.0713867 0.35711 0.2142
80 1 0.142773 0.285648 0.142742
81 1 0.214075 0.35705 0.214091
82 1 0.285517 0.285563 0.142619
83 1 0.356793 0.356843 0.21376
84 1 0.42843 0.285508 0.142517
85 1 0.499868 0.356799 0.213575
86 1 0.571458 0.285491 0.142499
87 1 0.643106 0.356832 0.213537
88 1 0.714477 0.285509 0.142515
89 1 0.785984 0.356997 0.213979
90 1 0.857308 0.28561 0.142697
91 1 0.928692 0.357118 0.214173
92 1 3.49769e-05 0.42857 0.142784
93 1 0.142768 0.428562 0.142743
94 1 0.285522 0.428506 0.142609
95 1 0.428389 0.428441 0.142357
96 1 0.571452 0.428408 0.142358
97 1 0.714468 0.428501 0.142548
98 1 0.857284 0.42856 0.142739
169 1 0.999992 0.428581 0.428567
100 1 0.0714315 0.0713741 0.35713
168 1 0.857474 0.285466 0.428487
102 1 0.214193 0.0713503 0.357128
146 1 0.714598 0.428453 0.285185
104 1 0.357036 0.071294 0.357097
145 1 0.571384 0.428026 0.284709
106 1 0.499986 0.0713016 0.357088
167 1 0.714873 0.285103 0.428412
108 1 0.642931 0.0712551 0.357063
166 1 0.572045 0.285559 0.427934
110 1 0.785845 0.0712911 0.357092
165 1 0.428143 0.285072 0.428062
112 1 0.928656 0.0713523 0.357114
113 1 5.90379e-05 0.142766 0.285666
114 1 0.0714218 0.214187 0.357119
115 1 0.142783 0.142756 0.285669
116 1 0.214107 0.214119 0.357065
117 1 0.285543 0.142658 0.285584
118 1 0.356865 0.213858 0.356891
119 1 0.428483 0.142609 0.285556
120 1 0.500016 0.213911 0.356901
121 1 0.571463 0.142599 0.285503
122 1 0.643145 0.213692 0.356787
123 1 0.714477 0.142538 0.285508
124 1 0.786031 0.213939 0.356947
125 1 0.857326 0.142674 0.285594
126 1 0.928744 0.214134 0.357074
127 1 7.64995e-05 0.285636 0.28563
128 1 0.0713598 0.357098 0.357103
129 1 0.142689 0.285587 0.285598
130 1 0.213897 0.356957 0.356941
131 1 0.285261 0.28531 0.285309
132 1 0.356219 0.356302 0.35624
133 1 0.428166 0.285056 0.285022
134 1 0.499008 0.355977 0.355567
135 1 0.571486 0.28514 0.285026
136 1 0.644661 0.355434 0.355165
137 1 0.715069 0.284899 0.284863
138 1 0.786468 0.356659 0.356673
139 1 0.857505 0.285468 0.285449
140 1 0.928758 0.357074 0.357059
141 1 8.96515e-06 0.42858 0.285646
142 1 0.142693 0.428549 0.285592
143 1 0.28534 0.428488 0.285356
179 1 0.499999 0.071262 0.499997
185 1 0.356975 0.213991 0.499969
46 1 0.428474 0.428527 0.999799
177 1 0.214225 0.0713652 0.500028
178 1 0.357059 0.0713148 0.500028
7 1 0.428541 7.42407e-06 0.999967
180 1 0.642908 0.0713192 0.500001
181 1 0.785828 0.0713018 0.50001
644 1 0.92868 0.499993 0.928625
183 1 0.0714301 0.214194 0.500019
184 1 0.214175 0.214153 0.500021
642 1 0.642906 0.499991 0.928675
641 1 0.499951 0.500011 0.928549
640 1 0.357078 0.499983 0.928457
188 1 0.786011 0.213963 0.50002
189 1 0.928733 0.214138 0.500014
190 1 0.0713977 0.357088 0.500006
13 1 0.857189 4.22277e-06 0.999983
49 1 0.857255 0.42854 0.999991
193 1 0.499728 0.35182 0.500611
194 1 0.644164 0.356552 0.500491
195 1 0.786363 0.356704 0.500026
594 1 0.786079 0.499999 0.786128
692 2 0.50153 0.429749 0.53451
198 1 0.0714386 0.0713798 0.642882
343 1 0.857321 0.428509 0.857316
200 1 0.214227 0.0713787 0.642911
342 1 0.714445 0.428501 0.857416
202 1 0.357062 0.0713271 0.642934
341 1 0.57148 0.428535 0.85733
204 1 0.499976 0.0713603 0.642925
340 1 0.428536 0.428588 0.857042
206 1 0.642903 0.0713177 0.642956
47 1 0.571415 0.428509 0.999858
208 1 0.785811 0.0713101 0.642923
339 1 0.285701 0.428578 0.857071
210 1 0.928648 0.0713582 0.642893
211 1 6.27501e-05 0.142779 0.571455
212 1 0.0714437 0.214223 0.642917
213 1 0.142821 0.142784 0.571465
214 1 0.214199 0.214206 0.642935
215 1 0.285615 0.142748 0.57149
216 1 0.356912 0.214001 0.64307
217 1 0.428494 0.142598 0.571505
218 1 0.500055 0.214092 0.642916
219 1 0.571534 0.142632 0.571517
220 1 0.643101 0.213882 0.64312
221 1 0.714415 0.142631 0.571486
222 1 0.786019 0.213923 0.643085
223 1 0.857296 0.142693 0.571487
224 1 0.928741 0.214129 0.64295
225 1 0.000116898 0.285619 0.571471
226 1 0.0714861 0.35711 0.64292
227 1 0.142787 0.285646 0.57148
228 1 0.214179 0.357102 0.642905
229 1 0.285492 0.28557 0.571465
230 1 0.356882 0.356829 0.643017
231 1 0.428019 0.284961 0.571894
232 1 0.500057 0.35665 0.643189
233 1 0.572166 0.285194 0.571806
234 1 0.643951 0.356177 0.643951
235 1 0.714945 0.28504 0.571739
236 1 0.786611 0.356476 0.643574
237 1 0.857498 0.285451 0.571549
238 1 0.928874 0.357023 0.643004
239 1 0.000106034 0.428567 0.571466
240 1 0.142773 0.428582 0.571438
241 1 0.285225 0.428601 0.57123
242 1 0.426207 0.427777 0.572435
243 1 0.575166 0.426942 0.575837
244 1 0.716342 0.427202 0.573132
245 1 0.857651 0.428469 0.571593
338 1 0.142875 0.42857 0.857159
247 1 0.0714391 0.071388 0.785747
337 1 9.06204e-05 0.428554 0.857207
249 1 0.214235 0.0713894 0.785766
336 1 0.928666 0.357093 0.928619
251 1 0.357104 0.0714096 0.785764
252 1 0.428526 8.51667e-06 0.714344
253 1 0.499954 0.071407 0.785781
254 1 0.571411 3.02007e-05 0.714365
255 1 0.642862 0.071394 0.785808
256 1 0.714352 2.67063e-05 0.714375
257 1 0.785795 0.071362 0.785807
335 1 0.857295 0.285581 0.857311
259 1 0.928654 0.0713659 0.785785
260 1 6.48529e-05 0.142769 0.714342
261 1 0.071467 0.214232 0.785776
262 1 0.142829 0.142798 0.71435
263 1 0.214243 0.214235 0.78578
264 1 0.285617 0.142752 0.714397
265 1 0.357084 0.21425 0.785777
266 1 0.428528 0.14279 0.714359
267 1 0.499952 0.214224 0.785774
268 1 0.571411 0.142745 0.714401
269 1 0.642882 0.214136 0.785878
270 1 0.7144 0.142651 0.714452
271 1 0.785887 0.214063 0.785939
272 1 0.857301 0.142684 0.714424
273 1 0.928735 0.214133 0.785862
274 1 0.000145625 0.285629 0.714382
275 1 0.0714901 0.357119 0.785769
276 1 0.142847 0.285676 0.714351
277 1 0.214298 0.357153 0.785719
278 1 0.285603 0.285616 0.71439
279 1 0.357163 0.35721 0.78563
280 1 0.42852 0.285612 0.714401
281 1 0.499963 0.357152 0.785747
282 1 0.57152 0.2855 0.714529
283 1 0.643068 0.356939 0.786121
284 1 0.7147 0.285262 0.714763
285 1 0.786009 0.356929 0.786085
286 1 0.857517 0.285407 0.714599
287 1 0.928765 0.357048 0.785868
288 1 0.000152789 0.428551 0.714383
289 1 0.142887 0.428572 0.714329
290 1 0.285729 0.428611 0.7142
291 1 0.428674 0.4286 0.71409
292 1 0.571933 0.428355 0.715142
293 1 0.714902 0.428343 0.715073
294 1 0.857535 0.428458 0.714596
334 1 0.785819 0.357057 0.928664
296 1 0.0714428 0.0713876 0.928588
333 1 0.714368 0.285565 0.85733
298 1 0.214257 0.0714126 0.928566
332 1 0.642873 0.357057 0.928613
300 1 0.357105 0.0714064 0.928572
301 1 0.428531 1.29445e-05 0.857186
302 1 0.499969 0.0714052 0.928585
303 1 0.571406 2.66946e-05 0.8572
304 1 0.642849 0.0714 0.928585
305 1 0.714312 3.34957e-05 0.857207
306 1 0.785754 0.0713941 0.928598
307 1 0.857214 1.8924e-05 0.857207
308 1 0.928629 0.0713932 0.928585
309 1 6.09619e-05 0.14279 0.857198
310 1 0.0714509 0.214259 0.928572
311 1 0.14284 0.142817 0.857171
312 1 0.214258 0.214258 0.928538
313 1 0.285678 0.142832 0.857166
314 1 0.357097 0.214243 0.92853
315 1 0.428521 0.142821 0.857167
316 1 0.499958 0.214227 0.928544
317 1 0.5714 0.142806 0.857188
318 1 0.642844 0.214205 0.928562
319 1 0.714315 0.142786 0.857222
320 1 0.785781 0.214196 0.928609
321 1 0.857234 0.142757 0.85724
322 1 0.928655 0.21421 0.928614
323 1 8.89521e-05 0.285655 0.857202
324 1 0.0714516 0.357123 0.928586
325 1 0.142868 0.285696 0.857161
326 1 0.214254 0.357125 0.928531
327 1 0.285701 0.28572 0.857117
328 1 0.357094 0.357129 0.928457
329 1 0.428524 0.285696 0.857116
330 1 0.499945 0.3571 0.928478
331 1 0.571365 0.285646 0.857188
516 1 0.652717 0.499876 0.503998
48 1 0.714375 0.428524 0.999956
543 1 0.50035 0.499552 0.645187
1 1 3.48435e-05 -2.77595e-06 0.999981
687 2 0.5717 0.463016 0.500265
15 1 3.83265e-05 0.14281 0.999991
17 1 0.142828 0.142819 0.999966
19 1 0.285656 0.142802 0.999944
21 1 0.428525 0.142791 0.999945
23 1 0.571414 0.142789 0.999947
25 1 0.714322 0.142784 0.99996
27 1 0.857211 0.142784 0.999965
31 1 0.142823 0.28569 0.999956
33 1 0.285647 0.285663 0.999885
35 1 0.428511 0.285635 0.999858
37 1 0.571402 0.285629 0.999869
39 1 0.714351 0.285626 0.999926
41 1 0.85724 0.285641 0.999983
43 1 5.60671e-05 0.428566 0.999988
44 1 0.142818 0.428559 0.999953
45 1 0.285631 0.428539 0.999872
29 1 5.27326e-05 0.285677 0.999986
517 1 0.785643 0.500014 0.500172
643 1 0.785854 0.499985 0.928689
176 1 0.0714356 0.0713773 0.500014
182 1 0.928658 0.0713563 0.500008
344 1 0.071417 0.500006 0.071367
345 1 0.214174 0.500001 0.0713014
690 2 0.607929 0.501536 0.431156
688 2 0.571557 0.536048 0.499634
511 1 0.857279 0.85723 0.428527
510 1 0.714417 0.857329 0.428458
350 1 0.928658 0.500005 0.0713861
154 1 0.857239 0.999974 0.428561
352 1 0.0714151 0.642888 0.0713695
153 1 0.714357 0.999965 0.428554
354 1 0.214184 0.6429 0.071305
152 1 0.571443 0.999966 0.428537
356 1 0.35699 0.642953 0.0711645
151 1 0.428514 0.999965 0.428569
358 1 0.499938 0.642983 0.0711398
150 1 0.285627 0.999968 0.428589
360 1 0.642931 0.642964 0.0712322
518 1 0.928594 0.500001 0.500006
362 1 0.785835 0.642937 0.0713451
539 1 0.928648 0.9286 0.49999
364 1 0.928655 0.642901 0.0713865
149 1 0.142819 0.99998 0.428581
366 1 0.0714081 0.785762 0.0713713
148 1 4.72081e-05 0.999984 0.428566
368 1 0.214176 0.78581 0.0713098
111 1 0.857232 0.999972 0.285658
370 1 0.357022 0.785854 0.0712662
109 1 0.714364 0.999943 0.285642
372 1 0.499962 0.785861 0.0712841
107 1 0.571429 0.999977 0.285629
374 1 0.642913 0.78586 0.0713186
375 1 0.71438 0.714397 5.36124e-06
376 1 0.785833 0.785832 0.0713549
377 1 0.857261 0.714353 1.39569e-05
378 1 0.928655 0.785783 0.0713928
101 1 0.142814 0.999989 0.285698
380 1 0.0714207 0.9286 0.0713833
99 1 3.82637e-05 0.999982 0.285696
382 1 0.214224 0.92861 0.0713662
62 1 0.857221 0.999972 0.142785
384 1 0.357084 0.928629 0.0713515
537 1 0.642913 0.928651 0.499979
386 1 0.499976 0.928628 0.071359
50 1 3.00455e-05 0.999991 0.142814
388 1 0.642881 0.928623 0.0713683
504 1 0.857352 0.714429 0.428451
390 1 0.785777 0.928608 0.0713774
105 1 0.428517 1 0.285643
392 1 0.928627 0.928605 0.071387
393 1 0.0713681 0.500014 0.214197
509 1 0.571474 0.857272 0.428463
508 1 0.428505 0.857397 0.428516
507 1 0.285635 0.857243 0.428615
506 1 0.142829 0.857188 0.428605
398 1 0.785852 0.500012 0.214061
399 1 0.928652 0.500028 0.214185
400 1 2.34522e-05 0.571458 0.142786
401 1 0.071352 0.642904 0.214208
402 1 0.142766 0.571458 0.142742
403 1 0.214032 0.64297 0.214065
404 1 0.285508 0.571489 0.142592
405 1 0.356714 0.643235 0.213636
406 1 0.428367 0.571543 0.142294
407 1 0.49984 0.643213 0.213477
408 1 0.571427 0.571556 0.142327
409 1 0.643001 0.643099 0.213679
410 1 0.714429 0.571496 0.142569
411 1 0.785903 0.642984 0.21402
412 1 0.857266 0.571461 0.142751
413 1 0.928644 0.642903 0.214212
414 1 2.68106e-05 0.714333 0.142797
415 1 0.0713643 0.785802 0.214231
416 1 0.142753 0.714356 0.142751
417 1 0.214055 0.785915 0.214093
418 1 0.285479 0.714476 0.142579
419 1 0.356885 0.786044 0.213969
420 1 0.428412 0.714527 0.142489
421 1 0.499939 0.785998 0.213963
422 1 0.571452 0.714519 0.142529
423 1 0.642961 0.785958 0.214007
424 1 0.714434 0.714462 0.142605
425 1 0.785919 0.785913 0.214072
426 1 0.85728 0.714378 0.142744
427 1 0.928668 0.785803 0.214209
428 1 2.29349e-05 0.857196 0.142805
429 1 0.0714128 0.928605 0.214267
430 1 0.142763 0.857221 0.142768
431 1 0.214186 0.928641 0.214218
432 1 0.285574 0.857284 0.142718
433 1 0.357051 0.928677 0.214183
434 1 0.428492 0.857298 0.142706
435 1 0.499959 0.928672 0.214162
436 1 0.571446 0.857289 0.142712
437 1 0.642915 0.928647 0.214176
438 1 0.714373 0.857263 0.142737
439 1 0.78581 0.928619 0.214198
440 1 0.85726 0.857228 0.14277
441 1 0.928647 0.928601 0.214246
442 1 0.0713212 0.500024 0.357099
443 1 0.213966 0.50006 0.356901
444 1 0.356599 0.500166 0.35629
445 1 0.498224 0.500293 0.353355
446 1 0.64342 0.50012 0.355025
505 1 4.60304e-05 0.857191 0.428572
448 1 0.928574 0.500005 0.357086
449 1 0.999973 0.571458 0.285659
450 1 0.0713173 0.642917 0.357117
451 1 0.142669 0.571487 0.285589
452 1 0.213893 0.643076 0.35694
453 1 0.285266 0.571594 0.285266
454 1 0.355968 0.644004 0.355969
455 1 0.427874 0.572018 0.284273
456 1 0.498957 0.644209 0.355313
457 1 0.571321 0.571852 0.284574
458 1 0.643693 0.643722 0.355792
459 1 0.7145 0.571583 0.285175
460 1 0.786055 0.643098 0.356806
461 1 0.857214 0.571432 0.285588
462 1 0.928634 0.642899 0.357097
463 1 8.61513e-06 0.714348 0.285677
464 1 0.0714104 0.785775 0.357143
465 1 0.142649 0.714423 0.285609
466 1 0.214126 0.785857 0.357113
467 1 0.28519 0.71476 0.28525
468 1 0.356879 0.78617 0.356906
469 1 0.428094 0.715001 0.284955
470 1 0.499979 0.786154 0.356842
471 1 0.571479 0.714749 0.285103
472 1 0.64295 0.786006 0.356859
473 1 0.714636 0.7147 0.285175
474 1 0.785943 0.785952 0.356918
475 1 0.857333 0.714432 0.285539
476 1 0.928673 0.785799 0.357091
477 1 3.94925e-05 0.857195 0.285693
478 1 0.0714341 0.928587 0.35714
479 1 0.142777 0.85722 0.285687
480 1 0.214216 0.928618 0.357142
481 1 0.285528 0.857354 0.285592
482 1 0.357051 0.928682 0.357093
483 1 0.428471 0.857409 0.285549
484 1 0.499986 0.928669 0.357081
485 1 0.571449 0.857346 0.285517
486 1 0.642904 0.928626 0.357066
487 1 0.714396 0.857306 0.285558
488 1 0.785813 0.928632 0.357084
489 1 0.857279 0.857253 0.285628
490 1 0.928639 0.928588 0.357124
491 1 0.999956 0.571451 0.428561
492 1 0.142671 0.571496 0.428526
493 1 0.285165 0.571719 0.428191
494 1 0.426466 0.574355 0.425457
495 1 0.570227 0.579746 0.425478
496 1 0.714505 0.572157 0.427855
497 1 0.857154 0.57141 0.428521
498 1 3.97364e-05 0.714349 0.428562
499 1 0.142769 0.714383 0.428587
500 1 0.285516 0.714529 0.428528
501 1 0.428252 0.715229 0.42814
502 1 0.571578 0.714501 0.428207
503 1 0.714699 0.714787 0.42818
513 1 0.214104 0.500088 0.499885
514 1 0.357217 0.500305 0.499138
515 1 0.487154 0.505239 0.496125
538 1 0.785818 0.928634 0.499983
521 1 0.357093 0.643162 0.499948
523 1 0.644327 0.643639 0.499761
524 1 0.786226 0.643141 0.499917
525 1 0.928703 0.642915 0.499972
529 1 0.500104 0.786144 0.499977
530 1 0.643081 0.786026 0.499868
531 1 0.785962 0.785947 0.499927
532 1 0.928689 0.785799 0.49997
394 1 0.214074 0.499999 0.214081
52 1 0.142815 0.999991 0.142802
58 1 0.571435 0.999994 0.142764
60 1 0.714342 0.999984 0.142772
103 1 0.28562 0.999991 0.285659
520 1 0.214193 0.642982 0.499981
363 1 0.857262 0.57145 1.3225e-05
512 1 0.071377 0.500028 0.500002
299 1 0.285671 1 0.857164
297 1 0.142845 0.999989 0.857155
295 1 4.04381e-05 0.99999 0.857174
693 2 0.507827 0.531958 0.570642
590 1 0.214313 0.500009 0.785706
686 1 0.928649 0.928622 0.928603
519 1 0.0714204 0.642906 0.500014
258 1 0.857233 1 0.714347
250 1 0.285663 0.999967 0.714339
522 1 0.499418 0.644609 0.500175
248 1 0.142838 0.999989 0.714312
246 1 4.23832e-05 0.999987 0.714312
209 1 0.857233 0.999972 0.571447
526 1 0.0714515 0.785773 0.500028
527 1 0.214257 0.785774 0.500077
528 1 0.357141 0.785858 0.500091
205 1 0.57145 0.999992 0.571472
203 1 0.428528 0.99996 0.571479
201 1 0.285645 0.999962 0.571479
199 1 0.142829 0.999979 0.571458
533 1 0.0714349 0.928589 0.500017
534 1 0.214241 0.928578 0.500038
535 1 0.357086 0.928589 0.500045
536 1 0.500011 0.928629 0.500012
197 1 4.60563e-05 0.999992 0.571436
675 1 0.142856 0.857174 0.857157
674 1 0.0714341 0.928594 0.928584
540 1 0.0714857 0.500023 0.642918
541 1 0.214224 0.500042 0.642893
542 1 0.357077 0.50015 0.642786
685 1 0.857295 0.857291 0.857268
544 1 0.64414 0.500376 0.644356
545 1 0.786485 0.500058 0.6435
546 1 0.928855 0.500011 0.643011
547 1 9.61771e-05 0.571456 0.571453
548 1 0.0715081 0.642897 0.642894
549 1 0.14283 0.571466 0.571443
550 1 0.214331 0.6429 0.642909
551 1 0.285489 0.571486 0.571313
552 1 0.357269 0.643076 0.643166
553 1 0.427469 0.572874 0.572369
554 1 0.500492 0.643682 0.643558
555 1 0.575835 0.575178 0.57413
556 1 0.644288 0.644285 0.64423
557 1 0.716148 0.572939 0.573103
558 1 0.786641 0.643534 0.643562
559 1 0.857577 0.571498 0.571584
560 1 0.928874 0.642962 0.642965
561 1 0.000110589 0.714353 0.571437
562 1 0.0714787 0.785754 0.642882
563 1 0.142882 0.714323 0.57148
564 1 0.214287 0.78574 0.64291
565 1 0.285774 0.714323 0.571528
566 1 0.357174 0.785811 0.642971
567 1 0.428758 0.714538 0.571744
568 1 0.500194 0.785978 0.642966
569 1 0.571999 0.714699 0.571461
570 1 0.643141 0.786218 0.643085
571 1 0.714921 0.714996 0.571647
572 1 0.786063 0.786096 0.643048
573 1 0.857457 0.714486 0.571473
574 1 0.928746 0.78583 0.642898
575 1 5.66696e-05 0.857195 0.571434
576 1 0.0714416 0.928587 0.64287
577 1 0.14285 0.857164 0.571462
578 1 0.214248 0.928577 0.642898
579 1 0.285682 0.857167 0.571496
580 1 0.357096 0.928581 0.642913
581 1 0.428583 0.857231 0.57149
582 1 0.500003 0.928639 0.642928
583 1 0.571544 0.857334 0.571468
584 1 0.642926 0.928723 0.64294
585 1 0.714458 0.85739 0.571439
586 1 0.785828 0.928677 0.642914
587 1 0.857282 0.85725 0.571425
588 1 0.928653 0.928611 0.642879
589 1 0.0715058 0.500013 0.785768
684 1 0.785773 0.928641 0.928614
591 1 0.357196 0.500036 0.785626
592 1 0.500125 0.500141 0.786217
593 1 0.643173 0.500086 0.786281
683 1 0.714372 0.857308 0.857278
682 1 0.642864 0.928639 0.928605
596 1 0.000166298 0.571476 0.714378
597 1 0.0714975 0.642894 0.78577
598 1 0.142889 0.571469 0.714326
599 1 0.214275 0.642882 0.785745
600 1 0.285752 0.571497 0.714289
601 1 0.357103 0.642975 0.785836
602 1 0.428683 0.571772 0.714673
603 1 0.500113 0.643122 0.786018
604 1 0.571981 0.571919 0.715128
605 1 0.643187 0.64324 0.78631
606 1 0.715019 0.571834 0.715203
607 1 0.786109 0.643119 0.786166
608 1 0.857565 0.571559 0.714619
609 1 0.928796 0.642958 0.785865
610 1 0.000154929 0.714361 0.714351
611 1 0.0714804 0.785767 0.785751
612 1 0.142883 0.714315 0.714327
613 1 0.214239 0.785752 0.785751
614 1 0.285716 0.714342 0.714356
615 1 0.357072 0.785816 0.785797
616 1 0.428624 0.714556 0.714543
617 1 0.499998 0.78594 0.78589
618 1 0.571721 0.714811 0.714736
619 1 0.643013 0.786039 0.785998
620 1 0.714916 0.714957 0.714938
621 1 0.78602 0.786046 0.78602
622 1 0.857587 0.71461 0.714597
623 1 0.92877 0.785873 0.785844
624 1 6.84165e-05 0.8572 0.714311
625 1 0.071444 0.928588 0.785738
626 1 0.142853 0.857162 0.714315
627 1 0.214238 0.928576 0.785743
628 1 0.28567 0.857177 0.714326
629 1 0.357093 0.928597 0.785754
630 1 0.428564 0.857257 0.714364
631 1 0.499957 0.928668 0.785796
632 1 0.571479 0.857388 0.714455
633 1 0.64289 0.928702 0.785826
634 1 0.714462 0.857439 0.714471
635 1 0.78582 0.928691 0.785816
636 1 0.857332 0.857316 0.714397
637 1 0.928667 0.928628 0.785775
681 1 0.571421 0.857281 0.857252
680 1 0.499971 0.928622 0.928591
679 1 0.428511 0.857231 0.857199
678 1 0.357094 0.92862 0.92858
677 1 0.285644 0.857196 0.857173
595 1 0.928779 0.5 0.785865
676 1 0.214254 0.928595 0.928571
645 1 9.74791e-05 0.571448 0.857206
646 1 0.0714509 0.64288 0.928582
647 1 0.142869 0.571437 0.857154
648 1 0.214242 0.642881 0.928536
649 1 0.285688 0.571422 0.85711
650 1 0.357053 0.64291 0.928546
651 1 0.428531 0.57153 0.857213
652 1 0.499964 0.642953 0.928597
653 1 0.571521 0.571567 0.857413
654 1 0.642928 0.642974 0.928722
655 1 0.714514 0.571519 0.857499
656 1 0.78587 0.642947 0.928717
657 1 0.857345 0.571476 0.857334
658 1 0.92868 0.642898 0.928628
659 1 9.57031e-05 0.714344 0.857205
660 1 0.0714488 0.785749 0.928579
661 1 0.142853 0.714315 0.857161
662 1 0.214232 0.785768 0.92855
663 1 0.285642 0.714346 0.85718
664 1 0.357064 0.785786 0.928555
665 1 0.428523 0.714416 0.857241
666 1 0.499954 0.785835 0.928608
667 1 0.571465 0.714502 0.857364
668 1 0.642901 0.785861 0.928663
669 1 0.714479 0.714535 0.85745
670 1 0.78584 0.785857 0.928676
671 1 0.857357 0.714442 0.85733
672 1 0.928683 0.785799 0.928631
673 1 8.22843e-05 0.857204 0.857194
351 1 4.28368e-05 0.571438 0.99999
353 1 0.142817 0.571438 0.999947
355 1 0.285624 0.571433 0.999882
357 1 0.42848 0.571451 0.999832
359 1 0.57142 0.571467 0.999891
365 1 4.42603e-05 0.714321 0.99999
367 1 0.142818 0.714317 0.999947
369 1 0.285617 0.714357 0.999897
371 1 0.428481 0.714391 0.999886
373 1 0.571429 0.714416 0.999946
379 1 4.26891e-05 0.857182 0.999997
381 1 0.142821 0.857181 0.999968
383 1 0.285651 0.857201 0.999938
385 1 0.428514 0.857226 0.999957
387 1 0.571423 0.857236 0.999987
389 1 0.714335 0.857242 0.999988
361 1 0.714386 0.571464 1
11 1 0.714302 1.00001 0.999981
9 1 0.571424 1 0.999976
207 1 0.714345 0.999999 0.571447
5 1 0.285682 1.00001 0.999971
3 1 0.142827 0.999998 0.99998
639 1 0.214249 0.499995 0.928525
638 1 0.0714529 0.500005 0.928581
391 1 0.85723 0.857223 1.00001
