ITEM: TIMESTEP
111
ITEM: NUMBER OF ATOMS
690
ITEM: BOX BOUNDS pp pp pp
0.0000000000000000e+00 2.2013900999999997e+01
0.0000000000000000e+00 2.2013900999999997e+01
0.0000000000000000e+00 2.2013900999999997e+01
ITEM: ATOMS id type xs ys zs
31 1 0.142779 0.28567 5.26979e-07
2 1 0.0713892 0.0714125 0.0714203
3 1 0.142795 1.38392e-05 1.32432e-07
4 1 0.214211 0.0714048 0.0714053
688 3 0.499648 0.499202 0.443835
6 1 0.357093 0.0714058 0.0713982
175 1 0.857225 0.428545 0.428541
8 1 0.5 0.0714065 0.0713955
174 1 0.714579 0.428352 0.428314
10 1 0.642908 0.0714057 0.0713981
173 1 0.574205 0.425646 0.425593
12 1 0.78579 0.0714045 0.0714053
13 1 0.857205 1.35989e-05 8.03589e-09
14 1 0.928611 0.0714124 0.0714204
15 1 1 0.142832 2.62747e-07
16 1 0.0713841 0.214249 0.071414
193 1 0.499991 0.352794 0.500002
18 1 0.214171 0.214197 0.0713772
445 1 0.500012 0.499964 0.349818
20 1 0.357076 0.214189 0.0713723
62 1 0.857213 7.99944e-06 0.142834
22 1 0.5 0.214187 0.0713698
448 1 0.928596 0.500004 0.35713
24 1 0.642925 0.214189 0.071372
103 1 0.285624 -1.97199e-06 0.285656
26 1 0.78583 0.214197 0.0713769
186 1 0.500001 0.213451 0.500001
28 1 0.928617 0.214249 0.0714139
442 1 0.0714051 0.500004 0.35713
30 1 0.0713859 0.357119 0.0714138
153 1 0.714357 -2.52525e-05 0.428559
32 1 0.214174 0.357089 0.0713813
159 1 0.571518 0.142563 0.428476
34 1 0.357031 0.357035 0.0713018
158 1 0.428483 0.142559 0.428477
36 1 0.5 0.35703 0.0713104
344 1 0.0713865 0.499998 0.0714119
38 1 0.64297 0.357034 0.0713002
165 1 0.428193 0.284951 0.428098
40 1 0.785828 0.357089 0.0713802
164 1 0.285543 0.285514 0.428536
42 1 0.928616 0.357119 0.0714135
43 1 9.57687e-07 0.428559 3.08321e-07
163 1 0.142779 0.285655 0.428571
162 1 0.999999 0.285686 0.428575
393 1 0.0713827 0.499999 0.214252
195 1 0.785782 0.357083 0.5
161 1 0.857203 0.142803 0.428569
160 1 0.714387 0.142731 0.428553
172 1 0.425799 0.425573 0.425634
51 1 0.0713905 0.0714044 0.21428
52 1 0.142787 8.16455e-06 0.142834
53 1 0.214189 0.0713785 0.214234
54 1 0.285642 1.84969e-05 0.142811
55 1 0.357083 0.0713773 0.214215
56 1 0.428543 2.44904e-05 0.1428
57 1 0.5 0.0713785 0.214206
58 1 0.571458 2.44281e-05 0.1428
59 1 0.642917 0.0713774 0.214215
60 1 0.714358 1.83402e-05 0.142812
61 1 0.78581 0.0713786 0.214234
157 1 0.285611 0.142728 0.428553
63 1 0.928609 0.0714044 0.21428
64 1 1 0.142823 0.142843
65 1 0.0713722 0.214232 0.214255
66 1 0.142773 0.1428 0.142819
67 1 0.214121 0.214142 0.214165
68 1 0.285625 0.142772 0.142787
69 1 0.35704 0.2141 0.214129
70 1 0.428539 0.142772 0.142779
71 1 0.5 0.214107 0.214124
72 1 0.571462 0.142772 0.142779
73 1 0.642961 0.2141 0.214129
74 1 0.714376 0.142772 0.142787
75 1 0.785879 0.214142 0.214165
76 1 0.857227 0.1428 0.142819
77 1 0.928628 0.214232 0.214255
78 1 7.43816e-07 0.285685 0.142839
79 1 0.0713778 0.357121 0.214258
80 1 0.14276 0.285658 0.142808
81 1 0.214118 0.357063 0.214166
82 1 0.285528 0.28554 0.142668
83 1 0.356797 0.356785 0.213781
84 1 0.428519 0.285561 0.142691
85 1 0.5 0.356906 0.213919
86 1 0.571481 0.28556 0.14269
87 1 0.643206 0.356784 0.213777
88 1 0.714474 0.285539 0.142667
89 1 0.785885 0.357062 0.214164
90 1 0.857242 0.285657 0.142807
91 1 0.928624 0.35712 0.214257
92 1 1.08509e-06 0.42856 0.142836
93 1 0.142768 0.42855 0.142807
94 1 0.285561 0.428515 0.1427
95 1 0.428473 0.428461 0.142511
96 1 0.571528 0.428461 0.142507
97 1 0.714442 0.428515 0.142697
98 1 0.857234 0.42855 0.142806
156 1 0.142795 0.142802 0.428569
100 1 0.0713974 0.0714003 0.357146
171 1 0.285418 0.428345 0.428314
102 1 0.214206 0.0713754 0.357125
155 1 0.999999 0.142823 0.428574
104 1 0.357054 0.0713114 0.357071
105 1 0.42854 9.74184e-06 0.285642
106 1 0.500001 0.0713264 0.357073
107 1 0.571461 9.73928e-06 0.285642
108 1 0.642945 0.0713128 0.357072
109 1 0.714376 -2.0738e-06 0.285657
110 1 0.785793 0.071376 0.357125
170 1 0.142774 0.428544 0.428541
112 1 0.928601 0.0714003 0.357146
113 1 -4.79274e-07 0.142823 0.285713
114 1 0.0713867 0.214242 0.35714
115 1 0.142778 0.142797 0.285692
116 1 0.214158 0.214169 0.357098
117 1 0.285571 0.142688 0.285601
118 1 0.356909 0.213879 0.356915
119 1 0.428534 0.142702 0.285603
120 1 0.500001 0.214008 0.356986
121 1 0.571467 0.142703 0.285603
122 1 0.643089 0.213884 0.356917
123 1 0.714428 0.14269 0.285602
124 1 0.78584 0.214171 0.357099
125 1 0.857221 0.142798 0.285692
126 1 0.928612 0.214243 0.35714
127 1 1 0.285676 0.285695
128 1 0.071367 0.357112 0.357123
129 1 0.142715 0.285624 0.285644
130 1 0.214012 0.356989 0.357003
131 1 0.28536 0.285355 0.285376
132 1 0.356241 0.356181 0.356225
133 1 0.4285 0.285384 0.285431
134 1 0.500004 0.35692 0.356729
135 1 0.571502 0.285386 0.285429
136 1 0.643758 0.356189 0.356223
137 1 0.71464 0.285356 0.285376
138 1 0.785987 0.356991 0.357003
139 1 0.857285 0.285625 0.285644
140 1 0.928633 0.357112 0.357123
141 1 1 0.428568 0.2857
142 1 0.142763 0.428562 0.285662
143 1 0.285469 0.428502 0.28548
144 1 0.427816 0.427755 0.28462
145 1 0.57219 0.427757 0.284606
146 1 0.714538 0.428499 0.285473
147 1 0.85724 0.428562 0.285661
166 1 0.571803 0.284971 0.428096
169 1 1 0.428566 0.428568
168 1 0.857219 0.285656 0.428571
151 1 0.428527 -2.99907e-05 0.428534
152 1 0.571473 -2.98472e-05 0.428534
167 1 0.714453 0.28552 0.428537
44 1 0.142779 0.428552 5.4964e-07
9 1 0.571455 2.67696e-05 -9.57252e-09
7 1 0.428545 2.68709e-05 6.70313e-08
518 1 0.928602 0.500005 0.5
181 1 0.785785 0.0713727 0.5
182 1 0.928598 0.0713978 0.5
185 1 0.357045 0.214031 0.500001
191 1 0.214215 0.357081 0.500001
47 1 0.571485 0.428511 1.4214e-06
177 1 0.214213 0.0713722 0.500001
178 1 0.357071 0.0713216 0.500001
46 1 0.428516 0.428511 1.94253e-06
514 1 0.355256 0.499854 0.499999
49 1 0.857223 0.428551 1.55082e-07
48 1 0.714406 0.428527 2.30049e-07
25 1 0.714359 0.142801 3.11268e-07
35 1 0.42853 0.28561 9.49727e-07
21 1 0.428543 0.142798 4.78509e-07
176 1 0.0714003 0.0713977 0.5
27 1 0.857219 0.142811 2.35593e-07
19 1 0.285642 0.142801 4.29309e-07
41 1 0.857223 0.28567 3.07494e-07
37 1 0.57147 0.28561 8.01579e-07
256 1 0.714376 -3.06151e-06 0.714344
207 1 0.714357 -2.5688e-05 0.571441
543 1 0.499997 0.499946 0.650109
516 1 0.644701 0.499845 0.500005
180 1 0.642928 0.0713233 0.5
595 1 0.928619 0.499999 0.785749
589 1 0.0713823 0.499999 0.785749
183 1 0.0713937 0.214243 0.500001
184 1 0.21419 0.214183 0.500001
546 1 0.928596 0.500004 0.642871
188 1 0.785808 0.214185 0.5
33 1 0.285601 0.285617 1
45 1 0.285596 0.428528 1
189 1 0.928605 0.214243 0.5
540 1 0.0714044 0.500004 0.642871
29 1 1 0.285688 1
192 1 0.357083 0.356846 0.500006
23 1 0.571457 0.142798 1
194 1 0.6429 0.356861 0.499998
17 1 0.142782 0.142811 1
337 1 8.29246e-07 0.42856 0.857164
336 1 0.928616 0.357119 0.928587
198 1 0.0713974 0.0714001 0.642855
686 3 0.500023 0.499493 0.556076
200 1 0.214206 0.0713752 0.642876
343 1 0.857234 0.42855 0.857194
202 1 0.357054 0.0713114 0.64293
203 1 0.428527 -3.0232e-05 0.571467
204 1 0.5 0.0713255 0.642928
205 1 0.571473 -3.05364e-05 0.571467
206 1 0.642945 0.0713116 0.642929
342 1 0.714441 0.428515 0.857304
208 1 0.785793 0.0713754 0.642875
341 1 0.571529 0.428459 0.857496
210 1 0.928601 0.0714001 0.642855
211 1 -7.86193e-07 0.142823 0.571427
212 1 0.0713868 0.214242 0.642861
213 1 0.142795 0.142802 0.571432
214 1 0.214158 0.214169 0.642903
215 1 0.285612 0.142728 0.571449
216 1 0.35691 0.21388 0.643086
217 1 0.428483 0.142559 0.571525
218 1 0.500001 0.214006 0.643016
219 1 0.571518 0.142561 0.571525
220 1 0.64309 0.213882 0.643085
221 1 0.714387 0.14273 0.571447
222 1 0.78584 0.214171 0.642902
223 1 0.857203 0.142803 0.571432
224 1 0.928612 0.214243 0.642861
225 1 1 0.285686 0.571426
226 1 0.0713673 0.357112 0.642878
227 1 0.142779 0.285655 0.571431
228 1 0.214013 0.35699 0.642998
229 1 0.285543 0.285514 0.571467
230 1 0.356245 0.356185 0.643777
231 1 0.428194 0.284954 0.571905
232 1 0.500004 0.356913 0.643274
233 1 0.571805 0.284964 0.571905
234 1 0.643763 0.356183 0.643784
235 1 0.714453 0.285519 0.571464
236 1 0.785989 0.35699 0.642998
237 1 0.857219 0.285656 0.57143
238 1 0.928633 0.357112 0.642877
239 1 1 0.428565 0.571433
240 1 0.142774 0.428545 0.57146
241 1 0.28542 0.428347 0.571687
242 1 0.425813 0.425595 0.574381
243 1 0.574224 0.425622 0.574415
244 1 0.714584 0.428349 0.571687
245 1 0.857226 0.428545 0.571459
39 1 0.7144 0.285616 1
247 1 0.0713905 0.0714042 0.78572
340 1 0.428472 0.428459 0.857494
249 1 0.214189 0.0713784 0.785767
250 1 0.285624 -2.20811e-06 0.714344
251 1 0.357083 0.0713769 0.785786
252 1 0.42854 8.87269e-06 0.714359
253 1 0.5 0.0713778 0.785794
254 1 0.571461 8.54268e-06 0.714359
255 1 0.642917 0.0713766 0.785786
335 1 0.857242 0.285657 0.857194
257 1 0.78581 0.0713779 0.785767
339 1 0.285561 0.428515 0.857302
259 1 0.928609 0.071404 0.78572
260 1 -3.94636e-07 0.142823 0.714287
261 1 0.0713725 0.214232 0.785745
262 1 0.142779 0.142797 0.714309
263 1 0.214122 0.214142 0.785836
264 1 0.285572 0.142689 0.7144
265 1 0.35704 0.2141 0.785872
266 1 0.428534 0.142702 0.714398
267 1 0.5 0.214107 0.785877
268 1 0.571467 0.142702 0.714399
269 1 0.642961 0.2141 0.785872
270 1 0.714428 0.142689 0.7144
271 1 0.785879 0.214141 0.785836
272 1 0.857221 0.142797 0.714309
273 1 0.928628 0.214232 0.785745
274 1 1 0.285676 0.714306
275 1 0.0713777 0.35712 0.785743
276 1 0.142716 0.285625 0.714357
277 1 0.214118 0.357063 0.785836
278 1 0.285361 0.285356 0.714625
279 1 0.356799 0.356786 0.78622
280 1 0.4285 0.285385 0.714571
281 1 0.5 0.356906 0.786084
282 1 0.571502 0.285385 0.714573
283 1 0.643203 0.356785 0.786223
284 1 0.714642 0.285354 0.714626
285 1 0.785885 0.357062 0.785837
286 1 0.857285 0.285624 0.714357
287 1 0.928624 0.35712 0.785743
288 1 1 0.428568 0.714301
289 1 0.142763 0.428562 0.714339
290 1 0.285469 0.428501 0.714522
291 1 0.427822 0.427762 0.715383
292 1 0.572179 0.427763 0.715391
293 1 0.714536 0.428499 0.714527
294 1 0.857239 0.428562 0.71434
338 1 0.142768 0.42855 0.857194
296 1 0.0713893 0.0714125 0.92858
297 1 0.142787 8.06616e-06 0.857167
298 1 0.214211 0.0714047 0.928595
299 1 0.285642 1.81445e-05 0.857189
300 1 0.357093 0.0714056 0.928602
301 1 0.428543 2.38494e-05 0.857201
302 1 0.5 0.0714062 0.928605
303 1 0.571458 2.36553e-05 0.857201
304 1 0.642907 0.0714054 0.928602
305 1 0.714358 1.76499e-05 0.857189
306 1 0.785789 0.0714043 0.928595
307 1 0.857213 7.57351e-06 0.857166
308 1 0.928611 0.0714123 0.92858
309 1 1 0.142822 0.857158
310 1 0.0713841 0.214249 0.928587
311 1 0.142773 0.1428 0.857182
312 1 0.214172 0.214197 0.928624
313 1 0.285625 0.142772 0.857214
314 1 0.357076 0.214189 0.928629
315 1 0.428539 0.142771 0.857222
316 1 0.5 0.214186 0.928632
317 1 0.571462 0.142771 0.857222
318 1 0.642925 0.214189 0.928629
319 1 0.714376 0.142772 0.857214
320 1 0.785829 0.214197 0.928624
321 1 0.857228 0.1428 0.857182
322 1 0.928617 0.214249 0.928587
323 1 7.05269e-07 0.285685 0.857162
324 1 0.0713858 0.357119 0.928587
325 1 0.14276 0.285658 0.857193
326 1 0.214174 0.357089 0.92862
327 1 0.285528 0.28554 0.857333
328 1 0.357031 0.357034 0.928701
329 1 0.428519 0.28556 0.857311
330 1 0.5 0.35703 0.928692
331 1 0.571481 0.28556 0.857311
332 1 0.64297 0.357034 0.928701
333 1 0.714473 0.285539 0.857334
334 1 0.785828 0.357089 0.92862
1 1 1 1.0159e-05 1
690 3 0.500682 0.452992 0.500026
187 1 0.642951 0.214038 0.5
196 1 0.928597 0.357123 0.5
5 1 0.28565 2.1863e-05 1
11 1 0.71435 2.16021e-05 1
179 1 0.500001 0.0712247 0.5
512 1 0.0713961 0.500005 0.5
190 1 0.0714021 0.357123 0.5
689 3 0.460696 0.52384 0.500008
687 3 0.538735 0.52452 0.499729
511 1 0.857185 0.857157 0.428574
510 1 0.714355 0.857206 0.428564
509 1 0.571493 0.857356 0.428492
508 1 0.428506 0.857359 0.428492
507 1 0.285643 0.857209 0.428563
351 1 1 0.571437 1.50942e-07
352 1 0.0713835 0.64288 0.0714117
154 1 0.857191 0.99998 0.428571
354 1 0.214166 0.642911 0.071373
353 1 0.142777 0.571443 3.76409e-07
356 1 0.357017 0.642976 0.0712688
148 1 -9.89091e-07 0.999983 0.428576
358 1 0.5 0.642994 0.0712545
377 1 0.857231 0.714337 -3.26441e-07
360 1 0.642984 0.642976 0.0712677
150 1 0.285641 0.999975 0.428559
362 1 0.785835 0.642912 0.0713718
149 1 0.142807 0.999981 0.428571
364 1 0.928618 0.642881 0.0714113
365 1 1 0.714315 -6.96955e-11
366 1 0.0713787 0.78576 0.0714119
111 1 0.857201 0.999991 0.285707
368 1 0.214153 0.785828 0.0713662
101 1 0.142798 0.999992 0.285707
370 1 0.357054 0.785856 0.071349
50 1 1 1 0.142856
372 1 0.5 0.785867 0.0713412
99 1 0.999999 0.999991 0.285722
374 1 0.642946 0.785856 0.0713486
381 1 0.142771 0.857212 1.5466e-09
376 1 0.785848 0.785828 0.0713659
345 1 0.214174 0.499995 0.0713778
378 1 0.928622 0.785761 0.0714117
399 1 0.92862 0.499999 0.214252
380 1 0.0713859 0.928606 0.0714191
346 1 0.357024 0.499988 0.0712992
382 1 0.214203 0.928628 0.0714027
502 1 0.57162 0.714901 0.428151
384 1 0.357086 0.928643 0.0713925
501 1 0.428375 0.714915 0.428149
386 1 0.5 0.928648 0.0713883
500 1 0.285666 0.714386 0.428576
388 1 0.642914 0.928643 0.0713924
499 1 0.142827 0.714309 0.428583
390 1 0.785797 0.928628 0.0714026
498 1 -1.12199e-06 0.714291 0.428581
392 1 0.928614 0.928606 0.0714191
347 1 0.5 0.499985 0.0712512
394 1 0.214143 0.499995 0.214158
395 1 0.356936 0.499979 0.213882
396 1 0.500001 0.499964 0.213656
397 1 0.64307 0.499979 0.213873
506 1 0.142812 0.857158 0.428574
524 1 0.78565 0.642847 0.499999
400 1 9.76384e-07 0.571437 0.142835
401 1 0.071376 0.642878 0.214254
402 1 0.142767 0.571445 0.142802
403 1 0.21411 0.642937 0.214145
404 1 0.285559 0.571472 0.14268
405 1 0.356766 0.643258 0.213662
406 1 0.428472 0.571527 0.142426
407 1 0.500001 0.643181 0.213688
408 1 0.571529 0.571527 0.142423
409 1 0.643236 0.643258 0.21366
410 1 0.714444 0.571473 0.142676
411 1 0.785893 0.642939 0.214144
412 1 0.857235 0.571445 0.142801
413 1 0.928625 0.642879 0.214254
414 1 4.52639e-07 0.714316 0.142837
415 1 0.0713673 0.785768 0.214255
416 1 0.14275 0.714347 0.1428
417 1 0.214095 0.785884 0.214141
418 1 0.2855 0.71449 0.142627
419 1 0.357005 0.785961 0.21407
420 1 0.428496 0.714498 0.142604
421 1 0.500001 0.785962 0.214049
422 1 0.571505 0.714498 0.142603
423 1 0.642995 0.78596 0.21407
424 1 0.714501 0.71449 0.142626
425 1 0.785904 0.785884 0.214142
426 1 0.857251 0.714348 0.142799
427 1 0.928632 0.785767 0.214255
428 1 -2.26504e-07 0.857184 0.142842
429 1 0.07139 0.928591 0.214283
430 1 0.142761 0.857218 0.142813
431 1 0.214186 0.928633 0.214232
432 1 0.285607 0.857267 0.14277
433 1 0.357076 0.92866 0.214203
434 1 0.428529 0.857282 0.142751
435 1 0.5 0.928667 0.214191
436 1 0.571471 0.857282 0.142751
437 1 0.642924 0.928659 0.214203
438 1 0.714394 0.857267 0.14277
439 1 0.785814 0.928632 0.214233
440 1 0.857239 0.857217 0.142813
441 1 0.928609 0.928591 0.214283
348 1 0.642977 0.499988 0.0712965
505 1 0.999999 0.857144 0.428578
444 1 0.357172 0.499978 0.356666
504 1 0.85717 0.714307 0.428583
446 1 0.642854 0.499982 0.35664
503 1 0.714329 0.71438 0.428577
398 1 0.785861 0.499995 0.214155
449 1 7.35002e-07 0.571434 0.285699
450 1 0.071377 0.64288 0.357127
451 1 0.142767 0.571438 0.285654
452 1 0.214034 0.642994 0.356996
453 1 0.285481 0.571488 0.28543
454 1 0.356133 0.643993 0.355952
455 1 0.427849 0.572266 0.284284
456 1 0.500008 0.643529 0.356076
457 1 0.572157 0.572265 0.284278
458 1 0.643862 0.643982 0.355958
459 1 0.714527 0.571491 0.285424
460 1 0.785963 0.642991 0.356998
461 1 0.857236 0.571439 0.285653
462 1 0.928622 0.64288 0.357127
463 1 1 0.714316 0.285699
464 1 0.0713977 0.785732 0.357151
465 1 0.142712 0.714371 0.285641
466 1 0.214194 0.785792 0.357119
467 1 0.285301 0.714705 0.285295
468 1 0.356951 0.786103 0.356917
469 1 0.428435 0.71475 0.285249
470 1 0.500001 0.786053 0.356917
471 1 0.571568 0.714749 0.285248
472 1 0.643047 0.786098 0.356919
473 1 0.714697 0.714702 0.285297
474 1 0.785804 0.785789 0.35712
475 1 0.857287 0.71437 0.285642
476 1 0.9286 0.785732 0.357151
477 1 -7.43327e-07 0.85716 0.285721
478 1 0.0714005 0.928571 0.357149
479 1 0.142785 0.857186 0.2857
480 1 0.214215 0.928592 0.357131
481 1 0.285574 0.857315 0.285598
482 1 0.357063 0.928661 0.357074
483 1 0.428526 0.857343 0.285568
484 1 0.5 0.928665 0.357069
485 1 0.571475 0.857342 0.285568
486 1 0.642936 0.92866 0.357075
487 1 0.714425 0.857313 0.2856
488 1 0.785783 0.928591 0.357131
489 1 0.857214 0.857186 0.285701
490 1 0.928598 0.928571 0.35715
491 1 -5.76804e-07 0.571436 0.42857
492 1 0.142814 0.571455 0.428538
493 1 0.285599 0.571607 0.428263
494 1 0.42627 0.574901 0.424217
495 1 0.573734 0.574833 0.424216
496 1 0.714397 0.571598 0.428267
497 1 0.857185 0.571454 0.428539
367 1 0.14277 0.714337 1.50567e-07
350 1 0.928616 0.499998 0.0714115
349 1 0.785828 0.499995 0.0713764
517 1 0.785893 0.500015 0.5
389 1 0.714374 0.85724 -4.83863e-07
519 1 0.0714321 0.642861 0.5
443 1 0.214229 0.500007 0.35706
447 1 0.785777 0.500007 0.357057
532 1 0.928588 0.785722 0.5
383 1 0.285626 0.85724 -1.28291e-07
385 1 0.428535 0.857255 -3.12102e-07
539 1 0.928593 0.928564 0.5
537 1 0.642917 0.928603 0.5
521 1 0.357431 0.642745 0.499998
522 1 0.49999 0.645679 0.500002
531 1 0.78576 0.785753 0.5
639 1 0.214174 0.499994 0.928623
685 1 0.857238 0.857217 0.857187
295 1 1 1 0.857144
515 1 0.928614 0.928606 0.928581
258 1 0.857201 0.999991 0.714293
684 1 0.785796 0.928628 0.928597
544 1 0.642853 0.499981 0.643357
541 1 0.214226 0.500007 0.642942
248 1 0.142798 0.999991 0.714294
209 1 0.857191 0.99998 0.571429
545 1 0.785777 0.500007 0.642944
523 1 0.642553 0.64273 0.499995
527 1 0.214237 0.785756 0.5
525 1 0.928565 0.64286 0.5
542 1 0.357161 0.499979 0.643337
201 1 0.285642 0.999975 0.571442
199 1 0.142807 0.99998 0.571429
528 1 0.357108 0.785825 0.5
672 1 0.928621 0.78576 0.928588
671 1 0.85725 0.714347 0.8572
246 1 0.999999 0.999991 0.714279
197 1 0.999999 0.999983 0.571425
640 1 0.357024 0.499988 0.928703
641 1 0.5 0.499985 0.928754
670 1 0.785847 0.785828 0.928633
642 1 0.642977 0.499988 0.928704
643 1 0.785828 0.499995 0.928624
375 1 0.714418 0.714404 0.999999
373 1 0.571483 0.714428 0.999999
683 1 0.714393 0.857266 0.857229
682 1 0.642914 0.928643 0.928607
681 1 0.571471 0.857281 0.857248
680 1 0.5 0.928648 0.928611
679 1 0.428529 0.857281 0.857248
371 1 0.428517 0.714428 1
547 1 -8.98098e-07 0.571436 0.571431
548 1 0.0713764 0.64288 0.642873
549 1 0.142812 0.571455 0.571462
550 1 0.214033 0.642994 0.643005
551 1 0.285594 0.571608 0.571737
552 1 0.356131 0.643993 0.644051
553 1 0.426252 0.5749 0.575784
554 1 0.500008 0.643522 0.643916
555 1 0.573746 0.574838 0.575765
556 1 0.643861 0.64398 0.64404
557 1 0.714401 0.571599 0.571733
558 1 0.785963 0.642991 0.643002
559 1 0.857185 0.571454 0.571461
560 1 0.928621 0.64288 0.642873
561 1 0.999999 0.714291 0.571419
562 1 0.0713975 0.785732 0.64285
563 1 0.142827 0.714309 0.571417
564 1 0.214194 0.785791 0.642882
565 1 0.285666 0.714386 0.571424
566 1 0.356951 0.786102 0.643084
567 1 0.428374 0.714915 0.571851
568 1 0.500001 0.786051 0.643082
569 1 0.571622 0.714902 0.571847
570 1 0.643046 0.786096 0.643081
571 1 0.714328 0.714378 0.571421
572 1 0.785803 0.785788 0.64288
573 1 0.85717 0.714307 0.571417
574 1 0.9286 0.785731 0.642849
575 1 -1.26645e-06 0.857144 0.571423
576 1 0.0714004 0.928571 0.642851
577 1 0.142812 0.857158 0.571427
578 1 0.214215 0.928591 0.64287
579 1 0.285643 0.857209 0.571437
580 1 0.357063 0.92866 0.642926
581 1 0.428506 0.857359 0.571508
582 1 0.5 0.928663 0.642931
583 1 0.571493 0.857356 0.571508
584 1 0.642936 0.928659 0.642925
585 1 0.714355 0.857205 0.571436
586 1 0.785783 0.92859 0.642869
587 1 0.857185 0.857156 0.571426
588 1 0.928597 0.928571 0.642851
363 1 0.857225 0.571444 1
590 1 0.214142 0.499995 0.785844
591 1 0.356936 0.499978 0.78612
592 1 0.499999 0.499962 0.786364
593 1 0.643067 0.499978 0.786126
594 1 0.78586 0.499995 0.785845
361 1 0.714409 0.571461 1
596 1 1.35781e-07 0.571433 0.714302
597 1 0.0713756 0.642878 0.785746
598 1 0.142766 0.571438 0.714347
599 1 0.214109 0.642937 0.785855
600 1 0.28548 0.571488 0.714572
601 1 0.356769 0.643255 0.786336
602 1 0.427857 0.572253 0.71571
603 1 0.5 0.643176 0.786309
604 1 0.572142 0.572249 0.71571
605 1 0.643231 0.643253 0.786334
606 1 0.714523 0.571489 0.714575
607 1 0.785891 0.642937 0.785855
608 1 0.857235 0.571438 0.714347
609 1 0.928625 0.642878 0.785746
610 1 -8.76086e-07 0.714316 0.714302
611 1 0.071367 0.785767 0.785745
612 1 0.142712 0.714371 0.714359
613 1 0.214095 0.785884 0.78586
614 1 0.2853 0.714705 0.714705
615 1 0.357006 0.785959 0.785929
616 1 0.428436 0.714745 0.714749
617 1 0.5 0.785959 0.785949
618 1 0.571566 0.714743 0.714749
619 1 0.642994 0.785958 0.785928
620 1 0.714696 0.714701 0.714701
621 1 0.785903 0.785883 0.785858
622 1 0.857286 0.714369 0.714358
623 1 0.928632 0.785767 0.785745
624 1 0.999999 0.85716 0.71428
625 1 0.07139 0.928591 0.785717
626 1 0.142785 0.857186 0.7143
627 1 0.214186 0.928632 0.785768
628 1 0.285574 0.857314 0.714402
629 1 0.357076 0.928659 0.785797
630 1 0.428526 0.857341 0.714432
631 1 0.5 0.928665 0.785809
632 1 0.571475 0.85734 0.714432
633 1 0.642924 0.928658 0.785796
634 1 0.714424 0.857312 0.7144
635 1 0.785813 0.928631 0.785767
636 1 0.857213 0.857185 0.714299
637 1 0.928609 0.928591 0.785717
355 1 0.285592 0.57146 1
678 1 0.357086 0.928643 0.928607
677 1 0.285607 0.857267 0.85723
676 1 0.214203 0.928628 0.928597
675 1 0.142761 0.857217 0.857187
674 1 0.0713859 0.928606 0.928581
673 1 1 0.857184 0.857158
645 1 5.78386e-07 0.571437 0.857166
646 1 0.0713833 0.64288 0.928589
647 1 0.142767 0.571445 0.857198
648 1 0.214166 0.642911 0.928628
649 1 0.285559 0.571472 0.857321
650 1 0.357017 0.642976 0.928732
651 1 0.428471 0.571527 0.857576
652 1 0.5 0.642993 0.928745
653 1 0.571529 0.571526 0.857576
654 1 0.642983 0.642976 0.928731
655 1 0.714442 0.571473 0.857322
656 1 0.785835 0.642911 0.928627
657 1 0.857235 0.571445 0.857198
658 1 0.928618 0.642881 0.928589
659 1 1 0.714316 0.857163
660 1 0.0713787 0.78576 0.928588
661 1 0.14275 0.714347 0.8572
662 1 0.214153 0.785828 0.928634
663 1 0.285501 0.714489 0.857373
664 1 0.357054 0.785856 0.92865
665 1 0.428497 0.714496 0.857395
666 1 0.5 0.785867 0.928658
667 1 0.571504 0.714496 0.857394
668 1 0.642946 0.785855 0.92865
669 1 0.714499 0.714488 0.857371
357 1 0.428513 0.571476 1
359 1 0.571487 0.571476 1
536 1 0.5 0.928678 0.5
638 1 0.0713864 0.499998 0.928589
530 1 0.642888 0.785818 0.499999
644 1 0.928615 0.499998 0.928589
379 1 1 0.857183 1
513 1 0.2141 0.500017 0.5
520 1 0.214344 0.64285 0.499999
391 1 0.857229 0.857212 1
526 1 0.0714091 0.785722 0.5
529 1 0.5 0.786287 0.5
533 1 0.0714044 0.928564 0.5
369 1 0.285582 0.714404 1
534 1 0.214224 0.928577 0.5
535 1 0.357081 0.928605 0.5
387 1 0.571465 0.857255 1
538 1 0.785774 0.928576 0.5
