ITEM: TIMESTEP
118
ITEM: NUMBER OF ATOMS
695
ITEM: BOX BOUNDS pp pp pp
0.0000000000000000e+00 2.2009546999999998e+01
0.0000000000000000e+00 2.2009546999999998e+01
0.0000000000000000e+00 2.2009546999999998e+01
ITEM: ATOMS id type xs ys zs
446 1 0.644794 0.497326 0.353377
2 1 0.0713941 0.0713598 0.0713619
447 1 0.786345 0.499603 0.356709
4 1 0.214222 0.0714685 0.0713892
692 3 0.491292 0.480369 0.421233
6 1 0.357106 0.0714776 0.0714011
687 2 0.432974 0.470806 0.366101
8 1 0.500006 0.0713613 0.0713538
175 1 0.857658 0.428298 0.428553
10 1 0.642975 0.0711829 0.0712933
399 1 0.928733 0.499916 0.214088
12 1 0.785982 0.0710572 0.0712491
445 1 0.518124 0.490409 0.332138
14 1 0.92873 0.0712113 0.0713486
444 1 0.346054 0.499989 0.355265
16 1 0.07145 0.214084 0.071303
398 1 0.786263 0.49976 0.213783
18 1 0.214186 0.214127 0.0712983
393 1 0.0711233 0.499981 0.214051
20 1 0.35708 0.214123 0.0713404
50 1 0.999983 -4.19e-05 0.142803
22 1 0.500002 0.213965 0.0712423
101 1 0.142659 9.93579e-05 0.285693
24 1 0.643168 0.213666 0.0709956
148 1 0.999916 -4.95152e-05 0.428637
26 1 0.786484 0.213474 0.0708269
154 1 0.857226 -0.000155106 0.428631
28 1 0.928939 0.21393 0.0712286
348 1 0.643235 0.499825 0.0709562
30 1 0.0714221 0.357007 0.0712913
396 1 0.501547 0.49916 0.212198
32 1 0.214139 0.357011 0.0712024
394 1 0.213374 0.499842 0.213506
34 1 0.35707 0.356974 0.0712048
345 1 0.214074 0.499992 0.0711348
36 1 0.500095 0.356785 0.0710447
344 1 0.0713402 0.49997 0.0712753
38 1 0.643613 0.356371 0.0702383
170 1 0.142187 0.428519 0.428652
40 1 0.786385 0.356752 0.070904
347 1 0.500283 0.499805 0.0709614
42 1 0.928883 0.356946 0.0712364
164 1 0.28466 0.284645 0.428795
169 1 0.999942 0.428492 0.428605
168 1 0.857712 0.285203 0.428628
167 1 0.71556 0.284471 0.428809
166 1 0.57216 0.284637 0.428861
165 1 0.428435 0.285111 0.428907
163 1 0.142299 0.285326 0.428692
174 1 0.715633 0.427985 0.428458
51 1 0.071366 0.0713449 0.21424
52 1 0.142673 0.000146346 0.142729
53 1 0.214118 0.0714526 0.214187
54 1 0.285588 0.000245128 0.14274
55 1 0.357097 0.0715595 0.21424
56 1 0.428532 0.000212547 0.142745
57 1 0.500038 0.071467 0.21422
58 1 0.571477 4.78933e-05 0.142724
59 1 0.643039 0.0710879 0.214158
162 1 1 0.285441 0.428638
61 1 0.785981 0.0710663 0.214181
161 1 0.857432 0.142447 0.428643
63 1 0.928706 0.0712097 0.214233
64 1 0.000108019 0.142633 0.142766
65 1 0.0713579 0.214041 0.214169
66 1 0.142728 0.142688 0.142709
67 1 0.213885 0.213832 0.213945
68 1 0.285665 0.142812 0.142795
69 1 0.357123 0.214126 0.214225
70 1 0.428585 0.142778 0.142796
71 1 0.500129 0.21403 0.214157
72 1 0.57153 0.142498 0.142649
73 1 0.643627 0.212958 0.213648
74 1 0.714758 0.142114 0.142484
75 1 0.786481 0.213465 0.213925
76 1 0.857527 0.142408 0.142665
77 1 0.928905 0.213913 0.214153
78 1 0.000189492 0.285466 0.142691
79 1 0.0712739 0.356975 0.21413
80 1 0.142604 0.285403 0.142563
81 1 0.213396 0.356491 0.213584
82 1 0.285435 0.285407 0.142495
83 1 0.356435 0.356616 0.213611
84 1 0.4284 0.285324 0.142543
85 1 0.499278 0.356321 0.213307
86 1 0.571661 0.284824 0.142059
87 1 0.647204 0.353025 0.210061
88 1 0.716073 0.283917 0.141209
89 1 0.787298 0.356191 0.21344
90 1 0.857948 0.285125 0.142402
91 1 0.92904 0.356864 0.214079
92 1 1.00007 0.428464 0.142676
93 1 0.142547 0.428425 0.142543
94 1 0.285394 0.428473 0.142328
95 1 0.428444 0.428404 0.14229
96 1 0.572528 0.427311 0.14163
97 1 0.715309 0.428273 0.141848
98 1 0.857663 0.428383 0.142494
99 1 0.999953 -4.89727e-05 0.285706
100 1 0.0713192 0.0713368 0.35717
173 1 0.575836 0.425888 0.428894
102 1 0.214066 0.0714022 0.357169
103 1 0.285497 0.000333599 0.285642
104 1 0.35705 0.0715077 0.3572
105 1 0.428502 0.000324249 0.28567
106 1 0.500037 0.0714597 0.357168
107 1 0.571453 0.000110839 0.285676
108 1 0.643004 0.0711675 0.357156
109 1 0.714422 -0.000121351 0.285687
110 1 0.785951 0.0710884 0.357158
160 1 0.714671 0.142273 0.428636
112 1 0.928668 0.0712103 0.357167
113 1 1.00006 0.142624 0.285687
114 1 0.0712822 0.214024 0.357151
115 1 0.142677 0.142676 0.285666
116 1 0.213826 0.213866 0.357115
117 1 0.285516 0.142636 0.285643
118 1 0.356892 0.213735 0.357154
119 1 0.428606 0.142841 0.285707
120 1 0.500357 0.21397 0.357019
121 1 0.571664 0.142523 0.285588
122 1 0.643439 0.213418 0.357048
123 1 0.714731 0.142213 0.285607
124 1 0.786364 0.21357 0.357114
125 1 0.85748 0.142429 0.285654
126 1 0.928831 0.213915 0.357144
127 1 1.00009 0.285448 0.285645
128 1 0.071113 0.35696 0.357143
129 1 0.142397 0.285382 0.285559
130 1 0.213049 0.356636 0.357083
131 1 0.284581 0.284567 0.284914
132 1 0.353723 0.354738 0.35527
133 1 0.428555 0.285601 0.285875
134 1 0.502362 0.355581 0.355824
135 1 0.5729 0.284821 0.284546
136 1 0.645518 0.354719 0.357461
137 1 0.715713 0.284288 0.28522
138 1 0.786796 0.356428 0.356978
139 1 0.857821 0.285152 0.285552
140 1 0.928876 0.356868 0.357094
141 1 1.00003 0.428501 0.285642
142 1 0.142228 0.428548 0.28558
143 1 0.283343 0.427106 0.283951
144 1 0.426182 0.426916 0.284621
145 1 0.580318 0.417093 0.277963
146 1 0.716079 0.426801 0.284149
147 1 0.857783 0.428253 0.285433
172 1 0.424021 0.411507 0.431221
149 1 0.14261 9.58389e-05 0.428647
150 1 0.285449 0.000201275 0.42866
151 1 0.428475 0.000276903 0.42867
152 1 0.571422 -1.50746e-05 0.428652
153 1 0.714399 -0.000137524 0.428628
171 1 0.283955 0.427078 0.429609
155 1 1.00001 0.142621 0.428646
156 1 0.142616 0.142654 0.428667
157 1 0.285427 0.142563 0.428685
158 1 0.428619 0.142767 0.42869
159 1 0.571614 0.142473 0.428679
48 1 0.7147 0.428379 0.999682
177 1 0.214027 0.071383 0.500166
178 1 0.357011 0.0714374 0.500163
179 1 0.500013 0.0713335 0.500144
180 1 0.643006 0.0710945 0.500118
47 1 0.571665 0.428307 0.999697
182 1 0.928636 0.0712119 0.500109
183 1 0.071227 0.214016 0.50017
184 1 0.213746 0.2138 0.500311
185 1 0.356766 0.213506 0.500387
46 1 0.428608 0.428449 0.999887
639 1 0.214191 0.499986 0.928642
188 1 0.786341 0.213576 0.500226
189 1 0.928786 0.213927 0.500135
190 1 0.0710343 0.356965 0.500167
191 1 0.21279 0.356484 0.50061
192 1 0.353334 0.354181 0.502984
193 1 0.50248 0.356061 0.502612
194 1 0.645118 0.355016 0.500727
45 1 0.285668 0.428529 0.999922
196 1 0.928828 0.356884 0.500111
197 1 0.999895 -4.77402e-05 0.571573
198 1 0.0712791 0.0713364 0.64308
343 1 0.857401 0.428442 0.857292
200 1 0.214024 0.0714104 0.643191
201 1 0.285438 0.00031851 0.571714
202 1 0.357034 0.0714261 0.643158
203 1 0.428494 0.000206043 0.571659
204 1 0.500017 0.0712913 0.643141
205 1 0.571431 -5.25767e-05 0.571597
206 1 0.643011 0.0710355 0.643109
207 1 0.714383 -0.000175177 0.571566
208 1 0.785912 0.0710746 0.64306
209 1 0.857207 -0.0001576 0.571561
210 1 0.928632 0.0712134 0.643034
211 1 0.999987 0.142624 0.571607
212 1 0.0712273 0.214013 0.643174
213 1 0.142584 0.142636 0.571691
214 1 0.213724 0.213754 0.643504
215 1 0.285406 0.142517 0.571789
216 1 0.35692 0.213793 0.643375
217 1 0.428569 0.14258 0.571722
218 1 0.500095 0.213719 0.643386
219 1 0.571619 0.142268 0.571721
220 1 0.643537 0.213091 0.643583
221 1 0.714664 0.142222 0.571671
222 1 0.786328 0.213561 0.643297
223 1 0.857417 0.142444 0.571624
224 1 0.928782 0.213942 0.643101
225 1 0.999982 0.285455 0.57164
226 1 0.0711783 0.356966 0.643187
227 1 0.142223 0.285301 0.571883
228 1 0.213426 0.356664 0.643651
229 1 0.284315 0.284399 0.57275
230 1 0.355928 0.355993 0.644471
231 1 0.428452 0.284785 0.572099
232 1 0.499958 0.356299 0.643967
233 1 0.572608 0.283878 0.572661
234 1 0.645663 0.354287 0.645669
235 1 0.715507 0.284434 0.572103
236 1 0.78694 0.35631 0.643653
237 1 0.857687 0.285222 0.571678
238 1 0.928905 0.356869 0.64316
239 1 0.999944 0.428484 0.571632
240 1 0.142103 0.428518 0.571809
241 1 0.283671 0.42796 0.572751
242 1 0.424604 0.426043 0.573213
243 1 0.578707 0.422426 0.577609
244 1 0.71645 0.427146 0.572863
245 1 0.857821 0.428259 0.57175
342 1 0.714638 0.428371 0.857401
247 1 0.0713229 0.0713606 0.785963
248 1 0.142586 0.000152027 0.714626
249 1 0.214145 0.0714262 0.786007
250 1 0.285521 0.000207187 0.714645
251 1 0.357069 0.0714122 0.785984
252 1 0.428513 0.000119096 0.714603
253 1 0.500005 0.0713048 0.785961
254 1 0.571475 -4.06354e-05 0.714552
255 1 0.642962 0.0711704 0.785941
256 1 0.714402 -0.000180115 0.714503
257 1 0.785912 0.0710945 0.785935
258 1 0.857216 -0.000151965 0.714465
259 1 0.92866 0.0712222 0.785892
260 1 1.00001 0.142637 0.714522
261 1 0.0713723 0.214092 0.785998
262 1 0.142622 0.142662 0.71466
263 1 0.214068 0.214052 0.786144
264 1 0.285538 0.142675 0.714667
265 1 0.357046 0.214056 0.786082
266 1 0.428535 0.142633 0.71463
267 1 0.500023 0.213932 0.786082
268 1 0.571541 0.14244 0.714647
269 1 0.643123 0.213747 0.786139
270 1 0.714662 0.142218 0.714696
271 1 0.786248 0.213663 0.786167
272 1 0.857421 0.14245 0.71455
273 1 0.928819 0.213975 0.785965
274 1 1.00008 0.285477 0.714573
275 1 0.0713487 0.357005 0.785998
276 1 0.14253 0.285429 0.714754
277 1 0.214069 0.357011 0.786126
278 1 0.285186 0.285186 0.71511
279 1 0.356959 0.356891 0.786278
280 1 0.428465 0.28522 0.714884
281 1 0.50005 0.356774 0.786207
282 1 0.571693 0.284928 0.715084
283 1 0.643415 0.356523 0.786608
284 1 0.715461 0.284465 0.715451
285 1 0.786232 0.356777 0.786163
286 1 0.85772 0.285213 0.714732
287 1 0.928786 0.356954 0.78596
288 1 0.999975 0.428463 0.714576
289 1 0.142454 0.428422 0.714767
290 1 0.285263 0.428471 0.714927
291 1 0.428285 0.428176 0.714993
292 1 0.572221 0.427754 0.715646
293 1 0.715113 0.428186 0.715161
294 1 0.85754 0.428388 0.714651
295 1 0.999961 -4.25022e-05 0.857298
296 1 0.0714198 0.0713564 0.92866
297 1 0.14273 6.74797e-05 0.857355
298 1 0.214231 0.0714325 0.928689
299 1 0.285616 9.55267e-05 0.857355
300 1 0.3571 0.0714199 0.928682
341 1 0.571594 0.42834 0.857467
302 1 0.500001 0.0713302 0.928648
340 1 0.42856 0.428426 0.857379
304 1 0.642938 0.0712199 0.92861
305 1 0.714368 -0.000149774 0.857264
306 1 0.785882 0.0711529 0.928587
307 1 0.857232 -0.000154844 0.857266
308 1 0.928711 0.0712199 0.928605
309 1 7.94047e-05 0.142674 0.8573
310 1 0.0714699 0.214153 0.928648
311 1 0.142784 0.142749 0.857368
312 1 0.214236 0.214182 0.928703
313 1 0.285646 0.142775 0.857369
314 1 0.357112 0.214157 0.928694
315 1 0.428545 0.14271 0.857343
316 1 0.50002 0.21404 0.928643
317 1 0.571493 0.14259 0.85732
318 1 0.643037 0.213906 0.92857
319 1 0.714497 0.142479 0.857309
320 1 0.786104 0.213837 0.928526
321 1 0.857421 0.142494 0.85729
322 1 0.928809 0.214036 0.928595
323 1 0.000107342 0.285549 0.8573
324 1 0.0714524 0.357047 0.92864
325 1 0.142795 0.285596 0.857365
326 1 0.214237 0.357074 0.928668
327 1 0.285608 0.285556 0.857459
328 1 0.357122 0.357027 0.92869
329 1 0.428558 0.285487 0.857402
330 1 0.500067 0.356917 0.928623
331 1 0.571551 0.285345 0.857404
332 1 0.643146 0.356807 0.928512
333 1 0.714714 0.285225 0.85745
334 1 0.786083 0.356889 0.928545
335 1 0.857481 0.285414 0.857316
336 1 0.928784 0.35699 0.928595
337 1 5.06947e-05 0.428489 0.857295
338 1 0.142754 0.428511 0.857358
339 1 0.28562 0.428522 0.857385
514 1 0.35248 0.5 0.501735
515 1 0.507366 0.48676 0.519679
516 1 0.645929 0.497315 0.50287
44 1 0.14279 0.428512 0.999938
593 1 0.643202 0.499853 0.786277
540 1 0.0710202 0.499983 0.643236
541 1 0.21326 0.499837 0.643756
543 1 0.500561 0.498858 0.644229
39 1 0.714815 0.285145 0.99952
37 1 0.571564 0.285313 0.999759
589 1 0.07127 0.499965 0.786003
35 1 0.428571 0.285513 0.999951
592 1 0.500032 0.499788 0.786117
1 1 0.999997 -4.73675e-05 0.999986
33 1 0.285665 0.285598 0.99998
15 1 0.000130531 0.14266 0.999955
27 1 0.857497 0.142445 0.999839
31 1 0.142833 0.285597 0.999961
303 1 0.571454 -6.61814e-05 0.857289
301 1 0.428532 3.66555e-05 0.857326
246 1 0.999903 -3.73444e-05 0.714487
199 1 0.142591 0.000106122 0.571626
638 1 0.0713841 0.499969 0.928636
640 1 0.357125 0.499967 0.928614
3 1 0.14277 7.26526e-05 1
11 1 0.714386 -0.000140067 0.99994
17 1 0.142834 0.142765 1
19 1 0.285675 0.142804 1.00003
21 1 0.428551 0.14274 1.00001
5 1 0.285638 0.000114532 1.00001
7 1 0.428536 6.55073e-05 0.999996
9 1 0.571456 -4.05186e-05 0.999965
23 1 0.571491 0.142595 0.999932
25 1 0.714529 0.142448 0.999843
517 1 0.786644 0.499676 0.500287
29 1 0.000154399 0.285545 0.999945
41 1 0.857553 0.285392 0.999813
43 1 9.20275e-05 0.42849 0.999945
181 1 0.785922 0.0710856 0.500113
176 1 0.0712832 0.0713328 0.500129
49 1 0.857457 0.428443 0.999849
195 1 0.7867 0.356497 0.500181
187 1 0.643469 0.213336 0.50025
186 1 0.500226 0.213825 0.500347
695 3 0.495914 0.561961 0.465127
694 3 0.436358 0.521189 0.377631
346 1 0.357105 0.5 0.0711637
111 1 0.857259 0.999852 0.285694
62 1 0.85729 0.999854 0.142767
349 1 0.786151 0.499941 0.0710479
350 1 0.928744 0.49995 0.0712615
60 1 0.71445 0.999852 0.142716
352 1 0.0712408 0.642929 0.0712634
443 1 0.213955 0.500255 0.357271
354 1 0.213979 0.643012 0.0710508
493 1 0.284474 0.574597 0.429635
356 1 0.357014 0.643027 0.0710716
492 1 0.142329 0.571847 0.428654
358 1 0.500011 0.643027 0.0709891
491 1 0.999838 0.571482 0.428593
360 1 0.643174 0.643088 0.0707935
490 1 0.928545 0.928561 0.357161
362 1 0.785972 0.642921 0.0711467
489 1 0.857231 0.857235 0.285654
364 1 0.928615 0.64288 0.0713008
488 1 0.785817 0.928578 0.357147
366 1 0.0711913 0.785889 0.0712511
498 1 0.999801 0.714443 0.428618
368 1 0.213938 0.786059 0.0710473
509 1 0.571302 0.857313 0.428657
370 1 0.356939 0.786099 0.0710225
508 1 0.428072 0.858084 0.428702
372 1 0.499961 0.786035 0.0710705
507 1 0.285185 0.857664 0.428658
374 1 0.642984 0.785967 0.0710897
506 1 0.142392 0.857531 0.428633
376 1 0.785965 0.785927 0.0711143
487 1 0.714483 0.857511 0.285558
378 1 0.928588 0.785793 0.0713024
505 1 0.999806 0.857267 0.428626
380 1 0.0712526 0.928717 0.0713056
504 1 0.857315 0.714411 0.428589
382 1 0.214087 0.928836 0.0712739
503 1 0.715002 0.714849 0.428577
384 1 0.357034 0.928842 0.0712826
502 1 0.572049 0.713889 0.428046
386 1 0.499987 0.928757 0.0712793
501 1 0.425228 0.717464 0.428146
388 1 0.642941 0.928645 0.0712741
500 1 0.285987 0.714156 0.428704
390 1 0.785858 0.928563 0.0712816
499 1 0.142435 0.7147 0.428662
392 1 0.9286 0.928571 0.0713423
497 1 0.857311 0.571316 0.42851
693 3 0.498656 0.560378 0.394033
395 1 0.356667 0.500065 0.213712
691 3 0.434528 0.509709 0.455896
397 1 0.643419 0.499921 0.213237
496 1 0.714811 0.571015 0.428464
495 1 0.589482 0.572706 0.427732
400 1 0.999924 0.571437 0.142681
401 1 0.0710126 0.642998 0.214035
402 1 0.142468 0.571502 0.142489
403 1 0.213172 0.643474 0.213271
404 1 0.285359 0.571597 0.142135
405 1 0.356314 0.643826 0.213372
406 1 0.42856 0.571539 0.142368
407 1 0.499751 0.643908 0.213136
408 1 0.571915 0.571854 0.141839
409 1 0.644418 0.644485 0.212342
410 1 0.714802 0.571446 0.14227
411 1 0.786302 0.643081 0.213827
412 1 0.857388 0.571395 0.142609
413 1 0.928629 0.642906 0.214121
414 1 0.99985 0.714396 0.142688
415 1 0.070958 0.786028 0.21404
416 1 0.142323 0.714638 0.142399
417 1 0.213078 0.78692 0.213245
418 1 0.285161 0.71485 0.141974
419 1 0.356533 0.786896 0.213269
420 1 0.428311 0.714862 0.142064
421 1 0.500039 0.786793 0.213485
422 1 0.571537 0.714869 0.142157
423 1 0.643305 0.786592 0.213642
424 1 0.714929 0.714908 0.142046
425 1 0.786129 0.786119 0.213892
426 1 0.857364 0.714423 0.14261
427 1 0.928564 0.785843 0.214155
428 1 0.999847 0.85728 0.14272
429 1 0.0712302 0.928713 0.214212
430 1 0.142362 0.857621 0.142468
431 1 0.213893 0.929088 0.214016
432 1 0.285338 0.857725 0.142399
433 1 0.356947 0.929123 0.214038
434 1 0.428448 0.857672 0.142466
435 1 0.499973 0.929025 0.21407
436 1 0.571524 0.857568 0.142505
437 1 0.642962 0.928788 0.214129
438 1 0.714527 0.857437 0.142546
439 1 0.785868 0.928611 0.214175
440 1 0.857282 0.857263 0.142676
441 1 0.928584 0.928567 0.214236
442 1 0.0712272 0.500085 0.357166
689 2 0.523969 0.514905 0.42477
688 2 0.472668 0.532267 0.429345
511 1 0.857181 0.857207 0.428616
510 1 0.714438 0.857386 0.428617
494 1 0.40653 0.597969 0.430987
448 1 0.92872 0.499921 0.357082
449 1 0.999868 0.571454 0.285618
450 1 0.0709728 0.643089 0.357107
451 1 0.142103 0.571538 0.285417
452 1 0.212933 0.643674 0.356456
453 1 0.283308 0.571881 0.283241
454 1 0.352187 0.64727 0.346528
455 1 0.428175 0.572394 0.283594
456 1 0.498561 0.648942 0.354976
457 1 0.574571 0.577375 0.282741
458 1 0.645078 0.645733 0.354964
459 1 0.715416 0.57164 0.284901
460 1 0.786282 0.642995 0.356961
461 1 0.85748 0.571371 0.285484
462 1 0.928578 0.642901 0.357108
463 1 0.999748 0.714434 0.285622
464 1 0.0710856 0.785962 0.357164
465 1 0.141854 0.714839 0.285302
466 1 0.213647 0.786291 0.357242
467 1 0.28277 0.717259 0.283105
468 1 0.355934 0.787499 0.356085
469 1 0.428183 0.716823 0.283654
470 1 0.499741 0.786787 0.357077
471 1 0.571967 0.716451 0.284409
472 1 0.64308 0.786575 0.357006
473 1 0.715301 0.715361 0.284809
474 1 0.785965 0.785986 0.357061
475 1 0.857386 0.714445 0.285558
476 1 0.928536 0.785826 0.357136
477 1 0.99985 0.857256 0.285687
478 1 0.0712017 0.928705 0.357157
479 1 0.142438 0.857506 0.285634
480 1 0.213937 0.928905 0.357166
481 1 0.284997 0.858299 0.285195
482 1 0.356819 0.929213 0.357098
483 1 0.42836 0.858127 0.285375
484 1 0.499902 0.928978 0.357164
485 1 0.571423 0.857861 0.285494
486 1 0.642875 0.928737 0.357178
512 1 0.0710271 0.500085 0.500132
513 1 0.213069 0.500256 0.500195
690 2 0.531267 0.573113 0.498529
686 1 0.92859 0.928531 0.928615
685 1 0.857179 0.857151 0.857266
684 1 0.785783 0.928505 0.928593
683 1 0.714339 0.857157 0.857272
519 1 0.0708632 0.643095 0.500171
520 1 0.212626 0.643942 0.501196
521 1 0.351326 0.648936 0.512153
522 1 0.498221 0.653081 0.50225
523 1 0.645095 0.645501 0.502218
391 1 0.857229 0.857176 0.999912
389 1 0.71437 0.8572 0.999885
387 1 0.571447 0.857265 0.99989
385 1 0.428505 0.857346 0.999901
528 1 0.355937 0.787577 0.501203
529 1 0.499782 0.785976 0.500166
667 1 0.571418 0.714327 0.857307
666 1 0.499964 0.785826 0.928596
532 1 0.928487 0.785818 0.500091
533 1 0.0711628 0.928714 0.500119
665 1 0.428474 0.714384 0.857385
535 1 0.356784 0.929223 0.500239
536 1 0.499907 0.928778 0.500131
664 1 0.357028 0.785883 0.928644
538 1 0.785789 0.928555 0.500097
539 1 0.928513 0.928558 0.500094
682 1 0.642897 0.928552 0.928603
681 1 0.571439 0.857219 0.857313
542 1 0.356472 0.50007 0.643594
680 1 0.499984 0.928639 0.928632
544 1 0.643966 0.500047 0.644288
679 1 0.4285 0.857315 0.857376
678 1 0.357061 0.928713 0.928665
547 1 0.999756 0.571482 0.571642
548 1 0.0708836 0.643017 0.64328
549 1 0.141912 0.571597 0.571953
550 1 0.213121 0.643319 0.643971
551 1 0.283341 0.571177 0.573396
552 1 0.356041 0.643719 0.643745
553 1 0.427597 0.572176 0.572493
554 1 0.499753 0.643277 0.643473
555 1 0.573893 0.57329 0.574133
556 1 0.643604 0.643572 0.644038
557 1 0.715003 0.571502 0.571932
558 1 0.786041 0.64294 0.643222
559 1 0.857393 0.571397 0.571664
560 1 0.928502 0.642903 0.643095
561 1 0.999619 0.714441 0.571635
562 1 0.0707821 0.786089 0.643307
563 1 0.141559 0.714973 0.572122
564 1 0.212755 0.787143 0.644311
565 1 0.282051 0.717863 0.57477
566 1 0.356312 0.787088 0.644267
567 1 0.427771 0.717328 0.574367
568 1 0.50015 0.786635 0.643831
569 1 0.572491 0.715963 0.573131
570 1 0.643311 0.786384 0.643569
571 1 0.715273 0.715197 0.572352
572 1 0.786046 0.786034 0.643295
573 1 0.857298 0.7144 0.571624
574 1 0.928455 0.785831 0.643086
575 1 0.999767 0.857266 0.571581
576 1 0.0711361 0.928736 0.6431
577 1 0.142324 0.857577 0.57169
578 1 0.213798 0.929134 0.643348
579 1 0.284919 0.858426 0.572162
580 1 0.356912 0.929111 0.643323
581 1 0.428392 0.858099 0.571933
582 1 0.499984 0.928897 0.643232
583 1 0.571382 0.857581 0.571708
584 1 0.642919 0.928658 0.64309
585 1 0.714403 0.857378 0.571624
586 1 0.785795 0.928557 0.64304
587 1 0.857161 0.857204 0.571571
588 1 0.928506 0.928561 0.64302
677 1 0.285527 0.857372 0.857443
676 1 0.214148 0.928722 0.928682
591 1 0.357011 0.499963 0.786046
675 1 0.14261 0.857332 0.857425
674 1 0.0713103 0.928645 0.928662
673 1 0.999879 0.857196 0.857307
672 1 0.928554 0.785737 0.92861
596 1 0.99984 0.571444 0.714579
597 1 0.0711724 0.642928 0.786027
598 1 0.142365 0.571489 0.714814
599 1 0.213911 0.642986 0.786232
600 1 0.285219 0.571565 0.71502
601 1 0.356934 0.64295 0.786114
602 1 0.428399 0.571468 0.714565
603 1 0.499916 0.642887 0.786039
604 1 0.571588 0.571444 0.715166
605 1 0.643017 0.642918 0.786143
606 1 0.714739 0.571508 0.714869
607 1 0.78589 0.642902 0.785988
608 1 0.857326 0.571422 0.714582
609 1 0.92855 0.642883 0.785924
610 1 0.999741 0.714393 0.714579
611 1 0.0711176 0.785883 0.786054
612 1 0.142236 0.71461 0.714918
613 1 0.213859 0.786073 0.786334
614 1 0.285053 0.714854 0.71543
615 1 0.356912 0.786065 0.786301
616 1 0.428289 0.714684 0.715177
617 1 0.49995 0.785934 0.786137
618 1 0.57143 0.714522 0.714914
619 1 0.642918 0.785831 0.786027
620 1 0.714608 0.71458 0.714855
621 1 0.785833 0.785815 0.785981
622 1 0.857205 0.714353 0.714541
623 1 0.928496 0.785766 0.785917
624 1 0.999738 0.857296 0.714577
625 1 0.0711697 0.928735 0.786031
626 1 0.142206 0.857695 0.714937
627 1 0.214014 0.928845 0.786109
628 1 0.285222 0.857789 0.715024
629 1 0.357013 0.928804 0.786062
630 1 0.428451 0.857597 0.714841
631 1 0.499987 0.92869 0.785996
632 1 0.571529 0.857434 0.714725
633 1 0.642923 0.928581 0.785939
634 1 0.71447 0.857331 0.714636
635 1 0.785803 0.928532 0.785915
636 1 0.8572 0.857232 0.714542
637 1 0.928532 0.928571 0.78591
383 1 0.285552 0.857379 0.999909
671 1 0.857188 0.714311 0.857267
381 1 0.142655 0.857328 0.999928
670 1 0.785803 0.785762 0.928558
669 1 0.714388 0.714339 0.857296
668 1 0.642891 0.785771 0.92856
644 1 0.928695 0.499951 0.928599
645 1 0.999958 0.571425 0.857296
646 1 0.0713061 0.642895 0.92864
647 1 0.142676 0.571445 0.857372
648 1 0.214124 0.642917 0.928642
649 1 0.285577 0.571449 0.857378
650 1 0.357078 0.642889 0.928608
651 1 0.428531 0.571398 0.857257
652 1 0.499989 0.642868 0.928555
653 1 0.571497 0.571358 0.857347
654 1 0.642963 0.642869 0.928525
655 1 0.71449 0.571393 0.857335
656 1 0.785848 0.642863 0.928574
657 1 0.857281 0.571414 0.857275
658 1 0.928598 0.642869 0.928608
659 1 0.999885 0.714333 0.857302
660 1 0.0712683 0.785803 0.928649
661 1 0.142615 0.714402 0.857406
662 1 0.214095 0.785873 0.92867
663 1 0.285528 0.714417 0.857474
353 1 0.142712 0.571451 0.999914
355 1 0.285619 0.571463 0.999858
357 1 0.428591 0.571416 0.999881
359 1 0.571575 0.571405 0.999737
361 1 0.714523 0.571387 0.999807
363 1 0.857325 0.571422 0.99989
367 1 0.142647 0.714409 0.9999
369 1 0.285555 0.714436 0.999828
371 1 0.428496 0.714434 0.99981
373 1 0.571457 0.714407 0.999785
375 1 0.714461 0.714407 0.999751
379 1 0.999921 0.857202 0.999965
643 1 0.785978 0.499927 0.928558
642 1 0.643066 0.499876 0.928583
641 1 0.500051 0.499903 0.928576
595 1 0.928669 0.499946 0.785941
594 1 0.786048 0.499923 0.786049
545 1 0.786314 0.49988 0.643355
546 1 0.928675 0.49994 0.643127
590 1 0.214009 0.499986 0.786139
13 1 0.857273 0.999838 0.99994
537 1 0.642866 0.928646 0.500081
534 1 0.21389 0.928938 0.500143
351 1 0.999996 0.571427 0.99995
531 1 0.785918 0.785939 0.500132
518 1 0.928719 0.499941 0.500096
530 1 0.642977 0.786333 0.500084
527 1 0.213524 0.786429 0.500078
526 1 0.0710098 0.785991 0.500109
525 1 0.928515 0.642881 0.500063
524 1 0.78623 0.642924 0.500128
365 1 0.999922 0.714333 0.999961
377 1 0.857235 0.714326 0.999909
