ITEM: TIMESTEP
120
ITEM: NUMBER OF ATOMS
693
ITEM: BOX BOUNDS pp pp pp
-3.7014594552344728e-03 2.2013248456311000e+01
-9.0165149170868143e-03 2.2018563511772850e+01
-7.8815318566542291e-03 2.2017428528712440e+01
ITEM: ATOMS id type xs ys zs
1 1 1.31357e-10 1.31694e-10 1.31176e-10
2 1 0.0714286 0.0714286 0.0714286
3 1 0.142857 1.31265e-10 1.3988e-10
4 1 0.214286 0.0714286 0.0714286
5 1 0.285714 1.28466e-10 1.26455e-10
6 1 0.357143 0.0714286 0.0714286
7 1 0.428571 1.41903e-10 1.32645e-10
8 1 0.5 0.0714286 0.0714286
9 1 0.571429 1.38709e-10 1.3759e-10
10 1 0.642857 0.0714286 0.0714286
11 1 0.714286 1.30896e-10 1.3039e-10
12 1 0.785714 0.0714286 0.0714286
13 1 0.857143 1.31641e-10 1.34923e-10
14 1 0.928571 0.0714286 0.0714286
15 1 1.32681e-10 0.142857 1.38853e-10
16 1 0.0714286 0.214286 0.0714286
17 1 0.142857 0.142857 2.88983e-10
18 1 0.214286 0.214286 0.0714286
19 1 0.285714 0.142857 4.4877e-11
20 1 0.357143 0.214286 0.0714286
21 1 0.428571 0.142857 -5.51179e-10
22 1 0.5 0.214286 0.0714286
23 1 0.571429 0.142857 -5.81056e-10
24 1 0.642857 0.214286 0.0714286
25 1 0.714286 0.142857 1.18701e-10
26 1 0.785714 0.214286 0.0714286
27 1 0.857143 0.142857 1.94077e-10
28 1 0.928571 0.214286 0.0714286
29 1 1.08626e-10 0.285714 9.73435e-11
30 1 0.0714286 0.357143 0.0714286
31 1 0.142857 0.285714 -1.23421e-09
32 1 0.214286 0.357143 0.0714285
33 1 0.285714 0.285714 1.5873e-08
34 1 0.357143 0.357143 0.0714289
35 1 0.428571 0.285714 6.41406e-09
36 1 0.5 0.357143 0.0714295
37 1 0.571429 0.285714 2.50691e-08
38 1 0.642857 0.357143 0.0714286
39 1 0.714286 0.285714 2.93801e-09
40 1 0.785714 0.357143 0.0714286
41 1 0.857143 0.285714 4.71681e-10
42 1 0.928571 0.357143 0.0714286
43 1 1.11862e-10 0.428571 1.87668e-10
44 1 0.0714286 0.5 0.0714286
45 1 0.142857 0.428571 1.24819e-09
46 1 0.214286 0.5 0.0714288
47 1 0.285714 0.428571 1
48 1 0.357143 0.5 0.0714256
49 1 0.428571 0.428571 1.08725e-08
50 1 0.499998 0.5 0.0714129
51 1 0.571429 0.428571 -2.81835e-07
52 1 0.642857 0.5 0.0714299
53 1 0.714286 0.428571 2.48988e-08
54 1 0.785714 0.5 0.0714285
55 1 0.857143 0.428571 -2.02506e-09
56 1 0.928571 0.5 0.0714286
57 1 1.66368e-10 0.571429 1.29542e-10
58 1 0.0714286 0.642857 0.0714286
59 1 0.142857 0.571429 1.0913e-09
60 1 0.214286 0.642857 0.0714285
61 1 0.285714 0.571429 1
62 1 0.357143 0.642857 0.0714288
63 1 0.428571 0.571429 -3.67751e-08
64 1 0.5 0.642857 0.0714295
65 1 0.571429 0.571429 -1.66548e-07
66 1 0.642857 0.642857 0.0714284
67 1 0.714286 0.571429 1.58637e-08
68 1 0.785714 0.642857 0.0714286
69 1 0.857143 0.571429 -1.2355e-09
70 1 0.928571 0.642857 0.0714286
71 1 9.07866e-11 0.714286 1.1185e-10
72 1 0.0714286 0.785714 0.0714286
73 1 0.142857 0.714286 -1.19993e-09
74 1 0.214286 0.785714 0.0714286
75 1 0.285714 0.714286 1.47441e-08
76 1 0.357143 0.785714 0.0714286
77 1 0.428571 0.714286 6.76182e-09
78 1 0.5 0.785714 0.0714286
79 1 0.571429 0.714286 1.53385e-08
80 1 0.642857 0.785714 0.0714286
81 1 0.714286 0.714286 -3.01869e-09
82 1 0.785714 0.785714 0.0714286
83 1 0.857143 0.714286 4.14167e-10
84 1 0.928571 0.785714 0.0714286
85 1 1.37836e-10 0.857143 1.34833e-10
86 1 0.0714286 0.928571 0.0714286
87 1 0.142857 0.857143 2.81331e-10
88 1 0.214286 0.928571 0.0714286
89 1 0.285714 0.857143 7.09436e-11
90 1 0.357143 0.928571 0.0714286
91 1 0.428571 0.857143 -1.25961e-10
92 1 0.5 0.928571 0.0714286
93 1 0.571429 0.857143 -2.91674e-10
94 1 0.642857 0.928571 0.0714286
95 1 0.714286 0.857143 5.88032e-10
96 1 0.785714 0.928571 0.0714286
97 1 0.857143 0.857143 1.09408e-10
98 1 0.928571 0.928571 0.0714286
99 1 1.3292e-10 1.31518e-10 0.142857
100 1 0.0714286 0.0714286 0.214286
101 1 0.142857 1.34253e-10 0.142857
102 1 0.214286 0.0714286 0.214286
103 1 0.285714 1.37541e-10 0.142857
104 1 0.357143 0.0714286 0.214286
105 1 0.428571 -4.08309e-10 0.142857
106 1 0.5 0.0714286 0.214286
107 1 0.571429 -3.7452e-10 0.142857
108 1 0.642857 0.0714286 0.214286
109 1 0.714286 -4.29422e-11 0.142857
110 1 0.785714 0.0714286 0.214286
111 1 0.857143 1.50303e-10 0.142857
112 1 0.928571 0.0714286 0.214286
113 1 1.55144e-10 0.142857 0.142857
114 1 0.0714286 0.214286 0.214286
115 1 0.142857 0.142857 0.142857
116 1 0.214286 0.214286 0.214286
117 1 0.285714 0.142857 0.142857
118 1 0.357143 0.214286 0.214286
119 1 0.428571 0.142857 0.142857
120 1 0.5 0.214286 0.214286
121 1 0.571429 0.142857 0.142857
122 1 0.642857 0.214286 0.214286
123 1 0.714286 0.142857 0.142857
124 1 0.785714 0.214286 0.214286
125 1 0.857143 0.142857 0.142857
126 1 0.928571 0.214286 0.214286
127 1 -7.84943e-11 0.285714 0.142857
128 1 0.0714286 0.357143 0.214286
129 1 0.142857 0.285714 0.142857
130 1 0.214286 0.357143 0.214286
131 1 0.285715 0.285715 0.142858
132 1 0.357156 0.35718 0.214298
133 1 0.428572 0.285716 0.142858
134 1 0.499999 0.357169 0.214315
135 1 0.571428 0.285715 0.142858
136 1 0.642851 0.35714 0.2143
137 1 0.714286 0.285714 0.142857
138 1 0.785713 0.357144 0.214286
139 1 0.857143 0.285714 0.142857
140 1 0.928571 0.357143 0.214286
141 1 -7.80605e-10 0.428571 0.142857
142 1 0.0714285 0.5 0.214286
143 1 0.142857 0.428571 0.142857
144 1 0.214283 0.5 0.214286
145 1 0.285711 0.428568 0.142854
146 1 0.356955 0.499999 0.214098
147 1 0.42856 0.428578 0.142872
148 1 0.500389 0.49998 0.213241
149 1 0.571432 0.428562 0.142846
150 1 0.642819 0.499984 0.214343
151 1 0.714284 0.428572 0.142859
152 1 0.785713 0.499999 0.214287
153 1 0.857143 0.428571 0.142857
154 1 0.928571 0.5 0.214286
155 1 -1.61258e-09 0.571429 0.142857
156 1 0.0714286 0.642857 0.214286
157 1 0.142857 0.571429 0.142857
158 1 0.214286 0.642857 0.214286
159 1 0.285711 0.571432 0.142854
160 1 0.357153 0.642823 0.214296
161 1 0.42856 0.571422 0.142869
162 1 0.499993 0.642845 0.214312
163 1 0.571433 0.571434 0.142854
164 1 0.642872 0.642868 0.214281
165 1 0.714284 0.571428 0.142859
166 1 0.785715 0.642857 0.214286
167 1 0.857143 0.571429 0.142857
168 1 0.928571 0.642857 0.214286
169 1 4.73403e-10 0.714286 0.142857
170 1 0.0714286 0.785714 0.214286
171 1 0.142857 0.714286 0.142857
172 1 0.214286 0.785714 0.214286
173 1 0.285715 0.714285 0.142858
174 1 0.357143 0.785714 0.214286
175 1 0.428571 0.714285 0.142858
176 1 0.5 0.785712 0.214288
177 1 0.571428 0.714285 0.142858
178 1 0.642857 0.785714 0.214286
179 1 0.714286 0.714286 0.142857
180 1 0.785714 0.785714 0.214286
181 1 0.857143 0.714286 0.142857
182 1 0.928571 0.785714 0.214286
183 1 1.25176e-10 0.857143 0.142857
184 1 0.0714286 0.928571 0.214286
185 1 0.142857 0.857143 0.142857
186 1 0.214286 0.928571 0.214286
187 1 0.285714 0.857143 0.142857
188 1 0.357143 0.928571 0.214286
189 1 0.428571 0.857143 0.142857
190 1 0.5 0.928571 0.214286
191 1 0.571429 0.857143 0.142857
192 1 0.642857 0.928571 0.214286
193 1 0.714286 0.857143 0.142857
194 1 0.785714 0.928571 0.214286
195 1 0.857143 0.857143 0.142857
196 1 0.928571 0.928571 0.214286
197 1 1.38883e-10 1.34136e-10 0.285714
198 1 0.0714286 0.0714286 0.357143
199 1 0.142857 1.39062e-10 0.285714
200 1 0.214286 0.0714286 0.357143
201 1 0.285714 -5.77891e-11 0.285714
202 1 0.357143 0.0714286 0.357143
203 1 0.428571 3.85758e-10 0.285714
204 1 0.5 0.0714284 0.357143
205 1 0.571429 -5.01593e-09 0.285714
206 1 0.642857 0.0714286 0.357143
207 1 0.714286 5.94481e-10 0.285714
208 1 0.785714 0.0714286 0.357143
209 1 0.857143 7.24465e-11 0.285714
210 1 0.928571 0.0714286 0.357143
211 1 -5.88458e-12 0.142857 0.285714
212 1 0.0714286 0.214286 0.357143
213 1 0.142857 0.142857 0.285714
214 1 0.214286 0.214286 0.357143
215 1 0.285714 0.142857 0.285714
216 1 0.357144 0.214287 0.357143
217 1 0.428571 0.142857 0.285714
218 1 0.500001 0.214271 0.357143
219 1 0.571429 0.142857 0.285714
220 1 0.642857 0.214285 0.357143
221 1 0.714286 0.142857 0.285714
222 1 0.785714 0.214286 0.357143
223 1 0.857143 0.142857 0.285714
224 1 0.928571 0.214286 0.357143
225 1 1.59147e-09 0.285714 0.285714
226 1 0.0714286 0.357143 0.357143
227 1 0.142857 0.285714 0.285714
228 1 0.214287 0.357144 0.357143
229 1 0.285716 0.285716 0.285715
230 1 0.357209 0.357198 0.357163
231 1 0.428581 0.285709 0.285717
232 1 0.499731 0.356292 0.357157
233 1 0.571434 0.285717 0.285716
234 1 0.642923 0.357107 0.357129
235 1 0.714286 0.285714 0.285713
236 1 0.785715 0.357144 0.357143
237 1 0.857143 0.285714 0.285714
238 1 0.928571 0.357143 0.357143
239 1 -4.67517e-09 0.428571 0.285714
240 1 0.0714284 0.5 0.357143
241 1 0.142857 0.428571 0.285714
242 1 0.214273 0.5 0.357141
243 1 0.285733 0.428579 0.285704
244 1 0.356116 0.499976 0.357563
245 1 0.428145 0.427373 0.285347
246 1 0.928571 0.928571 0.928571
247 1 0.571893 0.428235 0.284928
248 1 0.644405 0.49979 0.356841
249 1 0.714228 0.42858 0.285737
250 1 0.785752 0.5 0.357143
251 1 0.857142 0.428571 0.285714
252 1 0.928572 0.5 0.357143
253 1 7.97661e-09 0.571429 0.285714
254 1 0.0714286 0.642857 0.357143
255 1 0.142857 0.571429 0.285714
256 1 0.214287 0.642856 0.357143
257 1 0.28573 0.571421 0.285705
258 1 0.357186 0.642823 0.357164
259 1 0.427941 0.572644 0.285112
260 1 0.499929 0.644985 0.357168
261 1 0.571944 0.572022 0.284585
262 1 0.642926 0.642988 0.357134
263 1 0.714283 0.571435 0.285719
264 1 0.785716 0.642858 0.357142
265 1 0.857143 0.571429 0.285714
266 1 0.928571 0.642857 0.357143
267 1 1.03462e-09 0.714286 0.285714
268 1 0.0714286 0.785714 0.357143
269 1 0.142857 0.714286 0.285714
270 1 0.214286 0.785714 0.357143
271 1 0.285716 0.714284 0.285715
272 1 0.357145 0.785712 0.357143
273 1 0.428574 0.714286 0.285719
274 1 0.5 0.785741 0.357143
275 1 0.571424 0.714255 0.285726
276 1 0.642855 0.785714 0.357143
277 1 0.714287 0.714287 0.285713
278 1 0.785714 0.785714 0.357143
279 1 0.857143 0.714286 0.285714
280 1 0.928571 0.785714 0.357143
281 1 7.10707e-11 0.857143 0.285714
282 1 0.0714286 0.928571 0.357143
283 1 0.142857 0.857143 0.285714
284 1 0.214286 0.928571 0.357143
285 1 0.285714 0.857143 0.285714
286 1 0.357143 0.928571 0.357143
287 1 0.428571 0.857143 0.285714
288 1 0.5 0.928572 0.357143
289 1 0.571429 0.857143 0.285714
290 1 0.642857 0.928571 0.357143
291 1 0.714286 0.857143 0.285714
292 1 0.785714 0.928571 0.357143
293 1 0.857143 0.857143 0.285714
294 1 0.928571 0.928571 0.357143
295 1 1.4397e-10 1.32931e-10 0.428571
296 1 0.0714286 0.0714286 0.5
297 1 0.142857 1.36877e-10 0.428571
298 1 0.214286 0.0714286 0.5
299 1 0.285714 -2.87061e-11 0.428571
300 1 0.357143 0.0714286 0.5
301 1 0.428571 1.27896e-10 0.428571
302 1 0.5 0.0714286 0.5
303 1 0.571429 -5.37778e-09 0.428571
304 1 0.642857 0.0714286 0.5
305 1 0.714286 5.09101e-10 0.428571
306 1 0.785714 0.0714286 0.5
307 1 0.857143 8.97281e-11 0.428571
308 1 0.928571 0.0714286 0.5
309 1 4.74795e-11 0.142857 0.428571
310 1 0.0714286 0.214286 0.5
311 1 0.142857 0.142857 0.428571
312 1 0.214286 0.214286 0.5
313 1 0.285714 0.142857 0.428571
314 1 0.357143 0.214286 0.5
315 1 0.428571 0.142858 0.428572
316 1 0.5 0.214287 0.499999
317 1 0.571429 0.142857 0.428572
318 1 0.642857 0.214286 0.5
319 1 0.714286 0.142857 0.428571
320 1 0.785714 0.214286 0.5
321 1 0.857143 0.142857 0.428571
322 1 0.928571 0.214286 0.5
323 1 9.30929e-10 0.285714 0.428571
324 1 0.0714286 0.357143 0.5
325 1 0.142857 0.285714 0.428571
326 1 0.214286 0.357143 0.5
327 1 0.285717 0.285717 0.428571
328 1 0.357153 0.357154 0.49999
329 1 0.42858 0.285756 0.428571
330 1 0.499967 0.357181 0.499973
331 1 0.571433 0.285713 0.428567
332 1 0.642861 0.357137 0.499993
333 1 0.714286 0.285714 0.428572
334 1 0.785714 0.357143 0.5
335 1 0.857143 0.285714 0.428571
336 1 0.928571 0.357143 0.5
337 1 6.35234e-09 0.428571 0.428571
338 1 0.0714286 0.5 0.5
339 1 0.142857 0.428571 0.428572
340 1 0.214288 0.5 0.499999
341 1 0.285739 0.428563 0.428577
342 1 0.357202 0.499999 0.499954
343 1 0.428108 0.428162 0.428859
344 1 0.499865 0.499987 0.501877
345 1 0.572028 0.427393 0.429658
346 1 0.642916 0.499989 0.500112
347 1 0.71426 0.428575 0.428561
348 1 0.785715 0.499999 0.5
349 1 0.857143 0.428571 0.428572
350 1 0.928571 0.5 0.5
351 1 2.20996e-08 0.571429 0.428571
352 1 0.0714286 0.642857 0.5
353 1 0.142857 0.571429 0.428572
354 1 0.214286 0.642857 0.5
355 1 0.285736 0.571437 0.428577
356 1 0.35715 0.642851 0.499994
357 1 0.42785 0.571906 0.42914
358 1 0.499986 0.642793 0.499935
359 1 0.57207 0.572666 0.429768
360 1 0.642858 0.642833 0.499974
361 1 0.714333 0.571453 0.428592
362 1 0.785715 0.642858 0.500001
363 1 0.857144 0.571429 0.428572
364 1 0.928571 0.642857 0.5
365 1 4.5775e-10 0.714286 0.428571
366 1 0.0714286 0.785714 0.5
367 1 0.142857 0.714286 0.428571
368 1 0.214286 0.785714 0.5
369 1 0.285717 0.714283 0.428571
370 1 0.357143 0.785714 0.5
371 1 0.428573 0.714239 0.42857
372 1 0.5 0.785711 0.499997
373 1 0.571423 0.714258 0.428554
374 1 0.642857 0.785713 0.499999
375 1 0.714287 0.714287 0.428573
376 1 0.785714 0.785714 0.5
377 1 0.857143 0.714286 0.428571
378 1 0.928571 0.785714 0.5
379 1 1.23117e-10 0.857143 0.428571
380 1 0.0714286 0.928571 0.5
381 1 0.142857 0.857143 0.428571
382 1 0.214286 0.928571 0.5
383 1 0.285714 0.857143 0.428571
384 1 0.357143 0.928571 0.5
385 1 0.428571 0.857142 0.428572
386 1 0.5 0.928571 0.5
387 1 0.571429 0.857143 0.428572
388 1 0.642857 0.928571 0.5
389 1 0.714286 0.857143 0.428571
390 1 0.785714 0.928571 0.5
391 1 0.857143 0.857143 0.428571
392 1 0.928571 0.928571 0.5
393 1 1.28202e-10 1.30393e-10 0.571429
394 1 0.0714286 0.0714286 0.642857
395 1 0.142857 1.32303e-10 0.571429
396 1 0.214286 0.0714286 0.642857
397 1 0.285714 1.62895e-10 0.571429
398 1 0.357143 0.0714286 0.642857
399 1 0.428571 -6.60345e-10 0.571429
400 1 0.5 0.0714286 0.642857
401 1 0.571429 -7.26914e-10 0.571429
402 1 0.642857 0.0714286 0.642857
403 1 0.714286 -2.52346e-10 0.571429
404 1 0.785714 0.0714286 0.642857
405 1 0.857143 1.70301e-10 0.571429
406 1 0.928571 0.0714286 0.642857
407 1 1.66043e-10 0.142857 0.571429
408 1 0.0714286 0.214286 0.642857
409 1 0.142857 0.142857 0.571429
410 1 0.214286 0.214286 0.642857
411 1 0.285714 0.142857 0.571429
412 1 0.357143 0.214286 0.642857
413 1 0.428571 0.142857 0.571429
414 1 0.5 0.214286 0.642857
415 1 0.571429 0.142857 0.571429
416 1 0.642857 0.214286 0.642857
417 1 0.714286 0.142857 0.571429
418 1 0.785714 0.214286 0.642857
419 1 0.857143 0.142857 0.571429
420 1 0.928571 0.214286 0.642857
421 1 7.20434e-11 0.285714 0.571429
422 1 0.0714286 0.357143 0.642857
423 1 0.142857 0.285714 0.571429
424 1 0.214286 0.357143 0.642857
425 1 0.285715 0.285715 0.571428
426 1 0.357143 0.357143 0.642857
427 1 0.428572 0.285716 0.571427
428 1 0.5 0.357145 0.642855
429 1 0.571428 0.285716 0.571427
430 1 0.642857 0.357143 0.642857
431 1 0.714286 0.285714 0.571429
432 1 0.785714 0.357143 0.642857
433 1 0.857143 0.285714 0.571429
434 1 0.928571 0.357143 0.642857
435 1 1.71762e-09 0.428571 0.571429
436 1 0.0714286 0.5 0.642857
437 1 0.142857 0.428571 0.571429
438 1 0.214286 0.5 0.642857
439 1 0.285717 0.428572 0.571426
440 1 0.357145 0.5 0.642854
441 1 0.428575 0.428577 0.571377
442 1 0.499999 0.5 0.642879
443 1 0.571419 0.428583 0.571412
444 1 0.642855 0.5 0.642857
445 1 0.714287 0.42857 0.57143
446 1 0.785714 0.5 0.642857
447 1 0.857143 0.428571 0.571429
448 1 0.928571 0.5 0.642857
449 1 1.2779e-09 0.571429 0.571429
450 1 0.0714286 0.642857 0.642857
451 1 0.142857 0.571429 0.571429
452 1 0.214286 0.642857 0.642857
453 1 0.285717 0.571428 0.571426
454 1 0.357143 0.642857 0.642857
455 1 0.428575 0.571424 0.57138
456 1 0.5 0.642855 0.642854
457 1 0.57142 0.571412 0.571407
458 1 0.642857 0.642857 0.642856
459 1 0.714286 0.57143 0.57143
460 1 0.785714 0.642857 0.642857
461 1 0.857143 0.571429 0.571429
462 1 0.928571 0.642857 0.642857
463 1 5.38145e-10 0.714286 0.571429
464 1 0.0714286 0.785714 0.642857
465 1 0.142857 0.714286 0.571429
466 1 0.214286 0.785714 0.642857
467 1 0.285714 0.714286 0.571428
468 1 0.357143 0.785714 0.642857
469 1 0.428572 0.714283 0.571426
470 1 0.5 0.785714 0.642857
471 1 0.571428 0.714283 0.571426
472 1 0.642857 0.785714 0.642857
473 1 0.714285 0.714285 0.571428
474 1 0.785714 0.785714 0.642857
475 1 0.857143 0.714286 0.571429
476 1 0.928571 0.785714 0.642857
477 1 1.525e-10 0.857143 0.571429
478 1 0.0714286 0.928571 0.642857
479 1 0.142857 0.857143 0.571429
480 1 0.214286 0.928571 0.642857
481 1 0.285714 0.857143 0.571429
482 1 0.357143 0.928571 0.642857
483 1 0.428571 0.857143 0.571429
484 1 0.5 0.928571 0.642857
485 1 0.571429 0.857143 0.571429
486 1 0.642857 0.928571 0.642857
487 1 0.714286 0.857143 0.571429
488 1 0.785714 0.928571 0.642857
489 1 0.857143 0.857143 0.571429
490 1 0.928571 0.928571 0.642857
491 1 1.32034e-10 1.31941e-10 0.714286
492 1 0.0714286 0.0714286 0.785714
493 1 0.142857 1.31659e-10 0.714286
494 1 0.214286 0.0714286 0.785714
495 1 0.285714 1.21453e-10 0.714286
496 1 0.357143 0.0714286 0.785714
497 1 0.428571 1.47675e-10 0.714286
498 1 0.5 0.0714286 0.785714
499 1 0.571429 1.44171e-10 0.714286
500 1 0.642857 0.0714286 0.785714
501 1 0.714286 1.29022e-10 0.714286
502 1 0.785714 0.0714286 0.785714
503 1 0.857143 1.26036e-10 0.714286
504 1 0.928571 0.0714286 0.785714
505 1 1.30441e-10 0.142857 0.714286
506 1 0.0714286 0.214286 0.785714
507 1 0.142857 0.142857 0.714286
508 1 0.214286 0.214286 0.785714
509 1 0.285714 0.142857 0.714286
510 1 0.357143 0.214286 0.785714
511 1 0.428571 0.142857 0.714286
512 1 0.5 0.214286 0.785714
513 1 0.571429 0.142857 0.714286
514 1 0.642857 0.214286 0.785714
515 1 0.714286 0.142857 0.714286
516 1 0.785714 0.214286 0.785714
517 1 0.857143 0.142857 0.714286
518 1 0.928571 0.214286 0.785714
519 1 1.70675e-10 0.285714 0.714286
520 1 0.0714286 0.357143 0.785714
521 1 0.142857 0.285714 0.714286
522 1 0.214286 0.357143 0.785714
523 1 0.285714 0.285714 0.714286
524 1 0.357143 0.357143 0.785714
525 1 0.428571 0.285714 0.714286
526 1 0.5 0.357143 0.785714
527 1 0.571429 0.285714 0.714286
528 1 0.642857 0.357143 0.785714
529 1 0.714286 0.285714 0.714286
530 1 0.785714 0.357143 0.785714
531 1 0.857143 0.285714 0.714286
532 1 0.928571 0.357143 0.785714
533 1 1.08904e-10 0.428571 0.714286
534 1 0.0714286 0.5 0.785714
535 1 0.142857 0.428571 0.714286
536 1 0.214286 0.5 0.785714
537 1 0.285714 0.428571 0.714286
538 1 0.357143 0.5 0.785714
539 1 0.428571 0.428571 0.714285
540 1 0.5 0.5 0.785715
541 1 0.571429 0.428571 0.714286
542 1 0.642857 0.5 0.785714
543 1 0.714286 0.428571 0.714286
544 1 0.785714 0.5 0.785714
545 1 0.857143 0.428571 0.714286
546 1 0.928571 0.5 0.785714
547 1 1.51972e-10 0.571429 0.714286
548 1 0.0714286 0.642857 0.785714
549 1 0.142857 0.571429 0.714286
550 1 0.214286 0.642857 0.785714
551 1 0.285714 0.571429 0.714286
552 1 0.357143 0.642857 0.785714
553 1 0.428571 0.571429 0.714285
554 1 0.5 0.642857 0.785714
555 1 0.571429 0.571429 0.714286
556 1 0.642857 0.642857 0.785714
557 1 0.714286 0.571429 0.714286
558 1 0.785714 0.642857 0.785714
559 1 0.857143 0.571429 0.714286
560 1 0.928571 0.642857 0.785714
561 1 1.64567e-10 0.714286 0.714286
562 1 0.0714286 0.785714 0.785714
563 1 0.142857 0.714286 0.714286
564 1 0.214286 0.785714 0.785714
565 1 0.285714 0.714286 0.714286
566 1 0.357143 0.785714 0.785714
567 1 0.428571 0.714286 0.714286
568 1 0.5 0.785714 0.785714
569 1 0.571429 0.714286 0.714286
570 1 0.642857 0.785714 0.785714
571 1 0.714286 0.714286 0.714286
572 1 0.785714 0.785714 0.785714
573 1 0.857143 0.714286 0.714286
574 1 0.928571 0.785714 0.785714
575 1 1.31093e-10 0.857143 0.714286
576 1 0.0714286 0.928571 0.785714
577 1 0.142857 0.857143 0.714286
578 1 0.214286 0.928571 0.785714
579 1 0.285714 0.857143 0.714286
580 1 0.357143 0.928571 0.785714
581 1 0.428571 0.857143 0.714286
582 1 0.5 0.928571 0.785714
583 1 0.571429 0.857143 0.714286
584 1 0.642857 0.928571 0.785714
585 1 0.714286 0.857143 0.714286
586 1 0.785714 0.928571 0.785714
587 1 0.857143 0.857143 0.714286
588 1 0.928571 0.928571 0.785714
589 1 1.31622e-10 1.31695e-10 0.857143
590 1 0.0714286 0.0714286 0.928571
591 1 0.142857 1.31661e-10 0.857143
592 1 0.214286 0.0714286 0.928571
593 1 0.285714 1.3164e-10 0.857143
594 1 0.357143 0.0714286 0.928571
595 1 0.428571 1.3129e-10 0.857143
596 1 0.5 0.0714286 0.928571
597 1 0.571429 1.31168e-10 0.857143
598 1 0.642857 0.0714286 0.928571
599 1 0.714286 1.31733e-10 0.857143
600 1 0.785714 0.0714286 0.928571
601 1 0.857143 1.31597e-10 0.857143
602 1 0.928571 0.0714286 0.928571
603 1 1.31565e-10 0.142857 0.857143
604 1 0.0714286 0.214286 0.928571
605 1 0.142857 0.142857 0.857143
606 1 0.214286 0.214286 0.928571
607 1 0.285714 0.142857 0.857143
608 1 0.357143 0.214286 0.928571
609 1 0.428571 0.142857 0.857143
610 1 0.5 0.214286 0.928571
611 1 0.571429 0.142857 0.857143
612 1 0.642857 0.214286 0.928571
613 1 0.714286 0.142857 0.857143
614 1 0.785714 0.214286 0.928571
615 1 0.857143 0.142857 0.857143
616 1 0.928571 0.214286 0.928571
617 1 1.31868e-10 0.285714 0.857143
618 1 0.0714286 0.357143 0.928571
619 1 0.142857 0.285714 0.857143
620 1 0.214286 0.357143 0.928571
621 1 0.285714 0.285714 0.857143
622 1 0.357143 0.357143 0.928571
623 1 0.428571 0.285714 0.857143
624 1 0.5 0.357143 0.928571
625 1 0.571429 0.285714 0.857143
626 1 0.642857 0.357143 0.928571
627 1 0.714286 0.285714 0.857143
628 1 0.785714 0.357143 0.928571
629 1 0.857143 0.285714 0.857143
630 1 0.928571 0.357143 0.928571
631 1 1.31286e-10 0.428571 0.857143
632 1 0.0714286 0.5 0.928571
633 1 0.142857 0.428571 0.857143
634 1 0.214286 0.5 0.928571
635 1 0.285714 0.428571 0.857143
636 1 0.357143 0.5 0.928571
637 1 0.428571 0.428571 0.857143
638 1 0.5 0.5 0.928571
639 1 0.571429 0.428571 0.857143
640 1 0.642857 0.5 0.928571
641 1 0.714286 0.428571 0.857143
642 1 0.785714 0.5 0.928571
643 1 0.857143 0.428571 0.857143
644 1 0.928571 0.5 0.928571
645 1 1.3142e-10 0.571429 0.857143
646 1 0.0714286 0.642857 0.928571
647 1 0.142857 0.571429 0.857143
648 1 0.214286 0.642857 0.928571
649 1 0.285714 0.571429 0.857143
650 1 0.357143 0.642857 0.928571
651 1 0.428571 0.571429 0.857143
652 1 0.5 0.642857 0.928571
653 1 0.571429 0.571429 0.857143
654 1 0.642857 0.642857 0.928571
655 1 0.714286 0.571429 0.857143
656 1 0.785714 0.642857 0.928571
657 1 0.857143 0.571429 0.857143
658 1 0.928571 0.642857 0.928571
659 1 1.31666e-10 0.714286 0.857143
660 1 0.0714286 0.785714 0.928571
661 1 0.142857 0.714286 0.857143
662 1 0.214286 0.785714 0.928571
663 1 0.285714 0.714286 0.857143
664 1 0.357143 0.785714 0.928571
665 1 0.428571 0.714286 0.857143
666 1 0.5 0.785714 0.928571
667 1 0.571429 0.714286 0.857143
668 1 0.642857 0.785714 0.928571
669 1 0.714286 0.714286 0.857143
670 1 0.785714 0.785714 0.928571
671 1 0.857143 0.714286 0.857143
672 1 0.928571 0.785714 0.928571
673 1 1.31639e-10 0.857143 0.857143
674 1 0.0714286 0.928571 0.928571
675 1 0.142857 0.857143 0.857143
676 1 0.214286 0.928571 0.928571
677 1 0.285714 0.857143 0.857143
678 1 0.357143 0.928571 0.928571
679 1 0.428571 0.857143 0.857143
680 1 0.5 0.928571 0.928571
681 1 0.571429 0.857143 0.857143
682 1 0.642857 0.928571 0.928571
683 1 0.714286 0.857143 0.857143
684 1 0.785714 0.928571 0.928571
685 1 0.857143 0.857143 0.857143
686 2 0.569802 0.53661 0.354418
687 2 0.466734 0.499943 0.285471
688 2 0.570615 0.497953 0.394294
689 2 0.427866 0.499976 0.323458
690 2 0.535371 0.428639 0.356943
691 3 0.499698 0.494311 0.350794
692 3 0.499304 0.49982 0.416551
693 3 0.499105 0.560426 0.356804
