ITEM: TIMESTEP
115
ITEM: NUMBER OF ATOMS
686
ITEM: BOX BOUNDS pp pp pp
0.0000000000000000e+00 2.2009546999999998e+01
0.0000000000000000e+00 2.2009546999999998e+01
0.0000000000000000e+00 2.2009546999999998e+01
ITEM: ATOMS id type xs ys zs
175 1 0.857015 0.428644 0.428709
2 1 0.071482 0.0714921 0.0714877
174 1 0.713549 0.428907 0.429207
4 1 0.214355 0.0714926 0.0714713
173 1 0.57036 0.429574 0.429637
6 1 0.35721 0.0714941 0.0714593
52 1 0.142923 4.79459e-05 0.142922
8 1 0.500054 0.0714965 0.0714601
54 1 0.285783 5.17569e-05 0.142906
10 1 0.642894 0.0714988 0.0714721
145 1 0.571447 0.428691 0.286109
12 1 0.785738 0.0714991 0.0714863
172 1 0.429868 0.42995 0.429766
14 1 0.928601 0.0714952 0.0714936
446 1 0.641889 0.500068 0.358674
16 1 0.0714757 0.214365 0.0714975
445 1 0.499748 0.5 0.355687
18 1 0.21436 0.214371 0.0714825
144 1 0.428527 0.428588 0.285953
20 1 0.357216 0.214375 0.0714669
143 1 0.285857 0.428683 0.285876
22 1 0.500054 0.214384 0.071471
142 1 0.142935 0.428656 0.285824
24 1 0.642882 0.214389 0.0714926
141 1 0.999964 0.428665 0.285849
26 1 0.78572 0.214388 0.0715112
180 1 0.642902 0.0714905 0.500047
28 1 0.928584 0.214379 0.0715129
179 1 0.500051 0.0714826 0.500041
30 1 0.0714641 0.357218 0.0715063
140 1 0.928518 0.357249 0.357266
32 1 0.214353 0.357218 0.0714793
139 1 0.857052 0.285884 0.28589
34 1 0.357197 0.357209 0.0714572
138 1 0.78545 0.357409 0.357456
36 1 0.500052 0.357235 0.0714773
137 1 0.714141 0.285972 0.285979
38 1 0.642879 0.357234 0.0715158
136 1 0.64242 0.357635 0.357706
40 1 0.785698 0.357246 0.071557
135 1 0.571389 0.285928 0.28592
42 1 0.928567 0.357233 0.0715375
134 1 0.500011 0.357658 0.357601
133 1 0.428669 0.28591 0.285884
159 1 0.571477 0.142967 0.428623
155 1 5.90731e-05 0.142936 0.428638
156 1 0.142964 0.142949 0.428641
157 1 0.285843 0.142996 0.428653
158 1 0.42862 0.142985 0.428609
171 1 0.286158 0.428696 0.428664
51 1 0.0714875 0.0714934 0.21436
170 1 0.142995 0.428634 0.428629
53 1 0.214366 0.0715013 0.214361
169 1 2.33509e-05 0.428636 0.428649
55 1 0.357212 0.0715046 0.214351
160 1 0.714313 0.142955 0.428638
57 1 0.500051 0.0715085 0.21435
147 1 0.856944 0.428734 0.285983
59 1 0.642886 0.0715116 0.214361
146 1 0.713964 0.428833 0.286238
61 1 0.785732 0.0715087 0.214367
168 1 0.857108 0.28584 0.428683
63 1 0.928598 0.0714962 0.214367
64 1 3.28638e-05 0.142941 0.14294
65 1 0.0714829 0.214382 0.214379
66 1 0.142929 0.142943 0.142934
67 1 0.2144 0.214415 0.214405
68 1 0.285788 0.142941 0.142919
69 1 0.357223 0.214402 0.214381
70 1 0.428633 0.142947 0.142915
71 1 0.500044 0.214414 0.214388
72 1 0.571466 0.142952 0.142925
73 1 0.642858 0.214423 0.214411
74 1 0.714303 0.142955 0.142938
75 1 0.785676 0.214439 0.214431
76 1 0.857151 0.142956 0.142949
77 1 0.928563 0.214401 0.214399
78 1 1.0766e-05 0.285809 0.14296
79 1 0.0714565 0.357233 0.214393
80 1 0.142915 0.2858 0.14294
81 1 0.214368 0.357236 0.214391
82 1 0.285791 0.285809 0.142946
83 1 0.357211 0.357239 0.214428
84 1 0.428637 0.285823 0.142945
85 1 0.500037 0.357312 0.21448
86 1 0.57145 0.285835 0.142969
87 1 0.64282 0.35728 0.214523
88 1 0.714272 0.285839 0.142998
89 1 0.785597 0.357322 0.214538
90 1 0.857112 0.28584 0.142997
91 1 0.928514 0.357265 0.214442
92 1 -8.16501e-06 0.42865 0.142974
93 1 0.142903 0.428642 0.142942
94 1 0.28578 0.428644 0.142934
95 1 0.428578 0.428608 0.142896
96 1 0.571467 0.428643 0.142975
97 1 0.714237 0.428675 0.143083
98 1 0.857078 0.428675 0.14304
167 1 0.714232 0.285889 0.428699
100 1 0.0715013 0.0714912 0.357214
166 1 0.571463 0.286054 0.428664
102 1 0.214387 0.071501 0.357222
165 1 0.428648 0.286129 0.428618
104 1 0.357215 0.0715081 0.357203
164 1 0.285967 0.285974 0.428719
106 1 0.500051 0.0715169 0.357212
163 1 0.143006 0.285842 0.428659
108 1 0.642895 0.07151 0.357207
162 1 4.76028e-05 0.285811 0.428653
110 1 0.78574 0.0714967 0.357214
161 1 0.857162 0.142946 0.428648
112 1 0.928609 0.0714919 0.357217
113 1 4.42056e-05 0.14294 0.285796
114 1 0.0715062 0.214384 0.357228
115 1 0.142944 0.142948 0.285799
116 1 0.214421 0.214425 0.357248
117 1 0.285812 0.142979 0.285807
118 1 0.357259 0.214496 0.357253
119 1 0.428641 0.142981 0.285802
120 1 0.500045 0.214513 0.357289
121 1 0.571452 0.142984 0.285811
122 1 0.642842 0.214474 0.357265
123 1 0.71429 0.142983 0.285813
124 1 0.785695 0.214427 0.357254
125 1 0.857152 0.142959 0.285806
126 1 0.928585 0.214389 0.357235
127 1 1.1857e-05 0.285817 0.285818
128 1 0.0714933 0.357228 0.357229
129 1 0.142964 0.285828 0.285824
130 1 0.214491 0.357284 0.357272
131 1 0.285936 0.285957 0.285943
132 1 0.35768 0.357708 0.357678
60 1 0.714314 5.17487e-05 0.14292
148 1 6.12768e-05 3.99446e-05 0.428634
154 1 0.857172 3.28876e-05 0.428641
149 1 0.142955 3.72394e-05 0.428634
58 1 0.571472 5.36484e-05 0.142907
56 1 0.428631 5.28009e-05 0.142899
150 1 0.285826 2.32137e-05 0.42864
111 1 0.857164 3.56653e-05 0.285795
105 1 0.428635 4.79689e-05 0.285781
103 1 0.285796 3.93221e-05 0.285784
101 1 0.142937 4.27246e-05 0.28579
99 1 1.00005 4.3298e-05 0.285789
62 1 0.857164 4.73563e-05 0.14293
50 1 3.7442e-05 4.60619e-05 0.142929
49 1 0.85714 0.428652 9.30594e-05
44 1 0.142922 0.428636 4.25692e-05
178 1 0.357248 0.0715147 0.500051
43 1 2.82683e-05 0.428639 7.68614e-05
177 1 0.214404 0.0714992 0.50005
48 1 0.714298 0.428648 7.23412e-05
47 1 0.571477 0.428648 4.74482e-06
46 1 0.428628 0.428632 -2.2459e-05
41 1 0.857149 0.28581 7.11272e-05
1 1 4.20929e-05 4.63284e-05 4.51793e-05
3 1 0.142926 4.59376e-05 3.04884e-05
39 1 0.7143 0.285815 4.39331e-05
13 1 0.857171 4.59288e-05 4.23729e-05
37 1 0.571472 0.285819 1.36177e-05
35 1 0.428647 0.285814 -4.62288e-06
33 1 0.285796 0.285797 5.25376e-06
25 1 0.71431 0.142944 3.5669e-05
15 1 4.09112e-05 0.14293 5.29057e-05
17 1 0.142929 0.142932 3.57047e-05
27 1 0.857163 0.142939 5.1693e-05
11 1 0.714316 4.47611e-05 2.70637e-05
29 1 3.37394e-05 0.285794 6.83614e-05
31 1 0.142926 0.285791 4.06359e-05
21 1 0.42864 0.14294 8.92822e-06
23 1 0.571474 0.142943 1.74183e-05
194 1 0.642725 0.357448 0.499942
592 1 0.500047 0.500048 0.785577
197 1 7.21902e-05 3.71838e-05 0.571473
199 1 0.142966 3.47712e-05 0.571466
246 1 7.10814e-05 3.85424e-05 0.714317
176 1 0.0715166 0.0714873 0.500053
181 1 0.785743 0.0714895 0.500062
248 1 0.142966 3.52102e-05 0.7143
593 1 0.642867 0.500058 0.785462
209 1 0.857181 3.17539e-05 0.571477
185 1 0.357349 0.214574 0.50006
182 1 0.928621 0.0714862 0.500057
183 1 0.0715288 0.21438 0.500058
188 1 0.785706 0.214415 0.500086
201 1 0.285839 1.8298e-05 0.571458
190 1 0.0715476 0.357237 0.500062
191 1 0.214591 0.357348 0.500065
192 1 0.35783 0.357826 0.500115
45 1 0.285798 0.428643 0.999998
184 1 0.214447 0.214433 0.500054
195 1 0.785595 0.357339 0.500148
196 1 0.928581 0.35724 0.500088
250 1 0.28583 2.13363e-05 0.714285
198 1 0.0715239 0.0714861 0.642889
258 1 0.857179 3.07678e-05 0.714317
200 1 0.214409 0.071498 0.642872
343 1 0.857153 0.428654 0.857183
202 1 0.357243 0.071509 0.642872
342 1 0.714283 0.428681 0.857091
204 1 0.500057 0.0715028 0.642879
189 1 0.92861 0.214376 0.500069
206 1 0.642912 0.0714909 0.642902
341 1 0.571496 0.42872 0.856975
208 1 0.785746 0.0714882 0.642894
340 1 0.428673 0.428663 0.857012
210 1 0.928626 0.0714826 0.642897
211 1 7.40378e-05 0.142929 0.571477
212 1 0.0715405 0.214376 0.642888
213 1 0.142977 0.142947 0.571465
214 1 0.214456 0.214431 0.642848
215 1 0.285859 0.142999 0.571447
216 1 0.357311 0.214545 0.642814
217 1 0.428652 0.143012 0.571472
218 1 0.500032 0.214546 0.642824
219 1 0.571489 0.142911 0.571486
220 1 0.642914 0.214466 0.642898
221 1 0.714305 0.142966 0.571476
222 1 0.785725 0.214406 0.642892
223 1 0.857176 0.142936 0.571482
224 1 0.928623 0.214367 0.642902
225 1 8.0201e-05 0.285802 0.571483
226 1 0.0715627 0.35722 0.642896
227 1 0.14303 0.28584 0.571453
228 1 0.214561 0.357298 0.64282
229 1 0.285996 0.285986 0.571393
230 1 0.357796 0.357807 0.642375
231 1 0.428754 0.286249 0.571464
232 1 0.499949 0.358078 0.642449
233 1 0.571513 0.28563 0.571512
234 1 0.642667 0.3579 0.642566
235 1 0.714197 0.285946 0.571485
236 1 0.785705 0.35726 0.642932
237 1 0.857146 0.285825 0.571492
238 1 0.928634 0.357212 0.642928
239 1 9.0948e-05 0.428635 0.571498
240 1 0.143047 0.428643 0.571477
241 1 0.286256 0.428761 0.571467
242 1 0.430173 0.43038 0.57042
243 1 0.571006 0.427141 0.571133
244 1 0.714195 0.428795 0.571777
245 1 0.857169 0.428665 0.571563
295 1 5.94837e-05 4.29265e-05 0.857173
247 1 0.0715155 0.0714868 0.785737
297 1 0.142949 4.0286e-05 0.857152
249 1 0.214398 0.0714962 0.785711
339 1 0.285873 0.428671 0.857063
251 1 0.357242 0.0714949 0.785701
338 1 0.14297 0.428643 0.857148
253 1 0.500069 0.0715011 0.785693
337 1 5.87627e-05 0.428639 0.85719
255 1 0.642886 0.0715009 0.785707
336 1 0.928597 0.357222 0.928633
257 1 0.785742 0.0714924 0.785736
335 1 0.85714 0.285824 0.85716
259 1 0.928622 0.0714839 0.785746
260 1 7.59911e-05 0.142927 0.714321
261 1 0.0715301 0.214368 0.785735
262 1 0.142976 0.142943 0.714298
263 1 0.214447 0.214423 0.78567
264 1 0.285851 0.14299 0.714263
265 1 0.357284 0.214454 0.785649
266 1 0.428661 0.143 0.714268
267 1 0.500092 0.214483 0.785632
268 1 0.571467 0.143015 0.714259
269 1 0.642853 0.214473 0.785653
270 1 0.714316 0.14297 0.714309
271 1 0.785696 0.214429 0.7857
272 1 0.857179 0.142933 0.71432
273 1 0.928615 0.214364 0.785751
274 1 8.48391e-05 0.285788 0.71433
275 1 0.0715352 0.357215 0.785744
276 1 0.143023 0.285827 0.71428
277 1 0.214464 0.357255 0.78567
278 1 0.286009 0.285991 0.714122
279 1 0.357396 0.357385 0.785485
280 1 0.428751 0.286038 0.714129
281 1 0.500145 0.357473 0.785424
282 1 0.571422 0.286125 0.714041
283 1 0.642809 0.357404 0.785517
284 1 0.71419 0.286002 0.714185
285 1 0.78564 0.357329 0.785657
286 1 0.857163 0.285806 0.714331
287 1 0.928609 0.357219 0.785762
288 1 9.46606e-05 0.428627 0.714344
289 1 0.143029 0.428645 0.71429
290 1 0.286007 0.42872 0.714166
291 1 0.428962 0.429006 0.713718
292 1 0.571508 0.429175 0.713553
293 1 0.714018 0.428995 0.714024
294 1 0.857153 0.428645 0.714353
334 1 0.785716 0.35724 0.928603
296 1 0.0714966 0.0714888 0.928602
333 1 0.714272 0.285859 0.8571
298 1 0.214373 0.0714891 0.92858
332 1 0.64288 0.357253 0.928539
300 1 0.357227 0.0714907 0.928565
331 1 0.571466 0.285884 0.857044
302 1 0.500061 0.0714923 0.928565
299 1 0.285817 2.5636e-05 0.857128
304 1 0.642893 0.0714933 0.928576
330 1 0.50008 0.357263 0.928497
306 1 0.785738 0.0714917 0.928595
329 1 0.428697 0.28588 0.85704
308 1 0.928606 0.0714897 0.928606
309 1 6.05233e-05 0.142927 0.857176
310 1 0.0714961 0.214362 0.928607
311 1 0.14296 0.142939 0.857149
312 1 0.214388 0.214379 0.928566
313 1 0.285823 0.142953 0.857123
314 1 0.35724 0.214392 0.928545
315 1 0.428661 0.142964 0.857109
316 1 0.500068 0.214399 0.928545
317 1 0.571475 0.142962 0.857119
318 1 0.642882 0.214397 0.928564
319 1 0.7143 0.142958 0.85714
320 1 0.785722 0.214387 0.928592
321 1 0.857162 0.142944 0.857163
322 1 0.928598 0.214371 0.928616
323 1 5.68524e-05 0.285791 0.857184
324 1 0.0714951 0.357215 0.928614
325 1 0.142968 0.285802 0.857149
326 1 0.214388 0.357226 0.928565
327 1 0.285872 0.285858 0.857061
328 1 0.35724 0.357237 0.928514
545 1 0.785655 0.500002 0.643033
542 1 0.357886 0.500011 0.642576
307 1 0.857169 3.37762e-05 0.857164
7 1 0.428638 4.40039e-05 1.00001
9 1 0.571477 4.41331e-05 1.00001
19 1 0.285794 0.142935 1.00002
517 1 0.785829 0.500008 0.50014
5 1 0.28579 4.481e-05 1.00001
193 1 0.500052 0.356237 0.499954
187 1 0.642865 0.214416 0.50003
186 1 0.500031 0.214281 0.50002
511 1 0.85713 0.857122 0.428666
510 1 0.714278 0.85707 0.428683
346 1 0.3572 0.500057 0.0714457
509 1 0.571509 0.857119 0.428662
508 1 0.428644 0.857056 0.428613
349 1 0.78568 0.500071 0.0715834
507 1 0.28589 0.857049 0.428672
519 1 0.0715349 0.642885 0.500052
352 1 0.0714621 0.642897 0.0715044
399 1 0.928492 0.500074 0.214462
354 1 0.214348 0.642895 0.0714717
396 1 0.499959 0.500035 0.214123
356 1 0.357192 0.642903 0.0714323
397 1 0.642752 0.500045 0.21466
358 1 0.500037 0.642899 0.0714321
152 1 0.571483 1.00004 0.428626
360 1 0.642888 0.642903 0.0715015
151 1 0.428631 1.00003 0.428616
362 1 0.785686 0.642874 0.0715671
394 1 0.214354 0.500056 0.214384
364 1 0.928561 0.642888 0.0715406
393 1 0.0714407 0.500063 0.214396
366 1 0.0714697 0.785743 0.0714952
344 1 0.0714591 0.500059 0.0715083
368 1 0.214352 0.785742 0.0714684
350 1 0.928558 0.500064 0.0715478
370 1 0.357205 0.785746 0.0714362
348 1 0.642872 0.500057 0.0715444
372 1 0.500054 0.785733 0.0714428
109 1 0.714316 1.00005 0.285786
374 1 0.642881 0.785727 0.071475
107 1 0.571468 1.00005 0.285785
376 1 0.785717 0.785724 0.0715137
153 1 0.714324 1.00003 0.428632
378 1 0.928577 0.78573 0.0715184
512 1 0.0715154 0.500051 0.500055
380 1 0.0714792 0.928608 0.0714867
347 1 0.500033 0.500052 0.0714148
382 1 0.214355 0.928607 0.0714649
496 1 0.712856 0.571453 0.429672
384 1 0.357211 0.928607 0.0714487
499 1 0.143003 0.714278 0.428646
386 1 0.500054 0.928604 0.0714492
345 1 0.214348 0.500057 0.0714748
388 1 0.642892 0.928601 0.071465
498 1 1.00002 0.714304 0.428648
390 1 0.785737 0.928601 0.0714827
497 1 0.856868 0.571489 0.428791
392 1 0.928593 0.928601 0.0714948
506 1 0.142975 0.857132 0.428644
505 1 1.00005 0.857152 0.428644
395 1 0.357229 0.500051 0.214418
504 1 0.857022 0.714263 0.428708
503 1 0.713847 0.713913 0.429105
398 1 0.785544 0.500098 0.214614
502 1 0.571596 0.714111 0.428792
400 1 0.999988 0.571475 0.142977
401 1 0.0714454 0.642886 0.214393
402 1 0.142899 0.571475 0.142939
403 1 0.214358 0.642876 0.21438
404 1 0.285776 0.571466 0.142924
405 1 0.357186 0.642885 0.214378
406 1 0.428579 0.571495 0.142869
407 1 0.49997 0.642878 0.214342
408 1 0.571463 0.571491 0.142897
409 1 0.642838 0.642902 0.214503
410 1 0.714213 0.571454 0.143109
411 1 0.785558 0.642805 0.214587
412 1 0.857073 0.571468 0.143042
413 1 0.928498 0.642865 0.214452
414 1 1 0.714306 0.142965
415 1 0.0714658 0.785728 0.21438
416 1 0.142906 0.714314 0.142933
417 1 0.214376 0.785709 0.214386
418 1 0.285775 0.714312 0.142918
419 1 0.357203 0.78573 0.214358
420 1 0.428606 0.714327 0.142888
421 1 0.500046 0.785714 0.214375
422 1 0.57145 0.714301 0.14294
423 1 0.642855 0.785705 0.214414
424 1 0.714277 0.714296 0.143004
425 1 0.785651 0.785662 0.214468
426 1 0.857095 0.714276 0.143014
427 1 0.92854 0.785702 0.214415
428 1 2.2967e-05 0.857162 0.142943
429 1 0.0714817 0.9286 0.214365
430 1 0.14292 0.857165 0.142929
431 1 0.214369 0.92859 0.214364
432 1 0.285781 0.857171 0.142907
433 1 0.35721 0.928602 0.214344
434 1 0.428631 0.857166 0.142899
435 1 0.500052 0.928603 0.214347
436 1 0.571466 0.857163 0.142911
437 1 0.642884 0.928597 0.21436
438 1 0.714301 0.857155 0.142937
439 1 0.785726 0.928586 0.214374
440 1 0.857136 0.857141 0.142962
441 1 0.928586 0.928587 0.214376
442 1 0.0714658 0.500063 0.357247
443 1 0.214481 0.50006 0.357297
444 1 0.357541 0.500041 0.35754
501 1 0.428988 0.713624 0.428856
500 1 0.286029 0.714124 0.42872
447 1 0.785174 0.500185 0.357706
448 1 0.928424 0.500087 0.357326
449 1 0.999954 0.57147 0.285853
450 1 0.0714666 0.642886 0.357234
451 1 0.142927 0.57146 0.285823
452 1 0.21445 0.642847 0.357249
453 1 0.285846 0.571418 0.285867
454 1 0.35752 0.642536 0.35751
455 1 0.428511 0.571529 0.28588
456 1 0.499739 0.642777 0.357285
457 1 0.571406 0.571537 0.285644
458 1 0.642354 0.642656 0.357965
459 1 0.713835 0.571357 0.286363
460 1 0.785301 0.642702 0.357576
461 1 0.856924 0.571444 0.285992
462 1 0.928456 0.642861 0.357299
463 1 0.999982 0.714293 0.285831
464 1 0.0714946 0.785721 0.357226
465 1 0.142937 0.714292 0.285814
466 1 0.214444 0.785669 0.357255
467 1 0.28588 0.714202 0.285888
468 1 0.357357 0.785528 0.357339
469 1 0.428594 0.714287 0.285807
470 1 0.500054 0.7856 0.357318
471 1 0.571397 0.71421 0.285921
472 1 0.642844 0.785658 0.357293
473 1 0.714097 0.714144 0.286072
474 1 0.785563 0.785571 0.357386
475 1 0.857003 0.71422 0.285932
476 1 0.928541 0.785703 0.357253
477 1 1.00003 0.857153 0.285805
478 1 0.0715006 0.928593 0.357217
479 1 0.142944 0.857148 0.285802
480 1 0.214396 0.928571 0.357226
481 1 0.285837 0.857099 0.28583
482 1 0.357228 0.928556 0.357213
483 1 0.42864 0.857131 0.285797
484 1 0.50006 0.928571 0.357222
485 1 0.571451 0.857127 0.285817
486 1 0.642895 0.928588 0.357214
487 1 0.714286 0.85712 0.285829
488 1 0.785721 0.92856 0.357234
489 1 0.857107 0.857106 0.285848
490 1 0.928597 0.928588 0.357224
491 1 -1.09343e-05 0.571479 0.428661
492 1 0.142977 0.571478 0.428636
493 1 0.286083 0.571467 0.428676
494 1 0.429233 0.57057 0.429369
495 1 0.570365 0.571102 0.427235
367 1 0.142924 0.714318 3.49877e-05
365 1 3.01913e-05 0.714318 6.58744e-05
363 1 0.85714 0.571476 9.68183e-05
353 1 0.14292 0.571478 4.01286e-05
391 1 0.857155 0.857158 4.34393e-05
351 1 2.77321e-05 0.571478 7.47118e-05
355 1 0.285796 0.571475 -4.88307e-06
361 1 0.714288 0.571474 6.92935e-05
375 1 0.714308 0.71431 3.38072e-05
377 1 0.857144 0.714305 7.36642e-05
379 1 3.78115e-05 0.857172 5.2906e-05
381 1 0.142927 0.857171 3.00562e-05
534 1 0.214418 0.928561 0.500051
686 2 0.533862 0.556054 0.517061
514 1 0.356448 0.500108 0.500109
515 1 0.928599 0.928595 0.928599
516 1 0.644062 0.500543 0.501245
685 2 0.553781 0.515345 0.53871
684 1 0.785733 0.928588 0.928585
303 1 0.571478 1.00003 0.857124
533 1 0.0715166 0.92859 0.500051
305 1 0.71431 1.00003 0.857143
522 1 0.500444 0.644275 0.500524
523 1 0.641941 0.642001 0.501171
301 1 0.428655 1.00002 0.857119
530 1 0.642885 0.785488 0.500064
526 1 0.0715289 0.785714 0.500055
527 1 0.214501 0.785638 0.500057
528 1 0.35751 0.785387 0.500106
529 1 0.500038 0.785868 0.500012
521 1 0.358008 0.642342 0.500012
531 1 0.785626 0.785615 0.500136
532 1 0.928575 0.785706 0.500076
387 1 0.571475 0.857153 0.999996
513 1 0.214357 0.500042 0.50004
535 1 0.357281 0.928502 0.500059
254 1 0.571478 1 0.71428
252 1 0.428656 1 0.714282
538 1 0.785726 0.928558 0.500073
541 1 0.214564 0.500039 0.642818
205 1 0.571488 1.00004 0.571477
683 1 0.714286 0.857107 0.857105
682 1 0.642891 0.928582 0.928563
543 1 0.500614 0.500726 0.644018
544 1 0.642188 0.500962 0.642322
681 1 0.571477 0.857093 0.857075
680 1 0.500065 0.92858 0.928549
547 1 0.000118082 0.571481 0.5715
548 1 0.0715579 0.642899 0.642903
549 1 0.143003 0.571478 0.571475
550 1 0.214517 0.642865 0.642861
551 1 0.28592 0.571477 0.571493
552 1 0.35779 0.642532 0.642591
553 1 0.427339 0.57083 0.570979
554 1 0.501147 0.641093 0.641302
555 1 0.857131 0.857123 0.857131
556 1 0.641803 0.641587 0.641674
557 1 0.715882 0.571545 0.571797
558 1 0.785603 0.642954 0.643015
559 1 0.857414 0.5715 0.571575
560 1 0.928644 0.642926 0.642953
561 1 6.50057e-05 0.714301 0.571479
562 1 0.0715437 0.785717 0.64288
563 1 0.143044 0.714266 0.571448
564 1 0.214503 0.78564 0.642826
565 1 0.286125 0.714042 0.571376
566 1 0.357421 0.785469 0.64276
567 1 0.429125 0.713392 0.571557
568 1 0.500083 0.785254 0.642762
569 1 0.571599 0.715273 0.571466
570 1 0.642924 0.785399 0.642878
571 1 0.713961 0.713891 0.571527
572 1 0.785663 0.785632 0.64286
573 1 0.857067 0.714228 0.571493
574 1 0.928598 0.785715 0.642892
575 1 1.00007 0.857152 0.571474
576 1 0.0715245 0.92859 0.642885
577 1 0.142994 0.857128 0.571458
578 1 0.214424 0.928558 0.642862
579 1 0.285911 0.857033 0.571432
580 1 0.357271 0.928512 0.64286
581 1 0.42872 0.856958 0.571489
582 1 0.500062 0.928502 0.642871
583 1 0.571521 0.857236 0.571493
584 1 0.642922 0.92854 0.642904
585 1 0.714253 0.857024 0.571482
586 1 0.785732 0.928557 0.642887
587 1 0.857154 0.857128 0.571482
588 1 0.928621 0.928589 0.642893
539 1 0.928614 0.928589 0.50006
590 1 0.214471 0.500067 0.785665
591 1 0.357428 0.500117 0.785482
679 1 0.428684 0.857091 0.857065
678 1 0.357233 0.928582 0.928548
594 1 0.785672 0.500109 0.785695
595 1 0.928611 0.500066 0.785763
596 1 8.94129e-05 0.571477 0.714334
597 1 0.0715365 0.64289 0.785735
598 1 0.143035 0.571458 0.714279
599 1 0.214473 0.642853 0.785658
600 1 0.286049 0.571404 0.714105
601 1 0.357377 0.642795 0.785515
602 1 0.428978 0.571494 0.713617
603 1 0.500074 0.642759 0.78526
604 1 0.571447 0.571418 0.715111
605 1 0.642883 0.642835 0.785378
606 1 0.714012 0.571494 0.71401
607 1 0.785669 0.642852 0.785681
608 1 0.857123 0.57148 0.714306
609 1 0.928606 0.642892 0.785754
610 1 8.04626e-05 0.714326 0.714334
611 1 0.0715288 0.785736 0.785733
612 1 0.143021 0.714294 0.714289
613 1 0.214474 0.785671 0.785655
614 1 0.286048 0.714142 0.714135
615 1 0.357421 0.785523 0.785505
616 1 0.429177 0.713691 0.713713
617 1 0.50014 0.78553 0.785519
618 1 0.571429 0.71369 0.713691
619 1 0.642816 0.785552 0.785556
620 1 0.71387 0.713828 0.713857
621 1 0.785598 0.785582 0.785595
622 1 0.857117 0.714299 0.714323
623 1 0.928593 0.785728 0.78574
624 1 6.99619e-05 0.857159 0.714312
625 1 0.0715172 0.928596 0.785731
626 1 0.14299 0.857136 0.714284
627 1 0.214408 0.928572 0.7857
628 1 0.285892 0.857063 0.714237
629 1 0.357268 0.928526 0.785671
630 1 0.428724 0.856965 0.714207
631 1 0.500085 0.92852 0.785665
632 1 0.571473 0.856942 0.71417
633 1 0.642877 0.928529 0.785682
634 1 0.714284 0.857037 0.714267
635 1 0.785725 0.928555 0.785717
636 1 0.857157 0.857134 0.714308
637 1 0.928615 0.928595 0.785741
677 1 0.285865 0.857099 0.857074
676 1 0.214382 0.92859 0.928566
640 1 0.357256 0.50007 0.928496
675 1 0.142967 0.857151 0.857138
674 1 0.0714953 0.928603 0.928596
643 1 0.785712 0.500072 0.928613
673 1 5.16562e-05 0.857165 0.857168
645 1 6.03838e-05 0.571477 0.857188
646 1 0.071493 0.642896 0.928611
647 1 0.142969 0.571471 0.857147
648 1 0.214388 0.642886 0.92856
649 1 0.285871 0.571458 0.85706
650 1 0.357249 0.64288 0.928494
651 1 0.428721 0.571482 0.856957
652 1 0.500058 0.642884 0.928475
653 1 0.571495 0.571481 0.857174
654 1 0.642903 0.642896 0.928532
655 1 0.714243 0.57147 0.857059
656 1 0.785712 0.64288 0.928598
657 1 0.857155 0.571478 0.857182
658 1 0.928596 0.642895 0.928632
659 1 5.79216e-05 0.714317 0.857179
660 1 0.0714951 0.785742 0.928603
661 1 0.142969 0.714304 0.857142
662 1 0.214386 0.785727 0.928558
663 1 0.285867 0.714268 0.857062
664 1 0.357255 0.7857 0.928498
665 1 0.428717 0.714222 0.856955
666 1 0.50008 0.785687 0.928492
667 1 0.571469 0.714175 0.856931
668 1 0.642874 0.78569 0.928517
669 1 0.714266 0.71425 0.85704
670 1 0.785713 0.785711 0.928567
671 1 0.857149 0.714301 0.857165
672 1 0.928596 0.785737 0.928615
546 1 0.928661 0.500037 0.642957
203 1 0.428653 1.00001 0.57147
256 1 0.714327 1.00002 0.714315
540 1 0.0715719 0.500049 0.6429
641 1 0.500058 0.50005 0.928525
357 1 0.428635 0.571481 0.999956
359 1 0.571477 0.571481 1.00001
589 1 0.0715365 0.500056 0.785741
369 1 0.285794 0.714316 0.999989
371 1 0.428638 0.714311 0.999958
373 1 0.571472 0.714297 0.999976
207 1 0.714319 1.00002 0.571478
642 1 0.642896 0.500053 0.928559
638 1 0.0714927 0.500057 0.928616
639 1 0.214387 0.500059 0.928566
383 1 0.285798 0.857163 0.999992
385 1 0.428645 0.857156 0.999982
389 1 0.714306 0.857152 1.00002
644 1 0.928597 0.500061 0.928641
537 1 0.642912 0.928567 0.500049
536 1 0.500051 0.928609 0.500037
525 1 0.928566 0.642895 0.500064
524 1 0.785439 0.642854 0.500086
520 1 0.214564 0.64281 0.500033
518 1 0.928626 0.500046 0.500074
