ITEM: TIMESTEP
109
ITEM: NUMBER OF ATOMS
693
ITEM: BOX BOUNDS pp pp pp
0.0000000000000000e+00 2.2009546999999998e+01
0.0000000000000000e+00 2.2009546999999998e+01
0.0000000000000000e+00 2.2009546999999998e+01
ITEM: ATOMS id type xs ys zs
693 3 0.429332 0.475671 0.489848
2 1 0.0714406 0.0713555 0.0713249
691 2 0.392904 0.497206 0.436237
4 1 0.214301 0.0713306 0.0713077
690 2 0.461784 0.436159 0.499406
6 1 0.357183 0.0713031 0.0712825
689 2 0.463642 0.498261 0.434696
8 1 0.500074 0.0712866 0.0712647
687 2 0.395292 0.43668 0.498655
10 1 0.642963 0.0712907 0.0712648
175 1 0.857477 0.428486 0.428431
12 1 0.785831 0.0713205 0.0712875
174 1 0.715165 0.428278 0.428195
14 1 0.928638 0.0713649 0.0713276
447 1 0.786124 0.499985 0.356886
16 1 0.0714339 0.214193 0.0713349
518 1 0.928687 0.500005 0.499952
18 1 0.214245 0.214127 0.0712519
516 1 0.644576 0.499804 0.49969
20 1 0.357165 0.214097 0.0712174
396 1 0.500124 0.499848 0.213779
22 1 0.500106 0.214079 0.0711855
395 1 0.357237 0.499865 0.213949
24 1 0.643044 0.214082 0.0711748
160 1 0.714472 0.142698 0.428486
26 1 0.785876 0.214153 0.0712754
446 1 0.643495 0.500005 0.356711
28 1 0.928655 0.214202 0.0713365
29 1 3.34566e-05 0.285643 -2.11319e-05
30 1 0.0714375 0.357093 0.0713711
159 1 0.571605 0.142624 0.428465
32 1 0.214257 0.357067 0.0713149
158 1 0.428663 0.142817 0.428414
34 1 0.357169 0.357025 0.071212
157 1 0.285724 0.142761 0.428495
36 1 0.500104 0.357008 0.0711489
156 1 0.142874 0.142829 0.428523
38 1 0.643046 0.357027 0.0711993
155 1 6.35988e-05 0.142824 0.428511
40 1 0.785876 0.357067 0.0712959
398 1 0.785966 0.499995 0.214049
42 1 0.928656 0.357089 0.0713542
43 1 2.22762e-05 0.428541 3.89999e-06
154 1 0.857224 2.80432e-05 0.428497
397 1 0.643182 0.500003 0.213898
161 1 0.857278 0.142777 0.428497
162 1 6.30986e-05 0.285635 0.428511
347 1 0.500081 0.499938 0.0712451
346 1 0.357179 0.499946 0.0713123
186 1 0.500042 0.21415 0.499798
51 1 0.0714459 0.0713808 0.214174
173 1 0.573558 0.42625 0.426063
53 1 0.214268 0.0712889 0.214124
172 1 0.429161 0.417251 0.416171
55 1 0.357175 0.0712527 0.214093
171 1 0.284685 0.427332 0.427048
57 1 0.500098 0.0712224 0.214074
170 1 0.142505 0.428526 0.428457
59 1 0.643024 0.0712169 0.214077
169 1 -4.97215e-08 0.428541 0.428491
61 1 0.785859 0.0713228 0.214138
185 1 0.357317 0.214228 0.49981
63 1 0.928653 0.0713852 0.214179
64 1 3.41571e-05 0.142761 0.142729
65 1 0.071361 0.214132 0.214098
66 1 0.142796 0.14269 0.142667
67 1 0.214017 0.213898 0.213866
68 1 0.285705 0.142666 0.142645
69 1 0.357114 0.213925 0.213889
70 1 0.428637 0.142634 0.142611
71 1 0.500194 0.213878 0.213839
72 1 0.571582 0.142618 0.142596
73 1 0.643347 0.213787 0.213756
74 1 0.714515 0.142626 0.142601
75 1 0.786031 0.214045 0.214012
76 1 0.857291 0.14273 0.142698
77 1 0.92869 0.214168 0.214133
78 1 5.06459e-05 0.285643 0.142745
79 1 0.0714133 0.357095 0.214141
80 1 0.142807 0.285607 0.142682
81 1 0.214152 0.357044 0.213975
82 1 0.285622 0.28548 0.142469
83 1 0.35706 0.356832 0.213552
84 1 0.428644 0.285417 0.142436
85 1 0.500294 0.356769 0.213421
86 1 0.571698 0.285419 0.142364
87 1 0.643278 0.356919 0.213755
88 1 0.714552 0.285531 0.142561
89 1 0.786001 0.357032 0.214032
90 1 0.857306 0.285617 0.142701
91 1 0.928699 0.357081 0.214138
92 1 5.00312e-05 0.428548 0.142758
93 1 0.14283 0.428555 0.142741
94 1 0.285665 0.428517 0.142622
95 1 0.428649 0.428428 0.142609
96 1 0.57167 0.428476 0.142462
97 1 0.714523 0.428516 0.142609
98 1 0.857296 0.428534 0.142712
99 1 4.04782e-05 3.71179e-05 0.285619
100 1 0.0714601 0.0714346 0.357068
168 1 0.857373 0.285575 0.428477
102 1 0.2143 0.0713858 0.357055
167 1 0.71469 0.285422 0.42845
104 1 0.357205 0.0712893 0.357027
166 1 0.57183 0.285199 0.428496
106 1 0.500083 0.0712301 0.357009
165 1 0.428773 0.286279 0.427882
108 1 0.642998 0.071272 0.357024
164 1 0.285643 0.285521 0.428595
110 1 0.785846 0.0713584 0.357044
163 1 0.142802 0.285634 0.428564
112 1 0.928653 0.0714136 0.357061
113 1 5.93779e-05 0.142797 0.285619
114 1 0.0714419 0.214209 0.357069
115 1 0.142834 0.142741 0.285593
116 1 0.214209 0.214084 0.357031
117 1 0.285657 0.142541 0.285479
118 1 0.357122 0.213737 0.356836
119 1 0.428647 0.142512 0.285408
120 1 0.500249 0.213608 0.356764
121 1 0.571668 0.142437 0.285419
122 1 0.643205 0.213884 0.356926
123 1 0.714517 0.142625 0.285525
124 1 0.785972 0.214098 0.357004
125 1 0.857294 0.142753 0.285593
126 1 0.928699 0.214193 0.357049
127 1 1.00002 0.285608 0.285567
128 1 0.0712737 0.357051 0.356999
129 1 0.142545 0.285437 0.285391
130 1 0.213407 0.356634 0.356544
131 1 0.284866 0.284722 0.284656
132 1 0.354428 0.354586 0.354403
133 1 0.428666 0.28498 0.284884
134 1 0.503131 0.354298 0.354103
135 1 0.572576 0.284539 0.284476
136 1 0.644328 0.356204 0.35611
137 1 0.71496 0.285242 0.285194
138 1 0.786262 0.356915 0.356859
139 1 0.857423 0.285552 0.285511
140 1 0.928735 0.357054 0.357007
141 1 4.35961e-05 0.428551 0.285572
142 1 0.142734 0.428594 0.285522
143 1 0.285523 0.428625 0.285257
144 1 0.42873 0.427908 0.285646
145 1 0.572002 0.428458 0.284868
146 1 0.714749 0.428496 0.285319
147 1 0.857386 0.428521 0.285513
148 1 3.00624e-05 6.6485e-05 0.428503
149 1 0.142858 8.67194e-05 0.428502
177 1 0.214307 0.0714534 0.499944
178 1 0.357218 0.0714145 0.499899
179 1 0.500055 0.0713517 0.499891
187 1 0.643097 0.214059 0.499948
188 1 0.785927 0.21413 0.499943
194 1 0.643393 0.356888 0.499902
517 1 0.786369 0.499957 0.499891
515 1 0.519796 0.501194 0.499964
195 1 0.786094 0.35696 0.499924
44 1 0.142826 0.428537 2.49911e-05
176 1 0.0714537 0.0714586 0.499952
640 1 0.357136 0.499972 0.928642
639 1 0.214202 0.499996 0.928715
591 1 0.356975 0.499981 0.786032
180 1 0.642968 0.0713311 0.499932
181 1 0.785826 0.0713796 0.499941
182 1 0.92864 0.0714292 0.499947
183 1 0.0714499 0.21423 0.499969
184 1 0.214297 0.214248 0.49998
47 1 0.571548 0.428504 0.999904
46 1 0.428613 0.4285 0.999928
590 1 0.213933 0.500022 0.786162
541 1 0.213113 0.500059 0.64368
189 1 0.928682 0.214205 0.499952
190 1 0.0713725 0.357084 0.499985
191 1 0.214247 0.35726 0.500038
192 1 0.356308 0.356753 0.500441
193 1 0.501368 0.356731 0.500539
23 1 0.571524 0.142702 0.999863
21 1 0.428627 0.142708 0.999874
45 1 0.285699 0.428521 0.99999
197 1 1.55706e-05 7.48531e-05 0.571394
198 1 0.0714436 0.0714486 0.642832
199 1 0.142849 0.000101296 0.571393
200 1 0.214307 0.0714207 0.642819
201 1 0.285748 6.10319e-05 0.57136
202 1 0.357187 0.0713295 0.642805
343 1 0.857244 0.42852 0.857226
204 1 0.500059 0.0712898 0.642798
19 1 0.285733 0.142728 0.999901
206 1 0.642933 0.071321 0.642803
39 1 0.714438 0.285592 0.999903
208 1 0.785802 0.0713791 0.642821
209 1 0.857205 3.48344e-05 0.571387
210 1 0.928623 0.0714252 0.642829
211 1 4.83841e-05 0.142827 0.571396
212 1 0.0714161 0.214204 0.642862
213 1 0.142874 0.142836 0.571392
214 1 0.214212 0.214079 0.642919
215 1 0.285766 0.142803 0.571345
216 1 0.357128 0.213897 0.642947
217 1 0.428649 0.142723 0.571361
218 1 0.500147 0.213905 0.64294
219 1 0.571523 0.142699 0.571339
220 1 0.643099 0.213961 0.642922
221 1 0.714433 0.142723 0.571383
222 1 0.785899 0.214129 0.642858
223 1 0.857254 0.142786 0.571391
224 1 0.928654 0.214198 0.64285
225 1 3.49002e-05 0.285632 0.571419
226 1 0.0711722 0.356999 0.643023
227 1 0.142792 0.285637 0.571427
228 1 0.21338 0.356461 0.643683
229 1 0.285663 0.285491 0.571512
230 1 0.356013 0.355622 0.64429
231 1 0.428693 0.285409 0.571589
232 1 0.501145 0.355896 0.644073
233 1 0.571727 0.285269 0.571519
234 1 0.644007 0.356249 0.643697
235 1 0.714616 0.285475 0.571411
236 1 0.786158 0.356921 0.643
237 1 0.857334 0.285585 0.571408
238 1 0.928657 0.357038 0.642919
239 1 0.999911 0.428527 0.571473
240 1 0.142255 0.428485 0.571696
241 1 0.283831 0.426948 0.573922
242 1 0.428353 0.426054 0.580753
243 1 0.57387 0.426312 0.573844
244 1 0.715178 0.428327 0.571608
245 1 0.857445 0.428485 0.571446
246 1 7.354e-06 5.93134e-05 0.714278
247 1 0.0714248 0.0713999 0.78572
248 1 0.142848 6.65034e-05 0.714284
249 1 0.214283 0.0713501 0.78572
342 1 0.714475 0.428504 0.857263
251 1 0.357177 0.0713184 0.785694
341 1 0.57159 0.428484 0.857346
253 1 0.500059 0.0712958 0.785681
37 1 0.571548 0.285571 0.99985
255 1 0.642937 0.0712947 0.785686
35 1 0.428626 0.285562 0.999872
257 1 0.785801 0.0713499 0.785699
258 1 0.857191 2.37651e-05 0.714265
259 1 0.928614 0.0714015 0.785703
260 1 2.44893e-05 0.142803 0.714283
261 1 0.0713413 0.214123 0.785824
262 1 0.142824 0.14275 0.714313
263 1 0.214141 0.214032 0.785897
264 1 0.285692 0.14266 0.714332
265 1 0.357139 0.214058 0.785828
266 1 0.42863 0.142645 0.714317
267 1 0.500109 0.214056 0.785811
268 1 0.57155 0.142623 0.714308
269 1 0.643087 0.214009 0.78585
270 1 0.714434 0.142675 0.714301
271 1 0.785919 0.214082 0.785809
272 1 0.857238 0.142772 0.714278
273 1 0.928632 0.214168 0.785764
274 1 0.999957 0.285581 0.714379
275 1 0.0712889 0.35702 0.785904
276 1 0.14253 0.28539 0.714595
277 1 0.214033 0.356936 0.786106
278 1 0.285289 0.285154 0.714834
279 1 0.357045 0.356903 0.786136
280 1 0.428644 0.285285 0.714644
281 1 0.500099 0.356977 0.786018
282 1 0.571903 0.285173 0.714747
283 1 0.643173 0.356913 0.786038
284 1 0.714762 0.285307 0.714592
285 1 0.785945 0.356998 0.785862
286 1 0.857331 0.285553 0.714372
287 1 0.928621 0.357045 0.785821
288 1 0.999895 0.428504 0.714454
289 1 0.142431 0.428446 0.714695
290 1 0.285181 0.428375 0.715152
291 1 0.42835 0.428368 0.714538
292 1 0.571995 0.428341 0.715025
293 1 0.714778 0.428398 0.714613
294 1 0.857339 0.428483 0.714428
295 1 8.92565e-06 2.01977e-05 0.85714
296 1 0.071439 0.0713714 0.928547
340 1 0.428553 0.428484 0.857274
298 1 0.214305 0.0713507 0.928528
339 1 0.285599 0.428512 0.857414
300 1 0.357182 0.0713266 0.928502
338 1 0.142715 0.428512 0.857356
302 1 0.500059 0.0713114 0.928485
337 1 0.999967 0.428526 0.857259
304 1 0.642931 0.0713156 0.928488
336 1 0.928625 0.357078 0.928601
306 1 0.785795 0.0713393 0.928513
307 1 0.857193 -6.27653e-06 0.857121
308 1 0.928618 0.0713767 0.928543
309 1 1.00001 0.142769 0.857167
310 1 0.0714181 0.214184 0.928593
311 1 0.142824 0.142734 0.857181
312 1 0.214261 0.21415 0.928585
313 1 0.285721 0.142721 0.857151
314 1 0.357168 0.214134 0.928542
315 1 0.428623 0.142706 0.857124
316 1 0.50008 0.214126 0.928518
317 1 0.571518 0.142699 0.857119
318 1 0.642983 0.21413 0.928525
319 1 0.714411 0.1427 0.857141
320 1 0.785839 0.21416 0.928553
321 1 0.857236 0.14275 0.857152
322 1 0.92863 0.214197 0.92857
323 1 0.999995 0.285613 0.857218
324 1 0.0713969 0.357073 0.928642
325 1 0.142762 0.285567 0.85729
326 1 0.214229 0.357053 0.92867
327 1 0.285649 0.285535 0.857317
328 1 0.357147 0.357035 0.928627
329 1 0.42862 0.285528 0.857249
330 1 0.500067 0.357041 0.928568
331 1 0.571561 0.285541 0.857241
332 1 0.643008 0.357033 0.928592
333 1 0.714475 0.285544 0.85724
334 1 0.785847 0.357061 0.928584
335 1 0.857254 0.285602 0.857198
641 1 0.500047 0.499964 0.928622
33 1 0.285708 0.285588 0.999922
540 1 0.0709926 0.500023 0.643117
544 1 0.643951 0.499847 0.643482
545 1 0.786224 0.499948 0.643052
546 1 0.928617 0.499994 0.642969
589 1 0.0712273 0.500008 0.785953
31 1 0.142839 0.285623 0.999976
25 1 0.71441 0.142716 0.999877
17 1 0.142852 0.14275 0.999928
15 1 3.39753e-05 0.142781 0.999949
27 1 0.857236 0.142764 0.999926
41 1 0.857248 0.285631 0.999949
196 1 0.928709 0.357052 0.499951
48 1 0.714432 0.428521 0.99993
49 1 0.857242 0.428534 0.999968
344 1 0.0714291 0.500001 0.0713899
345 1 0.214263 0.499994 0.071371
111 1 0.857235 1.00001 0.285608
62 1 0.857231 0.999977 0.142738
348 1 0.643021 0.499978 0.0712464
349 1 0.78586 0.499988 0.0713119
350 1 0.928644 0.499995 0.0713655
351 1 8.45901e-06 0.571452 1.28558e-05
352 1 0.0714239 0.642902 0.0713863
353 1 0.14282 0.571455 4.06446e-05
354 1 0.214273 0.642895 0.0713592
152 1 0.571502 0.999937 0.42849
356 1 0.357161 0.642883 0.0712854
151 1 0.428627 0.999945 0.428485
358 1 0.500073 0.642876 0.0712315
50 1 3.74303e-05 0.999998 0.142755
360 1 0.642976 0.642888 0.0712547
153 1 0.71439 0.999986 0.428491
362 1 0.785831 0.642894 0.0713171
363 1 0.857224 0.571445 -2.51691e-05
364 1 0.928627 0.642897 0.0713656
365 1 3.01968e-06 0.714348 2.51815e-06
366 1 0.0714189 0.785791 0.0713549
367 1 0.142829 0.714358 1.63435e-05
368 1 0.214278 0.785785 0.071326
150 1 0.285745 1.00004 0.428497
370 1 0.357171 0.785752 0.0713018
109 1 0.714405 0.999954 0.285586
372 1 0.500057 0.785739 0.0712745
442 1 0.0713206 0.500034 0.357009
374 1 0.642947 0.785758 0.0712623
448 1 0.928703 0.500003 0.356996
376 1 0.785814 0.785777 0.0713033
377 1 0.857205 0.714338 -3.18533e-05
378 1 0.928617 0.785776 0.0713526
379 1 8.06116e-06 0.857205 -2.82738e-05
380 1 0.0714431 0.928599 0.0713409
107 1 0.571519 0.999885 0.285576
382 1 0.214311 0.92857 0.071332
105 1 0.42863 0.999898 0.285568
384 1 0.357184 0.928539 0.071311
530 1 0.643116 0.785986 0.499955
386 1 0.500056 0.928524 0.0712939
526 1 0.0712288 0.78601 0.499957
388 1 0.642926 0.928536 0.0712927
525 1 0.92861 0.643028 0.499943
390 1 0.785793 0.92857 0.0713074
523 1 0.643991 0.643533 0.499765
392 1 0.928619 0.928602 0.0713394
393 1 0.0714114 0.500019 0.21415
394 1 0.214216 0.500036 0.214101
688 2 0.430301 0.528677 0.497502
511 1 0.857227 0.857284 0.428481
519 1 0.070972 0.643173 0.499971
52 1 0.142866 0.999966 0.142736
399 1 0.928682 0.500001 0.21414
400 1 3.52494e-05 0.571456 0.142761
401 1 0.071387 0.642936 0.214135
402 1 0.14283 0.571459 0.142751
403 1 0.214165 0.642999 0.213991
404 1 0.285715 0.571421 0.142688
405 1 0.357103 0.642984 0.213852
406 1 0.428635 0.571428 0.142566
407 1 0.500167 0.642984 0.213785
408 1 0.571585 0.571419 0.14255
409 1 0.643159 0.643019 0.213844
410 1 0.714483 0.571452 0.142633
411 1 0.78593 0.642934 0.214057
412 1 0.857273 0.571452 0.14272
413 1 0.928655 0.64292 0.214139
414 1 1.81021e-05 0.714357 0.142749
415 1 0.0713441 0.785891 0.214084
416 1 0.142806 0.714388 0.142697
417 1 0.214173 0.785925 0.214029
418 1 0.285684 0.714388 0.142638
419 1 0.357152 0.785829 0.214077
420 1 0.428619 0.714362 0.142619
421 1 0.500087 0.785815 0.214055
422 1 0.571562 0.714377 0.142576
423 1 0.643068 0.785896 0.213991
424 1 0.714462 0.714387 0.142614
425 1 0.785921 0.785883 0.214041
426 1 0.85725 0.714354 0.142718
427 1 0.928632 0.785836 0.214126
428 1 1.26339e-05 0.857232 0.142734
429 1 0.0714306 0.928649 0.214161
430 1 0.142837 0.857233 0.142716
431 1 0.214294 0.928611 0.214154
432 1 0.285734 0.857186 0.142721
433 1 0.357181 0.928559 0.214142
434 1 0.42862 0.857155 0.142702
435 1 0.500068 0.928538 0.214129
436 1 0.571507 0.857161 0.142689
437 1 0.642958 0.928563 0.214128
438 1 0.714404 0.857202 0.142677
439 1 0.785823 0.92861 0.214141
440 1 0.857236 0.857221 0.142714
441 1 0.928628 0.928631 0.21417
510 1 0.714436 0.857297 0.428469
443 1 0.214055 0.500098 0.357046
444 1 0.35614 0.50059 0.35626
445 1 0.501565 0.500504 0.35575
54 1 0.285743 0.999931 0.142721
56 1 0.428627 0.999902 0.1427
509 1 0.571513 0.857257 0.428493
449 1 1.21069e-05 0.571479 0.285568
450 1 0.0711458 0.643084 0.356937
451 1 0.142715 0.571503 0.285527
452 1 0.213333 0.643735 0.356359
453 1 0.285549 0.571596 0.285289
454 1 0.356173 0.643915 0.355861
455 1 0.428676 0.571575 0.285037
456 1 0.50102 0.643826 0.3558
457 1 0.571877 0.571632 0.284988
458 1 0.644043 0.643789 0.356122
459 1 0.714683 0.57149 0.285364
460 1 0.786173 0.643068 0.356857
461 1 0.85735 0.57147 0.285519
462 1 0.928652 0.642983 0.356984
463 1 0.99995 0.714448 0.285532
464 1 0.0712894 0.785966 0.356975
465 1 0.142524 0.714658 0.285336
466 1 0.214055 0.786137 0.356891
467 1 0.28537 0.71477 0.285193
468 1 0.357179 0.785915 0.35701
469 1 0.428618 0.714542 0.285314
470 1 0.500031 0.785872 0.356987
471 1 0.571858 0.714736 0.285156
472 1 0.643111 0.786036 0.356905
473 1 0.714774 0.714667 0.285241
474 1 0.785927 0.785921 0.356959
475 1 0.857335 0.714443 0.285503
476 1 0.928615 0.785888 0.357003
477 1 0.999998 0.857283 0.285579
478 1 0.0714129 0.928701 0.357042
479 1 0.142784 0.857342 0.285541
480 1 0.214267 0.928708 0.357034
481 1 0.285715 0.857283 0.285569
482 1 0.357197 0.928585 0.357055
483 1 0.428617 0.857213 0.285543
484 1 0.500043 0.928543 0.357046
485 1 0.571519 0.857236 0.285553
486 1 0.642957 0.928612 0.357032
487 1 0.714443 0.857286 0.28553
488 1 0.78582 0.92864 0.357035
489 1 0.857244 0.857262 0.285571
490 1 0.92862 0.928663 0.357046
491 1 0.999892 0.571529 0.428473
492 1 0.142191 0.571741 0.428413
493 1 0.283624 0.573932 0.426707
494 1 0.428576 0.579918 0.42563
495 1 0.573898 0.574162 0.426127
496 1 0.7152 0.571681 0.428238
497 1 0.85745 0.571507 0.428428
498 1 0.999885 0.714516 0.428454
499 1 0.142413 0.714747 0.428384
500 1 0.285158 0.715151 0.42827
501 1 0.428613 0.713729 0.428613
502 1 0.571819 0.714921 0.428368
503 1 0.714756 0.714662 0.428339
504 1 0.857332 0.714491 0.428434
505 1 0.999968 0.857321 0.428484
506 1 0.142736 0.857403 0.428469
507 1 0.285645 0.857401 0.428477
508 1 0.428608 0.857059 0.428499
103 1 0.285748 0.999948 0.285598
101 1 0.142866 1.00003 0.285608
60 1 0.714398 0.99992 0.1427
58 1 0.571515 0.999896 0.142693
520 1 0.213053 0.643718 0.499981
524 1 0.786228 0.643109 0.499893
527 1 0.21395 0.786186 0.49996
528 1 0.357041 0.785911 0.499912
534 1 0.214238 0.928755 0.499944
535 1 0.357182 0.928614 0.499924
536 1 0.500018 0.928521 0.49992
355 1 0.285707 0.57143 1.57316e-05
512 1 0.0710735 0.500059 0.500008
513 1 0.21315 0.500218 0.500172
514 1 0.339637 0.503686 0.50344
13 1 0.857203 0.999968 0.999923
692 2 0.499092 0.538381 0.572288
11 1 0.714353 0.999933 0.999893
686 1 0.928596 0.928614 0.928557
305 1 0.714339 0.999942 0.857092
595 1 0.928589 0.499995 0.785849
521 1 0.355193 0.643782 0.500167
522 1 0.501272 0.642802 0.500526
303 1 0.571475 0.999917 0.857074
594 1 0.785928 0.499986 0.785876
301 1 0.428613 0.999927 0.857082
299 1 0.285743 0.99996 0.857107
638 1 0.0713737 0.499999 0.928671
256 1 0.714346 0.999977 0.714252
529 1 0.500011 0.785648 0.499934
297 1 0.142862 0.999999 0.857138
252 1 0.428611 0.999925 0.714234
250 1 0.285738 0.999991 0.714256
203 1 0.428617 0.999942 0.571349
254 1 0.571466 0.999911 0.714225
207 1 0.714366 0.999995 0.571378
205 1 0.571468 0.99995 0.571346
673 1 0.999963 0.857273 0.857211
672 1 0.928585 0.785796 0.928599
671 1 0.857198 0.714384 0.857223
685 1 0.857184 0.85724 0.857176
9 1 0.571489 0.999914 0.999881
542 1 0.355408 0.500388 0.64361
543 1 0.501051 0.49955 0.644957
684 1 0.785761 0.928576 0.928522
683 1 0.714329 0.857185 0.857126
682 1 0.642898 0.928535 0.928487
547 1 0.999762 0.571549 0.571496
548 1 0.0708926 0.643189 0.643134
549 1 0.141704 0.571814 0.571763
550 1 0.212767 0.644139 0.644093
551 1 0.281788 0.574511 0.574431
552 1 0.35627 0.643646 0.643609
553 1 0.423912 0.572962 0.572737
554 1 0.499826 0.642772 0.642841
555 1 0.576254 0.574156 0.573577
556 1 0.644004 0.643841 0.643867
557 1 0.715619 0.571653 0.571602
558 1 0.786175 0.643108 0.643061
559 1 0.857485 0.571516 0.571462
560 1 0.928564 0.643023 0.642967
561 1 0.999823 0.714537 0.571467
562 1 0.0712003 0.786026 0.642972
563 1 0.142297 0.714798 0.57158
564 1 0.213937 0.786258 0.643094
565 1 0.284969 0.715275 0.571757
566 1 0.357094 0.785886 0.642853
567 1 0.428386 0.713894 0.571113
568 1 0.499914 0.785634 0.642762
569 1 0.571823 0.714793 0.571626
570 1 0.64306 0.786016 0.642968
571 1 0.714717 0.714601 0.571502
572 1 0.785872 0.785918 0.642914
573 1 0.857294 0.714488 0.571443
574 1 0.928553 0.785911 0.642905
575 1 0.999942 0.857336 0.571419
576 1 0.0713808 0.928731 0.642863
577 1 0.142706 0.857431 0.571439
578 1 0.214247 0.928752 0.642856
579 1 0.285626 0.857426 0.571406
580 1 0.35717 0.928596 0.642803
581 1 0.428572 0.85707 0.571355
582 1 0.500011 0.928508 0.642782
583 1 0.571469 0.857212 0.57137
584 1 0.642905 0.92861 0.642813
585 1 0.714414 0.857289 0.571408
586 1 0.785781 0.928648 0.642837
587 1 0.857205 0.857289 0.571407
588 1 0.928585 0.92868 0.642847
681 1 0.571451 0.857131 0.857079
7 1 0.42862 0.999919 0.99989
5 1 0.28575 0.999943 0.999912
592 1 0.500062 0.499962 0.786206
593 1 0.643152 0.500007 0.786006
680 1 0.50004 0.928525 0.928483
679 1 0.428596 0.857142 0.857094
596 1 0.999828 0.571519 0.714477
597 1 0.0711972 0.64303 0.785967
598 1 0.142305 0.571633 0.714747
599 1 0.213921 0.643154 0.786216
600 1 0.284991 0.571808 0.71525
601 1 0.357006 0.643002 0.785982
602 1 0.428289 0.571411 0.71456
603 1 0.499976 0.642866 0.785757
604 1 0.571914 0.571724 0.714896
605 1 0.643107 0.643042 0.786032
606 1 0.714744 0.571535 0.714577
607 1 0.78589 0.642971 0.785871
608 1 0.857303 0.571492 0.714433
609 1 0.928558 0.642963 0.785851
610 1 0.999816 0.714525 0.714466
611 1 0.071239 0.785985 0.785923
612 1 0.142289 0.714852 0.714795
613 1 0.214134 0.785968 0.785911
614 1 0.28535 0.714743 0.714697
615 1 0.357132 0.7858 0.785744
616 1 0.428523 0.714334 0.714309
617 1 0.499996 0.785726 0.785682
618 1 0.571442 0.714386 0.714361
619 1 0.642904 0.785793 0.785741
620 1 0.714686 0.714679 0.714635
621 1 0.785844 0.785897 0.785836
622 1 0.857265 0.714483 0.714425
623 1 0.928556 0.785882 0.785819
624 1 0.999936 0.857325 0.714345
625 1 0.0713891 0.928695 0.785757
626 1 0.142715 0.857424 0.714406
627 1 0.214279 0.928649 0.785729
628 1 0.285683 0.857302 0.714315
629 1 0.357171 0.928568 0.785679
630 1 0.428582 0.857148 0.714249
631 1 0.500028 0.928526 0.785655
632 1 0.57142 0.857134 0.714226
633 1 0.642883 0.928548 0.785663
634 1 0.714383 0.85729 0.714326
635 1 0.78577 0.928626 0.785713
636 1 0.857187 0.85728 0.714318
637 1 0.928582 0.928657 0.785727
678 1 0.357179 0.928547 0.928505
3 1 0.142881 0.999971 0.999935
1 1 3.00174e-05 0.999986 0.999942
677 1 0.285723 0.8572 0.857145
676 1 0.214307 0.928585 0.92854
675 1 0.14281 0.857271 0.857214
674 1 0.0714306 0.928618 0.928566
645 1 0.99994 0.571475 0.857275
646 1 0.0713672 0.642928 0.928673
647 1 0.142686 0.5715 0.857384
648 1 0.214217 0.64293 0.928711
649 1 0.285587 0.57148 0.857427
650 1 0.35713 0.6429 0.928615
651 1 0.428529 0.571454 0.857252
652 1 0.50003 0.642869 0.92853
653 1 0.571536 0.571465 0.857297
654 1 0.642951 0.642898 0.928594
655 1 0.714452 0.571465 0.857263
656 1 0.785808 0.642904 0.928597
657 1 0.857221 0.571461 0.857234
658 1 0.928591 0.64291 0.92862
659 1 0.999934 0.71441 0.857265
660 1 0.0713823 0.785825 0.928641
661 1 0.142701 0.714473 0.857372
662 1 0.214262 0.785803 0.928613
663 1 0.285644 0.714411 0.857292
664 1 0.357162 0.78575 0.928538
665 1 0.428577 0.714326 0.857146
666 1 0.500031 0.785723 0.928498
667 1 0.571452 0.714315 0.857134
668 1 0.642901 0.78574 0.928512
669 1 0.71441 0.714401 0.857252
670 1 0.785784 0.785786 0.928575
642 1 0.642989 0.499983 0.928602
357 1 0.428603 0.571422 0.99993
369 1 0.285712 0.714338 0.999967
371 1 0.428605 0.714311 0.999905
381 1 0.142859 0.857199 0.999963
383 1 0.28574 0.857163 0.999932
644 1 0.928608 0.499994 0.92862
643 1 0.785834 0.499987 0.928599
539 1 0.928601 0.92868 0.499946
538 1 0.785804 0.92865 0.499941
359 1 0.571512 0.571421 0.99992
361 1 0.714407 0.571441 0.999941
373 1 0.571487 0.714309 0.999883
375 1 0.714375 0.714334 0.999931
385 1 0.428611 0.857135 0.9999
387 1 0.571476 0.857132 0.999887
389 1 0.714345 0.857158 0.999903
391 1 0.857198 0.857189 0.999945
537 1 0.642943 0.928618 0.499938
533 1 0.0713902 0.92873 0.499949
532 1 0.92858 0.78591 0.499948
531 1 0.785904 0.785919 0.499941
