ITEM: TIMESTEP
56
ITEM: NUMBER OF ATOMS
687
ITEM: BOX BOUNDS pp pp pp
0.0000000000000000e+00 2.2013900999999997e+01
0.0000000000000000e+00 2.2013900999999997e+01
0.0000000000000000e+00 2.2013900999999997e+01
ITEM: ATOMS id type xs ys zs
1 1 5.08857e-17 1.45137e-17 3.18167e-05
2 1 0.0714386 0.0714386 0.0714695
175 1 0.857114 0.428547 0.428562
4 1 0.2143 0.0714393 0.071466
174 1 0.714101 0.428531 0.428519
6 1 0.357153 0.0714401 0.0714623
173 1 0.570153 0.429847 0.429687
8 1 0.5 0.0714402 0.0714605
172 1 0.429847 0.429847 0.429687
10 1 0.642847 0.0714401 0.0714623
171 1 0.285899 0.428531 0.428519
12 1 0.7857 0.0714393 0.071466
170 1 0.142886 0.428547 0.428562
14 1 0.928561 0.0714386 0.0714695
169 1 3.39038e-17 0.428561 0.428574
16 1 0.0714393 0.2143 0.071466
17 1 0.142871 0.142871 2.77024e-05
18 1 0.214307 0.214307 0.0714698
19 1 0.285727 0.142873 2.24121e-05
20 1 0.357159 0.214311 0.0714627
21 1 0.428576 0.142875 1.79952e-05
22 1 0.5 0.214312 0.0714566
23 1 0.571424 0.142875 1.79952e-05
24 1 0.642841 0.214311 0.0714627
25 1 0.714273 0.142873 2.24121e-05
26 1 0.785693 0.214307 0.0714698
27 1 0.857129 0.142871 2.77024e-05
28 1 0.928561 0.2143 0.071466
168 1 0.857047 0.285771 0.428607
30 1 0.0714401 0.357153 0.0714623
31 1 0.142873 0.285727 2.24121e-05
32 1 0.214311 0.357159 0.0714627
33 1 0.285725 0.285725 7.48901e-06
34 1 0.35714 0.35714 0.0714372
35 1 0.42858 0.285734 -4.67359e-06
36 1 0.5 0.357156 0.0714332
37 1 0.57142 0.285734 -4.67359e-06
38 1 0.64286 0.35714 0.0714372
39 1 0.714275 0.285725 7.48901e-06
40 1 0.785689 0.357159 0.0714627
41 1 0.857127 0.285727 2.24121e-05
42 1 0.92856 0.357153 0.0714623
167 1 0.714015 0.285985 0.428742
44 1 0.142875 0.428576 1.79952e-05
45 1 0.285734 0.42858 -4.67359e-06
448 1 0.928536 0.5 0.357173
348 1 0.642844 0.5 0.0714332
48 1 0.714266 0.42858 -4.67359e-06
49 1 0.857125 0.428576 1.79952e-05
50 1 3.02077e-17 5.26739e-17 0.142899
51 1 0.0714425 0.0714425 0.21433
52 1 0.142874 4.09199e-17 0.142902
53 1 0.21431 0.0714531 0.214333
54 1 0.28573 4.0633e-17 0.142899
55 1 0.357161 0.0714543 0.214331
196 1 0.928536 0.357151 0.500004
57 1 0.5 0.071452 0.214331
195 1 0.785506 0.357247 0.499998
59 1 0.642839 0.0714543 0.214331
60 1 0.71427 5.11735e-17 0.142899
61 1 0.78569 0.0714531 0.214333
62 1 0.857126 6.77701e-17 0.142902
63 1 0.928558 0.0714425 0.21433
64 1 2.45855e-17 0.142874 0.142902
65 1 0.0714531 0.21431 0.214333
66 1 0.142887 0.142887 0.142912
67 1 0.214362 0.214362 0.21438
68 1 0.285738 0.142887 0.142906
69 1 0.357186 0.214353 0.214362
70 1 0.428581 0.142887 0.142901
71 1 0.5 0.214349 0.214353
72 1 0.571419 0.142887 0.142901
73 1 0.642814 0.214353 0.214362
74 1 0.714262 0.142887 0.142906
75 1 0.785638 0.214362 0.21438
76 1 0.857113 0.142887 0.142912
77 1 0.928547 0.21431 0.214333
78 1 2.90377e-17 0.28573 0.142899
79 1 0.0714543 0.357161 0.214331
80 1 0.142887 0.285738 0.142906
81 1 0.214353 0.357186 0.214362
82 1 0.285744 0.285744 0.14292
83 1 0.357162 0.357162 0.214372
84 1 0.428592 0.285756 0.142919
85 1 0.5 0.357232 0.214409
86 1 0.571408 0.285756 0.142919
87 1 0.642838 0.357162 0.214372
88 1 0.714256 0.285744 0.14292
89 1 0.785647 0.357186 0.214362
90 1 0.857113 0.285738 0.142906
91 1 0.928546 0.357161 0.214331
92 1 1.19166e-17 0.428577 0.142897
93 1 0.142887 0.428581 0.142901
94 1 0.285756 0.428592 0.142919
95 1 0.428542 0.428542 0.142827
96 1 0.571458 0.428542 0.142827
97 1 0.714244 0.428592 0.142919
98 1 0.857113 0.428581 0.142901
99 1 9.10177e-17 3.86892e-17 0.285749
100 1 0.0714432 0.0714432 0.357171
101 1 0.142881 5.51041e-17 0.285755
102 1 0.21432 0.0714624 0.35718
103 1 0.285728 7.11504e-17 0.285746
104 1 0.357145 0.0714577 0.357158
105 1 0.428579 7.20845e-17 0.285751
106 1 0.5 0.071464 0.357173
107 1 0.571421 6.62001e-17 0.285751
108 1 0.642855 0.0714577 0.357158
109 1 0.714272 1.96093e-17 0.285746
110 1 0.78568 0.0714624 0.35718
111 1 0.857119 5.56095e-17 0.285755
112 1 0.928557 0.0714432 0.357171
113 1 1.87574e-17 0.142881 0.285755
114 1 0.0714624 0.21432 0.35718
115 1 0.142897 0.142897 0.285766
116 1 0.214386 0.214386 0.357223
117 1 0.285751 0.142922 0.285766
118 1 0.357181 0.214412 0.357185
119 1 0.428593 0.142931 0.285773
120 1 0.5 0.214455 0.357247
121 1 0.571407 0.142931 0.285773
122 1 0.642819 0.214412 0.357185
123 1 0.714249 0.142922 0.285766
124 1 0.785614 0.214386 0.357223
125 1 0.857103 0.142897 0.285766
126 1 0.928538 0.21432 0.35718
127 1 5.25918e-17 0.285728 0.285746
128 1 0.0714577 0.357145 0.357158
129 1 0.142922 0.285751 0.285766
130 1 0.214412 0.357181 0.357185
131 1 0.285907 0.285907 0.285915
132 1 0.357641 0.357641 0.357609
133 1 0.42867 0.285881 0.285875
134 1 0.5 0.357807 0.357756
135 1 0.57133 0.285881 0.285875
136 1 0.642359 0.357641 0.357609
137 1 0.714093 0.285907 0.285915
138 1 0.785588 0.357181 0.357185
139 1 0.857078 0.285751 0.285766
140 1 0.928542 0.357145 0.357158
141 1 5.7396e-17 0.428579 0.285751
142 1 0.142931 0.428593 0.285773
143 1 0.285881 0.42867 0.285875
144 1 0.42848 0.42848 0.285774
145 1 0.57152 0.42848 0.285774
146 1 0.714119 0.42867 0.285875
147 1 0.857069 0.428593 0.285773
148 1 4.45116e-17 7.98602e-17 0.428589
149 1 0.14288 4.19327e-17 0.42859
150 1 0.285734 9.13013e-17 0.428589
151 1 0.428561 -8.96532e-18 0.428574
152 1 0.571439 7.39527e-17 0.428574
153 1 0.714266 6.9058e-17 0.428589
191 1 0.214494 0.357247 0.499998
155 1 5.61159e-17 0.14288 0.42859
156 1 0.142894 0.142894 0.428593
157 1 0.285771 0.142953 0.428607
158 1 0.428547 0.142886 0.428562
159 1 0.571453 0.142886 0.428562
160 1 0.714229 0.142953 0.428607
161 1 0.857106 0.142894 0.428593
162 1 3.12393e-17 0.285734 0.428589
163 1 0.142953 0.285771 0.428607
164 1 0.285985 0.285985 0.428742
165 1 0.428531 0.285899 0.428519
166 1 0.571469 0.285899 0.428519
177 1 0.214316 0.0714564 0.500007
178 1 0.357151 0.0714641 0.500004
179 1 0.5 0.0713889 0.500003
180 1 0.642849 0.0714641 0.500004
181 1 0.785684 0.0714564 0.500007
183 1 0.0714564 0.214316 0.500007
184 1 0.214364 0.214364 0.500003
185 1 0.357247 0.214494 0.499998
190 1 0.0714641 0.357151 0.500004
187 1 0.642753 0.214494 0.499998
188 1 0.785636 0.214364 0.500003
189 1 0.928544 0.214316 0.500007
176 1 0.071442 0.071442 0.500008
182 1 0.928558 0.071442 0.500008
43 1 1 0.428575 2.42854e-05
29 1 1.25695e-17 0.285723 2.68511e-05
15 1 -1.43195e-17 0.142865 2.99862e-05
13 1 0.857135 4.11156e-17 2.99862e-05
11 1 0.714277 7.87964e-17 2.68511e-05
7 1 0.428575 4.85319e-17 2.42854e-05
5 1 0.285723 1.84763e-17 2.68511e-05
3 1 0.142865 1.85887e-18 2.99862e-05
9 1 0.571425 1.59468e-17 2.42854e-05
639 1 0.21431 0.5 0.928563
343 1 0.857122 0.428577 0.85714
342 1 0.714243 0.428596 0.857079
341 1 0.571449 0.428551 0.857059
340 1 0.428551 0.428551 0.857059
339 1 0.285757 0.428596 0.857079
593 1 0.642737 0.5 0.785503
338 1 0.142878 0.428577 0.85714
337 1 6.9596e-17 0.428573 0.857154
336 1 0.928562 0.357149 0.928586
335 1 0.857123 0.285727 0.857144
334 1 0.785691 0.357158 0.928564
333 1 0.714254 0.285746 0.857103
332 1 0.642853 0.357147 0.928537
331 1 0.571404 0.285757 0.857079
330 1 0.5 0.357166 0.928509
192 1 0.358237 0.358237 0.500039
329 1 0.428596 0.285757 0.857079
194 1 0.641763 0.358237 0.500039
328 1 0.357147 0.357147 0.928537
327 1 0.285746 0.285746 0.857103
592 1 0.5 0.5 0.785981
198 1 0.0714392 0.0714392 0.642853
199 1 0.142876 5.8272e-17 0.571428
200 1 0.214308 0.0714522 0.642846
546 1 0.92857 0.5 0.642866
202 1 0.357129 0.0714325 0.642875
543 1 0.5 0.5 0.644946
204 1 0.5 0.0714299 0.642866
205 1 0.571442 1.05719e-16 0.571443
206 1 0.642871 0.0714325 0.642875
207 1 0.714271 1.04365e-16 0.571427
208 1 0.785692 0.0714522 0.642846
209 1 0.857124 3.60361e-17 0.571428
210 1 0.928561 0.0714392 0.642853
211 1 2.58156e-17 0.142876 0.571428
212 1 0.0714522 0.214308 0.642846
213 1 0.142888 0.142888 0.571423
214 1 0.214353 0.214353 0.642809
215 1 0.28576 0.142935 0.571406
216 1 0.357128 0.21431 0.642877
217 1 0.42854 0.142825 0.571459
218 1 0.5 0.214313 0.642823
219 1 0.57146 0.142825 0.571459
220 1 0.642872 0.21431 0.642877
221 1 0.71424 0.142935 0.571406
222 1 0.785647 0.214353 0.642809
223 1 0.857112 0.142888 0.571423
224 1 0.928548 0.214308 0.642846
225 1 6.01479e-17 0.285729 0.571427
226 1 0.0714325 0.357129 0.642875
227 1 0.142935 0.28576 0.571406
228 1 0.21431 0.357128 0.642877
229 1 0.285932 0.285932 0.571279
230 1 0.357359 0.357359 0.642615
231 1 0.428471 0.285645 0.571548
232 1 0.5 0.3574 0.642336
233 1 0.571529 0.285645 0.571548
234 1 0.642641 0.357359 0.642615
235 1 0.714068 0.285932 0.571279
236 1 0.78569 0.357128 0.642877
237 1 0.857065 0.28576 0.571406
238 1 0.928567 0.357129 0.642875
239 1 6.21742e-17 0.428558 0.571443
240 1 0.142825 0.42854 0.571459
241 1 0.285645 0.428471 0.571548
242 1 0.429189 0.429189 0.570912
243 1 0.570811 0.429189 0.570912
244 1 0.714355 0.428471 0.571548
245 1 0.857175 0.42854 0.571459
542 1 0.3574 0.5 0.642336
247 1 0.0714349 0.0714349 0.785716
248 1 0.14287 4.83061e-17 0.714281
249 1 0.214291 0.0714401 0.785719
250 1 0.28571 3.09601e-17 0.714296
251 1 0.357146 0.0714414 0.78572
252 1 0.42857 -1.06652e-17 0.714295
253 1 0.5 0.0714397 0.785719
254 1 0.57143 5.46965e-17 0.714295
255 1 0.642854 0.0714414 0.78572
256 1 0.71429 1.02256e-16 0.714296
257 1 0.785709 0.0714401 0.785719
258 1 0.85713 5.61038e-17 0.714281
259 1 0.928565 0.0714349 0.785716
260 1 1.09602e-16 0.14287 0.714281
261 1 0.0714401 0.214291 0.785719
262 1 0.142879 0.142879 0.714273
263 1 0.214326 0.214326 0.785683
264 1 0.285719 0.142882 0.714286
265 1 0.357167 0.214329 0.785685
266 1 0.428577 0.142884 0.714281
267 1 0.5 0.214327 0.785682
268 1 0.571423 0.142884 0.714281
269 1 0.642833 0.214329 0.785685
270 1 0.714281 0.142882 0.714286
271 1 0.785674 0.214326 0.785683
272 1 0.857121 0.142879 0.714273
273 1 0.92856 0.214291 0.785719
274 1 8.12783e-17 0.28571 0.714296
275 1 0.0714414 0.357146 0.78572
276 1 0.142882 0.285719 0.714286
277 1 0.214329 0.357167 0.785685
278 1 0.285809 0.285809 0.714185
279 1 0.357194 0.357194 0.785595
280 1 0.428632 0.285801 0.714183
281 1 0.5 0.357263 0.785503
282 1 0.571368 0.285801 0.714183
283 1 0.642806 0.357194 0.785595
284 1 0.714191 0.285809 0.714185
285 1 0.785671 0.357167 0.785685
286 1 0.857118 0.285719 0.714286
287 1 0.928559 0.357146 0.78572
288 1 1 0.42857 0.714295
289 1 0.142884 0.428577 0.714281
290 1 0.285801 0.428632 0.714183
291 1 0.428585 0.428585 0.713855
292 1 0.571415 0.428585 0.713855
293 1 0.714199 0.428632 0.714183
294 1 0.857116 0.428577 0.714281
295 1 5.24321e-17 1.13699e-16 0.857155
296 1 0.071435 0.071435 0.928591
326 1 0.214309 0.357158 0.928564
298 1 0.214295 0.0714366 0.928589
325 1 0.142877 0.285727 0.857144
300 1 0.357149 0.0714379 0.928586
301 1 0.428573 1.58466e-16 0.857154
302 1 0.5 0.0714379 0.928585
303 1 0.571427 1.05231e-16 0.857154
304 1 0.642851 0.0714379 0.928586
305 1 0.714281 8.28098e-17 0.857155
306 1 0.785705 0.0714366 0.928589
307 1 0.857137 6.27991e-17 0.857154
308 1 0.928565 0.071435 0.928591
309 1 2.79992e-17 0.142863 0.857154
310 1 0.0714366 0.214295 0.928589
311 1 0.142873 0.142873 0.857145
312 1 0.214304 0.214304 0.928574
313 1 0.285727 0.142877 0.857144
314 1 0.357158 0.214309 0.928564
315 1 0.428577 0.142878 0.85714
316 1 0.5 0.21431 0.928563
317 1 0.571423 0.142878 0.85714
318 1 0.642842 0.214309 0.928564
319 1 0.714273 0.142877 0.857144
320 1 0.785696 0.214304 0.928574
321 1 0.857127 0.142873 0.857145
322 1 0.928563 0.214295 0.928589
323 1 1.85293e-17 0.285719 0.857155
324 1 0.0714379 0.357149 0.928586
46 1 0.428564 0.428564 0.999963
517 1 0.786025 0.5 0.500004
47 1 0.571436 0.428564 0.999963
193 1 0.5 0.355073 0.500071
186 1 0.5 0.213975 0.500004
344 1 0.0714402 0.5 0.0714605
345 1 0.214312 0.5 0.0714566
346 1 0.357156 0.5 0.0714332
347 1 0.5 0.5 0.0713447
538 1 0.785684 0.928544 0.500007
349 1 0.785688 0.5 0.0714566
350 1 0.92856 0.5 0.0714605
511 1 0.857106 0.857106 0.428593
352 1 0.0714401 0.642847 0.0714623
353 1 0.142875 0.571424 1.79952e-05
354 1 0.214311 0.642841 0.0714627
355 1 0.285734 0.57142 -4.67359e-06
356 1 0.35714 0.64286 0.0714372
154 1 0.85712 1 0.42859
358 1 0.5 0.642844 0.0714332
58 1 0.571423 1 0.142897
360 1 0.64286 0.64286 0.0714372
361 1 0.714266 0.57142 -4.67359e-06
362 1 0.785689 0.642841 0.0714627
363 1 0.857125 0.571424 1.79952e-05
364 1 0.92856 0.642847 0.0714623
510 1 0.714229 0.857047 0.428607
366 1 0.0714393 0.7857 0.071466
367 1 0.142873 0.714273 2.24121e-05
368 1 0.214307 0.785693 0.0714698
369 1 0.285725 0.714275 7.48901e-06
370 1 0.357159 0.785689 0.0714627
371 1 0.42858 0.714266 -4.67359e-06
372 1 0.5 0.785688 0.0714566
373 1 0.57142 0.714266 -4.67359e-06
374 1 0.642841 0.785689 0.0714627
375 1 0.714275 0.714275 7.48901e-06
376 1 0.785693 0.785693 0.0714698
377 1 0.857127 0.714273 2.24121e-05
378 1 0.928561 0.7857 0.071466
509 1 0.571453 0.857114 0.428562
380 1 0.0714386 0.928561 0.0714695
381 1 0.142871 0.857129 2.77024e-05
382 1 0.2143 0.928561 0.071466
383 1 0.285727 0.857127 2.24121e-05
384 1 0.357153 0.92856 0.0714623
385 1 0.428576 0.857125 1.79952e-05
386 1 0.5 0.92856 0.0714605
387 1 0.571424 0.857125 1.79952e-05
388 1 0.642847 0.92856 0.0714623
389 1 0.714273 0.857127 2.24121e-05
390 1 0.7857 0.928561 0.071466
391 1 0.857129 0.857129 2.77024e-05
392 1 0.928561 0.928561 0.0714695
393 1 0.071452 0.5 0.214331
394 1 0.214349 0.5 0.214353
395 1 0.357232 0.5 0.214409
396 1 0.5 0.5 0.21387
397 1 0.642768 0.5 0.214409
398 1 0.785651 0.5 0.214353
399 1 0.928548 0.5 0.214331
400 1 2.14262e-17 0.571423 0.142897
401 1 0.0714543 0.642839 0.214331
402 1 0.142887 0.571419 0.142901
403 1 0.214353 0.642814 0.214362
404 1 0.285756 0.571408 0.142919
405 1 0.357162 0.642838 0.214372
406 1 0.428542 0.571458 0.142827
407 1 0.5 0.642768 0.214409
408 1 0.571458 0.571458 0.142827
409 1 0.642838 0.642838 0.214372
410 1 0.714244 0.571408 0.142919
411 1 0.785647 0.642814 0.214362
412 1 0.857113 0.571419 0.142901
413 1 0.928546 0.642839 0.214331
414 1 7.24509e-17 0.71427 0.142899
415 1 0.0714531 0.78569 0.214333
416 1 0.142887 0.714262 0.142906
417 1 0.214362 0.785638 0.21438
418 1 0.285744 0.714256 0.14292
419 1 0.357186 0.785647 0.214362
420 1 0.428592 0.714244 0.142919
421 1 0.5 0.785651 0.214353
422 1 0.571408 0.714244 0.142919
423 1 0.642814 0.785647 0.214362
424 1 0.714256 0.714256 0.14292
425 1 0.785638 0.785638 0.21438
426 1 0.857113 0.714262 0.142906
427 1 0.928547 0.78569 0.214333
428 1 -3.67922e-18 0.857126 0.142902
429 1 0.0714425 0.928558 0.21433
430 1 0.142887 0.857113 0.142912
431 1 0.21431 0.928547 0.214333
432 1 0.285738 0.857113 0.142906
433 1 0.357161 0.928546 0.214331
434 1 0.428581 0.857113 0.142901
435 1 0.5 0.928548 0.214331
436 1 0.571419 0.857113 0.142901
437 1 0.642839 0.928546 0.214331
438 1 0.714262 0.857113 0.142906
439 1 0.78569 0.928547 0.214333
440 1 0.857113 0.857113 0.142912
441 1 0.928558 0.928558 0.21433
442 1 0.071464 0.5 0.357173
443 1 0.214455 0.5 0.357247
444 1 0.357807 0.5 0.357756
445 1 0.5 0.5 0.354663
446 1 0.642193 0.5 0.357756
447 1 0.785545 0.5 0.357247
537 1 0.642849 0.928536 0.500004
449 1 1.35262e-17 0.571421 0.285751
450 1 0.0714577 0.642855 0.357158
451 1 0.142931 0.571407 0.285773
452 1 0.214412 0.642819 0.357185
453 1 0.285881 0.57133 0.285875
454 1 0.357641 0.642359 0.357609
455 1 0.42848 0.57152 0.285774
456 1 0.5 0.642193 0.357756
457 1 0.57152 0.57152 0.285774
458 1 0.642359 0.642359 0.357609
459 1 0.714119 0.57133 0.285875
460 1 0.785588 0.642819 0.357185
461 1 0.857069 0.571407 0.285773
462 1 0.928542 0.642855 0.357158
463 1 8.53113e-18 0.714272 0.285746
464 1 0.0714624 0.78568 0.35718
465 1 0.142922 0.714249 0.285766
466 1 0.214386 0.785614 0.357223
467 1 0.285907 0.714093 0.285915
468 1 0.357181 0.785588 0.357185
469 1 0.42867 0.714119 0.285875
470 1 0.5 0.785545 0.357247
471 1 0.57133 0.714119 0.285875
472 1 0.642819 0.785588 0.357185
473 1 0.714093 0.714093 0.285915
474 1 0.785614 0.785614 0.357223
475 1 0.857078 0.714249 0.285766
476 1 0.928538 0.78568 0.35718
477 1 4.57611e-17 0.857119 0.285755
478 1 0.0714432 0.928557 0.357171
479 1 0.142897 0.857103 0.285766
480 1 0.21432 0.928538 0.35718
481 1 0.285751 0.857078 0.285766
482 1 0.357145 0.928542 0.357158
483 1 0.428593 0.857069 0.285773
484 1 0.5 0.928536 0.357173
485 1 0.571407 0.857069 0.285773
486 1 0.642855 0.928542 0.357158
487 1 0.714249 0.857078 0.285766
488 1 0.78568 0.928538 0.35718
489 1 0.857103 0.857103 0.285766
490 1 0.928557 0.928557 0.357171
491 1 5.12433e-17 0.571439 0.428574
492 1 0.142886 0.571453 0.428562
493 1 0.285899 0.571469 0.428519
494 1 0.429847 0.570153 0.429687
495 1 0.570153 0.570153 0.429687
496 1 0.714101 0.571469 0.428519
497 1 0.857114 0.571453 0.428562
498 1 3.7291e-17 0.714266 0.428589
499 1 0.142953 0.714229 0.428607
500 1 0.285985 0.714015 0.428742
501 1 0.428531 0.714101 0.428519
502 1 0.571469 0.714101 0.428519
503 1 0.714015 0.714015 0.428742
504 1 0.857047 0.714229 0.428607
505 1 9.397e-17 0.85712 0.42859
506 1 0.142894 0.857106 0.428593
507 1 0.285771 0.857047 0.428607
508 1 0.428547 0.857114 0.428562
512 1 0.0713889 0.5 0.500003
687 2 0.5 0.5 0.489019
56 1 0.428577 1 0.142897
535 1 0.357151 0.928536 0.500004
534 1 0.214316 0.928544 0.500007
536 1 0.5 0.928611 0.500003
518 1 0.928611 0.5 0.500003
519 1 0.0714641 0.642849 0.500004
520 1 0.214494 0.642753 0.499998
532 1 0.928544 0.785684 0.500007
524 1 0.785506 0.642753 0.499998
525 1 0.928536 0.642849 0.500004
526 1 0.0714564 0.785684 0.500007
527 1 0.214364 0.785636 0.500003
528 1 0.357247 0.785506 0.499998
531 1 0.785636 0.785636 0.500003
530 1 0.642753 0.785506 0.499998
533 1 0.071442 0.928558 0.500008
539 1 0.928558 0.928558 0.500008
379 1 -6.07418e-18 0.857135 2.99862e-05
365 1 6.55536e-17 0.714277 2.68511e-05
351 1 3.48924e-17 0.571425 2.42854e-05
686 2 0.5 0.5 0.543857
685 1 0.857127 0.857127 0.857145
684 1 0.785705 0.928563 0.928589
515 1 0.928565 0.928565 0.928591
683 1 0.714273 0.857123 0.857144
682 1 0.642851 0.928562 0.928586
681 1 0.571423 0.857122 0.85714
680 1 0.5 0.928562 0.928585
679 1 0.428577 0.857122 0.85714
521 1 0.358237 0.641763 0.500039
678 1 0.357149 0.928562 0.928586
523 1 0.641763 0.641763 0.500039
677 1 0.285727 0.857123 0.857144
676 1 0.214295 0.928563 0.928589
675 1 0.142873 0.857127 0.857145
674 1 0.071435 0.928565 0.928591
673 1 1 0.857137 0.857154
672 1 0.928563 0.785705 0.928589
671 1 0.857123 0.714273 0.857144
670 1 0.785696 0.785696 0.928574
669 1 0.714254 0.714254 0.857103
299 1 0.285719 1 0.857155
668 1 0.642842 0.785691 0.928564
667 1 0.571404 0.714243 0.857079
666 1 0.5 0.78569 0.928563
665 1 0.428596 0.714243 0.857079
664 1 0.357158 0.785691 0.928564
297 1 0.142863 1 0.857154
540 1 0.0714299 0.5 0.642866
541 1 0.214313 0.5 0.642823
246 1 4.1086e-17 1 0.714284
203 1 0.428558 1 0.571443
544 1 0.6426 0.5 0.642336
545 1 0.785687 0.5 0.642823
201 1 0.285729 1 0.571427
547 1 8.50265e-17 0.571442 0.571443
548 1 0.0714325 0.642871 0.642875
549 1 0.142825 0.57146 0.571459
550 1 0.21431 0.642872 0.642877
551 1 0.285645 0.571529 0.571548
552 1 0.357359 0.642641 0.642615
553 1 0.429189 0.570811 0.570912
554 1 0.5 0.6426 0.642336
555 1 0.570811 0.570811 0.570912
556 1 0.642641 0.642641 0.642615
557 1 0.714355 0.571529 0.571548
558 1 0.78569 0.642872 0.642877
559 1 0.857175 0.57146 0.571459
560 1 0.928567 0.642871 0.642875
561 1 2.75071e-17 0.714271 0.571427
562 1 0.0714522 0.785692 0.642846
563 1 0.142935 0.71424 0.571406
564 1 0.214353 0.785647 0.642809
565 1 0.285932 0.714068 0.571279
566 1 0.357128 0.78569 0.642877
567 1 0.428471 0.714355 0.571548
568 1 0.5 0.785687 0.642823
569 1 0.571529 0.714355 0.571548
570 1 0.642872 0.78569 0.642877
571 1 0.714068 0.714068 0.571279
572 1 0.785647 0.785647 0.642809
573 1 0.857065 0.71424 0.571406
574 1 0.928548 0.785692 0.642846
575 1 1.45649e-17 0.857124 0.571428
576 1 0.0714392 0.928561 0.642853
577 1 0.142888 0.857112 0.571423
578 1 0.214308 0.928548 0.642846
579 1 0.28576 0.857065 0.571406
580 1 0.357129 0.928567 0.642875
581 1 0.42854 0.857175 0.571459
582 1 0.5 0.92857 0.642866
583 1 0.57146 0.857175 0.571459
584 1 0.642871 0.928567 0.642875
585 1 0.71424 0.857065 0.571406
586 1 0.785692 0.928548 0.642846
587 1 0.857112 0.857112 0.571423
588 1 0.928561 0.928561 0.642853
589 1 0.0714397 0.5 0.785719
590 1 0.214327 0.5 0.785682
591 1 0.357263 0.5 0.785503
663 1 0.285746 0.714254 0.857103
662 1 0.214304 0.785696 0.928574
594 1 0.785673 0.5 0.785682
595 1 0.92856 0.5 0.785719
596 1 1.66489e-17 0.57143 0.714295
597 1 0.0714414 0.642854 0.78572
598 1 0.142884 0.571423 0.714281
599 1 0.214329 0.642833 0.785685
600 1 0.285801 0.571368 0.714183
601 1 0.357194 0.642806 0.785595
602 1 0.428585 0.571415 0.713855
603 1 0.5 0.642737 0.785503
604 1 0.571415 0.571415 0.713855
605 1 0.642806 0.642806 0.785595
606 1 0.714199 0.571368 0.714183
607 1 0.785671 0.642833 0.785685
608 1 0.857116 0.571423 0.714281
609 1 0.928559 0.642854 0.78572
610 1 6.08919e-17 0.71429 0.714296
611 1 0.0714401 0.785709 0.785719
612 1 0.142882 0.714281 0.714286
613 1 0.214326 0.785674 0.785683
614 1 0.285809 0.714191 0.714185
615 1 0.357167 0.785671 0.785685
616 1 0.428632 0.714199 0.714183
617 1 0.5 0.785673 0.785682
618 1 0.571368 0.714199 0.714183
619 1 0.642833 0.785671 0.785685
620 1 0.714191 0.714191 0.714185
621 1 0.785674 0.785674 0.785683
622 1 0.857118 0.714281 0.714286
623 1 0.92856 0.785709 0.785719
624 1 1.56255e-17 0.85713 0.714281
625 1 0.0714349 0.928565 0.785716
626 1 0.142879 0.857121 0.714273
627 1 0.214291 0.92856 0.785719
628 1 0.285719 0.857118 0.714286
629 1 0.357146 0.928559 0.78572
630 1 0.428577 0.857116 0.714281
631 1 0.5 0.92856 0.785719
632 1 0.571423 0.857116 0.714281
633 1 0.642854 0.928559 0.78572
634 1 0.714281 0.857118 0.714286
635 1 0.785709 0.92856 0.785719
636 1 0.857121 0.857121 0.714273
637 1 0.928565 0.928565 0.785716
638 1 0.0714379 0.5 0.928585
661 1 0.142877 0.714273 0.857144
640 1 0.357166 0.5 0.928509
641 1 0.5 0.5 0.928555
642 1 0.642834 0.5 0.928509
643 1 0.78569 0.5 0.928563
644 1 0.928562 0.5 0.928585
645 1 2.19588e-17 0.571427 0.857154
646 1 0.0714379 0.642851 0.928586
647 1 0.142878 0.571423 0.85714
648 1 0.214309 0.642842 0.928564
649 1 0.285757 0.571404 0.857079
650 1 0.357147 0.642853 0.928537
651 1 0.428551 0.571449 0.857059
652 1 0.5 0.642834 0.928509
653 1 0.571449 0.571449 0.857059
654 1 0.642853 0.642853 0.928537
655 1 0.714243 0.571404 0.857079
656 1 0.785691 0.642842 0.928564
657 1 0.857122 0.571423 0.85714
658 1 0.928562 0.642851 0.928586
659 1 -2.15711e-17 0.714281 0.857155
660 1 0.0714366 0.785705 0.928589
197 1 1 1 0.571431
357 1 0.428564 0.571436 0.999963
359 1 0.571436 0.571436 0.999963
513 1 0.213975 0.5 0.500004
514 1 0.355073 0.5 0.500071
516 1 0.644927 0.5 0.500071
522 1 0.5 0.644927 0.500071
529 1 0.5 0.786025 0.500004
