ITEM: TIMESTEP
117
ITEM: NUMBER OF ATOMS
688
ITEM: BOX BOUNDS pp pp pp
0.0000000000000000e+00 2.2013900999999997e+01
0.0000000000000000e+00 2.2013900999999997e+01
0.0000000000000000e+00 2.2013900999999997e+01
ITEM: ATOMS id type xs ys zs
175 1 0.857099 0.428587 0.428587
2 1 0.0714159 0.0714415 0.0714403
50 1 1 2.21689e-05 0.142863
4 1 0.214262 0.0714321 0.071431
174 1 0.714108 0.428587 0.428589
6 1 0.357128 0.0714272 0.0714263
173 1 0.572406 0.427568 0.427586
8 1 0.5 0.0714254 0.0714247
54 1 0.285691 1.80723e-05 0.142841
10 1 0.642872 0.0714284 0.0714277
446 1 0.642638 0.500045 0.357146
12 1 0.785737 0.0714338 0.071433
172 1 0.427519 0.427497 0.427496
14 1 0.928583 0.0714423 0.0714413
444 1 0.357344 0.500045 0.357124
16 1 0.0714149 0.214295 0.0714486
17 1 0.142832 0.142852 2.03319e-05
18 1 0.214249 0.214272 0.0714358
194 1 0.642643 0.357133 0.500044
20 1 0.357123 0.214265 0.0714309
192 1 0.357349 0.357123 0.500045
22 1 0.5 0.214263 0.0714289
56 1 0.428563 1.61119e-05 0.142836
24 1 0.642876 0.214266 0.0714333
58 1 0.571437 1.67426e-05 0.142836
26 1 0.785748 0.214274 0.0714391
27 1 0.857167 0.142854 2.20356e-05
28 1 0.928583 0.214296 0.07145
29 1 0.999999 0.285721 2.52327e-05
30 1 0.0714167 0.357152 0.0714502
60 1 0.714309 1.95665e-05 0.142843
32 1 0.214253 0.357142 0.0714402
33 1 0.28567 0.285683 2.23454e-05
34 1 0.357094 0.357107 0.0713955
35 1 0.428558 0.285681 1.93591e-05
36 1 0.5 0.357115 0.0714003
37 1 0.571442 0.285681 2.06548e-05
38 1 0.642904 0.357108 0.0714002
39 1 0.714329 0.285685 2.54667e-05
40 1 0.785744 0.357144 0.0714446
101 1 0.142831 2.60464e-05 0.285711
42 1 0.928581 0.357152 0.0714519
43 1 1 0.428578 2.2238e-05
111 1 0.857168 2.79455e-05 0.285712
45 1 0.285676 0.428567 1.39098e-05
46 1 0.428544 0.428548 -2.96102e-06
47 1 0.571457 0.428548 -6.57916e-07
149 1 0.142833 2.13547e-05 0.428574
150 1 0.285675 1.49669e-05 0.428566
171 1 0.285868 0.428572 0.428572
51 1 0.0714148 0.0714497 0.214293
52 1 0.142832 2.12296e-05 0.142851
53 1 0.214249 0.0714367 0.21427
170 1 0.142893 0.428584 0.428583
55 1 0.357123 0.0714315 0.214263
169 1 -2.57069e-06 0.428585 0.428585
57 1 0.5 0.0714291 0.214261
168 1 0.857135 0.285735 0.428594
59 1 0.642876 0.0714334 0.214265
167 1 0.714281 0.285721 0.428605
61 1 0.785749 0.0714395 0.214273
62 1 0.857167 2.25827e-05 0.142852
63 1 0.928583 0.0714508 0.214294
64 1 -1.50484e-06 0.142874 0.142873
65 1 0.0714146 0.214303 0.214301
66 1 0.142832 0.142865 0.142864
67 1 0.214246 0.214278 0.214276
68 1 0.285687 0.142849 0.142848
69 1 0.357119 0.214257 0.214256
70 1 0.428563 0.142845 0.142844
71 1 0.499999 0.214259 0.214258
72 1 0.571437 0.142846 0.142846
73 1 0.642878 0.214261 0.21426
74 1 0.714311 0.142852 0.142851
75 1 0.785748 0.214283 0.214282
76 1 0.857165 0.142868 0.142866
77 1 0.92858 0.214304 0.214303
78 1 0.999998 0.285731 0.14288
79 1 0.0714203 0.357161 0.214307
80 1 0.142834 0.285723 0.142872
81 1 0.214258 0.357153 0.214291
82 1 0.285659 0.285679 0.142824
83 1 0.357036 0.357049 0.214148
84 1 0.428562 0.285686 0.142832
85 1 0.499999 0.357127 0.214215
86 1 0.571437 0.285687 0.142834
87 1 0.642956 0.357055 0.214159
88 1 0.714337 0.285683 0.14283
89 1 0.785735 0.357157 0.214298
90 1 0.857162 0.285725 0.142875
91 1 0.928574 0.357163 0.214309
92 1 0.999998 0.428583 0.142877
93 1 0.142838 0.428582 0.142869
94 1 0.285676 0.428578 0.142837
95 1 0.428506 0.428519 0.142701
96 1 0.57149 0.42852 0.142707
97 1 0.714319 0.428579 0.142844
98 1 0.857158 0.428583 0.142873
99 1 -4.78644e-07 2.61545e-05 0.28572
100 1 0.0714166 0.0714512 0.357151
166 1 0.57168 0.285377 0.428301
102 1 0.214253 0.0714411 0.357141
103 1 0.285669 2.31219e-05 0.285682
104 1 0.357093 0.0713951 0.357105
105 1 0.428557 1.9586e-05 0.285679
106 1 0.5 0.0713988 0.357113
107 1 0.571442 2.06174e-05 0.28568
108 1 0.642905 0.0713988 0.357106
109 1 0.71433 2.55908e-05 0.285683
110 1 0.785745 0.0714445 0.357142
165 1 0.428311 0.285362 0.428295
112 1 0.928582 0.0714525 0.357151
113 1 -1.76398e-06 0.142881 0.285729
114 1 0.0714205 0.214308 0.357161
115 1 0.142833 0.142873 0.285722
116 1 0.214258 0.214292 0.357152
117 1 0.285658 0.142824 0.285677
118 1 0.357034 0.214145 0.357046
119 1 0.428561 0.142831 0.285684
120 1 0.499999 0.214211 0.357125
121 1 0.571437 0.142833 0.285685
122 1 0.642959 0.214155 0.357052
123 1 0.714338 0.142829 0.285681
124 1 0.785736 0.214297 0.357155
125 1 0.857163 0.142876 0.285724
126 1 0.928575 0.21431 0.357162
127 1 0.999997 0.285737 0.285736
128 1 0.0714276 0.357163 0.357162
129 1 0.142835 0.285727 0.285726
130 1 0.214268 0.357152 0.357152
131 1 0.285642 0.285658 0.285657
132 1 0.356947 0.356935 0.356935
133 1 0.428581 0.285674 0.285674
134 1 0.5 0.357252 0.357258
135 1 0.571415 0.285677 0.285678
136 1 0.643021 0.356963 0.356965
137 1 0.714345 0.285669 0.285669
138 1 0.785717 0.357161 0.357161
139 1 0.857157 0.285731 0.285731
140 1 0.928565 0.357165 0.357164
141 1 0.999997 0.428589 0.285736
142 1 0.142859 0.428593 0.285731
143 1 0.285712 0.428602 0.285713
144 1 0.428317 0.428301 0.285372
145 1 0.571672 0.428306 0.285392
146 1 0.714277 0.428606 0.285725
147 1 0.857133 0.428595 0.285735
148 1 9.53869e-08 2.31961e-05 0.428577
164 1 0.285711 0.285713 0.428602
163 1 0.142859 0.285732 0.428592
151 1 0.428543 -2.95435e-06 0.428547
152 1 0.571457 -1.16554e-06 0.428547
153 1 0.714325 1.86363e-05 0.428567
162 1 0.999997 0.285736 0.428588
155 1 0.999999 0.142878 0.428582
156 1 0.142838 0.14287 0.428581
157 1 0.285676 0.142837 0.428577
158 1 0.428505 0.142697 0.428517
159 1 0.571492 0.142701 0.428518
160 1 0.714321 0.142842 0.428578
161 1 0.857159 0.142873 0.428582
154 1 0.857167 2.38998e-05 0.428575
350 1 0.928581 0.500009 0.0714451
344 1 0.0714172 0.500008 0.0714432
176 1 0.0714172 0.0714442 0.500008
49 1 0.857166 0.428576 2.33258e-05
48 1 0.714324 0.428568 1.86012e-05
516 1 0.643267 0.500037 0.500038
44 1 0.142834 0.428575 2.01257e-05
182 1 0.928582 0.0714457 0.500008
41 1 0.857167 0.285713 2.73801e-05
31 1 0.142832 0.285713 2.49417e-05
25 1 0.714308 0.142844 1.93067e-05
23 1 0.571437 0.142837 1.65125e-05
21 1 0.428563 0.142837 1.57068e-05
19 1 0.285691 0.142842 1.74043e-05
15 1 -3.76536e-07 0.142864 2.13505e-05
643 1 0.785751 0.500004 0.928601
642 1 0.642895 0.500002 0.92861
641 1 0.500001 0.499999 0.928645
543 1 0.500011 0.499682 0.645321
640 1 0.357108 0.500002 0.928605
639 1 0.214252 0.500004 0.928597
595 1 0.928591 0.500003 0.78574
333 1 0.714355 0.285652 0.857236
332 1 0.642906 0.357098 0.928639
331 1 0.571443 0.285655 0.857218
330 1 0.500001 0.357099 0.928624
329 1 0.428559 0.285654 0.857218
328 1 0.357095 0.357098 0.928637
327 1 0.285645 0.285651 0.857235
326 1 0.214248 0.357132 0.928608
325 1 0.142822 0.285701 0.857181
324 1 0.071415 0.357145 0.928598
193 1 0.499995 0.353471 0.500055
323 1 4.34833e-07 0.285713 0.85717
322 1 0.928587 0.214285 0.9286
321 1 0.857176 0.142841 0.857179
686 3 0.49942 0.458378 0.50917
198 1 0.0714157 0.0714357 0.642868
594 1 0.785761 0.5 0.785765
200 1 0.214248 0.0714148 0.64288
343 1 0.857174 0.42857 0.857178
202 1 0.35709 0.0713513 0.642919
342 1 0.714339 0.428558 0.85721
204 1 0.5 0.0713518 0.642912
341 1 0.57148 0.428506 0.857293
206 1 0.64291 0.0713547 0.642919
593 1 0.642901 0.499993 0.785835
208 1 0.785752 0.0714184 0.64288
592 1 0.500003 0.499972 0.786155
210 1 0.928585 0.0714371 0.642868
211 1 0.999999 0.142869 0.571437
212 1 0.0714144 0.21429 0.642867
213 1 0.142834 0.142859 0.571439
214 1 0.214235 0.214256 0.642885
215 1 0.285668 0.142815 0.571453
216 1 0.357005 0.214071 0.643019
217 1 0.428501 0.142664 0.571524
218 1 0.499999 0.214145 0.642938
219 1 0.571498 0.142666 0.571524
220 1 0.642994 0.214074 0.643019
221 1 0.714331 0.142819 0.571453
222 1 0.785763 0.21426 0.642886
223 1 0.857164 0.142861 0.57144
224 1 0.928585 0.214291 0.642867
225 1 -1.16768e-06 0.285728 0.571433
226 1 0.0714101 0.357145 0.642871
227 1 0.142845 0.285719 0.571432
228 1 0.214187 0.357104 0.642916
229 1 0.285673 0.28568 0.571447
230 1 0.356721 0.356718 0.643327
231 1 0.428266 0.285297 0.5718
232 1 0.5 0.357099 0.642821
233 1 0.571729 0.285297 0.571798
234 1 0.643271 0.356726 0.64332
235 1 0.714322 0.285685 0.571447
236 1 0.785811 0.357107 0.642917
237 1 0.857152 0.285722 0.571432
238 1 0.92859 0.357146 0.642872
239 1 1 0.428579 0.571434
240 1 0.142851 0.428574 0.571439
241 1 0.285677 0.428538 0.571503
242 1 0.426744 0.427296 0.573253
243 1 0.57323 0.427286 0.573206
244 1 0.714317 0.428545 0.571508
245 1 0.857148 0.428576 0.571442
340 1 0.428523 0.428505 0.857293
247 1 0.0714134 0.0714279 0.785733
591 1 0.357106 0.499994 0.785827
249 1 0.214244 0.0714015 0.785756
339 1 0.285665 0.428559 0.857206
251 1 0.357122 0.0713894 0.785759
338 1 0.142829 0.42857 0.857175
253 1 0.5 0.0713838 0.78576
337 1 1 0.428574 0.857168
255 1 0.642879 0.0713915 0.78576
336 1 0.928586 0.357145 0.928599
257 1 0.785758 0.0714045 0.785758
590 1 0.214245 0.5 0.785759
259 1 0.928588 0.0714291 0.785734
260 1 1.67958e-07 0.14286 0.7143
261 1 0.0714062 0.214275 0.785744
262 1 0.142824 0.142844 0.71431
263 1 0.214217 0.214228 0.785785
264 1 0.285641 0.142771 0.714365
265 1 0.357108 0.214213 0.785797
266 1 0.428557 0.142778 0.714358
267 1 0.5 0.214209 0.785794
268 1 0.571443 0.142779 0.714358
269 1 0.642892 0.214215 0.785798
270 1 0.714359 0.142774 0.714365
271 1 0.785783 0.214231 0.785786
272 1 0.857176 0.142846 0.71431
273 1 0.928594 0.214276 0.785744
274 1 1.2648e-08 0.285713 0.714305
275 1 0.0714106 0.357141 0.785742
276 1 0.142802 0.28569 0.714326
277 1 0.214227 0.357118 0.785774
278 1 0.285559 0.285558 0.714455
279 1 0.357022 0.357014 0.785924
280 1 0.428566 0.285608 0.714406
281 1 0.500002 0.357067 0.785828
282 1 0.571434 0.285609 0.714405
283 1 0.642979 0.357016 0.785923
284 1 0.714439 0.285562 0.714454
285 1 0.785776 0.357118 0.785777
286 1 0.857198 0.285691 0.714327
287 1 0.928591 0.357141 0.785743
288 1 1.78682e-06 0.428574 0.714305
289 1 0.142822 0.42857 0.714319
290 1 0.285633 0.428546 0.714382
291 1 0.428351 0.428293 0.714677
292 1 0.571653 0.428292 0.714671
293 1 0.714373 0.428545 0.714387
294 1 0.857182 0.428571 0.714323
589 1 0.0714147 0.500002 0.785738
296 1 0.0714153 0.0714306 0.928592
335 1 0.857179 0.285702 0.857183
298 1 0.214262 0.0714185 0.928594
546 1 0.928586 0.500002 0.642871
300 1 0.357128 0.0714111 0.928594
11 1 0.714304 5.65125e-06 1.00001
302 1 0.5 0.0714084 0.928594
9 1 0.571436 1.69653e-06 1
304 1 0.642873 0.0714124 0.928595
3 1 0.142839 9.60966e-06 1.00001
306 1 0.785739 0.0714203 0.928596
334 1 0.785753 0.357132 0.928611
308 1 0.928585 0.0714315 0.928593
309 1 1 0.142854 0.857168
310 1 0.0714131 0.214284 0.928599
311 1 0.142824 0.142839 0.857178
312 1 0.214244 0.214257 0.928612
313 1 0.285683 0.14282 0.857189
314 1 0.357121 0.21425 0.928612
315 1 0.428561 0.142814 0.85719
316 1 0.5 0.214246 0.928612
317 1 0.57144 0.142814 0.857191
318 1 0.64288 0.214251 0.928613
319 1 0.714318 0.142822 0.85719
320 1 0.785756 0.214259 0.928614
540 1 0.0714196 0.500001 0.642869
541 1 0.214248 0.499996 0.642889
545 1 0.785761 0.499997 0.642897
196 1 0.928557 0.357161 0.500008
195 1 0.785651 0.357172 0.500012
191 1 0.214342 0.357165 0.500009
190 1 0.0714385 0.35716 0.500008
189 1 0.928576 0.214301 0.50001
188 1 0.785729 0.214283 0.500013
187 1 0.642874 0.214192 0.500024
186 1 0.499998 0.213604 0.500036
185 1 0.357121 0.214187 0.500024
517 1 0.785696 0.500003 0.500004
518 1 0.928568 0.500005 0.500005
184 1 0.214267 0.214278 0.500012
183 1 0.0714212 0.214299 0.500009
514 1 0.356729 0.500004 0.500003
181 1 0.785745 0.071433 0.500009
179 1 0.5 0.0712851 0.500013
178 1 0.357104 0.071384 0.500011
177 1 0.214254 0.0714292 0.500009
180 1 0.642895 0.0713878 0.500012
349 1 0.785744 0.50001 0.0714335
687 3 0.49964 0.509556 0.458496
511 1 0.857175 0.857179 0.42857
510 1 0.71434 0.857213 0.428557
509 1 0.57148 0.857297 0.428505
508 1 0.428521 0.857296 0.428504
348 1 0.642893 0.500012 0.0713902
522 1 0.500007 0.64534 0.499682
352 1 0.0714155 0.642868 0.0714346
347 1 0.5 0.500013 0.0712884
354 1 0.214249 0.642879 0.0714139
346 1 0.357105 0.500012 0.0713847
356 1 0.357091 0.642918 0.0713517
512 1 0.0714321 0.500004 0.500003
358 1 0.5 0.642911 0.0713536
5 1 0.285697 1 3.52136e-06
360 1 0.642909 0.642918 0.0713565
7 1 0.428565 1 6.82951e-07
362 1 0.785751 0.64288 0.0714187
345 1 0.214255 0.500009 0.0714284
364 1 0.928584 0.642868 0.0714364
494 1 0.426714 0.573267 0.427294
366 1 0.0714131 0.785733 0.0714267
393 1 0.0714206 0.50001 0.214299
368 1 0.214244 0.785756 0.0714004
493 1 0.285668 0.571506 0.428537
370 1 0.357122 0.785758 0.0713889
492 1 0.142849 0.57144 0.428573
372 1 0.5 0.78576 0.0713839
491 1 0.999999 0.571435 0.428578
374 1 0.642879 0.785759 0.0713917
490 1 0.928586 0.9286 0.357144
376 1 0.785757 0.785757 0.0714041
394 1 0.214267 0.500013 0.214278
378 1 0.928588 0.785734 0.0714282
395 1 0.357122 0.500024 0.21419
380 1 0.0714151 0.928593 0.0714294
489 1 0.857179 0.857184 0.2857
382 1 0.214262 0.928595 0.0714174
396 1 0.499998 0.500037 0.213618
384 1 0.357128 0.928594 0.0714103
397 1 0.642871 0.500025 0.2142
386 1 0.5 0.928594 0.0714078
398 1 0.785727 0.500014 0.214285
388 1 0.642872 0.928595 0.0714119
399 1 0.928575 0.50001 0.214301
390 1 0.785739 0.928596 0.0714196
13 1 0.857162 1.00001 1.0423e-05
392 1 0.928585 0.928594 0.0714305
507 1 0.285662 0.857209 0.428557
506 1 0.142828 0.857177 0.428569
505 1 1 0.857169 0.428573
504 1 0.857183 0.714324 0.42857
503 1 0.714376 0.714392 0.428544
502 1 0.571655 0.714682 0.428293
501 1 0.428347 0.714686 0.428291
400 1 0.999999 0.571437 0.142869
401 1 0.0714136 0.642867 0.214288
402 1 0.142834 0.57144 0.142858
403 1 0.214235 0.642886 0.214255
404 1 0.285668 0.571453 0.142815
405 1 0.357006 0.643017 0.214072
406 1 0.428502 0.571523 0.142668
407 1 0.499999 0.642937 0.214151
408 1 0.571496 0.571523 0.142672
409 1 0.642991 0.643016 0.214079
410 1 0.714329 0.571452 0.142821
411 1 0.785761 0.642885 0.214261
412 1 0.857163 0.57144 0.142861
413 1 0.928584 0.642867 0.21429
414 1 1 0.7143 0.142859
415 1 0.0714054 0.785744 0.214273
416 1 0.142824 0.71431 0.142843
417 1 0.214216 0.785786 0.214226
418 1 0.285642 0.714364 0.14277
419 1 0.357108 0.785797 0.214213
420 1 0.428557 0.714357 0.142779
421 1 0.5 0.785794 0.214209
422 1 0.571443 0.714357 0.142781
423 1 0.642892 0.785797 0.214215
424 1 0.714357 0.714364 0.142775
425 1 0.785782 0.785786 0.21423
426 1 0.857175 0.71431 0.142846
427 1 0.928594 0.785744 0.214275
428 1 1 0.857169 0.142853
429 1 0.0714126 0.9286 0.214282
430 1 0.142824 0.857179 0.142838
431 1 0.214243 0.928613 0.214256
432 1 0.285682 0.857189 0.142819
433 1 0.35712 0.928612 0.214248
434 1 0.428561 0.85719 0.142813
435 1 0.5 0.928612 0.214245
436 1 0.571439 0.85719 0.142814
437 1 0.64288 0.928613 0.21425
438 1 0.714318 0.85719 0.142822
439 1 0.785756 0.928614 0.214257
440 1 0.857176 0.857179 0.14284
441 1 0.928587 0.928601 0.214283
500 1 0.285628 0.714386 0.428543
499 1 0.14282 0.714321 0.428569
498 1 1 0.714306 0.428573
445 1 0.499992 0.500056 0.353537
497 1 0.857149 0.571442 0.428577
496 1 0.714322 0.571511 0.428547
495 1 0.573249 0.573233 0.427309
449 1 0.999998 0.571433 0.285727
450 1 0.0714088 0.642872 0.357144
451 1 0.142844 0.571432 0.285718
452 1 0.214184 0.642919 0.357102
453 1 0.285672 0.571448 0.28568
454 1 0.356714 0.643334 0.356713
455 1 0.42827 0.571795 0.285307
456 1 0.499998 0.642822 0.357107
457 1 0.571723 0.571794 0.285314
458 1 0.643274 0.643325 0.356727
459 1 0.714319 0.571447 0.285689
460 1 0.785812 0.642919 0.357107
461 1 0.857151 0.571432 0.285722
462 1 0.928589 0.642872 0.357145
463 1 0.999999 0.714306 0.285712
464 1 0.0714096 0.785743 0.357139
465 1 0.1428 0.714328 0.285688
466 1 0.214224 0.785776 0.357116
467 1 0.285556 0.714458 0.285555
468 1 0.35702 0.785928 0.357012
469 1 0.428566 0.714406 0.285609
470 1 0.500001 0.785831 0.357066
471 1 0.571433 0.714405 0.285612
472 1 0.64298 0.785927 0.357015
473 1 0.714439 0.714456 0.285561
474 1 0.785777 0.785778 0.357117
475 1 0.857198 0.714328 0.285691
476 1 0.928592 0.785744 0.35714
477 1 1 0.857171 0.285712
478 1 0.0714144 0.928599 0.357143
479 1 0.142821 0.857182 0.285699
480 1 0.214246 0.928609 0.35713
481 1 0.285644 0.857237 0.285649
482 1 0.357094 0.928639 0.357096
483 1 0.428558 0.857219 0.285653
484 1 0.5 0.928625 0.357098
485 1 0.571443 0.857219 0.285654
486 1 0.642906 0.92864 0.357097
487 1 0.714356 0.857237 0.285651
488 1 0.785754 0.928612 0.357131
448 1 0.928557 0.500009 0.357161
447 1 0.78565 0.500012 0.357173
443 1 0.21434 0.500009 0.357164
442 1 0.0714376 0.500008 0.357159
519 1 0.0714184 0.64287 0.500001
520 1 0.214245 0.642892 0.499995
524 1 0.785764 0.642899 0.499998
525 1 0.928587 0.642871 0.500001
526 1 0.0714139 0.78574 0.500002
527 1 0.214243 0.785762 0.499999
528 1 0.357103 0.785833 0.499993
529 1 0.500002 0.786164 0.499971
530 1 0.642904 0.785841 0.499993
531 1 0.785763 0.785768 0.5
532 1 0.928591 0.785742 0.500002
513 1 0.214303 0.499998 0.499998
534 1 0.21425 0.928598 0.500004
535 1 0.357106 0.928607 0.500001
536 1 0.500001 0.928647 0.499999
537 1 0.642896 0.928612 0.500002
538 1 0.785752 0.928603 0.500004
1 1 1 1.00001 1.2868e-05
307 1 0.85717 1 0.857168
688 3 0.500735 0.526643 0.526963
685 1 0.857176 0.857167 0.857167
515 1 0.928586 0.928587 0.928586
684 1 0.785736 0.928584 0.928584
297 1 0.142833 1 0.857167
256 1 0.71433 0.999986 0.714329
305 1 0.714307 0.999991 0.857168
303 1 0.571437 0.999983 0.857167
521 1 0.357059 0.643075 0.500006
254 1 0.571441 0.999968 0.714325
523 1 0.642954 0.643092 0.500003
301 1 0.428564 0.999982 0.857166
299 1 0.285695 0.999989 0.857166
295 1 1.2398e-06 1.00001 0.85716
258 1 0.857171 1.00001 0.714305
248 1 0.142832 1 0.714304
209 1 0.857168 1.00001 0.571439
207 1 0.714326 1 0.571447
199 1 0.142833 1.00001 0.571438
638 1 0.0714166 0.500005 0.928593
252 1 0.42856 0.999966 0.714325
644 1 0.928586 0.500005 0.928594
197 1 1 1.00002 0.571436
680 1 0.500001 0.928574 0.928574
679 1 0.428568 0.857147 0.857147
678 1 0.357132 0.928576 0.928575
250 1 0.285673 0.999981 0.714327
677 1 0.285697 0.857155 0.857155
391 1 0.85717 0.857168 1
542 1 0.35707 0.500008 0.643063
683 1 0.714307 0.857159 0.857159
544 1 0.642944 0.500001 0.643077
381 1 0.142833 0.857167 1
375 1 0.714329 0.714328 0.999986
547 1 3.40415e-06 0.571432 0.571431
548 1 0.0714087 0.642867 0.642866
549 1 0.14283 0.571432 0.571432
550 1 0.214179 0.642898 0.642897
551 1 0.2856 0.571463 0.571459
552 1 0.356743 0.643212 0.643208
553 1 0.426538 0.572678 0.572657
554 1 0.500001 0.642562 0.642557
555 1 0.573596 0.572813 0.572792
556 1 0.643313 0.643263 0.643261
557 1 0.714438 0.571481 0.571479
558 1 0.785843 0.64291 0.642909
559 1 0.857181 0.571436 0.571436
560 1 0.928602 0.642869 0.642869
561 1 1 0.714301 0.571431
562 1 0.0714138 0.785733 0.642865
563 1 0.142821 0.714312 0.57143
564 1 0.214235 0.785752 0.642877
565 1 0.28563 0.714356 0.571444
566 1 0.357059 0.785833 0.642925
567 1 0.428393 0.714476 0.571559
568 1 0.500002 0.785703 0.642839
569 1 0.571623 0.714505 0.571568
570 1 0.642953 0.78585 0.642934
571 1 0.714383 0.714369 0.571448
572 1 0.785775 0.78576 0.642881
573 1 0.857188 0.714317 0.571433
574 1 0.928594 0.785735 0.642867
575 1 1 0.857164 0.571434
576 1 0.0714166 0.928586 0.642867
577 1 0.14283 0.857167 0.571435
578 1 0.21425 0.928586 0.642874
579 1 0.285667 0.857187 0.571439
580 1 0.357103 0.928587 0.642896
581 1 0.428528 0.857234 0.571468
582 1 0.500001 0.928562 0.642887
583 1 0.571476 0.857241 0.571469
584 1 0.6429 0.928593 0.642898
585 1 0.714339 0.857194 0.571441
586 1 0.785754 0.928591 0.642876
587 1 0.857175 0.857171 0.571436
588 1 0.928588 0.928588 0.642867
373 1 0.571441 0.714325 0.999968
371 1 0.42856 0.714324 0.999966
369 1 0.285673 0.714327 0.999981
365 1 1.04777e-06 0.714297 1.00001
361 1 0.714325 0.571447 1
359 1 0.571456 0.571463 0.99997
357 1 0.428545 0.571463 0.999966
596 1 1 0.571431 0.714301
597 1 0.0714143 0.642865 0.785732
598 1 0.142823 0.57143 0.71431
599 1 0.214236 0.642876 0.78575
600 1 0.285634 0.571444 0.714351
601 1 0.357061 0.642925 0.78583
602 1 0.428396 0.57156 0.714466
603 1 0.500002 0.642839 0.785699
604 1 0.571622 0.571569 0.714495
605 1 0.642952 0.642933 0.785848
606 1 0.71438 0.571447 0.714364
607 1 0.785774 0.64288 0.785758
608 1 0.857187 0.571432 0.714316
609 1 0.928594 0.642866 0.785735
610 1 1.00001 0.714301 0.7143
611 1 0.0714115 0.785734 0.785734
612 1 0.142807 0.714315 0.714314
613 1 0.214232 0.78576 0.785759
614 1 0.285583 0.714409 0.714408
615 1 0.357139 0.785726 0.785726
616 1 0.428609 0.714259 0.714257
617 1 0.500001 0.785714 0.785714
618 1 0.571396 0.714265 0.714264
619 1 0.642867 0.785731 0.785731
620 1 0.71444 0.714428 0.714428
621 1 0.785779 0.785768 0.785768
622 1 0.857206 0.714321 0.714321
623 1 0.928597 0.785737 0.785737
624 1 1 0.857159 0.714297
625 1 0.0714159 0.928584 0.785729
626 1 0.142829 0.857163 0.714303
627 1 0.214251 0.928582 0.785744
628 1 0.285665 0.857186 0.714328
629 1 0.35713 0.928563 0.785737
630 1 0.428572 0.857137 0.714302
631 1 0.500001 0.928558 0.785736
632 1 0.571431 0.857141 0.714304
633 1 0.642872 0.928566 0.785739
634 1 0.714343 0.857196 0.714334
635 1 0.785753 0.928587 0.785748
636 1 0.857178 0.857167 0.714305
637 1 0.928589 0.928585 0.785731
682 1 0.64287 0.928577 0.928577
351 1 5.49126e-07 0.571436 1.00002
246 1 1 1.00001 0.714297
205 1 0.571457 0.999969 0.571464
203 1 0.428544 0.999966 0.571463
201 1 0.285675 0.999996 0.571446
681 1 0.571434 0.857148 0.857148
645 1 1 0.571434 0.857162
646 1 0.0714168 0.642867 0.928585
647 1 0.142831 0.571435 0.857166
648 1 0.214251 0.642874 0.928584
649 1 0.285669 0.571439 0.857184
650 1 0.357104 0.642895 0.928586
651 1 0.42853 0.571468 0.85723
652 1 0.500001 0.642887 0.928561
653 1 0.571476 0.571469 0.857238
654 1 0.642899 0.642897 0.928593
655 1 0.714337 0.57144 0.857192
656 1 0.785753 0.642875 0.92859
657 1 0.857174 0.571436 0.85717
658 1 0.928587 0.642867 0.928587
659 1 3.11341e-06 0.714297 0.857158
660 1 0.0714159 0.785729 0.928583
661 1 0.142829 0.714303 0.857162
662 1 0.214252 0.785744 0.928582
663 1 0.285666 0.714328 0.857185
664 1 0.357131 0.785736 0.928562
665 1 0.428572 0.714302 0.857136
666 1 0.500001 0.785735 0.928558
667 1 0.571431 0.714304 0.85714
668 1 0.642872 0.785738 0.928566
669 1 0.714342 0.714333 0.857195
670 1 0.785753 0.785747 0.928587
671 1 0.857177 0.714305 0.857167
672 1 0.928588 0.78573 0.928585
673 1 1 0.85716 0.85716
674 1 0.0714165 0.928585 0.928585
675 1 0.14283 0.857164 0.857163
676 1 0.214266 0.928582 0.928581
539 1 0.928586 0.928595 0.500005
533 1 0.0714162 0.928594 0.500005
353 1 0.142834 0.571439 1.00001
355 1 0.285677 0.571446 0.999995
363 1 0.857167 0.571439 1.00001
367 1 0.142832 0.714304 1
377 1 0.85717 0.714304 1.00001
379 1 1 0.85716 1.00001
383 1 0.285695 0.857166 0.999988
385 1 0.428565 0.857166 0.999982
387 1 0.571436 0.857166 0.999983
389 1 0.714307 0.857168 0.999991
