ITEM: TIMESTEP
8
ITEM: NUMBER OF ATOMS
690
ITEM: BOX BOUNDS pp pp pp
0.0000000000000000e+00 2.2013900999999997e+01
0.0000000000000000e+00 2.2013900999999997e+01
0.0000000000000000e+00 2.2013900999999997e+01
ITEM: ATOMS id type xs ys zs
1 1 7.78487e-06 7.08159e-06 8.10793e-06
2 1 0.0714302 0.0714302 0.0714301
3 1 0.142855 4.15775e-06 5.90744e-06
4 1 0.214282 0.0714314 0.0714315
5 1 0.285702 1.06725e-05 1.48637e-05
6 1 0.357137 0.0714336 0.0714335
7 1 0.42856 1.99115e-05 2.53638e-05
8 1 0.499996 0.0714358 0.0714352
9 1 0.571425 2.63206e-05 3.16491e-05
10 1 0.642858 0.0714362 0.0714352
11 1 0.714294 2.67475e-05 3.11823e-05
12 1 0.78572 0.0714351 0.0714341
13 1 0.857159 1.85973e-05 2.1481e-05
14 1 0.928577 0.0714323 0.0714317
15 1 4.66778e-06 0.142856 5.49585e-06
16 1 0.0714312 0.214283 0.0714312
17 1 0.142855 0.142856 5.74315e-06
18 1 0.214284 0.214284 0.0714382
19 1 0.285706 0.142853 1.26969e-05
20 1 0.357135 0.214278 0.0714434
21 1 0.428565 0.142852 1.86696e-05
22 1 0.499994 0.214275 0.0714447
23 1 0.571427 0.142852 2.02308e-05
24 1 0.642858 0.214271 0.0714405
25 1 0.714291 0.142852 1.75019e-05
26 1 0.785721 0.214274 0.0714388
27 1 0.857151 0.142854 1.13903e-05
28 1 0.928578 0.214279 0.0714331
29 1 1.08191e-05 0.285703 1.23219e-05
30 1 0.0714333 0.357138 0.0714327
31 1 0.142853 0.285707 1.16965e-05
32 1 0.214278 0.357136 0.0714427
33 1 0.285692 0.285693 3.18371e-05
34 1 0.357114 0.357115 0.071474
35 1 0.428553 0.285677 4.5756e-05
36 1 0.499985 0.357107 0.071481
37 1 0.571426 0.285671 4.54083e-05
38 1 0.64287 0.357098 0.0714683
39 1 0.714303 0.285671 3.96394e-05
40 1 0.785738 0.357113 0.0714595
41 1 0.857165 0.285687 2.58706e-05
42 1 0.928587 0.35713 0.0714387
43 1 1.96472e-05 0.428561 2.13098e-05
44 1 0.142852 0.428566 1.64664e-05
45 1 0.285679 0.428557 4.25218e-05
46 1 0.428506 0.428508 0.000103294
47 1 0.571437 0.428501 0.000118012
48 1 0.714344 0.428506 0.000113297
49 1 0.857186 0.428544 5.26112e-05
50 1 5.26315e-06 4.83245e-06 0.142854
51 1 0.0714305 0.0714307 0.21428
52 1 0.142856 3.20297e-06 0.142855
53 1 0.214279 0.0714343 0.214277
54 1 0.285706 6.89722e-06 0.142851
55 1 0.35713 0.0714379 0.214265
56 1 0.428564 1.16996e-05 0.142847
57 1 0.499993 0.0714394 0.214259
58 1 0.571426 1.41513e-05 0.142846
59 1 0.642861 0.0714378 0.214257
60 1 0.714291 1.37961e-05 0.142847
61 1 0.785725 0.0714383 0.214265
62 1 0.857152 1.00609e-05 0.14285
63 1 0.92858 0.0714339 0.214275
64 1 3.62476e-06 0.142856 0.142855
65 1 0.0714336 0.21428 0.214277
66 1 0.142858 0.142858 0.142856
67 1 0.214291 0.214291 0.214284
68 1 0.28571 0.142861 0.142855
69 1 0.357131 0.214293 0.214279
70 1 0.428566 0.14286 0.142853
71 1 0.499989 0.214286 0.214275
72 1 0.571425 0.142858 0.14285
73 1 0.642862 0.214274 0.21426
74 1 0.71429 0.142856 0.142849
75 1 0.785719 0.21428 0.214272
76 1 0.857148 0.142857 0.142854
77 1 0.928578 0.214277 0.214274
78 1 6.98084e-06 0.285707 0.142851
79 1 0.0714364 0.357131 0.214266
80 1 0.14286 0.28571 0.142855
81 1 0.214292 0.357131 0.214279
82 1 0.285716 0.285717 0.142884
83 1 0.357137 0.357138 0.214373
84 1 0.428558 0.285703 0.142885
85 1 0.499976 0.357141 0.214321
86 1 0.571421 0.285695 0.142873
87 1 0.642874 0.357099 0.214292
88 1 0.71429 0.285696 0.142864
89 1 0.785725 0.357119 0.214265
90 1 0.857152 0.285701 0.142854
91 1 0.928588 0.357124 0.214256
92 1 1.13121e-05 0.428565 0.142849
93 1 0.14286 0.428567 0.142853
94 1 0.285704 0.42856 0.142885
95 1 0.428502 0.428504 0.142872
96 1 0.571464 0.428502 0.142854
97 1 0.714308 0.428544 0.142878
98 1 0.85716 0.428559 0.142852
99 1 1.37384e-05 1.32714e-05 0.285699
100 1 0.0714309 0.0714317 0.357134
101 1 0.142851 7.63453e-06 0.285703
102 1 0.214265 0.0714333 0.357126
103 1 0.285685 1.78766e-05 0.285682
104 1 0.357095 0.0714451 0.357091
105 1 0.428548 2.87636e-05 0.28566
106 1 0.499982 0.0714467 0.35708
107 1 0.571427 3.149e-05 0.285654
108 1 0.642885 0.0714463 0.357074
109 1 0.714309 3.30678e-05 0.285657
110 1 0.785751 0.071457 0.357101
111 1 0.857171 2.70785e-05 0.285679
112 1 0.928593 0.0714408 0.357126
113 1 7.56204e-06 0.142852 0.285703
114 1 0.0714311 0.214267 0.357128
115 1 0.142853 0.142853 0.285703
116 1 0.214271 0.214272 0.357117
117 1 0.2857 0.142873 0.285694
118 1 0.357098 0.214321 0.357098
119 1 0.42855 0.142868 0.285675
120 1 0.499973 0.214246 0.357101
121 1 0.571427 0.142858 0.285667
122 1 0.642912 0.214245 0.357055
123 1 0.714305 0.142858 0.285673
124 1 0.785745 0.214262 0.357102
125 1 0.857159 0.142855 0.285693
126 1 0.928593 0.214258 0.35712
127 1 1.5445e-05 0.285689 0.285686
128 1 0.0714377 0.357098 0.357095
129 1 0.142871 0.2857 0.285694
130 1 0.214316 0.357096 0.357096
131 1 0.285765 0.285766 0.285758
132 1 0.357479 0.357478 0.35752
133 1 0.428536 0.285723 0.285732
134 1 0.499983 0.357139 0.357181
135 1 0.571435 0.285687 0.28569
136 1 0.642722 0.357267 0.357291
137 1 0.714271 0.285718 0.285706
138 1 0.785705 0.357108 0.357097
139 1 0.857151 0.285688 0.285681
140 1 0.928624 0.357071 0.357067
141 1 2.40646e-05 0.428551 0.285666
142 1 0.142865 0.428551 0.285676
143 1 0.285724 0.428537 0.285733
144 1 0.428507 0.428505 0.286081
145 1 0.57152 0.428474 0.285907
146 1 0.714306 0.428538 0.285696
147 1 0.85717 0.428536 0.285638
148 1 2.39789e-05 2.36878e-05 0.428559
149 1 0.142846 1.31611e-05 0.428562
150 1 0.285661 3.13515e-05 0.428544
151 1 0.428493 8.29903e-05 0.428489
152 1 0.571444 0.000100939 0.428484
153 1 0.714358 0.000107211 0.428493
154 1 0.857197 5.86703e-05 0.428536
155 1 1.20027e-05 0.14285 0.428563
156 1 0.142847 0.142848 0.428563
157 1 0.285675 0.142857 0.428547
158 1 0.428478 0.142795 0.428479
159 1 0.57148 0.142779 0.428476
160 1 0.714335 0.142855 0.428529
161 1 0.857174 0.142852 0.428554
162 1 2.33216e-05 0.28567 0.42855
163 1 0.142853 0.285676 0.428548
164 1 0.285693 0.285693 0.428528
165 1 0.428422 0.285864 0.428431
166 1 0.571632 0.285686 0.428376
167 1 0.714346 0.285662 0.428512
168 1 0.857183 0.285643 0.428529
169 1 6.47707e-05 0.428501 0.428498
170 1 0.142784 0.428479 0.428481
171 1 0.285855 0.428407 0.428429
172 1 0.430017 0.429983 0.430111
173 1 0.570865 0.42929 0.429304
174 1 0.714021 0.428668 0.42865
175 1 0.857328 0.428409 0.428391
344 1 0.0714355 0.499997 0.071434
345 1 0.214276 0.499996 0.0714435
346 1 0.357108 0.499989 0.0714785
347 1 0.499966 0.499969 0.07146
348 1 0.642885 0.499968 0.0715116
349 1 0.785746 0.499986 0.0714778
350 1 0.928594 0.499993 0.0714441
393 1 0.071438 0.499994 0.214262
394 1 0.214287 0.499991 0.214276
395 1 0.357143 0.499978 0.214329
396 1 0.499938 0.499943 0.213807
397 1 0.642896 0.49996 0.214258
398 1 0.785722 0.499998 0.214274
399 1 0.92859 0.499993 0.21425
442 1 0.0714385 0.499984 0.357084
443 1 0.214244 0.499972 0.357103
444 1 0.357148 0.499968 0.3572
512 1 0.0713981 0.499963 0.499966
447 1 0.785795 0.499987 0.357061
448 1 0.928635 0.49998 0.35705
176 1 0.0714317 0.0714333 0.499996
177 1 0.214258 0.0714339 0.499993
178 1 0.357081 0.0714485 0.499982
179 1 0.499961 0.0714169 0.499962
180 1 0.642906 0.0714881 0.499962
181 1 0.785766 0.0714786 0.499982
182 1 0.928602 0.0714479 0.499991
183 1 0.0714299 0.214262 0.499995
184 1 0.214261 0.214262 0.49999
185 1 0.357098 0.214252 0.49998
186 1 0.499935 0.213629 0.499935
187 1 0.642942 0.214174 0.499951
188 1 0.785752 0.214267 0.499993
189 1 0.928597 0.214255 0.499993
190 1 0.0714345 0.357088 0.499986
191 1 0.214246 0.357097 0.499982
192 1 0.357133 0.357129 0.499982
513 1 0.213622 0.499927 0.499941
194 1 0.643051 0.357293 0.500011
195 1 0.785814 0.35708 0.499964
196 1 0.928636 0.357062 0.499977
518 1 0.928845 0.499921 0.499903
517 1 0.786426 0.499781 0.499723
644 1 0.928632 0.499982 0.928632
643 1 0.785815 0.49996 0.928697
642 1 0.642981 0.499894 0.928854
641 1 0.499909 0.499904 0.928865
640 1 0.357062 0.499979 0.928648
639 1 0.214256 0.499996 0.928602
638 1 0.0714428 0.499994 0.928599
595 1 0.92869 0.499963 0.785806
594 1 0.785922 0.499934 0.785911
593 1 0.64334 0.499651 0.786181
592 1 0.499652 0.499635 0.786501
591 1 0.357052 0.499929 0.785773
590 1 0.214262 0.499991 0.785743
589 1 0.0714639 0.499985 0.785758
546 1 0.928822 0.499912 0.642967
545 1 0.786059 0.499705 0.643356
343 1 0.857252 0.428494 0.857245
542 1 0.357369 0.499944 0.642901
541 1 0.214204 0.499936 0.642919
540 1 0.0714716 0.499964 0.642902
687 2 0.509999 0.445085 0.500845
197 1 3.0275e-05 2.97793e-05 0.571426
198 1 0.0714323 0.0714341 0.64286
199 1 0.142844 1.57619e-05 0.571427
200 1 0.214256 0.071434 0.642864
201 1 0.285654 3.66519e-05 0.571428
202 1 0.357075 0.0714538 0.642884
203 1 0.428484 0.000112776 0.571443
204 1 0.499961 0.0714942 0.642904
205 1 0.57145 0.000218303 0.571447
206 1 0.64291 0.0715143 0.642908
207 1 0.714371 0.000152316 0.571428
208 1 0.78577 0.0714935 0.642872
209 1 0.857211 7.83466e-05 0.571422
210 1 0.928605 0.0714517 0.642861
211 1 1.38019e-05 0.14285 0.571428
212 1 0.0714292 0.214261 0.642864
213 1 0.142844 0.142846 0.571428
214 1 0.214257 0.214259 0.642869
215 1 0.285668 0.142853 0.571431
216 1 0.357074 0.214297 0.64288
217 1 0.428475 0.142794 0.571479
218 1 0.499937 0.214197 0.642911
219 1 0.571483 0.142756 0.571483
220 1 0.642953 0.214261 0.642946
221 1 0.714334 0.142885 0.571436
222 1 0.785747 0.214282 0.642872
223 1 0.857177 0.142859 0.571428
224 1 0.928596 0.214255 0.642864
225 1 2.32945e-05 0.285666 0.57143
226 1 0.0714372 0.357083 0.642883
227 1 0.142847 0.285671 0.571432
228 1 0.214292 0.357073 0.642885
229 1 0.285682 0.285682 0.571439
230 1 0.357421 0.35741 0.642508
231 1 0.428416 0.285809 0.571536
232 1 0.49996 0.357312 0.642889
233 1 0.571604 0.285346 0.571574
234 1 0.642723 0.357703 0.642743
235 1 0.714318 0.285732 0.571467
236 1 0.785739 0.357094 0.642889
237 1 0.857179 0.28566 0.571433
238 1 0.928636 0.357054 0.642886
239 1 7.52346e-05 0.428498 0.571442
240 1 0.142781 0.428477 0.571482
241 1 0.285802 0.428398 0.571554
242 1 0.429959 0.429933 0.569922
243 1 0.571015 0.426625 0.570918
244 1 0.714283 0.428745 0.571492
245 1 0.857359 0.428485 0.571475
246 1 3.01916e-05 2.89313e-05 0.714296
247 1 0.0714326 0.071434 0.785722
248 1 0.142845 1.4692e-05 0.714294
249 1 0.214265 0.0714364 0.785727
250 1 0.285656 3.66604e-05 0.714312
251 1 0.3571 0.0714547 0.785753
252 1 0.428492 0.000117611 0.714362
253 1 0.499982 0.0714751 0.785767
254 1 0.57143 0.000157084 0.714373
255 1 0.642873 0.0714906 0.785771
256 1 0.714374 0.000164811 0.714374
257 1 0.785756 0.0714865 0.785756
258 1 0.857214 8.16259e-05 0.714318
259 1 0.928599 0.0714491 0.785731
260 1 1.29593e-05 0.142851 0.714293
261 1 0.0714324 0.214269 0.785725
262 1 0.142846 0.142849 0.714294
263 1 0.214269 0.214272 0.785723
264 1 0.285679 0.14286 0.714301
265 1 0.357097 0.214249 0.785743
266 1 0.428526 0.142856 0.714328
267 1 0.499986 0.214247 0.78575
268 1 0.571434 0.14288 0.714329
269 1 0.64288 0.214264 0.785748
270 1 0.714325 0.142892 0.714322
271 1 0.785729 0.214278 0.785725
272 1 0.857173 0.142862 0.7143
273 1 0.928591 0.21426 0.78573
274 1 2.3743e-05 0.28567 0.714306
275 1 0.0714434 0.357108 0.785746
276 1 0.142854 0.285682 0.714301
277 1 0.214248 0.357101 0.785742
278 1 0.285723 0.285724 0.714245
279 1 0.357073 0.357072 0.785675
280 1 0.428492 0.285652 0.714294
281 1 0.499919 0.356993 0.785809
282 1 0.571453 0.285669 0.714304
283 1 0.64293 0.35702 0.785784
284 1 0.714261 0.285774 0.714248
285 1 0.785742 0.357086 0.785729
286 1 0.857168 0.285651 0.71431
287 1 0.928636 0.357067 0.785773
288 1 8.62819e-05 0.428507 0.714345
289 1 0.142849 0.428531 0.714326
290 1 0.285664 0.428491 0.714297
291 1 0.428589 0.42857 0.713892
292 1 0.571401 0.428475 0.714442
293 1 0.71421 0.428753 0.714205
294 1 0.857304 0.428418 0.714434
295 1 2.10278e-05 1.94254e-05 0.85716
296 1 0.0714313 0.0714318 0.928578
297 1 0.14285 9.8177e-06 0.857154
298 1 0.214275 0.0714321 0.928583
299 1 0.285679 2.53584e-05 0.857175
300 1 0.357127 0.0714378 0.928596
301 1 0.428538 5.39014e-05 0.857201
302 1 0.499992 0.0714448 0.928605
303 1 0.571422 7.33962e-05 0.857214
304 1 0.642861 0.0714493 0.928607
305 1 0.714317 7.91273e-05 0.857216
306 1 0.78573 0.0714479 0.9286
307 1 0.857189 5.17828e-05 0.857189
308 1 0.928585 0.0714387 0.928586
309 1 9.35764e-06 0.142854 0.857152
310 1 0.0714306 0.214277 0.928581
311 1 0.142852 0.142854 0.857151
312 1 0.214273 0.214274 0.928586
313 1 0.285691 0.142849 0.857164
314 1 0.35712 0.214255 0.928603
315 1 0.428554 0.142846 0.857178
316 1 0.499992 0.214251 0.928608
317 1 0.571428 0.142852 0.85718
318 1 0.642865 0.21425 0.928606
319 1 0.714303 0.142857 0.857175
320 1 0.785733 0.214257 0.928596
321 1 0.857161 0.142861 0.85716
322 1 0.928584 0.214272 0.928585
323 1 1.96458e-05 0.285687 0.857166
324 1 0.0714356 0.357129 0.928592
325 1 0.142846 0.285694 0.857162
326 1 0.214255 0.357123 0.928601
327 1 0.285673 0.285675 0.857163
328 1 0.357064 0.357067 0.928648
329 1 0.42852 0.285627 0.857191
330 1 0.499972 0.357049 0.928666
331 1 0.571431 0.285634 0.857193
332 1 0.642894 0.35704 0.928667
333 1 0.714325 0.285634 0.857179
334 1 0.785783 0.35706 0.928648
335 1 0.857172 0.285671 0.857169
336 1 0.928613 0.357109 0.928613
337 1 4.63389e-05 0.428544 0.857188
338 1 0.142844 0.428558 0.857173
339 1 0.285635 0.428527 0.857184
340 1 0.428368 0.428363 0.857352
341 1 0.571476 0.428411 0.857438
342 1 0.714478 0.42838 0.857342
193 1 0.500121 0.353338 0.500016
511 1 0.857257 0.857257 0.428481
510 1 0.714457 0.857299 0.428401
509 1 0.571504 0.857426 0.428437
508 1 0.428376 0.857378 0.428369
507 1 0.285624 0.857191 0.428518
506 1 0.142845 0.857172 0.428552
505 1 5.57011e-05 0.857192 0.428538
351 1 2.52435e-05 0.571426 2.65552e-05
352 1 0.0714359 0.642858 0.0714338
353 1 0.142853 0.571428 1.71792e-05
354 1 0.214273 0.642858 0.0714392
355 1 0.285678 0.571427 3.80034e-05
356 1 0.357101 0.642868 0.0714644
357 1 0.428506 0.571437 0.000101456
358 1 0.499966 0.642883 0.0715064
359 1 0.57144 0.571438 0.000204832
360 1 0.642889 0.64289 0.0715188
361 1 0.714348 0.571424 0.000138793
362 1 0.785749 0.642864 0.0714848
363 1 0.857194 0.571422 6.7401e-05
364 1 0.928596 0.642859 0.071446
365 1 2.5237e-05 0.714293 2.60477e-05
366 1 0.0714349 0.785719 0.0714331
367 1 0.142853 0.71429 1.48696e-05
368 1 0.214276 0.785718 0.071438
369 1 0.285678 0.714297 3.30127e-05
370 1 0.357115 0.785731 0.0714566
371 1 0.428512 0.71433 0.000100724
372 1 0.499985 0.78574 0.071476
373 1 0.571423 0.714338 0.000133343
374 1 0.642863 0.785745 0.0714851
375 1 0.714347 0.714344 0.000139186
376 1 0.78574 0.785738 0.0714752
377 1 0.857195 0.714307 6.97669e-05
378 1 0.928592 0.785726 0.0714434
379 1 1.77886e-05 0.857156 1.82207e-05
380 1 0.0714321 0.928576 0.0714313
381 1 0.142854 0.857149 1.04456e-05
382 1 0.214279 0.928577 0.0714332
383 1 0.285689 0.857159 2.56153e-05
384 1 0.357129 0.928585 0.0714394
385 1 0.428543 0.857179 5.53261e-05
386 1 0.499992 0.928593 0.0714456
387 1 0.571421 0.85719 7.30984e-05
388 1 0.642859 0.928596 0.0714483
389 1 0.714309 0.857193 7.59445e-05
390 1 0.785728 0.928592 0.0714454
391 1 0.857177 0.857174 4.56861e-05
392 1 0.928583 0.928582 0.0714362
504 1 0.857275 0.714465 0.428397
503 1 0.714004 0.714074 0.428982
502 1 0.571516 0.714378 0.428701
501 1 0.428546 0.714119 0.428566
500 1 0.285635 0.714339 0.428509
499 1 0.142849 0.71433 0.428529
498 1 9.67359e-05 0.714352 0.428497
400 1 1.35205e-05 0.571427 0.142847
401 1 0.0714369 0.642861 0.214259
402 1 0.142858 0.571426 0.14285
403 1 0.214277 0.642861 0.214263
404 1 0.285698 0.571422 0.142875
405 1 0.357102 0.642867 0.214305
406 1 0.428501 0.571466 0.142858
407 1 0.499954 0.642894 0.214269
408 1 0.571468 0.571472 0.142827
409 1 0.642915 0.642921 0.214326
410 1 0.714302 0.571432 0.142905
411 1 0.785718 0.64287 0.214281
412 1 0.857161 0.571426 0.142855
413 1 0.928592 0.642862 0.214246
414 1 1.32796e-05 0.714291 0.142847
415 1 0.0714378 0.785724 0.214266
416 1 0.142857 0.714289 0.14285
417 1 0.214281 0.785715 0.214273
418 1 0.285699 0.714287 0.142866
419 1 0.357118 0.785719 0.214264
420 1 0.428543 0.714303 0.142879
421 1 0.499994 0.78572 0.214271
422 1 0.571428 0.714301 0.142905
423 1 0.642867 0.78572 0.214279
424 1 0.7143 0.7143 0.142901
425 1 0.785713 0.785713 0.214276
426 1 0.857161 0.714295 0.142853
427 1 0.928591 0.78573 0.214251
428 1 9.98658e-06 0.857151 0.142851
429 1 0.0714336 0.928579 0.214275
430 1 0.142857 0.857146 0.142854
431 1 0.214276 0.928577 0.214273
432 1 0.285701 0.857148 0.142854
433 1 0.357121 0.928587 0.214251
434 1 0.428558 0.857157 0.14285
435 1 0.499991 0.928591 0.214245
436 1 0.571425 0.857159 0.142853
437 1 0.642863 0.928593 0.214242
438 1 0.714295 0.85716 0.142853
439 1 0.785732 0.928591 0.214248
440 1 0.857156 0.857154 0.142854
441 1 0.928586 0.928585 0.214267
497 1 0.85737 0.571521 0.428444
496 1 0.714269 0.571592 0.428722
495 1 0.570919 0.57097 0.426637
445 1 0.500129 0.500116 0.354033
494 1 0.429284 0.570771 0.429374
493 1 0.285681 0.571608 0.428389
492 1 0.142771 0.571478 0.428479
449 1 2.65091e-05 0.571428 0.28566
450 1 0.0714405 0.642883 0.357078
451 1 0.142857 0.571428 0.285669
452 1 0.214248 0.642905 0.357059
453 1 0.285692 0.571432 0.2857
454 1 0.357271 0.642684 0.357318
455 1 0.428473 0.571509 0.285931
456 1 0.500028 0.642939 0.357448
457 1 0.571529 0.57154 0.285551
458 1 0.642667 0.642717 0.357945
459 1 0.71427 0.571486 0.285773
460 1 0.785724 0.642943 0.357085
461 1 0.857165 0.571437 0.285646
462 1 0.928642 0.642898 0.357036
463 1 2.99047e-05 0.714307 0.285661
464 1 0.0714533 0.785747 0.357103
465 1 0.142858 0.714302 0.285675
466 1 0.214256 0.785741 0.3571
467 1 0.285721 0.71426 0.285712
468 1 0.35708 0.785716 0.357075
469 1 0.428529 0.714301 0.285691
470 1 0.499968 0.785825 0.357055
471 1 0.57147 0.714282 0.285774
472 1 0.642923 0.785754 0.35709
473 1 0.714217 0.714228 0.285842
474 1 0.785712 0.78572 0.357099
475 1 0.857161 0.714317 0.285635
476 1 0.928641 0.785781 0.357054
477 1 2.59851e-05 0.857168 0.285681
478 1 0.0714389 0.928592 0.357126
479 1 0.142854 0.857157 0.285693
480 1 0.214252 0.928594 0.357116
481 1 0.285684 0.857148 0.285676
482 1 0.35706 0.928634 0.357055
483 1 0.428529 0.857173 0.285629
484 1 0.499973 0.928651 0.35704
485 1 0.571433 0.857173 0.28564
486 1 0.6429 0.928655 0.357031
487 1 0.714318 0.857165 0.285632
488 1 0.785786 0.928645 0.35705
489 1 0.857172 0.85717 0.285661
490 1 0.928621 0.928619 0.357101
491 1 8.10708e-05 0.571444 0.42849
446 1 0.642933 0.500066 0.357436
519 1 0.0714727 0.642902 0.499964
520 1 0.214161 0.64293 0.499954
521 1 0.357224 0.643039 0.500014
524 1 0.786011 0.643411 0.499699
525 1 0.928829 0.642995 0.499889
526 1 0.0714682 0.78576 0.499983
527 1 0.214242 0.785753 0.499989
528 1 0.357009 0.785872 0.499946
529 1 0.4997 0.786581 0.499707
530 1 0.643401 0.786159 0.499669
531 1 0.785902 0.785935 0.499923
532 1 0.9287 0.78582 0.499952
533 1 0.071444 0.9286 0.499991
534 1 0.214242 0.928602 0.499989
535 1 0.357037 0.928668 0.499966
536 1 0.499908 0.928897 0.499901
537 1 0.642997 0.928868 0.499895
538 1 0.785828 0.928712 0.499951
539 1 0.928644 0.928641 0.499978
690 2 0.553257 0.548826 0.548826
689 2 0.556951 0.570212 0.630875
665 1 0.42841 0.714435 0.857314
515 1 0.928601 0.928598 0.928603
516 1 0.64485 0.500483 0.500455
688 2 0.630779 0.557329 0.570645
686 2 0.445031 0.509446 0.501039
664 1 0.357068 0.785765 0.928645
663 1 0.285652 0.714302 0.857169
662 1 0.214261 0.785725 0.928594
522 1 0.50007 0.645302 0.500199
523 1 0.641647 0.641767 0.501523
661 1 0.142857 0.714296 0.857171
660 1 0.071445 0.785726 0.928595
659 1 6.82809e-05 0.714309 0.857201
658 1 0.928641 0.642864 0.928643
657 1 0.857279 0.571421 0.857274
656 1 0.785826 0.642887 0.928721
655 1 0.714462 0.571454 0.857407
654 1 0.642985 0.642974 0.928861
653 1 0.571528 0.571522 0.858061
652 1 0.499909 0.642959 0.928826
651 1 0.42847 0.571462 0.857351
650 1 0.35706 0.642877 0.928642
649 1 0.285662 0.571428 0.857173
648 1 0.214258 0.642861 0.928599
647 1 0.142855 0.571428 0.857174
646 1 0.071447 0.64286 0.928601
685 2 0.566838 0.63109 0.560892
684 1 0.785758 0.928635 0.928647
683 1 0.714381 0.857295 0.857317
682 1 0.642866 0.928643 0.928657
544 1 0.642014 0.500665 0.642889
681 1 0.571425 0.857282 0.857302
680 1 0.499979 0.928631 0.928645
547 1 0.000180259 0.571448 0.571442
548 1 0.0714935 0.642903 0.642907
549 1 0.142746 0.571479 0.571488
550 1 0.214257 0.64294 0.642955
551 1 0.285335 0.571579 0.571595
552 1 0.357709 0.64275 0.642725
553 1 0.42643 0.571036 0.570936
554 1 0.500636 0.642952 0.64211
555 1 0.857221 0.857211 0.857224
556 1 0.641709 0.641867 0.642028
557 1 0.719387 0.571749 0.571653
558 1 0.786028 0.64343 0.643375
559 1 0.858051 0.571574 0.571519
560 1 0.92886 0.642997 0.642981
561 1 0.000128972 0.714359 0.571425
562 1 0.0714779 0.785761 0.642872
563 1 0.142868 0.714327 0.571439
564 1 0.214254 0.785746 0.642882
565 1 0.285662 0.714329 0.571476
566 1 0.357022 0.785814 0.64294
567 1 0.428454 0.714563 0.571423
568 1 0.499579 0.786375 0.643459
569 1 0.571412 0.719543 0.571569
570 1 0.643552 0.786277 0.643575
571 1 0.714502 0.714614 0.571599
572 1 0.785969 0.785991 0.643
573 1 0.857386 0.714475 0.571444
574 1 0.928731 0.785832 0.642893
575 1 7.27349e-05 0.857202 0.571423
576 1 0.0714468 0.928602 0.642862
577 1 0.142846 0.857175 0.571428
578 1 0.214239 0.928603 0.642867
579 1 0.285624 0.857199 0.571434
580 1 0.357024 0.928674 0.642903
581 1 0.428407 0.857496 0.571487
582 1 0.499896 0.928893 0.643
583 1 0.571565 0.858231 0.57155
584 1 0.643016 0.928914 0.643015
585 1 0.714482 0.857447 0.57147
586 1 0.785855 0.928749 0.642904
587 1 0.857297 0.857296 0.571422
588 1 0.928657 0.92865 0.642868
679 1 0.428488 0.857247 0.857267
678 1 0.357105 0.928611 0.928623
677 1 0.285665 0.857165 0.857179
676 1 0.214269 0.928583 0.928588
675 1 0.142855 0.857156 0.857161
674 1 0.0714368 0.928582 0.928585
673 1 4.56871e-05 0.857177 0.857181
596 1 0.000122181 0.571427 0.714354
597 1 0.0714783 0.642868 0.785762
598 1 0.14288 0.571432 0.714327
599 1 0.214282 0.642866 0.785743
600 1 0.285736 0.571441 0.714291
601 1 0.357085 0.642879 0.785727
602 1 0.428699 0.571477 0.714254
603 1 0.499623 0.643421 0.786089
604 1 0.571735 0.571584 0.71955
605 1 0.643365 0.643374 0.786032
606 1 0.714584 0.57161 0.714572
607 1 0.785957 0.642988 0.785941
608 1 0.857389 0.571472 0.714427
609 1 0.928718 0.64289 0.785827
610 1 0.00013523 0.714354 0.714358
611 1 0.071473 0.785745 0.78575
612 1 0.142881 0.714315 0.714324
613 1 0.21427 0.785719 0.785731
614 1 0.285766 0.714245 0.714263
615 1 0.357076 0.785734 0.785752
616 1 0.428728 0.714269 0.714224
617 1 0.499935 0.785949 0.785933
618 1 0.571604 0.714667 0.714633
619 1 0.64301 0.785981 0.785977
620 1 0.714162 0.714193 0.71415
621 1 0.785832 0.785819 0.785831
622 1 0.857383 0.714501 0.714495
623 1 0.928699 0.785803 0.785812
624 1 7.55462e-05 0.857201 0.714315
625 1 0.0714449 0.928595 0.785731
626 1 0.142849 0.85717 0.714304
627 1 0.214248 0.928594 0.785738
628 1 0.285621 0.857179 0.714332
629 1 0.357045 0.928654 0.7858
630 1 0.428369 0.857378 0.714499
631 1 0.499954 0.928713 0.785839
632 1 0.571484 0.857485 0.714508
633 1 0.642907 0.928747 0.785861
634 1 0.714541 0.857429 0.71454
635 1 0.785835 0.928716 0.785836
636 1 0.857316 0.857302 0.714384
637 1 0.928647 0.928638 0.785761
672 1 0.928633 0.785749 0.928635
671 1 0.857289 0.714362 0.857292
670 1 0.785805 0.785797 0.928698
669 1 0.714498 0.714488 0.857381
668 1 0.64289 0.785816 0.92873
667 1 0.571466 0.714432 0.857392
666 1 0.499963 0.785798 0.928702
645 1 6.36893e-05 0.571423 0.857199
543 1 0.500253 0.500198 0.645307
514 1 0.353307 0.500085 0.500028
