ITEM: TIMESTEP
16
ITEM: NUMBER OF ATOMS
692
ITEM: BOX BOUNDS pp pp pp
0.0000000000000000e+00 2.2013900999999997e+01
0.0000000000000000e+00 2.2013900999999997e+01
0.0000000000000000e+00 2.2013900999999997e+01
ITEM: ATOMS id type xs ys zs
1 1 1.56388e-06 2.97708e-06 1.88584e-05
2 1 0.0713398 0.0713381 0.071347
689 3 0.423937 0.497087 0.464379
4 1 0.21422 0.0713111 0.0713226
175 1 0.857253 0.428559 0.428548
6 1 0.35712 0.0713252 0.0713269
174 1 0.714459 0.428229 0.428162
8 1 0.499988 0.0713158 0.07131
173 1 0.574314 0.423399 0.423987
10 1 0.642914 0.0712798 0.0712715
446 1 0.643917 0.499932 0.356153
12 1 0.785867 0.0712909 0.0712795
13 1 0.857215 9.66285e-06 1.47418e-05
14 1 0.928624 0.0713776 0.0713626
448 1 0.928612 0.500001 0.357126
16 1 0.071313 0.214229 0.0713235
447 1 0.786033 0.499994 0.356997
18 1 0.214136 0.214141 0.0711836
396 1 0.500125 0.499929 0.214119
20 1 0.357105 0.214158 0.0712306
395 1 0.357053 0.499967 0.214105
22 1 0.500008 0.214145 0.0711936
193 1 0.502949 0.349162 0.499131
24 1 0.643015 0.214091 0.0710461
345 1 0.214207 0.499994 0.0713031
26 1 0.785922 0.214177 0.0711834
344 1 0.0713526 0.499998 0.07136
28 1 0.928625 0.214253 0.07134
397 1 0.64323 0.499988 0.213831
30 1 0.0713371 0.357141 0.0713476
155 1 0.999921 0.142751 0.428564
32 1 0.214175 0.357117 0.0712656
156 1 0.142528 0.142522 0.428507
34 1 0.357105 0.35709 0.0712864
157 1 0.285413 0.142187 0.42842
36 1 0.500028 0.357091 0.0712541
158 1 0.428574 0.142365 0.428405
38 1 0.642977 0.357109 0.0711566
147 1 0.857363 0.428568 0.285596
40 1 0.785864 0.357144 0.0712667
146 1 0.714968 0.428351 0.285136
42 1 0.928608 0.357147 0.0713622
43 1 0.999973 0.428568 4.7036e-06
145 1 0.572343 0.427928 0.284482
144 1 0.428541 0.427884 0.283988
143 1 0.285101 0.428309 0.284896
142 1 0.142469 0.428533 0.285426
350 1 0.928596 0.499996 0.0713856
348 1 0.642927 0.499992 0.0713018
172 1 0.429614 0.422672 0.410609
51 1 0.0712868 0.0712894 0.21417
171 1 0.284809 0.426814 0.426629
53 1 0.214105 0.0711213 0.214066
170 1 0.142971 0.428603 0.428573
55 1 0.35708 0.0711681 0.214077
169 1 0.999998 0.428582 0.428569
57 1 0.500017 0.071136 0.214049
168 1 0.857419 0.285612 0.428554
59 1 0.643057 0.0709958 0.213979
167 1 0.71525 0.284969 0.428254
61 1 0.78598 0.0711564 0.214084
166 1 0.573521 0.282871 0.426743
63 1 0.928641 0.071339 0.214212
64 1 0.99995 0.142766 0.142743
65 1 0.0711241 0.214107 0.214064
66 1 0.142568 0.14257 0.142544
67 1 0.213358 0.213353 0.213278
68 1 0.285591 0.142568 0.142539
69 1 0.356925 0.213679 0.213661
70 1 0.428542 0.142608 0.142573
71 1 0.500165 0.213605 0.213578
72 1 0.571526 0.142497 0.142451
73 1 0.644023 0.212952 0.212859
74 1 0.71469 0.142399 0.142352
75 1 0.786423 0.213776 0.213715
76 1 0.857391 0.142669 0.142635
77 1 0.928712 0.214182 0.214147
78 1 0.999949 0.285693 0.142741
79 1 0.0712127 0.357111 0.214113
80 1 0.142586 0.285612 0.142556
81 1 0.213793 0.356932 0.213729
82 1 0.285475 0.28546 0.142313
83 1 0.356944 0.356755 0.213998
84 1 0.428553 0.285491 0.14245
85 1 0.500224 0.356669 0.213867
86 1 0.57168 0.285374 0.142145
87 1 0.643588 0.35668 0.213303
88 1 0.714716 0.285486 0.142255
89 1 0.78618 0.35704 0.213903
90 1 0.857366 0.285664 0.142646
91 1 0.928663 0.357144 0.214172
92 1 0.999955 0.428575 0.142766
93 1 0.14269 0.428564 0.14266
94 1 0.285598 0.428502 0.14258
95 1 0.428561 0.428474 0.142535
96 1 0.571556 0.428474 0.14253
97 1 0.714512 0.428557 0.142567
98 1 0.857273 0.428584 0.142728
165 1 0.42856 0.285082 0.427318
100 1 0.0712857 0.0712937 0.357099
164 1 0.283806 0.283499 0.427034
102 1 0.214079 0.0710883 0.357029
163 1 0.14227 0.285377 0.428462
104 1 0.357078 0.0710728 0.357029
162 1 0.999912 0.285673 0.42857
106 1 0.50004 0.0710203 0.357008
161 1 0.857344 0.142707 0.428572
108 1 0.643104 0.0709547 0.356986
160 1 0.714735 0.142369 0.428486
110 1 0.785963 0.0712085 0.357081
159 1 0.571783 0.142014 0.428366
112 1 0.928629 0.0713498 0.357125
113 1 0.999924 0.142735 0.285645
114 1 0.0711036 0.21409 0.357039
115 1 0.142449 0.142445 0.285453
116 1 0.213363 0.213299 0.356529
117 1 0.285382 0.142161 0.28529
118 1 0.356774 0.21304 0.35649
119 1 0.428543 0.142271 0.285328
120 1 0.500386 0.212819 0.356339
121 1 0.571786 0.141962 0.285163
122 1 0.6441 0.212773 0.35621
123 1 0.714894 0.142128 0.285279
124 1 0.786347 0.213848 0.35694
125 1 0.857427 0.142636 0.285597
126 1 0.928681 0.214184 0.357111
127 1 0.99991 0.285662 0.285623
128 1 0.0711571 0.357116 0.357073
129 1 0.142167 0.285347 0.285273
130 1 0.213112 0.356484 0.356448
131 1 0.283753 0.283621 0.283563
132 1 0.352859 0.352733 0.353806
133 1 0.428488 0.284438 0.284503
134 1 0.504478 0.351945 0.352981
135 1 0.57374 0.282975 0.282957
136 1 0.64548 0.354881 0.354883
137 1 0.715863 0.284475 0.284394
138 1 0.786446 0.356868 0.356838
139 1 0.857601 0.285549 0.285504
140 1 0.928674 0.357142 0.357115
141 1 0.99993 0.428584 0.285646
347 1 0.500023 0.499992 0.0713202
346 1 0.357123 0.499993 0.0713153
192 1 0.354356 0.34906 0.499975
176 1 0.0712957 0.0713077 0.499999
186 1 0.500243 0.213189 0.499937
187 1 0.643621 0.213386 0.499935
194 1 0.643477 0.356232 0.499685
516 1 0.645189 0.49973 0.498684
195 1 0.785971 0.357053 0.499949
31 1 0.142748 0.285689 1.77059e-06
44 1 0.142782 0.428571 2.24397e-06
17 1 0.142749 0.142753 2.8501e-06
640 1 0.357164 0.499998 0.928567
177 1 0.214111 0.0711353 0.500002
178 1 0.357115 0.0711666 0.500011
179 1 0.500032 0.0711551 0.500015
180 1 0.643058 0.0711197 0.500016
181 1 0.785906 0.0712994 0.500021
182 1 0.928609 0.0713758 0.500007
644 1 0.9286 0.499979 0.928642
643 1 0.785818 0.499986 0.928675
185 1 0.356982 0.213252 0.500012
246 1 0.999975 1.91352e-05 0.71432
256 1 0.714435 3.70196e-05 0.714399
188 1 0.786098 0.214044 0.500024
189 1 0.928616 0.214215 0.500016
642 1 0.642928 0.500002 0.928648
47 1 0.571442 0.42857 0.999929
639 1 0.214225 0.499992 0.928692
638 1 0.0713578 0.499991 0.92866
33 1 0.285676 0.285673 0.999978
27 1 0.85723 0.142815 0.999954
595 1 0.928621 0.499977 0.785833
692 3 0.393759 0.431575 0.500149
198 1 0.0712786 0.0713009 0.642899
691 3 0.464737 0.432795 0.501606
200 1 0.214091 0.0710877 0.642973
690 3 0.436228 0.497968 0.535375
202 1 0.357109 0.0711321 0.642966
343 1 0.85724 0.428542 0.857255
204 1 0.500049 0.0711667 0.642968
342 1 0.714446 0.428567 0.857308
206 1 0.643053 0.0711705 0.642983
341 1 0.571543 0.428567 0.857224
208 1 0.785893 0.0713471 0.642922
209 1 0.857249 2.68021e-05 0.57144
210 1 0.928599 0.0713983 0.642879
211 1 0.999902 0.14276 0.571446
212 1 0.071064 0.214071 0.642971
213 1 0.142525 0.142512 0.571494
214 1 0.213364 0.213238 0.643496
215 1 0.285433 0.142194 0.571589
216 1 0.356881 0.213144 0.643436
217 1 0.428601 0.142495 0.571574
218 1 0.500368 0.213279 0.643351
219 1 0.571743 0.142249 0.571568
220 1 0.643656 0.213517 0.64332
221 1 0.714642 0.142529 0.571527
222 1 0.786055 0.214109 0.642982
223 1 0.857289 0.142761 0.571466
224 1 0.928578 0.214225 0.642896
225 1 0.999873 0.285668 0.571441
226 1 0.0710759 0.357078 0.642962
227 1 0.142233 0.28533 0.571559
228 1 0.212812 0.356182 0.643904
229 1 0.283816 0.283423 0.572951
230 1 0.35251 0.352313 0.646497
231 1 0.428797 0.285584 0.572329
232 1 0.504487 0.353086 0.645739
233 1 0.573261 0.283864 0.572507
234 1 0.643889 0.35681 0.643119
235 1 0.714941 0.285357 0.571531
236 1 0.786 0.357122 0.642932
237 1 0.857307 0.285669 0.571456
238 1 0.928579 0.357135 0.642886
239 1 0.999987 0.428571 0.571438
240 1 0.142929 0.428585 0.571508
241 1 0.284065 0.425987 0.574294
242 1 0.427715 0.423886 0.589672
243 1 0.572085 0.427952 0.571771
244 1 0.71446 0.428588 0.571339
245 1 0.857255 0.428582 0.571454
340 1 0.428618 0.42855 0.85723
247 1 0.0712755 0.0712994 0.785832
339 1 0.285664 0.428525 0.857379
249 1 0.214118 0.0711168 0.785936
338 1 0.142697 0.428558 0.857367
251 1 0.357113 0.0712229 0.785898
337 1 0.999946 0.428553 0.857246
253 1 0.500031 0.071253 0.785893
336 1 0.928588 0.357131 0.928618
255 1 0.643012 0.071216 0.785925
335 1 0.857238 0.285683 0.857234
257 1 0.785878 0.07138 0.785836
258 1 0.857262 7.59634e-05 0.71434
259 1 0.928597 0.0714195 0.785773
260 1 0.999873 0.142757 0.714354
261 1 0.0710607 0.214082 0.785961
262 1 0.142434 0.14242 0.714556
263 1 0.213281 0.21324 0.786837
264 1 0.285421 0.142168 0.714709
265 1 0.357026 0.213785 0.786238
266 1 0.428594 0.142437 0.714587
267 1 0.500157 0.213851 0.786178
268 1 0.571724 0.142285 0.714652
269 1 0.643646 0.213528 0.786554
270 1 0.714651 0.142543 0.714523
271 1 0.786006 0.214146 0.785905
272 1 0.857278 0.142782 0.71436
273 1 0.928566 0.214236 0.785796
274 1 0.999818 0.28565 0.714381
275 1 0.0711759 0.357087 0.785917
276 1 0.142067 0.285243 0.71483
277 1 0.213791 0.356908 0.786351
278 1 0.283665 0.283455 0.716619
279 1 0.357036 0.35686 0.785837
280 1 0.428638 0.284798 0.715146
281 1 0.500201 0.356952 0.785678
282 1 0.573333 0.283829 0.716187
283 1 0.643297 0.357032 0.78609
284 1 0.714894 0.285446 0.714629
285 1 0.785941 0.357094 0.78588
286 1 0.857291 0.285665 0.714371
287 1 0.928582 0.357116 0.785804
288 1 0.999901 0.428557 0.714372
289 1 0.142401 0.428504 0.71467
290 1 0.285013 0.428334 0.715281
291 1 0.428425 0.428162 0.715675
292 1 0.572365 0.428324 0.714728
293 1 0.714746 0.428581 0.714534
294 1 0.8573 0.428554 0.714393
295 1 0.999991 2.94503e-05 0.857218
296 1 0.0713317 0.0713426 0.928663
334 1 0.785816 0.357132 0.928627
298 1 0.214227 0.0713155 0.928675
333 1 0.714513 0.285641 0.857366
300 1 0.357132 0.0713444 0.92865
332 1 0.642938 0.35714 0.928634
302 1 0.499997 0.0713559 0.928642
46 1 0.42858 0.428563 0.999922
304 1 0.642904 0.0713499 0.928656
305 1 0.714381 3.24959e-05 0.85729
306 1 0.785824 0.071383 0.928643
307 1 0.857254 9.43984e-05 0.857251
308 1 0.9286 0.0714298 0.928618
309 1 0.9999 0.142788 0.857244
310 1 0.0712992 0.214226 0.92868
311 1 0.142546 0.142548 0.85748
312 1 0.214145 0.21414 0.928821
313 1 0.285629 0.142591 0.857439
314 1 0.357131 0.214183 0.928703
315 1 0.428581 0.142687 0.857347
316 1 0.500016 0.214197 0.928672
317 1 0.571515 0.142646 0.857394
318 1 0.642978 0.214171 0.928727
319 1 0.714543 0.142638 0.857407
320 1 0.78584 0.21424 0.928622
321 1 0.857247 0.142814 0.857229
322 1 0.928584 0.214266 0.928608
323 1 0.999905 0.285683 0.85725
324 1 0.0713327 0.357135 0.92866
325 1 0.142574 0.2856 0.857475
326 1 0.214192 0.357119 0.928727
327 1 0.285525 0.285479 0.857669
328 1 0.357142 0.357115 0.928603
329 1 0.428599 0.285596 0.857369
330 1 0.500032 0.357133 0.928547
331 1 0.571613 0.285555 0.857535
45 1 0.285701 0.428563 0.999971
25 1 0.7144 0.142746 0.999927
41 1 0.857223 0.285704 0.99996
39 1 0.714402 0.285688 0.999904
546 1 0.928647 0.499998 0.642904
589 1 0.0712359 0.499994 0.78591
37 1 0.571458 0.285678 0.999908
35 1 0.428571 0.285688 0.99994
15 1 0.999966 0.142824 0.999994
23 1 0.571443 0.142749 0.999946
19 1 0.285683 0.14275 0.999989
21 1 0.428562 0.142769 0.99997
196 1 0.92861 0.357155 0.500004
29 1 0.999964 0.285705 0.999994
48 1 0.714364 0.428576 0.999968
49 1 0.857207 0.428569 0.999996
183 1 0.071155 0.214111 0.500002
184 1 0.213641 0.2135 0.500003
190 1 0.0713147 0.357128 0.500009
191 1 0.214013 0.356603 0.500029
511 1 0.857333 0.857324 0.428536
510 1 0.714578 0.857534 0.428496
539 1 0.928629 0.928644 0.499991
538 1 0.785883 0.928705 0.500004
393 1 0.0712474 0.500007 0.214129
349 1 0.785816 0.500001 0.0713468
517 1 0.786108 0.500048 0.499949
351 1 0.99998 0.571417 1.97144e-05
352 1 0.07134 0.642875 0.0713381
153 1 0.714444 0.999931 0.428555
354 1 0.214191 0.642912 0.0712513
154 1 0.857255 0.999991 0.428565
356 1 0.357123 0.64291 0.0712591
152 1 0.571487 0.999853 0.428556
358 1 0.500017 0.642896 0.0712737
518 1 0.928633 0.500006 0.5
360 1 0.642944 0.642895 0.0712605
361 1 0.714368 0.571422 2.84369e-05
362 1 0.785834 0.642864 0.0713438
363 1 0.857213 0.571415 3.35088e-05
364 1 0.9286 0.642854 0.0713925
365 1 0.99999 0.714304 3.61232e-05
366 1 0.0713478 0.785796 0.0713327
151 1 0.428564 0.999854 0.428561
368 1 0.214212 0.785833 0.0712882
150 1 0.285651 0.999864 0.428554
370 1 0.357119 0.785824 0.071308
371 1 0.428569 0.714349 -1.37491e-06
372 1 0.500003 0.785825 0.0713102
373 1 0.571456 0.714357 2.18947e-05
374 1 0.642922 0.785844 0.0712894
375 1 0.714387 0.714354 6.83384e-05
376 1 0.785848 0.785818 0.0713228
377 1 0.857244 0.714312 7.47795e-05
378 1 0.928616 0.785757 0.0713952
379 1 8.06383e-06 0.8572 4.08482e-05
380 1 0.0713901 0.928601 0.0713817
149 1 0.142741 0.999926 0.428555
382 1 0.214247 0.9286 0.0713633
383 1 0.285689 0.857212 3.75968e-06
384 1 0.357124 0.928599 0.0713649
385 1 0.428556 0.857213 1.0132e-05
386 1 0.499989 0.9286 0.0713632
387 1 0.571432 0.857228 2.69979e-05
388 1 0.642881 0.928607 0.0713611
389 1 0.714349 0.85725 6.42077e-05
390 1 0.785793 0.928613 0.0713787
391 1 0.857249 0.857238 8.52658e-05
392 1 0.928621 0.928619 0.0714042
509 1 0.571569 0.85747 0.428544
394 1 0.213956 0.500045 0.213871
508 1 0.428625 0.857262 0.428578
507 1 0.285651 0.857379 0.428544
11 1 0.714333 0.999986 3.62108e-06
398 1 0.785981 0.499999 0.214066
399 1 0.928609 0.5 0.214197
400 1 0.99994 0.571425 0.142756
401 1 0.0711394 0.642953 0.214013
402 1 0.142677 0.571467 0.142615
403 1 0.213803 0.643253 0.213561
404 1 0.285596 0.571485 0.142498
405 1 0.356994 0.643248 0.213584
406 1 0.42857 0.571458 0.142618
407 1 0.500211 0.643222 0.213567
408 1 0.571552 0.571465 0.142545
409 1 0.643445 0.643298 0.213426
410 1 0.714481 0.571452 0.142606
411 1 0.786112 0.642961 0.213928
412 1 0.857253 0.571422 0.142743
413 1 0.928613 0.642869 0.214161
414 1 0.999924 0.714338 0.142726
415 1 0.0711282 0.786011 0.213983
416 1 0.142629 0.714472 0.142507
417 1 0.214003 0.786152 0.213854
418 1 0.285582 0.71451 0.14247
419 1 0.357064 0.786074 0.213933
420 1 0.428571 0.714476 0.142542
421 1 0.500067 0.786089 0.213905
422 1 0.571558 0.71451 0.142442
423 1 0.643186 0.786249 0.213735
424 1 0.714563 0.7145 0.142413
425 1 0.786296 0.786246 0.213719
426 1 0.857303 0.714337 0.142696
427 1 0.928652 0.785838 0.214145
428 1 0.999951 0.857248 0.142747
429 1 0.0713376 0.928648 0.214193
430 1 0.142741 0.857293 0.142688
431 1 0.214199 0.928653 0.214152
432 1 0.285657 0.85729 0.142687
433 1 0.357113 0.928634 0.214156
434 1 0.428557 0.857274 0.142701
435 1 0.499998 0.928633 0.214144
436 1 0.571462 0.857301 0.142668
437 1 0.642937 0.928657 0.214116
438 1 0.714419 0.857332 0.142641
439 1 0.78587 0.928675 0.21415
440 1 0.857311 0.857298 0.142696
441 1 0.928622 0.928625 0.214224
442 1 0.0712447 0.500057 0.357079
443 1 0.213564 0.500208 0.356612
444 1 0.355269 0.501361 0.355694
445 1 0.502597 0.501651 0.355042
533 1 0.0713558 0.928629 0.499993
506 1 0.142709 0.857354 0.428539
505 1 0.999973 0.857258 0.428552
449 1 0.999881 0.571443 0.285614
450 1 0.0709691 0.643081 0.356942
451 1 0.142326 0.571631 0.285256
452 1 0.212235 0.644863 0.355273
453 1 0.284977 0.57208 0.284454
454 1 0.355513 0.645139 0.354953
455 1 0.428551 0.571938 0.28502
456 1 0.501986 0.645384 0.354583
457 1 0.572456 0.572152 0.284572
458 1 0.645855 0.645597 0.354442
459 1 0.714997 0.571617 0.285138
460 1 0.786479 0.643183 0.356799
461 1 0.857348 0.571437 0.285594
462 1 0.928652 0.642892 0.357085
463 1 0.999807 0.714425 0.285562
464 1 0.0711779 0.785983 0.357045
465 1 0.141858 0.715217 0.284804
466 1 0.213902 0.786368 0.356853
467 1 0.285013 0.715358 0.284705
468 1 0.357034 0.786325 0.35686
469 1 0.428607 0.715103 0.284971
470 1 0.500232 0.786378 0.356824
471 1 0.572359 0.715598 0.284479
472 1 0.643432 0.786597 0.356715
473 1 0.716032 0.7159 0.284069
474 1 0.786239 0.786185 0.356906
475 1 0.857538 0.714473 0.285491
476 1 0.928674 0.785859 0.357083
477 1 0.999944 0.857273 0.285643
478 1 0.07134 0.92864 0.357113
479 1 0.142652 0.857451 0.285546
480 1 0.21419 0.928658 0.357091
481 1 0.285597 0.857475 0.28552
482 1 0.357121 0.928624 0.357095
483 1 0.428569 0.857414 0.285541
484 1 0.500011 0.928634 0.357086
485 1 0.571555 0.857533 0.28548
486 1 0.64297 0.928695 0.357067
487 1 0.714577 0.857578 0.285455
488 1 0.78589 0.928692 0.357085
489 1 0.857345 0.857332 0.285603
490 1 0.928626 0.928632 0.357115
491 1 0.999983 0.571462 0.428546
492 1 0.142798 0.571733 0.428456
493 1 0.282574 0.575696 0.424075
494 1 0.429113 0.579698 0.424327
495 1 0.576458 0.577601 0.423099
496 1 0.714784 0.571795 0.428198
497 1 0.857335 0.571473 0.428535
498 1 0.999928 0.714406 0.428537
499 1 0.142381 0.714796 0.428418
500 1 0.285204 0.715373 0.428221
501 1 0.428808 0.715189 0.428276
502 1 0.57232 0.715589 0.428148
503 1 0.715356 0.715269 0.428144
504 1 0.857509 0.714495 0.428495
148 1 0.999971 0.999985 0.428562
532 1 0.928685 0.785858 0.499991
526 1 0.0712621 0.785923 0.499986
525 1 0.928705 0.642916 0.499994
50 1 0.99998 0.999983 0.142799
52 1 0.142769 0.999935 0.142749
54 1 0.285673 0.999931 0.142736
56 1 0.428552 0.999935 0.142736
58 1 0.571441 0.999909 0.142712
60 1 0.714393 0.999893 0.142705
62 1 0.857249 0.99996 0.142769
99 1 0.99997 0.999979 0.285676
101 1 0.142732 0.999924 0.285634
103 1 0.285643 0.99988 0.285608
105 1 0.428552 0.999877 0.285602
107 1 0.571479 0.999842 0.285581
109 1 0.714453 0.999869 0.285596
111 1 0.857268 0.999963 0.285661
524 1 0.786446 0.643249 0.499959
515 1 0.520309 0.505579 0.491986
687 2 0.428125 0.529588 0.499228
519 1 0.0712036 0.643024 0.499998
523 1 0.644962 0.644596 0.499369
3 1 0.142819 0.999969 4.86583e-06
381 1 0.142816 0.857209 9.77274e-06
521 1 0.355777 0.643577 0.499218
522 1 0.501357 0.642905 0.499701
534 1 0.214206 0.928625 0.499998
367 1 0.142785 0.714342 1.46815e-05
353 1 0.142786 0.571428 7.93754e-06
301 1 0.42856 0.999977 0.857252
513 1 0.212885 0.500405 0.50016
514 1 0.338718 0.505219 0.501443
299 1 0.285684 0.999947 0.857259
592 1 0.500251 0.500115 0.78568
688 2 0.498898 0.536627 0.56858
297 1 0.14278 0.999942 0.857256
591 1 0.357168 0.500037 0.785651
254 1 0.571484 0.999959 0.714407
545 1 0.786136 0.500097 0.64304
544 1 0.643977 0.500232 0.643013
252 1 0.428569 0.999938 0.71439
250 1 0.28566 0.999898 0.714388
248 1 0.142741 0.999934 0.714363
369 1 0.285681 0.714355 0.999997
527 1 0.214042 0.786147 0.500001
528 1 0.357154 0.785957 0.500016
529 1 0.500344 0.785931 0.500061
207 1 0.714435 0.999989 0.571468
205 1 0.571491 0.999908 0.571472
203 1 0.428574 0.999886 0.571459
201 1 0.285659 0.999873 0.571451
593 1 0.643281 0.500145 0.786024
199 1 0.142745 0.99993 0.57144
197 1 0.999972 0.999999 0.571429
671 1 0.857411 0.714433 0.857453
670 1 0.785919 0.785899 0.928864
669 1 0.71468 0.714637 0.857641
540 1 0.0711966 0.500054 0.642955
541 1 0.213245 0.50028 0.643684
542 1 0.354248 0.50244 0.644527
543 1 0.502267 0.500555 0.646941
686 1 0.928667 0.92869 0.928698
685 1 0.85741 0.857428 0.857442
684 1 0.785818 0.928696 0.928718
547 1 0.999991 0.571469 0.571452
548 1 0.0709078 0.643131 0.643092
549 1 0.142734 0.571785 0.571625
550 1 0.211783 0.645335 0.645149
551 1 0.28174 0.576671 0.576508
552 1 0.354968 0.646026 0.64574
553 1 0.425637 0.580453 0.574951
554 1 0.502037 0.644278 0.643872
555 1 0.577589 0.574745 0.572792
556 1 0.64477 0.644446 0.644063
557 1 0.715362 0.571966 0.571509
558 1 0.78653 0.643355 0.643305
559 1 0.85744 0.571536 0.571519
560 1 0.928702 0.642949 0.642954
561 1 0.999931 0.714422 0.571446
562 1 0.0711734 0.786027 0.642944
563 1 0.142351 0.714846 0.571581
564 1 0.213901 0.786446 0.643165
565 1 0.285221 0.715445 0.571745
566 1 0.357135 0.786344 0.643127
567 1 0.428948 0.715019 0.571576
568 1 0.500365 0.786236 0.64316
569 1 0.57248 0.715244 0.571618
570 1 0.643509 0.786561 0.643344
571 1 0.715261 0.715146 0.571771
572 1 0.786254 0.786231 0.643211
573 1 0.857516 0.714543 0.571535
574 1 0.928707 0.785911 0.64293
575 1 0.999982 0.857274 0.571424
576 1 0.0713517 0.928662 0.642875
577 1 0.142713 0.857369 0.57145
578 1 0.214202 0.92867 0.642906
579 1 0.285667 0.857388 0.571459
580 1 0.357139 0.928639 0.642911
581 1 0.428662 0.857242 0.571466
582 1 0.500036 0.928663 0.642937
583 1 0.571621 0.85743 0.571536
584 1 0.643 0.928766 0.642973
585 1 0.714612 0.85754 0.571555
586 1 0.785912 0.92877 0.642941
587 1 0.857347 0.857351 0.571462
588 1 0.928648 0.928683 0.642873
683 1 0.714489 0.85745 0.857474
590 1 0.213955 0.500063 0.786198
682 1 0.642885 0.928658 0.928688
681 1 0.571485 0.85735 0.857376
680 1 0.499987 0.928624 0.928653
679 1 0.42856 0.85729 0.857312
678 1 0.357124 0.928609 0.928641
596 1 0.999893 0.571448 0.714415
597 1 0.0711282 0.642968 0.786047
598 1 0.142226 0.571684 0.714852
599 1 0.21376 0.643345 0.786568
600 1 0.284733 0.572412 0.715849
601 1 0.357125 0.643277 0.786408
602 1 0.428786 0.572153 0.714564
603 1 0.500362 0.643248 0.786171
604 1 0.572794 0.572443 0.714985
605 1 0.643546 0.643433 0.786532
606 1 0.715092 0.571828 0.71483
607 1 0.786209 0.64317 0.786193
608 1 0.857432 0.571515 0.714504
609 1 0.928679 0.642913 0.785912
610 1 0.999822 0.71447 0.71447
611 1 0.0711031 0.786108 0.78611
612 1 0.141565 0.715552 0.715513
613 1 0.214026 0.786197 0.786181
614 1 0.284801 0.715726 0.715609
615 1 0.357133 0.786064 0.78605
616 1 0.428902 0.715004 0.714855
617 1 0.500144 0.786094 0.78609
618 1 0.572245 0.715238 0.715086
619 1 0.643315 0.786284 0.786288
620 1 0.715078 0.714991 0.714969
621 1 0.786296 0.786279 0.786297
622 1 0.857561 0.71462 0.714632
623 1 0.928756 0.785939 0.785949
624 1 0.999986 0.857328 0.714358
625 1 0.0713627 0.928687 0.785816
626 1 0.142665 0.857503 0.714462
627 1 0.214217 0.928665 0.785848
628 1 0.285626 0.857489 0.714479
629 1 0.357122 0.928653 0.785843
630 1 0.428614 0.857409 0.714467
631 1 0.50001 0.928684 0.785865
632 1 0.571618 0.85754 0.714571
633 1 0.64297 0.928763 0.785918
634 1 0.714682 0.857617 0.714652
635 1 0.785932 0.928846 0.785921
636 1 0.857427 0.857447 0.714458
637 1 0.928678 0.928724 0.785811
677 1 0.285672 0.857293 0.857315
676 1 0.214255 0.928605 0.928643
594 1 0.785988 0.500019 0.785954
675 1 0.14277 0.857312 0.857332
674 1 0.0714131 0.928618 0.92865
673 1 8.93376e-06 0.857317 0.857329
672 1 0.928674 0.785796 0.928733
645 1 0.999959 0.571414 0.857283
646 1 0.071353 0.642871 0.928703
647 1 0.142686 0.571466 0.857425
648 1 0.214206 0.642911 0.928764
649 1 0.285655 0.571486 0.857506
650 1 0.357153 0.642903 0.928698
651 1 0.428654 0.571485 0.857233
652 1 0.500038 0.642905 0.928684
653 1 0.571617 0.571542 0.857363
654 1 0.642977 0.642936 0.9288
655 1 0.714546 0.571518 0.857455
656 1 0.785878 0.642905 0.928775
657 1 0.857295 0.571431 0.857328
658 1 0.928633 0.642855 0.928691
659 1 0.999973 0.714355 0.857345
660 1 0.0713688 0.785809 0.928723
661 1 0.142634 0.714499 0.85756
662 1 0.214227 0.785834 0.928722
663 1 0.285623 0.714508 0.857532
664 1 0.357125 0.785823 0.928695
665 1 0.428625 0.714473 0.857421
666 1 0.500009 0.785837 0.928719
667 1 0.571616 0.714563 0.85755
668 1 0.642957 0.785888 0.928801
303 1 0.571443 0.999991 0.857272
355 1 0.285694 0.571425 0.999983
357 1 0.428581 0.571415 0.999954
641 1 0.500042 0.500009 0.928522
537 1 0.642983 0.928706 0.500022
536 1 0.50003 0.928586 0.500026
359 1 0.571453 0.571421 0.999981
535 1 0.357145 0.928573 0.500009
5 1 0.285693 0.999969 0.999999
7 1 0.428557 0.999976 0.999996
531 1 0.786168 0.786125 0.500018
530 1 0.64344 0.786457 0.500013
9 1 0.571426 0.999978 0.999996
512 1 0.0712988 0.500058 0.500009
520 1 0.213389 0.64386 0.499996
