ITEM: TIMESTEP
17
ITEM: NUMBER OF ATOMS
692
ITEM: BOX BOUNDS pp pp pp
0.0000000000000000e+00 2.2013900999999997e+01
0.0000000000000000e+00 2.2013900999999997e+01
0.0000000000000000e+00 2.2013900999999997e+01
ITEM: ATOMS id type xs ys zs
398 1 0.786056 0.49997 0.214005
2 1 0.0713358 0.0713172 0.0713905
687 3 0.427112 0.49768 0.468712
4 1 0.214191 0.071276 0.0713523
175 1 0.857263 0.428604 0.42847
6 1 0.357097 0.071285 0.071322
174 1 0.714561 0.428342 0.427878
8 1 0.499983 0.0712746 0.0712789
173 1 0.575591 0.419538 0.423442
10 1 0.642932 0.0712405 0.0712262
172 1 0.429556 0.423995 0.410841
12 1 0.785905 0.0712608 0.0712361
13 1 0.857246 2.53898e-05 1.72245e-05
14 1 0.928668 0.0713553 0.0713424
15 1 0.999946 0.142793 4.27253e-05
16 1 0.0712937 0.214202 0.0713594
17 1 0.142679 0.142675 0.000144762
18 1 0.214093 0.214095 0.0712642
19 1 0.28565 0.142673 6.39237e-05
20 1 0.357071 0.214087 0.0712339
396 1 0.50023 0.499985 0.213735
22 1 0.500015 0.214064 0.0711546
196 1 0.928695 0.357149 0.499971
24 1 0.643062 0.214004 0.0709912
399 1 0.92865 0.499994 0.21417
26 1 0.786008 0.214098 0.0711052
349 1 0.785892 0.499994 0.0713314
28 1 0.928671 0.214225 0.0713205
29 1 0.99995 0.285691 3.37565e-05
30 1 0.0713152 0.357129 0.0713693
31 1 0.142676 0.285652 0.000101184
32 1 0.214121 0.357087 0.0713074
33 1 0.285607 0.285598 9.34063e-05
34 1 0.357059 0.357033 0.0713048
347 1 0.500029 0.49999 0.0713028
36 1 0.500044 0.357025 0.0712271
346 1 0.357079 0.499988 0.0713602
38 1 0.643057 0.357047 0.0711198
344 1 0.0713346 0.499997 0.0713758
40 1 0.785944 0.357118 0.0712396
194 1 0.645279 0.354308 0.498436
42 1 0.928647 0.357139 0.0713541
43 1 0.999969 0.428566 3.65189e-05
44 1 0.142722 0.428564 6.94224e-05
45 1 0.285633 0.428542 6.68918e-05
46 1 0.42855 0.428532 1.07359e-05
193 1 0.502668 0.348243 0.499189
48 1 0.714445 0.428565 6.90512e-06
49 1 0.857265 0.428563 1.47766e-05
171 1 0.284837 0.426575 0.426628
51 1 0.071297 0.071279 0.214151
170 1 0.142945 0.428588 0.428564
53 1 0.214074 0.0711264 0.214045
169 1 6.28748e-06 0.428591 0.428547
55 1 0.357041 0.071122 0.21403
168 1 0.857623 0.285518 0.428446
57 1 0.500016 0.0710745 0.213985
167 1 0.715835 0.284377 0.427757
59 1 0.64309 0.0709421 0.213905
166 1 0.573447 0.28242 0.426635
61 1 0.786056 0.0710956 0.214003
165 1 0.428187 0.285068 0.427246
63 1 0.928707 0.071313 0.214169
64 1 0.999989 0.142738 0.142725
65 1 0.0711588 0.214082 0.214046
66 1 0.142577 0.14257 0.142585
67 1 0.213473 0.213462 0.213422
68 1 0.285536 0.142524 0.142534
69 1 0.356882 0.213589 0.2136
70 1 0.428521 0.142531 0.142522
71 1 0.500185 0.213474 0.213471
72 1 0.571555 0.142409 0.142377
73 1 0.644045 0.212878 0.212797
74 1 0.714736 0.142316 0.142267
75 1 0.786645 0.213568 0.213484
76 1 0.857498 0.142583 0.142539
77 1 0.928817 0.214131 0.214082
78 1 0.999976 0.285676 0.142723
79 1 0.0712084 0.357095 0.214095
80 1 0.142564 0.285572 0.142571
81 1 0.213773 0.356906 0.213727
82 1 0.285437 0.285414 0.142331
83 1 0.356953 0.356726 0.213938
84 1 0.428538 0.285391 0.142378
85 1 0.500297 0.356555 0.213651
86 1 0.571748 0.28526 0.142052
87 1 0.643742 0.356558 0.213107
88 1 0.71485 0.285363 0.142121
89 1 0.786305 0.356981 0.213797
90 1 0.85747 0.285625 0.142569
91 1 0.928717 0.357137 0.214136
92 1 0.99997 0.428572 0.142754
93 1 0.142656 0.428549 0.142661
94 1 0.285553 0.428476 0.142586
95 1 0.428533 0.428415 0.142469
96 1 0.571664 0.428419 0.142452
97 1 0.71459 0.428536 0.142563
98 1 0.857341 0.428573 0.142695
164 1 0.28396 0.283597 0.427139
100 1 0.0712819 0.0712723 0.357064
163 1 0.142239 0.285318 0.428426
102 1 0.214042 0.0710766 0.35699
162 1 0.999956 0.285645 0.428537
104 1 0.357042 0.0710317 0.356984
161 1 0.857454 0.142613 0.42853
106 1 0.500037 0.0709569 0.356958
160 1 0.714849 0.142168 0.428389
108 1 0.643141 0.0708875 0.35693
159 1 0.571793 0.14187 0.4283
110 1 0.786049 0.0711396 0.357028
158 1 0.42855 0.142304 0.428349
112 1 0.928691 0.0713185 0.357098
113 1 0.999972 0.1427 0.285609
114 1 0.0711226 0.214055 0.357004
115 1 0.142456 0.142441 0.285425
116 1 0.21341 0.213322 0.356556
117 1 0.285347 0.142131 0.285264
118 1 0.356748 0.212949 0.356416
119 1 0.428525 0.142163 0.285245
120 1 0.500349 0.212676 0.35624
121 1 0.571828 0.141847 0.285071
122 1 0.644178 0.212557 0.356034
123 1 0.715 0.141989 0.285148
124 1 0.786589 0.213616 0.356719
125 1 0.857557 0.142535 0.285512
126 1 0.928785 0.214125 0.357054
127 1 0.999955 0.28564 0.285587
128 1 0.0711608 0.357101 0.357048
129 1 0.142164 0.285312 0.285255
130 1 0.213104 0.356433 0.356386
131 1 0.283928 0.283771 0.283735
132 1 0.353342 0.353077 0.353988
133 1 0.428407 0.284275 0.284307
134 1 0.503876 0.351649 0.352644
135 1 0.573646 0.282909 0.282882
136 1 0.646404 0.353892 0.353704
137 1 0.716494 0.283868 0.283702
138 1 0.786612 0.356813 0.356646
139 1 0.857752 0.285473 0.285385
140 1 0.92873 0.35714 0.357067
141 1 0.999939 0.428585 0.285623
142 1 0.142449 0.428517 0.285404
143 1 0.285112 0.428307 0.284855
144 1 0.428429 0.427832 0.283665
145 1 0.572437 0.428029 0.284686
146 1 0.714829 0.428567 0.285207
147 1 0.857349 0.428587 0.285571
157 1 0.285367 0.142115 0.428376
156 1 0.142483 0.14246 0.428448
155 1 0.99995 0.142709 0.428537
345 1 0.214155 0.49999 0.0713391
348 1 0.643003 0.499989 0.0712859
350 1 0.928637 0.499991 0.0713801
195 1 0.78635 0.356916 0.499791
395 1 0.357043 0.499977 0.214107
176 1 0.071278 0.0712774 0.499979
177 1 0.214071 0.0710964 0.499985
192 1 0.353926 0.349741 0.499905
183 1 0.0711324 0.214057 0.499982
184 1 0.213515 0.213355 0.499912
185 1 0.356882 0.213055 0.499908
186 1 0.500223 0.21315 0.499874
187 1 0.643744 0.213008 0.499837
189 1 0.928704 0.214152 0.499994
191 1 0.213673 0.356501 0.499977
188 1 0.786315 0.213832 0.499957
644 1 0.92863 0.499984 0.928686
643 1 0.785914 0.500004 0.928741
178 1 0.357093 0.0711308 0.500002
179 1 0.500025 0.0711339 0.500013
180 1 0.643078 0.0710365 0.500015
181 1 0.785979 0.0712255 0.500017
25 1 0.714431 0.142688 0.99991
23 1 0.571455 0.14269 0.999932
327 1 0.285195 0.285133 0.858109
639 1 0.214116 0.499991 0.92883
595 1 0.928645 0.499997 0.785884
326 1 0.21406 0.357058 0.928897
638 1 0.0713001 0.499995 0.928734
325 1 0.142315 0.285462 0.857724
589 1 0.0711327 0.499992 0.78599
324 1 0.0712566 0.357121 0.928751
323 1 0.999844 0.28565 0.857333
322 1 0.92859 0.214233 0.928662
330 1 0.500039 0.357056 0.928677
329 1 0.428535 0.285418 0.857531
328 1 0.357045 0.357013 0.928811
691 3 0.495199 0.45929 0.566044
198 1 0.0712323 0.0712452 0.6429
689 3 0.468653 0.434934 0.502661
200 1 0.214032 0.0710184 0.642999
688 3 0.432957 0.495913 0.539878
202 1 0.357092 0.0711796 0.642991
343 1 0.857322 0.428549 0.857322
204 1 0.500035 0.071222 0.642976
342 1 0.714633 0.428562 0.857474
206 1 0.643053 0.0711217 0.642998
341 1 0.571659 0.42849 0.857487
208 1 0.785948 0.0712765 0.642955
209 1 0.857299 2.39639e-05 0.571459
210 1 0.928623 0.0713591 0.642894
211 1 0.999909 0.142707 0.571441
212 1 0.070986 0.213973 0.643005
213 1 0.14245 0.142417 0.571484
214 1 0.213137 0.212996 0.643558
215 1 0.285371 0.142085 0.571628
216 1 0.356709 0.213496 0.643514
217 1 0.428562 0.142491 0.571599
218 1 0.500236 0.213687 0.643244
219 1 0.571708 0.142256 0.571565
220 1 0.643755 0.21322 0.64334
221 1 0.714735 0.142355 0.571529
222 1 0.786256 0.213897 0.643046
223 1 0.85738 0.142668 0.571473
224 1 0.928643 0.214152 0.642918
225 1 0.999901 0.285628 0.571447
226 1 0.0710542 0.357022 0.643017
227 1 0.142106 0.285224 0.57162
228 1 0.212892 0.35594 0.644142
229 1 0.28335 0.283044 0.572271
230 1 0.349817 0.349754 0.649006
231 1 0.428292 0.285186 0.572438
232 1 0.504466 0.354142 0.645765
233 1 0.573474 0.284052 0.572627
234 1 0.645381 0.355257 0.644527
235 1 0.715479 0.284892 0.571558
236 1 0.786422 0.356955 0.643051
237 1 0.857515 0.285567 0.571451
238 1 0.928672 0.357117 0.642908
239 1 0.999992 0.428575 0.571449
240 1 0.142784 0.42855 0.571606
241 1 0.28346 0.426223 0.574254
242 1 0.415401 0.41445 0.593948
243 1 0.581306 0.426057 0.57095
244 1 0.71539 0.428391 0.57146
245 1 0.857361 0.428619 0.571441
340 1 0.428496 0.428467 0.857598
247 1 0.0711733 0.0711897 0.785879
339 1 0.285429 0.428457 0.857641
249 1 0.214006 0.070905 0.786053
338 1 0.142537 0.428537 0.857515
251 1 0.357098 0.0711527 0.785945
337 1 0.999914 0.42855 0.85731
253 1 0.500023 0.0712383 0.7859
336 1 0.928609 0.357121 0.928666
255 1 0.643008 0.071192 0.785945
335 1 0.857326 0.285631 0.857322
257 1 0.785914 0.0713249 0.785888
258 1 0.8573 7.9134e-05 0.714383
259 1 0.928599 0.0713821 0.78581
260 1 0.99983 0.142682 0.714383
261 1 0.070833 0.213926 0.786105
262 1 0.142249 0.142211 0.714638
263 1 0.212078 0.212008 0.788017
264 1 0.285273 0.14193 0.714838
265 1 0.356897 0.213427 0.786525
266 1 0.428541 0.142457 0.714579
267 1 0.500138 0.213744 0.786226
268 1 0.57167 0.142263 0.714626
269 1 0.643548 0.213479 0.786508
270 1 0.714706 0.142388 0.714589
271 1 0.786171 0.213953 0.786075
272 1 0.857345 0.14269 0.714413
273 1 0.928589 0.214168 0.785864
274 1 0.99979 0.285597 0.714428
275 1 0.0710497 0.357032 0.786018
276 1 0.141761 0.285016 0.715018
277 1 0.213365 0.356701 0.786716
278 1 0.281707 0.281553 0.718488
279 1 0.356307 0.356201 0.786607
280 1 0.428623 0.284808 0.715182
281 1 0.500108 0.356781 0.785964
282 1 0.573155 0.283776 0.716079
283 1 0.643794 0.356597 0.786711
284 1 0.715449 0.284903 0.715086
285 1 0.78618 0.357034 0.786043
286 1 0.857485 0.285561 0.714467
287 1 0.928623 0.357104 0.785864
288 1 0.999882 0.428552 0.714409
289 1 0.142251 0.42843 0.714778
290 1 0.284607 0.428326 0.715563
291 1 0.427015 0.427078 0.717177
292 1 0.573701 0.426854 0.715756
293 1 0.715194 0.428592 0.714737
294 1 0.857408 0.428587 0.714439
295 1 0.999968 1.12138e-05 0.857265
296 1 0.0712081 0.0712116 0.928811
334 1 0.785912 0.357104 0.928701
298 1 0.214186 0.0711978 0.928795
333 1 0.714703 0.285444 0.857596
300 1 0.357131 0.0712788 0.928704
332 1 0.643035 0.357065 0.928785
302 1 0.500004 0.0713181 0.928659
331 1 0.571638 0.285409 0.85765
304 1 0.642916 0.0713207 0.928663
305 1 0.714404 4.5999e-05 0.857321
306 1 0.785845 0.0713603 0.928663
307 1 0.857286 0.000109709 0.857298
308 1 0.928596 0.0714021 0.928664
309 1 0.999794 0.142707 0.857332
310 1 0.0711792 0.214169 0.928817
311 1 0.142031 0.142017 0.858003
312 1 0.213984 0.213966 0.929088
313 1 0.285531 0.142349 0.857642
314 1 0.357089 0.214057 0.928824
315 1 0.42859 0.14258 0.85741
316 1 0.500019 0.214114 0.928709
317 1 0.571525 0.142584 0.857409
318 1 0.643006 0.214085 0.928753
319 1 0.71456 0.142565 0.857444
320 1 0.785915 0.214155 0.92869
321 1 0.857291 0.142744 0.8573
256 1 0.714463 3.46587e-05 0.714446
246 1 0.999962 1.02861e-05 0.714338
690 3 0.396793 0.431808 0.500645
21 1 0.428556 0.142706 0.999984
27 1 0.857274 0.142771 0.999953
35 1 0.428555 0.285613 0.999981
37 1 0.571486 0.285601 0.99992
39 1 0.714475 0.28562 0.999921
41 1 0.85728 0.285678 0.99997
47 1 0.571489 0.428542 0.999983
182 1 0.928653 0.0713409 0.500001
190 1 0.0712745 0.357104 0.500006
539 1 0.928676 0.928684 0.499995
511 1 0.857475 0.857455 0.428516
518 1 0.92862 0.500031 0.49998
393 1 0.071239 0.500005 0.214111
510 1 0.714726 0.857739 0.428404
448 1 0.928607 0.500008 0.357095
509 1 0.571641 0.857549 0.428478
351 1 0.999984 0.571422 4.92638e-05
352 1 0.071332 0.642888 0.0713547
353 1 0.14273 0.57144 7.39027e-05
354 1 0.214136 0.642939 0.0712867
355 1 0.285624 0.571446 8.98706e-05
356 1 0.357072 0.642955 0.0712895
357 1 0.428547 0.571457 4.92472e-05
358 1 0.500012 0.642958 0.0712425
359 1 0.571501 0.57147 2.83101e-05
360 1 0.643025 0.642971 0.07117
361 1 0.714458 0.571452 5.7339e-05
362 1 0.785942 0.642895 0.0712715
363 1 0.857281 0.571423 4.75975e-05
364 1 0.928665 0.642857 0.07137
365 1 6.95153e-06 0.714326 6.60395e-05
366 1 0.0713533 0.785819 0.0713502
367 1 0.142733 0.714381 8.62902e-05
368 1 0.214167 0.785876 0.0713131
369 1 0.285618 0.714429 9.74986e-05
370 1 0.35708 0.785889 0.0713052
371 1 0.42855 0.714433 5.41574e-05
372 1 0.499989 0.785902 0.0712799
373 1 0.57148 0.714449 3.92483e-05
374 1 0.642953 0.785951 0.0712037
375 1 0.714475 0.714446 5.47939e-05
376 1 0.785974 0.785941 0.0711436
377 1 0.85733 0.714355 6.85864e-05
378 1 0.928709 0.785799 0.0713511
379 1 3.33596e-05 0.857232 6.97299e-05
380 1 0.0713989 0.928612 0.071393
381 1 0.142788 0.857245 6.28224e-05
382 1 0.214224 0.928612 0.0713709
383 1 0.285661 0.857263 4.6057e-05
384 1 0.357102 0.928619 0.0713568
385 1 0.428544 0.857271 2.82771e-05
386 1 0.499975 0.928629 0.0713373
387 1 0.571435 0.857295 2.39338e-05
388 1 0.642884 0.928656 0.0713134
389 1 0.714387 0.857333 4.27993e-05
390 1 0.785839 0.928688 0.0713161
391 1 0.857328 0.857317 6.96802e-05
392 1 0.928703 0.928683 0.0713617
508 1 0.428605 0.857417 0.428533
394 1 0.213922 0.500023 0.21386
507 1 0.285573 0.857534 0.4285
534 1 0.214157 0.928691 0.499988
397 1 0.643291 0.500011 0.213884
533 1 0.0713337 0.928666 0.499979
506 1 0.142646 0.857431 0.428501
400 1 0.999967 0.571425 0.14274
401 1 0.0711571 0.64297 0.214001
402 1 0.142644 0.571472 0.142614
403 1 0.213764 0.643259 0.21355
404 1 0.285543 0.571493 0.142501
405 1 0.356919 0.643279 0.213522
406 1 0.428525 0.571495 0.142577
407 1 0.500189 0.643365 0.213303
408 1 0.571659 0.571534 0.142376
409 1 0.643784 0.643631 0.212996
410 1 0.714601 0.571472 0.142531
411 1 0.786395 0.64308 0.213668
412 1 0.85735 0.571411 0.142686
413 1 0.928723 0.642877 0.214101
414 1 0.999989 0.714352 0.142699
415 1 0.0711847 0.786005 0.213983
416 1 0.142608 0.714491 0.142527
417 1 0.213945 0.786179 0.213824
418 1 0.285521 0.714554 0.142454
419 1 0.356965 0.786182 0.213832
420 1 0.42852 0.714558 0.142465
421 1 0.500041 0.78623 0.213775
422 1 0.571601 0.714648 0.142303
423 1 0.643306 0.786521 0.213474
424 1 0.714786 0.714717 0.142094
425 1 0.787121 0.78706 0.212886
426 1 0.857496 0.714385 0.142538
427 1 0.928877 0.785926 0.214043
428 1 3.39171e-05 0.857282 0.14272
429 1 0.0713512 0.928662 0.214168
430 1 0.142724 0.857313 0.142678
431 1 0.214163 0.928669 0.21412
432 1 0.285611 0.857334 0.142657
433 1 0.357077 0.928664 0.214111
434 1 0.428525 0.857336 0.142653
435 1 0.499985 0.928669 0.214089
436 1 0.571453 0.857392 0.142588
437 1 0.642956 0.928738 0.214035
438 1 0.714471 0.857508 0.142474
439 1 0.785974 0.928859 0.214038
440 1 0.857577 0.857547 0.14245
441 1 0.928724 0.9287 0.214168
442 1 0.0712326 0.500049 0.357063
443 1 0.213531 0.500159 0.356598
444 1 0.355245 0.501811 0.355931
445 1 0.502845 0.502095 0.353097
446 1 0.641702 0.500357 0.35798
447 1 0.785782 0.500064 0.356953
505 1 1 0.857311 0.428533
449 1 0.999901 0.571442 0.285585
450 1 0.0709699 0.643083 0.356925
451 1 0.142303 0.571616 0.285245
452 1 0.212223 0.644795 0.355303
453 1 0.284889 0.572071 0.284398
454 1 0.355497 0.645071 0.354946
455 1 0.428654 0.571963 0.285153
456 1 0.500517 0.645839 0.353916
457 1 0.572999 0.572871 0.284156
458 1 0.648234 0.648044 0.351944
459 1 0.715194 0.571472 0.284913
460 1 0.786766 0.643439 0.35651
461 1 0.857396 0.571437 0.285534
462 1 0.928746 0.642917 0.357029
463 1 0.999913 0.714443 0.285524
464 1 0.0711776 0.786022 0.356993
465 1 0.141993 0.715077 0.284928
466 1 0.213781 0.786482 0.356753
467 1 0.284962 0.715372 0.284661
468 1 0.356937 0.786501 0.356745
469 1 0.428374 0.715358 0.284673
470 1 0.500281 0.786507 0.356703
471 1 0.572286 0.715834 0.284222
472 1 0.643631 0.786742 0.356487
473 1 0.717432 0.717281 0.282642
474 1 0.78664 0.786579 0.356636
475 1 0.857869 0.714637 0.285285
476 1 0.928836 0.785951 0.357022
477 1 2.17411e-05 0.857323 0.285603
478 1 0.0713371 0.928666 0.35708
479 1 0.142624 0.857467 0.285501
480 1 0.21414 0.928704 0.357047
481 1 0.285538 0.857538 0.28546
482 1 0.357086 0.928685 0.357054
483 1 0.428543 0.85751 0.285476
484 1 0.500017 0.92867 0.357051
485 1 0.571596 0.857639 0.285386
486 1 0.643009 0.928757 0.357016
487 1 0.714747 0.857878 0.285255
488 1 0.785997 0.928824 0.35703
489 1 0.857579 0.857546 0.285488
490 1 0.928706 0.928691 0.357092
491 1 0.999967 0.571472 0.428526
492 1 0.142671 0.571739 0.428453
493 1 0.28258 0.575409 0.424474
494 1 0.428471 0.579126 0.424773
495 1 0.57903 0.583696 0.421744
496 1 0.715114 0.572403 0.427756
497 1 0.857362 0.571514 0.428461
498 1 0.999952 0.714447 0.428512
499 1 0.142245 0.714883 0.428383
500 1 0.284752 0.715814 0.427924
501 1 0.428575 0.715606 0.428073
502 1 0.572608 0.715792 0.427778
503 1 0.716012 0.715935 0.427818
504 1 0.857733 0.714641 0.428402
1 1 1.0415e-06 0.99999 6.19233e-05
3 1 0.142798 0.999938 5.84736e-05
5 1 0.285679 0.999948 3.01354e-05
7 1 0.428551 0.999967 2.53239e-06
532 1 0.928761 0.785934 0.499992
11 1 0.71435 0.999996 -7.32931e-06
50 1 1.26699e-05 0.999988 0.142785
52 1 0.142756 0.999933 0.142743
54 1 0.28564 0.999922 0.142716
56 1 0.428532 0.999923 0.142698
58 1 0.57144 0.999903 0.142658
60 1 0.714418 0.999912 0.142638
62 1 0.857319 0.999993 0.14271
99 1 1 0.999985 0.285647
101 1 0.14271 0.999928 0.285599
103 1 0.285599 0.999882 0.285566
105 1 0.428531 0.999865 0.285556
107 1 0.571488 0.999829 0.28553
109 1 0.714496 0.999892 0.28554
111 1 0.857353 0.999994 0.285618
148 1 0.99999 0.999988 0.428546
149 1 0.14271 0.999931 0.428528
150 1 0.285615 0.999877 0.428532
151 1 0.428552 0.999864 0.428546
154 1 0.857324 0.999999 0.428557
153 1 0.714491 0.999927 0.42854
152 1 0.571497 0.999833 0.428542
530 1 0.643602 0.786691 0.499948
515 1 0.525152 0.509341 0.473025
516 1 0.645007 0.500386 0.497973
517 1 0.786049 0.500177 0.499853
527 1 0.213871 0.786342 0.499985
526 1 0.0712023 0.786001 0.499973
521 1 0.354354 0.644765 0.497924
522 1 0.501363 0.644431 0.498487
525 1 0.928741 0.642943 0.499988
524 1 0.786713 0.643475 0.499923
303 1 0.571451 0.999998 0.857291
513 1 0.21268 0.500437 0.500105
514 1 0.338868 0.504372 0.501294
301 1 0.428567 0.999973 0.857281
299 1 0.285673 0.999908 0.85732
297 1 0.142716 0.99985 0.857339
692 3 0.496912 0.530765 0.559952
666 1 0.500022 0.785941 0.928777
254 1 0.571482 0.999963 0.714427
252 1 0.428574 0.999965 0.714398
250 1 0.285646 0.999901 0.714413
248 1 0.142686 0.999903 0.714386
665 1 0.428604 0.714681 0.857601
207 1 0.714473 0.999975 0.571496
205 1 0.571488 0.999906 0.571499
203 1 0.428573 0.999912 0.571484
528 1 0.357063 0.786155 0.500026
201 1 0.285641 0.999898 0.571464
199 1 0.142707 0.999933 0.571435
197 1 0.999974 0.999998 0.571427
673 1 1.12725e-05 0.857371 0.857391
672 1 0.928729 0.785856 0.928787
671 1 0.857503 0.71453 0.857533
535 1 0.357132 0.92863 0.500018
670 1 0.786022 0.786012 0.928905
669 1 0.714846 0.71482 0.85777
668 1 0.643014 0.786002 0.928847
667 1 0.571682 0.714746 0.85767
540 1 0.071125 0.500056 0.643008
541 1 0.213143 0.500298 0.643829
542 1 0.353945 0.503652 0.645651
543 1 0.500319 0.500369 0.655101
686 1 0.928702 0.928731 0.928738
685 1 0.857428 0.857461 0.857459
684 1 0.785862 0.928757 0.928751
547 1 0.999943 0.571488 0.571468
548 1 0.0707908 0.643193 0.643135
549 1 0.142552 0.571825 0.571699
550 1 0.211444 0.645508 0.645202
551 1 0.281927 0.57632 0.575888
552 1 0.353367 0.647223 0.647039
553 1 0.422801 0.583183 0.574782
554 1 0.5018 0.643297 0.643878
555 1 0.578766 0.574357 0.57106
556 1 0.644519 0.644386 0.643939
557 1 0.71546 0.572061 0.571597
558 1 0.786666 0.643452 0.643379
559 1 0.857415 0.571568 0.571523
560 1 0.928716 0.642994 0.642991
561 1 0.999903 0.714482 0.571464
562 1 0.0710839 0.786122 0.642986
563 1 0.142163 0.714983 0.571622
564 1 0.21369 0.786672 0.643223
565 1 0.284829 0.715867 0.571849
566 1 0.357039 0.786468 0.643181
567 1 0.428728 0.714807 0.57159
568 1 0.500339 0.786033 0.643111
569 1 0.572337 0.715101 0.571662
570 1 0.643543 0.78671 0.643398
571 1 0.715769 0.715687 0.572153
572 1 0.786433 0.786426 0.643387
573 1 0.857668 0.714654 0.571578
574 1 0.928753 0.785993 0.642987
575 1 0.999979 0.857333 0.571433
576 1 0.0713162 0.928699 0.642886
577 1 0.142629 0.857473 0.571455
578 1 0.21415 0.928749 0.642921
579 1 0.285601 0.857548 0.571484
580 1 0.357144 0.928701 0.642927
581 1 0.428664 0.857245 0.571502
582 1 0.500048 0.928657 0.642952
583 1 0.57165 0.857424 0.571575
584 1 0.643025 0.928808 0.643017
585 1 0.714711 0.857693 0.571601
586 1 0.785977 0.928828 0.643003
587 1 0.857441 0.857449 0.57151
588 1 0.928678 0.92872 0.642902
683 1 0.71456 0.857547 0.857533
590 1 0.213647 0.50007 0.786458
682 1 0.642902 0.928704 0.928705
592 1 0.500351 0.500307 0.786706
593 1 0.643498 0.50021 0.786394
681 1 0.571517 0.857435 0.857417
680 1 0.499991 0.928661 0.928674
596 1 0.999838 0.571475 0.714462
597 1 0.0709956 0.643036 0.786143
598 1 0.141978 0.571748 0.714972
599 1 0.213337 0.643578 0.786897
600 1 0.283824 0.572934 0.71649
601 1 0.356558 0.643909 0.787132
602 1 0.42687 0.573777 0.716004
603 1 0.500333 0.643508 0.786477
604 1 0.573821 0.573622 0.71587
605 1 0.643828 0.643765 0.786871
606 1 0.715294 0.571963 0.714939
607 1 0.786349 0.643297 0.786303
608 1 0.857476 0.571566 0.714554
609 1 0.928702 0.642968 0.785979
610 1 0.999789 0.71454 0.714529
611 1 0.0710266 0.786175 0.786166
612 1 0.14152 0.715494 0.715408
613 1 0.213611 0.786643 0.78658
614 1 0.283906 0.716668 0.71641
615 1 0.357079 0.786347 0.786226
616 1 0.428778 0.715331 0.714981
617 1 0.500184 0.786213 0.786142
618 1 0.5722 0.715339 0.715055
619 1 0.643384 0.786407 0.786355
620 1 0.71504 0.714991 0.714956
621 1 0.786514 0.786518 0.786519
622 1 0.85762 0.714709 0.714719
623 1 0.928785 0.786021 0.786026
624 1 0.999977 0.85739 0.714406
625 1 0.0713236 0.92871 0.785857
626 1 0.142562 0.85761 0.714512
627 1 0.214168 0.928729 0.78591
628 1 0.285551 0.857731 0.714559
629 1 0.357131 0.928719 0.785884
630 1 0.428638 0.857474 0.714479
631 1 0.500024 0.928724 0.785887
632 1 0.571626 0.857558 0.714591
633 1 0.642997 0.928804 0.78596
634 1 0.714742 0.857688 0.714732
635 1 0.785987 0.928892 0.785988
636 1 0.857509 0.857545 0.71456
637 1 0.928711 0.928772 0.785865
664 1 0.3571 0.78594 0.928802
679 1 0.428576 0.857389 0.85737
678 1 0.357119 0.928641 0.928682
677 1 0.285634 0.857425 0.857425
676 1 0.214232 0.928623 0.928707
675 1 0.142665 0.857424 0.857457
674 1 0.071388 0.928624 0.928714
645 1 0.999931 0.571431 0.857349
646 1 0.0712976 0.6429 0.928783
647 1 0.142529 0.571504 0.857573
648 1 0.214085 0.642975 0.928934
649 1 0.285413 0.57158 0.857828
650 1 0.357066 0.643022 0.928936
651 1 0.428514 0.571642 0.857574
652 1 0.500057 0.64302 0.928829
653 1 0.571722 0.571688 0.857584
654 1 0.643083 0.643054 0.928933
655 1 0.714724 0.571617 0.857604
656 1 0.785989 0.642976 0.928839
657 1 0.857379 0.571478 0.857397
658 1 0.928672 0.642883 0.928737
659 1 0.999952 0.714412 0.857417
660 1 0.0713268 0.785862 0.928801
661 1 0.142458 0.714618 0.857722
662 1 0.214135 0.785946 0.928872
663 1 0.285393 0.714786 0.857902
642 1 0.643031 0.500035 0.928779
641 1 0.500062 0.500045 0.928742
640 1 0.357071 0.500008 0.92876
594 1 0.786127 0.500093 0.786057
591 1 0.356779 0.500012 0.786106
546 1 0.928651 0.500029 0.64292
545 1 0.786134 0.500202 0.643092
544 1 0.643322 0.500601 0.643655
538 1 0.78596 0.928775 0.500016
537 1 0.643013 0.928744 0.500034
536 1 0.500045 0.928612 0.500042
9 1 0.571427 0.999978 0.999987
512 1 0.0712477 0.50007 0.500018
531 1 0.786397 0.78636 0.500011
519 1 0.0711106 0.643071 0.500005
529 1 0.500382 0.786171 0.500015
520 1 0.213029 0.644026 0.499995
523 1 0.646343 0.64616 0.500364
