ITEM: TIMESTEP
17
ITEM: NUMBER OF ATOMS
693
ITEM: BOX BOUNDS pp pp pp
0.0000000000000000e+00 2.2013900999999997e+01
0.0000000000000000e+00 2.2013900999999997e+01
0.0000000000000000e+00 2.2013900999999997e+01
ITEM: ATOMS id type xs ys zs
1 1 3.726e-06 8.37828e-06 1.8125e-05
2 1 0.0713223 0.0713244 0.0713276
448 1 0.928622 0.500001 0.357117
4 1 0.214216 0.0712981 0.0713067
690 3 0.424715 0.496409 0.463676
6 1 0.357126 0.0713231 0.0713268
688 2 0.496081 0.427156 0.46259
8 1 0.499998 0.0713272 0.0713264
175 1 0.857272 0.42856 0.428552
10 1 0.642914 0.0713078 0.0713037
174 1 0.714634 0.428418 0.428303
12 1 0.78584 0.0713285 0.0713169
13 1 0.857215 2.38223e-05 2.92743e-05
14 1 0.928608 0.071389 0.0713709
396 1 0.500016 0.499894 0.214268
16 1 0.0712935 0.214219 0.0713022
395 1 0.356991 0.499958 0.214188
18 1 0.21412 0.21412 0.0711313
692 3 0.466699 0.43263 0.500059
20 1 0.357113 0.214153 0.0712335
345 1 0.214191 0.499998 0.0712617
22 1 0.500013 0.214158 0.0712341
344 1 0.0713387 0.499999 0.0713372
24 1 0.642996 0.21412 0.0711231
155 1 0.99991 0.142748 0.42856
26 1 0.78589 0.214188 0.0712329
156 1 0.1425 0.1425 0.428511
28 1 0.928607 0.214249 0.0713446
157 1 0.285366 0.14213 0.428419
30 1 0.071322 0.357135 0.0713277
158 1 0.428555 0.142357 0.428429
32 1 0.214161 0.357111 0.0712334
159 1 0.571755 0.14212 0.428437
34 1 0.357106 0.357087 0.0712954
147 1 0.857366 0.428554 0.285585
36 1 0.500026 0.357091 0.0713014
146 1 0.714981 0.428391 0.285141
38 1 0.642967 0.357109 0.0711988
145 1 0.572229 0.42804 0.284641
40 1 0.78585 0.357131 0.0712819
144 1 0.42828 0.427881 0.283799
42 1 0.928597 0.357138 0.0713584
399 1 0.928605 0.499994 0.21418
143 1 0.284815 0.428305 0.284668
142 1 0.142368 0.428523 0.285371
141 1 0.999904 0.428574 0.285633
140 1 0.928655 0.357129 0.357111
398 1 0.78599 0.499991 0.214036
154 1 0.857259 4.53838e-06 0.428557
173 1 0.57582 0.424811 0.424324
51 1 0.0712688 0.0712759 0.214163
172 1 0.426982 0.423165 0.408483
53 1 0.214086 0.0710726 0.214043
171 1 0.284525 0.426573 0.426332
55 1 0.357091 0.0711663 0.21407
170 1 0.142897 0.428595 0.428561
57 1 0.500023 0.0711675 0.214066
169 1 0.999979 0.428577 0.428572
59 1 0.643032 0.0710726 0.214015
168 1 0.85739 0.285621 0.428561
61 1 0.785945 0.0712128 0.214098
167 1 0.715192 0.285082 0.428375
63 1 0.928623 0.071351 0.214208
64 1 0.999921 0.142759 0.142736
65 1 0.0710617 0.214079 0.214038
66 1 0.142496 0.142496 0.14247
67 1 0.21307 0.213056 0.212986
68 1 0.285598 0.142539 0.142509
69 1 0.356937 0.213657 0.213637
70 1 0.42856 0.14262 0.142589
71 1 0.500138 0.213676 0.21367
72 1 0.571518 0.142551 0.142512
73 1 0.6438 0.21321 0.213126
74 1 0.714608 0.142502 0.142456
75 1 0.786277 0.213888 0.213831
76 1 0.857333 0.142708 0.142674
77 1 0.928665 0.214183 0.214151
78 1 0.999924 0.285682 0.142729
79 1 0.0711689 0.357097 0.214085
80 1 0.142538 0.285596 0.142503
81 1 0.213688 0.356896 0.213624
82 1 0.285444 0.285423 0.14223
83 1 0.356877 0.356741 0.214036
84 1 0.42855 0.285509 0.142493
85 1 0.500136 0.356738 0.214087
86 1 0.571633 0.28543 0.142247
87 1 0.643498 0.356761 0.213423
88 1 0.714651 0.285517 0.142353
89 1 0.786132 0.357035 0.213936
90 1 0.857328 0.285654 0.142667
91 1 0.92864 0.357127 0.214166
92 1 0.999938 0.428568 0.14275
93 1 0.142651 0.428561 0.142613
94 1 0.28557 0.428502 0.142526
95 1 0.428544 0.428473 0.142546
96 1 0.57152 0.428478 0.142577
97 1 0.714493 0.428546 0.142576
98 1 0.857263 0.428567 0.142723
166 1 0.573638 0.283018 0.426782
100 1 0.0712731 0.0712857 0.357096
165 1 0.428028 0.284912 0.427102
102 1 0.214061 0.0710683 0.357024
164 1 0.283723 0.283467 0.427315
104 1 0.357075 0.0710574 0.35702
163 1 0.142211 0.285349 0.428464
106 1 0.500046 0.071059 0.357024
162 1 0.99989 0.285665 0.428569
108 1 0.643089 0.0710085 0.357002
161 1 0.857332 0.142719 0.428563
110 1 0.785946 0.0712433 0.357074
160 1 0.714718 0.14241 0.428503
112 1 0.928619 0.0713577 0.357116
113 1 0.999902 0.142729 0.285639
114 1 0.0710737 0.214072 0.357038
115 1 0.142411 0.142408 0.285452
116 1 0.213297 0.213243 0.35654
117 1 0.285338 0.142075 0.285246
118 1 0.356638 0.212922 0.356408
119 1 0.428545 0.1423 0.285348
120 1 0.50033 0.21294 0.356488
121 1 0.571739 0.142056 0.285239
122 1 0.644052 0.212857 0.356299
123 1 0.714833 0.142223 0.285317
124 1 0.786283 0.213904 0.356967
125 1 0.857385 0.142667 0.285597
126 1 0.928654 0.214185 0.357105
127 1 0.999875 0.285648 0.285615
128 1 0.0711023 0.3571 0.357063
129 1 0.142051 0.285281 0.285214
130 1 0.212894 0.356368 0.356315
131 1 0.283093 0.282983 0.282929
132 1 0.351888 0.351834 0.353071
133 1 0.428496 0.284551 0.284613
134 1 0.504591 0.352352 0.353715
135 1 0.573536 0.283228 0.283232
136 1 0.64551 0.354944 0.354988
137 1 0.715647 0.284687 0.284621
138 1 0.786393 0.356911 0.356887
139 1 0.857531 0.285561 0.285524
350 1 0.92859 0.499992 0.0713753
349 1 0.785811 0.499994 0.0713381
348 1 0.642917 0.499988 0.0713097
346 1 0.357121 0.499994 0.071318
347 1 0.500018 0.499989 0.0713546
192 1 0.354232 0.349261 0.49997
194 1 0.643188 0.356369 0.499928
195 1 0.785933 0.35708 0.499988
693 3 0.395357 0.431549 0.499951
644 1 0.928601 0.499981 0.928637
643 1 0.785821 0.499993 0.928672
178 1 0.357093 0.0711089 0.500015
179 1 0.50004 0.0711495 0.50003
180 1 0.643065 0.071129 0.500025
181 1 0.785915 0.0713044 0.500015
182 1 0.928611 0.071378 0.500004
47 1 0.571447 0.428569 0.999962
184 1 0.213564 0.213451 0.500035
185 1 0.356853 0.213088 0.500025
186 1 0.500183 0.213173 0.500086
187 1 0.643623 0.213392 0.500038
188 1 0.786095 0.214056 0.50003
189 1 0.92861 0.214215 0.500013
190 1 0.0712758 0.357122 0.500016
191 1 0.213888 0.35658 0.500034
256 1 0.714462 1.30019e-05 0.714428
193 1 0.502465 0.347031 0.500135
31 1 0.142741 0.285684 0.999982
29 1 0.999959 0.285701 0.999988
196 1 0.9286 0.357153 0.500011
46 1 0.428582 0.428564 0.999953
198 1 0.0712748 0.0712974 0.64291
691 3 0.436169 0.497202 0.53498
200 1 0.214064 0.0710694 0.642988
343 1 0.857242 0.428551 0.857253
202 1 0.357074 0.0710501 0.643007
342 1 0.714472 0.428584 0.857321
204 1 0.500059 0.0711002 0.643008
341 1 0.571591 0.428545 0.857324
206 1 0.643092 0.0710978 0.64302
340 1 0.428594 0.428524 0.857337
208 1 0.785927 0.0713277 0.642937
209 1 0.857262 2.95459e-05 0.571444
210 1 0.928612 0.0713972 0.642886
211 1 0.9999 0.142758 0.57145
212 1 0.0710586 0.214072 0.642977
213 1 0.142498 0.142496 0.571508
214 1 0.213332 0.213249 0.643487
215 1 0.285369 0.142128 0.571612
216 1 0.356679 0.212923 0.643635
217 1 0.428557 0.142364 0.571639
218 1 0.500359 0.213077 0.643534
219 1 0.571767 0.142219 0.571639
220 1 0.643969 0.213211 0.643645
221 1 0.714693 0.142498 0.571541
222 1 0.786129 0.214094 0.643009
223 1 0.857307 0.142758 0.571465
224 1 0.92859 0.214227 0.642903
225 1 0.999863 0.285667 0.571448
226 1 0.0710675 0.357082 0.642969
227 1 0.142205 0.285326 0.571568
228 1 0.212796 0.356218 0.643874
229 1 0.283849 0.28351 0.572828
230 1 0.352549 0.352429 0.646479
231 1 0.427954 0.284918 0.572939
232 1 0.504351 0.352729 0.646019
233 1 0.573746 0.283447 0.573273
234 1 0.643858 0.356846 0.643154
235 1 0.714995 0.285369 0.571589
236 1 0.786004 0.357148 0.642934
237 1 0.857309 0.285677 0.571459
238 1 0.928576 0.357143 0.642892
239 1 0.999976 0.428574 0.57145
240 1 0.14291 0.42858 0.571507
241 1 0.284251 0.425992 0.574073
242 1 0.427948 0.423765 0.589781
243 1 0.571736 0.428304 0.571924
244 1 0.71441 0.42864 0.571397
245 1 0.85724 0.428595 0.571461
246 1 0.999986 1.80903e-05 0.714331
247 1 0.0712818 0.0713039 0.785839
339 1 0.285646 0.428532 0.857392
249 1 0.214102 0.0711156 0.78595
338 1 0.142696 0.428564 0.857359
251 1 0.357095 0.0711874 0.785935
337 1 0.999947 0.428557 0.857243
253 1 0.500034 0.0712143 0.785935
336 1 0.928587 0.357131 0.928616
255 1 0.643032 0.0711858 0.785968
335 1 0.857245 0.285687 0.857241
257 1 0.785915 0.0713583 0.785877
258 1 0.857284 7.44368e-05 0.714357
259 1 0.928615 0.0714208 0.785787
260 1 0.999882 0.142759 0.714364
261 1 0.0710773 0.214092 0.785957
262 1 0.142431 0.142431 0.714562
263 1 0.213341 0.213321 0.786768
264 1 0.285368 0.142121 0.714756
265 1 0.356986 0.213732 0.786328
266 1 0.428569 0.142337 0.714673
267 1 0.500155 0.213779 0.786281
268 1 0.571742 0.142199 0.71474
269 1 0.643698 0.213477 0.786655
270 1 0.71475 0.142461 0.714618
271 1 0.786035 0.214149 0.785932
272 1 0.857311 0.142775 0.71438
273 1 0.928578 0.21424 0.785805
274 1 0.999821 0.285653 0.714388
275 1 0.0711776 0.357093 0.785917
276 1 0.142068 0.285264 0.71482
277 1 0.21378 0.356926 0.786349
278 1 0.283538 0.283375 0.716725
279 1 0.356982 0.356819 0.785952
280 1 0.428551 0.284619 0.715369
281 1 0.5002 0.356865 0.78584
282 1 0.573507 0.283594 0.716476
283 1 0.6434 0.35697 0.786201
284 1 0.71496 0.285454 0.714675
285 1 0.785966 0.35711 0.785889
286 1 0.857308 0.285676 0.714381
287 1 0.928584 0.357124 0.785806
288 1 0.9999 0.428564 0.714377
289 1 0.142406 0.428516 0.714661
290 1 0.284983 0.428314 0.715276
291 1 0.428291 0.427885 0.715927
292 1 0.572702 0.427946 0.715085
293 1 0.714791 0.428612 0.714527
294 1 0.857295 0.428575 0.714388
295 1 3.49969e-06 3.1042e-05 0.857226
296 1 0.0713401 0.0713507 0.928654
334 1 0.785819 0.357135 0.928634
298 1 0.21422 0.0713144 0.928673
333 1 0.714542 0.285637 0.857403
300 1 0.357126 0.0713361 0.928663
332 1 0.642956 0.357138 0.928673
302 1 0.500001 0.0713485 0.928664
331 1 0.571629 0.285533 0.857607
304 1 0.642912 0.0713495 0.928682
305 1 0.714394 2.96416e-05 0.857314
306 1 0.785829 0.0713893 0.928668
307 1 0.857271 9.74023e-05 0.857273
308 1 0.928607 0.0714356 0.928627
309 1 0.999911 0.142793 0.857245
310 1 0.071302 0.214226 0.92867
311 1 0.142563 0.14257 0.85746
312 1 0.214143 0.214144 0.928802
313 1 0.28561 0.142584 0.857457
314 1 0.357125 0.214174 0.928729
315 1 0.428573 0.142659 0.857392
316 1 0.500021 0.214188 0.928714
317 1 0.571523 0.142625 0.857441
318 1 0.642985 0.214171 0.928765
319 1 0.714564 0.142626 0.857451
320 1 0.785843 0.21424 0.928644
321 1 0.857258 0.142817 0.857246
322 1 0.928585 0.214267 0.928612
323 1 0.999909 0.285684 0.857249
324 1 0.0713319 0.357133 0.928651
325 1 0.142579 0.285605 0.857462
326 1 0.214186 0.357121 0.928721
327 1 0.285511 0.285481 0.857689
328 1 0.357133 0.357112 0.928637
329 1 0.428589 0.285568 0.857449
330 1 0.500038 0.357127 0.928602
45 1 0.2857 0.428565 0.999965
44 1 0.142776 0.42857 0.999983
41 1 0.857215 0.285699 0.999968
39 1 0.714398 0.285685 0.999936
589 1 0.0712468 0.500001 0.785904
37 1 0.571463 0.285678 0.99995
35 1 0.428575 0.285687 0.999971
33 1 0.285672 0.285669 0.999973
595 1 0.928623 0.499986 0.785833
638 1 0.071359 0.499993 0.928648
639 1 0.214225 0.499997 0.928675
27 1 0.857221 0.142821 0.999973
15 1 0.999962 0.142824 0.999991
17 1 0.142744 0.142748 0.99998
19 1 0.28568 0.142744 0.999985
21 1 0.428567 0.142767 0.999988
23 1 0.571451 0.142757 0.999979
25 1 0.714394 0.142761 0.999968
43 1 0.999969 0.428565 0.999995
48 1 0.714363 0.428574 0.999974
49 1 0.857203 0.428564 0.999993
176 1 0.0712861 0.0713016 0.500001
177 1 0.214086 0.071112 0.500006
183 1 0.0711323 0.214101 0.500008
687 2 0.427475 0.52949 0.499024
511 1 0.857357 0.857351 0.428529
539 1 0.928639 0.928652 0.499993
393 1 0.071201 0.500011 0.214096
530 1 0.643464 0.786488 0.499976
524 1 0.786465 0.643312 0.499951
523 1 0.644986 0.644753 0.499426
351 1 0.999979 0.571419 8.23847e-06
352 1 0.0713287 0.642887 0.0713165
533 1 0.0713532 0.928631 0.499997
354 1 0.214172 0.642934 0.0711994
153 1 0.714449 0.999957 0.428547
356 1 0.357126 0.642919 0.0712305
152 1 0.571496 0.999885 0.428552
358 1 0.500017 0.642889 0.0712794
515 1 0.520988 0.508937 0.490456
360 1 0.642934 0.642889 0.0712627
361 1 0.714367 0.571426 2.26086e-05
362 1 0.785835 0.64287 0.0713288
363 1 0.857214 0.571416 2.71369e-05
364 1 0.928601 0.642859 0.0713808
365 1 0.999995 0.714312 2.647e-05
366 1 0.0713438 0.785808 0.071322
151 1 0.428569 0.999866 0.428554
368 1 0.214203 0.785848 0.0712652
150 1 0.285639 0.999858 0.428548
370 1 0.357121 0.785833 0.0712894
111 1 0.857263 0.999986 0.28565
372 1 0.500006 0.785824 0.0713044
373 1 0.571459 0.714355 2.04455e-05
374 1 0.64292 0.785844 0.0712869
375 1 0.714388 0.714359 6.88779e-05
376 1 0.785851 0.785828 0.0713179
377 1 0.857251 0.714321 7.26315e-05
378 1 0.928622 0.785769 0.071389
379 1 1.69497e-05 0.857207 3.74987e-05
380 1 0.0713888 0.928604 0.0713758
149 1 0.14273 0.999922 0.428553
382 1 0.214244 0.928602 0.0713544
109 1 0.714444 0.99991 0.28559
384 1 0.357126 0.928602 0.0713594
385 1 0.428558 0.857212 5.50559e-06
386 1 0.499993 0.928604 0.0713637
387 1 0.571434 0.857228 2.87969e-05
388 1 0.642883 0.928617 0.0713661
389 1 0.714353 0.857257 7.0189e-05
390 1 0.785793 0.92863 0.0713841
391 1 0.857258 0.85725 9.03798e-05
392 1 0.928625 0.92863 0.0714046
510 1 0.714604 0.857579 0.428476
394 1 0.213841 0.500068 0.213758
509 1 0.57159 0.857483 0.428523
508 1 0.428614 0.85732 0.428562
397 1 0.643203 0.500007 0.213812
532 1 0.928703 0.785875 0.5
107 1 0.571482 0.999875 0.285581
400 1 0.999927 0.571432 0.142738
401 1 0.0711068 0.642983 0.213995
402 1 0.142631 0.571487 0.142561
403 1 0.213677 0.643368 0.213436
404 1 0.285561 0.571516 0.142395
405 1 0.356953 0.643325 0.213504
406 1 0.428551 0.571451 0.142616
407 1 0.500178 0.643209 0.213573
408 1 0.571513 0.571439 0.142583
409 1 0.643399 0.643274 0.213409
410 1 0.714475 0.571452 0.142579
411 1 0.786134 0.64298 0.213876
412 1 0.857256 0.571422 0.142723
413 1 0.928622 0.642884 0.214141
414 1 0.999922 0.714353 0.142715
415 1 0.0711398 0.786007 0.213995
416 1 0.142592 0.714512 0.142478
417 1 0.213962 0.786202 0.213823
418 1 0.285566 0.71455 0.142414
419 1 0.357055 0.786116 0.213898
420 1 0.428571 0.714482 0.142523
421 1 0.500061 0.786094 0.213892
422 1 0.571546 0.714498 0.142441
423 1 0.643175 0.786256 0.213714
424 1 0.714554 0.7145 0.142393
425 1 0.786329 0.786292 0.21367
426 1 0.857312 0.714353 0.142674
427 1 0.928669 0.785853 0.214131
428 1 0.999961 0.857251 0.142747
429 1 0.0713367 0.928647 0.21419
430 1 0.142728 0.857307 0.142675
431 1 0.214189 0.92866 0.214142
432 1 0.285652 0.857306 0.14267
433 1 0.357115 0.928647 0.214145
434 1 0.428561 0.857283 0.14269
435 1 0.500004 0.928646 0.214138
436 1 0.571461 0.857305 0.142663
437 1 0.642938 0.92868 0.214111
438 1 0.71442 0.857345 0.142633
439 1 0.785871 0.928702 0.214138
440 1 0.85732 0.857315 0.142685
441 1 0.928627 0.92864 0.214214
442 1 0.0711807 0.500057 0.35707
443 1 0.213297 0.500266 0.356506
444 1 0.354145 0.502578 0.354969
445 1 0.502172 0.501453 0.355151
446 1 0.644082 0.500179 0.356049
447 1 0.786125 0.500041 0.356953
507 1 0.285633 0.857412 0.428544
449 1 0.999863 0.571452 0.285599
450 1 0.0709421 0.643092 0.356956
451 1 0.142197 0.571667 0.285207
452 1 0.212062 0.645011 0.355219
453 1 0.284469 0.572532 0.284011
454 1 0.355325 0.645358 0.354892
455 1 0.428426 0.572054 0.284952
456 1 0.50179 0.645485 0.354543
457 1 0.572304 0.572089 0.284724
458 1 0.64648 0.64628 0.353776
459 1 0.715068 0.571686 0.285026
460 1 0.786557 0.643244 0.356739
461 1 0.857384 0.571451 0.285556
462 1 0.928675 0.642912 0.357072
463 1 0.999828 0.714436 0.285559
464 1 0.0711818 0.785988 0.357045
465 1 0.141917 0.715154 0.284899
466 1 0.213881 0.786405 0.356868
467 1 0.284917 0.715515 0.284619
468 1 0.357003 0.78639 0.356839
469 1 0.428556 0.71516 0.284934
470 1 0.500232 0.786408 0.356811
471 1 0.572307 0.715583 0.284461
472 1 0.643434 0.78664 0.356685
473 1 0.716025 0.715916 0.28404
474 1 0.786282 0.786242 0.356873
475 1 0.857576 0.714504 0.285457
476 1 0.928699 0.785879 0.35707
477 1 0.999955 0.85728 0.285636
478 1 0.0713375 0.928642 0.357107
479 1 0.142646 0.857447 0.285547
480 1 0.214176 0.928668 0.357084
481 1 0.285582 0.857516 0.285502
482 1 0.357118 0.928647 0.357083
483 1 0.428569 0.857437 0.285526
484 1 0.500022 0.928656 0.357076
485 1 0.571555 0.857544 0.285464
486 1 0.642976 0.928725 0.357053
487 1 0.714585 0.857614 0.285431
488 1 0.7859 0.928725 0.357068
489 1 0.857367 0.857363 0.285577
490 1 0.928634 0.928645 0.357107
491 1 0.99997 0.57147 0.428554
492 1 0.142705 0.571743 0.428468
493 1 0.282549 0.575658 0.424333
494 1 0.428803 0.579808 0.424298
495 1 0.57665 0.577676 0.422892
496 1 0.714927 0.571968 0.428136
497 1 0.85738 0.571504 0.428525
498 1 0.999934 0.714421 0.428543
499 1 0.142363 0.714813 0.428449
500 1 0.285177 0.715445 0.428269
501 1 0.428698 0.715321 0.428253
502 1 0.572321 0.715456 0.428121
503 1 0.715413 0.715344 0.428111
504 1 0.857555 0.714533 0.428484
505 1 0.999979 0.857267 0.428552
506 1 0.142696 0.857367 0.428543
148 1 0.99997 0.999987 0.428559
105 1 0.428561 0.999893 0.285597
7 1 0.428559 0.999974 1.66307e-06
9 1 0.571431 0.999982 8.99394e-06
11 1 0.714336 0.999998 2.09372e-05
50 1 0.999975 0.999986 0.142795
52 1 0.14276 0.999923 0.142737
54 1 0.285674 0.999927 0.142727
56 1 0.42856 0.999943 0.142735
58 1 0.571447 0.999931 0.142721
60 1 0.714383 0.999931 0.142719
62 1 0.85724 0.999984 0.142772
99 1 0.999966 0.999982 0.285669
101 1 0.142721 0.999916 0.285629
103 1 0.285638 0.999877 0.285598
516 1 0.645294 0.500243 0.499052
517 1 0.786175 0.500121 0.499976
521 1 0.356131 0.643223 0.499579
522 1 0.501395 0.643398 0.499585
526 1 0.0712602 0.785932 0.500001
512 1 0.0712738 0.500056 0.500021
513 1 0.212869 0.500355 0.500117
514 1 0.338841 0.504509 0.500904
303 1 0.571451 0.999979 0.857293
594 1 0.785999 0.50004 0.785949
593 1 0.643321 0.500172 0.786054
689 2 0.499986 0.532956 0.569275
519 1 0.0711871 0.643033 0.500015
520 1 0.21339 0.643857 0.500027
591 1 0.357143 0.50003 0.78571
546 1 0.928638 0.50001 0.642912
301 1 0.428558 0.99996 0.857269
299 1 0.285674 0.999935 0.857269
297 1 0.14278 0.999941 0.857258
545 1 0.786088 0.500147 0.64302
527 1 0.214026 0.786169 0.500018
528 1 0.357128 0.786004 0.500019
529 1 0.500349 0.786068 0.500033
3 1 0.142818 0.999968 0.999999
254 1 0.571499 0.999928 0.714436
252 1 0.428566 0.999904 0.714418
250 1 0.28564 0.99987 0.714411
534 1 0.214192 0.928629 0.500003
248 1 0.142735 0.999926 0.714375
207 1 0.714455 0.999982 0.571474
205 1 0.571508 0.999907 0.571483
203 1 0.428573 0.999867 0.571472
201 1 0.285639 0.999851 0.571462
540 1 0.0712069 0.50005 0.642962
541 1 0.213337 0.50023 0.643593
542 1 0.354497 0.502123 0.644339
543 1 0.501687 0.500236 0.648363
686 1 0.928681 0.928696 0.928706
685 1 0.857454 0.85746 0.857481
684 1 0.785828 0.928705 0.928734
547 1 0.999988 0.571475 0.571469
548 1 0.0709518 0.643108 0.643084
549 1 0.142722 0.571759 0.571618
550 1 0.211874 0.645263 0.645105
551 1 0.282167 0.576209 0.576047
552 1 0.355364 0.645593 0.645287
553 1 0.42691 0.57993 0.574834
554 1 0.502082 0.644489 0.644163
555 1 0.576388 0.574388 0.572619
556 1 0.645332 0.645097 0.644683
557 1 0.715243 0.572089 0.571541
558 1 0.786524 0.643388 0.643305
559 1 0.857435 0.571563 0.571528
560 1 0.928707 0.642959 0.642968
561 1 0.999941 0.71443 0.571463
562 1 0.071204 0.786006 0.642955
563 1 0.14237 0.71483 0.571583
564 1 0.213931 0.786399 0.643158
565 1 0.285258 0.715436 0.571739
566 1 0.357125 0.786339 0.643141
567 1 0.428921 0.71513 0.571613
568 1 0.500375 0.78629 0.643176
569 1 0.572513 0.715372 0.571671
570 1 0.643551 0.78658 0.643353
571 1 0.715329 0.715236 0.571755
572 1 0.786305 0.786275 0.643202
573 1 0.857539 0.714563 0.571547
574 1 0.928735 0.785921 0.642947
575 1 0.999993 0.857277 0.571437
576 1 0.0713565 0.928655 0.642887
577 1 0.142709 0.857367 0.571462
578 1 0.214192 0.928657 0.64292
579 1 0.285655 0.857396 0.571472
580 1 0.357129 0.92863 0.642931
581 1 0.428655 0.857294 0.57148
582 1 0.500048 0.928662 0.642955
583 1 0.57165 0.857478 0.571541
584 1 0.643022 0.928757 0.642988
585 1 0.714633 0.857561 0.571558
586 1 0.785935 0.928778 0.642954
587 1 0.857371 0.857369 0.571474
588 1 0.928664 0.928687 0.642886
683 1 0.7145 0.857466 0.857501
590 1 0.21397 0.500065 0.786174
682 1 0.642891 0.928659 0.9287
592 1 0.500273 0.500074 0.786035
681 1 0.571489 0.857348 0.857386
680 1 0.499989 0.928619 0.928659
679 1 0.428562 0.857281 0.857315
596 1 0.999907 0.571452 0.714419
597 1 0.0711737 0.642962 0.786019
598 1 0.14229 0.571648 0.714811
599 1 0.213829 0.64329 0.78649
600 1 0.284851 0.572299 0.715712
601 1 0.357121 0.643262 0.786362
602 1 0.428728 0.572157 0.714642
603 1 0.500361 0.643267 0.786214
604 1 0.572931 0.572585 0.715207
605 1 0.643598 0.643483 0.786541
606 1 0.715132 0.571867 0.714841
607 1 0.78625 0.643162 0.786222
608 1 0.857434 0.571532 0.714501
609 1 0.928702 0.642921 0.785919
610 1 0.999873 0.714462 0.71447
611 1 0.0711889 0.786036 0.786044
612 1 0.141829 0.715301 0.715278
613 1 0.214056 0.78614 0.786137
614 1 0.285063 0.715439 0.715342
615 1 0.357129 0.786045 0.786044
616 1 0.428865 0.715015 0.714858
617 1 0.500143 0.786095 0.786095
618 1 0.572285 0.715327 0.715144
619 1 0.643315 0.786328 0.786333
620 1 0.71571 0.715618 0.715576
621 1 0.786382 0.786355 0.786379
622 1 0.857635 0.714636 0.71465
623 1 0.928801 0.785945 0.785962
624 1 1.10946e-05 0.857321 0.714373
625 1 0.0713758 0.928672 0.78582
626 1 0.142683 0.857459 0.714458
627 1 0.214212 0.928645 0.785852
628 1 0.285626 0.85746 0.714486
629 1 0.357117 0.928635 0.785856
630 1 0.428616 0.857407 0.714481
631 1 0.500015 0.928669 0.785881
632 1 0.571636 0.857547 0.714583
633 1 0.642981 0.928761 0.785941
634 1 0.714706 0.857675 0.714673
635 1 0.785955 0.928858 0.785948
636 1 0.85746 0.857466 0.714477
637 1 0.928699 0.928728 0.785827
678 1 0.357122 0.928602 0.928642
677 1 0.28567 0.857278 0.857309
676 1 0.214253 0.9286 0.92864
675 1 0.14278 0.857292 0.857316
674 1 0.0714203 0.928618 0.928647
673 1 4.1734e-05 0.857304 0.857319
672 1 0.928691 0.785806 0.928737
645 1 0.999969 0.57142 0.857277
646 1 0.0713617 0.642876 0.928684
647 1 0.1427 0.571467 0.8574
648 1 0.214212 0.642913 0.928731
649 1 0.285659 0.571487 0.857471
650 1 0.357154 0.642907 0.928683
651 1 0.428638 0.57151 0.857268
652 1 0.500045 0.642913 0.928687
653 1 0.571651 0.571573 0.857412
654 1 0.642985 0.642945 0.928798
655 1 0.71456 0.571537 0.857457
656 1 0.785887 0.642911 0.928781
657 1 0.857305 0.571439 0.85733
658 1 0.928642 0.642862 0.928689
659 1 -9.95394e-07 0.71436 0.857336
660 1 0.0713834 0.785805 0.928701
661 1 0.142666 0.714476 0.857506
662 1 0.21423 0.785827 0.9287
663 1 0.285633 0.714493 0.857498
664 1 0.357127 0.785818 0.928684
665 1 0.428627 0.714472 0.857414
666 1 0.500013 0.785834 0.928716
667 1 0.571627 0.71457 0.857557
668 1 0.642959 0.785893 0.928812
669 1 0.714699 0.714653 0.857704
670 1 0.785932 0.785912 0.928885
671 1 0.857437 0.714443 0.857473
197 1 0.999975 0.999999 0.571434
199 1 0.142734 0.999923 0.571449
353 1 0.142781 0.571433 0.999981
355 1 0.285695 0.57143 0.999957
357 1 0.428583 0.571417 0.999963
367 1 0.142782 0.71435 0.999988
369 1 0.285681 0.714361 0.999971
381 1 0.142817 0.857211 0.999999
642 1 0.642942 0.500014 0.928661
641 1 0.500049 0.500017 0.928576
640 1 0.35716 0.500006 0.928579
544 1 0.643794 0.50031 0.643107
538 1 0.7859 0.928723 0.500004
518 1 0.928639 0.500014 0.500012
537 1 0.643 0.928725 0.500016
536 1 0.500045 0.928614 0.500021
525 1 0.928716 0.642933 0.500007
535 1 0.357136 0.928587 0.500011
359 1 0.571456 0.571424 0.999996
371 1 0.428574 0.714349 0.999988
383 1 0.285688 0.857212 0.999994
531 1 0.786207 0.78617 0.50001
5 1 0.285691 0.999966 0.999998
