ITEM: TIMESTEP
48
ITEM: NUMBER OF ATOMS
689
ITEM: BOX BOUNDS pp pp pp
0.0000000000000000e+00 2.2009546999999998e+01
0.0000000000000000e+00 2.2009546999999998e+01
0.0000000000000000e+00 2.2009546999999998e+01
ITEM: ATOMS id type xs ys zs
448 1 0.928547 0.49995 0.357202
2 1 0.0714073 0.0713606 0.0714635
175 1 0.857151 0.428518 0.428632
4 1 0.214247 0.071349 0.0714528
174 1 0.714442 0.428429 0.428529
6 1 0.357114 0.0713449 0.071453
173 1 0.572241 0.427443 0.427719
8 1 0.499995 0.0713493 0.0714626
33 1 0.285656 0.285609 3.10286e-05
10 1 0.642876 0.0713585 0.0714737
515 1 0.497996 0.496515 0.491841
12 1 0.785743 0.0713665 0.0714794
514 1 0.356774 0.49986 0.499431
14 1 0.928585 0.0713687 0.0714756
15 1 1 0.142796 4.22218e-05
16 1 0.0713975 0.214208 0.071455
17 1 0.142825 0.142782 3.06996e-05
18 1 0.214224 0.214181 0.0714319
19 1 0.285678 0.142771 2.95157e-05
20 1 0.357098 0.214169 0.0714299
21 1 0.428554 0.14277 3.80878e-05
22 1 0.49999 0.214171 0.0714443
23 1 0.571438 0.142777 5.06881e-05
24 1 0.642881 0.214183 0.0714616
25 1 0.714315 0.142786 5.79086e-05
26 1 0.785752 0.214198 0.0714732
27 1 0.857172 0.142794 5.41125e-05
28 1 0.928582 0.214214 0.0714721
29 1 0.999999 0.285649 4.35575e-05
30 1 0.0713956 0.357073 0.0714569
31 1 0.142819 0.285638 2.67072e-05
32 1 0.214218 0.357052 0.0714294
447 1 0.785729 0.49996 0.357186
34 1 0.357074 0.357022 0.0714239
35 1 0.428545 0.285603 4.48579e-05
36 1 0.499985 0.357021 0.0714536
37 1 0.571443 0.285608 6.66738e-05
38 1 0.642892 0.357035 0.071485
39 1 0.714334 0.285616 8.12766e-05
40 1 0.785758 0.357058 0.0714895
41 1 0.857179 0.28564 6.41304e-05
42 1 0.928581 0.357077 0.0714815
43 1 1 0.428514 5.34474e-05
44 1 0.142824 0.428507 3.28917e-05
45 1 0.285659 0.428493 4.02665e-05
46 1 0.428527 0.428469 0.000108905
47 1 0.57146 0.428474 0.000153387
48 1 0.714349 0.428491 0.00012144
49 1 0.857185 0.42851 8.57253e-05
172 1 0.427116 0.427028 0.427213
51 1 0.071394 0.0713506 0.214322
171 1 0.285292 0.42833 0.428361
53 1 0.214221 0.0713231 0.214291
170 1 0.142724 0.428482 0.428579
55 1 0.357097 0.0713129 0.214281
169 1 0.999955 0.428514 0.428628
57 1 0.49999 0.0713188 0.214287
168 1 0.85714 0.285657 0.428636
59 1 0.64288 0.071335 0.214302
167 1 0.714346 0.285557 0.428564
61 1 0.785749 0.0713516 0.214319
166 1 0.571487 0.285262 0.42842
63 1 0.928579 0.0713624 0.214332
64 1 0.999985 0.142781 0.142892
65 1 0.071369 0.214189 0.214303
66 1 0.142799 0.142757 0.142866
67 1 0.214167 0.214126 0.214238
68 1 0.285655 0.142739 0.142849
69 1 0.357061 0.214108 0.214221
70 1 0.428542 0.142736 0.142851
71 1 0.49998 0.214115 0.214235
72 1 0.571435 0.142746 0.142866
73 1 0.642888 0.214142 0.214263
74 1 0.714316 0.142763 0.142883
75 1 0.785766 0.214169 0.214292
76 1 0.857169 0.142777 0.142894
77 1 0.928572 0.214205 0.214322
78 1 0.999977 0.285639 0.14289
79 1 0.0713605 0.35706 0.2143
80 1 0.142785 0.285616 0.142855
81 1 0.214156 0.357013 0.214227
82 1 0.285615 0.285568 0.142801
83 1 0.356997 0.356939 0.214112
84 1 0.428522 0.28556 0.14281
85 1 0.499964 0.356942 0.21416
86 1 0.571436 0.285573 0.142837
87 1 0.642897 0.356987 0.214214
88 1 0.71433 0.285598 0.142868
89 1 0.785755 0.357046 0.214302
90 1 0.857166 0.285632 0.142897
91 1 0.928562 0.357073 0.214328
92 1 0.999975 0.428509 0.142898
93 1 0.142786 0.428495 0.14286
94 1 0.285614 0.428469 0.142807
95 1 0.428502 0.428442 0.14279
96 1 0.571428 0.428459 0.142848
97 1 0.714334 0.428475 0.142884
98 1 0.85716 0.428508 0.142916
165 1 0.428365 0.285149 0.428365
100 1 0.0713957 0.0713553 0.357193
164 1 0.285513 0.285458 0.428492
102 1 0.214218 0.0713195 0.357164
163 1 0.142765 0.285612 0.428603
104 1 0.357076 0.0712852 0.357133
162 1 0.99996 0.285652 0.428629
106 1 0.499987 0.0712946 0.357134
161 1 0.857154 0.142804 0.428632
108 1 0.642894 0.0713257 0.357152
160 1 0.714329 0.142755 0.428599
110 1 0.785751 0.0713631 0.357184
159 1 0.57145 0.142658 0.428555
112 1 0.928576 0.071372 0.3572
113 1 0.999976 0.142782 0.28576
114 1 0.0713683 0.214199 0.357183
115 1 0.142784 0.142748 0.285731
116 1 0.21416 0.214122 0.357125
117 1 0.285612 0.142682 0.285676
118 1 0.356988 0.213979 0.35703
119 1 0.428522 0.142678 0.28567
120 1 0.499969 0.214004 0.357041
121 1 0.57144 0.142699 0.285686
122 1 0.642921 0.214058 0.357084
123 1 0.714334 0.142733 0.285715
124 1 0.785754 0.214183 0.35717
125 1 0.857165 0.142779 0.285756
126 1 0.928561 0.214219 0.357198
127 1 0.999958 0.285633 0.285749
128 1 0.0713377 0.357056 0.357167
129 1 0.142731 0.285582 0.285694
130 1 0.214052 0.356954 0.357053
131 1 0.285472 0.285422 0.285529
132 1 0.356601 0.356523 0.356605
133 1 0.42847 0.285438 0.285552
134 1 0.499934 0.356679 0.356806
135 1 0.571449 0.285476 0.285594
136 1 0.643121 0.356698 0.35682
137 1 0.714397 0.285509 0.285632
138 1 0.785785 0.35703 0.357148
139 1 0.857171 0.285624 0.285744
140 1 0.928556 0.357076 0.357193
141 1 0.999951 0.428507 0.285753
142 1 0.142734 0.428479 0.285692
143 1 0.285498 0.428403 0.285544
144 1 0.428383 0.428303 0.285352
145 1 0.571417 0.428376 0.285501
146 1 0.714353 0.428437 0.285663
147 1 0.857148 0.428509 0.285761
158 1 0.428504 0.142618 0.428542
157 1 0.285617 0.14269 0.428572
156 1 0.142799 0.142766 0.428615
155 1 0.999979 0.142796 0.42863
395 1 0.357008 0.499903 0.214148
396 1 0.499922 0.499859 0.214175
397 1 0.64291 0.499882 0.214215
443 1 0.214088 0.499914 0.357055
444 1 0.356759 0.499837 0.356732
445 1 0.499752 0.499659 0.356955
446 1 0.642979 0.499752 0.356934
442 1 0.0713469 0.499938 0.357169
399 1 0.928558 0.499946 0.214341
398 1 0.785734 0.499944 0.214339
394 1 0.214172 0.499925 0.214242
393 1 0.0713673 0.499939 0.214308
350 1 0.928584 0.499947 0.0714961
349 1 0.785758 0.499944 0.0715199
348 1 0.6429 0.49993 0.0715168
185 1 0.357012 0.214014 0.49998
186 1 0.499967 0.213914 0.499936
347 1 0.499979 0.499922 0.0715064
346 1 0.357079 0.49993 0.0714482
192 1 0.35683 0.356721 0.499797
193 1 0.49986 0.356332 0.499606
345 1 0.214225 0.499937 0.0714428
513 1 0.214194 0.499919 0.499996
344 1 0.0714013 0.499944 0.0714667
516 1 0.642929 0.499903 0.499797
194 1 0.642933 0.356878 0.499897
644 1 0.928614 0.49995 0.928656
643 1 0.785796 0.49995 0.928721
640 1 0.357103 0.499945 0.928704
642 1 0.642943 0.499945 0.928826
595 1 0.928637 0.499954 0.785805
594 1 0.785847 0.499955 0.785912
593 1 0.643045 0.499931 0.786204
592 1 0.500024 0.499948 0.786888
184 1 0.214211 0.214174 0.50004
591 1 0.357141 0.499953 0.78593
546 1 0.928614 0.499958 0.64293
545 1 0.785834 0.499967 0.643009
641 1 0.5 0.499942 0.928926
544 1 0.643419 0.499767 0.64369
190 1 0.0713839 0.357078 0.500054
191 1 0.214193 0.357037 0.500037
517 1 0.785716 0.499968 0.500082
542 1 0.357071 0.499939 0.643149
639 1 0.214256 0.499945 0.92863
195 1 0.785688 0.357106 0.50009
541 1 0.214319 0.499941 0.642883
333 1 0.714362 0.285606 0.857274
198 1 0.0714211 0.0713805 0.642914
343 1 0.857214 0.428512 0.857253
200 1 0.214253 0.071363 0.642917
342 1 0.714406 0.428478 0.857365
202 1 0.3571 0.0713478 0.642934
341 1 0.571548 0.42842 0.857521
204 1 0.499999 0.0713616 0.642945
340 1 0.428486 0.428415 0.857443
206 1 0.642896 0.0714006 0.642945
207 1 0.714338 3.85543e-06 0.571506
208 1 0.785751 0.0714146 0.64293
339 1 0.285674 0.428502 0.857238
210 1 0.928589 0.0714 0.64292
211 1 0.999991 0.142811 0.571487
212 1 0.0714116 0.214234 0.642908
213 1 0.142822 0.142786 0.571482
214 1 0.214247 0.21421 0.642907
215 1 0.285654 0.142743 0.57148
216 1 0.357061 0.214107 0.642951
217 1 0.42853 0.142656 0.57148
218 1 0.499992 0.214106 0.642963
219 1 0.571439 0.1427 0.571487
220 1 0.642897 0.214183 0.64295
221 1 0.714312 0.142808 0.571495
222 1 0.785724 0.214258 0.642918
223 1 0.857155 0.142824 0.571493
224 1 0.928572 0.21425 0.642913
225 1 0.99998 0.285666 0.571486
226 1 0.0714286 0.357096 0.642899
227 1 0.14282 0.285639 0.571477
228 1 0.214288 0.357096 0.642873
229 1 0.28566 0.285586 0.571471
230 1 0.357002 0.35691 0.643069
231 1 0.428495 0.285109 0.571456
232 1 0.500007 0.357068 0.643007
233 1 0.571402 0.285228 0.571455
234 1 0.64286 0.357082 0.643013
235 1 0.71425 0.285677 0.571498
236 1 0.785683 0.357139 0.642903
237 1 0.857128 0.285678 0.571494
238 1 0.928566 0.357107 0.642911
239 1 0.999991 0.428522 0.571487
240 1 0.142868 0.428509 0.571465
241 1 0.285863 0.428586 0.571406
242 1 0.427519 0.426448 0.57135
243 1 0.572059 0.426952 0.571249
244 1 0.714052 0.428677 0.571489
245 1 0.857105 0.42854 0.571501
332 1 0.64293 0.357024 0.928741
247 1 0.0714264 0.0713851 0.785765
338 1 0.142849 0.428515 0.857192
249 1 0.214258 0.0713719 0.785776
337 1 2.74321e-05 0.428519 0.857204
251 1 0.35712 0.0713731 0.785789
336 1 0.928603 0.357082 0.928639
253 1 0.500003 0.071388 0.785801
254 1 0.571455 6.42316e-06 0.714393
255 1 0.642888 0.0714017 0.785806
256 1 0.714343 1.96364e-05 0.714389
257 1 0.785757 0.0714102 0.785795
258 1 0.857189 -6.0623e-06 0.714363
259 1 0.928595 0.0714008 0.785773
260 1 2.7662e-06 0.142819 0.714337
261 1 0.071422 0.214238 0.785756
262 1 0.142837 0.142803 0.714336
263 1 0.21425 0.214209 0.785774
264 1 0.285668 0.142769 0.714361
265 1 0.357115 0.214187 0.785793
266 1 0.428551 0.142765 0.714368
267 1 0.500003 0.214197 0.78581
268 1 0.571448 0.142786 0.714374
269 1 0.64289 0.214201 0.785813
270 1 0.714325 0.142816 0.71437
271 1 0.785751 0.214232 0.785789
272 1 0.857165 0.142832 0.714346
273 1 0.928587 0.214246 0.785764
274 1 1 0.285674 0.714331
275 1 0.0714335 0.357091 0.78576
276 1 0.142845 0.285664 0.714324
277 1 0.21425 0.357067 0.785777
278 1 0.285652 0.285594 0.714382
279 1 0.357042 0.35697 0.785913
280 1 0.428562 0.285561 0.714374
281 1 0.500007 0.357035 0.78593
282 1 0.571447 0.285579 0.714391
283 1 0.643014 0.35695 0.785992
284 1 0.71432 0.285643 0.714382
285 1 0.785821 0.357041 0.785859
286 1 0.857153 0.285683 0.714339
287 1 0.928614 0.357088 0.785784
288 1 2.96194e-05 0.428525 0.714341
289 1 0.142862 0.42852 0.714329
290 1 0.285651 0.428489 0.714401
291 1 0.428296 0.42818 0.714701
292 1 0.571862 0.428147 0.714922
293 1 0.714527 0.428412 0.714601
294 1 0.85722 0.428517 0.71439
331 1 0.571451 0.285611 0.857263
296 1 0.071421 0.0713764 0.928616
335 1 0.857196 0.285644 0.857224
298 1 0.21426 0.0713673 0.928617
334 1 0.785783 0.357059 0.928684
300 1 0.357122 0.0713671 0.928626
330 1 0.5 0.357035 0.928713
302 1 0.5 0.0713744 0.928638
329 1 0.428555 0.285604 0.857243
304 1 0.64288 0.0713828 0.928646
305 1 0.714328 -7.49915e-06 0.857239
306 1 0.78575 0.0713874 0.928643
307 1 0.857188 -1.36124e-05 0.857223
308 1 0.928594 0.0713866 0.928627
309 1 6.84985e-06 0.142812 0.857189
310 1 0.0714165 0.214223 0.928611
311 1 0.142836 0.142798 0.857189
312 1 0.214246 0.214203 0.928614
313 1 0.285685 0.142784 0.857201
314 1 0.357114 0.214192 0.928624
315 1 0.42856 0.142785 0.857213
316 1 0.499999 0.214196 0.928641
317 1 0.571442 0.142794 0.857224
318 1 0.642885 0.214201 0.92865
319 1 0.714322 0.142802 0.857224
320 1 0.785759 0.214211 0.928648
321 1 0.857175 0.142814 0.857206
322 1 0.928595 0.214226 0.928626
323 1 1.36241e-05 0.285659 0.857193
324 1 0.0714217 0.357083 0.928614
325 1 0.142834 0.285649 0.857187
326 1 0.214246 0.357068 0.928617
327 1 0.285659 0.285609 0.857229
328 1 0.357081 0.357025 0.928681
205 1 0.571458 5.19935e-06 0.57151
638 1 0.0714316 0.499948 0.928624
540 1 0.0714596 0.499949 0.6429
589 1 0.0714531 0.499951 0.785769
590 1 0.21428 0.499948 0.785788
188 1 0.785721 0.214235 0.500066
512 1 0.0713994 0.499942 0.500056
518 1 0.928561 0.499956 0.500076
176 1 0.071408 0.0713678 0.500058
177 1 0.214237 0.0713411 0.500048
178 1 0.357084 0.0713043 0.500034
179 1 0.499991 0.071308 0.500029
180 1 0.642894 0.0713591 0.500047
181 1 0.785746 0.071394 0.500062
182 1 0.92858 0.0713877 0.500063
183 1 0.0713895 0.214218 0.500054
187 1 0.642903 0.214099 0.500007
189 1 0.928559 0.214239 0.500063
196 1 0.928544 0.357098 0.500069
13 1 0.857174 0.999963 6.63645e-05
11 1 0.714316 0.999964 7.27299e-05
9 1 0.571439 0.999958 6.77418e-05
1 1 7.61444e-06 0.999954 5.1688e-05
154 1 0.857172 0.999965 0.428632
152 1 0.571455 0.999958 0.428594
151 1 0.428535 0.999933 0.428587
351 1 1.19384e-05 0.571382 6.50154e-05
352 1 0.0714093 0.642813 0.071477
353 1 0.142831 0.571381 4.45426e-05
354 1 0.214235 0.64282 0.0714593
355 1 0.285666 0.571386 5.92869e-05
356 1 0.35709 0.642834 0.0714769
357 1 0.428533 0.571405 0.000142738
358 1 0.499984 0.642845 0.0715095
359 1 0.571465 0.57141 0.000200824
360 1 0.642901 0.642847 0.0715411
361 1 0.714356 0.571399 0.000157075
362 1 0.785762 0.642829 0.0715349
363 1 0.857193 0.571388 0.000105032
364 1 0.928591 0.642817 0.071506
365 1 1.73094e-05 0.714249 7.03863e-05
366 1 0.071415 0.785675 0.0714812
367 1 0.142836 0.71425 5.33164e-05
368 1 0.214244 0.785687 0.0714701
369 1 0.285669 0.714271 7.3467e-05
370 1 0.357107 0.785698 0.0714806
371 1 0.428546 0.71429 0.000109657
372 1 0.499995 0.785704 0.0715076
373 1 0.571452 0.714299 0.000148374
374 1 0.642886 0.785708 0.0715265
375 1 0.71436 0.714302 0.000159441
376 1 0.785765 0.785705 0.0715238
377 1 0.857199 0.714266 0.000109224
378 1 0.928596 0.785681 0.0715042
379 1 1.59605e-05 0.857108 6.54234e-05
380 1 0.0714155 0.928524 0.0714757
381 1 0.142838 0.857107 5.2978e-05
382 1 0.214254 0.928523 0.0714683
383 1 0.285684 0.857116 6.10367e-05
384 1 0.357118 0.928526 0.0714735
385 1 0.428558 0.857128 8.16185e-05
386 1 0.499997 0.928532 0.0714868
387 1 0.571444 0.857137 0.000101835
388 1 0.642878 0.928539 0.0714982
389 1 0.714329 0.85714 0.000107785
390 1 0.785748 0.92854 0.0715001
391 1 0.857193 0.85713 9.35741e-05
392 1 0.928593 0.928533 0.0714908
150 1 0.28566 0.999917 0.428603
149 1 0.142824 0.99993 0.428623
511 1 0.85719 0.857128 0.428637
510 1 0.714366 0.857194 0.428615
509 1 0.571493 0.85725 0.428577
148 1 0.999999 0.999949 0.428633
111 1 0.85717 0.999949 0.285764
400 1 0.999982 0.571379 0.142909
401 1 0.0713819 0.642813 0.214321
402 1 0.142798 0.571378 0.142874
403 1 0.214195 0.642827 0.214268
404 1 0.285629 0.571379 0.142834
405 1 0.357047 0.642839 0.214207
406 1 0.428519 0.571373 0.142842
407 1 0.499943 0.642858 0.214219
408 1 0.571427 0.571374 0.142839
409 1 0.642907 0.642863 0.214258
410 1 0.714322 0.571384 0.142925
411 1 0.78574 0.642819 0.214355
412 1 0.857161 0.571382 0.142932
413 1 0.928568 0.642813 0.21435
414 1 0.999992 0.714244 0.142916
415 1 0.0713961 0.785676 0.214329
416 1 0.14281 0.71425 0.142888
417 1 0.214213 0.7857 0.214291
418 1 0.285648 0.714268 0.142863
419 1 0.357092 0.7857 0.214285
420 1 0.42853 0.714278 0.142875
421 1 0.49999 0.7857 0.214311
422 1 0.571435 0.714272 0.142912
423 1 0.642877 0.785702 0.214332
424 1 0.714335 0.714281 0.142923
425 1 0.785764 0.785706 0.214333
426 1 0.85717 0.714252 0.142936
427 1 0.928583 0.785677 0.214348
428 1 -1.87945e-06 0.857101 0.142913
429 1 0.0714055 0.928517 0.214332
430 1 0.142819 0.857103 0.142893
431 1 0.214237 0.928517 0.214309
432 1 0.285673 0.857107 0.142886
433 1 0.357108 0.928515 0.214304
434 1 0.428552 0.857111 0.142897
435 1 0.499994 0.92852 0.214313
436 1 0.571437 0.857115 0.142913
437 1 0.642879 0.928528 0.214325
438 1 0.714316 0.857119 0.142924
439 1 0.78575 0.928534 0.214334
440 1 0.857176 0.857114 0.142922
441 1 0.928586 0.928526 0.214342
109 1 0.714325 0.999943 0.285744
508 1 0.428514 0.857228 0.428559
507 1 0.285665 0.85712 0.428602
506 1 0.142838 0.857089 0.428628
505 1 1.28591e-05 0.8571 0.428637
504 1 0.8572 0.714274 0.428643
153 1 0.714333 0.999969 0.428617
449 1 0.999961 0.571378 0.285763
450 1 0.0713746 0.642812 0.357184
451 1 0.142757 0.571379 0.285708
452 1 0.214132 0.642853 0.357098
453 1 0.285544 0.571391 0.285587
454 1 0.356793 0.643049 0.356809
455 1 0.428458 0.571361 0.285488
456 1 0.499872 0.642905 0.357001
457 1 0.571407 0.57135 0.285245
458 1 0.643067 0.64311 0.356973
459 1 0.714286 0.571389 0.285746
460 1 0.785757 0.642835 0.357209
461 1 0.857142 0.571384 0.285776
462 1 0.928568 0.642813 0.357212
463 1 0.999981 0.714243 0.285771
464 1 0.0714104 0.785667 0.3572
465 1 0.142782 0.71426 0.28573
466 1 0.214222 0.785692 0.357164
467 1 0.285569 0.714333 0.285631
468 1 0.357049 0.785776 0.357094
469 1 0.428508 0.714301 0.285647
470 1 0.500005 0.785755 0.357148
471 1 0.571422 0.714275 0.285709
472 1 0.642925 0.785796 0.357146
473 1 0.714377 0.714336 0.285698
474 1 0.785789 0.785733 0.357178
475 1 0.85717 0.714255 0.285778
476 1 0.928595 0.785681 0.357207
477 1 -1.81944e-06 0.857098 0.285773
478 1 0.0714121 0.928515 0.357199
479 1 0.142815 0.857099 0.285753
480 1 0.214238 0.928513 0.357177
481 1 0.28565 0.857125 0.285717
482 1 0.357088 0.928537 0.357147
483 1 0.428548 0.85712 0.285723
484 1 0.499997 0.928543 0.357159
485 1 0.571441 0.857127 0.285737
486 1 0.642902 0.928565 0.357165
487 1 0.714334 0.857141 0.285748
488 1 0.785763 0.928552 0.357189
489 1 0.85718 0.857117 0.285768
490 1 0.92859 0.92853 0.357204
491 1 0.999973 0.571377 0.428635
492 1 0.142763 0.571373 0.42859
493 1 0.285393 0.57142 0.4284
494 1 0.427485 0.571974 0.427645
495 1 0.572557 0.571771 0.426383
496 1 0.714288 0.571435 0.428673
497 1 0.857143 0.571389 0.42865
498 1 8.71204e-06 0.714241 0.428639
499 1 0.142831 0.714234 0.428625
500 1 0.285622 0.714298 0.428552
501 1 0.428424 0.714504 0.428391
502 1 0.571565 0.714495 0.428541
503 1 0.714461 0.714433 0.428565
3 1 0.142837 0.999946 4.32144e-05
5 1 0.285688 0.999945 4.53055e-05
7 1 0.428559 0.99995 5.57417e-05
50 1 0.999995 0.999943 0.142905
52 1 0.14282 0.999932 0.142888
54 1 0.285675 0.999925 0.142879
56 1 0.428552 0.999927 0.142882
58 1 0.571436 0.999934 0.142893
60 1 0.714313 0.999943 0.142904
62 1 0.857168 0.999947 0.142908
99 1 0.999992 0.999941 0.285768
101 1 0.142813 0.999925 0.28575
103 1 0.285655 0.999914 0.285722
105 1 0.428544 0.999912 0.28572
107 1 0.57144 0.999925 0.285729
521 1 0.357062 0.642918 0.499844
522 1 0.499241 0.64492 0.499939
523 1 0.643367 0.643393 0.499971
665 1 0.428548 0.714343 0.857339
689 2 0.53578 0.570451 0.501791
686 1 0.92861 0.92855 0.928647
685 1 0.857226 0.857162 0.857263
684 1 0.785764 0.928567 0.92867
683 1 0.714359 0.85719 0.857294
297 1 0.142845 0.999955 0.857198
252 1 0.428557 0.999979 0.71438
520 1 0.214287 0.642785 0.500053
303 1 0.571446 0.999985 0.857238
301 1 0.428562 0.999971 0.857225
295 1 1.81036e-05 0.999966 0.8572
524 1 0.785825 0.642877 0.50011
250 1 0.285681 0.999958 0.714364
248 1 0.142847 0.999952 0.714344
209 1 0.85718 0.999984 0.571499
528 1 0.357114 0.785772 0.50002
529 1 0.500012 0.786277 0.500025
530 1 0.642976 0.785929 0.500062
531 1 0.785807 0.785756 0.500083
663 1 0.285668 0.714296 0.857265
203 1 0.428545 0.999969 0.571502
201 1 0.285676 0.999936 0.571489
687 2 0.532971 0.501396 0.569168
199 1 0.14284 0.999941 0.571487
197 1 1.03993e-05 0.99996 0.571491
667 1 0.571478 0.714369 0.857402
666 1 0.500004 0.785738 0.928716
662 1 0.214259 0.785693 0.928643
682 1 0.642888 0.928569 0.928676
681 1 0.571457 0.857182 0.857291
680 1 0.500003 0.928559 0.928665
679 1 0.428561 0.85716 0.857264
678 1 0.357123 0.928546 0.928646
677 1 0.285688 0.857132 0.857231
547 1 3.04794e-05 0.571383 0.571495
548 1 0.0714793 0.642804 0.64291
549 1 0.142906 0.571367 0.57147
550 1 0.214344 0.642775 0.64288
551 1 0.285941 0.571244 0.571413
552 1 0.35709 0.642919 0.643079
553 1 0.427773 0.573152 0.571339
554 1 0.499966 0.643078 0.643338
555 1 0.574539 0.574354 0.574905
556 1 0.6437 0.643688 0.643875
557 1 0.714364 0.571398 0.571594
558 1 0.785924 0.642901 0.643033
559 1 0.857192 0.571403 0.571526
560 1 0.928653 0.642829 0.642944
561 1 4.5887e-05 0.714248 0.571499
562 1 0.0714627 0.78567 0.642919
563 1 0.142885 0.714231 0.571484
564 1 0.214293 0.785665 0.642915
565 1 0.28575 0.714234 0.571479
566 1 0.357077 0.78581 0.643016
567 1 0.428505 0.714806 0.571688
568 1 0.500038 0.785921 0.643072
569 1 0.571632 0.714959 0.571714
570 1 0.643044 0.78601 0.643118
571 1 0.714495 0.714473 0.571607
572 1 0.785851 0.785789 0.643001
573 1 0.857243 0.714301 0.571528
574 1 0.928646 0.785704 0.642942
575 1 3.22821e-05 0.857108 0.571496
576 1 0.0714405 0.928529 0.642918
577 1 0.142861 0.857092 0.571489
578 1 0.21427 0.928524 0.64292
579 1 0.285695 0.857114 0.571491
580 1 0.357104 0.928578 0.642956
581 1 0.428536 0.857296 0.571551
582 1 0.500011 0.928628 0.642975
583 1 0.571504 0.857357 0.571569
584 1 0.642929 0.928657 0.642984
585 1 0.714384 0.857232 0.571533
586 1 0.785786 0.928599 0.642953
587 1 0.85721 0.857149 0.571512
588 1 0.928615 0.928555 0.64293
661 1 0.142856 0.714252 0.857209
660 1 0.0714378 0.78568 0.928635
676 1 0.214264 0.928534 0.928631
675 1 0.142854 0.857109 0.857206
674 1 0.0714319 0.928533 0.928628
673 1 3.85627e-05 0.857118 0.857215
672 1 0.928625 0.785696 0.928665
596 1 5.52134e-05 0.571383 0.714353
597 1 0.071462 0.642814 0.785777
598 1 0.142882 0.571375 0.714336
599 1 0.21427 0.64283 0.785794
600 1 0.285671 0.571404 0.714417
601 1 0.357048 0.642949 0.785966
602 1 0.428317 0.571777 0.714803
603 1 0.5 0.642979 0.786127
604 1 0.571974 0.571908 0.715574
605 1 0.64316 0.643111 0.78629
606 1 0.714577 0.571485 0.714677
607 1 0.785892 0.6429 0.785938
608 1 0.857264 0.571405 0.714424
609 1 0.928658 0.642832 0.785818
610 1 6.53504e-05 0.714251 0.714358
611 1 0.0714606 0.785676 0.785777
612 1 0.142888 0.714232 0.714336
613 1 0.214273 0.785691 0.785791
614 1 0.28569 0.714291 0.714397
615 1 0.357109 0.785756 0.785857
616 1 0.428545 0.714438 0.714525
617 1 0.500012 0.785803 0.785918
618 1 0.571508 0.71452 0.714633
619 1 0.642953 0.785839 0.785947
620 1 0.714635 0.714588 0.714716
621 1 0.785879 0.785818 0.785927
622 1 0.857287 0.714311 0.714425
623 1 0.928656 0.78571 0.785814
624 1 4.40135e-05 0.857116 0.714356
625 1 0.071442 0.928534 0.785773
626 1 0.142865 0.857099 0.714346
627 1 0.214266 0.928539 0.785785
628 1 0.285681 0.857143 0.714385
629 1 0.357122 0.928563 0.78581
630 1 0.42856 0.857201 0.714423
631 1 0.500007 0.928592 0.785833
632 1 0.571477 0.857252 0.71446
633 1 0.642906 0.928611 0.785845
634 1 0.714409 0.857266 0.714463
635 1 0.785791 0.928606 0.785833
636 1 0.85723 0.857163 0.714391
637 1 0.92862 0.928559 0.785791
671 1 0.857248 0.714294 0.857284
659 1 4.67161e-05 0.714255 0.857222
670 1 0.785806 0.785744 0.928729
658 1 0.928625 0.642825 0.928667
664 1 0.357113 0.785718 0.928677
669 1 0.714451 0.714393 0.857431
668 1 0.642909 0.785751 0.928737
645 1 4.11259e-05 0.571385 0.857216
646 1 0.0714381 0.642815 0.928633
647 1 0.142859 0.571382 0.857202
648 1 0.214258 0.642824 0.92864
649 1 0.285682 0.571395 0.857255
650 1 0.357088 0.64287 0.928725
651 1 0.428499 0.571492 0.857489
652 1 0.500002 0.642886 0.928805
653 1 0.571567 0.571512 0.857678
654 1 0.642964 0.642909 0.928854
655 1 0.714429 0.571429 0.857418
656 1 0.785811 0.642853 0.928739
657 1 0.857234 0.571399 0.857278
299 1 0.285691 0.999958 0.85721
543 1 0.500271 0.500013 0.648211
688 2 0.467192 0.500069 0.570933
246 1 1.89408e-05 0.999968 0.714346
539 1 0.928601 0.928542 0.500067
538 1 0.785772 0.928577 0.50007
537 1 0.642913 0.928619 0.500063
536 1 0.500005 0.928663 0.500049
535 1 0.357105 0.928551 0.500047
534 1 0.214259 0.928513 0.500054
533 1 0.0714277 0.92852 0.500062
532 1 0.928618 0.785692 0.500073
527 1 0.21428 0.785664 0.500057
526 1 0.0714421 0.785666 0.500064
525 1 0.928605 0.642821 0.500079
519 1 0.0714378 0.642803 0.500063
