ITEM: TIMESTEP
117
ITEM: NUMBER OF ATOMS
692
ITEM: BOX BOUNDS pp pp pp
0.0000000000000000e+00 2.2013900999999997e+01
0.0000000000000000e+00 2.2013900999999997e+01
0.0000000000000000e+00 2.2013900999999997e+01
ITEM: ATOMS id type xs ys zs
1 1 4.70865e-05 -3.24359e-05 0.000173934
2 1 0.0713814 0.0712546 0.0714611
175 1 0.857774 0.428403 0.428434
4 1 0.214235 0.0712108 0.0714222
445 1 0.498585 0.49907 0.356242
6 1 0.357127 0.0712298 0.0714304
174 1 0.716751 0.426622 0.426461
8 1 0.499995 0.0712739 0.0714672
173 1 0.57329 0.427164 0.428534
10 1 0.64285 0.0713171 0.0715116
172 1 0.422082 0.419981 0.422979
12 1 0.785709 0.0713345 0.0715355
171 1 0.283923 0.427416 0.427594
14 1 0.928572 0.0713119 0.0715203
15 1 -5.52356e-06 0.142697 0.000123848
16 1 0.0713213 0.214057 0.0714195
17 1 0.14277 0.142624 6.03282e-05
18 1 0.2141 0.213954 0.071307
196 1 0.928876 0.356878 0.500019
20 1 0.357064 0.213996 0.07131
21 1 0.428557 0.142677 3.27733e-05
22 1 0.49998 0.214058 0.0713688
23 1 0.571426 0.142727 7.65e-05
24 1 0.642853 0.21411 0.0714407
195 1 0.786856 0.356535 0.499911
26 1 0.785722 0.214122 0.0714914
27 1 0.857177 0.142726 0.000169144
28 1 0.92856 0.214104 0.0714797
350 1 0.928605 0.499909 0.0715441
30 1 0.0713163 0.356959 0.0714311
194 1 0.645931 0.355209 0.49779
32 1 0.21408 0.356907 0.0713232
33 1 0.285553 0.285429 1.93221e-05
34 1 0.356987 0.35688 0.0712196
35 1 0.428536 0.285509 -7.1937e-06
36 1 0.499968 0.356948 0.0713408
37 1 0.571423 0.285557 5.53554e-05
38 1 0.642831 0.357009 0.0714572
39 1 0.714311 0.285576 0.000165971
40 1 0.785731 0.357011 0.0715055
41 1 0.857192 0.285555 0.000178293
42 1 0.928569 0.356988 0.0714978
193 1 0.498068 0.356132 0.498619
158 1 0.428414 0.142358 0.428467
45 1 0.285543 0.428403 6.19592e-05
46 1 0.428513 0.428439 4.599e-05
47 1 0.571416 0.428484 7.73237e-05
48 1 0.714332 0.42849 0.000224792
49 1 0.857234 0.428454 0.000229287
170 1 0.142251 0.428293 0.428378
51 1 0.07134 0.0711953 0.21423
514 1 0.3557 0.498659 0.497586
53 1 0.214135 0.0710804 0.214156
169 1 -1.94175e-05 0.42843 0.428526
55 1 0.357082 0.0711045 0.214194
515 1 0.483093 0.493997 0.478628
57 1 0.499984 0.0711751 0.214245
516 1 0.655697 0.498666 0.497801
59 1 0.642847 0.0712409 0.214288
168 1 0.857578 0.285274 0.428409
61 1 0.785716 0.0712679 0.214284
167 1 0.7153 0.284439 0.427732
63 1 0.928586 0.0712525 0.21425
64 1 -6.14751e-05 0.142629 0.142816
65 1 0.0712076 0.213937 0.214113
66 1 0.142668 0.142514 0.142715
67 1 0.213792 0.21364 0.213822
68 1 0.285584 0.142494 0.142694
69 1 0.356909 0.213716 0.213895
70 1 0.42853 0.14256 0.14275
71 1 0.499962 0.213868 0.214048
72 1 0.571419 0.142628 0.142816
73 1 0.642893 0.213962 0.214128
74 1 0.714284 0.14267 0.142853
75 1 0.785795 0.213985 0.214124
76 1 0.857148 0.142663 0.142848
77 1 0.928592 0.213994 0.214154
78 1 -8.724e-05 0.2855 0.142802
79 1 0.0712042 0.356903 0.214121
80 1 0.142606 0.285408 0.142675
81 1 0.213797 0.356753 0.213851
82 1 0.285375 0.285243 0.142417
83 1 0.35657 0.356468 0.213325
84 1 0.428478 0.285348 0.142561
85 1 0.499946 0.356724 0.213877
86 1 0.571415 0.285436 0.142702
87 1 0.64285 0.356876 0.214051
88 1 0.714294 0.285512 0.142777
89 1 0.785822 0.356905 0.214058
90 1 0.857166 0.285509 0.142799
91 1 0.928577 0.35694 0.214177
92 1 -6.83965e-05 0.428428 0.142828
93 1 0.14263 0.428391 0.142717
94 1 0.285406 0.428339 0.142538
95 1 0.428395 0.428308 0.142502
96 1 0.571371 0.428399 0.142822
97 1 0.714276 0.428453 0.142832
98 1 0.857181 0.428436 0.142842
192 1 0.354683 0.35502 0.49975
100 1 0.0713456 0.0711906 0.357115
166 1 0.571428 0.285159 0.428379
102 1 0.214116 0.0710628 0.357072
190 1 0.0711727 0.356855 0.499983
104 1 0.357033 0.0709937 0.357072
165 1 0.427496 0.284513 0.427634
106 1 0.49997 0.0711524 0.357121
164 1 0.284541 0.28451 0.42806
108 1 0.642851 0.0712194 0.357147
163 1 0.142326 0.285207 0.428422
110 1 0.785804 0.0712194 0.357099
189 1 0.928708 0.213984 0.500025
112 1 0.928612 0.0712482 0.357126
113 1 -5.62754e-05 0.142579 0.285634
114 1 0.0712032 0.213908 0.357022
115 1 0.142606 0.142439 0.285551
116 1 0.213719 0.213576 0.356822
117 1 0.285393 0.142204 0.285418
118 1 0.356552 0.213153 0.35661
119 1 0.428479 0.142379 0.285523
120 1 0.49988 0.213746 0.356896
121 1 0.571405 0.14252 0.285616
122 1 0.642897 0.213833 0.356958
123 1 0.714313 0.142569 0.285632
124 1 0.786086 0.213665 0.356792
125 1 0.857252 0.142538 0.285577
126 1 0.928666 0.213952 0.357028
127 1 -9.61296e-05 0.28541 0.285559
128 1 0.071085 0.356842 0.356973
129 1 0.142305 0.285198 0.285355
130 1 0.213113 0.356379 0.356516
131 1 0.284494 0.284383 0.28453
132 1 0.354099 0.354169 0.354212
133 1 0.428295 0.284866 0.285
134 1 0.500306 0.356047 0.356037
135 1 0.571516 0.285113 0.285284
136 1 0.643356 0.356319 0.356248
137 1 0.714534 0.285229 0.28529
138 1 0.786627 0.35627 0.356338
139 1 0.857422 0.285265 0.28539
140 1 0.928758 0.356874 0.356985
141 1 -7.48434e-05 0.4284 0.285575
142 1 0.142411 0.428327 0.285415
143 1 0.284858 0.428161 0.284924
144 1 0.427727 0.427565 0.284412
145 1 0.571435 0.42828 0.285614
146 1 0.714487 0.428363 0.285264
147 1 0.857354 0.428381 0.285496
162 1 -3.7969e-05 0.285402 0.42851
187 1 0.643094 0.213712 0.499899
161 1 0.857287 0.142573 0.428543
160 1 0.714435 0.142434 0.428499
159 1 0.571394 0.142566 0.428537
186 1 0.49978 0.213956 0.49986
154 1 0.857257 -3.90884e-05 0.428601
155 1 -2.47798e-05 0.142593 0.428561
156 1 0.142632 0.142468 0.428528
157 1 0.285397 0.142259 0.428474
177 1 0.214142 0.0711237 0.500033
178 1 0.357059 0.0711051 0.500033
179 1 0.499987 0.0712481 0.500047
180 1 0.642892 0.0712804 0.500071
181 1 0.785855 0.0712835 0.500057
182 1 0.928658 0.0712894 0.500054
183 1 0.0712592 0.21394 0.500014
184 1 0.213818 0.213699 0.499974
185 1 0.356674 0.213493 0.499893
347 1 0.499963 0.499872 0.0714239
348 1 0.642826 0.499906 0.0715573
349 1 0.785767 0.499917 0.0715698
395 1 0.356729 0.499762 0.213822
396 1 0.499779 0.4997 0.214084
397 1 0.642789 0.499842 0.214337
398 1 0.785848 0.499888 0.214133
443 1 0.213625 0.499753 0.356698
444 1 0.356232 0.499549 0.356196
446 1 0.643067 0.499798 0.35746
447 1 0.786348 0.499901 0.356678
176 1 0.0713815 0.071226 0.500047
44 1 0.142732 0.42842 8.78239e-05
43 1 3.24456e-06 0.428442 0.000153982
188 1 0.786084 0.213823 0.499981
191 1 0.213303 0.356521 0.499873
31 1 0.142725 0.285484 5.70093e-05
29 1 -2.10061e-05 0.285536 0.000120483
25 1 0.714291 0.142749 0.000132574
19 1 0.285659 0.142625 2.99989e-05
13 1 0.857193 6.35594e-06 0.000217878
11 1 0.714302 -1.75803e-06 0.000198848
513 1 0.213653 0.499782 0.499777
7 1 0.428578 -8.28427e-05 0.000111613
9 1 0.571433 -3.84462e-05 0.000154797
640 1 0.356951 0.499914 0.92887
644 1 0.928739 0.499917 0.928896
643 1 0.78596 0.499943 0.929029
642 1 0.642951 0.49997 0.928872
641 1 0.500011 0.499963 0.928695
595 1 0.928986 0.49993 0.786143
594 1 0.786652 0.499833 0.786618
593 1 0.643422 0.500012 0.786357
592 1 0.499722 0.50002 0.786023
591 1 0.356398 0.499868 0.786567
639 1 0.2141 0.499895 0.928799
638 1 0.0714065 0.499907 0.928794
590 1 0.213827 0.499869 0.786119
543 1 0.495044 0.50002 0.658172
542 1 0.355507 0.498854 0.644564
589 1 0.071396 0.499913 0.786
335 1 0.857417 0.285439 0.85755
334 1 0.785871 0.356989 0.928926
333 1 0.714549 0.285418 0.857642
332 1 0.642907 0.357034 0.928843
331 1 0.571453 0.285529 0.857358
689 3 0.504239 0.472678 0.567256
198 1 0.0714253 0.0712747 0.642986
343 1 0.85751 0.428389 0.857622
200 1 0.214194 0.0711998 0.642974
342 1 0.714632 0.428472 0.857737
202 1 0.357096 0.0712045 0.642939
341 1 0.571522 0.428533 0.857299
204 1 0.500011 0.0713513 0.642945
541 1 0.213664 0.499875 0.643021
206 1 0.642915 0.0713818 0.64299
207 1 0.714432 6.56679e-05 0.571563
208 1 0.785885 0.071366 0.643026
209 1 0.857322 3.73458e-05 0.571546
210 1 0.928697 0.0713406 0.643008
211 1 2.19153e-05 0.142634 0.571521
212 1 0.0713295 0.213997 0.642998
213 1 0.14269 0.142533 0.571511
214 1 0.213919 0.213808 0.643039
215 1 0.285468 0.1424 0.571486
216 1 0.356797 0.213693 0.642957
217 1 0.428477 0.142558 0.571459
218 1 0.499907 0.214129 0.642895
219 1 0.571417 0.142733 0.571467
220 1 0.643113 0.213747 0.643087
221 1 0.714477 0.142557 0.571516
222 1 0.786101 0.213872 0.643103
223 1 0.857329 0.142629 0.571534
224 1 0.928753 0.214026 0.643031
225 1 3.28001e-05 0.285429 0.571515
226 1 0.0712846 0.356912 0.642978
227 1 0.142443 0.285286 0.571499
228 1 0.213575 0.3567 0.643001
229 1 0.284776 0.284812 0.571596
230 1 0.355386 0.355655 0.643621
231 1 0.428008 0.285072 0.571416
232 1 0.498324 0.356917 0.643966
233 1 0.57171 0.285404 0.571407
234 1 0.645633 0.355054 0.645284
235 1 0.715033 0.284858 0.571561
236 1 0.786962 0.356474 0.643488
237 1 0.857603 0.285309 0.571561
238 1 0.928939 0.356923 0.643051
239 1 7.09387e-05 0.42844 0.571502
240 1 0.14241 0.42835 0.571443
241 1 0.284432 0.428164 0.571334
242 1 0.422815 0.426155 0.571654
243 1 0.5764 0.413252 0.571406
244 1 0.715929 0.42686 0.572578
245 1 0.857767 0.428407 0.571555
340 1 0.428316 0.428343 0.857679
247 1 0.0714496 0.0713081 0.785892
339 1 0.285328 0.428327 0.857555
249 1 0.214236 0.0712508 0.785873
338 1 0.142676 0.428398 0.857402
251 1 0.357118 0.0712634 0.785853
540 1 0.0713579 0.499927 0.642989
253 1 0.500005 0.0713734 0.785872
254 1 0.57146 8.75378e-05 0.71448
255 1 0.642892 0.0714352 0.78592
256 1 0.714441 0.000208588 0.714549
257 1 0.785876 0.0714088 0.786
258 1 0.857349 0.000105129 0.714521
259 1 0.928704 0.0713712 0.785945
260 1 5.82171e-05 0.142677 0.714465
261 1 0.0713799 0.214047 0.785917
262 1 0.142748 0.142593 0.714454
263 1 0.214012 0.21388 0.785989
264 1 0.285557 0.142504 0.714439
265 1 0.35688 0.213788 0.786009
266 1 0.428521 0.142586 0.714394
267 1 0.499975 0.214071 0.785899
268 1 0.571417 0.142736 0.714422
269 1 0.642936 0.214062 0.785976
270 1 0.714472 0.1426 0.71455
271 1 0.786106 0.213868 0.786207
272 1 0.857346 0.142669 0.714523
273 1 0.92877 0.214047 0.786003
274 1 9.12926e-05 0.285481 0.714493
275 1 0.0713378 0.356936 0.785948
276 1 0.142577 0.285386 0.714487
277 1 0.213759 0.356722 0.786108
278 1 0.28501 0.284971 0.714762
279 1 0.356147 0.356164 0.786698
280 1 0.428027 0.284823 0.714768
281 1 0.50003 0.356944 0.786071
282 1 0.571401 0.285356 0.714486
283 1 0.643402 0.35666 0.786606
284 1 0.715283 0.284729 0.715267
285 1 0.786419 0.356665 0.786459
286 1 0.857671 0.28532 0.714708
287 1 0.928853 0.356941 0.786044
288 1 0.000144362 0.42845 0.714517
289 1 0.142491 0.428379 0.714505
290 1 0.28447 0.427944 0.714952
291 1 0.4258 0.426146 0.71637
292 1 0.573112 0.427463 0.714505
293 1 0.716045 0.427807 0.715775
294 1 0.857854 0.428427 0.71473
337 1 9.93057e-05 0.42843 0.857431
296 1 0.0714342 0.0713047 0.928732
336 1 0.928681 0.356974 0.928836
298 1 0.214252 0.0712597 0.928702
299 1 0.285706 -6.24604e-05 0.857306
300 1 0.357137 0.0712963 0.928679
301 1 0.428575 -1.18874e-05 0.857319
302 1 0.500002 0.0713523 0.928702
303 1 0.571448 5.97085e-05 0.857371
304 1 0.642871 0.0713958 0.928752
305 1 0.714364 0.000118333 0.857433
306 1 0.785769 0.0713982 0.928804
307 1 0.857328 0.000121405 0.857474
308 1 0.928659 0.071368 0.928805
309 1 5.7941e-05 0.142697 0.857355
310 1 0.0713709 0.214073 0.928732
311 1 0.142776 0.142624 0.857326
312 1 0.214118 0.213976 0.928735
313 1 0.285606 0.142572 0.857326
314 1 0.357075 0.214043 0.92868
315 1 0.428551 0.14269 0.857273
316 1 0.499991 0.214124 0.92867
317 1 0.571437 0.142758 0.857305
318 1 0.642876 0.214155 0.928739
319 1 0.714354 0.142748 0.857386
320 1 0.785823 0.214102 0.928857
321 1 0.857311 0.142693 0.857453
322 1 0.928653 0.214102 0.928805
323 1 4.91672e-05 0.285511 0.857381
324 1 0.0713705 0.356963 0.928751
325 1 0.142659 0.285426 0.857381
326 1 0.214083 0.356906 0.928759
327 1 0.285323 0.285223 0.85756
328 1 0.356956 0.35688 0.928827
329 1 0.428493 0.285454 0.857365
330 1 0.500011 0.357007 0.928692
197 1 8.04449e-05 -4.47427e-05 0.57153
246 1 0.000112125 -2.6051e-06 0.714468
297 1 0.142868 -5.09988e-05 0.857325
295 1 0.000107278 9.01322e-06 0.857371
511 1 0.857414 0.857349 0.428574
510 1 0.714608 0.857613 0.428483
346 1 0.356996 0.499866 0.0713624
539 1 0.928736 0.928643 0.500066
538 1 0.785936 0.92874 0.500092
537 1 0.642975 0.928724 0.50013
509 1 0.571459 0.857143 0.428687
152 1 0.571436 0.999877 0.428643
352 1 0.0713946 0.64283 0.0715213
151 1 0.428581 0.999805 0.428631
354 1 0.214171 0.642828 0.0714676
355 1 0.285573 0.571371 0.000144672
356 1 0.357064 0.642814 0.0714482
357 1 0.428536 0.571358 0.000147271
358 1 0.499992 0.642786 0.0715516
359 1 0.571441 0.571382 0.000180488
360 1 0.642847 0.642797 0.0716238
361 1 0.71437 0.571396 0.000324056
362 1 0.785787 0.642834 0.0716436
363 1 0.857286 0.571395 0.000305318
364 1 0.92864 0.642842 0.0715916
150 1 0.285641 0.999785 0.428595
366 1 0.071427 0.785724 0.0715424
148 1 3.36286e-05 0.999907 0.428598
368 1 0.214215 0.785744 0.0714918
369 1 0.285625 0.714329 0.000208942
370 1 0.357138 0.78569 0.0715256
371 1 0.428577 0.714282 0.000208874
372 1 0.500005 0.785689 0.0715816
373 1 0.571459 0.714308 0.000276193
374 1 0.642868 0.785722 0.071647
375 1 0.714396 0.714357 0.000435271
376 1 0.785794 0.785769 0.071669
377 1 0.857313 0.714357 0.000366079
378 1 0.928657 0.785754 0.0716104
379 1 8.84591e-05 0.857199 0.000233275
380 1 0.0714288 0.92854 0.0715216
381 1 0.142842 0.857178 0.000176018
382 1 0.214279 0.928502 0.0714937
109 1 0.71429 0.999903 0.285739
384 1 0.357152 0.928487 0.0715106
385 1 0.428581 0.857141 0.000187893
386 1 0.500005 0.928509 0.0715514
387 1 0.571445 0.857184 0.00025367
388 1 0.642861 0.92855 0.0715939
389 1 0.714346 0.857234 0.000324248
390 1 0.785738 0.928584 0.0716131
391 1 0.857294 0.857273 0.000348269
392 1 0.928627 0.928589 0.0715855
508 1 0.428617 0.857234 0.428664
394 1 0.213896 0.499853 0.213966
536 1 0.500077 0.928475 0.500154
534 1 0.214218 0.928535 0.500055
532 1 0.928877 0.78592 0.500074
531 1 0.786294 0.786207 0.50009
507 1 0.28559 0.857266 0.428575
400 1 -2.5405e-05 0.571369 0.142873
401 1 0.0713313 0.642833 0.214222
402 1 0.142692 0.571362 0.142785
403 1 0.214014 0.642855 0.21408
404 1 0.285493 0.571336 0.142688
405 1 0.356821 0.642945 0.213815
406 1 0.428453 0.571298 0.142705
407 1 0.499969 0.642742 0.214286
408 1 0.571352 0.571275 0.142954
409 1 0.642811 0.642764 0.214195
410 1 0.714286 0.571325 0.142904
411 1 0.785838 0.642853 0.214164
412 1 0.85721 0.571374 0.142894
413 1 0.928645 0.642851 0.214249
414 1 1.43018e-05 0.714284 0.14291
415 1 0.0713677 0.785748 0.214244
416 1 0.142754 0.714287 0.142838
417 1 0.214054 0.785853 0.214089
418 1 0.285555 0.714335 0.142717
419 1 0.357086 0.785736 0.214207
420 1 0.428557 0.714232 0.142877
421 1 0.499992 0.785689 0.2143
422 1 0.571405 0.714236 0.142948
423 1 0.642854 0.785707 0.214319
424 1 0.714313 0.714274 0.142928
425 1 0.785855 0.785828 0.214193
426 1 0.857229 0.714306 0.142923
427 1 0.928681 0.785787 0.21425
428 1 2.63824e-05 0.857156 0.142909
429 1 0.0714019 0.92852 0.214273
430 1 0.142788 0.857151 0.142848
431 1 0.214212 0.928494 0.214236
432 1 0.285687 0.857109 0.142863
433 1 0.357134 0.92845 0.214287
434 1 0.428574 0.85708 0.142919
435 1 0.5 0.928464 0.214328
436 1 0.571428 0.857101 0.142965
437 1 0.642854 0.92851 0.214349
438 1 0.714295 0.857141 0.142979
439 1 0.785742 0.928566 0.21432
440 1 0.857216 0.857193 0.142934
441 1 0.928641 0.92858 0.214277
442 1 0.0712109 0.499872 0.356985
530 1 0.643425 0.786543 0.499929
153 1 0.714365 0.99998 0.428614
506 1 0.142783 0.857179 0.428578
528 1 0.356959 0.786076 0.500118
527 1 0.214051 0.785898 0.500015
448 1 0.928774 0.499916 0.356991
449 1 -1.03233e-05 0.57138 0.285613
450 1 0.0712796 0.642865 0.35705
451 1 0.142552 0.571354 0.285508
452 1 0.213608 0.643027 0.356786
453 1 0.285135 0.571338 0.285221
454 1 0.355383 0.644276 0.355425
455 1 0.428004 0.571499 0.284885
456 1 0.500183 0.642727 0.357146
457 1 0.571277 0.571073 0.285832
458 1 0.643235 0.643209 0.356159
459 1 0.714468 0.57131 0.285354
460 1 0.786535 0.643338 0.356494
461 1 0.857377 0.571413 0.285531
462 1 0.92883 0.642916 0.357039
463 1 3.98212e-05 0.71433 0.285649
464 1 0.0713882 0.78578 0.357098
465 1 0.142593 0.714375 0.285549
466 1 0.213962 0.78594 0.356942
467 1 0.285061 0.714773 0.285079
468 1 0.35686 0.786122 0.356913
469 1 0.428536 0.714361 0.285556
470 1 0.500052 0.78578 0.357125
471 1 0.571376 0.714303 0.285648
472 1 0.642893 0.785872 0.357067
473 1 0.714568 0.714515 0.285307
474 1 0.786368 0.786349 0.356656
475 1 0.857465 0.714486 0.285489
476 1 0.928836 0.785879 0.357053
477 1 6.04849e-05 0.857185 0.285681
478 1 0.071414 0.928519 0.357145
479 1 0.142747 0.857179 0.285642
480 1 0.214199 0.928506 0.357122
481 1 0.285573 0.857236 0.2856
482 1 0.357116 0.928501 0.357155
483 1 0.428575 0.85711 0.285721
484 1 0.500024 0.928481 0.357192
485 1 0.571437 0.857129 0.28574
486 1 0.642871 0.928551 0.357196
487 1 0.714342 0.857221 0.285693
488 1 0.785874 0.928712 0.357094
489 1 0.857374 0.85734 0.285576
490 1 0.928674 0.928591 0.357141
491 1 4.97775e-05 0.571391 0.428544
492 1 0.142416 0.571358 0.42842
493 1 0.284319 0.57156 0.427943
494 1 0.424091 0.576242 0.425265
495 1 0.572571 0.571255 0.428666
496 1 0.716173 0.572589 0.426861
497 1 0.857728 0.571456 0.428453
498 1 0.000148335 0.714378 0.428563
499 1 0.142598 0.71439 0.428513
500 1 0.284892 0.714936 0.42809
501 1 0.428192 0.715272 0.428219
502 1 0.571246 0.714283 0.428701
503 1 0.716045 0.716002 0.427154
504 1 0.85782 0.714642 0.428402
505 1 9.69015e-05 0.857207 0.428595
3 1 0.142856 0.999908 0.000116531
107 1 0.571423 0.999847 0.28574
105 1 0.428561 0.999782 0.285707
101 1 0.142772 0.999818 0.285675
62 1 0.857149 0.999935 0.142926
50 1 -4.09055e-07 0.999907 0.142889
54 1 0.285691 0.999816 0.142845
60 1 0.714276 0.999918 0.142941
512 1 0.0712568 0.4999 0.499998
517 1 0.786011 0.500032 0.500117
518 1 0.928754 0.499978 0.500071
519 1 0.0713781 0.642885 0.500038
521 1 0.355255 0.64457 0.498838
149 1 0.142788 0.999837 0.428587
523 1 0.647335 0.646162 0.495191
524 1 0.787108 0.643485 0.49987
525 1 0.929011 0.643008 0.500071
526 1 0.0714384 0.785815 0.500049
399 1 0.928608 0.4999 0.214211
393 1 0.0712597 0.499884 0.214161
345 1 0.214106 0.499882 0.0713911
344 1 0.0713479 0.499898 0.0714733
52 1 0.142801 0.999843 0.142839
56 1 0.428568 0.999835 0.142879
58 1 0.571424 0.999877 0.14292
99 1 1.23015e-06 0.999886 0.285705
103 1 0.285635 0.99976 0.285659
111 1 0.857213 0.999937 0.285684
383 1 0.285712 0.857145 0.000160786
5 1 0.285719 0.999893 9.41216e-05
367 1 0.142816 0.714303 0.000180483
365 1 8.28811e-05 0.714313 0.000238126
520 1 0.2137 0.642976 0.499972
353 1 0.14277 0.571374 0.000139358
351 1 4.69731e-05 0.571381 0.000202771
533 1 0.0714538 0.928556 0.50006
535 1 0.357142 0.928525 0.500104
252 1 0.428597 0.999972 0.71442
205 1 0.571465 1 0.571557
691 3 0.504737 0.549156 0.560238
688 2 0.535697 0.549092 0.522355
687 2 0.535722 0.51079 0.560601
545 1 0.786997 0.500094 0.643267
250 1 0.285698 0.999923 0.714418
248 1 0.142859 0.999931 0.71444
546 1 0.929018 0.499986 0.64308
656 1 0.786032 0.642954 0.929171
203 1 0.428602 0.999872 0.571523
201 1 0.285662 0.999859 0.571512
199 1 0.142824 0.999885 0.571519
690 3 0.566692 0.511241 0.522219
692 3 0.567194 0.504171 0.598732
655 1 0.714754 0.571536 0.857937
673 1 0.000220813 0.857315 0.857491
672 1 0.928823 0.785878 0.928989
671 1 0.85771 0.714606 0.857853
670 1 0.786035 0.786011 0.929224
669 1 0.714877 0.714819 0.858276
654 1 0.643014 0.642962 0.929071
668 1 0.642949 0.785906 0.929049
653 1 0.571649 0.571569 0.857472
667 1 0.571548 0.714532 0.857682
666 1 0.500023 0.785812 0.928909
665 1 0.428532 0.71447 0.857594
664 1 0.357116 0.785796 0.928859
663 1 0.285343 0.714635 0.857763
662 1 0.214177 0.785851 0.928891
686 1 0.928761 0.928714 0.928915
685 1 0.857637 0.857607 0.857789
544 1 0.648612 0.499774 0.645272
684 1 0.785845 0.928734 0.928935
683 1 0.71452 0.857533 0.857712
547 1 0.000171236 0.57143 0.571529
548 1 0.0714477 0.642903 0.642998
549 1 0.142674 0.571358 0.57145
550 1 0.213654 0.642995 0.643026
551 1 0.285419 0.571314 0.571396
552 1 0.354679 0.644968 0.644804
553 1 0.415739 0.573636 0.572755
554 1 0.498137 0.642899 0.644265
555 1 0.588319 0.59281 0.577438
556 1 0.649347 0.64845 0.651446
557 1 0.715724 0.573843 0.572772
558 1 0.787505 0.643834 0.644013
559 1 0.857774 0.571652 0.571648
560 1 0.929177 0.64305 0.643136
561 1 0.000217167 0.714443 0.571557
562 1 0.071503 0.785854 0.643028
563 1 0.142653 0.714438 0.571513
564 1 0.214074 0.785932 0.643048
565 1 0.285079 0.714752 0.571527
566 1 0.356941 0.786165 0.643066
567 1 0.428361 0.713973 0.57163
568 1 0.499993 0.785816 0.64315
569 1 0.572844 0.715192 0.572358
570 1 0.643703 0.787017 0.643865
571 1 0.715196 0.715233 0.571879
572 1 0.786571 0.786504 0.643268
573 1 0.857803 0.71473 0.571675
574 1 0.929017 0.786014 0.643101
575 1 0.000168649 0.857268 0.571544
576 1 0.0714967 0.9286 0.643001
577 1 0.142821 0.857218 0.571528
578 1 0.214247 0.928586 0.642993
579 1 0.28558 0.857296 0.571541
580 1 0.357152 0.928597 0.642976
581 1 0.428639 0.857093 0.571587
582 1 0.500057 0.928607 0.64303
583 1 0.57165 0.857346 0.571729
584 1 0.643033 0.928927 0.643121
585 1 0.7147 0.857606 0.571667
586 1 0.786023 0.92889 0.643089
587 1 0.857532 0.857463 0.571576
588 1 0.928798 0.928712 0.643037
661 1 0.142763 0.7144 0.857476
660 1 0.0714847 0.785795 0.92885
682 1 0.642899 0.928678 0.928869
681 1 0.571466 0.85738 0.85756
680 1 0.500009 0.928612 0.928801
679 1 0.428535 0.8573 0.857467
678 1 0.357144 0.928576 0.928759
596 1 0.000255861 0.571446 0.714574
597 1 0.0714666 0.642918 0.786027
598 1 0.142553 0.57141 0.714551
599 1 0.213851 0.643019 0.786154
600 1 0.284575 0.571518 0.714892
601 1 0.356131 0.643694 0.786987
602 1 0.425503 0.573635 0.716214
603 1 0.500001 0.643049 0.786268
604 1 0.573363 0.57281 0.715296
605 1 0.643933 0.643796 0.786916
606 1 0.716745 0.571678 0.71641
607 1 0.786888 0.643369 0.786919
608 1 0.858125 0.571556 0.714909
609 1 0.929103 0.643007 0.786222
610 1 0.000343364 0.714456 0.714587
611 1 0.0715245 0.78587 0.786019
612 1 0.14267 0.714444 0.714555
613 1 0.214006 0.786038 0.786164
614 1 0.284801 0.71509 0.715158
615 1 0.356894 0.786138 0.7862
616 1 0.428072 0.715181 0.71511
617 1 0.499912 0.786144 0.786316
618 1 0.571124 0.715392 0.715381
619 1 0.643133 0.786429 0.786563
620 1 0.71733 0.717217 0.71726
621 1 0.786935 0.786898 0.787046
622 1 0.858316 0.714913 0.71505
623 1 0.929124 0.786073 0.786231
624 1 0.000224125 0.857308 0.714526
625 1 0.0715156 0.928626 0.785928
626 1 0.142851 0.857252 0.714488
627 1 0.214262 0.92863 0.78592
628 1 0.285606 0.857371 0.714524
629 1 0.357135 0.928652 0.785916
630 1 0.428578 0.857378 0.714553
631 1 0.500013 0.928727 0.785993
632 1 0.571482 0.857552 0.714705
633 1 0.642951 0.928867 0.786081
634 1 0.714859 0.858104 0.714961
635 1 0.786053 0.929012 0.786185
636 1 0.857632 0.857578 0.714675
637 1 0.928822 0.928753 0.78602
659 1 0.000225432 0.714406 0.857521
658 1 0.928797 0.6429 0.928961
657 1 0.857611 0.571454 0.85773
677 1 0.285633 0.857304 0.857444
676 1 0.214281 0.928581 0.928765
675 1 0.142836 0.857275 0.857434
674 1 0.0714899 0.928613 0.928799
645 1 0.000169385 0.571414 0.857489
646 1 0.0714532 0.642867 0.928835
647 1 0.14272 0.571404 0.857444
648 1 0.214141 0.642885 0.928855
649 1 0.285345 0.571447 0.857604
650 1 0.356993 0.64293 0.928993
651 1 0.428336 0.57153 0.857714
652 1 0.500035 0.642892 0.928862
529 1 0.500151 0.785599 0.500354
522 1 0.498857 0.642764 0.500174
