ITEM: TIMESTEP
86
ITEM: NUMBER OF ATOMS
736
ITEM: BOX BOUNDS pp pp pp
0.0000000000000000e+00 2.2013900999999997e+01
0.0000000000000000e+00 2.2013900999999997e+01
0.0000000000000000e+00 5.3462330999999999e+01
ITEM: ATOMS id type xs ys zs
1 1 -2.04487e-05 -2.04487e-05 0.00171523
2 1 0.0713804 0.0713804 0.0302851
3 1 0.142795 -3.36263e-05 0.00170869
4 1 0.214219 0.0713623 0.0302695
5 1 0.285643 -3.26117e-05 0.0016943
6 1 0.357086 0.0713606 0.0302529
7 1 0.428525 -1.85702e-05 0.00168248
8 1 0.49997 0.0713748 0.0302464
9 1 0.571424 -1.37481e-06 0.00168118
10 1 0.642854 0.0713902 0.0302549
11 1 0.714311 6.39531e-06 0.00169155
12 1 0.785719 0.071399 0.0302726
13 1 0.857163 -1.57815e-06 0.00170654
14 1 0.928554 0.0713969 0.0302867
15 1 -3.36263e-05 0.142795 0.00170869
16 1 0.0713623 0.214219 0.0302695
17 1 0.14277 0.14277 0.00169668
18 1 0.21418 0.21418 0.0302343
19 1 0.285616 0.142743 0.0016747
20 1 0.357055 0.214157 0.0301967
21 1 0.428511 0.142735 0.00165901
22 1 0.499967 0.214164 0.0301822
23 1 0.571425 0.142746 0.00165942
24 1 0.642878 0.214177 0.0302
25 1 0.71432 0.142769 0.00167581
26 1 0.785749 0.214205 0.03024
27 1 0.857165 0.142792 0.0016978
28 1 0.928558 0.214231 0.0302728
29 1 -3.26117e-05 0.285643 0.0016943
30 1 0.0713606 0.357086 0.0302529
31 1 0.142743 0.285616 0.0016747
32 1 0.214157 0.357055 0.0301967
33 1 0.285567 0.285567 0.00162583
34 1 0.357011 0.357011 0.030094
35 1 0.428488 0.285544 0.00159191
36 1 0.499977 0.357012 0.0300517
37 1 0.571453 0.28555 0.00159007
38 1 0.64295 0.35702 0.030082
39 1 0.714378 0.28558 0.00162247
40 1 0.785791 0.357073 0.0301965
41 1 0.857196 0.285631 0.00167508
42 1 0.928576 0.357095 0.0302544
43 1 -1.85702e-05 0.428525 0.00168248
44 1 0.0713748 0.49997 0.0302464
45 1 0.142735 0.428511 0.00165901
46 1 0.214164 0.499967 0.0301822
47 1 0.285544 0.428488 0.00159191
48 1 0.357012 0.499977 0.0300517
49 1 0.428477 0.428477 0.00151941
50 1 0.499998 0.499998 0.0299499
51 1 0.571492 0.428483 0.0015116
52 1 0.642987 0.500002 0.0300295
53 1 0.71443 0.428503 0.00158135
54 1 0.785824 0.49999 0.0301706
55 1 0.857234 0.428523 0.00165464
56 1 0.928599 0.499979 0.030244
57 1 -1.37481e-06 0.571424 0.00168118
58 1 0.0713902 0.642854 0.0302549
59 1 0.142746 0.571425 0.00165942
60 1 0.214177 0.642878 0.0302
61 1 0.28555 0.571453 0.00159007
62 1 0.35702 0.64295 0.030082
63 1 0.428483 0.571492 0.0015116
64 1 0.500002 0.642987 0.0300295
65 1 0.571507 0.571507 0.00150007
66 1 0.642997 0.642997 0.0300465
67 1 0.714453 0.571483 0.0015711
68 1 0.78584 0.642919 0.0301787
69 1 0.857256 0.571445 0.00164965
70 1 0.928613 0.642869 0.0302494
71 1 6.39531e-06 0.714311 0.00169155
72 1 0.071399 0.785719 0.0302726
73 1 0.142769 0.71432 0.00167581
74 1 0.214205 0.785749 0.03024
75 1 0.28558 0.714378 0.00162247
76 1 0.357073 0.785791 0.0301965
77 1 0.428503 0.71443 0.00158135
78 1 0.49999 0.785824 0.0301706
79 1 0.571483 0.714453 0.0015711
80 1 0.642919 0.78584 0.0301787
81 1 0.714428 0.714428 0.00160097
82 1 0.785804 0.785804 0.0302212
83 1 0.857246 0.714352 0.0016642
84 1 0.928604 0.785739 0.0302671
85 1 -1.57815e-06 0.857163 0.00170654
86 1 0.0713969 0.928554 0.0302867
87 1 0.142792 0.857165 0.0016978
88 1 0.214231 0.928558 0.0302728
89 1 0.285631 0.857196 0.00167508
90 1 0.357095 0.928576 0.0302544
91 1 0.428523 0.857234 0.00165464
92 1 0.499979 0.928599 0.030244
93 1 0.571445 0.857256 0.00164965
94 1 0.642869 0.928613 0.0302494
95 1 0.714352 0.857246 0.0016642
96 1 0.785739 0.928604 0.0302671
97 1 0.857204 0.857204 0.00168953
98 1 0.928573 0.928573 0.0302846
99 1 -2.80655e-05 -2.80655e-05 0.058912
100 1 0.0713838 0.0713838 0.0886371
101 1 0.142816 -4.43119e-05 0.0589056
102 1 0.21424 0.0713617 0.0886247
103 1 0.285671 -4.66634e-05 0.0588911
104 1 0.357104 0.071362 0.088611
105 1 0.428538 -3.19311e-05 0.0588793
106 1 0.499966 0.0713876 0.0886065
107 1 0.571409 -1.07811e-05 0.0588789
108 1 0.642821 0.0714103 0.0886157
109 1 0.714277 -8.22799e-07 0.0588908
110 1 0.785674 0.0714192 0.0886308
111 1 0.857129 -9.76193e-06 0.058906
112 1 0.928529 0.0714061 0.0886394
113 1 -4.43119e-05 0.142816 0.0589056
114 1 0.0713617 0.21424 0.0886247
115 1 0.142792 0.142792 0.0588921
116 1 0.214198 0.214198 0.0885942
117 1 0.285645 0.142768 0.0588664
118 1 0.357062 0.214161 0.0885575
119 1 0.428524 0.142776 0.0588496
120 1 0.499956 0.214198 0.0885461
121 1 0.571404 0.142794 0.0588524
122 1 0.642841 0.214208 0.0885701
123 1 0.714277 0.142808 0.058874
124 1 0.785675 0.214265 0.0886116
125 1 0.85712 0.142826 0.0588986
126 1 0.928516 0.214263 0.0886301
127 1 -4.66634e-05 0.285671 0.0588911
128 1 0.071362 0.357104 0.088611
129 1 0.142768 0.285645 0.0588664
130 1 0.214161 0.357062 0.0885575
131 1 0.285577 0.285577 0.0587951
132 1 0.356878 0.356878 0.0884004
133 1 0.4285 0.285571 0.0587504
134 1 0.499965 0.356968 0.0883543
135 1 0.571432 0.28558 0.0587501
136 1 0.64313 0.356837 0.0883834
137 1 0.714359 0.285596 0.0587989
138 1 0.785739 0.357105 0.0885693
139 1 0.857143 0.28567 0.0588734
140 1 0.928528 0.357121 0.0886153
141 1 -3.19311e-05 0.428538 0.0588793
142 1 0.0713876 0.499966 0.0886065
143 1 0.142776 0.428524 0.0588496
144 1 0.214198 0.499956 0.0885461
145 1 0.285571 0.4285 0.0587504
146 1 0.356968 0.499965 0.0883543
147 1 0.428447 0.428447 0.0585917
148 1 0.500049 0.500049 0.0880162
149 1 0.571552 0.428454 0.0585719
150 1 0.643088 0.500027 0.0883272
151 1 0.714403 0.428528 0.0587415
152 1 0.785769 0.499996 0.0885418
153 1 0.857168 0.428545 0.0588497
154 1 0.928554 0.499979 0.0886064
155 1 -1.07811e-05 0.571409 0.0588789
156 1 0.0714103 0.642821 0.0886157
157 1 0.142794 0.571404 0.0588524
158 1 0.214208 0.642841 0.0885701
159 1 0.28558 0.571432 0.0587501
160 1 0.356837 0.64313 0.0883834
161 1 0.428454 0.571552 0.0585719
162 1 0.500027 0.643088 0.0883272
163 1 0.571591 0.571591 0.0585473
164 1 0.643323 0.643323 0.0883102
165 1 0.714447 0.57148 0.0587243
166 1 0.785821 0.642903 0.0885527
167 1 0.857196 0.57143 0.0588438
168 1 0.928578 0.642839 0.0886117
169 1 -8.22798e-07 0.714277 0.0588908
170 1 0.0714192 0.785674 0.0886308
171 1 0.142808 0.714277 0.058874
172 1 0.214265 0.785675 0.0886116
173 1 0.285596 0.714359 0.0587989
174 1 0.357105 0.785739 0.0885693
175 1 0.428528 0.714403 0.0587415
176 1 0.499996 0.785769 0.0885418
177 1 0.57148 0.714447 0.0587243
178 1 0.642903 0.785821 0.0885527
179 1 0.714445 0.714445 0.0587658
180 1 0.785739 0.785739 0.0885992
181 1 0.857202 0.714315 0.058862
182 1 0.928571 0.785696 0.0886269
183 1 -9.76193e-06 0.857129 0.058906
184 1 0.0714061 0.928529 0.0886394
185 1 0.142826 0.85712 0.0588986
186 1 0.214263 0.928516 0.0886301
187 1 0.28567 0.857143 0.0588734
188 1 0.357121 0.928528 0.0886153
189 1 0.428545 0.857168 0.0588497
190 1 0.499979 0.928554 0.0886064
191 1 0.57143 0.857196 0.0588438
192 1 0.642839 0.928578 0.0886117
193 1 0.714315 0.857202 0.058862
194 1 0.785696 0.928571 0.0886269
195 1 0.857158 0.857158 0.0588923
196 1 0.92855 0.92855 0.0886384
197 1 -3.81371e-05 -3.81371e-05 0.117852
198 1 0.0713796 0.0713796 0.1472
199 1 0.142828 0.999936 0.117848
200 1 0.214247 0.0713519 0.147194
201 1 0.285692 0.999921 0.117841
202 1 0.357112 0.0713527 0.147188
203 1 0.428547 -6.1022e-05 0.117834
204 1 0.499957 0.071407 0.147187
205 1 0.571389 -2.46348e-05 0.117835
206 1 0.642785 0.0714464 0.147192
207 1 0.714237 -5.32111e-06 0.117842
208 1 0.785638 0.0714355 0.147197
209 1 0.857096 -1.51578e-05 0.11785
210 1 0.928508 0.0714095 0.147201
211 1 0.999936 0.142828 0.117848
212 1 0.0713519 0.214247 0.147194
213 1 0.142797 0.142797 0.11784
214 1 0.214208 0.214208 0.147181
215 1 0.285655 0.142764 0.117823
216 1 0.357062 0.214167 0.147163
217 1 0.428529 0.142793 0.117814
218 1 0.499936 0.214325 0.147163
219 1 0.571373 0.142845 0.11782
220 1 0.642722 0.21439 0.147188
221 1 0.714212 0.14287 0.117837
222 1 0.785591 0.214328 0.147192
223 1 0.857071 0.142856 0.117847
224 1 0.928477 0.214283 0.147197
225 1 0.999921 0.285692 0.117841
226 1 0.0713527 0.357112 0.147188
227 1 0.142764 0.285655 0.117823
228 1 0.214167 0.357062 0.147163
229 1 0.285548 0.285548 0.117765
230 1 0.356836 0.356836 0.147036
231 1 0.428474 0.285504 0.11773
232 1 0.499898 0.35729 0.146958
233 1 0.57139 0.285574 0.117746
234 1 0.642558 0.357349 0.147173
235 1 0.714217 0.285716 0.117813
236 1 0.785518 0.357201 0.147188
237 1 0.857054 0.28572 0.117837
238 1 0.928459 0.357143 0.147192
239 1 -6.1022e-05 0.428547 0.117834
240 1 0.071407 0.499957 0.147187
241 1 0.142793 0.428529 0.117814
242 1 0.214325 0.499936 0.147163
243 1 0.285504 0.428474 0.11773
244 1 0.35729 0.499898 0.146958
245 1 0.427679 0.427679 0.117304
246 1 0.500633 0.500633 0.143382
247 1 0.572512 0.42748 0.117187
248 1 0.642571 0.500045 0.146996
249 1 0.714366 0.428552 0.117745
250 1 0.785531 0.499992 0.147172
251 1 0.857074 0.428566 0.117822
252 1 0.928484 0.499974 0.147189
253 1 -2.46348e-05 0.571389 0.117835
254 1 0.0714464 0.642785 0.147192
255 1 0.142845 0.571373 0.11782
256 1 0.21439 0.642722 0.147188
257 1 0.285574 0.57139 0.117746
258 1 0.357349 0.642558 0.147173
259 1 0.42748 0.572512 0.117187
260 1 0.500045 0.642571 0.146996
261 1 0.572847 0.572847 0.117079
262 1 0.642769 0.642769 0.147146
263 1 0.714471 0.571489 0.117728
264 1 0.785633 0.64281 0.14718
265 1 0.85712 0.571406 0.117819
266 1 0.92853 0.642808 0.14719
267 1 -5.32111e-06 0.714237 0.117842
268 1 0.0714355 0.785638 0.147197
269 1 0.14287 0.714212 0.117837
270 1 0.214328 0.785591 0.147192
271 1 0.285716 0.714217 0.117813
272 1 0.357201 0.785518 0.147188
273 1 0.428552 0.714366 0.117745
274 1 0.499992 0.785531 0.147172
275 1 0.571489 0.714471 0.117728
276 1 0.64281 0.785633 0.14718
277 1 0.714326 0.714326 0.117796
278 1 0.785672 0.785672 0.147187
279 1 0.857135 0.714261 0.11783
280 1 0.928548 0.785665 0.147196
281 1 -1.51578e-05 0.857096 0.11785
282 1 0.0714095 0.928508 0.147201
283 1 0.142856 0.857071 0.117847
284 1 0.214283 0.928477 0.147197
285 1 0.28572 0.857054 0.117837
286 1 0.357143 0.928459 0.147192
287 1 0.428566 0.857074 0.117822
288 1 0.499974 0.928484 0.147189
289 1 0.571406 0.85712 0.117819
290 1 0.642808 0.92853 0.14719
291 1 0.714261 0.857135 0.11783
292 1 0.785665 0.928548 0.147196
293 1 0.857118 0.857118 0.117843
294 1 0.928534 0.928534 0.1472
295 1 0.999956 0.999956 0.176533
296 1 0.0713766 0.0713766 0.205863
297 1 0.14283 0.999926 0.176532
298 1 0.214244 0.0713484 0.205863
299 1 0.285698 0.999904 0.176529
300 1 0.357109 0.0713482 0.205861
301 1 0.428548 0.99992 0.176526
302 1 0.499955 0.0714019 0.205858
303 1 0.571378 -3.3446e-05 0.176525
304 1 0.642783 0.0714418 0.205856
305 1 0.714219 -9.42572e-06 0.176528
306 1 0.785636 0.0714316 0.205859
307 1 0.857082 -1.93535e-05 0.176532
308 1 0.928505 0.0714063 0.205861
309 1 0.999926 0.14283 0.176532
310 1 0.0713484 0.214244 0.205863
311 1 0.142796 0.142796 0.17653
312 1 0.214202 0.214202 0.205866
313 1 0.28566 0.142771 0.176526
314 1 0.357057 0.214159 0.205874
315 1 0.428528 0.142837 0.176522
316 1 0.499934 0.214316 0.205868
317 1 0.571342 0.142936 0.176522
318 1 0.642723 0.214382 0.205848
319 1 0.714175 0.142909 0.176526
320 1 0.785591 0.214323 0.205855
321 1 0.857048 0.142866 0.17653
322 1 0.928476 0.21428 0.20586
323 1 0.999904 0.285698 0.176529
324 1 0.0713482 0.357109 0.205861
325 1 0.142771 0.28566 0.176526
326 1 0.214159 0.357057 0.205874
327 1 0.285587 0.285587 0.17652
328 1 0.356827 0.356827 0.205985
329 1 0.428508 0.285675 0.176515
330 1 0.499896 0.357281 0.206057
331 1 0.571135 0.286129 0.176515
332 1 0.642562 0.35734 0.205844
333 1 0.714064 0.285841 0.176519
334 1 0.785521 0.357195 0.205848
335 1 0.856998 0.285744 0.176526
336 1 0.928458 0.357139 0.205857
337 1 0.99992 0.428548 0.176526
338 1 0.0714019 0.499955 0.205858
339 1 0.142837 0.428528 0.176522
340 1 0.214316 0.499934 0.205868
341 1 0.285675 0.428508 0.176515
342 1 0.357281 0.499896 0.206057
343 1 0.426745 0.426745 0.176512
344 1 0.500636 0.500636 0.209645
345 1 0.569979 0.429572 0.176511
346 1 0.642575 0.500041 0.206017
347 1 0.713754 0.428722 0.176514
348 1 0.785536 0.499989 0.205858
349 1 0.856955 0.428581 0.176522
350 1 0.928483 0.499971 0.205856
351 1 -3.3446e-05 0.571378 0.176525
352 1 0.0714418 0.642783 0.205856
353 1 0.142936 0.571342 0.176522
354 1 0.214382 0.642723 0.205848
355 1 0.286129 0.571135 0.176515
356 1 0.35734 0.642562 0.205844
357 1 0.429572 0.569979 0.176511
358 1 0.500041 0.642575 0.206017
359 1 0.570687 0.570687 0.17651
360 1 0.642772 0.642772 0.205868
361 1 0.713909 0.571316 0.176514
362 1 0.785636 0.642809 0.205854
363 1 0.85701 0.571385 0.176522
364 1 0.928529 0.642806 0.205857
365 1 -9.42572e-06 0.714219 0.176528
366 1 0.0714316 0.785636 0.205859
367 1 0.142909 0.714175 0.176526
368 1 0.214323 0.785591 0.205855
369 1 0.285841 0.714064 0.176519
370 1 0.357195 0.785521 0.205848
371 1 0.428722 0.713754 0.176514
372 1 0.499989 0.785536 0.205858
373 1 0.571316 0.713909 0.176514
374 1 0.642809 0.785636 0.205854
375 1 0.714198 0.714198 0.176518
376 1 0.785671 0.785671 0.205859
377 1 0.857089 0.714231 0.176525
378 1 0.928545 0.785662 0.20586
379 1 -1.93535e-05 0.857082 0.176532
380 1 0.0714063 0.928505 0.205861
381 1 0.142866 0.857048 0.17653
382 1 0.21428 0.928476 0.20586
383 1 0.285744 0.856998 0.176526
384 1 0.357139 0.928458 0.205857
385 1 0.428581 0.856955 0.176522
386 1 0.499971 0.928483 0.205856
387 1 0.571385 0.85701 0.176522
388 1 0.642806 0.928529 0.205857
389 1 0.714231 0.857089 0.176525
390 1 0.785662 0.928545 0.20586
391 1 0.857101 0.857101 0.17653
392 1 0.928531 0.928531 0.205861
393 1 0.999956 0.999956 0.235192
394 1 0.142823 0.999932 0.235193
395 1 0.285688 0.999917 0.235195
396 1 0.428542 0.999934 0.235195
397 1 0.571384 0.99997 0.235194
398 1 0.714232 0.999988 0.235192
399 1 0.857091 0.999979 0.235192
400 1 0.999932 0.142823 0.235193
401 1 0.142791 0.142791 0.235198
402 1 0.285649 0.142757 0.235206
403 1 0.428524 0.142783 0.235207
404 1 0.57137 0.142834 0.235201
405 1 0.714209 0.142861 0.235192
406 1 0.857067 0.142849 0.235191
407 1 0.999917 0.285688 0.235195
408 1 0.142757 0.285649 0.235206
409 1 0.28554 0.28554 0.235249
410 1 0.428467 0.285491 0.235273
411 1 0.571387 0.285558 0.235257
412 1 0.714218 0.285705 0.235203
413 1 0.857054 0.285712 0.235192
414 1 0.999934 0.428542 0.235195
415 1 0.142783 0.428524 0.235207
416 1 0.285491 0.428467 0.235273
417 1 0.427657 0.427657 0.235682
418 1 0.572539 0.427442 0.235801
419 1 0.714373 0.428543 0.235257
420 1 0.857076 0.428559 0.235199
421 1 0.99997 0.571384 0.235194
422 1 0.142834 0.57137 0.235201
423 1 0.285558 0.571387 0.235257
424 1 0.427442 0.572539 0.235801
425 1 0.572882 0.572882 0.235909
426 1 0.714476 0.571483 0.235271
427 1 0.85712 0.571401 0.235202
428 1 0.999988 0.714232 0.235192
429 1 0.142861 0.714209 0.235192
430 1 0.285705 0.714218 0.235203
431 1 0.428543 0.714373 0.235257
432 1 0.571483 0.714476 0.235271
433 1 0.714324 0.714324 0.235216
434 1 0.857132 0.714257 0.235197
435 1 0.999979 0.857091 0.235192
436 1 0.142849 0.857067 0.235191
437 1 0.285712 0.857054 0.235192
438 1 0.428559 0.857076 0.235199
439 1 0.571401 0.85712 0.235202
440 1 0.714257 0.857132 0.235197
441 1 0.857114 0.857114 0.235194
736 2 0.487941 0.487941 0.176514
442 1 0.0713775 0.0713775 0.26453
443 1 0.214235 0.0713538 0.264537
444 1 0.3571 0.0713516 0.264543
445 1 0.49996 0.0713758 0.264544
446 1 0.642813 0.0713993 0.264538
447 1 0.785665 0.0714099 0.264531
448 1 0.92852 0.0713989 0.264528
449 1 0.0713538 0.214235 0.264537
450 1 0.214189 0.214189 0.264556
451 1 0.357052 0.214143 0.26458
452 1 0.49995 0.214176 0.264586
453 1 0.642837 0.214193 0.264568
454 1 0.78567 0.214255 0.26454
455 1 0.928509 0.214258 0.264532
456 1 0.0713516 0.3571 0.264543
457 1 0.214143 0.357052 0.26458
458 1 0.356859 0.356859 0.264714
459 1 0.499953 0.356939 0.264748
460 1 0.643112 0.356837 0.264721
461 1 0.785739 0.357093 0.264569
462 1 0.928523 0.357115 0.264539
463 1 0.0713758 0.49996 0.264544
464 1 0.214176 0.49995 0.264586
465 1 0.356939 0.499953 0.264748
466 1 0.500042 0.500042 0.265066
467 1 0.643102 0.500015 0.264773
468 1 0.785776 0.499985 0.264589
469 1 0.928549 0.49997 0.264544
470 1 0.0713993 0.642813 0.264538
471 1 0.214193 0.642837 0.264568
472 1 0.356837 0.643112 0.264721
473 1 0.500015 0.643102 0.264773
474 1 0.6433 0.6433 0.264788
475 1 0.78582 0.642895 0.264582
476 1 0.928572 0.642829 0.264541
477 1 0.0714099 0.785665 0.264531
478 1 0.214255 0.78567 0.26454
479 1 0.357093 0.785739 0.264569
480 1 0.499985 0.785776 0.264589
481 1 0.642895 0.78582 0.264582
482 1 0.785731 0.785731 0.26455
483 1 0.928562 0.785685 0.264534
484 1 0.0713989 0.92852 0.264528
485 1 0.214258 0.928509 0.264532
486 1 0.357115 0.928523 0.264539
487 1 0.49997 0.928549 0.264544
488 1 0.642829 0.928572 0.264541
489 1 0.785685 0.928562 0.264534
490 1 0.92854 0.92854 0.264529
491 1 0.999962 0.999962 0.293883
492 1 0.0713821 0.0713821 0.323102
493 1 0.142815 0.999947 0.293886
494 1 0.214233 0.0713701 0.323112
495 1 0.285673 0.999945 0.293895
496 1 0.357096 0.0713704 0.323123
497 1 0.428535 0.999958 0.293901
498 1 0.499964 0.0713815 0.323127
499 1 0.571396 0.999977 0.293901
500 1 0.64283 0.071392 0.323122
501 1 0.714257 0.999986 0.293895
502 1 0.78569 0.0713968 0.323111
503 1 0.857111 0.999979 0.293886
504 1 0.928538 0.0713944 0.323101
505 1 0.999947 0.142815 0.293886
506 1 0.0713701 0.214233 0.323112
507 1 0.142791 0.142791 0.293895
508 1 0.214206 0.214206 0.323134
509 1 0.285647 0.142766 0.293911
510 1 0.357075 0.214194 0.323157
511 1 0.428521 0.142771 0.29392
512 1 0.499961 0.214202 0.323166
513 1 0.571394 0.142788 0.293918
514 1 0.642845 0.21421 0.323155
515 1 0.71426 0.142803 0.293905
516 1 0.785708 0.214226 0.323131
517 1 0.857105 0.142822 0.29389
518 1 0.928538 0.214242 0.323111
519 1 0.999945 0.285673 0.293895
520 1 0.0713704 0.357096 0.323123
521 1 0.142766 0.285647 0.293911
522 1 0.214194 0.357075 0.323157
523 1 0.285573 0.285573 0.293964
524 1 0.357044 0.357044 0.323219
525 1 0.428493 0.285564 0.293992
526 1 0.499968 0.357048 0.323246
527 1 0.571423 0.285574 0.293991
528 1 0.642897 0.357052 0.323227
529 1 0.714346 0.28559 0.293959
530 1 0.785735 0.35709 0.323159
531 1 0.857129 0.285669 0.293905
532 1 0.928548 0.357102 0.323123
533 1 0.999958 0.428535 0.293901
534 1 0.0713815 0.499964 0.323127
535 1 0.142771 0.428521 0.29392
536 1 0.214202 0.499961 0.323166
537 1 0.285564 0.428493 0.293992
538 1 0.357048 0.499968 0.323246
539 1 0.428447 0.428447 0.294112
540 1 0.499985 0.499985 0.323308
541 1 0.571527 0.428454 0.29413
542 1 0.642925 0.499988 0.323262
543 1 0.714389 0.428515 0.293999
544 1 0.785756 0.499979 0.323175
545 1 0.857153 0.428538 0.29392
546 1 0.928564 0.49997 0.32313
547 1 0.999977 0.571396 0.293901
548 1 0.071392 0.64283 0.323122
549 1 0.142788 0.571394 0.293918
550 1 0.21421 0.642845 0.323155
551 1 0.285574 0.571423 0.293991
552 1 0.357052 0.642897 0.323227
553 1 0.428454 0.571527 0.29413
554 1 0.499988 0.642925 0.323262
555 1 0.571562 0.571562 0.294152
556 1 0.642934 0.642934 0.32325
557 1 0.71443 0.571465 0.294012
558 1 0.78577 0.642875 0.323171
559 1 0.85718 0.571415 0.293925
560 1 0.928575 0.642841 0.323126
561 1 0.999986 0.714257 0.293895
562 1 0.0713968 0.78569 0.323111
563 1 0.142803 0.71426 0.293905
564 1 0.214226 0.785708 0.323131
565 1 0.28559 0.714346 0.293959
566 1 0.35709 0.785735 0.323159
567 1 0.428515 0.714389 0.293999
568 1 0.499979 0.785756 0.323175
569 1 0.571465 0.71443 0.294012
570 1 0.642875 0.78577 0.323171
571 1 0.714425 0.714425 0.293986
572 1 0.785748 0.785748 0.323144
573 1 0.857182 0.714294 0.293914
574 1 0.92857 0.785704 0.323115
575 1 0.999979 0.857111 0.293886
576 1 0.0713944 0.928538 0.323101
577 1 0.142822 0.857105 0.29389
578 1 0.214242 0.928538 0.323111
579 1 0.285669 0.857129 0.293905
580 1 0.357102 0.928548 0.323123
581 1 0.428538 0.857153 0.29392
582 1 0.49997 0.928564 0.32313
583 1 0.571415 0.85718 0.293925
584 1 0.642841 0.928575 0.323126
585 1 0.714294 0.857182 0.293914
586 1 0.785704 0.92857 0.323115
587 1 0.857138 0.857138 0.293895
588 1 0.928551 0.928551 0.323103
589 1 0.999969 0.999969 0.352831
590 1 0.071384 0.071384 0.381457
591 1 0.142811 0.999961 0.352836
592 1 0.214228 0.0713763 0.381466
593 1 0.285666 0.999961 0.352846
594 1 0.35709 0.0713757 0.381477
595 1 0.428532 0.999969 0.352855
596 1 0.499964 0.0713812 0.381483
597 1 0.571403 0.999979 0.352856
598 1 0.64284 0.0713891 0.381478
599 1 0.714271 0.999984 0.352848
600 1 0.785704 0.0713938 0.381467
601 1 0.857126 0.999979 0.352837
602 1 0.928549 0.0713919 0.381457
603 1 0.999961 0.142811 0.352836
604 1 0.0713763 0.214228 0.381466
605 1 0.142799 0.142799 0.352844
606 1 0.214213 0.214213 0.381484
607 1 0.285654 0.14279 0.35286
608 1 0.357078 0.214204 0.381505
609 1 0.428525 0.142791 0.352871
610 1 0.499963 0.214205 0.381514
611 1 0.571401 0.142799 0.352871
612 1 0.642848 0.214213 0.381506
613 1 0.714271 0.142807 0.352859
614 1 0.785714 0.214225 0.381485
615 1 0.857123 0.142814 0.352843
616 1 0.92855 0.214234 0.381466
617 1 0.999961 0.285666 0.352846
618 1 0.0713757 0.35709 0.381477
619 1 0.14279 0.285654 0.35286
620 1 0.214204 0.357078 0.381505
621 1 0.285635 0.285635 0.352894
622 1 0.357067 0.357067 0.381546
623 1 0.428517 0.285629 0.352919
624 1 0.499966 0.357066 0.381566
625 1 0.571412 0.285634 0.35292
626 1 0.642868 0.357073 0.381552
627 1 0.714294 0.285646 0.352896
628 1 0.785732 0.357087 0.381509
629 1 0.857135 0.285664 0.35286
630 1 0.928559 0.357094 0.381479
631 1 0.999969 0.428532 0.352855
632 1 0.0713812 0.499964 0.381483
633 1 0.142791 0.428525 0.352871
634 1 0.214205 0.499963 0.381514
635 1 0.285629 0.428517 0.352919
636 1 0.357066 0.499966 0.381566
637 1 0.428512 0.428512 0.352972
638 1 0.499973 0.499973 0.381599
639 1 0.571435 0.428518 0.352978
640 1 0.642884 0.499977 0.381577
641 1 0.714318 0.428529 0.352927
642 1 0.785748 0.499975 0.381524
643 1 0.857149 0.428534 0.352875
644 1 0.92857 0.49997 0.381486
645 1 0.999979 0.571403 0.352856
646 1 0.0713891 0.64284 0.381478
647 1 0.142799 0.571401 0.352871
648 1 0.214213 0.642848 0.381506
649 1 0.285634 0.571412 0.35292
650 1 0.357073 0.642868 0.381552
651 1 0.428518 0.571435 0.352978
652 1 0.499977 0.642884 0.381577
653 1 0.571446 0.571446 0.352987
654 1 0.642885 0.642885 0.381565
655 1 0.714333 0.571432 0.352935
656 1 0.785752 0.642867 0.381519
657 1 0.857162 0.571414 0.352879
658 1 0.928577 0.642848 0.381483
659 1 0.999984 0.714271 0.352848
660 1 0.0713938 0.785704 0.381467
661 1 0.142807 0.714271 0.352859
662 1 0.214225 0.785714 0.381485
663 1 0.285646 0.714294 0.352896
664 1 0.357087 0.785732 0.381509
665 1 0.428529 0.714318 0.352927
666 1 0.499975 0.785748 0.381524
667 1 0.571432 0.714333 0.352935
668 1 0.642867 0.785752 0.381519
669 1 0.714324 0.714324 0.352912
670 1 0.785738 0.785738 0.381496
671 1 0.857162 0.71429 0.352868
672 1 0.928573 0.785715 0.381471
673 1 0.999979 0.857126 0.352837
674 1 0.0713919 0.928549 0.381457
675 1 0.142814 0.857123 0.352843
676 1 0.214234 0.92855 0.381466
677 1 0.285664 0.857135 0.35286
678 1 0.357094 0.928559 0.381479
679 1 0.428534 0.857149 0.352875
680 1 0.49997 0.92857 0.381486
681 1 0.571414 0.857162 0.352879
682 1 0.642848 0.928577 0.381483
683 1 0.71429 0.857162 0.352868
684 1 0.785715 0.928573 0.381471
685 1 0.857145 0.857145 0.352849
686 1 0.928559 0.928559 0.381459
687 1 0.999973 0.999973 0.410024
688 1 0.142804 0.999967 0.410027
689 1 0.285654 0.999967 0.410035
690 1 0.428525 0.999974 0.410043
691 1 0.571409 0.999982 0.410044
692 1 0.714285 0.999985 0.410038
693 1 0.857139 0.999981 0.410029
694 1 0.999967 0.142804 0.410027
695 1 0.142794 0.142794 0.410032
696 1 0.285643 0.142782 0.410044
697 1 0.428519 0.142779 0.410053
698 1 0.571407 0.142784 0.410054
699 1 0.714285 0.142795 0.410045
700 1 0.857138 0.142804 0.410033
701 1 0.999967 0.285654 0.410035
702 1 0.142782 0.285643 0.410044
703 1 0.285626 0.285626 0.410065
704 1 0.428511 0.285617 0.410082
705 1 0.571415 0.285621 0.410084
706 1 0.714303 0.285635 0.410068
707 1 0.85715 0.28565 0.410046
708 1 0.999974 0.428525 0.410043
709 1 0.142779 0.428519 0.410053
710 1 0.285617 0.428511 0.410082
711 1 0.428508 0.428508 0.410111
712 1 0.571428 0.428512 0.410114
713 1 0.714324 0.42852 0.410089
714 1 0.857167 0.428526 0.410057
715 1 0.999982 0.571409 0.410044
716 1 0.142784 0.571407 0.410054
717 1 0.285621 0.571415 0.410084
718 1 0.428512 0.571428 0.410114
719 1 0.571434 0.571434 0.410119
720 1 0.714334 0.57143 0.410094
721 1 0.857177 0.571418 0.41006
722 1 0.999985 0.714285 0.410038
723 1 0.142795 0.714285 0.410045
724 1 0.285635 0.714303 0.410068
725 1 0.42852 0.714324 0.410089
726 1 0.57143 0.714334 0.410094
727 1 0.714325 0.714325 0.410078
728 1 0.857173 0.714302 0.410052
729 1 0.999981 0.857139 0.410029
730 1 0.142804 0.857138 0.410033
731 1 0.28565 0.85715 0.410046
732 1 0.428526 0.857167 0.410057
733 1 0.571418 0.857177 0.41006
734 1 0.714302 0.857173 0.410052
735 1 0.857156 0.857156 0.410038
