ITEM: TIMESTEP
69
ITEM: NUMBER OF ATOMS
688
ITEM: BOX BOUNDS pp pp pp
0.0000000000000000e+00 2.2013900999999997e+01
0.0000000000000000e+00 2.2013900999999997e+01
0.0000000000000000e+00 2.2013900999999997e+01
ITEM: ATOMS id type x y z c_pot
1 1 22.0138 3.97129e-05 8.6357e-06 -8.94936
2 1 1.57219 1.57233 1.5722 -8.94923
3 1 3.14473 7.63799e-05 -7.3163e-05 -8.94967
4 1 4.71711 1.57229 1.57215 -8.94968
448 1 20.4424 11.0071 7.86196 -8.9495
6 1 7.86203 1.57227 1.57211 -8.94954
175 1 18.8718 9.434 9.43413 -8.95089
8 1 11.007 1.57224 1.57209 -8.94957
174 1 15.7341 9.42825 9.42835 -8.94483
10 1 14.1519 1.57224 1.57215 -8.94954
11 1 15.7243 6.50061e-05 -8.22285e-05 -8.94957
12 1 17.2969 1.57219 1.57214 -8.94955
7 1 9.4345 8.86402e-05 -0.000102449 -8.9496
14 1 20.4415 1.57235 1.57232 -8.94948
447 1 17.3001 11.008 7.86233 -8.95159
16 1 1.57223 4.71714 1.57225 -8.94978
446 1 14.1636 11.0112 7.85241 -8.97687
18 1 4.71655 4.71659 1.57142 -8.94951
445 1 11.103 11.0052 7.64196 -8.12112
20 1 7.86182 4.71657 1.57161 -8.94913
56 1 9.4345 0.000241021 3.14426 -8.94953
22 1 11.0069 4.71644 1.57159 -8.94939
444 1 7.8863 11.0127 7.87557 -8.87286
24 1 14.1521 4.71638 1.57158 -8.94968
443 1 4.72007 11.0076 7.86309 -8.94068
26 1 17.2977 4.71622 1.57148 -8.9483
442 1 1.57209 11.0069 7.86164 -8.94765
28 1 20.4418 4.71703 1.57224 -8.94959
397 1 14.1615 11.0076 4.70742 -8.9426
30 1 1.57227 7.86206 1.57227 -8.94945
396 1 11.0119 11.0075 4.72028 -9.00156
32 1 4.71694 7.86224 1.57225 -8.94984
395 1 7.86512 11.0075 4.72094 -8.94627
34 1 7.86172 7.86185 1.57096 -8.95207
35 1 9.43421 6.28894 -0.000361858 -8.94949
36 1 11.0064 7.86108 1.57025 -8.95037
37 1 12.5794 6.28893 -0.000395736 -8.94955
38 1 14.1532 7.86061 1.56916 -8.95192
518 1 20.4426 11.0072 11.0067 -8.94971
40 1 17.2977 7.86161 1.57167 -8.94947
350 1 20.4418 11.0069 1.5722 -8.94956
42 1 20.4418 7.86199 1.57222 -8.94948
58 1 12.5795 0.000229272 3.14429 -8.94949
44 1 3.14446 9.43442 9.91499e-05 -8.94948
348 1 14.1536 11.007 1.56944 -8.94963
347 1 11.0067 11.007 1.5717 -8.94669
346 1 7.86185 11.0069 1.57284 -8.9484
48 1 15.7251 9.43415 -0.000159557 -8.94982
149 1 3.14422 0.00024192 9.43448 -8.94946
50 1 -7.83723e-05 8.40771e-05 3.14471 -8.94953
51 1 1.57213 1.57229 4.71708 -8.94963
52 1 3.14435 0.000208265 3.14433 -8.94922
53 1 4.71652 1.57198 4.71649 -8.94986
517 1 17.301 11.0071 11.0065 -8.95376
55 1 7.86193 1.57201 4.71654 -8.94943
173 1 12.5983 9.40884 9.38821 -8.8346
57 1 11.0071 1.57196 4.71648 -8.94949
172 1 9.36946 9.19977 9.44053 -8.12696
59 1 14.1522 1.57188 4.71671 -8.95027
516 1 14.1689 10.9803 10.9966 -8.93504
61 1 17.2971 1.57231 4.71696 -8.94959
62 1 18.8693 0.000147734 3.14461 -8.94932
63 1 20.4415 1.57235 4.71717 -8.94962
64 1 22.0137 3.14461 3.14462 -8.9495
65 1 1.57147 4.71663 4.7166 -8.94957
66 1 3.144 3.14416 3.14399 -8.94845
67 1 4.71415 4.71436 4.71414 -8.94515
68 1 6.28932 3.14414 3.14407 -8.94964
69 1 7.86125 4.71483 4.71528 -8.94898
70 1 9.43442 3.14403 3.14403 -8.94943
71 1 11.0071 4.71461 4.71516 -8.94802
72 1 12.5795 3.14394 3.14408 -8.94922
73 1 14.154 4.71314 4.71472 -8.95012
74 1 15.725 3.14364 3.14398 -8.94955
75 1 17.298 4.71593 4.71633 -8.94896
76 1 18.8694 3.1445 3.14455 -8.94948
77 1 20.4417 4.71686 4.71695 -8.9496
78 1 22.014 6.28958 3.14462 -8.94983
79 1 1.57203 7.86221 4.71693 -8.9498
80 1 3.14421 6.28956 3.14428 -8.95037
81 1 4.71585 7.86246 4.71618 -8.952
82 1 6.28763 6.28785 3.14148 -8.95012
83 1 7.85735 7.85746 4.70878 -8.9544
84 1 9.43381 6.28776 3.14226 -8.94774
85 1 11.0066 7.85751 4.70885 -8.95051
86 1 12.5799 6.28748 3.14185 -8.94918
87 1 14.1648 7.84959 4.703 -8.93102
88 1 15.728 6.28584 3.14076 -8.94466
89 1 17.3005 7.86042 4.71515 -8.95149
90 1 18.8703 6.289 3.14411 -8.94985
91 1 20.4422 7.86191 4.7169 -8.95016
92 1 7.10795e-05 9.43445 3.14451 -8.94953
93 1 3.1443 9.4345 3.14429 -8.94898
94 1 6.28955 9.43542 3.14461 -8.94957
95 1 9.43483 9.43471 3.14379 -8.95098
96 1 12.5817 9.43323 3.13605 -8.96073
97 1 15.7272 9.4336 3.14168 -8.94789
98 1 18.8703 9.4343 3.14411 -8.94919
513 1 4.71846 11.0072 11.0067 -8.94325
100 1 1.57208 1.57226 7.86202 -8.94955
189 1 20.4418 4.71668 11.0069 -8.94952
102 1 4.71642 1.57187 7.8618 -8.94939
103 1 6.28881 0.00105042 6.28879 -8.95063
104 1 7.86177 1.57178 7.86177 -8.9516
171 1 6.28017 9.42497 9.43165 -8.96618
106 1 11.007 1.57229 7.86172 -8.94995
170 1 3.14219 9.43485 9.4342 -8.95207
108 1 14.1523 1.57218 7.86187 -8.95037
109 1 15.725 0.000814082 6.28911 -8.94987
110 1 17.2971 1.57219 7.862 -8.94953
188 1 17.2981 4.71562 11.0068 -8.94874
112 1 20.4416 1.57232 7.86205 -8.94957
113 1 -0.000179097 3.14458 6.28955 -8.94951
114 1 1.57145 4.71656 7.86181 -8.94928
115 1 3.14397 3.14407 6.28922 -8.9494
116 1 4.71458 4.71455 7.86097 -8.94815
117 1 6.28834 3.14231 6.28834 -8.9514
118 1 7.85978 4.71033 7.86083 -8.95838
119 1 9.43452 3.14267 6.28853 -8.95004
120 1 11.0063 4.71402 7.86126 -8.95122
121 1 12.5797 3.14264 6.28899 -8.95193
122 1 14.1534 4.71366 7.86143 -8.95065
123 1 15.725 3.14366 6.28926 -8.94986
124 1 17.298 4.71581 7.86169 -8.94916
125 1 18.8694 3.14443 6.28952 -8.94953
126 1 20.4417 4.71676 7.86194 -8.94947
127 1 22.0135 6.28928 6.28929 -8.95021
128 1 1.57054 7.86179 7.86167 -8.95182
129 1 3.14152 6.28805 6.2879 -8.9504
130 1 4.70791 7.85852 7.859 -8.95658
131 1 6.27883 6.27933 6.27931 -8.93159
132 1 7.82504 7.82907 7.83136 -8.85809
133 1 9.43357 6.28214 6.28522 -8.9494
134 1 11.0214 7.85061 7.83762 -8.89811
135 1 12.5848 6.27877 6.28282 -8.95311
136 1 14.1664 7.85016 7.85298 -8.93316
137 1 15.729 6.28536 6.2866 -8.9462
138 1 17.302 7.85935 7.86028 -8.94943
139 1 18.8707 6.28864 6.28896 -8.94935
140 1 20.4424 7.86164 7.86178 -8.95059
141 1 22.014 9.43458 6.28936 -8.94974
142 1 3.14391 9.43535 6.28925 -8.94975
143 1 6.28809 9.43811 6.28971 -8.95445
144 1 9.42358 9.41562 6.28561 -8.91054
145 1 12.6214 9.39933 6.24641 -8.86825
146 1 15.7346 9.43249 6.28508 -8.95985
147 1 18.8715 9.43454 6.28924 -8.95155
148 1 -0.000102879 9.3833e-05 9.4345 -8.9496
169 1 22.0138 9.43455 9.43434 -8.95009
168 1 18.8706 6.28843 9.43422 -8.94901
151 1 9.43464 0.00179419 9.43443 -8.95077
152 1 12.5797 0.00143056 9.43445 -8.95116
167 1 15.7279 6.2853 9.43356 -8.94643
166 1 12.5801 6.28383 9.4323 -8.95419
155 1 22.0137 3.14453 9.43448 -8.94956
156 1 3.14387 3.144 9.43444 -8.94947
157 1 6.28792 3.14194 9.43439 -8.94954
158 1 9.43446 3.14359 9.4344 -8.94729
159 1 12.5797 3.14318 9.43431 -8.95011
160 1 15.7252 3.14345 9.43437 -8.94957
161 1 18.8695 3.14433 9.43443 -8.9495
162 1 -0.000451677 6.28907 9.43436 -8.94973
163 1 3.14147 6.2878 9.43423 -8.94876
164 1 6.28116 6.28081 9.43428 -8.94397
165 1 9.4313 6.29058 9.43508 -9.00332
344 1 1.57221 11.0069 1.57221 -8.94961
183 1 1.5714 4.71648 11.0071 -8.94934
181 1 17.2972 1.57213 11.007 -8.94952
154 1 18.8694 0.000148676 9.4345 -8.94955
177 1 4.71636 1.57181 11.0071 -8.94938
9 1 12.5794 8.53273e-05 -9.83103e-05 -8.94959
184 1 4.71435 4.71426 11.0076 -8.94781
512 1 1.57174 11.007 11.007 -8.9479
41 1 18.8695 6.28938 5.51935e-05 -8.94957
19 1 6.28956 3.14458 -0.000145026 -8.94949
25 1 15.7244 3.14453 -0.00013091 -8.94966
176 1 1.57207 1.57226 11.007 -8.94957
199 1 3.14424 0.000250983 12.5795 -8.94944
178 1 7.86178 1.57147 11.0071 -8.95155
179 1 11.007 1.57183 11.007 -8.94918
180 1 14.1524 1.57191 11.007 -8.94985
644 1 20.4418 11.0069 20.4418 -8.94957
182 1 20.4416 1.57231 11.0069 -8.9496
642 1 14.1525 11.0069 20.4433 -8.9518
209 1 18.8694 0.000151986 12.5794 -8.94955
185 1 7.85967 4.70936 11.0082 -8.95863
186 1 11.0069 4.71363 11.0072 -8.95163
187 1 14.1533 4.71374 11.0064 -8.94944
641 1 11.0067 11.0069 20.4428 -8.94827
640 1 7.86162 11.0068 20.4438 -8.95116
190 1 1.57033 7.86153 11.0068 -8.95128
191 1 4.70768 7.85822 11.0083 -8.95594
192 1 7.82502 7.82561 11.0404 -8.8612
193 1 11.0302 7.84919 11.0334 -8.9665
194 1 14.1611 7.85257 11.0045 -8.95845
195 1 17.3012 7.85944 11.0059 -8.9477
196 1 20.4425 7.8614 11.0067 -8.94981
343 1 18.8701 9.43419 18.87 -8.94931
198 1 1.5721 1.57227 14.1519 -8.94959
342 1 15.7263 9.43312 18.873 -8.95052
200 1 4.71645 1.57178 14.1524 -8.94983
341 1 12.5792 9.4338 18.8731 -8.95234
202 1 7.86196 1.57168 14.1524 -8.95027
203 1 9.43477 0.000469873 12.5798 -8.94993
204 1 11.0071 1.57145 14.1525 -8.94934
205 1 12.5795 0.000158239 12.5796 -8.95009
206 1 14.1522 1.57126 14.1523 -8.95116
340 1 9.43467 9.43385 18.8723 -8.95026
208 1 17.2971 1.57214 14.1519 -8.94959
339 1 6.28783 9.43309 18.8728 -8.95058
210 1 20.4416 1.57233 14.1518 -8.94956
211 1 -0.00017851 3.14453 12.5794 -8.94952
212 1 1.57137 4.7165 14.1523 -8.94964
213 1 3.14386 3.14397 12.5797 -8.94934
214 1 4.71365 4.71357 14.1549 -8.94483
215 1 6.28812 3.1417 12.5805 -8.95128
216 1 7.8609 4.71252 14.1541 -8.9518
217 1 9.43474 3.14201 12.5803 -8.95019
218 1 11.0072 4.7134 14.1544 -8.94687
219 1 12.5798 3.14152 12.5798 -8.95286
220 1 14.1552 4.71001 14.1551 -8.95188
221 1 15.7251 3.14338 12.5793 -8.94957
222 1 17.2983 4.71546 14.1522 -8.94978
223 1 18.8695 3.14434 12.5794 -8.94941
224 1 20.4418 4.71676 14.1519 -8.94968
225 1 22.0135 6.28912 12.5795 -8.95003
226 1 1.57135 7.86172 14.1521 -8.94984
227 1 3.1412 6.28778 12.5806 -8.95069
228 1 4.71292 7.8604 14.1535 -8.95139
229 1 6.27751 6.27729 12.5896 -8.93037
230 1 7.84983 7.84603 14.1685 -8.95452
231 1 9.43428 6.28 12.5848 -8.95204
232 1 11.0074 7.85606 14.163 -8.94641
233 1 12.5875 6.27412 12.5878 -8.9539
234 1 14.174 7.83733 14.1739 -8.92145
235 1 15.729 6.28501 12.5798 -8.94982
236 1 17.3038 7.85824 14.1546 -8.95095
237 1 18.8707 6.28852 12.5793 -8.94952
238 1 20.443 7.86142 14.1521 -8.95034
239 1 22.014 9.43432 12.5793 -8.9505
240 1 3.14162 9.43439 12.5794 -8.95064
241 1 6.27954 9.43358 12.5807 -8.95513
242 1 9.39796 9.40549 12.6131 -8.86448
243 1 12.65 9.38333 12.6465 -8.7772
244 1 15.7435 9.42738 12.5838 -8.9608
245 1 18.8737 9.43364 12.5793 -8.95289
246 1 -8.44516e-05 8.08933e-05 15.7243 -8.9496
247 1 1.57215 1.57229 17.2969 -8.94933
47 1 12.5794 9.43426 22.0131 -8.95183
249 1 4.71693 1.5722 17.2971 -8.94993
250 1 6.28937 0.00059582 15.7248 -8.95037
251 1 7.86205 1.57211 17.2971 -8.94948
252 1 9.43465 0.000104288 15.7248 -8.94939
253 1 11.007 1.57205 17.2972 -8.94962
254 1 12.5794 9.47774e-06 15.7247 -8.94931
255 1 14.1519 1.57203 17.2971 -8.94949
256 1 15.7247 0.000334692 15.7247 -8.95055
257 1 17.2971 1.57199 17.2971 -8.94969
46 1 9.43434 9.43438 22.0142 -8.94956
259 1 20.4416 1.57231 17.2967 -8.94962
260 1 22.0137 3.14456 15.7244 -8.94956
261 1 1.57209 4.71692 17.297 -8.94987
262 1 3.14385 3.14395 15.7251 -8.94844
263 1 4.71573 4.71537 17.2985 -8.94905
264 1 6.28903 3.14329 15.7252 -8.95046
265 1 7.86181 4.71583 17.298 -8.94903
266 1 9.43444 3.14339 15.7253 -8.9493
267 1 11.0069 4.71555 17.2983 -8.94918
268 1 12.5795 3.14322 15.7253 -8.94908
269 1 14.1522 4.71555 17.2982 -8.9496
270 1 15.7255 3.14252 15.7255 -8.95003
271 1 17.2986 4.71493 17.2985 -8.94743
272 1 18.8695 3.14432 15.7244 -8.94971
273 1 20.442 4.71678 17.297 -8.9496
274 1 22.014 6.28928 15.7245 -8.94982
275 1 1.57152 7.86151 17.2974 -8.9498
276 1 3.14338 6.28881 15.7251 -8.9504
277 1 4.71364 7.85898 17.3004 -8.94485
278 1 6.28494 6.2836 15.7303 -8.94923
279 1 7.86099 7.8599 17.3014 -8.95276
280 1 9.43414 6.28592 15.7283 -8.94714
281 1 11.0066 7.85908 17.302 -8.94723
282 1 12.5799 6.28545 15.729 -8.94863
283 1 14.154 7.85884 17.3031 -8.95288
284 1 15.7312 6.28138 15.7312 -8.94173
285 1 17.3007 7.85877 17.3007 -8.94524
286 1 18.8713 6.28817 15.7253 -8.94977
287 1 20.4424 7.86151 17.2974 -8.94985
288 1 6.26642e-06 9.43422 15.7248 -8.95043
289 1 3.14136 9.43333 15.726 -8.95092
290 1 6.2776 9.42426 15.7368 -8.93058
291 1 9.43498 9.4314 15.7346 -8.95238
292 1 12.5812 9.43062 15.7406 -8.96282
293 1 15.7375 9.42419 15.7378 -8.93194
294 1 18.8728 9.43344 15.726 -8.951
45 1 6.28923 9.43441 22.0145 -8.94988
296 1 1.57228 1.57234 20.4416 -8.94943
297 1 3.14458 0.000217648 18.8694 -8.94955
298 1 4.7172 1.57234 20.4415 -8.94966
299 1 6.28967 9.50675e-05 18.8693 -8.94968
300 1 7.86205 1.57231 20.4416 -8.94957
338 1 3.14385 9.43413 18.8701 -8.94931
302 1 11.007 1.57229 20.4416 -8.9496
337 1 22.0139 9.43438 18.8695 -8.94947
304 1 14.1518 1.5723 20.4416 -8.94956
305 1 15.7242 5.7027e-05 18.8692 -8.94969
306 1 17.2967 1.57231 20.4416 -8.94973
307 1 18.8693 0.00014706 18.8693 -8.94942
308 1 20.4416 1.57235 20.4416 -8.94935
309 1 22.0139 3.14469 18.8692 -8.94965
310 1 1.57224 4.71704 20.4417 -8.94938
311 1 3.1444 3.14437 18.8695 -8.94936
312 1 4.71692 4.71683 20.4418 -8.94996
313 1 6.28955 3.14441 18.8695 -8.94954
314 1 7.8619 4.71671 20.4418 -8.94938
315 1 9.43444 3.14429 18.8696 -8.94949
316 1 11.0069 4.71662 20.4418 -8.94955
317 1 12.5794 3.14428 18.8696 -8.94946
318 1 14.1519 4.71669 20.4418 -8.94947
319 1 15.7244 3.14432 18.8695 -8.94971
320 1 17.2971 4.71665 20.4418 -8.94966
321 1 18.8696 3.1443 18.8695 -8.94903
322 1 20.4417 4.717 20.4417 -8.94936
323 1 22.0139 6.28936 18.8694 -8.94954
324 1 1.57218 7.86195 20.4417 -8.94957
325 1 3.14391 6.28885 18.8701 -8.94846
326 1 4.71651 7.86154 20.4426 -8.9496
327 1 6.289 6.28863 18.8706 -8.95065
328 1 7.86186 7.86161 20.4425 -8.95026
329 1 9.43417 6.28837 18.8707 -8.94902
330 1 11.0067 7.86117 20.4426 -8.94999
331 1 12.5795 6.28837 18.8708 -8.9491
332 1 14.1522 7.86135 20.4425 -8.95079
333 1 15.7253 6.28821 18.871 -8.95036
334 1 17.2976 7.86144 20.4425 -8.94955
335 1 18.8701 6.28875 18.8701 -8.94854
336 1 20.4418 7.86195 20.4417 -8.94959
29 1 22.0139 6.2896 22.0139 -8.94959
638 1 1.57215 11.0069 20.4418 -8.94957
514 1 7.87782 10.9891 10.9867 -8.83998
515 1 11.0999 10.7145 11.1092 -7.31232
27 1 18.8694 3.14454 22.0138 -8.94929
39 1 15.7249 6.28884 22.0133 -8.9501
593 1 14.1561 11.0057 17.3078 -8.95634
540 1 1.57054 11.0069 14.1524 -8.95118
541 1 4.70855 11.0058 14.1555 -8.95639
542 1 7.82758 10.9749 14.1912 -8.85366
543 1 11.0057 11.0103 14.1509 -8.96688
544 1 14.19 10.9783 14.1937 -8.86022
545 1 17.3062 11.0065 14.1554 -8.95687
546 1 20.4433 11.007 14.1522 -8.95133
33 1 6.28931 6.28928 22.0136 -8.9504
31 1 3.14456 6.28953 22.014 -8.94965
591 1 7.85851 11.005 17.3068 -8.95676
592 1 11.0067 11.0075 17.2999 -8.94456
5 1 6.28962 7.16444e-05 22.0138 -8.94955
15 1 22.0139 3.14474 22.0139 -8.94948
17 1 3.1446 3.14459 22.0137 -8.94955
23 1 12.5794 3.1445 22.0138 -8.94954
13 1 18.8692 6.56981e-05 22.0138 -8.94953
21 1 9.43447 3.1445 22.0138 -8.94957
43 1 22.0139 9.43448 22.0139 -8.9496
49 1 18.8696 9.43441 22.0139 -8.94949
688 3 10.1591 11.0368 9.38567 2.38888
511 1 18.87 18.8698 9.43442 -8.94923
510 1 15.7265 18.8718 9.43416 -8.94908
509 1 12.5813 18.8773 9.43195 -8.95856
508 1 9.43323 18.8791 9.43195 -8.95805
349 1 17.2978 11.0069 1.57164 -8.94944
507 1 6.28602 18.8747 9.4339 -8.94875
539 1 20.4417 20.4418 11.007 -8.94957
352 1 1.57223 14.1518 1.57224 -8.94948
353 1 3.14444 12.5794 9.23066e-05 -8.94953
354 1 4.71681 14.1516 1.57213 -8.94964
153 1 15.7249 22.0144 9.43453 -8.94958
356 1 7.86167 14.1518 1.57089 -8.95236
150 1 6.28878 22.0148 9.43449 -8.95004
358 1 11.0065 14.1524 1.56997 -8.95023
345 1 4.71666 11.0068 1.57204 -8.94962
360 1 14.1532 14.1529 1.56946 -8.95155
361 1 15.7252 12.5797 -0.0001806 -8.94959
362 1 17.2977 14.1523 1.57165 -8.9493
107 1 12.5797 22.0148 6.28894 -8.94993
364 1 20.4418 14.1519 1.57221 -8.94952
365 1 22.0139 15.7243 2.52372e-05 -8.94957
366 1 1.57221 17.2967 1.57223 -8.94977
105 1 9.43447 22.0149 6.28874 -8.94972
368 1 4.7164 17.2973 1.57141 -8.94966
529 1 11.0074 17.2978 11.0023 -9.01302
370 1 7.86172 17.2974 1.571 -8.9497
371 1 9.43438 15.7249 -0.000596765 -8.94979
372 1 11.0069 17.2976 1.57093 -8.94971
373 1 12.5794 15.7248 -0.000674832 -8.94983
374 1 14.1523 17.2976 1.57103 -8.95029
526 1 1.57072 17.2977 11.007 -8.9493
376 1 17.2976 17.2975 1.57168 -8.94846
525 1 20.4417 14.1519 11.0068 -8.94943
378 1 20.4418 17.2968 1.57225 -8.94952
111 1 18.8694 22.0141 6.28955 -8.94967
380 1 1.57214 20.4417 1.57222 -8.94933
495 1 12.5471 12.572 9.45149 -8.83017
382 1 4.71696 20.4418 1.57196 -8.94965
383 1 6.28952 18.8694 -0.000245444 -8.94972
384 1 7.86198 20.4419 1.57193 -8.94944
494 1 9.36141 12.8461 9.4613 -7.95823
386 1 11.007 20.4419 1.57192 -8.94952
493 1 6.2854 12.588 9.43779 -8.97082
388 1 14.152 20.4419 1.57198 -8.94943
389 1 15.7244 18.8695 -0.00024845 -8.94988
390 1 17.297 20.4419 1.57197 -8.94947
391 1 18.8694 18.8694 3.58489e-05 -8.94928
392 1 20.4415 20.4416 1.57236 -8.94965
506 1 3.14308 18.8705 9.43431 -8.94905
394 1 4.71598 11.0068 4.71581 -8.94621
505 1 22.0136 18.8696 9.43442 -8.94949
504 1 18.8711 15.7247 9.43448 -8.95228
503 1 15.7341 15.7293 9.4308 -8.95609
398 1 17.3006 11.0069 4.71509 -8.94847
399 1 20.4424 11.0069 4.71671 -8.94981
400 1 6.09966e-05 12.5794 3.1445 -8.94957
401 1 1.57187 14.1517 4.71679 -8.94967
402 1 3.1442 12.5793 3.14421 -8.94912
403 1 4.71542 14.1512 4.71583 -8.95106
404 1 6.28916 12.5783 3.14425 -8.94918
405 1 7.85715 14.1554 4.70787 -8.95519
406 1 9.43471 12.5789 3.1443 -8.94849
407 1 11.0069 14.1549 4.70812 -8.95203
408 1 12.5818 12.5804 3.13736 -8.95792
409 1 14.1639 14.1621 4.70474 -8.92966
410 1 15.7274 12.5803 3.1416 -8.9477
411 1 17.3006 14.1534 4.71522 -8.95011
412 1 18.8703 12.5796 3.14408 -8.94934
413 1 20.4423 14.152 4.71681 -8.95003
414 1 22.014 15.7243 3.14457 -8.94973
415 1 1.5713 17.2972 4.71654 -8.9497
416 1 3.1441 15.7243 3.14417 -8.95016
417 1 4.71348 17.2998 4.71342 -8.94531
418 1 6.28746 15.7258 3.14101 -8.95037
419 1 7.85991 17.3004 4.71199 -8.95076
420 1 9.43389 15.7259 3.14064 -8.94983
421 1 11.0073 17.3006 4.71206 -8.9474
422 1 12.5801 15.726 3.14039 -8.95158
423 1 14.1556 17.3018 4.7117 -8.95141
424 1 15.7278 15.7273 3.14126 -8.94462
425 1 17.2978 17.2973 4.71662 -8.95089
426 1 18.8702 15.7248 3.14415 -8.94948
427 1 20.4416 17.2968 4.71706 -8.94981
428 1 22.0137 18.8693 3.14462 -8.94962
429 1 1.57192 20.4419 4.7169 -8.94951
430 1 3.14381 18.8699 3.14385 -8.94856
431 1 4.71578 20.4431 4.71575 -8.94841
432 1 6.2888 18.8703 3.1431 -8.94983
433 1 7.86167 20.443 4.71594 -8.94925
434 1 9.43429 18.8704 3.14313 -8.9491
435 1 11.0071 20.443 4.71589 -8.94943
436 1 12.5798 18.8705 3.14321 -8.9489
437 1 14.1525 20.443 4.71616 -8.9501
438 1 15.7256 18.8708 3.14311 -8.94952
439 1 17.2977 20.4424 4.71638 -8.94823
440 1 18.8694 18.8693 3.14461 -8.95
441 1 20.4417 20.4418 4.71701 -8.94951
502 1 12.617 15.7621 9.38791 -8.82847
501 1 9.39091 15.7661 9.39083 -8.90446
500 1 6.27096 15.7382 9.42966 -8.94894
499 1 3.13961 15.726 9.43422 -8.95154
498 1 -0.00076918 15.7246 9.43441 -8.9505
497 1 18.8696 12.5799 9.43437 -8.94632
496 1 15.7193 12.5793 9.4368 -8.93548
449 1 22.0139 12.5793 6.28928 -8.94992
450 1 1.57026 14.1518 7.86166 -8.95144
451 1 3.1434 12.5785 6.28891 -8.94963
452 1 4.70754 14.1539 7.85965 -8.95769
453 1 6.28675 12.576 6.28917 -8.94926
454 1 7.82145 14.1858 7.82758 -8.85275
455 1 9.42423 12.5999 6.29129 -8.90258
456 1 11.0219 14.1675 7.83429 -8.93442
457 1 12.6193 12.6132 6.25532 -8.84455
458 1 14.1558 14.1488 7.86205 -8.95136
459 1 15.7353 12.5818 6.28504 -8.95447
460 1 17.2985 14.1515 7.86258 -8.94922
461 1 18.8717 12.5796 6.28903 -8.9516
462 1 20.4418 14.1519 7.86192 -8.94968
463 1 22.0133 15.7244 6.28931 -8.95001
464 1 1.57074 17.2975 7.8616 -8.95015
465 1 3.14114 15.7254 6.28786 -8.95074
466 1 4.71076 17.3013 7.85891 -8.94855
467 1 6.27711 15.735 6.27722 -8.93168
468 1 7.84709 17.3167 7.84774 -8.93644
469 1 9.43199 15.7339 6.27669 -8.96085
470 1 11.0068 17.308 7.85235 -8.94355
471 1 12.5872 15.7366 6.27424 -8.96457
472 1 14.1649 17.3099 7.8497 -8.9259
473 1 15.727 15.7249 6.28853 -8.95286
474 1 17.3007 17.2989 7.86031 -8.95051
475 1 18.8699 15.7243 6.28956 -8.94965
476 1 20.442 17.2971 7.86181 -8.95046
477 1 -0.000249354 18.8695 6.28939 -8.94983
478 1 1.57192 20.4419 7.86197 -8.94948
479 1 3.14286 18.8705 6.28853 -8.94927
480 1 4.71586 20.4431 7.86157 -8.94946
481 1 6.28475 18.8754 6.28473 -8.94547
482 1 7.86063 20.4462 7.8606 -8.95297
483 1 9.43382 18.874 6.28601 -8.94802
484 1 11.0072 20.4453 7.86039 -8.9492
485 1 12.5808 18.8738 6.28656 -8.95011
486 1 14.1534 20.4449 7.86085 -8.95146
487 1 15.7281 18.873 6.28627 -8.94383
488 1 17.2975 20.4423 7.86187 -8.9497
489 1 18.8703 18.8699 6.28899 -8.94953
490 1 20.4417 20.4418 7.86202 -8.94953
491 1 22.0135 12.5793 9.43428 -8.94921
492 1 3.14257 12.5788 9.43426 -8.94954
519 1 1.5699 14.1518 11.007 -8.95156
520 1 4.70614 14.1547 11.0099 -8.96032
522 1 11.0171 14.4304 10.9352 -8.0135
523 1 14.1522 14.166 10.994 -8.92434
524 1 17.2975 14.1514 11.007 -8.9497
393 1 1.57189 11.0069 4.71659 -8.94947
54 1 6.28948 22.0141 3.14433 -8.94956
60 1 15.7246 22.0141 3.1444 -8.94988
99 1 22.0138 22.014 6.28961 -8.94959
101 1 3.14427 22.0141 6.28941 -8.94954
527 1 4.71188 17.3013 11.0076 -8.94612
534 1 4.7159 20.4431 11.0072 -8.94921
687 3 10.9838 12.6094 11.7358 2.29829
686 1 20.4416 20.4417 20.4417 -8.94928
685 1 18.8698 18.8698 18.8698 -8.94862
684 1 17.2968 20.4417 20.4416 -8.94982
683 1 15.7244 18.8697 18.8697 -8.9503
682 1 14.1519 20.4417 20.4416 -8.94946
681 1 12.5794 18.8698 18.8697 -8.94904
303 1 12.5794 22.014 18.8693 -8.94957
301 1 9.43451 22.014 18.8693 -8.94959
521 1 7.81328 14.2114 11.0343 -8.80332
387 1 12.5795 18.8696 22.0136 -8.94952
207 1 15.7248 22.0143 12.5796 -8.94946
201 1 6.28893 22.0147 12.5799 -8.95041
385 1 9.43446 18.8696 22.0136 -8.94955
197 1 22.0138 22.014 12.5794 -8.9496
590 1 4.71406 11.0061 17.2999 -8.94777
528 1 7.85517 17.3129 11.0089 -8.95844
661 1 3.14393 15.7246 18.87 -8.94934
530 1 14.1562 17.3033 11.0065 -8.94925
531 1 17.2993 17.2985 11.0069 -8.9477
660 1 1.5722 17.2968 20.4417 -8.94964
533 1 1.57191 20.4419 11.007 -8.94953
589 1 1.57147 11.0068 17.2975 -8.94939
535 1 7.86119 20.4454 11.0075 -8.95203
536 1 11.0073 20.4432 11.0072 -8.94748
537 1 14.1528 20.4436 11.0073 -8.94987
538 1 17.2974 20.4423 11.007 -8.94944
659 1 22.0139 15.7244 18.8695 -8.94944
680 1 11.007 20.4418 20.4416 -8.9496
679 1 9.4346 18.8698 18.8697 -8.94908
678 1 7.86207 20.4418 20.4416 -8.94947
677 1 6.28952 18.8698 18.8699 -8.95025
676 1 4.71714 20.4418 20.4416 -8.94979
675 1 3.14392 18.87 18.8701 -8.94842
674 1 1.57221 20.4417 20.4417 -8.94926
547 1 22.0137 12.5794 12.5794 -8.94891
548 1 1.57062 14.1518 14.1521 -8.95111
549 1 3.14279 12.5786 12.5797 -8.94637
550 1 4.7089 14.1524 14.155 -8.95946
551 1 6.29097 12.5761 12.5851 -8.99895
552 1 7.82503 14.1849 14.1957 -8.87062
553 1 9.20988 12.5829 12.6581 -8.12432
554 1 11.0065 14.1409 14.1302 -8.91184
555 1 12.7753 12.5573 12.6468 -8.17785
556 1 14.1814 14.1755 14.1841 -8.8776
557 1 15.7247 12.5786 12.5842 -8.99372
558 1 17.3036 14.1532 14.1543 -8.95682
559 1 18.8708 12.5797 12.5795 -8.94757
560 1 20.4428 14.1521 14.1521 -8.951
561 1 22.0131 15.7247 12.5794 -8.95058
562 1 1.57071 17.2977 14.1525 -8.94967
563 1 3.13916 15.7265 12.5807 -8.95163
564 1 4.7112 17.3019 14.1561 -8.94356
565 1 6.26958 15.7404 12.5924 -8.9292
566 1 7.85584 17.3082 14.1595 -8.95082
567 1 9.40995 15.7381 12.6003 -8.89162
568 1 11.0078 17.2958 14.1513 -8.94366
569 1 12.6073 15.7349 12.6002 -8.87983
570 1 14.1588 17.3062 14.1585 -8.94858
571 1 15.7312 15.7267 12.5793 -8.95523
572 1 17.2991 17.2984 14.1525 -8.95032
573 1 18.871 15.7249 12.5791 -8.95068
574 1 20.4419 17.2972 14.1519 -8.94984
575 1 -0.000274452 18.8696 12.5795 -8.9495
576 1 1.57196 20.4419 14.152 -8.94952
577 1 3.14315 18.8706 12.5798 -8.94915
578 1 4.71606 20.4431 14.1526 -8.94945
579 1 6.28646 18.8747 12.5814 -8.94948
580 1 7.86192 20.4439 14.1526 -8.95206
581 1 9.43498 18.8727 12.5802 -8.95152
582 1 11.0073 20.442 14.1525 -8.94826
583 1 12.58 18.8714 12.5796 -8.95246
584 1 14.1523 20.4433 14.1524 -8.9523
585 1 15.726 18.8712 12.5798 -8.94788
586 1 17.2973 20.4422 14.152 -8.9493
587 1 18.8699 18.8698 12.5795 -8.9493
588 1 20.4416 20.4418 14.1519 -8.94951
673 1 22.0139 18.8694 18.8694 -8.9496
672 1 20.4417 17.2968 20.4417 -8.94956
671 1 18.8699 15.7248 18.8699 -8.94925
670 1 17.2974 17.2974 20.4422 -8.94954
669 1 15.7258 15.7259 18.8719 -8.95043
668 1 14.1518 17.2971 20.4418 -8.9498
667 1 12.5788 15.7249 18.8703 -8.94996
596 1 -7.44767e-05 12.5795 15.7249 -8.9501
597 1 1.57149 14.1521 17.2975 -8.94929
598 1 3.1413 12.5794 15.7264 -8.94903
599 1 4.71422 14.1527 17.2998 -8.94776
600 1 6.28035 12.579 15.7341 -8.94226
601 1 7.85858 14.1545 17.3073 -8.95822
602 1 9.42666 12.5803 15.735 -8.97007
603 1 11.007 14.1517 17.2955 -8.93952
604 1 12.5865 12.5795 15.7344 -8.96804
605 1 14.1551 14.1543 17.3051 -8.9559
606 1 15.7337 12.5806 15.7339 -8.94163
607 1 17.2996 14.1533 17.2995 -8.94773
608 1 18.8725 12.5798 15.7262 -8.94927
609 1 20.4423 14.1522 17.2974 -8.94935
610 1 22.0138 15.7246 15.7246 -8.95039
611 1 1.57155 17.2973 17.2974 -8.95005
612 1 3.14159 15.7254 15.7259 -8.95177
613 1 4.71372 17.3003 17.3007 -8.94516
614 1 6.27762 15.736 15.7382 -8.93285
615 1 7.86237 17.2982 17.2989 -8.9516
616 1 9.43764 15.7253 15.7287 -8.95428
617 1 11.0072 17.2984 17.2984 -8.94687
618 1 12.5772 15.7242 15.7276 -8.95636
619 1 14.1518 17.2979 17.2984 -8.95195
620 1 15.7335 15.7333 15.7337 -8.93504
621 1 17.2994 17.2995 17.2994 -8.94588
622 1 18.8717 15.7255 15.7255 -8.95086
623 1 20.4422 17.2972 17.2972 -8.94983
624 1 22.0136 18.8695 15.7245 -8.94956
625 1 1.57202 20.4418 17.297 -8.94933
626 1 3.14319 18.8706 15.7254 -8.94827
627 1 4.7165 20.4427 17.2976 -8.94946
628 1 6.28744 18.8733 15.7271 -8.9496
629 1 7.86231 20.442 17.2971 -8.94963
630 1 9.43548 18.8701 15.7251 -8.9489
631 1 11.007 20.4421 17.2972 -8.94967
632 1 12.5789 18.8698 15.7249 -8.94877
633 1 14.1517 20.4419 17.297 -8.94962
634 1 15.7265 18.8727 15.7266 -8.94899
635 1 17.2974 20.4425 17.2974 -8.94929
636 1 18.8698 18.8698 15.7246 -8.94988
637 1 20.4416 20.4417 17.2968 -8.94967
666 1 11.007 17.2974 20.4419 -8.94955
639 1 4.71643 11.0068 20.4425 -8.94937
665 1 9.43519 15.725 18.8706 -8.94988
664 1 7.86211 17.2972 20.4419 -8.94973
663 1 6.28794 15.726 18.8729 -8.95115
643 1 17.2976 11.0069 20.4424 -8.9493
662 1 4.71651 17.2974 20.4424 -8.94987
645 1 22.0139 12.5794 18.8695 -8.94953
646 1 1.57215 14.1519 20.4418 -8.94955
647 1 3.14383 12.5794 18.8701 -8.94948
648 1 4.71648 14.152 20.4425 -8.94928
649 1 6.28769 12.5794 18.8728 -8.9489
650 1 7.86169 14.1522 20.4435 -8.95193
651 1 9.43458 12.5798 18.8725 -8.95079
652 1 11.0068 14.1524 20.4417 -8.9481
653 1 12.5792 12.5799 18.8721 -8.95118
654 1 14.1523 14.1524 20.4429 -8.95163
655 1 15.7263 12.5799 18.8726 -8.94891
656 1 17.2975 14.1522 20.4423 -8.94922
657 1 18.8701 12.5795 18.87 -8.94948
658 1 20.4418 14.1519 20.4417 -8.94957
351 1 22.0139 12.5794 22.0139 -8.94961
355 1 6.28911 12.5793 22.0145 -8.94968
357 1 9.4344 12.5793 22.0143 -8.94927
359 1 12.5794 12.5795 22.0131 -8.95114
363 1 18.8696 12.5794 22.0139 -8.94954
367 1 3.14451 15.7243 22.014 -8.9496
369 1 6.28913 15.7246 22.0139 -8.95081
375 1 15.725 15.725 22.0136 -8.95017
377 1 18.8695 15.7245 22.0139 -8.9495
381 1 3.14445 18.8694 22.0139 -8.94948
248 1 3.14433 22.0141 15.7246 -8.94947
258 1 18.8693 22.014 15.7243 -8.94961
295 1 22.0138 22.014 18.8692 -8.94951
595 1 20.4424 11.0068 17.2975 -8.94939
594 1 17.3 11.0065 17.2999 -8.94787
532 1 20.442 17.2973 11.0069 -8.9496
379 1 22.0139 18.8692 22.0139 -8.94962
