ITEM: TIMESTEP
25
ITEM: NUMBER OF ATOMS
688
ITEM: BOX BOUNDS pp pp pp
0.0000000000000000e+00 2.2013900999999997e+01
0.0000000000000000e+00 2.2013900999999997e+01
0.0000000000000000e+00 2.2013900999999997e+01
ITEM: ATOMS id type x y z c_pot
1 1 22.0139 3.50392e-14 -7.46437e-16 -8.94963
2 1 1.57242 1.57242 1.57242 -8.94963
3 1 3.14484 1.1699e-13 1.06399e-13 -8.94963
4 1 4.71726 1.57242 1.57242 -8.94963
448 1 20.4415 11.007 7.86211 -8.94963
6 1 7.86211 1.57242 1.57242 -8.94963
175 1 18.8691 9.43453 9.43453 -8.94964
8 1 11.007 1.57242 1.57242 -8.94963
174 1 15.7242 9.43453 9.43453 -8.95012
10 1 14.1518 1.57242 1.57242 -8.94963
11 1 15.7242 -2.48167e-14 6.16415e-13 -8.94963
12 1 17.2966 1.57242 1.57242 -8.94963
7 1 9.43453 6.18674e-12 2.11567e-11 -8.94963
14 1 20.4415 1.57242 1.57242 -8.94963
447 1 17.2966 11.007 7.86211 -8.94969
16 1 1.57242 4.71726 1.57242 -8.94963
446 1 14.152 11.0069 7.86207 -8.95409
18 1 4.71726 4.71726 1.57242 -8.94963
445 1 11.0282 11.0069 7.81928 -7.84446
20 1 7.86211 4.71726 1.57242 -8.94963
56 1 9.43453 1.49445e-10 3.14484 -8.94963
22 1 11.007 4.71726 1.57242 -8.94963
444 1 7.86023 11.0069 7.86077 -8.91299
24 1 14.1518 4.71726 1.57242 -8.94963
443 1 4.71725 11.007 7.86211 -8.95008
26 1 17.2966 4.71726 1.57242 -8.94963
442 1 1.57242 11.007 7.86211 -8.94964
28 1 20.4415 4.71726 1.57242 -8.94963
397 1 14.1518 11.007 4.71728 -8.9506
30 1 1.57242 7.86211 1.57242 -8.94963
396 1 11.007 11.007 4.71682 -8.9592
32 1 4.71726 7.86211 1.57242 -8.94963
395 1 7.86211 11.007 4.71726 -8.95027
34 1 7.86211 7.86211 1.57242 -8.94963
35 1 9.43453 6.28969 2.12634e-09 -8.94963
36 1 11.007 7.86211 1.57242 -8.94963
37 1 12.5794 6.28969 2.37151e-09 -8.94963
38 1 14.1518 7.86211 1.57242 -8.94963
518 1 20.4415 11.007 11.007 -8.94963
40 1 17.2966 7.86211 1.57242 -8.94963
350 1 20.4415 11.007 1.57242 -8.94963
42 1 20.4415 7.86211 1.57242 -8.94963
58 1 12.5794 1.52114e-10 3.14484 -8.94963
44 1 3.14484 9.43453 9.44646e-11 -8.94963
348 1 14.1518 11.007 1.57242 -8.94963
347 1 11.007 11.007 1.57242 -8.94975
346 1 7.86211 11.007 1.57242 -8.94964
48 1 15.7242 9.43453 3.33733e-09 -8.94963
149 1 3.14484 1.20394e-10 9.43453 -8.94963
50 1 1.1657e-13 7.66238e-14 3.14484 -8.94963
51 1 1.57242 1.57242 4.71726 -8.94963
52 1 3.14484 2.72593e-12 3.14484 -8.94963
53 1 4.71726 1.57242 4.71726 -8.94963
517 1 17.2966 11.0069 11.0069 -8.94964
55 1 7.86211 1.57242 4.71726 -8.94963
173 1 12.5816 9.43287 9.43418 -8.90269
57 1 11.007 1.57242 4.71726 -8.94963
172 1 9.41299 9.39154 9.43423 -7.83787
59 1 14.1518 1.57242 4.71726 -8.94963
516 1 14.1521 11.0068 11.0068 -8.9506
61 1 17.2966 1.57242 4.71726 -8.94963
62 1 18.8691 2.72391e-12 3.14484 -8.94963
63 1 20.4415 1.57242 4.71726 -8.94963
64 1 22.0139 3.14484 3.14484 -8.94963
65 1 1.57242 4.71726 4.71726 -8.94963
66 1 3.14484 3.14484 3.14484 -8.94963
67 1 4.71726 4.71726 4.71726 -8.94963
68 1 6.28969 3.14484 3.14484 -8.94963
69 1 7.86211 4.71726 4.71726 -8.94965
70 1 9.43453 3.14484 3.14484 -8.94963
71 1 11.007 4.71726 4.71726 -8.94964
72 1 12.5794 3.14484 3.14484 -8.94963
73 1 14.1518 4.71726 4.71726 -8.94963
74 1 15.7242 3.14484 3.14484 -8.94963
75 1 17.2966 4.71726 4.71726 -8.94963
76 1 18.8691 3.14484 3.14484 -8.94963
77 1 20.4415 4.71726 4.71726 -8.94963
78 1 22.0139 6.28969 3.14484 -8.94963
79 1 1.57242 7.86211 4.71726 -8.94963
80 1 3.14484 6.28969 3.14484 -8.94963
81 1 4.71726 7.86211 4.71726 -8.94964
82 1 6.28969 6.28969 3.14484 -8.94963
83 1 7.86211 7.86211 4.71726 -8.94968
84 1 9.43453 6.28969 3.14484 -8.94964
85 1 11.0069 7.86212 4.71728 -8.95027
86 1 12.5794 6.28969 3.14484 -8.94965
87 1 14.1518 7.8621 4.71726 -8.94947
88 1 15.7242 6.28969 3.14484 -8.94963
89 1 17.2966 7.86211 4.71726 -8.94963
90 1 18.8691 6.28969 3.14484 -8.94963
91 1 20.4415 7.86211 4.71726 -8.94963
92 1 1.75031e-10 9.43453 3.14484 -8.94963
93 1 3.14484 9.43453 3.14484 -8.94963
94 1 6.28969 9.43453 3.14484 -8.94964
95 1 9.43453 9.43453 3.14484 -8.94958
96 1 12.5794 9.43453 3.14484 -8.94965
97 1 15.7242 9.43453 3.14484 -8.94965
98 1 18.8691 9.43453 3.14484 -8.94963
513 1 4.71724 11.0069 11.007 -8.95002
100 1 1.57242 1.57242 7.86211 -8.94963
189 1 20.4415 4.71726 11.007 -8.94963
102 1 4.71726 1.57242 7.86211 -8.94963
103 1 6.28969 1.05373e-09 6.28969 -8.94963
104 1 7.86211 1.57242 7.86211 -8.94963
171 1 6.28946 9.4345 9.43453 -8.95437
106 1 11.007 1.57242 7.86211 -8.94963
170 1 3.14484 9.43453 9.43453 -8.94969
108 1 14.1518 1.57242 7.86211 -8.94963
109 1 15.7242 1.05436e-09 6.28969 -8.94963
110 1 17.2966 1.57242 7.86211 -8.94963
188 1 17.2966 4.71726 11.007 -8.94963
112 1 20.4415 1.57242 7.86211 -8.94963
113 1 2.71692e-11 3.14484 6.28969 -8.94963
114 1 1.57242 4.71726 7.86211 -8.94963
115 1 3.14484 3.14484 6.28969 -8.94963
116 1 4.71726 4.71726 7.86211 -8.94965
117 1 6.28969 3.14484 6.28969 -8.94963
118 1 7.8621 4.71726 7.8621 -8.94965
119 1 9.43453 3.14484 6.28969 -8.94963
120 1 11.007 4.71726 7.8621 -8.94958
121 1 12.5794 3.14484 6.28969 -8.94963
122 1 14.1518 4.71726 7.86211 -8.94964
123 1 15.7242 3.14484 6.28969 -8.94963
124 1 17.2966 4.71726 7.86211 -8.94963
125 1 18.8691 3.14484 6.28969 -8.94963
126 1 20.4415 4.71726 7.86211 -8.94963
127 1 22.0139 6.28969 6.28969 -8.94963
128 1 1.57242 7.86211 7.86211 -8.94963
129 1 3.14484 6.28969 6.28969 -8.94963
130 1 4.71726 7.86211 7.86211 -8.94971
131 1 6.28968 6.28968 6.28968 -8.94947
132 1 7.86175 7.86177 7.86174 -8.93701
133 1 9.43453 6.2897 6.2897 -8.95029
134 1 11.0071 7.86204 7.86199 -8.94634
135 1 12.5794 6.28968 6.28969 -8.9497
136 1 14.1518 7.86209 7.86209 -8.94926
137 1 15.7242 6.28969 6.28969 -8.94964
138 1 17.2966 7.86211 7.86211 -8.94963
139 1 18.8691 6.28969 6.28969 -8.94963
140 1 20.4415 7.86211 7.86211 -8.94963
141 1 22.0139 9.43453 6.28969 -8.94963
142 1 3.14484 9.43453 6.28969 -8.94963
143 1 6.28968 9.43451 6.28968 -8.94942
144 1 9.43439 9.43439 6.28959 -8.94564
145 1 12.5797 9.43417 6.28934 -8.93728
146 1 15.7242 9.43453 6.28969 -8.94972
147 1 18.8691 9.43453 6.28969 -8.94963
148 1 2.30098e-11 2.40309e-12 9.43453 -8.94963
169 1 22.0139 9.43453 9.43453 -8.94963
168 1 18.8691 6.28969 9.43453 -8.94963
151 1 9.43453 6.491e-08 9.43453 -8.94964
152 1 12.5794 6.49335e-08 9.43453 -8.94963
167 1 15.7242 6.28969 9.43453 -8.94969
166 1 12.5794 6.28968 9.43453 -8.95028
155 1 22.0139 3.14484 9.43453 -8.94963
156 1 3.14484 3.14484 9.43453 -8.94963
157 1 6.28969 3.14484 9.43453 -8.94963
158 1 9.43453 3.14484 9.43453 -8.94975
159 1 12.5794 3.14484 9.43453 -8.94964
160 1 15.7242 3.14484 9.43453 -8.94963
161 1 18.8691 3.14484 9.43453 -8.94963
162 1 4.22139e-10 6.28969 9.43453 -8.94963
163 1 3.14484 6.28969 9.43453 -8.94963
164 1 6.28971 6.28971 9.43453 -8.95061
165 1 9.43452 6.28923 9.43453 -8.95916
344 1 1.57242 11.007 1.57242 -8.94963
183 1 1.57242 4.71726 11.007 -8.94963
181 1 17.2966 1.57242 11.007 -8.94963
154 1 18.8691 1.22192e-10 9.43453 -8.94963
177 1 4.71726 1.57242 11.007 -8.94963
9 1 12.5794 6.06239e-12 2.45666e-12 -8.94963
184 1 4.71726 4.71726 11.007 -8.94965
512 1 1.57242 11.007 11.007 -8.94964
41 1 18.8691 6.28969 2.31302e-11 -8.94963
19 1 6.28969 3.14484 2.90266e-11 -8.94963
25 1 15.7242 3.14484 1.44213e-11 -8.94963
176 1 1.57242 1.57242 11.007 -8.94963
199 1 3.14484 8.7573e-11 12.5794 -8.94963
178 1 7.86211 1.57242 11.007 -8.94963
179 1 11.007 1.57242 11.007 -8.94963
180 1 14.1518 1.57242 11.007 -8.94963
644 1 20.4415 11.007 20.4415 -8.94963
182 1 20.4415 1.57242 11.007 -8.94963
642 1 14.1518 11.007 20.4415 -8.94963
209 1 18.8691 8.72277e-11 12.5794 -8.94963
185 1 7.8621 4.71726 11.007 -8.94965
186 1 11.007 4.71726 11.007 -8.9497
187 1 14.1518 4.71726 11.007 -8.94964
641 1 11.007 11.007 20.4415 -8.94964
640 1 7.86211 11.007 20.4415 -8.94963
190 1 1.57242 7.86211 11.007 -8.94963
191 1 4.71726 7.86211 11.007 -8.94971
192 1 7.86177 7.86179 11.0073 -8.93778
193 1 11.0071 7.86155 11.0071 -8.95559
194 1 14.1518 7.86211 11.007 -8.95018
195 1 17.2966 7.86211 11.007 -8.94964
196 1 20.4415 7.86211 11.007 -8.94963
343 1 18.8691 9.43453 18.8691 -8.94963
198 1 1.57242 1.57242 14.1518 -8.94963
342 1 15.7242 9.43453 18.8691 -8.94963
200 1 4.71726 1.57242 14.1518 -8.94963
341 1 12.5794 9.43453 18.8691 -8.94963
202 1 7.86211 1.57242 14.1518 -8.94963
203 1 9.43453 4.63087e-08 12.5794 -8.94963
204 1 11.007 1.57242 14.1518 -8.94963
205 1 12.5794 4.63189e-08 12.5794 -8.94963
206 1 14.1518 1.57242 14.1518 -8.94963
340 1 9.43453 9.43453 18.8691 -8.94963
208 1 17.2966 1.57242 14.1518 -8.94963
339 1 6.28969 9.43453 18.8691 -8.94963
210 1 20.4415 1.57242 14.1518 -8.94963
211 1 2.70809e-11 3.14484 12.5794 -8.94963
212 1 1.57242 4.71726 14.1518 -8.94963
213 1 3.14484 3.14484 12.5794 -8.94963
214 1 4.71726 4.71726 14.1518 -8.94963
215 1 6.28969 3.14484 12.5794 -8.94963
216 1 7.86211 4.71726 14.1518 -8.94965
217 1 9.43453 3.14484 12.5794 -8.94963
218 1 11.007 4.71726 14.1518 -8.94964
219 1 12.5794 3.14484 12.5794 -8.94963
220 1 14.1518 4.71726 14.1518 -8.94963
221 1 15.7242 3.14484 12.5794 -8.94963
222 1 17.2966 4.71726 14.1518 -8.94963
223 1 18.8691 3.14484 12.5794 -8.94963
224 1 20.4415 4.71726 14.1518 -8.94963
225 1 22.0139 6.28969 12.5794 -8.94963
226 1 1.57242 7.86211 14.1518 -8.94963
227 1 3.14484 6.28969 12.5794 -8.94963
228 1 4.71726 7.86211 14.1518 -8.94965
229 1 6.28968 6.28968 12.5794 -8.94948
230 1 7.8621 7.8621 14.1518 -8.94973
231 1 9.43453 6.2897 12.5794 -8.95023
232 1 11.0069 7.86212 14.1518 -8.95103
233 1 12.5794 6.28968 12.5794 -8.94964
234 1 14.1518 7.8621 14.1518 -8.94951
235 1 15.7242 6.28969 12.5794 -8.94964
236 1 17.2966 7.86211 14.1518 -8.94965
237 1 18.8691 6.28969 12.5794 -8.94963
238 1 20.4415 7.86211 14.1518 -8.94963
239 1 22.0139 9.43453 12.5794 -8.94963
240 1 3.14484 9.43453 12.5794 -8.94963
241 1 6.28969 9.43453 12.5794 -8.95006
242 1 9.43423 9.43428 12.5796 -8.94057
243 1 12.5799 9.43405 12.5799 -8.93051
244 1 15.7242 9.43454 12.5794 -8.95036
245 1 18.8691 9.43453 12.5794 -8.94963
246 1 1.15605e-13 2.7416e-12 15.7242 -8.94963
247 1 1.57242 1.57242 17.2966 -8.94963
47 1 12.5794 9.43453 22.0139 -8.94963
249 1 4.71726 1.57242 17.2966 -8.94963
250 1 6.28969 8.84645e-10 15.7242 -8.94963
251 1 7.86211 1.57242 17.2966 -8.94963
252 1 9.43453 5.9835e-10 15.7242 -8.94963
253 1 11.007 1.57242 17.2966 -8.94963
254 1 12.5794 6.00143e-10 15.7242 -8.94963
255 1 14.1518 1.57242 17.2966 -8.94963
256 1 15.7242 8.84799e-10 15.7242 -8.94963
257 1 17.2966 1.57242 17.2966 -8.94963
46 1 9.43453 9.43453 22.0139 -8.94963
259 1 20.4415 1.57242 17.2966 -8.94963
260 1 22.0139 3.14484 15.7242 -8.94963
261 1 1.57242 4.71726 17.2966 -8.94963
262 1 3.14484 3.14484 15.7242 -8.94963
263 1 4.71726 4.71726 17.2966 -8.94963
264 1 6.28969 3.14484 15.7242 -8.94963
265 1 7.86211 4.71726 17.2966 -8.94963
266 1 9.43453 3.14484 15.7242 -8.94963
267 1 11.007 4.71726 17.2966 -8.94963
268 1 12.5794 3.14484 15.7242 -8.94963
269 1 14.1518 4.71726 17.2966 -8.94963
270 1 15.7242 3.14484 15.7242 -8.94963
271 1 17.2966 4.71726 17.2966 -8.94963
272 1 18.8691 3.14484 15.7242 -8.94963
273 1 20.4415 4.71726 17.2966 -8.94963
274 1 22.0139 6.28969 15.7242 -8.94963
275 1 1.57242 7.86211 17.2966 -8.94963
276 1 3.14484 6.28969 15.7242 -8.94963
277 1 4.71726 7.86211 17.2966 -8.94963
278 1 6.28969 6.28969 15.7242 -8.94963
279 1 7.86211 7.86211 17.2966 -8.94964
280 1 9.43453 6.28969 15.7242 -8.94964
281 1 11.007 7.86211 17.2966 -8.94968
282 1 12.5794 6.28969 15.7242 -8.94965
283 1 14.1518 7.86211 17.2966 -8.94964
284 1 15.7242 6.28969 15.7242 -8.94963
285 1 17.2966 7.86211 17.2966 -8.94963
286 1 18.8691 6.28969 15.7242 -8.94963
287 1 20.4415 7.86211 17.2966 -8.94963
288 1 1.73749e-10 9.43453 15.7242 -8.94963
289 1 3.14484 9.43453 15.7242 -8.94963
290 1 6.28968 9.43452 15.7242 -8.94948
291 1 9.43451 9.43452 15.7242 -8.94938
292 1 12.5794 9.43452 15.7242 -8.94945
293 1 15.7242 9.43452 15.7242 -8.94949
294 1 18.8691 9.43453 15.7242 -8.94963
45 1 6.28969 9.43453 22.0139 -8.94963
296 1 1.57242 1.57242 20.4415 -8.94963
297 1 3.14484 7.39928e-12 18.8691 -8.94963
298 1 4.71726 1.57242 20.4415 -8.94963
299 1 6.28969 1.78124e-11 18.8691 -8.94963
300 1 7.86211 1.57242 20.4415 -8.94963
338 1 3.14484 9.43453 18.8691 -8.94963
302 1 11.007 1.57242 20.4415 -8.94963
337 1 22.0139 9.43453 18.8691 -8.94963
304 1 14.1518 1.57242 20.4415 -8.94963
305 1 15.7242 1.78532e-11 18.8691 -8.94963
306 1 17.2966 1.57242 20.4415 -8.94963
307 1 18.8691 7.39755e-12 18.8691 -8.94963
308 1 20.4415 1.57242 20.4415 -8.94963
309 1 22.0139 3.14484 18.8691 -8.94963
310 1 1.57242 4.71726 20.4415 -8.94963
311 1 3.14484 3.14484 18.8691 -8.94963
312 1 4.71726 4.71726 20.4415 -8.94963
313 1 6.28969 3.14484 18.8691 -8.94963
314 1 7.86211 4.71726 20.4415 -8.94963
315 1 9.43453 3.14484 18.8691 -8.94963
316 1 11.007 4.71726 20.4415 -8.94963
317 1 12.5794 3.14484 18.8691 -8.94963
318 1 14.1518 4.71726 20.4415 -8.94963
319 1 15.7242 3.14484 18.8691 -8.94963
320 1 17.2966 4.71726 20.4415 -8.94963
321 1 18.8691 3.14484 18.8691 -8.94963
322 1 20.4415 4.71726 20.4415 -8.94963
323 1 22.0139 6.28969 18.8691 -8.94963
324 1 1.57242 7.86211 20.4415 -8.94963
325 1 3.14484 6.28969 18.8691 -8.94963
326 1 4.71726 7.86211 20.4415 -8.94963
327 1 6.28969 6.28969 18.8691 -8.94963
328 1 7.86211 7.86211 20.4415 -8.94963
329 1 9.43453 6.28969 18.8691 -8.94963
330 1 11.007 7.86211 20.4415 -8.94963
331 1 12.5794 6.28969 18.8691 -8.94963
332 1 14.1518 7.86211 20.4415 -8.94963
333 1 15.7242 6.28969 18.8691 -8.94963
334 1 17.2966 7.86211 20.4415 -8.94963
335 1 18.8691 6.28969 18.8691 -8.94963
336 1 20.4415 7.86211 20.4415 -8.94963
29 1 22.0139 6.28969 22.0139 -8.94963
638 1 1.57242 11.007 20.4415 -8.94963
514 1 7.86015 11.0068 11.0081 -8.90927
515 1 11.0293 10.9621 11.0294 -6.60904
27 1 18.8691 3.14484 22.0139 -8.94963
39 1 15.7242 6.28969 22.0139 -8.94963
593 1 14.1518 11.0069 17.2966 -8.94971
540 1 1.57242 11.007 14.1518 -8.94963
541 1 4.71726 11.0069 14.1518 -8.94969
542 1 7.86178 11.0066 14.1522 -8.9378
543 1 11.007 11.0056 14.1541 -8.92554
544 1 14.1521 11.0066 14.1521 -8.93808
545 1 17.2966 11.0069 14.1518 -8.94964
546 1 20.4415 11.007 14.1518 -8.94963
33 1 6.28969 6.28969 22.0139 -8.94963
31 1 3.14484 6.28969 22.0139 -8.94963
591 1 7.86211 11.0069 17.2966 -8.94972
592 1 11.007 11.0069 17.2967 -8.95018
5 1 6.28969 -3.35825e-14 22.0139 -8.94963
15 1 22.0139 3.14484 22.0139 -8.94963
17 1 3.14484 3.14484 22.0139 -8.94963
23 1 12.5794 3.14484 22.0139 -8.94963
13 1 18.8691 1.15912e-13 22.0139 -8.94963
21 1 9.43453 3.14484 22.0139 -8.94963
43 1 22.0139 9.43453 22.0139 -8.94963
49 1 18.8691 9.43453 22.0139 -8.94963
688 3 10.2199 11.0076 9.43326 4.57914
511 1 18.8691 18.8691 9.43453 -8.94963
510 1 15.7242 18.8691 9.43453 -8.94965
509 1 12.5794 18.8691 9.43453 -8.94965
508 1 9.43453 18.8691 9.43453 -8.94976
349 1 17.2966 11.007 1.57242 -8.94963
507 1 6.28969 18.8691 9.43453 -8.94965
539 1 20.4415 20.4415 11.007 -8.94963
352 1 1.57242 14.1518 1.57242 -8.94963
353 1 3.14484 12.5794 1.60992e-10 -8.94963
354 1 4.71726 14.1518 1.57242 -8.94963
153 1 15.7242 22.0139 9.43453 -8.94963
356 1 7.86211 14.1518 1.57242 -8.94963
150 1 6.28969 22.0139 9.43453 -8.94963
358 1 11.007 14.1518 1.57242 -8.94963
345 1 4.71726 11.007 1.57242 -8.94963
360 1 14.1518 14.1518 1.57242 -8.94963
361 1 15.7242 12.5794 2.35992e-09 -8.94963
362 1 17.2966 14.1518 1.57242 -8.94963
107 1 12.5794 22.0139 6.28969 -8.94963
364 1 20.4415 14.1518 1.57242 -8.94963
365 1 22.0139 15.7242 3.28675e-12 -8.94963
366 1 1.57242 17.2966 1.57242 -8.94963
105 1 9.43453 22.0139 6.28969 -8.94963
368 1 4.71726 17.2966 1.57242 -8.94963
529 1 11.007 17.2971 11.0069 -8.95913
370 1 7.86211 17.2966 1.57242 -8.94963
371 1 9.43453 15.7242 4.83408e-09 -8.94963
372 1 11.007 17.2966 1.57242 -8.94963
373 1 12.5794 15.7242 5.10168e-09 -8.94963
374 1 14.1518 17.2966 1.57242 -8.94963
526 1 1.57242 17.2966 11.007 -8.94963
376 1 17.2966 17.2966 1.57242 -8.94963
525 1 20.4415 14.1518 11.007 -8.94963
378 1 20.4415 17.2966 1.57242 -8.94963
111 1 18.8691 22.0139 6.28969 -8.94963
380 1 1.57242 20.4415 1.57242 -8.94963
495 1 12.5826 12.5807 9.43266 -8.87773
382 1 4.71726 20.4415 1.57242 -8.94963
383 1 6.28969 18.8691 4.40617e-11 -8.94963
384 1 7.86211 20.4415 1.57242 -8.94963
494 1 9.41199 12.622 9.43272 -7.80294
386 1 11.007 20.4415 1.57242 -8.94963
493 1 6.28946 12.5794 9.43454 -8.95493
388 1 14.1518 20.4415 1.57242 -8.94963
389 1 15.7242 18.8691 2.99975e-11 -8.94963
390 1 17.2966 20.4415 1.57242 -8.94963
391 1 18.8691 18.8691 4.60159e-12 -8.94963
392 1 20.4415 20.4415 1.57242 -8.94963
506 1 3.14484 18.8691 9.43453 -8.94963
394 1 4.71727 11.007 4.71727 -8.94968
505 1 22.0139 18.8691 9.43453 -8.94963
504 1 18.8691 15.7242 9.43453 -8.94963
503 1 15.7242 15.7242 9.43453 -8.94973
398 1 17.2966 11.007 4.71726 -8.94963
399 1 20.4415 11.007 4.71726 -8.94963
400 1 1.75586e-10 12.5794 3.14484 -8.94963
401 1 1.57242 14.1518 4.71726 -8.94963
402 1 3.14484 12.5794 3.14484 -8.94963
403 1 4.71726 14.1518 4.71726 -8.94964
404 1 6.28969 12.5794 3.14484 -8.94964
405 1 7.86211 14.1518 4.71726 -8.94969
406 1 9.43453 12.5794 3.14484 -8.94959
407 1 11.0069 14.1518 4.71728 -8.95033
408 1 12.5794 12.5794 3.14484 -8.94965
409 1 14.1518 14.1518 4.71726 -8.94948
410 1 15.7242 12.5794 3.14484 -8.94965
411 1 17.2966 14.1518 4.71726 -8.94963
412 1 18.8691 12.5794 3.14484 -8.94963
413 1 20.4415 14.1518 4.71726 -8.94963
414 1 22.0139 15.7242 3.14484 -8.94963
415 1 1.57242 17.2966 4.71726 -8.94963
416 1 3.14484 15.7242 3.14484 -8.94963
417 1 4.71726 17.2966 4.71726 -8.94963
418 1 6.28969 15.7242 3.14484 -8.94963
419 1 7.86211 17.2966 4.71726 -8.94965
420 1 9.43453 15.7242 3.14484 -8.94964
421 1 11.007 17.2966 4.71726 -8.94963
422 1 12.5794 15.7242 3.14484 -8.94965
423 1 14.1518 17.2966 4.71726 -8.94963
424 1 15.7242 15.7242 3.14484 -8.94963
425 1 17.2966 17.2966 4.71726 -8.94963
426 1 18.8691 15.7242 3.14484 -8.94963
427 1 20.4415 17.2966 4.71726 -8.94963
428 1 22.0139 18.8691 3.14484 -8.94963
429 1 1.57242 20.4415 4.71726 -8.94963
430 1 3.14484 18.8691 3.14484 -8.94963
431 1 4.71726 20.4415 4.71726 -8.94963
432 1 6.28969 18.8691 3.14484 -8.94963
433 1 7.86211 20.4415 4.71726 -8.94963
434 1 9.43453 18.8691 3.14484 -8.94963
435 1 11.007 20.4415 4.71726 -8.94963
436 1 12.5794 18.8691 3.14484 -8.94963
437 1 14.1518 20.4415 4.71726 -8.94963
438 1 15.7242 18.8691 3.14484 -8.94963
439 1 17.2966 20.4415 4.71726 -8.94963
440 1 18.8691 18.8691 3.14484 -8.94963
441 1 20.4415 20.4415 4.71726 -8.94963
502 1 12.5797 15.7246 9.43417 -8.93782
501 1 9.43416 15.725 9.43418 -8.94678
500 1 6.2897 15.7242 9.43453 -8.95065
499 1 3.14484 15.7242 9.43453 -8.94963
498 1 4.10085e-10 15.7242 9.43453 -8.94963
497 1 18.8691 12.5794 9.43453 -8.94964
496 1 15.7242 12.5794 9.43454 -8.95071
449 1 22.0139 12.5794 6.28969 -8.94963
450 1 1.57242 14.1518 7.86211 -8.94963
451 1 3.14484 12.5794 6.28969 -8.94963
452 1 4.71726 14.1518 7.86211 -8.94972
453 1 6.28968 12.5794 6.28968 -8.94946
454 1 7.86174 14.1521 7.86174 -8.9368
455 1 9.43439 12.5795 6.28957 -8.94601
456 1 11.0071 14.1519 7.86175 -8.95036
457 1 12.5797 12.5797 6.28933 -8.93765
458 1 14.1518 14.1518 7.86208 -8.94919
459 1 15.7242 12.5794 6.28969 -8.94975
460 1 17.2966 14.1518 7.86211 -8.94964
461 1 18.8691 12.5794 6.28969 -8.94963
462 1 20.4415 14.1518 7.86211 -8.94963
463 1 22.0139 15.7242 6.28969 -8.94963
464 1 1.57242 17.2966 7.86211 -8.94963
465 1 3.14484 15.7242 6.28969 -8.94963
466 1 4.71726 17.2966 7.86211 -8.94965
467 1 6.28968 15.7242 6.28968 -8.94948
468 1 7.8621 17.2966 7.8621 -8.94949
469 1 9.43453 15.7242 6.2897 -8.95036
470 1 11.007 17.2966 7.86212 -8.95055
471 1 12.5794 15.7242 6.28968 -8.94976
472 1 14.1518 17.2966 7.8621 -8.94948
473 1 15.7242 15.7242 6.28969 -8.94964
474 1 17.2966 17.2966 7.86211 -8.94963
475 1 18.8691 15.7242 6.28969 -8.94963
476 1 20.4415 17.2966 7.86211 -8.94963
477 1 2.6918e-11 18.8691 6.28969 -8.94963
478 1 1.57242 20.4415 7.86211 -8.94963
479 1 3.14484 18.8691 6.28969 -8.94963
480 1 4.71726 20.4415 7.86211 -8.94963
481 1 6.28969 18.8691 6.28969 -8.94963
482 1 7.86211 20.4415 7.86211 -8.94963
483 1 9.43453 18.8691 6.28969 -8.94965
484 1 11.007 20.4415 7.86211 -8.94963
485 1 12.5794 18.8691 6.28969 -8.94965
486 1 14.1518 20.4415 7.86211 -8.94963
487 1 15.7242 18.8691 6.28969 -8.94963
488 1 17.2966 20.4415 7.86211 -8.94963
489 1 18.8691 18.8691 6.28969 -8.94963
490 1 20.4415 20.4415 7.86211 -8.94963
491 1 22.0139 12.5794 9.43453 -8.94963
492 1 3.14484 12.5794 9.43453 -8.94969
519 1 1.57242 14.1518 11.007 -8.94963
520 1 4.71726 14.1518 11.0069 -8.94966
522 1 11.0071 14.1946 10.9858 -7.83019
523 1 14.1519 14.1519 11.0068 -8.94527
524 1 17.2966 14.1518 11.0069 -8.94958
393 1 1.57242 11.007 4.71726 -8.94963
54 1 6.28969 22.0139 3.14484 -8.94963
60 1 15.7242 22.0139 3.14484 -8.94963
99 1 22.0139 22.0139 6.28969 -8.94963
101 1 3.14484 22.0139 6.28969 -8.94963
527 1 4.71726 17.2966 11.007 -8.94965
534 1 4.71726 20.4415 11.007 -8.94963
687 3 11.0066 12.5809 11.7933 4.57834
686 1 20.4415 20.4415 20.4415 -8.94963
685 1 18.8691 18.8691 18.8691 -8.94963
684 1 17.2966 20.4415 20.4415 -8.94963
683 1 15.7242 18.8691 18.8691 -8.94963
682 1 14.1518 20.4415 20.4415 -8.94963
681 1 12.5794 18.8691 18.8691 -8.94963
303 1 12.5794 22.0139 18.8691 -8.94963
301 1 9.43453 22.0139 18.8691 -8.94963
521 1 7.86166 14.1523 11.0072 -8.93325
387 1 12.5794 18.8691 22.0139 -8.94963
207 1 15.7242 22.0139 12.5794 -8.94963
201 1 6.28969 22.0139 12.5794 -8.94963
385 1 9.43453 18.8691 22.0139 -8.94963
197 1 22.0139 22.0139 12.5794 -8.94963
590 1 4.71726 11.007 17.2966 -8.94965
528 1 7.86212 17.2966 11.007 -8.95029
661 1 3.14484 15.7242 18.8691 -8.94963
530 1 14.1518 17.2966 11.007 -8.95028
531 1 17.2966 17.2966 11.007 -8.94964
660 1 1.57242 17.2966 20.4415 -8.94963
533 1 1.57242 20.4415 11.007 -8.94963
589 1 1.57242 11.007 17.2966 -8.94963
535 1 7.86211 20.4415 11.007 -8.94963
536 1 11.007 20.4415 11.007 -8.94975
537 1 14.1518 20.4415 11.007 -8.94963
538 1 17.2966 20.4415 11.007 -8.94963
659 1 22.0139 15.7242 18.8691 -8.94963
680 1 11.007 20.4415 20.4415 -8.94963
679 1 9.43453 18.8691 18.8691 -8.94963
678 1 7.86211 20.4415 20.4415 -8.94963
677 1 6.28969 18.8691 18.8691 -8.94963
676 1 4.71726 20.4415 20.4415 -8.94963
675 1 3.14484 18.8691 18.8691 -8.94963
674 1 1.57242 20.4415 20.4415 -8.94963
547 1 22.0139 12.5794 12.5794 -8.94963
548 1 1.57242 14.1518 14.1518 -8.94963
549 1 3.14484 12.5794 12.5794 -8.94975
550 1 4.71726 14.1518 14.1518 -8.94965
551 1 6.28923 12.5794 12.5794 -8.95895
552 1 7.86177 14.1522 14.1522 -8.93725
553 1 9.39173 12.5795 12.6007 -7.83778
554 1 11.0069 14.1531 14.1536 -8.91375
555 1 12.6224 12.5797 12.6009 -7.83814
556 1 14.1521 14.1522 14.1522 -8.93701
557 1 15.7247 12.5794 12.5794 -8.95922
558 1 17.2966 14.1518 14.1518 -8.94965
559 1 18.8691 12.5794 12.5794 -8.94975
560 1 20.4415 14.1518 14.1518 -8.94963
561 1 22.0139 15.7242 12.5794 -8.94963
562 1 1.57242 17.2966 14.1518 -8.94963
563 1 3.14484 15.7242 12.5794 -8.94963
564 1 4.71726 17.2966 14.1518 -8.94964
565 1 6.28969 15.7242 12.5794 -8.95012
566 1 7.86211 17.2966 14.1518 -8.9497
567 1 9.43439 15.7243 12.5795 -8.9462
568 1 11.007 17.2966 14.1518 -8.95028
569 1 12.5795 15.7243 12.5795 -8.9456
570 1 14.1518 17.2966 14.1518 -8.94968
571 1 15.7242 15.7242 12.5794 -8.95028
572 1 17.2966 17.2966 14.1518 -8.94965
573 1 18.8691 15.7242 12.5794 -8.94963
574 1 20.4415 17.2966 14.1518 -8.94963
575 1 2.69597e-11 18.8691 12.5794 -8.94963
576 1 1.57242 20.4415 14.1518 -8.94963
577 1 3.14484 18.8691 12.5794 -8.94963
578 1 4.71726 20.4415 14.1518 -8.94963
579 1 6.28969 18.8691 12.5794 -8.94963
580 1 7.86211 20.4415 14.1518 -8.94963
581 1 9.43453 18.8691 12.5794 -8.94958
582 1 11.007 20.4415 14.1518 -8.94964
583 1 12.5794 18.8691 12.5794 -8.94958
584 1 14.1518 20.4415 14.1518 -8.94963
585 1 15.7242 18.8691 12.5794 -8.94964
586 1 17.2966 20.4415 14.1518 -8.94963
587 1 18.8691 18.8691 12.5794 -8.94963
588 1 20.4415 20.4415 14.1518 -8.94963
673 1 22.0139 18.8691 18.8691 -8.94963
672 1 20.4415 17.2966 20.4415 -8.94963
671 1 18.8691 15.7242 18.8691 -8.94963
670 1 17.2966 17.2966 20.4415 -8.94963
669 1 15.7242 15.7242 18.8691 -8.94963
668 1 14.1518 17.2966 20.4415 -8.94963
667 1 12.5794 15.7242 18.8691 -8.94963
596 1 1.76417e-10 12.5794 15.7242 -8.94963
597 1 1.57242 14.1518 17.2966 -8.94963
598 1 3.14484 12.5794 15.7242 -8.94963
599 1 4.71726 14.1518 17.2966 -8.94965
600 1 6.28971 12.5794 15.7242 -8.9506
601 1 7.86211 14.1518 17.2966 -8.94971
602 1 9.4345 12.5794 15.7244 -8.9543
603 1 11.007 14.1518 17.2967 -8.95007
604 1 12.5794 12.5794 15.7244 -8.95434
605 1 14.1518 14.1518 17.2966 -8.94971
606 1 15.7242 12.5794 15.7242 -8.95061
607 1 17.2966 14.1518 17.2966 -8.94965
608 1 18.8691 12.5794 15.7242 -8.94963
609 1 20.4415 14.1518 17.2966 -8.94963
610 1 22.0139 15.7242 15.7242 -8.94963
611 1 1.57242 17.2966 17.2966 -8.94963
612 1 3.14484 15.7242 15.7242 -8.94963
613 1 4.71726 17.2966 17.2966 -8.94963
614 1 6.28968 15.7242 15.7242 -8.94947
615 1 7.86211 17.2966 17.2966 -8.94964
616 1 9.43451 15.7242 15.7242 -8.94942
617 1 11.007 17.2966 17.2966 -8.94968
618 1 12.5794 15.7242 15.7242 -8.94943
619 1 14.1518 17.2966 17.2966 -8.94964
620 1 15.7242 15.7242 15.7242 -8.94947
621 1 17.2966 17.2966 17.2966 -8.94963
622 1 18.8691 15.7242 15.7242 -8.94963
623 1 20.4415 17.2966 17.2966 -8.94963
624 1 22.0139 18.8691 15.7242 -8.94963
625 1 1.57242 20.4415 17.2966 -8.94963
626 1 3.14484 18.8691 15.7242 -8.94963
627 1 4.71726 20.4415 17.2966 -8.94963
628 1 6.28969 18.8691 15.7242 -8.94963
629 1 7.86211 20.4415 17.2966 -8.94963
630 1 9.43453 18.8691 15.7242 -8.94964
631 1 11.007 20.4415 17.2966 -8.94963
632 1 12.5794 18.8691 15.7242 -8.94964
633 1 14.1518 20.4415 17.2966 -8.94963
634 1 15.7242 18.8691 15.7242 -8.94963
635 1 17.2966 20.4415 17.2966 -8.94963
636 1 18.8691 18.8691 15.7242 -8.94963
637 1 20.4415 20.4415 17.2966 -8.94963
666 1 11.007 17.2966 20.4415 -8.94963
639 1 4.71726 11.007 20.4415 -8.94963
665 1 9.43453 15.7242 18.8691 -8.94963
664 1 7.86211 17.2966 20.4415 -8.94963
663 1 6.28969 15.7242 18.8691 -8.94963
643 1 17.2966 11.007 20.4415 -8.94963
662 1 4.71726 17.2966 20.4415 -8.94963
645 1 22.0139 12.5794 18.8691 -8.94963
646 1 1.57242 14.1518 20.4415 -8.94963
647 1 3.14484 12.5794 18.8691 -8.94963
648 1 4.71726 14.1518 20.4415 -8.94963
649 1 6.28969 12.5794 18.8691 -8.94963
650 1 7.86211 14.1518 20.4415 -8.94963
651 1 9.43453 12.5794 18.8691 -8.94969
652 1 11.007 14.1518 20.4415 -8.94964
653 1 12.5794 12.5794 18.8691 -8.94969
654 1 14.1518 14.1518 20.4415 -8.94963
655 1 15.7242 12.5794 18.8691 -8.94963
656 1 17.2966 14.1518 20.4415 -8.94963
657 1 18.8691 12.5794 18.8691 -8.94963
658 1 20.4415 14.1518 20.4415 -8.94963
351 1 22.0139 12.5794 22.0139 -8.94963
355 1 6.28969 12.5794 22.0139 -8.94963
357 1 9.43453 12.5794 22.0139 -8.94963
359 1 12.5794 12.5794 22.0139 -8.94963
363 1 18.8691 12.5794 22.0139 -8.94963
367 1 3.14484 15.7242 22.0139 -8.94963
369 1 6.28969 15.7242 22.0139 -8.94963
375 1 15.7242 15.7242 22.0139 -8.94963
377 1 18.8691 15.7242 22.0139 -8.94963
381 1 3.14484 18.8691 22.0139 -8.94963
248 1 3.14484 22.0139 15.7242 -8.94963
258 1 18.8691 22.0139 15.7242 -8.94963
295 1 22.0139 22.0139 18.8691 -8.94963
595 1 20.4415 11.007 17.2966 -8.94963
594 1 17.2966 11.007 17.2966 -8.94965
532 1 20.4415 17.2966 11.007 -8.94963
379 1 22.0139 18.8691 22.0139 -8.94963
