ITEM: TIMESTEP
13
ITEM: NUMBER OF ATOMS
688
ITEM: BOX BOUNDS pp pp pp
0.0000000000000000e+00 2.2013900999999997e+01
0.0000000000000000e+00 2.2013900999999997e+01
0.0000000000000000e+00 2.2013900999999997e+01
ITEM: ATOMS id type x y z c_pot
1 1 -1.44195e-16 4.79898e-16 1.10215e-18 -8.94963
2 1 1.57242 1.57242 1.57242 -8.94963
3 1 3.14484 5.0506e-15 7.80279e-17 -8.94963
4 1 4.71726 1.57242 1.57242 -8.94963
448 1 20.4415 11.007 7.86211 -8.94963
6 1 7.86211 1.57242 1.57242 -8.94963
175 1 18.8691 9.43453 9.43453 -8.94963
8 1 11.007 1.57242 1.57242 -8.94963
174 1 15.7242 9.43453 9.43453 -8.94991
10 1 14.1518 1.57242 1.57242 -8.94963
11 1 15.7242 4.30701e-14 2.52771e-14 -8.94963
12 1 17.2966 1.57242 1.57242 -8.94963
13 1 18.8691 5.05339e-15 3.03483e-15 -8.94963
14 1 20.4415 1.57242 1.57242 -8.94963
447 1 17.2966 11.007 7.86211 -8.94965
16 1 1.57242 4.71726 1.57242 -8.94963
446 1 14.1518 11.0069 7.8621 -8.95202
18 1 4.71726 4.71726 1.57242 -8.94963
445 1 11.018 11.0069 7.84 -7.75502
20 1 7.86211 4.71726 1.57242 -8.94963
21 1 9.43453 3.14484 2.02412e-12 -8.94963
22 1 11.007 4.71726 1.57242 -8.94963
444 1 7.86108 11.0069 7.8614 -8.91375
24 1 14.1518 4.71726 1.57242 -8.94963
443 1 4.71726 11.007 7.86211 -8.94989
26 1 17.2966 4.71726 1.57242 -8.94963
442 1 1.57242 11.007 7.86211 -8.94963
28 1 20.4415 4.71726 1.57242 -8.94963
397 1 14.1518 11.007 4.71727 -8.95013
30 1 1.57242 7.86211 1.57242 -8.94963
396 1 11.007 11.007 4.71717 -8.95498
32 1 4.71726 7.86211 1.57242 -8.94963
395 1 7.86211 11.007 4.71726 -8.94997
34 1 7.86211 7.86211 1.57242 -8.94963
35 1 9.43453 6.28969 9.61639e-11 -8.94963
36 1 11.007 7.86211 1.57242 -8.94963
37 1 12.5794 6.28969 7.67571e-11 -8.94963
38 1 14.1518 7.86211 1.57242 -8.94963
393 1 1.57242 11.007 4.71726 -8.94963
40 1 17.2966 7.86211 1.57242 -8.94963
350 1 20.4415 11.007 1.57242 -8.94963
42 1 20.4415 7.86211 1.57242 -8.94963
43 1 2.68345e-13 9.43453 3.05105e-13 -8.94963
44 1 3.14484 9.43453 8.95238e-12 -8.94963
348 1 14.1518 11.007 1.57242 -8.94963
347 1 11.007 11.007 1.57242 -8.94966
346 1 7.86211 11.007 1.57242 -8.94963
48 1 15.7242 9.43453 1.26864e-10 -8.94963
49 1 18.8691 9.43453 -6.83889e-13 -8.94963
50 1 22.0139 9.98428e-16 3.14484 -8.94963
51 1 1.57242 1.57242 4.71726 -8.94963
52 1 3.14484 5.94558e-14 3.14484 -8.94963
53 1 4.71726 1.57242 4.71726 -8.94963
54 1 6.28969 3.04552e-13 3.14484 -8.94963
55 1 7.86211 1.57242 4.71726 -8.94963
173 1 12.5805 9.43375 9.43445 -8.90845
57 1 11.007 1.57242 4.71726 -8.94963
172 1 9.42344 9.4124 9.43446 -7.74913
59 1 14.1518 1.57242 4.71726 -8.94963
60 1 15.7242 2.89803e-13 3.14484 -8.94963
61 1 17.2966 1.57242 4.71726 -8.94963
62 1 18.8691 5.94133e-14 3.14484 -8.94963
63 1 20.4415 1.57242 4.71726 -8.94963
64 1 22.0139 3.14484 3.14484 -8.94963
65 1 1.57242 4.71726 4.71726 -8.94963
66 1 3.14484 3.14484 3.14484 -8.94963
67 1 4.71726 4.71726 4.71726 -8.94963
68 1 6.28969 3.14484 3.14484 -8.94963
69 1 7.86211 4.71726 4.71726 -8.94964
70 1 9.43453 3.14484 3.14484 -8.94963
71 1 11.007 4.71726 4.71726 -8.94963
72 1 12.5794 3.14484 3.14484 -8.94963
73 1 14.1518 4.71726 4.71726 -8.94963
74 1 15.7242 3.14484 3.14484 -8.94963
75 1 17.2966 4.71726 4.71726 -8.94963
76 1 18.8691 3.14484 3.14484 -8.94963
77 1 20.4415 4.71726 4.71726 -8.94963
78 1 22.0139 6.28969 3.14484 -8.94963
79 1 1.57242 7.86211 4.71726 -8.94963
80 1 3.14484 6.28969 3.14484 -8.94963
81 1 4.71726 7.86211 4.71726 -8.94963
82 1 6.28969 6.28969 3.14484 -8.94963
83 1 7.86211 7.86211 4.71726 -8.94965
84 1 9.43453 6.28969 3.14484 -8.94963
85 1 11.007 7.86211 4.71727 -8.94996
86 1 12.5794 6.28969 3.14484 -8.94964
87 1 14.1518 7.86211 4.71726 -8.9496
88 1 15.7242 6.28969 3.14484 -8.94963
89 1 17.2966 7.86211 4.71726 -8.94963
90 1 18.8691 6.28969 3.14484 -8.94963
91 1 20.4415 7.86211 4.71726 -8.94963
92 1 1.07947e-11 9.43453 3.14484 -8.94963
93 1 3.14484 9.43453 3.14484 -8.94963
94 1 6.28969 9.43453 3.14484 -8.94963
95 1 9.43453 9.43453 3.14484 -8.94962
96 1 12.5794 9.43453 3.14484 -8.94964
97 1 15.7242 9.43453 3.14484 -8.94964
98 1 18.8691 9.43453 3.14484 -8.94963
99 1 22.0139 7.17976e-15 6.28969 -8.94963
100 1 1.57242 1.57242 7.86211 -8.94963
101 1 3.14484 3.05181e-13 6.28969 -8.94963
102 1 4.71726 1.57242 7.86211 -8.94963
103 1 6.28969 3.44603e-11 6.28969 -8.94963
104 1 7.86211 1.57242 7.86211 -8.94963
171 1 6.28964 9.43452 9.43453 -8.95216
106 1 11.007 1.57242 7.86211 -8.94963
170 1 3.14484 9.43453 9.43453 -8.94964
108 1 14.1518 1.57242 7.86211 -8.94963
109 1 15.7242 3.44212e-11 6.28969 -8.94963
110 1 17.2966 1.57242 7.86211 -8.94963
111 1 18.8691 2.90859e-13 6.28969 -8.94963
112 1 20.4415 1.57242 7.86211 -8.94963
113 1 2.42859e-13 3.14484 6.28969 -8.94963
114 1 1.57242 4.71726 7.86211 -8.94963
115 1 3.14484 3.14484 6.28969 -8.94963
116 1 4.71726 4.71726 7.86211 -8.94964
117 1 6.28969 3.14484 6.28969 -8.94963
118 1 7.86211 4.71726 7.86211 -8.94964
119 1 9.43453 3.14484 6.28969 -8.94963
120 1 11.007 4.71726 7.86211 -8.94962
121 1 12.5794 3.14484 6.28969 -8.94963
122 1 14.1518 4.71726 7.86211 -8.94963
123 1 15.7242 3.14484 6.28969 -8.94963
124 1 17.2966 4.71726 7.86211 -8.94963
125 1 18.8691 3.14484 6.28969 -8.94963
126 1 20.4415 4.71726 7.86211 -8.94963
127 1 22.0139 6.28969 6.28969 -8.94963
128 1 1.57242 7.86211 7.86211 -8.94963
129 1 3.14484 6.28969 6.28969 -8.94963
130 1 4.71726 7.86211 7.86211 -8.94966
131 1 6.28969 6.28969 6.28969 -8.9496
132 1 7.86203 7.86203 7.86203 -8.94367
133 1 9.43453 6.28969 6.28969 -8.94996
134 1 11.007 7.86209 7.86208 -8.94801
135 1 12.5794 6.28969 6.28969 -8.94965
136 1 14.1518 7.86211 7.8621 -8.94948
137 1 15.7242 6.28969 6.28969 -8.94963
138 1 17.2966 7.86211 7.86211 -8.94963
139 1 18.8691 6.28969 6.28969 -8.94963
140 1 20.4415 7.86211 7.86211 -8.94963
141 1 22.0139 9.43453 6.28969 -8.94963
142 1 3.14484 9.43453 6.28969 -8.94963
143 1 6.28968 9.43453 6.28968 -8.94952
144 1 9.4345 9.4345 6.28966 -8.9476
145 1 12.5795 9.43445 6.28961 -8.94374
146 1 15.7242 9.43453 6.28969 -8.94966
147 1 18.8691 9.43453 6.28969 -8.94963
148 1 1.2906e-12 6.46055e-14 9.43453 -8.94963
169 1 22.0139 9.43453 9.43453 -8.94963
168 1 18.8691 6.28969 9.43453 -8.94963
151 1 9.43453 4.79355e-09 9.43453 -8.94963
152 1 12.5794 4.7941e-09 9.43453 -8.94963
167 1 15.7242 6.28969 9.43453 -8.94966
166 1 12.5794 6.28968 9.43453 -8.94997
155 1 2.65243e-12 3.14484 9.43453 -8.94963
156 1 3.14484 3.14484 9.43453 -8.94963
157 1 6.28969 3.14484 9.43453 -8.94963
158 1 9.43453 3.14484 9.43453 -8.94966
159 1 12.5794 3.14484 9.43453 -8.94963
160 1 15.7242 3.14484 9.43453 -8.94963
161 1 18.8691 3.14484 9.43453 -8.94963
162 1 8.51838e-12 6.28969 9.43453 -8.94963
163 1 3.14484 6.28969 9.43453 -8.94963
164 1 6.28969 6.28969 9.43453 -8.95013
165 1 9.43453 6.28959 9.43453 -8.95497
344 1 1.57242 11.007 1.57242 -8.94963
345 1 4.71726 11.007 1.57242 -8.94963
181 1 17.2966 1.57242 11.007 -8.94963
183 1 1.57242 4.71726 11.007 -8.94963
188 1 17.2966 4.71726 11.007 -8.94963
189 1 20.4415 4.71726 11.007 -8.94963
513 1 4.71726 11.007 11.007 -8.94988
516 1 14.1519 11.0069 11.0069 -8.95017
517 1 17.2966 11.007 11.007 -8.94963
518 1 20.4415 11.007 11.007 -8.94963
176 1 1.57242 1.57242 11.007 -8.94963
177 1 4.71726 1.57242 11.007 -8.94963
178 1 7.86211 1.57242 11.007 -8.94963
179 1 11.007 1.57242 11.007 -8.94963
180 1 14.1518 1.57242 11.007 -8.94963
644 1 20.4415 11.007 20.4415 -8.94963
182 1 20.4415 1.57242 11.007 -8.94963
642 1 14.1518 11.007 20.4415 -8.94963
184 1 4.71726 4.71726 11.007 -8.94964
185 1 7.86211 4.71726 11.007 -8.94964
186 1 11.007 4.71726 11.007 -8.94965
187 1 14.1518 4.71726 11.007 -8.94963
641 1 11.007 11.007 20.4415 -8.94963
640 1 7.86211 11.007 20.4415 -8.94963
190 1 1.57242 7.86211 11.007 -8.94963
191 1 4.71726 7.86211 11.007 -8.94966
192 1 7.86203 7.86204 11.007 -8.94402
193 1 11.007 7.86199 11.007 -8.95305
194 1 14.1518 7.86211 11.007 -8.94987
195 1 17.2966 7.86211 11.007 -8.94963
196 1 20.4415 7.86211 11.007 -8.94963
343 1 18.8691 9.43453 18.8691 -8.94963
198 1 1.57242 1.57242 14.1518 -8.94963
342 1 15.7242 9.43453 18.8691 -8.94963
200 1 4.71726 1.57242 14.1518 -8.94963
341 1 12.5794 9.43453 18.8691 -8.94963
202 1 7.86211 1.57242 14.1518 -8.94963
203 1 9.43453 3.44297e-09 12.5794 -8.94963
204 1 11.007 1.57242 14.1518 -8.94963
205 1 12.5794 3.4438e-09 12.5794 -8.94963
206 1 14.1518 1.57242 14.1518 -8.94963
340 1 9.43453 9.43453 18.8691 -8.94963
208 1 17.2966 1.57242 14.1518 -8.94963
339 1 6.28969 9.43453 18.8691 -8.94963
210 1 20.4415 1.57242 14.1518 -8.94963
211 1 2.42486e-13 3.14484 12.5794 -8.94963
212 1 1.57242 4.71726 14.1518 -8.94963
213 1 3.14484 3.14484 12.5794 -8.94963
214 1 4.71726 4.71726 14.1518 -8.94963
215 1 6.28969 3.14484 12.5794 -8.94963
216 1 7.86211 4.71726 14.1518 -8.94964
217 1 9.43453 3.14484 12.5794 -8.94963
218 1 11.007 4.71726 14.1518 -8.94963
219 1 12.5794 3.14484 12.5794 -8.94963
220 1 14.1518 4.71726 14.1518 -8.94963
221 1 15.7242 3.14484 12.5794 -8.94963
222 1 17.2966 4.71726 14.1518 -8.94963
223 1 18.8691 3.14484 12.5794 -8.94963
224 1 20.4415 4.71726 14.1518 -8.94963
225 1 22.0139 6.28969 12.5794 -8.94963
226 1 1.57242 7.86211 14.1518 -8.94963
227 1 3.14484 6.28969 12.5794 -8.94963
228 1 4.71726 7.86211 14.1518 -8.94964
229 1 6.28969 6.28969 12.5794 -8.9496
230 1 7.86211 7.86211 14.1518 -8.94966
231 1 9.43453 6.28969 12.5794 -8.94995
232 1 11.007 7.86211 14.1518 -8.95033
233 1 12.5794 6.28968 12.5794 -8.94964
234 1 14.1518 7.86211 14.1518 -8.94961
235 1 15.7242 6.28969 12.5794 -8.94963
236 1 17.2966 7.86211 14.1518 -8.94964
237 1 18.8691 6.28969 12.5794 -8.94963
238 1 20.4415 7.86211 14.1518 -8.94963
239 1 22.0139 9.43453 12.5794 -8.94963
240 1 3.14484 9.43453 12.5794 -8.94963
241 1 6.28969 9.43453 12.5794 -8.94984
242 1 9.43446 9.43447 12.5794 -8.94529
243 1 12.5795 9.43443 12.5795 -8.94105
244 1 15.7242 9.43453 12.5794 -8.94999
245 1 18.8691 9.43453 12.5794 -8.94963
246 1 22.0139 7.58515e-14 15.7242 -8.94963
247 1 1.57242 1.57242 17.2966 -8.94963
248 1 3.14484 -6.11122e-14 15.7242 -8.94963
249 1 4.71726 1.57242 17.2966 -8.94963
250 1 6.28969 2.91414e-11 15.7242 -8.94963
251 1 7.86211 1.57242 17.2966 -8.94963
252 1 9.43453 1.13855e-10 15.7242 -8.94963
253 1 11.007 1.57242 17.2966 -8.94963
254 1 12.5794 1.13903e-10 15.7242 -8.94963
255 1 14.1518 1.57242 17.2966 -8.94963
256 1 15.7242 2.91535e-11 15.7242 -8.94963
257 1 17.2966 1.57242 17.2966 -8.94963
258 1 18.8691 -6.08242e-14 15.7242 -8.94963
259 1 20.4415 1.57242 17.2966 -8.94963
260 1 22.0139 3.14484 15.7242 -8.94963
261 1 1.57242 4.71726 17.2966 -8.94963
262 1 3.14484 3.14484 15.7242 -8.94963
263 1 4.71726 4.71726 17.2966 -8.94963
264 1 6.28969 3.14484 15.7242 -8.94963
265 1 7.86211 4.71726 17.2966 -8.94963
266 1 9.43453 3.14484 15.7242 -8.94963
267 1 11.007 4.71726 17.2966 -8.94963
268 1 12.5794 3.14484 15.7242 -8.94963
269 1 14.1518 4.71726 17.2966 -8.94963
270 1 15.7242 3.14484 15.7242 -8.94963
271 1 17.2966 4.71726 17.2966 -8.94963
272 1 18.8691 3.14484 15.7242 -8.94963
273 1 20.4415 4.71726 17.2966 -8.94963
274 1 22.0139 6.28969 15.7242 -8.94963
275 1 1.57242 7.86211 17.2966 -8.94963
276 1 3.14484 6.28969 15.7242 -8.94963
277 1 4.71726 7.86211 17.2966 -8.94963
278 1 6.28969 6.28969 15.7242 -8.94963
279 1 7.86211 7.86211 17.2966 -8.94963
280 1 9.43453 6.28969 15.7242 -8.94963
281 1 11.007 7.86211 17.2966 -8.94966
282 1 12.5794 6.28969 15.7242 -8.94964
283 1 14.1518 7.86211 17.2966 -8.94963
284 1 15.7242 6.28969 15.7242 -8.94963
285 1 17.2966 7.86211 17.2966 -8.94963
286 1 18.8691 6.28969 15.7242 -8.94963
287 1 20.4415 7.86211 17.2966 -8.94963
288 1 1.07822e-11 9.43453 15.7242 -8.94963
289 1 3.14484 9.43453 15.7242 -8.94963
290 1 6.28969 9.43453 15.7242 -8.9496
291 1 9.43452 9.43453 15.7242 -8.94951
292 1 12.5794 9.43453 15.7242 -8.94952
293 1 15.7242 9.43453 15.7242 -8.9496
294 1 18.8691 9.43453 15.7242 -8.94963
295 1 -1.44367e-16 4.32874e-15 18.8691 -8.94963
296 1 1.57242 1.57242 20.4415 -8.94963
297 1 3.14484 1.82389e-13 18.8691 -8.94963
298 1 4.71726 1.57242 20.4415 -8.94963
299 1 6.28969 1.46589e-12 18.8691 -8.94963
300 1 7.86211 1.57242 20.4415 -8.94963
338 1 3.14484 9.43453 18.8691 -8.94963
302 1 11.007 1.57242 20.4415 -8.94963
337 1 2.69953e-13 9.43453 18.8691 -8.94963
304 1 14.1518 1.57242 20.4415 -8.94963
305 1 15.7242 1.46619e-12 18.8691 -8.94963
306 1 17.2966 1.57242 20.4415 -8.94963
307 1 18.8691 1.82358e-13 18.8691 -8.94963
308 1 20.4415 1.57242 20.4415 -8.94963
309 1 22.0139 3.14484 18.8691 -8.94963
310 1 1.57242 4.71726 20.4415 -8.94963
311 1 3.14484 3.14484 18.8691 -8.94963
312 1 4.71726 4.71726 20.4415 -8.94963
313 1 6.28969 3.14484 18.8691 -8.94963
314 1 7.86211 4.71726 20.4415 -8.94963
315 1 9.43453 3.14484 18.8691 -8.94963
316 1 11.007 4.71726 20.4415 -8.94963
317 1 12.5794 3.14484 18.8691 -8.94963
318 1 14.1518 4.71726 20.4415 -8.94963
319 1 15.7242 3.14484 18.8691 -8.94963
320 1 17.2966 4.71726 20.4415 -8.94963
321 1 18.8691 3.14484 18.8691 -8.94963
322 1 20.4415 4.71726 20.4415 -8.94963
323 1 22.0139 6.28969 18.8691 -8.94963
324 1 1.57242 7.86211 20.4415 -8.94963
325 1 3.14484 6.28969 18.8691 -8.94963
326 1 4.71726 7.86211 20.4415 -8.94963
327 1 6.28969 6.28969 18.8691 -8.94963
328 1 7.86211 7.86211 20.4415 -8.94963
329 1 9.43453 6.28969 18.8691 -8.94963
330 1 11.007 7.86211 20.4415 -8.94963
331 1 12.5794 6.28969 18.8691 -8.94963
332 1 14.1518 7.86211 20.4415 -8.94963
333 1 15.7242 6.28969 18.8691 -8.94963
334 1 17.2966 7.86211 20.4415 -8.94963
335 1 18.8691 6.28969 18.8691 -8.94963
336 1 20.4415 7.86211 20.4415 -8.94963
512 1 1.57242 11.007 11.007 -8.94963
638 1 1.57242 11.007 20.4415 -8.94963
514 1 7.86106 11.0069 11.0076 -8.91185
515 1 11.0182 10.9844 11.0182 -6.47444
595 1 20.4415 11.007 17.2966 -8.94963
594 1 17.2966 11.007 17.2966 -8.94964
593 1 14.1518 11.007 17.2966 -8.94966
540 1 1.57242 11.007 14.1518 -8.94963
541 1 4.71726 11.007 14.1518 -8.94966
542 1 7.86203 11.0069 14.1519 -8.94404
543 1 11.007 11.0062 14.1529 -8.91992
544 1 14.1519 11.0069 14.1519 -8.94418
545 1 17.2966 11.007 14.1518 -8.94963
546 1 20.4415 11.007 14.1518 -8.94963
589 1 1.57242 11.007 17.2966 -8.94963
590 1 4.71726 11.007 17.2966 -8.94964
591 1 7.86211 11.007 17.2966 -8.94966
592 1 11.007 11.007 17.2966 -8.94991
5 1 6.28969 4.30809e-14 22.0139 -8.94963
15 1 22.0139 3.14484 22.0139 -8.94963
17 1 3.14484 3.14484 22.0139 -8.94963
19 1 6.28969 3.14484 22.0139 -8.94963
23 1 12.5794 3.14484 22.0139 -8.94963
25 1 15.7242 3.14484 22.0139 -8.94963
27 1 18.8691 3.14484 22.0139 -8.94963
29 1 22.0139 6.28969 22.0139 -8.94963
31 1 3.14484 6.28969 22.0139 -8.94963
33 1 6.28969 6.28969 22.0139 -8.94963
39 1 15.7242 6.28969 22.0139 -8.94963
41 1 18.8691 6.28969 22.0139 -8.94963
45 1 6.28969 9.43453 22.0139 -8.94963
46 1 9.43453 9.43453 22.0139 -8.94963
47 1 12.5794 9.43453 22.0139 -8.94963
688 3 10.2206 11.0071 9.43425 4.9626
511 1 18.8691 18.8691 9.43453 -8.94963
510 1 15.7242 18.8691 9.43453 -8.94964
509 1 12.5794 18.8691 9.43453 -8.94964
508 1 9.43453 18.8691 9.43453 -8.94966
349 1 17.2966 11.007 1.57242 -8.94963
507 1 6.28969 18.8691 9.43453 -8.94964
154 1 18.8691 22.0139 9.43453 -8.94963
352 1 1.57242 14.1518 1.57242 -8.94963
353 1 3.14484 12.5794 6.52235e-12 -8.94963
354 1 4.71726 14.1518 1.57242 -8.94963
153 1 15.7242 22.0139 9.43453 -8.94963
356 1 7.86211 14.1518 1.57242 -8.94963
150 1 6.28969 22.0139 9.43453 -8.94963
358 1 11.007 14.1518 1.57242 -8.94963
149 1 3.14484 22.0139 9.43453 -8.94963
360 1 14.1518 14.1518 1.57242 -8.94963
361 1 15.7242 12.5794 9.99886e-11 -8.94963
362 1 17.2966 14.1518 1.57242 -8.94963
107 1 12.5794 22.0139 6.28969 -8.94963
364 1 20.4415 14.1518 1.57242 -8.94963
365 1 22.0139 15.7242 4.32417e-14 -8.94963
366 1 1.57242 17.2966 1.57242 -8.94963
105 1 9.43453 22.0139 6.28969 -8.94963
368 1 4.71726 17.2966 1.57242 -8.94963
58 1 12.5794 22.0139 3.14484 -8.94963
370 1 7.86211 17.2966 1.57242 -8.94963
371 1 9.43453 15.7242 3.28568e-10 -8.94963
372 1 11.007 17.2966 1.57242 -8.94963
373 1 12.5794 15.7242 3.10271e-10 -8.94963
374 1 14.1518 17.2966 1.57242 -8.94963
56 1 9.43453 22.0139 3.14484 -8.94963
376 1 17.2966 17.2966 1.57242 -8.94963
7 1 9.43453 22.0139 6.42211e-13 -8.94963
378 1 20.4415 17.2966 1.57242 -8.94963
379 1 22.0139 18.8691 -5.54672e-16 -8.94963
380 1 1.57242 20.4415 1.57242 -8.94963
495 1 12.5811 12.5801 9.43351 -8.87846
382 1 4.71726 20.4415 1.57242 -8.94963
383 1 6.28969 18.8691 1.33013e-12 -8.94963
384 1 7.86211 20.4415 1.57242 -8.94963
494 1 9.42281 12.6014 9.43351 -7.7182
386 1 11.007 20.4415 1.57242 -8.94963
493 1 6.28964 12.5794 9.43453 -8.95247
388 1 14.1518 20.4415 1.57242 -8.94963
389 1 15.7242 18.8691 9.96241e-13 -8.94963
390 1 17.2966 20.4415 1.57242 -8.94963
391 1 18.8691 18.8691 1.15134e-13 -8.94963
392 1 20.4415 20.4415 1.57242 -8.94963
506 1 3.14484 18.8691 9.43453 -8.94963
394 1 4.71726 11.007 4.71726 -8.94966
505 1 2.63993e-12 18.8691 9.43453 -8.94963
504 1 18.8691 15.7242 9.43453 -8.94963
503 1 15.7242 15.7242 9.43453 -8.94967
398 1 17.2966 11.007 4.71726 -8.94963
399 1 20.4415 11.007 4.71726 -8.94963
400 1 1.07817e-11 12.5794 3.14484 -8.94963
401 1 1.57242 14.1518 4.71726 -8.94963
402 1 3.14484 12.5794 3.14484 -8.94963
403 1 4.71726 14.1518 4.71726 -8.94963
404 1 6.28969 12.5794 3.14484 -8.94963
405 1 7.86211 14.1518 4.71726 -8.94965
406 1 9.43453 12.5794 3.14484 -8.94962
407 1 11.007 14.1518 4.71727 -8.94997
408 1 12.5794 12.5794 3.14484 -8.94964
409 1 14.1518 14.1518 4.71726 -8.9496
410 1 15.7242 12.5794 3.14484 -8.94964
411 1 17.2966 14.1518 4.71726 -8.94963
412 1 18.8691 12.5794 3.14484 -8.94963
413 1 20.4415 14.1518 4.71726 -8.94963
414 1 22.0139 15.7242 3.14484 -8.94963
415 1 1.57242 17.2966 4.71726 -8.94963
416 1 3.14484 15.7242 3.14484 -8.94963
417 1 4.71726 17.2966 4.71726 -8.94963
418 1 6.28969 15.7242 3.14484 -8.94963
419 1 7.86211 17.2966 4.71726 -8.94964
420 1 9.43453 15.7242 3.14484 -8.94963
421 1 11.007 17.2966 4.71726 -8.94963
422 1 12.5794 15.7242 3.14484 -8.94964
423 1 14.1518 17.2966 4.71726 -8.94963
424 1 15.7242 15.7242 3.14484 -8.94963
425 1 17.2966 17.2966 4.71726 -8.94963
426 1 18.8691 15.7242 3.14484 -8.94963
427 1 20.4415 17.2966 4.71726 -8.94963
428 1 22.0139 18.8691 3.14484 -8.94963
429 1 1.57242 20.4415 4.71726 -8.94963
430 1 3.14484 18.8691 3.14484 -8.94963
431 1 4.71726 20.4415 4.71726 -8.94963
432 1 6.28969 18.8691 3.14484 -8.94963
433 1 7.86211 20.4415 4.71726 -8.94963
434 1 9.43453 18.8691 3.14484 -8.94963
435 1 11.007 20.4415 4.71726 -8.94963
436 1 12.5794 18.8691 3.14484 -8.94963
437 1 14.1518 20.4415 4.71726 -8.94963
438 1 15.7242 18.8691 3.14484 -8.94963
439 1 17.2966 20.4415 4.71726 -8.94963
440 1 18.8691 18.8691 3.14484 -8.94963
441 1 20.4415 20.4415 4.71726 -8.94963
502 1 12.5794 15.7243 9.43445 -8.94405
501 1 9.43445 15.7244 9.43445 -8.94905
500 1 6.28969 15.7242 9.43453 -8.95015
499 1 3.14484 15.7242 9.43453 -8.94963
498 1 7.64363e-12 15.7242 9.43453 -8.94963
497 1 18.8691 12.5794 9.43453 -8.94963
496 1 15.7242 12.5794 9.43453 -8.95023
449 1 22.0139 12.5794 6.28969 -8.94963
450 1 1.57242 14.1518 7.86211 -8.94963
451 1 3.14484 12.5794 6.28969 -8.94963
452 1 4.71726 14.1518 7.86211 -8.94966
453 1 6.28968 12.5794 6.28968 -8.94954
454 1 7.86203 14.1519 7.86203 -8.94353
455 1 9.4345 12.5794 6.28966 -8.94783
456 1 11.007 14.1518 7.86203 -8.95011
457 1 12.5795 12.5795 6.28961 -8.94397
458 1 14.1518 14.1518 7.8621 -8.94939
459 1 15.7242 12.5794 6.28969 -8.94968
460 1 17.2966 14.1518 7.86211 -8.94963
461 1 18.8691 12.5794 6.28969 -8.94963
462 1 20.4415 14.1518 7.86211 -8.94963
463 1 22.0139 15.7242 6.28969 -8.94963
464 1 1.57242 17.2966 7.86211 -8.94963
465 1 3.14484 15.7242 6.28969 -8.94963
466 1 4.71726 17.2966 7.86211 -8.94964
467 1 6.28969 15.7242 6.28969 -8.9496
468 1 7.86211 17.2966 7.86211 -8.9496
469 1 9.43453 15.7242 6.28969 -8.94999
470 1 11.007 17.2966 7.86211 -8.95012
471 1 12.5794 15.7242 6.28969 -8.94967
472 1 14.1518 17.2966 7.86211 -8.9496
473 1 15.7242 15.7242 6.28969 -8.94963
474 1 17.2966 17.2966 7.86211 -8.94963
475 1 18.8691 15.7242 6.28969 -8.94963
476 1 20.4415 17.2966 7.86211 -8.94963
477 1 2.27289e-13 18.8691 6.28969 -8.94963
478 1 1.57242 20.4415 7.86211 -8.94963
479 1 3.14484 18.8691 6.28969 -8.94963
480 1 4.71726 20.4415 7.86211 -8.94963
481 1 6.28969 18.8691 6.28969 -8.94963
482 1 7.86211 20.4415 7.86211 -8.94963
483 1 9.43453 18.8691 6.28969 -8.94964
484 1 11.007 20.4415 7.86211 -8.94963
485 1 12.5794 18.8691 6.28969 -8.94964
486 1 14.1518 20.4415 7.86211 -8.94963
487 1 15.7242 18.8691 6.28969 -8.94963
488 1 17.2966 20.4415 7.86211 -8.94963
489 1 18.8691 18.8691 6.28969 -8.94963
490 1 20.4415 20.4415 7.86211 -8.94963
491 1 22.0139 12.5794 9.43453 -8.94963
492 1 3.14484 12.5794 9.43453 -8.94965
519 1 1.57242 14.1518 11.007 -8.94963
520 1 4.71726 14.1518 11.007 -8.94965
522 1 11.007 14.1739 10.996 -7.74888
523 1 14.1518 14.1518 11.0069 -8.94744
524 1 17.2966 14.1518 11.007 -8.94962
525 1 20.4415 14.1518 11.007 -8.94963
526 1 1.57242 17.2966 11.007 -8.94963
529 1 11.007 17.2967 11.0069 -8.95496
532 1 20.4415 17.2966 11.007 -8.94963
539 1 20.4415 20.4415 11.007 -8.94963
687 3 11.0069 12.5797 11.7932 4.96252
686 1 20.4415 20.4415 20.4415 -8.94963
685 1 18.8691 18.8691 18.8691 -8.94963
684 1 17.2966 20.4415 20.4415 -8.94963
683 1 15.7242 18.8691 18.8691 -8.94963
682 1 14.1518 20.4415 20.4415 -8.94963
681 1 12.5794 18.8691 18.8691 -8.94963
303 1 12.5794 22.0139 18.8691 -8.94963
301 1 9.43453 22.0139 18.8691 -8.94963
521 1 7.86201 14.1519 11.007 -8.94168
209 1 18.8691 22.0139 12.5794 -8.94963
207 1 15.7242 22.0139 12.5794 -8.94963
201 1 6.28969 22.0139 12.5794 -8.94963
199 1 3.14484 22.0139 12.5794 -8.94963
197 1 22.0139 22.0139 12.5794 -8.94963
527 1 4.71726 17.2966 11.007 -8.94964
528 1 7.86211 17.2966 11.007 -8.94996
661 1 3.14484 15.7242 18.8691 -8.94963
530 1 14.1518 17.2966 11.007 -8.94996
531 1 17.2966 17.2966 11.007 -8.94963
660 1 1.57242 17.2966 20.4415 -8.94963
533 1 1.57242 20.4415 11.007 -8.94963
534 1 4.71726 20.4415 11.007 -8.94963
535 1 7.86211 20.4415 11.007 -8.94963
536 1 11.007 20.4415 11.007 -8.94966
537 1 14.1518 20.4415 11.007 -8.94963
538 1 17.2966 20.4415 11.007 -8.94963
659 1 22.0139 15.7242 18.8691 -8.94963
680 1 11.007 20.4415 20.4415 -8.94963
679 1 9.43453 18.8691 18.8691 -8.94963
678 1 7.86211 20.4415 20.4415 -8.94963
677 1 6.28969 18.8691 18.8691 -8.94963
676 1 4.71726 20.4415 20.4415 -8.94963
675 1 3.14484 18.8691 18.8691 -8.94963
674 1 1.57242 20.4415 20.4415 -8.94963
547 1 22.0139 12.5794 12.5794 -8.94963
548 1 1.57242 14.1518 14.1518 -8.94963
549 1 3.14484 12.5794 12.5794 -8.94966
550 1 4.71726 14.1518 14.1518 -8.94964
551 1 6.28959 12.5794 12.5794 -8.95485
552 1 7.86203 14.1519 14.1519 -8.94373
553 1 9.41244 12.5794 12.5904 -7.75084
554 1 11.007 14.1525 14.1528 -8.91416
555 1 12.6015 12.5794 12.5905 -7.74918
556 1 14.1519 14.1519 14.1519 -8.94367
557 1 15.7243 12.5794 12.5794 -8.95499
558 1 17.2966 14.1518 14.1518 -8.94964
559 1 18.8691 12.5794 12.5794 -8.94966
560 1 20.4415 14.1518 14.1518 -8.94963
561 1 22.0139 15.7242 12.5794 -8.94963
562 1 1.57242 17.2966 14.1518 -8.94963
563 1 3.14484 15.7242 12.5794 -8.94963
564 1 4.71726 17.2966 14.1518 -8.94964
565 1 6.28969 15.7242 12.5794 -8.94992
566 1 7.86211 17.2966 14.1518 -8.94965
567 1 9.4345 15.7242 12.5794 -8.9479
568 1 11.007 17.2966 14.1518 -8.94997
569 1 12.5794 15.7242 12.5794 -8.94759
570 1 14.1518 17.2966 14.1518 -8.94965
571 1 15.7242 15.7242 12.5794 -8.94996
572 1 17.2966 17.2966 14.1518 -8.94964
573 1 18.8691 15.7242 12.5794 -8.94963
574 1 20.4415 17.2966 14.1518 -8.94963
575 1 2.32893e-13 18.8691 12.5794 -8.94963
576 1 1.57242 20.4415 14.1518 -8.94963
577 1 3.14484 18.8691 12.5794 -8.94963
578 1 4.71726 20.4415 14.1518 -8.94963
579 1 6.28969 18.8691 12.5794 -8.94963
580 1 7.86211 20.4415 14.1518 -8.94963
581 1 9.43453 18.8691 12.5794 -8.94962
582 1 11.007 20.4415 14.1518 -8.94963
583 1 12.5794 18.8691 12.5794 -8.94962
584 1 14.1518 20.4415 14.1518 -8.94963
585 1 15.7242 18.8691 12.5794 -8.94963
586 1 17.2966 20.4415 14.1518 -8.94963
587 1 18.8691 18.8691 12.5794 -8.94963
588 1 20.4415 20.4415 14.1518 -8.94963
673 1 22.0139 18.8691 18.8691 -8.94963
672 1 20.4415 17.2966 20.4415 -8.94963
671 1 18.8691 15.7242 18.8691 -8.94963
670 1 17.2966 17.2966 20.4415 -8.94963
669 1 15.7242 15.7242 18.8691 -8.94963
668 1 14.1518 17.2966 20.4415 -8.94963
667 1 12.5794 15.7242 18.8691 -8.94963
596 1 1.08557e-11 12.5794 15.7242 -8.94963
597 1 1.57242 14.1518 17.2966 -8.94963
598 1 3.14484 12.5794 15.7242 -8.94963
599 1 4.71726 14.1518 17.2966 -8.94964
600 1 6.28969 12.5794 15.7242 -8.95013
601 1 7.86211 14.1518 17.2966 -8.94966
602 1 9.43452 12.5794 15.7243 -8.95214
603 1 11.007 14.1518 17.2966 -8.94989
604 1 12.5794 12.5794 15.7243 -8.95215
605 1 14.1518 14.1518 17.2966 -8.94966
606 1 15.7242 12.5794 15.7242 -8.95013
607 1 17.2966 14.1518 17.2966 -8.94964
608 1 18.8691 12.5794 15.7242 -8.94963
609 1 20.4415 14.1518 17.2966 -8.94963
610 1 22.0139 15.7242 15.7242 -8.94963
611 1 1.57242 17.2966 17.2966 -8.94963
612 1 3.14484 15.7242 15.7242 -8.94963
613 1 4.71726 17.2966 17.2966 -8.94963
614 1 6.28969 15.7242 15.7242 -8.9496
615 1 7.86211 17.2966 17.2966 -8.94963
616 1 9.43453 15.7242 15.7242 -8.94952
617 1 11.007 17.2966 17.2966 -8.94966
618 1 12.5794 15.7242 15.7242 -8.94952
619 1 14.1518 17.2966 17.2966 -8.94963
620 1 15.7242 15.7242 15.7242 -8.9496
621 1 17.2966 17.2966 17.2966 -8.94963
622 1 18.8691 15.7242 15.7242 -8.94963
623 1 20.4415 17.2966 17.2966 -8.94963
624 1 22.0139 18.8691 15.7242 -8.94963
625 1 1.57242 20.4415 17.2966 -8.94963
626 1 3.14484 18.8691 15.7242 -8.94963
627 1 4.71726 20.4415 17.2966 -8.94963
628 1 6.28969 18.8691 15.7242 -8.94963
629 1 7.86211 20.4415 17.2966 -8.94963
630 1 9.43453 18.8691 15.7242 -8.94963
631 1 11.007 20.4415 17.2966 -8.94963
632 1 12.5794 18.8691 15.7242 -8.94963
633 1 14.1518 20.4415 17.2966 -8.94963
634 1 15.7242 18.8691 15.7242 -8.94963
635 1 17.2966 20.4415 17.2966 -8.94963
636 1 18.8691 18.8691 15.7242 -8.94963
637 1 20.4415 20.4415 17.2966 -8.94963
666 1 11.007 17.2966 20.4415 -8.94963
639 1 4.71726 11.007 20.4415 -8.94963
665 1 9.43453 15.7242 18.8691 -8.94963
664 1 7.86211 17.2966 20.4415 -8.94963
663 1 6.28969 15.7242 18.8691 -8.94963
643 1 17.2966 11.007 20.4415 -8.94963
662 1 4.71726 17.2966 20.4415 -8.94963
645 1 2.74322e-13 12.5794 18.8691 -8.94963
646 1 1.57242 14.1518 20.4415 -8.94963
647 1 3.14484 12.5794 18.8691 -8.94963
648 1 4.71726 14.1518 20.4415 -8.94963
649 1 6.28969 12.5794 18.8691 -8.94963
650 1 7.86211 14.1518 20.4415 -8.94963
651 1 9.43453 12.5794 18.8691 -8.94964
652 1 11.007 14.1518 20.4415 -8.94963
653 1 12.5794 12.5794 18.8691 -8.94964
654 1 14.1518 14.1518 20.4415 -8.94963
655 1 15.7242 12.5794 18.8691 -8.94963
656 1 17.2966 14.1518 20.4415 -8.94963
657 1 18.8691 12.5794 18.8691 -8.94963
658 1 20.4415 14.1518 20.4415 -8.94963
351 1 2.61681e-13 12.5794 22.0139 -8.94963
355 1 6.28969 12.5794 22.0139 -8.94963
357 1 9.43453 12.5794 22.0139 -8.94963
359 1 12.5794 12.5794 22.0139 -8.94963
363 1 18.8691 12.5794 22.0139 -8.94963
367 1 3.14484 15.7242 22.0139 -8.94963
369 1 6.28969 15.7242 22.0139 -8.94963
375 1 15.7242 15.7242 22.0139 -8.94963
377 1 18.8691 15.7242 22.0139 -8.94963
9 1 12.5794 22.0139 22.0139 -8.94963
381 1 3.14484 18.8691 22.0139 -8.94963
385 1 9.43453 18.8691 22.0139 -8.94963
387 1 12.5794 18.8691 22.0139 -8.94963
