ITEM: TIMESTEP
66
ITEM: NUMBER OF ATOMS
688
ITEM: BOX BOUNDS pp pp pp
0.0000000000000000e+00 2.2013900999999997e+01
0.0000000000000000e+00 2.2013900999999997e+01
0.0000000000000000e+00 2.2013900999999997e+01
ITEM: ATOMS id type x y z c_pot
1 1 22.0139 3.13838e-05 7.47044e-06 -8.9494
2 1 1.57223 1.57234 1.57223 -8.94927
3 1 3.14476 6.00357e-05 -5.94515e-05 -8.94967
4 1 4.71715 1.57231 1.5722 -8.94969
448 1 20.4423 11.0071 7.86197 -8.94954
6 1 7.86205 1.57229 1.57217 -8.94956
175 1 18.8717 9.43402 9.43415 -8.95086
8 1 11.007 1.57227 1.57215 -8.94959
174 1 15.7339 9.4285 9.42858 -8.94487
10 1 14.1519 1.57227 1.5722 -8.94955
11 1 15.7243 5.28297e-05 -6.23358e-05 -8.94958
12 1 17.2969 1.57222 1.57219 -8.94957
7 1 9.43451 7.16096e-05 -7.97523e-05 -8.94961
14 1 20.4415 1.57237 1.57234 -8.94951
447 1 17.3 11.008 7.86235 -8.95161
16 1 1.57226 4.71716 1.57228 -8.94977
446 1 14.1635 11.0111 7.85274 -8.9768
18 1 4.71662 4.71666 1.5715 -8.9495
445 1 11.1029 11.005 7.64162 -8.11951
20 1 7.86187 4.71665 1.57168 -8.94915
56 1 9.4345 0.000199511 3.14435 -8.94955
22 1 11.0069 4.71653 1.57167 -8.94941
444 1 7.88547 11.0125 7.87504 -8.874
24 1 14.152 4.7165 1.57168 -8.94969
443 1 4.71973 11.0076 7.86289 -8.94081
26 1 17.2975 4.71634 1.57158 -8.94835
442 1 1.57203 11.0069 7.86165 -8.94775
28 1 20.4417 4.71707 1.57227 -8.94959
397 1 14.1611 11.0076 4.70776 -8.94268
30 1 1.57228 7.86207 1.57229 -8.94947
396 1 11.0117 11.0074 4.71992 -9.00153
32 1 4.71697 7.86223 1.57224 -8.94982
395 1 7.8649 11.0075 4.7206 -8.94637
34 1 7.86174 7.86186 1.57096 -8.95199
35 1 9.43425 6.28902 -0.000357299 -8.9495
36 1 11.0065 7.86115 1.57034 -8.9503
37 1 12.5794 6.28902 -0.000369249 -8.94954
38 1 14.1531 7.86071 1.56933 -8.95185
518 1 20.4425 11.0071 11.0067 -8.94976
40 1 17.2975 7.86169 1.57176 -8.94949
350 1 20.4417 11.0069 1.57223 -8.94957
42 1 20.4417 7.86201 1.57225 -8.9495
58 1 12.5795 0.000190571 3.14437 -8.94951
44 1 3.14451 9.43444 6.76656e-05 -8.9495
348 1 14.1535 11.007 1.5696 -8.94961
347 1 11.0066 11.007 1.57161 -8.94684
346 1 7.86183 11.0069 1.57272 -8.94845
48 1 15.725 9.43419 -0.000144554 -8.9498
149 1 3.14432 0.000202498 9.43449 -8.94948
50 1 -6.10454e-05 6.73446e-05 3.14474 -8.94955
51 1 1.57218 1.5723 4.71712 -8.94964
52 1 3.14442 0.000173057 3.14441 -8.94925
53 1 4.7166 1.57199 4.71658 -8.94984
517 1 17.3011 11.0071 11.0065 -8.95379
55 1 7.86197 1.57203 4.71663 -8.94943
173 1 12.5983 9.40918 9.38903 -8.83514
57 1 11.0071 1.57198 4.71657 -8.94949
172 1 9.36888 9.20133 9.44059 -8.12886
59 1 14.1521 1.57192 4.71678 -8.95023
516 1 14.1692 10.9808 10.9967 -8.93508
61 1 17.297 1.57233 4.71701 -8.9496
62 1 18.8693 0.000124316 3.14465 -8.94935
63 1 20.4415 1.57236 4.7172 -8.94964
64 1 22.0137 3.14465 3.14466 -8.94951
65 1 1.57155 4.7167 4.71667 -8.94957
66 1 3.14409 3.14422 3.14408 -8.9485
67 1 4.71433 4.71451 4.71431 -8.9452
68 1 6.28939 3.14421 3.14417 -8.94966
69 1 7.86136 4.715 4.71543 -8.94903
70 1 9.43444 3.1441 3.14412 -8.94945
71 1 11.0071 4.71478 4.71531 -8.94807
72 1 12.5795 3.14404 3.14417 -8.94924
73 1 14.1539 4.7134 4.71494 -8.95016
74 1 15.7249 3.14376 3.14409 -8.94956
75 1 17.2979 4.71609 4.71645 -8.94899
76 1 18.8694 3.14456 3.14461 -8.9495
77 1 20.4417 4.71692 4.71701 -8.9496
78 1 22.014 6.2896 3.14466 -8.94981
79 1 1.57205 7.8622 4.71695 -8.94978
80 1 3.14428 6.28958 3.14434 -8.95032
81 1 4.71592 7.86245 4.71621 -8.9519
82 1 6.28776 6.28795 3.14163 -8.9501
83 1 7.85746 7.8576 4.7089 -8.95436
84 1 9.43387 6.28788 3.1424 -8.94778
85 1 11.0065 7.85771 4.70916 -8.95047
86 1 12.5798 6.28766 3.14209 -8.94919
87 1 14.1644 7.84991 4.70345 -8.93105
88 1 15.7278 6.28608 3.14102 -8.94473
89 1 17.3002 7.86055 4.71533 -8.95144
90 1 18.8701 6.28908 3.1442 -8.94984
91 1 20.4421 7.86193 4.71694 -8.95014
92 1 4.79497e-05 9.43446 3.14456 -8.94954
93 1 3.14433 9.4345 3.14432 -8.94901
94 1 6.28951 9.43538 3.14453 -8.94957
95 1 9.43475 9.43469 3.14367 -8.95094
96 1 12.5815 9.43326 3.13625 -8.96058
97 1 15.727 9.43368 3.14191 -8.94793
98 1 18.8701 9.43434 3.14419 -8.94922
513 1 4.71813 11.0072 11.0067 -8.94325
100 1 1.57214 1.57229 7.86204 -8.94957
189 1 20.4417 4.71677 11.0069 -8.94953
102 1 4.71652 1.5719 7.86185 -8.94939
103 1 6.2889 0.000936976 6.28888 -8.95059
104 1 7.8618 1.57175 7.8618 -8.95156
171 1 6.27983 9.4252 9.43161 -8.96627
106 1 11.007 1.57225 7.86175 -8.94994
170 1 3.14213 9.43484 9.4342 -8.95209
108 1 14.1523 1.57219 7.86189 -8.95035
109 1 15.7249 0.000739795 6.28917 -8.94985
110 1 17.2971 1.57222 7.86202 -8.94954
188 1 17.298 4.71578 11.0068 -8.94879
112 1 20.4416 1.57234 7.86206 -8.94959
113 1 -0.000154958 3.14462 6.28958 -8.94953
114 1 1.57155 4.71664 7.86186 -8.9493
115 1 3.14408 3.14415 6.28929 -8.94943
116 1 4.71477 4.71472 7.86106 -8.9482
117 1 6.28843 3.1424 6.28842 -8.95134
118 1 7.85988 4.71042 7.86084 -8.95826
119 1 9.43456 3.14276 6.28861 -8.95
120 1 11.0064 4.7141 7.86131 -8.95108
121 1 12.5797 3.14275 6.28906 -8.95185
122 1 14.1533 4.71385 7.86152 -8.95065
123 1 15.725 3.14378 6.28932 -8.94985
124 1 17.2978 4.71596 7.86175 -8.94919
125 1 18.8694 3.14449 6.28955 -8.94955
126 1 20.4417 4.71684 7.86197 -8.94949
127 1 22.0135 6.28932 6.28934 -8.95017
128 1 1.5706 7.8618 7.8617 -8.95174
129 1 3.1417 6.28815 6.28802 -8.95037
130 1 4.70809 7.85865 7.85907 -8.95648
131 1 6.2791 6.27956 6.27951 -8.9317
132 1 7.8253 7.82938 7.83152 -8.85875
133 1 9.43369 6.2824 6.28542 -8.94951
134 1 11.021 7.85104 7.83828 -8.89902
135 1 12.5845 6.27914 6.28322 -8.95329
136 1 14.1659 7.85051 7.85339 -8.93328
137 1 15.7287 6.28564 6.28684 -8.94627
138 1 17.3017 7.85952 7.86042 -8.94941
139 1 18.8705 6.28875 6.28905 -8.94935
140 1 20.4423 7.86168 7.86181 -8.95054
141 1 22.014 9.43457 6.28939 -8.94975
142 1 3.14388 9.43529 6.28923 -8.94973
143 1 6.28796 9.43804 6.28956 -8.95434
144 1 9.42348 9.41587 6.28546 -8.91058
145 1 12.621 9.39952 6.24691 -8.86777
146 1 15.7343 9.43257 6.28536 -8.95975
147 1 18.8713 9.43454 6.28929 -8.95151
148 1 -8.02993e-05 7.56172e-05 9.43451 -8.94961
169 1 22.0137 9.43454 9.43436 -8.95012
168 1 18.8705 6.28855 9.43426 -8.94903
151 1 9.43464 0.00168495 9.43445 -8.95081
152 1 12.5797 0.00136111 9.43447 -8.95114
167 1 15.7277 6.28555 9.43364 -8.94646
166 1 12.5799 6.284 9.4324 -8.95429
155 1 22.0137 3.14458 9.4345 -8.94957
156 1 3.14399 3.14408 9.43445 -8.94949
157 1 6.28806 3.14208 9.4344 -8.9495
158 1 9.43449 3.14352 9.43439 -8.9474
159 1 12.5797 3.14325 9.43433 -8.95009
160 1 15.7251 3.14356 9.43439 -8.94956
161 1 18.8695 3.14441 9.43445 -8.94952
162 1 -0.000425795 6.28914 9.43439 -8.94972
163 1 3.14167 6.28793 9.43426 -8.94877
164 1 6.28143 6.28109 9.43428 -8.94407
165 1 9.43128 6.29035 9.435 -9.00299
344 1 1.57223 11.0069 1.57223 -8.94962
183 1 1.5715 4.71657 11.007 -8.94935
181 1 17.2971 1.57217 11.007 -8.94953
154 1 18.8693 0.000130901 9.4345 -8.94956
177 1 4.71647 1.57186 11.0071 -8.94938
9 1 12.5794 6.94314e-05 -7.66639e-05 -8.94961
184 1 4.71457 4.71446 11.0076 -8.94787
512 1 1.5717 11.007 11.007 -8.948
41 1 18.8694 6.28943 5.00664e-05 -8.94958
19 1 6.28959 3.14463 -0.000126699 -8.94951
25 1 15.7243 3.14459 -0.000110523 -8.94968
176 1 1.57213 1.57228 11.007 -8.94959
199 1 3.14433 0.000211033 12.5795 -8.94946
178 1 7.86181 1.57147 11.0071 -8.9515
179 1 11.007 1.57184 11.007 -8.94923
180 1 14.1523 1.57196 11.007 -8.94985
644 1 20.4417 11.0069 20.4417 -8.94959
182 1 20.4416 1.57233 11.0069 -8.94961
642 1 14.1524 11.0069 20.4433 -8.95175
209 1 18.8693 0.000136674 12.5794 -8.94956
185 1 7.85978 4.70952 11.0081 -8.9585
186 1 11.0069 4.71369 11.0072 -8.95143
187 1 14.1532 4.71393 11.0063 -8.94945
641 1 11.0068 11.0068 20.4427 -8.94839
640 1 7.86166 11.0068 20.4436 -8.95115
190 1 1.57042 7.86157 11.0068 -8.95124
191 1 4.70791 7.85839 11.0082 -8.95588
192 1 7.82534 7.82602 11.04 -8.86159
193 1 11.0296 7.84976 11.0327 -8.96667
194 1 14.1607 7.85287 11.0045 -8.95816
195 1 17.301 7.85959 11.0059 -8.94771
196 1 20.4424 7.86146 11.0067 -8.9498
343 1 18.87 9.43423 18.8699 -8.94935
198 1 1.57216 1.57229 14.1519 -8.94961
342 1 15.7262 9.4332 18.8728 -8.9505
200 1 4.71654 1.57183 14.1524 -8.94981
341 1 12.5792 9.43382 18.873 -8.95227
202 1 7.86198 1.57175 14.1523 -8.95024
203 1 9.43474 0.000457803 12.5798 -8.94991
204 1 11.0071 1.57154 14.1525 -8.94936
205 1 12.5795 0.000190585 12.5796 -8.95008
206 1 14.1522 1.57138 14.1522 -8.9511
340 1 9.43467 9.43386 18.8721 -8.95022
208 1 17.297 1.57219 14.1519 -8.94959
339 1 6.28796 9.43318 18.8726 -8.95057
210 1 20.4416 1.57235 14.1518 -8.94958
211 1 -0.000153355 3.14458 12.5794 -8.94953
212 1 1.57147 4.71659 14.1523 -8.94963
213 1 3.14399 3.14407 12.5797 -8.94938
214 1 4.7139 4.71382 14.1547 -8.94491
215 1 6.28824 3.14187 12.5804 -8.95122
216 1 7.86103 4.71281 14.1539 -8.95179
217 1 9.43474 3.14215 12.5802 -8.95015
218 1 11.0071 4.71363 14.1542 -8.94694
219 1 12.5798 3.1417 12.5798 -8.95279
220 1 14.1549 4.7104 14.1549 -8.95193
221 1 15.725 3.14353 12.5793 -8.94957
222 1 17.2981 4.71566 14.1522 -8.94977
223 1 18.8695 3.14442 12.5794 -8.94943
224 1 20.4417 4.71684 14.1519 -8.94968
225 1 22.0135 6.28919 12.5795 -8.95001
226 1 1.57144 7.86176 14.1521 -8.9498
227 1 3.14143 6.28792 12.5805 -8.95066
228 1 4.71321 7.86056 14.1533 -8.95135
229 1 6.27789 6.27767 12.5894 -8.93051
230 1 7.85027 7.84649 14.1679 -8.95462
231 1 9.43434 6.28031 12.5845 -8.95207
232 1 11.0072 7.8563 14.1625 -8.94638
233 1 12.5871 6.27453 12.5873 -8.95414
234 1 14.1734 7.83775 14.1733 -8.92142
235 1 15.7286 6.2853 12.5797 -8.94975
236 1 17.3034 7.85849 14.1544 -8.95095
237 1 18.8706 6.28864 12.5793 -8.94951
238 1 20.4429 7.86149 14.1521 -8.9503
239 1 22.014 9.43432 12.5794 -8.95046
240 1 3.14173 9.4344 12.5794 -8.95054
241 1 6.27976 9.43371 12.5805 -8.95508
242 1 9.39843 9.40607 12.6125 -8.865
243 1 12.6497 9.38343 12.6462 -8.77659
244 1 15.743 9.42766 12.5836 -8.96076
245 1 18.8735 9.43369 12.5793 -8.95281
246 1 -6.43209e-05 6.47387e-05 15.7243 -8.94961
247 1 1.5722 1.57231 17.2968 -8.94936
47 1 12.5794 9.43427 22.0131 -8.95178
249 1 4.71698 1.57224 17.297 -8.94991
250 1 6.28941 0.000547564 15.7247 -8.95032
251 1 7.86206 1.57215 17.297 -8.9495
252 1 9.43463 0.000116263 15.7247 -8.94941
253 1 11.0069 1.57211 17.2971 -8.94963
254 1 12.5794 4.1318e-05 15.7247 -8.94933
255 1 14.1518 1.5721 17.297 -8.9495
256 1 15.7246 0.000333615 15.7247 -8.95049
257 1 17.297 1.57206 17.2971 -8.94969
46 1 9.43434 9.43438 22.0141 -8.94959
259 1 20.4415 1.57234 17.2967 -8.94963
260 1 22.0137 3.14461 15.7244 -8.94957
261 1 1.57214 4.71698 17.2969 -8.94986
262 1 3.14397 3.14405 15.725 -8.94849
263 1 4.71589 4.71556 17.2983 -8.94907
264 1 6.28912 3.14345 15.7251 -8.95044
265 1 7.86186 4.71599 17.2979 -8.94906
266 1 9.43445 3.14353 15.7252 -8.94932
267 1 11.0069 4.71571 17.2981 -8.94921
268 1 12.5794 3.14339 15.7251 -8.94911
269 1 14.1521 4.71575 17.298 -8.94962
270 1 15.7254 3.14274 15.7254 -8.95002
271 1 17.2984 4.71515 17.2984 -8.9475
272 1 18.8695 3.14441 15.7244 -8.94971
273 1 20.4419 4.71686 17.297 -8.94961
274 1 22.014 6.28934 15.7245 -8.9498
275 1 1.5716 7.86157 17.2973 -8.94979
276 1 3.14355 6.28893 15.725 -8.95038
277 1 4.71388 7.85916 17.3002 -8.94491
278 1 6.28524 6.28395 15.7299 -8.94927
279 1 7.86111 7.86005 17.3011 -8.95269
280 1 9.43419 6.28614 15.728 -8.94717
281 1 11.0066 7.85922 17.3017 -8.94723
282 1 12.5797 6.28572 15.7286 -8.94865
283 1 14.1538 7.85903 17.3027 -8.95282
284 1 15.7308 6.28179 15.7308 -8.94183
285 1 17.3004 7.85898 17.3004 -8.94528
286 1 18.8711 6.28834 15.7252 -8.94978
287 1 20.4423 7.86158 17.2973 -8.94984
288 1 -6.25864e-07 9.43425 15.7247 -8.9504
289 1 3.14157 9.4334 15.7259 -8.9509
290 1 6.27791 9.42447 15.7364 -8.93061
291 1 9.43506 9.43153 15.7343 -8.95228
292 1 12.581 9.43072 15.7403 -8.96268
293 1 15.7371 9.42441 15.7374 -8.9319
294 1 18.8726 9.43351 15.7258 -8.95098
45 1 6.28927 9.43442 22.0144 -8.94988
296 1 1.5723 1.57236 20.4416 -8.94946
297 1 3.14462 0.000186957 18.8693 -8.94957
298 1 4.71722 1.57235 20.4415 -8.94966
299 1 6.28968 8.17406e-05 18.8692 -8.94968
300 1 7.86206 1.57233 20.4416 -8.94958
338 1 3.14397 9.43419 18.8699 -8.94935
302 1 11.007 1.57232 20.4416 -8.94961
337 1 22.0139 9.43441 18.8694 -8.94949
304 1 14.1518 1.57233 20.4416 -8.94957
305 1 15.7242 5.66928e-05 18.8692 -8.94969
306 1 17.2967 1.57233 20.4415 -8.94973
307 1 18.8693 0.000132804 18.8693 -8.94944
308 1 20.4416 1.57236 20.4416 -8.94939
309 1 22.0139 3.14472 18.8692 -8.94966
310 1 1.57227 4.71708 20.4417 -8.9494
311 1 3.14446 3.14444 18.8695 -8.94938
312 1 4.71698 4.7169 20.4417 -8.94994
313 1 6.28958 3.14448 18.8694 -8.94955
314 1 7.86194 4.71679 20.4417 -8.9494
315 1 9.43445 3.14437 18.8695 -8.94951
316 1 11.0069 4.71672 20.4418 -8.94956
317 1 12.5794 3.14437 18.8695 -8.94948
318 1 14.1519 4.71678 20.4418 -8.94948
319 1 15.7244 3.14442 18.8694 -8.94972
320 1 17.2971 4.71674 20.4417 -8.94965
321 1 18.8695 3.14438 18.8694 -8.94907
322 1 20.4417 4.71705 20.4417 -8.94939
323 1 22.0139 6.28941 18.8694 -8.94955
324 1 1.57221 7.86198 20.4417 -8.94959
325 1 3.14402 6.28894 18.8699 -8.9485
326 1 4.7166 7.8616 20.4424 -8.94961
327 1 6.28909 6.28875 18.8705 -8.95061
328 1 7.86189 7.86165 20.4423 -8.95023
329 1 9.43421 6.28849 18.8705 -8.94904
330 1 11.0067 7.86124 20.4425 -8.94996
331 1 12.5794 6.2885 18.8707 -8.94911
332 1 14.1521 7.86142 20.4424 -8.95073
333 1 15.7252 6.28836 18.8708 -8.95033
334 1 17.2975 7.86152 20.4424 -8.94956
335 1 18.87 6.28886 18.87 -8.94859
336 1 20.4417 7.86199 20.4417 -8.94961
29 1 22.0139 6.28962 22.0139 -8.94961
638 1 1.57219 11.0069 20.4417 -8.94959
514 1 7.87733 10.9892 10.9868 -8.84029
515 1 11.101 10.7169 11.1111 -7.30961
27 1 18.8693 3.1446 22.0138 -8.94932
39 1 15.7248 6.28894 22.0133 -8.95007
593 1 14.1559 11.0057 17.3075 -8.95631
540 1 1.57062 11.0069 14.1523 -8.95117
541 1 4.70872 11.0058 14.1554 -8.95635
542 1 7.82779 10.975 14.1909 -8.85304
543 1 11.006 11.0104 14.1514 -8.96677
544 1 14.1897 10.9784 14.1935 -8.85949
545 1 17.3059 11.0065 14.1551 -8.95684
546 1 20.4432 11.007 14.1521 -8.9513
33 1 6.28936 6.28933 22.0135 -8.95035
31 1 3.1446 6.28956 22.014 -8.94965
591 1 7.85867 11.0051 17.3065 -8.95674
592 1 11.0067 11.0075 17.3 -8.94473
5 1 6.28964 5.6537e-05 22.0138 -8.94957
15 1 22.0139 3.14476 22.0139 -8.94951
17 1 3.14464 3.14463 22.0137 -8.94956
23 1 12.5794 3.14456 22.0138 -8.94955
13 1 18.8692 5.38504e-05 22.0138 -8.94954
21 1 9.43448 3.14456 22.0138 -8.94958
43 1 22.0139 9.43449 22.0139 -8.94962
49 1 18.8695 9.43443 22.0139 -8.94951
688 3 10.1616 11.0379 9.38657 2.39104
511 1 18.8699 18.8697 9.43444 -8.94924
510 1 15.7263 18.8716 9.43423 -8.94912
509 1 12.5812 18.8771 9.43212 -8.95849
508 1 9.43333 18.8788 9.43213 -8.95805
349 1 17.2976 11.0069 1.57173 -8.94946
507 1 6.28631 18.8743 9.434 -8.94878
539 1 20.4416 20.4417 11.007 -8.94958
352 1 1.57226 14.1518 1.57227 -8.9495
353 1 3.14449 12.5794 6.34113e-05 -8.94955
354 1 4.71686 14.1516 1.57214 -8.94963
153 1 15.7248 22.0144 9.43454 -8.94958
356 1 7.86169 14.1518 1.57091 -8.95228
150 1 6.28887 22.0147 9.4345 -8.95001
358 1 11.0065 14.1523 1.57008 -8.95022
345 1 4.71671 11.0069 1.57202 -8.94962
360 1 14.1531 14.1529 1.56964 -8.9515
361 1 15.7251 12.5796 -0.000156563 -8.94959
362 1 17.2976 14.1522 1.57174 -8.94934
107 1 12.5797 22.0147 6.28902 -8.94991
364 1 20.4417 14.1519 1.57224 -8.94953
365 1 22.0139 15.7243 1.80159e-05 -8.94959
366 1 1.57225 17.2967 1.57226 -8.94976
105 1 9.43449 22.0148 6.28884 -8.94971
368 1 4.7165 17.2973 1.5715 -8.94965
529 1 11.0074 17.2977 11.0024 -9.01261
370 1 7.86177 17.2973 1.57114 -8.9497
371 1 9.43439 15.7248 -0.00053674 -8.94978
372 1 11.007 17.2975 1.57108 -8.94971
373 1 12.5794 15.7248 -0.000584887 -8.94982
374 1 14.1522 17.2974 1.57119 -8.95027
526 1 1.5709 17.2976 11.007 -8.94931
376 1 17.2975 17.2974 1.57176 -8.94851
525 1 20.4417 14.1519 11.0068 -8.94947
378 1 20.4417 17.2968 1.57228 -8.94954
111 1 18.8693 22.014 6.28958 -8.94968
380 1 1.57219 20.4416 1.57226 -8.94936
495 1 12.5477 12.5718 9.45137 -8.8302
382 1 4.71702 20.4418 1.57203 -8.94966
383 1 6.28955 18.8694 -0.000209188 -8.94971
384 1 7.862 20.4418 1.57201 -8.94946
494 1 9.36102 12.8436 9.46098 -7.95636
386 1 11.007 20.4419 1.572 -8.94954
493 1 6.285 12.5877 9.43758 -8.97092
388 1 14.1519 20.4418 1.57205 -8.94945
389 1 15.7244 18.8694 -0.000206326 -8.94986
390 1 17.297 20.4418 1.57203 -8.94948
391 1 18.8694 18.8693 3.97734e-05 -8.94931
392 1 20.4415 20.4416 1.57238 -8.94966
506 1 3.14328 18.8703 9.43435 -8.94909
394 1 4.71597 11.0068 4.71579 -8.94629
505 1 22.0137 18.8695 9.43443 -8.9495
504 1 18.871 15.7247 9.43446 -8.9522
503 1 15.7339 15.7292 9.43089 -8.95603
398 1 17.3003 11.0069 4.71526 -8.94851
399 1 20.4423 11.0069 4.71678 -8.9498
400 1 4.05776e-05 12.5794 3.14455 -8.94957
401 1 1.57192 14.1517 4.71684 -8.94966
402 1 3.14425 12.5793 3.14425 -8.94915
403 1 4.71554 14.1512 4.71591 -8.95102
404 1 6.28916 12.5783 3.1442 -8.9492
405 1 7.8573 14.1553 4.70805 -8.95514
406 1 9.43463 12.5789 3.14415 -8.94851
407 1 11.0068 14.1547 4.70836 -8.9521
408 1 12.5817 12.5804 3.1375 -8.95784
409 1 14.1636 14.1618 4.70513 -8.92978
410 1 15.7272 12.5803 3.14183 -8.94777
411 1 17.3003 14.1533 4.71536 -8.95012
412 1 18.8701 12.5795 3.14416 -8.94936
413 1 20.4422 14.152 4.71686 -8.95002
414 1 22.0139 15.7243 3.14461 -8.94972
415 1 1.57142 17.2971 4.71662 -8.94969
416 1 3.14419 15.7243 3.14425 -8.95014
417 1 4.71374 17.2996 4.71368 -8.94537
418 1 6.28761 15.7257 3.14122 -8.95034
419 1 7.86011 17.3001 4.71233 -8.95075
420 1 9.43394 15.7258 3.14087 -8.94982
421 1 11.0072 17.3004 4.7124 -8.94742
422 1 12.58 15.7259 3.1407 -8.95155
423 1 14.1554 17.3015 4.71206 -8.95139
424 1 15.7275 15.7272 3.1415 -8.9447
425 1 17.2977 17.2972 4.71672 -8.95085
426 1 18.8701 15.7248 3.14422 -8.94949
427 1 20.4415 17.2968 4.7171 -8.94979
428 1 22.0137 18.8692 3.14466 -8.94962
429 1 1.572 20.4418 4.71696 -8.94953
430 1 3.14393 18.8698 3.14397 -8.9486
431 1 4.71593 20.443 4.71591 -8.94846
432 1 6.28891 18.8702 3.14329 -8.94983
433 1 7.86175 20.4428 4.7161 -8.94928
434 1 9.43433 18.8703 3.14332 -8.94913
435 1 11.0071 20.4428 4.71605 -8.94945
436 1 12.5797 18.8703 3.1434 -8.94893
437 1 14.1524 20.4428 4.71629 -8.95009
438 1 15.7254 18.8706 3.14328 -8.94952
439 1 17.2976 20.4423 4.71648 -8.94829
440 1 18.8693 18.8693 3.14466 -8.94998
441 1 20.4417 20.4417 4.71706 -8.94952
502 1 12.6167 15.7616 9.38847 -8.82921
501 1 9.39147 15.7656 9.39129 -8.90445
500 1 6.27158 15.7376 9.42981 -8.94904
499 1 3.13991 15.7259 9.43423 -8.95146
498 1 -0.000684672 15.7246 9.43441 -8.95046
497 1 18.8696 12.5799 9.43434 -8.94642
496 1 15.7196 12.5794 9.43674 -8.93567
449 1 22.0139 12.5793 6.28932 -8.94992
450 1 1.57037 14.1518 7.86168 -8.95139
451 1 3.14341 12.5785 6.28892 -8.94959
452 1 4.70778 14.1538 7.85967 -8.95759
453 1 6.2867 12.576 6.28905 -8.94929
454 1 7.82194 14.1852 7.82786 -8.85352
455 1 9.42411 12.5993 6.29099 -8.90274
456 1 11.0215 14.1667 7.83457 -8.93508
457 1 12.6189 12.6129 6.25559 -8.84452
458 1 14.1557 14.1487 7.8622 -8.95135
459 1 15.7349 12.5818 6.28526 -8.95449
460 1 17.2984 14.1515 7.86254 -8.94919
461 1 18.8715 12.5796 6.28908 -8.95155
462 1 20.4418 14.1519 7.86193 -8.94968
463 1 22.0134 15.7244 6.28935 -8.94999
464 1 1.57091 17.2974 7.86166 -8.95011
465 1 3.14137 15.7254 6.28798 -8.95071
466 1 4.71119 17.3009 7.85914 -8.94861
467 1 6.27753 15.7346 6.27758 -8.93185
468 1 7.84757 17.3161 7.84816 -8.9365
469 1 9.43216 15.7335 6.2771 -8.96075
470 1 11.0069 17.3076 7.85275 -8.94352
471 1 12.5869 15.7361 6.2748 -8.96454
472 1 14.1646 17.3095 7.85009 -8.92614
473 1 15.7268 15.7248 6.28869 -8.95281
474 1 17.3005 17.2987 7.86041 -8.95047
475 1 18.8699 15.7243 6.28957 -8.94963
476 1 20.442 17.2971 7.86184 -8.9504
477 1 -0.000206553 18.8694 6.28943 -8.94981
478 1 1.57201 20.4418 7.862 -8.94951
479 1 3.14308 18.8704 6.28867 -8.94931
480 1 4.71603 20.4429 7.86166 -8.94948
481 1 6.28506 18.8751 6.28504 -8.94554
482 1 7.86074 20.4459 7.86072 -8.95291
483 1 9.43392 18.8737 6.28629 -8.94805
484 1 11.0072 20.4451 7.86052 -8.94919
485 1 12.5807 18.8734 6.28681 -8.9501
486 1 14.1533 20.4447 7.86095 -8.95142
487 1 15.7279 18.8727 6.28648 -8.94394
488 1 17.2974 20.4422 7.86191 -8.94972
489 1 18.8702 18.8698 6.28906 -8.94952
490 1 20.4416 20.4417 7.86204 -8.94954
491 1 22.0135 12.5793 9.4343 -8.94929
492 1 3.14251 12.5788 9.43425 -8.94963
519 1 1.57002 14.1519 11.007 -8.95152
520 1 4.70639 14.1545 11.0098 -8.96013
522 1 11.017 14.4282 10.9346 -8.01318
523 1 14.1525 14.166 10.9941 -8.92412
524 1 17.2976 14.1515 11.007 -8.94971
393 1 1.5719 11.0069 4.71664 -8.94947
54 1 6.28952 22.0141 3.14442 -8.94958
60 1 15.7245 22.0141 3.14447 -8.94987
99 1 22.0138 22.014 6.28963 -8.94961
101 1 3.14437 22.0141 6.28947 -8.94956
527 1 4.71227 17.301 11.0076 -8.94623
534 1 4.71605 20.443 11.0072 -8.94923
687 3 10.9841 12.6095 11.7384 2.30145
686 1 20.4416 20.4416 20.4416 -8.94931
685 1 18.8697 18.8698 18.8697 -8.94864
684 1 17.2967 20.4417 20.4416 -8.94981
683 1 15.7244 18.8696 18.8696 -8.95026
682 1 14.1518 20.4417 20.4416 -8.94947
681 1 12.5794 18.8697 18.8696 -8.94906
303 1 12.5794 22.014 18.8693 -8.94958
301 1 9.43451 22.014 18.8693 -8.94959
521 1 7.81394 14.2104 11.0339 -8.80416
387 1 12.5795 18.8695 22.0137 -8.94953
207 1 15.7248 22.0143 12.5795 -8.94947
201 1 6.28899 22.0146 12.5799 -8.95037
385 1 9.43447 18.8695 22.0137 -8.94956
197 1 22.0138 22.014 12.5794 -8.94961
590 1 4.7143 11.0061 17.2997 -8.94784
528 1 7.85556 17.3124 11.0089 -8.95841
661 1 3.14404 15.7246 18.8699 -8.94938
530 1 14.156 17.3031 11.0066 -8.94941
531 1 17.2991 17.2984 11.0069 -8.94773
660 1 1.57224 17.2968 20.4417 -8.94965
533 1 1.572 20.4419 11.007 -8.94955
589 1 1.57157 11.0068 17.2974 -8.9494
535 1 7.86125 20.4452 11.0075 -8.95194
536 1 11.0073 20.4432 11.0072 -8.94748
537 1 14.1528 20.4435 11.0073 -8.94985
538 1 17.2974 20.4422 11.007 -8.94945
659 1 22.0139 15.7244 18.8694 -8.94946
680 1 11.007 20.4418 20.4416 -8.94961
679 1 9.43458 18.8697 18.8697 -8.9491
678 1 7.86208 20.4417 20.4416 -8.94949
677 1 6.28956 18.8697 18.8698 -8.95021
676 1 4.71717 20.4417 20.4416 -8.94978
675 1 3.14403 18.8699 18.87 -8.94846
674 1 1.57225 20.4417 20.4416 -8.94929
547 1 22.0137 12.5794 12.5794 -8.94901
548 1 1.57073 14.1518 14.1521 -8.95108
549 1 3.14278 12.5786 12.5797 -8.94648
550 1 4.70916 14.1524 14.1548 -8.95934
551 1 6.2907 12.5761 12.5849 -8.99909
552 1 7.82548 14.1847 14.1952 -8.87009
553 1 9.20926 12.5825 12.6586 -8.1222
554 1 11.0066 14.1412 14.1309 -8.91114
555 1 12.7771 12.5578 12.6477 -8.17635
556 1 14.1814 14.176 14.1842 -8.8767
557 1 15.725 12.5788 12.5842 -8.99399
558 1 17.3035 14.1532 14.1542 -8.95678
559 1 18.8709 12.5797 12.5794 -8.94766
560 1 20.4428 14.152 14.152 -8.951
561 1 22.0132 15.7247 12.5794 -8.95053
562 1 1.57089 17.2975 14.1524 -8.94965
563 1 3.1395 15.7264 12.5806 -8.95154
564 1 4.71163 17.3015 14.1558 -8.94371
565 1 6.27026 15.7398 12.5919 -8.92942
566 1 7.85623 17.3077 14.1591 -8.95106
567 1 9.41067 15.7375 12.5998 -8.89242
568 1 11.0077 17.2958 14.1513 -8.94392
569 1 12.6067 15.7346 12.5997 -8.881
570 1 14.1584 17.306 14.1583 -8.9489
571 1 15.731 15.7267 12.5793 -8.95508
572 1 17.299 17.2983 14.1524 -8.95026
573 1 18.8709 15.7249 12.5791 -8.95059
574 1 20.4419 17.2971 14.1519 -8.9498
575 1 -0.000224376 18.8695 12.5794 -8.94951
576 1 1.57204 20.4418 14.1519 -8.94955
577 1 3.14334 18.8704 12.5798 -8.9492
578 1 4.71619 20.443 14.1525 -8.94945
579 1 6.2867 18.8743 12.5812 -8.94947
580 1 7.86194 20.4437 14.1526 -8.95199
581 1 9.43501 18.8726 12.5801 -8.95141
582 1 11.0072 20.442 14.1524 -8.94829
583 1 12.58 18.8713 12.5796 -8.95234
584 1 14.1522 20.4432 14.1523 -8.95222
585 1 15.7259 18.8711 12.5798 -8.94793
586 1 17.2972 20.4422 14.152 -8.94931
587 1 18.8698 18.8697 12.5795 -8.94932
588 1 20.4416 20.4417 14.1519 -8.94952
673 1 22.0139 18.8693 18.8693 -8.9496
672 1 20.4417 17.2968 20.4417 -8.94959
671 1 18.8698 15.7247 18.8698 -8.94929
670 1 17.2973 17.2973 20.4421 -8.94955
669 1 15.7257 15.7258 18.8718 -8.95041
668 1 14.1518 17.2971 20.4418 -8.94978
667 1 12.5789 15.7249 18.8703 -8.94991
596 1 -6.26465e-05 12.5795 15.7248 -8.95008
597 1 1.57159 14.152 17.2974 -8.94931
598 1 3.14152 12.5794 15.7262 -8.94903
599 1 4.71445 14.1527 17.2995 -8.94782
600 1 6.28067 12.579 15.7337 -8.94239
601 1 7.85874 14.1544 17.307 -8.95814
602 1 9.42685 12.5803 15.7352 -8.97005
603 1 11.007 14.1518 17.2957 -8.9397
604 1 12.5864 12.5797 15.7347 -8.96808
605 1 14.155 14.1543 17.305 -8.95588
606 1 15.7335 12.5806 15.7336 -8.94178
607 1 17.2994 14.1531 17.2993 -8.94778
608 1 18.8723 12.5798 15.726 -8.94926
609 1 20.4422 14.1521 17.2973 -8.94936
610 1 22.0138 15.7245 15.7246 -8.95036
611 1 1.57164 17.2972 17.2973 -8.95003
612 1 3.14181 15.7253 15.7258 -8.95172
613 1 4.71395 17.3001 17.3004 -8.9452
614 1 6.27799 15.7357 15.7377 -8.93287
615 1 7.8624 17.2981 17.2988 -8.95153
616 1 9.43767 15.7253 15.7285 -8.9541
617 1 11.0072 17.2983 17.2983 -8.9469
618 1 12.5772 15.7243 15.7276 -8.9561
619 1 14.1517 17.2978 17.2983 -8.95185
620 1 15.7334 15.7332 15.7336 -8.93489
621 1 17.2992 17.2994 17.2993 -8.94586
622 1 18.8716 15.7255 15.7254 -8.95084
623 1 20.4421 17.2972 17.2972 -8.94982
624 1 22.0137 18.8694 15.7244 -8.94956
625 1 1.57209 20.4418 17.2969 -8.94937
626 1 3.14338 18.8704 15.7253 -8.94835
627 1 4.71659 20.4426 17.2975 -8.94948
628 1 6.28763 18.873 15.7269 -8.94966
629 1 7.8623 20.442 17.297 -8.94964
630 1 9.43545 18.8701 15.725 -8.94895
631 1 11.007 20.4421 17.2972 -8.94968
632 1 12.5789 18.8698 15.7248 -8.94883
633 1 14.1517 20.4419 17.297 -8.94963
634 1 15.7263 18.8725 15.7265 -8.94906
635 1 17.2973 20.4424 17.2973 -8.94931
636 1 18.8697 18.8697 15.7245 -8.94987
637 1 20.4416 20.4417 17.2968 -8.94967
666 1 11.007 17.2974 20.4419 -8.94955
639 1 4.71652 11.0068 20.4424 -8.94939
665 1 9.43516 15.725 18.8705 -8.94983
664 1 7.86212 17.2971 20.4418 -8.9497
663 1 6.28806 15.7259 18.8726 -8.95109
643 1 17.2975 11.0069 20.4423 -8.94931
662 1 4.71659 17.2973 20.4423 -8.94984
645 1 22.0139 12.5794 18.8694 -8.94955
646 1 1.5722 14.1519 20.4417 -8.94957
647 1 3.14395 12.5794 18.87 -8.9495
648 1 4.71657 14.152 20.4424 -8.9493
649 1 6.28784 12.5794 18.8725 -8.94891
650 1 7.86172 14.1522 20.4434 -8.95187
651 1 9.4346 12.5798 18.8724 -8.95085
652 1 11.0069 14.1524 20.4418 -8.94816
653 1 12.5792 12.5799 18.8721 -8.95124
654 1 14.1522 14.1523 20.4428 -8.9516
655 1 15.7262 12.5798 18.8724 -8.94892
656 1 17.2974 14.1521 20.4422 -8.94924
657 1 18.87 12.5795 18.8699 -8.9495
658 1 20.4417 14.1519 20.4417 -8.94958
351 1 22.0139 12.5794 22.0139 -8.94962
355 1 6.28916 12.5793 22.0144 -8.94968
357 1 9.4344 12.5794 22.0142 -8.94935
359 1 12.5794 12.5795 22.0131 -8.95115
363 1 18.8695 12.5794 22.0139 -8.94955
367 1 3.14457 15.7243 22.014 -8.94961
369 1 6.28919 15.7246 22.0139 -8.95074
375 1 15.7249 15.7249 22.0136 -8.95015
377 1 18.8694 15.7244 22.0139 -8.94953
381 1 3.14451 18.8694 22.0139 -8.94949
248 1 3.14441 22.0141 15.7245 -8.94948
258 1 18.8693 22.014 15.7243 -8.94961
295 1 22.0139 22.014 18.8691 -8.94954
595 1 20.4423 11.0068 17.2974 -8.9494
594 1 17.2997 11.0065 17.2997 -8.94792
532 1 20.4419 17.2972 11.0069 -8.94959
379 1 22.0139 18.8691 22.0139 -8.94963
