ITEM: TIMESTEP
107
ITEM: NUMBER OF ATOMS
688
ITEM: BOX BOUNDS pp pp pp
0.0000000000000000e+00 2.2013900999999997e+01
0.0000000000000000e+00 2.2013900999999997e+01
0.0000000000000000e+00 2.2013900999999997e+01
ITEM: ATOMS id type x y z c_pot
1 1 22.0138 8.65959e-05 1.14988e-05 -8.94918
2 1 1.572 1.57228 1.57201 -8.94907
3 1 3.14454 0.000171184 -0.000139883 -8.94962
4 1 4.71689 1.57224 1.57189 -8.94961
448 1 20.4426 11.0071 7.86193 -8.94932
6 1 7.86191 1.5722 1.57185 -8.94946
175 1 18.8723 9.4339 9.43405 -8.95093
8 1 11.007 1.57215 1.57183 -8.9495
174 1 15.7348 9.42737 9.42758 -8.945
10 1 14.152 1.57211 1.57189 -8.94948
11 1 15.7244 0.000116034 -0.000206402 -8.94952
12 1 17.2972 1.57203 1.57189 -8.94949
7 1 9.43447 0.000167067 -0.00023251 -8.94954
14 1 20.4416 1.57227 1.5722 -8.94934
447 1 17.3004 11.008 7.86217 -8.95155
16 1 1.5721 4.717 1.57214 -8.94982
446 1 14.1639 11.0113 7.85123 -8.97704
18 1 4.71621 4.71633 1.57114 -8.94954
445 1 11.1042 11.0059 7.6432 -8.13433
20 1 7.86158 4.71626 1.57134 -8.94904
56 1 9.43443 0.00046075 3.1438 -8.94945
22 1 11.0068 4.71603 1.57127 -8.94932
444 1 7.88924 11.0137 7.87753 -8.867
24 1 14.1524 4.71584 1.57112 -8.94963
443 1 4.72157 11.0079 7.86394 -8.94031
26 1 17.2982 4.71568 1.57107 -8.94817
442 1 1.57247 11.007 7.86168 -8.9473
28 1 20.4421 4.7168 1.57211 -8.94956
397 1 14.1629 11.0078 4.70623 -8.94247
30 1 1.57223 7.862 1.57226 -8.94938
396 1 11.0127 11.0078 4.72147 -9.0015
32 1 4.71684 7.86225 1.57239 -8.94992
395 1 7.86605 11.0079 4.72239 -8.94602
34 1 7.86167 7.8618 1.57108 -8.95232
35 1 9.43405 6.28861 -0.000305673 -8.94951
36 1 11.0065 7.86081 1.57001 -8.95063
37 1 12.5795 6.28854 -0.000474981 -8.94962
38 1 14.1537 7.86019 1.56851 -8.95212
518 1 20.4427 11.0072 11.0067 -8.94946
40 1 17.2983 7.86125 1.57129 -8.94941
350 1 20.4421 11.0069 1.57206 -8.94949
42 1 20.4421 7.86184 1.5721 -8.9494
58 1 12.5797 0.000428393 3.14386 -8.94942
44 1 3.14424 9.43432 0.000321799 -8.94942
348 1 14.1542 11.007 1.56887 -8.94971
347 1 11.0068 11.007 1.57213 -8.94627
346 1 7.86198 11.0069 1.57351 -8.94821
48 1 15.7256 9.43397 -0.000228895 -8.94986
149 1 3.14374 0.000457606 9.43441 -8.94938
50 1 -0.000176655 0.000176649 3.14452 -8.94943
51 1 1.57186 1.57224 4.71683 -8.94955
52 1 3.14397 0.000397285 3.14394 -8.9491
53 1 4.7161 1.57197 4.71607 -8.94992
517 1 17.3008 11.0066 11.0067 -8.95342
55 1 7.86171 1.57201 4.71612 -8.94942
173 1 12.5992 9.40694 9.38531 -8.83447
57 1 11.0071 1.57193 4.71607 -8.94948
172 1 9.3709 9.19208 9.44002 -8.12254
59 1 14.1525 1.57175 4.71635 -8.9504
516 1 14.1674 10.9786 10.9959 -8.93571
61 1 17.2974 1.57221 4.71669 -8.94959
62 1 18.8696 0.000258432 3.14437 -8.94922
63 1 20.4416 1.57227 4.71701 -8.94956
64 1 22.0137 3.14444 3.14441 -8.94943
65 1 1.57116 4.71638 4.71627 -8.94959
66 1 3.14361 3.14394 3.1436 -8.94831
67 1 4.71345 4.71386 4.7135 -8.94498
68 1 6.289 3.14387 3.14364 -8.94954
69 1 7.86076 4.71425 4.71474 -8.94878
70 1 9.43429 3.14374 3.14363 -8.94935
71 1 11.0071 4.71397 4.71449 -8.94784
72 1 12.5796 3.14356 3.14365 -8.94914
73 1 14.1548 4.71213 4.71378 -8.94992
74 1 15.7255 3.14311 3.14349 -8.94947
75 1 17.2988 4.71526 4.71576 -8.94885
76 1 18.8698 3.14421 3.14428 -8.9494
77 1 20.442 4.71656 4.7167 -8.9496
78 1 22.0141 6.28948 3.14448 -8.9499
79 1 1.57204 7.86225 4.71684 -8.94991
80 1 3.14396 6.28948 3.14407 -8.95055
81 1 4.71569 7.8625 4.71612 -8.95231
82 1 6.28718 6.28752 3.14103 -8.95024
83 1 7.85712 7.85701 4.70852 -8.95466
84 1 9.4336 6.28727 3.14176 -8.94763
85 1 11.0071 7.85679 4.70779 -8.95076
86 1 12.5803 6.28676 3.14089 -8.94919
87 1 14.1662 7.84856 4.70141 -8.93108
88 1 15.729 6.28494 3.13976 -8.94453
89 1 17.3016 7.85989 4.71441 -8.95161
90 1 18.8709 6.28861 3.14373 -8.9499
91 1 20.4427 7.8618 4.71668 -8.95024
92 1 0.000243598 9.43439 3.14434 -8.94949
93 1 3.14426 9.43452 3.14428 -8.94889
94 1 6.28978 9.43558 3.14508 -8.94962
95 1 9.43518 9.43475 3.1444 -8.95106
96 1 12.5823 9.43308 3.13537 -8.96116
97 1 15.7283 9.4333 3.14077 -8.94782
98 1 18.8709 9.43416 3.14374 -8.94911
513 1 4.71977 11.0073 11.0069 -8.94311
100 1 1.57178 1.57219 7.86188 -8.94947
189 1 20.442 4.7163 11.0069 -8.94946
102 1 4.71593 1.57183 7.86158 -8.94938
103 1 6.28838 0.00157766 6.28834 -8.95073
104 1 7.86157 1.57199 7.86164 -8.95173
171 1 6.28159 9.42422 9.43199 -8.96606
106 1 11.007 1.5725 7.86158 -8.95002
170 1 3.14266 9.4349 9.43427 -8.95197
108 1 14.1526 1.57214 7.86172 -8.95047
109 1 15.7254 0.00112491 6.28879 -8.94991
110 1 17.2975 1.57206 7.86188 -8.9495
188 1 17.2987 4.71497 11.0067 -8.94863
112 1 20.4417 1.57222 7.86196 -8.9495
113 1 -0.000274931 3.14437 6.28937 -8.94944
114 1 1.57107 4.71623 7.8616 -8.94923
115 1 3.14349 3.1438 6.28888 -8.94931
116 1 4.71381 4.71395 7.86064 -8.94801
117 1 6.2879 3.14201 6.288 -8.95159
118 1 7.85935 4.70996 7.86078 -8.95876
119 1 9.43433 3.14241 6.28818 -8.95019
120 1 11.0063 4.71371 7.86095 -8.95166
121 1 12.5798 3.14225 6.28864 -8.95217
122 1 14.1539 4.71288 7.86097 -8.95059
123 1 15.7255 3.14318 6.28894 -8.9499
124 1 17.2986 4.71517 7.86139 -8.94907
125 1 18.8698 3.14412 6.28932 -8.94945
126 1 20.4419 4.71642 7.86177 -8.94941
127 1 22.0135 6.28909 6.28907 -8.95036
128 1 1.57042 7.86172 7.86157 -8.9521
129 1 3.14093 6.28773 6.28751 -8.95054
130 1 4.70743 7.85811 7.85889 -8.95701
131 1 6.27784 6.2785 6.2786 -8.931
132 1 7.82406 7.82766 7.8305 -8.85461
133 1 9.43328 6.28121 6.28443 -8.94888
134 1 11.0233 7.84874 7.83519 -8.89458
135 1 12.586 6.27742 6.2812 -8.95233
136 1 14.1682 7.8488 7.85128 -8.93267
137 1 15.7303 6.28427 6.28556 -8.94593
138 1 17.3031 7.85869 7.85968 -8.94956
139 1 18.8714 6.28817 6.28857 -8.94937
140 1 20.4428 7.8615 7.86163 -8.95075
141 1 22.0143 9.43463 6.28926 -8.94971
142 1 3.14421 9.43555 6.28942 -8.94985
143 1 6.28877 9.43842 6.29038 -8.95462
144 1 9.42436 9.41496 6.2863 -8.91078
145 1 12.6228 9.39894 6.24481 -8.86965
146 1 15.736 9.43215 6.28397 -8.96008
147 1 18.8722 9.4345 6.289 -8.95167
148 1 -0.000234655 0.000185222 9.43446 -8.94953
169 1 22.014 9.4346 9.43429 -8.95
168 1 18.8712 6.28795 9.43405 -8.94897
151 1 9.43458 0.00227632 9.4343 -8.95066
152 1 12.5799 0.00170013 9.43433 -8.95125
167 1 15.7289 6.28433 9.43322 -8.94636
166 1 12.581 6.28295 9.4319 -8.95388
155 1 22.0136 3.14428 9.43441 -8.94948
156 1 3.14334 3.14365 9.43434 -8.9494
157 1 6.28736 3.14153 9.43436 -8.94967
158 1 9.43434 3.14382 9.43443 -8.94705
159 1 12.5798 3.14295 9.43426 -8.95021
160 1 15.7256 3.14298 9.43429 -8.9496
161 1 18.8698 3.14399 9.43435 -8.94941
162 1 -0.000509665 6.28877 9.43422 -8.94976
163 1 3.14078 6.28729 9.4341 -8.94871
164 1 6.28024 6.27983 9.43441 -8.94365
165 1 9.43145 6.29087 9.43536 -9.00471
344 1 1.57215 11.0069 1.57217 -8.94956
183 1 1.57097 4.71609 11.0071 -8.94928
181 1 17.2975 1.57193 11.007 -8.94948
154 1 18.8696 0.000211382 9.43447 -8.94948
177 1 4.71586 1.57169 11.0072 -8.94936
9 1 12.5795 0.000153929 -0.000227256 -8.94953
184 1 4.71347 4.71348 11.0078 -8.9476
512 1 1.57203 11.007 11.0069 -8.94754
41 1 18.8699 6.28906 8.2769e-05 -8.94949
19 1 6.28939 3.14438 -0.000206633 -8.94942
25 1 15.7246 3.14419 -0.000227101 -8.9496
176 1 1.57175 1.57217 11.007 -8.94949
199 1 3.14377 0.000449163 12.5797 -8.94935
178 1 7.86163 1.57151 11.0072 -8.95171
179 1 11.007 1.57178 11.007 -8.94909
180 1 14.1526 1.57169 11.007 -8.94987
644 1 20.442 11.0069 20.442 -8.94949
182 1 20.4417 1.57219 11.0069 -8.94953
642 1 14.1527 11.007 20.4436 -8.95195
209 1 18.8696 0.000186836 12.5795 -8.94948
185 1 7.85926 4.70878 11.0085 -8.95901
186 1 11.0071 4.71324 11.0077 -8.95238
187 1 14.1539 4.71299 11.0065 -8.94939
641 1 11.0067 11.0069 20.443 -8.94789
640 1 7.86144 11.0068 20.4444 -8.95112
190 1 1.57009 7.86136 11.0067 -8.95145
191 1 4.707 7.8576 11.0084 -8.95617
192 1 7.82389 7.82397 11.0421 -8.85885
193 1 11.0323 7.84654 11.0356 -8.96523
194 1 14.1623 7.85143 11.0047 -8.95924
195 1 17.3021 7.85881 11.0058 -8.94778
196 1 20.4429 7.86119 11.0066 -8.94986
343 1 18.8707 9.43395 18.8706 -8.94918
198 1 1.57179 1.57216 14.1521 -8.94949
342 1 15.727 9.43278 18.8739 -8.95055
200 1 4.716 1.57159 14.1528 -8.94989
341 1 12.5793 9.43372 18.8737 -8.9525
202 1 7.86186 1.57137 14.1527 -8.9504
203 1 9.43484 0.000529624 12.58 -8.95002
204 1 11.0072 1.57103 14.1528 -8.94927
205 1 12.5796 -1.17366e-05 12.5797 -8.95018
206 1 14.1525 1.57073 14.1525 -8.95134
340 1 9.4346 9.43378 18.873 -8.95037
208 1 17.2974 1.57185 14.152 -8.94958
339 1 6.28729 9.43277 18.8738 -8.95056
210 1 20.4417 1.57219 14.1519 -8.94949
211 1 -0.000292255 3.14426 12.5795 -8.94944
212 1 1.57094 4.71609 14.1526 -8.94964
213 1 3.1433 3.14355 12.5799 -8.94921
214 1 4.71266 4.71262 14.1556 -8.94457
215 1 6.28762 3.14109 12.5809 -8.95146
216 1 7.86033 4.7114 14.155 -8.95178
217 1 9.43471 3.1415 12.5806 -8.95034
218 1 11.0075 4.7125 14.1553 -8.94665
219 1 12.58 3.14085 12.5801 -8.95303
220 1 14.1562 4.70864 14.1562 -8.9516
221 1 15.7256 3.14275 12.5795 -8.94956
222 1 17.2992 4.71459 14.1527 -8.94982
223 1 18.8699 3.14397 12.5794 -8.94931
224 1 20.4421 4.71636 14.1521 -8.9497
225 1 22.0135 6.28881 12.5795 -8.95011
226 1 1.57101 7.86151 14.1522 -8.95001
227 1 3.14036 6.28722 12.5809 -8.95078
228 1 4.71182 7.85975 14.1543 -8.95152
229 1 6.27613 6.27591 12.5908 -8.92982
230 1 7.84837 7.84449 14.1706 -8.95412
231 1 9.43403 6.27873 12.5863 -8.95188
232 1 11.008 7.85503 14.1648 -8.94659
233 1 12.5892 6.27267 12.5896 -8.95283
234 1 14.1756 7.83622 14.1755 -8.92183
235 1 15.7303 6.2839 12.5804 -8.95006
236 1 17.3053 7.85732 14.1556 -8.95098
237 1 18.8715 6.288 12.5794 -8.94958
238 1 20.4436 7.86113 14.1524 -8.95048
239 1 22.0141 9.43429 12.5793 -8.95058
240 1 3.14136 9.43433 12.5794 -8.95096
241 1 6.27894 9.43309 12.5815 -8.95531
242 1 9.39675 9.40333 12.6146 -8.86371
243 1 12.6502 9.38312 12.6467 -8.78064
244 1 15.7445 9.42638 12.5846 -8.96092
245 1 18.8744 9.43339 12.5795 -8.95309
246 1 -0.000211894 0.000158561 15.7245 -8.94952
247 1 1.5719 1.57219 17.2971 -8.94922
47 1 12.5794 9.43421 22.0131 -8.95198
249 1 4.71662 1.57203 17.2975 -8.94998
250 1 6.28915 0.000790437 15.7252 -8.95051
251 1 7.86199 1.57186 17.2974 -8.94943
252 1 9.43473 9.44019e-06 15.7251 -8.94932
253 1 11.007 1.57174 17.2975 -8.94956
254 1 12.5795 -0.000205834 15.725 -8.94923
255 1 14.152 1.57167 17.2974 -8.94943
256 1 15.7249 0.000254786 15.725 -8.95073
257 1 17.2975 1.57166 17.2975 -8.94969
46 1 9.43434 9.43441 22.0146 -8.94949
259 1 20.4417 1.57217 17.2969 -8.94957
260 1 22.0136 3.1443 15.7246 -8.94952
261 1 1.57182 4.71658 17.2973 -8.94988
262 1 3.14332 3.1435 15.7255 -8.94829
263 1 4.71504 4.71461 17.2993 -8.94898
264 1 6.2886 3.14262 15.7258 -8.95054
265 1 7.8615 4.71515 17.2987 -8.94898
266 1 9.43439 3.14279 15.7258 -8.94923
267 1 11.0069 4.71487 17.299 -8.9491
268 1 12.5797 3.1425 15.7258 -8.94896
269 1 14.1527 4.71468 17.2991 -8.94953
270 1 15.7261 3.14161 15.7261 -8.94999
271 1 17.2994 4.71401 17.2993 -8.94727
272 1 18.87 3.14385 15.7247 -8.94968
273 1 20.4424 4.71636 17.2974 -8.94956
274 1 22.0141 6.28895 15.7248 -8.9499
275 1 1.57118 7.86122 17.2978 -8.94983
276 1 3.14266 6.28828 15.7256 -8.95047
277 1 4.71278 7.85832 17.3014 -8.94476
278 1 6.28376 6.28232 15.7317 -8.94908
279 1 7.86046 7.85926 17.3027 -8.95298
280 1 9.43396 6.285 15.7296 -8.94707
281 1 11.0067 7.85854 17.3032 -8.94736
282 1 12.5806 6.28443 15.7304 -8.94861
283 1 14.1548 7.85812 17.3044 -8.95303
284 1 15.7326 6.28 15.7326 -8.94163
285 1 17.3018 7.85799 17.3017 -8.94519
286 1 18.8722 6.28746 15.726 -8.94975
287 1 20.4429 7.86119 17.2979 -8.94987
288 1 5.27233e-05 9.4341 15.7251 -8.95051
289 1 3.14064 9.43306 15.7266 -8.95096
290 1 6.27659 9.42367 15.7381 -8.93092
291 1 9.43456 9.43082 15.7358 -8.95264
292 1 12.5819 9.43022 15.7415 -8.96322
293 1 15.7388 9.42353 15.7391 -8.93248
294 1 18.8737 9.43313 15.7266 -8.95101
45 1 6.28909 9.43438 22.015 -8.94989
296 1 1.57212 1.57226 20.4417 -8.9493
297 1 3.14431 0.000358131 18.8696 -8.94948
298 1 4.71707 1.57224 20.4416 -8.94964
299 1 6.28959 0.000150393 18.8695 -8.94967
300 1 7.86198 1.57217 20.4417 -8.9495
338 1 3.14333 9.43387 18.8707 -8.94917
302 1 11.0069 1.57214 20.4417 -8.94954
337 1 22.0139 9.43423 18.8699 -8.9494
304 1 14.1519 1.57213 20.4417 -8.94949
305 1 15.7243 2.11789e-05 18.8694 -8.9497
306 1 17.2969 1.57213 20.4416 -8.9497
307 1 18.8696 0.000184574 18.8696 -8.94932
308 1 20.4418 1.57224 20.4417 -8.94916
309 1 22.014 3.14448 18.8694 -8.94959
310 1 1.5721 4.71683 20.4419 -8.94931
311 1 3.14406 3.14404 18.8699 -8.94929
312 1 4.71664 4.7165 20.442 -8.95005
313 1 6.28935 3.14405 18.8698 -8.9495
314 1 7.86172 4.71635 20.442 -8.94932
315 1 9.43436 3.14391 18.8699 -8.94941
316 1 11.0068 4.7162 20.4421 -8.9495
317 1 12.5795 3.14386 18.8699 -8.94936
318 1 14.1521 4.71623 20.442 -8.94944
319 1 15.7247 3.14383 18.8699 -8.94965
320 1 17.2975 4.71616 20.442 -8.94966
321 1 18.87 3.14389 18.8698 -8.94888
322 1 20.442 4.71672 20.4419 -8.94924
323 1 22.014 6.28908 18.8698 -8.9495
324 1 1.57201 7.86177 20.442 -8.94947
325 1 3.14346 6.28843 18.8706 -8.94836
326 1 4.71615 7.86129 20.4431 -8.94958
327 1 6.28857 6.28812 18.8714 -8.9508
328 1 7.86171 7.86144 20.443 -8.95039
329 1 9.43402 6.28788 18.8714 -8.94899
330 1 11.0067 7.86091 20.4431 -8.95011
331 1 12.5796 6.28782 18.8716 -8.94912
332 1 14.1524 7.86107 20.4429 -8.95098
333 1 15.7259 6.28753 18.8718 -8.95046
334 1 17.2981 7.86106 20.4429 -8.94953
335 1 18.8707 6.28822 18.8707 -8.94842
336 1 20.442 7.86175 20.442 -8.94949
29 1 22.014 6.28946 22.014 -8.94951
638 1 1.57196 11.0069 20.4421 -8.9495
514 1 7.88002 10.9888 10.9865 -8.83781
515 1 11.0958 10.7086 11.1021 -7.31867
27 1 18.8696 3.14425 22.0137 -8.94916
39 1 15.7253 6.28838 22.0131 -8.95021
593 1 14.1569 11.0055 17.3086 -8.95632
540 1 1.57029 11.0069 14.1526 -8.95122
541 1 4.70803 11.0057 14.1563 -8.95634
542 1 7.82735 10.9752 14.1914 -8.85673
543 1 11.0045 11.0093 14.1495 -8.96782
544 1 14.1901 10.9785 14.1935 -8.86342
545 1 17.3069 11.0062 14.1561 -8.95681
546 1 20.4436 11.0071 14.1524 -8.9514
33 1 6.28911 6.2891 22.0137 -8.95058
31 1 3.14437 6.28938 22.0142 -8.94967
591 1 7.85786 11.0049 17.3077 -8.95665
592 1 11.0067 11.0075 17.2996 -8.9441
5 1 6.28951 0.000155189 22.0137 -8.94948
15 1 22.0139 3.1446 22.0139 -8.94936
17 1 3.14439 3.1444 22.0137 -8.94952
23 1 12.5794 3.14421 22.0137 -8.94946
13 1 18.8694 0.00011905 22.0137 -8.94944
21 1 9.43437 3.14424 22.0137 -8.9495
43 1 22.014 9.4344 22.014 -8.94954
49 1 18.87 9.43428 22.014 -8.94939
688 3 10.1448 11.036 9.38461 2.38169
511 1 18.8703 18.8701 9.43436 -8.94921
510 1 15.7272 18.8725 9.43381 -8.9489
509 1 12.5817 18.8782 9.43117 -8.95868
508 1 9.43266 18.8802 9.43118 -8.95794
349 1 17.2985 11.0069 1.57128 -8.94936
507 1 6.28472 18.8764 9.43342 -8.94864
539 1 20.4417 20.442 11.007 -8.9495
352 1 1.57214 14.1518 1.57219 -8.94942
353 1 3.1442 12.5794 0.000295947 -8.94949
354 1 4.7166 14.1515 1.57217 -8.94965
153 1 15.7253 22.0146 9.43447 -8.9496
356 1 7.8616 14.1518 1.57087 -8.95261
150 1 6.28835 22.0153 9.43438 -8.95017
358 1 11.0066 14.1525 1.56956 -8.95027
345 1 4.71654 11.0068 1.57226 -8.9496
360 1 14.1537 14.1533 1.56878 -8.95166
361 1 15.7257 12.5798 -0.000310801 -8.94961
362 1 17.2984 14.1526 1.57125 -8.94916
107 1 12.5799 22.0153 6.28857 -8.94999
364 1 20.4421 14.152 1.57207 -8.94944
365 1 22.014 15.7244 7.77926e-05 -8.9495
366 1 1.57202 17.2969 1.57209 -8.94977
105 1 9.43435 22.0154 6.2883 -8.94978
368 1 4.71595 17.2976 1.57102 -8.94972
529 1 11.0071 17.299 11.0018 -9.01397
370 1 7.86147 17.2978 1.57041 -8.94974
371 1 9.43433 15.725 -0.000850727 -8.94984
372 1 11.007 17.2981 1.57025 -8.94973
373 1 12.5794 15.725 -0.00110981 -8.9499
374 1 14.1527 17.2981 1.57032 -8.95034
526 1 1.56993 17.2982 11.007 -8.94931
376 1 17.2982 17.298 1.57128 -8.94833
525 1 20.4415 14.1518 11.0069 -8.94929
378 1 20.442 17.2971 1.57213 -8.94947
111 1 18.8696 22.0142 6.28938 -8.94961
380 1 1.57189 20.4419 1.57205 -8.94922
495 1 12.5449 12.5725 9.45119 -8.82969
382 1 4.71665 20.4421 1.57159 -8.94961
383 1 6.28934 18.8697 -0.000412883 -8.94976
384 1 7.86182 20.4422 1.57152 -8.94935
494 1 9.36373 12.8535 9.46179 -7.95304
386 1 11.007 20.4422 1.57151 -8.94945
493 1 6.28703 12.5895 9.43864 -8.97042
388 1 14.1522 20.4422 1.57159 -8.94936
389 1 15.7247 18.8698 -0.000484016 -8.94992
390 1 17.2974 20.4422 1.57164 -8.94942
391 1 18.8697 18.8697 -1.3278e-05 -8.94919
392 1 20.4416 20.4417 1.57225 -8.94962
506 1 3.14214 18.8712 9.43414 -8.94895
394 1 4.7162 11.0068 4.71608 -8.94592
505 1 22.0134 18.8699 9.43434 -8.94947
504 1 18.8712 15.7248 9.43458 -8.95253
503 1 15.7346 15.7298 9.43049 -8.95633
398 1 17.3017 11.007 4.71441 -8.94835
399 1 20.4428 11.0069 4.71646 -8.94984
400 1 0.00021189 12.5794 3.1443 -8.94953
401 1 1.57175 14.1516 4.71662 -8.94975
402 1 3.14409 12.5791 3.14415 -8.94905
403 1 4.71501 14.1512 4.71562 -8.95118
404 1 6.28923 12.5781 3.14459 -8.94914
405 1 7.85671 14.1562 4.70737 -8.95542
406 1 9.43507 12.579 3.14498 -8.94832
407 1 11.0074 14.1559 4.70729 -8.95182
408 1 12.5824 12.5806 3.13689 -8.95809
409 1 14.1653 14.163 4.70336 -8.92944
410 1 15.7285 12.5807 3.14072 -8.94751
411 1 17.3016 14.1538 4.71464 -8.95004
412 1 18.871 12.5797 3.1437 -8.94926
413 1 20.4426 14.1521 4.71658 -8.9501
414 1 22.014 15.7244 3.14439 -8.94975
415 1 1.57081 17.2974 4.71617 -8.94973
416 1 3.14372 15.7243 3.14387 -8.95025
417 1 4.71239 17.3006 4.71241 -8.94507
418 1 6.28686 15.7262 3.14027 -8.95048
419 1 7.85906 17.3015 4.71064 -8.95074
420 1 9.43372 15.7265 3.13975 -8.94985
421 1 11.0073 17.3018 4.71064 -8.94727
422 1 12.5806 15.7267 3.13916 -8.95169
423 1 14.1567 17.303 4.71025 -8.95138
424 1 15.7287 15.7281 3.14032 -8.9444
425 1 17.2985 17.2977 4.71613 -8.95101
426 1 18.8708 15.7251 3.14382 -8.94942
427 1 20.4417 17.297 4.71688 -8.94988
428 1 22.0135 18.8694 3.14441 -8.94962
429 1 1.57151 20.4422 4.71655 -8.94942
430 1 3.14323 18.8703 3.14333 -8.94845
431 1 4.71506 20.4438 4.71501 -8.94824
432 1 6.28822 18.871 3.14226 -8.9498
433 1 7.86127 20.4437 4.71518 -8.94915
434 1 9.4341 18.8711 3.14229 -8.94902
435 1 11.0072 20.4437 4.71518 -8.94939
436 1 12.58 18.8712 3.14238 -8.94882
437 1 14.153 20.4437 4.71553 -8.95016
438 1 15.7262 18.8715 3.14233 -8.9495
439 1 17.2982 20.4429 4.71591 -8.94805
440 1 18.8698 18.8696 3.14435 -8.95005
441 1 20.4418 20.442 4.71679 -8.94948
502 1 12.6179 15.7639 9.38624 -8.8271
501 1 9.38913 15.7682 9.38956 -8.90542
500 1 6.26879 15.7405 9.42928 -8.9487
499 1 3.13843 15.7266 9.4342 -8.95176
498 1 -0.00115009 15.7247 9.43439 -8.95064
497 1 18.8694 12.5798 9.4345 -8.94598
496 1 15.7182 12.5789 9.43691 -8.9349
449 1 22.0141 12.5793 6.28915 -8.94993
450 1 1.56992 14.1518 7.86158 -8.95161
451 1 3.14352 12.5783 6.289 -8.94971
452 1 4.70674 14.1545 7.85964 -8.95802
453 1 6.28714 12.5762 6.28977 -8.94907
454 1 7.81992 14.1883 7.82671 -8.8509
455 1 9.42504 12.602 6.29254 -8.90279
456 1 11.0233 14.1709 7.8333 -8.93178
457 1 12.6203 12.6144 6.25452 -8.84496
458 1 14.1565 14.1493 7.86139 -8.95148
459 1 15.7364 12.5821 6.28416 -8.95434
460 1 17.2987 14.1514 7.86264 -8.94941
461 1 18.8723 12.5797 6.28884 -8.95172
462 1 20.4418 14.1519 7.86191 -8.9497
463 1 22.0131 15.7245 6.28913 -8.9501
464 1 1.57 17.2978 7.86134 -8.95029
465 1 3.14024 15.7257 6.2874 -8.95085
466 1 4.70907 17.3026 7.85804 -8.94834
467 1 6.2755 15.7364 6.27595 -8.93108
468 1 7.84533 17.3189 7.8462 -8.93631
469 1 9.43139 15.7358 6.27518 -8.96098
470 1 11.0067 17.3098 7.85084 -8.94376
471 1 12.5884 15.7384 6.27217 -8.96448
472 1 14.1662 17.3114 7.84824 -8.92526
473 1 15.728 15.7255 6.28778 -8.95297
474 1 17.3015 17.2994 7.85995 -8.95064
475 1 18.8703 15.7244 6.28947 -8.94975
476 1 20.4421 17.2973 7.86172 -8.95064
477 1 -0.000470843 18.8697 6.28915 -8.9499
478 1 1.57148 20.4422 7.86178 -8.9494
479 1 3.14191 18.8712 6.28787 -8.94917
480 1 4.71505 20.4439 7.86113 -8.94936
481 1 6.28347 18.8769 6.2835 -8.94524
482 1 7.86011 20.4473 7.86004 -8.9531
483 1 9.43335 18.8754 6.2848 -8.94795
484 1 11.0072 20.4463 7.8598 -8.94927
485 1 12.5813 18.875 6.28545 -8.95017
486 1 14.1539 20.4457 7.86037 -8.95155
487 1 15.7291 18.874 6.2854 -8.9435
488 1 17.298 20.4427 7.86165 -8.94962
489 1 18.8708 18.8703 6.2887 -8.94956
490 1 20.4417 20.442 7.86191 -8.94948
491 1 22.0135 12.5793 9.43423 -8.94893
492 1 3.14299 12.5789 9.43443 -8.9492
519 1 1.56947 14.1519 11.0071 -8.9517
520 1 4.70528 14.1555 11.0106 -8.96084
522 1 11.0173 14.4363 10.9379 -8.01374
523 1 14.151 14.1659 10.994 -8.92605
524 1 17.2969 14.1511 11.0072 -8.94951
393 1 1.57196 11.0068 4.71645 -8.94945
54 1 6.2892 22.0144 3.14387 -8.94947
60 1 15.7249 22.0143 3.14402 -8.94991
99 1 22.0137 22.0141 6.28946 -8.94953
101 1 3.14379 22.0144 6.28909 -8.94945
527 1 4.71024 17.3027 11.0079 -8.94578
534 1 4.7152 20.4439 11.0073 -8.94914
687 3 10.9814 12.6071 11.7204 2.29779
686 1 20.4417 20.4418 20.4418 -8.94915
685 1 18.8701 18.8702 18.87 -8.9486
684 1 17.297 20.4419 20.4417 -8.94984
683 1 15.7246 18.87 18.87 -8.95044
682 1 14.1519 20.4419 20.4416 -8.94939
681 1 12.5795 18.8699 18.8698 -8.94897
303 1 12.5795 22.014 18.8695 -8.94952
301 1 9.43453 22.014 18.8695 -8.94954
521 1 7.81141 14.2149 11.0358 -8.8025
387 1 12.5796 18.8699 22.0134 -8.94948
207 1 15.7251 22.0143 12.5797 -8.94943
201 1 6.2886 22.015 12.5801 -8.95054
385 1 9.43442 18.8699 22.0134 -8.94952
197 1 22.0137 22.0141 12.5795 -8.94953
590 1 4.71315 11.0058 17.301 -8.94759
528 1 7.8535 17.3153 11.0087 -8.95833
661 1 3.14344 15.7249 18.8706 -8.94924
530 1 14.157 17.304 11.0061 -8.94855
531 1 17.2997 17.2988 11.0069 -8.94767
660 1 1.57201 17.297 20.442 -8.94958
533 1 1.57149 20.4423 11.007 -8.94943
589 1 1.57108 11.0067 17.298 -8.94935
535 1 7.86082 20.4463 11.0075 -8.95231
536 1 11.0073 20.4434 11.007 -8.94764
537 1 14.1532 20.4439 11.0072 -8.94991
538 1 17.2978 20.4425 11.0071 -8.94938
659 1 22.0138 15.7246 18.8698 -8.94936
680 1 11.007 20.442 20.4416 -8.94954
679 1 9.43467 18.87 18.8699 -8.94904
678 1 7.86204 20.442 20.4416 -8.94941
677 1 6.28932 18.8703 18.8703 -8.95036
676 1 4.71695 20.442 20.4418 -8.94981
675 1 3.14345 18.8705 18.8706 -8.94831
674 1 1.57201 20.442 20.4418 -8.94913
547 1 22.0136 12.5794 12.5794 -8.94863
548 1 1.57017 14.1518 14.1524 -8.9512
549 1 3.14289 12.5784 12.58 -8.94608
550 1 4.70792 14.1526 14.1559 -8.9597
551 1 6.29171 12.5763 12.5857 -8.99793
552 1 7.82385 14.1851 14.1965 -8.87339
553 1 9.21397 12.5842 12.6562 -8.133
554 1 11.006 14.141 14.1286 -8.91622
555 1 12.7674 12.5555 12.6437 -8.18799
556 1 14.1808 14.1734 14.183 -8.88132
557 1 15.7242 12.5776 12.5841 -8.9923
558 1 17.3037 14.153 14.1546 -8.95677
559 1 18.8707 12.5796 12.5796 -8.94748
560 1 20.4428 14.1521 14.1522 -8.95099
561 1 22.0127 15.7249 12.5795 -8.95075
562 1 1.56992 17.2981 14.1529 -8.94975
563 1 3.13785 15.7271 12.5813 -8.95189
564 1 4.7095 17.3033 14.1575 -8.94313
565 1 6.2671 15.7425 12.5941 -8.92867
566 1 7.85427 17.3097 14.161 -8.94981
567 1 9.40741 15.7408 12.6019 -8.88922
568 1 11.0078 17.296 14.1516 -8.94295
569 1 12.6092 15.7365 12.6016 -8.87608
570 1 14.16 17.3066 14.1595 -8.94728
571 1 15.7317 15.7265 12.5796 -8.95579
572 1 17.2997 17.2986 14.1528 -8.95057
573 1 18.8711 15.725 12.5792 -8.951
574 1 20.4419 17.2974 14.1521 -8.94999
575 1 -0.000553763 18.8699 12.5796 -8.94945
576 1 1.57154 20.4423 14.1522 -8.9494
577 1 3.14223 18.8713 12.5802 -8.94897
578 1 4.71543 20.4439 14.1532 -8.94943
579 1 6.2854 18.876 12.582 -8.94945
580 1 7.86174 20.4444 14.153 -8.95227
581 1 9.43465 18.8735 12.5804 -8.95188
582 1 11.0074 20.442 14.1526 -8.94821
583 1 12.5804 18.8715 12.5796 -8.95288
584 1 14.1525 20.4433 14.1526 -8.9525
585 1 15.7265 18.8715 12.58 -8.94772
586 1 17.2976 20.4424 14.1522 -8.94927
587 1 18.8701 18.8701 12.5796 -8.94925
588 1 20.4417 20.442 14.152 -8.94943
673 1 22.0138 18.8696 18.8696 -8.94959
672 1 20.4419 17.2971 20.4419 -8.94946
671 1 18.8703 15.7251 18.8703 -8.94913
670 1 17.2977 17.2978 20.4423 -8.94954
669 1 15.7261 15.7262 18.8723 -8.95048
668 1 14.1519 17.2974 20.4417 -8.94992
667 1 12.5788 15.7249 18.8702 -8.95015
596 1 -0.000137562 12.5795 15.7253 -8.95018
597 1 1.57108 14.1522 17.298 -8.94924
598 1 3.14052 12.5794 15.7271 -8.94903
599 1 4.71332 14.153 17.3009 -8.94761
600 1 6.27928 12.579 15.7354 -8.94203
601 1 7.85792 14.1546 17.3082 -8.95837
602 1 9.42602 12.5802 15.7345 -8.97003
603 1 11.0069 14.1513 17.2948 -8.93918
604 1 12.5863 12.5787 15.7332 -8.96794
605 1 14.1555 14.1541 17.3052 -8.95587
606 1 15.7345 12.5804 15.7348 -8.94132
607 1 17.3003 14.1536 17.3001 -8.94761
608 1 18.8731 12.58 15.7268 -8.94929
609 1 20.4426 14.1524 17.2978 -8.9493
610 1 22.0136 15.7247 15.7249 -8.95046
611 1 1.57111 17.2976 17.2978 -8.95011
612 1 3.14068 15.7258 15.7266 -8.95187
613 1 4.71282 17.3011 17.3018 -8.94509
614 1 6.27631 15.7369 15.7398 -8.93315
615 1 7.86214 17.2987 17.2997 -8.95183
616 1 9.43729 15.7253 15.7291 -8.9548
617 1 11.0074 17.2984 17.2985 -8.94686
618 1 12.5775 15.7236 15.7276 -8.95716
619 1 14.152 17.298 17.2988 -8.95227
620 1 15.7338 15.7331 15.734 -8.93585
621 1 17.2998 17.2999 17.2998 -8.94609
622 1 18.872 15.7258 15.7258 -8.95089
623 1 20.4423 17.2975 17.2975 -8.94988
624 1 22.0134 18.8698 15.7247 -8.94956
625 1 1.57167 20.4422 17.2973 -8.94919
626 1 3.14233 18.8713 15.7262 -8.94801
627 1 4.71605 20.4432 17.2981 -8.94937
628 1 6.28662 18.8744 15.7282 -8.94932
629 1 7.86233 20.4422 17.2974 -8.94959
630 1 9.43553 18.8703 15.7255 -8.94869
631 1 11.0071 20.4421 17.2974 -8.94964
632 1 12.5792 18.8697 15.725 -8.94853
633 1 14.1518 20.4419 17.2972 -8.9496
634 1 15.7271 18.8732 15.7272 -8.94871
635 1 17.2977 20.4428 17.2978 -8.94921
636 1 18.8701 18.8702 15.7248 -8.94994
637 1 20.4417 20.442 17.297 -8.94963
666 1 11.007 17.2977 20.4418 -8.94957
639 1 4.71602 11.0067 20.4431 -8.94932
665 1 9.43525 15.7251 18.8707 -8.95008
664 1 7.86206 17.2974 20.442 -8.94985
663 1 6.28746 15.7264 18.8738 -8.95131
643 1 17.2981 11.0068 20.4428 -8.94924
662 1 4.71614 17.2978 20.4428 -8.94997
645 1 22.0139 12.5795 18.8699 -8.94947
646 1 1.57196 14.152 20.442 -8.94947
647 1 3.14331 12.5794 18.8707 -8.9494
648 1 4.71609 14.1521 20.4431 -8.94923
649 1 6.28708 12.5795 18.8738 -8.94885
650 1 7.86155 14.1522 20.4439 -8.9521
651 1 9.43445 12.5798 18.8726 -8.95059
652 1 11.0068 14.1524 20.4415 -8.94791
653 1 12.5794 12.5799 18.872 -8.95093
654 1 14.1524 14.1525 20.4429 -8.95169
655 1 15.727 12.5801 18.8733 -8.94891
656 1 17.298 14.1525 20.4426 -8.94913
657 1 18.8706 12.5797 18.8705 -8.94942
658 1 20.442 14.1521 20.442 -8.94948
351 1 22.014 12.5794 22.014 -8.94954
355 1 6.28892 12.5792 22.0149 -8.94969
357 1 9.4344 12.5793 22.0146 -8.94901
359 1 12.5795 12.5796 22.013 -8.95106
363 1 18.87 12.5795 22.0139 -8.94945
367 1 3.14427 15.7244 22.0142 -8.94959
369 1 6.2889 15.7248 22.014 -8.95104
375 1 15.7254 15.7253 22.0133 -8.95022
377 1 18.8699 15.7247 22.0139 -8.94938
381 1 3.14415 18.8697 22.0139 -8.94945
248 1 3.14392 22.0143 15.725 -8.94942
258 1 18.8695 22.014 15.7245 -8.9496
295 1 22.0138 22.014 18.8693 -8.94937
595 1 20.4428 11.0068 17.298 -8.94937
594 1 17.301 11.0063 17.3009 -8.94776
532 1 20.4419 17.2976 11.0069 -8.94966
379 1 22.0139 18.8693 22.0139 -8.94956
