ITEM: TIMESTEP
77
ITEM: NUMBER OF ATOMS
688
ITEM: BOX BOUNDS pp pp pp
0.0000000000000000e+00 2.2013900999999997e+01
0.0000000000000000e+00 2.2013900999999997e+01
0.0000000000000000e+00 2.2013900999999997e+01
ITEM: ATOMS id type x y z c_pot
1 1 22.0138 4.9691e-05 9.72675e-06 -8.94932
2 1 1.57215 1.57231 1.57215 -8.94919
3 1 3.14469 9.62658e-05 -8.85747e-05 -8.94966
4 1 4.71707 1.57228 1.57209 -8.94966
448 1 20.4424 11.0071 7.86195 -8.94945
6 1 7.862 1.57225 1.57206 -8.94952
175 1 18.8719 9.43399 9.43411 -8.9509
8 1 11.007 1.57222 1.57203 -8.94956
174 1 15.7343 9.42802 9.42813 -8.94485
10 1 14.1519 1.57221 1.57209 -8.94952
11 1 15.7243 7.8076e-05 -0.000107031 -8.94956
12 1 17.297 1.57215 1.57209 -8.94954
7 1 9.4345 0.000107514 -0.000129666 -8.94958
14 1 20.4416 1.57234 1.5723 -8.94945
447 1 17.3002 11.008 7.8623 -8.95157
16 1 1.5722 4.71711 1.57223 -8.94979
446 1 14.1636 11.0112 7.85209 -8.97692
18 1 4.71647 4.71652 1.57134 -8.94951
445 1 11.1032 11.0055 7.64227 -8.12299
20 1 7.86176 4.7165 1.57153 -8.9491
56 1 9.43448 0.000288623 3.14415 -8.94951
22 1 11.0069 4.71634 1.57151 -8.94937
444 1 7.88706 11.013 7.87609 -8.87158
24 1 14.1522 4.71625 1.57147 -8.94966
443 1 4.72044 11.0077 7.86329 -8.94058
26 1 17.2978 4.71609 1.57138 -8.94826
442 1 1.57216 11.0069 7.86164 -8.94755
28 1 20.4418 4.71698 1.57221 -8.94958
397 1 14.1618 11.0077 4.70709 -8.94255
30 1 1.57225 7.86204 1.57226 -8.94943
396 1 11.0121 11.0075 4.72063 -9.00157
32 1 4.71691 7.86224 1.57227 -8.94986
395 1 7.86534 11.0076 4.72129 -8.94619
34 1 7.86171 7.86184 1.57097 -8.95214
35 1 9.43417 6.28885 -0.000359143 -8.94949
36 1 11.0064 7.86101 1.57018 -8.95044
37 1 12.5794 6.28884 -0.000420381 -8.94956
38 1 14.1533 7.86051 1.56898 -8.95198
518 1 20.4426 11.0072 11.0067 -8.94965
40 1 17.2978 7.86153 1.57158 -8.94945
350 1 20.4419 11.0069 1.57216 -8.94954
42 1 20.4419 7.86196 1.57219 -8.94946
58 1 12.5796 0.000273557 3.14419 -8.94947
44 1 3.1444 9.4344 0.000140237 -8.94947
348 1 14.1537 11.007 1.56929 -8.94965
347 1 11.0067 11.007 1.57181 -8.94656
346 1 7.86187 11.0069 1.57299 -8.94835
48 1 15.7252 9.4341 -0.000175686 -8.94983
149 1 3.14411 0.000287565 9.43447 -8.94944
50 1 -9.9071e-05 0.000103856 3.14467 -8.94951
51 1 1.57207 1.57228 4.71703 -8.94961
52 1 3.14426 0.00024881 3.14424 -8.94919
53 1 4.71642 1.57197 4.71639 -8.94988
517 1 17.301 11.007 11.0066 -8.95371
55 1 7.86188 1.572 4.71644 -8.94942
173 1 12.5986 9.40835 9.38738 -8.83444
57 1 11.0071 1.57194 4.71639 -8.94948
172 1 9.36982 9.19782 9.44043 -8.12612
59 1 14.1523 1.57184 4.71663 -8.95031
516 1 14.1686 10.9797 10.9964 -8.93508
61 1 17.2972 1.57228 4.7169 -8.94959
62 1 18.8694 0.000173698 3.14456 -8.9493
63 1 20.4416 1.57233 4.71714 -8.94961
64 1 22.0137 3.14457 3.14457 -8.94948
65 1 1.57139 4.71657 4.71652 -8.94957
66 1 3.14391 3.14411 3.1439 -8.94841
67 1 4.71397 4.71422 4.71397 -8.9451
68 1 6.28925 3.14406 3.14396 -8.94961
69 1 7.86112 4.71468 4.71514 -8.94892
70 1 9.4344 3.14395 3.14393 -8.94941
71 1 11.0071 4.71445 4.715 -8.94797
72 1 12.5795 3.14385 3.14398 -8.9492
73 1 14.1542 4.71287 4.71449 -8.95008
74 1 15.7251 3.14351 3.14387 -8.94953
75 1 17.2982 4.71577 4.7162 -8.94893
76 1 18.8695 3.14444 3.14449 -8.94946
77 1 20.4418 4.71679 4.7169 -8.9496
78 1 22.014 6.28956 3.14459 -8.94985
79 1 1.57202 7.86222 4.7169 -8.94983
80 1 3.14415 6.28954 3.14422 -8.95042
81 1 4.7158 7.86247 4.71615 -8.95209
82 1 6.28751 6.28776 3.14134 -8.95015
83 1 7.85726 7.85733 4.70869 -8.95445
84 1 9.43375 6.28763 3.14212 -8.94771
85 1 11.0067 7.85732 4.70856 -8.95057
86 1 12.58 6.2873 3.1416 -8.94917
87 1 14.1651 7.84929 4.70257 -8.93102
88 1 15.7283 6.2856 3.1405 -8.94461
89 1 17.3008 7.86029 4.71497 -8.95153
90 1 18.8704 6.28891 3.14402 -8.94987
91 1 20.4423 7.86189 4.71684 -8.95018
92 1 0.000102192 9.43443 3.14446 -8.94952
93 1 3.14427 9.43451 3.14427 -8.94896
94 1 6.2896 9.43546 3.1447 -8.94958
95 1 9.43491 9.43472 3.14393 -8.95102
96 1 12.5818 9.4332 3.13585 -8.96086
97 1 15.7275 9.43352 3.14144 -8.94786
98 1 18.8704 9.43427 3.14402 -8.94917
513 1 4.71879 11.0072 11.0067 -8.94322
100 1 1.57202 1.57224 7.86199 -8.94953
189 1 20.4418 4.71659 11.0069 -8.9495
102 1 4.71631 1.57185 7.86175 -8.94938
103 1 6.28871 0.00117339 6.28868 -8.95066
104 1 7.86173 1.57182 7.86175 -8.95163
171 1 6.28052 9.42475 9.4317 -8.96614
106 1 11.007 1.57233 7.86169 -8.94996
170 1 3.14228 9.43487 9.43421 -8.95204
108 1 14.1524 1.57217 7.86184 -8.9504
109 1 15.7251 0.000891561 6.28904 -8.94988
110 1 17.2972 1.57216 7.86197 -8.94952
188 1 17.2983 4.71546 11.0067 -8.9487
112 1 20.4416 1.5723 7.86203 -8.94956
113 1 -0.000204069 3.14453 6.28952 -8.9495
114 1 1.57135 4.71648 7.86176 -8.94927
115 1 3.14385 3.144 6.28914 -8.94937
116 1 4.71438 4.71438 7.86088 -8.94811
117 1 6.28824 3.14222 6.28826 -8.95146
118 1 7.85967 4.71024 7.86082 -8.95849
119 1 9.43447 3.14259 6.28845 -8.95009
120 1 11.0063 4.71395 7.86119 -8.95135
121 1 12.5797 3.14253 6.28892 -8.952
122 1 14.1535 4.71346 7.86133 -8.95064
123 1 15.7251 3.14354 6.2892 -8.94988
124 1 17.2981 4.71565 7.86163 -8.94913
125 1 18.8695 3.14436 6.28948 -8.94951
126 1 20.4418 4.71668 7.8619 -8.94945
127 1 22.0135 6.28923 6.28924 -8.95025
128 1 1.57049 7.86177 7.86164 -8.9519
129 1 3.14135 6.28796 6.28779 -8.95043
130 1 4.70775 7.8584 7.85895 -8.95669
131 1 6.27857 6.27911 6.27912 -8.93146
132 1 7.82478 7.82874 7.83117 -8.85719
133 1 9.43347 6.28189 6.28501 -8.94929
134 1 11.0219 7.85016 7.83697 -8.89717
135 1 12.5851 6.27841 6.2824 -8.95292
136 1 14.1668 7.84981 7.85255 -8.93299
137 1 15.7293 6.28508 6.28635 -8.94612
138 1 17.3023 7.85918 7.86013 -8.94945
139 1 18.8709 6.28853 6.28887 -8.94935
140 1 20.4425 7.86161 7.86174 -8.95063
141 1 22.014 9.43459 6.28933 -8.94973
142 1 3.14396 9.4354 6.28928 -8.94977
143 1 6.28824 9.43819 6.28986 -8.95452
144 1 9.42373 9.41541 6.28577 -8.91056
145 1 12.6218 9.3992 6.24596 -8.86869
146 1 15.735 9.4324 6.2848 -8.95994
147 1 18.8716 9.43454 6.28919 -8.95159
148 1 -0.000129996 0.000114504 9.4345 -8.94958
169 1 22.0138 9.43456 9.43433 -8.95007
168 1 18.8708 6.28831 9.43418 -8.94899
151 1 9.43464 0.00190873 9.43441 -8.95073
152 1 12.5797 0.00149938 9.43443 -8.95118
167 1 15.7281 6.28505 9.43348 -8.9464
166 1 12.5803 6.28364 9.43219 -8.95411
155 1 22.0137 3.14447 9.43447 -8.94954
156 1 3.14374 3.1439 9.43442 -8.94945
157 1 6.28779 3.14182 9.43438 -8.94958
158 1 9.43442 3.14365 9.4344 -8.9472
159 1 12.5797 3.14312 9.4343 -8.95012
160 1 15.7253 3.14333 9.43435 -8.94958
161 1 18.8696 3.14425 9.43442 -8.94947
162 1 -0.000474051 6.28899 9.43433 -8.94973
163 1 3.14128 6.28767 9.43419 -8.94874
164 1 6.2809 6.28054 9.4343 -8.94389
165 1 9.43133 6.29075 9.43516 -9.00369
344 1 1.57219 11.0069 1.57219 -8.9496
183 1 1.57129 4.71638 11.0071 -8.94932
181 1 17.2973 1.57209 11.007 -8.94951
154 1 18.8694 0.000166231 9.43449 -8.94953
177 1 4.71624 1.57177 11.0071 -8.94937
9 1 12.5794 0.00010258 -0.000124544 -8.94958
184 1 4.71412 4.71405 11.0077 -8.94775
512 1 1.57179 11.007 11.007 -8.9478
41 1 18.8696 6.28931 6.12927e-05 -8.94955
19 1 6.28953 3.14453 -0.000162995 -8.94947
25 1 15.7244 3.14445 -0.000153192 -8.94965
176 1 1.572 1.57224 11.007 -8.94955
199 1 3.14413 0.000295577 12.5796 -8.94941
178 1 7.86175 1.57147 11.0072 -8.95159
179 1 11.007 1.57181 11.007 -8.94914
180 1 14.1524 1.57186 11.007 -8.94986
644 1 20.4418 11.0069 20.4418 -8.94956
182 1 20.4416 1.57228 11.0069 -8.94958
642 1 14.1525 11.007 20.4434 -8.95185
209 1 18.8694 0.000165462 12.5794 -8.94953
185 1 7.85956 4.70921 11.0082 -8.95875
186 1 11.0069 4.71355 11.0073 -8.95183
187 1 14.1535 4.71355 11.0064 -8.94943
641 1 11.0067 11.0069 20.4428 -8.94816
640 1 7.86158 11.0068 20.4439 -8.95116
190 1 1.57025 7.86148 11.0068 -8.95133
191 1 4.70748 7.85806 11.0083 -8.95599
192 1 7.82472 7.82519 11.0409 -8.86059
193 1 11.0308 7.84854 11.0341 -8.96623
194 1 14.1614 7.85227 11.0045 -8.95867
195 1 17.3015 7.85928 11.0058 -8.94771
196 1 20.4426 7.86135 11.0066 -8.94982
343 1 18.8702 9.43413 18.8702 -8.94927
198 1 1.57203 1.57224 14.152 -8.94957
342 1 15.7265 9.43303 18.8733 -8.95053
200 1 4.71634 1.57173 14.1525 -8.94985
341 1 12.5792 9.43378 18.8733 -8.95239
202 1 7.86194 1.5716 14.1525 -8.95031
203 1 9.43479 0.000482524 12.5799 -8.94995
204 1 11.0071 1.57135 14.1526 -8.94932
205 1 12.5795 0.000120347 12.5796 -8.95011
206 1 14.1523 1.57113 14.1523 -8.95122
340 1 9.43466 9.43384 18.8725 -8.95029
208 1 17.2972 1.57208 14.1519 -8.94959
339 1 6.28769 9.433 18.8731 -8.95058
210 1 20.4416 1.5723 14.1519 -8.94955
211 1 -0.000205529 3.14447 12.5795 -8.9495
212 1 1.57126 4.7164 14.1524 -8.94964
213 1 3.14373 3.14386 12.5798 -8.94931
214 1 4.7134 4.71332 14.155 -8.94476
215 1 6.288 3.14154 12.5806 -8.95133
216 1 7.86077 4.71223 14.1543 -8.95181
217 1 9.43473 3.14187 12.5804 -8.95023
218 1 11.0072 4.71317 14.1546 -8.9468
219 1 12.5798 3.14135 12.5799 -8.95291
220 1 14.1554 4.70964 14.1554 -8.95182
221 1 15.7252 3.14323 12.5794 -8.94957
222 1 17.2985 4.71525 14.1523 -8.94979
223 1 18.8696 3.14425 12.5794 -8.94938
224 1 20.4418 4.71667 14.152 -8.94969
225 1 22.0135 6.28904 12.5795 -8.95005
226 1 1.57126 7.86167 14.1521 -8.94988
227 1 3.14098 6.28764 12.5807 -8.95071
228 1 4.71262 7.86023 14.1537 -8.95143
229 1 6.27715 6.27692 12.5899 -8.93023
230 1 7.84942 7.8456 14.1691 -8.9544
231 1 9.43421 6.27968 12.5852 -8.95201
232 1 11.0075 7.85581 14.1635 -8.94646
233 1 12.5879 6.27373 12.5882 -8.95363
234 1 14.1745 7.83697 14.1744 -8.92151
235 1 15.7293 6.28472 12.5799 -8.94989
236 1 17.3043 7.85799 14.1549 -8.95095
237 1 18.8709 6.2884 12.5793 -8.94953
238 1 20.4432 7.86135 14.1522 -8.95038
239 1 22.014 9.43431 12.5793 -8.95053
240 1 3.14153 9.43438 12.5794 -8.95073
241 1 6.27935 9.43344 12.5809 -8.9552
242 1 9.39754 9.40492 12.6136 -8.8641
243 1 12.6502 9.38326 12.6466 -8.7779
244 1 15.7438 9.4271 12.5841 -8.96084
245 1 18.8739 9.43358 12.5794 -8.95296
246 1 -0.000109707 9.91313e-05 15.7243 -8.94958
247 1 1.5721 1.57227 17.2969 -8.9493
47 1 12.5794 9.43424 22.0131 -8.95187
249 1 4.71686 1.57216 17.2972 -8.94994
250 1 6.28932 0.000645924 15.7249 -8.95041
251 1 7.86204 1.57205 17.2972 -8.94947
252 1 9.43467 8.7058e-05 15.7248 -8.94937
253 1 11.007 1.57198 17.2972 -8.94961
254 1 12.5794 -3.19816e-05 15.7248 -8.94929
255 1 14.1519 1.57195 17.2971 -8.94948
256 1 15.7247 0.000327669 15.7248 -8.95061
257 1 17.2972 1.57192 17.2972 -8.94969
46 1 9.43433 9.43439 22.0143 -8.94954
259 1 20.4416 1.57228 17.2968 -8.94961
260 1 22.0137 3.14451 15.7245 -8.94955
261 1 1.57203 4.71684 17.2971 -8.94987
262 1 3.14373 3.14384 15.7252 -8.94839
263 1 4.71556 4.71518 17.2987 -8.94903
264 1 6.28893 3.14313 15.7254 -8.95049
265 1 7.86174 4.71567 17.2982 -8.94902
266 1 9.43443 3.14324 15.7254 -8.94928
267 1 11.0069 4.71539 17.2984 -8.94916
268 1 12.5795 3.14305 15.7254 -8.94904
269 1 14.1523 4.71534 17.2984 -8.94958
270 1 15.7256 3.1423 15.7256 -8.95002
271 1 17.2988 4.7147 17.2987 -8.94738
272 1 18.8696 3.14421 15.7245 -8.9497
273 1 20.4421 4.71669 17.2971 -8.94959
274 1 22.014 6.2892 15.7246 -8.94984
275 1 1.57143 7.86144 17.2975 -8.94981
276 1 3.1432 6.28869 15.7252 -8.95042
277 1 4.71341 7.8588 17.3007 -8.9448
278 1 6.28463 6.28326 15.7306 -8.94919
279 1 7.86086 7.85974 17.3017 -8.95283
280 1 9.4341 6.28569 15.7286 -8.94711
281 1 11.0066 7.85894 17.3023 -8.94725
282 1 12.5801 6.28519 15.7293 -8.94862
283 1 14.1542 7.85865 17.3034 -8.95293
284 1 15.7316 6.28099 15.7315 -8.94167
285 1 17.3009 7.85856 17.3009 -8.9452
286 1 18.8715 6.288 15.7255 -8.94976
287 1 20.4426 7.86144 17.2975 -8.94986
288 1 1.51284e-05 9.43419 15.7248 -8.95045
289 1 3.14117 9.43326 15.7261 -8.95094
290 1 6.2773 9.42407 15.7372 -8.93061
291 1 9.43489 9.43126 15.735 -8.95245
292 1 12.5814 9.43052 15.7409 -8.96293
293 1 15.7379 9.42399 15.7382 -8.93202
294 1 18.873 9.43337 15.7261 -8.95101
45 1 6.28919 9.4344 22.0146 -8.94989
296 1 1.57224 1.57232 20.4416 -8.9494
297 1 3.14452 0.000251296 18.8694 -8.94954
298 1 4.71718 1.57231 20.4416 -8.94965
299 1 6.28966 0.000109487 18.8693 -8.94968
300 1 7.86204 1.57228 20.4416 -8.94955
338 1 3.14372 9.43407 18.8702 -8.94927
302 1 11.007 1.57226 20.4416 -8.94959
337 1 22.0139 9.43435 18.8696 -8.94945
304 1 14.1519 1.57227 20.4416 -8.94954
305 1 15.7243 5.41833e-05 18.8693 -8.9497
306 1 17.2968 1.57227 20.4416 -8.94972
307 1 18.8694 0.000160235 18.8694 -8.94939
308 1 20.4417 1.57233 20.4416 -8.9493
309 1 22.0139 3.14464 18.8693 -8.94964
310 1 1.57221 4.717 20.4418 -8.94936
311 1 3.14432 3.14429 18.8696 -8.94934
312 1 4.71686 4.71675 20.4418 -8.94998
313 1 6.28951 3.14432 18.8695 -8.94953
314 1 7.86187 4.71663 20.4418 -8.94936
315 1 9.43442 3.1442 18.8696 -8.94947
316 1 11.0069 4.71652 20.4419 -8.94953
317 1 12.5794 3.14419 18.8696 -8.94943
318 1 14.1519 4.71658 20.4419 -8.94946
319 1 15.7244 3.14421 18.8696 -8.9497
320 1 17.2972 4.71654 20.4419 -8.94966
321 1 18.8697 3.14421 18.8696 -8.94899
322 1 20.4418 4.71694 20.4418 -8.94933
323 1 22.0139 6.2893 18.8695 -8.94953
324 1 1.57213 7.86191 20.4418 -8.94954
325 1 3.1438 6.28874 18.8702 -8.94842
326 1 4.71642 7.86148 20.4427 -8.9496
327 1 6.28891 6.28851 18.8708 -8.95069
328 1 7.86183 7.86157 20.4426 -8.9503
329 1 9.43414 6.28825 18.8709 -8.949
330 1 11.0067 7.8611 20.4427 -8.95002
331 1 12.5795 6.28823 18.871 -8.9491
332 1 14.1522 7.86128 20.4426 -8.95084
333 1 15.7254 6.28804 18.8712 -8.95039
334 1 17.2977 7.86135 20.4426 -8.94955
335 1 18.8703 6.28862 18.8702 -8.9485
336 1 20.4418 7.86191 20.4418 -8.94957
29 1 22.0139 6.28958 22.0139 -8.94957
638 1 1.5721 11.0069 20.4418 -8.94956
514 1 7.8784 10.989 10.9866 -8.83963
515 1 11.0988 10.7128 11.1076 -7.31473
27 1 18.8694 3.14448 22.0138 -8.94926
39 1 15.725 6.28873 22.0133 -8.95014
593 1 14.1563 11.0056 17.3081 -8.95636
540 1 1.57046 11.0069 14.1524 -8.9512
541 1 4.70839 11.0058 14.1557 -8.9564
542 1 7.82744 10.9749 14.1913 -8.8543
543 1 11.0054 11.01 14.1506 -8.96713
544 1 14.1901 10.9783 14.1938 -8.86092
545 1 17.3064 11.0064 14.1556 -8.95688
546 1 20.4434 11.007 14.1522 -8.95135
33 1 6.28927 6.28924 22.0136 -8.95045
31 1 3.14451 6.2895 22.0141 -8.94965
591 1 7.85834 11.005 17.3071 -8.95676
592 1 11.0067 11.0075 17.2999 -8.94444
5 1 6.2896 8.95698e-05 22.0138 -8.94953
15 1 22.0139 3.14471 22.0139 -8.94945
17 1 3.14455 3.14455 22.0137 -8.94954
23 1 12.5794 3.14443 22.0138 -8.94952
13 1 18.8692 7.87667e-05 22.0138 -8.94951
21 1 9.43445 3.14444 22.0137 -8.94955
43 1 22.0139 9.43447 22.0139 -8.94959
49 1 18.8697 9.43438 22.0139 -8.94946
688 3 10.1563 11.0365 9.3849 2.38678
511 1 18.8701 18.8699 9.43441 -8.94922
510 1 15.7267 18.872 9.43408 -8.94903
509 1 12.5814 18.8776 9.43176 -8.95861
508 1 9.43311 18.8793 9.43177 -8.95803
349 1 17.2979 11.0069 1.57155 -8.94942
507 1 6.2857 18.8752 9.43379 -8.94872
539 1 20.4417 20.4419 11.007 -8.94955
352 1 1.57221 14.1518 1.57223 -8.94946
353 1 3.14438 12.5794 0.000129776 -8.94952
354 1 4.71676 14.1515 1.57213 -8.94964
153 1 15.725 22.0145 9.43453 -8.94959
356 1 7.86165 14.1518 1.57087 -8.95244
150 1 6.28868 22.0149 9.43447 -8.95007
358 1 11.0065 14.1524 1.56986 -8.95025
345 1 4.71662 11.0068 1.57208 -8.94961
360 1 14.1533 14.153 1.56929 -8.95158
361 1 15.7253 12.5797 -0.00020823 -8.9496
362 1 17.2979 14.1523 1.57155 -8.94926
107 1 12.5798 22.0149 6.28886 -8.94994
364 1 20.4419 14.1519 1.57218 -8.9495
365 1 22.0139 15.7243 3.47743e-05 -8.94956
366 1 1.57216 17.2968 1.5722 -8.94977
105 1 9.43445 22.015 6.28864 -8.94974
368 1 4.71629 17.2974 1.57131 -8.94967
529 1 11.0073 17.2981 11.0021 -9.01335
370 1 7.86166 17.2975 1.57085 -8.94971
371 1 9.43437 15.7249 -0.000659444 -8.9498
372 1 11.007 17.2977 1.57077 -8.94971
373 1 12.5794 15.7249 -0.000774024 -8.94985
374 1 14.1524 17.2977 1.57086 -8.9503
526 1 1.57053 17.2978 11.007 -8.9493
376 1 17.2978 17.2976 1.57158 -8.94842
525 1 20.4416 14.1519 11.0068 -8.94939
378 1 20.4418 17.2969 1.57222 -8.94951
111 1 18.8694 22.0141 6.28952 -8.94966
380 1 1.57208 20.4417 1.57219 -8.9493
495 1 12.5464 12.5721 9.45149 -8.82995
382 1 4.7169 20.4419 1.57187 -8.94964
383 1 6.28948 18.8695 -0.000285159 -8.94973
384 1 7.86194 20.442 1.57184 -8.94942
494 1 9.36207 12.8482 9.46165 -7.95811
386 1 11.007 20.442 1.57183 -8.9495
493 1 6.2858 12.5884 9.43801 -8.9707
388 1 14.152 20.442 1.57189 -8.94941
389 1 15.7245 18.8695 -0.000298013 -8.94989
390 1 17.2971 20.442 1.57189 -8.94946
391 1 18.8695 18.8695 2.86091e-05 -8.94926
392 1 20.4416 20.4416 1.57234 -8.94965
506 1 3.14286 18.8707 9.43427 -8.94902
394 1 4.71601 11.0068 4.71585 -8.94613
505 1 22.0136 18.8696 9.4344 -8.94949
504 1 18.8711 15.7247 9.43451 -8.95236
503 1 15.7342 15.7295 9.4307 -8.95615
398 1 17.3008 11.007 4.71492 -8.94844
399 1 20.4425 11.0069 4.71665 -8.94982
400 1 8.84857e-05 12.5794 3.14445 -8.94956
401 1 1.57183 14.1516 4.71674 -8.94969
402 1 3.14416 12.5792 3.14418 -8.9491
403 1 4.7153 14.1512 4.71576 -8.95109
404 1 6.28917 12.5782 3.14431 -8.94917
405 1 7.85701 14.1556 4.70771 -8.95525
406 1 9.43479 12.5789 3.14446 -8.94845
407 1 11.007 14.1551 4.70789 -8.95197
408 1 12.582 12.5804 3.13722 -8.95798
409 1 14.1643 14.1623 4.70436 -8.92959
410 1 15.7277 12.5804 3.14137 -8.94764
411 1 17.3008 14.1535 4.71508 -8.95009
412 1 18.8704 12.5796 3.14398 -8.94932
413 1 20.4424 14.1521 4.71675 -8.95005
414 1 22.014 15.7243 3.14453 -8.94974
415 1 1.57118 17.2972 4.71645 -8.9497
416 1 3.144 15.7243 3.14409 -8.95018
417 1 4.71321 17.3 4.71317 -8.94524
418 1 6.2873 15.7259 3.14081 -8.9504
419 1 7.8597 17.3007 4.71164 -8.95076
420 1 9.43385 15.7261 3.1404 -8.94983
421 1 11.0073 17.3009 4.7117 -8.94737
422 1 12.5802 15.7262 3.14008 -8.95161
423 1 14.1559 17.3021 4.71133 -8.95142
424 1 15.728 15.7275 3.14102 -8.94455
425 1 17.298 17.2974 4.71651 -8.95092
426 1 18.8704 15.7249 3.14407 -8.94946
427 1 20.4416 17.2968 4.71702 -8.94983
428 1 22.0136 18.8693 3.14458 -8.94962
429 1 1.57183 20.4419 4.71682 -8.94949
430 1 3.14367 18.87 3.14373 -8.94853
431 1 4.71561 20.4433 4.71557 -8.94836
432 1 6.28866 18.8705 3.1429 -8.94982
433 1 7.86158 20.4431 4.71577 -8.94922
434 1 9.43425 18.8706 3.14293 -8.94908
435 1 11.0072 20.4431 4.71573 -8.94942
436 1 12.5798 18.8706 3.14302 -8.94887
437 1 14.1526 20.4431 4.71602 -8.95012
438 1 15.7257 18.8709 3.14292 -8.94952
439 1 17.2978 20.4425 4.71627 -8.94818
440 1 18.8695 18.8694 3.14455 -8.95002
441 1 20.4417 20.4418 4.71697 -8.9495
502 1 12.6173 15.7626 9.38739 -8.82794
501 1 9.39037 15.7666 9.39041 -8.90464
500 1 6.27036 15.7388 9.42953 -8.94885
499 1 3.1393 15.7261 9.43421 -8.95161
498 1 -0.000859631 15.7246 9.4344 -8.95053
497 1 18.8696 12.5799 9.4344 -8.94622
496 1 15.719 12.5792 9.43684 -8.93527
449 1 22.014 12.5793 6.28924 -8.94992
450 1 1.57016 14.1518 7.86163 -8.95148
451 1 3.14341 12.5784 6.28892 -8.94965
452 1 4.70731 14.154 7.85963 -8.95778
453 1 6.28682 12.5761 6.28931 -8.9492
454 1 7.82098 14.1864 7.82731 -8.85231
455 1 9.42439 12.6005 6.29161 -8.90248
456 1 11.0222 14.1683 7.83401 -8.93377
457 1 12.6196 12.6135 6.25509 -8.84461
458 1 14.156 14.1489 7.86189 -8.95141
459 1 15.7356 12.5819 6.28481 -8.95444
460 1 17.2986 14.1514 7.86261 -8.94927
461 1 18.8718 12.5797 6.28898 -8.95164
462 1 20.4418 14.1519 7.86191 -8.94968
463 1 22.0133 15.7245 6.28926 -8.95003
464 1 1.57056 17.2975 7.86154 -8.95019
465 1 3.14091 15.7255 6.28774 -8.95077
466 1 4.71033 17.3016 7.85869 -8.94849
467 1 6.27668 15.7353 6.27687 -8.93151
468 1 7.84662 17.3173 7.84732 -8.93638
469 1 9.43182 15.7344 6.27628 -8.96091
470 1 11.0068 17.3084 7.85196 -8.94359
471 1 12.5875 15.7371 6.27369 -8.96458
472 1 14.1653 17.3103 7.84931 -8.92569
473 1 15.7273 15.7251 6.28835 -8.9529
474 1 17.3009 17.299 7.86022 -8.95054
475 1 18.87 15.7243 6.28954 -8.94967
476 1 20.4421 17.2972 7.86179 -8.95051
477 1 -0.000298137 18.8695 6.28933 -8.94985
478 1 1.57183 20.442 7.86193 -8.94946
479 1 3.14263 18.8707 6.28837 -8.94924
480 1 4.71567 20.4433 7.86148 -8.94943
481 1 6.28443 18.8758 6.28442 -8.94539
482 1 7.86051 20.4465 7.86047 -8.95302
483 1 9.43371 18.8744 6.28571 -8.94799
484 1 11.0072 20.4456 7.86026 -8.94922
485 1 12.5809 18.8741 6.28629 -8.95013
486 1 14.1536 20.4451 7.86074 -8.95149
487 1 15.7284 18.8732 6.28605 -8.94373
488 1 17.2977 20.4424 7.86182 -8.94968
489 1 18.8704 18.87 6.28892 -8.94954
490 1 20.4417 20.4418 7.862 -8.94952
491 1 22.0135 12.5793 9.43426 -8.94914
492 1 3.14266 12.5788 9.43429 -8.94945
519 1 1.56978 14.1518 11.007 -8.9516
520 1 4.70589 14.1549 11.0101 -8.9605
522 1 11.0172 14.4322 10.9359 -8.01352
523 1 14.1519 14.1661 10.9939 -8.92469
524 1 17.2974 14.1513 11.0071 -8.94968
393 1 1.57189 11.0069 4.71655 -8.94946
54 1 6.28942 22.0142 3.14422 -8.94954
60 1 15.7246 22.0141 3.14432 -8.94989
99 1 22.0138 22.014 6.28958 -8.94958
101 1 3.14417 22.0142 6.28934 -8.94952
527 1 4.71147 17.3016 11.0077 -8.94602
534 1 4.71574 20.4433 11.0072 -8.94919
687 3 10.9833 12.609 11.7322 2.2969
686 1 20.4417 20.4417 20.4417 -8.94924
685 1 18.8699 18.8699 18.8699 -8.9486
684 1 17.2968 20.4418 20.4416 -8.94983
683 1 15.7245 18.8698 18.8698 -8.95034
682 1 14.1519 20.4418 20.4416 -8.94944
681 1 12.5795 18.8698 18.8697 -8.94902
303 1 12.5794 22.014 18.8694 -8.94956
301 1 9.43451 22.014 18.8694 -8.94958
521 1 7.81267 14.2125 11.0347 -8.80288
387 1 12.5795 18.8696 22.0136 -8.94951
207 1 15.7249 22.0143 12.5796 -8.94945
201 1 6.28885 22.0148 12.58 -8.95044
385 1 9.43445 18.8697 22.0136 -8.94954
197 1 22.0138 22.014 12.5794 -8.94959
590 1 4.71382 11.006 17.3002 -8.94771
528 1 7.85476 17.3135 11.0088 -8.95844
661 1 3.14381 15.7247 18.8702 -8.94931
530 1 14.1564 17.3035 11.0064 -8.94908
531 1 17.2994 17.2986 11.0069 -8.94769
660 1 1.57216 17.2968 20.4418 -8.94962
533 1 1.57182 20.442 11.007 -8.9495
589 1 1.57137 11.0067 17.2976 -8.94938
535 1 7.86111 20.4456 11.0075 -8.95211
536 1 11.0073 20.4432 11.0072 -8.9475
537 1 14.1529 20.4437 11.0073 -8.94989
538 1 17.2975 20.4424 11.007 -8.94942
659 1 22.0139 15.7245 18.8695 -8.94942
680 1 11.007 20.4418 20.4416 -8.94958
679 1 9.43462 18.8699 18.8698 -8.94907
678 1 7.86207 20.4418 20.4416 -8.94945
677 1 6.28948 18.8699 18.87 -8.95028
676 1 4.7171 20.4418 20.4417 -8.9498
675 1 3.14381 18.8702 18.8702 -8.94838
674 1 1.57217 20.4418 20.4417 -8.94923
547 1 22.0137 12.5794 12.5794 -8.94883
548 1 1.5705 14.1518 14.1522 -8.95114
549 1 3.14281 12.5785 12.5798 -8.94627
550 1 4.70863 14.1525 14.1552 -8.95955
551 1 6.2912 12.5761 12.5852 -8.99877
552 1 7.82465 14.185 14.196 -8.87121
553 1 9.21061 12.5833 12.6576 -8.12655
554 1 11.0064 14.1409 14.1297 -8.91284
555 1 12.7735 12.5568 12.6459 -8.18025
556 1 14.1813 14.1751 14.1839 -8.87846
557 1 15.7245 12.5784 12.5842 -8.99343
558 1 17.3036 14.1532 14.1544 -8.95683
559 1 18.8708 12.5797 12.5795 -8.94751
560 1 20.4428 14.1521 14.1521 -8.951
561 1 22.013 15.7247 12.5794 -8.95062
562 1 1.57052 17.2978 14.1526 -8.94969
563 1 3.13882 15.7267 12.5809 -8.95171
564 1 4.71077 17.3022 14.1565 -8.94343
565 1 6.26891 15.741 12.5929 -8.929
566 1 7.85545 17.3086 14.1599 -8.95057
567 1 9.40925 15.7388 12.6008 -8.8909
568 1 11.0078 17.2958 14.1514 -8.94345
569 1 12.6079 15.7353 12.6006 -8.87875
570 1 14.1591 17.3063 14.1588 -8.94825
571 1 15.7313 15.7267 12.5794 -8.95539
572 1 17.2993 17.2984 14.1525 -8.95039
573 1 18.871 15.725 12.5791 -8.95076
574 1 20.4419 17.2972 14.1519 -8.94988
575 1 -0.000333321 18.8697 12.5795 -8.94948
576 1 1.57187 20.442 14.152 -8.94949
577 1 3.14293 18.8708 12.5799 -8.9491
578 1 4.71592 20.4433 14.1528 -8.94944
579 1 6.28621 18.875 12.5815 -8.94948
580 1 7.86189 20.444 14.1527 -8.95213
581 1 9.43492 18.8729 12.5802 -8.95162
582 1 11.0073 20.442 14.1525 -8.94824
583 1 12.5801 18.8714 12.5796 -8.95258
584 1 14.1523 20.4433 14.1524 -8.95237
585 1 15.7261 18.8713 12.5799 -8.94784
586 1 17.2974 20.4423 14.152 -8.94929
587 1 18.87 18.8699 12.5795 -8.94928
588 1 20.4416 20.4418 14.1519 -8.94949
673 1 22.0138 18.8694 18.8694 -8.9496
672 1 20.4417 17.2969 20.4417 -8.94954
671 1 18.87 15.7248 18.87 -8.94922
670 1 17.2974 17.2975 20.4422 -8.94954
669 1 15.7259 15.726 18.8721 -8.95044
668 1 14.1518 17.2972 20.4418 -8.94983
667 1 12.5788 15.7249 18.8703 -8.95001
596 1 -8.82049e-05 12.5795 15.725 -8.95012
597 1 1.57139 14.1521 17.2976 -8.94928
598 1 3.14109 12.5794 15.7266 -8.94903
599 1 4.71399 14.1528 17.3001 -8.94771
600 1 6.28005 12.579 15.7345 -8.94217
601 1 7.85842 14.1545 17.3075 -8.95829
602 1 9.42649 12.5803 15.7349 -8.97007
603 1 11.007 14.1516 17.2953 -8.9394
604 1 12.5865 12.5793 15.7341 -8.96801
605 1 14.1552 14.1543 17.3051 -8.95592
606 1 15.734 12.5806 15.7342 -8.94152
607 1 17.2998 14.1534 17.2997 -8.94769
608 1 18.8727 12.5799 15.7263 -8.94928
609 1 20.4424 14.1522 17.2975 -8.94934
610 1 22.0137 15.7246 15.7247 -8.95041
611 1 1.57145 17.2973 17.2975 -8.95007
612 1 3.14136 15.7255 15.7261 -8.95181
613 1 4.71348 17.3005 17.301 -8.94512
614 1 6.27726 15.7363 15.7387 -8.93288
615 1 7.86233 17.2983 17.2991 -8.95167
616 1 9.43759 15.7253 15.7288 -8.95443
617 1 11.0073 17.2984 17.2984 -8.94686
618 1 12.5773 15.724 15.7276 -8.95658
619 1 14.1518 17.2979 17.2985 -8.95204
620 1 15.7336 15.7333 15.7338 -8.93522
621 1 17.2995 17.2996 17.2995 -8.94592
622 1 18.8718 15.7256 15.7255 -8.95087
623 1 20.4422 17.2973 17.2973 -8.94985
624 1 22.0136 18.8696 15.7245 -8.94956
625 1 1.57194 20.4419 17.297 -8.9493
626 1 3.14299 18.8708 15.7256 -8.9482
627 1 4.7164 20.4428 17.2977 -8.94944
628 1 6.28725 18.8736 15.7274 -8.94953
629 1 7.86232 20.4421 17.2972 -8.94962
630 1 9.43551 18.8702 15.7252 -8.94884
631 1 11.0071 20.4421 17.2973 -8.94967
632 1 12.579 18.8698 15.7249 -8.94871
633 1 14.1517 20.4419 17.2971 -8.94962
634 1 15.7267 18.8728 15.7268 -8.94892
635 1 17.2975 20.4426 17.2975 -8.94927
636 1 18.8699 18.8699 15.7246 -8.9499
637 1 20.4416 20.4418 17.2968 -8.94966
666 1 11.007 17.2975 20.4419 -8.94955
639 1 4.71632 11.0067 20.4427 -8.94936
665 1 9.43522 15.725 18.8706 -8.94993
664 1 7.8621 17.2973 20.4419 -8.94975
663 1 6.28782 15.7261 18.8731 -8.9512
643 1 17.2977 11.0068 20.4425 -8.94928
662 1 4.71642 17.2975 20.4425 -8.94989
645 1 22.0139 12.5794 18.8696 -8.94952
646 1 1.57211 14.1519 20.4418 -8.94953
647 1 3.14371 12.5794 18.8702 -8.94945
648 1 4.71639 14.152 20.4426 -8.94926
649 1 6.28754 12.5794 18.873 -8.94888
650 1 7.86166 14.1522 20.4436 -8.95198
651 1 9.43456 12.5798 18.8725 -8.95073
652 1 11.0068 14.1524 20.4417 -8.94804
653 1 12.5793 12.5799 18.8721 -8.95111
654 1 14.1523 14.1524 20.4429 -8.95165
655 1 15.7265 12.58 18.8728 -8.94891
656 1 17.2976 14.1523 20.4424 -8.94919
657 1 18.8702 12.5796 18.8702 -8.94946
658 1 20.4418 14.1519 20.4418 -8.94955
351 1 22.0139 12.5794 22.0139 -8.94959
355 1 6.28906 12.5792 22.0146 -8.94968
357 1 9.43439 12.5793 22.0143 -8.9492
359 1 12.5794 12.5795 22.0131 -8.95112
363 1 18.8697 12.5795 22.0139 -8.94951
367 1 3.14446 15.7243 22.014 -8.9496
369 1 6.28908 15.7247 22.0139 -8.95088
375 1 15.7251 15.7251 22.0135 -8.95019
377 1 18.8696 15.7245 22.0139 -8.94947
381 1 3.14438 18.8695 22.0139 -8.94947
248 1 3.14424 22.0142 15.7247 -8.94946
258 1 18.8693 22.014 15.7243 -8.94961
295 1 22.0138 22.014 18.8692 -8.94948
595 1 20.4425 11.0068 17.2976 -8.94939
594 1 17.3003 11.0064 17.3002 -8.94783
532 1 20.442 17.2974 11.0069 -8.94961
379 1 22.0139 18.8692 22.0139 -8.94961
