ITEM: TIMESTEP
54
ITEM: NUMBER OF ATOMS
688
ITEM: BOX BOUNDS pp pp pp
0.0000000000000000e+00 2.2013900999999997e+01
0.0000000000000000e+00 2.2013900999999997e+01
0.0000000000000000e+00 2.2013900999999997e+01
ITEM: ATOMS id type x y z c_pot
1 1 22.0139 8.41089e-08 3.75852e-08 -8.94963
2 1 1.57242 1.57242 1.57242 -8.94962
3 1 3.14484 9.07301e-08 -1.04759e-07 -8.94964
4 1 4.71727 1.57242 1.57242 -8.94965
448 1 20.4416 11.007 7.8621 -8.94986
6 1 7.86211 1.57242 1.57242 -8.94963
175 1 18.8695 9.43437 9.43444 -8.94993
8 1 11.007 1.57242 1.57242 -8.94964
174 1 15.7275 9.43281 9.43337 -8.94781
10 1 14.1518 1.57242 1.57242 -8.94963
11 1 15.7242 -7.66004e-08 2.6313e-07 -8.94963
12 1 17.2966 1.57242 1.57242 -8.94963
7 1 9.43453 -1.13237e-08 9.21131e-08 -8.94963
14 1 20.4415 1.57242 1.57242 -8.94963
447 1 17.2977 11.0071 7.86212 -8.95185
16 1 1.57242 4.71726 1.57242 -8.94965
446 1 14.1613 11.0079 7.85915 -8.97057
18 1 4.71724 4.71724 1.57238 -8.9496
445 1 11.094 11.0037 7.66566 -8.08312
20 1 7.86211 4.71725 1.57241 -8.94961
56 1 9.43453 4.29506e-07 3.14484 -8.94964
22 1 11.007 4.71725 1.57241 -8.94966
444 1 7.86554 11.0078 7.86232 -8.89254
24 1 14.1518 4.71726 1.57242 -8.94975
443 1 4.71646 11.007 7.86144 -8.94617
26 1 17.2967 4.71724 1.5724 -8.94949
442 1 1.57227 11.007 7.86204 -8.94952
28 1 20.4415 4.71726 1.57242 -8.94963
397 1 14.1537 11.007 4.71519 -8.94787
30 1 1.57242 7.86211 1.57242 -8.94963
396 1 11.0081 11.007 4.71058 -8.99006
32 1 4.71726 7.86211 1.57241 -8.94966
395 1 7.86235 11.007 4.71705 -8.95009
34 1 7.86202 7.86202 1.57215 -8.9501
35 1 9.43453 6.28967 -1.70773e-05 -8.94963
36 1 11.0069 7.86201 1.57222 -8.94959
37 1 12.5794 6.28968 -6.38352e-06 -8.94962
38 1 14.152 7.86194 1.57206 -8.94996
518 1 20.4417 11.0069 11.0069 -8.94996
40 1 17.2966 7.86211 1.57242 -8.94972
350 1 20.4415 11.007 1.57242 -8.94964
42 1 20.4415 7.86211 1.57242 -8.94963
58 1 12.5794 3.91218e-07 3.14484 -8.94964
44 1 3.14484 9.43453 -1.23978e-06 -8.94963
348 1 14.1519 11.0069 1.57214 -8.94947
347 1 11.0069 11.007 1.57137 -8.95104
346 1 7.86206 11.0069 1.57235 -8.94948
48 1 15.7242 9.43452 8.47149e-06 -8.94965
149 1 3.14484 1.27206e-06 9.43453 -8.94964
50 1 1.02738e-07 2.44851e-07 3.14484 -8.94963
51 1 1.57242 1.57242 4.71727 -8.94965
52 1 3.14484 1.252e-06 3.14484 -8.94961
53 1 4.71724 1.57239 4.71724 -8.94961
517 1 17.2987 11.0066 11.0064 -8.95159
55 1 7.86211 1.57241 4.71726 -8.94962
173 1 12.5947 9.41698 9.41219 -8.84217
57 1 11.007 1.5724 4.71725 -8.94963
172 1 9.35673 9.23817 9.43473 -8.10402
59 1 14.1518 1.57239 4.71725 -8.94967
516 1 14.1656 10.9974 11.0022 -8.94481
61 1 17.2966 1.57242 4.71726 -8.94963
62 1 18.8691 1.13212e-06 3.14484 -8.94962
63 1 20.4415 1.57242 4.71726 -8.94964
64 1 22.0139 3.14484 3.14484 -8.94963
65 1 1.57239 4.71724 4.71725 -8.94962
66 1 3.14482 3.14482 3.14482 -8.94949
67 1 4.71696 4.71696 4.71695 -8.94822
68 1 6.28969 3.14484 3.14484 -8.94975
69 1 7.86214 4.71717 4.71718 -8.95003
70 1 9.43452 3.14483 3.14483 -8.94965
71 1 11.007 4.71706 4.71708 -8.94929
72 1 12.5794 3.14483 3.14483 -8.94961
73 1 14.152 4.7169 4.71709 -8.94986
74 1 15.7242 3.14481 3.14482 -8.94962
75 1 17.2967 4.71724 4.71724 -8.94961
76 1 18.8691 3.14484 3.14484 -8.94964
77 1 20.4415 4.71726 4.71726 -8.94963
78 1 22.0139 6.28969 3.14484 -8.94964
79 1 1.57241 7.86211 4.71725 -8.94963
80 1 3.14484 6.28969 3.14484 -8.94974
81 1 4.71714 7.86211 4.71716 -8.95013
82 1 6.2895 6.2895 3.14446 -8.94972
83 1 7.86098 7.86103 4.71453 -8.95246
84 1 9.43452 6.2895 3.14464 -8.94925
85 1 11.0064 7.86129 4.7156 -8.95072
86 1 12.5793 6.28961 3.14475 -8.95
87 1 14.1549 7.85894 4.714 -8.93852
88 1 15.7245 6.28937 3.14451 -8.94823
89 1 17.297 7.86196 4.71711 -8.94999
90 1 18.8691 6.28967 3.14482 -8.94963
91 1 20.4415 7.8621 4.71726 -8.94969
92 1 4.5972e-07 9.43453 3.14484 -8.94963
93 1 3.14483 9.43453 3.14483 -8.94962
94 1 6.28958 9.43462 3.1447 -8.94976
95 1 9.43407 9.43409 3.14378 -8.94931
96 1 12.5801 9.43387 3.14225 -8.95418
97 1 15.7244 9.43449 3.1447 -8.94965
98 1 18.8691 9.43453 3.14483 -8.94961
513 1 4.7157 11.0065 11.0071 -8.94525
100 1 1.57242 1.57242 7.86211 -8.94964
189 1 20.4415 4.71726 11.007 -8.94964
102 1 4.71725 1.57241 7.86211 -8.94961
103 1 6.28965 3.469e-05 6.28965 -8.94972
104 1 7.86205 1.57223 7.86205 -8.95021
171 1 6.2798 9.43152 9.43363 -8.96671
106 1 11.007 1.57232 7.86205 -8.94973
170 1 3.14371 9.43452 9.43445 -8.9517
108 1 14.1518 1.57241 7.86209 -8.94974
109 1 15.7242 3.30081e-05 6.28967 -8.94962
110 1 17.2966 1.57242 7.86211 -8.94963
188 1 17.2967 4.71723 11.0069 -8.94964
112 1 20.4415 1.57242 7.86211 -8.94963
113 1 9.82683e-08 3.14484 6.28969 -8.94963
114 1 1.57241 4.71725 7.86211 -8.94961
115 1 3.14484 3.14484 6.28969 -8.94972
116 1 4.71712 4.71713 7.86207 -8.94971
117 1 6.28951 3.14449 6.28951 -8.94988
118 1 7.86133 4.71472 7.86136 -8.95346
119 1 9.43459 3.14464 6.28959 -8.94959
120 1 11.0074 4.71614 7.8616 -8.94881
121 1 12.5795 3.14458 6.2896 -8.95006
122 1 14.152 4.71683 7.86204 -8.94997
123 1 15.7242 3.1448 6.28967 -8.94964
124 1 17.2967 4.71724 7.8621 -8.9497
125 1 18.8691 3.14484 6.28969 -8.94965
126 1 20.4415 4.71726 7.86211 -8.94963
127 1 22.0139 6.28968 6.28968 -8.94968
128 1 1.5722 7.86206 7.86207 -8.95015
129 1 3.1445 6.28952 6.28952 -8.94984
130 1 4.71461 7.86131 7.86134 -8.95334
131 1 6.28665 6.28665 6.28659 -8.93834
132 1 7.8398 7.84153 7.84134 -8.87054
133 1 9.43501 6.28807 6.28888 -8.95116
134 1 11.0134 7.85775 7.85328 -8.92105
135 1 12.5804 6.28705 6.28865 -8.95303
136 1 14.1559 7.85867 7.86004 -8.93975
137 1 15.7246 6.28933 6.28942 -8.94884
138 1 17.2972 7.86182 7.86196 -8.94956
139 1 18.8691 6.28966 6.28966 -8.94959
140 1 20.4415 7.86208 7.86209 -8.94972
141 1 22.0139 9.43453 6.28967 -8.94969
142 1 3.14461 9.43456 6.28956 -8.9496
143 1 6.28824 9.4352 6.28881 -8.95001
144 1 9.42763 9.42576 6.28525 -8.92228
145 1 12.602 9.41335 6.26703 -8.87226
146 1 15.7268 9.4339 6.28892 -8.95431
147 1 18.8693 9.43451 6.28965 -8.95018
148 1 -3.31934e-09 -1.07144e-08 9.43453 -8.94963
169 1 22.0138 9.43452 9.43452 -8.94991
168 1 18.8691 6.28965 9.43453 -8.94959
151 1 9.4345 0.000215502 9.43449 -8.95062
152 1 12.5794 0.000204317 9.43449 -8.95015
167 1 15.7245 6.28929 9.43449 -8.94889
166 1 12.5797 6.28736 9.43387 -8.95381
155 1 22.0139 3.14484 9.43453 -8.94964
156 1 3.14484 3.14484 9.43453 -8.94969
157 1 6.28954 3.14456 9.43453 -8.94944
158 1 9.43456 3.1437 9.43449 -8.95116
159 1 12.5794 3.14458 9.43448 -8.94991
160 1 15.7242 3.1448 9.43453 -8.9496
161 1 18.8691 3.14484 9.43453 -8.94965
162 1 -1.84011e-05 6.28968 9.43453 -8.94965
163 1 3.14458 6.28955 9.43453 -8.94943
164 1 6.28786 6.28774 9.43456 -8.94841
165 1 9.43292 6.28221 9.43406 -8.98914
344 1 1.57242 11.007 1.57242 -8.94964
183 1 1.57241 4.71725 11.007 -8.94961
181 1 17.2966 1.57242 11.007 -8.94963
154 1 18.8691 1.02602e-06 9.43453 -8.94963
177 1 4.71725 1.57241 11.007 -8.94961
9 1 12.5794 -1.39458e-08 6.75268e-08 -8.94963
184 1 4.71711 4.71712 11.007 -8.94964
512 1 1.57217 11.0069 11.007 -8.94956
41 1 18.8691 6.28969 2.82402e-06 -8.94964
19 1 6.28969 3.14484 6.25696e-07 -8.94964
25 1 15.7242 3.14484 6.19485e-07 -8.94965
176 1 1.57242 1.57242 11.007 -8.94964
199 1 3.14484 4.30921e-07 12.5794 -8.94964
178 1 7.86206 1.57223 11.007 -8.95015
179 1 11.007 1.57231 11.007 -8.95012
180 1 14.1518 1.57241 11.0069 -8.94969
644 1 20.4415 11.007 20.4415 -8.94964
182 1 20.4415 1.57242 11.007 -8.94963
642 1 14.1518 11.0069 20.4417 -8.95016
209 1 18.8691 2.68301e-07 12.5794 -8.94964
185 1 7.86138 4.71479 11.0076 -8.95335
186 1 11.0074 4.71534 11.0074 -8.95024
187 1 14.152 4.71687 11.0069 -8.94973
641 1 11.0069 11.0069 20.4417 -8.95009
640 1 7.86207 11.0069 20.4417 -8.95014
190 1 1.57221 7.86206 11.007 -8.95011
191 1 4.71474 7.86129 11.0075 -8.95311
192 1 7.84105 7.84181 11.027 -8.87372
193 1 11.0151 7.85293 11.0159 -8.97117
194 1 14.1544 7.85932 11.0062 -8.95231
195 1 17.2971 7.86179 11.0069 -8.9492
196 1 20.4415 7.86208 11.0069 -8.94969
343 1 18.8691 9.43453 18.8691 -8.94971
198 1 1.57242 1.57242 14.1518 -8.94965
342 1 15.7244 9.43439 18.8694 -8.94985
200 1 4.71724 1.57239 14.1518 -8.94962
341 1 12.5794 9.43436 18.8696 -8.95034
202 1 7.8621 1.57241 14.1518 -8.94971
203 1 9.43449 0.000114133 12.5794 -8.94974
204 1 11.007 1.5724 14.1518 -8.94963
205 1 12.5794 0.000110981 12.5794 -8.94979
206 1 14.1518 1.57238 14.1518 -8.94978
340 1 9.43449 9.43435 18.8695 -8.94971
208 1 17.2966 1.57242 14.1518 -8.94964
339 1 6.28953 9.43439 18.8694 -8.9499
210 1 20.4415 1.57242 14.1518 -8.94963
211 1 4.24346e-08 3.14484 12.5794 -8.94963
212 1 1.57239 4.71725 14.1518 -8.94962
213 1 3.14484 3.14484 12.5794 -8.94971
214 1 4.71697 4.71697 14.1521 -8.94833
215 1 6.28952 3.1445 12.5795 -8.94988
216 1 7.86204 4.71688 14.152 -8.95057
217 1 9.43454 3.14452 12.5795 -8.94974
218 1 11.0069 4.7169 14.152 -8.94914
219 1 12.5795 3.14441 12.5795 -8.95041
220 1 14.1521 4.71651 14.1521 -8.95044
221 1 15.7242 3.14481 12.5794 -8.94965
222 1 17.2967 4.71725 14.1518 -8.94976
223 1 18.8691 3.14484 12.5794 -8.94964
224 1 20.4415 4.71726 14.1518 -8.94964
225 1 22.0139 6.28968 12.5794 -8.94969
226 1 1.5724 7.8621 14.1518 -8.94962
227 1 3.14451 6.28953 12.5795 -8.94989
228 1 4.71703 7.86204 14.1519 -8.95061
229 1 6.28671 6.28671 12.5822 -8.93887
230 1 7.85945 7.85794 14.1559 -8.95299
231 1 9.43457 6.28698 12.5805 -8.95162
232 1 11.0062 7.86036 14.1541 -8.9498
233 1 12.581 6.28514 12.581 -8.95411
234 1 14.1576 7.85475 14.1576 -8.93189
235 1 15.7246 6.28935 12.5793 -8.94986
236 1 17.2972 7.86184 14.152 -8.95048
237 1 18.8691 6.28966 12.5794 -8.94964
238 1 20.4415 7.86209 14.1518 -8.9497
239 1 22.0139 9.43452 12.5794 -8.94974
240 1 3.14441 9.43447 12.5794 -8.9496
241 1 6.28661 9.43457 12.5795 -8.9528
242 1 9.41564 9.41964 12.5954 -8.88187
243 1 12.6216 9.39994 12.6201 -8.78148
244 1 15.7294 9.43307 12.5798 -8.95747
245 1 18.8695 9.43442 12.5794 -8.9504
246 1 8.73938e-08 6.87734e-08 15.7242 -8.94963
247 1 1.57242 1.57242 17.2966 -8.94962
47 1 12.5794 9.43448 22.0137 -8.95022
249 1 4.71726 1.57242 17.2966 -8.94965
250 1 6.28967 2.96259e-05 15.7242 -8.94968
251 1 7.86211 1.57242 17.2966 -8.94964
252 1 9.43453 9.78304e-06 15.7242 -8.94965
253 1 11.007 1.57242 17.2966 -8.94964
254 1 12.5794 1.00069e-05 15.7242 -8.94964
255 1 14.1518 1.57242 17.2966 -8.94964
256 1 15.7242 2.88331e-05 15.7242 -8.94967
257 1 17.2966 1.57242 17.2966 -8.94963
46 1 9.43448 9.43448 22.0138 -8.94975
259 1 20.4415 1.57242 17.2966 -8.94964
260 1 22.0139 3.14484 15.7242 -8.94963
261 1 1.57242 4.71727 17.2966 -8.94966
262 1 3.14482 3.14482 15.7242 -8.94951
263 1 4.71722 4.71721 17.2967 -8.94956
264 1 6.28968 3.14481 15.7242 -8.94979
265 1 7.86211 4.71724 17.2967 -8.94962
266 1 9.43452 3.14481 15.7242 -8.94966
267 1 11.007 4.71722 17.2967 -8.94964
268 1 12.5794 3.14481 15.7242 -8.94962
269 1 14.1518 4.71725 17.2966 -8.9498
270 1 15.7243 3.14477 15.7243 -8.94965
271 1 17.2967 4.7172 17.2967 -8.9494
272 1 18.8691 3.14484 15.7242 -8.94966
273 1 20.4415 4.71726 17.2966 -8.94964
274 1 22.0139 6.28969 15.7242 -8.94964
275 1 1.57239 7.86209 17.2967 -8.94962
276 1 3.14483 6.28968 15.7242 -8.94985
277 1 4.71696 7.86181 17.2969 -8.94831
278 1 6.28928 6.2891 15.7248 -8.94954
279 1 7.862 7.86191 17.2971 -8.95051
280 1 9.43454 6.28929 15.7246 -8.94913
281 1 11.0069 7.86175 17.2971 -8.94883
282 1 12.5793 6.28939 15.7245 -8.95014
283 1 14.152 7.8618 17.2972 -8.9505
284 1 15.7248 6.28887 15.7249 -8.9474
285 1 17.2969 7.86182 17.2969 -8.94847
286 1 18.8691 6.28966 15.7242 -8.94974
287 1 20.4415 7.86209 17.2967 -8.94962
288 1 -3.40101e-07 9.43451 15.7242 -8.94973
289 1 3.1445 9.43437 15.7244 -8.94989
290 1 6.28665 9.43164 15.7273 -8.93876
291 1 9.43443 9.43312 15.7272 -8.94934
292 1 12.5797 9.43287 15.7294 -8.95576
293 1 15.7272 9.43168 15.7272 -8.93949
294 1 18.8694 9.43438 15.7244 -8.94987
45 1 6.28967 9.43453 22.0139 -8.9497
296 1 1.57242 1.57242 20.4415 -8.94963
297 1 3.14484 2.45571e-06 18.8691 -8.94963
298 1 4.71726 1.57242 20.4415 -8.94964
299 1 6.28969 -3.00702e-07 18.8691 -8.94964
300 1 7.86211 1.57242 20.4415 -8.94963
338 1 3.14484 9.43453 18.8691 -8.94971
302 1 11.007 1.57242 20.4415 -8.94963
337 1 22.0139 9.43453 18.8691 -8.94963
304 1 14.1518 1.57242 20.4415 -8.94963
305 1 15.7242 -1.7467e-07 18.8691 -8.94964
306 1 17.2966 1.57242 20.4415 -8.94964
307 1 18.8691 2.3959e-06 18.8691 -8.94963
308 1 20.4415 1.57242 20.4415 -8.94963
309 1 22.0139 3.14484 18.8691 -8.94964
310 1 1.57242 4.71726 20.4415 -8.94962
311 1 3.14484 3.14484 18.8691 -8.94962
312 1 4.71726 4.71726 20.4415 -8.94965
313 1 6.28969 3.14484 18.8691 -8.94964
314 1 7.86211 4.71726 20.4415 -8.94963
315 1 9.43453 3.14484 18.8691 -8.94964
316 1 11.007 4.71726 20.4415 -8.94965
317 1 12.5794 3.14484 18.8691 -8.94963
318 1 14.1518 4.71726 20.4415 -8.94964
319 1 15.7242 3.14484 18.8691 -8.94966
320 1 17.2966 4.71726 20.4415 -8.94963
321 1 18.8691 3.14484 18.8691 -8.94961
322 1 20.4415 4.71726 20.4415 -8.94963
323 1 22.0139 6.28968 18.8691 -8.94962
324 1 1.57242 7.86211 20.4415 -8.94965
325 1 3.14482 6.28966 18.8691 -8.94951
326 1 4.71725 7.86209 20.4415 -8.94963
327 1 6.28967 6.28966 18.8691 -8.94977
328 1 7.86209 7.86208 20.4415 -8.9497
329 1 9.43452 6.28965 18.8691 -8.94962
330 1 11.0069 7.86207 20.4415 -8.94965
331 1 12.5794 6.28966 18.8691 -8.94962
332 1 14.1518 7.86208 20.4415 -8.94974
333 1 15.7242 6.28965 18.8691 -8.94972
334 1 17.2967 7.86209 20.4415 -8.94962
335 1 18.8691 6.28967 18.8691 -8.94953
336 1 20.4415 7.86211 20.4415 -8.94965
29 1 22.0139 6.28969 22.0139 -8.94964
638 1 1.57242 11.007 20.4415 -8.94964
514 1 7.86356 10.9984 10.9991 -8.86009
515 1 11.1094 10.7615 11.1165 -7.21451
27 1 18.8691 3.14484 22.0139 -8.94962
39 1 15.7242 6.28966 22.0139 -8.94962
593 1 14.1526 11.0064 17.2993 -8.95321
540 1 1.5722 11.0069 14.1519 -8.95012
541 1 4.71467 11.0063 14.1527 -8.95291
542 1 7.84186 10.9867 14.1739 -8.86638
543 1 11.0076 11.0076 14.163 -8.96021
544 1 14.1728 10.9879 14.1744 -8.86911
545 1 17.2992 11.0064 14.1526 -8.95314
546 1 20.4417 11.0069 14.1518 -8.95014
33 1 6.28967 6.28967 22.0139 -8.94967
31 1 3.14484 6.28969 22.0139 -8.94963
591 1 7.86139 11.0063 17.2992 -8.95354
592 1 11.0069 11.0064 17.299 -8.9496
5 1 6.28969 -5.78867e-08 22.0139 -8.94963
15 1 22.0139 3.14484 22.0139 -8.94963
17 1 3.14484 3.14484 22.0139 -8.94963
23 1 12.5794 3.14484 22.0139 -8.94963
13 1 18.8691 1.02344e-07 22.0139 -8.94963
21 1 9.43453 3.14484 22.0139 -8.94964
43 1 22.0139 9.43453 22.0139 -8.94963
49 1 18.8691 9.43453 22.0139 -8.94964
688 3 10.1953 11.0282 9.40982 2.56442
511 1 18.8691 18.8691 9.43453 -8.94961
510 1 15.7243 18.8692 9.43457 -8.95001
509 1 12.58 18.8716 9.43386 -8.95376
508 1 9.43397 18.8727 9.43387 -8.95542
349 1 17.2966 11.007 1.57242 -8.94969
507 1 6.28947 18.8694 9.43457 -8.94982
539 1 20.4415 20.4415 11.007 -8.94964
352 1 1.57242 14.1518 1.57242 -8.94963
353 1 3.14484 12.5794 -1.16165e-06 -8.94963
354 1 4.71726 14.1518 1.57241 -8.94965
153 1 15.7242 22.0139 9.43453 -8.94962
356 1 7.86202 14.1519 1.57216 -8.95015
150 1 6.28966 22.0139 9.43453 -8.94966
358 1 11.0069 14.1519 1.57216 -8.94982
345 1 4.71724 11.007 1.57239 -8.94961
360 1 14.152 14.152 1.57208 -8.94995
361 1 15.7242 12.5794 5.16991e-06 -8.94962
362 1 17.2966 14.1518 1.57242 -8.94971
107 1 12.5794 22.0139 6.28966 -8.94967
364 1 20.4415 14.1518 1.57242 -8.94963
365 1 22.0139 15.7242 7.37572e-08 -8.94963
366 1 1.57242 17.2966 1.57242 -8.94965
105 1 9.43453 22.0139 6.28966 -8.94963
368 1 4.71724 17.2967 1.57239 -8.94961
529 1 11.0075 17.3032 11.0062 -8.99345
370 1 7.8621 17.2967 1.57239 -8.94966
371 1 9.43452 15.7242 -9.24529e-06 -8.94968
372 1 11.007 17.2967 1.57239 -8.94967
373 1 12.5794 15.7242 1.6417e-06 -8.94968
374 1 14.1518 17.2966 1.5724 -8.9498
526 1 1.57239 17.2967 11.0069 -8.9496
376 1 17.2967 17.2967 1.5724 -8.9495
525 1 20.4416 14.1518 11.0069 -8.94975
378 1 20.4415 17.2966 1.57242 -8.94963
111 1 18.8691 22.0139 6.28969 -8.94965
380 1 1.57242 20.4415 1.57242 -8.94962
495 1 12.5716 12.5761 9.44058 -8.8417
382 1 4.71726 20.4415 1.57242 -8.94965
383 1 6.28969 18.8691 -1.53873e-06 -8.94964
384 1 7.86211 20.4415 1.57242 -8.94963
494 1 9.34964 12.7883 9.44092 -7.9581
386 1 11.007 20.4415 1.57242 -8.94964
493 1 6.28137 12.5817 9.43493 -8.97096
388 1 14.1518 20.4415 1.57242 -8.94964
389 1 15.7242 18.8691 -1.54909e-06 -8.94965
390 1 17.2966 20.4415 1.57242 -8.94962
391 1 18.8691 18.8691 1.48492e-06 -8.94962
392 1 20.4415 20.4415 1.57242 -8.94963
506 1 3.14482 18.8691 9.43453 -8.94967
394 1 4.71707 11.007 4.71701 -8.94874
505 1 22.0139 18.8691 9.43453 -8.94963
504 1 18.8693 15.7243 9.43445 -8.9501
503 1 15.727 15.7254 9.43352 -8.95258
398 1 17.2969 11.0069 4.71712 -8.94941
399 1 20.4415 11.0069 4.71725 -8.94965
400 1 4.14989e-07 12.5794 3.14484 -8.94963
401 1 1.57241 14.1518 4.71725 -8.94962
402 1 3.14483 12.5794 3.14483 -8.94963
403 1 4.71714 14.1518 4.71717 -8.95013
404 1 6.28957 12.5793 3.14469 -8.9497
405 1 7.861 14.1527 4.71443 -8.95291
406 1 9.43403 12.5798 3.14381 -8.94874
407 1 11.0064 14.1524 4.7148 -8.95312
408 1 12.5801 12.58 3.14234 -8.95347
409 1 14.1548 14.1547 4.71417 -8.93843
410 1 15.7244 12.5794 3.14469 -8.94963
411 1 17.297 14.1519 4.7171 -8.94985
412 1 18.8691 12.5794 3.14483 -8.94962
413 1 20.4415 14.1518 4.71725 -8.94968
414 1 22.0139 15.7242 3.14484 -8.94964
415 1 1.57239 17.2967 4.71725 -8.94963
416 1 3.14484 15.7242 3.14484 -8.94974
417 1 4.71696 17.2969 4.71695 -8.94832
418 1 6.2895 15.7244 3.14446 -8.94976
419 1 7.862 17.2969 4.71686 -8.95033
420 1 9.4345 15.7244 3.14445 -8.94974
421 1 11.007 17.297 4.71682 -8.94906
422 1 12.5794 15.7243 3.14455 -8.95056
423 1 14.1521 17.2972 4.71675 -8.94998
424 1 15.7245 15.7245 3.14453 -8.94825
425 1 17.2966 17.2966 4.71726 -8.94987
426 1 18.8691 15.7242 3.14482 -8.94962
427 1 20.4415 17.2966 4.71726 -8.94964
428 1 22.0139 18.8691 3.14484 -8.94963
429 1 1.57242 20.4415 4.71726 -8.94964
430 1 3.14482 18.8691 3.14482 -8.94951
431 1 4.71722 20.4415 4.71722 -8.94948
432 1 6.28967 18.8691 3.14481 -8.94974
433 1 7.86211 20.4415 4.71725 -8.9497
434 1 9.43452 18.8691 3.14481 -8.94963
435 1 11.007 20.4415 4.71724 -8.94968
436 1 12.5794 18.8691 3.14481 -8.94959
437 1 14.1518 20.4415 4.71725 -8.94975
438 1 15.7243 18.8691 3.14479 -8.94959
439 1 17.2967 20.4415 4.71724 -8.9495
440 1 18.8691 18.8691 3.14484 -8.94966
441 1 20.4415 20.4415 4.71726 -8.94963
502 1 12.6012 15.7454 9.41083 -8.85615
501 1 9.4118 15.753 9.41168 -8.90669
500 1 6.28532 15.727 9.43349 -8.95135
499 1 3.14433 15.7244 9.43445 -8.94984
498 1 -1.95764e-05 15.7242 9.43452 -8.94973
497 1 18.8693 12.5795 9.43448 -8.94914
496 1 15.7246 12.5801 9.43485 -8.94511
449 1 22.0139 12.5794 6.28967 -8.94969
450 1 1.57221 14.1518 7.86207 -8.95018
451 1 3.14459 12.5793 6.28955 -8.94951
452 1 4.71461 14.1524 7.86137 -8.95399
453 1 6.28818 12.5786 6.28883 -8.94887
454 1 7.83888 14.1722 7.83982 -8.86527
455 1 9.42762 12.5876 6.2866 -8.92004
456 1 11.0137 14.157 7.8451 -8.94556
457 1 12.6017 12.5996 6.26925 -8.86408
458 1 14.1533 14.1512 7.862 -8.95063
459 1 15.7269 12.58 6.28883 -8.9528
460 1 17.2969 14.1518 7.86205 -8.94955
461 1 18.8693 12.5794 6.28963 -8.95012
462 1 20.4415 14.1518 7.8621 -8.94969
463 1 22.0139 15.7242 6.28968 -8.94969
464 1 1.57238 17.2967 7.86209 -8.94965
465 1 3.1445 15.7244 6.28953 -8.94992
466 1 4.71677 17.2969 7.8619 -8.94982
467 1 6.28657 15.7272 6.28649 -8.93854
468 1 7.85825 17.3022 7.85834 -8.94168
469 1 9.43442 15.7263 6.28654 -8.95557
470 1 11.0075 17.2995 7.85983 -8.94724
471 1 12.5811 15.7275 6.28611 -8.95713
472 1 14.155 17.2998 7.85913 -8.93761
473 1 15.7244 15.7242 6.28964 -8.95089
474 1 17.297 17.2968 7.86193 -8.94976
475 1 18.8691 15.7242 6.28968 -8.94963
476 1 20.4415 17.2967 7.86209 -8.94967
477 1 1.59599e-07 18.8691 6.28968 -8.94964
478 1 1.57242 20.4415 7.86211 -8.94964
479 1 3.1448 18.8691 6.28967 -8.94969
480 1 4.71725 20.4415 7.86211 -8.94972
481 1 6.28921 18.8697 6.28921 -8.94844
482 1 7.8619 20.442 7.8619 -8.95042
483 1 9.43455 18.8694 6.28945 -8.94961
484 1 11.007 20.4419 7.86192 -8.94946
485 1 12.5795 18.8694 6.28947 -8.95009
486 1 14.152 20.4418 7.86195 -8.94994
487 1 15.7245 18.8694 6.28939 -8.94821
488 1 17.2966 20.4415 7.86211 -8.94975
489 1 18.8691 18.8691 6.28967 -8.94961
490 1 20.4415 20.4415 7.86211 -8.94964
491 1 22.0138 12.5794 9.43452 -8.94983
492 1 3.14383 12.5793 9.4345 -8.95127
519 1 1.5721 14.1519 11.0069 -8.95023
520 1 4.71378 14.1529 11.0072 -8.95327
522 1 11.013 14.3706 10.9254 -7.99614
523 1 14.1556 14.1601 11 -8.92665
524 1 17.2977 14.1523 11.0065 -8.949
393 1 1.5724 11.0069 4.71724 -8.94961
54 1 6.28969 22.0139 3.14484 -8.94965
60 1 15.7242 22.0139 3.14484 -8.94965
99 1 22.0139 22.0139 6.28969 -8.94963
101 1 3.14484 22.0139 6.28969 -8.94965
527 1 4.71693 17.297 11.007 -8.94934
534 1 4.71724 20.4415 11.0069 -8.94963
687 3 10.9974 12.6081 11.7854 2.50565
686 1 20.4415 20.4415 20.4415 -8.94962
685 1 18.8691 18.8691 18.8691 -8.94949
684 1 17.2966 20.4415 20.4415 -8.94965
683 1 15.7242 18.8691 18.8691 -8.94974
682 1 14.1518 20.4415 20.4415 -8.94963
681 1 12.5794 18.8691 18.8691 -8.94962
303 1 12.5794 22.0139 18.8691 -8.94963
301 1 9.43453 22.0139 18.8691 -8.94963
521 1 7.83629 14.1808 11.022 -8.83667
387 1 12.5794 18.8691 22.0139 -8.94963
207 1 15.7242 22.0139 12.5794 -8.94963
201 1 6.28965 22.0139 12.5794 -8.94972
385 1 9.43453 18.8691 22.0139 -8.94964
197 1 22.0139 22.0139 12.5794 -8.94963
590 1 4.71712 11.0069 17.2968 -8.94965
528 1 7.86069 17.3007 11.0082 -8.95487
661 1 3.14484 15.7242 18.8691 -8.94971
530 1 14.1526 17.2983 11.0074 -8.95148
531 1 17.2968 17.2968 11.0069 -8.94922
660 1 1.57242 17.2966 20.4415 -8.94965
533 1 1.57242 20.4415 11.007 -8.94964
589 1 1.57241 11.0069 17.2966 -8.94961
535 1 7.86197 20.4419 11.0071 -8.95009
536 1 11.007 20.4426 11.0071 -8.95081
537 1 14.1519 20.4417 11.007 -8.9496
538 1 17.2966 20.4415 11.0069 -8.94965
659 1 22.0139 15.7242 18.8691 -8.94963
680 1 11.007 20.4415 20.4415 -8.94964
679 1 9.43453 18.8691 18.8691 -8.94962
678 1 7.86211 20.4415 20.4415 -8.94963
677 1 6.28969 18.8691 18.8691 -8.94974
676 1 4.71726 20.4415 20.4415 -8.94965
675 1 3.14482 18.8691 18.8691 -8.9495
674 1 1.57242 20.4415 20.4415 -8.94962
547 1 22.0139 12.5794 12.5794 -8.9501
548 1 1.57221 14.1518 14.1518 -8.95011
549 1 3.14362 12.5793 12.5794 -8.95078
550 1 4.71483 14.1524 14.1525 -8.954
551 1 6.28248 12.5786 12.5811 -8.98878
552 1 7.84168 14.1722 14.1752 -8.87674
553 1 9.23762 12.5773 12.6604 -8.06635
554 1 11.0067 14.1509 14.1481 -8.89965
555 1 12.7692 12.5742 12.6584 -8.11039
556 1 14.1721 14.1721 14.1736 -8.87445
557 1 15.7318 12.5799 12.5811 -8.9871
558 1 17.2992 14.1525 14.1526 -8.95332
559 1 18.8702 12.5794 12.5793 -8.95115
560 1 20.4417 14.1518 14.1518 -8.95015
561 1 22.0139 15.7242 12.5794 -8.94972
562 1 1.57238 17.2967 14.1518 -8.94961
563 1 3.14432 15.7245 12.5795 -8.94986
564 1 4.71687 17.297 14.1521 -8.94858
565 1 6.28512 15.7279 12.582 -8.93959
566 1 7.86111 17.2993 14.1529 -8.95254
567 1 9.42582 15.729 12.5874 -8.91701
568 1 11.007 17.2968 14.1516 -8.95
569 1 12.5896 15.7294 12.5878 -8.91307
570 1 14.153 17.2995 14.153 -8.95173
571 1 15.7259 15.725 12.5789 -8.95164
572 1 17.2967 17.2967 14.1518 -8.95004
573 1 18.8693 15.7243 12.5793 -8.94964
574 1 20.4415 17.2966 14.1518 -8.94963
575 1 -1.87869e-08 18.8691 12.5794 -8.94964
576 1 1.57242 20.4415 14.1518 -8.94965
577 1 3.14482 18.8691 12.5794 -8.94973
578 1 4.71723 20.4415 14.1518 -8.9496
579 1 6.28935 18.8696 12.5795 -8.9495
580 1 7.86203 20.4417 14.1519 -8.95008
581 1 9.43419 18.8702 12.5799 -8.9491
582 1 11.007 20.4416 14.1518 -8.94941
583 1 12.5799 18.8702 12.5799 -8.9494
584 1 14.1519 20.4418 14.1519 -8.9501
585 1 15.7244 18.8693 12.5794 -8.9493
586 1 17.2966 20.4415 14.1518 -8.94962
587 1 18.8691 18.8691 12.5794 -8.94965
588 1 20.4415 20.4415 14.1518 -8.94963
673 1 22.0139 18.8691 18.8691 -8.94962
672 1 20.4415 17.2966 20.4415 -8.94965
671 1 18.8691 15.7242 18.8691 -8.94972
670 1 17.2967 17.2967 20.4415 -8.94961
669 1 15.7244 15.7244 18.8694 -8.94983
668 1 14.1518 17.2966 20.4415 -8.94963
667 1 12.5793 15.7243 18.8693 -8.9496
596 1 3.63951e-07 12.5794 15.7242 -8.94967
597 1 1.57241 14.1518 17.2966 -8.9496
598 1 3.14456 12.5794 15.7244 -8.94943
599 1 4.71712 14.1518 17.2968 -8.94966
600 1 6.28771 12.5793 15.7261 -8.94809
601 1 7.86133 14.1525 17.2993 -8.95367
602 1 9.43165 12.5801 15.7339 -8.9669
603 1 11.0069 14.1525 17.2974 -8.94567
604 1 12.5823 12.5802 15.7343 -8.96667
605 1 14.1526 14.1526 17.2993 -8.95324
606 1 15.7262 12.5795 15.7261 -8.94783
607 1 17.2968 14.1518 17.2968 -8.94966
608 1 18.8693 12.5794 15.7244 -8.94943
609 1 20.4415 14.1518 17.2966 -8.9496
610 1 22.0139 15.7242 15.7242 -8.94973
611 1 1.57239 17.2967 17.2967 -8.94963
612 1 3.14451 15.7244 15.7244 -8.95
613 1 4.71695 17.297 17.297 -8.94828
614 1 6.28666 15.7273 15.7274 -8.93909
615 1 7.86212 17.2967 17.2968 -8.95011
616 1 9.43526 15.7251 15.7257 -8.95002
617 1 11.007 17.2969 17.2968 -8.94875
618 1 12.5787 15.725 15.7257 -8.95048
619 1 14.1518 17.2967 17.2968 -8.95016
620 1 15.7272 15.7273 15.7272 -8.93864
621 1 17.2969 17.2969 17.2969 -8.94825
622 1 18.8694 15.7244 15.7244 -8.94987
623 1 20.4415 17.2967 17.2967 -8.94962
624 1 22.0139 18.8691 15.7242 -8.94963
625 1 1.57242 20.4415 17.2966 -8.94964
626 1 3.14482 18.8691 15.7242 -8.94961
627 1 4.71725 20.4415 17.2967 -8.94962
628 1 6.28952 18.8694 15.7244 -8.94983
629 1 7.86211 20.4415 17.2966 -8.94966
630 1 9.43462 18.8692 15.7243 -8.94977
631 1 11.007 20.4415 17.2967 -8.94962
632 1 12.5793 18.8692 15.7243 -8.94976
633 1 14.1518 20.4415 17.2966 -8.94966
634 1 15.7244 18.8694 15.7244 -8.94966
635 1 17.2967 20.4415 17.2967 -8.9496
636 1 18.8691 18.8691 15.7242 -8.94975
637 1 20.4415 20.4415 17.2966 -8.94965
666 1 11.007 17.2967 20.4415 -8.94962
639 1 4.71725 11.0069 20.4415 -8.94962
665 1 9.43456 15.7243 18.8693 -8.94958
664 1 7.86211 17.2966 20.4415 -8.94962
663 1 6.28952 15.7244 18.8694 -8.94989
643 1 17.2966 11.0069 20.4415 -8.94961
662 1 4.71724 17.2967 20.4415 -8.94962
645 1 22.0139 12.5794 18.8691 -8.94964
646 1 1.57242 14.1518 20.4415 -8.94964
647 1 3.14484 12.5794 18.8691 -8.94969
648 1 4.71725 14.1518 20.4415 -8.94961
649 1 6.28955 12.5794 18.8693 -8.94944
650 1 7.86206 14.1518 20.4417 -8.95021
651 1 9.43455 12.5794 18.8702 -8.95158
652 1 11.0069 14.1519 20.4416 -8.94951
653 1 12.5794 12.5794 18.8702 -8.95176
654 1 14.1518 14.1518 20.4417 -8.9502
655 1 15.7244 12.5794 18.8693 -8.94943
656 1 17.2966 14.1518 20.4415 -8.94961
657 1 18.8691 12.5794 18.8691 -8.94969
658 1 20.4415 14.1518 20.4415 -8.94964
351 1 22.0139 12.5794 22.0139 -8.94963
355 1 6.28967 12.5794 22.0139 -8.94966
357 1 9.43449 12.5794 22.0139 -8.94991
359 1 12.5794 12.5794 22.0138 -8.95034
363 1 18.8691 12.5794 22.0139 -8.94964
367 1 3.14484 15.7242 22.0139 -8.94964
369 1 6.28966 15.7242 22.0139 -8.94972
375 1 15.7242 15.7242 22.0139 -8.94967
377 1 18.8691 15.7242 22.0139 -8.94965
381 1 3.14484 18.8691 22.0139 -8.94962
248 1 3.14484 22.0139 15.7242 -8.94962
258 1 18.8691 22.0139 15.7242 -8.94964
295 1 22.0139 22.0139 18.8691 -8.94963
595 1 20.4415 11.0069 17.2966 -8.94961
594 1 17.2968 11.0069 17.2968 -8.94968
532 1 20.4415 17.2967 11.0069 -8.94963
379 1 22.0139 18.8691 22.0139 -8.94964
