ITEM: TIMESTEP
64
ITEM: NUMBER OF ATOMS
688
ITEM: BOX BOUNDS pp pp pp
0.0000000000000000e+00 2.2013900999999997e+01
0.0000000000000000e+00 2.2013900999999997e+01
0.0000000000000000e+00 2.2013900999999997e+01
ITEM: ATOMS id type x y z c_pot
1 1 22.0139 1.98976e-05 5.40918e-06 -8.94947
2 1 1.57229 1.57236 1.57229 -8.94934
3 1 3.14479 3.77964e-05 -3.89061e-05 -8.94968
4 1 4.71719 1.57234 1.57227 -8.94971
448 1 20.4422 11.0071 7.862 -8.94963
6 1 7.86207 1.57232 1.57225 -8.94959
175 1 18.8714 9.43403 9.43418 -8.9508
8 1 11.007 1.57231 1.57223 -8.94961
174 1 15.7335 9.42895 9.42906 -8.94495
10 1 14.1518 1.57231 1.57227 -8.94957
11 1 15.7242 3.37891e-05 -3.61e-05 -8.9496
12 1 17.2968 1.57228 1.57226 -8.94958
7 1 9.43452 4.62255e-05 -4.87291e-05 -8.94963
14 1 20.4415 1.57239 1.57237 -8.94955
447 1 17.2999 11.0079 7.86236 -8.95166
16 1 1.57231 4.7172 1.57232 -8.94976
446 1 14.1635 11.011 7.85337 -8.97657
18 1 4.71675 4.71677 1.57166 -8.9495
445 1 11.1021 11.0046 7.64251 -8.11491
20 1 7.86194 4.71678 1.57182 -8.94921
56 1 9.43451 0.00013796 3.14449 -8.94958
22 1 11.0069 4.71669 1.57181 -8.94945
444 1 7.88401 11.012 7.8741 -8.87638
24 1 14.152 4.7167 1.57186 -8.94973
443 1 4.71912 11.0075 7.86255 -8.94104
26 1 17.2973 4.71654 1.57175 -8.94847
442 1 1.57197 11.0069 7.86167 -8.94795
28 1 20.4417 4.71713 1.57231 -8.9496
397 1 14.1604 11.0075 4.70844 -8.94282
30 1 1.57232 7.86208 1.57231 -8.9495
396 1 11.0114 11.0074 4.71915 -9.00117
32 1 4.71702 7.86221 1.57225 -8.94979
395 1 7.86451 11.0074 4.72 -8.94656
34 1 7.86177 7.86186 1.57101 -8.95183
35 1 9.43431 6.28915 -0.000332026 -8.94951
36 1 11.0065 7.86127 1.57053 -8.95018
37 1 12.5794 6.28918 -0.000316194 -8.94953
38 1 14.1529 7.86089 1.56967 -8.9517
518 1 20.4425 11.0071 11.0067 -8.94986
40 1 17.2973 7.8618 1.57191 -8.94953
350 1 20.4417 11.0069 1.57229 -8.94959
42 1 20.4417 7.86205 1.5723 -8.94953
58 1 12.5795 0.000133237 3.14451 -8.94953
44 1 3.1446 9.43447 2.87263e-05 -8.94952
348 1 14.1532 11.007 1.5699 -8.94956
347 1 11.0066 11.007 1.57144 -8.94716
346 1 7.86182 11.0069 1.57254 -8.94855
48 1 15.7249 9.43426 -0.000118055 -8.94978
149 1 3.14447 0.000142861 9.4345 -8.94952
50 1 -3.70125e-05 4.37658e-05 3.14478 -8.94958
51 1 1.57226 1.57233 4.71718 -8.94967
52 1 3.14454 0.000120327 3.14453 -8.9493
53 1 4.71674 1.57203 4.71672 -8.9498
517 1 17.3011 11.0072 11.0064 -8.95374
55 1 7.86202 1.57208 4.71678 -8.94945
173 1 12.5979 9.4099 9.39054 -8.83563
57 1 11.0071 1.57203 4.71672 -8.94951
172 1 9.36766 9.20408 9.44044 -8.13151
59 1 14.1521 1.57199 4.71689 -8.95015
516 1 14.1695 10.982 10.9971 -8.93529
61 1 17.2969 1.57236 4.71709 -8.9496
62 1 18.8692 8.83087e-05 3.14471 -8.9494
63 1 20.4415 1.57238 4.71723 -8.94965
64 1 22.0138 3.14471 3.14471 -8.94954
65 1 1.5717 4.7168 4.71679 -8.94957
66 1 3.14424 3.14433 3.14423 -8.94859
67 1 4.71467 4.71479 4.71464 -8.94533
68 1 6.28948 3.14435 3.14433 -8.94971
69 1 7.86155 4.7153 4.71568 -8.94915
70 1 9.43447 3.14424 3.14427 -8.94948
71 1 11.0071 4.71508 4.71558 -8.94816
72 1 12.5795 3.1442 3.14432 -8.94929
73 1 14.1536 4.7139 4.71532 -8.95021
74 1 15.7248 3.14398 3.14426 -8.94958
75 1 17.2976 4.71634 4.71663 -8.94906
76 1 18.8693 3.14465 3.14468 -8.94953
77 1 20.4416 4.71702 4.71708 -8.9496
78 1 22.0139 6.28963 3.14471 -8.94977
79 1 1.5721 7.86218 4.71701 -8.94973
80 1 3.1444 6.28961 3.14444 -8.95023
81 1 4.71606 7.86242 4.7163 -8.95171
82 1 6.288 6.28814 3.14193 -8.95005
83 1 7.85772 7.85789 4.70919 -8.95432
84 1 9.43399 6.2881 3.14268 -8.94786
85 1 11.0063 7.85808 4.70975 -8.95037
86 1 12.5796 6.28798 3.14253 -8.94923
87 1 14.1636 7.85056 4.70434 -8.93117
88 1 15.7273 6.28654 3.14151 -8.94488
89 1 17.2997 7.86077 4.71563 -8.95133
90 1 18.8699 6.28922 3.14434 -8.94981
91 1 20.442 7.86197 4.71701 -8.95009
92 1 2.06329e-05 9.43448 3.14463 -8.94956
93 1 3.14439 9.4345 3.14438 -8.94908
94 1 6.28945 9.43529 3.14443 -8.94956
95 1 9.43461 9.43464 3.14347 -8.95083
96 1 12.5813 9.43331 3.13667 -8.96025
97 1 15.7266 9.43381 3.14234 -8.94803
98 1 18.8699 9.43438 3.14433 -8.94927
513 1 4.71758 11.0071 11.0068 -8.94331
100 1 1.57223 1.57232 7.86207 -8.9496
189 1 20.4417 4.7169 11.0069 -8.94956
102 1 4.71669 1.57196 7.86192 -8.94941
103 1 6.28904 0.000749768 6.28903 -8.95051
104 1 7.86185 1.57172 7.86183 -8.95149
171 1 6.27919 9.42571 9.43162 -8.96648
106 1 11.007 1.5722 7.86179 -8.94992
170 1 3.14207 9.43481 9.43422 -8.95213
108 1 14.1522 1.57222 7.86193 -8.95029
109 1 15.7248 0.000611429 6.28927 -8.94982
110 1 17.2969 1.57227 7.86205 -8.94955
188 1 17.2977 4.71606 11.0068 -8.94888
112 1 20.4415 1.57237 7.86208 -8.94961
113 1 -0.00011399 3.14469 6.28962 -8.94956
114 1 1.57172 4.71677 7.86193 -8.94934
115 1 3.14425 3.14429 6.28939 -8.94948
116 1 4.71512 4.71505 7.86123 -8.9483
117 1 6.28859 3.1426 6.28856 -8.95121
118 1 7.86007 4.71064 7.86084 -8.958
119 1 9.43462 3.14296 6.28875 -8.94992
120 1 11.0065 4.71424 7.86139 -8.95079
121 1 12.5797 3.14296 6.28916 -8.9517
122 1 14.1531 4.71422 7.86166 -8.95063
123 1 15.7248 3.14397 6.28941 -8.94982
124 1 17.2976 4.71622 7.86184 -8.94925
125 1 18.8693 3.1446 6.2896 -8.94958
126 1 20.4416 4.71695 7.86201 -8.94952
127 1 22.0136 6.2894 6.28942 -8.9501
128 1 1.57074 7.86183 7.86176 -8.95159
129 1 3.14204 6.28832 6.28822 -8.95032
130 1 4.70851 7.8589 7.85923 -8.95629
131 1 6.27967 6.28005 6.27996 -8.93184
132 1 7.82574 7.82988 7.83169 -8.85973
133 1 9.43391 6.2829 6.2858 -8.9497
134 1 11.0202 7.85181 7.83954 -8.90068
135 1 12.584 6.27984 6.28395 -8.95357
136 1 14.1651 7.85116 7.85416 -8.93359
137 1 15.7281 6.28615 6.28726 -8.94641
138 1 17.3011 7.85982 7.86068 -8.9494
139 1 18.8702 6.28893 6.28919 -8.94936
140 1 20.4422 7.86174 7.86187 -8.95044
141 1 22.0139 9.43456 6.28944 -8.94977
142 1 3.14386 9.43519 6.28921 -8.94968
143 1 6.28778 9.43786 6.28933 -8.95409
144 1 9.42339 9.41643 6.28524 -8.91094
145 1 12.6201 9.39997 6.24795 -8.86774
146 1 15.7336 9.43272 6.28585 -8.9595
147 1 18.871 9.43453 6.28936 -8.95142
148 1 -4.92373e-05 4.85906e-05 9.43452 -8.94963
169 1 22.0137 9.43452 9.43439 -8.95015
168 1 18.8702 6.28875 9.43433 -8.94908
151 1 9.43463 0.00149223 9.43447 -8.95091
152 1 12.5796 0.00123061 9.43448 -8.95111
167 1 15.7272 6.28602 9.43379 -8.94654
166 1 12.5797 6.28428 9.43257 -8.95443
155 1 22.0138 3.14466 9.43451 -8.94959
156 1 3.14418 3.14424 9.43448 -8.94952
157 1 6.28828 3.14235 9.43443 -8.94945
158 1 9.43454 3.14342 9.43439 -8.94767
159 1 12.5797 3.14337 9.43435 -8.95008
160 1 15.7249 3.14378 9.43442 -8.94955
161 1 18.8694 3.14453 9.43447 -8.94956
162 1 -0.000371025 6.28926 9.43443 -8.94971
163 1 3.14205 6.28817 9.43432 -8.94881
164 1 6.28198 6.28166 9.43428 -8.94424
165 1 9.43126 6.28971 9.43485 -9.00238
344 1 1.57228 11.0069 1.57228 -8.94963
183 1 1.57169 4.71673 11.007 -8.94939
181 1 17.297 1.57224 11.007 -8.94956
154 1 18.8692 9.95852e-05 9.43451 -8.94959
177 1 4.71665 1.57194 11.0071 -8.9494
9 1 12.5794 4.5207e-05 -4.69926e-05 -8.94962
184 1 4.71496 4.71485 11.0075 -8.94802
512 1 1.57165 11.0069 11.007 -8.94819
41 1 18.8693 6.28952 4.13999e-05 -8.94961
19 1 6.28963 3.14469 -9.41104e-05 -8.94954
25 1 15.7243 3.14468 -7.91725e-05 -8.94969
176 1 1.57222 1.57232 11.007 -8.94962
199 1 3.14448 0.000149338 12.5795 -8.9495
178 1 7.86185 1.57151 11.0071 -8.95142
179 1 11.007 1.57188 11.007 -8.94935
180 1 14.1522 1.57204 11.007 -8.94984
644 1 20.4416 11.0069 20.4416 -8.94962
182 1 20.4415 1.57237 11.007 -8.94963
642 1 14.1523 11.0069 20.4431 -8.95163
209 1 18.8693 0.000106451 12.5794 -8.94959
185 1 7.85998 4.70987 11.008 -8.95822
186 1 11.0069 4.71378 11.0071 -8.95109
187 1 14.1531 4.71429 11.0064 -8.94945
641 1 11.0068 11.0068 20.4426 -8.94863
640 1 7.86173 11.0068 20.4433 -8.95112
190 1 1.57061 7.86165 11.0069 -8.95115
191 1 4.70841 7.8587 11.0082 -8.95576
192 1 7.82591 7.82676 11.0394 -8.86228
193 1 11.0285 7.85066 11.0314 -8.96702
194 1 14.1601 7.85344 11.0045 -8.95771
195 1 17.3005 7.85986 11.006 -8.94774
196 1 20.4422 7.86156 11.0068 -8.94979
343 1 18.8697 9.43431 18.8697 -8.94943
198 1 1.57224 1.57233 14.1519 -8.94963
342 1 15.7259 9.43337 18.8723 -8.95046
200 1 4.7167 1.57193 14.1522 -8.94977
341 1 12.5792 9.43384 18.8726 -8.95214
202 1 7.862 1.57188 14.1522 -8.95017
203 1 9.43468 0.000434487 12.5798 -8.94989
204 1 11.007 1.57171 14.1523 -8.9494
205 1 12.5795 0.000235847 12.5796 -8.95006
206 1 14.1521 1.57158 14.1521 -8.95096
340 1 9.43466 9.43387 18.8718 -8.95015
208 1 17.2969 1.57227 14.1518 -8.9496
339 1 6.2882 9.43334 18.8721 -8.95054
210 1 20.4415 1.57238 14.1518 -8.9496
211 1 -0.000111964 3.14467 12.5794 -8.94956
212 1 1.57165 4.71674 14.1522 -8.94963
213 1 3.14419 3.14423 12.5796 -8.94945
214 1 4.71435 4.71428 14.1543 -8.94511
215 1 6.28844 3.1422 12.5803 -8.9511
216 1 7.86124 4.71336 14.1536 -8.95175
217 1 9.43474 3.14242 12.5801 -8.9501
218 1 11.007 4.71405 14.1539 -8.94709
219 1 12.5797 3.14201 12.5797 -8.95264
220 1 14.1545 4.71113 14.1544 -8.95199
221 1 15.7249 3.14378 12.5793 -8.94957
222 1 17.2978 4.71601 14.152 -8.94977
223 1 18.8693 3.14454 12.5794 -8.94948
224 1 20.4417 4.71696 14.1519 -8.94967
225 1 22.0136 6.2893 12.5795 -8.94998
226 1 1.57161 7.86183 14.152 -8.94974
227 1 3.14185 6.28816 12.5804 -8.9506
228 1 4.71376 7.86084 14.1531 -8.95129
229 1 6.27865 6.27846 12.5888 -8.93072
230 1 7.85112 7.8474 14.1668 -8.95488
231 1 9.43445 6.28088 12.5839 -8.95206
232 1 11.0069 7.8567 14.1616 -8.94641
233 1 12.5863 6.27532 12.5865 -8.95449
234 1 14.1723 7.83867 14.1723 -8.92177
235 1 15.7281 6.28584 12.5795 -8.94962
236 1 17.3026 7.85895 14.154 -8.95096
237 1 18.8703 6.28884 12.5793 -8.94951
238 1 20.4426 7.86161 14.152 -8.95022
239 1 22.0139 9.43434 12.5794 -8.95039
240 1 3.14197 9.4344 12.5794 -8.95037
241 1 6.28024 9.43395 12.5802 -8.95484
242 1 9.39956 9.40721 12.6113 -8.86618
243 1 12.6486 9.38399 12.6451 -8.77553
244 1 15.7421 9.42821 12.5831 -8.96063
245 1 18.8731 9.43378 12.5793 -8.95263
246 1 -3.80214e-05 4.09905e-05 15.7243 -8.94963
247 1 1.57227 1.57235 17.2968 -8.94941
47 1 12.5794 9.43429 22.0131 -8.95169
249 1 4.71707 1.57229 17.2969 -8.94987
250 1 6.28947 0.000463019 15.7246 -8.95024
251 1 7.86208 1.57223 17.2969 -8.94953
252 1 9.4346 0.000125259 15.7246 -8.94945
253 1 11.0069 1.5722 17.297 -8.94965
254 1 12.5794 7.80403e-05 15.7246 -8.94938
255 1 14.1518 1.5722 17.2969 -8.94953
256 1 15.7245 0.000316325 15.7246 -8.95037
257 1 17.2969 1.57216 17.2969 -8.94967
46 1 9.43435 9.43437 22.014 -8.94963
259 1 20.4415 1.57237 17.2967 -8.94965
260 1 22.0138 3.14469 15.7243 -8.94958
261 1 1.57222 4.71708 17.2968 -8.94985
262 1 3.14416 3.14421 15.7248 -8.9486
263 1 4.71616 4.71588 17.298 -8.94911
264 1 6.28925 3.14373 15.7249 -8.95038
265 1 7.86194 4.71625 17.2976 -8.94911
266 1 9.43447 3.14377 15.725 -8.94937
267 1 11.0069 4.71599 17.2978 -8.94926
268 1 12.5794 3.14367 15.725 -8.94918
269 1 14.152 4.71608 17.2977 -8.94967
270 1 15.7251 3.14313 15.7251 -8.95001
271 1 17.2981 4.71555 17.298 -8.94765
272 1 18.8693 3.14455 15.7243 -8.94972
273 1 20.4418 4.71698 17.2969 -8.94963
274 1 22.014 6.28944 15.7244 -8.94977
275 1 1.57175 7.86168 17.2972 -8.94977
276 1 3.14383 6.28912 15.7248 -8.95034
277 1 4.71431 7.85951 17.2997 -8.94506
278 1 6.28581 6.28461 15.7292 -8.94932
279 1 7.8613 7.86032 17.3005 -8.95254
280 1 9.43427 6.28655 15.7275 -8.94725
281 1 11.0065 7.85948 17.3011 -8.94724
282 1 12.5795 6.28621 15.728 -8.9487
283 1 14.1535 7.85939 17.302 -8.95269
284 1 15.7301 6.28258 15.7301 -8.94203
285 1 17.2998 7.85938 17.2999 -8.94544
286 1 18.8707 6.28862 15.725 -8.94981
287 1 20.4422 7.86169 17.2972 -8.94981
288 1 -8.62203e-06 9.43429 15.7246 -8.95033
289 1 3.14195 9.43352 15.7256 -8.95084
290 1 6.27857 9.42492 15.7357 -8.93069
291 1 9.43517 9.43174 15.7337 -8.95205
292 1 12.5807 9.4309 15.7396 -8.96231
293 1 15.7363 9.42491 15.7365 -8.93185
294 1 18.8721 9.43363 15.7256 -8.95091
45 1 6.28934 9.43444 22.0143 -8.94987
296 1 1.57234 1.57238 20.4415 -8.9495
297 1 3.14469 0.000138684 18.8692 -8.94958
298 1 4.71724 1.57238 20.4415 -8.94966
299 1 6.28969 6.07072e-05 18.8692 -8.94968
300 1 7.86208 1.57236 20.4415 -8.9496
338 1 3.14417 9.43427 18.8697 -8.94942
302 1 11.007 1.57236 20.4415 -8.94963
337 1 22.0139 9.43445 18.8693 -8.94952
304 1 14.1518 1.57237 20.4415 -8.94959
305 1 15.7242 4.98578e-05 18.8692 -8.94969
306 1 17.2967 1.57237 20.4415 -8.94972
307 1 18.8692 0.000106148 18.8692 -8.94948
308 1 20.4416 1.57239 20.4415 -8.94946
309 1 22.0139 3.14477 18.8691 -8.94967
310 1 1.57232 4.71714 20.4416 -8.94944
311 1 3.14457 3.14455 18.8694 -8.94941
312 1 4.71706 4.717 20.4416 -8.94989
313 1 6.28962 3.14459 18.8693 -8.94957
314 1 7.86199 4.71692 20.4416 -8.94944
315 1 9.43448 3.1445 18.8694 -8.94954
316 1 11.0069 4.71687 20.4417 -8.94959
317 1 12.5794 3.14451 18.8694 -8.94952
318 1 14.1518 4.71692 20.4417 -8.9495
319 1 15.7243 3.14456 18.8693 -8.94974
320 1 17.2969 4.71689 20.4417 -8.94965
321 1 18.8694 3.14451 18.8693 -8.94915
322 1 20.4416 4.71712 20.4416 -8.94944
323 1 22.0139 6.28949 18.8693 -8.94956
324 1 1.57228 7.86203 20.4416 -8.94962
325 1 3.14419 6.28909 18.8697 -8.9486
326 1 4.71674 7.8617 20.4422 -8.94961
327 1 6.28923 6.28895 18.8702 -8.95051
328 1 7.86193 7.86172 20.4421 -8.95016
329 1 9.43427 6.2887 18.8703 -8.94909
330 1 11.0068 7.86137 20.4423 -8.94991
331 1 12.5794 6.28872 18.8703 -8.94914
332 1 14.1521 7.86154 20.4422 -8.95062
333 1 15.725 6.28863 18.8705 -8.95026
334 1 17.2973 7.86165 20.4422 -8.94957
335 1 18.8698 6.28905 18.8698 -8.9487
336 1 20.4416 7.86203 20.4416 -8.94964
29 1 22.0139 6.28965 22.0139 -8.94963
638 1 1.57226 11.0069 20.4416 -8.94961
514 1 7.87605 10.9896 10.9872 -8.84135
515 1 11.1031 10.7208 11.114 -7.30278
27 1 18.8692 3.14467 22.0138 -8.94938
39 1 15.7247 6.2891 22.0134 -8.94999
593 1 14.1555 11.0057 17.3069 -8.95622
540 1 1.57079 11.0069 14.1523 -8.95112
541 1 4.7091 11.0059 14.155 -8.95627
542 1 7.8282 10.9752 14.1904 -8.85288
543 1 11.0064 11.0106 14.1525 -8.96612
544 1 14.1892 10.9785 14.193 -8.85855
545 1 17.3054 11.0065 14.1548 -8.95674
546 1 20.443 11.007 14.1521 -8.95125
33 1 6.28942 6.2894 22.0136 -8.95025
31 1 3.14467 6.2896 22.014 -8.94964
591 1 7.85899 11.0051 17.3059 -8.95668
592 1 11.0067 11.0074 17.3001 -8.94505
5 1 6.28966 3.54603e-05 22.0139 -8.94959
15 1 22.0139 3.14479 22.0139 -8.94955
17 1 3.1447 3.14469 22.0138 -8.94957
23 1 12.5794 3.14465 22.0138 -8.94958
13 1 18.8691 3.57659e-05 22.0139 -8.94957
21 1 9.4345 3.14464 22.0138 -8.9496
43 1 22.0139 9.43451 22.0139 -8.94963
49 1 18.8693 9.43447 22.0139 -8.94955
688 3 10.1668 11.0387 9.38771 2.39804
511 1 18.8697 18.8696 9.43446 -8.94928
510 1 15.726 18.8712 9.43434 -8.9492
509 1 12.5811 18.8767 9.43243 -8.95832
508 1 9.43349 18.8784 9.43244 -8.95803
349 1 17.2974 11.0069 1.57187 -8.94951
507 1 6.28682 18.8736 9.43416 -8.94883
539 1 20.4416 20.4417 11.007 -8.9496
352 1 1.5723 14.1518 1.5723 -8.94953
353 1 3.14459 12.5794 2.71446e-05 -8.94956
354 1 4.71694 14.1516 1.57217 -8.94963
153 1 15.7247 22.0143 9.43455 -8.94957
356 1 7.86172 14.1518 1.571 -8.95211
150 1 6.28902 22.0145 9.43452 -8.94995
358 1 11.0066 14.1523 1.57031 -8.95019
345 1 4.71679 11.0069 1.57203 -8.94961
360 1 14.1529 14.1528 1.56995 -8.9514
361 1 15.7249 12.5796 -0.000118821 -8.94958
362 1 17.2974 14.1521 1.57188 -8.94941
107 1 12.5796 22.0146 6.28914 -8.94989
364 1 20.4417 14.1518 1.57229 -8.94956
365 1 22.0139 15.7242 9.36866e-06 -8.94961
366 1 1.5723 17.2967 1.57231 -8.94976
105 1 9.43451 22.0146 6.289 -8.94969
368 1 4.71666 17.2971 1.57167 -8.94963
529 1 11.0075 17.2976 11.0027 -9.01192
370 1 7.86185 17.2972 1.57138 -8.94969
371 1 9.43442 15.7247 -0.000434095 -8.94977
372 1 11.007 17.2974 1.57134 -8.9497
373 1 12.5794 15.7247 -0.000441426 -8.9498
374 1 14.1521 17.2973 1.57145 -8.95024
526 1 1.5712 17.2974 11.0069 -8.94932
376 1 17.2973 17.2973 1.5719 -8.94861
525 1 20.4418 14.1519 11.0068 -8.94954
378 1 20.4417 17.2968 1.57231 -8.94956
111 1 18.8692 22.014 6.28962 -8.9497
380 1 1.57226 20.4416 1.57231 -8.9494
495 1 12.5489 12.5717 9.45106 -8.83071
382 1 4.7171 20.4417 1.57214 -8.94967
383 1 6.2896 18.8693 -0.000152442 -8.94969
384 1 7.86204 20.4417 1.57214 -8.94951
494 1 9.3602 12.839 9.46016 -7.9565
386 1 11.007 20.4418 1.57212 -8.94957
493 1 6.28428 12.587 9.43719 -8.97113
388 1 14.1519 20.4417 1.57216 -8.94949
389 1 15.7243 18.8693 -0.000144917 -8.94983
390 1 17.2969 20.4417 1.57214 -8.94949
391 1 18.8693 18.8693 4.01513e-05 -8.94936
392 1 20.4415 20.4415 1.5724 -8.94966
506 1 3.14362 18.8701 9.43441 -8.94916
394 1 4.71599 11.0068 4.7158 -8.94647
505 1 22.0137 18.8694 9.43446 -8.94952
504 1 18.8709 15.7247 9.43442 -8.95202
503 1 15.7335 15.7289 9.43109 -8.95591
398 1 17.2998 11.0069 4.71555 -8.94858
399 1 20.4421 11.0069 4.71688 -8.94978
400 1 1.64848e-05 12.5794 3.14463 -8.94959
401 1 1.572 14.1517 4.71692 -8.94963
402 1 3.14434 12.5793 3.14433 -8.9492
403 1 4.71576 14.1513 4.71607 -8.95092
404 1 6.28917 12.5785 3.14416 -8.94923
405 1 7.85763 14.155 4.70844 -8.95506
406 1 9.43448 12.579 3.1439 -8.94854
407 1 11.0066 14.1543 4.70884 -8.95223
408 1 12.5815 12.5803 3.13779 -8.95766
409 1 14.1629 14.1614 4.70587 -8.93002
410 1 15.7267 12.5801 3.14226 -8.94791
411 1 17.2998 14.1531 4.71562 -8.95013
412 1 18.8699 12.5795 3.14431 -8.94939
413 1 20.4421 14.152 4.71695 -8.94998
414 1 22.0139 15.7243 3.14468 -8.9497
415 1 1.57161 17.297 4.71676 -8.94968
416 1 3.14434 15.7242 3.14439 -8.95009
417 1 4.71421 17.2993 4.71414 -8.9455
418 1 6.28789 15.7256 3.14163 -8.9503
419 1 7.86045 17.2996 4.71296 -8.95072
420 1 9.43403 15.7256 3.14132 -8.9498
421 1 11.0072 17.2999 4.71302 -8.94748
422 1 12.5799 15.7256 3.14126 -8.95149
423 1 14.1549 17.3009 4.71272 -8.95132
424 1 15.7271 15.7268 3.14194 -8.94488
425 1 17.2974 17.297 4.71687 -8.95077
426 1 18.8699 15.7247 3.14435 -8.94951
427 1 20.4415 17.2967 4.71715 -8.94976
428 1 22.0137 18.8692 3.14472 -8.94962
429 1 1.57212 20.4417 4.71706 -8.94957
430 1 3.14413 18.8696 3.14415 -8.94868
431 1 4.7162 20.4427 4.71618 -8.94856
432 1 6.2891 18.87 3.14362 -8.94984
433 1 7.86186 20.4425 4.71636 -8.94934
434 1 9.43438 18.8701 3.14363 -8.94919
435 1 11.0071 20.4425 4.7163 -8.94947
436 1 12.5796 18.8701 3.1437 -8.949
437 1 14.1523 20.4425 4.71651 -8.95006
438 1 15.7252 18.8703 3.14358 -8.94952
439 1 17.2974 20.4421 4.71664 -8.94842
440 1 18.8692 18.8692 3.14472 -8.94994
441 1 20.4416 20.4416 4.71712 -8.94954
502 1 12.6161 15.7607 9.38956 -8.82981
501 1 9.3925 15.7648 9.3922 -8.90362
500 1 6.27281 15.7365 9.43012 -8.94926
499 1 3.14049 15.7257 9.43424 -8.95129
498 1 -0.000542885 15.7245 9.43442 -8.95038
497 1 18.8697 12.5799 9.43431 -8.94665
496 1 15.7202 12.5796 9.4366 -8.93613
449 1 22.0139 12.5793 6.28939 -8.94991
450 1 1.57059 14.1518 7.86174 -8.95131
451 1 3.14347 12.5786 6.28894 -8.94954
452 1 4.70827 14.1536 7.85974 -8.95741
453 1 6.28664 12.5761 6.28885 -8.94936
454 1 7.82288 14.1842 7.82837 -8.85476
455 1 9.42397 12.5983 6.29043 -8.9033
456 1 11.0207 14.1653 7.83507 -8.93638
457 1 12.6182 12.6123 6.25615 -8.84537
458 1 14.1554 14.1487 7.86246 -8.95129
459 1 15.7343 12.5816 6.28568 -8.95452
460 1 17.2983 14.1515 7.86246 -8.94913
461 1 18.8712 12.5796 6.28916 -8.95145
462 1 20.4418 14.1519 7.86194 -8.94968
463 1 22.0134 15.7244 6.28942 -8.94996
464 1 1.57121 17.2972 7.86175 -8.95003
465 1 3.14179 15.7252 6.2882 -8.95066
466 1 4.71197 17.3003 7.85957 -8.94872
467 1 6.27831 15.734 6.27827 -8.93215
468 1 7.8485 17.315 7.84901 -8.93659
469 1 9.43249 15.7327 6.27792 -8.96051
470 1 11.007 17.3068 7.85349 -8.94352
471 1 12.5863 15.7353 6.27588 -8.9644
472 1 14.1639 17.3087 7.85087 -8.92658
473 1 15.7264 15.7246 6.28894 -8.95271
474 1 17.3001 17.2985 7.86058 -8.95041
475 1 18.8697 15.7243 6.28959 -8.94961
476 1 20.4419 17.297 7.86188 -8.9503
477 1 -0.000142235 18.8693 6.28951 -8.94977
478 1 1.57213 20.4417 7.86204 -8.94954
479 1 3.14345 18.8701 6.28891 -8.94937
480 1 4.71631 20.4426 7.8618 -8.94952
481 1 6.28562 18.8744 6.2856 -8.94572
482 1 7.86092 20.4454 7.86091 -8.95279
483 1 9.4341 18.8731 6.28678 -8.94812
484 1 11.0072 20.4447 7.86072 -8.94917
485 1 12.5805 18.8729 6.28724 -8.95009
486 1 14.1531 20.4443 7.86111 -8.95133
487 1 15.7274 18.8722 6.28687 -8.9442
488 1 17.2972 20.4421 7.86197 -8.94975
489 1 18.87 18.8696 6.28918 -8.94952
490 1 20.4416 20.4416 7.86207 -8.94956
491 1 22.0135 12.5793 9.43434 -8.94942
492 1 3.14245 12.5788 9.43424 -8.9498
519 1 1.57025 14.1519 11.007 -8.95145
520 1 4.70689 14.1543 11.0095 -8.95971
522 1 11.0169 14.4256 10.9329 -8.01589
523 1 14.1529 14.1658 10.9943 -8.92377
524 1 17.2979 14.1516 11.0069 -8.94967
393 1 1.57194 11.0069 4.71674 -8.94948
54 1 6.28959 22.014 3.14455 -8.94961
60 1 15.7244 22.014 3.14458 -8.94984
99 1 22.0139 22.0139 6.28966 -8.94962
101 1 3.14451 22.014 6.28955 -8.94959
527 1 4.71297 17.3004 11.0074 -8.94647
534 1 4.7163 20.4427 11.0071 -8.94927
687 3 10.9841 12.6087 11.7447 2.30733
686 1 20.4416 20.4416 20.4416 -8.94937
685 1 18.8696 18.8696 18.8696 -8.94869
684 1 17.2967 20.4416 20.4416 -8.94979
683 1 15.7243 18.8695 18.8695 -8.95019
682 1 14.1518 20.4416 20.4416 -8.94951
681 1 12.5794 18.8696 18.8695 -8.94912
303 1 12.5794 22.014 18.8692 -8.9496
301 1 9.43451 22.014 18.8692 -8.9496
521 1 7.81526 14.2083 11.0332 -8.80588
387 1 12.5794 18.8694 22.0138 -8.94955
207 1 15.7247 22.0143 12.5795 -8.94948
201 1 6.28911 22.0145 12.5798 -8.9503
385 1 9.43449 18.8694 22.0138 -8.94958
197 1 22.0139 22.0139 12.5794 -8.94963
590 1 4.71473 11.0063 17.2992 -8.94799
528 1 7.85625 17.3113 11.009 -8.95834
661 1 3.14422 15.7245 18.8697 -8.94944
530 1 14.1557 17.3027 11.0069 -8.94969
531 1 17.2989 17.2983 11.0069 -8.9478
660 1 1.5723 17.2967 20.4416 -8.94966
533 1 1.57212 20.4418 11.007 -8.94958
589 1 1.57174 11.0068 17.2972 -8.94942
535 1 7.86134 20.4447 11.0075 -8.95176
536 1 11.0072 20.4431 11.0073 -8.94756
537 1 14.1527 20.4433 11.0073 -8.94981
538 1 17.2972 20.4421 11.007 -8.94948
659 1 22.0139 15.7243 18.8693 -8.94949
680 1 11.007 20.4417 20.4416 -8.94963
679 1 9.43455 18.8696 18.8696 -8.94915
678 1 7.86209 20.4416 20.4416 -8.94952
677 1 6.28961 18.8696 18.8696 -8.95015
676 1 4.71721 20.4416 20.4416 -8.94977
675 1 3.1442 18.8697 18.8698 -8.94856
674 1 1.5723 20.4416 20.4416 -8.94935
547 1 22.0137 12.5794 12.5794 -8.9492
548 1 1.57093 14.1518 14.1521 -8.95103
549 1 3.14277 12.5787 12.5796 -8.94674
550 1 4.70968 14.1524 14.1544 -8.95909
551 1 6.2901 12.5761 12.5846 -8.99899
552 1 7.82637 14.1842 14.1944 -8.86994
553 1 9.20969 12.5818 12.659 -8.11595
554 1 11.0067 14.1414 14.1319 -8.9093
555 1 12.7797 12.5588 12.6494 -8.17324
556 1 14.1814 14.1767 14.1842 -8.87527
557 1 15.7255 12.5792 12.5841 -8.99436
558 1 17.3033 14.1533 14.154 -8.95668
559 1 18.8709 12.5797 12.5794 -8.94788
560 1 20.4427 14.152 14.152 -8.95098
561 1 22.0134 15.7246 12.5794 -8.95043
562 1 1.57119 17.2974 14.1523 -8.94962
563 1 3.14012 15.7261 12.5804 -8.95136
564 1 4.7124 17.3009 14.1552 -8.94404
565 1 6.27158 15.7387 12.591 -8.92985
566 1 7.85692 17.3069 14.1583 -8.9515
567 1 9.41208 15.7364 12.5988 -8.8938
568 1 11.0076 17.2959 14.1512 -8.94439
569 1 12.6054 15.7339 12.5989 -8.88308
570 1 14.1578 17.3056 14.1577 -8.94947
571 1 15.7306 15.7266 12.5791 -8.95476
572 1 17.2986 17.2981 14.1522 -8.95017
573 1 18.8708 15.7249 12.5791 -8.95043
574 1 20.4418 17.297 14.1519 -8.94975
575 1 -0.000152734 18.8694 12.5794 -8.94954
576 1 1.57216 20.4417 14.1519 -8.94959
577 1 3.14367 18.8701 12.5797 -8.94929
578 1 4.71641 20.4427 14.1524 -8.94945
579 1 6.2871 18.8737 12.581 -8.94946
580 1 7.86196 20.4434 14.1524 -8.95183
581 1 9.43503 18.8723 12.5801 -8.95116
582 1 11.0072 20.442 14.1524 -8.94836
583 1 12.5799 18.8713 12.5796 -8.95206
584 1 14.1522 20.4431 14.1523 -8.95205
585 1 15.7257 18.8709 12.5797 -8.94803
586 1 17.2971 20.442 14.1519 -8.94934
587 1 18.8697 18.8696 12.5794 -8.94936
588 1 20.4416 20.4416 14.1518 -8.94955
673 1 22.0139 18.8693 18.8693 -8.9496
672 1 20.4416 17.2967 20.4416 -8.94962
671 1 18.8697 15.7246 18.8696 -8.94937
670 1 17.2972 17.2972 20.442 -8.94955
669 1 15.7255 15.7256 18.8716 -8.95036
668 1 14.1518 17.297 20.4417 -8.94973
667 1 12.5789 15.7248 18.8702 -8.94983
596 1 -4.50529e-05 12.5794 15.7247 -8.95003
597 1 1.57175 14.152 17.2972 -8.94934
598 1 3.14192 12.5794 15.7259 -8.94904
599 1 4.71486 14.1525 17.2991 -8.94796
600 1 6.28129 12.5791 15.733 -8.94263
601 1 7.85902 14.1543 17.3064 -8.95793
602 1 9.42722 12.5804 15.7354 -8.96997
603 1 11.0069 14.152 17.296 -8.93994
604 1 12.5863 12.58 15.7352 -8.96817
605 1 14.1548 14.1543 17.3047 -8.9558
606 1 15.7329 12.5806 15.7329 -8.94207
607 1 17.299 14.1529 17.2989 -8.94791
608 1 18.8719 12.5797 15.7258 -8.94924
609 1 20.4421 14.152 17.2972 -8.94939
610 1 22.0138 15.7245 15.7245 -8.95031
611 1 1.5718 17.2971 17.2971 -8.94998
612 1 3.14221 15.7252 15.7255 -8.9516
613 1 4.71437 17.2996 17.2999 -8.94534
614 1 6.27873 15.7351 15.7368 -8.93294
615 1 7.86242 17.2979 17.2984 -8.95137
616 1 9.43764 15.7253 15.7283 -8.95381
617 1 11.0071 17.2983 17.2982 -8.94696
618 1 12.5771 15.7245 15.7275 -8.95567
619 1 14.1517 17.2977 17.2981 -8.95166
620 1 15.7331 15.7331 15.7332 -8.93464
621 1 17.299 17.2991 17.299 -8.94587
622 1 18.8714 15.7253 15.7253 -8.95078
623 1 20.442 17.2971 17.2971 -8.94979
624 1 22.0137 18.8693 15.7244 -8.94957
625 1 1.57219 20.4417 17.2968 -8.94944
626 1 3.1437 18.8701 15.725 -8.94852
627 1 4.71674 20.4423 17.2973 -8.94952
628 1 6.28794 18.8725 15.7264 -8.94977
629 1 7.86227 20.4419 17.2969 -8.94965
630 1 9.43536 18.87 15.7249 -8.94906
631 1 11.007 20.442 17.2971 -8.94968
632 1 12.5789 18.8698 15.7248 -8.94895
633 1 14.1517 20.4418 17.2969 -8.94964
634 1 15.7261 18.8721 15.7262 -8.94918
635 1 17.2972 20.4423 17.2972 -8.94935
636 1 18.8696 18.8696 15.7244 -8.94986
637 1 20.4416 20.4416 17.2967 -8.94968
666 1 11.007 17.2972 20.4419 -8.94955
639 1 4.71669 11.0068 20.4422 -8.94942
665 1 9.43509 15.7249 18.8704 -8.94975
664 1 7.86212 17.297 20.4418 -8.94967
663 1 6.28826 15.7257 18.8722 -8.95097
643 1 17.2973 11.0069 20.4421 -8.94935
662 1 4.71673 17.2972 20.4422 -8.94979
645 1 22.0139 12.5794 18.8693 -8.94957
646 1 1.57226 14.1518 20.4416 -8.94959
647 1 3.14415 12.5794 18.8698 -8.94953
648 1 4.71672 14.1519 20.4422 -8.94934
649 1 6.28811 12.5794 18.872 -8.94894
650 1 7.86177 14.1521 20.4432 -8.95175
651 1 9.43463 12.5798 18.8723 -8.95097
652 1 11.0069 14.1523 20.4418 -8.9483
653 1 12.5792 12.5798 18.8721 -8.95138
654 1 14.1522 14.1522 20.4428 -8.95151
655 1 15.7259 12.5797 18.872 -8.94893
656 1 17.2972 14.152 20.4421 -8.94929
657 1 18.8697 12.5795 18.8697 -8.94954
658 1 20.4416 14.1518 20.4416 -8.94961
351 1 22.0139 12.5794 22.0139 -8.94963
355 1 6.28926 12.5793 22.0143 -8.94968
357 1 9.4344 12.5794 22.0141 -8.94948
359 1 12.5794 12.5795 22.0132 -8.95118
363 1 18.8694 12.5794 22.0139 -8.94958
367 1 3.14465 15.7242 22.014 -8.94961
369 1 6.28928 15.7245 22.0139 -8.95061
375 1 15.7248 15.7248 22.0137 -8.95009
377 1 18.8693 15.7243 22.0139 -8.94957
381 1 3.14461 18.8693 22.0139 -8.9495
248 1 3.14454 22.014 15.7244 -8.9495
258 1 18.8692 22.014 15.7243 -8.94962
295 1 22.0139 22.0139 18.8691 -8.94958
595 1 20.4422 11.0069 17.2972 -8.94942
594 1 17.2993 11.0065 17.2992 -8.94805
532 1 20.4419 17.2971 11.0069 -8.94958
379 1 22.0139 18.8691 22.0139 -8.94965
