ITEM: TIMESTEP
102
ITEM: NUMBER OF ATOMS
688
ITEM: BOX BOUNDS pp pp pp
0.0000000000000000e+00 2.2013900999999997e+01
0.0000000000000000e+00 2.2013900999999997e+01
0.0000000000000000e+00 2.2013900999999997e+01
ITEM: ATOMS id type x y z c_pot
1 1 22.0138 8.05332e-05 1.14798e-05 -8.9492
2 1 1.57202 1.57228 1.57204 -8.94909
3 1 3.14457 0.000158677 -0.00013187 -8.94963
4 1 4.71692 1.57225 1.57192 -8.94962
448 1 20.4426 11.0071 7.86193 -8.94934
6 1 7.86192 1.57221 1.57188 -8.94947
175 1 18.8722 9.43392 9.43406 -8.95093
8 1 11.007 1.57216 1.57186 -8.94951
174 1 15.7347 9.42746 9.42765 -8.94497
10 1 14.152 1.57213 1.57193 -8.94949
11 1 15.7244 0.000110895 -0.000189215 -8.94952
12 1 17.2971 1.57205 1.57192 -8.9495
7 1 9.43448 0.000158169 -0.000215046 -8.94954
14 1 20.4416 1.57228 1.57221 -8.94936
447 1 17.3004 11.008 7.8622 -8.95155
16 1 1.57212 4.71702 1.57215 -8.94981
446 1 14.1638 11.0113 7.85135 -8.97703
18 1 4.71625 4.71636 1.57117 -8.94953
445 1 11.104 11.0058 7.64304 -8.13222
20 1 7.86161 4.7163 1.57136 -8.94905
56 1 9.43444 0.000432078 3.14386 -8.94946
22 1 11.0068 4.71608 1.57131 -8.94933
444 1 7.88892 11.0136 7.87731 -8.86775
24 1 14.1524 4.7159 1.57117 -8.94963
443 1 4.7214 11.0078 7.86384 -8.94035
26 1 17.2982 4.71574 1.57111 -8.94818
442 1 1.57242 11.007 7.86167 -8.94734
28 1 20.442 4.71683 1.57213 -8.94956
397 1 14.1627 11.0078 4.70635 -8.94248
30 1 1.57223 7.86201 1.57225 -8.94939
396 1 11.0126 11.0077 4.72136 -9.00152
32 1 4.71685 7.86225 1.57237 -8.94991
395 1 7.86594 11.0078 4.72222 -8.94604
34 1 7.86168 7.86181 1.57105 -8.9523
35 1 9.43407 6.28865 -0.000318515 -8.9495
36 1 11.0064 7.86084 1.57003 -8.95061
37 1 12.5794 6.28858 -0.000468984 -8.94961
38 1 14.1536 7.86024 1.56858 -8.9521
518 1 20.4427 11.0072 11.0067 -8.94949
40 1 17.2982 7.8613 1.57133 -8.94942
350 1 20.4421 11.0069 1.57208 -8.9495
42 1 20.4421 7.86186 1.57212 -8.94941
58 1 12.5797 0.000403249 3.14391 -8.94943
44 1 3.14426 9.43434 0.00028847 -8.94943
348 1 14.1541 11.007 1.56893 -8.9497
347 1 11.0068 11.007 1.57208 -8.9463
346 1 7.86196 11.0069 1.57342 -8.94823
48 1 15.7255 9.43399 -0.000220481 -8.94985
149 1 3.1438 0.000428475 9.43442 -8.94939
50 1 -0.0001637 0.000164594 3.14455 -8.94944
51 1 1.57189 1.57225 4.71686 -8.94956
52 1 3.14402 0.000372462 3.14399 -8.94911
53 1 4.71615 1.57197 4.71612 -8.94991
517 1 17.3008 11.0067 11.0066 -8.95347
55 1 7.86174 1.572 4.71617 -8.94942
173 1 12.5991 9.40716 9.3856 -8.83455
57 1 11.0071 1.57192 4.71612 -8.94948
172 1 9.37077 9.19299 9.44009 -8.12322
59 1 14.1524 1.57176 4.71639 -8.95039
516 1 14.1676 10.9787 10.996 -8.93557
61 1 17.2974 1.57222 4.71672 -8.94959
62 1 18.8695 0.00024534 3.1444 -8.94923
63 1 20.4416 1.57228 4.71704 -8.94957
64 1 22.0137 3.14446 3.14444 -8.94944
65 1 1.57119 4.71641 4.71631 -8.94959
66 1 3.14366 3.14397 3.14364 -8.94833
67 1 4.71353 4.71391 4.71356 -8.94499
68 1 6.28904 3.1439 3.14369 -8.94955
69 1 7.86081 4.71431 4.7148 -8.9488
70 1 9.43431 3.14377 3.14367 -8.94936
71 1 11.0071 4.71404 4.71457 -8.94786
72 1 12.5796 3.1436 3.1437 -8.94915
73 1 14.1547 4.71223 4.71389 -8.94994
74 1 15.7254 3.14317 3.14355 -8.94948
75 1 17.2987 4.71534 4.71583 -8.94886
76 1 18.8697 3.14425 3.14431 -8.94941
77 1 20.442 4.7166 4.71673 -8.9496
78 1 22.0141 6.2895 3.1445 -8.9499
79 1 1.57203 7.86225 4.71684 -8.94989
80 1 3.14399 6.28949 3.14409 -8.95053
81 1 4.7157 7.86249 4.71612 -8.95229
82 1 6.28723 6.28755 3.14106 -8.95023
83 1 7.85713 7.85705 4.70854 -8.95462
84 1 9.43362 6.28732 3.14181 -8.94764
85 1 11.007 7.85686 4.70789 -8.95073
86 1 12.5802 6.28684 3.14099 -8.94918
87 1 14.166 7.84865 4.70157 -8.93107
88 1 15.7289 6.28504 3.13986 -8.94454
89 1 17.3015 7.85995 4.71449 -8.9516
90 1 18.8708 6.28866 3.14377 -8.94989
91 1 20.4426 7.86182 4.7167 -8.95023
92 1 0.000217276 9.4344 3.14435 -8.94949
93 1 3.14426 9.43451 3.14428 -8.9489
94 1 6.28975 9.43556 3.14502 -8.94962
95 1 9.43514 9.43474 3.14433 -8.95106
96 1 12.5822 9.4331 3.13544 -8.96112
97 1 15.7281 9.43333 3.14087 -8.94782
98 1 18.8708 9.43417 3.14378 -8.94912
513 1 4.71962 11.0073 11.0068 -8.94313
100 1 1.57182 1.5722 7.8619 -8.94948
189 1 20.442 4.71634 11.0069 -8.94946
102 1 4.71599 1.57183 7.86161 -8.94938
103 1 6.28843 0.0015139 6.2884 -8.95072
104 1 7.8616 1.57196 7.86166 -8.95171
171 1 6.28143 9.42429 9.43193 -8.96607
106 1 11.007 1.57247 7.8616 -8.95001
170 1 3.14259 9.43489 9.43426 -8.95198
108 1 14.1525 1.57214 7.86174 -8.95046
109 1 15.7254 0.00109029 6.28883 -8.94991
110 1 17.2974 1.57207 7.8619 -8.9495
188 1 17.2987 4.71505 11.0067 -8.94863
112 1 20.4417 1.57223 7.86197 -8.94951
113 1 -0.000265093 3.14439 6.2894 -8.94945
114 1 1.57111 4.71627 7.86162 -8.94923
115 1 3.14354 3.14382 6.28892 -8.94932
116 1 4.71389 4.71401 7.86067 -8.94802
117 1 6.28795 3.14203 6.28804 -8.95158
118 1 7.8594 4.71 7.86079 -8.95873
119 1 9.43435 3.14243 6.28822 -8.95018
120 1 11.0063 4.71375 7.86099 -8.95162
121 1 12.5798 3.14229 6.28869 -8.95215
122 1 14.1539 4.71297 7.86102 -8.9506
123 1 15.7254 3.14323 6.28899 -8.9499
124 1 17.2985 4.71524 7.86143 -8.94907
125 1 18.8697 3.14416 6.28935 -8.94946
126 1 20.4419 4.71646 7.86179 -8.94941
127 1 22.0135 6.28911 6.2891 -8.95034
128 1 1.57042 7.86173 7.86157 -8.95207
129 1 3.14098 6.28776 6.28755 -8.95052
130 1 4.70747 7.85815 7.85889 -8.95696
131 1 6.27795 6.27859 6.27867 -8.93107
132 1 7.82416 7.82783 7.83061 -8.85502
133 1 9.4333 6.28131 6.28451 -8.94895
134 1 11.0231 7.84896 7.83545 -8.89495
135 1 12.5859 6.27756 6.28137 -8.95242
136 1 14.168 7.84894 7.85146 -8.93271
137 1 15.7302 6.28438 6.28568 -8.94595
138 1 17.303 7.85876 7.85975 -8.94954
139 1 18.8714 6.28823 6.28861 -8.94936
140 1 20.4428 7.86152 7.86165 -8.95074
141 1 22.0142 9.43462 6.28927 -8.94972
142 1 3.14416 9.43553 6.28939 -8.94984
143 1 6.28868 9.43838 6.2903 -8.95462
144 1 9.42425 9.41502 6.28622 -8.91073
145 1 12.6227 9.39898 6.24496 -8.86952
146 1 15.7358 9.43219 6.28409 -8.96006
147 1 18.8721 9.43451 6.28903 -8.95166
148 1 -0.000216656 0.000173994 9.43447 -8.94954
169 1 22.014 9.4346 9.43429 -8.95001
168 1 18.8712 6.288 9.43407 -8.94897
151 1 9.4346 0.00221867 9.43432 -8.95067
152 1 12.5798 0.00167032 9.43435 -8.95124
167 1 15.7287 6.28443 9.43326 -8.94636
166 1 12.5809 6.28307 9.43194 -8.95392
155 1 22.0136 3.14431 9.43442 -8.94949
156 1 3.1434 3.14369 9.43436 -8.9494
157 1 6.28742 3.14157 9.43436 -8.94966
158 1 9.43435 3.1438 9.43443 -8.94706
159 1 12.5798 3.14298 9.43426 -8.9502
160 1 15.7255 3.14303 9.4343 -8.9496
161 1 18.8698 3.14403 9.43436 -8.94942
162 1 -0.00050803 6.2888 9.43424 -8.94976
163 1 3.14085 6.28735 9.43411 -8.94871
164 1 6.28033 6.27993 9.43439 -8.94369
165 1 9.43142 6.29089 9.43533 -9.00456
344 1 1.57216 11.0069 1.57217 -8.94957
183 1 1.57101 4.71613 11.0071 -8.94928
181 1 17.2975 1.57196 11.007 -8.94948
154 1 18.8696 0.000205466 9.43447 -8.94949
177 1 4.71592 1.5717 11.0072 -8.94936
9 1 12.5795 0.000146684 -0.000209426 -8.94954
184 1 4.71357 4.71356 11.0078 -8.94762
512 1 1.57199 11.007 11.0069 -8.94758
41 1 18.8699 6.2891 7.93144e-05 -8.9495
19 1 6.28942 3.1444 -0.00020143 -8.94943
25 1 15.7245 3.14423 -0.000215202 -8.94961
176 1 1.57179 1.57218 11.007 -8.9495
199 1 3.14383 0.000424171 12.5797 -8.94936
178 1 7.86165 1.5715 11.0072 -8.95169
179 1 11.007 1.57178 11.007 -8.9491
180 1 14.1525 1.57171 11.007 -8.94987
644 1 20.442 11.0069 20.442 -8.9495
182 1 20.4417 1.57221 11.0069 -8.94954
642 1 14.1527 11.007 20.4436 -8.95194
209 1 18.8696 0.000185919 12.5795 -8.94949
185 1 7.8593 4.70884 11.0084 -8.95898
186 1 11.0071 4.7133 11.0076 -8.95231
187 1 14.1538 4.71307 11.0065 -8.9494
641 1 11.0067 11.0069 20.4429 -8.94793
640 1 7.86146 11.0068 20.4443 -8.95113
190 1 1.57011 7.86138 11.0067 -8.95143
191 1 4.70706 7.85767 11.0084 -8.95615
192 1 7.824 7.82415 11.0419 -8.85913
193 1 11.0321 7.84685 11.0354 -8.96538
194 1 14.1622 7.85155 11.0046 -8.95916
195 1 17.302 7.85888 11.0058 -8.94776
196 1 20.4428 7.86122 11.0066 -8.94985
343 1 18.8706 9.43398 18.8705 -8.94919
198 1 1.57183 1.57218 14.1521 -8.9495
342 1 15.7269 9.43282 18.8738 -8.95055
200 1 4.71605 1.57161 14.1527 -8.94989
341 1 12.5793 9.43373 18.8737 -8.95249
202 1 7.86188 1.57141 14.1527 -8.95039
203 1 9.43484 0.000521248 12.5799 -8.95001
204 1 11.0072 1.57108 14.1528 -8.94928
205 1 12.5796 9.30789e-06 12.5797 -8.95017
206 1 14.1524 1.57079 14.1525 -8.95132
340 1 9.43461 9.43379 18.8729 -8.95036
208 1 17.2974 1.57189 14.152 -8.94958
339 1 6.28735 9.4328 18.8737 -8.95057
210 1 20.4417 1.57221 14.1519 -8.9495
211 1 -0.00027875 3.1443 12.5795 -8.94945
212 1 1.57099 4.71614 14.1526 -8.94964
213 1 3.14336 3.1436 12.5799 -8.94923
214 1 4.71277 4.71272 14.1555 -8.9446
215 1 6.28768 3.14115 12.5808 -8.95144
216 1 7.8604 4.71152 14.1549 -8.95179
217 1 9.43471 3.14155 12.5806 -8.95032
218 1 11.0074 4.7126 14.1552 -8.94666
219 1 12.58 3.14092 12.5801 -8.95302
220 1 14.1561 4.70878 14.1561 -8.95164
221 1 15.7255 3.14282 12.5795 -8.94956
222 1 17.2991 4.71469 14.1526 -8.94982
223 1 18.8698 3.14401 12.5794 -8.94932
224 1 20.442 4.71641 14.1521 -8.9497
225 1 22.0135 6.28884 12.5795 -8.9501
226 1 1.57104 7.86154 14.1522 -8.94999
227 1 3.14045 6.28728 12.5808 -8.95077
228 1 4.71193 7.85982 14.1542 -8.95151
229 1 6.27628 6.27605 12.5906 -8.92988
230 1 7.8485 7.84464 14.1704 -8.95415
231 1 9.43405 6.27887 12.5862 -8.95191
232 1 11.0079 7.85515 14.1646 -8.94655
233 1 12.589 6.27282 12.5894 -8.95294
234 1 14.1755 7.83631 14.1753 -8.92178
235 1 15.7301 6.28402 12.5803 -8.95004
236 1 17.3052 7.85742 14.1555 -8.95097
237 1 18.8714 6.28806 12.5794 -8.94957
238 1 20.4435 7.86116 14.1523 -8.95047
239 1 22.0141 9.43429 12.5793 -8.95058
240 1 3.14138 9.43434 12.5794 -8.95093
241 1 6.27899 9.43314 12.5814 -8.9553
242 1 9.39683 9.40356 12.6145 -8.86374
243 1 12.6502 9.38314 12.6467 -8.7803
244 1 15.7444 9.42648 12.5846 -8.96091
245 1 18.8744 9.43342 12.5795 -8.95308
246 1 -0.000194133 0.000149564 15.7244 -8.94953
247 1 1.57193 1.5722 17.2971 -8.94923
47 1 12.5794 9.43422 22.0131 -8.95197
249 1 4.71666 1.57205 17.2974 -8.94997
250 1 6.28918 0.000770044 15.7252 -8.9505
251 1 7.862 1.57189 17.2974 -8.94944
252 1 9.43472 2.33368e-05 15.725 -8.94932
253 1 11.007 1.57178 17.2975 -8.94957
254 1 12.5795 -0.000175152 15.7249 -8.94923
255 1 14.152 1.57171 17.2973 -8.94944
256 1 15.7249 0.000271041 15.7249 -8.95072
257 1 17.2974 1.5717 17.2974 -8.94969
46 1 9.43433 9.4344 22.0146 -8.94949
259 1 20.4417 1.57219 17.2969 -8.94958
260 1 22.0137 3.14434 15.7246 -8.94953
261 1 1.57186 4.71662 17.2973 -8.94988
262 1 3.14338 3.14355 15.7255 -8.9483
263 1 4.71512 4.71469 17.2992 -8.94899
264 1 6.28865 3.1427 15.7257 -8.95054
265 1 7.86154 4.71523 17.2986 -8.94898
266 1 9.43439 3.14286 15.7257 -8.94923
267 1 11.0069 4.71495 17.2989 -8.9491
268 1 12.5797 3.14258 15.7257 -8.94897
269 1 14.1526 4.71478 17.299 -8.94954
270 1 15.726 3.14172 15.726 -8.94999
271 1 17.2993 4.71411 17.2992 -8.94728
272 1 18.8699 3.1439 15.7247 -8.94969
273 1 20.4423 4.71641 17.2973 -8.94956
274 1 22.0141 6.28899 15.7248 -8.94989
275 1 1.57122 7.86125 17.2978 -8.94983
276 1 3.14274 6.28835 15.7256 -8.95047
277 1 4.71287 7.85838 17.3013 -8.94476
278 1 6.28388 6.28245 15.7315 -8.94909
279 1 7.86052 7.85933 17.3026 -8.95296
280 1 9.43398 6.2851 15.7294 -8.94708
281 1 11.0067 7.8586 17.3031 -8.94734
282 1 12.5806 6.28453 15.7303 -8.94861
283 1 14.1547 7.8582 17.3043 -8.95302
284 1 15.7325 6.28013 15.7324 -8.94162
285 1 17.3016 7.85807 17.3016 -8.94518
286 1 18.8721 6.28754 15.7259 -8.94975
287 1 20.4429 7.86123 17.2978 -8.94987
288 1 4.60184e-05 9.43412 15.725 -8.9505
289 1 3.14071 9.43309 15.7265 -8.95096
290 1 6.27668 9.42371 15.738 -8.93086
291 1 9.43462 9.43089 15.7357 -8.95264
292 1 12.5818 9.43027 15.7415 -8.9632
293 1 15.7387 9.42358 15.739 -8.93239
294 1 18.8736 9.43317 15.7266 -8.95101
45 1 6.28911 9.43438 22.0149 -8.94989
296 1 1.57214 1.57227 20.4417 -8.94931
297 1 3.14435 0.000341981 18.8696 -8.94949
298 1 4.71709 1.57225 20.4416 -8.94964
299 1 6.28961 0.000144715 18.8695 -8.94967
300 1 7.86199 1.57219 20.4417 -8.94951
338 1 3.14339 9.4339 18.8706 -8.94918
302 1 11.0069 1.57216 20.4417 -8.94955
337 1 22.0139 9.43425 18.8698 -8.94941
304 1 14.1519 1.57216 20.4417 -8.9495
305 1 15.7243 2.89072e-05 18.8694 -8.9497
306 1 17.2969 1.57215 20.4416 -8.9497
307 1 18.8695 0.00018291 18.8695 -8.94933
308 1 20.4418 1.57226 20.4417 -8.94918
309 1 22.0139 3.14451 18.8694 -8.9496
310 1 1.57212 4.71686 20.4419 -8.94931
311 1 3.14411 3.14408 18.8699 -8.9493
312 1 4.71668 4.71654 20.442 -8.95004
313 1 6.28938 3.14409 18.8698 -8.9495
314 1 7.86175 4.71639 20.442 -8.94932
315 1 9.43437 3.14395 18.8699 -8.94942
316 1 11.0068 4.71625 20.442 -8.9495
317 1 12.5795 3.14391 18.8699 -8.94937
318 1 14.1521 4.71629 20.442 -8.94944
319 1 15.7246 3.1439 18.8698 -8.94966
320 1 17.2975 4.71622 20.442 -8.94966
321 1 18.8699 3.14394 18.8698 -8.94889
322 1 20.4419 4.71676 20.4419 -8.94925
323 1 22.014 6.28911 18.8697 -8.94951
324 1 1.57203 7.86179 20.442 -8.94948
325 1 3.14352 6.28847 18.8705 -8.94836
326 1 4.71619 7.86132 20.443 -8.94958
327 1 6.28862 6.28817 18.8713 -8.95078
328 1 7.86173 7.86146 20.443 -8.95038
329 1 9.43404 6.28793 18.8713 -8.94899
330 1 11.0067 7.86094 20.443 -8.9501
331 1 12.5796 6.28788 18.8715 -8.94912
332 1 14.1524 7.8611 20.4428 -8.95096
333 1 15.7258 6.2876 18.8717 -8.95046
334 1 17.298 7.86111 20.4428 -8.94954
335 1 18.8706 6.28828 18.8706 -8.94843
336 1 20.442 7.86177 20.442 -8.9495
29 1 22.014 6.28948 22.014 -8.94952
638 1 1.57198 11.0069 20.442 -8.94951
514 1 7.87979 10.9888 10.9865 -8.83818
515 1 11.0962 10.7094 11.103 -7.31791
27 1 18.8696 3.14429 22.0137 -8.94918
39 1 15.7253 6.28843 22.0132 -8.9502
593 1 14.1568 11.0055 17.3085 -8.95633
540 1 1.57031 11.0069 14.1525 -8.95122
541 1 4.70807 11.0057 14.1562 -8.95636
542 1 7.82734 10.9751 14.1914 -8.85637
543 1 11.0047 11.0095 14.1495 -8.96767
544 1 14.1901 10.9784 14.1936 -8.86302
545 1 17.3068 11.0062 14.1561 -8.95683
546 1 20.4436 11.0071 14.1524 -8.9514
33 1 6.28913 6.28912 22.0137 -8.95056
31 1 3.14439 6.2894 22.0142 -8.94967
591 1 7.85793 11.0049 17.3076 -8.95667
592 1 11.0067 11.0075 17.2997 -8.94412
5 1 6.28953 0.000144351 22.0137 -8.94949
15 1 22.0139 3.14462 22.0139 -8.94937
17 1 3.14441 3.14442 22.0137 -8.94952
23 1 12.5794 3.14424 22.0137 -8.94947
13 1 18.8694 0.000113196 22.0138 -8.94945
21 1 9.43439 3.14427 22.0137 -8.94951
43 1 22.014 9.43441 22.014 -8.94954
49 1 18.8699 9.43429 22.014 -8.9494
688 3 10.1468 11.0361 9.38449 2.38268
511 1 18.8703 18.8701 9.43437 -8.94921
510 1 15.7271 18.8724 9.43386 -8.94892
509 1 12.5816 18.8781 9.43126 -8.95867
508 1 9.43273 18.8801 9.43127 -8.95795
349 1 17.2984 11.0069 1.57132 -8.94937
507 1 6.28486 18.8762 9.43348 -8.94865
539 1 20.4417 20.442 11.007 -8.94951
352 1 1.57215 14.1518 1.57219 -8.94942
353 1 3.14422 12.5794 0.000265297 -8.9495
354 1 4.71662 14.1515 1.57216 -8.94965
153 1 15.7252 22.0146 9.43448 -8.9496
356 1 7.86161 14.1518 1.57086 -8.95259
150 1 6.2884 22.0152 9.4344 -8.95015
358 1 11.0066 14.1525 1.5696 -8.95027
345 1 4.71655 11.0068 1.57223 -8.9496
360 1 14.1536 14.1532 1.56885 -8.95165
361 1 15.7257 12.5798 -0.000293365 -8.94961
362 1 17.2983 14.1525 1.5713 -8.94917
107 1 12.5799 22.0152 6.28862 -8.94998
364 1 20.4421 14.152 1.57209 -8.94945
365 1 22.014 15.7244 6.9803e-05 -8.94951
366 1 1.57204 17.2969 1.57211 -8.94977
105 1 9.43437 22.0153 6.28835 -8.94977
368 1 4.71601 17.2976 1.57106 -8.94971
529 1 11.0071 17.2988 11.0018 -9.01391
370 1 7.8615 17.2977 1.57048 -8.94974
371 1 9.43433 15.725 -0.000821885 -8.94983
372 1 11.007 17.298 1.57033 -8.94972
373 1 12.5794 15.725 -0.00105599 -8.94989
374 1 14.1526 17.298 1.5704 -8.95033
526 1 1.57002 17.2981 11.007 -8.94931
376 1 17.2981 17.2979 1.57133 -8.94834
525 1 20.4415 14.1518 11.0069 -8.94931
378 1 20.442 17.297 1.57214 -8.94947
111 1 18.8696 22.0142 6.2894 -8.94962
380 1 1.57192 20.4418 1.57207 -8.94923
495 1 12.5451 12.5724 9.45129 -8.82976
382 1 4.7167 20.4421 1.57164 -8.94961
383 1 6.28936 18.8697 -0.000393113 -8.94976
384 1 7.86184 20.4422 1.57157 -8.94936
494 1 9.36353 12.8527 9.46183 -7.95418
386 1 11.007 20.4422 1.57156 -8.94946
493 1 6.28685 12.5893 9.43854 -8.97045
388 1 14.1521 20.4422 1.57164 -8.94937
389 1 15.7246 18.8698 -0.000452519 -8.94992
390 1 17.2973 20.4422 1.57168 -8.94943
391 1 18.8697 18.8696 -4.85033e-06 -8.9492
392 1 20.4416 20.4417 1.57227 -8.94962
506 1 3.14225 18.8711 9.43416 -8.94896
394 1 4.71616 11.0068 4.71603 -8.94595
505 1 22.0134 18.8698 9.43435 -8.94947
504 1 18.8712 15.7248 9.43457 -8.95251
503 1 15.7345 15.7298 9.43052 -8.9563
398 1 17.3016 11.007 4.71448 -8.94836
399 1 20.4428 11.0069 4.71648 -8.94984
400 1 0.000189111 12.5794 3.14432 -8.94954
401 1 1.57176 14.1516 4.71664 -8.94974
402 1 3.1441 12.5792 3.14415 -8.94906
403 1 4.71504 14.1512 4.71563 -8.95117
404 1 6.28922 12.5781 3.14454 -8.94914
405 1 7.85674 14.1561 4.70741 -8.9554
406 1 9.43502 12.579 3.1449 -8.94835
407 1 11.0073 14.1558 4.70737 -8.95183
408 1 12.5824 12.5805 3.13693 -8.95808
409 1 14.1651 14.1629 4.7035 -8.92945
410 1 15.7284 12.5806 3.14081 -8.94753
411 1 17.3015 14.1537 4.7147 -8.95005
412 1 18.8709 12.5797 3.14374 -8.94927
413 1 20.4426 14.1521 4.71661 -8.95009
414 1 22.014 15.7244 3.14441 -8.94975
415 1 1.57087 17.2974 4.71621 -8.94972
416 1 3.14376 15.7243 3.1439 -8.95024
417 1 4.71251 17.3005 4.71252 -8.94509
418 1 6.28692 15.7261 3.14034 -8.95047
419 1 7.85915 17.3014 4.71078 -8.95074
420 1 9.43374 15.7264 3.13984 -8.94985
421 1 11.0073 17.3017 4.7108 -8.94728
422 1 12.5805 15.7266 3.1393 -8.95168
423 1 14.1566 17.3029 4.71041 -8.95139
424 1 15.7286 15.728 3.14042 -8.94442
425 1 17.2984 17.2977 4.71619 -8.951
426 1 18.8707 15.7251 3.14385 -8.94942
427 1 20.4417 17.2969 4.71691 -8.94988
428 1 22.0135 18.8694 3.14444 -8.94962
429 1 1.57156 20.4421 4.71659 -8.94943
430 1 3.1433 18.8702 3.14339 -8.94846
431 1 4.71514 20.4437 4.7151 -8.94826
432 1 6.28829 18.8709 3.14236 -8.9498
433 1 7.86132 20.4436 4.71528 -8.94916
434 1 9.43412 18.871 3.14239 -8.94902
435 1 11.0072 20.4436 4.71527 -8.94939
436 1 12.58 18.8711 3.14248 -8.94882
437 1 14.1529 20.4436 4.71561 -8.95015
438 1 15.7262 18.8714 3.14242 -8.9495
439 1 17.2982 20.4429 4.71597 -8.94807
440 1 18.8697 18.8696 3.14438 -8.95005
441 1 20.4418 20.4419 4.71682 -8.94948
502 1 12.6178 15.7637 9.38638 -8.82714
501 1 9.38929 15.7679 9.38966 -8.90523
500 1 6.269 15.7402 9.4293 -8.94871
499 1 3.13855 15.7265 9.4342 -8.95175
498 1 -0.00110505 15.7247 9.43439 -8.95063
497 1 18.8694 12.5798 9.43448 -8.94601
496 1 15.7183 12.579 9.43691 -8.93494
449 1 22.0141 12.5793 6.28916 -8.94993
450 1 1.56995 14.1518 7.86158 -8.95159
451 1 3.1435 12.5783 6.28898 -8.9497
452 1 4.70681 14.1544 7.85963 -8.95798
453 1 6.28708 12.5762 6.28969 -8.94908
454 1 7.82005 14.188 7.82679 -8.85117
455 1 9.42493 12.6018 6.2924 -8.9027
456 1 11.0232 14.1705 7.8334 -8.9321
457 1 12.6202 12.6143 6.2546 -8.84488
458 1 14.1564 14.1493 7.86147 -8.95148
459 1 15.7363 12.5821 6.28426 -8.95436
460 1 17.2987 14.1514 7.86264 -8.94938
461 1 18.8722 12.5797 6.28886 -8.95171
462 1 20.4418 14.1519 7.86191 -8.94969
463 1 22.0131 15.7245 6.28915 -8.95009
464 1 1.57009 17.2978 7.86137 -8.95028
465 1 3.14033 15.7257 6.28744 -8.95084
466 1 4.70925 17.3024 7.85813 -8.94836
467 1 6.27567 15.7362 6.27607 -8.93114
468 1 7.84551 17.3187 7.84635 -8.93632
469 1 9.43145 15.7356 6.27533 -8.96098
470 1 11.0067 17.3096 7.851 -8.94374
471 1 12.5883 15.7382 6.27238 -8.9645
472 1 14.166 17.3112 7.84839 -8.92531
473 1 15.7279 15.7254 6.28787 -8.95297
474 1 17.3014 17.2993 7.85999 -8.95062
475 1 18.8703 15.7244 6.28948 -8.94974
476 1 20.4421 17.2973 7.86173 -8.95063
477 1 -0.000442422 18.8697 6.28918 -8.9499
478 1 1.57154 20.4422 7.86181 -8.9494
479 1 3.14202 18.8711 6.28795 -8.94918
480 1 4.71515 20.4438 7.86118 -8.94937
481 1 6.28362 18.8767 6.28363 -8.94525
482 1 7.86017 20.4472 7.86011 -8.95309
483 1 9.4334 18.8752 6.28494 -8.94795
484 1 11.0072 20.4462 7.85988 -8.94926
485 1 12.5812 18.8749 6.28558 -8.95017
486 1 14.1539 20.4456 7.86043 -8.95155
487 1 15.729 18.8739 6.2855 -8.94353
488 1 17.298 20.4427 7.86168 -8.94963
489 1 18.8707 18.8702 6.28873 -8.94956
490 1 20.4417 20.4419 7.86193 -8.94949
491 1 22.0135 12.5793 9.43423 -8.94896
492 1 3.14293 12.5789 9.4344 -8.94924
519 1 1.56951 14.1519 11.0071 -8.95169
520 1 4.70535 14.1554 11.0105 -8.9608
522 1 11.0173 14.4359 10.9375 -8.01434
523 1 14.1512 14.1659 10.994 -8.92581
524 1 17.297 14.1512 11.0072 -8.94955
393 1 1.57194 11.0068 4.71646 -8.94945
54 1 6.28924 22.0143 3.14393 -8.94948
60 1 15.7248 22.0143 3.14407 -8.94991
99 1 22.0137 22.0141 6.28949 -8.94954
101 1 3.14385 22.0143 6.28913 -8.94946
527 1 4.71042 17.3025 11.0079 -8.94581
534 1 4.71529 20.4438 11.0073 -8.94915
687 3 10.9817 12.6071 11.7224 2.29768
686 1 20.4417 20.4418 20.4418 -8.94916
685 1 18.87 18.8701 18.87 -8.9486
684 1 17.2969 20.4419 20.4417 -8.94984
683 1 15.7246 18.87 18.8699 -8.95042
682 1 14.1519 20.4419 20.4416 -8.9494
681 1 12.5795 18.8699 18.8698 -8.94897
303 1 12.5795 22.014 18.8695 -8.94953
301 1 9.43452 22.014 18.8695 -8.94955
521 1 7.81155 14.2146 11.0356 -8.80256
387 1 12.5795 18.8699 22.0134 -8.94948
207 1 15.7251 22.0143 12.5797 -8.94943
201 1 6.28864 22.015 12.5801 -8.95053
385 1 9.43442 18.8699 22.0134 -8.94952
197 1 22.0137 22.0141 12.5795 -8.94954
590 1 4.71324 11.0058 17.3009 -8.9476
528 1 7.85369 17.315 11.0088 -8.95835
661 1 3.14349 15.7249 18.8705 -8.94925
530 1 14.1569 17.3039 11.0061 -8.94864
531 1 17.2997 17.2988 11.0069 -8.94767
660 1 1.57203 17.297 20.4419 -8.94958
533 1 1.57154 20.4422 11.007 -8.94944
589 1 1.57113 11.0067 17.298 -8.94935
535 1 7.86087 20.4462 11.0075 -8.95228
536 1 11.0073 20.4434 11.007 -8.94761
537 1 14.1531 20.4439 11.0073 -8.94991
538 1 17.2978 20.4425 11.0071 -8.94939
659 1 22.0139 15.7246 18.8697 -8.94937
680 1 11.007 20.442 20.4416 -8.94955
679 1 9.43466 18.87 18.8699 -8.94904
678 1 7.86205 20.4419 20.4416 -8.94942
677 1 6.28935 18.8702 18.8703 -8.95035
676 1 4.71698 20.442 20.4418 -8.94981
675 1 3.14351 18.8705 18.8705 -8.94832
674 1 1.57204 20.4419 20.4418 -8.94914
547 1 22.0136 12.5794 12.5794 -8.94865
548 1 1.57022 14.1518 14.1523 -8.9512
549 1 3.14288 12.5785 12.5799 -8.9461
550 1 4.70802 14.1526 14.1558 -8.95968
551 1 6.29165 12.5763 12.5856 -8.99807
552 1 7.82395 14.1851 14.1964 -8.87306
553 1 9.21343 12.5841 12.6563 -8.13202
554 1 11.006 14.141 14.1287 -8.91571
555 1 12.7684 12.5557 12.644 -8.1867
556 1 14.1809 14.1737 14.1832 -8.88088
557 1 15.7242 12.5777 12.5841 -8.99249
558 1 17.3037 14.153 14.1546 -8.95679
559 1 18.8707 12.5796 12.5796 -8.94747
560 1 20.4428 14.1521 14.1522 -8.95099
561 1 22.0128 15.7248 12.5795 -8.95073
562 1 1.57001 17.2981 14.1528 -8.94974
563 1 3.13799 15.7271 12.5812 -8.95187
564 1 4.70969 17.3031 14.1573 -8.94316
565 1 6.26735 15.7423 12.594 -8.9287
566 1 7.85444 17.3096 14.1609 -8.94992
567 1 9.40766 15.7405 12.6018 -8.88943
568 1 11.0078 17.2959 14.1515 -8.94301
569 1 12.609 15.7363 12.6015 -8.87643
570 1 14.1599 17.3065 14.1594 -8.94743
571 1 15.7317 15.7266 12.5796 -8.95574
572 1 17.2997 17.2986 14.1528 -8.95055
573 1 18.8711 15.725 12.5791 -8.95097
574 1 20.4419 17.2974 14.152 -8.94998
575 1 -0.000516161 18.8699 12.5795 -8.94945
576 1 1.5716 20.4422 14.1522 -8.94942
577 1 3.14234 18.8712 12.5802 -8.94899
578 1 4.71551 20.4438 14.1531 -8.94943
579 1 6.28552 18.8759 12.5819 -8.94946
580 1 7.86177 20.4444 14.153 -8.95226
581 1 9.4347 18.8734 12.5804 -8.95184
582 1 11.0074 20.442 14.1526 -8.94821
583 1 12.5804 18.8715 12.5796 -8.95284
584 1 14.1525 20.4433 14.1525 -8.95249
585 1 15.7265 18.8714 12.5799 -8.94773
586 1 17.2975 20.4424 14.1521 -8.94927
587 1 18.8701 18.8701 12.5796 -8.94925
588 1 20.4417 20.442 14.152 -8.94944
673 1 22.0138 18.8696 18.8696 -8.94959
672 1 20.4419 17.297 20.4418 -8.94947
671 1 18.8703 15.7251 18.8702 -8.94914
670 1 17.2977 17.2977 20.4423 -8.94954
669 1 15.7261 15.7262 18.8723 -8.95048
668 1 14.1519 17.2974 20.4417 -8.94991
667 1 12.5788 15.7249 18.8702 -8.95013
596 1 -0.000129288 12.5795 15.7252 -8.95017
597 1 1.57113 14.1522 17.2979 -8.94925
598 1 3.1406 12.5794 15.727 -8.94903
599 1 4.71342 14.153 17.3007 -8.94762
600 1 6.27938 12.579 15.7353 -8.94204
601 1 7.858 14.1546 17.3081 -8.95837
602 1 9.42608 12.5802 15.7346 -8.97004
603 1 11.0069 14.1513 17.2949 -8.9392
604 1 12.5864 12.5788 15.7334 -8.96795
605 1 14.1554 14.1541 17.3052 -8.95589
606 1 15.7345 12.5804 15.7347 -8.94134
607 1 17.3002 14.1536 17.3001 -8.94762
608 1 18.8731 12.58 15.7267 -8.94929
609 1 20.4426 14.1524 17.2978 -8.94931
610 1 22.0136 15.7247 15.7248 -8.95046
611 1 1.57116 17.2976 17.2978 -8.9501
612 1 3.14078 15.7258 15.7266 -8.95186
613 1 4.71291 17.301 17.3017 -8.94509
614 1 6.27644 15.7369 15.7396 -8.9331
615 1 7.86217 17.2986 17.2996 -8.95181
616 1 9.43734 15.7253 15.7291 -8.95475
617 1 11.0074 17.2984 17.2985 -8.94685
618 1 12.5775 15.7237 15.7276 -8.95708
619 1 14.152 17.298 17.2988 -8.95224
620 1 15.7338 15.7332 15.734 -8.93575
621 1 17.2998 17.2999 17.2998 -8.94606
622 1 18.872 15.7257 15.7257 -8.95089
623 1 20.4423 17.2975 17.2975 -8.94988
624 1 22.0134 18.8698 15.7247 -8.94956
625 1 1.57172 20.4421 17.2973 -8.9492
626 1 3.14243 18.8712 15.7261 -8.94803
627 1 4.7161 20.4432 17.2981 -8.94938
628 1 6.28671 18.8743 15.7281 -8.94935
629 1 7.86233 20.4422 17.2974 -8.9496
630 1 9.43554 18.8703 15.7254 -8.94871
631 1 11.0071 20.4421 17.2974 -8.94964
632 1 12.5791 18.8697 15.725 -8.94855
633 1 14.1518 20.442 17.2972 -8.9496
634 1 15.7271 18.8731 15.7272 -8.94874
635 1 17.2977 20.4428 17.2978 -8.94922
636 1 18.8701 18.8701 15.7248 -8.94993
637 1 20.4417 20.4419 17.297 -8.94963
666 1 11.007 17.2977 20.4418 -8.94956
639 1 4.71606 11.0067 20.4431 -8.94932
665 1 9.43525 15.7251 18.8707 -8.95006
664 1 7.86207 17.2974 20.442 -8.94983
663 1 6.28751 15.7264 18.8737 -8.9513
643 1 17.2981 11.0068 20.4427 -8.94925
662 1 4.71618 17.2977 20.4428 -8.94996
645 1 22.0139 12.5795 18.8698 -8.94948
646 1 1.57198 14.152 20.442 -8.94948
647 1 3.14337 12.5794 18.8706 -8.9494
648 1 4.71614 14.1521 20.443 -8.94923
649 1 6.28714 12.5795 18.8736 -8.94886
650 1 7.86157 14.1522 20.4439 -8.95208
651 1 9.43447 12.5798 18.8726 -8.95061
652 1 11.0068 14.1524 20.4416 -8.94792
653 1 12.5793 12.5799 18.872 -8.95096
654 1 14.1524 14.1525 20.4429 -8.95169
655 1 15.7269 12.5801 18.8732 -8.94891
656 1 17.298 14.1525 20.4425 -8.94914
657 1 18.8705 12.5797 18.8705 -8.94942
658 1 20.442 14.152 20.4419 -8.94949
351 1 22.014 12.5794 22.014 -8.94955
355 1 6.28894 12.5792 22.0149 -8.94969
357 1 9.4344 12.5793 22.0145 -8.94904
359 1 12.5794 12.5796 22.013 -8.95106
363 1 18.8699 12.5795 22.0139 -8.94946
367 1 3.1443 15.7244 22.0141 -8.94959
369 1 6.28892 15.7248 22.014 -8.95102
375 1 15.7253 15.7253 22.0134 -8.95022
377 1 18.8699 15.7247 22.0139 -8.9494
381 1 3.14419 18.8697 22.0139 -8.94945
248 1 3.14397 22.0143 15.7249 -8.94943
258 1 18.8695 22.0141 15.7244 -8.9496
295 1 22.0138 22.014 18.8693 -8.94939
595 1 20.4428 11.0068 17.2979 -8.94937
594 1 17.3009 11.0063 17.3008 -8.94776
532 1 20.442 17.2975 11.0069 -8.94965
379 1 22.0139 18.8693 22.0139 -8.94957
