ITEM: TIMESTEP
38
ITEM: NUMBER OF ATOMS
688
ITEM: BOX BOUNDS pp pp pp
0.0000000000000000e+00 2.2013900999999997e+01
0.0000000000000000e+00 2.2013900999999997e+01
0.0000000000000000e+00 2.2013900999999997e+01
ITEM: ATOMS id type x y z c_pot
1 1 22.0139 8.4489e-12 1.28441e-12 -8.94963
2 1 1.57242 1.57242 1.57242 -8.94963
3 1 3.14484 -1.58611e-12 2.71095e-11 -8.94963
4 1 4.71726 1.57242 1.57242 -8.94963
448 1 20.4415 11.007 7.86211 -8.94964
6 1 7.86211 1.57242 1.57242 -8.94963
175 1 18.8691 9.43453 9.43453 -8.94965
8 1 11.007 1.57242 1.57242 -8.94963
174 1 15.7244 9.43448 9.4345 -8.95032
10 1 14.1518 1.57242 1.57242 -8.94963
11 1 15.7242 -4.5777e-11 2.06978e-10 -8.94963
12 1 17.2966 1.57242 1.57242 -8.94963
7 1 9.43453 5.16715e-10 6.6094e-10 -8.94963
14 1 20.4415 1.57242 1.57242 -8.94963
447 1 17.2967 11.007 7.86211 -8.95
16 1 1.57242 4.71726 1.57242 -8.94963
446 1 14.1532 11.0069 7.86186 -8.95856
18 1 4.71726 4.71726 1.57242 -8.94963
445 1 11.0519 11.0066 7.76938 -7.97877
20 1 7.86211 4.71726 1.57242 -8.94963
56 1 9.43453 5.94821e-09 3.14484 -8.94963
22 1 11.007 4.71726 1.57242 -8.94963
444 1 7.85878 11.0069 7.85942 -8.90924
24 1 14.1518 4.71726 1.57242 -8.94964
443 1 4.71715 11.007 7.86208 -8.95016
26 1 17.2966 4.71726 1.57242 -8.94963
442 1 1.57242 11.007 7.86211 -8.94966
28 1 20.4415 4.71726 1.57242 -8.94963
397 1 14.1517 11.0069 4.7173 -8.95144
30 1 1.57242 7.86211 1.57242 -8.94963
396 1 11.007 11.0069 4.71455 -8.96689
32 1 4.71726 7.86211 1.57242 -8.94963
395 1 7.86214 11.0069 4.71723 -8.95091
34 1 7.86211 7.86211 1.57242 -8.94963
35 1 9.43453 6.28969 7.82926e-08 -8.94963
36 1 11.007 7.86211 1.57242 -8.94964
37 1 12.5794 6.28969 1.11767e-07 -8.94963
38 1 14.1518 7.86211 1.57242 -8.94963
518 1 20.4415 11.0069 11.0069 -8.94964
40 1 17.2966 7.86211 1.57242 -8.94964
350 1 20.4415 11.007 1.57242 -8.94963
42 1 20.4415 7.86211 1.57242 -8.94963
58 1 12.5794 6.92916e-09 3.14484 -8.94963
44 1 3.14484 9.43453 7.86474e-10 -8.94963
348 1 14.1518 11.007 1.57242 -8.94963
347 1 11.0069 11.007 1.57236 -8.95034
346 1 7.86211 11.007 1.57242 -8.94966
48 1 15.7242 9.43453 1.54251e-07 -8.94963
149 1 3.14484 4.91698e-09 9.43453 -8.94963
50 1 7.12595e-11 2.60876e-11 3.14484 -8.94963
51 1 1.57242 1.57242 4.71726 -8.94963
52 1 3.14484 3.9554e-10 3.14484 -8.94963
53 1 4.71726 1.57242 4.71726 -8.94963
517 1 17.2967 11.0069 11.0069 -8.94968
55 1 7.86211 1.57242 4.71726 -8.94963
173 1 12.5847 9.42989 9.43228 -8.88651
57 1 11.007 1.57242 4.71726 -8.94963
172 1 9.38832 9.34083 9.43276 -7.9852
59 1 14.1518 1.57242 4.71726 -8.94963
516 1 14.1538 11.0061 11.0063 -8.9511
61 1 17.2966 1.57242 4.71726 -8.94963
62 1 18.8691 3.90342e-10 3.14484 -8.94963
63 1 20.4415 1.57242 4.71726 -8.94963
64 1 22.0139 3.14484 3.14484 -8.94963
65 1 1.57242 4.71726 4.71726 -8.94963
66 1 3.14484 3.14484 3.14484 -8.94963
67 1 4.71726 4.71726 4.71726 -8.9496
68 1 6.28969 3.14484 3.14484 -8.94964
69 1 7.86211 4.71727 4.71727 -8.94972
70 1 9.43453 3.14484 3.14484 -8.94963
71 1 11.0069 4.71727 4.71727 -8.94965
72 1 12.5794 3.14484 3.14484 -8.94963
73 1 14.1518 4.71726 4.71726 -8.94964
74 1 15.7242 3.14484 3.14484 -8.94963
75 1 17.2966 4.71726 4.71726 -8.94963
76 1 18.8691 3.14484 3.14484 -8.94963
77 1 20.4415 4.71726 4.71726 -8.94963
78 1 22.0139 6.28969 3.14484 -8.94963
79 1 1.57242 7.86211 4.71726 -8.94963
80 1 3.14484 6.28969 3.14484 -8.94963
81 1 4.71726 7.86211 4.71726 -8.94967
82 1 6.28968 6.28969 3.14484 -8.94963
83 1 7.86208 7.86209 4.71719 -8.94993
84 1 9.43453 6.28969 3.14484 -8.94965
85 1 11.0069 7.86216 4.7173 -8.95095
86 1 12.5794 6.28969 3.14485 -8.94972
87 1 14.1519 7.86204 4.71719 -8.94858
88 1 15.7242 6.28968 3.14484 -8.9496
89 1 17.2966 7.86211 4.71726 -8.94964
90 1 18.8691 6.28969 3.14484 -8.94963
91 1 20.4415 7.86211 4.71726 -8.94963
92 1 5.80815e-09 9.43453 3.14484 -8.94963
93 1 3.14484 9.43453 3.14484 -8.94964
94 1 6.28969 9.43453 3.14484 -8.94967
95 1 9.4345 9.43449 3.1448 -8.94933
96 1 12.5794 9.43449 3.14476 -8.94978
97 1 15.7242 9.43453 3.14485 -8.94971
98 1 18.8691 9.43453 3.14484 -8.94963
513 1 4.71711 11.0069 11.0069 -8.94979
100 1 1.57242 1.57242 7.86211 -8.94963
189 1 20.4415 4.71726 11.007 -8.94963
102 1 4.71726 1.57242 7.86211 -8.94963
103 1 6.28969 6.74558e-08 6.28969 -8.94963
104 1 7.86211 1.57242 7.86211 -8.94965
171 1 6.28826 9.43433 9.4345 -8.959
106 1 11.007 1.57242 7.86211 -8.94963
170 1 3.14481 9.43453 9.43453 -8.94997
108 1 14.1518 1.57242 7.86211 -8.94963
109 1 15.7242 6.82547e-08 6.28969 -8.94963
110 1 17.2966 1.57242 7.86211 -8.94963
188 1 17.2966 4.71726 11.007 -8.94964
112 1 20.4415 1.57242 7.86211 -8.94963
113 1 3.0334e-09 3.14484 6.28969 -8.94963
114 1 1.57242 4.71726 7.86211 -8.94963
115 1 3.14484 3.14484 6.28969 -8.94964
116 1 4.71727 4.71727 7.86211 -8.94972
117 1 6.28968 3.14484 6.28968 -8.94962
118 1 7.86207 4.71718 7.86207 -8.94976
119 1 9.43453 3.14484 6.28969 -8.94964
120 1 11.007 4.71722 7.86207 -8.9493
121 1 12.5794 3.14484 6.28969 -8.94963
122 1 14.1518 4.71726 7.86211 -8.94966
123 1 15.7242 3.14484 6.28969 -8.94963
124 1 17.2966 4.71726 7.86211 -8.94964
125 1 18.8691 3.14484 6.28969 -8.94963
126 1 20.4415 4.71726 7.86211 -8.94963
127 1 22.0139 6.28969 6.28969 -8.94963
128 1 1.57242 7.86211 7.86211 -8.94965
129 1 3.14484 6.28969 6.28969 -8.94964
130 1 4.7172 7.86209 7.86209 -8.95003
131 1 6.28962 6.28962 6.28961 -8.94855
132 1 7.85973 7.85984 7.85972 -8.91667
133 1 9.43455 6.28972 6.28974 -8.95109
134 1 11.0078 7.86167 7.86135 -8.94141
135 1 12.5794 6.28962 6.28967 -8.95003
136 1 14.1519 7.86198 7.86198 -8.94821
137 1 15.7242 6.28968 6.28968 -8.94964
138 1 17.2966 7.86211 7.86211 -8.94964
139 1 18.8691 6.28969 6.28969 -8.94963
140 1 20.4415 7.86211 7.86211 -8.94963
141 1 22.0139 9.43453 6.28969 -8.94963
142 1 3.14484 9.43453 6.28968 -8.94964
143 1 6.28961 9.43446 6.28962 -8.94923
144 1 9.4337 9.43364 6.28909 -8.94063
145 1 12.5817 9.43219 6.28742 -8.91841
146 1 15.7243 9.43451 6.28967 -8.95007
147 1 18.8691 9.43453 6.28969 -8.94965
148 1 4.18332e-10 2.58096e-10 9.43453 -8.94963
169 1 22.0139 9.43453 9.43453 -8.94964
168 1 18.8691 6.28969 9.43453 -8.94963
151 1 9.43453 1.86366e-06 9.43453 -8.94968
152 1 12.5794 1.86651e-06 9.43453 -8.94965
167 1 15.7242 6.28969 9.43453 -8.94976
166 1 12.5794 6.28958 9.43449 -8.95096
155 1 22.0139 3.14484 9.43453 -8.94963
156 1 3.14484 3.14484 9.43453 -8.94963
157 1 6.28969 3.14484 9.43453 -8.94964
158 1 9.43453 3.14478 9.43453 -8.95035
159 1 12.5794 3.14484 9.43453 -8.94968
160 1 15.7242 3.14484 9.43453 -8.94963
161 1 18.8691 3.14484 9.43453 -8.94963
162 1 9.6038e-09 6.28969 9.43453 -8.94963
163 1 3.14484 6.28969 9.43453 -8.94962
164 1 6.28973 6.28973 9.43453 -8.95152
165 1 9.43445 6.28692 9.43449 -8.96655
344 1 1.57242 11.007 1.57242 -8.94963
183 1 1.57242 4.71726 11.007 -8.94963
181 1 17.2966 1.57242 11.007 -8.94963
154 1 18.8691 5.73513e-09 9.43453 -8.94963
177 1 4.71726 1.57242 11.007 -8.94963
9 1 12.5794 5.18883e-10 8.91795e-11 -8.94963
184 1 4.71727 4.71727 11.0069 -8.94971
512 1 1.57242 11.0069 11.007 -8.94966
41 1 18.8691 6.28969 3.57736e-09 -8.94963
19 1 6.28969 3.14484 3.58525e-09 -8.94963
25 1 15.7242 3.14484 2.3993e-09 -8.94963
176 1 1.57242 1.57242 11.007 -8.94963
199 1 3.14484 4.196e-09 12.5794 -8.94963
178 1 7.86211 1.57242 11.007 -8.94965
179 1 11.007 1.57242 11.007 -8.94967
180 1 14.1518 1.57242 11.007 -8.94963
644 1 20.4415 11.007 20.4415 -8.94963
182 1 20.4415 1.57242 11.007 -8.94963
642 1 14.1518 11.007 20.4415 -8.94965
209 1 18.8691 3.98306e-09 12.5794 -8.94963
185 1 7.86207 4.71718 11.007 -8.94977
186 1 11.007 4.71715 11.007 -8.95005
187 1 14.1518 4.71726 11.007 -8.94969
641 1 11.007 11.007 20.4415 -8.94968
640 1 7.86211 11.007 20.4415 -8.94965
190 1 1.57242 7.86211 11.007 -8.94965
191 1 4.7172 7.86209 11.007 -8.95004
192 1 7.85988 7.85997 11.0093 -8.91918
193 1 11.0077 7.85875 11.0077 -8.95931
194 1 14.1519 7.86205 11.007 -8.951
195 1 17.2966 7.86211 11.007 -8.94966
196 1 20.4415 7.86211 11.007 -8.94963
343 1 18.8691 9.43453 18.8691 -8.94964
198 1 1.57242 1.57242 14.1518 -8.94963
342 1 15.7242 9.43453 18.8691 -8.94964
200 1 4.71726 1.57242 14.1518 -8.94963
341 1 12.5794 9.43453 18.8691 -8.94965
202 1 7.86211 1.57242 14.1518 -8.94963
203 1 9.43453 1.31111e-06 12.5794 -8.94964
204 1 11.007 1.57242 14.1518 -8.94963
205 1 12.5794 1.31085e-06 12.5794 -8.94964
206 1 14.1518 1.57242 14.1518 -8.94963
340 1 9.43453 9.43453 18.8691 -8.94964
208 1 17.2966 1.57242 14.1518 -8.94963
339 1 6.28969 9.43453 18.8691 -8.94964
210 1 20.4415 1.57242 14.1518 -8.94963
211 1 3.01535e-09 3.14484 12.5794 -8.94963
212 1 1.57242 4.71726 14.1518 -8.94963
213 1 3.14484 3.14484 12.5794 -8.94964
214 1 4.71726 4.71726 14.1518 -8.9496
215 1 6.28968 3.14484 12.5794 -8.94963
216 1 7.86211 4.71727 14.1518 -8.94972
217 1 9.43453 3.14484 12.5794 -8.94965
218 1 11.0069 4.71727 14.1518 -8.94969
219 1 12.5794 3.14484 12.5794 -8.94964
220 1 14.1518 4.71726 14.1518 -8.94964
221 1 15.7242 3.14484 12.5794 -8.94963
222 1 17.2966 4.71726 14.1518 -8.94964
223 1 18.8691 3.14484 12.5794 -8.94963
224 1 20.4415 4.71726 14.1518 -8.94963
225 1 22.0139 6.28969 12.5794 -8.94963
226 1 1.57242 7.86211 14.1518 -8.94963
227 1 3.14484 6.28969 12.5794 -8.94964
228 1 4.71727 7.86211 14.1518 -8.94975
229 1 6.28962 6.28962 12.5794 -8.94861
230 1 7.86206 7.86201 14.1519 -8.95012
231 1 9.43451 6.28967 12.5794 -8.95069
232 1 11.0069 7.86209 14.1518 -8.9526
233 1 12.5794 6.28956 12.5794 -8.94971
234 1 14.1519 7.86196 14.1519 -8.94859
235 1 15.7242 6.28969 12.5794 -8.94969
236 1 17.2966 7.86211 14.1518 -8.94972
237 1 18.8691 6.28969 12.5794 -8.94963
238 1 20.4415 7.86211 14.1518 -8.94963
239 1 22.0139 9.43453 12.5794 -8.94963
240 1 3.14484 9.43453 12.5794 -8.94965
241 1 6.28964 9.43451 12.5794 -8.95061
242 1 9.4326 9.43294 12.5809 -8.92608
243 1 12.5831 9.4312 12.583 -8.89336
244 1 15.7243 9.43456 12.5794 -8.9515
245 1 18.8691 9.43453 12.5794 -8.94966
246 1 6.9543e-11 3.27191e-10 15.7242 -8.94963
247 1 1.57242 1.57242 17.2966 -8.94963
47 1 12.5794 9.43453 22.0139 -8.94965
249 1 4.71726 1.57242 17.2966 -8.94963
250 1 6.28969 5.95858e-08 15.7242 -8.94963
251 1 7.86211 1.57242 17.2966 -8.94963
252 1 9.43453 -1.89295e-08 15.7242 -8.94963
253 1 11.007 1.57242 17.2966 -8.94963
254 1 12.5794 -1.86728e-08 15.7242 -8.94963
255 1 14.1518 1.57242 17.2966 -8.94963
256 1 15.7242 5.95584e-08 15.7242 -8.94963
257 1 17.2966 1.57242 17.2966 -8.94963
46 1 9.43453 9.43453 22.0139 -8.94964
259 1 20.4415 1.57242 17.2966 -8.94963
260 1 22.0139 3.14484 15.7242 -8.94963
261 1 1.57242 4.71726 17.2966 -8.94963
262 1 3.14484 3.14484 15.7242 -8.94963
263 1 4.71726 4.71726 17.2966 -8.94963
264 1 6.28969 3.14484 15.7242 -8.94964
265 1 7.86211 4.71726 17.2966 -8.94963
266 1 9.43453 3.14484 15.7242 -8.94963
267 1 11.007 4.71726 17.2966 -8.94963
268 1 12.5794 3.14484 15.7242 -8.94963
269 1 14.1518 4.71726 17.2966 -8.94964
270 1 15.7242 3.14484 15.7242 -8.94963
271 1 17.2966 4.71726 17.2966 -8.94963
272 1 18.8691 3.14484 15.7242 -8.94963
273 1 20.4415 4.71726 17.2966 -8.94963
274 1 22.0139 6.28969 15.7242 -8.94963
275 1 1.57242 7.86211 17.2966 -8.94963
276 1 3.14484 6.28969 15.7242 -8.94964
277 1 4.71726 7.86211 17.2966 -8.9496
278 1 6.28968 6.28968 15.7242 -8.94963
279 1 7.8621 7.86211 17.2966 -8.94967
280 1 9.43453 6.28968 15.7242 -8.94967
281 1 11.007 7.86211 17.2966 -8.94971
282 1 12.5794 6.28969 15.7242 -8.94975
283 1 14.1518 7.86211 17.2966 -8.94966
284 1 15.7242 6.28968 15.7242 -8.9496
285 1 17.2966 7.86211 17.2966 -8.94961
286 1 18.8691 6.28969 15.7242 -8.94964
287 1 20.4415 7.86211 17.2966 -8.94963
288 1 5.52418e-09 9.43453 15.7242 -8.94963
289 1 3.14484 9.43453 15.7242 -8.94963
290 1 6.28962 9.43446 15.7243 -8.94862
291 1 9.43443 9.43444 15.7243 -8.949
292 1 12.5795 9.43443 15.7244 -8.94953
293 1 15.7243 9.43446 15.7243 -8.94869
294 1 18.8691 9.43453 15.7242 -8.94963
45 1 6.28969 9.43453 22.0139 -8.94963
296 1 1.57242 1.57242 20.4415 -8.94963
297 1 3.14484 1.09602e-09 18.8691 -8.94963
298 1 4.71726 1.57242 20.4415 -8.94963
299 1 6.28969 -7.10507e-10 18.8691 -8.94963
300 1 7.86211 1.57242 20.4415 -8.94963
338 1 3.14484 9.43453 18.8691 -8.94964
302 1 11.007 1.57242 20.4415 -8.94963
337 1 22.0139 9.43453 18.8691 -8.94963
304 1 14.1518 1.57242 20.4415 -8.94963
305 1 15.7242 -6.97231e-10 18.8691 -8.94963
306 1 17.2966 1.57242 20.4415 -8.94963
307 1 18.8691 1.09456e-09 18.8691 -8.94963
308 1 20.4415 1.57242 20.4415 -8.94963
309 1 22.0139 3.14484 18.8691 -8.94963
310 1 1.57242 4.71726 20.4415 -8.94963
311 1 3.14484 3.14484 18.8691 -8.94963
312 1 4.71726 4.71726 20.4415 -8.94963
313 1 6.28969 3.14484 18.8691 -8.94963
314 1 7.86211 4.71726 20.4415 -8.94963
315 1 9.43453 3.14484 18.8691 -8.94963
316 1 11.007 4.71726 20.4415 -8.94963
317 1 12.5794 3.14484 18.8691 -8.94963
318 1 14.1518 4.71726 20.4415 -8.94963
319 1 15.7242 3.14484 18.8691 -8.94963
320 1 17.2966 4.71726 20.4415 -8.94963
321 1 18.8691 3.14484 18.8691 -8.94963
322 1 20.4415 4.71726 20.4415 -8.94963
323 1 22.0139 6.28969 18.8691 -8.94963
324 1 1.57242 7.86211 20.4415 -8.94963
325 1 3.14484 6.28969 18.8691 -8.94963
326 1 4.71726 7.86211 20.4415 -8.94963
327 1 6.28969 6.28969 18.8691 -8.94963
328 1 7.86211 7.86211 20.4415 -8.94963
329 1 9.43453 6.28969 18.8691 -8.94964
330 1 11.007 7.86211 20.4415 -8.94963
331 1 12.5794 6.28969 18.8691 -8.94964
332 1 14.1518 7.86211 20.4415 -8.94963
333 1 15.7242 6.28969 18.8691 -8.94963
334 1 17.2966 7.86211 20.4415 -8.94963
335 1 18.8691 6.28969 18.8691 -8.94963
336 1 20.4415 7.86211 20.4415 -8.94963
29 1 22.0139 6.28969 22.0139 -8.94963
638 1 1.57242 11.007 20.4415 -8.94963
514 1 7.85835 11.006 11.0088 -8.90033
515 1 11.0569 10.9042 11.0587 -6.87564
27 1 18.8691 3.14484 22.0139 -8.94963
39 1 15.7242 6.28969 22.0139 -8.94963
593 1 14.1518 11.0069 17.2967 -8.95002
540 1 1.57242 11.0069 14.1518 -8.94964
541 1 4.71719 11.0069 14.1518 -8.94982
542 1 7.85994 11.0046 14.1541 -8.919
543 1 11.007 11.0044 14.1574 -8.93868
544 1 14.1539 11.0046 14.154 -8.91955
545 1 17.2967 11.0069 14.1518 -8.94974
546 1 20.4415 11.0069 14.1518 -8.94965
33 1 6.28969 6.28969 22.0139 -8.94963
31 1 3.14484 6.28969 22.0139 -8.94963
591 1 7.86209 11.0069 17.2967 -8.95006
592 1 11.0069 11.0069 17.2968 -8.95073
5 1 6.28969 -4.404e-11 22.0139 -8.94963
15 1 22.0139 3.14484 22.0139 -8.94963
17 1 3.14484 3.14484 22.0139 -8.94963
23 1 12.5794 3.14484 22.0139 -8.94963
13 1 18.8691 -1.41154e-12 22.0139 -8.94963
21 1 9.43453 3.14484 22.0139 -8.94963
43 1 22.0139 9.43453 22.0139 -8.94963
49 1 18.8691 9.43453 22.0139 -8.94963
688 3 10.2166 11.0104 9.42862 3.75584
511 1 18.8691 18.8691 9.43453 -8.94963
510 1 15.7242 18.8691 9.43453 -8.94971
509 1 12.5794 18.8691 9.43449 -8.9498
508 1 9.43449 18.8692 9.43449 -8.95046
349 1 17.2966 11.007 1.57242 -8.94963
507 1 6.28969 18.8691 9.43453 -8.94972
539 1 20.4415 20.4415 11.007 -8.94963
352 1 1.57242 14.1518 1.57242 -8.94963
353 1 3.14484 12.5794 5.40406e-09 -8.94963
354 1 4.71726 14.1518 1.57242 -8.94963
153 1 15.7242 22.0139 9.43453 -8.94963
356 1 7.86211 14.1518 1.57242 -8.94963
150 1 6.28969 22.0139 9.43453 -8.94963
358 1 11.007 14.1518 1.57242 -8.94965
345 1 4.71726 11.007 1.57242 -8.94963
360 1 14.1518 14.1518 1.57242 -8.94963
361 1 15.7242 12.5794 1.06298e-07 -8.94963
362 1 17.2966 14.1518 1.57242 -8.94964
107 1 12.5794 22.0139 6.28969 -8.94963
364 1 20.4415 14.1518 1.57242 -8.94963
365 1 22.0139 15.7242 4.2331e-10 -8.94963
366 1 1.57242 17.2966 1.57242 -8.94963
105 1 9.43453 22.0139 6.28969 -8.94963
368 1 4.71726 17.2966 1.57242 -8.94963
529 1 11.007 17.2994 11.0069 -8.96658
370 1 7.86211 17.2966 1.57242 -8.94963
371 1 9.43453 15.7242 1.36829e-07 -8.94963
372 1 11.007 17.2966 1.57242 -8.94963
373 1 12.5794 15.7242 1.70877e-07 -8.94963
374 1 14.1518 17.2966 1.57242 -8.94964
526 1 1.57242 17.2966 11.007 -8.94963
376 1 17.2966 17.2966 1.57242 -8.94963
525 1 20.4415 14.1518 11.0069 -8.94964
378 1 20.4415 17.2966 1.57242 -8.94963
111 1 18.8691 22.0139 6.28969 -8.94963
380 1 1.57242 20.4415 1.57242 -8.94963
495 1 12.5851 12.5819 9.4314 -8.87203
382 1 4.71726 20.4415 1.57242 -8.94963
383 1 6.28969 18.8691 2.34022e-09 -8.94963
384 1 7.86211 20.4415 1.57242 -8.94963
494 1 9.38734 12.6717 9.43165 -7.91528
386 1 11.007 20.4415 1.57242 -8.94963
493 1 6.2883 12.5795 9.43457 -8.96011
388 1 14.1518 20.4415 1.57242 -8.94963
389 1 15.7242 18.8691 1.17914e-09 -8.94963
390 1 17.2966 20.4415 1.57242 -8.94963
391 1 18.8691 18.8691 7.48032e-10 -8.94963
392 1 20.4415 20.4415 1.57242 -8.94963
506 1 3.14484 18.8691 9.43453 -8.94963
394 1 4.71727 11.007 4.71727 -8.9497
505 1 22.0139 18.8691 9.43453 -8.94963
504 1 18.8691 15.7242 9.43453 -8.94963
503 1 15.7243 15.7242 9.4345 -8.94999
398 1 17.2966 11.007 4.71727 -8.94963
399 1 20.4415 11.007 4.71726 -8.94963
400 1 5.83833e-09 12.5794 3.14484 -8.94963
401 1 1.57242 14.1518 4.71726 -8.94963
402 1 3.14484 12.5794 3.14484 -8.94964
403 1 4.71726 14.1518 4.71726 -8.94967
404 1 6.28969 12.5794 3.14484 -8.94967
405 1 7.86208 14.1518 4.71719 -8.94994
406 1 9.43449 12.5794 3.14479 -8.94934
407 1 11.0069 14.1517 4.71726 -8.95131
408 1 12.5794 12.5794 3.14476 -8.94979
409 1 14.1519 14.1519 4.71719 -8.94859
410 1 15.7242 12.5794 3.14485 -8.94971
411 1 17.2966 14.1518 4.71726 -8.94964
412 1 18.8691 12.5794 3.14484 -8.94963
413 1 20.4415 14.1518 4.71726 -8.94963
414 1 22.0139 15.7242 3.14484 -8.94963
415 1 1.57242 17.2966 4.71726 -8.94963
416 1 3.14484 15.7242 3.14484 -8.94963
417 1 4.71726 17.2966 4.71726 -8.9496
418 1 6.28968 15.7242 3.14484 -8.94963
419 1 7.86211 17.2966 4.71727 -8.94972
420 1 9.43453 15.7242 3.14484 -8.94966
421 1 11.0069 17.2966 4.71727 -8.94964
422 1 12.5794 15.7242 3.14484 -8.94973
423 1 14.1518 17.2966 4.71726 -8.94964
424 1 15.7242 15.7242 3.14484 -8.9496
425 1 17.2966 17.2966 4.71726 -8.94964
426 1 18.8691 15.7242 3.14484 -8.94963
427 1 20.4415 17.2966 4.71726 -8.94963
428 1 22.0139 18.8691 3.14484 -8.94963
429 1 1.57242 20.4415 4.71726 -8.94963
430 1 3.14484 18.8691 3.14484 -8.94963
431 1 4.71726 20.4415 4.71726 -8.94963
432 1 6.28969 18.8691 3.14484 -8.94964
433 1 7.86211 20.4415 4.71726 -8.94964
434 1 9.43453 18.8691 3.14484 -8.94963
435 1 11.007 20.4415 4.71726 -8.94963
436 1 12.5794 18.8691 3.14484 -8.94963
437 1 14.1518 20.4415 4.71726 -8.94964
438 1 15.7242 18.8691 3.14484 -8.94963
439 1 17.2966 20.4415 4.71726 -8.94963
440 1 18.8691 18.8691 3.14484 -8.94963
441 1 20.4415 20.4415 4.71726 -8.94963
502 1 12.5817 15.7265 9.4322 -8.91877
501 1 9.43217 15.7291 9.43222 -8.93562
500 1 6.28966 15.7242 9.4345 -8.95174
499 1 3.14484 15.7242 9.43453 -8.94962
498 1 9.07924e-09 15.7242 9.43453 -8.94963
497 1 18.8691 12.5794 9.43453 -8.94969
496 1 15.7244 12.5794 9.43456 -8.95134
449 1 22.0139 12.5794 6.28969 -8.94963
450 1 1.57242 14.1518 7.86211 -8.94965
451 1 3.14484 12.5794 6.28968 -8.94964
452 1 4.7172 14.1518 7.86209 -8.95007
453 1 6.28961 12.5794 6.28963 -8.94927
454 1 7.85972 14.1541 7.85969 -8.91691
455 1 9.43369 12.5802 6.28905 -8.94086
456 1 11.0078 14.1525 7.85989 -8.95029
457 1 12.5817 12.5817 6.28737 -8.91863
458 1 14.1519 14.1519 7.86197 -8.94882
459 1 15.7243 12.5794 6.28968 -8.95009
460 1 17.2966 14.1518 7.86211 -8.94967
461 1 18.8691 12.5794 6.28969 -8.94964
462 1 20.4415 14.1518 7.86211 -8.94963
463 1 22.0139 15.7242 6.28969 -8.94963
464 1 1.57242 17.2966 7.86211 -8.94963
465 1 3.14484 15.7242 6.28969 -8.94964
466 1 4.71727 17.2966 7.86211 -8.94972
467 1 6.28962 15.7243 6.28962 -8.94861
468 1 7.862 17.2968 7.862 -8.9487
469 1 9.43452 15.7242 6.28967 -8.95139
470 1 11.007 17.2966 7.86212 -8.95114
471 1 12.5794 15.7243 6.2896 -8.95033
472 1 14.1519 17.2967 7.86204 -8.94861
473 1 15.7242 15.7242 6.28968 -8.9497
474 1 17.2966 17.2966 7.86211 -8.94964
475 1 18.8691 15.7242 6.28969 -8.94963
476 1 20.4415 17.2966 7.86211 -8.94963
477 1 3.0226e-09 18.8691 6.28969 -8.94963
478 1 1.57242 20.4415 7.86211 -8.94963
479 1 3.14484 18.8691 6.28969 -8.94964
480 1 4.71726 20.4415 7.86211 -8.94964
481 1 6.28968 18.8691 6.28968 -8.94959
482 1 7.86211 20.4415 7.86211 -8.94964
483 1 9.43453 18.8691 6.28969 -8.94973
484 1 11.007 20.4415 7.86211 -8.94964
485 1 12.5794 18.8691 6.28969 -8.94972
486 1 14.1518 20.4415 7.86211 -8.94963
487 1 15.7242 18.8691 6.28968 -8.9496
488 1 17.2966 20.4415 7.86211 -8.94964
489 1 18.8691 18.8691 6.28969 -8.94963
490 1 20.4415 20.4415 7.86211 -8.94963
491 1 22.0139 12.5794 9.43453 -8.94964
492 1 3.14481 12.5794 9.43453 -8.95
519 1 1.57242 14.1518 11.007 -8.94965
520 1 4.71716 14.1518 11.0069 -8.94971
522 1 11.0078 14.2455 10.9626 -7.94267
523 1 14.1524 14.1527 11.0062 -8.93959
524 1 17.2967 14.1518 11.0069 -8.94933
393 1 1.57242 11.007 4.71726 -8.94963
54 1 6.28969 22.0139 3.14484 -8.94963
60 1 15.7242 22.0139 3.14484 -8.94963
99 1 22.0139 22.0139 6.28969 -8.94963
101 1 3.14484 22.0139 6.28969 -8.94963
527 1 4.71727 17.2966 11.007 -8.94973
534 1 4.71726 20.4415 11.007 -8.94963
687 3 11.0054 12.5864 11.7935 3.74885
686 1 20.4415 20.4415 20.4415 -8.94963
685 1 18.8691 18.8691 18.8691 -8.94963
684 1 17.2966 20.4415 20.4415 -8.94963
683 1 15.7242 18.8691 18.8691 -8.94963
682 1 14.1518 20.4415 20.4415 -8.94963
681 1 12.5794 18.8691 18.8691 -8.94964
303 1 12.5794 22.0139 18.8691 -8.94963
301 1 9.43453 22.0139 18.8691 -8.94963
521 1 7.85926 14.1549 11.0085 -8.90917
387 1 12.5794 18.8691 22.0139 -8.94963
207 1 15.7242 22.0139 12.5794 -8.94963
201 1 6.28969 22.0139 12.5794 -8.94963
385 1 9.43453 18.8691 22.0139 -8.94963
197 1 22.0139 22.0139 12.5794 -8.94963
590 1 4.71727 11.007 17.2966 -8.94971
528 1 7.86212 17.2967 11.007 -8.95112
661 1 3.14484 15.7242 18.8691 -8.94964
530 1 14.1517 17.2966 11.007 -8.95104
531 1 17.2966 17.2966 11.007 -8.94965
660 1 1.57242 17.2966 20.4415 -8.94963
533 1 1.57242 20.4415 11.007 -8.94963
589 1 1.57242 11.007 17.2966 -8.94963
535 1 7.86211 20.4415 11.007 -8.94966
536 1 11.007 20.4415 11.007 -8.95034
537 1 14.1518 20.4415 11.007 -8.94964
538 1 17.2966 20.4415 11.007 -8.94963
659 1 22.0139 15.7242 18.8691 -8.94963
680 1 11.007 20.4415 20.4415 -8.94963
679 1 9.43453 18.8691 18.8691 -8.94964
678 1 7.86211 20.4415 20.4415 -8.94963
677 1 6.28969 18.8691 18.8691 -8.94963
676 1 4.71726 20.4415 20.4415 -8.94963
675 1 3.14484 18.8691 18.8691 -8.94963
674 1 1.57242 20.4415 20.4415 -8.94963
547 1 22.0139 12.5794 12.5794 -8.94966
548 1 1.57242 14.1518 14.1518 -8.94965
549 1 3.14478 12.5794 12.5794 -8.95034
550 1 4.71718 14.1518 14.1518 -8.9498
551 1 6.28692 12.5794 12.5795 -8.96632
552 1 7.85988 14.1541 14.1542 -8.91822
553 1 9.34164 12.5799 12.6246 -7.97147
554 1 11.0069 14.1544 14.155 -8.91078
555 1 12.673 12.581 12.6256 -7.98549
556 1 14.1541 14.1542 14.1542 -8.9167
557 1 15.727 12.5794 12.5794 -8.96679
558 1 17.2967 14.1518 14.1518 -8.94977
559 1 18.8691 12.5794 12.5794 -8.95035
560 1 20.4415 14.1518 14.1518 -8.94965
561 1 22.0139 15.7242 12.5794 -8.94963
562 1 1.57242 17.2966 14.1518 -8.94963
563 1 3.14484 15.7242 12.5794 -8.94965
564 1 4.71727 17.2966 14.1518 -8.94969
565 1 6.28965 15.7242 12.5794 -8.94993
566 1 7.86209 17.2967 14.1518 -8.95001
567 1 9.43366 15.7247 12.5801 -8.9414
568 1 11.0069 17.2967 14.1518 -8.95095
569 1 12.5803 15.7248 12.5802 -8.9402
570 1 14.1518 17.2967 14.1518 -8.94992
571 1 15.7242 15.7242 12.5794 -8.95101
572 1 17.2966 17.2966 14.1518 -8.94972
573 1 18.8691 15.7242 12.5794 -8.94964
574 1 20.4415 17.2966 14.1518 -8.94963
575 1 2.94768e-09 18.8691 12.5794 -8.94963
576 1 1.57242 20.4415 14.1518 -8.94963
577 1 3.14484 18.8691 12.5794 -8.94963
578 1 4.71726 20.4415 14.1518 -8.94963
579 1 6.28969 18.8691 12.5794 -8.94964
580 1 7.86211 20.4415 14.1518 -8.94963
581 1 9.43449 18.8691 12.5794 -8.94932
582 1 11.007 20.4415 14.1518 -8.94966
583 1 12.5794 18.8691 12.5794 -8.94931
584 1 14.1518 20.4415 14.1518 -8.94963
585 1 15.7242 18.8691 12.5794 -8.94965
586 1 17.2966 20.4415 14.1518 -8.94963
587 1 18.8691 18.8691 12.5794 -8.94963
588 1 20.4415 20.4415 14.1518 -8.94963
673 1 22.0139 18.8691 18.8691 -8.94963
672 1 20.4415 17.2966 20.4415 -8.94963
671 1 18.8691 15.7242 18.8691 -8.94964
670 1 17.2966 17.2966 20.4415 -8.94963
669 1 15.7242 15.7242 18.8691 -8.94964
668 1 14.1518 17.2966 20.4415 -8.94963
667 1 12.5794 15.7242 18.8691 -8.94964
596 1 5.84057e-09 12.5794 15.7242 -8.94963
597 1 1.57242 14.1518 17.2966 -8.94963
598 1 3.14484 12.5794 15.7242 -8.94964
599 1 4.71727 14.1518 17.2966 -8.94972
600 1 6.28973 12.5794 15.7242 -8.95147
601 1 7.86209 14.1518 17.2967 -8.95003
602 1 9.43432 12.5794 15.7256 -8.95875
603 1 11.007 14.1518 17.2967 -8.95013
604 1 12.5796 12.5794 15.7256 -8.95893
605 1 14.1518 14.1518 17.2967 -8.95003
606 1 15.7242 12.5794 15.7242 -8.95153
607 1 17.2966 14.1518 17.2966 -8.94972
608 1 18.8691 12.5794 15.7242 -8.94963
609 1 20.4415 14.1518 17.2966 -8.94963
610 1 22.0139 15.7242 15.7242 -8.94963
611 1 1.57242 17.2966 17.2966 -8.94963
612 1 3.14484 15.7242 15.7242 -8.94963
613 1 4.71726 17.2966 17.2966 -8.9496
614 1 6.28962 15.7243 15.7243 -8.94858
615 1 7.86211 17.2966 17.2966 -8.94967
616 1 9.43446 15.7243 15.7243 -8.94922
617 1 11.007 17.2966 17.2966 -8.94969
618 1 12.5794 15.7243 15.7243 -8.94928
619 1 14.1518 17.2966 17.2966 -8.94967
620 1 15.7243 15.7243 15.7243 -8.94855
621 1 17.2966 17.2966 17.2966 -8.9496
622 1 18.8691 15.7242 15.7242 -8.94962
623 1 20.4415 17.2966 17.2966 -8.94963
624 1 22.0139 18.8691 15.7242 -8.94963
625 1 1.57242 20.4415 17.2966 -8.94963
626 1 3.14484 18.8691 15.7242 -8.94963
627 1 4.71726 20.4415 17.2966 -8.94963
628 1 6.28969 18.8691 15.7242 -8.94964
629 1 7.86211 20.4415 17.2966 -8.94963
630 1 9.43453 18.8691 15.7242 -8.94967
631 1 11.007 20.4415 17.2966 -8.94963
632 1 12.5794 18.8691 15.7242 -8.94967
633 1 14.1518 20.4415 17.2966 -8.94963
634 1 15.7242 18.8691 15.7242 -8.94963
635 1 17.2966 20.4415 17.2966 -8.94963
636 1 18.8691 18.8691 15.7242 -8.94964
637 1 20.4415 20.4415 17.2966 -8.94963
666 1 11.007 17.2966 20.4415 -8.94963
639 1 4.71726 11.007 20.4415 -8.94963
665 1 9.43453 15.7242 18.8691 -8.94964
664 1 7.86211 17.2966 20.4415 -8.94963
663 1 6.28969 15.7242 18.8691 -8.94964
643 1 17.2966 11.007 20.4415 -8.94963
662 1 4.71726 17.2966 20.4415 -8.94963
645 1 22.0139 12.5794 18.8691 -8.94963
646 1 1.57242 14.1518 20.4415 -8.94963
647 1 3.14484 12.5794 18.8691 -8.94963
648 1 4.71726 14.1518 20.4415 -8.94963
649 1 6.28969 12.5794 18.8691 -8.94962
650 1 7.86211 14.1518 20.4415 -8.94965
651 1 9.43453 12.5794 18.8691 -8.94997
652 1 11.007 14.1518 20.4415 -8.94965
653 1 12.5794 12.5794 18.8691 -8.94998
654 1 14.1518 14.1518 20.4415 -8.94965
655 1 15.7242 12.5794 18.8691 -8.94962
656 1 17.2966 14.1518 20.4415 -8.94963
657 1 18.8691 12.5794 18.8691 -8.94963
658 1 20.4415 14.1518 20.4415 -8.94963
351 1 22.0139 12.5794 22.0139 -8.94963
355 1 6.28969 12.5794 22.0139 -8.94963
357 1 9.43453 12.5794 22.0139 -8.94964
359 1 12.5794 12.5794 22.0139 -8.94965
363 1 18.8691 12.5794 22.0139 -8.94963
367 1 3.14484 15.7242 22.0139 -8.94963
369 1 6.28969 15.7242 22.0139 -8.94963
375 1 15.7242 15.7242 22.0139 -8.94963
377 1 18.8691 15.7242 22.0139 -8.94963
381 1 3.14484 18.8691 22.0139 -8.94963
248 1 3.14484 22.0139 15.7242 -8.94963
258 1 18.8691 22.0139 15.7242 -8.94963
295 1 22.0139 22.0139 18.8691 -8.94963
595 1 20.4415 11.007 17.2966 -8.94963
594 1 17.2966 11.007 17.2966 -8.94971
532 1 20.4415 17.2966 11.007 -8.94963
379 1 22.0139 18.8691 22.0139 -8.94963
