ITEM: TIMESTEP
112
ITEM: NUMBER OF ATOMS
688
ITEM: BOX BOUNDS pp pp pp
0.0000000000000000e+00 2.2013900999999997e+01
0.0000000000000000e+00 2.2013900999999997e+01
0.0000000000000000e+00 2.2013900999999997e+01
ITEM: ATOMS id type x y z c_pot
1 1 22.0138 9.2633e-05 1.13841e-05 -8.94916
2 1 1.57198 1.57227 1.57199 -8.94905
3 1 3.14452 0.00018375 -0.000147709 -8.94961
4 1 4.71686 1.57224 1.57186 -8.9496
448 1 20.4427 11.0072 7.86192 -8.9493
6 1 7.86189 1.5722 1.57182 -8.94945
175 1 18.8723 9.43388 9.43404 -8.95093
8 1 11.007 1.57215 1.5718 -8.94949
174 1 15.7348 9.42728 9.42751 -8.94504
10 1 14.1521 1.5721 1.57186 -8.94947
11 1 15.7244 0.000120674 -0.000223916 -8.94951
12 1 17.2972 1.57201 1.57186 -8.94948
7 1 9.43447 0.000175615 -0.000250251 -8.94953
14 1 20.4416 1.57226 1.57218 -8.94932
447 1 17.3004 11.008 7.86215 -8.95155
16 1 1.57209 4.71699 1.57213 -8.94982
446 1 14.1639 11.0114 7.85111 -8.97706
18 1 4.71618 4.7163 1.57112 -8.94954
445 1 11.1044 11.0059 7.64327 -8.13665
20 1 7.86155 4.71623 1.57132 -8.94904
56 1 9.43442 0.000489786 3.14375 -8.94945
22 1 11.0068 4.71599 1.57124 -8.94932
444 1 7.88957 11.0138 7.87774 -8.86624
24 1 14.1524 4.71577 1.57107 -8.94962
443 1 4.72173 11.0079 7.86403 -8.94027
26 1 17.2983 4.71562 1.57102 -8.94816
442 1 1.57253 11.007 7.86169 -8.94727
28 1 20.4421 4.71677 1.5721 -8.94955
397 1 14.163 11.0078 4.70612 -8.94247
30 1 1.57223 7.86199 1.57226 -8.94937
396 1 11.0128 11.0078 4.72157 -9.00149
32 1 4.71683 7.86225 1.57242 -8.94993
395 1 7.86616 11.0079 4.72255 -8.946
34 1 7.86167 7.8618 1.57111 -8.95234
35 1 9.43403 6.28858 -0.000291416 -8.94951
36 1 11.0065 7.86078 1.57 -8.95066
37 1 12.5795 6.28849 -0.000480056 -8.94963
38 1 14.1537 7.86015 1.56845 -8.95214
518 1 20.4427 11.0072 11.0067 -8.94944
40 1 17.2984 7.86121 1.57125 -8.94941
350 1 20.4422 11.0069 1.57205 -8.94949
42 1 20.4421 7.86182 1.57209 -8.94939
58 1 12.5797 0.000453534 3.14381 -8.94941
44 1 3.14422 9.43431 0.000356628 -8.94942
348 1 14.1543 11.007 1.56882 -8.94972
347 1 11.0068 11.007 1.57218 -8.94623
346 1 7.862 11.0069 1.57359 -8.94819
48 1 15.7257 9.43395 -0.000237271 -8.94986
149 1 3.14367 0.000487379 9.4344 -8.94937
50 1 -0.000189656 0.000188749 3.1445 -8.94941
51 1 1.57182 1.57224 4.7168 -8.94954
52 1 3.14392 0.000422362 3.14389 -8.94909
53 1 4.71605 1.57198 4.71602 -8.94992
517 1 17.3007 11.0065 11.0067 -8.95336
55 1 7.86167 1.57202 4.71606 -8.94942
173 1 12.5993 9.40671 9.38503 -8.83453
57 1 11.0071 1.57193 4.71602 -8.94948
172 1 9.37102 9.19118 9.43994 -8.12187
59 1 14.1525 1.57174 4.7163 -8.95041
516 1 14.1672 10.9785 10.9959 -8.93587
61 1 17.2975 1.57219 4.71665 -8.94958
62 1 18.8696 0.000271235 3.14433 -8.94921
63 1 20.4417 1.57226 4.71699 -8.94955
64 1 22.0137 3.14442 3.14439 -8.94942
65 1 1.57113 4.71636 4.71623 -8.9496
66 1 3.14357 3.14392 3.14355 -8.9483
67 1 4.71338 4.71381 4.71343 -8.94496
68 1 6.28895 3.14385 3.1436 -8.94953
69 1 7.86071 4.7142 4.71468 -8.94876
70 1 9.43427 3.14371 3.14358 -8.94935
71 1 11.0071 4.71391 4.71442 -8.94783
72 1 12.5797 3.14352 3.1436 -8.94913
73 1 14.1549 4.71202 4.71368 -8.94989
74 1 15.7255 3.14305 3.14343 -8.94946
75 1 17.2989 4.71518 4.71569 -8.94884
76 1 18.8698 3.14418 3.14424 -8.94939
77 1 20.442 4.71653 4.71666 -8.9496
78 1 22.0141 6.28947 3.14446 -8.94991
79 1 1.57205 7.86226 4.71683 -8.94992
80 1 3.14394 6.28948 3.14406 -8.95056
81 1 4.71568 7.8625 4.71613 -8.95234
82 1 6.28714 6.28749 3.14099 -8.95025
83 1 7.85712 7.85697 4.70851 -8.9547
84 1 9.43358 6.28722 3.14172 -8.94762
85 1 11.0072 7.85672 4.70769 -8.95079
86 1 12.5804 6.28669 3.14079 -8.94919
87 1 14.1663 7.84847 4.70126 -8.93109
88 1 15.7291 6.28485 3.13966 -8.94452
89 1 17.3017 7.85983 4.71432 -8.95161
90 1 18.871 6.28857 3.14368 -8.9499
91 1 20.4427 7.86179 4.71665 -8.95024
92 1 0.000271278 9.43438 3.14432 -8.94948
93 1 3.14427 9.43452 3.1443 -8.94888
94 1 6.28981 9.43559 3.14515 -8.94963
95 1 9.43523 9.43475 3.14447 -8.95106
96 1 12.5824 9.43307 3.13531 -8.96119
97 1 15.7284 9.43327 3.14068 -8.94781
98 1 18.871 9.43414 3.1437 -8.9491
513 1 4.71991 11.0073 11.0069 -8.94309
100 1 1.57174 1.57219 7.86186 -8.94946
189 1 20.442 4.71625 11.0069 -8.94945
102 1 4.71587 1.57184 7.86155 -8.94937
103 1 6.28832 0.0016409 6.28829 -8.95074
104 1 7.86155 1.57203 7.86162 -8.95174
171 1 6.28176 9.42416 9.43204 -8.96606
106 1 11.007 1.57253 7.86156 -8.95003
170 1 3.14273 9.4349 9.43428 -8.95195
108 1 14.1526 1.57214 7.8617 -8.95048
109 1 15.7255 0.00115852 6.28875 -8.94992
110 1 17.2975 1.57204 7.86186 -8.9495
188 1 17.2988 4.7149 11.0067 -8.94862
112 1 20.4417 1.5722 7.86195 -8.9495
113 1 -0.000284132 3.14435 6.28935 -8.94943
114 1 1.57104 4.7162 7.86157 -8.94922
115 1 3.14343 3.14377 6.28884 -8.9493
116 1 4.71373 4.71389 7.86061 -8.948
117 1 6.28785 3.14198 6.28796 -8.95161
118 1 7.85931 4.70991 7.86077 -8.9588
119 1 9.43431 3.14239 6.28813 -8.9502
120 1 11.0063 4.71367 7.86091 -8.9517
121 1 12.5798 3.14221 6.2886 -8.95219
122 1 14.154 4.7128 7.86091 -8.95058
123 1 15.7255 3.14312 6.2889 -8.9499
124 1 17.2987 4.7151 7.86135 -8.94906
125 1 18.8698 3.14409 6.28929 -8.94944
126 1 20.442 4.71638 7.86175 -8.9494
127 1 22.0136 6.28907 6.28905 -8.95038
128 1 1.57043 7.86172 7.86156 -8.95213
129 1 3.14087 6.2877 6.28747 -8.95055
130 1 4.7074 7.85808 7.85889 -8.95705
131 1 6.27775 6.27841 6.27853 -8.93092
132 1 7.82396 7.82749 7.83039 -8.8542
133 1 9.43327 6.28111 6.28434 -8.94882
134 1 11.0235 7.84851 7.83495 -8.89422
135 1 12.5862 6.27728 6.28102 -8.95224
136 1 14.1684 7.84865 7.85111 -8.93262
137 1 15.7305 6.28415 6.28544 -8.9459
138 1 17.3033 7.85863 7.85962 -8.94957
139 1 18.8715 6.28812 6.28852 -8.94937
140 1 20.4429 7.86149 7.86161 -8.95077
141 1 22.0143 9.43463 6.28925 -8.94971
142 1 3.14426 9.43557 6.28945 -8.94985
143 1 6.28885 9.43845 6.29046 -8.95462
144 1 9.42448 9.41492 6.28639 -8.91083
145 1 12.6229 9.39891 6.24466 -8.86972
146 1 15.7361 9.43211 6.28386 -8.96009
147 1 18.8722 9.4345 6.28897 -8.95168
148 1 -0.000253025 0.000196268 9.43445 -8.94952
169 1 22.014 9.43461 9.43428 -8.94998
168 1 18.8713 6.2879 9.43403 -8.94897
151 1 9.43457 0.00233357 9.43428 -8.95065
152 1 12.5799 0.00172928 9.43431 -8.95126
167 1 15.729 6.28423 9.43318 -8.94636
166 1 12.5811 6.28284 9.43186 -8.95385
155 1 22.0136 3.14425 9.4344 -8.94948
156 1 3.14328 3.14362 9.43433 -8.94939
157 1 6.28729 3.1415 9.43437 -8.94968
158 1 9.43432 3.14384 9.43444 -8.94704
159 1 12.5798 3.14293 9.43425 -8.95023
160 1 15.7256 3.14293 9.43428 -8.94961
161 1 18.8699 3.14395 9.43434 -8.9494
162 1 -0.000509839 6.28874 9.43421 -8.94977
163 1 3.14072 6.28724 9.43409 -8.9487
164 1 6.28016 6.27974 9.43443 -8.94362
165 1 9.43146 6.29084 9.43539 -9.00486
344 1 1.57215 11.0069 1.57218 -8.94956
183 1 1.57092 4.71604 11.0071 -8.94927
181 1 17.2976 1.57191 11.007 -8.94947
154 1 18.8697 0.00021685 9.43446 -8.94948
177 1 4.7158 1.57168 11.0072 -8.94936
9 1 12.5795 0.000160675 -0.000245502 -8.94952
184 1 4.71339 4.71341 11.0078 -8.94758
512 1 1.57207 11.007 11.0069 -8.94751
41 1 18.87 6.28901 8.6215e-05 -8.94949
19 1 6.28937 3.14435 -0.000211123 -8.94942
25 1 15.7246 3.14415 -0.000239073 -8.9496
176 1 1.57171 1.57216 11.007 -8.94948
199 1 3.14371 0.000474275 12.5798 -8.94934
178 1 7.8616 1.57152 11.0072 -8.95173
179 1 11.007 1.57177 11.007 -8.9491
180 1 14.1526 1.57166 11.007 -8.94987
644 1 20.4421 11.0069 20.442 -8.94948
182 1 20.4417 1.57218 11.0069 -8.94952
642 1 14.1528 11.007 20.4436 -8.95195
209 1 18.8696 0.000186794 12.5795 -8.94947
185 1 7.85922 4.70872 11.0085 -8.95904
186 1 11.0071 4.71319 11.0077 -8.95246
187 1 14.154 4.71291 11.0065 -8.94938
641 1 11.0067 11.0069 20.443 -8.94786
640 1 7.86142 11.0068 20.4445 -8.95111
190 1 1.57008 7.86134 11.0067 -8.95146
191 1 4.70695 7.85754 11.0085 -8.9562
192 1 7.82378 7.82379 11.0423 -8.85857
193 1 11.0325 7.84622 11.0358 -8.96507
194 1 14.1624 7.85131 11.0047 -8.9593
195 1 17.3022 7.85874 11.0058 -8.94779
196 1 20.4429 7.86117 11.0066 -8.94986
343 1 18.8708 9.43392 18.8707 -8.94917
198 1 1.57175 1.57215 14.1522 -8.94948
342 1 15.7271 9.43275 18.874 -8.95055
200 1 4.71595 1.57157 14.1528 -8.9499
341 1 12.5793 9.4337 18.8738 -8.95251
202 1 7.86185 1.57134 14.1527 -8.95041
203 1 9.43484 0.000538403 12.58 -8.95004
204 1 11.0072 1.57098 14.1529 -8.94927
205 1 12.5796 -3.25022e-05 12.5797 -8.95019
206 1 14.1525 1.57067 14.1525 -8.95135
340 1 9.43459 9.43377 18.8731 -8.95038
208 1 17.2975 1.57181 14.1521 -8.94958
339 1 6.28723 9.43274 18.8739 -8.95055
210 1 20.4417 1.57218 14.152 -8.94948
211 1 -0.000305563 3.14423 12.5795 -8.94943
212 1 1.57089 4.71604 14.1526 -8.94964
213 1 3.14323 3.14351 12.58 -8.9492
214 1 4.71255 4.71252 14.1557 -8.94455
215 1 6.28756 3.14103 12.5809 -8.95148
216 1 7.86027 4.71129 14.1551 -8.95177
217 1 9.4347 3.14145 12.5807 -8.95035
218 1 11.0075 4.71241 14.1554 -8.94663
219 1 12.5801 3.14078 12.5802 -8.95305
220 1 14.1564 4.70851 14.1563 -8.95156
221 1 15.7256 3.14268 12.5795 -8.94956
222 1 17.2993 4.71449 14.1527 -8.94983
223 1 18.8699 3.14392 12.5794 -8.9493
224 1 20.4421 4.71631 14.1521 -8.9497
225 1 22.0134 6.28877 12.5795 -8.95011
226 1 1.57098 7.86149 14.1523 -8.95002
227 1 3.14028 6.28716 12.5809 -8.95079
228 1 4.71171 7.85968 14.1544 -8.95153
229 1 6.276 6.27578 12.5909 -8.92976
230 1 7.84825 7.84436 14.1708 -8.95409
231 1 9.43401 6.27859 12.5865 -8.95186
232 1 11.0081 7.85491 14.1649 -8.94663
233 1 12.5893 6.27253 12.5898 -8.95271
234 1 14.1758 7.83615 14.1756 -8.92188
235 1 15.7304 6.28379 12.5805 -8.95009
236 1 17.3055 7.85723 14.1557 -8.95099
237 1 18.8715 6.28795 12.5794 -8.94959
238 1 20.4436 7.8611 14.1524 -8.9505
239 1 22.0141 9.43429 12.5793 -8.95059
240 1 3.14135 9.43433 12.5794 -8.95099
241 1 6.27891 9.43305 12.5816 -8.95532
242 1 9.39669 9.40311 12.6147 -8.8637
243 1 12.6501 9.38309 12.6467 -8.781
244 1 15.7446 9.42628 12.5847 -8.96093
245 1 18.8745 9.43336 12.5796 -8.9531
246 1 -0.000230008 0.000167218 15.7245 -8.94951
247 1 1.57187 1.57217 17.2972 -8.94921
47 1 12.5795 9.43421 22.0131 -8.952
249 1 4.71658 1.57201 17.2975 -8.94998
250 1 6.28911 0.000809726 15.7253 -8.95052
251 1 7.86198 1.57183 17.2975 -8.94943
252 1 9.43473 -4.8817e-06 15.7251 -8.94931
253 1 11.007 1.5717 17.2975 -8.94956
254 1 12.5795 -0.000237303 15.725 -8.94922
255 1 14.152 1.57162 17.2974 -8.94943
256 1 15.725 0.000236975 15.725 -8.95075
257 1 17.2975 1.57162 17.2975 -8.94969
46 1 9.43434 9.43441 22.0147 -8.94948
259 1 20.4417 1.57215 17.297 -8.94956
260 1 22.0136 3.14427 15.7246 -8.94952
261 1 1.57179 4.71653 17.2974 -8.94988
262 1 3.14325 3.14345 15.7256 -8.94828
263 1 4.71497 4.71452 17.2994 -8.94898
264 1 6.28855 3.14255 15.7259 -8.95055
265 1 7.86147 4.71508 17.2988 -8.94897
266 1 9.43438 3.14272 15.7258 -8.94922
267 1 11.0069 4.7148 17.2991 -8.94909
268 1 12.5797 3.14242 15.7259 -8.94895
269 1 14.1527 4.71459 17.2992 -8.94952
270 1 15.7262 3.14152 15.7262 -8.94998
271 1 17.2995 4.71391 17.2994 -8.94726
272 1 18.87 3.14379 15.7247 -8.94968
273 1 20.4424 4.71631 17.2974 -8.94955
274 1 22.0141 6.28892 15.7248 -8.94991
275 1 1.57115 7.86118 17.2979 -8.94983
276 1 3.14258 6.28822 15.7257 -8.95048
277 1 4.71269 7.85825 17.3015 -8.94477
278 1 6.28364 6.28219 15.7318 -8.94906
279 1 7.8604 7.8592 17.3028 -8.95299
280 1 9.43394 6.2849 15.7297 -8.94707
281 1 11.0067 7.85848 17.3033 -8.94739
282 1 12.5807 6.28432 15.7306 -8.94862
283 1 14.1549 7.85805 17.3045 -8.95304
284 1 15.7328 6.27988 15.7327 -8.94164
285 1 17.3019 7.85792 17.3018 -8.9452
286 1 18.8723 6.28738 15.726 -8.94974
287 1 20.443 7.86115 17.2979 -8.94987
288 1 5.96177e-05 9.43409 15.7251 -8.95052
289 1 3.14057 9.43303 15.7266 -8.95096
290 1 6.27651 9.42363 15.7382 -8.93098
291 1 9.43451 9.43075 15.7359 -8.95264
292 1 12.582 9.43018 15.7416 -8.96324
293 1 15.7389 9.42348 15.7392 -8.93256
294 1 18.8738 9.43309 15.7267 -8.951
45 1 6.28908 9.43438 22.015 -8.94989
296 1 1.5721 1.57225 20.4417 -8.94928
297 1 3.14428 0.000373797 18.8697 -8.94948
298 1 4.71705 1.57223 20.4417 -8.94963
299 1 6.28958 0.000155724 18.8695 -8.94967
300 1 7.86196 1.57216 20.4417 -8.94949
338 1 3.14328 9.43384 18.8708 -8.94916
302 1 11.0069 1.57212 20.4417 -8.94953
337 1 22.0139 9.43421 18.8699 -8.94939
304 1 14.1519 1.57211 20.4417 -8.94948
305 1 15.7244 1.25302e-05 18.8694 -8.9497
306 1 17.2969 1.57211 20.4417 -8.94969
307 1 18.8696 0.000185301 18.8696 -8.9493
308 1 20.4418 1.57223 20.4417 -8.94914
309 1 22.014 3.14445 18.8695 -8.94958
310 1 1.57208 4.7168 20.442 -8.9493
311 1 3.14402 3.14401 18.87 -8.94929
312 1 4.71661 4.71646 20.4421 -8.95005
313 1 6.28933 3.144 18.8698 -8.9495
314 1 7.8617 4.71631 20.442 -8.94932
315 1 9.43435 3.14386 18.8699 -8.94941
316 1 11.0068 4.71615 20.4421 -8.94949
317 1 12.5795 3.14381 18.87 -8.94935
318 1 14.1521 4.71618 20.4421 -8.94944
319 1 15.7247 3.14377 18.8699 -8.94965
320 1 17.2976 4.7161 20.4421 -8.94965
321 1 18.87 3.14384 18.8699 -8.94886
322 1 20.442 4.71669 20.4419 -8.94923
323 1 22.014 6.28904 18.8698 -8.9495
324 1 1.57199 7.86175 20.4421 -8.94946
325 1 3.14342 6.28838 18.8707 -8.94836
326 1 4.71611 7.86126 20.4432 -8.94958
327 1 6.28852 6.28806 18.8715 -8.95081
328 1 7.86169 7.86142 20.4431 -8.9504
329 1 9.434 6.28783 18.8715 -8.94899
330 1 11.0067 7.86089 20.4431 -8.95013
331 1 12.5797 6.28776 18.8717 -8.94913
332 1 14.1524 7.86103 20.4429 -8.951
333 1 15.7259 6.28745 18.8719 -8.95047
334 1 17.2982 7.86102 20.4429 -8.94953
335 1 18.8708 6.28816 18.8707 -8.94841
336 1 20.4421 7.86172 20.442 -8.94947
29 1 22.014 6.28944 22.014 -8.9495
638 1 1.57194 11.0068 20.4421 -8.94949
514 1 7.88028 10.9888 10.9865 -8.8374
515 1 11.0954 10.708 11.1013 -7.31832
27 1 18.8697 3.14422 22.0137 -8.94915
39 1 15.7254 6.28832 22.0131 -8.95022
593 1 14.1569 11.0055 17.3086 -8.9563
540 1 1.57027 11.0069 14.1526 -8.95122
541 1 4.70799 11.0057 14.1564 -8.95633
542 1 7.82736 10.9753 14.1914 -8.8571
543 1 11.0044 11.0092 14.1494 -8.96794
544 1 14.19 10.9785 14.1934 -8.86375
545 1 17.307 11.0062 14.1562 -8.95679
546 1 20.4436 11.0071 14.1524 -8.95141
33 1 6.28908 6.28908 22.0137 -8.9506
31 1 3.14435 6.28936 22.0142 -8.94967
591 1 7.85779 11.0048 17.3078 -8.95663
592 1 11.0066 11.0074 17.2996 -8.94408
5 1 6.28949 0.000166022 22.0137 -8.94947
15 1 22.0139 3.14458 22.0139 -8.94934
17 1 3.14436 3.14438 22.0137 -8.94952
23 1 12.5795 3.14417 22.0137 -8.94945
13 1 18.8694 0.000124586 22.0137 -8.94943
21 1 9.43436 3.14421 22.0137 -8.94949
43 1 22.014 9.43439 22.014 -8.94953
49 1 18.8701 9.43426 22.014 -8.94938
688 3 10.1428 11.036 9.38484 2.38035
511 1 18.8704 18.8702 9.43435 -8.94921
510 1 15.7272 18.8725 9.43377 -8.94888
509 1 12.5817 18.8783 9.43108 -8.95867
508 1 9.43259 18.8804 9.43109 -8.95792
349 1 17.2985 11.0069 1.57124 -8.94936
507 1 6.28457 18.8765 9.43337 -8.94863
539 1 20.4417 20.442 11.007 -8.94949
352 1 1.57214 14.1518 1.57219 -8.94941
353 1 3.14417 12.5793 0.000328002 -8.94949
354 1 4.71658 14.1515 1.57218 -8.94965
153 1 15.7253 22.0146 9.43446 -8.9496
356 1 7.8616 14.1518 1.57087 -8.95263
150 1 6.28829 22.0153 9.43437 -8.95018
358 1 11.0066 14.1525 1.56953 -8.95027
345 1 4.71653 11.0068 1.5723 -8.9496
360 1 14.1537 14.1533 1.5687 -8.95166
361 1 15.7258 12.5798 -0.000328582 -8.94961
362 1 17.2985 14.1526 1.57121 -8.94914
107 1 12.5799 22.0153 6.28853 -8.95
364 1 20.4421 14.152 1.57206 -8.94943
365 1 22.014 15.7244 8.61562e-05 -8.94949
366 1 1.57199 17.2969 1.57208 -8.94977
105 1 9.43433 22.0155 6.28824 -8.94978
368 1 4.7159 17.2977 1.57097 -8.94972
529 1 11.007 17.2991 11.0017 -9.01406
370 1 7.86144 17.2978 1.57035 -8.94975
371 1 9.43432 15.725 -0.000878995 -8.94985
372 1 11.007 17.2981 1.57017 -8.94973
373 1 12.5794 15.7251 -0.00116349 -8.9499
374 1 14.1527 17.2981 1.57023 -8.95034
526 1 1.56984 17.2982 11.007 -8.94932
376 1 17.2982 17.2981 1.57123 -8.94832
525 1 20.4414 14.1518 11.0069 -8.94928
378 1 20.442 17.2971 1.57211 -8.94946
111 1 18.8697 22.0142 6.28936 -8.9496
380 1 1.57185 20.4419 1.57202 -8.94921
495 1 12.5446 12.5725 9.4511 -8.82955
382 1 4.71661 20.4422 1.57155 -8.9496
383 1 6.28931 18.8698 -0.000432388 -8.94977
384 1 7.8618 20.4422 1.57147 -8.94934
494 1 9.36385 12.8544 9.46167 -7.95179
386 1 11.007 20.4423 1.57146 -8.94944
493 1 6.28721 12.5896 9.43873 -8.97041
388 1 14.1522 20.4423 1.57154 -8.94935
389 1 15.7247 18.8698 -0.000516028 -8.94993
390 1 17.2974 20.4422 1.57159 -8.94942
391 1 18.8697 18.8697 -2.23149e-05 -8.94918
392 1 20.4416 20.4418 1.57224 -8.94961
506 1 3.14203 18.8713 9.43412 -8.94894
394 1 4.71624 11.0068 4.71613 -8.94589
505 1 22.0133 18.8699 9.43433 -8.94947
504 1 18.8712 15.7248 9.43458 -8.95254
503 1 15.7346 15.7298 9.43046 -8.95636
398 1 17.3018 11.007 4.71434 -8.94834
399 1 20.4429 11.0069 4.71643 -8.94985
400 1 0.000235753 12.5794 3.14428 -8.94953
401 1 1.57174 14.1516 4.71661 -8.94975
402 1 3.14409 12.5791 3.14415 -8.94905
403 1 4.71497 14.1512 4.71561 -8.95119
404 1 6.28925 12.5781 3.14465 -8.94914
405 1 7.85668 14.1563 4.70734 -8.95545
406 1 9.43511 12.5791 3.14505 -8.9483
407 1 11.0074 14.1561 4.70721 -8.9518
408 1 12.5825 12.5806 3.13684 -8.9581
409 1 14.1654 14.1631 4.70323 -8.92943
410 1 15.7286 12.5807 3.14063 -8.94749
411 1 17.3017 14.1538 4.71457 -8.95003
412 1 18.871 12.5797 3.14366 -8.94926
413 1 20.4427 14.1521 4.71656 -8.9501
414 1 22.014 15.7244 3.14437 -8.94976
415 1 1.57075 17.2974 4.71612 -8.94973
416 1 3.14368 15.7243 3.14384 -8.95026
417 1 4.71227 17.3006 4.7123 -8.94505
418 1 6.28679 15.7262 3.1402 -8.9505
419 1 7.85897 17.3016 4.7105 -8.95073
420 1 9.4337 15.7265 3.13966 -8.94984
421 1 11.0074 17.3019 4.71049 -8.94726
422 1 12.5807 15.7268 3.13903 -8.9517
423 1 14.1568 17.3032 4.7101 -8.95137
424 1 15.7288 15.7281 3.14022 -8.94439
425 1 17.2986 17.2978 4.71607 -8.95102
426 1 18.8709 15.7252 3.14378 -8.94941
427 1 20.4417 17.297 4.71686 -8.94989
428 1 22.0135 18.8695 3.14439 -8.94962
429 1 1.57146 20.4422 4.7165 -8.94941
430 1 3.14316 18.8703 3.14327 -8.94844
431 1 4.71497 20.4439 4.71493 -8.94823
432 1 6.28815 18.871 3.14217 -8.94979
433 1 7.86122 20.4438 4.71509 -8.94914
434 1 9.43407 18.8712 3.14219 -8.94901
435 1 11.0072 20.4437 4.7151 -8.94939
436 1 12.5801 18.8712 3.14228 -8.94881
437 1 14.153 20.4437 4.71546 -8.95016
438 1 15.7263 18.8716 3.14225 -8.94949
439 1 17.2983 20.443 4.71586 -8.94804
440 1 18.8698 18.8697 3.14431 -8.95005
441 1 20.4418 20.442 4.71676 -8.94947
502 1 12.618 15.7641 9.38611 -8.82682
501 1 9.38898 15.7684 9.38946 -8.90543
500 1 6.2686 15.7407 9.42926 -8.94869
499 1 3.13831 15.7267 9.4342 -8.95178
498 1 -0.00119449 15.7247 9.4344 -8.95066
497 1 18.8693 12.5798 9.43451 -8.94595
496 1 15.718 12.5789 9.43691 -8.93483
449 1 22.0141 12.5792 6.28914 -8.94993
450 1 1.56989 14.1518 7.86158 -8.95162
451 1 3.14355 12.5783 6.28902 -8.94972
452 1 4.70668 14.1545 7.85965 -8.95805
453 1 6.2872 12.5763 6.28985 -8.94906
454 1 7.81978 14.1886 7.82663 -8.85056
455 1 9.42516 12.6022 6.29267 -8.9029
456 1 11.0235 14.1713 7.8332 -8.93147
457 1 12.6204 12.6145 6.25445 -8.84498
458 1 14.1566 14.1494 7.86132 -8.95151
459 1 15.7365 12.5822 6.28408 -8.95433
460 1 17.2988 14.1514 7.86264 -8.94943
461 1 18.8723 12.5797 6.28882 -8.95173
462 1 20.4418 14.1519 7.86191 -8.9497
463 1 22.0131 15.7245 6.28912 -8.95011
464 1 1.56992 17.2979 7.86131 -8.95031
465 1 3.14015 15.7258 6.28735 -8.95086
466 1 4.7089 17.3027 7.85796 -8.94833
467 1 6.27535 15.7365 6.27583 -8.93102
468 1 7.84515 17.3191 7.84605 -8.9363
469 1 9.43134 15.736 6.27503 -8.96098
470 1 11.0066 17.31 7.85069 -8.9438
471 1 12.5885 15.7386 6.27196 -8.96445
472 1 14.1663 17.3115 7.8481 -8.92521
473 1 15.7281 15.7256 6.2877 -8.95298
474 1 17.3016 17.2994 7.85991 -8.95065
475 1 18.8704 15.7244 6.28946 -8.94977
476 1 20.4421 17.2973 7.86171 -8.95066
477 1 -0.000499426 18.8698 6.28912 -8.94991
478 1 1.57143 20.4423 7.86176 -8.94939
479 1 3.1418 18.8713 6.2878 -8.94916
480 1 4.71495 20.444 7.86107 -8.94934
481 1 6.28334 18.8771 6.28337 -8.94522
482 1 7.86004 20.4474 7.85997 -8.95311
483 1 9.43329 18.8755 6.28467 -8.94795
484 1 11.0072 20.4464 7.85973 -8.94928
485 1 12.5813 18.8751 6.28532 -8.95018
486 1 14.154 20.4457 7.86031 -8.95156
487 1 15.7292 18.8741 6.28531 -8.94347
488 1 17.2981 20.4428 7.86162 -8.94961
489 1 18.8708 18.8703 6.28867 -8.94957
490 1 20.4418 20.442 7.86189 -8.94947
491 1 22.0135 12.5793 9.43423 -8.94891
492 1 3.14305 12.5789 9.43445 -8.94917
519 1 1.56943 14.1519 11.0071 -8.95171
520 1 4.7052 14.1556 11.0107 -8.96087
522 1 11.0173 14.4372 10.938 -8.01403
523 1 14.1509 14.1659 10.994 -8.9263
524 1 17.2968 14.1511 11.0072 -8.94948
393 1 1.57199 11.0068 4.71645 -8.94945
54 1 6.28916 22.0144 3.14381 -8.94946
60 1 15.7249 22.0143 3.14398 -8.94991
99 1 22.0137 22.0141 6.28944 -8.94952
101 1 3.14373 22.0144 6.28904 -8.94944
527 1 4.71007 17.3029 11.008 -8.94576
534 1 4.71511 20.444 11.0073 -8.94914
687 3 10.9809 12.6065 11.7184 2.29737
686 1 20.4418 20.4419 20.4418 -8.94914
685 1 18.8701 18.8702 18.8701 -8.9486
684 1 17.297 20.442 20.4417 -8.94984
683 1 15.7246 18.8701 18.87 -8.95045
682 1 14.1519 20.4419 20.4416 -8.94939
681 1 12.5795 18.87 18.8698 -8.94896
303 1 12.5795 22.014 18.8695 -8.94952
301 1 9.43453 22.014 18.8696 -8.94954
521 1 7.81128 14.2152 11.0359 -8.80243
387 1 12.5796 18.8699 22.0133 -8.94947
207 1 15.7252 22.0143 12.5797 -8.94943
201 1 6.28856 22.0151 12.5802 -8.95055
385 1 9.43441 18.8699 22.0133 -8.94952
197 1 22.0136 22.0141 12.5795 -8.94952
590 1 4.71306 11.0058 17.3011 -8.94758
528 1 7.85332 17.3155 11.0087 -8.9583
661 1 3.14338 15.725 18.8707 -8.94924
530 1 14.157 17.3041 11.006 -8.94848
531 1 17.2997 17.2989 11.0069 -8.94767
660 1 1.57199 17.297 20.442 -8.94957
533 1 1.57143 20.4423 11.007 -8.94942
589 1 1.57104 11.0066 17.2981 -8.94935
535 1 7.86077 20.4464 11.0075 -8.95233
536 1 11.0073 20.4434 11.007 -8.94766
537 1 14.1532 20.4439 11.0072 -8.94992
538 1 17.2979 20.4426 11.0071 -8.94938
659 1 22.0138 15.7247 18.8698 -8.94935
680 1 11.007 20.442 20.4416 -8.94954
679 1 9.43467 18.8701 18.8699 -8.94904
678 1 7.86203 20.442 20.4416 -8.9494
677 1 6.28929 18.8703 18.8704 -8.95037
676 1 4.71692 20.442 20.4418 -8.94981
675 1 3.1434 18.8706 18.8707 -8.9483
674 1 1.57198 20.442 20.4419 -8.94911
547 1 22.0136 12.5794 12.5794 -8.94861
548 1 1.57012 14.1518 14.1524 -8.95121
549 1 3.1429 12.5784 12.58 -8.94606
550 1 4.70782 14.1527 14.156 -8.95971
551 1 6.29175 12.5764 12.5858 -8.9978
552 1 7.82377 14.1851 14.1965 -8.87373
553 1 9.21453 12.5844 12.656 -8.1337
554 1 11.0059 14.1411 14.1285 -8.91672
555 1 12.7666 12.5554 12.6435 -8.18935
556 1 14.1807 14.1732 14.1829 -8.88169
557 1 15.7243 12.5775 12.5841 -8.99213
558 1 17.3037 14.1529 14.1547 -8.95674
559 1 18.8706 12.5796 12.5797 -8.94749
560 1 20.4428 14.1521 14.1522 -8.95099
561 1 22.0127 15.7249 12.5795 -8.95077
562 1 1.56983 17.2982 14.1529 -8.94976
563 1 3.13772 15.7272 12.5813 -8.95192
564 1 4.70933 17.3034 14.1576 -8.94309
565 1 6.26687 15.7428 12.5943 -8.92865
566 1 7.8541 17.3099 14.1612 -8.9497
567 1 9.40717 15.7411 12.6021 -8.88898
568 1 11.0078 17.296 14.1516 -8.9429
569 1 12.6093 15.7367 12.6017 -8.87569
570 1 14.1601 17.3066 14.1596 -8.94715
571 1 15.7317 15.7265 12.5796 -8.95585
572 1 17.2998 17.2987 14.1529 -8.9506
573 1 18.8711 15.725 12.5792 -8.95102
574 1 20.4419 17.2975 14.1521 -8.95001
575 1 -0.000592125 18.87 12.5796 -8.94944
576 1 1.57149 20.4423 14.1523 -8.94939
577 1 3.14212 18.8714 12.5803 -8.94896
578 1 4.71535 20.4439 14.1532 -8.94943
579 1 6.28527 18.8762 12.582 -8.94944
580 1 7.86171 20.4445 14.1531 -8.95229
581 1 9.43459 18.8736 12.5804 -8.9519
582 1 11.0074 20.4419 14.1526 -8.94821
583 1 12.5805 18.8716 12.5796 -8.95291
584 1 14.1526 20.4433 14.1526 -8.95251
585 1 15.7266 18.8715 12.58 -8.94771
586 1 17.2976 20.4424 14.1522 -8.94927
587 1 18.8702 18.8701 12.5796 -8.94924
588 1 20.4417 20.442 14.152 -8.94942
673 1 22.0138 18.8697 18.8697 -8.94958
672 1 20.4419 17.2971 20.4419 -8.94945
671 1 18.8704 15.7252 18.8703 -8.94912
670 1 17.2977 17.2978 20.4423 -8.94955
669 1 15.7262 15.7262 18.8723 -8.95049
668 1 14.1519 17.2974 20.4417 -8.94994
667 1 12.5789 15.7248 18.8702 -8.95017
596 1 -0.000146034 12.5795 15.7253 -8.95018
597 1 1.57104 14.1522 17.298 -8.94924
598 1 3.14044 12.5794 15.7272 -8.94902
599 1 4.71323 14.153 17.301 -8.9476
600 1 6.27919 12.579 15.7355 -8.94202
601 1 7.85785 14.1546 17.3082 -8.95837
602 1 9.42596 12.5802 15.7345 -8.97003
603 1 11.0069 14.1512 17.2947 -8.93916
604 1 12.5863 12.5786 15.7331 -8.96794
605 1 14.1555 14.154 17.3052 -8.95586
606 1 15.7346 12.5803 15.7349 -8.94131
607 1 17.3003 14.1536 17.3002 -8.94761
608 1 18.8732 12.58 15.7269 -8.94929
609 1 20.4426 14.1524 17.2979 -8.9493
610 1 22.0135 15.7248 15.7249 -8.95047
611 1 1.57106 17.2976 17.2979 -8.95011
612 1 3.14059 15.7259 15.7267 -8.95187
613 1 4.71272 17.3012 17.3019 -8.94509
614 1 6.27618 15.737 15.7399 -8.9332
615 1 7.8621 17.2987 17.2998 -8.95185
616 1 9.43723 15.7253 15.7292 -8.95484
617 1 11.0074 17.2984 17.2985 -8.94686
618 1 12.5776 15.7235 15.7276 -8.95723
619 1 14.1521 17.298 17.2988 -8.95229
620 1 15.7338 15.7331 15.734 -8.93595
621 1 17.2998 17.2999 17.2999 -8.94612
622 1 18.8721 15.7258 15.7258 -8.95089
623 1 20.4423 17.2976 17.2975 -8.94988
624 1 22.0133 18.8699 15.7248 -8.94956
625 1 1.57163 20.4422 17.2974 -8.94917
626 1 3.14223 18.8714 15.7263 -8.94799
627 1 4.71599 20.4433 17.2982 -8.94935
628 1 6.28652 18.8745 15.7283 -8.94929
629 1 7.86232 20.4423 17.2975 -8.94959
630 1 9.43553 18.8703 15.7255 -8.94867
631 1 11.0072 20.4421 17.2975 -8.94963
632 1 12.5792 18.8697 15.725 -8.9485
633 1 14.1518 20.4419 17.2972 -8.9496
634 1 15.7272 18.8732 15.7273 -8.94868
635 1 17.2978 20.4428 17.2978 -8.9492
636 1 18.8702 18.8702 15.7249 -8.94994
637 1 20.4417 20.442 17.297 -8.94962
666 1 11.007 17.2977 20.4418 -8.94957
639 1 4.71597 11.0066 20.4432 -8.94931
665 1 9.43525 15.7251 18.8707 -8.95009
664 1 7.86205 17.2975 20.442 -8.94986
663 1 6.28741 15.7265 18.8738 -8.95132
643 1 17.2982 11.0068 20.4428 -8.94924
662 1 4.71609 17.2978 20.4429 -8.94998
645 1 22.0139 12.5795 18.8699 -8.94947
646 1 1.57194 14.152 20.4421 -8.94946
647 1 3.14326 12.5794 18.8708 -8.94939
648 1 4.71605 14.1521 20.4431 -8.94923
649 1 6.28701 12.5794 18.8739 -8.94885
650 1 7.86153 14.1522 20.444 -8.95211
651 1 9.43444 12.5798 18.8726 -8.95058
652 1 11.0068 14.1524 20.4415 -8.94789
653 1 12.5794 12.5799 18.8719 -8.95091
654 1 14.1525 14.1525 20.4429 -8.9517
655 1 15.7271 12.5801 18.8733 -8.94891
656 1 17.2981 14.1526 20.4426 -8.94913
657 1 18.8707 12.5797 18.8706 -8.94941
658 1 20.442 14.1521 20.442 -8.94948
351 1 22.014 12.5794 22.014 -8.94954
355 1 6.2889 12.5792 22.015 -8.9497
357 1 9.43441 12.5793 22.0146 -8.94899
359 1 12.5795 12.5796 22.0129 -8.95105
363 1 18.8701 12.5796 22.0139 -8.94944
367 1 3.14424 15.7244 22.0142 -8.94959
369 1 6.28887 15.7248 22.014 -8.95106
375 1 15.7254 15.7254 22.0133 -8.95022
377 1 18.8699 15.7248 22.0139 -8.94937
381 1 3.14411 18.8698 22.0139 -8.94945
248 1 3.14387 22.0143 15.725 -8.94941
258 1 18.8695 22.014 15.7245 -8.9496
295 1 22.0138 22.014 18.8694 -8.94935
595 1 20.4428 11.0068 17.298 -8.94937
594 1 17.3011 11.0063 17.301 -8.94775
532 1 20.4419 17.2976 11.0069 -8.94967
379 1 22.0139 18.8694 22.0139 -8.94955
