ITEM: TIMESTEP
119
ITEM: NUMBER OF ATOMS
688
ITEM: BOX BOUNDS pp pp pp
0.0000000000000000e+00 2.2013900999999997e+01
0.0000000000000000e+00 2.2013900999999997e+01
0.0000000000000000e+00 2.2013900999999997e+01
ITEM: ATOMS id type x y z c_pot
1 1 22.0138 0.000100702 1.10211e-05 -8.94913
2 1 1.57194 1.57227 1.57196 -8.94903
3 1 3.14448 0.000200704 -0.00015792 -8.9496
4 1 4.71682 1.57223 1.57181 -8.94959
448 1 20.4427 11.0072 7.86192 -8.94928
6 1 7.86186 1.57219 1.57178 -8.94944
175 1 18.8724 9.43386 9.43403 -8.95093
8 1 11.007 1.57214 1.57176 -8.94948
174 1 15.7349 9.42717 9.42743 -8.94511
10 1 14.1521 1.57208 1.57182 -8.94946
11 1 15.7245 0.00012606 -0.000247963 -8.9495
12 1 17.2973 1.57198 1.57182 -8.94947
7 1 9.43446 0.00018653 -0.000274541 -8.94952
14 1 20.4417 1.57225 1.57216 -8.9493
447 1 17.3005 11.008 7.86212 -8.95155
16 1 1.57207 4.71697 1.57212 -8.94982
446 1 14.1639 11.0114 7.85097 -8.97705
18 1 4.71613 4.71627 1.57109 -8.94955
445 1 11.1043 11.006 7.64413 -8.1387
20 1 7.86151 4.71619 1.57129 -8.94903
56 1 9.4344 0.000529452 3.14367 -8.94943
22 1 11.0068 4.71593 1.5712 -8.94931
444 1 7.88991 11.0138 7.87797 -8.86538
24 1 14.1525 4.71569 1.571 -8.94962
443 1 4.72196 11.0079 7.86416 -8.94024
26 1 17.2984 4.71553 1.57096 -8.94815
442 1 1.57261 11.007 7.86171 -8.94723
28 1 20.4421 4.71673 1.57207 -8.94955
397 1 14.1632 11.0078 4.70598 -8.94246
30 1 1.57223 7.86198 1.57227 -8.94936
396 1 11.0129 11.0079 4.72169 -9.00134
32 1 4.71682 7.86225 1.57245 -8.94995
395 1 7.8663 11.008 4.72276 -8.94598
34 1 7.86167 7.86179 1.57115 -8.95237
35 1 9.43401 6.28853 -0.000270135 -8.94952
36 1 11.0065 7.86075 1.56998 -8.95069
37 1 12.5795 6.28843 -0.000485605 -8.94965
38 1 14.1538 7.86009 1.56837 -8.95216
518 1 20.4427 11.0072 11.0067 -8.9494
40 1 17.2985 7.86115 1.57119 -8.9494
350 1 20.4422 11.0069 1.57203 -8.94948
42 1 20.4422 7.86179 1.57208 -8.94938
58 1 12.5797 0.000487309 3.14373 -8.94941
44 1 3.14419 9.4343 0.00040584 -8.94941
348 1 14.1543 11.007 1.56876 -8.94972
347 1 11.0069 11.007 1.57225 -8.9462
346 1 7.86202 11.0069 1.57371 -8.94817
48 1 15.7257 9.43392 -0.000248493 -8.94986
149 1 3.14359 0.000528253 9.43438 -8.94936
50 1 -0.000207122 0.000205037 3.14446 -8.9494
51 1 1.57178 1.57224 4.71675 -8.94953
52 1 3.14386 0.000456438 3.14383 -8.94907
53 1 4.71598 1.57199 4.71595 -8.94992
517 1 17.3007 11.0065 11.0067 -8.95329
55 1 7.86163 1.57203 4.716 -8.94942
173 1 12.5995 9.40637 9.38467 -8.83433
57 1 11.0071 1.57193 4.71596 -8.94948
172 1 9.37119 9.19 9.43983 -8.12121
59 1 14.1525 1.57172 4.71624 -8.95042
516 1 14.1669 10.9783 10.9958 -8.93605
61 1 17.2975 1.57218 4.7166 -8.94958
62 1 18.8696 0.000287989 3.14429 -8.94919
63 1 20.4417 1.57225 4.71696 -8.94954
64 1 22.0137 3.14439 3.14435 -8.94941
65 1 1.57109 4.71632 4.71619 -8.9496
66 1 3.14351 3.1439 3.1435 -8.94829
67 1 4.71329 4.71375 4.71335 -8.94493
68 1 6.2889 3.14382 3.14354 -8.94951
69 1 7.86064 4.71413 4.71461 -8.94873
70 1 9.43425 3.14367 3.14352 -8.94934
71 1 11.0071 4.71382 4.71432 -8.9478
72 1 12.5797 3.14346 3.14353 -8.94912
73 1 14.155 4.71189 4.71354 -8.94986
74 1 15.7256 3.14298 3.14335 -8.94945
75 1 17.299 4.71509 4.7156 -8.94883
76 1 18.8699 3.14413 3.14419 -8.94938
77 1 20.4421 4.71648 4.71662 -8.9496
78 1 22.0141 6.28945 3.14444 -8.94992
79 1 1.57207 7.86226 4.71682 -8.94993
80 1 3.14391 6.28947 3.14404 -8.95059
81 1 4.71568 7.86251 4.71614 -8.95237
82 1 6.28709 6.28745 3.14095 -8.95027
83 1 7.85712 7.85692 4.7085 -8.95475
84 1 9.43357 6.28716 3.14166 -8.94761
85 1 11.0073 7.85663 4.70756 -8.95081
86 1 12.5804 6.28659 3.14067 -8.94919
87 1 14.1665 7.84835 4.70107 -8.93111
88 1 15.7293 6.28474 3.13953 -8.94452
89 1 17.3019 7.85976 4.71421 -8.95162
90 1 18.871 6.28851 3.14362 -8.9499
91 1 20.4428 7.86177 4.71662 -8.95025
92 1 0.00031066 9.43437 3.14431 -8.94948
93 1 3.14428 9.43452 3.14432 -8.94887
94 1 6.28986 9.43562 3.14524 -8.94964
95 1 9.43529 9.43476 3.14457 -8.95106
96 1 12.5825 9.43305 3.13524 -8.96122
97 1 15.7285 9.43323 3.14056 -8.94781
98 1 18.8711 9.43411 3.14364 -8.9491
513 1 4.7201 11.0074 11.0069 -8.94304
100 1 1.57169 1.57218 7.86183 -8.94944
189 1 20.442 4.7162 11.0069 -8.94945
102 1 4.71579 1.57185 7.86151 -8.94937
103 1 6.28824 0.00172516 6.28821 -8.95075
104 1 7.86151 1.57207 7.86159 -8.95177
171 1 6.28197 9.42408 9.43212 -8.96607
106 1 11.007 1.57256 7.86153 -8.95004
170 1 3.14282 9.4349 9.43431 -8.95193
108 1 14.1526 1.57213 7.86167 -8.95049
109 1 15.7256 0.00120223 6.2887 -8.94992
110 1 17.2976 1.57202 7.86184 -8.9495
188 1 17.2989 4.71481 11.0068 -8.94861
112 1 20.4417 1.57219 7.86193 -8.94949
113 1 -0.000295495 3.14432 6.28932 -8.94942
114 1 1.57099 4.71616 7.86154 -8.94922
115 1 3.14336 3.14374 6.28879 -8.94929
116 1 4.71363 4.71382 7.86057 -8.94798
117 1 6.28778 3.14196 6.28791 -8.95163
118 1 7.85925 4.70986 7.86075 -8.95884
119 1 9.43428 3.14237 6.28808 -8.95021
120 1 11.0063 4.71361 7.86086 -8.95175
121 1 12.5799 3.14216 6.28854 -8.95222
122 1 14.1541 4.71269 7.86083 -8.95056
123 1 15.7256 3.14306 6.28884 -8.9499
124 1 17.2988 4.71501 7.8613 -8.94905
125 1 18.8699 3.14404 6.28926 -8.94943
126 1 20.442 4.71633 7.86172 -8.9494
127 1 22.0136 6.28904 6.28901 -8.9504
128 1 1.57044 7.86171 7.86155 -8.95216
129 1 3.14081 6.28766 6.28743 -8.95057
130 1 4.70737 7.85803 7.8589 -8.95712
131 1 6.27763 6.2783 6.27845 -8.93081
132 1 7.82383 7.82726 7.83024 -8.85367
133 1 9.43325 6.28099 6.28423 -8.94873
134 1 11.0238 7.84822 7.83464 -8.89377
135 1 12.5863 6.27711 6.2808 -8.95212
136 1 14.1686 7.84847 7.85088 -8.93254
137 1 15.7306 6.28401 6.28528 -8.94587
138 1 17.3034 7.85854 7.85954 -8.9496
139 1 18.8716 6.28805 6.28846 -8.94938
140 1 20.443 7.86147 7.86159 -8.95078
141 1 22.0143 9.43464 6.28925 -8.94971
142 1 3.14433 9.4356 6.28949 -8.94986
143 1 6.28897 9.4385 6.29057 -8.95461
144 1 9.42464 9.41486 6.2865 -8.91097
145 1 12.6231 9.39888 6.24448 -8.87025
146 1 15.7363 9.43206 6.28371 -8.9601
147 1 18.8723 9.43449 6.28893 -8.95169
148 1 -0.000278302 0.00021078 9.43444 -8.94951
169 1 22.0141 9.43461 9.43428 -8.94997
168 1 18.8714 6.28783 9.434 -8.94897
151 1 9.43455 0.00241015 9.43425 -8.95065
152 1 12.5799 0.00176765 9.43428 -8.95127
167 1 15.7291 6.28411 9.43314 -8.94636
166 1 12.5813 6.28268 9.43181 -8.95381
155 1 22.0136 3.14421 9.43439 -8.94947
156 1 3.1432 3.14357 9.43432 -8.94938
157 1 6.28721 3.14146 9.43437 -8.94969
158 1 9.43431 3.14386 9.43445 -8.94703
159 1 12.5799 3.1429 9.43424 -8.95025
160 1 15.7257 3.14287 9.43427 -8.94961
161 1 18.8699 3.1439 9.43433 -8.94939
162 1 -0.000507856 6.2887 9.43419 -8.94977
163 1 3.14064 6.28718 9.43408 -8.9487
164 1 6.28006 6.27962 9.43446 -8.94358
165 1 9.43149 6.29078 9.43542 -9.00505
344 1 1.57216 11.0069 1.57219 -8.94955
183 1 1.57087 4.71599 11.0071 -8.94927
181 1 17.2976 1.57187 11.007 -8.94947
154 1 18.8697 0.000223545 9.43445 -8.94947
177 1 4.71572 1.57168 11.0072 -8.94936
9 1 12.5795 0.000168906 -0.000270713 -8.94951
184 1 4.71327 4.71331 11.0079 -8.94755
512 1 1.57213 11.0071 11.0069 -8.94747
41 1 18.87 6.28896 9.08875e-05 -8.94948
19 1 6.28934 3.14432 -0.00021599 -8.94941
25 1 15.7246 3.14409 -0.000255334 -8.94959
176 1 1.57166 1.57215 11.007 -8.94947
199 1 3.14363 0.000508215 12.5798 -8.94933
178 1 7.86157 1.57154 11.0072 -8.95175
179 1 11.007 1.57177 11.007 -8.9491
180 1 14.1526 1.57163 11.007 -8.94987
644 1 20.4421 11.0069 20.4421 -8.94947
182 1 20.4417 1.57216 11.0069 -8.94951
642 1 14.1528 11.007 20.4437 -8.95196
209 1 18.8697 0.000185235 12.5795 -8.94946
185 1 7.85916 4.70864 11.0086 -8.95907
186 1 11.0072 4.71311 11.0078 -8.95255
187 1 14.1541 4.71281 11.0066 -8.94937
641 1 11.0067 11.007 20.443 -8.94783
640 1 7.86139 11.0068 20.4446 -8.9511
190 1 1.57006 7.86132 11.0067 -8.95149
191 1 4.70688 7.85746 11.0085 -8.95623
192 1 7.82364 7.82356 11.0426 -8.8582
193 1 11.0328 7.8458 11.036 -8.96489
194 1 14.1626 7.85116 11.0047 -8.95937
195 1 17.3023 7.85864 11.0058 -8.94781
196 1 20.443 7.86114 11.0066 -8.94987
343 1 18.8709 9.43388 18.8708 -8.94916
198 1 1.5717 1.57214 14.1522 -8.94947
342 1 15.7272 9.43271 18.8741 -8.95055
200 1 4.71587 1.57155 14.1529 -8.94991
341 1 12.5794 9.43369 18.8739 -8.95252
202 1 7.86182 1.5713 14.1528 -8.95042
203 1 9.43484 0.000550901 12.58 -8.95006
204 1 11.0072 1.57092 14.1529 -8.94926
205 1 12.5796 -5.98823e-05 12.5797 -8.95021
206 1 14.1525 1.57059 14.1526 -8.95136
340 1 9.43457 9.43375 18.8732 -8.95039
208 1 17.2975 1.57176 14.1521 -8.94958
339 1 6.28716 9.4327 18.8741 -8.95054
210 1 20.4417 1.57215 14.152 -8.94947
211 1 -0.00032316 3.14419 12.5795 -8.94942
212 1 1.57083 4.71598 14.1527 -8.94964
213 1 3.14315 3.14345 12.58 -8.94919
214 1 4.71242 4.7124 14.1558 -8.94452
215 1 6.28748 3.14095 12.581 -8.9515
216 1 7.86018 4.71115 14.1552 -8.95176
217 1 9.4347 3.14138 12.5807 -8.95037
218 1 11.0075 4.71228 14.1555 -8.94661
219 1 12.5801 3.14069 12.5802 -8.95306
220 1 14.1565 4.70834 14.1565 -8.95151
221 1 15.7257 3.14259 12.5795 -8.94956
222 1 17.2994 4.71437 14.1528 -8.94984
223 1 18.87 3.14387 12.5795 -8.94929
224 1 20.4421 4.71625 14.1521 -8.9497
225 1 22.0134 6.28873 12.5795 -8.95012
226 1 1.57094 7.86146 14.1523 -8.95005
227 1 3.14018 6.28709 12.5809 -8.9508
228 1 4.71158 7.85959 14.1545 -8.95155
229 1 6.27583 6.2756 12.5911 -8.92968
230 1 7.84809 7.84419 14.1711 -8.95405
231 1 9.43399 6.27841 12.5867 -8.95182
232 1 11.0081 7.85474 14.1652 -8.94666
233 1 12.5896 6.27234 12.59 -8.95257
234 1 14.1759 7.83606 14.1757 -8.92195
235 1 15.7306 6.28365 12.5806 -8.95012
236 1 17.3056 7.85712 14.1558 -8.951
237 1 18.8716 6.28787 12.5795 -8.9496
238 1 20.4437 7.86106 14.1524 -8.95052
239 1 22.0142 9.43428 12.5793 -8.9506
240 1 3.14134 9.43432 12.5795 -8.95103
241 1 6.27887 9.433 12.5817 -8.95535
242 1 9.39662 9.40284 12.6148 -8.86368
243 1 12.65 9.38305 12.6466 -8.78146
244 1 15.7446 9.42616 12.5848 -8.96095
245 1 18.8746 9.43331 12.5796 -8.9531
246 1 -0.000254922 0.000178312 15.7245 -8.9495
247 1 1.57183 1.57216 17.2972 -8.94919
47 1 12.5795 9.4342 22.0131 -8.95201
249 1 4.71653 1.57199 17.2976 -8.94998
250 1 6.28907 0.000834109 15.7253 -8.95053
251 1 7.86197 1.57179 17.2975 -8.94942
252 1 9.43474 -2.47949e-05 15.7251 -8.94931
253 1 11.007 1.57165 17.2976 -8.94955
254 1 12.5796 -0.000280776 15.725 -8.94921
255 1 14.152 1.57155 17.2975 -8.94942
256 1 15.725 0.00021064 15.7251 -8.95076
257 1 17.2976 1.57156 17.2976 -8.94968
46 1 9.43434 9.43441 22.0148 -8.94947
259 1 20.4417 1.57212 17.297 -8.94955
260 1 22.0136 3.14423 15.7247 -8.94951
261 1 1.57175 4.71647 17.2975 -8.94988
262 1 3.14317 3.14339 15.7256 -8.94826
263 1 4.71487 4.71442 17.2995 -8.94897
264 1 6.28847 3.14246 15.726 -8.95055
265 1 7.86142 4.71498 17.2989 -8.94896
266 1 9.43437 3.14263 15.7259 -8.94922
267 1 11.0069 4.7147 17.2992 -8.94908
268 1 12.5798 3.14231 15.726 -8.94894
269 1 14.1528 4.71446 17.2993 -8.94952
270 1 15.7263 3.14139 15.7263 -8.94997
271 1 17.2996 4.71378 17.2995 -8.94725
272 1 18.8701 3.14371 15.7248 -8.94968
273 1 20.4425 4.71624 17.2975 -8.94955
274 1 22.0141 6.28886 15.7249 -8.94992
275 1 1.57111 7.86114 17.298 -8.94983
276 1 3.14248 6.28814 15.7258 -8.95049
277 1 4.71259 7.85817 17.3016 -8.94478
278 1 6.28349 6.28204 15.732 -8.94905
279 1 7.86032 7.85911 17.303 -8.95301
280 1 9.43391 6.28477 15.7299 -8.94706
281 1 11.0068 7.85841 17.3034 -8.94742
282 1 12.5809 6.28419 15.7308 -8.94862
283 1 14.155 7.85796 17.3047 -8.95305
284 1 15.7329 6.27973 15.7329 -8.94165
285 1 17.302 7.85782 17.302 -8.94521
286 1 18.8724 6.28728 15.7261 -8.94974
287 1 20.443 7.8611 17.298 -8.94987
288 1 6.91652e-05 9.43407 15.7251 -8.95052
289 1 3.14049 9.43299 15.7267 -8.95096
290 1 6.27641 9.42358 15.7383 -8.93106
291 1 9.43443 9.43065 15.736 -8.95267
292 1 12.582 9.43011 15.7417 -8.96329
293 1 15.739 9.42342 15.7393 -8.93266
294 1 18.8739 9.43304 15.7268 -8.95099
45 1 6.28906 9.43437 22.0151 -8.94989
296 1 1.57207 1.57223 20.4417 -8.94926
297 1 3.14423 0.000394099 18.8697 -8.94946
298 1 4.71702 1.57221 20.4417 -8.94963
299 1 6.28956 0.00016236 18.8695 -8.94967
300 1 7.86195 1.57214 20.4417 -8.94948
338 1 3.14321 9.4338 18.8708 -8.94914
302 1 11.0069 1.57209 20.4417 -8.94952
337 1 22.0139 9.43419 18.87 -8.94938
304 1 14.152 1.57208 20.4417 -8.94947
305 1 15.7244 -5.58507e-07 18.8695 -8.9497
306 1 17.297 1.57207 20.4417 -8.94968
307 1 18.8696 0.000184763 18.8696 -8.94929
308 1 20.4418 1.57221 20.4417 -8.94911
309 1 22.014 3.14441 18.8695 -8.94957
310 1 1.57207 4.71676 20.442 -8.94929
311 1 3.14397 3.14396 18.87 -8.94928
312 1 4.71656 4.71641 20.4421 -8.95006
313 1 6.28929 3.14395 18.8699 -8.94949
314 1 7.86167 4.71626 20.4421 -8.94931
315 1 9.43434 3.1438 18.87 -8.9494
316 1 11.0068 4.71609 20.4421 -8.94949
317 1 12.5795 3.14374 18.87 -8.94934
318 1 14.1521 4.7161 20.4421 -8.94944
319 1 15.7247 3.14369 18.87 -8.94964
320 1 17.2977 4.71602 20.4421 -8.94965
321 1 18.8701 3.14377 18.8699 -8.94885
322 1 20.442 4.71664 20.442 -8.94921
323 1 22.014 6.28899 18.8699 -8.94949
324 1 1.57197 7.86171 20.4421 -8.94945
325 1 3.14335 6.28832 18.8708 -8.94835
326 1 4.71607 7.86122 20.4433 -8.94958
327 1 6.28845 6.28798 18.8716 -8.95082
328 1 7.86167 7.8614 20.4432 -8.95042
329 1 9.43398 6.28776 18.8716 -8.949
330 1 11.0067 7.86086 20.4432 -8.95014
331 1 12.5797 6.28768 18.8718 -8.94913
332 1 14.1525 7.86099 20.443 -8.95102
333 1 15.726 6.28735 18.872 -8.95048
334 1 17.2983 7.86096 20.443 -8.94953
335 1 18.8709 6.28808 18.8708 -8.9484
336 1 20.4421 7.86168 20.4421 -8.94946
29 1 22.014 6.28942 22.014 -8.94949
638 1 1.57191 11.0068 20.4422 -8.94948
514 1 7.88065 10.9888 10.9865 -8.83702
515 1 11.0949 10.707 11.1 -7.31942
27 1 18.8697 3.14417 22.0137 -8.94914
39 1 15.7254 6.28825 22.0131 -8.95023
593 1 14.157 11.0055 17.3087 -8.95628
540 1 1.57025 11.0068 14.1526 -8.95122
541 1 4.70795 11.0057 14.1565 -8.9563
542 1 7.82739 10.9754 14.1913 -8.85751
543 1 11.0042 11.009 14.1492 -8.96814
544 1 14.19 10.9786 14.1933 -8.86407
545 1 17.307 11.0061 14.1563 -8.95675
546 1 20.4437 11.007 14.1525 -8.95141
33 1 6.28905 6.28905 22.0137 -8.95062
31 1 3.14432 6.28934 22.0143 -8.94968
591 1 7.85771 11.0048 17.3079 -8.9566
592 1 11.0066 11.0074 17.2996 -8.94402
5 1 6.28947 0.000180525 22.0136 -8.94946
15 1 22.0139 3.14455 22.0139 -8.94933
17 1 3.14432 3.14435 22.0137 -8.94951
23 1 12.5795 3.14412 22.0137 -8.94944
13 1 18.8694 0.000131441 22.0137 -8.94941
21 1 9.43435 3.14417 22.0137 -8.94948
43 1 22.014 9.43438 22.014 -8.94952
49 1 18.8701 9.43423 22.014 -8.94936
688 3 10.1404 11.036 9.3847 2.38037
511 1 18.8704 18.8702 9.43434 -8.94921
510 1 15.7273 18.8726 9.43372 -8.94886
509 1 12.5818 18.8785 9.43096 -8.95867
508 1 9.43249 18.8805 9.43098 -8.9579
349 1 17.2987 11.0069 1.57118 -8.94935
507 1 6.28438 18.8768 9.4333 -8.94862
539 1 20.4417 20.4421 11.007 -8.94949
352 1 1.57213 14.1518 1.57219 -8.9494
353 1 3.14414 12.5793 0.000373274 -8.94948
354 1 4.71655 14.1515 1.5722 -8.94966
153 1 15.7254 22.0146 9.43445 -8.9496
356 1 7.86159 14.1518 1.57089 -8.95265
150 1 6.28822 22.0154 9.43435 -8.95019
358 1 11.0066 14.1526 1.56948 -8.95028
345 1 4.71653 11.0068 1.57236 -8.9496
360 1 14.1538 14.1533 1.56861 -8.95166
361 1 15.7259 12.5799 -0.000353061 -8.94961
362 1 17.2986 14.1527 1.57115 -8.94913
107 1 12.58 22.0154 6.28846 -8.95001
364 1 20.4422 14.1521 1.57204 -8.94942
365 1 22.014 15.7244 9.79809e-05 -8.94948
366 1 1.57196 17.2969 1.57206 -8.94977
105 1 9.43431 22.0156 6.28817 -8.94979
368 1 4.71583 17.2977 1.57092 -8.94973
529 1 11.007 17.2994 11.0017 -9.01414
370 1 7.8614 17.2979 1.57026 -8.94975
371 1 9.43432 15.7251 -0.000916219 -8.94985
372 1 11.007 17.2982 1.57006 -8.94973
373 1 12.5794 15.7251 -0.0012355 -8.94991
374 1 14.1528 17.2982 1.57012 -8.95035
526 1 1.56972 17.2983 11.0071 -8.94932
376 1 17.2983 17.2981 1.57117 -8.94831
525 1 20.4414 14.1518 11.0069 -8.94927
378 1 20.4421 17.2971 1.57209 -8.94945
111 1 18.8697 22.0142 6.28932 -8.94959
380 1 1.57181 20.4419 1.57199 -8.94919
495 1 12.5442 12.5725 9.45102 -8.8292
382 1 4.71656 20.4422 1.57149 -8.9496
383 1 6.28928 18.8698 -0.000458288 -8.94977
384 1 7.86177 20.4423 1.5714 -8.94933
494 1 9.36406 12.8556 9.46157 -7.95036
386 1 11.007 20.4423 1.57139 -8.94943
493 1 6.28744 12.5898 9.43884 -8.9704
388 1 14.1522 20.4423 1.57147 -8.94934
389 1 15.7247 18.8699 -0.000559913 -8.94993
390 1 17.2975 20.4423 1.57154 -8.94941
391 1 18.8698 18.8698 -3.54006e-05 -8.94917
392 1 20.4417 20.4418 1.57222 -8.9496
506 1 3.14188 18.8714 9.43409 -8.94892
394 1 4.7163 11.0068 4.71619 -8.94586
505 1 22.0133 18.87 9.43432 -8.94947
504 1 18.8712 15.7248 9.43459 -8.95256
503 1 15.7346 15.7299 9.43043 -8.9564
398 1 17.3019 11.007 4.71424 -8.94833
399 1 20.443 11.0069 4.7164 -8.94985
400 1 0.000269538 12.5794 3.14426 -8.94953
401 1 1.57173 14.1516 4.71659 -8.94976
402 1 3.14409 12.5791 3.14416 -8.94904
403 1 4.71493 14.1512 4.7156 -8.9512
404 1 6.28927 12.5781 3.14472 -8.94914
405 1 7.85665 14.1564 4.7073 -8.9555
406 1 9.43517 12.5791 3.14516 -8.94828
407 1 11.0075 14.1562 4.70711 -8.95178
408 1 12.5826 12.5807 3.13679 -8.95811
409 1 14.1656 14.1632 4.70307 -8.92942
410 1 15.7288 12.5807 3.14051 -8.94748
411 1 17.3018 14.1539 4.71449 -8.95002
412 1 18.8711 12.5797 3.14361 -8.94925
413 1 20.4427 14.1521 4.71653 -8.95011
414 1 22.014 15.7244 3.14435 -8.94976
415 1 1.57068 17.2975 4.71607 -8.94974
416 1 3.14362 15.7244 3.1438 -8.95027
417 1 4.71211 17.3008 4.71216 -8.94502
418 1 6.28671 15.7263 3.14011 -8.95051
419 1 7.85885 17.3018 4.71032 -8.95072
420 1 9.43369 15.7266 3.13955 -8.94984
421 1 11.0074 17.3021 4.7103 -8.94724
422 1 12.5807 15.7269 3.13887 -8.95171
423 1 14.157 17.3033 4.70989 -8.95136
424 1 15.7289 15.7282 3.14009 -8.94437
425 1 17.2987 17.2979 4.71599 -8.95103
426 1 18.871 15.7252 3.14373 -8.9494
427 1 20.4417 17.297 4.71683 -8.9499
428 1 22.0135 18.8695 3.14435 -8.94962
429 1 1.57139 20.4423 4.71644 -8.9494
430 1 3.14307 18.8704 3.14319 -8.94842
431 1 4.71486 20.444 4.71482 -8.94821
432 1 6.28806 18.8711 3.14204 -8.94979
433 1 7.86115 20.4439 4.71497 -8.94913
434 1 9.43404 18.8713 3.14206 -8.949
435 1 11.0072 20.4439 4.71498 -8.94938
436 1 12.5801 18.8713 3.14215 -8.9488
437 1 14.1531 20.4438 4.71535 -8.95017
438 1 15.7264 18.8717 3.14213 -8.94949
439 1 17.2984 20.443 4.71579 -8.94803
440 1 18.8699 18.8697 3.14426 -8.95006
441 1 20.4419 20.442 4.71672 -8.94947
502 1 12.6181 15.7644 9.38593 -8.82668
501 1 9.38878 15.7688 9.38934 -8.90564
500 1 6.26836 15.741 9.42925 -8.94868
499 1 3.13816 15.7268 9.43421 -8.95179
498 1 -0.00125323 15.7247 9.4344 -8.95067
497 1 18.8693 12.5798 9.43453 -8.94591
496 1 15.7179 12.5788 9.43691 -8.93475
449 1 22.0142 12.5792 6.28913 -8.94993
450 1 1.56986 14.1518 7.86157 -8.95164
451 1 3.14359 12.5783 6.28905 -8.94973
452 1 4.7066 14.1546 7.85966 -8.95809
453 1 6.28729 12.5763 6.28995 -8.94902
454 1 7.8196 14.189 7.82652 -8.85014
455 1 9.42532 12.6025 6.29285 -8.9031
456 1 11.0236 14.1718 7.83306 -8.93106
457 1 12.6205 12.6146 6.25437 -8.84546
458 1 14.1566 14.1495 7.86123 -8.95154
459 1 15.7366 12.5822 6.28396 -8.95431
460 1 17.2988 14.1514 7.86264 -8.94946
461 1 18.8724 12.5797 6.28879 -8.95174
462 1 20.4419 14.1519 7.86192 -8.94971
463 1 22.0131 15.7245 6.2891 -8.95012
464 1 1.56981 17.2979 7.86127 -8.95032
465 1 3.14003 15.7258 6.28729 -8.95087
466 1 4.70867 17.3029 7.85785 -8.94831
467 1 6.27515 15.7367 6.27568 -8.93092
468 1 7.84493 17.3194 7.84587 -8.93629
469 1 9.43127 15.7363 6.27485 -8.96098
470 1 11.0066 17.3103 7.8505 -8.94384
471 1 12.5887 15.7389 6.2717 -8.9644
472 1 14.1664 17.3117 7.84791 -8.92514
473 1 15.7283 15.7257 6.28758 -8.95299
474 1 17.3017 17.2995 7.85986 -8.95066
475 1 18.8704 15.7245 6.28944 -8.94979
476 1 20.4421 17.2974 7.86169 -8.95068
477 1 -0.000538049 18.8698 6.28908 -8.94992
478 1 1.57135 20.4423 7.86172 -8.94937
479 1 3.14166 18.8714 6.2877 -8.94915
480 1 4.71482 20.4441 7.861 -8.94933
481 1 6.28316 18.8773 6.2832 -8.9452
482 1 7.85995 20.4476 7.85988 -8.95312
483 1 9.43322 18.8757 6.2845 -8.94795
484 1 11.0072 20.4465 7.85964 -8.9493
485 1 12.5814 18.8753 6.28516 -8.95019
486 1 14.1541 20.4458 7.86023 -8.95156
487 1 15.7294 18.8742 6.28518 -8.94344
488 1 17.2982 20.4428 7.86158 -8.9496
489 1 18.8709 18.8704 6.28862 -8.94957
490 1 20.4418 20.442 7.86187 -8.94947
491 1 22.0135 12.5793 9.43423 -8.94887
492 1 3.14313 12.5789 9.43449 -8.94913
519 1 1.56938 14.1519 11.0071 -8.95172
520 1 4.70512 14.1557 11.0107 -8.96091
522 1 11.0174 14.4379 10.9383 -8.01312
523 1 14.1507 14.1658 10.9941 -8.92662
524 1 17.2968 14.1511 11.0072 -8.94943
393 1 1.57202 11.0068 4.71645 -8.94945
54 1 6.28911 22.0144 3.14373 -8.94944
60 1 15.725 22.0143 3.14391 -8.94992
99 1 22.0136 22.0141 6.28941 -8.94951
101 1 3.14364 22.0144 6.28898 -8.94943
527 1 4.70984 17.3031 11.008 -8.94573
534 1 4.71499 20.4441 11.0073 -8.94913
687 3 10.9802 12.6063 11.7155 2.29637
686 1 20.4418 20.4419 20.4418 -8.94912
685 1 18.8701 18.8702 18.8701 -8.94861
684 1 17.297 20.442 20.4417 -8.94984
683 1 15.7247 18.8701 18.87 -8.95047
682 1 14.152 20.4419 20.4416 -8.94938
681 1 12.5795 18.87 18.8698 -8.94896
303 1 12.5795 22.0139 18.8696 -8.94951
301 1 9.43453 22.014 18.8696 -8.94953
521 1 7.81113 14.2156 11.0361 -8.80233
387 1 12.5796 18.87 22.0133 -8.94947
207 1 15.7252 22.0143 12.5797 -8.94942
201 1 6.2885 22.0151 12.5802 -8.95057
385 1 9.4344 18.87 22.0133 -8.94951
197 1 22.0136 22.0141 12.5795 -8.9495
590 1 4.71295 11.0057 17.3013 -8.94757
528 1 7.85309 17.3158 11.0087 -8.95826
661 1 3.14331 15.725 18.8708 -8.94923
530 1 14.1571 17.3041 11.006 -8.94837
531 1 17.2998 17.2989 11.0069 -8.94767
660 1 1.57195 17.2971 20.442 -8.94956
533 1 1.57136 20.4424 11.007 -8.9494
589 1 1.571 11.0066 17.2982 -8.94935
535 1 7.8607 20.4465 11.0075 -8.95236
536 1 11.0073 20.4435 11.0069 -8.9477
537 1 14.1533 20.4439 11.0072 -8.94992
538 1 17.2979 20.4426 11.0071 -8.94937
659 1 22.0138 15.7247 18.8699 -8.94934
680 1 11.007 20.442 20.4416 -8.94953
679 1 9.43468 18.8701 18.8699 -8.94904
678 1 7.86203 20.442 20.4416 -8.9494
677 1 6.28925 18.8704 18.8704 -8.95038
676 1 4.71689 20.4421 20.4418 -8.94981
675 1 3.14333 18.8707 18.8707 -8.9483
674 1 1.57195 20.442 20.4419 -8.9491
547 1 22.0136 12.5794 12.5794 -8.94858
548 1 1.57006 14.1518 14.1524 -8.95122
549 1 3.14292 12.5784 12.58 -8.94605
550 1 4.7077 14.1527 14.1562 -8.95972
551 1 6.29181 12.5764 12.5858 -8.99763
552 1 7.82367 14.1851 14.1965 -8.87412
553 1 9.21521 12.5845 12.6559 -8.13454
554 1 11.0058 14.1412 14.1284 -8.91748
555 1 12.7656 12.5552 12.6434 -8.19171
556 1 14.1806 14.1729 14.1827 -8.88209
557 1 15.7243 12.5774 12.584 -8.99195
558 1 17.3037 14.1529 14.1547 -8.95671
559 1 18.8706 12.5796 12.5797 -8.94752
560 1 20.4428 14.1521 14.1522 -8.95098
561 1 22.0126 15.7249 12.5795 -8.95079
562 1 1.56971 17.2982 14.153 -8.94977
563 1 3.13755 15.7273 12.5814 -8.95194
564 1 4.7091 17.3036 14.1578 -8.94306
565 1 6.26658 15.743 12.5945 -8.92862
566 1 7.85388 17.3101 14.1614 -8.94957
567 1 9.40688 15.7414 12.6022 -8.88871
568 1 11.0078 17.2961 14.1516 -8.94285
569 1 12.6095 15.7369 12.6018 -8.87524
570 1 14.1603 17.3066 14.1597 -8.94697
571 1 15.7318 15.7265 12.5797 -8.95593
572 1 17.2998 17.2987 14.1529 -8.95064
573 1 18.871 15.725 12.5792 -8.95106
574 1 20.4419 17.2975 14.1521 -8.95003
575 1 -0.000644907 18.87 12.5796 -8.94944
576 1 1.57142 20.4424 14.1523 -8.94937
577 1 3.14197 18.8715 12.5803 -8.94894
578 1 4.71525 20.444 14.1533 -8.94942
579 1 6.2851 18.8764 12.5821 -8.94943
580 1 7.86167 20.4446 14.1531 -8.9523
581 1 9.43452 18.8737 12.5804 -8.95194
582 1 11.0075 20.4419 14.1527 -8.94821
583 1 12.5805 18.8716 12.5796 -8.95295
584 1 14.1526 20.4433 14.1526 -8.95252
585 1 15.7266 18.8715 12.58 -8.94769
586 1 17.2977 20.4425 14.1522 -8.94927
587 1 18.8702 18.8702 12.5796 -8.94924
588 1 20.4417 20.442 14.152 -8.94941
673 1 22.0137 18.8697 18.8697 -8.94958
672 1 20.4419 17.2971 20.4419 -8.94943
671 1 18.8704 15.7252 18.8704 -8.94911
670 1 17.2978 17.2979 20.4423 -8.94955
669 1 15.7262 15.7263 18.8723 -8.95049
668 1 14.1519 17.2974 20.4417 -8.94995
667 1 12.5789 15.7248 18.8701 -8.9502
596 1 -0.000157786 12.5796 15.7253 -8.95019
597 1 1.57098 14.1523 17.2981 -8.94923
598 1 3.14035 12.5794 15.7273 -8.94902
599 1 4.71311 14.1531 17.3011 -8.9476
600 1 6.27907 12.579 15.7357 -8.94202
601 1 7.85776 14.1546 17.3083 -8.95837
602 1 9.42589 12.5802 15.7344 -8.97003
603 1 11.0069 14.1512 17.2946 -8.93915
604 1 12.5862 12.5785 15.733 -8.96797
605 1 14.1555 14.154 17.3051 -8.95584
606 1 15.7347 12.5803 15.7349 -8.9413
607 1 17.3004 14.1536 17.3003 -8.9476
608 1 18.8732 12.58 15.727 -8.9493
609 1 20.4426 14.1525 17.2979 -8.9493
610 1 22.0135 15.7248 15.7249 -8.95047
611 1 1.57099 17.2977 17.2979 -8.95011
612 1 3.14046 15.7259 15.7268 -8.95188
613 1 4.7126 17.3013 17.3021 -8.9451
614 1 6.27603 15.7371 15.7401 -8.93327
615 1 7.86205 17.2988 17.2999 -8.95187
616 1 9.43715 15.7253 15.7292 -8.95488
617 1 11.0074 17.2984 17.2985 -8.94688
618 1 12.5776 15.7235 15.7276 -8.95731
619 1 14.1521 17.298 17.2989 -8.95233
620 1 15.7338 15.733 15.734 -8.93607
621 1 17.2999 17.3 17.2999 -8.94616
622 1 18.8721 15.7258 15.7258 -8.95089
623 1 20.4423 17.2976 17.2976 -8.94989
624 1 22.0133 18.8699 15.7248 -8.94957
625 1 1.57157 20.4423 17.2974 -8.94915
626 1 3.1421 18.8715 15.7264 -8.94796
627 1 4.71592 20.4434 17.2983 -8.94934
628 1 6.2864 18.8746 15.7284 -8.94924
629 1 7.86231 20.4423 17.2975 -8.94958
630 1 9.43551 18.8704 15.7256 -8.94864
631 1 11.0072 20.4421 17.2975 -8.94962
632 1 12.5792 18.8697 15.7251 -8.94847
633 1 14.1518 20.4419 17.2973 -8.94959
634 1 15.7273 18.8732 15.7274 -8.94864
635 1 17.2978 20.4428 17.2979 -8.94919
636 1 18.8702 18.8702 15.7249 -8.94995
637 1 20.4417 20.442 17.2971 -8.94961
666 1 11.007 17.2977 20.4417 -8.94958
639 1 4.71592 11.0066 20.4433 -8.94931
665 1 9.43525 15.7251 18.8707 -8.95012
664 1 7.86203 17.2975 20.442 -8.94988
663 1 6.28734 15.7265 18.874 -8.95134
643 1 17.2983 11.0068 20.4429 -8.94924
662 1 4.71604 17.2979 20.4429 -8.95
645 1 22.0139 12.5795 18.87 -8.94946
646 1 1.57191 14.152 20.4421 -8.94945
647 1 3.14319 12.5794 18.8709 -8.94938
648 1 4.716 14.1521 20.4432 -8.94922
649 1 6.28693 12.5794 18.874 -8.94884
650 1 7.86151 14.1522 20.444 -8.95212
651 1 9.43441 12.5798 18.8726 -8.95056
652 1 11.0068 14.1524 20.4415 -8.94788
653 1 12.5794 12.5799 18.8719 -8.95089
654 1 14.1525 14.1525 20.4428 -8.9517
655 1 15.7272 12.5801 18.8734 -8.94891
656 1 17.2981 14.1526 20.4426 -8.94912
657 1 18.8707 12.5797 18.8707 -8.9494
658 1 20.442 14.1521 20.442 -8.94946
351 1 22.014 12.5794 22.014 -8.94953
355 1 6.28888 12.5792 22.0151 -8.9497
357 1 9.43441 12.5793 22.0147 -8.94896
359 1 12.5795 12.5796 22.0129 -8.95104
363 1 18.8701 12.5796 22.0139 -8.94943
367 1 3.1442 15.7244 22.0142 -8.94959
369 1 6.28884 15.7248 22.014 -8.95109
375 1 15.7255 15.7254 22.0133 -8.95023
377 1 18.87 15.7248 22.0139 -8.94936
381 1 3.14406 18.8698 22.0139 -8.94944
248 1 3.1438 22.0144 15.7251 -8.94941
258 1 18.8695 22.014 15.7245 -8.94959
295 1 22.0138 22.0141 18.8694 -8.94933
595 1 20.4429 11.0068 17.2981 -8.94937
594 1 17.3012 11.0062 17.3011 -8.94775
532 1 20.4419 17.2976 11.0069 -8.94968
379 1 22.0139 18.8694 22.0139 -8.94954
