ITEM: TIMESTEP
68
ITEM: NUMBER OF ATOMS
688
ITEM: BOX BOUNDS pp pp pp
0.0000000000000000e+00 2.2013900999999997e+01
0.0000000000000000e+00 2.2013900999999997e+01
0.0000000000000000e+00 2.2013900999999997e+01
ITEM: ATOMS id type x y z c_pot
1 1 22.0139 3.83141e-05 8.46157e-06 -8.94937
2 1 1.5722 1.57233 1.5722 -8.94924
3 1 3.14473 7.36128e-05 -7.0928e-05 -8.94967
4 1 4.71712 1.5723 1.57216 -8.94968
448 1 20.4424 11.0071 7.86196 -8.9495
6 1 7.86203 1.57227 1.57212 -8.94955
175 1 18.8718 9.43401 9.43413 -8.95088
8 1 11.007 1.57225 1.5721 -8.94958
174 1 15.7341 9.42829 9.42838 -8.94483
10 1 14.1519 1.57225 1.57216 -8.94954
11 1 15.7243 6.306e-05 -7.88264e-05 -8.94957
12 1 17.2969 1.5722 1.57215 -8.94956
7 1 9.4345 8.58765e-05 -9.86345e-05 -8.9496
14 1 20.4415 1.57236 1.57233 -8.94948
447 1 17.3001 11.008 7.86233 -8.95159
16 1 1.57224 4.71714 1.57226 -8.94978
446 1 14.1636 11.0112 7.85246 -8.97687
18 1 4.71656 4.7166 1.57144 -8.9495
445 1 11.103 11.0052 7.64191 -8.12053
20 1 7.86183 4.71659 1.57162 -8.94913
56 1 9.4345 0.000234218 3.14427 -8.94954
22 1 11.0069 4.71645 1.5716 -8.94939
444 1 7.88619 11.0127 7.8755 -8.87295
24 1 14.1521 4.7164 1.57159 -8.94968
443 1 4.72002 11.0076 7.86306 -8.9407
26 1 17.2976 4.71624 1.5715 -8.94831
442 1 1.57208 11.0069 7.86164 -8.94766
28 1 20.4418 4.71704 1.57225 -8.94959
397 1 14.1614 11.0076 4.70747 -8.94261
30 1 1.57227 7.86206 1.57227 -8.94945
396 1 11.0119 11.0075 4.72023 -9.00156
32 1 4.71695 7.86223 1.57225 -8.94984
395 1 7.86508 11.0075 4.72089 -8.94628
34 1 7.86172 7.86185 1.57096 -8.95206
35 1 9.43422 6.28895 -0.000361684 -8.9495
36 1 11.0064 7.86109 1.57027 -8.95036
37 1 12.5794 6.28895 -0.000391792 -8.94955
38 1 14.1532 7.86063 1.56918 -8.95191
518 1 20.4426 11.0072 11.0067 -8.94971
40 1 17.2976 7.86163 1.57168 -8.94947
350 1 20.4418 11.0069 1.5722 -8.94956
42 1 20.4418 7.86199 1.57223 -8.94948
58 1 12.5795 0.000222919 3.1443 -8.94949
44 1 3.14447 9.43442 9.36525e-05 -8.94948
348 1 14.1536 11.007 1.56946 -8.94963
347 1 11.0067 11.007 1.57169 -8.94671
346 1 7.86184 11.0069 1.57282 -8.94841
48 1 15.7251 9.43415 -0.000157186 -8.94982
149 1 3.14424 0.000235431 9.43448 -8.94947
50 1 -7.54672e-05 8.12854e-05 3.14471 -8.94953
51 1 1.57214 1.57229 4.71709 -8.94963
52 1 3.14436 0.000202483 3.14434 -8.94922
53 1 4.71653 1.57198 4.71651 -8.94985
517 1 17.301 11.0071 11.0065 -8.95377
55 1 7.86193 1.57201 4.71656 -8.94943
173 1 12.5983 9.40891 9.38833 -8.83478
57 1 11.0071 1.57196 4.7165 -8.94949
172 1 9.3694 9.20007 9.44054 -8.12722
59 1 14.1522 1.57189 4.71672 -8.95027
516 1 14.169 10.9803 10.9966 -8.93504
61 1 17.2971 1.57231 4.71697 -8.94959
62 1 18.8693 0.000143945 3.14461 -8.94933
63 1 20.4415 1.57235 4.71718 -8.94963
64 1 22.0137 3.14462 3.14463 -8.9495
65 1 1.57148 4.71664 4.71661 -8.94957
66 1 3.14402 3.14417 3.14401 -8.94846
67 1 4.71418 4.71438 4.71416 -8.94516
68 1 6.28933 3.14415 3.14408 -8.94964
69 1 7.86126 4.71486 4.71531 -8.94898
70 1 9.43443 3.14404 3.14404 -8.94944
71 1 11.0071 4.71464 4.71518 -8.94803
72 1 12.5795 3.14396 3.14409 -8.94922
73 1 14.154 4.71318 4.71476 -8.95013
74 1 15.725 3.14366 3.144 -8.94955
75 1 17.298 4.71596 4.71635 -8.94896
76 1 18.8694 3.14451 3.14456 -8.94948
77 1 20.4417 4.71687 4.71696 -8.9496
78 1 22.014 6.28959 3.14463 -8.94983
79 1 1.57204 7.86221 4.71693 -8.9498
80 1 3.14422 6.28956 3.14429 -8.95036
81 1 4.71586 7.86246 4.71618 -8.95198
82 1 6.28765 6.28787 3.1415 -8.95012
83 1 7.85737 7.85748 4.7088 -8.95439
84 1 9.43382 6.28777 3.14228 -8.94775
85 1 11.0066 7.85754 4.7089 -8.9505
86 1 12.5799 6.28751 3.14188 -8.94918
87 1 14.1647 7.84963 4.70307 -8.93102
88 1 15.728 6.28588 3.1408 -8.94467
89 1 17.3004 7.86044 4.71518 -8.95148
90 1 18.8702 6.28901 3.14413 -8.94985
91 1 20.4422 7.86192 4.7169 -8.95016
92 1 6.698e-05 9.43445 3.14452 -8.94953
93 1 3.1443 9.4345 3.14429 -8.94899
94 1 6.28954 9.43542 3.14459 -8.94957
95 1 9.43481 9.43471 3.14377 -8.95098
96 1 12.5816 9.43324 3.13608 -8.96071
97 1 15.7272 9.43361 3.14171 -8.9479
98 1 18.8702 9.43431 3.14412 -8.9492
513 1 4.71841 11.0072 11.0067 -8.94325
100 1 1.57209 1.57227 7.86202 -8.94956
189 1 20.4418 4.7167 11.0069 -8.94952
102 1 4.71644 1.57187 7.86181 -8.94939
103 1 6.28883 0.00103232 6.2888 -8.95062
104 1 7.86178 1.57177 7.86178 -8.95159
171 1 6.28012 9.425 9.43164 -8.96619
106 1 11.007 1.57228 7.86173 -8.94995
170 1 3.14218 9.43485 9.4342 -8.95207
108 1 14.1523 1.57218 7.86187 -8.95037
109 1 15.725 0.000802434 6.28912 -8.94987
110 1 17.2971 1.57219 7.862 -8.94953
188 1 17.2981 4.71565 11.0068 -8.94875
112 1 20.4416 1.57232 7.86205 -8.94958
113 1 -0.000175318 3.14458 6.28956 -8.94951
114 1 1.57147 4.71657 7.86182 -8.94929
115 1 3.14398 3.14409 6.28923 -8.9494
116 1 4.71461 4.71458 7.86099 -8.94816
117 1 6.28835 3.14232 6.28835 -8.95139
118 1 7.85979 4.71034 7.86083 -8.95836
119 1 9.43452 3.14268 6.28854 -8.95004
120 1 11.0063 4.71404 7.86127 -8.9512
121 1 12.5797 3.14266 6.28901 -8.95191
122 1 14.1534 4.71369 7.86145 -8.95065
123 1 15.725 3.14368 6.28927 -8.94986
124 1 17.2979 4.71583 7.8617 -8.94916
125 1 18.8694 3.14444 6.28952 -8.94953
126 1 20.4417 4.71677 7.86194 -8.94947
127 1 22.0135 6.28928 6.2893 -8.9502
128 1 1.57054 7.86179 7.86167 -8.95181
129 1 3.14155 6.28806 6.28792 -8.95039
130 1 4.70793 7.85854 7.85901 -8.95657
131 1 6.27887 6.27936 6.27934 -8.93161
132 1 7.82508 7.82912 7.83139 -8.85822
133 1 9.43359 6.28218 6.28525 -8.94942
134 1 11.0214 7.85068 7.83772 -8.89825
135 1 12.5848 6.27883 6.28288 -8.95314
136 1 14.1663 7.85021 7.85304 -8.93318
137 1 15.7289 6.28541 6.28664 -8.94621
138 1 17.3019 7.85938 7.8603 -8.94942
139 1 18.8707 6.28866 6.28898 -8.94935
140 1 20.4424 7.86165 7.86179 -8.95058
141 1 22.014 9.43458 6.28936 -8.94974
142 1 3.14391 9.43534 6.28925 -8.94975
143 1 6.28807 9.4381 6.28968 -8.95443
144 1 9.42356 9.41565 6.28558 -8.91054
145 1 12.6214 9.39935 6.24648 -8.86818
146 1 15.7346 9.4325 6.28513 -8.95984
147 1 18.8714 9.43454 6.28925 -8.95154
148 1 -9.90876e-05 9.08528e-05 9.43451 -8.9496
169 1 22.0138 9.43455 9.43435 -8.9501
168 1 18.8706 6.28845 9.43423 -8.94901
151 1 9.43464 0.0017771 9.43444 -8.95078
152 1 12.5797 0.00141999 9.43445 -8.95116
167 1 15.7279 6.28534 9.43357 -8.94643
166 1 12.5801 6.28386 9.43231 -8.95421
155 1 22.0137 3.14454 9.43449 -8.94956
156 1 3.14389 3.14401 9.43444 -8.94947
157 1 6.28795 3.14196 9.43439 -8.94953
158 1 9.43446 3.14358 9.4344 -8.9473
159 1 12.5797 3.14319 9.43432 -8.9501
160 1 15.7252 3.14347 9.43438 -8.94957
161 1 18.8695 3.14434 9.43444 -8.9495
162 1 -0.000447947 6.28908 9.43436 -8.94972
163 1 3.1415 6.28782 9.43423 -8.94876
164 1 6.2812 6.28085 9.43428 -8.94399
165 1 9.4313 6.29055 9.43507 -9.00326
344 1 1.57221 11.0069 1.57222 -8.94961
183 1 1.57141 4.7165 11.0071 -8.94934
181 1 17.2972 1.57214 11.007 -8.94952
154 1 18.8694 0.00014595 9.4345 -8.94955
177 1 4.71638 1.57182 11.0071 -8.94938
9 1 12.5794 8.27713e-05 -9.46603e-05 -8.9496
184 1 4.71438 4.71429 11.0076 -8.94782
512 1 1.57173 11.007 11.007 -8.94792
41 1 18.8695 6.28939 5.43367e-05 -8.94957
19 1 6.28957 3.14459 -0.000142224 -8.9495
25 1 15.7244 3.14454 -0.000127633 -8.94967
176 1 1.57208 1.57226 11.007 -8.94958
199 1 3.14425 0.00024452 12.5795 -8.94944
178 1 7.86179 1.57147 11.0071 -8.95154
179 1 11.007 1.57183 11.007 -8.94919
180 1 14.1524 1.57192 11.007 -8.94985
644 1 20.4418 11.0069 20.4417 -8.94958
182 1 20.4416 1.57231 11.0069 -8.9496
642 1 14.1525 11.0069 20.4433 -8.9518
209 1 18.8694 0.000149749 12.5794 -8.94955
185 1 7.85969 4.70938 11.0082 -8.95862
186 1 11.0069 4.71364 11.0072 -8.9516
187 1 14.1533 4.71377 11.0064 -8.94944
641 1 11.0067 11.0069 20.4427 -8.94829
640 1 7.86163 11.0068 20.4437 -8.95116
190 1 1.57034 7.86154 11.0068 -8.95128
191 1 4.70771 7.85825 11.0083 -8.95593
192 1 7.82507 7.82567 11.0404 -8.8613
193 1 11.0302 7.84928 11.0333 -8.96652
194 1 14.161 7.85262 11.0045 -8.95841
195 1 17.3012 7.85946 11.0059 -8.9477
196 1 20.4425 7.86141 11.0067 -8.94981
343 1 18.8701 9.43419 18.87 -8.94932
198 1 1.57211 1.57227 14.1519 -8.94959
342 1 15.7263 9.43313 18.873 -8.95052
200 1 4.71646 1.57179 14.1524 -8.94983
341 1 12.5792 9.4338 18.8731 -8.95233
202 1 7.86197 1.57169 14.1524 -8.95027
203 1 9.43476 0.00046801 12.5798 -8.94993
204 1 11.0071 1.57146 14.1525 -8.94934
205 1 12.5795 0.000163628 12.5796 -8.95009
206 1 14.1522 1.57128 14.1523 -8.95115
340 1 9.43467 9.43385 18.8723 -8.95025
208 1 17.2971 1.57215 14.1519 -8.94959
339 1 6.28785 9.4331 18.8728 -8.95058
210 1 20.4416 1.57233 14.1518 -8.94957
211 1 -0.000174505 3.14454 12.5794 -8.94952
212 1 1.57139 4.71651 14.1523 -8.94964
213 1 3.14388 3.14398 12.5797 -8.94935
214 1 4.71369 4.71361 14.1548 -8.94484
215 1 6.28814 3.14173 12.5805 -8.95127
216 1 7.86092 4.71256 14.1541 -8.9518
217 1 9.43474 3.14203 12.5803 -8.95019
218 1 11.0072 4.71344 14.1544 -8.94688
219 1 12.5798 3.14155 12.5798 -8.95285
220 1 14.1551 4.71007 14.1551 -8.95189
221 1 15.7251 3.1434 12.5793 -8.94957
222 1 17.2983 4.71549 14.1522 -8.94978
223 1 18.8695 3.14435 12.5794 -8.94941
224 1 20.4418 4.71677 14.1519 -8.94968
225 1 22.0135 6.28913 12.5795 -8.95003
226 1 1.57137 7.86172 14.1521 -8.94984
227 1 3.14123 6.2878 12.5806 -8.95068
228 1 4.71296 7.86042 14.1535 -8.95138
229 1 6.27757 6.27735 12.5896 -8.93039
230 1 7.8499 7.8461 14.1684 -8.95454
231 1 9.43429 6.28004 12.5848 -8.95205
232 1 11.0073 7.8561 14.1629 -8.94641
233 1 12.5874 6.27418 12.5877 -8.95394
234 1 14.1739 7.83739 14.1738 -8.92144
235 1 15.7289 6.28505 12.5798 -8.94981
236 1 17.3038 7.85828 14.1546 -8.95095
237 1 18.8707 6.28854 12.5793 -8.94952
238 1 20.443 7.86143 14.1521 -8.95033
239 1 22.014 9.43432 12.5793 -8.95049
240 1 3.14163 9.43439 12.5794 -8.95062
241 1 6.27958 9.4336 12.5807 -8.95511
242 1 9.39803 9.40558 12.613 -8.86452
243 1 12.65 9.38335 12.6464 -8.77688
244 1 15.7434 9.42742 12.5838 -8.96079
245 1 18.8737 9.43365 12.5793 -8.95288
246 1 -8.09988e-05 7.8251e-05 15.7243 -8.9496
247 1 1.57216 1.5723 17.2969 -8.94934
47 1 12.5794 9.43426 22.0131 -8.95182
249 1 4.71694 1.57221 17.2971 -8.94993
250 1 6.28937 0.00058827 15.7248 -8.95036
251 1 7.86205 1.57211 17.2971 -8.94949
252 1 9.43465 0.000106515 15.7248 -8.94939
253 1 11.007 1.57206 17.2972 -8.94962
254 1 12.5794 1.50503e-05 15.7247 -8.94931
255 1 14.1519 1.57204 17.297 -8.94949
256 1 15.7247 0.000335087 15.7247 -8.95054
257 1 17.2971 1.572 17.2971 -8.94969
46 1 9.43434 9.43438 22.0142 -8.94957
259 1 20.4416 1.57232 17.2967 -8.94963
260 1 22.0137 3.14457 15.7244 -8.94956
261 1 1.5721 4.71693 17.297 -8.94987
262 1 3.14387 3.14396 15.725 -8.94845
263 1 4.71576 4.7154 17.2985 -8.94905
264 1 6.28904 3.14332 15.7252 -8.95046
265 1 7.86181 4.71586 17.298 -8.94904
266 1 9.43444 3.14341 15.7253 -8.9493
267 1 11.0069 4.71558 17.2982 -8.94919
268 1 12.5795 3.14325 15.7252 -8.94908
269 1 14.1522 4.71558 17.2982 -8.9496
270 1 15.7255 3.14256 15.7255 -8.95003
271 1 17.2986 4.71496 17.2985 -8.94744
272 1 18.8695 3.14433 15.7244 -8.94971
273 1 20.442 4.71679 17.297 -8.9496
274 1 22.014 6.28929 15.7245 -8.94982
275 1 1.57153 7.86152 17.2974 -8.9498
276 1 3.1434 6.28883 15.7251 -8.95039
277 1 4.71368 7.859 17.3004 -8.94486
278 1 6.28499 6.28365 15.7302 -8.94924
279 1 7.86101 7.85992 17.3014 -8.95275
280 1 9.43415 6.28596 15.7283 -8.94714
281 1 11.0066 7.8591 17.302 -8.94723
282 1 12.5799 6.28549 15.7289 -8.94864
283 1 14.154 7.85887 17.303 -8.95287
284 1 15.7311 6.28144 15.7311 -8.94174
285 1 17.3006 7.8588 17.3006 -8.94524
286 1 18.8713 6.2882 15.7253 -8.94977
287 1 20.4424 7.86152 17.2974 -8.94985
288 1 5.06503e-06 9.43422 15.7248 -8.95042
289 1 3.14139 9.43334 15.726 -8.95092
290 1 6.27765 9.4243 15.7368 -8.93058
291 1 9.43499 9.43142 15.7346 -8.95236
292 1 12.5812 9.43064 15.7406 -8.96281
293 1 15.7375 9.42422 15.7377 -8.93193
294 1 18.8728 9.43345 15.726 -8.95099
45 1 6.28924 9.43441 22.0145 -8.94988
296 1 1.57228 1.57234 20.4416 -8.94944
297 1 3.14458 0.000212709 18.8693 -8.94955
298 1 4.71721 1.57234 20.4415 -8.94966
299 1 6.28967 9.29181e-05 18.8693 -8.94968
300 1 7.86205 1.57231 20.4416 -8.94957
338 1 3.14387 9.43414 18.8701 -8.94932
302 1 11.007 1.5723 20.4416 -8.9496
337 1 22.0139 9.43438 18.8695 -8.94947
304 1 14.1518 1.57231 20.4416 -8.94956
305 1 15.7242 5.71906e-05 18.8692 -8.94969
306 1 17.2967 1.57231 20.4416 -8.94973
307 1 18.8693 0.00014493 18.8693 -8.94942
308 1 20.4416 1.57235 20.4416 -8.94936
309 1 22.0139 3.14469 18.8692 -8.94965
310 1 1.57224 4.71705 20.4417 -8.94938
311 1 3.14441 3.14438 18.8695 -8.94936
312 1 4.71693 4.71684 20.4417 -8.94996
313 1 6.28955 3.14442 18.8694 -8.94955
314 1 7.86191 4.71673 20.4418 -8.94938
315 1 9.43444 3.1443 18.8695 -8.9495
316 1 11.0069 4.71664 20.4418 -8.94955
317 1 12.5794 3.1443 18.8695 -8.94946
318 1 14.1519 4.7167 20.4418 -8.94947
319 1 15.7244 3.14434 18.8695 -8.94971
320 1 17.2971 4.71666 20.4418 -8.94966
321 1 18.8696 3.14431 18.8695 -8.94903
322 1 20.4417 4.71701 20.4417 -8.94937
323 1 22.0139 6.28936 18.8694 -8.94954
324 1 1.57218 7.86196 20.4417 -8.94957
325 1 3.14393 6.28886 18.87 -8.94846
326 1 4.71653 7.86155 20.4425 -8.9496
327 1 6.28902 6.28865 18.8706 -8.95064
328 1 7.86187 7.86161 20.4424 -8.95026
329 1 9.43418 6.28839 18.8707 -8.94902
330 1 11.0067 7.86118 20.4426 -8.94999
331 1 12.5795 6.28839 18.8708 -8.9491
332 1 14.1522 7.86136 20.4425 -8.95078
333 1 15.7253 6.28823 18.871 -8.95035
334 1 17.2975 7.86145 20.4424 -8.94955
335 1 18.8701 6.28877 18.8701 -8.94855
336 1 20.4417 7.86196 20.4417 -8.94959
29 1 22.0139 6.28961 22.0139 -8.94959
638 1 1.57215 11.0069 20.4418 -8.94957
514 1 7.87774 10.9891 10.9867 -8.84
515 1 11.1002 10.7149 11.1098 -7.3127
27 1 18.8693 3.14455 22.0138 -8.94929
39 1 15.7249 6.28886 22.0133 -8.9501
593 1 14.1561 11.0057 17.3078 -8.95634
540 1 1.57055 11.0069 14.1524 -8.95118
541 1 4.70857 11.0058 14.1555 -8.95639
542 1 7.8276 10.9749 14.1912 -8.85369
543 1 11.0058 11.0103 14.151 -8.96692
544 1 14.1899 10.9783 14.1937 -8.86004
545 1 17.3061 11.0065 14.1553 -8.95687
546 1 20.4433 11.007 14.1522 -8.95133
33 1 6.28932 6.28929 22.0136 -8.95039
31 1 3.14457 6.28953 22.014 -8.94965
591 1 7.85853 11.005 17.3067 -8.95676
592 1 11.0067 11.0075 17.2999 -8.94458
5 1 6.28963 6.91211e-05 22.0138 -8.94955
15 1 22.0139 3.14474 22.0139 -8.94949
17 1 3.14461 3.1446 22.0137 -8.94955
23 1 12.5794 3.14451 22.0138 -8.94954
13 1 18.8692 6.37799e-05 22.0138 -8.94953
21 1 9.43447 3.14451 22.0138 -8.94957
43 1 22.0139 9.43448 22.0139 -8.94961
49 1 18.8695 9.43441 22.0139 -8.94949
688 3 10.1594 11.037 9.38556 2.3889
511 1 18.87 18.8698 9.43442 -8.94923
510 1 15.7265 18.8717 9.43417 -8.94908
509 1 12.5813 18.8773 9.43198 -8.95855
508 1 9.43324 18.879 9.43198 -8.95805
349 1 17.2978 11.0069 1.57166 -8.94944
507 1 6.28606 18.8747 9.43391 -8.94875
539 1 20.4417 20.4418 11.007 -8.94957
352 1 1.57224 14.1518 1.57225 -8.94948
353 1 3.14445 12.5794 8.72862e-05 -8.94954
354 1 4.71682 14.1516 1.57213 -8.94964
153 1 15.7249 22.0144 9.43454 -8.94958
356 1 7.86167 14.1518 1.57089 -8.95235
150 1 6.2888 22.0148 9.43449 -8.95003
358 1 11.0065 14.1524 1.56998 -8.95023
345 1 4.71667 11.0068 1.57204 -8.94962
360 1 14.1532 14.1529 1.56949 -8.95154
361 1 15.7252 12.5796 -0.000176666 -8.94959
362 1 17.2977 14.1522 1.57166 -8.9493
107 1 12.5797 22.0148 6.28895 -8.94992
364 1 20.4418 14.1519 1.57222 -8.94952
365 1 22.0139 15.7243 2.39689e-05 -8.94958
366 1 1.57221 17.2967 1.57224 -8.94977
105 1 9.43447 22.0149 6.28876 -8.94972
368 1 4.71641 17.2973 1.57142 -8.94966
529 1 11.0074 17.2978 11.0023 -9.01294
370 1 7.86173 17.2974 1.57102 -8.9497
371 1 9.43438 15.7248 -0.000587355 -8.94979
372 1 11.0069 17.2976 1.57096 -8.94971
373 1 12.5794 15.7248 -0.000660362 -8.94983
374 1 14.1523 17.2975 1.57106 -8.95028
526 1 1.57075 17.2977 11.007 -8.9493
376 1 17.2976 17.2975 1.57169 -8.94847
525 1 20.4417 14.1519 11.0068 -8.94944
378 1 20.4418 17.2968 1.57225 -8.94953
111 1 18.8694 22.014 6.28956 -8.94967
380 1 1.57215 20.4417 1.57223 -8.94933
495 1 12.5472 12.572 9.4515 -8.8302
382 1 4.71697 20.4418 1.57197 -8.94965
383 1 6.28952 18.8694 -0.000239607 -8.94972
384 1 7.86198 20.4419 1.57194 -8.94944
494 1 9.36136 12.8457 9.46125 -7.95773
386 1 11.007 20.4419 1.57193 -8.94952
493 1 6.28534 12.588 9.43776 -8.97084
388 1 14.152 20.4419 1.57199 -8.94944
389 1 15.7244 18.8695 -0.000241453 -8.94987
390 1 17.297 20.4419 1.57198 -8.94947
391 1 18.8694 18.8694 3.66833e-05 -8.94928
392 1 20.4415 20.4416 1.57237 -8.94966
506 1 3.14311 18.8705 9.43432 -8.94906
394 1 4.71598 11.0068 4.7158 -8.94622
505 1 22.0136 18.8695 9.43442 -8.9495
504 1 18.871 15.7247 9.43448 -8.95227
503 1 15.7341 15.7293 9.43081 -8.95608
398 1 17.3005 11.0069 4.71512 -8.94848
399 1 20.4423 11.0069 4.71672 -8.94981
400 1 5.73749e-05 12.5794 3.1445 -8.94957
401 1 1.57188 14.1517 4.7168 -8.94967
402 1 3.14421 12.5793 3.14422 -8.94913
403 1 4.71543 14.1512 4.71584 -8.95105
404 1 6.28916 12.5783 3.14424 -8.94918
405 1 7.85717 14.1554 4.7079 -8.95518
406 1 9.43469 12.5789 3.14427 -8.94849
407 1 11.0069 14.1549 4.70816 -8.95204
408 1 12.5818 12.5804 3.13738 -8.95791
409 1 14.1639 14.1621 4.7048 -8.92968
410 1 15.7274 12.5803 3.14164 -8.94771
411 1 17.3005 14.1534 4.71524 -8.95011
412 1 18.8703 12.5796 3.14409 -8.94934
413 1 20.4423 14.152 4.71681 -8.95003
414 1 22.014 15.7243 3.14458 -8.94973
415 1 1.57132 17.2972 4.71655 -8.9497
416 1 3.14411 15.7243 3.14419 -8.95016
417 1 4.71352 17.2998 4.71346 -8.94532
418 1 6.28748 15.7258 3.14105 -8.95037
419 1 7.85994 17.3003 4.71204 -8.95076
420 1 9.4339 15.7259 3.14067 -8.94983
421 1 11.0073 17.3006 4.71211 -8.9474
422 1 12.5801 15.726 3.14044 -8.95158
423 1 14.1556 17.3018 4.71176 -8.95141
424 1 15.7277 15.7273 3.1413 -8.94463
425 1 17.2978 17.2972 4.71664 -8.95088
426 1 18.8702 15.7248 3.14416 -8.94948
427 1 20.4416 17.2968 4.71707 -8.94981
428 1 22.0137 18.8692 3.14463 -8.94962
429 1 1.57193 20.4419 4.71691 -8.94951
430 1 3.14383 18.8699 3.14387 -8.94857
431 1 4.7158 20.4431 4.71577 -8.94842
432 1 6.28881 18.8703 3.14313 -8.94983
433 1 7.86168 20.4429 4.71597 -8.94925
434 1 9.4343 18.8704 3.14316 -8.94911
435 1 11.0071 20.4429 4.71592 -8.94943
436 1 12.5797 18.8704 3.14324 -8.9489
437 1 14.1525 20.4429 4.71618 -8.9501
438 1 15.7255 18.8707 3.14314 -8.94952
439 1 17.2977 20.4424 4.71639 -8.94824
440 1 18.8694 18.8693 3.14462 -8.95
441 1 20.4417 20.4417 4.71702 -8.94951
502 1 12.6169 15.762 9.38799 -8.82872
501 1 9.39099 15.766 9.3909 -8.90457
500 1 6.27105 15.7381 9.42968 -8.94896
499 1 3.13966 15.726 9.43422 -8.95153
498 1 -0.000755787 15.7246 9.43441 -8.95049
497 1 18.8696 12.5799 9.43436 -8.94634
496 1 15.7194 12.5794 9.43679 -8.9355
449 1 22.0139 12.5793 6.28928 -8.94992
450 1 1.57028 14.1518 7.86166 -8.95143
451 1 3.1434 12.5785 6.28891 -8.94962
452 1 4.70757 14.1539 7.85965 -8.95767
453 1 6.28674 12.576 6.28915 -8.94927
454 1 7.82152 14.1857 7.82762 -8.85288
455 1 9.42421 12.5998 6.29125 -8.9026
456 1 11.0218 14.1674 7.83433 -8.93451
457 1 12.6192 12.6132 6.25536 -8.84454
458 1 14.1558 14.1488 7.86208 -8.95136
459 1 15.7352 12.5818 6.28507 -8.95447
460 1 17.2985 14.1515 7.86257 -8.94922
461 1 18.8717 12.5796 6.28904 -8.95159
462 1 20.4418 14.1519 7.86192 -8.94968
463 1 22.0133 15.7244 6.28932 -8.95001
464 1 1.57077 17.2974 7.86161 -8.95015
465 1 3.14118 15.7254 6.28788 -8.95073
466 1 4.71083 17.3012 7.85895 -8.94856
467 1 6.27717 15.7349 6.27728 -8.9317
468 1 7.84717 17.3166 7.8478 -8.93644
469 1 9.43201 15.7339 6.27675 -8.96084
470 1 11.0069 17.3079 7.85241 -8.94354
471 1 12.5871 15.7365 6.27433 -8.96457
472 1 14.1649 17.3099 7.84976 -8.92594
473 1 15.727 15.7249 6.28855 -8.95285
474 1 17.3007 17.2989 7.86033 -8.9505
475 1 18.8699 15.7243 6.28956 -8.94965
476 1 20.442 17.2971 7.86182 -8.95045
477 1 -0.00024235 18.8694 6.28939 -8.94982
478 1 1.57194 20.4419 7.86198 -8.94949
479 1 3.1429 18.8705 6.28855 -8.94928
480 1 4.71588 20.443 7.86159 -8.94946
481 1 6.2848 18.8754 6.28478 -8.94548
482 1 7.86065 20.4462 7.86062 -8.95296
483 1 9.43383 18.874 6.28605 -8.94802
484 1 11.0072 20.4453 7.86041 -8.9492
485 1 12.5808 18.8737 6.2866 -8.95011
486 1 14.1534 20.4449 7.86087 -8.95145
487 1 15.7281 18.8729 6.2863 -8.94385
488 1 17.2975 20.4423 7.86187 -8.9497
489 1 18.8703 18.8699 6.28901 -8.94953
490 1 20.4417 20.4417 7.86203 -8.94953
491 1 22.0135 12.5793 9.43428 -8.94922
492 1 3.14256 12.5788 9.43426 -8.94956
519 1 1.56992 14.1518 11.007 -8.95156
520 1 4.70617 14.1547 11.0099 -8.9603
522 1 11.0171 14.4299 10.9352 -8.0132
523 1 14.1523 14.166 10.994 -8.92429
524 1 17.2975 14.1514 11.007 -8.9497
393 1 1.57189 11.0069 4.7166 -8.94947
54 1 6.28948 22.0141 3.14434 -8.94956
60 1 15.7246 22.0141 3.14441 -8.94988
99 1 22.0138 22.014 6.28962 -8.9496
101 1 3.14429 22.0141 6.28942 -8.94954
527 1 4.71194 17.3012 11.0076 -8.94613
534 1 4.71593 20.4431 11.0072 -8.94921
687 3 10.9836 12.6096 11.7361 2.29957
686 1 20.4416 20.4417 20.4416 -8.94928
685 1 18.8698 18.8698 18.8698 -8.94862
684 1 17.2968 20.4417 20.4416 -8.94982
683 1 15.7244 18.8697 18.8697 -8.95029
682 1 14.1518 20.4417 20.4416 -8.94946
681 1 12.5794 18.8698 18.8697 -8.94904
303 1 12.5794 22.014 18.8693 -8.94957
301 1 9.43451 22.014 18.8693 -8.94959
521 1 7.81338 14.2113 11.0342 -8.80348
387 1 12.5795 18.8696 22.0137 -8.94952
207 1 15.7248 22.0143 12.5796 -8.94946
201 1 6.28894 22.0147 12.5799 -8.9504
385 1 9.43446 18.8696 22.0136 -8.94955
197 1 22.0138 22.014 12.5794 -8.9496
590 1 4.7141 11.0061 17.2999 -8.94778
528 1 7.85523 17.3129 11.0089 -8.95843
661 1 3.14394 15.7246 18.87 -8.94935
530 1 14.1562 17.3033 11.0065 -8.94927
531 1 17.2992 17.2985 11.0069 -8.94771
660 1 1.57221 17.2968 20.4417 -8.94964
533 1 1.57193 20.4419 11.007 -8.94953
589 1 1.57149 11.0068 17.2975 -8.94939
535 1 7.8612 20.4453 11.0075 -8.95201
536 1 11.0073 20.4432 11.0072 -8.94748
537 1 14.1528 20.4436 11.0073 -8.94987
538 1 17.2974 20.4423 11.007 -8.94944
659 1 22.0139 15.7244 18.8694 -8.94944
680 1 11.007 20.4418 20.4416 -8.9496
679 1 9.4346 18.8698 18.8697 -8.94909
678 1 7.86207 20.4418 20.4416 -8.94947
677 1 6.28953 18.8698 18.8698 -8.95024
676 1 4.71714 20.4417 20.4416 -8.94979
675 1 3.14394 18.87 18.8701 -8.94843
674 1 1.57222 20.4417 20.4417 -8.94927
547 1 22.0137 12.5794 12.5794 -8.94893
548 1 1.57063 14.1518 14.1521 -8.95111
549 1 3.14279 12.5786 12.5797 -8.94638
550 1 4.70894 14.1524 14.155 -8.95944
551 1 6.29093 12.5761 12.585 -8.99894
552 1 7.82509 14.1849 14.1956 -8.87065
553 1 9.21 12.5828 12.658 -8.12361
554 1 11.0065 14.141 14.1303 -8.91177
555 1 12.7757 12.5574 12.647 -8.17821
556 1 14.1814 14.1756 14.1841 -8.87739
557 1 15.7247 12.5787 12.5842 -8.99378
558 1 17.3036 14.1532 14.1543 -8.95682
559 1 18.8709 12.5797 12.5795 -8.94759
560 1 20.4428 14.1521 14.1521 -8.951
561 1 22.0131 15.7247 12.5794 -8.95057
562 1 1.57074 17.2976 14.1524 -8.94967
563 1 3.13921 15.7265 12.5807 -8.95161
564 1 4.71127 17.3018 14.1561 -8.94359
565 1 6.26968 15.7403 12.5923 -8.92923
566 1 7.8559 17.3081 14.1594 -8.95086
567 1 9.41006 15.738 12.6002 -8.89177
568 1 11.0078 17.2958 14.1513 -8.94369
569 1 12.6072 15.7349 12.6001 -8.88003
570 1 14.1587 17.3061 14.1585 -8.94863
571 1 15.7312 15.7267 12.5793 -8.95521
572 1 17.2991 17.2983 14.1524 -8.95031
573 1 18.871 15.7249 12.5791 -8.95066
574 1 20.4419 17.2972 14.1519 -8.94983
575 1 -0.000266137 18.8696 12.5795 -8.9495
576 1 1.57197 20.4419 14.152 -8.94953
577 1 3.14318 18.8705 12.5798 -8.94916
578 1 4.71608 20.4431 14.1526 -8.94945
579 1 6.2865 18.8746 12.5814 -8.94948
580 1 7.86192 20.4438 14.1526 -8.95205
581 1 9.43498 18.8727 12.5802 -8.95151
582 1 11.0073 20.442 14.1525 -8.94827
583 1 12.58 18.8714 12.5796 -8.95244
584 1 14.1523 20.4433 14.1524 -8.95229
585 1 15.726 18.8712 12.5798 -8.94789
586 1 17.2973 20.4422 14.152 -8.9493
587 1 18.8699 18.8698 12.5795 -8.9493
588 1 20.4416 20.4418 14.1519 -8.94951
673 1 22.0139 18.8694 18.8694 -8.9496
672 1 20.4417 17.2968 20.4417 -8.94957
671 1 18.8699 15.7247 18.8699 -8.94926
670 1 17.2973 17.2974 20.4422 -8.94954
669 1 15.7258 15.7259 18.8719 -8.95042
668 1 14.1518 17.2971 20.4418 -8.9498
667 1 12.5788 15.7249 18.8703 -8.94995
596 1 -7.25203e-05 12.5795 15.7249 -8.95009
597 1 1.57151 14.1521 17.2975 -8.9493
598 1 3.14133 12.5794 15.7264 -8.94903
599 1 4.71426 14.1527 17.2998 -8.94777
600 1 6.2804 12.579 15.734 -8.94227
601 1 7.8586 14.1544 17.3072 -8.95821
602 1 9.42669 12.5803 15.7351 -8.97006
603 1 11.007 14.1517 17.2955 -8.93954
604 1 12.5865 12.5795 15.7344 -8.96806
605 1 14.1551 14.1543 17.3051 -8.9559
606 1 15.7337 12.5806 15.7339 -8.94166
607 1 17.2996 14.1532 17.2994 -8.94774
608 1 18.8725 12.5798 15.7262 -8.94927
609 1 20.4423 14.1522 17.2974 -8.94935
610 1 22.0138 15.7246 15.7246 -8.95038
611 1 1.57157 17.2972 17.2973 -8.95005
612 1 3.14163 15.7254 15.7259 -8.95176
613 1 4.71375 17.3003 17.3007 -8.94516
614 1 6.27768 15.736 15.7381 -8.93284
615 1 7.86238 17.2982 17.2989 -8.95159
616 1 9.43764 15.7253 15.7286 -8.95426
617 1 11.0072 17.2984 17.2984 -8.94687
618 1 12.5772 15.7242 15.7276 -8.95633
619 1 14.1518 17.2979 17.2984 -8.95193
620 1 15.7335 15.7333 15.7337 -8.93502
621 1 17.2994 17.2995 17.2994 -8.94588
622 1 18.8717 15.7255 15.7255 -8.95086
623 1 20.4421 17.2972 17.2972 -8.94983
624 1 22.0136 18.8695 15.7245 -8.94956
625 1 1.57203 20.4418 17.297 -8.94934
626 1 3.14322 18.8705 15.7254 -8.94828
627 1 4.71651 20.4427 17.2976 -8.94947
628 1 6.28747 18.8732 15.7271 -8.94961
629 1 7.86231 20.442 17.2971 -8.94963
630 1 9.43548 18.8701 15.7251 -8.9489
631 1 11.007 20.4421 17.2972 -8.94967
632 1 12.5789 18.8698 15.7249 -8.94878
633 1 14.1517 20.4419 17.297 -8.94963
634 1 15.7265 18.8726 15.7266 -8.949
635 1 17.2974 20.4425 17.2974 -8.94929
636 1 18.8698 18.8698 15.7246 -8.94988
637 1 20.4416 20.4417 17.2968 -8.94967
666 1 11.007 17.2974 20.4419 -8.94955
639 1 4.71644 11.0068 20.4425 -8.94938
665 1 9.43519 15.725 18.8706 -8.94987
664 1 7.86211 17.2972 20.4419 -8.94972
663 1 6.28796 15.726 18.8728 -8.95114
643 1 17.2976 11.0069 20.4424 -8.9493
662 1 4.71652 17.2974 20.4424 -8.94986
645 1 22.0139 12.5794 18.8695 -8.94953
646 1 1.57216 14.1519 20.4418 -8.94955
647 1 3.14385 12.5794 18.8701 -8.94948
648 1 4.7165 14.152 20.4425 -8.94928
649 1 6.28772 12.5794 18.8727 -8.9489
650 1 7.8617 14.1522 20.4435 -8.95192
651 1 9.43459 12.5798 18.8725 -8.9508
652 1 11.0068 14.1524 20.4417 -8.94811
653 1 12.5792 12.5799 18.8721 -8.95119
654 1 14.1523 14.1524 20.4429 -8.95162
655 1 15.7263 12.5799 18.8726 -8.94891
656 1 17.2975 14.1522 20.4423 -8.94922
657 1 18.8701 12.5795 18.87 -8.94948
658 1 20.4417 14.1519 20.4417 -8.94957
351 1 22.0139 12.5794 22.0139 -8.94961
355 1 6.28912 12.5793 22.0145 -8.94968
357 1 9.4344 12.5793 22.0143 -8.94928
359 1 12.5794 12.5795 22.0131 -8.95114
363 1 18.8696 12.5794 22.0139 -8.94954
367 1 3.14452 15.7243 22.014 -8.9496
369 1 6.28914 15.7246 22.0139 -8.9508
375 1 15.725 15.725 22.0136 -8.95017
377 1 18.8695 15.7244 22.0139 -8.94951
381 1 3.14446 18.8694 22.0139 -8.94948
248 1 3.14435 22.0141 15.7246 -8.94947
258 1 18.8693 22.014 15.7243 -8.94961
295 1 22.0139 22.014 18.8692 -8.94952
595 1 20.4424 11.0068 17.2975 -8.94939
594 1 17.3 11.0065 17.2999 -8.94788
532 1 20.442 17.2973 11.0069 -8.9496
379 1 22.0139 18.8692 22.0139 -8.94962
