ITEM: TIMESTEP
17
ITEM: NUMBER OF ATOMS
688
ITEM: BOX BOUNDS pp pp pp
0.0000000000000000e+00 2.2013900999999997e+01
0.0000000000000000e+00 2.2013900999999997e+01
0.0000000000000000e+00 2.2013900999999997e+01
ITEM: ATOMS id type x y z c_pot
1 1 -2.46701e-15 3.15533e-15 -2.65985e-16 -8.94963
2 1 1.57242 1.57242 1.57242 -8.94963
3 1 3.14484 2.15413e-14 4.74018e-15 -8.94963
4 1 4.71726 1.57242 1.57242 -8.94963
448 1 20.4415 11.007 7.86211 -8.94963
6 1 7.86211 1.57242 1.57242 -8.94963
175 1 18.8691 9.43453 9.43453 -8.94963
8 1 11.007 1.57242 1.57242 -8.94963
174 1 15.7242 9.43453 9.43453 -8.94999
10 1 14.1518 1.57242 1.57242 -8.94963
11 1 15.7242 7.74196e-14 6.4732e-14 -8.94963
12 1 17.2966 1.57242 1.57242 -8.94963
13 1 18.8691 2.14491e-14 7.83869e-15 -8.94963
14 1 20.4415 1.57242 1.57242 -8.94963
447 1 17.2966 11.007 7.86211 -8.94966
16 1 1.57242 4.71726 1.57242 -8.94963
446 1 14.1519 11.0069 7.86209 -8.95277
18 1 4.71726 4.71726 1.57242 -8.94963
445 1 11.0216 11.0069 7.83269 -7.78925
20 1 7.86211 4.71726 1.57242 -8.94963
21 1 9.43453 3.14484 -5.0133e-12 -8.94963
22 1 11.007 4.71726 1.57242 -8.94963
444 1 7.86077 11.0069 7.86118 -8.91355
24 1 14.1518 4.71726 1.57242 -8.94963
443 1 4.71726 11.007 7.86211 -8.94996
26 1 17.2966 4.71726 1.57242 -8.94963
442 1 1.57242 11.007 7.86211 -8.94963
28 1 20.4415 4.71726 1.57242 -8.94963
397 1 14.1518 11.007 4.71727 -8.95029
30 1 1.57242 7.86211 1.57242 -8.94963
396 1 11.007 11.007 4.71708 -8.95656
32 1 4.71726 7.86211 1.57242 -8.94963
395 1 7.86211 11.007 4.71726 -8.95008
34 1 7.86211 7.86211 1.57242 -8.94963
35 1 9.43453 6.28969 3.81056e-10 -8.94963
36 1 11.007 7.86211 1.57242 -8.94963
37 1 12.5794 6.28969 3.64771e-10 -8.94963
38 1 14.1518 7.86211 1.57242 -8.94963
393 1 1.57242 11.007 4.71726 -8.94963
40 1 17.2966 7.86211 1.57242 -8.94963
350 1 20.4415 11.007 1.57242 -8.94963
42 1 20.4415 7.86211 1.57242 -8.94963
43 1 2.35289e-14 9.43453 2.40094e-13 -8.94963
44 1 3.14484 9.43453 2.57936e-11 -8.94963
348 1 14.1518 11.007 1.57242 -8.94963
347 1 11.007 11.007 1.57242 -8.94968
346 1 7.86211 11.007 1.57242 -8.94963
48 1 15.7242 9.43453 5.4645e-10 -8.94963
49 1 18.8691 9.43453 -1.84877e-11 -8.94963
50 1 22.0139 6.38229e-15 3.14484 -8.94963
51 1 1.57242 1.57242 4.71726 -8.94963
52 1 3.14484 3.17783e-13 3.14484 -8.94963
53 1 4.71726 1.57242 4.71726 -8.94963
54 1 6.28969 -4.62208e-13 3.14484 -8.94963
55 1 7.86211 1.57242 4.71726 -8.94963
173 1 12.5809 9.43346 9.43438 -8.90648
57 1 11.007 1.57242 4.71726 -8.94963
172 1 9.41976 9.40505 9.4344 -7.78245
59 1 14.1518 1.57242 4.71726 -8.94963
60 1 15.7242 -5.4335e-13 3.14484 -8.94963
61 1 17.2966 1.57242 4.71726 -8.94963
62 1 18.8691 3.18035e-13 3.14484 -8.94963
63 1 20.4415 1.57242 4.71726 -8.94963
64 1 22.0139 3.14484 3.14484 -8.94963
65 1 1.57242 4.71726 4.71726 -8.94963
66 1 3.14484 3.14484 3.14484 -8.94963
67 1 4.71726 4.71726 4.71726 -8.94963
68 1 6.28969 3.14484 3.14484 -8.94963
69 1 7.86211 4.71726 4.71726 -8.94964
70 1 9.43453 3.14484 3.14484 -8.94963
71 1 11.007 4.71726 4.71726 -8.94963
72 1 12.5794 3.14484 3.14484 -8.94963
73 1 14.1518 4.71726 4.71726 -8.94963
74 1 15.7242 3.14484 3.14484 -8.94963
75 1 17.2966 4.71726 4.71726 -8.94963
76 1 18.8691 3.14484 3.14484 -8.94963
77 1 20.4415 4.71726 4.71726 -8.94963
78 1 22.0139 6.28969 3.14484 -8.94963
79 1 1.57242 7.86211 4.71726 -8.94963
80 1 3.14484 6.28969 3.14484 -8.94963
81 1 4.71726 7.86211 4.71726 -8.94963
82 1 6.28969 6.28969 3.14484 -8.94963
83 1 7.86211 7.86211 4.71726 -8.94966
84 1 9.43453 6.28969 3.14484 -8.94963
85 1 11.007 7.86211 4.71727 -8.95007
86 1 12.5794 6.28969 3.14484 -8.94964
87 1 14.1518 7.86211 4.71726 -8.94957
88 1 15.7242 6.28969 3.14484 -8.94963
89 1 17.2966 7.86211 4.71726 -8.94963
90 1 18.8691 6.28969 3.14484 -8.94963
91 1 20.4415 7.86211 4.71726 -8.94963
92 1 3.65963e-11 9.43453 3.14484 -8.94963
93 1 3.14484 9.43453 3.14484 -8.94963
94 1 6.28969 9.43453 3.14484 -8.94963
95 1 9.43453 9.43453 3.14484 -8.94961
96 1 12.5794 9.43453 3.14484 -8.94964
97 1 15.7242 9.43453 3.14484 -8.94964
98 1 18.8691 9.43453 3.14484 -8.94963
99 1 22.0139 1.67291e-15 6.28969 -8.94963
100 1 1.57242 1.57242 7.86211 -8.94963
101 1 3.14484 -3.41637e-13 6.28969 -8.94963
102 1 4.71726 1.57242 7.86211 -8.94963
103 1 6.28969 1.58442e-10 6.28969 -8.94963
104 1 7.86211 1.57242 7.86211 -8.94963
171 1 6.28959 9.43452 9.43453 -8.95296
106 1 11.007 1.57242 7.86211 -8.94963
170 1 3.14484 9.43453 9.43453 -8.94966
108 1 14.1518 1.57242 7.86211 -8.94963
109 1 15.7242 1.58418e-10 6.28969 -8.94963
110 1 17.2966 1.57242 7.86211 -8.94963
111 1 18.8691 -4.00599e-13 6.28969 -8.94963
112 1 20.4415 1.57242 7.86211 -8.94963
113 1 2.55102e-12 3.14484 6.28969 -8.94963
114 1 1.57242 4.71726 7.86211 -8.94963
115 1 3.14484 3.14484 6.28969 -8.94963
116 1 4.71726 4.71726 7.86211 -8.94964
117 1 6.28969 3.14484 6.28969 -8.94963
118 1 7.86211 4.71726 7.86211 -8.94964
119 1 9.43453 3.14484 6.28969 -8.94963
120 1 11.007 4.71726 7.86211 -8.94961
121 1 12.5794 3.14484 6.28969 -8.94963
122 1 14.1518 4.71726 7.86211 -8.94963
123 1 15.7242 3.14484 6.28969 -8.94963
124 1 17.2966 4.71726 7.86211 -8.94963
125 1 18.8691 3.14484 6.28969 -8.94963
126 1 20.4415 4.71726 7.86211 -8.94963
127 1 22.0139 6.28969 6.28969 -8.94963
128 1 1.57242 7.86211 7.86211 -8.94963
129 1 3.14484 6.28969 6.28969 -8.94963
130 1 4.71726 7.86211 7.86211 -8.94967
131 1 6.28968 6.28968 6.28968 -8.94956
132 1 7.86196 7.86196 7.86195 -8.94145
133 1 9.43453 6.28969 6.28969 -8.95008
134 1 11.007 7.86208 7.86206 -8.94744
135 1 12.5794 6.28968 6.28969 -8.94967
136 1 14.1518 7.8621 7.8621 -8.94941
137 1 15.7242 6.28969 6.28969 -8.94963
138 1 17.2966 7.86211 7.86211 -8.94963
139 1 18.8691 6.28969 6.28969 -8.94963
140 1 20.4415 7.86211 7.86211 -8.94963
141 1 22.0139 9.43453 6.28969 -8.94963
142 1 3.14484 9.43453 6.28969 -8.94963
143 1 6.28968 9.43452 6.28968 -8.94948
144 1 9.43447 9.43447 6.28964 -8.94691
145 1 12.5795 9.43438 6.28954 -8.94156
146 1 15.7242 9.43453 6.28969 -8.94967
147 1 18.8691 9.43453 6.28969 -8.94963
148 1 4.70365e-12 2.77076e-13 9.43453 -8.94963
169 1 22.0139 9.43453 9.43453 -8.94963
168 1 18.8691 6.28969 9.43453 -8.94963
151 1 9.43453 1.49405e-08 9.43453 -8.94963
152 1 12.5794 1.49436e-08 9.43453 -8.94963
167 1 15.7242 6.28969 9.43453 -8.94967
166 1 12.5794 6.28968 9.43453 -8.95008
155 1 4.79088e-13 3.14484 9.43453 -8.94963
156 1 3.14484 3.14484 9.43453 -8.94963
157 1 6.28969 3.14484 9.43453 -8.94963
158 1 9.43453 3.14484 9.43453 -8.94968
159 1 12.5794 3.14484 9.43453 -8.94963
160 1 15.7242 3.14484 9.43453 -8.94963
161 1 18.8691 3.14484 9.43453 -8.94963
162 1 5.85601e-11 6.28969 9.43453 -8.94963
163 1 3.14484 6.28969 9.43453 -8.94963
164 1 6.2897 6.2897 9.43453 -8.9503
165 1 9.43452 6.2895 9.43453 -8.95655
344 1 1.57242 11.007 1.57242 -8.94963
345 1 4.71726 11.007 1.57242 -8.94963
181 1 17.2966 1.57242 11.007 -8.94963
183 1 1.57242 4.71726 11.007 -8.94963
188 1 17.2966 4.71726 11.007 -8.94963
189 1 20.4415 4.71726 11.007 -8.94963
513 1 4.71726 11.0069 11.007 -8.94994
516 1 14.1519 11.0069 11.0069 -8.95033
517 1 17.2966 11.0069 11.0069 -8.94964
518 1 20.4415 11.007 11.007 -8.94963
176 1 1.57242 1.57242 11.007 -8.94963
177 1 4.71726 1.57242 11.007 -8.94963
178 1 7.86211 1.57242 11.007 -8.94963
179 1 11.007 1.57242 11.007 -8.94963
180 1 14.1518 1.57242 11.007 -8.94963
644 1 20.4415 11.007 20.4415 -8.94963
182 1 20.4415 1.57242 11.007 -8.94963
642 1 14.1518 11.007 20.4415 -8.94963
184 1 4.71726 4.71726 11.007 -8.94964
185 1 7.86211 4.71726 11.007 -8.94964
186 1 11.007 4.71726 11.007 -8.94966
187 1 14.1518 4.71726 11.007 -8.94964
641 1 11.007 11.007 20.4415 -8.94963
640 1 7.86211 11.007 20.4415 -8.94963
190 1 1.57242 7.86211 11.007 -8.94963
191 1 4.71726 7.86211 11.007 -8.94967
192 1 7.86196 7.86197 11.0071 -8.94192
193 1 11.007 7.86188 11.007 -8.95402
194 1 14.1518 7.86211 11.007 -8.94997
195 1 17.2966 7.86211 11.007 -8.94963
196 1 20.4415 7.86211 11.007 -8.94963
343 1 18.8691 9.43453 18.8691 -8.94963
198 1 1.57242 1.57242 14.1518 -8.94963
342 1 15.7242 9.43453 18.8691 -8.94963
200 1 4.71726 1.57242 14.1518 -8.94963
341 1 12.5794 9.43453 18.8691 -8.94963
202 1 7.86211 1.57242 14.1518 -8.94963
203 1 9.43453 1.07029e-08 12.5794 -8.94963
204 1 11.007 1.57242 14.1518 -8.94963
205 1 12.5794 1.0705e-08 12.5794 -8.94963
206 1 14.1518 1.57242 14.1518 -8.94963
340 1 9.43453 9.43453 18.8691 -8.94963
208 1 17.2966 1.57242 14.1518 -8.94963
339 1 6.28969 9.43453 18.8691 -8.94963
210 1 20.4415 1.57242 14.1518 -8.94963
211 1 2.5468e-12 3.14484 12.5794 -8.94963
212 1 1.57242 4.71726 14.1518 -8.94963
213 1 3.14484 3.14484 12.5794 -8.94963
214 1 4.71726 4.71726 14.1518 -8.94963
215 1 6.28969 3.14484 12.5794 -8.94963
216 1 7.86211 4.71726 14.1518 -8.94964
217 1 9.43453 3.14484 12.5794 -8.94963
218 1 11.007 4.71726 14.1518 -8.94964
219 1 12.5794 3.14484 12.5794 -8.94963
220 1 14.1518 4.71726 14.1518 -8.94963
221 1 15.7242 3.14484 12.5794 -8.94963
222 1 17.2966 4.71726 14.1518 -8.94963
223 1 18.8691 3.14484 12.5794 -8.94963
224 1 20.4415 4.71726 14.1518 -8.94963
225 1 22.0139 6.28969 12.5794 -8.94963
226 1 1.57242 7.86211 14.1518 -8.94963
227 1 3.14484 6.28969 12.5794 -8.94963
228 1 4.71726 7.86211 14.1518 -8.94964
229 1 6.28968 6.28968 12.5794 -8.94957
230 1 7.86211 7.86211 14.1518 -8.94968
231 1 9.43453 6.28969 12.5794 -8.95005
232 1 11.007 7.86211 14.1518 -8.95057
233 1 12.5794 6.28968 12.5794 -8.94964
234 1 14.1518 7.8621 14.1518 -8.94959
235 1 15.7242 6.28969 12.5794 -8.94964
236 1 17.2966 7.86211 14.1518 -8.94964
237 1 18.8691 6.28969 12.5794 -8.94963
238 1 20.4415 7.86211 14.1518 -8.94963
239 1 22.0139 9.43453 12.5794 -8.94963
240 1 3.14484 9.43453 12.5794 -8.94963
241 1 6.28969 9.43453 12.5794 -8.94992
242 1 9.4344 9.43442 12.5795 -8.9437
243 1 12.5796 9.43433 12.5796 -8.93764
244 1 15.7242 9.43454 12.5794 -8.95011
245 1 18.8691 9.43453 12.5794 -8.94963
246 1 22.0139 3.27264e-13 15.7242 -8.94963
247 1 1.57242 1.57242 17.2966 -8.94963
248 1 3.14484 -2.28407e-12 15.7242 -8.94963
249 1 4.71726 1.57242 17.2966 -8.94963
250 1 6.28969 1.32807e-10 15.7242 -8.94963
251 1 7.86211 1.57242 17.2966 -8.94963
252 1 9.43453 2.6837e-10 15.7242 -8.94963
253 1 11.007 1.57242 17.2966 -8.94963
254 1 12.5794 2.68569e-10 15.7242 -8.94963
255 1 14.1518 1.57242 17.2966 -8.94963
256 1 15.7242 1.32844e-10 15.7242 -8.94963
257 1 17.2966 1.57242 17.2966 -8.94963
258 1 18.8691 -2.28147e-12 15.7242 -8.94963
259 1 20.4415 1.57242 17.2966 -8.94963
260 1 22.0139 3.14484 15.7242 -8.94963
261 1 1.57242 4.71726 17.2966 -8.94963
262 1 3.14484 3.14484 15.7242 -8.94963
263 1 4.71726 4.71726 17.2966 -8.94963
264 1 6.28969 3.14484 15.7242 -8.94963
265 1 7.86211 4.71726 17.2966 -8.94963
266 1 9.43453 3.14484 15.7242 -8.94963
267 1 11.007 4.71726 17.2966 -8.94963
268 1 12.5794 3.14484 15.7242 -8.94963
269 1 14.1518 4.71726 17.2966 -8.94963
270 1 15.7242 3.14484 15.7242 -8.94963
271 1 17.2966 4.71726 17.2966 -8.94963
272 1 18.8691 3.14484 15.7242 -8.94963
273 1 20.4415 4.71726 17.2966 -8.94963
274 1 22.0139 6.28969 15.7242 -8.94963
275 1 1.57242 7.86211 17.2966 -8.94963
276 1 3.14484 6.28969 15.7242 -8.94963
277 1 4.71726 7.86211 17.2966 -8.94963
278 1 6.28969 6.28969 15.7242 -8.94963
279 1 7.86211 7.86211 17.2966 -8.94963
280 1 9.43453 6.28969 15.7242 -8.94964
281 1 11.007 7.86211 17.2966 -8.94966
282 1 12.5794 6.28969 15.7242 -8.94964
283 1 14.1518 7.86211 17.2966 -8.94963
284 1 15.7242 6.28969 15.7242 -8.94963
285 1 17.2966 7.86211 17.2966 -8.94963
286 1 18.8691 6.28969 15.7242 -8.94963
287 1 20.4415 7.86211 17.2966 -8.94963
288 1 3.64922e-11 9.43453 15.7242 -8.94963
289 1 3.14484 9.43453 15.7242 -8.94963
290 1 6.28968 9.43453 15.7242 -8.94957
291 1 9.43452 9.43452 15.7242 -8.94946
292 1 12.5794 9.43452 15.7242 -8.94949
293 1 15.7242 9.43453 15.7242 -8.94957
294 1 18.8691 9.43453 15.7242 -8.94963
295 1 -2.46281e-15 9.62034e-15 18.8691 -8.94963
296 1 1.57242 1.57242 20.4415 -8.94963
297 1 3.14484 8.76013e-13 18.8691 -8.94963
298 1 4.71726 1.57242 20.4415 -8.94963
299 1 6.28969 4.73132e-12 18.8691 -8.94963
300 1 7.86211 1.57242 20.4415 -8.94963
338 1 3.14484 9.43453 18.8691 -8.94963
302 1 11.007 1.57242 20.4415 -8.94963
337 1 3.56367e-14 9.43453 18.8691 -8.94963
304 1 14.1518 1.57242 20.4415 -8.94963
305 1 15.7242 4.73414e-12 18.8691 -8.94963
306 1 17.2966 1.57242 20.4415 -8.94963
307 1 18.8691 8.75893e-13 18.8691 -8.94963
308 1 20.4415 1.57242 20.4415 -8.94963
309 1 22.0139 3.14484 18.8691 -8.94963
310 1 1.57242 4.71726 20.4415 -8.94963
311 1 3.14484 3.14484 18.8691 -8.94963
312 1 4.71726 4.71726 20.4415 -8.94963
313 1 6.28969 3.14484 18.8691 -8.94963
314 1 7.86211 4.71726 20.4415 -8.94963
315 1 9.43453 3.14484 18.8691 -8.94963
316 1 11.007 4.71726 20.4415 -8.94963
317 1 12.5794 3.14484 18.8691 -8.94963
318 1 14.1518 4.71726 20.4415 -8.94963
319 1 15.7242 3.14484 18.8691 -8.94963
320 1 17.2966 4.71726 20.4415 -8.94963
321 1 18.8691 3.14484 18.8691 -8.94963
322 1 20.4415 4.71726 20.4415 -8.94963
323 1 22.0139 6.28969 18.8691 -8.94963
324 1 1.57242 7.86211 20.4415 -8.94963
325 1 3.14484 6.28969 18.8691 -8.94963
326 1 4.71726 7.86211 20.4415 -8.94963
327 1 6.28969 6.28969 18.8691 -8.94963
328 1 7.86211 7.86211 20.4415 -8.94963
329 1 9.43453 6.28969 18.8691 -8.94963
330 1 11.007 7.86211 20.4415 -8.94963
331 1 12.5794 6.28969 18.8691 -8.94963
332 1 14.1518 7.86211 20.4415 -8.94963
333 1 15.7242 6.28969 18.8691 -8.94963
334 1 17.2966 7.86211 20.4415 -8.94963
335 1 18.8691 6.28969 18.8691 -8.94963
336 1 20.4415 7.86211 20.4415 -8.94963
512 1 1.57242 11.007 11.007 -8.94963
638 1 1.57242 11.007 20.4415 -8.94963
514 1 7.86074 11.0069 11.0078 -8.91102
515 1 11.0221 10.9767 11.0221 -6.52283
595 1 20.4415 11.007 17.2966 -8.94963
594 1 17.2966 11.007 17.2966 -8.94964
593 1 14.1518 11.0069 17.2966 -8.94967
540 1 1.57242 11.007 14.1518 -8.94963
541 1 4.71726 11.0069 14.1518 -8.94967
542 1 7.86197 11.0068 14.1519 -8.94194
543 1 11.007 11.006 14.1533 -8.92191
544 1 14.1519 11.0068 14.1519 -8.94214
545 1 17.2966 11.0069 14.1518 -8.94964
546 1 20.4415 11.007 14.1518 -8.94963
589 1 1.57242 11.007 17.2966 -8.94963
590 1 4.71726 11.007 17.2966 -8.94964
591 1 7.86211 11.0069 17.2966 -8.94967
592 1 11.007 11.0069 17.2966 -8.95001
5 1 6.28969 7.68211e-14 22.0139 -8.94963
15 1 22.0139 3.14484 22.0139 -8.94963
17 1 3.14484 3.14484 22.0139 -8.94963
19 1 6.28969 3.14484 22.0139 -8.94963
23 1 12.5794 3.14484 22.0139 -8.94963
25 1 15.7242 3.14484 22.0139 -8.94963
27 1 18.8691 3.14484 22.0139 -8.94963
29 1 22.0139 6.28969 22.0139 -8.94963
31 1 3.14484 6.28969 22.0139 -8.94963
33 1 6.28969 6.28969 22.0139 -8.94963
39 1 15.7242 6.28969 22.0139 -8.94963
41 1 18.8691 6.28969 22.0139 -8.94963
45 1 6.28969 9.43453 22.0139 -8.94963
46 1 9.43453 9.43453 22.0139 -8.94963
47 1 12.5794 9.43453 22.0139 -8.94963
688 3 10.2204 11.0072 9.43401 4.82426
511 1 18.8691 18.8691 9.43453 -8.94963
510 1 15.7242 18.8691 9.43453 -8.94964
509 1 12.5794 18.8691 9.43453 -8.94964
508 1 9.43453 18.8691 9.43453 -8.94969
349 1 17.2966 11.007 1.57242 -8.94963
507 1 6.28969 18.8691 9.43453 -8.94964
154 1 18.8691 22.0139 9.43453 -8.94963
352 1 1.57242 14.1518 1.57242 -8.94963
353 1 3.14484 12.5794 2.79332e-11 -8.94963
354 1 4.71726 14.1518 1.57242 -8.94963
153 1 15.7242 22.0139 9.43453 -8.94963
356 1 7.86211 14.1518 1.57242 -8.94963
150 1 6.28969 22.0139 9.43453 -8.94963
358 1 11.007 14.1518 1.57242 -8.94963
149 1 3.14484 22.0139 9.43453 -8.94963
360 1 14.1518 14.1518 1.57242 -8.94963
361 1 15.7242 12.5794 4.04695e-10 -8.94963
362 1 17.2966 14.1518 1.57242 -8.94963
107 1 12.5794 22.0139 6.28969 -8.94963
364 1 20.4415 14.1518 1.57242 -8.94963
365 1 22.0139 15.7242 3.06038e-13 -8.94963
366 1 1.57242 17.2966 1.57242 -8.94963
105 1 9.43453 22.0139 6.28969 -8.94963
368 1 4.71726 17.2966 1.57242 -8.94963
58 1 12.5794 22.0139 3.14484 -8.94963
370 1 7.86211 17.2966 1.57242 -8.94963
371 1 9.43453 15.7242 1.06536e-09 -8.94963
372 1 11.007 17.2966 1.57242 -8.94963
373 1 12.5794 15.7242 1.05383e-09 -8.94963
374 1 14.1518 17.2966 1.57242 -8.94963
56 1 9.43453 22.0139 3.14484 -8.94963
376 1 17.2966 17.2966 1.57242 -8.94963
7 1 9.43453 22.0139 3.32704e-12 -8.94963
378 1 20.4415 17.2966 1.57242 -8.94963
379 1 22.0139 18.8691 -1.30841e-14 -8.94963
380 1 1.57242 20.4415 1.57242 -8.94963
495 1 12.5816 12.5803 9.4332 -8.8783
382 1 4.71726 20.4415 1.57242 -8.94963
383 1 6.28969 18.8691 6.47644e-12 -8.94963
384 1 7.86211 20.4415 1.57242 -8.94963
494 1 9.41897 12.6087 9.43322 -7.75115
386 1 11.007 20.4415 1.57242 -8.94963
493 1 6.28959 12.5794 9.43453 -8.95336
388 1 14.1518 20.4415 1.57242 -8.94963
389 1 15.7242 18.8691 4.68989e-12 -8.94963
390 1 17.2966 20.4415 1.57242 -8.94963
391 1 18.8691 18.8691 5.28118e-13 -8.94963
392 1 20.4415 20.4415 1.57242 -8.94963
506 1 3.14484 18.8691 9.43453 -8.94963
394 1 4.71727 11.007 4.71727 -8.94966
505 1 4.83792e-13 18.8691 9.43453 -8.94963
504 1 18.8691 15.7242 9.43453 -8.94963
503 1 15.7242 15.7242 9.43453 -8.94969
398 1 17.2966 11.007 4.71726 -8.94963
399 1 20.4415 11.007 4.71726 -8.94963
400 1 3.66923e-11 12.5794 3.14484 -8.94963
401 1 1.57242 14.1518 4.71726 -8.94963
402 1 3.14484 12.5794 3.14484 -8.94963
403 1 4.71726 14.1518 4.71726 -8.94963
404 1 6.28969 12.5794 3.14484 -8.94963
405 1 7.86211 14.1518 4.71726 -8.94966
406 1 9.43453 12.5794 3.14484 -8.94961
407 1 11.007 14.1518 4.71727 -8.95009
408 1 12.5794 12.5794 3.14484 -8.94964
409 1 14.1518 14.1518 4.71726 -8.94957
410 1 15.7242 12.5794 3.14484 -8.94964
411 1 17.2966 14.1518 4.71726 -8.94963
412 1 18.8691 12.5794 3.14484 -8.94963
413 1 20.4415 14.1518 4.71726 -8.94963
414 1 22.0139 15.7242 3.14484 -8.94963
415 1 1.57242 17.2966 4.71726 -8.94963
416 1 3.14484 15.7242 3.14484 -8.94963
417 1 4.71726 17.2966 4.71726 -8.94963
418 1 6.28969 15.7242 3.14484 -8.94963
419 1 7.86211 17.2966 4.71726 -8.94964
420 1 9.43453 15.7242 3.14484 -8.94963
421 1 11.007 17.2966 4.71726 -8.94963
422 1 12.5794 15.7242 3.14484 -8.94964
423 1 14.1518 17.2966 4.71726 -8.94963
424 1 15.7242 15.7242 3.14484 -8.94963
425 1 17.2966 17.2966 4.71726 -8.94963
426 1 18.8691 15.7242 3.14484 -8.94963
427 1 20.4415 17.2966 4.71726 -8.94963
428 1 22.0139 18.8691 3.14484 -8.94963
429 1 1.57242 20.4415 4.71726 -8.94963
430 1 3.14484 18.8691 3.14484 -8.94963
431 1 4.71726 20.4415 4.71726 -8.94963
432 1 6.28969 18.8691 3.14484 -8.94963
433 1 7.86211 20.4415 4.71726 -8.94963
434 1 9.43453 18.8691 3.14484 -8.94963
435 1 11.007 20.4415 4.71726 -8.94963
436 1 12.5794 18.8691 3.14484 -8.94963
437 1 14.1518 20.4415 4.71726 -8.94963
438 1 15.7242 18.8691 3.14484 -8.94963
439 1 17.2966 20.4415 4.71726 -8.94963
440 1 18.8691 18.8691 3.14484 -8.94963
441 1 20.4415 20.4415 4.71726 -8.94963
502 1 12.5795 15.7244 9.43438 -8.94196
501 1 9.43437 15.7245 9.43438 -8.94845
500 1 6.28969 15.7242 9.43453 -8.95032
499 1 3.14484 15.7242 9.43453 -8.94963
498 1 5.58829e-11 15.7242 9.43453 -8.94963
497 1 18.8691 12.5794 9.43453 -8.94964
496 1 15.7242 12.5794 9.43453 -8.95041
449 1 22.0139 12.5794 6.28969 -8.94963
450 1 1.57242 14.1518 7.86211 -8.94963
451 1 3.14484 12.5794 6.28969 -8.94963
452 1 4.71726 14.1518 7.86211 -8.94968
453 1 6.28968 12.5794 6.28968 -8.94951
454 1 7.86195 14.1519 7.86195 -8.94127
455 1 9.43447 12.5794 6.28964 -8.94721
456 1 11.007 14.1518 7.86195 -8.95021
457 1 12.5795 12.5795 6.28953 -8.94185
458 1 14.1518 14.1518 7.8621 -8.94932
459 1 15.7242 12.5794 6.28969 -8.9497
460 1 17.2966 14.1518 7.86211 -8.94964
461 1 18.8691 12.5794 6.28969 -8.94963
462 1 20.4415 14.1518 7.86211 -8.94963
463 1 22.0139 15.7242 6.28969 -8.94963
464 1 1.57242 17.2966 7.86211 -8.94963
465 1 3.14484 15.7242 6.28969 -8.94963
466 1 4.71726 17.2966 7.86211 -8.94964
467 1 6.28968 15.7242 6.28968 -8.94957
468 1 7.86211 17.2966 7.86211 -8.94957
469 1 9.43453 15.7242 6.28969 -8.95011
470 1 11.007 17.2966 7.86212 -8.95027
471 1 12.5794 15.7242 6.28968 -8.9497
472 1 14.1518 17.2966 7.86211 -8.94957
473 1 15.7242 15.7242 6.28969 -8.94964
474 1 17.2966 17.2966 7.86211 -8.94963
475 1 18.8691 15.7242 6.28969 -8.94963
476 1 20.4415 17.2966 7.86211 -8.94963
477 1 2.49793e-12 18.8691 6.28969 -8.94963
478 1 1.57242 20.4415 7.86211 -8.94963
479 1 3.14484 18.8691 6.28969 -8.94963
480 1 4.71726 20.4415 7.86211 -8.94963
481 1 6.28969 18.8691 6.28969 -8.94963
482 1 7.86211 20.4415 7.86211 -8.94963
483 1 9.43453 18.8691 6.28969 -8.94964
484 1 11.007 20.4415 7.86211 -8.94963
485 1 12.5794 18.8691 6.28969 -8.94964
486 1 14.1518 20.4415 7.86211 -8.94963
487 1 15.7242 18.8691 6.28969 -8.94963
488 1 17.2966 20.4415 7.86211 -8.94963
489 1 18.8691 18.8691 6.28969 -8.94963
490 1 20.4415 20.4415 7.86211 -8.94963
491 1 22.0139 12.5794 9.43453 -8.94963
492 1 3.14484 12.5794 9.43453 -8.94966
519 1 1.57242 14.1518 11.007 -8.94963
520 1 4.71726 14.1518 11.007 -8.94965
522 1 11.007 14.1812 10.9924 -7.7804
523 1 14.1518 14.1519 11.0069 -8.94668
524 1 17.2966 14.1518 11.0069 -8.94961
525 1 20.4415 14.1518 11.007 -8.94963
526 1 1.57242 17.2966 11.007 -8.94963
529 1 11.007 17.2968 11.0069 -8.95653
532 1 20.4415 17.2966 11.007 -8.94963
539 1 20.4415 20.4415 11.007 -8.94963
687 3 11.0068 12.58 11.7932 4.82405
686 1 20.4415 20.4415 20.4415 -8.94963
685 1 18.8691 18.8691 18.8691 -8.94963
684 1 17.2966 20.4415 20.4415 -8.94963
683 1 15.7242 18.8691 18.8691 -8.94963
682 1 14.1518 20.4415 20.4415 -8.94963
681 1 12.5794 18.8691 18.8691 -8.94963
303 1 12.5794 22.0139 18.8691 -8.94963
301 1 9.43453 22.0139 18.8691 -8.94963
521 1 7.86192 14.152 11.007 -8.93881
209 1 18.8691 22.0139 12.5794 -8.94963
207 1 15.7242 22.0139 12.5794 -8.94963
201 1 6.28969 22.0139 12.5794 -8.94963
199 1 3.14484 22.0139 12.5794 -8.94963
197 1 22.0139 22.0139 12.5794 -8.94963
527 1 4.71726 17.2966 11.007 -8.94964
528 1 7.86211 17.2966 11.007 -8.95008
661 1 3.14484 15.7242 18.8691 -8.94963
530 1 14.1518 17.2966 11.007 -8.95007
531 1 17.2966 17.2966 11.007 -8.94963
660 1 1.57242 17.2966 20.4415 -8.94963
533 1 1.57242 20.4415 11.007 -8.94963
534 1 4.71726 20.4415 11.007 -8.94963
535 1 7.86211 20.4415 11.007 -8.94963
536 1 11.007 20.4415 11.007 -8.94968
537 1 14.1518 20.4415 11.007 -8.94963
538 1 17.2966 20.4415 11.007 -8.94963
659 1 22.0139 15.7242 18.8691 -8.94963
680 1 11.007 20.4415 20.4415 -8.94963
679 1 9.43453 18.8691 18.8691 -8.94963
678 1 7.86211 20.4415 20.4415 -8.94963
677 1 6.28969 18.8691 18.8691 -8.94963
676 1 4.71726 20.4415 20.4415 -8.94963
675 1 3.14484 18.8691 18.8691 -8.94963
674 1 1.57242 20.4415 20.4415 -8.94963
547 1 22.0139 12.5794 12.5794 -8.94963
548 1 1.57242 14.1518 14.1518 -8.94963
549 1 3.14484 12.5794 12.5794 -8.94968
550 1 4.71726 14.1518 14.1518 -8.94964
551 1 6.2895 12.5794 12.5794 -8.95639
552 1 7.86196 14.1519 14.1519 -8.94154
553 1 9.40513 12.5794 12.5941 -7.78397
554 1 11.007 14.1527 14.1531 -8.91409
555 1 12.6089 12.5795 12.5941 -7.78258
556 1 14.1519 14.1519 14.1519 -8.94145
557 1 15.7244 12.5794 12.5794 -8.95658
558 1 17.2966 14.1518 14.1518 -8.94964
559 1 18.8691 12.5794 12.5794 -8.94968
560 1 20.4415 14.1518 14.1518 -8.94963
561 1 22.0139 15.7242 12.5794 -8.94963
562 1 1.57242 17.2966 14.1518 -8.94963
563 1 3.14484 15.7242 12.5794 -8.94963
564 1 4.71726 17.2966 14.1518 -8.94964
565 1 6.28969 15.7242 12.5794 -8.95
566 1 7.86211 17.2966 14.1518 -8.94967
567 1 9.43447 15.7242 12.5794 -8.94731
568 1 11.007 17.2966 14.1518 -8.95008
569 1 12.5794 15.7243 12.5794 -8.94689
570 1 14.1518 17.2966 14.1518 -8.94966
571 1 15.7242 15.7242 12.5794 -8.95007
572 1 17.2966 17.2966 14.1518 -8.94964
573 1 18.8691 15.7242 12.5794 -8.94963
574 1 20.4415 17.2966 14.1518 -8.94963
575 1 2.51699e-12 18.8691 12.5794 -8.94963
576 1 1.57242 20.4415 14.1518 -8.94963
577 1 3.14484 18.8691 12.5794 -8.94963
578 1 4.71726 20.4415 14.1518 -8.94963
579 1 6.28969 18.8691 12.5794 -8.94963
580 1 7.86211 20.4415 14.1518 -8.94963
581 1 9.43453 18.8691 12.5794 -8.94961
582 1 11.007 20.4415 14.1518 -8.94963
583 1 12.5794 18.8691 12.5794 -8.94961
584 1 14.1518 20.4415 14.1518 -8.94963
585 1 15.7242 18.8691 12.5794 -8.94963
586 1 17.2966 20.4415 14.1518 -8.94963
587 1 18.8691 18.8691 12.5794 -8.94963
588 1 20.4415 20.4415 14.1518 -8.94963
673 1 22.0139 18.8691 18.8691 -8.94963
672 1 20.4415 17.2966 20.4415 -8.94963
671 1 18.8691 15.7242 18.8691 -8.94963
670 1 17.2966 17.2966 20.4415 -8.94963
669 1 15.7242 15.7242 18.8691 -8.94963
668 1 14.1518 17.2966 20.4415 -8.94963
667 1 12.5794 15.7242 18.8691 -8.94963
596 1 3.68401e-11 12.5794 15.7242 -8.94963
597 1 1.57242 14.1518 17.2966 -8.94963
598 1 3.14484 12.5794 15.7242 -8.94963
599 1 4.71726 14.1518 17.2966 -8.94964
600 1 6.2897 12.5794 15.7242 -8.9503
601 1 7.86211 14.1518 17.2966 -8.94967
602 1 9.43452 12.5794 15.7243 -8.95292
603 1 11.007 14.1518 17.2966 -8.94996
604 1 12.5794 12.5794 15.7243 -8.95294
605 1 14.1518 14.1518 17.2966 -8.94967
606 1 15.7242 12.5794 15.7242 -8.9503
607 1 17.2966 14.1518 17.2966 -8.94964
608 1 18.8691 12.5794 15.7242 -8.94963
609 1 20.4415 14.1518 17.2966 -8.94963
610 1 22.0139 15.7242 15.7242 -8.94963
611 1 1.57242 17.2966 17.2966 -8.94963
612 1 3.14484 15.7242 15.7242 -8.94963
613 1 4.71726 17.2966 17.2966 -8.94963
614 1 6.28968 15.7242 15.7242 -8.94957
615 1 7.86211 17.2966 17.2966 -8.94963
616 1 9.43452 15.7242 15.7242 -8.94948
617 1 11.007 17.2966 17.2966 -8.94966
618 1 12.5794 15.7242 15.7242 -8.94948
619 1 14.1518 17.2966 17.2966 -8.94963
620 1 15.7242 15.7242 15.7242 -8.94956
621 1 17.2966 17.2966 17.2966 -8.94963
622 1 18.8691 15.7242 15.7242 -8.94963
623 1 20.4415 17.2966 17.2966 -8.94963
624 1 22.0139 18.8691 15.7242 -8.94963
625 1 1.57242 20.4415 17.2966 -8.94963
626 1 3.14484 18.8691 15.7242 -8.94963
627 1 4.71726 20.4415 17.2966 -8.94963
628 1 6.28969 18.8691 15.7242 -8.94963
629 1 7.86211 20.4415 17.2966 -8.94963
630 1 9.43453 18.8691 15.7242 -8.94963
631 1 11.007 20.4415 17.2966 -8.94963
632 1 12.5794 18.8691 15.7242 -8.94963
633 1 14.1518 20.4415 17.2966 -8.94963
634 1 15.7242 18.8691 15.7242 -8.94963
635 1 17.2966 20.4415 17.2966 -8.94963
636 1 18.8691 18.8691 15.7242 -8.94963
637 1 20.4415 20.4415 17.2966 -8.94963
666 1 11.007 17.2966 20.4415 -8.94963
639 1 4.71726 11.007 20.4415 -8.94963
665 1 9.43453 15.7242 18.8691 -8.94963
664 1 7.86211 17.2966 20.4415 -8.94963
663 1 6.28969 15.7242 18.8691 -8.94963
643 1 17.2966 11.007 20.4415 -8.94963
662 1 4.71726 17.2966 20.4415 -8.94963
645 1 5.48228e-14 12.5794 18.8691 -8.94963
646 1 1.57242 14.1518 20.4415 -8.94963
647 1 3.14484 12.5794 18.8691 -8.94963
648 1 4.71726 14.1518 20.4415 -8.94963
649 1 6.28969 12.5794 18.8691 -8.94963
650 1 7.86211 14.1518 20.4415 -8.94963
651 1 9.43453 12.5794 18.8691 -8.94966
652 1 11.007 14.1518 20.4415 -8.94963
653 1 12.5794 12.5794 18.8691 -8.94966
654 1 14.1518 14.1518 20.4415 -8.94963
655 1 15.7242 12.5794 18.8691 -8.94963
656 1 17.2966 14.1518 20.4415 -8.94963
657 1 18.8691 12.5794 18.8691 -8.94963
658 1 20.4415 14.1518 20.4415 -8.94963
351 1 6.09668e-15 12.5794 22.0139 -8.94963
355 1 6.28969 12.5794 22.0139 -8.94963
357 1 9.43453 12.5794 22.0139 -8.94963
359 1 12.5794 12.5794 22.0139 -8.94963
363 1 18.8691 12.5794 22.0139 -8.94963
367 1 3.14484 15.7242 22.0139 -8.94963
369 1 6.28969 15.7242 22.0139 -8.94963
375 1 15.7242 15.7242 22.0139 -8.94963
377 1 18.8691 15.7242 22.0139 -8.94963
9 1 12.5794 22.0139 22.0139 -8.94963
381 1 3.14484 18.8691 22.0139 -8.94963
385 1 9.43453 18.8691 22.0139 -8.94963
387 1 12.5794 18.8691 22.0139 -8.94963
