ITEM: TIMESTEP
76
ITEM: NUMBER OF ATOMS
688
ITEM: BOX BOUNDS pp pp pp
0.0000000000000000e+00 2.2013900999999997e+01
0.0000000000000000e+00 2.2013900999999997e+01
0.0000000000000000e+00 2.2013900999999997e+01
ITEM: ATOMS id type x y z c_pot
1 1 22.0138 4.84262e-05 9.60126e-06 -8.94932
2 1 1.57216 1.57231 1.57216 -8.9492
3 1 3.1447 9.3733e-05 -8.66693e-05 -8.94966
4 1 4.71707 1.57228 1.5721 -8.94966
448 1 20.4424 11.0071 7.86195 -8.94945
6 1 7.86201 1.57225 1.57206 -8.94953
175 1 18.8719 9.43399 9.43411 -8.9509
8 1 11.007 1.57222 1.57204 -8.94956
174 1 15.7343 9.42804 9.42815 -8.94485
10 1 14.1519 1.57222 1.5721 -8.94953
11 1 15.7243 7.64944e-05 -0.000103837 -8.94956
12 1 17.297 1.57216 1.57209 -8.94954
7 1 9.4345 0.000105199 -0.000126214 -8.94959
14 1 20.4415 1.57234 1.5723 -8.94945
447 1 17.3002 11.008 7.86231 -8.95157
16 1 1.5722 4.71711 1.57223 -8.94979
446 1 14.1636 11.0112 7.85212 -8.97691
18 1 4.71648 4.71653 1.57135 -8.94951
445 1 11.1032 11.0054 7.64223 -8.12259
20 1 7.86177 4.71651 1.57154 -8.94911
56 1 9.43449 0.000282658 3.14417 -8.94952
22 1 11.0069 4.71635 1.57152 -8.94937
444 1 7.88697 11.013 7.87602 -8.87173
24 1 14.1522 4.71627 1.57148 -8.94966
443 1 4.72039 11.0077 7.86327 -8.94059
26 1 17.2978 4.71611 1.57139 -8.94827
442 1 1.57215 11.0069 7.86164 -8.94756
28 1 20.4418 4.71698 1.57222 -8.94958
397 1 14.1618 11.0077 4.70713 -8.94256
30 1 1.57225 7.86205 1.57226 -8.94943
396 1 11.0121 11.0075 4.72059 -9.00157
32 1 4.71692 7.86224 1.57227 -8.94986
395 1 7.86532 11.0076 4.72125 -8.9462
34 1 7.86171 7.86184 1.57096 -8.95213
35 1 9.43418 6.28886 -0.000359823 -8.94949
36 1 11.0064 7.86102 1.57018 -8.95043
37 1 12.5794 6.28885 -0.000417561 -8.94956
38 1 14.1533 7.86052 1.569 -8.95197
518 1 20.4426 11.0072 11.0067 -8.94965
40 1 17.2978 7.86154 1.57159 -8.94945
350 1 20.4419 11.0069 1.57217 -8.94955
42 1 20.4418 7.86196 1.5722 -8.94946
58 1 12.5796 0.000268035 3.1442 -8.94947
44 1 3.14441 9.4344 0.000134846 -8.94947
348 1 14.1537 11.007 1.5693 -8.94965
347 1 11.0067 11.007 1.57179 -8.94657
346 1 7.86187 11.0069 1.57297 -8.94836
48 1 15.7252 9.43411 -0.000173706 -8.94983
149 1 3.14413 0.000281827 9.43447 -8.94944
50 1 -9.64463e-05 0.000101358 3.14468 -8.94951
51 1 1.57208 1.57228 4.71703 -8.94961
52 1 3.14427 0.000243721 3.14425 -8.94919
53 1 4.71643 1.57197 4.71641 -8.94987
517 1 17.301 11.007 11.0066 -8.95372
55 1 7.86189 1.572 4.71646 -8.94942
173 1 12.5985 9.40841 9.38747 -8.83449
57 1 11.0071 1.57194 4.7164 -8.94948
172 1 9.36977 9.19804 9.44044 -8.1262
59 1 14.1522 1.57185 4.71664 -8.95031
516 1 14.1686 10.9798 10.9964 -8.93507
61 1 17.2971 1.57229 4.71691 -8.94959
62 1 18.8694 0.000170501 3.14456 -8.9493
63 1 20.4416 1.57233 4.71715 -8.94961
64 1 22.0137 3.14458 3.14458 -8.94948
65 1 1.5714 4.71658 4.71653 -8.94957
66 1 3.14392 3.14411 3.14391 -8.94842
67 1 4.71399 4.71424 4.71399 -8.94511
68 1 6.28926 3.14407 3.14398 -8.94961
69 1 7.86114 4.71469 4.71516 -8.94893
70 1 9.4344 3.14396 3.14395 -8.94942
71 1 11.0071 4.71447 4.71502 -8.94798
72 1 12.5795 3.14386 3.14399 -8.9492
73 1 14.1542 4.7129 4.71452 -8.95009
74 1 15.7251 3.14352 3.14388 -8.94953
75 1 17.2982 4.71579 4.71621 -8.94893
76 1 18.8695 3.14445 3.1445 -8.94946
77 1 20.4418 4.7168 4.7169 -8.9496
78 1 22.014 6.28957 3.14459 -8.94985
79 1 1.57202 7.86222 4.7169 -8.94982
80 1 3.14415 6.28954 3.14423 -8.95041
81 1 4.7158 7.86247 4.71615 -8.95208
82 1 6.28752 6.28777 3.14136 -8.95015
83 1 7.85727 7.85734 4.7087 -8.95444
84 1 9.43375 6.28765 3.14214 -8.94772
85 1 11.0067 7.85734 4.7086 -8.95056
86 1 12.58 6.28732 3.14163 -8.94917
87 1 14.1651 7.84933 4.70262 -8.93102
88 1 15.7282 6.28563 3.14053 -8.94462
89 1 17.3007 7.86031 4.71499 -8.95152
90 1 18.8704 6.28892 3.14403 -8.94987
91 1 20.4423 7.86189 4.71685 -8.95018
92 1 9.80729e-05 9.43443 3.14447 -8.94952
93 1 3.14428 9.43451 3.14427 -8.94896
94 1 6.28959 9.43546 3.14469 -8.94958
95 1 9.4349 9.43472 3.14391 -8.95102
96 1 12.5818 9.4332 3.13588 -8.96085
97 1 15.7275 9.43353 3.14147 -8.94787
98 1 18.8704 9.43428 3.14403 -8.94917
513 1 4.71875 11.0072 11.0067 -8.94322
100 1 1.57202 1.57225 7.862 -8.94953
189 1 20.4418 4.7166 11.0069 -8.9495
102 1 4.71632 1.57185 7.86176 -8.94938
103 1 6.28873 0.00115831 6.2887 -8.95066
104 1 7.86174 1.57181 7.86175 -8.95162
171 1 6.28048 9.42478 9.43169 -8.96615
106 1 11.007 1.57233 7.8617 -8.94996
170 1 3.14227 9.43486 9.43421 -8.95205
108 1 14.1524 1.57217 7.86184 -8.9504
109 1 15.7251 0.000882216 6.28904 -8.94988
110 1 17.2972 1.57216 7.86197 -8.94952
188 1 17.2982 4.71548 11.0067 -8.94871
112 1 20.4416 1.5723 7.86203 -8.94956
113 1 -0.000201078 3.14453 6.28952 -8.9495
114 1 1.57137 4.71649 7.86177 -8.94927
115 1 3.14387 3.14401 6.28915 -8.94938
116 1 4.7144 4.7144 7.86089 -8.94812
117 1 6.28825 3.14223 6.28827 -8.95145
118 1 7.85968 4.71025 7.86082 -8.95847
119 1 9.43448 3.1426 6.28846 -8.95008
120 1 11.0063 4.71396 7.8612 -8.95133
121 1 12.5797 3.14255 6.28893 -8.95199
122 1 14.1535 4.71349 7.86134 -8.95064
123 1 15.7251 3.14356 6.28921 -8.94987
124 1 17.2981 4.71567 7.86163 -8.94913
125 1 18.8695 3.14437 6.28948 -8.94951
126 1 20.4418 4.71669 7.8619 -8.94945
127 1 22.0135 6.28924 6.28924 -8.95024
128 1 1.57049 7.86177 7.86164 -8.95189
129 1 3.14137 6.28797 6.28781 -8.95042
130 1 4.70777 7.85842 7.85895 -8.95668
131 1 6.2786 6.27914 6.27914 -8.93148
132 1 7.82481 7.82878 7.83119 -8.85729
133 1 9.43349 6.28192 6.28504 -8.9493
134 1 11.0218 7.85022 7.83705 -8.89727
135 1 12.5851 6.27846 6.28245 -8.95295
136 1 14.1668 7.84985 7.8526 -8.93301
137 1 15.7293 6.28511 6.28638 -8.94613
138 1 17.3023 7.8592 7.86014 -8.94945
139 1 18.8709 6.28854 6.28888 -8.94935
140 1 20.4425 7.86161 7.86175 -8.95063
141 1 22.014 9.43459 6.28933 -8.94973
142 1 3.14396 9.4354 6.28928 -8.94977
143 1 6.28822 9.43818 6.28984 -8.95451
144 1 9.42371 9.41544 6.28575 -8.91056
145 1 12.6218 9.39921 6.24601 -8.86864
146 1 15.7349 9.43241 6.28483 -8.95993
147 1 18.8716 9.43454 6.2892 -8.95158
148 1 -0.000126548 0.000111935 9.4345 -8.94958
169 1 22.0138 9.43456 9.43433 -8.95007
168 1 18.8707 6.28833 9.43419 -8.94899
151 1 9.43464 0.0018948 9.43441 -8.95074
152 1 12.5797 0.00149119 9.43443 -8.95118
167 1 15.7281 6.28508 9.43349 -8.94641
166 1 12.5803 6.28367 9.43221 -8.95412
155 1 22.0137 3.14448 9.43447 -8.94954
156 1 3.14375 3.14392 9.43442 -8.94945
157 1 6.2878 3.14184 9.43438 -8.94957
158 1 9.43443 3.14364 9.4344 -8.94721
159 1 12.5797 3.14313 9.4343 -8.95012
160 1 15.7253 3.14334 9.43435 -8.94958
161 1 18.8696 3.14426 9.43442 -8.94948
162 1 -0.000471579 6.289 9.43433 -8.94973
163 1 3.1413 6.28768 9.4342 -8.94874
164 1 6.28093 6.28057 9.4343 -8.9439
165 1 9.43132 6.29073 9.43515 -9.00365
344 1 1.57219 11.0069 1.5722 -8.9496
183 1 1.5713 4.71639 11.0071 -8.94932
181 1 17.2973 1.57209 11.007 -8.94951
154 1 18.8694 0.000164173 9.43449 -8.94953
177 1 4.71626 1.57178 11.0071 -8.94937
9 1 12.5794 0.000100484 -0.000121196 -8.94958
184 1 4.71415 4.71407 11.0076 -8.94776
512 1 1.57179 11.007 11.007 -8.94781
41 1 18.8696 6.28932 6.05212e-05 -8.94955
19 1 6.28953 3.14454 -0.000160897 -8.94948
25 1 15.7244 3.14446 -0.000150463 -8.94965
176 1 1.57201 1.57224 11.007 -8.94956
199 1 3.14415 0.000290051 12.5796 -8.94942
178 1 7.86175 1.57147 11.0071 -8.95158
179 1 11.007 1.57181 11.007 -8.94914
180 1 14.1524 1.57186 11.007 -8.94986
644 1 20.4418 11.0069 20.4418 -8.94956
182 1 20.4416 1.57229 11.0069 -8.94958
642 1 14.1525 11.007 20.4434 -8.95185
209 1 18.8694 0.000163975 12.5794 -8.94953
185 1 7.85958 4.70922 11.0082 -8.95873
186 1 11.0069 4.71356 11.0073 -8.95181
187 1 14.1534 4.71357 11.0064 -8.94943
641 1 11.0067 11.0069 20.4428 -8.94817
640 1 7.86158 11.0068 20.4439 -8.95116
190 1 1.57026 7.86149 11.0068 -8.95132
191 1 4.7075 7.85808 11.0083 -8.95599
192 1 7.82475 7.82524 11.0408 -8.86065
193 1 11.0308 7.84862 11.034 -8.96626
194 1 14.1614 7.85231 11.0045 -8.95865
195 1 17.3014 7.8593 11.0058 -8.94771
196 1 20.4426 7.86136 11.0067 -8.94982
343 1 18.8702 9.43414 18.8702 -8.94928
198 1 1.57204 1.57225 14.152 -8.94957
342 1 15.7265 9.43304 18.8732 -8.95053
200 1 4.71636 1.57174 14.1525 -8.94985
341 1 12.5792 9.43378 18.8733 -8.95239
202 1 7.86195 1.57161 14.1525 -8.9503
203 1 9.43479 0.000480961 12.5799 -8.94995
204 1 11.0071 1.57136 14.1526 -8.94932
205 1 12.5795 0.000125094 12.5796 -8.95011
206 1 14.1523 1.57115 14.1523 -8.95121
340 1 9.43466 9.43384 18.8725 -8.95029
208 1 17.2972 1.57208 14.1519 -8.94959
339 1 6.28771 9.43301 18.8731 -8.95058
210 1 20.4416 1.5723 14.1519 -8.94955
211 1 -0.000202234 3.14448 12.5795 -8.9495
212 1 1.57128 4.71641 14.1524 -8.94964
213 1 3.14374 3.14388 12.5798 -8.94931
214 1 4.71343 4.71335 14.155 -8.94477
215 1 6.28802 3.14156 12.5806 -8.95133
216 1 7.86078 4.71226 14.1543 -8.95181
217 1 9.43473 3.14189 12.5804 -8.95022
218 1 11.0072 4.7132 14.1546 -8.94681
219 1 12.5798 3.14137 12.5799 -8.95291
220 1 14.1554 4.70968 14.1553 -8.95183
221 1 15.7252 3.14325 12.5793 -8.94957
222 1 17.2985 4.71527 14.1523 -8.94979
223 1 18.8696 3.14427 12.5794 -8.94939
224 1 20.4418 4.71668 14.1519 -8.94968
225 1 22.0135 6.28905 12.5795 -8.95005
226 1 1.57127 7.86167 14.1521 -8.94988
227 1 3.141 6.28765 12.5807 -8.95071
228 1 4.71266 7.86025 14.1537 -8.95142
229 1 6.27719 6.27697 12.5899 -8.93025
230 1 7.84946 7.84565 14.169 -8.95441
231 1 9.43421 6.27972 12.5852 -8.95202
232 1 11.0075 7.85584 14.1634 -8.94646
233 1 12.5879 6.27377 12.5882 -8.95366
234 1 14.1744 7.83701 14.1743 -8.9215
235 1 15.7293 6.28475 12.5799 -8.94988
236 1 17.3042 7.85802 14.1549 -8.95095
237 1 18.8709 6.28841 12.5793 -8.94953
238 1 20.4432 7.86136 14.1522 -8.95037
239 1 22.014 9.43431 12.5793 -8.95052
240 1 3.14154 9.43438 12.5794 -8.95072
241 1 6.27937 9.43346 12.5809 -8.95519
242 1 9.39758 9.40499 12.6135 -8.86413
243 1 12.6502 9.38327 12.6466 -8.77777
244 1 15.7438 9.42714 12.584 -8.96084
245 1 18.8739 9.43359 12.5794 -8.95296
246 1 -0.000106447 9.68759e-05 15.7243 -8.94958
247 1 1.5721 1.57227 17.2969 -8.94931
47 1 12.5794 9.43425 22.0131 -8.95187
249 1 4.71687 1.57217 17.2972 -8.94994
250 1 6.28933 0.000639902 15.7249 -8.95041
251 1 7.86204 1.57206 17.2972 -8.94947
252 1 9.43467 8.93575e-05 15.7248 -8.94937
253 1 11.007 1.57199 17.2972 -8.94961
254 1 12.5794 -2.65732e-05 15.7248 -8.94929
255 1 14.1519 1.57196 17.2971 -8.94948
256 1 15.7247 0.000328929 15.7248 -8.9506
257 1 17.2972 1.57193 17.2972 -8.94969
46 1 9.43433 9.43439 22.0143 -8.94954
259 1 20.4416 1.57229 17.2968 -8.94961
260 1 22.0137 3.14451 15.7245 -8.94956
261 1 1.57203 4.71685 17.2971 -8.94987
262 1 3.14374 3.14385 15.7251 -8.9484
263 1 4.71558 4.71521 17.2987 -8.94903
264 1 6.28894 3.14315 15.7254 -8.95049
265 1 7.86175 4.71569 17.2982 -8.94902
266 1 9.43443 3.14326 15.7254 -8.94928
267 1 11.0069 4.71541 17.2984 -8.94916
268 1 12.5795 3.14307 15.7254 -8.94905
269 1 14.1523 4.71537 17.2984 -8.94958
270 1 15.7256 3.14232 15.7256 -8.95002
271 1 17.2988 4.71473 17.2987 -8.94738
272 1 18.8696 3.14422 15.7245 -8.9497
273 1 20.4421 4.7167 17.2971 -8.94959
274 1 22.014 6.28921 15.7246 -8.94984
275 1 1.57144 7.86145 17.2975 -8.94981
276 1 3.14322 6.2887 15.7252 -8.95041
277 1 4.71344 7.85882 17.3006 -8.94481
278 1 6.28467 6.2833 15.7306 -8.9492
279 1 7.86088 7.85975 17.3017 -8.95282
280 1 9.4341 6.28572 15.7286 -8.94712
281 1 11.0066 7.85895 17.3023 -8.94725
282 1 12.58 6.28522 15.7293 -8.94862
283 1 14.1542 7.85867 17.3034 -8.95292
284 1 15.7315 6.28104 15.7315 -8.94168
285 1 17.3009 7.85859 17.3009 -8.94521
286 1 18.8715 6.28802 15.7255 -8.94976
287 1 20.4425 7.86145 17.2975 -8.94986
288 1 1.39775e-05 9.4342 15.7248 -8.95045
289 1 3.14119 9.43327 15.7261 -8.95094
290 1 6.27734 9.4241 15.7371 -8.93061
291 1 9.4349 9.43128 15.7349 -8.95244
292 1 12.5813 9.43054 15.7409 -8.96292
293 1 15.7379 9.42401 15.7381 -8.93201
294 1 18.873 9.43338 15.7261 -8.95101
45 1 6.2892 9.4344 22.0146 -8.94989
296 1 1.57225 1.57232 20.4416 -8.9494
297 1 3.14453 0.000247171 18.8694 -8.94954
298 1 4.71718 1.57232 20.4416 -8.94965
299 1 6.28966 0.000107748 18.8693 -8.94968
300 1 7.86204 1.57228 20.4416 -8.94955
338 1 3.14373 9.43408 18.8702 -8.94928
302 1 11.007 1.57226 20.4416 -8.94959
337 1 22.0139 9.43435 18.8696 -8.94946
304 1 14.1519 1.57227 20.4416 -8.94954
305 1 15.7243 5.4698e-05 18.8693 -8.9497
306 1 17.2967 1.57227 20.4416 -8.94972
307 1 18.8694 0.000158747 18.8694 -8.9494
308 1 20.4417 1.57233 20.4416 -8.94931
309 1 22.0139 3.14465 18.8693 -8.94964
310 1 1.57221 4.717 20.4418 -8.94936
311 1 3.14433 3.1443 18.8696 -8.94935
312 1 4.71687 4.71676 20.4418 -8.94998
313 1 6.28951 3.14433 18.8695 -8.94953
314 1 7.86187 4.71664 20.4418 -8.94936
315 1 9.43442 3.14421 18.8696 -8.94948
316 1 11.0069 4.71653 20.4419 -8.94954
317 1 12.5794 3.1442 18.8696 -8.94944
318 1 14.1519 4.71659 20.4418 -8.94946
319 1 15.7244 3.14423 18.8696 -8.9497
320 1 17.2972 4.71655 20.4418 -8.94966
321 1 18.8697 3.14422 18.8696 -8.94899
322 1 20.4418 4.71695 20.4417 -8.94933
323 1 22.0139 6.2893 18.8695 -8.94953
324 1 1.57214 7.86192 20.4418 -8.94955
325 1 3.14382 6.28876 18.8702 -8.94843
326 1 4.71643 7.86149 20.4427 -8.9496
327 1 6.28892 6.28852 18.8708 -8.95069
328 1 7.86183 7.86157 20.4426 -8.95029
329 1 9.43414 6.28826 18.8709 -8.94901
330 1 11.0067 7.86111 20.4427 -8.95002
331 1 12.5795 6.28825 18.871 -8.9491
332 1 14.1522 7.86129 20.4426 -8.95084
333 1 15.7254 6.28806 18.8712 -8.95038
334 1 17.2977 7.86136 20.4425 -8.94955
335 1 18.8702 6.28864 18.8702 -8.94851
336 1 20.4418 7.86191 20.4418 -8.94957
29 1 22.0139 6.28958 22.0139 -8.94958
638 1 1.57211 11.0069 20.4418 -8.94956
514 1 7.87833 10.989 10.9866 -8.83967
515 1 11.0989 10.713 11.1078 -7.31415
27 1 18.8694 3.14449 22.0138 -8.94926
39 1 15.725 6.28875 22.0133 -8.95013
593 1 14.1563 11.0056 17.308 -8.95636
540 1 1.57047 11.0069 14.1524 -8.9512
541 1 4.70841 11.0058 14.1557 -8.9564
542 1 7.82745 10.9749 14.1913 -8.85422
543 1 11.0055 11.0101 14.1506 -8.96707
544 1 14.1901 10.9783 14.1938 -8.86083
545 1 17.3064 11.0064 14.1555 -8.95688
546 1 20.4434 11.007 14.1522 -8.95135
33 1 6.28927 6.28925 22.0136 -8.95045
31 1 3.14452 6.2895 22.0141 -8.94965
591 1 7.85836 11.005 17.307 -8.95676
592 1 11.0067 11.0075 17.2999 -8.94445
5 1 6.2896 8.73049e-05 22.0138 -8.94954
15 1 22.0139 3.14471 22.0139 -8.94946
17 1 3.14456 3.14455 22.0137 -8.94954
23 1 12.5794 3.14444 22.0138 -8.94952
13 1 18.8692 7.71672e-05 22.0138 -8.94951
21 1 9.43445 3.14445 22.0137 -8.94955
43 1 22.0139 9.43447 22.0139 -8.94959
49 1 18.8696 9.43439 22.0139 -8.94947
688 3 10.1567 11.0365 9.38491 2.38679
511 1 18.8701 18.8699 9.43441 -8.94922
510 1 15.7266 18.8719 9.43409 -8.94904
509 1 12.5814 18.8775 9.43179 -8.95861
508 1 9.43312 18.8793 9.43179 -8.95803
349 1 17.2979 11.0069 1.57156 -8.94942
507 1 6.28574 18.8751 9.4338 -8.94872
539 1 20.4417 20.4418 11.007 -8.94955
352 1 1.57221 14.1518 1.57223 -8.94946
353 1 3.14438 12.5794 0.000124861 -8.94953
354 1 4.71676 14.1515 1.57213 -8.94964
153 1 15.725 22.0145 9.43453 -8.94959
356 1 7.86165 14.1518 1.57087 -8.95243
150 1 6.2887 22.0149 9.43447 -8.95007
358 1 11.0065 14.1524 1.56987 -8.95024
345 1 4.71663 11.0068 1.57207 -8.94961
360 1 14.1533 14.153 1.56931 -8.95158
361 1 15.7253 12.5797 -0.000204759 -8.9496
362 1 17.2979 14.1523 1.57156 -8.94926
107 1 12.5798 22.0149 6.28887 -8.94994
364 1 20.4419 14.1519 1.57218 -8.9495
365 1 22.0139 15.7243 3.35184e-05 -8.94956
366 1 1.57217 17.2968 1.5722 -8.94977
105 1 9.43445 22.015 6.28865 -8.94973
368 1 4.7163 17.2974 1.57132 -8.94967
529 1 11.0073 17.298 11.0021 -9.01333
370 1 7.86167 17.2975 1.57087 -8.94971
371 1 9.43437 15.7249 -0.000651874 -8.9498
372 1 11.0069 17.2977 1.57079 -8.94971
373 1 12.5794 15.7249 -0.000761781 -8.94985
374 1 14.1524 17.2977 1.57088 -8.9503
526 1 1.57055 17.2978 11.007 -8.9493
376 1 17.2978 17.2976 1.5716 -8.94842
525 1 20.4416 14.1519 11.0068 -8.9494
378 1 20.4418 17.2969 1.57223 -8.94951
111 1 18.8694 22.0141 6.28952 -8.94966
380 1 1.57209 20.4417 1.57219 -8.94931
495 1 12.5465 12.572 9.45149 -8.82998
382 1 4.71691 20.4419 1.57188 -8.94964
383 1 6.28949 18.8695 -0.000280297 -8.94973
384 1 7.86195 20.442 1.57185 -8.94942
494 1 9.36197 12.848 9.46161 -7.9582
386 1 11.007 20.442 1.57184 -8.9495
493 1 6.28575 12.5883 9.43798 -8.97071
388 1 14.152 20.442 1.5719 -8.94942
389 1 15.7245 18.8695 -0.000291749 -8.94989
390 1 17.2971 20.442 1.5719 -8.94946
391 1 18.8695 18.8695 2.96401e-05 -8.94926
392 1 20.4416 20.4416 1.57235 -8.94965
506 1 3.14288 18.8706 9.43428 -8.94903
394 1 4.716 11.0068 4.71584 -8.94614
505 1 22.0136 18.8696 9.4344 -8.94949
504 1 18.8711 15.7247 9.4345 -8.95235
503 1 15.7342 15.7295 9.43072 -8.95614
398 1 17.3008 11.007 4.71494 -8.94844
399 1 20.4425 11.0069 4.71666 -8.94982
400 1 8.48498e-05 12.5794 3.14445 -8.94956
401 1 1.57184 14.1516 4.71675 -8.94969
402 1 3.14417 12.5792 3.14418 -8.9491
403 1 4.71531 14.1512 4.71577 -8.95109
404 1 6.28917 12.5782 3.1443 -8.94917
405 1 7.85703 14.1556 4.70773 -8.95525
406 1 9.43478 12.5789 3.14444 -8.94846
407 1 11.007 14.1551 4.70792 -8.95197
408 1 12.582 12.5804 3.13724 -8.95798
409 1 14.1643 14.1623 4.70441 -8.92959
410 1 15.7277 12.5804 3.1414 -8.94765
411 1 17.3008 14.1535 4.71509 -8.95009
412 1 18.8704 12.5796 3.144 -8.94932
413 1 20.4424 14.152 4.71676 -8.95005
414 1 22.014 15.7243 3.14453 -8.94973
415 1 1.5712 17.2972 4.71646 -8.9497
416 1 3.14402 15.7243 3.1441 -8.95018
417 1 4.71324 17.2999 4.7132 -8.94525
418 1 6.28732 15.7259 3.14083 -8.9504
419 1 7.85972 17.3006 4.71168 -8.95076
420 1 9.43385 15.726 3.14043 -8.94983
421 1 11.0073 17.3009 4.71174 -8.94737
422 1 12.5802 15.7262 3.14011 -8.95161
423 1 14.1559 17.3021 4.71138 -8.95142
424 1 15.728 15.7275 3.14105 -8.94456
425 1 17.298 17.2973 4.71652 -8.95092
426 1 18.8704 15.7249 3.14408 -8.94946
427 1 20.4416 17.2968 4.71703 -8.94983
428 1 22.0136 18.8693 3.14458 -8.94962
429 1 1.57184 20.4419 4.71683 -8.94949
430 1 3.14369 18.87 3.14374 -8.94853
431 1 4.71563 20.4433 4.71559 -8.94837
432 1 6.28868 18.8705 3.14292 -8.94982
433 1 7.86159 20.4431 4.71579 -8.94922
434 1 9.43426 18.8706 3.14295 -8.94908
435 1 11.0072 20.4431 4.71575 -8.94942
436 1 12.5798 18.8706 3.14304 -8.94888
437 1 14.1526 20.4431 4.71603 -8.95012
438 1 15.7257 18.8709 3.14294 -8.94952
439 1 17.2978 20.4425 4.71628 -8.94818
440 1 18.8695 18.8694 3.14456 -8.95001
441 1 20.4417 20.4418 4.71697 -8.9495
502 1 12.6173 15.7625 9.38745 -8.82788
501 1 9.39043 15.7666 9.39046 -8.90452
500 1 6.27043 15.7387 9.42954 -8.94886
499 1 3.13934 15.7261 9.43421 -8.9516
498 1 -0.000848589 15.7246 9.4344 -8.95053
497 1 18.8696 12.5799 9.43439 -8.94624
496 1 15.7191 12.5792 9.43684 -8.93529
449 1 22.014 12.5793 6.28924 -8.94992
450 1 1.57018 14.1518 7.86163 -8.95148
451 1 3.14341 12.5784 6.28892 -8.94965
452 1 4.70733 14.154 7.85963 -8.95777
453 1 6.28681 12.5761 6.28929 -8.9492
454 1 7.82104 14.1864 7.82734 -8.85234
455 1 9.42437 12.6004 6.29157 -8.90249
456 1 11.0222 14.1682 7.83404 -8.93386
457 1 12.6195 12.6135 6.25512 -8.84461
458 1 14.156 14.1489 7.86191 -8.95141
459 1 15.7355 12.5819 6.28484 -8.95444
460 1 17.2986 14.1514 7.8626 -8.94926
461 1 18.8718 12.5797 6.28899 -8.95163
462 1 20.4418 14.1519 7.86191 -8.94968
463 1 22.0133 15.7245 6.28927 -8.95003
464 1 1.57058 17.2975 7.86154 -8.95019
465 1 3.14094 15.7255 6.28775 -8.95076
466 1 4.71038 17.3016 7.85871 -8.9485
467 1 6.27673 15.7353 6.27692 -8.93153
468 1 7.84668 17.3172 7.84737 -8.93639
469 1 9.43184 15.7343 6.27633 -8.96091
470 1 11.0068 17.3084 7.852 -8.94359
471 1 12.5875 15.737 6.27375 -8.96458
472 1 14.1652 17.3103 7.84936 -8.92571
473 1 15.7272 15.725 6.28837 -8.95289
474 1 17.3009 17.299 7.86023 -8.95054
475 1 18.87 15.7243 6.28955 -8.94967
476 1 20.4421 17.2971 7.86179 -8.9505
477 1 -0.00029205 18.8695 6.28934 -8.94985
478 1 1.57184 20.442 7.86194 -8.94946
479 1 3.14266 18.8707 6.28839 -8.94925
480 1 4.71569 20.4432 7.86149 -8.94944
481 1 6.28447 18.8758 6.28445 -8.9454
482 1 7.86053 20.4464 7.86049 -8.95301
483 1 9.43372 18.8743 6.28575 -8.948
484 1 11.0072 20.4456 7.86027 -8.94922
485 1 12.5809 18.874 6.28632 -8.95012
486 1 14.1535 20.4451 7.86076 -8.95149
487 1 15.7284 18.8732 6.28608 -8.94375
488 1 17.2976 20.4424 7.86183 -8.94968
489 1 18.8704 18.87 6.28893 -8.94953
490 1 20.4417 20.4418 7.862 -8.94952
491 1 22.0135 12.5793 9.43426 -8.94915
492 1 3.14264 12.5788 9.43429 -8.94947
519 1 1.5698 14.1518 11.007 -8.9516
520 1 4.70592 14.1548 11.0101 -8.96048
522 1 11.0172 14.4322 10.9357 -8.01399
523 1 14.152 14.1661 10.9939 -8.92464
524 1 17.2974 14.1513 11.0071 -8.94968
393 1 1.57189 11.0069 4.71655 -8.94946
54 1 6.28943 22.0142 3.14424 -8.94954
60 1 15.7246 22.0141 3.14433 -8.94989
99 1 22.0138 22.014 6.28959 -8.94958
101 1 3.14418 22.0142 6.28935 -8.94952
527 1 4.71152 17.3016 11.0077 -8.94603
534 1 4.71576 20.4433 11.0072 -8.94919
687 3 10.9833 12.6088 11.7328 2.29672
686 1 20.4417 20.4417 20.4417 -8.94925
685 1 18.8698 18.8699 18.8698 -8.94861
684 1 17.2968 20.4418 20.4416 -8.94983
683 1 15.7245 18.8698 18.8698 -8.95033
682 1 14.1519 20.4418 20.4416 -8.94944
681 1 12.5794 18.8698 18.8697 -8.94902
303 1 12.5794 22.014 18.8694 -8.94956
301 1 9.43451 22.014 18.8694 -8.94958
521 1 7.81274 14.2123 11.0346 -8.8029
387 1 12.5795 18.8696 22.0136 -8.94951
207 1 15.7249 22.0143 12.5796 -8.94945
201 1 6.28886 22.0148 12.58 -8.95044
385 1 9.43445 18.8697 22.0136 -8.94955
197 1 22.0138 22.014 12.5794 -8.94959
590 1 4.71385 11.006 17.3002 -8.94772
528 1 7.85481 17.3135 11.0088 -8.95844
661 1 3.14382 15.7247 18.8701 -8.94932
530 1 14.1564 17.3035 11.0064 -8.9491
531 1 17.2994 17.2986 11.0069 -8.94769
660 1 1.57216 17.2968 20.4418 -8.94962
533 1 1.57183 20.442 11.007 -8.9495
589 1 1.57138 11.0067 17.2976 -8.94938
535 1 7.86112 20.4456 11.0075 -8.9521
536 1 11.0073 20.4432 11.0072 -8.9475
537 1 14.1529 20.4437 11.0073 -8.94989
538 1 17.2975 20.4424 11.007 -8.94942
659 1 22.0139 15.7245 18.8695 -8.94942
680 1 11.007 20.4418 20.4416 -8.94959
679 1 9.43462 18.8699 18.8698 -8.94907
678 1 7.86207 20.4418 20.4416 -8.94945
677 1 6.28949 18.8699 18.8699 -8.95027
676 1 4.7171 20.4418 20.4417 -8.94979
675 1 3.14383 18.8701 18.8702 -8.94839
674 1 1.57217 20.4418 20.4417 -8.94923
547 1 22.0137 12.5794 12.5794 -8.94884
548 1 1.57052 14.1518 14.1522 -8.95114
549 1 3.14281 12.5785 12.5798 -8.94628
550 1 4.70866 14.1524 14.1552 -8.95954
551 1 6.29117 12.5761 12.5852 -8.99879
552 1 7.82469 14.185 14.196 -8.87113
553 1 9.21051 12.5832 12.6576 -8.12618
554 1 11.0064 14.1409 14.1298 -8.91269
555 1 12.7738 12.5569 12.6461 -8.17987
556 1 14.1813 14.1751 14.1839 -8.87835
557 1 15.7245 12.5784 12.5842 -8.99347
558 1 17.3036 14.1532 14.1544 -8.95683
559 1 18.8708 12.5797 12.5795 -8.94752
560 1 20.4428 14.1521 14.1521 -8.951
561 1 22.013 15.7247 12.5794 -8.95062
562 1 1.57054 17.2978 14.1525 -8.94969
563 1 3.13886 15.7266 12.5808 -8.9517
564 1 4.71082 17.3022 14.1564 -8.94344
565 1 6.26898 15.7409 12.5928 -8.92902
566 1 7.85549 17.3085 14.1599 -8.9506
567 1 9.40933 15.7387 12.6007 -8.89096
568 1 11.0078 17.2958 14.1513 -8.94347
569 1 12.6078 15.7353 12.6005 -8.87885
570 1 14.1591 17.3063 14.1588 -8.94829
571 1 15.7313 15.7267 12.5794 -8.95537
572 1 17.2993 17.2984 14.1525 -8.95038
573 1 18.871 15.725 12.5791 -8.95075
574 1 20.4419 17.2972 14.1519 -8.94987
575 1 -0.000325889 18.8696 12.5795 -8.94949
576 1 1.57188 20.442 14.152 -8.9495
577 1 3.14296 18.8707 12.5799 -8.94911
578 1 4.71593 20.4433 14.1527 -8.94944
579 1 6.28624 18.875 12.5815 -8.94948
580 1 7.86189 20.444 14.1527 -8.95212
581 1 9.43493 18.8729 12.5802 -8.95161
582 1 11.0073 20.442 14.1525 -8.94824
583 1 12.5801 18.8714 12.5796 -8.95257
584 1 14.1523 20.4433 14.1524 -8.95236
585 1 15.7261 18.8713 12.5798 -8.94784
586 1 17.2973 20.4423 14.152 -8.94929
587 1 18.8699 18.8699 12.5795 -8.94928
588 1 20.4416 20.4418 14.1519 -8.94949
673 1 22.0138 18.8694 18.8694 -8.9496
672 1 20.4417 17.2969 20.4417 -8.94954
671 1 18.87 15.7248 18.87 -8.94922
670 1 17.2974 17.2975 20.4422 -8.94954
669 1 15.7259 15.726 18.872 -8.95044
668 1 14.1518 17.2972 20.4418 -8.94983
667 1 12.5788 15.7249 18.8703 -8.95
596 1 -8.64857e-05 12.5795 15.725 -8.95012
597 1 1.5714 14.1521 17.2976 -8.94928
598 1 3.14111 12.5794 15.7265 -8.94903
599 1 4.71402 14.1528 17.3 -8.94771
600 1 6.28008 12.579 15.7344 -8.94218
601 1 7.85844 14.1545 17.3075 -8.95828
602 1 9.42651 12.5803 15.7349 -8.97007
603 1 11.007 14.1516 17.2953 -8.93941
604 1 12.5865 12.5793 15.7341 -8.96801
605 1 14.1552 14.1543 17.3051 -8.95592
606 1 15.734 12.5806 15.7342 -8.94153
607 1 17.2997 14.1533 17.2996 -8.94769
608 1 18.8726 12.5799 15.7263 -8.94928
609 1 20.4424 14.1522 17.2975 -8.94934
610 1 22.0137 15.7246 15.7247 -8.95041
611 1 1.57146 17.2973 17.2975 -8.95007
612 1 3.14139 15.7255 15.7261 -8.9518
613 1 4.71351 17.3005 17.301 -8.94512
614 1 6.2773 15.7363 15.7386 -8.93287
615 1 7.86234 17.2983 17.2991 -8.95166
616 1 9.43759 15.7253 15.7288 -8.95441
617 1 11.0073 17.2984 17.2984 -8.94686
618 1 12.5773 15.724 15.7276 -8.95656
619 1 14.1518 17.2979 17.2985 -8.95203
620 1 15.7336 15.7333 15.7338 -8.93519
621 1 17.2995 17.2996 17.2995 -8.94591
622 1 18.8718 15.7256 15.7255 -8.95087
623 1 20.4422 17.2973 17.2973 -8.94985
624 1 22.0136 18.8696 15.7245 -8.94956
625 1 1.57195 20.4419 17.297 -8.9493
626 1 3.14301 18.8707 15.7256 -8.9482
627 1 4.71641 20.4428 17.2977 -8.94944
628 1 6.28727 18.8735 15.7273 -8.94954
629 1 7.86232 20.4421 17.2972 -8.94962
630 1 9.43551 18.8702 15.7252 -8.94885
631 1 11.0071 20.4421 17.2973 -8.94967
632 1 12.579 18.8698 15.7249 -8.94871
633 1 14.1517 20.4419 17.2971 -8.94962
634 1 15.7266 18.8728 15.7268 -8.94893
635 1 17.2975 20.4426 17.2975 -8.94927
636 1 18.8699 18.8699 15.7246 -8.94989
637 1 20.4416 20.4418 17.2968 -8.94966
666 1 11.007 17.2975 20.4419 -8.94955
639 1 4.71634 11.0067 20.4426 -8.94936
665 1 9.43521 15.725 18.8706 -8.94992
664 1 7.86211 17.2973 20.4419 -8.94975
663 1 6.28783 15.7261 18.8731 -8.95119
643 1 17.2977 11.0068 20.4425 -8.94928
662 1 4.71643 17.2975 20.4425 -8.94989
645 1 22.0139 12.5794 18.8696 -8.94952
646 1 1.57211 14.1519 20.4418 -8.94953
647 1 3.14372 12.5794 18.8702 -8.94946
648 1 4.7164 14.152 20.4426 -8.94927
649 1 6.28755 12.5794 18.873 -8.94889
650 1 7.86166 14.1522 20.4436 -8.95197
651 1 9.43456 12.5798 18.8725 -8.95074
652 1 11.0068 14.1524 20.4417 -8.94804
653 1 12.5793 12.5799 18.8721 -8.95112
654 1 14.1523 14.1524 20.4429 -8.95165
655 1 15.7265 12.5799 18.8728 -8.94891
656 1 17.2976 14.1523 20.4424 -8.9492
657 1 18.8702 12.5796 18.8701 -8.94946
658 1 20.4418 14.1519 20.4418 -8.94955
351 1 22.0139 12.5794 22.0139 -8.94959
355 1 6.28907 12.5792 22.0146 -8.94968
357 1 9.43439 12.5793 22.0143 -8.94921
359 1 12.5794 12.5795 22.0131 -8.95112
363 1 18.8697 12.5795 22.0139 -8.94952
367 1 3.14446 15.7243 22.014 -8.9496
369 1 6.28908 15.7247 22.0139 -8.95087
375 1 15.7251 15.7251 22.0135 -8.95019
377 1 18.8696 15.7245 22.0139 -8.94948
381 1 3.14439 18.8695 22.0139 -8.94947
248 1 3.14426 22.0142 15.7247 -8.94946
258 1 18.8693 22.014 15.7243 -8.94961
295 1 22.0138 22.014 18.8692 -8.94948
595 1 20.4425 11.0068 17.2976 -8.94939
594 1 17.3002 11.0064 17.3001 -8.94783
532 1 20.442 17.2974 11.0069 -8.94961
379 1 22.0139 18.8692 22.0139 -8.94961
