ITEM: TIMESTEP
70
ITEM: NUMBER OF ATOMS
688
ITEM: BOX BOUNDS pp pp pp
0.0000000000000000e+00 2.2013900999999997e+01
0.0000000000000000e+00 2.2013900999999997e+01
0.0000000000000000e+00 2.2013900999999997e+01
ITEM: ATOMS id type x y z c_pot
1 1 22.0138 4.11212e-05 8.8047e-06 -8.94936
2 1 1.57219 1.57232 1.57219 -8.94923
3 1 3.14472 7.91713e-05 -7.53938e-05 -8.94967
4 1 4.7171 1.57229 1.57214 -8.94967
448 1 20.4424 11.0071 7.86196 -8.94949
6 1 7.86202 1.57227 1.57211 -8.94954
175 1 18.8718 9.434 9.43413 -8.95089
8 1 11.007 1.57224 1.57209 -8.94957
174 1 15.7341 9.42822 9.42831 -8.94483
10 1 14.1519 1.57224 1.57214 -8.94954
11 1 15.7243 6.69366e-05 -8.56723e-05 -8.94957
12 1 17.2969 1.57218 1.57214 -8.94955
7 1 9.4345 9.13928e-05 -0.000106289 -8.9496
14 1 20.4415 1.57235 1.57232 -8.94947
447 1 17.3001 11.008 7.86233 -8.95158
16 1 1.57223 4.71713 1.57225 -8.94978
446 1 14.1636 11.0112 7.85236 -8.97688
18 1 4.71654 4.71658 1.57141 -8.94951
445 1 11.103 11.0053 7.64201 -8.121
20 1 7.86181 4.71656 1.57159 -8.94912
56 1 9.43449 0.000247828 3.14424 -8.94953
22 1 11.0069 4.71642 1.57158 -8.94939
444 1 7.88641 11.0128 7.87565 -8.87259
24 1 14.1521 4.71636 1.57156 -8.94968
443 1 4.72013 11.0076 7.86312 -8.94067
26 1 17.2977 4.7162 1.57147 -8.9483
442 1 1.5721 11.0069 7.86164 -8.94763
28 1 20.4418 4.71702 1.57224 -8.94959
397 1 14.1615 11.0076 4.70737 -8.9426
30 1 1.57226 7.86205 1.57227 -8.94945
396 1 11.0119 11.0075 4.72034 -9.00156
32 1 4.71694 7.86224 1.57226 -8.94984
395 1 7.86515 11.0075 4.72099 -8.94626
34 1 7.86172 7.86185 1.57096 -8.95208
35 1 9.4342 6.28892 -0.000361883 -8.94949
36 1 11.0064 7.86107 1.57024 -8.95038
37 1 12.5794 6.28892 -0.000399577 -8.94955
38 1 14.1532 7.86059 1.56913 -8.95193
518 1 20.4426 11.0072 11.0067 -8.9497
40 1 17.2977 7.8616 1.57166 -8.94947
350 1 20.4418 11.0069 1.57219 -8.94956
42 1 20.4418 7.86198 1.57222 -8.94948
58 1 12.5795 0.00023563 3.14427 -8.94949
44 1 3.14445 9.43442 0.000104747 -8.94948
348 1 14.1536 11.007 1.56942 -8.94964
347 1 11.0067 11.007 1.57172 -8.94667
346 1 7.86185 11.0069 1.57286 -8.94839
48 1 15.7252 9.43414 -0.000161912 -8.94982
149 1 3.14421 0.000248425 9.43448 -8.94946
50 1 -8.12954e-05 8.68822e-05 3.1447 -8.94953
51 1 1.57212 1.57229 4.71707 -8.94963
52 1 3.14434 0.000214056 3.14432 -8.94921
53 1 4.7165 1.57197 4.71648 -8.94986
517 1 17.301 11.0071 11.0066 -8.95376
55 1 7.86192 1.57201 4.71653 -8.94943
173 1 12.5984 9.40877 9.38808 -8.83454
57 1 11.0071 1.57195 4.71647 -8.94949
172 1 9.3695 9.19945 9.44051 -8.12669
59 1 14.1522 1.57188 4.7167 -8.95028
516 1 14.1689 10.9802 10.9965 -8.93505
61 1 17.2971 1.5723 4.71695 -8.94959
62 1 18.8693 0.000151509 3.1446 -8.94932
63 1 20.4416 1.57235 4.71717 -8.94962
64 1 22.0137 3.14461 3.14461 -8.9495
65 1 1.57146 4.71662 4.71658 -8.94957
66 1 3.14399 3.14416 3.14398 -8.94845
67 1 4.71412 4.71434 4.71411 -8.94514
68 1 6.28931 3.14413 3.14405 -8.94963
69 1 7.86123 4.71481 4.71526 -8.94897
70 1 9.43442 3.14402 3.14402 -8.94943
71 1 11.0071 4.71459 4.71514 -8.94801
72 1 12.5795 3.14393 3.14406 -8.94922
73 1 14.1541 4.7131 4.71469 -8.95012
74 1 15.725 3.14362 3.14397 -8.94955
75 1 17.2981 4.71591 4.71631 -8.94895
76 1 18.8694 3.14449 3.14455 -8.94948
77 1 20.4417 4.71685 4.71695 -8.9496
78 1 22.014 6.28958 3.14462 -8.94983
79 1 1.57203 7.86221 4.71692 -8.9498
80 1 3.1442 6.28956 3.14427 -8.95037
81 1 4.71584 7.86246 4.71617 -8.95201
82 1 6.28761 6.28784 3.14146 -8.95013
83 1 7.85734 7.85744 4.70877 -8.95441
84 1 9.4338 6.28774 3.14224 -8.94774
85 1 11.0066 7.85748 4.70881 -8.95052
86 1 12.5799 6.28745 3.14181 -8.94918
87 1 14.1648 7.84954 4.70293 -8.93102
88 1 15.7281 6.2858 3.14072 -8.94466
89 1 17.3005 7.8604 4.71512 -8.95149
90 1 18.8703 6.28899 3.1441 -8.94986
91 1 20.4423 7.86191 4.71689 -8.95016
92 1 7.52714e-05 9.43444 3.1445 -8.94953
93 1 3.14429 9.4345 3.14429 -8.94898
94 1 6.28956 9.43543 3.14462 -8.94958
95 1 9.43484 9.43471 3.14381 -8.95099
96 1 12.5817 9.43323 3.13602 -8.96075
97 1 15.7273 9.43359 3.14164 -8.94789
98 1 18.8703 9.4343 3.14409 -8.94919
513 1 4.71851 11.0072 11.0067 -8.94324
100 1 1.57207 1.57226 7.86202 -8.94955
189 1 20.4418 4.71667 11.0069 -8.94951
102 1 4.7164 1.57187 7.8618 -8.94939
103 1 6.2888 0.00106839 6.28877 -8.95063
104 1 7.86177 1.57178 7.86177 -8.9516
171 1 6.28022 9.42493 9.43165 -8.96618
106 1 11.007 1.5723 7.86172 -8.94995
170 1 3.14221 9.43486 9.4342 -8.95206
108 1 14.1524 1.57218 7.86186 -8.95038
109 1 15.725 0.000825597 6.2891 -8.94987
110 1 17.2971 1.57218 7.86199 -8.94953
188 1 17.2981 4.7156 11.0068 -8.94874
112 1 20.4416 1.57232 7.86205 -8.94957
113 1 -0.000182828 3.14457 6.28955 -8.94951
114 1 1.57144 4.71655 7.86181 -8.94928
115 1 3.14395 3.14406 6.28921 -8.9494
116 1 4.71455 4.71453 7.86096 -8.94815
117 1 6.28832 3.14229 6.28833 -8.95141
118 1 7.85976 4.71031 7.86083 -8.9584
119 1 9.43451 3.14266 6.28852 -8.95005
120 1 11.0063 4.71401 7.86125 -8.95124
121 1 12.5797 3.14262 6.28898 -8.95194
122 1 14.1534 4.71363 7.86142 -8.95065
123 1 15.7251 3.14364 6.28925 -8.94986
124 1 17.298 4.71578 7.86168 -8.94915
125 1 18.8695 3.14442 6.28951 -8.94953
126 1 20.4417 4.71675 7.86193 -8.94947
127 1 22.0135 6.28927 6.28928 -8.95021
128 1 1.57053 7.86178 7.86167 -8.95183
129 1 3.14149 6.28804 6.28789 -8.9504
130 1 4.70788 7.8585 7.85899 -8.9566
131 1 6.27879 6.2793 6.27928 -8.93157
132 1 7.825 7.82903 7.83133 -8.85794
133 1 9.43356 6.2821 6.28519 -8.94939
134 1 11.0215 7.85055 7.83752 -8.89796
135 1 12.5849 6.27872 6.28275 -8.95309
136 1 14.1665 7.85011 7.85291 -8.93313
137 1 15.729 6.28532 6.28657 -8.94618
138 1 17.302 7.85933 7.86025 -8.94943
139 1 18.8707 6.28862 6.28895 -8.94935
140 1 20.4424 7.86164 7.86177 -8.95059
141 1 22.014 9.43459 6.28935 -8.94974
142 1 3.14392 9.43536 6.28926 -8.94975
143 1 6.28811 9.43813 6.28973 -8.95446
144 1 9.4236 9.41559 6.28563 -8.91054
145 1 12.6215 9.39931 6.24634 -8.86832
146 1 15.7347 9.43248 6.28504 -8.95987
147 1 18.8715 9.43454 6.28924 -8.95155
148 1 -0.000106698 9.68113e-05 9.4345 -8.94959
169 1 22.0138 9.43455 9.43434 -8.95009
168 1 18.8706 6.28841 9.43422 -8.94901
151 1 9.43464 0.0018111 9.43443 -8.95076
152 1 12.5797 0.00144094 9.43445 -8.95117
167 1 15.7279 6.28527 9.43355 -8.94642
166 1 12.5801 6.28381 9.43228 -8.95418
155 1 22.0137 3.14452 9.43448 -8.94955
156 1 3.14385 3.14398 9.43443 -8.94946
157 1 6.2879 3.14192 9.43439 -8.94955
158 1 9.43445 3.1436 9.4344 -8.94727
159 1 12.5797 3.14317 9.43431 -8.95011
160 1 15.7252 3.14343 9.43437 -8.94957
161 1 18.8695 3.14432 9.43443 -8.94949
162 1 -0.000455272 6.28906 9.43436 -8.94973
163 1 3.14144 6.28778 9.43422 -8.94875
164 1 6.28112 6.28077 9.43429 -8.94396
165 1 9.4313 6.29061 9.43509 -9.00338
344 1 1.57221 11.0069 1.57221 -8.94961
183 1 1.57138 4.71647 11.0071 -8.94933
181 1 17.2972 1.57213 11.007 -8.94952
154 1 18.8694 0.000151351 9.4345 -8.94955
177 1 4.71634 1.57181 11.0071 -8.94938
9 1 12.5794 8.78657e-05 -0.00010199 -8.94959
184 1 4.71431 4.71422 11.0076 -8.9478
512 1 1.57175 11.007 11.007 -8.94788
41 1 18.8695 6.28937 5.60562e-05 -8.94956
19 1 6.28956 3.14457 -0.000147773 -8.94949
25 1 15.7244 3.14452 -0.000134168 -8.94966
176 1 1.57206 1.57226 11.007 -8.94957
199 1 3.14422 0.000257432 12.5796 -8.94943
178 1 7.86178 1.57146 11.0071 -8.95155
179 1 11.007 1.57183 11.007 -8.94917
180 1 14.1524 1.5719 11.007 -8.94986
644 1 20.4418 11.0069 20.4418 -8.94957
182 1 20.4416 1.57231 11.0069 -8.94959
642 1 14.1525 11.0069 20.4434 -8.95181
209 1 18.8694 0.000154148 12.5794 -8.94954
185 1 7.85966 4.70934 11.0082 -8.95865
186 1 11.0069 4.71362 11.0073 -8.95166
187 1 14.1534 4.71371 11.0064 -8.94944
641 1 11.0067 11.0069 20.4428 -8.94825
640 1 7.86162 11.0068 20.4438 -8.95116
190 1 1.57031 7.86152 11.0068 -8.95129
191 1 4.70765 7.8582 11.0083 -8.95595
192 1 7.82498 7.82555 11.0405 -8.8611
193 1 11.0303 7.84909 11.0335 -8.96647
194 1 14.1611 7.85253 11.0045 -8.95849
195 1 17.3013 7.85942 11.0058 -8.9477
196 1 20.4425 7.8614 11.0067 -8.94981
343 1 18.8701 9.43418 18.8701 -8.94931
198 1 1.57209 1.57227 14.1519 -8.94958
342 1 15.7264 9.4331 18.8731 -8.95052
200 1 4.71643 1.57178 14.1524 -8.94984
341 1 12.5792 9.4338 18.8732 -8.95235
202 1 7.86196 1.57167 14.1524 -8.95028
203 1 9.43477 0.000471719 12.5798 -8.94993
204 1 11.0071 1.57143 14.1525 -8.94933
205 1 12.5795 0.000152831 12.5796 -8.9501
206 1 14.1523 1.57124 14.1523 -8.95117
340 1 9.43466 9.43385 18.8723 -8.95026
208 1 17.2971 1.57213 14.1519 -8.94959
339 1 6.28781 9.43308 18.8729 -8.95058
210 1 20.4416 1.57232 14.1518 -8.94956
211 1 -0.000182484 3.14452 12.5795 -8.94951
212 1 1.57135 4.71649 14.1523 -8.94964
213 1 3.14384 3.14395 12.5797 -8.94934
214 1 4.71361 4.71353 14.1549 -8.94482
215 1 6.28811 3.14168 12.5805 -8.95129
216 1 7.86088 4.71247 14.1541 -8.95181
217 1 9.43474 3.14199 12.5803 -8.9502
218 1 11.0072 4.71337 14.1544 -8.94686
219 1 12.5798 3.1415 12.5798 -8.95286
220 1 14.1552 4.70996 14.1552 -8.95187
221 1 15.7251 3.14336 12.5793 -8.94957
222 1 17.2983 4.71543 14.1523 -8.94978
223 1 18.8695 3.14433 12.5794 -8.9494
224 1 20.4418 4.71675 14.1519 -8.94968
225 1 22.0135 6.28911 12.5795 -8.95003
226 1 1.57134 7.86171 14.1521 -8.94985
227 1 3.14117 6.28776 12.5806 -8.95069
228 1 4.71287 7.86037 14.1535 -8.95139
229 1 6.27746 6.27724 12.5897 -8.93035
230 1 7.84977 7.84597 14.1686 -8.9545
231 1 9.43426 6.27995 12.5849 -8.95204
232 1 11.0074 7.85602 14.1631 -8.94642
233 1 12.5876 6.27406 12.5878 -8.95386
234 1 14.1741 7.83727 14.174 -8.92146
235 1 15.729 6.28496 12.5798 -8.94983
236 1 17.3039 7.8582 14.1547 -8.95095
237 1 18.8708 6.2885 12.5793 -8.94952
238 1 20.443 7.86141 14.1521 -8.95034
239 1 22.014 9.43432 12.5793 -8.9505
240 1 3.1416 9.43439 12.5794 -8.95065
241 1 6.27951 9.43356 12.5807 -8.95514
242 1 9.39789 9.40541 12.6131 -8.86434
243 1 12.6501 9.38332 12.6465 -8.77701
244 1 15.7435 9.42734 12.5839 -8.9608
245 1 18.8738 9.43363 12.5793 -8.9529
246 1 -8.79493e-05 8.35317e-05 15.7243 -8.9496
247 1 1.57214 1.57229 17.2969 -8.94933
47 1 12.5794 9.43425 22.0131 -8.95183
249 1 4.71692 1.5722 17.2971 -8.94993
250 1 6.28936 0.000603281 15.7248 -8.95037
251 1 7.86205 1.5721 17.2971 -8.94948
252 1 9.43465 0.000101995 15.7248 -8.94938
253 1 11.007 1.57204 17.2972 -8.94962
254 1 12.5794 3.80575e-06 15.7247 -8.94931
255 1 14.1519 1.57202 17.2971 -8.94949
256 1 15.7247 0.000334138 15.7247 -8.95056
257 1 17.2971 1.57198 17.2971 -8.94969
46 1 9.43434 9.43438 22.0142 -8.94956
259 1 20.4416 1.57231 17.2967 -8.94962
260 1 22.0137 3.14456 15.7244 -8.94956
261 1 1.57208 4.71691 17.297 -8.94987
262 1 3.14384 3.14393 15.7251 -8.94843
263 1 4.71571 4.71535 17.2985 -8.94905
264 1 6.28902 3.14327 15.7253 -8.95047
265 1 7.8618 4.71581 17.298 -8.94903
266 1 9.43444 3.14337 15.7253 -8.94929
267 1 11.0069 4.71553 17.2983 -8.94918
268 1 12.5795 3.1432 15.7253 -8.94907
269 1 14.1522 4.71552 17.2982 -8.94959
270 1 15.7255 3.14249 15.7255 -8.95003
271 1 17.2986 4.71489 17.2986 -8.94742
272 1 18.8696 3.1443 15.7244 -8.94971
273 1 20.442 4.71677 17.297 -8.9496
274 1 22.014 6.28927 15.7245 -8.94983
275 1 1.57151 7.8615 17.2974 -8.9498
276 1 3.14335 6.2888 15.7251 -8.9504
277 1 4.71361 7.85895 17.3004 -8.94484
278 1 6.28489 6.28355 15.7303 -8.94922
279 1 7.86097 7.85987 17.3015 -8.95277
280 1 9.43413 6.28589 15.7284 -8.94713
281 1 11.0066 7.85906 17.3021 -8.94724
282 1 12.5799 6.28541 15.729 -8.94863
283 1 14.154 7.85881 17.3031 -8.95289
284 1 15.7313 6.28132 15.7312 -8.94172
285 1 17.3007 7.85874 17.3007 -8.94523
286 1 18.8713 6.28815 15.7254 -8.94977
287 1 20.4425 7.8615 17.2974 -8.94985
288 1 7.48616e-06 9.43422 15.7248 -8.95043
289 1 3.14133 9.43332 15.726 -8.95092
290 1 6.27755 9.42423 15.7369 -8.93058
291 1 9.43497 9.43138 15.7347 -8.95239
292 1 12.5812 9.43061 15.7407 -8.96284
293 1 15.7376 9.42416 15.7379 -8.93195
294 1 18.8728 9.43343 15.726 -8.951
45 1 6.28923 9.43441 22.0145 -8.94988
296 1 1.57227 1.57234 20.4416 -8.94943
297 1 3.14457 0.000222562 18.8694 -8.94955
298 1 4.7172 1.57233 20.4415 -8.94966
299 1 6.28967 9.72009e-05 18.8693 -8.94968
300 1 7.86205 1.5723 20.4416 -8.94956
338 1 3.14383 9.43412 18.8701 -8.9493
302 1 11.007 1.57229 20.4416 -8.9496
337 1 22.0139 9.43438 18.8695 -8.94947
304 1 14.1518 1.5723 20.4416 -8.94955
305 1 15.7242 5.6802e-05 18.8692 -8.94969
306 1 17.2967 1.5723 20.4416 -8.94973
307 1 18.8693 0.000149131 18.8693 -8.94942
308 1 20.4416 1.57234 20.4416 -8.94934
309 1 22.0139 3.14468 18.8692 -8.94965
310 1 1.57223 4.71704 20.4417 -8.94937
311 1 3.14439 3.14436 18.8696 -8.94936
312 1 4.71691 4.71682 20.4418 -8.94996
313 1 6.28954 3.14439 18.8695 -8.94954
314 1 7.8619 4.7167 20.4418 -8.94937
315 1 9.43443 3.14428 18.8696 -8.94949
316 1 11.0069 4.71661 20.4418 -8.94955
317 1 12.5794 3.14427 18.8696 -8.94945
318 1 14.1519 4.71667 20.4418 -8.94947
319 1 15.7244 3.14431 18.8695 -8.94971
320 1 17.2971 4.71663 20.4418 -8.94966
321 1 18.8696 3.14429 18.8695 -8.94902
322 1 20.4417 4.717 20.4417 -8.94936
323 1 22.0139 6.28935 18.8695 -8.94954
324 1 1.57217 7.86194 20.4418 -8.94956
325 1 3.1439 6.28883 18.8701 -8.94845
326 1 4.7165 7.86153 20.4426 -8.9496
327 1 6.28899 6.28861 18.8707 -8.95066
328 1 7.86186 7.8616 20.4425 -8.95027
329 1 9.43417 6.28835 18.8707 -8.94902
330 1 11.0067 7.86116 20.4426 -8.95
331 1 12.5795 6.28835 18.8709 -8.9491
332 1 14.1522 7.86134 20.4425 -8.9508
333 1 15.7253 6.28818 18.871 -8.95036
334 1 17.2976 7.86143 20.4425 -8.94955
335 1 18.8701 6.28873 18.8701 -8.94854
336 1 20.4418 7.86195 20.4417 -8.94959
29 1 22.0139 6.2896 22.0139 -8.94959
638 1 1.57214 11.0069 20.4418 -8.94957
514 1 7.8779 10.989 10.9867 -8.83988
515 1 11.0998 10.7141 11.1091 -7.31285
27 1 18.8694 3.14453 22.0138 -8.94928
39 1 15.7249 6.28883 22.0133 -8.95011
593 1 14.1562 11.0057 17.3078 -8.95634
540 1 1.57053 11.0069 14.1524 -8.95119
541 1 4.70852 11.0058 14.1556 -8.95639
542 1 7.82755 10.9749 14.1912 -8.85372
543 1 11.0057 11.0102 14.1509 -8.96689
544 1 14.19 10.9783 14.1937 -8.86033
545 1 17.3062 11.0065 14.1554 -8.95688
546 1 20.4433 11.007 14.1522 -8.95133
33 1 6.28931 6.28928 22.0136 -8.95041
31 1 3.14455 6.28952 22.0141 -8.94965
591 1 7.85848 11.005 17.3068 -8.95676
592 1 11.0067 11.0075 17.2999 -8.94454
5 1 6.28962 7.41816e-05 22.0138 -8.94955
15 1 22.0139 3.14474 22.0139 -8.94948
17 1 3.14459 3.14458 22.0137 -8.94955
23 1 12.5794 3.14449 22.0138 -8.94953
13 1 18.8692 6.76076e-05 22.0138 -8.94952
21 1 9.43446 3.14449 22.0138 -8.94956
43 1 22.0139 9.43448 22.0139 -8.9496
49 1 18.8696 9.43441 22.0139 -8.94948
688 3 10.1586 11.0367 9.38532 2.38788
511 1 18.87 18.8698 9.43442 -8.94923
510 1 15.7265 18.8718 9.43414 -8.94907
509 1 12.5813 18.8774 9.43192 -8.95857
508 1 9.43321 18.8791 9.43193 -8.95804
349 1 17.2978 11.0069 1.57163 -8.94944
507 1 6.28597 18.8748 9.43388 -8.94874
539 1 20.4417 20.4418 11.007 -8.94956
352 1 1.57223 14.1518 1.57224 -8.94948
353 1 3.14443 12.5794 9.74153e-05 -8.94953
354 1 4.7168 14.1516 1.57213 -8.94964
153 1 15.7249 22.0144 9.43453 -8.94958
356 1 7.86167 14.1518 1.57088 -8.95237
150 1 6.28877 22.0148 9.43449 -8.95004
358 1 11.0065 14.1524 1.56995 -8.95024
345 1 4.71666 11.0068 1.57205 -8.94962
360 1 14.1532 14.153 1.56944 -8.95155
361 1 15.7252 12.5797 -0.000184542 -8.94959
362 1 17.2977 14.1523 1.57163 -8.94929
107 1 12.5798 22.0148 6.28893 -8.94993
364 1 20.4418 14.1519 1.57221 -8.94951
365 1 22.0139 15.7243 2.65307e-05 -8.94957
366 1 1.5722 17.2968 1.57223 -8.94977
105 1 9.43447 22.0149 6.28873 -8.94973
368 1 4.71638 17.2973 1.57139 -8.94966
529 1 11.0073 17.2979 11.0022 -9.0131
370 1 7.86171 17.2974 1.57098 -8.94971
371 1 9.43438 15.7249 -0.000606069 -8.9498
372 1 11.0069 17.2976 1.57091 -8.94971
373 1 12.5794 15.7248 -0.000689242 -8.94983
374 1 14.1523 17.2976 1.57101 -8.95029
526 1 1.57069 17.2977 11.007 -8.9493
376 1 17.2977 17.2976 1.57166 -8.94845
525 1 20.4417 14.1519 11.0068 -8.94942
378 1 20.4418 17.2969 1.57225 -8.94952
111 1 18.8694 22.0141 6.28955 -8.94967
380 1 1.57213 20.4417 1.57222 -8.94933
495 1 12.547 12.572 9.45149 -8.83015
382 1 4.71696 20.4419 1.57194 -8.94965
383 1 6.28951 18.8695 -0.00025125 -8.94972
384 1 7.86197 20.4419 1.57192 -8.94944
494 1 9.36147 12.8465 9.46135 -7.9582
386 1 11.007 20.4419 1.57191 -8.94952
493 1 6.28546 12.5881 9.43782 -8.97081
388 1 14.152 20.4419 1.57196 -8.94943
389 1 15.7244 18.8695 -0.000255477 -8.94988
390 1 17.2971 20.4419 1.57195 -8.94946
391 1 18.8694 18.8694 3.49615e-05 -8.94928
392 1 20.4415 20.4416 1.57236 -8.94965
506 1 3.14305 18.8705 9.43431 -8.94905
394 1 4.71598 11.0068 4.71581 -8.9462
505 1 22.0136 18.8696 9.43441 -8.94949
504 1 18.8711 15.7247 9.43449 -8.95229
503 1 15.7341 15.7294 9.43078 -8.9561
398 1 17.3006 11.0069 4.71506 -8.94847
399 1 20.4424 11.0069 4.7167 -8.94981
400 1 6.47021e-05 12.5794 3.14449 -8.94956
401 1 1.57187 14.1517 4.71678 -8.94968
402 1 3.1442 12.5793 3.1442 -8.94912
403 1 4.7154 14.1512 4.71582 -8.95106
404 1 6.28916 12.5783 3.14426 -8.94918
405 1 7.85713 14.1555 4.70784 -8.9552
406 1 9.43472 12.5789 3.14432 -8.94848
407 1 11.0069 14.1549 4.70809 -8.95202
408 1 12.5819 12.5804 3.13734 -8.95793
409 1 14.164 14.1621 4.70468 -8.92965
410 1 15.7275 12.5804 3.14157 -8.94769
411 1 17.3006 14.1534 4.7152 -8.9501
412 1 18.8703 12.5796 3.14406 -8.94933
413 1 20.4423 14.152 4.7168 -8.95004
414 1 22.014 15.7243 3.14457 -8.94973
415 1 1.57129 17.2972 4.71653 -8.9497
416 1 3.14409 15.7243 3.14416 -8.95016
417 1 4.71344 17.2998 4.71339 -8.9453
418 1 6.28743 15.7258 3.14098 -8.95037
419 1 7.85987 17.3004 4.71194 -8.95076
420 1 9.43389 15.726 3.1406 -8.94983
421 1 11.0073 17.3007 4.712 -8.94739
422 1 12.5801 15.7261 3.14034 -8.95159
423 1 14.1557 17.3019 4.71165 -8.95141
424 1 15.7278 15.7274 3.14123 -8.94461
425 1 17.2978 17.2973 4.7166 -8.95089
426 1 18.8703 15.7248 3.14413 -8.94947
427 1 20.4416 17.2968 4.71706 -8.94981
428 1 22.0137 18.8693 3.14461 -8.94962
429 1 1.5719 20.4419 4.71689 -8.94951
430 1 3.14379 18.8699 3.14383 -8.94856
431 1 4.71575 20.4431 4.71572 -8.9484
432 1 6.28878 18.8704 3.14307 -8.94982
433 1 7.86166 20.443 4.71592 -8.94924
434 1 9.43429 18.8705 3.1431 -8.9491
435 1 11.0072 20.443 4.71587 -8.94943
436 1 12.5798 18.8705 3.14319 -8.9489
437 1 14.1525 20.443 4.71614 -8.95011
438 1 15.7256 18.8708 3.14308 -8.94952
439 1 17.2977 20.4425 4.71636 -8.94822
440 1 18.8694 18.8693 3.1446 -8.95
441 1 20.4417 20.4418 4.71701 -8.94951
502 1 12.617 15.7621 9.38783 -8.82822
501 1 9.39082 15.7662 9.39077 -8.90435
500 1 6.27087 15.7383 9.42964 -8.94893
499 1 3.13956 15.726 9.43422 -8.95155
498 1 -0.000782467 15.7246 9.4344 -8.9505
497 1 18.8696 12.5799 9.43437 -8.94631
496 1 15.7193 12.5793 9.43681 -8.93546
449 1 22.0139 12.5793 6.28927 -8.94992
450 1 1.57025 14.1518 7.86165 -8.95144
451 1 3.1434 12.5785 6.28891 -8.94963
452 1 4.7075 14.1539 7.85964 -8.9577
453 1 6.28676 12.576 6.28919 -8.94925
454 1 7.82138 14.1859 7.82754 -8.85264
455 1 9.42425 12.6 6.29134 -8.90256
456 1 11.0219 14.1676 7.83425 -8.93434
457 1 12.6193 12.6133 6.25529 -8.84456
458 1 14.1559 14.1488 7.86203 -8.95137
459 1 15.7353 12.5818 6.285 -8.95447
460 1 17.2985 14.1515 7.86258 -8.94923
461 1 18.8717 12.5796 6.28902 -8.9516
462 1 20.4418 14.1519 7.86192 -8.94968
463 1 22.0133 15.7244 6.2893 -8.95001
464 1 1.57072 17.2975 7.86159 -8.95016
465 1 3.14111 15.7254 6.28784 -8.95074
466 1 4.71069 17.3013 7.85888 -8.94854
467 1 6.27704 15.735 6.27717 -8.93165
468 1 7.84702 17.3168 7.84768 -8.93643
469 1 9.43196 15.734 6.27662 -8.96086
470 1 11.0068 17.3081 7.85229 -8.94356
471 1 12.5872 15.7367 6.27416 -8.96457
472 1 14.165 17.31 7.84964 -8.92587
473 1 15.7271 15.7249 6.2885 -8.95286
474 1 17.3008 17.2989 7.8603 -8.95051
475 1 18.87 15.7243 6.28956 -8.94965
476 1 20.442 17.2971 7.86181 -8.95047
477 1 -0.000256359 18.8695 6.28938 -8.94983
478 1 1.57191 20.4419 7.86197 -8.94948
479 1 3.14283 18.8705 6.2885 -8.94927
480 1 4.71583 20.4431 7.86156 -8.94945
481 1 6.2847 18.8755 6.28468 -8.94545
482 1 7.86061 20.4462 7.86058 -8.95298
483 1 9.4338 18.8741 6.28597 -8.94801
484 1 11.0072 20.4454 7.86037 -8.9492
485 1 12.5808 18.8738 6.28652 -8.95011
486 1 14.1535 20.4449 7.86084 -8.95146
487 1 15.7282 18.873 6.28624 -8.94382
488 1 17.2975 20.4423 7.86186 -8.9497
489 1 18.8703 18.8699 6.28898 -8.94953
490 1 20.4417 20.4418 7.86202 -8.94953
491 1 22.0135 12.5793 9.43427 -8.9492
492 1 3.14259 12.5788 9.43427 -8.94953
519 1 1.56988 14.1518 11.007 -8.95157
520 1 4.7061 14.1547 11.01 -8.96035
522 1 11.0171 14.431 10.9352 -8.01382
523 1 14.1522 14.166 10.994 -8.92437
524 1 17.2975 14.1514 11.0071 -8.9497
393 1 1.57189 11.0069 4.71658 -8.94947
54 1 6.28947 22.0141 3.14431 -8.94955
60 1 15.7246 22.0141 3.14439 -8.94988
99 1 22.0138 22.014 6.28961 -8.94959
101 1 3.14426 22.0141 6.2894 -8.94954
527 1 4.71182 17.3013 11.0076 -8.9461
534 1 4.71588 20.4432 11.0072 -8.94921
687 3 10.9838 12.6092 11.7354 2.29716
686 1 20.4416 20.4417 20.4417 -8.94927
685 1 18.8698 18.8699 18.8698 -8.94862
684 1 17.2968 20.4417 20.4416 -8.94982
683 1 15.7244 18.8697 18.8697 -8.9503
682 1 14.1519 20.4417 20.4416 -8.94945
681 1 12.5794 18.8698 18.8697 -8.94903
303 1 12.5794 22.014 18.8693 -8.94957
301 1 9.43451 22.014 18.8694 -8.94958
521 1 7.81318 14.2116 11.0343 -8.80318
387 1 12.5795 18.8696 22.0136 -8.94951
207 1 15.7249 22.0143 12.5796 -8.94945
201 1 6.28892 22.0147 12.5799 -8.95041
385 1 9.43446 18.8696 22.0136 -8.94955
197 1 22.0138 22.014 12.5794 -8.9496
590 1 4.71402 11.006 17.3 -8.94776
528 1 7.85511 17.313 11.0088 -8.95844
661 1 3.14391 15.7246 18.87 -8.94934
530 1 14.1563 17.3033 11.0065 -8.94923
531 1 17.2993 17.2985 11.0069 -8.9477
660 1 1.5722 17.2968 20.4417 -8.94963
533 1 1.5719 20.442 11.007 -8.94952
589 1 1.57146 11.0068 17.2975 -8.94938
535 1 7.86118 20.4454 11.0075 -8.95204
536 1 11.0073 20.4432 11.0072 -8.94748
537 1 14.1529 20.4436 11.0073 -8.94987
538 1 17.2975 20.4423 11.007 -8.94943
659 1 22.0139 15.7244 18.8695 -8.94944
680 1 11.007 20.4418 20.4416 -8.9496
679 1 9.4346 18.8698 18.8697 -8.94908
678 1 7.86207 20.4418 20.4416 -8.94947
677 1 6.28952 18.8698 18.8699 -8.95025
676 1 4.71713 20.4418 20.4416 -8.94979
675 1 3.14391 18.8701 18.8701 -8.94841
674 1 1.57221 20.4418 20.4417 -8.94926
547 1 22.0137 12.5794 12.5794 -8.9489
548 1 1.5706 14.1518 14.1522 -8.95112
549 1 3.1428 12.5786 12.5797 -8.94635
550 1 4.70886 14.1524 14.155 -8.95947
551 1 6.29101 12.5761 12.5851 -8.99893
552 1 7.82497 14.1849 14.1957 -8.87067
553 1 9.20992 12.583 12.658 -8.12453
554 1 11.0065 14.1409 14.1301 -8.91192
555 1 12.775 12.5572 12.6467 -8.17797
556 1 14.1813 14.1755 14.184 -8.87772
557 1 15.7247 12.5786 12.5842 -8.99368
558 1 17.3036 14.1532 14.1543 -8.95682
559 1 18.8708 12.5797 12.5795 -8.94756
560 1 20.4428 14.1521 14.1521 -8.951
561 1 22.0131 15.7247 12.5794 -8.95058
562 1 1.57068 17.2977 14.1525 -8.94967
563 1 3.13911 15.7265 12.5808 -8.95164
564 1 4.71114 17.3019 14.1562 -8.94354
565 1 6.26948 15.7405 12.5925 -8.92917
566 1 7.85578 17.3082 14.1596 -8.95079
567 1 9.40984 15.7382 12.6004 -8.89148
568 1 11.0078 17.2958 14.1513 -8.94363
569 1 12.6074 15.735 12.6002 -8.87963
570 1 14.1588 17.3062 14.1586 -8.94853
571 1 15.7312 15.7267 12.5794 -8.95526
572 1 17.2992 17.2984 14.1525 -8.95033
573 1 18.871 15.7249 12.5791 -8.95069
574 1 20.4419 17.2972 14.1519 -8.94984
575 1 -0.000282802 18.8696 12.5795 -8.9495
576 1 1.57195 20.4419 14.152 -8.94952
577 1 3.14312 18.8706 12.5799 -8.94914
578 1 4.71604 20.4432 14.1527 -8.94945
579 1 6.28643 18.8747 12.5814 -8.94948
580 1 7.86191 20.4439 14.1527 -8.95207
581 1 9.43497 18.8728 12.5802 -8.95154
582 1 11.0073 20.442 14.1525 -8.94826
583 1 12.5801 18.8714 12.5796 -8.95248
584 1 14.1523 20.4433 14.1524 -8.95231
585 1 15.726 18.8712 12.5798 -8.94788
586 1 17.2973 20.4422 14.152 -8.9493
587 1 18.8699 18.8698 12.5795 -8.9493
588 1 20.4416 20.4418 14.1519 -8.9495
673 1 22.0139 18.8694 18.8694 -8.9496
672 1 20.4417 17.2968 20.4417 -8.94956
671 1 18.87 15.7248 18.8699 -8.94925
670 1 17.2974 17.2974 20.4422 -8.94954
669 1 15.7258 15.7259 18.872 -8.95043
668 1 14.1518 17.2972 20.4418 -8.94981
667 1 12.5788 15.7249 18.8703 -8.94997
596 1 -7.64384e-05 12.5795 15.7249 -8.9501
597 1 1.57148 14.1521 17.2975 -8.94929
598 1 3.14127 12.5794 15.7264 -8.94903
599 1 4.71419 14.1527 17.2998 -8.94775
600 1 6.2803 12.579 15.7342 -8.94225
601 1 7.85856 14.1545 17.3073 -8.95823
602 1 9.42664 12.5803 15.735 -8.97008
603 1 11.007 14.1517 17.2955 -8.9395
604 1 12.5865 12.5794 15.7344 -8.96804
605 1 14.1551 14.1543 17.3051 -8.9559
606 1 15.7338 12.5806 15.734 -8.94161
607 1 17.2996 14.1533 17.2995 -8.94772
608 1 18.8725 12.5798 15.7262 -8.94927
609 1 20.4423 14.1522 17.2974 -8.94935
610 1 22.0138 15.7246 15.7246 -8.95039
611 1 1.57154 17.2973 17.2974 -8.95006
612 1 3.14156 15.7254 15.7259 -8.95177
613 1 4.71368 17.3003 17.3008 -8.94515
614 1 6.27756 15.7361 15.7383 -8.93285
615 1 7.86237 17.2982 17.299 -8.95161
616 1 9.43763 15.7253 15.7287 -8.95431
617 1 11.0072 17.2984 17.2984 -8.94687
618 1 12.5772 15.7242 15.7276 -8.9564
619 1 14.1518 17.2979 17.2984 -8.95196
620 1 15.7336 15.7333 15.7337 -8.93506
621 1 17.2994 17.2995 17.2994 -8.94589
622 1 18.8717 15.7255 15.7255 -8.95086
623 1 20.4422 17.2973 17.2972 -8.94984
624 1 22.0136 18.8695 15.7245 -8.94956
625 1 1.57201 20.4419 17.297 -8.94933
626 1 3.14316 18.8706 15.7255 -8.94826
627 1 4.71648 20.4427 17.2976 -8.94946
628 1 6.28741 18.8733 15.7272 -8.94959
629 1 7.86232 20.442 17.2971 -8.94963
630 1 9.43549 18.8701 15.7251 -8.94889
631 1 11.007 20.4421 17.2972 -8.94967
632 1 12.579 18.8698 15.7249 -8.94876
633 1 14.1517 20.4419 17.297 -8.94962
634 1 15.7265 18.8727 15.7267 -8.94898
635 1 17.2974 20.4425 17.2974 -8.94928
636 1 18.8698 18.8698 15.7246 -8.94989
637 1 20.4416 20.4418 17.2968 -8.94966
666 1 11.007 17.2974 20.4419 -8.94955
639 1 4.71641 11.0068 20.4425 -8.94937
665 1 9.43519 15.725 18.8706 -8.94989
664 1 7.86211 17.2972 20.4419 -8.94973
663 1 6.28792 15.726 18.8729 -8.95116
643 1 17.2976 11.0069 20.4424 -8.94929
662 1 4.71649 17.2974 20.4424 -8.94987
645 1 22.0139 12.5794 18.8695 -8.94953
646 1 1.57215 14.1519 20.4418 -8.94955
647 1 3.14381 12.5794 18.8701 -8.94947
648 1 4.71647 14.152 20.4425 -8.94928
649 1 6.28767 12.5794 18.8728 -8.94889
650 1 7.86169 14.1522 20.4435 -8.95194
651 1 9.43458 12.5798 18.8725 -8.95078
652 1 11.0068 14.1524 20.4417 -8.94809
653 1 12.5793 12.5799 18.8721 -8.95117
654 1 14.1523 14.1524 20.4429 -8.95163
655 1 15.7264 12.5799 18.8726 -8.94891
656 1 17.2975 14.1522 20.4423 -8.94921
657 1 18.8701 12.5795 18.8701 -8.94947
658 1 20.4418 14.1519 20.4418 -8.94957
351 1 22.0139 12.5794 22.0139 -8.9496
355 1 6.2891 12.5793 22.0145 -8.94968
357 1 9.4344 12.5793 22.0143 -8.94926
359 1 12.5794 12.5795 22.0131 -8.95113
363 1 18.8696 12.5794 22.0139 -8.94953
367 1 3.14451 15.7243 22.014 -8.9496
369 1 6.28913 15.7247 22.0139 -8.95082
375 1 15.725 15.725 22.0136 -8.95017
377 1 18.8695 15.7245 22.0139 -8.9495
381 1 3.14444 18.8694 22.0139 -8.94948
248 1 3.14432 22.0141 15.7246 -8.94947
258 1 18.8693 22.014 15.7243 -8.94961
295 1 22.0138 22.014 18.8692 -8.94951
595 1 20.4424 11.0068 17.2975 -8.94939
594 1 17.3 11.0064 17.3 -8.94786
532 1 20.442 17.2973 11.0069 -8.9496
379 1 22.0139 18.8692 22.0139 -8.94962
