ITEM: TIMESTEP
74
ITEM: NUMBER OF ATOMS
688
ITEM: BOX BOUNDS pp pp pp
0.0000000000000000e+00 2.2013900999999997e+01
0.0000000000000000e+00 2.2013900999999997e+01
0.0000000000000000e+00 2.2013900999999997e+01
ITEM: ATOMS id type x y z c_pot
1 1 22.0138 4.60646e-05 9.35705e-06 -8.94933
2 1 1.57217 1.57232 1.57217 -8.94921
3 1 3.14471 8.90122e-05 -8.30761e-05 -8.94966
4 1 4.71708 1.57228 1.57211 -8.94967
448 1 20.4424 11.0071 7.86196 -8.94946
6 1 7.86201 1.57226 1.57208 -8.94953
175 1 18.8719 9.43399 9.43412 -8.9509
8 1 11.007 1.57223 1.57206 -8.94956
174 1 15.7342 9.4281 9.4282 -8.94484
10 1 14.1519 1.57222 1.57211 -8.94953
11 1 15.7243 7.34854e-05 -9.79112e-05 -8.94956
12 1 17.2969 1.57217 1.57211 -8.94955
7 1 9.4345 0.000100819 -0.000119771 -8.94959
14 1 20.4415 1.57234 1.57231 -8.94946
447 1 17.3002 11.008 7.86231 -8.95157
16 1 1.57221 4.71712 1.57224 -8.94979
446 1 14.1636 11.0112 7.8522 -8.9769
18 1 4.71649 4.71655 1.57137 -8.94951
445 1 11.1031 11.0054 7.64217 -8.12201
20 1 7.86178 4.71652 1.57156 -8.94911
56 1 9.43449 0.000271472 3.14419 -8.94952
22 1 11.0069 4.71637 1.57154 -8.94938
444 1 7.88679 11.0129 7.8759 -8.87201
24 1 14.1521 4.7163 1.57151 -8.94967
443 1 4.72031 11.0077 7.86322 -8.94062
26 1 17.2977 4.71614 1.57141 -8.94828
442 1 1.57214 11.0069 7.86164 -8.94759
28 1 20.4418 4.717 1.57222 -8.94958
397 1 14.1617 11.0077 4.70721 -8.94257
30 1 1.57226 7.86205 1.57226 -8.94944
396 1 11.012 11.0075 4.72051 -9.00157
32 1 4.71692 7.86224 1.57227 -8.94985
395 1 7.86526 11.0076 4.72117 -8.94622
34 1 7.86171 7.86184 1.57096 -8.95211
35 1 9.43418 6.28888 -0.000360857 -8.94949
36 1 11.0064 7.86104 1.5702 -8.95042
37 1 12.5794 6.28887 -0.000412077 -8.94956
38 1 14.1533 7.86054 1.56904 -8.95196
518 1 20.4426 11.0072 11.0067 -8.94967
40 1 17.2978 7.86156 1.57161 -8.94946
350 1 20.4419 11.0069 1.57218 -8.94955
42 1 20.4418 7.86197 1.5722 -8.94947
58 1 12.5796 0.000257658 3.14422 -8.94948
44 1 3.14442 9.43441 0.000124921 -8.94947
348 1 14.1537 11.007 1.56934 -8.94965
347 1 11.0067 11.007 1.57177 -8.9466
346 1 7.86186 11.0069 1.57293 -8.94837
48 1 15.7252 9.43412 -0.000169965 -8.94983
149 1 3.14415 0.000271084 9.43447 -8.94945
50 1 -9.15489e-05 9.66903e-05 3.14469 -8.94952
51 1 1.57209 1.57228 4.71705 -8.94962
52 1 3.14429 0.000234187 3.14428 -8.9492
53 1 4.71645 1.57197 4.71643 -8.94987
517 1 17.301 11.007 11.0066 -8.95373
55 1 7.8619 1.572 4.71648 -8.94942
173 1 12.5985 9.40853 9.38766 -8.83447
57 1 11.0071 1.57194 4.71642 -8.94948
172 1 9.36967 9.19845 9.44046 -8.12635
59 1 14.1522 1.57186 4.71666 -8.9503
516 1 14.1687 10.9799 10.9964 -8.93506
61 1 17.2971 1.57229 4.71692 -8.94959
62 1 18.8694 0.000164463 3.14457 -8.94931
63 1 20.4416 1.57234 4.71715 -8.94962
64 1 22.0137 3.14459 3.14459 -8.94949
65 1 1.57141 4.71659 4.71654 -8.94957
66 1 3.14394 3.14413 3.14393 -8.94843
67 1 4.71403 4.71427 4.71403 -8.94512
68 1 6.28928 3.14409 3.144 -8.94962
69 1 7.86117 4.71473 4.71519 -8.94894
70 1 9.43441 3.14398 3.14397 -8.94942
71 1 11.0071 4.7145 4.71506 -8.94799
72 1 12.5795 3.14388 3.14401 -8.94921
73 1 14.1542 4.71296 4.71457 -8.9501
74 1 15.7251 3.14355 3.14391 -8.94954
75 1 17.2982 4.71583 4.71624 -8.94894
76 1 18.8695 3.14446 3.14452 -8.94947
77 1 20.4418 4.71681 4.71692 -8.9496
78 1 22.014 6.28957 3.1446 -8.94984
79 1 1.57203 7.86222 4.71691 -8.94982
80 1 3.14417 6.28955 3.14424 -8.9504
81 1 4.71581 7.86246 4.71616 -8.95206
82 1 6.28755 6.28779 3.14139 -8.95014
83 1 7.85729 7.85737 4.70872 -8.95443
84 1 9.43377 6.28767 3.14217 -8.94772
85 1 11.0067 7.85739 4.70866 -8.95055
86 1 12.5799 6.28736 3.14169 -8.94918
87 1 14.165 7.84939 4.70272 -8.93102
88 1 15.7282 6.28568 3.14059 -8.94463
89 1 17.3007 7.86034 4.71503 -8.95151
90 1 18.8703 6.28894 3.14405 -8.94986
91 1 20.4423 7.8619 4.71686 -8.95017
92 1 9.05125e-05 9.43444 3.14448 -8.94953
93 1 3.14428 9.43451 3.14428 -8.94896
94 1 6.28958 9.43545 3.14467 -8.94958
95 1 9.43488 9.43472 3.14388 -8.95101
96 1 12.5818 9.43321 3.13592 -8.96082
97 1 15.7274 9.43355 3.14152 -8.94787
98 1 18.8704 9.43428 3.14405 -8.94918
513 1 4.71867 11.0072 11.0067 -8.94323
100 1 1.57204 1.57225 7.862 -8.94954
189 1 20.4418 4.71662 11.0069 -8.94951
102 1 4.71635 1.57185 7.86177 -8.94938
103 1 6.28875 0.00112979 6.28872 -8.95065
104 1 7.86175 1.5718 7.86176 -8.95162
171 1 6.2804 9.42482 9.43168 -8.96616
106 1 11.007 1.57232 7.8617 -8.94996
170 1 3.14225 9.43486 9.43421 -8.95205
108 1 14.1524 1.57217 7.86185 -8.95039
109 1 15.7251 0.000864432 6.28906 -8.94988
110 1 17.2972 1.57217 7.86198 -8.94952
188 1 17.2982 4.71552 11.0067 -8.94872
112 1 20.4416 1.5723 7.86204 -8.94956
113 1 -0.000195366 3.14455 6.28953 -8.9495
114 1 1.57139 4.71651 7.86178 -8.94927
115 1 3.14389 3.14402 6.28917 -8.94938
116 1 4.71445 4.71444 7.86091 -8.94813
117 1 6.28827 3.14225 6.28829 -8.95144
118 1 7.85971 4.71027 7.86083 -8.95845
119 1 9.43449 3.14262 6.28848 -8.95007
120 1 11.0063 4.71398 7.86122 -8.9513
121 1 12.5797 3.14257 6.28895 -8.95197
122 1 14.1535 4.71353 7.86137 -8.95064
123 1 15.7251 3.14358 6.28922 -8.94987
124 1 17.2981 4.71571 7.86165 -8.94914
125 1 18.8695 3.14438 6.28949 -8.94952
126 1 20.4418 4.71671 7.86191 -8.94946
127 1 22.0135 6.28925 6.28926 -8.95023
128 1 1.5705 7.86178 7.86165 -8.95187
129 1 3.14141 6.28799 6.28783 -8.95042
130 1 4.7078 7.85845 7.85897 -8.95665
131 1 6.27866 6.27919 6.27918 -8.93151
132 1 7.82487 7.82886 7.83124 -8.85748
133 1 9.43351 6.28198 6.28508 -8.94933
134 1 11.0217 7.85032 7.8372 -8.89748
135 1 12.585 6.27854 6.28255 -8.95299
136 1 14.1667 7.84993 7.8527 -8.93305
137 1 15.7292 6.28518 6.28644 -8.94615
138 1 17.3022 7.85924 7.86018 -8.94944
139 1 18.8708 6.28857 6.2889 -8.94935
140 1 20.4425 7.86162 7.86176 -8.95062
141 1 22.014 9.43459 6.28934 -8.94974
142 1 3.14394 9.43538 6.28927 -8.94977
143 1 6.28819 9.43817 6.28981 -8.9545
144 1 9.42368 9.41548 6.28571 -8.91055
145 1 12.6217 9.39924 6.24611 -8.86855
146 1 15.7349 9.43243 6.2849 -8.95991
147 1 18.8716 9.43454 6.28921 -8.95157
148 1 -0.00012012 0.000107102 9.4345 -8.94959
169 1 22.0138 9.43456 9.43433 -8.95008
168 1 18.8707 6.28835 9.4342 -8.949
151 1 9.43464 0.00186839 9.43442 -8.95074
152 1 12.5797 0.00147554 9.43444 -8.95117
167 1 15.728 6.28514 9.43351 -8.94641
166 1 12.5802 6.28371 9.43223 -8.95414
155 1 22.0137 3.14449 9.43448 -8.94954
156 1 3.14378 3.14394 9.43442 -8.94945
157 1 6.28784 3.14186 9.43438 -8.94956
158 1 9.43444 3.14363 9.4344 -8.94723
159 1 12.5797 3.14314 9.4343 -8.95012
160 1 15.7252 3.14337 9.43436 -8.94957
161 1 18.8696 3.14428 9.43442 -8.94948
162 1 -0.000466703 6.28902 9.43434 -8.94973
163 1 3.14134 6.28771 9.4342 -8.94875
164 1 6.28099 6.28063 9.4343 -8.94392
165 1 9.43132 6.2907 9.43513 -9.00357
344 1 1.5722 11.0069 1.5722 -8.9496
183 1 1.57133 4.71642 11.0071 -8.94932
181 1 17.2972 1.5721 11.007 -8.94952
154 1 18.8694 0.000160209 9.43449 -8.94954
177 1 4.71628 1.57179 11.0071 -8.94937
9 1 12.5794 9.65017e-05 -0.000114964 -8.94958
184 1 4.7142 4.71412 11.0076 -8.94777
512 1 1.57177 11.007 11.007 -8.94783
41 1 18.8696 6.28933 5.90786e-05 -8.94955
19 1 6.28954 3.14455 -0.000156848 -8.94948
25 1 15.7244 3.14448 -0.000145299 -8.94965
176 1 1.57202 1.57224 11.007 -8.94956
199 1 3.14417 0.000279645 12.5796 -8.94942
178 1 7.86176 1.57146 11.0071 -8.95157
179 1 11.007 1.57182 11.007 -8.94915
180 1 14.1524 1.57187 11.007 -8.94986
644 1 20.4418 11.0069 20.4418 -8.94956
182 1 20.4416 1.57229 11.0069 -8.94959
642 1 14.1525 11.007 20.4434 -8.95183
209 1 18.8694 0.000161039 12.5794 -8.94954
185 1 7.8596 4.70926 11.0082 -8.95871
186 1 11.0069 4.71358 11.0073 -8.95176
187 1 14.1534 4.71361 11.0064 -8.94943
641 1 11.0067 11.0069 20.4428 -8.9482
640 1 7.86159 11.0068 20.4439 -8.95116
190 1 1.57027 7.8615 11.0068 -8.95131
191 1 4.70755 7.85812 11.0083 -8.95597
192 1 7.82482 7.82534 11.0407 -8.86078
193 1 11.0306 7.84877 11.0338 -8.96633
194 1 14.1613 7.85238 11.0045 -8.9586
195 1 17.3014 7.85934 11.0058 -8.94771
196 1 20.4426 7.86137 11.0067 -8.94981
343 1 18.8702 9.43415 18.8701 -8.94929
198 1 1.57205 1.57225 14.152 -8.94957
342 1 15.7264 9.43306 18.8732 -8.95053
200 1 4.71638 1.57175 14.1525 -8.94984
341 1 12.5792 9.43379 18.8733 -8.95238
202 1 7.86195 1.57163 14.1524 -8.95029
203 1 9.43479 0.000478018 12.5799 -8.94994
204 1 11.0071 1.57138 14.1526 -8.94932
205 1 12.5795 0.000134001 12.5796 -8.9501
206 1 14.1523 1.57118 14.1523 -8.9512
340 1 9.43466 9.43384 18.8724 -8.95028
208 1 17.2971 1.5721 14.1519 -8.94959
339 1 6.28774 9.43303 18.873 -8.95058
210 1 20.4416 1.57231 14.1519 -8.94955
211 1 -0.000195992 3.14449 12.5795 -8.9495
212 1 1.5713 4.71644 14.1524 -8.94964
213 1 3.14377 3.1439 12.5797 -8.94932
214 1 4.71348 4.71341 14.155 -8.94478
215 1 6.28805 3.14159 12.5806 -8.95131
216 1 7.86082 4.71233 14.1542 -8.95181
217 1 9.43473 3.14192 12.5803 -8.95022
218 1 11.0072 4.71325 14.1545 -8.94682
219 1 12.5798 3.14141 12.5799 -8.95289
220 1 14.1553 4.70977 14.1553 -8.95184
221 1 15.7252 3.14328 12.5793 -8.94957
222 1 17.2984 4.71532 14.1523 -8.94979
223 1 18.8696 3.14429 12.5794 -8.94939
224 1 20.4418 4.7167 14.1519 -8.94968
225 1 22.0135 6.28907 12.5795 -8.95004
226 1 1.57129 7.86169 14.1521 -8.94987
227 1 3.14105 6.28768 12.5806 -8.9507
228 1 4.71272 7.86029 14.1536 -8.95141
229 1 6.27727 6.27705 12.5898 -8.93028
230 1 7.84956 7.84575 14.1689 -8.95444
231 1 9.43423 6.27979 12.5851 -8.95202
232 1 11.0075 7.8559 14.1633 -8.94644
233 1 12.5878 6.27386 12.5881 -8.95372
234 1 14.1743 7.83709 14.1742 -8.92148
235 1 15.7292 6.28482 12.5799 -8.94987
236 1 17.3041 7.85808 14.1548 -8.95095
237 1 18.8709 6.28844 12.5793 -8.94953
238 1 20.4431 7.86138 14.1522 -8.95036
239 1 22.014 9.43431 12.5793 -8.95052
240 1 3.14156 9.43438 12.5794 -8.9507
241 1 6.27941 9.43349 12.5808 -8.95517
242 1 9.39768 9.40512 12.6134 -8.86419
243 1 12.6502 9.38328 12.6466 -8.77752
244 1 15.7437 9.4272 12.584 -8.96083
245 1 18.8739 9.4336 12.5794 -8.95294
246 1 -0.000100404 9.26225e-05 15.7243 -8.94959
247 1 1.57212 1.57228 17.2969 -8.94931
47 1 12.5794 9.43425 22.0131 -8.95186
249 1 4.71689 1.57218 17.2971 -8.94994
250 1 6.28934 0.000628421 15.7249 -8.9504
251 1 7.86205 1.57207 17.2971 -8.94947
252 1 9.43466 9.35684e-05 15.7248 -8.94937
253 1 11.007 1.57201 17.2972 -8.94961
254 1 12.5794 -1.65863e-05 15.7248 -8.9493
255 1 14.1519 1.57198 17.2971 -8.94948
256 1 15.7247 0.000331014 15.7248 -8.95059
257 1 17.2972 1.57195 17.2972 -8.94969
46 1 9.43434 9.43439 22.0142 -8.94955
259 1 20.4416 1.5723 17.2968 -8.94962
260 1 22.0137 3.14453 15.7244 -8.94956
261 1 1.57205 4.71687 17.297 -8.94987
262 1 3.14377 3.14388 15.7251 -8.94841
263 1 4.71562 4.71525 17.2986 -8.94904
264 1 6.28897 3.14318 15.7253 -8.95048
265 1 7.86176 4.71572 17.2981 -8.94902
266 1 9.43443 3.14329 15.7254 -8.94928
267 1 11.0069 4.71544 17.2984 -8.94917
268 1 12.5795 3.14311 15.7253 -8.94906
269 1 14.1522 4.71541 17.2983 -8.94958
270 1 15.7256 3.14238 15.7256 -8.95002
271 1 17.2987 4.71478 17.2987 -8.94739
272 1 18.8696 3.14425 15.7245 -8.94971
273 1 20.4421 4.71672 17.2971 -8.94959
274 1 22.014 6.28923 15.7246 -8.94984
275 1 1.57146 7.86147 17.2975 -8.94981
276 1 3.14326 6.28873 15.7252 -8.95041
277 1 4.71349 7.85886 17.3006 -8.94482
278 1 6.28474 6.28338 15.7305 -8.9492
279 1 7.86091 7.85979 17.3016 -8.95281
280 1 9.43411 6.28577 15.7285 -8.94712
281 1 11.0066 7.85899 17.3022 -8.94724
282 1 12.58 6.28528 15.7292 -8.94862
283 1 14.1541 7.85872 17.3033 -8.95291
284 1 15.7314 6.28112 15.7314 -8.94169
285 1 17.3008 7.85863 17.3008 -8.94521
286 1 18.8714 6.28806 15.7254 -8.94976
287 1 20.4425 7.86146 17.2975 -8.94986
288 1 1.18497e-05 9.4342 15.7248 -8.95044
289 1 3.14123 9.43329 15.7261 -8.95093
290 1 6.2774 9.42414 15.737 -8.9306
291 1 9.43492 9.43131 15.7348 -8.95243
292 1 12.5813 9.43056 15.7408 -8.9629
293 1 15.7378 9.42406 15.7381 -8.93199
294 1 18.873 9.4334 15.7261 -8.95101
45 1 6.28921 9.43441 22.0146 -8.94989
296 1 1.57226 1.57233 20.4416 -8.94941
297 1 3.14454 0.000239367 18.8694 -8.94954
298 1 4.71719 1.57232 20.4416 -8.94965
299 1 6.28966 0.000104434 18.8693 -8.94968
300 1 7.86204 1.57229 20.4416 -8.94956
338 1 3.14376 9.43409 18.8702 -8.94928
302 1 11.007 1.57227 20.4416 -8.94959
337 1 22.0139 9.43436 18.8695 -8.94946
304 1 14.1519 1.57228 20.4416 -8.94955
305 1 15.7243 5.55425e-05 18.8693 -8.9497
306 1 17.2967 1.57228 20.4416 -8.94972
307 1 18.8694 0.000155834 18.8694 -8.9494
308 1 20.4416 1.57233 20.4416 -8.94932
309 1 22.0139 3.14466 18.8692 -8.94964
310 1 1.57222 4.71701 20.4417 -8.94936
311 1 3.14435 3.14432 18.8696 -8.94935
312 1 4.71688 4.71678 20.4418 -8.94998
313 1 6.28952 3.14435 18.8695 -8.94954
314 1 7.86188 4.71666 20.4418 -8.94936
315 1 9.43443 3.14423 18.8696 -8.94948
316 1 11.0069 4.71656 20.4419 -8.94954
317 1 12.5794 3.14422 18.8696 -8.94944
318 1 14.1519 4.71662 20.4418 -8.94946
319 1 15.7244 3.14425 18.8696 -8.9497
320 1 17.2972 4.71658 20.4418 -8.94966
321 1 18.8696 3.14424 18.8696 -8.949
322 1 20.4417 4.71697 20.4417 -8.94934
323 1 22.0139 6.28932 18.8695 -8.94954
324 1 1.57215 7.86193 20.4418 -8.94955
325 1 3.14384 6.28878 18.8701 -8.94843
326 1 4.71645 7.8615 20.4426 -8.9496
327 1 6.28894 6.28855 18.8708 -8.95068
328 1 7.86184 7.86158 20.4425 -8.95028
329 1 9.43415 6.28829 18.8708 -8.94901
330 1 11.0067 7.86112 20.4427 -8.95001
331 1 12.5795 6.28828 18.871 -8.9491
332 1 14.1522 7.86131 20.4425 -8.95082
333 1 15.7254 6.2881 18.8711 -8.95038
334 1 17.2976 7.86138 20.4425 -8.94955
335 1 18.8702 6.28867 18.8702 -8.94851
336 1 20.4418 7.86192 20.4418 -8.94957
29 1 22.0139 6.28959 22.0139 -8.94958
638 1 1.57212 11.0069 20.4418 -8.94956
514 1 7.87819 10.989 10.9866 -8.83974
515 1 11.0992 10.7133 11.1082 -7.31372
27 1 18.8694 3.1445 22.0138 -8.94927
39 1 15.725 6.28877 22.0133 -8.95012
593 1 14.1563 11.0057 17.308 -8.95635
540 1 1.57049 11.0069 14.1524 -8.95119
541 1 4.70844 11.0058 14.1557 -8.9564
542 1 7.82748 10.9749 14.1913 -8.85405
543 1 11.0055 11.0101 14.1507 -8.96701
544 1 14.1901 10.9783 14.1938 -8.86066
545 1 17.3063 11.0064 14.1555 -8.95688
546 1 20.4434 11.007 14.1522 -8.95135
33 1 6.28928 6.28926 22.0136 -8.95043
31 1 3.14453 6.28951 22.0141 -8.94965
591 1 7.8584 11.005 17.307 -8.95676
592 1 11.0067 11.0075 17.2999 -8.94448
5 1 6.28961 8.30699e-05 22.0138 -8.94954
15 1 22.0139 3.14472 22.0139 -8.94946
17 1 3.14457 3.14456 22.0137 -8.94955
23 1 12.5794 3.14446 22.0138 -8.94952
13 1 18.8692 7.41381e-05 22.0138 -8.94951
21 1 9.43446 3.14446 22.0137 -8.94956
43 1 22.0139 9.43447 22.0139 -8.94959
49 1 18.8696 9.43439 22.0139 -8.94947
688 3 10.1574 11.0365 9.38502 2.38699
511 1 18.87 18.8699 9.43441 -8.94922
510 1 15.7266 18.8719 9.4341 -8.94905
509 1 12.5814 18.8775 9.43183 -8.9586
508 1 9.43315 18.8793 9.43183 -8.95804
349 1 17.2979 11.0069 1.57159 -8.94943
507 1 6.28581 18.875 9.43383 -8.94873
539 1 20.4417 20.4418 11.007 -8.94956
352 1 1.57221 14.1518 1.57223 -8.94947
353 1 3.1444 12.5794 0.000115812 -8.94953
354 1 4.71678 14.1516 1.57213 -8.94964
153 1 15.725 22.0145 9.43453 -8.94958
356 1 7.86166 14.1518 1.57087 -8.95241
150 1 6.28872 22.0148 9.43448 -8.95006
358 1 11.0065 14.1524 1.5699 -8.95024
345 1 4.71664 11.0068 1.57206 -8.94961
360 1 14.1533 14.153 1.56935 -8.95157
361 1 15.7253 12.5797 -0.000198259 -8.9496
362 1 17.2978 14.1523 1.57159 -8.94927
107 1 12.5798 22.0149 6.28889 -8.94994
364 1 20.4418 14.1519 1.57219 -8.94951
365 1 22.0139 15.7243 3.12091e-05 -8.94956
366 1 1.57218 17.2968 1.57221 -8.94977
105 1 9.43446 22.015 6.28868 -8.94973
368 1 4.71633 17.2974 1.57134 -8.94967
529 1 11.0073 17.298 11.0022 -9.01327
370 1 7.86168 17.2975 1.5709 -8.94971
371 1 9.43437 15.7249 -0.000637476 -8.9498
372 1 11.0069 17.2977 1.57083 -8.94971
373 1 12.5794 15.7249 -0.000738693 -8.94984
374 1 14.1523 17.2976 1.57092 -8.9503
526 1 1.5706 17.2978 11.007 -8.9493
376 1 17.2977 17.2976 1.57162 -8.94843
525 1 20.4417 14.1519 11.0068 -8.9494
378 1 20.4418 17.2969 1.57223 -8.94951
111 1 18.8694 22.0141 6.28953 -8.94966
380 1 1.5721 20.4417 1.5722 -8.94931
495 1 12.5466 12.572 9.45148 -8.83002
382 1 4.71692 20.4419 1.5719 -8.94965
383 1 6.28949 18.8695 -0.000271091 -8.94973
384 1 7.86196 20.4419 1.57187 -8.94943
494 1 9.36179 12.8476 9.46153 -7.9583
386 1 11.007 20.442 1.57186 -8.94951
493 1 6.28566 12.5883 9.43793 -8.97075
388 1 14.152 20.4419 1.57192 -8.94942
389 1 15.7245 18.8695 -0.000280046 -8.94988
390 1 17.2971 20.442 1.57192 -8.94946
391 1 18.8695 18.8694 3.14834e-05 -8.94926
392 1 20.4415 20.4416 1.57235 -8.94965
506 1 3.14293 18.8706 9.43429 -8.94903
394 1 4.716 11.0068 4.71583 -8.94616
505 1 22.0136 18.8696 9.4344 -8.94949
504 1 18.8711 15.7247 9.4345 -8.95233
503 1 15.7342 15.7294 9.43074 -8.95613
398 1 17.3007 11.007 4.71498 -8.94845
399 1 20.4424 11.0069 4.71667 -8.94982
400 1 7.81728e-05 12.5794 3.14446 -8.94956
401 1 1.57185 14.1516 4.71676 -8.94968
402 1 3.14418 12.5792 3.14419 -8.94911
403 1 4.71534 14.1512 4.71578 -8.95108
404 1 6.28917 12.5783 3.14429 -8.94917
405 1 7.85706 14.1556 4.70776 -8.95523
406 1 9.43476 12.5789 3.1444 -8.94846
407 1 11.007 14.1551 4.70797 -8.95199
408 1 12.5819 12.5804 3.13727 -8.95796
409 1 14.1642 14.1622 4.70449 -8.92961
410 1 15.7276 12.5804 3.14145 -8.94766
411 1 17.3007 14.1534 4.71513 -8.9501
412 1 18.8704 12.5796 3.14402 -8.94932
413 1 20.4423 14.152 4.71677 -8.95005
414 1 22.014 15.7243 3.14455 -8.94973
415 1 1.57123 17.2972 4.71648 -8.9497
416 1 3.14404 15.7243 3.14412 -8.95018
417 1 4.7133 17.2999 4.71326 -8.94527
418 1 6.28736 15.7259 3.14088 -8.95039
419 1 7.85977 17.3006 4.71176 -8.95076
420 1 9.43386 15.726 3.14048 -8.94983
421 1 11.0073 17.3008 4.71183 -8.94738
422 1 12.5802 15.7261 3.14018 -8.9516
423 1 14.1558 17.302 4.71146 -8.95141
424 1 15.7279 15.7275 3.14111 -8.94457
425 1 17.2979 17.2973 4.71655 -8.95091
426 1 18.8703 15.7249 3.14409 -8.94947
427 1 20.4416 17.2968 4.71704 -8.94982
428 1 22.0136 18.8693 3.14459 -8.94962
429 1 1.57186 20.4419 4.71685 -8.9495
430 1 3.14372 18.8699 3.14377 -8.94854
431 1 4.71567 20.4432 4.71563 -8.94838
432 1 6.28871 18.8704 3.14297 -8.94982
433 1 7.86162 20.4431 4.71583 -8.94923
434 1 9.43427 18.8705 3.143 -8.94909
435 1 11.0072 20.4431 4.71579 -8.94942
436 1 12.5798 18.8706 3.14309 -8.94888
437 1 14.1526 20.4431 4.71607 -8.95011
438 1 15.7257 18.8709 3.14299 -8.94952
439 1 17.2978 20.4425 4.71631 -8.9482
440 1 18.8695 18.8694 3.14457 -8.95001
441 1 20.4417 20.4418 4.71698 -8.94951
502 1 12.6172 15.7624 9.38756 -8.82797
501 1 9.39055 15.7664 9.39055 -8.90446
500 1 6.27056 15.7386 9.42957 -8.94888
499 1 3.13941 15.7261 9.43421 -8.95159
498 1 -0.000827677 15.7246 9.4344 -8.95052
497 1 18.8696 12.5799 9.43439 -8.94626
496 1 15.7191 12.5793 9.43683 -8.93535
449 1 22.014 12.5793 6.28925 -8.94992
450 1 1.5702 14.1518 7.86164 -8.95147
451 1 3.14341 12.5784 6.28892 -8.94964
452 1 4.70738 14.154 7.85963 -8.95775
453 1 6.2868 12.5761 6.28926 -8.94922
454 1 7.82114 14.1862 7.8274 -8.8524
455 1 9.42433 12.6003 6.2915 -8.90251
456 1 11.0221 14.168 7.8341 -8.934
457 1 12.6195 12.6134 6.25517 -8.84459
458 1 14.156 14.1489 7.86195 -8.95139
459 1 15.7355 12.5819 6.28489 -8.95445
460 1 17.2986 14.1514 7.8626 -8.94925
461 1 18.8718 12.5797 6.289 -8.95162
462 1 20.4418 14.1519 7.86191 -8.94968
463 1 22.0133 15.7244 6.28928 -8.95002
464 1 1.57063 17.2975 7.86156 -8.95018
465 1 3.14099 15.7255 6.28778 -8.95076
466 1 4.71048 17.3015 7.85877 -8.94851
467 1 6.27683 15.7352 6.27699 -8.93156
468 1 7.84678 17.3171 7.84747 -8.9364
469 1 9.43188 15.7342 6.27642 -8.9609
470 1 11.0068 17.3083 7.85209 -8.94358
471 1 12.5874 15.7369 6.27388 -8.96458
472 1 14.1651 17.3102 7.84944 -8.92576
473 1 15.7272 15.725 6.28841 -8.95288
474 1 17.3009 17.299 7.86025 -8.95053
475 1 18.87 15.7243 6.28955 -8.94967
476 1 20.4421 17.2971 7.8618 -8.95049
477 1 -0.000280618 18.8695 6.28935 -8.94984
478 1 1.57186 20.4419 7.86195 -8.94947
479 1 3.14271 18.8706 6.28843 -8.94925
480 1 4.71574 20.4432 7.86151 -8.94944
481 1 6.28454 18.8757 6.28453 -8.94542
482 1 7.86055 20.4464 7.86052 -8.953
483 1 9.43375 18.8742 6.28582 -8.948
484 1 11.0072 20.4455 7.86031 -8.94921
485 1 12.5809 18.874 6.28638 -8.95012
486 1 14.1535 20.445 7.86078 -8.95148
487 1 15.7283 18.8731 6.28613 -8.94377
488 1 17.2976 20.4424 7.86184 -8.94969
489 1 18.8704 18.8699 6.28895 -8.94953
490 1 20.4417 20.4418 7.86201 -8.94952
491 1 22.0135 12.5793 9.43426 -8.94917
492 1 3.14263 12.5788 9.43428 -8.94949
519 1 1.56982 14.1518 11.007 -8.95159
520 1 4.70598 14.1548 11.0101 -8.96044
522 1 11.0171 14.4318 10.9355 -8.01394
523 1 14.152 14.1661 10.994 -8.92455
524 1 17.2974 14.1514 11.0071 -8.94969
393 1 1.57189 11.0069 4.71656 -8.94946
54 1 6.28944 22.0142 3.14426 -8.94954
60 1 15.7246 22.0141 3.14435 -8.94989
99 1 22.0138 22.014 6.2896 -8.94959
101 1 3.1442 22.0142 6.28937 -8.94953
527 1 4.71161 17.3015 11.0077 -8.94605
534 1 4.7158 20.4432 11.0072 -8.9492
687 3 10.9835 12.609 11.7336 2.29665
686 1 20.4416 20.4417 20.4417 -8.94925
685 1 18.8698 18.8699 18.8698 -8.94861
684 1 17.2968 20.4418 20.4416 -8.94982
683 1 15.7244 18.8698 18.8698 -8.95032
682 1 14.1519 20.4418 20.4416 -8.94945
681 1 12.5794 18.8698 18.8697 -8.94902
303 1 12.5794 22.014 18.8694 -8.94957
301 1 9.43451 22.014 18.8694 -8.94958
521 1 7.81287 14.2121 11.0345 -8.80295
387 1 12.5795 18.8696 22.0136 -8.94951
207 1 15.7249 22.0143 12.5796 -8.94945
201 1 6.28888 22.0147 12.5799 -8.95043
385 1 9.43445 18.8696 22.0136 -8.94955
197 1 22.0138 22.014 12.5794 -8.94959
590 1 4.7139 11.006 17.3001 -8.94773
528 1 7.8549 17.3133 11.0088 -8.95844
661 1 3.14385 15.7247 18.8701 -8.94932
530 1 14.1564 17.3034 11.0065 -8.94914
531 1 17.2993 17.2986 11.0069 -8.94769
660 1 1.57218 17.2968 20.4418 -8.94963
533 1 1.57185 20.442 11.007 -8.94951
589 1 1.57141 11.0067 17.2976 -8.94938
535 1 7.86114 20.4455 11.0075 -8.95208
536 1 11.0073 20.4432 11.0072 -8.94749
537 1 14.1529 20.4436 11.0073 -8.94988
538 1 17.2975 20.4423 11.007 -8.94943
659 1 22.0139 15.7244 18.8695 -8.94943
680 1 11.007 20.4418 20.4416 -8.94959
679 1 9.43461 18.8699 18.8697 -8.94907
678 1 7.86207 20.4418 20.4416 -8.94946
677 1 6.2895 18.8699 18.8699 -8.95027
676 1 4.71711 20.4418 20.4417 -8.94979
675 1 3.14385 18.8701 18.8702 -8.9484
674 1 1.57218 20.4418 20.4417 -8.94924
547 1 22.0137 12.5794 12.5794 -8.94886
548 1 1.57054 14.1518 14.1522 -8.95113
549 1 3.14281 12.5785 12.5798 -8.9463
550 1 4.70872 14.1524 14.1552 -8.95952
551 1 6.29112 12.5761 12.5852 -8.99884
552 1 7.82477 14.185 14.1959 -8.87097
553 1 9.21029 12.5831 12.6578 -8.12562
554 1 11.0064 14.1409 14.1299 -8.91244
555 1 12.7742 12.557 12.6462 -8.17925
556 1 14.1813 14.1752 14.184 -8.87814
557 1 15.7246 12.5785 12.5842 -8.99354
558 1 17.3036 14.1532 14.1543 -8.95683
559 1 18.8708 12.5797 12.5795 -8.94753
560 1 20.4428 14.1521 14.1521 -8.951
561 1 22.0131 15.7247 12.5794 -8.95061
562 1 1.57058 17.2977 14.1525 -8.94968
563 1 3.13894 15.7266 12.5808 -8.95168
564 1 4.71092 17.3021 14.1563 -8.94347
565 1 6.26914 15.7408 12.5927 -8.92906
566 1 7.85558 17.3084 14.1598 -8.95066
567 1 9.40949 15.7386 12.6006 -8.89112
568 1 11.0078 17.2958 14.1513 -8.94352
569 1 12.6077 15.7352 12.6005 -8.87908
570 1 14.159 17.3062 14.1587 -8.94836
571 1 15.7313 15.7267 12.5794 -8.95534
572 1 17.2992 17.2984 14.1525 -8.95036
573 1 18.871 15.7249 12.5791 -8.95073
574 1 20.4419 17.2972 14.1519 -8.94986
575 1 -0.000311995 18.8696 12.5795 -8.94949
576 1 1.5719 20.442 14.152 -8.9495
577 1 3.14301 18.8707 12.5799 -8.94912
578 1 4.71597 20.4433 14.1527 -8.94944
579 1 6.2863 18.8749 12.5815 -8.94948
580 1 7.8619 20.4439 14.1527 -8.95211
581 1 9.43494 18.8728 12.5802 -8.95159
582 1 11.0073 20.442 14.1525 -8.94825
583 1 12.5801 18.8714 12.5796 -8.95254
584 1 14.1523 20.4433 14.1524 -8.95235
585 1 15.7261 18.8712 12.5798 -8.94785
586 1 17.2973 20.4423 14.152 -8.94929
587 1 18.8699 18.8699 12.5795 -8.94929
588 1 20.4416 20.4418 14.1519 -8.94949
673 1 22.0138 18.8694 18.8694 -8.9496
672 1 20.4417 17.2969 20.4417 -8.94955
671 1 18.87 15.7248 18.87 -8.94923
670 1 17.2974 17.2975 20.4422 -8.94954
669 1 15.7259 15.726 18.872 -8.95044
668 1 14.1518 17.2972 20.4418 -8.94982
667 1 12.5788 15.7249 18.8703 -8.94999
596 1 -8.32606e-05 12.5795 15.725 -8.95011
597 1 1.57143 14.1521 17.2976 -8.94928
598 1 3.14116 12.5794 15.7265 -8.94903
599 1 4.71407 14.1528 17.3 -8.94772
600 1 6.28015 12.579 15.7343 -8.9422
601 1 7.85847 14.1545 17.3074 -8.95827
602 1 9.42655 12.5803 15.735 -8.97008
603 1 11.007 14.1516 17.2954 -8.93944
604 1 12.5865 12.5794 15.7342 -8.96802
605 1 14.1552 14.1543 17.3051 -8.95591
606 1 15.7339 12.5806 15.7341 -8.94156
607 1 17.2997 14.1533 17.2996 -8.9477
608 1 18.8726 12.5799 15.7263 -8.94928
609 1 20.4424 14.1522 17.2975 -8.94934
610 1 22.0137 15.7246 15.7247 -8.9504
611 1 1.57149 17.2973 17.2974 -8.95007
612 1 3.14144 15.7255 15.726 -8.95179
613 1 4.71356 17.3004 17.3009 -8.94513
614 1 6.27738 15.7362 15.7385 -8.93286
615 1 7.86235 17.2983 17.2991 -8.95165
616 1 9.43761 15.7253 15.7287 -8.95438
617 1 11.0073 17.2984 17.2984 -8.94686
618 1 12.5773 15.7241 15.7276 -8.95651
619 1 14.1518 17.2979 17.2985 -8.95201
620 1 15.7336 15.7333 15.7338 -8.93515
621 1 17.2995 17.2996 17.2995 -8.9459
622 1 18.8718 15.7256 15.7255 -8.95087
623 1 20.4422 17.2973 17.2973 -8.94984
624 1 22.0136 18.8695 15.7245 -8.94956
625 1 1.57197 20.4419 17.297 -8.94931
626 1 3.14306 18.8707 15.7255 -8.94822
627 1 4.71643 20.4428 17.2977 -8.94945
628 1 6.28732 18.8735 15.7273 -8.94956
629 1 7.86232 20.442 17.2971 -8.94963
630 1 9.4355 18.8701 15.7252 -8.94886
631 1 11.007 20.4421 17.2973 -8.94967
632 1 12.579 18.8698 15.7249 -8.94873
633 1 14.1517 20.4419 17.297 -8.94962
634 1 15.7266 18.8728 15.7267 -8.94895
635 1 17.2974 20.4426 17.2975 -8.94927
636 1 18.8699 18.8699 15.7246 -8.94989
637 1 20.4416 20.4418 17.2968 -8.94966
666 1 11.007 17.2975 20.4419 -8.94955
639 1 4.71636 11.0067 20.4426 -8.94936
665 1 9.43521 15.725 18.8706 -8.94991
664 1 7.86211 17.2972 20.4419 -8.94975
663 1 6.28786 15.7261 18.873 -8.95118
643 1 17.2977 11.0068 20.4425 -8.94929
662 1 4.71645 17.2975 20.4425 -8.94988
645 1 22.0139 12.5794 18.8696 -8.94952
646 1 1.57212 14.1519 20.4418 -8.94954
647 1 3.14375 12.5794 18.8702 -8.94946
648 1 4.71642 14.152 20.4426 -8.94927
649 1 6.28759 12.5794 18.8729 -8.94889
650 1 7.86167 14.1522 20.4436 -8.95196
651 1 9.43457 12.5798 18.8725 -8.95075
652 1 11.0068 14.1524 20.4417 -8.94806
653 1 12.5793 12.5799 18.8721 -8.95113
654 1 14.1523 14.1524 20.4429 -8.95165
655 1 15.7265 12.5799 18.8727 -8.94891
656 1 17.2976 14.1523 20.4424 -8.9492
657 1 18.8702 12.5796 18.8701 -8.94947
658 1 20.4418 14.1519 20.4418 -8.94956
351 1 22.0139 12.5794 22.0139 -8.9496
355 1 6.28908 12.5792 22.0145 -8.94968
357 1 9.43439 12.5793 22.0143 -8.94923
359 1 12.5794 12.5795 22.0131 -8.95112
363 1 18.8696 12.5795 22.0139 -8.94952
367 1 3.14448 15.7243 22.014 -8.9496
369 1 6.2891 15.7247 22.0139 -8.95085
375 1 15.7251 15.725 22.0136 -8.95018
377 1 18.8696 15.7245 22.0139 -8.94948
381 1 3.14441 18.8695 22.0139 -8.94947
248 1 3.14428 22.0142 15.7247 -8.94946
258 1 18.8693 22.014 15.7243 -8.94961
295 1 22.0138 22.014 18.8692 -8.94949
595 1 20.4425 11.0068 17.2976 -8.94939
594 1 17.3002 11.0064 17.3001 -8.94784
532 1 20.442 17.2974 11.0069 -8.94961
379 1 22.0139 18.8692 22.0139 -8.94961
