ITEM: TIMESTEP
108
ITEM: NUMBER OF ATOMS
688
ITEM: BOX BOUNDS pp pp pp
0.0000000000000000e+00 2.2013900999999997e+01
0.0000000000000000e+00 2.2013900999999997e+01
0.0000000000000000e+00 2.2013900999999997e+01
ITEM: ATOMS id type x y z c_pot
1 1 22.0138 8.77948e-05 1.14873e-05 -8.94917
2 1 1.572 1.57228 1.57201 -8.94907
3 1 3.14454 0.000173671 -0.000141449 -8.94962
4 1 4.71688 1.57224 1.57188 -8.9496
448 1 20.4426 11.0072 7.86193 -8.94932
6 1 7.8619 1.5722 1.57184 -8.94946
175 1 18.8723 9.4339 9.43405 -8.95093
8 1 11.007 1.57215 1.57183 -8.9495
174 1 15.7348 9.42735 9.42756 -8.94501
10 1 14.152 1.57211 1.57189 -8.94948
11 1 15.7244 0.000116995 -0.000209848 -8.94952
12 1 17.2972 1.57202 1.57189 -8.94949
7 1 9.43447 0.00016879 -0.000236005 -8.94953
14 1 20.4416 1.57227 1.57219 -8.94934
447 1 17.3004 11.008 7.86217 -8.95155
16 1 1.5721 4.717 1.57214 -8.94982
446 1 14.1639 11.0113 7.85121 -8.97704
18 1 4.71621 4.71633 1.57114 -8.94954
445 1 11.1042 11.0059 7.64324 -8.13471
20 1 7.86157 4.71626 1.57133 -8.94904
56 1 9.43443 0.000466475 3.14379 -8.94945
22 1 11.0068 4.71602 1.57127 -8.94932
444 1 7.8893 11.0137 7.87757 -8.86685
24 1 14.1524 4.71582 1.57111 -8.94963
443 1 4.7216 11.0079 7.86395 -8.9403
26 1 17.2982 4.71567 1.57106 -8.94817
442 1 1.57248 11.007 7.86169 -8.9473
28 1 20.4421 4.71679 1.57211 -8.94956
397 1 14.1629 11.0078 4.70621 -8.94247
30 1 1.57223 7.862 1.57226 -8.94938
396 1 11.0127 11.0078 4.72149 -9.00149
32 1 4.71683 7.86225 1.5724 -8.94993
395 1 7.86607 11.0079 4.72242 -8.94601
34 1 7.86167 7.8618 1.57108 -8.95232
35 1 9.43405 6.2886 -0.000302957 -8.94951
36 1 11.0065 7.86081 1.57001 -8.95064
37 1 12.5795 6.28853 -0.000476057 -8.94962
38 1 14.1537 7.86018 1.5685 -8.95212
518 1 20.4427 11.0072 11.0067 -8.94946
40 1 17.2983 7.86124 1.57128 -8.94941
350 1 20.4421 11.0069 1.57206 -8.94949
42 1 20.4421 7.86183 1.5721 -8.9494
58 1 12.5797 0.000433377 3.14385 -8.94942
44 1 3.14424 9.43432 0.000328583 -8.94942
348 1 14.1542 11.007 1.56886 -8.94971
347 1 11.0068 11.007 1.57214 -8.94626
346 1 7.86198 11.0069 1.57352 -8.94821
48 1 15.7256 9.43396 -0.000230558 -8.94986
149 1 3.14372 0.00046346 9.43441 -8.94938
50 1 -0.00017923 0.000179045 3.14452 -8.94942
51 1 1.57185 1.57224 4.71682 -8.94955
52 1 3.14396 0.000402236 3.14393 -8.9491
53 1 4.71609 1.57197 4.71606 -8.94992
517 1 17.3008 11.0066 11.0067 -8.95341
55 1 7.8617 1.57201 4.7161 -8.94942
173 1 12.5992 9.4069 9.38525 -8.83452
57 1 11.0071 1.57193 4.71606 -8.94948
172 1 9.37092 9.1919 9.44 -8.12243
59 1 14.1525 1.57174 4.71634 -8.9504
516 1 14.1673 10.9786 10.9959 -8.93575
61 1 17.2974 1.5722 4.71668 -8.94958
62 1 18.8696 0.000260993 3.14436 -8.94922
63 1 20.4416 1.57227 4.71701 -8.94956
64 1 22.0137 3.14444 3.14441 -8.94943
65 1 1.57115 4.71638 4.71626 -8.94959
66 1 3.1436 3.14394 3.14359 -8.94831
67 1 4.71344 4.71385 4.71348 -8.94497
68 1 6.28899 3.14386 3.14363 -8.94953
69 1 7.86075 4.71424 4.71473 -8.94877
70 1 9.43429 3.14373 3.14362 -8.94935
71 1 11.0071 4.71396 4.71447 -8.94784
72 1 12.5797 3.14355 3.14364 -8.94914
73 1 14.1548 4.7121 4.71376 -8.94991
74 1 15.7255 3.1431 3.14348 -8.94947
75 1 17.2988 4.71524 4.71575 -8.94885
76 1 18.8698 3.1442 3.14427 -8.9494
77 1 20.442 4.71656 4.71669 -8.9496
78 1 22.0141 6.28948 3.14448 -8.94991
79 1 1.57204 7.86225 4.71683 -8.94991
80 1 3.14396 6.28948 3.14407 -8.95055
81 1 4.71568 7.8625 4.71612 -8.95232
82 1 6.28717 6.28751 3.14102 -8.95024
83 1 7.85712 7.857 4.70852 -8.95467
84 1 9.4336 6.28726 3.14176 -8.94763
85 1 11.0071 7.85677 4.70777 -8.95076
86 1 12.5803 6.28675 3.14087 -8.94919
87 1 14.1662 7.84854 4.70138 -8.93108
88 1 15.729 6.28492 3.13974 -8.94453
89 1 17.3016 7.85988 4.71439 -8.95161
90 1 18.8709 6.2886 3.14372 -8.9499
91 1 20.4427 7.8618 4.71667 -8.95024
92 1 0.000248976 9.43439 3.14433 -8.94949
93 1 3.14426 9.43452 3.14429 -8.94889
94 1 6.28978 9.43558 3.1451 -8.94962
95 1 9.43519 9.43475 3.14442 -8.95106
96 1 12.5823 9.43308 3.13536 -8.96116
97 1 15.7283 9.43329 3.14075 -8.94782
98 1 18.8709 9.43415 3.14373 -8.94911
513 1 4.71979 11.0073 11.0069 -8.94311
100 1 1.57177 1.57219 7.86188 -8.94947
189 1 20.442 4.71629 11.0069 -8.94946
102 1 4.71592 1.57184 7.86157 -8.94938
103 1 6.28836 0.00159024 6.28833 -8.95073
104 1 7.86157 1.572 7.86164 -8.95173
171 1 6.28163 9.42421 9.432 -8.96606
106 1 11.007 1.5725 7.86157 -8.95002
170 1 3.14267 9.4349 9.43427 -8.95196
108 1 14.1526 1.57214 7.86171 -8.95047
109 1 15.7255 0.00113165 6.28879 -8.94991
110 1 17.2975 1.57205 7.86188 -8.9495
188 1 17.2987 4.71496 11.0067 -8.94862
112 1 20.4417 1.57221 7.86196 -8.9495
113 1 -0.000276806 3.14436 6.28937 -8.94944
114 1 1.57107 4.71623 7.86159 -8.94923
115 1 3.14348 3.14379 6.28888 -8.9493
116 1 4.71379 4.71394 7.86063 -8.94801
117 1 6.28789 3.142 6.28799 -8.9516
118 1 7.85934 4.70995 7.86078 -8.95877
119 1 9.43432 3.14241 6.28817 -8.95019
120 1 11.0063 4.7137 7.86094 -8.95167
121 1 12.5798 3.14224 6.28863 -8.95218
122 1 14.1539 4.71287 7.86095 -8.95059
123 1 15.7255 3.14317 6.28893 -8.9499
124 1 17.2986 4.71516 7.86138 -8.94906
125 1 18.8698 3.14412 6.28931 -8.94945
126 1 20.4419 4.71641 7.86177 -8.94941
127 1 22.0135 6.28908 6.28907 -8.95036
128 1 1.57043 7.86172 7.86156 -8.95211
129 1 3.14092 6.28772 6.2875 -8.95054
130 1 4.70743 7.85811 7.85889 -8.95702
131 1 6.27783 6.27848 6.27859 -8.93098
132 1 7.82404 7.82763 7.83048 -8.85453
133 1 9.43328 6.28119 6.28441 -8.94887
134 1 11.0233 7.84869 7.83514 -8.89451
135 1 12.5861 6.27739 6.28116 -8.95231
136 1 14.1682 7.84877 7.85125 -8.93266
137 1 15.7303 6.28424 6.28553 -8.94592
138 1 17.3032 7.85868 7.85967 -8.94956
139 1 18.8715 6.28816 6.28856 -8.94937
140 1 20.4429 7.8615 7.86162 -8.95075
141 1 22.0143 9.43463 6.28926 -8.94971
142 1 3.14422 9.43555 6.28943 -8.94985
143 1 6.28878 9.43842 6.2904 -8.95462
144 1 9.42439 9.41495 6.28632 -8.9108
145 1 12.6228 9.39894 6.24477 -8.86968
146 1 15.736 9.43214 6.28395 -8.96008
147 1 18.8722 9.4345 6.289 -8.95167
148 1 -0.000238266 0.000187428 9.43446 -8.94952
169 1 22.014 9.4346 9.43428 -8.94999
168 1 18.8712 6.28794 9.43404 -8.94897
151 1 9.43458 0.0022877 9.4343 -8.95066
152 1 12.5799 0.00170596 9.43432 -8.95125
167 1 15.7289 6.28431 9.43321 -8.94636
166 1 12.581 6.28293 9.43189 -8.95387
155 1 22.0136 3.14427 9.43441 -8.94948
156 1 3.14332 3.14364 9.43434 -8.94939
157 1 6.28734 3.14153 9.43436 -8.94967
158 1 9.43433 3.14382 9.43443 -8.94705
159 1 12.5798 3.14295 9.43426 -8.95021
160 1 15.7256 3.14297 9.43429 -8.9496
161 1 18.8699 3.14398 9.43435 -8.94941
162 1 -0.000509814 6.28877 9.43422 -8.94976
163 1 3.14077 6.28728 9.4341 -8.94871
164 1 6.28023 6.27981 9.43441 -8.94365
165 1 9.43145 6.29087 9.43537 -9.00474
344 1 1.57215 11.0069 1.57218 -8.94956
183 1 1.57096 4.71608 11.0071 -8.94928
181 1 17.2975 1.57193 11.007 -8.94948
154 1 18.8696 0.0002125 9.43446 -8.94948
177 1 4.71585 1.57169 11.0072 -8.94936
9 1 12.5795 0.000155307 -0.00023084 -8.94953
184 1 4.71346 4.71347 11.0078 -8.94759
512 1 1.57204 11.007 11.0069 -8.94754
41 1 18.8699 6.28905 8.34523e-05 -8.94949
19 1 6.28939 3.14437 -0.00020758 -8.94942
25 1 15.7246 3.14418 -0.000229467 -8.9496
176 1 1.57174 1.57216 11.007 -8.94949
199 1 3.14376 0.000454131 12.5797 -8.94935
178 1 7.86162 1.57151 11.0072 -8.95171
179 1 11.007 1.57178 11.007 -8.94909
180 1 14.1526 1.57168 11.007 -8.94987
644 1 20.442 11.0069 20.442 -8.94949
182 1 20.4417 1.57219 11.0069 -8.94953
642 1 14.1528 11.007 20.4436 -8.95195
209 1 18.8696 0.000186904 12.5795 -8.94948
185 1 7.85925 4.70877 11.0085 -8.95902
186 1 11.0071 4.71323 11.0077 -8.9524
187 1 14.1539 4.71298 11.0065 -8.94939
641 1 11.0067 11.0069 20.443 -8.94789
640 1 7.86143 11.0068 20.4444 -8.95112
190 1 1.57009 7.86136 11.0067 -8.95145
191 1 4.70699 7.85759 11.0084 -8.95618
192 1 7.82387 7.82394 11.0422 -8.85879
193 1 11.0324 7.84647 11.0356 -8.96519
194 1 14.1623 7.8514 11.0047 -8.95925
195 1 17.3022 7.85879 11.0058 -8.94778
196 1 20.4429 7.86119 11.0066 -8.94986
343 1 18.8707 9.43394 18.8706 -8.94918
198 1 1.57178 1.57216 14.1521 -8.94949
342 1 15.727 9.43278 18.8739 -8.95055
200 1 4.71599 1.57159 14.1528 -8.9499
341 1 12.5793 9.43371 18.8738 -8.9525
202 1 7.86186 1.57137 14.1527 -8.9504
203 1 9.43484 0.000531331 12.58 -8.95003
204 1 11.0072 1.57102 14.1528 -8.94927
205 1 12.5796 -1.58765e-05 12.5797 -8.95018
206 1 14.1525 1.57072 14.1525 -8.95134
340 1 9.4346 9.43378 18.873 -8.95037
208 1 17.2974 1.57184 14.152 -8.94958
339 1 6.28728 9.43276 18.8738 -8.95056
210 1 20.4417 1.57219 14.1519 -8.94949
211 1 -0.000294908 3.14426 12.5795 -8.94944
212 1 1.57093 4.71608 14.1526 -8.94964
213 1 3.14329 3.14354 12.5799 -8.94921
214 1 4.71264 4.7126 14.1556 -8.94457
215 1 6.28761 3.14107 12.5809 -8.95146
216 1 7.86032 4.71138 14.155 -8.95178
217 1 9.43471 3.14149 12.5806 -8.95034
218 1 11.0075 4.71248 14.1553 -8.94664
219 1 12.58 3.14083 12.5801 -8.95304
220 1 14.1563 4.70861 14.1562 -8.95159
221 1 15.7256 3.14274 12.5795 -8.94956
222 1 17.2992 4.71457 14.1527 -8.94982
223 1 18.8699 3.14396 12.5794 -8.94931
224 1 20.4421 4.71635 14.1521 -8.9497
225 1 22.0135 6.2888 12.5795 -8.95011
226 1 1.571 7.86151 14.1522 -8.95001
227 1 3.14035 6.28721 12.5809 -8.95078
228 1 4.7118 7.85973 14.1543 -8.95152
229 1 6.27611 6.27588 12.5908 -8.92981
230 1 7.84834 7.84447 14.1706 -8.95411
231 1 9.43403 6.2787 12.5864 -8.95188
232 1 11.008 7.85501 14.1648 -8.9466
233 1 12.5892 6.27264 12.5896 -8.9528
234 1 14.1757 7.83621 14.1755 -8.92184
235 1 15.7303 6.28388 12.5804 -8.95007
236 1 17.3053 7.8573 14.1556 -8.95098
237 1 18.8715 6.28799 12.5794 -8.94958
238 1 20.4436 7.86112 14.1524 -8.95049
239 1 22.0141 9.43429 12.5793 -8.95059
240 1 3.14136 9.43433 12.5794 -8.95097
241 1 6.27894 9.43308 12.5815 -8.95531
242 1 9.39674 9.40329 12.6146 -8.86372
243 1 12.6501 9.38311 12.6467 -8.78074
244 1 15.7445 9.42636 12.5847 -8.96092
245 1 18.8744 9.43338 12.5795 -8.95309
246 1 -0.000215457 0.000160304 15.7245 -8.94952
247 1 1.57189 1.57219 17.2971 -8.94922
47 1 12.5795 9.43421 22.0131 -8.95198
249 1 4.71661 1.57203 17.2975 -8.94998
250 1 6.28914 0.000794346 15.7252 -8.95051
251 1 7.86199 1.57185 17.2974 -8.94943
252 1 9.43473 6.63558e-06 15.7251 -8.94932
253 1 11.007 1.57173 17.2975 -8.94956
254 1 12.5795 -0.000212011 15.725 -8.94922
255 1 14.152 1.57166 17.2974 -8.94943
256 1 15.7249 0.000251378 15.725 -8.95074
257 1 17.2975 1.57165 17.2975 -8.94969
46 1 9.43434 9.43441 22.0146 -8.94949
259 1 20.4417 1.57216 17.2969 -8.94957
260 1 22.0136 3.1443 15.7246 -8.94952
261 1 1.57182 4.71657 17.2974 -8.94988
262 1 3.1433 3.14349 15.7255 -8.94829
263 1 4.71503 4.71459 17.2993 -8.94898
264 1 6.28859 3.14261 15.7258 -8.95054
265 1 7.8615 4.71514 17.2987 -8.94898
266 1 9.43439 3.14278 15.7258 -8.94923
267 1 11.0069 4.71486 17.299 -8.9491
268 1 12.5797 3.14248 15.7258 -8.94896
269 1 14.1527 4.71467 17.2991 -8.94953
270 1 15.7261 3.1416 15.7261 -8.94998
271 1 17.2994 4.71399 17.2993 -8.94727
272 1 18.87 3.14384 15.7247 -8.94968
273 1 20.4424 4.71635 17.2974 -8.94955
274 1 22.0141 6.28895 15.7248 -8.9499
275 1 1.57118 7.86121 17.2979 -8.94983
276 1 3.14264 6.28827 15.7256 -8.95048
277 1 4.71276 7.8583 17.3014 -8.94476
278 1 6.28373 6.28229 15.7317 -8.94907
279 1 7.86045 7.85925 17.3027 -8.95298
280 1 9.43395 6.28498 15.7296 -8.94707
281 1 11.0067 7.85853 17.3032 -8.94737
282 1 12.5807 6.2844 15.7305 -8.94861
283 1 14.1548 7.85811 17.3044 -8.95303
284 1 15.7326 6.27998 15.7326 -8.94163
285 1 17.3018 7.85798 17.3018 -8.94519
286 1 18.8722 6.28744 15.726 -8.94975
287 1 20.4429 7.86118 17.2979 -8.94987
288 1 5.40752e-05 9.4341 15.7251 -8.95051
289 1 3.14062 9.43305 15.7266 -8.95096
290 1 6.27657 9.42366 15.7381 -8.93093
291 1 9.43455 9.4308 15.7358 -8.95264
292 1 12.5819 9.43021 15.7415 -8.96323
293 1 15.7388 9.42352 15.7391 -8.93249
294 1 18.8737 9.43312 15.7266 -8.951
45 1 6.28909 9.43438 22.015 -8.94989
296 1 1.57212 1.57226 20.4417 -8.94929
297 1 3.14431 0.000361275 18.8696 -8.94948
298 1 4.71706 1.57224 20.4416 -8.94964
299 1 6.28959 0.000151477 18.8695 -8.94967
300 1 7.86197 1.57217 20.4417 -8.9495
338 1 3.14332 9.43386 18.8707 -8.94917
302 1 11.0069 1.57214 20.4417 -8.94954
337 1 22.0139 9.43423 18.8699 -8.9494
304 1 14.1519 1.57213 20.4417 -8.94949
305 1 15.7243 1.95376e-05 18.8694 -8.9497
306 1 17.2969 1.57213 20.4416 -8.9497
307 1 18.8696 0.000184794 18.8696 -8.94931
308 1 20.4418 1.57224 20.4417 -8.94916
309 1 22.014 3.14447 18.8694 -8.94959
310 1 1.5721 4.71682 20.4419 -8.94931
311 1 3.14406 3.14404 18.8699 -8.94929
312 1 4.71664 4.71649 20.442 -8.95005
313 1 6.28935 3.14404 18.8698 -8.9495
314 1 7.86172 4.71634 20.442 -8.94932
315 1 9.43436 3.1439 18.8699 -8.94941
316 1 11.0068 4.71619 20.4421 -8.9495
317 1 12.5795 3.14385 18.8699 -8.94936
318 1 14.1521 4.71622 20.442 -8.94944
319 1 15.7247 3.14382 18.8699 -8.94965
320 1 17.2975 4.71615 20.442 -8.94965
321 1 18.87 3.14388 18.8698 -8.94887
322 1 20.442 4.71672 20.4419 -8.94924
323 1 22.014 6.28907 18.8698 -8.9495
324 1 1.572 7.86176 20.442 -8.94947
325 1 3.14345 6.28842 18.8706 -8.94836
326 1 4.71615 7.86128 20.4431 -8.94958
327 1 6.28856 6.2881 18.8714 -8.9508
328 1 7.86171 7.86144 20.4431 -8.95039
329 1 9.43402 6.28787 18.8714 -8.94899
330 1 11.0067 7.86091 20.4431 -8.95012
331 1 12.5796 6.28781 18.8716 -8.94912
332 1 14.1524 7.86106 20.4429 -8.95098
333 1 15.7259 6.28751 18.8718 -8.95047
334 1 17.2981 7.86105 20.4429 -8.94953
335 1 18.8707 6.28821 18.8707 -8.94842
336 1 20.442 7.86174 20.442 -8.94948
29 1 22.014 6.28946 22.014 -8.94951
638 1 1.57195 11.0068 20.4421 -8.9495
514 1 7.88007 10.9888 10.9865 -8.83775
515 1 11.0957 10.7086 11.102 -7.31832
27 1 18.8697 3.14425 22.0137 -8.94916
39 1 15.7253 6.28837 22.0131 -8.95021
593 1 14.1569 11.0055 17.3086 -8.95632
540 1 1.57029 11.0069 14.1526 -8.95122
541 1 4.70802 11.0057 14.1563 -8.95634
542 1 7.82735 10.9752 14.1914 -8.85681
543 1 11.0045 11.0093 14.1494 -8.96782
544 1 14.1901 10.9785 14.1935 -8.86349
545 1 17.3069 11.0062 14.1561 -8.9568
546 1 20.4436 11.0071 14.1524 -8.9514
33 1 6.2891 6.2891 22.0137 -8.95058
31 1 3.14436 6.28938 22.0142 -8.94967
591 1 7.85785 11.0049 17.3077 -8.95665
592 1 11.0067 11.0075 17.2996 -8.94409
5 1 6.28951 0.000157338 22.0137 -8.94948
15 1 22.0139 3.1446 22.0139 -8.94936
17 1 3.14438 3.14439 22.0137 -8.94952
23 1 12.5794 3.1442 22.0137 -8.94946
13 1 18.8694 0.000120174 22.0137 -8.94943
21 1 9.43437 3.14423 22.0137 -8.9495
43 1 22.014 9.4344 22.014 -8.94953
49 1 18.87 9.43427 22.014 -8.94939
688 3 10.1445 11.036 9.38462 2.38146
511 1 18.8703 18.8701 9.43436 -8.94921
510 1 15.7272 18.8725 9.43381 -8.9489
509 1 12.5817 18.8783 9.43115 -8.95868
508 1 9.43265 18.8803 9.43116 -8.95793
349 1 17.2985 11.0069 1.57127 -8.94936
507 1 6.28469 18.8764 9.43341 -8.94864
539 1 20.4417 20.442 11.007 -8.9495
352 1 1.57214 14.1518 1.57219 -8.94941
353 1 3.14419 12.5793 0.00030219 -8.94949
354 1 4.7166 14.1515 1.57217 -8.94965
153 1 15.7253 22.0146 9.43447 -8.9496
356 1 7.8616 14.1518 1.57087 -8.95261
150 1 6.28834 22.0153 9.43438 -8.95017
358 1 11.0066 14.1525 1.56956 -8.95027
345 1 4.71654 11.0068 1.57227 -8.9496
360 1 14.1537 14.1533 1.56876 -8.95166
361 1 15.7257 12.5798 -0.000314298 -8.94961
362 1 17.2984 14.1526 1.57124 -8.94916
107 1 12.5799 22.0153 6.28856 -8.94999
364 1 20.4421 14.152 1.57207 -8.94944
365 1 22.014 15.7244 7.94216e-05 -8.9495
366 1 1.57201 17.2969 1.57209 -8.94977
105 1 9.43435 22.0154 6.28828 -8.94978
368 1 4.71594 17.2977 1.57101 -8.94972
529 1 11.0071 17.299 11.0018 -9.014
370 1 7.86147 17.2978 1.5704 -8.94974
371 1 9.43433 15.725 -0.000856373 -8.94984
372 1 11.007 17.2981 1.57023 -8.94973
373 1 12.5794 15.725 -0.00112046 -8.9499
374 1 14.1527 17.2981 1.5703 -8.95034
526 1 1.56991 17.2982 11.007 -8.94931
376 1 17.2982 17.298 1.57127 -8.94833
525 1 20.4414 14.1518 11.0069 -8.94929
378 1 20.442 17.2971 1.57212 -8.94946
111 1 18.8696 22.0142 6.28938 -8.94961
380 1 1.57188 20.4419 1.57204 -8.94922
495 1 12.5448 12.5725 9.45117 -8.82968
382 1 4.71665 20.4421 1.57158 -8.94961
383 1 6.28933 18.8697 -0.000416768 -8.94976
384 1 7.86182 20.4422 1.57151 -8.94935
494 1 9.36375 12.8537 9.46176 -7.95286
386 1 11.007 20.4423 1.5715 -8.94945
493 1 6.28707 12.5895 9.43866 -8.97042
388 1 14.1522 20.4422 1.57158 -8.94936
389 1 15.7247 18.8698 -0.00049032 -8.94993
390 1 17.2974 20.4422 1.57163 -8.94942
391 1 18.8697 18.8697 -1.50216e-05 -8.94919
392 1 20.4416 20.4418 1.57225 -8.94961
506 1 3.14212 18.8712 9.43413 -8.94894
394 1 4.7162 11.0068 4.71609 -8.94591
505 1 22.0134 18.8699 9.43434 -8.94947
504 1 18.8712 15.7248 9.43458 -8.95253
503 1 15.7346 15.7298 9.43048 -8.95633
398 1 17.3017 11.007 4.71439 -8.94835
399 1 20.4428 11.0069 4.71645 -8.94984
400 1 0.000216534 12.5794 3.1443 -8.94953
401 1 1.57175 14.1516 4.71662 -8.94975
402 1 3.14409 12.5791 3.14415 -8.94905
403 1 4.715 14.1512 4.71562 -8.95118
404 1 6.28924 12.5781 3.1446 -8.94914
405 1 7.8567 14.1562 4.70736 -8.95543
406 1 9.43507 12.579 3.14499 -8.94832
407 1 11.0074 14.156 4.70727 -8.95181
408 1 12.5825 12.5806 3.13688 -8.9581
409 1 14.1653 14.163 4.70334 -8.92944
410 1 15.7285 12.5807 3.1407 -8.94751
411 1 17.3016 14.1538 4.71462 -8.95004
412 1 18.871 12.5797 3.14369 -8.94926
413 1 20.4427 14.1521 4.71658 -8.9501
414 1 22.014 15.7244 3.14439 -8.94976
415 1 1.5708 17.2974 4.71616 -8.94973
416 1 3.14371 15.7243 3.14386 -8.95025
417 1 4.71236 17.3006 4.71238 -8.94507
418 1 6.28684 15.7262 3.14025 -8.95049
419 1 7.85904 17.3015 4.71061 -8.95074
420 1 9.43372 15.7265 3.13973 -8.94985
421 1 11.0073 17.3018 4.71061 -8.94727
422 1 12.5806 15.7267 3.13914 -8.95169
423 1 14.1567 17.3031 4.71022 -8.95138
424 1 15.7287 15.7281 3.1403 -8.9444
425 1 17.2985 17.2977 4.71612 -8.95101
426 1 18.8708 15.7252 3.14381 -8.94941
427 1 20.4417 17.297 4.71688 -8.94989
428 1 22.0135 18.8694 3.14441 -8.94962
429 1 1.5715 20.4422 4.71654 -8.94942
430 1 3.14322 18.8703 3.14332 -8.94845
431 1 4.71504 20.4438 4.715 -8.94824
432 1 6.28821 18.871 3.14225 -8.9498
433 1 7.86126 20.4437 4.71517 -8.94915
434 1 9.43409 18.8711 3.14227 -8.94901
435 1 11.0072 20.4437 4.71517 -8.94939
436 1 12.5801 18.8712 3.14236 -8.94882
437 1 14.153 20.4437 4.71552 -8.95016
438 1 15.7262 18.8715 3.14232 -8.9495
439 1 17.2982 20.4429 4.7159 -8.94805
440 1 18.8698 18.8696 3.14434 -8.95005
441 1 20.4418 20.442 4.71678 -8.94948
502 1 12.6179 15.764 9.38621 -8.82696
501 1 9.3891 15.7682 9.38954 -8.90536
500 1 6.26875 15.7405 9.42928 -8.94869
499 1 3.1384 15.7266 9.4342 -8.95176
498 1 -0.00115894 15.7247 9.4344 -8.95064
497 1 18.8694 12.5798 9.4345 -8.94598
496 1 15.7181 12.5789 9.43691 -8.93489
449 1 22.0141 12.5792 6.28915 -8.94993
450 1 1.56992 14.1518 7.86158 -8.95161
451 1 3.14353 12.5783 6.289 -8.94971
452 1 4.70673 14.1545 7.85964 -8.95802
453 1 6.28715 12.5762 6.28978 -8.94906
454 1 7.81989 14.1884 7.8267 -8.85083
455 1 9.42506 12.6021 6.29257 -8.90281
456 1 11.0233 14.171 7.83328 -8.93173
457 1 12.6203 12.6144 6.25451 -8.84498
458 1 14.1565 14.1494 7.86138 -8.95149
459 1 15.7364 12.5821 6.28415 -8.95434
460 1 17.2987 14.1514 7.86264 -8.94941
461 1 18.8723 12.5797 6.28883 -8.95172
462 1 20.4418 14.1519 7.86191 -8.9497
463 1 22.0131 15.7245 6.28913 -8.9501
464 1 1.56999 17.2978 7.86133 -8.9503
465 1 3.14022 15.7257 6.28739 -8.95085
466 1 4.70904 17.3026 7.85803 -8.94834
467 1 6.27547 15.7364 6.27592 -8.93107
468 1 7.84529 17.319 7.84617 -8.93631
469 1 9.43138 15.7359 6.27515 -8.96099
470 1 11.0067 17.3098 7.85081 -8.94377
471 1 12.5884 15.7385 6.27212 -8.96447
472 1 14.1662 17.3114 7.84821 -8.92525
473 1 15.728 15.7255 6.28777 -8.95298
474 1 17.3015 17.2994 7.85994 -8.95064
475 1 18.8704 15.7244 6.28947 -8.94976
476 1 20.4421 17.2973 7.86171 -8.95065
477 1 -0.000476497 18.8697 6.28914 -8.94991
478 1 1.57147 20.4422 7.86178 -8.94939
479 1 3.14189 18.8712 6.28786 -8.94917
480 1 4.71503 20.4439 7.86112 -8.94935
481 1 6.28345 18.8769 6.28347 -8.94523
482 1 7.86009 20.4473 7.86003 -8.9531
483 1 9.43334 18.8754 6.28478 -8.94795
484 1 11.0072 20.4463 7.85979 -8.94928
485 1 12.5813 18.875 6.28542 -8.95018
486 1 14.154 20.4457 7.86036 -8.95155
487 1 15.7292 18.874 6.28538 -8.94349
488 1 17.2981 20.4427 7.86164 -8.94962
489 1 18.8708 18.8703 6.28869 -8.94956
490 1 20.4417 20.442 7.86191 -8.94948
491 1 22.0135 12.5793 9.43423 -8.94893
492 1 3.143 12.5789 9.43443 -8.9492
519 1 1.56946 14.1519 11.0071 -8.9517
520 1 4.70526 14.1555 11.0106 -8.96085
522 1 11.0173 14.4366 10.9378 -8.01418
523 1 14.151 14.1659 10.994 -8.9261
524 1 17.2969 14.1511 11.0072 -8.94951
393 1 1.57197 11.0068 4.71645 -8.94945
54 1 6.28919 22.0144 3.14386 -8.94947
60 1 15.7249 22.0143 3.14401 -8.94991
99 1 22.0137 22.0141 6.28946 -8.94953
101 1 3.14377 22.0144 6.28908 -8.94945
527 1 4.71021 17.3027 11.0079 -8.94578
534 1 4.71518 20.4439 11.0073 -8.94914
687 3 10.9813 12.6068 11.7201 2.29764
686 1 20.4417 20.4418 20.4418 -8.94915
685 1 18.8701 18.8702 18.8701 -8.9486
684 1 17.297 20.4419 20.4417 -8.94984
683 1 15.7246 18.87 18.87 -8.95044
682 1 14.1519 20.4419 20.4416 -8.94939
681 1 12.5795 18.8699 18.8698 -8.94897
303 1 12.5795 22.014 18.8695 -8.94952
301 1 9.43453 22.014 18.8695 -8.94954
521 1 7.81138 14.2149 11.0358 -8.80249
387 1 12.5796 18.8699 22.0134 -8.94948
207 1 15.7251 22.0143 12.5797 -8.94943
201 1 6.28859 22.015 12.5801 -8.95054
385 1 9.43441 18.8699 22.0134 -8.94952
197 1 22.0137 22.0141 12.5795 -8.94952
590 1 4.71313 11.0058 17.301 -8.94759
528 1 7.85347 17.3153 11.0087 -8.95832
661 1 3.14342 15.7249 18.8706 -8.94924
530 1 14.157 17.304 11.0061 -8.94854
531 1 17.2997 17.2989 11.0069 -8.94767
660 1 1.57201 17.297 20.442 -8.94958
533 1 1.57148 20.4423 11.007 -8.94943
589 1 1.57108 11.0067 17.298 -8.94935
535 1 7.86081 20.4463 11.0075 -8.95231
536 1 11.0073 20.4434 11.007 -8.94764
537 1 14.1532 20.4439 11.0072 -8.94992
538 1 17.2978 20.4425 11.0071 -8.94938
659 1 22.0138 15.7246 18.8698 -8.94936
680 1 11.007 20.442 20.4416 -8.94954
679 1 9.43467 18.87 18.8699 -8.94904
678 1 7.86204 20.442 20.4416 -8.94941
677 1 6.28931 18.8703 18.8703 -8.95036
676 1 4.71695 20.442 20.4418 -8.94981
675 1 3.14344 18.8705 18.8706 -8.94831
674 1 1.57201 20.442 20.4419 -8.94912
547 1 22.0136 12.5794 12.5794 -8.94862
548 1 1.57016 14.1518 14.1524 -8.95121
549 1 3.14289 12.5784 12.58 -8.94608
550 1 4.7079 14.1526 14.1559 -8.9597
551 1 6.29172 12.5763 12.5857 -8.99791
552 1 7.82383 14.1851 14.1965 -8.87346
553 1 9.21409 12.5843 12.6561 -8.1331
554 1 11.006 14.141 14.1286 -8.91631
555 1 12.7672 12.5555 12.6437 -8.1882
556 1 14.1808 14.1734 14.183 -8.8814
557 1 15.7242 12.5776 12.5841 -8.99227
558 1 17.3037 14.153 14.1546 -8.95676
559 1 18.8707 12.5796 12.5796 -8.94748
560 1 20.4428 14.1521 14.1522 -8.95099
561 1 22.0127 15.7249 12.5795 -8.95075
562 1 1.5699 17.2981 14.1529 -8.94975
563 1 3.13783 15.7271 12.5813 -8.9519
564 1 4.70947 17.3033 14.1575 -8.94312
565 1 6.26705 15.7426 12.5942 -8.92867
566 1 7.85423 17.3097 14.1611 -8.94979
567 1 9.40736 15.7408 12.6019 -8.88916
568 1 11.0078 17.296 14.1516 -8.94294
569 1 12.6092 15.7366 12.6016 -8.87598
570 1 14.16 17.3066 14.1595 -8.94726
571 1 15.7317 15.7265 12.5796 -8.9558
572 1 17.2997 17.2987 14.1528 -8.95058
573 1 18.8711 15.725 12.5792 -8.951
574 1 20.4419 17.2974 14.1521 -8.95
575 1 -0.000561307 18.8699 12.5796 -8.94945
576 1 1.57153 20.4423 14.1522 -8.9494
577 1 3.14221 18.8713 12.5802 -8.94897
578 1 4.71542 20.4439 14.1532 -8.94943
579 1 6.28537 18.8761 12.582 -8.94945
580 1 7.86174 20.4444 14.153 -8.95228
581 1 9.43464 18.8735 12.5804 -8.95188
582 1 11.0074 20.442 14.1526 -8.94821
583 1 12.5804 18.8715 12.5796 -8.95288
584 1 14.1526 20.4433 14.1526 -8.95251
585 1 15.7265 18.8715 12.58 -8.94772
586 1 17.2976 20.4424 14.1522 -8.94927
587 1 18.8701 18.8701 12.5796 -8.94925
588 1 20.4417 20.442 14.152 -8.94943
673 1 22.0138 18.8696 18.8697 -8.94959
672 1 20.4419 17.2971 20.4419 -8.94946
671 1 18.8703 15.7251 18.8703 -8.94913
670 1 17.2977 17.2978 20.4423 -8.94955
669 1 15.7261 15.7262 18.8723 -8.95048
668 1 14.1519 17.2974 20.4417 -8.94993
667 1 12.5789 15.7248 18.8702 -8.95016
596 1 -0.000139224 12.5795 15.7253 -8.95018
597 1 1.57107 14.1522 17.298 -8.94924
598 1 3.1405 12.5794 15.7271 -8.94903
599 1 4.71331 14.153 17.3009 -8.94761
600 1 6.27926 12.579 15.7354 -8.94203
601 1 7.85791 14.1546 17.3082 -8.95837
602 1 9.42601 12.5802 15.7345 -8.97003
603 1 11.0069 14.1513 17.2948 -8.93917
604 1 12.5863 12.5787 15.7332 -8.96794
605 1 14.1555 14.1541 17.3052 -8.95587
606 1 15.7345 12.5803 15.7348 -8.94132
607 1 17.3003 14.1536 17.3002 -8.94761
608 1 18.8731 12.58 15.7268 -8.94929
609 1 20.4426 14.1524 17.2978 -8.9493
610 1 22.0136 15.7247 15.7249 -8.95046
611 1 1.5711 17.2976 17.2978 -8.95011
612 1 3.14066 15.7258 15.7267 -8.95187
613 1 4.7128 17.3011 17.3019 -8.94509
614 1 6.27628 15.737 15.7398 -8.93316
615 1 7.86213 17.2987 17.2997 -8.95183
616 1 9.43728 15.7253 15.7292 -8.9548
617 1 11.0074 17.2984 17.2985 -8.94686
618 1 12.5775 15.7236 15.7276 -8.95717
619 1 14.152 17.298 17.2988 -8.95227
620 1 15.7338 15.7331 15.734 -8.93587
621 1 17.2998 17.2999 17.2998 -8.94609
622 1 18.872 15.7258 15.7258 -8.95089
623 1 20.4423 17.2975 17.2975 -8.94988
624 1 22.0134 18.8698 15.7248 -8.94956
625 1 1.57166 20.4422 17.2973 -8.94918
626 1 3.14231 18.8713 15.7262 -8.94801
627 1 4.71604 20.4432 17.2982 -8.94936
628 1 6.2866 18.8744 15.7282 -8.94931
629 1 7.86232 20.4422 17.2974 -8.94959
630 1 9.43553 18.8703 15.7255 -8.94868
631 1 11.0071 20.4421 17.2974 -8.94963
632 1 12.5792 18.8697 15.725 -8.94852
633 1 14.1518 20.4419 17.2972 -8.9496
634 1 15.7271 18.8732 15.7273 -8.9487
635 1 17.2977 20.4428 17.2978 -8.94921
636 1 18.8701 18.8702 15.7248 -8.94994
637 1 20.4417 20.442 17.297 -8.94962
666 1 11.007 17.2977 20.4418 -8.94957
639 1 4.71601 11.0066 20.4431 -8.94932
665 1 9.43525 15.7251 18.8707 -8.95008
664 1 7.86205 17.2974 20.442 -8.94985
663 1 6.28745 15.7264 18.8738 -8.95131
643 1 17.2982 11.0068 20.4428 -8.94924
662 1 4.71613 17.2978 20.4428 -8.94997
645 1 22.0139 12.5795 18.8699 -8.94947
646 1 1.57196 14.152 20.4421 -8.94947
647 1 3.1433 12.5794 18.8707 -8.94939
648 1 4.71608 14.1521 20.4431 -8.94923
649 1 6.28706 12.5794 18.8738 -8.94885
650 1 7.86155 14.1522 20.4439 -8.9521
651 1 9.43445 12.5798 18.8726 -8.95059
652 1 11.0068 14.1524 20.4415 -8.9479
653 1 12.5794 12.5799 18.872 -8.95093
654 1 14.1524 14.1525 20.4429 -8.95169
655 1 15.727 12.5801 18.8733 -8.94891
656 1 17.298 14.1525 20.4426 -8.94913
657 1 18.8706 12.5797 18.8706 -8.94941
658 1 20.442 14.1521 20.442 -8.94948
351 1 22.014 12.5794 22.014 -8.94954
355 1 6.28891 12.5792 22.0149 -8.94969
357 1 9.43441 12.5793 22.0146 -8.94901
359 1 12.5795 12.5796 22.0129 -8.95105
363 1 18.87 12.5795 22.0139 -8.94945
367 1 3.14426 15.7244 22.0142 -8.94959
369 1 6.28889 15.7248 22.014 -8.95105
375 1 15.7254 15.7254 22.0133 -8.95022
377 1 18.8699 15.7247 22.0139 -8.94938
381 1 3.14414 18.8697 22.0139 -8.94945
248 1 3.14391 22.0143 15.725 -8.94942
258 1 18.8695 22.014 15.7245 -8.9496
295 1 22.0138 22.014 18.8693 -8.94937
595 1 20.4428 11.0068 17.298 -8.94937
594 1 17.301 11.0063 17.3009 -8.94776
532 1 20.4419 17.2976 11.0069 -8.94966
379 1 22.0139 18.8693 22.0139 -8.94956
