ITEM: TIMESTEP
30
ITEM: NUMBER OF ATOMS
688
ITEM: BOX BOUNDS pp pp pp
0.0000000000000000e+00 2.2013900999999997e+01
0.0000000000000000e+00 2.2013900999999997e+01
0.0000000000000000e+00 2.2013900999999997e+01
ITEM: ATOMS id type x y z c_pot
1 1 22.0139 2.04408e-13 -9.78267e-17 -8.94963
2 1 1.57242 1.57242 1.57242 -8.94963
3 1 3.14484 3.27939e-13 7.31456e-13 -8.94963
4 1 4.71726 1.57242 1.57242 -8.94963
448 1 20.4415 11.007 7.86211 -8.94963
6 1 7.86211 1.57242 1.57242 -8.94963
175 1 18.8691 9.43453 9.43453 -8.94964
8 1 11.007 1.57242 1.57242 -8.94963
174 1 15.7243 9.43452 9.43452 -8.95022
10 1 14.1518 1.57242 1.57242 -8.94963
11 1 15.7242 -1.00607e-12 4.41866e-12 -8.94963
12 1 17.2966 1.57242 1.57242 -8.94963
7 1 9.43453 3.0644e-11 7.14097e-11 -8.94963
14 1 20.4415 1.57242 1.57242 -8.94963
447 1 17.2966 11.007 7.86211 -8.94974
16 1 1.57242 4.71726 1.57242 -8.94963
446 1 14.1522 11.0069 7.86204 -8.9553
18 1 4.71726 4.71726 1.57242 -8.94963
445 1 11.0345 11.0069 7.80639 -7.88989
20 1 7.86211 4.71726 1.57242 -8.94963
56 1 9.43453 5.86343e-10 3.14484 -8.94963
22 1 11.007 4.71726 1.57242 -8.94963
444 1 7.85977 11.0069 7.86039 -8.91226
24 1 14.1518 4.71726 1.57242 -8.94963
443 1 4.71723 11.007 7.8621 -8.95015
26 1 17.2966 4.71726 1.57242 -8.94963
442 1 1.57242 11.007 7.86211 -8.94964
28 1 20.4415 4.71726 1.57242 -8.94963
397 1 14.1518 11.007 4.71729 -8.95087
30 1 1.57242 7.86211 1.57242 -8.94963
396 1 11.007 11.007 4.71643 -8.96143
32 1 4.71726 7.86211 1.57242 -8.94963
395 1 7.86212 11.007 4.71726 -8.95045
34 1 7.86211 7.86211 1.57242 -8.94963
35 1 9.43453 6.28969 7.16011e-09 -8.94963
36 1 11.007 7.86211 1.57242 -8.94963
37 1 12.5794 6.28969 8.71016e-09 -8.94963
38 1 14.1518 7.86211 1.57242 -8.94963
518 1 20.4415 11.007 11.007 -8.94963
40 1 17.2966 7.86211 1.57242 -8.94963
350 1 20.4415 11.007 1.57242 -8.94963
42 1 20.4415 7.86211 1.57242 -8.94963
58 1 12.5794 5.99177e-10 3.14484 -8.94963
44 1 3.14484 9.43453 2.24183e-10 -8.94963
348 1 14.1518 11.007 1.57242 -8.94963
347 1 11.007 11.007 1.57241 -8.94985
346 1 7.86211 11.007 1.57242 -8.94964
48 1 15.7242 9.43453 1.19706e-08 -8.94963
149 1 3.14484 4.72103e-10 9.43453 -8.94963
50 1 1.22976e-12 4.99707e-13 3.14484 -8.94963
51 1 1.57242 1.57242 4.71726 -8.94963
52 1 3.14484 1.33715e-11 3.14484 -8.94963
53 1 4.71726 1.57242 4.71726 -8.94963
517 1 17.2967 11.0069 11.0069 -8.94964
55 1 7.86211 1.57242 4.71726 -8.94963
173 1 12.5823 9.43223 9.43388 -8.89883
57 1 11.007 1.57242 4.71726 -8.94963
172 1 9.40651 9.37854 9.43398 -7.88448
59 1 14.1518 1.57242 4.71726 -8.94963
516 1 14.1524 11.0067 11.0068 -8.95081
61 1 17.2966 1.57242 4.71726 -8.94963
62 1 18.8691 1.331e-11 3.14484 -8.94963
63 1 20.4415 1.57242 4.71726 -8.94963
64 1 22.0139 3.14484 3.14484 -8.94963
65 1 1.57242 4.71726 4.71726 -8.94963
66 1 3.14484 3.14484 3.14484 -8.94963
67 1 4.71726 4.71726 4.71726 -8.94963
68 1 6.28969 3.14484 3.14484 -8.94963
69 1 7.86211 4.71727 4.71727 -8.94966
70 1 9.43453 3.14484 3.14484 -8.94963
71 1 11.007 4.71726 4.71726 -8.94964
72 1 12.5794 3.14484 3.14484 -8.94963
73 1 14.1518 4.71726 4.71726 -8.94963
74 1 15.7242 3.14484 3.14484 -8.94963
75 1 17.2966 4.71726 4.71726 -8.94963
76 1 18.8691 3.14484 3.14484 -8.94963
77 1 20.4415 4.71726 4.71726 -8.94963
78 1 22.0139 6.28969 3.14484 -8.94963
79 1 1.57242 7.86211 4.71726 -8.94963
80 1 3.14484 6.28969 3.14484 -8.94963
81 1 4.71726 7.86211 4.71726 -8.94964
82 1 6.28969 6.28969 3.14484 -8.94963
83 1 7.8621 7.8621 4.71725 -8.94972
84 1 9.43453 6.28969 3.14484 -8.94964
85 1 11.0069 7.86213 4.71729 -8.95046
86 1 12.5794 6.28969 3.14484 -8.94966
87 1 14.1518 7.8621 4.71725 -8.94934
88 1 15.7242 6.28969 3.14484 -8.94963
89 1 17.2966 7.86211 4.71726 -8.94963
90 1 18.8691 6.28969 3.14484 -8.94963
91 1 20.4415 7.86211 4.71726 -8.94963
92 1 5.43582e-10 9.43453 3.14484 -8.94963
93 1 3.14484 9.43453 3.14484 -8.94963
94 1 6.28969 9.43453 3.14484 -8.94964
95 1 9.43452 9.43452 3.14483 -8.94954
96 1 12.5794 9.43452 3.14483 -8.94966
97 1 15.7242 9.43453 3.14484 -8.94966
98 1 18.8691 9.43453 3.14484 -8.94963
513 1 4.71722 11.0069 11.007 -8.95005
100 1 1.57242 1.57242 7.86211 -8.94963
189 1 20.4415 4.71726 11.007 -8.94963
102 1 4.71726 1.57242 7.86211 -8.94963
103 1 6.28969 4.09791e-09 6.28969 -8.94963
104 1 7.86211 1.57242 7.86211 -8.94963
171 1 6.28927 9.43447 9.43453 -8.95565
106 1 11.007 1.57242 7.86211 -8.94963
170 1 3.14484 9.43453 9.43453 -8.94973
108 1 14.1518 1.57242 7.86211 -8.94963
109 1 15.7242 4.09835e-09 6.28969 -8.94963
110 1 17.2966 1.57242 7.86211 -8.94963
188 1 17.2966 4.71726 11.007 -8.94963
112 1 20.4415 1.57242 7.86211 -8.94963
113 1 1.33177e-10 3.14484 6.28969 -8.94963
114 1 1.57242 4.71726 7.86211 -8.94963
115 1 3.14484 3.14484 6.28969 -8.94963
116 1 4.71727 4.71727 7.86211 -8.94966
117 1 6.28969 3.14484 6.28969 -8.94963
118 1 7.8621 4.71725 7.8621 -8.94966
119 1 9.43453 3.14484 6.28969 -8.94964
120 1 11.007 4.71726 7.8621 -8.94953
121 1 12.5794 3.14484 6.28969 -8.94963
122 1 14.1518 4.71726 7.86211 -8.94964
123 1 15.7242 3.14484 6.28969 -8.94963
124 1 17.2966 4.71726 7.86211 -8.94963
125 1 18.8691 3.14484 6.28969 -8.94963
126 1 20.4415 4.71726 7.86211 -8.94963
127 1 22.0139 6.28969 6.28969 -8.94963
128 1 1.57242 7.86211 7.86211 -8.94963
129 1 3.14484 6.28969 6.28969 -8.94963
130 1 4.71725 7.86211 7.8621 -8.94976
131 1 6.28968 6.28967 6.28967 -8.94933
132 1 7.86144 7.86147 7.86144 -8.93234
133 1 9.43453 6.28971 6.28971 -8.9505
134 1 11.0072 7.86198 7.86189 -8.94521
135 1 12.5794 6.28968 6.28968 -8.94975
136 1 14.1518 7.86208 7.86207 -8.94907
137 1 15.7242 6.28969 6.28969 -8.94964
138 1 17.2966 7.86211 7.86211 -8.94963
139 1 18.8691 6.28969 6.28969 -8.94963
140 1 20.4415 7.86211 7.86211 -8.94963
141 1 22.0139 9.43453 6.28969 -8.94963
142 1 3.14484 9.43453 6.28969 -8.94963
143 1 6.28967 9.4345 6.28967 -8.94937
144 1 9.43428 9.43427 6.28951 -8.94439
145 1 12.58 9.43387 6.28905 -8.93283
146 1 15.7242 9.43453 6.28968 -8.94977
147 1 18.8691 9.43453 6.28969 -8.94963
148 1 6.73281e-11 1.18455e-11 9.43453 -8.94963
169 1 22.0139 9.43453 9.43453 -8.94963
168 1 18.8691 6.28969 9.43453 -8.94963
151 1 9.43453 1.90292e-07 9.43453 -8.94964
152 1 12.5794 1.90351e-07 9.43453 -8.94963
167 1 15.7242 6.28969 9.43453 -8.94971
166 1 12.5794 6.28967 9.43452 -8.95047
155 1 22.0139 3.14484 9.43453 -8.94963
156 1 3.14484 3.14484 9.43453 -8.94963
157 1 6.28969 3.14484 9.43453 -8.94963
158 1 9.43453 3.14483 9.43453 -8.94985
159 1 12.5794 3.14484 9.43453 -8.94965
160 1 15.7242 3.14484 9.43453 -8.94963
161 1 18.8691 3.14484 9.43453 -8.94963
162 1 1.46131e-09 6.28969 9.43453 -8.94963
163 1 3.14484 6.28969 9.43453 -8.94963
164 1 6.28972 6.28972 9.43453 -8.95089
165 1 9.43451 6.28884 9.43452 -8.96133
344 1 1.57242 11.007 1.57242 -8.94963
183 1 1.57242 4.71726 11.007 -8.94963
181 1 17.2966 1.57242 11.007 -8.94963
154 1 18.8691 4.81177e-10 9.43453 -8.94963
177 1 4.71726 1.57242 11.007 -8.94963
9 1 12.5794 3.03478e-11 1.20032e-11 -8.94963
184 1 4.71727 4.71727 11.007 -8.94966
512 1 1.57242 11.007 11.007 -8.94964
41 1 18.8691 6.28969 1.29496e-10 -8.94963
19 1 6.28969 3.14484 1.48841e-10 -8.94963
25 1 15.7242 3.14484 8.60708e-11 -8.94963
176 1 1.57242 1.57242 11.007 -8.94963
199 1 3.14484 3.69272e-10 12.5794 -8.94963
178 1 7.86211 1.57242 11.007 -8.94963
179 1 11.007 1.57242 11.007 -8.94964
180 1 14.1518 1.57242 11.007 -8.94963
644 1 20.4415 11.007 20.4415 -8.94963
182 1 20.4415 1.57242 11.007 -8.94963
642 1 14.1518 11.007 20.4415 -8.94963
209 1 18.8691 3.66872e-10 12.5794 -8.94963
185 1 7.8621 4.71725 11.007 -8.94966
186 1 11.007 4.71725 11.007 -8.94977
187 1 14.1518 4.71726 11.007 -8.94965
641 1 11.007 11.007 20.4415 -8.94964
640 1 7.86211 11.007 20.4415 -8.94963
190 1 1.57242 7.86211 11.007 -8.94963
191 1 4.71725 7.86211 11.007 -8.94977
192 1 7.86148 7.86151 11.0076 -8.93344
193 1 11.0072 7.86107 11.0072 -8.95676
194 1 14.1518 7.86211 11.007 -8.95039
195 1 17.2966 7.86211 11.007 -8.94964
196 1 20.4415 7.86211 11.007 -8.94963
343 1 18.8691 9.43453 18.8691 -8.94963
198 1 1.57242 1.57242 14.1518 -8.94963
342 1 15.7242 9.43453 18.8691 -8.94963
200 1 4.71726 1.57242 14.1518 -8.94963
341 1 12.5794 9.43453 18.8691 -8.94964
202 1 7.86211 1.57242 14.1518 -8.94963
203 1 9.43453 1.35276e-07 12.5794 -8.94963
204 1 11.007 1.57242 14.1518 -8.94963
205 1 12.5794 1.35307e-07 12.5794 -8.94963
206 1 14.1518 1.57242 14.1518 -8.94963
340 1 9.43453 9.43453 18.8691 -8.94964
208 1 17.2966 1.57242 14.1518 -8.94963
339 1 6.28969 9.43453 18.8691 -8.94963
210 1 20.4415 1.57242 14.1518 -8.94963
211 1 1.32591e-10 3.14484 12.5794 -8.94963
212 1 1.57242 4.71726 14.1518 -8.94963
213 1 3.14484 3.14484 12.5794 -8.94963
214 1 4.71726 4.71726 14.1518 -8.94963
215 1 6.28969 3.14484 12.5794 -8.94963
216 1 7.86211 4.71726 14.1518 -8.94966
217 1 9.43453 3.14484 12.5794 -8.94964
218 1 11.007 4.71726 14.1518 -8.94965
219 1 12.5794 3.14484 12.5794 -8.94963
220 1 14.1518 4.71726 14.1518 -8.94963
221 1 15.7242 3.14484 12.5794 -8.94963
222 1 17.2966 4.71726 14.1518 -8.94963
223 1 18.8691 3.14484 12.5794 -8.94963
224 1 20.4415 4.71726 14.1518 -8.94963
225 1 22.0139 6.28969 12.5794 -8.94963
226 1 1.57242 7.86211 14.1518 -8.94963
227 1 3.14484 6.28969 12.5794 -8.94963
228 1 4.71727 7.86211 14.1518 -8.94967
229 1 6.28968 6.28968 12.5794 -8.94935
230 1 7.8621 7.86209 14.1518 -8.94979
231 1 9.43452 6.2897 12.5794 -8.95038
232 1 11.0069 7.86212 14.1518 -8.95147
233 1 12.5794 6.28967 12.5794 -8.94964
234 1 14.1518 7.86208 14.1518 -8.94939
235 1 15.7242 6.28969 12.5794 -8.94965
236 1 17.2966 7.86211 14.1518 -8.94966
237 1 18.8691 6.28969 12.5794 -8.94963
238 1 20.4415 7.86211 14.1518 -8.94963
239 1 22.0139 9.43453 12.5794 -8.94963
240 1 3.14484 9.43453 12.5794 -8.94964
241 1 6.28969 9.43453 12.5794 -8.95021
242 1 9.43398 9.43407 12.5798 -8.93729
243 1 12.5804 9.43363 12.5803 -8.92264
244 1 15.7242 9.43455 12.5794 -8.95062
245 1 18.8691 9.43453 12.5794 -8.94964
246 1 1.21389e-12 1.35179e-11 15.7242 -8.94963
247 1 1.57242 1.57242 17.2966 -8.94963
47 1 12.5794 9.43453 22.0139 -8.94963
249 1 4.71726 1.57242 17.2966 -8.94963
250 1 6.28969 3.46421e-09 15.7242 -8.94963
251 1 7.86211 1.57242 17.2966 -8.94963
252 1 9.43453 4.27688e-10 15.7242 -8.94963
253 1 11.007 1.57242 17.2966 -8.94963
254 1 12.5794 4.36727e-10 15.7242 -8.94963
255 1 14.1518 1.57242 17.2966 -8.94963
256 1 15.7242 3.4643e-09 15.7242 -8.94963
257 1 17.2966 1.57242 17.2966 -8.94963
46 1 9.43453 9.43453 22.0139 -8.94963
259 1 20.4415 1.57242 17.2966 -8.94963
260 1 22.0139 3.14484 15.7242 -8.94963
261 1 1.57242 4.71726 17.2966 -8.94963
262 1 3.14484 3.14484 15.7242 -8.94963
263 1 4.71726 4.71726 17.2966 -8.94963
264 1 6.28969 3.14484 15.7242 -8.94963
265 1 7.86211 4.71726 17.2966 -8.94963
266 1 9.43453 3.14484 15.7242 -8.94963
267 1 11.007 4.71726 17.2966 -8.94963
268 1 12.5794 3.14484 15.7242 -8.94963
269 1 14.1518 4.71726 17.2966 -8.94963
270 1 15.7242 3.14484 15.7242 -8.94963
271 1 17.2966 4.71726 17.2966 -8.94963
272 1 18.8691 3.14484 15.7242 -8.94963
273 1 20.4415 4.71726 17.2966 -8.94963
274 1 22.0139 6.28969 15.7242 -8.94963
275 1 1.57242 7.86211 17.2966 -8.94963
276 1 3.14484 6.28969 15.7242 -8.94963
277 1 4.71726 7.86211 17.2966 -8.94963
278 1 6.28969 6.28969 15.7242 -8.94963
279 1 7.86211 7.86211 17.2966 -8.94964
280 1 9.43453 6.28969 15.7242 -8.94965
281 1 11.007 7.86211 17.2966 -8.94969
282 1 12.5794 6.28969 15.7242 -8.94967
283 1 14.1518 7.86211 17.2966 -8.94964
284 1 15.7242 6.28969 15.7242 -8.94963
285 1 17.2966 7.86211 17.2966 -8.94963
286 1 18.8691 6.28969 15.7242 -8.94963
287 1 20.4415 7.86211 17.2966 -8.94963
288 1 5.35928e-10 9.43453 15.7242 -8.94963
289 1 3.14484 9.43453 15.7242 -8.94963
290 1 6.28968 9.43452 15.7242 -8.94935
291 1 9.4345 9.43451 15.7242 -8.94929
292 1 12.5794 9.43451 15.7242 -8.94942
293 1 15.7242 9.43452 15.7242 -8.94937
294 1 18.8691 9.43453 15.7242 -8.94963
45 1 6.28969 9.43453 22.0139 -8.94963
296 1 1.57242 1.57242 20.4415 -8.94963
297 1 3.14484 3.68981e-11 18.8691 -8.94963
298 1 4.71726 1.57242 20.4415 -8.94963
299 1 6.28969 3.18478e-11 18.8691 -8.94963
300 1 7.86211 1.57242 20.4415 -8.94963
338 1 3.14484 9.43453 18.8691 -8.94963
302 1 11.007 1.57242 20.4415 -8.94963
337 1 22.0139 9.43453 18.8691 -8.94963
304 1 14.1518 1.57242 20.4415 -8.94963
305 1 15.7242 3.2106e-11 18.8691 -8.94963
306 1 17.2966 1.57242 20.4415 -8.94963
307 1 18.8691 3.68835e-11 18.8691 -8.94963
308 1 20.4415 1.57242 20.4415 -8.94963
309 1 22.0139 3.14484 18.8691 -8.94963
310 1 1.57242 4.71726 20.4415 -8.94963
311 1 3.14484 3.14484 18.8691 -8.94963
312 1 4.71726 4.71726 20.4415 -8.94963
313 1 6.28969 3.14484 18.8691 -8.94963
314 1 7.86211 4.71726 20.4415 -8.94963
315 1 9.43453 3.14484 18.8691 -8.94963
316 1 11.007 4.71726 20.4415 -8.94963
317 1 12.5794 3.14484 18.8691 -8.94963
318 1 14.1518 4.71726 20.4415 -8.94963
319 1 15.7242 3.14484 18.8691 -8.94963
320 1 17.2966 4.71726 20.4415 -8.94963
321 1 18.8691 3.14484 18.8691 -8.94963
322 1 20.4415 4.71726 20.4415 -8.94963
323 1 22.0139 6.28969 18.8691 -8.94963
324 1 1.57242 7.86211 20.4415 -8.94963
325 1 3.14484 6.28969 18.8691 -8.94963
326 1 4.71726 7.86211 20.4415 -8.94963
327 1 6.28969 6.28969 18.8691 -8.94963
328 1 7.86211 7.86211 20.4415 -8.94963
329 1 9.43453 6.28969 18.8691 -8.94963
330 1 11.007 7.86211 20.4415 -8.94963
331 1 12.5794 6.28969 18.8691 -8.94963
332 1 14.1518 7.86211 20.4415 -8.94963
333 1 15.7242 6.28969 18.8691 -8.94963
334 1 17.2966 7.86211 20.4415 -8.94963
335 1 18.8691 6.28969 18.8691 -8.94963
336 1 20.4415 7.86211 20.4415 -8.94963
29 1 22.0139 6.28969 22.0139 -8.94963
638 1 1.57242 11.007 20.4415 -8.94963
514 1 7.85962 11.0067 11.0084 -8.90735
515 1 11.0362 10.9478 11.0366 -6.68535
27 1 18.8691 3.14484 22.0139 -8.94963
39 1 15.7242 6.28969 22.0139 -8.94963
593 1 14.1518 11.0069 17.2966 -8.94976
540 1 1.57242 11.007 14.1518 -8.94963
541 1 4.71725 11.0069 14.1518 -8.94971
542 1 7.8615 11.0063 14.1525 -8.93345
543 1 11.007 11.0053 14.1549 -8.929
544 1 14.1524 11.0063 14.1524 -8.93381
545 1 17.2967 11.0069 14.1518 -8.94965
546 1 20.4415 11.007 14.1518 -8.94963
33 1 6.28969 6.28969 22.0139 -8.94963
31 1 3.14484 6.28969 22.0139 -8.94963
591 1 7.86211 11.0069 17.2966 -8.94977
592 1 11.007 11.0069 17.2967 -8.95033
5 1 6.28969 -1.03713e-12 22.0139 -8.94963
15 1 22.0139 3.14484 22.0139 -8.94963
17 1 3.14484 3.14484 22.0139 -8.94963
23 1 12.5794 3.14484 22.0139 -8.94963
13 1 18.8691 3.24253e-13 22.0139 -8.94963
21 1 9.43453 3.14484 22.0139 -8.94963
43 1 22.0139 9.43453 22.0139 -8.94963
49 1 18.8691 9.43453 22.0139 -8.94963
688 3 10.2193 11.0081 9.43242 4.35287
511 1 18.8691 18.8691 9.43453 -8.94963
510 1 15.7242 18.8691 9.43453 -8.94966
509 1 12.5794 18.8691 9.43452 -8.94967
508 1 9.43452 18.8691 9.43452 -8.94988
349 1 17.2966 11.007 1.57242 -8.94963
507 1 6.28969 18.8691 9.43453 -8.94966
539 1 20.4415 20.4415 11.007 -8.94963
352 1 1.57242 14.1518 1.57242 -8.94963
353 1 3.14484 12.5794 5.36915e-10 -8.94963
354 1 4.71726 14.1518 1.57242 -8.94963
153 1 15.7242 22.0139 9.43453 -8.94963
356 1 7.86211 14.1518 1.57242 -8.94963
150 1 6.28969 22.0139 9.43453 -8.94963
358 1 11.007 14.1518 1.57242 -8.94964
345 1 4.71726 11.007 1.57242 -8.94963
360 1 14.1518 14.1518 1.57242 -8.94963
361 1 15.7242 12.5794 8.32703e-09 -8.94963
362 1 17.2966 14.1518 1.57242 -8.94963
107 1 12.5794 22.0139 6.28969 -8.94963
364 1 20.4415 14.1518 1.57242 -8.94963
365 1 22.0139 15.7242 1.70652e-11 -8.94963
366 1 1.57242 17.2966 1.57242 -8.94963
105 1 9.43453 22.0139 6.28969 -8.94963
368 1 4.71726 17.2966 1.57242 -8.94963
529 1 11.007 17.2975 11.0069 -8.9613
370 1 7.86211 17.2966 1.57242 -8.94963
371 1 9.43453 15.7242 1.44424e-08 -8.94963
372 1 11.007 17.2966 1.57242 -8.94963
373 1 12.5794 15.7242 1.6057e-08 -8.94963
374 1 14.1518 17.2966 1.57242 -8.94963
526 1 1.57242 17.2966 11.007 -8.94963
376 1 17.2966 17.2966 1.57242 -8.94963
525 1 20.4415 14.1518 11.007 -8.94963
378 1 20.4415 17.2966 1.57242 -8.94963
111 1 18.8691 22.0139 6.28969 -8.94963
380 1 1.57242 20.4415 1.57242 -8.94963
495 1 12.5834 12.5811 9.4322 -8.87681
382 1 4.71726 20.4415 1.57242 -8.94963
383 1 6.28969 18.8691 1.68114e-10 -8.94963
384 1 7.86211 20.4415 1.57242 -8.94963
494 1 9.40542 12.6348 9.43234 -7.84347
386 1 11.007 20.4415 1.57242 -8.94963
493 1 6.28928 12.5794 9.43454 -8.95635
388 1 14.1518 20.4415 1.57242 -8.94963
389 1 15.7242 18.8691 1.07206e-10 -8.94963
390 1 17.2966 20.4415 1.57242 -8.94963
391 1 18.8691 18.8691 2.39152e-11 -8.94963
392 1 20.4415 20.4415 1.57242 -8.94963
506 1 3.14484 18.8691 9.43453 -8.94963
394 1 4.71727 11.007 4.71727 -8.94969
505 1 22.0139 18.8691 9.43453 -8.94963
504 1 18.8691 15.7242 9.43453 -8.94963
503 1 15.7242 15.7242 9.43452 -8.94978
398 1 17.2966 11.007 4.71726 -8.94963
399 1 20.4415 11.007 4.71726 -8.94963
400 1 5.44704e-10 12.5794 3.14484 -8.94963
401 1 1.57242 14.1518 4.71726 -8.94963
402 1 3.14484 12.5794 3.14484 -8.94963
403 1 4.71726 14.1518 4.71726 -8.94964
404 1 6.28969 12.5794 3.14484 -8.94964
405 1 7.8621 14.1518 4.71725 -8.94973
406 1 9.43452 12.5794 3.14483 -8.94955
407 1 11.0069 14.1518 4.71728 -8.95057
408 1 12.5794 12.5794 3.14483 -8.94967
409 1 14.1518 14.1518 4.71725 -8.94934
410 1 15.7242 12.5794 3.14484 -8.94966
411 1 17.2966 14.1518 4.71726 -8.94963
412 1 18.8691 12.5794 3.14484 -8.94963
413 1 20.4415 14.1518 4.71726 -8.94963
414 1 22.0139 15.7242 3.14484 -8.94963
415 1 1.57242 17.2966 4.71726 -8.94963
416 1 3.14484 15.7242 3.14484 -8.94963
417 1 4.71726 17.2966 4.71726 -8.94963
418 1 6.28969 15.7242 3.14484 -8.94963
419 1 7.86211 17.2966 4.71726 -8.94966
420 1 9.43453 15.7242 3.14484 -8.94964
421 1 11.007 17.2966 4.71726 -8.94963
422 1 12.5794 15.7242 3.14484 -8.94966
423 1 14.1518 17.2966 4.71726 -8.94963
424 1 15.7242 15.7242 3.14484 -8.94963
425 1 17.2966 17.2966 4.71726 -8.94963
426 1 18.8691 15.7242 3.14484 -8.94963
427 1 20.4415 17.2966 4.71726 -8.94963
428 1 22.0139 18.8691 3.14484 -8.94963
429 1 1.57242 20.4415 4.71726 -8.94963
430 1 3.14484 18.8691 3.14484 -8.94963
431 1 4.71726 20.4415 4.71726 -8.94963
432 1 6.28969 18.8691 3.14484 -8.94963
433 1 7.86211 20.4415 4.71726 -8.94963
434 1 9.43453 18.8691 3.14484 -8.94963
435 1 11.007 20.4415 4.71726 -8.94963
436 1 12.5794 18.8691 3.14484 -8.94963
437 1 14.1518 20.4415 4.71726 -8.94963
438 1 15.7242 18.8691 3.14484 -8.94963
439 1 17.2966 20.4415 4.71726 -8.94963
440 1 18.8691 18.8691 3.14484 -8.94963
441 1 20.4415 20.4415 4.71726 -8.94963
502 1 12.58 15.7248 9.43387 -8.93348
501 1 9.43386 15.7257 9.43388 -8.94457
500 1 6.2897 15.7242 9.43452 -8.95096
499 1 3.14484 15.7242 9.43453 -8.94963
498 1 1.42318e-09 15.7242 9.43453 -8.94963
497 1 18.8691 12.5794 9.43453 -8.94965
496 1 15.7243 12.5794 9.43454 -8.95096
449 1 22.0139 12.5794 6.28969 -8.94963
450 1 1.57242 14.1518 7.86211 -8.94963
451 1 3.14484 12.5794 6.28969 -8.94963
452 1 4.71725 14.1518 7.8621 -8.94977
453 1 6.28967 12.5794 6.28967 -8.94942
454 1 7.86143 14.1524 7.86142 -8.93214
455 1 9.43428 12.5796 6.28949 -8.94479
456 1 11.0072 14.152 7.86145 -8.95042
457 1 12.58 12.58 6.28903 -8.93324
458 1 14.1518 14.1518 7.86206 -8.94906
459 1 15.7242 12.5794 6.28969 -8.94982
460 1 17.2966 14.1518 7.86211 -8.94964
461 1 18.8691 12.5794 6.28969 -8.94963
462 1 20.4415 14.1518 7.86211 -8.94963
463 1 22.0139 15.7242 6.28969 -8.94963
464 1 1.57242 17.2966 7.86211 -8.94963
465 1 3.14484 15.7242 6.28969 -8.94963
466 1 4.71726 17.2966 7.86211 -8.94966
467 1 6.28968 15.7242 6.28967 -8.94935
468 1 7.86209 17.2967 7.86209 -8.94937
469 1 9.43453 15.7242 6.2897 -8.95061
470 1 11.007 17.2966 7.86213 -8.95077
471 1 12.5794 15.7242 6.28967 -8.94985
472 1 14.1518 17.2966 7.8621 -8.94935
473 1 15.7242 15.7242 6.28969 -8.94965
474 1 17.2966 17.2966 7.86211 -8.94963
475 1 18.8691 15.7242 6.28969 -8.94963
476 1 20.4415 17.2966 7.86211 -8.94963
477 1 1.32349e-10 18.8691 6.28969 -8.94963
478 1 1.57242 20.4415 7.86211 -8.94963
479 1 3.14484 18.8691 6.28969 -8.94963
480 1 4.71726 20.4415 7.86211 -8.94963
481 1 6.28969 18.8691 6.28969 -8.94963
482 1 7.86211 20.4415 7.86211 -8.94963
483 1 9.43453 18.8691 6.28969 -8.94966
484 1 11.007 20.4415 7.86211 -8.94963
485 1 12.5794 18.8691 6.28969 -8.94966
486 1 14.1518 20.4415 7.86211 -8.94963
487 1 15.7242 18.8691 6.28969 -8.94963
488 1 17.2966 20.4415 7.86211 -8.94963
489 1 18.8691 18.8691 6.28969 -8.94963
490 1 20.4415 20.4415 7.86211 -8.94963
491 1 22.0139 12.5794 9.43453 -8.94963
492 1 3.14484 12.5794 9.43453 -8.94974
519 1 1.57242 14.1518 11.007 -8.94963
520 1 4.71725 14.1518 11.0069 -8.94967
522 1 11.0072 14.2075 10.9797 -7.86949
523 1 14.152 14.1521 11.0067 -8.94388
524 1 17.2966 14.1518 11.0069 -8.94954
393 1 1.57242 11.007 4.71726 -8.94963
54 1 6.28969 22.0139 3.14484 -8.94963
60 1 15.7242 22.0139 3.14484 -8.94963
99 1 22.0139 22.0139 6.28969 -8.94963
101 1 3.14484 22.0139 6.28969 -8.94963
527 1 4.71727 17.2966 11.007 -8.94967
534 1 4.71726 20.4415 11.007 -8.94963
687 3 11.0063 12.582 11.7933 4.35139
686 1 20.4415 20.4415 20.4415 -8.94963
685 1 18.8691 18.8691 18.8691 -8.94963
684 1 17.2966 20.4415 20.4415 -8.94963
683 1 15.7242 18.8691 18.8691 -8.94963
682 1 14.1518 20.4415 20.4415 -8.94963
681 1 12.5794 18.8691 18.8691 -8.94963
303 1 12.5794 22.0139 18.8691 -8.94963
301 1 9.43453 22.0139 18.8691 -8.94963
521 1 7.86129 14.1527 11.0074 -8.92754
387 1 12.5794 18.8691 22.0139 -8.94963
207 1 15.7242 22.0139 12.5794 -8.94963
201 1 6.28969 22.0139 12.5794 -8.94963
385 1 9.43453 18.8691 22.0139 -8.94963
197 1 22.0139 22.0139 12.5794 -8.94963
590 1 4.71727 11.007 17.2966 -8.94966
528 1 7.86212 17.2966 11.007 -8.9505
661 1 3.14484 15.7242 18.8691 -8.94963
530 1 14.1518 17.2966 11.007 -8.95049
531 1 17.2966 17.2966 11.007 -8.94964
660 1 1.57242 17.2966 20.4415 -8.94963
533 1 1.57242 20.4415 11.007 -8.94963
589 1 1.57242 11.007 17.2966 -8.94963
535 1 7.86211 20.4415 11.007 -8.94964
536 1 11.007 20.4415 11.007 -8.94985
537 1 14.1518 20.4415 11.007 -8.94964
538 1 17.2966 20.4415 11.007 -8.94963
659 1 22.0139 15.7242 18.8691 -8.94963
680 1 11.007 20.4415 20.4415 -8.94963
679 1 9.43453 18.8691 18.8691 -8.94963
678 1 7.86211 20.4415 20.4415 -8.94963
677 1 6.28969 18.8691 18.8691 -8.94963
676 1 4.71726 20.4415 20.4415 -8.94963
675 1 3.14484 18.8691 18.8691 -8.94963
674 1 1.57242 20.4415 20.4415 -8.94963
547 1 22.0139 12.5794 12.5794 -8.94964
548 1 1.57242 14.1518 14.1518 -8.94963
549 1 3.14483 12.5794 12.5794 -8.94985
550 1 4.71725 14.1518 14.1518 -8.94967
551 1 6.28884 12.5794 12.5794 -8.96109
552 1 7.86148 14.1525 14.1525 -8.93277
553 1 9.37885 12.5796 12.607 -7.88216
554 1 11.0069 14.1535 14.1541 -8.91323
555 1 12.6354 12.5799 12.6074 -7.88505
556 1 14.1524 14.1525 14.1525 -8.93234
557 1 15.7251 12.5794 12.5794 -8.96143
558 1 17.2967 14.1518 14.1518 -8.94966
559 1 18.8691 12.5794 12.5794 -8.94985
560 1 20.4415 14.1518 14.1518 -8.94963
561 1 22.0139 15.7242 12.5794 -8.94963
562 1 1.57242 17.2966 14.1518 -8.94963
563 1 3.14484 15.7242 12.5794 -8.94964
564 1 4.71726 17.2966 14.1518 -8.94965
565 1 6.2897 15.7242 12.5794 -8.95018
566 1 7.86211 17.2966 14.1518 -8.94975
567 1 9.43427 15.7244 12.5796 -8.94509
568 1 11.007 17.2966 14.1518 -8.95046
569 1 12.5796 15.7244 12.5796 -8.94431
570 1 14.1518 17.2966 14.1518 -8.94972
571 1 15.7242 15.7242 12.5794 -8.95048
572 1 17.2966 17.2966 14.1518 -8.94966
573 1 18.8691 15.7242 12.5794 -8.94963
574 1 20.4415 17.2966 14.1518 -8.94963
575 1 1.31992e-10 18.8691 12.5794 -8.94963
576 1 1.57242 20.4415 14.1518 -8.94963
577 1 3.14484 18.8691 12.5794 -8.94963
578 1 4.71726 20.4415 14.1518 -8.94963
579 1 6.28969 18.8691 12.5794 -8.94964
580 1 7.86211 20.4415 14.1518 -8.94963
581 1 9.43452 18.8691 12.5794 -8.94954
582 1 11.007 20.4415 14.1518 -8.94964
583 1 12.5794 18.8691 12.5794 -8.94954
584 1 14.1518 20.4415 14.1518 -8.94963
585 1 15.7242 18.8691 12.5794 -8.94964
586 1 17.2966 20.4415 14.1518 -8.94963
587 1 18.8691 18.8691 12.5794 -8.94963
588 1 20.4415 20.4415 14.1518 -8.94963
673 1 22.0139 18.8691 18.8691 -8.94963
672 1 20.4415 17.2966 20.4415 -8.94963
671 1 18.8691 15.7242 18.8691 -8.94963
670 1 17.2966 17.2966 20.4415 -8.94963
669 1 15.7242 15.7242 18.8691 -8.94963
668 1 14.1518 17.2966 20.4415 -8.94963
667 1 12.5794 15.7242 18.8691 -8.94963
596 1 5.48303e-10 12.5794 15.7242 -8.94963
597 1 1.57242 14.1518 17.2966 -8.94963
598 1 3.14484 12.5794 15.7242 -8.94963
599 1 4.71727 14.1518 17.2966 -8.94966
600 1 6.28972 12.5794 15.7242 -8.95088
601 1 7.86211 14.1518 17.2966 -8.94976
602 1 9.43447 12.5794 15.7246 -8.95554
603 1 11.007 14.1518 17.2967 -8.95014
604 1 12.5794 12.5794 15.7246 -8.95562
605 1 14.1518 14.1518 17.2966 -8.94976
606 1 15.7242 12.5794 15.7242 -8.9509
607 1 17.2966 14.1518 17.2966 -8.94966
608 1 18.8691 12.5794 15.7242 -8.94963
609 1 20.4415 14.1518 17.2966 -8.94963
610 1 22.0139 15.7242 15.7242 -8.94963
611 1 1.57242 17.2966 17.2966 -8.94963
612 1 3.14484 15.7242 15.7242 -8.94963
613 1 4.71726 17.2966 17.2966 -8.94963
614 1 6.28967 15.7242 15.7242 -8.94934
615 1 7.86211 17.2966 17.2966 -8.94964
616 1 9.4345 15.7242 15.7242 -8.94936
617 1 11.007 17.2966 17.2966 -8.94969
618 1 12.5794 15.7242 15.7242 -8.94938
619 1 14.1518 17.2966 17.2966 -8.94964
620 1 15.7242 15.7242 15.7242 -8.94933
621 1 17.2966 17.2966 17.2966 -8.94963
622 1 18.8691 15.7242 15.7242 -8.94963
623 1 20.4415 17.2966 17.2966 -8.94963
624 1 22.0139 18.8691 15.7242 -8.94963
625 1 1.57242 20.4415 17.2966 -8.94963
626 1 3.14484 18.8691 15.7242 -8.94963
627 1 4.71726 20.4415 17.2966 -8.94963
628 1 6.28969 18.8691 15.7242 -8.94963
629 1 7.86211 20.4415 17.2966 -8.94963
630 1 9.43453 18.8691 15.7242 -8.94964
631 1 11.007 20.4415 17.2966 -8.94963
632 1 12.5794 18.8691 15.7242 -8.94964
633 1 14.1518 20.4415 17.2966 -8.94963
634 1 15.7242 18.8691 15.7242 -8.94963
635 1 17.2966 20.4415 17.2966 -8.94963
636 1 18.8691 18.8691 15.7242 -8.94963
637 1 20.4415 20.4415 17.2966 -8.94963
666 1 11.007 17.2966 20.4415 -8.94963
639 1 4.71726 11.007 20.4415 -8.94963
665 1 9.43453 15.7242 18.8691 -8.94963
664 1 7.86211 17.2966 20.4415 -8.94963
663 1 6.28969 15.7242 18.8691 -8.94963
643 1 17.2966 11.007 20.4415 -8.94963
662 1 4.71726 17.2966 20.4415 -8.94963
645 1 22.0139 12.5794 18.8691 -8.94963
646 1 1.57242 14.1518 20.4415 -8.94963
647 1 3.14484 12.5794 18.8691 -8.94963
648 1 4.71726 14.1518 20.4415 -8.94963
649 1 6.28969 12.5794 18.8691 -8.94963
650 1 7.86211 14.1518 20.4415 -8.94963
651 1 9.43453 12.5794 18.8691 -8.94973
652 1 11.007 14.1518 20.4415 -8.94964
653 1 12.5794 12.5794 18.8691 -8.94973
654 1 14.1518 14.1518 20.4415 -8.94963
655 1 15.7242 12.5794 18.8691 -8.94963
656 1 17.2966 14.1518 20.4415 -8.94963
657 1 18.8691 12.5794 18.8691 -8.94963
658 1 20.4415 14.1518 20.4415 -8.94963
351 1 22.0139 12.5794 22.0139 -8.94963
355 1 6.28969 12.5794 22.0139 -8.94963
357 1 9.43453 12.5794 22.0139 -8.94963
359 1 12.5794 12.5794 22.0139 -8.94964
363 1 18.8691 12.5794 22.0139 -8.94963
367 1 3.14484 15.7242 22.0139 -8.94963
369 1 6.28969 15.7242 22.0139 -8.94963
375 1 15.7242 15.7242 22.0139 -8.94963
377 1 18.8691 15.7242 22.0139 -8.94963
381 1 3.14484 18.8691 22.0139 -8.94963
248 1 3.14484 22.0139 15.7242 -8.94963
258 1 18.8691 22.0139 15.7242 -8.94963
295 1 22.0139 22.0139 18.8691 -8.94963
595 1 20.4415 11.007 17.2966 -8.94963
594 1 17.2966 11.007 17.2966 -8.94966
532 1 20.4415 17.2966 11.007 -8.94963
379 1 22.0139 18.8691 22.0139 -8.94963
