ITEM: TIMESTEP
87
ITEM: NUMBER OF ATOMS
688
ITEM: BOX BOUNDS pp pp pp
0.0000000000000000e+00 2.2013900999999997e+01
0.0000000000000000e+00 2.2013900999999997e+01
0.0000000000000000e+00 2.2013900999999997e+01
ITEM: ATOMS id type x y z c_pot
1 1 22.0138 6.19557e-05 1.07329e-05 -8.94927
2 1 1.5721 1.5723 1.57211 -8.94915
3 1 3.14465 0.000120953 -0.000106427 -8.94965
4 1 4.71701 1.57226 1.57202 -8.94964
448 1 20.4425 11.0071 7.86194 -8.9494
6 1 7.86197 1.57223 1.57199 -8.9495
175 1 18.8721 9.43396 9.43409 -8.95092
8 1 11.007 1.5722 1.57196 -8.94954
174 1 15.7345 9.42777 9.42791 -8.94491
10 1 14.152 1.57218 1.57203 -8.94951
11 1 15.7243 9.24116e-05 -0.00013875 -8.94954
12 1 17.297 1.57211 1.57202 -8.94952
7 1 9.43449 0.0001289 -0.000163234 -8.94957
14 1 20.4416 1.57231 1.57226 -8.94941
447 1 17.3003 11.008 7.86226 -8.95155
16 1 1.57216 4.71707 1.57219 -8.9498
446 1 14.1637 11.0113 7.85176 -8.97697
18 1 4.71638 4.71645 1.57127 -8.94952
445 1 11.1035 11.0057 7.64259 -8.1266
20 1 7.8617 4.71641 1.57146 -8.94908
56 1 9.43447 0.000345809 3.14403 -8.94949
22 1 11.0068 4.71623 1.57142 -8.94935
444 1 7.88794 11.0133 7.87667 -8.87003
24 1 14.1522 4.7161 1.57134 -8.94965
443 1 4.72084 11.0077 7.86352 -8.94045
26 1 17.2979 4.71594 1.57127 -8.94822
442 1 1.57226 11.007 7.86165 -8.94746
28 1 20.4419 4.71692 1.57218 -8.94957
397 1 14.1622 11.0077 4.70676 -8.94251
30 1 1.57224 7.86203 1.57225 -8.94941
396 1 11.0123 11.0076 4.72097 -9.00156
32 1 4.71688 7.86224 1.5723 -8.94988
395 1 7.86559 11.0077 4.72169 -8.9461
34 1 7.86169 7.86183 1.57099 -8.95221
35 1 9.43413 6.28876 -0.000348219 -8.9495
36 1 11.0064 7.86094 1.57011 -8.95051
37 1 12.5794 6.28873 -0.000443908 -8.94958
38 1 14.1534 7.86039 1.5688 -8.95204
518 1 20.4426 11.0072 11.0067 -8.94958
40 1 17.298 7.86143 1.57147 -8.94944
350 1 20.442 11.0069 1.57213 -8.94953
42 1 20.4419 7.86192 1.57216 -8.94944
58 1 12.5796 0.000325999 3.14408 -8.94945
44 1 3.14434 9.43437 0.000195303 -8.94945
348 1 14.1539 11.007 1.56913 -8.94968
347 1 11.0067 11.007 1.57192 -8.94644
346 1 7.8619 11.0069 1.57316 -8.9483
48 1 15.7254 9.43405 -0.000194153 -8.94984
149 1 3.14398 0.000342933 9.43445 -8.94942
50 1 -0.000124604 0.000128017 3.14462 -8.94948
51 1 1.572 1.57226 4.71696 -8.94959
52 1 3.14416 0.00029785 3.14414 -8.94915
53 1 4.71631 1.57196 4.71628 -8.94989
517 1 17.3009 11.0069 11.0066 -8.95363
55 1 7.86183 1.57199 4.71633 -8.94942
173 1 12.5989 9.40777 9.38658 -8.83454
57 1 11.0071 1.57193 4.71628 -8.94948
172 1 9.37026 9.19583 9.44031 -8.12506
59 1 14.1523 1.57181 4.71653 -8.95035
516 1 14.1682 10.9793 10.9962 -8.93521
61 1 17.2972 1.57226 4.71683 -8.94959
62 1 18.8694 0.000203488 3.14449 -8.94927
63 1 20.4416 1.57231 4.7171 -8.94959
64 1 22.0137 3.14453 3.14452 -8.94946
65 1 1.5713 4.7165 4.71643 -8.94958
66 1 3.1438 3.14404 3.14379 -8.94837
67 1 4.71378 4.71408 4.71379 -8.94506
68 1 6.28916 3.14399 3.14385 -8.94958
69 1 7.86099 4.71451 4.71499 -8.94887
70 1 9.43436 3.14387 3.14382 -8.94939
71 1 11.0071 4.71427 4.71482 -8.94793
72 1 12.5796 3.14374 3.14387 -8.94918
73 1 14.1544 4.71259 4.71424 -8.95003
74 1 15.7252 3.14337 3.14374 -8.94951
75 1 17.2984 4.71559 4.71605 -8.9489
76 1 18.8696 3.14436 3.14442 -8.94944
77 1 20.4419 4.71671 4.71683 -8.9496
78 1 22.014 6.28954 3.14455 -8.94987
79 1 1.57202 7.86223 4.71687 -8.94986
80 1 3.14408 6.28952 3.14416 -8.95047
81 1 4.71574 7.86248 4.71613 -8.95218
82 1 6.28738 6.28766 3.14121 -8.95018
83 1 7.85718 7.8572 4.70861 -8.95452
84 1 9.43369 6.2875 3.14198 -8.94768
85 1 11.0068 7.85712 4.70827 -8.95064
86 1 12.5801 6.2871 3.14134 -8.94917
87 1 14.1655 7.849 4.70213 -8.93104
88 1 15.7285 6.28535 3.14022 -8.94457
89 1 17.3011 7.86015 4.71477 -8.95156
90 1 18.8706 6.28881 3.14392 -8.94988
91 1 20.4424 7.86186 4.71679 -8.9502
92 1 0.000144609 9.43442 3.14441 -8.94951
93 1 3.14426 9.43451 3.14426 -8.94893
94 1 6.28966 9.43551 3.14482 -8.9496
95 1 9.435 9.43473 3.14409 -8.95104
96 1 12.582 9.43315 3.13567 -8.96099
97 1 15.7278 9.43344 3.14119 -8.94784
98 1 18.8706 9.43423 3.14392 -8.94915
513 1 4.71914 11.0073 11.0068 -8.94315
100 1 1.57194 1.57222 7.86196 -8.94951
189 1 20.4419 4.71649 11.0069 -8.94948
102 1 4.71618 1.57183 7.86169 -8.94938
103 1 6.2886 0.00131396 6.28857 -8.95069
104 1 7.86168 1.57187 7.86171 -8.95166
171 1 6.2809 9.42454 9.43178 -8.96611
106 1 11.007 1.57239 7.86166 -8.94998
170 1 3.1424 9.43488 9.43422 -8.95202
108 1 14.1525 1.57216 7.8618 -8.95043
109 1 15.7252 0.000976447 6.28895 -8.9499
110 1 17.2973 1.57212 7.86194 -8.94951
188 1 17.2984 4.71528 11.0067 -8.94867
112 1 20.4416 1.57227 7.86201 -8.94954
113 1 -0.000230847 3.14447 6.28947 -8.94948
114 1 1.57125 4.71639 7.86171 -8.94925
115 1 3.14372 3.14392 6.28905 -8.94935
116 1 4.71417 4.71421 7.86079 -8.94807
117 1 6.28812 3.14213 6.28817 -8.95151
118 1 7.85955 4.71014 7.86081 -8.95859
119 1 9.43442 3.14252 6.28835 -8.95013
120 1 11.0063 4.71387 7.86111 -8.95147
121 1 12.5798 3.14242 6.28883 -8.95207
122 1 14.1536 4.71325 7.86121 -8.95063
123 1 15.7253 3.14341 6.28911 -8.94989
124 1 17.2983 4.71548 7.86155 -8.9491
125 1 18.8696 3.14428 6.28943 -8.94949
126 1 20.4418 4.71659 7.86186 -8.94944
127 1 22.0135 6.28918 6.28918 -8.95029
128 1 1.57045 7.86175 7.86161 -8.95198
129 1 3.14118 6.28787 6.28768 -8.95046
130 1 4.70761 7.85829 7.85891 -8.9568
131 1 6.2783 6.27888 6.27892 -8.9313
132 1 7.82451 7.82836 7.83094 -8.8563
133 1 9.43339 6.28164 6.2848 -8.94915
134 1 11.0224 7.84966 7.8363 -8.89621
135 1 12.5854 6.27804 6.28196 -8.95271
136 1 14.1673 7.84943 7.85207 -8.93281
137 1 15.7297 6.28478 6.28607 -8.94604
138 1 17.3026 7.859 7.85996 -8.94949
139 1 18.8711 6.2884 6.28876 -8.94935
140 1 20.4426 7.86157 7.8617 -8.95068
141 1 22.0141 9.43461 6.2893 -8.94973
142 1 3.14404 9.43546 6.28932 -8.9498
143 1 6.28842 9.43828 6.29005 -8.9546
144 1 9.42393 9.41522 6.28595 -8.91061
145 1 12.6222 9.3991 6.24551 -8.86908
146 1 15.7354 9.43231 6.28449 -8.96
147 1 18.8718 9.43453 6.28913 -8.95162
148 1 -0.000163727 0.000138781 9.43448 -8.94956
169 1 22.0139 9.43458 9.43431 -8.95004
168 1 18.8709 6.28818 9.43413 -8.94898
151 1 9.43463 0.00203743 9.43437 -8.9507
152 1 12.5798 0.00157281 9.4344 -8.9512
167 1 15.7284 6.28478 9.43339 -8.94639
166 1 12.5805 6.28341 9.43208 -8.95404
155 1 22.0137 3.1444 9.43445 -8.94952
156 1 3.14359 3.14381 9.43439 -8.94943
157 1 6.28763 3.1417 9.43437 -8.94961
158 1 9.43439 3.14371 9.43441 -8.94713
159 1 12.5797 3.14306 9.43428 -8.95015
160 1 15.7254 3.1432 9.43433 -8.94959
161 1 18.8697 3.14416 9.43439 -8.94945
162 1 -0.000493218 6.28891 9.43429 -8.94974
163 1 3.14108 6.28753 9.43416 -8.94873
164 1 6.28064 6.28027 9.43433 -8.9438
165 1 9.43136 6.29086 9.43523 -9.00406
344 1 1.57217 11.0069 1.57218 -8.94959
183 1 1.57117 4.71627 11.0071 -8.9493
181 1 17.2974 1.57203 11.007 -8.9495
154 1 18.8695 0.000184087 9.43448 -8.94952
177 1 4.71611 1.57174 11.0072 -8.94937
9 1 12.5794 0.000121662 -0.000157444 -8.94956
184 1 4.71388 4.71383 11.0077 -8.94769
512 1 1.57187 11.007 11.0069 -8.9477
41 1 18.8697 6.28922 6.86328e-05 -8.94953
19 1 6.28949 3.14448 -0.000180964 -8.94946
25 1 15.7245 3.14437 -0.000178644 -8.94963
176 1 1.57191 1.57221 11.007 -8.94953
199 1 3.14401 0.000347735 12.5796 -8.94939
178 1 7.86171 1.57147 11.0072 -8.95163
179 1 11.007 1.5718 11.007 -8.94911
180 1 14.1525 1.5718 11.007 -8.94986
644 1 20.4419 11.0069 20.4419 -8.94953
182 1 20.4416 1.57225 11.0069 -8.94956
642 1 14.1526 11.007 20.4435 -8.95189
209 1 18.8695 0.000176991 12.5795 -8.94951
185 1 7.85945 4.70905 11.0083 -8.95885
186 1 11.007 4.71345 11.0074 -8.95204
187 1 14.1536 4.71334 11.0064 -8.94941
641 1 11.0067 11.0069 20.4429 -8.94805
640 1 7.86153 11.0068 20.4441 -8.95115
190 1 1.57018 7.86144 11.0068 -8.95137
191 1 4.70728 7.85789 11.0083 -8.95606
192 1 7.8244 7.82475 11.0413 -8.85999
193 1 11.0314 7.84783 11.0347 -8.9659
194 1 14.1617 7.85196 11.0046 -8.95887
195 1 17.3017 7.85911 11.0058 -8.94772
196 1 20.4427 7.86129 11.0066 -8.94983
343 1 18.8704 9.43407 18.8703 -8.94924
198 1 1.57195 1.57222 14.152 -8.94954
342 1 15.7267 9.43294 18.8735 -8.95054
200 1 4.71622 1.57168 14.1526 -8.94987
341 1 12.5792 9.43376 18.8735 -8.95244
202 1 7.86192 1.57152 14.1525 -8.95034
203 1 9.43482 0.000497529 12.5799 -8.94997
204 1 11.0071 1.57123 14.1527 -8.9493
205 1 12.5796 7.51692e-05 12.5797 -8.95013
206 1 14.1524 1.57099 14.1524 -8.95127
340 1 9.43464 9.43382 18.8727 -8.95033
208 1 17.2973 1.572 14.152 -8.94958
339 1 6.28754 9.43291 18.8734 -8.95058
210 1 20.4416 1.57227 14.1519 -8.94953
211 1 -0.000236002 3.1444 12.5795 -8.94948
212 1 1.57115 4.71629 14.1525 -8.94964
213 1 3.14358 3.14375 12.5798 -8.94927
214 1 4.71312 4.71306 14.1553 -8.94468
215 1 6.28787 3.14136 12.5807 -8.95138
216 1 7.86061 4.71192 14.1545 -8.95181
217 1 9.43472 3.14173 12.5805 -8.95027
218 1 11.0073 4.71292 14.1548 -8.94674
219 1 12.5799 3.14116 12.58 -8.95297
220 1 14.1557 4.70926 14.1557 -8.95175
221 1 15.7253 3.14306 12.5794 -8.94957
222 1 17.2987 4.71501 14.1525 -8.9498
223 1 18.8697 3.14416 12.5794 -8.94935
224 1 20.4419 4.71656 14.152 -8.94969
225 1 22.0135 6.28896 12.5795 -8.95007
226 1 1.57116 7.86161 14.1522 -8.94993
227 1 3.14074 6.28748 12.5807 -8.95074
228 1 4.71231 7.86005 14.1539 -8.95146
229 1 6.27676 6.27654 12.5902 -8.93008
230 1 7.849 7.84516 14.1696 -8.95428
231 1 9.43414 6.27933 12.5856 -8.95197
232 1 11.0077 7.85554 14.164 -8.94649
233 1 12.5884 6.27333 12.5887 -8.95333
234 1 14.175 7.83664 14.1748 -8.92161
235 1 15.7297 6.28441 12.5801 -8.94996
236 1 17.3047 7.85774 14.1551 -8.95096
237 1 18.8711 6.28826 12.5794 -8.94955
238 1 20.4433 7.86127 14.1522 -8.95042
239 1 22.0141 9.4343 12.5793 -8.95055
240 1 3.14145 9.43437 12.5794 -8.95082
241 1 6.27917 9.43331 12.5811 -8.95527
242 1 9.39718 9.40432 12.614 -8.86389
243 1 12.6503 9.38321 12.6467 -8.77899
244 1 15.7441 9.42683 12.5843 -8.96088
245 1 18.8741 9.43351 12.5794 -8.95302
246 1 -0.000142164 0.000120181 15.7244 -8.94956
247 1 1.57203 1.57224 17.297 -8.94927
47 1 12.5794 9.43423 22.0131 -8.95192
249 1 4.71678 1.57212 17.2973 -8.94996
250 1 6.28926 0.000700052 15.725 -8.95045
251 1 7.86203 1.57198 17.2973 -8.94945
252 1 9.43469 6.32719e-05 15.7249 -8.94935
253 1 11.007 1.5719 17.2973 -8.94959
254 1 12.5795 -8.64506e-05 15.7248 -8.94926
255 1 14.1519 1.57186 17.2972 -8.94946
256 1 15.7248 0.000310678 15.7248 -8.95066
257 1 17.2973 1.57183 17.2973 -8.94969
46 1 9.43433 9.43439 22.0144 -8.94952
259 1 20.4416 1.57225 17.2968 -8.9496
260 1 22.0137 3.14444 15.7245 -8.94954
261 1 1.57196 4.71675 17.2972 -8.94988
262 1 3.14358 3.14372 15.7253 -8.94835
263 1 4.71538 4.71497 17.2989 -8.94901
264 1 6.28882 3.14294 15.7255 -8.95051
265 1 7.86166 4.71548 17.2984 -8.949
266 1 9.43441 3.14308 15.7255 -8.94925
267 1 11.0069 4.7152 17.2986 -8.94914
268 1 12.5796 3.14285 15.7255 -8.94901
269 1 14.1524 4.71511 17.2986 -8.94956
270 1 15.7258 3.14205 15.7258 -8.95001
271 1 17.299 4.71445 17.299 -8.94733
272 1 18.8698 3.14408 15.7246 -8.9497
273 1 20.4422 4.71657 17.2972 -8.94958
274 1 22.0141 6.28912 15.7246 -8.94986
275 1 1.57134 7.86136 17.2976 -8.94982
276 1 3.143 6.28855 15.7254 -8.95044
277 1 4.71317 7.85861 17.3009 -8.94477
278 1 6.2843 6.2829 15.731 -8.94915
279 1 7.86072 7.85956 17.3021 -8.95288
280 1 9.43405 6.28544 15.729 -8.9471
281 1 11.0066 7.85879 17.3027 -8.94728
282 1 12.5803 6.2849 15.7297 -8.94861
283 1 14.1544 7.85845 17.3038 -8.95297
284 1 15.732 6.2806 15.7319 -8.94163
285 1 17.3012 7.85835 17.3012 -8.94518
286 1 18.8718 6.2878 15.7257 -8.94975
287 1 20.4427 7.86135 17.2976 -8.94987
288 1 2.67554e-05 9.43416 15.7249 -8.95048
289 1 3.14096 9.43319 15.7263 -8.95095
290 1 6.27701 9.4239 15.7375 -8.9307
291 1 9.43478 9.4311 15.7353 -8.95255
292 1 12.5816 9.43041 15.7412 -8.96307
293 1 15.7383 9.4238 15.7386 -8.93216
294 1 18.8733 9.43329 15.7263 -8.95102
45 1 6.28915 9.43439 22.0147 -8.94989
296 1 1.5722 1.5723 20.4416 -8.94936
297 1 3.14445 0.000289425 18.8695 -8.94952
298 1 4.71714 1.57229 20.4416 -8.94965
299 1 6.28964 0.000125027 18.8694 -8.94968
300 1 7.86202 1.57224 20.4416 -8.94953
338 1 3.14358 9.434 18.8704 -8.94923
302 1 11.0069 1.57222 20.4416 -8.94957
337 1 22.0139 9.43431 18.8697 -8.94943
304 1 14.1519 1.57223 20.4416 -8.94952
305 1 15.7243 4.69388e-05 18.8693 -8.9497
306 1 17.2968 1.57222 20.4416 -8.94971
307 1 18.8694 0.000172242 18.8694 -8.94937
308 1 20.4417 1.5723 20.4416 -8.94925
309 1 22.0139 3.14459 18.8693 -8.94962
310 1 1.57217 4.71694 20.4418 -8.94934
311 1 3.14423 3.14421 18.8697 -8.94933
312 1 4.71679 4.71667 20.4419 -8.95001
313 1 6.28946 3.14423 18.8696 -8.94952
314 1 7.86182 4.71653 20.4419 -8.94934
315 1 9.4344 3.1441 18.8697 -8.94945
316 1 11.0069 4.71641 20.4419 -8.94952
317 1 12.5794 3.14408 18.8697 -8.94941
318 1 14.152 4.71646 20.4419 -8.94945
319 1 15.7245 3.14408 18.8697 -8.94968
320 1 17.2973 4.71641 20.4419 -8.94966
321 1 18.8698 3.1441 18.8697 -8.94895
322 1 20.4418 4.71687 20.4418 -8.9493
323 1 22.0139 6.28922 18.8696 -8.94952
324 1 1.57209 7.86186 20.4419 -8.94952
325 1 3.14368 6.28863 18.8703 -8.94839
326 1 4.71632 7.86141 20.4428 -8.94959
327 1 6.28879 6.28837 18.871 -8.95074
328 1 7.86179 7.86152 20.4428 -8.95033
329 1 9.43409 6.28811 18.8711 -8.94899
330 1 11.0067 7.86103 20.4428 -8.95006
331 1 12.5795 6.28808 18.8712 -8.9491
332 1 14.1523 7.86121 20.4427 -8.9509
333 1 15.7256 6.28786 18.8714 -8.95042
334 1 17.2978 7.86125 20.4427 -8.94954
335 1 18.8704 6.28848 18.8704 -8.94846
336 1 20.4419 7.86186 20.4419 -8.94954
29 1 22.014 6.28954 22.014 -8.94955
638 1 1.57205 11.0069 20.4419 -8.94954
514 1 7.87909 10.9889 10.9865 -8.83909
515 1 11.0976 10.7113 11.1056 -7.31671
27 1 18.8695 3.1444 22.0138 -8.94922
39 1 15.7251 6.28861 22.0132 -8.95017
593 1 14.1565 11.0056 17.3083 -8.95636
540 1 1.57039 11.0069 14.1525 -8.95121
541 1 4.70824 11.0057 14.1559 -8.95639
542 1 7.82736 10.975 14.1914 -8.85515
543 1 11.0051 11.0098 14.15 -8.96734
544 1 14.1902 10.9783 14.1938 -8.86177
545 1 17.3066 11.0064 14.1558 -8.95688
546 1 20.4435 11.0071 14.1523 -8.95137
33 1 6.28921 6.28919 22.0136 -8.9505
31 1 3.14446 6.28946 22.0141 -8.94966
591 1 7.85816 11.0049 17.3073 -8.95673
592 1 11.0067 11.0075 17.2998 -8.94428
5 1 6.28957 0.000111419 22.0137 -8.94951
15 1 22.0139 3.14468 22.0139 -8.94942
17 1 3.1445 3.14449 22.0137 -8.94953
23 1 12.5794 3.14435 22.0137 -8.9495
13 1 18.8693 9.34722e-05 22.0138 -8.94948
21 1 9.43442 3.14437 22.0137 -8.94953
43 1 22.0139 9.43445 22.0139 -8.94957
49 1 18.8698 9.43435 22.014 -8.94944
688 3 10.1525 11.0364 9.38455 2.38541
511 1 18.8702 18.87 9.43439 -8.94921
510 1 15.7269 18.8722 9.43399 -8.94898
509 1 12.5815 18.8778 9.43155 -8.95865
508 1 9.43296 18.8797 9.43156 -8.958
349 1 17.2981 11.0069 1.57145 -8.9494
507 1 6.28535 18.8756 9.43366 -8.94869
539 1 20.4417 20.4419 11.007 -8.94953
352 1 1.57218 14.1518 1.57221 -8.94944
353 1 3.14431 12.5794 0.000179995 -8.94951
354 1 4.7167 14.1515 1.57214 -8.94964
153 1 15.7251 22.0145 9.43451 -8.94959
356 1 7.86163 14.1518 1.57086 -8.95251
150 1 6.28857 22.015 9.43444 -8.95011
358 1 11.0066 14.1524 1.56974 -8.95026
345 1 4.71659 11.0068 1.57213 -8.94961
360 1 14.1534 14.1531 1.5691 -8.95162
361 1 15.7255 12.5797 -0.000241775 -8.9496
362 1 17.2981 14.1524 1.57145 -8.94922
107 1 12.5798 22.015 6.28876 -8.94996
364 1 20.4419 14.152 1.57214 -8.94948
365 1 22.0139 15.7243 4.76812e-05 -8.94954
366 1 1.57211 17.2968 1.57216 -8.94977
105 1 9.43442 22.0151 6.28852 -8.94975
368 1 4.71617 17.2975 1.5712 -8.94969
529 1 11.0072 17.2984 11.002 -9.01361
370 1 7.8616 17.2976 1.57069 -8.94972
371 1 9.43435 15.725 -0.000728423 -8.94982
372 1 11.007 17.2979 1.57059 -8.94972
373 1 12.5794 15.7249 -0.000889174 -8.94986
374 1 14.1525 17.2978 1.57067 -8.95032
526 1 1.57032 17.2979 11.007 -8.94931
376 1 17.2979 17.2978 1.57148 -8.94838
525 1 20.4416 14.1519 11.0069 -8.94935
378 1 20.4419 17.2969 1.57219 -8.94949
111 1 18.8695 22.0141 6.28947 -8.94964
380 1 1.57202 20.4418 1.57214 -8.94927
495 1 12.5457 12.5722 9.45151 -8.8298
382 1 4.71682 20.442 1.57178 -8.94963
383 1 6.28943 18.8696 -0.000330166 -8.94974
384 1 7.86191 20.442 1.57173 -8.94939
494 1 9.36268 12.8501 9.46171 -7.95675
386 1 11.007 20.4421 1.57172 -8.94948
493 1 6.28625 12.5888 9.43824 -8.97059
388 1 14.1521 20.4421 1.57179 -8.94939
389 1 15.7245 18.8696 -0.00035886 -8.9499
390 1 17.2972 20.4421 1.5718 -8.94944
391 1 18.8696 18.8695 1.71571e-05 -8.94923
392 1 20.4416 20.4417 1.57232 -8.94964
506 1 3.1426 18.8709 9.43422 -8.94899
394 1 4.71606 11.0068 4.71591 -8.94605
505 1 22.0135 18.8697 9.43438 -8.94948
504 1 18.8711 15.7248 9.43453 -8.95243
503 1 15.7344 15.7296 9.43062 -8.95621
398 1 17.3012 11.007 4.71473 -8.9484
399 1 20.4426 11.0069 4.71658 -8.94983
400 1 0.000125771 12.5794 3.14439 -8.94955
401 1 1.5718 14.1516 4.71669 -8.94971
402 1 3.14413 12.5792 3.14416 -8.94908
403 1 4.71518 14.1512 4.7157 -8.95113
404 1 6.28919 12.5782 3.1444 -8.94916
405 1 7.85688 14.1558 4.70756 -8.95531
406 1 9.43489 12.579 3.14464 -8.94841
407 1 11.0071 14.1554 4.70766 -8.95191
408 1 12.5821 12.5805 3.13709 -8.95804
409 1 14.1647 14.1626 4.70398 -8.92952
410 1 15.728 12.5805 3.14113 -8.94759
411 1 17.3011 14.1536 4.71492 -8.95008
412 1 18.8706 12.5796 3.14388 -8.9493
413 1 20.4425 14.1521 4.71669 -8.95007
414 1 22.014 15.7244 3.14448 -8.94974
415 1 1.57105 17.2973 4.71635 -8.94971
416 1 3.1439 15.7243 3.14401 -8.95021
417 1 4.71291 17.3002 4.71289 -8.94518
418 1 6.28714 15.726 3.1406 -8.95043
419 1 7.85947 17.301 4.71127 -8.95076
420 1 9.4338 15.7262 3.14015 -8.94984
421 1 11.0073 17.3012 4.71132 -8.94733
422 1 12.5804 15.7264 3.13974 -8.95164
423 1 14.1562 17.3025 4.71094 -8.95141
424 1 15.7283 15.7277 3.14077 -8.94448
425 1 17.2982 17.2975 4.71638 -8.95096
426 1 18.8705 15.725 3.14398 -8.94944
427 1 20.4416 17.2969 4.71698 -8.94985
428 1 22.0136 18.8693 3.14452 -8.94962
429 1 1.57172 20.442 4.71673 -8.94946
430 1 3.14352 18.8701 3.14359 -8.9485
431 1 4.71541 20.4435 4.71538 -8.94831
432 1 6.28851 18.8707 3.14267 -8.94981
433 1 7.86148 20.4433 4.71556 -8.94919
434 1 9.4342 18.8708 3.1427 -8.94905
435 1 11.0072 20.4433 4.71554 -8.94941
436 1 12.5799 18.8708 3.1428 -8.94885
437 1 14.1527 20.4433 4.71585 -8.95013
438 1 15.7259 18.8711 3.14271 -8.94951
439 1 17.298 20.4427 4.71614 -8.94813
440 1 18.8696 18.8695 3.14449 -8.95003
441 1 20.4418 20.4419 4.71691 -8.94949
502 1 12.6176 15.7631 9.38691 -8.82763
501 1 9.38986 15.7672 9.39004 -8.90496
500 1 6.26974 15.7394 9.42941 -8.94878
499 1 3.13898 15.7263 9.4342 -8.95168
498 1 -0.000961851 15.7247 9.4344 -8.95057
497 1 18.8695 12.5799 9.43443 -8.94613
496 1 15.7187 12.5791 9.43688 -8.93507
449 1 22.014 12.5793 6.2892 -8.94993
450 1 1.57007 14.1518 7.86161 -8.95153
451 1 3.14344 12.5784 6.28894 -8.94967
452 1 4.70708 14.1542 7.85962 -8.95787
453 1 6.28692 12.5761 6.28946 -8.94916
454 1 7.82055 14.1871 7.82706 -8.8518
455 1 9.42459 12.601 6.29195 -8.90254
456 1 11.0226 14.1693 7.83374 -8.93305
457 1 12.6199 12.6139 6.25487 -8.84468
458 1 14.1562 14.1491 7.86171 -8.95146
459 1 15.7359 12.582 6.28457 -8.9544
460 1 17.2986 14.1514 7.86263 -8.94932
461 1 18.872 12.5797 6.28893 -8.95167
462 1 20.4418 14.1519 7.86191 -8.94969
463 1 22.0132 15.7245 6.28922 -8.95005
464 1 1.57036 17.2976 7.86146 -8.95023
465 1 3.14066 15.7256 6.28761 -8.9508
466 1 4.70986 17.302 7.85844 -8.94843
467 1 6.27623 15.7357 6.27652 -8.93134
468 1 7.84613 17.3179 7.84689 -8.93634
469 1 9.43166 15.7349 6.27586 -8.96096
470 1 11.0067 17.3089 7.85154 -8.94364
471 1 12.5878 15.7376 6.27311 -8.96456
472 1 14.1656 17.3107 7.84891 -8.9255
473 1 15.7275 15.7252 6.28815 -8.95293
474 1 17.3012 17.2992 7.86012 -8.95058
475 1 18.8701 15.7244 6.28952 -8.9497
476 1 20.4421 17.2972 7.86176 -8.95056
477 1 -0.000356137 18.8696 6.28927 -8.94987
478 1 1.57171 20.442 7.86188 -8.94944
479 1 3.14238 18.8709 6.2882 -8.94922
480 1 4.71545 20.4435 7.86136 -8.9494
481 1 6.28408 18.8762 6.28408 -8.94533
482 1 7.86037 20.4468 7.86032 -8.95306
483 1 9.43358 18.8747 6.28538 -8.94797
484 1 11.0072 20.4458 7.8601 -8.94924
485 1 12.5811 18.8744 6.28599 -8.95014
486 1 14.1537 20.4453 7.86062 -8.95152
487 1 15.7287 18.8735 6.28582 -8.94364
488 1 17.2978 20.4425 7.86176 -8.94966
489 1 18.8705 18.8701 6.28884 -8.94954
490 1 20.4417 20.4419 7.86197 -8.9495
491 1 22.0135 12.5793 9.43424 -8.94906
492 1 3.14276 12.5788 9.43433 -8.94936
519 1 1.56966 14.1518 11.007 -8.95164
520 1 4.70564 14.1551 11.0103 -8.96065
522 1 11.0172 14.4337 10.9367 -8.01386
523 1 14.1516 14.166 10.9939 -8.92514
524 1 17.2972 14.1513 11.0071 -8.94964
393 1 1.5719 11.0068 4.7165 -8.94946
54 1 6.28935 22.0142 3.1441 -8.94951
60 1 15.7247 22.0142 3.14422 -8.9499
99 1 22.0138 22.014 6.28955 -8.94956
101 1 3.14404 22.0142 6.28926 -8.9495
527 1 4.71102 17.302 11.0078 -8.94592
534 1 4.71556 20.4435 11.0072 -8.94917
687 3 10.9827 12.6083 11.7282 2.29736
686 1 20.4417 20.4418 20.4417 -8.94921
685 1 18.8699 18.87 18.8699 -8.9486
684 1 17.2969 20.4418 20.4416 -8.94983
683 1 15.7245 18.8699 18.8698 -8.95038
682 1 14.1519 20.4418 20.4416 -8.94942
681 1 12.5795 18.8699 18.8697 -8.94899
303 1 12.5794 22.014 18.8694 -8.94955
301 1 9.43452 22.014 18.8694 -8.94956
521 1 7.81212 14.2134 11.0351 -8.80274
387 1 12.5795 18.8697 22.0135 -8.94949
207 1 15.725 22.0143 12.5796 -8.94944
201 1 6.28877 22.0149 12.58 -8.95048
385 1 9.43444 18.8697 22.0135 -8.94954
197 1 22.0137 22.014 12.5794 -8.94957
590 1 4.71357 11.0059 17.3005 -8.94766
528 1 7.8543 17.3142 11.0088 -8.95841
661 1 3.14367 15.7248 18.8703 -8.94928
530 1 14.1566 17.3037 11.0063 -8.94889
531 1 17.2995 17.2987 11.0069 -8.94768
660 1 1.57211 17.2969 20.4418 -8.94961
533 1 1.57171 20.4421 11.007 -8.94948
589 1 1.57127 11.0067 17.2978 -8.94937
535 1 7.86102 20.4459 11.0075 -8.95219
536 1 11.0073 20.4433 11.0071 -8.94754
537 1 14.153 20.4438 11.0073 -8.9499
538 1 17.2976 20.4424 11.0071 -8.94941
659 1 22.0139 15.7245 18.8696 -8.9494
680 1 11.007 20.4419 20.4416 -8.94957
679 1 9.43464 18.8699 18.8698 -8.94905
678 1 7.86206 20.4419 20.4416 -8.94944
677 1 6.28943 18.87 18.8701 -8.95031
676 1 4.71705 20.4419 20.4417 -8.9498
675 1 3.14369 18.8703 18.8703 -8.94835
674 1 1.57212 20.4419 20.4418 -8.94919
547 1 22.0137 12.5794 12.5794 -8.94874
548 1 1.57038 14.1518 14.1522 -8.95117
549 1 3.14284 12.5785 12.5798 -8.94619
550 1 4.70836 14.1525 14.1555 -8.95962
551 1 6.29142 12.5762 12.5854 -8.9985
552 1 7.82431 14.1851 14.1962 -8.872
553 1 9.21177 12.5836 12.657 -8.12903
554 1 11.0062 14.1409 14.1294 -8.91409
555 1 12.7714 12.5563 12.6451 -8.18293
556 1 14.1811 14.1745 14.1836 -8.87947
557 1 15.7244 12.5781 12.5842 -8.99306
558 1 17.3037 14.1531 14.1545 -8.95683
559 1 18.8708 12.5797 12.5796 -8.94747
560 1 20.4428 14.1521 14.1521 -8.951
561 1 22.0129 15.7248 12.5795 -8.95067
562 1 1.57031 17.2979 14.1527 -8.94971
563 1 3.13846 15.7268 12.581 -8.95178
564 1 4.7103 17.3026 14.1568 -8.9433
565 1 6.26821 15.7416 12.5934 -8.92884
566 1 7.85502 17.309 14.1603 -8.95029
567 1 9.40854 15.7395 12.6012 -8.89024
568 1 11.0078 17.2958 14.1514 -8.94325
569 1 12.6084 15.7358 12.601 -8.87772
570 1 14.1595 17.3064 14.1591 -8.9479
571 1 15.7315 15.7266 12.5795 -8.95554
572 1 17.2995 17.2985 14.1527 -8.95045
573 1 18.871 15.725 12.5791 -8.95085
574 1 20.4419 17.2973 14.152 -8.94992
575 1 -0.000405241 18.8697 12.5795 -8.94947
576 1 1.57176 20.4421 14.1521 -8.94946
577 1 3.14269 18.871 12.58 -8.94905
578 1 4.71575 20.4435 14.1529 -8.94944
579 1 6.28592 18.8754 12.5817 -8.94947
580 1 7.86185 20.4442 14.1528 -8.95219
581 1 9.43484 18.8731 12.5803 -8.95173
582 1 11.0074 20.442 14.1526 -8.94822
583 1 12.5802 18.8714 12.5796 -8.9527
584 1 14.1524 20.4433 14.1525 -8.95243
585 1 15.7263 18.8714 12.5799 -8.94779
586 1 17.2974 20.4423 14.1521 -8.94928
587 1 18.87 18.87 12.5795 -8.94927
588 1 20.4417 20.4419 14.1519 -8.94947
673 1 22.0138 18.8695 18.8695 -8.9496
672 1 20.4418 17.2969 20.4418 -8.94951
671 1 18.8702 15.7249 18.8701 -8.94918
670 1 17.2975 17.2976 20.4423 -8.94954
669 1 15.726 15.7261 18.8722 -8.95046
668 1 14.1518 17.2973 20.4417 -8.94986
667 1 12.5788 15.7249 18.8703 -8.95006
596 1 -0.000104624 12.5795 15.7251 -8.95014
597 1 1.57128 14.1521 17.2977 -8.94927
598 1 3.14087 12.5794 15.7268 -8.94903
599 1 4.71374 14.1529 17.3003 -8.94766
600 1 6.27975 12.579 15.7348 -8.94209
601 1 7.85824 14.1546 17.3078 -8.95834
602 1 9.4263 12.5803 15.7347 -8.97005
603 1 11.007 14.1515 17.2951 -8.93933
604 1 12.5864 12.5791 15.7338 -8.96797
605 1 14.1553 14.1542 17.3052 -8.95592
606 1 15.7342 12.5805 15.7344 -8.94142
607 1 17.3 14.1535 17.2998 -8.94765
608 1 18.8729 12.5799 15.7265 -8.94929
609 1 20.4425 14.1523 17.2976 -8.94932
610 1 22.0137 15.7247 15.7247 -8.95043
611 1 1.57133 17.2974 17.2976 -8.95009
612 1 3.14111 15.7256 15.7263 -8.95184
613 1 4.71324 17.3007 17.3013 -8.9451
614 1 6.27689 15.7366 15.7391 -8.93295
615 1 7.86228 17.2985 17.2993 -8.95174
616 1 9.4375 15.7253 15.7289 -8.95456
617 1 11.0073 17.2984 17.2984 -8.94685
618 1 12.5774 15.7239 15.7276 -8.95678
619 1 14.1519 17.298 17.2986 -8.95213
620 1 15.7337 15.7333 15.7339 -8.93543
621 1 17.2996 17.2997 17.2997 -8.94597
622 1 18.8719 15.7257 15.7256 -8.95089
623 1 20.4422 17.2974 17.2974 -8.94986
624 1 22.0135 18.8697 15.7246 -8.94956
625 1 1.57185 20.442 17.2971 -8.94926
626 1 3.14276 18.871 15.7258 -8.94812
627 1 4.71628 20.443 17.2979 -8.94941
628 1 6.28703 18.8739 15.7277 -8.94946
629 1 7.86233 20.4421 17.2973 -8.94961
630 1 9.43553 18.8702 15.7253 -8.94878
631 1 11.0071 20.4421 17.2973 -8.94966
632 1 12.5791 18.8698 15.7249 -8.94864
633 1 14.1517 20.4419 17.2971 -8.94961
634 1 15.7268 18.873 15.727 -8.94885
635 1 17.2976 20.4427 17.2976 -8.94924
636 1 18.87 18.87 15.7247 -8.94991
637 1 20.4417 20.4419 17.2969 -8.94965
666 1 11.007 17.2976 20.4418 -8.94955
639 1 4.71621 11.0067 20.4428 -8.94934
665 1 9.43524 15.7251 18.8707 -8.94998
664 1 7.86209 17.2973 20.4419 -8.94979
663 1 6.28769 15.7262 18.8733 -8.95125
643 1 17.2979 11.0068 20.4426 -8.94926
662 1 4.71632 17.2976 20.4426 -8.94992
645 1 22.0139 12.5794 18.8697 -8.9495
646 1 1.57206 14.1519 20.4419 -8.94951
647 1 3.14356 12.5794 18.8704 -8.94943
648 1 4.71628 14.1521 20.4428 -8.94925
649 1 6.28737 12.5794 18.8733 -8.94887
650 1 7.86162 14.1522 20.4437 -8.95203
651 1 9.43453 12.5798 18.8725 -8.95067
652 1 11.0068 14.1524 20.4416 -8.94798
653 1 12.5793 12.5799 18.8721 -8.95104
654 1 14.1523 14.1525 20.4429 -8.95167
655 1 15.7267 12.58 18.873 -8.94891
656 1 17.2978 14.1524 20.4425 -8.94917
657 1 18.8703 12.5796 18.8703 -8.94944
658 1 20.4419 14.152 20.4419 -8.94953
351 1 22.0139 12.5794 22.0139 -8.94958
355 1 6.289 12.5792 22.0147 -8.94969
357 1 9.4344 12.5793 22.0144 -8.94913
359 1 12.5794 12.5796 22.013 -8.95109
363 1 18.8698 12.5795 22.0139 -8.94949
367 1 3.14439 15.7243 22.0141 -8.9496
369 1 6.28901 15.7247 22.0139 -8.95094
375 1 15.7252 15.7252 22.0135 -8.9502
377 1 18.8697 15.7246 22.0139 -8.94944
381 1 3.1443 18.8696 22.0139 -8.94946
248 1 3.14414 22.0142 15.7248 -8.94944
258 1 18.8694 22.014 15.7244 -8.9496
295 1 22.0138 22.014 18.8692 -8.94944
595 1 20.4426 11.0068 17.2977 -8.94938
594 1 17.3005 11.0064 17.3004 -8.94779
532 1 20.442 17.2975 11.0069 -8.94963
379 1 22.0139 18.8692 22.0139 -8.94959
