ITEM: TIMESTEP
88
ITEM: NUMBER OF ATOMS
688
ITEM: BOX BOUNDS pp pp pp
0.0000000000000000e+00 2.2013900999999997e+01
0.0000000000000000e+00 2.2013900999999997e+01
0.0000000000000000e+00 2.2013900999999997e+01
ITEM: ATOMS id type x y z c_pot
1 1 22.0138 6.32083e-05 1.08131e-05 -8.94926
2 1 1.57209 1.5723 1.5721 -8.94914
3 1 3.14464 0.00012348 -0.000108194 -8.94965
4 1 4.717 1.57226 1.57202 -8.94964
448 1 20.4425 11.0071 7.86194 -8.94939
6 1 7.86197 1.57223 1.57198 -8.9495
175 1 18.8721 9.43396 9.43408 -8.95092
8 1 11.007 1.57219 1.57196 -8.94954
174 1 15.7345 9.42775 9.42789 -8.94492
10 1 14.152 1.57218 1.57202 -8.94951
11 1 15.7243 9.37822e-05 -0.00014206 -8.94954
12 1 17.297 1.57211 1.57202 -8.94952
7 1 9.43449 0.000130981 -0.000166675 -8.94957
14 1 20.4416 1.57231 1.57226 -8.94941
447 1 17.3003 11.008 7.86226 -8.95155
16 1 1.57216 4.71707 1.57219 -8.9498
446 1 14.1637 11.0113 7.85173 -8.97698
18 1 4.71637 4.71644 1.57126 -8.94952
445 1 11.1035 11.0057 7.64262 -8.12699
20 1 7.86169 4.7164 1.57145 -8.94908
56 1 9.43447 0.000351605 3.14402 -8.94949
22 1 11.0068 4.71622 1.57141 -8.94935
444 1 7.88803 11.0133 7.87673 -8.86987
24 1 14.1522 4.71609 1.57133 -8.94965
443 1 4.72088 11.0077 7.86354 -8.94044
26 1 17.298 4.71593 1.57125 -8.94822
442 1 1.57227 11.007 7.86165 -8.94745
28 1 20.4419 4.71691 1.57217 -8.94957
397 1 14.1623 11.0077 4.70673 -8.94251
30 1 1.57224 7.86203 1.57225 -8.94941
396 1 11.0123 11.0076 4.721 -9.00156
32 1 4.71688 7.86224 1.57231 -8.94989
395 1 7.86562 11.0077 4.72173 -8.94609
34 1 7.86169 7.86182 1.57099 -8.95222
35 1 9.43412 6.28876 -0.000346693 -8.9495
36 1 11.0064 7.86093 1.5701 -8.95052
37 1 12.5794 6.28872 -0.000445964 -8.94958
38 1 14.1534 7.86038 1.56879 -8.95204
518 1 20.4426 11.0072 11.0067 -8.94957
40 1 17.298 7.86142 1.57146 -8.94943
350 1 20.442 11.0069 1.57212 -8.94952
42 1 20.4419 7.86191 1.57216 -8.94944
58 1 12.5796 0.000331259 3.14407 -8.94945
44 1 3.14434 9.43437 0.000201203 -8.94945
348 1 14.1539 11.007 1.56911 -8.94968
347 1 11.0067 11.007 1.57193 -8.94643
346 1 7.86191 11.0069 1.57318 -8.94829
48 1 15.7254 9.43405 -0.000195977 -8.94984
149 1 3.14397 0.00034859 9.43445 -8.94942
50 1 -0.000127218 0.000130479 3.14462 -8.94948
51 1 1.57199 1.57226 4.71696 -8.94959
52 1 3.14415 0.000302847 3.14413 -8.94915
53 1 4.7163 1.57196 4.71627 -8.9499
517 1 17.3009 11.0068 11.0066 -8.95362
55 1 7.86182 1.57199 4.71632 -8.94942
173 1 12.5989 9.40771 9.38651 -8.8346
57 1 11.0071 1.57193 4.71627 -8.94948
172 1 9.3703 9.19563 9.44029 -8.12492
59 1 14.1523 1.5718 4.71652 -8.95035
516 1 14.1681 10.9792 10.9962 -8.93523
61 1 17.2973 1.57226 4.71682 -8.94959
62 1 18.8694 0.000206418 3.14449 -8.94926
63 1 20.4416 1.57231 4.7171 -8.94959
64 1 22.0137 3.14452 3.14452 -8.94946
65 1 1.57129 4.71649 4.71642 -8.94958
66 1 3.14379 3.14404 3.14378 -8.94837
67 1 4.71376 4.71407 4.71377 -8.94505
68 1 6.28916 3.14398 3.14384 -8.94958
69 1 7.86098 4.7145 4.71498 -8.94886
70 1 9.43436 3.14386 3.14381 -8.94939
71 1 11.0071 4.71425 4.7148 -8.94792
72 1 12.5796 3.14373 3.14385 -8.94918
73 1 14.1544 4.71257 4.71422 -8.95002
74 1 15.7252 3.14335 3.14373 -8.94951
75 1 17.2984 4.71557 4.71603 -8.94889
76 1 18.8696 3.14435 3.14441 -8.94944
77 1 20.4419 4.7167 4.71682 -8.9496
78 1 22.014 6.28953 3.14455 -8.94987
79 1 1.57202 7.86223 4.71687 -8.94986
80 1 3.14407 6.28952 3.14416 -8.95047
81 1 4.71574 7.86248 4.71613 -8.95219
82 1 6.28737 6.28765 3.1412 -8.95018
83 1 7.85718 7.85718 4.7086 -8.95452
84 1 9.43368 6.28748 3.14197 -8.94768
85 1 11.0068 7.8571 4.70824 -8.95064
86 1 12.5801 6.28708 3.14131 -8.94917
87 1 14.1656 7.84898 4.70209 -8.93105
88 1 15.7286 6.28533 3.1402 -8.94457
89 1 17.3011 7.86013 4.71475 -8.95157
90 1 18.8706 6.2888 3.14391 -8.94988
91 1 20.4425 7.86186 4.71678 -8.95021
92 1 0.000149178 9.43442 3.14441 -8.94951
93 1 3.14426 9.43451 3.14426 -8.94893
94 1 6.28966 9.43551 3.14484 -8.9496
95 1 9.43501 9.43473 3.14411 -8.95105
96 1 12.582 9.43315 3.13565 -8.961
97 1 15.7278 9.43343 3.14117 -8.94784
98 1 18.8706 9.43423 3.14391 -8.94914
513 1 4.71918 11.0073 11.0068 -8.94315
100 1 1.57193 1.57222 7.86195 -8.94951
189 1 20.4419 4.71648 11.0069 -8.94948
102 1 4.71617 1.57183 7.86169 -8.94938
103 1 6.28859 0.00132783 6.28856 -8.95069
104 1 7.86168 1.57188 7.86171 -8.95167
171 1 6.28094 9.42452 9.43179 -8.9661
106 1 11.007 1.5724 7.86165 -8.94998
170 1 3.14241 9.43488 9.43422 -8.95202
108 1 14.1525 1.57215 7.8618 -8.95043
109 1 15.7252 0.000984604 6.28895 -8.9499
110 1 17.2973 1.57212 7.86194 -8.94951
188 1 17.2984 4.71527 11.0067 -8.94867
112 1 20.4416 1.57227 7.86201 -8.94954
113 1 -0.000233376 3.14447 6.28947 -8.94947
114 1 1.57124 4.71638 7.8617 -8.94925
115 1 3.14371 3.14391 6.28904 -8.94935
116 1 4.71415 4.7142 7.86078 -8.94807
117 1 6.28811 3.14212 6.28816 -8.95152
118 1 7.85954 4.71013 7.86081 -8.9586
119 1 9.43441 3.14251 6.28834 -8.95013
120 1 11.0063 4.71386 7.8611 -8.95148
121 1 12.5798 3.14241 6.28882 -8.95207
122 1 14.1537 4.71323 7.86119 -8.95062
123 1 15.7253 3.1434 6.28911 -8.94989
124 1 17.2983 4.71546 7.86154 -8.9491
125 1 18.8696 3.14427 6.28942 -8.94949
126 1 20.4418 4.71658 7.86185 -8.94943
127 1 22.0135 6.28917 6.28917 -8.95029
128 1 1.57044 7.86175 7.86161 -8.95198
129 1 3.14117 6.28786 6.28767 -8.95047
130 1 4.7076 7.85828 7.85891 -8.95682
131 1 6.27827 6.27886 6.2789 -8.93129
132 1 7.82448 7.82832 7.83092 -8.85621
133 1 9.43338 6.28161 6.28478 -8.94913
134 1 11.0224 7.84961 7.83624 -8.89612
135 1 12.5855 6.278 6.28192 -8.95269
136 1 14.1674 7.8494 7.85203 -8.9328
137 1 15.7297 6.28475 6.28604 -8.94604
138 1 17.3026 7.85898 7.85995 -8.94949
139 1 18.8711 6.28839 6.28875 -8.94935
140 1 20.4426 7.86157 7.8617 -8.95069
141 1 22.0141 9.43461 6.2893 -8.94972
142 1 3.14404 9.43546 6.28933 -8.9498
143 1 6.28844 9.43828 6.29007 -8.9546
144 1 9.42395 9.41521 6.28597 -8.91061
145 1 12.6222 9.39909 6.24547 -8.86912
146 1 15.7354 9.4323 6.28447 -8.96001
147 1 18.8718 9.43453 6.28912 -8.95162
148 1 -0.000167208 0.0001412 9.43448 -8.94956
169 1 22.0139 9.43458 9.43431 -8.95004
168 1 18.8709 6.28817 9.43413 -8.94897
151 1 9.43462 0.00205004 9.43437 -8.9507
152 1 12.5798 0.00157981 9.4344 -8.95121
167 1 15.7284 6.28476 9.43338 -8.94639
166 1 12.5806 6.28339 9.43207 -8.95404
155 1 22.0137 3.14439 9.43445 -8.94952
156 1 3.14358 3.1438 9.43439 -8.94942
157 1 6.28762 3.14169 9.43437 -8.94962
158 1 9.43439 3.14372 9.43441 -8.94712
159 1 12.5797 3.14305 9.43428 -8.95015
160 1 15.7254 3.14319 9.43433 -8.94959
161 1 18.8697 3.14415 9.43439 -8.94945
162 1 -0.00049472 6.2889 9.43429 -8.94974
163 1 3.14107 6.28751 9.43415 -8.94873
164 1 6.28062 6.28024 9.43434 -8.9438
165 1 9.43136 6.29086 9.43524 -9.00409
344 1 1.57217 11.0069 1.57218 -8.94958
183 1 1.57116 4.71626 11.0071 -8.9493
181 1 17.2974 1.57203 11.007 -8.9495
154 1 18.8695 0.000185718 9.43448 -8.94951
177 1 4.71609 1.57173 11.0072 -8.94937
9 1 12.5794 0.000123489 -0.000160853 -8.94956
184 1 4.71386 4.71381 11.0077 -8.94768
512 1 1.57188 11.007 11.0069 -8.94769
41 1 18.8697 6.28922 6.93664e-05 -8.94953
19 1 6.28948 3.14447 -0.000182579 -8.94945
25 1 15.7245 3.14436 -0.000181155 -8.94963
176 1 1.5719 1.57221 11.007 -8.94953
199 1 3.144 0.000352945 12.5796 -8.94939
178 1 7.86171 1.57148 11.0072 -8.95164
179 1 11.007 1.5718 11.007 -8.94911
180 1 14.1525 1.57179 11.007 -8.94986
644 1 20.4419 11.0069 20.4419 -8.94953
182 1 20.4416 1.57225 11.0069 -8.94956
642 1 14.1526 11.007 20.4435 -8.9519
209 1 18.8695 0.000177897 12.5795 -8.94951
185 1 7.85944 4.70903 11.0083 -8.95886
186 1 11.007 4.71344 11.0074 -8.95206
187 1 14.1536 4.71332 11.0064 -8.94941
641 1 11.0067 11.0069 20.4429 -8.94804
640 1 7.86152 11.0068 20.4441 -8.95115
190 1 1.57017 7.86143 11.0068 -8.95138
191 1 4.70726 7.85787 11.0083 -8.95606
192 1 7.82437 7.8247 11.0414 -8.85993
193 1 11.0315 7.84776 11.0347 -8.96585
194 1 14.1618 7.85193 11.0046 -8.95889
195 1 17.3017 7.8591 11.0058 -8.94773
196 1 20.4427 7.86129 11.0066 -8.94983
343 1 18.8704 9.43406 18.8704 -8.94923
198 1 1.57194 1.57221 14.152 -8.94954
342 1 15.7267 9.43293 18.8735 -8.95054
200 1 4.71621 1.57167 14.1526 -8.94987
341 1 12.5792 9.43376 18.8735 -8.95245
202 1 7.86192 1.57151 14.1526 -8.95035
203 1 9.43482 0.000499068 12.5799 -8.94998
204 1 11.0071 1.57122 14.1527 -8.9493
205 1 12.5796 7.06428e-05 12.5797 -8.95014
206 1 14.1524 1.57098 14.1524 -8.95127
340 1 9.43464 9.43382 18.8727 -8.95033
208 1 17.2973 1.57199 14.152 -8.94958
339 1 6.28753 9.43291 18.8734 -8.95058
210 1 20.4416 1.57226 14.1519 -8.94952
211 1 -0.000238987 3.14439 12.5795 -8.94947
212 1 1.57113 4.71628 14.1525 -8.94964
213 1 3.14356 3.14374 12.5798 -8.94927
214 1 4.7131 4.71304 14.1553 -8.94468
215 1 6.28785 3.14135 12.5807 -8.95139
216 1 7.8606 4.71189 14.1545 -8.95181
217 1 9.43472 3.14172 12.5805 -8.95027
218 1 11.0073 4.7129 14.1549 -8.94673
219 1 12.5799 3.14115 12.58 -8.95297
220 1 14.1558 4.70922 14.1557 -8.95174
221 1 15.7254 3.14304 12.5794 -8.94957
222 1 17.2988 4.71499 14.1525 -8.9498
223 1 18.8697 3.14415 12.5794 -8.94935
224 1 20.4419 4.71655 14.152 -8.94969
225 1 22.0135 6.28895 12.5795 -8.95007
226 1 1.57115 7.86161 14.1522 -8.94993
227 1 3.14072 6.28747 12.5807 -8.95074
228 1 4.71228 7.86004 14.1539 -8.95147
229 1 6.27673 6.2765 12.5903 -8.93007
230 1 7.84896 7.84512 14.1697 -8.95427
231 1 9.43413 6.2793 12.5857 -8.95197
232 1 11.0077 7.85551 14.164 -8.94649
233 1 12.5885 6.27329 12.5888 -8.95331
234 1 14.175 7.83662 14.1748 -8.92162
235 1 15.7297 6.28438 12.5801 -8.94996
236 1 17.3047 7.85772 14.1552 -8.95096
237 1 18.8711 6.28824 12.5794 -8.94955
238 1 20.4433 7.86126 14.1523 -8.95042
239 1 22.0141 9.4343 12.5793 -8.95055
240 1 3.14144 9.43436 12.5794 -8.95083
241 1 6.27916 9.4333 12.5811 -8.95527
242 1 9.39715 9.40427 12.6141 -8.86389
243 1 12.6503 9.3832 12.6467 -8.77911
244 1 15.7442 9.4268 12.5843 -8.96088
245 1 18.8742 9.43351 12.5794 -8.95303
246 1 -0.000145559 0.000122247 15.7244 -8.94956
247 1 1.57202 1.57224 17.297 -8.94927
47 1 12.5794 9.43423 22.0131 -8.95192
249 1 4.71677 1.57211 17.2973 -8.94996
250 1 6.28926 0.000705183 15.725 -8.95045
251 1 7.86202 1.57198 17.2973 -8.94945
252 1 9.43469 6.071e-05 15.7249 -8.94935
253 1 11.007 1.57189 17.2973 -8.94959
254 1 12.5795 -9.21988e-05 15.7249 -8.94926
255 1 14.1519 1.57185 17.2972 -8.94946
256 1 15.7248 0.000308501 15.7249 -8.95067
257 1 17.2973 1.57182 17.2973 -8.94969
46 1 9.43433 9.4344 22.0144 -8.94952
259 1 20.4416 1.57224 17.2968 -8.9496
260 1 22.0137 3.14443 15.7245 -8.94954
261 1 1.57195 4.71674 17.2972 -8.94988
262 1 3.14357 3.14371 15.7253 -8.94835
263 1 4.71536 4.71495 17.299 -8.94901
264 1 6.28881 3.14292 15.7255 -8.95051
265 1 7.86165 4.71547 17.2984 -8.949
266 1 9.43441 3.14306 15.7255 -8.94925
267 1 11.0069 4.71518 17.2987 -8.94913
268 1 12.5796 3.14283 15.7255 -8.94901
269 1 14.1524 4.71508 17.2987 -8.94956
270 1 15.7258 3.14202 15.7258 -8.95001
271 1 17.2991 4.71442 17.299 -8.94732
272 1 18.8698 3.14407 15.7246 -8.9497
273 1 20.4422 4.71656 17.2972 -8.94957
274 1 22.0141 6.28911 15.7247 -8.94987
275 1 1.57133 7.86135 17.2976 -8.94982
276 1 3.14298 6.28853 15.7254 -8.95044
277 1 4.71315 7.8586 17.301 -8.94477
278 1 6.28427 6.28286 15.7311 -8.94914
279 1 7.86071 7.85954 17.3021 -8.95289
280 1 9.43404 6.28542 15.729 -8.9471
281 1 11.0067 7.85878 17.3027 -8.94728
282 1 12.5803 6.28487 15.7298 -8.94861
283 1 14.1544 7.85843 17.3038 -8.95298
284 1 15.732 6.28057 15.732 -8.94163
285 1 17.3013 7.85833 17.3013 -8.94518
286 1 18.8718 6.28778 15.7257 -8.94975
287 1 20.4427 7.86134 17.2977 -8.94987
288 1 2.79921e-05 9.43416 15.7249 -8.95048
289 1 3.14094 9.43318 15.7263 -8.95095
290 1 6.27698 9.42388 15.7376 -8.93071
291 1 9.43477 9.43109 15.7353 -8.95256
292 1 12.5816 9.4304 15.7412 -8.96308
293 1 15.7383 9.42378 15.7386 -8.93217
294 1 18.8733 9.43328 15.7263 -8.95102
45 1 6.28915 9.43439 22.0147 -8.94989
296 1 1.5722 1.5723 20.4416 -8.94936
297 1 3.14444 0.000293142 18.8695 -8.94952
298 1 4.71714 1.57229 20.4416 -8.94965
299 1 6.28964 0.000126479 18.8694 -8.94968
300 1 7.86201 1.57224 20.4416 -8.94953
338 1 3.14356 9.43399 18.8704 -8.94923
302 1 11.0069 1.57222 20.4416 -8.94957
337 1 22.0139 9.43431 18.8697 -8.94943
304 1 14.1519 1.57222 20.4416 -8.94952
305 1 15.7243 4.59822e-05 18.8693 -8.9497
306 1 17.2968 1.57222 20.4416 -8.94971
307 1 18.8694 0.000173235 18.8695 -8.94936
308 1 20.4417 1.5723 20.4416 -8.94925
309 1 22.0139 3.14459 18.8693 -8.94962
310 1 1.57217 4.71693 20.4418 -8.94934
311 1 3.14422 3.1442 18.8697 -8.94932
312 1 4.71678 4.71666 20.4419 -8.95001
313 1 6.28945 3.14422 18.8696 -8.94952
314 1 7.86181 4.71652 20.4419 -8.94934
315 1 9.4344 3.14409 18.8697 -8.94945
316 1 11.0069 4.7164 20.4419 -8.94952
317 1 12.5794 3.14406 18.8698 -8.94941
318 1 14.152 4.71645 20.4419 -8.94945
319 1 15.7245 3.14407 18.8697 -8.94968
320 1 17.2973 4.7164 20.4419 -8.94966
321 1 18.8698 3.14409 18.8697 -8.94894
322 1 20.4418 4.71686 20.4418 -8.94929
323 1 22.0139 6.28921 18.8696 -8.94952
324 1 1.57208 7.86186 20.4419 -8.94952
325 1 3.14367 6.28862 18.8704 -8.94839
326 1 4.71632 7.8614 20.4428 -8.94959
327 1 6.28878 6.28835 18.8711 -8.95074
328 1 7.86179 7.86152 20.4428 -8.95033
329 1 9.43409 6.2881 18.8711 -8.94899
330 1 11.0067 7.86102 20.4429 -8.95006
331 1 12.5795 6.28807 18.8712 -8.94911
332 1 14.1523 7.8612 20.4427 -8.9509
333 1 15.7256 6.28784 18.8714 -8.95042
334 1 17.2979 7.86124 20.4427 -8.94954
335 1 18.8704 6.28847 18.8704 -8.94846
336 1 20.4419 7.86185 20.4419 -8.94954
29 1 22.014 6.28954 22.014 -8.94955
638 1 1.57204 11.0069 20.4419 -8.94954
514 1 7.87916 10.9889 10.9864 -8.83903
515 1 11.0974 10.7112 11.1055 -7.31644
27 1 18.8695 3.14439 22.0138 -8.94922
39 1 15.7251 6.2886 22.0132 -8.95017
593 1 14.1566 11.0056 17.3083 -8.95636
540 1 1.57039 11.0069 14.1525 -8.95121
541 1 4.70822 11.0057 14.156 -8.95639
542 1 7.82735 10.975 14.1914 -8.85524
543 1 11.0051 11.0098 14.15 -8.96733
544 1 14.1902 10.9784 14.1938 -8.86186
545 1 17.3066 11.0064 14.1558 -8.95687
546 1 20.4435 11.0071 14.1523 -8.95138
33 1 6.28921 6.28919 22.0136 -8.95051
31 1 3.14446 6.28945 22.0141 -8.94966
591 1 7.85814 11.0049 17.3073 -8.95673
592 1 11.0067 11.0075 17.2998 -8.94427
5 1 6.28957 0.000113638 22.0137 -8.94951
15 1 22.0139 3.14467 22.0139 -8.94942
17 1 3.14449 3.14449 22.0137 -8.94953
23 1 12.5794 3.14435 22.0137 -8.94949
13 1 18.8693 9.48941e-05 22.0138 -8.94948
21 1 9.43442 3.14436 22.0137 -8.94953
43 1 22.0139 9.43444 22.0139 -8.94957
49 1 18.8698 9.43434 22.014 -8.94943
688 3 10.152 11.0364 9.38453 2.38521
511 1 18.8702 18.87 9.43439 -8.94921
510 1 15.7269 18.8722 9.43398 -8.94898
509 1 12.5815 18.8778 9.43153 -8.95865
508 1 9.43294 18.8797 9.43154 -8.958
349 1 17.2981 11.0069 1.57145 -8.9494
507 1 6.28531 18.8756 9.43364 -8.94869
539 1 20.4417 20.4419 11.007 -8.94953
352 1 1.57218 14.1518 1.57221 -8.94944
353 1 3.1443 12.5794 0.000185382 -8.94951
354 1 4.71669 14.1515 1.57214 -8.94964
153 1 15.7251 22.0145 9.43451 -8.94959
356 1 7.86163 14.1518 1.57086 -8.95251
150 1 6.28856 22.015 9.43444 -8.95011
358 1 11.0066 14.1524 1.56973 -8.95026
345 1 4.71658 11.0068 1.57213 -8.94961
360 1 14.1534 14.1531 1.56908 -8.95162
361 1 15.7255 12.5797 -0.000245202 -8.9496
362 1 17.2981 14.1524 1.57143 -8.94922
107 1 12.5798 22.0151 6.28875 -8.94996
364 1 20.442 14.152 1.57214 -8.94948
365 1 22.0139 15.7243 4.90709e-05 -8.94954
366 1 1.57211 17.2968 1.57216 -8.94977
105 1 9.43442 22.0152 6.28851 -8.94975
368 1 4.71616 17.2975 1.57119 -8.94969
529 1 11.0072 17.2984 11.002 -9.01365
370 1 7.86159 17.2976 1.57068 -8.94972
371 1 9.43435 15.725 -0.000735076 -8.94982
372 1 11.007 17.2979 1.57057 -8.94972
373 1 12.5794 15.7249 -0.000900633 -8.94987
374 1 14.1525 17.2978 1.57065 -8.95032
526 1 1.5703 17.2979 11.007 -8.94931
376 1 17.2979 17.2978 1.57147 -8.94838
525 1 20.4416 14.1519 11.0069 -8.94935
378 1 20.4419 17.297 1.57219 -8.94949
111 1 18.8695 22.0141 6.28947 -8.94964
380 1 1.57201 20.4418 1.57213 -8.94927
495 1 12.5456 12.5722 9.45151 -8.8298
382 1 4.71681 20.442 1.57177 -8.94963
383 1 6.28943 18.8696 -0.000334573 -8.94974
384 1 7.8619 20.4421 1.57172 -8.94939
494 1 9.36274 12.8503 9.46171 -7.9566
386 1 11.007 20.4421 1.57171 -8.94948
493 1 6.28629 12.5888 9.43826 -8.97058
388 1 14.1521 20.4421 1.57178 -8.94939
389 1 15.7245 18.8696 -0.000365095 -8.9499
390 1 17.2972 20.4421 1.57179 -8.94944
391 1 18.8696 18.8695 1.58488e-05 -8.94923
392 1 20.4416 20.4417 1.57231 -8.94964
506 1 3.14258 18.8709 9.43422 -8.94899
394 1 4.71606 11.0068 4.71592 -8.94604
505 1 22.0135 18.8697 9.43437 -8.94948
504 1 18.8711 15.7248 9.43454 -8.95244
503 1 15.7344 15.7296 9.43061 -8.95622
398 1 17.3012 11.007 4.71471 -8.9484
399 1 20.4426 11.0069 4.71657 -8.94983
400 1 0.000129771 12.5794 3.14439 -8.94955
401 1 1.57179 14.1516 4.71669 -8.94971
402 1 3.14413 12.5792 3.14415 -8.94908
403 1 4.71517 14.1512 4.71569 -8.95113
404 1 6.28919 12.5782 3.14441 -8.94916
405 1 7.85687 14.1558 4.70755 -8.95532
406 1 9.4349 12.579 3.14466 -8.9484
407 1 11.0071 14.1554 4.70764 -8.9519
408 1 12.5822 12.5805 3.13708 -8.95804
409 1 14.1647 14.1626 4.70394 -8.92951
410 1 15.728 12.5805 3.14111 -8.94758
411 1 17.3011 14.1536 4.7149 -8.95007
412 1 18.8706 12.5796 3.14387 -8.94929
413 1 20.4425 14.1521 4.71668 -8.95007
414 1 22.014 15.7244 3.14448 -8.94974
415 1 1.57104 17.2973 4.71634 -8.94971
416 1 3.14389 15.7243 3.144 -8.95021
417 1 4.71288 17.3002 4.71286 -8.94517
418 1 6.28712 15.726 3.14058 -8.95043
419 1 7.85944 17.301 4.71123 -8.95076
420 1 9.43379 15.7262 3.14013 -8.94984
421 1 11.0073 17.3013 4.71128 -8.94733
422 1 12.5804 15.7264 3.13971 -8.95165
423 1 14.1562 17.3025 4.7109 -8.95141
424 1 15.7283 15.7277 3.14074 -8.94448
425 1 17.2982 17.2975 4.71637 -8.95096
426 1 18.8706 15.725 3.14397 -8.94944
427 1 20.4416 17.2969 4.71697 -8.94985
428 1 22.0136 18.8693 3.14452 -8.94962
429 1 1.57171 20.442 4.71672 -8.94946
430 1 3.1435 18.8701 3.14358 -8.94849
431 1 4.7154 20.4435 4.71536 -8.94831
432 1 6.2885 18.8707 3.14265 -8.94981
433 1 7.86147 20.4434 4.71554 -8.94919
434 1 9.43419 18.8708 3.14268 -8.94905
435 1 11.0072 20.4433 4.71552 -8.9494
436 1 12.5799 18.8708 3.14277 -8.94885
437 1 14.1528 20.4433 4.71583 -8.95014
438 1 15.7259 18.8711 3.14269 -8.94951
439 1 17.298 20.4427 4.71613 -8.94812
440 1 18.8696 18.8695 3.14448 -8.95003
441 1 20.4418 20.4419 4.7169 -8.94949
502 1 12.6176 15.7631 9.38687 -8.82749
501 1 9.38982 15.7672 9.39001 -8.90489
500 1 6.26969 15.7395 9.4294 -8.94877
499 1 3.13895 15.7263 9.4342 -8.95168
498 1 -0.000971866 15.7247 9.4344 -8.95058
497 1 18.8695 12.5799 9.43443 -8.94612
496 1 15.7187 12.5791 9.43688 -8.93505
449 1 22.014 12.5793 6.2892 -8.94993
450 1 1.57006 14.1518 7.8616 -8.95153
451 1 3.14344 12.5783 6.28894 -8.94968
452 1 4.70706 14.1542 7.85962 -8.95788
453 1 6.28693 12.5761 6.28948 -8.94916
454 1 7.82051 14.1872 7.82704 -8.85175
455 1 9.42462 12.6011 6.29198 -8.90255
456 1 11.0227 14.1693 7.83371 -8.933
457 1 12.6199 12.6139 6.25485 -8.84469
458 1 14.1562 14.1491 7.8617 -8.95147
459 1 15.7359 12.582 6.28455 -8.9544
460 1 17.2986 14.1514 7.86263 -8.94932
461 1 18.872 12.5797 6.28893 -8.95168
462 1 20.4418 14.1519 7.86191 -8.94969
463 1 22.0132 15.7245 6.28921 -8.95006
464 1 1.57034 17.2976 7.86146 -8.95024
465 1 3.14064 15.7256 6.2876 -8.9508
466 1 4.70982 17.302 7.85842 -8.94842
467 1 6.27619 15.7357 6.27648 -8.93133
468 1 7.84609 17.3179 7.84685 -8.93634
469 1 9.43164 15.735 6.27582 -8.96096
470 1 11.0067 17.309 7.8515 -8.94365
471 1 12.5879 15.7376 6.27305 -8.96456
472 1 14.1656 17.3108 7.84887 -8.92548
473 1 15.7276 15.7252 6.28813 -8.95294
474 1 17.3012 17.2992 7.86011 -8.95058
475 1 18.8702 15.7244 6.28952 -8.9497
476 1 20.4421 17.2972 7.86176 -8.95057
477 1 -0.000361978 18.8696 6.28926 -8.94987
478 1 1.5717 20.4421 7.86188 -8.94943
479 1 3.14235 18.8709 6.28818 -8.94921
480 1 4.71543 20.4435 7.86135 -8.9494
481 1 6.28405 18.8763 6.28405 -8.94532
482 1 7.86036 20.4468 7.86031 -8.95306
483 1 9.43357 18.8748 6.28535 -8.94797
484 1 11.0072 20.4459 7.86008 -8.94924
485 1 12.5811 18.8744 6.28596 -8.95015
486 1 14.1537 20.4453 7.8606 -8.95152
487 1 15.7287 18.8735 6.2858 -8.94363
488 1 17.2978 20.4425 7.86176 -8.94965
489 1 18.8705 18.8701 6.28884 -8.94954
490 1 20.4417 20.4419 7.86197 -8.9495
491 1 22.0135 12.5793 9.43424 -8.94905
492 1 3.14277 12.5788 9.43434 -8.94935
519 1 1.56965 14.1518 11.007 -8.95165
520 1 4.70562 14.1551 11.0103 -8.96066
522 1 11.0172 14.434 10.9367 -8.01438
523 1 14.1516 14.166 10.9939 -8.92518
524 1 17.2972 14.1512 11.0071 -8.94963
393 1 1.5719 11.0068 4.7165 -8.94946
54 1 6.28934 22.0142 3.14409 -8.94951
60 1 15.7247 22.0142 3.14421 -8.9499
99 1 22.0137 22.014 6.28954 -8.94956
101 1 3.14402 22.0142 6.28925 -8.94949
527 1 4.71098 17.3021 11.0078 -8.94591
534 1 4.71554 20.4435 11.0072 -8.94917
687 3 10.9826 12.608 11.7278 2.29724
686 1 20.4417 20.4418 20.4417 -8.9492
685 1 18.8699 18.87 18.8699 -8.9486
684 1 17.2969 20.4418 20.4416 -8.94983
683 1 15.7245 18.8699 18.8699 -8.95038
682 1 14.1519 20.4418 20.4416 -8.94942
681 1 12.5795 18.8699 18.8697 -8.94899
303 1 12.5794 22.014 18.8694 -8.94955
301 1 9.43452 22.014 18.8694 -8.94956
521 1 7.81208 14.2135 11.0351 -8.80272
387 1 12.5795 18.8697 22.0135 -8.94949
207 1 15.725 22.0143 12.5796 -8.94944
201 1 6.28876 22.0149 12.58 -8.95048
385 1 9.43444 18.8698 22.0135 -8.94953
197 1 22.0137 22.014 12.5794 -8.94956
590 1 4.71354 11.0059 17.3005 -8.94766
528 1 7.85426 17.3142 11.0088 -8.95841
661 1 3.14366 15.7248 18.8703 -8.94928
530 1 14.1567 17.3037 11.0063 -8.94888
531 1 17.2995 17.2987 11.0069 -8.94767
660 1 1.5721 17.2969 20.4419 -8.9496
533 1 1.5717 20.4421 11.007 -8.94947
589 1 1.57126 11.0067 17.2978 -8.94937
535 1 7.86101 20.4459 11.0075 -8.9522
536 1 11.0073 20.4433 11.0071 -8.94754
537 1 14.153 20.4438 11.0073 -8.9499
538 1 17.2976 20.4424 11.0071 -8.94941
659 1 22.0139 15.7245 18.8696 -8.9494
680 1 11.007 20.4419 20.4416 -8.94957
679 1 9.43464 18.87 18.8698 -8.94905
678 1 7.86206 20.4419 20.4416 -8.94943
677 1 6.28942 18.8701 18.8701 -8.95031
676 1 4.71705 20.4419 20.4417 -8.9498
675 1 3.14367 18.8703 18.8704 -8.94835
674 1 1.57211 20.4419 20.4418 -8.94919
547 1 22.0136 12.5794 12.5794 -8.94874
548 1 1.57037 14.1518 14.1522 -8.95117
549 1 3.14284 12.5785 12.5798 -8.94618
550 1 4.70833 14.1525 14.1555 -8.95963
551 1 6.29144 12.5762 12.5854 -8.99847
552 1 7.82428 14.1851 14.1962 -8.87209
553 1 9.2119 12.5837 12.6569 -8.1292
554 1 11.0062 14.141 14.1293 -8.91421
555 1 12.7712 12.5563 12.645 -8.18316
556 1 14.1811 14.1744 14.1836 -8.87957
557 1 15.7243 12.5781 12.5842 -8.99302
558 1 17.3037 14.1531 14.1545 -8.95683
559 1 18.8707 12.5797 12.5796 -8.94747
560 1 20.4428 14.1521 14.1521 -8.951
561 1 22.0129 15.7248 12.5795 -8.95068
562 1 1.57028 17.2979 14.1527 -8.94972
563 1 3.13843 15.7268 12.581 -8.95179
564 1 4.71026 17.3027 14.1569 -8.94329
565 1 6.26814 15.7416 12.5934 -8.92883
566 1 7.85497 17.3091 14.1604 -8.95026
567 1 9.40847 15.7396 12.6013 -8.89017
568 1 11.0078 17.2958 14.1514 -8.94324
569 1 12.6085 15.7358 12.601 -8.8776
570 1 14.1595 17.3064 14.1591 -8.94786
571 1 15.7315 15.7266 12.5795 -8.95556
572 1 17.2995 17.2985 14.1527 -8.95046
573 1 18.8711 15.725 12.5791 -8.95086
574 1 20.4419 17.2973 14.152 -8.94992
575 1 -0.000412594 18.8698 12.5795 -8.94947
576 1 1.57175 20.4421 14.1521 -8.94946
577 1 3.14267 18.871 12.58 -8.94905
578 1 4.71573 20.4435 14.1529 -8.94944
579 1 6.2859 18.8754 12.5817 -8.94947
580 1 7.86184 20.4442 14.1528 -8.9522
581 1 9.43483 18.8731 12.5803 -8.95174
582 1 11.0074 20.442 14.1526 -8.94822
583 1 12.5802 18.8714 12.5796 -8.95271
584 1 14.1524 20.4433 14.1525 -8.95243
585 1 15.7263 18.8714 12.5799 -8.94779
586 1 17.2974 20.4424 14.1521 -8.94928
587 1 18.87 18.87 12.5795 -8.94927
588 1 20.4417 20.4419 14.1519 -8.94946
673 1 22.0138 18.8695 18.8695 -8.9496
672 1 20.4418 17.2969 20.4418 -8.94951
671 1 18.8702 15.725 18.8701 -8.94918
670 1 17.2975 17.2976 20.4423 -8.94954
669 1 15.726 15.7261 18.8722 -8.95046
668 1 14.1518 17.2973 20.4417 -8.94987
667 1 12.5788 15.7249 18.8703 -8.95007
596 1 -0.000106282 12.5795 15.7251 -8.95015
597 1 1.57127 14.1521 17.2977 -8.94926
598 1 3.14085 12.5794 15.7268 -8.94903
599 1 4.71372 14.1529 17.3004 -8.94766
600 1 6.27972 12.579 15.7349 -8.94209
601 1 7.85822 14.1546 17.3078 -8.95834
602 1 9.42629 12.5803 15.7347 -8.97005
603 1 11.007 14.1515 17.2951 -8.93933
604 1 12.5864 12.5791 15.7338 -8.96797
605 1 14.1553 14.1542 17.3052 -8.95591
606 1 15.7342 12.5805 15.7345 -8.94142
607 1 17.3 14.1535 17.2999 -8.94765
608 1 18.8729 12.5799 15.7265 -8.94929
609 1 20.4425 14.1523 17.2976 -8.94932
610 1 22.0137 15.7247 15.7247 -8.95044
611 1 1.57132 17.2974 17.2976 -8.95009
612 1 3.14109 15.7256 15.7263 -8.95184
613 1 4.71321 17.3008 17.3013 -8.94509
614 1 6.27685 15.7366 15.7392 -8.93296
615 1 7.86227 17.2985 17.2994 -8.95174
616 1 9.43749 15.7253 15.7289 -8.95456
617 1 11.0073 17.2984 17.2984 -8.94685
618 1 12.5774 15.7239 15.7276 -8.9568
619 1 14.1519 17.298 17.2986 -8.95214
620 1 15.7337 15.7333 15.7339 -8.93546
621 1 17.2996 17.2998 17.2997 -8.94597
622 1 18.8719 15.7257 15.7256 -8.95089
623 1 20.4422 17.2974 17.2974 -8.94986
624 1 22.0135 18.8697 15.7246 -8.94956
625 1 1.57184 20.442 17.2971 -8.94925
626 1 3.14273 18.871 15.7258 -8.94811
627 1 4.71626 20.443 17.2979 -8.94941
628 1 6.287 18.8739 15.7277 -8.94945
629 1 7.86233 20.4421 17.2973 -8.94961
630 1 9.43553 18.8702 15.7253 -8.94878
631 1 11.0071 20.4421 17.2974 -8.94966
632 1 12.5791 18.8698 15.725 -8.94863
633 1 14.1517 20.4419 17.2971 -8.94961
634 1 15.7269 18.873 15.727 -8.94884
635 1 17.2976 20.4427 17.2976 -8.94924
636 1 18.87 18.87 15.7247 -8.94991
637 1 20.4417 20.4419 17.2969 -8.94965
666 1 11.007 17.2976 20.4418 -8.94955
639 1 4.7162 11.0067 20.4428 -8.94934
665 1 9.43524 15.7251 18.8707 -8.94999
664 1 7.86209 17.2973 20.4419 -8.94979
663 1 6.28768 15.7263 18.8734 -8.95125
643 1 17.2979 11.0068 20.4426 -8.94926
662 1 4.71631 17.2976 20.4426 -8.94992
645 1 22.0139 12.5794 18.8697 -8.9495
646 1 1.57205 14.1519 20.4419 -8.94951
647 1 3.14355 12.5794 18.8704 -8.94943
648 1 4.71627 14.1521 20.4428 -8.94925
649 1 6.28735 12.5794 18.8733 -8.94887
650 1 7.86162 14.1522 20.4438 -8.95203
651 1 9.43452 12.5798 18.8725 -8.95067
652 1 11.0068 14.1524 20.4416 -8.94798
653 1 12.5793 12.5799 18.8721 -8.95103
654 1 14.1524 14.1525 20.4429 -8.95168
655 1 15.7267 12.58 18.873 -8.94891
656 1 17.2978 14.1524 20.4425 -8.94917
657 1 18.8704 12.5796 18.8703 -8.94944
658 1 20.4419 14.152 20.4419 -8.94952
351 1 22.0139 12.5794 22.0139 -8.94957
355 1 6.289 12.5792 22.0147 -8.94969
357 1 9.4344 12.5793 22.0144 -8.94912
359 1 12.5794 12.5796 22.013 -8.95109
363 1 18.8698 12.5795 22.0139 -8.94949
367 1 3.14438 15.7243 22.0141 -8.9496
369 1 6.28901 15.7247 22.0139 -8.95095
375 1 15.7252 15.7252 22.0135 -8.95021
377 1 18.8697 15.7246 22.0139 -8.94944
381 1 3.1443 18.8696 22.0139 -8.94946
248 1 3.14412 22.0142 15.7248 -8.94944
258 1 18.8694 22.014 15.7244 -8.9496
295 1 22.0138 22.014 18.8692 -8.94944
595 1 20.4426 11.0068 17.2977 -8.94938
594 1 17.3006 11.0064 17.3005 -8.94779
532 1 20.442 17.2975 11.0069 -8.94963
379 1 22.0139 18.8692 22.0139 -8.94959
