ITEM: TIMESTEP
16
ITEM: NUMBER OF ATOMS
688
ITEM: BOX BOUNDS pp pp pp
0.0000000000000000e+00 2.2013900999999997e+01
0.0000000000000000e+00 2.2013900999999997e+01
0.0000000000000000e+00 2.2013900999999997e+01
ITEM: ATOMS id type x y z c_pot
1 1 -1.31367e-15 1.8534e-15 -1.36292e-16 -8.94963
2 1 1.57242 1.57242 1.57242 -8.94963
3 1 3.14484 1.43571e-14 2.01796e-15 -8.94963
4 1 4.71726 1.57242 1.57242 -8.94963
448 1 20.4415 11.007 7.86211 -8.94963
6 1 7.86211 1.57242 1.57242 -8.94963
175 1 18.8691 9.43453 9.43453 -8.94963
8 1 11.007 1.57242 1.57242 -8.94963
174 1 15.7242 9.43453 9.43453 -8.94996
10 1 14.1518 1.57242 1.57242 -8.94963
11 1 15.7242 6.77225e-14 4.66371e-14 -8.94963
12 1 17.2966 1.57242 1.57242 -8.94963
13 1 18.8691 1.43146e-14 6.43667e-15 -8.94963
14 1 20.4415 1.57242 1.57242 -8.94963
447 1 17.2966 11.007 7.86211 -8.94965
16 1 1.57242 4.71726 1.57242 -8.94963
446 1 14.1519 11.0069 7.86209 -8.95252
18 1 4.71726 4.71726 1.57242 -8.94963
445 1 11.0204 11.0069 7.83512 -7.77808
20 1 7.86211 4.71726 1.57242 -8.94963
21 1 9.43453 3.14484 -1.28012e-12 -8.94963
22 1 11.007 4.71726 1.57242 -8.94963
444 1 7.86087 11.0069 7.86125 -8.91362
24 1 14.1518 4.71726 1.57242 -8.94963
443 1 4.71726 11.007 7.86211 -8.94994
26 1 17.2966 4.71726 1.57242 -8.94963
442 1 1.57242 11.007 7.86211 -8.94963
28 1 20.4415 4.71726 1.57242 -8.94963
397 1 14.1518 11.007 4.71727 -8.95024
30 1 1.57242 7.86211 1.57242 -8.94963
396 1 11.007 11.007 4.71711 -8.95605
32 1 4.71726 7.86211 1.57242 -8.94963
395 1 7.86211 11.007 4.71726 -8.95004
34 1 7.86211 7.86211 1.57242 -8.94963
35 1 9.43453 6.28969 2.57652e-10 -8.94963
36 1 11.007 7.86211 1.57242 -8.94963
37 1 12.5794 6.28969 2.36222e-10 -8.94963
38 1 14.1518 7.86211 1.57242 -8.94963
393 1 1.57242 11.007 4.71726 -8.94963
40 1 17.2966 7.86211 1.57242 -8.94963
350 1 20.4415 11.007 1.57242 -8.94963
42 1 20.4415 7.86211 1.57242 -8.94963
43 1 1.8733e-13 9.43453 3.18982e-13 -8.94963
44 1 3.14484 9.43453 1.90403e-11 -8.94963
348 1 14.1518 11.007 1.57242 -8.94963
347 1 11.007 11.007 1.57242 -8.94967
346 1 7.86211 11.007 1.57242 -8.94963
48 1 15.7242 9.43453 3.61271e-10 -8.94963
49 1 18.8691 9.43453 -9.88868e-12 -8.94963
50 1 22.0139 3.73344e-15 3.14484 -8.94963
51 1 1.57242 1.57242 4.71726 -8.94963
52 1 3.14484 1.97262e-13 3.14484 -8.94963
53 1 4.71726 1.57242 4.71726 -8.94963
54 1 6.28969 -1.2811e-15 3.14484 -8.94963
55 1 7.86211 1.57242 4.71726 -8.94963
173 1 12.5807 9.43356 9.43441 -8.90715
57 1 11.007 1.57242 4.71726 -8.94963
172 1 9.42098 9.4075 9.43442 -7.77158
59 1 14.1518 1.57242 4.71726 -8.94963
60 1 15.7242 -5.19729e-14 3.14484 -8.94963
61 1 17.2966 1.57242 4.71726 -8.94963
62 1 18.8691 1.97381e-13 3.14484 -8.94963
63 1 20.4415 1.57242 4.71726 -8.94963
64 1 22.0139 3.14484 3.14484 -8.94963
65 1 1.57242 4.71726 4.71726 -8.94963
66 1 3.14484 3.14484 3.14484 -8.94963
67 1 4.71726 4.71726 4.71726 -8.94963
68 1 6.28969 3.14484 3.14484 -8.94963
69 1 7.86211 4.71726 4.71726 -8.94964
70 1 9.43453 3.14484 3.14484 -8.94963
71 1 11.007 4.71726 4.71726 -8.94963
72 1 12.5794 3.14484 3.14484 -8.94963
73 1 14.1518 4.71726 4.71726 -8.94963
74 1 15.7242 3.14484 3.14484 -8.94963
75 1 17.2966 4.71726 4.71726 -8.94963
76 1 18.8691 3.14484 3.14484 -8.94963
77 1 20.4415 4.71726 4.71726 -8.94963
78 1 22.0139 6.28969 3.14484 -8.94963
79 1 1.57242 7.86211 4.71726 -8.94963
80 1 3.14484 6.28969 3.14484 -8.94963
81 1 4.71726 7.86211 4.71726 -8.94963
82 1 6.28969 6.28969 3.14484 -8.94963
83 1 7.86211 7.86211 4.71726 -8.94966
84 1 9.43453 6.28969 3.14484 -8.94963
85 1 11.007 7.86211 4.71727 -8.95003
86 1 12.5794 6.28969 3.14484 -8.94964
87 1 14.1518 7.86211 4.71726 -8.94958
88 1 15.7242 6.28969 3.14484 -8.94963
89 1 17.2966 7.86211 4.71726 -8.94963
90 1 18.8691 6.28969 3.14484 -8.94963
91 1 20.4415 7.86211 4.71726 -8.94963
92 1 2.57393e-11 9.43453 3.14484 -8.94963
93 1 3.14484 9.43453 3.14484 -8.94963
94 1 6.28969 9.43453 3.14484 -8.94963
95 1 9.43453 9.43453 3.14484 -8.94962
96 1 12.5794 9.43453 3.14484 -8.94964
97 1 15.7242 9.43453 3.14484 -8.94964
98 1 18.8691 9.43453 3.14484 -8.94963
99 1 22.0139 6.91449e-15 6.28969 -8.94963
100 1 1.57242 1.57242 7.86211 -8.94963
101 1 3.14484 5.77573e-14 6.28969 -8.94963
102 1 4.71726 1.57242 7.86211 -8.94963
103 1 6.28969 1.02962e-10 6.28969 -8.94963
104 1 7.86211 1.57242 7.86211 -8.94963
171 1 6.28961 9.43452 9.43453 -8.9527
106 1 11.007 1.57242 7.86211 -8.94963
170 1 3.14484 9.43453 9.43453 -8.94965
108 1 14.1518 1.57242 7.86211 -8.94963
109 1 15.7242 1.02921e-10 6.28969 -8.94963
110 1 17.2966 1.57242 7.86211 -8.94963
111 1 18.8691 1.86501e-14 6.28969 -8.94963
112 1 20.4415 1.57242 7.86211 -8.94963
113 1 1.41959e-12 3.14484 6.28969 -8.94963
114 1 1.57242 4.71726 7.86211 -8.94963
115 1 3.14484 3.14484 6.28969 -8.94963
116 1 4.71726 4.71726 7.86211 -8.94964
117 1 6.28969 3.14484 6.28969 -8.94963
118 1 7.86211 4.71726 7.86211 -8.94964
119 1 9.43453 3.14484 6.28969 -8.94963
120 1 11.007 4.71726 7.86211 -8.94962
121 1 12.5794 3.14484 6.28969 -8.94963
122 1 14.1518 4.71726 7.86211 -8.94963
123 1 15.7242 3.14484 6.28969 -8.94963
124 1 17.2966 4.71726 7.86211 -8.94963
125 1 18.8691 3.14484 6.28969 -8.94963
126 1 20.4415 4.71726 7.86211 -8.94963
127 1 22.0139 6.28969 6.28969 -8.94963
128 1 1.57242 7.86211 7.86211 -8.94963
129 1 3.14484 6.28969 6.28969 -8.94963
130 1 4.71726 7.86211 7.86211 -8.94967
131 1 6.28968 6.28968 6.28968 -8.94958
132 1 7.86198 7.86199 7.86198 -8.9422
133 1 9.43453 6.28969 6.28969 -8.95004
134 1 11.007 7.86208 7.86207 -8.94763
135 1 12.5794 6.28968 6.28969 -8.94966
136 1 14.1518 7.8621 7.8621 -8.94944
137 1 15.7242 6.28969 6.28969 -8.94963
138 1 17.2966 7.86211 7.86211 -8.94963
139 1 18.8691 6.28969 6.28969 -8.94963
140 1 20.4415 7.86211 7.86211 -8.94963
141 1 22.0139 9.43453 6.28969 -8.94963
142 1 3.14484 9.43453 6.28969 -8.94963
143 1 6.28968 9.43452 6.28968 -8.94949
144 1 9.43448 9.43448 6.28965 -8.94714
145 1 12.5795 9.4344 6.28957 -8.94229
146 1 15.7242 9.43453 6.28969 -8.94967
147 1 18.8691 9.43453 6.28969 -8.94963
148 1 3.25619e-12 1.77198e-13 9.43453 -8.94963
169 1 22.0139 9.43453 9.43453 -8.94963
168 1 18.8691 6.28969 9.43453 -8.94963
151 1 9.43453 1.07584e-08 9.43453 -8.94963
152 1 12.5794 1.07603e-08 9.43453 -8.94963
167 1 15.7242 6.28969 9.43453 -8.94967
166 1 12.5794 6.28968 9.43453 -8.95005
155 1 1.9189e-12 3.14484 9.43453 -8.94963
156 1 3.14484 3.14484 9.43453 -8.94963
157 1 6.28969 3.14484 9.43453 -8.94963
158 1 9.43453 3.14484 9.43453 -8.94967
159 1 12.5794 3.14484 9.43453 -8.94963
160 1 15.7242 3.14484 9.43453 -8.94963
161 1 18.8691 3.14484 9.43453 -8.94963
162 1 3.55721e-11 6.28969 9.43453 -8.94963
163 1 3.14484 6.28969 9.43453 -8.94963
164 1 6.28969 6.28969 9.43453 -8.95024
165 1 9.43453 6.28953 9.43453 -8.95603
344 1 1.57242 11.007 1.57242 -8.94963
345 1 4.71726 11.007 1.57242 -8.94963
181 1 17.2966 1.57242 11.007 -8.94963
183 1 1.57242 4.71726 11.007 -8.94963
188 1 17.2966 4.71726 11.007 -8.94963
189 1 20.4415 4.71726 11.007 -8.94963
513 1 4.71726 11.0069 11.007 -8.94992
516 1 14.1519 11.0069 11.0069 -8.95028
517 1 17.2966 11.0069 11.0069 -8.94964
518 1 20.4415 11.007 11.007 -8.94963
176 1 1.57242 1.57242 11.007 -8.94963
177 1 4.71726 1.57242 11.007 -8.94963
178 1 7.86211 1.57242 11.007 -8.94963
179 1 11.007 1.57242 11.007 -8.94963
180 1 14.1518 1.57242 11.007 -8.94963
644 1 20.4415 11.007 20.4415 -8.94963
182 1 20.4415 1.57242 11.007 -8.94963
642 1 14.1518 11.007 20.4415 -8.94963
184 1 4.71726 4.71726 11.007 -8.94964
185 1 7.86211 4.71726 11.007 -8.94964
186 1 11.007 4.71726 11.007 -8.94966
187 1 14.1518 4.71726 11.007 -8.94963
641 1 11.007 11.007 20.4415 -8.94963
640 1 7.86211 11.007 20.4415 -8.94963
190 1 1.57242 7.86211 11.007 -8.94963
191 1 4.71726 7.86211 11.007 -8.94967
192 1 7.86199 7.862 11.0071 -8.94263
193 1 11.007 7.86192 11.007 -8.95371
194 1 14.1518 7.86211 11.007 -8.94994
195 1 17.2966 7.86211 11.007 -8.94963
196 1 20.4415 7.86211 11.007 -8.94963
343 1 18.8691 9.43453 18.8691 -8.94963
198 1 1.57242 1.57242 14.1518 -8.94963
342 1 15.7242 9.43453 18.8691 -8.94963
200 1 4.71726 1.57242 14.1518 -8.94963
341 1 12.5794 9.43453 18.8691 -8.94963
202 1 7.86211 1.57242 14.1518 -8.94963
203 1 9.43453 7.71306e-09 12.5794 -8.94963
204 1 11.007 1.57242 14.1518 -8.94963
205 1 12.5794 7.71462e-09 12.5794 -8.94963
206 1 14.1518 1.57242 14.1518 -8.94963
340 1 9.43453 9.43453 18.8691 -8.94963
208 1 17.2966 1.57242 14.1518 -8.94963
339 1 6.28969 9.43453 18.8691 -8.94963
210 1 20.4415 1.57242 14.1518 -8.94963
211 1 1.41754e-12 3.14484 12.5794 -8.94963
212 1 1.57242 4.71726 14.1518 -8.94963
213 1 3.14484 3.14484 12.5794 -8.94963
214 1 4.71726 4.71726 14.1518 -8.94963
215 1 6.28969 3.14484 12.5794 -8.94963
216 1 7.86211 4.71726 14.1518 -8.94964
217 1 9.43453 3.14484 12.5794 -8.94963
218 1 11.007 4.71726 14.1518 -8.94964
219 1 12.5794 3.14484 12.5794 -8.94963
220 1 14.1518 4.71726 14.1518 -8.94963
221 1 15.7242 3.14484 12.5794 -8.94963
222 1 17.2966 4.71726 14.1518 -8.94963
223 1 18.8691 3.14484 12.5794 -8.94963
224 1 20.4415 4.71726 14.1518 -8.94963
225 1 22.0139 6.28969 12.5794 -8.94963
226 1 1.57242 7.86211 14.1518 -8.94963
227 1 3.14484 6.28969 12.5794 -8.94963
228 1 4.71726 7.86211 14.1518 -8.94964
229 1 6.28968 6.28968 12.5794 -8.94958
230 1 7.86211 7.86211 14.1518 -8.94968
231 1 9.43453 6.28969 12.5794 -8.95002
232 1 11.007 7.86211 14.1518 -8.95049
233 1 12.5794 6.28968 12.5794 -8.94964
234 1 14.1518 7.86211 14.1518 -8.9496
235 1 15.7242 6.28969 12.5794 -8.94964
236 1 17.2966 7.86211 14.1518 -8.94964
237 1 18.8691 6.28969 12.5794 -8.94963
238 1 20.4415 7.86211 14.1518 -8.94963
239 1 22.0139 9.43453 12.5794 -8.94963
240 1 3.14484 9.43453 12.5794 -8.94963
241 1 6.28969 9.43453 12.5794 -8.94989
242 1 9.43443 9.43444 12.5795 -8.94424
243 1 12.5796 9.43436 12.5795 -8.9388
244 1 15.7242 9.43453 12.5794 -8.95007
245 1 18.8691 9.43453 12.5794 -8.94963
246 1 22.0139 2.10448e-13 15.7242 -8.94963
247 1 1.57242 1.57242 17.2966 -8.94963
248 1 3.14484 -1.15776e-12 15.7242 -8.94963
249 1 4.71726 1.57242 17.2966 -8.94963
250 1 6.28969 8.64206e-11 15.7242 -8.94963
251 1 7.86211 1.57242 17.2966 -8.94963
252 1 9.43453 2.11939e-10 15.7242 -8.94963
253 1 11.007 1.57242 17.2966 -8.94963
254 1 12.5794 2.12063e-10 15.7242 -8.94963
255 1 14.1518 1.57242 17.2966 -8.94963
256 1 15.7242 8.64483e-11 15.7242 -8.94963
257 1 17.2966 1.57242 17.2966 -8.94963
258 1 18.8691 -1.15635e-12 15.7242 -8.94963
259 1 20.4415 1.57242 17.2966 -8.94963
260 1 22.0139 3.14484 15.7242 -8.94963
261 1 1.57242 4.71726 17.2966 -8.94963
262 1 3.14484 3.14484 15.7242 -8.94963
263 1 4.71726 4.71726 17.2966 -8.94963
264 1 6.28969 3.14484 15.7242 -8.94963
265 1 7.86211 4.71726 17.2966 -8.94963
266 1 9.43453 3.14484 15.7242 -8.94963
267 1 11.007 4.71726 17.2966 -8.94963
268 1 12.5794 3.14484 15.7242 -8.94963
269 1 14.1518 4.71726 17.2966 -8.94963
270 1 15.7242 3.14484 15.7242 -8.94963
271 1 17.2966 4.71726 17.2966 -8.94963
272 1 18.8691 3.14484 15.7242 -8.94963
273 1 20.4415 4.71726 17.2966 -8.94963
274 1 22.0139 6.28969 15.7242 -8.94963
275 1 1.57242 7.86211 17.2966 -8.94963
276 1 3.14484 6.28969 15.7242 -8.94963
277 1 4.71726 7.86211 17.2966 -8.94963
278 1 6.28969 6.28969 15.7242 -8.94963
279 1 7.86211 7.86211 17.2966 -8.94963
280 1 9.43453 6.28969 15.7242 -8.94964
281 1 11.007 7.86211 17.2966 -8.94966
282 1 12.5794 6.28969 15.7242 -8.94964
283 1 14.1518 7.86211 17.2966 -8.94963
284 1 15.7242 6.28969 15.7242 -8.94963
285 1 17.2966 7.86211 17.2966 -8.94963
286 1 18.8691 6.28969 15.7242 -8.94963
287 1 20.4415 7.86211 17.2966 -8.94963
288 1 2.56818e-11 9.43453 15.7242 -8.94963
289 1 3.14484 9.43453 15.7242 -8.94963
290 1 6.28968 9.43453 15.7242 -8.94958
291 1 9.43452 9.43453 15.7242 -8.94948
292 1 12.5794 9.43453 15.7242 -8.9495
293 1 15.7242 9.43453 15.7242 -8.94958
294 1 18.8691 9.43453 15.7242 -8.94963
295 1 -1.31301e-15 8.40274e-15 18.8691 -8.94963
296 1 1.57242 1.57242 20.4415 -8.94963
297 1 3.14484 5.53883e-13 18.8691 -8.94963
298 1 4.71726 1.57242 20.4415 -8.94963
299 1 6.28969 3.40104e-12 18.8691 -8.94963
300 1 7.86211 1.57242 20.4415 -8.94963
338 1 3.14484 9.43453 18.8691 -8.94963
302 1 11.007 1.57242 20.4415 -8.94963
337 1 1.94117e-13 9.43453 18.8691 -8.94963
304 1 14.1518 1.57242 20.4415 -8.94963
305 1 15.7242 3.40257e-12 18.8691 -8.94963
306 1 17.2966 1.57242 20.4415 -8.94963
307 1 18.8691 5.53805e-13 18.8691 -8.94963
308 1 20.4415 1.57242 20.4415 -8.94963
309 1 22.0139 3.14484 18.8691 -8.94963
310 1 1.57242 4.71726 20.4415 -8.94963
311 1 3.14484 3.14484 18.8691 -8.94963
312 1 4.71726 4.71726 20.4415 -8.94963
313 1 6.28969 3.14484 18.8691 -8.94963
314 1 7.86211 4.71726 20.4415 -8.94963
315 1 9.43453 3.14484 18.8691 -8.94963
316 1 11.007 4.71726 20.4415 -8.94963
317 1 12.5794 3.14484 18.8691 -8.94963
318 1 14.1518 4.71726 20.4415 -8.94963
319 1 15.7242 3.14484 18.8691 -8.94963
320 1 17.2966 4.71726 20.4415 -8.94963
321 1 18.8691 3.14484 18.8691 -8.94963
322 1 20.4415 4.71726 20.4415 -8.94963
323 1 22.0139 6.28969 18.8691 -8.94963
324 1 1.57242 7.86211 20.4415 -8.94963
325 1 3.14484 6.28969 18.8691 -8.94963
326 1 4.71726 7.86211 20.4415 -8.94963
327 1 6.28969 6.28969 18.8691 -8.94963
328 1 7.86211 7.86211 20.4415 -8.94963
329 1 9.43453 6.28969 18.8691 -8.94963
330 1 11.007 7.86211 20.4415 -8.94963
331 1 12.5794 6.28969 18.8691 -8.94963
332 1 14.1518 7.86211 20.4415 -8.94963
333 1 15.7242 6.28969 18.8691 -8.94963
334 1 17.2966 7.86211 20.4415 -8.94963
335 1 18.8691 6.28969 18.8691 -8.94963
336 1 20.4415 7.86211 20.4415 -8.94963
512 1 1.57242 11.007 11.007 -8.94963
638 1 1.57242 11.007 20.4415 -8.94963
514 1 7.86084 11.0069 11.0078 -8.9113
515 1 11.0208 10.9792 11.0208 -6.5069
595 1 20.4415 11.007 17.2966 -8.94963
594 1 17.2966 11.007 17.2966 -8.94964
593 1 14.1518 11.007 17.2966 -8.94967
540 1 1.57242 11.007 14.1518 -8.94963
541 1 4.71726 11.0069 14.1518 -8.94967
542 1 7.86199 11.0068 14.1519 -8.94265
543 1 11.007 11.0061 14.1532 -8.92125
544 1 14.1519 11.0068 14.1519 -8.94283
545 1 17.2966 11.0069 14.1518 -8.94964
546 1 20.4415 11.007 14.1518 -8.94963
589 1 1.57242 11.007 17.2966 -8.94963
590 1 4.71726 11.007 17.2966 -8.94964
591 1 7.86211 11.007 17.2966 -8.94967
592 1 11.007 11.0069 17.2966 -8.94998
5 1 6.28969 6.74652e-14 22.0139 -8.94963
15 1 22.0139 3.14484 22.0139 -8.94963
17 1 3.14484 3.14484 22.0139 -8.94963
19 1 6.28969 3.14484 22.0139 -8.94963
23 1 12.5794 3.14484 22.0139 -8.94963
25 1 15.7242 3.14484 22.0139 -8.94963
27 1 18.8691 3.14484 22.0139 -8.94963
29 1 22.0139 6.28969 22.0139 -8.94963
31 1 3.14484 6.28969 22.0139 -8.94963
33 1 6.28969 6.28969 22.0139 -8.94963
39 1 15.7242 6.28969 22.0139 -8.94963
41 1 18.8691 6.28969 22.0139 -8.94963
45 1 6.28969 9.43453 22.0139 -8.94963
46 1 9.43453 9.43453 22.0139 -8.94963
47 1 12.5794 9.43453 22.0139 -8.94963
688 3 10.2205 11.0072 9.43409 4.87007
511 1 18.8691 18.8691 9.43453 -8.94963
510 1 15.7242 18.8691 9.43453 -8.94964
509 1 12.5794 18.8691 9.43453 -8.94964
508 1 9.43453 18.8691 9.43453 -8.94968
349 1 17.2966 11.007 1.57242 -8.94963
507 1 6.28969 18.8691 9.43453 -8.94964
154 1 18.8691 22.0139 9.43453 -8.94963
352 1 1.57242 14.1518 1.57242 -8.94963
353 1 3.14484 12.5794 1.85724e-11 -8.94963
354 1 4.71726 14.1518 1.57242 -8.94963
153 1 15.7242 22.0139 9.43453 -8.94963
356 1 7.86211 14.1518 1.57242 -8.94963
150 1 6.28969 22.0139 9.43453 -8.94963
358 1 11.007 14.1518 1.57242 -8.94963
149 1 3.14484 22.0139 9.43453 -8.94963
360 1 14.1518 14.1518 1.57242 -8.94963
361 1 15.7242 12.5794 2.71527e-10 -8.94963
362 1 17.2966 14.1518 1.57242 -8.94963
107 1 12.5794 22.0139 6.28969 -8.94963
364 1 20.4415 14.1518 1.57242 -8.94963
365 1 22.0139 15.7242 1.77175e-13 -8.94963
366 1 1.57242 17.2966 1.57242 -8.94963
105 1 9.43453 22.0139 6.28969 -8.94963
368 1 4.71726 17.2966 1.57242 -8.94963
58 1 12.5794 22.0139 3.14484 -8.94963
370 1 7.86211 17.2966 1.57242 -8.94963
371 1 9.43453 15.7242 7.58989e-10 -8.94963
372 1 11.007 17.2966 1.57242 -8.94963
373 1 12.5794 15.7242 7.40798e-10 -8.94963
374 1 14.1518 17.2966 1.57242 -8.94963
56 1 9.43453 22.0139 3.14484 -8.94963
376 1 17.2966 17.2966 1.57242 -8.94963
7 1 9.43453 22.0139 2.12784e-12 -8.94963
378 1 20.4415 17.2966 1.57242 -8.94963
379 1 22.0139 18.8691 -6.40692e-15 -8.94963
380 1 1.57242 20.4415 1.57242 -8.94963
495 1 12.5815 12.5802 9.4333 -8.87837
382 1 4.71726 20.4415 1.57242 -8.94963
383 1 6.28969 18.8691 4.159e-12 -8.94963
384 1 7.86211 20.4415 1.57242 -8.94963
494 1 9.42024 12.6063 9.43331 -7.74049
386 1 11.007 20.4415 1.57242 -8.94963
493 1 6.28961 12.5794 9.43453 -8.95307
388 1 14.1518 20.4415 1.57242 -8.94963
389 1 15.7242 18.8691 3.04325e-12 -8.94963
390 1 17.2966 20.4415 1.57242 -8.94963
391 1 18.8691 18.8691 3.35532e-13 -8.94963
392 1 20.4415 20.4415 1.57242 -8.94963
506 1 3.14484 18.8691 9.43453 -8.94963
394 1 4.71727 11.007 4.71727 -8.94966
505 1 1.91653e-12 18.8691 9.43453 -8.94963
504 1 18.8691 15.7242 9.43453 -8.94963
503 1 15.7242 15.7242 9.43453 -8.94968
398 1 17.2966 11.007 4.71726 -8.94963
399 1 20.4415 11.007 4.71726 -8.94963
400 1 2.57951e-11 12.5794 3.14484 -8.94963
401 1 1.57242 14.1518 4.71726 -8.94963
402 1 3.14484 12.5794 3.14484 -8.94963
403 1 4.71726 14.1518 4.71726 -8.94963
404 1 6.28969 12.5794 3.14484 -8.94963
405 1 7.86211 14.1518 4.71726 -8.94966
406 1 9.43453 12.5794 3.14484 -8.94962
407 1 11.007 14.1518 4.71727 -8.95005
408 1 12.5794 12.5794 3.14484 -8.94964
409 1 14.1518 14.1518 4.71726 -8.94958
410 1 15.7242 12.5794 3.14484 -8.94964
411 1 17.2966 14.1518 4.71726 -8.94963
412 1 18.8691 12.5794 3.14484 -8.94963
413 1 20.4415 14.1518 4.71726 -8.94963
414 1 22.0139 15.7242 3.14484 -8.94963
415 1 1.57242 17.2966 4.71726 -8.94963
416 1 3.14484 15.7242 3.14484 -8.94963
417 1 4.71726 17.2966 4.71726 -8.94963
418 1 6.28969 15.7242 3.14484 -8.94963
419 1 7.86211 17.2966 4.71726 -8.94964
420 1 9.43453 15.7242 3.14484 -8.94963
421 1 11.007 17.2966 4.71726 -8.94963
422 1 12.5794 15.7242 3.14484 -8.94964
423 1 14.1518 17.2966 4.71726 -8.94963
424 1 15.7242 15.7242 3.14484 -8.94963
425 1 17.2966 17.2966 4.71726 -8.94963
426 1 18.8691 15.7242 3.14484 -8.94963
427 1 20.4415 17.2966 4.71726 -8.94963
428 1 22.0139 18.8691 3.14484 -8.94963
429 1 1.57242 20.4415 4.71726 -8.94963
430 1 3.14484 18.8691 3.14484 -8.94963
431 1 4.71726 20.4415 4.71726 -8.94963
432 1 6.28969 18.8691 3.14484 -8.94963
433 1 7.86211 20.4415 4.71726 -8.94963
434 1 9.43453 18.8691 3.14484 -8.94963
435 1 11.007 20.4415 4.71726 -8.94963
436 1 12.5794 18.8691 3.14484 -8.94963
437 1 14.1518 20.4415 4.71726 -8.94963
438 1 15.7242 18.8691 3.14484 -8.94963
439 1 17.2966 20.4415 4.71726 -8.94963
440 1 18.8691 18.8691 3.14484 -8.94963
441 1 20.4415 20.4415 4.71726 -8.94963
502 1 12.5795 15.7243 9.43441 -8.94267
501 1 9.4344 15.7245 9.43441 -8.94867
500 1 6.28969 15.7242 9.43453 -8.95026
499 1 3.14484 15.7242 9.43453 -8.94963
498 1 3.36622e-11 15.7242 9.43453 -8.94963
497 1 18.8691 12.5794 9.43453 -8.94964
496 1 15.7242 12.5794 9.43453 -8.95035
449 1 22.0139 12.5794 6.28969 -8.94963
450 1 1.57242 14.1518 7.86211 -8.94963
451 1 3.14484 12.5794 6.28969 -8.94963
452 1 4.71726 14.1518 7.86211 -8.94967
453 1 6.28968 12.5794 6.28968 -8.94952
454 1 7.86198 14.1519 7.86198 -8.94203
455 1 9.43448 12.5794 6.28965 -8.94742
456 1 11.007 14.1518 7.86198 -8.95018
457 1 12.5795 12.5795 6.28956 -8.94257
458 1 14.1518 14.1518 7.8621 -8.94934
459 1 15.7242 12.5794 6.28969 -8.9497
460 1 17.2966 14.1518 7.86211 -8.94963
461 1 18.8691 12.5794 6.28969 -8.94963
462 1 20.4415 14.1518 7.86211 -8.94963
463 1 22.0139 15.7242 6.28969 -8.94963
464 1 1.57242 17.2966 7.86211 -8.94963
465 1 3.14484 15.7242 6.28969 -8.94963
466 1 4.71726 17.2966 7.86211 -8.94964
467 1 6.28968 15.7242 6.28968 -8.94958
468 1 7.86211 17.2966 7.86211 -8.94958
469 1 9.43453 15.7242 6.28969 -8.95007
470 1 11.007 17.2966 7.86211 -8.95022
471 1 12.5794 15.7242 6.28968 -8.94969
472 1 14.1518 17.2966 7.86211 -8.94958
473 1 15.7242 15.7242 6.28969 -8.94964
474 1 17.2966 17.2966 7.86211 -8.94963
475 1 18.8691 15.7242 6.28969 -8.94963
476 1 20.4415 17.2966 7.86211 -8.94963
477 1 1.38235e-12 18.8691 6.28969 -8.94963
478 1 1.57242 20.4415 7.86211 -8.94963
479 1 3.14484 18.8691 6.28969 -8.94963
480 1 4.71726 20.4415 7.86211 -8.94963
481 1 6.28969 18.8691 6.28969 -8.94963
482 1 7.86211 20.4415 7.86211 -8.94963
483 1 9.43453 18.8691 6.28969 -8.94964
484 1 11.007 20.4415 7.86211 -8.94963
485 1 12.5794 18.8691 6.28969 -8.94964
486 1 14.1518 20.4415 7.86211 -8.94963
487 1 15.7242 18.8691 6.28969 -8.94963
488 1 17.2966 20.4415 7.86211 -8.94963
489 1 18.8691 18.8691 6.28969 -8.94963
490 1 20.4415 20.4415 7.86211 -8.94963
491 1 22.0139 12.5794 9.43453 -8.94963
492 1 3.14484 12.5794 9.43453 -8.94965
519 1 1.57242 14.1518 11.007 -8.94963
520 1 4.71726 14.1518 11.007 -8.94965
522 1 11.007 14.1788 10.9936 -7.77013
523 1 14.1518 14.1518 11.0069 -8.94694
524 1 17.2966 14.1518 11.0069 -8.94962
525 1 20.4415 14.1518 11.007 -8.94963
526 1 1.57242 17.2966 11.007 -8.94963
529 1 11.007 17.2968 11.0069 -8.95602
532 1 20.4415 17.2966 11.007 -8.94963
539 1 20.4415 20.4415 11.007 -8.94963
687 3 11.0068 12.5799 11.7932 4.86995
686 1 20.4415 20.4415 20.4415 -8.94963
685 1 18.8691 18.8691 18.8691 -8.94963
684 1 17.2966 20.4415 20.4415 -8.94963
683 1 15.7242 18.8691 18.8691 -8.94963
682 1 14.1518 20.4415 20.4415 -8.94963
681 1 12.5794 18.8691 18.8691 -8.94963
303 1 12.5794 22.0139 18.8691 -8.94963
301 1 9.43453 22.0139 18.8691 -8.94963
521 1 7.86195 14.152 11.007 -8.93978
209 1 18.8691 22.0139 12.5794 -8.94963
207 1 15.7242 22.0139 12.5794 -8.94963
201 1 6.28969 22.0139 12.5794 -8.94963
199 1 3.14484 22.0139 12.5794 -8.94963
197 1 22.0139 22.0139 12.5794 -8.94963
527 1 4.71726 17.2966 11.007 -8.94964
528 1 7.86211 17.2966 11.007 -8.95004
661 1 3.14484 15.7242 18.8691 -8.94963
530 1 14.1518 17.2966 11.007 -8.95004
531 1 17.2966 17.2966 11.007 -8.94963
660 1 1.57242 17.2966 20.4415 -8.94963
533 1 1.57242 20.4415 11.007 -8.94963
534 1 4.71726 20.4415 11.007 -8.94963
535 1 7.86211 20.4415 11.007 -8.94963
536 1 11.007 20.4415 11.007 -8.94967
537 1 14.1518 20.4415 11.007 -8.94963
538 1 17.2966 20.4415 11.007 -8.94963
659 1 22.0139 15.7242 18.8691 -8.94963
680 1 11.007 20.4415 20.4415 -8.94963
679 1 9.43453 18.8691 18.8691 -8.94963
678 1 7.86211 20.4415 20.4415 -8.94963
677 1 6.28969 18.8691 18.8691 -8.94963
676 1 4.71726 20.4415 20.4415 -8.94963
675 1 3.14484 18.8691 18.8691 -8.94963
674 1 1.57242 20.4415 20.4415 -8.94963
547 1 22.0139 12.5794 12.5794 -8.94963
548 1 1.57242 14.1518 14.1518 -8.94963
549 1 3.14484 12.5794 12.5794 -8.94967
550 1 4.71726 14.1518 14.1518 -8.94964
551 1 6.28953 12.5794 12.5794 -8.95589
552 1 7.86199 14.1519 14.1519 -8.94228
553 1 9.40756 12.5794 12.5928 -7.77317
554 1 11.007 14.1526 14.153 -8.91412
555 1 12.6064 12.5795 12.5929 -7.77169
556 1 14.1519 14.1519 14.1519 -8.9422
557 1 15.7244 12.5794 12.5794 -8.95606
558 1 17.2966 14.1518 14.1518 -8.94964
559 1 18.8691 12.5794 12.5794 -8.94967
560 1 20.4415 14.1518 14.1518 -8.94963
561 1 22.0139 15.7242 12.5794 -8.94963
562 1 1.57242 17.2966 14.1518 -8.94963
563 1 3.14484 15.7242 12.5794 -8.94963
564 1 4.71726 17.2966 14.1518 -8.94964
565 1 6.28969 15.7242 12.5794 -8.94998
566 1 7.86211 17.2966 14.1518 -8.94966
567 1 9.43448 15.7242 12.5794 -8.94751
568 1 11.007 17.2966 14.1518 -8.95005
569 1 12.5794 15.7242 12.5794 -8.94713
570 1 14.1518 17.2966 14.1518 -8.94966
571 1 15.7242 15.7242 12.5794 -8.95003
572 1 17.2966 17.2966 14.1518 -8.94964
573 1 18.8691 15.7242 12.5794 -8.94963
574 1 20.4415 17.2966 14.1518 -8.94963
575 1 1.39649e-12 18.8691 12.5794 -8.94963
576 1 1.57242 20.4415 14.1518 -8.94963
577 1 3.14484 18.8691 12.5794 -8.94963
578 1 4.71726 20.4415 14.1518 -8.94963
579 1 6.28969 18.8691 12.5794 -8.94963
580 1 7.86211 20.4415 14.1518 -8.94963
581 1 9.43453 18.8691 12.5794 -8.94962
582 1 11.007 20.4415 14.1518 -8.94963
583 1 12.5794 18.8691 12.5794 -8.94962
584 1 14.1518 20.4415 14.1518 -8.94963
585 1 15.7242 18.8691 12.5794 -8.94963
586 1 17.2966 20.4415 14.1518 -8.94963
587 1 18.8691 18.8691 12.5794 -8.94963
588 1 20.4415 20.4415 14.1518 -8.94963
673 1 22.0139 18.8691 18.8691 -8.94963
672 1 20.4415 17.2966 20.4415 -8.94963
671 1 18.8691 15.7242 18.8691 -8.94963
670 1 17.2966 17.2966 20.4415 -8.94963
669 1 15.7242 15.7242 18.8691 -8.94963
668 1 14.1518 17.2966 20.4415 -8.94963
667 1 12.5794 15.7242 18.8691 -8.94963
596 1 2.59042e-11 12.5794 15.7242 -8.94963
597 1 1.57242 14.1518 17.2966 -8.94963
598 1 3.14484 12.5794 15.7242 -8.94963
599 1 4.71726 14.1518 17.2966 -8.94964
600 1 6.28969 12.5794 15.7242 -8.95024
601 1 7.86211 14.1518 17.2966 -8.94967
602 1 9.43452 12.5794 15.7243 -8.95267
603 1 11.007 14.1518 17.2966 -8.94994
604 1 12.5794 12.5794 15.7243 -8.95268
605 1 14.1518 14.1518 17.2966 -8.94967
606 1 15.7242 12.5794 15.7242 -8.95024
607 1 17.2966 14.1518 17.2966 -8.94964
608 1 18.8691 12.5794 15.7242 -8.94963
609 1 20.4415 14.1518 17.2966 -8.94963
610 1 22.0139 15.7242 15.7242 -8.94963
611 1 1.57242 17.2966 17.2966 -8.94963
612 1 3.14484 15.7242 15.7242 -8.94963
613 1 4.71726 17.2966 17.2966 -8.94963
614 1 6.28968 15.7242 15.7242 -8.94958
615 1 7.86211 17.2966 17.2966 -8.94963
616 1 9.43452 15.7242 15.7242 -8.94949
617 1 11.007 17.2966 17.2966 -8.94966
618 1 12.5794 15.7242 15.7242 -8.9495
619 1 14.1518 17.2966 17.2966 -8.94963
620 1 15.7242 15.7242 15.7242 -8.94958
621 1 17.2966 17.2966 17.2966 -8.94963
622 1 18.8691 15.7242 15.7242 -8.94963
623 1 20.4415 17.2966 17.2966 -8.94963
624 1 22.0139 18.8691 15.7242 -8.94963
625 1 1.57242 20.4415 17.2966 -8.94963
626 1 3.14484 18.8691 15.7242 -8.94963
627 1 4.71726 20.4415 17.2966 -8.94963
628 1 6.28969 18.8691 15.7242 -8.94963
629 1 7.86211 20.4415 17.2966 -8.94963
630 1 9.43453 18.8691 15.7242 -8.94963
631 1 11.007 20.4415 17.2966 -8.94963
632 1 12.5794 18.8691 15.7242 -8.94963
633 1 14.1518 20.4415 17.2966 -8.94963
634 1 15.7242 18.8691 15.7242 -8.94963
635 1 17.2966 20.4415 17.2966 -8.94963
636 1 18.8691 18.8691 15.7242 -8.94963
637 1 20.4415 20.4415 17.2966 -8.94963
666 1 11.007 17.2966 20.4415 -8.94963
639 1 4.71726 11.007 20.4415 -8.94963
665 1 9.43453 15.7242 18.8691 -8.94963
664 1 7.86211 17.2966 20.4415 -8.94963
663 1 6.28969 15.7242 18.8691 -8.94963
643 1 17.2966 11.007 20.4415 -8.94963
662 1 4.71726 17.2966 20.4415 -8.94963
645 1 2.07413e-13 12.5794 18.8691 -8.94963
646 1 1.57242 14.1518 20.4415 -8.94963
647 1 3.14484 12.5794 18.8691 -8.94963
648 1 4.71726 14.1518 20.4415 -8.94963
649 1 6.28969 12.5794 18.8691 -8.94963
650 1 7.86211 14.1518 20.4415 -8.94963
651 1 9.43453 12.5794 18.8691 -8.94965
652 1 11.007 14.1518 20.4415 -8.94963
653 1 12.5794 12.5794 18.8691 -8.94965
654 1 14.1518 14.1518 20.4415 -8.94963
655 1 15.7242 12.5794 18.8691 -8.94963
656 1 17.2966 14.1518 20.4415 -8.94963
657 1 18.8691 12.5794 18.8691 -8.94963
658 1 20.4415 14.1518 20.4415 -8.94963
351 1 1.73706e-13 12.5794 22.0139 -8.94963
355 1 6.28969 12.5794 22.0139 -8.94963
357 1 9.43453 12.5794 22.0139 -8.94963
359 1 12.5794 12.5794 22.0139 -8.94963
363 1 18.8691 12.5794 22.0139 -8.94963
367 1 3.14484 15.7242 22.0139 -8.94963
369 1 6.28969 15.7242 22.0139 -8.94963
375 1 15.7242 15.7242 22.0139 -8.94963
377 1 18.8691 15.7242 22.0139 -8.94963
9 1 12.5794 22.0139 22.0139 -8.94963
381 1 3.14484 18.8691 22.0139 -8.94963
385 1 9.43453 18.8691 22.0139 -8.94963
387 1 12.5794 18.8691 22.0139 -8.94963
