ITEM: TIMESTEP
74
ITEM: NUMBER OF ATOMS
688
ITEM: BOX BOUNDS pp pp pp
0.0000000000000000e+00 2.2013900999999997e+01
0.0000000000000000e+00 2.2013900999999997e+01
0.0000000000000000e+00 2.2013900999999997e+01
ITEM: ATOMS id type x y z c_pot
1 1 -9.32264e-05 -5.54675e-16 -8.46373e-05 -8.94939
2 1 1.57208 1.5722 1.57209 -8.94923
189 1 20.4414 4.71677 11.007 -8.94955
4 1 4.71707 1.57215 1.57205 -8.94967
175 1 18.8695 9.43415 9.4345 -8.94791
6 1 7.86205 1.57213 1.57204 -8.94952
174 1 15.7227 9.43488 9.43441 -8.94017
8 1 11.007 1.57211 1.57204 -8.94955
173 1 12.5592 9.44331 9.43162 -8.95913
10 1 14.1519 1.57212 1.57211 -8.94953
172 1 9.35713 9.18396 9.42741 -8.33957
12 1 17.297 1.57206 1.57209 -8.94947
188 1 17.2974 4.71639 11.0069 -8.94898
14 1 20.4415 1.57228 1.57231 -8.94961
171 1 6.2762 9.42539 9.43205 -9.02123
16 1 1.57213 4.71705 1.57202 -8.94978
17 1 3.14451 3.14451 -0.000343156 -8.94952
18 1 4.71634 4.71637 1.57099 -8.94952
170 1 3.13973 9.43398 9.43362 -8.95018
20 1 7.86183 4.71645 1.57132 -8.94915
21 1 9.43448 3.14444 -0.000288381 -8.94955
22 1 11.007 4.71634 1.57138 -8.94937
169 1 22.0126 9.43438 9.43435 -8.94972
24 1 14.1523 4.71625 1.57136 -8.94975
168 1 18.8697 6.28887 9.43451 -8.94952
26 1 17.2978 4.71613 1.57141 -8.94825
167 1 15.7261 6.28778 9.43442 -8.94623
28 1 20.4418 4.71696 1.57211 -8.94956
166 1 12.5778 6.29144 9.4345 -8.94564
30 1 1.57217 7.86203 1.57201 -8.94944
165 1 9.42963 6.29174 9.43444 -9.00872
32 1 4.71683 7.86224 1.57161 -8.9497
33 1 6.2893 6.28937 -0.000792287 -8.95059
34 1 7.86179 7.86191 1.57036 -8.95237
35 1 9.43426 6.28905 -0.000763746 -8.94961
36 1 11.0066 7.8612 1.56992 -8.95047
37 1 12.5794 6.28906 -0.000809425 -8.94968
38 1 14.1533 7.86062 1.56897 -8.95155
164 1 6.27921 6.27981 9.43447 -8.94319
40 1 17.2978 7.86149 1.57131 -8.94925
163 1 3.14052 6.28731 9.43447 -8.94916
42 1 20.4418 7.86194 1.57205 -8.94948
162 1 22.0129 6.28903 9.43451 -8.9499
44 1 3.14452 9.43449 -0.000324588 -8.94957
161 1 18.8693 3.14442 9.43452 -8.94959
181 1 17.2969 1.57214 11.007 -8.94957
160 1 15.7248 3.14401 9.43448 -8.94962
48 1 15.7251 9.43421 -0.00103113 -8.94938
159 1 12.5796 3.14447 9.43446 -8.94832
50 1 22.0137 1.25273e-16 3.14473 -8.94961
51 1 1.572 1.57212 4.717 -8.94956
52 1 3.14438 -5.57531e-16 3.14436 -8.94957
53 1 4.71651 1.57145 4.71645 -8.95002
54 1 6.28957 -2.3579e-16 3.14441 -8.94959
55 1 7.86208 1.5716 4.71663 -8.94961
56 1 9.43457 1.0012e-15 3.14438 -8.94955
57 1 11.0072 1.57163 4.71666 -8.94957
58 1 12.5795 1.68636e-15 3.14445 -8.94951
59 1 14.1522 1.57155 4.71692 -8.95059
60 1 15.7245 1.57177e-15 3.14455 -8.94997
61 1 17.2968 1.57219 4.71726 -8.94971
62 1 18.8691 9.98633e-16 3.1448 -8.9497
63 1 20.4414 1.57229 4.71719 -8.94956
64 1 -0.000349021 3.14452 3.14453 -8.94954
65 1 1.57103 4.71637 4.71635 -8.94957
66 1 3.1437 3.14379 3.14367 -8.94826
67 1 4.71337 4.71343 4.71333 -8.9446
68 1 6.28926 3.14381 3.14383 -8.94967
69 1 7.86121 4.71432 4.71493 -8.94914
70 1 9.43451 3.1438 3.14393 -8.94938
71 1 11.0074 4.71452 4.71514 -8.94786
72 1 12.5796 3.14374 3.14403 -8.94918
73 1 14.1545 4.71282 4.71467 -8.94975
74 1 15.7252 3.14336 3.1439 -8.94938
75 1 17.2976 4.71633 4.71697 -8.95029
76 1 18.8693 3.14446 3.14465 -8.94981
77 1 20.4414 4.71689 4.71705 -8.94978
78 1 22.0139 6.28947 3.14445 -8.9498
79 1 1.57154 7.86203 4.71657 -8.94979
80 1 3.14383 6.2893 3.14377 -8.95016
81 1 4.71471 7.86175 4.71505 -8.95105
82 1 6.28722 6.28737 3.14059 -8.95015
83 1 7.85644 7.85655 4.7073 -8.95429
84 1 9.43401 6.28761 3.14198 -8.94771
85 1 11.0073 7.85783 4.70903 -8.95217
86 1 12.5803 6.28741 3.14167 -8.94948
87 1 14.1647 7.85006 4.70468 -8.9289
88 1 15.7281 6.2858 3.14105 -8.94439
89 1 17.3006 7.86018 4.71536 -8.95085
90 1 18.8703 6.28886 3.14404 -8.94966
91 1 20.4422 7.86177 4.71682 -8.95018
92 1 -3.49336e-05 9.43443 3.14432 -8.94954
93 1 3.14396 9.43447 3.14378 -8.94895
94 1 6.28912 9.43525 3.1435 -8.94948
95 1 9.43505 9.43466 3.14353 -8.95076
96 1 12.5822 9.43325 3.13661 -8.95956
97 1 15.7277 9.43325 3.14139 -8.94758
98 1 18.8704 9.43422 3.14395 -8.94929
99 1 -0.00017537 3.36838e-16 6.28961 -8.9496
100 1 1.57196 1.5721 7.86201 -8.94955
101 1 3.14431 -8.66392e-16 6.28942 -8.94947
102 1 4.71637 1.57138 7.86178 -8.94944
103 1 6.28935 -5.12368e-16 6.28926 -8.95062
104 1 7.86201 1.57094 7.86196 -8.95122
105 1 9.43477 1.69013e-15 6.28933 -8.95009
106 1 11.0071 1.57185 7.86216 -8.94946
107 1 12.5796 1.71585e-15 6.28961 -8.9504
108 1 14.1521 1.57204 7.8622 -8.9494
109 1 15.7245 1.7913e-15 6.28972 -8.94955
110 1 17.2969 1.57214 7.86208 -8.94956
111 1 18.8692 1.6363e-15 6.28964 -8.94956
112 1 20.4415 1.57225 7.86207 -8.94959
113 1 22.0135 3.14445 6.28951 -8.9495
114 1 1.57099 4.71628 7.86177 -8.94935
115 1 3.14365 3.14366 6.28904 -8.94929
116 1 4.71379 4.71377 7.86075 -8.94787
117 1 6.28819 3.14148 6.28817 -8.95156
118 1 7.85921 4.70984 7.86059 -8.95836
119 1 9.43479 3.14249 6.28875 -8.95035
120 1 11.0067 4.71562 7.86185 -8.95147
121 1 12.5798 3.14263 6.28935 -8.9525
122 1 14.1524 4.71632 7.86279 -8.94907
123 1 15.7246 3.14416 6.28986 -8.94965
124 1 17.2974 4.7164 7.86209 -8.94896
125 1 18.8693 3.14449 6.28963 -8.94943
126 1 20.4414 4.71677 7.86201 -8.94956
127 1 -0.000948353 6.28915 6.28924 -8.95007
128 1 1.56944 7.86139 7.86143 -8.9515
129 1 3.14056 6.28751 6.28745 -8.95044
130 1 4.70576 7.85776 7.85863 -8.95733
131 1 6.27697 6.27752 6.27765 -8.92992
132 1 7.81898 7.82793 7.82804 -8.88303
133 1 9.43377 6.28216 6.28521 -8.95155
134 1 11.0248 7.85487 7.83711 -8.94339
135 1 12.586 6.27904 6.2829 -8.95284
136 1 14.1563 7.86094 7.86414 -8.95297
137 1 15.7266 6.28798 6.28955 -8.95147
138 1 17.2983 7.86142 7.86273 -8.94994
139 1 18.8697 6.28916 6.28968 -8.9498
140 1 20.4414 7.86171 7.86204 -8.94995
141 1 22.0135 9.4345 6.28925 -8.94995
142 1 3.14253 9.43504 6.28848 -8.95008
143 1 6.28412 9.43668 6.28672 -8.9511
144 1 9.4197 9.41359 6.28465 -8.95262
145 1 12.622 9.40027 6.25118 -8.84829
146 1 15.7347 9.43206 6.28592 -8.95836
147 1 18.8714 9.43424 6.28934 -8.95179
148 1 -0.000190022 2.95702e-16 9.43453 -8.9496
149 1 3.14425 3.24141e-16 9.43452 -8.94951
150 1 6.2891 -4.30845e-17 9.4345 -8.95026
151 1 9.43478 1.67247e-15 9.43448 -8.94869
152 1 12.5797 1.7253e-15 9.43449 -8.94925
153 1 15.7246 1.08629e-15 9.43451 -8.94968
154 1 18.8692 1.20128e-15 9.43453 -8.94961
155 1 -0.000386274 3.14442 9.43453 -8.94954
156 1 3.14359 3.14364 9.43451 -8.94947
157 1 6.28771 3.14132 9.43446 -8.94965
158 1 9.43451 3.14379 9.4344 -8.94703
177 1 4.71636 1.57137 11.0072 -8.94941
183 1 1.57098 4.71629 11.0072 -8.94927
184 1 4.71375 4.71376 11.0081 -8.94745
5 1 6.28963 7.18138e-16 -0.000134256 -8.94957
41 1 18.8695 6.28944 -0.000272203 -8.94955
7 1 9.43452 1.69873e-15 -0.000150448 -8.94959
9 1 12.5794 1.57552e-15 -0.000138833 -8.94958
29 1 1.341e-05 6.28961 -0.000138605 -8.94956
25 1 15.7244 3.14446 -0.00026124 -8.94968
176 1 1.57195 1.5721 11.007 -8.94955
47 1 12.5795 9.43444 22.0123 -8.95146
178 1 7.86201 1.57084 11.007 -8.95135
179 1 11.0071 1.57178 11.0068 -8.94949
180 1 14.1521 1.572 11.0068 -8.94942
343 1 18.8695 9.43444 18.8694 -8.94954
182 1 20.4415 1.57225 11.007 -8.94959
45 1 6.28937 9.43463 22.0135 -8.94951
43 1 22.0139 9.43449 22.0137 -8.9496
185 1 7.85924 4.70921 11.0083 -8.95884
186 1 11.0067 4.71526 11.007 -8.9514
187 1 14.1525 4.71616 11.0061 -8.94882
342 1 15.7251 9.43423 18.8701 -8.94937
341 1 12.5795 9.43447 18.8706 -8.95137
190 1 1.56957 7.86158 11.0073 -8.95146
191 1 4.70617 7.85844 11.0094 -8.95824
192 1 7.81951 7.82507 11.0429 -8.90474
193 1 11.0231 7.85379 11.0321 -8.95821
194 1 14.1558 7.86089 11.0039 -8.95267
195 1 17.2983 7.86141 11.0062 -8.94978
196 1 20.4414 7.86172 11.0069 -8.94988
197 1 22.0137 -4.75015e-16 12.5794 -8.9496
198 1 1.572 1.57212 14.152 -8.94957
199 1 3.1443 -9.89251e-16 12.5796 -8.94946
200 1 4.71648 1.57139 14.1526 -8.95005
201 1 6.28933 -8.0775e-17 12.5798 -8.95068
202 1 7.86204 1.57146 14.1524 -8.94972
203 1 9.43477 1.21439e-15 12.5797 -8.95022
204 1 11.0072 1.57147 14.1524 -8.9497
205 1 12.5796 1.15303e-15 12.5794 -8.95047
206 1 14.1523 1.57148 14.1521 -8.95063
207 1 15.7245 7.27182e-16 12.5793 -8.94954
208 1 17.2969 1.57218 14.1518 -8.9497
209 1 18.8692 -2.1189e-16 12.5794 -8.94957
210 1 20.4414 1.57228 14.1519 -8.94955
211 1 -0.000378061 3.14445 12.5795 -8.94948
212 1 1.57104 4.71636 14.1527 -8.94976
213 1 3.14364 3.14366 12.58 -8.94927
214 1 4.71319 4.71314 14.1558 -8.94452
215 1 6.28813 3.14124 12.5808 -8.95172
216 1 7.86105 4.71362 14.1544 -8.94933
217 1 9.43481 3.14206 12.5803 -8.95063
218 1 11.0075 4.71369 14.1543 -8.94799
219 1 12.5798 3.14238 12.5796 -8.95271
220 1 14.1547 4.71251 14.1545 -8.94984
221 1 15.7247 3.14412 12.5792 -8.94959
222 1 17.2976 4.71632 14.152 -8.95035
223 1 18.8693 3.14448 12.5794 -8.94943
224 1 20.4414 4.71689 14.152 -8.94981
225 1 22.013 6.28918 12.5797 -8.95013
226 1 1.57116 7.86171 14.1527 -8.94952
227 1 3.14065 6.28754 12.5813 -8.95114
228 1 4.714 7.861 14.1545 -8.95028
229 1 6.27652 6.27643 12.5917 -8.93019
230 1 7.85527 7.85434 14.1639 -8.95155
231 1 9.43391 6.28028 12.5847 -8.95186
232 1 11.0081 7.85528 14.1623 -8.94871
233 1 12.586 6.27793 12.5861 -8.95415
234 1 14.1654 7.84918 14.1649 -8.9279
235 1 15.7265 6.28795 12.5793 -8.9516
236 1 17.3008 7.86011 14.1537 -8.95111
237 1 18.8697 6.28916 12.5793 -8.94975
238 1 20.4421 7.86169 14.1523 -8.95024
239 1 -0.000739154 9.43435 12.5799 -8.95008
240 1 3.14112 9.43409 12.5812 -8.9484
241 1 6.28298 9.43301 12.583 -8.9796
242 1 9.41925 9.40698 12.5948 -8.94932
243 1 12.6217 9.39553 12.6184 -8.87768
244 1 15.7345 9.43187 12.583 -8.95859
245 1 18.8713 9.43422 12.5797 -8.95185
246 1 22.0137 -1.11674e-15 15.7243 -8.94961
247 1 1.57207 1.57219 17.297 -8.94924
248 1 3.14437 -8.64789e-16 15.7247 -8.94958
249 1 4.71703 1.57211 17.2971 -8.94965
250 1 6.28953 -4.2845e-16 15.7247 -8.94962
251 1 7.86202 1.57208 17.2971 -8.94949
252 1 9.43456 7.81711e-16 15.7247 -8.94958
253 1 11.007 1.57206 17.2971 -8.94953
254 1 12.5796 1.12854e-15 15.7247 -8.94955
255 1 14.152 1.57207 17.297 -8.9495
256 1 15.7246 7.84317e-16 15.7245 -8.94999
257 1 17.297 1.57204 17.297 -8.94949
258 1 18.8691 -8.05146e-16 15.7243 -8.9497
259 1 20.4415 1.57228 17.2967 -8.94963
260 1 22.0136 3.14451 15.7245 -8.94959
261 1 1.57206 4.717 17.2971 -8.94971
262 1 3.14364 3.14371 15.7254 -8.94824
263 1 4.7162 4.71624 17.2982 -8.94931
264 1 6.28916 3.14361 15.7253 -8.94965
265 1 7.86175 4.71628 17.298 -8.94904
266 1 9.43449 3.14356 15.7253 -8.94932
267 1 11.007 4.71616 17.2979 -8.94933
268 1 12.5797 3.14351 15.7252 -8.94915
269 1 14.1524 4.71609 17.2979 -8.94951
270 1 15.7253 3.14328 15.7252 -8.94941
271 1 17.2979 4.71604 17.2977 -8.94813
272 1 18.8693 3.14446 15.7244 -8.94984
273 1 20.4418 4.71692 17.297 -8.94953
274 1 -0.000143891 6.28937 15.7247 -8.94972
275 1 1.5722 7.86206 17.2971 -8.94954
276 1 3.14359 6.28912 15.7255 -8.9499
277 1 4.71687 7.86229 17.2975 -8.94998
278 1 6.28673 6.28681 15.729 -8.94929
279 1 7.86169 7.86173 17.2992 -8.9528
280 1 9.43395 6.28698 15.7278 -8.94709
281 1 11.0068 7.86093 17.2997 -8.95087
282 1 12.5808 6.28676 15.728 -8.94856
283 1 14.1533 7.86065 17.3002 -8.95187
284 1 15.7284 6.28554 15.7283 -8.94412
285 1 17.2978 7.86152 17.2978 -8.94925
286 1 18.8704 6.2888 15.7251 -8.94972
287 1 20.4418 7.86195 17.297 -8.94947
288 1 22.0139 9.43443 15.7248 -8.94949
289 1 3.14411 9.43459 15.7252 -8.94928
290 1 6.28942 9.43548 15.7253 -8.95033
291 1 9.43523 9.43465 15.7269 -8.9545
292 1 12.5819 9.43333 15.7322 -8.96027
293 1 15.7276 9.43332 15.7276 -8.94755
294 1 18.8704 9.43423 15.7251 -8.94925
295 1 -9.83206e-05 -6.69665e-16 18.8692 -8.9494
296 1 1.57229 1.57229 20.4415 -8.94949
297 1 3.14472 9.19573e-17 18.8692 -8.94965
298 1 4.71718 1.57229 20.4415 -8.94959
299 1 6.28961 5.53537e-16 18.8692 -8.94956
300 1 7.86206 1.57226 20.4415 -8.94958
301 1 9.43451 1.48761e-15 18.8693 -8.94959
302 1 11.007 1.57225 20.4415 -8.94959
303 1 12.5794 1.29276e-15 18.8692 -8.94958
304 1 14.1519 1.57227 20.4415 -8.94957
305 1 15.7243 1.2653e-15 18.8692 -8.94959
306 1 17.2968 1.57228 20.4415 -8.94965
307 1 18.8692 3.34382e-17 18.8692 -8.94948
308 1 20.4416 1.57233 20.4415 -8.94938
309 1 -2.06177e-05 3.14471 18.8692 -8.94959
310 1 1.57233 4.71721 20.4415 -8.94971
311 1 3.14448 3.14449 18.8695 -8.94948
312 1 4.71693 4.71696 20.4415 -8.94997
313 1 6.28951 3.14448 18.8694 -8.94949
314 1 7.86191 4.71682 20.4416 -8.9495
315 1 9.43448 3.1444 18.8694 -8.94954
316 1 11.0069 4.71676 20.4416 -8.94954
317 1 12.5795 3.14441 18.8694 -8.9495
318 1 14.152 4.7168 20.4415 -8.9496
319 1 15.7245 3.14443 18.8694 -8.94963
320 1 17.2971 4.71679 20.4415 -8.94957
321 1 18.8694 3.14449 18.8693 -8.9492
322 1 20.4416 4.71715 20.4415 -8.94962
323 1 22.0139 6.28962 18.8692 -8.94959
324 1 1.57229 7.86207 20.4415 -8.94957
325 1 3.14461 6.28966 18.8694 -8.94978
326 1 4.71702 7.86213 20.4415 -8.9496
327 1 6.28923 6.2893 18.8701 -8.95059
328 1 7.86192 7.86205 20.4416 -8.95042
329 1 9.43425 6.28897 18.8701 -8.94958
330 1 11.0067 7.86174 20.4416 -8.95028
331 1 12.5795 6.28896 18.8701 -8.94965
332 1 14.1521 7.86171 20.4415 -8.95065
333 1 15.725 6.28888 18.8701 -8.95007
334 1 17.2972 7.86185 20.4415 -8.94943
335 1 18.8695 6.28944 18.8693 -8.94957
336 1 20.4416 7.86204 20.4415 -8.94959
337 1 2.23335e-06 9.4345 18.8692 -8.94959
338 1 3.14454 9.43452 18.8694 -8.94957
339 1 6.28938 9.43467 18.8695 -8.94942
340 1 9.43441 9.4347 18.8698 -8.94976
39 1 15.725 6.28889 22.013 -8.94999
31 1 3.14462 6.28965 22.0136 -8.94972
27 1 18.8694 3.14452 22.0137 -8.94924
11 1 15.7243 1.3337e-15 22.0138 -8.9496
15 1 22.0139 3.14472 22.0138 -8.94961
19 1 6.28954 3.14452 22.0136 -8.9495
23 1 12.5794 3.14445 22.0136 -8.94951
3 1 3.14473 1.61953e-16 22.0138 -8.94966
13 1 18.8692 8.67422e-16 22.0138 -8.94947
46 1 9.43438 9.43463 22.0134 -8.94933
49 1 18.8695 9.43444 22.0136 -8.94955
344 1 1.57213 11.007 1.57195 -8.9496
345 1 4.71662 11.007 1.57142 -8.94967
346 1 7.86194 11.007 1.57201 -8.94852
347 1 11.0069 11.007 1.57144 -8.9465
348 1 14.1539 11.007 1.56875 -8.94952
349 1 17.2979 11.007 1.57128 -8.94948
350 1 20.4418 11.007 1.57202 -8.94954
688 3 10.2275 11.007 9.43604 2.2031
352 1 1.57217 14.1519 1.57201 -8.94944
353 1 3.14452 12.5794 -0.000324588 -8.94957
354 1 4.71683 14.1517 1.57161 -8.9497
687 2 9.50494 11.007 10.1881 -0.00978869
356 1 7.86179 14.152 1.57036 -8.95237
538 1 17.2969 20.4418 11.007 -8.94957
358 1 11.0066 14.1527 1.56992 -8.95047
511 1 18.8693 18.8695 9.43452 -8.94959
360 1 14.1533 14.1533 1.56897 -8.95155
361 1 15.7251 12.5797 -0.00103113 -8.94938
362 1 17.2978 14.1524 1.57131 -8.94925
532 1 20.4414 17.2971 11.007 -8.94955
364 1 20.4418 14.152 1.57205 -8.94948
510 1 15.7248 18.8699 9.43448 -8.94962
366 1 1.57213 17.2968 1.57202 -8.94978
509 1 12.5796 18.8694 9.43446 -8.94832
368 1 4.71634 17.2975 1.57099 -8.94952
369 1 6.2893 15.7245 -0.000792287 -8.95059
370 1 7.86183 17.2974 1.57132 -8.94915
371 1 9.43426 15.7248 -0.000763746 -8.94961
372 1 11.007 17.2976 1.57138 -8.94937
373 1 12.5794 15.7248 -0.000809425 -8.94968
374 1 14.1523 17.2977 1.57136 -8.94975
508 1 9.43451 18.8701 9.4344 -8.94703
376 1 17.2978 17.2978 1.57141 -8.94825
507 1 6.28771 18.8726 9.43446 -8.94965
378 1 20.4418 17.2969 1.57211 -8.94956
506 1 3.14359 18.8703 9.43451 -8.94947
380 1 1.57208 20.4417 1.57209 -8.94923
381 1 3.14451 18.8694 -0.000343156 -8.94952
382 1 4.71707 20.4418 1.57205 -8.94967
505 1 -0.000386274 18.8695 9.43453 -8.94954
384 1 7.86205 20.4418 1.57204 -8.94952
385 1 9.43448 18.8695 -0.000288381 -8.94955
386 1 11.007 20.4418 1.57204 -8.94955
504 1 18.8697 15.725 9.43451 -8.94952
388 1 14.1519 20.4418 1.57211 -8.94953
503 1 15.7261 15.7261 9.43442 -8.94623
390 1 17.297 20.4418 1.57209 -8.94947
502 1 12.5778 15.7225 9.4345 -8.94564
392 1 20.4415 20.4416 1.57231 -8.94961
393 1 1.57147 11.007 4.71628 -8.94948
394 1 4.71502 11.007 4.71475 -8.94563
395 1 7.86389 11.007 4.71866 -8.94725
396 1 11.0122 11.007 4.72049 -9.00532
397 1 14.1624 11.007 4.70707 -8.94158
398 1 17.3008 11.007 4.71507 -8.94902
399 1 20.4423 11.007 4.71667 -8.94995
400 1 -3.49336e-05 12.5795 3.14432 -8.94954
401 1 1.57154 14.1519 4.71657 -8.94979
402 1 3.14396 12.5794 3.14378 -8.94895
403 1 4.71471 14.1522 4.71505 -8.95105
404 1 6.28912 12.5786 3.1435 -8.94948
405 1 7.85644 14.1574 4.7073 -8.95429
406 1 9.43505 12.5792 3.14353 -8.95076
407 1 11.0073 14.1561 4.70903 -8.95217
408 1 12.5822 12.5807 3.13661 -8.95956
409 1 14.1647 14.1638 4.70468 -8.9289
410 1 15.7277 12.5806 3.14139 -8.94758
411 1 17.3006 14.1537 4.71536 -8.95085
412 1 18.8704 12.5797 3.14395 -8.94929
413 1 20.4422 14.1521 4.71682 -8.95018
414 1 22.0139 15.7244 3.14445 -8.9498
415 1 1.57103 17.2975 4.71635 -8.94957
416 1 3.14383 15.7246 3.14377 -8.95016
417 1 4.71337 17.3005 4.71333 -8.9446
418 1 6.28722 15.7265 3.14059 -8.95015
419 1 7.86121 17.2996 4.71493 -8.94914
420 1 9.43401 15.7263 3.14198 -8.94771
421 1 11.0074 17.2994 4.71514 -8.94786
422 1 12.5803 15.7265 3.14167 -8.94948
423 1 14.1545 17.3011 4.71467 -8.94975
424 1 15.7281 15.7281 3.14105 -8.94439
425 1 17.2976 17.2976 4.71697 -8.95029
426 1 18.8703 15.725 3.14404 -8.94966
427 1 20.4414 17.297 4.71705 -8.94978
428 1 -0.000349021 18.8694 3.14453 -8.94954
429 1 1.572 20.4418 4.717 -8.94956
430 1 3.1437 18.8701 3.14367 -8.94826
431 1 4.71651 20.4425 4.71645 -8.95002
432 1 6.28926 18.8701 3.14383 -8.94967
433 1 7.86208 20.4423 4.71663 -8.94961
434 1 9.43451 18.8701 3.14393 -8.94938
435 1 11.0072 20.4423 4.71666 -8.94957
436 1 12.5796 18.8702 3.14403 -8.94918
437 1 14.1522 20.4424 4.71692 -8.95059
438 1 15.7252 18.8705 3.1439 -8.94938
439 1 17.2968 20.4417 4.71726 -8.94971
440 1 18.8693 18.8694 3.14465 -8.94981
441 1 20.4414 20.4416 4.71719 -8.94956
442 1 1.57101 11.007 7.86151 -8.94787
443 1 4.71655 11.007 7.86182 -8.94158
444 1 7.87494 11.007 7.86629 -8.93319
445 1 11.0909 11.007 7.62123 -8.16402
446 1 14.1611 11.007 7.85412 -8.97287
447 1 17.2994 11.007 7.86248 -8.95123
448 1 20.4418 11.007 7.86209 -8.94959
449 1 22.0135 12.5794 6.28925 -8.94995
450 1 1.56944 14.1525 7.86143 -8.9515
451 1 3.14253 12.5789 6.28848 -8.95008
452 1 4.70576 14.1561 7.85863 -8.95733
453 1 6.28412 12.5772 6.28672 -8.9511
454 1 7.81898 14.186 7.82804 -8.88303
455 1 9.4197 12.6003 6.28465 -8.95262
456 1 11.0248 14.159 7.83711 -8.94339
457 1 12.622 12.6136 6.25118 -8.84829
458 1 14.1563 14.153 7.86414 -8.95297
459 1 15.7347 12.5818 6.28592 -8.95836
460 1 17.2983 14.1525 7.86273 -8.94994
461 1 18.8714 12.5797 6.28934 -8.95179
462 1 20.4414 14.1522 7.86204 -8.94995
463 1 -0.000948353 15.7247 6.28924 -8.95007
464 1 1.57099 17.2976 7.86177 -8.94935
465 1 3.14056 15.7264 6.28745 -8.95044
466 1 4.71379 17.3001 7.86075 -8.94787
467 1 6.27697 15.7364 6.27765 -8.92992
468 1 7.85921 17.3041 7.86059 -8.95836
469 1 9.43377 15.7317 6.28521 -8.95155
470 1 11.0067 17.2983 7.86185 -8.95147
471 1 12.586 15.7349 6.2829 -8.95284
472 1 14.1524 17.2976 7.86279 -8.94907
473 1 15.7266 15.7259 6.28955 -8.95147
474 1 17.2974 17.2975 7.86209 -8.94896
475 1 18.8697 15.7247 6.28968 -8.9498
476 1 20.4414 17.2971 7.86201 -8.94956
477 1 22.0135 18.8695 6.28951 -8.9495
478 1 1.57196 20.4418 7.86201 -8.94955
479 1 3.14365 18.8702 6.28904 -8.94929
480 1 4.71637 20.4425 7.86178 -8.94944
481 1 6.28819 18.8724 6.28817 -8.95156
482 1 7.86201 20.443 7.86196 -8.95122
483 1 9.43479 18.8714 6.28875 -8.95035
484 1 11.0071 20.4421 7.86216 -8.94946
485 1 12.5798 18.8713 6.28935 -8.9525
486 1 14.1521 20.4419 7.8622 -8.9494
487 1 15.7246 18.8697 6.28986 -8.94965
488 1 17.2969 20.4418 7.86208 -8.94956
489 1 18.8693 18.8694 6.28963 -8.94943
490 1 20.4415 20.4416 7.86207 -8.94959
491 1 22.0126 12.5795 9.43435 -8.94972
492 1 3.13973 12.5799 9.43362 -8.95018
493 1 6.2762 12.5885 9.43205 -9.02123
494 1 9.35713 12.8299 9.42741 -8.33957
495 1 12.5592 12.5706 9.43162 -8.95913
496 1 15.7227 12.579 9.43441 -8.94017
497 1 18.8695 12.5797 9.4345 -8.94791
498 1 22.0129 15.7249 9.43451 -8.9499
499 1 3.14052 15.7266 9.43447 -8.94916
500 1 6.27921 15.7341 9.43447 -8.94319
501 1 9.42963 15.7222 9.43444 -9.00872
513 1 4.70669 11.007 11.0074 -8.95722
531 1 17.2974 17.2975 11.0069 -8.94898
526 1 1.57098 17.2976 11.0072 -8.94927
527 1 4.71375 17.3001 11.0081 -8.94745
389 1 15.7244 18.8694 -0.00026124 -8.94968
534 1 4.71636 20.4425 11.0072 -8.94941
365 1 1.341e-05 15.7243 -0.000138605 -8.94956
377 1 18.8695 15.7245 -0.000272203 -8.94955
512 1 1.56939 11.007 11.0074 -8.95115
686 1 20.4416 20.4416 20.4415 -8.94938
514 1 7.82734 11.007 11.0181 -9.14345
515 1 11.1145 11.007 11.2507 -8.34322
685 1 18.8694 18.8694 18.8693 -8.9492
517 1 17.2992 11.007 11.0065 -8.95122
518 1 20.4416 11.007 11.0069 -8.95002
519 1 1.56957 14.1523 11.0073 -8.95146
520 1 4.70617 14.1555 11.0094 -8.95824
521 1 7.81951 14.1888 11.0429 -8.90474
522 1 11.0231 14.1601 11.0321 -8.95821
523 1 14.1558 14.153 11.0039 -8.95267
524 1 17.2983 14.1525 11.0062 -8.94978
525 1 20.4414 14.1522 11.0069 -8.94988
391 1 18.8694 18.8694 22.0137 -8.94924
387 1 12.5794 18.8695 22.0136 -8.94951
528 1 7.85924 17.3047 11.0083 -8.95884
529 1 11.0067 17.2986 11.007 -8.9514
530 1 14.1525 17.2977 11.0061 -8.94882
684 1 17.2968 20.4416 20.4415 -8.94965
683 1 15.7245 18.8695 18.8694 -8.94963
533 1 1.57195 20.4418 11.007 -8.94955
383 1 6.28954 18.8694 22.0136 -8.9495
535 1 7.86201 20.4431 11.007 -8.95135
536 1 11.0071 20.4421 11.0068 -8.94949
537 1 14.1521 20.4419 11.0068 -8.94942
682 1 14.1519 20.4416 20.4415 -8.94957
539 1 20.4415 20.4416 11.007 -8.94959
540 1 1.5714 11.007 14.1528 -8.94902
541 1 4.71563 11.007 14.1532 -8.94677
542 1 7.8653 11.007 14.1476 -8.9917
543 1 11.0117 11.007 14.1454 -9.05033
544 1 14.1619 11.007 14.1613 -8.94274
545 1 17.3007 11.007 14.1539 -8.94897
546 1 20.4422 11.007 14.1524 -8.94984
547 1 -0.000739154 12.5796 12.5799 -8.95008
548 1 1.57116 14.1522 14.1527 -8.94952
549 1 3.14112 12.5798 12.5812 -8.9484
550 1 4.714 14.1529 14.1545 -8.95028
551 1 6.28298 12.5809 12.583 -8.9796
552 1 7.85527 14.1596 14.1639 -8.95155
553 1 9.41925 12.6069 12.5948 -8.94932
554 1 11.0081 14.1586 14.1623 -8.94871
555 1 12.6217 12.6184 12.6184 -8.87768
556 1 14.1654 14.1647 14.1649 -8.9279
557 1 15.7345 12.582 12.583 -8.95859
558 1 17.3008 14.1538 14.1537 -8.95111
559 1 18.8713 12.5797 12.5797 -8.95185
560 1 20.4421 14.1522 14.1523 -8.95024
561 1 22.013 15.7247 12.5797 -8.95013
562 1 1.57104 17.2975 14.1527 -8.94976
563 1 3.14065 15.7264 12.5813 -8.95114
564 1 4.71319 17.3008 14.1558 -8.94452
565 1 6.27652 15.7375 12.5917 -8.93019
566 1 7.86105 17.3003 14.1544 -8.94933
567 1 9.43391 15.7336 12.5847 -8.95186
568 1 11.0075 17.3002 14.1543 -8.94799
569 1 12.586 15.736 12.5861 -8.95415
570 1 14.1547 17.3014 14.1545 -8.94984
571 1 15.7265 15.726 12.5793 -8.9516
572 1 17.2976 17.2976 14.152 -8.95035
573 1 18.8697 15.7247 12.5793 -8.94975
574 1 20.4414 17.297 14.152 -8.94981
575 1 -0.000378061 18.8695 12.5795 -8.94948
576 1 1.572 20.4418 14.152 -8.94957
577 1 3.14364 18.8702 12.58 -8.94927
578 1 4.71648 20.4425 14.1526 -8.95005
579 1 6.28813 18.8727 12.5808 -8.95172
580 1 7.86204 20.4424 14.1524 -8.94972
581 1 9.43481 18.8718 12.5803 -8.95063
582 1 11.0072 20.4424 14.1524 -8.9497
583 1 12.5798 18.8715 12.5796 -8.95271
584 1 14.1523 20.4424 14.1521 -8.95063
585 1 15.7247 18.8698 12.5792 -8.94959
586 1 17.2969 20.4417 14.1518 -8.9497
587 1 18.8693 18.8694 12.5794 -8.94943
588 1 20.4414 20.4416 14.1519 -8.94955
589 1 1.57215 11.007 17.2971 -8.94959
590 1 4.71667 11.007 17.2975 -8.9494
591 1 7.86184 11.007 17.2969 -8.94714
592 1 11.0071 11.007 17.2974 -8.94494
593 1 14.1539 11.007 17.3002 -8.94948
594 1 17.2979 11.007 17.2978 -8.94947
595 1 20.4418 11.007 17.2971 -8.94954
596 1 22.0139 12.5795 15.7248 -8.94949
597 1 1.5722 14.1518 17.2971 -8.94954
598 1 3.14411 12.5793 15.7252 -8.94928
599 1 4.71687 14.1516 17.2975 -8.94998
600 1 6.28942 12.5784 15.7253 -8.95033
601 1 7.86169 14.1522 17.2992 -8.9528
602 1 9.43523 12.5792 15.7269 -8.9545
603 1 11.0068 14.153 17.2997 -8.95087
604 1 12.5819 12.5806 15.7322 -8.96027
605 1 14.1533 14.1533 17.3002 -8.95187
606 1 15.7276 12.5806 15.7276 -8.94755
607 1 17.2978 14.1524 17.2978 -8.94925
608 1 18.8704 12.5797 15.7251 -8.94925
609 1 20.4418 14.152 17.297 -8.94947
610 1 -0.000143891 15.7245 15.7247 -8.94972
611 1 1.57206 17.2969 17.2971 -8.94971
612 1 3.14359 15.7248 15.7255 -8.9499
613 1 4.7162 17.2977 17.2982 -8.94931
614 1 6.28673 15.7271 15.729 -8.94929
615 1 7.86175 17.2976 17.298 -8.94904
616 1 9.43395 15.7269 15.7278 -8.94709
617 1 11.007 17.2977 17.2979 -8.94933
618 1 12.5808 15.7271 15.728 -8.94856
619 1 14.1524 17.2978 17.2979 -8.94951
620 1 15.7284 15.7284 15.7283 -8.94412
621 1 17.2979 17.2979 17.2977 -8.94813
622 1 18.8704 15.7251 15.7251 -8.94972
623 1 20.4418 17.297 17.297 -8.94953
624 1 22.0136 18.8694 15.7245 -8.94959
625 1 1.57207 20.4417 17.297 -8.94924
626 1 3.14364 18.8702 15.7254 -8.94824
627 1 4.71703 20.4418 17.2971 -8.94965
628 1 6.28916 18.8703 15.7253 -8.94965
629 1 7.86202 20.4418 17.2971 -8.94949
630 1 9.43449 18.8703 15.7253 -8.94932
631 1 11.007 20.4418 17.2971 -8.94953
632 1 12.5797 18.8704 15.7252 -8.94915
633 1 14.152 20.4418 17.297 -8.9495
634 1 15.7253 18.8706 15.7252 -8.94941
635 1 17.297 20.4419 17.297 -8.94949
636 1 18.8693 18.8694 15.7244 -8.94984
637 1 20.4415 20.4416 17.2967 -8.94963
638 1 1.57227 11.007 20.4415 -8.94961
639 1 4.71692 11.007 20.4415 -8.9497
640 1 7.8618 11.007 20.4415 -8.94917
641 1 11.0067 11.007 20.4415 -8.94848
642 1 14.1524 11.007 20.4415 -8.95028
643 1 17.2972 11.007 20.4415 -8.9495
644 1 20.4416 11.007 20.4415 -8.9496
645 1 2.23335e-06 12.5794 18.8692 -8.94959
646 1 1.57229 14.1518 20.4415 -8.94957
647 1 3.14454 12.5794 18.8694 -8.94957
648 1 4.71702 14.1518 20.4415 -8.9496
649 1 6.28938 12.5792 18.8695 -8.94942
650 1 7.86192 14.1519 20.4416 -8.95042
651 1 9.43441 12.5792 18.8698 -8.94976
652 1 11.0067 14.1522 20.4416 -8.95028
653 1 12.5795 12.5794 18.8706 -8.95137
654 1 14.1521 14.1522 20.4415 -8.95065
655 1 15.7251 12.5797 18.8701 -8.94937
656 1 17.2972 14.1521 20.4415 -8.94943
657 1 18.8695 12.5795 18.8694 -8.94954
658 1 20.4416 14.1519 20.4415 -8.94959
659 1 22.0139 15.7243 18.8692 -8.94959
660 1 1.57233 17.2967 20.4415 -8.94971
661 1 3.14461 15.7242 18.8694 -8.94978
662 1 4.71693 17.2969 20.4415 -8.94997
663 1 6.28923 15.7246 18.8701 -8.95059
664 1 7.86191 17.2971 20.4416 -8.9495
665 1 9.43425 15.7249 18.8701 -8.94958
666 1 11.0069 17.2971 20.4416 -8.94954
667 1 12.5795 15.7249 18.8701 -8.94965
668 1 14.152 17.2971 20.4415 -8.9496
669 1 15.725 15.725 18.8701 -8.95007
670 1 17.2971 17.2971 20.4415 -8.94957
671 1 18.8695 15.7245 18.8693 -8.94957
672 1 20.4416 17.2967 20.4415 -8.94962
673 1 -2.06177e-05 18.8692 18.8692 -8.94959
674 1 1.57229 20.4416 20.4415 -8.94949
675 1 3.14448 18.8694 18.8695 -8.94948
676 1 4.71718 20.4416 20.4415 -8.94959
677 1 6.28951 18.8694 18.8694 -8.94949
678 1 7.86206 20.4416 20.4415 -8.94958
679 1 9.43448 18.8695 18.8694 -8.94954
680 1 11.007 20.4417 20.4415 -8.94959
681 1 12.5795 18.8695 18.8694 -8.9495
351 1 22.0139 12.5794 22.0137 -8.9496
355 1 6.28937 12.5793 22.0135 -8.94951
359 1 12.5795 12.5795 22.0123 -8.95146
379 1 22.0139 18.8692 22.0138 -8.94961
367 1 3.14462 15.7242 22.0136 -8.94972
375 1 15.725 15.725 22.013 -8.94999
357 1 9.43438 12.5793 22.0134 -8.94933
363 1 18.8695 12.5795 22.0136 -8.94955
516 1 14.1603 11.007 11.0141 -8.9797
