ITEM: TIMESTEP
66
ITEM: NUMBER OF ATOMS
688
ITEM: BOX BOUNDS pp pp pp
0.0000000000000000e+00 2.2013900999999997e+01
0.0000000000000000e+00 2.2013900999999997e+01
0.0000000000000000e+00 2.2013900999999997e+01
ITEM: ATOMS id type x y z c_pot
1 1 -6.92101e-05 -5.25108e-16 -6.09744e-05 -8.94943
2 1 1.57215 1.57224 1.57216 -8.94926
189 1 20.4414 4.71686 11.007 -8.94956
4 1 4.71713 1.5722 1.57214 -8.94969
175 1 18.8696 9.43415 9.4345 -8.94798
6 1 7.86207 1.57218 1.57212 -8.94953
174 1 15.7229 9.4348 9.43442 -8.9402
8 1 11.007 1.57216 1.57211 -8.94956
173 1 12.5595 9.44316 9.43169 -8.95917
10 1 14.1519 1.57218 1.57218 -8.94954
172 1 9.35664 9.18367 9.42737 -8.3376
12 1 17.2969 1.57213 1.57215 -8.94948
188 1 17.2974 4.71647 11.0069 -8.94901
14 1 20.4415 1.57232 1.57234 -8.94962
171 1 6.2762 9.42557 9.43199 -9.02121
16 1 1.57219 4.71711 1.5721 -8.94977
17 1 3.14458 3.14457 -0.000285024 -8.94953
18 1 4.71645 4.71647 1.57114 -8.94953
170 1 3.13986 9.43403 9.43363 -8.95019
20 1 7.86189 4.71656 1.57144 -8.94916
21 1 9.4345 3.14451 -0.000242565 -8.94956
22 1 11.007 4.71646 1.5715 -8.94938
169 1 22.0127 9.43439 9.43436 -8.94976
24 1 14.1522 4.7164 1.57151 -8.94977
168 1 18.8697 6.28895 9.43451 -8.94952
26 1 17.2976 4.71628 1.57153 -8.94829
167 1 15.726 6.28781 9.43442 -8.94629
28 1 20.4417 4.71703 1.57218 -8.94956
166 1 12.5779 6.29134 9.4345 -8.94576
30 1 1.57221 7.86205 1.57209 -8.94945
165 1 9.42978 6.29165 9.43439 -9.00878
32 1 4.71688 7.86224 1.57169 -8.94969
33 1 6.28935 6.2894 -0.0007246 -8.95053
34 1 7.86182 7.86193 1.57044 -8.9523
35 1 9.43429 6.28912 -0.000703443 -8.9496
36 1 11.0066 7.86127 1.57006 -8.95041
37 1 12.5794 6.28915 -0.000721413 -8.94966
38 1 14.1532 7.86073 1.5692 -8.95151
164 1 6.27967 6.28015 9.43446 -8.94331
40 1 17.2976 7.8616 1.57147 -8.94929
163 1 3.14086 6.28752 9.43448 -8.94916
42 1 20.4417 7.86198 1.57213 -8.9495
162 1 22.013 6.28912 9.43452 -8.94988
44 1 3.14457 9.4345 -0.000281049 -8.94958
161 1 18.8693 3.14449 9.43452 -8.9496
181 1 17.2969 1.57218 11.007 -8.94958
160 1 15.7248 3.14406 9.43449 -8.94963
48 1 15.725 9.43426 -0.000915707 -8.94939
159 1 12.5797 3.14443 9.43447 -8.94836
50 1 22.0138 -9.72846e-17 3.14477 -8.94963
51 1 1.5721 1.57218 4.71707 -8.94959
52 1 3.14447 -7.18591e-16 3.14445 -8.94957
53 1 4.71661 1.57154 4.71656 -8.95
54 1 6.28961 -2.41869e-16 3.1445 -8.94958
55 1 7.8621 1.57168 4.71672 -8.94959
56 1 9.43456 9.67237e-16 3.14446 -8.94956
57 1 11.0072 1.5717 4.71672 -8.94955
58 1 12.5795 1.72595e-15 3.14451 -8.94951
59 1 14.1522 1.57163 4.71696 -8.95053
60 1 15.7245 1.2723e-15 3.14459 -8.94994
61 1 17.2968 1.57224 4.71727 -8.94971
62 1 18.8691 9.05794e-16 3.14482 -8.9497
63 1 20.4415 1.57232 4.71722 -8.94957
64 1 -0.000292637 3.14458 3.14459 -8.94955
65 1 1.57118 4.71648 4.71647 -8.94957
66 1 3.14384 3.1439 3.14382 -8.94828
67 1 4.71361 4.71364 4.71355 -8.94462
68 1 6.28935 3.14395 3.14398 -8.94968
69 1 7.86137 4.71456 4.71512 -8.94915
70 1 9.43452 3.14392 3.14404 -8.9494
71 1 11.0073 4.7147 4.71531 -8.94787
72 1 12.5796 3.14388 3.14414 -8.94919
73 1 14.1544 4.71308 4.71486 -8.94975
74 1 15.7251 3.14353 3.14401 -8.94938
75 1 17.2975 4.71647 4.71703 -8.95026
76 1 18.8693 3.14455 3.1447 -8.9498
77 1 20.4414 4.71696 4.7171 -8.94976
78 1 22.0139 6.28952 3.14453 -8.94978
79 1 1.57164 7.86206 4.71666 -8.94977
80 1 3.14396 6.28937 3.14391 -8.95013
81 1 4.7149 7.86183 4.71519 -8.95099
82 1 6.28741 6.28755 3.14083 -8.95019
83 1 7.85671 7.85685 4.70752 -8.95449
84 1 9.43406 6.28777 3.14216 -8.94775
85 1 11.0072 7.85809 4.70934 -8.95222
86 1 12.5801 6.28761 3.14194 -8.9495
87 1 14.1643 7.85036 4.70508 -8.92913
88 1 15.7278 6.28606 3.14131 -8.94446
89 1 17.3004 7.86032 4.71552 -8.95082
90 1 18.8702 6.28897 3.14415 -8.94966
91 1 20.4421 7.86182 4.71689 -8.95015
92 1 -4.56819e-05 9.43444 3.14441 -8.94955
93 1 3.14403 9.43448 3.14388 -8.94897
94 1 6.28914 9.43526 3.14352 -8.94952
95 1 9.43499 9.43471 3.1435 -8.95066
96 1 12.582 9.43331 3.13684 -8.95944
97 1 15.7274 9.43336 3.14168 -8.94764
98 1 18.8702 9.43427 3.14408 -8.9493
99 1 -0.00012382 4.74266e-16 6.28964 -8.94961
100 1 1.57206 1.57216 7.86204 -8.94957
101 1 3.14441 -2.33332e-16 6.28949 -8.94948
102 1 4.7165 1.57149 7.86184 -8.94943
103 1 6.2894 -5.12783e-16 6.28932 -8.95059
104 1 7.86205 1.57099 7.86198 -8.95121
105 1 9.43475 1.53111e-15 6.28936 -8.95007
106 1 11.0071 1.57185 7.86216 -8.94948
107 1 12.5796 1.736e-15 6.28961 -8.95037
108 1 14.1521 1.57206 7.86219 -8.94941
109 1 15.7244 1.75198e-15 6.28971 -8.94955
110 1 17.2969 1.57218 7.86208 -8.94957
111 1 18.8692 1.72907e-15 6.28965 -8.94958
112 1 20.4415 1.5723 7.86208 -8.94961
113 1 22.0136 3.14453 6.28956 -8.94952
114 1 1.57118 4.71641 7.86183 -8.94936
115 1 3.14382 3.14382 6.28916 -8.94933
116 1 4.71411 4.71403 7.86087 -8.94791
117 1 6.28832 3.14165 6.28828 -8.95154
118 1 7.85943 4.70998 7.86063 -8.95832
119 1 9.43483 3.1426 6.28881 -8.95028
120 1 11.0068 4.71559 7.8619 -8.95144
121 1 12.5798 3.14272 6.28939 -8.95243
122 1 14.1523 4.71635 7.86281 -8.94909
123 1 15.7246 3.14424 6.28987 -8.94965
124 1 17.2974 4.71648 7.86209 -8.94898
125 1 18.8692 3.14455 6.28965 -8.94945
126 1 20.4414 4.71686 7.86203 -8.94956
127 1 -0.0008499 6.28922 6.2893 -8.95005
128 1 1.56962 7.86146 7.86148 -8.95146
129 1 3.14083 6.28767 6.2876 -8.95044
130 1 4.70608 7.85797 7.85869 -8.95731
131 1 6.27731 6.27779 6.27785 -8.9299
132 1 7.81924 7.82816 7.82796 -8.88269
133 1 9.43394 6.28243 6.28541 -8.9515
134 1 11.0247 7.85498 7.83754 -8.94348
135 1 12.5857 6.27928 6.28321 -8.95285
136 1 14.1562 7.86097 7.86425 -8.95299
137 1 15.7264 6.28811 6.28964 -8.95143
138 1 17.2983 7.86144 7.86272 -8.9499
139 1 18.8697 6.28922 6.2897 -8.94977
140 1 20.4414 7.86174 7.86205 -8.94995
141 1 22.0136 9.43451 6.2893 -8.94995
142 1 3.14263 9.43505 6.28853 -8.95005
143 1 6.28426 9.43676 6.28669 -8.95097
144 1 9.42003 9.41415 6.28493 -8.9533
145 1 12.6214 9.40069 6.25177 -8.84919
146 1 15.7344 9.43212 6.28615 -8.95826
147 1 18.8712 9.43427 6.28939 -8.95174
148 1 -0.000136287 6.50789e-16 9.43453 -8.94962
149 1 3.14437 3.64319e-16 9.43452 -8.94953
150 1 6.28917 -4.51031e-16 9.43451 -8.95023
151 1 9.43477 1.42941e-15 9.43449 -8.94877
152 1 12.5797 1.69441e-15 9.4345 -8.94929
153 1 15.7245 1.42614e-15 9.43451 -8.94969
154 1 18.8692 1.24763e-15 9.43453 -8.94962
155 1 -0.000306349 3.14451 9.43453 -8.94955
156 1 3.14378 3.1438 9.43452 -8.94949
157 1 6.28791 3.14152 9.43447 -8.94962
158 1 9.43457 3.14375 9.43441 -8.94708
177 1 4.71649 1.57148 11.0072 -8.9494
183 1 1.57118 4.71643 11.0072 -8.94928
184 1 4.71409 4.71405 11.008 -8.9475
5 1 6.28965 7.04907e-16 -9.95216e-05 -8.94959
41 1 18.8694 6.28951 -0.000218036 -8.94958
7 1 9.43452 1.40822e-15 -0.000114898 -8.94961
9 1 12.5794 1.73068e-15 -0.000107455 -8.9496
29 1 4.47406e-06 6.28964 -0.000102985 -8.94957
25 1 15.7244 3.14455 -0.000210293 -8.94969
176 1 1.57205 1.57216 11.007 -8.94957
47 1 12.5794 9.43445 22.0124 -8.95143
178 1 7.86204 1.57091 11.007 -8.95131
179 1 11.0071 1.57179 11.0068 -8.9495
180 1 14.1521 1.57202 11.0068 -8.94943
343 1 18.8694 9.43447 18.8693 -8.94956
182 1 20.4415 1.5723 11.007 -8.94961
45 1 6.2894 9.43462 22.0135 -8.94953
43 1 22.0139 9.43451 22.0138 -8.94961
185 1 7.85948 4.70944 11.0083 -8.95877
186 1 11.0067 4.71527 11.0069 -8.95136
187 1 14.1524 4.7162 11.0061 -8.94885
342 1 15.725 9.43428 18.87 -8.94937
341 1 12.5794 9.43449 18.8705 -8.95135
190 1 1.56977 7.86164 11.0072 -8.95141
191 1 4.70653 7.85867 11.0094 -8.9582
192 1 7.81982 7.82549 11.0428 -8.90441
193 1 11.023 7.85398 11.0316 -8.95833
194 1 14.1558 7.86091 11.0038 -8.95264
195 1 17.2983 7.86142 11.0062 -8.94974
196 1 20.4415 7.86176 11.0069 -8.94987
197 1 22.0138 -7.57537e-16 12.5794 -8.94961
198 1 1.5721 1.57218 14.152 -8.94959
199 1 3.14441 -1.401e-15 12.5796 -8.94947
200 1 4.71659 1.5715 14.1525 -8.95003
201 1 6.28938 -3.27575e-16 12.5797 -8.95064
202 1 7.86207 1.57157 14.1524 -8.94969
203 1 9.43475 8.58449e-16 12.5797 -8.95018
204 1 11.0072 1.57156 14.1524 -8.94968
205 1 12.5796 1.27281e-15 12.5794 -8.95044
206 1 14.1522 1.57157 14.1521 -8.95058
207 1 15.7244 6.8964e-16 12.5793 -8.94954
208 1 17.2968 1.57223 14.1518 -8.94969
209 1 18.8692 2.17581e-16 12.5794 -8.94958
210 1 20.4415 1.57232 14.1518 -8.94957
211 1 -0.000299546 3.14453 12.5795 -8.9495
212 1 1.57121 4.71648 14.1525 -8.94975
213 1 3.14383 3.14382 12.5799 -8.94931
214 1 4.71347 4.71339 14.1556 -8.94459
215 1 6.28829 3.14146 12.5807 -8.95169
216 1 7.86123 4.71393 14.1542 -8.94934
217 1 9.43484 3.14223 12.5802 -8.95056
218 1 11.0075 4.71394 14.1541 -8.94802
219 1 12.5798 3.1425 12.5796 -8.95264
220 1 14.1545 4.71279 14.1543 -8.94987
221 1 15.7246 3.1442 12.5792 -8.94959
222 1 17.2975 4.71646 14.152 -8.95032
223 1 18.8692 3.14455 12.5794 -8.94945
224 1 20.4414 4.71697 14.1519 -8.94979
225 1 22.0131 6.28926 12.5797 -8.9501
226 1 1.57127 7.86174 14.1526 -8.94949
227 1 3.14095 6.28771 12.5812 -8.95113
228 1 4.71419 7.86107 14.1544 -8.95015
229 1 6.27695 6.27679 12.5914 -8.93028
230 1 7.85559 7.85473 14.1636 -8.95174
231 1 9.43408 6.28067 12.5844 -8.95183
232 1 11.008 7.8556 14.1619 -8.94878
233 1 12.5857 6.27822 12.5858 -8.95421
234 1 14.165 7.84945 14.1646 -8.92802
235 1 15.7264 6.28807 12.5792 -8.95155
236 1 17.3005 7.86024 14.1536 -8.95108
237 1 18.8697 6.28922 12.5793 -8.94972
238 1 20.442 7.86175 14.1522 -8.95021
239 1 -0.000683518 9.43436 12.5799 -8.95008
240 1 3.14125 9.43409 12.5812 -8.94841
241 1 6.28297 9.433 12.5832 -8.97947
242 1 9.41956 9.40766 12.5943 -8.94978
243 1 12.6214 9.39578 12.618 -8.87789
244 1 15.7343 9.43192 12.5828 -8.9585
245 1 18.8712 9.43424 12.5797 -8.95181
246 1 22.0138 -6.50953e-16 15.7243 -8.94963
247 1 1.57214 1.57223 17.2969 -8.94927
248 1 3.14446 -9.76194e-16 15.7246 -8.94959
249 1 4.71709 1.57217 17.297 -8.94967
250 1 6.28958 -4.06106e-16 15.7246 -8.94962
251 1 7.86204 1.57214 17.297 -8.94951
252 1 9.43455 1.13057e-15 15.7246 -8.94959
253 1 11.007 1.57212 17.297 -8.94955
254 1 12.5795 1.19075e-15 15.7246 -8.94955
255 1 14.1519 1.57214 17.2969 -8.94951
256 1 15.7245 9.45029e-16 15.7245 -8.94996
257 1 17.2969 1.57211 17.2969 -8.9495
258 1 18.8691 -4.8647e-16 15.7242 -8.94969
259 1 20.4415 1.57232 17.2967 -8.94964
260 1 22.0136 3.14458 15.7244 -8.94959
261 1 1.57213 4.71706 17.297 -8.94969
262 1 3.1438 3.14384 15.7253 -8.94828
263 1 4.71633 4.71637 17.298 -8.94933
264 1 6.28927 3.14378 15.7252 -8.94967
265 1 7.86182 4.71641 17.2978 -8.94906
266 1 9.4345 3.1437 15.7251 -8.94934
267 1 11.007 4.7163 17.2978 -8.94935
268 1 12.5797 3.14367 15.725 -8.94916
269 1 14.1523 4.71627 17.2977 -8.94953
270 1 15.7251 3.14345 15.7251 -8.94942
271 1 17.2977 4.71619 17.2976 -8.94817
272 1 18.8693 3.14455 15.7243 -8.94983
273 1 20.4417 4.71699 17.2969 -8.94954
274 1 -0.000123868 6.28943 15.7246 -8.94971
275 1 1.57223 7.86208 17.297 -8.94955
276 1 3.14374 6.28919 15.7253 -8.94985
277 1 4.71692 7.86229 17.2974 -8.94998
278 1 6.28697 6.28704 15.7287 -8.94934
279 1 7.86173 7.86177 17.2991 -8.95272
280 1 9.43399 6.2872 15.7276 -8.94713
281 1 11.0067 7.86102 17.2996 -8.9508
282 1 12.5806 6.28701 15.7277 -8.94858
283 1 14.1532 7.86077 17.2999 -8.95184
284 1 15.7282 6.28578 15.728 -8.94416
285 1 17.2976 7.86163 17.2976 -8.94929
286 1 18.8703 6.28891 15.725 -8.94971
287 1 20.4418 7.86199 17.2969 -8.94949
288 1 22.0139 9.43445 15.7247 -8.9495
289 1 3.14418 9.43458 15.7251 -8.9493
290 1 6.28946 9.43548 15.7253 -8.9504
291 1 9.43519 9.43473 15.7268 -8.95437
292 1 12.5817 9.43341 15.732 -8.96022
293 1 15.7273 9.43343 15.7273 -8.9476
294 1 18.8702 9.43428 15.725 -8.94926
295 1 -7.27617e-05 -3.24578e-16 18.8691 -8.94944
296 1 1.57232 1.57232 20.4415 -8.94951
297 1 3.14476 1.32181e-16 18.8692 -8.94966
298 1 4.71721 1.57233 20.4415 -8.9496
299 1 6.28964 8.31185e-16 18.8692 -8.94958
300 1 7.86207 1.5723 20.4415 -8.9496
301 1 9.43452 1.47053e-15 18.8692 -8.9496
302 1 11.007 1.57229 20.4415 -8.94961
303 1 12.5794 1.40532e-15 18.8692 -8.94959
304 1 14.1518 1.57231 20.4415 -8.94959
305 1 15.7243 1.33471e-15 18.8692 -8.9496
306 1 17.2967 1.57232 20.4415 -8.94966
307 1 18.8692 6.61823e-16 18.8692 -8.94951
308 1 20.4415 1.57236 20.4415 -8.94943
309 1 -1.22798e-05 3.14475 18.8692 -8.9496
310 1 1.57235 4.71723 20.4415 -8.9497
311 1 3.14456 3.14456 18.8694 -8.94949
312 1 4.71699 4.71701 20.4415 -8.94994
313 1 6.28956 3.14455 18.8694 -8.94951
314 1 7.86195 4.71689 20.4415 -8.9495
315 1 9.43449 3.14448 18.8694 -8.94956
316 1 11.0069 4.71685 20.4415 -8.94955
317 1 12.5794 3.14449 18.8693 -8.94952
318 1 14.1519 4.7169 20.4415 -8.94959
319 1 15.7244 3.14452 18.8693 -8.94965
320 1 17.297 4.71688 20.4415 -8.94958
321 1 18.8693 3.14457 18.8693 -8.94923
322 1 20.4416 4.71719 20.4415 -8.94964
323 1 22.0139 6.28964 18.8692 -8.9496
324 1 1.57231 7.86208 20.4415 -8.94958
325 1 3.14465 6.28967 18.8693 -8.94977
326 1 4.71706 7.86213 20.4415 -8.94961
327 1 6.28929 6.28934 18.87 -8.95053
328 1 7.86194 7.86204 20.4416 -8.95039
329 1 9.43428 6.28904 18.87 -8.94956
330 1 11.0067 7.86178 20.4416 -8.95024
331 1 12.5795 6.28906 18.87 -8.94963
332 1 14.1521 7.86176 20.4415 -8.95061
333 1 15.7249 6.289 18.87 -8.95006
334 1 17.2971 7.86191 20.4415 -8.94944
335 1 18.8694 6.28951 18.8693 -8.94959
336 1 20.4416 7.86206 20.4415 -8.94961
337 1 -6.31623e-06 9.43451 18.8692 -8.94961
338 1 3.14458 9.43452 18.8693 -8.94957
339 1 6.2894 9.43466 18.8695 -8.94945
340 1 9.4344 9.43469 18.8698 -8.94977
39 1 15.7249 6.289 22.0131 -8.94997
31 1 3.14466 6.28967 22.0137 -8.94971
27 1 18.8693 3.14459 22.0137 -8.94928
11 1 15.7243 1.6443e-15 22.0138 -8.94962
15 1 22.0139 3.14476 22.0138 -8.94962
19 1 6.28958 3.14458 22.0137 -8.94951
23 1 12.5794 3.14453 22.0137 -8.94953
3 1 3.14477 2.97256e-17 22.0138 -8.94968
13 1 18.8692 1.30971e-15 22.0138 -8.9495
46 1 9.43438 9.43462 22.0134 -8.94936
49 1 18.8694 9.43447 22.0137 -8.94957
344 1 1.57216 11.007 1.57203 -8.94961
345 1 4.71666 11.007 1.57148 -8.94967
346 1 7.86192 11.007 1.57196 -8.94855
347 1 11.0068 11.007 1.57139 -8.94657
348 1 14.1537 11.007 1.56898 -8.94949
349 1 17.2977 11.007 1.57144 -8.9495
350 1 20.4417 11.007 1.57211 -8.94956
688 3 10.2259 11.007 9.4359 2.20504
352 1 1.57221 14.1519 1.57209 -8.94945
353 1 3.14457 12.5794 -0.000281049 -8.94958
354 1 4.71688 14.1517 1.57169 -8.94969
687 2 9.50261 11.007 10.1891 -0.010313
356 1 7.86182 14.152 1.57044 -8.9523
538 1 17.2969 20.4417 11.007 -8.94958
358 1 11.0066 14.1526 1.57006 -8.95041
511 1 18.8693 18.8694 9.43452 -8.9496
360 1 14.1532 14.1532 1.5692 -8.95151
361 1 15.725 12.5796 -0.000915707 -8.94939
362 1 17.2976 14.1523 1.57147 -8.94929
532 1 20.4414 17.297 11.007 -8.94956
364 1 20.4417 14.1519 1.57213 -8.9495
510 1 15.7248 18.8698 9.43449 -8.94963
366 1 1.57219 17.2968 1.5721 -8.94977
509 1 12.5797 18.8695 9.43447 -8.94836
368 1 4.71645 17.2974 1.57114 -8.94953
369 1 6.28935 15.7245 -0.0007246 -8.95053
370 1 7.86189 17.2973 1.57144 -8.94916
371 1 9.43429 15.7248 -0.000703443 -8.9496
372 1 11.007 17.2974 1.5715 -8.94938
373 1 12.5794 15.7248 -0.000721413 -8.94966
374 1 14.1522 17.2975 1.57151 -8.94977
508 1 9.43457 18.8701 9.43441 -8.94708
376 1 17.2976 17.2976 1.57153 -8.94829
507 1 6.28791 18.8724 9.43447 -8.94962
378 1 20.4417 17.2969 1.57218 -8.94956
506 1 3.14378 18.8701 9.43452 -8.94949
380 1 1.57215 20.4417 1.57216 -8.94926
381 1 3.14458 18.8693 -0.000285024 -8.94953
382 1 4.71713 20.4417 1.57214 -8.94969
505 1 -0.000306349 18.8694 9.43453 -8.94955
384 1 7.86207 20.4417 1.57212 -8.94953
385 1 9.4345 18.8694 -0.000242565 -8.94956
386 1 11.007 20.4417 1.57211 -8.94956
504 1 18.8697 15.725 9.43451 -8.94952
388 1 14.1519 20.4417 1.57218 -8.94954
503 1 15.726 15.7261 9.43442 -8.94629
390 1 17.2969 20.4418 1.57215 -8.94948
502 1 12.5779 15.7226 9.4345 -8.94576
392 1 20.4415 20.4416 1.57234 -8.94962
393 1 1.57152 11.007 4.71637 -8.94947
394 1 4.71509 11.007 4.71481 -8.94566
395 1 7.8639 11.007 4.71855 -8.94737
396 1 11.012 11.007 4.7204 -9.00484
397 1 14.162 11.007 4.70748 -8.94169
398 1 17.3005 11.007 4.71528 -8.94902
399 1 20.4422 11.007 4.71675 -8.94992
400 1 -4.56819e-05 12.5795 3.14441 -8.94955
401 1 1.57164 14.1518 4.71666 -8.94977
402 1 3.14403 12.5794 3.14388 -8.94897
403 1 4.7149 14.1521 4.71519 -8.95099
404 1 6.28914 12.5786 3.14352 -8.94952
405 1 7.85671 14.157 4.70752 -8.95449
406 1 9.43499 12.5792 3.1435 -8.95066
407 1 11.0072 14.1558 4.70934 -8.95222
408 1 12.582 12.5806 3.13684 -8.95944
409 1 14.1643 14.1635 4.70508 -8.92913
410 1 15.7274 12.5805 3.14168 -8.94764
411 1 17.3004 14.1536 4.71552 -8.95082
412 1 18.8702 12.5796 3.14408 -8.9493
413 1 20.4421 14.1521 4.71689 -8.95015
414 1 22.0139 15.7244 3.14453 -8.94978
415 1 1.57118 17.2974 4.71647 -8.94957
416 1 3.14396 15.7245 3.14391 -8.95013
417 1 4.71361 17.3003 4.71355 -8.94462
418 1 6.28741 15.7264 3.14083 -8.95019
419 1 7.86137 17.2993 4.71512 -8.94915
420 1 9.43406 15.7261 3.14216 -8.94775
421 1 11.0073 17.2992 4.71531 -8.94787
422 1 12.5801 15.7263 3.14194 -8.9495
423 1 14.1544 17.3008 4.71486 -8.94975
424 1 15.7278 15.7278 3.14131 -8.94446
425 1 17.2975 17.2974 4.71703 -8.95026
426 1 18.8702 15.7249 3.14415 -8.94966
427 1 20.4414 17.2969 4.7171 -8.94976
428 1 -0.000292637 18.8693 3.14459 -8.94955
429 1 1.5721 20.4417 4.71707 -8.94959
430 1 3.14384 18.87 3.14382 -8.94828
431 1 4.71661 20.4424 4.71656 -8.95
432 1 6.28935 18.87 3.14398 -8.94968
433 1 7.8621 20.4422 4.71672 -8.94959
434 1 9.43452 18.87 3.14404 -8.9494
435 1 11.0072 20.4422 4.71672 -8.94955
436 1 12.5796 18.87 3.14414 -8.94919
437 1 14.1522 20.4423 4.71696 -8.95053
438 1 15.7251 18.8704 3.14401 -8.94938
439 1 17.2968 20.4417 4.71727 -8.94971
440 1 18.8693 18.8694 3.1447 -8.9498
441 1 20.4415 20.4416 4.71722 -8.94957
442 1 1.57108 11.007 7.86154 -8.94794
443 1 4.71651 11.007 7.86177 -8.94166
444 1 7.87465 11.007 7.86622 -8.93263
445 1 11.0908 11.007 7.62348 -8.16336
446 1 14.1612 11.007 7.85444 -8.97285
447 1 17.2994 11.007 7.86252 -8.95128
448 1 20.4419 11.007 7.86211 -8.94964
449 1 22.0136 12.5794 6.2893 -8.94995
450 1 1.56962 14.1524 7.86148 -8.95146
451 1 3.14263 12.5789 6.28853 -8.95005
452 1 4.70608 14.1559 7.85869 -8.95731
453 1 6.28426 12.5771 6.28669 -8.95097
454 1 7.81924 14.1857 7.82796 -8.88269
455 1 9.42003 12.5998 6.28493 -8.9533
456 1 11.0247 14.1589 7.83754 -8.94348
457 1 12.6214 12.6132 6.25177 -8.84919
458 1 14.1562 14.1529 7.86425 -8.95299
459 1 15.7344 12.5818 6.28615 -8.95826
460 1 17.2983 14.1525 7.86272 -8.9499
461 1 18.8712 12.5796 6.28939 -8.95174
462 1 20.4414 14.1522 7.86205 -8.94995
463 1 -0.0008499 15.7247 6.2893 -8.95005
464 1 1.57118 17.2975 7.86183 -8.94936
465 1 3.14083 15.7262 6.2876 -8.95044
466 1 4.71411 17.2999 7.86087 -8.94791
467 1 6.27731 15.7361 6.27785 -8.9299
468 1 7.85943 17.3039 7.86063 -8.95832
469 1 9.43394 15.7315 6.28541 -8.9515
470 1 11.0068 17.2983 7.8619 -8.95144
471 1 12.5857 15.7346 6.28321 -8.95285
472 1 14.1523 17.2976 7.86281 -8.94909
473 1 15.7264 15.7258 6.28964 -8.95143
474 1 17.2974 17.2974 7.86209 -8.94898
475 1 18.8697 15.7247 6.2897 -8.94977
476 1 20.4414 17.297 7.86203 -8.94956
477 1 22.0136 18.8694 6.28956 -8.94952
478 1 1.57206 20.4417 7.86204 -8.94957
479 1 3.14382 18.8701 6.28916 -8.94933
480 1 4.7165 20.4424 7.86184 -8.94943
481 1 6.28832 18.8722 6.28828 -8.95154
482 1 7.86205 20.4429 7.86198 -8.95121
483 1 9.43483 18.8713 6.28881 -8.95028
484 1 11.0071 20.4421 7.86216 -8.94948
485 1 12.5798 18.8712 6.28939 -8.95243
486 1 14.1521 20.4418 7.86219 -8.94941
487 1 15.7246 18.8697 6.28987 -8.94965
488 1 17.2969 20.4417 7.86208 -8.94957
489 1 18.8692 18.8693 6.28965 -8.94945
490 1 20.4415 20.4416 7.86208 -8.94961
491 1 22.0127 12.5795 9.43436 -8.94976
492 1 3.13986 12.5799 9.43363 -8.95019
493 1 6.2762 12.5883 9.43199 -9.02121
494 1 9.35664 12.8302 9.42737 -8.3376
495 1 12.5595 12.5707 9.43169 -8.95917
496 1 15.7229 12.5791 9.43442 -8.9402
497 1 18.8696 12.5798 9.4345 -8.94798
498 1 22.013 15.7248 9.43452 -8.94988
499 1 3.14086 15.7264 9.43448 -8.94916
500 1 6.27967 15.7338 9.43446 -8.94331
501 1 9.42978 15.7223 9.43439 -9.00878
513 1 4.70658 11.007 11.0074 -8.95748
531 1 17.2974 17.2974 11.0069 -8.94901
526 1 1.57118 17.2975 11.0072 -8.94928
527 1 4.71409 17.2999 11.008 -8.9475
389 1 15.7244 18.8694 -0.000210293 -8.94969
534 1 4.71649 20.4424 11.0072 -8.9494
365 1 4.47406e-06 15.7243 -0.000102985 -8.94957
377 1 18.8694 15.7244 -0.000218036 -8.94958
512 1 1.56948 11.007 11.0074 -8.95124
686 1 20.4415 20.4415 20.4415 -8.94943
514 1 7.82639 11.007 11.0184 -9.14308
515 1 11.1152 11.007 11.2494 -8.34241
685 1 18.8693 18.8693 18.8693 -8.94923
517 1 17.2993 11.007 11.0065 -8.95129
518 1 20.4416 11.007 11.0069 -8.95008
519 1 1.56977 14.1523 11.0072 -8.95141
520 1 4.70653 14.1552 11.0094 -8.9582
521 1 7.81982 14.1884 11.0428 -8.90441
522 1 11.023 14.1599 11.0316 -8.95833
523 1 14.1558 14.153 11.0038 -8.95264
524 1 17.2983 14.1525 11.0062 -8.94974
525 1 20.4415 14.1521 11.0069 -8.94987
391 1 18.8693 18.8693 22.0137 -8.94928
387 1 12.5794 18.8694 22.0137 -8.94953
528 1 7.85948 17.3045 11.0083 -8.95877
529 1 11.0067 17.2986 11.0069 -8.95136
530 1 14.1524 17.2977 11.0061 -8.94885
684 1 17.2967 20.4416 20.4415 -8.94966
683 1 15.7244 18.8694 18.8693 -8.94965
533 1 1.57205 20.4417 11.007 -8.94957
383 1 6.28958 18.8693 22.0137 -8.94951
535 1 7.86204 20.443 11.007 -8.95131
536 1 11.0071 20.4421 11.0068 -8.9495
537 1 14.1521 20.4419 11.0068 -8.94943
682 1 14.1518 20.4416 20.4415 -8.94959
539 1 20.4415 20.4416 11.007 -8.94961
540 1 1.57147 11.007 14.1527 -8.94903
541 1 4.71569 11.007 14.1532 -8.94678
542 1 7.86528 11.007 14.1478 -8.99209
543 1 11.0115 11.007 14.1454 -9.05008
544 1 14.1616 11.007 14.1609 -8.94285
545 1 17.3004 11.007 14.1537 -8.94896
546 1 20.4422 11.007 14.1523 -8.94982
547 1 -0.000683518 12.5795 12.5799 -8.95008
548 1 1.57127 14.1522 14.1526 -8.94949
549 1 3.14125 12.5798 12.5812 -8.94841
550 1 4.71419 14.1528 14.1544 -8.95015
551 1 6.28297 12.5809 12.5832 -8.97947
552 1 7.85559 14.1592 14.1636 -8.95174
553 1 9.41956 12.6062 12.5943 -8.94978
554 1 11.008 14.1583 14.1619 -8.94878
555 1 12.6214 12.6181 12.618 -8.87789
556 1 14.165 14.1644 14.1646 -8.92802
557 1 15.7343 12.582 12.5828 -8.9585
558 1 17.3005 14.1537 14.1536 -8.95108
559 1 18.8712 12.5797 12.5797 -8.95181
560 1 20.442 14.1522 14.1522 -8.95021
561 1 22.0131 15.7246 12.5797 -8.9501
562 1 1.57121 17.2974 14.1525 -8.94975
563 1 3.14095 15.7262 12.5812 -8.95113
564 1 4.71347 17.3005 14.1556 -8.94459
565 1 6.27695 15.7371 12.5914 -8.93028
566 1 7.86123 17.3 14.1542 -8.94934
567 1 9.43408 15.7332 12.5844 -8.95183
568 1 11.0075 17.3 14.1541 -8.94802
569 1 12.5857 15.7357 12.5858 -8.95421
570 1 14.1545 17.3011 14.1543 -8.94987
571 1 15.7264 15.7258 12.5792 -8.95155
572 1 17.2975 17.2974 14.152 -8.95032
573 1 18.8697 15.7247 12.5793 -8.94972
574 1 20.4414 17.2969 14.1519 -8.94979
575 1 -0.000299546 18.8694 12.5795 -8.9495
576 1 1.5721 20.4417 14.152 -8.94959
577 1 3.14383 18.8701 12.5799 -8.94931
578 1 4.71659 20.4424 14.1525 -8.95003
579 1 6.28829 18.8724 12.5807 -8.95169
580 1 7.86207 20.4423 14.1524 -8.94969
581 1 9.43484 18.8717 12.5802 -8.95056
582 1 11.0072 20.4423 14.1524 -8.94968
583 1 12.5798 18.8714 12.5796 -8.95264
584 1 14.1522 20.4423 14.1521 -8.95058
585 1 15.7246 18.8697 12.5792 -8.94959
586 1 17.2968 20.4417 14.1518 -8.94969
587 1 18.8692 18.8694 12.5794 -8.94945
588 1 20.4415 20.4416 14.1518 -8.94957
589 1 1.57218 11.007 17.297 -8.94961
590 1 4.71671 11.007 17.2974 -8.94941
591 1 7.86183 11.007 17.297 -8.94721
592 1 11.007 11.007 17.2974 -8.94498
593 1 14.1537 11.007 17.3 -8.94945
594 1 17.2977 11.007 17.2976 -8.94949
595 1 20.4418 11.007 17.297 -8.94955
596 1 22.0139 12.5795 15.7247 -8.9495
597 1 1.57223 14.1518 17.297 -8.94955
598 1 3.14418 12.5793 15.7251 -8.9493
599 1 4.71692 14.1516 17.2974 -8.94998
600 1 6.28946 12.5784 15.7253 -8.9504
601 1 7.86173 14.1521 17.2991 -8.95272
602 1 9.43519 12.5792 15.7268 -8.95437
603 1 11.0067 14.1529 17.2996 -8.9508
604 1 12.5817 12.5805 15.732 -8.96022
605 1 14.1532 14.1531 17.2999 -8.95184
606 1 15.7273 12.5805 15.7273 -8.9476
607 1 17.2976 14.1523 17.2976 -8.94929
608 1 18.8702 12.5796 15.725 -8.94926
609 1 20.4418 14.1519 17.2969 -8.94949
610 1 -0.000123868 15.7245 15.7246 -8.94971
611 1 1.57213 17.2968 17.297 -8.94969
612 1 3.14374 15.7247 15.7253 -8.94985
613 1 4.71633 17.2975 17.298 -8.94933
614 1 6.28697 15.7269 15.7287 -8.94934
615 1 7.86182 17.2975 17.2978 -8.94906
616 1 9.43399 15.7267 15.7276 -8.94713
617 1 11.007 17.2976 17.2978 -8.94935
618 1 12.5806 15.7269 15.7277 -8.94858
619 1 14.1523 17.2976 17.2977 -8.94953
620 1 15.7282 15.7281 15.728 -8.94416
621 1 17.2977 17.2977 17.2976 -8.94817
622 1 18.8703 15.725 15.725 -8.94971
623 1 20.4417 17.2969 17.2969 -8.94954
624 1 22.0136 18.8693 15.7244 -8.94959
625 1 1.57214 20.4417 17.2969 -8.94927
626 1 3.1438 18.8701 15.7253 -8.94828
627 1 4.71709 20.4417 17.297 -8.94967
628 1 6.28927 18.8701 15.7252 -8.94967
629 1 7.86204 20.4418 17.297 -8.94951
630 1 9.4345 18.8702 15.7251 -8.94934
631 1 11.007 20.4418 17.297 -8.94955
632 1 12.5797 18.8702 15.725 -8.94916
633 1 14.1519 20.4418 17.2969 -8.94951
634 1 15.7251 18.8705 15.7251 -8.94942
635 1 17.2969 20.4418 17.2969 -8.9495
636 1 18.8693 18.8694 15.7243 -8.94983
637 1 20.4415 20.4416 17.2967 -8.94964
638 1 1.5723 11.007 20.4415 -8.94962
639 1 4.71697 11.007 20.4415 -8.9497
640 1 7.86183 11.007 20.4415 -8.94921
641 1 11.0067 11.007 20.4415 -8.94857
642 1 14.1523 11.007 20.4415 -8.95024
643 1 17.2971 11.007 20.4415 -8.94952
644 1 20.4416 11.007 20.4415 -8.94961
645 1 -6.31623e-06 12.5794 18.8692 -8.94961
646 1 1.57231 14.1518 20.4415 -8.94958
647 1 3.14458 12.5794 18.8693 -8.94957
648 1 4.71706 14.1518 20.4415 -8.94961
649 1 6.2894 12.5792 18.8695 -8.94945
650 1 7.86194 14.1519 20.4416 -8.95039
651 1 9.4344 12.5792 18.8698 -8.94977
652 1 11.0067 14.1521 20.4416 -8.95024
653 1 12.5794 12.5794 18.8705 -8.95135
654 1 14.1521 14.1521 20.4415 -8.95061
655 1 15.725 12.5796 18.87 -8.94937
656 1 17.2971 14.152 20.4415 -8.94944
657 1 18.8694 12.5794 18.8693 -8.94956
658 1 20.4416 14.1518 20.4415 -8.94961
659 1 22.0139 15.7243 18.8692 -8.9496
660 1 1.57235 17.2967 20.4415 -8.9497
661 1 3.14465 15.7242 18.8693 -8.94977
662 1 4.71699 17.2969 20.4415 -8.94994
663 1 6.28929 15.7246 18.87 -8.95053
664 1 7.86195 17.297 20.4415 -8.9495
665 1 9.43428 15.7249 18.87 -8.94956
666 1 11.0069 17.2971 20.4415 -8.94955
667 1 12.5795 15.7248 18.87 -8.94963
668 1 14.1519 17.297 20.4415 -8.94959
669 1 15.7249 15.7249 18.87 -8.95006
670 1 17.297 17.297 20.4415 -8.94958
671 1 18.8694 15.7244 18.8693 -8.94959
672 1 20.4416 17.2967 20.4415 -8.94964
673 1 -1.22798e-05 18.8692 18.8692 -8.9496
674 1 1.57232 20.4416 20.4415 -8.94951
675 1 3.14456 18.8693 18.8694 -8.94949
676 1 4.71721 20.4416 20.4415 -8.9496
677 1 6.28956 18.8694 18.8694 -8.94951
678 1 7.86207 20.4416 20.4415 -8.9496
679 1 9.43449 18.8694 18.8694 -8.94956
680 1 11.007 20.4416 20.4415 -8.94961
681 1 12.5794 18.8694 18.8693 -8.94952
351 1 22.0139 12.5794 22.0138 -8.94961
355 1 6.2894 12.5793 22.0135 -8.94953
359 1 12.5794 12.5795 22.0124 -8.95143
379 1 22.0139 18.8691 22.0138 -8.94962
367 1 3.14466 15.7242 22.0137 -8.94971
375 1 15.7249 15.7249 22.0131 -8.94997
357 1 9.43438 12.5793 22.0134 -8.94936
363 1 18.8694 12.5794 22.0137 -8.94957
516 1 14.1606 11.007 11.0139 -8.97971
