ITEM: TIMESTEP
110
ITEM: NUMBER OF ATOMS
688
ITEM: BOX BOUNDS pp pp pp
0.0000000000000000e+00 2.2013900999999997e+01
0.0000000000000000e+00 2.2013900999999997e+01
0.0000000000000000e+00 2.2013900999999997e+01
ITEM: ATOMS id type x y z c_pot
1 1 -0.000178138 -1.20844e-16 -0.00017404 -8.94926
2 1 1.57185 1.57207 1.57185 -8.94917
189 1 20.4413 4.71651 11.0071 -8.94954
4 1 4.71683 1.57198 1.57176 -8.94963
175 1 18.8693 9.43417 9.4345 -8.94776
6 1 7.86197 1.57198 1.5718 -8.94946
174 1 15.722 9.43507 9.43437 -8.94001
8 1 11.007 1.57195 1.57183 -8.94951
173 1 12.5578 9.44396 9.43134 -8.95844
10 1 14.1521 1.57192 1.57192 -8.94951
172 1 9.35861 9.18641 9.42734 -8.3467
12 1 17.2972 1.57185 1.5719 -8.94945
188 1 17.2975 4.71619 11.0069 -8.94894
14 1 20.4415 1.57215 1.57217 -8.94957
171 1 6.27632 9.42504 9.43218 -9.0213
16 1 1.57194 4.71686 1.57173 -8.9498
17 1 3.14429 3.14432 -0.000519294 -8.9495
18 1 4.71598 4.71606 1.57057 -8.9495
170 1 3.13945 9.43381 9.43364 -8.95014
20 1 7.86163 4.71614 1.57097 -8.94912
21 1 9.43443 3.14421 -0.000414742 -8.9495
22 1 11.007 4.71599 1.57104 -8.94935
169 1 22.0123 9.43433 9.43434 -8.94961
24 1 14.1526 4.71576 1.57092 -8.94972
168 1 18.8697 6.28869 9.4345 -8.94954
26 1 17.2982 4.71566 1.57104 -8.94815
167 1 15.7261 6.28769 9.43442 -8.94609
28 1 20.4419 4.71672 1.5719 -8.94954
166 1 12.5777 6.29171 9.43452 -8.94534
30 1 1.5721 7.86197 1.57178 -8.94941
165 1 9.42933 6.29197 9.43457 -9.00813
32 1 4.71666 7.8622 1.57138 -8.9497
33 1 6.28913 6.28926 -0.00096568 -8.95071
34 1 7.8617 7.86177 1.57018 -8.95249
35 1 9.43417 6.28885 -0.000910969 -8.94964
36 1 11.0067 7.86095 1.56958 -8.95061
37 1 12.5795 6.28877 -0.00105161 -8.94975
38 1 14.1539 7.86024 1.56835 -8.95164
164 1 6.27811 6.279 9.43453 -8.94299
40 1 17.2984 7.86113 1.57085 -8.94916
163 1 3.13959 6.28673 9.43445 -8.94916
42 1 20.4421 7.86177 1.57179 -8.94944
162 1 22.0125 6.28876 9.43449 -8.94995
44 1 3.14443 9.4345 -0.000438328 -8.94956
161 1 18.8693 3.14422 9.43451 -8.94955
181 1 17.297 1.57204 11.0069 -8.94954
160 1 15.7249 3.14392 9.43446 -8.94959
48 1 15.7256 9.43405 -0.00136911 -8.94938
159 1 12.5796 3.1446 9.43444 -8.94823
50 1 22.0136 3.77267e-16 3.14455 -8.94954
51 1 1.57166 1.57194 4.71673 -8.94949
52 1 3.14408 -1.69279e-15 3.14405 -8.94955
53 1 4.71618 1.57119 4.7161 -8.95004
54 1 6.28941 -1.50089e-15 3.14411 -8.94959
55 1 7.86196 1.57136 4.71637 -8.94968
56 1 9.43459 9.68842e-16 3.14414 -8.94954
57 1 11.0073 1.57146 4.71647 -8.94962
58 1 12.5797 1.58531e-15 3.14426 -8.94952
59 1 14.1524 1.57133 4.7168 -8.95073
60 1 15.7247 1.648e-15 3.14439 -8.95006
61 1 17.297 1.57203 4.7172 -8.94974
62 1 18.8692 1.6732e-15 3.14471 -8.94971
63 1 20.4414 1.57216 4.71708 -8.94951
64 1 -0.000523212 3.1443 3.14429 -8.94953
65 1 1.5706 4.71604 4.71598 -8.94957
66 1 3.14329 3.14345 3.14324 -8.94823
67 1 4.71272 4.71289 4.71277 -8.94463
68 1 6.28892 3.1434 3.14339 -8.94965
69 1 7.86071 4.71368 4.71442 -8.94916
70 1 9.43444 3.14346 3.1436 -8.94935
71 1 11.0074 4.714 4.71465 -8.94782
72 1 12.5798 3.14336 3.14372 -8.94918
73 1 14.1551 4.71217 4.71412 -8.94975
74 1 15.7256 3.14289 3.14358 -8.94939
75 1 17.298 4.71592 4.71674 -8.95036
76 1 18.8695 3.14417 3.14447 -8.94983
77 1 20.4414 4.71663 4.71688 -8.94982
78 1 22.0138 6.28929 3.14418 -8.94985
79 1 1.57129 7.86191 4.71631 -8.94987
80 1 3.14344 6.28906 3.14335 -8.95025
81 1 4.71418 7.86146 4.71473 -8.95118
82 1 6.28667 6.28687 3.14002 -8.95002
83 1 7.85575 7.8557 4.70683 -8.95371
84 1 9.43388 6.28713 3.1415 -8.9476
85 1 11.0077 7.85709 4.70816 -8.95197
86 1 12.5808 6.28681 3.14094 -8.94942
87 1 14.1659 7.84925 4.70356 -8.92841
88 1 15.7289 6.2851 3.14034 -8.9442
89 1 17.3014 7.85979 4.71487 -8.9509
90 1 18.8708 6.28849 3.14371 -8.94967
91 1 20.4424 7.86161 4.71659 -8.95025
92 1 4.17235e-05 9.43436 3.14404 -8.94954
93 1 3.14379 9.43444 3.14353 -8.94891
94 1 6.28899 9.43516 3.14347 -8.94935
95 1 9.43517 9.43446 3.14352 -8.95102
96 1 12.5829 9.433 3.13593 -8.95976
97 1 15.7287 9.43295 3.14056 -8.94745
98 1 18.871 9.43405 3.14354 -8.94926
99 1 -0.000394919 1.83425e-17 6.28949 -8.94954
100 1 1.57158 1.5719 7.86189 -8.9495
101 1 3.14392 -1.27672e-15 6.28917 -8.94943
102 1 4.71593 1.57109 7.86159 -8.94944
103 1 6.28916 -6.56404e-15 6.28906 -8.95066
104 1 7.86183 1.57081 7.86187 -8.95125
105 1 9.43477 -3.58685e-15 6.28922 -8.95016
106 1 11.0071 1.57188 7.86215 -8.94941
107 1 12.5796 -8.08845e-16 6.2896 -8.95048
108 1 14.1522 1.572 7.86221 -8.94938
109 1 15.7246 1.87052e-15 6.28972 -8.94955
110 1 17.297 1.57204 7.86207 -8.94954
111 1 18.8692 1.76673e-15 6.28961 -8.94953
112 1 20.4414 1.57212 7.86202 -8.94955
113 1 22.0132 3.14419 6.28933 -8.94946
114 1 1.5704 4.71586 7.86157 -8.94933
115 1 3.14308 3.14322 6.28867 -8.94923
116 1 4.71288 4.71307 7.86044 -8.94777
117 1 6.28772 3.14102 6.28785 -8.95158
118 1 7.8586 4.7095 7.86051 -8.95839
119 1 9.43464 3.14222 6.28854 -8.95049
120 1 11.0065 4.71569 7.86168 -8.95151
121 1 12.5799 3.14241 6.2892 -8.95267
122 1 14.1524 4.71626 7.86271 -8.94901
123 1 15.7248 3.14393 6.28981 -8.94966
124 1 17.2975 4.7162 7.86206 -8.94891
125 1 18.8693 3.14427 6.28957 -8.9494
126 1 20.4413 4.71651 7.86194 -8.94955
127 1 -0.00124111 6.28892 6.28906 -8.95012
128 1 1.56894 7.86117 7.86132 -8.95156
129 1 3.13983 6.28706 6.28706 -8.95045
130 1 4.70503 7.85722 7.85856 -8.95732
131 1 6.27617 6.27693 6.27733 -8.9302
132 1 7.81876 7.82762 7.82858 -8.88473
133 1 9.43332 6.28147 6.28472 -8.95168
134 1 11.0249 7.85462 7.83613 -8.94368
135 1 12.5865 6.27839 6.28211 -8.95285
136 1 14.1564 7.86086 7.86384 -8.95303
137 1 15.7271 6.28763 6.28924 -8.95155
138 1 17.2984 7.86137 7.8627 -8.95003
139 1 18.8699 6.28894 6.28959 -8.94988
140 1 20.4413 7.8616 7.862 -8.94997
141 1 22.0135 9.43446 6.28911 -8.94997
142 1 3.14224 9.43496 6.28837 -8.95015
143 1 6.28379 9.43639 6.28684 -8.95153
144 1 9.41898 9.41231 6.2837 -8.95121
145 1 12.6232 9.39932 6.24969 -8.8468
146 1 15.7354 9.43187 6.28523 -8.95855
147 1 18.8717 9.43418 6.28915 -8.95192
148 1 -0.000415702 -1.03751e-15 9.43452 -8.94955
149 1 3.14384 -1.93602e-15 9.4345 -8.94948
150 1 6.28883 -7.45475e-15 9.43446 -8.95034
151 1 9.43473 -4.12361e-14 9.43444 -8.94853
152 1 12.5797 -1.37274e-16 9.43446 -8.94914
153 1 15.7247 1.84113e-15 9.43449 -8.94966
154 1 18.8692 7.49417e-16 9.43452 -8.94958
155 1 -0.000693791 3.14415 9.43451 -8.9495
156 1 3.14297 3.14317 9.43448 -8.94944
157 1 6.28706 3.1408 9.43444 -8.94969
158 1 9.43426 3.14389 9.43439 -8.94689
177 1 4.7159 1.57106 11.0074 -8.94941
183 1 1.57038 4.71587 11.0074 -8.94925
184 1 4.7128 4.71301 11.0084 -8.94737
5 1 6.28952 9.02659e-18 -0.000253286 -8.94952
41 1 18.8698 6.28916 -0.000449455 -8.94947
7 1 9.4345 1.34779e-15 -0.000254334 -8.94954
9 1 12.5795 1.32902e-15 -0.000231736 -8.94953
29 1 7.18307e-05 6.28949 -0.00026624 -8.94951
25 1 15.7247 3.14414 -0.000418144 -8.94964
176 1 1.57157 1.57189 11.0071 -8.94949
47 1 12.5797 9.43438 22.0121 -8.95156
178 1 7.86182 1.57066 11.0071 -8.95143
179 1 11.0071 1.57177 11.0068 -8.94947
180 1 14.1522 1.57196 11.0067 -8.9494
343 1 18.8699 9.43433 18.8696 -8.94948
182 1 20.4414 1.57212 11.007 -8.94955
45 1 6.28932 9.43466 22.0134 -8.94947
43 1 22.014 9.43445 22.0136 -8.94956
185 1 7.85857 4.70866 11.0085 -8.95896
186 1 11.0065 4.7152 11.0072 -8.95144
187 1 14.1525 4.71608 11.0062 -8.94875
342 1 15.7256 9.43406 18.8704 -8.94937
341 1 12.5797 9.43439 18.8708 -8.95145
190 1 1.56904 7.86136 11.0073 -8.95152
191 1 4.7054 7.85783 11.0096 -8.95827
192 1 7.81929 7.82438 11.0428 -8.90652
193 1 11.0231 7.85346 11.0331 -8.9585
194 1 14.1558 7.86087 11.0041 -8.95282
195 1 17.2983 7.86137 11.0062 -8.94987
196 1 20.4412 7.86162 11.0069 -8.94989
197 1 22.0135 -1.9145e-15 12.5796 -8.94954
198 1 1.57164 1.57193 14.1523 -8.9495
199 1 3.1439 -2.29041e-15 12.5798 -8.94942
200 1 4.71609 1.57109 14.153 -8.95007
201 1 6.28911 -6.87058e-15 12.5799 -8.95074
202 1 7.8619 1.57116 14.1527 -8.9498
203 1 9.43477 -4.38924e-15 12.5798 -8.95032
204 1 11.0073 1.57123 14.1527 -8.94976
205 1 12.5797 -8.58375e-16 12.5794 -8.95055
206 1 14.1525 1.57124 14.1523 -8.95076
207 1 15.7246 1.27818e-15 12.5793 -8.94954
208 1 17.297 1.57202 14.1518 -8.94972
209 1 18.8692 -1.33118e-15 12.5794 -8.94953
210 1 20.4414 1.57215 14.152 -8.94951
211 1 -0.00066837 3.14418 12.5797 -8.94944
212 1 1.57055 4.716 14.153 -8.94976
213 1 3.14304 3.14319 12.5803 -8.94921
214 1 4.7124 4.71248 14.1565 -8.94445
215 1 6.28758 3.14066 12.5812 -8.95174
216 1 7.86047 4.71278 14.1551 -8.94933
217 1 9.43466 3.14163 12.5806 -8.9508
218 1 11.0077 4.713 14.1549 -8.94791
219 1 12.58 3.14209 12.5798 -8.95286
220 1 14.1553 4.71182 14.155 -8.9498
221 1 15.7248 3.14387 12.5792 -8.9496
222 1 17.298 4.71591 14.1523 -8.95044
223 1 18.8693 3.14426 12.5795 -8.9494
224 1 20.4414 4.71664 14.1521 -8.94986
225 1 22.0127 6.28895 12.5799 -8.9502
226 1 1.57087 7.86159 14.153 -8.94959
227 1 3.13983 6.28704 12.5817 -8.95115
228 1 4.7135 7.86078 14.1547 -8.95064
229 1 6.27557 6.27561 12.5922 -8.93026
230 1 7.85446 7.85327 14.1647 -8.95098
231 1 9.43347 6.27928 12.5855 -8.95204
232 1 11.0085 7.85438 14.1633 -8.94843
233 1 12.5864 6.27725 12.5869 -8.9541
234 1 14.1663 7.8485 14.1659 -8.92766
235 1 15.727 6.28762 12.5796 -8.9517
236 1 17.3014 7.85977 14.1541 -8.95118
237 1 18.8698 6.28895 12.5794 -8.94984
238 1 20.4422 7.86154 14.1525 -8.95031
239 1 -0.000883478 9.43431 12.58 -8.95007
240 1 3.14086 9.43404 12.5812 -8.94837
241 1 6.28314 9.43293 12.5825 -8.97984
242 1 9.41867 9.40537 12.5961 -8.94822
243 1 12.6223 9.39492 12.6195 -8.8772
244 1 15.7349 9.43175 12.5835 -8.95879
245 1 18.8714 9.43416 12.5799 -8.95195
246 1 22.0136 -9.63184e-16 15.7245 -8.94955
247 1 1.57181 1.57204 17.2972 -8.94916
248 1 3.14403 -1.66406e-15 15.725 -8.94955
249 1 4.71676 1.57191 17.2974 -8.9496
250 1 6.28934 -9.79669e-16 15.725 -8.94963
251 1 7.86193 1.57189 17.2974 -8.94944
252 1 9.43458 -1.0282e-16 15.725 -8.94957
253 1 11.0071 1.57187 17.2974 -8.94949
254 1 12.5797 1.47798e-15 15.7249 -8.94956
255 1 14.1522 1.57185 17.2972 -8.94948
256 1 15.7248 1.56558e-15 15.7247 -8.95007
257 1 17.2972 1.57183 17.2972 -8.94946
258 1 18.8692 -7.49173e-17 15.7243 -8.94971
259 1 20.4415 1.57214 17.2969 -8.94959
260 1 22.0134 3.14427 15.7248 -8.94958
261 1 1.57185 4.7168 17.2974 -8.94975
262 1 3.14316 3.14333 15.7259 -8.94817
263 1 4.71578 4.71587 17.2987 -8.94926
264 1 6.28876 3.14311 15.7259 -8.94962
265 1 7.86152 4.71589 17.2984 -8.94902
266 1 9.43442 3.14312 15.7257 -8.94929
267 1 11.0071 4.71574 17.2984 -8.9493
268 1 12.58 3.14305 15.7255 -8.94913
269 1 14.1528 4.71556 17.2984 -8.94947
270 1 15.7257 3.14279 15.7255 -8.9494
271 1 17.2983 4.71557 17.2981 -8.94807
272 1 18.8695 3.14417 15.7246 -8.94986
273 1 20.4419 4.71667 17.2972 -8.94952
274 1 -0.000207317 6.28918 15.725 -8.94977
275 1 1.57212 7.862 17.2973 -8.94951
276 1 3.14317 6.28887 15.7259 -8.95004
277 1 4.71669 7.86225 17.2977 -8.94999
278 1 6.28608 6.28617 15.7298 -8.94912
279 1 7.86155 7.86153 17.2996 -8.95294
280 1 9.4338 6.28635 15.7285 -8.94703
281 1 11.0069 7.86064 17.3002 -8.95101
282 1 12.5813 6.28606 15.7288 -8.94847
283 1 14.1539 7.86026 17.3007 -8.95191
284 1 15.7292 6.28489 15.7289 -8.94402
285 1 17.2984 7.86117 17.2982 -8.94918
286 1 18.8708 6.28844 15.7254 -8.94974
287 1 20.4421 7.86178 17.2973 -8.94943
288 1 22.0139 9.43437 15.725 -8.94948
289 1 3.14393 9.43457 15.7254 -8.94927
290 1 6.28931 9.43542 15.7252 -8.95015
291 1 9.43529 9.43434 15.7271 -8.95478
292 1 12.5826 9.43306 15.7328 -8.96033
293 1 15.7285 9.43303 15.7283 -8.94746
294 1 18.8709 9.43407 15.7255 -8.94922
295 1 -0.000190335 -1.16744e-15 18.8693 -8.94927
296 1 1.57214 1.57217 20.4415 -8.94939
297 1 3.14452 -2.61404e-16 18.8694 -8.94959
298 1 4.71703 1.57217 20.4415 -8.94955
299 1 6.2895 2.40501e-16 18.8694 -8.9495
300 1 7.86198 1.57213 20.4415 -8.94953
301 1 9.4345 3.56524e-16 18.8694 -8.94953
302 1 11.007 1.57211 20.4415 -8.94954
303 1 12.5795 1.66609e-15 18.8694 -8.94952
304 1 14.152 1.57211 20.4415 -8.94951
305 1 15.7245 1.71975e-15 18.8693 -8.94955
306 1 17.2969 1.57212 20.4415 -8.94958
307 1 18.8693 1.49411e-15 18.8693 -8.94938
308 1 20.4416 1.57223 20.4415 -8.94924
309 1 -5.38633e-05 3.14455 18.8694 -8.94955
310 1 1.57225 4.7171 20.4415 -8.94972
311 1 3.14424 3.14428 18.8697 -8.94944
312 1 4.71673 4.71679 20.4416 -8.95005
313 1 6.28932 3.14424 18.8697 -8.94946
314 1 7.86177 4.71661 20.4416 -8.9495
315 1 9.43442 3.14414 18.8697 -8.94949
316 1 11.0069 4.71648 20.4416 -8.94953
317 1 12.5796 3.14411 18.8696 -8.94945
318 1 14.1521 4.71647 20.4416 -8.9496
319 1 15.7247 3.14409 18.8696 -8.94958
320 1 17.2974 4.71645 20.4415 -8.94955
321 1 18.8696 3.14423 18.8694 -8.94911
322 1 20.4418 4.71697 20.4415 -8.94955
323 1 22.014 6.2895 18.8694 -8.94954
324 1 1.57226 7.86203 20.4415 -8.94955
325 1 3.14447 6.28959 18.8695 -8.94982
326 1 4.71692 7.86215 20.4415 -8.94961
327 1 6.28904 6.28916 18.8704 -8.95072
328 1 7.86186 7.86205 20.4416 -8.9505
329 1 9.43417 6.28874 18.8704 -8.94963
330 1 11.0067 7.86164 20.4416 -8.95037
331 1 12.5797 6.28865 18.8704 -8.94973
332 1 14.1524 7.86151 20.4415 -8.95073
333 1 15.7254 6.28851 18.8704 -8.9501
334 1 17.2976 7.86161 20.4415 -8.94938
335 1 18.8698 6.28917 18.8695 -8.94949
336 1 20.4418 7.86192 20.4415 -8.94953
337 1 7.67103e-05 9.43446 18.8694 -8.94955
338 1 3.14445 9.43452 18.8695 -8.94956
339 1 6.28932 9.43471 18.8695 -8.94936
340 1 9.43444 9.43471 18.8699 -8.94978
39 1 15.7254 6.28851 22.0127 -8.95002
31 1 3.14449 6.28959 22.0135 -8.94975
27 1 18.8696 3.14426 22.0136 -8.94915
11 1 15.7244 1.83481e-15 22.0137 -8.94956
15 1 22.0139 3.14457 22.0136 -8.94957
19 1 6.28937 3.14431 22.0135 -8.94948
23 1 12.5795 3.14418 22.0135 -8.94946
3 1 3.14455 -7.16348e-16 22.0136 -8.9496
13 1 18.8693 8.06071e-16 22.0137 -8.94937
46 1 9.43441 9.43465 22.0134 -8.94931
49 1 18.8699 9.43433 22.0134 -8.94948
344 1 1.57209 11.007 1.57172 -8.94957
345 1 4.71655 11.007 1.57132 -8.94966
346 1 7.86199 11.007 1.57215 -8.94847
347 1 11.0071 11.007 1.5715 -8.94643
348 1 14.1546 11.007 1.56812 -8.94957
349 1 17.2985 11.007 1.57078 -8.94943
350 1 20.4421 11.007 1.57175 -8.9495
688 3 10.2344 11.007 9.43492 2.20453
352 1 1.5721 14.1519 1.57178 -8.94941
353 1 3.14443 12.5794 -0.000438328 -8.94956
354 1 4.71666 14.1517 1.57138 -8.9497
687 2 9.51132 11.007 10.1858 -0.00652051
356 1 7.8617 14.1521 1.57018 -8.95249
538 1 17.297 20.4419 11.0069 -8.94954
358 1 11.0067 14.153 1.56958 -8.95061
511 1 18.8693 18.8697 9.43451 -8.94955
360 1 14.1539 14.1537 1.56835 -8.95164
361 1 15.7256 12.5799 -0.00136911 -8.94938
362 1 17.2984 14.1528 1.57085 -8.94916
532 1 20.4413 17.2974 11.0071 -8.94954
364 1 20.4421 14.1521 1.57179 -8.94944
510 1 15.7249 18.87 9.43446 -8.94959
366 1 1.57194 17.297 1.57173 -8.9498
509 1 12.5796 18.8693 9.43444 -8.94823
368 1 4.71598 17.2978 1.57057 -8.9495
369 1 6.28913 15.7246 -0.00096568 -8.95071
370 1 7.86163 17.2978 1.57097 -8.94912
371 1 9.43417 15.725 -0.000910969 -8.94964
372 1 11.007 17.2979 1.57104 -8.94935
373 1 12.5795 15.7251 -0.00105161 -8.94975
374 1 14.1526 17.2981 1.57092 -8.94972
508 1 9.43426 18.87 9.43439 -8.94689
376 1 17.2982 17.2982 1.57104 -8.94815
507 1 6.28706 18.8731 9.43444 -8.94969
378 1 20.4419 17.2972 1.5719 -8.94954
506 1 3.14297 18.8707 9.43448 -8.94944
380 1 1.57185 20.4418 1.57185 -8.94917
381 1 3.14429 18.8696 -0.000519294 -8.9495
382 1 4.71683 20.4419 1.57176 -8.94963
505 1 -0.000693791 18.8698 9.43451 -8.9495
384 1 7.86197 20.4419 1.5718 -8.94946
385 1 9.43443 18.8697 -0.000414742 -8.9495
386 1 11.007 20.4419 1.57183 -8.94951
504 1 18.8697 15.7252 9.4345 -8.94954
388 1 14.1521 20.442 1.57192 -8.94951
503 1 15.7261 15.7262 9.43442 -8.94609
390 1 17.2972 20.442 1.5719 -8.94945
502 1 12.5777 15.7222 9.43452 -8.94534
392 1 20.4415 20.4417 1.57217 -8.94957
393 1 1.57136 11.007 4.71604 -8.9495
394 1 4.71482 11.007 4.71465 -8.94563
395 1 7.86374 11.007 4.71878 -8.94691
396 1 11.0127 11.007 4.72032 -9.00619
397 1 14.1636 11.007 4.70595 -8.94137
398 1 17.3017 11.007 4.71445 -8.94899
399 1 20.4426 11.007 4.71639 -8.95
400 1 4.17235e-05 12.5795 3.14404 -8.94954
401 1 1.57129 14.152 4.71631 -8.94987
402 1 3.14379 12.5795 3.14353 -8.94891
403 1 4.71418 14.1524 4.71473 -8.95118
404 1 6.28899 12.5787 3.14347 -8.94935
405 1 7.85575 14.1582 4.70683 -8.95371
406 1 9.43517 12.5794 3.14352 -8.95102
407 1 11.0077 14.1568 4.70816 -8.95197
408 1 12.5829 12.5809 3.13593 -8.95976
409 1 14.1659 14.1647 4.70356 -8.92841
410 1 15.7287 12.581 3.14056 -8.94745
411 1 17.3014 14.1541 4.71487 -8.9509
412 1 18.871 12.5798 3.14354 -8.94926
413 1 20.4424 14.1523 4.71659 -8.95025
414 1 22.0138 15.7246 3.14418 -8.94985
415 1 1.5706 17.2979 4.71598 -8.94957
416 1 3.14344 15.7248 3.14335 -8.95025
417 1 4.71272 17.301 4.71277 -8.94463
418 1 6.28667 15.727 3.14002 -8.95002
419 1 7.86071 17.3002 4.71442 -8.94916
420 1 9.43388 15.7268 3.1415 -8.9476
421 1 11.0074 17.2999 4.71465 -8.94782
422 1 12.5808 15.7271 3.14094 -8.94942
423 1 14.1551 17.3017 4.71412 -8.94975
424 1 15.7289 15.7288 3.14034 -8.9442
425 1 17.298 17.298 4.71674 -8.95036
426 1 18.8708 15.7254 3.14371 -8.94967
427 1 20.4414 17.2973 4.71688 -8.94982
428 1 -0.000523212 18.8696 3.14429 -8.94953
429 1 1.57166 20.442 4.71673 -8.94949
430 1 3.14329 18.8704 3.14324 -8.94823
431 1 4.71618 20.4427 4.7161 -8.95004
432 1 6.28892 18.8705 3.14339 -8.94965
433 1 7.86196 20.4425 4.71637 -8.94968
434 1 9.43444 18.8704 3.1436 -8.94935
435 1 11.0073 20.4424 4.71647 -8.94962
436 1 12.5798 18.8705 3.14372 -8.94918
437 1 14.1524 20.4426 4.7168 -8.95073
438 1 15.7256 18.871 3.14358 -8.94939
439 1 17.297 20.4419 4.7172 -8.94974
440 1 18.8695 18.8697 3.14447 -8.94983
441 1 20.4414 20.4417 4.71708 -8.94951
442 1 1.57083 11.007 7.86146 -8.94774
443 1 4.71664 11.007 7.86194 -8.94131
444 1 7.87592 11.007 7.86636 -8.93529
445 1 11.0905 11.007 7.61667 -8.16187
446 1 14.1607 11.007 7.85318 -8.97293
447 1 17.2993 11.007 7.86231 -8.95115
448 1 20.4417 11.007 7.86204 -8.94947
449 1 22.0135 12.5794 6.28911 -8.94997
450 1 1.56894 14.1527 7.86132 -8.95156
451 1 3.14224 12.5789 6.28837 -8.95015
452 1 4.70503 14.1567 7.85856 -8.95732
453 1 6.28379 12.5775 6.28684 -8.95153
454 1 7.81876 14.1863 7.82858 -8.88473
455 1 9.41898 12.6016 6.2837 -8.95121
456 1 11.0249 14.1593 7.83613 -8.94368
457 1 12.6232 12.6146 6.24969 -8.8468
458 1 14.1564 14.153 7.86384 -8.95303
459 1 15.7354 12.582 6.28523 -8.95855
460 1 17.2984 14.1525 7.8627 -8.95003
461 1 18.8717 12.5797 6.28915 -8.95192
462 1 20.4413 14.1523 7.862 -8.94997
463 1 -0.00124111 15.725 6.28906 -8.95012
464 1 1.5704 17.298 7.86157 -8.94933
465 1 3.13983 15.7268 6.28706 -8.95045
466 1 4.71288 17.3008 7.86044 -8.94777
467 1 6.27617 15.737 6.27733 -8.9302
468 1 7.8586 17.3044 7.86051 -8.95839
469 1 9.43332 15.7324 6.28472 -8.95168
470 1 11.0065 17.2982 7.86168 -8.95151
471 1 12.5865 15.7355 6.28211 -8.95285
472 1 14.1524 17.2976 7.86271 -8.94901
473 1 15.7271 15.7263 6.28924 -8.95155
474 1 17.2975 17.2977 7.86206 -8.94891
475 1 18.8699 15.725 6.28959 -8.94988
476 1 20.4413 17.2974 7.86194 -8.94955
477 1 22.0132 18.8697 6.28933 -8.94946
478 1 1.57158 20.442 7.86189 -8.9495
479 1 3.14308 18.8707 6.28867 -8.94923
480 1 4.71593 20.4428 7.86159 -8.94944
481 1 6.28772 18.8729 6.28785 -8.95158
482 1 7.86183 20.4431 7.86187 -8.95125
483 1 9.43464 18.8717 6.28854 -8.95049
484 1 11.0071 20.442 7.86215 -8.94941
485 1 12.5799 18.8715 6.2892 -8.95267
486 1 14.1522 20.4419 7.86221 -8.94938
487 1 15.7248 18.87 6.28981 -8.94966
488 1 17.297 20.4419 7.86207 -8.94954
489 1 18.8693 18.8696 6.28957 -8.9494
490 1 20.4414 20.4418 7.86202 -8.94955
491 1 22.0123 12.5796 9.43434 -8.94961
492 1 3.13945 12.5801 9.43364 -8.95014
493 1 6.27632 12.5889 9.43218 -9.0213
494 1 9.35861 12.8275 9.42734 -8.3467
495 1 12.5578 12.5699 9.43134 -8.95844
496 1 15.722 12.5788 9.43437 -8.94001
497 1 18.8693 12.5797 9.4345 -8.94776
498 1 22.0125 15.7251 9.43449 -8.94995
499 1 3.13959 15.7272 9.43445 -8.94916
500 1 6.27811 15.7349 9.43453 -8.94299
501 1 9.42933 15.7219 9.43457 -9.00813
513 1 4.70704 11.007 11.0072 -8.95663
531 1 17.2975 17.2977 11.0069 -8.94894
526 1 1.57038 17.298 11.0074 -8.94925
527 1 4.7128 17.3009 11.0084 -8.94737
389 1 15.7247 18.8698 -0.000418144 -8.94964
534 1 4.7159 20.4428 11.0074 -8.94941
365 1 7.18307e-05 15.7244 -0.00026624 -8.94951
377 1 18.8698 15.7247 -0.000449455 -8.94947
512 1 1.5692 11.007 11.0074 -8.95093
686 1 20.4416 20.4417 20.4415 -8.94924
514 1 7.82953 11.007 11.0177 -9.14474
515 1 11.1132 11.007 11.2539 -8.34567
685 1 18.8696 18.8697 18.8694 -8.94911
517 1 17.2989 11.007 11.0067 -8.95102
518 1 20.4414 11.007 11.0069 -8.94987
519 1 1.56904 14.1525 11.0073 -8.95152
520 1 4.7054 14.1561 11.0096 -8.95827
521 1 7.81929 14.1895 11.0428 -8.90652
522 1 11.0231 14.1604 11.0331 -8.9585
523 1 14.1558 14.153 11.0041 -8.95282
524 1 17.2983 14.1525 11.0062 -8.94987
525 1 20.4412 14.1523 11.0069 -8.94989
391 1 18.8696 18.8696 22.0136 -8.94915
387 1 12.5795 18.8697 22.0135 -8.94946
528 1 7.85857 17.3052 11.0085 -8.95896
529 1 11.0065 17.2987 11.0072 -8.95144
530 1 14.1525 17.2978 11.0062 -8.94875
684 1 17.2969 20.4418 20.4415 -8.94958
683 1 15.7247 18.8698 18.8696 -8.94958
533 1 1.57157 20.442 11.0071 -8.94949
383 1 6.28937 18.8696 22.0135 -8.94948
535 1 7.86182 20.4432 11.0071 -8.95143
536 1 11.0071 20.4421 11.0068 -8.94947
537 1 14.1522 20.4419 11.0067 -8.9494
682 1 14.152 20.4418 20.4415 -8.94951
539 1 20.4414 20.4418 11.007 -8.94955
540 1 1.57125 11.007 14.153 -8.94901
541 1 4.71553 11.007 14.1531 -8.94687
542 1 7.86537 11.007 14.1473 -8.99081
543 1 11.012 11.007 14.1458 -9.05091
544 1 14.1629 11.007 14.1621 -8.94252
545 1 17.3014 11.007 14.1545 -8.94897
546 1 20.4424 11.007 14.1527 -8.94989
547 1 -0.000883478 12.5796 12.58 -8.95007
548 1 1.57087 14.1523 14.153 -8.94959
549 1 3.14086 12.5799 12.5812 -8.94837
550 1 4.7135 14.1531 14.1547 -8.95064
551 1 6.28314 12.581 12.5825 -8.97984
552 1 7.85446 14.1606 14.1647 -8.95098
553 1 9.41867 12.6085 12.5961 -8.94822
554 1 11.0085 14.1595 14.1633 -8.94843
555 1 12.6223 12.619 12.6195 -8.8772
556 1 14.1663 14.1654 14.1659 -8.92766
557 1 15.7349 12.5821 12.5835 -8.95879
558 1 17.3014 14.1541 14.1541 -8.95118
559 1 18.8714 12.5797 12.5799 -8.95195
560 1 20.4422 14.1524 14.1525 -8.95031
561 1 22.0127 15.7249 12.5799 -8.9502
562 1 1.57055 17.2979 14.153 -8.94976
563 1 3.13983 15.7269 12.5817 -8.95115
564 1 4.7124 17.3014 14.1565 -8.94445
565 1 6.27557 15.7383 12.5922 -8.93026
566 1 7.86047 17.3011 14.1551 -8.94933
567 1 9.43347 15.7346 12.5855 -8.95204
568 1 11.0077 17.3009 14.1549 -8.94791
569 1 12.5864 15.7367 12.5869 -8.9541
570 1 14.1553 17.3021 14.155 -8.9498
571 1 15.727 15.7263 12.5796 -8.9517
572 1 17.298 17.298 14.1523 -8.95044
573 1 18.8698 15.7249 12.5794 -8.94984
574 1 20.4414 17.2973 14.1521 -8.94986
575 1 -0.00066837 18.8697 12.5797 -8.94944
576 1 1.57164 20.442 14.1523 -8.9495
577 1 3.14304 18.8707 12.5803 -8.94921
578 1 4.71609 20.4428 14.153 -8.95007
579 1 6.28758 18.8732 12.5812 -8.95174
580 1 7.8619 20.4427 14.1527 -8.9498
581 1 9.43466 18.8723 12.5806 -8.9508
582 1 11.0073 20.4427 14.1527 -8.94976
583 1 12.58 18.8718 12.5798 -8.95286
584 1 14.1525 20.4427 14.1523 -8.95076
585 1 15.7248 18.87 12.5792 -8.9496
586 1 17.297 20.4419 14.1518 -8.94972
587 1 18.8693 18.8696 12.5795 -8.9494
588 1 20.4414 20.4417 14.152 -8.94951
589 1 1.5721 11.007 17.2973 -8.94956
590 1 4.71659 11.007 17.2975 -8.94937
591 1 7.86187 11.007 17.2968 -8.94699
592 1 11.0074 11.007 17.2974 -8.94494
593 1 14.1545 11.007 17.3007 -8.94952
594 1 17.2985 11.007 17.2982 -8.94944
595 1 20.4421 11.007 17.2973 -8.9495
596 1 22.0139 12.5795 15.725 -8.94948
597 1 1.57212 14.1519 17.2973 -8.94951
598 1 3.14393 12.5793 15.7254 -8.94927
599 1 4.71669 14.1516 17.2977 -8.94999
600 1 6.28931 12.5785 15.7252 -8.95015
601 1 7.86155 14.1524 17.2996 -8.95294
602 1 9.43529 12.5796 15.7271 -8.95478
603 1 11.0069 14.1533 17.3002 -8.95101
604 1 12.5826 12.5808 15.7328 -8.96033
605 1 14.1539 14.1536 17.3007 -8.95191
606 1 15.7285 12.5809 15.7283 -8.94746
607 1 17.2984 14.1527 17.2982 -8.94918
608 1 18.8709 12.5798 15.7255 -8.94922
609 1 20.4421 14.1521 17.2973 -8.94943
610 1 -0.000207317 15.7247 15.725 -8.94977
611 1 1.57185 17.2971 17.2974 -8.94975
612 1 3.14317 15.725 15.7259 -8.95004
613 1 4.71578 17.298 17.2987 -8.94926
614 1 6.28608 15.7277 15.7298 -8.94912
615 1 7.86152 17.298 17.2984 -8.94902
616 1 9.4338 15.7276 15.7285 -8.94703
617 1 11.0071 17.2982 17.2984 -8.9493
618 1 12.5813 15.7278 15.7288 -8.94847
619 1 14.1528 17.2983 17.2984 -8.94947
620 1 15.7292 15.729 15.7289 -8.94402
621 1 17.2983 17.2983 17.2981 -8.94807
622 1 18.8708 15.7255 15.7254 -8.94974
623 1 20.4419 17.2972 17.2972 -8.94952
624 1 22.0134 18.8696 15.7248 -8.94958
625 1 1.57181 20.4419 17.2972 -8.94916
626 1 3.14316 18.8706 15.7259 -8.94817
627 1 4.71676 20.442 17.2974 -8.9496
628 1 6.28876 18.8708 15.7259 -8.94962
629 1 7.86193 20.442 17.2974 -8.94944
630 1 9.43442 18.8708 15.7257 -8.94929
631 1 11.0071 20.442 17.2974 -8.94949
632 1 12.58 18.8708 15.7255 -8.94913
633 1 14.1522 20.4421 17.2972 -8.94948
634 1 15.7257 18.8711 15.7255 -8.9494
635 1 17.2972 20.4421 17.2972 -8.94946
636 1 18.8695 18.8697 15.7246 -8.94986
637 1 20.4415 20.4418 17.2969 -8.94959
638 1 1.57223 11.007 20.4415 -8.94958
639 1 4.71683 11.007 20.4415 -8.94967
640 1 7.86177 11.007 20.4415 -8.94906
641 1 11.0068 11.007 20.4415 -8.94834
642 1 14.1527 11.007 20.4414 -8.95037
643 1 17.2976 11.007 20.4415 -8.94946
644 1 20.4419 11.007 20.4415 -8.94955
645 1 7.67103e-05 12.5794 18.8694 -8.94955
646 1 1.57226 14.1519 20.4415 -8.94955
647 1 3.14445 12.5794 18.8695 -8.94956
648 1 4.71692 14.1517 20.4415 -8.94961
649 1 6.28932 12.5792 18.8695 -8.94936
650 1 7.86186 14.1518 20.4416 -8.9505
651 1 9.43444 12.5792 18.8699 -8.94978
652 1 11.0067 14.1523 20.4416 -8.95037
653 1 12.5797 12.5795 18.8708 -8.95145
654 1 14.1524 14.1524 20.4415 -8.95073
655 1 15.7256 12.5798 18.8704 -8.94937
656 1 17.2976 14.1523 20.4415 -8.94938
657 1 18.8699 12.5796 18.8696 -8.94948
658 1 20.4418 14.152 20.4415 -8.94953
659 1 22.014 15.7244 18.8694 -8.94954
660 1 1.57225 17.2968 20.4415 -8.94972
661 1 3.14447 15.7243 18.8695 -8.94982
662 1 4.71673 17.2971 20.4416 -8.95005
663 1 6.28904 15.7247 18.8704 -8.95072
664 1 7.86177 17.2973 20.4416 -8.9495
665 1 9.43417 15.7252 18.8704 -8.94963
666 1 11.0069 17.2974 20.4416 -8.94953
667 1 12.5797 15.7253 18.8704 -8.94973
668 1 14.1521 17.2974 20.4416 -8.9496
669 1 15.7254 15.7254 18.8704 -8.9501
670 1 17.2974 17.2974 20.4415 -8.94955
671 1 18.8698 15.7247 18.8695 -8.94949
672 1 20.4418 17.2969 20.4415 -8.94955
673 1 -5.38633e-05 18.8693 18.8694 -8.94955
674 1 1.57214 20.4417 20.4415 -8.94939
675 1 3.14424 18.8696 18.8697 -8.94944
676 1 4.71703 20.4417 20.4415 -8.94955
677 1 6.28932 18.8697 18.8697 -8.94946
678 1 7.86198 20.4418 20.4415 -8.94953
679 1 9.43442 18.8698 18.8697 -8.94949
680 1 11.007 20.4418 20.4415 -8.94954
681 1 12.5796 18.8698 18.8696 -8.94945
351 1 22.014 12.5795 22.0136 -8.94956
355 1 6.28932 12.5792 22.0134 -8.94947
359 1 12.5797 12.5795 22.0121 -8.95156
379 1 22.0139 18.8693 22.0136 -8.94957
367 1 3.14449 15.7243 22.0135 -8.94975
375 1 15.7254 15.7254 22.0127 -8.95002
357 1 9.43441 12.5792 22.0134 -8.94931
363 1 18.8699 12.5796 22.0134 -8.94948
516 1 14.1593 11.007 11.0145 -8.9798
