ITEM: TIMESTEP
39
ITEM: NUMBER OF ATOMS
688
ITEM: BOX BOUNDS pp pp pp
0.0000000000000000e+00 2.2013900999999997e+01
0.0000000000000000e+00 2.2013900999999997e+01
0.0000000000000000e+00 2.2013900999999997e+01
ITEM: ATOMS id type x y z c_pot
1 1 -1.13504e-11 3.67264e-16 -6.65359e-12 -8.94963
2 1 1.57242 1.57242 1.57242 -8.94963
189 1 20.4415 4.71726 11.007 -8.94963
4 1 4.71726 1.57242 1.57242 -8.94963
175 1 18.8691 9.43453 9.43453 -8.94966
6 1 7.86211 1.57242 1.57242 -8.94963
174 1 15.7243 9.43448 9.43452 -8.94992
8 1 11.007 1.57242 1.57242 -8.94963
173 1 12.5825 9.43192 9.43434 -8.96779
10 1 14.1518 1.57242 1.57242 -8.94963
172 1 9.38976 9.32359 9.42578 -8.26129
12 1 17.2966 1.57242 1.57242 -8.94963
188 1 17.2966 4.71726 11.007 -8.94964
14 1 20.4415 1.57242 1.57242 -8.94963
171 1 6.28837 9.43437 9.43429 -9.01436
16 1 1.57242 4.71726 1.57242 -8.94963
17 1 3.14484 3.14484 -3.28061e-10 -8.94963
18 1 4.71726 4.71726 1.57242 -8.94963
170 1 3.1448 9.43452 9.43452 -8.94981
20 1 7.86211 4.71726 1.57242 -8.94963
21 1 9.43453 3.14484 -2.98398e-09 -8.94963
22 1 11.007 4.71726 1.57242 -8.94963
169 1 22.0139 9.43453 9.43453 -8.94964
24 1 14.1518 4.71726 1.57242 -8.94964
168 1 18.8691 6.28969 9.43453 -8.94963
26 1 17.2966 4.71726 1.57242 -8.94963
167 1 15.7242 6.28969 9.43453 -8.94969
28 1 20.4415 4.71726 1.57242 -8.94963
166 1 12.5793 6.28966 9.43453 -8.95134
30 1 1.57242 7.86211 1.57242 -8.94963
165 1 9.43449 6.28638 9.43457 -8.96952
32 1 4.71726 7.86211 1.57242 -8.94963
33 1 6.28969 6.28969 -2.9508e-08 -8.94963
34 1 7.86211 7.86211 1.57242 -8.94963
35 1 9.43453 6.28969 8.0092e-08 -8.94963
36 1 11.0069 7.86211 1.57242 -8.94964
37 1 12.5794 6.28969 1.88166e-07 -8.94963
38 1 14.1518 7.86211 1.57242 -8.94962
164 1 6.28972 6.28972 9.43453 -8.95182
40 1 17.2966 7.86211 1.57242 -8.94964
163 1 3.14484 6.28969 9.43453 -8.94963
42 1 20.4415 7.86211 1.57242 -8.94963
162 1 22.0139 6.28969 9.43453 -8.94963
44 1 3.14484 9.43453 1.35886e-08 -8.94963
161 1 18.8691 3.14484 9.43453 -8.94963
181 1 17.2966 1.57242 11.007 -8.94963
160 1 15.7242 3.14484 9.43453 -8.94963
48 1 15.7242 9.43453 1.46921e-07 -8.94963
159 1 12.5794 3.14484 9.43453 -8.94967
50 1 22.0139 -2.40812e-16 3.14484 -8.94963
51 1 1.57242 1.57242 4.71726 -8.94963
52 1 3.14484 2.76911e-16 3.14484 -8.94963
53 1 4.71726 1.57242 4.71726 -8.94963
54 1 6.28969 1.86578e-17 3.14484 -8.94963
55 1 7.86211 1.57242 4.71726 -8.94963
56 1 9.43453 4.49189e-16 3.14484 -8.94963
57 1 11.007 1.57242 4.71726 -8.94963
58 1 12.5794 1.05108e-16 3.14484 -8.94963
59 1 14.1518 1.57242 4.71726 -8.94963
60 1 15.7242 1.03076e-16 3.14484 -8.94963
61 1 17.2966 1.57242 4.71726 -8.94963
62 1 18.8691 1.32151e-16 3.14484 -8.94963
63 1 20.4415 1.57242 4.71726 -8.94963
64 1 -8.70162e-10 3.14484 3.14484 -8.94963
65 1 1.57242 4.71726 4.71726 -8.94963
66 1 3.14484 3.14484 3.14484 -8.94963
67 1 4.71726 4.71726 4.71726 -8.9496
68 1 6.28969 3.14484 3.14484 -8.94964
69 1 7.86211 4.71727 4.71727 -8.94972
70 1 9.43453 3.14484 3.14484 -8.94963
71 1 11.0069 4.71727 4.71726 -8.94964
72 1 12.5794 3.14484 3.14484 -8.94963
73 1 14.1518 4.71726 4.71726 -8.94964
74 1 15.7242 3.14484 3.14484 -8.94963
75 1 17.2966 4.71726 4.71726 -8.94963
76 1 18.8691 3.14484 3.14484 -8.94963
77 1 20.4415 4.71726 4.71726 -8.94963
78 1 22.0139 6.28969 3.14484 -8.94963
79 1 1.57242 7.86211 4.71726 -8.94963
80 1 3.14484 6.28969 3.14484 -8.94963
81 1 4.71726 7.8621 4.71726 -8.94963
82 1 6.28969 6.28969 3.14484 -8.94964
83 1 7.8621 7.86211 4.71721 -8.95017
84 1 9.43453 6.28969 3.14484 -8.94963
85 1 11.0069 7.86218 4.71732 -8.95122
86 1 12.5794 6.28969 3.14485 -8.94973
87 1 14.1519 7.86202 4.71718 -8.94841
88 1 15.7242 6.28968 3.14484 -8.94959
89 1 17.2966 7.86211 4.71726 -8.94964
90 1 18.8691 6.28969 3.14484 -8.94963
91 1 20.4415 7.86211 4.71726 -8.94963
92 1 1.29996e-08 9.43453 3.14484 -8.94963
93 1 3.14484 9.43453 3.14484 -8.94964
94 1 6.28968 9.43453 3.14484 -8.94968
95 1 9.43449 9.43449 3.14481 -8.94904
96 1 12.5794 9.43449 3.14474 -8.9498
97 1 15.7242 9.43453 3.14485 -8.94972
98 1 18.8691 9.43453 3.14484 -8.94963
99 1 -2.77706e-10 4.11035e-16 6.28969 -8.94963
100 1 1.57242 1.57242 7.86211 -8.94963
101 1 3.14484 1.58944e-16 6.28969 -8.94963
102 1 4.71726 1.57242 7.86211 -8.94963
103 1 6.28969 -2.73259e-16 6.28969 -8.94963
104 1 7.86211 1.57242 7.86211 -8.94964
105 1 9.43453 7.40163e-17 6.28969 -8.94963
106 1 11.007 1.57242 7.86211 -8.94963
107 1 12.5794 1.36465e-16 6.28969 -8.94963
108 1 14.1518 1.57242 7.86211 -8.94963
109 1 15.7242 4.70871e-16 6.28969 -8.94963
110 1 17.2966 1.57242 7.86211 -8.94963
111 1 18.8691 -1.15237e-17 6.28969 -8.94963
112 1 20.4415 1.57242 7.86211 -8.94963
113 1 22.0139 3.14484 6.28969 -8.94963
114 1 1.57242 4.71726 7.86211 -8.94963
115 1 3.14484 3.14484 6.28969 -8.94964
116 1 4.71727 4.71727 7.86211 -8.94972
117 1 6.28968 3.14484 6.28968 -8.94962
118 1 7.86206 4.71718 7.86206 -8.94959
119 1 9.43453 3.14485 6.28969 -8.94964
120 1 11.007 4.71722 7.86206 -8.94908
121 1 12.5794 3.14484 6.28968 -8.94963
122 1 14.1518 4.71726 7.86211 -8.94967
123 1 15.7242 3.14484 6.28969 -8.94963
124 1 17.2966 4.71726 7.86211 -8.94964
125 1 18.8691 3.14484 6.28969 -8.94963
126 1 20.4415 4.71726 7.86211 -8.94963
127 1 -3.89297e-08 6.28969 6.28969 -8.94963
128 1 1.57242 7.86211 7.86211 -8.94964
129 1 3.14484 6.28969 6.28968 -8.94964
130 1 4.71719 7.86209 7.86209 -8.95013
131 1 6.28962 6.28961 6.28962 -8.94855
132 1 7.85938 7.86015 7.85968 -8.95454
133 1 9.43455 6.28974 6.28975 -8.95159
134 1 11.008 7.86204 7.86134 -8.98009
135 1 12.5794 6.28962 6.28967 -8.95007
136 1 14.1519 7.86204 7.86204 -8.94924
137 1 15.7242 6.28969 6.28968 -8.94967
138 1 17.2966 7.86211 7.86211 -8.94964
139 1 18.8691 6.28969 6.28969 -8.94963
140 1 20.4415 7.86211 7.86211 -8.94963
141 1 22.0139 9.43453 6.28969 -8.94963
142 1 3.14484 9.43453 6.28968 -8.94966
143 1 6.28951 9.43439 6.28952 -8.94846
144 1 9.43364 9.43411 6.28991 -8.98747
145 1 12.582 9.43187 6.28715 -8.91523
146 1 15.7243 9.43451 6.28967 -8.95009
147 1 18.8691 9.43453 6.28969 -8.94965
148 1 4.79071e-10 1.78619e-16 9.43453 -8.94963
149 1 3.14484 4.51248e-16 9.43453 -8.94963
150 1 6.28969 3.57661e-16 9.43453 -8.94963
151 1 9.43453 3.28673e-16 9.43453 -8.94967
152 1 12.5794 5.01517e-16 9.43453 -8.94963
153 1 15.7242 1.09197e-17 9.43453 -8.94963
154 1 18.8691 -2.15357e-17 9.43453 -8.94963
155 1 -1.24833e-09 3.14484 9.43453 -8.94963
156 1 3.14484 3.14484 9.43453 -8.94963
157 1 6.28969 3.14484 9.43453 -8.94964
158 1 9.43453 3.14476 9.43453 -8.95051
177 1 4.71726 1.57242 11.007 -8.94963
183 1 1.57242 4.71726 11.007 -8.94963
184 1 4.71727 4.71727 11.0069 -8.94971
5 1 6.28969 7.06438e-16 -2.70752e-10 -8.94963
41 1 18.8691 6.28969 3.44081e-09 -8.94963
7 1 9.43453 5.98678e-16 6.45041e-10 -8.94963
9 1 12.5794 8.9188e-16 -1.60838e-10 -8.94963
29 1 -4.03807e-11 6.28969 3.31583e-10 -8.94963
25 1 15.7242 3.14484 4.14414e-09 -8.94963
176 1 1.57242 1.57242 11.007 -8.94963
47 1 12.5794 9.43453 22.0139 -8.94965
178 1 7.86211 1.57242 11.007 -8.94965
179 1 11.007 1.57242 11.007 -8.94963
180 1 14.1518 1.57242 11.007 -8.94963
343 1 18.8691 9.43453 18.8691 -8.94963
182 1 20.4415 1.57242 11.007 -8.94963
45 1 6.28969 9.43453 22.0139 -8.94963
43 1 22.0139 9.43453 22.0139 -8.94963
185 1 7.86206 4.71717 11.007 -8.94966
186 1 11.007 4.71721 11.007 -8.94915
187 1 14.1518 4.71726 11.007 -8.94967
342 1 15.7242 9.43453 18.8691 -8.94963
341 1 12.5794 9.43453 18.8691 -8.94964
190 1 1.57242 7.86211 11.007 -8.94965
191 1 4.71721 7.86211 11.007 -8.95046
192 1 7.85964 7.85985 11.0097 -8.97209
193 1 11.0078 7.8617 11.0081 -8.99519
194 1 14.1519 7.86204 11.007 -8.94955
195 1 17.2966 7.86211 11.007 -8.94965
196 1 20.4415 7.86211 11.007 -8.94963
197 1 22.0139 1.81766e-16 12.5794 -8.94963
198 1 1.57242 1.57242 14.1518 -8.94963
199 1 3.14484 -1.13233e-18 12.5794 -8.94963
200 1 4.71726 1.57242 14.1518 -8.94963
201 1 6.28969 -2.13875e-17 12.5794 -8.94963
202 1 7.86211 1.57242 14.1518 -8.94963
203 1 9.43453 7.26582e-16 12.5794 -8.94963
204 1 11.007 1.57242 14.1518 -8.94963
205 1 12.5794 3.08991e-16 12.5794 -8.94963
206 1 14.1518 1.57242 14.1518 -8.94963
207 1 15.7242 -1.69525e-16 12.5794 -8.94963
208 1 17.2966 1.57242 14.1518 -8.94963
209 1 18.8691 -2.75859e-16 12.5794 -8.94963
210 1 20.4415 1.57242 14.1518 -8.94963
211 1 5.12595e-09 3.14484 12.5794 -8.94963
212 1 1.57242 4.71726 14.1518 -8.94963
213 1 3.14484 3.14484 12.5794 -8.94964
214 1 4.71726 4.71726 14.1518 -8.9496
215 1 6.28968 3.14484 12.5794 -8.94962
216 1 7.86211 4.71726 14.1518 -8.94973
217 1 9.43453 3.14484 12.5794 -8.94967
218 1 11.007 4.71726 14.1518 -8.94966
219 1 12.5794 3.14484 12.5794 -8.94963
220 1 14.1518 4.71726 14.1518 -8.94963
221 1 15.7242 3.14484 12.5794 -8.94963
222 1 17.2966 4.71726 14.1518 -8.94963
223 1 18.8691 3.14484 12.5794 -8.94963
224 1 20.4415 4.71726 14.1518 -8.94963
225 1 22.0139 6.28969 12.5794 -8.94963
226 1 1.57242 7.86211 14.1518 -8.94963
227 1 3.14484 6.28968 12.5794 -8.94964
228 1 4.71727 7.86212 14.1518 -8.94975
229 1 6.28961 6.28961 12.5795 -8.94853
230 1 7.86201 7.862 14.152 -8.94928
231 1 9.43455 6.28964 12.5793 -8.95169
232 1 11.007 7.86206 14.1519 -8.95031
233 1 12.5794 6.28961 12.5794 -8.95003
234 1 14.1519 7.86204 14.1519 -8.94855
235 1 15.7242 6.28969 12.5794 -8.94967
236 1 17.2966 7.86211 14.1518 -8.94963
237 1 18.8691 6.28969 12.5794 -8.94963
238 1 20.4415 7.86211 14.1518 -8.94963
239 1 -7.1053e-08 9.43453 12.5794 -8.94963
240 1 3.14484 9.43452 12.5794 -8.94939
241 1 6.29004 9.43429 12.5793 -8.98933
242 1 9.4337 9.43155 12.583 -8.97666
243 1 12.5815 9.43178 12.5816 -8.95466
244 1 15.7243 9.4345 12.5794 -8.94983
245 1 18.8691 9.43453 12.5794 -8.94964
246 1 22.0139 1.8818e-16 15.7242 -8.94963
247 1 1.57242 1.57242 17.2966 -8.94963
248 1 3.14484 -2.67763e-16 15.7242 -8.94963
249 1 4.71726 1.57242 17.2966 -8.94963
250 1 6.28969 -2.1149e-16 15.7242 -8.94963
251 1 7.86211 1.57242 17.2966 -8.94963
252 1 9.43453 6.13894e-16 15.7242 -8.94963
253 1 11.007 1.57242 17.2966 -8.94963
254 1 12.5794 1.63568e-16 15.7242 -8.94963
255 1 14.1518 1.57242 17.2966 -8.94963
256 1 15.7242 2.5464e-16 15.7242 -8.94963
257 1 17.2966 1.57242 17.2966 -8.94963
258 1 18.8691 3.84003e-17 15.7242 -8.94963
259 1 20.4415 1.57242 17.2966 -8.94963
260 1 22.0139 3.14484 15.7242 -8.94963
261 1 1.57242 4.71726 17.2966 -8.94963
262 1 3.14484 3.14484 15.7242 -8.94963
263 1 4.71726 4.71726 17.2966 -8.94963
264 1 6.28969 3.14484 15.7242 -8.94964
265 1 7.86211 4.71726 17.2966 -8.94964
266 1 9.43453 3.14484 15.7242 -8.94963
267 1 11.007 4.71726 17.2966 -8.94964
268 1 12.5794 3.14484 15.7242 -8.94963
269 1 14.1518 4.71726 17.2966 -8.94963
270 1 15.7242 3.14484 15.7242 -8.94963
271 1 17.2966 4.71726 17.2966 -8.94963
272 1 18.8691 3.14484 15.7242 -8.94963
273 1 20.4415 4.71726 17.2966 -8.94963
274 1 1.3047e-08 6.28969 15.7242 -8.94963
275 1 1.57242 7.86211 17.2966 -8.94963
276 1 3.14484 6.28969 15.7242 -8.94964
277 1 4.71727 7.86211 17.2966 -8.94964
278 1 6.28968 6.28968 15.7242 -8.94959
279 1 7.8621 7.8621 17.2966 -8.94964
280 1 9.43453 6.28969 15.7242 -8.94969
281 1 11.007 7.86211 17.2966 -8.94965
282 1 12.5794 6.28969 15.7242 -8.94968
283 1 14.1518 7.86211 17.2966 -8.94964
284 1 15.7242 6.28968 15.7242 -8.9496
285 1 17.2966 7.86211 17.2966 -8.94964
286 1 18.8691 6.28969 15.7242 -8.94963
287 1 20.4415 7.86211 17.2966 -8.94963
288 1 22.0139 9.43453 15.7242 -8.94963
289 1 3.14484 9.43453 15.7242 -8.94964
290 1 6.28971 9.43455 15.7242 -8.94986
291 1 9.43449 9.4345 15.7243 -8.95021
292 1 12.5794 9.43451 15.7243 -8.95
293 1 15.7242 9.43453 15.7242 -8.94971
294 1 18.8691 9.43453 15.7242 -8.94963
295 1 6.53553e-12 2.80461e-16 18.8691 -8.94963
296 1 1.57242 1.57242 20.4415 -8.94963
297 1 3.14484 4.67456e-16 18.8691 -8.94963
298 1 4.71726 1.57242 20.4415 -8.94963
299 1 6.28969 2.52506e-16 18.8691 -8.94963
300 1 7.86211 1.57242 20.4415 -8.94963
301 1 9.43453 6.12814e-16 18.8691 -8.94963
302 1 11.007 1.57242 20.4415 -8.94963
303 1 12.5794 3.46811e-16 18.8691 -8.94963
304 1 14.1518 1.57242 20.4415 -8.94963
305 1 15.7242 4.21902e-16 18.8691 -8.94963
306 1 17.2966 1.57242 20.4415 -8.94963
307 1 18.8691 8.06297e-16 18.8691 -8.94963
308 1 20.4415 1.57242 20.4415 -8.94963
309 1 1.64964e-10 3.14484 18.8691 -8.94963
310 1 1.57242 4.71726 20.4415 -8.94963
311 1 3.14484 3.14484 18.8691 -8.94963
312 1 4.71726 4.71726 20.4415 -8.94963
313 1 6.28969 3.14484 18.8691 -8.94963
314 1 7.86211 4.71726 20.4415 -8.94963
315 1 9.43453 3.14484 18.8691 -8.94963
316 1 11.007 4.71726 20.4415 -8.94963
317 1 12.5794 3.14484 18.8691 -8.94963
318 1 14.1518 4.71726 20.4415 -8.94963
319 1 15.7242 3.14484 18.8691 -8.94963
320 1 17.2966 4.71726 20.4415 -8.94963
321 1 18.8691 3.14484 18.8691 -8.94963
322 1 20.4415 4.71726 20.4415 -8.94963
323 1 22.0139 6.28969 18.8691 -8.94963
324 1 1.57242 7.86211 20.4415 -8.94963
325 1 3.14484 6.28969 18.8691 -8.94963
326 1 4.71726 7.86211 20.4415 -8.94963
327 1 6.28969 6.28969 18.8691 -8.94963
328 1 7.86211 7.86211 20.4415 -8.94963
329 1 9.43453 6.28969 18.8691 -8.94963
330 1 11.007 7.86211 20.4415 -8.94963
331 1 12.5794 6.28969 18.8691 -8.94963
332 1 14.1518 7.86211 20.4415 -8.94963
333 1 15.7242 6.28969 18.8691 -8.94963
334 1 17.2966 7.86211 20.4415 -8.94963
335 1 18.8691 6.28969 18.8691 -8.94963
336 1 20.4415 7.86211 20.4415 -8.94963
337 1 -5.02331e-10 9.43453 18.8691 -8.94963
338 1 3.14484 9.43453 18.8691 -8.94963
339 1 6.28969 9.43453 18.8691 -8.94963
340 1 9.43453 9.43453 18.8691 -8.94966
39 1 15.7242 6.28969 22.0139 -8.94963
31 1 3.14484 6.28969 22.0139 -8.94963
27 1 18.8691 3.14484 22.0139 -8.94963
11 1 15.7242 6.68238e-16 22.0139 -8.94963
15 1 22.0139 3.14484 22.0139 -8.94963
19 1 6.28969 3.14484 22.0139 -8.94963
23 1 12.5794 3.14484 22.0139 -8.94963
3 1 3.14484 1.62253e-16 22.0139 -8.94963
13 1 18.8691 3.68019e-16 22.0139 -8.94963
46 1 9.43453 9.43453 22.0139 -8.94963
49 1 18.8691 9.43453 22.0139 -8.94963
344 1 1.57242 11.007 1.57242 -8.94963
345 1 4.71726 11.007 1.57242 -8.94963
346 1 7.86211 11.007 1.57242 -8.94969
347 1 11.0069 11.007 1.57235 -8.95042
348 1 14.1518 11.007 1.57242 -8.94963
349 1 17.2966 11.007 1.57242 -8.94963
350 1 20.4415 11.007 1.57242 -8.94963
688 3 10.22 11.007 9.43572 3.46809
352 1 1.57242 14.1518 1.57242 -8.94963
353 1 3.14484 12.5794 1.35886e-08 -8.94963
354 1 4.71726 14.1518 1.57242 -8.94963
687 2 9.43617 11.007 10.2206 0.573996
356 1 7.86211 14.1518 1.57242 -8.94963
538 1 17.2966 20.4415 11.007 -8.94963
358 1 11.0069 14.1518 1.57242 -8.94964
511 1 18.8691 18.8691 9.43453 -8.94963
360 1 14.1518 14.1518 1.57242 -8.94962
361 1 15.7242 12.5794 1.46921e-07 -8.94963
362 1 17.2966 14.1518 1.57242 -8.94964
532 1 20.4415 17.2966 11.007 -8.94963
364 1 20.4415 14.1518 1.57242 -8.94963
510 1 15.7242 18.8691 9.43453 -8.94963
366 1 1.57242 17.2966 1.57242 -8.94963
509 1 12.5794 18.8691 9.43453 -8.94967
368 1 4.71726 17.2966 1.57242 -8.94963
369 1 6.28969 15.7242 -2.9508e-08 -8.94963
370 1 7.86211 17.2966 1.57242 -8.94963
371 1 9.43453 15.7242 8.0092e-08 -8.94963
372 1 11.007 17.2966 1.57242 -8.94963
373 1 12.5794 15.7242 1.88166e-07 -8.94963
374 1 14.1518 17.2966 1.57242 -8.94964
508 1 9.43453 18.8691 9.43453 -8.95051
376 1 17.2966 17.2966 1.57242 -8.94963
507 1 6.28969 18.8691 9.43453 -8.94964
378 1 20.4415 17.2966 1.57242 -8.94963
506 1 3.14484 18.8691 9.43453 -8.94963
380 1 1.57242 20.4415 1.57242 -8.94963
381 1 3.14484 18.8691 -3.28061e-10 -8.94963
382 1 4.71726 20.4415 1.57242 -8.94963
505 1 -1.24833e-09 18.8691 9.43453 -8.94963
384 1 7.86211 20.4415 1.57242 -8.94963
385 1 9.43453 18.8691 -2.98398e-09 -8.94963
386 1 11.007 20.4415 1.57242 -8.94963
504 1 18.8691 15.7242 9.43453 -8.94963
388 1 14.1518 20.4415 1.57242 -8.94963
503 1 15.7242 15.7242 9.43453 -8.94969
390 1 17.2966 20.4415 1.57242 -8.94963
502 1 12.5793 15.7242 9.43453 -8.95134
392 1 20.4415 20.4415 1.57242 -8.94963
393 1 1.57242 11.007 4.71726 -8.94963
394 1 4.71728 11.007 4.71728 -8.94973
395 1 7.86215 11.007 4.71715 -8.95188
396 1 11.007 11.007 4.71429 -8.96782
397 1 14.1517 11.007 4.7173 -8.95152
398 1 17.2966 11.007 4.71726 -8.94962
399 1 20.4415 11.007 4.71726 -8.94963
400 1 1.29996e-08 12.5794 3.14484 -8.94963
401 1 1.57242 14.1518 4.71726 -8.94963
402 1 3.14484 12.5794 3.14484 -8.94964
403 1 4.71726 14.1518 4.71726 -8.94963
404 1 6.28968 12.5794 3.14484 -8.94968
405 1 7.8621 14.1518 4.71721 -8.95017
406 1 9.43449 12.5794 3.14481 -8.94904
407 1 11.0069 14.1517 4.71732 -8.95122
408 1 12.5794 12.5794 3.14474 -8.9498
409 1 14.1519 14.1519 4.71718 -8.94841
410 1 15.7242 12.5794 3.14485 -8.94972
411 1 17.2966 14.1518 4.71726 -8.94964
412 1 18.8691 12.5794 3.14484 -8.94963
413 1 20.4415 14.1518 4.71726 -8.94963
414 1 22.0139 15.7242 3.14484 -8.94963
415 1 1.57242 17.2966 4.71726 -8.94963
416 1 3.14484 15.7242 3.14484 -8.94963
417 1 4.71726 17.2966 4.71726 -8.9496
418 1 6.28969 15.7242 3.14484 -8.94964
419 1 7.86211 17.2966 4.71727 -8.94972
420 1 9.43453 15.7242 3.14484 -8.94963
421 1 11.0069 17.2966 4.71726 -8.94964
422 1 12.5794 15.7242 3.14485 -8.94973
423 1 14.1518 17.2966 4.71726 -8.94964
424 1 15.7242 15.7242 3.14484 -8.94959
425 1 17.2966 17.2966 4.71726 -8.94963
426 1 18.8691 15.7242 3.14484 -8.94963
427 1 20.4415 17.2966 4.71726 -8.94963
428 1 -8.70161e-10 18.8691 3.14484 -8.94963
429 1 1.57242 20.4415 4.71726 -8.94963
430 1 3.14484 18.8691 3.14484 -8.94963
431 1 4.71726 20.4415 4.71726 -8.94963
432 1 6.28969 18.8691 3.14484 -8.94964
433 1 7.86211 20.4415 4.71726 -8.94963
434 1 9.43453 18.8691 3.14484 -8.94963
435 1 11.007 20.4415 4.71726 -8.94963
436 1 12.5794 18.8691 3.14484 -8.94963
437 1 14.1518 20.4415 4.71726 -8.94963
438 1 15.7242 18.8691 3.14484 -8.94963
439 1 17.2966 20.4415 4.71726 -8.94963
440 1 18.8691 18.8691 3.14484 -8.94963
441 1 20.4415 20.4415 4.71726 -8.94963
442 1 1.57242 11.007 7.86211 -8.94968
443 1 4.71708 11.007 7.86206 -8.95079
444 1 7.85677 11.007 7.85636 -8.94608
445 1 11.0551 11.007 7.76357 -8.03279
446 1 14.1534 11.007 7.8619 -8.95981
447 1 17.2967 11.007 7.86211 -8.95003
448 1 20.4415 11.007 7.86211 -8.94964
449 1 22.0139 12.5794 6.28969 -8.94963
450 1 1.57242 14.1518 7.86211 -8.94964
451 1 3.14484 12.5794 6.28968 -8.94966
452 1 4.71719 14.1518 7.86209 -8.95013
453 1 6.28951 12.5795 6.28952 -8.94846
454 1 7.85938 14.1538 7.85968 -8.95454
455 1 9.43364 12.5798 6.28991 -8.98747
456 1 11.008 14.1519 7.86134 -8.98009
457 1 12.582 12.582 6.28715 -8.91523
458 1 14.1519 14.1519 7.86204 -8.94924
459 1 15.7243 12.5794 6.28967 -8.95009
460 1 17.2966 14.1518 7.86211 -8.94964
461 1 18.8691 12.5794 6.28969 -8.94965
462 1 20.4415 14.1518 7.86211 -8.94963
463 1 -3.89297e-08 15.7242 6.28969 -8.94963
464 1 1.57242 17.2966 7.86211 -8.94963
465 1 3.14484 15.7242 6.28968 -8.94964
466 1 4.71727 17.2966 7.86211 -8.94972
467 1 6.28962 15.7243 6.28962 -8.94855
468 1 7.86206 17.2967 7.86206 -8.94959
469 1 9.43455 15.7242 6.28975 -8.95159
470 1 11.007 17.2967 7.86206 -8.94908
471 1 12.5794 15.7243 6.28967 -8.95007
472 1 14.1518 17.2966 7.86211 -8.94967
473 1 15.7242 15.7242 6.28968 -8.94967
474 1 17.2966 17.2966 7.86211 -8.94964
475 1 18.8691 15.7242 6.28969 -8.94963
476 1 20.4415 17.2966 7.86211 -8.94963
477 1 22.0139 18.8691 6.28969 -8.94963
478 1 1.57242 20.4415 7.86211 -8.94963
479 1 3.14484 18.8691 6.28969 -8.94964
480 1 4.71726 20.4415 7.86211 -8.94963
481 1 6.28968 18.8691 6.28968 -8.94962
482 1 7.86211 20.4415 7.86211 -8.94964
483 1 9.43453 18.8691 6.28969 -8.94964
484 1 11.007 20.4415 7.86211 -8.94963
485 1 12.5794 18.8691 6.28968 -8.94963
486 1 14.1518 20.4415 7.86211 -8.94963
487 1 15.7242 18.8691 6.28969 -8.94963
488 1 17.2966 20.4415 7.86211 -8.94963
489 1 18.8691 18.8691 6.28969 -8.94963
490 1 20.4415 20.4415 7.86211 -8.94963
491 1 22.0139 12.5794 9.43453 -8.94964
492 1 3.1448 12.5794 9.43452 -8.94981
493 1 6.28837 12.5795 9.43429 -9.01436
494 1 9.38976 12.6903 9.42578 -8.26129
495 1 12.5825 12.582 9.43434 -8.96779
496 1 15.7243 12.5794 9.43452 -8.94992
497 1 18.8691 12.5794 9.43453 -8.94966
498 1 22.0139 15.7242 9.43453 -8.94963
499 1 3.14484 15.7242 9.43453 -8.94963
500 1 6.28972 15.7242 9.43453 -8.95182
501 1 9.43449 15.7275 9.43457 -8.96952
513 1 4.7164 11.007 11.0069 -8.95539
531 1 17.2966 17.2966 11.007 -8.94964
526 1 1.57242 17.2966 11.007 -8.94963
527 1 4.71727 17.2966 11.0069 -8.94971
389 1 15.7242 18.8691 4.14414e-09 -8.94963
534 1 4.71726 20.4415 11.007 -8.94963
365 1 -4.03805e-11 15.7242 3.31582e-10 -8.94963
377 1 18.8691 15.7242 3.44081e-09 -8.94963
512 1 1.5724 11.007 11.007 -8.94986
686 1 20.4415 20.4415 20.4415 -8.94963
514 1 7.83871 11.007 11.0196 -9.20088
515 1 11.0695 11.007 11.1091 -8.25529
685 1 18.8691 18.8691 18.8691 -8.94963
517 1 17.2967 11.007 11.007 -8.9502
518 1 20.4415 11.007 11.007 -8.94965
519 1 1.57242 14.1518 11.007 -8.94965
520 1 4.71721 14.1518 11.007 -8.95046
521 1 7.85964 14.1541 11.0097 -8.97209
522 1 11.0078 14.1522 11.0081 -8.99519
523 1 14.1519 14.1519 11.007 -8.94955
524 1 17.2966 14.1518 11.007 -8.94965
525 1 20.4415 14.1518 11.007 -8.94963
391 1 18.8691 18.8691 22.0139 -8.94963
387 1 12.5794 18.8691 22.0139 -8.94963
528 1 7.86206 17.2967 11.007 -8.94966
529 1 11.007 17.2967 11.007 -8.94915
530 1 14.1518 17.2966 11.007 -8.94967
684 1 17.2966 20.4415 20.4415 -8.94963
683 1 15.7242 18.8691 18.8691 -8.94963
533 1 1.57242 20.4415 11.007 -8.94963
383 1 6.28969 18.8691 22.0139 -8.94963
535 1 7.86211 20.4415 11.007 -8.94965
536 1 11.007 20.4415 11.007 -8.94963
537 1 14.1518 20.4415 11.007 -8.94963
682 1 14.1518 20.4415 20.4415 -8.94963
539 1 20.4415 20.4415 11.007 -8.94963
540 1 1.57242 11.007 14.1518 -8.94963
541 1 4.71733 11.007 14.1517 -8.95026
542 1 7.86267 11.007 14.1511 -8.99884
543 1 11.0065 11.007 14.1538 -9.01329
544 1 14.1517 11.007 14.1517 -8.95199
545 1 17.2966 11.007 14.1518 -8.94963
546 1 20.4415 11.007 14.1518 -8.94963
547 1 -7.1053e-08 12.5794 12.5794 -8.94963
548 1 1.57242 14.1518 14.1518 -8.94963
549 1 3.14484 12.5794 12.5794 -8.94939
550 1 4.71727 14.1518 14.1518 -8.94975
551 1 6.29004 12.5796 12.5793 -8.98933
552 1 7.86201 14.1519 14.152 -8.94928
553 1 9.4337 12.5824 12.583 -8.97666
554 1 11.007 14.1518 14.1519 -8.95031
555 1 12.5815 12.5821 12.5816 -8.95466
556 1 14.1519 14.1519 14.1519 -8.94855
557 1 15.7243 12.5794 12.5794 -8.94983
558 1 17.2966 14.1518 14.1518 -8.94963
559 1 18.8691 12.5794 12.5794 -8.94964
560 1 20.4415 14.1518 14.1518 -8.94963
561 1 22.0139 15.7242 12.5794 -8.94963
562 1 1.57242 17.2966 14.1518 -8.94963
563 1 3.14484 15.7242 12.5794 -8.94964
564 1 4.71726 17.2966 14.1518 -8.9496
565 1 6.28961 15.7243 12.5795 -8.94853
566 1 7.86211 17.2966 14.1518 -8.94973
567 1 9.43455 15.7243 12.5793 -8.95169
568 1 11.007 17.2966 14.1518 -8.94966
569 1 12.5794 15.7243 12.5794 -8.95003
570 1 14.1518 17.2966 14.1518 -8.94963
571 1 15.7242 15.7242 12.5794 -8.94967
572 1 17.2966 17.2966 14.1518 -8.94963
573 1 18.8691 15.7242 12.5794 -8.94963
574 1 20.4415 17.2966 14.1518 -8.94963
575 1 5.12595e-09 18.8691 12.5794 -8.94963
576 1 1.57242 20.4415 14.1518 -8.94963
577 1 3.14484 18.8691 12.5794 -8.94964
578 1 4.71726 20.4415 14.1518 -8.94963
579 1 6.28968 18.8691 12.5794 -8.94962
580 1 7.86211 20.4415 14.1518 -8.94963
581 1 9.43453 18.8691 12.5794 -8.94967
582 1 11.007 20.4415 14.1518 -8.94963
583 1 12.5794 18.8691 12.5794 -8.94963
584 1 14.1518 20.4415 14.1518 -8.94963
585 1 15.7242 18.8691 12.5794 -8.94963
586 1 17.2966 20.4415 14.1518 -8.94963
587 1 18.8691 18.8691 12.5794 -8.94963
588 1 20.4415 20.4415 14.1518 -8.94963
589 1 1.57242 11.007 17.2966 -8.94963
590 1 4.71726 11.007 17.2966 -8.94961
591 1 7.86211 11.007 17.2966 -8.94944
592 1 11.007 11.007 17.2967 -8.95012
593 1 14.1518 11.007 17.2966 -8.94962
594 1 17.2966 11.007 17.2966 -8.94963
595 1 20.4415 11.007 17.2966 -8.94963
596 1 22.0139 12.5794 15.7242 -8.94963
597 1 1.57242 14.1518 17.2966 -8.94963
598 1 3.14484 12.5794 15.7242 -8.94964
599 1 4.71727 14.1518 17.2966 -8.94964
600 1 6.28971 12.5794 15.7242 -8.94986
601 1 7.8621 14.1518 17.2966 -8.94964
602 1 9.43449 12.5794 15.7243 -8.95021
603 1 11.007 14.1518 17.2966 -8.94965
604 1 12.5794 12.5794 15.7243 -8.95
605 1 14.1518 14.1518 17.2966 -8.94964
606 1 15.7242 12.5794 15.7242 -8.94971
607 1 17.2966 14.1518 17.2966 -8.94964
608 1 18.8691 12.5794 15.7242 -8.94963
609 1 20.4415 14.1518 17.2966 -8.94963
610 1 1.3047e-08 15.7242 15.7242 -8.94963
611 1 1.57242 17.2966 17.2966 -8.94963
612 1 3.14484 15.7242 15.7242 -8.94964
613 1 4.71726 17.2966 17.2966 -8.94963
614 1 6.28968 15.7242 15.7242 -8.94959
615 1 7.86211 17.2966 17.2966 -8.94964
616 1 9.43453 15.7242 15.7242 -8.94969
617 1 11.007 17.2966 17.2966 -8.94964
618 1 12.5794 15.7242 15.7242 -8.94968
619 1 14.1518 17.2966 17.2966 -8.94963
620 1 15.7242 15.7242 15.7242 -8.9496
621 1 17.2966 17.2966 17.2966 -8.94963
622 1 18.8691 15.7242 15.7242 -8.94963
623 1 20.4415 17.2966 17.2966 -8.94963
624 1 22.0139 18.8691 15.7242 -8.94963
625 1 1.57242 20.4415 17.2966 -8.94963
626 1 3.14484 18.8691 15.7242 -8.94963
627 1 4.71726 20.4415 17.2966 -8.94963
628 1 6.28969 18.8691 15.7242 -8.94964
629 1 7.86211 20.4415 17.2966 -8.94963
630 1 9.43453 18.8691 15.7242 -8.94963
631 1 11.007 20.4415 17.2966 -8.94963
632 1 12.5794 18.8691 15.7242 -8.94963
633 1 14.1518 20.4415 17.2966 -8.94963
634 1 15.7242 18.8691 15.7242 -8.94963
635 1 17.2966 20.4415 17.2966 -8.94963
636 1 18.8691 18.8691 15.7242 -8.94963
637 1 20.4415 20.4415 17.2966 -8.94963
638 1 1.57242 11.007 20.4415 -8.94963
639 1 4.71726 11.007 20.4415 -8.94963
640 1 7.86211 11.007 20.4415 -8.94963
641 1 11.007 11.007 20.4415 -8.94966
642 1 14.1518 11.007 20.4415 -8.94963
643 1 17.2966 11.007 20.4415 -8.94963
644 1 20.4415 11.007 20.4415 -8.94963
645 1 -5.02331e-10 12.5794 18.8691 -8.94963
646 1 1.57242 14.1518 20.4415 -8.94963
647 1 3.14484 12.5794 18.8691 -8.94963
648 1 4.71726 14.1518 20.4415 -8.94963
649 1 6.28969 12.5794 18.8691 -8.94963
650 1 7.86211 14.1518 20.4415 -8.94963
651 1 9.43453 12.5794 18.8691 -8.94966
652 1 11.007 14.1518 20.4415 -8.94963
653 1 12.5794 12.5794 18.8691 -8.94964
654 1 14.1518 14.1518 20.4415 -8.94963
655 1 15.7242 12.5794 18.8691 -8.94963
656 1 17.2966 14.1518 20.4415 -8.94963
657 1 18.8691 12.5794 18.8691 -8.94963
658 1 20.4415 14.1518 20.4415 -8.94963
659 1 22.0139 15.7242 18.8691 -8.94963
660 1 1.57242 17.2966 20.4415 -8.94963
661 1 3.14484 15.7242 18.8691 -8.94963
662 1 4.71726 17.2966 20.4415 -8.94963
663 1 6.28969 15.7242 18.8691 -8.94963
664 1 7.86211 17.2966 20.4415 -8.94963
665 1 9.43453 15.7242 18.8691 -8.94963
666 1 11.007 17.2966 20.4415 -8.94963
667 1 12.5794 15.7242 18.8691 -8.94963
668 1 14.1518 17.2966 20.4415 -8.94963
669 1 15.7242 15.7242 18.8691 -8.94963
670 1 17.2966 17.2966 20.4415 -8.94963
671 1 18.8691 15.7242 18.8691 -8.94963
672 1 20.4415 17.2966 20.4415 -8.94963
673 1 1.64964e-10 18.8691 18.8691 -8.94963
674 1 1.57242 20.4415 20.4415 -8.94963
675 1 3.14484 18.8691 18.8691 -8.94963
676 1 4.71726 20.4415 20.4415 -8.94963
677 1 6.28969 18.8691 18.8691 -8.94963
678 1 7.86211 20.4415 20.4415 -8.94963
679 1 9.43453 18.8691 18.8691 -8.94963
680 1 11.007 20.4415 20.4415 -8.94963
681 1 12.5794 18.8691 18.8691 -8.94963
351 1 22.0139 12.5794 22.0139 -8.94963
355 1 6.28969 12.5794 22.0139 -8.94963
359 1 12.5794 12.5794 22.0139 -8.94965
379 1 22.0139 18.8691 22.0139 -8.94963
367 1 3.14484 15.7242 22.0139 -8.94963
375 1 15.7242 15.7242 22.0139 -8.94963
357 1 9.43453 12.5794 22.0139 -8.94963
363 1 18.8691 12.5794 22.0139 -8.94963
516 1 14.154 11.007 11.0071 -8.96239
