ITEM: TIMESTEP
82
ITEM: NUMBER OF ATOMS
688
ITEM: BOX BOUNDS pp pp pp
0.0000000000000000e+00 2.2013900999999997e+01
0.0000000000000000e+00 2.2013900999999997e+01
0.0000000000000000e+00 2.2013900999999997e+01
ITEM: ATOMS id type x y z c_pot
1 1 -0.000113573 -9.69742e-16 -0.000105358 -8.94936
2 1 1.57202 1.57217 1.57203 -8.94922
189 1 20.4414 4.7167 11.007 -8.94955
4 1 4.71701 1.5721 1.57198 -8.94966
175 1 18.8695 9.43416 9.4345 -8.94787
6 1 7.86203 1.57209 1.57198 -8.9495
174 1 15.7225 9.43494 9.4344 -8.94013
8 1 11.007 1.57207 1.57199 -8.94954
173 1 12.5588 9.44347 9.43154 -8.95903
10 1 14.152 1.57207 1.57206 -8.94952
172 1 9.35757 9.1845 9.42741 -8.34148
12 1 17.297 1.57201 1.57204 -8.94947
188 1 17.2975 4.71633 11.0069 -8.94897
14 1 20.4415 1.57225 1.57228 -8.9496
171 1 6.27622 9.42527 9.43209 -9.02124
16 1 1.57208 4.71701 1.57195 -8.94979
17 1 3.14446 3.14446 -0.000388917 -8.94951
18 1 4.71625 4.71629 1.57088 -8.94952
170 1 3.13964 9.43394 9.43362 -8.95017
20 1 7.86178 4.71637 1.57122 -8.94914
21 1 9.43447 3.14438 -0.000323132 -8.94953
22 1 11.007 4.71625 1.57129 -8.94937
169 1 22.0125 9.43437 9.43435 -8.94969
24 1 14.1523 4.71612 1.57124 -8.94974
168 1 18.8697 6.28882 9.43451 -8.94953
26 1 17.2979 4.71601 1.57131 -8.94822
167 1 15.7261 6.28775 9.43442 -8.94618
28 1 20.4418 4.71691 1.57206 -8.94955
166 1 12.5778 6.29151 9.43451 -8.94555
30 1 1.57215 7.86202 1.57195 -8.94943
165 1 9.42954 6.29181 9.43448 -9.00861
32 1 4.71679 7.86224 1.57154 -8.9497
33 1 6.28926 6.28934 -0.000841791 -8.95063
34 1 7.86177 7.86188 1.57031 -8.95241
35 1 9.43423 6.289 -0.000806606 -8.94961
36 1 11.0066 7.86114 1.56983 -8.95052
37 1 12.5794 6.28898 -0.000875284 -8.9497
38 1 14.1535 7.86052 1.56881 -8.95158
164 1 6.27888 6.27957 9.43448 -8.94312
40 1 17.298 7.8614 1.57119 -8.94922
163 1 3.14026 6.28715 9.43446 -8.94916
42 1 20.4419 7.8619 1.57199 -8.94947
162 1 22.0128 6.28896 9.4345 -8.94992
44 1 3.14449 9.4345 -0.000356618 -8.94957
161 1 18.8693 3.14437 9.43452 -8.94958
181 1 17.297 1.57211 11.007 -8.94956
160 1 15.7249 3.14398 9.43448 -8.94961
48 1 15.7252 9.43417 -0.00112015 -8.94938
159 1 12.5796 3.1445 9.43446 -8.9483
50 1 22.0137 1.00585e-16 3.14469 -8.94959
51 1 1.57192 1.57208 4.71694 -8.94954
52 1 3.14431 -6.81615e-16 3.14429 -8.94957
53 1 4.71643 1.57138 4.71636 -8.95002
54 1 6.28954 -5.44395e-16 3.14434 -8.94959
55 1 7.86206 1.57153 4.71656 -8.94963
56 1 9.43458 7.14967e-16 3.14432 -8.94955
57 1 11.0072 1.57158 4.71661 -8.94958
58 1 12.5796 1.78084e-15 3.1444 -8.94952
59 1 14.1523 1.57149 4.71689 -8.95064
60 1 15.7246 1.78908e-15 3.14451 -8.95
61 1 17.2969 1.57215 4.71725 -8.94972
62 1 18.8691 9.47095e-16 3.14479 -8.94971
63 1 20.4414 1.57225 4.71717 -8.94955
64 1 -0.000393387 3.14447 3.14447 -8.94954
65 1 1.57092 4.71629 4.71625 -8.94957
66 1 3.14359 3.1437 3.14356 -8.94825
67 1 4.71319 4.71328 4.71316 -8.9446
68 1 6.28918 3.1437 3.14371 -8.94966
69 1 7.86108 4.71415 4.71479 -8.94914
70 1 9.4345 3.14371 3.14384 -8.94937
71 1 11.0074 4.71438 4.71501 -8.94785
72 1 12.5797 3.14364 3.14395 -8.94918
73 1 14.1547 4.71264 4.71453 -8.94975
74 1 15.7253 3.14324 3.14382 -8.94938
75 1 17.2977 4.71622 4.71691 -8.95031
76 1 18.8694 3.14439 3.14461 -8.94981
77 1 20.4414 4.71683 4.71701 -8.94979
78 1 22.0139 6.28943 3.14439 -8.94981
79 1 1.57148 7.86201 4.7165 -8.94982
80 1 3.14373 6.28924 3.14366 -8.95019
81 1 4.71456 7.86168 4.71496 -8.95108
82 1 6.28707 6.28724 3.14042 -8.95012
83 1 7.85625 7.85631 4.70715 -8.95414
84 1 9.43398 6.28749 3.14185 -8.94768
85 1 11.0074 7.85763 4.70879 -8.95212
86 1 12.5804 6.28725 3.14147 -8.94946
87 1 14.165 7.84983 4.70437 -8.92876
88 1 15.7283 6.28561 3.14086 -8.94433
89 1 17.3008 7.86008 4.71523 -8.95087
90 1 18.8705 6.28876 3.14396 -8.94966
91 1 20.4422 7.86173 4.71676 -8.9502
92 1 -2.17258e-05 9.43441 3.14425 -8.94954
93 1 3.14391 9.43447 3.14371 -8.94893
94 1 6.28909 9.43524 3.14349 -8.94945
95 1 9.43508 9.43461 3.14354 -8.95084
96 1 12.5824 9.43319 3.13644 -8.95963
97 1 15.7279 9.43317 3.14117 -8.94754
98 1 18.8705 9.43418 3.14385 -8.94928
99 1 -0.000222301 2.80944e-16 6.28959 -8.94958
100 1 1.57187 1.57205 7.86199 -8.94954
101 1 3.14422 -9.53253e-16 6.28936 -8.94946
102 1 4.71626 1.5713 7.86173 -8.94944
103 1 6.28931 -6.51271e-16 6.28921 -8.95063
104 1 7.86198 1.5709 7.86194 -8.95123
105 1 9.43478 1.66127e-15 6.2893 -8.95011
106 1 11.0071 1.57186 7.86216 -8.94944
107 1 12.5796 1.77343e-15 6.28961 -8.95043
108 1 14.1521 1.57203 7.8622 -8.9494
109 1 15.7245 1.8558e-15 6.28972 -8.94955
110 1 17.297 1.57211 7.86208 -8.94956
111 1 18.8692 1.78326e-15 6.28964 -8.94956
112 1 20.4414 1.57222 7.86206 -8.94958
113 1 22.0135 3.14438 6.28947 -8.94949
114 1 1.57084 4.71617 7.86172 -8.94934
115 1 3.1435 3.14355 6.28895 -8.94927
116 1 4.71355 4.71357 7.86066 -8.94784
117 1 6.28807 3.14134 6.28809 -8.95157
118 1 7.85904 4.70974 7.86056 -8.95837
119 1 9.43476 3.14242 6.28869 -8.95039
120 1 11.0067 4.71565 7.8618 -8.95149
121 1 12.5798 3.14256 6.28932 -8.95255
122 1 14.1524 4.7163 7.86278 -8.94905
123 1 15.7247 3.1441 6.28986 -8.94965
124 1 17.2974 4.71634 7.86209 -8.94894
125 1 18.8693 3.14443 6.28962 -8.94942
126 1 20.4414 4.7167 7.862 -8.94955
127 1 -0.00102443 6.28909 6.2892 -8.95008
128 1 1.5693 7.86134 7.8614 -8.95152
129 1 3.14036 6.28739 6.28734 -8.95045
130 1 4.70553 7.85761 7.8586 -8.95734
131 1 6.27673 6.27734 6.27752 -8.92997
132 1 7.81886 7.82781 7.82815 -8.88345
133 1 9.43364 6.28196 6.28507 -8.95159
134 1 11.0249 7.85479 7.83682 -8.9434
135 1 12.5861 6.27885 6.28268 -8.95283
136 1 14.1563 7.86091 7.86406 -8.95298
137 1 15.7267 6.28788 6.28947 -8.95149
138 1 17.2984 7.86141 7.86274 -8.94997
139 1 18.8698 6.2891 6.28967 -8.94982
140 1 20.4414 7.86168 7.86203 -8.94996
141 1 22.0135 9.43449 6.28921 -8.94996
142 1 3.14245 9.43503 6.28844 -8.9501
143 1 6.28402 9.43661 6.28674 -8.95118
144 1 9.41948 9.41321 6.28442 -8.95222
145 1 12.6224 9.4 6.25077 -8.84793
146 1 15.7349 9.43201 6.28575 -8.95842
147 1 18.8715 9.43423 6.28929 -8.95183
148 1 -0.000238138 1.07208e-16 9.43453 -8.94959
149 1 3.14416 2.96105e-16 9.43452 -8.9495
150 1 6.28904 -6.7287e-17 9.43449 -8.95028
151 1 9.43478 1.56698e-15 9.43447 -8.94863
152 1 12.5797 1.82613e-15 9.43448 -8.94922
153 1 15.7246 1.03403e-15 9.4345 -8.94968
154 1 18.8692 1.13027e-15 9.43452 -8.9496
155 1 -0.000455228 3.14435 9.43452 -8.94953
156 1 3.14344 3.14352 9.4345 -8.94946
157 1 6.28755 3.14117 9.43445 -8.94966
158 1 9.43445 3.14382 9.4344 -8.947
177 1 4.71625 1.57129 11.0073 -8.94941
183 1 1.57083 4.71618 11.0073 -8.94926
184 1 4.7135 4.71355 11.0082 -8.94742
5 1 6.28961 7.88219e-16 -0.000163386 -8.94956
41 1 18.8695 6.28937 -0.000316383 -8.94953
7 1 9.43451 1.75108e-15 -0.000178392 -8.94958
9 1 12.5794 1.3418e-15 -0.000163532 -8.94957
29 1 2.34187e-05 6.28959 -0.000168873 -8.94955
25 1 15.7245 3.14438 -0.000301798 -8.94967
176 1 1.57186 1.57205 11.0071 -8.94953
47 1 12.5795 9.43443 22.0123 -8.95149
178 1 7.86197 1.57079 11.007 -8.95137
179 1 11.0071 1.57177 11.0068 -8.94948
180 1 14.1522 1.57199 11.0068 -8.94941
343 1 18.8696 9.43442 18.8694 -8.94953
182 1 20.4414 1.57222 11.007 -8.94958
45 1 6.28936 9.43464 22.0135 -8.9495
43 1 22.0139 9.43448 22.0137 -8.94959
185 1 7.85906 4.70905 11.0084 -8.95889
186 1 11.0066 4.71524 11.007 -8.95142
187 1 14.1525 4.71614 11.0061 -8.9488
342 1 15.7252 9.43419 18.8702 -8.94937
341 1 12.5795 9.43446 18.8707 -8.95139
190 1 1.56942 7.86153 11.0073 -8.95148
191 1 4.70592 7.85827 11.0095 -8.95826
192 1 7.81936 7.82483 11.0429 -8.90517
193 1 11.0231 7.85367 11.0324 -8.95822
194 1 14.1558 7.86087 11.004 -8.95271
195 1 17.2983 7.8614 11.0062 -8.94981
196 1 20.4414 7.8617 11.0069 -8.94988
197 1 22.0137 -5.49983e-16 12.5795 -8.94958
198 1 1.57192 1.57207 14.1521 -8.94955
199 1 3.1442 -1.1847e-15 12.5797 -8.94945
200 1 4.71639 1.57131 14.1527 -8.95006
201 1 6.28928 -2.64735e-17 12.5798 -8.9507
202 1 7.86202 1.57138 14.1525 -8.94974
203 1 9.43478 1.40782e-15 12.5797 -8.95024
204 1 11.0073 1.57141 14.1525 -8.94971
205 1 12.5796 1.33121e-15 12.5794 -8.9505
206 1 14.1523 1.57142 14.1522 -8.95067
207 1 15.7245 6.52257e-16 12.5793 -8.94954
208 1 17.2969 1.57214 14.1518 -8.94971
209 1 18.8692 -1.01997e-15 12.5794 -8.94956
210 1 20.4414 1.57225 14.1519 -8.94954
211 1 -0.000444847 3.14438 12.5796 -8.94947
212 1 1.57092 4.71626 14.1528 -8.94976
213 1 3.14349 3.14353 12.5801 -8.94925
214 1 4.71297 4.71295 14.156 -8.94449
215 1 6.288 3.14107 12.5809 -8.95173
216 1 7.8609 4.71339 14.1546 -8.94933
217 1 9.43478 3.14194 12.5804 -8.95068
218 1 11.0076 4.71351 14.1545 -8.94796
219 1 12.5799 3.14229 12.5797 -8.95276
220 1 14.1549 4.71232 14.1546 -8.94983
221 1 15.7247 3.14405 12.5792 -8.94959
222 1 17.2977 4.71621 14.1521 -8.95038
223 1 18.8693 3.14442 12.5794 -8.94942
224 1 20.4414 4.71683 14.152 -8.94983
225 1 22.0129 6.28913 12.5798 -8.95015
226 1 1.57108 7.86168 14.1528 -8.94953
227 1 3.14042 6.2874 12.5815 -8.95115
228 1 4.71386 7.86095 14.1546 -8.95039
229 1 6.27622 6.27617 12.5919 -8.93017
230 1 7.85503 7.85404 14.1642 -8.95141
231 1 9.43379 6.27999 12.5849 -8.9519
232 1 11.0082 7.85504 14.1625 -8.94865
233 1 12.5861 6.27772 12.5863 -8.95412
234 1 14.1657 7.84899 14.1652 -8.92784
235 1 15.7267 6.28785 12.5794 -8.95163
236 1 17.3009 7.86001 14.1538 -8.95113
237 1 18.8698 6.2891 12.5793 -8.94978
238 1 20.4421 7.86165 14.1523 -8.95026
239 1 -0.000779663 9.43434 12.5799 -8.95008
240 1 3.14104 9.43408 12.5812 -8.94839
241 1 6.283 9.433 12.5829 -8.97968
242 1 9.41906 9.4065 12.5951 -8.949
243 1 12.6219 9.39536 12.6187 -8.87755
244 1 15.7346 9.43183 12.5831 -8.95864
245 1 18.8713 9.4342 12.5797 -8.95189
246 1 22.0137 -1.24281e-15 15.7244 -8.9496
247 1 1.572 1.57215 17.297 -8.94921
248 1 3.14429 -7.48716e-16 15.7248 -8.94958
249 1 4.71697 1.57206 17.2971 -8.94964
250 1 6.28949 -6.48215e-16 15.7248 -8.94962
251 1 7.862 1.57203 17.2972 -8.94948
252 1 9.43457 2.74328e-16 15.7248 -8.94958
253 1 11.007 1.57201 17.2972 -8.94952
254 1 12.5796 1.14638e-15 15.7247 -8.94955
255 1 14.152 1.57201 17.2971 -8.9495
256 1 15.7246 8.22743e-16 15.7246 -8.95001
257 1 17.2971 1.57199 17.297 -8.94948
258 1 18.8692 -1.22197e-15 15.7243 -8.9497
259 1 20.4415 1.57225 17.2968 -8.94962
260 1 22.0135 3.14445 15.7246 -8.94959
261 1 1.57201 4.71695 17.2972 -8.94972
262 1 3.14352 3.14361 15.7255 -8.94821
263 1 4.71609 4.71615 17.2984 -8.9493
264 1 6.28906 3.14348 15.7255 -8.94964
265 1 7.86169 4.71618 17.2981 -8.94904
266 1 9.43448 3.14344 15.7254 -8.94931
267 1 11.007 4.71605 17.298 -8.94932
268 1 12.5798 3.14339 15.7252 -8.94914
269 1 14.1525 4.71595 17.298 -8.94949
270 1 15.7254 3.14314 15.7253 -8.9494
271 1 17.298 4.71592 17.2978 -8.94811
272 1 18.8694 3.14439 15.7244 -8.94985
273 1 20.4418 4.71686 17.297 -8.94953
274 1 -0.000159938 6.28932 15.7248 -8.94974
275 1 1.57217 7.86205 17.2971 -8.94953
276 1 3.14348 6.28906 15.7256 -8.94994
277 1 4.71682 7.86229 17.2976 -8.94999
278 1 6.28655 6.28664 15.7292 -8.94924
279 1 7.86165 7.86169 17.2993 -8.95285
280 1 9.43391 6.28682 15.728 -8.94707
281 1 11.0068 7.86086 17.2998 -8.95091
282 1 12.5809 6.28657 15.7282 -8.94854
283 1 14.1535 7.86055 17.3003 -8.95188
284 1 15.7286 6.28536 15.7284 -8.94409
285 1 17.298 7.86143 17.2979 -8.94923
286 1 18.8705 6.28871 15.7252 -8.94972
287 1 20.4419 7.86191 17.2971 -8.94946
288 1 22.0139 9.43442 15.7248 -8.94949
289 1 3.14405 9.43458 15.7253 -8.94927
290 1 6.28939 9.43548 15.7253 -8.95028
291 1 9.43525 9.43458 15.7269 -8.95458
292 1 12.5821 9.43326 15.7323 -8.96029
293 1 15.7278 9.43324 15.7278 -8.94752
294 1 18.8705 9.43419 15.7252 -8.94924
295 1 -0.000120082 -1.24029e-15 18.8692 -8.94936
296 1 1.57225 1.57226 20.4415 -8.94946
297 1 3.14468 4.93469e-17 18.8693 -8.94964
298 1 4.71715 1.57227 20.4415 -8.94958
299 1 6.28959 6.76282e-16 18.8693 -8.94955
300 1 7.86204 1.57223 20.4415 -8.94957
301 1 9.43451 1.08202e-15 18.8693 -8.94957
302 1 11.007 1.57221 20.4415 -8.94958
303 1 12.5794 1.40242e-15 18.8693 -8.94956
304 1 14.1519 1.57223 20.4415 -8.94955
305 1 15.7243 1.09426e-15 18.8692 -8.94958
306 1 17.2968 1.57224 20.4415 -8.94963
307 1 18.8692 2.70168e-16 18.8692 -8.94945
308 1 20.4416 1.57231 20.4415 -8.94934
309 1 -2.83287e-05 3.14467 18.8692 -8.94958
310 1 1.57231 4.71719 20.4415 -8.94971
311 1 3.14442 3.14444 18.8695 -8.94947
312 1 4.71688 4.71692 20.4415 -8.94999
313 1 6.28947 3.14442 18.8695 -8.94948
314 1 7.86187 4.71676 20.4416 -8.9495
315 1 9.43447 3.14433 18.8695 -8.94953
316 1 11.0069 4.71669 20.4416 -8.94954
317 1 12.5795 3.14433 18.8695 -8.94949
318 1 14.152 4.71672 20.4416 -8.9496
319 1 15.7245 3.14435 18.8694 -8.94962
320 1 17.2972 4.71671 20.4415 -8.94957
321 1 18.8695 3.14443 18.8693 -8.94917
322 1 20.4417 4.71712 20.4415 -8.9496
323 1 22.0139 6.28959 18.8692 -8.94957
324 1 1.57227 7.86206 20.4415 -8.94957
325 1 3.14457 6.28964 18.8694 -8.94979
326 1 4.71699 7.86214 20.4415 -8.9496
327 1 6.28919 6.28927 18.8701 -8.95063
328 1 7.86191 7.86205 20.4416 -8.95045
329 1 9.43423 6.28891 18.8702 -8.94959
330 1 11.0067 7.86172 20.4416 -8.9503
331 1 12.5795 6.28889 18.8702 -8.94968
332 1 14.1522 7.86166 20.4415 -8.95067
333 1 15.7251 6.28879 18.8702 -8.95008
334 1 17.2973 7.86179 20.4415 -8.94941
335 1 18.8695 6.28938 18.8694 -8.94954
336 1 20.4417 7.86201 20.4415 -8.94958
337 1 1.33068e-05 9.43449 18.8693 -8.94958
338 1 3.14451 9.43452 18.8694 -8.94957
339 1 6.28936 9.43469 18.8695 -8.9494
340 1 9.43441 9.43471 18.8698 -8.94976
39 1 15.7251 6.2888 22.0129 -8.95001
31 1 3.14459 6.28964 22.0136 -8.94973
27 1 18.8694 3.14446 22.0137 -8.94922
11 1 15.7243 1.37045e-15 22.0138 -8.94959
15 1 22.0139 3.14469 22.0137 -8.9496
19 1 6.2895 3.14446 22.0136 -8.9495
23 1 12.5795 3.14438 22.0136 -8.94949
3 1 3.1447 1.74616e-17 22.0137 -8.94965
13 1 18.8692 8.1592e-16 22.0138 -8.94944
46 1 9.43438 9.43464 22.0134 -8.94932
49 1 18.8696 9.43441 22.0136 -8.94953
344 1 1.57211 11.007 1.57189 -8.94959
345 1 4.7166 11.007 1.57139 -8.94967
346 1 7.86196 11.007 1.57205 -8.9485
347 1 11.0069 11.007 1.57147 -8.94646
348 1 14.1541 11.007 1.56857 -8.94954
349 1 17.298 11.007 1.57116 -8.94947
350 1 20.4419 11.007 1.57196 -8.94953
688 3 10.2291 11.007 9.43573 2.2034
352 1 1.57215 14.1519 1.57195 -8.94943
353 1 3.14449 12.5794 -0.000356618 -8.94957
354 1 4.71679 14.1517 1.57154 -8.9497
687 2 9.50665 11.007 10.1874 -0.00895247
356 1 7.86177 14.152 1.57031 -8.95241
538 1 17.297 20.4418 11.007 -8.94956
358 1 11.0066 14.1528 1.56983 -8.95052
511 1 18.8693 18.8695 9.43452 -8.94958
360 1 14.1535 14.1534 1.56881 -8.95158
361 1 15.7252 12.5797 -0.00112015 -8.94938
362 1 17.298 14.1525 1.57119 -8.94922
532 1 20.4414 17.2972 11.007 -8.94955
364 1 20.4419 14.152 1.57199 -8.94947
510 1 15.7249 18.8699 9.43448 -8.94961
366 1 1.57208 17.2969 1.57195 -8.94979
509 1 12.5796 18.8694 9.43446 -8.9483
368 1 4.71625 17.2976 1.57088 -8.94952
369 1 6.28926 15.7246 -0.000841791 -8.95063
370 1 7.86178 17.2975 1.57122 -8.94914
371 1 9.43423 15.7249 -0.000806606 -8.94961
372 1 11.007 17.2976 1.57129 -8.94937
373 1 12.5794 15.7249 -0.000875284 -8.9497
374 1 14.1523 17.2978 1.57124 -8.94974
508 1 9.43445 18.8701 9.4344 -8.947
376 1 17.2979 17.2979 1.57131 -8.94822
507 1 6.28755 18.8727 9.43445 -8.94966
378 1 20.4418 17.297 1.57206 -8.94955
506 1 3.14344 18.8704 9.4345 -8.94946
380 1 1.57202 20.4417 1.57203 -8.94922
381 1 3.14446 18.8694 -0.000388917 -8.94951
382 1 4.71701 20.4418 1.57198 -8.94966
505 1 -0.000455228 18.8695 9.43452 -8.94953
384 1 7.86203 20.4418 1.57198 -8.9495
385 1 9.43447 18.8695 -0.000323132 -8.94953
386 1 11.007 20.4418 1.57199 -8.94954
504 1 18.8697 15.7251 9.43451 -8.94953
388 1 14.152 20.4418 1.57206 -8.94952
503 1 15.7261 15.7262 9.43442 -8.94618
390 1 17.297 20.4419 1.57204 -8.94947
502 1 12.5778 15.7224 9.43451 -8.94555
392 1 20.4415 20.4416 1.57228 -8.9496
393 1 1.57143 11.007 4.71621 -8.94948
394 1 4.71497 11.007 4.71471 -8.94562
395 1 7.86387 11.007 4.71872 -8.94717
396 1 11.0123 11.007 4.72052 -9.00557
397 1 14.1628 11.007 4.70677 -8.9415
398 1 17.301 11.007 4.71491 -8.94901
399 1 20.4424 11.007 4.7166 -8.94996
400 1 -2.17258e-05 12.5795 3.14425 -8.94954
401 1 1.57148 14.1519 4.7165 -8.94982
402 1 3.14391 12.5794 3.14371 -8.94893
403 1 4.71456 14.1522 4.71496 -8.95108
404 1 6.28909 12.5787 3.14349 -8.94945
405 1 7.85625 14.1576 4.70715 -8.95414
406 1 9.43508 12.5793 3.14354 -8.95084
407 1 11.0074 14.1563 4.70879 -8.95212
408 1 12.5824 12.5807 3.13644 -8.95963
409 1 14.165 14.1641 4.70437 -8.92876
410 1 15.7279 12.5807 3.14117 -8.94754
411 1 17.3008 14.1538 4.71523 -8.95087
412 1 18.8705 12.5797 3.14385 -8.94928
413 1 20.4422 14.1522 4.71676 -8.9502
414 1 22.0139 15.7245 3.14439 -8.94981
415 1 1.57092 17.2976 4.71625 -8.94957
416 1 3.14373 15.7247 3.14366 -8.95019
417 1 4.71319 17.3006 4.71316 -8.9446
418 1 6.28707 15.7267 3.14042 -8.95012
419 1 7.86108 17.2998 4.71479 -8.94914
420 1 9.43398 15.7264 3.14185 -8.94768
421 1 11.0074 17.2995 4.71501 -8.94785
422 1 12.5804 15.7267 3.14147 -8.94946
423 1 14.1547 17.3013 4.71453 -8.94975
424 1 15.7283 15.7283 3.14086 -8.94433
425 1 17.2977 17.2977 4.71691 -8.95031
426 1 18.8705 15.7251 3.14396 -8.94966
427 1 20.4414 17.2971 4.71701 -8.94979
428 1 -0.000393387 18.8694 3.14447 -8.94954
429 1 1.57192 20.4418 4.71694 -8.94954
430 1 3.14359 18.8702 3.14356 -8.94825
431 1 4.71643 20.4425 4.71636 -8.95002
432 1 6.28918 18.8702 3.14371 -8.94966
433 1 7.86206 20.4424 4.71656 -8.94963
434 1 9.4345 18.8702 3.14384 -8.94937
435 1 11.0072 20.4423 4.71661 -8.94958
436 1 12.5797 18.8703 3.14395 -8.94918
437 1 14.1523 20.4424 4.71689 -8.95064
438 1 15.7253 18.8707 3.14382 -8.94938
439 1 17.2969 20.4418 4.71725 -8.94972
440 1 18.8694 18.8695 3.14461 -8.94981
441 1 20.4414 20.4416 4.71717 -8.94955
442 1 1.57096 11.007 7.86149 -8.94783
443 1 4.71657 11.007 7.86185 -8.94154
444 1 7.87508 11.007 7.86626 -8.93374
445 1 11.0907 11.007 7.62009 -8.16357
446 1 14.1609 11.007 7.85387 -8.97287
447 1 17.2994 11.007 7.86244 -8.9512
448 1 20.4418 11.007 7.86208 -8.94955
449 1 22.0135 12.5794 6.28921 -8.94996
450 1 1.5693 14.1526 7.8614 -8.95152
451 1 3.14245 12.5789 6.28844 -8.9501
452 1 4.70553 14.1563 7.8586 -8.95734
453 1 6.28402 12.5773 6.28674 -8.95118
454 1 7.81886 14.1861 7.82815 -8.88345
455 1 9.41948 12.6007 6.28442 -8.95222
456 1 11.0249 14.1591 7.83682 -8.9434
457 1 12.6224 12.6139 6.25077 -8.84793
458 1 14.1563 14.153 7.86406 -8.95298
459 1 15.7349 12.5819 6.28575 -8.95842
460 1 17.2984 14.1525 7.86274 -8.94997
461 1 18.8715 12.5797 6.28929 -8.95183
462 1 20.4414 14.1522 7.86203 -8.94996
463 1 -0.00102443 15.7248 6.2892 -8.95008
464 1 1.57084 17.2977 7.86172 -8.94934
465 1 3.14036 15.7265 6.28734 -8.95045
466 1 4.71355 17.3003 7.86066 -8.94784
467 1 6.27673 15.7366 6.27752 -8.92997
468 1 7.85904 17.3042 7.86056 -8.95837
469 1 9.43364 15.7319 6.28507 -8.95159
470 1 11.0067 17.2983 7.8618 -8.95149
471 1 12.5861 15.7351 6.28268 -8.95283
472 1 14.1524 17.2976 7.86278 -8.94905
473 1 15.7267 15.726 6.28947 -8.95149
474 1 17.2974 17.2976 7.86209 -8.94894
475 1 18.8698 15.7248 6.28967 -8.94982
476 1 20.4414 17.2972 7.862 -8.94955
477 1 22.0135 18.8695 6.28947 -8.94949
478 1 1.57187 20.4419 7.86199 -8.94954
479 1 3.1435 18.8704 6.28895 -8.94927
480 1 4.71626 20.4426 7.86173 -8.94944
481 1 6.28807 18.8726 6.28809 -8.95157
482 1 7.86198 20.443 7.86194 -8.95123
483 1 9.43476 18.8715 6.28869 -8.95039
484 1 11.0071 20.442 7.86216 -8.94944
485 1 12.5798 18.8713 6.28932 -8.95255
486 1 14.1521 20.4419 7.8622 -8.9494
487 1 15.7247 18.8698 6.28986 -8.94965
488 1 17.297 20.4418 7.86208 -8.94956
489 1 18.8693 18.8695 6.28962 -8.94942
490 1 20.4414 20.4417 7.86206 -8.94958
491 1 22.0125 12.5795 9.43435 -8.94969
492 1 3.13964 12.58 9.43362 -8.95017
493 1 6.27622 12.5886 9.43209 -9.02124
494 1 9.35757 12.8294 9.42741 -8.34148
495 1 12.5588 12.5704 9.43154 -8.95903
496 1 15.7225 12.579 9.4344 -8.94013
497 1 18.8695 12.5797 9.4345 -8.94787
498 1 22.0128 15.7249 9.4345 -8.94992
499 1 3.14026 15.7267 9.43446 -8.94916
500 1 6.27888 15.7343 9.43448 -8.94312
501 1 9.42954 15.7221 9.43448 -9.00861
513 1 4.70678 11.007 11.0073 -8.95704
531 1 17.2975 17.2976 11.0069 -8.94897
526 1 1.57083 17.2977 11.0073 -8.94926
527 1 4.7135 17.3003 11.0082 -8.94742
389 1 15.7245 18.8695 -0.000301798 -8.94967
534 1 4.71625 20.4426 11.0073 -8.94941
365 1 2.34187e-05 15.7243 -0.000168873 -8.94955
377 1 18.8695 15.7245 -0.000316383 -8.94953
512 1 1.56933 11.007 11.0074 -8.95109
686 1 20.4416 20.4416 20.4415 -8.94934
514 1 7.82799 11.007 11.0179 -9.14382
515 1 11.1141 11.007 11.2515 -8.34414
685 1 18.8695 18.8695 18.8693 -8.94917
517 1 17.2992 11.007 11.0066 -8.95117
518 1 20.4415 11.007 11.0069 -8.94998
519 1 1.56942 14.1524 11.0073 -8.95148
520 1 4.70592 14.1556 11.0095 -8.95826
521 1 7.81936 14.1891 11.0429 -8.90517
522 1 11.0231 14.1602 11.0324 -8.95822
523 1 14.1558 14.153 11.004 -8.95271
524 1 17.2983 14.1525 11.0062 -8.94981
525 1 20.4414 14.1522 11.0069 -8.94988
391 1 18.8694 18.8694 22.0137 -8.94922
387 1 12.5795 18.8695 22.0136 -8.94949
528 1 7.85906 17.3048 11.0084 -8.95889
529 1 11.0066 17.2987 11.007 -8.95142
530 1 14.1525 17.2978 11.0061 -8.9488
684 1 17.2968 20.4417 20.4415 -8.94963
683 1 15.7245 18.8696 18.8694 -8.94962
533 1 1.57186 20.4419 11.0071 -8.94953
383 1 6.2895 18.8694 22.0136 -8.9495
535 1 7.86197 20.4431 11.007 -8.95137
536 1 11.0071 20.4421 11.0068 -8.94948
537 1 14.1522 20.4419 11.0068 -8.94941
682 1 14.1519 20.4417 20.4415 -8.94955
539 1 20.4414 20.4417 11.007 -8.94958
540 1 1.57135 11.007 14.1528 -8.94901
541 1 4.71559 11.007 14.1532 -8.94678
542 1 7.86532 11.007 14.1475 -8.99143
543 1 11.0118 11.007 14.1455 -9.05051
544 1 14.1622 11.007 14.1615 -8.94267
545 1 17.3009 11.007 14.1541 -8.94897
546 1 20.4423 11.007 14.1525 -8.94985
547 1 -0.000779663 12.5796 12.5799 -8.95008
548 1 1.57108 14.1522 14.1528 -8.94953
549 1 3.14104 12.5798 12.5812 -8.94839
550 1 4.71386 14.153 14.1546 -8.95039
551 1 6.283 12.5809 12.5829 -8.97968
552 1 7.85503 14.1599 14.1642 -8.95141
553 1 9.41906 12.6074 12.5951 -8.949
554 1 11.0082 14.1589 14.1625 -8.94865
555 1 12.6219 12.6185 12.6187 -8.87755
556 1 14.1657 14.1649 14.1652 -8.92784
557 1 15.7346 12.5821 12.5831 -8.95864
558 1 17.3009 14.1539 14.1538 -8.95113
559 1 18.8713 12.5797 12.5797 -8.95189
560 1 20.4421 14.1522 14.1523 -8.95026
561 1 22.0129 15.7248 12.5798 -8.95015
562 1 1.57092 17.2976 14.1528 -8.94976
563 1 3.14042 15.7265 12.5815 -8.95115
564 1 4.71297 17.3009 14.156 -8.94449
565 1 6.27622 15.7377 12.5919 -8.93017
566 1 7.8609 17.3005 14.1546 -8.94933
567 1 9.43379 15.7339 12.5849 -8.9519
568 1 11.0076 17.3004 14.1545 -8.94796
569 1 12.5861 15.7362 12.5863 -8.95412
570 1 14.1549 17.3016 14.1546 -8.94983
571 1 15.7267 15.7261 12.5794 -8.95163
572 1 17.2977 17.2977 14.1521 -8.95038
573 1 18.8698 15.7248 12.5793 -8.94978
574 1 20.4414 17.2971 14.152 -8.94983
575 1 -0.000444847 18.8695 12.5796 -8.94947
576 1 1.57192 20.4418 14.1521 -8.94955
577 1 3.14349 18.8704 12.5801 -8.94925
578 1 4.71639 20.4426 14.1527 -8.95006
579 1 6.288 18.8728 12.5809 -8.95173
580 1 7.86202 20.4425 14.1525 -8.94974
581 1 9.43478 18.872 12.5804 -8.95068
582 1 11.0073 20.4425 14.1525 -8.94971
583 1 12.5799 18.8716 12.5797 -8.95276
584 1 14.1523 20.4425 14.1522 -8.95067
585 1 15.7247 18.8698 12.5792 -8.94959
586 1 17.2969 20.4418 14.1518 -8.94971
587 1 18.8693 18.8695 12.5794 -8.94942
588 1 20.4414 20.4416 14.1519 -8.94954
589 1 1.57213 11.007 17.2972 -8.94958
590 1 4.71664 11.007 17.2975 -8.94939
591 1 7.86185 11.007 17.2969 -8.94709
592 1 11.0072 11.007 17.2974 -8.94493
593 1 14.154 11.007 17.3003 -8.9495
594 1 17.298 11.007 17.2979 -8.94946
595 1 20.4419 11.007 17.2971 -8.94953
596 1 22.0139 12.5795 15.7248 -8.94949
597 1 1.57217 14.1518 17.2971 -8.94953
598 1 3.14405 12.5793 15.7253 -8.94927
599 1 4.71682 14.1516 17.2976 -8.94999
600 1 6.28939 12.5784 15.7253 -8.95028
601 1 7.86165 14.1522 17.2993 -8.95285
602 1 9.43525 12.5793 15.7269 -8.95458
603 1 11.0068 14.153 17.2998 -8.95091
604 1 12.5821 12.5806 15.7323 -8.96029
605 1 14.1535 14.1534 17.3003 -8.95188
606 1 15.7278 12.5807 15.7278 -8.94752
607 1 17.298 14.1525 17.2979 -8.94923
608 1 18.8705 12.5797 15.7252 -8.94924
609 1 20.4419 14.152 17.2971 -8.94946
610 1 -0.000159938 15.7246 15.7248 -8.94974
611 1 1.57201 17.2969 17.2972 -8.94972
612 1 3.14348 15.7248 15.7256 -8.94994
613 1 4.71609 17.2978 17.2984 -8.9493
614 1 6.28655 15.7273 15.7292 -8.94924
615 1 7.86169 17.2977 17.2981 -8.94904
616 1 9.43391 15.7271 15.728 -8.94707
617 1 11.007 17.2979 17.298 -8.94932
618 1 12.5809 15.7273 15.7282 -8.94854
619 1 14.1525 17.2979 17.298 -8.94949
620 1 15.7286 15.7285 15.7284 -8.94409
621 1 17.298 17.298 17.2978 -8.94811
622 1 18.8705 15.7252 15.7252 -8.94972
623 1 20.4418 17.297 17.297 -8.94953
624 1 22.0135 18.8694 15.7246 -8.94959
625 1 1.572 20.4418 17.297 -8.94921
626 1 3.14352 18.8703 15.7255 -8.94821
627 1 4.71697 20.4418 17.2971 -8.94964
628 1 6.28906 18.8704 15.7255 -8.94964
629 1 7.862 20.4419 17.2972 -8.94948
630 1 9.43448 18.8705 15.7254 -8.94931
631 1 11.007 20.4419 17.2972 -8.94952
632 1 12.5798 18.8705 15.7252 -8.94914
633 1 14.152 20.4419 17.2971 -8.9495
634 1 15.7254 18.8708 15.7253 -8.9494
635 1 17.2971 20.4419 17.297 -8.94948
636 1 18.8694 18.8695 15.7244 -8.94985
637 1 20.4415 20.4417 17.2968 -8.94962
638 1 1.57225 11.007 20.4415 -8.9496
639 1 4.71689 11.007 20.4415 -8.94969
640 1 7.86179 11.007 20.4415 -8.94913
641 1 11.0067 11.007 20.4415 -8.94843
642 1 14.1525 11.007 20.4415 -8.95031
643 1 17.2973 11.007 20.4415 -8.94949
644 1 20.4417 11.007 20.4415 -8.94959
645 1 1.33068e-05 12.5794 18.8693 -8.94958
646 1 1.57227 14.1518 20.4415 -8.94957
647 1 3.14451 12.5794 18.8694 -8.94957
648 1 4.71699 14.1518 20.4415 -8.9496
649 1 6.28936 12.5792 18.8695 -8.9494
650 1 7.86191 14.1518 20.4416 -8.95045
651 1 9.43441 12.5792 18.8698 -8.94976
652 1 11.0067 14.1522 20.4416 -8.9503
653 1 12.5795 12.5794 18.8707 -8.95139
654 1 14.1522 14.1522 20.4415 -8.95067
655 1 15.7252 12.5797 18.8702 -8.94937
656 1 17.2973 14.1521 20.4415 -8.94941
657 1 18.8696 12.5795 18.8694 -8.94953
658 1 20.4417 14.1519 20.4415 -8.94958
659 1 22.0139 15.7243 18.8692 -8.94957
660 1 1.57231 17.2967 20.4415 -8.94971
661 1 3.14457 15.7243 18.8694 -8.94979
662 1 4.71688 17.297 20.4415 -8.94999
663 1 6.28919 15.7246 18.8701 -8.95063
664 1 7.86187 17.2971 20.4416 -8.9495
665 1 9.43423 15.725 18.8702 -8.94959
666 1 11.0069 17.2972 20.4416 -8.94954
667 1 12.5795 15.725 18.8702 -8.94968
668 1 14.152 17.2972 20.4416 -8.9496
669 1 15.7251 15.7251 18.8702 -8.95008
670 1 17.2972 17.2972 20.4415 -8.94957
671 1 18.8695 15.7245 18.8694 -8.94954
672 1 20.4417 17.2968 20.4415 -8.9496
673 1 -2.83287e-05 18.8692 18.8692 -8.94958
674 1 1.57225 20.4416 20.4415 -8.94946
675 1 3.14442 18.8695 18.8695 -8.94947
676 1 4.71715 20.4416 20.4415 -8.94958
677 1 6.28947 18.8695 18.8695 -8.94948
678 1 7.86204 20.4417 20.4415 -8.94957
679 1 9.43447 18.8696 18.8695 -8.94953
680 1 11.007 20.4417 20.4415 -8.94958
681 1 12.5795 18.8696 18.8695 -8.94949
351 1 22.0139 12.5794 22.0137 -8.94959
355 1 6.28936 12.5793 22.0135 -8.9495
359 1 12.5795 12.5795 22.0123 -8.95149
379 1 22.0139 18.8692 22.0137 -8.9496
367 1 3.14459 15.7243 22.0136 -8.94973
375 1 15.7251 15.7251 22.0129 -8.95001
357 1 9.43438 12.5793 22.0134 -8.94932
363 1 18.8696 12.5795 22.0136 -8.94953
516 1 14.16 11.007 11.0142 -8.97971
