ITEM: TIMESTEP
68
ITEM: NUMBER OF ATOMS
688
ITEM: BOX BOUNDS pp pp pp
0.0000000000000000e+00 2.2013900999999997e+01
0.0000000000000000e+00 2.2013900999999997e+01
0.0000000000000000e+00 2.2013900999999997e+01
ITEM: ATOMS id type x y z c_pot
1 1 -7.57728e-05 -5.77304e-16 -6.73534e-05 -8.94942
2 1 1.57213 1.57223 1.57214 -8.94925
189 1 20.4414 4.71683 11.007 -8.94956
4 1 4.71711 1.57219 1.57211 -8.94968
175 1 18.8696 9.43415 9.4345 -8.94796
6 1 7.86206 1.57217 1.5721 -8.94953
174 1 15.7229 9.43482 9.43442 -8.9402
8 1 11.007 1.57215 1.57209 -8.94956
173 1 12.5594 9.44318 9.43168 -8.95918
10 1 14.1519 1.57216 1.57216 -8.94953
172 1 9.35674 9.18367 9.42739 -8.33799
12 1 17.2969 1.57211 1.57214 -8.94948
188 1 17.2974 4.71645 11.0069 -8.949
14 1 20.4415 1.57231 1.57233 -8.94962
171 1 6.2762 9.42552 9.43201 -9.02122
16 1 1.57217 4.71709 1.57208 -8.94977
17 1 3.14456 3.14456 -0.00030145 -8.94952
18 1 4.71642 4.71644 1.5711 -8.94953
170 1 3.13982 9.43402 9.43363 -8.95019
20 1 7.86187 4.71653 1.5714 -8.94915
21 1 9.43449 3.14449 -0.000255691 -8.94956
22 1 11.007 4.71643 1.57146 -8.94938
169 1 22.0127 9.43439 9.43436 -8.94975
24 1 14.1522 4.71636 1.57146 -8.94977
168 1 18.8697 6.28892 9.43451 -8.94952
26 1 17.2976 4.71624 1.5715 -8.94828
167 1 15.726 6.2878 9.43442 -8.94628
28 1 20.4417 4.71701 1.57216 -8.94956
166 1 12.5779 6.29137 9.4345 -8.94573
30 1 1.5722 7.86204 1.57207 -8.94945
165 1 9.42973 6.29168 9.43441 -9.00878
32 1 4.71686 7.86224 1.57167 -8.94969
33 1 6.28934 6.2894 -0.000744314 -8.95055
34 1 7.86181 7.86193 1.57042 -8.95232
35 1 9.43428 6.2891 -0.000721207 -8.9496
36 1 11.0066 7.86125 1.57002 -8.95043
37 1 12.5794 6.28912 -0.000746819 -8.94967
38 1 14.1532 7.8607 1.56913 -8.95152
164 1 6.27953 6.28005 9.43446 -8.94328
40 1 17.2977 7.86157 1.57143 -8.94928
163 1 3.14076 6.28746 9.43448 -8.94916
42 1 20.4418 7.86197 1.5721 -8.9495
162 1 22.013 6.28909 9.43451 -8.94989
44 1 3.14455 9.4345 -0.000293689 -8.94958
161 1 18.8693 3.14447 9.43452 -8.9496
181 1 17.2969 1.57217 11.007 -8.94958
160 1 15.7248 3.14405 9.43449 -8.94963
48 1 15.725 9.43424 -0.000948648 -8.94938
159 1 12.5797 3.14444 9.43447 -8.94835
50 1 22.0138 -2.96135e-17 3.14476 -8.94962
51 1 1.57207 1.57217 4.71706 -8.94958
52 1 3.14445 -6.52173e-16 3.14443 -8.94957
53 1 4.71658 1.57151 4.71653 -8.95001
54 1 6.2896 -2.21357e-16 3.14448 -8.94958
55 1 7.86209 1.57166 4.7167 -8.94959
56 1 9.43457 9.17179e-16 3.14444 -8.94956
57 1 11.0072 1.57168 4.7167 -8.94956
58 1 12.5795 1.74244e-15 3.14449 -8.94951
59 1 14.1522 1.57161 4.71694 -8.95055
60 1 15.7245 1.20563e-15 3.14458 -8.94995
61 1 17.2968 1.57222 4.71727 -8.94971
62 1 18.8691 9.50131e-16 3.14482 -8.9497
63 1 20.4415 1.57231 4.71721 -8.94957
64 1 -0.000308598 3.14457 3.14458 -8.94955
65 1 1.57114 4.71645 4.71644 -8.94957
66 1 3.1438 3.14387 3.14378 -8.94828
67 1 4.71354 4.71358 4.71348 -8.94462
68 1 6.28933 3.14391 3.14394 -8.94968
69 1 7.86132 4.71449 4.71506 -8.94915
70 1 9.43452 3.14389 3.14401 -8.94939
71 1 11.0073 4.71465 4.71526 -8.94787
72 1 12.5796 3.14384 3.14411 -8.94919
73 1 14.1544 4.713 4.7148 -8.94975
74 1 15.7251 3.14348 3.14398 -8.94938
75 1 17.2975 4.71643 4.71701 -8.95027
76 1 18.8693 3.14453 3.14469 -8.9498
77 1 20.4414 4.71694 4.71709 -8.94977
78 1 22.0139 6.28951 3.14451 -8.94979
79 1 1.57161 7.86205 4.71664 -8.94977
80 1 3.14392 6.28935 3.14387 -8.95014
81 1 4.71484 7.86181 4.71515 -8.95101
82 1 6.28736 6.2875 3.14076 -8.95018
83 1 7.85663 7.85676 4.70745 -8.95444
84 1 9.43405 6.28773 3.14211 -8.94774
85 1 11.0072 7.85801 4.70925 -8.95221
86 1 12.5802 6.28755 3.14187 -8.9495
87 1 14.1644 7.85027 4.70496 -8.92907
88 1 15.7279 6.28599 3.14124 -8.94444
89 1 17.3004 7.86028 4.71547 -8.95083
90 1 18.8702 6.28894 3.14412 -8.94966
91 1 20.4421 7.8618 4.71687 -8.95015
92 1 -4.33261e-05 9.43444 3.14439 -8.94955
93 1 3.14401 9.43448 3.14385 -8.94896
94 1 6.28914 9.43526 3.14351 -8.94951
95 1 9.435 9.4347 3.14351 -8.95069
96 1 12.5821 9.4333 3.13677 -8.95948
97 1 15.7274 9.43333 3.1416 -8.94763
98 1 18.8703 9.43426 3.14404 -8.9493
99 1 -0.000137534 3.88314e-16 6.28963 -8.94961
100 1 1.57203 1.57214 7.86204 -8.94957
101 1 3.14438 -3.84775e-16 6.28947 -8.94947
102 1 4.71646 1.57146 7.86182 -8.94944
103 1 6.28938 -5.96529e-16 6.2893 -8.9506
104 1 7.86204 1.57098 7.86197 -8.95121
105 1 9.43475 1.50639e-15 6.28935 -8.95007
106 1 11.0071 1.57185 7.86216 -8.94947
107 1 12.5796 1.75505e-15 6.28961 -8.95038
108 1 14.1521 1.57205 7.8622 -8.94941
109 1 15.7244 1.76534e-15 6.28971 -8.94955
110 1 17.2969 1.57217 7.86208 -8.94957
111 1 18.8692 1.77511e-15 6.28965 -8.94957
112 1 20.4415 1.57228 7.86208 -8.9496
113 1 22.0136 3.14451 6.28955 -8.94951
114 1 1.57113 4.71637 7.86181 -8.94936
115 1 3.14377 3.14377 6.28913 -8.94932
116 1 4.71402 4.71396 7.86083 -8.9479
117 1 6.28829 3.1416 6.28825 -8.95155
118 1 7.85937 4.70994 7.86062 -8.95833
119 1 9.43482 3.14257 6.28879 -8.9503
120 1 11.0068 4.7156 7.86189 -8.95145
121 1 12.5798 3.1427 6.28938 -8.95245
122 1 14.1523 4.71634 7.86281 -8.94908
123 1 15.7246 3.14422 6.28987 -8.94965
124 1 17.2974 4.71646 7.86209 -8.94897
125 1 18.8692 3.14454 6.28964 -8.94945
126 1 20.4414 4.71683 7.86202 -8.94956
127 1 -0.000878009 6.2892 6.28928 -8.95005
128 1 1.56957 7.86144 7.86147 -8.95147
129 1 3.14075 6.28762 6.28756 -8.95044
130 1 4.70599 7.85791 7.85867 -8.95731
131 1 6.27721 6.27771 6.27779 -8.92991
132 1 7.81916 7.82809 7.82797 -8.88274
133 1 9.43389 6.28235 6.28535 -8.95152
134 1 11.0248 7.85495 7.83741 -8.94343
135 1 12.5858 6.27921 6.28312 -8.95284
136 1 14.1562 7.86097 7.86422 -8.95298
137 1 15.7265 6.28807 6.28961 -8.95144
138 1 17.2983 7.86144 7.86273 -8.94991
139 1 18.8697 6.2892 6.28969 -8.94978
140 1 20.4414 7.86173 7.86205 -8.94995
141 1 22.0136 9.43451 6.28928 -8.94995
142 1 3.1426 9.43505 6.28852 -8.95006
143 1 6.28422 9.43674 6.2867 -8.951
144 1 9.41993 9.41398 6.28485 -8.95308
145 1 12.6216 9.40057 6.25161 -8.84877
146 1 15.7345 9.4321 6.28608 -8.95829
147 1 18.8713 9.43426 6.28937 -8.95175
148 1 -0.000150725 5.42375e-16 9.43453 -8.94961
149 1 3.14434 3.34436e-16 9.43452 -8.94952
150 1 6.28915 -3.95891e-16 9.4345 -8.95023
151 1 9.43477 1.49418e-15 9.43449 -8.94875
152 1 12.5797 1.67737e-15 9.4345 -8.94927
153 1 15.7245 1.38006e-15 9.43451 -8.94969
154 1 18.8692 1.25668e-15 9.43453 -8.94961
155 1 -0.000328178 3.14448 9.43453 -8.94955
156 1 3.14373 3.14376 9.43452 -8.94948
157 1 6.28785 3.14146 9.43447 -8.94963
158 1 9.43456 3.14376 9.43441 -8.94707
177 1 4.71645 1.57145 11.0072 -8.9494
183 1 1.57112 4.71639 11.0072 -8.94928
184 1 4.71399 4.71397 11.0081 -8.94749
5 1 6.28964 7.12704e-16 -0.000109053 -8.94958
41 1 18.8694 6.28949 -0.000233093 -8.94957
7 1 9.43452 1.44041e-15 -0.000124917 -8.9496
9 1 12.5794 1.81717e-15 -0.0001163 -8.94959
29 1 6.61154e-06 6.28963 -0.000112723 -8.94957
25 1 15.7244 3.14452 -0.000224591 -8.94969
176 1 1.57203 1.57214 11.007 -8.94956
47 1 12.5794 9.43445 22.0124 -8.95144
178 1 7.86203 1.57089 11.007 -8.95132
179 1 11.0071 1.57178 11.0068 -8.9495
180 1 14.1521 1.57202 11.0068 -8.94943
343 1 18.8694 9.43446 18.8693 -8.94956
182 1 20.4415 1.57228 11.007 -8.9496
45 1 6.28939 9.43462 22.0135 -8.94953
43 1 22.0139 9.4345 22.0138 -8.94961
185 1 7.85941 4.70937 11.0083 -8.95879
186 1 11.0067 4.71527 11.0069 -8.95137
187 1 14.1524 4.71619 11.0061 -8.94884
342 1 15.725 9.43426 18.87 -8.94937
341 1 12.5794 9.43449 18.8706 -8.95135
190 1 1.56971 7.86163 11.0072 -8.95143
191 1 4.70643 7.85861 11.0094 -8.95821
192 1 7.81972 7.82536 11.0429 -8.90445
193 1 11.023 7.85392 11.0318 -8.95828
194 1 14.1558 7.8609 11.0039 -8.95264
195 1 17.2983 7.86142 11.0062 -8.94975
196 1 20.4415 7.86175 11.0069 -8.94988
197 1 22.0138 -6.44819e-16 12.5794 -8.94961
198 1 1.57207 1.57217 14.152 -8.94958
199 1 3.14438 -1.29738e-15 12.5796 -8.94946
200 1 4.71656 1.57147 14.1525 -8.95004
201 1 6.28937 -2.72742e-16 12.5797 -8.95065
202 1 7.86206 1.57154 14.1524 -8.94969
203 1 9.43475 9.53412e-16 12.5797 -8.95019
204 1 11.0072 1.57153 14.1524 -8.94968
205 1 12.5796 1.18941e-15 12.5794 -8.95045
206 1 14.1522 1.57155 14.1521 -8.95059
207 1 15.7244 7.23785e-16 12.5793 -8.94954
208 1 17.2968 1.57221 14.1518 -8.94969
209 1 18.8692 1.50774e-16 12.5794 -8.94958
210 1 20.4415 1.57231 14.1518 -8.94957
211 1 -0.000321081 3.14451 12.5795 -8.9495
212 1 1.57116 4.71644 14.1526 -8.94976
213 1 3.14377 3.14377 12.5799 -8.9493
214 1 4.71339 4.71332 14.1557 -8.94457
215 1 6.28825 3.1414 12.5808 -8.9517
216 1 7.86118 4.71385 14.1543 -8.94934
217 1 9.43483 3.14218 12.5802 -8.95058
218 1 11.0075 4.71387 14.1541 -8.94801
219 1 12.5798 3.14246 12.5796 -8.95266
220 1 14.1545 4.71271 14.1543 -8.94986
221 1 15.7246 3.14418 12.5792 -8.94959
222 1 17.2975 4.71642 14.152 -8.95033
223 1 18.8692 3.14453 12.5794 -8.94944
224 1 20.4414 4.71695 14.1519 -8.9498
225 1 22.0131 6.28924 12.5797 -8.95011
226 1 1.57124 7.86173 14.1527 -8.9495
227 1 3.14086 6.28766 12.5812 -8.95113
228 1 4.71413 7.86105 14.1544 -8.95019
229 1 6.27682 6.27668 12.5915 -8.93024
230 1 7.8555 7.85462 14.1637 -8.95169
231 1 9.43403 6.28056 12.5845 -8.95184
232 1 11.008 7.85551 14.162 -8.94877
233 1 12.5858 6.27813 12.5858 -8.95419
234 1 14.1651 7.84937 14.1647 -8.92798
235 1 15.7264 6.28804 12.5792 -8.95156
236 1 17.3006 7.86021 14.1536 -8.95109
237 1 18.8697 6.2892 12.5793 -8.94973
238 1 20.4421 7.86173 14.1522 -8.95022
239 1 -0.000699739 9.43436 12.5799 -8.95008
240 1 3.14121 9.43409 12.5812 -8.9484
241 1 6.28297 9.433 12.5831 -8.97951
242 1 9.41946 9.40746 12.5944 -8.94965
243 1 12.6215 9.3957 12.6181 -8.87781
244 1 15.7344 9.4319 12.5829 -8.95852
245 1 18.8712 9.43424 12.5797 -8.95182
246 1 22.0138 -7.55911e-16 15.7243 -8.94963
247 1 1.57212 1.57222 17.2969 -8.94926
248 1 3.14444 -1.02341e-15 15.7246 -8.94959
249 1 4.71708 1.57215 17.297 -8.94967
250 1 6.28957 -4.00713e-16 15.7246 -8.94962
251 1 7.86204 1.57212 17.297 -8.94951
252 1 9.43455 1.10173e-15 15.7247 -8.94959
253 1 11.007 1.5721 17.297 -8.94955
254 1 12.5796 1.25832e-15 15.7246 -8.94955
255 1 14.1519 1.57212 17.2969 -8.94951
256 1 15.7245 9.44038e-16 15.7245 -8.94997
257 1 17.2969 1.57209 17.2969 -8.9495
258 1 18.8691 -4.79256e-16 15.7242 -8.9497
259 1 20.4415 1.57231 17.2967 -8.94964
260 1 22.0136 3.14456 15.7245 -8.94959
261 1 1.57211 4.71704 17.297 -8.9497
262 1 3.14375 3.14381 15.7253 -8.94826
263 1 4.7163 4.71633 17.2981 -8.94932
264 1 6.28924 3.14373 15.7252 -8.94966
265 1 7.8618 4.71637 17.2978 -8.94906
266 1 9.4345 3.14366 15.7252 -8.94934
267 1 11.007 4.71626 17.2978 -8.94934
268 1 12.5797 3.14362 15.7251 -8.94916
269 1 14.1523 4.71622 17.2978 -8.94952
270 1 15.7252 3.1434 15.7251 -8.94942
271 1 17.2977 4.71615 17.2977 -8.94816
272 1 18.8693 3.14452 15.7244 -8.94983
273 1 20.4417 4.71697 17.2969 -8.94954
274 1 -0.000129507 6.28941 15.7246 -8.94971
275 1 1.57222 7.86208 17.297 -8.94955
276 1 3.1437 6.28917 15.7253 -8.94986
277 1 4.71691 7.86229 17.2974 -8.94998
278 1 6.2869 6.28697 15.7288 -8.94933
279 1 7.86172 7.86176 17.2991 -8.95274
280 1 9.43398 6.28714 15.7276 -8.94712
281 1 11.0067 7.861 17.2996 -8.95082
282 1 12.5806 6.28694 15.7277 -8.94857
283 1 14.1532 7.86073 17.3 -8.95185
284 1 15.7282 6.28571 15.7281 -8.94415
285 1 17.2977 7.8616 17.2977 -8.94927
286 1 18.8703 6.28888 15.725 -8.94971
287 1 20.4418 7.86198 17.297 -8.94949
288 1 22.0139 9.43445 15.7247 -8.9495
289 1 3.14416 9.43459 15.7252 -8.94929
290 1 6.28945 9.43548 15.7253 -8.95038
291 1 9.4352 9.43471 15.7268 -8.95441
292 1 12.5818 9.43339 15.732 -8.96024
293 1 15.7274 9.43339 15.7274 -8.94758
294 1 18.8703 9.43427 15.725 -8.94925
295 1 -7.97361e-05 -5.1738e-16 18.8691 -8.94943
296 1 1.57231 1.57231 20.4415 -8.94951
297 1 3.14475 8.39997e-17 18.8692 -8.94966
298 1 4.7172 1.57232 20.4415 -8.9496
299 1 6.28963 6.81173e-16 18.8692 -8.94957
300 1 7.86207 1.57229 20.4415 -8.9496
301 1 9.43452 1.52745e-15 18.8692 -8.9496
302 1 11.007 1.57228 20.4415 -8.9496
303 1 12.5794 1.34341e-15 18.8692 -8.94959
304 1 14.1518 1.5723 20.4415 -8.94958
305 1 15.7243 1.29317e-15 18.8692 -8.9496
306 1 17.2967 1.57231 20.4415 -8.94966
307 1 18.8692 5.37421e-16 18.8692 -8.9495
308 1 20.4415 1.57235 20.4415 -8.94941
309 1 -1.44588e-05 3.14474 18.8692 -8.94959
310 1 1.57234 4.71722 20.4415 -8.9497
311 1 3.14454 3.14454 18.8694 -8.94949
312 1 4.71698 4.71699 20.4415 -8.94995
313 1 6.28955 3.14453 18.8694 -8.9495
314 1 7.86193 4.71687 20.4415 -8.9495
315 1 9.43449 3.14446 18.8694 -8.94956
316 1 11.0069 4.71682 20.4415 -8.94955
317 1 12.5794 3.14447 18.8694 -8.94952
318 1 14.1519 4.71687 20.4415 -8.94959
319 1 15.7244 3.1445 18.8693 -8.94964
320 1 17.297 4.71686 20.4415 -8.94958
321 1 18.8694 3.14455 18.8693 -8.94922
322 1 20.4416 4.71718 20.4415 -8.94963
323 1 22.0139 6.28964 18.8692 -8.9496
324 1 1.57231 7.86207 20.4415 -8.94958
325 1 3.14464 6.28967 18.8693 -8.94977
326 1 4.71705 7.86213 20.4415 -8.94961
327 1 6.28928 6.28933 18.87 -8.95055
328 1 7.86194 7.86205 20.4416 -8.9504
329 1 9.43427 6.28902 18.87 -8.94957
330 1 11.0067 7.86177 20.4416 -8.95025
331 1 12.5795 6.28903 18.87 -8.94963
332 1 14.1521 7.86175 20.4415 -8.95062
333 1 15.7249 6.28896 18.87 -8.95006
334 1 17.2971 7.8619 20.4415 -8.94944
335 1 18.8694 6.28949 18.8693 -8.94958
336 1 20.4416 7.86206 20.4415 -8.94961
337 1 -4.44874e-06 9.43451 18.8692 -8.9496
338 1 3.14457 9.43452 18.8693 -8.94957
339 1 6.2894 9.43466 18.8695 -8.94944
340 1 9.4344 9.43469 18.8698 -8.94976
39 1 15.7249 6.28897 22.013 -8.94998
31 1 3.14465 6.28966 22.0137 -8.94971
27 1 18.8693 3.14457 22.0137 -8.94927
11 1 15.7243 1.56414e-15 22.0138 -8.94961
15 1 22.0139 3.14475 22.0138 -8.94962
19 1 6.28957 3.14456 22.0137 -8.94951
23 1 12.5794 3.14451 22.0137 -8.94952
3 1 3.14476 1.40326e-16 22.0138 -8.94967
13 1 18.8692 1.17821e-15 22.0138 -8.94949
46 1 9.43438 9.43462 22.0134 -8.94935
49 1 18.8694 9.43446 22.0136 -8.94956
344 1 1.57215 11.007 1.57201 -8.94961
345 1 4.71665 11.007 1.57146 -8.94967
346 1 7.86193 11.007 1.57198 -8.94854
347 1 11.0068 11.007 1.57141 -8.94654
348 1 14.1537 11.007 1.56891 -8.9495
349 1 17.2977 11.007 1.5714 -8.9495
350 1 20.4418 11.007 1.57208 -8.94955
688 3 10.2262 11.007 9.43614 2.20369
352 1 1.5722 14.1519 1.57207 -8.94945
353 1 3.14455 12.5794 -0.000293689 -8.94958
354 1 4.71686 14.1517 1.57167 -8.94969
687 2 9.50329 11.007 10.1888 -0.0103469
356 1 7.86181 14.152 1.57042 -8.95232
538 1 17.2969 20.4417 11.007 -8.94958
358 1 11.0066 14.1527 1.57002 -8.95043
511 1 18.8693 18.8694 9.43452 -8.9496
360 1 14.1532 14.1532 1.56913 -8.95152
361 1 15.725 12.5797 -0.000948648 -8.94938
362 1 17.2977 14.1523 1.57143 -8.94928
532 1 20.4414 17.2971 11.007 -8.94956
364 1 20.4418 14.1519 1.5721 -8.9495
510 1 15.7248 18.8699 9.43449 -8.94963
366 1 1.57217 17.2968 1.57208 -8.94977
509 1 12.5797 18.8695 9.43447 -8.94835
368 1 4.71642 17.2975 1.5711 -8.94953
369 1 6.28934 15.7245 -0.000744314 -8.95055
370 1 7.86187 17.2974 1.5714 -8.94915
371 1 9.43428 15.7248 -0.000721207 -8.9496
372 1 11.007 17.2975 1.57146 -8.94938
373 1 12.5794 15.7248 -0.000746819 -8.94967
374 1 14.1522 17.2975 1.57146 -8.94977
508 1 9.43456 18.8701 9.43441 -8.94707
376 1 17.2976 17.2977 1.5715 -8.94828
507 1 6.28785 18.8724 9.43447 -8.94963
378 1 20.4417 17.2969 1.57216 -8.94956
506 1 3.14373 18.8701 9.43452 -8.94948
380 1 1.57213 20.4417 1.57214 -8.94925
381 1 3.14456 18.8693 -0.00030145 -8.94952
382 1 4.71711 20.4417 1.57211 -8.94968
505 1 -0.000328178 18.8694 9.43453 -8.94955
384 1 7.86206 20.4417 1.5721 -8.94953
385 1 9.43449 18.8694 -0.000255691 -8.94956
386 1 11.007 20.4418 1.57209 -8.94956
504 1 18.8697 15.725 9.43451 -8.94952
388 1 14.1519 20.4417 1.57216 -8.94953
503 1 15.726 15.7261 9.43442 -8.94628
390 1 17.2969 20.4418 1.57214 -8.94948
502 1 12.5779 15.7225 9.4345 -8.94573
392 1 20.4415 20.4416 1.57233 -8.94962
393 1 1.5715 11.007 4.71634 -8.94947
394 1 4.71507 11.007 4.71479 -8.94565
395 1 7.8639 11.007 4.71858 -8.94733
396 1 11.012 11.007 4.72044 -9.00502
397 1 14.1621 11.007 4.70736 -8.94167
398 1 17.3006 11.007 4.71522 -8.94902
399 1 20.4422 11.007 4.71673 -8.94993
400 1 -4.33261e-05 12.5795 3.14439 -8.94955
401 1 1.57161 14.1519 4.71664 -8.94977
402 1 3.14401 12.5794 3.14385 -8.94896
403 1 4.71484 14.1521 4.71515 -8.95101
404 1 6.28914 12.5786 3.14351 -8.94951
405 1 7.85663 14.1571 4.70745 -8.95444
406 1 9.435 12.5792 3.14351 -8.95069
407 1 11.0072 14.1559 4.70925 -8.95221
408 1 12.5821 12.5806 3.13677 -8.95948
409 1 14.1644 14.1636 4.70496 -8.92907
410 1 15.7274 12.5806 3.1416 -8.94763
411 1 17.3004 14.1536 4.71547 -8.95083
412 1 18.8703 12.5796 3.14404 -8.9493
413 1 20.4421 14.1521 4.71687 -8.95015
414 1 22.0139 15.7244 3.14451 -8.94979
415 1 1.57114 17.2974 4.71644 -8.94957
416 1 3.14392 15.7246 3.14387 -8.95014
417 1 4.71354 17.3003 4.71348 -8.94462
418 1 6.28736 15.7264 3.14076 -8.95018
419 1 7.86132 17.2994 4.71506 -8.94915
420 1 9.43405 15.7262 3.14211 -8.94774
421 1 11.0073 17.2993 4.71526 -8.94787
422 1 12.5802 15.7263 3.14187 -8.9495
423 1 14.1544 17.3009 4.7148 -8.94975
424 1 15.7279 15.7279 3.14124 -8.94444
425 1 17.2975 17.2975 4.71701 -8.95027
426 1 18.8702 15.725 3.14412 -8.94966
427 1 20.4414 17.297 4.71709 -8.94977
428 1 -0.000308598 18.8693 3.14458 -8.94955
429 1 1.57207 20.4417 4.71706 -8.94958
430 1 3.1438 18.87 3.14378 -8.94828
431 1 4.71658 20.4424 4.71653 -8.95001
432 1 6.28933 18.87 3.14394 -8.94968
433 1 7.86209 20.4422 4.7167 -8.94959
434 1 9.43452 18.87 3.14401 -8.94939
435 1 11.0072 20.4422 4.7167 -8.94956
436 1 12.5796 18.8701 3.14411 -8.94919
437 1 14.1522 20.4423 4.71694 -8.95055
438 1 15.7251 18.8704 3.14398 -8.94938
439 1 17.2968 20.4417 4.71727 -8.94971
440 1 18.8693 18.8694 3.14469 -8.9498
441 1 20.4415 20.4416 4.71721 -8.94957
442 1 1.57106 11.007 7.86153 -8.94792
443 1 4.71652 11.007 7.86178 -8.94164
444 1 7.87474 11.007 7.86625 -8.93274
445 1 11.091 11.007 7.62256 -8.16388
446 1 14.1612 11.007 7.85435 -8.97287
447 1 17.2994 11.007 7.86251 -8.95126
448 1 20.4419 11.007 7.8621 -8.94962
449 1 22.0136 12.5794 6.28928 -8.94995
450 1 1.56957 14.1525 7.86147 -8.95147
451 1 3.1426 12.5789 6.28852 -8.95006
452 1 4.70599 14.156 7.85867 -8.95731
453 1 6.28422 12.5772 6.2867 -8.951
454 1 7.81916 14.1858 7.82797 -8.88274
455 1 9.41993 12.5999 6.28485 -8.95308
456 1 11.0248 14.159 7.83741 -8.94343
457 1 12.6216 12.6133 6.25161 -8.84877
458 1 14.1562 14.1529 7.86422 -8.95298
459 1 15.7345 12.5818 6.28608 -8.95829
460 1 17.2983 14.1525 7.86273 -8.94991
461 1 18.8713 12.5796 6.28937 -8.95175
462 1 20.4414 14.1522 7.86205 -8.94995
463 1 -0.000878009 15.7247 6.28928 -8.95005
464 1 1.57113 17.2975 7.86181 -8.94936
465 1 3.14075 15.7263 6.28756 -8.95044
466 1 4.71402 17.2999 7.86083 -8.9479
467 1 6.27721 15.7362 6.27779 -8.92991
468 1 7.85937 17.304 7.86062 -8.95833
469 1 9.43389 15.7315 6.28535 -8.95152
470 1 11.0068 17.2983 7.86189 -8.95145
471 1 12.5858 15.7347 6.28312 -8.95284
472 1 14.1523 17.2976 7.86281 -8.94908
473 1 15.7265 15.7258 6.28961 -8.95144
474 1 17.2974 17.2974 7.86209 -8.94897
475 1 18.8697 15.7247 6.28969 -8.94978
476 1 20.4414 17.2971 7.86202 -8.94956
477 1 22.0136 18.8694 6.28955 -8.94951
478 1 1.57203 20.4418 7.86204 -8.94957
479 1 3.14377 18.8701 6.28913 -8.94932
480 1 4.71646 20.4424 7.86182 -8.94944
481 1 6.28829 18.8723 6.28825 -8.95155
482 1 7.86204 20.4429 7.86197 -8.95121
483 1 9.43482 18.8713 6.28879 -8.9503
484 1 11.0071 20.4421 7.86216 -8.94947
485 1 12.5798 18.8712 6.28938 -8.95245
486 1 14.1521 20.4418 7.8622 -8.94941
487 1 15.7246 18.8697 6.28987 -8.94965
488 1 17.2969 20.4417 7.86208 -8.94957
489 1 18.8692 18.8694 6.28964 -8.94945
490 1 20.4415 20.4416 7.86208 -8.9496
491 1 22.0127 12.5795 9.43436 -8.94975
492 1 3.13982 12.5799 9.43363 -8.95019
493 1 6.2762 12.5884 9.43201 -9.02122
494 1 9.35674 12.8302 9.42739 -8.33799
495 1 12.5594 12.5707 9.43168 -8.95918
496 1 15.7229 12.5791 9.43442 -8.9402
497 1 18.8696 12.5798 9.4345 -8.94796
498 1 22.013 15.7248 9.43451 -8.94989
499 1 3.14076 15.7264 9.43448 -8.94916
500 1 6.27953 15.7339 9.43446 -8.94328
501 1 9.42973 15.7222 9.43441 -9.00878
513 1 4.70661 11.007 11.0074 -8.9574
531 1 17.2974 17.2975 11.0069 -8.949
526 1 1.57112 17.2975 11.0072 -8.94928
527 1 4.71399 17.2999 11.0081 -8.94749
389 1 15.7244 18.8694 -0.000224591 -8.94969
534 1 4.71645 20.4424 11.0072 -8.9494
365 1 6.61154e-06 15.7243 -0.000112723 -8.94957
377 1 18.8694 15.7244 -0.000233093 -8.94957
512 1 1.56945 11.007 11.0074 -8.95121
686 1 20.4415 20.4415 20.4415 -8.94941
514 1 7.82667 11.007 11.0183 -9.14314
515 1 11.115 11.007 11.2498 -8.34238
685 1 18.8694 18.8694 18.8693 -8.94922
517 1 17.2993 11.007 11.0065 -8.95127
518 1 20.4416 11.007 11.0069 -8.95006
519 1 1.56971 14.1523 11.0072 -8.95143
520 1 4.70643 14.1553 11.0094 -8.95821
521 1 7.81972 14.1885 11.0429 -8.90445
522 1 11.023 14.16 11.0318 -8.95828
523 1 14.1558 14.153 11.0039 -8.95264
524 1 17.2983 14.1525 11.0062 -8.94975
525 1 20.4415 14.1521 11.0069 -8.94988
391 1 18.8693 18.8693 22.0137 -8.94927
387 1 12.5794 18.8694 22.0137 -8.94952
528 1 7.85941 17.3045 11.0083 -8.95879
529 1 11.0067 17.2986 11.0069 -8.95137
530 1 14.1524 17.2977 11.0061 -8.94884
684 1 17.2967 20.4416 20.4415 -8.94966
683 1 15.7244 18.8694 18.8693 -8.94964
533 1 1.57203 20.4418 11.007 -8.94956
383 1 6.28957 18.8693 22.0137 -8.94951
535 1 7.86203 20.443 11.007 -8.95132
536 1 11.0071 20.4421 11.0068 -8.9495
537 1 14.1521 20.4419 11.0068 -8.94943
682 1 14.1518 20.4416 20.4415 -8.94958
539 1 20.4415 20.4416 11.007 -8.9496
540 1 1.57145 11.007 14.1527 -8.94902
541 1 4.71567 11.007 14.1532 -8.94677
542 1 7.86529 11.007 14.1477 -8.99197
543 1 11.0116 11.007 14.1454 -9.05016
544 1 14.1617 11.007 14.161 -8.94281
545 1 17.3005 11.007 14.1538 -8.94896
546 1 20.4422 11.007 14.1524 -8.94983
547 1 -0.000699739 12.5795 12.5799 -8.95008
548 1 1.57124 14.1522 14.1527 -8.9495
549 1 3.14121 12.5798 12.5812 -8.9484
550 1 4.71413 14.1528 14.1544 -8.95019
551 1 6.28297 12.5809 12.5831 -8.97951
552 1 7.8555 14.1593 14.1637 -8.95169
553 1 9.41946 12.6064 12.5944 -8.94965
554 1 11.008 14.1584 14.162 -8.94877
555 1 12.6215 12.6182 12.6181 -8.87781
556 1 14.1651 14.1645 14.1647 -8.92798
557 1 15.7344 12.582 12.5829 -8.95852
558 1 17.3006 14.1537 14.1536 -8.95109
559 1 18.8712 12.5797 12.5797 -8.95182
560 1 20.4421 14.1522 14.1522 -8.95022
561 1 22.0131 15.7247 12.5797 -8.95011
562 1 1.57116 17.2975 14.1526 -8.94976
563 1 3.14086 15.7262 12.5812 -8.95113
564 1 4.71339 17.3006 14.1557 -8.94457
565 1 6.27682 15.7372 12.5915 -8.93024
566 1 7.86118 17.3001 14.1543 -8.94934
567 1 9.43403 15.7333 12.5845 -8.95184
568 1 11.0075 17.3 14.1541 -8.94801
569 1 12.5858 15.7358 12.5858 -8.95419
570 1 14.1545 17.3012 14.1543 -8.94986
571 1 15.7264 15.7259 12.5792 -8.95156
572 1 17.2975 17.2975 14.152 -8.95033
573 1 18.8697 15.7247 12.5793 -8.94973
574 1 20.4414 17.297 14.1519 -8.9498
575 1 -0.000321081 18.8694 12.5795 -8.9495
576 1 1.57207 20.4417 14.152 -8.94958
577 1 3.14377 18.8701 12.5799 -8.9493
578 1 4.71656 20.4424 14.1525 -8.95004
579 1 6.28825 18.8725 12.5808 -8.9517
580 1 7.86206 20.4424 14.1524 -8.94969
581 1 9.43483 18.8717 12.5802 -8.95058
582 1 11.0072 20.4424 14.1524 -8.94968
583 1 12.5798 18.8714 12.5796 -8.95266
584 1 14.1522 20.4424 14.1521 -8.95059
585 1 15.7246 18.8697 12.5792 -8.94959
586 1 17.2968 20.4417 14.1518 -8.94969
587 1 18.8692 18.8694 12.5794 -8.94944
588 1 20.4415 20.4416 14.1518 -8.94957
589 1 1.57217 11.007 17.2971 -8.9496
590 1 4.71669 11.007 17.2974 -8.94941
591 1 7.86183 11.007 17.2969 -8.94719
592 1 11.0071 11.007 17.2974 -8.94497
593 1 14.1537 11.007 17.3 -8.94946
594 1 17.2977 11.007 17.2977 -8.94948
595 1 20.4418 11.007 17.297 -8.94955
596 1 22.0139 12.5795 15.7247 -8.9495
597 1 1.57222 14.1518 17.297 -8.94955
598 1 3.14416 12.5793 15.7252 -8.94929
599 1 4.71691 14.1516 17.2974 -8.94998
600 1 6.28945 12.5784 15.7253 -8.95038
601 1 7.86172 14.1521 17.2991 -8.95274
602 1 9.4352 12.5792 15.7268 -8.95441
603 1 11.0067 14.1529 17.2996 -8.95082
604 1 12.5818 12.5805 15.732 -8.96024
605 1 14.1532 14.1532 17.3 -8.95185
606 1 15.7274 12.5805 15.7274 -8.94758
607 1 17.2977 14.1523 17.2977 -8.94927
608 1 18.8703 12.5796 15.725 -8.94925
609 1 20.4418 14.1519 17.297 -8.94949
610 1 -0.000129507 15.7245 15.7246 -8.94971
611 1 1.57211 17.2969 17.297 -8.9497
612 1 3.1437 15.7247 15.7253 -8.94986
613 1 4.7163 17.2976 17.2981 -8.94932
614 1 6.2869 15.7269 15.7288 -8.94933
615 1 7.8618 17.2975 17.2978 -8.94906
616 1 9.43398 15.7268 15.7276 -8.94712
617 1 11.007 17.2976 17.2978 -8.94934
618 1 12.5806 15.727 15.7277 -8.94857
619 1 14.1523 17.2977 17.2978 -8.94952
620 1 15.7282 15.7282 15.7281 -8.94415
621 1 17.2977 17.2978 17.2977 -8.94816
622 1 18.8703 15.725 15.725 -8.94971
623 1 20.4417 17.2969 17.2969 -8.94954
624 1 22.0136 18.8693 15.7245 -8.94959
625 1 1.57212 20.4417 17.2969 -8.94926
626 1 3.14375 18.8701 15.7253 -8.94826
627 1 4.71708 20.4417 17.297 -8.94967
628 1 6.28924 18.8702 15.7252 -8.94966
629 1 7.86204 20.4418 17.297 -8.94951
630 1 9.4345 18.8702 15.7252 -8.94934
631 1 11.007 20.4418 17.297 -8.94955
632 1 12.5797 18.8703 15.7251 -8.94916
633 1 14.1519 20.4418 17.2969 -8.94951
634 1 15.7252 18.8705 15.7251 -8.94942
635 1 17.2969 20.4418 17.2969 -8.9495
636 1 18.8693 18.8694 15.7244 -8.94983
637 1 20.4415 20.4416 17.2967 -8.94964
638 1 1.57229 11.007 20.4415 -8.94961
639 1 4.71695 11.007 20.4415 -8.9497
640 1 7.86182 11.007 20.4415 -8.9492
641 1 11.0067 11.007 20.4415 -8.94854
642 1 14.1524 11.007 20.4415 -8.95026
643 1 17.2971 11.007 20.4415 -8.94951
644 1 20.4416 11.007 20.4415 -8.94961
645 1 -4.44874e-06 12.5794 18.8692 -8.9496
646 1 1.57231 14.1518 20.4415 -8.94958
647 1 3.14457 12.5794 18.8693 -8.94957
648 1 4.71705 14.1518 20.4415 -8.94961
649 1 6.2894 12.5792 18.8695 -8.94944
650 1 7.86194 14.1519 20.4416 -8.9504
651 1 9.4344 12.5792 18.8698 -8.94976
652 1 11.0067 14.1521 20.4416 -8.95025
653 1 12.5794 12.5794 18.8706 -8.95135
654 1 14.1521 14.1522 20.4415 -8.95062
655 1 15.725 12.5796 18.87 -8.94937
656 1 17.2971 14.152 20.4415 -8.94944
657 1 18.8694 12.5794 18.8693 -8.94956
658 1 20.4416 14.1518 20.4415 -8.94961
659 1 22.0139 15.7243 18.8692 -8.9496
660 1 1.57234 17.2967 20.4415 -8.9497
661 1 3.14464 15.7242 18.8693 -8.94977
662 1 4.71698 17.2969 20.4415 -8.94995
663 1 6.28928 15.7246 18.87 -8.95055
664 1 7.86193 17.297 20.4415 -8.9495
665 1 9.43427 15.7249 18.87 -8.94957
666 1 11.0069 17.2971 20.4415 -8.94955
667 1 12.5795 15.7249 18.87 -8.94963
668 1 14.1519 17.297 20.4415 -8.94959
669 1 15.7249 15.7249 18.87 -8.95006
670 1 17.297 17.297 20.4415 -8.94958
671 1 18.8694 15.7244 18.8693 -8.94958
672 1 20.4416 17.2967 20.4415 -8.94963
673 1 -1.44588e-05 18.8692 18.8692 -8.94959
674 1 1.57231 20.4416 20.4415 -8.94951
675 1 3.14454 18.8694 18.8694 -8.94949
676 1 4.7172 20.4416 20.4415 -8.9496
677 1 6.28955 18.8694 18.8694 -8.9495
678 1 7.86207 20.4416 20.4415 -8.9496
679 1 9.43449 18.8694 18.8694 -8.94956
680 1 11.007 20.4416 20.4415 -8.9496
681 1 12.5794 18.8694 18.8694 -8.94952
351 1 22.0139 12.5794 22.0138 -8.94961
355 1 6.28939 12.5793 22.0135 -8.94953
359 1 12.5794 12.5795 22.0124 -8.95144
379 1 22.0139 18.8691 22.0138 -8.94962
367 1 3.14465 15.7242 22.0137 -8.94971
375 1 15.7249 15.7249 22.013 -8.94998
357 1 9.43438 12.5793 22.0134 -8.94935
363 1 18.8694 12.5794 22.0136 -8.94956
516 1 14.1605 11.007 11.014 -8.97971
