ITEM: TIMESTEP
97
ITEM: NUMBER OF ATOMS
688
ITEM: BOX BOUNDS pp pp pp
0.0000000000000000e+00 2.2013900999999997e+01
0.0000000000000000e+00 2.2013900999999997e+01
0.0000000000000000e+00 2.2013900999999997e+01
ITEM: ATOMS id type x y z c_pot
1 1 -0.000149329 -6.21448e-16 -0.000143014 -8.9493
2 1 1.57193 1.57211 1.57193 -8.94919
189 1 20.4413 4.71659 11.0071 -8.94955
4 1 4.71692 1.57203 1.57186 -8.94964
175 1 18.8694 9.43417 9.4345 -8.9478
6 1 7.862 1.57203 1.57188 -8.94948
174 1 15.7223 9.43502 9.43439 -8.94007
8 1 11.007 1.572 1.5719 -8.94952
173 1 12.5583 9.44375 9.43143 -8.95878
10 1 14.152 1.57198 1.57198 -8.94951
172 1 9.35819 9.18554 9.42737 -8.34441
12 1 17.2971 1.57192 1.57196 -8.94946
188 1 17.2975 4.71625 11.0069 -8.94895
14 1 20.4415 1.5722 1.57222 -8.94959
171 1 6.27627 9.42512 9.43215 -9.02127
16 1 1.572 4.71693 1.57182 -8.9498
17 1 3.14436 3.14438 -0.000463717 -8.9495
18 1 4.7161 4.71616 1.5707 -8.94951
170 1 3.13952 9.43387 9.43363 -8.95015
20 1 7.8617 4.71624 1.57107 -8.94913
21 1 9.43445 3.14428 -0.000377173 -8.94951
22 1 11.007 4.7161 1.57115 -8.94936
169 1 22.0124 9.43435 9.43434 -8.94964
24 1 14.1525 4.71592 1.57106 -8.94973
168 1 18.8697 6.28874 9.43451 -8.94953
26 1 17.2981 4.71581 1.57116 -8.94817
167 1 15.7261 6.28771 9.43442 -8.94612
28 1 20.4419 4.7168 1.57197 -8.94955
166 1 12.5777 6.29163 9.43451 -8.94542
30 1 1.57212 7.86199 1.57185 -8.94942
165 1 9.42941 6.29191 9.43454 -9.00835
32 1 4.71672 7.86222 1.57145 -8.9497
33 1 6.28919 6.2893 -0.000916029 -8.95068
34 1 7.86173 7.86182 1.57023 -8.95246
35 1 9.4342 6.28892 -0.000869388 -8.94963
36 1 11.0067 7.86103 1.56968 -8.95057
37 1 12.5795 6.28886 -0.000977935 -8.94973
38 1 14.1537 7.86037 1.56855 -8.95162
164 1 6.27841 6.27922 9.43451 -8.94303
40 1 17.2982 7.86125 1.571 -8.94918
163 1 3.13987 6.2869 9.43445 -8.94916
42 1 20.442 7.86183 1.57188 -8.94945
162 1 22.0126 6.28884 9.43449 -8.94994
44 1 3.14445 9.4345 -0.000405085 -8.94956
161 1 18.8693 3.14428 9.43451 -8.94956
181 1 17.297 1.57207 11.0069 -8.94955
160 1 15.7249 3.14394 9.43447 -8.9496
48 1 15.7254 9.4341 -0.00126309 -8.94938
159 1 12.5796 3.14456 9.43444 -8.94826
50 1 22.0136 1.46836e-16 3.14462 -8.94956
51 1 1.57178 1.572 4.71682 -8.94951
52 1 3.14419 -1.51295e-15 3.14415 -8.94956
53 1 4.71629 1.57127 4.71622 -8.95003
54 1 6.28947 -1.41241e-15 3.14421 -8.94959
55 1 7.86201 1.57143 4.71645 -8.94966
56 1 9.43459 8.88081e-16 3.14422 -8.94954
57 1 11.0072 1.57151 4.71653 -8.9496
58 1 12.5796 1.73857e-15 3.14432 -8.94952
59 1 14.1523 1.5714 4.71684 -8.95069
60 1 15.7247 1.8046e-15 3.14444 -8.95003
61 1 17.2969 1.57208 4.71722 -8.94973
62 1 18.8692 1.05447e-15 3.14475 -8.94971
63 1 20.4414 1.5722 4.71712 -8.94953
64 1 -0.000466743 3.14437 3.14437 -8.94953
65 1 1.57073 4.71615 4.7161 -8.94957
66 1 3.14342 3.14356 3.14338 -8.94823
67 1 4.71292 4.71305 4.71292 -8.94461
68 1 6.28903 3.14352 3.14353 -8.94965
69 1 7.86087 4.71388 4.71457 -8.94915
70 1 9.43447 3.14357 3.1437 -8.94936
71 1 11.0074 4.71416 4.7148 -8.94783
72 1 12.5798 3.14348 3.14382 -8.94918
73 1 14.1549 4.71236 4.71429 -8.94975
74 1 15.7255 3.14304 3.14368 -8.94939
75 1 17.2978 4.71605 4.71682 -8.95034
76 1 18.8694 3.14427 3.14454 -8.94982
77 1 20.4414 4.71672 4.71694 -8.94981
78 1 22.0138 6.28935 3.14427 -8.94983
79 1 1.57137 7.86196 4.71639 -8.94985
80 1 3.14356 6.28914 3.14348 -8.95023
81 1 4.71434 7.86156 4.71482 -8.95114
82 1 6.28684 6.28702 3.14018 -8.95006
83 1 7.85595 7.85595 4.70695 -8.95389
84 1 9.43392 6.28728 3.14164 -8.94763
85 1 11.0076 7.85732 4.70842 -8.95203
86 1 12.5806 6.287 3.14116 -8.94944
87 1 14.1655 7.84948 4.7039 -8.92856
88 1 15.7287 6.28532 3.14056 -8.94425
89 1 17.3012 7.85991 4.71503 -8.95089
90 1 18.8706 6.28861 3.14382 -8.94966
91 1 20.4423 7.86166 4.71667 -8.95023
92 1 9.40337e-06 9.43439 3.14413 -8.94954
93 1 3.14384 9.43446 3.1436 -8.94892
94 1 6.28904 9.4352 3.14347 -8.94939
95 1 9.43514 9.43453 3.14354 -8.95095
96 1 12.5827 9.43309 3.13615 -8.95972
97 1 15.7283 9.43304 3.14082 -8.94748
98 1 18.8708 9.43411 3.14367 -8.94927
99 1 -0.000312932 3.50525e-17 6.28954 -8.94956
100 1 1.57171 1.57196 7.86193 -8.94952
101 1 3.14406 -1.27404e-15 6.28925 -8.94944
102 1 4.71608 1.57118 7.86166 -8.94944
103 1 6.28923 -1.76675e-16 6.28913 -8.95065
104 1 7.8619 1.57085 7.8619 -8.95124
105 1 9.43478 1.54715e-15 6.28925 -8.95014
106 1 11.0071 1.57187 7.86216 -8.94942
107 1 12.5796 1.82165e-15 6.28961 -8.95046
108 1 14.1522 1.57201 7.86221 -8.94939
109 1 15.7245 1.80232e-15 6.28972 -8.94955
110 1 17.297 1.57207 7.86207 -8.94955
111 1 18.8692 1.72235e-15 6.28962 -8.94954
112 1 20.4414 1.57216 7.86204 -8.94956
113 1 22.0133 3.14427 6.28939 -8.94947
114 1 1.57059 4.71599 7.86163 -8.94933
115 1 3.14326 3.14336 6.28879 -8.94924
116 1 4.71316 4.71328 7.86053 -8.9478
117 1 6.28787 3.14115 6.28795 -8.95158
118 1 7.85878 4.70959 7.86053 -8.95839
119 1 9.4347 3.1423 6.2886 -8.95046
120 1 11.0066 4.71568 7.86173 -8.95151
121 1 12.5799 3.14247 6.28925 -8.95263
122 1 14.1524 4.71627 7.86274 -8.94903
123 1 15.7247 3.144 6.28983 -8.94966
124 1 17.2975 4.71626 7.86208 -8.94892
125 1 18.8693 3.14434 6.2896 -8.94941
126 1 20.4413 4.71659 7.86197 -8.94955
127 1 -0.0011479 6.28899 6.28912 -8.95011
128 1 1.56909 7.86125 7.86135 -8.95155
129 1 3.14005 6.2872 6.28717 -8.95045
130 1 4.70522 7.85738 7.85857 -8.95733
131 1 6.27639 6.27708 6.27739 -8.9301
132 1 7.81877 7.82768 7.82838 -8.88416
133 1 9.43345 6.28167 6.28487 -8.95164
134 1 11.0249 7.85468 7.8364 -8.94353
135 1 12.5863 6.27858 6.28234 -8.95283
136 1 14.1564 7.86088 7.86393 -8.95301
137 1 15.7269 6.28773 6.28934 -8.95152
138 1 17.2984 7.86139 7.86272 -8.95001
139 1 18.8698 6.28901 6.28963 -8.94985
140 1 20.4413 7.86163 7.86202 -8.94996
141 1 22.0135 9.43447 6.28915 -8.94996
142 1 3.14232 9.435 6.2884 -8.95013
143 1 6.28387 9.43647 6.28679 -8.95138
144 1 9.41917 9.41267 6.28402 -8.95163
145 1 12.6229 9.39961 6.25015 -8.84731
146 1 15.7352 9.43193 6.28545 -8.9585
147 1 18.8716 9.4342 6.28921 -8.95188
148 1 -0.00033086 -8.02044e-16 9.43452 -8.94957
149 1 3.14399 -6.53564e-16 9.43451 -8.94949
150 1 6.28893 4.85149e-18 9.43447 -8.95031
151 1 9.43476 1.51892e-15 9.43445 -8.94857
152 1 12.5797 1.84573e-15 9.43447 -8.94917
153 1 15.7246 1.51433e-15 9.4345 -8.94967
154 1 18.8692 1.01638e-15 9.43452 -8.94959
155 1 -0.000582817 3.14424 9.43452 -8.94951
156 1 3.14318 3.14332 9.43449 -8.94945
157 1 6.28727 3.14095 9.43444 -8.94968
158 1 9.43435 3.14386 9.43439 -8.94693
177 1 4.71606 1.57115 11.0073 -8.94941
183 1 1.57057 4.71601 11.0074 -8.94925
184 1 4.71309 4.71323 11.0083 -8.94739
5 1 6.28957 8.73064e-16 -0.000213976 -8.94953
41 1 18.8697 6.28926 -0.00039122 -8.94949
7 1 9.43451 1.63313e-15 -0.000222967 -8.94956
9 1 12.5795 1.56935e-15 -0.000203337 -8.94955
29 1 4.67167e-05 6.28954 -0.000222604 -8.94953
25 1 15.7246 3.14424 -0.000368346 -8.94965
176 1 1.5717 1.57196 11.0071 -8.94951
47 1 12.5796 9.4344 22.0122 -8.95153
178 1 7.86189 1.57071 11.007 -8.95141
179 1 11.0071 1.57177 11.0068 -8.94947
180 1 14.1522 1.57197 11.0068 -8.9494
343 1 18.8697 9.43437 18.8695 -8.9495
182 1 20.4414 1.57216 11.007 -8.94956
45 1 6.28933 9.43466 22.0134 -8.94948
43 1 22.0139 9.43447 22.0136 -8.94957
185 1 7.85878 4.70882 11.0085 -8.95894
186 1 11.0066 4.71522 11.0071 -8.95144
187 1 14.1525 4.7161 11.0061 -8.94877
342 1 15.7254 9.43412 18.8703 -8.94937
341 1 12.5796 9.43442 18.8708 -8.95142
190 1 1.5692 7.86144 11.0073 -8.95151
191 1 4.70559 7.85801 11.0096 -8.95827
192 1 7.81927 7.82454 11.0429 -8.90593
193 1 11.0231 7.85353 11.0328 -8.95834
194 1 14.1558 7.86086 11.0041 -8.95277
195 1 17.2983 7.86138 11.0062 -8.94985
196 1 20.4413 7.86165 11.0069 -8.94989
197 1 22.0136 -1.29658e-15 12.5795 -8.94956
198 1 1.57177 1.57199 14.1522 -8.94952
199 1 3.14404 -2.05889e-15 12.5798 -8.94943
200 1 4.71623 1.57118 14.1528 -8.95007
201 1 6.28919 -5.44417e-16 12.5799 -8.95073
202 1 7.86196 1.57125 14.1526 -8.94977
203 1 9.43478 1.82893e-15 12.5798 -8.95029
204 1 11.0073 1.5713 14.1526 -8.94974
205 1 12.5796 1.68911e-15 12.5794 -8.95053
206 1 14.1524 1.57131 14.1522 -8.95073
207 1 15.7246 9.4547e-16 12.5793 -8.94954
208 1 17.297 1.57207 14.1518 -8.94971
209 1 18.8692 -8.83493e-16 12.5794 -8.94955
210 1 20.4414 1.5722 14.1519 -8.94952
211 1 -0.000565751 3.14427 12.5796 -8.94945
212 1 1.57071 4.71611 14.1529 -8.94976
213 1 3.14324 3.14333 12.5802 -8.94922
214 1 4.71264 4.71267 14.1563 -8.94446
215 1 6.28777 3.14083 12.5811 -8.95174
216 1 7.86065 4.71303 14.1549 -8.94933
217 1 9.43472 3.14176 12.5805 -8.95075
218 1 11.0076 4.71321 14.1547 -8.94793
219 1 12.5799 3.14217 12.5797 -8.95282
220 1 14.1551 4.71202 14.1549 -8.94981
221 1 15.7248 3.14395 12.5792 -8.94959
222 1 17.2979 4.71604 14.1522 -8.95041
223 1 18.8693 3.14433 12.5794 -8.94941
224 1 20.4414 4.71672 14.1521 -8.94985
225 1 22.0128 6.28903 12.5798 -8.95018
226 1 1.57095 7.86163 14.1529 -8.94956
227 1 3.14007 6.28719 12.5816 -8.95115
228 1 4.71364 7.86085 14.1547 -8.95054
229 1 6.27582 6.27583 12.5921 -8.9302
230 1 7.85469 7.85358 14.1645 -8.95116
231 1 9.4336 6.27956 12.5853 -8.95198
232 1 11.0084 7.85465 14.163 -8.94853
233 1 12.5863 6.27743 12.5867 -8.95409
234 1 14.1661 7.8487 14.1656 -8.92774
235 1 15.7268 6.28771 12.5795 -8.95167
236 1 17.3012 7.85987 14.154 -8.95116
237 1 18.8698 6.28902 12.5794 -8.94981
238 1 20.4422 7.86159 14.1524 -8.95029
239 1 -0.000840808 9.43432 12.58 -8.95007
240 1 3.14093 9.43406 12.5812 -8.94838
241 1 6.28307 9.43297 12.5827 -8.97979
242 1 9.41881 9.40581 12.5957 -8.94853
243 1 12.6222 9.3951 12.6191 -8.87731
244 1 15.7348 9.43178 12.5833 -8.95873
245 1 18.8714 9.43418 12.5798 -8.95193
246 1 22.0136 -9.65175e-16 15.7244 -8.94957
247 1 1.5719 1.57209 17.2972 -8.94918
248 1 3.14415 -1.22477e-15 15.7249 -8.94957
249 1 4.71685 1.57197 17.2973 -8.94962
250 1 6.28942 -1.06538e-15 15.7249 -8.94963
251 1 7.86196 1.57195 17.2973 -8.94945
252 1 9.43458 1.83478e-16 15.7249 -8.94957
253 1 11.007 1.57193 17.2973 -8.9495
254 1 12.5797 1.77122e-15 15.7248 -8.94955
255 1 14.1521 1.57192 17.2972 -8.94949
256 1 15.7247 9.41838e-16 15.7246 -8.95004
257 1 17.2972 1.5719 17.2971 -8.94947
258 1 18.8692 -4.28283e-16 15.7243 -8.94971
259 1 20.4415 1.57219 17.2968 -8.94961
260 1 22.0134 3.14435 15.7247 -8.94958
261 1 1.57192 4.71687 17.2973 -8.94973
262 1 3.14332 3.14345 15.7257 -8.94818
263 1 4.71591 4.71599 17.2986 -8.94928
264 1 6.28889 3.14327 15.7257 -8.94963
265 1 7.8616 4.71602 17.2983 -8.94902
266 1 9.43445 3.14326 15.7256 -8.94929
267 1 11.0071 4.71587 17.2982 -8.9493
268 1 12.5799 3.1432 15.7254 -8.94913
269 1 14.1527 4.71573 17.2982 -8.94948
270 1 15.7256 3.14294 15.7254 -8.9494
271 1 17.2982 4.71572 17.298 -8.94809
272 1 18.8695 3.14426 15.7245 -8.94986
273 1 20.4419 4.71676 17.2971 -8.94952
274 1 -0.000186882 6.28924 15.7249 -8.94976
275 1 1.57214 7.86203 17.2972 -8.94952
276 1 3.1433 6.28895 15.7257 -8.95
277 1 4.71675 7.86227 17.2977 -8.94999
278 1 6.28627 6.28637 15.7296 -8.94917
279 1 7.86159 7.86161 17.2995 -8.95292
280 1 9.43386 6.28655 15.7283 -8.94704
281 1 11.0069 7.86074 17.3 -8.95098
282 1 12.5811 6.28627 15.7285 -8.9485
283 1 14.1537 7.86039 17.3006 -8.9519
284 1 15.729 6.28508 15.7287 -8.94405
285 1 17.2982 7.86129 17.2981 -8.94919
286 1 18.8707 6.28856 15.7253 -8.94974
287 1 20.442 7.86184 17.2972 -8.94944
288 1 22.0139 9.43439 15.725 -8.94948
289 1 3.14398 9.43458 15.7254 -8.94927
290 1 6.28934 9.43545 15.7253 -8.9502
291 1 9.43527 9.43445 15.727 -8.95471
292 1 12.5824 9.43315 15.7326 -8.96032
293 1 15.7282 9.43311 15.7281 -8.94748
294 1 18.8707 9.43412 15.7254 -8.94923
295 1 -0.000158765 -1.47274e-15 18.8692 -8.94931
296 1 1.57219 1.57221 20.4415 -8.94942
297 1 3.1446 -1.69851e-16 18.8693 -8.94961
298 1 4.71709 1.57221 20.4415 -8.94956
299 1 6.28954 5.5573e-16 18.8693 -8.94952
300 1 7.86201 1.57217 20.4415 -8.94955
301 1 9.43451 9.66335e-16 18.8694 -8.94955
302 1 11.007 1.57215 20.4415 -8.94955
303 1 12.5795 1.77976e-15 18.8693 -8.94954
304 1 14.1519 1.57217 20.4415 -8.94953
305 1 15.7244 1.73327e-15 18.8693 -8.94956
306 1 17.2969 1.57217 20.4415 -8.94961
307 1 18.8693 7.77661e-16 18.8693 -8.94941
308 1 20.4416 1.57226 20.4415 -8.94929
309 1 -4.24703e-05 3.14461 18.8693 -8.94956
310 1 1.57227 4.71714 20.4415 -8.94972
311 1 3.14432 3.14435 18.8696 -8.94945
312 1 4.7168 4.71685 20.4416 -8.95003
313 1 6.28939 3.14432 18.8696 -8.94947
314 1 7.86181 4.71667 20.4416 -8.9495
315 1 9.43444 3.14422 18.8696 -8.94951
316 1 11.0069 4.71657 20.4416 -8.94953
317 1 12.5795 3.14421 18.8696 -8.94946
318 1 14.1521 4.71658 20.4416 -8.9496
319 1 15.7246 3.14421 18.8695 -8.94959
320 1 17.2973 4.71657 20.4415 -8.94956
321 1 18.8696 3.14432 18.8694 -8.94914
322 1 20.4417 4.71704 20.4415 -8.94957
323 1 22.0139 6.28954 18.8693 -8.94956
324 1 1.57226 7.86204 20.4415 -8.94956
325 1 3.14451 6.28962 18.8695 -8.94981
326 1 4.71695 7.86215 20.4415 -8.9496
327 1 6.2891 6.28921 18.8703 -8.95068
328 1 7.86188 7.86206 20.4416 -8.95048
329 1 9.43419 6.28882 18.8703 -8.94961
330 1 11.0067 7.86167 20.4416 -8.95034
331 1 12.5796 6.28875 18.8703 -8.94971
332 1 14.1523 7.86158 20.4415 -8.9507
333 1 15.7253 6.28863 18.8703 -8.9501
334 1 17.2974 7.86169 20.4415 -8.94939
335 1 18.8697 6.28927 18.8695 -8.94951
336 1 20.4418 7.86196 20.4415 -8.94955
337 1 4.24322e-05 9.43447 18.8693 -8.94957
338 1 3.14447 9.43452 18.8694 -8.94956
339 1 6.28933 9.4347 18.8695 -8.94937
340 1 9.43442 9.43472 18.8698 -8.94977
39 1 15.7252 6.28864 22.0128 -8.95002
31 1 3.14453 6.28961 22.0135 -8.94974
27 1 18.8695 3.14435 22.0136 -8.94918
11 1 15.7244 1.76008e-15 22.0137 -8.94958
15 1 22.0139 3.14463 22.0137 -8.94958
19 1 6.28943 3.14438 22.0135 -8.94948
23 1 12.5795 3.14427 22.0135 -8.94947
3 1 3.14462 -2.44318e-16 22.0137 -8.94962
13 1 18.8693 6.41473e-16 22.0137 -8.9494
46 1 9.43439 9.43465 22.0134 -8.94931
49 1 18.8697 9.43437 22.0135 -8.9495
344 1 1.57209 11.007 1.57179 -8.94958
345 1 4.71657 11.007 1.57134 -8.94967
346 1 7.86198 11.007 1.57211 -8.94848
347 1 11.007 11.007 1.5715 -8.94643
348 1 14.1543 11.007 1.56831 -8.94956
349 1 17.2983 11.007 1.57095 -8.94945
350 1 20.442 11.007 1.57184 -8.94951
688 3 10.2319 11.007 9.43513 2.204
352 1 1.57212 14.1519 1.57185 -8.94942
353 1 3.14445 12.5794 -0.000405085 -8.94956
354 1 4.71672 14.1517 1.57145 -8.9497
687 2 9.50934 11.007 10.1864 -0.00761019
356 1 7.86173 14.1521 1.57023 -8.95246
538 1 17.297 20.4418 11.0069 -8.94955
358 1 11.0067 14.1529 1.56968 -8.95057
511 1 18.8693 18.8696 9.43451 -8.94956
360 1 14.1537 14.1535 1.56855 -8.95162
361 1 15.7254 12.5798 -0.00126309 -8.94938
362 1 17.2982 14.1526 1.571 -8.94918
532 1 20.4413 17.2973 11.0071 -8.94955
364 1 20.442 14.1521 1.57188 -8.94945
510 1 15.7249 18.87 9.43447 -8.9496
366 1 1.572 17.297 1.57182 -8.9498
509 1 12.5796 18.8693 9.43444 -8.94826
368 1 4.7161 17.2977 1.5707 -8.94951
369 1 6.28919 15.7246 -0.000916029 -8.95068
370 1 7.8617 17.2977 1.57107 -8.94913
371 1 9.4342 15.725 -0.000869388 -8.94963
372 1 11.007 17.2978 1.57115 -8.94936
373 1 12.5795 15.725 -0.000977935 -8.94973
374 1 14.1525 17.298 1.57106 -8.94973
508 1 9.43435 18.87 9.43439 -8.94693
376 1 17.2981 17.2981 1.57116 -8.94817
507 1 6.28727 18.873 9.43444 -8.94968
378 1 20.4419 17.2971 1.57197 -8.94955
506 1 3.14318 18.8706 9.43449 -8.94945
380 1 1.57193 20.4418 1.57193 -8.94919
381 1 3.14436 18.8695 -0.000463717 -8.9495
382 1 4.71692 20.4419 1.57186 -8.94964
505 1 -0.000582817 18.8697 9.43452 -8.94951
384 1 7.862 20.4419 1.57188 -8.94948
385 1 9.43445 18.8696 -0.000377173 -8.94951
386 1 11.007 20.4419 1.5719 -8.94952
504 1 18.8697 15.7252 9.43451 -8.94953
388 1 14.152 20.4419 1.57198 -8.94951
503 1 15.7261 15.7262 9.43442 -8.94612
390 1 17.2971 20.442 1.57196 -8.94946
502 1 12.5777 15.7223 9.43451 -8.94542
392 1 20.4415 20.4417 1.57222 -8.94959
393 1 1.57138 11.007 4.71611 -8.94949
394 1 4.71488 11.007 4.71467 -8.94562
395 1 7.8638 11.007 4.71877 -8.94701
396 1 11.0125 11.007 4.72046 -9.00593
397 1 14.1633 11.007 4.70629 -8.94141
398 1 17.3014 11.007 4.71465 -8.949
399 1 20.4425 11.007 4.71648 -8.94999
400 1 9.40337e-06 12.5795 3.14413 -8.94954
401 1 1.57137 14.1519 4.71639 -8.94985
402 1 3.14384 12.5794 3.1436 -8.94892
403 1 4.71434 14.1523 4.71482 -8.95114
404 1 6.28904 12.5787 3.14347 -8.94939
405 1 7.85595 14.1579 4.70695 -8.95389
406 1 9.43514 12.5794 3.14354 -8.95095
407 1 11.0076 14.1566 4.70842 -8.95203
408 1 12.5827 12.5808 3.13615 -8.95972
409 1 14.1655 14.1644 4.7039 -8.92856
410 1 15.7283 12.5809 3.14082 -8.94748
411 1 17.3012 14.154 4.71503 -8.95089
412 1 18.8708 12.5798 3.14367 -8.94927
413 1 20.4423 14.1522 4.71667 -8.95023
414 1 22.0138 15.7245 3.14427 -8.94983
415 1 1.57073 17.2978 4.7161 -8.94957
416 1 3.14356 15.7248 3.14348 -8.95023
417 1 4.71292 17.3009 4.71292 -8.94461
418 1 6.28684 15.7269 3.14018 -8.95006
419 1 7.86087 17.3 4.71457 -8.94915
420 1 9.43392 15.7266 3.14164 -8.94763
421 1 11.0074 17.2997 4.7148 -8.94783
422 1 12.5806 15.7269 3.14116 -8.94944
423 1 14.1549 17.3015 4.71429 -8.94975
424 1 15.7287 15.7286 3.14056 -8.94425
425 1 17.2978 17.2979 4.71682 -8.95034
426 1 18.8706 15.7253 3.14382 -8.94966
427 1 20.4414 17.2972 4.71694 -8.94981
428 1 -0.000466743 18.8695 3.14437 -8.94953
429 1 1.57178 20.4419 4.71682 -8.94951
430 1 3.14342 18.8703 3.14338 -8.94823
431 1 4.71629 20.4426 4.71622 -8.95003
432 1 6.28903 18.8704 3.14353 -8.94965
433 1 7.86201 20.4425 4.71645 -8.94966
434 1 9.43447 18.8703 3.1437 -8.94936
435 1 11.0072 20.4424 4.71653 -8.9496
436 1 12.5798 18.8704 3.14382 -8.94918
437 1 14.1523 20.4425 4.71684 -8.95069
438 1 15.7255 18.8709 3.14368 -8.94939
439 1 17.2969 20.4418 4.71722 -8.94973
440 1 18.8694 18.8696 3.14454 -8.94982
441 1 20.4414 20.4417 4.71712 -8.94953
442 1 1.57088 11.007 7.86147 -8.94777
443 1 4.7166 11.007 7.8619 -8.94141
444 1 7.87556 11.007 7.86635 -8.93459
445 1 11.0905 11.007 7.61819 -8.16258
446 1 14.1608 11.007 7.85347 -8.97289
447 1 17.2994 11.007 7.86237 -8.95116
448 1 20.4418 11.007 7.86206 -8.94951
449 1 22.0135 12.5794 6.28915 -8.94996
450 1 1.56909 14.1527 7.86135 -8.95155
451 1 3.14232 12.5789 6.2884 -8.95013
452 1 4.70522 14.1565 7.85857 -8.95733
453 1 6.28387 12.5774 6.28679 -8.95138
454 1 7.81877 14.1862 7.82838 -8.88416
455 1 9.41917 12.6012 6.28402 -8.95163
456 1 11.0249 14.1592 7.8364 -8.94353
457 1 12.6229 12.6143 6.25015 -8.84731
458 1 14.1564 14.153 7.86393 -8.95301
459 1 15.7352 12.582 6.28545 -8.9585
460 1 17.2984 14.1525 7.86272 -8.95001
461 1 18.8716 12.5797 6.28921 -8.95188
462 1 20.4413 14.1523 7.86202 -8.94996
463 1 -0.0011479 15.7249 6.28912 -8.95011
464 1 1.57059 17.2979 7.86163 -8.94933
465 1 3.14005 15.7267 6.28717 -8.95045
466 1 4.71316 17.3006 7.86053 -8.9478
467 1 6.27639 15.7368 6.27739 -8.9301
468 1 7.85878 17.3043 7.86053 -8.95839
469 1 9.43345 15.7322 6.28487 -8.95164
470 1 11.0066 17.2982 7.86173 -8.95151
471 1 12.5863 15.7353 6.28234 -8.95283
472 1 14.1524 17.2976 7.86274 -8.94903
473 1 15.7269 15.7262 6.28934 -8.95152
474 1 17.2975 17.2976 7.86208 -8.94892
475 1 18.8698 15.7249 6.28963 -8.94985
476 1 20.4413 17.2973 7.86197 -8.94955
477 1 22.0133 18.8696 6.28939 -8.94947
478 1 1.57171 20.4419 7.86193 -8.94952
479 1 3.14326 18.8705 6.28879 -8.94924
480 1 4.71608 20.4427 7.86166 -8.94944
481 1 6.28787 18.8728 6.28795 -8.95158
482 1 7.8619 20.4431 7.8619 -8.95124
483 1 9.4347 18.8716 6.2886 -8.95046
484 1 11.0071 20.442 7.86216 -8.94942
485 1 12.5799 18.8714 6.28925 -8.95263
486 1 14.1522 20.4419 7.86221 -8.94939
487 1 15.7247 18.8699 6.28983 -8.94966
488 1 17.297 20.4418 7.86207 -8.94955
489 1 18.8693 18.8696 6.2896 -8.94941
490 1 20.4414 20.4417 7.86204 -8.94956
491 1 22.0124 12.5796 9.43434 -8.94964
492 1 3.13952 12.58 9.43363 -8.95015
493 1 6.27627 12.5888 9.43215 -9.02127
494 1 9.35819 12.8284 9.42737 -8.34441
495 1 12.5583 12.5701 9.43143 -8.95878
496 1 15.7223 12.5789 9.43439 -8.94007
497 1 18.8694 12.5797 9.4345 -8.9478
498 1 22.0126 15.7251 9.43449 -8.94994
499 1 3.13987 15.727 9.43445 -8.94916
500 1 6.27841 15.7347 9.43451 -8.94303
501 1 9.42941 15.722 9.43454 -9.00835
513 1 4.70693 11.007 11.0072 -8.95679
531 1 17.2975 17.2977 11.0069 -8.94895
526 1 1.57057 17.2979 11.0074 -8.94925
527 1 4.71309 17.3007 11.0083 -8.94739
389 1 15.7246 18.8697 -0.000368346 -8.94965
534 1 4.71606 20.4427 11.0073 -8.94941
365 1 4.67167e-05 15.7244 -0.000222604 -8.94953
377 1 18.8697 15.7246 -0.00039122 -8.94949
512 1 1.56926 11.007 11.0074 -8.95099
686 1 20.4416 20.4416 20.4415 -8.94929
514 1 7.82892 11.007 11.0177 -9.14436
515 1 11.1136 11.007 11.253 -8.34535
685 1 18.8696 18.8696 18.8694 -8.94914
517 1 17.299 11.007 11.0066 -8.95108
518 1 20.4415 11.007 11.0069 -8.94992
519 1 1.5692 14.1525 11.0073 -8.95151
520 1 4.70559 14.1559 11.0096 -8.95827
521 1 7.81927 14.1894 11.0429 -8.90593
522 1 11.0231 14.1604 11.0328 -8.95834
523 1 14.1558 14.153 11.0041 -8.95277
524 1 17.2983 14.1525 11.0062 -8.94985
525 1 20.4413 14.1522 11.0069 -8.94989
391 1 18.8695 18.8695 22.0136 -8.94918
387 1 12.5795 18.8696 22.0135 -8.94947
528 1 7.85878 17.3051 11.0085 -8.95894
529 1 11.0066 17.2987 11.0071 -8.95144
530 1 14.1525 17.2978 11.0061 -8.94877
684 1 17.2969 20.4417 20.4415 -8.94961
683 1 15.7246 18.8697 18.8695 -8.94959
533 1 1.5717 20.4419 11.0071 -8.94951
383 1 6.28943 18.8695 22.0135 -8.94948
535 1 7.86189 20.4432 11.007 -8.95141
536 1 11.0071 20.4421 11.0068 -8.94947
537 1 14.1522 20.4419 11.0068 -8.9494
682 1 14.1519 20.4417 20.4415 -8.94953
539 1 20.4414 20.4417 11.007 -8.94956
540 1 1.57128 11.007 14.1529 -8.94901
541 1 4.71554 11.007 14.1531 -8.94682
542 1 7.86535 11.007 14.1474 -8.99105
543 1 11.0119 11.007 14.1456 -9.05076
544 1 14.1626 11.007 14.1619 -8.94258
545 1 17.3012 11.007 14.1543 -8.94897
546 1 20.4424 11.007 14.1526 -8.94988
547 1 -0.000840808 12.5796 12.58 -8.95007
548 1 1.57095 14.1523 14.1529 -8.94956
549 1 3.14093 12.5798 12.5812 -8.94838
550 1 4.71364 14.153 14.1547 -8.95054
551 1 6.28307 12.5809 12.5827 -8.97979
552 1 7.85469 14.1603 14.1645 -8.95116
553 1 9.41881 12.6081 12.5957 -8.94853
554 1 11.0084 14.1592 14.163 -8.94853
555 1 12.6222 12.6188 12.6191 -8.87731
556 1 14.1661 14.1652 14.1656 -8.92774
557 1 15.7348 12.5821 12.5833 -8.95873
558 1 17.3012 14.154 14.154 -8.95116
559 1 18.8714 12.5797 12.5798 -8.95193
560 1 20.4422 14.1523 14.1524 -8.95029
561 1 22.0128 15.7249 12.5798 -8.95018
562 1 1.57071 17.2978 14.1529 -8.94976
563 1 3.14007 15.7267 12.5816 -8.95115
564 1 4.71264 17.3012 14.1563 -8.94446
565 1 6.27582 15.7381 12.5921 -8.9302
566 1 7.86065 17.3009 14.1549 -8.94933
567 1 9.4336 15.7343 12.5853 -8.95198
568 1 11.0076 17.3007 14.1547 -8.94793
569 1 12.5863 15.7365 12.5867 -8.95409
570 1 14.1551 17.3019 14.1549 -8.94981
571 1 15.7268 15.7262 12.5795 -8.95167
572 1 17.2979 17.2979 14.1522 -8.95041
573 1 18.8698 15.7249 12.5794 -8.94981
574 1 20.4414 17.2972 14.1521 -8.94985
575 1 -0.000565751 18.8696 12.5796 -8.94945
576 1 1.57177 20.4419 14.1522 -8.94952
577 1 3.14324 18.8706 12.5802 -8.94922
578 1 4.71623 20.4427 14.1528 -8.95007
579 1 6.28777 18.8731 12.5811 -8.95174
580 1 7.86196 20.4427 14.1526 -8.94977
581 1 9.43472 18.8721 12.5805 -8.95075
582 1 11.0073 20.4426 14.1526 -8.94974
583 1 12.5799 18.8717 12.5797 -8.95282
584 1 14.1524 20.4426 14.1522 -8.95073
585 1 15.7248 18.87 12.5792 -8.94959
586 1 17.297 20.4418 14.1518 -8.94971
587 1 18.8693 18.8696 12.5794 -8.94941
588 1 20.4414 20.4417 14.1519 -8.94952
589 1 1.5721 11.007 17.2973 -8.94957
590 1 4.71661 11.007 17.2975 -8.94938
591 1 7.86186 11.007 17.2968 -8.94703
592 1 11.0073 11.007 17.2974 -8.94493
593 1 14.1543 11.007 17.3005 -8.94951
594 1 17.2983 11.007 17.2981 -8.94945
595 1 20.442 11.007 17.2972 -8.94951
596 1 22.0139 12.5795 15.725 -8.94948
597 1 1.57214 14.1519 17.2972 -8.94952
598 1 3.14398 12.5793 15.7254 -8.94927
599 1 4.71675 14.1516 17.2977 -8.94999
600 1 6.28934 12.5784 15.7253 -8.9502
601 1 7.86159 14.1523 17.2995 -8.95292
602 1 9.43527 12.5794 15.727 -8.95471
603 1 11.0069 14.1532 17.3 -8.95098
604 1 12.5824 12.5808 15.7326 -8.96032
605 1 14.1537 14.1535 17.3006 -8.9519
606 1 15.7282 12.5808 15.7281 -8.94748
607 1 17.2982 14.1526 17.2981 -8.94919
608 1 18.8707 12.5798 15.7254 -8.94923
609 1 20.442 14.1521 17.2972 -8.94944
610 1 -0.000186882 15.7247 15.7249 -8.94976
611 1 1.57192 17.297 17.2973 -8.94973
612 1 3.1433 15.7249 15.7257 -8.95
613 1 4.71591 17.2979 17.2986 -8.94928
614 1 6.28627 15.7275 15.7296 -8.94917
615 1 7.8616 17.2979 17.2983 -8.94902
616 1 9.43386 15.7273 15.7283 -8.94704
617 1 11.0071 17.298 17.2982 -8.9493
618 1 12.5811 15.7276 15.7285 -8.9485
619 1 14.1527 17.2982 17.2982 -8.94948
620 1 15.729 15.7288 15.7287 -8.94405
621 1 17.2982 17.2982 17.298 -8.94809
622 1 18.8707 15.7253 15.7253 -8.94974
623 1 20.4419 17.2971 17.2971 -8.94952
624 1 22.0134 18.8695 15.7247 -8.94958
625 1 1.5719 20.4418 17.2972 -8.94918
626 1 3.14332 18.8705 15.7257 -8.94818
627 1 4.71685 20.4419 17.2973 -8.94962
628 1 6.28889 18.8706 15.7257 -8.94963
629 1 7.86196 20.4419 17.2973 -8.94945
630 1 9.43445 18.8706 15.7256 -8.94929
631 1 11.007 20.442 17.2973 -8.9495
632 1 12.5799 18.8707 15.7254 -8.94913
633 1 14.1521 20.442 17.2972 -8.94949
634 1 15.7256 18.871 15.7254 -8.9494
635 1 17.2972 20.442 17.2971 -8.94947
636 1 18.8695 18.8696 15.7245 -8.94986
637 1 20.4415 20.4417 17.2968 -8.94961
638 1 1.57223 11.007 20.4415 -8.94959
639 1 4.71685 11.007 20.4415 -8.94968
640 1 7.86177 11.007 20.4415 -8.94909
641 1 11.0067 11.007 20.4415 -8.94837
642 1 14.1526 11.007 20.4415 -8.95034
643 1 17.2975 11.007 20.4415 -8.94947
644 1 20.4418 11.007 20.4415 -8.94956
645 1 4.24322e-05 12.5794 18.8693 -8.94957
646 1 1.57226 14.1519 20.4415 -8.94956
647 1 3.14447 12.5794 18.8694 -8.94956
648 1 4.71695 14.1518 20.4415 -8.9496
649 1 6.28933 12.5792 18.8695 -8.94937
650 1 7.86188 14.1518 20.4416 -8.95048
651 1 9.43442 12.5792 18.8698 -8.94977
652 1 11.0067 14.1522 20.4416 -8.95034
653 1 12.5796 12.5795 18.8708 -8.95142
654 1 14.1523 14.1523 20.4415 -8.9507
655 1 15.7254 12.5798 18.8703 -8.94937
656 1 17.2974 14.1522 20.4415 -8.94939
657 1 18.8697 12.5795 18.8695 -8.9495
658 1 20.4418 14.1519 20.4415 -8.94955
659 1 22.0139 15.7244 18.8693 -8.94956
660 1 1.57227 17.2968 20.4415 -8.94972
661 1 3.14451 15.7243 18.8695 -8.94981
662 1 4.7168 17.2971 20.4416 -8.95003
663 1 6.2891 15.7247 18.8703 -8.95068
664 1 7.86181 17.2972 20.4416 -8.9495
665 1 9.43419 15.7251 18.8703 -8.94961
666 1 11.0069 17.2973 20.4416 -8.94953
667 1 12.5796 15.7251 18.8703 -8.94971
668 1 14.1521 17.2973 20.4416 -8.9496
669 1 15.7253 15.7253 18.8703 -8.9501
670 1 17.2973 17.2973 20.4415 -8.94956
671 1 18.8697 15.7246 18.8695 -8.94951
672 1 20.4417 17.2969 20.4415 -8.94957
673 1 -4.24703e-05 18.8693 18.8693 -8.94956
674 1 1.57219 20.4417 20.4415 -8.94942
675 1 3.14432 18.8696 18.8696 -8.94945
676 1 4.71709 20.4417 20.4415 -8.94956
677 1 6.28939 18.8696 18.8696 -8.94947
678 1 7.86201 20.4417 20.4415 -8.94955
679 1 9.43444 18.8697 18.8696 -8.94951
680 1 11.007 20.4417 20.4415 -8.94955
681 1 12.5795 18.8697 18.8696 -8.94946
351 1 22.0139 12.5794 22.0136 -8.94957
355 1 6.28933 12.5792 22.0134 -8.94948
359 1 12.5796 12.5795 22.0122 -8.95153
379 1 22.0139 18.8693 22.0137 -8.94958
367 1 3.14453 15.7243 22.0135 -8.94974
375 1 15.7252 15.7253 22.0128 -8.95002
357 1 9.43439 12.5792 22.0134 -8.94931
363 1 18.8697 12.5795 22.0135 -8.9495
516 1 14.1596 11.007 11.0144 -8.97975
