ITEM: TIMESTEP
96
ITEM: NUMBER OF ATOMS
688
ITEM: BOX BOUNDS pp pp pp
0.0000000000000000e+00 2.2013900999999997e+01
0.0000000000000000e+00 2.2013900999999997e+01
0.0000000000000000e+00 2.2013900999999997e+01
ITEM: ATOMS id type x y z c_pot
1 1 -0.000147154 -6.53073e-16 -0.000140693 -8.9493
2 1 1.57193 1.57211 1.57194 -8.94919
189 1 20.4413 4.7166 11.0071 -8.94955
4 1 4.71692 1.57203 1.57186 -8.94964
175 1 18.8694 9.43417 9.4345 -8.9478
6 1 7.862 1.57203 1.57189 -8.94948
174 1 15.7223 9.43502 9.43439 -8.94007
8 1 11.007 1.57201 1.5719 -8.94952
173 1 12.5583 9.44374 9.43144 -8.95877
10 1 14.152 1.57199 1.57199 -8.94951
172 1 9.35814 9.18545 9.42738 -8.34428
12 1 17.2971 1.57193 1.57197 -8.94946
188 1 17.2975 4.71625 11.0069 -8.94895
14 1 20.4415 1.5722 1.57222 -8.94959
171 1 6.27626 9.42513 9.43215 -9.02127
16 1 1.57201 4.71693 1.57183 -8.9498
17 1 3.14437 3.14438 -0.000459355 -8.9495
18 1 4.71611 4.71617 1.57071 -8.94951
170 1 3.13953 9.43387 9.43363 -8.95015
20 1 7.8617 4.71625 1.57108 -8.94913
21 1 9.43445 3.14429 -0.000374127 -8.94951
22 1 11.007 4.71611 1.57115 -8.94936
169 1 22.0124 9.43435 9.43434 -8.94964
24 1 14.1525 4.71593 1.57107 -8.94973
168 1 18.8697 6.28875 9.43451 -8.94953
26 1 17.2981 4.71582 1.57117 -8.94818
167 1 15.7261 6.28771 9.43442 -8.94612
28 1 20.4419 4.71681 1.57197 -8.94955
166 1 12.5777 6.29162 9.43451 -8.94543
30 1 1.57212 7.86199 1.57186 -8.94942
165 1 9.42942 6.29191 9.43453 -9.00837
32 1 4.71672 7.86222 1.57145 -8.9497
33 1 6.28919 6.2893 -0.000911932 -8.95068
34 1 7.86173 7.86183 1.57023 -8.95246
35 1 9.4342 6.28892 -0.000865952 -8.94963
36 1 11.0067 7.86104 1.56969 -8.95057
37 1 12.5795 6.28887 -0.000972086 -8.94973
38 1 14.1537 7.86038 1.56856 -8.95162
164 1 6.27844 6.27924 9.43451 -8.94304
40 1 17.2982 7.86126 1.57101 -8.94919
163 1 3.13989 6.28692 9.43445 -8.94916
42 1 20.442 7.86183 1.57188 -8.94945
162 1 22.0126 6.28885 9.43449 -8.94994
44 1 3.14445 9.4345 -0.000402382 -8.94956
161 1 18.8693 3.14428 9.43451 -8.94956
181 1 17.297 1.57207 11.0069 -8.94955
160 1 15.7249 3.14394 9.43447 -8.9496
48 1 15.7254 9.4341 -0.00125481 -8.94938
159 1 12.5796 3.14455 9.43445 -8.94826
50 1 22.0136 8.58314e-17 3.14462 -8.94956
51 1 1.57179 1.57201 4.71683 -8.94951
52 1 3.1442 -1.4828e-15 3.14416 -8.94956
53 1 4.7163 1.57128 4.71622 -8.95003
54 1 6.28947 -1.35756e-15 3.14422 -8.94959
55 1 7.86201 1.57144 4.71646 -8.94966
56 1 9.43459 8.80455e-16 3.14422 -8.94954
57 1 11.0072 1.57151 4.71653 -8.9496
58 1 12.5796 1.7194e-15 3.14432 -8.94952
59 1 14.1523 1.5714 4.71684 -8.95069
60 1 15.7247 1.76714e-15 3.14445 -8.95003
61 1 17.2969 1.57208 4.71722 -8.94973
62 1 18.8692 1.01131e-15 3.14475 -8.94971
63 1 20.4414 1.5722 4.71713 -8.94953
64 1 -0.000462403 3.14438 3.14438 -8.94953
65 1 1.57074 4.71616 4.71611 -8.94957
66 1 3.14343 3.14356 3.14339 -8.94823
67 1 4.71293 4.71306 4.71294 -8.94461
68 1 6.28904 3.14353 3.14354 -8.94965
69 1 7.86088 4.71389 4.71458 -8.94915
70 1 9.43447 3.14358 3.14371 -8.94936
71 1 11.0074 4.71417 4.71481 -8.94783
72 1 12.5798 3.14349 3.14383 -8.94918
73 1 14.1549 4.71237 4.71431 -8.94975
74 1 15.7255 3.14305 3.14369 -8.94939
75 1 17.2978 4.71606 4.71682 -8.95034
76 1 18.8694 3.14428 3.14454 -8.94982
77 1 20.4414 4.71673 4.71694 -8.94981
78 1 22.0138 6.28936 3.14428 -8.94983
79 1 1.57138 7.86196 4.7164 -8.94985
80 1 3.14357 6.28915 3.14349 -8.95022
81 1 4.71435 7.86157 4.71483 -8.95113
82 1 6.28685 6.28704 3.14019 -8.95007
83 1 7.85597 7.85597 4.70696 -8.9539
84 1 9.43392 6.2873 3.14165 -8.94764
85 1 11.0075 7.85734 4.70844 -8.95204
86 1 12.5806 6.28701 3.14118 -8.94944
87 1 14.1655 7.8495 4.70392 -8.92857
88 1 15.7286 6.28533 3.14058 -8.94426
89 1 17.3011 7.85992 4.71504 -8.95089
90 1 18.8706 6.28862 3.14383 -8.94966
91 1 20.4423 7.86166 4.71667 -8.95023
92 1 7.22993e-06 9.43439 3.14414 -8.94954
93 1 3.14384 9.43446 3.14361 -8.94892
94 1 6.28904 9.4352 3.14347 -8.94939
95 1 9.43513 9.43453 3.14354 -8.95094
96 1 12.5827 9.4331 3.13617 -8.95971
97 1 15.7283 9.43305 3.14084 -8.94749
98 1 18.8708 9.43411 3.14368 -8.94927
99 1 -0.000307095 6.40417e-17 6.28954 -8.94956
100 1 1.57172 1.57197 7.86194 -8.94952
101 1 3.14407 -1.24476e-15 6.28926 -8.94944
102 1 4.71609 1.57118 7.86166 -8.94944
103 1 6.28924 -2.4727e-16 6.28913 -8.95065
104 1 7.86191 1.57085 7.8619 -8.95124
105 1 9.43478 1.53978e-15 6.28926 -8.95014
106 1 11.0071 1.57187 7.86216 -8.94942
107 1 12.5796 1.81221e-15 6.28961 -8.95046
108 1 14.1522 1.57201 7.86221 -8.94939
109 1 15.7245 1.81215e-15 6.28972 -8.94955
110 1 17.297 1.57207 7.86207 -8.94955
111 1 18.8692 1.78612e-15 6.28962 -8.94954
112 1 20.4414 1.57217 7.86204 -8.94957
113 1 22.0133 3.14428 6.2894 -8.94947
114 1 1.57061 4.716 7.86164 -8.94933
115 1 3.14328 3.14337 6.2888 -8.94924
116 1 4.71318 4.71329 7.86053 -8.9478
117 1 6.28789 3.14116 6.28796 -8.95158
118 1 7.8588 4.7096 7.86053 -8.95839
119 1 9.4347 3.14231 6.28861 -8.95045
120 1 11.0066 4.71567 7.86174 -8.95151
121 1 12.5799 3.14247 6.28926 -8.95262
122 1 14.1524 4.71627 7.86274 -8.94903
123 1 15.7247 3.14401 6.28983 -8.94966
124 1 17.2975 4.71626 7.86208 -8.94892
125 1 18.8693 3.14434 6.2896 -8.94941
126 1 20.4413 4.7166 7.86197 -8.94955
127 1 -0.00114069 6.289 6.28912 -8.95011
128 1 1.5691 7.86125 7.86135 -8.95155
129 1 3.14007 6.28721 6.28718 -8.95045
130 1 4.70524 7.85739 7.85857 -8.95733
131 1 6.2764 6.2771 6.27739 -8.93009
132 1 7.81877 7.82768 7.82837 -8.88411
133 1 9.43346 6.28169 6.28488 -8.95164
134 1 11.0249 7.85469 7.83643 -8.94352
135 1 12.5863 6.27859 6.28236 -8.95283
136 1 14.1564 7.86088 7.86394 -8.953
137 1 15.7269 6.28774 6.28935 -8.95152
138 1 17.2984 7.86139 7.86272 -8.95001
139 1 18.8698 6.28902 6.28963 -8.94985
140 1 20.4413 7.86163 7.86202 -8.94996
141 1 22.0135 9.43447 6.28915 -8.94996
142 1 3.14233 9.435 6.2884 -8.95013
143 1 6.28387 9.43648 6.28678 -8.95137
144 1 9.41919 9.41269 6.28405 -8.95166
145 1 12.6228 9.39963 6.25018 -8.84734
146 1 15.7352 9.43193 6.28547 -8.95849
147 1 18.8716 9.4342 6.28922 -8.95188
148 1 -0.000324865 -7.56657e-16 9.43452 -8.94957
149 1 3.144 -6.28577e-16 9.43451 -8.94949
150 1 6.28893 -1.98098e-18 9.43447 -8.95031
151 1 9.43476 1.45169e-15 9.43445 -8.94857
152 1 12.5797 1.76875e-15 9.43447 -8.94917
153 1 15.7246 1.49071e-15 9.4345 -8.94967
154 1 18.8692 1.01402e-15 9.43452 -8.94959
155 1 -0.00057477 3.14424 9.43452 -8.94951
156 1 3.14319 3.14333 9.43449 -8.94945
157 1 6.28729 3.14096 9.43444 -8.94968
158 1 9.43435 3.14386 9.43439 -8.94693
177 1 4.71607 1.57116 11.0073 -8.94941
183 1 1.57059 4.71602 11.0073 -8.94925
184 1 4.71311 4.71325 11.0083 -8.94739
5 1 6.28957 9.40217e-16 -0.000210942 -8.94954
41 1 18.8697 6.28927 -0.00038676 -8.94949
7 1 9.43451 1.64836e-15 -0.000220432 -8.94956
9 1 12.5795 1.56623e-15 -0.000201057 -8.94955
29 1 4.50703e-05 6.28954 -0.000219321 -8.94953
25 1 15.7246 3.14425 -0.000364458 -8.94965
176 1 1.57171 1.57197 11.0071 -8.94951
47 1 12.5796 9.4344 22.0122 -8.95153
178 1 7.8619 1.57071 11.007 -8.95141
179 1 11.0071 1.57177 11.0068 -8.94947
180 1 14.1522 1.57197 11.0068 -8.9494
343 1 18.8697 9.43438 18.8695 -8.9495
182 1 20.4414 1.57217 11.007 -8.94956
45 1 6.28933 9.43466 22.0134 -8.94949
43 1 22.0139 9.43447 22.0136 -8.94957
185 1 7.85879 4.70883 11.0085 -8.95893
186 1 11.0066 4.71522 11.0071 -8.95144
187 1 14.1525 4.7161 11.0061 -8.94877
342 1 15.7254 9.43412 18.8703 -8.94937
341 1 12.5796 9.43443 18.8708 -8.95142
190 1 1.56921 7.86144 11.0073 -8.95151
191 1 4.70561 7.85802 11.0096 -8.95827
192 1 7.81927 7.82455 11.0429 -8.90587
193 1 11.0231 7.85354 11.0328 -8.95833
194 1 14.1558 7.86086 11.0041 -8.95277
195 1 17.2983 7.86138 11.0062 -8.94985
196 1 20.4413 7.86166 11.0069 -8.94989
197 1 22.0136 -1.24704e-15 12.5795 -8.94956
198 1 1.57178 1.572 14.1522 -8.94952
199 1 3.14405 -2.03709e-15 12.5798 -8.94943
200 1 4.71624 1.57119 14.1528 -8.95007
201 1 6.2892 -5.30752e-16 12.5799 -8.95073
202 1 7.86196 1.57126 14.1526 -8.94977
203 1 9.43478 1.7403e-15 12.5798 -8.95028
204 1 11.0073 1.57131 14.1526 -8.94973
205 1 12.5796 1.65397e-15 12.5794 -8.95053
206 1 14.1524 1.57132 14.1522 -8.95072
207 1 15.7246 8.91591e-16 12.5793 -8.94954
208 1 17.2969 1.57207 14.1518 -8.94971
209 1 18.8692 -9.09664e-16 12.5794 -8.94955
210 1 20.4414 1.5722 14.1519 -8.94952
211 1 -0.000558227 3.14428 12.5796 -8.94945
212 1 1.57072 4.71612 14.1529 -8.94976
213 1 3.14325 3.14334 12.5802 -8.94923
214 1 4.71266 4.71269 14.1563 -8.94446
215 1 6.28778 3.14084 12.5811 -8.95174
216 1 7.86067 4.71305 14.1549 -8.94933
217 1 9.43472 3.14177 12.5805 -8.95075
218 1 11.0076 4.71323 14.1547 -8.94793
219 1 12.5799 3.14218 12.5797 -8.95282
220 1 14.1551 4.71204 14.1548 -8.94981
221 1 15.7248 3.14395 12.5792 -8.94959
222 1 17.2979 4.71605 14.1522 -8.95041
223 1 18.8693 3.14434 12.5794 -8.94941
224 1 20.4414 4.71673 14.1521 -8.94985
225 1 22.0128 6.28903 12.5798 -8.95018
226 1 1.57096 7.86164 14.1529 -8.94956
227 1 3.14009 6.2872 12.5816 -8.95115
228 1 4.71366 7.86086 14.1547 -8.95053
229 1 6.27584 6.27585 12.5921 -8.93019
230 1 7.85471 7.85361 14.1645 -8.95118
231 1 9.43361 6.27959 12.5853 -8.95197
232 1 11.0084 7.85468 14.163 -8.94853
233 1 12.5863 6.27745 12.5867 -8.9541
234 1 14.166 7.84872 14.1656 -8.92774
235 1 15.7268 6.28772 12.5795 -8.95167
236 1 17.3012 7.85988 14.154 -8.95115
237 1 18.8698 6.28902 12.5794 -8.94981
238 1 20.4422 7.86159 14.1524 -8.95029
239 1 -0.000837382 9.43432 12.58 -8.95007
240 1 3.14093 9.43406 12.5812 -8.94838
241 1 6.28306 9.43297 12.5827 -8.97978
242 1 9.41882 9.40585 12.5957 -8.94856
243 1 12.6222 9.39512 12.6191 -8.87738
244 1 15.7348 9.43179 12.5833 -8.95872
245 1 18.8714 9.43418 12.5798 -8.95192
246 1 22.0136 -9.57172e-16 15.7244 -8.94957
247 1 1.5719 1.57209 17.2972 -8.94918
248 1 3.14416 -1.20163e-15 15.7249 -8.94957
249 1 4.71686 1.57198 17.2973 -8.94962
250 1 6.28942 -1.06655e-15 15.7249 -8.94963
251 1 7.86197 1.57196 17.2973 -8.94946
252 1 9.43458 1.92458e-16 15.7249 -8.94957
253 1 11.007 1.57194 17.2973 -8.9495
254 1 12.5797 1.71305e-15 15.7248 -8.94955
255 1 14.1521 1.57192 17.2972 -8.94949
256 1 15.7247 8.69609e-16 15.7246 -8.95004
257 1 17.2972 1.5719 17.2971 -8.94947
258 1 18.8692 -4.89189e-16 15.7243 -8.94971
259 1 20.4415 1.57219 17.2968 -8.94961
260 1 22.0134 3.14436 15.7247 -8.94958
261 1 1.57193 4.71687 17.2973 -8.94973
262 1 3.14333 3.14346 15.7257 -8.94818
263 1 4.71592 4.716 17.2986 -8.94928
264 1 6.28891 3.14328 15.7257 -8.94963
265 1 7.8616 4.71603 17.2983 -8.94902
266 1 9.43445 3.14327 15.7256 -8.94929
267 1 11.0071 4.71588 17.2982 -8.9493
268 1 12.5799 3.14321 15.7254 -8.94913
269 1 14.1527 4.71574 17.2982 -8.94948
270 1 15.7255 3.14295 15.7254 -8.9494
271 1 17.2982 4.71573 17.298 -8.94809
272 1 18.8695 3.14427 15.7245 -8.94986
273 1 20.4419 4.71676 17.2971 -8.94952
274 1 -0.000185289 6.28925 15.7249 -8.94975
275 1 1.57214 7.86203 17.2972 -8.94952
276 1 3.14331 6.28896 15.7257 -8.94999
277 1 4.71675 7.86228 17.2977 -8.94999
278 1 6.28629 6.28638 15.7295 -8.94918
279 1 7.8616 7.86161 17.2995 -8.95291
280 1 9.43386 6.28657 15.7283 -8.94705
281 1 11.0069 7.86075 17.3 -8.95097
282 1 12.5811 6.28629 15.7285 -8.94851
283 1 14.1537 7.8604 17.3006 -8.9519
284 1 15.7289 6.2851 15.7287 -8.94405
285 1 17.2982 7.86129 17.2981 -8.9492
286 1 18.8707 6.28857 15.7253 -8.94973
287 1 20.442 7.86184 17.2972 -8.94944
288 1 22.0139 9.43439 15.725 -8.94948
289 1 3.14398 9.43458 15.7254 -8.94927
290 1 6.28935 9.43545 15.7253 -8.95021
291 1 9.43527 9.43446 15.727 -8.9547
292 1 12.5824 9.43315 15.7326 -8.96032
293 1 15.7282 9.43312 15.7281 -8.94748
294 1 18.8707 9.43412 15.7254 -8.94923
295 1 -0.000156396 -1.4826e-15 18.8692 -8.94931
296 1 1.5722 1.57221 20.4415 -8.94943
297 1 3.1446 -1.83101e-16 18.8693 -8.94961
298 1 4.71709 1.57222 20.4415 -8.94956
299 1 6.28955 5.60416e-16 18.8693 -8.94952
300 1 7.86201 1.57218 20.4415 -8.94955
301 1 9.43451 9.85466e-16 18.8694 -8.94955
302 1 11.007 1.57216 20.4415 -8.94956
303 1 12.5795 1.8477e-15 18.8693 -8.94954
304 1 14.1519 1.57217 20.4415 -8.94953
305 1 15.7244 1.79652e-15 18.8693 -8.94956
306 1 17.2969 1.57218 20.4415 -8.94961
307 1 18.8693 7.66742e-16 18.8693 -8.94942
308 1 20.4416 1.57227 20.4415 -8.94929
309 1 -4.16043e-05 3.14461 18.8693 -8.94956
310 1 1.57227 4.71715 20.4415 -8.94972
311 1 3.14433 3.14435 18.8696 -8.94946
312 1 4.7168 4.71685 20.4416 -8.95003
313 1 6.2894 3.14432 18.8696 -8.94947
314 1 7.86182 4.71668 20.4416 -8.9495
315 1 9.43444 3.14423 18.8696 -8.94951
316 1 11.0069 4.71658 20.4416 -8.94953
317 1 12.5795 3.14422 18.8695 -8.94946
318 1 14.1521 4.71659 20.4416 -8.9496
319 1 15.7246 3.14421 18.8695 -8.94959
320 1 17.2973 4.71658 20.4415 -8.94956
321 1 18.8696 3.14433 18.8694 -8.94914
322 1 20.4417 4.71705 20.4415 -8.94957
323 1 22.0139 6.28955 18.8693 -8.94956
324 1 1.57226 7.86204 20.4415 -8.94956
325 1 3.14452 6.28962 18.8695 -8.94981
326 1 4.71695 7.86215 20.4415 -8.9496
327 1 6.28911 6.28921 18.8703 -8.95068
328 1 7.86188 7.86206 20.4416 -8.95048
329 1 9.4342 6.28882 18.8703 -8.94961
330 1 11.0067 7.86168 20.4416 -8.95034
331 1 12.5796 6.28876 18.8703 -8.94971
332 1 14.1523 7.86158 20.4415 -8.9507
333 1 15.7252 6.28864 18.8703 -8.95009
334 1 17.2974 7.8617 20.4415 -8.94939
335 1 18.8697 6.28927 18.8695 -8.94951
336 1 20.4418 7.86197 20.4415 -8.94955
337 1 4.02671e-05 9.43447 18.8693 -8.94957
338 1 3.14447 9.43452 18.8694 -8.94956
339 1 6.28934 9.4347 18.8695 -8.94938
340 1 9.43442 9.43472 18.8698 -8.94977
39 1 15.7252 6.28865 22.0128 -8.95002
31 1 3.14453 6.28961 22.0135 -8.94974
27 1 18.8695 3.14436 22.0136 -8.94918
11 1 15.7244 1.77922e-15 22.0137 -8.94958
15 1 22.0139 3.14463 22.0137 -8.94959
19 1 6.28944 3.14438 22.0135 -8.94948
23 1 12.5795 3.14428 22.0135 -8.94947
3 1 3.14462 -2.60569e-16 22.0137 -8.94963
13 1 18.8693 6.6363e-16 22.0137 -8.9494
46 1 9.43439 9.43465 22.0134 -8.94931
49 1 18.8697 9.43437 22.0135 -8.9495
344 1 1.57209 11.007 1.5718 -8.94958
345 1 4.71657 11.007 1.57134 -8.94967
346 1 7.86198 11.007 1.5721 -8.94848
347 1 11.007 11.007 1.5715 -8.94643
348 1 14.1543 11.007 1.56832 -8.94956
349 1 17.2983 11.007 1.57096 -8.94945
350 1 20.442 11.007 1.57185 -8.94952
688 3 10.2318 11.007 9.43528 2.204
352 1 1.57212 14.1519 1.57186 -8.94942
353 1 3.14445 12.5794 -0.000402382 -8.94956
354 1 4.71672 14.1517 1.57145 -8.9497
687 2 9.50918 11.007 10.1865 -0.00761592
356 1 7.86173 14.1521 1.57023 -8.95246
538 1 17.297 20.4418 11.0069 -8.94955
358 1 11.0067 14.1529 1.56969 -8.95057
511 1 18.8693 18.8696 9.43451 -8.94956
360 1 14.1537 14.1535 1.56856 -8.95162
361 1 15.7254 12.5798 -0.00125481 -8.94938
362 1 17.2982 14.1526 1.57101 -8.94919
532 1 20.4413 17.2973 11.0071 -8.94955
364 1 20.442 14.1521 1.57188 -8.94945
510 1 15.7249 18.87 9.43447 -8.9496
366 1 1.57201 17.297 1.57183 -8.9498
509 1 12.5796 18.8693 9.43445 -8.94826
368 1 4.71611 17.2977 1.57071 -8.94951
369 1 6.28919 15.7246 -0.000911932 -8.95068
370 1 7.8617 17.2977 1.57108 -8.94913
371 1 9.4342 15.725 -0.000865952 -8.94963
372 1 11.007 17.2978 1.57115 -8.94936
373 1 12.5795 15.725 -0.000972086 -8.94973
374 1 14.1525 17.298 1.57107 -8.94973
508 1 9.43435 18.87 9.43439 -8.94693
376 1 17.2981 17.2981 1.57117 -8.94818
507 1 6.28729 18.8729 9.43444 -8.94968
378 1 20.4419 17.2971 1.57197 -8.94955
506 1 3.14319 18.8706 9.43449 -8.94945
380 1 1.57193 20.4418 1.57194 -8.94919
381 1 3.14437 18.8695 -0.000459355 -8.9495
382 1 4.71692 20.4419 1.57186 -8.94964
505 1 -0.00057477 18.8697 9.43452 -8.94951
384 1 7.862 20.4419 1.57189 -8.94948
385 1 9.43445 18.8696 -0.000374127 -8.94951
386 1 11.007 20.4419 1.5719 -8.94952
504 1 18.8697 15.7252 9.43451 -8.94953
388 1 14.152 20.4419 1.57199 -8.94951
503 1 15.7261 15.7262 9.43442 -8.94612
390 1 17.2971 20.442 1.57197 -8.94946
502 1 12.5777 15.7223 9.43451 -8.94543
392 1 20.4415 20.4417 1.57222 -8.94959
393 1 1.57138 11.007 4.71611 -8.94949
394 1 4.71489 11.007 4.71467 -8.94562
395 1 7.8638 11.007 4.71877 -8.94703
396 1 11.0125 11.007 4.72046 -9.00591
397 1 14.1632 11.007 4.70632 -8.94142
398 1 17.3014 11.007 4.71466 -8.949
399 1 20.4425 11.007 4.71649 -8.94999
400 1 7.22993e-06 12.5795 3.14414 -8.94954
401 1 1.57138 14.1519 4.7164 -8.94985
402 1 3.14384 12.5794 3.14361 -8.94892
403 1 4.71435 14.1523 4.71483 -8.95113
404 1 6.28904 12.5787 3.14347 -8.94939
405 1 7.85597 14.1579 4.70696 -8.9539
406 1 9.43513 12.5794 3.14354 -8.95094
407 1 11.0075 14.1566 4.70844 -8.95204
408 1 12.5827 12.5808 3.13617 -8.95971
409 1 14.1655 14.1644 4.70392 -8.92857
410 1 15.7283 12.5809 3.14084 -8.94749
411 1 17.3011 14.154 4.71504 -8.95089
412 1 18.8708 12.5798 3.14368 -8.94927
413 1 20.4423 14.1522 4.71667 -8.95023
414 1 22.0138 15.7245 3.14428 -8.94983
415 1 1.57074 17.2977 4.71611 -8.94957
416 1 3.14357 15.7248 3.14349 -8.95022
417 1 4.71293 17.3008 4.71294 -8.94461
418 1 6.28685 15.7269 3.14019 -8.95007
419 1 7.86088 17.3 4.71458 -8.94915
420 1 9.43392 15.7266 3.14165 -8.94764
421 1 11.0074 17.2997 4.71481 -8.94783
422 1 12.5806 15.7269 3.14118 -8.94944
423 1 14.1549 17.3015 4.71431 -8.94975
424 1 15.7286 15.7286 3.14058 -8.94426
425 1 17.2978 17.2978 4.71682 -8.95034
426 1 18.8706 15.7253 3.14383 -8.94966
427 1 20.4414 17.2972 4.71694 -8.94981
428 1 -0.000462403 18.8695 3.14438 -8.94953
429 1 1.57179 20.4419 4.71683 -8.94951
430 1 3.14343 18.8703 3.14339 -8.94823
431 1 4.7163 20.4426 4.71622 -8.95003
432 1 6.28904 18.8704 3.14354 -8.94965
433 1 7.86201 20.4425 4.71646 -8.94966
434 1 9.43447 18.8703 3.14371 -8.94936
435 1 11.0072 20.4424 4.71653 -8.9496
436 1 12.5798 18.8704 3.14383 -8.94918
437 1 14.1523 20.4425 4.71684 -8.95069
438 1 15.7255 18.8709 3.14369 -8.94939
439 1 17.2969 20.4418 4.71722 -8.94973
440 1 18.8694 18.8696 3.14454 -8.94982
441 1 20.4414 20.4417 4.71713 -8.94953
442 1 1.57088 11.007 7.86147 -8.94778
443 1 4.7166 11.007 7.8619 -8.94143
444 1 7.87552 11.007 7.86633 -8.93457
445 1 11.0906 11.007 7.61828 -8.16276
446 1 14.1608 11.007 7.85349 -8.97288
447 1 17.2994 11.007 7.86238 -8.95117
448 1 20.4418 11.007 7.86206 -8.94951
449 1 22.0135 12.5794 6.28915 -8.94996
450 1 1.5691 14.1526 7.86135 -8.95155
451 1 3.14233 12.5789 6.2884 -8.95013
452 1 4.70524 14.1565 7.85857 -8.95733
453 1 6.28387 12.5774 6.28678 -8.95137
454 1 7.81877 14.1862 7.82837 -8.88411
455 1 9.41919 12.6012 6.28405 -8.95166
456 1 11.0249 14.1592 7.83643 -8.94352
457 1 12.6228 12.6143 6.25018 -8.84734
458 1 14.1564 14.153 7.86394 -8.953
459 1 15.7352 12.582 6.28547 -8.95849
460 1 17.2984 14.1525 7.86272 -8.95001
461 1 18.8716 12.5797 6.28922 -8.95188
462 1 20.4413 14.1523 7.86202 -8.94996
463 1 -0.00114069 15.7249 6.28912 -8.95011
464 1 1.57061 17.2979 7.86164 -8.94933
465 1 3.14007 15.7267 6.28718 -8.95045
466 1 4.71318 17.3006 7.86053 -8.9478
467 1 6.2764 15.7368 6.27739 -8.93009
468 1 7.8588 17.3043 7.86053 -8.95839
469 1 9.43346 15.7322 6.28488 -8.95164
470 1 11.0066 17.2982 7.86174 -8.95151
471 1 12.5863 15.7353 6.28236 -8.95283
472 1 14.1524 17.2976 7.86274 -8.94903
473 1 15.7269 15.7262 6.28935 -8.95152
474 1 17.2975 17.2976 7.86208 -8.94892
475 1 18.8698 15.7249 6.28963 -8.94985
476 1 20.4413 17.2973 7.86197 -8.94955
477 1 22.0133 18.8696 6.2894 -8.94947
478 1 1.57172 20.4419 7.86194 -8.94952
479 1 3.14328 18.8705 6.2888 -8.94924
480 1 4.71609 20.4427 7.86166 -8.94944
481 1 6.28789 18.8727 6.28796 -8.95158
482 1 7.86191 20.4431 7.8619 -8.95124
483 1 9.4347 18.8716 6.28861 -8.95045
484 1 11.0071 20.442 7.86216 -8.94942
485 1 12.5799 18.8714 6.28926 -8.95262
486 1 14.1522 20.4419 7.86221 -8.94939
487 1 15.7247 18.8699 6.28983 -8.94966
488 1 17.297 20.4418 7.86207 -8.94955
489 1 18.8693 18.8696 6.2896 -8.94941
490 1 20.4414 20.4417 7.86204 -8.94957
491 1 22.0124 12.5796 9.43434 -8.94964
492 1 3.13953 12.58 9.43363 -8.95015
493 1 6.27626 12.5888 9.43215 -9.02127
494 1 9.35814 12.8284 9.42738 -8.34428
495 1 12.5583 12.5702 9.43144 -8.95877
496 1 15.7223 12.5789 9.43439 -8.94007
497 1 18.8694 12.5797 9.4345 -8.9478
498 1 22.0126 15.7251 9.43449 -8.94994
499 1 3.13989 15.727 9.43445 -8.94916
500 1 6.27844 15.7347 9.43451 -8.94304
501 1 9.42942 15.722 9.43453 -9.00837
513 1 4.70692 11.007 11.0072 -8.9568
531 1 17.2975 17.2977 11.0069 -8.94895
526 1 1.57059 17.2979 11.0073 -8.94925
527 1 4.71311 17.3007 11.0083 -8.94739
389 1 15.7246 18.8696 -0.000364458 -8.94965
534 1 4.71607 20.4427 11.0073 -8.94941
365 1 4.50703e-05 15.7244 -0.000219321 -8.94953
377 1 18.8697 15.7246 -0.00038676 -8.94949
512 1 1.56926 11.007 11.0074 -8.951
686 1 20.4416 20.4416 20.4415 -8.94929
514 1 7.82887 11.007 11.0177 -9.14435
515 1 11.1135 11.007 11.2528 -8.34518
685 1 18.8696 18.8696 18.8694 -8.94914
517 1 17.2991 11.007 11.0066 -8.95109
518 1 20.4415 11.007 11.0069 -8.94992
519 1 1.56921 14.1525 11.0073 -8.95151
520 1 4.70561 14.1559 11.0096 -8.95827
521 1 7.81927 14.1894 11.0429 -8.90587
522 1 11.0231 14.1604 11.0328 -8.95833
523 1 14.1558 14.153 11.0041 -8.95277
524 1 17.2983 14.1525 11.0062 -8.94985
525 1 20.4413 14.1522 11.0069 -8.94989
391 1 18.8695 18.8695 22.0136 -8.94918
387 1 12.5795 18.8696 22.0135 -8.94947
528 1 7.85879 17.3051 11.0085 -8.95893
529 1 11.0066 17.2987 11.0071 -8.95144
530 1 14.1525 17.2978 11.0061 -8.94877
684 1 17.2969 20.4417 20.4415 -8.94961
683 1 15.7246 18.8697 18.8695 -8.94959
533 1 1.57171 20.4419 11.0071 -8.94951
383 1 6.28944 18.8695 22.0135 -8.94948
535 1 7.8619 20.4432 11.007 -8.95141
536 1 11.0071 20.4421 11.0068 -8.94947
537 1 14.1522 20.4419 11.0068 -8.9494
682 1 14.1519 20.4417 20.4415 -8.94953
539 1 20.4414 20.4417 11.007 -8.94956
540 1 1.57128 11.007 14.1529 -8.94901
541 1 4.71554 11.007 14.1532 -8.94682
542 1 7.86535 11.007 14.1474 -8.99107
543 1 11.0119 11.007 14.1456 -9.05073
544 1 14.1626 11.007 14.1619 -8.94259
545 1 17.3012 11.007 14.1543 -8.94897
546 1 20.4424 11.007 14.1526 -8.94988
547 1 -0.000837382 12.5796 12.58 -8.95007
548 1 1.57096 14.1523 14.1529 -8.94956
549 1 3.14093 12.5798 12.5812 -8.94838
550 1 4.71366 14.153 14.1547 -8.95053
551 1 6.28306 12.5809 12.5827 -8.97978
552 1 7.85471 14.1603 14.1645 -8.95118
553 1 9.41882 12.6081 12.5957 -8.94856
554 1 11.0084 14.1592 14.163 -8.94853
555 1 12.6222 12.6188 12.6191 -8.87738
556 1 14.166 14.1652 14.1656 -8.92774
557 1 15.7348 12.5821 12.5833 -8.95872
558 1 17.3012 14.154 14.154 -8.95115
559 1 18.8714 12.5797 12.5798 -8.95192
560 1 20.4422 14.1523 14.1524 -8.95029
561 1 22.0128 15.7249 12.5798 -8.95018
562 1 1.57072 17.2978 14.1529 -8.94976
563 1 3.14009 15.7267 12.5816 -8.95115
564 1 4.71266 17.3012 14.1563 -8.94446
565 1 6.27584 15.7381 12.5921 -8.93019
566 1 7.86067 17.3008 14.1549 -8.94933
567 1 9.43361 15.7343 12.5853 -8.95197
568 1 11.0076 17.3007 14.1547 -8.94793
569 1 12.5863 15.7365 12.5867 -8.9541
570 1 14.1551 17.3019 14.1548 -8.94981
571 1 15.7268 15.7262 12.5795 -8.95167
572 1 17.2979 17.2979 14.1522 -8.95041
573 1 18.8698 15.7249 12.5794 -8.94981
574 1 20.4414 17.2972 14.1521 -8.94985
575 1 -0.000558227 18.8696 12.5796 -8.94945
576 1 1.57178 20.4419 14.1522 -8.94952
577 1 3.14325 18.8706 12.5802 -8.94923
578 1 4.71624 20.4427 14.1528 -8.95007
579 1 6.28778 18.8731 12.5811 -8.95174
580 1 7.86196 20.4426 14.1526 -8.94977
581 1 9.43472 18.8721 12.5805 -8.95075
582 1 11.0073 20.4426 14.1526 -8.94973
583 1 12.5799 18.8717 12.5797 -8.95282
584 1 14.1524 20.4426 14.1522 -8.95072
585 1 15.7248 18.8699 12.5792 -8.94959
586 1 17.2969 20.4418 14.1518 -8.94971
587 1 18.8693 18.8696 12.5794 -8.94941
588 1 20.4414 20.4417 14.1519 -8.94952
589 1 1.57211 11.007 17.2973 -8.94957
590 1 4.71661 11.007 17.2975 -8.94938
591 1 7.86186 11.007 17.2968 -8.94703
592 1 11.0073 11.007 17.2974 -8.94492
593 1 14.1543 11.007 17.3005 -8.94951
594 1 17.2983 11.007 17.2981 -8.94945
595 1 20.442 11.007 17.2972 -8.94951
596 1 22.0139 12.5795 15.725 -8.94948
597 1 1.57214 14.1519 17.2972 -8.94952
598 1 3.14398 12.5793 15.7254 -8.94927
599 1 4.71675 14.1516 17.2977 -8.94999
600 1 6.28935 12.5784 15.7253 -8.95021
601 1 7.8616 14.1523 17.2995 -8.95291
602 1 9.43527 12.5794 15.727 -8.9547
603 1 11.0069 14.1532 17.3 -8.95097
604 1 12.5824 12.5807 15.7326 -8.96032
605 1 14.1537 14.1535 17.3006 -8.9519
606 1 15.7282 12.5808 15.7281 -8.94748
607 1 17.2982 14.1526 17.2981 -8.9492
608 1 18.8707 12.5798 15.7254 -8.94923
609 1 20.442 14.1521 17.2972 -8.94944
610 1 -0.000185289 15.7247 15.7249 -8.94975
611 1 1.57193 17.297 17.2973 -8.94973
612 1 3.14331 15.7249 15.7257 -8.94999
613 1 4.71592 17.2979 17.2986 -8.94928
614 1 6.28629 15.7275 15.7295 -8.94918
615 1 7.8616 17.2979 17.2983 -8.94902
616 1 9.43386 15.7273 15.7283 -8.94705
617 1 11.0071 17.298 17.2982 -8.9493
618 1 12.5811 15.7276 15.7285 -8.94851
619 1 14.1527 17.2982 17.2982 -8.94948
620 1 15.7289 15.7288 15.7287 -8.94405
621 1 17.2982 17.2982 17.298 -8.94809
622 1 18.8707 15.7253 15.7253 -8.94973
623 1 20.4419 17.2971 17.2971 -8.94952
624 1 22.0134 18.8695 15.7247 -8.94958
625 1 1.5719 20.4418 17.2972 -8.94918
626 1 3.14333 18.8704 15.7257 -8.94818
627 1 4.71686 20.4419 17.2973 -8.94962
628 1 6.28891 18.8706 15.7257 -8.94963
629 1 7.86197 20.4419 17.2973 -8.94946
630 1 9.43445 18.8706 15.7256 -8.94929
631 1 11.007 20.442 17.2973 -8.9495
632 1 12.5799 18.8707 15.7254 -8.94913
633 1 14.1521 20.442 17.2972 -8.94949
634 1 15.7255 18.871 15.7254 -8.9494
635 1 17.2972 20.442 17.2971 -8.94947
636 1 18.8695 18.8696 15.7245 -8.94986
637 1 20.4415 20.4417 17.2968 -8.94961
638 1 1.57223 11.007 20.4415 -8.94959
639 1 4.71685 11.007 20.4415 -8.94968
640 1 7.86177 11.007 20.4415 -8.94909
641 1 11.0067 11.007 20.4415 -8.94837
642 1 14.1526 11.007 20.4415 -8.95034
643 1 17.2975 11.007 20.4415 -8.94948
644 1 20.4418 11.007 20.4415 -8.94956
645 1 4.02671e-05 12.5794 18.8693 -8.94957
646 1 1.57226 14.1519 20.4415 -8.94956
647 1 3.14447 12.5794 18.8694 -8.94956
648 1 4.71695 14.1518 20.4415 -8.9496
649 1 6.28934 12.5792 18.8695 -8.94938
650 1 7.86188 14.1518 20.4416 -8.95048
651 1 9.43442 12.5792 18.8698 -8.94977
652 1 11.0067 14.1522 20.4416 -8.95034
653 1 12.5796 12.5795 18.8708 -8.95142
654 1 14.1523 14.1523 20.4415 -8.9507
655 1 15.7254 12.5798 18.8703 -8.94937
656 1 17.2974 14.1522 20.4415 -8.94939
657 1 18.8697 12.5795 18.8695 -8.9495
658 1 20.4418 14.1519 20.4415 -8.94955
659 1 22.0139 15.7244 18.8693 -8.94956
660 1 1.57227 17.2968 20.4415 -8.94972
661 1 3.14452 15.7243 18.8695 -8.94981
662 1 4.7168 17.297 20.4416 -8.95003
663 1 6.28911 15.7247 18.8703 -8.95068
664 1 7.86182 17.2972 20.4416 -8.9495
665 1 9.4342 15.7251 18.8703 -8.94961
666 1 11.0069 17.2973 20.4416 -8.94953
667 1 12.5796 15.7251 18.8703 -8.94971
668 1 14.1521 17.2973 20.4416 -8.9496
669 1 15.7252 15.7253 18.8703 -8.95009
670 1 17.2973 17.2973 20.4415 -8.94956
671 1 18.8697 15.7246 18.8695 -8.94951
672 1 20.4417 17.2969 20.4415 -8.94957
673 1 -4.16043e-05 18.8693 18.8693 -8.94956
674 1 1.5722 20.4417 20.4415 -8.94943
675 1 3.14433 18.8695 18.8696 -8.94946
676 1 4.71709 20.4417 20.4415 -8.94956
677 1 6.2894 18.8696 18.8696 -8.94947
678 1 7.86201 20.4417 20.4415 -8.94955
679 1 9.43444 18.8697 18.8696 -8.94951
680 1 11.007 20.4417 20.4415 -8.94956
681 1 12.5795 18.8697 18.8695 -8.94946
351 1 22.0139 12.5794 22.0136 -8.94957
355 1 6.28933 12.5792 22.0134 -8.94949
359 1 12.5796 12.5795 22.0122 -8.95153
379 1 22.0139 18.8693 22.0137 -8.94959
367 1 3.14453 15.7243 22.0135 -8.94974
375 1 15.7252 15.7253 22.0128 -8.95002
357 1 9.43439 12.5792 22.0134 -8.94931
363 1 18.8697 12.5795 22.0135 -8.9495
516 1 14.1596 11.007 11.0144 -8.97974
