ITEM: TIMESTEP
112
ITEM: NUMBER OF ATOMS
688
ITEM: BOX BOUNDS pp pp pp
0.0000000000000000e+00 2.2013900999999997e+01
0.0000000000000000e+00 2.2013900999999997e+01
0.0000000000000000e+00 2.2013900999999997e+01
ITEM: ATOMS id type x y z c_pot
1 1 -0.000181785 -4.72008e-17 -0.000178003 -8.94926
2 1 1.57184 1.57206 1.57184 -8.94917
189 1 20.4412 4.7165 11.0071 -8.94954
4 1 4.71682 1.57197 1.57175 -8.94963
175 1 18.8693 9.43417 9.4345 -8.94775
6 1 7.86196 1.57197 1.5718 -8.94946
174 1 15.722 9.43508 9.43437 -8.94001
8 1 11.007 1.57195 1.57183 -8.94951
173 1 12.5578 9.44396 9.43132 -8.9584
10 1 14.1521 1.57191 1.57191 -8.94951
172 1 9.35866 9.18653 9.42733 -8.34692
12 1 17.2972 1.57185 1.5719 -8.94945
188 1 17.2975 4.71618 11.0069 -8.94893
14 1 20.4415 1.57215 1.57216 -8.94957
171 1 6.27633 9.42504 9.43218 -9.0213
16 1 1.57193 4.71685 1.57172 -8.94981
17 1 3.14428 3.14431 -0.000526041 -8.94949
18 1 4.71597 4.71605 1.57055 -8.9495
170 1 3.13944 9.43381 9.43364 -8.95014
20 1 7.86162 4.71612 1.57096 -8.94912
21 1 9.43443 3.1442 -0.00041913 -8.9495
22 1 11.007 4.71598 1.57103 -8.94935
169 1 22.0123 9.43433 9.43434 -8.94961
24 1 14.1526 4.71574 1.57091 -8.94972
168 1 18.8697 6.28869 9.4345 -8.94954
26 1 17.2982 4.71564 1.57103 -8.94814
167 1 15.7261 6.28769 9.43442 -8.94609
28 1 20.442 4.71671 1.57189 -8.94954
166 1 12.5777 6.29172 9.43452 -8.94534
30 1 1.5721 7.86196 1.57177 -8.94941
165 1 9.42933 6.29198 9.43457 -9.0081
32 1 4.71666 7.86219 1.57137 -8.9497
33 1 6.28913 6.28925 -0.000971364 -8.95071
34 1 7.86169 7.86176 1.57018 -8.95249
35 1 9.43417 6.28884 -0.000915739 -8.94964
36 1 11.0068 7.86094 1.56957 -8.95061
37 1 12.5796 6.28875 -0.0010605 -8.94975
38 1 14.1539 7.86023 1.56833 -8.95164
164 1 6.27807 6.27897 9.43454 -8.94299
40 1 17.2984 7.86112 1.57083 -8.94916
163 1 3.13956 6.28671 9.43445 -8.94916
42 1 20.4421 7.86176 1.57178 -8.94943
162 1 22.0124 6.28875 9.43449 -8.94995
44 1 3.14443 9.4345 -0.00044221 -8.94956
161 1 18.8693 3.14421 9.43451 -8.94955
181 1 17.297 1.57203 11.0069 -8.94954
160 1 15.7249 3.14391 9.43446 -8.94959
48 1 15.7256 9.43404 -0.00138214 -8.94938
159 1 12.5796 3.14461 9.43444 -8.94823
50 1 22.0136 4.81063e-16 3.14454 -8.94953
51 1 1.57165 1.57194 4.71671 -8.94948
52 1 3.14407 -2.05609e-15 3.14403 -8.94955
53 1 4.71616 1.57118 4.71609 -8.95004
54 1 6.2894 -1.27358e-15 3.1441 -8.94959
55 1 7.86195 1.57136 4.71636 -8.94969
56 1 9.43459 7.1437e-16 3.14413 -8.94954
57 1 11.0073 1.57145 4.71646 -8.94962
58 1 12.5797 1.57586e-15 3.14425 -8.94953
59 1 14.1524 1.57132 4.71679 -8.95074
60 1 15.7247 1.62919e-15 3.14439 -8.95006
61 1 17.297 1.57202 4.71719 -8.94974
62 1 18.8692 1.85427e-15 3.1447 -8.94971
63 1 20.4414 1.57215 4.71707 -8.94951
64 1 -0.000530257 3.14429 3.14428 -8.94952
65 1 1.57058 4.71603 4.71596 -8.94957
66 1 3.14327 3.14344 3.14323 -8.94823
67 1 4.71269 4.71287 4.71275 -8.94463
68 1 6.28891 3.14338 3.14337 -8.94965
69 1 7.86069 4.71366 4.71441 -8.94916
70 1 9.43444 3.14345 3.14358 -8.94935
71 1 11.0074 4.71398 4.71463 -8.94782
72 1 12.5798 3.14335 3.1437 -8.94918
73 1 14.1551 4.71214 4.7141 -8.94975
74 1 15.7256 3.14287 3.14357 -8.94939
75 1 17.298 4.7159 4.71673 -8.95036
76 1 18.8695 3.14416 3.14447 -8.94983
77 1 20.4414 4.71662 4.71687 -8.94982
78 1 22.0138 6.28928 3.14417 -8.94985
79 1 1.57129 7.86191 4.7163 -8.94987
80 1 3.14343 6.28905 3.14333 -8.95025
81 1 4.71416 7.86145 4.71473 -8.95118
82 1 6.28665 6.28685 3.14 -8.95001
83 1 7.85572 7.85567 4.70681 -8.95369
84 1 9.43387 6.28711 3.14148 -8.9476
85 1 11.0077 7.85707 4.70812 -8.95196
86 1 12.5808 6.28678 3.14091 -8.94941
87 1 14.1659 7.84922 4.70351 -8.92839
88 1 15.7289 6.28508 3.14031 -8.94419
89 1 17.3014 7.85978 4.71485 -8.9509
90 1 18.8708 6.28847 3.1437 -8.94967
91 1 20.4424 7.8616 4.71658 -8.95026
92 1 4.63285e-05 9.43436 3.14403 -8.94954
93 1 3.14379 9.43444 3.14352 -8.94891
94 1 6.28899 9.43515 3.14347 -8.94934
95 1 9.43518 9.43445 3.14351 -8.95103
96 1 12.5829 9.43299 3.1359 -8.95976
97 1 15.7287 9.43293 3.14053 -8.94744
98 1 18.871 9.43405 3.14352 -8.94926
99 1 -0.000406001 1.75101e-16 6.28948 -8.94954
100 1 1.57156 1.57189 7.86188 -8.9495
101 1 3.14391 -1.3763e-15 6.28915 -8.94943
102 1 4.71591 1.57108 7.86159 -8.94944
103 1 6.28915 -1.32869e-14 6.28905 -8.95066
104 1 7.86182 1.57081 7.86187 -8.95125
105 1 9.43477 -6.47617e-15 6.28922 -8.95016
106 1 11.0071 1.57188 7.86215 -8.94941
107 1 12.5796 -3.7405e-15 6.2896 -8.95048
108 1 14.1522 1.572 7.86221 -8.94938
109 1 15.7246 2.03206e-15 6.28972 -8.94955
110 1 17.297 1.57204 7.86207 -8.94954
111 1 18.8692 1.79092e-15 6.2896 -8.94953
112 1 20.4413 1.57212 7.86202 -8.94955
113 1 22.0132 3.14418 6.28932 -8.94945
114 1 1.57037 4.71585 7.86156 -8.94933
115 1 3.14305 3.14321 6.28866 -8.94923
116 1 4.71285 4.71305 7.86043 -8.94777
117 1 6.2877 3.14101 6.28784 -8.95158
118 1 7.85857 4.70949 7.8605 -8.95839
119 1 9.43463 3.14221 6.28853 -8.9505
120 1 11.0065 4.71569 7.86168 -8.95151
121 1 12.5799 3.1424 6.2892 -8.95268
122 1 14.1524 4.71625 7.8627 -8.949
123 1 15.7248 3.14392 6.2898 -8.94966
124 1 17.2975 4.71619 7.86206 -8.94891
125 1 18.8693 3.14426 6.28957 -8.9494
126 1 20.4412 4.7165 7.86194 -8.94955
127 1 -0.00125268 6.28891 6.28905 -8.95012
128 1 1.56893 7.86116 7.86131 -8.95156
129 1 3.13981 6.28704 6.28705 -8.95045
130 1 4.70501 7.85721 7.85856 -8.95732
131 1 6.27614 6.27691 6.27732 -8.93021
132 1 7.81877 7.82762 7.82861 -8.8848
133 1 9.4333 6.28145 6.2847 -8.95169
134 1 11.0249 7.85462 7.8361 -8.94371
135 1 12.5865 6.27837 6.28208 -8.95286
136 1 14.1564 7.86086 7.86383 -8.95302
137 1 15.7271 6.28762 6.28923 -8.95155
138 1 17.2984 7.86137 7.8627 -8.95003
139 1 18.8699 6.28894 6.28959 -8.94988
140 1 20.4412 7.86159 7.862 -8.94997
141 1 22.0135 9.43445 6.2891 -8.94997
142 1 3.14223 9.43496 6.28837 -8.95015
143 1 6.28378 9.43638 6.28684 -8.95155
144 1 9.41896 9.41227 6.28365 -8.95116
145 1 12.6233 9.39929 6.24963 -8.84674
146 1 15.7355 9.43186 6.2852 -8.95856
147 1 18.8717 9.43417 6.28914 -8.95192
148 1 -0.000427292 -1.0991e-15 9.43452 -8.94955
149 1 3.14382 -2.13575e-15 9.4345 -8.94948
150 1 6.28881 -1.43742e-14 9.43446 -8.95034
151 1 9.43472 -7.64683e-14 9.43444 -8.94853
152 1 12.5797 -1.57057e-16 9.43446 -8.94914
153 1 15.7247 1.95421e-15 9.43449 -8.94966
154 1 18.8692 8.19197e-16 9.43452 -8.94957
155 1 -0.000708526 3.14413 9.43451 -8.9495
156 1 3.14294 3.14316 9.43448 -8.94944
157 1 6.28703 3.14078 9.43444 -8.94969
158 1 9.43425 3.14389 9.43439 -8.94688
177 1 4.71588 1.57105 11.0074 -8.94942
183 1 1.57035 4.71586 11.0074 -8.94925
184 1 4.71276 4.71298 11.0084 -8.94737
5 1 6.28952 -1.31569e-16 -0.000258131 -8.94951
41 1 18.8698 6.28915 -0.000456754 -8.94946
7 1 9.4345 1.30435e-15 -0.000257999 -8.94954
9 1 12.5795 1.31891e-15 -0.000235075 -8.94953
29 1 7.5498e-05 6.28949 -0.000271782 -8.94951
25 1 15.7247 3.14412 -0.000424245 -8.94964
176 1 1.57155 1.57189 11.0071 -8.94949
47 1 12.5797 9.43437 22.0121 -8.95157
178 1 7.8618 1.57066 11.0071 -8.95143
179 1 11.0071 1.57177 11.0068 -8.94947
180 1 14.1522 1.57196 11.0067 -8.9494
343 1 18.8699 9.43433 18.8696 -8.94948
182 1 20.4413 1.57211 11.007 -8.94955
45 1 6.28932 9.43466 22.0134 -8.94947
43 1 22.014 9.43445 22.0136 -8.94955
185 1 7.85854 4.70865 11.0086 -8.95896
186 1 11.0065 4.7152 11.0072 -8.95144
187 1 14.1525 4.71608 11.0062 -8.94874
342 1 15.7256 9.43406 18.8704 -8.94937
341 1 12.5797 9.43439 18.8708 -8.95145
190 1 1.56902 7.86136 11.0073 -8.95152
191 1 4.70538 7.85781 11.0096 -8.95827
192 1 7.8193 7.82437 11.0427 -8.90659
193 1 11.0231 7.85346 11.0331 -8.95853
194 1 14.1558 7.86087 11.0041 -8.95281
195 1 17.2983 7.86137 11.0063 -8.94987
196 1 20.4412 7.86162 11.0069 -8.94989
197 1 22.0135 -1.86896e-15 12.5796 -8.94953
198 1 1.57163 1.57192 14.1523 -8.94949
199 1 3.14388 -2.20379e-15 12.5799 -8.94942
200 1 4.71607 1.57108 14.153 -8.95007
201 1 6.2891 -1.34388e-14 12.58 -8.95074
202 1 7.86189 1.57115 14.1528 -8.9498
203 1 9.43477 -9.36037e-15 12.5798 -8.95032
204 1 11.0073 1.57122 14.1527 -8.94976
205 1 12.5797 -3.65745e-15 12.5794 -8.95056
206 1 14.1525 1.57123 14.1523 -8.95076
207 1 15.7246 1.39169e-15 12.5793 -8.94954
208 1 17.297 1.57201 14.1518 -8.94972
209 1 18.8692 -1.34874e-15 12.5794 -8.94953
210 1 20.4414 1.57215 14.152 -8.94951
211 1 -0.000681847 3.14417 12.5797 -8.94944
212 1 1.57053 4.71599 14.153 -8.94976
213 1 3.14301 3.14317 12.5803 -8.94921
214 1 4.71238 4.71246 14.1565 -8.94446
215 1 6.28756 3.14064 12.5812 -8.95174
216 1 7.86045 4.71275 14.1551 -8.94933
217 1 9.43465 3.14162 12.5806 -8.9508
218 1 11.0077 4.71298 14.1549 -8.94791
219 1 12.58 3.14208 12.5798 -8.95286
220 1 14.1553 4.7118 14.1551 -8.9498
221 1 15.7248 3.14387 12.5792 -8.9496
222 1 17.298 4.7159 14.1523 -8.95044
223 1 18.8693 3.14425 12.5795 -8.9494
224 1 20.4414 4.71662 14.1521 -8.94986
225 1 22.0127 6.28894 12.5799 -8.9502
226 1 1.57086 7.86159 14.153 -8.94959
227 1 3.13981 6.28702 12.5818 -8.95115
228 1 4.71348 7.86077 14.1547 -8.95065
229 1 6.27555 6.27559 12.5922 -8.93027
230 1 7.85443 7.85323 14.1647 -8.95096
231 1 9.43346 6.27924 12.5855 -8.95205
232 1 11.0085 7.85434 14.1633 -8.94842
233 1 12.5864 6.27722 12.587 -8.9541
234 1 14.1664 7.84847 14.1659 -8.92765
235 1 15.727 6.2876 12.5796 -8.9517
236 1 17.3014 7.85975 14.1542 -8.95118
237 1 18.8699 6.28895 12.5794 -8.94984
238 1 20.4422 7.86153 14.1525 -8.95031
239 1 -0.000888572 9.43431 12.58 -8.95007
240 1 3.14086 9.43403 12.5812 -8.94837
241 1 6.28315 9.43292 12.5825 -8.97984
242 1 9.41866 9.40532 12.5962 -8.94818
243 1 12.6224 9.39489 12.6195 -8.87716
244 1 15.735 9.43175 12.5835 -8.9588
245 1 18.8715 9.43416 12.5799 -8.95195
246 1 22.0135 -8.65758e-16 15.7245 -8.94955
247 1 1.5718 1.57204 17.2973 -8.94915
248 1 3.14401 -1.98223e-15 15.7251 -8.94955
249 1 4.71675 1.5719 17.2974 -8.9496
250 1 6.28933 -1.18805e-15 15.725 -8.94963
251 1 7.86192 1.57188 17.2974 -8.94944
252 1 9.43458 -4.30328e-16 15.725 -8.94957
253 1 11.0071 1.57186 17.2974 -8.94949
254 1 12.5797 1.28147e-15 15.7249 -8.94956
255 1 14.1522 1.57184 17.2973 -8.94948
256 1 15.7248 1.52518e-15 15.7247 -8.95007
257 1 17.2973 1.57182 17.2972 -8.94946
258 1 18.8692 -7.76784e-17 15.7244 -8.94971
259 1 20.4415 1.57213 17.2969 -8.94959
260 1 22.0133 3.14426 15.7248 -8.94958
261 1 1.57185 4.71679 17.2974 -8.94975
262 1 3.14315 3.14332 15.7259 -8.94817
263 1 4.71576 4.71586 17.2988 -8.94926
264 1 6.28874 3.14309 15.7259 -8.94962
265 1 7.86151 4.71587 17.2985 -8.94901
266 1 9.43442 3.1431 15.7257 -8.94929
267 1 11.0071 4.71572 17.2984 -8.9493
268 1 12.58 3.14304 15.7256 -8.94913
269 1 14.1528 4.71554 17.2984 -8.94947
270 1 15.7257 3.14277 15.7256 -8.9494
271 1 17.2983 4.71555 17.2981 -8.94807
272 1 18.8695 3.14415 15.7246 -8.94987
273 1 20.4419 4.71666 17.2972 -8.94952
274 1 -0.000209804 6.28917 15.725 -8.94977
275 1 1.57212 7.862 17.2973 -8.94951
276 1 3.14316 6.28886 15.7259 -8.95004
277 1 4.71669 7.86225 17.2977 -8.94999
278 1 6.28605 6.28615 15.7298 -8.94912
279 1 7.86154 7.86152 17.2996 -8.95295
280 1 9.4338 6.28632 15.7285 -8.94703
281 1 11.0069 7.86063 17.3002 -8.95102
282 1 12.5813 6.28603 15.7288 -8.94847
283 1 14.1539 7.86024 17.3008 -8.95191
284 1 15.7292 6.28486 15.7289 -8.94401
285 1 17.2984 7.86116 17.2982 -8.94918
286 1 18.8708 6.28843 15.7254 -8.94975
287 1 20.4421 7.86177 17.2973 -8.94942
288 1 22.0139 9.43437 15.7251 -8.94948
289 1 3.14393 9.43457 15.7254 -8.94927
290 1 6.2893 9.43541 15.7252 -8.95014
291 1 9.43529 9.43433 15.7271 -8.95479
292 1 12.5826 9.43305 15.7328 -8.96033
293 1 15.7285 9.43302 15.7283 -8.94746
294 1 18.8709 9.43406 15.7255 -8.94922
295 1 -0.000194363 -1.13499e-15 18.8693 -8.94926
296 1 1.57213 1.57217 20.4415 -8.94939
297 1 3.14451 -2.7407e-16 18.8694 -8.94958
298 1 4.71702 1.57217 20.4415 -8.94955
299 1 6.28949 1.70428e-16 18.8694 -8.9495
300 1 7.86198 1.57213 20.4415 -8.94953
301 1 9.4345 2.73642e-16 18.8694 -8.94953
302 1 11.007 1.5721 20.4415 -8.94953
303 1 12.5795 1.71128e-15 18.8694 -8.94952
304 1 14.152 1.57211 20.4415 -8.94951
305 1 15.7245 1.79768e-15 18.8693 -8.94954
306 1 17.297 1.57211 20.4415 -8.94958
307 1 18.8694 1.50179e-15 18.8693 -8.94938
308 1 20.4417 1.57222 20.4415 -8.94924
309 1 -5.52862e-05 3.14455 18.8694 -8.94955
310 1 1.57224 4.7171 20.4415 -8.94972
311 1 3.14423 3.14427 18.8697 -8.94944
312 1 4.71672 4.71679 20.4416 -8.95005
313 1 6.28932 3.14423 18.8697 -8.94946
314 1 7.86176 4.7166 20.4416 -8.9495
315 1 9.43442 3.14413 18.8697 -8.94949
316 1 11.0069 4.71647 20.4416 -8.94953
317 1 12.5796 3.1441 18.8696 -8.94944
318 1 14.1522 4.71645 20.4416 -8.9496
319 1 15.7247 3.14408 18.8696 -8.94957
320 1 17.2974 4.71644 20.4415 -8.94955
321 1 18.8697 3.14422 18.8695 -8.94911
322 1 20.4418 4.71697 20.4415 -8.94955
323 1 22.014 6.28949 18.8694 -8.94954
324 1 1.57226 7.86203 20.4415 -8.94955
325 1 3.14446 6.28959 18.8695 -8.94982
326 1 4.71691 7.86215 20.4415 -8.94961
327 1 6.28903 6.28915 18.8704 -8.95072
328 1 7.86186 7.86205 20.4416 -8.9505
329 1 9.43417 6.28873 18.8704 -8.94963
330 1 11.0067 7.86163 20.4416 -8.95037
331 1 12.5797 6.28864 18.8705 -8.94973
332 1 14.1524 7.8615 20.4415 -8.95073
333 1 15.7254 6.28849 18.8704 -8.9501
334 1 17.2976 7.8616 20.4415 -8.94937
335 1 18.8698 6.28916 18.8695 -8.94949
336 1 20.4419 7.86191 20.4415 -8.94953
337 1 8.18885e-05 9.43445 18.8694 -8.94955
338 1 3.14445 9.43452 18.8695 -8.94956
339 1 6.28932 9.43471 18.8695 -8.94935
340 1 9.43444 9.43471 18.8699 -8.94978
39 1 15.7254 6.2885 22.0127 -8.95003
31 1 3.14448 6.28958 22.0135 -8.94975
27 1 18.8696 3.14425 22.0136 -8.94915
11 1 15.7244 1.86618e-15 22.0137 -8.94956
15 1 22.0139 3.14457 22.0136 -8.94957
19 1 6.28936 3.1443 22.0134 -8.94948
23 1 12.5795 3.14417 22.0135 -8.94946
3 1 3.14454 -6.39043e-16 22.0136 -8.9496
13 1 18.8693 9.88964e-16 22.0137 -8.94937
46 1 9.43441 9.43465 22.0134 -8.94931
49 1 18.8699 9.43432 22.0134 -8.94948
344 1 1.57209 11.007 1.57171 -8.94956
345 1 4.71655 11.007 1.57131 -8.94966
346 1 7.86199 11.007 1.57216 -8.94847
347 1 11.0071 11.007 1.5715 -8.94643
348 1 14.1546 11.007 1.56809 -8.94957
349 1 17.2985 11.007 1.57076 -8.94943
350 1 20.4421 11.007 1.57174 -8.9495
688 3 10.2347 11.007 9.43486 2.20452
352 1 1.5721 14.1519 1.57177 -8.94941
353 1 3.14443 12.5794 -0.00044221 -8.94956
354 1 4.71666 14.1517 1.57137 -8.9497
687 2 9.51157 11.007 10.1858 -0.00644557
356 1 7.86169 14.1521 1.57018 -8.95249
538 1 17.297 20.4419 11.0069 -8.94954
358 1 11.0068 14.153 1.56957 -8.95061
511 1 18.8693 18.8697 9.43451 -8.94955
360 1 14.1539 14.1537 1.56833 -8.95164
361 1 15.7256 12.5799 -0.00138214 -8.94938
362 1 17.2984 14.1528 1.57083 -8.94916
532 1 20.4412 17.2974 11.0071 -8.94954
364 1 20.4421 14.1521 1.57178 -8.94943
510 1 15.7249 18.87 9.43446 -8.94959
366 1 1.57193 17.297 1.57172 -8.94981
509 1 12.5796 18.8693 9.43444 -8.94823
368 1 4.71597 17.2979 1.57055 -8.9495
369 1 6.28913 15.7246 -0.000971364 -8.95071
370 1 7.86162 17.2978 1.57096 -8.94912
371 1 9.43417 15.7251 -0.000915739 -8.94964
372 1 11.007 17.2979 1.57103 -8.94935
373 1 12.5796 15.7251 -0.0010605 -8.94975
374 1 14.1526 17.2982 1.57091 -8.94972
508 1 9.43425 18.87 9.43439 -8.94688
376 1 17.2982 17.2983 1.57103 -8.94814
507 1 6.28703 18.8731 9.43444 -8.94969
378 1 20.442 17.2972 1.57189 -8.94954
506 1 3.14294 18.8707 9.43448 -8.94944
380 1 1.57184 20.4418 1.57184 -8.94917
381 1 3.14428 18.8696 -0.000526041 -8.94949
382 1 4.71682 20.4419 1.57175 -8.94963
505 1 -0.000708526 18.8698 9.43451 -8.9495
384 1 7.86196 20.4419 1.5718 -8.94946
385 1 9.43443 18.8697 -0.00041913 -8.9495
386 1 11.007 20.442 1.57183 -8.94951
504 1 18.8697 15.7252 9.4345 -8.94954
388 1 14.1521 20.442 1.57191 -8.94951
503 1 15.7261 15.7262 9.43442 -8.94609
390 1 17.2972 20.4421 1.5719 -8.94945
502 1 12.5777 15.7222 9.43452 -8.94534
392 1 20.4415 20.4418 1.57216 -8.94957
393 1 1.57135 11.007 4.71603 -8.9495
394 1 4.71482 11.007 4.71465 -8.94563
395 1 7.86374 11.007 4.71878 -8.9469
396 1 11.0127 11.007 4.7203 -9.00622
397 1 14.1637 11.007 4.7059 -8.94137
398 1 17.3017 11.007 4.71442 -8.94899
399 1 20.4426 11.007 4.71638 -8.95001
400 1 4.63285e-05 12.5795 3.14403 -8.94954
401 1 1.57129 14.152 4.7163 -8.94987
402 1 3.14379 12.5795 3.14352 -8.94891
403 1 4.71416 14.1525 4.71473 -8.95118
404 1 6.28899 12.5788 3.14347 -8.94934
405 1 7.85572 14.1582 4.70681 -8.95369
406 1 9.43518 12.5795 3.14351 -8.95103
407 1 11.0077 14.1568 4.70812 -8.95196
408 1 12.5829 12.5809 3.1359 -8.95976
409 1 14.1659 14.1647 4.70351 -8.92839
410 1 15.7287 12.581 3.14053 -8.94744
411 1 17.3014 14.1541 4.71485 -8.9509
412 1 18.871 12.5799 3.14352 -8.94926
413 1 20.4424 14.1523 4.71658 -8.95026
414 1 22.0138 15.7246 3.14417 -8.94985
415 1 1.57058 17.2979 4.71596 -8.94957
416 1 3.14343 15.7248 3.14333 -8.95025
417 1 4.71269 17.301 4.71275 -8.94463
418 1 6.28665 15.7271 3.14 -8.95001
419 1 7.86069 17.3002 4.71441 -8.94916
420 1 9.43387 15.7268 3.14148 -8.9476
421 1 11.0074 17.2999 4.71463 -8.94782
422 1 12.5808 15.7271 3.14091 -8.94941
423 1 14.1551 17.3018 4.7141 -8.94975
424 1 15.7289 15.7288 3.14031 -8.94419
425 1 17.298 17.298 4.71673 -8.95036
426 1 18.8708 15.7254 3.1437 -8.94967
427 1 20.4414 17.2973 4.71687 -8.94982
428 1 -0.000530257 18.8696 3.14428 -8.94952
429 1 1.57165 20.442 4.71671 -8.94948
430 1 3.14327 18.8705 3.14323 -8.94823
431 1 4.71616 20.4427 4.71609 -8.95004
432 1 6.28891 18.8705 3.14337 -8.94965
433 1 7.86195 20.4425 4.71636 -8.94969
434 1 9.43444 18.8705 3.14358 -8.94935
435 1 11.0073 20.4425 4.71646 -8.94962
436 1 12.5798 18.8706 3.1437 -8.94918
437 1 14.1524 20.4426 4.71679 -8.95074
438 1 15.7256 18.871 3.14357 -8.94939
439 1 17.297 20.4419 4.71719 -8.94974
440 1 18.8695 18.8697 3.14447 -8.94983
441 1 20.4414 20.4418 4.71707 -8.94951
442 1 1.57082 11.007 7.86146 -8.94773
443 1 4.71664 11.007 7.86194 -8.94131
444 1 7.87594 11.007 7.86634 -8.93536
445 1 11.0905 11.007 7.61649 -8.16175
446 1 14.1606 11.007 7.85315 -8.97293
447 1 17.2993 11.007 7.8623 -8.95114
448 1 20.4417 11.007 7.86204 -8.94947
449 1 22.0135 12.5794 6.2891 -8.94997
450 1 1.56893 14.1527 7.86131 -8.95156
451 1 3.14223 12.5789 6.28837 -8.95015
452 1 4.70501 14.1567 7.85856 -8.95732
453 1 6.28378 12.5775 6.28684 -8.95155
454 1 7.81877 14.1863 7.82861 -8.8848
455 1 9.41896 12.6016 6.28365 -8.95116
456 1 11.0249 14.1593 7.8361 -8.94371
457 1 12.6233 12.6146 6.24963 -8.84674
458 1 14.1564 14.153 7.86383 -8.95302
459 1 15.7355 12.582 6.2852 -8.95856
460 1 17.2984 14.1525 7.8627 -8.95003
461 1 18.8717 12.5797 6.28914 -8.95192
462 1 20.4412 14.1523 7.862 -8.94997
463 1 -0.00125268 15.725 6.28905 -8.95012
464 1 1.57037 17.2981 7.86156 -8.94933
465 1 3.13981 15.7269 6.28705 -8.95045
466 1 4.71285 17.3009 7.86043 -8.94777
467 1 6.27614 15.737 6.27732 -8.93021
468 1 7.85857 17.3044 7.8605 -8.95839
469 1 9.4333 15.7325 6.2847 -8.95169
470 1 11.0065 17.2982 7.86168 -8.95151
471 1 12.5865 15.7355 6.28208 -8.95286
472 1 14.1524 17.2976 7.8627 -8.949
473 1 15.7271 15.7263 6.28923 -8.95155
474 1 17.2975 17.2977 7.86206 -8.94891
475 1 18.8699 15.725 6.28959 -8.94988
476 1 20.4412 17.2974 7.86194 -8.94955
477 1 22.0132 18.8697 6.28932 -8.94945
478 1 1.57156 20.442 7.86188 -8.9495
479 1 3.14305 18.8707 6.28866 -8.94923
480 1 4.71591 20.4428 7.86159 -8.94944
481 1 6.2877 18.8729 6.28784 -8.95158
482 1 7.86182 20.4431 7.86187 -8.95125
483 1 9.43463 18.8717 6.28853 -8.9505
484 1 11.0071 20.442 7.86215 -8.94941
485 1 12.5799 18.8715 6.2892 -8.95268
486 1 14.1522 20.4419 7.86221 -8.94938
487 1 15.7248 18.87 6.2898 -8.94966
488 1 17.297 20.4419 7.86207 -8.94954
489 1 18.8693 18.8696 6.28957 -8.9494
490 1 20.4413 20.4418 7.86202 -8.94955
491 1 22.0123 12.5796 9.43434 -8.94961
492 1 3.13944 12.5801 9.43364 -8.95014
493 1 6.27633 12.5889 9.43218 -9.0213
494 1 9.35866 12.8274 9.42733 -8.34692
495 1 12.5578 12.5699 9.43132 -8.9584
496 1 15.722 12.5788 9.43437 -8.94001
497 1 18.8693 12.5797 9.4345 -8.94775
498 1 22.0124 15.7252 9.43449 -8.94995
499 1 3.13956 15.7272 9.43445 -8.94916
500 1 6.27807 15.7349 9.43454 -8.94299
501 1 9.42933 15.7219 9.43457 -9.0081
513 1 4.70705 11.007 11.0072 -8.95662
531 1 17.2975 17.2977 11.0069 -8.94893
526 1 1.57035 17.298 11.0074 -8.94925
527 1 4.71276 17.3009 11.0084 -8.94737
389 1 15.7247 18.8698 -0.000424245 -8.94964
534 1 4.71588 20.4429 11.0074 -8.94942
365 1 7.5498e-05 15.7244 -0.000271782 -8.94951
377 1 18.8698 15.7247 -0.000456754 -8.94946
512 1 1.5692 11.007 11.0074 -8.95093
686 1 20.4417 20.4417 20.4415 -8.94924
514 1 7.82959 11.007 11.0177 -9.14475
515 1 11.1131 11.007 11.254 -8.34574
685 1 18.8697 18.8697 18.8695 -8.94911
517 1 17.2989 11.007 11.0067 -8.95101
518 1 20.4414 11.007 11.0069 -8.94987
519 1 1.56902 14.1525 11.0073 -8.95152
520 1 4.70538 14.1561 11.0096 -8.95827
521 1 7.8193 14.1895 11.0427 -8.90659
522 1 11.0231 14.1604 11.0331 -8.95853
523 1 14.1558 14.153 11.0041 -8.95281
524 1 17.2983 14.1525 11.0063 -8.94987
525 1 20.4412 14.1523 11.0069 -8.94989
391 1 18.8696 18.8696 22.0136 -8.94915
387 1 12.5795 18.8697 22.0135 -8.94946
528 1 7.85854 17.3053 11.0086 -8.95896
529 1 11.0065 17.2987 11.0072 -8.95144
530 1 14.1525 17.2978 11.0062 -8.94874
684 1 17.297 20.4418 20.4415 -8.94958
683 1 15.7247 18.8698 18.8696 -8.94957
533 1 1.57155 20.442 11.0071 -8.94949
383 1 6.28936 18.8696 22.0134 -8.94948
535 1 7.8618 20.4432 11.0071 -8.95143
536 1 11.0071 20.4421 11.0068 -8.94947
537 1 14.1522 20.4419 11.0067 -8.9494
682 1 14.152 20.4418 20.4415 -8.94951
539 1 20.4413 20.4418 11.007 -8.94955
540 1 1.57124 11.007 14.153 -8.94901
541 1 4.71553 11.007 14.1531 -8.94688
542 1 7.86537 11.007 14.1473 -8.99079
543 1 11.012 11.007 14.1458 -9.05093
544 1 14.1629 11.007 14.1622 -8.94251
545 1 17.3014 11.007 14.1545 -8.94897
546 1 20.4424 11.007 14.1527 -8.94989
547 1 -0.000888572 12.5796 12.58 -8.95007
548 1 1.57086 14.1523 14.153 -8.94959
549 1 3.14086 12.5799 12.5812 -8.94837
550 1 4.71348 14.1531 14.1547 -8.95065
551 1 6.28315 12.581 12.5825 -8.97984
552 1 7.85443 14.1607 14.1647 -8.95096
553 1 9.41866 12.6086 12.5962 -8.94818
554 1 11.0085 14.1596 14.1633 -8.94842
555 1 12.6224 12.619 12.6195 -8.87716
556 1 14.1664 14.1654 14.1659 -8.92765
557 1 15.735 12.5822 12.5835 -8.9588
558 1 17.3014 14.1541 14.1542 -8.95118
559 1 18.8715 12.5797 12.5799 -8.95195
560 1 20.4422 14.1524 14.1525 -8.95031
561 1 22.0127 15.725 12.5799 -8.9502
562 1 1.57053 17.2979 14.153 -8.94976
563 1 3.13981 15.7269 12.5818 -8.95115
564 1 4.71238 17.3014 14.1565 -8.94446
565 1 6.27555 15.7383 12.5922 -8.93027
566 1 7.86045 17.3012 14.1551 -8.94933
567 1 9.43346 15.7347 12.5855 -8.95205
568 1 11.0077 17.3009 14.1549 -8.94791
569 1 12.5864 15.7367 12.587 -8.9541
570 1 14.1553 17.3021 14.1551 -8.9498
571 1 15.727 15.7263 12.5796 -8.9517
572 1 17.298 17.298 14.1523 -8.95044
573 1 18.8699 15.725 12.5794 -8.94984
574 1 20.4414 17.2973 14.1521 -8.94986
575 1 -0.000681847 18.8697 12.5797 -8.94944
576 1 1.57163 20.442 14.1523 -8.94949
577 1 3.14301 18.8707 12.5803 -8.94921
578 1 4.71607 20.4428 14.153 -8.95007
579 1 6.28756 18.8733 12.5812 -8.95174
580 1 7.86189 20.4428 14.1528 -8.9498
581 1 9.43465 18.8723 12.5806 -8.9508
582 1 11.0073 20.4427 14.1527 -8.94976
583 1 12.58 18.8718 12.5798 -8.95286
584 1 14.1525 20.4427 14.1523 -8.95076
585 1 15.7248 18.87 12.5792 -8.9496
586 1 17.297 20.4419 14.1518 -8.94972
587 1 18.8693 18.8696 12.5795 -8.9494
588 1 20.4414 20.4418 14.152 -8.94951
589 1 1.5721 11.007 17.2973 -8.94956
590 1 4.71659 11.007 17.2975 -8.94937
591 1 7.86187 11.007 17.2968 -8.94699
592 1 11.0074 11.007 17.2974 -8.94494
593 1 14.1545 11.007 17.3007 -8.94952
594 1 17.2985 11.007 17.2982 -8.94944
595 1 20.4421 11.007 17.2973 -8.9495
596 1 22.0139 12.5795 15.7251 -8.94948
597 1 1.57212 14.1519 17.2973 -8.94951
598 1 3.14393 12.5793 15.7254 -8.94927
599 1 4.71669 14.1516 17.2977 -8.94999
600 1 6.2893 12.5785 15.7252 -8.95014
601 1 7.86154 14.1524 17.2996 -8.95295
602 1 9.43529 12.5796 15.7271 -8.95479
603 1 11.0069 14.1533 17.3002 -8.95102
604 1 12.5826 12.5809 15.7328 -8.96033
605 1 14.1539 14.1537 17.3008 -8.95191
606 1 15.7285 12.5809 15.7283 -8.94746
607 1 17.2984 14.1527 17.2982 -8.94918
608 1 18.8709 12.5798 15.7255 -8.94922
609 1 20.4421 14.1521 17.2973 -8.94942
610 1 -0.000209804 15.7247 15.725 -8.94977
611 1 1.57185 17.2971 17.2974 -8.94975
612 1 3.14316 15.725 15.7259 -8.95004
613 1 4.71576 17.298 17.2988 -8.94926
614 1 6.28605 15.7278 15.7298 -8.94912
615 1 7.86151 17.298 17.2985 -8.94901
616 1 9.4338 15.7276 15.7285 -8.94703
617 1 11.0071 17.2982 17.2984 -8.9493
618 1 12.5813 15.7279 15.7288 -8.94847
619 1 14.1528 17.2984 17.2984 -8.94947
620 1 15.7292 15.729 15.7289 -8.94401
621 1 17.2983 17.2983 17.2981 -8.94807
622 1 18.8708 15.7255 15.7254 -8.94975
623 1 20.4419 17.2972 17.2972 -8.94952
624 1 22.0133 18.8696 15.7248 -8.94958
625 1 1.5718 20.4419 17.2973 -8.94915
626 1 3.14315 18.8706 15.7259 -8.94817
627 1 4.71675 20.442 17.2974 -8.9496
628 1 6.28874 18.8708 15.7259 -8.94962
629 1 7.86192 20.442 17.2974 -8.94944
630 1 9.43442 18.8708 15.7257 -8.94929
631 1 11.0071 20.442 17.2974 -8.94949
632 1 12.58 18.8709 15.7256 -8.94913
633 1 14.1522 20.4421 17.2973 -8.94948
634 1 15.7257 18.8711 15.7256 -8.9494
635 1 17.2973 20.4421 17.2972 -8.94946
636 1 18.8695 18.8697 15.7246 -8.94987
637 1 20.4415 20.4418 17.2969 -8.94959
638 1 1.57223 11.007 20.4415 -8.94958
639 1 4.71683 11.007 20.4415 -8.94967
640 1 7.86177 11.007 20.4415 -8.94906
641 1 11.0068 11.007 20.4415 -8.94834
642 1 14.1527 11.007 20.4414 -8.95037
643 1 17.2977 11.007 20.4415 -8.94946
644 1 20.4419 11.007 20.4415 -8.94954
645 1 8.18885e-05 12.5794 18.8694 -8.94955
646 1 1.57226 14.1519 20.4415 -8.94955
647 1 3.14445 12.5794 18.8695 -8.94956
648 1 4.71691 14.1517 20.4415 -8.94961
649 1 6.28932 12.5792 18.8695 -8.94935
650 1 7.86186 14.1518 20.4416 -8.9505
651 1 9.43444 12.5792 18.8699 -8.94978
652 1 11.0067 14.1523 20.4416 -8.95037
653 1 12.5797 12.5795 18.8708 -8.95145
654 1 14.1524 14.1524 20.4415 -8.95073
655 1 15.7256 12.5798 18.8704 -8.94937
656 1 17.2976 14.1523 20.4415 -8.94937
657 1 18.8699 12.5796 18.8696 -8.94948
658 1 20.4419 14.152 20.4415 -8.94953
659 1 22.014 15.7244 18.8694 -8.94954
660 1 1.57224 17.2968 20.4415 -8.94972
661 1 3.14446 15.7243 18.8695 -8.94982
662 1 4.71672 17.2971 20.4416 -8.95005
663 1 6.28903 15.7247 18.8704 -8.95072
664 1 7.86176 17.2973 20.4416 -8.9495
665 1 9.43417 15.7252 18.8704 -8.94963
666 1 11.0069 17.2974 20.4416 -8.94953
667 1 12.5797 15.7253 18.8705 -8.94973
668 1 14.1522 17.2974 20.4416 -8.9496
669 1 15.7254 15.7254 18.8704 -8.9501
670 1 17.2974 17.2975 20.4415 -8.94955
671 1 18.8698 15.7247 18.8695 -8.94949
672 1 20.4418 17.2969 20.4415 -8.94955
673 1 -5.52862e-05 18.8694 18.8694 -8.94955
674 1 1.57213 20.4417 20.4415 -8.94939
675 1 3.14423 18.8696 18.8697 -8.94944
676 1 4.71702 20.4417 20.4415 -8.94955
677 1 6.28932 18.8697 18.8697 -8.94946
678 1 7.86198 20.4418 20.4415 -8.94953
679 1 9.43442 18.8698 18.8697 -8.94949
680 1 11.007 20.4418 20.4415 -8.94953
681 1 12.5796 18.8698 18.8696 -8.94944
351 1 22.014 12.5795 22.0136 -8.94955
355 1 6.28932 12.5792 22.0134 -8.94947
359 1 12.5797 12.5795 22.0121 -8.95157
379 1 22.0139 18.8693 22.0136 -8.94957
367 1 3.14448 15.7243 22.0135 -8.94975
375 1 15.7254 15.7254 22.0127 -8.95003
357 1 9.43441 12.5793 22.0134 -8.94931
363 1 18.8699 12.5796 22.0134 -8.94948
516 1 14.1593 11.007 11.0146 -8.9798
