ITEM: TIMESTEP
53
ITEM: NUMBER OF ATOMS
688
ITEM: BOX BOUNDS pp pp pp
0.0000000000000000e+00 2.2013900999999997e+01
0.0000000000000000e+00 2.2013900999999997e+01
0.0000000000000000e+00 2.2013900999999997e+01
ITEM: ATOMS id type x y z c_pot
1 1 -7.77155e-08 7.58505e-16 -5.17944e-08 -8.94963
2 1 1.57242 1.57242 1.57242 -8.94962
189 1 20.4415 4.71726 11.007 -8.94963
4 1 4.71727 1.57242 1.57242 -8.94965
175 1 18.8692 9.43446 9.43452 -8.94954
6 1 7.86211 1.57242 1.57242 -8.94963
174 1 15.7251 9.43381 9.43441 -8.94562
8 1 11.007 1.57242 1.57242 -8.94964
173 1 12.5762 9.43466 9.43316 -8.96051
10 1 14.1518 1.57242 1.57242 -8.94964
172 1 9.35575 9.21542 9.41901 -8.29242
12 1 17.2966 1.57242 1.57242 -8.94963
188 1 17.2966 4.71726 11.007 -8.94963
14 1 20.4415 1.57242 1.57242 -8.94963
171 1 6.28085 9.43185 9.43295 -9.02047
16 1 1.57242 4.71726 1.57242 -8.94964
17 1 3.14484 3.14484 -1.44748e-06 -8.94963
18 1 4.71725 4.71725 1.5724 -8.94962
170 1 3.14371 9.43435 9.4343 -8.95058
20 1 7.86211 4.71726 1.57242 -8.94961
21 1 9.43453 3.14484 -6.73993e-08 -8.94964
22 1 11.007 4.71726 1.57241 -8.94965
169 1 22.0138 9.43451 9.43452 -8.94983
24 1 14.1518 4.71727 1.57242 -8.94975
168 1 18.8691 6.28967 9.43453 -8.94962
26 1 17.2967 4.71725 1.5724 -8.94952
167 1 15.7244 6.28947 9.43453 -8.94886
28 1 20.4415 4.71726 1.57242 -8.94963
166 1 12.5791 6.28955 9.43462 -8.95072
30 1 1.57242 7.86211 1.57242 -8.94964
165 1 9.43348 6.28373 9.43444 -8.99511
32 1 4.71725 7.86211 1.57241 -8.94965
33 1 6.28968 6.28968 -1.96425e-05 -8.94966
34 1 7.86205 7.86204 1.57222 -8.95002
35 1 9.43453 6.28968 -1.05637e-05 -8.94963
36 1 11.0069 7.86204 1.57228 -8.94959
37 1 12.5794 6.28968 -2.0242e-07 -8.94962
38 1 14.1519 7.86197 1.57214 -8.94984
164 1 6.28808 6.28795 9.43464 -8.94907
40 1 17.2966 7.86211 1.57242 -8.94971
163 1 3.14463 6.28957 9.43454 -8.94954
42 1 20.4415 7.86211 1.57242 -8.94963
162 1 22.0139 6.28968 9.43453 -8.94966
44 1 3.14484 9.43453 -5.29839e-07 -8.94963
161 1 18.8691 3.14484 9.43453 -8.94964
181 1 17.2966 1.57242 11.007 -8.94963
160 1 15.7242 3.14482 9.43453 -8.94961
48 1 15.7242 9.43453 -8.26606e-06 -8.94961
159 1 12.5794 3.14479 9.43453 -8.94946
50 1 22.0139 -5.2776e-16 3.14484 -8.94963
51 1 1.57242 1.57242 4.71727 -8.94965
52 1 3.14484 8.80379e-17 3.14484 -8.94962
53 1 4.71725 1.5724 4.71725 -8.94962
54 1 6.28969 -3.90474e-16 3.14484 -8.94964
55 1 7.86211 1.57242 4.71726 -8.94962
56 1 9.43453 1.29956e-15 3.14484 -8.94964
57 1 11.007 1.57241 4.71726 -8.94962
58 1 12.5794 1.47418e-15 3.14484 -8.94963
59 1 14.1518 1.5724 4.71725 -8.94966
60 1 15.7242 7.59282e-16 3.14484 -8.94963
61 1 17.2966 1.57242 4.71726 -8.94964
62 1 18.8691 1.35509e-15 3.14484 -8.94963
63 1 20.4415 1.57242 4.71726 -8.94963
64 1 -1.77492e-06 3.14484 3.14484 -8.94963
65 1 1.5724 4.71725 4.71725 -8.94962
66 1 3.14483 3.14483 3.14483 -8.94952
67 1 4.71701 4.71701 4.71701 -8.94837
68 1 6.28969 3.14485 3.14485 -8.94974
69 1 7.86215 4.71723 4.71722 -8.95001
70 1 9.43452 3.14483 3.14484 -8.94966
71 1 11.0069 4.71714 4.71713 -8.94931
72 1 12.5794 3.14484 3.14484 -8.94962
73 1 14.1519 4.71695 4.71711 -8.94965
74 1 15.7242 3.14482 3.14483 -8.9496
75 1 17.2966 4.71726 4.71726 -8.94972
76 1 18.8691 3.14484 3.14484 -8.94964
77 1 20.4415 4.71726 4.71726 -8.94963
78 1 22.0139 6.28968 3.14484 -8.94964
79 1 1.5724 7.8621 4.71725 -8.94963
80 1 3.14483 6.28968 3.14483 -8.94969
81 1 4.71711 7.86202 4.71712 -8.94979
82 1 6.28956 6.28956 3.14456 -8.94983
83 1 7.86133 7.86139 4.71498 -8.95326
84 1 9.43453 6.28954 3.1447 -8.94931
85 1 11.0064 7.86166 4.71598 -8.95205
86 1 12.5793 6.28966 3.1448 -8.95013
87 1 14.1544 7.85943 4.71465 -8.93902
88 1 15.7245 6.28944 3.1446 -8.94842
89 1 17.2969 7.86198 4.71714 -8.94984
90 1 18.8691 6.28967 3.14483 -8.94962
91 1 20.4415 7.8621 4.71726 -8.94968
92 1 5.30477e-07 9.43453 3.14484 -8.94963
93 1 3.14484 9.43453 3.14483 -8.94966
94 1 6.28957 9.43457 3.14464 -8.94989
95 1 9.43411 9.43411 3.14405 -8.94857
96 1 12.58 9.43392 3.14265 -8.95343
97 1 15.7243 9.4345 3.14475 -8.94973
98 1 18.8691 9.43453 3.14484 -8.94961
99 1 -9.51336e-09 1.34434e-15 6.28969 -8.94963
100 1 1.57242 1.57242 7.86211 -8.94964
101 1 3.14484 9.8284e-17 6.28969 -8.94963
102 1 4.71726 1.57241 7.86211 -8.94961
103 1 6.28967 -1.24631e-15 6.28967 -8.94972
104 1 7.86207 1.57225 7.86207 -8.95008
105 1 9.43453 3.78695e-16 6.28968 -8.94965
106 1 11.007 1.57232 7.86207 -8.94971
107 1 12.5794 1.16754e-15 6.28968 -8.9497
108 1 14.1518 1.57241 7.86211 -8.94964
109 1 15.7242 1.44994e-15 6.28969 -8.94964
110 1 17.2966 1.57242 7.86211 -8.94963
111 1 18.8691 5.50611e-16 6.28969 -8.94963
112 1 20.4415 1.57242 7.86211 -8.94963
113 1 22.0139 3.14484 6.28969 -8.94963
114 1 1.57241 4.71726 7.86211 -8.94962
115 1 3.14484 3.14484 6.28969 -8.94971
116 1 4.71716 4.71717 7.86208 -8.94974
117 1 6.28955 3.14456 6.28955 -8.9499
118 1 7.86148 4.71513 7.8615 -8.95345
119 1 9.43458 3.1447 6.28962 -8.94956
120 1 11.0074 4.71637 7.8617 -8.94928
121 1 12.5794 3.14462 6.28961 -8.95006
122 1 14.1519 4.71717 7.86219 -8.94979
123 1 15.7242 3.14484 6.28969 -8.94966
124 1 17.2966 4.71726 7.8621 -8.94963
125 1 18.8691 3.14484 6.28969 -8.94963
126 1 20.4415 4.71726 7.86211 -8.94963
127 1 -1.96058e-05 6.28968 6.28968 -8.94966
128 1 1.57222 7.86206 7.86206 -8.95005
129 1 3.14456 6.28955 6.28956 -8.94982
130 1 4.71478 7.86141 7.86144 -8.95364
131 1 6.28694 6.28691 6.28689 -8.93835
132 1 7.83879 7.84276 7.84084 -8.8953
133 1 9.43499 6.28848 6.28909 -8.95175
134 1 11.016 7.85818 7.85238 -8.95616
135 1 12.5805 6.28721 6.28865 -8.95159
136 1 14.1532 7.86139 7.86264 -8.95031
137 1 15.7243 6.28961 6.28968 -8.95008
138 1 17.2969 7.86199 7.86211 -8.94957
139 1 18.8691 6.28968 6.28968 -8.94962
140 1 20.4415 7.8621 7.8621 -8.94968
141 1 22.0139 9.43453 6.28968 -8.9497
142 1 3.14457 9.43453 6.28954 -8.94976
143 1 6.28766 9.43472 6.28807 -8.948
144 1 9.42825 9.42786 6.2874 -8.97272
145 1 12.6004 9.41506 6.27006 -8.86868
146 1 15.7265 9.43394 6.28905 -8.95348
147 1 18.8692 9.43451 6.28966 -8.9501
148 1 5.10564e-09 7.12979e-16 9.43453 -8.94963
149 1 3.14484 1.26634e-15 9.43453 -8.94964
150 1 6.28967 9.64881e-16 9.43453 -8.94967
151 1 9.43454 1.58734e-15 9.43453 -8.95005
152 1 12.5794 9.81617e-16 9.43453 -8.94963
153 1 15.7242 7.9947e-17 9.43453 -8.94964
154 1 18.8691 3.71521e-16 9.43453 -8.94963
155 1 1.64176e-07 3.14484 9.43453 -8.94963
156 1 3.14484 3.14484 9.43453 -8.94969
157 1 6.28958 3.14462 9.43453 -8.94949
158 1 9.43459 3.14391 9.43453 -8.95094
177 1 4.71726 1.57241 11.007 -8.94961
183 1 1.57241 4.71726 11.007 -8.94961
184 1 4.71715 4.71717 11.007 -8.94957
5 1 6.28969 1.73447e-15 -7.58787e-08 -8.94963
41 1 18.8691 6.28969 4.66814e-07 -8.94965
7 1 9.43453 1.70163e-15 4.74348e-08 -8.94963
9 1 12.5794 1.6683e-15 -5.44973e-09 -8.94963
29 1 -7.40593e-08 6.28969 9.57878e-08 -8.94963
25 1 15.7242 3.14484 7.88029e-07 -8.94965
176 1 1.57242 1.57242 11.007 -8.94964
47 1 12.5794 9.43449 22.0137 -8.9501
178 1 7.86207 1.57225 11.007 -8.95006
179 1 11.007 1.57232 11.007 -8.9497
180 1 14.1518 1.57241 11.0069 -8.94965
343 1 18.8691 9.43453 18.8691 -8.94964
182 1 20.4415 1.57242 11.007 -8.94963
45 1 6.28968 9.43453 22.0139 -8.94967
43 1 22.0139 9.43453 22.0139 -8.94963
185 1 7.86149 4.71516 11.0075 -8.95311
186 1 11.0074 4.71637 11.0073 -8.94903
187 1 14.1519 4.71715 11.0069 -8.94969
342 1 15.7242 9.43453 18.8691 -8.9496
341 1 12.5794 9.43451 18.8692 -8.95008
190 1 1.57227 7.86209 11.007 -8.95004
191 1 4.71519 7.86165 11.0074 -8.95392
192 1 7.84146 7.84372 11.0272 -8.92258
193 1 11.014 7.85873 11.0161 -8.97585
194 1 14.1531 7.86142 11.0062 -8.95026
195 1 17.2968 7.86201 11.0069 -8.94956
196 1 20.4415 7.8621 11.007 -8.94967
197 1 22.0139 -1.00741e-15 12.5794 -8.94963
198 1 1.57242 1.57242 14.1518 -8.94964
199 1 3.14484 -1.64288e-15 12.5794 -8.94963
200 1 4.71725 1.5724 14.1518 -8.94962
201 1 6.28967 8.617e-18 12.5794 -8.94972
202 1 7.86211 1.57241 14.1518 -8.94964
203 1 9.43453 1.94845e-15 12.5794 -8.94967
204 1 11.007 1.5724 14.1518 -8.94965
205 1 12.5794 7.84351e-16 12.5794 -8.9497
206 1 14.1518 1.5724 14.1518 -8.94966
207 1 15.7242 -1.51737e-16 12.5794 -8.94964
208 1 17.2966 1.57242 14.1518 -8.94964
209 1 18.8691 -9.58837e-16 12.5794 -8.94963
210 1 20.4415 1.57242 14.1518 -8.94963
211 1 6.96482e-08 3.14484 12.5794 -8.94963
212 1 1.5724 4.71725 14.1518 -8.94964
213 1 3.14484 3.14484 12.5794 -8.9497
214 1 4.71702 4.71701 14.152 -8.94847
215 1 6.28955 3.14456 12.5795 -8.94991
216 1 7.86212 4.71712 14.1519 -8.95008
217 1 9.43458 3.14465 12.5794 -8.94973
218 1 11.007 4.71702 14.152 -8.94943
219 1 12.5794 3.14461 12.5794 -8.95009
220 1 14.1519 4.71695 14.1519 -8.94972
221 1 15.7242 3.14484 12.5794 -8.94965
222 1 17.2966 4.71726 14.1518 -8.94973
223 1 18.8691 3.14484 12.5794 -8.94963
224 1 20.4415 4.71726 14.1518 -8.94964
225 1 22.0139 6.28968 12.5794 -8.94968
226 1 1.57238 7.86208 14.1518 -8.94956
227 1 3.1446 6.28957 12.5795 -8.94999
228 1 4.71696 7.86189 14.1521 -8.94925
229 1 6.28712 6.2869 12.582 -8.93998
230 1 7.86083 7.86058 14.1548 -8.95084
231 1 9.43498 6.28787 12.5801 -8.95241
232 1 11.0069 7.86069 14.154 -8.94948
233 1 12.5803 6.28707 12.5803 -8.95291
234 1 14.1546 7.85927 14.1546 -8.93807
235 1 15.7243 6.28962 12.5794 -8.95018
236 1 17.2969 7.86197 14.1519 -8.94984
237 1 18.8691 6.28968 12.5794 -8.94962
238 1 20.4415 7.8621 14.1518 -8.94968
239 1 -3.42438e-05 9.43451 12.5794 -8.9497
240 1 3.14435 9.4343 12.5797 -8.9489
241 1 6.28731 9.43235 12.582 -8.98094
242 1 9.42858 9.42275 12.5885 -8.9619
243 1 12.6011 9.41188 12.6002 -8.89342
244 1 15.7266 9.43383 12.5801 -8.95333
245 1 18.8692 9.4345 12.5794 -8.9501
246 1 22.0139 -2.33885e-16 15.7242 -8.94963
247 1 1.57242 1.57242 17.2966 -8.94962
248 1 3.14484 -1.92289e-15 15.7242 -8.94962
249 1 4.71726 1.57242 17.2966 -8.94965
250 1 6.28969 -1.70753e-15 15.7242 -8.94964
251 1 7.86211 1.57242 17.2966 -8.94963
252 1 9.43453 1.19419e-15 15.7242 -8.94964
253 1 11.007 1.57242 17.2966 -8.94964
254 1 12.5794 1.06087e-15 15.7242 -8.94963
255 1 14.1518 1.57242 17.2966 -8.94963
256 1 15.7242 7.19679e-16 15.7242 -8.94963
257 1 17.2966 1.57242 17.2966 -8.94963
258 1 18.8691 -7.26881e-16 15.7242 -8.94963
259 1 20.4415 1.57242 17.2966 -8.94963
260 1 22.0139 3.14484 15.7242 -8.94963
261 1 1.57242 4.71726 17.2966 -8.94964
262 1 3.14483 3.14483 15.7242 -8.94953
263 1 4.71724 4.71725 17.2967 -8.94958
264 1 6.28969 3.14484 15.7242 -8.94973
265 1 7.86211 4.71726 17.2966 -8.94963
266 1 9.43452 3.14483 15.7242 -8.94964
267 1 11.007 4.71726 17.2966 -8.94968
268 1 12.5794 3.14483 15.7242 -8.94962
269 1 14.1518 4.71726 17.2966 -8.9497
270 1 15.7242 3.14482 15.7242 -8.94961
271 1 17.2967 4.71725 17.2967 -8.94952
272 1 18.8691 3.14484 15.7242 -8.94964
273 1 20.4415 4.71726 17.2966 -8.94963
274 1 -1.21458e-06 6.28968 15.7242 -8.94963
275 1 1.57243 7.86211 17.2966 -8.94965
276 1 3.14482 6.28967 15.7242 -8.94963
277 1 4.71727 7.86213 17.2966 -8.94975
278 1 6.28947 6.28949 15.7246 -8.94945
279 1 7.86201 7.86201 17.2969 -8.95014
280 1 9.43452 6.28951 15.7244 -8.94913
281 1 11.0069 7.862 17.2969 -8.94972
282 1 12.5794 6.28957 15.7244 -8.94971
283 1 14.1519 7.862 17.2969 -8.95001
284 1 15.7245 6.28943 15.7245 -8.94835
285 1 17.2966 7.86211 17.2966 -8.94971
286 1 18.8691 6.28967 15.7242 -8.94962
287 1 20.4415 7.86211 17.2966 -8.94963
288 1 22.0139 9.43453 15.7242 -8.94963
289 1 3.14487 9.43456 15.7242 -8.94977
290 1 6.28974 9.43471 15.7243 -8.95059
291 1 9.4342 9.43417 15.7256 -8.95108
292 1 12.5798 9.43414 15.7262 -8.9545
293 1 15.7243 9.43451 15.7243 -8.9497
294 1 18.8691 9.43453 15.7242 -8.94961
295 1 -6.81459e-08 8.0788e-16 18.8691 -8.94963
296 1 1.57242 1.57242 20.4415 -8.94963
297 1 3.14484 1.55179e-15 18.8691 -8.94963
298 1 4.71726 1.57242 20.4415 -8.94963
299 1 6.28969 7.9674e-16 18.8691 -8.94963
300 1 7.86211 1.57242 20.4415 -8.94963
301 1 9.43453 1.34598e-15 18.8691 -8.94963
302 1 11.007 1.57242 20.4415 -8.94963
303 1 12.5794 1.78564e-15 18.8691 -8.94963
304 1 14.1518 1.57242 20.4415 -8.94963
305 1 15.7242 1.82113e-15 18.8691 -8.94963
306 1 17.2966 1.57242 20.4415 -8.94963
307 1 18.8691 1.76275e-15 18.8691 -8.94963
308 1 20.4415 1.57242 20.4415 -8.94963
309 1 8.69306e-08 3.14484 18.8691 -8.94963
310 1 1.57242 4.71726 20.4415 -8.94963
311 1 3.14484 3.14484 18.8691 -8.94963
312 1 4.71726 4.71726 20.4415 -8.94963
313 1 6.28969 3.14484 18.8691 -8.94964
314 1 7.86211 4.71726 20.4415 -8.94963
315 1 9.43453 3.14484 18.8691 -8.94964
316 1 11.007 4.71726 20.4415 -8.94964
317 1 12.5794 3.14484 18.8691 -8.94964
318 1 14.1518 4.71726 20.4415 -8.94964
319 1 15.7242 3.14484 18.8691 -8.94964
320 1 17.2966 4.71726 20.4415 -8.94962
321 1 18.8691 3.14484 18.8691 -8.94962
322 1 20.4415 4.71726 20.4415 -8.94963
323 1 22.0139 6.28969 18.8691 -8.94963
324 1 1.57242 7.86211 20.4415 -8.94963
325 1 3.14484 6.28969 18.8691 -8.94965
326 1 4.71727 7.86211 20.4415 -8.94964
327 1 6.28967 6.28967 18.8691 -8.94966
328 1 7.8621 7.8621 20.4415 -8.94972
329 1 9.43453 6.28967 18.8691 -8.94961
330 1 11.0069 7.8621 20.4415 -8.94968
331 1 12.5794 6.28968 18.8691 -8.94961
332 1 14.1518 7.86209 20.4415 -8.94971
333 1 15.7242 6.28967 18.8691 -8.94964
334 1 17.2966 7.86211 20.4415 -8.94963
335 1 18.8691 6.28969 18.8691 -8.94965
336 1 20.4415 7.86211 20.4415 -8.94963
337 1 -2.69635e-07 9.43453 18.8691 -8.94963
338 1 3.14484 9.43453 18.8691 -8.94963
339 1 6.28968 9.43454 18.8691 -8.94965
340 1 9.4345 9.43451 18.8692 -8.9499
39 1 15.7242 6.28967 22.0139 -8.94962
31 1 3.14484 6.28969 22.0139 -8.94964
27 1 18.8691 3.14484 22.0139 -8.94962
11 1 15.7242 2.14497e-15 22.0139 -8.94963
15 1 22.0139 3.14484 22.0139 -8.94963
19 1 6.28969 3.14484 22.0139 -8.94963
23 1 12.5794 3.14484 22.0139 -8.94963
3 1 3.14484 1.86886e-16 22.0139 -8.94963
13 1 18.8691 1.78775e-15 22.0139 -8.94963
46 1 9.43449 9.43449 22.0138 -8.94968
49 1 18.8691 9.43453 22.0139 -8.94964
344 1 1.57242 11.007 1.57242 -8.94964
345 1 4.71725 11.007 1.57239 -8.94959
346 1 7.86209 11.007 1.57233 -8.94967
347 1 11.0069 11.007 1.57146 -8.95114
348 1 14.1519 11.007 1.5722 -8.94944
349 1 17.2966 11.007 1.57242 -8.94969
350 1 20.4415 11.007 1.57242 -8.94964
688 3 10.2138 11.007 9.44355 2.38301
352 1 1.57242 14.1518 1.57242 -8.94964
353 1 3.14484 12.5794 -5.29839e-07 -8.94963
354 1 4.71725 14.1518 1.57241 -8.94965
687 2 9.45597 11.007 10.211 0.0822405
356 1 7.86205 14.1519 1.57222 -8.95002
538 1 17.2966 20.4415 11.007 -8.94963
358 1 11.0069 14.1519 1.57228 -8.94959
511 1 18.8691 18.8691 9.43453 -8.94964
360 1 14.1519 14.1519 1.57214 -8.94984
361 1 15.7242 12.5794 -8.26606e-06 -8.94961
362 1 17.2966 14.1518 1.57242 -8.94971
532 1 20.4415 17.2966 11.007 -8.94963
364 1 20.4415 14.1518 1.57242 -8.94963
510 1 15.7242 18.8691 9.43453 -8.94961
366 1 1.57242 17.2966 1.57242 -8.94964
509 1 12.5794 18.8691 9.43453 -8.94946
368 1 4.71725 17.2966 1.5724 -8.94962
369 1 6.28968 15.7242 -1.96425e-05 -8.94966
370 1 7.86211 17.2966 1.57242 -8.94961
371 1 9.43453 15.7242 -1.05637e-05 -8.94963
372 1 11.007 17.2966 1.57241 -8.94965
373 1 12.5794 15.7242 -2.0242e-07 -8.94962
374 1 14.1518 17.2966 1.57242 -8.94975
508 1 9.43459 18.87 9.43453 -8.95094
376 1 17.2967 17.2967 1.5724 -8.94952
507 1 6.28958 18.8693 9.43453 -8.94949
378 1 20.4415 17.2966 1.57242 -8.94963
506 1 3.14484 18.8691 9.43453 -8.94969
380 1 1.57242 20.4415 1.57242 -8.94962
381 1 3.14484 18.8691 -1.44748e-06 -8.94963
382 1 4.71727 20.4415 1.57242 -8.94965
505 1 1.64176e-07 18.8691 9.43453 -8.94963
384 1 7.86211 20.4415 1.57242 -8.94963
385 1 9.43453 18.8691 -6.73993e-08 -8.94964
386 1 11.007 20.4415 1.57242 -8.94964
504 1 18.8691 15.7242 9.43453 -8.94962
388 1 14.1518 20.4415 1.57242 -8.94964
503 1 15.7244 15.7244 9.43453 -8.94886
390 1 17.2966 20.4415 1.57242 -8.94963
502 1 12.5791 15.7244 9.43462 -8.95072
392 1 20.4415 20.4415 1.57242 -8.94963
393 1 1.5724 11.007 4.71725 -8.94959
394 1 4.71708 11.007 4.71702 -8.94862
395 1 7.86234 11.007 4.71653 -8.95199
396 1 11.008 11.007 4.71059 -8.98921
397 1 14.1534 11.007 4.71561 -8.94823
398 1 17.2968 11.007 4.71716 -8.94944
399 1 20.4415 11.007 4.71726 -8.94965
400 1 5.30477e-07 12.5794 3.14484 -8.94963
401 1 1.5724 14.1518 4.71725 -8.94963
402 1 3.14484 12.5794 3.14483 -8.94966
403 1 4.71711 14.1519 4.71712 -8.94979
404 1 6.28957 12.5793 3.14464 -8.94989
405 1 7.86133 14.1525 4.71498 -8.95326
406 1 9.43411 12.5798 3.14405 -8.94857
407 1 11.0064 14.1522 4.71598 -8.95205
408 1 12.58 12.58 3.14265 -8.95343
409 1 14.1544 14.1545 4.71465 -8.93902
410 1 15.7243 12.5794 3.14475 -8.94973
411 1 17.2969 14.1519 4.71714 -8.94984
412 1 18.8691 12.5794 3.14484 -8.94961
413 1 20.4415 14.1518 4.71726 -8.94968
414 1 22.0139 15.7242 3.14484 -8.94964
415 1 1.5724 17.2967 4.71725 -8.94962
416 1 3.14483 15.7242 3.14483 -8.94969
417 1 4.71701 17.2969 4.71701 -8.94837
418 1 6.28956 15.7243 3.14456 -8.94983
419 1 7.86215 17.2967 4.71722 -8.95001
420 1 9.43453 15.7244 3.1447 -8.94931
421 1 11.0069 17.2968 4.71713 -8.94931
422 1 12.5793 15.7242 3.1448 -8.95013
423 1 14.1519 17.2969 4.71711 -8.94965
424 1 15.7245 15.7245 3.1446 -8.94842
425 1 17.2966 17.2966 4.71726 -8.94972
426 1 18.8691 15.7242 3.14483 -8.94962
427 1 20.4415 17.2966 4.71726 -8.94963
428 1 -1.77492e-06 18.8691 3.14484 -8.94963
429 1 1.57242 20.4415 4.71727 -8.94965
430 1 3.14483 18.8691 3.14483 -8.94952
431 1 4.71725 20.4415 4.71725 -8.94962
432 1 6.28969 18.8691 3.14485 -8.94974
433 1 7.86211 20.4415 4.71726 -8.94962
434 1 9.43452 18.8691 3.14484 -8.94966
435 1 11.007 20.4415 4.71726 -8.94962
436 1 12.5794 18.8691 3.14484 -8.94962
437 1 14.1518 20.4415 4.71725 -8.94966
438 1 15.7242 18.8691 3.14483 -8.9496
439 1 17.2966 20.4415 4.71726 -8.94964
440 1 18.8691 18.8691 3.14484 -8.94964
441 1 20.4415 20.4415 4.71726 -8.94963
442 1 1.57226 11.007 7.86206 -8.94967
443 1 4.71606 11.007 7.86146 -8.94764
444 1 7.86043 11.007 7.8565 -8.93163
445 1 11.0902 11.007 7.66778 -8.1405
446 1 14.1605 11.007 7.86008 -8.96945
447 1 17.2975 11.007 7.86218 -8.95164
448 1 20.4415 11.007 7.86211 -8.94984
449 1 22.0139 12.5794 6.28968 -8.9497
450 1 1.57222 14.1518 7.86206 -8.95005
451 1 3.14457 12.5794 6.28954 -8.94976
452 1 4.71478 14.1525 7.86144 -8.95364
453 1 6.28766 12.5792 6.28807 -8.948
454 1 7.83879 14.1711 7.84084 -8.8953
455 1 9.42825 12.586 6.2874 -8.97272
456 1 11.016 14.1557 7.85238 -8.95616
457 1 12.6004 12.5988 6.27006 -8.86868
458 1 14.1532 14.1525 7.86264 -8.95031
459 1 15.7265 12.58 6.28905 -8.95348
460 1 17.2969 14.1519 7.86211 -8.94957
461 1 18.8692 12.5794 6.28966 -8.9501
462 1 20.4415 14.1518 7.8621 -8.94968
463 1 -1.96058e-05 15.7242 6.28968 -8.94966
464 1 1.57241 17.2966 7.86211 -8.94962
465 1 3.14456 15.7243 6.28956 -8.94982
466 1 4.71716 17.2967 7.86208 -8.94974
467 1 6.28694 15.727 6.28689 -8.93835
468 1 7.86148 17.2988 7.8615 -8.95345
469 1 9.43499 15.7254 6.28909 -8.95175
470 1 11.0074 17.2975 7.8617 -8.94928
471 1 12.5805 15.7267 6.28865 -8.95159
472 1 14.1519 17.2967 7.86219 -8.94979
473 1 15.7243 15.7243 6.28968 -8.95008
474 1 17.2966 17.2966 7.8621 -8.94963
475 1 18.8691 15.7242 6.28968 -8.94962
476 1 20.4415 17.2966 7.86211 -8.94963
477 1 22.0139 18.8691 6.28969 -8.94963
478 1 1.57242 20.4415 7.86211 -8.94964
479 1 3.14484 18.8691 6.28969 -8.94971
480 1 4.71726 20.4415 7.86211 -8.94961
481 1 6.28955 18.8693 6.28955 -8.9499
482 1 7.86207 20.4416 7.86207 -8.95008
483 1 9.43458 18.8692 6.28962 -8.94956
484 1 11.007 20.4416 7.86207 -8.94971
485 1 12.5794 18.8693 6.28961 -8.95006
486 1 14.1518 20.4415 7.86211 -8.94964
487 1 15.7242 18.8691 6.28969 -8.94966
488 1 17.2966 20.4415 7.86211 -8.94963
489 1 18.8691 18.8691 6.28969 -8.94963
490 1 20.4415 20.4415 7.86211 -8.94963
491 1 22.0138 12.5794 9.43452 -8.94983
492 1 3.14371 12.5796 9.4343 -8.95058
493 1 6.28085 12.5821 9.43295 -9.02047
494 1 9.35575 12.7985 9.41901 -8.29242
495 1 12.5762 12.5792 9.43316 -8.96051
496 1 15.7251 12.5801 9.43441 -8.94562
497 1 18.8692 12.5794 9.43452 -8.94954
498 1 22.0139 15.7242 9.43453 -8.94966
499 1 3.14463 15.7243 9.43454 -8.94954
500 1 6.28808 15.726 9.43464 -8.94907
501 1 9.43348 15.7302 9.43444 -8.99511
513 1 4.71095 11.007 11.0076 -8.95897
531 1 17.2966 17.2966 11.007 -8.94963
526 1 1.57241 17.2966 11.007 -8.94961
527 1 4.71715 17.2967 11.007 -8.94957
389 1 15.7242 18.8691 7.88029e-07 -8.94965
534 1 4.71726 20.4415 11.007 -8.94961
365 1 -7.40593e-08 15.7242 9.57878e-08 -8.94963
377 1 18.8691 15.7242 4.66814e-07 -8.94965
512 1 1.57187 11.007 11.007 -8.95114
686 1 20.4415 20.4415 20.4415 -8.94963
514 1 7.81919 11.007 11.0264 -9.15245
515 1 11.1212 11.007 11.2116 -8.28839
685 1 18.8691 18.8691 18.8691 -8.94962
517 1 17.2977 11.007 11.0069 -8.95212
518 1 20.4415 11.007 11.0069 -8.95
519 1 1.57227 14.1518 11.007 -8.95004
520 1 4.71519 14.1523 11.0074 -8.95392
521 1 7.84146 14.1702 11.0272 -8.92258
522 1 11.014 14.1552 11.0161 -8.97585
523 1 14.1531 14.1525 11.0062 -8.95026
524 1 17.2968 14.1519 11.0069 -8.94956
525 1 20.4415 14.1518 11.007 -8.94967
391 1 18.8691 18.8691 22.0139 -8.94962
387 1 12.5794 18.8691 22.0139 -8.94963
528 1 7.86149 17.2987 11.0075 -8.95311
529 1 11.0074 17.2975 11.0073 -8.94903
530 1 14.1519 17.2968 11.0069 -8.94969
684 1 17.2966 20.4415 20.4415 -8.94963
683 1 15.7242 18.8691 18.8691 -8.94964
533 1 1.57242 20.4415 11.007 -8.94964
383 1 6.28969 18.8691 22.0139 -8.94963
535 1 7.86207 20.4416 11.007 -8.95006
536 1 11.007 20.4416 11.007 -8.9497
537 1 14.1518 20.4415 11.0069 -8.94965
682 1 14.1518 20.4415 20.4415 -8.94963
539 1 20.4415 20.4415 11.007 -8.94963
540 1 1.57244 11.007 14.1518 -8.94951
541 1 4.71745 11.007 14.1517 -8.94952
542 1 7.86358 11.007 14.151 -8.99965
543 1 11.007 11.007 14.1549 -9.0359
544 1 14.1533 11.007 14.1534 -8.94889
545 1 17.2968 11.007 14.1519 -8.94942
546 1 20.4415 11.007 14.1518 -8.94963
547 1 -3.42438e-05 12.5794 12.5794 -8.9497
548 1 1.57238 14.1518 14.1518 -8.94956
549 1 3.14435 12.5796 12.5797 -8.9489
550 1 4.71696 14.152 14.1521 -8.94925
551 1 6.28731 12.5816 12.582 -8.98094
552 1 7.86083 14.1533 14.1548 -8.95084
553 1 9.42858 12.5912 12.5885 -8.9619
554 1 11.0069 14.1532 14.154 -8.94948
555 1 12.6011 12.602 12.6002 -8.89342
556 1 14.1546 14.1546 14.1546 -8.93807
557 1 15.7266 12.5801 12.5801 -8.95333
558 1 17.2969 14.1519 14.1519 -8.94984
559 1 18.8692 12.5794 12.5794 -8.9501
560 1 20.4415 14.1518 14.1518 -8.94968
561 1 22.0139 15.7242 12.5794 -8.94968
562 1 1.5724 17.2966 14.1518 -8.94964
563 1 3.1446 15.7243 12.5795 -8.94999
564 1 4.71702 17.2969 14.152 -8.94847
565 1 6.28712 15.727 12.582 -8.93998
566 1 7.86212 17.2968 14.1519 -8.95008
567 1 9.43498 15.726 12.5801 -8.95241
568 1 11.007 17.2969 14.152 -8.94943
569 1 12.5803 15.7268 12.5803 -8.95291
570 1 14.1519 17.2969 14.1519 -8.94972
571 1 15.7243 15.7243 12.5794 -8.95018
572 1 17.2966 17.2966 14.1518 -8.94973
573 1 18.8691 15.7242 12.5794 -8.94962
574 1 20.4415 17.2966 14.1518 -8.94964
575 1 6.96482e-08 18.8691 12.5794 -8.94963
576 1 1.57242 20.4415 14.1518 -8.94964
577 1 3.14484 18.8691 12.5794 -8.9497
578 1 4.71725 20.4415 14.1518 -8.94962
579 1 6.28955 18.8693 12.5795 -8.94991
580 1 7.86211 20.4415 14.1518 -8.94964
581 1 9.43458 18.8693 12.5794 -8.94973
582 1 11.007 20.4415 14.1518 -8.94965
583 1 12.5794 18.8693 12.5794 -8.95009
584 1 14.1518 20.4415 14.1518 -8.94966
585 1 15.7242 18.8691 12.5794 -8.94965
586 1 17.2966 20.4415 14.1518 -8.94964
587 1 18.8691 18.8691 12.5794 -8.94963
588 1 20.4415 20.4415 14.1518 -8.94963
589 1 1.57242 11.007 17.2966 -8.94964
590 1 4.71724 11.007 17.2966 -8.94951
591 1 7.86205 11.007 17.2967 -8.94895
592 1 11.0069 11.007 17.2973 -8.94985
593 1 14.1519 11.007 17.2969 -8.94944
594 1 17.2966 11.007 17.2966 -8.94969
595 1 20.4415 11.007 17.2966 -8.94964
596 1 22.0139 12.5794 15.7242 -8.94963
597 1 1.57243 14.1518 17.2966 -8.94965
598 1 3.14487 12.5793 15.7242 -8.94977
599 1 4.71727 14.1518 17.2966 -8.94975
600 1 6.28974 12.5792 15.7243 -8.95059
601 1 7.86201 14.1519 17.2969 -8.95014
602 1 9.4342 12.5797 15.7256 -8.95108
603 1 11.0069 14.1519 17.2969 -8.94972
604 1 12.5798 12.5798 15.7262 -8.9545
605 1 14.1519 14.1519 17.2969 -8.95001
606 1 15.7243 12.5794 15.7243 -8.9497
607 1 17.2966 14.1518 17.2966 -8.94971
608 1 18.8691 12.5794 15.7242 -8.94961
609 1 20.4415 14.1518 17.2966 -8.94963
610 1 -1.21458e-06 15.7242 15.7242 -8.94963
611 1 1.57242 17.2966 17.2966 -8.94964
612 1 3.14482 15.7242 15.7242 -8.94963
613 1 4.71724 17.2967 17.2967 -8.94958
614 1 6.28947 15.7244 15.7246 -8.94945
615 1 7.86211 17.2966 17.2966 -8.94963
616 1 9.43452 15.7244 15.7244 -8.94913
617 1 11.007 17.2966 17.2966 -8.94968
618 1 12.5794 15.7243 15.7244 -8.94971
619 1 14.1518 17.2966 17.2966 -8.9497
620 1 15.7245 15.7245 15.7245 -8.94835
621 1 17.2967 17.2967 17.2967 -8.94952
622 1 18.8691 15.7242 15.7242 -8.94962
623 1 20.4415 17.2966 17.2966 -8.94963
624 1 22.0139 18.8691 15.7242 -8.94963
625 1 1.57242 20.4415 17.2966 -8.94962
626 1 3.14483 18.8691 15.7242 -8.94953
627 1 4.71726 20.4415 17.2966 -8.94965
628 1 6.28969 18.8691 15.7242 -8.94973
629 1 7.86211 20.4415 17.2966 -8.94963
630 1 9.43452 18.8691 15.7242 -8.94964
631 1 11.007 20.4415 17.2966 -8.94964
632 1 12.5794 18.8691 15.7242 -8.94962
633 1 14.1518 20.4415 17.2966 -8.94963
634 1 15.7242 18.8691 15.7242 -8.94961
635 1 17.2966 20.4415 17.2966 -8.94963
636 1 18.8691 18.8691 15.7242 -8.94964
637 1 20.4415 20.4415 17.2966 -8.94963
638 1 1.57242 11.007 20.4415 -8.94963
639 1 4.71726 11.007 20.4415 -8.94964
640 1 7.8621 11.007 20.4415 -8.94961
641 1 11.0069 11.007 20.4415 -8.94997
642 1 14.1518 11.007 20.4415 -8.94967
643 1 17.2966 11.007 20.4415 -8.94964
644 1 20.4415 11.007 20.4415 -8.94963
645 1 -2.69635e-07 12.5794 18.8691 -8.94963
646 1 1.57242 14.1518 20.4415 -8.94963
647 1 3.14484 12.5794 18.8691 -8.94963
648 1 4.71727 14.1518 20.4415 -8.94964
649 1 6.28968 12.5794 18.8691 -8.94965
650 1 7.8621 14.1518 20.4415 -8.94972
651 1 9.4345 12.5794 18.8692 -8.9499
652 1 11.0069 14.1518 20.4415 -8.94968
653 1 12.5794 12.5794 18.8692 -8.95008
654 1 14.1518 14.1518 20.4415 -8.94971
655 1 15.7242 12.5794 18.8691 -8.9496
656 1 17.2966 14.1518 20.4415 -8.94963
657 1 18.8691 12.5794 18.8691 -8.94964
658 1 20.4415 14.1518 20.4415 -8.94963
659 1 22.0139 15.7242 18.8691 -8.94963
660 1 1.57242 17.2966 20.4415 -8.94963
661 1 3.14484 15.7242 18.8691 -8.94965
662 1 4.71726 17.2966 20.4415 -8.94963
663 1 6.28967 15.7242 18.8691 -8.94966
664 1 7.86211 17.2966 20.4415 -8.94963
665 1 9.43453 15.7242 18.8691 -8.94961
666 1 11.007 17.2966 20.4415 -8.94964
667 1 12.5794 15.7242 18.8691 -8.94961
668 1 14.1518 17.2966 20.4415 -8.94964
669 1 15.7242 15.7242 18.8691 -8.94964
670 1 17.2966 17.2966 20.4415 -8.94962
671 1 18.8691 15.7242 18.8691 -8.94965
672 1 20.4415 17.2966 20.4415 -8.94963
673 1 8.69306e-08 18.8691 18.8691 -8.94963
674 1 1.57242 20.4415 20.4415 -8.94963
675 1 3.14484 18.8691 18.8691 -8.94963
676 1 4.71726 20.4415 20.4415 -8.94963
677 1 6.28969 18.8691 18.8691 -8.94964
678 1 7.86211 20.4415 20.4415 -8.94963
679 1 9.43453 18.8691 18.8691 -8.94964
680 1 11.007 20.4415 20.4415 -8.94963
681 1 12.5794 18.8691 18.8691 -8.94964
351 1 22.0139 12.5794 22.0139 -8.94963
355 1 6.28968 12.5794 22.0139 -8.94967
359 1 12.5794 12.5794 22.0137 -8.9501
379 1 22.0139 18.8691 22.0139 -8.94963
367 1 3.14484 15.7242 22.0139 -8.94964
375 1 15.7242 15.7242 22.0139 -8.94962
357 1 9.43449 12.5794 22.0138 -8.94968
363 1 18.8691 12.5794 22.0139 -8.94964
516 1 14.1621 11.007 11.0088 -8.97503
