ITEM: TIMESTEP
109
ITEM: NUMBER OF ATOMS
688
ITEM: BOX BOUNDS pp pp pp
0.0000000000000000e+00 2.2013900999999997e+01
0.0000000000000000e+00 2.2013900999999997e+01
0.0000000000000000e+00 2.2013900999999997e+01
ITEM: ATOMS id type x y z c_pot
1 1 -0.000176032 -1.81789e-16 -0.000171755 -8.94927
2 1 1.57185 1.57207 1.57186 -8.94917
189 1 20.4413 4.71651 11.0071 -8.94954
4 1 4.71684 1.57198 1.57177 -8.94963
175 1 18.8693 9.43417 9.4345 -8.94776
6 1 7.86197 1.57198 1.57181 -8.94946
174 1 15.7221 9.43507 9.43437 -8.94001
8 1 11.007 1.57196 1.57184 -8.94951
173 1 12.5579 9.44395 9.43134 -8.95849
10 1 14.1521 1.57192 1.57192 -8.94951
172 1 9.35859 9.18636 9.42734 -8.3465
12 1 17.2972 1.57186 1.57191 -8.94945
188 1 17.2975 4.71619 11.0069 -8.94894
14 1 20.4415 1.57215 1.57217 -8.94957
171 1 6.27632 9.42505 9.43217 -9.0213
16 1 1.57195 4.71687 1.57174 -8.9498
17 1 3.14429 3.14432 -0.000515368 -8.9495
18 1 4.71599 4.71607 1.57058 -8.9495
170 1 3.13945 9.43382 9.43364 -8.95014
20 1 7.86164 4.71614 1.57098 -8.94912
21 1 9.43443 3.14421 -0.000412169 -8.9495
22 1 11.007 4.716 1.57105 -8.94935
169 1 22.0123 9.43433 9.43434 -8.94961
24 1 14.1526 4.71577 1.57093 -8.94972
168 1 18.8697 6.2887 9.4345 -8.94954
26 1 17.2982 4.71567 1.57105 -8.94815
167 1 15.7261 6.28769 9.43442 -8.94609
28 1 20.4419 4.71672 1.5719 -8.94954
166 1 12.5777 6.29171 9.43452 -8.94535
30 1 1.5721 7.86197 1.57178 -8.94941
165 1 9.42934 6.29197 9.43457 -9.00815
32 1 4.71667 7.8622 1.57138 -8.9497
33 1 6.28914 6.28926 -0.000962336 -8.95071
34 1 7.8617 7.86178 1.57018 -8.95249
35 1 9.43418 6.28886 -0.000908165 -8.94964
36 1 11.0067 7.86095 1.56959 -8.9506
37 1 12.5795 6.28877 -0.00104644 -8.94975
38 1 14.1539 7.86025 1.56837 -8.95164
164 1 6.27813 6.27901 9.43453 -8.94299
40 1 17.2984 7.86114 1.57086 -8.94916
163 1 3.13961 6.28674 9.43445 -8.94916
42 1 20.4421 7.86177 1.5718 -8.94944
162 1 22.0125 6.28876 9.43449 -8.94995
44 1 3.14443 9.4345 -0.000436053 -8.94956
161 1 18.8693 3.14422 9.43451 -8.94955
181 1 17.297 1.57204 11.0069 -8.94954
160 1 15.7249 3.14392 9.43446 -8.94959
48 1 15.7256 9.43405 -0.00136155 -8.94938
159 1 12.5796 3.1446 9.43444 -8.94824
50 1 22.0136 3.16322e-16 3.14456 -8.94954
51 1 1.57167 1.57195 4.71673 -8.94949
52 1 3.14409 -1.58229e-15 3.14406 -8.94955
53 1 4.71618 1.5712 4.71611 -8.95004
54 1 6.28941 -1.62475e-15 3.14412 -8.94959
55 1 7.86196 1.57137 4.71637 -8.94968
56 1 9.43459 8.89289e-16 3.14415 -8.94954
57 1 11.0073 1.57146 4.71647 -8.94962
58 1 12.5797 1.57447e-15 3.14427 -8.94952
59 1 14.1524 1.57134 4.7168 -8.95073
60 1 15.7247 1.66341e-15 3.1444 -8.95005
61 1 17.297 1.57203 4.7172 -8.94974
62 1 18.8692 1.58704e-15 3.14471 -8.94971
63 1 20.4414 1.57216 4.71708 -8.94951
64 1 -0.000519136 3.14431 3.14429 -8.94953
65 1 1.57061 4.71605 4.71599 -8.94957
66 1 3.1433 3.14346 3.14325 -8.94823
67 1 4.71273 4.7129 4.71278 -8.94463
68 1 6.28893 3.1434 3.1434 -8.94965
69 1 7.86072 4.7137 4.71444 -8.94916
70 1 9.43444 3.14347 3.1436 -8.94935
71 1 11.0074 4.71401 4.71466 -8.94782
72 1 12.5798 3.14337 3.14372 -8.94918
73 1 14.1551 4.71218 4.71414 -8.94975
74 1 15.7256 3.1429 3.14359 -8.94939
75 1 17.298 4.71593 4.71674 -8.95036
76 1 18.8695 3.14418 3.14448 -8.94983
77 1 20.4414 4.71664 4.71688 -8.94982
78 1 22.0138 6.28929 3.14419 -8.94985
79 1 1.5713 7.86192 4.71632 -8.94987
80 1 3.14345 6.28907 3.14336 -8.95025
81 1 4.71419 7.86147 4.71474 -8.95117
82 1 6.28669 6.28688 3.14003 -8.95002
83 1 7.85576 7.85572 4.70683 -8.95372
84 1 9.43388 6.28714 3.14151 -8.94761
85 1 11.0077 7.85711 4.70817 -8.95197
86 1 12.5808 6.28682 3.14095 -8.94942
87 1 14.1658 7.84926 4.70358 -8.92842
88 1 15.7289 6.28512 3.14036 -8.9442
89 1 17.3014 7.8598 4.71488 -8.9509
90 1 18.8708 6.2885 3.14372 -8.94967
91 1 20.4424 7.86161 4.7166 -8.95025
92 1 3.91234e-05 9.43436 3.14405 -8.94954
93 1 3.1438 9.43444 3.14354 -8.94891
94 1 6.289 9.43516 3.14347 -8.94935
95 1 9.43517 9.43446 3.14352 -8.95102
96 1 12.5829 9.43301 3.13594 -8.95975
97 1 15.7286 9.43295 3.14058 -8.94745
98 1 18.871 9.43406 3.14355 -8.94926
99 1 -0.000388602 -2.86879e-17 6.28949 -8.94954
100 1 1.57159 1.5719 7.86189 -8.9495
101 1 3.14393 -1.36536e-15 6.28917 -8.94943
102 1 4.71594 1.57109 7.8616 -8.94944
103 1 6.28916 -4.6445e-15 6.28906 -8.95066
104 1 7.86183 1.57082 7.86187 -8.95125
105 1 9.43477 9.18255e-16 6.28922 -8.95016
106 1 11.0071 1.57188 7.86215 -8.94941
107 1 12.5796 -1.34777e-16 6.2896 -8.95048
108 1 14.1522 1.572 7.86221 -8.94938
109 1 15.7246 1.8573e-15 6.28972 -8.94955
110 1 17.297 1.57204 7.86207 -8.94954
111 1 18.8692 1.72984e-15 6.28961 -8.94953
112 1 20.4414 1.57212 7.86203 -8.94955
113 1 22.0132 3.14419 6.28934 -8.94946
114 1 1.57041 4.71587 7.86158 -8.94933
115 1 3.14309 3.14323 6.28868 -8.94923
116 1 4.7129 4.71309 7.86045 -8.94778
117 1 6.28773 3.14103 6.28786 -8.95158
118 1 7.85861 4.70951 7.86051 -8.95839
119 1 9.43464 3.14223 6.28854 -8.95049
120 1 11.0066 4.71569 7.86169 -8.95151
121 1 12.5799 3.14241 6.28921 -8.95267
122 1 14.1524 4.71626 7.86271 -8.94901
123 1 15.7248 3.14394 6.28981 -8.94966
124 1 17.2975 4.7162 7.86206 -8.94891
125 1 18.8693 3.14427 6.28958 -8.9494
126 1 20.4413 4.71651 7.86195 -8.94955
127 1 -0.00123441 6.28892 6.28906 -8.95012
128 1 1.56895 7.86118 7.86132 -8.95156
129 1 3.13985 6.28707 6.28706 -8.95045
130 1 4.70504 7.85724 7.85856 -8.95732
131 1 6.27618 6.27694 6.27733 -8.93019
132 1 7.81876 7.82762 7.82857 -8.8847
133 1 9.43332 6.28148 6.28473 -8.95168
134 1 11.0249 7.85463 7.83615 -8.94367
135 1 12.5865 6.2784 6.28212 -8.95285
136 1 14.1564 7.86086 7.86385 -8.95303
137 1 15.7271 6.28764 6.28925 -8.95154
138 1 17.2984 7.86137 7.8627 -8.95003
139 1 18.8699 6.28895 6.2896 -8.94987
140 1 20.4413 7.8616 7.862 -8.94997
141 1 22.0135 9.43446 6.28911 -8.94997
142 1 3.14224 9.43496 6.28837 -8.95015
143 1 6.28379 9.43639 6.28683 -8.95152
144 1 9.419 9.41234 6.28372 -8.95124
145 1 12.6232 9.39934 6.24972 -8.84685
146 1 15.7354 9.43187 6.28525 -8.95855
147 1 18.8717 9.43418 6.28915 -8.95192
148 1 -0.00040911 -1.0196e-15 9.43452 -8.94955
149 1 3.14385 -1.92739e-15 9.4345 -8.94948
150 1 6.28884 -1.47649e-15 9.43446 -8.95033
151 1 9.43473 -1.65724e-14 9.43444 -8.94854
152 1 12.5797 2.2616e-15 9.43446 -8.94915
153 1 15.7247 1.62561e-15 9.43449 -8.94966
154 1 18.8692 7.52775e-16 9.43452 -8.94958
155 1 -0.000685363 3.14415 9.43451 -8.9495
156 1 3.14298 3.14318 9.43448 -8.94944
157 1 6.28708 3.14081 9.43444 -8.94969
158 1 9.43427 3.14388 9.43439 -8.94689
177 1 4.71592 1.57107 11.0074 -8.94941
183 1 1.57039 4.71588 11.0074 -8.94925
184 1 4.71282 4.71302 11.0084 -8.94737
5 1 6.28953 1.17326e-16 -0.000250472 -8.94952
41 1 18.8698 6.28917 -0.000445235 -8.94947
7 1 9.4345 1.39741e-15 -0.000252183 -8.94954
9 1 12.5795 1.33764e-15 -0.000229778 -8.94953
29 1 6.97695e-05 6.2895 -0.000263042 -8.94952
25 1 15.7247 3.14414 -0.000414601 -8.94964
176 1 1.57158 1.5719 11.0071 -8.94949
47 1 12.5797 9.43438 22.0122 -8.95156
178 1 7.86182 1.57066 11.0071 -8.95143
179 1 11.0071 1.57177 11.0068 -8.94947
180 1 14.1522 1.57196 11.0067 -8.9494
343 1 18.8699 9.43434 18.8696 -8.94948
182 1 20.4414 1.57212 11.007 -8.94955
45 1 6.28932 9.43466 22.0134 -8.94947
43 1 22.014 9.43445 22.0136 -8.94956
185 1 7.85858 4.70867 11.0085 -8.95896
186 1 11.0065 4.7152 11.0072 -8.95144
187 1 14.1525 4.71608 11.0062 -8.94875
342 1 15.7256 9.43407 18.8704 -8.94937
341 1 12.5797 9.4344 18.8708 -8.95145
190 1 1.56905 7.86137 11.0073 -8.95152
191 1 4.70541 7.85785 11.0096 -8.95827
192 1 7.81929 7.82439 11.0428 -8.90648
193 1 11.0231 7.85347 11.0331 -8.95849
194 1 14.1558 7.86087 11.0041 -8.95282
195 1 17.2983 7.86137 11.0062 -8.94986
196 1 20.4412 7.86162 11.0069 -8.94989
197 1 22.0135 -1.90943e-15 12.5795 -8.94954
198 1 1.57165 1.57194 14.1523 -8.9495
199 1 3.14391 -2.41802e-15 12.5798 -8.94942
200 1 4.7161 1.5711 14.153 -8.95007
201 1 6.28911 -4.9652e-15 12.5799 -8.95074
202 1 7.86191 1.57116 14.1527 -8.9498
203 1 9.43478 -1.70306e-16 12.5798 -8.95031
204 1 11.0073 1.57124 14.1527 -8.94975
205 1 12.5797 -1.32639e-16 12.5794 -8.95055
206 1 14.1525 1.57124 14.1523 -8.95076
207 1 15.7246 1.2497e-15 12.5793 -8.94954
208 1 17.297 1.57202 14.1518 -8.94972
209 1 18.8692 -1.294e-15 12.5794 -8.94954
210 1 20.4414 1.57216 14.152 -8.94951
211 1 -0.000660646 3.14419 12.5797 -8.94944
212 1 1.57056 4.71601 14.153 -8.94976
213 1 3.14305 3.1432 12.5803 -8.94921
214 1 4.71242 4.7125 14.1565 -8.94445
215 1 6.2876 3.14067 12.5812 -8.95174
216 1 7.86048 4.71279 14.1551 -8.94933
217 1 9.43466 3.14164 12.5806 -8.95079
218 1 11.0076 4.71302 14.1549 -8.94791
219 1 12.58 3.14209 12.5798 -8.95286
220 1 14.1553 4.71184 14.155 -8.9498
221 1 15.7248 3.14388 12.5792 -8.9496
222 1 17.298 4.71592 14.1523 -8.95044
223 1 18.8693 3.14427 12.5795 -8.9494
224 1 20.4414 4.71664 14.1521 -8.94986
225 1 22.0127 6.28896 12.5799 -8.9502
226 1 1.57088 7.8616 14.153 -8.94958
227 1 3.13985 6.28705 12.5817 -8.95115
228 1 4.71351 7.86078 14.1547 -8.95063
229 1 6.27559 6.27563 12.5922 -8.93026
230 1 7.85448 7.85329 14.1647 -8.95099
231 1 9.43348 6.27929 12.5855 -8.95203
232 1 11.0085 7.85439 14.1633 -8.94844
233 1 12.5864 6.27726 12.5869 -8.9541
234 1 14.1663 7.84851 14.1658 -8.92767
235 1 15.7269 6.28762 12.5796 -8.9517
236 1 17.3014 7.85977 14.1541 -8.95117
237 1 18.8698 6.28896 12.5794 -8.94984
238 1 20.4422 7.86154 14.1525 -8.95031
239 1 -0.000880508 9.43431 12.58 -8.95007
240 1 3.14087 9.43404 12.5812 -8.94837
241 1 6.28313 9.43293 12.5825 -8.97984
242 1 9.41868 9.4054 12.5961 -8.94824
243 1 12.6223 9.39493 12.6195 -8.87714
244 1 15.7349 9.43176 12.5835 -8.95879
245 1 18.8714 9.43416 12.5799 -8.95195
246 1 22.0136 -1.00568e-15 15.7245 -8.94955
247 1 1.57181 1.57204 17.2972 -8.94916
248 1 3.14404 -1.53765e-15 15.725 -8.94956
249 1 4.71676 1.57192 17.2974 -8.94961
250 1 6.28935 -1.0103e-15 15.725 -8.94963
251 1 7.86193 1.5719 17.2974 -8.94944
252 1 9.43458 -4.11193e-17 15.725 -8.94957
253 1 11.0071 1.57188 17.2973 -8.94949
254 1 12.5797 1.55089e-15 15.7249 -8.94956
255 1 14.1522 1.57185 17.2972 -8.94948
256 1 15.7248 1.5453e-15 15.7247 -8.95006
257 1 17.2972 1.57183 17.2972 -8.94946
258 1 18.8692 -4.94604e-17 15.7243 -8.94971
259 1 20.4415 1.57214 17.2969 -8.94959
260 1 22.0134 3.14428 15.7248 -8.94958
261 1 1.57186 4.71681 17.2974 -8.94975
262 1 3.14318 3.14334 15.7259 -8.94817
263 1 4.71579 4.71588 17.2987 -8.94926
264 1 6.28877 3.14312 15.7259 -8.94962
265 1 7.86152 4.7159 17.2984 -8.94902
266 1 9.43443 3.14313 15.7257 -8.94929
267 1 11.0071 4.71574 17.2983 -8.9493
268 1 12.58 3.14306 15.7255 -8.94913
269 1 14.1528 4.71557 17.2984 -8.94947
270 1 15.7257 3.1428 15.7255 -8.9494
271 1 17.2983 4.71558 17.2981 -8.94807
272 1 18.8695 3.14417 15.7246 -8.94986
273 1 20.4419 4.71667 17.2972 -8.94952
274 1 -0.00020587 6.28919 15.725 -8.94977
275 1 1.57212 7.862 17.2973 -8.94951
276 1 3.14318 6.28888 15.7259 -8.95003
277 1 4.7167 7.86226 17.2977 -8.94999
278 1 6.28609 6.28619 15.7298 -8.94913
279 1 7.86155 7.86154 17.2996 -8.95294
280 1 9.43381 6.28636 15.7285 -8.94703
281 1 11.0069 7.86065 17.3002 -8.95101
282 1 12.5813 6.28607 15.7288 -8.94847
283 1 14.1538 7.86027 17.3007 -8.95191
284 1 15.7292 6.2849 15.7289 -8.94402
285 1 17.2984 7.86118 17.2982 -8.94918
286 1 18.8708 6.28845 15.7254 -8.94974
287 1 20.4421 7.86178 17.2973 -8.94943
288 1 22.0139 9.43437 15.725 -8.94948
289 1 3.14394 9.43457 15.7254 -8.94927
290 1 6.28931 9.43542 15.7252 -8.95015
291 1 9.43529 9.43435 15.7271 -8.95478
292 1 12.5826 9.43306 15.7328 -8.96033
293 1 15.7284 9.43303 15.7283 -8.94746
294 1 18.8709 9.43407 15.7255 -8.94923
295 1 -0.000188012 -1.1648e-15 18.8693 -8.94927
296 1 1.57214 1.57218 20.4415 -8.9494
297 1 3.14453 -2.16935e-16 18.8694 -8.94959
298 1 4.71703 1.57218 20.4415 -8.94955
299 1 6.2895 2.78471e-16 18.8694 -8.94951
300 1 7.86198 1.57213 20.4415 -8.94953
301 1 9.4345 4.12184e-16 18.8694 -8.94953
302 1 11.007 1.57211 20.4415 -8.94954
303 1 12.5795 1.66307e-15 18.8694 -8.94952
304 1 14.152 1.57212 20.4415 -8.94952
305 1 15.7245 1.69516e-15 18.8693 -8.94955
306 1 17.2969 1.57212 20.4415 -8.94959
307 1 18.8693 1.48029e-15 18.8693 -8.94938
308 1 20.4416 1.57223 20.4415 -8.94925
309 1 -5.30391e-05 3.14456 18.8694 -8.94955
310 1 1.57225 4.71711 20.4415 -8.94972
311 1 3.14424 3.14428 18.8697 -8.94944
312 1 4.71673 4.7168 20.4416 -8.95005
313 1 6.28933 3.14425 18.8697 -8.94946
314 1 7.86177 4.71661 20.4416 -8.9495
315 1 9.43443 3.14415 18.8696 -8.94949
316 1 11.0069 4.71649 20.4416 -8.94953
317 1 12.5796 3.14412 18.8696 -8.94945
318 1 14.1521 4.71647 20.4416 -8.9496
319 1 15.7247 3.1441 18.8696 -8.94958
320 1 17.2974 4.71646 20.4415 -8.94955
321 1 18.8696 3.14424 18.8694 -8.94912
322 1 20.4418 4.71698 20.4415 -8.94955
323 1 22.014 6.2895 18.8694 -8.94955
324 1 1.57226 7.86203 20.4415 -8.94955
325 1 3.14447 6.2896 18.8695 -8.94981
326 1 4.71692 7.86215 20.4415 -8.94961
327 1 6.28905 6.28916 18.8703 -8.95071
328 1 7.86187 7.86205 20.4416 -8.9505
329 1 9.43417 6.28875 18.8704 -8.94963
330 1 11.0067 7.86164 20.4416 -8.95037
331 1 12.5796 6.28866 18.8704 -8.94973
332 1 14.1524 7.86151 20.4415 -8.95073
333 1 15.7254 6.28852 18.8704 -8.9501
334 1 17.2976 7.86161 20.4415 -8.94938
335 1 18.8698 6.28918 18.8695 -8.94949
336 1 20.4418 7.86192 20.4415 -8.94953
337 1 7.38172e-05 9.43446 18.8694 -8.94955
338 1 3.14445 9.43452 18.8695 -8.94956
339 1 6.28932 9.43471 18.8695 -8.94936
340 1 9.43444 9.43471 18.8699 -8.94978
39 1 15.7253 6.28852 22.0127 -8.95002
31 1 3.14449 6.28959 22.0135 -8.94975
27 1 18.8696 3.14427 22.0136 -8.94916
11 1 15.7244 1.80417e-15 22.0137 -8.94957
15 1 22.0139 3.14458 22.0136 -8.94957
19 1 6.28938 3.14431 22.0135 -8.94948
23 1 12.5795 3.14419 22.0135 -8.94946
3 1 3.14456 -6.97215e-16 22.0136 -8.94961
13 1 18.8693 7.28784e-16 22.0137 -8.94937
46 1 9.43441 9.43465 22.0134 -8.94931
49 1 18.8699 9.43433 22.0134 -8.94948
344 1 1.57209 11.007 1.57173 -8.94957
345 1 4.71655 11.007 1.57132 -8.94966
346 1 7.86199 11.007 1.57215 -8.94847
347 1 11.0071 11.007 1.5715 -8.94643
348 1 14.1545 11.007 1.56813 -8.94957
349 1 17.2985 11.007 1.5708 -8.94943
350 1 20.4421 11.007 1.57175 -8.9495
688 3 10.2342 11.007 9.4348 2.20443
352 1 1.5721 14.1519 1.57178 -8.94941
353 1 3.14443 12.5794 -0.000436053 -8.94956
354 1 4.71667 14.1517 1.57138 -8.9497
687 2 9.51118 11.007 10.1859 -0.00669458
356 1 7.8617 14.1521 1.57018 -8.95249
538 1 17.297 20.4419 11.0069 -8.94954
358 1 11.0067 14.1529 1.56959 -8.9506
511 1 18.8693 18.8697 9.43451 -8.94955
360 1 14.1539 14.1536 1.56837 -8.95164
361 1 15.7256 12.5799 -0.00136155 -8.94938
362 1 17.2984 14.1528 1.57086 -8.94916
532 1 20.4413 17.2974 11.0071 -8.94954
364 1 20.4421 14.1521 1.5718 -8.94944
510 1 15.7249 18.87 9.43446 -8.94959
366 1 1.57195 17.297 1.57174 -8.9498
509 1 12.5796 18.8693 9.43444 -8.94824
368 1 4.71599 17.2978 1.57058 -8.9495
369 1 6.28914 15.7246 -0.000962336 -8.95071
370 1 7.86164 17.2978 1.57098 -8.94912
371 1 9.43418 15.725 -0.000908165 -8.94964
372 1 11.007 17.2979 1.57105 -8.94935
373 1 12.5795 15.7251 -0.00104644 -8.94975
374 1 14.1526 17.2981 1.57093 -8.94972
508 1 9.43427 18.87 9.43439 -8.94689
376 1 17.2982 17.2982 1.57105 -8.94815
507 1 6.28708 18.8731 9.43444 -8.94969
378 1 20.4419 17.2972 1.5719 -8.94954
506 1 3.14298 18.8707 9.43448 -8.94944
380 1 1.57185 20.4418 1.57186 -8.94917
381 1 3.14429 18.8696 -0.000515368 -8.9495
382 1 4.71684 20.4419 1.57177 -8.94963
505 1 -0.000685363 18.8697 9.43451 -8.9495
384 1 7.86197 20.4419 1.57181 -8.94946
385 1 9.43443 18.8697 -0.000412169 -8.9495
386 1 11.007 20.4419 1.57184 -8.94951
504 1 18.8697 15.7252 9.4345 -8.94954
388 1 14.1521 20.442 1.57192 -8.94951
503 1 15.7261 15.7262 9.43442 -8.94609
390 1 17.2972 20.442 1.57191 -8.94945
502 1 12.5777 15.7222 9.43452 -8.94535
392 1 20.4415 20.4417 1.57217 -8.94957
393 1 1.57136 11.007 4.71604 -8.9495
394 1 4.71483 11.007 4.71465 -8.94563
395 1 7.86375 11.007 4.71878 -8.94692
396 1 11.0126 11.007 4.72034 -9.00617
397 1 14.1636 11.007 4.70597 -8.94137
398 1 17.3016 11.007 4.71446 -8.94899
399 1 20.4426 11.007 4.7164 -8.95
400 1 3.91234e-05 12.5795 3.14405 -8.94954
401 1 1.5713 14.152 4.71632 -8.94987
402 1 3.1438 12.5795 3.14354 -8.94891
403 1 4.71419 14.1524 4.71474 -8.95117
404 1 6.289 12.5787 3.14347 -8.94935
405 1 7.85576 14.1582 4.70683 -8.95372
406 1 9.43517 12.5794 3.14352 -8.95102
407 1 11.0077 14.1568 4.70817 -8.95197
408 1 12.5829 12.5809 3.13594 -8.95975
409 1 14.1658 14.1646 4.70358 -8.92842
410 1 15.7286 12.5809 3.14058 -8.94745
411 1 17.3014 14.1541 4.71488 -8.9509
412 1 18.871 12.5798 3.14355 -8.94926
413 1 20.4424 14.1523 4.7166 -8.95025
414 1 22.0138 15.7246 3.14419 -8.94985
415 1 1.57061 17.2978 4.71599 -8.94957
416 1 3.14345 15.7248 3.14336 -8.95025
417 1 4.71273 17.301 4.71278 -8.94463
418 1 6.28669 15.727 3.14003 -8.95002
419 1 7.86072 17.3002 4.71444 -8.94916
420 1 9.43388 15.7268 3.14151 -8.94761
421 1 11.0074 17.2999 4.71466 -8.94782
422 1 12.5808 15.7271 3.14095 -8.94942
423 1 14.1551 17.3017 4.71414 -8.94975
424 1 15.7289 15.7288 3.14036 -8.9442
425 1 17.298 17.298 4.71674 -8.95036
426 1 18.8708 15.7254 3.14372 -8.94967
427 1 20.4414 17.2973 4.71688 -8.94982
428 1 -0.000519136 18.8696 3.14429 -8.94953
429 1 1.57167 20.442 4.71673 -8.94949
430 1 3.1433 18.8704 3.14325 -8.94823
431 1 4.71618 20.4427 4.71611 -8.95004
432 1 6.28893 18.8705 3.1434 -8.94965
433 1 7.86196 20.4425 4.71637 -8.94968
434 1 9.43444 18.8704 3.1436 -8.94935
435 1 11.0073 20.4424 4.71647 -8.94962
436 1 12.5798 18.8705 3.14372 -8.94918
437 1 14.1524 20.4426 4.7168 -8.95073
438 1 15.7256 18.871 3.14359 -8.94939
439 1 17.297 20.4419 4.7172 -8.94974
440 1 18.8695 18.8697 3.14448 -8.94983
441 1 20.4414 20.4417 4.71708 -8.94951
442 1 1.57083 11.007 7.86146 -8.94774
443 1 4.71663 11.007 7.86194 -8.94132
444 1 7.87591 11.007 7.86636 -8.93521
445 1 11.0905 11.007 7.6168 -8.16177
446 1 14.1607 11.007 7.8532 -8.97293
447 1 17.2993 11.007 7.86231 -8.95115
448 1 20.4417 11.007 7.86205 -8.94948
449 1 22.0135 12.5794 6.28911 -8.94997
450 1 1.56895 14.1527 7.86132 -8.95156
451 1 3.14224 12.5789 6.28837 -8.95015
452 1 4.70504 14.1567 7.85856 -8.95732
453 1 6.28379 12.5775 6.28683 -8.95152
454 1 7.81876 14.1863 7.82857 -8.8847
455 1 9.419 12.6016 6.28372 -8.95124
456 1 11.0249 14.1593 7.83615 -8.94367
457 1 12.6232 12.6146 6.24972 -8.84685
458 1 14.1564 14.153 7.86385 -8.95303
459 1 15.7354 12.582 6.28525 -8.95855
460 1 17.2984 14.1525 7.8627 -8.95003
461 1 18.8717 12.5797 6.28915 -8.95192
462 1 20.4413 14.1523 7.862 -8.94997
463 1 -0.00123441 15.725 6.28906 -8.95012
464 1 1.57041 17.298 7.86158 -8.94933
465 1 3.13985 15.7268 6.28706 -8.95045
466 1 4.7129 17.3008 7.86045 -8.94778
467 1 6.27618 15.737 6.27733 -8.93019
468 1 7.85861 17.3044 7.86051 -8.95839
469 1 9.43332 15.7324 6.28473 -8.95168
470 1 11.0066 17.2982 7.86169 -8.95151
471 1 12.5865 15.7355 6.28212 -8.95285
472 1 14.1524 17.2976 7.86271 -8.94901
473 1 15.7271 15.7263 6.28925 -8.95154
474 1 17.2975 17.2977 7.86206 -8.94891
475 1 18.8699 15.725 6.2896 -8.94987
476 1 20.4413 17.2974 7.86195 -8.94955
477 1 22.0132 18.8697 6.28934 -8.94946
478 1 1.57159 20.442 7.86189 -8.9495
479 1 3.14309 18.8707 6.28868 -8.94923
480 1 4.71594 20.4428 7.8616 -8.94944
481 1 6.28773 18.8729 6.28786 -8.95158
482 1 7.86183 20.4431 7.86187 -8.95125
483 1 9.43464 18.8717 6.28854 -8.95049
484 1 11.0071 20.442 7.86215 -8.94941
485 1 12.5799 18.8715 6.28921 -8.95267
486 1 14.1522 20.4419 7.86221 -8.94938
487 1 15.7248 18.87 6.28981 -8.94966
488 1 17.297 20.4419 7.86207 -8.94954
489 1 18.8693 18.8696 6.28958 -8.9494
490 1 20.4414 20.4418 7.86203 -8.94955
491 1 22.0123 12.5796 9.43434 -8.94961
492 1 3.13945 12.5801 9.43364 -8.95014
493 1 6.27632 12.5889 9.43217 -9.0213
494 1 9.35859 12.8275 9.42734 -8.3465
495 1 12.5579 12.5699 9.43134 -8.95849
496 1 15.7221 12.5788 9.43437 -8.94001
497 1 18.8693 12.5797 9.4345 -8.94776
498 1 22.0125 15.7251 9.43449 -8.94995
499 1 3.13961 15.7272 9.43445 -8.94916
500 1 6.27813 15.7349 9.43453 -8.94299
501 1 9.42934 15.7219 9.43457 -9.00815
513 1 4.70703 11.007 11.0072 -8.95664
531 1 17.2975 17.2977 11.0069 -8.94894
526 1 1.57039 17.298 11.0074 -8.94925
527 1 4.71282 17.3009 11.0084 -8.94737
389 1 15.7247 18.8698 -0.000414601 -8.94964
534 1 4.71592 20.4428 11.0074 -8.94941
365 1 6.97695e-05 15.7244 -0.000263042 -8.94952
377 1 18.8698 15.7247 -0.000445235 -8.94947
512 1 1.56921 11.007 11.0074 -8.95094
686 1 20.4416 20.4417 20.4415 -8.94925
514 1 7.8295 11.007 11.0177 -9.1447
515 1 11.1132 11.007 11.2539 -8.34576
685 1 18.8696 18.8697 18.8694 -8.94912
517 1 17.2989 11.007 11.0067 -8.95103
518 1 20.4414 11.007 11.0069 -8.94988
519 1 1.56905 14.1525 11.0073 -8.95152
520 1 4.70541 14.1561 11.0096 -8.95827
521 1 7.81929 14.1895 11.0428 -8.90648
522 1 11.0231 14.1604 11.0331 -8.95849
523 1 14.1558 14.153 11.0041 -8.95282
524 1 17.2983 14.1525 11.0062 -8.94986
525 1 20.4412 14.1523 11.0069 -8.94989
391 1 18.8696 18.8696 22.0136 -8.94916
387 1 12.5795 18.8697 22.0135 -8.94946
528 1 7.85858 17.3052 11.0085 -8.95896
529 1 11.0065 17.2987 11.0072 -8.95144
530 1 14.1525 17.2978 11.0062 -8.94875
684 1 17.2969 20.4418 20.4415 -8.94959
683 1 15.7247 18.8698 18.8696 -8.94958
533 1 1.57158 20.442 11.0071 -8.94949
383 1 6.28938 18.8696 22.0135 -8.94948
535 1 7.86182 20.4432 11.0071 -8.95143
536 1 11.0071 20.4421 11.0068 -8.94947
537 1 14.1522 20.4419 11.0067 -8.9494
682 1 14.152 20.4418 20.4415 -8.94952
539 1 20.4414 20.4418 11.007 -8.94955
540 1 1.57125 11.007 14.153 -8.94901
541 1 4.71553 11.007 14.1531 -8.94687
542 1 7.86536 11.007 14.1473 -8.99083
543 1 11.012 11.007 14.1458 -9.05091
544 1 14.1628 11.007 14.1621 -8.94253
545 1 17.3014 11.007 14.1545 -8.94897
546 1 20.4424 11.007 14.1527 -8.94989
547 1 -0.000880508 12.5796 12.58 -8.95007
548 1 1.57088 14.1523 14.153 -8.94958
549 1 3.14087 12.5799 12.5812 -8.94837
550 1 4.71351 14.1531 14.1547 -8.95063
551 1 6.28313 12.581 12.5825 -8.97984
552 1 7.85448 14.1606 14.1647 -8.95099
553 1 9.41868 12.6085 12.5961 -8.94824
554 1 11.0085 14.1595 14.1633 -8.94844
555 1 12.6223 12.619 12.6195 -8.87714
556 1 14.1663 14.1654 14.1658 -8.92767
557 1 15.7349 12.5821 12.5835 -8.95879
558 1 17.3014 14.1541 14.1541 -8.95117
559 1 18.8714 12.5797 12.5799 -8.95195
560 1 20.4422 14.1524 14.1525 -8.95031
561 1 22.0127 15.7249 12.5799 -8.9502
562 1 1.57056 17.2979 14.153 -8.94976
563 1 3.13985 15.7269 12.5817 -8.95115
564 1 4.71242 17.3014 14.1565 -8.94445
565 1 6.27559 15.7383 12.5922 -8.93026
566 1 7.86048 17.3011 14.1551 -8.94933
567 1 9.43348 15.7346 12.5855 -8.95203
568 1 11.0076 17.3009 14.1549 -8.94791
569 1 12.5864 15.7366 12.5869 -8.9541
570 1 14.1553 17.3021 14.155 -8.9498
571 1 15.7269 15.7263 12.5796 -8.9517
572 1 17.298 17.298 14.1523 -8.95044
573 1 18.8698 15.7249 12.5794 -8.94984
574 1 20.4414 17.2973 14.1521 -8.94986
575 1 -0.000660646 18.8697 12.5797 -8.94944
576 1 1.57165 20.442 14.1523 -8.9495
577 1 3.14305 18.8707 12.5803 -8.94921
578 1 4.7161 20.4428 14.153 -8.95007
579 1 6.2876 18.8732 12.5812 -8.95174
580 1 7.86191 20.4427 14.1527 -8.9498
581 1 9.43466 18.8723 12.5806 -8.95079
582 1 11.0073 20.4427 14.1527 -8.94975
583 1 12.58 18.8718 12.5798 -8.95286
584 1 14.1525 20.4427 14.1523 -8.95076
585 1 15.7248 18.87 12.5792 -8.9496
586 1 17.297 20.4419 14.1518 -8.94972
587 1 18.8693 18.8696 12.5795 -8.9494
588 1 20.4414 20.4417 14.152 -8.94951
589 1 1.5721 11.007 17.2973 -8.94956
590 1 4.71659 11.007 17.2975 -8.94937
591 1 7.86187 11.007 17.2968 -8.94699
592 1 11.0074 11.007 17.2974 -8.94494
593 1 14.1545 11.007 17.3007 -8.94952
594 1 17.2985 11.007 17.2982 -8.94944
595 1 20.4421 11.007 17.2973 -8.9495
596 1 22.0139 12.5795 15.725 -8.94948
597 1 1.57212 14.1519 17.2973 -8.94951
598 1 3.14394 12.5793 15.7254 -8.94927
599 1 4.7167 14.1516 17.2977 -8.94999
600 1 6.28931 12.5785 15.7252 -8.95015
601 1 7.86155 14.1524 17.2996 -8.95294
602 1 9.43529 12.5796 15.7271 -8.95478
603 1 11.0069 14.1533 17.3002 -8.95101
604 1 12.5826 12.5808 15.7328 -8.96033
605 1 14.1538 14.1536 17.3007 -8.95191
606 1 15.7284 12.5809 15.7283 -8.94746
607 1 17.2984 14.1527 17.2982 -8.94918
608 1 18.8709 12.5798 15.7255 -8.94923
609 1 20.4421 14.1521 17.2973 -8.94943
610 1 -0.00020587 15.7247 15.725 -8.94977
611 1 1.57186 17.2971 17.2974 -8.94975
612 1 3.14318 15.725 15.7259 -8.95003
613 1 4.71579 17.298 17.2987 -8.94926
614 1 6.28609 15.7277 15.7298 -8.94913
615 1 7.86152 17.298 17.2984 -8.94902
616 1 9.43381 15.7275 15.7285 -8.94703
617 1 11.0071 17.2982 17.2983 -8.9493
618 1 12.5813 15.7278 15.7288 -8.94847
619 1 14.1528 17.2983 17.2984 -8.94947
620 1 15.7292 15.729 15.7289 -8.94402
621 1 17.2983 17.2983 17.2981 -8.94807
622 1 18.8708 15.7254 15.7254 -8.94974
623 1 20.4419 17.2972 17.2972 -8.94952
624 1 22.0134 18.8696 15.7248 -8.94958
625 1 1.57181 20.4419 17.2972 -8.94916
626 1 3.14318 18.8706 15.7259 -8.94817
627 1 4.71676 20.442 17.2974 -8.94961
628 1 6.28877 18.8708 15.7259 -8.94962
629 1 7.86193 20.442 17.2974 -8.94944
630 1 9.43443 18.8708 15.7257 -8.94929
631 1 11.0071 20.442 17.2973 -8.94949
632 1 12.58 18.8708 15.7255 -8.94913
633 1 14.1522 20.442 17.2972 -8.94948
634 1 15.7257 18.8711 15.7255 -8.9494
635 1 17.2972 20.4421 17.2972 -8.94946
636 1 18.8695 18.8697 15.7246 -8.94986
637 1 20.4415 20.4418 17.2969 -8.94959
638 1 1.57223 11.007 20.4415 -8.94959
639 1 4.71683 11.007 20.4415 -8.94967
640 1 7.86177 11.007 20.4415 -8.94906
641 1 11.0068 11.007 20.4415 -8.94834
642 1 14.1527 11.007 20.4414 -8.95037
643 1 17.2976 11.007 20.4415 -8.94946
644 1 20.4419 11.007 20.4415 -8.94955
645 1 7.38172e-05 12.5794 18.8694 -8.94955
646 1 1.57226 14.1519 20.4415 -8.94955
647 1 3.14445 12.5794 18.8695 -8.94956
648 1 4.71692 14.1517 20.4415 -8.94961
649 1 6.28932 12.5792 18.8695 -8.94936
650 1 7.86187 14.1518 20.4416 -8.9505
651 1 9.43444 12.5792 18.8699 -8.94978
652 1 11.0067 14.1523 20.4416 -8.95037
653 1 12.5797 12.5795 18.8708 -8.95145
654 1 14.1524 14.1524 20.4415 -8.95073
655 1 15.7256 12.5798 18.8704 -8.94937
656 1 17.2976 14.1523 20.4415 -8.94938
657 1 18.8699 12.5796 18.8696 -8.94948
658 1 20.4418 14.152 20.4415 -8.94953
659 1 22.014 15.7244 18.8694 -8.94955
660 1 1.57225 17.2968 20.4415 -8.94972
661 1 3.14447 15.7243 18.8695 -8.94981
662 1 4.71673 17.2971 20.4416 -8.95005
663 1 6.28905 15.7247 18.8703 -8.95071
664 1 7.86177 17.2973 20.4416 -8.9495
665 1 9.43417 15.7252 18.8704 -8.94963
666 1 11.0069 17.2974 20.4416 -8.94953
667 1 12.5796 15.7252 18.8704 -8.94973
668 1 14.1521 17.2974 20.4416 -8.9496
669 1 15.7254 15.7254 18.8704 -8.9501
670 1 17.2974 17.2974 20.4415 -8.94955
671 1 18.8698 15.7247 18.8695 -8.94949
672 1 20.4418 17.2969 20.4415 -8.94955
673 1 -5.30391e-05 18.8693 18.8694 -8.94955
674 1 1.57214 20.4417 20.4415 -8.9494
675 1 3.14424 18.8696 18.8697 -8.94944
676 1 4.71703 20.4417 20.4415 -8.94955
677 1 6.28933 18.8697 18.8697 -8.94946
678 1 7.86198 20.4418 20.4415 -8.94953
679 1 9.43443 18.8698 18.8696 -8.94949
680 1 11.007 20.4418 20.4415 -8.94954
681 1 12.5796 18.8698 18.8696 -8.94945
351 1 22.014 12.5795 22.0136 -8.94956
355 1 6.28932 12.5792 22.0134 -8.94947
359 1 12.5797 12.5795 22.0122 -8.95156
379 1 22.0139 18.8693 22.0136 -8.94957
367 1 3.14449 15.7243 22.0135 -8.94975
375 1 15.7253 15.7254 22.0127 -8.95002
357 1 9.43441 12.5792 22.0134 -8.94931
363 1 18.8699 12.5796 22.0134 -8.94948
516 1 14.1593 11.007 11.0145 -8.9798
