ITEM: TIMESTEP
84
ITEM: NUMBER OF ATOMS
688
ITEM: BOX BOUNDS pp pp pp
0.0000000000000000e+00 2.2013900999999997e+01
0.0000000000000000e+00 2.2013900999999997e+01
0.0000000000000000e+00 2.2013900999999997e+01
ITEM: ATOMS id type x y z c_pot
1 1 -0.000118993 -9.93896e-16 -0.000110976 -8.94935
2 1 1.57201 1.57216 1.57202 -8.94921
189 1 20.4414 4.71668 11.007 -8.94955
4 1 4.717 1.57209 1.57196 -8.94966
175 1 18.8695 9.43416 9.4345 -8.94785
6 1 7.86203 1.57208 1.57197 -8.9495
174 1 15.7225 9.43495 9.4344 -8.94012
8 1 11.007 1.57206 1.57197 -8.94953
173 1 12.5587 9.44352 9.43153 -8.95899
10 1 14.152 1.57205 1.57205 -8.94952
172 1 9.35767 9.18465 9.42741 -8.34198
12 1 17.297 1.572 1.57203 -8.94947
188 1 17.2975 4.71632 11.0069 -8.94896
14 1 20.4415 1.57224 1.57227 -8.9496
171 1 6.27622 9.42524 9.4321 -9.02124
16 1 1.57207 4.717 1.57193 -8.94979
17 1 3.14444 3.14445 -0.000400683 -8.94951
18 1 4.71622 4.71627 1.57085 -8.94952
170 1 3.13962 9.43393 9.43362 -8.95016
20 1 7.86177 4.71635 1.5712 -8.94914
21 1 9.43447 3.14436 -0.000331878 -8.94953
22 1 11.007 4.71623 1.57126 -8.94936
169 1 22.0125 9.43436 9.43435 -8.94968
24 1 14.1524 4.71609 1.57122 -8.94974
168 1 18.8697 6.28881 9.43451 -8.94953
26 1 17.2979 4.71598 1.57129 -8.94821
167 1 15.7261 6.28774 9.43442 -8.94617
28 1 20.4418 4.71689 1.57205 -8.94955
166 1 12.5778 6.29153 9.43451 -8.94553
30 1 1.57214 7.86201 1.57194 -8.94943
165 1 9.42952 6.29183 9.43449 -9.00857
32 1 4.71678 7.86223 1.57153 -8.9497
33 1 6.28925 6.28934 -0.00085403 -8.95064
34 1 7.86177 7.86187 1.57029 -8.95242
35 1 9.43423 6.28899 -0.000817059 -8.94962
36 1 11.0066 7.86112 1.5698 -8.95053
37 1 12.5795 6.28897 -0.000891814 -8.94971
38 1 14.1535 7.8605 1.56877 -8.95159
164 1 6.27881 6.27951 9.43449 -8.9431
40 1 17.298 7.86138 1.57116 -8.94921
163 1 3.1402 6.28711 9.43446 -8.94916
42 1 20.4419 7.86189 1.57197 -8.94947
162 1 22.0127 6.28894 9.4345 -8.94992
44 1 3.14448 9.4345 -0.000364557 -8.94957
161 1 18.8693 3.14435 9.43452 -8.94957
181 1 17.297 1.5721 11.007 -8.94956
160 1 15.7249 3.14398 9.43448 -8.94961
48 1 15.7253 9.43416 -0.00114284 -8.94938
159 1 12.5796 3.14451 9.43445 -8.94829
50 1 22.0137 9.04652e-17 3.14468 -8.94958
51 1 1.5719 1.57207 4.71692 -8.94953
52 1 3.14429 -7.14277e-16 3.14427 -8.94956
53 1 4.71641 1.57136 4.71634 -8.95003
54 1 6.28953 -6.2036e-16 3.14432 -8.94959
55 1 7.86205 1.57152 4.71655 -8.94964
56 1 9.43458 7.61423e-16 3.1443 -8.94955
57 1 11.0072 1.57157 4.71659 -8.94958
58 1 12.5796 1.79555e-15 3.14439 -8.94952
59 1 14.1523 1.57148 4.71688 -8.95064
60 1 15.7246 1.81467e-15 3.1445 -8.95
61 1 17.2969 1.57214 4.71724 -8.94972
62 1 18.8692 9.04266e-16 3.14478 -8.94971
63 1 20.4414 1.57225 4.71716 -8.94954
64 1 -0.000404828 3.14445 3.14445 -8.94954
65 1 1.57089 4.71627 4.71623 -8.94957
66 1 3.14357 3.14367 3.14353 -8.94824
67 1 4.71315 4.71324 4.71312 -8.9446
68 1 6.28915 3.14367 3.14369 -8.94966
69 1 7.86105 4.7141 4.71475 -8.94915
70 1 9.43449 3.14369 3.14382 -8.94937
71 1 11.0074 4.71434 4.71498 -8.94784
72 1 12.5797 3.14362 3.14393 -8.94918
73 1 14.1547 4.71259 4.71449 -8.94975
74 1 15.7253 3.14321 3.1438 -8.94938
75 1 17.2977 4.71619 4.7169 -8.95032
76 1 18.8694 3.14438 3.1446 -8.94981
77 1 20.4414 4.71681 4.717 -8.9498
78 1 22.0138 6.28942 3.14437 -8.94982
79 1 1.57146 7.862 4.71649 -8.94982
80 1 3.1437 6.28923 3.14363 -8.9502
81 1 4.71453 7.86166 4.71493 -8.95109
82 1 6.28704 6.28721 3.14038 -8.95011
83 1 7.8562 7.85626 4.70712 -8.9541
84 1 9.43397 6.28746 3.14181 -8.94767
85 1 11.0074 7.85758 4.70873 -8.9521
86 1 12.5804 6.28721 3.14142 -8.94946
87 1 14.1651 7.84977 4.70429 -8.92873
88 1 15.7284 6.28557 3.14082 -8.94432
89 1 17.3009 7.86005 4.7152 -8.95087
90 1 18.8705 6.28874 3.14394 -8.94966
91 1 20.4422 7.86172 4.71675 -8.9502
92 1 -1.7647e-05 9.43441 3.14423 -8.94954
93 1 3.1439 9.43447 3.14369 -8.94893
94 1 6.28908 9.43523 3.14349 -8.94944
95 1 9.43509 9.4346 3.14354 -8.95085
96 1 12.5824 9.43318 3.13639 -8.95965
97 1 15.728 9.43315 3.14111 -8.94753
98 1 18.8706 9.43417 3.14382 -8.94928
99 1 -0.000235347 2.56651e-16 6.28958 -8.94958
100 1 1.57184 1.57203 7.86198 -8.94953
101 1 3.14419 -9.40254e-16 6.28935 -8.94945
102 1 4.71624 1.57128 7.86172 -8.94944
103 1 6.2893 -6.30276e-16 6.2892 -8.95064
104 1 7.86197 1.57089 7.86193 -8.95123
105 1 9.43478 1.67068e-15 6.28929 -8.95011
106 1 11.0071 1.57186 7.86216 -8.94943
107 1 12.5796 1.84e-15 6.28961 -8.95043
108 1 14.1522 1.57202 7.86221 -8.94939
109 1 15.7245 1.86004e-15 6.28972 -8.94955
110 1 17.297 1.5721 7.86208 -8.94955
111 1 18.8692 1.75657e-15 6.28963 -8.94955
112 1 20.4414 1.57221 7.86206 -8.94958
113 1 22.0134 3.14437 6.28946 -8.94948
114 1 1.5708 4.71614 7.8617 -8.94934
115 1 3.14347 3.14352 6.28892 -8.94927
116 1 4.71348 4.71352 7.86063 -8.94783
117 1 6.28804 3.14131 6.28806 -8.95158
118 1 7.859 4.70971 7.86056 -8.95838
119 1 9.43475 3.1424 6.28868 -8.9504
120 1 11.0067 4.71565 7.86179 -8.95149
121 1 12.5799 3.14255 6.28931 -8.95257
122 1 14.1524 4.71629 7.86277 -8.94905
123 1 15.7247 3.14408 6.28985 -8.94965
124 1 17.2975 4.71633 7.86209 -8.94894
125 1 18.8693 3.14442 6.28962 -8.94942
126 1 20.4414 4.71668 7.86199 -8.94955
127 1 -0.00104389 6.28908 6.28918 -8.95009
128 1 1.56927 7.86132 7.86139 -8.95153
129 1 3.14031 6.28736 6.28731 -8.95045
130 1 4.70548 7.85757 7.85859 -8.95734
131 1 6.27667 6.27729 6.2775 -8.92999
132 1 7.81884 7.82778 7.82818 -8.88355
133 1 9.43361 6.28192 6.28504 -8.9516
134 1 11.0249 7.85478 7.83675 -8.94341
135 1 12.5861 6.2788 6.28262 -8.95283
136 1 14.1563 7.86091 7.86404 -8.95298
137 1 15.7268 6.28786 6.28946 -8.95149
138 1 17.2984 7.86141 7.86273 -8.94998
139 1 18.8698 6.28909 6.28966 -8.94983
140 1 20.4414 7.86167 7.86203 -8.94996
141 1 22.0135 9.43449 6.2892 -8.94996
142 1 3.14243 9.43503 6.28844 -8.95011
143 1 6.28399 9.43658 6.28675 -8.9512
144 1 9.41942 9.41311 6.28436 -8.95213
145 1 12.6224 9.39993 6.25067 -8.84784
146 1 15.735 9.432 6.2857 -8.95843
147 1 18.8715 9.43422 6.28928 -8.95184
148 1 -0.000251451 3.86197e-17 9.43453 -8.94958
149 1 3.14413 1.96005e-16 9.43451 -8.9495
150 1 6.28902 -3.86107e-17 9.43448 -8.95028
151 1 9.43478 1.51015e-15 9.43447 -8.94862
152 1 12.5797 1.71417e-15 9.43448 -8.94921
153 1 15.7246 1.07368e-15 9.4345 -8.94968
154 1 18.8692 1.03147e-15 9.43452 -8.9496
155 1 -0.000473974 3.14434 9.43452 -8.94953
156 1 3.1434 3.14349 9.4345 -8.94946
157 1 6.28751 3.14113 9.43445 -8.94967
158 1 9.43443 3.14383 9.43439 -8.94698
177 1 4.71622 1.57127 11.0073 -8.94941
183 1 1.57079 4.71616 11.0073 -8.94926
184 1 4.71343 4.7135 11.0082 -8.94742
5 1 6.2896 8.77002e-16 -0.000171114 -8.94955
41 1 18.8696 6.28936 -0.00032794 -8.94952
7 1 9.43451 1.72755e-15 -0.000185534 -8.94958
9 1 12.5794 1.33705e-15 -0.000169871 -8.94956
29 1 2.64699e-05 6.28958 -0.000176969 -8.94954
25 1 15.7245 3.14436 -0.000312255 -8.94967
176 1 1.57184 1.57203 11.0071 -8.94953
47 1 12.5795 9.43442 22.0123 -8.9515
178 1 7.86196 1.57077 11.007 -8.95138
179 1 11.0071 1.57177 11.0068 -8.94948
180 1 14.1522 1.57198 11.0068 -8.94941
343 1 18.8696 9.43441 18.8694 -8.94952
182 1 20.4414 1.57221 11.007 -8.94958
45 1 6.28935 9.43465 22.0135 -8.9495
43 1 22.0139 9.43448 22.0137 -8.94958
185 1 7.85902 4.70901 11.0084 -8.9589
186 1 11.0066 4.71524 11.007 -8.95143
187 1 14.1525 4.71613 11.0061 -8.94879
342 1 15.7253 9.43418 18.8702 -8.94937
341 1 12.5795 9.43445 18.8707 -8.9514
190 1 1.56938 7.86151 11.0073 -8.95149
191 1 4.70586 7.85823 11.0095 -8.95826
192 1 7.81934 7.82477 11.0429 -8.90528
193 1 11.0231 7.85364 11.0325 -8.95823
194 1 14.1558 7.86087 11.004 -8.95272
195 1 17.2983 7.8614 11.0062 -8.94982
196 1 20.4414 7.86169 11.0069 -8.94988
197 1 22.0137 -6.14133e-16 12.5795 -8.94958
198 1 1.57189 1.57206 14.1521 -8.94954
199 1 3.14418 -1.28926e-15 12.5797 -8.94944
200 1 4.71636 1.57129 14.1527 -8.95006
201 1 6.28927 -1.07219e-16 12.5798 -8.9507
202 1 7.86201 1.57136 14.1525 -8.94974
203 1 9.43478 1.43198e-15 12.5797 -8.95025
204 1 11.0073 1.57139 14.1525 -8.94971
205 1 12.5796 1.40728e-15 12.5794 -8.9505
206 1 14.1523 1.5714 14.1522 -8.95068
207 1 15.7245 5.80371e-16 12.5793 -8.94954
208 1 17.2969 1.57213 14.1518 -8.94971
209 1 18.8692 -1.1501e-15 12.5794 -8.94956
210 1 20.4414 1.57224 14.1519 -8.94954
211 1 -0.00046283 3.14437 12.5796 -8.94947
212 1 1.57088 4.71624 14.1528 -8.94976
213 1 3.14345 3.1435 12.5801 -8.94925
214 1 4.71292 4.71291 14.1561 -8.94448
215 1 6.28796 3.14103 12.581 -8.95174
216 1 7.86086 4.71333 14.1547 -8.94933
217 1 9.43477 3.14191 12.5804 -8.95069
218 1 11.0076 4.71346 14.1545 -8.94796
219 1 12.5799 3.14227 12.5797 -8.95277
220 1 14.1549 4.71227 14.1547 -8.94982
221 1 15.7247 3.14403 12.5792 -8.94959
222 1 17.2977 4.71618 14.1521 -8.95038
223 1 18.8693 3.14441 12.5794 -8.94942
224 1 20.4414 4.71681 14.152 -8.94983
225 1 22.0129 6.28911 12.5798 -8.95016
226 1 1.57106 7.86168 14.1528 -8.94954
227 1 3.14036 6.28737 12.5815 -8.95115
228 1 4.71382 7.86093 14.1546 -8.95041
229 1 6.27615 6.27612 12.5919 -8.93017
230 1 7.85498 7.85397 14.1642 -8.95137
231 1 9.43376 6.27992 12.585 -8.95191
232 1 11.0082 7.85498 14.1626 -8.94863
233 1 12.5862 6.27767 12.5864 -8.95411
234 1 14.1657 7.84894 14.1653 -8.92782
235 1 15.7267 6.28783 12.5794 -8.95164
236 1 17.301 7.85999 14.1539 -8.95113
237 1 18.8698 6.28909 12.5793 -8.94978
238 1 20.4421 7.86164 14.1524 -8.95026
239 1 -0.000789669 9.43434 12.5799 -8.95008
240 1 3.14102 9.43408 12.5812 -8.94839
241 1 6.28301 9.433 12.5828 -8.9797
242 1 9.41901 9.40638 12.5952 -8.94893
243 1 12.622 9.39532 12.6188 -8.87753
244 1 15.7347 9.43183 12.5832 -8.95866
245 1 18.8714 9.4342 12.5798 -8.95189
246 1 22.0137 -1.23489e-15 15.7244 -8.94959
247 1 1.57199 1.57214 17.2971 -8.94921
248 1 3.14427 -7.59169e-16 15.7248 -8.94958
249 1 4.71695 1.57205 17.2972 -8.94964
250 1 6.28948 -7.5807e-16 15.7248 -8.94962
251 1 7.862 1.57202 17.2972 -8.94947
252 1 9.43457 2.04425e-16 15.7248 -8.94958
253 1 11.007 1.572 17.2972 -8.94952
254 1 12.5796 1.10468e-15 15.7247 -8.94955
255 1 14.152 1.572 17.2971 -8.94949
256 1 15.7246 7.94498e-16 15.7246 -8.95002
257 1 17.2971 1.57197 17.2971 -8.94948
258 1 18.8692 -1.205e-15 15.7243 -8.9497
259 1 20.4415 1.57224 17.2968 -8.94962
260 1 22.0135 3.14444 15.7246 -8.94959
261 1 1.572 4.71694 17.2972 -8.94972
262 1 3.14349 3.14358 15.7256 -8.94821
263 1 4.71606 4.71612 17.2984 -8.94929
264 1 6.28904 3.14345 15.7255 -8.94964
265 1 7.86168 4.71616 17.2981 -8.94903
266 1 9.43447 3.14341 15.7254 -8.94931
267 1 11.007 4.71602 17.2981 -8.94931
268 1 12.5798 3.14336 15.7253 -8.94914
269 1 14.1525 4.71592 17.2981 -8.94949
270 1 15.7254 3.14311 15.7253 -8.9494
271 1 17.298 4.71589 17.2979 -8.94811
272 1 18.8694 3.14437 15.7244 -8.94985
273 1 20.4418 4.71685 17.2971 -8.94953
274 1 -0.000164125 6.28931 15.7248 -8.94974
275 1 1.57217 7.86205 17.2971 -8.94953
276 1 3.14345 6.28904 15.7256 -8.94995
277 1 4.71681 7.86229 17.2976 -8.94999
278 1 6.28651 6.2866 15.7293 -8.94923
279 1 7.86165 7.86167 17.2994 -8.95287
280 1 9.43391 6.28678 15.728 -8.94707
281 1 11.0068 7.86084 17.2999 -8.95092
282 1 12.5809 6.28652 15.7282 -8.94853
283 1 14.1535 7.86052 17.3004 -8.95188
284 1 15.7287 6.28532 15.7285 -8.94408
285 1 17.298 7.86141 17.2979 -8.94922
286 1 18.8705 6.28868 15.7252 -8.94973
287 1 20.4419 7.8619 17.2971 -8.94946
288 1 22.0139 9.43441 15.7249 -8.94949
289 1 3.14404 9.43458 15.7253 -8.94927
290 1 6.28939 9.43547 15.7253 -8.95027
291 1 9.43525 9.43457 15.727 -8.95461
292 1 12.5821 9.43325 15.7324 -8.9603
293 1 15.7279 9.43322 15.7278 -8.94751
294 1 18.8706 9.43418 15.7252 -8.94924
295 1 -0.000125901 -1.28548e-15 18.8692 -8.94936
296 1 1.57224 1.57225 20.4415 -8.94946
297 1 3.14467 -2.32656e-18 18.8693 -8.94963
298 1 4.71714 1.57226 20.4415 -8.94958
299 1 6.28958 6.98667e-16 18.8693 -8.94954
300 1 7.86204 1.57222 20.4415 -8.94957
301 1 9.43451 9.90501e-16 18.8693 -8.94957
302 1 11.007 1.5722 20.4415 -8.94957
303 1 12.5795 1.45508e-15 18.8693 -8.94956
304 1 14.1519 1.57222 20.4415 -8.94955
305 1 15.7244 1.02121e-15 18.8692 -8.94957
306 1 17.2968 1.57223 20.4415 -8.94963
307 1 18.8692 3.93915e-16 18.8692 -8.94945
308 1 20.4416 1.5723 20.4415 -8.94934
309 1 -3.04467e-05 3.14466 18.8693 -8.94957
310 1 1.5723 4.71718 20.4415 -8.94971
311 1 3.14441 3.14442 18.8695 -8.94947
312 1 4.71687 4.71691 20.4415 -8.95
313 1 6.28946 3.1444 18.8695 -8.94948
314 1 7.86186 4.71675 20.4416 -8.9495
315 1 9.43446 3.14432 18.8695 -8.94953
316 1 11.0069 4.71667 20.4416 -8.94954
317 1 12.5795 3.14431 18.8695 -8.94948
318 1 14.152 4.7167 20.4416 -8.9496
319 1 15.7245 3.14432 18.8695 -8.94961
320 1 17.2972 4.71669 20.4415 -8.94957
321 1 18.8695 3.14441 18.8693 -8.94917
322 1 20.4417 4.7171 20.4415 -8.9496
323 1 22.0139 6.28958 18.8693 -8.94957
324 1 1.57227 7.86205 20.4415 -8.94956
325 1 3.14456 6.28964 18.8694 -8.94979
326 1 4.71698 7.86214 20.4415 -8.9496
327 1 6.28917 6.28926 18.8702 -8.95064
328 1 7.8619 7.86205 20.4416 -8.95045
329 1 9.43422 6.2889 18.8702 -8.9496
330 1 11.0067 7.86171 20.4416 -8.95031
331 1 12.5795 6.28887 18.8702 -8.94968
332 1 14.1522 7.86165 20.4415 -8.95068
333 1 15.7251 6.28877 18.8702 -8.95009
334 1 17.2973 7.86178 20.4415 -8.94941
335 1 18.8696 6.28936 18.8694 -8.94954
336 1 20.4417 7.86201 20.4415 -8.94957
337 1 1.68788e-05 9.43449 18.8693 -8.94958
338 1 3.1445 9.43452 18.8694 -8.94957
339 1 6.28936 9.43469 18.8695 -8.9494
340 1 9.43441 9.43471 18.8698 -8.94976
39 1 15.7251 6.28877 22.0129 -8.95001
31 1 3.14458 6.28964 22.0136 -8.94973
27 1 18.8695 3.14444 22.0137 -8.94921
11 1 15.7243 1.44391e-15 22.0138 -8.94959
15 1 22.0139 3.14468 22.0137 -8.9496
19 1 6.28949 3.14445 22.0136 -8.94949
23 1 12.5795 3.14436 22.0136 -8.94949
3 1 3.14468 -4.12061e-17 22.0137 -8.94965
13 1 18.8692 7.2458e-16 22.0137 -8.94944
46 1 9.43438 9.43465 22.0134 -8.94932
49 1 18.8696 9.43441 22.0135 -8.94953
344 1 1.5721 11.007 1.57187 -8.94959
345 1 4.71659 11.007 1.57138 -8.94967
346 1 7.86196 11.007 1.57206 -8.9485
347 1 11.007 11.007 1.57148 -8.94645
348 1 14.1541 11.007 1.56853 -8.94954
349 1 17.2981 11.007 1.57112 -8.94946
350 1 20.4419 11.007 1.57194 -8.94953
688 3 10.2296 11.007 9.43569 2.2035
352 1 1.57214 14.1519 1.57194 -8.94943
353 1 3.14448 12.5794 -0.000364557 -8.94957
354 1 4.71678 14.1517 1.57153 -8.9497
687 2 9.50708 11.007 10.1872 -0.0087102
356 1 7.86177 14.152 1.57029 -8.95242
538 1 17.297 20.4418 11.007 -8.94956
358 1 11.0066 14.1528 1.5698 -8.95053
511 1 18.8693 18.8695 9.43452 -8.94957
360 1 14.1535 14.1534 1.56877 -8.95159
361 1 15.7253 12.5797 -0.00114284 -8.94938
362 1 17.298 14.1525 1.57116 -8.94921
532 1 20.4414 17.2972 11.007 -8.94955
364 1 20.4419 14.152 1.57197 -8.94947
510 1 15.7249 18.8699 9.43448 -8.94961
366 1 1.57207 17.2969 1.57193 -8.94979
509 1 12.5796 18.8694 9.43445 -8.94829
368 1 4.71622 17.2976 1.57085 -8.94952
369 1 6.28925 15.7246 -0.00085403 -8.95064
370 1 7.86177 17.2975 1.5712 -8.94914
371 1 9.43423 15.7249 -0.000817059 -8.94962
372 1 11.007 17.2977 1.57126 -8.94936
373 1 12.5795 15.7249 -0.000891814 -8.94971
374 1 14.1524 17.2978 1.57122 -8.94974
508 1 9.43443 18.8701 9.43439 -8.94698
376 1 17.2979 17.2979 1.57129 -8.94821
507 1 6.28751 18.8728 9.43445 -8.94967
378 1 20.4418 17.297 1.57205 -8.94955
506 1 3.1434 18.8704 9.4345 -8.94946
380 1 1.57201 20.4417 1.57202 -8.94921
381 1 3.14444 18.8695 -0.000400683 -8.94951
382 1 4.717 20.4418 1.57196 -8.94966
505 1 -0.000473974 18.8696 9.43452 -8.94953
384 1 7.86203 20.4418 1.57197 -8.9495
385 1 9.43447 18.8695 -0.000331878 -8.94953
386 1 11.007 20.4418 1.57197 -8.94953
504 1 18.8697 15.7251 9.43451 -8.94953
388 1 14.152 20.4418 1.57205 -8.94952
503 1 15.7261 15.7262 9.43442 -8.94617
390 1 17.297 20.4419 1.57203 -8.94947
502 1 12.5778 15.7224 9.43451 -8.94553
392 1 20.4415 20.4417 1.57227 -8.9496
393 1 1.57142 11.007 4.71619 -8.94948
394 1 4.71495 11.007 4.7147 -8.94562
395 1 7.86386 11.007 4.71873 -8.94715
396 1 11.0123 11.007 4.72052 -9.00563
397 1 14.1628 11.007 4.70669 -8.94148
398 1 17.3011 11.007 4.71487 -8.94901
399 1 20.4424 11.007 4.71658 -8.94997
400 1 -1.7647e-05 12.5795 3.14423 -8.94954
401 1 1.57146 14.1519 4.71649 -8.94982
402 1 3.1439 12.5794 3.14369 -8.94893
403 1 4.71453 14.1522 4.71493 -8.95109
404 1 6.28908 12.5787 3.14349 -8.94944
405 1 7.8562 14.1576 4.70712 -8.9541
406 1 9.43509 12.5793 3.14354 -8.95085
407 1 11.0074 14.1563 4.70873 -8.9521
408 1 12.5824 12.5807 3.13639 -8.95965
409 1 14.1651 14.1641 4.70429 -8.92873
410 1 15.728 12.5808 3.14111 -8.94753
411 1 17.3009 14.1538 4.7152 -8.95087
412 1 18.8706 12.5797 3.14382 -8.94928
413 1 20.4422 14.1522 4.71675 -8.9502
414 1 22.0138 15.7245 3.14437 -8.94982
415 1 1.57089 17.2976 4.71623 -8.94957
416 1 3.1437 15.7247 3.14363 -8.9502
417 1 4.71315 17.3007 4.71312 -8.9446
418 1 6.28704 15.7267 3.14038 -8.95011
419 1 7.86105 17.2998 4.71475 -8.94915
420 1 9.43397 15.7264 3.14181 -8.94767
421 1 11.0074 17.2996 4.71498 -8.94784
422 1 12.5804 15.7267 3.14142 -8.94946
423 1 14.1547 17.3013 4.71449 -8.94975
424 1 15.7284 15.7283 3.14082 -8.94432
425 1 17.2977 17.2977 4.7169 -8.95032
426 1 18.8705 15.7252 3.14394 -8.94966
427 1 20.4414 17.2971 4.717 -8.9498
428 1 -0.000404828 18.8694 3.14445 -8.94954
429 1 1.5719 20.4418 4.71692 -8.94953
430 1 3.14357 18.8702 3.14353 -8.94824
431 1 4.71641 20.4425 4.71634 -8.95003
432 1 6.28915 18.8702 3.14369 -8.94966
433 1 7.86205 20.4424 4.71655 -8.94964
434 1 9.43449 18.8702 3.14382 -8.94937
435 1 11.0072 20.4423 4.71659 -8.94958
436 1 12.5797 18.8703 3.14393 -8.94918
437 1 14.1523 20.4424 4.71688 -8.95064
438 1 15.7253 18.8707 3.1438 -8.94938
439 1 17.2969 20.4418 4.71724 -8.94972
440 1 18.8694 18.8695 3.1446 -8.94981
441 1 20.4414 20.4417 4.71716 -8.94954
442 1 1.57094 11.007 7.86149 -8.94782
443 1 4.71657 11.007 7.86186 -8.94153
444 1 7.87511 11.007 7.86625 -8.93389
445 1 11.0907 11.007 7.61979 -8.16348
446 1 14.1609 11.007 7.8538 -8.97287
447 1 17.2994 11.007 7.86243 -8.9512
448 1 20.4418 11.007 7.86208 -8.94955
449 1 22.0135 12.5794 6.2892 -8.94996
450 1 1.56927 14.1526 7.86139 -8.95153
451 1 3.14243 12.5789 6.28844 -8.95011
452 1 4.70548 14.1563 7.85859 -8.95734
453 1 6.28399 12.5773 6.28675 -8.9512
454 1 7.81884 14.1861 7.82818 -8.88355
455 1 9.41942 12.6008 6.28436 -8.95213
456 1 11.0249 14.1591 7.83675 -8.94341
457 1 12.6224 12.614 6.25067 -8.84784
458 1 14.1563 14.153 7.86404 -8.95298
459 1 15.735 12.5819 6.2857 -8.95843
460 1 17.2984 14.1525 7.86273 -8.94998
461 1 18.8715 12.5797 6.28928 -8.95184
462 1 20.4414 14.1522 7.86203 -8.94996
463 1 -0.00104389 15.7248 6.28918 -8.95009
464 1 1.5708 17.2978 7.8617 -8.94934
465 1 3.14031 15.7265 6.28731 -8.95045
466 1 4.71348 17.3004 7.86063 -8.94783
467 1 6.27667 15.7366 6.2775 -8.92999
468 1 7.859 17.3042 7.86056 -8.95838
469 1 9.43361 15.732 6.28504 -8.9516
470 1 11.0067 17.2982 7.86179 -8.95149
471 1 12.5861 15.7351 6.28262 -8.95283
472 1 14.1524 17.2976 7.86277 -8.94905
473 1 15.7268 15.726 6.28946 -8.95149
474 1 17.2975 17.2976 7.86209 -8.94894
475 1 18.8698 15.7248 6.28966 -8.94983
476 1 20.4414 17.2972 7.86199 -8.94955
477 1 22.0134 18.8695 6.28946 -8.94948
478 1 1.57184 20.4419 7.86198 -8.94953
479 1 3.14347 18.8704 6.28892 -8.94927
480 1 4.71624 20.4426 7.86172 -8.94944
481 1 6.28804 18.8726 6.28806 -8.95158
482 1 7.86197 20.443 7.86193 -8.95123
483 1 9.43475 18.8715 6.28868 -8.9504
484 1 11.0071 20.442 7.86216 -8.94943
485 1 12.5799 18.8714 6.28931 -8.95257
486 1 14.1522 20.4419 7.86221 -8.94939
487 1 15.7247 18.8698 6.28985 -8.94965
488 1 17.297 20.4418 7.86208 -8.94955
489 1 18.8693 18.8695 6.28962 -8.94942
490 1 20.4414 20.4417 7.86206 -8.94958
491 1 22.0125 12.5795 9.43435 -8.94968
492 1 3.13962 12.58 9.43362 -8.95016
493 1 6.27622 12.5887 9.4321 -9.02124
494 1 9.35767 12.8293 9.42741 -8.34198
495 1 12.5587 12.5704 9.43153 -8.95899
496 1 15.7225 12.5789 9.4344 -8.94012
497 1 18.8695 12.5797 9.4345 -8.94785
498 1 22.0127 15.725 9.4345 -8.94992
499 1 3.1402 15.7268 9.43446 -8.94916
500 1 6.27881 15.7344 9.43449 -8.9431
501 1 9.42952 15.7221 9.43449 -9.00857
513 1 4.7068 11.007 11.0073 -8.957
531 1 17.2975 17.2976 11.0069 -8.94896
526 1 1.57079 17.2977 11.0073 -8.94926
527 1 4.71343 17.3004 11.0082 -8.94742
389 1 15.7245 18.8695 -0.000312255 -8.94967
534 1 4.71622 20.4426 11.0073 -8.94941
365 1 2.64699e-05 15.7243 -0.000176969 -8.94954
377 1 18.8696 15.7245 -0.00032794 -8.94952
512 1 1.56932 11.007 11.0074 -8.95107
686 1 20.4416 20.4416 20.4415 -8.94934
514 1 7.82815 11.007 11.0179 -9.14391
515 1 11.114 11.007 11.2517 -8.34428
685 1 18.8695 18.8695 18.8693 -8.94917
517 1 17.2992 11.007 11.0066 -8.95115
518 1 20.4415 11.007 11.0069 -8.94997
519 1 1.56938 14.1524 11.0073 -8.95149
520 1 4.70586 14.1557 11.0095 -8.95826
521 1 7.81934 14.1891 11.0429 -8.90528
522 1 11.0231 14.1603 11.0325 -8.95823
523 1 14.1558 14.153 11.004 -8.95272
524 1 17.2983 14.1525 11.0062 -8.94982
525 1 20.4414 14.1522 11.0069 -8.94988
391 1 18.8695 18.8695 22.0137 -8.94921
387 1 12.5795 18.8695 22.0136 -8.94949
528 1 7.85902 17.3049 11.0084 -8.9589
529 1 11.0066 17.2987 11.007 -8.95143
530 1 14.1525 17.2978 11.0061 -8.94879
684 1 17.2968 20.4417 20.4415 -8.94963
683 1 15.7245 18.8696 18.8695 -8.94961
533 1 1.57184 20.4419 11.0071 -8.94953
383 1 6.28949 18.8695 22.0136 -8.94949
535 1 7.86196 20.4431 11.007 -8.95138
536 1 11.0071 20.4421 11.0068 -8.94948
537 1 14.1522 20.4419 11.0068 -8.94941
682 1 14.1519 20.4417 20.4415 -8.94955
539 1 20.4414 20.4417 11.007 -8.94958
540 1 1.57133 11.007 14.1529 -8.94901
541 1 4.71558 11.007 14.1532 -8.94679
542 1 7.86533 11.007 14.1475 -8.99137
543 1 11.0118 11.007 14.1455 -9.05054
544 1 14.1623 11.007 14.1616 -8.94266
545 1 17.3009 11.007 14.1541 -8.94897
546 1 20.4423 11.007 14.1525 -8.94986
547 1 -0.000789669 12.5796 12.5799 -8.95008
548 1 1.57106 14.1522 14.1528 -8.94954
549 1 3.14102 12.5798 12.5812 -8.94839
550 1 4.71382 14.153 14.1546 -8.95041
551 1 6.28301 12.5809 12.5828 -8.9797
552 1 7.85498 14.1599 14.1642 -8.95137
553 1 9.41901 12.6075 12.5952 -8.94893
554 1 11.0082 14.1589 14.1626 -8.94863
555 1 12.622 12.6186 12.6188 -8.87753
556 1 14.1657 14.165 14.1653 -8.92782
557 1 15.7347 12.5821 12.5832 -8.95866
558 1 17.301 14.1539 14.1539 -8.95113
559 1 18.8714 12.5797 12.5798 -8.95189
560 1 20.4421 14.1523 14.1524 -8.95026
561 1 22.0129 15.7248 12.5798 -8.95016
562 1 1.57088 17.2977 14.1528 -8.94976
563 1 3.14036 15.7265 12.5815 -8.95115
564 1 4.71292 17.301 14.1561 -8.94448
565 1 6.27615 15.7378 12.5919 -8.93017
566 1 7.86086 17.3006 14.1547 -8.94933
567 1 9.43376 15.734 12.585 -8.95191
568 1 11.0076 17.3004 14.1545 -8.94796
569 1 12.5862 15.7362 12.5864 -8.95411
570 1 14.1549 17.3016 14.1547 -8.94982
571 1 15.7267 15.7261 12.5794 -8.95164
572 1 17.2977 17.2977 14.1521 -8.95038
573 1 18.8698 15.7248 12.5793 -8.94978
574 1 20.4414 17.2971 14.152 -8.94983
575 1 -0.00046283 18.8695 12.5796 -8.94947
576 1 1.57189 20.4418 14.1521 -8.94954
577 1 3.14345 18.8704 12.5801 -8.94925
578 1 4.71636 20.4426 14.1527 -8.95006
579 1 6.28796 18.8729 12.581 -8.95174
580 1 7.86201 20.4425 14.1525 -8.94974
581 1 9.43477 18.872 12.5804 -8.95069
582 1 11.0073 20.4425 14.1525 -8.94971
583 1 12.5799 18.8716 12.5797 -8.95277
584 1 14.1523 20.4425 14.1522 -8.95068
585 1 15.7247 18.8699 12.5792 -8.94959
586 1 17.2969 20.4418 14.1518 -8.94971
587 1 18.8693 18.8695 12.5794 -8.94942
588 1 20.4414 20.4417 14.1519 -8.94954
589 1 1.57212 11.007 17.2972 -8.94958
590 1 4.71664 11.007 17.2975 -8.94939
591 1 7.86185 11.007 17.2969 -8.94708
592 1 11.0072 11.007 17.2974 -8.94492
593 1 14.1541 11.007 17.3004 -8.9495
594 1 17.2981 11.007 17.2979 -8.94946
595 1 20.4419 11.007 17.2971 -8.94952
596 1 22.0139 12.5795 15.7249 -8.94949
597 1 1.57217 14.1519 17.2971 -8.94953
598 1 3.14404 12.5793 15.7253 -8.94927
599 1 4.71681 14.1516 17.2976 -8.94999
600 1 6.28939 12.5784 15.7253 -8.95027
601 1 7.86165 14.1522 17.2994 -8.95287
602 1 9.43525 12.5793 15.727 -8.95461
603 1 11.0068 14.1531 17.2999 -8.95092
604 1 12.5821 12.5807 15.7324 -8.9603
605 1 14.1535 14.1534 17.3004 -8.95188
606 1 15.7279 12.5807 15.7278 -8.94751
607 1 17.298 14.1525 17.2979 -8.94922
608 1 18.8706 12.5797 15.7252 -8.94924
609 1 20.4419 14.152 17.2971 -8.94946
610 1 -0.000164125 15.7246 15.7248 -8.94974
611 1 1.572 17.297 17.2972 -8.94972
612 1 3.14345 15.7249 15.7256 -8.94995
613 1 4.71606 17.2978 17.2984 -8.94929
614 1 6.28651 15.7273 15.7293 -8.94923
615 1 7.86168 17.2977 17.2981 -8.94903
616 1 9.43391 15.7271 15.728 -8.94707
617 1 11.007 17.2979 17.2981 -8.94931
618 1 12.5809 15.7274 15.7282 -8.94853
619 1 14.1525 17.298 17.2981 -8.94949
620 1 15.7287 15.7286 15.7285 -8.94408
621 1 17.298 17.298 17.2979 -8.94811
622 1 18.8705 15.7252 15.7252 -8.94973
623 1 20.4418 17.2971 17.2971 -8.94953
624 1 22.0135 18.8695 15.7246 -8.94959
625 1 1.57199 20.4418 17.2971 -8.94921
626 1 3.14349 18.8703 15.7256 -8.94821
627 1 4.71695 20.4419 17.2972 -8.94964
628 1 6.28904 18.8705 15.7255 -8.94964
629 1 7.862 20.4419 17.2972 -8.94947
630 1 9.43447 18.8705 15.7254 -8.94931
631 1 11.007 20.4419 17.2972 -8.94952
632 1 12.5798 18.8705 15.7253 -8.94914
633 1 14.152 20.4419 17.2971 -8.94949
634 1 15.7254 18.8708 15.7253 -8.9494
635 1 17.2971 20.4419 17.2971 -8.94948
636 1 18.8694 18.8695 15.7244 -8.94985
637 1 20.4415 20.4417 17.2968 -8.94962
638 1 1.57225 11.007 20.4415 -8.9496
639 1 4.71688 11.007 20.4415 -8.94969
640 1 7.86178 11.007 20.4415 -8.94912
641 1 11.0067 11.007 20.4415 -8.94841
642 1 14.1525 11.007 20.4415 -8.95031
643 1 17.2973 11.007 20.4415 -8.94949
644 1 20.4417 11.007 20.4415 -8.94958
645 1 1.68788e-05 12.5794 18.8693 -8.94958
646 1 1.57227 14.1518 20.4415 -8.94956
647 1 3.1445 12.5794 18.8694 -8.94957
648 1 4.71698 14.1518 20.4415 -8.9496
649 1 6.28936 12.5792 18.8695 -8.9494
650 1 7.8619 14.1518 20.4416 -8.95045
651 1 9.43441 12.5792 18.8698 -8.94976
652 1 11.0067 14.1522 20.4416 -8.95031
653 1 12.5795 12.5794 18.8707 -8.9514
654 1 14.1522 14.1523 20.4415 -8.95068
655 1 15.7253 12.5797 18.8702 -8.94937
656 1 17.2973 14.1521 20.4415 -8.94941
657 1 18.8696 12.5795 18.8694 -8.94952
658 1 20.4417 14.1519 20.4415 -8.94957
659 1 22.0139 15.7243 18.8693 -8.94957
660 1 1.5723 17.2967 20.4415 -8.94971
661 1 3.14456 15.7243 18.8694 -8.94979
662 1 4.71687 17.297 20.4415 -8.95
663 1 6.28917 15.7246 18.8702 -8.95064
664 1 7.86186 17.2972 20.4416 -8.9495
665 1 9.43422 15.725 18.8702 -8.9496
666 1 11.0069 17.2972 20.4416 -8.94954
667 1 12.5795 15.725 18.8702 -8.94968
668 1 14.152 17.2972 20.4416 -8.9496
669 1 15.7251 15.7251 18.8702 -8.95009
670 1 17.2972 17.2972 20.4415 -8.94957
671 1 18.8696 15.7245 18.8694 -8.94954
672 1 20.4417 17.2968 20.4415 -8.9496
673 1 -3.04467e-05 18.8692 18.8693 -8.94957
674 1 1.57224 20.4416 20.4415 -8.94946
675 1 3.14441 18.8695 18.8695 -8.94947
676 1 4.71714 20.4416 20.4415 -8.94958
677 1 6.28946 18.8695 18.8695 -8.94948
678 1 7.86204 20.4417 20.4415 -8.94957
679 1 9.43446 18.8696 18.8695 -8.94953
680 1 11.007 20.4417 20.4415 -8.94957
681 1 12.5795 18.8696 18.8695 -8.94948
351 1 22.0139 12.5794 22.0137 -8.94958
355 1 6.28935 12.5793 22.0135 -8.9495
359 1 12.5795 12.5795 22.0123 -8.9515
379 1 22.0139 18.8692 22.0137 -8.9496
367 1 3.14458 15.7243 22.0136 -8.94973
375 1 15.7251 15.7251 22.0129 -8.95001
357 1 9.43438 12.5793 22.0134 -8.94932
363 1 18.8696 12.5795 22.0135 -8.94953
516 1 14.1599 11.007 11.0143 -8.97971
