ITEM: TIMESTEP
100
ITEM: NUMBER OF ATOMS
688
ITEM: BOX BOUNDS pp pp pp
0.0000000000000000e+00 2.2013900999999997e+01
0.0000000000000000e+00 2.2013900999999997e+01
0.0000000000000000e+00 2.2013900999999997e+01
ITEM: ATOMS id type x y z c_pot
1 1 -0.000156508 -5.77445e-16 -0.000150695 -8.94929
2 1 1.57191 1.5721 1.57191 -8.94918
189 1 20.4413 4.71657 11.0071 -8.94955
4 1 4.7169 1.57202 1.57183 -8.94964
175 1 18.8693 9.43417 9.4345 -8.94779
6 1 7.86199 1.57201 1.57186 -8.94948
174 1 15.7222 9.43503 9.43438 -8.94005
8 1 11.007 1.57199 1.57188 -8.94952
173 1 12.5582 9.4438 9.43141 -8.95869
10 1 14.152 1.57197 1.57197 -8.94951
172 1 9.35828 9.18572 9.42737 -8.34498
12 1 17.2971 1.5719 1.57195 -8.94946
188 1 17.2975 4.71623 11.0069 -8.94894
14 1 20.4415 1.57219 1.57221 -8.94958
171 1 6.27628 9.4251 9.43216 -9.02128
16 1 1.57199 4.71691 1.5718 -8.9498
17 1 3.14434 3.14436 -0.00047795 -8.9495
18 1 4.71607 4.71613 1.57066 -8.94951
170 1 3.1395 9.43385 9.43363 -8.95015
20 1 7.86168 4.71621 1.57105 -8.94913
21 1 9.43444 3.14426 -0.000387019 -8.94951
22 1 11.007 4.71608 1.57112 -8.94935
169 1 22.0124 9.43434 9.43434 -8.94963
24 1 14.1525 4.71588 1.57103 -8.94973
168 1 18.8697 6.28873 9.43451 -8.94953
26 1 17.2981 4.71577 1.57113 -8.94817
167 1 15.7261 6.2877 9.43442 -8.94611
28 1 20.4419 4.71678 1.57195 -8.94955
166 1 12.5777 6.29165 9.43451 -8.9454
30 1 1.57211 7.86199 1.57183 -8.94941
165 1 9.42939 6.29193 9.43454 -9.0083
32 1 4.7167 7.86221 1.57143 -8.9497
33 1 6.28918 6.28929 -0.000929205 -8.95069
34 1 7.86172 7.86181 1.57022 -8.95247
35 1 9.43419 6.2889 -0.000880427 -8.94963
36 1 11.0067 7.86101 1.56965 -8.95058
37 1 12.5795 6.28884 -0.000996935 -8.94974
38 1 14.1537 7.86034 1.5685 -8.95162
164 1 6.27833 6.27916 9.43452 -8.94302
40 1 17.2983 7.86122 1.57096 -8.94918
163 1 3.1398 6.28686 9.43445 -8.94916
42 1 20.442 7.86181 1.57186 -8.94945
162 1 22.0126 6.28882 9.43449 -8.94994
44 1 3.14444 9.4345 -0.00041381 -8.94956
161 1 18.8693 3.14426 9.43451 -8.94956
181 1 17.297 1.57206 11.0069 -8.94955
160 1 15.7249 3.14393 9.43447 -8.9496
48 1 15.7255 9.43409 -0.00129012 -8.94938
159 1 12.5796 3.14457 9.43444 -8.94826
50 1 22.0136 2.23885e-16 3.1446 -8.94955
51 1 1.57175 1.57199 4.7168 -8.9495
52 1 3.14416 -1.55626e-15 3.14413 -8.94955
53 1 4.71626 1.57125 4.71619 -8.95004
54 1 6.28946 -1.51829e-15 3.14418 -8.94959
55 1 7.86199 1.57142 4.71643 -8.94967
56 1 9.43459 9.9779e-16 3.1442 -8.94954
57 1 11.0073 1.57149 4.71651 -8.9496
58 1 12.5796 1.78528e-15 3.1443 -8.94952
59 1 14.1524 1.57138 4.71683 -8.9507
60 1 15.7247 1.64389e-15 3.14443 -8.95004
61 1 17.2969 1.57207 4.71722 -8.94973
62 1 18.8692 1.15193e-15 3.14474 -8.94971
63 1 20.4414 1.57219 4.71711 -8.94952
64 1 -0.00048098 3.14436 3.14435 -8.94953
65 1 1.5707 4.71612 4.71607 -8.94957
66 1 3.14338 3.14353 3.14334 -8.94823
67 1 4.71286 4.71301 4.71288 -8.94461
68 1 6.28901 3.14349 3.14349 -8.94965
69 1 7.86083 4.71383 4.71453 -8.94916
70 1 9.43446 3.14354 3.14367 -8.94935
71 1 11.0074 4.71412 4.71476 -8.94783
72 1 12.5798 3.14345 3.14379 -8.94918
73 1 14.155 4.71231 4.71425 -8.94975
74 1 15.7255 3.143 3.14366 -8.94939
75 1 17.2979 4.71601 4.7168 -8.95035
76 1 18.8694 3.14425 3.14452 -8.94982
77 1 20.4414 4.7167 4.71692 -8.94981
78 1 22.0138 6.28934 3.14425 -8.94984
79 1 1.57135 7.86195 4.71637 -8.94985
80 1 3.14353 6.28912 3.14344 -8.95023
81 1 4.7143 7.86153 4.7148 -8.95115
82 1 6.2868 6.28698 3.14014 -8.95005
83 1 7.8559 7.85589 4.70692 -8.95384
84 1 9.43391 6.28725 3.14161 -8.94763
85 1 11.0076 7.85726 4.70835 -8.95202
86 1 12.5806 6.28695 3.1411 -8.94943
87 1 14.1656 7.84942 4.70381 -8.92852
88 1 15.7287 6.28526 3.14051 -8.94424
89 1 17.3012 7.85988 4.71499 -8.95089
90 1 18.8707 6.28858 3.14379 -8.94966
91 1 20.4423 7.86165 4.71665 -8.95024
92 1 1.68297e-05 9.43438 3.14411 -8.94954
93 1 3.14383 9.43445 3.14358 -8.94892
94 1 6.28903 9.43519 3.14347 -8.94938
95 1 9.43515 9.43451 3.14354 -8.95097
96 1 12.5827 9.43307 3.1361 -8.95973
97 1 15.7284 9.43302 3.14075 -8.94747
98 1 18.8708 9.43409 3.14364 -8.94926
99 1 -0.000332519 -1.01703e-16 6.28952 -8.94955
100 1 1.57168 1.57194 7.86192 -8.94951
101 1 3.14402 -1.30889e-15 6.28923 -8.94944
102 1 4.71604 1.57115 7.86164 -8.94944
103 1 6.28922 -9.0142e-17 6.28911 -8.95065
104 1 7.86188 1.57084 7.86189 -8.95125
105 1 9.43478 1.43436e-15 6.28925 -8.95014
106 1 11.0071 1.57187 7.86216 -8.94941
107 1 12.5796 1.8433e-15 6.28961 -8.95046
108 1 14.1522 1.57201 7.86221 -8.94938
109 1 15.7245 1.8114e-15 6.28972 -8.94955
110 1 17.297 1.57206 7.86207 -8.94954
111 1 18.8692 1.65654e-15 6.28962 -8.94954
112 1 20.4414 1.57215 7.86204 -8.94956
113 1 22.0133 3.14425 6.28938 -8.94947
114 1 1.57054 4.71596 7.86162 -8.94933
115 1 3.14322 3.14332 6.28876 -8.94924
116 1 4.71309 4.71322 7.8605 -8.94779
117 1 6.28784 3.14112 6.28793 -8.95158
118 1 7.85874 4.70957 7.86052 -8.95839
119 1 9.43468 3.14228 6.28859 -8.95047
120 1 11.0066 4.71568 7.86172 -8.95151
121 1 12.5799 3.14245 6.28924 -8.95264
122 1 14.1524 4.71627 7.86273 -8.94902
123 1 15.7248 3.14398 6.28983 -8.94966
124 1 17.2975 4.71624 7.86207 -8.94892
125 1 18.8693 3.14432 6.28959 -8.9494
126 1 20.4413 4.71657 7.86196 -8.94955
127 1 -0.00117151 6.28897 6.2891 -8.95011
128 1 1.56905 7.86123 7.86134 -8.95155
129 1 3.13999 6.28716 6.28714 -8.95045
130 1 4.70517 7.85734 7.85856 -8.95733
131 1 6.27633 6.27704 6.27737 -8.93012
132 1 7.81876 7.82766 7.82843 -8.88428
133 1 9.43341 6.28162 6.28483 -8.95165
134 1 11.0249 7.85467 7.83633 -8.94356
135 1 12.5864 6.27853 6.28228 -8.95284
136 1 14.1564 7.86087 7.86391 -8.95301
137 1 15.727 6.28771 6.28932 -8.95153
138 1 17.2984 7.86138 7.86272 -8.95001
139 1 18.8698 6.28899 6.28962 -8.94986
140 1 20.4413 7.86162 7.86201 -8.94996
141 1 22.0135 9.43447 6.28914 -8.94997
142 1 3.1423 9.43499 6.28839 -8.95014
143 1 6.28384 9.43645 6.2868 -8.95143
144 1 9.41912 9.41257 6.28394 -8.95152
145 1 12.623 9.39953 6.25003 -8.84718
146 1 15.7353 9.43191 6.2854 -8.95851
147 1 18.8716 9.43419 6.2892 -8.95189
148 1 -0.000351008 -9.09764e-16 9.43452 -8.94956
149 1 3.14395 -8.22835e-16 9.4345 -8.94949
150 1 6.2889 -1.61592e-16 9.43447 -8.95032
151 1 9.43475 1.03347e-15 9.43445 -8.94856
152 1 12.5797 1.82317e-15 9.43447 -8.94916
153 1 15.7246 1.62697e-15 9.43449 -8.94967
154 1 18.8692 9.79732e-16 9.43452 -8.94958
155 1 -0.000609668 3.14421 9.43452 -8.94951
156 1 3.14313 3.14328 9.43449 -8.94944
157 1 6.28722 3.14091 9.43444 -8.94969
158 1 9.43433 3.14387 9.43439 -8.94692
177 1 4.71602 1.57113 11.0073 -8.94941
183 1 1.57052 4.71597 11.0074 -8.94925
184 1 4.71302 4.71317 11.0084 -8.94738
5 1 6.28956 7.21072e-16 -0.00022393 -8.94953
41 1 18.8697 6.28924 -0.000405863 -8.94949
7 1 9.43451 1.64806e-15 -0.000231172 -8.94955
9 1 12.5795 1.56585e-15 -0.000210733 -8.94954
29 1 5.23842e-05 6.28953 -0.000233456 -8.94952
25 1 15.7246 3.14422 -0.000381048 -8.94965
176 1 1.57167 1.57194 11.0071 -8.9495
47 1 12.5796 9.4344 22.0122 -8.95154
178 1 7.86187 1.5707 11.007 -8.95142
179 1 11.0071 1.57177 11.0068 -8.94947
180 1 14.1522 1.57196 11.0068 -8.9494
343 1 18.8698 9.43436 18.8695 -8.9495
182 1 20.4414 1.57215 11.007 -8.94956
45 1 6.28933 9.43466 22.0134 -8.94948
43 1 22.0139 9.43446 22.0136 -8.94957
185 1 7.85872 4.70878 11.0085 -8.95894
186 1 11.0065 4.71521 11.0072 -8.95144
187 1 14.1525 4.7161 11.0061 -8.94876
342 1 15.7255 9.4341 18.8703 -8.94937
341 1 12.5796 9.43442 18.8708 -8.95143
190 1 1.56915 7.86142 11.0073 -8.95152
191 1 4.70554 7.85796 11.0096 -8.95827
192 1 7.81927 7.82449 11.0428 -8.90605
193 1 11.0231 7.85351 11.0329 -8.95838
194 1 14.1558 7.86086 11.0041 -8.95278
195 1 17.2983 7.86138 11.0062 -8.94985
196 1 20.4413 7.86164 11.0069 -8.94989
197 1 22.0136 -1.59185e-15 12.5795 -8.94955
198 1 1.57174 1.57198 14.1522 -8.94951
199 1 3.14401 -2.15694e-15 12.5798 -8.94943
200 1 4.71619 1.57116 14.1529 -8.95007
201 1 6.28917 -6.51482e-16 12.5799 -8.95073
202 1 7.86195 1.57123 14.1527 -8.94978
203 1 9.43478 1.80172e-15 12.5798 -8.95029
204 1 11.0073 1.57128 14.1526 -8.94974
205 1 12.5796 1.69095e-15 12.5794 -8.95054
206 1 14.1524 1.57129 14.1522 -8.95074
207 1 15.7246 1.08143e-15 12.5793 -8.94954
208 1 17.297 1.57206 14.1518 -8.94972
209 1 18.8692 -1.01647e-15 12.5794 -8.94954
210 1 20.4414 1.57219 14.1519 -8.94952
211 1 -0.000590773 3.14425 12.5796 -8.94945
212 1 1.57067 4.71608 14.1529 -8.94976
213 1 3.14319 3.14329 12.5802 -8.94922
214 1 4.71258 4.71262 14.1564 -8.94446
215 1 6.28772 3.14078 12.5811 -8.95174
216 1 7.86061 4.71297 14.155 -8.94933
217 1 9.43471 3.14173 12.5805 -8.95076
218 1 11.0076 4.71316 14.1548 -8.94792
219 1 12.5799 3.14215 12.5797 -8.95283
220 1 14.1552 4.71197 14.1549 -8.94981
221 1 15.7248 3.14393 12.5792 -8.9496
222 1 17.2979 4.71601 14.1522 -8.95042
223 1 18.8693 3.14432 12.5794 -8.9494
224 1 20.4414 4.7167 14.1521 -8.94985
225 1 22.0128 6.28901 12.5798 -8.95019
226 1 1.57093 7.86162 14.1529 -8.94957
227 1 3.14001 6.28715 12.5817 -8.95115
228 1 4.71361 7.86084 14.1547 -8.95057
229 1 6.27575 6.27577 12.5921 -8.93021
230 1 7.85463 7.8535 14.1645 -8.95112
231 1 9.43357 6.27949 12.5853 -8.95199
232 1 11.0084 7.85458 14.1631 -8.9485
233 1 12.5864 6.27738 12.5868 -8.95409
234 1 14.1661 7.84865 14.1657 -8.92772
235 1 15.7269 6.28768 12.5795 -8.95168
236 1 17.3012 7.85984 14.154 -8.95116
237 1 18.8698 6.289 12.5794 -8.94982
238 1 20.4422 7.86157 14.1524 -8.95029
239 1 -0.000851895 9.43432 12.58 -8.95007
240 1 3.14091 9.43406 12.5812 -8.94838
241 1 6.28308 9.43296 12.5826 -8.9798
242 1 9.41877 9.40569 12.5958 -8.94846
243 1 12.6222 9.39506 12.6192 -8.87736
244 1 15.7349 9.43178 12.5834 -8.95874
245 1 18.8714 9.43417 12.5798 -8.95193
246 1 22.0136 -9.97909e-16 15.7245 -8.94957
247 1 1.57187 1.57208 17.2972 -8.94917
248 1 3.14412 -1.2424e-15 15.725 -8.94956
249 1 4.71683 1.57196 17.2973 -8.94962
250 1 6.2894 -9.89177e-16 15.7249 -8.94963
251 1 7.86196 1.57194 17.2973 -8.94945
252 1 9.43458 1.8537e-16 15.7249 -8.94957
253 1 11.0071 1.57192 17.2973 -8.9495
254 1 12.5797 1.76754e-15 15.7248 -8.94955
255 1 14.1521 1.5719 17.2972 -8.94948
256 1 15.7247 1.15834e-15 15.7246 -8.95005
257 1 17.2972 1.57188 17.2971 -8.94947
258 1 18.8692 -1.80783e-16 15.7243 -8.94971
259 1 20.4415 1.57218 17.2969 -8.9496
260 1 22.0134 3.14433 15.7247 -8.94958
261 1 1.5719 4.71685 17.2973 -8.94974
262 1 3.14328 3.14342 15.7258 -8.94818
263 1 4.71588 4.71596 17.2986 -8.94927
264 1 6.28886 3.14323 15.7257 -8.94963
265 1 7.86158 4.71598 17.2983 -8.94902
266 1 9.43445 3.14322 15.7256 -8.94929
267 1 11.0071 4.71584 17.2983 -8.9493
268 1 12.5799 3.14316 15.7254 -8.94913
269 1 14.1527 4.71569 17.2983 -8.94947
270 1 15.7256 3.1429 15.7255 -8.9494
271 1 17.2982 4.71568 17.298 -8.94808
272 1 18.8695 3.14424 15.7245 -8.94986
273 1 20.4419 4.71673 17.2972 -8.94952
274 1 -0.000192093 6.28923 15.7249 -8.94976
275 1 1.57213 7.86202 17.2972 -8.94952
276 1 3.14327 6.28893 15.7258 -8.95001
277 1 4.71674 7.86227 17.2977 -8.94999
278 1 6.28622 6.28632 15.7296 -8.94916
279 1 7.86158 7.86159 17.2995 -8.95292
280 1 9.43384 6.2865 15.7283 -8.94704
281 1 11.0069 7.86072 17.3001 -8.95099
282 1 12.5812 6.28622 15.7286 -8.9485
283 1 14.1537 7.86035 17.3006 -8.9519
284 1 15.729 6.28503 15.7288 -8.94404
285 1 17.2982 7.86126 17.2981 -8.94919
286 1 18.8707 6.28853 15.7253 -8.94974
287 1 20.442 7.86182 17.2972 -8.94944
288 1 22.0139 9.43439 15.725 -8.94948
289 1 3.14397 9.43458 15.7254 -8.94927
290 1 6.28934 9.43544 15.7253 -8.95019
291 1 9.43528 9.43443 15.7271 -8.95473
292 1 12.5824 9.43312 15.7326 -8.96032
293 1 15.7283 9.43309 15.7281 -8.94748
294 1 18.8708 9.43411 15.7254 -8.94923
295 1 -0.000166595 -1.45553e-15 18.8692 -8.9493
296 1 1.57218 1.5722 20.4415 -8.94942
297 1 3.14458 -2.03582e-16 18.8693 -8.9496
298 1 4.71707 1.5722 20.4415 -8.94956
299 1 6.28953 5.08891e-16 18.8694 -8.94952
300 1 7.862 1.57216 20.4415 -8.94954
301 1 9.4345 9.10464e-16 18.8694 -8.94955
302 1 11.007 1.57214 20.4415 -8.94955
303 1 12.5795 1.83756e-15 18.8694 -8.94953
304 1 14.1519 1.57215 20.4415 -8.94953
305 1 15.7244 1.80243e-15 18.8693 -8.94956
306 1 17.2969 1.57216 20.4415 -8.9496
307 1 18.8693 8.65448e-16 18.8693 -8.94941
308 1 20.4416 1.57226 20.4415 -8.94928
309 1 -4.53274e-05 3.14459 18.8693 -8.94956
310 1 1.57227 4.71713 20.4415 -8.94972
311 1 3.1443 3.14433 18.8696 -8.94945
312 1 4.71678 4.71683 20.4416 -8.95003
313 1 6.28938 3.1443 18.8696 -8.94947
314 1 7.8618 4.71666 20.4416 -8.9495
315 1 9.43444 3.1442 18.8696 -8.9495
316 1 11.0069 4.71655 20.4416 -8.94953
317 1 12.5795 3.14418 18.8696 -8.94946
318 1 14.1521 4.71655 20.4416 -8.9496
319 1 15.7247 3.14418 18.8695 -8.94959
320 1 17.2973 4.71654 20.4415 -8.94956
321 1 18.8696 3.1443 18.8694 -8.94913
322 1 20.4417 4.71703 20.4415 -8.94957
323 1 22.014 6.28953 18.8693 -8.94955
324 1 1.57226 7.86204 20.4415 -8.94955
325 1 3.1445 6.28961 18.8695 -8.94981
326 1 4.71694 7.86215 20.4415 -8.9496
327 1 6.28909 6.2892 18.8703 -8.95069
328 1 7.86188 7.86206 20.4416 -8.95049
329 1 9.43419 6.2888 18.8703 -8.94962
330 1 11.0067 7.86166 20.4416 -8.95035
331 1 12.5796 6.28873 18.8704 -8.94972
332 1 14.1523 7.86156 20.4415 -8.95071
333 1 15.7253 6.2886 18.8703 -8.9501
334 1 17.2975 7.86167 20.4415 -8.94939
335 1 18.8697 6.28924 18.8695 -8.94951
336 1 20.4418 7.86195 20.4415 -8.94955
337 1 4.99642e-05 9.43447 18.8694 -8.94956
338 1 3.14446 9.43452 18.8695 -8.94956
339 1 6.28933 9.4347 18.8695 -8.94937
340 1 9.43443 9.43472 18.8698 -8.94977
39 1 15.7253 6.28861 22.0127 -8.95002
31 1 3.14452 6.28961 22.0135 -8.94974
27 1 18.8696 3.14433 22.0136 -8.94917
11 1 15.7244 1.80711e-15 22.0137 -8.94957
15 1 22.0139 3.14462 22.0137 -8.94958
19 1 6.28942 3.14436 22.0135 -8.94948
23 1 12.5795 3.14425 22.0135 -8.94947
3 1 3.1446 -2.59129e-16 22.0137 -8.94962
13 1 18.8693 7.07126e-16 22.0137 -8.94939
46 1 9.4344 9.43465 22.0134 -8.94931
49 1 18.8698 9.43436 22.0135 -8.9495
344 1 1.57209 11.007 1.57177 -8.94957
345 1 4.71656 11.007 1.57133 -8.94966
346 1 7.86198 11.007 1.57212 -8.94848
347 1 11.0071 11.007 1.5715 -8.94642
348 1 14.1544 11.007 1.56826 -8.94956
349 1 17.2984 11.007 1.5709 -8.94944
350 1 20.442 11.007 1.57182 -8.94951
688 3 10.2326 11.007 9.43516 2.20418
352 1 1.57211 14.1519 1.57183 -8.94941
353 1 3.14444 12.5794 -0.00041381 -8.94956
354 1 4.7167 14.1517 1.57143 -8.9497
687 2 9.50984 11.007 10.1863 -0.007246
356 1 7.86172 14.1521 1.57022 -8.95247
538 1 17.297 20.4418 11.0069 -8.94955
358 1 11.0067 14.1529 1.56965 -8.95058
511 1 18.8693 18.8696 9.43451 -8.94956
360 1 14.1537 14.1536 1.5685 -8.95162
361 1 15.7255 12.5798 -0.00129012 -8.94938
362 1 17.2983 14.1527 1.57096 -8.94918
532 1 20.4413 17.2973 11.0071 -8.94955
364 1 20.442 14.1521 1.57186 -8.94945
510 1 15.7249 18.87 9.43447 -8.9496
366 1 1.57199 17.297 1.5718 -8.9498
509 1 12.5796 18.8693 9.43444 -8.94826
368 1 4.71607 17.2978 1.57066 -8.94951
369 1 6.28918 15.7246 -0.000929205 -8.95069
370 1 7.86168 17.2977 1.57105 -8.94913
371 1 9.43419 15.725 -0.000880427 -8.94963
372 1 11.007 17.2978 1.57112 -8.94935
373 1 12.5795 15.7251 -0.000996935 -8.94974
374 1 14.1525 17.298 1.57103 -8.94973
508 1 9.43433 18.87 9.43439 -8.94692
376 1 17.2981 17.2981 1.57113 -8.94817
507 1 6.28722 18.873 9.43444 -8.94969
378 1 20.4419 17.2971 1.57195 -8.94955
506 1 3.14313 18.8706 9.43449 -8.94944
380 1 1.57191 20.4418 1.57191 -8.94918
381 1 3.14434 18.8695 -0.00047795 -8.9495
382 1 4.7169 20.4419 1.57183 -8.94964
505 1 -0.000609668 18.8697 9.43452 -8.94951
384 1 7.86199 20.4419 1.57186 -8.94948
385 1 9.43444 18.8696 -0.000387019 -8.94951
386 1 11.007 20.4419 1.57188 -8.94952
504 1 18.8697 15.7252 9.43451 -8.94953
388 1 14.152 20.4419 1.57197 -8.94951
503 1 15.7261 15.7262 9.43442 -8.94611
390 1 17.2971 20.442 1.57195 -8.94946
502 1 12.5777 15.7223 9.43451 -8.9454
392 1 20.4415 20.4417 1.57221 -8.94958
393 1 1.57137 11.007 4.71609 -8.94949
394 1 4.71487 11.007 4.71466 -8.94562
395 1 7.86379 11.007 4.71877 -8.94698
396 1 11.0125 11.007 4.72043 -9.006
397 1 14.1634 11.007 4.7062 -8.9414
398 1 17.3015 11.007 4.7146 -8.94899
399 1 20.4425 11.007 4.71646 -8.94999
400 1 1.68297e-05 12.5795 3.14411 -8.94954
401 1 1.57135 14.152 4.71637 -8.94985
402 1 3.14383 12.5794 3.14358 -8.94892
403 1 4.7143 14.1524 4.7148 -8.95115
404 1 6.28903 12.5787 3.14347 -8.94938
405 1 7.8559 14.158 4.70692 -8.95384
406 1 9.43515 12.5794 3.14354 -8.95097
407 1 11.0076 14.1566 4.70835 -8.95202
408 1 12.5827 12.5808 3.1361 -8.95973
409 1 14.1656 14.1645 4.70381 -8.92852
410 1 15.7284 12.5809 3.14075 -8.94747
411 1 17.3012 14.154 4.71499 -8.95089
412 1 18.8708 12.5798 3.14364 -8.94926
413 1 20.4423 14.1523 4.71665 -8.95024
414 1 22.0138 15.7246 3.14425 -8.94984
415 1 1.5707 17.2978 4.71607 -8.94957
416 1 3.14353 15.7248 3.14344 -8.95023
417 1 4.71286 17.3009 4.71288 -8.94461
418 1 6.2868 15.7269 3.14014 -8.95005
419 1 7.86083 17.3001 4.71453 -8.94916
420 1 9.43391 15.7267 3.14161 -8.94763
421 1 11.0074 17.2998 4.71476 -8.94783
422 1 12.5806 15.727 3.1411 -8.94943
423 1 14.155 17.3016 4.71425 -8.94975
424 1 15.7287 15.7286 3.14051 -8.94424
425 1 17.2979 17.2979 4.7168 -8.95035
426 1 18.8707 15.7253 3.14379 -8.94966
427 1 20.4414 17.2972 4.71692 -8.94981
428 1 -0.00048098 18.8695 3.14435 -8.94953
429 1 1.57175 20.4419 4.7168 -8.9495
430 1 3.14338 18.8704 3.14334 -8.94823
431 1 4.71626 20.4427 4.71619 -8.95004
432 1 6.28901 18.8704 3.14349 -8.94965
433 1 7.86199 20.4425 4.71643 -8.94967
434 1 9.43446 18.8704 3.14367 -8.94935
435 1 11.0073 20.4424 4.71651 -8.9496
436 1 12.5798 18.8705 3.14379 -8.94918
437 1 14.1524 20.4425 4.71683 -8.9507
438 1 15.7255 18.8709 3.14366 -8.94939
439 1 17.2969 20.4418 4.71722 -8.94973
440 1 18.8694 18.8697 3.14452 -8.94982
441 1 20.4414 20.4417 4.71711 -8.94952
442 1 1.57087 11.007 7.86147 -8.94776
443 1 4.71661 11.007 7.86191 -8.94138
444 1 7.8757 11.007 7.86638 -8.93478
445 1 11.0905 11.007 7.61779 -8.16255
446 1 14.1607 11.007 7.8534 -8.9729
447 1 17.2993 11.007 7.86236 -8.95116
448 1 20.4418 11.007 7.86206 -8.9495
449 1 22.0135 12.5794 6.28914 -8.94997
450 1 1.56905 14.1527 7.86134 -8.95155
451 1 3.1423 12.5789 6.28839 -8.95014
452 1 4.70517 14.1566 7.85856 -8.95733
453 1 6.28384 12.5774 6.2868 -8.95143
454 1 7.81876 14.1862 7.82843 -8.88428
455 1 9.41912 12.6013 6.28394 -8.95152
456 1 11.0249 14.1592 7.83633 -8.94356
457 1 12.623 12.6144 6.25003 -8.84718
458 1 14.1564 14.153 7.86391 -8.95301
459 1 15.7353 12.582 6.2854 -8.95851
460 1 17.2984 14.1525 7.86272 -8.95001
461 1 18.8716 12.5797 6.2892 -8.95189
462 1 20.4413 14.1523 7.86201 -8.94996
463 1 -0.00117151 15.7249 6.2891 -8.95011
464 1 1.57054 17.2979 7.86162 -8.94933
465 1 3.13999 15.7267 6.28714 -8.95045
466 1 4.71309 17.3007 7.8605 -8.94779
467 1 6.27633 15.7369 6.27737 -8.93012
468 1 7.85874 17.3043 7.86052 -8.95839
469 1 9.43341 15.7323 6.28483 -8.95165
470 1 11.0066 17.2982 7.86172 -8.95151
471 1 12.5864 15.7354 6.28228 -8.95284
472 1 14.1524 17.2976 7.86273 -8.94902
473 1 15.727 15.7262 6.28932 -8.95153
474 1 17.2975 17.2977 7.86207 -8.94892
475 1 18.8698 15.7249 6.28962 -8.94986
476 1 20.4413 17.2973 7.86196 -8.94955
477 1 22.0133 18.8697 6.28938 -8.94947
478 1 1.57168 20.442 7.86192 -8.94951
479 1 3.14322 18.8706 6.28876 -8.94924
480 1 4.71604 20.4427 7.86164 -8.94944
481 1 6.28784 18.8728 6.28793 -8.95158
482 1 7.86188 20.4431 7.86189 -8.95125
483 1 9.43468 18.8716 6.28859 -8.95047
484 1 11.0071 20.442 7.86216 -8.94941
485 1 12.5799 18.8714 6.28924 -8.95264
486 1 14.1522 20.4419 7.86221 -8.94938
487 1 15.7248 18.8699 6.28983 -8.94966
488 1 17.297 20.4418 7.86207 -8.94954
489 1 18.8693 18.8696 6.28959 -8.9494
490 1 20.4414 20.4417 7.86204 -8.94956
491 1 22.0124 12.5796 9.43434 -8.94963
492 1 3.1395 12.58 9.43363 -8.95015
493 1 6.27628 12.5888 9.43216 -9.02128
494 1 9.35828 12.8282 9.42737 -8.34498
495 1 12.5582 12.5701 9.43141 -8.95869
496 1 15.7222 12.5789 9.43438 -8.94005
497 1 18.8693 12.5797 9.4345 -8.94779
498 1 22.0126 15.7251 9.43449 -8.94994
499 1 3.1398 15.727 9.43445 -8.94916
500 1 6.27833 15.7347 9.43452 -8.94302
501 1 9.42939 15.722 9.43454 -9.0083
513 1 4.70696 11.007 11.0072 -8.95674
531 1 17.2975 17.2977 11.0069 -8.94894
526 1 1.57052 17.2979 11.0074 -8.94925
527 1 4.71302 17.3007 11.0084 -8.94738
389 1 15.7246 18.8697 -0.000381048 -8.94965
534 1 4.71602 20.4428 11.0073 -8.94941
365 1 5.23842e-05 15.7244 -0.000233456 -8.94952
377 1 18.8697 15.7247 -0.000405863 -8.94949
512 1 1.56924 11.007 11.0074 -8.95098
686 1 20.4416 20.4416 20.4415 -8.94928
514 1 7.82909 11.007 11.0177 -9.14449
515 1 11.1134 11.007 11.2531 -8.34542
685 1 18.8696 18.8696 18.8694 -8.94913
517 1 17.299 11.007 11.0066 -8.95107
518 1 20.4414 11.007 11.0069 -8.9499
519 1 1.56915 14.1525 11.0073 -8.95152
520 1 4.70554 14.1559 11.0096 -8.95827
521 1 7.81927 14.1894 11.0428 -8.90605
522 1 11.0231 14.1604 11.0329 -8.95838
523 1 14.1558 14.153 11.0041 -8.95278
524 1 17.2983 14.1525 11.0062 -8.94985
525 1 20.4413 14.1523 11.0069 -8.94989
391 1 18.8696 18.8696 22.0136 -8.94917
387 1 12.5795 18.8697 22.0135 -8.94947
528 1 7.85872 17.3051 11.0085 -8.95894
529 1 11.0065 17.2987 11.0072 -8.95144
530 1 14.1525 17.2978 11.0061 -8.94876
684 1 17.2969 20.4417 20.4415 -8.9496
683 1 15.7247 18.8697 18.8695 -8.94959
533 1 1.57167 20.442 11.0071 -8.9495
383 1 6.28942 18.8695 22.0135 -8.94948
535 1 7.86187 20.4432 11.007 -8.95142
536 1 11.0071 20.4421 11.0068 -8.94947
537 1 14.1522 20.4419 11.0068 -8.9494
682 1 14.1519 20.4417 20.4415 -8.94953
539 1 20.4414 20.4417 11.007 -8.94956
540 1 1.57127 11.007 14.1529 -8.94901
541 1 4.71554 11.007 14.1531 -8.94683
542 1 7.86535 11.007 14.1473 -8.99099
543 1 11.0119 11.007 14.1456 -9.05078
544 1 14.1627 11.007 14.162 -8.94257
545 1 17.3012 11.007 14.1543 -8.94897
546 1 20.4424 11.007 14.1526 -8.94988
547 1 -0.000851895 12.5796 12.58 -8.95007
548 1 1.57093 14.1523 14.1529 -8.94957
549 1 3.14091 12.5798 12.5812 -8.94838
550 1 4.71361 14.1531 14.1547 -8.95057
551 1 6.28308 12.5809 12.5826 -8.9798
552 1 7.85463 14.1604 14.1645 -8.95112
553 1 9.41877 12.6082 12.5958 -8.94846
554 1 11.0084 14.1593 14.1631 -8.9485
555 1 12.6222 12.6188 12.6192 -8.87736
556 1 14.1661 14.1653 14.1657 -8.92772
557 1 15.7349 12.5821 12.5834 -8.95874
558 1 17.3012 14.1541 14.154 -8.95116
559 1 18.8714 12.5797 12.5798 -8.95193
560 1 20.4422 14.1523 14.1524 -8.95029
561 1 22.0128 15.7249 12.5798 -8.95019
562 1 1.57067 17.2978 14.1529 -8.94976
563 1 3.14001 15.7267 12.5817 -8.95115
564 1 4.71258 17.3013 14.1564 -8.94446
565 1 6.27575 15.7381 12.5921 -8.93021
566 1 7.86061 17.3009 14.155 -8.94933
567 1 9.43357 15.7344 12.5853 -8.95199
568 1 11.0076 17.3007 14.1548 -8.94792
569 1 12.5864 15.7365 12.5868 -8.95409
570 1 14.1552 17.3019 14.1549 -8.94981
571 1 15.7269 15.7262 12.5795 -8.95168
572 1 17.2979 17.2979 14.1522 -8.95042
573 1 18.8698 15.7249 12.5794 -8.94982
574 1 20.4414 17.2972 14.1521 -8.94985
575 1 -0.000590773 18.8697 12.5796 -8.94945
576 1 1.57174 20.4419 14.1522 -8.94951
577 1 3.14319 18.8706 12.5802 -8.94922
578 1 4.71619 20.4427 14.1529 -8.95007
579 1 6.28772 18.8731 12.5811 -8.95174
580 1 7.86195 20.4427 14.1527 -8.94978
581 1 9.43471 18.8722 12.5805 -8.95076
582 1 11.0073 20.4426 14.1526 -8.94974
583 1 12.5799 18.8718 12.5797 -8.95283
584 1 14.1524 20.4426 14.1522 -8.95074
585 1 15.7248 18.87 12.5792 -8.9496
586 1 17.297 20.4418 14.1518 -8.94972
587 1 18.8693 18.8696 12.5794 -8.9494
588 1 20.4414 20.4417 14.1519 -8.94952
589 1 1.5721 11.007 17.2973 -8.94957
590 1 4.7166 11.007 17.2975 -8.94938
591 1 7.86186 11.007 17.2968 -8.94702
592 1 11.0073 11.007 17.2974 -8.94493
593 1 14.1544 11.007 17.3006 -8.94952
594 1 17.2983 11.007 17.2981 -8.94944
595 1 20.442 11.007 17.2973 -8.94951
596 1 22.0139 12.5795 15.725 -8.94948
597 1 1.57213 14.1519 17.2972 -8.94952
598 1 3.14397 12.5793 15.7254 -8.94927
599 1 4.71674 14.1516 17.2977 -8.94999
600 1 6.28934 12.5785 15.7253 -8.95019
601 1 7.86158 14.1523 17.2995 -8.95292
602 1 9.43528 12.5795 15.7271 -8.95473
603 1 11.0069 14.1532 17.3001 -8.95099
604 1 12.5824 12.5808 15.7326 -8.96032
605 1 14.1537 14.1535 17.3006 -8.9519
606 1 15.7283 12.5808 15.7281 -8.94748
607 1 17.2982 14.1526 17.2981 -8.94919
608 1 18.8708 12.5798 15.7254 -8.94923
609 1 20.442 14.1521 17.2972 -8.94944
610 1 -0.000192093 15.7247 15.7249 -8.94976
611 1 1.5719 17.2971 17.2973 -8.94974
612 1 3.14327 15.725 15.7258 -8.95001
613 1 4.71588 17.2979 17.2986 -8.94927
614 1 6.28622 15.7276 15.7296 -8.94916
615 1 7.86158 17.2979 17.2983 -8.94902
616 1 9.43384 15.7274 15.7283 -8.94704
617 1 11.0071 17.2981 17.2983 -8.9493
618 1 12.5812 15.7277 15.7286 -8.9485
619 1 14.1527 17.2982 17.2983 -8.94947
620 1 15.729 15.7289 15.7288 -8.94404
621 1 17.2982 17.2982 17.298 -8.94808
622 1 18.8707 15.7254 15.7253 -8.94974
623 1 20.4419 17.2972 17.2972 -8.94952
624 1 22.0134 18.8696 15.7247 -8.94958
625 1 1.57187 20.4418 17.2972 -8.94917
626 1 3.14328 18.8705 15.7258 -8.94818
627 1 4.71683 20.4419 17.2973 -8.94962
628 1 6.28886 18.8707 15.7257 -8.94963
629 1 7.86196 20.442 17.2973 -8.94945
630 1 9.43445 18.8707 15.7256 -8.94929
631 1 11.0071 20.442 17.2973 -8.9495
632 1 12.5799 18.8707 15.7254 -8.94913
633 1 14.1521 20.442 17.2972 -8.94948
634 1 15.7256 18.871 15.7255 -8.9494
635 1 17.2972 20.442 17.2971 -8.94947
636 1 18.8695 18.8697 15.7245 -8.94986
637 1 20.4415 20.4417 17.2969 -8.9496
638 1 1.57223 11.007 20.4415 -8.94959
639 1 4.71684 11.007 20.4415 -8.94968
640 1 7.86177 11.007 20.4415 -8.94908
641 1 11.0067 11.007 20.4415 -8.94836
642 1 14.1526 11.007 20.4415 -8.95035
643 1 17.2975 11.007 20.4415 -8.94947
644 1 20.4418 11.007 20.4415 -8.94956
645 1 4.99642e-05 12.5794 18.8694 -8.94956
646 1 1.57226 14.1519 20.4415 -8.94955
647 1 3.14446 12.5794 18.8695 -8.94956
648 1 4.71694 14.1518 20.4415 -8.9496
649 1 6.28933 12.5792 18.8695 -8.94937
650 1 7.86188 14.1518 20.4416 -8.95049
651 1 9.43443 12.5792 18.8698 -8.94977
652 1 11.0067 14.1522 20.4416 -8.95035
653 1 12.5796 12.5795 18.8708 -8.95143
654 1 14.1523 14.1523 20.4415 -8.95071
655 1 15.7255 12.5798 18.8703 -8.94937
656 1 17.2975 14.1522 20.4415 -8.94939
657 1 18.8698 12.5795 18.8695 -8.9495
658 1 20.4418 14.1519 20.4415 -8.94955
659 1 22.014 15.7244 18.8693 -8.94955
660 1 1.57227 17.2968 20.4415 -8.94972
661 1 3.1445 15.7243 18.8695 -8.94981
662 1 4.71678 17.2971 20.4416 -8.95003
663 1 6.28909 15.7247 18.8703 -8.95069
664 1 7.8618 17.2972 20.4416 -8.9495
665 1 9.43419 15.7251 18.8703 -8.94962
666 1 11.0069 17.2974 20.4416 -8.94953
667 1 12.5796 15.7252 18.8704 -8.94972
668 1 14.1521 17.2973 20.4416 -8.9496
669 1 15.7253 15.7253 18.8703 -8.9501
670 1 17.2973 17.2974 20.4415 -8.94956
671 1 18.8697 15.7247 18.8695 -8.94951
672 1 20.4417 17.2969 20.4415 -8.94957
673 1 -4.53274e-05 18.8693 18.8693 -8.94956
674 1 1.57218 20.4417 20.4415 -8.94942
675 1 3.1443 18.8696 18.8696 -8.94945
676 1 4.71707 20.4417 20.4415 -8.94956
677 1 6.28938 18.8696 18.8696 -8.94947
678 1 7.862 20.4417 20.4415 -8.94954
679 1 9.43444 18.8697 18.8696 -8.9495
680 1 11.007 20.4418 20.4415 -8.94955
681 1 12.5795 18.8697 18.8696 -8.94946
351 1 22.0139 12.5794 22.0136 -8.94957
355 1 6.28933 12.5792 22.0134 -8.94948
359 1 12.5796 12.5795 22.0122 -8.95154
379 1 22.0139 18.8693 22.0137 -8.94958
367 1 3.14452 15.7243 22.0135 -8.94974
375 1 15.7253 15.7253 22.0127 -8.95002
357 1 9.4344 12.5792 22.0134 -8.94931
363 1 18.8698 12.5795 22.0135 -8.9495
516 1 14.1595 11.007 11.0145 -8.97975
