ITEM: TIMESTEP
65
ITEM: NUMBER OF ATOMS
688
ITEM: BOX BOUNDS pp pp pp
0.0000000000000000e+00 2.2013900999999997e+01
0.0000000000000000e+00 2.2013900999999997e+01
0.0000000000000000e+00 2.2013900999999997e+01
ITEM: ATOMS id type x y z c_pot
1 1 -6.71314e-05 -5.2062e-16 -5.89655e-05 -8.94944
2 1 1.57216 1.57225 1.57216 -8.94926
189 1 20.4414 4.71687 11.007 -8.94956
4 1 4.71713 1.57221 1.57214 -8.94969
175 1 18.8696 9.43415 9.4345 -8.94799
6 1 7.86207 1.57219 1.57212 -8.94954
174 1 15.723 9.43479 9.43442 -8.94019
8 1 11.007 1.57217 1.57212 -8.94957
173 1 12.5595 9.44315 9.4317 -8.95908
10 1 14.1519 1.57218 1.57218 -8.94954
172 1 9.35655 9.18355 9.42736 -8.33752
12 1 17.2969 1.57213 1.57216 -8.94948
188 1 17.2974 4.71648 11.0069 -8.94901
14 1 20.4415 1.57232 1.57235 -8.94962
171 1 6.2762 9.42559 9.43199 -9.02121
16 1 1.57219 4.71711 1.57211 -8.94977
17 1 3.14458 3.14458 -0.000279738 -8.94953
18 1 4.71646 4.71648 1.57116 -8.94953
170 1 3.13988 9.43404 9.43363 -8.95019
20 1 7.86189 4.71657 1.57145 -8.94916
21 1 9.4345 3.14452 -0.000238316 -8.94956
22 1 11.007 4.71647 1.57151 -8.94939
169 1 22.0127 9.4344 9.43436 -8.94976
24 1 14.1522 4.71642 1.57152 -8.94977
168 1 18.8697 6.28895 9.43451 -8.94952
26 1 17.2976 4.7163 1.57154 -8.9483
167 1 15.726 6.28782 9.43442 -8.9463
28 1 20.4417 4.71704 1.57218 -8.94956
166 1 12.5779 6.29133 9.4345 -8.94577
30 1 1.57221 7.86205 1.57209 -8.94946
165 1 9.42979 6.29164 9.43439 -9.0088
32 1 4.71688 7.86224 1.5717 -8.94969
33 1 6.28936 6.28941 -0.000718167 -8.95052
34 1 7.86182 7.86194 1.57045 -8.95229
35 1 9.4343 6.28912 -0.000697618 -8.9496
36 1 11.0066 7.86127 1.57007 -8.9504
37 1 12.5794 6.28915 -0.000713157 -8.94966
38 1 14.1532 7.86074 1.56922 -8.95151
164 1 6.27971 6.28018 9.43446 -8.94333
40 1 17.2976 7.86161 1.57148 -8.94929
163 1 3.14089 6.28754 9.43449 -8.94916
42 1 20.4417 7.86199 1.57213 -8.9495
162 1 22.013 6.28913 9.43452 -8.94988
44 1 3.14457 9.4345 -0.000276932 -8.94958
161 1 18.8693 3.1445 9.43452 -8.9496
181 1 17.2969 1.57218 11.007 -8.94958
160 1 15.7248 3.14407 9.43449 -8.94963
48 1 15.725 9.43426 -0.000905054 -8.94939
159 1 12.5797 3.14443 9.43448 -8.94836
50 1 22.0138 -1.62447e-16 3.14477 -8.94963
51 1 1.5721 1.57219 4.71708 -8.94959
52 1 3.14448 -7.22636e-16 3.14446 -8.94957
53 1 4.71662 1.57155 4.71657 -8.95
54 1 6.28961 -2.35647e-16 3.14451 -8.94958
55 1 7.8621 1.57169 4.71673 -8.94958
56 1 9.43456 9.77536e-16 3.14447 -8.94956
57 1 11.0072 1.57171 4.71672 -8.94955
58 1 12.5795 1.72798e-15 3.14452 -8.94951
59 1 14.1522 1.57164 4.71696 -8.95053
60 1 15.7245 1.29425e-15 3.1446 -8.94993
61 1 17.2968 1.57224 4.71727 -8.9497
62 1 18.8691 8.92959e-16 3.14483 -8.9497
63 1 20.4415 1.57232 4.71722 -8.94958
64 1 -0.000287494 3.14459 3.1446 -8.94955
65 1 1.5712 4.71649 4.71648 -8.94958
66 1 3.14385 3.14391 3.14383 -8.94829
67 1 4.71363 4.71366 4.71357 -8.94463
68 1 6.28936 3.14396 3.144 -8.94968
69 1 7.86138 4.71458 4.71513 -8.94915
70 1 9.43452 3.14393 3.14405 -8.9494
71 1 11.0073 4.71472 4.71532 -8.94787
72 1 12.5796 3.14389 3.14415 -8.9492
73 1 14.1543 4.7131 4.71487 -8.94975
74 1 15.7251 3.14354 3.14402 -8.94938
75 1 17.2974 4.71648 4.71704 -8.95026
76 1 18.8693 3.14456 3.14471 -8.9498
77 1 20.4414 4.71697 4.7171 -8.94976
78 1 22.0139 6.28952 3.14453 -8.94978
79 1 1.57164 7.86206 4.71667 -8.94976
80 1 3.14397 6.28938 3.14393 -8.95012
81 1 4.71492 7.86184 4.7152 -8.95098
82 1 6.28743 6.28756 3.14085 -8.95019
83 1 7.85673 7.85688 4.70754 -8.95451
84 1 9.43407 6.28779 3.14217 -8.94775
85 1 11.0071 7.85811 4.70937 -8.95222
86 1 12.5801 6.28763 3.14197 -8.9495
87 1 14.1642 7.85039 4.70511 -8.92915
88 1 15.7278 6.28609 3.14133 -8.94447
89 1 17.3003 7.86034 4.71553 -8.95082
90 1 18.8702 6.28898 3.14416 -8.94966
91 1 20.4421 7.86182 4.71689 -8.95014
92 1 -4.63436e-05 9.43444 3.14442 -8.94955
93 1 3.14404 9.43448 3.14389 -8.94897
94 1 6.28914 9.43526 3.14352 -8.94953
95 1 9.43498 9.43471 3.14349 -8.95065
96 1 12.582 9.43332 3.13686 -8.95943
97 1 15.7273 9.43337 3.14171 -8.94765
98 1 18.8702 9.43427 3.14409 -8.94931
99 1 -0.000119521 4.68976e-16 6.28964 -8.94961
100 1 1.57207 1.57216 7.86205 -8.94957
101 1 3.14442 -1.85462e-16 6.28949 -8.94948
102 1 4.71651 1.5715 7.86184 -8.94943
103 1 6.2894 -4.97113e-16 6.28932 -8.95059
104 1 7.86205 1.571 7.86198 -8.95121
105 1 9.43474 1.51856e-15 6.28936 -8.95006
106 1 11.0071 1.57185 7.86216 -8.94949
107 1 12.5795 1.69282e-15 6.28961 -8.95037
108 1 14.1521 1.57206 7.86219 -8.94942
109 1 15.7244 1.72214e-15 6.28971 -8.94955
110 1 17.2969 1.57218 7.86208 -8.94957
111 1 18.8692 1.69719e-15 6.28966 -8.94958
112 1 20.4415 1.5723 7.86209 -8.94961
113 1 22.0136 3.14454 6.28956 -8.94952
114 1 1.5712 4.71643 7.86184 -8.94936
115 1 3.14384 3.14383 6.28917 -8.94933
116 1 4.71414 4.71406 7.86088 -8.94791
117 1 6.28834 3.14167 6.28829 -8.95154
118 1 7.85945 4.71 7.86063 -8.95832
119 1 9.43483 3.14262 6.28882 -8.95028
120 1 11.0068 4.71559 7.86191 -8.95143
121 1 12.5798 3.14273 6.28939 -8.95242
122 1 14.1523 4.71635 7.86281 -8.94909
123 1 15.7246 3.14425 6.28987 -8.94965
124 1 17.2973 4.71649 7.86209 -8.94898
125 1 18.8692 3.14456 6.28965 -8.94945
126 1 20.4414 4.71686 7.86203 -8.94956
127 1 -0.000840804 6.28923 6.28931 -8.95005
128 1 1.56964 7.86147 7.86149 -8.95146
129 1 3.14085 6.28768 6.28762 -8.95044
130 1 4.70611 7.85799 7.8587 -8.9573
131 1 6.27734 6.27782 6.27787 -8.92991
132 1 7.81927 7.82818 7.82796 -8.8826
133 1 9.43395 6.28246 6.28543 -8.9515
134 1 11.0247 7.85499 7.83758 -8.94348
135 1 12.5857 6.27931 6.28324 -8.95285
136 1 14.1562 7.86098 7.86426 -8.95299
137 1 15.7264 6.28812 6.28965 -8.95142
138 1 17.2983 7.86144 7.86272 -8.9499
139 1 18.8696 6.28923 6.2897 -8.94977
140 1 20.4414 7.86175 7.86205 -8.94995
141 1 22.0136 9.43451 6.2893 -8.94995
142 1 3.14264 9.43505 6.28854 -8.95005
143 1 6.28427 9.43677 6.28669 -8.95095
144 1 9.42006 9.4142 6.28495 -8.95337
145 1 12.6214 9.40072 6.25182 -8.84932
146 1 15.7343 9.43213 6.28617 -8.95825
147 1 18.8712 9.43427 6.28939 -8.95173
148 1 -0.000131739 6.66659e-16 9.43453 -8.94962
149 1 3.14438 3.40915e-16 9.43452 -8.94953
150 1 6.28918 -4.63214e-16 9.43451 -8.95022
151 1 9.43477 1.39342e-15 9.43449 -8.94878
152 1 12.5797 1.69818e-15 9.4345 -8.94929
153 1 15.7245 1.40883e-15 9.43451 -8.94969
154 1 18.8692 1.24579e-15 9.43453 -8.94962
155 1 -0.00029942 3.14452 9.43453 -8.94956
156 1 3.1438 3.14382 9.43452 -8.94949
157 1 6.28792 3.14154 9.43448 -8.94962
158 1 9.43458 3.14375 9.43441 -8.94709
177 1 4.7165 1.5715 11.0072 -8.9494
183 1 1.5712 4.71644 11.0072 -8.94928
184 1 4.71412 4.71407 11.008 -8.94751
5 1 6.28965 7.44341e-16 -9.6497e-05 -8.94959
41 1 18.8694 6.28951 -0.00021323 -8.94958
7 1 9.43452 1.40501e-15 -0.000111681 -8.94961
9 1 12.5794 1.81051e-15 -0.000104613 -8.9496
29 1 3.83742e-06 6.28964 -9.98983e-05 -8.94957
25 1 15.7244 3.14456 -0.000205709 -8.94969
176 1 1.57206 1.57216 11.007 -8.94957
47 1 12.5794 9.43445 22.0124 -8.95143
178 1 7.86204 1.57092 11.007 -8.95131
179 1 11.0071 1.57179 11.0068 -8.9495
180 1 14.1521 1.57203 11.0068 -8.94944
343 1 18.8694 9.43447 18.8693 -8.94957
182 1 20.4415 1.5723 11.007 -8.94961
45 1 6.2894 9.43462 22.0135 -8.94953
43 1 22.0139 9.43451 22.0138 -8.94961
185 1 7.8595 4.70946 11.0082 -8.95876
186 1 11.0067 4.71528 11.0069 -8.95135
187 1 14.1524 4.7162 11.0061 -8.94885
342 1 15.725 9.43428 18.87 -8.94937
341 1 12.5794 9.43449 18.8705 -8.95135
190 1 1.56979 7.86165 11.0072 -8.95141
191 1 4.70657 7.8587 11.0093 -8.95819
192 1 7.81986 7.82553 11.0428 -8.90433
193 1 11.023 7.854 11.0316 -8.95834
194 1 14.1558 7.86091 11.0038 -8.95263
195 1 17.2983 7.86142 11.0062 -8.94974
196 1 20.4415 7.86177 11.0069 -8.94987
197 1 22.0138 -7.86071e-16 12.5794 -8.94961
198 1 1.57211 1.57219 14.152 -8.94959
199 1 3.14442 -1.4183e-15 12.5796 -8.94947
200 1 4.7166 1.57151 14.1525 -8.95003
201 1 6.28938 -3.56429e-16 12.5797 -8.95064
202 1 7.86207 1.57158 14.1523 -8.94968
203 1 9.43474 8.45624e-16 12.5797 -8.95018
204 1 11.0072 1.57157 14.1524 -8.94968
205 1 12.5796 1.32315e-15 12.5794 -8.95043
206 1 14.1522 1.57158 14.1521 -8.95057
207 1 15.7244 7.04067e-16 12.5793 -8.94954
208 1 17.2968 1.57223 14.1518 -8.94969
209 1 18.8692 2.47848e-16 12.5794 -8.94958
210 1 20.4415 1.57232 14.1518 -8.94957
211 1 -0.000292702 3.14454 12.5795 -8.9495
212 1 1.57122 4.71649 14.1525 -8.94975
213 1 3.14384 3.14383 12.5798 -8.94931
214 1 4.7135 4.71341 14.1556 -8.94459
215 1 6.2883 3.14148 12.5807 -8.95169
216 1 7.86125 4.71396 14.1542 -8.94934
217 1 9.43485 3.14224 12.5802 -8.95055
218 1 11.0075 4.71396 14.1541 -8.94802
219 1 12.5798 3.14251 12.5796 -8.95263
220 1 14.1545 4.71281 14.1542 -8.94987
221 1 15.7246 3.14421 12.5792 -8.94959
222 1 17.2975 4.71647 14.152 -8.95031
223 1 18.8692 3.14456 12.5794 -8.94945
224 1 20.4414 4.71698 14.1519 -8.94979
225 1 22.0131 6.28926 12.5797 -8.9501
226 1 1.57128 7.86174 14.1526 -8.94949
227 1 3.14098 6.28773 12.5812 -8.95113
228 1 4.71421 7.86108 14.1544 -8.95014
229 1 6.27699 6.27683 12.5914 -8.93029
230 1 7.85562 7.85477 14.1636 -8.95175
231 1 9.43409 6.28071 12.5844 -8.95183
232 1 11.0079 7.85563 14.1618 -8.94879
233 1 12.5857 6.27825 12.5857 -8.95422
234 1 14.165 7.84948 14.1646 -8.92803
235 1 15.7263 6.28809 12.5792 -8.95154
236 1 17.3005 7.86026 14.1536 -8.95107
237 1 18.8697 6.28923 12.5793 -8.94972
238 1 20.442 7.86175 14.1522 -8.95021
239 1 -0.000678224 9.43436 12.5799 -8.95008
240 1 3.14127 9.43409 12.5812 -8.94841
241 1 6.28297 9.433 12.5832 -8.97946
242 1 9.41959 9.40772 12.5942 -8.94984
243 1 12.6213 9.3958 12.6179 -8.87807
244 1 15.7343 9.43192 12.5828 -8.95849
245 1 18.8712 9.43424 12.5797 -8.9518
246 1 22.0138 -6.11519e-16 15.7243 -8.94963
247 1 1.57215 1.57224 17.2969 -8.94927
248 1 3.14447 -9.52279e-16 15.7246 -8.94959
249 1 4.7171 1.57218 17.2969 -8.94967
250 1 6.28958 -4.15404e-16 15.7246 -8.94962
251 1 7.86204 1.57214 17.297 -8.94952
252 1 9.43455 1.13538e-15 15.7246 -8.94959
253 1 11.007 1.57212 17.297 -8.94955
254 1 12.5795 1.17088e-15 15.7246 -8.94955
255 1 14.1519 1.57214 17.2969 -8.94952
256 1 15.7245 9.54968e-16 15.7245 -8.94995
257 1 17.2969 1.57211 17.2969 -8.9495
258 1 18.8691 -4.64669e-16 15.7242 -8.94969
259 1 20.4415 1.57232 17.2967 -8.94964
260 1 22.0136 3.14459 15.7244 -8.94959
261 1 1.57214 4.71706 17.297 -8.94969
262 1 3.14381 3.14386 15.7252 -8.94828
263 1 4.71635 4.71638 17.298 -8.94933
264 1 6.28928 3.1438 15.7251 -8.94967
265 1 7.86182 4.71642 17.2978 -8.94906
266 1 9.4345 3.14372 15.7251 -8.94934
267 1 11.007 4.71631 17.2977 -8.94935
268 1 12.5797 3.14368 15.725 -8.94916
269 1 14.1523 4.71628 17.2977 -8.94953
270 1 15.7251 3.14346 15.7251 -8.94942
271 1 17.2977 4.71621 17.2976 -8.94817
272 1 18.8693 3.14455 15.7243 -8.94983
273 1 20.4417 4.717 17.2969 -8.94954
274 1 -0.000122053 6.28943 15.7246 -8.94971
275 1 1.57223 7.86208 17.297 -8.94955
276 1 3.14375 6.2892 15.7253 -8.94984
277 1 4.71693 7.86229 17.2974 -8.94998
278 1 6.28699 6.28706 15.7287 -8.94935
279 1 7.86173 7.86177 17.2991 -8.95271
280 1 9.43399 6.28722 15.7275 -8.94713
281 1 11.0067 7.86103 17.2995 -8.95079
282 1 12.5805 6.28703 15.7276 -8.94858
283 1 14.1532 7.86078 17.2999 -8.95184
284 1 15.7281 6.2858 15.728 -8.94417
285 1 17.2976 7.86164 17.2976 -8.94929
286 1 18.8702 6.28892 15.725 -8.94971
287 1 20.4417 7.862 17.2969 -8.94949
288 1 22.0139 9.43445 15.7247 -8.9495
289 1 3.14419 9.43458 15.7251 -8.9493
290 1 6.28946 9.43548 15.7253 -8.95041
291 1 9.43518 9.43473 15.7268 -8.95435
292 1 12.5817 9.43342 15.7319 -8.96022
293 1 15.7273 9.43344 15.7273 -8.9476
294 1 18.8702 9.43429 15.725 -8.94926
295 1 -7.05535e-05 -3.03698e-16 18.8691 -8.94945
296 1 1.57233 1.57232 20.4415 -8.94952
297 1 3.14477 1.56888e-16 18.8692 -8.94967
298 1 4.71721 1.57233 20.4415 -8.9496
299 1 6.28964 8.90497e-16 18.8692 -8.94958
300 1 7.86208 1.5723 20.4415 -8.9496
301 1 9.43452 1.44808e-15 18.8692 -8.9496
302 1 11.007 1.57229 20.4415 -8.94961
303 1 12.5794 1.44508e-15 18.8692 -8.94959
304 1 14.1518 1.57231 20.4415 -8.94959
305 1 15.7243 1.34849e-15 18.8692 -8.9496
306 1 17.2967 1.57232 20.4415 -8.94967
307 1 18.8692 6.82703e-16 18.8692 -8.94951
308 1 20.4415 1.57236 20.4415 -8.94943
309 1 -1.16044e-05 3.14475 18.8692 -8.9496
310 1 1.57235 4.71723 20.4415 -8.9497
311 1 3.14456 3.14456 18.8694 -8.94949
312 1 4.717 4.71701 20.4415 -8.94993
313 1 6.28956 3.14456 18.8693 -8.94951
314 1 7.86195 4.7169 20.4415 -8.9495
315 1 9.43449 3.14449 18.8694 -8.94956
316 1 11.0069 4.71686 20.4415 -8.94955
317 1 12.5794 3.1445 18.8693 -8.94952
318 1 14.1519 4.71691 20.4415 -8.94959
319 1 15.7244 3.14453 18.8693 -8.94965
320 1 17.297 4.71689 20.4415 -8.94958
321 1 18.8693 3.14457 18.8692 -8.94923
322 1 20.4416 4.7172 20.4415 -8.94964
323 1 22.0139 6.28964 18.8692 -8.9496
324 1 1.57231 7.86208 20.4415 -8.94958
325 1 3.14466 6.28967 18.8693 -8.94977
326 1 4.71706 7.86213 20.4415 -8.94961
327 1 6.2893 6.28934 18.87 -8.95052
328 1 7.86194 7.86204 20.4416 -8.95039
329 1 9.43429 6.28905 18.87 -8.94956
330 1 11.0067 7.86178 20.4416 -8.95024
331 1 12.5795 6.28907 18.87 -8.94962
332 1 14.1521 7.86177 20.4415 -8.95061
333 1 15.7249 6.28901 18.87 -8.95005
334 1 17.2971 7.86192 20.4415 -8.94945
335 1 18.8694 6.28952 18.8693 -8.9496
336 1 20.4416 7.86207 20.4415 -8.94961
337 1 -6.84604e-06 9.43451 18.8692 -8.94961
338 1 3.14458 9.43452 18.8693 -8.94957
339 1 6.28941 9.43466 18.8695 -8.94945
340 1 9.4344 9.43469 18.8698 -8.94977
39 1 15.7249 6.28901 22.0131 -8.94997
31 1 3.14467 6.28967 22.0137 -8.94971
27 1 18.8693 3.1446 22.0137 -8.94928
11 1 15.7243 1.64911e-15 22.0138 -8.94962
15 1 22.0139 3.14476 22.0138 -8.94962
19 1 6.28959 3.14459 22.0137 -8.94952
23 1 12.5794 3.14454 22.0137 -8.94953
3 1 3.14478 -7.79504e-18 22.0138 -8.94968
13 1 18.8692 1.30667e-15 22.0138 -8.9495
46 1 9.43438 9.43462 22.0134 -8.94936
49 1 18.8694 9.43447 22.0137 -8.94957
344 1 1.57217 11.007 1.57204 -8.94961
345 1 4.71666 11.007 1.57148 -8.94967
346 1 7.86192 11.007 1.57196 -8.94855
347 1 11.0068 11.007 1.57139 -8.94658
348 1 14.1537 11.007 1.56901 -8.94948
349 1 17.2977 11.007 1.57146 -8.94951
350 1 20.4417 11.007 1.57211 -8.94956
688 3 10.226 11.007 9.43607 2.2055
352 1 1.57221 14.1519 1.57209 -8.94946
353 1 3.14457 12.5794 -0.000276932 -8.94958
354 1 4.71688 14.1517 1.5717 -8.94969
687 2 9.50238 11.007 10.1892 -0.0102447
356 1 7.86182 14.152 1.57045 -8.95229
538 1 17.2969 20.4417 11.007 -8.94958
358 1 11.0066 14.1526 1.57007 -8.9504
511 1 18.8693 18.8694 9.43452 -8.9496
360 1 14.1532 14.1532 1.56922 -8.95151
361 1 15.725 12.5796 -0.000905054 -8.94939
362 1 17.2976 14.1523 1.57148 -8.94929
532 1 20.4414 17.297 11.007 -8.94956
364 1 20.4417 14.1519 1.57213 -8.9495
510 1 15.7248 18.8698 9.43449 -8.94963
366 1 1.57219 17.2968 1.57211 -8.94977
509 1 12.5797 18.8695 9.43448 -8.94836
368 1 4.71646 17.2974 1.57116 -8.94953
369 1 6.28936 15.7245 -0.000718167 -8.95052
370 1 7.86189 17.2973 1.57145 -8.94916
371 1 9.4343 15.7248 -0.000697618 -8.9496
372 1 11.007 17.2974 1.57151 -8.94939
373 1 12.5794 15.7247 -0.000713157 -8.94966
374 1 14.1522 17.2975 1.57152 -8.94977
508 1 9.43458 18.8702 9.43441 -8.94709
376 1 17.2976 17.2976 1.57154 -8.9483
507 1 6.28792 18.8724 9.43448 -8.94962
378 1 20.4417 17.2969 1.57218 -8.94956
506 1 3.1438 18.8701 9.43452 -8.94949
380 1 1.57216 20.4417 1.57216 -8.94926
381 1 3.14458 18.8693 -0.000279738 -8.94953
382 1 4.71713 20.4417 1.57214 -8.94969
505 1 -0.00029942 18.8694 9.43453 -8.94956
384 1 7.86207 20.4417 1.57212 -8.94954
385 1 9.4345 18.8694 -0.000238316 -8.94956
386 1 11.007 20.4417 1.57212 -8.94957
504 1 18.8697 15.7249 9.43451 -8.94952
388 1 14.1519 20.4417 1.57218 -8.94954
503 1 15.726 15.7261 9.43442 -8.9463
390 1 17.2969 20.4418 1.57216 -8.94948
502 1 12.5779 15.7226 9.4345 -8.94577
392 1 20.4415 20.4416 1.57235 -8.94962
393 1 1.57153 11.007 4.71638 -8.94947
394 1 4.7151 11.007 4.71482 -8.94567
395 1 7.86389 11.007 4.71854 -8.94738
396 1 11.012 11.007 4.72039 -9.00478
397 1 14.1619 11.007 4.70752 -8.9417
398 1 17.3005 11.007 4.7153 -8.94902
399 1 20.4422 11.007 4.71676 -8.94992
400 1 -4.63436e-05 12.5795 3.14442 -8.94955
401 1 1.57164 14.1518 4.71667 -8.94976
402 1 3.14404 12.5794 3.14389 -8.94897
403 1 4.71492 14.1521 4.7152 -8.95098
404 1 6.28914 12.5786 3.14352 -8.94953
405 1 7.85673 14.157 4.70754 -8.95451
406 1 9.43498 12.5792 3.14349 -8.95065
407 1 11.0071 14.1558 4.70937 -8.95222
408 1 12.582 12.5806 3.13686 -8.95943
409 1 14.1642 14.1635 4.70511 -8.92915
410 1 15.7273 12.5805 3.14171 -8.94765
411 1 17.3003 14.1536 4.71553 -8.95082
412 1 18.8702 12.5796 3.14409 -8.94931
413 1 20.4421 14.1521 4.71689 -8.95014
414 1 22.0139 15.7244 3.14453 -8.94978
415 1 1.5712 17.2974 4.71648 -8.94958
416 1 3.14397 15.7245 3.14393 -8.95012
417 1 4.71363 17.3002 4.71357 -8.94463
418 1 6.28743 15.7263 3.14085 -8.95019
419 1 7.86138 17.2993 4.71513 -8.94915
420 1 9.43407 15.7261 3.14217 -8.94775
421 1 11.0073 17.2992 4.71532 -8.94787
422 1 12.5801 15.7263 3.14197 -8.9495
423 1 14.1543 17.3008 4.71487 -8.94975
424 1 15.7278 15.7278 3.14133 -8.94447
425 1 17.2974 17.2974 4.71704 -8.95026
426 1 18.8702 15.7249 3.14416 -8.94966
427 1 20.4414 17.2969 4.7171 -8.94976
428 1 -0.000287494 18.8693 3.1446 -8.94955
429 1 1.5721 20.4417 4.71708 -8.94959
430 1 3.14385 18.87 3.14383 -8.94829
431 1 4.71662 20.4424 4.71657 -8.95
432 1 6.28936 18.8699 3.144 -8.94968
433 1 7.8621 20.4422 4.71673 -8.94958
434 1 9.43452 18.87 3.14405 -8.9494
435 1 11.0072 20.4422 4.71672 -8.94955
436 1 12.5796 18.87 3.14415 -8.9492
437 1 14.1522 20.4423 4.71696 -8.95053
438 1 15.7251 18.8704 3.14402 -8.94938
439 1 17.2968 20.4417 4.71727 -8.9497
440 1 18.8693 18.8693 3.14471 -8.9498
441 1 20.4415 20.4416 4.71722 -8.94958
442 1 1.57109 11.007 7.86154 -8.94794
443 1 4.71651 11.007 7.86176 -8.94167
444 1 7.87462 11.007 7.86621 -8.93268
445 1 11.0908 11.007 7.62378 -8.16342
446 1 14.1612 11.007 7.85447 -8.97285
447 1 17.2994 11.007 7.86252 -8.95128
448 1 20.4419 11.007 7.86211 -8.94964
449 1 22.0136 12.5794 6.2893 -8.94995
450 1 1.56964 14.1524 7.86149 -8.95146
451 1 3.14264 12.5789 6.28854 -8.95005
452 1 4.70611 14.1559 7.8587 -8.9573
453 1 6.28427 12.5771 6.28669 -8.95095
454 1 7.81927 14.1857 7.82796 -8.8826
455 1 9.42006 12.5997 6.28495 -8.95337
456 1 11.0247 14.1589 7.83758 -8.94348
457 1 12.6214 12.6132 6.25182 -8.84932
458 1 14.1562 14.1529 7.86426 -8.95299
459 1 15.7343 12.5818 6.28617 -8.95825
460 1 17.2983 14.1525 7.86272 -8.9499
461 1 18.8712 12.5796 6.28939 -8.95173
462 1 20.4414 14.1522 7.86205 -8.94995
463 1 -0.000840804 15.7247 6.28931 -8.95005
464 1 1.5712 17.2975 7.86184 -8.94936
465 1 3.14085 15.7262 6.28762 -8.95044
466 1 4.71414 17.2998 7.86088 -8.94791
467 1 6.27734 15.7361 6.27787 -8.92991
468 1 7.85945 17.3039 7.86063 -8.95832
469 1 9.43395 15.7314 6.28543 -8.9515
470 1 11.0068 17.2983 7.86191 -8.95143
471 1 12.5857 15.7346 6.28324 -8.95285
472 1 14.1523 17.2975 7.86281 -8.94909
473 1 15.7264 15.7258 6.28965 -8.95142
474 1 17.2973 17.2974 7.86209 -8.94898
475 1 18.8696 15.7247 6.2897 -8.94977
476 1 20.4414 17.297 7.86203 -8.94956
477 1 22.0136 18.8694 6.28956 -8.94952
478 1 1.57207 20.4417 7.86205 -8.94957
479 1 3.14384 18.8701 6.28917 -8.94933
480 1 4.71651 20.4424 7.86184 -8.94943
481 1 6.28834 18.8722 6.28829 -8.95154
482 1 7.86205 20.4429 7.86198 -8.95121
483 1 9.43483 18.8713 6.28882 -8.95028
484 1 11.0071 20.4421 7.86216 -8.94949
485 1 12.5798 18.8712 6.28939 -8.95242
486 1 14.1521 20.4418 7.86219 -8.94942
487 1 15.7246 18.8697 6.28987 -8.94965
488 1 17.2969 20.4417 7.86208 -8.94957
489 1 18.8692 18.8693 6.28965 -8.94945
490 1 20.4415 20.4416 7.86209 -8.94961
491 1 22.0127 12.5795 9.43436 -8.94976
492 1 3.13988 12.5799 9.43363 -8.95019
493 1 6.2762 12.5883 9.43199 -9.02121
494 1 9.35655 12.8303 9.42736 -8.33752
495 1 12.5595 12.5707 9.4317 -8.95908
496 1 15.723 12.5791 9.43442 -8.94019
497 1 18.8696 12.5798 9.4345 -8.94799
498 1 22.013 15.7248 9.43452 -8.94988
499 1 3.14089 15.7264 9.43449 -8.94916
500 1 6.27971 15.7337 9.43446 -8.94333
501 1 9.42979 15.7223 9.43439 -9.0088
513 1 4.70657 11.007 11.0074 -8.9575
531 1 17.2974 17.2974 11.0069 -8.94901
526 1 1.5712 17.2975 11.0072 -8.94928
527 1 4.71412 17.2998 11.008 -8.94751
389 1 15.7244 18.8693 -0.000205709 -8.94969
534 1 4.7165 20.4424 11.0072 -8.9494
365 1 3.83742e-06 15.7243 -9.98983e-05 -8.94957
377 1 18.8694 15.7244 -0.00021323 -8.94958
512 1 1.56948 11.007 11.0074 -8.95124
686 1 20.4415 20.4415 20.4415 -8.94943
514 1 7.8263 11.007 11.0185 -9.14312
515 1 11.1151 11.007 11.2491 -8.34213
685 1 18.8693 18.8693 18.8692 -8.94923
517 1 17.2993 11.007 11.0065 -8.95129
518 1 20.4416 11.007 11.0069 -8.95008
519 1 1.56979 14.1523 11.0072 -8.95141
520 1 4.70657 14.1552 11.0093 -8.95819
521 1 7.81986 14.1884 11.0428 -8.90433
522 1 11.023 14.1599 11.0316 -8.95834
523 1 14.1558 14.153 11.0038 -8.95263
524 1 17.2983 14.1525 11.0062 -8.94974
525 1 20.4415 14.1521 11.0069 -8.94987
391 1 18.8693 18.8693 22.0137 -8.94928
387 1 12.5794 18.8694 22.0137 -8.94953
528 1 7.8595 17.3044 11.0082 -8.95876
529 1 11.0067 17.2986 11.0069 -8.95135
530 1 14.1524 17.2977 11.0061 -8.94885
684 1 17.2967 20.4416 20.4415 -8.94967
683 1 15.7244 18.8694 18.8693 -8.94965
533 1 1.57206 20.4417 11.007 -8.94957
383 1 6.28959 18.8693 22.0137 -8.94952
535 1 7.86204 20.443 11.007 -8.95131
536 1 11.0071 20.4421 11.0068 -8.9495
537 1 14.1521 20.4419 11.0068 -8.94944
682 1 14.1518 20.4416 20.4415 -8.94959
539 1 20.4415 20.4416 11.007 -8.94961
540 1 1.57148 11.007 14.1527 -8.94903
541 1 4.7157 11.007 14.1532 -8.94678
542 1 7.86528 11.007 14.1478 -8.99213
543 1 11.0115 11.007 14.1454 -9.05002
544 1 14.1615 11.007 14.1609 -8.94285
545 1 17.3004 11.007 14.1537 -8.94896
546 1 20.4421 11.007 14.1523 -8.94982
547 1 -0.000678224 12.5795 12.5799 -8.95008
548 1 1.57128 14.1522 14.1526 -8.94949
549 1 3.14127 12.5798 12.5812 -8.94841
550 1 4.71421 14.1528 14.1544 -8.95014
551 1 6.28297 12.5809 12.5832 -8.97946
552 1 7.85562 14.1591 14.1636 -8.95175
553 1 9.41959 12.6062 12.5942 -8.94984
554 1 11.0079 14.1583 14.1618 -8.94879
555 1 12.6213 12.6181 12.6179 -8.87807
556 1 14.165 14.1644 14.1646 -8.92803
557 1 15.7343 12.582 12.5828 -8.95849
558 1 17.3005 14.1536 14.1536 -8.95107
559 1 18.8712 12.5797 12.5797 -8.9518
560 1 20.442 14.1521 14.1522 -8.95021
561 1 22.0131 15.7246 12.5797 -8.9501
562 1 1.57122 17.2974 14.1525 -8.94975
563 1 3.14098 15.7262 12.5812 -8.95113
564 1 4.7135 17.3005 14.1556 -8.94459
565 1 6.27699 15.7371 12.5914 -8.93029
566 1 7.86125 17.2999 14.1542 -8.94934
567 1 9.43409 15.7332 12.5844 -8.95183
568 1 11.0075 17.2999 14.1541 -8.94802
569 1 12.5857 15.7357 12.5857 -8.95422
570 1 14.1545 17.3011 14.1542 -8.94987
571 1 15.7263 15.7258 12.5792 -8.95154
572 1 17.2975 17.2974 14.152 -8.95031
573 1 18.8697 15.7247 12.5793 -8.94972
574 1 20.4414 17.2969 14.1519 -8.94979
575 1 -0.000292702 18.8694 12.5795 -8.9495
576 1 1.57211 20.4417 14.152 -8.94959
577 1 3.14384 18.8701 12.5798 -8.94931
578 1 4.7166 20.4424 14.1525 -8.95003
579 1 6.2883 18.8724 12.5807 -8.95169
580 1 7.86207 20.4423 14.1523 -8.94968
581 1 9.43485 18.8717 12.5802 -8.95055
582 1 11.0072 20.4423 14.1524 -8.94968
583 1 12.5798 18.8714 12.5796 -8.95263
584 1 14.1522 20.4423 14.1521 -8.95057
585 1 15.7246 18.8697 12.5792 -8.94959
586 1 17.2968 20.4417 14.1518 -8.94969
587 1 18.8692 18.8693 12.5794 -8.94945
588 1 20.4415 20.4416 14.1518 -8.94957
589 1 1.57218 11.007 17.297 -8.94961
590 1 4.71671 11.007 17.2974 -8.94941
591 1 7.86183 11.007 17.297 -8.94722
592 1 11.007 11.007 17.2974 -8.94499
593 1 14.1537 11.007 17.2999 -8.94944
594 1 17.2977 11.007 17.2976 -8.94949
595 1 20.4418 11.007 17.297 -8.94955
596 1 22.0139 12.5794 15.7247 -8.9495
597 1 1.57223 14.1518 17.297 -8.94955
598 1 3.14419 12.5793 15.7251 -8.9493
599 1 4.71693 14.1516 17.2974 -8.94998
600 1 6.28946 12.5784 15.7253 -8.95041
601 1 7.86173 14.1521 17.2991 -8.95271
602 1 9.43518 12.5792 15.7268 -8.95435
603 1 11.0067 14.1529 17.2995 -8.95079
604 1 12.5817 12.5805 15.7319 -8.96022
605 1 14.1532 14.1531 17.2999 -8.95184
606 1 15.7273 12.5805 15.7273 -8.9476
607 1 17.2976 14.1523 17.2976 -8.94929
608 1 18.8702 12.5796 15.725 -8.94926
609 1 20.4417 14.1519 17.2969 -8.94949
610 1 -0.000122053 15.7245 15.7246 -8.94971
611 1 1.57214 17.2968 17.297 -8.94969
612 1 3.14375 15.7247 15.7253 -8.94984
613 1 4.71635 17.2975 17.298 -8.94933
614 1 6.28699 15.7268 15.7287 -8.94935
615 1 7.86182 17.2975 17.2978 -8.94906
616 1 9.43399 15.7267 15.7275 -8.94713
617 1 11.007 17.2976 17.2977 -8.94935
618 1 12.5805 15.7269 15.7276 -8.94858
619 1 14.1523 17.2976 17.2977 -8.94953
620 1 15.7281 15.7281 15.728 -8.94417
621 1 17.2977 17.2977 17.2976 -8.94817
622 1 18.8702 15.725 15.725 -8.94971
623 1 20.4417 17.2969 17.2969 -8.94954
624 1 22.0136 18.8693 15.7244 -8.94959
625 1 1.57215 20.4417 17.2969 -8.94927
626 1 3.14381 18.87 15.7252 -8.94828
627 1 4.7171 20.4417 17.2969 -8.94967
628 1 6.28928 18.8701 15.7251 -8.94967
629 1 7.86204 20.4418 17.297 -8.94952
630 1 9.4345 18.8702 15.7251 -8.94934
631 1 11.007 20.4418 17.297 -8.94955
632 1 12.5797 18.8702 15.725 -8.94916
633 1 14.1519 20.4418 17.2969 -8.94952
634 1 15.7251 18.8704 15.7251 -8.94942
635 1 17.2969 20.4418 17.2969 -8.9495
636 1 18.8693 18.8693 15.7243 -8.94983
637 1 20.4415 20.4416 17.2967 -8.94964
638 1 1.5723 11.007 20.4415 -8.94962
639 1 4.71697 11.007 20.4415 -8.9497
640 1 7.86183 11.007 20.4415 -8.94922
641 1 11.0067 11.007 20.4415 -8.94858
642 1 14.1523 11.007 20.4415 -8.95024
643 1 17.2971 11.007 20.4415 -8.94952
644 1 20.4416 11.007 20.4415 -8.94962
645 1 -6.84604e-06 12.5794 18.8692 -8.94961
646 1 1.57231 14.1518 20.4415 -8.94958
647 1 3.14458 12.5794 18.8693 -8.94957
648 1 4.71706 14.1518 20.4415 -8.94961
649 1 6.28941 12.5792 18.8695 -8.94945
650 1 7.86194 14.1519 20.4416 -8.95039
651 1 9.4344 12.5792 18.8698 -8.94977
652 1 11.0067 14.1521 20.4416 -8.95024
653 1 12.5794 12.5794 18.8705 -8.95135
654 1 14.1521 14.1521 20.4415 -8.95061
655 1 15.725 12.5796 18.87 -8.94937
656 1 17.2971 14.152 20.4415 -8.94945
657 1 18.8694 12.5794 18.8693 -8.94957
658 1 20.4416 14.1518 20.4415 -8.94961
659 1 22.0139 15.7243 18.8692 -8.9496
660 1 1.57235 17.2967 20.4415 -8.9497
661 1 3.14466 15.7242 18.8693 -8.94977
662 1 4.717 17.2969 20.4415 -8.94993
663 1 6.2893 15.7246 18.87 -8.95052
664 1 7.86195 17.297 20.4415 -8.9495
665 1 9.43429 15.7249 18.87 -8.94956
666 1 11.0069 17.297 20.4415 -8.94955
667 1 12.5795 15.7248 18.87 -8.94962
668 1 14.1519 17.297 20.4415 -8.94959
669 1 15.7249 15.7249 18.87 -8.95005
670 1 17.297 17.297 20.4415 -8.94958
671 1 18.8694 15.7244 18.8693 -8.9496
672 1 20.4416 17.2967 20.4415 -8.94964
673 1 -1.16044e-05 18.8692 18.8692 -8.9496
674 1 1.57233 20.4416 20.4415 -8.94952
675 1 3.14456 18.8693 18.8694 -8.94949
676 1 4.71721 20.4416 20.4415 -8.9496
677 1 6.28956 18.8693 18.8693 -8.94951
678 1 7.86208 20.4416 20.4415 -8.9496
679 1 9.43449 18.8694 18.8694 -8.94956
680 1 11.007 20.4416 20.4415 -8.94961
681 1 12.5794 18.8694 18.8693 -8.94952
351 1 22.0139 12.5794 22.0138 -8.94961
355 1 6.2894 12.5793 22.0135 -8.94953
359 1 12.5794 12.5795 22.0124 -8.95143
379 1 22.0139 18.8691 22.0138 -8.94962
367 1 3.14467 15.7242 22.0137 -8.94971
375 1 15.7249 15.7249 22.0131 -8.94997
357 1 9.43438 12.5793 22.0134 -8.94936
363 1 18.8694 12.5794 22.0137 -8.94957
516 1 14.1606 11.007 11.0139 -8.97971
