ITEM: TIMESTEP
50
ITEM: NUMBER OF ATOMS
688
ITEM: BOX BOUNDS pp pp pp
0.0000000000000000e+00 2.2013900999999997e+01
0.0000000000000000e+00 2.2013900999999997e+01
0.0000000000000000e+00 2.2013900999999997e+01
ITEM: ATOMS id type x y z c_pot
1 1 -9.04396e-09 7.69006e-16 -5.76809e-09 -8.94963
2 1 1.57242 1.57242 1.57242 -8.94963
189 1 20.4415 4.71726 11.007 -8.94963
4 1 4.71726 1.57242 1.57242 -8.94964
175 1 18.8691 9.4345 9.43453 -8.94965
6 1 7.86211 1.57242 1.57242 -8.94963
174 1 15.7249 9.43408 9.43445 -8.94735
8 1 11.007 1.57242 1.57242 -8.94963
173 1 12.5796 9.43277 9.43365 -8.96274
10 1 14.1518 1.57242 1.57242 -8.94963
172 1 9.36229 9.2395 9.41949 -8.28815
12 1 17.2966 1.57242 1.57242 -8.94963
188 1 17.2966 4.71727 11.007 -8.94965
14 1 20.4415 1.57242 1.57242 -8.94963
171 1 6.28337 9.43302 9.43346 -9.01893
16 1 1.57242 4.71726 1.57242 -8.94963
17 1 3.14484 3.14484 -2.31471e-07 -8.94963
18 1 4.71726 4.71726 1.57242 -8.94963
170 1 3.14429 9.43442 9.43442 -8.95043
20 1 7.86211 4.71726 1.57242 -8.94963
21 1 9.43453 3.14484 1.61565e-08 -8.94963
22 1 11.007 4.71726 1.57242 -8.94964
169 1 22.0139 9.43452 9.43452 -8.94974
24 1 14.1518 4.71727 1.57243 -8.94969
168 1 18.8691 6.28968 9.43453 -8.94963
26 1 17.2966 4.71726 1.57242 -8.9496
167 1 15.7242 6.28963 9.43453 -8.94931
28 1 20.4415 4.71726 1.57242 -8.94963
166 1 12.5792 6.28956 9.43457 -8.95145
30 1 1.57242 7.86211 1.57242 -8.94964
165 1 9.43403 6.28302 9.43453 -8.98737
32 1 4.71726 7.86211 1.57242 -8.94964
33 1 6.28968 6.28968 -4.74156e-06 -8.94964
34 1 7.86208 7.86208 1.57235 -8.94976
35 1 9.43453 6.28968 -7.32852e-07 -8.94964
36 1 11.0069 7.86209 1.57239 -8.94961
37 1 12.5794 6.28969 2.96658e-06 -8.94963
38 1 14.1518 7.86205 1.57232 -8.94968
164 1 6.28903 6.28897 9.43458 -8.95067
40 1 17.2966 7.86211 1.57242 -8.94968
163 1 3.14479 6.28965 9.43454 -8.94961
42 1 20.4415 7.86211 1.57242 -8.94963
162 1 22.0139 6.28969 9.43453 -8.94964
44 1 3.14484 9.43453 2.0538e-07 -8.94963
161 1 18.8691 3.14484 9.43453 -8.94964
181 1 17.2966 1.57242 11.007 -8.94963
160 1 15.7242 3.14484 9.43453 -8.94962
48 1 15.7242 9.43453 6.06133e-07 -8.94963
159 1 12.5794 3.14483 9.43453 -8.9496
50 1 22.0139 -5.44506e-16 3.14484 -8.94963
51 1 1.57242 1.57242 4.71726 -8.94964
52 1 3.14484 3.80194e-16 3.14484 -8.94963
53 1 4.71726 1.57241 4.71726 -8.94962
54 1 6.28969 -1.7152e-16 3.14484 -8.94963
55 1 7.86211 1.57242 4.71727 -8.94963
56 1 9.43453 1.08559e-15 3.14484 -8.94963
57 1 11.0069 1.57242 4.71726 -8.94963
58 1 12.5794 1.09324e-15 3.14484 -8.94963
59 1 14.1518 1.57242 4.71726 -8.94964
60 1 15.7242 4.15665e-16 3.14484 -8.94963
61 1 17.2966 1.57242 4.71726 -8.94963
62 1 18.8691 1.12488e-15 3.14484 -8.94963
63 1 20.4415 1.57242 4.71726 -8.94963
64 1 -3.02605e-07 3.14484 3.14484 -8.94963
65 1 1.57242 4.71726 4.71726 -8.94963
66 1 3.14484 3.14484 3.14484 -8.9496
67 1 4.71718 4.71718 4.71718 -8.94906
68 1 6.28969 3.14485 3.14485 -8.94969
69 1 7.86213 4.71728 4.71727 -8.94998
70 1 9.43453 3.14484 3.14484 -8.94965
71 1 11.0069 4.71724 4.71723 -8.94954
72 1 12.5794 3.14485 3.14484 -8.94964
73 1 14.1518 4.71716 4.71722 -8.94965
74 1 15.7242 3.14484 3.14484 -8.94962
75 1 17.2966 4.71727 4.71726 -8.94967
76 1 18.8691 3.14484 3.14484 -8.94964
77 1 20.4415 4.71726 4.71726 -8.94963
78 1 22.0139 6.28969 3.14484 -8.94963
79 1 1.57242 7.8621 4.71726 -8.94963
80 1 3.14484 6.28968 3.14484 -8.94965
81 1 4.71721 7.86205 4.71721 -8.94969
82 1 6.28965 6.28965 3.14475 -8.94973
83 1 7.86178 7.86181 4.71621 -8.95208
84 1 9.43454 6.28964 3.14481 -8.94953
85 1 11.0066 7.86202 4.7168 -8.95199
86 1 12.5793 6.2897 3.14486 -8.95004
87 1 14.153 7.86084 4.71603 -8.94278
88 1 15.7243 6.2896 3.14476 -8.94906
89 1 17.2967 7.86206 4.71722 -8.94972
90 1 18.8691 6.28968 3.14484 -8.94963
91 1 20.4415 7.86211 4.71726 -8.94965
92 1 3.52031e-07 9.43453 3.14484 -8.94963
93 1 3.14485 9.43453 3.14485 -8.94967
94 1 6.28964 9.43454 3.14476 -8.94984
95 1 9.43423 9.43422 3.1444 -8.94846
96 1 12.5798 9.43415 3.1437 -8.95177
97 1 15.7242 9.43453 3.14484 -8.94985
98 1 18.8691 9.43453 3.14484 -8.94963
99 1 -1.38501e-08 1.1763e-15 6.28969 -8.94963
100 1 1.57242 1.57242 7.86211 -8.94963
101 1 3.14484 1.90884e-16 6.28969 -8.94963
102 1 4.71726 1.57242 7.86211 -8.94963
103 1 6.28968 -9.24147e-16 6.28968 -8.94966
104 1 7.86209 1.57236 7.86209 -8.94984
105 1 9.43453 2.5398e-16 6.28969 -8.94963
106 1 11.007 1.57238 7.86209 -8.94967
107 1 12.5794 6.77454e-16 6.28968 -8.94965
108 1 14.1518 1.57242 7.86211 -8.94965
109 1 15.7242 1.16096e-15 6.28969 -8.94963
110 1 17.2966 1.57242 7.86211 -8.94963
111 1 18.8691 2.97582e-16 6.28969 -8.94963
112 1 20.4415 1.57242 7.86211 -8.94963
113 1 22.0139 3.14484 6.28969 -8.94963
114 1 1.57242 4.71726 7.86211 -8.94963
115 1 3.14485 3.14485 6.28969 -8.94968
116 1 4.71725 4.71726 7.86211 -8.94986
117 1 6.28963 3.14474 6.28963 -8.9497
118 1 7.86172 4.71617 7.86172 -8.95171
119 1 9.43455 3.14481 6.28967 -8.94959
120 1 11.0073 4.71676 7.86179 -8.94893
121 1 12.5794 3.14476 6.28965 -8.94978
122 1 14.1518 4.71723 7.86213 -8.9498
123 1 15.7242 3.14484 6.28969 -8.94965
124 1 17.2966 4.71727 7.86211 -8.94965
125 1 18.8691 3.14484 6.28969 -8.94963
126 1 20.4415 4.71726 7.86211 -8.94963
127 1 -4.6749e-06 6.28968 6.28968 -8.94964
128 1 1.57235 7.86209 7.86209 -8.94982
129 1 3.14475 6.28964 6.28964 -8.94972
130 1 4.7161 7.86179 7.86179 -8.95224
131 1 6.28843 6.28841 6.28841 -8.9425
132 1 7.84674 7.84938 7.84792 -8.90902
133 1 9.43478 6.28926 6.28953 -8.95205
134 1 11.0129 7.85962 7.85617 -8.9626
135 1 12.5798 6.28851 6.28924 -8.95105
136 1 14.1526 7.86165 7.86222 -8.94969
137 1 15.7242 6.28967 6.28967 -8.94989
138 1 17.2967 7.86206 7.8621 -8.9496
139 1 18.8691 6.28968 6.28968 -8.94963
140 1 20.4415 7.8621 7.86211 -8.94965
141 1 22.0139 9.43453 6.28968 -8.94966
142 1 3.14473 9.43452 6.28963 -8.94973
143 1 6.28848 9.43434 6.28867 -8.94779
144 1 9.4303 9.43059 6.28836 -8.97756
145 1 12.5933 9.4212 6.27654 -8.87935
146 1 15.7253 9.43423 6.28938 -8.95208
147 1 18.8691 9.43452 6.28968 -8.94986
148 1 -3.73359e-09 5.43373e-16 9.43453 -8.94963
149 1 3.14484 1.06725e-15 9.43453 -8.94963
150 1 6.28968 9.06773e-16 9.43453 -8.94964
151 1 9.43453 1.32199e-15 9.43453 -8.94994
152 1 12.5794 8.25352e-16 9.43453 -8.94963
153 1 15.7242 -2.22906e-17 9.43453 -8.94963
154 1 18.8691 1.82105e-16 9.43453 -8.94963
155 1 1.13793e-07 3.14484 9.43453 -8.94963
156 1 3.14484 3.14484 9.43453 -8.94966
157 1 6.28966 3.14478 9.43453 -8.94957
158 1 9.43455 3.14422 9.43453 -8.95133
177 1 4.71726 1.57242 11.0069 -8.94963
183 1 1.57242 4.71726 11.007 -8.94963
184 1 4.71725 4.71726 11.007 -8.94976
5 1 6.28969 1.60966e-15 -2.64886e-08 -8.94963
41 1 18.8691 6.28969 2.41414e-07 -8.94964
7 1 9.43453 1.86953e-15 1.18994e-08 -8.94963
9 1 12.5794 1.92168e-15 -6.76621e-09 -8.94963
29 1 -1.68453e-08 6.28969 3.15422e-08 -8.94963
25 1 15.7242 3.14484 3.18707e-07 -8.94964
176 1 1.57242 1.57242 11.007 -8.94963
47 1 12.5794 9.43451 22.0138 -8.94985
178 1 7.86209 1.57235 11.007 -8.94984
179 1 11.007 1.57238 11.007 -8.94967
180 1 14.1518 1.57242 11.0069 -8.94965
343 1 18.8691 9.43453 18.8691 -8.94963
182 1 20.4415 1.57242 11.007 -8.94963
45 1 6.28969 9.43453 22.0139 -8.94966
43 1 22.0139 9.43453 22.0139 -8.94963
185 1 7.86172 4.71617 11.0073 -8.95152
186 1 11.0073 4.71674 11.0073 -8.94883
187 1 14.1518 4.71722 11.0069 -8.94974
342 1 15.7242 9.43453 18.8691 -8.94962
341 1 12.5794 9.43452 18.8691 -8.94984
190 1 1.57238 7.8621 11.007 -8.94984
191 1 4.71632 7.86192 11.0072 -8.95259
192 1 7.84857 7.84988 11.0207 -8.935
193 1 11.0115 7.85978 11.0128 -8.98181
194 1 14.1525 7.86168 11.0068 -8.94991
195 1 17.2967 7.86207 11.007 -8.94962
196 1 20.4415 7.86211 11.007 -8.94965
197 1 22.0139 -5.79946e-16 12.5794 -8.94963
198 1 1.57242 1.57242 14.1518 -8.94964
199 1 3.14484 -8.75039e-16 12.5794 -8.94963
200 1 4.71726 1.57241 14.1518 -8.94962
201 1 6.28968 5.73744e-17 12.5794 -8.94966
202 1 7.86211 1.57242 14.1518 -8.94964
203 1 9.43453 1.68031e-15 12.5794 -8.94965
204 1 11.007 1.57242 14.1518 -8.94964
205 1 12.5794 5.08678e-16 12.5794 -8.94965
206 1 14.1518 1.57242 14.1518 -8.94964
207 1 15.7242 -1.97252e-16 12.5794 -8.94963
208 1 17.2966 1.57242 14.1518 -8.94963
209 1 18.8691 -1.05579e-15 12.5794 -8.94963
210 1 20.4415 1.57242 14.1518 -8.94963
211 1 1.61969e-07 3.14484 12.5794 -8.94963
212 1 1.57242 4.71726 14.1518 -8.94963
213 1 3.14485 3.14485 12.5794 -8.94968
214 1 4.71719 4.71718 14.1519 -8.94909
215 1 6.28963 3.14474 12.5794 -8.94971
216 1 7.86211 4.71723 14.1518 -8.95002
217 1 9.43455 3.14478 12.5794 -8.9497
218 1 11.007 4.71719 14.1519 -8.94961
219 1 12.5794 3.14476 12.5794 -8.94979
220 1 14.1518 4.71716 14.1518 -8.94967
221 1 15.7242 3.14484 12.5794 -8.94965
222 1 17.2966 4.71727 14.1518 -8.94968
223 1 18.8691 3.14484 12.5794 -8.94963
224 1 20.4415 4.71726 14.1518 -8.94963
225 1 22.0139 6.28969 12.5794 -8.94965
226 1 1.57241 7.8621 14.1518 -8.94959
227 1 3.14476 6.28965 12.5794 -8.94981
228 1 4.71717 7.86203 14.1519 -8.94944
229 1 6.28849 6.28839 12.5806 -8.94344
230 1 7.8614 7.86128 14.1534 -8.95006
231 1 9.43477 6.28882 12.5797 -8.95253
232 1 11.007 7.8614 14.1529 -8.9499
233 1 12.5798 6.28845 12.5798 -8.95176
234 1 14.1531 7.86082 14.1531 -8.94241
235 1 15.7242 6.28967 12.5794 -8.94996
236 1 17.2967 7.86206 14.1518 -8.94971
237 1 18.8691 6.28968 12.5794 -8.94963
238 1 20.4415 7.86211 14.1518 -8.94965
239 1 -1.00723e-05 9.43452 12.5794 -8.94965
240 1 3.14466 9.43441 12.5795 -8.94909
241 1 6.28859 9.43286 12.5809 -8.98275
242 1 9.43058 9.42591 12.5871 -8.96638
243 1 12.5933 9.41942 12.5931 -8.90821
244 1 15.7253 9.43416 12.5797 -8.95177
245 1 18.8691 9.43452 12.5794 -8.94984
246 1 22.0139 -1.55642e-16 15.7242 -8.94963
247 1 1.57242 1.57242 17.2966 -8.94963
248 1 3.14484 -1.69078e-15 15.7242 -8.94963
249 1 4.71726 1.57242 17.2966 -8.94964
250 1 6.28969 -1.17271e-15 15.7242 -8.94964
251 1 7.86211 1.57242 17.2966 -8.94963
252 1 9.43453 1.28884e-15 15.7242 -8.94963
253 1 11.007 1.57242 17.2966 -8.94963
254 1 12.5794 7.36557e-16 15.7242 -8.94963
255 1 14.1518 1.57242 17.2966 -8.94963
256 1 15.7242 5.87285e-16 15.7242 -8.94963
257 1 17.2966 1.57242 17.2966 -8.94963
258 1 18.8691 -4.43498e-16 15.7242 -8.94963
259 1 20.4415 1.57242 17.2966 -8.94963
260 1 22.0139 3.14484 15.7242 -8.94963
261 1 1.57242 4.71726 17.2966 -8.94964
262 1 3.14484 3.14484 15.7242 -8.9496
263 1 4.71726 4.71726 17.2966 -8.94961
264 1 6.28969 3.14484 15.7242 -8.94968
265 1 7.86211 4.71727 17.2966 -8.94965
266 1 9.43453 3.14484 15.7242 -8.94964
267 1 11.007 4.71727 17.2966 -8.94966
268 1 12.5794 3.14484 15.7242 -8.94963
269 1 14.1518 4.71727 17.2966 -8.94967
270 1 15.7242 3.14484 15.7242 -8.94962
271 1 17.2966 4.71726 17.2966 -8.9496
272 1 18.8691 3.14484 15.7242 -8.94964
273 1 20.4415 4.71726 17.2966 -8.94963
274 1 -1.34141e-07 6.28969 15.7242 -8.94963
275 1 1.57242 7.86211 17.2966 -8.94964
276 1 3.14484 6.28968 15.7242 -8.94964
277 1 4.71727 7.86212 17.2966 -8.9497
278 1 6.2896 6.28961 15.7243 -8.94949
279 1 7.86206 7.86206 17.2968 -8.94984
280 1 9.43453 6.28964 15.7243 -8.94948
281 1 11.007 7.86207 17.2967 -8.94968
282 1 12.5794 6.28966 15.7242 -8.94977
283 1 14.1518 7.86207 17.2967 -8.94977
284 1 15.7243 6.2896 15.7243 -8.94906
285 1 17.2966 7.86211 17.2966 -8.94968
286 1 18.8691 6.28968 15.7242 -8.94963
287 1 20.4415 7.86211 17.2966 -8.94963
288 1 22.0139 9.43453 15.7242 -8.94963
289 1 3.14486 9.43454 15.7242 -8.94974
290 1 6.28975 9.43464 15.7242 -8.95036
291 1 9.43427 9.43425 15.7251 -8.95067
292 1 12.5796 9.43429 15.7252 -8.95254
293 1 15.7242 9.43453 15.7242 -8.94984
294 1 18.8691 9.43453 15.7242 -8.94963
295 1 -6.46294e-09 7.66578e-16 18.8691 -8.94963
296 1 1.57242 1.57242 20.4415 -8.94963
297 1 3.14484 1.35697e-15 18.8691 -8.94963
298 1 4.71726 1.57242 20.4415 -8.94963
299 1 6.28969 5.57963e-16 18.8691 -8.94963
300 1 7.86211 1.57242 20.4415 -8.94963
301 1 9.43453 1.05875e-15 18.8691 -8.94963
302 1 11.007 1.57242 20.4415 -8.94963
303 1 12.5794 1.69038e-15 18.8691 -8.94963
304 1 14.1518 1.57242 20.4415 -8.94963
305 1 15.7242 1.98953e-15 18.8691 -8.94963
306 1 17.2966 1.57242 20.4415 -8.94963
307 1 18.8691 1.82019e-15 18.8691 -8.94963
308 1 20.4415 1.57242 20.4415 -8.94963
309 1 1.90384e-08 3.14484 18.8691 -8.94963
310 1 1.57242 4.71726 20.4415 -8.94963
311 1 3.14484 3.14484 18.8691 -8.94963
312 1 4.71726 4.71726 20.4415 -8.94963
313 1 6.28969 3.14484 18.8691 -8.94964
314 1 7.86211 4.71726 20.4415 -8.94963
315 1 9.43453 3.14484 18.8691 -8.94963
316 1 11.007 4.71726 20.4415 -8.94963
317 1 12.5794 3.14484 18.8691 -8.94963
318 1 14.1518 4.71726 20.4415 -8.94963
319 1 15.7242 3.14484 18.8691 -8.94964
320 1 17.2966 4.71726 20.4415 -8.94963
321 1 18.8691 3.14484 18.8691 -8.94963
322 1 20.4415 4.71726 20.4415 -8.94963
323 1 22.0139 6.28969 18.8691 -8.94963
324 1 1.57242 7.86211 20.4415 -8.94963
325 1 3.14484 6.28969 18.8691 -8.94964
326 1 4.71727 7.86211 20.4415 -8.94963
327 1 6.28968 6.28968 18.8691 -8.94963
328 1 7.8621 7.8621 20.4415 -8.94966
329 1 9.43453 6.28968 18.8691 -8.94962
330 1 11.0069 7.86211 20.4415 -8.94965
331 1 12.5794 6.28968 18.8691 -8.94963
332 1 14.1518 7.8621 20.4415 -8.94966
333 1 15.7242 6.28968 18.8691 -8.94963
334 1 17.2966 7.86211 20.4415 -8.94963
335 1 18.8691 6.28969 18.8691 -8.94964
336 1 20.4415 7.86211 20.4415 -8.94963
337 1 -1.13317e-07 9.43453 18.8691 -8.94963
338 1 3.14484 9.43453 18.8691 -8.94963
339 1 6.28969 9.43453 18.8691 -8.94964
340 1 9.43451 9.43452 18.8691 -8.94981
39 1 15.7242 6.28968 22.0139 -8.94962
31 1 3.14484 6.28969 22.0139 -8.94963
27 1 18.8691 3.14484 22.0139 -8.94963
11 1 15.7242 2.14069e-15 22.0139 -8.94963
15 1 22.0139 3.14484 22.0139 -8.94963
19 1 6.28969 3.14484 22.0139 -8.94963
23 1 12.5794 3.14484 22.0139 -8.94963
3 1 3.14484 2.46471e-16 22.0139 -8.94963
13 1 18.8691 1.36766e-15 22.0139 -8.94963
46 1 9.43451 9.43451 22.0139 -8.94965
49 1 18.8691 9.43453 22.0139 -8.94963
344 1 1.57242 11.007 1.57242 -8.94964
345 1 4.71726 11.007 1.57242 -8.94961
346 1 7.86211 11.007 1.57239 -8.94975
347 1 11.0069 11.007 1.57181 -8.95144
348 1 14.1518 11.007 1.57236 -8.94954
349 1 17.2966 11.007 1.57242 -8.94966
350 1 20.4415 11.007 1.57242 -8.94963
688 3 10.216 11.007 9.44141 2.56196
352 1 1.57242 14.1518 1.57242 -8.94964
353 1 3.14484 12.5794 2.0538e-07 -8.94963
354 1 4.71726 14.1518 1.57242 -8.94964
687 2 9.44739 11.007 10.2153 0.176544
356 1 7.86208 14.1518 1.57235 -8.94976
538 1 17.2966 20.4415 11.007 -8.94963
358 1 11.0069 14.1518 1.57239 -8.94961
511 1 18.8691 18.8691 9.43453 -8.94964
360 1 14.1518 14.1518 1.57232 -8.94968
361 1 15.7242 12.5794 6.06133e-07 -8.94963
362 1 17.2966 14.1518 1.57242 -8.94968
532 1 20.4415 17.2966 11.007 -8.94963
364 1 20.4415 14.1518 1.57242 -8.94963
510 1 15.7242 18.8691 9.43453 -8.94962
366 1 1.57242 17.2966 1.57242 -8.94963
509 1 12.5794 18.8691 9.43453 -8.9496
368 1 4.71726 17.2966 1.57242 -8.94963
369 1 6.28968 15.7242 -4.74156e-06 -8.94964
370 1 7.86211 17.2966 1.57242 -8.94963
371 1 9.43453 15.7242 -7.32852e-07 -8.94964
372 1 11.007 17.2966 1.57242 -8.94964
373 1 12.5794 15.7242 2.96658e-06 -8.94963
374 1 14.1518 17.2966 1.57243 -8.94969
508 1 9.43455 18.8697 9.43453 -8.95133
376 1 17.2966 17.2966 1.57242 -8.9496
507 1 6.28966 18.8691 9.43453 -8.94957
378 1 20.4415 17.2966 1.57242 -8.94963
506 1 3.14484 18.8691 9.43453 -8.94966
380 1 1.57242 20.4415 1.57242 -8.94963
381 1 3.14484 18.8691 -2.31471e-07 -8.94963
382 1 4.71726 20.4415 1.57242 -8.94964
505 1 1.13793e-07 18.8691 9.43453 -8.94963
384 1 7.86211 20.4415 1.57242 -8.94963
385 1 9.43453 18.8691 1.61565e-08 -8.94963
386 1 11.007 20.4415 1.57242 -8.94963
504 1 18.8691 15.7242 9.43453 -8.94963
388 1 14.1518 20.4415 1.57242 -8.94963
503 1 15.7242 15.7243 9.43453 -8.94931
390 1 17.2966 20.4415 1.57242 -8.94963
502 1 12.5792 15.7243 9.43457 -8.95145
392 1 20.4415 20.4415 1.57242 -8.94963
393 1 1.57242 11.007 4.71726 -8.94961
394 1 4.71723 11.007 4.71721 -8.94923
395 1 7.86225 11.007 4.7167 -8.95257
396 1 11.0075 11.007 4.71018 -8.98275
397 1 14.1524 11.007 4.71659 -8.95003
398 1 17.2967 11.007 4.71724 -8.94955
399 1 20.4415 11.007 4.71726 -8.94964
400 1 3.52031e-07 12.5794 3.14484 -8.94963
401 1 1.57242 14.1518 4.71726 -8.94963
402 1 3.14485 12.5794 3.14485 -8.94967
403 1 4.71721 14.1518 4.71721 -8.94969
404 1 6.28964 12.5794 3.14476 -8.94984
405 1 7.86178 14.1521 4.71621 -8.95208
406 1 9.43423 12.5797 3.1444 -8.94846
407 1 11.0066 14.1519 4.7168 -8.95199
408 1 12.5798 12.5798 3.1437 -8.95177
409 1 14.153 14.1531 4.71603 -8.94278
410 1 15.7242 12.5794 3.14484 -8.94985
411 1 17.2967 14.1518 4.71722 -8.94972
412 1 18.8691 12.5794 3.14484 -8.94963
413 1 20.4415 14.1518 4.71726 -8.94965
414 1 22.0139 15.7242 3.14484 -8.94963
415 1 1.57242 17.2966 4.71726 -8.94963
416 1 3.14484 15.7242 3.14484 -8.94965
417 1 4.71718 17.2967 4.71718 -8.94906
418 1 6.28965 15.7243 3.14475 -8.94973
419 1 7.86213 17.2966 4.71727 -8.94998
420 1 9.43454 15.7243 3.14481 -8.94953
421 1 11.0069 17.2967 4.71723 -8.94954
422 1 12.5793 15.7242 3.14486 -8.95004
423 1 14.1518 17.2967 4.71722 -8.94965
424 1 15.7243 15.7243 3.14476 -8.94906
425 1 17.2966 17.2966 4.71726 -8.94967
426 1 18.8691 15.7242 3.14484 -8.94963
427 1 20.4415 17.2966 4.71726 -8.94963
428 1 -3.02605e-07 18.8691 3.14484 -8.94963
429 1 1.57242 20.4415 4.71726 -8.94964
430 1 3.14484 18.8691 3.14484 -8.9496
431 1 4.71726 20.4415 4.71726 -8.94962
432 1 6.28969 18.8691 3.14485 -8.94969
433 1 7.86211 20.4415 4.71727 -8.94963
434 1 9.43453 18.8691 3.14484 -8.94965
435 1 11.0069 20.4415 4.71726 -8.94963
436 1 12.5794 18.8691 3.14484 -8.94964
437 1 14.1518 20.4415 4.71726 -8.94964
438 1 15.7242 18.8691 3.14484 -8.94962
439 1 17.2966 20.4415 4.71726 -8.94963
440 1 18.8691 18.8691 3.14484 -8.94964
441 1 20.4415 20.4415 4.71726 -8.94963
442 1 1.57235 11.007 7.86209 -8.94975
443 1 4.71639 11.007 7.86172 -8.94924
444 1 7.85745 11.007 7.85482 -8.93562
445 1 11.0841 11.007 7.68889 -8.12069
446 1 14.1584 11.007 7.86094 -8.96696
447 1 17.2971 11.007 7.86213 -8.95122
448 1 20.4415 11.007 7.86211 -8.94975
449 1 22.0139 12.5794 6.28968 -8.94966
450 1 1.57235 14.1518 7.86209 -8.94982
451 1 3.14473 12.5794 6.28963 -8.94973
452 1 4.7161 14.1521 7.86179 -8.95224
453 1 6.28848 12.5796 6.28867 -8.94779
454 1 7.84674 14.1645 7.84792 -8.90902
455 1 9.4303 12.5833 6.28836 -8.97756
456 1 11.0129 14.1543 7.85617 -8.9626
457 1 12.5933 12.5927 6.27654 -8.87935
458 1 14.1526 14.1522 7.86222 -8.94969
459 1 15.7253 12.5797 6.28938 -8.95208
460 1 17.2967 14.1518 7.8621 -8.9496
461 1 18.8691 12.5794 6.28968 -8.94986
462 1 20.4415 14.1518 7.86211 -8.94965
463 1 -4.6749e-06 15.7242 6.28968 -8.94964
464 1 1.57242 17.2966 7.86211 -8.94963
465 1 3.14475 15.7243 6.28964 -8.94972
466 1 4.71725 17.2966 7.86211 -8.94986
467 1 6.28843 15.7255 6.28841 -8.9425
468 1 7.86172 17.2977 7.86172 -8.95171
469 1 9.43478 15.7246 6.28953 -8.95205
470 1 11.0073 17.2971 7.86179 -8.94893
471 1 12.5798 15.7254 6.28924 -8.95105
472 1 14.1518 17.2967 7.86213 -8.9498
473 1 15.7242 15.7242 6.28967 -8.94989
474 1 17.2966 17.2966 7.86211 -8.94965
475 1 18.8691 15.7242 6.28968 -8.94963
476 1 20.4415 17.2966 7.86211 -8.94963
477 1 22.0139 18.8691 6.28969 -8.94963
478 1 1.57242 20.4415 7.86211 -8.94963
479 1 3.14485 18.8691 6.28969 -8.94968
480 1 4.71726 20.4415 7.86211 -8.94963
481 1 6.28963 18.8692 6.28963 -8.9497
482 1 7.86209 20.4415 7.86209 -8.94984
483 1 9.43455 18.8691 6.28967 -8.94959
484 1 11.007 20.4415 7.86209 -8.94967
485 1 12.5794 18.8691 6.28965 -8.94978
486 1 14.1518 20.4415 7.86211 -8.94965
487 1 15.7242 18.8691 6.28969 -8.94965
488 1 17.2966 20.4415 7.86211 -8.94963
489 1 18.8691 18.8691 6.28969 -8.94963
490 1 20.4415 20.4415 7.86211 -8.94963
491 1 22.0139 12.5794 9.43452 -8.94974
492 1 3.14429 12.5795 9.43442 -8.95043
493 1 6.28337 12.5809 9.43346 -9.01893
494 1 9.36229 12.7744 9.41949 -8.28815
495 1 12.5796 12.5811 9.43365 -8.96274
496 1 15.7249 12.5798 9.43445 -8.94735
497 1 18.8691 12.5794 9.43453 -8.94965
498 1 22.0139 15.7242 9.43453 -8.94964
499 1 3.14479 15.7242 9.43454 -8.94961
500 1 6.28903 15.7249 9.43458 -8.95067
501 1 9.43403 15.7309 9.43453 -8.98737
513 1 4.71303 11.007 11.0073 -8.95849
531 1 17.2966 17.2966 11.007 -8.94965
526 1 1.57242 17.2966 11.007 -8.94963
527 1 4.71725 17.2966 11.007 -8.94976
389 1 15.7242 18.8691 3.18707e-07 -8.94964
534 1 4.71726 20.4415 11.0069 -8.94963
365 1 -1.68453e-08 15.7242 3.15422e-08 -8.94963
377 1 18.8691 15.7242 2.41414e-07 -8.94964
512 1 1.57216 11.007 11.007 -8.9507
686 1 20.4415 20.4415 20.4415 -8.94963
514 1 7.82197 11.007 11.0266 -9.16511
515 1 11.1113 11.007 11.188 -8.28174
685 1 18.8691 18.8691 18.8691 -8.94963
517 1 17.2972 11.007 11.0069 -8.95169
518 1 20.4415 11.007 11.007 -8.94983
519 1 1.57238 14.1518 11.007 -8.94984
520 1 4.71632 14.152 11.0072 -8.95259
521 1 7.84857 14.164 11.0207 -8.935
522 1 11.0115 14.1541 11.0128 -8.98181
523 1 14.1525 14.1522 11.0068 -8.94991
524 1 17.2967 14.1518 11.007 -8.94962
525 1 20.4415 14.1518 11.007 -8.94965
391 1 18.8691 18.8691 22.0139 -8.94963
387 1 12.5794 18.8691 22.0139 -8.94963
528 1 7.86172 17.2977 11.0073 -8.95152
529 1 11.0073 17.2972 11.0073 -8.94883
530 1 14.1518 17.2967 11.0069 -8.94974
684 1 17.2966 20.4415 20.4415 -8.94963
683 1 15.7242 18.8691 18.8691 -8.94964
533 1 1.57242 20.4415 11.007 -8.94963
383 1 6.28969 18.8691 22.0139 -8.94963
535 1 7.86209 20.4415 11.007 -8.94984
536 1 11.007 20.4415 11.007 -8.94967
537 1 14.1518 20.4415 11.0069 -8.94965
682 1 14.1518 20.4415 20.4415 -8.94963
539 1 20.4415 20.4415 11.007 -8.94963
540 1 1.57244 11.007 14.1518 -8.94957
541 1 4.71748 11.007 14.1516 -8.95007
542 1 7.8633 11.007 14.1511 -9.00019
543 1 11.0064 11.007 14.1561 -9.02876
544 1 14.1523 11.007 14.1524 -8.95067
545 1 17.2967 11.007 14.1518 -8.94955
546 1 20.4415 11.007 14.1518 -8.94963
547 1 -1.00723e-05 12.5794 12.5794 -8.94965
548 1 1.57241 14.1518 14.1518 -8.94959
549 1 3.14466 12.5795 12.5795 -8.94909
550 1 4.71717 14.1519 14.1519 -8.94944
551 1 6.28859 12.581 12.5809 -8.98275
552 1 7.8614 14.1526 14.1534 -8.95006
553 1 9.43058 12.588 12.5871 -8.96638
554 1 11.007 14.1525 14.1529 -8.9499
555 1 12.5933 12.5945 12.5931 -8.90821
556 1 14.1531 14.1531 14.1531 -8.94241
557 1 15.7253 12.5797 12.5797 -8.95177
558 1 17.2967 14.1518 14.1518 -8.94971
559 1 18.8691 12.5794 12.5794 -8.94984
560 1 20.4415 14.1518 14.1518 -8.94965
561 1 22.0139 15.7242 12.5794 -8.94965
562 1 1.57242 17.2966 14.1518 -8.94963
563 1 3.14476 15.7243 12.5794 -8.94981
564 1 4.71719 17.2967 14.1519 -8.94909
565 1 6.28849 15.7255 12.5806 -8.94344
566 1 7.86211 17.2967 14.1518 -8.95002
567 1 9.43477 15.7251 12.5797 -8.95253
568 1 11.007 17.2967 14.1519 -8.94961
569 1 12.5798 15.7254 12.5798 -8.95176
570 1 14.1518 17.2967 14.1518 -8.94967
571 1 15.7242 15.7242 12.5794 -8.94996
572 1 17.2966 17.2966 14.1518 -8.94968
573 1 18.8691 15.7242 12.5794 -8.94963
574 1 20.4415 17.2966 14.1518 -8.94963
575 1 1.61969e-07 18.8691 12.5794 -8.94963
576 1 1.57242 20.4415 14.1518 -8.94964
577 1 3.14485 18.8691 12.5794 -8.94968
578 1 4.71726 20.4415 14.1518 -8.94962
579 1 6.28963 18.8692 12.5794 -8.94971
580 1 7.86211 20.4415 14.1518 -8.94964
581 1 9.43455 18.8691 12.5794 -8.9497
582 1 11.007 20.4415 14.1518 -8.94964
583 1 12.5794 18.8691 12.5794 -8.94979
584 1 14.1518 20.4415 14.1518 -8.94964
585 1 15.7242 18.8691 12.5794 -8.94965
586 1 17.2966 20.4415 14.1518 -8.94963
587 1 18.8691 18.8691 12.5794 -8.94963
588 1 20.4415 20.4415 14.1518 -8.94963
589 1 1.57242 11.007 17.2966 -8.94963
590 1 4.71726 11.007 17.2966 -8.94955
591 1 7.86209 11.007 17.2966 -8.94918
592 1 11.0069 11.007 17.2971 -8.95049
593 1 14.1518 11.007 17.2967 -8.94953
594 1 17.2966 11.007 17.2966 -8.94966
595 1 20.4415 11.007 17.2966 -8.94963
596 1 22.0139 12.5794 15.7242 -8.94963
597 1 1.57242 14.1518 17.2966 -8.94964
598 1 3.14486 12.5794 15.7242 -8.94974
599 1 4.71727 14.1518 17.2966 -8.9497
600 1 6.28975 12.5793 15.7242 -8.95036
601 1 7.86206 14.1518 17.2968 -8.94984
602 1 9.43427 12.5796 15.7251 -8.95067
603 1 11.007 14.1518 17.2967 -8.94968
604 1 12.5796 12.5796 15.7252 -8.95254
605 1 14.1518 14.1518 17.2967 -8.94977
606 1 15.7242 12.5794 15.7242 -8.94984
607 1 17.2966 14.1518 17.2966 -8.94968
608 1 18.8691 12.5794 15.7242 -8.94963
609 1 20.4415 14.1518 17.2966 -8.94963
610 1 -1.34141e-07 15.7242 15.7242 -8.94963
611 1 1.57242 17.2966 17.2966 -8.94964
612 1 3.14484 15.7242 15.7242 -8.94964
613 1 4.71726 17.2966 17.2966 -8.94961
614 1 6.2896 15.7243 15.7243 -8.94949
615 1 7.86211 17.2966 17.2966 -8.94965
616 1 9.43453 15.7243 15.7243 -8.94948
617 1 11.007 17.2966 17.2966 -8.94966
618 1 12.5794 15.7242 15.7242 -8.94977
619 1 14.1518 17.2966 17.2966 -8.94967
620 1 15.7243 15.7243 15.7243 -8.94906
621 1 17.2966 17.2966 17.2966 -8.9496
622 1 18.8691 15.7242 15.7242 -8.94963
623 1 20.4415 17.2966 17.2966 -8.94963
624 1 22.0139 18.8691 15.7242 -8.94963
625 1 1.57242 20.4415 17.2966 -8.94963
626 1 3.14484 18.8691 15.7242 -8.9496
627 1 4.71726 20.4415 17.2966 -8.94964
628 1 6.28969 18.8691 15.7242 -8.94968
629 1 7.86211 20.4415 17.2966 -8.94963
630 1 9.43453 18.8691 15.7242 -8.94964
631 1 11.007 20.4415 17.2966 -8.94963
632 1 12.5794 18.8691 15.7242 -8.94963
633 1 14.1518 20.4415 17.2966 -8.94963
634 1 15.7242 18.8691 15.7242 -8.94962
635 1 17.2966 20.4415 17.2966 -8.94963
636 1 18.8691 18.8691 15.7242 -8.94964
637 1 20.4415 20.4415 17.2966 -8.94963
638 1 1.57242 11.007 20.4415 -8.94963
639 1 4.71726 11.007 20.4415 -8.94963
640 1 7.86211 11.007 20.4415 -8.94962
641 1 11.0069 11.007 20.4415 -8.94988
642 1 14.1518 11.007 20.4415 -8.94964
643 1 17.2966 11.007 20.4415 -8.94963
644 1 20.4415 11.007 20.4415 -8.94963
645 1 -1.13317e-07 12.5794 18.8691 -8.94963
646 1 1.57242 14.1518 20.4415 -8.94963
647 1 3.14484 12.5794 18.8691 -8.94963
648 1 4.71727 14.1518 20.4415 -8.94963
649 1 6.28969 12.5794 18.8691 -8.94964
650 1 7.8621 14.1518 20.4415 -8.94966
651 1 9.43451 12.5794 18.8691 -8.94981
652 1 11.0069 14.1518 20.4415 -8.94965
653 1 12.5794 12.5794 18.8691 -8.94984
654 1 14.1518 14.1518 20.4415 -8.94966
655 1 15.7242 12.5794 18.8691 -8.94962
656 1 17.2966 14.1518 20.4415 -8.94963
657 1 18.8691 12.5794 18.8691 -8.94963
658 1 20.4415 14.1518 20.4415 -8.94963
659 1 22.0139 15.7242 18.8691 -8.94963
660 1 1.57242 17.2966 20.4415 -8.94963
661 1 3.14484 15.7242 18.8691 -8.94964
662 1 4.71726 17.2966 20.4415 -8.94963
663 1 6.28968 15.7242 18.8691 -8.94963
664 1 7.86211 17.2966 20.4415 -8.94963
665 1 9.43453 15.7242 18.8691 -8.94962
666 1 11.007 17.2966 20.4415 -8.94963
667 1 12.5794 15.7242 18.8691 -8.94963
668 1 14.1518 17.2966 20.4415 -8.94963
669 1 15.7242 15.7242 18.8691 -8.94963
670 1 17.2966 17.2966 20.4415 -8.94963
671 1 18.8691 15.7242 18.8691 -8.94964
672 1 20.4415 17.2966 20.4415 -8.94963
673 1 1.90384e-08 18.8691 18.8691 -8.94963
674 1 1.57242 20.4415 20.4415 -8.94963
675 1 3.14484 18.8691 18.8691 -8.94963
676 1 4.71726 20.4415 20.4415 -8.94963
677 1 6.28969 18.8691 18.8691 -8.94964
678 1 7.86211 20.4415 20.4415 -8.94963
679 1 9.43453 18.8691 18.8691 -8.94963
680 1 11.007 20.4415 20.4415 -8.94963
681 1 12.5794 18.8691 18.8691 -8.94963
351 1 22.0139 12.5794 22.0139 -8.94963
355 1 6.28969 12.5794 22.0139 -8.94966
359 1 12.5794 12.5794 22.0138 -8.94985
379 1 22.0139 18.8691 22.0139 -8.94963
367 1 3.14484 15.7242 22.0139 -8.94963
375 1 15.7242 15.7242 22.0139 -8.94962
357 1 9.43451 12.5794 22.0139 -8.94965
363 1 18.8691 12.5794 22.0139 -8.94963
516 1 14.16 11.007 11.008 -8.97148
