ITEM: TIMESTEP
28
ITEM: NUMBER OF ATOMS
688
ITEM: BOX BOUNDS pp pp pp
0.0000000000000000e+00 2.2013900999999997e+01
0.0000000000000000e+00 2.2013900999999997e+01
0.0000000000000000e+00 2.2013900999999997e+01
ITEM: ATOMS id type x y z c_pot
1 1 -2.84643e-14 7.54241e-17 -1.39485e-14 -8.94963
2 1 1.57242 1.57242 1.57242 -8.94963
189 1 20.4415 4.71726 11.007 -8.94963
4 1 4.71726 1.57242 1.57242 -8.94963
175 1 18.8691 9.43453 9.43453 -8.94964
6 1 7.86211 1.57242 1.57242 -8.94963
174 1 15.7242 9.43452 9.43453 -8.95005
8 1 11.007 1.57242 1.57242 -8.94963
173 1 12.5814 9.43308 9.43448 -8.96979
10 1 14.1518 1.57242 1.57242 -8.94963
172 1 9.41055 9.37728 9.43007 -8.16825
12 1 17.2966 1.57242 1.57242 -8.94963
188 1 17.2966 4.71726 11.007 -8.94963
14 1 20.4415 1.57242 1.57242 -8.94963
171 1 6.28947 9.43454 9.43447 -9.01117
16 1 1.57242 4.71726 1.57242 -8.94963
17 1 3.14484 3.14484 1.02718e-11 -8.94963
18 1 4.71726 4.71726 1.57242 -8.94963
170 1 3.14484 9.43453 9.43453 -8.94965
20 1 7.86211 4.71726 1.57242 -8.94963
21 1 9.43453 3.14484 1.41383e-10 -8.94963
22 1 11.007 4.71726 1.57242 -8.94963
169 1 22.0139 9.43453 9.43453 -8.94963
24 1 14.1518 4.71726 1.57242 -8.94963
168 1 18.8691 6.28969 9.43453 -8.94963
26 1 17.2966 4.71726 1.57242 -8.94963
167 1 15.7242 6.28969 9.43453 -8.94968
28 1 20.4415 4.71726 1.57242 -8.94963
166 1 12.5794 6.28968 9.43453 -8.95055
30 1 1.57242 7.86211 1.57242 -8.94963
165 1 9.43452 6.28888 9.43455 -8.96187
32 1 4.71726 7.86211 1.57242 -8.94963
33 1 6.28969 6.28969 6.95596e-10 -8.94963
34 1 7.86211 7.86211 1.57242 -8.94963
35 1 9.43453 6.28969 2.50548e-09 -8.94963
36 1 11.007 7.86211 1.57242 -8.94963
37 1 12.5794 6.28969 7.46428e-09 -8.94963
38 1 14.1518 7.86211 1.57242 -8.94963
164 1 6.28971 6.28971 9.43453 -8.95093
40 1 17.2966 7.86211 1.57242 -8.94963
163 1 3.14484 6.28969 9.43453 -8.94963
42 1 20.4415 7.86211 1.57242 -8.94963
162 1 22.0139 6.28969 9.43453 -8.94963
44 1 3.14484 9.43453 6.93277e-10 -8.94963
161 1 18.8691 3.14484 9.43453 -8.94963
181 1 17.2966 1.57242 11.007 -8.94963
160 1 15.7242 3.14484 9.43453 -8.94963
48 1 15.7242 9.43453 5.84775e-09 -8.94963
159 1 12.5794 3.14484 9.43453 -8.94964
50 1 22.0139 2.83808e-17 3.14484 -8.94963
51 1 1.57242 1.57242 4.71726 -8.94963
52 1 3.14484 7.19698e-17 3.14484 -8.94963
53 1 4.71726 1.57242 4.71726 -8.94963
54 1 6.28969 1.18285e-16 3.14484 -8.94963
55 1 7.86211 1.57242 4.71726 -8.94963
56 1 9.43453 1.90344e-16 3.14484 -8.94963
57 1 11.007 1.57242 4.71726 -8.94963
58 1 12.5794 5.16127e-19 3.14484 -8.94963
59 1 14.1518 1.57242 4.71726 -8.94963
60 1 15.7242 6.40443e-17 3.14484 -8.94963
61 1 17.2966 1.57242 4.71726 -8.94963
62 1 18.8691 7.09147e-17 3.14484 -8.94963
63 1 20.4415 1.57242 4.71726 -8.94963
64 1 8.88859e-13 3.14484 3.14484 -8.94963
65 1 1.57242 4.71726 4.71726 -8.94963
66 1 3.14484 3.14484 3.14484 -8.94963
67 1 4.71726 4.71726 4.71726 -8.94963
68 1 6.28969 3.14484 3.14484 -8.94963
69 1 7.86211 4.71726 4.71726 -8.94965
70 1 9.43453 3.14484 3.14484 -8.94963
71 1 11.007 4.71726 4.71726 -8.94963
72 1 12.5794 3.14484 3.14484 -8.94963
73 1 14.1518 4.71726 4.71726 -8.94963
74 1 15.7242 3.14484 3.14484 -8.94963
75 1 17.2966 4.71726 4.71726 -8.94963
76 1 18.8691 3.14484 3.14484 -8.94963
77 1 20.4415 4.71726 4.71726 -8.94963
78 1 22.0139 6.28969 3.14484 -8.94963
79 1 1.57242 7.86211 4.71726 -8.94963
80 1 3.14484 6.28969 3.14484 -8.94963
81 1 4.71726 7.86211 4.71726 -8.94963
82 1 6.28969 6.28969 3.14484 -8.94963
83 1 7.86211 7.86211 4.71726 -8.94978
84 1 9.43453 6.28969 3.14484 -8.94963
85 1 11.0069 7.86213 4.71729 -8.95045
86 1 12.5794 6.28969 3.14484 -8.94965
87 1 14.1518 7.8621 4.71726 -8.9494
88 1 15.7242 6.28969 3.14484 -8.94963
89 1 17.2966 7.86211 4.71726 -8.94963
90 1 18.8691 6.28969 3.14484 -8.94963
91 1 20.4415 7.86211 4.71726 -8.94963
92 1 5.84263e-10 9.43453 3.14484 -8.94963
93 1 3.14484 9.43453 3.14484 -8.94963
94 1 6.28969 9.43453 3.14484 -8.94964
95 1 9.43453 9.43452 3.14484 -8.94944
96 1 12.5794 9.43452 3.14483 -8.94965
97 1 15.7242 9.43453 3.14484 -8.94965
98 1 18.8691 9.43453 3.14484 -8.94963
99 1 -6.08339e-13 1.74662e-16 6.28969 -8.94963
100 1 1.57242 1.57242 7.86211 -8.94963
101 1 3.14484 1.35339e-16 6.28969 -8.94963
102 1 4.71726 1.57242 7.86211 -8.94963
103 1 6.28969 -1.20631e-17 6.28969 -8.94963
104 1 7.86211 1.57242 7.86211 -8.94963
105 1 9.43453 1.09872e-16 6.28969 -8.94963
106 1 11.007 1.57242 7.86211 -8.94963
107 1 12.5794 9.95555e-17 6.28969 -8.94963
108 1 14.1518 1.57242 7.86211 -8.94963
109 1 15.7242 1.52326e-16 6.28969 -8.94963
110 1 17.2966 1.57242 7.86211 -8.94963
111 1 18.8691 7.09241e-17 6.28969 -8.94963
112 1 20.4415 1.57242 7.86211 -8.94963
113 1 22.0139 3.14484 6.28969 -8.94963
114 1 1.57242 4.71726 7.86211 -8.94963
115 1 3.14484 3.14484 6.28969 -8.94963
116 1 4.71726 4.71726 7.86211 -8.94965
117 1 6.28969 3.14484 6.28969 -8.94963
118 1 7.8621 4.71726 7.8621 -8.94954
119 1 9.43453 3.14484 6.28969 -8.94964
120 1 11.007 4.71726 7.8621 -8.94944
121 1 12.5794 3.14484 6.28969 -8.94963
122 1 14.1518 4.71726 7.86211 -8.94963
123 1 15.7242 3.14484 6.28969 -8.94963
124 1 17.2966 4.71726 7.86211 -8.94963
125 1 18.8691 3.14484 6.28969 -8.94963
126 1 20.4415 4.71726 7.86211 -8.94963
127 1 -2.47793e-10 6.28969 6.28969 -8.94963
128 1 1.57242 7.86211 7.86211 -8.94963
129 1 3.14484 6.28969 6.28969 -8.94963
130 1 4.71726 7.86211 7.86211 -8.94974
131 1 6.28968 6.28968 6.28968 -8.9495
132 1 7.86167 7.86196 7.86179 -8.97776
133 1 9.43453 6.28971 6.28971 -8.95067
134 1 11.0071 7.86231 7.8621 -8.98829
135 1 12.5794 6.28968 6.28969 -8.94979
136 1 14.1518 7.8621 7.86209 -8.9494
137 1 15.7242 6.28969 6.28969 -8.94964
138 1 17.2966 7.86211 7.86211 -8.94963
139 1 18.8691 6.28969 6.28969 -8.94963
140 1 20.4415 7.86211 7.86211 -8.94963
141 1 22.0139 9.43453 6.28969 -8.94963
142 1 3.14484 9.43453 6.28969 -8.94964
143 1 6.28965 9.43449 6.28965 -8.94905
144 1 9.43434 9.43459 6.28998 -8.99169
145 1 12.5799 9.43402 6.2892 -8.93452
146 1 15.7242 9.43453 6.28969 -8.94974
147 1 18.8691 9.43453 6.28969 -8.94963
148 1 3.3977e-11 1.19169e-16 9.43453 -8.94963
149 1 3.14484 1.94275e-16 9.43453 -8.94963
150 1 6.28969 8.57025e-17 9.43453 -8.94963
151 1 9.43453 9.91115e-17 9.43453 -8.94964
152 1 12.5794 2.18901e-16 9.43453 -8.94963
153 1 15.7242 -5.36327e-18 9.43453 -8.94963
154 1 18.8691 4.82583e-17 9.43453 -8.94963
155 1 4.35276e-11 3.14484 9.43453 -8.94963
156 1 3.14484 3.14484 9.43453 -8.94963
157 1 6.28969 3.14484 9.43453 -8.94964
158 1 9.43453 3.14483 9.43453 -8.94984
177 1 4.71726 1.57242 11.007 -8.94963
183 1 1.57242 4.71726 11.007 -8.94963
184 1 4.71726 4.71726 11.007 -8.94965
5 1 6.28969 1.58711e-16 6.29363e-13 -8.94963
41 1 18.8691 6.28969 4.65685e-11 -8.94963
7 1 9.43453 1.44268e-16 2.98106e-11 -8.94963
9 1 12.5794 2.35472e-16 1.76817e-12 -8.94963
29 1 1.70511e-12 6.28969 6.15088e-12 -8.94963
25 1 15.7242 3.14484 6.39883e-11 -8.94963
176 1 1.57242 1.57242 11.007 -8.94963
47 1 12.5794 9.43453 22.0139 -8.94963
178 1 7.86211 1.57242 11.007 -8.94963
179 1 11.007 1.57242 11.007 -8.94963
180 1 14.1518 1.57242 11.007 -8.94963
343 1 18.8691 9.43453 18.8691 -8.94963
182 1 20.4415 1.57242 11.007 -8.94963
45 1 6.28969 9.43453 22.0139 -8.94963
43 1 22.0139 9.43453 22.0139 -8.94963
185 1 7.8621 4.71725 11.007 -8.94959
186 1 11.007 4.71726 11.007 -8.9495
187 1 14.1518 4.71726 11.007 -8.94964
342 1 15.7242 9.43453 18.8691 -8.94963
341 1 12.5794 9.43453 18.8691 -8.94963
190 1 1.57242 7.86211 11.007 -8.94964
191 1 4.71726 7.86211 11.007 -8.94992
192 1 7.86168 7.86173 11.0075 -8.9913
193 1 11.0071 7.86207 11.0072 -9.00122
194 1 14.1518 7.86209 11.007 -8.94958
195 1 17.2966 7.86211 11.007 -8.94964
196 1 20.4415 7.86211 11.007 -8.94963
197 1 22.0139 1.49665e-16 12.5794 -8.94963
198 1 1.57242 1.57242 14.1518 -8.94963
199 1 3.14484 9.79976e-17 12.5794 -8.94963
200 1 4.71726 1.57242 14.1518 -8.94963
201 1 6.28969 2.07903e-17 12.5794 -8.94963
202 1 7.86211 1.57242 14.1518 -8.94963
203 1 9.43453 2.50995e-16 12.5794 -8.94963
204 1 11.007 1.57242 14.1518 -8.94963
205 1 12.5794 1.70192e-16 12.5794 -8.94963
206 1 14.1518 1.57242 14.1518 -8.94963
207 1 15.7242 -8.88536e-18 12.5794 -8.94963
208 1 17.2966 1.57242 14.1518 -8.94963
209 1 18.8691 -9.49601e-19 12.5794 -8.94963
210 1 20.4415 1.57242 14.1518 -8.94963
211 1 3.45544e-10 3.14484 12.5794 -8.94963
212 1 1.57242 4.71726 14.1518 -8.94963
213 1 3.14484 3.14484 12.5794 -8.94963
214 1 4.71726 4.71726 14.1518 -8.94963
215 1 6.28969 3.14484 12.5794 -8.94963
216 1 7.86211 4.71726 14.1518 -8.94965
217 1 9.43453 3.14484 12.5794 -8.94964
218 1 11.007 4.71726 14.1518 -8.94964
219 1 12.5794 3.14484 12.5794 -8.94963
220 1 14.1518 4.71726 14.1518 -8.94963
221 1 15.7242 3.14484 12.5794 -8.94963
222 1 17.2966 4.71726 14.1518 -8.94963
223 1 18.8691 3.14484 12.5794 -8.94963
224 1 20.4415 4.71726 14.1518 -8.94963
225 1 22.0139 6.28969 12.5794 -8.94963
226 1 1.57242 7.86211 14.1518 -8.94963
227 1 3.14484 6.28969 12.5794 -8.94963
228 1 4.71727 7.86211 14.1518 -8.94972
229 1 6.28968 6.28968 12.5794 -8.94943
230 1 7.86209 7.86209 14.1518 -8.94938
231 1 9.43453 6.28968 12.5794 -8.9507
232 1 11.007 7.8621 14.1518 -8.95005
233 1 12.5794 6.28968 12.5794 -8.94971
234 1 14.1518 7.8621 14.1518 -8.9495
235 1 15.7242 6.28969 12.5794 -8.94963
236 1 17.2966 7.86211 14.1518 -8.94963
237 1 18.8691 6.28969 12.5794 -8.94963
238 1 20.4415 7.86211 14.1518 -8.94963
239 1 1.39957e-08 9.43453 12.5794 -8.94963
240 1 3.14484 9.43453 12.5794 -8.94952
241 1 6.28998 9.43455 12.5792 -8.99279
242 1 9.43435 9.43336 12.581 -8.98126
243 1 12.5795 9.43408 12.5797 -8.9778
244 1 15.7242 9.43453 12.5794 -8.94962
245 1 18.8691 9.43453 12.5794 -8.94963
246 1 22.0139 1.37005e-16 15.7242 -8.94963
247 1 1.57242 1.57242 17.2966 -8.94963
248 1 3.14484 -3.12978e-17 15.7242 -8.94963
249 1 4.71726 1.57242 17.2966 -8.94963
250 1 6.28969 -3.90207e-17 15.7242 -8.94963
251 1 7.86211 1.57242 17.2966 -8.94963
252 1 9.43453 2.47985e-16 15.7242 -8.94963
253 1 11.007 1.57242 17.2966 -8.94963
254 1 12.5794 8.20213e-17 15.7242 -8.94963
255 1 14.1518 1.57242 17.2966 -8.94963
256 1 15.7242 1.05293e-16 15.7242 -8.94963
257 1 17.2966 1.57242 17.2966 -8.94963
258 1 18.8691 7.14612e-17 15.7242 -8.94963
259 1 20.4415 1.57242 17.2966 -8.94963
260 1 22.0139 3.14484 15.7242 -8.94963
261 1 1.57242 4.71726 17.2966 -8.94963
262 1 3.14484 3.14484 15.7242 -8.94963
263 1 4.71726 4.71726 17.2966 -8.94963
264 1 6.28969 3.14484 15.7242 -8.94963
265 1 7.86211 4.71726 17.2966 -8.94963
266 1 9.43453 3.14484 15.7242 -8.94963
267 1 11.007 4.71726 17.2966 -8.94963
268 1 12.5794 3.14484 15.7242 -8.94963
269 1 14.1518 4.71726 17.2966 -8.94963
270 1 15.7242 3.14484 15.7242 -8.94963
271 1 17.2966 4.71726 17.2966 -8.94963
272 1 18.8691 3.14484 15.7242 -8.94963
273 1 20.4415 4.71726 17.2966 -8.94963
274 1 1.19294e-09 6.28969 15.7242 -8.94963
275 1 1.57242 7.86211 17.2966 -8.94963
276 1 3.14484 6.28969 15.7242 -8.94963
277 1 4.71726 7.86211 17.2966 -8.94963
278 1 6.28969 6.28969 15.7242 -8.94962
279 1 7.86211 7.86211 17.2966 -8.94963
280 1 9.43453 6.28969 15.7242 -8.94967
281 1 11.007 7.86211 17.2966 -8.94963
282 1 12.5794 6.28969 15.7242 -8.94964
283 1 14.1518 7.86211 17.2966 -8.94963
284 1 15.7242 6.28969 15.7242 -8.94963
285 1 17.2966 7.86211 17.2966 -8.94963
286 1 18.8691 6.28969 15.7242 -8.94963
287 1 20.4415 7.86211 17.2966 -8.94963
288 1 22.0139 9.43453 15.7242 -8.94963
289 1 3.14484 9.43453 15.7242 -8.94963
290 1 6.28969 9.43453 15.7242 -8.94971
291 1 9.43453 9.43453 15.7242 -8.95002
292 1 12.5794 9.43453 15.7242 -8.94973
293 1 15.7242 9.43453 15.7242 -8.94965
294 1 18.8691 9.43453 15.7242 -8.94963
295 1 1.54101e-13 1.96847e-16 18.8691 -8.94963
296 1 1.57242 1.57242 20.4415 -8.94963
297 1 3.14484 1.07623e-16 18.8691 -8.94963
298 1 4.71726 1.57242 20.4415 -8.94963
299 1 6.28969 2.34974e-17 18.8691 -8.94963
300 1 7.86211 1.57242 20.4415 -8.94963
301 1 9.43453 2.23246e-16 18.8691 -8.94963
302 1 11.007 1.57242 20.4415 -8.94963
303 1 12.5794 1.32221e-16 18.8691 -8.94963
304 1 14.1518 1.57242 20.4415 -8.94963
305 1 15.7242 8.5005e-17 18.8691 -8.94963
306 1 17.2966 1.57242 20.4415 -8.94963
307 1 18.8691 2.48864e-16 18.8691 -8.94963
308 1 20.4415 1.57242 20.4415 -8.94963
309 1 4.00437e-12 3.14484 18.8691 -8.94963
310 1 1.57242 4.71726 20.4415 -8.94963
311 1 3.14484 3.14484 18.8691 -8.94963
312 1 4.71726 4.71726 20.4415 -8.94963
313 1 6.28969 3.14484 18.8691 -8.94963
314 1 7.86211 4.71726 20.4415 -8.94963
315 1 9.43453 3.14484 18.8691 -8.94963
316 1 11.007 4.71726 20.4415 -8.94963
317 1 12.5794 3.14484 18.8691 -8.94963
318 1 14.1518 4.71726 20.4415 -8.94963
319 1 15.7242 3.14484 18.8691 -8.94963
320 1 17.2966 4.71726 20.4415 -8.94963
321 1 18.8691 3.14484 18.8691 -8.94963
322 1 20.4415 4.71726 20.4415 -8.94963
323 1 22.0139 6.28969 18.8691 -8.94963
324 1 1.57242 7.86211 20.4415 -8.94963
325 1 3.14484 6.28969 18.8691 -8.94963
326 1 4.71726 7.86211 20.4415 -8.94963
327 1 6.28969 6.28969 18.8691 -8.94963
328 1 7.86211 7.86211 20.4415 -8.94963
329 1 9.43453 6.28969 18.8691 -8.94963
330 1 11.007 7.86211 20.4415 -8.94963
331 1 12.5794 6.28969 18.8691 -8.94963
332 1 14.1518 7.86211 20.4415 -8.94963
333 1 15.7242 6.28969 18.8691 -8.94963
334 1 17.2966 7.86211 20.4415 -8.94963
335 1 18.8691 6.28969 18.8691 -8.94963
336 1 20.4415 7.86211 20.4415 -8.94963
337 1 2.85218e-10 9.43453 18.8691 -8.94963
338 1 3.14484 9.43453 18.8691 -8.94963
339 1 6.28969 9.43453 18.8691 -8.94963
340 1 9.43453 9.43453 18.8691 -8.94964
39 1 15.7242 6.28969 22.0139 -8.94963
31 1 3.14484 6.28969 22.0139 -8.94963
27 1 18.8691 3.14484 22.0139 -8.94963
11 1 15.7242 1.31123e-16 22.0139 -8.94963
15 1 22.0139 3.14484 22.0139 -8.94963
19 1 6.28969 3.14484 22.0139 -8.94963
23 1 12.5794 3.14484 22.0139 -8.94963
3 1 3.14484 4.73845e-17 22.0139 -8.94963
13 1 18.8691 1.35658e-16 22.0139 -8.94963
46 1 9.43453 9.43453 22.0139 -8.94963
49 1 18.8691 9.43453 22.0139 -8.94963
344 1 1.57242 11.007 1.57242 -8.94963
345 1 4.71726 11.007 1.57242 -8.94963
346 1 7.86211 11.007 1.57242 -8.94965
347 1 11.007 11.007 1.57241 -8.9498
348 1 14.1518 11.007 1.57242 -8.94963
349 1 17.2966 11.007 1.57242 -8.94963
350 1 20.4415 11.007 1.57242 -8.94963
688 3 10.221 11.007 9.43454 4.29759
352 1 1.57242 14.1518 1.57242 -8.94963
353 1 3.14484 12.5794 6.93277e-10 -8.94963
354 1 4.71726 14.1518 1.57242 -8.94963
687 2 9.43445 11.007 10.2211 0.875283
356 1 7.86211 14.1518 1.57242 -8.94963
538 1 17.2966 20.4415 11.007 -8.94963
358 1 11.007 14.1518 1.57242 -8.94963
511 1 18.8691 18.8691 9.43453 -8.94963
360 1 14.1518 14.1518 1.57242 -8.94963
361 1 15.7242 12.5794 5.84775e-09 -8.94963
362 1 17.2966 14.1518 1.57242 -8.94963
532 1 20.4415 17.2966 11.007 -8.94963
364 1 20.4415 14.1518 1.57242 -8.94963
510 1 15.7242 18.8691 9.43453 -8.94963
366 1 1.57242 17.2966 1.57242 -8.94963
509 1 12.5794 18.8691 9.43453 -8.94964
368 1 4.71726 17.2966 1.57242 -8.94963
369 1 6.28969 15.7242 6.95596e-10 -8.94963
370 1 7.86211 17.2966 1.57242 -8.94963
371 1 9.43453 15.7242 2.50548e-09 -8.94963
372 1 11.007 17.2966 1.57242 -8.94963
373 1 12.5794 15.7242 7.46428e-09 -8.94963
374 1 14.1518 17.2966 1.57242 -8.94963
508 1 9.43453 18.8691 9.43453 -8.94984
376 1 17.2966 17.2966 1.57242 -8.94963
507 1 6.28969 18.8691 9.43453 -8.94964
378 1 20.4415 17.2966 1.57242 -8.94963
506 1 3.14484 18.8691 9.43453 -8.94963
380 1 1.57242 20.4415 1.57242 -8.94963
381 1 3.14484 18.8691 1.02719e-11 -8.94963
382 1 4.71726 20.4415 1.57242 -8.94963
505 1 4.35275e-11 18.8691 9.43453 -8.94963
384 1 7.86211 20.4415 1.57242 -8.94963
385 1 9.43453 18.8691 1.41383e-10 -8.94963
386 1 11.007 20.4415 1.57242 -8.94963
504 1 18.8691 15.7242 9.43453 -8.94963
388 1 14.1518 20.4415 1.57242 -8.94963
503 1 15.7242 15.7242 9.43453 -8.94968
390 1 17.2966 20.4415 1.57242 -8.94963
502 1 12.5794 15.7242 9.43453 -8.95055
392 1 20.4415 20.4415 1.57242 -8.94963
393 1 1.57242 11.007 4.71726 -8.94963
394 1 4.71727 11.007 4.71727 -8.94971
395 1 7.86212 11.007 4.71724 -8.95082
396 1 11.007 11.007 4.71663 -8.96062
397 1 14.1518 11.007 4.71729 -8.95077
398 1 17.2966 11.007 4.71726 -8.94963
399 1 20.4415 11.007 4.71726 -8.94963
400 1 5.84263e-10 12.5794 3.14484 -8.94963
401 1 1.57242 14.1518 4.71726 -8.94963
402 1 3.14484 12.5794 3.14484 -8.94963
403 1 4.71726 14.1518 4.71726 -8.94963
404 1 6.28969 12.5794 3.14484 -8.94964
405 1 7.86211 14.1518 4.71726 -8.94978
406 1 9.43453 12.5794 3.14484 -8.94944
407 1 11.0069 14.1518 4.71729 -8.95045
408 1 12.5794 12.5794 3.14483 -8.94965
409 1 14.1518 14.1518 4.71726 -8.9494
410 1 15.7242 12.5794 3.14484 -8.94965
411 1 17.2966 14.1518 4.71726 -8.94963
412 1 18.8691 12.5794 3.14484 -8.94963
413 1 20.4415 14.1518 4.71726 -8.94963
414 1 22.0139 15.7242 3.14484 -8.94963
415 1 1.57242 17.2966 4.71726 -8.94963
416 1 3.14484 15.7242 3.14484 -8.94963
417 1 4.71726 17.2966 4.71726 -8.94963
418 1 6.28969 15.7242 3.14484 -8.94963
419 1 7.86211 17.2966 4.71726 -8.94965
420 1 9.43453 15.7242 3.14484 -8.94963
421 1 11.007 17.2966 4.71726 -8.94963
422 1 12.5794 15.7242 3.14484 -8.94965
423 1 14.1518 17.2966 4.71726 -8.94963
424 1 15.7242 15.7242 3.14484 -8.94963
425 1 17.2966 17.2966 4.71726 -8.94963
426 1 18.8691 15.7242 3.14484 -8.94963
427 1 20.4415 17.2966 4.71726 -8.94963
428 1 8.88955e-13 18.8691 3.14484 -8.94963
429 1 1.57242 20.4415 4.71726 -8.94963
430 1 3.14484 18.8691 3.14484 -8.94963
431 1 4.71726 20.4415 4.71726 -8.94963
432 1 6.28969 18.8691 3.14484 -8.94963
433 1 7.86211 20.4415 4.71726 -8.94963
434 1 9.43453 18.8691 3.14484 -8.94963
435 1 11.007 20.4415 4.71726 -8.94963
436 1 12.5794 18.8691 3.14484 -8.94963
437 1 14.1518 20.4415 4.71726 -8.94963
438 1 15.7242 18.8691 3.14484 -8.94963
439 1 17.2966 20.4415 4.71726 -8.94963
440 1 18.8691 18.8691 3.14484 -8.94963
441 1 20.4415 20.4415 4.71726 -8.94963
442 1 1.57242 11.007 7.86211 -8.94965
443 1 4.71722 11.007 7.8621 -8.95044
444 1 7.85903 11.007 7.85909 -8.9496
445 1 11.0323 11.007 7.8116 -7.90787
446 1 14.1521 11.007 7.86206 -8.95526
447 1 17.2966 11.007 7.86211 -8.94971
448 1 20.4415 11.007 7.86211 -8.94963
449 1 22.0139 12.5794 6.28969 -8.94963
450 1 1.57242 14.1518 7.86211 -8.94963
451 1 3.14484 12.5794 6.28969 -8.94964
452 1 4.71726 14.1518 7.86211 -8.94974
453 1 6.28965 12.5794 6.28965 -8.94905
454 1 7.86167 14.1519 7.86179 -8.97776
455 1 9.43434 12.5793 6.28998 -8.99169
456 1 11.0071 14.1516 7.8621 -8.98829
457 1 12.5799 12.5799 6.2892 -8.93452
458 1 14.1518 14.1518 7.86209 -8.9494
459 1 15.7242 12.5794 6.28969 -8.94974
460 1 17.2966 14.1518 7.86211 -8.94963
461 1 18.8691 12.5794 6.28969 -8.94963
462 1 20.4415 14.1518 7.86211 -8.94963
463 1 -2.47793e-10 15.7242 6.28969 -8.94963
464 1 1.57242 17.2966 7.86211 -8.94963
465 1 3.14484 15.7242 6.28969 -8.94963
466 1 4.71726 17.2966 7.86211 -8.94965
467 1 6.28968 15.7242 6.28968 -8.9495
468 1 7.8621 17.2966 7.8621 -8.94954
469 1 9.43453 15.7242 6.28971 -8.95067
470 1 11.007 17.2966 7.8621 -8.94944
471 1 12.5794 15.7242 6.28969 -8.94979
472 1 14.1518 17.2966 7.86211 -8.94963
473 1 15.7242 15.7242 6.28969 -8.94964
474 1 17.2966 17.2966 7.86211 -8.94963
475 1 18.8691 15.7242 6.28969 -8.94963
476 1 20.4415 17.2966 7.86211 -8.94963
477 1 22.0139 18.8691 6.28969 -8.94963
478 1 1.57242 20.4415 7.86211 -8.94963
479 1 3.14484 18.8691 6.28969 -8.94963
480 1 4.71726 20.4415 7.86211 -8.94963
481 1 6.28969 18.8691 6.28969 -8.94963
482 1 7.86211 20.4415 7.86211 -8.94963
483 1 9.43453 18.8691 6.28969 -8.94964
484 1 11.007 20.4415 7.86211 -8.94963
485 1 12.5794 18.8691 6.28969 -8.94963
486 1 14.1518 20.4415 7.86211 -8.94963
487 1 15.7242 18.8691 6.28969 -8.94963
488 1 17.2966 20.4415 7.86211 -8.94963
489 1 18.8691 18.8691 6.28969 -8.94963
490 1 20.4415 20.4415 7.86211 -8.94963
491 1 22.0139 12.5794 9.43453 -8.94963
492 1 3.14484 12.5794 9.43453 -8.94965
493 1 6.28947 12.5794 9.43447 -9.01117
494 1 9.41055 12.6366 9.43007 -8.16825
495 1 12.5814 12.5808 9.43448 -8.96979
496 1 15.7242 12.5794 9.43453 -8.95005
497 1 18.8691 12.5794 9.43453 -8.94964
498 1 22.0139 15.7242 9.43453 -8.94963
499 1 3.14484 15.7242 9.43453 -8.94963
500 1 6.28971 15.7242 9.43453 -8.95093
501 1 9.43452 15.725 9.43455 -8.96187
513 1 4.71706 11.007 11.0069 -8.95278
531 1 17.2966 17.2966 11.007 -8.94963
526 1 1.57242 17.2966 11.007 -8.94963
527 1 4.71726 17.2966 11.007 -8.94965
389 1 15.7242 18.8691 6.39882e-11 -8.94963
534 1 4.71726 20.4415 11.007 -8.94963
365 1 1.70516e-12 15.7242 6.15087e-12 -8.94963
377 1 18.8691 15.7242 4.65685e-11 -8.94963
512 1 1.57242 11.007 11.007 -8.94969
686 1 20.4415 20.4415 20.4415 -8.94963
514 1 7.85056 11.007 11.0132 -9.21199
515 1 11.0398 11.007 11.0598 -8.16603
685 1 18.8691 18.8691 18.8691 -8.94963
517 1 17.2966 11.007 11.007 -8.94975
518 1 20.4415 11.007 11.007 -8.94963
519 1 1.57242 14.1518 11.007 -8.94964
520 1 4.71726 14.1518 11.007 -8.94992
521 1 7.86168 14.1522 11.0075 -8.9913
522 1 11.0071 14.1518 11.0072 -9.00122
523 1 14.1518 14.1518 11.007 -8.94958
524 1 17.2966 14.1518 11.007 -8.94964
525 1 20.4415 14.1518 11.007 -8.94963
391 1 18.8691 18.8691 22.0139 -8.94963
387 1 12.5794 18.8691 22.0139 -8.94963
528 1 7.8621 17.2966 11.007 -8.94959
529 1 11.007 17.2966 11.007 -8.9495
530 1 14.1518 17.2966 11.007 -8.94964
684 1 17.2966 20.4415 20.4415 -8.94963
683 1 15.7242 18.8691 18.8691 -8.94963
533 1 1.57242 20.4415 11.007 -8.94963
383 1 6.28969 18.8691 22.0139 -8.94963
535 1 7.86211 20.4415 11.007 -8.94963
536 1 11.007 20.4415 11.007 -8.94963
537 1 14.1518 20.4415 11.007 -8.94963
682 1 14.1518 20.4415 20.4415 -8.94963
539 1 20.4415 20.4415 11.007 -8.94963
540 1 1.57242 11.007 14.1518 -8.94963
541 1 4.71727 11.007 14.1518 -8.94996
542 1 7.86237 11.007 14.1514 -8.99723
543 1 11.0067 11.007 14.152 -9.00648
544 1 14.1518 11.007 14.1518 -8.95103
545 1 17.2966 11.007 14.1518 -8.94963
546 1 20.4415 11.007 14.1518 -8.94963
547 1 1.39957e-08 12.5794 12.5794 -8.94963
548 1 1.57242 14.1518 14.1518 -8.94963
549 1 3.14484 12.5794 12.5794 -8.94952
550 1 4.71727 14.1518 14.1518 -8.94972
551 1 6.28998 12.5793 12.5792 -8.99279
552 1 7.86209 14.1518 14.1518 -8.94938
553 1 9.43435 12.5805 12.581 -8.98126
554 1 11.007 14.1518 14.1518 -8.95005
555 1 12.5795 12.5798 12.5797 -8.9778
556 1 14.1518 14.1518 14.1518 -8.9495
557 1 15.7242 12.5794 12.5794 -8.94962
558 1 17.2966 14.1518 14.1518 -8.94963
559 1 18.8691 12.5794 12.5794 -8.94963
560 1 20.4415 14.1518 14.1518 -8.94963
561 1 22.0139 15.7242 12.5794 -8.94963
562 1 1.57242 17.2966 14.1518 -8.94963
563 1 3.14484 15.7242 12.5794 -8.94963
564 1 4.71726 17.2966 14.1518 -8.94963
565 1 6.28968 15.7242 12.5794 -8.94943
566 1 7.86211 17.2966 14.1518 -8.94965
567 1 9.43453 15.7242 12.5794 -8.9507
568 1 11.007 17.2966 14.1518 -8.94964
569 1 12.5794 15.7242 12.5794 -8.94971
570 1 14.1518 17.2966 14.1518 -8.94963
571 1 15.7242 15.7242 12.5794 -8.94963
572 1 17.2966 17.2966 14.1518 -8.94963
573 1 18.8691 15.7242 12.5794 -8.94963
574 1 20.4415 17.2966 14.1518 -8.94963
575 1 3.45544e-10 18.8691 12.5794 -8.94963
576 1 1.57242 20.4415 14.1518 -8.94963
577 1 3.14484 18.8691 12.5794 -8.94963
578 1 4.71726 20.4415 14.1518 -8.94963
579 1 6.28969 18.8691 12.5794 -8.94963
580 1 7.86211 20.4415 14.1518 -8.94963
581 1 9.43453 18.8691 12.5794 -8.94964
582 1 11.007 20.4415 14.1518 -8.94963
583 1 12.5794 18.8691 12.5794 -8.94963
584 1 14.1518 20.4415 14.1518 -8.94963
585 1 15.7242 18.8691 12.5794 -8.94963
586 1 17.2966 20.4415 14.1518 -8.94963
587 1 18.8691 18.8691 12.5794 -8.94963
588 1 20.4415 20.4415 14.1518 -8.94963
589 1 1.57242 11.007 17.2966 -8.94963
590 1 4.71726 11.007 17.2966 -8.94962
591 1 7.86211 11.007 17.2966 -8.94953
592 1 11.007 11.007 17.2966 -8.94968
593 1 14.1518 11.007 17.2966 -8.94962
594 1 17.2966 11.007 17.2966 -8.94963
595 1 20.4415 11.007 17.2966 -8.94963
596 1 22.0139 12.5794 15.7242 -8.94963
597 1 1.57242 14.1518 17.2966 -8.94963
598 1 3.14484 12.5794 15.7242 -8.94963
599 1 4.71726 14.1518 17.2966 -8.94963
600 1 6.28969 12.5794 15.7242 -8.94971
601 1 7.86211 14.1518 17.2966 -8.94963
602 1 9.43453 12.5794 15.7242 -8.95002
603 1 11.007 14.1518 17.2966 -8.94963
604 1 12.5794 12.5794 15.7242 -8.94973
605 1 14.1518 14.1518 17.2966 -8.94963
606 1 15.7242 12.5794 15.7242 -8.94965
607 1 17.2966 14.1518 17.2966 -8.94963
608 1 18.8691 12.5794 15.7242 -8.94963
609 1 20.4415 14.1518 17.2966 -8.94963
610 1 1.19294e-09 15.7242 15.7242 -8.94963
611 1 1.57242 17.2966 17.2966 -8.94963
612 1 3.14484 15.7242 15.7242 -8.94963
613 1 4.71726 17.2966 17.2966 -8.94963
614 1 6.28969 15.7242 15.7242 -8.94962
615 1 7.86211 17.2966 17.2966 -8.94963
616 1 9.43453 15.7242 15.7242 -8.94967
617 1 11.007 17.2966 17.2966 -8.94963
618 1 12.5794 15.7242 15.7242 -8.94964
619 1 14.1518 17.2966 17.2966 -8.94963
620 1 15.7242 15.7242 15.7242 -8.94963
621 1 17.2966 17.2966 17.2966 -8.94963
622 1 18.8691 15.7242 15.7242 -8.94963
623 1 20.4415 17.2966 17.2966 -8.94963
624 1 22.0139 18.8691 15.7242 -8.94963
625 1 1.57242 20.4415 17.2966 -8.94963
626 1 3.14484 18.8691 15.7242 -8.94963
627 1 4.71726 20.4415 17.2966 -8.94963
628 1 6.28969 18.8691 15.7242 -8.94963
629 1 7.86211 20.4415 17.2966 -8.94963
630 1 9.43453 18.8691 15.7242 -8.94963
631 1 11.007 20.4415 17.2966 -8.94963
632 1 12.5794 18.8691 15.7242 -8.94963
633 1 14.1518 20.4415 17.2966 -8.94963
634 1 15.7242 18.8691 15.7242 -8.94963
635 1 17.2966 20.4415 17.2966 -8.94963
636 1 18.8691 18.8691 15.7242 -8.94963
637 1 20.4415 20.4415 17.2966 -8.94963
638 1 1.57242 11.007 20.4415 -8.94963
639 1 4.71726 11.007 20.4415 -8.94963
640 1 7.86211 11.007 20.4415 -8.94963
641 1 11.007 11.007 20.4415 -8.94963
642 1 14.1518 11.007 20.4415 -8.94963
643 1 17.2966 11.007 20.4415 -8.94963
644 1 20.4415 11.007 20.4415 -8.94963
645 1 2.85218e-10 12.5794 18.8691 -8.94963
646 1 1.57242 14.1518 20.4415 -8.94963
647 1 3.14484 12.5794 18.8691 -8.94963
648 1 4.71726 14.1518 20.4415 -8.94963
649 1 6.28969 12.5794 18.8691 -8.94963
650 1 7.86211 14.1518 20.4415 -8.94963
651 1 9.43453 12.5794 18.8691 -8.94964
652 1 11.007 14.1518 20.4415 -8.94963
653 1 12.5794 12.5794 18.8691 -8.94963
654 1 14.1518 14.1518 20.4415 -8.94963
655 1 15.7242 12.5794 18.8691 -8.94963
656 1 17.2966 14.1518 20.4415 -8.94963
657 1 18.8691 12.5794 18.8691 -8.94963
658 1 20.4415 14.1518 20.4415 -8.94963
659 1 22.0139 15.7242 18.8691 -8.94963
660 1 1.57242 17.2966 20.4415 -8.94963
661 1 3.14484 15.7242 18.8691 -8.94963
662 1 4.71726 17.2966 20.4415 -8.94963
663 1 6.28969 15.7242 18.8691 -8.94963
664 1 7.86211 17.2966 20.4415 -8.94963
665 1 9.43453 15.7242 18.8691 -8.94963
666 1 11.007 17.2966 20.4415 -8.94963
667 1 12.5794 15.7242 18.8691 -8.94963
668 1 14.1518 17.2966 20.4415 -8.94963
669 1 15.7242 15.7242 18.8691 -8.94963
670 1 17.2966 17.2966 20.4415 -8.94963
671 1 18.8691 15.7242 18.8691 -8.94963
672 1 20.4415 17.2966 20.4415 -8.94963
673 1 4.00431e-12 18.8691 18.8691 -8.94963
674 1 1.57242 20.4415 20.4415 -8.94963
675 1 3.14484 18.8691 18.8691 -8.94963
676 1 4.71726 20.4415 20.4415 -8.94963
677 1 6.28969 18.8691 18.8691 -8.94963
678 1 7.86211 20.4415 20.4415 -8.94963
679 1 9.43453 18.8691 18.8691 -8.94963
680 1 11.007 20.4415 20.4415 -8.94963
681 1 12.5794 18.8691 18.8691 -8.94963
351 1 22.0139 12.5794 22.0139 -8.94963
355 1 6.28969 12.5794 22.0139 -8.94963
359 1 12.5794 12.5794 22.0139 -8.94963
379 1 22.0139 18.8691 22.0139 -8.94963
367 1 3.14484 15.7242 22.0139 -8.94963
375 1 15.7242 15.7242 22.0139 -8.94963
357 1 9.43453 12.5794 22.0139 -8.94963
363 1 18.8691 12.5794 22.0139 -8.94963
516 1 14.1523 11.007 11.007 -8.95705
