ITEM: TIMESTEP
64
ITEM: NUMBER OF ATOMS
688
ITEM: BOX BOUNDS pp pp pp
0.0000000000000000e+00 2.2013900999999997e+01
0.0000000000000000e+00 2.2013900999999997e+01
0.0000000000000000e+00 2.2013900999999997e+01
ITEM: ATOMS id type x y z c_pot
1 1 -6.32019e-05 -5.23966e-16 -5.51909e-05 -8.94945
2 1 1.57217 1.57225 1.57217 -8.94927
189 1 20.4414 4.71688 11.007 -8.94956
4 1 4.71714 1.57222 1.57216 -8.94969
175 1 18.8696 9.43415 9.4345 -8.948
6 1 7.86207 1.5722 1.57214 -8.94954
174 1 15.723 9.43477 9.43443 -8.9402
8 1 11.007 1.57218 1.57213 -8.94957
173 1 12.5596 9.44314 9.4317 -8.95925
10 1 14.1519 1.57219 1.57219 -8.94954
172 1 9.35661 9.18383 9.42733 -8.33716
12 1 17.2969 1.57214 1.57217 -8.94949
188 1 17.2973 4.7165 11.0069 -8.94901
14 1 20.4415 1.57233 1.57235 -8.94963
171 1 6.27621 9.42563 9.43197 -9.02119
16 1 1.5722 4.71712 1.57213 -8.94977
17 1 3.14459 3.14459 -0.000269561 -8.94953
18 1 4.71648 4.7165 1.57119 -8.94953
170 1 3.1399 9.43405 9.43364 -8.9502
20 1 7.8619 4.71659 1.57148 -8.94916
21 1 9.4345 3.14453 -0.000230084 -8.94957
22 1 11.007 4.71649 1.57153 -8.94939
169 1 22.0127 9.4344 9.43437 -8.94977
24 1 14.1521 4.71644 1.57155 -8.94978
168 1 18.8697 6.28897 9.43451 -8.94952
26 1 17.2976 4.71632 1.57156 -8.94831
167 1 15.726 6.28782 9.43442 -8.94631
28 1 20.4417 4.71705 1.57219 -8.94956
166 1 12.5779 6.29131 9.4345 -8.94578
30 1 1.57221 7.86205 1.57211 -8.94946
165 1 9.42982 6.29162 9.43438 -9.00876
32 1 4.71689 7.86224 1.57172 -8.94969
33 1 6.28936 6.28941 -0.000705588 -8.95051
34 1 7.86182 7.86194 1.57046 -8.95228
35 1 9.4343 6.28913 -0.000686171 -8.9496
36 1 11.0066 7.86129 1.57009 -8.95039
37 1 12.5794 6.28917 -0.000697091 -8.94965
38 1 14.1531 7.86076 1.56926 -8.9515
164 1 6.2798 6.28025 9.43446 -8.94334
40 1 17.2976 7.86163 1.57151 -8.9493
163 1 3.14096 6.28758 9.43449 -8.94916
42 1 20.4417 7.86199 1.57215 -8.94951
162 1 22.013 6.28914 9.43452 -8.94987
44 1 3.14458 9.4345 -0.000268903 -8.94958
161 1 18.8693 3.14451 9.43452 -8.9496
181 1 17.2969 1.57219 11.007 -8.94958
160 1 15.7248 3.14408 9.43449 -8.94963
48 1 15.725 9.43427 -0.000884429 -8.94939
159 1 12.5797 3.14443 9.43448 -8.94837
50 1 22.0138 -2.67686e-16 3.14478 -8.94963
51 1 1.57212 1.5722 4.71709 -8.94959
52 1 3.14449 -7.48147e-16 3.14448 -8.94957
53 1 4.71663 1.57156 4.71659 -8.95
54 1 6.28962 -2.25572e-16 3.14453 -8.94958
55 1 7.86211 1.57171 4.71674 -8.94958
56 1 9.43456 9.46055e-16 3.14448 -8.94957
57 1 11.0072 1.57172 4.71674 -8.94955
58 1 12.5795 1.71349e-15 3.14453 -8.94951
59 1 14.1522 1.57165 4.71696 -8.95052
60 1 15.7245 1.33309e-15 3.14461 -8.94993
61 1 17.2968 1.57225 4.71728 -8.9497
62 1 18.8691 8.52297e-16 3.14483 -8.9497
63 1 20.4415 1.57233 4.71722 -8.94958
64 1 -0.000277581 3.1446 3.14461 -8.94955
65 1 1.57122 4.71651 4.7165 -8.94958
66 1 3.14387 3.14393 3.14385 -8.94829
67 1 4.71367 4.7137 4.71361 -8.94463
68 1 6.28938 3.14399 3.14402 -8.94968
69 1 7.86141 4.71463 4.71517 -8.94915
70 1 9.43452 3.14395 3.14407 -8.9494
71 1 11.0073 4.71475 4.71535 -8.94787
72 1 12.5796 3.14391 3.14417 -8.9492
73 1 14.1543 4.71315 4.71491 -8.94975
74 1 15.7251 3.14357 3.14404 -8.94938
75 1 17.2974 4.7165 4.71705 -8.95025
76 1 18.8693 3.14457 3.14471 -8.94979
77 1 20.4414 4.71698 4.71711 -8.94976
78 1 22.0139 6.28953 3.14455 -8.94978
79 1 1.57166 7.86206 4.71668 -8.94976
80 1 3.144 6.28939 3.14395 -8.95012
81 1 4.71495 7.86185 4.71523 -8.95097
82 1 6.28746 6.28759 3.14089 -8.9502
83 1 7.85678 7.85694 4.70758 -8.95454
84 1 9.43408 6.28782 3.14221 -8.94776
85 1 11.0071 7.85816 4.70943 -8.95222
86 1 12.5801 6.28767 3.14202 -8.94951
87 1 14.1641 7.85044 4.70518 -8.92918
88 1 15.7278 6.28613 3.14138 -8.94448
89 1 17.3003 7.86036 4.71556 -8.95081
90 1 18.8702 6.289 3.14417 -8.94966
91 1 20.4421 7.86183 4.7169 -8.95014
92 1 -4.74153e-05 9.43445 3.14444 -8.94955
93 1 3.14405 9.43448 3.14391 -8.94898
94 1 6.28915 9.43526 3.14353 -8.94954
95 1 9.43497 9.43472 3.14348 -8.95063
96 1 12.5819 9.43333 3.13689 -8.95941
97 1 15.7273 9.43339 3.14176 -8.94766
98 1 18.8702 9.43428 3.14411 -8.94931
99 1 -0.000111484 4.32933e-16 6.28965 -8.94962
100 1 1.57208 1.57217 7.86205 -8.94958
101 1 3.14444 -1.43412e-16 6.2895 -8.94948
102 1 4.71653 1.57152 7.86185 -8.94943
103 1 6.28941 -4.97341e-16 6.28933 -8.95059
104 1 7.86205 1.57101 7.86198 -8.95121
105 1 9.43474 1.48138e-15 6.28937 -8.95006
106 1 11.0071 1.57185 7.86215 -8.94949
107 1 12.5795 1.60275e-15 6.28961 -8.95036
108 1 14.1521 1.57207 7.86219 -8.94942
109 1 15.7244 1.68753e-15 6.28971 -8.94955
110 1 17.2969 1.57219 7.86208 -8.94957
111 1 18.8691 1.67367e-15 6.28966 -8.94958
112 1 20.4415 1.57231 7.86209 -8.94961
113 1 22.0136 3.14455 6.28957 -8.94952
114 1 1.57123 4.71645 7.86185 -8.94936
115 1 3.14387 3.14386 6.28919 -8.94934
116 1 4.71419 4.71411 7.86091 -8.94792
117 1 6.28836 3.1417 6.28831 -8.95153
118 1 7.85949 4.71002 7.86064 -8.95831
119 1 9.43483 3.14264 6.28883 -8.95026
120 1 11.0068 4.71558 7.86192 -8.95142
121 1 12.5798 3.14275 6.2894 -8.95241
122 1 14.1523 4.71636 7.86282 -8.9491
123 1 15.7246 3.14427 6.28987 -8.94965
124 1 17.2973 4.7165 7.86209 -8.94899
125 1 18.8692 3.14457 6.28965 -8.94946
126 1 20.4414 4.71688 7.86203 -8.94956
127 1 -0.000823171 6.28924 6.28932 -8.95004
128 1 1.56967 7.86148 7.8615 -8.95145
129 1 3.1409 6.28771 6.28765 -8.95044
130 1 4.70618 7.85803 7.85871 -8.9573
131 1 6.27741 6.27787 6.27791 -8.9299
132 1 7.81932 7.82822 7.82795 -8.88273
133 1 9.43398 6.28251 6.28546 -8.95149
134 1 11.0247 7.85501 7.83766 -8.94353
135 1 12.5857 6.27935 6.2833 -8.95286
136 1 14.1561 7.86098 7.86428 -8.95299
137 1 15.7264 6.28815 6.28966 -8.95142
138 1 17.2983 7.86145 7.86272 -8.94989
139 1 18.8696 6.28924 6.2897 -8.94976
140 1 20.4414 7.86176 7.86205 -8.94994
141 1 22.0136 9.43451 6.28931 -8.94995
142 1 3.14266 9.43505 6.28855 -8.95004
143 1 6.2843 9.43678 6.28669 -8.95093
144 1 9.42012 9.4143 6.28499 -8.95352
145 1 12.6213 9.40078 6.25192 -8.8496
146 1 15.7343 9.43214 6.28621 -8.95823
147 1 18.8712 9.43427 6.2894 -8.95172
148 1 -0.000123182 6.37763e-16 9.43453 -8.94962
149 1 3.1444 3.05328e-16 9.43453 -8.94953
150 1 6.28919 -4.39489e-16 9.43451 -8.95022
151 1 9.43477 1.32044e-15 9.4345 -8.9488
152 1 12.5797 1.67788e-15 9.43451 -8.9493
153 1 15.7245 1.40426e-15 9.43451 -8.94969
154 1 18.8692 1.18085e-15 9.43453 -8.94962
155 1 -0.000286268 3.14453 9.43453 -8.94956
156 1 3.14383 3.14385 9.43452 -8.94949
157 1 6.28796 3.14158 9.43448 -8.94961
158 1 9.43459 3.14374 9.43442 -8.9471
177 1 4.71652 1.57152 11.0072 -8.9494
183 1 1.57123 4.71646 11.0072 -8.94929
184 1 4.71418 4.71413 11.008 -8.94752
5 1 6.28965 7.69282e-16 -9.07674e-05 -8.94959
41 1 18.8693 6.28952 -0.000204064 -8.94959
7 1 9.43452 1.47071e-15 -0.000105509 -8.94961
9 1 12.5794 1.90054e-15 -9.91568e-05 -8.9496
29 1 2.71492e-06 6.28964 -9.40544e-05 -8.94958
25 1 15.7244 3.14457 -0.000196925 -8.9497
176 1 1.57208 1.57217 11.007 -8.94957
47 1 12.5794 9.43445 22.0124 -8.95142
178 1 7.86205 1.57093 11.007 -8.9513
179 1 11.0071 1.57179 11.0068 -8.94951
180 1 14.1521 1.57203 11.0068 -8.94944
343 1 18.8694 9.43447 18.8693 -8.94957
182 1 20.4415 1.57231 11.007 -8.94961
45 1 6.28941 9.43462 22.0135 -8.94954
43 1 22.0139 9.43451 22.0138 -8.94961
185 1 7.85954 4.7095 11.0082 -8.95875
186 1 11.0067 4.71528 11.0069 -8.95134
187 1 14.1524 4.71621 11.0061 -8.94886
342 1 15.725 9.43429 18.87 -8.94937
341 1 12.5794 9.43449 18.8705 -8.95134
190 1 1.56982 7.86166 11.0072 -8.9514
191 1 4.70664 7.85874 11.0093 -8.95818
192 1 7.81993 7.82561 11.0428 -8.90446
193 1 11.023 7.85404 11.0315 -8.95839
194 1 14.1558 7.86091 11.0038 -8.95264
195 1 17.2983 7.86143 11.0062 -8.94973
196 1 20.4415 7.86177 11.0069 -8.94987
197 1 22.0138 -8.75646e-16 12.5794 -8.94962
198 1 1.57212 1.5722 14.152 -8.9496
199 1 3.14443 -1.47115e-15 12.5795 -8.94947
200 1 4.71662 1.57153 14.1525 -8.95003
201 1 6.28939 -3.49737e-16 12.5797 -8.95063
202 1 7.86208 1.5716 14.1523 -8.94968
203 1 9.43474 8.48058e-16 12.5797 -8.95017
204 1 11.0072 1.57158 14.1524 -8.94968
205 1 12.5796 1.38276e-15 12.5794 -8.95043
206 1 14.1522 1.5716 14.1521 -8.95056
207 1 15.7244 6.76692e-16 12.5793 -8.94954
208 1 17.2968 1.57224 14.1518 -8.94969
209 1 18.8691 2.27317e-16 12.5794 -8.94959
210 1 20.4415 1.57233 14.1518 -8.94957
211 1 -0.000279696 3.14455 12.5795 -8.9495
212 1 1.57125 4.71651 14.1525 -8.94975
213 1 3.14388 3.14386 12.5798 -8.94932
214 1 4.71355 4.71346 14.1555 -8.94461
215 1 6.28833 3.14153 12.5807 -8.95168
216 1 7.86128 4.71402 14.1541 -8.94934
217 1 9.43485 3.14227 12.5802 -8.95054
218 1 11.0075 4.71401 14.154 -8.94803
219 1 12.5798 3.14253 12.5796 -8.95262
220 1 14.1544 4.71286 14.1542 -8.94988
221 1 15.7246 3.14423 12.5792 -8.94959
222 1 17.2974 4.71649 14.152 -8.9503
223 1 18.8692 3.14457 12.5794 -8.94946
224 1 20.4414 4.71699 14.1519 -8.94978
225 1 22.0132 6.28928 12.5797 -8.9501
226 1 1.5713 7.86175 14.1526 -8.94949
227 1 3.14104 6.28776 12.5811 -8.95112
228 1 4.71425 7.86109 14.1543 -8.95011
229 1 6.27707 6.2769 12.5913 -8.93031
230 1 7.85568 7.85484 14.1635 -8.95179
231 1 9.43412 6.28078 12.5843 -8.95181
232 1 11.0079 7.85569 14.1618 -8.9488
233 1 12.5857 6.2783 12.5857 -8.95423
234 1 14.1649 7.84953 14.1645 -8.92805
235 1 15.7263 6.28811 12.5792 -8.95153
236 1 17.3004 7.86028 14.1535 -8.95107
237 1 18.8697 6.28924 12.5793 -8.94971
238 1 20.442 7.86176 14.1522 -8.95021
239 1 -0.000667877 9.43436 12.5798 -8.95008
240 1 3.14129 9.43409 12.5811 -8.94841
241 1 6.28297 9.433 12.5832 -8.97944
242 1 9.41965 9.40785 12.5942 -8.9499
243 1 12.6213 9.39585 12.6179 -8.87781
244 1 15.7342 9.43193 12.5828 -8.95847
245 1 18.8712 9.43425 12.5796 -8.95179
246 1 22.0138 -5.87186e-16 15.7243 -8.94964
247 1 1.57216 1.57224 17.2969 -8.94928
248 1 3.14448 -9.03918e-16 15.7246 -8.94959
249 1 4.71711 1.57219 17.2969 -8.94967
250 1 6.28959 -4.15404e-16 15.7246 -8.94961
251 1 7.86205 1.57215 17.297 -8.94952
252 1 9.43455 1.1074e-15 15.7246 -8.94959
253 1 11.007 1.57213 17.297 -8.94956
254 1 12.5795 1.15019e-15 15.7246 -8.94955
255 1 14.1519 1.57215 17.2969 -8.94952
256 1 15.7245 9.86601e-16 15.7245 -8.94995
257 1 17.2969 1.57212 17.2969 -8.9495
258 1 18.8691 -4.85961e-16 15.7242 -8.94969
259 1 20.4415 1.57233 17.2967 -8.94964
260 1 22.0136 3.1446 15.7244 -8.94959
261 1 1.57215 4.71707 17.297 -8.94969
262 1 3.14384 3.14388 15.7252 -8.94829
263 1 4.71637 4.7164 17.298 -8.94933
264 1 6.2893 3.14383 15.7251 -8.94968
265 1 7.86183 4.71644 17.2978 -8.94907
266 1 9.4345 3.14374 15.7251 -8.94935
267 1 11.007 4.71633 17.2977 -8.94935
268 1 12.5797 3.14371 15.725 -8.94916
269 1 14.1523 4.71631 17.2977 -8.94954
270 1 15.7251 3.14349 15.7251 -8.94942
271 1 17.2977 4.71624 17.2976 -8.94818
272 1 18.8693 3.14457 15.7243 -8.94982
273 1 20.4417 4.71701 17.2969 -8.94954
274 1 -0.000118549 6.28944 15.7246 -8.9497
275 1 1.57224 7.86208 17.297 -8.94955
276 1 3.14378 6.28921 15.7253 -8.94983
277 1 4.71693 7.86229 17.2974 -8.94997
278 1 6.28703 6.2871 15.7287 -8.94936
279 1 7.86174 7.86178 17.2991 -8.95269
280 1 9.434 6.28725 15.7275 -8.94714
281 1 11.0067 7.86104 17.2995 -8.95077
282 1 12.5805 6.28708 15.7276 -8.94859
283 1 14.1531 7.8608 17.2999 -8.95183
284 1 15.7281 6.28585 15.7279 -8.94418
285 1 17.2976 7.86166 17.2976 -8.9493
286 1 18.8702 6.28894 15.7249 -8.94971
287 1 20.4417 7.862 17.2969 -8.9495
288 1 22.0139 9.43446 15.7246 -8.9495
289 1 3.1442 9.43458 15.7251 -8.9493
290 1 6.28947 9.43548 15.7253 -8.95042
291 1 9.43517 9.43474 15.7268 -8.95433
292 1 12.5816 9.43343 15.7319 -8.96021
293 1 15.7272 9.43346 15.7273 -8.94761
294 1 18.8702 9.43429 15.725 -8.94926
295 1 -6.63806e-05 -2.79518e-16 18.8691 -8.94946
296 1 1.57233 1.57233 20.4415 -8.94952
297 1 3.14477 1.88559e-16 18.8692 -8.94967
298 1 4.71722 1.57234 20.4415 -8.9496
299 1 6.28964 9.70795e-16 18.8692 -8.94958
300 1 7.86208 1.57231 20.4415 -8.9496
301 1 9.43452 1.41524e-15 18.8692 -8.9496
302 1 11.007 1.5723 20.4415 -8.94961
303 1 12.5794 1.47062e-15 18.8692 -8.9496
304 1 14.1518 1.57232 20.4415 -8.94959
305 1 15.7243 1.40385e-15 18.8692 -8.9496
306 1 17.2967 1.57233 20.4415 -8.94967
307 1 18.8692 7.59237e-16 18.8692 -8.94951
308 1 20.4415 1.57236 20.4415 -8.94944
309 1 -1.03599e-05 3.14476 18.8692 -8.9496
310 1 1.57236 4.71723 20.4415 -8.9497
311 1 3.14457 3.14457 18.8694 -8.94949
312 1 4.71701 4.71702 20.4415 -8.94993
313 1 6.28957 3.14457 18.8693 -8.94951
314 1 7.86196 4.71691 20.4415 -8.9495
315 1 9.4345 3.1445 18.8694 -8.94957
316 1 11.0069 4.71687 20.4415 -8.94955
317 1 12.5794 3.14452 18.8693 -8.94953
318 1 14.1519 4.71692 20.4415 -8.94959
319 1 15.7244 3.14455 18.8693 -8.94965
320 1 17.297 4.71691 20.4415 -8.94958
321 1 18.8693 3.14459 18.8692 -8.94924
322 1 20.4416 4.7172 20.4415 -8.94964
323 1 22.0139 6.28965 18.8692 -8.9496
324 1 1.57232 7.86208 20.4415 -8.94959
325 1 3.14467 6.28967 18.8693 -8.94977
326 1 4.71707 7.86213 20.4415 -8.94961
327 1 6.28931 6.28935 18.8699 -8.95051
328 1 7.86195 7.86204 20.4416 -8.95038
329 1 9.43429 6.28906 18.87 -8.94956
330 1 11.0067 7.86179 20.4416 -8.95023
331 1 12.5795 6.28909 18.87 -8.94962
332 1 14.1521 7.86178 20.4415 -8.9506
333 1 15.7249 6.28902 18.8699 -8.95005
334 1 17.297 7.86193 20.4415 -8.94945
335 1 18.8693 6.28953 18.8693 -8.9496
336 1 20.4416 7.86207 20.4415 -8.94961
337 1 -7.72379e-06 9.43451 18.8692 -8.94961
338 1 3.14459 9.43452 18.8693 -8.94957
339 1 6.28941 9.43465 18.8695 -8.94945
340 1 9.4344 9.43468 18.8698 -8.94977
39 1 15.7248 6.28903 22.0131 -8.94997
31 1 3.14467 6.28967 22.0137 -8.94971
27 1 18.8693 3.14461 22.0137 -8.94929
11 1 15.7243 1.71238e-15 22.0138 -8.94962
15 1 22.0139 3.14477 22.0138 -8.94962
19 1 6.28959 3.1446 22.0137 -8.94952
23 1 12.5794 3.14455 22.0137 -8.94953
3 1 3.14478 -8.27133e-17 22.0138 -8.94968
13 1 18.8691 1.35822e-15 22.0138 -8.94951
46 1 9.43438 9.43461 22.0134 -8.94936
49 1 18.8694 9.43447 22.0137 -8.94958
344 1 1.57217 11.007 1.57205 -8.94962
345 1 4.71667 11.007 1.57149 -8.94967
346 1 7.86192 11.007 1.57195 -8.94855
347 1 11.0068 11.007 1.57138 -8.94659
348 1 14.1536 11.007 1.56905 -8.94948
349 1 17.2976 11.007 1.57149 -8.94951
350 1 20.4417 11.007 1.57213 -8.94956
688 3 10.2253 11.007 9.4355 2.20651
352 1 1.57221 14.1518 1.57211 -8.94946
353 1 3.14458 12.5794 -0.000268903 -8.94958
354 1 4.71689 14.1517 1.57172 -8.94969
687 2 9.50194 11.007 10.1894 -0.010242
356 1 7.86182 14.152 1.57046 -8.95228
538 1 17.2969 20.4417 11.007 -8.94958
358 1 11.0066 14.1526 1.57009 -8.95039
511 1 18.8693 18.8694 9.43452 -8.9496
360 1 14.1531 14.1531 1.56926 -8.9515
361 1 15.725 12.5796 -0.000884429 -8.94939
362 1 17.2976 14.1523 1.57151 -8.9493
532 1 20.4414 17.297 11.007 -8.94956
364 1 20.4417 14.1519 1.57215 -8.94951
510 1 15.7248 18.8698 9.43449 -8.94963
366 1 1.5722 17.2968 1.57213 -8.94977
509 1 12.5797 18.8695 9.43448 -8.94837
368 1 4.71648 17.2974 1.57119 -8.94953
369 1 6.28936 15.7245 -0.000705588 -8.95051
370 1 7.8619 17.2973 1.57148 -8.94916
371 1 9.4343 15.7248 -0.000686171 -8.9496
372 1 11.007 17.2974 1.57153 -8.94939
373 1 12.5794 15.7247 -0.000697091 -8.94965
374 1 14.1521 17.2975 1.57155 -8.94978
508 1 9.43459 18.8702 9.43442 -8.9471
376 1 17.2976 17.2976 1.57156 -8.94831
507 1 6.28796 18.8723 9.43448 -8.94961
378 1 20.4417 17.2969 1.57219 -8.94956
506 1 3.14383 18.8701 9.43452 -8.94949
380 1 1.57217 20.4416 1.57217 -8.94927
381 1 3.14459 18.8693 -0.000269561 -8.94953
382 1 4.71714 20.4417 1.57216 -8.94969
505 1 -0.000286268 18.8694 9.43453 -8.94956
384 1 7.86207 20.4417 1.57214 -8.94954
385 1 9.4345 18.8694 -0.000230084 -8.94957
386 1 11.007 20.4417 1.57213 -8.94957
504 1 18.8697 15.7249 9.43451 -8.94952
388 1 14.1519 20.4417 1.57219 -8.94954
503 1 15.726 15.7261 9.43442 -8.94631
390 1 17.2969 20.4418 1.57217 -8.94949
502 1 12.5779 15.7226 9.4345 -8.94578
392 1 20.4415 20.4416 1.57235 -8.94963
393 1 1.57154 11.007 4.7164 -8.94947
394 1 4.71511 11.007 4.71483 -8.94568
395 1 7.86389 11.007 4.71851 -8.94741
396 1 11.0119 11.007 4.72036 -9.00467
397 1 14.1618 11.007 4.70759 -8.94172
398 1 17.3004 11.007 4.71533 -8.94902
399 1 20.4422 11.007 4.71678 -8.94992
400 1 -4.74153e-05 12.5795 3.14444 -8.94955
401 1 1.57166 14.1518 4.71668 -8.94976
402 1 3.14405 12.5794 3.14391 -8.94898
403 1 4.71495 14.152 4.71523 -8.95097
404 1 6.28915 12.5786 3.14353 -8.94954
405 1 7.85678 14.157 4.70758 -8.95454
406 1 9.43497 12.5792 3.14348 -8.95063
407 1 11.0071 14.1557 4.70943 -8.95222
408 1 12.5819 12.5806 3.13689 -8.95941
409 1 14.1641 14.1635 4.70518 -8.92918
410 1 15.7273 12.5805 3.14176 -8.94766
411 1 17.3003 14.1535 4.71556 -8.95081
412 1 18.8702 12.5796 3.14411 -8.94931
413 1 20.4421 14.1521 4.7169 -8.95014
414 1 22.0139 15.7244 3.14455 -8.94978
415 1 1.57122 17.2974 4.7165 -8.94958
416 1 3.144 15.7245 3.14395 -8.95012
417 1 4.71367 17.3002 4.71361 -8.94463
418 1 6.28746 15.7263 3.14089 -8.9502
419 1 7.86141 17.2993 4.71517 -8.94915
420 1 9.43408 15.7261 3.14221 -8.94776
421 1 11.0073 17.2991 4.71535 -8.94787
422 1 12.5801 15.7262 3.14202 -8.94951
423 1 14.1543 17.3007 4.71491 -8.94975
424 1 15.7278 15.7278 3.14138 -8.94448
425 1 17.2974 17.2974 4.71705 -8.95025
426 1 18.8702 15.7249 3.14417 -8.94966
427 1 20.4414 17.2969 4.71711 -8.94976
428 1 -0.000277581 18.8693 3.14461 -8.94955
429 1 1.57212 20.4417 4.71709 -8.94959
430 1 3.14387 18.87 3.14385 -8.94829
431 1 4.71663 20.4423 4.71659 -8.95
432 1 6.28938 18.8699 3.14402 -8.94968
433 1 7.86211 20.4422 4.71674 -8.94958
434 1 9.43452 18.8699 3.14407 -8.9494
435 1 11.0072 20.4422 4.71674 -8.94955
436 1 12.5796 18.87 3.14417 -8.9492
437 1 14.1522 20.4422 4.71696 -8.95052
438 1 15.7251 18.8703 3.14404 -8.94938
439 1 17.2968 20.4417 4.71728 -8.9497
440 1 18.8693 18.8693 3.14471 -8.94979
441 1 20.4415 20.4416 4.71722 -8.94958
442 1 1.5711 11.007 7.86154 -8.94796
443 1 4.7165 11.007 7.86176 -8.94169
444 1 7.87456 11.007 7.86619 -8.93245
445 1 11.0907 11.007 7.62438 -8.16281
446 1 14.1612 11.007 7.85453 -8.97284
447 1 17.2994 11.007 7.86252 -8.95129
448 1 20.4419 11.007 7.86211 -8.94965
449 1 22.0136 12.5794 6.28931 -8.94995
450 1 1.56967 14.1524 7.8615 -8.95145
451 1 3.14266 12.5789 6.28855 -8.95004
452 1 4.70618 14.1559 7.85871 -8.9573
453 1 6.2843 12.5771 6.28669 -8.95093
454 1 7.81932 14.1857 7.82795 -8.88273
455 1 9.42012 12.5996 6.28499 -8.95352
456 1 11.0247 14.1589 7.83766 -8.94353
457 1 12.6213 12.6131 6.25192 -8.8496
458 1 14.1561 14.1529 7.86428 -8.95299
459 1 15.7343 12.5818 6.28621 -8.95823
460 1 17.2983 14.1525 7.86272 -8.94989
461 1 18.8712 12.5796 6.2894 -8.95172
462 1 20.4414 14.1521 7.86205 -8.94994
463 1 -0.000823171 15.7247 6.28932 -8.95004
464 1 1.57123 17.2975 7.86185 -8.94936
465 1 3.1409 15.7262 6.28765 -8.95044
466 1 4.71419 17.2998 7.86091 -8.94792
467 1 6.27741 15.736 6.27791 -8.9299
468 1 7.85949 17.3039 7.86064 -8.95831
469 1 9.43398 15.7314 6.28546 -8.95149
470 1 11.0068 17.2983 7.86192 -8.95142
471 1 12.5857 15.7345 6.2833 -8.95286
472 1 14.1523 17.2975 7.86282 -8.9491
473 1 15.7264 15.7258 6.28966 -8.95142
474 1 17.2973 17.2974 7.86209 -8.94899
475 1 18.8696 15.7247 6.2897 -8.94976
476 1 20.4414 17.297 7.86203 -8.94956
477 1 22.0136 18.8694 6.28957 -8.94952
478 1 1.57208 20.4417 7.86205 -8.94958
479 1 3.14387 18.87 6.28919 -8.94934
480 1 4.71653 20.4424 7.86185 -8.94943
481 1 6.28836 18.8722 6.28831 -8.95153
482 1 7.86205 20.4429 7.86198 -8.95121
483 1 9.43483 18.8713 6.28883 -8.95026
484 1 11.0071 20.4421 7.86215 -8.94949
485 1 12.5798 18.8711 6.2894 -8.95241
486 1 14.1521 20.4418 7.86219 -8.94942
487 1 15.7246 18.8696 6.28987 -8.94965
488 1 17.2969 20.4417 7.86208 -8.94957
489 1 18.8692 18.8693 6.28965 -8.94946
490 1 20.4415 20.4416 7.86209 -8.94961
491 1 22.0127 12.5795 9.43437 -8.94977
492 1 3.1399 12.5799 9.43364 -8.9502
493 1 6.27621 12.5883 9.43197 -9.02119
494 1 9.35661 12.8301 9.42733 -8.33716
495 1 12.5596 12.5708 9.4317 -8.95925
496 1 15.723 12.5791 9.43443 -8.9402
497 1 18.8696 12.5798 9.4345 -8.948
498 1 22.013 15.7248 9.43452 -8.94987
499 1 3.14096 15.7263 9.43449 -8.94916
500 1 6.2798 15.7337 9.43446 -8.94334
501 1 9.42982 15.7223 9.43438 -9.00876
513 1 4.70656 11.007 11.0074 -8.95755
531 1 17.2973 17.2974 11.0069 -8.94901
526 1 1.57123 17.2974 11.0072 -8.94929
527 1 4.71418 17.2998 11.008 -8.94752
389 1 15.7244 18.8693 -0.000196925 -8.9497
534 1 4.71652 20.4424 11.0072 -8.9494
365 1 2.71492e-06 15.7243 -9.40544e-05 -8.94958
377 1 18.8693 15.7244 -0.000204064 -8.94959
512 1 1.5695 11.007 11.0074 -8.95126
686 1 20.4415 20.4415 20.4415 -8.94944
514 1 7.82611 11.007 11.0185 -9.14296
515 1 11.1155 11.007 11.2493 -8.34266
685 1 18.8693 18.8693 18.8692 -8.94924
517 1 17.2993 11.007 11.0065 -8.95131
518 1 20.4416 11.007 11.0069 -8.95009
519 1 1.56982 14.1522 11.0072 -8.9514
520 1 4.70664 14.1552 11.0093 -8.95818
521 1 7.81993 14.1883 11.0428 -8.90446
522 1 11.023 14.1599 11.0315 -8.95839
523 1 14.1558 14.153 11.0038 -8.95264
524 1 17.2983 14.1525 11.0062 -8.94973
525 1 20.4415 14.1521 11.0069 -8.94987
391 1 18.8693 18.8693 22.0137 -8.94929
387 1 12.5794 18.8694 22.0137 -8.94953
528 1 7.85954 17.3044 11.0082 -8.95875
529 1 11.0067 17.2986 11.0069 -8.95134
530 1 14.1524 17.2977 11.0061 -8.94886
684 1 17.2967 20.4416 20.4415 -8.94967
683 1 15.7244 18.8694 18.8693 -8.94965
533 1 1.57208 20.4417 11.007 -8.94957
383 1 6.28959 18.8693 22.0137 -8.94952
535 1 7.86205 20.443 11.007 -8.9513
536 1 11.0071 20.4421 11.0068 -8.94951
537 1 14.1521 20.4419 11.0068 -8.94944
682 1 14.1518 20.4416 20.4415 -8.94959
539 1 20.4415 20.4416 11.007 -8.94961
540 1 1.57149 11.007 14.1527 -8.94903
541 1 4.71571 11.007 14.1532 -8.94678
542 1 7.86527 11.007 14.1479 -8.99221
543 1 11.0115 11.007 14.1454 -9.05003
544 1 14.1615 11.007 14.1608 -8.94288
545 1 17.3003 11.007 14.1537 -8.94896
546 1 20.4421 11.007 14.1523 -8.94982
547 1 -0.000667877 12.5795 12.5798 -8.95008
548 1 1.5713 14.1522 14.1526 -8.94949
549 1 3.14129 12.5798 12.5811 -8.94841
550 1 4.71425 14.1528 14.1543 -8.95011
551 1 6.28297 12.5809 12.5832 -8.97944
552 1 7.85568 14.1591 14.1635 -8.95179
553 1 9.41965 12.606 12.5942 -8.9499
554 1 11.0079 14.1582 14.1618 -8.9488
555 1 12.6213 12.618 12.6179 -8.87781
556 1 14.1649 14.1644 14.1645 -8.92805
557 1 15.7342 12.582 12.5828 -8.95847
558 1 17.3004 14.1536 14.1535 -8.95107
559 1 18.8712 12.5797 12.5796 -8.95179
560 1 20.442 14.1521 14.1522 -8.95021
561 1 22.0132 15.7246 12.5797 -8.9501
562 1 1.57125 17.2974 14.1525 -8.94975
563 1 3.14104 15.7261 12.5811 -8.95112
564 1 4.71355 17.3004 14.1555 -8.94461
565 1 6.27707 15.737 12.5913 -8.93031
566 1 7.86128 17.2999 14.1541 -8.94934
567 1 9.43412 15.7331 12.5843 -8.95181
568 1 11.0075 17.2999 14.154 -8.94803
569 1 12.5857 15.7356 12.5857 -8.95423
570 1 14.1544 17.301 14.1542 -8.94988
571 1 15.7263 15.7258 12.5792 -8.95153
572 1 17.2974 17.2974 14.152 -8.9503
573 1 18.8697 15.7247 12.5793 -8.94971
574 1 20.4414 17.2969 14.1519 -8.94978
575 1 -0.000279696 18.8693 12.5795 -8.9495
576 1 1.57212 20.4417 14.152 -8.9496
577 1 3.14388 18.87 12.5798 -8.94932
578 1 4.71662 20.4424 14.1525 -8.95003
579 1 6.28833 18.8724 12.5807 -8.95168
580 1 7.86208 20.4423 14.1523 -8.94968
581 1 9.43485 18.8716 12.5802 -8.95054
582 1 11.0072 20.4423 14.1524 -8.94968
583 1 12.5798 18.8714 12.5796 -8.95262
584 1 14.1522 20.4423 14.1521 -8.95056
585 1 15.7246 18.8697 12.5792 -8.94959
586 1 17.2968 20.4417 14.1518 -8.94969
587 1 18.8692 18.8693 12.5794 -8.94946
588 1 20.4415 20.4416 14.1518 -8.94957
589 1 1.57219 11.007 17.297 -8.94961
590 1 4.71672 11.007 17.2974 -8.94942
591 1 7.86183 11.007 17.297 -8.94723
592 1 11.007 11.007 17.2974 -8.945
593 1 14.1536 11.007 17.2999 -8.94944
594 1 17.2976 11.007 17.2976 -8.94949
595 1 20.4417 11.007 17.2969 -8.94956
596 1 22.0139 12.5794 15.7246 -8.9495
597 1 1.57224 14.1518 17.297 -8.94955
598 1 3.1442 12.5793 15.7251 -8.9493
599 1 4.71693 14.1516 17.2974 -8.94997
600 1 6.28947 12.5784 15.7253 -8.95042
601 1 7.86174 14.1521 17.2991 -8.95269
602 1 9.43517 12.5792 15.7268 -8.95433
603 1 11.0067 14.1529 17.2995 -8.95077
604 1 12.5816 12.5805 15.7319 -8.96021
605 1 14.1531 14.1531 17.2999 -8.95183
606 1 15.7272 12.5804 15.7273 -8.94761
607 1 17.2976 14.1522 17.2976 -8.9493
608 1 18.8702 12.5796 15.725 -8.94926
609 1 20.4417 14.1519 17.2969 -8.9495
610 1 -0.000118549 15.7245 15.7246 -8.9497
611 1 1.57215 17.2968 17.297 -8.94969
612 1 3.14378 15.7247 15.7253 -8.94983
613 1 4.71637 17.2975 17.298 -8.94933
614 1 6.28703 15.7268 15.7287 -8.94936
615 1 7.86183 17.2975 17.2978 -8.94907
616 1 9.434 15.7266 15.7275 -8.94714
617 1 11.007 17.2976 17.2977 -8.94935
618 1 12.5805 15.7268 15.7276 -8.94859
619 1 14.1523 17.2976 17.2977 -8.94954
620 1 15.7281 15.7281 15.7279 -8.94418
621 1 17.2977 17.2977 17.2976 -8.94818
622 1 18.8702 15.725 15.7249 -8.94971
623 1 20.4417 17.2969 17.2969 -8.94954
624 1 22.0136 18.8693 15.7244 -8.94959
625 1 1.57216 20.4417 17.2969 -8.94928
626 1 3.14384 18.87 15.7252 -8.94829
627 1 4.71711 20.4417 17.2969 -8.94967
628 1 6.2893 18.8701 15.7251 -8.94968
629 1 7.86205 20.4417 17.297 -8.94952
630 1 9.4345 18.8702 15.7251 -8.94935
631 1 11.007 20.4418 17.297 -8.94956
632 1 12.5797 18.8702 15.725 -8.94916
633 1 14.1519 20.4417 17.2969 -8.94952
634 1 15.7251 18.8704 15.7251 -8.94942
635 1 17.2969 20.4418 17.2969 -8.9495
636 1 18.8693 18.8693 15.7243 -8.94982
637 1 20.4415 20.4416 17.2967 -8.94964
638 1 1.57231 11.007 20.4415 -8.94962
639 1 4.71698 11.007 20.4415 -8.9497
640 1 7.86184 11.007 20.4415 -8.94923
641 1 11.0067 11.007 20.4415 -8.9486
642 1 14.1523 11.007 20.4415 -8.95023
643 1 17.2971 11.007 20.4415 -8.94952
644 1 20.4416 11.007 20.4415 -8.94962
645 1 -7.72379e-06 12.5794 18.8692 -8.94961
646 1 1.57232 14.1518 20.4415 -8.94959
647 1 3.14459 12.5794 18.8693 -8.94957
648 1 4.71707 14.1518 20.4415 -8.94961
649 1 6.28941 12.5792 18.8695 -8.94945
650 1 7.86195 14.1519 20.4416 -8.95038
651 1 9.4344 12.5792 18.8698 -8.94977
652 1 11.0067 14.1521 20.4416 -8.95023
653 1 12.5794 12.5794 18.8705 -8.95134
654 1 14.1521 14.1521 20.4415 -8.9506
655 1 15.725 12.5796 18.87 -8.94937
656 1 17.297 14.152 20.4415 -8.94945
657 1 18.8694 12.5794 18.8693 -8.94957
658 1 20.4416 14.1518 20.4415 -8.94961
659 1 22.0139 15.7243 18.8692 -8.9496
660 1 1.57236 17.2967 20.4415 -8.9497
661 1 3.14467 15.7242 18.8693 -8.94977
662 1 4.71701 17.2969 20.4415 -8.94993
663 1 6.28931 15.7245 18.8699 -8.95051
664 1 7.86196 17.297 20.4415 -8.9495
665 1 9.43429 15.7248 18.87 -8.94956
666 1 11.0069 17.297 20.4415 -8.94955
667 1 12.5795 15.7248 18.87 -8.94962
668 1 14.1519 17.297 20.4415 -8.94959
669 1 15.7249 15.7249 18.8699 -8.95005
670 1 17.297 17.297 20.4415 -8.94958
671 1 18.8693 15.7244 18.8693 -8.9496
672 1 20.4416 17.2967 20.4415 -8.94964
673 1 -1.03599e-05 18.8691 18.8692 -8.9496
674 1 1.57233 20.4416 20.4415 -8.94952
675 1 3.14457 18.8693 18.8694 -8.94949
676 1 4.71722 20.4416 20.4415 -8.9496
677 1 6.28957 18.8693 18.8693 -8.94951
678 1 7.86208 20.4416 20.4415 -8.9496
679 1 9.4345 18.8694 18.8694 -8.94957
680 1 11.007 20.4416 20.4415 -8.94961
681 1 12.5794 18.8694 18.8693 -8.94953
351 1 22.0139 12.5794 22.0138 -8.94961
355 1 6.28941 12.5793 22.0135 -8.94954
359 1 12.5794 12.5794 22.0124 -8.95142
379 1 22.0139 18.8691 22.0138 -8.94962
367 1 3.14467 15.7242 22.0137 -8.94971
375 1 15.7248 15.7249 22.0131 -8.94997
357 1 9.43438 12.5793 22.0134 -8.94936
363 1 18.8694 12.5794 22.0137 -8.94958
516 1 14.1607 11.007 11.0139 -8.97973
