ITEM: TIMESTEP
76
ITEM: NUMBER OF ATOMS
688
ITEM: BOX BOUNDS pp pp pp
0.0000000000000000e+00 2.2013900999999997e+01
0.0000000000000000e+00 2.2013900999999997e+01
0.0000000000000000e+00 2.2013900999999997e+01
ITEM: ATOMS id type x y z c_pot
1 1 -9.82275e-05 -5.65579e-16 -8.96749e-05 -8.94938
2 1 1.57207 1.57219 1.57207 -8.94923
189 1 20.4414 4.71675 11.007 -8.94955
4 1 4.71705 1.57214 1.57203 -8.94967
175 1 18.8695 9.43416 9.4345 -8.9479
6 1 7.86205 1.57212 1.57203 -8.94951
174 1 15.7227 9.4349 9.43441 -8.94016
8 1 11.007 1.5721 1.57203 -8.94955
173 1 12.5591 9.44335 9.4316 -8.95912
10 1 14.1519 1.5721 1.5721 -8.94953
172 1 9.35725 9.18409 9.42742 -8.34004
12 1 17.297 1.57205 1.57208 -8.94947
188 1 17.2974 4.71638 11.0069 -8.94898
14 1 20.4415 1.57228 1.5723 -8.94961
171 1 6.2762 9.42536 9.43206 -9.02123
16 1 1.57212 4.71704 1.572 -8.94978
17 1 3.1445 3.1445 -0.000354654 -8.94952
18 1 4.71631 4.71635 1.57096 -8.94952
170 1 3.13971 9.43397 9.43362 -8.95018
20 1 7.86182 4.71643 1.57129 -8.94914
21 1 9.43448 3.14442 -0.000297225 -8.94954
22 1 11.007 4.71632 1.57135 -8.94937
169 1 22.0126 9.43438 9.43435 -8.94971
24 1 14.1523 4.71621 1.57133 -8.94975
168 1 18.8697 6.28886 9.43451 -8.94952
26 1 17.2978 4.7161 1.57138 -8.94824
167 1 15.7261 6.28777 9.43442 -8.94622
28 1 20.4418 4.71695 1.5721 -8.94956
166 1 12.5778 6.29146 9.4345 -8.94562
30 1 1.57217 7.86203 1.572 -8.94944
165 1 9.42961 6.29176 9.43445 -9.0087
32 1 4.71682 7.86224 1.57159 -8.9497
33 1 6.28929 6.28937 -0.000805019 -8.9506
34 1 7.86179 7.8619 1.57035 -8.95238
35 1 9.43425 6.28904 -0.000774865 -8.94961
36 1 11.0066 7.86118 1.5699 -8.95049
37 1 12.5794 6.28904 -0.00082623 -8.94969
38 1 14.1534 7.86059 1.56893 -8.95156
164 1 6.27913 6.27975 9.43447 -8.94317
40 1 17.2978 7.86147 1.57128 -8.94924
163 1 3.14045 6.28727 9.43447 -8.94916
42 1 20.4418 7.86193 1.57203 -8.94948
162 1 22.0129 6.28901 9.43451 -8.9499
44 1 3.14451 9.4345 -0.000332814 -8.94957
161 1 18.8693 3.14441 9.43452 -8.94958
181 1 17.2969 1.57213 11.007 -8.94957
160 1 15.7248 3.14401 9.43448 -8.94962
48 1 15.7252 9.4342 -0.00105362 -8.94938
159 1 12.5796 3.14448 9.43446 -8.94832
50 1 22.0137 1.20634e-16 3.14472 -8.9496
51 1 1.57198 1.57211 4.71699 -8.94955
52 1 3.14437 -5.27868e-16 3.14434 -8.94957
53 1 4.71649 1.57143 4.71643 -8.95002
54 1 6.28956 -2.27357e-16 3.14439 -8.94959
55 1 7.86207 1.57158 4.71662 -8.94962
56 1 9.43458 9.73293e-16 3.14437 -8.94955
57 1 11.0072 1.57162 4.71664 -8.94957
58 1 12.5796 1.72059e-15 3.14443 -8.94951
59 1 14.1522 1.57154 4.71691 -8.9506
60 1 15.7246 1.68052e-15 3.14454 -8.94998
61 1 17.2968 1.57218 4.71726 -8.94971
62 1 18.8691 1.01952e-15 3.1448 -8.9497
63 1 20.4414 1.57228 4.71719 -8.94956
64 1 -0.000360159 3.14451 3.14451 -8.94954
65 1 1.571 4.71635 4.71633 -8.94957
66 1 3.14367 3.14376 3.14365 -8.94826
67 1 4.71332 4.71339 4.71328 -8.9446
68 1 6.28924 3.14378 3.1438 -8.94966
69 1 7.86117 4.71428 4.71489 -8.94914
70 1 9.43451 3.14378 3.14391 -8.94938
71 1 11.0074 4.71448 4.71511 -8.94785
72 1 12.5796 3.14372 3.14401 -8.94918
73 1 14.1546 4.71277 4.71463 -8.94975
74 1 15.7252 3.14333 3.14388 -8.94938
75 1 17.2976 4.7163 4.71695 -8.9503
76 1 18.8693 3.14445 3.14464 -8.94981
77 1 20.4414 4.71687 4.71704 -8.94978
78 1 22.0139 6.28946 3.14443 -8.9498
79 1 1.57153 7.86203 4.71656 -8.9498
80 1 3.1438 6.28929 3.14374 -8.95017
81 1 4.71467 7.86173 4.71503 -8.95106
82 1 6.28718 6.28734 3.14055 -8.95015
83 1 7.85639 7.85649 4.70726 -8.95425
84 1 9.434 6.28758 3.14195 -8.9477
85 1 11.0073 7.85778 4.70897 -8.95215
86 1 12.5803 6.28737 3.14162 -8.94948
87 1 14.1648 7.85 4.7046 -8.92886
88 1 15.7282 6.28576 3.14101 -8.94438
89 1 17.3007 7.86016 4.71533 -8.95085
90 1 18.8704 6.28883 3.14402 -8.94966
91 1 20.4422 7.86176 4.71681 -8.95018
92 1 -3.20055e-05 9.43442 3.1443 -8.94954
93 1 3.14395 9.43447 3.14376 -8.94894
94 1 6.28911 9.43525 3.1435 -8.94947
95 1 9.43506 9.43465 3.14353 -8.95078
96 1 12.5823 9.43324 3.13657 -8.95958
97 1 15.7277 9.43323 3.14133 -8.94757
98 1 18.8704 9.43421 3.14392 -8.94929
99 1 -0.000186611 3.1882e-16 6.28961 -8.94959
100 1 1.57193 1.57208 7.86201 -8.94955
101 1 3.14428 -8.88719e-16 6.28941 -8.94946
102 1 4.71634 1.57136 7.86177 -8.94944
103 1 6.28934 -4.85768e-16 6.28925 -8.95062
104 1 7.862 1.57093 7.86195 -8.95123
105 1 9.43477 1.74376e-15 6.28932 -8.95009
106 1 11.0071 1.57185 7.86216 -8.94945
107 1 12.5796 1.78109e-15 6.28961 -8.95041
108 1 14.1521 1.57204 7.8622 -8.9494
109 1 15.7245 1.82418e-15 6.28972 -8.94955
110 1 17.2969 1.57213 7.86208 -8.94956
111 1 18.8692 1.6335e-15 6.28964 -8.94956
112 1 20.4414 1.57225 7.86207 -8.94959
113 1 22.0135 3.14443 6.2895 -8.9495
114 1 1.57095 4.71625 7.86176 -8.94935
115 1 3.14361 3.14363 6.28902 -8.94929
116 1 4.71373 4.71372 7.86072 -8.94786
117 1 6.28816 3.14144 6.28815 -8.95157
118 1 7.85917 4.70981 7.86058 -8.95836
119 1 9.43478 3.14247 6.28873 -8.95036
120 1 11.0067 4.71563 7.86183 -8.95148
121 1 12.5798 3.14261 6.28934 -8.95252
122 1 14.1524 4.71631 7.86279 -8.94906
123 1 15.7246 3.14414 6.28986 -8.94965
124 1 17.2974 4.71639 7.86209 -8.94895
125 1 18.8693 3.14447 6.28963 -8.94943
126 1 20.4414 4.71675 7.86201 -8.94955
127 1 -0.000967549 6.28914 6.28923 -8.95007
128 1 1.5694 7.86138 7.86142 -8.95151
129 1 3.14051 6.28748 6.28742 -8.95044
130 1 4.7057 7.85772 7.85862 -8.95733
131 1 6.27691 6.27747 6.27761 -8.92993
132 1 7.81895 7.8279 7.82806 -8.88313
133 1 9.43374 6.28211 6.28518 -8.95156
134 1 11.0249 7.85485 7.83704 -8.94339
135 1 12.586 6.27899 6.28284 -8.95284
136 1 14.1563 7.86093 7.86412 -8.95297
137 1 15.7266 6.28796 6.28953 -8.95147
138 1 17.2984 7.86142 7.86274 -8.94995
139 1 18.8697 6.28914 6.28968 -8.94981
140 1 20.4414 7.8617 7.86204 -8.94995
141 1 22.0135 9.4345 6.28924 -8.94996
142 1 3.14251 9.43504 6.28847 -8.95009
143 1 6.28409 9.43666 6.28673 -8.95112
144 1 9.41964 9.41349 6.2846 -8.95252
145 1 12.6221 9.4002 6.25108 -8.8482
146 1 15.7347 9.43205 6.28588 -8.95837
147 1 18.8714 9.43424 6.28933 -8.9518
148 1 -0.000201591 2.6561e-16 9.43453 -8.9496
149 1 3.14423 3.61602e-16 9.43452 -8.94951
150 1 6.28909 1.81842e-17 9.43449 -8.95026
151 1 9.43478 1.67755e-15 9.43448 -8.94867
152 1 12.5797 1.75604e-15 9.43449 -8.94924
153 1 15.7246 1.08594e-15 9.43451 -8.94968
154 1 18.8692 1.26539e-15 9.43452 -8.9496
155 1 -0.00040305 3.14441 9.43453 -8.94954
156 1 3.14356 3.14361 9.43451 -8.94947
157 1 6.28767 3.14128 9.43446 -8.94965
158 1 9.43449 3.1438 9.4344 -8.94702
177 1 4.71633 1.57135 11.0072 -8.94941
183 1 1.57095 4.71626 11.0073 -8.94927
184 1 4.71369 4.71371 11.0082 -8.94745
5 1 6.28962 7.30972e-16 -0.00014144 -8.94957
41 1 18.8695 6.28942 -0.000283188 -8.94954
7 1 9.43452 1.73776e-15 -0.000157481 -8.94959
9 1 12.5794 1.51967e-15 -0.000145045 -8.94958
29 1 1.56616e-05 6.28961 -0.00014603 -8.94955
25 1 15.7244 3.14444 -0.000271409 -8.94968
176 1 1.57193 1.57208 11.007 -8.94954
47 1 12.5795 9.43444 22.0123 -8.95147
178 1 7.862 1.57082 11.007 -8.95135
179 1 11.0071 1.57177 11.0068 -8.94949
180 1 14.1522 1.572 11.0068 -8.94942
343 1 18.8695 9.43444 18.8694 -8.94954
182 1 20.4414 1.57225 11.007 -8.94959
45 1 6.28937 9.43464 22.0135 -8.94951
43 1 22.0139 9.43449 22.0137 -8.94959
185 1 7.85919 4.70917 11.0083 -8.95886
186 1 11.0067 4.71525 11.007 -8.95141
187 1 14.1525 4.71615 11.0061 -8.94881
342 1 15.7252 9.43422 18.8701 -8.94937
341 1 12.5795 9.43447 18.8706 -8.95138
190 1 1.56953 7.86157 11.0073 -8.95146
191 1 4.70611 7.8584 11.0095 -8.95825
192 1 7.81946 7.82501 11.0429 -8.90485
193 1 11.0231 7.85376 11.0322 -8.95821
194 1 14.1558 7.86088 11.0039 -8.95268
195 1 17.2983 7.86141 11.0062 -8.94979
196 1 20.4414 7.86172 11.0069 -8.94988
197 1 22.0137 -5.02907e-16 12.5794 -8.94959
198 1 1.57198 1.57211 14.1521 -8.94956
199 1 3.14427 -9.48956e-16 12.5796 -8.94945
200 1 4.71646 1.57137 14.1526 -8.95005
201 1 6.28932 -1.72105e-17 12.5798 -8.95068
202 1 7.86204 1.57144 14.1525 -8.94972
203 1 9.43477 1.29677e-15 12.5797 -8.95022
204 1 11.0072 1.57145 14.1525 -8.9497
205 1 12.5796 1.15798e-15 12.5794 -8.95048
206 1 14.1523 1.57147 14.1521 -8.95064
207 1 15.7245 7.24318e-16 12.5793 -8.94954
208 1 17.2969 1.57217 14.1518 -8.9497
209 1 18.8692 -4.48651e-16 12.5794 -8.94957
210 1 20.4414 1.57228 14.1519 -8.94955
211 1 -0.000394401 3.14443 12.5795 -8.94948
212 1 1.57101 4.71633 14.1527 -8.94976
213 1 3.1436 3.14363 12.58 -8.94927
214 1 4.71313 4.71309 14.1559 -8.94451
215 1 6.2881 3.1412 12.5809 -8.95172
216 1 7.86101 4.71356 14.1545 -8.94933
217 1 9.4348 3.14203 12.5803 -8.95064
218 1 11.0075 4.71365 14.1543 -8.94798
219 1 12.5799 3.14236 12.5796 -8.95273
220 1 14.1547 4.71246 14.1545 -8.94984
221 1 15.7247 3.1441 12.5792 -8.94959
222 1 17.2976 4.71629 14.1521 -8.95036
223 1 18.8693 3.14447 12.5794 -8.94943
224 1 20.4414 4.71688 14.152 -8.94981
225 1 22.013 6.28917 12.5797 -8.95014
226 1 1.57114 7.8617 14.1528 -8.94952
227 1 3.14059 6.2875 12.5814 -8.95115
228 1 4.71396 7.86099 14.1545 -8.95031
229 1 6.27644 6.27636 12.5917 -8.93018
230 1 7.85521 7.85426 14.164 -8.95152
231 1 9.43388 6.28021 12.5848 -8.95187
232 1 11.0081 7.85522 14.1623 -8.9487
233 1 12.586 6.27787 12.5861 -8.95414
234 1 14.1655 7.84913 14.165 -8.92789
235 1 15.7266 6.28792 12.5793 -8.95161
236 1 17.3008 7.86009 14.1538 -8.95111
237 1 18.8697 6.28914 12.5793 -8.94976
238 1 20.4421 7.86168 14.1523 -8.95025
239 1 -0.000749587 9.43435 12.5799 -8.95008
240 1 3.1411 9.43408 12.5812 -8.9484
241 1 6.28298 9.43301 12.583 -8.97962
242 1 9.4192 9.40685 12.5949 -8.94924
243 1 12.6218 9.39548 12.6185 -8.87763
244 1 15.7345 9.43186 12.583 -8.9586
245 1 18.8713 9.43422 12.5797 -8.95186
246 1 22.0137 -1.24855e-15 15.7243 -8.94961
247 1 1.57205 1.57218 17.297 -8.94923
248 1 3.14435 -7.59007e-16 15.7247 -8.94958
249 1 4.71701 1.5721 17.2971 -8.94965
250 1 6.28952 -4.51779e-16 15.7247 -8.94962
251 1 7.86202 1.57207 17.2971 -8.94949
252 1 9.43456 6.29604e-16 15.7247 -8.94958
253 1 11.007 1.57204 17.2971 -8.94953
254 1 12.5796 1.12854e-15 15.7247 -8.94955
255 1 14.152 1.57205 17.297 -8.9495
256 1 15.7246 7.19709e-16 15.7245 -8.95
257 1 17.297 1.57203 17.297 -8.94949
258 1 18.8691 -9.71214e-16 15.7243 -8.9497
259 1 20.4415 1.57227 17.2968 -8.94963
260 1 22.0135 3.1445 15.7245 -8.94959
261 1 1.57205 4.71699 17.2971 -8.94971
262 1 3.14361 3.14369 15.7255 -8.94823
263 1 4.71617 4.71622 17.2983 -8.94931
264 1 6.28913 3.14358 15.7254 -8.94965
265 1 7.86174 4.71626 17.298 -8.94904
266 1 9.43449 3.14353 15.7253 -8.94932
267 1 11.007 4.71613 17.2979 -8.94933
268 1 12.5798 3.14348 15.7252 -8.94915
269 1 14.1524 4.71606 17.2979 -8.9495
270 1 15.7253 3.14324 15.7252 -8.94941
271 1 17.2979 4.71601 17.2978 -8.94813
272 1 18.8693 3.14444 15.7244 -8.94984
273 1 20.4418 4.71691 17.297 -8.94953
274 1 -0.000147891 6.28936 15.7247 -8.94973
275 1 1.57219 7.86206 17.2971 -8.94953
276 1 3.14357 6.2891 15.7255 -8.94991
277 1 4.71686 7.86229 17.2975 -8.94998
278 1 6.28669 6.28677 15.7291 -8.94928
279 1 7.86168 7.86172 17.2993 -8.95282
280 1 9.43394 6.28694 15.7279 -8.94709
281 1 11.0068 7.86092 17.2998 -8.95088
282 1 12.5808 6.28671 15.728 -8.94855
283 1 14.1534 7.86062 17.3002 -8.95187
284 1 15.7285 6.28549 15.7283 -8.94411
285 1 17.2979 7.8615 17.2978 -8.94924
286 1 18.8704 6.28878 15.7251 -8.94972
287 1 20.4418 7.86194 17.297 -8.94947
288 1 22.0139 9.43443 15.7248 -8.94949
289 1 3.14409 9.43459 15.7252 -8.94928
290 1 6.28942 9.43548 15.7253 -8.95032
291 1 9.43523 9.43464 15.7269 -8.95452
292 1 12.582 9.43332 15.7322 -8.96028
293 1 15.7277 9.4333 15.7276 -8.94754
294 1 18.8704 9.43422 15.7251 -8.94925
295 1 -0.000103658 -7.07982e-16 18.8692 -8.94939
296 1 1.57228 1.57228 20.4415 -8.94948
297 1 3.14471 1.35757e-16 18.8692 -8.94965
298 1 4.71717 1.57229 20.4415 -8.94959
299 1 6.28961 5.76778e-16 18.8692 -8.94956
300 1 7.86205 1.57225 20.4415 -8.94958
301 1 9.43451 1.43506e-15 18.8693 -8.94958
302 1 11.007 1.57224 20.4415 -8.94959
303 1 12.5794 1.30004e-15 18.8692 -8.94957
304 1 14.1519 1.57226 20.4415 -8.94957
305 1 15.7243 1.21509e-15 18.8692 -8.94958
306 1 17.2968 1.57227 20.4415 -8.94965
307 1 18.8692 2.99266e-17 18.8692 -8.94947
308 1 20.4416 1.57233 20.4415 -8.94937
309 1 -2.24675e-05 3.1447 18.8692 -8.94958
310 1 1.57232 4.7172 20.4415 -8.94971
311 1 3.14447 3.14448 18.8695 -8.94948
312 1 4.71692 4.71695 20.4415 -8.94998
313 1 6.2895 3.14446 18.8694 -8.94949
314 1 7.8619 4.71681 20.4416 -8.9495
315 1 9.43448 3.14438 18.8694 -8.94954
316 1 11.0069 4.71674 20.4416 -8.94954
317 1 12.5795 3.14439 18.8694 -8.9495
318 1 14.152 4.71678 20.4415 -8.9496
319 1 15.7245 3.14441 18.8694 -8.94963
320 1 17.2971 4.71677 20.4415 -8.94957
321 1 18.8694 3.14448 18.8693 -8.94919
322 1 20.4416 4.71714 20.4415 -8.94961
323 1 22.0139 6.28961 18.8692 -8.94958
324 1 1.57228 7.86206 20.4415 -8.94957
325 1 3.1446 6.28965 18.8694 -8.94978
326 1 4.71701 7.86214 20.4415 -8.9496
327 1 6.28922 6.28929 18.8701 -8.9506
328 1 7.86192 7.86205 20.4416 -8.95043
329 1 9.43425 6.28895 18.8701 -8.94958
330 1 11.0067 7.86174 20.4416 -8.95028
331 1 12.5795 6.28894 18.8701 -8.94966
332 1 14.1522 7.8617 20.4415 -8.95065
333 1 15.725 6.28886 18.8701 -8.95008
334 1 17.2972 7.86184 20.4415 -8.94942
335 1 18.8695 6.28943 18.8694 -8.94956
336 1 20.4416 7.86203 20.4415 -8.94959
337 1 4.62333e-06 9.4345 18.8693 -8.94959
338 1 3.14453 9.43452 18.8694 -8.94957
339 1 6.28937 9.43468 18.8695 -8.94942
340 1 9.43441 9.43471 18.8698 -8.94976
39 1 15.725 6.28887 22.0129 -8.95
31 1 3.14461 6.28965 22.0136 -8.94972
27 1 18.8694 3.1445 22.0137 -8.94924
11 1 15.7243 1.26632e-15 22.0138 -8.9496
15 1 22.0139 3.14472 22.0138 -8.94961
19 1 6.28953 3.1445 22.0136 -8.9495
23 1 12.5794 3.14443 22.0136 -8.9495
3 1 3.14472 1.78651e-16 22.0138 -8.94966
13 1 18.8692 9.21598e-16 22.0138 -8.94946
46 1 9.43438 9.43464 22.0134 -8.94933
49 1 18.8695 9.43443 22.0136 -8.94954
344 1 1.57212 11.007 1.57193 -8.9496
345 1 4.71662 11.007 1.57141 -8.94967
346 1 7.86194 11.007 1.57202 -8.94851
347 1 11.0069 11.007 1.57145 -8.94649
348 1 14.1539 11.007 1.5687 -8.94952
349 1 17.2979 11.007 1.57125 -8.94948
350 1 20.4418 11.007 1.57201 -8.94954
688 3 10.2278 11.007 9.43592 2.20314
352 1 1.57217 14.1519 1.572 -8.94944
353 1 3.14451 12.5794 -0.000332814 -8.94957
354 1 4.71682 14.1517 1.57159 -8.9497
687 2 9.50537 11.007 10.1879 -0.00960872
356 1 7.86179 14.152 1.57035 -8.95238
538 1 17.2969 20.4418 11.007 -8.94957
358 1 11.0066 14.1527 1.5699 -8.95049
511 1 18.8693 18.8695 9.43452 -8.94958
360 1 14.1534 14.1533 1.56893 -8.95156
361 1 15.7252 12.5797 -0.00105362 -8.94938
362 1 17.2978 14.1524 1.57128 -8.94924
532 1 20.4414 17.2971 11.007 -8.94955
364 1 20.4418 14.152 1.57203 -8.94948
510 1 15.7248 18.8699 9.43448 -8.94962
366 1 1.57212 17.2969 1.572 -8.94978
509 1 12.5796 18.8694 9.43446 -8.94832
368 1 4.71631 17.2976 1.57096 -8.94952
369 1 6.28929 15.7245 -0.000805019 -8.9506
370 1 7.86182 17.2975 1.57129 -8.94914
371 1 9.43425 15.7249 -0.000774865 -8.94961
372 1 11.007 17.2976 1.57135 -8.94937
373 1 12.5794 15.7249 -0.00082623 -8.94969
374 1 14.1523 17.2977 1.57133 -8.94975
508 1 9.43449 18.8701 9.4344 -8.94702
376 1 17.2978 17.2978 1.57138 -8.94824
507 1 6.28767 18.8726 9.43446 -8.94965
378 1 20.4418 17.297 1.5721 -8.94956
506 1 3.14356 18.8703 9.43451 -8.94947
380 1 1.57207 20.4417 1.57207 -8.94923
381 1 3.1445 18.8694 -0.000354654 -8.94952
382 1 4.71705 20.4418 1.57203 -8.94967
505 1 -0.00040305 18.8695 9.43453 -8.94954
384 1 7.86205 20.4418 1.57203 -8.94951
385 1 9.43448 18.8695 -0.000297225 -8.94954
386 1 11.007 20.4418 1.57203 -8.94955
504 1 18.8697 15.725 9.43451 -8.94952
388 1 14.1519 20.4418 1.5721 -8.94953
503 1 15.7261 15.7261 9.43442 -8.94622
390 1 17.297 20.4419 1.57208 -8.94947
502 1 12.5778 15.7224 9.4345 -8.94562
392 1 20.4415 20.4416 1.5723 -8.94961
393 1 1.57146 11.007 4.71626 -8.94948
394 1 4.715 11.007 4.71474 -8.94563
395 1 7.86388 11.007 4.71868 -8.94722
396 1 11.0122 11.007 4.7205 -9.00539
397 1 14.1625 11.007 4.707 -8.94155
398 1 17.3009 11.007 4.71503 -8.94901
399 1 20.4423 11.007 4.71665 -8.94995
400 1 -3.20055e-05 12.5795 3.1443 -8.94954
401 1 1.57153 14.1519 4.71656 -8.9498
402 1 3.14395 12.5794 3.14376 -8.94894
403 1 4.71467 14.1522 4.71503 -8.95106
404 1 6.28911 12.5787 3.1435 -8.94947
405 1 7.85639 14.1574 4.70726 -8.95425
406 1 9.43506 12.5793 3.14353 -8.95078
407 1 11.0073 14.1561 4.70897 -8.95215
408 1 12.5823 12.5807 3.13657 -8.95958
409 1 14.1648 14.1639 4.7046 -8.92886
410 1 15.7277 12.5807 3.14133 -8.94757
411 1 17.3007 14.1537 4.71533 -8.95085
412 1 18.8704 12.5797 3.14392 -8.94929
413 1 20.4422 14.1521 4.71681 -8.95018
414 1 22.0139 15.7244 3.14443 -8.9498
415 1 1.571 17.2975 4.71633 -8.94957
416 1 3.1438 15.7246 3.14374 -8.95017
417 1 4.71332 17.3005 4.71328 -8.9446
418 1 6.28718 15.7266 3.14055 -8.95015
419 1 7.86117 17.2996 4.71489 -8.94914
420 1 9.434 15.7263 3.14195 -8.9477
421 1 11.0074 17.2994 4.71511 -8.94785
422 1 12.5803 15.7265 3.14162 -8.94948
423 1 14.1546 17.3011 4.71463 -8.94975
424 1 15.7282 15.7281 3.14101 -8.94438
425 1 17.2976 17.2976 4.71695 -8.9503
426 1 18.8704 15.7251 3.14402 -8.94966
427 1 20.4414 17.297 4.71704 -8.94978
428 1 -0.000360159 18.8694 3.14451 -8.94954
429 1 1.57198 20.4418 4.71699 -8.94955
430 1 3.14367 18.8701 3.14365 -8.94826
431 1 4.71649 20.4425 4.71643 -8.95002
432 1 6.28924 18.8701 3.1438 -8.94966
433 1 7.86207 20.4423 4.71662 -8.94962
434 1 9.43451 18.8701 3.14391 -8.94938
435 1 11.0072 20.4423 4.71664 -8.94957
436 1 12.5796 18.8702 3.14401 -8.94918
437 1 14.1522 20.4424 4.71691 -8.9506
438 1 15.7252 18.8706 3.14388 -8.94938
439 1 17.2968 20.4417 4.71726 -8.94971
440 1 18.8693 18.8695 3.14464 -8.94981
441 1 20.4414 20.4416 4.71719 -8.94956
442 1 1.57099 11.007 7.86151 -8.94786
443 1 4.71655 11.007 7.86182 -8.94156
444 1 7.87498 11.007 7.86629 -8.93332
445 1 11.0908 11.007 7.62095 -8.16389
446 1 14.161 11.007 7.85405 -8.97287
447 1 17.2994 11.007 7.86247 -8.95123
448 1 20.4418 11.007 7.86209 -8.94958
449 1 22.0135 12.5794 6.28924 -8.94996
450 1 1.5694 14.1525 7.86142 -8.95151
451 1 3.14251 12.5789 6.28847 -8.95009
452 1 4.7057 14.1562 7.85862 -8.95733
453 1 6.28409 12.5772 6.28673 -8.95112
454 1 7.81895 14.186 7.82806 -8.88313
455 1 9.41964 12.6004 6.2846 -8.95252
456 1 11.0249 14.159 7.83704 -8.94339
457 1 12.6221 12.6137 6.25108 -8.8482
458 1 14.1563 14.153 7.86412 -8.95297
459 1 15.7347 12.5819 6.28588 -8.95837
460 1 17.2984 14.1525 7.86274 -8.94995
461 1 18.8714 12.5797 6.28933 -8.9518
462 1 20.4414 14.1522 7.86204 -8.94995
463 1 -0.000967549 15.7248 6.28923 -8.95007
464 1 1.57095 17.2977 7.86176 -8.94935
465 1 3.14051 15.7264 6.28742 -8.95044
466 1 4.71373 17.3002 7.86072 -8.94786
467 1 6.27691 15.7364 6.27761 -8.92993
468 1 7.85917 17.3041 7.86058 -8.95836
469 1 9.43374 15.7318 6.28518 -8.95156
470 1 11.0067 17.2983 7.86183 -8.95148
471 1 12.586 15.7349 6.28284 -8.95284
472 1 14.1524 17.2976 7.86279 -8.94906
473 1 15.7266 15.7259 6.28953 -8.95147
474 1 17.2974 17.2975 7.86209 -8.94895
475 1 18.8697 15.7248 6.28968 -8.94981
476 1 20.4414 17.2971 7.86201 -8.94955
477 1 22.0135 18.8695 6.2895 -8.9495
478 1 1.57193 20.4418 7.86201 -8.94955
479 1 3.14361 18.8703 6.28902 -8.94929
480 1 4.71634 20.4425 7.86177 -8.94944
481 1 6.28816 18.8725 6.28815 -8.95157
482 1 7.862 20.443 7.86195 -8.95123
483 1 9.43478 18.8714 6.28873 -8.95036
484 1 11.0071 20.442 7.86216 -8.94945
485 1 12.5798 18.8713 6.28934 -8.95252
486 1 14.1521 20.4419 7.8622 -8.9494
487 1 15.7246 18.8698 6.28986 -8.94965
488 1 17.2969 20.4418 7.86208 -8.94956
489 1 18.8693 18.8694 6.28963 -8.94943
490 1 20.4414 20.4417 7.86207 -8.94959
491 1 22.0126 12.5795 9.43435 -8.94971
492 1 3.13971 12.5799 9.43362 -8.95018
493 1 6.2762 12.5885 9.43206 -9.02123
494 1 9.35725 12.8298 9.42742 -8.34004
495 1 12.5591 12.5706 9.4316 -8.95912
496 1 15.7227 12.579 9.43441 -8.94016
497 1 18.8695 12.5797 9.4345 -8.9479
498 1 22.0129 15.7249 9.43451 -8.9499
499 1 3.14045 15.7266 9.43447 -8.94916
500 1 6.27913 15.7342 9.43447 -8.94317
501 1 9.42961 15.7221 9.43445 -9.0087
513 1 4.70671 11.007 11.0073 -8.95717
531 1 17.2974 17.2975 11.0069 -8.94898
526 1 1.57095 17.2976 11.0073 -8.94927
527 1 4.71369 17.3002 11.0082 -8.94745
389 1 15.7244 18.8695 -0.000271409 -8.94968
534 1 4.71633 20.4426 11.0072 -8.94941
365 1 1.56616e-05 15.7243 -0.00014603 -8.94955
377 1 18.8695 15.7245 -0.000283188 -8.94954
512 1 1.56938 11.007 11.0074 -8.95114
686 1 20.4416 20.4416 20.4415 -8.94937
514 1 7.82751 11.007 11.018 -9.14354
515 1 11.1144 11.007 11.2509 -8.34352
685 1 18.8694 18.8694 18.8693 -8.94919
517 1 17.2992 11.007 11.0066 -8.95121
518 1 20.4416 11.007 11.0069 -8.95001
519 1 1.56953 14.1523 11.0073 -8.95146
520 1 4.70611 14.1555 11.0095 -8.95825
521 1 7.81946 14.1889 11.0429 -8.90485
522 1 11.0231 14.1601 11.0322 -8.95821
523 1 14.1558 14.153 11.0039 -8.95268
524 1 17.2983 14.1525 11.0062 -8.94979
525 1 20.4414 14.1522 11.0069 -8.94988
391 1 18.8694 18.8694 22.0137 -8.94924
387 1 12.5794 18.8695 22.0136 -8.9495
528 1 7.85919 17.3047 11.0083 -8.95886
529 1 11.0067 17.2986 11.007 -8.95141
530 1 14.1525 17.2977 11.0061 -8.94881
684 1 17.2968 20.4416 20.4415 -8.94965
683 1 15.7245 18.8695 18.8694 -8.94963
533 1 1.57193 20.4418 11.007 -8.94954
383 1 6.28953 18.8694 22.0136 -8.9495
535 1 7.862 20.4431 11.007 -8.95135
536 1 11.0071 20.4421 11.0068 -8.94949
537 1 14.1522 20.4419 11.0068 -8.94942
682 1 14.1519 20.4416 20.4415 -8.94957
539 1 20.4414 20.4417 11.007 -8.94959
540 1 1.57138 11.007 14.1528 -8.94902
541 1 4.71561 11.007 14.1532 -8.94677
542 1 7.86531 11.007 14.1476 -8.99163
543 1 11.0117 11.007 14.1454 -9.05038
544 1 14.162 11.007 14.1613 -8.94272
545 1 17.3007 11.007 14.154 -8.94897
546 1 20.4422 11.007 14.1524 -8.94984
547 1 -0.000749587 12.5796 12.5799 -8.95008
548 1 1.57114 14.1522 14.1528 -8.94952
549 1 3.1411 12.5798 12.5812 -8.9484
550 1 4.71396 14.1529 14.1545 -8.95031
551 1 6.28298 12.5809 12.583 -8.97962
552 1 7.85521 14.1596 14.164 -8.95152
553 1 9.4192 12.607 12.5949 -8.94924
554 1 11.0081 14.1587 14.1623 -8.9487
555 1 12.6218 12.6184 12.6185 -8.87763
556 1 14.1655 14.1648 14.165 -8.92789
557 1 15.7345 12.582 12.583 -8.9586
558 1 17.3008 14.1538 14.1538 -8.95111
559 1 18.8713 12.5797 12.5797 -8.95186
560 1 20.4421 14.1522 14.1523 -8.95025
561 1 22.013 15.7247 12.5797 -8.95014
562 1 1.57101 17.2976 14.1527 -8.94976
563 1 3.14059 15.7264 12.5814 -8.95115
564 1 4.71313 17.3008 14.1559 -8.94451
565 1 6.27644 15.7375 12.5917 -8.93018
566 1 7.86101 17.3003 14.1545 -8.94933
567 1 9.43388 15.7337 12.5848 -8.95187
568 1 11.0075 17.3003 14.1543 -8.94798
569 1 12.586 15.736 12.5861 -8.95414
570 1 14.1547 17.3014 14.1545 -8.94984
571 1 15.7266 15.726 12.5793 -8.95161
572 1 17.2976 17.2976 14.1521 -8.95036
573 1 18.8697 15.7248 12.5793 -8.94976
574 1 20.4414 17.297 14.152 -8.94981
575 1 -0.000394401 18.8695 12.5795 -8.94948
576 1 1.57198 20.4418 14.1521 -8.94956
577 1 3.1436 18.8703 12.58 -8.94927
578 1 4.71646 20.4425 14.1526 -8.95005
579 1 6.2881 18.8727 12.5809 -8.95172
580 1 7.86204 20.4425 14.1525 -8.94972
581 1 9.4348 18.8719 12.5803 -8.95064
582 1 11.0072 20.4424 14.1525 -8.9497
583 1 12.5799 18.8715 12.5796 -8.95273
584 1 14.1523 20.4424 14.1521 -8.95064
585 1 15.7247 18.8698 12.5792 -8.94959
586 1 17.2969 20.4417 14.1518 -8.9497
587 1 18.8693 18.8694 12.5794 -8.94943
588 1 20.4414 20.4416 14.1519 -8.94955
589 1 1.57214 11.007 17.2971 -8.94959
590 1 4.71666 11.007 17.2975 -8.9494
591 1 7.86184 11.007 17.2969 -8.94713
592 1 11.0071 11.007 17.2974 -8.94494
593 1 14.1539 11.007 17.3002 -8.94948
594 1 17.2979 11.007 17.2978 -8.94947
595 1 20.4418 11.007 17.2971 -8.94954
596 1 22.0139 12.5795 15.7248 -8.94949
597 1 1.57219 14.1518 17.2971 -8.94953
598 1 3.14409 12.5793 15.7252 -8.94928
599 1 4.71686 14.1516 17.2975 -8.94998
600 1 6.28942 12.5784 15.7253 -8.95032
601 1 7.86168 14.1522 17.2993 -8.95282
602 1 9.43523 12.5793 15.7269 -8.95452
603 1 11.0068 14.153 17.2998 -8.95088
604 1 12.582 12.5806 15.7322 -8.96028
605 1 14.1534 14.1533 17.3002 -8.95187
606 1 15.7277 12.5806 15.7276 -8.94754
607 1 17.2979 14.1524 17.2978 -8.94924
608 1 18.8704 12.5797 15.7251 -8.94925
609 1 20.4418 14.152 17.297 -8.94947
610 1 -0.000147891 15.7245 15.7247 -8.94973
611 1 1.57205 17.2969 17.2971 -8.94971
612 1 3.14357 15.7248 15.7255 -8.94991
613 1 4.71617 17.2977 17.2983 -8.94931
614 1 6.28669 15.7271 15.7291 -8.94928
615 1 7.86174 17.2976 17.298 -8.94904
616 1 9.43394 15.727 15.7279 -8.94709
617 1 11.007 17.2978 17.2979 -8.94933
618 1 12.5808 15.7272 15.728 -8.94855
619 1 14.1524 17.2978 17.2979 -8.9495
620 1 15.7285 15.7284 15.7283 -8.94411
621 1 17.2979 17.2979 17.2978 -8.94813
622 1 18.8704 15.7251 15.7251 -8.94972
623 1 20.4418 17.297 17.297 -8.94953
624 1 22.0135 18.8694 15.7245 -8.94959
625 1 1.57205 20.4417 17.297 -8.94923
626 1 3.14361 18.8702 15.7255 -8.94823
627 1 4.71701 20.4418 17.2971 -8.94965
628 1 6.28913 18.8703 15.7254 -8.94965
629 1 7.86202 20.4418 17.2971 -8.94949
630 1 9.43449 18.8704 15.7253 -8.94932
631 1 11.007 20.4419 17.2971 -8.94953
632 1 12.5798 18.8704 15.7252 -8.94915
633 1 14.152 20.4418 17.297 -8.9495
634 1 15.7253 18.8707 15.7252 -8.94941
635 1 17.297 20.4419 17.297 -8.94949
636 1 18.8693 18.8695 15.7244 -8.94984
637 1 20.4415 20.4416 17.2968 -8.94963
638 1 1.57226 11.007 20.4415 -8.94961
639 1 4.71691 11.007 20.4415 -8.94969
640 1 7.8618 11.007 20.4415 -8.94916
641 1 11.0067 11.007 20.4415 -8.94847
642 1 14.1524 11.007 20.4415 -8.95029
643 1 17.2972 11.007 20.4415 -8.9495
644 1 20.4417 11.007 20.4415 -8.9496
645 1 4.62333e-06 12.5794 18.8693 -8.94959
646 1 1.57228 14.1518 20.4415 -8.94957
647 1 3.14453 12.5794 18.8694 -8.94957
648 1 4.71701 14.1518 20.4415 -8.9496
649 1 6.28937 12.5792 18.8695 -8.94942
650 1 7.86192 14.1518 20.4416 -8.95043
651 1 9.43441 12.5792 18.8698 -8.94976
652 1 11.0067 14.1522 20.4416 -8.95028
653 1 12.5795 12.5794 18.8706 -8.95138
654 1 14.1522 14.1522 20.4415 -8.95065
655 1 15.7252 12.5797 18.8701 -8.94937
656 1 17.2972 14.1521 20.4415 -8.94942
657 1 18.8695 12.5795 18.8694 -8.94954
658 1 20.4416 14.1519 20.4415 -8.94959
659 1 22.0139 15.7243 18.8692 -8.94958
660 1 1.57232 17.2967 20.4415 -8.94971
661 1 3.1446 15.7242 18.8694 -8.94978
662 1 4.71692 17.297 20.4415 -8.94998
663 1 6.28922 15.7246 18.8701 -8.9506
664 1 7.8619 17.2971 20.4416 -8.9495
665 1 9.43425 15.7249 18.8701 -8.94958
666 1 11.0069 17.2972 20.4416 -8.94954
667 1 12.5795 15.725 18.8701 -8.94966
668 1 14.152 17.2971 20.4415 -8.9496
669 1 15.725 15.725 18.8701 -8.95008
670 1 17.2971 17.2971 20.4415 -8.94957
671 1 18.8695 15.7245 18.8694 -8.94956
672 1 20.4416 17.2968 20.4415 -8.94961
673 1 -2.24675e-05 18.8692 18.8692 -8.94958
674 1 1.57228 20.4416 20.4415 -8.94948
675 1 3.14447 18.8694 18.8695 -8.94948
676 1 4.71717 20.4416 20.4415 -8.94959
677 1 6.2895 18.8694 18.8694 -8.94949
678 1 7.86205 20.4417 20.4415 -8.94958
679 1 9.43448 18.8695 18.8694 -8.94954
680 1 11.007 20.4417 20.4415 -8.94959
681 1 12.5795 18.8695 18.8694 -8.9495
351 1 22.0139 12.5794 22.0137 -8.94959
355 1 6.28937 12.5793 22.0135 -8.94951
359 1 12.5795 12.5795 22.0123 -8.95147
379 1 22.0139 18.8692 22.0138 -8.94961
367 1 3.14461 15.7243 22.0136 -8.94972
375 1 15.725 15.725 22.0129 -8.95
357 1 9.43438 12.5793 22.0134 -8.94933
363 1 18.8695 12.5795 22.0136 -8.94954
516 1 14.1602 11.007 11.0141 -8.9797
