ITEM: TIMESTEP
204
ITEM: NUMBER OF ATOMS
686
ITEM: BOX BOUNDS pp pp pp
0.0000000000000000e+00 2.2013900999999997e+01
0.0000000000000000e+00 2.2013900999999997e+01
0.0000000000000000e+00 2.2013900999999997e+01
ITEM: ATOMS id type xs ys zs
126 1 0.857087 0.428596 0.285743
2 1 0.0714296 0.0714296 0.0714296
125 1 0.714108 0.428676 0.285892
4 1 0.214287 0.0714295 0.0714295
124 1 0.571506 0.428494 0.285915
6 1 0.357144 0.0714291 0.0714291
123 1 0.428494 0.428494 0.285915
8 1 0.5 0.0714307 0.0714307
122 1 0.285892 0.428676 0.285892
10 1 0.642856 0.0714291 0.0714291
121 1 0.142913 0.428596 0.285743
12 1 0.785713 0.0714295 0.0714295
120 1 1 0.428574 0.285726
14 1 0.92857 0.0714296 0.0714296
97 1 0.714257 0.428596 0.142913
16 1 0.0714295 0.214287 0.0714295
398 1 0.785676 0.5 0.214324
18 1 0.214292 0.214292 0.0714322
96 1 0.571444 0.428556 0.142913
20 1 0.357152 0.214297 0.0714393
95 1 0.428556 0.428556 0.142913
22 1 0.5 0.214302 0.0714395
394 1 0.214324 0.5 0.214324
24 1 0.642848 0.214297 0.0714393
94 1 0.285743 0.428596 0.142913
26 1 0.785708 0.214292 0.0714322
93 1 0.142869 0.428566 0.142869
28 1 0.92857 0.214287 0.0714295
92 1 1 0.428571 0.142858
30 1 0.0714291 0.357144 0.0714291
348 1 0.642843 0.5 0.0714644
32 1 0.214297 0.357152 0.0714393
344 1 0.0714307 0.5 0.0714307
34 1 0.357141 0.357141 0.0714469
91 1 0.928561 0.357152 0.214297
36 1 0.5 0.357157 0.0714644
90 1 0.857128 0.285724 0.142872
38 1 0.642859 0.357141 0.0714469
89 1 0.785677 0.357176 0.214323
40 1 0.785703 0.357152 0.0714393
106 1 1 0.14286 0.285717
42 1 0.928571 0.357144 0.0714291
107 1 0.142872 0.142872 0.285724
108 1 0.28572 0.142886 0.28572
109 1 0.428596 0.142913 0.285743
110 1 0.571404 0.142913 0.285743
111 1 0.71428 0.142886 0.28572
112 1 0.857128 0.142872 0.285724
98 1 0.857131 0.428566 0.142869
119 1 0.857114 0.28572 0.28572
51 1 0.0714295 0.0714295 0.214287
118 1 0.714137 0.285863 0.285863
53 1 0.214292 0.0714322 0.214292
117 1 0.571324 0.285892 0.285892
55 1 0.357152 0.0714393 0.214297
116 1 0.428676 0.285892 0.285892
57 1 0.5 0.0714395 0.214302
115 1 0.285863 0.285863 0.285863
59 1 0.642848 0.0714393 0.214297
114 1 0.142886 0.28572 0.28572
61 1 0.785708 0.0714322 0.214292
113 1 1 0.285725 0.285725
63 1 0.92857 0.0714295 0.214287
64 1 1 0.142861 0.142861
65 1 0.0714322 0.214292 0.214292
66 1 0.142862 0.142862 0.142862
67 1 0.214326 0.214326 0.214326
68 1 0.285724 0.142872 0.142872
69 1 0.357176 0.214323 0.214323
70 1 0.428566 0.142869 0.142869
71 1 0.5 0.214324 0.214324
72 1 0.571434 0.142869 0.142869
73 1 0.642824 0.214323 0.214323
74 1 0.714276 0.142872 0.142872
75 1 0.785674 0.214326 0.214326
76 1 0.857138 0.142862 0.142862
77 1 0.928568 0.214292 0.214292
78 1 1 0.285717 0.14286
79 1 0.0714393 0.357152 0.214297
80 1 0.142872 0.285724 0.142872
81 1 0.214323 0.357176 0.214323
82 1 0.28572 0.28572 0.142886
83 1 0.35716 0.35716 0.214394
84 1 0.428596 0.285743 0.142913
85 1 0.5 0.357232 0.214488
86 1 0.571404 0.285743 0.142913
87 1 0.64284 0.35716 0.214394
88 1 0.71428 0.28572 0.142886
345 1 0.214302 0.5 0.0714395
346 1 0.357157 0.5 0.0714644
350 1 0.928569 0.5 0.0714307
393 1 0.0714395 0.5 0.214302
395 1 0.357232 0.5 0.214488
397 1 0.642768 0.5 0.214488
127 1 0.0714291 0.0714291 0.357144
128 1 0.214297 0.0714393 0.357152
129 1 0.357141 0.0714469 0.357141
130 1 0.5 0.0714644 0.357157
131 1 0.642859 0.0714469 0.357141
132 1 0.785703 0.0714393 0.357152
133 1 0.928571 0.0714291 0.357144
134 1 0.0714393 0.214297 0.357152
135 1 0.214323 0.214323 0.357176
136 1 0.35716 0.214394 0.35716
137 1 0.5 0.214488 0.357232
138 1 0.64284 0.214394 0.35716
139 1 0.785677 0.214323 0.357176
140 1 0.928561 0.214297 0.357152
141 1 0.0714469 0.357141 0.357141
142 1 0.214394 0.35716 0.35716
143 1 0.357599 0.357599 0.357599
144 1 0.5 0.357974 0.357974
145 1 0.642401 0.357599 0.357599
146 1 0.785606 0.35716 0.35716
147 1 0.928553 0.357141 0.357141
245 1 0.857087 0.428556 0.571444
149 1 0.0714307 0.0714307 0.5
244 1 0.714085 0.428494 0.571506
151 1 0.214302 0.0714395 0.5
243 1 0.570197 0.429803 0.570197
153 1 0.357157 0.0714644 0.5
242 1 0.429803 0.429803 0.570197
155 1 0.5 0.0714288 0.5
241 1 0.285915 0.428494 0.571506
157 1 0.642843 0.0714644 0.5
240 1 0.142913 0.428556 0.571444
159 1 0.785698 0.0714395 0.5
239 1 1 0.428571 0.571429
161 1 0.928569 0.0714307 0.5
162 1 1 0.142858 0.428571
163 1 0.0714395 0.214302 0.5
164 1 0.142869 0.142869 0.428566
165 1 0.214324 0.214324 0.5
166 1 0.285743 0.142913 0.428596
167 1 0.357232 0.214488 0.5
168 1 0.428556 0.142913 0.428556
169 1 0.5 0.214059 0.5
170 1 0.571444 0.142913 0.428556
171 1 0.642768 0.214488 0.5
172 1 0.714257 0.142913 0.428596
173 1 0.785676 0.214324 0.5
174 1 0.857131 0.142869 0.428566
175 1 0.92856 0.214302 0.5
176 1 1 0.285726 0.428574
177 1 0.0714644 0.357157 0.5
178 1 0.142913 0.285743 0.428596
179 1 0.214488 0.357232 0.5
180 1 0.285892 0.285892 0.428676
181 1 0.357974 0.357974 0.5
182 1 0.428494 0.285915 0.428494
183 1 0.5 0.35533 0.5
184 1 0.571506 0.285915 0.428494
185 1 0.642026 0.357974 0.5
186 1 0.714108 0.285892 0.428676
187 1 0.785512 0.357232 0.5
188 1 0.857087 0.285743 0.428596
189 1 0.928536 0.357157 0.5
190 1 1 0.428571 0.428571
191 1 0.142913 0.428556 0.428556
192 1 0.285915 0.428494 0.428494
193 1 0.429803 0.429803 0.429803
194 1 0.570197 0.429803 0.429803
195 1 0.714085 0.428494 0.428494
196 1 0.857087 0.428556 0.428556
238 1 0.928553 0.357141 0.642859
198 1 0.0714291 0.0714291 0.642856
237 1 0.857087 0.285743 0.571404
200 1 0.214297 0.0714393 0.642848
236 1 0.785606 0.35716 0.64284
202 1 0.357141 0.0714469 0.642859
235 1 0.714108 0.285892 0.571324
204 1 0.5 0.0714644 0.642843
234 1 0.642401 0.357599 0.642401
206 1 0.642859 0.0714469 0.642859
233 1 0.571506 0.285915 0.571506
208 1 0.785703 0.0714393 0.642848
232 1 0.5 0.357974 0.642026
210 1 0.928571 0.0714291 0.642856
211 1 1 0.142858 0.571429
212 1 0.0714393 0.214297 0.642848
213 1 0.142869 0.142869 0.571434
214 1 0.214323 0.214323 0.642824
215 1 0.285743 0.142913 0.571404
216 1 0.35716 0.214394 0.64284
217 1 0.428556 0.142913 0.571444
218 1 0.5 0.214488 0.642768
219 1 0.571444 0.142913 0.571444
220 1 0.64284 0.214394 0.64284
221 1 0.714257 0.142913 0.571404
222 1 0.785677 0.214323 0.642824
223 1 0.857131 0.142869 0.571434
224 1 0.928561 0.214297 0.642848
225 1 1 0.285726 0.571426
226 1 0.0714469 0.357141 0.642859
227 1 0.142913 0.285743 0.571404
228 1 0.214394 0.35716 0.64284
229 1 0.285892 0.285892 0.571324
230 1 0.357599 0.357599 0.642401
231 1 0.428494 0.285915 0.571506
546 1 0.928536 0.5 0.642843
540 1 0.0714644 0.5 0.642843
469 1 0.928536 0.5 0.357157
466 1 0.5 0.5 0.35533
468 1 0.785512 0.5 0.357232
541 1 0.214488 0.5 0.642768
545 1 0.785512 0.5 0.642768
464 1 0.214488 0.5 0.357232
493 1 0.35533 0.5 0.5
495 1 0.64467 0.5 0.5
496 1 0.785941 0.5 0.5
543 1 0.5 0.5 0.64467
343 1 0.857131 0.428566 0.857131
247 1 0.0714295 0.0714295 0.785713
342 1 0.714257 0.428596 0.857087
249 1 0.214292 0.0714322 0.785708
341 1 0.571444 0.428556 0.857087
251 1 0.357152 0.0714393 0.785703
340 1 0.428556 0.428556 0.857087
253 1 0.5 0.0714395 0.785698
339 1 0.285743 0.428596 0.857087
255 1 0.642848 0.0714393 0.785703
338 1 0.142869 0.428566 0.857131
257 1 0.785708 0.0714322 0.785708
337 1 1 0.428571 0.857142
259 1 0.92857 0.0714295 0.785713
260 1 1 0.14286 0.714283
261 1 0.0714322 0.214292 0.785708
262 1 0.142872 0.142872 0.714276
263 1 0.214326 0.214326 0.785674
264 1 0.28572 0.142886 0.71428
265 1 0.357176 0.214323 0.785677
266 1 0.428596 0.142913 0.714257
267 1 0.5 0.214324 0.785676
268 1 0.571404 0.142913 0.714257
269 1 0.642824 0.214323 0.785677
270 1 0.71428 0.142886 0.71428
271 1 0.785674 0.214326 0.785674
272 1 0.857128 0.142872 0.714276
273 1 0.928568 0.214292 0.785708
274 1 1 0.285725 0.714275
275 1 0.0714393 0.357152 0.785703
276 1 0.142886 0.28572 0.71428
277 1 0.214323 0.357176 0.785677
278 1 0.285863 0.285863 0.714137
279 1 0.35716 0.35716 0.785606
280 1 0.428676 0.285892 0.714108
281 1 0.5 0.357232 0.785512
282 1 0.571324 0.285892 0.714108
283 1 0.64284 0.35716 0.785606
284 1 0.714137 0.285863 0.714137
285 1 0.785677 0.357176 0.785677
286 1 0.857114 0.28572 0.71428
287 1 0.928561 0.357152 0.785703
288 1 1 0.428574 0.714274
289 1 0.142913 0.428596 0.714257
290 1 0.285892 0.428676 0.714108
291 1 0.428494 0.428494 0.714085
292 1 0.571506 0.428494 0.714085
293 1 0.714108 0.428676 0.714108
294 1 0.857087 0.428596 0.714257
336 1 0.928571 0.357144 0.928571
296 1 0.0714296 0.0714296 0.92857
335 1 0.857128 0.285724 0.857128
298 1 0.214287 0.0714295 0.92857
334 1 0.785703 0.357152 0.928561
300 1 0.357144 0.0714291 0.928571
333 1 0.71428 0.28572 0.857114
302 1 0.5 0.0714307 0.928569
332 1 0.642859 0.357141 0.928553
304 1 0.642856 0.0714291 0.928571
331 1 0.571404 0.285743 0.857087
306 1 0.785713 0.0714295 0.92857
330 1 0.5 0.357157 0.928536
308 1 0.92857 0.0714296 0.92857
309 1 1 0.142861 0.857139
310 1 0.0714295 0.214287 0.92857
311 1 0.142862 0.142862 0.857138
312 1 0.214292 0.214292 0.928568
313 1 0.285724 0.142872 0.857128
314 1 0.357152 0.214297 0.928561
315 1 0.428566 0.142869 0.857131
316 1 0.5 0.214302 0.92856
317 1 0.571434 0.142869 0.857131
318 1 0.642848 0.214297 0.928561
319 1 0.714276 0.142872 0.857128
320 1 0.785708 0.214292 0.928568
321 1 0.857138 0.142862 0.857138
322 1 0.92857 0.214287 0.92857
323 1 1 0.285717 0.85714
324 1 0.0714291 0.357144 0.928571
325 1 0.142872 0.285724 0.857128
326 1 0.214297 0.357152 0.928561
327 1 0.28572 0.28572 0.857114
328 1 0.357141 0.357141 0.928553
329 1 0.428596 0.285743 0.857087
641 1 0.642843 0.5 0.928536
589 1 0.214324 0.5 0.785676
590 1 0.357232 0.5 0.785512
639 1 0.357157 0.5 0.928536
593 1 0.785676 0.5 0.785676
47 1 0.571429 0.428571 1
46 1 0.428571 0.428571 1
591 1 0.5 0.5 0.785941
643 1 0.928569 0.5 0.928569
637 1 0.0714307 0.5 0.928569
592 1 0.642768 0.5 0.785512
35 1 0.428574 0.285726 1
37 1 0.571426 0.285726 1
39 1 0.714275 0.285725 1
41 1 0.85714 0.285717 1
33 1 0.285725 0.285725 1
31 1 0.14286 0.285717 1
29 1 1 0.285716 1
27 1 0.857139 0.142861 1
44 1 0.142858 0.428571 1
45 1 0.285726 0.428574 1
48 1 0.714274 0.428574 1
49 1 0.857142 0.428571 1
43 1 1 0.428572 1
15 1 1 0.142857 1
17 1 0.142861 0.142861 1
19 1 0.285717 0.14286 1
21 1 0.428571 0.142858 1
23 1 0.571429 0.142858 1
25 1 0.714283 0.14286 1
462 1 0.857128 0.857128 0.285724
461 1 0.71428 0.857114 0.28572
460 1 0.571404 0.857087 0.285743
459 1 0.428596 0.857087 0.285743
458 1 0.28572 0.857114 0.28572
457 1 0.142872 0.857128 0.285724
456 1 1 0.85714 0.285717
442 1 1 0.571426 0.285726
352 1 0.0714291 0.642856 0.0714291
441 1 0.92857 0.92857 0.214287
354 1 0.214297 0.642848 0.0714393
440 1 0.857138 0.857138 0.142862
356 1 0.357141 0.642859 0.0714469
439 1 0.785708 0.928568 0.214292
358 1 0.5 0.642843 0.0714644
438 1 0.714276 0.857128 0.142872
360 1 0.642859 0.642859 0.0714469
437 1 0.642848 0.928561 0.214297
362 1 0.785703 0.642848 0.0714393
436 1 0.571434 0.857131 0.142869
364 1 0.928571 0.642856 0.0714291
435 1 0.5 0.92856 0.214302
366 1 0.0714295 0.785713 0.0714295
434 1 0.428566 0.857131 0.142869
368 1 0.214292 0.785708 0.0714322
433 1 0.357152 0.928561 0.214297
370 1 0.357152 0.785703 0.0714393
432 1 0.285724 0.857128 0.142872
372 1 0.5 0.785698 0.0714395
431 1 0.214292 0.928568 0.214292
374 1 0.642848 0.785703 0.0714393
430 1 0.142862 0.857138 0.142862
376 1 0.785708 0.785708 0.0714322
429 1 0.0714295 0.92857 0.214287
378 1 0.92857 0.785713 0.0714295
449 1 1 0.714275 0.285725
380 1 0.0714296 0.92857 0.0714296
448 1 0.857087 0.571404 0.285743
382 1 0.214287 0.92857 0.0714295
447 1 0.714108 0.571324 0.285892
384 1 0.357144 0.928571 0.0714291
446 1 0.571506 0.571506 0.285915
386 1 0.5 0.928569 0.0714307
445 1 0.428494 0.571506 0.285915
388 1 0.642856 0.928571 0.0714291
444 1 0.285892 0.571324 0.285892
390 1 0.785713 0.92857 0.0714295
443 1 0.142913 0.571404 0.285743
392 1 0.92857 0.92857 0.0714296
455 1 0.857114 0.71428 0.28572
454 1 0.714137 0.714137 0.285863
453 1 0.571324 0.714108 0.285892
396 1 0.5 0.5 0.214059
452 1 0.428676 0.714108 0.285892
451 1 0.285863 0.714137 0.285863
450 1 0.142886 0.71428 0.28572
400 1 1 0.571429 0.142858
401 1 0.0714393 0.642848 0.214297
402 1 0.142869 0.571434 0.142869
403 1 0.214323 0.642824 0.214323
404 1 0.285743 0.571404 0.142913
405 1 0.35716 0.64284 0.214394
406 1 0.428556 0.571444 0.142913
407 1 0.5 0.642768 0.214488
408 1 0.571444 0.571444 0.142913
409 1 0.64284 0.64284 0.214394
410 1 0.714257 0.571404 0.142913
411 1 0.785677 0.642824 0.214323
412 1 0.857131 0.571434 0.142869
413 1 0.928561 0.642848 0.214297
414 1 1 0.714283 0.14286
415 1 0.0714322 0.785708 0.214292
416 1 0.142872 0.714276 0.142872
417 1 0.214326 0.785674 0.214326
418 1 0.28572 0.71428 0.142886
419 1 0.357176 0.785677 0.214323
420 1 0.428596 0.714257 0.142913
421 1 0.5 0.785676 0.214324
422 1 0.571404 0.714257 0.142913
423 1 0.642824 0.785677 0.214323
424 1 0.71428 0.71428 0.142886
425 1 0.785674 0.785674 0.214326
426 1 0.857128 0.714276 0.142872
427 1 0.928568 0.785708 0.214292
428 1 1 0.857139 0.142861
399 1 0.92856 0.5 0.214302
50 1 1 1 0.142857
52 1 0.142861 1 0.142861
54 1 0.285717 1 0.14286
56 1 0.428571 1 0.142858
349 1 0.785698 0.5 0.0714395
58 1 0.571429 1 0.142858
60 1 0.714283 1 0.14286
62 1 0.857139 1 0.142861
99 1 1 1 0.285716
100 1 0.14286 1 0.285717
101 1 0.285725 1 0.285725
102 1 0.428574 1 0.285726
103 1 0.571426 1 0.285726
104 1 0.714275 1 0.285725
105 1 0.85714 1 0.285717
347 1 0.5 0.5 0.0714288
686 2 0.5 0.5 0.5
587 1 0.857131 0.857131 0.571434
205 1 0.571429 1 0.571429
463 1 0.0714644 0.5 0.357157
203 1 0.428571 1 0.571429
586 1 0.785703 0.928561 0.642848
585 1 0.714257 0.857087 0.571404
470 1 0.0714469 0.642859 0.357141
471 1 0.214394 0.64284 0.35716
472 1 0.357599 0.642401 0.357599
473 1 0.5 0.642026 0.357974
474 1 0.642401 0.642401 0.357599
475 1 0.785606 0.64284 0.35716
476 1 0.928553 0.642859 0.357141
477 1 0.0714393 0.785703 0.357152
478 1 0.214323 0.785677 0.357176
479 1 0.35716 0.785606 0.35716
480 1 0.5 0.785512 0.357232
481 1 0.64284 0.785606 0.35716
482 1 0.785677 0.785677 0.357176
483 1 0.928561 0.785703 0.357152
484 1 0.0714291 0.928571 0.357144
485 1 0.214297 0.928561 0.357152
486 1 0.357141 0.928553 0.357141
487 1 0.5 0.928536 0.357157
488 1 0.642859 0.928553 0.357141
489 1 0.785703 0.928561 0.357152
490 1 0.928571 0.928571 0.357144
584 1 0.642859 0.928553 0.642859
492 1 0.214059 0.5 0.5
578 1 0.214297 0.928561 0.642848
494 1 0.928571 0.928571 0.642856
577 1 0.142869 0.857131 0.571434
576 1 0.0714291 0.928571 0.642856
583 1 0.571444 0.857087 0.571444
498 1 1 0.571429 0.428571
499 1 0.0714644 0.642843 0.5
500 1 0.142913 0.571444 0.428556
501 1 0.214488 0.642768 0.5
502 1 0.285915 0.571506 0.428494
503 1 0.357974 0.642026 0.5
504 1 0.429803 0.570197 0.429803
505 1 0.5 0.64467 0.5
506 1 0.570197 0.570197 0.429803
507 1 0.642026 0.642026 0.5
508 1 0.714085 0.571506 0.428494
509 1 0.785512 0.642768 0.5
510 1 0.857087 0.571444 0.428556
511 1 0.928536 0.642843 0.5
512 1 1 0.714274 0.428574
513 1 0.0714395 0.785698 0.5
514 1 0.142913 0.714257 0.428596
515 1 0.214324 0.785676 0.5
516 1 0.285892 0.714108 0.428676
517 1 0.357232 0.785512 0.5
518 1 0.428494 0.714085 0.428494
519 1 0.5 0.785941 0.5
520 1 0.571506 0.714085 0.428494
521 1 0.642768 0.785512 0.5
522 1 0.714108 0.714108 0.428676
523 1 0.785676 0.785676 0.5
524 1 0.857087 0.714257 0.428596
525 1 0.92856 0.785698 0.5
526 1 1 0.857142 0.428571
527 1 0.0714307 0.928569 0.5
528 1 0.142869 0.857131 0.428566
529 1 0.214302 0.92856 0.5
530 1 0.285743 0.857087 0.428596
531 1 0.357157 0.928536 0.5
532 1 0.428556 0.857087 0.428556
533 1 0.5 0.928571 0.5
534 1 0.571444 0.857087 0.428556
535 1 0.642843 0.928536 0.5
536 1 0.714257 0.857087 0.428596
537 1 0.785698 0.92856 0.5
538 1 0.857131 0.857131 0.428566
539 1 0.928569 0.928569 0.5
582 1 0.5 0.928536 0.642843
581 1 0.428556 0.857087 0.571444
156 1 0.571429 1 0.428571
575 1 1 0.857142 0.571429
154 1 0.428571 1 0.428571
580 1 0.357141 0.928553 0.642859
579 1 0.285743 0.857087 0.571404
547 1 1 0.571429 0.571429
548 1 0.0714469 0.642859 0.642859
549 1 0.142913 0.571444 0.571444
550 1 0.214394 0.64284 0.64284
551 1 0.285915 0.571506 0.571506
552 1 0.357599 0.642401 0.642401
553 1 0.429803 0.570197 0.570197
554 1 0.5 0.642026 0.642026
555 1 0.570197 0.570197 0.570197
556 1 0.642401 0.642401 0.642401
557 1 0.714085 0.571506 0.571506
558 1 0.785606 0.64284 0.64284
559 1 0.857087 0.571444 0.571444
560 1 0.928553 0.642859 0.642859
561 1 1 0.714274 0.571426
562 1 0.0714393 0.785703 0.642848
563 1 0.142913 0.714257 0.571404
564 1 0.214323 0.785677 0.642824
565 1 0.285892 0.714108 0.571324
566 1 0.35716 0.785606 0.64284
567 1 0.428494 0.714085 0.571506
568 1 0.5 0.785512 0.642768
569 1 0.571506 0.714085 0.571506
570 1 0.64284 0.785606 0.64284
571 1 0.714108 0.714108 0.571324
572 1 0.785677 0.785677 0.642824
573 1 0.857087 0.714257 0.571404
574 1 0.928561 0.785703 0.642848
497 1 0.928571 0.5 0.5
150 1 0.142858 1 0.428571
152 1 0.285726 1 0.428574
148 1 1 1 0.428572
544 1 0.642026 0.5 0.642026
158 1 0.714274 1 0.428574
160 1 0.857142 1 0.428571
197 1 1 1 0.571428
199 1 0.142858 1 0.571429
201 1 0.285726 1 0.571426
542 1 0.357974 0.5 0.642026
467 1 0.642026 0.5 0.357974
207 1 0.714274 1 0.571426
209 1 0.857142 1 0.571429
465 1 0.357974 0.5 0.357974
491 1 0.0714288 0.5 0.5
685 1 0.92857 0.92857 0.92857
684 1 0.857138 0.857138 0.857138
683 1 0.785713 0.92857 0.92857
357 1 0.428571 0.571429 1
682 1 0.714276 0.857128 0.857128
681 1 0.642856 0.928571 0.928571
680 1 0.571434 0.857131 0.857131
595 1 1 0.571426 0.714274
596 1 0.0714393 0.642848 0.785703
597 1 0.142913 0.571404 0.714257
598 1 0.214323 0.642824 0.785677
599 1 0.285892 0.571324 0.714108
600 1 0.35716 0.64284 0.785606
601 1 0.428494 0.571506 0.714085
602 1 0.5 0.642768 0.785512
603 1 0.571506 0.571506 0.714085
604 1 0.64284 0.64284 0.785606
605 1 0.714108 0.571324 0.714108
606 1 0.785677 0.642824 0.785677
607 1 0.857087 0.571404 0.714257
608 1 0.928561 0.642848 0.785703
609 1 1 0.714275 0.714275
610 1 0.0714322 0.785708 0.785708
611 1 0.142886 0.71428 0.71428
612 1 0.214326 0.785674 0.785674
613 1 0.285863 0.714137 0.714137
614 1 0.357176 0.785677 0.785677
615 1 0.428676 0.714108 0.714108
616 1 0.5 0.785676 0.785676
617 1 0.571324 0.714108 0.714108
618 1 0.642824 0.785677 0.785677
619 1 0.714137 0.714137 0.714137
620 1 0.785674 0.785674 0.785674
621 1 0.857114 0.71428 0.71428
622 1 0.928568 0.785708 0.785708
623 1 1 0.85714 0.714283
624 1 0.0714295 0.92857 0.785713
625 1 0.142872 0.857128 0.714276
626 1 0.214292 0.928568 0.785708
627 1 0.28572 0.857114 0.71428
628 1 0.357152 0.928561 0.785703
629 1 0.428596 0.857087 0.714257
630 1 0.5 0.92856 0.785698
631 1 0.571404 0.857087 0.714257
632 1 0.642848 0.928561 0.785703
633 1 0.71428 0.857114 0.71428
634 1 0.785708 0.928568 0.785708
635 1 0.857128 0.857128 0.714276
636 1 0.92857 0.92857 0.785713
679 1 0.5 0.928569 0.928569
678 1 0.428566 0.857131 0.857131
677 1 0.357144 0.928571 0.928571
676 1 0.285724 0.857128 0.857128
675 1 0.214287 0.92857 0.92857
674 1 0.142862 0.857138 0.857138
673 1 0.0714296 0.92857 0.92857
644 1 1 0.571429 0.857142
645 1 0.0714291 0.642856 0.928571
646 1 0.142869 0.571434 0.857131
647 1 0.214297 0.642848 0.928561
648 1 0.285743 0.571404 0.857087
649 1 0.357141 0.642859 0.928553
650 1 0.428556 0.571444 0.857087
651 1 0.5 0.642843 0.928536
652 1 0.571444 0.571444 0.857087
653 1 0.642859 0.642859 0.928553
654 1 0.714257 0.571404 0.857087
655 1 0.785703 0.642848 0.928561
656 1 0.857131 0.571434 0.857131
657 1 0.928571 0.642856 0.928571
658 1 1 0.714283 0.85714
659 1 0.0714295 0.785713 0.92857
660 1 0.142872 0.714276 0.857128
661 1 0.214292 0.785708 0.928568
662 1 0.28572 0.71428 0.857114
663 1 0.357152 0.785703 0.928561
664 1 0.428596 0.714257 0.857087
665 1 0.5 0.785698 0.92856
666 1 0.571404 0.714257 0.857087
667 1 0.642848 0.785703 0.928561
668 1 0.71428 0.71428 0.857114
669 1 0.785708 0.785708 0.928568
670 1 0.857128 0.714276 0.857128
671 1 0.92857 0.785713 0.92857
672 1 1 0.857139 0.857139
359 1 0.571429 0.571429 1
642 1 0.785698 0.5 0.92856
638 1 0.214302 0.5 0.92856
588 1 0.0714395 0.5 0.785698
594 1 0.92856 0.5 0.785698
307 1 0.857139 1 0.857139
246 1 1 1 0.714284
248 1 0.14286 1 0.714283
250 1 0.285725 1 0.714275
252 1 0.428574 1 0.714274
254 1 0.571426 1 0.714274
256 1 0.714275 1 0.714275
258 1 0.85714 1 0.714283
295 1 1 1 0.857143
297 1 0.142861 1 0.857139
299 1 0.285717 1 0.85714
301 1 0.428571 1 0.857142
305 1 0.714283 1 0.85714
640 1 0.5 0.5 0.928571
303 1 0.571429 1 0.857142
371 1 0.428574 0.714274 1
369 1 0.285725 0.714275 1
367 1 0.14286 0.714283 1
365 1 1 0.714284 1
13 1 0.857143 1 1
11 1 0.714284 1 1
9 1 0.571428 1 1
7 1 0.428572 1 1
5 1 0.285716 1 1
3 1 0.142857 1 1
1 1 1 1 1
351 1 1 0.571428 1
353 1 0.142858 0.571429 1
355 1 0.285726 0.571426 1
391 1 0.857139 0.857139 1
389 1 0.714283 0.85714 1
387 1 0.571429 0.857142 1
385 1 0.428571 0.857142 1
383 1 0.285717 0.85714 1
381 1 0.142861 0.857139 1
379 1 1 0.857143 1
377 1 0.85714 0.714283 1
363 1 0.857142 0.571429 1
373 1 0.571426 0.714274 1
375 1 0.714275 0.714275 1
361 1 0.714274 0.571426 1
