ITEM: TIMESTEP
204
ITEM: NUMBER OF ATOMS
686
ITEM: BOX BOUNDS pp pp pp
0.0000000000000000e+00 2.2013900999999997e+01
0.0000000000000000e+00 2.2013900999999997e+01
0.0000000000000000e+00 2.2013900999999997e+01
ITEM: ATOMS id type xs ys zs
175 1 0.85711 0.428571 0.42856
2 1 0.0714294 0.0714294 0.0714294
174 1 0.714208 0.428505 0.428535
4 1 0.214288 0.0714333 0.0714311
173 1 0.570297 0.429703 0.429892
6 1 0.357143 0.0714328 0.0714366
172 1 0.429703 0.429703 0.429892
8 1 0.5 0.0714288 0.0714295
171 1 0.285792 0.428505 0.428535
10 1 0.642857 0.0714328 0.0714366
170 1 0.14289 0.428571 0.42856
12 1 0.785712 0.0714333 0.0714311
169 1 4.54838e-14 0.428557 0.428574
14 1 0.928571 0.0714294 0.0714294
448 1 0.928551 0.5 0.357154
16 1 0.0714333 0.214288 0.0714311
399 1 0.928554 0.5 0.214299
18 1 0.214295 0.214295 0.071438
344 1 0.0714288 0.5 0.0714295
20 1 0.357146 0.214296 0.0714462
347 1 0.5 0.5 0.0714904
22 1 0.5 0.214301 0.0714367
147 1 0.857111 0.428582 0.285725
24 1 0.642854 0.214296 0.0714462
146 1 0.714195 0.428605 0.285803
26 1 0.785705 0.214295 0.071438
145 1 0.571403 0.428597 0.286393
28 1 0.928567 0.214288 0.0714311
144 1 0.428597 0.428597 0.286393
30 1 0.0714328 0.357143 0.0714366
143 1 0.285805 0.428605 0.285803
32 1 0.214296 0.357146 0.0714462
33 1 0.28572 0.28572 3.43469e-06
34 1 0.35715 0.35715 0.0714634
345 1 0.214301 0.5 0.0714367
36 1 0.5 0.357168 0.0714782
447 1 0.785654 0.5 0.357203
38 1 0.64285 0.35715 0.0714634
39 1 0.71428 0.28572 3.43469e-06
40 1 0.785704 0.357146 0.0714462
142 1 0.142889 0.428582 0.285725
42 1 0.928567 0.357143 0.0714366
141 1 1 0.428576 0.28573
140 1 0.928567 0.357136 0.357144
394 1 0.21432 0.5 0.214306
46 1 0.428564 0.428564 1.09253e-05
47 1 0.571436 0.428564 1.09253e-05
395 1 0.357293 0.5 0.214534
139 1 0.857116 0.285721 0.285727
168 1 0.857088 0.285743 0.428594
51 1 0.0714316 0.0714316 0.214288
167 1 0.71413 0.28587 0.428693
53 1 0.214292 0.0714336 0.214291
166 1 0.571495 0.285792 0.428535
55 1 0.357149 0.0714354 0.21429
165 1 0.428505 0.285792 0.428535
57 1 0.5 0.0714457 0.214299
164 1 0.28587 0.28587 0.428693
59 1 0.642851 0.0714354 0.21429
163 1 0.142912 0.285743 0.428594
61 1 0.785708 0.0714336 0.214291
162 1 3.99602e-15 0.285738 0.428576
63 1 0.928568 0.0714316 0.214288
64 1 1 0.14286 0.14286
65 1 0.0714336 0.214292 0.214291
66 1 0.142866 0.142866 0.142865
67 1 0.214319 0.214319 0.214315
68 1 0.285714 0.142863 0.142863
69 1 0.357149 0.214317 0.214299
70 1 0.428572 0.142877 0.142871
71 1 0.5 0.21432 0.214306
72 1 0.571428 0.142877 0.142871
73 1 0.642851 0.214317 0.214299
74 1 0.714286 0.142863 0.142863
75 1 0.785681 0.214319 0.214315
76 1 0.857134 0.142866 0.142865
77 1 0.928566 0.214292 0.214291
78 1 1 0.285716 0.142863
79 1 0.0714354 0.357149 0.21429
80 1 0.142863 0.285714 0.142863
81 1 0.214317 0.357149 0.214299
82 1 0.285747 0.285747 0.142906
83 1 0.357241 0.357241 0.214466
84 1 0.428601 0.285748 0.142908
85 1 0.5 0.357293 0.214534
86 1 0.571399 0.285748 0.142908
87 1 0.642759 0.357241 0.214466
88 1 0.714253 0.285747 0.142906
89 1 0.785683 0.357149 0.214299
90 1 0.857137 0.285714 0.142863
91 1 0.928565 0.357149 0.21429
92 1 1 0.428572 0.142869
93 1 0.142877 0.428572 0.142871
94 1 0.285748 0.428601 0.142908
95 1 0.428579 0.428579 0.142998
96 1 0.571421 0.428579 0.142998
97 1 0.714252 0.428601 0.142908
98 1 0.857123 0.428572 0.142871
161 1 0.857128 0.142872 0.428575
100 1 0.0714305 0.0714305 0.357143
160 1 0.714257 0.142912 0.428594
102 1 0.214298 0.0714414 0.357147
159 1 0.571429 0.14289 0.42856
104 1 0.357136 0.0714327 0.357144
158 1 0.428571 0.14289 0.42856
106 1 0.5 0.0714494 0.357154
157 1 0.285743 0.142912 0.428594
108 1 0.642864 0.0714327 0.357144
156 1 0.142872 0.142872 0.428575
110 1 0.785702 0.0714414 0.357147
155 1 1 0.14286 0.428571
112 1 0.92857 0.0714305 0.357143
113 1 1 0.142864 0.285718
114 1 0.0714414 0.214298 0.357147
115 1 0.142865 0.142865 0.285717
116 1 0.214319 0.214319 0.357169
117 1 0.285721 0.142884 0.285727
118 1 0.357154 0.21437 0.357152
119 1 0.428582 0.142889 0.285725
120 1 0.5 0.214346 0.357203
121 1 0.571418 0.142889 0.285725
122 1 0.642846 0.21437 0.357152
123 1 0.714279 0.142884 0.285727
124 1 0.785681 0.214319 0.357169
125 1 0.857135 0.142865 0.285717
126 1 0.928559 0.214298 0.357147
127 1 1 0.285721 0.285719
128 1 0.0714327 0.357136 0.357144
129 1 0.142884 0.285721 0.285727
130 1 0.21437 0.357154 0.357152
131 1 0.285829 0.285829 0.285833
132 1 0.357506 0.357506 0.357554
133 1 0.428605 0.285805 0.285803
134 1 0.5 0.357276 0.357612
135 1 0.571395 0.285805 0.285803
136 1 0.642494 0.357506 0.357554
137 1 0.714171 0.285829 0.285833
138 1 0.78563 0.357154 0.357152
686 2 0.5 0.5 0.45788
393 1 0.0714457 0.5 0.214299
150 1 0.285738 4.1395e-15 0.428576
350 1 0.928571 0.5 0.0714295
349 1 0.785699 0.5 0.0714367
152 1 0.571443 2.84233e-14 0.428574
189 1 0.928557 0.214296 0.499999
183 1 0.0714426 0.214296 0.499999
181 1 0.785704 0.0714426 0.499999
177 1 0.214296 0.0714426 0.499999
153 1 0.714262 4.84141e-15 0.428576
151 1 0.428557 4.50006e-14 0.428574
176 1 0.07143 0.07143 0.5
48 1 0.714265 0.428581 9.0176e-06
45 1 0.285735 0.428581 9.0176e-06
182 1 0.92857 0.07143 0.5
37 1 0.571419 0.285735 9.0176e-06
35 1 0.428581 0.285735 9.0176e-06
517 1 0.785927 0.5 0.50003
513 1 0.214073 0.5 0.50003
178 1 0.357144 0.0714553 0.500001
179 1 0.5 0.0714491 0.500004
180 1 0.642856 0.0714553 0.500001
644 1 0.928564 0.5 0.928565
590 1 0.214315 0.5 0.785685
591 1 0.357217 0.5 0.785571
184 1 0.214326 0.214326 0.5
185 1 0.357231 0.214479 0.500019
186 1 0.5 0.214073 0.50003
187 1 0.642769 0.214479 0.500019
188 1 0.785674 0.214326 0.5
638 1 0.0714358 0.5 0.928565
190 1 0.0714553 0.357144 0.500001
191 1 0.214479 0.357231 0.500019
640 1 0.357151 0.5 0.928546
193 1 0.5 0.355484 0.500194
642 1 0.642849 0.5 0.928546
195 1 0.785521 0.357231 0.500019
196 1 0.928545 0.357144 0.500001
343 1 0.857132 0.428578 0.857133
198 1 0.07143 0.07143 0.642856
342 1 0.714264 0.428584 0.857105
200 1 0.2143 0.0714491 0.642846
341 1 0.571435 0.428565 0.85709
202 1 0.357138 0.0714351 0.642855
340 1 0.428565 0.428565 0.85709
204 1 0.5 0.0714542 0.642851
339 1 0.285736 0.428584 0.857105
206 1 0.642862 0.0714351 0.642855
338 1 0.142868 0.428578 0.857133
208 1 0.7857 0.0714491 0.642846
337 1 1 0.428568 0.85714
210 1 0.92857 0.07143 0.642856
211 1 1 0.14286 0.571432
212 1 0.0714491 0.2143 0.642846
213 1 0.142876 0.142876 0.571426
214 1 0.214324 0.214324 0.642843
215 1 0.285734 0.142914 0.571408
216 1 0.357163 0.2144 0.642835
217 1 0.42856 0.142918 0.571443
218 1 0.5 0.214419 0.642783
219 1 0.57144 0.142918 0.571443
220 1 0.642837 0.2144 0.642835
221 1 0.714266 0.142914 0.571408
222 1 0.785676 0.214324 0.642843
223 1 0.857124 0.142876 0.571426
224 1 0.928551 0.2143 0.642846
225 1 1 0.285732 0.571424
226 1 0.0714351 0.357138 0.642855
227 1 0.142914 0.285734 0.571408
228 1 0.2144 0.357163 0.642835
229 1 0.285895 0.285895 0.571325
230 1 0.357614 0.357614 0.642414
231 1 0.42848 0.285926 0.571539
232 1 0.5 0.357547 0.642503
233 1 0.57152 0.285926 0.571539
234 1 0.642386 0.357614 0.642414
235 1 0.714105 0.285895 0.571325
236 1 0.7856 0.357163 0.642835
237 1 0.857086 0.285734 0.571408
238 1 0.928565 0.357138 0.642855
239 1 1 0.428559 0.571438
240 1 0.142918 0.42856 0.571443
241 1 0.285926 0.42848 0.571539
242 1 0.429884 0.429884 0.570446
243 1 0.570116 0.429884 0.570446
244 1 0.714074 0.42848 0.571539
245 1 0.857082 0.42856 0.571443
336 1 0.928564 0.357145 0.928565
247 1 0.0714327 0.0714327 0.785712
335 1 0.857132 0.285714 0.857134
249 1 0.214293 0.0714333 0.785706
334 1 0.785701 0.357152 0.928557
251 1 0.357151 0.0714367 0.785706
333 1 0.714268 0.285732 0.857107
253 1 0.5 0.0714396 0.785701
332 1 0.64286 0.35714 0.928554
255 1 0.642849 0.0714367 0.785706
331 1 0.571416 0.285736 0.857105
257 1 0.785707 0.0714333 0.785706
330 1 0.5 0.357151 0.928546
259 1 0.928567 0.0714327 0.785712
260 1 1 0.142864 0.714285
261 1 0.0714333 0.214293 0.785706
262 1 0.142878 0.142878 0.714278
263 1 0.214325 0.214325 0.785673
264 1 0.285717 0.142889 0.714276
265 1 0.35715 0.214313 0.785692
266 1 0.428592 0.142897 0.714264
267 1 0.5 0.214315 0.785685
268 1 0.571408 0.142897 0.714264
269 1 0.64285 0.214313 0.785692
270 1 0.714283 0.142889 0.714276
271 1 0.785675 0.214325 0.785673
272 1 0.857122 0.142878 0.714278
273 1 0.928567 0.214293 0.785706
274 1 1 0.285721 0.714278
275 1 0.0714367 0.357151 0.785706
276 1 0.142889 0.285717 0.714276
277 1 0.214313 0.35715 0.785692
278 1 0.285854 0.285854 0.714133
279 1 0.357166 0.357166 0.785617
280 1 0.428614 0.285818 0.714192
281 1 0.5 0.357217 0.785571
282 1 0.571386 0.285818 0.714192
283 1 0.642834 0.357166 0.785617
284 1 0.714146 0.285854 0.714133
285 1 0.785687 0.35715 0.785692
286 1 0.857111 0.285717 0.714276
287 1 0.928563 0.357151 0.785706
288 1 1 0.428582 0.714265
289 1 0.142897 0.428592 0.714264
290 1 0.285818 0.428614 0.714192
291 1 0.428508 0.428508 0.714084
292 1 0.571492 0.428508 0.714084
293 1 0.714182 0.428614 0.714192
294 1 0.857103 0.428592 0.714264
329 1 0.428584 0.285736 0.857105
296 1 0.07143 0.07143 0.92857
328 1 0.35714 0.35714 0.928554
298 1 0.214288 0.0714329 0.928567
327 1 0.285732 0.285732 0.857107
300 1 0.357145 0.0714357 0.928565
326 1 0.214299 0.357152 0.928557
302 1 0.5 0.0714358 0.928565
325 1 0.142868 0.285714 0.857134
304 1 0.642855 0.0714357 0.928565
324 1 0.0714357 0.357145 0.928565
306 1 0.785712 0.0714329 0.928567
323 1 1 0.285716 0.857134
308 1 0.92857 0.07143 0.92857
309 1 1 0.142861 0.857139
310 1 0.0714329 0.214288 0.928567
311 1 0.142865 0.142865 0.857133
312 1 0.214296 0.214296 0.928566
313 1 0.285714 0.142868 0.857134
314 1 0.357152 0.214299 0.928557
315 1 0.428578 0.142868 0.857133
316 1 0.5 0.214292 0.928556
317 1 0.571422 0.142868 0.857133
318 1 0.642848 0.214299 0.928557
319 1 0.714286 0.142868 0.857134
320 1 0.785704 0.214296 0.928566
321 1 0.857135 0.142865 0.857133
322 1 0.928567 0.214288 0.928567
512 1 0.0714491 0.5 0.500004
43 1 1 0.428572 1
514 1 0.355484 0.5 0.500194
516 1 0.644516 0.5 0.500194
15 1 1 0.142857 1
518 1 0.928551 0.5 0.500004
17 1 0.142862 0.142862 1
541 1 0.214419 0.5 0.642783
592 1 0.5 0.5 0.785908
29 1 1 0.285715 1
27 1 0.857138 0.142862 1
545 1 0.785581 0.5 0.642783
194 1 0.642119 0.357881 0.500025
192 1 0.357881 0.357881 0.500025
19 1 0.285714 0.142864 1
21 1 0.428572 0.142864 0.999997
23 1 0.571428 0.142864 0.999997
25 1 0.714286 0.142864 1
31 1 0.142864 0.285714 1
41 1 0.857136 0.285714 1
44 1 0.142864 0.428572 0.999997
49 1 0.857136 0.428572 0.999997
154 1 0.85714 1 0.428571
511 1 0.857128 0.857128 0.428575
510 1 0.714257 0.857088 0.428594
509 1 0.571429 0.85711 0.42856
508 1 0.428571 0.85711 0.42856
507 1 0.285743 0.857088 0.428594
506 1 0.142872 0.857128 0.428575
148 1 1 1 0.428572
352 1 0.0714328 0.642857 0.0714366
494 1 0.429703 0.570297 0.429892
354 1 0.214296 0.642854 0.0714462
111 1 0.857136 1 0.285718
356 1 0.35715 0.64285 0.0714634
357 1 0.428564 0.571436 1.09253e-05
358 1 0.5 0.642832 0.0714782
359 1 0.571436 0.571436 1.09253e-05
360 1 0.64285 0.64285 0.0714634
109 1 0.714279 1 0.285719
362 1 0.785704 0.642854 0.0714462
493 1 0.285792 0.571495 0.428535
364 1 0.928567 0.642857 0.0714366
492 1 0.14289 0.571429 0.42856
366 1 0.0714333 0.785712 0.0714311
491 1 2.83328e-14 0.571443 0.428574
368 1 0.214295 0.785705 0.071438
369 1 0.28572 0.71428 3.43469e-06
370 1 0.357146 0.785704 0.0714462
99 1 1 1 0.285716
372 1 0.5 0.785699 0.0714367
62 1 0.85714 1 0.14286
374 1 0.642854 0.785704 0.0714462
375 1 0.71428 0.71428 3.43469e-06
376 1 0.785705 0.785705 0.071438
490 1 0.92857 0.92857 0.357143
378 1 0.928567 0.785712 0.0714311
489 1 0.857135 0.857135 0.285717
380 1 0.0714294 0.928571 0.0714294
488 1 0.785702 0.928559 0.357147
382 1 0.214288 0.928567 0.0714311
487 1 0.714279 0.857116 0.285727
384 1 0.357143 0.928567 0.0714366
486 1 0.642864 0.928567 0.357144
386 1 0.5 0.928571 0.0714295
485 1 0.571418 0.857111 0.285725
388 1 0.642857 0.928567 0.0714366
484 1 0.5 0.928551 0.357154
390 1 0.785712 0.928567 0.0714311
483 1 0.428582 0.857111 0.285725
392 1 0.928571 0.928571 0.0714294
505 1 1 0.85714 0.428571
60 1 0.714284 1 0.142863
504 1 0.857088 0.714257 0.428594
396 1 0.5 0.5 0.214084
503 1 0.71413 0.71413 0.428693
502 1 0.571495 0.714208 0.428535
501 1 0.428505 0.714208 0.428535
400 1 1 0.571428 0.142869
401 1 0.0714354 0.642851 0.21429
402 1 0.142877 0.571428 0.142871
403 1 0.214317 0.642851 0.214299
404 1 0.285748 0.571399 0.142908
405 1 0.357241 0.642759 0.214466
406 1 0.428579 0.571421 0.142998
407 1 0.5 0.642707 0.214534
408 1 0.571421 0.571421 0.142998
409 1 0.642759 0.642759 0.214466
410 1 0.714252 0.571399 0.142908
411 1 0.785683 0.642851 0.214299
412 1 0.857123 0.571428 0.142871
413 1 0.928565 0.642851 0.21429
414 1 1 0.714284 0.142863
415 1 0.0714336 0.785708 0.214291
416 1 0.142863 0.714286 0.142863
417 1 0.214319 0.785681 0.214315
418 1 0.285747 0.714253 0.142906
419 1 0.357149 0.785683 0.214299
420 1 0.428601 0.714252 0.142908
421 1 0.5 0.78568 0.214306
422 1 0.571399 0.714252 0.142908
423 1 0.642851 0.785683 0.214299
424 1 0.714253 0.714253 0.142906
425 1 0.785681 0.785681 0.214315
426 1 0.857137 0.714286 0.142863
427 1 0.928566 0.785708 0.214291
428 1 1 0.85714 0.14286
429 1 0.0714316 0.928568 0.214288
430 1 0.142866 0.857134 0.142865
431 1 0.214292 0.928566 0.214291
432 1 0.285714 0.857137 0.142863
433 1 0.357149 0.928565 0.21429
434 1 0.428572 0.857123 0.142871
435 1 0.5 0.928554 0.214299
436 1 0.571428 0.857123 0.142871
437 1 0.642851 0.928565 0.21429
438 1 0.714286 0.857137 0.142863
439 1 0.785708 0.928566 0.214291
440 1 0.857134 0.857134 0.142865
441 1 0.928568 0.928568 0.214288
500 1 0.28587 0.71413 0.428693
499 1 0.142912 0.714257 0.428594
498 1 4.99198e-15 0.714262 0.428576
445 1 0.5 0.5 0.355513
497 1 0.85711 0.571429 0.42856
496 1 0.714208 0.571495 0.428535
495 1 0.570297 0.570297 0.429892
449 1 1 0.571424 0.28573
450 1 0.0714327 0.642864 0.357144
451 1 0.142889 0.571418 0.285725
452 1 0.21437 0.642846 0.357152
453 1 0.285805 0.571395 0.285803
454 1 0.357506 0.642494 0.357554
455 1 0.428597 0.571403 0.286393
456 1 0.5 0.642724 0.357612
457 1 0.571403 0.571403 0.286393
458 1 0.642494 0.642494 0.357554
459 1 0.714195 0.571395 0.285803
460 1 0.78563 0.642846 0.357152
461 1 0.857111 0.571418 0.285725
462 1 0.928567 0.642864 0.357144
463 1 1 0.714279 0.285719
464 1 0.0714414 0.785702 0.357147
465 1 0.142884 0.714279 0.285727
466 1 0.214319 0.785681 0.357169
467 1 0.285829 0.714171 0.285833
468 1 0.357154 0.78563 0.357152
469 1 0.428605 0.714195 0.285803
470 1 0.5 0.785654 0.357203
471 1 0.571395 0.714195 0.285803
472 1 0.642846 0.78563 0.357152
473 1 0.714171 0.714171 0.285833
474 1 0.785681 0.785681 0.357169
475 1 0.857116 0.714279 0.285727
476 1 0.928559 0.785702 0.357147
477 1 1 0.857136 0.285718
478 1 0.0714305 0.92857 0.357143
479 1 0.142865 0.857135 0.285717
480 1 0.214298 0.928559 0.357147
481 1 0.285721 0.857116 0.285727
482 1 0.357136 0.928567 0.357144
58 1 0.571428 1 0.142869
446 1 0.642724 0.5 0.357612
444 1 0.357276 0.5 0.357612
348 1 0.642832 0.5 0.0714782
443 1 0.214346 0.5 0.357203
346 1 0.357168 0.5 0.0714782
56 1 0.428572 1 0.142869
538 1 0.785704 0.928557 0.499999
442 1 0.0714494 0.5 0.357154
534 1 0.214296 0.928557 0.499999
398 1 0.78568 0.5 0.214306
397 1 0.642707 0.5 0.214534
54 1 0.285716 1 0.142863
526 1 0.0714426 0.785704 0.499999
532 1 0.928557 0.785704 0.499999
101 1 0.142864 1 0.285718
103 1 0.285721 1 0.285719
105 1 0.428576 1 0.28573
107 1 0.571424 1 0.28573
149 1 0.14286 1 0.428571
50 1 1 1 0.142857
52 1 0.14286 1 0.14286
373 1 0.571419 0.714265 9.0176e-06
533 1 0.07143 0.92857 0.5
539 1 0.92857 0.92857 0.5
371 1 0.428581 0.714265 9.0176e-06
361 1 0.714265 0.571419 9.0176e-06
355 1 0.285735 0.571419 9.0176e-06
685 1 0.857135 0.857135 0.857133
684 1 0.785712 0.928567 0.928567
683 1 0.714286 0.857132 0.857134
515 1 0.92857 0.92857 0.92857
682 1 0.642855 0.928564 0.928565
681 1 0.571422 0.857132 0.857133
680 1 0.5 0.928564 0.928565
519 1 0.0714553 0.642856 0.500001
520 1 0.214479 0.642769 0.500019
391 1 0.857138 0.857138 1
522 1 0.5 0.644516 0.500194
641 1 0.5 0.5 0.928556
524 1 0.785521 0.642769 0.500019
525 1 0.928545 0.642856 0.500001
639 1 0.214292 0.5 0.928556
527 1 0.214326 0.785674 0.5
528 1 0.357231 0.785521 0.500019
529 1 0.5 0.785927 0.50003
530 1 0.642769 0.785521 0.500019
531 1 0.785674 0.785674 0.5
252 1 0.428582 1 0.714265
250 1 0.285721 1 0.714278
595 1 0.92856 0.5 0.785701
535 1 0.357144 0.928545 0.500001
536 1 0.5 0.928551 0.500004
537 1 0.642856 0.928545 0.500001
594 1 0.785685 0.5 0.785685
248 1 0.142864 1 0.714285
679 1 0.428578 0.857132 0.857133
678 1 0.357145 0.928564 0.928565
677 1 0.285714 0.857132 0.857134
676 1 0.214288 0.928567 0.928567
675 1 0.142865 0.857135 0.857133
674 1 0.07143 0.92857 0.92857
673 1 1 0.857139 0.857139
547 1 1 0.571441 0.571438
548 1 0.0714351 0.642862 0.642855
549 1 0.142918 0.57144 0.571443
550 1 0.2144 0.642837 0.642835
551 1 0.285926 0.57152 0.571539
552 1 0.357614 0.642386 0.642414
553 1 0.429884 0.570116 0.570446
554 1 0.5 0.642453 0.642503
555 1 0.570116 0.570116 0.570446
556 1 0.642386 0.642386 0.642414
557 1 0.714074 0.57152 0.571539
558 1 0.7856 0.642837 0.642835
559 1 0.857082 0.57144 0.571443
560 1 0.928565 0.642862 0.642855
561 1 1 0.714268 0.571424
562 1 0.0714491 0.7857 0.642846
563 1 0.142914 0.714266 0.571408
564 1 0.214324 0.785676 0.642843
565 1 0.285895 0.714105 0.571325
566 1 0.357163 0.7856 0.642835
567 1 0.42848 0.714074 0.571539
568 1 0.5 0.785581 0.642783
569 1 0.57152 0.714074 0.571539
570 1 0.642837 0.7856 0.642835
571 1 0.714105 0.714105 0.571325
572 1 0.785676 0.785676 0.642843
573 1 0.857086 0.714266 0.571408
574 1 0.928551 0.7857 0.642846
575 1 1 0.85714 0.571432
576 1 0.07143 0.92857 0.642856
577 1 0.142876 0.857124 0.571426
578 1 0.2143 0.928551 0.642846
579 1 0.285734 0.857086 0.571408
580 1 0.357138 0.928565 0.642855
581 1 0.42856 0.857082 0.571443
582 1 0.5 0.928546 0.642851
583 1 0.57144 0.857082 0.571443
584 1 0.642862 0.928565 0.642855
585 1 0.714266 0.857086 0.571408
586 1 0.7857 0.928551 0.642846
587 1 0.857124 0.857124 0.571426
588 1 0.92857 0.92857 0.642856
672 1 0.928567 0.785712 0.928567
671 1 0.857132 0.714286 0.857134
670 1 0.785704 0.785704 0.928566
669 1 0.714268 0.714268 0.857107
668 1 0.642848 0.785701 0.928557
667 1 0.571416 0.714264 0.857105
666 1 0.5 0.785708 0.928556
596 1 1 0.571418 0.714265
597 1 0.0714367 0.642849 0.785706
598 1 0.142897 0.571408 0.714264
599 1 0.214313 0.64285 0.785692
600 1 0.285818 0.571386 0.714192
601 1 0.357166 0.642834 0.785617
602 1 0.428508 0.571492 0.714084
603 1 0.5 0.642783 0.785571
604 1 0.571492 0.571492 0.714084
605 1 0.642834 0.642834 0.785617
606 1 0.714182 0.571386 0.714192
607 1 0.785687 0.64285 0.785692
608 1 0.857103 0.571408 0.714264
609 1 0.928563 0.642849 0.785706
610 1 1 0.714279 0.714278
611 1 0.0714333 0.785707 0.785706
612 1 0.142889 0.714283 0.714276
613 1 0.214325 0.785675 0.785673
614 1 0.285854 0.714146 0.714133
615 1 0.35715 0.785687 0.785692
616 1 0.428614 0.714182 0.714192
617 1 0.5 0.785685 0.785685
618 1 0.571386 0.714182 0.714192
619 1 0.64285 0.785687 0.785692
620 1 0.714146 0.714146 0.714133
621 1 0.785675 0.785675 0.785673
622 1 0.857111 0.714283 0.714276
623 1 0.928567 0.785707 0.785706
624 1 1 0.857136 0.714285
625 1 0.0714327 0.928567 0.785712
626 1 0.142878 0.857122 0.714278
627 1 0.214293 0.928567 0.785706
628 1 0.285717 0.857111 0.714276
629 1 0.357151 0.928563 0.785706
630 1 0.428592 0.857103 0.714264
631 1 0.5 0.92856 0.785701
632 1 0.571408 0.857103 0.714264
633 1 0.642849 0.928563 0.785706
634 1 0.714283 0.857111 0.714276
635 1 0.785707 0.928567 0.785706
636 1 0.857122 0.857122 0.714278
637 1 0.928567 0.928567 0.785712
665 1 0.428584 0.714264 0.857105
664 1 0.357152 0.785701 0.928557
663 1 0.285732 0.714268 0.857107
662 1 0.214296 0.785704 0.928566
661 1 0.142868 0.714286 0.857134
660 1 0.0714329 0.785712 0.928567
659 1 1 0.714284 0.857134
645 1 1 0.571432 0.85714
646 1 0.0714357 0.642855 0.928565
647 1 0.142868 0.571422 0.857133
648 1 0.214299 0.642848 0.928557
649 1 0.285736 0.571416 0.857105
650 1 0.35714 0.64286 0.928554
651 1 0.428565 0.571435 0.85709
652 1 0.5 0.642849 0.928546
653 1 0.571435 0.571435 0.85709
654 1 0.64286 0.64286 0.928554
655 1 0.714264 0.571416 0.857105
656 1 0.785701 0.642848 0.928557
657 1 0.857132 0.571422 0.857133
658 1 0.928564 0.642855 0.928565
593 1 0.642783 0.5 0.785571
546 1 0.928546 0.5 0.642851
246 1 1 1 0.714284
381 1 0.142862 0.857138 1
379 1 1 0.857143 1
589 1 0.0714396 0.5 0.785701
544 1 0.642453 0.5 0.642503
365 1 1 0.714285 1
543 1 0.5 0.5 0.64445
542 1 0.357547 0.5 0.642503
351 1 1 0.571428 1
254 1 0.571418 1 0.714265
643 1 0.785708 0.5 0.928556
256 1 0.714279 1 0.714278
258 1 0.857136 1 0.714285
295 1 1 1 0.857142
297 1 0.142861 1 0.857139
299 1 0.285716 1 0.857134
209 1 0.85714 1 0.571432
207 1 0.714268 1 0.571424
205 1 0.571441 1 0.571438
203 1 0.428559 1 0.571438
201 1 0.285732 1 0.571424
199 1 0.14286 1 0.571432
197 1 1 1 0.571428
305 1 0.714284 1 0.857134
1 1 1 1 1
3 1 0.142857 1 1
5 1 0.285715 1 1
7 1 0.428572 1 1
9 1 0.571428 1 1
11 1 0.714285 1 1
13 1 0.857143 1 1
307 1 0.857139 1 0.857139
301 1 0.428568 1 0.85714
303 1 0.571432 1 0.85714
540 1 0.0714542 0.5 0.642851
523 1 0.642119 0.642119 0.500025
521 1 0.357881 0.642119 0.500025
353 1 0.142864 0.571428 0.999997
363 1 0.857136 0.571428 0.999997
367 1 0.142864 0.714286 1
377 1 0.857136 0.714286 1
383 1 0.285714 0.857136 1
385 1 0.428572 0.857136 0.999997
387 1 0.571428 0.857136 0.999997
389 1 0.714286 0.857136 1
