LAMMPS (2 Aug 2023)
Running on 5 partitions of processors
    Step     MaxReplicaForce  MaxAtomForce      GradV0         GradV1         GradVc          EBF            EBR            RDT            RD1            PE1            RD2            PE2            RD3            PE3            RD4            PE4            RD5            PE5       
         0   3.844913         2.3157505      2.3743427      2.3727723      3.844913       0.47045387     0.47055853     1.2494617      0              -6132.6909     0.25           -6132.4495     0.5            -6132.2204     0.75           -6132.4496     1              -6132.691      
        33   0.36881097       0.027918686    0.13446475     0.13446106     0.36881099     0.16952024     0.16952024     1.3239565      0              -6132.7698     0.25166826     -6132.68       0.50000016     -6132.6003     0.74833456     -6132.6801     1              -6132.7698     
Climbing replica = 3
    Step     MaxReplicaForce  MaxAtomForce      GradV0         GradV1         GradVc          EBF            EBR            RDT            RD1            PE1            RD2            PE2            RD3            PE3            RD4            PE4            RD5            PE5       
        33   0.36881099       0.027918686    0.13446475     0.13446106     0.36881099     0.16952024     0.16952024     1.3239565      0              -6132.7698     0.25166826     -6132.68       0.50000016     -6132.6003     0.74833456     -6132.6801     1              -6132.7698     
        39   0.36119844       0.027236677    0.13172341     0.13172004     0.36119844     0.16915399     0.16915398     1.3247492      0              -6132.7699     0.25176845     -6132.6804     0.49999987     -6132.6007     0.74823424     -6132.6804     1              -6132.7699     
