LAMMPS (2 Aug 2023)
Processor partition = 7
units metal

atom_style atomic

atom_modify map array

read_data Migration_Data/init.data
Reading data file ...
  orthogonal box = (0 0 0) to (22.013901 22.013901 22.013901)
  1 by 1 by 1 MPI processor grid
  reading atoms ...
  687 atoms
  reading velocities ...
  687 velocities
  read_data CPU = 0.013 seconds

mass 1 183.84

mass 2 1.00784

mass 3 4.002602

pair_style eam/alloy

pair_coeff * * Potentials/Tungsten_Hydrogen_Helium/WHHe_test.eam.alloy W H He

thermo 10

run 0
WARNING: No fixes with time integration, atoms won't move (src/verlet.cpp:60)
Neighbor list info ...
  update: every = 1 steps, delay = 0 steps, check = yes
  max neighbors/atom: 2000, page size: 100000
  master list distance cutoff = 6.8513889
  ghost atom cutoff = 6.8513889
  binsize = 3.4256945, bins = 7 7 7
  1 neighbor lists, perpetual/occasional/extra = 1 0 0
  (1) pair eam/alloy, perpetual
      attributes: half, newton on
      pair build: half/bin/atomonly/newton
      stencil: half/bin/3d
      bin: standard
Per MPI rank memory allocation (min/avg/max) = 3.431 | 3.431 | 3.431 Mbytes
   Step          Temp          E_pair         E_mol          TotEng         Press     
         0   0             -6140.7742      0             -6140.7742     -1178.9012    
Loop time of 4.16e-07 on 1 procs for 0 steps with 687 atoms

0.0% CPU use with 1 MPI tasks x no OpenMP threads

MPI task timing breakdown:
Section |  min time  |  avg time  |  max time  |%varavg| %total
---------------------------------------------------------------
Pair    | 0          | 0          | 0          |   0.0 |  0.00
Neigh   | 0          | 0          | 0          |   0.0 |  0.00
Comm    | 0          | 0          | 0          |   0.0 |  0.00
Output  | 0          | 0          | 0          |   0.0 |  0.00
Modify  | 0          | 0          | 0          |   0.0 |  0.00
Other   |            | 4.16e-07   |            |       |100.00

Nlocal:            687 ave         687 max         687 min
Histogram: 1 0 0 0 0 0 0 0 0 0
Nghost:           2373 ave        2373 max        2373 min
Histogram: 1 0 0 0 0 0 0 0 0 0
Neighs:          22212 ave       22212 max       22212 min
Histogram: 1 0 0 0 0 0 0 0 0 0

Total # of neighbors = 22212
Ave neighs/atom = 32.331878
Neighbor list builds = 0
Dangerous builds = 0

fix 2 all neb 100.0 perp 0.1

timestep 0.01

min_style quickmin

thermo 100

neb 10e-8 10e-10 5000 500 100 final Migration_Data/final.dump 
Per MPI rank memory allocation (min/avg/max) = 3.431 | 3.431 | 3.431 Mbytes
   Step          Temp          E_pair         E_mol          TotEng         Press     
         0   0             -6140.6431      0             -6140.6431     -1145.6314    
       100   3.0319964e-05 -6140.7749      0             -6140.7749     -1184.9049    
       200   2.615324e-07  -6140.7749      0             -6140.7749     -1185.009     
       300   2.8352444e-07 -6140.7749      0             -6140.7749     -1185.0104    
       400   1.1277064e-07 -6140.7749      0             -6140.7749     -1185.0097    
       500   5.5642935e-10 -6140.7749      0             -6140.7749     -1185.0094    
       600   6.6796418e-12 -6140.7749      0             -6140.7749     -1185.0093    
       637   5.9851531e-12 -6140.7749      0             -6140.7749     -1185.0093    
Loop time of 0.655003 on 1 procs for 637 steps with 687 atoms

96.7% CPU use with 1 MPI tasks x no OpenMP threads

Minimization stats:
  Stopping criterion = energy tolerance
  Energy initial, next-to-last, final = 
     -6140.64311028649  -6140.77494578273  -6140.77494578275
  Force two-norm initial, final = 2.8976121 8.3013032e-06
  Force max component initial, final = 1.411633 6.2164386e-07
  Final line search alpha, max atom move = 0 0
  Iterations, force evaluations = 637 637

MPI task timing breakdown:
Section |  min time  |  avg time  |  max time  |%varavg| %total
---------------------------------------------------------------
Pair    | 0.33227    | 0.33227    | 0.33227    |   0.0 | 50.73
Neigh   | 0          | 0          | 0          |   0.0 |  0.00
Comm    | 0.0070869  | 0.0070869  | 0.0070869  |   0.0 |  1.08
Output  | 4.6668e-05 | 4.6668e-05 | 4.6668e-05 |   0.0 |  0.01
Modify  | 0.18725    | 0.18725    | 0.18725    |   0.0 | 28.59
Other   |            | 0.1284     |            |       | 19.60

Nlocal:            687 ave         687 max         687 min
Histogram: 1 0 0 0 0 0 0 0 0 0
Nghost:           2373 ave        2373 max        2373 min
Histogram: 1 0 0 0 0 0 0 0 0 0
Neighs:          22160 ave       22160 max       22160 min
Histogram: 1 0 0 0 0 0 0 0 0 0

Total # of neighbors = 22160
Ave neighs/atom = 32.256186
Neighbor list builds = 0
Dangerous builds = 0
Per MPI rank memory allocation (min/avg/max) = 3.431 | 3.431 | 3.431 Mbytes
   Step          Temp          E_pair         E_mol          TotEng         Press     
       637   0             -6140.7749      0             -6140.7749     -1185.0093    
       700   7.5027661e-12 -6140.7749      0             -6140.7749     -1185.0093    
       800   3.15726e-12   -6140.7749      0             -6140.7749     -1185.0092    
       900   1.3977504e-12 -6140.7749      0             -6140.7749     -1185.0092    
      1000   6.2199833e-13 -6140.7749      0             -6140.7749     -1185.0092    
      1100   2.7618461e-13 -6140.7749      0             -6140.7749     -1185.0092    
      1137   7.4444819e-14 -6140.7749      0             -6140.7749     -1185.0092    
Loop time of 0.526683 on 1 procs for 500 steps with 687 atoms

97.8% CPU use with 1 MPI tasks x no OpenMP threads

Minimization stats:
  Stopping criterion = max iterations
  Energy initial, next-to-last, final = 
     -6140.77494578275  -6140.77494578275  -6140.77494578275
  Force two-norm initial, final = 8.3013032e-06 1.0227617e-06
  Force max component initial, final = 6.2164386e-07 9.0001449e-08
  Final line search alpha, max atom move = 0 0
  Iterations, force evaluations = 500 500

MPI task timing breakdown:
Section |  min time  |  avg time  |  max time  |%varavg| %total
---------------------------------------------------------------
Pair    | 0.25776    | 0.25776    | 0.25776    |   0.0 | 48.94
Neigh   | 0          | 0          | 0          |   0.0 |  0.00
Comm    | 0.0047594  | 0.0047594  | 0.0047594  |   0.0 |  0.90
Output  | 4.396e-05  | 4.396e-05  | 4.396e-05  |   0.0 |  0.01
Modify  | 0.16497    | 0.16497    | 0.16497    |   0.0 | 31.32
Other   |            | 0.09915    |            |       | 18.83

Nlocal:            687 ave         687 max         687 min
Histogram: 1 0 0 0 0 0 0 0 0 0
Nghost:           2373 ave        2373 max        2373 min
Histogram: 1 0 0 0 0 0 0 0 0 0
Neighs:          22244 ave       22244 max       22244 min
Histogram: 1 0 0 0 0 0 0 0 0 0

Total # of neighbors = 22244
Ave neighs/atom = 32.378457
Neighbor list builds = 0
Dangerous builds = 0
Total wall time: 0:00:01
