LAMMPS (2 Aug 2023)
Running on 4 partitions of processors
    Step     MaxReplicaForce  MaxAtomForce      GradV0         GradV1         GradVc          EBF            EBR            RDT            RD1            PE1            RD2            PE2            RD3            PE3            RD4            PE4       
         0   1.3682248        1.3023783      0.12395022     1.3682248      1.3682248      0.031669838    0              0.051341152    0              -2238.7344     0.33333333     -2238.7312     0.66666667     -2238.7205     1              -2238.7027     
