LAMMPS (2 Aug 2023)
Processor partition = 4
units metal

atom_style atomic

atom_modify map array

read_data Migration_Data/init.data
Reading data file ...
  orthogonal box = (0 0 0) to (15.724215 15.724215 15.724215)
  1 by 1 by 1 MPI processor grid
  reading atoms ...
  251 atoms
  reading velocities ...
  251 velocities
  read_data CPU = 0.008 seconds

mass 1 183.84

mass 2 1.00784

mass 3 4.002602

pair_style eam/alloy

pair_coeff * * Potentials/Tungsten_Hydrogen_Helium/WHHe_test.eam.alloy W H He

fix 1 all neb 10.0

timestep 0.01

min_style fire

thermo 50

neb 10e-8 10e-10 5000 5000 25 final Migration_Data/final.dump verbosity terse
Neighbor list info ...
  update: every = 1 steps, delay = 0 steps, check = yes
  max neighbors/atom: 2000, page size: 100000
  master list distance cutoff = 6.8513889
  ghost atom cutoff = 6.8513889
  binsize = 3.4256945, bins = 5 5 5
  1 neighbor lists, perpetual/occasional/extra = 1 0 0
  (1) pair eam/alloy, perpetual
      attributes: half, newton on
      pair build: half/bin/atomonly/newton
      stencil: half/bin/3d
      bin: standard
  Parameters for fire:
    dmax  delaystep dtgrow dtshrink alpha0 alphashrink tmax tmin   integrator   halfstepback   abcfire  
     0.1     20      1.1     0.5     0.25     0.99      10  0.02 eulerimplicit      yes          no     
Per MPI rank memory allocation (min/avg/max) = 3.382 | 3.382 | 3.382 Mbytes
   Step          Temp          E_pair         E_mol          TotEng         Press     
         0   0             -2238.7344      0             -2238.7344     -164.11978    
        50   0.00076990332 -2238.7348      0             -2238.7348     -172.77115    
        51   0.00061978127 -2238.7348      0             -2238.7348     -172.76787    
Loop time of 0.00924471 on 1 procs for 51 steps with 251 atoms

98.1% CPU use with 1 MPI tasks x no OpenMP threads

Minimization stats:
  Stopping criterion = energy tolerance
  Energy initial, next-to-last, final = 
     -2238.73435949661  -2238.73483834281  -2238.73483835916
  Force two-norm initial, final = 0.12531187 0.00046758099
  Force max component initial, final = 0.025890708 4.7355556e-05
  Final line search alpha, max atom move = 0 0
  Iterations, force evaluations = 51 65

MPI task timing breakdown:
Section |  min time  |  avg time  |  max time  |%varavg| %total
---------------------------------------------------------------
Pair    | 0.006214   | 0.006214   | 0.006214   |   0.0 | 67.22
Neigh   | 0          | 0          | 0          |   0.0 |  0.00
Comm    | 0.00021275 | 0.00021275 | 0.00021275 |   0.0 |  2.30
Output  | 3.083e-06  | 3.083e-06  | 3.083e-06  |   0.0 |  0.03
Modify  | 0.0016119  | 0.0016119  | 0.0016119  |   0.0 | 17.44
Other   |            | 0.001203   |            |       | 13.01

Nlocal:            251 ave         251 max         251 min
Histogram: 1 0 0 0 0 0 0 0 0 0
Nghost:           1480 ave        1480 max        1480 min
Histogram: 1 0 0 0 0 0 0 0 0 0
Neighs:           8261 ave        8261 max        8261 min
Histogram: 1 0 0 0 0 0 0 0 0 0

Total # of neighbors = 8261
Ave neighs/atom = 32.912351
Neighbor list builds = 0
Dangerous builds = 0
