LAMMPS (2 Aug 2023)
Processor partition = 4
units metal

atom_style atomic

atom_modify map array sort 0 0.0

read_data Migration_Data/init.data
Reading data file ...
  orthogonal box = (0 0 0) to (22.013901 22.013901 22.013901)
  1 by 1 by 1 MPI processor grid
  reading atoms ...
  687 atoms
  reading velocities ...
  687 velocities
  read_data CPU = 0.009 seconds

mass 1 183.84

mass 2 1.00784

mass 3 4.002602

pair_style eam/alloy

pair_coeff * * Potentials/Tungsten_Hydrogen_Helium/WHHe_test.eam.alloy W H He

thermo 10

run 0
WARNING: No fixes with time integration, atoms won't move (src/verlet.cpp:60)
Neighbor list info ...
  update: every = 1 steps, delay = 0 steps, check = yes
  max neighbors/atom: 2000, page size: 100000
  master list distance cutoff = 6.8513889
  ghost atom cutoff = 6.8513889
  binsize = 3.4256945, bins = 7 7 7
  1 neighbor lists, perpetual/occasional/extra = 1 0 0
  (1) pair eam/alloy, perpetual
      attributes: half, newton on
      pair build: half/bin/atomonly/newton
      stencil: half/bin/3d
      bin: standard
Per MPI rank memory allocation (min/avg/max) = 3.306 | 3.306 | 3.306 Mbytes
   Step          Temp          E_pair         E_mol          TotEng         Press     
         0   0             -6132.6909      0             -6132.6909      638.81203    
Loop time of 4.58e-07 on 1 procs for 0 steps with 687 atoms

0.0% CPU use with 1 MPI tasks x no OpenMP threads

MPI task timing breakdown:
Section |  min time  |  avg time  |  max time  |%varavg| %total
---------------------------------------------------------------
Pair    | 0          | 0          | 0          |   0.0 |  0.00
Neigh   | 0          | 0          | 0          |   0.0 |  0.00
Comm    | 0          | 0          | 0          |   0.0 |  0.00
Output  | 0          | 0          | 0          |   0.0 |  0.00
Modify  | 0          | 0          | 0          |   0.0 |  0.00
Other   |            | 4.58e-07   |            |       |100.00

Nlocal:            687 ave         687 max         687 min
Histogram: 1 0 0 0 0 0 0 0 0 0
Nghost:           2373 ave        2373 max        2373 min
Histogram: 1 0 0 0 0 0 0 0 0 0
Neighs:          23032 ave       23032 max       23032 min
Histogram: 1 0 0 0 0 0 0 0 0 0

Total # of neighbors = 23032
Ave neighs/atom = 33.525473
Neighbor list builds = 0
Dangerous builds = 0

fix 1 all neb 1e-4

timestep 1e-3

min_style quickmin

thermo 100

variable i equal part

neb 10e-8 10e-10 5000 5000 100 final Migration_Data/final_neb.dump
Per MPI rank memory allocation (min/avg/max) = 3.306 | 3.306 | 3.306 Mbytes
   Step          Temp          E_pair         E_mol          TotEng         Press     
         0   0             -6132.691       0             -6132.691       638.95526    
        33   0.036870433   -6132.7698      0             -6132.7666      700.12841    
Loop time of 0.0137927 on 1 procs for 33 steps with 687 atoms

98.7% CPU use with 1 MPI tasks x no OpenMP threads

Minimization stats:
  Stopping criterion = energy tolerance
  Energy initial, next-to-last, final = 
     -6132.69098968893  -6132.76974337464   -6132.7698222773
  Force two-norm initial, final = 2.3727723 0.13446106
  Force max component initial, final = 0.9277371 0.025386899
  Final line search alpha, max atom move = 0 0
  Iterations, force evaluations = 33 33

MPI task timing breakdown:
Section |  min time  |  avg time  |  max time  |%varavg| %total
---------------------------------------------------------------
Pair    | 0.010731   | 0.010731   | 0.010731   |   0.0 | 77.80
Neigh   | 0          | 0          | 0          |   0.0 |  0.00
Comm    | 0.00019688 | 0.00019688 | 0.00019688 |   0.0 |  1.43
Output  | 0          | 0          | 0          |   0.0 |  0.00
Modify  | 0.0019183  | 0.0019183  | 0.0019183  |   0.0 | 13.91
Other   |            | 0.0009462  |            |       |  6.86

Nlocal:            687 ave         687 max         687 min
Histogram: 1 0 0 0 0 0 0 0 0 0
Nghost:           2373 ave        2373 max        2373 min
Histogram: 1 0 0 0 0 0 0 0 0 0
Neighs:          23035 ave       23035 max       23035 min
Histogram: 1 0 0 0 0 0 0 0 0 0

Total # of neighbors = 23035
Ave neighs/atom = 33.52984
Neighbor list builds = 0
Dangerous builds = 0
Per MPI rank memory allocation (min/avg/max) = 3.306 | 3.306 | 3.306 Mbytes
   Step          Temp          E_pair         E_mol          TotEng         Press     
        33   0             -6132.7698      0             -6132.7698      699.80107    
        39   0.0023495409  -6132.7699      0             -6132.7697      699.95316    
Loop time of 0.00272425 on 1 procs for 6 steps with 687 atoms

100.0% CPU use with 1 MPI tasks x no OpenMP threads

Minimization stats:
  Stopping criterion = energy tolerance
  Energy initial, next-to-last, final = 
      -6132.7698222773  -6132.76985974567   -6132.7698783718
  Force two-norm initial, final = 0.13446106 0.13172004
  Force max component initial, final = 0.025386899 0.024844267
  Final line search alpha, max atom move = 0 0
  Iterations, force evaluations = 6 6

MPI task timing breakdown:
Section |  min time  |  avg time  |  max time  |%varavg| %total
---------------------------------------------------------------
Pair    | 0.0023029  | 0.0023029  | 0.0023029  |   0.0 | 84.53
Neigh   | 0          | 0          | 0          |   0.0 |  0.00
Comm    | 3.6791e-05 | 3.6791e-05 | 3.6791e-05 |   0.0 |  1.35
Output  | 0          | 0          | 0          |   0.0 |  0.00
Modify  | 0.00019554 | 0.00019554 | 0.00019554 |   0.0 |  7.18
Other   |            | 0.000189   |            |       |  6.94

Nlocal:            687 ave         687 max         687 min
Histogram: 1 0 0 0 0 0 0 0 0 0
Nghost:           2373 ave        2373 max        2373 min
Histogram: 1 0 0 0 0 0 0 0 0 0
Neighs:          23150 ave       23150 max       23150 min
Histogram: 1 0 0 0 0 0 0 0 0 0

Total # of neighbors = 23150
Ave neighs/atom = 33.697234
Neighbor list builds = 0
Dangerous builds = 0

write_dump all custom Migration_Data/neb.$i.dump id type x y z
write_dump all custom Migration_Data/neb.4.dump id type x y z
Total wall time: 0:00:00
