LAMMPS (2 Aug 2023)
Processor partition = 2
units metal

atom_style atomic

atom_modify map array sort 0 0.0

read_data Migration_Data/init.data
Reading data file ...
  orthogonal box = (0 0 0) to (22.013901 22.013901 22.013901)
  1 by 1 by 1 MPI processor grid
  reading atoms ...
  687 atoms
  reading velocities ...
  687 velocities
  read_data CPU = 0.010 seconds

mass 1 183.84

mass 2 1.00784

mass 3 4.002602

pair_style eam/alloy

pair_coeff * * Potentials/Tungsten_Hydrogen_Helium/WHHe_test.eam.alloy W H He

thermo 10

run 0
WARNING: No fixes with time integration, atoms won't move (src/verlet.cpp:60)
Neighbor list info ...
  update: every = 1 steps, delay = 0 steps, check = yes
  max neighbors/atom: 2000, page size: 100000
  master list distance cutoff = 6.8513889
  ghost atom cutoff = 6.8513889
  binsize = 3.4256945, bins = 7 7 7
  1 neighbor lists, perpetual/occasional/extra = 1 0 0
  (1) pair eam/alloy, perpetual
      attributes: half, newton on
      pair build: half/bin/atomonly/newton
      stencil: half/bin/3d
      bin: standard
Per MPI rank memory allocation (min/avg/max) = 3.306 | 3.306 | 3.306 Mbytes
   Step          Temp          E_pair         E_mol          TotEng         Press     
         0   0             -6132.6909      0             -6132.6909      638.81203    
Loop time of 4.16e-07 on 1 procs for 0 steps with 687 atoms

240.4% CPU use with 1 MPI tasks x no OpenMP threads

MPI task timing breakdown:
Section |  min time  |  avg time  |  max time  |%varavg| %total
---------------------------------------------------------------
Pair    | 0          | 0          | 0          |   0.0 |  0.00
Neigh   | 0          | 0          | 0          |   0.0 |  0.00
Comm    | 0          | 0          | 0          |   0.0 |  0.00
Output  | 0          | 0          | 0          |   0.0 |  0.00
Modify  | 0          | 0          | 0          |   0.0 |  0.00
Other   |            | 4.16e-07   |            |       |100.00

Nlocal:            687 ave         687 max         687 min
Histogram: 1 0 0 0 0 0 0 0 0 0
Nghost:           2373 ave        2373 max        2373 min
Histogram: 1 0 0 0 0 0 0 0 0 0
Neighs:          23032 ave       23032 max       23032 min
Histogram: 1 0 0 0 0 0 0 0 0 0

Total # of neighbors = 23032
Ave neighs/atom = 33.525473
Neighbor list builds = 0
Dangerous builds = 0

fix 1 all neb 1e-4

timestep 1e-3

min_style quickmin

thermo 100

variable i equal part

neb 10e-8 10e-10 5000 5000 100 final Migration_Data/final_neb.dump
Per MPI rank memory allocation (min/avg/max) = 3.306 | 3.306 | 3.306 Mbytes
   Step          Temp          E_pair         E_mol          TotEng         Press     
         0   0             -6132.2204      0             -6132.2204      814.40522    
        33   0.34737389    -6132.6003      0             -6132.5695      467.38664    
Loop time of 0.0137928 on 1 procs for 33 steps with 687 atoms

96.8% CPU use with 1 MPI tasks x no OpenMP threads

Minimization stats:
  Stopping criterion = energy tolerance
  Energy initial, next-to-last, final = 
     -6132.22043115643   -6132.5996959369  -6132.60030203812
  Force two-norm initial, final = 3.844913 0.36881097
  Force max component initial, final = 1.5040348 0.11998433
  Final line search alpha, max atom move = 0 0
  Iterations, force evaluations = 33 33

MPI task timing breakdown:
Section |  min time  |  avg time  |  max time  |%varavg| %total
---------------------------------------------------------------
Pair    | 0.011445   | 0.011445   | 0.011445   |   0.0 | 82.98
Neigh   | 0          | 0          | 0          |   0.0 |  0.00
Comm    | 0.00018817 | 0.00018817 | 0.00018817 |   0.0 |  1.36
Output  | 0          | 0          | 0          |   0.0 |  0.00
Modify  | 0.0016073  | 0.0016073  | 0.0016073  |   0.0 | 11.65
Other   |            | 0.0005521  |            |       |  4.00

Nlocal:            687 ave         687 max         687 min
Histogram: 1 0 0 0 0 0 0 0 0 0
Nghost:           2373 ave        2373 max        2373 min
Histogram: 1 0 0 0 0 0 0 0 0 0
Neighs:          22923 ave       22923 max       22923 min
Histogram: 1 0 0 0 0 0 0 0 0 0

Total # of neighbors = 22923
Ave neighs/atom = 33.366812
Neighbor list builds = 0
Dangerous builds = 0
Per MPI rank memory allocation (min/avg/max) = 3.306 | 3.306 | 3.306 Mbytes
   Step          Temp          E_pair         E_mol          TotEng         Press     
        33   0             -6132.6003      0             -6132.6003      464.30265    
        39   0.016912354   -6132.6007      0             -6132.5992      462.69871    
Loop time of 0.00272454 on 1 procs for 6 steps with 687 atoms

99.2% CPU use with 1 MPI tasks x no OpenMP threads

Minimization stats:
  Stopping criterion = energy tolerance
  Energy initial, next-to-last, final = 
     -6132.60030203812  -6132.60058422037  -6132.60072438864
  Force two-norm initial, final = 0.36881099 0.36119844
  Force max component initial, final = 0.12000081 0.11804925
  Final line search alpha, max atom move = 0 0
  Iterations, force evaluations = 6 6

MPI task timing breakdown:
Section |  min time  |  avg time  |  max time  |%varavg| %total
---------------------------------------------------------------
Pair    | 0.002342   | 0.002342   | 0.002342   |   0.0 | 85.96
Neigh   | 0          | 0          | 0          |   0.0 |  0.00
Comm    | 4.0789e-05 | 4.0789e-05 | 4.0789e-05 |   0.0 |  1.50
Output  | 0          | 0          | 0          |   0.0 |  0.00
Modify  | 0.00024579 | 0.00024579 | 0.00024579 |   0.0 |  9.02
Other   |            | 9.592e-05  |            |       |  3.52

Nlocal:            687 ave         687 max         687 min
Histogram: 1 0 0 0 0 0 0 0 0 0
Nghost:           2373 ave        2373 max        2373 min
Histogram: 1 0 0 0 0 0 0 0 0 0
Neighs:          23052 ave       23052 max       23052 min
Histogram: 1 0 0 0 0 0 0 0 0 0

Total # of neighbors = 23052
Ave neighs/atom = 33.554585
Neighbor list builds = 0
Dangerous builds = 0

write_dump all custom Migration_Data/neb.$i.dump id type x y z
write_dump all custom Migration_Data/neb.2.dump id type x y z
Total wall time: 0:00:00
