LAMMPS (2 Aug 2023)
Processor partition = 1
Reading data file ...
  orthogonal box = (0 0 0) to (22.013901 22.013901 22.013901)
  1 by 1 by 1 MPI processor grid
  reading atoms ...
  687 atoms
  reading velocities ...
  687 velocities
  read_data CPU = 0.010 seconds
WARNING: No fixes with time integration, atoms won't move (src/verlet.cpp:60)
Neighbor list info ...
  update: every = 1 steps, delay = 0 steps, check = yes
  max neighbors/atom: 2000, page size: 100000
  master list distance cutoff = 6.8513889
  ghost atom cutoff = 6.8513889
  binsize = 3.4256945, bins = 7 7 7
  1 neighbor lists, perpetual/occasional/extra = 1 0 0
  (1) pair eam/alloy, perpetual
      attributes: half, newton on
      pair build: half/bin/atomonly/newton
      stencil: half/bin/3d
      bin: standard
Setting up Verlet run ...
  Unit style    : metal
  Current step  : 0
  Time step     : 0.001
Per MPI rank memory allocation (min/avg/max) = 3.306 | 3.306 | 3.306 Mbytes
   Step          Temp          E_pair         E_mol          TotEng         Press     
         0   0             -6132.7716      0             -6132.7716      706.84118    
Loop time of 3.75e-07 on 1 procs for 0 steps with 687 atoms

0.0% CPU use with 1 MPI tasks x no OpenMP threads

MPI task timing breakdown:
Section |  min time  |  avg time  |  max time  |%varavg| %total
---------------------------------------------------------------
Pair    | 0          | 0          | 0          |   0.0 |  0.00
Neigh   | 0          | 0          | 0          |   0.0 |  0.00
Comm    | 0          | 0          | 0          |   0.0 |  0.00
Output  | 0          | 0          | 0          |   0.0 |  0.00
Modify  | 0          | 0          | 0          |   0.0 |  0.00
Other   |            | 3.75e-07   |            |       |100.00

Nlocal:            687 ave         687 max         687 min
Histogram: 1 0 0 0 0 0 0 0 0 0
Nghost:           2373 ave        2373 max        2373 min
Histogram: 1 0 0 0 0 0 0 0 0 0
Neighs:          23264 ave       23264 max       23264 min
Histogram: 1 0 0 0 0 0 0 0 0 0

Total # of neighbors = 23264
Ave neighs/atom = 33.863173
Neighbor list builds = 0
Dangerous builds = 0
Setting up quickmin style minimization ...
  Unit style    : metal
  Current step  : 0
Per MPI rank memory allocation (min/avg/max) = 3.306 | 3.306 | 3.306 Mbytes
   Step          Temp          E_pair         E_mol          TotEng         Press     
         0   0             -6132.363       0             -6132.363       732.57919    
        52   0.061782528   -6132.7033      0             -6132.6978      715.56165    
Loop time of 0.0493575 on 1 procs for 52 steps with 687 atoms

99.6% CPU use with 1 MPI tasks x no OpenMP threads

Minimization stats:
  Stopping criterion = energy tolerance
  Energy initial, next-to-last, final = 
     -6132.36295628654  -6132.70320290288  -6132.70331415994
  Force two-norm initial, final = 4.2169825 0.22076942
  Force max component initial, final = 2.5478639 0.11326213
  Final line search alpha, max atom move = 0 0
  Iterations, force evaluations = 52 52

MPI task timing breakdown:
Section |  min time  |  avg time  |  max time  |%varavg| %total
---------------------------------------------------------------
Pair    | 0.017606   | 0.017606   | 0.017606   |   0.0 | 35.67
Neigh   | 0          | 0          | 0          |   0.0 |  0.00
Comm    | 0.00028916 | 0.00028916 | 0.00028916 |   0.0 |  0.59
Output  | 0          | 0          | 0          |   0.0 |  0.00
Modify  | 0.025079   | 0.025079   | 0.025079   |   0.0 | 50.81
Other   |            | 0.006384   |            |       | 12.93

Nlocal:            687 ave         687 max         687 min
Histogram: 1 0 0 0 0 0 0 0 0 0
Nghost:           2373 ave        2373 max        2373 min
Histogram: 1 0 0 0 0 0 0 0 0 0
Neighs:          23213 ave       23213 max       23213 min
Histogram: 1 0 0 0 0 0 0 0 0 0

Total # of neighbors = 23213
Ave neighs/atom = 33.788937
Neighbor list builds = 0
Dangerous builds = 0
Setting up quickmin style minimization ...
  Unit style    : metal
  Current step  : 52
Per MPI rank memory allocation (min/avg/max) = 3.306 | 3.306 | 3.306 Mbytes
   Step          Temp          E_pair         E_mol          TotEng         Press     
        52   0             -6132.7033      0             -6132.7033      715.01314    
        58   0.0041741392  -6132.7035      0             -6132.7031      715.27513    
Loop time of 0.00755783 on 1 procs for 6 steps with 687 atoms

97.6% CPU use with 1 MPI tasks x no OpenMP threads

Minimization stats:
  Stopping criterion = energy tolerance
  Energy initial, next-to-last, final = 
     -6132.70331415994  -6132.70342022251  -6132.70345134579
  Force two-norm initial, final = 0.22076942 0.16367084
  Force max component initial, final = 0.11326213 0.03163252
  Final line search alpha, max atom move = 0 0
  Iterations, force evaluations = 6 6

MPI task timing breakdown:
Section |  min time  |  avg time  |  max time  |%varavg| %total
---------------------------------------------------------------
Pair    | 0.0030802  | 0.0030802  | 0.0030802  |   0.0 | 40.76
Neigh   | 0          | 0          | 0          |   0.0 |  0.00
Comm    | 5.1753e-05 | 5.1753e-05 | 5.1753e-05 |   0.0 |  0.68
Output  | 0          | 0          | 0          |   0.0 |  0.00
Modify  | 0.0028743  | 0.0028743  | 0.0028743  |   0.0 | 38.03
Other   |            | 0.001552   |            |       | 20.53

Nlocal:            687 ave         687 max         687 min
Histogram: 1 0 0 0 0 0 0 0 0 0
Nghost:           2373 ave        2373 max        2373 min
Histogram: 1 0 0 0 0 0 0 0 0 0
Neighs:          23166 ave       23166 max       23166 min
Histogram: 1 0 0 0 0 0 0 0 0 0

Total # of neighbors = 23166
Ave neighs/atom = 33.720524
Neighbor list builds = 0
Dangerous builds = 0
Total wall time: 0:00:00
