LAMMPS (2 Aug 2023)
Processor partition = 2
Reading data file ...
  orthogonal box = (0 0 0) to (22.013901 22.013901 22.013901)
  1 by 1 by 1 MPI processor grid
  reading atoms ...
  687 atoms
  reading velocities ...
  687 velocities
  read_data CPU = 0.007 seconds
WARNING: No fixes with time integration, atoms won't move (src/verlet.cpp:60)
Neighbor list info ...
  update: every = 1 steps, delay = 0 steps, check = yes
  max neighbors/atom: 2000, page size: 100000
  master list distance cutoff = 6.8513889
  ghost atom cutoff = 6.8513889
  binsize = 3.4256945, bins = 7 7 7
  1 neighbor lists, perpetual/occasional/extra = 1 0 0
  (1) pair eam/alloy, perpetual
      attributes: half, newton on
      pair build: half/bin/atomonly/newton
      stencil: half/bin/3d
      bin: standard
Setting up Verlet run ...
  Unit style    : metal
  Current step  : 0
  Time step     : 0.001
Per MPI rank memory allocation (min/avg/max) = 3.306 | 3.306 | 3.306 Mbytes
   Step          Temp          E_pair         E_mol          TotEng         Press     
         0   0             -6132.7716      0             -6132.7716      706.84118    
Loop time of 3.75e-07 on 1 procs for 0 steps with 687 atoms

0.0% CPU use with 1 MPI tasks x no OpenMP threads

MPI task timing breakdown:
Section |  min time  |  avg time  |  max time  |%varavg| %total
---------------------------------------------------------------
Pair    | 0          | 0          | 0          |   0.0 |  0.00
Neigh   | 0          | 0          | 0          |   0.0 |  0.00
Comm    | 0          | 0          | 0          |   0.0 |  0.00
Output  | 0          | 0          | 0          |   0.0 |  0.00
Modify  | 0          | 0          | 0          |   0.0 |  0.00
Other   |            | 3.75e-07   |            |       |100.00

Nlocal:            687 ave         687 max         687 min
Histogram: 1 0 0 0 0 0 0 0 0 0
Nghost:           2373 ave        2373 max        2373 min
Histogram: 1 0 0 0 0 0 0 0 0 0
Neighs:          23264 ave       23264 max       23264 min
Histogram: 1 0 0 0 0 0 0 0 0 0

Total # of neighbors = 23264
Ave neighs/atom = 33.863173
Neighbor list builds = 0
Dangerous builds = 0
Setting up quickmin style minimization ...
  Unit style    : metal
  Current step  : 0
Per MPI rank memory allocation (min/avg/max) = 3.306 | 3.306 | 3.306 Mbytes
   Step          Temp          E_pair         E_mol          TotEng         Press     
         0   0             -6131.71        0             -6131.71        808.80687    
        52   0.19445034    -6132.6049      0             -6132.5877      629.20575    
Loop time of 0.0493573 on 1 procs for 52 steps with 687 atoms

99.5% CPU use with 1 MPI tasks x no OpenMP threads

Minimization stats:
  Stopping criterion = energy tolerance
  Energy initial, next-to-last, final = 
     -6131.70998500194  -6132.60454925519  -6132.60494811362
  Force two-norm initial, final = 7.0610441 0.32838663
  Force max component initial, final = 4.5330718 0.084175861
  Final line search alpha, max atom move = 0 0
  Iterations, force evaluations = 52 52

MPI task timing breakdown:
Section |  min time  |  avg time  |  max time  |%varavg| %total
---------------------------------------------------------------
Pair    | 0.01734    | 0.01734    | 0.01734    |   0.0 | 35.13
Neigh   | 0          | 0          | 0          |   0.0 |  0.00
Comm    | 0.00030488 | 0.00030488 | 0.00030488 |   0.0 |  0.62
Output  | 0          | 0          | 0          |   0.0 |  0.00
Modify  | 0.029209   | 0.029209   | 0.029209   |   0.0 | 59.18
Other   |            | 0.002504   |            |       |  5.07

Nlocal:            687 ave         687 max         687 min
Histogram: 1 0 0 0 0 0 0 0 0 0
Nghost:           2373 ave        2373 max        2373 min
Histogram: 1 0 0 0 0 0 0 0 0 0
Neighs:          23184 ave       23184 max       23184 min
Histogram: 1 0 0 0 0 0 0 0 0 0

Total # of neighbors = 23184
Ave neighs/atom = 33.746725
Neighbor list builds = 0
Dangerous builds = 0
Setting up quickmin style minimization ...
  Unit style    : metal
  Current step  : 52
Per MPI rank memory allocation (min/avg/max) = 3.306 | 3.306 | 3.306 Mbytes
   Step          Temp          E_pair         E_mol          TotEng         Press     
        52   0             -6132.6049      0             -6132.6049      627.47942    
        58   0.013826858   -6132.6053      0             -6132.6041      633.39207    
Loop time of 0.00755567 on 1 procs for 6 steps with 687 atoms

84.5% CPU use with 1 MPI tasks x no OpenMP threads

Minimization stats:
  Stopping criterion = energy tolerance
  Energy initial, next-to-last, final = 
     -6132.60494811362  -6132.60524622174  -6132.60534832741
  Force two-norm initial, final = 0.32838663 0.29623839
  Force max component initial, final = 0.084175861 0.072729389
  Final line search alpha, max atom move = 0 0
  Iterations, force evaluations = 6 6

MPI task timing breakdown:
Section |  min time  |  avg time  |  max time  |%varavg| %total
---------------------------------------------------------------
Pair    | 0.0054973  | 0.0054973  | 0.0054973  |   0.0 | 72.76
Neigh   | 0          | 0          | 0          |   0.0 |  0.00
Comm    | 0.00010783 | 0.00010783 | 0.00010783 |   0.0 |  1.43
Output  | 0          | 0          | 0          |   0.0 |  0.00
Modify  | 0.0015736  | 0.0015736  | 0.0015736  |   0.0 | 20.83
Other   |            | 0.0003769  |            |       |  4.99

Nlocal:            687 ave         687 max         687 min
Histogram: 1 0 0 0 0 0 0 0 0 0
Nghost:           2373 ave        2373 max        2373 min
Histogram: 1 0 0 0 0 0 0 0 0 0
Neighs:          23187 ave       23187 max       23187 min
Histogram: 1 0 0 0 0 0 0 0 0 0

Total # of neighbors = 23187
Ave neighs/atom = 33.751092
Neighbor list builds = 0
Dangerous builds = 0
Total wall time: 0:00:00
