LAMMPS (2 Aug 2023)
Processor partition = 5
Reading data file ...
  orthogonal box = (0 0 0) to (22.013901 22.013901 22.013901)
  1 by 1 by 1 MPI processor grid
  reading atoms ...
  687 atoms
  reading velocities ...
  687 velocities
  read_data CPU = 0.008 seconds
WARNING: No fixes with time integration, atoms won't move (src/verlet.cpp:60)
Neighbor list info ...
  update: every = 1 steps, delay = 0 steps, check = yes
  max neighbors/atom: 2000, page size: 100000
  master list distance cutoff = 6.8513889
  ghost atom cutoff = 6.8513889
  binsize = 3.4256945, bins = 7 7 7
  1 neighbor lists, perpetual/occasional/extra = 1 0 0
  (1) pair eam/alloy, perpetual
      attributes: half, newton on
      pair build: half/bin/atomonly/newton
      stencil: half/bin/3d
      bin: standard
Setting up Verlet run ...
  Unit style    : metal
  Current step  : 0
  Time step     : 0.001
Per MPI rank memory allocation (min/avg/max) = 3.306 | 3.306 | 3.306 Mbytes
   Step          Temp          E_pair         E_mol          TotEng         Press     
         0   0             -6132.6909      0             -6132.6909      638.81203    
Loop time of 3.75e-07 on 1 procs for 0 steps with 687 atoms

0.0% CPU use with 1 MPI tasks x no OpenMP threads

MPI task timing breakdown:
Section |  min time  |  avg time  |  max time  |%varavg| %total
---------------------------------------------------------------
Pair    | 0          | 0          | 0          |   0.0 |  0.00
Neigh   | 0          | 0          | 0          |   0.0 |  0.00
Comm    | 0          | 0          | 0          |   0.0 |  0.00
Output  | 0          | 0          | 0          |   0.0 |  0.00
Modify  | 0          | 0          | 0          |   0.0 |  0.00
Other   |            | 3.75e-07   |            |       |100.00

Nlocal:            687 ave         687 max         687 min
Histogram: 1 0 0 0 0 0 0 0 0 0
Nghost:           2373 ave        2373 max        2373 min
Histogram: 1 0 0 0 0 0 0 0 0 0
Neighs:          23032 ave       23032 max       23032 min
Histogram: 1 0 0 0 0 0 0 0 0 0

Total # of neighbors = 23032
Ave neighs/atom = 33.525473
Neighbor list builds = 0
Dangerous builds = 0
Setting up quickmin style minimization ...
  Unit style    : metal
  Current step  : 0
Per MPI rank memory allocation (min/avg/max) = 3.306 | 3.306 | 3.306 Mbytes
   Step          Temp          E_pair         E_mol          TotEng         Press     
         0   0             -6132.691       0             -6132.691       638.95526    
        34   0.029243311   -6132.7697      0             -6132.7671      699.58791    
Loop time of 0.0159131 on 1 procs for 34 steps with 687 atoms

98.8% CPU use with 1 MPI tasks x no OpenMP threads

Minimization stats:
  Stopping criterion = energy tolerance
  Energy initial, next-to-last, final = 
     -6132.69098968893  -6132.76965933056   -6132.7697317485
  Force two-norm initial, final = 2.3727723 0.1390506
  Force max component initial, final = 0.9277371 0.02626224
  Final line search alpha, max atom move = 0 0
  Iterations, force evaluations = 34 34

MPI task timing breakdown:
Section |  min time  |  avg time  |  max time  |%varavg| %total
---------------------------------------------------------------
Pair    | 0.011598   | 0.011598   | 0.011598   |   0.0 | 72.88
Neigh   | 0          | 0          | 0          |   0.0 |  0.00
Comm    | 0.00019709 | 0.00019709 | 0.00019709 |   0.0 |  1.24
Output  | 0          | 0          | 0          |   0.0 |  0.00
Modify  | 0.002583   | 0.002583   | 0.002583   |   0.0 | 16.23
Other   |            | 0.001535   |            |       |  9.65

Nlocal:            687 ave         687 max         687 min
Histogram: 1 0 0 0 0 0 0 0 0 0
Nghost:           2373 ave        2373 max        2373 min
Histogram: 1 0 0 0 0 0 0 0 0 0
Neighs:          23035 ave       23035 max       23035 min
Histogram: 1 0 0 0 0 0 0 0 0 0

Total # of neighbors = 23035
Ave neighs/atom = 33.52984
Neighbor list builds = 0
Dangerous builds = 0
Setting up quickmin style minimization ...
  Unit style    : metal
  Current step  : 34
Per MPI rank memory allocation (min/avg/max) = 3.306 | 3.306 | 3.306 Mbytes
   Step          Temp          E_pair         E_mol          TotEng         Press     
        34   0             -6132.7697      0             -6132.7697      699.32829    
        40   0.018575115   -6132.7699      0             -6132.7683      700.04419    
Loop time of 0.00327458 on 1 procs for 6 steps with 687 atoms

99.9% CPU use with 1 MPI tasks x no OpenMP threads

Minimization stats:
  Stopping criterion = energy tolerance
  Energy initial, next-to-last, final = 
      -6132.7697317485  -6132.76985707169  -6132.76991084988
  Force two-norm initial, final = 0.1390506 0.13021726
  Force max component initial, final = 0.02626224 0.024533769
  Final line search alpha, max atom move = 0 0
  Iterations, force evaluations = 6 6

MPI task timing breakdown:
Section |  min time  |  avg time  |  max time  |%varavg| %total
---------------------------------------------------------------
Pair    | 0.0022859  | 0.0022859  | 0.0022859  |   0.0 | 69.81
Neigh   | 0          | 0          | 0          |   0.0 |  0.00
Comm    | 3.7084e-05 | 3.7084e-05 | 3.7084e-05 |   0.0 |  1.13
Output  | 0          | 0          | 0          |   0.0 |  0.00
Modify  | 0.00047617 | 0.00047617 | 0.00047617 |   0.0 | 14.54
Other   |            | 0.0004755  |            |       | 14.52

Nlocal:            687 ave         687 max         687 min
Histogram: 1 0 0 0 0 0 0 0 0 0
Nghost:           2373 ave        2373 max        2373 min
Histogram: 1 0 0 0 0 0 0 0 0 0
Neighs:          23158 ave       23158 max       23158 min
Histogram: 1 0 0 0 0 0 0 0 0 0

Total # of neighbors = 23158
Ave neighs/atom = 33.708879
Neighbor list builds = 0
Dangerous builds = 0
Total wall time: 0:00:00
