LAMMPS (2 Aug 2023)
Processor partition = 3
Reading data file ...
  orthogonal box = (0 0 0) to (22.013901 22.013901 22.013901)
  1 by 1 by 1 MPI processor grid
  reading atoms ...
  687 atoms
  reading velocities ...
  687 velocities
  read_data CPU = 0.010 seconds
WARNING: No fixes with time integration, atoms won't move (src/verlet.cpp:60)
Neighbor list info ...
  update: every = 1 steps, delay = 0 steps, check = yes
  max neighbors/atom: 2000, page size: 100000
  master list distance cutoff = 6.8513889
  ghost atom cutoff = 6.8513889
  binsize = 3.4256945, bins = 7 7 7
  1 neighbor lists, perpetual/occasional/extra = 1 0 0
  (1) pair eam/alloy, perpetual
      attributes: half, newton on
      pair build: half/bin/atomonly/newton
      stencil: half/bin/3d
      bin: standard
Setting up Verlet run ...
  Unit style    : metal
  Current step  : 0
  Time step     : 0.001
Per MPI rank memory allocation (min/avg/max) = 3.306 | 3.306 | 3.306 Mbytes
   Step          Temp          E_pair         E_mol          TotEng         Press     
         0   0             -6132.6909      0             -6132.6909      638.81203    
Loop time of 4.59e-07 on 1 procs for 0 steps with 687 atoms

0.0% CPU use with 1 MPI tasks x no OpenMP threads

MPI task timing breakdown:
Section |  min time  |  avg time  |  max time  |%varavg| %total
---------------------------------------------------------------
Pair    | 0          | 0          | 0          |   0.0 |  0.00
Neigh   | 0          | 0          | 0          |   0.0 |  0.00
Comm    | 0          | 0          | 0          |   0.0 |  0.00
Output  | 0          | 0          | 0          |   0.0 |  0.00
Modify  | 0          | 0          | 0          |   0.0 |  0.00
Other   |            | 4.59e-07   |            |       |100.00

Nlocal:            687 ave         687 max         687 min
Histogram: 1 0 0 0 0 0 0 0 0 0
Nghost:           2373 ave        2373 max        2373 min
Histogram: 1 0 0 0 0 0 0 0 0 0
Neighs:          23032 ave       23032 max       23032 min
Histogram: 1 0 0 0 0 0 0 0 0 0

Total # of neighbors = 23032
Ave neighs/atom = 33.525473
Neighbor list builds = 0
Dangerous builds = 0
Setting up quickmin style minimization ...
  Unit style    : metal
  Current step  : 0
Per MPI rank memory allocation (min/avg/max) = 3.306 | 3.306 | 3.306 Mbytes
   Step          Temp          E_pair         E_mol          TotEng         Press     
         0   0             -6132.4496      0             -6132.4496      812.45501    
        33   0.22425073    -6132.6801      0             -6132.6602      577.20283    
Loop time of 0.0137915 on 1 procs for 33 steps with 687 atoms

98.7% CPU use with 1 MPI tasks x no OpenMP threads

Minimization stats:
  Stopping criterion = energy tolerance
  Energy initial, next-to-last, final = 
     -6132.44956489721  -6132.67953877416   -6132.6800604806
  Force two-norm initial, final = 2.782257 0.34690042
  Force max component initial, final = 1.5214277 0.16708886
  Final line search alpha, max atom move = 0 0
  Iterations, force evaluations = 33 33

MPI task timing breakdown:
Section |  min time  |  avg time  |  max time  |%varavg| %total
---------------------------------------------------------------
Pair    | 0.0112     | 0.0112     | 0.0112     |   0.0 | 81.21
Neigh   | 0          | 0          | 0          |   0.0 |  0.00
Comm    | 0.00017913 | 0.00017913 | 0.00017913 |   0.0 |  1.30
Output  | 0          | 0          | 0          |   0.0 |  0.00
Modify  | 0.0018655  | 0.0018655  | 0.0018655  |   0.0 | 13.53
Other   |            | 0.0005464  |            |       |  3.96

Nlocal:            687 ave         687 max         687 min
Histogram: 1 0 0 0 0 0 0 0 0 0
Nghost:           2373 ave        2373 max        2373 min
Histogram: 1 0 0 0 0 0 0 0 0 0
Neighs:          22982 ave       22982 max       22982 min
Histogram: 1 0 0 0 0 0 0 0 0 0

Total # of neighbors = 22982
Ave neighs/atom = 33.452693
Neighbor list builds = 0
Dangerous builds = 0
Setting up quickmin style minimization ...
  Unit style    : metal
  Current step  : 33
Per MPI rank memory allocation (min/avg/max) = 3.306 | 3.306 | 3.306 Mbytes
   Step          Temp          E_pair         E_mol          TotEng         Press     
        33   0             -6132.6801      0             -6132.6801      575.21192    
        39   0.014638843   -6132.6804      0             -6132.6791      574.91244    
Loop time of 0.00272367 on 1 procs for 6 steps with 687 atoms

100.0% CPU use with 1 MPI tasks x no OpenMP threads

Minimization stats:
  Stopping criterion = energy tolerance
  Energy initial, next-to-last, final = 
      -6132.6800604806  -6132.68031044554  -6132.68043521683
  Force two-norm initial, final = 0.34690042 0.34129898
  Force max component initial, final = 0.16708886 0.16503538
  Final line search alpha, max atom move = 0 0
  Iterations, force evaluations = 6 6

MPI task timing breakdown:
Section |  min time  |  avg time  |  max time  |%varavg| %total
---------------------------------------------------------------
Pair    | 0.0024153  | 0.0024153  | 0.0024153  |   0.0 | 88.68
Neigh   | 0          | 0          | 0          |   0.0 |  0.00
Comm    | 3.8538e-05 | 3.8538e-05 | 3.8538e-05 |   0.0 |  1.41
Output  | 0          | 0          | 0          |   0.0 |  0.00
Modify  | 0.00015979 | 0.00015979 | 0.00015979 |   0.0 |  5.87
Other   |            | 0.00011    |            |       |  4.04

Nlocal:            687 ave         687 max         687 min
Histogram: 1 0 0 0 0 0 0 0 0 0
Nghost:           2373 ave        2373 max        2373 min
Histogram: 1 0 0 0 0 0 0 0 0 0
Neighs:          23058 ave       23058 max       23058 min
Histogram: 1 0 0 0 0 0 0 0 0 0

Total # of neighbors = 23058
Ave neighs/atom = 33.563319
Neighbor list builds = 0
Dangerous builds = 0
Total wall time: 0:00:00
