LAMMPS (2 Aug 2023)
Processor partition = 4
Reading data file ...
  orthogonal box = (0 0 0) to (22.013901 22.013901 22.013901)
  1 by 1 by 1 MPI processor grid
  reading atoms ...
  687 atoms
  reading velocities ...
  687 velocities
  read_data CPU = 0.006 seconds
WARNING: No fixes with time integration, atoms won't move (src/verlet.cpp:60)
Neighbor list info ...
  update: every = 1 steps, delay = 0 steps, check = yes
  max neighbors/atom: 2000, page size: 100000
  master list distance cutoff = 6.8513889
  ghost atom cutoff = 6.8513889
  binsize = 3.4256945, bins = 7 7 7
  1 neighbor lists, perpetual/occasional/extra = 1 0 0
  (1) pair eam/alloy, perpetual
      attributes: half, newton on
      pair build: half/bin/atomonly/newton
      stencil: half/bin/3d
      bin: standard
Setting up Verlet run ...
  Unit style    : metal
  Current step  : 0
  Time step     : 0.001
Per MPI rank memory allocation (min/avg/max) = 3.306 | 3.306 | 3.306 Mbytes
   Step          Temp          E_pair         E_mol          TotEng         Press     
         0   0             -6132.7716      0             -6132.7716      706.84118    
Loop time of 3.33e-07 on 1 procs for 0 steps with 687 atoms

0.0% CPU use with 1 MPI tasks x no OpenMP threads

MPI task timing breakdown:
Section |  min time  |  avg time  |  max time  |%varavg| %total
---------------------------------------------------------------
Pair    | 0          | 0          | 0          |   0.0 |  0.00
Neigh   | 0          | 0          | 0          |   0.0 |  0.00
Comm    | 0          | 0          | 0          |   0.0 |  0.00
Output  | 0          | 0          | 0          |   0.0 |  0.00
Modify  | 0          | 0          | 0          |   0.0 |  0.00
Other   |            | 3.33e-07   |            |       |100.00

Nlocal:            687 ave         687 max         687 min
Histogram: 1 0 0 0 0 0 0 0 0 0
Nghost:           2373 ave        2373 max        2373 min
Histogram: 1 0 0 0 0 0 0 0 0 0
Neighs:          23264 ave       23264 max       23264 min
Histogram: 1 0 0 0 0 0 0 0 0 0

Total # of neighbors = 23264
Ave neighs/atom = 33.863173
Neighbor list builds = 0
Dangerous builds = 0
Setting up quickmin style minimization ...
  Unit style    : metal
  Current step  : 0
Per MPI rank memory allocation (min/avg/max) = 3.306 | 3.306 | 3.306 Mbytes
   Step          Temp          E_pair         E_mol          TotEng         Press     
         0   0             -6131.7102      0             -6131.7102      808.82106    
        52   0.20008681    -6132.605       0             -6132.5872      629.73956    
Loop time of 0.049359 on 1 procs for 52 steps with 687 atoms

98.0% CPU use with 1 MPI tasks x no OpenMP threads

Minimization stats:
  Stopping criterion = energy tolerance
  Energy initial, next-to-last, final = 
     -6131.71019140084  -6132.60456202515  -6132.60496230141
  Force two-norm initial, final = 7.0610042 0.34659339
  Force max component initial, final = 4.5332327 0.12344911
  Final line search alpha, max atom move = 0 0
  Iterations, force evaluations = 52 52

MPI task timing breakdown:
Section |  min time  |  avg time  |  max time  |%varavg| %total
---------------------------------------------------------------
Pair    | 0.021117   | 0.021117   | 0.021117   |   0.0 | 42.78
Neigh   | 0          | 0          | 0          |   0.0 |  0.00
Comm    | 0.00036346 | 0.00036346 | 0.00036346 |   0.0 |  0.74
Output  | 0          | 0          | 0          |   0.0 |  0.00
Modify  | 0.025584   | 0.025584   | 0.025584   |   0.0 | 51.83
Other   |            | 0.002295   |            |       |  4.65

Nlocal:            687 ave         687 max         687 min
Histogram: 1 0 0 0 0 0 0 0 0 0
Nghost:           2373 ave        2373 max        2373 min
Histogram: 1 0 0 0 0 0 0 0 0 0
Neighs:          23189 ave       23189 max       23189 min
Histogram: 1 0 0 0 0 0 0 0 0 0

Total # of neighbors = 23189
Ave neighs/atom = 33.754003
Neighbor list builds = 0
Dangerous builds = 0
Setting up quickmin style minimization ...
  Unit style    : metal
  Current step  : 52
Per MPI rank memory allocation (min/avg/max) = 3.306 | 3.306 | 3.306 Mbytes
   Step          Temp          E_pair         E_mol          TotEng         Press     
        52   0             -6132.605       0             -6132.605       627.96318    
        58   0.013826999   -6132.6054      0             -6132.6041      633.31987    
Loop time of 0.00755617 on 1 procs for 6 steps with 687 atoms

100.0% CPU use with 1 MPI tasks x no OpenMP threads

Minimization stats:
  Stopping criterion = energy tolerance
  Energy initial, next-to-last, final = 
     -6132.60496230141   -6132.6052659188  -6132.60536803177
  Force two-norm initial, final = 0.34659339 0.29627429
  Force max component initial, final = 0.12344911 0.072796607
  Final line search alpha, max atom move = 0 0
  Iterations, force evaluations = 6 6

MPI task timing breakdown:
Section |  min time  |  avg time  |  max time  |%varavg| %total
---------------------------------------------------------------
Pair    | 0.0023381  | 0.0023381  | 0.0023381  |   0.0 | 30.94
Neigh   | 0          | 0          | 0          |   0.0 |  0.00
Comm    | 3.6584e-05 | 3.6584e-05 | 3.6584e-05 |   0.0 |  0.48
Output  | 0          | 0          | 0          |   0.0 |  0.00
Modify  | 0.0040169  | 0.0040169  | 0.0040169  |   0.0 | 53.16
Other   |            | 0.001165   |            |       | 15.41

Nlocal:            687 ave         687 max         687 min
Histogram: 1 0 0 0 0 0 0 0 0 0
Nghost:           2373 ave        2373 max        2373 min
Histogram: 1 0 0 0 0 0 0 0 0 0
Neighs:          23188 ave       23188 max       23188 min
Histogram: 1 0 0 0 0 0 0 0 0 0

Total # of neighbors = 23188
Ave neighs/atom = 33.752547
Neighbor list builds = 0
Dangerous builds = 0
Total wall time: 0:00:00
