LAMMPS (2 Aug 2023)
Processor partition = 1
Reading data file ...
  orthogonal box = (0 0 0) to (22.013901 22.013901 22.013901)
  1 by 1 by 1 MPI processor grid
  reading atoms ...
  687 atoms
  reading velocities ...
  687 velocities
  read_data CPU = 0.009 seconds
WARNING: No fixes with time integration, atoms won't move (src/verlet.cpp:60)
Neighbor list info ...
  update: every = 1 steps, delay = 0 steps, check = yes
  max neighbors/atom: 2000, page size: 100000
  master list distance cutoff = 6.8513889
  ghost atom cutoff = 6.8513889
  binsize = 3.4256945, bins = 7 7 7
  1 neighbor lists, perpetual/occasional/extra = 1 0 0
  (1) pair eam/alloy, perpetual
      attributes: half, newton on
      pair build: half/bin/atomonly/newton
      stencil: half/bin/3d
      bin: standard
Setting up Verlet run ...
  Unit style    : metal
  Current step  : 0
  Time step     : 0.001
Per MPI rank memory allocation (min/avg/max) = 3.306 | 3.306 | 3.306 Mbytes
   Step          Temp          E_pair         E_mol          TotEng         Press     
         0   0             -6132.6909      0             -6132.6909      638.81203    
Loop time of 4.17e-07 on 1 procs for 0 steps with 687 atoms

239.8% CPU use with 1 MPI tasks x no OpenMP threads

MPI task timing breakdown:
Section |  min time  |  avg time  |  max time  |%varavg| %total
---------------------------------------------------------------
Pair    | 0          | 0          | 0          |   0.0 |  0.00
Neigh   | 0          | 0          | 0          |   0.0 |  0.00
Comm    | 0          | 0          | 0          |   0.0 |  0.00
Output  | 0          | 0          | 0          |   0.0 |  0.00
Modify  | 0          | 0          | 0          |   0.0 |  0.00
Other   |            | 4.17e-07   |            |       |100.00

Nlocal:            687 ave         687 max         687 min
Histogram: 1 0 0 0 0 0 0 0 0 0
Nghost:           2373 ave        2373 max        2373 min
Histogram: 1 0 0 0 0 0 0 0 0 0
Neighs:          23032 ave       23032 max       23032 min
Histogram: 1 0 0 0 0 0 0 0 0 0

Total # of neighbors = 23032
Ave neighs/atom = 33.525473
Neighbor list builds = 0
Dangerous builds = 0
Setting up quickmin style minimization ...
  Unit style    : metal
  Current step  : 0
Per MPI rank memory allocation (min/avg/max) = 3.306 | 3.306 | 3.306 Mbytes
   Step          Temp          E_pair         E_mol          TotEng         Press     
         0   0             -6132.4495      0             -6132.4495      812.35038    
        33   0.22391339    -6132.68        0             -6132.6602      577.24815    
Loop time of 0.0137933 on 1 procs for 33 steps with 687 atoms

99.5% CPU use with 1 MPI tasks x no OpenMP threads

Minimization stats:
  Stopping criterion = energy tolerance
  Energy initial, next-to-last, final = 
      -6132.4495132999   -6132.6795282894   -6132.6800495498
  Force two-norm initial, final = 2.7821633 0.34681938
  Force max component initial, final = 1.521759 0.16703894
  Final line search alpha, max atom move = 0 0
  Iterations, force evaluations = 33 33

MPI task timing breakdown:
Section |  min time  |  avg time  |  max time  |%varavg| %total
---------------------------------------------------------------
Pair    | 0.011148   | 0.011148   | 0.011148   |   0.0 | 80.82
Neigh   | 0          | 0          | 0          |   0.0 |  0.00
Comm    | 0.00018396 | 0.00018396 | 0.00018396 |   0.0 |  1.33
Output  | 0          | 0          | 0          |   0.0 |  0.00
Modify  | 0.0018807  | 0.0018807  | 0.0018807  |   0.0 | 13.63
Other   |            | 0.0005805  |            |       |  4.21

Nlocal:            687 ave         687 max         687 min
Histogram: 1 0 0 0 0 0 0 0 0 0
Nghost:           2373 ave        2373 max        2373 min
Histogram: 1 0 0 0 0 0 0 0 0 0
Neighs:          22981 ave       22981 max       22981 min
Histogram: 1 0 0 0 0 0 0 0 0 0

Total # of neighbors = 22981
Ave neighs/atom = 33.451237
Neighbor list builds = 0
Dangerous builds = 0
Setting up quickmin style minimization ...
  Unit style    : metal
  Current step  : 33
Per MPI rank memory allocation (min/avg/max) = 3.306 | 3.306 | 3.306 Mbytes
   Step          Temp          E_pair         E_mol          TotEng         Press     
        33   0             -6132.68        0             -6132.68        575.26024    
        39   0.014632633   -6132.6804      0             -6132.6791      574.93234    
Loop time of 0.00272367 on 1 procs for 6 steps with 687 atoms

100.0% CPU use with 1 MPI tasks x no OpenMP threads

Minimization stats:
  Stopping criterion = energy tolerance
  Energy initial, next-to-last, final = 
      -6132.6800495498  -6132.68029941638  -6132.68042415267
  Force two-norm initial, final = 0.34681938 0.34126043
  Force max component initial, final = 0.16703894 0.16495323
  Final line search alpha, max atom move = 0 0
  Iterations, force evaluations = 6 6

MPI task timing breakdown:
Section |  min time  |  avg time  |  max time  |%varavg| %total
---------------------------------------------------------------
Pair    | 0.002393   | 0.002393   | 0.002393   |   0.0 | 87.86
Neigh   | 0          | 0          | 0          |   0.0 |  0.00
Comm    | 3.7001e-05 | 3.7001e-05 | 3.7001e-05 |   0.0 |  1.36
Output  | 0          | 0          | 0          |   0.0 |  0.00
Modify  | 0.00018692 | 0.00018692 | 0.00018692 |   0.0 |  6.86
Other   |            | 0.0001067  |            |       |  3.92

Nlocal:            687 ave         687 max         687 min
Histogram: 1 0 0 0 0 0 0 0 0 0
Nghost:           2373 ave        2373 max        2373 min
Histogram: 1 0 0 0 0 0 0 0 0 0
Neighs:          23057 ave       23057 max       23057 min
Histogram: 1 0 0 0 0 0 0 0 0 0

Total # of neighbors = 23057
Ave neighs/atom = 33.561863
Neighbor list builds = 0
Dangerous builds = 0
Total wall time: 0:00:00
