LAMMPS (2 Aug 2023)
Processor partition = 6
Reading data file ...
  orthogonal box = (0 0 0) to (22.013901 22.013901 22.013901)
  1 by 1 by 1 MPI processor grid
  reading atoms ...
  687 atoms
  reading velocities ...
  687 velocities
  read_data CPU = 0.008 seconds
WARNING: No fixes with time integration, atoms won't move (src/verlet.cpp:60)
Neighbor list info ...
  update: every = 1 steps, delay = 0 steps, check = yes
  max neighbors/atom: 2000, page size: 100000
  master list distance cutoff = 6.8513889
  ghost atom cutoff = 6.8513889
  binsize = 3.4256945, bins = 7 7 7
  1 neighbor lists, perpetual/occasional/extra = 1 0 0
  (1) pair eam/alloy, perpetual
      attributes: half, newton on
      pair build: half/bin/atomonly/newton
      stencil: half/bin/3d
      bin: standard
Setting up Verlet run ...
  Unit style    : metal
  Current step  : 0
  Time step     : 0.001
Per MPI rank memory allocation (min/avg/max) = 3.306 | 3.306 | 3.306 Mbytes
   Step          Temp          E_pair         E_mol          TotEng         Press     
         0   0             -6132.6909      0             -6132.6909      638.81203    
Loop time of 3.75e-07 on 1 procs for 0 steps with 687 atoms

266.7% CPU use with 1 MPI tasks x no OpenMP threads

MPI task timing breakdown:
Section |  min time  |  avg time  |  max time  |%varavg| %total
---------------------------------------------------------------
Pair    | 0          | 0          | 0          |   0.0 |  0.00
Neigh   | 0          | 0          | 0          |   0.0 |  0.00
Comm    | 0          | 0          | 0          |   0.0 |  0.00
Output  | 0          | 0          | 0          |   0.0 |  0.00
Modify  | 0          | 0          | 0          |   0.0 |  0.00
Other   |            | 3.75e-07   |            |       |100.00

Nlocal:            687 ave         687 max         687 min
Histogram: 1 0 0 0 0 0 0 0 0 0
Nghost:           2373 ave        2373 max        2373 min
Histogram: 1 0 0 0 0 0 0 0 0 0
Neighs:          23032 ave       23032 max       23032 min
Histogram: 1 0 0 0 0 0 0 0 0 0

Total # of neighbors = 23032
Ave neighs/atom = 33.525473
Neighbor list builds = 0
Dangerous builds = 0
Setting up quickmin style minimization ...
  Unit style    : metal
  Current step  : 0
Per MPI rank memory allocation (min/avg/max) = 3.306 | 3.306 | 3.306 Mbytes
   Step          Temp          E_pair         E_mol          TotEng         Press     
         0   0             -6132.691       0             -6132.691       638.95526    
        35   0.027468967   -6132.7702      0             -6132.7678      699.82676    
Loop time of 0.0422359 on 1 procs for 35 steps with 687 atoms

90.9% CPU use with 1 MPI tasks x no OpenMP threads

Minimization stats:
  Stopping criterion = energy tolerance
  Energy initial, next-to-last, final = 
     -6132.69098968893   -6132.7701524092  -6132.77021072747
  Force two-norm initial, final = 2.3727723 0.11533318
  Force max component initial, final = 0.9277371 0.021416168
  Final line search alpha, max atom move = 0 0
  Iterations, force evaluations = 35 35

MPI task timing breakdown:
Section |  min time  |  avg time  |  max time  |%varavg| %total
---------------------------------------------------------------
Pair    | 0.017791   | 0.017791   | 0.017791   |   0.0 | 42.12
Neigh   | 0          | 0          | 0          |   0.0 |  0.00
Comm    | 0.00030621 | 0.00030621 | 0.00030621 |   0.0 |  0.73
Output  | 0          | 0          | 0          |   0.0 |  0.00
Modify  | 0.017465   | 0.017465   | 0.017465   |   0.0 | 41.35
Other   |            | 0.006674   |            |       | 15.80

Nlocal:            687 ave         687 max         687 min
Histogram: 1 0 0 0 0 0 0 0 0 0
Nghost:           2373 ave        2373 max        2373 min
Histogram: 1 0 0 0 0 0 0 0 0 0
Neighs:          23035 ave       23035 max       23035 min
Histogram: 1 0 0 0 0 0 0 0 0 0

Total # of neighbors = 23035
Ave neighs/atom = 33.52984
Neighbor list builds = 0
Dangerous builds = 0
Setting up quickmin style minimization ...
  Unit style    : metal
  Current step  : 35
Per MPI rank memory allocation (min/avg/max) = 3.306 | 3.306 | 3.306 Mbytes
   Step          Temp          E_pair         E_mol          TotEng         Press     
        35   0             -6132.7702      0             -6132.7702      699.58289    
        41   0.0049443605  -6132.7703      0             -6132.7698      699.59823    
Loop time of 0.00819813 on 1 procs for 6 steps with 687 atoms

100.0% CPU use with 1 MPI tasks x no OpenMP threads

Minimization stats:
  Stopping criterion = energy tolerance
  Energy initial, next-to-last, final = 
     -6132.77021072747  -6132.77026345384  -6132.77028683945
  Force two-norm initial, final = 0.11533318 0.1115111
  Force max component initial, final = 0.021416168 0.020612599
  Final line search alpha, max atom move = 0 0
  Iterations, force evaluations = 6 6

MPI task timing breakdown:
Section |  min time  |  avg time  |  max time  |%varavg| %total
---------------------------------------------------------------
Pair    | 0.0022755  | 0.0022755  | 0.0022755  |   0.0 | 27.76
Neigh   | 0          | 0          | 0          |   0.0 |  0.00
Comm    | 3.7084e-05 | 3.7084e-05 | 3.7084e-05 |   0.0 |  0.45
Output  | 0          | 0          | 0          |   0.0 |  0.00
Modify  | 0.0037476  | 0.0037476  | 0.0037476  |   0.0 | 45.71
Other   |            | 0.002138   |            |       | 26.08

Nlocal:            687 ave         687 max         687 min
Histogram: 1 0 0 0 0 0 0 0 0 0
Nghost:           2373 ave        2373 max        2373 min
Histogram: 1 0 0 0 0 0 0 0 0 0
Neighs:          23132 ave       23132 max       23132 min
Histogram: 1 0 0 0 0 0 0 0 0 0

Total # of neighbors = 23132
Ave neighs/atom = 33.671033
Neighbor list builds = 0
Dangerous builds = 0
Total wall time: 0:00:00
