LAMMPS (2 Aug 2023)
Processor partition = 5
Reading data file ...
  orthogonal box = (0 0 0) to (22.013901 22.013901 22.013901)
  1 by 1 by 1 MPI processor grid
  reading atoms ...
  687 atoms
  reading velocities ...
  687 velocities
  read_data CPU = 0.006 seconds
WARNING: No fixes with time integration, atoms won't move (src/verlet.cpp:60)
Neighbor list info ...
  update: every = 1 steps, delay = 0 steps, check = yes
  max neighbors/atom: 2000, page size: 100000
  master list distance cutoff = 6.8513889
  ghost atom cutoff = 6.8513889
  binsize = 3.4256945, bins = 7 7 7
  1 neighbor lists, perpetual/occasional/extra = 1 0 0
  (1) pair eam/alloy, perpetual
      attributes: half, newton on
      pair build: half/bin/atomonly/newton
      stencil: half/bin/3d
      bin: standard
Setting up Verlet run ...
  Unit style    : metal
  Current step  : 0
  Time step     : 0.001
Per MPI rank memory allocation (min/avg/max) = 3.306 | 3.306 | 3.306 Mbytes
   Step          Temp          E_pair         E_mol          TotEng         Press     
         0   0             -6132.6909      0             -6132.6909      638.81203    
Loop time of 4.58e-07 on 1 procs for 0 steps with 687 atoms

218.3% CPU use with 1 MPI tasks x no OpenMP threads

MPI task timing breakdown:
Section |  min time  |  avg time  |  max time  |%varavg| %total
---------------------------------------------------------------
Pair    | 0          | 0          | 0          |   0.0 |  0.00
Neigh   | 0          | 0          | 0          |   0.0 |  0.00
Comm    | 0          | 0          | 0          |   0.0 |  0.00
Output  | 0          | 0          | 0          |   0.0 |  0.00
Modify  | 0          | 0          | 0          |   0.0 |  0.00
Other   |            | 4.58e-07   |            |       |100.00

Nlocal:            687 ave         687 max         687 min
Histogram: 1 0 0 0 0 0 0 0 0 0
Nghost:           2373 ave        2373 max        2373 min
Histogram: 1 0 0 0 0 0 0 0 0 0
Neighs:          23032 ave       23032 max       23032 min
Histogram: 1 0 0 0 0 0 0 0 0 0

Total # of neighbors = 23032
Ave neighs/atom = 33.525473
Neighbor list builds = 0
Dangerous builds = 0
Setting up quickmin style minimization ...
  Unit style    : metal
  Current step  : 0
Per MPI rank memory allocation (min/avg/max) = 3.306 | 3.306 | 3.306 Mbytes
   Step          Temp          E_pair         E_mol          TotEng         Press     
         0   0             -6132.5744      0             -6132.5744      743.61503    
        35   0.082002387   -6132.7215      0             -6132.7142      665.9513     
Loop time of 0.0422355 on 1 procs for 35 steps with 687 atoms

99.8% CPU use with 1 MPI tasks x no OpenMP threads

Minimization stats:
  Stopping criterion = energy tolerance
  Energy initial, next-to-last, final = 
     -6132.57440377473  -6132.72130930978  -6132.72149912533
  Force two-norm initial, final = 2.1300417 0.24783915
  Force max component initial, final = 1.4298919 0.1248293
  Final line search alpha, max atom move = 0 0
  Iterations, force evaluations = 35 35

MPI task timing breakdown:
Section |  min time  |  avg time  |  max time  |%varavg| %total
---------------------------------------------------------------
Pair    | 0.012421   | 0.012421   | 0.012421   |   0.0 | 29.41
Neigh   | 0          | 0          | 0          |   0.0 |  0.00
Comm    | 0.00020167 | 0.00020167 | 0.00020167 |   0.0 |  0.48
Output  | 0          | 0          | 0          |   0.0 |  0.00
Modify  | 0.024551   | 0.024551   | 0.024551   |   0.0 | 58.13
Other   |            | 0.005062   |            |       | 11.98

Nlocal:            687 ave         687 max         687 min
Histogram: 1 0 0 0 0 0 0 0 0 0
Nghost:           2373 ave        2373 max        2373 min
Histogram: 1 0 0 0 0 0 0 0 0 0
Neighs:          22999 ave       22999 max       22999 min
Histogram: 1 0 0 0 0 0 0 0 0 0

Total # of neighbors = 22999
Ave neighs/atom = 33.477438
Neighbor list builds = 0
Dangerous builds = 0
Setting up quickmin style minimization ...
  Unit style    : metal
  Current step  : 35
Per MPI rank memory allocation (min/avg/max) = 3.306 | 3.306 | 3.306 Mbytes
   Step          Temp          E_pair         E_mol          TotEng         Press     
        35   0             -6132.7215      0             -6132.7215      665.22328    
        41   0.01651212    -6132.7218      0             -6132.7203      673.12955    
Loop time of 0.008199 on 1 procs for 6 steps with 687 atoms

100.0% CPU use with 1 MPI tasks x no OpenMP threads

Minimization stats:
  Stopping criterion = energy tolerance
  Energy initial, next-to-last, final = 
     -6132.72149912533  -6132.72171628968  -6132.72180266622
  Force two-norm initial, final = 0.24783915 0.21537615
  Force max component initial, final = 0.1248293 0.08002259
  Final line search alpha, max atom move = 0 0
  Iterations, force evaluations = 6 6

MPI task timing breakdown:
Section |  min time  |  avg time  |  max time  |%varavg| %total
---------------------------------------------------------------
Pair    | 0.0022654  | 0.0022654  | 0.0022654  |   0.0 | 27.63
Neigh   | 0          | 0          | 0          |   0.0 |  0.00
Comm    | 3.7083e-05 | 3.7083e-05 | 3.7083e-05 |   0.0 |  0.45
Output  | 0          | 0          | 0          |   0.0 |  0.00
Modify  | 0.0053945  | 0.0053945  | 0.0053945  |   0.0 | 65.79
Other   |            | 0.000502   |            |       |  6.12

Nlocal:            687 ave         687 max         687 min
Histogram: 1 0 0 0 0 0 0 0 0 0
Nghost:           2373 ave        2373 max        2373 min
Histogram: 1 0 0 0 0 0 0 0 0 0
Neighs:          23076 ave       23076 max       23076 min
Histogram: 1 0 0 0 0 0 0 0 0 0

Total # of neighbors = 23076
Ave neighs/atom = 33.58952
Neighbor list builds = 0
Dangerous builds = 0
Total wall time: 0:00:00
