ITEM: TIMESTEP
75
ITEM: NUMBER OF ATOMS
688
ITEM: BOX BOUNDS pp pp pp
0.0000000000000000e+00 2.2013900999999997e+01
0.0000000000000000e+00 2.2013900999999997e+01
0.0000000000000000e+00 2.2013900999999997e+01
ITEM: ATOMS id type x y z c_pot
189 1 20.4426 4.71622 11.0073 -8.94927
2 1 1.57215 1.57215 1.57205 -8.94926
175 1 18.8717 9.43489 9.43453 -8.95026
4 1 4.71687 1.57196 1.57188 -8.94959
174 1 15.7313 9.42787 9.43453 -8.97081
6 1 7.86195 1.57198 1.57187 -8.94946
7 1 9.43448 1.6867e-15 -0.000247247 -8.94957
8 1 11.007 1.57196 1.57181 -8.94951
9 1 12.5794 1.58133e-15 -0.000247247 -8.94957
10 1 14.1519 1.57198 1.57187 -8.94946
173 1 12.6506 9.20885 9.43453 -8.07038
12 1 17.297 1.57196 1.57188 -8.94959
172 1 9.36332 9.20885 9.43453 -8.07038
14 1 20.4417 1.57215 1.57205 -8.94926
171 1 6.28262 9.42787 9.43453 -8.97081
16 1 1.572 4.71697 1.57194 -8.9498
170 1 3.14221 9.43489 9.43453 -8.95026
18 1 4.71568 4.71574 1.57048 -8.94855
169 1 8.53235e-16 9.4348 9.43453 -8.94963
20 1 7.86155 4.71588 1.57075 -8.94933
188 1 17.3001 4.71374 11.008 -8.94743
22 1 11.007 4.71589 1.57079 -8.94916
184 1 4.71378 4.71374 11.008 -8.94743
24 1 14.1524 4.71588 1.57075 -8.94933
168 1 18.8731 6.28731 9.43453 -8.94887
26 1 17.2982 4.71574 1.57048 -8.94855
167 1 15.7346 6.27963 9.43453 -8.94011
28 1 20.4419 4.71697 1.57194 -8.9498
166 1 12.5827 6.29396 9.43453 -9.00022
30 1 1.57203 7.86198 1.57192 -8.94938
165 1 9.43125 6.29396 9.43453 -9.00022
32 1 4.71615 7.86192 1.57121 -8.9494
164 1 6.2793 6.27963 9.43453 -8.94011
34 1 7.86046 7.86066 1.56813 -8.95276
35 1 9.43432 6.28879 -0.00123217 -8.94967
36 1 11.007 7.86083 1.56868 -8.95091
37 1 12.5796 6.28879 -0.00123217 -8.94967
38 1 14.1534 7.86066 1.56813 -8.95276
163 1 3.14077 6.28731 9.43453 -8.94887
40 1 17.2977 7.86192 1.57121 -8.9494
162 1 5.55929e-17 6.28887 9.43453 -8.95018
42 1 20.4419 7.86198 1.57192 -8.94938
183 1 1.57133 4.71622 11.0073 -8.94927
157 1 6.28745 3.14109 9.43453 -8.94941
161 1 18.8703 3.14361 9.43453 -8.94948
160 1 15.7264 3.14109 9.43453 -8.94941
159 1 12.5795 3.14367 9.43453 -8.94586
158 1 9.43443 3.14367 9.43453 -8.94586
156 1 3.14363 3.14361 9.43453 -8.94948
50 1 1.78562e-15 1.67774e-15 3.14466 -8.9496
51 1 1.57211 1.5721 4.717 -8.94952
52 1 3.1444 1.59668e-15 3.1444 -8.9496
53 1 4.71645 1.57143 4.71654 -8.94999
54 1 6.28935 1.48781e-15 3.14427 -8.94982
55 1 7.86178 1.57111 4.71649 -8.95027
56 1 9.43442 9.00936e-16 3.14414 -8.94945
57 1 11.007 1.57115 4.71624 -8.94945
58 1 12.5795 8.51839e-16 3.14414 -8.94945
59 1 14.1521 1.57111 4.71649 -8.95027
60 1 15.7245 1.87736e-15 3.14427 -8.94982
61 1 17.2975 1.57143 4.71654 -8.94999
62 1 18.8695 1.7951e-15 3.1444 -8.9496
63 1 20.4418 1.5721 4.717 -8.94952
64 1 1.8368e-15 3.14437 3.14434 -8.94949
65 1 1.57134 4.71636 4.71639 -8.94981
66 1 3.14369 3.14372 3.14372 -8.94846
67 1 4.71314 4.71333 4.71358 -8.94515
68 1 6.28863 3.14298 3.14335 -8.94952
69 1 7.85942 4.7116 4.71356 -8.9492
70 1 9.43431 3.1432 3.1435 -8.94911
71 1 11.007 4.71288 4.71393 -8.9463
72 1 12.5796 3.1432 3.1435 -8.94911
73 1 14.1545 4.7116 4.71356 -8.9492
74 1 15.7253 3.14298 3.14335 -8.94952
75 1 17.3008 4.71333 4.71358 -8.94515
76 1 18.8702 3.14372 3.14372 -8.94846
77 1 20.4426 4.71636 4.71639 -8.94981
78 1 1.19677e-15 6.2895 3.14437 -8.94988
79 1 1.57141 7.86204 4.71665 -8.95004
80 1 3.14328 6.28904 3.14365 -8.95038
81 1 4.71299 7.86119 4.715 -8.95249
82 1 6.28478 6.285 3.13857 -8.94653
83 1 7.84822 7.84873 4.7003 -8.94046
84 1 9.43347 6.2862 3.14028 -8.94827
85 1 11.007 7.85588 4.70454 -8.95338
86 1 12.5804 6.2862 3.14028 -8.94827
87 1 14.1657 7.84873 4.7003 -8.94046
88 1 15.7291 6.285 3.13857 -8.94653
89 1 17.3009 7.86119 4.715 -8.95249
90 1 18.8706 6.28904 3.14365 -8.95038
91 1 20.4425 7.86204 4.71665 -8.95004
92 1 -4.11566e-16 9.43443 3.14418 -8.94951
93 1 3.14337 9.43438 3.14365 -8.9489
94 1 6.28694 9.43446 3.14216 -8.94794
95 1 9.43172 9.43262 3.13712 -8.95475
96 1 12.5822 9.43262 3.13712 -8.95475
97 1 15.727 9.43446 3.14216 -8.94794
98 1 18.8705 9.43438 3.14365 -8.9489
99 1 7.32689e-16 1.77301e-15 6.28957 -8.94957
100 1 1.57207 1.57206 7.86201 -8.94953
101 1 3.1443 1.76457e-15 6.28943 -8.94941
102 1 4.71627 1.57135 7.86181 -8.94935
103 1 6.28919 1.71377e-15 6.28933 -8.95048
104 1 7.8618 1.57075 7.86208 -8.9512
105 1 9.43459 7.93728e-16 6.2893 -8.95058
106 1 11.007 1.57152 7.86221 -8.94921
107 1 12.5793 6.61899e-16 6.2893 -8.95058
108 1 14.1521 1.57075 7.86208 -8.9512
109 1 15.7247 1.68149e-15 6.28933 -8.95048
110 1 17.2976 1.57135 7.86181 -8.94935
111 1 18.8696 1.29652e-15 6.28943 -8.94941
112 1 20.4418 1.57206 7.86201 -8.94953
113 1 1.70014e-15 3.14428 6.28942 -8.94939
114 1 1.57133 4.71622 7.86178 -8.94927
115 1 3.14371 3.14368 6.28913 -8.9492
116 1 4.71378 4.71374 7.86102 -8.94743
117 1 6.28804 3.14133 6.28846 -8.9514
118 1 7.8593 4.70914 7.86145 -8.95853
119 1 9.43455 3.14114 6.28868 -8.95232
120 1 11.007 4.71483 7.86226 -8.95286
121 1 12.5794 3.14114 6.28868 -8.95232
122 1 14.1546 4.70914 7.86145 -8.95853
123 1 15.7259 3.14133 6.28846 -8.9514
124 1 17.3001 4.71374 7.86102 -8.94743
125 1 18.8702 3.14368 6.28913 -8.9492
126 1 20.4426 4.71622 7.86178 -8.94927
127 1 1.3127e-15 6.28911 6.28915 -8.95067
128 1 1.57038 7.86175 7.86189 -8.95198
129 1 3.14084 6.28773 6.28797 -8.95091
130 1 4.70677 7.85839 7.86029 -8.95802
131 1 6.27638 6.27724 6.27859 -8.93186
132 1 7.8205 7.82573 7.83166 -8.86141
133 1 9.42946 6.27516 6.28119 -8.95217
134 1 11.007 7.85055 7.82328 -8.86381
135 1 12.5844 6.27516 6.28119 -8.95217
136 1 14.1934 7.82573 7.83166 -8.86141
137 1 15.7375 6.27724 6.27859 -8.93186
138 1 17.3071 7.85839 7.86029 -8.95802
139 1 18.8731 6.28773 6.28797 -8.95091
140 1 20.4435 7.86175 7.86189 -8.95198
141 1 -4.74675e-16 9.43464 6.28922 -8.94986
142 1 3.14217 9.4351 6.28905 -8.95097
143 1 6.2806 9.43601 6.28777 -8.95933
144 1 9.39316 9.39219 6.26017 -8.84087
145 1 12.6207 9.39219 6.26017 -8.84087
146 1 15.7333 9.43601 6.28777 -8.95933
147 1 18.8717 9.4351 6.28905 -8.95097
148 1 6.51618e-16 1.7925e-15 9.43453 -8.94958
149 1 3.14426 1.85657e-15 9.43453 -8.9495
150 1 6.28892 1.96237e-15 9.43453 -8.95025
151 1 9.43456 1.28452e-15 9.43453 -8.94856
152 1 12.5793 1.19166e-15 9.43453 -8.94856
153 1 15.725 1.91564e-15 9.43453 -8.95025
154 1 18.8696 1.1245e-15 9.43453 -8.9495
155 1 7.71368e-16 3.14424 9.43453 -8.94949
177 1 4.71627 1.57135 11.0072 -8.94935
48 1 15.7251 9.43444 -0.000926462 -8.94924
181 1 17.2976 1.57135 11.0072 -8.94935
19 1 6.28943 3.14433 -0.000448853 -8.94957
45 1 6.28881 9.43444 -0.000926462 -8.94924
25 1 15.7245 3.14433 -0.000448853 -8.94957
176 1 1.57207 1.57206 11.0071 -8.94953
47 1 12.5797 9.43439 22.0122 -8.9507
178 1 7.8618 1.57075 11.007 -8.9512
179 1 11.007 1.57152 11.0068 -8.94921
180 1 14.1521 1.57075 11.007 -8.9512
46 1 9.43415 9.43439 22.0122 -8.9507
182 1 20.4418 1.57206 11.0071 -8.94953
343 1 18.8696 9.43446 18.8695 -8.94952
342 1 15.7251 9.43444 18.87 -8.94924
185 1 7.8593 4.70914 11.0076 -8.95853
186 1 11.007 4.71483 11.0068 -8.95286
187 1 14.1546 4.70914 11.0076 -8.95853
341 1 12.5797 9.43439 18.8708 -8.9507
340 1 9.43415 9.43439 18.8708 -8.9507
190 1 1.57038 7.86175 11.0072 -8.95198
191 1 4.70677 7.85839 11.0088 -8.95802
192 1 7.8205 7.82573 11.0374 -8.86141
193 1 11.007 7.85055 11.0458 -8.86381
194 1 14.1934 7.82573 11.0374 -8.86141
195 1 17.3071 7.85839 11.0088 -8.95802
196 1 20.4435 7.86175 11.0072 -8.95198
197 1 6.83928e-16 1.71459e-15 12.5795 -8.94957
198 1 1.57211 1.5721 14.1521 -8.94952
199 1 3.1443 1.48966e-15 12.5796 -8.94941
200 1 4.71645 1.57143 14.1525 -8.94999
201 1 6.28919 1.65304e-15 12.5797 -8.95048
202 1 7.86178 1.57111 14.1526 -8.95027
203 1 9.43459 1.12566e-15 12.5798 -8.95058
204 1 11.007 1.57115 14.1528 -8.94945
205 1 12.5793 6.15097e-16 12.5798 -8.95058
206 1 14.1521 1.57111 14.1526 -8.95027
207 1 15.7247 1.6922e-15 12.5797 -8.95048
208 1 17.2975 1.57143 14.1525 -8.94999
209 1 18.8696 1.70204e-15 12.5796 -8.94941
210 1 20.4418 1.5721 14.1521 -8.94952
211 1 1.19116e-15 3.14428 12.5796 -8.94939
212 1 1.57134 4.71636 14.1527 -8.94981
213 1 3.14371 3.14368 12.5799 -8.9492
214 1 4.71314 4.71333 14.1555 -8.94515
215 1 6.28804 3.14133 12.5806 -8.9514
216 1 7.85942 4.7116 14.1555 -8.9492
217 1 9.43455 3.14114 12.5804 -8.95232
218 1 11.007 4.71288 14.1551 -8.9463
219 1 12.5794 3.14114 12.5804 -8.95232
220 1 14.1545 4.7116 14.1555 -8.9492
221 1 15.7259 3.14133 12.5806 -8.9514
222 1 17.3008 4.71333 14.1555 -8.94515
223 1 18.8702 3.14368 12.5799 -8.9492
224 1 20.4426 4.71636 14.1527 -8.94981
225 1 7.11108e-16 6.28911 12.5799 -8.95067
226 1 1.57141 7.86204 14.1524 -8.95004
227 1 3.14084 6.28773 12.5811 -8.95091
228 1 4.71299 7.86119 14.1541 -8.95249
229 1 6.27638 6.27724 12.5905 -8.93186
230 1 7.84822 7.84873 14.1688 -8.94046
231 1 9.42946 6.27516 12.5879 -8.95217
232 1 11.007 7.85588 14.1645 -8.95338
233 1 12.5844 6.27516 12.5879 -8.95217
234 1 14.1657 7.84873 14.1688 -8.94046
235 1 15.7375 6.27724 12.5905 -8.93186
236 1 17.3009 7.86119 14.1541 -8.95249
237 1 18.8731 6.28773 12.5811 -8.95091
238 1 20.4425 7.86204 14.1524 -8.95004
239 1 4.85266e-16 9.43464 12.5798 -8.94986
240 1 3.14217 9.4351 12.58 -8.95097
241 1 6.2806 9.43601 12.5813 -8.95933
242 1 9.39316 9.39219 12.6089 -8.84087
243 1 12.6207 9.39219 12.6089 -8.84087
244 1 15.7333 9.43601 12.5813 -8.95933
245 1 18.8717 9.4351 12.58 -8.95097
246 1 1.77297e-15 1.5967e-15 15.7244 -8.9496
247 1 1.57215 1.57215 17.297 -8.94926
248 1 3.1444 5.5157e-16 15.7247 -8.9496
249 1 4.71687 1.57196 17.2972 -8.94959
250 1 6.28935 1.53657e-15 15.7248 -8.94982
251 1 7.86195 1.57198 17.2972 -8.94946
252 1 9.43442 1.80393e-15 15.7249 -8.94945
253 1 11.007 1.57196 17.2972 -8.94951
254 1 12.5795 1.69183e-15 15.7249 -8.94945
255 1 14.1519 1.57198 17.2972 -8.94946
256 1 15.7245 1.75397e-15 15.7248 -8.94982
257 1 17.297 1.57196 17.2972 -8.94959
258 1 18.8695 1.33291e-15 15.7247 -8.9496
259 1 20.4417 1.57215 17.297 -8.94926
260 1 1.81138e-15 3.14437 15.7247 -8.94949
261 1 1.572 4.71697 17.2971 -8.9498
262 1 3.14369 3.14372 15.7253 -8.94846
263 1 4.71568 4.71574 17.2986 -8.94855
264 1 6.28863 3.14298 15.7257 -8.94952
265 1 7.86155 4.71588 17.2983 -8.94933
266 1 9.43431 3.1432 15.7256 -8.94911
267 1 11.007 4.71589 17.2983 -8.94916
268 1 12.5796 3.1432 15.7256 -8.94911
269 1 14.1524 4.71588 17.2983 -8.94933
270 1 15.7253 3.14298 15.7257 -8.94952
271 1 17.2982 4.71574 17.2986 -8.94855
272 1 18.8702 3.14372 15.7253 -8.94846
273 1 20.4419 4.71697 17.2971 -8.9498
274 1 1.24965e-15 6.2895 15.7247 -8.94988
275 1 1.57203 7.86198 17.2971 -8.94938
276 1 3.14328 6.28904 15.7254 -8.95038
277 1 4.71615 7.86192 17.2978 -8.9494
278 1 6.28478 6.285 15.7305 -8.94653
279 1 7.86046 7.86066 17.3009 -8.95276
280 1 9.43347 6.2862 15.7288 -8.94827
281 1 11.007 7.86083 17.3004 -8.95091
282 1 12.5804 6.2862 15.7288 -8.94827
283 1 14.1534 7.86066 17.3009 -8.95276
284 1 15.7291 6.285 15.7305 -8.94653
285 1 17.2977 7.86192 17.2978 -8.9494
286 1 18.8706 6.28904 15.7254 -8.95038
287 1 20.4419 7.86198 17.2971 -8.94938
288 1 2.91914e-17 9.43443 15.7249 -8.94951
289 1 3.14337 9.43438 15.7254 -8.9489
290 1 6.28694 9.43446 15.7269 -8.94794
291 1 9.43172 9.43262 15.7319 -8.95475
292 1 12.5822 9.43262 15.7319 -8.95475
293 1 15.727 9.43446 15.7269 -8.94794
294 1 18.8705 9.43438 15.7254 -8.9489
295 1 1.14887e-15 8.57289e-16 18.8692 -8.94924
296 1 1.57225 1.57226 20.4415 -8.94936
297 1 3.14467 4.17803e-16 18.8693 -8.94956
298 1 4.71712 1.57223 20.4415 -8.94963
299 1 6.28958 1.71023e-15 18.8693 -8.94956
300 1 7.86203 1.5722 20.4415 -8.94955
301 1 9.43448 1.77363e-15 18.8693 -8.94957
302 1 11.007 1.57218 20.4415 -8.94957
303 1 12.5794 1.91283e-15 18.8693 -8.94957
304 1 14.1519 1.5722 20.4415 -8.94955
305 1 15.7243 1.67891e-15 18.8693 -8.94956
306 1 17.2968 1.57223 20.4415 -8.94963
307 1 18.8692 1.06974e-15 18.8693 -8.94956
308 1 20.4416 1.57226 20.4415 -8.94936
309 1 1.00437e-15 3.1447 18.8693 -8.94965
310 1 1.57226 4.71717 20.4415 -8.94967
311 1 3.14434 3.14436 18.8695 -8.94925
312 1 4.71668 4.71671 20.4415 -8.94984
313 1 6.28943 3.14433 18.8695 -8.94957
314 1 7.86189 4.71666 20.4415 -8.94956
315 1 9.43445 3.14427 18.8695 -8.94947
316 1 11.007 4.71659 20.4415 -8.94955
317 1 12.5795 3.14427 18.8695 -8.94947
318 1 14.152 4.71666 20.4415 -8.94956
319 1 15.7245 3.14433 18.8695 -8.94957
320 1 17.2972 4.71671 20.4415 -8.94984
321 1 18.8696 3.14436 18.8695 -8.94925
322 1 20.4416 4.71717 20.4415 -8.94967
323 1 6.95514e-16 6.2896 18.8692 -8.94952
324 1 1.57222 7.86204 20.4415 -8.94955
325 1 3.14441 6.28954 18.8694 -8.94964
326 1 4.71672 7.86199 20.4415 -8.94943
327 1 6.28878 6.28885 18.8705 -8.95056
328 1 7.86163 7.86172 20.4415 -8.95087
329 1 9.43432 6.28879 18.8703 -8.94967
330 1 11.007 7.86161 20.4415 -8.95033
331 1 12.5796 6.28879 18.8703 -8.94967
332 1 14.1523 7.86172 20.4415 -8.95087
333 1 15.7251 6.28885 18.8705 -8.95056
334 1 17.2972 7.86199 20.4415 -8.94943
335 1 18.8695 6.28954 18.8694 -8.94964
336 1 20.4417 7.86204 20.4415 -8.94955
337 1 3.79668e-16 9.43449 18.8693 -8.94958
338 1 3.14432 9.43446 18.8695 -8.94952
339 1 6.28881 9.43444 18.87 -8.94924
3 1 3.14467 1.6081e-15 22.0137 -8.94956
5 1 6.28958 1.80573e-15 22.0137 -8.94956
11 1 15.7243 1.78989e-15 22.0137 -8.94956
13 1 18.8692 1.85739e-15 22.0137 -8.94956
15 1 1.43387e-15 3.1447 22.0137 -8.94965
17 1 3.14434 3.14436 22.0135 -8.94925
41 1 18.8695 6.28954 22.0135 -8.94964
39 1 15.7251 6.28885 22.0125 -8.95056
27 1 18.8696 3.14436 22.0135 -8.94925
29 1 3.49959e-16 6.2896 22.0137 -8.94952
31 1 3.14441 6.28954 22.0135 -8.94964
33 1 6.28878 6.28885 22.0125 -8.95056
1 1 1.65033e-15 1.75257e-15 22.0138 -8.94924
21 1 9.43445 3.14427 22.0134 -8.94947
23 1 12.5795 3.14427 22.0134 -8.94947
43 1 -3.03828e-16 9.43449 22.0137 -8.94958
44 1 3.14432 9.43446 22.0135 -8.94952
49 1 18.8696 9.43446 22.0135 -8.94952
344 1 1.572 11.007 1.57185 -8.94955
345 1 4.716 11.007 1.57109 -8.94952
346 1 7.8605 11.007 1.56989 -8.94813
347 1 11.007 11.007 1.56915 -8.94997
348 1 14.1534 11.007 1.56989 -8.94813
349 1 17.2979 11.007 1.57109 -8.94952
350 1 20.4419 11.007 1.57185 -8.94955
532 1 20.4426 17.2977 11.0073 -8.94927
352 1 1.57203 14.1519 1.57192 -8.94938
531 1 17.3001 17.3002 11.008 -8.94743
354 1 4.71615 14.152 1.57121 -8.9494
688 3 10.2397 11.007 9.43453 2.25226
356 1 7.86046 14.1532 1.56813 -8.95276
687 3 11.7742 11.007 9.43453 2.25226
358 1 11.007 14.1531 1.56868 -8.95091
511 1 18.8703 18.8703 9.43453 -8.94948
360 1 14.1534 14.1532 1.56813 -8.95276
510 1 15.7264 18.8728 9.43453 -8.94941
362 1 17.2977 14.152 1.57121 -8.9494
527 1 4.71378 17.3002 11.008 -8.94743
364 1 20.4419 14.1519 1.57192 -8.94938
509 1 12.5795 18.8702 9.43453 -8.94586
366 1 1.572 17.2969 1.57194 -8.9498
508 1 9.43443 18.8702 9.43453 -8.94586
368 1 4.71568 17.2982 1.57048 -8.94855
507 1 6.28745 18.8728 9.43453 -8.94941
370 1 7.86155 17.298 1.57075 -8.94933
371 1 9.43432 15.7251 -0.00123217 -8.94967
372 1 11.007 17.298 1.57079 -8.94916
373 1 12.5796 15.7251 -0.00123217 -8.94967
374 1 14.1524 17.298 1.57075 -8.94933
506 1 3.14363 18.8703 9.43453 -8.94948
376 1 17.2982 17.2982 1.57048 -8.94855
505 1 1.10909e-15 18.8697 9.43453 -8.94949
378 1 20.4419 17.2969 1.57194 -8.9498
504 1 18.8731 15.7266 9.43453 -8.94887
380 1 1.57215 20.4417 1.57205 -8.94926
503 1 15.7346 15.7343 9.43453 -8.94011
382 1 4.71687 20.4419 1.57188 -8.94959
502 1 12.5827 15.7199 9.43453 -9.00022
384 1 7.86195 20.4419 1.57187 -8.94946
526 1 1.57133 17.2977 11.0073 -8.94927
386 1 11.007 20.4419 1.57181 -8.94951
499 1 3.14077 15.7266 9.43453 -8.94887
388 1 14.1519 20.4419 1.57187 -8.94946
501 1 9.43125 15.7199 9.43453 -9.00022
390 1 17.297 20.4419 1.57188 -8.94959
500 1 6.2793 15.7343 9.43453 -8.94011
392 1 20.4417 20.4417 1.57205 -8.94926
393 1 1.57131 11.007 4.71628 -8.94972
394 1 4.71332 11.007 4.7145 -8.94647
395 1 7.8572 11.007 4.713 -8.94021
396 1 11.007 11.007 4.70805 -9.02435
397 1 14.1567 11.007 4.713 -8.94021
398 1 17.3006 11.007 4.7145 -8.94647
399 1 20.4426 11.007 4.71628 -8.94972
400 1 -3.73874e-16 12.5795 3.14418 -8.94951
401 1 1.57141 14.1519 4.71665 -8.95004
402 1 3.14337 12.5795 3.14365 -8.9489
403 1 4.71299 14.1527 4.715 -8.95249
404 1 6.28694 12.5794 3.14216 -8.94794
405 1 7.84822 14.1652 4.7003 -8.94046
406 1 9.43172 12.5813 3.13712 -8.95475
407 1 11.007 14.158 4.70454 -8.95338
408 1 12.5822 12.5813 3.13712 -8.95475
409 1 14.1657 14.1652 4.7003 -8.94046
410 1 15.727 12.5794 3.14216 -8.94794
411 1 17.3009 14.1527 4.715 -8.95249
412 1 18.8705 12.5795 3.14365 -8.9489
413 1 20.4425 14.1519 4.71665 -8.95004
414 1 1.07651e-15 15.7244 3.14437 -8.94988
415 1 1.57134 17.2975 4.71639 -8.94981
416 1 3.14328 15.7249 3.14365 -8.95038
417 1 4.71314 17.3006 4.71358 -8.94515
418 1 6.28478 15.7289 3.13857 -8.94653
419 1 7.85942 17.3023 4.71356 -8.9492
420 1 9.43347 15.7277 3.14028 -8.94827
421 1 11.007 17.301 4.71393 -8.9463
422 1 12.5804 15.7277 3.14028 -8.94827
423 1 14.1545 17.3023 4.71356 -8.9492
424 1 15.7291 15.7289 3.13857 -8.94653
425 1 17.3008 17.3006 4.71358 -8.94515
426 1 18.8706 15.7249 3.14365 -8.95038
427 1 20.4426 17.2975 4.71639 -8.94981
428 1 1.53098e-15 18.8695 3.14434 -8.94949
429 1 1.57211 20.4418 4.717 -8.94952
430 1 3.14369 18.8702 3.14372 -8.94846
431 1 4.71645 20.4425 4.71654 -8.94999
432 1 6.28863 18.8709 3.14335 -8.94952
433 1 7.86178 20.4428 4.71649 -8.95027
434 1 9.43431 18.8707 3.1435 -8.94911
435 1 11.007 20.4428 4.71624 -8.94945
436 1 12.5796 18.8707 3.1435 -8.94911
437 1 14.1521 20.4428 4.71649 -8.95027
438 1 15.7253 18.8709 3.14335 -8.94952
439 1 17.2975 20.4425 4.71654 -8.94999
440 1 18.8702 18.8702 3.14372 -8.94846
441 1 20.4418 20.4418 4.717 -8.94952
442 1 1.5717 11.007 7.8618 -8.94759
443 1 4.71799 11.007 7.86285 -8.93962
444 1 7.8821 11.007 7.86912 -8.93106
445 1 11.007 11.007 7.52234 -7.53306
446 1 14.1318 11.007 7.86912 -8.93106
447 1 17.2959 11.007 7.86285 -8.93962
448 1 20.4422 11.007 7.8618 -8.94759
449 1 6.5775e-16 12.5793 6.28922 -8.94986
450 1 1.57038 14.1521 7.86189 -8.95198
451 1 3.14217 12.5788 6.28905 -8.95097
452 1 4.70677 14.1555 7.86029 -8.95802
453 1 6.2806 12.5779 6.28777 -8.95933
454 1 7.8205 14.1882 7.83166 -8.86141
455 1 9.39316 12.6217 6.26017 -8.84087
456 1 11.007 14.1633 7.82328 -8.86381
457 1 12.6207 12.6217 6.26017 -8.84087
458 1 14.1934 14.1882 7.83166 -8.86141
459 1 15.7333 12.5779 6.28777 -8.95933
460 1 17.3071 14.1555 7.86029 -8.95802
461 1 18.8717 12.5788 6.28905 -8.95097
462 1 20.4435 14.1521 7.86189 -8.95198
463 1 9.4026e-16 15.7248 6.28915 -8.95067
464 1 1.57133 17.2977 7.86178 -8.94927
465 1 3.14084 15.7262 6.28797 -8.95091
466 1 4.71378 17.3002 7.86102 -8.94743
467 1 6.27638 15.7367 6.27859 -8.93186
468 1 7.8593 17.3048 7.86145 -8.95853
469 1 9.42946 15.7387 6.28119 -8.95217
470 1 11.007 17.2991 7.86226 -8.95286
471 1 12.5844 15.7387 6.28119 -8.95217
472 1 14.1546 17.3048 7.86145 -8.95853
473 1 15.7375 15.7367 6.27859 -8.93186
474 1 17.3001 17.3002 7.86102 -8.94743
475 1 18.8731 15.7262 6.28797 -8.95091
476 1 20.4426 17.2977 7.86178 -8.94927
477 1 1.61112e-15 18.8696 6.28942 -8.94939
478 1 1.57207 20.4418 7.86201 -8.94953
479 1 3.14371 18.8702 6.28913 -8.9492
480 1 4.71627 20.4426 7.86181 -8.94935
481 1 6.28804 18.8726 6.28846 -8.9514
482 1 7.8618 20.4432 7.86208 -8.9512
483 1 9.43455 18.8728 6.28868 -8.95232
484 1 11.007 20.4424 7.86221 -8.94921
485 1 12.5794 18.8728 6.28868 -8.95232
486 1 14.1521 20.4432 7.86208 -8.9512
487 1 15.7259 18.8726 6.28846 -8.9514
488 1 17.2976 20.4426 7.86181 -8.94935
489 1 18.8702 18.8702 6.28913 -8.9492
490 1 20.4418 20.4418 7.86201 -8.94953
491 1 1.21327e-15 12.5791 9.43453 -8.94963
492 1 3.14221 12.579 9.43453 -8.95026
493 1 6.28262 12.586 9.43453 -8.97081
494 1 9.36332 12.8051 9.43453 -8.07038
495 1 12.6506 12.8051 9.43453 -8.07038
496 1 15.7313 12.586 9.43453 -8.97081
497 1 18.8717 12.579 9.43453 -8.95026
498 1 1.06617e-16 15.725 9.43453 -8.95018
534 1 4.71627 20.4426 11.0072 -8.94935
538 1 17.2976 20.4426 11.0072 -8.94935
389 1 15.7245 18.8696 -0.000448853 -8.94957
383 1 6.28943 18.8696 -0.000448853 -8.94957
355 1 6.28881 12.5795 -0.000926462 -8.94924
361 1 15.7251 12.5795 -0.000926462 -8.94924
512 1 1.5717 11.007 11.0073 -8.94759
513 1 4.71799 11.007 11.0062 -8.93962
514 1 7.8821 11.007 10.9999 -8.93106
515 1 11.007 11.007 11.3467 -7.53306
516 1 14.1318 11.007 10.9999 -8.93106
517 1 17.2959 11.007 11.0062 -8.93962
518 1 20.4422 11.007 11.0073 -8.94759
519 1 1.57038 14.1521 11.0072 -8.95198
520 1 4.70677 14.1555 11.0088 -8.95802
521 1 7.8205 14.1882 11.0374 -8.86141
522 1 11.007 14.1633 11.0458 -8.86381
523 1 14.1934 14.1882 11.0374 -8.86141
524 1 17.3071 14.1555 11.0088 -8.95802
525 1 20.4435 14.1521 11.0072 -8.95198
686 1 20.4416 20.4416 20.4415 -8.94936
685 1 18.8696 18.8695 18.8695 -8.94925
528 1 7.8593 17.3048 11.0076 -8.95853
529 1 11.007 17.2991 11.0068 -8.95286
530 1 14.1546 17.3048 11.0076 -8.95853
684 1 17.2968 20.4417 20.4415 -8.94963
683 1 15.7245 18.8696 18.8695 -8.94957
533 1 1.57207 20.4418 11.0071 -8.94953
391 1 18.8696 18.8695 22.0135 -8.94925
535 1 7.8618 20.4432 11.007 -8.9512
536 1 11.007 20.4424 11.0068 -8.94921
537 1 14.1521 20.4432 11.007 -8.9512
381 1 3.14434 18.8695 22.0135 -8.94925
539 1 20.4418 20.4418 11.0071 -8.94953
540 1 1.57131 11.007 14.1528 -8.94972
541 1 4.71332 11.007 14.1546 -8.94647
542 1 7.8572 11.007 14.1561 -8.94021
543 1 11.007 11.007 14.161 -9.02435
544 1 14.1567 11.007 14.1561 -8.94021
545 1 17.3006 11.007 14.1546 -8.94647
546 1 20.4426 11.007 14.1528 -8.94972
547 1 7.24139e-16 12.5793 12.5798 -8.94986
548 1 1.57141 14.1519 14.1524 -8.95004
549 1 3.14217 12.5788 12.58 -8.95097
550 1 4.71299 14.1527 14.1541 -8.95249
551 1 6.2806 12.5779 12.5813 -8.95933
552 1 7.84822 14.1652 14.1688 -8.94046
553 1 9.39316 12.6217 12.6089 -8.84087
554 1 11.007 14.158 14.1645 -8.95338
555 1 12.6207 12.6217 12.6089 -8.84087
556 1 14.1657 14.1652 14.1688 -8.94046
557 1 15.7333 12.5779 12.5813 -8.95933
558 1 17.3009 14.1527 14.1541 -8.95249
559 1 18.8717 12.5788 12.58 -8.95097
560 1 20.4425 14.1519 14.1524 -8.95004
561 1 1.19408e-15 15.7248 12.5799 -8.95067
562 1 1.57134 17.2975 14.1527 -8.94981
563 1 3.14084 15.7262 12.5811 -8.95091
564 1 4.71314 17.3006 14.1555 -8.94515
565 1 6.27638 15.7367 12.5905 -8.93186
566 1 7.85942 17.3023 14.1555 -8.9492
567 1 9.42946 15.7387 12.5879 -8.95217
568 1 11.007 17.301 14.1551 -8.9463
569 1 12.5844 15.7387 12.5879 -8.95217
570 1 14.1545 17.3023 14.1555 -8.9492
571 1 15.7375 15.7367 12.5905 -8.93186
572 1 17.3008 17.3006 14.1555 -8.94515
573 1 18.8731 15.7262 12.5811 -8.95091
574 1 20.4426 17.2975 14.1527 -8.94981
575 1 1.60921e-15 18.8696 12.5796 -8.94939
576 1 1.57211 20.4418 14.1521 -8.94952
577 1 3.14371 18.8702 12.5799 -8.9492
578 1 4.71645 20.4425 14.1525 -8.94999
579 1 6.28804 18.8726 12.5806 -8.9514
580 1 7.86178 20.4428 14.1526 -8.95027
581 1 9.43455 18.8728 12.5804 -8.95232
582 1 11.007 20.4428 14.1528 -8.94945
583 1 12.5794 18.8728 12.5804 -8.95232
584 1 14.1521 20.4428 14.1526 -8.95027
585 1 15.7259 18.8726 12.5806 -8.9514
586 1 17.2975 20.4425 14.1525 -8.94999
587 1 18.8702 18.8702 12.5799 -8.9492
588 1 20.4418 20.4418 14.1521 -8.94952
589 1 1.572 11.007 17.2972 -8.94955
590 1 4.716 11.007 17.298 -8.94952
591 1 7.8605 11.007 17.2992 -8.94813
592 1 11.007 11.007 17.2999 -8.94997
593 1 14.1534 11.007 17.2992 -8.94813
594 1 17.2979 11.007 17.298 -8.94952
595 1 20.4419 11.007 17.2972 -8.94955
596 1 -2.5946e-16 12.5795 15.7249 -8.94951
597 1 1.57203 14.1519 17.2971 -8.94938
598 1 3.14337 12.5795 15.7254 -8.9489
599 1 4.71615 14.152 17.2978 -8.9494
600 1 6.28694 12.5794 15.7269 -8.94794
601 1 7.86046 14.1532 17.3009 -8.95276
602 1 9.43172 12.5813 15.7319 -8.95475
603 1 11.007 14.1531 17.3004 -8.95091
604 1 12.5822 12.5813 15.7319 -8.95475
605 1 14.1534 14.1532 17.3009 -8.95276
606 1 15.727 12.5794 15.7269 -8.94794
607 1 17.2977 14.152 17.2978 -8.9494
608 1 18.8705 12.5795 15.7254 -8.9489
609 1 20.4419 14.1519 17.2971 -8.94938
610 1 8.97974e-16 15.7244 15.7247 -8.94988
611 1 1.572 17.2969 17.2971 -8.9498
612 1 3.14328 15.7249 15.7254 -8.95038
613 1 4.71568 17.2982 17.2986 -8.94855
614 1 6.28478 15.7289 15.7305 -8.94653
615 1 7.86155 17.298 17.2983 -8.94933
616 1 9.43347 15.7277 15.7288 -8.94827
617 1 11.007 17.298 17.2983 -8.94916
618 1 12.5804 15.7277 15.7288 -8.94827
619 1 14.1524 17.298 17.2983 -8.94933
620 1 15.7291 15.7289 15.7305 -8.94653
621 1 17.2982 17.2982 17.2986 -8.94855
622 1 18.8706 15.7249 15.7254 -8.95038
623 1 20.4419 17.2969 17.2971 -8.9498
624 1 1.71773e-15 18.8695 15.7247 -8.94949
625 1 1.57215 20.4417 17.297 -8.94926
626 1 3.14369 18.8702 15.7253 -8.94846
627 1 4.71687 20.4419 17.2972 -8.94959
628 1 6.28863 18.8709 15.7257 -8.94952
629 1 7.86195 20.4419 17.2972 -8.94946
630 1 9.43431 18.8707 15.7256 -8.94911
631 1 11.007 20.4419 17.2972 -8.94951
632 1 12.5796 18.8707 15.7256 -8.94911
633 1 14.1519 20.4419 17.2972 -8.94946
634 1 15.7253 18.8709 15.7257 -8.94952
635 1 17.297 20.4419 17.2972 -8.94959
636 1 18.8702 18.8702 15.7253 -8.94846
637 1 20.4417 20.4417 17.297 -8.94926
638 1 1.5722 11.007 20.4415 -8.94959
639 1 4.71663 11.007 20.4415 -8.9496
640 1 7.86142 11.007 20.4415 -8.94958
641 1 11.007 11.007 20.4415 -8.94931
642 1 14.1525 11.007 20.4415 -8.94958
643 1 17.2973 11.007 20.4415 -8.9496
644 1 20.4417 11.007 20.4415 -8.94959
645 1 -9.74423e-17 12.5794 18.8693 -8.94958
646 1 1.57222 14.1519 20.4415 -8.94955
647 1 3.14432 12.5794 18.8695 -8.94952
648 1 4.71672 14.1519 20.4415 -8.94943
649 1 6.28881 12.5795 18.87 -8.94924
650 1 7.86163 14.1522 20.4415 -8.95087
651 1 9.43415 12.5795 18.8708 -8.9507
652 1 11.007 14.1523 20.4415 -8.95033
653 1 12.5797 12.5795 18.8708 -8.9507
654 1 14.1523 14.1522 20.4415 -8.95087
655 1 15.7251 12.5795 18.87 -8.94924
656 1 17.2972 14.1519 20.4415 -8.94943
657 1 18.8696 12.5794 18.8695 -8.94952
658 1 20.4417 14.1519 20.4415 -8.94955
659 1 4.89803e-16 15.7243 18.8692 -8.94952
660 1 1.57226 17.2967 20.4415 -8.94967
661 1 3.14441 15.7244 18.8694 -8.94964
662 1 4.71668 17.2972 20.4415 -8.94984
663 1 6.28878 15.7251 18.8705 -8.95056
664 1 7.86189 17.2972 20.4415 -8.94956
665 1 9.43432 15.7251 18.8703 -8.94967
666 1 11.007 17.2973 20.4415 -8.94955
667 1 12.5796 15.7251 18.8703 -8.94967
668 1 14.152 17.2972 20.4415 -8.94956
669 1 15.7251 15.7251 18.8705 -8.95056
670 1 17.2972 17.2972 20.4415 -8.94984
671 1 18.8695 15.7244 18.8694 -8.94964
672 1 20.4416 17.2967 20.4415 -8.94967
673 1 1.35931e-15 18.8692 18.8693 -8.94965
674 1 1.57225 20.4416 20.4415 -8.94936
675 1 3.14434 18.8695 18.8695 -8.94925
676 1 4.71712 20.4417 20.4415 -8.94963
677 1 6.28943 18.8696 18.8695 -8.94957
678 1 7.86203 20.4417 20.4415 -8.94955
679 1 9.43445 18.8696 18.8695 -8.94947
680 1 11.007 20.4417 20.4415 -8.94957
681 1 12.5795 18.8696 18.8695 -8.94947
682 1 14.1519 20.4417 20.4415 -8.94955
379 1 1.22549e-15 18.8692 22.0137 -8.94965
357 1 9.43415 12.5795 22.0122 -8.9507
359 1 12.5797 12.5795 22.0122 -8.9507
377 1 18.8695 15.7244 22.0135 -8.94964
365 1 5.03897e-16 15.7243 22.0137 -8.94952
367 1 3.14441 15.7244 22.0135 -8.94964
369 1 6.28878 15.7251 22.0125 -8.95056
375 1 15.7251 15.7251 22.0125 -8.95056
351 1 -2.94664e-16 12.5794 22.0137 -8.94958
353 1 3.14432 12.5794 22.0135 -8.94952
363 1 18.8696 12.5794 22.0135 -8.94952
385 1 9.43445 18.8696 22.0134 -8.94947
387 1 12.5795 18.8696 22.0134 -8.94947
