ITEM: TIMESTEP
46
ITEM: NUMBER OF ATOMS
688
ITEM: BOX BOUNDS pp pp pp
0.0000000000000000e+00 2.2013900999999997e+01
0.0000000000000000e+00 2.2013900999999997e+01
0.0000000000000000e+00 2.2013900999999997e+01
ITEM: ATOMS id type x y z c_pot
189 1 20.4415 4.71726 11.007 -8.94963
2 1 1.57242 1.57242 1.57242 -8.94963
175 1 18.8693 9.43453 9.43453 -8.9507
4 1 4.71726 1.57242 1.57242 -8.94963
174 1 15.7287 9.43379 9.43453 -8.96365
6 1 7.86211 1.57242 1.57242 -8.94963
7 1 9.43453 5.82921e-16 -1.11435e-09 -8.94963
8 1 11.007 1.57242 1.57242 -8.94963
9 1 12.5794 5.57544e-16 -1.11435e-09 -8.94963
10 1 14.1518 1.57242 1.57242 -8.94963
173 1 12.6481 9.28817 9.43453 -8.00087
12 1 17.2966 1.57242 1.57242 -8.94963
172 1 9.36578 9.28817 9.43453 -8.00087
14 1 20.4415 1.57242 1.57242 -8.94963
171 1 6.28517 9.43379 9.43453 -8.96365
16 1 1.57242 4.71726 1.57242 -8.94963
170 1 3.14463 9.43453 9.43453 -8.9507
18 1 4.71726 4.71726 1.57242 -8.94962
169 1 1.55892e-16 9.43453 9.43453 -8.94973
20 1 7.86211 4.71727 1.57242 -8.94965
188 1 17.2966 4.71728 11.0069 -8.94984
22 1 11.007 4.71726 1.57242 -8.94965
184 1 4.71727 4.71728 11.0069 -8.94984
24 1 14.1518 4.71727 1.57242 -8.94965
168 1 18.8691 6.28968 9.43453 -8.9496
26 1 17.2966 4.71726 1.57242 -8.94962
167 1 15.7244 6.2895 9.43453 -8.95107
28 1 20.4415 4.71726 1.57242 -8.94963
166 1 12.5795 6.28374 9.43453 -8.97706
30 1 1.57242 7.86211 1.57242 -8.94963
165 1 9.43443 6.28374 9.43453 -8.97706
32 1 4.71727 7.86211 1.57242 -8.94965
164 1 6.28953 6.2895 9.43453 -8.95107
34 1 7.86209 7.86209 1.57237 -8.94975
35 1 9.43453 6.28969 4.86428e-07 -8.94963
36 1 11.007 7.8621 1.5724 -8.94963
37 1 12.5794 6.28969 4.86428e-07 -8.94963
38 1 14.1518 7.86209 1.57237 -8.94975
163 1 3.14483 6.28968 9.43453 -8.9496
40 1 17.2966 7.86211 1.57242 -8.94965
162 1 4.52642e-16 6.28969 9.43453 -8.94963
42 1 20.4415 7.86211 1.57242 -8.94963
183 1 1.57242 4.71726 11.007 -8.94963
157 1 6.28968 3.14483 9.43453 -8.9496
161 1 18.8691 3.14484 9.43453 -8.94964
160 1 15.7242 3.14483 9.43453 -8.9496
159 1 12.5794 3.14452 9.43453 -8.95118
158 1 9.43454 3.14452 9.43453 -8.95118
156 1 3.14484 3.14484 9.43453 -8.94964
50 1 1.08769e-16 4.86336e-16 3.14484 -8.94963
51 1 1.57242 1.57242 4.71726 -8.94963
52 1 3.14484 1.27043e-16 3.14484 -8.94963
53 1 4.71726 1.57242 4.71726 -8.94963
54 1 6.28969 8.38104e-16 3.14484 -8.94963
55 1 7.86211 1.57242 4.71726 -8.94964
56 1 9.43453 8.94628e-16 3.14484 -8.94963
57 1 11.007 1.57242 4.71726 -8.94964
58 1 12.5794 8.7738e-16 3.14484 -8.94963
59 1 14.1518 1.57242 4.71726 -8.94964
60 1 15.7242 9.30026e-16 3.14484 -8.94963
61 1 17.2966 1.57242 4.71726 -8.94963
62 1 18.8691 2.35888e-16 3.14484 -8.94963
63 1 20.4415 1.57242 4.71726 -8.94963
64 1 -1.99364e-16 3.14484 3.14484 -8.94963
65 1 1.57242 4.71726 4.71726 -8.94963
66 1 3.14484 3.14484 3.14484 -8.94962
67 1 4.71724 4.71724 4.71724 -8.94942
68 1 6.28969 3.14484 3.14484 -8.94965
69 1 7.8621 4.71725 4.71726 -8.94989
70 1 9.43453 3.14484 3.14484 -8.94964
71 1 11.007 4.71725 4.71725 -8.94967
72 1 12.5794 3.14484 3.14484 -8.94964
73 1 14.1518 4.71725 4.71726 -8.94989
74 1 15.7242 3.14484 3.14484 -8.94965
75 1 17.2967 4.71724 4.71724 -8.94942
76 1 18.8691 3.14484 3.14484 -8.94962
77 1 20.4415 4.71726 4.71726 -8.94963
78 1 -2.48451e-16 6.28969 3.14484 -8.94963
79 1 1.57242 7.86211 4.71726 -8.94964
80 1 3.14484 6.28969 3.14484 -8.94965
81 1 4.71724 7.86209 4.71725 -8.94981
82 1 6.28965 6.28965 3.14479 -8.94943
83 1 7.86147 7.86147 4.71632 -8.94714
84 1 9.43454 6.28969 3.14485 -8.94976
85 1 11.007 7.86195 4.71685 -8.9528
86 1 12.5794 6.28969 3.14485 -8.94976
87 1 14.1524 7.86147 4.71632 -8.94714
88 1 15.7243 6.28965 3.14479 -8.94943
89 1 17.2967 7.86209 4.71725 -8.94981
90 1 18.8691 6.28969 3.14484 -8.94965
91 1 20.4415 7.86211 4.71726 -8.94964
92 1 7.62875e-17 9.43453 3.14484 -8.94963
93 1 3.14484 9.43453 3.14484 -8.94965
94 1 6.28968 9.43453 3.14483 -8.94982
95 1 9.43433 9.43433 3.14428 -8.95091
96 1 12.5796 9.43433 3.14428 -8.95091
97 1 15.7242 9.43453 3.14483 -8.94982
98 1 18.8691 9.43453 3.14484 -8.94965
99 1 7.30429e-16 9.02396e-16 6.28969 -8.94963
100 1 1.57242 1.57242 7.86211 -8.94963
101 1 3.14484 4.68037e-16 6.28969 -8.94963
102 1 4.71726 1.57242 7.86211 -8.94963
103 1 6.28969 1.09513e-15 6.28969 -8.94964
104 1 7.8621 1.5724 7.8621 -8.94973
105 1 9.43453 -4.05502e-17 6.28969 -8.94964
106 1 11.007 1.57239 7.86209 -8.94967
107 1 12.5794 -1.13909e-16 6.28969 -8.94964
108 1 14.1518 1.5724 7.8621 -8.94973
109 1 15.7242 1.13129e-15 6.28969 -8.94964
110 1 17.2966 1.57242 7.86211 -8.94963
111 1 18.8691 6.40424e-16 6.28969 -8.94963
112 1 20.4415 1.57242 7.86211 -8.94963
113 1 4.79899e-16 3.14484 6.28969 -8.94963
114 1 1.57242 4.71726 7.86211 -8.94963
115 1 3.14484 3.14484 6.28969 -8.94965
116 1 4.71727 4.71728 7.86211 -8.94984
117 1 6.28967 3.14481 6.28967 -8.94964
118 1 7.86191 4.71675 7.86192 -8.95071
119 1 9.43452 3.14481 6.28967 -8.94967
120 1 11.007 4.71676 7.86177 -8.94822
121 1 12.5794 3.14481 6.28967 -8.94967
122 1 14.152 4.71675 7.86192 -8.95071
123 1 15.7242 3.14481 6.28967 -8.94964
124 1 17.2966 4.71728 7.86211 -8.94984
125 1 18.8691 3.14484 6.28969 -8.94965
126 1 20.4415 4.71726 7.86211 -8.94963
127 1 1.11657e-16 6.28969 6.28969 -8.94964
128 1 1.5724 7.8621 7.8621 -8.94973
129 1 3.14482 6.28967 6.28967 -8.94966
130 1 4.7168 7.86197 7.86198 -8.951
131 1 6.28919 6.28919 6.28917 -8.9459
132 1 7.85372 7.85423 7.85411 -8.89232
133 1 9.43447 6.2891 6.28953 -8.95235
134 1 11.007 7.85926 7.85644 -8.91735
135 1 12.5794 6.2891 6.28953 -8.95235
136 1 14.1602 7.85423 7.85411 -8.89232
137 1 15.7247 6.28919 6.28917 -8.9459
138 1 17.2971 7.86197 7.86198 -8.951
139 1 18.8691 6.28967 6.28967 -8.94966
140 1 20.4415 7.8621 7.8621 -8.94973
141 1 2.33671e-16 9.43453 6.28969 -8.94964
142 1 3.1448 9.43452 6.28967 -8.94972
143 1 6.28893 9.43438 6.28935 -8.95071
144 1 9.42431 9.42423 6.28165 -8.87995
145 1 12.5896 9.42423 6.28165 -8.87995
146 1 15.725 9.43438 6.28935 -8.95071
147 1 18.8691 9.43452 6.28967 -8.94972
148 1 1.04645e-15 -1.49118e-16 9.43453 -8.94963
149 1 3.14484 6.49591e-16 9.43453 -8.94963
150 1 6.28969 5.5776e-16 9.43453 -8.94963
151 1 9.43453 -2.72885e-17 9.43453 -8.94979
152 1 12.5794 -1.88116e-16 9.43453 -8.94979
153 1 15.7242 6.78134e-16 9.43453 -8.94963
154 1 18.8691 6.35931e-16 9.43453 -8.94963
155 1 2.52447e-16 3.14484 9.43453 -8.94963
177 1 4.71726 1.57242 11.007 -8.94963
48 1 15.7242 9.43453 3.52918e-08 -8.94963
181 1 17.2966 1.57242 11.007 -8.94963
19 1 6.28969 3.14484 1.34008e-07 -8.94963
45 1 6.28969 9.43453 3.52918e-08 -8.94963
25 1 15.7242 3.14484 1.34008e-07 -8.94963
176 1 1.57242 1.57242 11.007 -8.94963
47 1 12.5794 9.43452 22.0139 -8.94973
178 1 7.8621 1.5724 11.007 -8.94973
179 1 11.007 1.57239 11.007 -8.94967
180 1 14.1518 1.5724 11.007 -8.94973
46 1 9.43452 9.43452 22.0139 -8.94973
182 1 20.4415 1.57242 11.007 -8.94963
343 1 18.8691 9.43453 18.8691 -8.94963
342 1 15.7242 9.43453 18.8691 -8.94963
185 1 7.86191 4.71675 11.0071 -8.95071
186 1 11.007 4.71676 11.0073 -8.94822
187 1 14.152 4.71675 11.0071 -8.95071
341 1 12.5794 9.43452 18.8691 -8.94973
340 1 9.43452 9.43452 18.8691 -8.94973
190 1 1.5724 7.8621 11.007 -8.94973
191 1 4.7168 7.86197 11.0071 -8.951
192 1 7.85372 7.85423 11.015 -8.89232
193 1 11.007 7.85926 11.0126 -8.91735
194 1 14.1602 7.85423 11.015 -8.89232
195 1 17.2971 7.86197 11.0071 -8.951
196 1 20.4415 7.8621 11.007 -8.94973
197 1 6.67382e-16 7.50771e-16 12.5794 -8.94963
198 1 1.57242 1.57242 14.1518 -8.94963
199 1 3.14484 4.55553e-16 12.5794 -8.94963
200 1 4.71726 1.57242 14.1518 -8.94963
201 1 6.28969 1.08992e-15 12.5794 -8.94964
202 1 7.86211 1.57242 14.1518 -8.94964
203 1 9.43453 -1.15976e-16 12.5794 -8.94964
204 1 11.007 1.57242 14.1518 -8.94964
205 1 12.5794 -1.02049e-16 12.5794 -8.94964
206 1 14.1518 1.57242 14.1518 -8.94964
207 1 15.7242 1.12126e-15 12.5794 -8.94964
208 1 17.2966 1.57242 14.1518 -8.94963
209 1 18.8691 9.32323e-16 12.5794 -8.94963
210 1 20.4415 1.57242 14.1518 -8.94963
211 1 5.09766e-16 3.14484 12.5794 -8.94963
212 1 1.57242 4.71726 14.1518 -8.94963
213 1 3.14484 3.14484 12.5794 -8.94965
214 1 4.71724 4.71724 14.1518 -8.94942
215 1 6.28967 3.14481 12.5794 -8.94964
216 1 7.8621 4.71725 14.1518 -8.94989
217 1 9.43452 3.14481 12.5794 -8.94967
218 1 11.007 4.71725 14.1518 -8.94967
219 1 12.5794 3.14481 12.5794 -8.94967
220 1 14.1518 4.71725 14.1518 -8.94989
221 1 15.7242 3.14481 12.5794 -8.94964
222 1 17.2967 4.71724 14.1518 -8.94942
223 1 18.8691 3.14484 12.5794 -8.94965
224 1 20.4415 4.71726 14.1518 -8.94963
225 1 2.86773e-16 6.28969 12.5794 -8.94964
226 1 1.57242 7.86211 14.1518 -8.94964
227 1 3.14482 6.28967 12.5794 -8.94966
228 1 4.71724 7.86209 14.1518 -8.94981
229 1 6.28919 6.28919 12.5799 -8.9459
230 1 7.86147 7.86147 14.1527 -8.94714
231 1 9.43447 6.2891 12.5795 -8.95235
232 1 11.007 7.86195 14.1522 -8.9528
233 1 12.5794 6.2891 12.5795 -8.95235
234 1 14.1524 7.86147 14.1527 -8.94714
235 1 15.7247 6.28919 12.5799 -8.9459
236 1 17.2967 7.86209 14.1518 -8.94981
237 1 18.8691 6.28967 12.5794 -8.94966
238 1 20.4415 7.86211 14.1518 -8.94964
239 1 9.18467e-17 9.43453 12.5794 -8.94964
240 1 3.1448 9.43452 12.5794 -8.94972
241 1 6.28893 9.43438 12.5797 -8.95071
242 1 9.42431 9.42423 12.5874 -8.87995
243 1 12.5896 9.42423 12.5874 -8.87995
244 1 15.725 9.43438 12.5797 -8.95071
245 1 18.8691 9.43452 12.5794 -8.94972
246 1 1.41437e-16 4.53524e-16 15.7242 -8.94963
247 1 1.57242 1.57242 17.2966 -8.94963
248 1 3.14484 3.36793e-16 15.7242 -8.94963
249 1 4.71726 1.57242 17.2966 -8.94963
250 1 6.28969 8.36029e-16 15.7242 -8.94963
251 1 7.86211 1.57242 17.2966 -8.94963
252 1 9.43453 8.87309e-16 15.7242 -8.94963
253 1 11.007 1.57242 17.2966 -8.94963
254 1 12.5794 9.5526e-16 15.7242 -8.94963
255 1 14.1518 1.57242 17.2966 -8.94963
256 1 15.7242 7.36357e-16 15.7242 -8.94963
257 1 17.2966 1.57242 17.2966 -8.94963
258 1 18.8691 3.67935e-16 15.7242 -8.94963
259 1 20.4415 1.57242 17.2966 -8.94963
260 1 -2.67351e-16 3.14484 15.7242 -8.94963
261 1 1.57242 4.71726 17.2966 -8.94963
262 1 3.14484 3.14484 15.7242 -8.94962
263 1 4.71726 4.71726 17.2966 -8.94962
264 1 6.28969 3.14484 15.7242 -8.94965
265 1 7.86211 4.71727 17.2966 -8.94965
266 1 9.43453 3.14484 15.7242 -8.94964
267 1 11.007 4.71726 17.2966 -8.94965
268 1 12.5794 3.14484 15.7242 -8.94964
269 1 14.1518 4.71727 17.2966 -8.94965
270 1 15.7242 3.14484 15.7242 -8.94965
271 1 17.2966 4.71726 17.2966 -8.94962
272 1 18.8691 3.14484 15.7242 -8.94962
273 1 20.4415 4.71726 17.2966 -8.94963
274 1 -4.30283e-16 6.28969 15.7242 -8.94963
275 1 1.57242 7.86211 17.2966 -8.94963
276 1 3.14484 6.28969 15.7242 -8.94965
277 1 4.71727 7.86211 17.2966 -8.94965
278 1 6.28965 6.28965 15.7243 -8.94943
279 1 7.86209 7.86209 17.2967 -8.94975
280 1 9.43454 6.28969 15.7242 -8.94976
281 1 11.007 7.8621 17.2967 -8.94963
282 1 12.5794 6.28969 15.7242 -8.94976
283 1 14.1518 7.86209 17.2967 -8.94975
284 1 15.7243 6.28965 15.7243 -8.94943
285 1 17.2966 7.86211 17.2966 -8.94965
286 1 18.8691 6.28969 15.7242 -8.94965
287 1 20.4415 7.86211 17.2966 -8.94963
288 1 7.18582e-17 9.43453 15.7242 -8.94963
289 1 3.14484 9.43453 15.7242 -8.94965
290 1 6.28968 9.43453 15.7242 -8.94982
291 1 9.43433 9.43433 15.7248 -8.95091
292 1 12.5796 9.43433 15.7248 -8.95091
293 1 15.7242 9.43453 15.7242 -8.94982
294 1 18.8691 9.43453 15.7242 -8.94965
295 1 8.10913e-16 -1.46606e-16 18.8691 -8.94963
296 1 1.57242 1.57242 20.4415 -8.94963
297 1 3.14484 2.90529e-16 18.8691 -8.94963
298 1 4.71726 1.57242 20.4415 -8.94963
299 1 6.28969 1.46059e-15 18.8691 -8.94963
300 1 7.86211 1.57242 20.4415 -8.94963
301 1 9.43453 5.7089e-16 18.8691 -8.94963
302 1 11.007 1.57242 20.4415 -8.94963
303 1 12.5794 5.63379e-16 18.8691 -8.94963
304 1 14.1518 1.57242 20.4415 -8.94963
305 1 15.7242 1.51359e-15 18.8691 -8.94963
306 1 17.2966 1.57242 20.4415 -8.94963
307 1 18.8691 5.43302e-16 18.8691 -8.94963
308 1 20.4415 1.57242 20.4415 -8.94963
309 1 5.40509e-16 3.14484 18.8691 -8.94963
310 1 1.57242 4.71726 20.4415 -8.94963
311 1 3.14484 3.14484 18.8691 -8.94963
312 1 4.71726 4.71726 20.4415 -8.94963
313 1 6.28969 3.14484 18.8691 -8.94963
314 1 7.86211 4.71726 20.4415 -8.94963
315 1 9.43453 3.14484 18.8691 -8.94963
316 1 11.007 4.71726 20.4415 -8.94963
317 1 12.5794 3.14484 18.8691 -8.94963
318 1 14.1518 4.71726 20.4415 -8.94963
319 1 15.7242 3.14484 18.8691 -8.94963
320 1 17.2966 4.71726 20.4415 -8.94963
321 1 18.8691 3.14484 18.8691 -8.94963
322 1 20.4415 4.71726 20.4415 -8.94963
323 1 -8.58899e-16 6.28969 18.8691 -8.94963
324 1 1.57242 7.86211 20.4415 -8.94963
325 1 3.14484 6.28969 18.8691 -8.94963
326 1 4.71726 7.86211 20.4415 -8.94963
327 1 6.28968 6.28968 18.8691 -8.94963
328 1 7.86211 7.86211 20.4415 -8.94965
329 1 9.43453 6.28969 18.8691 -8.94963
330 1 11.007 7.86211 20.4415 -8.94964
331 1 12.5794 6.28969 18.8691 -8.94963
332 1 14.1518 7.86211 20.4415 -8.94965
333 1 15.7242 6.28968 18.8691 -8.94963
334 1 17.2966 7.86211 20.4415 -8.94963
335 1 18.8691 6.28969 18.8691 -8.94963
336 1 20.4415 7.86211 20.4415 -8.94963
337 1 -1.02375e-16 9.43453 18.8691 -8.94963
338 1 3.14484 9.43453 18.8691 -8.94963
339 1 6.28969 9.43453 18.8691 -8.94963
3 1 3.14484 1.71697e-16 22.0139 -8.94963
5 1 6.28969 1.22592e-15 22.0139 -8.94963
11 1 15.7242 1.33681e-15 22.0139 -8.94963
13 1 18.8691 5.14444e-16 22.0139 -8.94963
15 1 5.7637e-16 3.14484 22.0139 -8.94963
17 1 3.14484 3.14484 22.0139 -8.94963
41 1 18.8691 6.28969 22.0139 -8.94963
39 1 15.7242 6.28968 22.0139 -8.94963
27 1 18.8691 3.14484 22.0139 -8.94963
29 1 -7.22041e-16 6.28969 22.0139 -8.94963
31 1 3.14484 6.28969 22.0139 -8.94963
33 1 6.28968 6.28968 22.0139 -8.94963
1 1 6.89627e-16 -1.78196e-16 22.0139 -8.94963
21 1 9.43453 3.14484 22.0139 -8.94963
23 1 12.5794 3.14484 22.0139 -8.94963
43 1 -1.82048e-16 9.43453 22.0139 -8.94963
44 1 3.14484 9.43453 22.0139 -8.94963
49 1 18.8691 9.43453 22.0139 -8.94963
344 1 1.57242 11.007 1.57242 -8.94963
345 1 4.71726 11.007 1.57242 -8.94964
346 1 7.8621 11.007 1.5724 -8.94961
347 1 11.007 11.007 1.57209 -8.95057
348 1 14.1518 11.007 1.5724 -8.94961
349 1 17.2966 11.007 1.57242 -8.94964
350 1 20.4415 11.007 1.57242 -8.94963
532 1 20.4415 17.2966 11.007 -8.94963
352 1 1.57242 14.1518 1.57242 -8.94963
531 1 17.2966 17.2966 11.0069 -8.94984
354 1 4.71727 14.1518 1.57242 -8.94965
688 3 10.2296 11.007 9.43453 2.7822
356 1 7.86209 14.1518 1.57237 -8.94975
687 3 11.7843 11.007 9.43453 2.7822
358 1 11.007 14.1518 1.5724 -8.94963
511 1 18.8691 18.8691 9.43453 -8.94964
360 1 14.1518 14.1518 1.57237 -8.94975
510 1 15.7242 18.8691 9.43453 -8.9496
362 1 17.2966 14.1518 1.57242 -8.94965
527 1 4.71727 17.2966 11.0069 -8.94984
364 1 20.4415 14.1518 1.57242 -8.94963
509 1 12.5794 18.8694 9.43453 -8.95118
366 1 1.57242 17.2966 1.57242 -8.94963
508 1 9.43454 18.8694 9.43453 -8.95118
368 1 4.71726 17.2966 1.57242 -8.94962
507 1 6.28968 18.8691 9.43453 -8.9496
370 1 7.86211 17.2966 1.57242 -8.94965
371 1 9.43453 15.7242 4.86428e-07 -8.94963
372 1 11.007 17.2966 1.57242 -8.94965
373 1 12.5794 15.7242 4.86428e-07 -8.94963
374 1 14.1518 17.2966 1.57242 -8.94965
506 1 3.14484 18.8691 9.43453 -8.94964
376 1 17.2966 17.2966 1.57242 -8.94962
505 1 4.73712e-16 18.8691 9.43453 -8.94963
378 1 20.4415 17.2966 1.57242 -8.94963
504 1 18.8691 15.7242 9.43453 -8.9496
380 1 1.57242 20.4415 1.57242 -8.94963
503 1 15.7244 15.7244 9.43453 -8.95107
382 1 4.71726 20.4415 1.57242 -8.94963
502 1 12.5795 15.7302 9.43453 -8.97706
384 1 7.86211 20.4415 1.57242 -8.94963
526 1 1.57242 17.2966 11.007 -8.94963
386 1 11.007 20.4415 1.57242 -8.94963
499 1 3.14483 15.7242 9.43453 -8.9496
388 1 14.1518 20.4415 1.57242 -8.94963
501 1 9.43443 15.7302 9.43453 -8.97706
390 1 17.2966 20.4415 1.57242 -8.94963
500 1 6.28953 15.7244 9.43453 -8.95107
392 1 20.4415 20.4415 1.57242 -8.94963
393 1 1.57242 11.007 4.71726 -8.94963
394 1 4.71725 11.007 4.71725 -8.94954
395 1 7.86194 11.007 4.7169 -8.95228
396 1 11.007 11.007 4.71332 -8.99576
397 1 14.152 11.007 4.7169 -8.95228
398 1 17.2966 11.007 4.71725 -8.94954
399 1 20.4415 11.007 4.71726 -8.94963
400 1 9.14106e-17 12.5794 3.14484 -8.94963
401 1 1.57242 14.1518 4.71726 -8.94964
402 1 3.14484 12.5794 3.14484 -8.94965
403 1 4.71724 14.1518 4.71725 -8.94981
404 1 6.28968 12.5794 3.14483 -8.94982
405 1 7.86147 14.1524 4.71632 -8.94714
406 1 9.43433 12.5796 3.14428 -8.95091
407 1 11.007 14.152 4.71685 -8.9528
408 1 12.5796 12.5796 3.14428 -8.95091
409 1 14.1524 14.1524 4.71632 -8.94714
410 1 15.7242 12.5794 3.14483 -8.94982
411 1 17.2967 14.1518 4.71725 -8.94981
412 1 18.8691 12.5794 3.14484 -8.94965
413 1 20.4415 14.1518 4.71726 -8.94964
414 1 -3.01086e-16 15.7242 3.14484 -8.94963
415 1 1.57242 17.2966 4.71726 -8.94963
416 1 3.14484 15.7242 3.14484 -8.94965
417 1 4.71724 17.2967 4.71724 -8.94942
418 1 6.28965 15.7243 3.14479 -8.94943
419 1 7.8621 17.2967 4.71726 -8.94989
420 1 9.43454 15.7242 3.14485 -8.94976
421 1 11.007 17.2966 4.71725 -8.94967
422 1 12.5794 15.7242 3.14485 -8.94976
423 1 14.1518 17.2967 4.71726 -8.94989
424 1 15.7243 15.7243 3.14479 -8.94943
425 1 17.2967 17.2967 4.71724 -8.94942
426 1 18.8691 15.7242 3.14484 -8.94965
427 1 20.4415 17.2966 4.71726 -8.94963
428 1 -1.43617e-16 18.8691 3.14484 -8.94963
429 1 1.57242 20.4415 4.71726 -8.94963
430 1 3.14484 18.8691 3.14484 -8.94962
431 1 4.71726 20.4415 4.71726 -8.94963
432 1 6.28969 18.8691 3.14484 -8.94965
433 1 7.86211 20.4415 4.71726 -8.94964
434 1 9.43453 18.8691 3.14484 -8.94964
435 1 11.007 20.4415 4.71726 -8.94964
436 1 12.5794 18.8691 3.14484 -8.94964
437 1 14.1518 20.4415 4.71726 -8.94964
438 1 15.7242 18.8691 3.14484 -8.94965
439 1 17.2966 20.4415 4.71726 -8.94963
440 1 18.8691 18.8691 3.14484 -8.94962
441 1 20.4415 20.4415 4.71726 -8.94963
442 1 1.5724 11.007 7.8621 -8.94971
443 1 4.71676 11.007 7.86193 -8.94958
444 1 7.85725 11.007 7.85884 -8.9308
445 1 11.007 11.007 7.61481 -7.39404
446 1 14.1566 11.007 7.85884 -8.9308
447 1 17.2971 11.007 7.86193 -8.94958
448 1 20.4415 11.007 7.8621 -8.94971
449 1 2.73601e-16 12.5794 6.28969 -8.94964
450 1 1.5724 14.1518 7.8621 -8.94973
451 1 3.1448 12.5794 6.28967 -8.94972
452 1 4.7168 14.1519 7.86198 -8.951
453 1 6.28893 12.5795 6.28935 -8.95071
454 1 7.85372 14.1597 7.85411 -8.89232
455 1 9.42431 12.5897 6.28165 -8.87995
456 1 11.007 14.1546 7.85644 -8.91735
457 1 12.5896 12.5897 6.28165 -8.87995
458 1 14.1602 14.1597 7.85411 -8.89232
459 1 15.725 12.5795 6.28935 -8.95071
460 1 17.2971 14.1519 7.86198 -8.951
461 1 18.8691 12.5794 6.28967 -8.94972
462 1 20.4415 14.1518 7.8621 -8.94973
463 1 2.57524e-16 15.7242 6.28969 -8.94964
464 1 1.57242 17.2966 7.86211 -8.94963
465 1 3.14482 15.7242 6.28967 -8.94966
466 1 4.71727 17.2966 7.86211 -8.94984
467 1 6.28919 15.7247 6.28917 -8.9459
468 1 7.86191 17.2971 7.86192 -8.95071
469 1 9.43447 15.7248 6.28953 -8.95235
470 1 11.007 17.2971 7.86177 -8.94822
471 1 12.5794 15.7248 6.28953 -8.95235
472 1 14.152 17.2971 7.86192 -8.95071
473 1 15.7247 15.7247 6.28917 -8.9459
474 1 17.2966 17.2966 7.86211 -8.94984
475 1 18.8691 15.7242 6.28967 -8.94966
476 1 20.4415 17.2966 7.86211 -8.94963
477 1 5.0235e-16 18.8691 6.28969 -8.94963
478 1 1.57242 20.4415 7.86211 -8.94963
479 1 3.14484 18.8691 6.28969 -8.94965
480 1 4.71726 20.4415 7.86211 -8.94963
481 1 6.28967 18.8691 6.28967 -8.94964
482 1 7.8621 20.4415 7.8621 -8.94973
483 1 9.43452 18.8691 6.28967 -8.94967
484 1 11.007 20.4415 7.86209 -8.94967
485 1 12.5794 18.8691 6.28967 -8.94967
486 1 14.1518 20.4415 7.8621 -8.94973
487 1 15.7242 18.8691 6.28967 -8.94964
488 1 17.2966 20.4415 7.86211 -8.94963
489 1 18.8691 18.8691 6.28969 -8.94965
490 1 20.4415 20.4415 7.86211 -8.94963
491 1 1.58603e-16 12.5794 9.43453 -8.94973
492 1 3.14463 12.5794 9.43453 -8.9507
493 1 6.28517 12.5801 9.43453 -8.96365
494 1 9.36578 12.7257 9.43453 -8.00087
495 1 12.6481 12.7257 9.43453 -8.00087
496 1 15.7287 12.5801 9.43453 -8.96365
497 1 18.8693 12.5794 9.43453 -8.9507
498 1 2.25269e-16 15.7242 9.43453 -8.94963
534 1 4.71726 20.4415 11.007 -8.94963
538 1 17.2966 20.4415 11.007 -8.94963
389 1 15.7242 18.8691 1.34008e-07 -8.94963
383 1 6.28969 18.8691 1.34008e-07 -8.94963
355 1 6.28969 12.5794 3.52918e-08 -8.94963
361 1 15.7242 12.5794 3.52918e-08 -8.94963
512 1 1.5724 11.007 11.007 -8.94971
513 1 4.71676 11.007 11.0071 -8.94958
514 1 7.85725 11.007 11.0102 -8.9308
515 1 11.007 11.007 11.2542 -7.39404
516 1 14.1566 11.007 11.0102 -8.9308
517 1 17.2971 11.007 11.0071 -8.94958
518 1 20.4415 11.007 11.007 -8.94971
519 1 1.5724 14.1518 11.007 -8.94973
520 1 4.7168 14.1519 11.0071 -8.951
521 1 7.85372 14.1597 11.015 -8.89232
522 1 11.007 14.1546 11.0126 -8.91735
523 1 14.1602 14.1597 11.015 -8.89232
524 1 17.2971 14.1519 11.0071 -8.951
525 1 20.4415 14.1518 11.007 -8.94973
686 1 20.4415 20.4415 20.4415 -8.94963
685 1 18.8691 18.8691 18.8691 -8.94963
528 1 7.86191 17.2971 11.0071 -8.95071
529 1 11.007 17.2971 11.0073 -8.94822
530 1 14.152 17.2971 11.0071 -8.95071
684 1 17.2966 20.4415 20.4415 -8.94963
683 1 15.7242 18.8691 18.8691 -8.94963
533 1 1.57242 20.4415 11.007 -8.94963
391 1 18.8691 18.8691 22.0139 -8.94963
535 1 7.8621 20.4415 11.007 -8.94973
536 1 11.007 20.4415 11.007 -8.94967
537 1 14.1518 20.4415 11.007 -8.94973
381 1 3.14484 18.8691 22.0139 -8.94963
539 1 20.4415 20.4415 11.007 -8.94963
540 1 1.57242 11.007 14.1518 -8.94963
541 1 4.71725 11.007 14.1518 -8.94954
542 1 7.86194 11.007 14.1522 -8.95228
543 1 11.007 11.007 14.1557 -8.99576
544 1 14.152 11.007 14.1522 -8.95228
545 1 17.2966 11.007 14.1518 -8.94954
546 1 20.4415 11.007 14.1518 -8.94963
547 1 -2.02183e-18 12.5794 12.5794 -8.94964
548 1 1.57242 14.1518 14.1518 -8.94964
549 1 3.1448 12.5794 12.5794 -8.94972
550 1 4.71724 14.1518 14.1518 -8.94981
551 1 6.28893 12.5795 12.5797 -8.95071
552 1 7.86147 14.1524 14.1527 -8.94714
553 1 9.42431 12.5897 12.5874 -8.87995
554 1 11.007 14.152 14.1522 -8.9528
555 1 12.5896 12.5897 12.5874 -8.87995
556 1 14.1524 14.1524 14.1527 -8.94714
557 1 15.725 12.5795 12.5797 -8.95071
558 1 17.2967 14.1518 14.1518 -8.94981
559 1 18.8691 12.5794 12.5794 -8.94972
560 1 20.4415 14.1518 14.1518 -8.94964
561 1 3.77654e-16 15.7242 12.5794 -8.94964
562 1 1.57242 17.2966 14.1518 -8.94963
563 1 3.14482 15.7242 12.5794 -8.94966
564 1 4.71724 17.2967 14.1518 -8.94942
565 1 6.28919 15.7247 12.5799 -8.9459
566 1 7.8621 17.2967 14.1518 -8.94989
567 1 9.43447 15.7248 12.5795 -8.95235
568 1 11.007 17.2966 14.1518 -8.94967
569 1 12.5794 15.7248 12.5795 -8.95235
570 1 14.1518 17.2967 14.1518 -8.94989
571 1 15.7247 15.7247 12.5799 -8.9459
572 1 17.2967 17.2967 14.1518 -8.94942
573 1 18.8691 15.7242 12.5794 -8.94966
574 1 20.4415 17.2966 14.1518 -8.94963
575 1 5.16678e-16 18.8691 12.5794 -8.94963
576 1 1.57242 20.4415 14.1518 -8.94963
577 1 3.14484 18.8691 12.5794 -8.94965
578 1 4.71726 20.4415 14.1518 -8.94963
579 1 6.28967 18.8691 12.5794 -8.94964
580 1 7.86211 20.4415 14.1518 -8.94964
581 1 9.43452 18.8691 12.5794 -8.94967
582 1 11.007 20.4415 14.1518 -8.94964
583 1 12.5794 18.8691 12.5794 -8.94967
584 1 14.1518 20.4415 14.1518 -8.94964
585 1 15.7242 18.8691 12.5794 -8.94964
586 1 17.2966 20.4415 14.1518 -8.94963
587 1 18.8691 18.8691 12.5794 -8.94965
588 1 20.4415 20.4415 14.1518 -8.94963
589 1 1.57242 11.007 17.2966 -8.94963
590 1 4.71726 11.007 17.2966 -8.94964
591 1 7.8621 11.007 17.2967 -8.94961
592 1 11.007 11.007 17.297 -8.95057
593 1 14.1518 11.007 17.2967 -8.94961
594 1 17.2966 11.007 17.2966 -8.94964
595 1 20.4415 11.007 17.2966 -8.94963
596 1 8.11826e-17 12.5794 15.7242 -8.94963
597 1 1.57242 14.1518 17.2966 -8.94963
598 1 3.14484 12.5794 15.7242 -8.94965
599 1 4.71727 14.1518 17.2966 -8.94965
600 1 6.28968 12.5794 15.7242 -8.94982
601 1 7.86209 14.1518 17.2967 -8.94975
602 1 9.43433 12.5796 15.7248 -8.95091
603 1 11.007 14.1518 17.2967 -8.94963
604 1 12.5796 12.5796 15.7248 -8.95091
605 1 14.1518 14.1518 17.2967 -8.94975
606 1 15.7242 12.5794 15.7242 -8.94982
607 1 17.2966 14.1518 17.2966 -8.94965
608 1 18.8691 12.5794 15.7242 -8.94965
609 1 20.4415 14.1518 17.2966 -8.94963
610 1 -3.78038e-16 15.7242 15.7242 -8.94963
611 1 1.57242 17.2966 17.2966 -8.94963
612 1 3.14484 15.7242 15.7242 -8.94965
613 1 4.71726 17.2966 17.2966 -8.94962
614 1 6.28965 15.7243 15.7243 -8.94943
615 1 7.86211 17.2966 17.2966 -8.94965
616 1 9.43454 15.7242 15.7242 -8.94976
617 1 11.007 17.2966 17.2966 -8.94965
618 1 12.5794 15.7242 15.7242 -8.94976
619 1 14.1518 17.2966 17.2966 -8.94965
620 1 15.7243 15.7243 15.7243 -8.94943
621 1 17.2966 17.2966 17.2966 -8.94962
622 1 18.8691 15.7242 15.7242 -8.94965
623 1 20.4415 17.2966 17.2966 -8.94963
624 1 -1.46903e-16 18.8691 15.7242 -8.94963
625 1 1.57242 20.4415 17.2966 -8.94963
626 1 3.14484 18.8691 15.7242 -8.94962
627 1 4.71726 20.4415 17.2966 -8.94963
628 1 6.28969 18.8691 15.7242 -8.94965
629 1 7.86211 20.4415 17.2966 -8.94963
630 1 9.43453 18.8691 15.7242 -8.94964
631 1 11.007 20.4415 17.2966 -8.94963
632 1 12.5794 18.8691 15.7242 -8.94964
633 1 14.1518 20.4415 17.2966 -8.94963
634 1 15.7242 18.8691 15.7242 -8.94965
635 1 17.2966 20.4415 17.2966 -8.94963
636 1 18.8691 18.8691 15.7242 -8.94962
637 1 20.4415 20.4415 17.2966 -8.94963
638 1 1.57242 11.007 20.4415 -8.94963
639 1 4.71726 11.007 20.4415 -8.94963
640 1 7.86211 11.007 20.4415 -8.94964
641 1 11.007 11.007 20.4415 -8.94979
642 1 14.1518 11.007 20.4415 -8.94964
643 1 17.2966 11.007 20.4415 -8.94963
644 1 20.4415 11.007 20.4415 -8.94963
645 1 -2.0022e-16 12.5794 18.8691 -8.94963
646 1 1.57242 14.1518 20.4415 -8.94963
647 1 3.14484 12.5794 18.8691 -8.94963
648 1 4.71726 14.1518 20.4415 -8.94963
649 1 6.28969 12.5794 18.8691 -8.94963
650 1 7.86211 14.1518 20.4415 -8.94965
651 1 9.43452 12.5794 18.8691 -8.94973
652 1 11.007 14.1518 20.4415 -8.94964
653 1 12.5794 12.5794 18.8691 -8.94973
654 1 14.1518 14.1518 20.4415 -8.94965
655 1 15.7242 12.5794 18.8691 -8.94963
656 1 17.2966 14.1518 20.4415 -8.94963
657 1 18.8691 12.5794 18.8691 -8.94963
658 1 20.4415 14.1518 20.4415 -8.94963
659 1 -8.8365e-16 15.7242 18.8691 -8.94963
660 1 1.57242 17.2966 20.4415 -8.94963
661 1 3.14484 15.7242 18.8691 -8.94963
662 1 4.71726 17.2966 20.4415 -8.94963
663 1 6.28968 15.7242 18.8691 -8.94963
664 1 7.86211 17.2966 20.4415 -8.94963
665 1 9.43453 15.7242 18.8691 -8.94963
666 1 11.007 17.2966 20.4415 -8.94963
667 1 12.5794 15.7242 18.8691 -8.94963
668 1 14.1518 17.2966 20.4415 -8.94963
669 1 15.7242 15.7242 18.8691 -8.94963
670 1 17.2966 17.2966 20.4415 -8.94963
671 1 18.8691 15.7242 18.8691 -8.94963
672 1 20.4415 17.2966 20.4415 -8.94963
673 1 2.07599e-16 18.8691 18.8691 -8.94963
674 1 1.57242 20.4415 20.4415 -8.94963
675 1 3.14484 18.8691 18.8691 -8.94963
676 1 4.71726 20.4415 20.4415 -8.94963
677 1 6.28969 18.8691 18.8691 -8.94963
678 1 7.86211 20.4415 20.4415 -8.94963
679 1 9.43453 18.8691 18.8691 -8.94963
680 1 11.007 20.4415 20.4415 -8.94963
681 1 12.5794 18.8691 18.8691 -8.94963
682 1 14.1518 20.4415 20.4415 -8.94963
379 1 2.76782e-16 18.8691 22.0139 -8.94963
357 1 9.43452 12.5794 22.0139 -8.94973
359 1 12.5794 12.5794 22.0139 -8.94973
377 1 18.8691 15.7242 22.0139 -8.94963
365 1 -7.15839e-16 15.7242 22.0139 -8.94963
367 1 3.14484 15.7242 22.0139 -8.94963
369 1 6.28968 15.7242 22.0139 -8.94963
375 1 15.7242 15.7242 22.0139 -8.94963
351 1 -1.72606e-16 12.5794 22.0139 -8.94963
353 1 3.14484 12.5794 22.0139 -8.94963
363 1 18.8691 12.5794 22.0139 -8.94963
385 1 9.43453 18.8691 22.0139 -8.94963
387 1 12.5794 18.8691 22.0139 -8.94963
