ITEM: TIMESTEP
57
ITEM: NUMBER OF ATOMS
688
ITEM: BOX BOUNDS pp pp pp
0.0000000000000000e+00 2.2013900999999997e+01
0.0000000000000000e+00 2.2013900999999997e+01
0.0000000000000000e+00 2.2013900999999997e+01
ITEM: ATOMS id type x y z c_pot
189 1 20.4416 4.71715 11.007 -8.94951
2 1 1.57241 1.57241 1.57241 -8.94957
175 1 18.871 9.43474 9.43453 -8.95141
4 1 4.71725 1.5724 1.5724 -8.94966
174 1 15.7343 9.43042 9.43453 -8.9713
6 1 7.8621 1.5724 1.5724 -8.94962
7 1 9.43453 1.49724e-15 -3.45432e-06 -8.94964
8 1 11.007 1.5724 1.57239 -8.94965
9 1 12.5794 1.55539e-15 -3.45432e-06 -8.94964
10 1 14.1518 1.5724 1.5724 -8.94962
173 1 12.6606 9.22248 9.43453 -8.05622
12 1 17.2967 1.5724 1.5724 -8.94966
172 1 9.35331 9.22248 9.43453 -8.05622
14 1 20.4415 1.57241 1.57241 -8.94957
171 1 6.27962 9.43042 9.43453 -8.9713
16 1 1.5724 4.71725 1.5724 -8.94968
170 1 3.14285 9.43474 9.43453 -8.95141
18 1 4.71703 4.71703 1.57211 -8.94915
169 1 9.13552e-16 9.43458 9.43453 -8.95023
20 1 7.8621 4.71712 1.57224 -8.94962
188 1 17.2974 4.71646 11.0072 -8.94888
22 1 11.007 4.71708 1.57218 -8.94956
184 1 4.71649 4.71646 11.0072 -8.94888
24 1 14.1518 4.71712 1.57224 -8.94962
168 1 18.8702 6.28907 9.43453 -8.94903
26 1 17.2969 4.71703 1.57211 -8.94915
167 1 15.7291 6.28465 9.43453 -8.94311
28 1 20.4415 4.71725 1.5724 -8.94968
166 1 12.5812 6.28782 9.43453 -8.9972
30 1 1.5724 7.8621 1.5724 -8.9496
165 1 9.43272 6.28782 9.43453 -8.9972
32 1 4.71715 7.86213 1.57228 -8.94966
164 1 6.2848 6.28465 9.43453 -8.94311
34 1 7.86166 7.86168 1.57088 -8.95162
35 1 9.43452 6.28955 -0.000201391 -8.94958
36 1 11.007 7.86166 1.57123 -8.94998
37 1 12.5794 6.28955 -0.000201391 -8.94958
38 1 14.1522 7.86168 1.57088 -8.95162
163 1 3.14371 6.28907 9.43453 -8.94903
40 1 17.2967 7.86213 1.57228 -8.94966
162 1 6.92553e-16 6.28957 9.43453 -8.94978
42 1 20.4415 7.8621 1.5724 -8.9496
183 1 1.57228 4.71715 11.007 -8.94951
157 1 6.28908 3.14369 9.43453 -8.94921
161 1 18.8692 3.14473 9.43453 -8.9497
160 1 15.7248 3.14369 9.43453 -8.94921
159 1 12.5793 3.14341 9.43453 -8.94865
158 1 9.43461 3.14341 9.43453 -8.94865
156 1 3.14473 3.14473 9.43453 -8.9497
50 1 6.71446e-16 1.42944e-15 3.14484 -8.94966
51 1 1.57241 1.57241 4.71726 -8.94967
52 1 3.14481 8.45449e-16 3.14481 -8.9496
53 1 4.71715 1.57226 4.71716 -8.94968
54 1 6.28967 1.61337e-15 3.14481 -8.94965
55 1 7.86206 1.5722 4.71714 -8.94974
56 1 9.43452 1.27669e-15 3.1448 -8.94961
57 1 11.007 1.57218 4.71708 -8.94954
58 1 12.5794 1.04984e-15 3.1448 -8.94961
59 1 14.1518 1.5722 4.71714 -8.94974
60 1 15.7242 2.16912e-15 3.14481 -8.94965
61 1 17.2967 1.57226 4.71716 -8.94968
62 1 18.8691 1.31874e-15 3.14481 -8.9496
63 1 20.4415 1.57241 4.71726 -8.94967
64 1 8.70866e-16 3.14481 3.14481 -8.9496
65 1 1.57225 4.71715 4.71715 -8.94964
66 1 3.1447 3.1447 3.1447 -8.94919
67 1 4.71613 4.71615 4.71617 -8.94675
68 1 6.28958 3.1446 3.14468 -8.94976
69 1 7.86158 4.71564 4.7163 -8.94994
70 1 9.43451 3.14462 3.14465 -8.94948
71 1 11.007 4.71586 4.71613 -8.94776
72 1 12.5794 3.14462 3.14465 -8.94948
73 1 14.1523 4.71564 4.7163 -8.94994
74 1 15.7243 3.1446 3.14468 -8.94976
75 1 17.2978 4.71615 4.71617 -8.94675
76 1 18.8692 3.1447 3.1447 -8.94919
77 1 20.4417 4.71715 4.71715 -8.94964
78 1 8.1786e-16 6.28968 3.14482 -8.94967
79 1 1.57224 7.86209 4.71717 -8.94974
80 1 3.14463 6.28961 3.1447 -8.94993
81 1 4.71594 7.86191 4.71657 -8.9513
82 1 6.28815 6.28816 3.14269 -8.94742
83 1 7.85437 7.85447 4.70669 -8.94132
84 1 9.43448 6.28874 3.1436 -8.9488
85 1 11.007 7.85918 4.71104 -8.95249
86 1 12.5794 6.28874 3.1436 -8.9488
87 1 14.1595 7.85447 4.70669 -8.94132
88 1 15.7258 6.28816 3.14269 -8.94742
89 1 17.298 7.86191 4.71657 -8.9513
90 1 18.8693 6.28961 3.1447 -8.94993
91 1 20.4417 7.86209 4.71717 -8.94974
92 1 -4.07665e-16 9.43452 3.1448 -8.94962
93 1 3.14461 9.43449 3.14465 -8.94936
94 1 6.28891 9.43468 3.14396 -8.9488
95 1 9.43333 9.43362 3.14023 -8.9539
96 1 12.5806 9.43362 3.14023 -8.9539
97 1 15.725 9.43468 3.14396 -8.9488
98 1 18.8693 9.43449 3.14465 -8.94936
99 1 6.08169e-16 1.56018e-15 6.28969 -8.94964
100 1 1.57241 1.57241 7.86211 -8.94965
101 1 3.14482 1.67216e-15 6.28968 -8.94961
102 1 4.71715 1.57228 7.86208 -8.94951
103 1 6.2896 1.77806e-15 6.28961 -8.94998
104 1 7.862 1.57179 7.86205 -8.95071
105 1 9.43451 4.75024e-16 6.28958 -8.94999
106 1 11.007 1.57189 7.86197 -8.9497
107 1 12.5794 1.15466e-16 6.28958 -8.94999
108 1 14.1519 1.57179 7.86205 -8.95071
109 1 15.7243 1.84183e-15 6.28961 -8.94998
110 1 17.2968 1.57228 7.86208 -8.94951
111 1 18.8691 1.54829e-15 6.28968 -8.94961
112 1 20.4415 1.57241 7.86211 -8.94965
113 1 1.21179e-15 3.14482 6.28968 -8.94961
114 1 1.57228 4.71715 7.86208 -8.94951
115 1 3.14474 3.14474 6.28966 -8.94968
116 1 4.71649 4.71646 7.86188 -8.94888
117 1 6.28919 3.14372 6.28925 -8.95053
118 1 7.86082 4.71225 7.86148 -8.95655
119 1 9.43455 3.14345 6.28923 -8.95071
120 1 11.007 4.71469 7.86165 -8.94965
121 1 12.5793 3.14345 6.28923 -8.95071
122 1 14.1531 4.71225 7.86148 -8.95655
123 1 15.7247 3.14372 6.28925 -8.95053
124 1 17.2974 4.71646 7.86188 -8.94888
125 1 18.8692 3.14474 6.28966 -8.94968
126 1 20.4416 4.71715 7.86208 -8.94951
127 1 9.67604e-16 6.2896 6.28961 -8.94999
128 1 1.57172 7.86199 7.86203 -8.95094
129 1 3.14363 6.28913 6.28917 -8.95023
130 1 4.71136 7.86036 7.86095 -8.95594
131 1 6.28274 6.28294 6.28318 -8.93392
132 1 7.82827 7.83204 7.83557 -8.86184
133 1 9.43304 6.28152 6.28602 -8.95383
134 1 11.007 7.85522 7.83702 -8.88046
135 1 12.5809 6.28152 6.28602 -8.95383
136 1 14.1856 7.83204 7.83557 -8.86184
137 1 15.7312 6.28294 6.28318 -8.93392
138 1 17.3025 7.86036 7.86095 -8.95594
139 1 18.8703 6.28913 6.28917 -8.95023
140 1 20.4422 7.86199 7.86203 -8.95094
141 1 2.94957e-16 9.43453 6.28959 -8.94985
142 1 3.14372 9.43469 6.28934 -8.95035
143 1 6.28361 9.43585 6.28828 -8.95736
144 1 9.39904 9.39905 6.2652 -8.84387
145 1 12.6149 9.39905 6.2652 -8.84387
146 1 15.7303 9.43585 6.28828 -8.95736
147 1 18.8702 9.43469 6.28934 -8.95035
148 1 7.04893e-16 7.50041e-16 9.43453 -8.94964
149 1 3.14482 1.72268e-15 9.43453 -8.94963
150 1 6.28957 1.78576e-15 9.43453 -8.94983
151 1 9.43455 5.05614e-16 9.43453 -8.94985
152 1 12.5794 5.51909e-16 9.43453 -8.94985
153 1 15.7243 2.23509e-15 9.43453 -8.94983
154 1 18.8691 1.61299e-15 9.43453 -8.94963
155 1 -1.51107e-16 3.14482 9.43453 -8.94963
177 1 4.71715 1.57228 11.007 -8.94951
48 1 15.7243 9.43453 -0.000169691 -8.94952
181 1 17.2968 1.57228 11.007 -8.94951
19 1 6.28969 3.14483 -1.47645e-05 -8.94967
45 1 6.28956 9.43453 -0.000169691 -8.94952
25 1 15.7242 3.14483 -1.47645e-05 -8.94967
176 1 1.57241 1.57241 11.007 -8.94965
47 1 12.5795 9.43448 22.0133 -8.95046
178 1 7.862 1.57179 11.007 -8.95071
179 1 11.007 1.57189 11.0071 -8.9497
180 1 14.1519 1.57179 11.007 -8.95071
46 1 9.43445 9.43448 22.0133 -8.95046
182 1 20.4415 1.57241 11.007 -8.94965
343 1 18.8691 9.43452 18.8691 -8.94964
342 1 15.7243 9.43453 18.8692 -8.94952
185 1 7.86082 4.71225 11.0076 -8.95655
186 1 11.007 4.71469 11.0074 -8.94965
187 1 14.1531 4.71225 11.0076 -8.95655
341 1 12.5795 9.43448 18.8697 -8.95046
340 1 9.43445 9.43448 18.8697 -8.95046
190 1 1.57172 7.86199 11.007 -8.95094
191 1 4.71136 7.86036 11.0081 -8.95594
192 1 7.82827 7.83204 11.0335 -8.86184
193 1 11.007 7.85522 11.032 -8.88046
194 1 14.1856 7.83204 11.0335 -8.86184
195 1 17.3025 7.86036 11.0081 -8.95594
196 1 20.4422 7.86199 11.007 -8.95094
197 1 1.01903e-15 1.41384e-15 12.5794 -8.94964
198 1 1.57241 1.57241 14.1518 -8.94967
199 1 3.14482 1.59611e-15 12.5794 -8.94961
200 1 4.71715 1.57226 14.1519 -8.94968
201 1 6.2896 1.88684e-15 12.5794 -8.94998
202 1 7.86206 1.5722 14.1519 -8.94974
203 1 9.43451 7.1382e-16 12.5795 -8.94999
204 1 11.007 1.57218 14.152 -8.94954
205 1 12.5794 -3.62296e-16 12.5795 -8.94999
206 1 14.1518 1.5722 14.1519 -8.94974
207 1 15.7243 1.79722e-15 12.5794 -8.94998
208 1 17.2967 1.57226 14.1519 -8.94968
209 1 18.8691 1.05911e-15 12.5794 -8.94961
210 1 20.4415 1.57241 14.1518 -8.94967
211 1 9.63537e-16 3.14482 12.5794 -8.94961
212 1 1.57225 4.71715 14.1519 -8.94964
213 1 3.14474 3.14474 12.5794 -8.94968
214 1 4.71613 4.71615 14.1529 -8.94675
215 1 6.28919 3.14372 12.5798 -8.95053
216 1 7.86158 4.71564 14.1528 -8.94994
217 1 9.43455 3.14345 12.5798 -8.95071
218 1 11.007 4.71586 14.1529 -8.94776
219 1 12.5793 3.14345 12.5798 -8.95071
220 1 14.1523 4.71564 14.1528 -8.94994
221 1 15.7247 3.14372 12.5798 -8.95053
222 1 17.2978 4.71615 14.1529 -8.94675
223 1 18.8692 3.14474 12.5794 -8.94968
224 1 20.4417 4.71715 14.1519 -8.94964
225 1 4.21417e-16 6.2896 12.5795 -8.94999
226 1 1.57224 7.86209 14.1519 -8.94974
227 1 3.14363 6.28913 12.5799 -8.95023
228 1 4.71594 7.86191 14.1525 -8.9513
229 1 6.28274 6.28294 12.5859 -8.93392
230 1 7.85437 7.85447 14.1624 -8.94132
231 1 9.43304 6.28152 12.583 -8.95383
232 1 11.007 7.85918 14.158 -8.95249
233 1 12.5809 6.28152 12.583 -8.95383
234 1 14.1595 7.85447 14.1624 -8.94132
235 1 15.7312 6.28294 12.5859 -8.93392
236 1 17.298 7.86191 14.1525 -8.9513
237 1 18.8703 6.28913 12.5799 -8.95023
238 1 20.4417 7.86209 14.1519 -8.94974
239 1 2.69688e-17 9.43453 12.5795 -8.94985
240 1 3.14372 9.43469 12.5797 -8.95035
241 1 6.28361 9.43585 12.5808 -8.95736
242 1 9.39904 9.39905 12.6039 -8.84387
243 1 12.6149 9.39905 12.6039 -8.84387
244 1 15.7303 9.43585 12.5808 -8.95736
245 1 18.8702 9.43469 12.5797 -8.95035
246 1 8.89074e-16 1.2241e-15 15.7242 -8.94966
247 1 1.57241 1.57241 17.2967 -8.94957
248 1 3.14481 1.08979e-15 15.7242 -8.9496
249 1 4.71725 1.5724 17.2967 -8.94966
250 1 6.28967 1.43174e-15 15.7242 -8.94965
251 1 7.8621 1.5724 17.2967 -8.94962
252 1 9.43452 1.48839e-15 15.7243 -8.94961
253 1 11.007 1.5724 17.2967 -8.94965
254 1 12.5794 1.13116e-15 15.7243 -8.94961
255 1 14.1518 1.5724 17.2967 -8.94962
256 1 15.7242 2.10497e-15 15.7242 -8.94965
257 1 17.2967 1.5724 17.2967 -8.94966
258 1 18.8691 1.34762e-15 15.7242 -8.9496
259 1 20.4415 1.57241 17.2967 -8.94957
260 1 1.01893e-15 3.14481 15.7242 -8.9496
261 1 1.5724 4.71725 17.2967 -8.94968
262 1 3.1447 3.1447 15.7244 -8.94919
263 1 4.71703 4.71703 17.297 -8.94915
264 1 6.28958 3.1446 15.7244 -8.94976
265 1 7.8621 4.71712 17.2968 -8.94962
266 1 9.43451 3.14462 15.7244 -8.94948
267 1 11.007 4.71708 17.2969 -8.94956
268 1 12.5794 3.14462 15.7244 -8.94948
269 1 14.1518 4.71712 17.2968 -8.94962
270 1 15.7243 3.1446 15.7244 -8.94976
271 1 17.2969 4.71703 17.297 -8.94915
272 1 18.8692 3.1447 15.7244 -8.94919
273 1 20.4415 4.71725 17.2967 -8.94968
274 1 -4.15113e-17 6.28968 15.7242 -8.94967
275 1 1.5724 7.8621 17.2967 -8.9496
276 1 3.14463 6.28961 15.7244 -8.94993
277 1 4.71715 7.86213 17.2968 -8.94966
278 1 6.28815 6.28816 15.7264 -8.94742
279 1 7.86166 7.86168 17.2982 -8.95162
280 1 9.43448 6.28874 15.7255 -8.9488
281 1 11.007 7.86166 17.2978 -8.94998
282 1 12.5794 6.28874 15.7255 -8.9488
283 1 14.1522 7.86168 17.2982 -8.95162
284 1 15.7258 6.28816 15.7264 -8.94742
285 1 17.2967 7.86213 17.2968 -8.94966
286 1 18.8693 6.28961 15.7244 -8.94993
287 1 20.4415 7.8621 17.2967 -8.9496
288 1 -7.52827e-16 9.43452 15.7243 -8.94962
289 1 3.14461 9.43449 15.7244 -8.94936
290 1 6.28891 9.43468 15.7251 -8.9488
291 1 9.43333 9.43362 15.7288 -8.9539
292 1 12.5806 9.43362 15.7288 -8.9539
293 1 15.725 9.43468 15.7251 -8.9488
294 1 18.8693 9.43449 15.7244 -8.94936
295 1 1.09693e-15 -7.13785e-16 18.8691 -8.94961
296 1 1.57242 1.57242 20.4415 -8.94961
297 1 3.14484 3.97281e-16 18.8691 -8.94964
298 1 4.71727 1.57242 20.4415 -8.94965
299 1 6.28969 1.75863e-15 18.8691 -8.94963
300 1 7.86211 1.57242 20.4415 -8.94964
301 1 9.43453 2.05503e-15 18.8691 -8.94964
302 1 11.007 1.57242 20.4415 -8.94964
303 1 12.5794 1.96591e-15 18.8691 -8.94964
304 1 14.1518 1.57242 20.4415 -8.94964
305 1 15.7242 1.81859e-15 18.8691 -8.94963
306 1 17.2966 1.57242 20.4415 -8.94965
307 1 18.8691 7.35072e-16 18.8691 -8.94964
308 1 20.4415 1.57242 20.4415 -8.94961
309 1 1.24859e-15 3.14484 18.8691 -8.94964
310 1 1.57242 4.71727 20.4415 -8.94965
311 1 3.14481 3.14481 18.8691 -8.94955
312 1 4.71722 4.71722 20.4415 -8.94965
313 1 6.28969 3.14483 18.8691 -8.94967
314 1 7.8621 4.71723 20.4415 -8.94961
315 1 9.43453 3.14482 18.8691 -8.94964
316 1 11.007 4.71723 20.4415 -8.94964
317 1 12.5794 3.14482 18.8691 -8.94964
318 1 14.1518 4.71723 20.4415 -8.94961
319 1 15.7242 3.14483 18.8691 -8.94967
320 1 17.2967 4.71722 20.4415 -8.94965
321 1 18.8691 3.14481 18.8691 -8.94955
322 1 20.4415 4.71727 20.4415 -8.94965
323 1 -4.75434e-16 6.28969 18.8691 -8.94963
324 1 1.57242 7.86211 20.4415 -8.94963
325 1 3.14483 6.28969 18.8691 -8.94967
326 1 4.71724 7.86211 20.4415 -8.9496
327 1 6.28956 6.28956 18.8693 -8.94992
328 1 7.86204 7.86204 20.4415 -8.9502
329 1 9.43452 6.28955 18.8693 -8.94958
330 1 11.007 7.86202 20.4415 -8.94991
331 1 12.5794 6.28955 18.8693 -8.94958
332 1 14.1519 7.86204 20.4415 -8.9502
333 1 15.7243 6.28956 18.8693 -8.94992
334 1 17.2967 7.86211 20.4415 -8.9496
335 1 18.8691 6.28969 18.8691 -8.94967
336 1 20.4415 7.86211 20.4415 -8.94963
337 1 -3.12923e-16 9.43453 18.8691 -8.94964
338 1 3.14482 9.43452 18.8691 -8.94964
339 1 6.28956 9.43453 18.8692 -8.94952
3 1 3.14484 5.82877e-16 22.0139 -8.94964
5 1 6.28969 1.94017e-15 22.0139 -8.94963
11 1 15.7242 2.1289e-15 22.0139 -8.94963
13 1 18.8691 9.5261e-16 22.0139 -8.94964
15 1 1.03603e-15 3.14484 22.0139 -8.94964
17 1 3.14481 3.14481 22.0139 -8.94955
41 1 18.8691 6.28969 22.0139 -8.94967
39 1 15.7243 6.28956 22.0136 -8.94992
27 1 18.8691 3.14481 22.0139 -8.94955
29 1 -1.97522e-16 6.28969 22.0139 -8.94963
31 1 3.14483 6.28969 22.0139 -8.94967
33 1 6.28956 6.28956 22.0136 -8.94992
1 1 1.43867e-15 -3.85399e-16 22.0139 -8.94961
21 1 9.43453 3.14482 22.0139 -8.94964
23 1 12.5794 3.14482 22.0139 -8.94964
43 1 -2.01209e-16 9.43453 22.0139 -8.94964
44 1 3.14482 9.43452 22.0139 -8.94964
49 1 18.8691 9.43452 22.0139 -8.94964
344 1 1.5724 11.007 1.5724 -8.94965
345 1 4.71708 11.007 1.57218 -8.94965
346 1 7.86162 11.007 1.5715 -8.9489
347 1 11.007 11.007 1.57054 -8.95016
348 1 14.1523 11.007 1.5715 -8.9489
349 1 17.2968 11.007 1.57218 -8.94965
350 1 20.4415 11.007 1.5724 -8.94965
532 1 20.4416 17.2967 11.007 -8.94951
352 1 1.5724 14.1518 1.5724 -8.9496
531 1 17.2974 17.2974 11.0072 -8.94888
354 1 4.71715 14.1518 1.57228 -8.94966
688 3 10.2468 11.007 9.43453 2.2918
356 1 7.86166 14.1522 1.57088 -8.95162
687 3 11.7671 11.007 9.43453 2.2918
358 1 11.007 14.1522 1.57123 -8.94998
511 1 18.8692 18.8692 9.43453 -8.9497
360 1 14.1522 14.1522 1.57088 -8.95162
510 1 15.7248 18.8702 9.43453 -8.94921
362 1 17.2967 14.1518 1.57228 -8.94966
527 1 4.71649 17.2974 11.0072 -8.94888
364 1 20.4415 14.1518 1.5724 -8.9496
509 1 12.5793 18.8705 9.43453 -8.94865
366 1 1.5724 17.2966 1.5724 -8.94968
508 1 9.43461 18.8705 9.43453 -8.94865
368 1 4.71703 17.2969 1.57211 -8.94915
507 1 6.28908 18.8702 9.43453 -8.94921
370 1 7.8621 17.2968 1.57224 -8.94962
371 1 9.43452 15.7243 -0.000201391 -8.94958
372 1 11.007 17.2968 1.57218 -8.94956
373 1 12.5794 15.7243 -0.000201391 -8.94958
374 1 14.1518 17.2968 1.57224 -8.94962
506 1 3.14473 18.8692 9.43453 -8.9497
376 1 17.2969 17.2969 1.57211 -8.94915
505 1 -1.46625e-16 18.8691 9.43453 -8.94963
378 1 20.4415 17.2966 1.5724 -8.94968
504 1 18.8702 15.7248 9.43453 -8.94903
380 1 1.57241 20.4415 1.57241 -8.94957
503 1 15.7291 15.7292 9.43453 -8.94311
382 1 4.71725 20.4415 1.5724 -8.94966
502 1 12.5812 15.7261 9.43453 -8.9972
384 1 7.8621 20.4415 1.5724 -8.94962
526 1 1.57228 17.2967 11.007 -8.94951
386 1 11.007 20.4415 1.57239 -8.94965
499 1 3.14371 15.7248 9.43453 -8.94903
388 1 14.1518 20.4415 1.5724 -8.94962
501 1 9.43272 15.7261 9.43453 -8.9972
390 1 17.2967 20.4415 1.5724 -8.94966
500 1 6.2848 15.7292 9.43453 -8.94311
392 1 20.4415 20.4415 1.57241 -8.94957
393 1 1.57218 11.007 4.71709 -8.94965
394 1 4.71578 11.007 4.71607 -8.94751
395 1 7.8594 11.007 4.71446 -8.9442
396 1 11.007 11.007 4.70915 -9.02092
397 1 14.1545 11.007 4.71446 -8.9442
398 1 17.2981 11.007 4.71607 -8.94751
399 1 20.4417 11.007 4.71709 -8.94965
400 1 -6.82822e-16 12.5794 3.1448 -8.94962
401 1 1.57224 14.1518 4.71717 -8.94974
402 1 3.14461 12.5794 3.14465 -8.94936
403 1 4.71594 14.152 4.71657 -8.9513
404 1 6.28891 12.5792 3.14396 -8.9488
405 1 7.85437 14.1594 4.70669 -8.94132
406 1 9.43333 12.5803 3.14023 -8.9539
407 1 11.007 14.1547 4.71104 -8.95249
408 1 12.5806 12.5803 3.14023 -8.9539
409 1 14.1595 14.1594 4.70669 -8.94132
410 1 15.725 12.5792 3.14396 -8.9488
411 1 17.298 14.152 4.71657 -8.9513
412 1 18.8693 12.5794 3.14465 -8.94936
413 1 20.4417 14.1518 4.71717 -8.94974
414 1 5.82764e-16 15.7242 3.14482 -8.94967
415 1 1.57225 17.2968 4.71715 -8.94964
416 1 3.14463 15.7243 3.1447 -8.94993
417 1 4.71613 17.2978 4.71617 -8.94675
418 1 6.28815 15.7257 3.14269 -8.94742
419 1 7.86158 17.2983 4.7163 -8.94994
420 1 9.43448 15.7252 3.1436 -8.9488
421 1 11.007 17.298 4.71613 -8.94776
422 1 12.5794 15.7252 3.1436 -8.9488
423 1 14.1523 17.2983 4.7163 -8.94994
424 1 15.7258 15.7257 3.14269 -8.94742
425 1 17.2978 17.2978 4.71617 -8.94675
426 1 18.8693 15.7243 3.1447 -8.94993
427 1 20.4417 17.2968 4.71715 -8.94964
428 1 5.80949e-16 18.8691 3.14481 -8.9496
429 1 1.57241 20.4415 4.71726 -8.94967
430 1 3.1447 18.8692 3.1447 -8.94919
431 1 4.71715 20.4416 4.71716 -8.94968
432 1 6.28958 18.8693 3.14468 -8.94976
433 1 7.86206 20.4417 4.71714 -8.94974
434 1 9.43451 18.8693 3.14465 -8.94948
435 1 11.007 20.4417 4.71708 -8.94954
436 1 12.5794 18.8693 3.14465 -8.94948
437 1 14.1518 20.4417 4.71714 -8.94974
438 1 15.7243 18.8693 3.14468 -8.94976
439 1 17.2967 20.4416 4.71716 -8.94968
440 1 18.8692 18.8692 3.1447 -8.94919
441 1 20.4415 20.4415 4.71726 -8.94967
442 1 1.57198 11.007 7.86192 -8.94904
443 1 4.71616 11.007 7.86168 -8.94238
444 1 7.87245 11.007 7.86593 -8.93343
445 1 11.007 11.007 7.52838 -7.50104
446 1 14.1414 11.007 7.86593 -8.93343
447 1 17.2977 11.007 7.86168 -8.94238
448 1 20.4419 11.007 7.86192 -8.94904
449 1 1.2562e-16 12.5794 6.28959 -8.94985
450 1 1.57172 14.1519 7.86203 -8.95094
451 1 3.14372 12.5792 6.28934 -8.95035
452 1 4.71136 14.1535 7.86095 -8.95594
453 1 6.28361 12.5781 6.28828 -8.95736
454 1 7.82827 14.1819 7.83557 -8.86184
455 1 9.39904 12.6148 6.2652 -8.84387
456 1 11.007 14.1587 7.83702 -8.88046
457 1 12.6149 12.6148 6.2652 -8.84387
458 1 14.1856 14.1819 7.83557 -8.86184
459 1 15.7303 12.5781 6.28828 -8.95736
460 1 17.3025 14.1535 7.86095 -8.95594
461 1 18.8702 12.5792 6.28934 -8.95035
462 1 20.4422 14.1519 7.86203 -8.95094
463 1 8.91046e-16 15.7243 6.28961 -8.94999
464 1 1.57228 17.2967 7.86208 -8.94951
465 1 3.14363 15.7248 6.28917 -8.95023
466 1 4.71649 17.2974 7.86188 -8.94888
467 1 6.28274 15.731 6.28318 -8.93392
468 1 7.86082 17.3016 7.86148 -8.95655
469 1 9.43304 15.7324 6.28602 -8.95383
470 1 11.007 17.2992 7.86165 -8.94965
471 1 12.5809 15.7324 6.28602 -8.95383
472 1 14.1531 17.3016 7.86148 -8.95655
473 1 15.7312 15.731 6.28318 -8.93392
474 1 17.2974 17.2974 7.86188 -8.94888
475 1 18.8703 15.7248 6.28917 -8.95023
476 1 20.4416 17.2967 7.86208 -8.94951
477 1 1.46958e-15 18.8691 6.28968 -8.94961
478 1 1.57241 20.4415 7.86211 -8.94965
479 1 3.14474 18.8692 6.28966 -8.94968
480 1 4.71715 20.4416 7.86208 -8.94951
481 1 6.28919 18.8702 6.28925 -8.95053
482 1 7.862 20.4421 7.86205 -8.95071
483 1 9.43455 18.8705 6.28923 -8.95071
484 1 11.007 20.442 7.86197 -8.9497
485 1 12.5793 18.8705 6.28923 -8.95071
486 1 14.1519 20.4421 7.86205 -8.95071
487 1 15.7247 18.8702 6.28925 -8.95053
488 1 17.2968 20.4416 7.86208 -8.94951
489 1 18.8692 18.8692 6.28966 -8.94968
490 1 20.4415 20.4415 7.86211 -8.94965
491 1 9.71561e-16 12.5793 9.43453 -8.95023
492 1 3.14285 12.5792 9.43453 -8.95141
493 1 6.27962 12.5835 9.43453 -8.9713
494 1 9.35331 12.7914 9.43453 -8.05622
495 1 12.6606 12.7914 9.43453 -8.05622
496 1 15.7343 12.5835 9.43453 -8.9713
497 1 18.871 12.5792 9.43453 -8.95141
498 1 -6.70822e-17 15.7243 9.43453 -8.94978
534 1 4.71715 20.4416 11.007 -8.94951
538 1 17.2968 20.4416 11.007 -8.94951
389 1 15.7242 18.8691 -1.47645e-05 -8.94967
383 1 6.28969 18.8691 -1.47645e-05 -8.94967
355 1 6.28956 12.5794 -0.000169691 -8.94952
361 1 15.7243 12.5794 -0.000169691 -8.94952
512 1 1.57198 11.007 11.0071 -8.94904
513 1 4.71616 11.007 11.0074 -8.94238
514 1 7.87245 11.007 11.0031 -8.93343
515 1 11.007 11.007 11.3407 -7.50104
516 1 14.1414 11.007 11.0031 -8.93343
517 1 17.2977 11.007 11.0074 -8.94238
518 1 20.4419 11.007 11.0071 -8.94904
519 1 1.57172 14.1519 11.007 -8.95094
520 1 4.71136 14.1535 11.0081 -8.95594
521 1 7.82827 14.1819 11.0335 -8.86184
522 1 11.007 14.1587 11.032 -8.88046
523 1 14.1856 14.1819 11.0335 -8.86184
524 1 17.3025 14.1535 11.0081 -8.95594
525 1 20.4422 14.1519 11.007 -8.95094
686 1 20.4415 20.4415 20.4415 -8.94961
685 1 18.8691 18.8691 18.8691 -8.94955
528 1 7.86082 17.3016 11.0076 -8.95655
529 1 11.007 17.2992 11.0074 -8.94965
530 1 14.1531 17.3016 11.0076 -8.95655
684 1 17.2966 20.4415 20.4415 -8.94965
683 1 15.7242 18.8691 18.8691 -8.94967
533 1 1.57241 20.4415 11.007 -8.94965
391 1 18.8691 18.8691 22.0139 -8.94955
535 1 7.862 20.4421 11.007 -8.95071
536 1 11.007 20.442 11.0071 -8.9497
537 1 14.1519 20.4421 11.007 -8.95071
381 1 3.14481 18.8691 22.0139 -8.94955
539 1 20.4415 20.4415 11.007 -8.94965
540 1 1.57218 11.007 14.152 -8.94965
541 1 4.71578 11.007 14.153 -8.94751
542 1 7.8594 11.007 14.1546 -8.9442
543 1 11.007 11.007 14.1599 -9.02092
544 1 14.1545 11.007 14.1546 -8.9442
545 1 17.2981 11.007 14.153 -8.94751
546 1 20.4417 11.007 14.152 -8.94965
547 1 -1.85263e-16 12.5794 12.5795 -8.94985
548 1 1.57224 14.1518 14.1519 -8.94974
549 1 3.14372 12.5792 12.5797 -8.95035
550 1 4.71594 14.152 14.1525 -8.9513
551 1 6.28361 12.5781 12.5808 -8.95736
552 1 7.85437 14.1594 14.1624 -8.94132
553 1 9.39904 12.6148 12.6039 -8.84387
554 1 11.007 14.1547 14.158 -8.95249
555 1 12.6149 12.6148 12.6039 -8.84387
556 1 14.1595 14.1594 14.1624 -8.94132
557 1 15.7303 12.5781 12.5808 -8.95736
558 1 17.298 14.152 14.1525 -8.9513
559 1 18.8702 12.5792 12.5797 -8.95035
560 1 20.4417 14.1518 14.1519 -8.94974
561 1 7.85362e-16 15.7243 12.5795 -8.94999
562 1 1.57225 17.2968 14.1519 -8.94964
563 1 3.14363 15.7248 12.5799 -8.95023
564 1 4.71613 17.2978 14.1529 -8.94675
565 1 6.28274 15.731 12.5859 -8.93392
566 1 7.86158 17.2983 14.1528 -8.94994
567 1 9.43304 15.7324 12.583 -8.95383
568 1 11.007 17.298 14.1529 -8.94776
569 1 12.5809 15.7324 12.583 -8.95383
570 1 14.1523 17.2983 14.1528 -8.94994
571 1 15.7312 15.731 12.5859 -8.93392
572 1 17.2978 17.2978 14.1529 -8.94675
573 1 18.8703 15.7248 12.5799 -8.95023
574 1 20.4417 17.2968 14.1519 -8.94964
575 1 1.74025e-15 18.8691 12.5794 -8.94961
576 1 1.57241 20.4415 14.1518 -8.94967
577 1 3.14474 18.8692 12.5794 -8.94968
578 1 4.71715 20.4416 14.1519 -8.94968
579 1 6.28919 18.8702 12.5798 -8.95053
580 1 7.86206 20.4417 14.1519 -8.94974
581 1 9.43455 18.8705 12.5798 -8.95071
582 1 11.007 20.4417 14.152 -8.94954
583 1 12.5793 18.8705 12.5798 -8.95071
584 1 14.1518 20.4417 14.1519 -8.94974
585 1 15.7247 18.8702 12.5798 -8.95053
586 1 17.2967 20.4416 14.1519 -8.94968
587 1 18.8692 18.8692 12.5794 -8.94968
588 1 20.4415 20.4415 14.1518 -8.94967
589 1 1.5724 11.007 17.2967 -8.94965
590 1 4.71708 11.007 17.2969 -8.94965
591 1 7.86162 11.007 17.2976 -8.9489
592 1 11.007 11.007 17.2985 -8.95016
593 1 14.1523 11.007 17.2976 -8.9489
594 1 17.2968 11.007 17.2969 -8.94965
595 1 20.4415 11.007 17.2967 -8.94965
596 1 -7.81747e-16 12.5794 15.7243 -8.94962
597 1 1.5724 14.1518 17.2967 -8.9496
598 1 3.14461 12.5794 15.7244 -8.94936
599 1 4.71715 14.1518 17.2968 -8.94966
600 1 6.28891 12.5792 15.7251 -8.9488
601 1 7.86166 14.1522 17.2982 -8.95162
602 1 9.43333 12.5803 15.7288 -8.9539
603 1 11.007 14.1522 17.2978 -8.94998
604 1 12.5806 12.5803 15.7288 -8.9539
605 1 14.1522 14.1522 17.2982 -8.95162
606 1 15.725 12.5792 15.7251 -8.9488
607 1 17.2967 14.1518 17.2968 -8.94966
608 1 18.8693 12.5794 15.7244 -8.94936
609 1 20.4415 14.1518 17.2967 -8.9496
610 1 -1.98967e-17 15.7242 15.7242 -8.94967
611 1 1.5724 17.2966 17.2967 -8.94968
612 1 3.14463 15.7243 15.7244 -8.94993
613 1 4.71703 17.2969 17.297 -8.94915
614 1 6.28815 15.7257 15.7264 -8.94742
615 1 7.8621 17.2968 17.2968 -8.94962
616 1 9.43448 15.7252 15.7255 -8.9488
617 1 11.007 17.2968 17.2969 -8.94956
618 1 12.5794 15.7252 15.7255 -8.9488
619 1 14.1518 17.2968 17.2968 -8.94962
620 1 15.7258 15.7257 15.7264 -8.94742
621 1 17.2969 17.2969 17.297 -8.94915
622 1 18.8693 15.7243 15.7244 -8.94993
623 1 20.4415 17.2966 17.2967 -8.94968
624 1 1.25562e-15 18.8691 15.7242 -8.9496
625 1 1.57241 20.4415 17.2967 -8.94957
626 1 3.1447 18.8692 15.7244 -8.94919
627 1 4.71725 20.4415 17.2967 -8.94966
628 1 6.28958 18.8693 15.7244 -8.94976
629 1 7.8621 20.4415 17.2967 -8.94962
630 1 9.43451 18.8693 15.7244 -8.94948
631 1 11.007 20.4415 17.2967 -8.94965
632 1 12.5794 18.8693 15.7244 -8.94948
633 1 14.1518 20.4415 17.2967 -8.94962
634 1 15.7243 18.8693 15.7244 -8.94976
635 1 17.2967 20.4415 17.2967 -8.94966
636 1 18.8692 18.8692 15.7244 -8.94919
637 1 20.4415 20.4415 17.2967 -8.94957
638 1 1.57242 11.007 20.4415 -8.94964
639 1 4.71723 11.007 20.4415 -8.94965
640 1 7.86201 11.007 20.4415 -8.94975
641 1 11.007 11.007 20.4415 -8.94996
642 1 14.1519 11.007 20.4415 -8.94975
643 1 17.2967 11.007 20.4415 -8.94965
644 1 20.4415 11.007 20.4415 -8.94964
645 1 -3.08908e-16 12.5794 18.8691 -8.94964
646 1 1.57242 14.1518 20.4415 -8.94963
647 1 3.14482 12.5794 18.8691 -8.94964
648 1 4.71724 14.1518 20.4415 -8.9496
649 1 6.28956 12.5794 18.8692 -8.94952
650 1 7.86204 14.1519 20.4415 -8.9502
651 1 9.43445 12.5794 18.8697 -8.95046
652 1 11.007 14.1519 20.4415 -8.94991
653 1 12.5795 12.5794 18.8697 -8.95046
654 1 14.1519 14.1519 20.4415 -8.9502
655 1 15.7243 12.5794 18.8692 -8.94952
656 1 17.2967 14.1518 20.4415 -8.9496
657 1 18.8691 12.5794 18.8691 -8.94964
658 1 20.4415 14.1518 20.4415 -8.94963
659 1 -2.19968e-16 15.7242 18.8691 -8.94963
660 1 1.57242 17.2966 20.4415 -8.94965
661 1 3.14483 15.7242 18.8691 -8.94967
662 1 4.71722 17.2967 20.4415 -8.94965
663 1 6.28956 15.7243 18.8693 -8.94992
664 1 7.8621 17.2967 20.4415 -8.94961
665 1 9.43452 15.7243 18.8693 -8.94958
666 1 11.007 17.2967 20.4415 -8.94964
667 1 12.5794 15.7243 18.8693 -8.94958
668 1 14.1518 17.2967 20.4415 -8.94961
669 1 15.7243 15.7243 18.8693 -8.94992
670 1 17.2967 17.2967 20.4415 -8.94965
671 1 18.8691 15.7242 18.8691 -8.94967
672 1 20.4415 17.2966 20.4415 -8.94965
673 1 7.52905e-16 18.8691 18.8691 -8.94964
674 1 1.57242 20.4415 20.4415 -8.94961
675 1 3.14481 18.8691 18.8691 -8.94955
676 1 4.71727 20.4415 20.4415 -8.94965
677 1 6.28969 18.8691 18.8691 -8.94967
678 1 7.86211 20.4415 20.4415 -8.94964
679 1 9.43453 18.8691 18.8691 -8.94964
680 1 11.007 20.4415 20.4415 -8.94964
681 1 12.5794 18.8691 18.8691 -8.94964
682 1 14.1518 20.4415 20.4415 -8.94964
379 1 5.43417e-16 18.8691 22.0139 -8.94964
357 1 9.43445 12.5794 22.0133 -8.95046
359 1 12.5795 12.5794 22.0133 -8.95046
377 1 18.8691 15.7242 22.0139 -8.94967
365 1 -9.1946e-17 15.7242 22.0139 -8.94963
367 1 3.14483 15.7242 22.0139 -8.94967
369 1 6.28956 15.7243 22.0136 -8.94992
375 1 15.7243 15.7243 22.0136 -8.94992
351 1 -1.30648e-16 12.5794 22.0139 -8.94964
353 1 3.14482 12.5794 22.0139 -8.94964
363 1 18.8691 12.5794 22.0139 -8.94964
385 1 9.43453 18.8691 22.0139 -8.94964
387 1 12.5794 18.8691 22.0139 -8.94964
