ITEM: TIMESTEP
47
ITEM: NUMBER OF ATOMS
688
ITEM: BOX BOUNDS pp pp pp
0.0000000000000000e+00 2.2013900999999997e+01
0.0000000000000000e+00 2.2013900999999997e+01
0.0000000000000000e+00 2.2013900999999997e+01
ITEM: ATOMS id type x y z c_pot
189 1 20.4415 4.71726 11.007 -8.94963
2 1 1.57242 1.57242 1.57242 -8.94963
175 1 18.8693 9.43453 9.43453 -8.95083
4 1 4.71726 1.57242 1.57242 -8.94963
174 1 15.7293 9.43366 9.43453 -8.96431
6 1 7.86211 1.57242 1.57242 -8.94963
7 1 9.43453 6.38212e-16 -6.44052e-10 -8.94963
8 1 11.007 1.57242 1.57242 -8.94963
9 1 12.5794 6.0777e-16 -6.44053e-10 -8.94963
10 1 14.1518 1.57242 1.57242 -8.94963
173 1 12.6506 9.28126 9.43453 -8.00635
12 1 17.2966 1.57242 1.57242 -8.94963
172 1 9.36326 9.28126 9.43453 -8.00635
14 1 20.4415 1.57242 1.57242 -8.94963
171 1 6.28459 9.43366 9.43453 -8.96431
16 1 1.57242 4.71726 1.57242 -8.94963
170 1 3.14457 9.43453 9.43453 -8.95083
18 1 4.71726 4.71726 1.57242 -8.94961
169 1 1.72563e-16 9.43453 9.43453 -8.94976
20 1 7.86211 4.71727 1.57242 -8.94966
188 1 17.2966 4.71728 11.0069 -8.94985
22 1 11.007 4.71726 1.57242 -8.94965
184 1 4.71727 4.71728 11.0069 -8.94985
24 1 14.1518 4.71727 1.57242 -8.94966
168 1 18.8691 6.28968 9.43453 -8.94959
26 1 17.2966 4.71726 1.57242 -8.94961
167 1 15.7245 6.28941 9.43453 -8.95081
28 1 20.4415 4.71726 1.57242 -8.94963
166 1 12.5795 6.2834 9.43453 -8.97864
30 1 1.57242 7.86211 1.57242 -8.94963
165 1 9.43439 6.2834 9.43453 -8.97864
32 1 4.71727 7.86211 1.57242 -8.94966
164 1 6.28944 6.28941 9.43453 -8.95081
34 1 7.86208 7.86208 1.57236 -8.94979
35 1 9.43453 6.28969 2.64491e-07 -8.94963
36 1 11.007 7.86209 1.57239 -8.94963
37 1 12.5794 6.28969 2.64491e-07 -8.94963
38 1 14.1518 7.86208 1.57236 -8.94979
163 1 3.14482 6.28968 9.43453 -8.94959
40 1 17.2966 7.86211 1.57242 -8.94966
162 1 4.75275e-16 6.28969 9.43453 -8.94963
42 1 20.4415 7.86211 1.57242 -8.94963
183 1 1.57242 4.71726 11.007 -8.94963
157 1 6.28968 3.14482 9.43453 -8.94958
161 1 18.8691 3.14484 9.43453 -8.94965
160 1 15.7242 3.14482 9.43453 -8.94958
159 1 12.5794 3.14445 9.43453 -8.95125
158 1 9.43454 3.14445 9.43453 -8.95125
156 1 3.14484 3.14484 9.43453 -8.94965
50 1 1.42745e-16 5.94385e-16 3.14484 -8.94963
51 1 1.57242 1.57242 4.71726 -8.94963
52 1 3.14484 1.05571e-16 3.14484 -8.94963
53 1 4.71726 1.57242 4.71726 -8.94963
54 1 6.28969 9.24772e-16 3.14484 -8.94963
55 1 7.86211 1.57242 4.71726 -8.94964
56 1 9.43453 9.75401e-16 3.14484 -8.94963
57 1 11.007 1.57242 4.71726 -8.94964
58 1 12.5794 9.29597e-16 3.14484 -8.94963
59 1 14.1518 1.57242 4.71726 -8.94964
60 1 15.7242 1.01915e-15 3.14484 -8.94963
61 1 17.2966 1.57242 4.71726 -8.94963
62 1 18.8691 2.56978e-16 3.14484 -8.94963
63 1 20.4415 1.57242 4.71726 -8.94963
64 1 -1.90289e-16 3.14484 3.14484 -8.94963
65 1 1.57242 4.71726 4.71726 -8.94963
66 1 3.14484 3.14484 3.14484 -8.94962
67 1 4.71723 4.71723 4.71723 -8.94936
68 1 6.28969 3.14484 3.14484 -8.94966
69 1 7.8621 4.71724 4.71726 -8.94992
70 1 9.43453 3.14484 3.14484 -8.94964
71 1 11.007 4.71724 4.71724 -8.94965
72 1 12.5794 3.14484 3.14484 -8.94964
73 1 14.1518 4.71724 4.71726 -8.94992
74 1 15.7242 3.14484 3.14484 -8.94966
75 1 17.2967 4.71723 4.71723 -8.94936
76 1 18.8691 3.14484 3.14484 -8.94962
77 1 20.4415 4.71726 4.71726 -8.94963
78 1 -2.9129e-16 6.28969 3.14484 -8.94963
79 1 1.57242 7.86211 4.71726 -8.94964
80 1 3.14484 6.28969 3.14484 -8.94965
81 1 4.71723 7.86208 4.71725 -8.94985
82 1 6.28964 6.28964 3.14477 -8.94938
83 1 7.8613 7.8613 4.71607 -8.94675
84 1 9.43454 6.28968 3.14484 -8.94976
85 1 11.007 7.86188 4.71671 -8.95282
86 1 12.5794 6.28968 3.14484 -8.94976
87 1 14.1526 7.8613 4.71607 -8.94675
88 1 15.7243 6.28964 3.14477 -8.94938
89 1 17.2967 7.86208 4.71725 -8.94985
90 1 18.8691 6.28969 3.14484 -8.94965
91 1 20.4415 7.86211 4.71726 -8.94964
92 1 1.4033e-17 9.43453 3.14484 -8.94963
93 1 3.14484 9.43453 3.14484 -8.94965
94 1 6.28968 9.43454 3.14483 -8.94982
95 1 9.43431 9.43431 3.14416 -8.95116
96 1 12.5796 9.43431 3.14416 -8.95116
97 1 15.7242 9.43454 3.14483 -8.94982
98 1 18.8691 9.43453 3.14484 -8.94965
99 1 7.67149e-16 9.92929e-16 6.28969 -8.94963
100 1 1.57242 1.57242 7.86211 -8.94963
101 1 3.14484 5.8822e-16 6.28969 -8.94963
102 1 4.71727 1.57242 7.86211 -8.94963
103 1 6.28968 1.21005e-15 6.28968 -8.94964
104 1 7.8621 1.57239 7.8621 -8.94975
105 1 9.43453 -4.39004e-17 6.28968 -8.94964
106 1 11.007 1.57238 7.86209 -8.94967
107 1 12.5794 -1.48136e-16 6.28968 -8.94964
108 1 14.1518 1.57239 7.8621 -8.94975
109 1 15.7242 1.22391e-15 6.28968 -8.94964
110 1 17.2966 1.57242 7.86211 -8.94963
111 1 18.8691 7.24349e-16 6.28969 -8.94963
112 1 20.4415 1.57242 7.86211 -8.94963
113 1 4.81798e-16 3.14484 6.28969 -8.94963
114 1 1.57242 4.71726 7.86211 -8.94963
115 1 3.14484 3.14484 6.28969 -8.94966
116 1 4.71727 4.71728 7.86211 -8.94985
117 1 6.28966 3.1448 6.28966 -8.94965
118 1 7.86186 4.71662 7.86188 -8.95096
119 1 9.43452 3.1448 6.28967 -8.94968
120 1 11.007 4.71665 7.8617 -8.94814
121 1 12.5794 3.1448 6.28967 -8.94968
122 1 14.152 4.71662 7.86188 -8.95096
123 1 15.7242 3.1448 6.28966 -8.94965
124 1 17.2966 4.71728 7.86211 -8.94985
125 1 18.8691 3.14484 6.28969 -8.94966
126 1 20.4415 4.71726 7.86211 -8.94963
127 1 1.32971e-16 6.28969 6.28969 -8.94964
128 1 1.5724 7.8621 7.8621 -8.94976
129 1 3.1448 6.28967 6.28967 -8.94967
130 1 4.71667 7.86194 7.86195 -8.95122
131 1 6.28905 6.28905 6.28903 -8.94527
132 1 7.85236 7.85299 7.85291 -8.88885
133 1 9.43446 6.28891 6.28946 -8.95251
134 1 11.007 7.85893 7.85556 -8.91501
135 1 12.5794 6.28891 6.28946 -8.95251
136 1 14.1615 7.85299 7.85291 -8.88885
137 1 15.7249 6.28905 6.28903 -8.94527
138 1 17.2972 7.86194 7.86195 -8.95122
139 1 18.8691 6.28967 6.28967 -8.94967
140 1 20.4415 7.8621 7.8621 -8.94976
141 1 2.75245e-16 9.43453 6.28968 -8.94965
142 1 3.14479 9.43452 6.28967 -8.94974
143 1 6.28876 9.43439 6.28929 -8.95101
144 1 9.42278 9.4227 6.28054 -8.87572
145 1 12.5911 9.4227 6.28054 -8.87572
146 1 15.7251 9.43439 6.28929 -8.95101
147 1 18.8691 9.43452 6.28967 -8.94974
148 1 1.10322e-15 -1.68744e-16 9.43453 -8.94963
149 1 3.14484 7.79165e-16 9.43453 -8.94963
150 1 6.28969 6.54624e-16 9.43453 -8.94963
151 1 9.43453 -4.09264e-17 9.43453 -8.94983
152 1 12.5794 -2.13414e-16 9.43453 -8.94983
153 1 15.7242 8.75871e-16 9.43453 -8.94963
154 1 18.8691 7.76624e-16 9.43453 -8.94963
155 1 1.42288e-16 3.14484 9.43453 -8.94963
177 1 4.71727 1.57242 11.007 -8.94963
48 1 15.7242 9.43453 -2.86811e-07 -8.94963
181 1 17.2966 1.57242 11.007 -8.94963
19 1 6.28969 3.14484 1.97984e-07 -8.94963
45 1 6.28969 9.43453 -2.86811e-07 -8.94963
25 1 15.7242 3.14484 1.97984e-07 -8.94963
176 1 1.57242 1.57242 11.007 -8.94963
47 1 12.5794 9.43452 22.0139 -8.94976
178 1 7.8621 1.57239 11.007 -8.94975
179 1 11.007 1.57238 11.007 -8.94967
180 1 14.1518 1.57239 11.007 -8.94975
46 1 9.43452 9.43452 22.0139 -8.94976
182 1 20.4415 1.57242 11.007 -8.94963
343 1 18.8691 9.43453 18.8691 -8.94963
342 1 15.7242 9.43453 18.8691 -8.94963
185 1 7.86186 4.71662 11.0072 -8.95096
186 1 11.007 4.71665 11.0074 -8.94814
187 1 14.152 4.71662 11.0072 -8.95096
341 1 12.5794 9.43452 18.8691 -8.94976
340 1 9.43452 9.43452 18.8691 -8.94976
190 1 1.5724 7.8621 11.007 -8.94976
191 1 4.71667 7.86194 11.0071 -8.95122
192 1 7.85236 7.85299 11.0162 -8.88885
193 1 11.007 7.85893 11.0135 -8.91501
194 1 14.1615 7.85299 11.0162 -8.88885
195 1 17.2972 7.86194 11.0071 -8.95122
196 1 20.4415 7.8621 11.007 -8.94976
197 1 7.03258e-16 8.26532e-16 12.5794 -8.94963
198 1 1.57242 1.57242 14.1518 -8.94963
199 1 3.14484 5.51361e-16 12.5794 -8.94963
200 1 4.71726 1.57242 14.1518 -8.94963
201 1 6.28968 1.23089e-15 12.5794 -8.94964
202 1 7.86211 1.57242 14.1518 -8.94964
203 1 9.43453 -1.1682e-16 12.5794 -8.94964
204 1 11.007 1.57242 14.1518 -8.94964
205 1 12.5794 -1.40457e-16 12.5794 -8.94964
206 1 14.1518 1.57242 14.1518 -8.94964
207 1 15.7242 1.19512e-15 12.5794 -8.94964
208 1 17.2966 1.57242 14.1518 -8.94963
209 1 18.8691 1.0839e-15 12.5794 -8.94963
210 1 20.4415 1.57242 14.1518 -8.94963
211 1 5.26648e-16 3.14484 12.5794 -8.94963
212 1 1.57242 4.71726 14.1518 -8.94963
213 1 3.14484 3.14484 12.5794 -8.94966
214 1 4.71723 4.71723 14.1518 -8.94936
215 1 6.28966 3.1448 12.5794 -8.94965
216 1 7.8621 4.71724 14.1518 -8.94992
217 1 9.43452 3.1448 12.5794 -8.94968
218 1 11.007 4.71724 14.1518 -8.94965
219 1 12.5794 3.1448 12.5794 -8.94968
220 1 14.1518 4.71724 14.1518 -8.94992
221 1 15.7242 3.1448 12.5794 -8.94965
222 1 17.2967 4.71723 14.1518 -8.94936
223 1 18.8691 3.14484 12.5794 -8.94966
224 1 20.4415 4.71726 14.1518 -8.94963
225 1 3.23492e-16 6.28969 12.5794 -8.94964
226 1 1.57242 7.86211 14.1518 -8.94964
227 1 3.1448 6.28967 12.5794 -8.94967
228 1 4.71723 7.86208 14.1518 -8.94985
229 1 6.28905 6.28905 12.58 -8.94527
230 1 7.8613 7.8613 14.153 -8.94675
231 1 9.43446 6.28891 12.5796 -8.95251
232 1 11.007 7.86188 14.1524 -8.95282
233 1 12.5794 6.28891 12.5796 -8.95251
234 1 14.1526 7.8613 14.153 -8.94675
235 1 15.7249 6.28905 12.58 -8.94527
236 1 17.2967 7.86208 14.1518 -8.94985
237 1 18.8691 6.28967 12.5794 -8.94967
238 1 20.4415 7.86211 14.1518 -8.94964
239 1 1.24557e-16 9.43453 12.5794 -8.94965
240 1 3.14479 9.43452 12.5794 -8.94974
241 1 6.28876 9.43439 12.5798 -8.95101
242 1 9.42278 9.4227 12.5885 -8.87572
243 1 12.5911 9.4227 12.5885 -8.87572
244 1 15.7251 9.43439 12.5798 -8.95101
245 1 18.8691 9.43452 12.5794 -8.94974
246 1 1.6254e-16 5.48277e-16 15.7242 -8.94963
247 1 1.57242 1.57242 17.2966 -8.94963
248 1 3.14484 3.77311e-16 15.7242 -8.94963
249 1 4.71726 1.57242 17.2966 -8.94963
250 1 6.28969 9.35214e-16 15.7242 -8.94963
251 1 7.86211 1.57242 17.2966 -8.94963
252 1 9.43453 9.51884e-16 15.7242 -8.94963
253 1 11.007 1.57242 17.2966 -8.94963
254 1 12.5794 1.01097e-15 15.7242 -8.94963
255 1 14.1518 1.57242 17.2966 -8.94963
256 1 15.7242 7.984e-16 15.7242 -8.94963
257 1 17.2966 1.57242 17.2966 -8.94963
258 1 18.8691 3.88576e-16 15.7242 -8.94963
259 1 20.4415 1.57242 17.2966 -8.94963
260 1 -2.77902e-16 3.14484 15.7242 -8.94963
261 1 1.57242 4.71726 17.2966 -8.94963
262 1 3.14484 3.14484 15.7242 -8.94962
263 1 4.71726 4.71726 17.2966 -8.94961
264 1 6.28969 3.14484 15.7242 -8.94966
265 1 7.86211 4.71727 17.2966 -8.94966
266 1 9.43453 3.14484 15.7242 -8.94964
267 1 11.007 4.71726 17.2966 -8.94965
268 1 12.5794 3.14484 15.7242 -8.94964
269 1 14.1518 4.71727 17.2966 -8.94966
270 1 15.7242 3.14484 15.7242 -8.94966
271 1 17.2966 4.71726 17.2966 -8.94961
272 1 18.8691 3.14484 15.7242 -8.94962
273 1 20.4415 4.71726 17.2966 -8.94963
274 1 -5.10687e-16 6.28969 15.7242 -8.94963
275 1 1.57242 7.86211 17.2966 -8.94963
276 1 3.14484 6.28969 15.7242 -8.94965
277 1 4.71727 7.86211 17.2966 -8.94966
278 1 6.28964 6.28964 15.7243 -8.94938
279 1 7.86208 7.86208 17.2967 -8.94979
280 1 9.43454 6.28968 15.7242 -8.94976
281 1 11.007 7.86209 17.2967 -8.94963
282 1 12.5794 6.28968 15.7242 -8.94976
283 1 14.1518 7.86208 17.2967 -8.94979
284 1 15.7243 6.28964 15.7243 -8.94938
285 1 17.2966 7.86211 17.2966 -8.94966
286 1 18.8691 6.28969 15.7242 -8.94965
287 1 20.4415 7.86211 17.2966 -8.94963
288 1 6.19396e-17 9.43453 15.7242 -8.94963
289 1 3.14484 9.43453 15.7242 -8.94965
290 1 6.28968 9.43454 15.7242 -8.94982
291 1 9.43431 9.43431 15.7249 -8.95116
292 1 12.5796 9.43431 15.7249 -8.95116
293 1 15.7242 9.43454 15.7242 -8.94982
294 1 18.8691 9.43453 15.7242 -8.94965
295 1 9.30357e-16 -1.44904e-16 18.8691 -8.94963
296 1 1.57242 1.57242 20.4415 -8.94963
297 1 3.14484 2.69848e-16 18.8691 -8.94963
298 1 4.71726 1.57242 20.4415 -8.94963
299 1 6.28969 1.60156e-15 18.8691 -8.94963
300 1 7.86211 1.57242 20.4415 -8.94963
301 1 9.43453 6.38421e-16 18.8691 -8.94963
302 1 11.007 1.57242 20.4415 -8.94963
303 1 12.5794 6.19513e-16 18.8691 -8.94963
304 1 14.1518 1.57242 20.4415 -8.94963
305 1 15.7242 1.66807e-15 18.8691 -8.94963
306 1 17.2966 1.57242 20.4415 -8.94963
307 1 18.8691 5.68995e-16 18.8691 -8.94963
308 1 20.4415 1.57242 20.4415 -8.94963
309 1 5.90735e-16 3.14484 18.8691 -8.94963
310 1 1.57242 4.71726 20.4415 -8.94963
311 1 3.14484 3.14484 18.8691 -8.94963
312 1 4.71726 4.71726 20.4415 -8.94963
313 1 6.28969 3.14484 18.8691 -8.94963
314 1 7.86211 4.71726 20.4415 -8.94963
315 1 9.43453 3.14484 18.8691 -8.94963
316 1 11.007 4.71726 20.4415 -8.94963
317 1 12.5794 3.14484 18.8691 -8.94963
318 1 14.1518 4.71726 20.4415 -8.94963
319 1 15.7242 3.14484 18.8691 -8.94963
320 1 17.2966 4.71726 20.4415 -8.94963
321 1 18.8691 3.14484 18.8691 -8.94963
322 1 20.4415 4.71726 20.4415 -8.94963
323 1 -9.30228e-16 6.28969 18.8691 -8.94963
324 1 1.57242 7.86211 20.4415 -8.94963
325 1 3.14484 6.28969 18.8691 -8.94963
326 1 4.71726 7.86211 20.4415 -8.94963
327 1 6.28968 6.28968 18.8691 -8.94963
328 1 7.86211 7.86211 20.4415 -8.94965
329 1 9.43453 6.28969 18.8691 -8.94963
330 1 11.007 7.86211 20.4415 -8.94964
331 1 12.5794 6.28969 18.8691 -8.94963
332 1 14.1518 7.86211 20.4415 -8.94965
333 1 15.7242 6.28968 18.8691 -8.94963
334 1 17.2966 7.86211 20.4415 -8.94963
335 1 18.8691 6.28969 18.8691 -8.94963
336 1 20.4415 7.86211 20.4415 -8.94963
337 1 -1.80457e-16 9.43453 18.8691 -8.94963
338 1 3.14484 9.43453 18.8691 -8.94963
339 1 6.28969 9.43453 18.8691 -8.94963
3 1 3.14484 1.40965e-16 22.0139 -8.94963
5 1 6.28969 1.32257e-15 22.0139 -8.94963
11 1 15.7242 1.46469e-15 22.0139 -8.94963
13 1 18.8691 5.35916e-16 22.0139 -8.94963
15 1 6.14355e-16 3.14484 22.0139 -8.94963
17 1 3.14484 3.14484 22.0139 -8.94963
41 1 18.8691 6.28969 22.0139 -8.94963
39 1 15.7242 6.28968 22.0139 -8.94963
27 1 18.8691 3.14484 22.0139 -8.94963
29 1 -7.76698e-16 6.28969 22.0139 -8.94963
31 1 3.14484 6.28969 22.0139 -8.94963
33 1 6.28968 6.28968 22.0139 -8.94963
1 1 7.78471e-16 -1.71865e-16 22.0139 -8.94963
21 1 9.43453 3.14484 22.0139 -8.94963
23 1 12.5794 3.14484 22.0139 -8.94963
43 1 -2.44092e-16 9.43453 22.0139 -8.94963
44 1 3.14484 9.43453 22.0139 -8.94963
49 1 18.8691 9.43453 22.0139 -8.94963
344 1 1.57242 11.007 1.57242 -8.94963
345 1 4.71726 11.007 1.57242 -8.94964
346 1 7.86209 11.007 1.57238 -8.9496
347 1 11.007 11.007 1.57205 -8.95054
348 1 14.1518 11.007 1.57238 -8.9496
349 1 17.2966 11.007 1.57242 -8.94964
350 1 20.4415 11.007 1.57242 -8.94963
532 1 20.4415 17.2966 11.007 -8.94963
352 1 1.57242 14.1518 1.57242 -8.94963
531 1 17.2966 17.2966 11.0069 -8.94985
354 1 4.71727 14.1518 1.57242 -8.94966
688 3 10.2313 11.007 9.43453 2.70921
356 1 7.86208 14.1518 1.57236 -8.94979
687 3 11.7826 11.007 9.43453 2.70921
358 1 11.007 14.1518 1.57239 -8.94963
511 1 18.8691 18.8691 9.43453 -8.94965
360 1 14.1518 14.1518 1.57236 -8.94979
510 1 15.7242 18.8691 9.43453 -8.94958
362 1 17.2966 14.1518 1.57242 -8.94966
527 1 4.71727 17.2966 11.0069 -8.94985
364 1 20.4415 14.1518 1.57242 -8.94963
509 1 12.5794 18.8694 9.43453 -8.95125
366 1 1.57242 17.2966 1.57242 -8.94963
508 1 9.43454 18.8694 9.43453 -8.95125
368 1 4.71726 17.2966 1.57242 -8.94961
507 1 6.28968 18.8691 9.43453 -8.94958
370 1 7.86211 17.2966 1.57242 -8.94966
371 1 9.43453 15.7242 2.64491e-07 -8.94963
372 1 11.007 17.2966 1.57242 -8.94965
373 1 12.5794 15.7242 2.64491e-07 -8.94963
374 1 14.1518 17.2966 1.57242 -8.94966
506 1 3.14484 18.8691 9.43453 -8.94965
376 1 17.2966 17.2966 1.57242 -8.94961
505 1 4.09558e-16 18.8691 9.43453 -8.94963
378 1 20.4415 17.2966 1.57242 -8.94963
504 1 18.8691 15.7242 9.43453 -8.94959
380 1 1.57242 20.4415 1.57242 -8.94963
503 1 15.7245 15.7245 9.43453 -8.95081
382 1 4.71726 20.4415 1.57242 -8.94963
502 1 12.5795 15.7305 9.43453 -8.97864
384 1 7.86211 20.4415 1.57242 -8.94963
526 1 1.57242 17.2966 11.007 -8.94963
386 1 11.007 20.4415 1.57242 -8.94963
499 1 3.14482 15.7242 9.43453 -8.94959
388 1 14.1518 20.4415 1.57242 -8.94963
501 1 9.43439 15.7305 9.43453 -8.97864
390 1 17.2966 20.4415 1.57242 -8.94963
500 1 6.28944 15.7245 9.43453 -8.95081
392 1 20.4415 20.4415 1.57242 -8.94963
393 1 1.57242 11.007 4.71726 -8.94963
394 1 4.71724 11.007 4.71724 -8.94949
395 1 7.86187 11.007 4.71681 -8.95204
396 1 11.007 11.007 4.71327 -8.99852
397 1 14.152 11.007 4.71681 -8.95204
398 1 17.2967 11.007 4.71724 -8.94949
399 1 20.4415 11.007 4.71726 -8.94963
400 1 7.23649e-17 12.5794 3.14484 -8.94963
401 1 1.57242 14.1518 4.71726 -8.94964
402 1 3.14484 12.5794 3.14484 -8.94965
403 1 4.71723 14.1518 4.71725 -8.94985
404 1 6.28968 12.5794 3.14483 -8.94982
405 1 7.8613 14.1526 4.71607 -8.94675
406 1 9.43431 12.5796 3.14416 -8.95116
407 1 11.007 14.152 4.71671 -8.95282
408 1 12.5796 12.5796 3.14416 -8.95116
409 1 14.1526 14.1526 4.71607 -8.94675
410 1 15.7242 12.5794 3.14483 -8.94982
411 1 17.2967 14.1518 4.71725 -8.94985
412 1 18.8691 12.5794 3.14484 -8.94965
413 1 20.4415 14.1518 4.71726 -8.94964
414 1 -3.62154e-16 15.7242 3.14484 -8.94963
415 1 1.57242 17.2966 4.71726 -8.94963
416 1 3.14484 15.7242 3.14484 -8.94965
417 1 4.71723 17.2967 4.71723 -8.94936
418 1 6.28964 15.7243 3.14477 -8.94938
419 1 7.8621 17.2967 4.71726 -8.94992
420 1 9.43454 15.7242 3.14484 -8.94976
421 1 11.007 17.2967 4.71724 -8.94965
422 1 12.5794 15.7242 3.14484 -8.94976
423 1 14.1518 17.2967 4.71726 -8.94992
424 1 15.7243 15.7243 3.14477 -8.94938
425 1 17.2967 17.2967 4.71723 -8.94936
426 1 18.8691 15.7242 3.14484 -8.94965
427 1 20.4415 17.2966 4.71726 -8.94963
428 1 -1.35729e-16 18.8691 3.14484 -8.94963
429 1 1.57242 20.4415 4.71726 -8.94963
430 1 3.14484 18.8691 3.14484 -8.94962
431 1 4.71726 20.4415 4.71726 -8.94963
432 1 6.28969 18.8691 3.14484 -8.94966
433 1 7.86211 20.4415 4.71726 -8.94964
434 1 9.43453 18.8691 3.14484 -8.94964
435 1 11.007 20.4415 4.71726 -8.94964
436 1 12.5794 18.8691 3.14484 -8.94964
437 1 14.1518 20.4415 4.71726 -8.94964
438 1 15.7242 18.8691 3.14484 -8.94966
439 1 17.2966 20.4415 4.71726 -8.94963
440 1 18.8691 18.8691 3.14484 -8.94962
441 1 20.4415 20.4415 4.71726 -8.94963
442 1 1.57239 11.007 7.8621 -8.94971
443 1 4.71668 11.007 7.86189 -8.94932
444 1 7.85751 11.007 7.85897 -8.93146
445 1 11.007 11.007 7.60375 -7.4058
446 1 14.1564 11.007 7.85897 -8.93146
447 1 17.2972 11.007 7.86189 -8.94932
448 1 20.4415 11.007 7.8621 -8.94971
449 1 3.21663e-16 12.5794 6.28968 -8.94965
450 1 1.5724 14.1518 7.8621 -8.94976
451 1 3.14479 12.5794 6.28967 -8.94974
452 1 4.71667 14.152 7.86195 -8.95122
453 1 6.28876 12.5795 6.28929 -8.95101
454 1 7.85236 14.1609 7.85291 -8.88885
455 1 9.42278 12.5912 6.28054 -8.87572
456 1 11.007 14.155 7.85556 -8.91501
457 1 12.5911 12.5912 6.28054 -8.87572
458 1 14.1615 14.1609 7.85291 -8.88885
459 1 15.7251 12.5795 6.28929 -8.95101
460 1 17.2972 14.152 7.86195 -8.95122
461 1 18.8691 12.5794 6.28967 -8.94974
462 1 20.4415 14.1518 7.8621 -8.94976
463 1 3.03951e-16 15.7242 6.28969 -8.94964
464 1 1.57242 17.2966 7.86211 -8.94963
465 1 3.1448 15.7242 6.28967 -8.94967
466 1 4.71727 17.2966 7.86211 -8.94985
467 1 6.28905 15.7249 6.28903 -8.94527
468 1 7.86186 17.2973 7.86188 -8.95096
469 1 9.43446 15.725 6.28946 -8.95251
470 1 11.007 17.2972 7.8617 -8.94814
471 1 12.5794 15.725 6.28946 -8.95251
472 1 14.152 17.2973 7.86188 -8.95096
473 1 15.7249 15.7249 6.28903 -8.94527
474 1 17.2966 17.2966 7.86211 -8.94985
475 1 18.8691 15.7242 6.28967 -8.94967
476 1 20.4415 17.2966 7.86211 -8.94963
477 1 5.19074e-16 18.8691 6.28969 -8.94963
478 1 1.57242 20.4415 7.86211 -8.94963
479 1 3.14484 18.8691 6.28969 -8.94966
480 1 4.71727 20.4415 7.86211 -8.94963
481 1 6.28966 18.8691 6.28966 -8.94965
482 1 7.8621 20.4415 7.8621 -8.94975
483 1 9.43452 18.8691 6.28967 -8.94968
484 1 11.007 20.4415 7.86209 -8.94967
485 1 12.5794 18.8691 6.28967 -8.94968
486 1 14.1518 20.4415 7.8621 -8.94975
487 1 15.7242 18.8691 6.28966 -8.94965
488 1 17.2966 20.4415 7.86211 -8.94963
489 1 18.8691 18.8691 6.28969 -8.94966
490 1 20.4415 20.4415 7.86211 -8.94963
491 1 1.7137e-16 12.5794 9.43453 -8.94976
492 1 3.14457 12.5794 9.43453 -8.95083
493 1 6.28459 12.5802 9.43453 -8.96431
494 1 9.36326 12.7326 9.43453 -8.00635
495 1 12.6506 12.7326 9.43453 -8.00635
496 1 15.7293 12.5802 9.43453 -8.96431
497 1 18.8693 12.5794 9.43453 -8.95083
498 1 2.23792e-16 15.7242 9.43453 -8.94963
534 1 4.71727 20.4415 11.007 -8.94963
538 1 17.2966 20.4415 11.007 -8.94963
389 1 15.7242 18.8691 1.97984e-07 -8.94963
383 1 6.28969 18.8691 1.97984e-07 -8.94963
355 1 6.28969 12.5794 -2.86811e-07 -8.94963
361 1 15.7242 12.5794 -2.86811e-07 -8.94963
512 1 1.57239 11.007 11.007 -8.94971
513 1 4.71668 11.007 11.0072 -8.94932
514 1 7.85751 11.007 11.0101 -8.93146
515 1 11.007 11.007 11.2653 -7.4058
516 1 14.1564 11.007 11.0101 -8.93146
517 1 17.2972 11.007 11.0072 -8.94932
518 1 20.4415 11.007 11.007 -8.94971
519 1 1.5724 14.1518 11.007 -8.94976
520 1 4.71667 14.152 11.0071 -8.95122
521 1 7.85236 14.1609 11.0162 -8.88885
522 1 11.007 14.155 11.0135 -8.91501
523 1 14.1615 14.1609 11.0162 -8.88885
524 1 17.2972 14.152 11.0071 -8.95122
525 1 20.4415 14.1518 11.007 -8.94976
686 1 20.4415 20.4415 20.4415 -8.94963
685 1 18.8691 18.8691 18.8691 -8.94963
528 1 7.86186 17.2973 11.0072 -8.95096
529 1 11.007 17.2972 11.0074 -8.94814
530 1 14.152 17.2973 11.0072 -8.95096
684 1 17.2966 20.4415 20.4415 -8.94963
683 1 15.7242 18.8691 18.8691 -8.94963
533 1 1.57242 20.4415 11.007 -8.94963
391 1 18.8691 18.8691 22.0139 -8.94963
535 1 7.8621 20.4415 11.007 -8.94975
536 1 11.007 20.4415 11.007 -8.94967
537 1 14.1518 20.4415 11.007 -8.94975
381 1 3.14484 18.8691 22.0139 -8.94963
539 1 20.4415 20.4415 11.007 -8.94963
540 1 1.57242 11.007 14.1518 -8.94963
541 1 4.71724 11.007 14.1518 -8.94949
542 1 7.86187 11.007 14.1523 -8.95204
543 1 11.007 11.007 14.1558 -8.99852
544 1 14.152 11.007 14.1523 -8.95204
545 1 17.2967 11.007 14.1518 -8.94949
546 1 20.4415 11.007 14.1518 -8.94963
547 1 -1.59977e-18 12.5794 12.5794 -8.94965
548 1 1.57242 14.1518 14.1518 -8.94964
549 1 3.14479 12.5794 12.5794 -8.94974
550 1 4.71723 14.1518 14.1518 -8.94985
551 1 6.28876 12.5795 12.5798 -8.95101
552 1 7.8613 14.1526 14.153 -8.94675
553 1 9.42278 12.5912 12.5885 -8.87572
554 1 11.007 14.152 14.1524 -8.95282
555 1 12.5911 12.5912 12.5885 -8.87572
556 1 14.1526 14.1526 14.153 -8.94675
557 1 15.7251 12.5795 12.5798 -8.95101
558 1 17.2967 14.1518 14.1518 -8.94985
559 1 18.8691 12.5794 12.5794 -8.94974
560 1 20.4415 14.1518 14.1518 -8.94964
561 1 4.10997e-16 15.7242 12.5794 -8.94964
562 1 1.57242 17.2966 14.1518 -8.94963
563 1 3.1448 15.7242 12.5794 -8.94967
564 1 4.71723 17.2967 14.1518 -8.94936
565 1 6.28905 15.7249 12.58 -8.94527
566 1 7.8621 17.2967 14.1518 -8.94992
567 1 9.43446 15.725 12.5796 -8.95251
568 1 11.007 17.2967 14.1518 -8.94965
569 1 12.5794 15.725 12.5796 -8.95251
570 1 14.1518 17.2967 14.1518 -8.94992
571 1 15.7249 15.7249 12.58 -8.94527
572 1 17.2967 17.2967 14.1518 -8.94936
573 1 18.8691 15.7242 12.5794 -8.94967
574 1 20.4415 17.2966 14.1518 -8.94963
575 1 5.66903e-16 18.8691 12.5794 -8.94963
576 1 1.57242 20.4415 14.1518 -8.94963
577 1 3.14484 18.8691 12.5794 -8.94966
578 1 4.71726 20.4415 14.1518 -8.94963
579 1 6.28966 18.8691 12.5794 -8.94965
580 1 7.86211 20.4415 14.1518 -8.94964
581 1 9.43452 18.8691 12.5794 -8.94968
582 1 11.007 20.4415 14.1518 -8.94964
583 1 12.5794 18.8691 12.5794 -8.94968
584 1 14.1518 20.4415 14.1518 -8.94964
585 1 15.7242 18.8691 12.5794 -8.94965
586 1 17.2966 20.4415 14.1518 -8.94963
587 1 18.8691 18.8691 12.5794 -8.94966
588 1 20.4415 20.4415 14.1518 -8.94963
589 1 1.57242 11.007 17.2966 -8.94963
590 1 4.71726 11.007 17.2966 -8.94964
591 1 7.86209 11.007 17.2967 -8.9496
592 1 11.007 11.007 17.297 -8.95054
593 1 14.1518 11.007 17.2967 -8.9496
594 1 17.2966 11.007 17.2966 -8.94964
595 1 20.4415 11.007 17.2966 -8.94963
596 1 4.61512e-17 12.5794 15.7242 -8.94963
597 1 1.57242 14.1518 17.2966 -8.94963
598 1 3.14484 12.5794 15.7242 -8.94965
599 1 4.71727 14.1518 17.2966 -8.94966
600 1 6.28968 12.5794 15.7242 -8.94982
601 1 7.86208 14.1518 17.2967 -8.94979
602 1 9.43431 12.5796 15.7249 -8.95116
603 1 11.007 14.1518 17.2967 -8.94963
604 1 12.5796 12.5796 15.7249 -8.95116
605 1 14.1518 14.1518 17.2967 -8.94979
606 1 15.7242 12.5794 15.7242 -8.94982
607 1 17.2966 14.1518 17.2966 -8.94966
608 1 18.8691 12.5794 15.7242 -8.94965
609 1 20.4415 14.1518 17.2966 -8.94963
610 1 -4.86087e-16 15.7242 15.7242 -8.94963
611 1 1.57242 17.2966 17.2966 -8.94963
612 1 3.14484 15.7242 15.7242 -8.94965
613 1 4.71726 17.2966 17.2966 -8.94961
614 1 6.28964 15.7243 15.7243 -8.94938
615 1 7.86211 17.2966 17.2966 -8.94966
616 1 9.43454 15.7242 15.7242 -8.94976
617 1 11.007 17.2966 17.2966 -8.94965
618 1 12.5794 15.7242 15.7242 -8.94976
619 1 14.1518 17.2966 17.2966 -8.94966
620 1 15.7243 15.7243 15.7243 -8.94938
621 1 17.2966 17.2966 17.2966 -8.94961
622 1 18.8691 15.7242 15.7242 -8.94965
623 1 20.4415 17.2966 17.2966 -8.94963
624 1 -1.17781e-16 18.8691 15.7242 -8.94963
625 1 1.57242 20.4415 17.2966 -8.94963
626 1 3.14484 18.8691 15.7242 -8.94962
627 1 4.71726 20.4415 17.2966 -8.94963
628 1 6.28969 18.8691 15.7242 -8.94966
629 1 7.86211 20.4415 17.2966 -8.94963
630 1 9.43453 18.8691 15.7242 -8.94964
631 1 11.007 20.4415 17.2966 -8.94963
632 1 12.5794 18.8691 15.7242 -8.94964
633 1 14.1518 20.4415 17.2966 -8.94963
634 1 15.7242 18.8691 15.7242 -8.94966
635 1 17.2966 20.4415 17.2966 -8.94963
636 1 18.8691 18.8691 15.7242 -8.94962
637 1 20.4415 20.4415 17.2966 -8.94963
638 1 1.57242 11.007 20.4415 -8.94963
639 1 4.71726 11.007 20.4415 -8.94963
640 1 7.86211 11.007 20.4415 -8.94964
641 1 11.007 11.007 20.4415 -8.94981
642 1 14.1518 11.007 20.4415 -8.94964
643 1 17.2966 11.007 20.4415 -8.94963
644 1 20.4415 11.007 20.4415 -8.94963
645 1 -2.85899e-16 12.5794 18.8691 -8.94963
646 1 1.57242 14.1518 20.4415 -8.94963
647 1 3.14484 12.5794 18.8691 -8.94963
648 1 4.71726 14.1518 20.4415 -8.94963
649 1 6.28969 12.5794 18.8691 -8.94963
650 1 7.86211 14.1518 20.4415 -8.94965
651 1 9.43452 12.5794 18.8691 -8.94976
652 1 11.007 14.1518 20.4415 -8.94964
653 1 12.5794 12.5794 18.8691 -8.94976
654 1 14.1518 14.1518 20.4415 -8.94965
655 1 15.7242 12.5794 18.8691 -8.94963
656 1 17.2966 14.1518 20.4415 -8.94963
657 1 18.8691 12.5794 18.8691 -8.94963
658 1 20.4415 14.1518 20.4415 -8.94963
659 1 -9.73128e-16 15.7242 18.8691 -8.94963
660 1 1.57242 17.2966 20.4415 -8.94963
661 1 3.14484 15.7242 18.8691 -8.94963
662 1 4.71726 17.2966 20.4415 -8.94963
663 1 6.28968 15.7242 18.8691 -8.94963
664 1 7.86211 17.2966 20.4415 -8.94963
665 1 9.43453 15.7242 18.8691 -8.94963
666 1 11.007 17.2966 20.4415 -8.94963
667 1 12.5794 15.7242 18.8691 -8.94963
668 1 14.1518 17.2966 20.4415 -8.94963
669 1 15.7242 15.7242 18.8691 -8.94963
670 1 17.2966 17.2966 20.4415 -8.94963
671 1 18.8691 15.7242 18.8691 -8.94963
672 1 20.4415 17.2966 20.4415 -8.94963
673 1 1.97892e-16 18.8691 18.8691 -8.94963
674 1 1.57242 20.4415 20.4415 -8.94963
675 1 3.14484 18.8691 18.8691 -8.94963
676 1 4.71726 20.4415 20.4415 -8.94963
677 1 6.28969 18.8691 18.8691 -8.94963
678 1 7.86211 20.4415 20.4415 -8.94963
679 1 9.43453 18.8691 18.8691 -8.94963
680 1 11.007 20.4415 20.4415 -8.94963
681 1 12.5794 18.8691 18.8691 -8.94963
682 1 14.1518 20.4415 20.4415 -8.94963
379 1 2.87386e-16 18.8691 22.0139 -8.94963
357 1 9.43452 12.5794 22.0139 -8.94976
359 1 12.5794 12.5794 22.0139 -8.94976
377 1 18.8691 15.7242 22.0139 -8.94963
365 1 -7.80996e-16 15.7242 22.0139 -8.94963
367 1 3.14484 15.7242 22.0139 -8.94963
369 1 6.28968 15.7242 22.0139 -8.94963
375 1 15.7242 15.7242 22.0139 -8.94963
351 1 -2.49422e-16 12.5794 22.0139 -8.94963
353 1 3.14484 12.5794 22.0139 -8.94963
363 1 18.8691 12.5794 22.0139 -8.94963
385 1 9.43453 18.8691 22.0139 -8.94963
387 1 12.5794 18.8691 22.0139 -8.94963
