ITEM: TIMESTEP
32
ITEM: NUMBER OF ATOMS
688
ITEM: BOX BOUNDS pp pp pp
0.0000000000000000e+00 2.2013900999999997e+01
0.0000000000000000e+00 2.2013900999999997e+01
0.0000000000000000e+00 2.2013900999999997e+01
ITEM: ATOMS id type x y z c_pot
189 1 20.4415 4.71726 11.007 -8.94963
2 1 1.57242 1.57242 1.57242 -8.94963
175 1 18.8691 9.43453 9.43453 -8.94979
4 1 4.71726 1.57242 1.57242 -8.94963
174 1 15.7248 9.43444 9.43453 -8.95685
6 1 7.86211 1.57242 1.57242 -8.94963
7 1 9.43453 2.49786e-16 6.17043e-11 -8.94963
8 1 11.007 1.57242 1.57242 -8.94963
9 1 12.5794 2.44789e-16 6.17042e-11 -8.94963
10 1 14.1518 1.57242 1.57242 -8.94963
173 1 12.6135 9.36802 9.43453 -7.87751
12 1 17.2966 1.57242 1.57242 -8.94963
172 1 9.40039 9.36802 9.43453 -7.87751
14 1 20.4415 1.57242 1.57242 -8.94963
171 1 6.28906 9.43444 9.43453 -8.95685
16 1 1.57242 4.71726 1.57242 -8.94963
170 1 3.14483 9.43453 9.43453 -8.94979
18 1 4.71726 4.71726 1.57242 -8.94963
169 1 -3.50002e-18 9.43453 9.43453 -8.94964
20 1 7.86211 4.71726 1.57242 -8.94963
188 1 17.2966 4.71727 11.007 -8.94967
22 1 11.007 4.71726 1.57242 -8.94963
184 1 4.71727 4.71727 11.007 -8.94967
24 1 14.1518 4.71726 1.57242 -8.94963
168 1 18.8691 6.28969 9.43453 -8.94963
26 1 17.2966 4.71726 1.57242 -8.94963
167 1 15.7242 6.28972 9.43453 -8.95111
28 1 20.4415 4.71726 1.57242 -8.94963
166 1 12.5794 6.28847 9.43453 -8.96351
30 1 1.57242 7.86211 1.57242 -8.94963
165 1 9.43453 6.28847 9.43453 -8.96351
32 1 4.71726 7.86211 1.57242 -8.94963
164 1 6.28972 6.28972 9.43453 -8.95111
34 1 7.86211 7.86211 1.57242 -8.94963
35 1 9.43453 6.28969 3.10246e-08 -8.94963
36 1 11.007 7.86211 1.57242 -8.94964
37 1 12.5794 6.28969 3.10246e-08 -8.94963
38 1 14.1518 7.86211 1.57242 -8.94963
163 1 3.14484 6.28969 9.43453 -8.94963
40 1 17.2966 7.86211 1.57242 -8.94963
162 1 1.05883e-16 6.28969 9.43453 -8.94963
42 1 20.4415 7.86211 1.57242 -8.94963
183 1 1.57242 4.71726 11.007 -8.94963
157 1 6.28969 3.14484 9.43453 -8.94963
161 1 18.8691 3.14484 9.43453 -8.94963
160 1 15.7242 3.14484 9.43453 -8.94963
159 1 12.5794 3.14483 9.43453 -8.94996
158 1 9.43453 3.14483 9.43453 -8.94996
156 1 3.14484 3.14484 9.43453 -8.94963
50 1 2.29025e-16 2.19184e-19 3.14484 -8.94963
51 1 1.57242 1.57242 4.71726 -8.94963
52 1 3.14484 5.74377e-17 3.14484 -8.94963
53 1 4.71726 1.57242 4.71726 -8.94963
54 1 6.28969 3.00776e-16 3.14484 -8.94963
55 1 7.86211 1.57242 4.71726 -8.94963
56 1 9.43453 3.19242e-16 3.14484 -8.94963
57 1 11.007 1.57242 4.71726 -8.94963
58 1 12.5794 3.18891e-16 3.14484 -8.94963
59 1 14.1518 1.57242 4.71726 -8.94963
60 1 15.7242 3.21538e-16 3.14484 -8.94963
61 1 17.2966 1.57242 4.71726 -8.94963
62 1 18.8691 4.02598e-17 3.14484 -8.94963
63 1 20.4415 1.57242 4.71726 -8.94963
64 1 4.6993e-17 3.14484 3.14484 -8.94963
65 1 1.57242 4.71726 4.71726 -8.94963
66 1 3.14484 3.14484 3.14484 -8.94963
67 1 4.71726 4.71726 4.71726 -8.94962
68 1 6.28969 3.14484 3.14484 -8.94963
69 1 7.86211 4.71727 4.71727 -8.94967
70 1 9.43453 3.14484 3.14484 -8.94963
71 1 11.007 4.71727 4.71727 -8.94965
72 1 12.5794 3.14484 3.14484 -8.94963
73 1 14.1518 4.71727 4.71727 -8.94967
74 1 15.7242 3.14484 3.14484 -8.94963
75 1 17.2966 4.71726 4.71726 -8.94962
76 1 18.8691 3.14484 3.14484 -8.94963
77 1 20.4415 4.71726 4.71726 -8.94963
78 1 5.09435e-17 6.28969 3.14484 -8.94963
79 1 1.57242 7.86211 4.71726 -8.94963
80 1 3.14484 6.28969 3.14484 -8.94963
81 1 4.71726 7.86211 4.71726 -8.94965
82 1 6.28969 6.28969 3.14484 -8.94962
83 1 7.86208 7.86208 4.71723 -8.94934
84 1 9.43453 6.28969 3.14484 -8.94967
85 1 11.007 7.86215 4.71729 -8.95159
86 1 12.5794 6.28969 3.14484 -8.94967
87 1 14.1518 7.86208 4.71723 -8.94934
88 1 15.7242 6.28969 3.14484 -8.94962
89 1 17.2966 7.86211 4.71726 -8.94965
90 1 18.8691 6.28969 3.14484 -8.94963
91 1 20.4415 7.86211 4.71726 -8.94963
92 1 1.70356e-16 9.43453 3.14484 -8.94963
93 1 3.14484 9.43453 3.14484 -8.94963
94 1 6.28969 9.43453 3.14484 -8.94968
95 1 9.43451 9.43451 3.14481 -8.9496
96 1 12.5794 9.43451 3.14481 -8.9496
97 1 15.7242 9.43453 3.14484 -8.94968
98 1 18.8691 9.43453 3.14484 -8.94963
99 1 2.23051e-16 2.94654e-16 6.28969 -8.94963
100 1 1.57242 1.57242 7.86211 -8.94963
101 1 3.14484 9.55823e-17 6.28969 -8.94963
102 1 4.71726 1.57242 7.86211 -8.94963
103 1 6.28969 2.40246e-16 6.28969 -8.94963
104 1 7.86211 1.57242 7.86211 -8.94964
105 1 9.43453 8.98303e-17 6.28969 -8.94963
106 1 11.007 1.57242 7.86211 -8.94963
107 1 12.5794 7.85367e-17 6.28969 -8.94963
108 1 14.1518 1.57242 7.86211 -8.94964
109 1 15.7242 2.70731e-16 6.28969 -8.94963
110 1 17.2966 1.57242 7.86211 -8.94963
111 1 18.8691 1.55048e-16 6.28969 -8.94963
112 1 20.4415 1.57242 7.86211 -8.94963
113 1 2.689e-16 3.14484 6.28969 -8.94963
114 1 1.57242 4.71726 7.86211 -8.94963
115 1 3.14484 3.14484 6.28969 -8.94963
116 1 4.71727 4.71727 7.86211 -8.94967
117 1 6.28969 3.14484 6.28969 -8.94963
118 1 7.8621 4.71724 7.8621 -8.94969
119 1 9.43453 3.14484 6.28969 -8.94964
120 1 11.007 4.71724 7.86209 -8.94935
121 1 12.5794 3.14484 6.28969 -8.94964
122 1 14.1518 4.71724 7.8621 -8.94969
123 1 15.7242 3.14484 6.28969 -8.94963
124 1 17.2966 4.71727 7.86211 -8.94967
125 1 18.8691 3.14484 6.28969 -8.94963
126 1 20.4415 4.71726 7.86211 -8.94963
127 1 1.23066e-16 6.28969 6.28969 -8.94963
128 1 1.57242 7.86211 7.86211 -8.94964
129 1 3.14484 6.28969 6.28969 -8.94963
130 1 4.71725 7.8621 7.8621 -8.94981
131 1 6.28967 6.28967 6.28967 -8.94922
132 1 7.86113 7.86118 7.86111 -8.92855
133 1 9.43453 6.28969 6.28971 -8.95074
134 1 11.007 7.86165 7.86138 -8.93719
135 1 12.5794 6.28969 6.28971 -8.95074
136 1 14.1528 7.86118 7.86111 -8.92855
137 1 15.7242 6.28967 6.28967 -8.94922
138 1 17.2967 7.8621 7.8621 -8.94981
139 1 18.8691 6.28969 6.28969 -8.94963
140 1 20.4415 7.86211 7.86211 -8.94964
141 1 1.36556e-16 9.43453 6.28969 -8.94963
142 1 3.14484 9.43453 6.28969 -8.94964
143 1 6.28964 9.43449 6.28966 -8.94951
144 1 9.43323 9.43321 6.28858 -8.92236
145 1 12.5807 9.43321 6.28858 -8.92236
146 1 15.7243 9.43449 6.28966 -8.94951
147 1 18.8691 9.43453 6.28969 -8.94964
148 1 4.41828e-16 1.36827e-16 9.43453 -8.94963
149 1 3.14484 8.62935e-17 9.43453 -8.94963
150 1 6.28969 -2.75134e-17 9.43453 -8.94963
151 1 9.43453 3.93858e-17 9.43453 -8.94964
152 1 12.5794 -6.73078e-18 9.43453 -8.94964
153 1 15.7242 -2.01462e-17 9.43453 -8.94963
154 1 18.8691 8.26358e-17 9.43453 -8.94963
155 1 1.87171e-16 3.14484 9.43453 -8.94963
177 1 4.71726 1.57242 11.007 -8.94963
48 1 15.7242 9.43453 1.79926e-08 -8.94963
181 1 17.2966 1.57242 11.007 -8.94963
19 1 6.28969 3.14484 5.61596e-10 -8.94963
45 1 6.28969 9.43453 1.79926e-08 -8.94963
25 1 15.7242 3.14484 5.61596e-10 -8.94963
176 1 1.57242 1.57242 11.007 -8.94963
47 1 12.5794 9.43453 22.0139 -8.94964
178 1 7.86211 1.57242 11.007 -8.94964
179 1 11.007 1.57242 11.007 -8.94963
180 1 14.1518 1.57242 11.007 -8.94964
46 1 9.43453 9.43453 22.0139 -8.94964
182 1 20.4415 1.57242 11.007 -8.94963
343 1 18.8691 9.43453 18.8691 -8.94963
342 1 15.7242 9.43453 18.8691 -8.94963
185 1 7.8621 4.71724 11.007 -8.94969
186 1 11.007 4.71724 11.007 -8.94935
187 1 14.1518 4.71724 11.007 -8.94969
341 1 12.5794 9.43453 18.8691 -8.94964
340 1 9.43453 9.43453 18.8691 -8.94964
190 1 1.57242 7.86211 11.007 -8.94964
191 1 4.71725 7.8621 11.007 -8.94981
192 1 7.86113 7.86118 11.0079 -8.92855
193 1 11.007 7.86165 11.0077 -8.93719
194 1 14.1528 7.86118 11.0079 -8.92855
195 1 17.2967 7.8621 11.007 -8.94981
196 1 20.4415 7.86211 11.007 -8.94964
197 1 1.99608e-16 2.968e-16 12.5794 -8.94963
198 1 1.57242 1.57242 14.1518 -8.94963
199 1 3.14484 1.0695e-16 12.5794 -8.94963
200 1 4.71726 1.57242 14.1518 -8.94963
201 1 6.28969 2.27386e-16 12.5794 -8.94963
202 1 7.86211 1.57242 14.1518 -8.94963
203 1 9.43453 7.8129e-17 12.5794 -8.94963
204 1 11.007 1.57242 14.1518 -8.94963
205 1 12.5794 8.40863e-17 12.5794 -8.94963
206 1 14.1518 1.57242 14.1518 -8.94963
207 1 15.7242 2.41925e-16 12.5794 -8.94963
208 1 17.2966 1.57242 14.1518 -8.94963
209 1 18.8691 1.8871e-16 12.5794 -8.94963
210 1 20.4415 1.57242 14.1518 -8.94963
211 1 2.68426e-16 3.14484 12.5794 -8.94963
212 1 1.57242 4.71726 14.1518 -8.94963
213 1 3.14484 3.14484 12.5794 -8.94963
214 1 4.71726 4.71726 14.1518 -8.94962
215 1 6.28969 3.14484 12.5794 -8.94963
216 1 7.86211 4.71727 14.1518 -8.94967
217 1 9.43453 3.14484 12.5794 -8.94964
218 1 11.007 4.71727 14.1518 -8.94965
219 1 12.5794 3.14484 12.5794 -8.94964
220 1 14.1518 4.71727 14.1518 -8.94967
221 1 15.7242 3.14484 12.5794 -8.94963
222 1 17.2966 4.71726 14.1518 -8.94962
223 1 18.8691 3.14484 12.5794 -8.94963
224 1 20.4415 4.71726 14.1518 -8.94963
225 1 1.42683e-16 6.28969 12.5794 -8.94963
226 1 1.57242 7.86211 14.1518 -8.94963
227 1 3.14484 6.28969 12.5794 -8.94963
228 1 4.71726 7.86211 14.1518 -8.94965
229 1 6.28967 6.28967 12.5794 -8.94922
230 1 7.86208 7.86208 14.1518 -8.94934
231 1 9.43453 6.28969 12.5793 -8.95074
232 1 11.007 7.86215 14.1518 -8.95159
233 1 12.5794 6.28969 12.5793 -8.95074
234 1 14.1518 7.86208 14.1518 -8.94934
235 1 15.7242 6.28967 12.5794 -8.94922
236 1 17.2966 7.86211 14.1518 -8.94965
237 1 18.8691 6.28969 12.5794 -8.94963
238 1 20.4415 7.86211 14.1518 -8.94963
239 1 1.02636e-16 9.43453 12.5794 -8.94963
240 1 3.14484 9.43453 12.5794 -8.94964
241 1 6.28964 9.43449 12.5794 -8.94951
242 1 9.43323 9.43321 12.5805 -8.92236
243 1 12.5807 9.43321 12.5805 -8.92236
244 1 15.7243 9.43449 12.5794 -8.94951
245 1 18.8691 9.43453 12.5794 -8.94964
246 1 2.33094e-16 -5.78615e-18 15.7242 -8.94963
247 1 1.57242 1.57242 17.2966 -8.94963
248 1 3.14484 6.04592e-17 15.7242 -8.94963
249 1 4.71726 1.57242 17.2966 -8.94963
250 1 6.28969 3.16251e-16 15.7242 -8.94963
251 1 7.86211 1.57242 17.2966 -8.94963
252 1 9.43453 3.14155e-16 15.7242 -8.94963
253 1 11.007 1.57242 17.2966 -8.94963
254 1 12.5794 3.21102e-16 15.7242 -8.94963
255 1 14.1518 1.57242 17.2966 -8.94963
256 1 15.7242 2.93217e-16 15.7242 -8.94963
257 1 17.2966 1.57242 17.2966 -8.94963
258 1 18.8691 6.97724e-17 15.7242 -8.94963
259 1 20.4415 1.57242 17.2966 -8.94963
260 1 5.87116e-17 3.14484 15.7242 -8.94963
261 1 1.57242 4.71726 17.2966 -8.94963
262 1 3.14484 3.14484 15.7242 -8.94963
263 1 4.71726 4.71726 17.2966 -8.94963
264 1 6.28969 3.14484 15.7242 -8.94963
265 1 7.86211 4.71726 17.2966 -8.94963
266 1 9.43453 3.14484 15.7242 -8.94963
267 1 11.007 4.71726 17.2966 -8.94963
268 1 12.5794 3.14484 15.7242 -8.94963
269 1 14.1518 4.71726 17.2966 -8.94963
270 1 15.7242 3.14484 15.7242 -8.94963
271 1 17.2966 4.71726 17.2966 -8.94963
272 1 18.8691 3.14484 15.7242 -8.94963
273 1 20.4415 4.71726 17.2966 -8.94963
274 1 3.79841e-17 6.28969 15.7242 -8.94963
275 1 1.57242 7.86211 17.2966 -8.94963
276 1 3.14484 6.28969 15.7242 -8.94963
277 1 4.71726 7.86211 17.2966 -8.94963
278 1 6.28969 6.28969 15.7242 -8.94962
279 1 7.86211 7.86211 17.2966 -8.94963
280 1 9.43453 6.28969 15.7242 -8.94967
281 1 11.007 7.86211 17.2966 -8.94964
282 1 12.5794 6.28969 15.7242 -8.94967
283 1 14.1518 7.86211 17.2966 -8.94963
284 1 15.7242 6.28969 15.7242 -8.94962
285 1 17.2966 7.86211 17.2966 -8.94963
286 1 18.8691 6.28969 15.7242 -8.94963
287 1 20.4415 7.86211 17.2966 -8.94963
288 1 1.61555e-16 9.43453 15.7242 -8.94963
289 1 3.14484 9.43453 15.7242 -8.94963
290 1 6.28969 9.43453 15.7242 -8.94968
291 1 9.43451 9.43451 15.7243 -8.9496
292 1 12.5794 9.43451 15.7243 -8.9496
293 1 15.7242 9.43453 15.7242 -8.94968
294 1 18.8691 9.43453 15.7242 -8.94963
295 1 8.26709e-17 1.7118e-17 18.8691 -8.94963
296 1 1.57242 1.57242 20.4415 -8.94963
297 1 3.14484 2.55803e-16 18.8691 -8.94963
298 1 4.71726 1.57242 20.4415 -8.94963
299 1 6.28969 3.99692e-16 18.8691 -8.94963
300 1 7.86211 1.57242 20.4415 -8.94963
301 1 9.43453 2.36815e-16 18.8691 -8.94963
302 1 11.007 1.57242 20.4415 -8.94963
303 1 12.5794 2.41337e-16 18.8691 -8.94963
304 1 14.1518 1.57242 20.4415 -8.94963
305 1 15.7242 3.94112e-16 18.8691 -8.94963
306 1 17.2966 1.57242 20.4415 -8.94963
307 1 18.8691 2.51377e-16 18.8691 -8.94963
308 1 20.4415 1.57242 20.4415 -8.94963
309 1 1.30892e-16 3.14484 18.8691 -8.94963
310 1 1.57242 4.71726 20.4415 -8.94963
311 1 3.14484 3.14484 18.8691 -8.94963
312 1 4.71726 4.71726 20.4415 -8.94963
313 1 6.28969 3.14484 18.8691 -8.94963
314 1 7.86211 4.71726 20.4415 -8.94963
315 1 9.43453 3.14484 18.8691 -8.94963
316 1 11.007 4.71726 20.4415 -8.94963
317 1 12.5794 3.14484 18.8691 -8.94963
318 1 14.1518 4.71726 20.4415 -8.94963
319 1 15.7242 3.14484 18.8691 -8.94963
320 1 17.2966 4.71726 20.4415 -8.94963
321 1 18.8691 3.14484 18.8691 -8.94963
322 1 20.4415 4.71726 20.4415 -8.94963
323 1 -1.26296e-16 6.28969 18.8691 -8.94963
324 1 1.57242 7.86211 20.4415 -8.94963
325 1 3.14484 6.28969 18.8691 -8.94963
326 1 4.71726 7.86211 20.4415 -8.94963
327 1 6.28969 6.28969 18.8691 -8.94963
328 1 7.86211 7.86211 20.4415 -8.94963
329 1 9.43453 6.28969 18.8691 -8.94963
330 1 11.007 7.86211 20.4415 -8.94963
331 1 12.5794 6.28969 18.8691 -8.94963
332 1 14.1518 7.86211 20.4415 -8.94963
333 1 15.7242 6.28969 18.8691 -8.94963
334 1 17.2966 7.86211 20.4415 -8.94963
335 1 18.8691 6.28969 18.8691 -8.94963
336 1 20.4415 7.86211 20.4415 -8.94963
337 1 1.11008e-16 9.43453 18.8691 -8.94963
338 1 3.14484 9.43453 18.8691 -8.94963
339 1 6.28969 9.43453 18.8691 -8.94963
3 1 3.14484 2.51846e-16 22.0139 -8.94963
5 1 6.28969 3.78689e-16 22.0139 -8.94963
11 1 15.7242 3.88652e-16 22.0139 -8.94963
13 1 18.8691 2.57305e-16 22.0139 -8.94963
15 1 1.27478e-16 3.14484 22.0139 -8.94963
17 1 3.14484 3.14484 22.0139 -8.94963
41 1 18.8691 6.28969 22.0139 -8.94963
39 1 15.7242 6.28969 22.0139 -8.94963
27 1 18.8691 3.14484 22.0139 -8.94963
29 1 -1.11688e-16 6.28969 22.0139 -8.94963
31 1 3.14484 6.28969 22.0139 -8.94963
33 1 6.28969 6.28969 22.0139 -8.94963
1 1 7.82559e-17 9.11572e-18 22.0139 -8.94963
21 1 9.43453 3.14484 22.0139 -8.94963
23 1 12.5794 3.14484 22.0139 -8.94963
43 1 1.08973e-16 9.43453 22.0139 -8.94963
44 1 3.14484 9.43453 22.0139 -8.94963
49 1 18.8691 9.43453 22.0139 -8.94963
344 1 1.57242 11.007 1.57242 -8.94963
345 1 4.71726 11.007 1.57242 -8.94963
346 1 7.86211 11.007 1.57242 -8.94965
347 1 11.007 11.007 1.57239 -8.95013
348 1 14.1518 11.007 1.57242 -8.94965
349 1 17.2966 11.007 1.57242 -8.94963
350 1 20.4415 11.007 1.57242 -8.94963
532 1 20.4415 17.2966 11.007 -8.94963
352 1 1.57242 14.1518 1.57242 -8.94963
531 1 17.2966 17.2966 11.007 -8.94967
354 1 4.71726 14.1518 1.57242 -8.94963
688 3 10.2161 11.007 9.43453 3.94519
356 1 7.86211 14.1518 1.57242 -8.94963
687 3 11.7978 11.007 9.43453 3.94519
358 1 11.007 14.1518 1.57242 -8.94964
511 1 18.8691 18.8691 9.43453 -8.94963
360 1 14.1518 14.1518 1.57242 -8.94963
510 1 15.7242 18.8691 9.43453 -8.94963
362 1 17.2966 14.1518 1.57242 -8.94963
527 1 4.71727 17.2966 11.007 -8.94967
364 1 20.4415 14.1518 1.57242 -8.94963
509 1 12.5794 18.8691 9.43453 -8.94996
366 1 1.57242 17.2966 1.57242 -8.94963
508 1 9.43453 18.8691 9.43453 -8.94996
368 1 4.71726 17.2966 1.57242 -8.94963
507 1 6.28969 18.8691 9.43453 -8.94963
370 1 7.86211 17.2966 1.57242 -8.94963
371 1 9.43453 15.7242 3.10246e-08 -8.94963
372 1 11.007 17.2966 1.57242 -8.94963
373 1 12.5794 15.7242 3.10246e-08 -8.94963
374 1 14.1518 17.2966 1.57242 -8.94963
506 1 3.14484 18.8691 9.43453 -8.94963
376 1 17.2966 17.2966 1.57242 -8.94963
505 1 2.24998e-16 18.8691 9.43453 -8.94963
378 1 20.4415 17.2966 1.57242 -8.94963
504 1 18.8691 15.7242 9.43453 -8.94963
380 1 1.57242 20.4415 1.57242 -8.94963
503 1 15.7242 15.7242 9.43453 -8.95111
382 1 4.71726 20.4415 1.57242 -8.94963
502 1 12.5794 15.7254 9.43453 -8.96351
384 1 7.86211 20.4415 1.57242 -8.94963
526 1 1.57242 17.2966 11.007 -8.94963
386 1 11.007 20.4415 1.57242 -8.94963
499 1 3.14484 15.7242 9.43453 -8.94963
388 1 14.1518 20.4415 1.57242 -8.94963
501 1 9.43453 15.7254 9.43453 -8.96351
390 1 17.2966 20.4415 1.57242 -8.94963
500 1 6.28972 15.7242 9.43453 -8.95111
392 1 20.4415 20.4415 1.57242 -8.94963
393 1 1.57242 11.007 4.71726 -8.94963
394 1 4.71727 11.007 4.71727 -8.94969
395 1 7.86215 11.007 4.71728 -8.95195
396 1 11.007 11.007 4.71536 -8.96971
397 1 14.1518 11.007 4.71728 -8.95195
398 1 17.2966 11.007 4.71727 -8.94969
399 1 20.4415 11.007 4.71726 -8.94963
400 1 1.70449e-16 12.5794 3.14484 -8.94963
401 1 1.57242 14.1518 4.71726 -8.94963
402 1 3.14484 12.5794 3.14484 -8.94963
403 1 4.71726 14.1518 4.71726 -8.94965
404 1 6.28969 12.5794 3.14484 -8.94968
405 1 7.86208 14.1518 4.71723 -8.94934
406 1 9.43451 12.5794 3.14481 -8.9496
407 1 11.007 14.1518 4.71729 -8.95159
408 1 12.5794 12.5794 3.14481 -8.9496
409 1 14.1518 14.1518 4.71723 -8.94934
410 1 15.7242 12.5794 3.14484 -8.94968
411 1 17.2966 14.1518 4.71726 -8.94965
412 1 18.8691 12.5794 3.14484 -8.94963
413 1 20.4415 14.1518 4.71726 -8.94963
414 1 4.71624e-17 15.7242 3.14484 -8.94963
415 1 1.57242 17.2966 4.71726 -8.94963
416 1 3.14484 15.7242 3.14484 -8.94963
417 1 4.71726 17.2966 4.71726 -8.94962
418 1 6.28969 15.7242 3.14484 -8.94962
419 1 7.86211 17.2966 4.71727 -8.94967
420 1 9.43453 15.7242 3.14484 -8.94967
421 1 11.007 17.2966 4.71727 -8.94965
422 1 12.5794 15.7242 3.14484 -8.94967
423 1 14.1518 17.2966 4.71727 -8.94967
424 1 15.7242 15.7242 3.14484 -8.94962
425 1 17.2966 17.2966 4.71726 -8.94962
426 1 18.8691 15.7242 3.14484 -8.94963
427 1 20.4415 17.2966 4.71726 -8.94963
428 1 5.56907e-17 18.8691 3.14484 -8.94963
429 1 1.57242 20.4415 4.71726 -8.94963
430 1 3.14484 18.8691 3.14484 -8.94963
431 1 4.71726 20.4415 4.71726 -8.94963
432 1 6.28969 18.8691 3.14484 -8.94963
433 1 7.86211 20.4415 4.71726 -8.94963
434 1 9.43453 18.8691 3.14484 -8.94963
435 1 11.007 20.4415 4.71726 -8.94963
436 1 12.5794 18.8691 3.14484 -8.94963
437 1 14.1518 20.4415 4.71726 -8.94963
438 1 15.7242 18.8691 3.14484 -8.94963
439 1 17.2966 20.4415 4.71726 -8.94963
440 1 18.8691 18.8691 3.14484 -8.94963
441 1 20.4415 20.4415 4.71726 -8.94963
442 1 1.57242 11.007 7.86211 -8.94964
443 1 4.71721 11.007 7.8621 -8.95028
444 1 7.85902 11.007 7.86009 -8.92088
445 1 11.007 11.007 7.74096 -7.12472
446 1 14.1549 11.007 7.86009 -8.92088
447 1 17.2967 11.007 7.8621 -8.95028
448 1 20.4415 11.007 7.86211 -8.94964
449 1 1.37783e-16 12.5794 6.28969 -8.94963
450 1 1.57242 14.1518 7.86211 -8.94964
451 1 3.14484 12.5794 6.28969 -8.94964
452 1 4.71725 14.1518 7.8621 -8.94981
453 1 6.28964 12.5794 6.28966 -8.94951
454 1 7.86113 14.1527 7.86111 -8.92855
455 1 9.43323 12.5807 6.28858 -8.92236
456 1 11.007 14.1523 7.86138 -8.93719
457 1 12.5807 12.5807 6.28858 -8.92236
458 1 14.1528 14.1527 7.86111 -8.92855
459 1 15.7243 12.5794 6.28966 -8.94951
460 1 17.2967 14.1518 7.8621 -8.94981
461 1 18.8691 12.5794 6.28969 -8.94964
462 1 20.4415 14.1518 7.86211 -8.94964
463 1 1.41274e-16 15.7242 6.28969 -8.94963
464 1 1.57242 17.2966 7.86211 -8.94963
465 1 3.14484 15.7242 6.28969 -8.94963
466 1 4.71727 17.2966 7.86211 -8.94967
467 1 6.28967 15.7242 6.28967 -8.94922
468 1 7.8621 17.2967 7.8621 -8.94969
469 1 9.43453 15.7242 6.28971 -8.95074
470 1 11.007 17.2967 7.86209 -8.94935
471 1 12.5794 15.7242 6.28971 -8.95074
472 1 14.1518 17.2967 7.8621 -8.94969
473 1 15.7242 15.7242 6.28967 -8.94922
474 1 17.2966 17.2966 7.86211 -8.94967
475 1 18.8691 15.7242 6.28969 -8.94963
476 1 20.4415 17.2966 7.86211 -8.94963
477 1 2.73824e-16 18.8691 6.28969 -8.94963
478 1 1.57242 20.4415 7.86211 -8.94963
479 1 3.14484 18.8691 6.28969 -8.94963
480 1 4.71726 20.4415 7.86211 -8.94963
481 1 6.28969 18.8691 6.28969 -8.94963
482 1 7.86211 20.4415 7.86211 -8.94964
483 1 9.43453 18.8691 6.28969 -8.94964
484 1 11.007 20.4415 7.86211 -8.94963
485 1 12.5794 18.8691 6.28969 -8.94964
486 1 14.1518 20.4415 7.86211 -8.94964
487 1 15.7242 18.8691 6.28969 -8.94963
488 1 17.2966 20.4415 7.86211 -8.94963
489 1 18.8691 18.8691 6.28969 -8.94963
490 1 20.4415 20.4415 7.86211 -8.94963
491 1 -2.67451e-18 12.5794 9.43453 -8.94964
492 1 3.14483 12.5794 9.43453 -8.94979
493 1 6.28906 12.5795 9.43453 -8.95685
494 1 9.40039 12.6459 9.43453 -7.87751
495 1 12.6135 12.6459 9.43453 -7.87751
496 1 15.7248 12.5795 9.43453 -8.95685
497 1 18.8691 12.5794 9.43453 -8.94979
498 1 6.55395e-17 15.7242 9.43453 -8.94963
534 1 4.71726 20.4415 11.007 -8.94963
538 1 17.2966 20.4415 11.007 -8.94963
389 1 15.7242 18.8691 5.61596e-10 -8.94963
383 1 6.28969 18.8691 5.61596e-10 -8.94963
355 1 6.28969 12.5794 1.79926e-08 -8.94963
361 1 15.7242 12.5794 1.79926e-08 -8.94963
512 1 1.57242 11.007 11.007 -8.94964
513 1 4.71721 11.007 11.007 -8.95028
514 1 7.85902 11.007 11.009 -8.92088
515 1 11.007 11.007 11.1281 -7.12472
516 1 14.1549 11.007 11.009 -8.92088
517 1 17.2967 11.007 11.007 -8.95028
518 1 20.4415 11.007 11.007 -8.94964
519 1 1.57242 14.1518 11.007 -8.94964
520 1 4.71725 14.1518 11.007 -8.94981
521 1 7.86113 14.1527 11.0079 -8.92855
522 1 11.007 14.1523 11.0077 -8.93719
523 1 14.1528 14.1527 11.0079 -8.92855
524 1 17.2967 14.1518 11.007 -8.94981
525 1 20.4415 14.1518 11.007 -8.94964
686 1 20.4415 20.4415 20.4415 -8.94963
685 1 18.8691 18.8691 18.8691 -8.94963
528 1 7.8621 17.2967 11.007 -8.94969
529 1 11.007 17.2967 11.007 -8.94935
530 1 14.1518 17.2967 11.007 -8.94969
684 1 17.2966 20.4415 20.4415 -8.94963
683 1 15.7242 18.8691 18.8691 -8.94963
533 1 1.57242 20.4415 11.007 -8.94963
391 1 18.8691 18.8691 22.0139 -8.94963
535 1 7.86211 20.4415 11.007 -8.94964
536 1 11.007 20.4415 11.007 -8.94963
537 1 14.1518 20.4415 11.007 -8.94964
381 1 3.14484 18.8691 22.0139 -8.94963
539 1 20.4415 20.4415 11.007 -8.94963
540 1 1.57242 11.007 14.1518 -8.94963
541 1 4.71727 11.007 14.1518 -8.94969
542 1 7.86215 11.007 14.1518 -8.95195
543 1 11.007 11.007 14.1537 -8.96971
544 1 14.1518 11.007 14.1518 -8.95195
545 1 17.2966 11.007 14.1518 -8.94969
546 1 20.4415 11.007 14.1518 -8.94963
547 1 9.6156e-17 12.5794 12.5794 -8.94963
548 1 1.57242 14.1518 14.1518 -8.94963
549 1 3.14484 12.5794 12.5794 -8.94964
550 1 4.71726 14.1518 14.1518 -8.94965
551 1 6.28964 12.5794 12.5794 -8.94951
552 1 7.86208 14.1518 14.1518 -8.94934
553 1 9.43323 12.5807 12.5805 -8.92236
554 1 11.007 14.1518 14.1518 -8.95159
555 1 12.5807 12.5807 12.5805 -8.92236
556 1 14.1518 14.1518 14.1518 -8.94934
557 1 15.7243 12.5794 12.5794 -8.94951
558 1 17.2966 14.1518 14.1518 -8.94965
559 1 18.8691 12.5794 12.5794 -8.94964
560 1 20.4415 14.1518 14.1518 -8.94963
561 1 1.54842e-16 15.7242 12.5794 -8.94963
562 1 1.57242 17.2966 14.1518 -8.94963
563 1 3.14484 15.7242 12.5794 -8.94963
564 1 4.71726 17.2966 14.1518 -8.94962
565 1 6.28967 15.7242 12.5794 -8.94922
566 1 7.86211 17.2966 14.1518 -8.94967
567 1 9.43453 15.7242 12.5793 -8.95074
568 1 11.007 17.2966 14.1518 -8.94965
569 1 12.5794 15.7242 12.5793 -8.95074
570 1 14.1518 17.2966 14.1518 -8.94967
571 1 15.7242 15.7242 12.5794 -8.94922
572 1 17.2966 17.2966 14.1518 -8.94962
573 1 18.8691 15.7242 12.5794 -8.94963
574 1 20.4415 17.2966 14.1518 -8.94963
575 1 2.71231e-16 18.8691 12.5794 -8.94963
576 1 1.57242 20.4415 14.1518 -8.94963
577 1 3.14484 18.8691 12.5794 -8.94963
578 1 4.71726 20.4415 14.1518 -8.94963
579 1 6.28969 18.8691 12.5794 -8.94963
580 1 7.86211 20.4415 14.1518 -8.94963
581 1 9.43453 18.8691 12.5794 -8.94964
582 1 11.007 20.4415 14.1518 -8.94963
583 1 12.5794 18.8691 12.5794 -8.94964
584 1 14.1518 20.4415 14.1518 -8.94963
585 1 15.7242 18.8691 12.5794 -8.94963
586 1 17.2966 20.4415 14.1518 -8.94963
587 1 18.8691 18.8691 12.5794 -8.94963
588 1 20.4415 20.4415 14.1518 -8.94963
589 1 1.57242 11.007 17.2966 -8.94963
590 1 4.71726 11.007 17.2966 -8.94963
591 1 7.86211 11.007 17.2966 -8.94965
592 1 11.007 11.007 17.2967 -8.95013
593 1 14.1518 11.007 17.2966 -8.94965
594 1 17.2966 11.007 17.2966 -8.94963
595 1 20.4415 11.007 17.2966 -8.94963
596 1 1.72592e-16 12.5794 15.7242 -8.94963
597 1 1.57242 14.1518 17.2966 -8.94963
598 1 3.14484 12.5794 15.7242 -8.94963
599 1 4.71726 14.1518 17.2966 -8.94963
600 1 6.28969 12.5794 15.7242 -8.94968
601 1 7.86211 14.1518 17.2966 -8.94963
602 1 9.43451 12.5794 15.7243 -8.9496
603 1 11.007 14.1518 17.2966 -8.94964
604 1 12.5794 12.5794 15.7243 -8.9496
605 1 14.1518 14.1518 17.2966 -8.94963
606 1 15.7242 12.5794 15.7242 -8.94968
607 1 17.2966 14.1518 17.2966 -8.94963
608 1 18.8691 12.5794 15.7242 -8.94963
609 1 20.4415 14.1518 17.2966 -8.94963
610 1 4.94108e-17 15.7242 15.7242 -8.94963
611 1 1.57242 17.2966 17.2966 -8.94963
612 1 3.14484 15.7242 15.7242 -8.94963
613 1 4.71726 17.2966 17.2966 -8.94963
614 1 6.28969 15.7242 15.7242 -8.94962
615 1 7.86211 17.2966 17.2966 -8.94963
616 1 9.43453 15.7242 15.7242 -8.94967
617 1 11.007 17.2966 17.2966 -8.94963
618 1 12.5794 15.7242 15.7242 -8.94967
619 1 14.1518 17.2966 17.2966 -8.94963
620 1 15.7242 15.7242 15.7242 -8.94962
621 1 17.2966 17.2966 17.2966 -8.94963
622 1 18.8691 15.7242 15.7242 -8.94963
623 1 20.4415 17.2966 17.2966 -8.94963
624 1 6.18411e-17 18.8691 15.7242 -8.94963
625 1 1.57242 20.4415 17.2966 -8.94963
626 1 3.14484 18.8691 15.7242 -8.94963
627 1 4.71726 20.4415 17.2966 -8.94963
628 1 6.28969 18.8691 15.7242 -8.94963
629 1 7.86211 20.4415 17.2966 -8.94963
630 1 9.43453 18.8691 15.7242 -8.94963
631 1 11.007 20.4415 17.2966 -8.94963
632 1 12.5794 18.8691 15.7242 -8.94963
633 1 14.1518 20.4415 17.2966 -8.94963
634 1 15.7242 18.8691 15.7242 -8.94963
635 1 17.2966 20.4415 17.2966 -8.94963
636 1 18.8691 18.8691 15.7242 -8.94963
637 1 20.4415 20.4415 17.2966 -8.94963
638 1 1.57242 11.007 20.4415 -8.94963
639 1 4.71726 11.007 20.4415 -8.94963
640 1 7.86211 11.007 20.4415 -8.94963
641 1 11.007 11.007 20.4415 -8.94965
642 1 14.1518 11.007 20.4415 -8.94963
643 1 17.2966 11.007 20.4415 -8.94963
644 1 20.4415 11.007 20.4415 -8.94963
645 1 1.1052e-16 12.5794 18.8691 -8.94963
646 1 1.57242 14.1518 20.4415 -8.94963
647 1 3.14484 12.5794 18.8691 -8.94963
648 1 4.71726 14.1518 20.4415 -8.94963
649 1 6.28969 12.5794 18.8691 -8.94963
650 1 7.86211 14.1518 20.4415 -8.94963
651 1 9.43453 12.5794 18.8691 -8.94964
652 1 11.007 14.1518 20.4415 -8.94963
653 1 12.5794 12.5794 18.8691 -8.94964
654 1 14.1518 14.1518 20.4415 -8.94963
655 1 15.7242 12.5794 18.8691 -8.94963
656 1 17.2966 14.1518 20.4415 -8.94963
657 1 18.8691 12.5794 18.8691 -8.94963
658 1 20.4415 14.1518 20.4415 -8.94963
659 1 -1.25089e-16 15.7242 18.8691 -8.94963
660 1 1.57242 17.2966 20.4415 -8.94963
661 1 3.14484 15.7242 18.8691 -8.94963
662 1 4.71726 17.2966 20.4415 -8.94963
663 1 6.28969 15.7242 18.8691 -8.94963
664 1 7.86211 17.2966 20.4415 -8.94963
665 1 9.43453 15.7242 18.8691 -8.94963
666 1 11.007 17.2966 20.4415 -8.94963
667 1 12.5794 15.7242 18.8691 -8.94963
668 1 14.1518 17.2966 20.4415 -8.94963
669 1 15.7242 15.7242 18.8691 -8.94963
670 1 17.2966 17.2966 20.4415 -8.94963
671 1 18.8691 15.7242 18.8691 -8.94963
672 1 20.4415 17.2966 20.4415 -8.94963
673 1 1.24255e-16 18.8691 18.8691 -8.94963
674 1 1.57242 20.4415 20.4415 -8.94963
675 1 3.14484 18.8691 18.8691 -8.94963
676 1 4.71726 20.4415 20.4415 -8.94963
677 1 6.28969 18.8691 18.8691 -8.94963
678 1 7.86211 20.4415 20.4415 -8.94963
679 1 9.43453 18.8691 18.8691 -8.94963
680 1 11.007 20.4415 20.4415 -8.94963
681 1 12.5794 18.8691 18.8691 -8.94963
682 1 14.1518 20.4415 20.4415 -8.94963
379 1 1.30371e-16 18.8691 22.0139 -8.94963
357 1 9.43453 12.5794 22.0139 -8.94964
359 1 12.5794 12.5794 22.0139 -8.94964
377 1 18.8691 15.7242 22.0139 -8.94963
365 1 -1.19495e-16 15.7242 22.0139 -8.94963
367 1 3.14484 15.7242 22.0139 -8.94963
369 1 6.28969 15.7242 22.0139 -8.94963
375 1 15.7242 15.7242 22.0139 -8.94963
351 1 1.1976e-16 12.5794 22.0139 -8.94963
353 1 3.14484 12.5794 22.0139 -8.94963
363 1 18.8691 12.5794 22.0139 -8.94963
385 1 9.43453 18.8691 22.0139 -8.94963
387 1 12.5794 18.8691 22.0139 -8.94963
