ITEM: TIMESTEP
53
ITEM: NUMBER OF ATOMS
688
ITEM: BOX BOUNDS pp pp pp
0.0000000000000000e+00 2.2013900999999997e+01
0.0000000000000000e+00 2.2013900999999997e+01
0.0000000000000000e+00 2.2013900999999997e+01
ITEM: ATOMS id type x y z c_pot
189 1 20.4415 4.71726 11.007 -8.94961
2 1 1.57242 1.57242 1.57242 -8.94962
175 1 18.8701 9.43457 9.43453 -8.95155
4 1 4.71726 1.57242 1.57242 -8.94964
174 1 15.7332 9.4322 9.43453 -8.96899
6 1 7.86211 1.57242 1.57242 -8.94963
7 1 9.43453 1.20595e-15 6.96484e-08 -8.94963
8 1 11.007 1.57242 1.57242 -8.94964
9 1 12.5794 1.21557e-15 6.96484e-08 -8.94963
10 1 14.1518 1.57242 1.57242 -8.94963
173 1 12.6621 9.24094 9.43453 -8.03725
12 1 17.2966 1.57242 1.57242 -8.94964
172 1 9.35177 9.24094 9.43453 -8.03725
14 1 20.4415 1.57242 1.57242 -8.94962
171 1 6.2807 9.4322 9.43453 -8.96899
16 1 1.57242 4.71726 1.57242 -8.94964
170 1 3.14383 9.43457 9.43453 -8.95155
18 1 4.71723 4.71723 1.57237 -8.94949
169 1 5.69291e-16 9.43453 9.43453 -8.95004
20 1 7.86211 4.71726 1.57241 -8.94969
188 1 17.2968 4.71714 11.007 -8.9497
22 1 11.007 4.71725 1.57239 -8.94967
184 1 4.71714 4.71714 11.007 -8.9497
24 1 14.1518 4.71726 1.57241 -8.94969
168 1 18.8693 6.28955 9.43453 -8.94938
26 1 17.2967 4.71723 1.57237 -8.94949
167 1 15.726 6.28777 9.43453 -8.94728
28 1 20.4415 4.71726 1.57242 -8.94964
166 1 12.5802 6.28364 9.43453 -8.99026
30 1 1.57242 7.86211 1.57242 -8.94963
165 1 9.43373 6.28364 9.43453 -8.99026
32 1 4.71726 7.86211 1.57241 -8.9497
164 1 6.2879 6.28777 9.43453 -8.94728
34 1 7.86197 7.86197 1.57197 -8.95051
35 1 9.43453 6.28967 -2.52428e-05 -8.94961
36 1 11.007 7.86197 1.57209 -8.94972
37 1 12.5794 6.28967 -2.52428e-05 -8.94961
38 1 14.1519 7.86197 1.57197 -8.95051
163 1 3.14459 6.28955 9.43453 -8.94938
40 1 17.2966 7.86211 1.57241 -8.9497
162 1 5.33577e-16 6.28967 9.43453 -8.94966
42 1 20.4415 7.86211 1.57242 -8.94963
183 1 1.57241 4.71726 11.007 -8.94961
157 1 6.28954 3.14457 9.43453 -8.94939
161 1 18.8691 3.14484 9.43453 -8.9497
160 1 15.7244 3.14457 9.43453 -8.94939
159 1 12.5793 3.14382 9.43453 -8.95073
158 1 9.43457 3.14382 9.43453 -8.95073
156 1 3.14484 3.14484 9.43453 -8.9497
50 1 6.32762e-17 1.15384e-15 3.14484 -8.94964
51 1 1.57242 1.57242 4.71727 -8.94965
52 1 3.14484 3.88019e-16 3.14484 -8.94962
53 1 4.71725 1.57239 4.71725 -8.94962
54 1 6.28969 1.50172e-15 3.14484 -8.94964
55 1 7.8621 1.57239 4.71725 -8.94965
56 1 9.43453 1.22384e-15 3.14484 -8.94964
57 1 11.007 1.57239 4.71724 -8.94962
58 1 12.5794 1.07992e-15 3.14484 -8.94964
59 1 14.1518 1.57239 4.71725 -8.94965
60 1 15.7242 1.71519e-15 3.14484 -8.94964
61 1 17.2967 1.57239 4.71725 -8.94962
62 1 18.8691 8.59437e-16 3.14484 -8.94962
63 1 20.4415 1.57242 4.71727 -8.94965
64 1 4.02721e-16 3.14484 3.14484 -8.94962
65 1 1.57239 4.71725 4.71725 -8.94962
66 1 3.14482 3.14482 3.14482 -8.94952
67 1 4.71698 4.71698 4.71699 -8.9484
68 1 6.28968 3.14481 3.14483 -8.94973
69 1 7.862 4.7169 4.71706 -8.9501
70 1 9.43452 3.14482 3.14482 -8.94963
71 1 11.007 4.71692 4.71695 -8.94903
72 1 12.5794 3.14482 3.14482 -8.94963
73 1 14.1519 4.7169 4.71706 -8.9501
74 1 15.7242 3.14481 3.14483 -8.94973
75 1 17.2969 4.71698 4.71699 -8.9484
76 1 18.8691 3.14482 3.14482 -8.94952
77 1 20.4415 4.71725 4.71725 -8.94962
78 1 -7.78899e-17 6.28968 3.14484 -8.94964
79 1 1.57239 7.8621 4.71725 -8.94966
80 1 3.14481 6.28967 3.14483 -8.94973
81 1 4.71692 7.86202 4.71708 -8.95041
82 1 6.28927 6.28927 3.14426 -8.94858
83 1 7.85867 7.85867 4.71232 -8.94338
84 1 9.43454 6.28948 3.14458 -8.94944
85 1 11.007 7.86081 4.71457 -8.95254
86 1 12.5794 6.28948 3.14458 -8.94944
87 1 14.1552 7.85867 4.71232 -8.94338
88 1 15.7246 6.28927 3.14426 -8.94858
89 1 17.297 7.86202 4.71708 -8.95041
90 1 18.8691 6.28967 3.14483 -8.94973
91 1 20.4415 7.8621 4.71725 -8.94966
92 1 -3.478e-16 9.43453 3.14484 -8.94963
93 1 3.14482 9.43452 3.14482 -8.94959
94 1 6.28951 9.43458 3.14462 -8.94953
95 1 9.43398 9.43404 3.14257 -8.95291
96 1 12.5799 9.43404 3.14257 -8.95291
97 1 15.7244 9.43458 3.14462 -8.94953
98 1 18.8691 9.43452 3.14482 -8.94959
99 1 1.05983e-15 1.894e-15 6.28969 -8.94963
100 1 1.57242 1.57242 7.86211 -8.94964
101 1 3.14484 1.68139e-15 6.28969 -8.94963
102 1 4.71725 1.57241 7.86211 -8.9496
103 1 6.28967 1.62268e-15 6.28967 -8.94973
104 1 7.86206 1.57223 7.86207 -8.95014
105 1 9.43452 -7.81468e-17 6.28966 -8.94972
106 1 11.007 1.57221 7.86203 -8.94975
107 1 12.5794 -4.61628e-16 6.28966 -8.94972
108 1 14.1518 1.57223 7.86207 -8.95014
109 1 15.7242 1.77801e-15 6.28967 -8.94973
110 1 17.2966 1.57241 7.86211 -8.9496
111 1 18.8691 1.83975e-15 6.28969 -8.94963
112 1 20.4415 1.57242 7.86211 -8.94964
113 1 7.40181e-16 3.14484 6.28969 -8.94963
114 1 1.57241 4.71726 7.86211 -8.94961
115 1 3.14484 3.14484 6.28969 -8.94971
116 1 4.71714 4.71714 7.86207 -8.9497
117 1 6.28953 3.14452 6.28954 -8.94991
118 1 7.86139 4.71486 7.86157 -8.95374
119 1 9.43451 3.14444 6.28953 -8.94996
120 1 11.007 4.71554 7.86131 -8.94829
121 1 12.5794 3.14444 6.28953 -8.94996
122 1 14.1525 4.71486 7.86157 -8.95374
123 1 15.7244 3.14452 6.28954 -8.94991
124 1 17.2968 4.71714 7.86207 -8.9497
125 1 18.8691 3.14484 6.28969 -8.94971
126 1 20.4415 4.71726 7.86211 -8.94961
127 1 4.25849e-16 6.28967 6.28967 -8.94973
128 1 1.57223 7.86207 7.86208 -8.95018
129 1 3.14453 6.28954 6.28955 -8.94985
130 1 4.7147 7.86136 7.86152 -8.95354
131 1 6.28678 6.28682 6.28682 -8.93907
132 1 7.83951 7.8415 7.84266 -8.86874
133 1 9.43411 6.28605 6.28824 -8.9535
134 1 11.007 7.8567 7.8468 -8.89648
135 1 12.5798 6.28605 6.28824 -8.9535
136 1 14.1744 7.8415 7.84266 -8.86874
137 1 15.7271 6.28682 6.28682 -8.93907
138 1 17.2992 7.86136 7.86152 -8.95354
139 1 18.8694 6.28954 6.28955 -8.94985
140 1 20.4417 7.86207 7.86208 -8.95018
141 1 4.8969e-16 9.43453 6.28967 -8.94972
142 1 3.14448 9.43454 6.28956 -8.94998
143 1 6.28652 9.43488 6.2887 -8.95428
144 1 9.4093 9.40929 6.27152 -8.85256
145 1 12.6046 9.40929 6.27152 -8.85256
146 1 15.7274 9.43488 6.2887 -8.95428
147 1 18.8694 9.43454 6.28956 -8.94998
148 1 1.19288e-15 2.5375e-16 9.43453 -8.94963
149 1 3.14484 2.0518e-15 9.43453 -8.94964
150 1 6.28967 1.8409e-15 9.43453 -8.94967
151 1 9.43453 6.13322e-18 9.43453 -8.95004
152 1 12.5794 -4.49498e-17 9.43453 -8.95004
153 1 15.7242 2.01586e-15 9.43453 -8.94967
154 1 18.8691 2.04661e-15 9.43453 -8.94964
155 1 -1.89328e-16 3.14484 9.43453 -8.94964
177 1 4.71725 1.57241 11.007 -8.9496
48 1 15.7242 9.43453 -2.39003e-05 -8.9496
181 1 17.2966 1.57241 11.007 -8.9496
19 1 6.28969 3.14484 9.94893e-07 -8.94965
45 1 6.28967 9.43453 -2.39003e-05 -8.9496
25 1 15.7242 3.14484 9.94893e-07 -8.94965
176 1 1.57242 1.57242 11.007 -8.94964
47 1 12.5794 9.4345 22.0137 -8.95009
178 1 7.86206 1.57223 11.007 -8.95014
179 1 11.007 1.57221 11.007 -8.94975
180 1 14.1518 1.57223 11.007 -8.95014
46 1 9.4345 9.4345 22.0137 -8.95009
182 1 20.4415 1.57242 11.007 -8.94964
343 1 18.8691 9.43453 18.8691 -8.94964
342 1 15.7242 9.43453 18.8691 -8.9496
185 1 7.86139 4.71486 11.0075 -8.95374
186 1 11.007 4.71554 11.0078 -8.94829
187 1 14.1525 4.71486 11.0075 -8.95374
341 1 12.5794 9.4345 18.8692 -8.95009
340 1 9.4345 9.4345 18.8692 -8.95009
190 1 1.57223 7.86207 11.007 -8.95018
191 1 4.7147 7.86136 11.0075 -8.95354
192 1 7.83951 7.8415 11.0264 -8.86874
193 1 11.007 7.8567 11.0223 -8.89648
194 1 14.1744 7.8415 11.0264 -8.86874
195 1 17.2992 7.86136 11.0075 -8.95354
196 1 20.4417 7.86207 11.007 -8.95018
197 1 1.37114e-15 1.58376e-15 12.5794 -8.94963
198 1 1.57242 1.57242 14.1518 -8.94965
199 1 3.14484 1.4636e-15 12.5794 -8.94963
200 1 4.71725 1.57239 14.1518 -8.94962
201 1 6.28967 1.89665e-15 12.5794 -8.94973
202 1 7.8621 1.57239 14.1518 -8.94965
203 1 9.43452 -5.97437e-17 12.5794 -8.94972
204 1 11.007 1.57239 14.1518 -8.94962
205 1 12.5794 -5.48175e-16 12.5794 -8.94972
206 1 14.1518 1.57239 14.1518 -8.94965
207 1 15.7242 1.7681e-15 12.5794 -8.94973
208 1 17.2967 1.57239 14.1518 -8.94962
209 1 18.8691 1.74584e-15 12.5794 -8.94963
210 1 20.4415 1.57242 14.1518 -8.94965
211 1 7.57139e-16 3.14484 12.5794 -8.94963
212 1 1.57239 4.71725 14.1518 -8.94962
213 1 3.14484 3.14484 12.5794 -8.94971
214 1 4.71698 4.71698 14.1521 -8.9484
215 1 6.28953 3.14452 12.5795 -8.94991
216 1 7.862 4.7169 14.152 -8.9501
217 1 9.43451 3.14444 12.5795 -8.94996
218 1 11.007 4.71692 14.1521 -8.94903
219 1 12.5794 3.14444 12.5795 -8.94996
220 1 14.1519 4.7169 14.152 -8.9501
221 1 15.7244 3.14452 12.5795 -8.94991
222 1 17.2969 4.71698 14.1521 -8.9484
223 1 18.8691 3.14484 12.5794 -8.94971
224 1 20.4415 4.71725 14.1518 -8.94962
225 1 5.13057e-16 6.28967 12.5794 -8.94973
226 1 1.57239 7.8621 14.1518 -8.94966
227 1 3.14453 6.28954 12.5795 -8.94985
228 1 4.71692 7.86202 14.152 -8.95041
229 1 6.28678 6.28682 12.5822 -8.93907
230 1 7.85867 7.85867 14.1567 -8.94338
231 1 9.43411 6.28605 12.5808 -8.9535
232 1 11.007 7.86081 14.1545 -8.95254
233 1 12.5798 6.28605 12.5808 -8.9535
234 1 14.1552 7.85867 14.1567 -8.94338
235 1 15.7271 6.28682 12.5822 -8.93907
236 1 17.297 7.86202 14.152 -8.95041
237 1 18.8694 6.28954 12.5795 -8.94985
238 1 20.4415 7.8621 14.1518 -8.94966
239 1 2.42795e-16 9.43453 12.5794 -8.94972
240 1 3.14448 9.43454 12.5795 -8.94998
241 1 6.28652 9.43488 12.5804 -8.95428
242 1 9.4093 9.40929 12.5975 -8.85256
243 1 12.6046 9.40929 12.5975 -8.85256
244 1 15.7274 9.43488 12.5804 -8.95428
245 1 18.8694 9.43454 12.5795 -8.94998
246 1 3.19376e-16 1.11986e-15 15.7242 -8.94964
247 1 1.57242 1.57242 17.2966 -8.94962
248 1 3.14484 8.09312e-16 15.7242 -8.94962
249 1 4.71726 1.57242 17.2966 -8.94964
250 1 6.28969 1.62928e-15 15.7242 -8.94964
251 1 7.86211 1.57242 17.2966 -8.94963
252 1 9.43453 1.29729e-15 15.7242 -8.94964
253 1 11.007 1.57242 17.2966 -8.94964
254 1 12.5794 1.23346e-15 15.7242 -8.94964
255 1 14.1518 1.57242 17.2966 -8.94963
256 1 15.7242 1.61735e-15 15.7242 -8.94964
257 1 17.2966 1.57242 17.2966 -8.94964
258 1 18.8691 9.12284e-16 15.7242 -8.94962
259 1 20.4415 1.57242 17.2966 -8.94962
260 1 2.42597e-16 3.14484 15.7242 -8.94962
261 1 1.57242 4.71726 17.2966 -8.94964
262 1 3.14482 3.14482 15.7242 -8.94952
263 1 4.71723 4.71723 17.2967 -8.94949
264 1 6.28968 3.14481 15.7242 -8.94973
265 1 7.86211 4.71726 17.2966 -8.94969
266 1 9.43452 3.14482 15.7242 -8.94963
267 1 11.007 4.71725 17.2967 -8.94967
268 1 12.5794 3.14482 15.7242 -8.94963
269 1 14.1518 4.71726 17.2966 -8.94969
270 1 15.7242 3.14481 15.7242 -8.94973
271 1 17.2967 4.71723 17.2967 -8.94949
272 1 18.8691 3.14482 15.7242 -8.94952
273 1 20.4415 4.71726 17.2966 -8.94964
274 1 -5.60615e-16 6.28968 15.7242 -8.94964
275 1 1.57242 7.86211 17.2966 -8.94963
276 1 3.14481 6.28967 15.7242 -8.94973
277 1 4.71726 7.86211 17.2966 -8.9497
278 1 6.28927 6.28927 15.7248 -8.94858
279 1 7.86197 7.86197 17.2971 -8.95051
280 1 9.43454 6.28948 15.7245 -8.94944
281 1 11.007 7.86197 17.297 -8.94972
282 1 12.5794 6.28948 15.7245 -8.94944
283 1 14.1519 7.86197 17.2971 -8.95051
284 1 15.7246 6.28927 15.7248 -8.94858
285 1 17.2966 7.86211 17.2966 -8.9497
286 1 18.8691 6.28967 15.7242 -8.94973
287 1 20.4415 7.86211 17.2966 -8.94963
288 1 -3.45766e-16 9.43453 15.7242 -8.94963
289 1 3.14482 9.43452 15.7242 -8.94959
290 1 6.28951 9.43458 15.7244 -8.94953
291 1 9.43398 9.43404 15.7265 -8.95291
292 1 12.5799 9.43404 15.7265 -8.95291
293 1 15.7244 9.43458 15.7244 -8.94953
294 1 18.8691 9.43452 15.7242 -8.94959
295 1 1.76693e-15 -4.88916e-16 18.8691 -8.94963
296 1 1.57242 1.57242 20.4415 -8.94963
297 1 3.14484 7.62643e-17 18.8691 -8.94963
298 1 4.71726 1.57242 20.4415 -8.94964
299 1 6.28969 1.82416e-15 18.8691 -8.94963
300 1 7.86211 1.57242 20.4415 -8.94963
301 1 9.43453 1.14291e-15 18.8691 -8.94963
302 1 11.007 1.57242 20.4415 -8.94963
303 1 12.5794 1.16311e-15 18.8691 -8.94963
304 1 14.1518 1.57242 20.4415 -8.94963
305 1 15.7242 1.7582e-15 18.8691 -8.94963
306 1 17.2966 1.57242 20.4415 -8.94964
307 1 18.8691 5.57464e-16 18.8691 -8.94963
308 1 20.4415 1.57242 20.4415 -8.94963
309 1 8.95512e-16 3.14484 18.8691 -8.94963
310 1 1.57242 4.71726 20.4415 -8.94964
311 1 3.14484 3.14484 18.8691 -8.94962
312 1 4.71726 4.71726 20.4415 -8.94963
313 1 6.28969 3.14484 18.8691 -8.94965
314 1 7.86211 4.71726 20.4415 -8.94963
315 1 9.43453 3.14484 18.8691 -8.94964
316 1 11.007 4.71726 20.4415 -8.94964
317 1 12.5794 3.14484 18.8691 -8.94964
318 1 14.1518 4.71726 20.4415 -8.94963
319 1 15.7242 3.14484 18.8691 -8.94965
320 1 17.2966 4.71726 20.4415 -8.94963
321 1 18.8691 3.14484 18.8691 -8.94962
322 1 20.4415 4.71726 20.4415 -8.94964
323 1 -7.6545e-16 6.28969 18.8691 -8.94963
324 1 1.57242 7.86211 20.4415 -8.94963
325 1 3.14484 6.28969 18.8691 -8.94965
326 1 4.71726 7.86211 20.4415 -8.94963
327 1 6.28966 6.28966 18.8691 -8.94969
328 1 7.86209 7.86209 20.4415 -8.9498
329 1 9.43453 6.28967 18.8691 -8.94961
330 1 11.007 7.86209 20.4415 -8.94972
331 1 12.5794 6.28967 18.8691 -8.94961
332 1 14.1518 7.86209 20.4415 -8.9498
333 1 15.7242 6.28966 18.8691 -8.94969
334 1 17.2966 7.86211 20.4415 -8.94963
335 1 18.8691 6.28969 18.8691 -8.94965
336 1 20.4415 7.86211 20.4415 -8.94963
337 1 -2.60776e-16 9.43453 18.8691 -8.94963
338 1 3.14484 9.43453 18.8691 -8.94964
339 1 6.28967 9.43453 18.8691 -8.9496
3 1 3.14484 -2.21148e-16 22.0139 -8.94963
5 1 6.28969 1.79546e-15 22.0139 -8.94963
11 1 15.7242 2.08082e-15 22.0139 -8.94963
13 1 18.8691 6.791e-16 22.0139 -8.94963
15 1 8.57517e-16 3.14484 22.0139 -8.94963
17 1 3.14484 3.14484 22.0139 -8.94962
41 1 18.8691 6.28969 22.0139 -8.94965
39 1 15.7242 6.28966 22.0139 -8.94969
27 1 18.8691 3.14484 22.0139 -8.94962
29 1 -5.42357e-16 6.28969 22.0139 -8.94963
31 1 3.14484 6.28969 22.0139 -8.94965
33 1 6.28966 6.28966 22.0139 -8.94969
1 1 1.33301e-15 -5.19291e-16 22.0139 -8.94963
21 1 9.43453 3.14484 22.0139 -8.94964
23 1 12.5794 3.14484 22.0139 -8.94964
43 1 -3.75543e-16 9.43453 22.0139 -8.94963
44 1 3.14484 9.43453 22.0139 -8.94964
49 1 18.8691 9.43453 22.0139 -8.94964
344 1 1.57242 11.007 1.57242 -8.94964
345 1 4.71724 11.007 1.57239 -8.94967
346 1 7.86196 11.007 1.57214 -8.94939
347 1 11.007 11.007 1.57152 -8.95033
348 1 14.1519 11.007 1.57214 -8.94939
349 1 17.2967 11.007 1.57239 -8.94967
350 1 20.4415 11.007 1.57242 -8.94964
532 1 20.4415 17.2966 11.007 -8.94961
352 1 1.57242 14.1518 1.57242 -8.94963
531 1 17.2968 17.2968 11.007 -8.9497
354 1 4.71726 14.1518 1.57241 -8.9497
688 3 10.2436 11.007 9.43453 2.38214
356 1 7.86197 14.1519 1.57197 -8.95051
687 3 11.7703 11.007 9.43453 2.38214
358 1 11.007 14.1519 1.57209 -8.94972
511 1 18.8691 18.8691 9.43453 -8.9497
360 1 14.1519 14.1519 1.57197 -8.95051
510 1 15.7244 18.8693 9.43453 -8.94939
362 1 17.2966 14.1518 1.57241 -8.9497
527 1 4.71714 17.2968 11.007 -8.9497
364 1 20.4415 14.1518 1.57242 -8.94963
509 1 12.5793 18.8701 9.43453 -8.95073
366 1 1.57242 17.2966 1.57242 -8.94964
508 1 9.43457 18.8701 9.43453 -8.95073
368 1 4.71723 17.2967 1.57237 -8.94949
507 1 6.28954 18.8693 9.43453 -8.94939
370 1 7.86211 17.2966 1.57241 -8.94969
371 1 9.43453 15.7242 -2.52428e-05 -8.94961
372 1 11.007 17.2967 1.57239 -8.94967
373 1 12.5794 15.7242 -2.52428e-05 -8.94961
374 1 14.1518 17.2966 1.57241 -8.94969
506 1 3.14484 18.8691 9.43453 -8.9497
376 1 17.2967 17.2967 1.57237 -8.94949
505 1 -2.38388e-16 18.8691 9.43453 -8.94964
378 1 20.4415 17.2966 1.57242 -8.94964
504 1 18.8693 15.7244 9.43453 -8.94938
380 1 1.57242 20.4415 1.57242 -8.94962
503 1 15.726 15.7261 9.43453 -8.94728
382 1 4.71726 20.4415 1.57242 -8.94964
502 1 12.5802 15.7303 9.43453 -8.99026
384 1 7.86211 20.4415 1.57242 -8.94963
526 1 1.57241 17.2966 11.007 -8.94961
386 1 11.007 20.4415 1.57242 -8.94964
499 1 3.14459 15.7244 9.43453 -8.94938
388 1 14.1518 20.4415 1.57242 -8.94963
501 1 9.43373 15.7303 9.43453 -8.99026
390 1 17.2966 20.4415 1.57242 -8.94964
500 1 6.2879 15.7261 9.43453 -8.94728
392 1 20.4415 20.4415 1.57242 -8.94962
393 1 1.57239 11.007 4.71724 -8.94963
394 1 4.71687 11.007 4.71692 -8.94866
395 1 7.86084 11.007 4.71569 -8.94843
396 1 11.007 11.007 4.71167 -9.01354
397 1 14.1531 11.007 4.71569 -8.94843
398 1 17.297 11.007 4.71692 -8.94866
399 1 20.4415 11.007 4.71724 -8.94963
400 1 -2.66285e-16 12.5794 3.14484 -8.94963
401 1 1.57239 14.1518 4.71725 -8.94966
402 1 3.14482 12.5794 3.14482 -8.94959
403 1 4.71692 14.1519 4.71708 -8.95041
404 1 6.28951 12.5793 3.14462 -8.94953
405 1 7.85867 14.1552 4.71232 -8.94338
406 1 9.43398 12.5799 3.14257 -8.95291
407 1 11.007 14.1531 4.71457 -8.95254
408 1 12.5799 12.5799 3.14257 -8.95291
409 1 14.1552 14.1552 4.71232 -8.94338
410 1 15.7244 12.5793 3.14462 -8.94953
411 1 17.297 14.1519 4.71708 -8.95041
412 1 18.8691 12.5794 3.14482 -8.94959
413 1 20.4415 14.1518 4.71725 -8.94966
414 1 -2.86302e-16 15.7242 3.14484 -8.94964
415 1 1.57239 17.2967 4.71725 -8.94962
416 1 3.14481 15.7242 3.14483 -8.94973
417 1 4.71698 17.2969 4.71699 -8.9484
418 1 6.28927 15.7246 3.14426 -8.94858
419 1 7.862 17.297 4.71706 -8.9501
420 1 9.43454 15.7244 3.14458 -8.94944
421 1 11.007 17.297 4.71695 -8.94903
422 1 12.5794 15.7244 3.14458 -8.94944
423 1 14.1519 17.297 4.71706 -8.9501
424 1 15.7246 15.7246 3.14426 -8.94858
425 1 17.2969 17.2969 4.71699 -8.9484
426 1 18.8691 15.7242 3.14483 -8.94973
427 1 20.4415 17.2967 4.71725 -8.94962
428 1 3.96574e-16 18.8691 3.14484 -8.94962
429 1 1.57242 20.4415 4.71727 -8.94965
430 1 3.14482 18.8691 3.14482 -8.94952
431 1 4.71725 20.4415 4.71725 -8.94962
432 1 6.28968 18.8691 3.14483 -8.94973
433 1 7.8621 20.4415 4.71725 -8.94965
434 1 9.43452 18.8691 3.14482 -8.94963
435 1 11.007 20.4415 4.71724 -8.94962
436 1 12.5794 18.8691 3.14482 -8.94963
437 1 14.1518 20.4415 4.71725 -8.94965
438 1 15.7242 18.8691 3.14483 -8.94973
439 1 17.2967 20.4415 4.71725 -8.94962
440 1 18.8691 18.8691 3.14482 -8.94952
441 1 20.4415 20.4415 4.71727 -8.94965
442 1 1.57225 11.007 7.86204 -8.9496
443 1 4.71609 11.007 7.86156 -8.94606
444 1 7.86363 11.007 7.86211 -8.93425
445 1 11.007 11.007 7.54658 -7.46376
446 1 14.1503 11.007 7.86211 -8.93425
447 1 17.2978 11.007 7.86156 -8.94606
448 1 20.4417 11.007 7.86204 -8.9496
449 1 5.94449e-16 12.5794 6.28967 -8.94972
450 1 1.57223 14.1518 7.86208 -8.95018
451 1 3.14448 12.5794 6.28956 -8.94998
452 1 4.7147 14.1525 7.86152 -8.95354
453 1 6.28652 12.579 6.2887 -8.95428
454 1 7.83951 14.1724 7.84266 -8.86874
455 1 9.4093 12.6046 6.27152 -8.85256
456 1 11.007 14.1572 7.8468 -8.89648
457 1 12.6046 12.6046 6.27152 -8.85256
458 1 14.1744 14.1724 7.84266 -8.86874
459 1 15.7274 12.579 6.2887 -8.95428
460 1 17.2992 14.1525 7.86152 -8.95354
461 1 18.8694 12.5794 6.28956 -8.94998
462 1 20.4417 14.1518 7.86208 -8.95018
463 1 4.17739e-16 15.7242 6.28967 -8.94973
464 1 1.57241 17.2966 7.86211 -8.94961
465 1 3.14453 15.7244 6.28955 -8.94985
466 1 4.71714 17.2968 7.86207 -8.9497
467 1 6.28678 15.7271 6.28682 -8.93907
468 1 7.86139 17.299 7.86157 -8.95374
469 1 9.43411 15.7279 6.28824 -8.9535
470 1 11.007 17.2984 7.86131 -8.94829
471 1 12.5798 15.7279 6.28824 -8.9535
472 1 14.1525 17.299 7.86157 -8.95374
473 1 15.7271 15.7271 6.28682 -8.93907
474 1 17.2968 17.2968 7.86207 -8.9497
475 1 18.8694 15.7244 6.28955 -8.94985
476 1 20.4415 17.2966 7.86211 -8.94961
477 1 5.31944e-16 18.8691 6.28969 -8.94963
478 1 1.57242 20.4415 7.86211 -8.94964
479 1 3.14484 18.8691 6.28969 -8.94971
480 1 4.71725 20.4415 7.86211 -8.9496
481 1 6.28953 18.8694 6.28954 -8.94991
482 1 7.86206 20.4417 7.86207 -8.95014
483 1 9.43451 18.8695 6.28953 -8.94996
484 1 11.007 20.4417 7.86203 -8.94975
485 1 12.5794 18.8695 6.28953 -8.94996
486 1 14.1518 20.4417 7.86207 -8.95014
487 1 15.7244 18.8694 6.28954 -8.94991
488 1 17.2966 20.4415 7.86211 -8.9496
489 1 18.8691 18.8691 6.28969 -8.94971
490 1 20.4415 20.4415 7.86211 -8.94964
491 1 4.0838e-16 12.5794 9.43453 -8.95004
492 1 3.14383 12.5793 9.43453 -8.95155
493 1 6.2807 12.5817 9.43453 -8.96899
494 1 9.35177 12.773 9.43453 -8.03725
495 1 12.6621 12.773 9.43453 -8.03725
496 1 15.7332 12.5817 9.43453 -8.96899
497 1 18.8701 12.5793 9.43453 -8.95155
498 1 3.56553e-17 15.7242 9.43453 -8.94966
534 1 4.71725 20.4415 11.007 -8.9496
538 1 17.2966 20.4415 11.007 -8.9496
389 1 15.7242 18.8691 9.94893e-07 -8.94965
383 1 6.28969 18.8691 9.94893e-07 -8.94965
355 1 6.28967 12.5794 -2.39003e-05 -8.9496
361 1 15.7242 12.5794 -2.39003e-05 -8.9496
512 1 1.57225 11.007 11.007 -8.9496
513 1 4.71609 11.007 11.0075 -8.94606
514 1 7.86363 11.007 11.0069 -8.93425
515 1 11.007 11.007 11.3225 -7.46376
516 1 14.1503 11.007 11.0069 -8.93425
517 1 17.2978 11.007 11.0075 -8.94606
518 1 20.4417 11.007 11.007 -8.9496
519 1 1.57223 14.1518 11.007 -8.95018
520 1 4.7147 14.1525 11.0075 -8.95354
521 1 7.83951 14.1724 11.0264 -8.86874
522 1 11.007 14.1572 11.0223 -8.89648
523 1 14.1744 14.1724 11.0264 -8.86874
524 1 17.2992 14.1525 11.0075 -8.95354
525 1 20.4417 14.1518 11.007 -8.95018
686 1 20.4415 20.4415 20.4415 -8.94963
685 1 18.8691 18.8691 18.8691 -8.94962
528 1 7.86139 17.299 11.0075 -8.95374
529 1 11.007 17.2984 11.0078 -8.94829
530 1 14.1525 17.299 11.0075 -8.95374
684 1 17.2966 20.4415 20.4415 -8.94964
683 1 15.7242 18.8691 18.8691 -8.94965
533 1 1.57242 20.4415 11.007 -8.94964
391 1 18.8691 18.8691 22.0139 -8.94962
535 1 7.86206 20.4417 11.007 -8.95014
536 1 11.007 20.4417 11.007 -8.94975
537 1 14.1518 20.4417 11.007 -8.95014
381 1 3.14484 18.8691 22.0139 -8.94962
539 1 20.4415 20.4415 11.007 -8.94964
540 1 1.57239 11.007 14.1518 -8.94963
541 1 4.71687 11.007 14.1521 -8.94866
542 1 7.86084 11.007 14.1534 -8.94843
543 1 11.007 11.007 14.1574 -9.01354
544 1 14.1531 11.007 14.1534 -8.94843
545 1 17.297 11.007 14.1521 -8.94866
546 1 20.4415 11.007 14.1518 -8.94963
547 1 -2.66558e-17 12.5794 12.5794 -8.94972
548 1 1.57239 14.1518 14.1518 -8.94966
549 1 3.14448 12.5794 12.5795 -8.94998
550 1 4.71692 14.1519 14.152 -8.95041
551 1 6.28652 12.579 12.5804 -8.95428
552 1 7.85867 14.1552 14.1567 -8.94338
553 1 9.4093 12.6046 12.5975 -8.85256
554 1 11.007 14.1531 14.1545 -8.95254
555 1 12.6046 12.6046 12.5975 -8.85256
556 1 14.1552 14.1552 14.1567 -8.94338
557 1 15.7274 12.579 12.5804 -8.95428
558 1 17.297 14.1519 14.152 -8.95041
559 1 18.8694 12.5794 12.5795 -8.94998
560 1 20.4415 14.1518 14.1518 -8.94966
561 1 8.51561e-16 15.7242 12.5794 -8.94973
562 1 1.57239 17.2967 14.1518 -8.94962
563 1 3.14453 15.7244 12.5795 -8.94985
564 1 4.71698 17.2969 14.1521 -8.9484
565 1 6.28678 15.7271 12.5822 -8.93907
566 1 7.862 17.297 14.152 -8.9501
567 1 9.43411 15.7279 12.5808 -8.9535
568 1 11.007 17.297 14.1521 -8.94903
569 1 12.5798 15.7279 12.5808 -8.9535
570 1 14.1519 17.297 14.152 -8.9501
571 1 15.7271 15.7271 12.5822 -8.93907
572 1 17.2969 17.2969 14.1521 -8.9484
573 1 18.8694 15.7244 12.5795 -8.94985
574 1 20.4415 17.2967 14.1518 -8.94962
575 1 8.9307e-16 18.8691 12.5794 -8.94963
576 1 1.57242 20.4415 14.1518 -8.94965
577 1 3.14484 18.8691 12.5794 -8.94971
578 1 4.71725 20.4415 14.1518 -8.94962
579 1 6.28953 18.8694 12.5795 -8.94991
580 1 7.8621 20.4415 14.1518 -8.94965
581 1 9.43451 18.8695 12.5795 -8.94996
582 1 11.007 20.4415 14.1518 -8.94962
583 1 12.5794 18.8695 12.5795 -8.94996
584 1 14.1518 20.4415 14.1518 -8.94965
585 1 15.7244 18.8694 12.5795 -8.94991
586 1 17.2967 20.4415 14.1518 -8.94962
587 1 18.8691 18.8691 12.5794 -8.94971
588 1 20.4415 20.4415 14.1518 -8.94965
589 1 1.57242 11.007 17.2966 -8.94964
590 1 4.71724 11.007 17.2967 -8.94967
591 1 7.86196 11.007 17.2969 -8.94939
592 1 11.007 11.007 17.2975 -8.95033
593 1 14.1519 11.007 17.2969 -8.94939
594 1 17.2967 11.007 17.2967 -8.94967
595 1 20.4415 11.007 17.2966 -8.94964
596 1 -3.13789e-16 12.5794 15.7242 -8.94963
597 1 1.57242 14.1518 17.2966 -8.94963
598 1 3.14482 12.5794 15.7242 -8.94959
599 1 4.71726 14.1518 17.2966 -8.9497
600 1 6.28951 12.5793 15.7244 -8.94953
601 1 7.86197 14.1519 17.2971 -8.95051
602 1 9.43398 12.5799 15.7265 -8.95291
603 1 11.007 14.1519 17.297 -8.94972
604 1 12.5799 12.5799 15.7265 -8.95291
605 1 14.1519 14.1519 17.2971 -8.95051
606 1 15.7244 12.5793 15.7244 -8.94953
607 1 17.2966 14.1518 17.2966 -8.9497
608 1 18.8691 12.5794 15.7242 -8.94959
609 1 20.4415 14.1518 17.2966 -8.94963
610 1 -3.9979e-16 15.7242 15.7242 -8.94964
611 1 1.57242 17.2966 17.2966 -8.94964
612 1 3.14481 15.7242 15.7242 -8.94973
613 1 4.71723 17.2967 17.2967 -8.94949
614 1 6.28927 15.7246 15.7248 -8.94858
615 1 7.86211 17.2966 17.2966 -8.94969
616 1 9.43454 15.7244 15.7245 -8.94944
617 1 11.007 17.2967 17.2967 -8.94967
618 1 12.5794 15.7244 15.7245 -8.94944
619 1 14.1518 17.2966 17.2966 -8.94969
620 1 15.7246 15.7246 15.7248 -8.94858
621 1 17.2967 17.2967 17.2967 -8.94949
622 1 18.8691 15.7242 15.7242 -8.94973
623 1 20.4415 17.2966 17.2966 -8.94964
624 1 6.30038e-16 18.8691 15.7242 -8.94962
625 1 1.57242 20.4415 17.2966 -8.94962
626 1 3.14482 18.8691 15.7242 -8.94952
627 1 4.71726 20.4415 17.2966 -8.94964
628 1 6.28968 18.8691 15.7242 -8.94973
629 1 7.86211 20.4415 17.2966 -8.94963
630 1 9.43452 18.8691 15.7242 -8.94963
631 1 11.007 20.4415 17.2966 -8.94964
632 1 12.5794 18.8691 15.7242 -8.94963
633 1 14.1518 20.4415 17.2966 -8.94963
634 1 15.7242 18.8691 15.7242 -8.94973
635 1 17.2966 20.4415 17.2966 -8.94964
636 1 18.8691 18.8691 15.7242 -8.94952
637 1 20.4415 20.4415 17.2966 -8.94962
638 1 1.57242 11.007 20.4415 -8.94963
639 1 4.71726 11.007 20.4415 -8.94964
640 1 7.86209 11.007 20.4415 -8.94969
641 1 11.007 11.007 20.4415 -8.94993
642 1 14.1518 11.007 20.4415 -8.94969
643 1 17.2966 11.007 20.4415 -8.94964
644 1 20.4415 11.007 20.4415 -8.94963
645 1 -3.85004e-16 12.5794 18.8691 -8.94963
646 1 1.57242 14.1518 20.4415 -8.94963
647 1 3.14484 12.5794 18.8691 -8.94964
648 1 4.71726 14.1518 20.4415 -8.94963
649 1 6.28967 12.5794 18.8691 -8.9496
650 1 7.86209 14.1518 20.4415 -8.9498
651 1 9.4345 12.5794 18.8692 -8.95009
652 1 11.007 14.1518 20.4415 -8.94972
653 1 12.5794 12.5794 18.8692 -8.95009
654 1 14.1518 14.1518 20.4415 -8.9498
655 1 15.7242 12.5794 18.8691 -8.9496
656 1 17.2966 14.1518 20.4415 -8.94963
657 1 18.8691 12.5794 18.8691 -8.94964
658 1 20.4415 14.1518 20.4415 -8.94963
659 1 -8.36612e-16 15.7242 18.8691 -8.94963
660 1 1.57242 17.2966 20.4415 -8.94964
661 1 3.14484 15.7242 18.8691 -8.94965
662 1 4.71726 17.2966 20.4415 -8.94963
663 1 6.28966 15.7242 18.8691 -8.94969
664 1 7.86211 17.2966 20.4415 -8.94963
665 1 9.43453 15.7242 18.8691 -8.94961
666 1 11.007 17.2966 20.4415 -8.94964
667 1 12.5794 15.7242 18.8691 -8.94961
668 1 14.1518 17.2966 20.4415 -8.94963
669 1 15.7242 15.7242 18.8691 -8.94969
670 1 17.2966 17.2966 20.4415 -8.94963
671 1 18.8691 15.7242 18.8691 -8.94965
672 1 20.4415 17.2966 20.4415 -8.94964
673 1 3.33879e-16 18.8691 18.8691 -8.94963
674 1 1.57242 20.4415 20.4415 -8.94963
675 1 3.14484 18.8691 18.8691 -8.94962
676 1 4.71726 20.4415 20.4415 -8.94964
677 1 6.28969 18.8691 18.8691 -8.94965
678 1 7.86211 20.4415 20.4415 -8.94963
679 1 9.43453 18.8691 18.8691 -8.94964
680 1 11.007 20.4415 20.4415 -8.94963
681 1 12.5794 18.8691 18.8691 -8.94964
682 1 14.1518 20.4415 20.4415 -8.94963
379 1 4.26672e-16 18.8691 22.0139 -8.94963
357 1 9.4345 12.5794 22.0137 -8.95009
359 1 12.5794 12.5794 22.0137 -8.95009
377 1 18.8691 15.7242 22.0139 -8.94965
365 1 -4.67465e-16 15.7242 22.0139 -8.94963
367 1 3.14484 15.7242 22.0139 -8.94965
369 1 6.28966 15.7242 22.0139 -8.94969
375 1 15.7242 15.7242 22.0139 -8.94969
351 1 -2.79661e-16 12.5794 22.0139 -8.94963
353 1 3.14484 12.5794 22.0139 -8.94964
363 1 18.8691 12.5794 22.0139 -8.94964
385 1 9.43453 18.8691 22.0139 -8.94964
387 1 12.5794 18.8691 22.0139 -8.94964
