ITEM: TIMESTEP
96
ITEM: NUMBER OF ATOMS
688
ITEM: BOX BOUNDS pp pp pp
0.0000000000000000e+00 2.2013900999999997e+01
0.0000000000000000e+00 2.2013900999999997e+01
0.0000000000000000e+00 2.2013900999999997e+01
ITEM: ATOMS id type x y z c_pot
189 1 20.4433 4.71526 11.0077 -8.94925
2 1 1.57166 1.57175 1.57125 -8.94901
175 1 18.871 9.43463 9.43453 -8.94983
4 1 4.71593 1.57135 1.57094 -8.94944
174 1 15.7291 9.42676 9.43453 -8.97031
6 1 7.86139 1.57137 1.57101 -8.94935
7 1 9.43427 1.40027e-15 -0.000689625 -8.94941
8 1 11.007 1.57141 1.57099 -8.94938
9 1 12.5796 1.37568e-15 -0.000689625 -8.94941
10 1 14.1525 1.57137 1.57101 -8.94935
173 1 12.6467 9.20482 9.43453 -8.07309
12 1 17.298 1.57135 1.57094 -8.94944
172 1 9.36719 9.20482 9.43453 -8.07309
14 1 20.4422 1.57175 1.57125 -8.94901
171 1 6.28479 9.42676 9.43453 -8.97031
16 1 1.5714 4.71639 1.57113 -8.94983
170 1 3.1429 9.43463 9.43453 -8.94983
18 1 4.71424 4.71455 1.56922 -8.9485
169 1 -7.14993e-17 9.43477 9.43453 -8.94924
20 1 7.86044 4.71448 1.56934 -8.94927
188 1 17.3018 4.7122 11.0086 -8.94728
22 1 11.007 4.71462 1.56946 -8.94906
184 1 4.7121 4.7122 11.0086 -8.94728
24 1 14.1535 4.71448 1.56934 -8.94927
168 1 18.8743 6.28617 9.43453 -8.94891
26 1 17.2997 4.71455 1.56922 -8.9485
167 1 15.736 6.27798 9.43453 -8.9401
28 1 20.4425 4.71639 1.57113 -8.94983
166 1 12.5831 6.29363 9.43453 -9.0004
30 1 1.57153 7.86173 1.57132 -8.94929
165 1 9.43078 6.29363 9.43453 -9.0004
32 1 4.71494 7.86132 1.57034 -8.94934
164 1 6.27786 6.27798 9.43453 -8.9401
34 1 7.85932 7.85972 1.56691 -8.95286
35 1 9.43383 6.2879 -0.00201714 -8.94985
36 1 11.007 7.8599 1.56727 -8.95133
37 1 12.5801 6.2879 -0.00201714 -8.94985
38 1 14.1546 7.85972 1.56691 -8.95286
163 1 3.13962 6.28617 9.43453 -8.94891
40 1 17.299 7.86132 1.57034 -8.94934
162 1 4.71361e-15 6.28821 9.43453 -8.95033
42 1 20.4424 7.86173 1.57132 -8.94929
183 1 1.5706 4.71526 11.0077 -8.94925
157 1 6.28619 3.14001 9.43453 -8.94944
161 1 18.8714 3.14254 9.43453 -8.94937
160 1 15.7277 3.14001 9.43453 -8.94944
159 1 12.5799 3.14372 9.43453 -8.9456
158 1 9.43403 3.14372 9.43453 -8.9456
156 1 3.14248 3.14254 9.43453 -8.94937
50 1 1.38032e-15 8.05069e-16 3.14383 -8.94938
51 1 1.57159 1.57162 4.71616 -8.94932
52 1 3.1436 1.29246e-15 3.14348 -8.94953
53 1 4.71544 1.57071 4.71565 -8.95005
54 1 6.28857 8.01067e-16 3.14335 -8.94992
55 1 7.86112 1.57033 4.71569 -8.95051
56 1 9.43415 2.88349e-16 3.1433 -8.94946
57 1 11.007 1.5705 4.71546 -8.94956
58 1 12.5798 -3.98876e-16 3.1433 -8.94946
59 1 14.1528 1.57033 4.71569 -8.95051
60 1 15.7253 -5.41948e-16 3.14335 -8.94992
61 1 17.2985 1.57071 4.71565 -8.95005
62 1 18.8703 -1.29359e-15 3.14348 -8.94953
63 1 20.4423 1.57162 4.71616 -8.94932
64 1 2.34707e-15 3.14372 3.14339 -8.94944
65 1 1.57058 4.71554 4.71548 -8.94992
66 1 3.14254 3.14273 3.14255 -8.94837
67 1 4.71127 4.71168 4.71212 -8.94513
68 1 6.28727 3.14153 3.14195 -8.94939
69 1 7.85765 4.70942 4.71161 -8.9488
70 1 9.43378 3.14191 3.14223 -8.94904
71 1 11.007 4.71104 4.71199 -8.94599
72 1 12.5801 3.14191 3.14223 -8.94904
73 1 14.1563 4.70942 4.71161 -8.9488
74 1 15.7266 3.14153 3.14195 -8.94939
75 1 17.3026 4.71168 4.71212 -8.94513
76 1 18.8714 3.14273 3.14255 -8.94837
77 1 20.4433 4.71554 4.71548 -8.94992
78 1 1.70626e-15 6.28912 3.14364 -8.95004
79 1 1.57088 7.86181 4.71617 -8.95023
80 1 3.14202 6.28825 3.14262 -8.95054
81 1 4.71155 7.86028 4.71406 -8.95267
82 1 6.28284 6.28329 3.13679 -8.94646
83 1 7.84653 7.84684 4.69831 -8.9404
84 1 9.43245 6.2843 3.13805 -8.94819
85 1 11.007 7.85376 4.70138 -8.95375
86 1 12.5815 6.2843 3.13805 -8.94819
87 1 14.1674 7.84684 4.69831 -8.9404
88 1 15.7311 6.28329 3.13679 -8.94646
89 1 17.3023 7.86028 4.71406 -8.95267
90 1 18.8719 6.28825 3.14262 -8.95054
91 1 20.443 7.86181 4.71617 -8.95023
92 1 5.18818e-16 9.43434 3.14361 -8.9495
93 1 3.1425 9.43415 3.14301 -8.94885
94 1 6.28565 9.43392 3.1412 -8.9478
95 1 9.43093 9.43187 3.13576 -8.95476
96 1 12.583 9.43187 3.13576 -8.95476
97 1 15.7283 9.43392 3.1412 -8.9478
98 1 18.8714 9.43415 3.14301 -8.94885
99 1 1.32988e-15 1.15395e-15 6.28898 -8.94936
100 1 1.57153 1.57154 7.86166 -8.94934
101 1 3.14348 1.59291e-15 6.28881 -8.94928
102 1 4.71524 1.57068 7.86147 -8.94933
103 1 6.28849 1.39875e-15 6.28888 -8.95062
104 1 7.86126 1.57038 7.86191 -8.9513
105 1 9.43441 -5.48805e-16 6.28901 -8.95084
106 1 11.007 1.57147 7.86213 -8.94927
107 1 12.5795 -6.85739e-15 6.28901 -8.95084
108 1 14.1526 1.57038 7.86191 -8.9513
109 1 15.7254 -6.58882e-15 6.28888 -8.95062
110 1 17.2987 1.57068 7.86147 -8.94933
111 1 18.8704 -6.91211e-16 6.28881 -8.94928
112 1 20.4424 1.57154 7.86166 -8.94934
113 1 1.69051e-15 3.14351 6.28875 -8.94926
114 1 1.5706 4.71526 7.8614 -8.94925
115 1 3.14256 3.14262 6.28833 -8.94905
116 1 4.7121 4.7122 7.86046 -8.94728
117 1 6.28677 3.14001 6.28764 -8.95147
118 1 7.85808 4.70796 7.86083 -8.9585
119 1 9.43404 3.14009 6.28782 -8.95264
120 1 11.007 4.71418 7.86139 -8.95352
121 1 12.5799 3.14009 6.28782 -8.95264
122 1 14.1558 4.70796 7.86083 -8.9585
123 1 15.7271 3.14001 6.28764 -8.95147
124 1 17.3018 4.7122 7.86046 -8.94728
125 1 18.8713 3.14262 6.28833 -8.94905
126 1 20.4433 4.71526 7.8614 -8.94925
127 1 4.7301e-15 6.28859 6.28869 -8.95089
128 1 1.57008 7.86141 7.86179 -8.95214
129 1 3.13951 6.28674 6.28726 -8.95111
130 1 4.70607 7.85733 7.86 -8.95827
131 1 6.27434 6.2753 6.27717 -8.93201
132 1 7.81993 7.82408 7.83048 -8.86208
133 1 9.42794 6.27264 6.2784 -8.95115
134 1 11.007 7.84717 7.81897 -8.86011
135 1 12.586 6.27264 6.2784 -8.95115
136 1 14.194 7.82408 7.83048 -8.86208
137 1 15.7396 6.2753 6.27717 -8.93201
138 1 17.3078 7.85733 7.86 -8.95827
139 1 18.8744 6.28674 6.28726 -8.95111
140 1 20.4438 7.86141 7.86179 -8.95214
141 1 2.69591e-15 9.43466 6.28911 -8.94985
142 1 3.14198 9.43498 6.28893 -8.95114
143 1 6.28033 9.43536 6.28716 -8.95945
144 1 9.39305 9.39058 6.25832 -8.84111
145 1 12.6209 9.39058 6.25832 -8.84111
146 1 15.7336 9.43536 6.28716 -8.95945
147 1 18.8719 9.43498 6.28893 -8.95114
148 1 1.15005e-15 6.26912e-16 9.43453 -8.94938
149 1 3.14341 1.38329e-15 9.43453 -8.94939
150 1 6.28816 1.76829e-15 9.43453 -8.95037
151 1 9.43436 -2.93318e-15 9.43453 -8.9483
152 1 12.5795 -1.31532e-15 9.43453 -8.9483
153 1 15.7257 -7.16528e-15 9.43453 -8.95037
154 1 18.8705 -7.6679e-16 9.43453 -8.94939
155 1 1.74236e-15 3.14342 9.43453 -8.94938
177 1 4.71524 1.57068 11.0076 -8.94933
48 1 15.7261 9.43417 -0.00136921 -8.94914
181 1 17.2987 1.57068 11.0076 -8.94933
19 1 6.28854 3.14342 -0.00109453 -8.94947
45 1 6.28785 9.43417 -0.00136921 -8.94914
25 1 15.7254 3.14342 -0.00109453 -8.94947
176 1 1.57153 1.57154 11.0074 -8.94934
47 1 12.5802 9.43416 22.0117 -8.95082
178 1 7.86126 1.57038 11.0071 -8.9513
179 1 11.007 1.57147 11.0069 -8.94927
180 1 14.1526 1.57038 11.0071 -8.9513
46 1 9.4337 9.43416 22.0117 -8.95082
182 1 20.4424 1.57154 11.0074 -8.94934
343 1 18.8703 9.43432 18.8698 -8.94939
342 1 15.7261 9.43417 18.8704 -8.94914
185 1 7.85808 4.70796 11.0082 -8.9585
186 1 11.007 4.71418 11.0077 -8.95352
187 1 14.1558 4.70796 11.0082 -8.9585
341 1 12.5802 9.43416 18.8712 -8.95082
340 1 9.4337 9.43416 18.8712 -8.95082
190 1 1.57008 7.86141 11.0073 -8.95214
191 1 4.70607 7.85733 11.0091 -8.95827
192 1 7.81993 7.82408 11.0386 -8.86208
193 1 11.007 7.84717 11.0501 -8.86011
194 1 14.194 7.82408 11.0386 -8.86208
195 1 17.3078 7.85733 11.0091 -8.95827
196 1 20.4438 7.86141 11.0073 -8.95214
197 1 1.50083e-15 1.2581e-15 12.5801 -8.94936
198 1 1.57159 1.57162 14.1529 -8.94932
199 1 3.14348 8.75803e-16 12.5802 -8.94928
200 1 4.71544 1.57071 14.1534 -8.95005
201 1 6.28849 9.908e-16 12.5802 -8.95062
202 1 7.86112 1.57033 14.1534 -8.95051
203 1 9.43441 -3.69549e-16 12.5801 -8.95084
204 1 11.007 1.5705 14.1536 -8.94956
205 1 12.5795 -5.95973e-15 12.5801 -8.95084
206 1 14.1528 1.57033 14.1534 -8.95051
207 1 15.7254 -5.95976e-15 12.5802 -8.95062
208 1 17.2985 1.57071 14.1534 -8.95005
209 1 18.8704 -2.0895e-16 12.5802 -8.94928
210 1 20.4423 1.57162 14.1529 -8.94932
211 1 1.91916e-15 3.14351 12.5803 -8.94926
212 1 1.57058 4.71554 14.1536 -8.94992
213 1 3.14256 3.14262 12.5807 -8.94905
214 1 4.71127 4.71168 14.1569 -8.94513
215 1 6.28677 3.14001 12.5814 -8.95147
216 1 7.85765 4.70942 14.1574 -8.9488
217 1 9.43404 3.14009 12.5812 -8.95264
218 1 11.007 4.71104 14.1571 -8.94599
219 1 12.5799 3.14009 12.5812 -8.95264
220 1 14.1563 4.70942 14.1574 -8.9488
221 1 15.7271 3.14001 12.5814 -8.95147
222 1 17.3026 4.71168 14.1569 -8.94513
223 1 18.8713 3.14262 12.5807 -8.94905
224 1 20.4433 4.71554 14.1536 -8.94992
225 1 4.33311e-15 6.28859 12.5804 -8.95089
226 1 1.57088 7.86181 14.1529 -8.95023
227 1 3.13951 6.28674 12.5818 -8.95111
228 1 4.71155 7.86028 14.155 -8.95267
229 1 6.27434 6.2753 12.5919 -8.93201
230 1 7.84653 7.84684 14.1708 -8.9404
231 1 9.42794 6.27264 12.5907 -8.95115
232 1 11.007 7.85376 14.1677 -8.95375
233 1 12.586 6.27264 12.5907 -8.95115
234 1 14.1674 7.84684 14.1708 -8.9404
235 1 15.7396 6.2753 12.5919 -8.93201
236 1 17.3023 7.86028 14.155 -8.95267
237 1 18.8744 6.28674 12.5818 -8.95111
238 1 20.443 7.86181 14.1529 -8.95023
239 1 2.62965e-15 9.43466 12.5799 -8.94985
240 1 3.14198 9.43498 12.5801 -8.95114
241 1 6.28033 9.43536 12.5819 -8.95945
242 1 9.39305 9.39058 12.6107 -8.84111
243 1 12.6209 9.39058 12.6107 -8.84111
244 1 15.7336 9.43536 12.5819 -8.95945
245 1 18.8719 9.43498 12.5801 -8.95114
246 1 1.71881e-15 7.48096e-16 15.7252 -8.94938
247 1 1.57166 1.57175 17.2978 -8.94901
248 1 3.1436 1.12593e-15 15.7256 -8.94953
249 1 4.71593 1.57135 17.2981 -8.94944
250 1 6.28857 -1.17347e-17 15.7257 -8.94992
251 1 7.86139 1.57137 17.298 -8.94935
252 1 9.43415 -4.24458e-16 15.7258 -8.94946
253 1 11.007 1.57141 17.2981 -8.94938
254 1 12.5798 -2.95748e-16 15.7258 -8.94946
255 1 14.1525 1.57137 17.298 -8.94935
256 1 15.7253 1.29631e-16 15.7257 -8.94992
257 1 17.298 1.57135 17.2981 -8.94944
258 1 18.8703 6.59137e-17 15.7256 -8.94953
259 1 20.4422 1.57175 17.2978 -8.94901
260 1 2.16306e-15 3.14372 15.7257 -8.94944
261 1 1.5714 4.71639 17.2979 -8.94983
262 1 3.14254 3.14273 15.7265 -8.94837
263 1 4.71424 4.71455 17.2998 -8.9485
264 1 6.28727 3.14153 15.7271 -8.94939
265 1 7.86044 4.71448 17.2997 -8.94927
266 1 9.43378 3.14191 15.7268 -8.94904
267 1 11.007 4.71462 17.2996 -8.94906
268 1 12.5801 3.14191 15.7268 -8.94904
269 1 14.1535 4.71448 17.2997 -8.94927
270 1 15.7266 3.14153 15.7271 -8.94939
271 1 17.2997 4.71455 17.2998 -8.9485
272 1 18.8714 3.14273 15.7265 -8.94837
273 1 20.4425 4.71639 17.2979 -8.94983
274 1 1.30895e-15 6.28912 15.7254 -8.95004
275 1 1.57153 7.86173 17.2977 -8.94929
276 1 3.14202 6.28825 15.7264 -8.95054
277 1 4.71494 7.86132 17.2987 -8.94934
278 1 6.28284 6.28329 15.7323 -8.94646
279 1 7.85932 7.85972 17.3022 -8.95286
280 1 9.43245 6.2843 15.731 -8.94819
281 1 11.007 7.8599 17.3018 -8.95133
282 1 12.5815 6.2843 15.731 -8.94819
283 1 14.1546 7.85972 17.3022 -8.95286
284 1 15.7311 6.28329 15.7323 -8.94646
285 1 17.299 7.86132 17.2987 -8.94934
286 1 18.8719 6.28825 15.7264 -8.95054
287 1 20.4424 7.86173 17.2977 -8.94929
288 1 8.50063e-16 9.43434 15.7254 -8.9495
289 1 3.1425 9.43415 15.7261 -8.94885
290 1 6.28565 9.43392 15.7279 -8.9478
291 1 9.43093 9.43187 15.7333 -8.95476
292 1 12.583 9.43187 15.7333 -8.95476
293 1 15.7283 9.43392 15.7279 -8.9478
294 1 18.8714 9.43415 15.7261 -8.94885
295 1 1.17805e-15 1.28178e-15 18.8696 -8.94882
296 1 1.57181 1.57195 20.4415 -8.94903
297 1 3.14399 1.05656e-15 18.8698 -8.9493
298 1 4.71637 1.57178 20.4415 -8.94946
299 1 6.28898 5.49561e-16 18.8697 -8.94943
300 1 7.86159 1.57174 20.4415 -8.94939
301 1 9.43427 1.653e-15 18.8697 -8.94941
302 1 11.007 1.57175 20.4415 -8.9494
303 1 12.5796 1.14455e-15 18.8697 -8.94941
304 1 14.1523 1.57174 20.4415 -8.94939
305 1 15.7249 9.82088e-16 18.8697 -8.94943
306 1 17.2975 1.57178 20.4415 -8.94946
307 1 18.8699 1.59432e-15 18.8698 -8.9493
308 1 20.4421 1.57195 20.4415 -8.94903
309 1 1.76259e-15 3.14428 18.8697 -8.94953
310 1 1.5718 4.71676 20.4415 -8.94959
311 1 3.14345 3.14368 18.8701 -8.9491
312 1 4.71564 4.7159 20.4415 -8.94988
313 1 6.28854 3.14342 18.8702 -8.94947
314 1 7.86118 4.71573 20.4415 -8.9496
315 1 9.43413 3.14343 18.8701 -8.94933
316 1 11.007 4.71571 20.4415 -8.94954
317 1 12.5798 3.14343 18.8701 -8.94933
318 1 14.1527 4.71573 20.4415 -8.9496
319 1 15.7254 3.14342 18.8702 -8.94947
320 1 17.2983 4.7159 20.4415 -8.94988
321 1 18.8704 3.14368 18.8701 -8.9491
322 1 20.4421 4.71676 20.4415 -8.94959
323 1 1.4405e-15 6.28931 18.8696 -8.94942
324 1 1.57181 7.86183 20.4415 -8.94942
325 1 3.14355 6.28905 18.8699 -8.94957
326 1 4.71578 7.86161 20.4415 -8.94935
327 1 6.28767 6.28798 18.8712 -8.95068
328 1 7.86091 7.86124 20.4415 -8.95101
329 1 9.43383 6.2879 18.8711 -8.94985
330 1 11.007 7.86116 20.4415 -8.95062
331 1 12.5801 6.2879 18.8711 -8.94985
332 1 14.153 7.86124 20.4415 -8.95101
333 1 15.7262 6.28798 18.8712 -8.95068
334 1 17.2981 7.86161 20.4415 -8.94935
335 1 18.8704 6.28905 18.8699 -8.94957
336 1 20.4421 7.86183 20.4415 -8.94942
337 1 8.61822e-16 9.43439 18.8696 -8.94945
338 1 3.14356 9.43432 18.8698 -8.94939
339 1 6.28785 9.43417 18.8704 -8.94914
3 1 3.14399 7.61078e-16 22.0132 -8.9493
5 1 6.28898 7.51034e-16 22.0132 -8.94943
11 1 15.7249 7.22906e-16 22.0132 -8.94943
13 1 18.8699 9.16676e-16 22.0132 -8.9493
15 1 1.59802e-15 3.14428 22.0132 -8.94953
17 1 3.14345 3.14368 22.0129 -8.9491
41 1 18.8704 6.28905 22.0131 -8.94957
39 1 15.7262 6.28798 22.0118 -8.95068
27 1 18.8704 3.14368 22.0129 -8.9491
29 1 1.20829e-15 6.28931 22.0133 -8.94942
31 1 3.14355 6.28905 22.0131 -8.94957
33 1 6.28767 6.28798 22.0118 -8.95068
1 1 1.04205e-15 4.19724e-16 22.0133 -8.94882
21 1 9.43413 3.14343 22.0129 -8.94933
23 1 12.5798 3.14343 22.0129 -8.94933
43 1 9.27933e-16 9.43439 22.0133 -8.94945
44 1 3.14356 9.43432 22.0131 -8.94939
49 1 18.8703 9.43432 22.0131 -8.94939
344 1 1.57157 11.007 1.57132 -8.94945
345 1 4.71497 11.007 1.57046 -8.94941
346 1 7.85951 11.007 1.56919 -8.94792
347 1 11.007 11.007 1.56863 -8.94994
348 1 14.1544 11.007 1.56919 -8.94792
349 1 17.2989 11.007 1.57046 -8.94941
350 1 20.4423 11.007 1.57132 -8.94945
532 1 20.4433 17.2986 11.0077 -8.94925
352 1 1.57153 14.1522 1.57132 -8.94929
531 1 17.3018 17.3017 11.0086 -8.94728
354 1 4.71494 14.1526 1.57034 -8.94934
688 3 10.2366 11.007 9.43453 2.24271
356 1 7.85932 14.1542 1.56691 -8.95286
687 3 11.7773 11.007 9.43453 2.24271
358 1 11.007 14.154 1.56727 -8.95133
511 1 18.8714 18.8714 9.43453 -8.94937
360 1 14.1546 14.1542 1.56691 -8.95286
510 1 15.7277 18.8739 9.43453 -8.94944
362 1 17.299 14.1526 1.57034 -8.94934
527 1 4.7121 17.3017 11.0086 -8.94728
364 1 20.4424 14.1522 1.57132 -8.94929
509 1 12.5799 18.8702 9.43453 -8.9456
366 1 1.5714 17.2975 1.57113 -8.94983
508 1 9.43403 18.8702 9.43453 -8.9456
368 1 4.71424 17.2993 1.56922 -8.9485
507 1 6.28619 18.8739 9.43453 -8.94944
370 1 7.86044 17.2994 1.56934 -8.94927
371 1 9.43383 15.726 -0.00201714 -8.94985
372 1 11.007 17.2993 1.56946 -8.94906
373 1 12.5801 15.726 -0.00201714 -8.94985
374 1 14.1535 17.2994 1.56934 -8.94927
506 1 3.14248 18.8714 9.43453 -8.94937
376 1 17.2997 17.2993 1.56922 -8.9485
505 1 6.03842e-16 18.8705 9.43453 -8.94938
378 1 20.4425 17.2975 1.57113 -8.94983
504 1 18.8743 15.7277 9.43453 -8.94891
380 1 1.57166 20.4422 1.57125 -8.94901
503 1 15.736 15.7359 9.43453 -8.9401
382 1 4.71593 20.4425 1.57094 -8.94944
502 1 12.5831 15.7203 9.43453 -9.0004
384 1 7.86139 20.4425 1.57101 -8.94935
526 1 1.5706 17.2986 11.0077 -8.94925
386 1 11.007 20.4425 1.57099 -8.94938
499 1 3.13962 15.7277 9.43453 -8.94891
388 1 14.1525 20.4425 1.57101 -8.94935
501 1 9.43078 15.7203 9.43453 -9.0004
390 1 17.298 20.4425 1.57094 -8.94944
500 1 6.27786 15.7359 9.43453 -8.9401
392 1 20.4422 20.4422 1.57125 -8.94901
393 1 1.571 11.007 4.71591 -8.94978
394 1 4.71256 11.007 4.71396 -8.94635
395 1 7.85649 11.007 4.71216 -8.9398
396 1 11.007 11.007 4.70691 -9.0243
397 1 14.1574 11.007 4.71216 -8.9398
398 1 17.3013 11.007 4.71396 -8.94635
399 1 20.4429 11.007 4.71591 -8.94978
400 1 1.39782e-16 12.5796 3.14361 -8.9495
401 1 1.57088 14.1521 4.71617 -8.95023
402 1 3.1425 12.5797 3.14301 -8.94885
403 1 4.71155 14.1536 4.71406 -8.95267
404 1 6.28565 12.58 3.1412 -8.9478
405 1 7.84653 14.1671 4.69831 -8.9404
406 1 9.43093 12.582 3.13576 -8.95476
407 1 11.007 14.1601 4.70138 -8.95375
408 1 12.583 12.582 3.13576 -8.95476
409 1 14.1674 14.1671 4.69831 -8.9404
410 1 15.7283 12.58 3.1412 -8.9478
411 1 17.3023 14.1536 4.71406 -8.95267
412 1 18.8714 12.5797 3.14301 -8.94885
413 1 20.443 14.1521 4.71617 -8.95023
414 1 -1.57859e-16 15.7248 3.14364 -8.95004
415 1 1.57058 17.2984 4.71548 -8.94992
416 1 3.14202 15.7257 3.14262 -8.95054
417 1 4.71127 17.3022 4.71212 -8.94513
418 1 6.28284 15.7306 3.13679 -8.94646
419 1 7.85765 17.3045 4.71161 -8.9488
420 1 9.43245 15.7296 3.13805 -8.94819
421 1 11.007 17.3029 4.71199 -8.94599
422 1 12.5815 15.7296 3.13805 -8.94819
423 1 14.1563 17.3045 4.71161 -8.9488
424 1 15.7311 15.7306 3.13679 -8.94646
425 1 17.3026 17.3022 4.71212 -8.94513
426 1 18.8719 15.7257 3.14262 -8.95054
427 1 20.4433 17.2984 4.71548 -8.94992
428 1 4.43399e-16 18.8702 3.14339 -8.94944
429 1 1.57159 20.4423 4.71616 -8.94932
430 1 3.14254 18.8712 3.14255 -8.94837
431 1 4.71544 20.4432 4.71565 -8.95005
432 1 6.28727 18.8724 3.14195 -8.94939
433 1 7.86112 20.4436 4.71569 -8.95051
434 1 9.43378 18.872 3.14223 -8.94904
435 1 11.007 20.4434 4.71546 -8.94956
436 1 12.5801 18.872 3.14223 -8.94904
437 1 14.1528 20.4436 4.71569 -8.95051
438 1 15.7266 18.8724 3.14195 -8.94939
439 1 17.2985 20.4432 4.71565 -8.95005
440 1 18.8714 18.8712 3.14255 -8.94837
441 1 20.4423 20.4423 4.71616 -8.94932
442 1 1.57207 11.007 7.86189 -8.94711
443 1 4.71956 11.007 7.86315 -8.93954
444 1 7.88456 11.007 7.86927 -8.93029
445 1 11.007 11.007 7.5213 -7.53877
446 1 14.1293 11.007 7.86927 -8.93029
447 1 17.2943 11.007 7.86315 -8.93954
448 1 20.4418 11.007 7.86189 -8.94711
449 1 -2.40458e-15 12.5792 6.28911 -8.94985
450 1 1.57008 14.1525 7.86179 -8.95214
451 1 3.14198 12.5789 6.28893 -8.95114
452 1 4.70607 14.1566 7.86 -8.95827
453 1 6.28033 12.5785 6.28716 -8.95945
454 1 7.81993 14.1898 7.83048 -8.86208
455 1 9.39305 12.6233 6.25832 -8.84111
456 1 11.007 14.1667 7.81897 -8.86011
457 1 12.6209 12.6233 6.25832 -8.84111
458 1 14.194 14.1898 7.83048 -8.86208
459 1 15.7336 12.5785 6.28716 -8.95945
460 1 17.3078 14.1566 7.86 -8.95827
461 1 18.8719 12.5789 6.28893 -8.95114
462 1 20.4438 14.1525 7.86179 -8.95214
463 1 -3.02742e-15 15.7253 6.28869 -8.95089
464 1 1.5706 17.2986 7.8614 -8.94925
465 1 3.13951 15.7272 6.28726 -8.95111
466 1 4.7121 17.3017 7.86046 -8.94728
467 1 6.27434 15.7386 6.27717 -8.93201
468 1 7.85808 17.3059 7.86083 -8.9585
469 1 9.42794 15.7413 6.2784 -8.95115
470 1 11.007 17.2997 7.86139 -8.95352
471 1 12.586 15.7413 6.2784 -8.95115
472 1 14.1558 17.3059 7.86083 -8.9585
473 1 15.7396 15.7386 6.27717 -8.93201
474 1 17.3018 17.3017 7.86046 -8.94728
475 1 18.8744 15.7272 6.28726 -8.95111
476 1 20.4433 17.2986 7.8614 -8.94925
477 1 4.93852e-16 18.8704 6.28875 -8.94926
478 1 1.57153 20.4424 7.86166 -8.94934
479 1 3.14256 18.8713 6.28833 -8.94905
480 1 4.71524 20.4432 7.86147 -8.94933
481 1 6.28677 18.8739 6.28764 -8.95147
482 1 7.86126 20.4435 7.86191 -8.9513
483 1 9.43404 18.8738 6.28782 -8.95264
484 1 11.007 20.4424 7.86213 -8.94927
485 1 12.5799 18.8738 6.28782 -8.95264
486 1 14.1526 20.4435 7.86191 -8.9513
487 1 15.7271 18.8739 6.28764 -8.95147
488 1 17.2987 20.4432 7.86147 -8.94933
489 1 18.8713 18.8713 6.28833 -8.94905
490 1 20.4424 20.4424 7.86166 -8.94934
491 1 1.28216e-16 12.5791 9.43453 -8.94924
492 1 3.1429 12.5793 9.43453 -8.94983
493 1 6.28479 12.5871 9.43453 -8.97031
494 1 9.36719 12.8091 9.43453 -8.07309
495 1 12.6467 12.8091 9.43453 -8.07309
496 1 15.7291 12.5871 9.43453 -8.97031
497 1 18.871 12.5793 9.43453 -8.94983
498 1 -3.25233e-15 15.7257 9.43453 -8.95033
534 1 4.71524 20.4432 11.0076 -8.94933
538 1 17.2987 20.4432 11.0076 -8.94933
389 1 15.7254 18.8705 -0.00109453 -8.94947
383 1 6.28854 18.8705 -0.00109453 -8.94947
355 1 6.28785 12.5797 -0.00136921 -8.94914
361 1 15.7261 12.5797 -0.00136921 -8.94914
512 1 1.57207 11.007 11.0072 -8.94711
513 1 4.71956 11.007 11.0059 -8.93954
514 1 7.88456 11.007 10.9998 -8.93029
515 1 11.007 11.007 11.3478 -7.53877
516 1 14.1293 11.007 10.9998 -8.93029
517 1 17.2943 11.007 11.0059 -8.93954
518 1 20.4418 11.007 11.0072 -8.94711
519 1 1.57008 14.1525 11.0073 -8.95214
520 1 4.70607 14.1566 11.0091 -8.95827
521 1 7.81993 14.1898 11.0386 -8.86208
522 1 11.007 14.1667 11.0501 -8.86011
523 1 14.194 14.1898 11.0386 -8.86208
524 1 17.3078 14.1566 11.0091 -8.95827
525 1 20.4438 14.1525 11.0073 -8.95214
686 1 20.4421 20.442 20.4415 -8.94903
685 1 18.8704 18.8702 18.8701 -8.9491
528 1 7.85808 17.3059 11.0082 -8.9585
529 1 11.007 17.2997 11.0077 -8.95352
530 1 14.1558 17.3059 11.0082 -8.9585
684 1 17.2975 20.4421 20.4415 -8.94946
683 1 15.7254 18.8705 18.8702 -8.94947
533 1 1.57153 20.4424 11.0074 -8.94934
391 1 18.8704 18.8702 22.0129 -8.9491
535 1 7.86126 20.4435 11.0071 -8.9513
536 1 11.007 20.4424 11.0069 -8.94927
537 1 14.1526 20.4435 11.0071 -8.9513
381 1 3.14345 18.8702 22.0129 -8.9491
539 1 20.4424 20.4424 11.0074 -8.94934
540 1 1.571 11.007 14.1532 -8.94978
541 1 4.71256 11.007 14.1551 -8.94635
542 1 7.85649 11.007 14.1569 -8.9398
543 1 11.007 11.007 14.1621 -9.0243
544 1 14.1574 11.007 14.1569 -8.9398
545 1 17.3013 11.007 14.1551 -8.94635
546 1 20.4429 11.007 14.1532 -8.94978
547 1 -3.0264e-15 12.5792 12.5799 -8.94985
548 1 1.57088 14.1521 14.1529 -8.95023
549 1 3.14198 12.5789 12.5801 -8.95114
550 1 4.71155 14.1536 14.155 -8.95267
551 1 6.28033 12.5785 12.5819 -8.95945
552 1 7.84653 14.1671 14.1708 -8.9404
553 1 9.39305 12.6233 12.6107 -8.84111
554 1 11.007 14.1601 14.1677 -8.95375
555 1 12.6209 12.6233 12.6107 -8.84111
556 1 14.1674 14.1671 14.1708 -8.9404
557 1 15.7336 12.5785 12.5819 -8.95945
558 1 17.3023 14.1536 14.155 -8.95267
559 1 18.8719 12.5789 12.5801 -8.95114
560 1 20.443 14.1521 14.1529 -8.95023
561 1 -2.85589e-15 15.7253 12.5804 -8.95089
562 1 1.57058 17.2984 14.1536 -8.94992
563 1 3.13951 15.7272 12.5818 -8.95111
564 1 4.71127 17.3022 14.1569 -8.94513
565 1 6.27434 15.7386 12.5919 -8.93201
566 1 7.85765 17.3045 14.1574 -8.9488
567 1 9.42794 15.7413 12.5907 -8.95115
568 1 11.007 17.3029 14.1571 -8.94599
569 1 12.586 15.7413 12.5907 -8.95115
570 1 14.1563 17.3045 14.1574 -8.9488
571 1 15.7396 15.7386 12.5919 -8.93201
572 1 17.3026 17.3022 14.1569 -8.94513
573 1 18.8744 15.7272 12.5818 -8.95111
574 1 20.4433 17.2984 14.1536 -8.94992
575 1 2.61504e-16 18.8704 12.5803 -8.94926
576 1 1.57159 20.4423 14.1529 -8.94932
577 1 3.14256 18.8713 12.5807 -8.94905
578 1 4.71544 20.4432 14.1534 -8.95005
579 1 6.28677 18.8739 12.5814 -8.95147
580 1 7.86112 20.4436 14.1534 -8.95051
581 1 9.43404 18.8738 12.5812 -8.95264
582 1 11.007 20.4434 14.1536 -8.94956
583 1 12.5799 18.8738 12.5812 -8.95264
584 1 14.1528 20.4436 14.1534 -8.95051
585 1 15.7271 18.8739 12.5814 -8.95147
586 1 17.2985 20.4432 14.1534 -8.95005
587 1 18.8713 18.8713 12.5807 -8.94905
588 1 20.4423 20.4423 14.1529 -8.94932
589 1 1.57157 11.007 17.2977 -8.94945
590 1 4.71497 11.007 17.2986 -8.94941
591 1 7.85951 11.007 17.2999 -8.94792
592 1 11.007 11.007 17.3004 -8.94994
593 1 14.1544 11.007 17.2999 -8.94792
594 1 17.2989 11.007 17.2986 -8.94941
595 1 20.4423 11.007 17.2977 -8.94945
596 1 -3.07276e-17 12.5796 15.7254 -8.9495
597 1 1.57153 14.1522 17.2977 -8.94929
598 1 3.1425 12.5797 15.7261 -8.94885
599 1 4.71494 14.1526 17.2987 -8.94934
600 1 6.28565 12.58 15.7279 -8.9478
601 1 7.85932 14.1542 17.3022 -8.95286
602 1 9.43093 12.582 15.7333 -8.95476
603 1 11.007 14.154 17.3018 -8.95133
604 1 12.583 12.582 15.7333 -8.95476
605 1 14.1546 14.1542 17.3022 -8.95286
606 1 15.7283 12.58 15.7279 -8.9478
607 1 17.299 14.1526 17.2987 -8.94934
608 1 18.8714 12.5797 15.7261 -8.94885
609 1 20.4424 14.1522 17.2977 -8.94929
610 1 6.86951e-16 15.7248 15.7254 -8.95004
611 1 1.5714 17.2975 17.2979 -8.94983
612 1 3.14202 15.7257 15.7264 -8.95054
613 1 4.71424 17.2993 17.2998 -8.9485
614 1 6.28284 15.7306 15.7323 -8.94646
615 1 7.86044 17.2994 17.2997 -8.94927
616 1 9.43245 15.7296 15.731 -8.94819
617 1 11.007 17.2993 17.2996 -8.94906
618 1 12.5815 15.7296 15.731 -8.94819
619 1 14.1535 17.2994 17.2997 -8.94927
620 1 15.7311 15.7306 15.7323 -8.94646
621 1 17.2997 17.2993 17.2998 -8.9485
622 1 18.8719 15.7257 15.7264 -8.95054
623 1 20.4425 17.2975 17.2979 -8.94983
624 1 2.3033e-16 18.8702 15.7257 -8.94944
625 1 1.57166 20.4422 17.2978 -8.94901
626 1 3.14254 18.8712 15.7265 -8.94837
627 1 4.71593 20.4425 17.2981 -8.94944
628 1 6.28727 18.8724 15.7271 -8.94939
629 1 7.86139 20.4425 17.298 -8.94935
630 1 9.43378 18.872 15.7268 -8.94904
631 1 11.007 20.4425 17.2981 -8.94938
632 1 12.5801 18.872 15.7268 -8.94904
633 1 14.1525 20.4425 17.298 -8.94935
634 1 15.7266 18.8724 15.7271 -8.94939
635 1 17.298 20.4425 17.2981 -8.94944
636 1 18.8714 18.8712 15.7265 -8.94837
637 1 20.4422 20.4422 17.2978 -8.94901
638 1 1.57181 11.007 20.4415 -8.94946
639 1 4.71574 11.007 20.4415 -8.94949
640 1 7.8607 11.007 20.4415 -8.94951
641 1 11.007 11.007 20.4415 -8.94922
642 1 14.1532 11.007 20.4415 -8.94951
643 1 17.2982 11.007 20.4415 -8.94949
644 1 20.4421 11.007 20.4415 -8.94946
645 1 4.70421e-16 12.5795 18.8696 -8.94945
646 1 1.57181 14.1521 20.4415 -8.94942
647 1 3.14356 12.5796 18.8698 -8.94939
648 1 4.71578 14.1523 20.4415 -8.94935
649 1 6.28785 12.5797 18.8704 -8.94914
650 1 7.86091 14.1527 20.4415 -8.95101
651 1 9.4337 12.5797 18.8712 -8.95082
652 1 11.007 14.1527 20.4415 -8.95062
653 1 12.5802 12.5797 18.8712 -8.95082
654 1 14.153 14.1527 20.4415 -8.95101
655 1 15.7261 12.5797 18.8704 -8.94914
656 1 17.2981 14.1523 20.4415 -8.94935
657 1 18.8703 12.5796 18.8698 -8.94939
658 1 20.4421 14.1521 20.4415 -8.94942
659 1 2.93167e-17 15.7246 18.8696 -8.94942
660 1 1.5718 17.2971 20.4415 -8.94959
661 1 3.14355 15.7248 18.8699 -8.94957
662 1 4.71564 17.298 20.4415 -8.94988
663 1 6.28767 15.7259 18.8712 -8.95068
664 1 7.86118 17.2982 20.4415 -8.9496
665 1 9.43383 15.726 18.8711 -8.94985
666 1 11.007 17.2982 20.4415 -8.94954
667 1 12.5801 15.726 18.8711 -8.94985
668 1 14.1527 17.2982 20.4415 -8.9496
669 1 15.7262 15.7259 18.8712 -8.95068
670 1 17.2983 17.298 20.4415 -8.94988
671 1 18.8704 15.7248 18.8699 -8.94957
672 1 20.4421 17.2971 20.4415 -8.94959
673 1 1.57904e-16 18.8696 18.8697 -8.94953
674 1 1.57181 20.442 20.4415 -8.94903
675 1 3.14345 18.8702 18.8701 -8.9491
676 1 4.71637 20.4421 20.4415 -8.94946
677 1 6.28854 18.8705 18.8702 -8.94947
678 1 7.86159 20.4422 20.4415 -8.94939
679 1 9.43413 18.8705 18.8701 -8.94933
680 1 11.007 20.4422 20.4415 -8.9494
681 1 12.5798 18.8705 18.8701 -8.94933
682 1 14.1523 20.4422 20.4415 -8.94939
379 1 7.92981e-17 18.8696 22.0132 -8.94953
357 1 9.4337 12.5797 22.0117 -8.95082
359 1 12.5802 12.5797 22.0117 -8.95082
377 1 18.8704 15.7248 22.0131 -8.94957
365 1 -6.31351e-16 15.7246 22.0133 -8.94942
367 1 3.14355 15.7248 22.0131 -8.94957
369 1 6.28767 15.7259 22.0118 -8.95068
375 1 15.7262 15.7259 22.0118 -8.95068
351 1 3.42706e-16 12.5795 22.0133 -8.94945
353 1 3.14356 12.5796 22.0131 -8.94939
363 1 18.8703 12.5796 22.0131 -8.94939
385 1 9.43413 18.8705 22.0129 -8.94933
387 1 12.5798 18.8705 22.0129 -8.94933
