ITEM: TIMESTEP
60
ITEM: NUMBER OF ATOMS
688
ITEM: BOX BOUNDS pp pp pp
0.0000000000000000e+00 2.2013900999999997e+01
0.0000000000000000e+00 2.2013900999999997e+01
0.0000000000000000e+00 2.2013900999999997e+01
ITEM: ATOMS id type x y z c_pot
189 1 20.442 4.71685 11.0071 -8.94937
2 1 1.57235 1.57235 1.57233 -8.94945
175 1 18.8717 9.4349 9.43453 -8.95085
4 1 4.71717 1.57228 1.57228 -8.94966
174 1 15.7331 9.42903 9.43453 -8.97134
6 1 7.86208 1.57229 1.57227 -8.94956
7 1 9.43452 2.02794e-15 -4.64507e-05 -8.94964
8 1 11.007 1.57227 1.57224 -8.94961
9 1 12.5794 2.56217e-15 -4.64507e-05 -8.94964
10 1 14.1518 1.57229 1.57227 -8.94956
173 1 12.6546 9.21573 9.43453 -8.06395
12 1 17.2967 1.57228 1.57228 -8.94966
172 1 9.35934 9.21573 9.43453 -8.06395
14 1 20.4415 1.57235 1.57233 -8.94945
171 1 6.28076 9.42903 9.43453 -8.97134
16 1 1.57229 4.71719 1.5723 -8.94973
170 1 3.14224 9.4349 9.43453 -8.95085
18 1 4.71653 4.71654 1.57147 -8.94876
169 1 1.01218e-15 9.43469 9.43453 -8.95004
20 1 7.86198 4.71671 1.57171 -8.94946
188 1 17.2986 4.71522 11.0076 -8.94797
22 1 11.007 4.71663 1.57164 -8.94935
184 1 4.7153 4.71522 11.0076 -8.94797
24 1 14.1519 4.71671 1.57171 -8.94946
168 1 18.8716 6.2883 9.43453 -8.94887
26 1 17.2974 4.71654 1.57147 -8.94876
167 1 15.7322 6.28171 9.43453 -8.9408
28 1 20.4416 4.71719 1.5723 -8.94973
166 1 12.582 6.29182 9.43453 -8.99935
30 1 1.5723 7.86207 1.57228 -8.9495
165 1 9.43188 6.29182 9.43453 -8.99935
32 1 4.71682 7.86211 1.57189 -8.94952
164 1 6.28167 6.28171 9.43453 -8.9408
34 1 7.86117 7.86124 1.56945 -8.95241
35 1 9.43447 6.28928 -0.000617185 -8.94958
36 1 11.007 7.86129 1.56999 -8.95039
37 1 12.5794 6.28928 -0.000617185 -8.94958
38 1 14.1527 7.86124 1.56945 -8.95241
163 1 3.14228 6.2883 9.43453 -8.94887
40 1 17.2971 7.86211 1.57189 -8.94952
162 1 1.72404e-17 6.28931 9.43453 -8.94995
42 1 20.4416 7.86207 1.57228 -8.9495
183 1 1.57193 4.71685 11.0071 -8.94937
157 1 6.28837 3.14237 9.43453 -8.94926
161 1 18.8695 3.14436 9.43453 -8.94961
160 1 15.7255 3.14237 9.43453 -8.94926
159 1 12.5793 3.1434 9.43453 -8.9468
158 1 9.43459 3.1434 9.43453 -8.9468
156 1 3.14436 3.14436 9.43453 -8.94961
50 1 1.09276e-15 1.60883e-15 3.14483 -8.94968
51 1 1.57234 1.57234 4.71723 -8.94965
52 1 3.14471 1.19317e-15 3.14472 -8.94959
53 1 4.71691 1.57194 4.71695 -8.94983
54 1 6.2896 1.7075e-15 3.14467 -8.94971
55 1 7.86197 1.57176 4.7169 -8.94996
56 1 9.43449 1.76753e-15 3.14461 -8.94954
57 1 11.007 1.57172 4.71673 -8.94945
58 1 12.5794 1.48522e-15 3.14461 -8.94954
59 1 14.1519 1.57176 4.7169 -8.94996
60 1 15.7243 2.09278e-15 3.14467 -8.94971
61 1 17.297 1.57194 4.71695 -8.94983
62 1 18.8692 1.42067e-15 3.14472 -8.94959
63 1 20.4416 1.57234 4.71723 -8.94965
64 1 8.48164e-16 3.1447 3.14471 -8.94954
65 1 1.5719 4.71688 4.7169 -8.9497
66 1 3.14436 3.14437 3.14437 -8.94876
67 1 4.71475 4.71483 4.71492 -8.94555
68 1 6.28929 3.14401 3.14423 -8.94968
69 1 7.86073 4.7137 4.71506 -8.94959
70 1 9.43446 3.14407 3.14422 -8.94927
71 1 11.007 4.7144 4.71511 -8.94679
72 1 12.5794 3.14407 3.14422 -8.94927
73 1 14.1532 4.7137 4.71506 -8.94959
74 1 15.7246 3.14401 3.14423 -8.94968
75 1 17.2992 4.71483 4.71492 -8.94555
76 1 18.8695 3.14437 3.14437 -8.94876
77 1 20.442 4.71688 4.7169 -8.9497
78 1 8.29898e-16 6.28964 3.14471 -8.94975
79 1 1.5719 7.86208 4.71698 -8.94987
80 1 3.14413 6.28943 3.14434 -8.95017
81 1 4.71453 7.8617 4.71582 -8.95206
82 1 6.28651 6.28658 3.14054 -8.94675
83 1 7.85073 7.85105 4.70267 -8.94071
84 1 9.43417 6.2876 3.14208 -8.9484
85 1 11.007 7.8576 4.70764 -8.95294
86 1 12.5797 6.2876 3.14208 -8.9484
87 1 14.1632 7.85105 4.70267 -8.94071
88 1 15.7274 6.28658 3.14054 -8.94675
89 1 17.2994 7.8617 4.71582 -8.95206
90 1 18.8698 6.28943 3.14434 -8.95017
91 1 20.442 7.86208 4.71698 -8.94987
92 1 -3.17774e-16 9.43448 3.14462 -8.94957
93 1 3.14411 9.43445 3.14424 -8.94907
94 1 6.288 9.4347 3.14306 -8.94823
95 1 9.43253 9.43314 3.1384 -8.95444
96 1 12.5814 9.43314 3.1384 -8.95444
97 1 15.7259 9.4347 3.14306 -8.94823
98 1 18.8698 9.43445 3.14424 -8.94907
99 1 -3.12077e-16 1.48395e-15 6.28968 -8.94964
100 1 1.57233 1.57233 7.86209 -8.94964
101 1 3.14469 1.80604e-15 6.28963 -8.94953
102 1 4.71685 1.57192 7.86199 -8.9494
103 1 6.28946 1.49117e-15 6.28951 -8.95027
104 1 7.86194 1.57122 7.86206 -8.95108
105 1 9.43454 8.16122e-16 6.28944 -8.95032
106 1 11.007 1.57162 7.86205 -8.94944
107 1 12.5794 5.26323e-16 6.28944 -8.95032
108 1 14.152 1.57122 7.86206 -8.95108
109 1 15.7244 1.68649e-15 6.28951 -8.95027
110 1 17.297 1.57192 7.86199 -8.9494
111 1 18.8692 1.34193e-15 6.28963 -8.94953
112 1 20.4416 1.57233 7.86209 -8.94964
113 1 1.1684e-15 3.14469 6.28964 -8.94953
114 1 1.57193 4.71685 7.86199 -8.94937
115 1 3.14441 3.14439 6.28951 -8.94947
116 1 4.7153 4.71522 7.86149 -8.94797
117 1 6.28871 3.14257 6.28888 -8.9511
118 1 7.86017 4.7103 7.86154 -8.95804
119 1 9.43463 3.14221 6.28896 -8.95159
120 1 11.007 4.71463 7.86224 -8.95143
121 1 12.5793 3.14221 6.28896 -8.95159
122 1 14.1537 4.7103 7.86154 -8.95804
123 1 15.7252 3.14257 6.28888 -8.9511
124 1 17.2986 4.71522 7.86149 -8.94797
125 1 18.8695 3.14439 6.28951 -8.94947
126 1 20.442 4.71685 7.86199 -8.94937
127 1 1.54775e-15 6.28942 6.28945 -8.95034
128 1 1.57099 7.86189 7.86196 -8.9516
129 1 3.14229 6.2885 6.2886 -8.95061
130 1 4.70852 7.85934 7.86052 -8.95737
131 1 6.27909 6.27957 6.2803 -8.93206
132 1 7.8227 7.82765 7.83284 -8.86184
133 1 9.43132 6.27783 6.28365 -8.95322
134 1 11.007 7.85328 7.82917 -8.87026
135 1 12.5826 6.27783 6.28365 -8.95322
136 1 14.1912 7.82765 7.83284 -8.86184
137 1 15.7348 6.27957 6.2803 -8.93206
138 1 17.3054 7.85934 7.86052 -8.95737
139 1 18.8716 6.2885 6.2886 -8.95061
140 1 20.4429 7.86189 7.86196 -8.9516
141 1 2.21119e-16 9.43457 6.28942 -8.9499
142 1 3.14282 9.43494 6.28916 -8.95069
143 1 6.28165 9.43625 6.28807 -8.95883
144 1 9.39459 9.39433 6.26215 -8.84028
145 1 12.6193 9.39433 6.26215 -8.84028
146 1 15.7323 9.43625 6.28807 -8.95883
147 1 18.8711 9.43494 6.28916 -8.95069
148 1 -1.88561e-17 1.49389e-15 9.43453 -8.94965
149 1 3.14468 1.61974e-15 9.43453 -8.94959
150 1 6.28933 1.42546e-15 9.43453 -8.95005
151 1 9.43457 1.30312e-15 9.43453 -8.94924
152 1 12.5793 1.12697e-15 9.43453 -8.94924
153 1 15.7246 1.51979e-15 9.43453 -8.95005
154 1 18.8692 1.77877e-15 9.43453 -8.94959
155 1 -4.05504e-16 3.14468 9.43453 -8.94959
177 1 4.71685 1.57192 11.0071 -8.9494
48 1 15.7246 9.43452 -0.000494422 -8.94938
181 1 17.297 1.57192 11.0071 -8.9494
19 1 6.28965 3.14472 -0.000120271 -8.94965
45 1 6.28931 9.43452 -0.000494422 -8.94938
25 1 15.7242 3.14472 -0.000120271 -8.94965
176 1 1.57233 1.57233 11.007 -8.94964
47 1 12.5795 9.43445 22.0127 -8.95063
178 1 7.86194 1.57122 11.007 -8.95108
179 1 11.007 1.57162 11.007 -8.94944
180 1 14.152 1.57122 11.007 -8.95108
46 1 9.43435 9.43445 22.0127 -8.95063
182 1 20.4416 1.57233 11.007 -8.94964
343 1 18.8692 9.43451 18.8692 -8.9496
342 1 15.7246 9.43452 18.8696 -8.94938
185 1 7.86017 4.7103 11.0075 -8.95804
186 1 11.007 4.71463 11.0068 -8.95143
187 1 14.1537 4.7103 11.0075 -8.95804
341 1 12.5795 9.43445 18.8703 -8.95063
340 1 9.43435 9.43445 18.8703 -8.95063
190 1 1.57099 7.86189 11.0071 -8.9516
191 1 4.70852 7.85934 11.0085 -8.95737
192 1 7.8227 7.82765 11.0362 -8.86184
193 1 11.007 7.85328 11.0399 -8.87026
194 1 14.1912 7.82765 11.0362 -8.86184
195 1 17.3054 7.85934 11.0085 -8.95737
196 1 20.4429 7.86189 11.0071 -8.9516
197 1 1.25338e-16 1.34985e-15 12.5794 -8.94964
198 1 1.57234 1.57234 14.1518 -8.94965
199 1 3.14469 1.55917e-15 12.5794 -8.94953
200 1 4.71691 1.57194 14.1521 -8.94983
201 1 6.28946 1.25879e-15 12.5796 -8.95027
202 1 7.86197 1.57176 14.1522 -8.94996
203 1 9.43454 1.09512e-15 12.5796 -8.95032
204 1 11.007 1.57172 14.1523 -8.94945
205 1 12.5794 2.13792e-16 12.5796 -8.95032
206 1 14.1519 1.57176 14.1522 -8.94996
207 1 15.7244 1.57624e-15 12.5796 -8.95027
208 1 17.297 1.57194 14.1521 -8.94983
209 1 18.8692 1.46564e-15 12.5794 -8.94953
210 1 20.4416 1.57234 14.1518 -8.94965
211 1 1.613e-16 3.14469 12.5794 -8.94953
212 1 1.5719 4.71688 14.1522 -8.9497
213 1 3.14441 3.14439 12.5795 -8.94947
214 1 4.71475 4.71483 14.1541 -8.94555
215 1 6.28871 3.14257 12.5802 -8.9511
216 1 7.86073 4.7137 14.154 -8.94959
217 1 9.43463 3.14221 12.5801 -8.95159
218 1 11.007 4.7144 14.1539 -8.94679
219 1 12.5793 3.14221 12.5801 -8.95159
220 1 14.1532 4.7137 14.154 -8.94959
221 1 15.7252 3.14257 12.5802 -8.9511
222 1 17.2992 4.71483 14.1541 -8.94555
223 1 18.8695 3.14439 12.5795 -8.94947
224 1 20.442 4.71688 14.1522 -8.9497
225 1 7.40725e-16 6.28942 12.5796 -8.95034
226 1 1.5719 7.86208 14.1521 -8.94987
227 1 3.14229 6.2885 12.5805 -8.95061
228 1 4.71453 7.8617 14.1532 -8.95206
229 1 6.27909 6.27957 12.5888 -8.93206
230 1 7.85073 7.85105 14.1664 -8.94071
231 1 9.43132 6.27783 12.5854 -8.95322
232 1 11.007 7.8576 14.1614 -8.95294
233 1 12.5826 6.27783 12.5854 -8.95322
234 1 14.1632 7.85105 14.1664 -8.94071
235 1 15.7348 6.27957 12.5888 -8.93206
236 1 17.2994 7.8617 14.1532 -8.95206
237 1 18.8716 6.2885 12.5805 -8.95061
238 1 20.442 7.86208 14.1521 -8.94987
239 1 5.22898e-16 9.43457 12.5796 -8.9499
240 1 3.14282 9.43494 12.5799 -8.95069
241 1 6.28165 9.43625 12.581 -8.95883
242 1 9.39459 9.39433 12.6069 -8.84028
243 1 12.6193 9.39433 12.6069 -8.84028
244 1 15.7323 9.43625 12.581 -8.95883
245 1 18.8711 9.43494 12.5799 -8.95069
246 1 1.21521e-15 9.72404e-16 15.7242 -8.94968
247 1 1.57235 1.57235 17.2967 -8.94945
248 1 3.14471 1.09802e-15 15.7243 -8.94959
249 1 4.71717 1.57228 17.2968 -8.94966
250 1 6.2896 1.62362e-15 15.7244 -8.94971
251 1 7.86208 1.57229 17.2968 -8.94956
252 1 9.43449 1.23173e-15 15.7244 -8.94954
253 1 11.007 1.57227 17.2968 -8.94961
254 1 12.5794 1.73081e-15 15.7244 -8.94954
255 1 14.1518 1.57229 17.2968 -8.94956
256 1 15.7243 2.01019e-15 15.7244 -8.94971
257 1 17.2967 1.57228 17.2968 -8.94966
258 1 18.8692 1.15869e-15 15.7243 -8.94959
259 1 20.4415 1.57235 17.2967 -8.94945
260 1 8.39727e-16 3.1447 15.7244 -8.94954
261 1 1.57229 4.71719 17.2968 -8.94973
262 1 3.14436 3.14437 15.7247 -8.94876
263 1 4.71653 4.71654 17.2976 -8.94876
264 1 6.28929 3.14401 15.7248 -8.94968
265 1 7.86198 4.71671 17.2974 -8.94946
266 1 9.43446 3.14407 15.7248 -8.94927
267 1 11.007 4.71663 17.2974 -8.94935
268 1 12.5794 3.14407 15.7248 -8.94927
269 1 14.1519 4.71671 17.2974 -8.94946
270 1 15.7246 3.14401 15.7248 -8.94968
271 1 17.2974 4.71654 17.2976 -8.94876
272 1 18.8695 3.14437 15.7247 -8.94876
273 1 20.4416 4.71719 17.2968 -8.94973
274 1 2.12079e-16 6.28964 15.7244 -8.94975
275 1 1.5723 7.86207 17.2968 -8.9495
276 1 3.14413 6.28943 15.7247 -8.95017
277 1 4.71682 7.86211 17.2972 -8.94952
278 1 6.28651 6.28658 15.7285 -8.94675
279 1 7.86117 7.86124 17.2996 -8.95241
280 1 9.43417 6.2876 15.727 -8.9484
281 1 11.007 7.86129 17.2991 -8.95039
282 1 12.5797 6.2876 15.727 -8.9484
283 1 14.1527 7.86124 17.2996 -8.95241
284 1 15.7274 6.28658 15.7285 -8.94675
285 1 17.2971 7.86211 17.2972 -8.94952
286 1 18.8698 6.28943 15.7247 -8.95017
287 1 20.4416 7.86207 17.2968 -8.9495
288 1 -2.02273e-16 9.43448 15.7244 -8.94957
289 1 3.14411 9.43445 15.7248 -8.94907
290 1 6.288 9.4347 15.726 -8.94823
291 1 9.43253 9.43314 15.7307 -8.95444
292 1 12.5814 9.43314 15.7307 -8.95444
293 1 15.7259 9.4347 15.726 -8.94823
294 1 18.8698 9.43445 15.7248 -8.94907
295 1 1.45335e-15 3.84136e-16 18.8691 -8.94952
296 1 1.57239 1.57239 20.4415 -8.94954
297 1 3.14482 9.70162e-16 18.8691 -8.94964
298 1 4.71726 1.57239 20.4415 -8.94967
299 1 6.28968 2.01282e-15 18.8691 -8.94962
300 1 7.8621 1.57238 20.4415 -8.94963
301 1 9.43452 1.94474e-15 18.8691 -8.94964
302 1 11.007 1.57238 20.4415 -8.94964
303 1 12.5794 1.73053e-15 18.8691 -8.94964
304 1 14.1518 1.57238 20.4415 -8.94963
305 1 15.7242 2.52777e-15 18.8691 -8.94962
306 1 17.2966 1.57239 20.4415 -8.94967
307 1 18.8691 9.03149e-16 18.8691 -8.94964
308 1 20.4415 1.57239 20.4415 -8.94954
309 1 1.32874e-15 3.14482 18.8691 -8.94966
310 1 1.5724 4.71726 20.4415 -8.94968
311 1 3.1447 3.1447 18.8692 -8.94941
312 1 4.71708 4.71708 20.4415 -8.94973
313 1 6.28965 3.14472 18.8692 -8.94965
314 1 7.86207 4.71709 20.4415 -8.94957
315 1 9.43451 3.14468 18.8692 -8.94959
316 1 11.007 4.71706 20.4415 -8.94961
317 1 12.5794 3.14468 18.8692 -8.94959
318 1 14.1518 4.71709 20.4415 -8.94957
319 1 15.7242 3.14472 18.8692 -8.94965
320 1 17.2968 4.71708 20.4415 -8.94973
321 1 18.8692 3.1447 18.8692 -8.94941
322 1 20.4415 4.71726 20.4415 -8.94968
323 1 -6.021e-16 6.28968 18.8691 -8.9496
324 1 1.57238 7.8621 20.4415 -8.94962
325 1 3.14474 6.28968 18.8692 -8.94968
326 1 4.71711 7.86209 20.4415 -8.94953
327 1 6.28929 6.28931 18.8698 -8.95027
328 1 7.86191 7.86193 20.4415 -8.95062
329 1 9.43447 6.28928 18.8697 -8.94958
330 1 11.007 7.86185 20.4415 -8.95012
331 1 12.5794 6.28928 18.8697 -8.94958
332 1 14.152 7.86193 20.4415 -8.95062
333 1 15.7246 6.28931 18.8698 -8.95027
334 1 17.2968 7.86209 20.4415 -8.94953
335 1 18.8692 6.28968 18.8692 -8.94968
336 1 20.4415 7.8621 20.4415 -8.94962
337 1 -2.12905e-16 9.43452 18.8691 -8.94964
338 1 3.14469 9.43451 18.8692 -8.9496
339 1 6.28931 9.43452 18.8696 -8.94938
3 1 3.14482 1.43143e-15 22.0139 -8.94964
5 1 6.28968 1.7666e-15 22.0139 -8.94962
11 1 15.7242 2.20712e-15 22.0139 -8.94962
13 1 18.8691 1.4469e-15 22.0139 -8.94964
15 1 1.29627e-15 3.14482 22.0139 -8.94966
17 1 3.1447 3.1447 22.0138 -8.94941
41 1 18.8692 6.28968 22.0138 -8.94968
39 1 15.7246 6.28931 22.0132 -8.95027
27 1 18.8692 3.1447 22.0138 -8.94941
29 1 -2.85967e-17 6.28968 22.0139 -8.9496
31 1 3.14474 6.28968 22.0138 -8.94968
33 1 6.28929 6.28931 22.0132 -8.95027
1 1 2.05482e-15 3.72363e-16 22.0139 -8.94952
21 1 9.43451 3.14468 22.0138 -8.94959
23 1 12.5794 3.14468 22.0138 -8.94959
43 1 6.9383e-17 9.43452 22.0139 -8.94964
44 1 3.14469 9.43451 22.0138 -8.9496
49 1 18.8692 9.43451 22.0138 -8.9496
344 1 1.57228 11.007 1.57225 -8.94962
345 1 4.71667 11.007 1.57171 -8.94958
346 1 7.86113 11.007 1.57066 -8.94844
347 1 11.007 11.007 1.56966 -8.94998
348 1 14.1528 11.007 1.57066 -8.94844
349 1 17.2972 11.007 1.57171 -8.94958
350 1 20.4416 11.007 1.57225 -8.94962
532 1 20.442 17.2971 11.0071 -8.94937
352 1 1.5723 14.1518 1.57228 -8.9495
531 1 17.2986 17.2987 11.0076 -8.94797
354 1 4.71682 14.1518 1.57189 -8.94952
688 3 10.2412 11.007 9.43453 2.26299
356 1 7.86117 14.1527 1.56945 -8.95241
687 3 11.7727 11.007 9.43453 2.26299
358 1 11.007 14.1526 1.56999 -8.95039
511 1 18.8695 18.8695 9.43453 -8.94961
360 1 14.1527 14.1527 1.56945 -8.95241
510 1 15.7255 18.8715 9.43453 -8.94926
362 1 17.2971 14.1518 1.57189 -8.94952
527 1 4.7153 17.2987 11.0076 -8.94797
364 1 20.4416 14.1518 1.57228 -8.9495
509 1 12.5793 18.8705 9.43453 -8.9468
366 1 1.57229 17.2967 1.5723 -8.94973
508 1 9.43459 18.8705 9.43453 -8.9468
368 1 4.71653 17.2974 1.57147 -8.94876
507 1 6.28837 18.8715 9.43453 -8.94926
370 1 7.86198 17.2972 1.57171 -8.94946
371 1 9.43447 15.7246 -0.000617185 -8.94958
372 1 11.007 17.2973 1.57164 -8.94935
373 1 12.5794 15.7246 -0.000617185 -8.94958
374 1 14.1519 17.2972 1.57171 -8.94946
506 1 3.14436 18.8695 9.43453 -8.94961
376 1 17.2974 17.2974 1.57147 -8.94876
505 1 -3.42968e-16 18.8692 9.43453 -8.94959
378 1 20.4416 17.2967 1.5723 -8.94973
504 1 18.8716 15.7256 9.43453 -8.94887
380 1 1.57235 20.4415 1.57233 -8.94945
503 1 15.7322 15.7322 9.43453 -8.9408
382 1 4.71717 20.4416 1.57228 -8.94966
502 1 12.582 15.7221 9.43453 -8.99935
384 1 7.86208 20.4416 1.57227 -8.94956
526 1 1.57193 17.2971 11.0071 -8.94937
386 1 11.007 20.4416 1.57224 -8.94961
499 1 3.14228 15.7256 9.43453 -8.94887
388 1 14.1518 20.4416 1.57227 -8.94956
501 1 9.43188 15.7221 9.43453 -8.99935
390 1 17.2967 20.4416 1.57228 -8.94966
500 1 6.28167 15.7322 9.43453 -8.9408
392 1 20.4415 20.4415 1.57233 -8.94945
393 1 1.57177 11.007 4.71675 -8.94967
394 1 4.71445 11.007 4.71517 -8.94679
395 1 7.85823 11.007 4.71361 -8.94159
396 1 11.007 11.007 4.7084 -9.02366
397 1 14.1557 11.007 4.71361 -8.94159
398 1 17.2995 11.007 4.71517 -8.94679
399 1 20.4421 11.007 4.71675 -8.94967
400 1 -4.59023e-16 12.5794 3.14462 -8.94957
401 1 1.5719 14.1518 4.71698 -8.94987
402 1 3.14411 12.5795 3.14424 -8.94907
403 1 4.71453 14.1522 4.71582 -8.95206
404 1 6.288 12.5792 3.14306 -8.94823
405 1 7.85073 14.1629 4.70267 -8.94071
406 1 9.43253 12.5808 3.1384 -8.95444
407 1 11.007 14.1563 4.70764 -8.95294
408 1 12.5814 12.5808 3.1384 -8.95444
409 1 14.1632 14.1629 4.70267 -8.94071
410 1 15.7259 12.5792 3.14306 -8.94823
411 1 17.2994 14.1522 4.71582 -8.95206
412 1 18.8698 12.5795 3.14424 -8.94907
413 1 20.442 14.1518 4.71698 -8.94987
414 1 5.12113e-16 15.7243 3.14471 -8.94975
415 1 1.5719 17.297 4.7169 -8.9497
416 1 3.14413 15.7245 3.14434 -8.95017
417 1 4.71475 17.2991 4.71492 -8.94555
418 1 6.28651 15.7273 3.14054 -8.94675
419 1 7.86073 17.3002 4.71506 -8.94959
420 1 9.43417 15.7263 3.14208 -8.9484
421 1 11.007 17.2995 4.71511 -8.94679
422 1 12.5797 15.7263 3.14208 -8.9484
423 1 14.1532 17.3002 4.71506 -8.94959
424 1 15.7274 15.7273 3.14054 -8.94675
425 1 17.2992 17.2991 4.71492 -8.94555
426 1 18.8698 15.7245 3.14434 -8.95017
427 1 20.442 17.297 4.7169 -8.9497
428 1 6.87578e-16 18.8692 3.14471 -8.94954
429 1 1.57234 20.4416 4.71723 -8.94965
430 1 3.14436 18.8695 3.14437 -8.94876
431 1 4.71691 20.442 4.71695 -8.94983
432 1 6.28929 18.8699 3.14423 -8.94968
433 1 7.86197 20.4421 4.7169 -8.94996
434 1 9.43446 18.8698 3.14422 -8.94927
435 1 11.007 20.4422 4.71673 -8.94945
436 1 12.5794 18.8698 3.14422 -8.94927
437 1 14.1519 20.4421 4.7169 -8.94996
438 1 15.7246 18.8699 3.14423 -8.94968
439 1 17.297 20.442 4.71695 -8.94983
440 1 18.8695 18.8695 3.14437 -8.94876
441 1 20.4416 20.4416 4.71723 -8.94965
442 1 1.57174 11.007 7.86182 -8.94827
443 1 4.71688 11.007 7.86227 -8.94033
444 1 7.87857 11.007 7.86817 -8.93125
445 1 11.007 11.007 7.52072 -7.52563
446 1 14.1353 11.007 7.86817 -8.93125
447 1 17.297 11.007 7.86227 -8.94033
448 1 20.4422 11.007 7.86182 -8.94827
449 1 2.85191e-16 12.5793 6.28942 -8.9499
450 1 1.57099 14.152 7.86196 -8.9516
451 1 3.14282 12.579 6.28916 -8.95069
452 1 4.70852 14.1546 7.86052 -8.95737
453 1 6.28165 12.5777 6.28807 -8.95883
454 1 7.8227 14.1863 7.83284 -8.86184
455 1 9.39459 12.6196 6.26215 -8.84028
456 1 11.007 14.1606 7.82917 -8.87026
457 1 12.6193 12.6196 6.26215 -8.84028
458 1 14.1912 14.1863 7.83284 -8.86184
459 1 15.7323 12.5777 6.28807 -8.95883
460 1 17.3054 14.1546 7.86052 -8.95737
461 1 18.8711 12.579 6.28916 -8.95069
462 1 20.4429 14.152 7.86196 -8.9516
463 1 1.28219e-15 15.7245 6.28945 -8.95034
464 1 1.57193 17.2971 7.86199 -8.94937
465 1 3.14229 15.7254 6.2886 -8.95061
466 1 4.7153 17.2987 7.86149 -8.94797
467 1 6.27909 15.7343 6.2803 -8.93206
468 1 7.86017 17.3036 7.86154 -8.95804
469 1 9.43132 15.7361 6.28365 -8.95322
470 1 11.007 17.2993 7.86224 -8.95143
471 1 12.5826 15.7361 6.28365 -8.95322
472 1 14.1537 17.3036 7.86154 -8.95804
473 1 15.7348 15.7343 6.2803 -8.93206
474 1 17.2986 17.2987 7.86149 -8.94797
475 1 18.8716 15.7254 6.2886 -8.95061
476 1 20.442 17.2971 7.86199 -8.94937
477 1 1.13403e-15 18.8692 6.28964 -8.94953
478 1 1.57233 20.4416 7.86209 -8.94964
479 1 3.14441 18.8695 6.28951 -8.94947
480 1 4.71685 20.442 7.86199 -8.9494
481 1 6.28871 18.8713 6.28888 -8.9511
482 1 7.86194 20.4427 7.86206 -8.95108
483 1 9.43463 18.8717 6.28896 -8.95159
484 1 11.007 20.4423 7.86205 -8.94944
485 1 12.5793 18.8717 6.28896 -8.95159
486 1 14.152 20.4427 7.86206 -8.95108
487 1 15.7252 18.8713 6.28888 -8.9511
488 1 17.297 20.442 7.86199 -8.9494
489 1 18.8695 18.8695 6.28951 -8.94947
490 1 20.4416 20.4416 7.86209 -8.94964
491 1 9.84894e-16 12.5792 9.43453 -8.95004
492 1 3.14224 12.579 9.43453 -8.95085
493 1 6.28076 12.5849 9.43453 -8.97134
494 1 9.35934 12.7982 9.43453 -8.06395
495 1 12.6546 12.7982 9.43453 -8.06395
496 1 15.7331 12.5849 9.43453 -8.97134
497 1 18.8717 12.579 9.43453 -8.95085
498 1 -1.55414e-16 15.7246 9.43453 -8.94995
534 1 4.71685 20.442 11.0071 -8.9494
538 1 17.297 20.442 11.0071 -8.9494
389 1 15.7242 18.8692 -0.000120271 -8.94965
383 1 6.28965 18.8692 -0.000120271 -8.94965
355 1 6.28931 12.5794 -0.000494422 -8.94938
361 1 15.7246 12.5794 -0.000494422 -8.94938
512 1 1.57174 11.007 11.0072 -8.94827
513 1 4.71688 11.007 11.0068 -8.94033
514 1 7.87857 11.007 11.0009 -8.93125
515 1 11.007 11.007 11.3483 -7.52563
516 1 14.1353 11.007 11.0009 -8.93125
517 1 17.297 11.007 11.0068 -8.94033
518 1 20.4422 11.007 11.0072 -8.94827
519 1 1.57099 14.152 11.0071 -8.9516
520 1 4.70852 14.1546 11.0085 -8.95737
521 1 7.8227 14.1863 11.0362 -8.86184
522 1 11.007 14.1606 11.0399 -8.87026
523 1 14.1912 14.1863 11.0362 -8.86184
524 1 17.3054 14.1546 11.0085 -8.95737
525 1 20.4429 14.152 11.0071 -8.9516
686 1 20.4415 20.4415 20.4415 -8.94954
685 1 18.8692 18.8692 18.8692 -8.94941
528 1 7.86017 17.3036 11.0075 -8.95804
529 1 11.007 17.2993 11.0068 -8.95143
530 1 14.1537 17.3036 11.0075 -8.95804
684 1 17.2966 20.4415 20.4415 -8.94967
683 1 15.7242 18.8692 18.8692 -8.94965
533 1 1.57233 20.4416 11.007 -8.94964
391 1 18.8692 18.8692 22.0138 -8.94941
535 1 7.86194 20.4427 11.007 -8.95108
536 1 11.007 20.4423 11.007 -8.94944
537 1 14.152 20.4427 11.007 -8.95108
381 1 3.1447 18.8692 22.0138 -8.94941
539 1 20.4416 20.4416 11.007 -8.94964
540 1 1.57177 11.007 14.1523 -8.94967
541 1 4.71445 11.007 14.1539 -8.94679
542 1 7.85823 11.007 14.1554 -8.94159
543 1 11.007 11.007 14.1607 -9.02366
544 1 14.1557 11.007 14.1554 -8.94159
545 1 17.2995 11.007 14.1539 -8.94679
546 1 20.4421 11.007 14.1523 -8.94967
547 1 5.80886e-16 12.5793 12.5796 -8.9499
548 1 1.5719 14.1518 14.1521 -8.94987
549 1 3.14282 12.579 12.5799 -8.95069
550 1 4.71453 14.1522 14.1532 -8.95206
551 1 6.28165 12.5777 12.581 -8.95883
552 1 7.85073 14.1629 14.1664 -8.94071
553 1 9.39459 12.6196 12.6069 -8.84028
554 1 11.007 14.1563 14.1614 -8.95294
555 1 12.6193 12.6196 12.6069 -8.84028
556 1 14.1632 14.1629 14.1664 -8.94071
557 1 15.7323 12.5777 12.581 -8.95883
558 1 17.2994 14.1522 14.1532 -8.95206
559 1 18.8711 12.579 12.5799 -8.95069
560 1 20.442 14.1518 14.1521 -8.94987
561 1 7.86371e-16 15.7245 12.5796 -8.95034
562 1 1.5719 17.297 14.1522 -8.9497
563 1 3.14229 15.7254 12.5805 -8.95061
564 1 4.71475 17.2991 14.1541 -8.94555
565 1 6.27909 15.7343 12.5888 -8.93206
566 1 7.86073 17.3002 14.154 -8.94959
567 1 9.43132 15.7361 12.5854 -8.95322
568 1 11.007 17.2995 14.1539 -8.94679
569 1 12.5826 15.7361 12.5854 -8.95322
570 1 14.1532 17.3002 14.154 -8.94959
571 1 15.7348 15.7343 12.5888 -8.93206
572 1 17.2992 17.2991 14.1541 -8.94555
573 1 18.8716 15.7254 12.5805 -8.95061
574 1 20.442 17.297 14.1522 -8.9497
575 1 1.51319e-15 18.8692 12.5794 -8.94953
576 1 1.57234 20.4416 14.1518 -8.94965
577 1 3.14441 18.8695 12.5795 -8.94947
578 1 4.71691 20.442 14.1521 -8.94983
579 1 6.28871 18.8713 12.5802 -8.9511
580 1 7.86197 20.4421 14.1522 -8.94996
581 1 9.43463 18.8717 12.5801 -8.95159
582 1 11.007 20.4422 14.1523 -8.94945
583 1 12.5793 18.8717 12.5801 -8.95159
584 1 14.1519 20.4421 14.1522 -8.94996
585 1 15.7252 18.8713 12.5802 -8.9511
586 1 17.297 20.442 14.1521 -8.94983
587 1 18.8695 18.8695 12.5795 -8.94947
588 1 20.4416 20.4416 14.1518 -8.94965
589 1 1.57228 11.007 17.2968 -8.94962
590 1 4.71667 11.007 17.2973 -8.94958
591 1 7.86113 11.007 17.2984 -8.94844
592 1 11.007 11.007 17.2994 -8.94998
593 1 14.1528 11.007 17.2984 -8.94844
594 1 17.2972 11.007 17.2973 -8.94958
595 1 20.4416 11.007 17.2968 -8.94962
596 1 -3.48272e-16 12.5794 15.7244 -8.94957
597 1 1.5723 14.1518 17.2968 -8.9495
598 1 3.14411 12.5795 15.7248 -8.94907
599 1 4.71682 14.1518 17.2972 -8.94952
600 1 6.288 12.5792 15.726 -8.94823
601 1 7.86117 14.1527 17.2996 -8.95241
602 1 9.43253 12.5808 15.7307 -8.95444
603 1 11.007 14.1526 17.2991 -8.95039
604 1 12.5814 12.5808 15.7307 -8.95444
605 1 14.1527 14.1527 17.2996 -8.95241
606 1 15.7259 12.5792 15.726 -8.94823
607 1 17.2971 14.1518 17.2972 -8.94952
608 1 18.8698 12.5795 15.7248 -8.94907
609 1 20.4416 14.1518 17.2968 -8.9495
610 1 3.83046e-16 15.7243 15.7244 -8.94975
611 1 1.57229 17.2967 17.2968 -8.94973
612 1 3.14413 15.7245 15.7247 -8.95017
613 1 4.71653 17.2974 17.2976 -8.94876
614 1 6.28651 15.7273 15.7285 -8.94675
615 1 7.86198 17.2972 17.2974 -8.94946
616 1 9.43417 15.7263 15.727 -8.9484
617 1 11.007 17.2973 17.2974 -8.94935
618 1 12.5797 15.7263 15.727 -8.9484
619 1 14.1519 17.2972 17.2974 -8.94946
620 1 15.7274 15.7273 15.7285 -8.94675
621 1 17.2974 17.2974 17.2976 -8.94876
622 1 18.8698 15.7245 15.7247 -8.95017
623 1 20.4416 17.2967 17.2968 -8.94973
624 1 1.53228e-15 18.8692 15.7244 -8.94954
625 1 1.57235 20.4415 17.2967 -8.94945
626 1 3.14436 18.8695 15.7247 -8.94876
627 1 4.71717 20.4416 17.2968 -8.94966
628 1 6.28929 18.8699 15.7248 -8.94968
629 1 7.86208 20.4416 17.2968 -8.94956
630 1 9.43446 18.8698 15.7248 -8.94927
631 1 11.007 20.4416 17.2968 -8.94961
632 1 12.5794 18.8698 15.7248 -8.94927
633 1 14.1518 20.4416 17.2968 -8.94956
634 1 15.7246 18.8699 15.7248 -8.94968
635 1 17.2967 20.4416 17.2968 -8.94966
636 1 18.8695 18.8695 15.7247 -8.94876
637 1 20.4415 20.4415 17.2967 -8.94945
638 1 1.57238 11.007 20.4415 -8.94964
639 1 4.71707 11.007 20.4415 -8.94965
640 1 7.8618 11.007 20.4415 -8.94971
641 1 11.007 11.007 20.4415 -8.94969
642 1 14.1521 11.007 20.4415 -8.94971
643 1 17.2968 11.007 20.4415 -8.94965
644 1 20.4415 11.007 20.4415 -8.94964
645 1 -3.43151e-16 12.5794 18.8691 -8.94964
646 1 1.57238 14.1518 20.4415 -8.94962
647 1 3.14469 12.5794 18.8692 -8.9496
648 1 4.71711 14.1518 20.4415 -8.94953
649 1 6.28931 12.5794 18.8696 -8.94938
650 1 7.86191 14.152 20.4415 -8.95062
651 1 9.43435 12.5795 18.8703 -8.95063
652 1 11.007 14.152 20.4415 -8.95012
653 1 12.5795 12.5795 18.8703 -8.95063
654 1 14.152 14.152 20.4415 -8.95062
655 1 15.7246 12.5794 18.8696 -8.94938
656 1 17.2968 14.1518 20.4415 -8.94953
657 1 18.8692 12.5794 18.8692 -8.9496
658 1 20.4415 14.1518 20.4415 -8.94962
659 1 -3.61083e-17 15.7242 18.8691 -8.9496
660 1 1.5724 17.2966 20.4415 -8.94968
661 1 3.14474 15.7242 18.8692 -8.94968
662 1 4.71708 17.2968 20.4415 -8.94973
663 1 6.28929 15.7246 18.8698 -8.95027
664 1 7.86207 17.2968 20.4415 -8.94957
665 1 9.43447 15.7246 18.8697 -8.94958
666 1 11.007 17.2968 20.4415 -8.94961
667 1 12.5794 15.7246 18.8697 -8.94958
668 1 14.1518 17.2968 20.4415 -8.94957
669 1 15.7246 15.7246 18.8698 -8.95027
670 1 17.2968 17.2968 20.4415 -8.94973
671 1 18.8692 15.7242 18.8692 -8.94968
672 1 20.4415 17.2966 20.4415 -8.94968
673 1 1.32238e-15 18.8691 18.8691 -8.94966
674 1 1.57239 20.4415 20.4415 -8.94954
675 1 3.1447 18.8692 18.8692 -8.94941
676 1 4.71726 20.4415 20.4415 -8.94967
677 1 6.28965 18.8692 18.8692 -8.94965
678 1 7.8621 20.4415 20.4415 -8.94963
679 1 9.43451 18.8692 18.8692 -8.94959
680 1 11.007 20.4415 20.4415 -8.94964
681 1 12.5794 18.8692 18.8692 -8.94959
682 1 14.1518 20.4415 20.4415 -8.94963
379 1 1.34518e-15 18.8691 22.0139 -8.94966
357 1 9.43435 12.5795 22.0127 -8.95063
359 1 12.5795 12.5795 22.0127 -8.95063
377 1 18.8692 15.7242 22.0138 -8.94968
365 1 -8.91724e-17 15.7242 22.0139 -8.9496
367 1 3.14474 15.7242 22.0138 -8.94968
369 1 6.28929 15.7246 22.0132 -8.95027
375 1 15.7246 15.7246 22.0132 -8.95027
351 1 -2.44567e-17 12.5794 22.0139 -8.94964
353 1 3.14469 12.5794 22.0138 -8.9496
363 1 18.8692 12.5794 22.0138 -8.9496
385 1 9.43451 18.8692 22.0138 -8.94959
387 1 12.5794 18.8692 22.0138 -8.94959
