ITEM: TIMESTEP
95
ITEM: NUMBER OF ATOMS
688
ITEM: BOX BOUNDS pp pp pp
0.0000000000000000e+00 2.2013900999999997e+01
0.0000000000000000e+00 2.2013900999999997e+01
0.0000000000000000e+00 2.2013900999999997e+01
ITEM: ATOMS id type x y z c_pot
189 1 20.4433 4.71527 11.0077 -8.94925
2 1 1.57167 1.57175 1.57126 -8.94902
175 1 18.871 9.43464 9.43453 -8.94984
4 1 4.71595 1.57136 1.57096 -8.94945
174 1 15.7291 9.42677 9.43453 -8.97032
6 1 7.8614 1.57138 1.57103 -8.94935
7 1 9.43428 1.17324e-15 -0.000681152 -8.94941
8 1 11.007 1.57142 1.57101 -8.94938
9 1 12.5796 1.36622e-15 -0.000681152 -8.94941
10 1 14.1525 1.57138 1.57103 -8.94935
173 1 12.6468 9.20487 9.43453 -8.07308
12 1 17.298 1.57136 1.57096 -8.94945
172 1 9.36713 9.20487 9.43453 -8.07308
14 1 20.4422 1.57175 1.57126 -8.94902
171 1 6.28475 9.42677 9.43453 -8.97032
16 1 1.57141 4.7164 1.57114 -8.94983
170 1 3.14288 9.43464 9.43453 -8.94984
18 1 4.71427 4.71457 1.56923 -8.9485
169 1 4.90999e-15 9.43477 9.43453 -8.94925
20 1 7.86046 4.71451 1.56936 -8.94927
188 1 17.3018 4.71221 11.0086 -8.94728
22 1 11.007 4.71464 1.56949 -8.94906
184 1 4.71212 4.71221 11.0086 -8.94728
24 1 14.1534 4.71451 1.56936 -8.94927
168 1 18.8743 6.28618 9.43453 -8.94891
26 1 17.2996 4.71457 1.56923 -8.9485
167 1 15.736 6.278 9.43453 -8.9401
28 1 20.4425 4.7164 1.57114 -8.94983
166 1 12.5831 6.29366 9.43453 -9.0004
30 1 1.57154 7.86173 1.57132 -8.94929
165 1 9.43078 6.29366 9.43453 -9.0004
32 1 4.71496 7.86133 1.57035 -8.94934
164 1 6.27786 6.278 9.43453 -8.9401
34 1 7.85933 7.85974 1.56693 -8.95286
35 1 9.43384 6.28792 -0.00200506 -8.94985
36 1 11.007 7.85992 1.56729 -8.95133
37 1 12.5801 6.28792 -0.00200506 -8.94985
38 1 14.1546 7.85974 1.56693 -8.95286
163 1 3.13962 6.28618 9.43453 -8.94891
40 1 17.2989 7.86133 1.57035 -8.94934
162 1 3.41651e-15 6.28822 9.43453 -8.95033
42 1 20.4424 7.86173 1.57132 -8.94929
183 1 1.57061 4.71527 11.0077 -8.94925
157 1 6.28621 3.14002 9.43453 -8.94944
161 1 18.8714 3.14255 9.43453 -8.94937
160 1 15.7277 3.14002 9.43453 -8.94944
159 1 12.5799 3.14374 9.43453 -8.9456
158 1 9.43404 3.14374 9.43453 -8.9456
156 1 3.1425 3.14255 9.43453 -8.94937
50 1 1.40042e-15 7.92062e-16 3.14385 -8.94938
51 1 1.5716 1.57163 4.71618 -8.94932
52 1 3.14362 1.23748e-15 3.1435 -8.94953
53 1 4.71546 1.57072 4.71567 -8.95005
54 1 6.28859 1.10155e-15 3.14337 -8.94992
55 1 7.86114 1.57034 4.7157 -8.95051
56 1 9.43416 6.23561e-16 3.14331 -8.94946
57 1 11.007 1.57051 4.71548 -8.94956
58 1 12.5797 2.04004e-16 3.14331 -8.94946
59 1 14.1528 1.57034 4.7157 -8.95051
60 1 15.7253 -1.18498e-16 3.14337 -8.94992
61 1 17.2984 1.57072 4.71567 -8.95005
62 1 18.8703 -1.09629e-16 3.1435 -8.94953
63 1 20.4423 1.57163 4.71618 -8.94932
64 1 2.40146e-15 3.14373 3.14341 -8.94944
65 1 1.57059 4.71555 4.71549 -8.94992
66 1 3.14256 3.14274 3.14256 -8.94837
67 1 4.71129 4.7117 4.71214 -8.94513
68 1 6.28729 3.14155 3.14197 -8.94939
69 1 7.85767 4.70945 4.71164 -8.94881
70 1 9.43379 3.14193 3.14226 -8.94904
71 1 11.007 4.71107 4.71202 -8.94599
72 1 12.5801 3.14193 3.14226 -8.94904
73 1 14.1562 4.70945 4.71164 -8.94881
74 1 15.7266 3.14155 3.14197 -8.94939
75 1 17.3026 4.7117 4.71214 -8.94513
76 1 18.8713 3.14274 3.14256 -8.94837
77 1 20.4433 4.71555 4.71549 -8.94992
78 1 1.42367e-15 6.28912 3.14365 -8.95004
79 1 1.57089 7.86181 4.71617 -8.95023
80 1 3.14204 6.28826 3.14264 -8.95054
81 1 4.71156 7.8603 4.71407 -8.95267
82 1 6.28286 6.28332 3.13681 -8.94646
83 1 7.84655 7.84687 4.69833 -8.9404
84 1 9.43246 6.28433 3.13808 -8.94819
85 1 11.007 7.85379 4.70142 -8.95375
86 1 12.5814 6.28433 3.13808 -8.94819
87 1 14.1674 7.84687 4.69833 -8.9404
88 1 15.731 6.28332 3.13681 -8.94646
89 1 17.3023 7.8603 4.71407 -8.95267
90 1 18.8719 6.28826 3.14264 -8.95054
91 1 20.443 7.86181 4.71617 -8.95023
92 1 3.54463e-16 9.43434 3.14361 -8.9495
93 1 3.14251 9.43416 3.14301 -8.94885
94 1 6.28566 9.43392 3.14121 -8.9478
95 1 9.43094 9.43189 3.13579 -8.95476
96 1 12.583 9.43189 3.13579 -8.95476
97 1 15.7282 9.43392 3.14121 -8.9478
98 1 18.8714 9.43416 3.14301 -8.94885
99 1 1.45639e-15 1.21662e-15 6.28899 -8.94936
100 1 1.57154 1.57155 7.86167 -8.94935
101 1 3.1435 1.5601e-15 6.28882 -8.94928
102 1 4.71525 1.57069 7.86148 -8.94933
103 1 6.28851 1.84319e-15 6.28889 -8.95061
104 1 7.86128 1.57038 7.86192 -8.9513
105 1 9.43442 -1.98813e-16 6.28902 -8.95083
106 1 11.007 1.57147 7.86214 -8.94926
107 1 12.5795 -4.63402e-15 6.28902 -8.95083
108 1 14.1526 1.57038 7.86192 -8.9513
109 1 15.7254 -4.60489e-15 6.28889 -8.95061
110 1 17.2986 1.57069 7.86148 -8.94933
111 1 18.8704 -8.14859e-18 6.28882 -8.94928
112 1 20.4424 1.57155 7.86167 -8.94935
113 1 1.91635e-15 3.14352 6.28876 -8.94926
114 1 1.57061 4.71527 7.8614 -8.94925
115 1 3.14257 3.14263 6.28834 -8.94905
116 1 4.71212 4.71221 7.86047 -8.94728
117 1 6.28679 3.14003 6.28765 -8.95147
118 1 7.8581 4.70799 7.86084 -8.9585
119 1 9.43406 3.14011 6.28784 -8.95264
120 1 11.007 4.71421 7.86141 -8.95352
121 1 12.5798 3.14011 6.28784 -8.95264
122 1 14.1558 4.70799 7.86084 -8.9585
123 1 15.7271 3.14003 6.28765 -8.95147
124 1 17.3018 4.71221 7.86047 -8.94728
125 1 18.8713 3.14263 6.28834 -8.94905
126 1 20.4433 4.71527 7.8614 -8.94925
127 1 4.08569e-15 6.2886 6.28869 -8.95089
128 1 1.57007 7.86142 7.86179 -8.95214
129 1 3.13952 6.28675 6.28727 -8.9511
130 1 4.70606 7.85734 7.86 -8.95827
131 1 6.27435 6.27533 6.27719 -8.932
132 1 7.81992 7.8241 7.83049 -8.86207
133 1 9.42795 6.27268 6.27843 -8.95116
134 1 11.007 7.84722 7.81901 -8.86016
135 1 12.586 6.27268 6.27843 -8.95116
136 1 14.194 7.8241 7.83049 -8.86207
137 1 15.7395 6.27533 6.27719 -8.932
138 1 17.3078 7.85734 7.86 -8.95827
139 1 18.8744 6.28675 6.28727 -8.9511
140 1 20.4438 7.86142 7.86179 -8.95214
141 1 1.28057e-15 9.43466 6.28911 -8.94985
142 1 3.14197 9.43498 6.28893 -8.95114
143 1 6.28032 9.43537 6.28717 -8.95944
144 1 9.39304 9.39061 6.25835 -8.84112
145 1 12.6209 9.39061 6.25835 -8.84112
146 1 15.7336 9.43537 6.28717 -8.95944
147 1 18.8719 9.43498 6.28893 -8.95114
148 1 1.7921e-15 8.10186e-16 9.43453 -8.94939
149 1 3.14342 1.42349e-15 9.43453 -8.94939
150 1 6.28818 2.1171e-15 9.43453 -8.95037
151 1 9.43436 2.97672e-16 9.43453 -8.9483
152 1 12.5795 -6.2433e-15 9.43453 -8.9483
153 1 15.7257 -4.17142e-15 9.43453 -8.95037
154 1 18.8705 1.59036e-16 9.43453 -8.94939
155 1 1.90199e-15 3.14343 9.43453 -8.94938
177 1 4.71525 1.57069 11.0076 -8.94933
48 1 15.726 9.43418 -0.00136375 -8.94915
181 1 17.2986 1.57069 11.0076 -8.94933
19 1 6.28856 3.14344 -0.00108395 -8.94947
45 1 6.28787 9.43418 -0.00136375 -8.94915
25 1 15.7253 3.14344 -0.00108395 -8.94947
176 1 1.57154 1.57155 11.0074 -8.94935
47 1 12.5802 9.43416 22.0118 -8.95082
178 1 7.86128 1.57038 11.0071 -8.9513
179 1 11.007 1.57147 11.0069 -8.94926
180 1 14.1526 1.57038 11.0071 -8.9513
46 1 9.43371 9.43416 22.0118 -8.95082
182 1 20.4424 1.57155 11.0074 -8.94935
343 1 18.8703 9.43432 18.8698 -8.94939
342 1 15.726 9.43418 18.8704 -8.94915
185 1 7.8581 4.70799 11.0082 -8.9585
186 1 11.007 4.71421 11.0076 -8.95352
187 1 14.1558 4.70799 11.0082 -8.9585
341 1 12.5802 9.43416 18.8712 -8.95082
340 1 9.43371 9.43416 18.8712 -8.95082
190 1 1.57007 7.86142 11.0073 -8.95214
191 1 4.70606 7.85734 11.0091 -8.95827
192 1 7.81992 7.8241 11.0386 -8.86207
193 1 11.007 7.84722 11.05 -8.86016
194 1 14.194 7.8241 11.0386 -8.86207
195 1 17.3078 7.85734 11.0091 -8.95827
196 1 20.4438 7.86142 11.0073 -8.95214
197 1 1.08463e-15 1.35417e-15 12.5801 -8.94936
198 1 1.5716 1.57163 14.1529 -8.94932
199 1 3.1435 8.11953e-16 12.5802 -8.94928
200 1 4.71546 1.57072 14.1534 -8.95005
201 1 6.28851 8.44181e-16 12.5802 -8.95061
202 1 7.86114 1.57034 14.1534 -8.95051
203 1 9.43442 2.07466e-16 12.58 -8.95083
204 1 11.007 1.57051 14.1536 -8.94956
205 1 12.5795 -3.74863e-15 12.58 -8.95083
206 1 14.1528 1.57034 14.1534 -8.95051
207 1 15.7254 -3.63278e-15 12.5802 -8.95061
208 1 17.2984 1.57072 14.1534 -8.95005
209 1 18.8704 5.16605e-16 12.5802 -8.94928
210 1 20.4423 1.57163 14.1529 -8.94932
211 1 1.36107e-15 3.14352 12.5803 -8.94926
212 1 1.57059 4.71555 14.1536 -8.94992
213 1 3.14257 3.14263 12.5807 -8.94905
214 1 4.71129 4.7117 14.1569 -8.94513
215 1 6.28679 3.14003 12.5814 -8.95147
216 1 7.85767 4.70945 14.1574 -8.94881
217 1 9.43406 3.14011 12.5812 -8.95264
218 1 11.007 4.71107 14.157 -8.94599
219 1 12.5798 3.14011 12.5812 -8.95264
220 1 14.1562 4.70945 14.1574 -8.94881
221 1 15.7271 3.14003 12.5814 -8.95147
222 1 17.3026 4.7117 14.1569 -8.94513
223 1 18.8713 3.14263 12.5807 -8.94905
224 1 20.4433 4.71555 14.1536 -8.94992
225 1 3.17317e-15 6.2886 12.5804 -8.95089
226 1 1.57089 7.86181 14.1529 -8.95023
227 1 3.13952 6.28675 12.5818 -8.9511
228 1 4.71156 7.8603 14.155 -8.95267
229 1 6.27435 6.27533 12.5919 -8.932
230 1 7.84655 7.84687 14.1707 -8.9404
231 1 9.42795 6.27268 12.5906 -8.95116
232 1 11.007 7.85379 14.1676 -8.95375
233 1 12.586 6.27268 12.5906 -8.95116
234 1 14.1674 7.84687 14.1707 -8.9404
235 1 15.7395 6.27533 12.5919 -8.932
236 1 17.3023 7.8603 14.155 -8.95267
237 1 18.8744 6.28675 12.5818 -8.9511
238 1 20.443 7.86181 14.1529 -8.95023
239 1 1.06059e-15 9.43466 12.58 -8.94985
240 1 3.14197 9.43498 12.5801 -8.95114
241 1 6.28032 9.43537 12.5819 -8.95944
242 1 9.39304 9.39061 12.6107 -8.84112
243 1 12.6209 9.39061 12.6107 -8.84112
244 1 15.7336 9.43537 12.5819 -8.95944
245 1 18.8719 9.43498 12.5801 -8.95114
246 1 1.63131e-15 7.44105e-16 15.7252 -8.94938
247 1 1.57167 1.57175 17.2978 -8.94902
248 1 3.14362 8.56339e-16 15.7256 -8.94953
249 1 4.71595 1.57136 17.2981 -8.94945
250 1 6.28859 3.61906e-16 15.7257 -8.94992
251 1 7.8614 1.57138 17.298 -8.94935
252 1 9.43416 6.49168e-16 15.7257 -8.94946
253 1 11.007 1.57142 17.2981 -8.94938
254 1 12.5797 4.3498e-16 15.7257 -8.94946
255 1 14.1525 1.57138 17.298 -8.94935
256 1 15.7253 6.61715e-16 15.7257 -8.94992
257 1 17.298 1.57136 17.2981 -8.94945
258 1 18.8703 2.214e-16 15.7256 -8.94953
259 1 20.4422 1.57175 17.2978 -8.94902
260 1 2.19735e-15 3.14373 15.7256 -8.94944
261 1 1.57141 4.7164 17.2979 -8.94983
262 1 3.14256 3.14274 15.7265 -8.94837
263 1 4.71427 4.71457 17.2998 -8.9485
264 1 6.28729 3.14155 15.7271 -8.94939
265 1 7.86046 4.71451 17.2997 -8.94927
266 1 9.43379 3.14193 15.7268 -8.94904
267 1 11.007 4.71464 17.2996 -8.94906
268 1 12.5801 3.14193 15.7268 -8.94904
269 1 14.1534 4.71451 17.2997 -8.94927
270 1 15.7266 3.14155 15.7271 -8.94939
271 1 17.2996 4.71457 17.2998 -8.9485
272 1 18.8713 3.14274 15.7265 -8.94837
273 1 20.4425 4.7164 17.2979 -8.94983
274 1 9.64865e-16 6.28912 15.7254 -8.95004
275 1 1.57154 7.86173 17.2977 -8.94929
276 1 3.14204 6.28826 15.7264 -8.95054
277 1 4.71496 7.86133 17.2987 -8.94934
278 1 6.28286 6.28332 15.7322 -8.94646
279 1 7.85933 7.85974 17.3021 -8.95286
280 1 9.43246 6.28433 15.731 -8.94819
281 1 11.007 7.85992 17.3018 -8.95133
282 1 12.5814 6.28433 15.731 -8.94819
283 1 14.1546 7.85974 17.3021 -8.95286
284 1 15.731 6.28332 15.7322 -8.94646
285 1 17.2989 7.86133 17.2987 -8.94934
286 1 18.8719 6.28826 15.7264 -8.95054
287 1 20.4424 7.86173 17.2977 -8.94929
288 1 5.78109e-16 9.43434 15.7254 -8.9495
289 1 3.14251 9.43416 15.726 -8.94885
290 1 6.28566 9.43392 15.7278 -8.9478
291 1 9.43094 9.43189 15.7333 -8.95476
292 1 12.583 9.43189 15.7333 -8.95476
293 1 15.7282 9.43392 15.7278 -8.9478
294 1 18.8714 9.43416 15.726 -8.94885
295 1 1.26792e-15 1.15733e-15 18.8696 -8.94882
296 1 1.57182 1.57195 20.4415 -8.94903
297 1 3.144 9.87977e-16 18.8698 -8.9493
298 1 4.71639 1.57179 20.4415 -8.94946
299 1 6.289 7.5057e-16 18.8697 -8.94943
300 1 7.86161 1.57175 20.4415 -8.94939
301 1 9.43428 1.58915e-15 18.8697 -8.94941
302 1 11.007 1.57176 20.4415 -8.94941
303 1 12.5796 1.09489e-15 18.8697 -8.94941
304 1 14.1523 1.57175 20.4415 -8.94939
305 1 15.7249 1.78613e-15 18.8697 -8.94943
306 1 17.2975 1.57179 20.4415 -8.94946
307 1 18.8699 1.65817e-15 18.8698 -8.9493
308 1 20.4421 1.57195 20.4415 -8.94903
309 1 1.62306e-15 3.14428 18.8697 -8.94954
310 1 1.57181 4.71677 20.4415 -8.94959
311 1 3.14347 3.14369 18.8701 -8.9491
312 1 4.71567 4.71591 20.4415 -8.94988
313 1 6.28856 3.14344 18.8701 -8.94947
314 1 7.8612 4.71575 20.4415 -8.9496
315 1 9.43414 3.14344 18.8701 -8.94933
316 1 11.007 4.71573 20.4415 -8.94954
317 1 12.5798 3.14344 18.8701 -8.94933
318 1 14.1527 4.71575 20.4415 -8.9496
319 1 15.7253 3.14344 18.8701 -8.94947
320 1 17.2982 4.71591 20.4415 -8.94988
321 1 18.8704 3.14369 18.8701 -8.9491
322 1 20.4421 4.71677 20.4415 -8.94959
323 1 1.38019e-15 6.28931 18.8696 -8.94942
324 1 1.57181 7.86183 20.4415 -8.94942
325 1 3.14357 6.28906 18.8699 -8.94957
326 1 4.7158 7.86162 20.4415 -8.94935
327 1 6.2877 6.288 18.8712 -8.95068
328 1 7.86092 7.86125 20.4415 -8.951
329 1 9.43384 6.28792 18.8711 -8.94985
330 1 11.007 7.86117 20.4415 -8.95062
331 1 12.5801 6.28792 18.8711 -8.94985
332 1 14.153 7.86125 20.4415 -8.951
333 1 15.7262 6.288 18.8712 -8.95068
334 1 17.2981 7.86162 20.4415 -8.94935
335 1 18.8703 6.28906 18.8699 -8.94957
336 1 20.4421 7.86183 20.4415 -8.94942
337 1 6.50171e-16 9.43439 18.8696 -8.94946
338 1 3.14358 9.43432 18.8698 -8.94939
339 1 6.28787 9.43418 18.8704 -8.94915
3 1 3.144 8.43699e-16 22.0132 -8.9493
5 1 6.289 9.16571e-16 22.0132 -8.94943
11 1 15.7249 7.53648e-16 22.0132 -8.94943
13 1 18.8699 1.17858e-15 22.0132 -8.9493
15 1 1.61693e-15 3.14428 22.0132 -8.94954
17 1 3.14347 3.14369 22.0129 -8.9491
41 1 18.8703 6.28906 22.0131 -8.94957
39 1 15.7262 6.288 22.0118 -8.95068
27 1 18.8704 3.14369 22.0129 -8.9491
29 1 1.2816e-15 6.28931 22.0133 -8.94942
31 1 3.14357 6.28906 22.0131 -8.94957
33 1 6.2877 6.288 22.0118 -8.95068
1 1 1.23596e-15 2.93206e-16 22.0133 -8.94882
21 1 9.43414 3.14344 22.0129 -8.94933
23 1 12.5798 3.14344 22.0129 -8.94933
43 1 7.60031e-16 9.43439 22.0133 -8.94946
44 1 3.14358 9.43432 22.0131 -8.94939
49 1 18.8703 9.43432 22.0131 -8.94939
344 1 1.57158 11.007 1.57132 -8.94945
345 1 4.71499 11.007 1.57046 -8.94941
346 1 7.85952 11.007 1.5692 -8.94792
347 1 11.007 11.007 1.56865 -8.94994
348 1 14.1544 11.007 1.5692 -8.94792
349 1 17.2989 11.007 1.57046 -8.94941
350 1 20.4423 11.007 1.57132 -8.94945
532 1 20.4433 17.2986 11.0077 -8.94925
352 1 1.57154 14.1522 1.57132 -8.94929
531 1 17.3018 17.3017 11.0086 -8.94728
354 1 4.71496 14.1526 1.57035 -8.94934
688 3 10.2366 11.007 9.43453 2.24288
356 1 7.85933 14.1542 1.56693 -8.95286
687 3 11.7773 11.007 9.43453 2.24288
358 1 11.007 14.154 1.56729 -8.95133
511 1 18.8714 18.8713 9.43453 -8.94937
360 1 14.1546 14.1542 1.56693 -8.95286
510 1 15.7277 18.8739 9.43453 -8.94944
362 1 17.2989 14.1526 1.57035 -8.94934
527 1 4.71212 17.3017 11.0086 -8.94728
364 1 20.4424 14.1522 1.57132 -8.94929
509 1 12.5799 18.8702 9.43453 -8.9456
366 1 1.57141 17.2975 1.57114 -8.94983
508 1 9.43404 18.8702 9.43453 -8.9456
368 1 4.71427 17.2993 1.56923 -8.9485
507 1 6.28621 18.8739 9.43453 -8.94944
370 1 7.86046 17.2994 1.56936 -8.94927
371 1 9.43384 15.726 -0.00200506 -8.94985
372 1 11.007 17.2993 1.56949 -8.94906
373 1 12.5801 15.726 -0.00200506 -8.94985
374 1 14.1534 17.2994 1.56936 -8.94927
506 1 3.1425 18.8713 9.43453 -8.94937
376 1 17.2996 17.2993 1.56923 -8.9485
505 1 9.68024e-16 18.8705 9.43453 -8.94938
378 1 20.4425 17.2975 1.57114 -8.94983
504 1 18.8743 15.7277 9.43453 -8.94891
380 1 1.57167 20.4421 1.57126 -8.94902
503 1 15.736 15.7359 9.43453 -8.9401
382 1 4.71595 20.4425 1.57096 -8.94945
502 1 12.5831 15.7202 9.43453 -9.0004
384 1 7.8614 20.4425 1.57103 -8.94935
526 1 1.57061 17.2986 11.0077 -8.94925
386 1 11.007 20.4425 1.57101 -8.94938
499 1 3.13962 15.7277 9.43453 -8.94891
388 1 14.1525 20.4425 1.57103 -8.94935
501 1 9.43078 15.7202 9.43453 -9.0004
390 1 17.298 20.4425 1.57096 -8.94945
500 1 6.27786 15.7359 9.43453 -8.9401
392 1 20.4422 20.4421 1.57126 -8.94902
393 1 1.571 11.007 4.71591 -8.94978
394 1 4.71256 11.007 4.71396 -8.94635
395 1 7.85649 11.007 4.71218 -8.9398
396 1 11.007 11.007 4.70695 -9.0243
397 1 14.1574 11.007 4.71218 -8.9398
398 1 17.3013 11.007 4.71396 -8.94635
399 1 20.4429 11.007 4.71591 -8.94978
400 1 -1.1271e-17 12.5796 3.14361 -8.9495
401 1 1.57089 14.1521 4.71617 -8.95023
402 1 3.14251 12.5797 3.14301 -8.94885
403 1 4.71156 14.1536 4.71407 -8.95267
404 1 6.28566 12.58 3.14121 -8.9478
405 1 7.84655 14.167 4.69833 -8.9404
406 1 9.43094 12.582 3.13579 -8.95476
407 1 11.007 14.1601 4.70142 -8.95375
408 1 12.583 12.582 3.13579 -8.95476
409 1 14.1674 14.167 4.69833 -8.9404
410 1 15.7282 12.58 3.14121 -8.9478
411 1 17.3023 14.1536 4.71407 -8.95267
412 1 18.8714 12.5797 3.14301 -8.94885
413 1 20.443 14.1521 4.71617 -8.95023
414 1 2.47115e-16 15.7248 3.14365 -8.95004
415 1 1.57059 17.2984 4.71549 -8.94992
416 1 3.14204 15.7256 3.14264 -8.95054
417 1 4.71129 17.3022 4.71214 -8.94513
418 1 6.28286 15.7306 3.13681 -8.94646
419 1 7.85767 17.3045 4.71164 -8.94881
420 1 9.43246 15.7296 3.13808 -8.94819
421 1 11.007 17.3028 4.71202 -8.94599
422 1 12.5814 15.7296 3.13808 -8.94819
423 1 14.1562 17.3045 4.71164 -8.94881
424 1 15.731 15.7306 3.13681 -8.94646
425 1 17.3026 17.3022 4.71214 -8.94513
426 1 18.8719 15.7256 3.14264 -8.95054
427 1 20.4433 17.2984 4.71549 -8.94992
428 1 6.79881e-16 18.8702 3.14341 -8.94944
429 1 1.5716 20.4423 4.71618 -8.94932
430 1 3.14256 18.8712 3.14256 -8.94837
431 1 4.71546 20.4432 4.71567 -8.95005
432 1 6.28729 18.8723 3.14197 -8.94939
433 1 7.86114 20.4436 4.7157 -8.95051
434 1 9.43379 18.872 3.14226 -8.94904
435 1 11.007 20.4434 4.71548 -8.94956
436 1 12.5801 18.872 3.14226 -8.94904
437 1 14.1528 20.4436 4.7157 -8.95051
438 1 15.7266 18.8723 3.14197 -8.94939
439 1 17.2984 20.4432 4.71567 -8.95005
440 1 18.8713 18.8712 3.14256 -8.94837
441 1 20.4423 20.4423 4.71618 -8.94932
442 1 1.57206 11.007 7.86189 -8.94712
443 1 4.71952 11.007 7.86314 -8.93954
444 1 7.8845 11.007 7.86927 -8.9303
445 1 11.007 11.007 7.52134 -7.53868
446 1 14.1294 11.007 7.86927 -8.9303
447 1 17.2944 11.007 7.86314 -8.93954
448 1 20.4418 11.007 7.86189 -8.94712
449 1 -1.00431e-15 12.5792 6.28911 -8.94985
450 1 1.57007 14.1525 7.86179 -8.95214
451 1 3.14197 12.5789 6.28893 -8.95114
452 1 4.70606 14.1566 7.86 -8.95827
453 1 6.28032 12.5785 6.28717 -8.95944
454 1 7.81992 14.1898 7.83049 -8.86207
455 1 9.39304 12.6233 6.25835 -8.84112
456 1 11.007 14.1667 7.81901 -8.86016
457 1 12.6209 12.6233 6.25835 -8.84112
458 1 14.194 14.1898 7.83049 -8.86207
459 1 15.7336 12.5785 6.28717 -8.95944
460 1 17.3078 14.1566 7.86 -8.95827
461 1 18.8719 12.5789 6.28893 -8.95114
462 1 20.4438 14.1525 7.86179 -8.95214
463 1 -2.05784e-15 15.7253 6.28869 -8.95089
464 1 1.57061 17.2986 7.8614 -8.94925
465 1 3.13952 15.7271 6.28727 -8.9511
466 1 4.71212 17.3017 7.86047 -8.94728
467 1 6.27435 15.7386 6.27719 -8.932
468 1 7.8581 17.3059 7.86084 -8.9585
469 1 9.42795 15.7412 6.27843 -8.95116
470 1 11.007 17.2997 7.86141 -8.95352
471 1 12.586 15.7412 6.27843 -8.95116
472 1 14.1558 17.3059 7.86084 -8.9585
473 1 15.7395 15.7386 6.27719 -8.932
474 1 17.3018 17.3017 7.86047 -8.94728
475 1 18.8744 15.7271 6.28727 -8.9511
476 1 20.4433 17.2986 7.8614 -8.94925
477 1 1.03746e-15 18.8704 6.28876 -8.94926
478 1 1.57154 20.4424 7.86167 -8.94935
479 1 3.14257 18.8713 6.28834 -8.94905
480 1 4.71525 20.4432 7.86148 -8.94933
481 1 6.28679 18.8739 6.28765 -8.95147
482 1 7.86128 20.4435 7.86192 -8.9513
483 1 9.43406 18.8738 6.28784 -8.95264
484 1 11.007 20.4424 7.86214 -8.94926
485 1 12.5798 18.8738 6.28784 -8.95264
486 1 14.1526 20.4435 7.86192 -8.9513
487 1 15.7271 18.8739 6.28765 -8.95147
488 1 17.2986 20.4432 7.86148 -8.94933
489 1 18.8713 18.8713 6.28834 -8.94905
490 1 20.4424 20.4424 7.86167 -8.94935
491 1 -4.78661e-15 12.5791 9.43453 -8.94925
492 1 3.14288 12.5793 9.43453 -8.94984
493 1 6.28475 12.5871 9.43453 -8.97032
494 1 9.36713 12.809 9.43453 -8.07308
495 1 12.6468 12.809 9.43453 -8.07308
496 1 15.7291 12.5871 9.43453 -8.97032
497 1 18.871 12.5793 9.43453 -8.94984
498 1 -1.47754e-15 15.7257 9.43453 -8.95033
534 1 4.71525 20.4432 11.0076 -8.94933
538 1 17.2986 20.4432 11.0076 -8.94933
389 1 15.7253 18.8705 -0.00108395 -8.94947
383 1 6.28856 18.8705 -0.00108395 -8.94947
355 1 6.28787 12.5797 -0.00136375 -8.94915
361 1 15.726 12.5797 -0.00136375 -8.94915
512 1 1.57206 11.007 11.0072 -8.94712
513 1 4.71952 11.007 11.0059 -8.93954
514 1 7.8845 11.007 10.9998 -8.9303
515 1 11.007 11.007 11.3477 -7.53868
516 1 14.1294 11.007 10.9998 -8.9303
517 1 17.2944 11.007 11.0059 -8.93954
518 1 20.4418 11.007 11.0072 -8.94712
519 1 1.57007 14.1525 11.0073 -8.95214
520 1 4.70606 14.1566 11.0091 -8.95827
521 1 7.81992 14.1898 11.0386 -8.86207
522 1 11.007 14.1667 11.05 -8.86016
523 1 14.194 14.1898 11.0386 -8.86207
524 1 17.3078 14.1566 11.0091 -8.95827
525 1 20.4438 14.1525 11.0073 -8.95214
686 1 20.4421 20.4419 20.4415 -8.94903
685 1 18.8704 18.8702 18.8701 -8.9491
528 1 7.8581 17.3059 11.0082 -8.9585
529 1 11.007 17.2997 11.0076 -8.95352
530 1 14.1558 17.3059 11.0082 -8.9585
684 1 17.2975 20.4421 20.4415 -8.94946
683 1 15.7253 18.8705 18.8701 -8.94947
533 1 1.57154 20.4424 11.0074 -8.94935
391 1 18.8704 18.8702 22.0129 -8.9491
535 1 7.86128 20.4435 11.0071 -8.9513
536 1 11.007 20.4424 11.0069 -8.94926
537 1 14.1526 20.4435 11.0071 -8.9513
381 1 3.14347 18.8702 22.0129 -8.9491
539 1 20.4424 20.4424 11.0074 -8.94935
540 1 1.571 11.007 14.1532 -8.94978
541 1 4.71256 11.007 14.1551 -8.94635
542 1 7.85649 11.007 14.1569 -8.9398
543 1 11.007 11.007 14.1621 -9.0243
544 1 14.1574 11.007 14.1569 -8.9398
545 1 17.3013 11.007 14.1551 -8.94635
546 1 20.4429 11.007 14.1532 -8.94978
547 1 -1.34738e-15 12.5792 12.58 -8.94985
548 1 1.57089 14.1521 14.1529 -8.95023
549 1 3.14197 12.5789 12.5801 -8.95114
550 1 4.71156 14.1536 14.155 -8.95267
551 1 6.28032 12.5785 12.5819 -8.95944
552 1 7.84655 14.167 14.1707 -8.9404
553 1 9.39304 12.6233 12.6107 -8.84112
554 1 11.007 14.1601 14.1676 -8.95375
555 1 12.6209 12.6233 12.6107 -8.84112
556 1 14.1674 14.167 14.1707 -8.9404
557 1 15.7336 12.5785 12.5819 -8.95944
558 1 17.3023 14.1536 14.155 -8.95267
559 1 18.8719 12.5789 12.5801 -8.95114
560 1 20.443 14.1521 14.1529 -8.95023
561 1 -1.99509e-15 15.7253 12.5804 -8.95089
562 1 1.57059 17.2984 14.1536 -8.94992
563 1 3.13952 15.7271 12.5818 -8.9511
564 1 4.71129 17.3022 14.1569 -8.94513
565 1 6.27435 15.7386 12.5919 -8.932
566 1 7.85767 17.3045 14.1574 -8.94881
567 1 9.42795 15.7412 12.5906 -8.95116
568 1 11.007 17.3028 14.157 -8.94599
569 1 12.586 15.7412 12.5906 -8.95116
570 1 14.1562 17.3045 14.1574 -8.94881
571 1 15.7395 15.7386 12.5919 -8.932
572 1 17.3026 17.3022 14.1569 -8.94513
573 1 18.8744 15.7271 12.5818 -8.9511
574 1 20.4433 17.2984 14.1536 -8.94992
575 1 5.47647e-16 18.8704 12.5803 -8.94926
576 1 1.5716 20.4423 14.1529 -8.94932
577 1 3.14257 18.8713 12.5807 -8.94905
578 1 4.71546 20.4432 14.1534 -8.95005
579 1 6.28679 18.8739 12.5814 -8.95147
580 1 7.86114 20.4436 14.1534 -8.95051
581 1 9.43406 18.8738 12.5812 -8.95264
582 1 11.007 20.4434 14.1536 -8.94956
583 1 12.5798 18.8738 12.5812 -8.95264
584 1 14.1528 20.4436 14.1534 -8.95051
585 1 15.7271 18.8739 12.5814 -8.95147
586 1 17.2984 20.4432 14.1534 -8.95005
587 1 18.8713 18.8713 12.5807 -8.94905
588 1 20.4423 20.4423 14.1529 -8.94932
589 1 1.57158 11.007 17.2977 -8.94945
590 1 4.71499 11.007 17.2986 -8.94941
591 1 7.85952 11.007 17.2999 -8.94792
592 1 11.007 11.007 17.3004 -8.94994
593 1 14.1544 11.007 17.2999 -8.94792
594 1 17.2989 11.007 17.2986 -8.94941
595 1 20.4423 11.007 17.2977 -8.94945
596 1 -1.86805e-16 12.5796 15.7254 -8.9495
597 1 1.57154 14.1522 17.2977 -8.94929
598 1 3.14251 12.5797 15.726 -8.94885
599 1 4.71496 14.1526 17.2987 -8.94934
600 1 6.28566 12.58 15.7278 -8.9478
601 1 7.85933 14.1542 17.3021 -8.95286
602 1 9.43094 12.582 15.7333 -8.95476
603 1 11.007 14.154 17.3018 -8.95133
604 1 12.583 12.582 15.7333 -8.95476
605 1 14.1546 14.1542 17.3021 -8.95286
606 1 15.7282 12.58 15.7278 -8.9478
607 1 17.2989 14.1526 17.2987 -8.94934
608 1 18.8714 12.5797 15.726 -8.94885
609 1 20.4424 14.1522 17.2977 -8.94929
610 1 7.6026e-16 15.7248 15.7254 -8.95004
611 1 1.57141 17.2975 17.2979 -8.94983
612 1 3.14204 15.7256 15.7264 -8.95054
613 1 4.71427 17.2993 17.2998 -8.9485
614 1 6.28286 15.7306 15.7322 -8.94646
615 1 7.86046 17.2994 17.2997 -8.94927
616 1 9.43246 15.7296 15.731 -8.94819
617 1 11.007 17.2993 17.2996 -8.94906
618 1 12.5814 15.7296 15.731 -8.94819
619 1 14.1534 17.2994 17.2997 -8.94927
620 1 15.731 15.7306 15.7322 -8.94646
621 1 17.2996 17.2993 17.2998 -8.9485
622 1 18.8719 15.7256 15.7264 -8.95054
623 1 20.4425 17.2975 17.2979 -8.94983
624 1 6.41808e-16 18.8702 15.7256 -8.94944
625 1 1.57167 20.4421 17.2978 -8.94902
626 1 3.14256 18.8712 15.7265 -8.94837
627 1 4.71595 20.4425 17.2981 -8.94945
628 1 6.28729 18.8723 15.7271 -8.94939
629 1 7.8614 20.4425 17.298 -8.94935
630 1 9.43379 18.872 15.7268 -8.94904
631 1 11.007 20.4425 17.2981 -8.94938
632 1 12.5801 18.872 15.7268 -8.94904
633 1 14.1525 20.4425 17.298 -8.94935
634 1 15.7266 18.8723 15.7271 -8.94939
635 1 17.298 20.4425 17.2981 -8.94945
636 1 18.8713 18.8712 15.7265 -8.94837
637 1 20.4422 20.4421 17.2978 -8.94902
638 1 1.57182 11.007 20.4415 -8.94946
639 1 4.71576 11.007 20.4415 -8.94949
640 1 7.86072 11.007 20.4415 -8.94951
641 1 11.007 11.007 20.4415 -8.94922
642 1 14.1532 11.007 20.4415 -8.94951
643 1 17.2981 11.007 20.4415 -8.94949
644 1 20.4421 11.007 20.4415 -8.94946
645 1 3.02519e-16 12.5795 18.8696 -8.94946
646 1 1.57181 14.1521 20.4415 -8.94942
647 1 3.14358 12.5796 18.8698 -8.94939
648 1 4.7158 14.1523 20.4415 -8.94935
649 1 6.28787 12.5797 18.8704 -8.94915
650 1 7.86092 14.1527 20.4415 -8.951
651 1 9.43371 12.5797 18.8712 -8.95082
652 1 11.007 14.1527 20.4415 -8.95062
653 1 12.5802 12.5797 18.8712 -8.95082
654 1 14.153 14.1527 20.4415 -8.951
655 1 15.726 12.5797 18.8704 -8.94915
656 1 17.2981 14.1523 20.4415 -8.94935
657 1 18.8703 12.5796 18.8698 -8.94939
658 1 20.4421 14.1521 20.4415 -8.94942
659 1 1.54652e-16 15.7246 18.8696 -8.94942
660 1 1.57181 17.2971 20.4415 -8.94959
661 1 3.14357 15.7248 18.8699 -8.94957
662 1 4.71567 17.298 20.4415 -8.94988
663 1 6.2877 15.7259 18.8712 -8.95068
664 1 7.8612 17.2982 20.4415 -8.9496
665 1 9.43384 15.726 18.8711 -8.94985
666 1 11.007 17.2982 20.4415 -8.94954
667 1 12.5801 15.726 18.8711 -8.94985
668 1 14.1527 17.2982 20.4415 -8.9496
669 1 15.7262 15.7259 18.8712 -8.95068
670 1 17.2982 17.298 20.4415 -8.94988
671 1 18.8703 15.7248 18.8699 -8.94957
672 1 20.4421 17.2971 20.4415 -8.94959
673 1 2.76145e-16 18.8696 18.8697 -8.94954
674 1 1.57182 20.4419 20.4415 -8.94903
675 1 3.14347 18.8702 18.8701 -8.9491
676 1 4.71639 20.4421 20.4415 -8.94946
677 1 6.28856 18.8705 18.8701 -8.94947
678 1 7.86161 20.4421 20.4415 -8.94939
679 1 9.43414 18.8705 18.8701 -8.94933
680 1 11.007 20.4421 20.4415 -8.94941
681 1 12.5798 18.8705 18.8701 -8.94933
682 1 14.1523 20.4421 20.4415 -8.94939
379 1 1.32506e-16 18.8696 22.0132 -8.94954
357 1 9.43371 12.5797 22.0118 -8.95082
359 1 12.5802 12.5797 22.0118 -8.95082
377 1 18.8703 15.7248 22.0131 -8.94957
365 1 -6.33863e-16 15.7246 22.0133 -8.94942
367 1 3.14357 15.7248 22.0131 -8.94957
369 1 6.2877 15.7259 22.0118 -8.95068
375 1 15.7262 15.7259 22.0118 -8.95068
351 1 1.75986e-16 12.5795 22.0133 -8.94946
353 1 3.14358 12.5796 22.0131 -8.94939
363 1 18.8703 12.5796 22.0131 -8.94939
385 1 9.43414 18.8705 22.0129 -8.94933
387 1 12.5798 18.8705 22.0129 -8.94933
