ITEM: TIMESTEP
48
ITEM: NUMBER OF ATOMS
688
ITEM: BOX BOUNDS pp pp pp
0.0000000000000000e+00 2.2013900999999997e+01
0.0000000000000000e+00 2.2013900999999997e+01
0.0000000000000000e+00 2.2013900999999997e+01
ITEM: ATOMS id type x y z c_pot
189 1 20.4415 4.71726 11.007 -8.94963
2 1 1.57242 1.57242 1.57242 -8.94963
175 1 18.8694 9.43453 9.43453 -8.95096
4 1 4.71726 1.57242 1.57242 -8.94963
174 1 15.7299 9.43351 9.43453 -8.96501
6 1 7.86211 1.57242 1.57242 -8.94963
7 1 9.43453 6.91802e-16 1.08705e-09 -8.94963
8 1 11.007 1.57242 1.57242 -8.94963
9 1 12.5794 6.7611e-16 1.08705e-09 -8.94963
10 1 14.1518 1.57242 1.57242 -8.94963
173 1 12.653 9.2744 9.43453 -8.01173
12 1 17.2966 1.57242 1.57242 -8.94963
172 1 9.36092 9.2744 9.43453 -8.01173
14 1 20.4415 1.57242 1.57242 -8.94963
171 1 6.28396 9.43351 9.43453 -8.96501
16 1 1.57242 4.71726 1.57242 -8.94963
170 1 3.1445 9.43453 9.43453 -8.95096
18 1 4.71726 4.71726 1.57242 -8.94961
169 1 2.23941e-16 9.43453 9.43453 -8.94979
20 1 7.86211 4.71727 1.57242 -8.94966
188 1 17.2966 4.71727 11.0069 -8.94986
22 1 11.007 4.71726 1.57242 -8.94965
184 1 4.71727 4.71727 11.0069 -8.94986
24 1 14.1518 4.71727 1.57242 -8.94966
168 1 18.8691 6.28967 9.43453 -8.94957
26 1 17.2966 4.71726 1.57242 -8.94961
167 1 15.7246 6.28928 9.43453 -8.95047
28 1 20.4415 4.71726 1.57242 -8.94963
166 1 12.5796 6.28311 9.43453 -8.98033
30 1 1.57242 7.86211 1.57242 -8.94963
165 1 9.43433 6.28311 9.43453 -8.98033
32 1 4.71727 7.86211 1.57242 -8.94967
164 1 6.28933 6.28928 9.43453 -8.95047
34 1 7.86207 7.86207 1.57233 -8.94985
35 1 9.43453 6.28969 -2.711e-07 -8.94963
36 1 11.007 7.86208 1.57237 -8.94963
37 1 12.5794 6.28969 -2.711e-07 -8.94963
38 1 14.1518 7.86207 1.57233 -8.94985
163 1 3.14481 6.28967 9.43453 -8.94957
40 1 17.2966 7.86211 1.57242 -8.94967
162 1 5.08953e-16 6.28968 9.43453 -8.94964
42 1 20.4415 7.86211 1.57242 -8.94963
183 1 1.57242 4.71726 11.007 -8.94963
157 1 6.28967 3.14481 9.43453 -8.94956
161 1 18.8691 3.14484 9.43453 -8.94965
160 1 15.7242 3.14481 9.43453 -8.94956
159 1 12.5794 3.14437 9.43453 -8.9513
158 1 9.43455 3.14437 9.43453 -8.9513
156 1 3.14484 3.14484 9.43453 -8.94965
50 1 1.62657e-16 6.83128e-16 3.14484 -8.94963
51 1 1.57242 1.57242 4.71726 -8.94964
52 1 3.14484 1.18369e-16 3.14484 -8.94963
53 1 4.71726 1.57242 4.71726 -8.94963
54 1 6.28969 1.05767e-15 3.14484 -8.94963
55 1 7.86211 1.57242 4.71726 -8.94964
56 1 9.43453 1.03563e-15 3.14484 -8.94963
57 1 11.007 1.57242 4.71726 -8.94964
58 1 12.5794 9.55332e-16 3.14484 -8.94963
59 1 14.1518 1.57242 4.71726 -8.94964
60 1 15.7242 1.14032e-15 3.14484 -8.94963
61 1 17.2966 1.57242 4.71726 -8.94963
62 1 18.8691 3.03209e-16 3.14484 -8.94963
63 1 20.4415 1.57242 4.71726 -8.94964
64 1 -1.46778e-16 3.14484 3.14484 -8.94963
65 1 1.57242 4.71726 4.71726 -8.94963
66 1 3.14484 3.14484 3.14484 -8.94961
67 1 4.71722 4.71722 4.71722 -8.94928
68 1 6.28969 3.14484 3.14484 -8.94967
69 1 7.8621 4.71722 4.71725 -8.94996
70 1 9.43453 3.14484 3.14484 -8.94964
71 1 11.007 4.71723 4.71722 -8.94961
72 1 12.5794 3.14484 3.14484 -8.94964
73 1 14.1518 4.71722 4.71725 -8.94996
74 1 15.7242 3.14484 3.14484 -8.94967
75 1 17.2967 4.71722 4.71722 -8.94928
76 1 18.8691 3.14484 3.14484 -8.94961
77 1 20.4415 4.71726 4.71726 -8.94963
78 1 -3.21773e-16 6.28969 3.14484 -8.94963
79 1 1.57242 7.86211 4.71726 -8.94964
80 1 3.14484 6.28968 3.14484 -8.94966
81 1 4.71721 7.86208 4.71724 -8.9499
82 1 6.28961 6.28961 3.14474 -8.94931
83 1 7.86107 7.86107 4.71573 -8.9463
84 1 9.43454 6.28967 3.14483 -8.94974
85 1 11.007 7.86178 4.71652 -8.95281
86 1 12.5794 6.28967 3.14483 -8.94974
87 1 14.1528 7.86107 4.71573 -8.9463
88 1 15.7243 6.28961 3.14474 -8.94931
89 1 17.2967 7.86208 4.71724 -8.9499
90 1 18.8691 6.28968 3.14484 -8.94966
91 1 20.4415 7.86211 4.71726 -8.94964
92 1 -6.14361e-17 9.43453 3.14484 -8.94963
93 1 3.14484 9.43453 3.14484 -8.94965
94 1 6.28967 9.43454 3.14482 -8.94982
95 1 9.43427 9.43427 3.14401 -8.95143
96 1 12.5796 9.43427 3.14401 -8.95143
97 1 15.7242 9.43454 3.14482 -8.94982
98 1 18.8691 9.43453 3.14484 -8.94965
99 1 8.04761e-16 1.10331e-15 6.28969 -8.94963
100 1 1.57242 1.57242 7.86211 -8.94963
101 1 3.14484 7.54645e-16 6.28969 -8.94963
102 1 4.71726 1.57242 7.86211 -8.94963
103 1 6.28968 1.31823e-15 6.28968 -8.94965
104 1 7.8621 1.57238 7.8621 -8.94979
105 1 9.43453 -5.62071e-17 6.28968 -8.94964
106 1 11.007 1.57237 7.86208 -8.94968
107 1 12.5794 -2.10699e-16 6.28968 -8.94964
108 1 14.1518 1.57238 7.8621 -8.94979
109 1 15.7242 1.28074e-15 6.28968 -8.94965
110 1 17.2966 1.57242 7.86211 -8.94963
111 1 18.8691 8.63779e-16 6.28969 -8.94963
112 1 20.4415 1.57242 7.86211 -8.94963
113 1 5.14493e-16 3.14484 6.28969 -8.94963
114 1 1.57242 4.71726 7.86211 -8.94963
115 1 3.14484 3.14485 6.28969 -8.94967
116 1 4.71727 4.71727 7.86211 -8.94986
117 1 6.28965 3.14478 6.28966 -8.94966
118 1 7.86181 4.71646 7.86184 -8.95127
119 1 9.43452 3.14478 6.28966 -8.94969
120 1 11.007 4.71652 7.86163 -8.94808
121 1 12.5794 3.14478 6.28966 -8.94969
122 1 14.1521 4.71646 7.86184 -8.95127
123 1 15.7242 3.14478 6.28966 -8.94966
124 1 17.2966 4.71727 7.86211 -8.94986
125 1 18.8691 3.14485 6.28969 -8.94967
126 1 20.4415 4.71726 7.86211 -8.94963
127 1 1.58783e-16 6.28968 6.28968 -8.94965
128 1 1.57239 7.8621 7.8621 -8.94979
129 1 3.14479 6.28966 6.28966 -8.94969
130 1 4.7165 7.86189 7.8619 -8.95149
131 1 6.28886 6.28886 6.28884 -8.94453
132 1 7.85078 7.85154 7.85154 -8.88541
133 1 9.43443 6.28866 6.28936 -8.95266
134 1 11.007 7.85857 7.85453 -8.91247
135 1 12.5795 6.28866 6.28936 -8.95266
136 1 14.1631 7.85154 7.85154 -8.88541
137 1 15.725 6.28886 6.28884 -8.94453
138 1 17.2974 7.86189 7.8619 -8.95149
139 1 18.8691 6.28966 6.28966 -8.94969
140 1 20.4415 7.8621 7.8621 -8.94979
141 1 3.22444e-16 9.43453 6.28968 -8.94965
142 1 3.14477 9.43452 6.28966 -8.94977
143 1 6.28854 9.4344 6.28922 -8.95136
144 1 9.42102 9.42094 6.27929 -8.87148
145 1 12.5929 9.42094 6.27929 -8.87148
146 1 15.7254 9.4344 6.28922 -8.95136
147 1 18.8691 9.43452 6.28966 -8.94977
148 1 1.14452e-15 -1.53749e-16 9.43453 -8.94963
149 1 3.14484 9.3502e-16 9.43453 -8.94963
150 1 6.28969 7.76063e-16 9.43453 -8.94964
151 1 9.43453 -6.08692e-17 9.43453 -8.94986
152 1 12.5794 -2.51471e-16 9.43453 -8.94986
153 1 15.7242 1.08286e-15 9.43453 -8.94964
154 1 18.8691 9.19665e-16 9.43453 -8.94963
155 1 3.16659e-17 3.14484 9.43453 -8.94963
177 1 4.71726 1.57242 11.007 -8.94963
48 1 15.7242 9.43453 -9.22807e-07 -8.94963
181 1 17.2966 1.57242 11.007 -8.94963
19 1 6.28969 3.14484 2.91873e-07 -8.94964
45 1 6.28969 9.43453 -9.22807e-07 -8.94963
25 1 15.7242 3.14484 2.91873e-07 -8.94964
176 1 1.57242 1.57242 11.007 -8.94963
47 1 12.5794 9.43452 22.0139 -8.94979
178 1 7.8621 1.57238 11.007 -8.94979
179 1 11.007 1.57237 11.007 -8.94968
180 1 14.1518 1.57238 11.007 -8.94979
46 1 9.43452 9.43452 22.0139 -8.94979
182 1 20.4415 1.57242 11.007 -8.94963
343 1 18.8691 9.43453 18.8691 -8.94963
342 1 15.7242 9.43453 18.8691 -8.94963
185 1 7.86181 4.71646 11.0072 -8.95127
186 1 11.007 4.71652 11.0074 -8.94808
187 1 14.1521 4.71646 11.0072 -8.95127
341 1 12.5794 9.43452 18.8691 -8.94979
340 1 9.43452 9.43452 18.8691 -8.94979
190 1 1.57239 7.8621 11.007 -8.94979
191 1 4.7165 7.86189 11.0072 -8.95149
192 1 7.85078 7.85154 11.0175 -8.88541
193 1 11.007 7.85857 11.0145 -8.91247
194 1 14.1631 7.85154 11.0175 -8.88541
195 1 17.2974 7.86189 11.0072 -8.95149
196 1 20.4415 7.8621 11.007 -8.94979
197 1 7.93722e-16 9.20837e-16 12.5794 -8.94963
198 1 1.57242 1.57242 14.1518 -8.94964
199 1 3.14484 6.91975e-16 12.5794 -8.94963
200 1 4.71726 1.57242 14.1518 -8.94963
201 1 6.28968 1.35479e-15 12.5794 -8.94965
202 1 7.86211 1.57242 14.1518 -8.94964
203 1 9.43453 -1.10429e-16 12.5794 -8.94964
204 1 11.007 1.57242 14.1518 -8.94964
205 1 12.5794 -1.90605e-16 12.5794 -8.94964
206 1 14.1518 1.57242 14.1518 -8.94964
207 1 15.7242 1.27526e-15 12.5794 -8.94965
208 1 17.2966 1.57242 14.1518 -8.94963
209 1 18.8691 1.28566e-15 12.5794 -8.94963
210 1 20.4415 1.57242 14.1518 -8.94964
211 1 5.7016e-16 3.14484 12.5794 -8.94963
212 1 1.57242 4.71726 14.1518 -8.94963
213 1 3.14484 3.14485 12.5794 -8.94967
214 1 4.71722 4.71722 14.1518 -8.94928
215 1 6.28965 3.14478 12.5794 -8.94966
216 1 7.8621 4.71722 14.1518 -8.94996
217 1 9.43452 3.14478 12.5794 -8.94969
218 1 11.007 4.71723 14.1518 -8.94961
219 1 12.5794 3.14478 12.5794 -8.94969
220 1 14.1518 4.71722 14.1518 -8.94996
221 1 15.7242 3.14478 12.5794 -8.94966
222 1 17.2967 4.71722 14.1518 -8.94928
223 1 18.8691 3.14485 12.5794 -8.94967
224 1 20.4415 4.71726 14.1518 -8.94963
225 1 3.52377e-16 6.28968 12.5794 -8.94965
226 1 1.57242 7.86211 14.1518 -8.94964
227 1 3.14479 6.28966 12.5794 -8.94969
228 1 4.71721 7.86208 14.1518 -8.9499
229 1 6.28886 6.28886 12.5802 -8.94453
230 1 7.86107 7.86107 14.1533 -8.9463
231 1 9.43443 6.28866 12.5797 -8.95266
232 1 11.007 7.86178 14.1525 -8.95281
233 1 12.5795 6.28866 12.5797 -8.95266
234 1 14.1528 7.86107 14.1533 -8.9463
235 1 15.725 6.28886 12.5802 -8.94453
236 1 17.2967 7.86208 14.1518 -8.9499
237 1 18.8691 6.28966 12.5794 -8.94969
238 1 20.4415 7.86211 14.1518 -8.94964
239 1 1.44592e-16 9.43453 12.5794 -8.94965
240 1 3.14477 9.43452 12.5794 -8.94977
241 1 6.28854 9.4344 12.5798 -8.95136
242 1 9.42102 9.42094 12.5898 -8.87148
243 1 12.5929 9.42094 12.5898 -8.87148
244 1 15.7254 9.4344 12.5798 -8.95136
245 1 18.8691 9.43452 12.5794 -8.94977
246 1 2.20064e-16 6.53584e-16 15.7242 -8.94963
247 1 1.57242 1.57242 17.2966 -8.94963
248 1 3.14484 4.6925e-16 15.7242 -8.94963
249 1 4.71726 1.57242 17.2966 -8.94963
250 1 6.28969 1.07681e-15 15.7242 -8.94963
251 1 7.86211 1.57242 17.2966 -8.94963
252 1 9.43453 1.01039e-15 15.7242 -8.94963
253 1 11.007 1.57242 17.2966 -8.94963
254 1 12.5794 1.0567e-15 15.7242 -8.94963
255 1 14.1518 1.57242 17.2966 -8.94963
256 1 15.7242 9.34097e-16 15.7242 -8.94963
257 1 17.2966 1.57242 17.2966 -8.94963
258 1 18.8691 4.7815e-16 15.7242 -8.94963
259 1 20.4415 1.57242 17.2966 -8.94963
260 1 -2.35866e-16 3.14484 15.7242 -8.94963
261 1 1.57242 4.71726 17.2966 -8.94963
262 1 3.14484 3.14484 15.7242 -8.94961
263 1 4.71726 4.71726 17.2966 -8.94961
264 1 6.28969 3.14484 15.7242 -8.94967
265 1 7.86211 4.71727 17.2966 -8.94966
266 1 9.43453 3.14484 15.7242 -8.94964
267 1 11.007 4.71726 17.2966 -8.94965
268 1 12.5794 3.14484 15.7242 -8.94964
269 1 14.1518 4.71727 17.2966 -8.94966
270 1 15.7242 3.14484 15.7242 -8.94967
271 1 17.2966 4.71726 17.2966 -8.94961
272 1 18.8691 3.14484 15.7242 -8.94961
273 1 20.4415 4.71726 17.2966 -8.94963
274 1 -5.76814e-16 6.28969 15.7242 -8.94963
275 1 1.57242 7.86211 17.2966 -8.94963
276 1 3.14484 6.28968 15.7242 -8.94966
277 1 4.71727 7.86211 17.2966 -8.94967
278 1 6.28961 6.28961 15.7243 -8.94931
279 1 7.86207 7.86207 17.2967 -8.94985
280 1 9.43454 6.28967 15.7242 -8.94974
281 1 11.007 7.86208 17.2967 -8.94963
282 1 12.5794 6.28967 15.7242 -8.94974
283 1 14.1518 7.86207 17.2967 -8.94985
284 1 15.7243 6.28961 15.7243 -8.94931
285 1 17.2966 7.86211 17.2966 -8.94967
286 1 18.8691 6.28968 15.7242 -8.94966
287 1 20.4415 7.86211 17.2966 -8.94963
288 1 5.70231e-17 9.43453 15.7242 -8.94963
289 1 3.14484 9.43453 15.7242 -8.94965
290 1 6.28967 9.43454 15.7242 -8.94982
291 1 9.43427 9.43427 15.725 -8.95143
292 1 12.5796 9.43427 15.725 -8.95143
293 1 15.7242 9.43454 15.7242 -8.94982
294 1 18.8691 9.43453 15.7242 -8.94965
295 1 1.10145e-15 -1.82193e-16 18.8691 -8.94963
296 1 1.57242 1.57242 20.4415 -8.94963
297 1 3.14484 2.89514e-16 18.8691 -8.94963
298 1 4.71726 1.57242 20.4415 -8.94963
299 1 6.28969 1.72201e-15 18.8691 -8.94963
300 1 7.86211 1.57242 20.4415 -8.94963
301 1 9.43453 7.06269e-16 18.8691 -8.94963
302 1 11.007 1.57242 20.4415 -8.94963
303 1 12.5794 6.79987e-16 18.8691 -8.94963
304 1 14.1518 1.57242 20.4415 -8.94963
305 1 15.7242 1.78066e-15 18.8691 -8.94963
306 1 17.2966 1.57242 20.4415 -8.94963
307 1 18.8691 5.82163e-16 18.8691 -8.94963
308 1 20.4415 1.57242 20.4415 -8.94963
309 1 6.39654e-16 3.14484 18.8691 -8.94963
310 1 1.57242 4.71726 20.4415 -8.94963
311 1 3.14484 3.14484 18.8691 -8.94963
312 1 4.71726 4.71726 20.4415 -8.94963
313 1 6.28969 3.14484 18.8691 -8.94964
314 1 7.86211 4.71726 20.4415 -8.94963
315 1 9.43453 3.14484 18.8691 -8.94963
316 1 11.007 4.71726 20.4415 -8.94963
317 1 12.5794 3.14484 18.8691 -8.94963
318 1 14.1518 4.71726 20.4415 -8.94963
319 1 15.7242 3.14484 18.8691 -8.94964
320 1 17.2966 4.71726 20.4415 -8.94963
321 1 18.8691 3.14484 18.8691 -8.94963
322 1 20.4415 4.71726 20.4415 -8.94963
323 1 -9.74477e-16 6.28969 18.8691 -8.94963
324 1 1.57242 7.86211 20.4415 -8.94963
325 1 3.14484 6.28969 18.8691 -8.94964
326 1 4.71726 7.86211 20.4415 -8.94963
327 1 6.28968 6.28968 18.8691 -8.94964
328 1 7.8621 7.8621 20.4415 -8.94966
329 1 9.43453 6.28969 18.8691 -8.94963
330 1 11.007 7.86211 20.4415 -8.94965
331 1 12.5794 6.28969 18.8691 -8.94963
332 1 14.1518 7.8621 20.4415 -8.94966
333 1 15.7242 6.28968 18.8691 -8.94964
334 1 17.2966 7.86211 20.4415 -8.94963
335 1 18.8691 6.28969 18.8691 -8.94964
336 1 20.4415 7.86211 20.4415 -8.94963
337 1 -2.28885e-16 9.43453 18.8691 -8.94963
338 1 3.14484 9.43453 18.8691 -8.94963
339 1 6.28969 9.43453 18.8691 -8.94963
3 1 3.14484 1.38507e-16 22.0139 -8.94963
5 1 6.28969 1.474e-15 22.0139 -8.94963
11 1 15.7242 1.57728e-15 22.0139 -8.94963
13 1 18.8691 5.82946e-16 22.0139 -8.94963
15 1 6.87366e-16 3.14484 22.0139 -8.94963
17 1 3.14484 3.14484 22.0139 -8.94963
41 1 18.8691 6.28969 22.0139 -8.94964
39 1 15.7242 6.28968 22.0139 -8.94964
27 1 18.8691 3.14484 22.0139 -8.94963
29 1 -8.17751e-16 6.28969 22.0139 -8.94963
31 1 3.14484 6.28969 22.0139 -8.94964
33 1 6.28968 6.28968 22.0139 -8.94964
1 1 9.10235e-16 -2.03085e-16 22.0139 -8.94963
21 1 9.43453 3.14484 22.0139 -8.94963
23 1 12.5794 3.14484 22.0139 -8.94963
43 1 -3.04074e-16 9.43453 22.0139 -8.94963
44 1 3.14484 9.43453 22.0139 -8.94963
49 1 18.8691 9.43453 22.0139 -8.94963
344 1 1.57242 11.007 1.57242 -8.94963
345 1 4.71726 11.007 1.57242 -8.94965
346 1 7.86208 11.007 1.57237 -8.94958
347 1 11.007 11.007 1.57199 -8.95051
348 1 14.1518 11.007 1.57237 -8.94958
349 1 17.2966 11.007 1.57242 -8.94965
350 1 20.4415 11.007 1.57242 -8.94963
532 1 20.4415 17.2966 11.007 -8.94963
352 1 1.57242 14.1518 1.57242 -8.94963
531 1 17.2966 17.2966 11.0069 -8.94986
354 1 4.71727 14.1518 1.57242 -8.94967
688 3 10.2332 11.007 9.43453 2.64121
356 1 7.86207 14.1518 1.57233 -8.94985
687 3 11.7807 11.007 9.43453 2.64121
358 1 11.007 14.1518 1.57237 -8.94963
511 1 18.8691 18.8691 9.43453 -8.94965
360 1 14.1518 14.1518 1.57233 -8.94985
510 1 15.7242 18.8691 9.43453 -8.94956
362 1 17.2966 14.1518 1.57242 -8.94967
527 1 4.71727 17.2966 11.0069 -8.94986
364 1 20.4415 14.1518 1.57242 -8.94963
509 1 12.5794 18.8695 9.43453 -8.9513
366 1 1.57242 17.2966 1.57242 -8.94963
508 1 9.43455 18.8695 9.43453 -8.9513
368 1 4.71726 17.2966 1.57242 -8.94961
507 1 6.28967 18.8691 9.43453 -8.94956
370 1 7.86211 17.2966 1.57242 -8.94966
371 1 9.43453 15.7242 -2.711e-07 -8.94963
372 1 11.007 17.2966 1.57242 -8.94965
373 1 12.5794 15.7242 -2.711e-07 -8.94963
374 1 14.1518 17.2966 1.57242 -8.94966
506 1 3.14484 18.8691 9.43453 -8.94965
376 1 17.2966 17.2966 1.57242 -8.94961
505 1 3.08523e-16 18.8691 9.43453 -8.94963
378 1 20.4415 17.2966 1.57242 -8.94963
504 1 18.8691 15.7242 9.43453 -8.94957
380 1 1.57242 20.4415 1.57242 -8.94963
503 1 15.7246 15.7246 9.43453 -8.95047
382 1 4.71726 20.4415 1.57242 -8.94963
502 1 12.5796 15.7308 9.43453 -8.98033
384 1 7.86211 20.4415 1.57242 -8.94963
526 1 1.57242 17.2966 11.007 -8.94963
386 1 11.007 20.4415 1.57242 -8.94963
499 1 3.14481 15.7242 9.43453 -8.94957
388 1 14.1518 20.4415 1.57242 -8.94963
501 1 9.43433 15.7308 9.43453 -8.98033
390 1 17.2966 20.4415 1.57242 -8.94963
500 1 6.28933 15.7246 9.43453 -8.95047
392 1 20.4415 20.4415 1.57242 -8.94963
393 1 1.57242 11.007 4.71726 -8.94963
394 1 4.71722 11.007 4.71723 -8.94942
395 1 7.86177 11.007 4.71669 -8.95171
396 1 11.007 11.007 4.71319 -9.00127
397 1 14.1521 11.007 4.71669 -8.95171
398 1 17.2967 11.007 4.71723 -8.94942
399 1 20.4415 11.007 4.71726 -8.94963
400 1 5.92132e-17 12.5794 3.14484 -8.94963
401 1 1.57242 14.1518 4.71726 -8.94964
402 1 3.14484 12.5794 3.14484 -8.94965
403 1 4.71721 14.1518 4.71724 -8.9499
404 1 6.28967 12.5794 3.14482 -8.94982
405 1 7.86107 14.1528 4.71573 -8.9463
406 1 9.43427 12.5796 3.14401 -8.95143
407 1 11.007 14.1521 4.71652 -8.95281
408 1 12.5796 12.5796 3.14401 -8.95143
409 1 14.1528 14.1528 4.71573 -8.9463
410 1 15.7242 12.5794 3.14482 -8.94982
411 1 17.2967 14.1518 4.71724 -8.9499
412 1 18.8691 12.5794 3.14484 -8.94965
413 1 20.4415 14.1518 4.71726 -8.94964
414 1 -4.40388e-16 15.7242 3.14484 -8.94963
415 1 1.57242 17.2966 4.71726 -8.94963
416 1 3.14484 15.7242 3.14484 -8.94966
417 1 4.71722 17.2967 4.71722 -8.94928
418 1 6.28961 15.7243 3.14474 -8.94931
419 1 7.8621 17.2967 4.71725 -8.94996
420 1 9.43454 15.7242 3.14483 -8.94974
421 1 11.007 17.2967 4.71722 -8.94961
422 1 12.5794 15.7242 3.14483 -8.94974
423 1 14.1518 17.2967 4.71725 -8.94996
424 1 15.7243 15.7243 3.14474 -8.94931
425 1 17.2967 17.2967 4.71722 -8.94928
426 1 18.8691 15.7242 3.14484 -8.94966
427 1 20.4415 17.2966 4.71726 -8.94963
428 1 -5.23015e-17 18.8691 3.14484 -8.94963
429 1 1.57242 20.4415 4.71726 -8.94964
430 1 3.14484 18.8691 3.14484 -8.94961
431 1 4.71726 20.4415 4.71726 -8.94963
432 1 6.28969 18.8691 3.14484 -8.94967
433 1 7.86211 20.4415 4.71726 -8.94964
434 1 9.43453 18.8691 3.14484 -8.94964
435 1 11.007 20.4415 4.71726 -8.94964
436 1 12.5794 18.8691 3.14484 -8.94964
437 1 14.1518 20.4415 4.71726 -8.94964
438 1 15.7242 18.8691 3.14484 -8.94967
439 1 17.2966 20.4415 4.71726 -8.94963
440 1 18.8691 18.8691 3.14484 -8.94961
441 1 20.4415 20.4415 4.71726 -8.94964
442 1 1.57238 11.007 7.8621 -8.94972
443 1 4.71658 11.007 7.86185 -8.949
444 1 7.8579 11.007 7.85917 -8.93207
445 1 11.007 11.007 7.59282 -7.41684
446 1 14.156 11.007 7.85917 -8.93207
447 1 17.2973 11.007 7.86185 -8.949
448 1 20.4415 11.007 7.8621 -8.94972
449 1 3.74147e-16 12.5794 6.28968 -8.94965
450 1 1.57239 14.1518 7.8621 -8.94979
451 1 3.14477 12.5794 6.28966 -8.94977
452 1 4.7165 14.152 7.8619 -8.95149
453 1 6.28854 12.5795 6.28922 -8.95136
454 1 7.85078 14.1624 7.85154 -8.88541
455 1 9.42102 12.593 6.27929 -8.87148
456 1 11.007 14.1553 7.85453 -8.91247
457 1 12.5929 12.593 6.27929 -8.87148
458 1 14.1631 14.1624 7.85154 -8.88541
459 1 15.7254 12.5795 6.28922 -8.95136
460 1 17.2974 14.152 7.8619 -8.95149
461 1 18.8691 12.5794 6.28966 -8.94977
462 1 20.4415 14.1518 7.8621 -8.94979
463 1 3.022e-16 15.7242 6.28968 -8.94965
464 1 1.57242 17.2966 7.86211 -8.94963
465 1 3.14479 15.7242 6.28966 -8.94969
466 1 4.71727 17.2966 7.86211 -8.94986
467 1 6.28886 15.725 6.28884 -8.94453
468 1 7.86181 17.2974 7.86184 -8.95127
469 1 9.43443 15.7252 6.28936 -8.95266
470 1 11.007 17.2974 7.86163 -8.94808
471 1 12.5795 15.7252 6.28936 -8.95266
472 1 14.1521 17.2974 7.86184 -8.95127
473 1 15.725 15.725 6.28884 -8.94453
474 1 17.2966 17.2966 7.86211 -8.94986
475 1 18.8691 15.7242 6.28966 -8.94969
476 1 20.4415 17.2966 7.86211 -8.94963
477 1 5.46699e-16 18.8691 6.28969 -8.94963
478 1 1.57242 20.4415 7.86211 -8.94963
479 1 3.14484 18.8691 6.28969 -8.94967
480 1 4.71726 20.4415 7.86211 -8.94963
481 1 6.28965 18.8691 6.28966 -8.94966
482 1 7.8621 20.4415 7.8621 -8.94979
483 1 9.43452 18.8691 6.28966 -8.94969
484 1 11.007 20.4415 7.86208 -8.94968
485 1 12.5794 18.8691 6.28966 -8.94969
486 1 14.1518 20.4415 7.8621 -8.94979
487 1 15.7242 18.8691 6.28966 -8.94966
488 1 17.2966 20.4415 7.86211 -8.94963
489 1 18.8691 18.8691 6.28969 -8.94967
490 1 20.4415 20.4415 7.86211 -8.94963
491 1 2.07077e-16 12.5794 9.43453 -8.94979
492 1 3.1445 12.5794 9.43453 -8.95096
493 1 6.28396 12.5804 9.43453 -8.96501
494 1 9.36092 12.7395 9.43453 -8.01173
495 1 12.653 12.7395 9.43453 -8.01173
496 1 15.7299 12.5804 9.43453 -8.96501
497 1 18.8694 12.5794 9.43453 -8.95096
498 1 2.03388e-16 15.7242 9.43453 -8.94964
534 1 4.71726 20.4415 11.007 -8.94963
538 1 17.2966 20.4415 11.007 -8.94963
389 1 15.7242 18.8691 2.91873e-07 -8.94964
383 1 6.28969 18.8691 2.91873e-07 -8.94964
355 1 6.28969 12.5794 -9.22807e-07 -8.94963
361 1 15.7242 12.5794 -9.22807e-07 -8.94963
512 1 1.57238 11.007 11.007 -8.94972
513 1 4.71658 11.007 11.0072 -8.949
514 1 7.8579 11.007 11.0099 -8.93207
515 1 11.007 11.007 11.2762 -7.41684
516 1 14.156 11.007 11.0099 -8.93207
517 1 17.2973 11.007 11.0072 -8.949
518 1 20.4415 11.007 11.007 -8.94972
519 1 1.57239 14.1518 11.007 -8.94979
520 1 4.7165 14.152 11.0072 -8.95149
521 1 7.85078 14.1624 11.0175 -8.88541
522 1 11.007 14.1553 11.0145 -8.91247
523 1 14.1631 14.1624 11.0175 -8.88541
524 1 17.2974 14.152 11.0072 -8.95149
525 1 20.4415 14.1518 11.007 -8.94979
686 1 20.4415 20.4415 20.4415 -8.94963
685 1 18.8691 18.8691 18.8691 -8.94963
528 1 7.86181 17.2974 11.0072 -8.95127
529 1 11.007 17.2974 11.0074 -8.94808
530 1 14.1521 17.2974 11.0072 -8.95127
684 1 17.2966 20.4415 20.4415 -8.94963
683 1 15.7242 18.8691 18.8691 -8.94964
533 1 1.57242 20.4415 11.007 -8.94963
391 1 18.8691 18.8691 22.0139 -8.94963
535 1 7.8621 20.4415 11.007 -8.94979
536 1 11.007 20.4415 11.007 -8.94968
537 1 14.1518 20.4415 11.007 -8.94979
381 1 3.14484 18.8691 22.0139 -8.94963
539 1 20.4415 20.4415 11.007 -8.94963
540 1 1.57242 11.007 14.1518 -8.94963
541 1 4.71722 11.007 14.1518 -8.94942
542 1 7.86177 11.007 14.1524 -8.95171
543 1 11.007 11.007 14.1559 -9.00127
544 1 14.1521 11.007 14.1524 -8.95171
545 1 17.2967 11.007 14.1518 -8.94942
546 1 20.4415 11.007 14.1518 -8.94963
547 1 1.85581e-17 12.5794 12.5794 -8.94965
548 1 1.57242 14.1518 14.1518 -8.94964
549 1 3.14477 12.5794 12.5794 -8.94977
550 1 4.71721 14.1518 14.1518 -8.9499
551 1 6.28854 12.5795 12.5798 -8.95136
552 1 7.86107 14.1528 14.1533 -8.9463
553 1 9.42102 12.593 12.5898 -8.87148
554 1 11.007 14.1521 14.1525 -8.95281
555 1 12.5929 12.593 12.5898 -8.87148
556 1 14.1528 14.1528 14.1533 -8.9463
557 1 15.7254 12.5795 12.5798 -8.95136
558 1 17.2967 14.1518 14.1518 -8.9499
559 1 18.8691 12.5794 12.5794 -8.94977
560 1 20.4415 14.1518 14.1518 -8.94964
561 1 4.58687e-16 15.7242 12.5794 -8.94965
562 1 1.57242 17.2966 14.1518 -8.94963
563 1 3.14479 15.7242 12.5794 -8.94969
564 1 4.71722 17.2967 14.1518 -8.94928
565 1 6.28886 15.725 12.5802 -8.94453
566 1 7.8621 17.2967 14.1518 -8.94996
567 1 9.43443 15.7252 12.5797 -8.95266
568 1 11.007 17.2967 14.1518 -8.94961
569 1 12.5795 15.7252 12.5797 -8.95266
570 1 14.1518 17.2967 14.1518 -8.94996
571 1 15.725 15.725 12.5802 -8.94453
572 1 17.2967 17.2967 14.1518 -8.94928
573 1 18.8691 15.7242 12.5794 -8.94969
574 1 20.4415 17.2966 14.1518 -8.94963
575 1 5.89519e-16 18.8691 12.5794 -8.94963
576 1 1.57242 20.4415 14.1518 -8.94964
577 1 3.14484 18.8691 12.5794 -8.94967
578 1 4.71726 20.4415 14.1518 -8.94963
579 1 6.28965 18.8691 12.5794 -8.94966
580 1 7.86211 20.4415 14.1518 -8.94964
581 1 9.43452 18.8691 12.5794 -8.94969
582 1 11.007 20.4415 14.1518 -8.94964
583 1 12.5794 18.8691 12.5794 -8.94969
584 1 14.1518 20.4415 14.1518 -8.94964
585 1 15.7242 18.8691 12.5794 -8.94966
586 1 17.2966 20.4415 14.1518 -8.94963
587 1 18.8691 18.8691 12.5794 -8.94967
588 1 20.4415 20.4415 14.1518 -8.94964
589 1 1.57242 11.007 17.2966 -8.94963
590 1 4.71726 11.007 17.2966 -8.94965
591 1 7.86208 11.007 17.2967 -8.94958
592 1 11.007 11.007 17.2971 -8.95051
593 1 14.1518 11.007 17.2967 -8.94958
594 1 17.2966 11.007 17.2966 -8.94965
595 1 20.4415 11.007 17.2966 -8.94963
596 1 2.25518e-17 12.5794 15.7242 -8.94963
597 1 1.57242 14.1518 17.2966 -8.94963
598 1 3.14484 12.5794 15.7242 -8.94965
599 1 4.71727 14.1518 17.2966 -8.94967
600 1 6.28967 12.5794 15.7242 -8.94982
601 1 7.86207 14.1518 17.2967 -8.94985
602 1 9.43427 12.5796 15.725 -8.95143
603 1 11.007 14.1518 17.2967 -8.94963
604 1 12.5796 12.5796 15.725 -8.95143
605 1 14.1518 14.1518 17.2967 -8.94985
606 1 15.7242 12.5794 15.7242 -8.94982
607 1 17.2966 14.1518 17.2966 -8.94967
608 1 18.8691 12.5794 15.7242 -8.94965
609 1 20.4415 14.1518 17.2966 -8.94963
610 1 -5.5836e-16 15.7242 15.7242 -8.94963
611 1 1.57242 17.2966 17.2966 -8.94963
612 1 3.14484 15.7242 15.7242 -8.94966
613 1 4.71726 17.2966 17.2966 -8.94961
614 1 6.28961 15.7243 15.7243 -8.94931
615 1 7.86211 17.2966 17.2966 -8.94966
616 1 9.43454 15.7242 15.7242 -8.94974
617 1 11.007 17.2966 17.2966 -8.94965
618 1 12.5794 15.7242 15.7242 -8.94974
619 1 14.1518 17.2966 17.2966 -8.94966
620 1 15.7243 15.7243 15.7243 -8.94931
621 1 17.2966 17.2966 17.2966 -8.94961
622 1 18.8691 15.7242 15.7242 -8.94966
623 1 20.4415 17.2966 17.2966 -8.94963
624 1 -6.51738e-17 18.8691 15.7242 -8.94963
625 1 1.57242 20.4415 17.2966 -8.94963
626 1 3.14484 18.8691 15.7242 -8.94961
627 1 4.71726 20.4415 17.2966 -8.94963
628 1 6.28969 18.8691 15.7242 -8.94967
629 1 7.86211 20.4415 17.2966 -8.94963
630 1 9.43453 18.8691 15.7242 -8.94964
631 1 11.007 20.4415 17.2966 -8.94963
632 1 12.5794 18.8691 15.7242 -8.94964
633 1 14.1518 20.4415 17.2966 -8.94963
634 1 15.7242 18.8691 15.7242 -8.94967
635 1 17.2966 20.4415 17.2966 -8.94963
636 1 18.8691 18.8691 15.7242 -8.94961
637 1 20.4415 20.4415 17.2966 -8.94963
638 1 1.57242 11.007 20.4415 -8.94963
639 1 4.71726 11.007 20.4415 -8.94963
640 1 7.86211 11.007 20.4415 -8.94965
641 1 11.007 11.007 20.4415 -8.94983
642 1 14.1518 11.007 20.4415 -8.94965
643 1 17.2966 11.007 20.4415 -8.94963
644 1 20.4415 11.007 20.4415 -8.94963
645 1 -3.40964e-16 12.5794 18.8691 -8.94963
646 1 1.57242 14.1518 20.4415 -8.94963
647 1 3.14484 12.5794 18.8691 -8.94963
648 1 4.71726 14.1518 20.4415 -8.94963
649 1 6.28969 12.5794 18.8691 -8.94963
650 1 7.8621 14.1518 20.4415 -8.94966
651 1 9.43452 12.5794 18.8691 -8.94979
652 1 11.007 14.1518 20.4415 -8.94965
653 1 12.5794 12.5794 18.8691 -8.94979
654 1 14.1518 14.1518 20.4415 -8.94966
655 1 15.7242 12.5794 18.8691 -8.94963
656 1 17.2966 14.1518 20.4415 -8.94963
657 1 18.8691 12.5794 18.8691 -8.94963
658 1 20.4415 14.1518 20.4415 -8.94963
659 1 -1.06458e-15 15.7242 18.8691 -8.94963
660 1 1.57242 17.2966 20.4415 -8.94963
661 1 3.14484 15.7242 18.8691 -8.94964
662 1 4.71726 17.2966 20.4415 -8.94963
663 1 6.28968 15.7242 18.8691 -8.94964
664 1 7.86211 17.2966 20.4415 -8.94963
665 1 9.43453 15.7242 18.8691 -8.94963
666 1 11.007 17.2966 20.4415 -8.94963
667 1 12.5794 15.7242 18.8691 -8.94963
668 1 14.1518 17.2966 20.4415 -8.94963
669 1 15.7242 15.7242 18.8691 -8.94964
670 1 17.2966 17.2966 20.4415 -8.94963
671 1 18.8691 15.7242 18.8691 -8.94964
672 1 20.4415 17.2966 20.4415 -8.94963
673 1 1.95434e-16 18.8691 18.8691 -8.94963
674 1 1.57242 20.4415 20.4415 -8.94963
675 1 3.14484 18.8691 18.8691 -8.94963
676 1 4.71726 20.4415 20.4415 -8.94963
677 1 6.28969 18.8691 18.8691 -8.94964
678 1 7.86211 20.4415 20.4415 -8.94963
679 1 9.43453 18.8691 18.8691 -8.94963
680 1 11.007 20.4415 20.4415 -8.94963
681 1 12.5794 18.8691 18.8691 -8.94963
682 1 14.1518 20.4415 20.4415 -8.94963
379 1 2.93563e-16 18.8691 22.0139 -8.94963
357 1 9.43452 12.5794 22.0139 -8.94979
359 1 12.5794 12.5794 22.0139 -8.94979
377 1 18.8691 15.7242 22.0139 -8.94964
365 1 -8.37352e-16 15.7242 22.0139 -8.94963
367 1 3.14484 15.7242 22.0139 -8.94964
369 1 6.28968 15.7242 22.0139 -8.94964
375 1 15.7242 15.7242 22.0139 -8.94964
351 1 -3.08943e-16 12.5794 22.0139 -8.94963
353 1 3.14484 12.5794 22.0139 -8.94963
363 1 18.8691 12.5794 22.0139 -8.94963
385 1 9.43453 18.8691 22.0139 -8.94963
387 1 12.5794 18.8691 22.0139 -8.94963
