ITEM: TIMESTEP
83
ITEM: NUMBER OF ATOMS
688
ITEM: BOX BOUNDS pp pp pp
0.0000000000000000e+00 2.2013900999999997e+01
0.0000000000000000e+00 2.2013900999999997e+01
0.0000000000000000e+00 2.2013900999999997e+01
ITEM: ATOMS id type x y z c_pot
189 1 20.4429 4.71577 11.0074 -8.94925
2 1 1.57196 1.57197 1.57175 -8.94914
175 1 18.8715 9.43479 9.43453 -8.95
4 1 4.71654 1.57169 1.5715 -8.94953
174 1 15.7303 9.4273 9.43453 -8.97045
6 1 7.86178 1.57172 1.57152 -8.94941
7 1 9.43443 1.62223e-15 -0.000433761 -8.9495
8 1 11.007 1.57173 1.57146 -8.94944
9 1 12.5795 1.6156e-15 -0.000433761 -8.9495
10 1 14.1521 1.57172 1.57152 -8.94941
173 1 12.6485 9.20692 9.43453 -8.07277
12 1 17.2974 1.57169 1.5715 -8.94953
172 1 9.36542 9.20692 9.43453 -8.07277
14 1 20.4419 1.57197 1.57175 -8.94914
171 1 6.28364 9.4273 9.43453 -8.97045
16 1 1.57175 4.71673 1.5716 -8.94983
170 1 3.14242 9.43479 9.43453 -8.95
18 1 4.71507 4.7152 1.56987 -8.94852
169 1 8.13315e-16 9.43481 9.43453 -8.94941
20 1 7.86111 4.71527 1.57011 -8.9493
188 1 17.301 4.71295 11.0083 -8.94731
22 1 11.007 4.71537 1.57022 -8.94909
184 1 4.71291 4.71295 11.0083 -8.94731
24 1 14.1528 4.71527 1.57011 -8.9493
168 1 18.8738 6.28674 9.43453 -8.94889
26 1 17.2988 4.7152 1.56987 -8.94852
167 1 15.7355 6.27878 9.43453 -8.94004
28 1 20.4422 4.71673 1.5716 -8.94983
166 1 12.583 6.29425 9.43453 -9.00026
30 1 1.57182 7.86189 1.57163 -8.94933
165 1 9.43094 6.29425 9.43453 -9.00026
32 1 4.71564 7.86169 1.57078 -8.94937
164 1 6.27839 6.27878 9.43453 -8.94004
34 1 7.85995 7.86025 1.56753 -8.95284
35 1 9.43414 6.28843 -0.00160157 -8.94976
36 1 11.007 7.86047 1.568 -8.95117
37 1 12.5798 6.28843 -0.00160157 -8.94976
38 1 14.1539 7.86025 1.56753 -8.95284
163 1 3.14008 6.28674 9.43453 -8.94889
40 1 17.2983 7.86169 1.57078 -8.94937
162 1 9.09707e-16 6.28857 9.43453 -8.95027
42 1 20.4421 7.86189 1.57163 -8.94933
183 1 1.57096 4.71577 11.0074 -8.94925
157 1 6.28687 3.14052 9.43453 -8.94945
161 1 18.8708 3.14309 9.43453 -8.94941
160 1 15.727 3.14052 9.43453 -8.94945
159 1 12.5796 3.14383 9.43453 -8.94564
158 1 9.43428 3.14383 9.43453 -8.94564
156 1 3.1431 3.14309 9.43453 -8.94941
50 1 1.84085e-15 1.14219e-15 3.14439 -8.94951
51 1 1.5719 1.57189 4.7167 -8.94942
52 1 3.1441 1.3416e-15 3.14406 -8.94958
53 1 4.71606 1.57109 4.7162 -8.95004
54 1 6.28909 1.34115e-15 3.1439 -8.94988
55 1 7.86156 1.57073 4.71618 -8.95042
56 1 9.43434 1.38634e-15 3.14378 -8.94943
57 1 11.007 1.57084 4.71593 -8.9495
58 1 12.5796 1.56648e-15 3.14378 -8.94943
59 1 14.1523 1.57073 4.71618 -8.95042
60 1 15.7248 1.66733e-15 3.1439 -8.94988
61 1 17.2978 1.57109 4.7162 -8.95004
62 1 18.8698 1.51319e-15 3.14406 -8.94958
63 1 20.442 1.57189 4.7167 -8.94942
64 1 1.35204e-15 3.14408 3.14397 -8.94946
65 1 1.57098 4.71599 4.71599 -8.94986
66 1 3.1432 3.14327 3.14321 -8.9484
67 1 4.71224 4.71252 4.71288 -8.9451
68 1 6.28808 3.1423 3.14274 -8.94945
69 1 7.85858 4.71051 4.71265 -8.94898
70 1 9.43411 3.14263 3.14298 -8.94907
71 1 11.007 4.71204 4.7131 -8.94613
72 1 12.5798 3.14263 3.14298 -8.94907
73 1 14.1553 4.71051 4.71265 -8.94898
74 1 15.7258 3.1423 3.14274 -8.94945
75 1 17.3017 4.71252 4.71288 -8.9451
76 1 18.8707 3.14327 3.14321 -8.9484
77 1 20.4429 4.71599 4.71599 -8.94986
78 1 1.60992e-15 6.28935 3.14405 -8.94996
79 1 1.57113 7.86196 4.71641 -8.95014
80 1 3.1427 6.28871 3.14317 -8.95047
81 1 4.71222 7.8608 4.71453 -8.9526
82 1 6.28384 6.28418 3.13766 -8.94649
83 1 7.84727 7.84777 4.69932 -8.94044
84 1 9.43299 6.28533 3.13922 -8.94823
85 1 11.007 7.85486 4.70294 -8.95363
86 1 12.5809 6.28533 3.13922 -8.94823
87 1 14.1666 7.84777 4.69932 -8.94044
88 1 15.7301 6.28418 3.13766 -8.94649
89 1 17.3017 7.8608 4.71453 -8.9526
90 1 18.8712 6.28871 3.14317 -8.95047
91 1 20.4428 7.86196 4.71641 -8.95014
92 1 4.92345e-16 9.43439 3.14386 -8.94949
93 1 3.14294 9.4343 3.1433 -8.94886
94 1 6.28631 9.43423 3.14169 -8.94786
95 1 9.4313 9.43231 3.13653 -8.9548
96 1 12.5826 9.43231 3.13653 -8.9548
97 1 15.7276 9.43423 3.14169 -8.94786
98 1 18.871 9.4343 3.1433 -8.94886
99 1 1.91029e-15 1.03242e-15 6.28939 -8.94948
100 1 1.57184 1.57182 7.86189 -8.94945
101 1 3.14397 1.55719e-15 6.28921 -8.94934
102 1 4.71583 1.57101 7.86168 -8.94934
103 1 6.28896 1.80603e-15 6.28917 -8.95056
104 1 7.86163 1.57056 7.86205 -8.95125
105 1 9.43457 1.77865e-15 6.28922 -8.9507
106 1 11.007 1.57153 7.86225 -8.94919
107 1 12.5793 1.91011e-15 6.28922 -8.9507
108 1 14.1523 1.57056 7.86205 -8.95125
109 1 15.7249 1.5482e-15 6.28917 -8.95056
110 1 17.2981 1.57101 7.86168 -8.94934
111 1 18.8699 1.57094e-15 6.28921 -8.94934
112 1 20.4421 1.57182 7.86189 -8.94945
113 1 1.72846e-15 3.14393 6.28917 -8.94931
114 1 1.57096 4.71577 7.86161 -8.94925
115 1 3.1432 3.14318 6.2888 -8.9491
116 1 4.71291 4.71295 7.86076 -8.94731
117 1 6.28751 3.14067 6.28813 -8.95148
118 1 7.8587 4.70862 7.86123 -8.95856
119 1 9.43436 3.14065 6.28838 -8.95256
120 1 11.007 4.71474 7.86196 -8.95334
121 1 12.5795 3.14065 6.28838 -8.95256
122 1 14.1552 4.70862 7.86123 -8.95856
123 1 15.7264 3.14067 6.28813 -8.95148
124 1 17.301 4.71295 7.86076 -8.94731
125 1 18.8707 3.14318 6.2888 -8.9491
126 1 20.4429 4.71577 7.86161 -8.94925
127 1 1.13641e-15 6.28889 6.28893 -8.9508
128 1 1.57015 7.86161 7.86184 -8.95209
129 1 3.14011 6.28726 6.28762 -8.95103
130 1 4.70623 7.85787 7.86016 -8.95818
131 1 6.27522 6.27622 6.27788 -8.93193
132 1 7.81997 7.82495 7.83107 -8.86184
133 1 9.42858 6.27392 6.27979 -8.95155
134 1 11.007 7.84889 7.82084 -8.8617
135 1 12.5853 6.27392 6.27979 -8.95155
136 1 14.1939 7.82495 7.83107 -8.86184
137 1 15.7387 6.27622 6.27788 -8.93193
138 1 17.3077 7.85787 7.86016 -8.95818
139 1 18.8738 6.28726 6.28762 -8.95103
140 1 20.4437 7.86161 7.86184 -8.95209
141 1 5.34535e-16 9.43468 6.28913 -8.94984
142 1 3.14197 9.43509 6.28898 -8.95107
143 1 6.28029 9.43571 6.28749 -8.95931
144 1 9.39301 9.39144 6.25932 -8.84122
145 1 12.6209 9.39144 6.25932 -8.84122
146 1 15.7336 9.43571 6.28749 -8.95931
147 1 18.8719 9.43509 6.28898 -8.95107
148 1 1.78405e-15 1.61847e-15 9.43453 -8.9495
149 1 3.1439 1.49658e-15 9.43453 -8.94945
150 1 6.28862 1.5519e-15 9.43453 -8.95032
151 1 9.43451 2.07648e-15 9.43453 -8.94833
152 1 12.5794 1.36784e-15 9.43453 -8.94833
153 1 15.7253 2.14564e-15 9.43453 -8.95032
154 1 18.87 8.65592e-16 9.43453 -8.94945
155 1 1.01299e-15 3.14387 9.43453 -8.94943
177 1 4.71583 1.57101 11.0074 -8.94934
48 1 15.7255 9.43434 -0.00115426 -8.94918
181 1 17.2981 1.57101 11.0074 -8.94934
19 1 6.28913 3.14395 -0.00072867 -8.94952
45 1 6.28842 9.43434 -0.00115426 -8.94918
25 1 15.7248 3.14395 -0.00072867 -8.94952
176 1 1.57184 1.57182 11.0072 -8.94945
47 1 12.5799 9.43432 22.012 -8.95075
178 1 7.86163 1.57056 11.007 -8.95125
179 1 11.007 1.57153 11.0068 -8.94919
180 1 14.1523 1.57056 11.007 -8.95125
46 1 9.43398 9.43432 22.012 -8.95075
182 1 20.4421 1.57182 11.0072 -8.94945
343 1 18.8699 9.43441 18.8696 -8.94946
342 1 15.7255 9.43434 18.8702 -8.94918
185 1 7.8587 4.70862 11.0078 -8.95856
186 1 11.007 4.71474 11.0071 -8.95334
187 1 14.1552 4.70862 11.0078 -8.95856
341 1 12.5799 9.43432 18.871 -8.95075
340 1 9.43398 9.43432 18.871 -8.95075
190 1 1.57015 7.86161 11.0072 -8.95209
191 1 4.70623 7.85787 11.0089 -8.95818
192 1 7.81997 7.82495 11.038 -8.86184
193 1 11.007 7.84889 11.0482 -8.8617
194 1 14.1939 7.82495 11.038 -8.86184
195 1 17.3077 7.85787 11.0089 -8.95818
196 1 20.4437 7.86161 11.0072 -8.95209
197 1 2.0177e-15 1.60691e-15 12.5797 -8.94948
198 1 1.5719 1.57189 14.1524 -8.94942
199 1 3.14397 6.57158e-16 12.5799 -8.94934
200 1 4.71606 1.57109 14.1529 -8.95004
201 1 6.28896 7.38128e-16 12.5799 -8.95056
202 1 7.86156 1.57073 14.1529 -8.95042
203 1 9.43457 1.21264e-15 12.5798 -8.9507
204 1 11.007 1.57084 14.1531 -8.9495
205 1 12.5793 1.97524e-15 12.5798 -8.9507
206 1 14.1523 1.57073 14.1529 -8.95042
207 1 15.7249 2.01967e-15 12.5799 -8.95056
208 1 17.2978 1.57109 14.1529 -8.95004
209 1 18.8699 1.38977e-15 12.5799 -8.94934
210 1 20.442 1.57189 14.1524 -8.94942
211 1 1.42766e-15 3.14393 12.5799 -8.94931
212 1 1.57098 4.71599 14.1531 -8.94986
213 1 3.1432 3.14318 12.5803 -8.9491
214 1 4.71224 4.71252 14.1562 -8.9451
215 1 6.28751 3.14067 12.5809 -8.95148
216 1 7.85858 4.71051 14.1564 -8.94898
217 1 9.43436 3.14065 12.5807 -8.95256
218 1 11.007 4.71204 14.156 -8.94613
219 1 12.5795 3.14065 12.5807 -8.95256
220 1 14.1553 4.71051 14.1564 -8.94898
221 1 15.7264 3.14067 12.5809 -8.95148
222 1 17.3017 4.71252 14.1562 -8.9451
223 1 18.8707 3.14318 12.5803 -8.9491
224 1 20.4429 4.71599 14.1531 -8.94986
225 1 1.14015e-15 6.28889 12.5801 -8.9508
226 1 1.57113 7.86196 14.1527 -8.95014
227 1 3.14011 6.28726 12.5814 -8.95103
228 1 4.71222 7.8608 14.1545 -8.9526
229 1 6.27522 6.27622 12.5912 -8.93193
230 1 7.84727 7.84777 14.1697 -8.94044
231 1 9.42858 6.27392 12.5893 -8.95155
232 1 11.007 7.85486 14.1661 -8.95363
233 1 12.5853 6.27392 12.5893 -8.95155
234 1 14.1666 7.84777 14.1697 -8.94044
235 1 15.7387 6.27622 12.5912 -8.93193
236 1 17.3017 7.8608 14.1545 -8.9526
237 1 18.8738 6.28726 12.5814 -8.95103
238 1 20.4428 7.86196 14.1527 -8.95014
239 1 7.36404e-16 9.43468 12.5799 -8.94984
240 1 3.14197 9.43509 12.5801 -8.95107
241 1 6.28029 9.43571 12.5816 -8.95931
242 1 9.39301 9.39144 12.6097 -8.84122
243 1 12.6209 9.39144 12.6097 -8.84122
244 1 15.7336 9.43571 12.5816 -8.95931
245 1 18.8719 9.43509 12.5801 -8.95107
246 1 1.17042e-15 9.07911e-16 15.7247 -8.94951
247 1 1.57196 1.57197 17.2973 -8.94914
248 1 3.1441 2.06369e-17 15.725 -8.94958
249 1 4.71654 1.57169 17.2976 -8.94953
250 1 6.28909 1.32015e-15 15.7252 -8.94988
251 1 7.86178 1.57172 17.2975 -8.94941
252 1 9.43434 1.46444e-15 15.7253 -8.94943
253 1 11.007 1.57173 17.2976 -8.94944
254 1 12.5796 1.36731e-15 15.7253 -8.94943
255 1 14.1521 1.57172 17.2975 -8.94941
256 1 15.7248 1.67549e-15 15.7252 -8.94988
257 1 17.2974 1.57169 17.2976 -8.94953
258 1 18.8698 1.72321e-15 15.725 -8.94958
259 1 20.4419 1.57197 17.2973 -8.94914
260 1 1.69748e-15 3.14408 15.7251 -8.94946
261 1 1.57175 4.71673 17.2975 -8.94983
262 1 3.1432 3.14327 15.7258 -8.9484
263 1 4.71507 4.7152 17.2992 -8.94852
264 1 6.28808 3.1423 15.7263 -8.94945
265 1 7.86111 4.71527 17.299 -8.9493
266 1 9.43411 3.14263 15.7261 -8.94907
267 1 11.007 4.71537 17.2988 -8.94909
268 1 12.5798 3.14263 15.7261 -8.94907
269 1 14.1528 4.71527 17.299 -8.9493
270 1 15.7258 3.1423 15.7263 -8.94945
271 1 17.2988 4.7152 17.2992 -8.94852
272 1 18.8707 3.14327 15.7258 -8.9484
273 1 20.4422 4.71673 17.2975 -8.94983
274 1 1.78701e-15 6.28935 15.725 -8.94996
275 1 1.57182 7.86189 17.2974 -8.94933
276 1 3.1427 6.28871 15.7259 -8.95047
277 1 4.71564 7.86169 17.2983 -8.94937
278 1 6.28384 6.28418 15.7314 -8.94649
279 1 7.85995 7.86025 17.3015 -8.95284
280 1 9.43299 6.28533 15.7298 -8.94823
281 1 11.007 7.86047 17.3011 -8.95117
282 1 12.5809 6.28533 15.7298 -8.94823
283 1 14.1539 7.86025 17.3015 -8.95284
284 1 15.7301 6.28418 15.7314 -8.94649
285 1 17.2983 7.86169 17.2983 -8.94937
286 1 18.8712 6.28871 15.7259 -8.95047
287 1 20.4421 7.86189 17.2974 -8.94933
288 1 5.10759e-16 9.43439 15.7252 -8.94949
289 1 3.14294 9.4343 15.7258 -8.94886
290 1 6.28631 9.43423 15.7274 -8.94786
291 1 9.4313 9.43231 15.7325 -8.9548
292 1 12.5826 9.43231 15.7325 -8.9548
293 1 15.7276 9.43423 15.7274 -8.94786
294 1 18.871 9.4343 15.7258 -8.94886
295 1 1.21907e-15 1.04148e-15 18.8694 -8.94902
296 1 1.57209 1.57213 20.4415 -8.94921
297 1 3.14445 2.0126e-16 18.8695 -8.94945
298 1 4.7169 1.57205 20.4415 -8.94956
299 1 6.28942 1.70657e-15 18.8695 -8.94951
300 1 7.86192 1.57202 20.4415 -8.94947
301 1 9.43443 1.51007e-15 18.8695 -8.9495
302 1 11.007 1.572 20.4415 -8.9495
303 1 12.5795 1.2708e-15 18.8695 -8.9495
304 1 14.152 1.57202 20.4415 -8.94947
305 1 15.7245 1.77172e-15 18.8695 -8.94951
306 1 17.297 1.57205 20.4415 -8.94956
307 1 18.8695 1.52165e-15 18.8695 -8.94945
308 1 20.4418 1.57213 20.4415 -8.94921
309 1 1.42607e-15 3.14454 18.8694 -8.94961
310 1 1.57209 4.71703 20.4415 -8.94964
311 1 3.144 3.14407 18.8697 -8.94918
312 1 4.71629 4.71637 20.4415 -8.94988
313 1 6.28913 3.14395 18.8698 -8.94952
314 1 7.86166 4.71628 20.4415 -8.94958
315 1 9.43436 3.14392 18.8698 -8.9494
316 1 11.007 4.71621 20.4415 -8.94953
317 1 12.5795 3.14392 18.8698 -8.9494
318 1 14.1522 4.71628 20.4415 -8.94958
319 1 15.7248 3.14395 18.8698 -8.94952
320 1 17.2976 4.71637 20.4415 -8.94988
321 1 18.8699 3.14407 18.8697 -8.94918
322 1 20.4418 4.71703 20.4415 -8.94964
323 1 6.82434e-16 6.2895 18.8694 -8.94946
324 1 1.57206 7.86196 20.4415 -8.94949
325 1 3.14408 6.28936 18.8696 -8.94961
326 1 4.71636 7.86186 20.4415 -8.94939
327 1 6.28835 6.28849 18.8708 -8.95065
328 1 7.86136 7.86154 20.4415 -8.95095
329 1 9.43414 6.28843 18.8707 -8.94976
330 1 11.007 7.86144 20.4415 -8.95046
331 1 12.5798 6.28843 18.8707 -8.94976
332 1 14.1525 7.86154 20.4415 -8.95095
333 1 15.7256 6.28849 18.8708 -8.95065
334 1 17.2975 7.86186 20.4415 -8.94939
335 1 18.8698 6.28936 18.8696 -8.94961
336 1 20.4418 7.86196 20.4415 -8.94949
337 1 -3.80008e-17 9.43445 18.8695 -8.94953
338 1 3.144 9.43441 18.8696 -8.94946
339 1 6.28842 9.43434 18.8702 -8.94918
3 1 3.14445 9.90582e-16 22.0135 -8.94945
5 1 6.28942 1.71629e-15 22.0135 -8.94951
11 1 15.7245 1.91721e-15 22.0135 -8.94951
13 1 18.8695 1.58445e-15 22.0135 -8.94945
15 1 9.55588e-16 3.14454 22.0135 -8.94961
17 1 3.144 3.14407 22.0132 -8.94918
41 1 18.8698 6.28936 22.0133 -8.94961
39 1 15.7256 6.28849 22.0121 -8.95065
27 1 18.8699 3.14407 22.0132 -8.94918
29 1 3.75354e-16 6.2895 22.0136 -8.94946
31 1 3.14408 6.28936 22.0133 -8.94961
33 1 6.28835 6.28849 22.0121 -8.95065
1 1 9.69803e-16 1.18716e-15 22.0136 -8.94902
21 1 9.43436 3.14392 22.0132 -8.9494
23 1 12.5795 3.14392 22.0132 -8.9494
43 1 1.05576e-16 9.43445 22.0135 -8.94953
44 1 3.144 9.43441 22.0133 -8.94946
49 1 18.8699 9.43441 22.0133 -8.94946
344 1 1.5718 11.007 1.57156 -8.9495
345 1 4.71554 11.007 1.57076 -8.94948
346 1 7.86005 11.007 1.56954 -8.94801
347 1 11.007 11.007 1.56899 -8.94992
348 1 14.1539 11.007 1.56954 -8.94801
349 1 17.2984 11.007 1.57076 -8.94948
350 1 20.4421 11.007 1.57156 -8.9495
532 1 20.4429 17.2981 11.0074 -8.94925
352 1 1.57182 14.152 1.57163 -8.94933
531 1 17.301 17.301 11.0083 -8.94731
354 1 4.71564 14.1522 1.57078 -8.94937
688 3 10.2388 11.007 9.43453 2.24977
356 1 7.85995 14.1537 1.56753 -8.95284
687 3 11.7751 11.007 9.43453 2.24977
358 1 11.007 14.1534 1.568 -8.95117
511 1 18.8708 18.8708 9.43453 -8.94941
360 1 14.1539 14.1537 1.56753 -8.95284
510 1 15.727 18.8734 9.43453 -8.94945
362 1 17.2983 14.1522 1.57078 -8.94937
527 1 4.71291 17.301 11.0083 -8.94731
364 1 20.4421 14.152 1.57163 -8.94933
509 1 12.5796 18.8701 9.43453 -8.94564
366 1 1.57175 17.2972 1.5716 -8.94983
508 1 9.43428 18.8701 9.43453 -8.94564
368 1 4.71507 17.2987 1.56987 -8.94852
507 1 6.28687 18.8734 9.43453 -8.94945
370 1 7.86111 17.2986 1.57011 -8.9493
371 1 9.43414 15.7255 -0.00160157 -8.94976
372 1 11.007 17.2985 1.57022 -8.94909
373 1 12.5798 15.7255 -0.00160157 -8.94976
374 1 14.1528 17.2986 1.57011 -8.9493
506 1 3.1431 18.8708 9.43453 -8.94941
376 1 17.2988 17.2987 1.56987 -8.94852
505 1 1.76446e-15 18.87 9.43453 -8.94943
378 1 20.4422 17.2972 1.5716 -8.94983
504 1 18.8738 15.7272 9.43453 -8.94889
380 1 1.57196 20.4419 1.57175 -8.94914
503 1 15.7355 15.7351 9.43453 -8.94004
382 1 4.71654 20.4422 1.5715 -8.94953
502 1 12.583 15.7197 9.43453 -9.00026
384 1 7.86178 20.4422 1.57152 -8.94941
526 1 1.57096 17.2981 11.0074 -8.94925
386 1 11.007 20.4422 1.57146 -8.94944
499 1 3.14008 15.7272 9.43453 -8.94889
388 1 14.1521 20.4422 1.57152 -8.94941
501 1 9.43094 15.7197 9.43453 -9.00026
390 1 17.2974 20.4422 1.5715 -8.94953
500 1 6.27839 15.7351 9.43453 -8.94004
392 1 20.4419 20.4419 1.57175 -8.94914
393 1 1.57111 11.007 4.71604 -8.94975
394 1 4.71285 11.007 4.71422 -8.94639
395 1 7.85676 11.007 4.71264 -8.93995
396 1 11.007 11.007 4.7078 -9.0243
397 1 14.1571 11.007 4.71264 -8.93995
398 1 17.301 11.007 4.71422 -8.94639
399 1 20.4428 11.007 4.71604 -8.94975
400 1 1.15966e-16 12.5795 3.14386 -8.94949
401 1 1.57113 14.1519 4.71641 -8.95014
402 1 3.14294 12.5796 3.1433 -8.94886
403 1 4.71222 14.1531 4.71453 -8.9526
404 1 6.28631 12.5797 3.14169 -8.94786
405 1 7.84727 14.1661 4.69932 -8.94044
406 1 9.4313 12.5816 3.13653 -8.9548
407 1 11.007 14.159 4.70294 -8.95363
408 1 12.5826 12.5816 3.13653 -8.9548
409 1 14.1666 14.1661 4.69932 -8.94044
410 1 15.7276 12.5797 3.14169 -8.94786
411 1 17.3017 14.1531 4.71453 -8.9526
412 1 18.871 12.5796 3.1433 -8.94886
413 1 20.4428 14.1519 4.71641 -8.95014
414 1 1.25954e-15 15.7245 3.14405 -8.94996
415 1 1.57098 17.2979 4.71599 -8.94986
416 1 3.1427 15.7252 3.14317 -8.95047
417 1 4.71224 17.3014 4.71288 -8.9451
418 1 6.28384 15.7297 3.13766 -8.94649
419 1 7.85858 17.3034 4.71265 -8.94898
420 1 9.43299 15.7286 3.13922 -8.94823
421 1 11.007 17.3019 4.7131 -8.94613
422 1 12.5809 15.7286 3.13922 -8.94823
423 1 14.1553 17.3034 4.71265 -8.94898
424 1 15.7301 15.7297 3.13766 -8.94649
425 1 17.3017 17.3014 4.71288 -8.9451
426 1 18.8712 15.7252 3.14317 -8.95047
427 1 20.4429 17.2979 4.71599 -8.94986
428 1 9.76743e-16 18.8698 3.14397 -8.94946
429 1 1.5719 20.442 4.7167 -8.94942
430 1 3.1432 18.8706 3.14321 -8.9484
431 1 4.71606 20.4428 4.7162 -8.95004
432 1 6.28808 18.8716 3.14274 -8.94945
433 1 7.86156 20.4432 4.71618 -8.95042
434 1 9.43411 18.8713 3.14298 -8.94907
435 1 11.007 20.4431 4.71593 -8.9495
436 1 12.5798 18.8713 3.14298 -8.94907
437 1 14.1523 20.4432 4.71618 -8.95042
438 1 15.7258 18.8716 3.14274 -8.94945
439 1 17.2978 20.4428 4.7162 -8.95004
440 1 18.8707 18.8706 3.14321 -8.9484
441 1 20.442 20.442 4.7167 -8.94942
442 1 1.57181 11.007 7.86183 -8.94731
443 1 4.71867 11.007 7.86305 -8.93965
444 1 7.88299 11.007 7.8691 -8.93086
445 1 11.007 11.007 7.52252 -7.53543
446 1 14.1309 11.007 7.8691 -8.93086
447 1 17.2952 11.007 7.86305 -8.93965
448 1 20.4421 11.007 7.86183 -8.94731
449 1 8.85173e-16 12.5792 6.28913 -8.94984
450 1 1.57015 14.1523 7.86184 -8.95209
451 1 3.14197 12.5788 6.28898 -8.95107
452 1 4.70623 14.156 7.86016 -8.95818
453 1 6.28029 12.5782 6.28749 -8.95931
454 1 7.81997 14.1889 7.83107 -8.86184
455 1 9.39301 12.6225 6.25932 -8.84122
456 1 11.007 14.165 7.82084 -8.8617
457 1 12.6209 12.6225 6.25932 -8.84122
458 1 14.1939 14.1889 7.83107 -8.86184
459 1 15.7336 12.5782 6.28749 -8.95931
460 1 17.3077 14.156 7.86016 -8.95818
461 1 18.8719 12.5788 6.28898 -8.95107
462 1 20.4437 14.1523 7.86184 -8.95209
463 1 9.01427e-16 15.725 6.28893 -8.9508
464 1 1.57096 17.2981 7.86161 -8.94925
465 1 3.14011 15.7266 6.28762 -8.95103
466 1 4.71291 17.301 7.86076 -8.94731
467 1 6.27522 15.7377 6.27788 -8.93193
468 1 7.8587 17.3053 7.86123 -8.95856
469 1 9.42858 15.74 6.27979 -8.95155
470 1 11.007 17.2992 7.86196 -8.95334
471 1 12.5853 15.74 6.27979 -8.95155
472 1 14.1552 17.3053 7.86123 -8.95856
473 1 15.7387 15.7377 6.27788 -8.93193
474 1 17.301 17.301 7.86076 -8.94731
475 1 18.8738 15.7266 6.28762 -8.95103
476 1 20.4429 17.2981 7.86161 -8.94925
477 1 1.38281e-15 18.87 6.28917 -8.94931
478 1 1.57184 20.4421 7.86189 -8.94945
479 1 3.1432 18.8707 6.2888 -8.9491
480 1 4.71583 20.4429 7.86168 -8.94934
481 1 6.28751 18.8732 6.28813 -8.95148
482 1 7.86163 20.4433 7.86205 -8.95125
483 1 9.43436 18.8732 6.28838 -8.95256
484 1 11.007 20.4424 7.86225 -8.94919
485 1 12.5795 18.8732 6.28838 -8.95256
486 1 14.1523 20.4433 7.86205 -8.95125
487 1 15.7264 18.8732 6.28813 -8.95148
488 1 17.2981 20.4429 7.86168 -8.94934
489 1 18.8707 18.8707 6.2888 -8.9491
490 1 20.4421 20.4421 7.86189 -8.94945
491 1 6.99391e-16 12.5791 9.43453 -8.94941
492 1 3.14242 12.5791 9.43453 -8.95
493 1 6.28364 12.5866 9.43453 -8.97045
494 1 9.36542 12.807 9.43453 -8.07277
495 1 12.6485 12.807 9.43453 -8.07277
496 1 15.7303 12.5866 9.43453 -8.97045
497 1 18.8715 12.5791 9.43453 -8.95
498 1 1.30266e-15 15.7253 9.43453 -8.95027
534 1 4.71583 20.4429 11.0074 -8.94934
538 1 17.2981 20.4429 11.0074 -8.94934
389 1 15.7248 18.8699 -0.00072867 -8.94952
383 1 6.28913 18.8699 -0.00072867 -8.94952
355 1 6.28842 12.5796 -0.00115426 -8.94918
361 1 15.7255 12.5796 -0.00115426 -8.94918
512 1 1.57181 11.007 11.0072 -8.94731
513 1 4.71867 11.007 11.006 -8.93965
514 1 7.88299 11.007 11 -8.93086
515 1 11.007 11.007 11.3465 -7.53543
516 1 14.1309 11.007 11 -8.93086
517 1 17.2952 11.007 11.006 -8.93965
518 1 20.4421 11.007 11.0072 -8.94731
519 1 1.57015 14.1523 11.0072 -8.95209
520 1 4.70623 14.156 11.0089 -8.95818
521 1 7.81997 14.1889 11.038 -8.86184
522 1 11.007 14.165 11.0482 -8.8617
523 1 14.1939 14.1889 11.038 -8.86184
524 1 17.3077 14.156 11.0089 -8.95818
525 1 20.4437 14.1523 11.0072 -8.95209
686 1 20.4418 20.4418 20.4415 -8.94921
685 1 18.8699 18.8698 18.8697 -8.94918
528 1 7.8587 17.3053 11.0078 -8.95856
529 1 11.007 17.2992 11.0071 -8.95334
530 1 14.1552 17.3053 11.0078 -8.95856
684 1 17.297 20.4419 20.4415 -8.94956
683 1 15.7248 18.8699 18.8698 -8.94952
533 1 1.57184 20.4421 11.0072 -8.94945
391 1 18.8699 18.8698 22.0132 -8.94918
535 1 7.86163 20.4433 11.007 -8.95125
536 1 11.007 20.4424 11.0068 -8.94919
537 1 14.1523 20.4433 11.007 -8.95125
381 1 3.144 18.8698 22.0132 -8.94918
539 1 20.4421 20.4421 11.0072 -8.94945
540 1 1.57111 11.007 14.153 -8.94975
541 1 4.71285 11.007 14.1548 -8.94639
542 1 7.85676 11.007 14.1564 -8.93995
543 1 11.007 11.007 14.1613 -9.0243
544 1 14.1571 11.007 14.1564 -8.93995
545 1 17.301 11.007 14.1548 -8.94639
546 1 20.4428 11.007 14.153 -8.94975
547 1 8.32311e-16 12.5792 12.5799 -8.94984
548 1 1.57113 14.1519 14.1527 -8.95014
549 1 3.14197 12.5788 12.5801 -8.95107
550 1 4.71222 14.1531 14.1545 -8.9526
551 1 6.28029 12.5782 12.5816 -8.95931
552 1 7.84727 14.1661 14.1697 -8.94044
553 1 9.39301 12.6225 12.6097 -8.84122
554 1 11.007 14.159 14.1661 -8.95363
555 1 12.6209 12.6225 12.6097 -8.84122
556 1 14.1666 14.1661 14.1697 -8.94044
557 1 15.7336 12.5782 12.5816 -8.95931
558 1 17.3017 14.1531 14.1545 -8.9526
559 1 18.8719 12.5788 12.5801 -8.95107
560 1 20.4428 14.1519 14.1527 -8.95014
561 1 9.35103e-16 15.725 12.5801 -8.9508
562 1 1.57098 17.2979 14.1531 -8.94986
563 1 3.14011 15.7266 12.5814 -8.95103
564 1 4.71224 17.3014 14.1562 -8.9451
565 1 6.27522 15.7377 12.5912 -8.93193
566 1 7.85858 17.3034 14.1564 -8.94898
567 1 9.42858 15.74 12.5893 -8.95155
568 1 11.007 17.3019 14.156 -8.94613
569 1 12.5853 15.74 12.5893 -8.95155
570 1 14.1553 17.3034 14.1564 -8.94898
571 1 15.7387 15.7377 12.5912 -8.93193
572 1 17.3017 17.3014 14.1562 -8.9451
573 1 18.8738 15.7266 12.5814 -8.95103
574 1 20.4429 17.2979 14.1531 -8.94986
575 1 1.95196e-15 18.87 12.5799 -8.94931
576 1 1.5719 20.442 14.1524 -8.94942
577 1 3.1432 18.8707 12.5803 -8.9491
578 1 4.71606 20.4428 14.1529 -8.95004
579 1 6.28751 18.8732 12.5809 -8.95148
580 1 7.86156 20.4432 14.1529 -8.95042
581 1 9.43436 18.8732 12.5807 -8.95256
582 1 11.007 20.4431 14.1531 -8.9495
583 1 12.5795 18.8732 12.5807 -8.95256
584 1 14.1523 20.4432 14.1529 -8.95042
585 1 15.7264 18.8732 12.5809 -8.95148
586 1 17.2978 20.4428 14.1529 -8.95004
587 1 18.8707 18.8707 12.5803 -8.9491
588 1 20.442 20.442 14.1524 -8.94942
589 1 1.5718 11.007 17.2975 -8.9495
590 1 4.71554 11.007 17.2983 -8.94948
591 1 7.86005 11.007 17.2995 -8.94801
592 1 11.007 11.007 17.3001 -8.94992
593 1 14.1539 11.007 17.2995 -8.94801
594 1 17.2984 11.007 17.2983 -8.94948
595 1 20.4421 11.007 17.2975 -8.9495
596 1 1.07396e-16 12.5795 15.7252 -8.94949
597 1 1.57182 14.152 17.2974 -8.94933
598 1 3.14294 12.5796 15.7258 -8.94886
599 1 4.71564 14.1522 17.2983 -8.94937
600 1 6.28631 12.5797 15.7274 -8.94786
601 1 7.85995 14.1537 17.3015 -8.95284
602 1 9.4313 12.5816 15.7325 -8.9548
603 1 11.007 14.1534 17.3011 -8.95117
604 1 12.5826 12.5816 15.7325 -8.9548
605 1 14.1539 14.1537 17.3015 -8.95284
606 1 15.7276 12.5797 15.7274 -8.94786
607 1 17.2983 14.1522 17.2983 -8.94937
608 1 18.871 12.5796 15.7258 -8.94886
609 1 20.4421 14.152 17.2974 -8.94933
610 1 1.27115e-15 15.7245 15.725 -8.94996
611 1 1.57175 17.2972 17.2975 -8.94983
612 1 3.1427 15.7252 15.7259 -8.95047
613 1 4.71507 17.2987 17.2992 -8.94852
614 1 6.28384 15.7297 15.7314 -8.94649
615 1 7.86111 17.2986 17.299 -8.9493
616 1 9.43299 15.7286 15.7298 -8.94823
617 1 11.007 17.2985 17.2988 -8.94909
618 1 12.5809 15.7286 15.7298 -8.94823
619 1 14.1528 17.2986 17.299 -8.9493
620 1 15.7301 15.7297 15.7314 -8.94649
621 1 17.2988 17.2987 17.2992 -8.94852
622 1 18.8712 15.7252 15.7259 -8.95047
623 1 20.4422 17.2972 17.2975 -8.94983
624 1 1.44606e-15 18.8698 15.7251 -8.94946
625 1 1.57196 20.4419 17.2973 -8.94914
626 1 3.1432 18.8706 15.7258 -8.9484
627 1 4.71654 20.4422 17.2976 -8.94953
628 1 6.28808 18.8716 15.7263 -8.94945
629 1 7.86178 20.4422 17.2975 -8.94941
630 1 9.43411 18.8713 15.7261 -8.94907
631 1 11.007 20.4422 17.2976 -8.94944
632 1 12.5798 18.8713 15.7261 -8.94907
633 1 14.1521 20.4422 17.2975 -8.94941
634 1 15.7258 18.8716 15.7263 -8.94945
635 1 17.2974 20.4422 17.2976 -8.94953
636 1 18.8707 18.8706 15.7258 -8.9484
637 1 20.4419 20.4419 17.2973 -8.94914
638 1 1.57203 11.007 20.4415 -8.94953
639 1 4.71626 11.007 20.4415 -8.94955
640 1 7.86113 11.007 20.4415 -8.94953
641 1 11.007 11.007 20.4415 -8.94918
642 1 14.1528 11.007 20.4415 -8.94953
643 1 17.2976 11.007 20.4415 -8.94955
644 1 20.4419 11.007 20.4415 -8.94953
645 1 -1.16824e-15 12.5795 18.8695 -8.94953
646 1 1.57206 14.1519 20.4415 -8.94949
647 1 3.144 12.5795 18.8696 -8.94946
648 1 4.71636 14.152 20.4415 -8.94939
649 1 6.28842 12.5796 18.8702 -8.94918
650 1 7.86136 14.1524 20.4415 -8.95095
651 1 9.43398 12.5796 18.871 -8.95075
652 1 11.007 14.1525 20.4415 -8.95046
653 1 12.5799 12.5796 18.871 -8.95075
654 1 14.1525 14.1524 20.4415 -8.95095
655 1 15.7255 12.5796 18.8702 -8.94918
656 1 17.2975 14.152 20.4415 -8.94939
657 1 18.8699 12.5795 18.8696 -8.94946
658 1 20.4418 14.1519 20.4415 -8.94949
659 1 -6.47853e-17 15.7244 18.8694 -8.94946
660 1 1.57209 17.2969 20.4415 -8.94964
661 1 3.14408 15.7245 18.8696 -8.94961
662 1 4.71629 17.2975 20.4415 -8.94988
663 1 6.28835 15.7254 18.8708 -8.95065
664 1 7.86166 17.2976 20.4415 -8.94958
665 1 9.43414 15.7255 18.8707 -8.94976
666 1 11.007 17.2977 20.4415 -8.94953
667 1 12.5798 15.7255 18.8707 -8.94976
668 1 14.1522 17.2976 20.4415 -8.94958
669 1 15.7256 15.7254 18.8708 -8.95065
670 1 17.2976 17.2975 20.4415 -8.94988
671 1 18.8698 15.7245 18.8696 -8.94961
672 1 20.4418 17.2969 20.4415 -8.94964
673 1 1.36636e-15 18.8694 18.8694 -8.94961
674 1 1.57209 20.4418 20.4415 -8.94921
675 1 3.144 18.8698 18.8697 -8.94918
676 1 4.7169 20.4419 20.4415 -8.94956
677 1 6.28913 18.8699 18.8698 -8.94952
678 1 7.86192 20.4419 20.4415 -8.94947
679 1 9.43436 18.87 18.8698 -8.9494
680 1 11.007 20.4419 20.4415 -8.9495
681 1 12.5795 18.87 18.8698 -8.9494
682 1 14.152 20.4419 20.4415 -8.94947
379 1 1.0006e-15 18.8694 22.0135 -8.94961
357 1 9.43398 12.5796 22.012 -8.95075
359 1 12.5799 12.5796 22.012 -8.95075
377 1 18.8698 15.7245 22.0133 -8.94961
365 1 2.15383e-16 15.7244 22.0136 -8.94946
367 1 3.14408 15.7245 22.0133 -8.94961
369 1 6.28835 15.7254 22.0121 -8.95065
375 1 15.7256 15.7254 22.0121 -8.95065
351 1 -2.01605e-16 12.5795 22.0135 -8.94953
353 1 3.144 12.5795 22.0133 -8.94946
363 1 18.8699 12.5795 22.0133 -8.94946
385 1 9.43436 18.87 22.0132 -8.9494
387 1 12.5795 18.87 22.0132 -8.9494
