ITEM: TIMESTEP
56
ITEM: NUMBER OF ATOMS
688
ITEM: BOX BOUNDS pp pp pp
0.0000000000000000e+00 2.2013900999999997e+01
0.0000000000000000e+00 2.2013900999999997e+01
0.0000000000000000e+00 2.2013900999999997e+01
ITEM: ATOMS id type x y z c_pot
189 1 20.4416 4.7172 11.007 -8.94955
2 1 1.57241 1.57241 1.57241 -8.9496
175 1 18.8708 9.43469 9.43453 -8.95152
4 1 4.71726 1.57241 1.57241 -8.94966
174 1 15.7343 9.43092 9.43453 -8.97101
6 1 7.86211 1.57241 1.57241 -8.94963
7 1 9.43453 1.80919e-15 -1.06596e-06 -8.94964
8 1 11.007 1.57241 1.57241 -8.94965
9 1 12.5794 1.83245e-15 -1.06596e-06 -8.94964
10 1 14.1518 1.57241 1.57241 -8.94963
173 1 12.6628 9.22467 9.43453 -8.05082
12 1 17.2966 1.57241 1.57241 -8.94966
172 1 9.35109 9.22467 9.43453 -8.05082
14 1 20.4415 1.57241 1.57241 -8.9496
171 1 6.27963 9.43092 9.43453 -8.97101
16 1 1.57241 4.71726 1.57241 -8.94966
170 1 3.14312 9.43469 9.43453 -8.95152
18 1 4.71711 4.71711 1.57222 -8.94927
169 1 8.59166e-16 9.43456 9.43453 -8.95021
20 1 7.86211 4.71719 1.57232 -8.94965
188 1 17.2972 4.71673 11.0071 -8.94916
22 1 11.007 4.71715 1.57227 -8.94961
184 1 4.71675 4.71673 11.0071 -8.94916
24 1 14.1518 4.71719 1.57232 -8.94965
168 1 18.8699 6.28925 9.43453 -8.94913
26 1 17.2968 4.71711 1.57222 -8.94927
167 1 15.7281 6.28562 9.43453 -8.94424
28 1 20.4415 4.71726 1.57241 -8.94966
166 1 12.5809 6.28645 9.43453 -8.996
30 1 1.57241 7.8621 1.57241 -8.94961
165 1 9.43301 6.28645 9.43453 -8.996
32 1 4.7172 7.86212 1.57234 -8.94968
164 1 6.28579 6.28562 9.43453 -8.94424
34 1 7.86178 7.86178 1.57126 -8.95131
35 1 9.43452 6.2896 -0.000125457 -8.94958
36 1 11.007 7.86176 1.57154 -8.94989
37 1 12.5794 6.2896 -0.000125457 -8.94958
38 1 14.1521 7.86178 1.57126 -8.95131
163 1 3.14404 6.28925 9.43453 -8.94913
40 1 17.2967 7.86212 1.57234 -8.94968
162 1 5.81344e-16 6.28961 9.43453 -8.94973
42 1 20.4415 7.8621 1.57241 -8.94961
183 1 1.57234 4.7172 11.007 -8.94955
157 1 6.28925 3.14401 9.43453 -8.94925
161 1 18.8691 3.14478 9.43453 -8.94971
160 1 15.7247 3.14401 9.43453 -8.94925
159 1 12.5793 3.14349 9.43453 -8.94931
158 1 9.4346 3.14349 9.43453 -8.94931
156 1 3.14478 3.14478 9.43453 -8.94971
50 1 3.1332e-16 1.32785e-15 3.14484 -8.94965
51 1 1.57242 1.57242 4.71726 -8.94966
52 1 3.14483 7.04802e-16 3.14483 -8.94961
53 1 4.71719 1.57231 4.7172 -8.94966
54 1 6.28968 1.96541e-15 3.14483 -8.94965
55 1 7.86208 1.57228 4.71719 -8.9497
56 1 9.43452 1.23321e-15 3.14482 -8.94962
57 1 11.007 1.57227 4.71715 -8.94957
58 1 12.5794 9.82305e-16 3.14482 -8.94962
59 1 14.1518 1.57228 4.71719 -8.9497
60 1 15.7242 1.75122e-15 3.14483 -8.94965
61 1 17.2967 1.57231 4.7172 -8.94966
62 1 18.8691 1.20016e-15 3.14483 -8.94961
63 1 20.4415 1.57242 4.71726 -8.94966
64 1 7.73382e-16 3.14483 3.14483 -8.94961
65 1 1.57231 4.71719 4.71719 -8.94963
66 1 3.14476 3.14476 3.14476 -8.94931
67 1 4.71645 4.71646 4.71647 -8.94723
68 1 6.28962 3.1447 3.14475 -8.94976
69 1 7.86175 4.71611 4.71659 -8.95002
70 1 9.43451 3.14471 3.14473 -8.94954
71 1 11.007 4.71624 4.71641 -8.94814
72 1 12.5794 3.14471 3.14473 -8.94954
73 1 14.1522 4.71611 4.71659 -8.95002
74 1 15.7243 3.1447 3.14475 -8.94976
75 1 17.2975 4.71646 4.71647 -8.94723
76 1 18.8691 3.14476 3.14476 -8.94931
77 1 20.4416 4.71719 4.71719 -8.94963
78 1 5.50035e-16 6.28968 3.14483 -8.94966
79 1 1.5723 7.86209 4.7172 -8.94971
80 1 3.14471 6.28964 3.14476 -8.94986
81 1 4.7163 7.86195 4.71676 -8.95103
82 1 6.28856 6.28856 3.14325 -8.94774
83 1 7.85564 7.85569 4.70828 -8.94169
84 1 9.43452 6.28902 3.14396 -8.94898
85 1 11.007 7.85966 4.71211 -8.95245
86 1 12.5794 6.28902 3.14396 -8.94898
87 1 14.1583 7.85569 4.70828 -8.94169
88 1 15.7253 6.28856 3.14325 -8.94774
89 1 17.2976 7.86195 4.71676 -8.95103
90 1 18.8692 6.28964 3.14476 -8.94986
91 1 20.4416 7.86209 4.7172 -8.94971
92 1 -4.37424e-16 9.43452 3.14482 -8.94962
93 1 3.1447 9.4345 3.14472 -8.94944
94 1 6.28913 9.43465 3.1442 -8.94902
95 1 9.43355 9.43375 3.14091 -8.95368
96 1 12.5803 9.43375 3.14091 -8.95368
97 1 15.7248 9.43465 3.1442 -8.94902
98 1 18.8692 9.4345 3.14472 -8.94944
99 1 7.31307e-16 1.74181e-15 6.28969 -8.94964
100 1 1.57242 1.57242 7.86211 -8.94965
101 1 3.14483 1.74989e-15 6.28969 -8.94962
102 1 4.7172 1.57234 7.86209 -8.94954
103 1 6.28963 1.68705e-15 6.28964 -8.94989
104 1 7.86202 1.57194 7.86205 -8.95055
105 1 9.43451 2.90638e-16 6.28961 -8.9499
106 1 11.007 1.57199 7.86198 -8.94974
107 1 12.5794 -1.78974e-16 6.28961 -8.9499
108 1 14.1519 1.57194 7.86205 -8.95055
109 1 15.7243 2.03327e-15 6.28964 -8.94989
110 1 17.2967 1.57234 7.86209 -8.94954
111 1 18.8691 1.69009e-15 6.28969 -8.94962
112 1 20.4415 1.57242 7.86211 -8.94965
113 1 1.20153e-15 3.14483 6.28969 -8.94962
114 1 1.57234 4.7172 7.86209 -8.94955
115 1 3.14479 3.14479 6.28967 -8.94971
116 1 4.71675 4.71673 7.86196 -8.94916
117 1 6.28931 3.14401 6.28935 -8.95033
118 1 7.86099 4.713 7.86148 -8.95583
119 1 9.43453 3.14379 6.28932 -8.95046
120 1 11.007 4.71485 7.86147 -8.94917
121 1 12.5794 3.14379 6.28932 -8.95046
122 1 14.1529 4.713 7.86148 -8.95583
123 1 15.7246 3.14401 6.28935 -8.95033
124 1 17.2972 4.71673 7.86196 -8.94916
125 1 18.8691 3.14479 6.28967 -8.94971
126 1 20.4416 4.7172 7.86209 -8.94955
127 1 7.06962e-16 6.28963 6.28963 -8.9499
128 1 1.5719 7.86201 7.86204 -8.95071
129 1 3.14396 6.28928 6.28931 -8.95011
130 1 4.71236 7.86067 7.86111 -8.95531
131 1 6.28397 6.28411 6.28425 -8.93511
132 1 7.83103 7.83429 7.83717 -8.86184
133 1 9.43344 6.28284 6.28671 -8.95387
134 1 11.007 7.85564 7.83976 -8.88441
135 1 12.5805 6.28284 6.28671 -8.95387
136 1 14.1829 7.83429 7.83717 -8.86184
137 1 15.7299 6.28411 6.28425 -8.93511
138 1 17.3015 7.86067 7.86111 -8.95531
139 1 18.8699 6.28928 6.28931 -8.95011
140 1 20.442 7.86201 7.86204 -8.95071
141 1 3.46265e-16 9.43453 6.28962 -8.94981
142 1 3.14398 9.43463 6.28941 -8.95024
143 1 6.2844 9.43559 6.28837 -8.95667
144 1 9.40136 9.40139 6.26662 -8.84489
145 1 12.6125 9.40139 6.26662 -8.84489
146 1 15.7295 9.43559 6.28837 -8.95667
147 1 18.8699 9.43463 6.28941 -8.95024
148 1 8.96783e-16 7.78773e-16 9.43453 -8.94964
149 1 3.14483 1.92073e-15 9.43453 -8.94963
150 1 6.28961 1.81244e-15 9.43453 -8.94977
151 1 9.43454 4.07168e-16 9.43453 -8.94997
152 1 12.5794 4.5141e-16 9.43453 -8.94997
153 1 15.7243 1.76204e-15 9.43453 -8.94977
154 1 18.8691 1.83925e-15 9.43453 -8.94963
155 1 -1.64447e-16 3.14483 9.43453 -8.94964
177 1 4.7172 1.57234 11.007 -8.94954
48 1 15.7243 9.43453 -0.000108298 -8.94955
181 1 17.2967 1.57234 11.007 -8.94954
19 1 6.28969 3.14484 -4.94505e-06 -8.94966
45 1 6.28961 9.43453 -0.000108298 -8.94955
25 1 15.7242 3.14484 -4.94505e-06 -8.94966
176 1 1.57242 1.57242 11.007 -8.94965
47 1 12.5794 9.43448 22.0134 -8.95037
178 1 7.86202 1.57194 11.007 -8.95055
179 1 11.007 1.57199 11.0071 -8.94974
180 1 14.1519 1.57194 11.007 -8.95055
46 1 9.43447 9.43448 22.0134 -8.95037
182 1 20.4415 1.57242 11.007 -8.94965
343 1 18.8691 9.43453 18.8691 -8.94964
342 1 15.7243 9.43453 18.8692 -8.94955
185 1 7.86099 4.713 11.0076 -8.95583
186 1 11.007 4.71485 11.0076 -8.94917
187 1 14.1529 4.713 11.0076 -8.95583
341 1 12.5794 9.43448 18.8695 -8.95037
340 1 9.43447 9.43448 18.8695 -8.95037
190 1 1.5719 7.86201 11.007 -8.95071
191 1 4.71236 7.86067 11.008 -8.95531
192 1 7.83103 7.83429 11.0319 -8.86184
193 1 11.007 7.85564 11.0293 -8.88441
194 1 14.1829 7.83429 11.0319 -8.86184
195 1 17.3015 7.86067 11.008 -8.95531
196 1 20.442 7.86201 11.007 -8.95071
197 1 1.23041e-15 1.70078e-15 12.5794 -8.94964
198 1 1.57242 1.57242 14.1518 -8.94966
199 1 3.14483 1.7726e-15 12.5794 -8.94962
200 1 4.71719 1.57231 14.1519 -8.94966
201 1 6.28963 1.47433e-15 12.5794 -8.94989
202 1 7.86208 1.57228 14.1519 -8.9497
203 1 9.43451 4.28551e-16 12.5794 -8.9499
204 1 11.007 1.57227 14.1519 -8.94957
205 1 12.5794 -5.32637e-16 12.5794 -8.9499
206 1 14.1518 1.57228 14.1519 -8.9497
207 1 15.7243 1.56736e-15 12.5794 -8.94989
208 1 17.2967 1.57231 14.1519 -8.94966
209 1 18.8691 1.82507e-15 12.5794 -8.94962
210 1 20.4415 1.57242 14.1518 -8.94966
211 1 1.01279e-15 3.14483 12.5794 -8.94962
212 1 1.57231 4.71719 14.1519 -8.94963
213 1 3.14479 3.14479 12.5794 -8.94971
214 1 4.71645 4.71646 14.1526 -8.94723
215 1 6.28931 3.14401 12.5797 -8.95033
216 1 7.86175 4.71611 14.1525 -8.95002
217 1 9.43453 3.14379 12.5797 -8.95046
218 1 11.007 4.71624 14.1526 -8.94814
219 1 12.5794 3.14379 12.5797 -8.95046
220 1 14.1522 4.71611 14.1525 -8.95002
221 1 15.7246 3.14401 12.5797 -8.95033
222 1 17.2975 4.71646 14.1526 -8.94723
223 1 18.8691 3.14479 12.5794 -8.94971
224 1 20.4416 4.71719 14.1519 -8.94963
225 1 4.40401e-16 6.28963 12.5794 -8.9499
226 1 1.5723 7.86209 14.1519 -8.94971
227 1 3.14396 6.28928 12.5798 -8.95011
228 1 4.7163 7.86195 14.1523 -8.95103
229 1 6.28397 6.28411 12.5848 -8.93511
230 1 7.85564 7.85569 14.1608 -8.94169
231 1 9.43344 6.28284 12.5823 -8.95387
232 1 11.007 7.85966 14.157 -8.95245
233 1 12.5805 6.28284 12.5823 -8.95387
234 1 14.1583 7.85569 14.1608 -8.94169
235 1 15.7299 6.28411 12.5848 -8.93511
236 1 17.2976 7.86195 14.1523 -8.95103
237 1 18.8699 6.28928 12.5798 -8.95011
238 1 20.4416 7.86209 14.1519 -8.94971
239 1 -4.72987e-17 9.43453 12.5794 -8.94981
240 1 3.14398 9.43463 12.5797 -8.95024
241 1 6.2844 9.43559 12.5807 -8.95667
242 1 9.40136 9.40139 12.6024 -8.84489
243 1 12.6125 9.40139 12.6024 -8.84489
244 1 15.7295 9.43559 12.5807 -8.95667
245 1 18.8699 9.43463 12.5797 -8.95024
246 1 6.0791e-16 1.08646e-15 15.7242 -8.94965
247 1 1.57241 1.57241 17.2966 -8.9496
248 1 3.14483 9.58447e-16 15.7242 -8.94961
249 1 4.71726 1.57241 17.2966 -8.94966
250 1 6.28968 1.94892e-15 15.7242 -8.94965
251 1 7.86211 1.57241 17.2966 -8.94963
252 1 9.43452 1.45965e-15 15.7242 -8.94962
253 1 11.007 1.57241 17.2966 -8.94965
254 1 12.5794 1.15373e-15 15.7242 -8.94962
255 1 14.1518 1.57241 17.2966 -8.94963
256 1 15.7242 1.57547e-15 15.7242 -8.94965
257 1 17.2966 1.57241 17.2966 -8.94966
258 1 18.8691 1.26899e-15 15.7242 -8.94961
259 1 20.4415 1.57241 17.2966 -8.9496
260 1 7.64442e-16 3.14483 15.7242 -8.94961
261 1 1.57241 4.71726 17.2966 -8.94966
262 1 3.14476 3.14476 15.7243 -8.94931
263 1 4.71711 4.71711 17.2968 -8.94927
264 1 6.28962 3.1447 15.7243 -8.94976
265 1 7.86211 4.71719 17.2967 -8.94965
266 1 9.43451 3.14471 15.7243 -8.94954
267 1 11.007 4.71715 17.2968 -8.94961
268 1 12.5794 3.14471 15.7243 -8.94954
269 1 14.1518 4.71719 17.2967 -8.94965
270 1 15.7243 3.1447 15.7243 -8.94976
271 1 17.2968 4.71711 17.2968 -8.94927
272 1 18.8691 3.14476 15.7243 -8.94931
273 1 20.4415 4.71726 17.2966 -8.94966
274 1 -1.90303e-16 6.28968 15.7242 -8.94966
275 1 1.57241 7.8621 17.2966 -8.94961
276 1 3.14471 6.28964 15.7243 -8.94986
277 1 4.7172 7.86212 17.2967 -8.94968
278 1 6.28856 6.28856 15.7258 -8.94774
279 1 7.86178 7.86178 17.2978 -8.95131
280 1 9.43452 6.28902 15.7251 -8.94898
281 1 11.007 7.86176 17.2975 -8.94989
282 1 12.5794 6.28902 15.7251 -8.94898
283 1 14.1521 7.86178 17.2978 -8.95131
284 1 15.7253 6.28856 15.7258 -8.94774
285 1 17.2967 7.86212 17.2967 -8.94968
286 1 18.8692 6.28964 15.7243 -8.94986
287 1 20.4415 7.8621 17.2966 -8.94961
288 1 -6.98441e-16 9.43452 15.7242 -8.94962
289 1 3.1447 9.4345 15.7243 -8.94944
290 1 6.28913 9.43465 15.7249 -8.94902
291 1 9.43355 9.43375 15.7282 -8.95368
292 1 12.5803 9.43375 15.7282 -8.95368
293 1 15.7248 9.43465 15.7249 -8.94902
294 1 18.8692 9.4345 15.7243 -8.94944
295 1 1.85218e-15 -6.9788e-16 18.8691 -8.94962
296 1 1.57242 1.57242 20.4415 -8.94962
297 1 3.14484 2.63882e-16 18.8691 -8.94964
298 1 4.71727 1.57242 20.4415 -8.94965
299 1 6.28969 1.84688e-15 18.8691 -8.94963
300 1 7.86211 1.57242 20.4415 -8.94964
301 1 9.43453 1.62815e-15 18.8691 -8.94964
302 1 11.007 1.57242 20.4415 -8.94964
303 1 12.5794 1.69295e-15 18.8691 -8.94964
304 1 14.1518 1.57242 20.4415 -8.94964
305 1 15.7242 1.93147e-15 18.8691 -8.94963
306 1 17.2966 1.57242 20.4415 -8.94965
307 1 18.8691 5.75506e-16 18.8691 -8.94964
308 1 20.4415 1.57242 20.4415 -8.94962
309 1 1.1234e-15 3.14484 18.8691 -8.94964
310 1 1.57242 4.71727 20.4415 -8.94965
311 1 3.14483 3.14483 18.8691 -8.94958
312 1 4.71724 4.71724 20.4415 -8.94964
313 1 6.28969 3.14484 18.8691 -8.94966
314 1 7.86211 4.71725 20.4415 -8.94961
315 1 9.43453 3.14483 18.8691 -8.94964
316 1 11.007 4.71725 20.4415 -8.94964
317 1 12.5794 3.14483 18.8691 -8.94964
318 1 14.1518 4.71725 20.4415 -8.94961
319 1 15.7242 3.14484 18.8691 -8.94966
320 1 17.2967 4.71724 20.4415 -8.94964
321 1 18.8691 3.14483 18.8691 -8.94958
322 1 20.4415 4.71727 20.4415 -8.94965
323 1 -5.72918e-16 6.28969 18.8691 -8.94963
324 1 1.57242 7.86211 20.4415 -8.94963
325 1 3.14484 6.28969 18.8691 -8.94967
326 1 4.71725 7.86211 20.4415 -8.94961
327 1 6.2896 6.2896 18.8692 -8.94984
328 1 7.86206 7.86206 20.4415 -8.95007
329 1 9.43452 6.2896 18.8692 -8.94958
330 1 11.007 7.86205 20.4415 -8.94985
331 1 12.5794 6.2896 18.8692 -8.94958
332 1 14.1518 7.86206 20.4415 -8.95007
333 1 15.7243 6.2896 18.8692 -8.94984
334 1 17.2966 7.86211 20.4415 -8.94961
335 1 18.8691 6.28969 18.8691 -8.94967
336 1 20.4415 7.86211 20.4415 -8.94963
337 1 -2.85217e-16 9.43453 18.8691 -8.94964
338 1 3.14483 9.43453 18.8691 -8.94964
339 1 6.28961 9.43453 18.8692 -8.94955
3 1 3.14484 2.14489e-16 22.0139 -8.94964
5 1 6.28969 2.02021e-15 22.0139 -8.94963
11 1 15.7242 2.16995e-15 22.0139 -8.94963
13 1 18.8691 6.94149e-16 22.0139 -8.94964
15 1 9.51882e-16 3.14484 22.0139 -8.94964
17 1 3.14483 3.14483 22.0139 -8.94958
41 1 18.8691 6.28969 22.0139 -8.94967
39 1 15.7243 6.2896 22.0137 -8.94984
27 1 18.8691 3.14483 22.0139 -8.94958
29 1 -2.86797e-16 6.28969 22.0139 -8.94963
31 1 3.14484 6.28969 22.0139 -8.94967
33 1 6.2896 6.2896 22.0137 -8.94984
1 1 1.51564e-15 -3.93608e-16 22.0139 -8.94962
21 1 9.43453 3.14483 22.0139 -8.94964
23 1 12.5794 3.14483 22.0139 -8.94964
43 1 -2.09418e-16 9.43453 22.0139 -8.94964
44 1 3.14483 9.43453 22.0139 -8.94964
49 1 18.8691 9.43453 22.0139 -8.94964
344 1 1.57241 11.007 1.57241 -8.94965
345 1 4.71715 11.007 1.57227 -8.94966
346 1 7.86174 11.007 1.57173 -8.94906
347 1 11.007 11.007 1.57086 -8.95021
348 1 14.1522 11.007 1.57173 -8.94906
349 1 17.2967 11.007 1.57227 -8.94966
350 1 20.4415 11.007 1.57241 -8.94965
532 1 20.4416 17.2967 11.007 -8.94955
352 1 1.57241 14.1518 1.57241 -8.94961
531 1 17.2972 17.2972 11.0071 -8.94916
354 1 4.7172 14.1518 1.57234 -8.94968
688 3 10.2473 11.007 9.43453 2.29751
356 1 7.86178 14.1521 1.57126 -8.95131
687 3 11.7666 11.007 9.43453 2.29751
358 1 11.007 14.1521 1.57154 -8.94989
511 1 18.8691 18.8691 9.43453 -8.94971
360 1 14.1521 14.1521 1.57126 -8.95131
510 1 15.7247 18.8699 9.43453 -8.94925
362 1 17.2967 14.1518 1.57234 -8.94968
527 1 4.71675 17.2972 11.0071 -8.94916
364 1 20.4415 14.1518 1.57241 -8.94961
509 1 12.5793 18.8704 9.43453 -8.94931
366 1 1.57241 17.2966 1.57241 -8.94966
508 1 9.4346 18.8704 9.43453 -8.94931
368 1 4.71711 17.2968 1.57222 -8.94927
507 1 6.28925 18.8699 9.43453 -8.94925
370 1 7.86211 17.2967 1.57232 -8.94965
371 1 9.43452 15.7243 -0.000125457 -8.94958
372 1 11.007 17.2967 1.57227 -8.94961
373 1 12.5794 15.7243 -0.000125457 -8.94958
374 1 14.1518 17.2967 1.57232 -8.94965
506 1 3.14478 18.8691 9.43453 -8.94971
376 1 17.2968 17.2968 1.57222 -8.94927
505 1 -2.14351e-16 18.8691 9.43453 -8.94964
378 1 20.4415 17.2966 1.57241 -8.94966
504 1 18.8699 15.7246 9.43453 -8.94913
380 1 1.57241 20.4415 1.57241 -8.9496
503 1 15.7281 15.7283 9.43453 -8.94424
382 1 4.71726 20.4415 1.57241 -8.94966
502 1 12.5809 15.7274 9.43453 -8.996
384 1 7.86211 20.4415 1.57241 -8.94963
526 1 1.57234 17.2967 11.007 -8.94955
386 1 11.007 20.4415 1.57241 -8.94965
499 1 3.14404 15.7246 9.43453 -8.94913
388 1 14.1518 20.4415 1.57241 -8.94963
501 1 9.43301 15.7274 9.43453 -8.996
390 1 17.2966 20.4415 1.57241 -8.94966
500 1 6.28579 15.7283 9.43453 -8.94424
392 1 20.4415 20.4415 1.57241 -8.9496
393 1 1.57227 11.007 4.71715 -8.94964
394 1 4.71616 11.007 4.71635 -8.94782
395 1 7.85981 11.007 4.71478 -8.94531
396 1 11.007 11.007 4.70973 -9.01933
397 1 14.1541 11.007 4.71478 -8.94531
398 1 17.2977 11.007 4.71635 -8.94782
399 1 20.4416 11.007 4.71715 -8.94964
400 1 -5.39674e-16 12.5794 3.14482 -8.94962
401 1 1.5723 14.1518 4.7172 -8.94971
402 1 3.1447 12.5794 3.14472 -8.94944
403 1 4.7163 14.152 4.71676 -8.95103
404 1 6.28913 12.5793 3.1442 -8.94902
405 1 7.85564 14.1582 4.70828 -8.94169
406 1 9.43355 12.5801 3.14091 -8.95368
407 1 11.007 14.1542 4.71211 -8.95245
408 1 12.5803 12.5801 3.14091 -8.95368
409 1 14.1583 14.1582 4.70828 -8.94169
410 1 15.7248 12.5793 3.1442 -8.94902
411 1 17.2976 14.152 4.71676 -8.95103
412 1 18.8692 12.5794 3.14472 -8.94944
413 1 20.4416 14.1518 4.7172 -8.94971
414 1 3.44697e-16 15.7242 3.14483 -8.94966
415 1 1.57231 17.2967 4.71719 -8.94963
416 1 3.14471 15.7243 3.14476 -8.94986
417 1 4.71645 17.2974 4.71647 -8.94723
418 1 6.28856 15.7253 3.14325 -8.94774
419 1 7.86175 17.2978 4.71659 -8.95002
420 1 9.43452 15.7249 3.14396 -8.94898
421 1 11.007 17.2977 4.71641 -8.94814
422 1 12.5794 15.7249 3.14396 -8.94898
423 1 14.1522 17.2978 4.71659 -8.95002
424 1 15.7253 15.7253 3.14325 -8.94774
425 1 17.2975 17.2974 4.71647 -8.94723
426 1 18.8692 15.7243 3.14476 -8.94986
427 1 20.4416 17.2967 4.71719 -8.94963
428 1 6.57654e-16 18.8691 3.14483 -8.94961
429 1 1.57242 20.4415 4.71726 -8.94966
430 1 3.14476 18.8691 3.14476 -8.94931
431 1 4.71719 20.4416 4.7172 -8.94966
432 1 6.28962 18.8692 3.14475 -8.94976
433 1 7.86208 20.4416 4.71719 -8.9497
434 1 9.43451 18.8692 3.14473 -8.94954
435 1 11.007 20.4416 4.71715 -8.94957
436 1 12.5794 18.8692 3.14473 -8.94954
437 1 14.1518 20.4416 4.71719 -8.9497
438 1 15.7243 18.8692 3.14475 -8.94976
439 1 17.2967 20.4416 4.7172 -8.94966
440 1 18.8691 18.8691 3.14476 -8.94931
441 1 20.4415 20.4415 4.71726 -8.94966
442 1 1.57207 11.007 7.86196 -8.94925
443 1 4.71604 11.007 7.86158 -8.9433
444 1 7.87013 11.007 7.86502 -8.93405
445 1 11.007 11.007 7.52997 -7.49027
446 1 14.1438 11.007 7.86502 -8.93405
447 1 17.2979 11.007 7.86158 -8.9433
448 1 20.4418 11.007 7.86196 -8.94925
449 1 2.3003e-16 12.5794 6.28962 -8.94981
450 1 1.5719 14.1519 7.86204 -8.95071
451 1 3.14398 12.5793 6.28941 -8.95024
452 1 4.71236 14.1532 7.86111 -8.95531
453 1 6.2844 12.5783 6.28837 -8.95667
454 1 7.83103 14.1796 7.83717 -8.86184
455 1 9.40136 12.6125 6.26662 -8.84489
456 1 11.007 14.1583 7.83976 -8.88441
457 1 12.6125 12.6125 6.26662 -8.84489
458 1 14.1829 14.1796 7.83717 -8.86184
459 1 15.7295 12.5783 6.28837 -8.95667
460 1 17.3015 14.1532 7.86111 -8.95531
461 1 18.8699 12.5793 6.28941 -8.95024
462 1 20.442 14.1519 7.86204 -8.95071
463 1 7.01978e-16 15.7243 6.28963 -8.9499
464 1 1.57234 17.2967 7.86209 -8.94955
465 1 3.14396 15.7246 6.28931 -8.95011
466 1 4.71675 17.2972 7.86196 -8.94916
467 1 6.28397 15.7298 6.28425 -8.93511
468 1 7.86099 17.3009 7.86148 -8.95583
469 1 9.43344 15.7311 6.28671 -8.95387
470 1 11.007 17.2991 7.86147 -8.94917
471 1 12.5805 15.7311 6.28671 -8.95387
472 1 14.1529 17.3009 7.86148 -8.95583
473 1 15.7299 15.7298 6.28425 -8.93511
474 1 17.2972 17.2972 7.86196 -8.94916
475 1 18.8699 15.7246 6.28931 -8.95011
476 1 20.4416 17.2967 7.86209 -8.94955
477 1 1.24908e-15 18.8691 6.28969 -8.94962
478 1 1.57242 20.4415 7.86211 -8.94965
479 1 3.14479 18.8691 6.28967 -8.94971
480 1 4.7172 20.4416 7.86209 -8.94954
481 1 6.28931 18.8699 6.28935 -8.95033
482 1 7.86202 20.442 7.86205 -8.95055
483 1 9.43453 18.8701 6.28932 -8.95046
484 1 11.007 20.4419 7.86198 -8.94974
485 1 12.5794 18.8701 6.28932 -8.95046
486 1 14.1519 20.442 7.86205 -8.95055
487 1 15.7246 18.8699 6.28935 -8.95033
488 1 17.2967 20.4416 7.86209 -8.94954
489 1 18.8691 18.8691 6.28967 -8.94971
490 1 20.4415 20.4415 7.86211 -8.94965
491 1 7.9827e-16 12.5793 9.43453 -8.95021
492 1 3.14312 12.5792 9.43453 -8.95152
493 1 6.27963 12.583 9.43453 -8.97101
494 1 9.35109 12.7892 9.43453 -8.05082
495 1 12.6628 12.7892 9.43453 -8.05082
496 1 15.7343 12.583 9.43453 -8.97101
497 1 18.8708 12.5792 9.43453 -8.95152
498 1 -1.40965e-16 15.7243 9.43453 -8.94973
534 1 4.7172 20.4416 11.007 -8.94954
538 1 17.2967 20.4416 11.007 -8.94954
389 1 15.7242 18.8691 -4.94505e-06 -8.94966
383 1 6.28969 18.8691 -4.94505e-06 -8.94966
355 1 6.28961 12.5794 -0.000108298 -8.94955
361 1 15.7243 12.5794 -0.000108298 -8.94955
512 1 1.57207 11.007 11.0071 -8.94925
513 1 4.71604 11.007 11.0075 -8.9433
514 1 7.87013 11.007 11.004 -8.93405
515 1 11.007 11.007 11.3391 -7.49027
516 1 14.1438 11.007 11.004 -8.93405
517 1 17.2979 11.007 11.0075 -8.9433
518 1 20.4418 11.007 11.0071 -8.94925
519 1 1.5719 14.1519 11.007 -8.95071
520 1 4.71236 14.1532 11.008 -8.95531
521 1 7.83103 14.1796 11.0319 -8.86184
522 1 11.007 14.1583 11.0293 -8.88441
523 1 14.1829 14.1796 11.0319 -8.86184
524 1 17.3015 14.1532 11.008 -8.95531
525 1 20.442 14.1519 11.007 -8.95071
686 1 20.4415 20.4415 20.4415 -8.94962
685 1 18.8691 18.8691 18.8691 -8.94958
528 1 7.86099 17.3009 11.0076 -8.95583
529 1 11.007 17.2991 11.0076 -8.94917
530 1 14.1529 17.3009 11.0076 -8.95583
684 1 17.2966 20.4415 20.4415 -8.94965
683 1 15.7242 18.8691 18.8691 -8.94966
533 1 1.57242 20.4415 11.007 -8.94965
391 1 18.8691 18.8691 22.0139 -8.94958
535 1 7.86202 20.442 11.007 -8.95055
536 1 11.007 20.4419 11.0071 -8.94974
537 1 14.1519 20.442 11.007 -8.95055
381 1 3.14483 18.8691 22.0139 -8.94958
539 1 20.4415 20.4415 11.007 -8.94965
540 1 1.57227 11.007 14.1519 -8.94964
541 1 4.71616 11.007 14.1527 -8.94782
542 1 7.85981 11.007 14.1543 -8.94531
543 1 11.007 11.007 14.1593 -9.01933
544 1 14.1541 11.007 14.1543 -8.94531
545 1 17.2977 11.007 14.1527 -8.94782
546 1 20.4416 11.007 14.1519 -8.94964
547 1 -3.06349e-16 12.5794 12.5794 -8.94981
548 1 1.5723 14.1518 14.1519 -8.94971
549 1 3.14398 12.5793 12.5797 -8.95024
550 1 4.7163 14.152 14.1523 -8.95103
551 1 6.2844 12.5783 12.5807 -8.95667
552 1 7.85564 14.1582 14.1608 -8.94169
553 1 9.40136 12.6125 12.6024 -8.84489
554 1 11.007 14.1542 14.157 -8.95245
555 1 12.6125 12.6125 12.6024 -8.84489
556 1 14.1583 14.1582 14.1608 -8.94169
557 1 15.7295 12.5783 12.5807 -8.95667
558 1 17.2976 14.152 14.1523 -8.95103
559 1 18.8699 12.5793 12.5797 -8.95024
560 1 20.4416 14.1518 14.1519 -8.94971
561 1 6.95061e-16 15.7243 12.5794 -8.9499
562 1 1.57231 17.2967 14.1519 -8.94963
563 1 3.14396 15.7246 12.5798 -8.95011
564 1 4.71645 17.2974 14.1526 -8.94723
565 1 6.28397 15.7298 12.5848 -8.93511
566 1 7.86175 17.2978 14.1525 -8.95002
567 1 9.43344 15.7311 12.5823 -8.95387
568 1 11.007 17.2977 14.1526 -8.94814
569 1 12.5805 15.7311 12.5823 -8.95387
570 1 14.1522 17.2978 14.1525 -8.95002
571 1 15.7299 15.7298 12.5848 -8.93511
572 1 17.2975 17.2974 14.1526 -8.94723
573 1 18.8699 15.7246 12.5798 -8.95011
574 1 20.4416 17.2967 14.1519 -8.94963
575 1 1.52681e-15 18.8691 12.5794 -8.94962
576 1 1.57242 20.4415 14.1518 -8.94966
577 1 3.14479 18.8691 12.5794 -8.94971
578 1 4.71719 20.4416 14.1519 -8.94966
579 1 6.28931 18.8699 12.5797 -8.95033
580 1 7.86208 20.4416 14.1519 -8.9497
581 1 9.43453 18.8701 12.5797 -8.95046
582 1 11.007 20.4416 14.1519 -8.94957
583 1 12.5794 18.8701 12.5797 -8.95046
584 1 14.1518 20.4416 14.1519 -8.9497
585 1 15.7246 18.8699 12.5797 -8.95033
586 1 17.2967 20.4416 14.1519 -8.94966
587 1 18.8691 18.8691 12.5794 -8.94971
588 1 20.4415 20.4415 14.1518 -8.94966
589 1 1.57241 11.007 17.2966 -8.94965
590 1 4.71715 11.007 17.2968 -8.94966
591 1 7.86174 11.007 17.2973 -8.94906
592 1 11.007 11.007 17.2982 -8.95021
593 1 14.1522 11.007 17.2973 -8.94906
594 1 17.2967 11.007 17.2968 -8.94966
595 1 20.4415 11.007 17.2966 -8.94965
596 1 -7.09917e-16 12.5794 15.7242 -8.94962
597 1 1.57241 14.1518 17.2966 -8.94961
598 1 3.1447 12.5794 15.7243 -8.94944
599 1 4.7172 14.1518 17.2967 -8.94968
600 1 6.28913 12.5793 15.7249 -8.94902
601 1 7.86178 14.1521 17.2978 -8.95131
602 1 9.43355 12.5801 15.7282 -8.95368
603 1 11.007 14.1521 17.2975 -8.94989
604 1 12.5803 12.5801 15.7282 -8.95368
605 1 14.1521 14.1521 17.2978 -8.95131
606 1 15.7248 12.5793 15.7249 -8.94902
607 1 17.2967 14.1518 17.2967 -8.94968
608 1 18.8692 12.5794 15.7243 -8.94944
609 1 20.4415 14.1518 17.2966 -8.94961
610 1 -5.53061e-18 15.7242 15.7242 -8.94966
611 1 1.57241 17.2966 17.2966 -8.94966
612 1 3.14471 15.7243 15.7243 -8.94986
613 1 4.71711 17.2968 17.2968 -8.94927
614 1 6.28856 15.7253 15.7258 -8.94774
615 1 7.86211 17.2967 17.2967 -8.94965
616 1 9.43452 15.7249 15.7251 -8.94898
617 1 11.007 17.2967 17.2968 -8.94961
618 1 12.5794 15.7249 15.7251 -8.94898
619 1 14.1518 17.2967 17.2967 -8.94965
620 1 15.7253 15.7253 15.7258 -8.94774
621 1 17.2968 17.2968 17.2968 -8.94927
622 1 18.8692 15.7243 15.7243 -8.94986
623 1 20.4415 17.2966 17.2966 -8.94966
624 1 1.0586e-15 18.8691 15.7242 -8.94961
625 1 1.57241 20.4415 17.2966 -8.9496
626 1 3.14476 18.8691 15.7243 -8.94931
627 1 4.71726 20.4415 17.2966 -8.94966
628 1 6.28962 18.8692 15.7243 -8.94976
629 1 7.86211 20.4415 17.2966 -8.94963
630 1 9.43451 18.8692 15.7243 -8.94954
631 1 11.007 20.4415 17.2966 -8.94965
632 1 12.5794 18.8692 15.7243 -8.94954
633 1 14.1518 20.4415 17.2966 -8.94963
634 1 15.7243 18.8692 15.7243 -8.94976
635 1 17.2966 20.4415 17.2966 -8.94966
636 1 18.8691 18.8691 15.7243 -8.94931
637 1 20.4415 20.4415 17.2966 -8.9496
638 1 1.57242 11.007 20.4415 -8.94964
639 1 4.71725 11.007 20.4415 -8.94965
640 1 7.86204 11.007 20.4415 -8.94974
641 1 11.007 11.007 20.4415 -8.94997
642 1 14.1519 11.007 20.4415 -8.94974
643 1 17.2967 11.007 20.4415 -8.94965
644 1 20.4415 11.007 20.4415 -8.94964
645 1 -2.45287e-16 12.5794 18.8691 -8.94964
646 1 1.57242 14.1518 20.4415 -8.94963
647 1 3.14483 12.5794 18.8691 -8.94964
648 1 4.71725 14.1518 20.4415 -8.94961
649 1 6.28961 12.5794 18.8692 -8.94955
650 1 7.86206 14.1518 20.4415 -8.95007
651 1 9.43447 12.5794 18.8695 -8.95037
652 1 11.007 14.1519 20.4415 -8.94985
653 1 12.5794 12.5794 18.8695 -8.95037
654 1 14.1518 14.1518 20.4415 -8.95007
655 1 15.7243 12.5794 18.8692 -8.94955
656 1 17.2966 14.1518 20.4415 -8.94961
657 1 18.8691 12.5794 18.8691 -8.94964
658 1 20.4415 14.1518 20.4415 -8.94963
659 1 -5.31917e-16 15.7242 18.8691 -8.94963
660 1 1.57242 17.2966 20.4415 -8.94965
661 1 3.14484 15.7242 18.8691 -8.94967
662 1 4.71724 17.2967 20.4415 -8.94964
663 1 6.2896 15.7243 18.8692 -8.94984
664 1 7.86211 17.2967 20.4415 -8.94961
665 1 9.43452 15.7243 18.8692 -8.94958
666 1 11.007 17.2967 20.4415 -8.94964
667 1 12.5794 15.7243 18.8692 -8.94958
668 1 14.1518 17.2967 20.4415 -8.94961
669 1 15.7243 15.7243 18.8692 -8.94984
670 1 17.2967 17.2967 20.4415 -8.94964
671 1 18.8691 15.7242 18.8691 -8.94967
672 1 20.4415 17.2966 20.4415 -8.94965
673 1 5.33309e-16 18.8691 18.8691 -8.94964
674 1 1.57242 20.4415 20.4415 -8.94962
675 1 3.14483 18.8691 18.8691 -8.94958
676 1 4.71727 20.4415 20.4415 -8.94965
677 1 6.28969 18.8691 18.8691 -8.94966
678 1 7.86211 20.4415 20.4415 -8.94964
679 1 9.43453 18.8691 18.8691 -8.94964
680 1 11.007 20.4415 20.4415 -8.94964
681 1 12.5794 18.8691 18.8691 -8.94964
682 1 14.1518 20.4415 20.4415 -8.94964
379 1 4.46959e-16 18.8691 22.0139 -8.94964
357 1 9.43447 12.5794 22.0134 -8.95037
359 1 12.5794 12.5794 22.0134 -8.95037
377 1 18.8691 15.7242 22.0139 -8.94967
365 1 -3.49638e-16 15.7242 22.0139 -8.94963
367 1 3.14484 15.7242 22.0139 -8.94967
369 1 6.2896 15.7243 22.0137 -8.94984
375 1 15.7243 15.7243 22.0137 -8.94984
351 1 -1.21156e-16 12.5794 22.0139 -8.94964
353 1 3.14483 12.5794 22.0139 -8.94964
363 1 18.8691 12.5794 22.0139 -8.94964
385 1 9.43453 18.8691 22.0139 -8.94964
387 1 12.5794 18.8691 22.0139 -8.94964
