ITEM: TIMESTEP
41
ITEM: NUMBER OF ATOMS
688
ITEM: BOX BOUNDS pp pp pp
0.0000000000000000e+00 2.2013900999999997e+01
0.0000000000000000e+00 2.2013900999999997e+01
0.0000000000000000e+00 2.2013900999999997e+01
ITEM: ATOMS id type x y z c_pot
189 1 20.4415 4.71726 11.007 -8.94963
2 1 1.57242 1.57242 1.57242 -8.94963
175 1 18.8691 9.43453 9.43453 -8.95018
4 1 4.71726 1.57242 1.57242 -8.94963
174 1 15.7265 9.4342 9.43453 -8.96073
6 1 7.86211 1.57242 1.57242 -8.94963
7 1 9.43453 3.72833e-16 -1.21387e-10 -8.94963
8 1 11.007 1.57242 1.57242 -8.94963
9 1 12.5794 3.60013e-16 -1.21387e-10 -8.94963
10 1 14.1518 1.57242 1.57242 -8.94963
173 1 12.6345 9.32216 9.43453 -7.96405
12 1 17.2966 1.57242 1.57242 -8.94963
172 1 9.37936 9.32216 9.43453 -7.96405
14 1 20.4415 1.57242 1.57242 -8.94963
171 1 6.28741 9.4342 9.43453 -8.96073
16 1 1.57242 4.71726 1.57242 -8.94963
170 1 3.14478 9.43453 9.43453 -8.95018
18 1 4.71726 4.71726 1.57242 -8.94963
169 1 6.09345e-17 9.43453 9.43453 -8.94966
20 1 7.86211 4.71726 1.57242 -8.94964
188 1 17.2966 4.71727 11.0069 -8.94976
22 1 11.007 4.71726 1.57242 -8.94963
184 1 4.71727 4.71727 11.0069 -8.94976
24 1 14.1518 4.71726 1.57242 -8.94964
168 1 18.8691 6.28969 9.43453 -8.94962
26 1 17.2966 4.71726 1.57242 -8.94963
167 1 15.7242 6.28971 9.43453 -8.95158
28 1 20.4415 4.71726 1.57242 -8.94963
166 1 12.5794 6.28586 9.43453 -8.97055
30 1 1.57242 7.86211 1.57242 -8.94963
165 1 9.43452 6.28586 9.43453 -8.97055
32 1 4.71726 7.86211 1.57242 -8.94964
164 1 6.28971 6.28971 9.43453 -8.95158
34 1 7.8621 7.8621 1.57241 -8.94965
35 1 9.43453 6.28969 3.12101e-07 -8.94963
36 1 11.007 7.86211 1.57242 -8.94963
37 1 12.5794 6.28969 3.12101e-07 -8.94963
38 1 14.1518 7.8621 1.57241 -8.94965
163 1 3.14484 6.28969 9.43453 -8.94962
40 1 17.2966 7.86211 1.57242 -8.94964
162 1 3.59293e-16 6.28969 9.43453 -8.94963
42 1 20.4415 7.86211 1.57242 -8.94963
183 1 1.57242 4.71726 11.007 -8.94963
157 1 6.28969 3.14484 9.43453 -8.94963
161 1 18.8691 3.14484 9.43453 -8.94963
160 1 15.7242 3.14484 9.43453 -8.94963
159 1 12.5794 3.14473 9.43453 -8.95066
158 1 9.43453 3.14473 9.43453 -8.95066
156 1 3.14484 3.14484 9.43453 -8.94963
50 1 1.4564e-16 1.18669e-16 3.14484 -8.94963
51 1 1.57242 1.57242 4.71726 -8.94963
52 1 3.14484 1.35939e-16 3.14484 -8.94963
53 1 4.71726 1.57242 4.71726 -8.94963
54 1 6.28969 5.77468e-16 3.14484 -8.94963
55 1 7.86211 1.57242 4.71726 -8.94963
56 1 9.43453 6.33762e-16 3.14484 -8.94963
57 1 11.007 1.57242 4.71726 -8.94964
58 1 12.5794 6.30038e-16 3.14484 -8.94963
59 1 14.1518 1.57242 4.71726 -8.94963
60 1 15.7242 6.30176e-16 3.14484 -8.94963
61 1 17.2966 1.57242 4.71726 -8.94963
62 1 18.8691 1.2243e-16 3.14484 -8.94963
63 1 20.4415 1.57242 4.71726 -8.94963
64 1 -9.63581e-17 3.14484 3.14484 -8.94963
65 1 1.57242 4.71726 4.71726 -8.94963
66 1 3.14484 3.14484 3.14484 -8.94963
67 1 4.71726 4.71726 4.71726 -8.94957
68 1 6.28969 3.14484 3.14484 -8.94964
69 1 7.86211 4.71727 4.71727 -8.94977
70 1 9.43453 3.14484 3.14484 -8.94963
71 1 11.007 4.71727 4.71726 -8.94969
72 1 12.5794 3.14484 3.14484 -8.94963
73 1 14.1518 4.71727 4.71727 -8.94977
74 1 15.7242 3.14484 3.14484 -8.94964
75 1 17.2966 4.71726 4.71726 -8.94957
76 1 18.8691 3.14484 3.14484 -8.94963
77 1 20.4415 4.71726 4.71726 -8.94963
78 1 -1.06556e-16 6.28969 3.14484 -8.94963
79 1 1.57242 7.86211 4.71726 -8.94963
80 1 3.14484 6.28969 3.14484 -8.94964
81 1 4.71726 7.8621 4.71726 -8.9497
82 1 6.28968 6.28968 3.14483 -8.94957
83 1 7.86192 7.86192 4.71699 -8.94847
84 1 9.43453 6.28969 3.14485 -8.94974
85 1 11.007 7.86213 4.71721 -8.95253
86 1 12.5794 6.28969 3.14485 -8.94974
87 1 14.152 7.86192 4.71699 -8.94847
88 1 15.7242 6.28968 3.14483 -8.94957
89 1 17.2966 7.8621 4.71726 -8.9497
90 1 18.8691 6.28969 3.14484 -8.94964
91 1 20.4415 7.86211 4.71726 -8.94963
92 1 2.6352e-16 9.43453 3.14484 -8.94963
93 1 3.14484 9.43453 3.14484 -8.94964
94 1 6.28969 9.43453 3.14484 -8.94977
95 1 9.43444 9.43444 3.14464 -8.95003
96 1 12.5795 9.43444 3.14464 -8.95003
97 1 15.7242 9.43453 3.14484 -8.94977
98 1 18.8691 9.43453 3.14484 -8.94964
99 1 5.27566e-16 6.30659e-16 6.28969 -8.94963
100 1 1.57242 1.57242 7.86211 -8.94963
101 1 3.14484 1.93158e-16 6.28969 -8.94963
102 1 4.71726 1.57242 7.86211 -8.94963
103 1 6.28969 6.3977e-16 6.28969 -8.94963
104 1 7.86211 1.57242 7.86211 -8.94966
105 1 9.43453 3.06985e-17 6.28969 -8.94963
106 1 11.007 1.57242 7.8621 -8.94964
107 1 12.5794 7.25689e-18 6.28969 -8.94963
108 1 14.1518 1.57242 7.86211 -8.94966
109 1 15.7242 6.96131e-16 6.28969 -8.94963
110 1 17.2966 1.57242 7.86211 -8.94963
111 1 18.8691 3.58548e-16 6.28969 -8.94963
112 1 20.4415 1.57242 7.86211 -8.94963
113 1 3.60817e-16 3.14484 6.28969 -8.94963
114 1 1.57242 4.71726 7.86211 -8.94963
115 1 3.14484 3.14484 6.28969 -8.94964
116 1 4.71727 4.71727 7.86211 -8.94976
117 1 6.28968 3.14484 6.28968 -8.94962
118 1 7.86204 4.7171 7.86204 -8.94997
119 1 9.43453 3.14484 6.28969 -8.94965
120 1 11.007 4.71709 7.86198 -8.94871
121 1 12.5794 3.14484 6.28969 -8.94965
122 1 14.1519 4.7171 7.86204 -8.94997
123 1 15.7242 3.14484 6.28968 -8.94962
124 1 17.2966 4.71727 7.86211 -8.94976
125 1 18.8691 3.14484 6.28969 -8.94964
126 1 20.4415 4.71726 7.86211 -8.94963
127 1 9.88671e-17 6.28969 6.28969 -8.94963
128 1 1.57242 7.86211 7.86211 -8.94966
129 1 3.14484 6.28968 6.28968 -8.94964
130 1 4.71713 7.86207 7.86207 -8.95026
131 1 6.28954 6.28954 6.28954 -8.94797
132 1 7.85827 7.85848 7.85831 -8.9088
133 1 9.43451 6.28956 6.28969 -8.95163
134 1 11.007 7.86058 7.85942 -8.92698
135 1 12.5794 6.28956 6.28969 -8.95163
136 1 14.1556 7.85848 7.85831 -8.9088
137 1 15.7244 6.28954 6.28954 -8.94797
138 1 17.2968 7.86207 7.86207 -8.95026
139 1 18.8691 6.28968 6.28968 -8.94964
140 1 20.4415 7.86211 7.86211 -8.94966
141 1 2.25365e-16 9.43453 6.28969 -8.94964
142 1 3.14483 9.43453 6.28968 -8.94967
143 1 6.28943 9.43441 6.28955 -8.94984
144 1 9.42966 9.4296 6.28569 -8.89856
145 1 12.5842 9.4296 6.28569 -8.89856
146 1 15.7245 9.43441 6.28955 -8.94984
147 1 18.8691 9.43453 6.28968 -8.94967
148 1 8.80846e-16 4.61805e-17 9.43453 -8.94963
149 1 3.14484 1.64733e-16 9.43453 -8.94963
150 1 6.28969 1.0084e-16 9.43453 -8.94963
151 1 9.43453 -6.16108e-17 9.43453 -8.94969
152 1 12.5794 -1.61597e-16 9.43453 -8.94969
153 1 15.7242 1.58048e-16 9.43453 -8.94963
154 1 18.8691 1.45405e-16 9.43453 -8.94963
155 1 3.80926e-16 3.14484 9.43453 -8.94963
177 1 4.71726 1.57242 11.007 -8.94963
48 1 15.7242 9.43453 1.81805e-07 -8.94963
181 1 17.2966 1.57242 11.007 -8.94963
19 1 6.28969 3.14484 1.79457e-08 -8.94963
45 1 6.28969 9.43453 1.81805e-07 -8.94963
25 1 15.7242 3.14484 1.79457e-08 -8.94963
176 1 1.57242 1.57242 11.007 -8.94963
47 1 12.5794 9.43453 22.0139 -8.94966
178 1 7.86211 1.57242 11.007 -8.94966
179 1 11.007 1.57242 11.007 -8.94964
180 1 14.1518 1.57242 11.007 -8.94966
46 1 9.43453 9.43453 22.0139 -8.94966
182 1 20.4415 1.57242 11.007 -8.94963
343 1 18.8691 9.43453 18.8691 -8.94963
342 1 15.7242 9.43453 18.8691 -8.94963
185 1 7.86204 4.7171 11.007 -8.94997
186 1 11.007 4.71709 11.0071 -8.94871
187 1 14.1519 4.7171 11.007 -8.94997
341 1 12.5794 9.43453 18.8691 -8.94966
340 1 9.43453 9.43453 18.8691 -8.94966
190 1 1.57242 7.86211 11.007 -8.94966
191 1 4.71713 7.86207 11.007 -8.95026
192 1 7.85827 7.85848 11.0107 -8.9088
193 1 11.007 7.86058 11.0096 -8.92698
194 1 14.1556 7.85848 11.0107 -8.9088
195 1 17.2968 7.86207 11.007 -8.95026
196 1 20.4415 7.86211 11.007 -8.94966
197 1 4.8092e-16 5.36914e-16 12.5794 -8.94963
198 1 1.57242 1.57242 14.1518 -8.94963
199 1 3.14484 2.25545e-16 12.5794 -8.94963
200 1 4.71726 1.57242 14.1518 -8.94963
201 1 6.28969 6.13393e-16 12.5794 -8.94963
202 1 7.86211 1.57242 14.1518 -8.94963
203 1 9.43453 -8.45072e-18 12.5794 -8.94963
204 1 11.007 1.57242 14.1518 -8.94964
205 1 12.5794 -2.53915e-18 12.5794 -8.94963
206 1 14.1518 1.57242 14.1518 -8.94963
207 1 15.7242 6.30164e-16 12.5794 -8.94963
208 1 17.2966 1.57242 14.1518 -8.94963
209 1 18.8691 4.95234e-16 12.5794 -8.94963
210 1 20.4415 1.57242 14.1518 -8.94963
211 1 3.73221e-16 3.14484 12.5794 -8.94963
212 1 1.57242 4.71726 14.1518 -8.94963
213 1 3.14484 3.14484 12.5794 -8.94964
214 1 4.71726 4.71726 14.1518 -8.94957
215 1 6.28968 3.14484 12.5794 -8.94962
216 1 7.86211 4.71727 14.1518 -8.94977
217 1 9.43453 3.14484 12.5794 -8.94965
218 1 11.007 4.71727 14.1518 -8.94969
219 1 12.5794 3.14484 12.5794 -8.94965
220 1 14.1518 4.71727 14.1518 -8.94977
221 1 15.7242 3.14484 12.5794 -8.94962
222 1 17.2966 4.71726 14.1518 -8.94957
223 1 18.8691 3.14484 12.5794 -8.94964
224 1 20.4415 4.71726 14.1518 -8.94963
225 1 2.02989e-16 6.28969 12.5794 -8.94963
226 1 1.57242 7.86211 14.1518 -8.94963
227 1 3.14484 6.28968 12.5794 -8.94964
228 1 4.71726 7.8621 14.1518 -8.9497
229 1 6.28954 6.28954 12.5795 -8.94797
230 1 7.86192 7.86192 14.1521 -8.94847
231 1 9.43451 6.28956 12.5794 -8.95163
232 1 11.007 7.86213 14.1519 -8.95253
233 1 12.5794 6.28956 12.5794 -8.95163
234 1 14.152 7.86192 14.1521 -8.94847
235 1 15.7244 6.28954 12.5795 -8.94797
236 1 17.2966 7.8621 14.1518 -8.9497
237 1 18.8691 6.28968 12.5794 -8.94964
238 1 20.4415 7.86211 14.1518 -8.94963
239 1 1.10703e-16 9.43453 12.5794 -8.94964
240 1 3.14483 9.43453 12.5794 -8.94967
241 1 6.28943 9.43441 12.5795 -8.94984
242 1 9.42966 9.4296 12.5834 -8.89856
243 1 12.5842 9.4296 12.5834 -8.89856
244 1 15.7245 9.43441 12.5795 -8.94984
245 1 18.8691 9.43453 12.5794 -8.94967
246 1 1.70476e-16 1.11144e-16 15.7242 -8.94963
247 1 1.57242 1.57242 17.2966 -8.94963
248 1 3.14484 1.55943e-16 15.7242 -8.94963
249 1 4.71726 1.57242 17.2966 -8.94963
250 1 6.28969 6.03865e-16 15.7242 -8.94963
251 1 7.86211 1.57242 17.2966 -8.94963
252 1 9.43453 6.262e-16 15.7242 -8.94963
253 1 11.007 1.57242 17.2966 -8.94963
254 1 12.5794 6.63501e-16 15.7242 -8.94963
255 1 14.1518 1.57242 17.2966 -8.94963
256 1 15.7242 5.21029e-16 15.7242 -8.94963
257 1 17.2966 1.57242 17.2966 -8.94963
258 1 18.8691 2.22087e-16 15.7242 -8.94963
259 1 20.4415 1.57242 17.2966 -8.94963
260 1 -8.26451e-17 3.14484 15.7242 -8.94963
261 1 1.57242 4.71726 17.2966 -8.94963
262 1 3.14484 3.14484 15.7242 -8.94963
263 1 4.71726 4.71726 17.2966 -8.94963
264 1 6.28969 3.14484 15.7242 -8.94964
265 1 7.86211 4.71726 17.2966 -8.94964
266 1 9.43453 3.14484 15.7242 -8.94963
267 1 11.007 4.71726 17.2966 -8.94963
268 1 12.5794 3.14484 15.7242 -8.94963
269 1 14.1518 4.71726 17.2966 -8.94964
270 1 15.7242 3.14484 15.7242 -8.94964
271 1 17.2966 4.71726 17.2966 -8.94963
272 1 18.8691 3.14484 15.7242 -8.94963
273 1 20.4415 4.71726 17.2966 -8.94963
274 1 -1.88913e-16 6.28969 15.7242 -8.94963
275 1 1.57242 7.86211 17.2966 -8.94963
276 1 3.14484 6.28969 15.7242 -8.94964
277 1 4.71726 7.86211 17.2966 -8.94964
278 1 6.28968 6.28968 15.7242 -8.94957
279 1 7.8621 7.8621 17.2966 -8.94965
280 1 9.43453 6.28969 15.7242 -8.94974
281 1 11.007 7.86211 17.2966 -8.94963
282 1 12.5794 6.28969 15.7242 -8.94974
283 1 14.1518 7.8621 17.2966 -8.94965
284 1 15.7242 6.28968 15.7242 -8.94957
285 1 17.2966 7.86211 17.2966 -8.94964
286 1 18.8691 6.28969 15.7242 -8.94964
287 1 20.4415 7.86211 17.2966 -8.94963
288 1 2.27236e-16 9.43453 15.7242 -8.94963
289 1 3.14484 9.43453 15.7242 -8.94964
290 1 6.28969 9.43453 15.7242 -8.94977
291 1 9.43444 9.43444 15.7244 -8.95003
292 1 12.5795 9.43444 15.7244 -8.95003
293 1 15.7242 9.43453 15.7242 -8.94977
294 1 18.8691 9.43453 15.7242 -8.94964
295 1 2.98875e-16 -1.56066e-16 18.8691 -8.94963
296 1 1.57242 1.57242 20.4415 -8.94963
297 1 3.14484 3.4098e-16 18.8691 -8.94963
298 1 4.71726 1.57242 20.4415 -8.94963
299 1 6.28969 9.73735e-16 18.8691 -8.94963
300 1 7.86211 1.57242 20.4415 -8.94963
301 1 9.43453 3.66117e-16 18.8691 -8.94963
302 1 11.007 1.57242 20.4415 -8.94963
303 1 12.5794 3.55249e-16 18.8691 -8.94963
304 1 14.1518 1.57242 20.4415 -8.94963
305 1 15.7242 9.61505e-16 18.8691 -8.94963
306 1 17.2966 1.57242 20.4415 -8.94963
307 1 18.8691 4.44197e-16 18.8691 -8.94963
308 1 20.4415 1.57242 20.4415 -8.94963
309 1 2.91064e-16 3.14484 18.8691 -8.94963
310 1 1.57242 4.71726 20.4415 -8.94963
311 1 3.14484 3.14484 18.8691 -8.94963
312 1 4.71726 4.71726 20.4415 -8.94963
313 1 6.28969 3.14484 18.8691 -8.94963
314 1 7.86211 4.71726 20.4415 -8.94963
315 1 9.43453 3.14484 18.8691 -8.94963
316 1 11.007 4.71726 20.4415 -8.94963
317 1 12.5794 3.14484 18.8691 -8.94963
318 1 14.1518 4.71726 20.4415 -8.94963
319 1 15.7242 3.14484 18.8691 -8.94963
320 1 17.2966 4.71726 20.4415 -8.94963
321 1 18.8691 3.14484 18.8691 -8.94963
322 1 20.4415 4.71726 20.4415 -8.94963
323 1 -5.47139e-16 6.28969 18.8691 -8.94963
324 1 1.57242 7.86211 20.4415 -8.94963
325 1 3.14484 6.28969 18.8691 -8.94963
326 1 4.71726 7.86211 20.4415 -8.94963
327 1 6.28969 6.28969 18.8691 -8.94963
328 1 7.86211 7.86211 20.4415 -8.94963
329 1 9.43453 6.28969 18.8691 -8.94963
330 1 11.007 7.86211 20.4415 -8.94963
331 1 12.5794 6.28969 18.8691 -8.94963
332 1 14.1518 7.86211 20.4415 -8.94963
333 1 15.7242 6.28969 18.8691 -8.94963
334 1 17.2966 7.86211 20.4415 -8.94963
335 1 18.8691 6.28969 18.8691 -8.94963
336 1 20.4415 7.86211 20.4415 -8.94963
337 1 5.38676e-17 9.43453 18.8691 -8.94963
338 1 3.14484 9.43453 18.8691 -8.94963
339 1 6.28969 9.43453 18.8691 -8.94963
3 1 3.14484 3.11773e-16 22.0139 -8.94963
5 1 6.28969 8.48817e-16 22.0139 -8.94963
11 1 15.7242 8.99752e-16 22.0139 -8.94963
13 1 18.8691 4.37011e-16 22.0139 -8.94963
15 1 2.91413e-16 3.14484 22.0139 -8.94963
17 1 3.14484 3.14484 22.0139 -8.94963
41 1 18.8691 6.28969 22.0139 -8.94963
39 1 15.7242 6.28969 22.0139 -8.94963
27 1 18.8691 3.14484 22.0139 -8.94963
29 1 -4.75831e-16 6.28969 22.0139 -8.94963
31 1 3.14484 6.28969 22.0139 -8.94963
33 1 6.28969 6.28969 22.0139 -8.94963
1 1 2.73787e-16 -1.61173e-16 22.0139 -8.94963
21 1 9.43453 3.14484 22.0139 -8.94963
23 1 12.5794 3.14484 22.0139 -8.94963
43 1 5.20504e-17 9.43453 22.0139 -8.94963
44 1 3.14484 9.43453 22.0139 -8.94963
49 1 18.8691 9.43453 22.0139 -8.94963
344 1 1.57242 11.007 1.57242 -8.94963
345 1 4.71726 11.007 1.57242 -8.94963
346 1 7.86211 11.007 1.57242 -8.94964
347 1 11.007 11.007 1.57227 -8.95055
348 1 14.1518 11.007 1.57242 -8.94964
349 1 17.2966 11.007 1.57242 -8.94963
350 1 20.4415 11.007 1.57242 -8.94963
532 1 20.4415 17.2966 11.007 -8.94963
352 1 1.57242 14.1518 1.57242 -8.94963
531 1 17.2966 17.2966 11.0069 -8.94976
354 1 4.71726 14.1518 1.57242 -8.94964
688 3 10.2211 11.007 9.43453 3.18924
356 1 7.8621 14.1518 1.57241 -8.94965
687 3 11.7928 11.007 9.43453 3.18924
358 1 11.007 14.1518 1.57242 -8.94963
511 1 18.8691 18.8691 9.43453 -8.94963
360 1 14.1518 14.1518 1.57241 -8.94965
510 1 15.7242 18.8691 9.43453 -8.94963
362 1 17.2966 14.1518 1.57242 -8.94964
527 1 4.71727 17.2966 11.0069 -8.94976
364 1 20.4415 14.1518 1.57242 -8.94963
509 1 12.5794 18.8692 9.43453 -8.95066
366 1 1.57242 17.2966 1.57242 -8.94963
508 1 9.43453 18.8692 9.43453 -8.95066
368 1 4.71726 17.2966 1.57242 -8.94963
507 1 6.28969 18.8691 9.43453 -8.94963
370 1 7.86211 17.2966 1.57242 -8.94964
371 1 9.43453 15.7242 3.12101e-07 -8.94963
372 1 11.007 17.2966 1.57242 -8.94963
373 1 12.5794 15.7242 3.12101e-07 -8.94963
374 1 14.1518 17.2966 1.57242 -8.94964
506 1 3.14484 18.8691 9.43453 -8.94963
376 1 17.2966 17.2966 1.57242 -8.94963
505 1 5.02898e-16 18.8691 9.43453 -8.94963
378 1 20.4415 17.2966 1.57242 -8.94963
504 1 18.8691 15.7242 9.43453 -8.94962
380 1 1.57242 20.4415 1.57242 -8.94963
503 1 15.7242 15.7242 9.43453 -8.95158
382 1 4.71726 20.4415 1.57242 -8.94963
502 1 12.5794 15.728 9.43453 -8.97055
384 1 7.86211 20.4415 1.57242 -8.94963
526 1 1.57242 17.2966 11.007 -8.94963
386 1 11.007 20.4415 1.57242 -8.94963
499 1 3.14484 15.7242 9.43453 -8.94962
388 1 14.1518 20.4415 1.57242 -8.94963
501 1 9.43452 15.728 9.43453 -8.97055
390 1 17.2966 20.4415 1.57242 -8.94963
500 1 6.28971 15.7242 9.43453 -8.95158
392 1 20.4415 20.4415 1.57242 -8.94963
393 1 1.57242 11.007 4.71726 -8.94963
394 1 4.71727 11.007 4.71727 -8.94967
395 1 7.86212 11.007 4.71718 -8.95273
396 1 11.007 11.007 4.71372 -8.98332
397 1 14.1518 11.007 4.71718 -8.95273
398 1 17.2966 11.007 4.71727 -8.94967
399 1 20.4415 11.007 4.71726 -8.94963
400 1 2.82464e-16 12.5794 3.14484 -8.94963
401 1 1.57242 14.1518 4.71726 -8.94963
402 1 3.14484 12.5794 3.14484 -8.94964
403 1 4.71726 14.1518 4.71726 -8.9497
404 1 6.28969 12.5794 3.14484 -8.94977
405 1 7.86192 14.152 4.71699 -8.94847
406 1 9.43444 12.5795 3.14464 -8.95003
407 1 11.007 14.1518 4.71721 -8.95253
408 1 12.5795 12.5795 3.14464 -8.95003
409 1 14.152 14.152 4.71699 -8.94847
410 1 15.7242 12.5794 3.14484 -8.94977
411 1 17.2966 14.1518 4.71726 -8.9497
412 1 18.8691 12.5794 3.14484 -8.94964
413 1 20.4415 14.1518 4.71726 -8.94963
414 1 -1.36264e-16 15.7242 3.14484 -8.94963
415 1 1.57242 17.2966 4.71726 -8.94963
416 1 3.14484 15.7242 3.14484 -8.94964
417 1 4.71726 17.2966 4.71726 -8.94957
418 1 6.28968 15.7242 3.14483 -8.94957
419 1 7.86211 17.2966 4.71727 -8.94977
420 1 9.43453 15.7242 3.14485 -8.94974
421 1 11.007 17.2966 4.71726 -8.94969
422 1 12.5794 15.7242 3.14485 -8.94974
423 1 14.1518 17.2966 4.71727 -8.94977
424 1 15.7242 15.7242 3.14483 -8.94957
425 1 17.2966 17.2966 4.71726 -8.94957
426 1 18.8691 15.7242 3.14484 -8.94964
427 1 20.4415 17.2966 4.71726 -8.94963
428 1 -6.60935e-17 18.8691 3.14484 -8.94963
429 1 1.57242 20.4415 4.71726 -8.94963
430 1 3.14484 18.8691 3.14484 -8.94963
431 1 4.71726 20.4415 4.71726 -8.94963
432 1 6.28969 18.8691 3.14484 -8.94964
433 1 7.86211 20.4415 4.71726 -8.94963
434 1 9.43453 18.8691 3.14484 -8.94963
435 1 11.007 20.4415 4.71726 -8.94964
436 1 12.5794 18.8691 3.14484 -8.94963
437 1 14.1518 20.4415 4.71726 -8.94963
438 1 15.7242 18.8691 3.14484 -8.94964
439 1 17.2966 20.4415 4.71726 -8.94963
440 1 18.8691 18.8691 3.14484 -8.94963
441 1 20.4415 20.4415 4.71726 -8.94963
442 1 1.57241 11.007 7.86211 -8.94968
443 1 4.71704 11.007 7.86205 -8.95027
444 1 7.85728 11.007 7.85895 -8.92658
445 1 11.007 11.007 7.66582 -7.32732
446 1 14.1566 11.007 7.85895 -8.92658
447 1 17.2969 11.007 7.86205 -8.95027
448 1 20.4415 11.007 7.86211 -8.94968
449 1 2.33103e-16 12.5794 6.28969 -8.94964
450 1 1.57242 14.1518 7.86211 -8.94966
451 1 3.14483 12.5794 6.28968 -8.94967
452 1 4.71713 14.1518 7.86207 -8.95026
453 1 6.28943 12.5795 6.28955 -8.94984
454 1 7.85827 14.1554 7.85831 -8.9088
455 1 9.42966 12.5843 6.28569 -8.89856
456 1 11.007 14.1533 7.85942 -8.92698
457 1 12.5842 12.5843 6.28569 -8.89856
458 1 14.1556 14.1554 7.85831 -8.9088
459 1 15.7245 12.5795 6.28955 -8.94984
460 1 17.2968 14.1518 7.86207 -8.95026
461 1 18.8691 12.5794 6.28968 -8.94967
462 1 20.4415 14.1518 7.86211 -8.94966
463 1 1.78707e-16 15.7242 6.28969 -8.94963
464 1 1.57242 17.2966 7.86211 -8.94963
465 1 3.14484 15.7242 6.28968 -8.94964
466 1 4.71727 17.2966 7.86211 -8.94976
467 1 6.28954 15.7244 6.28954 -8.94797
468 1 7.86204 17.2968 7.86204 -8.94997
469 1 9.43451 15.7243 6.28969 -8.95163
470 1 11.007 17.2968 7.86198 -8.94871
471 1 12.5794 15.7243 6.28969 -8.95163
472 1 14.1519 17.2968 7.86204 -8.94997
473 1 15.7244 15.7244 6.28954 -8.94797
474 1 17.2966 17.2966 7.86211 -8.94976
475 1 18.8691 15.7242 6.28968 -8.94964
476 1 20.4415 17.2966 7.86211 -8.94963
477 1 3.66471e-16 18.8691 6.28969 -8.94963
478 1 1.57242 20.4415 7.86211 -8.94963
479 1 3.14484 18.8691 6.28969 -8.94964
480 1 4.71726 20.4415 7.86211 -8.94963
481 1 6.28968 18.8691 6.28968 -8.94962
482 1 7.86211 20.4415 7.86211 -8.94966
483 1 9.43453 18.8691 6.28969 -8.94965
484 1 11.007 20.4415 7.8621 -8.94964
485 1 12.5794 18.8691 6.28969 -8.94965
486 1 14.1518 20.4415 7.86211 -8.94966
487 1 15.7242 18.8691 6.28968 -8.94962
488 1 17.2966 20.4415 7.86211 -8.94963
489 1 18.8691 18.8691 6.28969 -8.94964
490 1 20.4415 20.4415 7.86211 -8.94963
491 1 4.7967e-17 12.5794 9.43453 -8.94966
492 1 3.14478 12.5794 9.43453 -8.95018
493 1 6.28741 12.5797 9.43453 -8.96073
494 1 9.37936 12.6917 9.43453 -7.96405
495 1 12.6345 12.6917 9.43453 -7.96405
496 1 15.7265 12.5797 9.43453 -8.96073
497 1 18.8691 12.5794 9.43453 -8.95018
498 1 2.16143e-16 15.7242 9.43453 -8.94963
534 1 4.71726 20.4415 11.007 -8.94963
538 1 17.2966 20.4415 11.007 -8.94963
389 1 15.7242 18.8691 1.79457e-08 -8.94963
383 1 6.28969 18.8691 1.79457e-08 -8.94963
355 1 6.28969 12.5794 1.81805e-07 -8.94963
361 1 15.7242 12.5794 1.81805e-07 -8.94963
512 1 1.57241 11.007 11.007 -8.94968
513 1 4.71704 11.007 11.007 -8.95027
514 1 7.85728 11.007 11.0101 -8.92658
515 1 11.007 11.007 11.2032 -7.32732
516 1 14.1566 11.007 11.0101 -8.92658
517 1 17.2969 11.007 11.007 -8.95027
518 1 20.4415 11.007 11.007 -8.94968
519 1 1.57242 14.1518 11.007 -8.94966
520 1 4.71713 14.1518 11.007 -8.95026
521 1 7.85827 14.1554 11.0107 -8.9088
522 1 11.007 14.1533 11.0096 -8.92698
523 1 14.1556 14.1554 11.0107 -8.9088
524 1 17.2968 14.1518 11.007 -8.95026
525 1 20.4415 14.1518 11.007 -8.94966
686 1 20.4415 20.4415 20.4415 -8.94963
685 1 18.8691 18.8691 18.8691 -8.94963
528 1 7.86204 17.2968 11.007 -8.94997
529 1 11.007 17.2968 11.0071 -8.94871
530 1 14.1519 17.2968 11.007 -8.94997
684 1 17.2966 20.4415 20.4415 -8.94963
683 1 15.7242 18.8691 18.8691 -8.94963
533 1 1.57242 20.4415 11.007 -8.94963
391 1 18.8691 18.8691 22.0139 -8.94963
535 1 7.86211 20.4415 11.007 -8.94966
536 1 11.007 20.4415 11.007 -8.94964
537 1 14.1518 20.4415 11.007 -8.94966
381 1 3.14484 18.8691 22.0139 -8.94963
539 1 20.4415 20.4415 11.007 -8.94963
540 1 1.57242 11.007 14.1518 -8.94963
541 1 4.71727 11.007 14.1518 -8.94967
542 1 7.86212 11.007 14.1519 -8.95273
543 1 11.007 11.007 14.1553 -8.98332
544 1 14.1518 11.007 14.1519 -8.95273
545 1 17.2966 11.007 14.1518 -8.94967
546 1 20.4415 11.007 14.1518 -8.94963
547 1 8.72927e-17 12.5794 12.5794 -8.94964
548 1 1.57242 14.1518 14.1518 -8.94963
549 1 3.14483 12.5794 12.5794 -8.94967
550 1 4.71726 14.1518 14.1518 -8.9497
551 1 6.28943 12.5795 12.5795 -8.94984
552 1 7.86192 14.152 14.1521 -8.94847
553 1 9.42966 12.5843 12.5834 -8.89856
554 1 11.007 14.1518 14.1519 -8.95253
555 1 12.5842 12.5843 12.5834 -8.89856
556 1 14.152 14.152 14.1521 -8.94847
557 1 15.7245 12.5795 12.5795 -8.94984
558 1 17.2966 14.1518 14.1518 -8.9497
559 1 18.8691 12.5794 12.5794 -8.94967
560 1 20.4415 14.1518 14.1518 -8.94963
561 1 2.29793e-16 15.7242 12.5794 -8.94963
562 1 1.57242 17.2966 14.1518 -8.94963
563 1 3.14484 15.7242 12.5794 -8.94964
564 1 4.71726 17.2966 14.1518 -8.94957
565 1 6.28954 15.7244 12.5795 -8.94797
566 1 7.86211 17.2966 14.1518 -8.94977
567 1 9.43451 15.7243 12.5794 -8.95163
568 1 11.007 17.2966 14.1518 -8.94969
569 1 12.5794 15.7243 12.5794 -8.95163
570 1 14.1518 17.2966 14.1518 -8.94977
571 1 15.7244 15.7244 12.5795 -8.94797
572 1 17.2966 17.2966 14.1518 -8.94957
573 1 18.8691 15.7242 12.5794 -8.94964
574 1 20.4415 17.2966 14.1518 -8.94963
575 1 3.81491e-16 18.8691 12.5794 -8.94963
576 1 1.57242 20.4415 14.1518 -8.94963
577 1 3.14484 18.8691 12.5794 -8.94964
578 1 4.71726 20.4415 14.1518 -8.94963
579 1 6.28968 18.8691 12.5794 -8.94962
580 1 7.86211 20.4415 14.1518 -8.94963
581 1 9.43453 18.8691 12.5794 -8.94965
582 1 11.007 20.4415 14.1518 -8.94964
583 1 12.5794 18.8691 12.5794 -8.94965
584 1 14.1518 20.4415 14.1518 -8.94963
585 1 15.7242 18.8691 12.5794 -8.94962
586 1 17.2966 20.4415 14.1518 -8.94963
587 1 18.8691 18.8691 12.5794 -8.94964
588 1 20.4415 20.4415 14.1518 -8.94963
589 1 1.57242 11.007 17.2966 -8.94963
590 1 4.71726 11.007 17.2966 -8.94963
591 1 7.86211 11.007 17.2966 -8.94964
592 1 11.007 11.007 17.2968 -8.95055
593 1 14.1518 11.007 17.2966 -8.94964
594 1 17.2966 11.007 17.2966 -8.94963
595 1 20.4415 11.007 17.2966 -8.94963
596 1 2.88717e-16 12.5794 15.7242 -8.94963
597 1 1.57242 14.1518 17.2966 -8.94963
598 1 3.14484 12.5794 15.7242 -8.94964
599 1 4.71726 14.1518 17.2966 -8.94964
600 1 6.28969 12.5794 15.7242 -8.94977
601 1 7.8621 14.1518 17.2966 -8.94965
602 1 9.43444 12.5795 15.7244 -8.95003
603 1 11.007 14.1518 17.2966 -8.94963
604 1 12.5795 12.5795 15.7244 -8.95003
605 1 14.1518 14.1518 17.2966 -8.94965
606 1 15.7242 12.5794 15.7242 -8.94977
607 1 17.2966 14.1518 17.2966 -8.94964
608 1 18.8691 12.5794 15.7242 -8.94964
609 1 20.4415 14.1518 17.2966 -8.94963
610 1 -1.46987e-16 15.7242 15.7242 -8.94963
611 1 1.57242 17.2966 17.2966 -8.94963
612 1 3.14484 15.7242 15.7242 -8.94964
613 1 4.71726 17.2966 17.2966 -8.94963
614 1 6.28968 15.7242 15.7242 -8.94957
615 1 7.86211 17.2966 17.2966 -8.94964
616 1 9.43453 15.7242 15.7242 -8.94974
617 1 11.007 17.2966 17.2966 -8.94963
618 1 12.5794 15.7242 15.7242 -8.94974
619 1 14.1518 17.2966 17.2966 -8.94964
620 1 15.7242 15.7242 15.7242 -8.94957
621 1 17.2966 17.2966 17.2966 -8.94963
622 1 18.8691 15.7242 15.7242 -8.94964
623 1 20.4415 17.2966 17.2966 -8.94963
624 1 -7.01229e-17 18.8691 15.7242 -8.94963
625 1 1.57242 20.4415 17.2966 -8.94963
626 1 3.14484 18.8691 15.7242 -8.94963
627 1 4.71726 20.4415 17.2966 -8.94963
628 1 6.28969 18.8691 15.7242 -8.94964
629 1 7.86211 20.4415 17.2966 -8.94963
630 1 9.43453 18.8691 15.7242 -8.94963
631 1 11.007 20.4415 17.2966 -8.94963
632 1 12.5794 18.8691 15.7242 -8.94963
633 1 14.1518 20.4415 17.2966 -8.94963
634 1 15.7242 18.8691 15.7242 -8.94964
635 1 17.2966 20.4415 17.2966 -8.94963
636 1 18.8691 18.8691 15.7242 -8.94963
637 1 20.4415 20.4415 17.2966 -8.94963
638 1 1.57242 11.007 20.4415 -8.94963
639 1 4.71726 11.007 20.4415 -8.94963
640 1 7.86211 11.007 20.4415 -8.94963
641 1 11.007 11.007 20.4415 -8.94971
642 1 14.1518 11.007 20.4415 -8.94963
643 1 17.2966 11.007 20.4415 -8.94963
644 1 20.4415 11.007 20.4415 -8.94963
645 1 4.57465e-17 12.5794 18.8691 -8.94963
646 1 1.57242 14.1518 20.4415 -8.94963
647 1 3.14484 12.5794 18.8691 -8.94963
648 1 4.71726 14.1518 20.4415 -8.94963
649 1 6.28969 12.5794 18.8691 -8.94963
650 1 7.86211 14.1518 20.4415 -8.94963
651 1 9.43453 12.5794 18.8691 -8.94966
652 1 11.007 14.1518 20.4415 -8.94963
653 1 12.5794 12.5794 18.8691 -8.94966
654 1 14.1518 14.1518 20.4415 -8.94963
655 1 15.7242 12.5794 18.8691 -8.94963
656 1 17.2966 14.1518 20.4415 -8.94963
657 1 18.8691 12.5794 18.8691 -8.94963
658 1 20.4415 14.1518 20.4415 -8.94963
659 1 -5.48292e-16 15.7242 18.8691 -8.94963
660 1 1.57242 17.2966 20.4415 -8.94963
661 1 3.14484 15.7242 18.8691 -8.94963
662 1 4.71726 17.2966 20.4415 -8.94963
663 1 6.28969 15.7242 18.8691 -8.94963
664 1 7.86211 17.2966 20.4415 -8.94963
665 1 9.43453 15.7242 18.8691 -8.94963
666 1 11.007 17.2966 20.4415 -8.94963
667 1 12.5794 15.7242 18.8691 -8.94963
668 1 14.1518 17.2966 20.4415 -8.94963
669 1 15.7242 15.7242 18.8691 -8.94963
670 1 17.2966 17.2966 20.4415 -8.94963
671 1 18.8691 15.7242 18.8691 -8.94963
672 1 20.4415 17.2966 20.4415 -8.94963
673 1 1.36677e-16 18.8691 18.8691 -8.94963
674 1 1.57242 20.4415 20.4415 -8.94963
675 1 3.14484 18.8691 18.8691 -8.94963
676 1 4.71726 20.4415 20.4415 -8.94963
677 1 6.28969 18.8691 18.8691 -8.94963
678 1 7.86211 20.4415 20.4415 -8.94963
679 1 9.43453 18.8691 18.8691 -8.94963
680 1 11.007 20.4415 20.4415 -8.94963
681 1 12.5794 18.8691 18.8691 -8.94963
682 1 14.1518 20.4415 20.4415 -8.94963
379 1 1.50176e-16 18.8691 22.0139 -8.94963
357 1 9.43453 12.5794 22.0139 -8.94966
359 1 12.5794 12.5794 22.0139 -8.94966
377 1 18.8691 15.7242 22.0139 -8.94963
365 1 -4.78364e-16 15.7242 22.0139 -8.94963
367 1 3.14484 15.7242 22.0139 -8.94963
369 1 6.28969 15.7242 22.0139 -8.94963
375 1 15.7242 15.7242 22.0139 -8.94963
351 1 6.33043e-17 12.5794 22.0139 -8.94963
353 1 3.14484 12.5794 22.0139 -8.94963
363 1 18.8691 12.5794 22.0139 -8.94963
385 1 9.43453 18.8691 22.0139 -8.94963
387 1 12.5794 18.8691 22.0139 -8.94963
