ITEM: TIMESTEP
109
ITEM: NUMBER OF ATOMS
688
ITEM: BOX BOUNDS pp pp pp
0.0000000000000000e+00 2.2013900999999997e+01
0.0000000000000000e+00 2.2013900999999997e+01
0.0000000000000000e+00 2.2013900999999997e+01
ITEM: ATOMS id type x y z c_pot
189 1 20.4434 4.71519 11.0077 -8.94925
2 1 1.57155 1.57172 1.57112 -8.94899
175 1 18.8707 9.43461 9.43453 -8.94981
4 1 4.71568 1.57128 1.57079 -8.94942
174 1 15.7286 9.42665 9.43453 -8.9703
6 1 7.8612 1.57127 1.57084 -8.94935
7 1 9.43418 -1.23898e-13 -0.000778203 -8.94938
8 1 11.007 1.57131 1.57082 -8.94938
9 1 12.5797 -2.02778e-13 -0.000778203 -8.94938
10 1 14.1527 1.57127 1.57084 -8.94935
173 1 12.6461 9.20435 9.43453 -8.0732
12 1 17.2982 1.57128 1.57079 -8.94942
172 1 9.36775 9.20435 9.43453 -8.0732
14 1 20.4424 1.57172 1.57112 -8.94899
171 1 6.28526 9.42665 9.43453 -8.9703
16 1 1.5713 4.71634 1.57104 -8.94982
170 1 3.14315 9.43461 9.43453 -8.94981
18 1 4.714 4.71442 1.56908 -8.94849
169 1 -3.2916e-12 9.43477 9.43453 -8.94921
20 1 7.86023 4.71427 1.56913 -8.94926
188 1 17.3019 4.71205 11.0087 -8.94729
22 1 11.007 4.71437 1.56924 -8.94905
184 1 4.71199 4.71205 11.0087 -8.94729
24 1 14.1537 4.71427 1.56913 -8.94926
168 1 18.8743 6.28607 9.43453 -8.94891
26 1 17.2999 4.71442 1.56908 -8.94849
167 1 15.736 6.27778 9.43453 -8.94012
28 1 20.4426 4.71634 1.57104 -8.94982
166 1 12.5831 6.29324 9.43453 -9.00046
30 1 1.57146 7.86172 1.5713 -8.94929
165 1 9.43083 6.29324 9.43453 -9.00046
32 1 4.71476 7.86124 1.57027 -8.94934
164 1 6.2779 6.27778 9.43453 -8.94012
34 1 7.85915 7.85956 1.56673 -8.95285
35 1 9.43372 6.28771 -0.00213446 -8.94986
36 1 11.007 7.85971 1.56703 -8.95135
37 1 12.5802 6.28771 -0.00213446 -8.94986
38 1 14.1548 7.85956 1.56673 -8.95285
163 1 3.13963 6.28607 9.43453 -8.94891
40 1 17.2991 7.86124 1.57027 -8.94934
162 1 3.2132e-12 6.28816 9.43453 -8.95033
42 1 20.4424 7.86172 1.5713 -8.94929
183 1 1.57055 4.71519 11.0077 -8.94925
157 1 6.28604 3.13987 9.43453 -8.94944
161 1 18.8715 3.14245 9.43453 -8.94937
160 1 15.7279 3.13987 9.43453 -8.94944
159 1 12.58 3.14353 9.43453 -8.9456
158 1 9.43395 3.14353 9.43453 -8.9456
156 1 3.14236 3.14245 9.43453 -8.94937
50 1 2.52568e-16 -1.91335e-13 3.14368 -8.94935
51 1 1.57149 1.57158 4.71602 -8.9493
52 1 3.14342 1.075e-13 3.14332 -8.94951
53 1 4.71522 1.57064 4.71549 -8.95004
54 1 6.28834 6.7894e-13 3.14317 -8.94992
55 1 7.86094 1.57022 4.71549 -8.95051
56 1 9.43405 6.15611e-13 3.14311 -8.94946
57 1 11.007 1.57038 4.71526 -8.94956
58 1 12.5799 1.21919e-12 3.14311 -8.94946
59 1 14.153 1.57022 4.71549 -8.95051
60 1 15.7256 1.84976e-12 3.14317 -8.94992
61 1 17.2987 1.57064 4.71549 -8.95004
62 1 18.8705 5.22641e-13 3.14332 -8.94951
63 1 20.4424 1.57158 4.71602 -8.9493
64 1 -2.0514e-13 3.14367 3.14327 -8.94943
65 1 1.57049 4.71547 4.71539 -8.94993
66 1 3.14235 3.14264 3.1424 -8.94836
67 1 4.71107 4.71152 4.71196 -8.94514
68 1 6.28701 3.14136 3.14174 -8.94937
69 1 7.85746 4.70914 4.71134 -8.94877
70 1 9.43367 3.1417 3.14198 -8.94903
71 1 11.007 4.71071 4.71165 -8.94598
72 1 12.5802 3.1417 3.14198 -8.94903
73 1 14.1564 4.70914 4.71134 -8.94877
74 1 15.7269 3.14136 3.14174 -8.94937
75 1 17.3028 4.71152 4.71196 -8.94514
76 1 18.8716 3.14264 3.1424 -8.94836
77 1 20.4434 4.71547 4.71539 -8.94993
78 1 -5.37547e-13 6.2891 3.1436 -8.95005
79 1 1.57086 7.86178 4.71618 -8.95024
80 1 3.14187 6.28817 3.14254 -8.95055
81 1 4.7115 7.86018 4.71399 -8.9527
82 1 6.28263 6.2831 3.13659 -8.94645
83 1 7.84646 7.8466 4.69805 -8.94038
84 1 9.43233 6.28401 3.13773 -8.94818
85 1 11.007 7.85343 4.70096 -8.95375
86 1 12.5816 6.28401 3.13773 -8.94818
87 1 14.1674 7.8466 4.69805 -8.94038
88 1 15.7313 6.2831 3.13659 -8.94645
89 1 17.3024 7.86018 4.71399 -8.9527
90 1 18.872 6.28817 3.14254 -8.95055
91 1 20.443 7.86178 4.71618 -8.95024
92 1 -2.96224e-13 9.43434 3.14365 -8.94951
93 1 3.14244 9.43413 3.14301 -8.94885
94 1 6.28556 9.43384 3.14109 -8.9478
95 1 9.43087 9.43173 3.13549 -8.95475
96 1 12.583 9.43173 3.13549 -8.95475
97 1 15.7283 9.43384 3.14109 -8.9478
98 1 18.8715 9.43413 3.14301 -8.94885
99 1 9.86372e-16 -3.97651e-13 6.28887 -8.94933
100 1 1.57145 1.5715 7.86161 -8.94933
101 1 3.14332 6.05624e-13 6.2887 -8.94927
102 1 4.71506 1.57062 7.86141 -8.94932
103 1 6.2883 -4.3793e-12 6.28876 -8.95062
104 1 7.86112 1.57028 7.86184 -8.9513
105 1 9.43432 -7.92879e-12 6.28886 -8.95087
106 1 11.007 1.57136 7.86205 -8.94932
107 1 12.5796 -1.14512e-11 6.28886 -8.95087
108 1 14.1528 1.57028 7.86184 -8.9513
109 1 15.7256 -1.05699e-11 6.28876 -8.95062
110 1 17.2988 1.57062 7.86141 -8.94932
111 1 18.8706 1.67591e-12 6.2887 -8.94927
112 1 20.4425 1.5715 7.86161 -8.94933
113 1 -5.65196e-13 3.14345 6.28866 -8.94925
114 1 1.57055 4.71519 7.86136 -8.94925
115 1 3.1424 3.14252 6.28822 -8.94905
116 1 4.71199 4.71205 7.8604 -8.94729
117 1 6.28657 3.13985 6.28748 -8.95146
118 1 7.85799 4.70771 7.8607 -8.95848
119 1 9.43395 3.13986 6.2876 -8.95265
120 1 11.007 4.71382 7.8612 -8.95354
121 1 12.58 3.13986 6.2876 -8.95265
122 1 14.1559 4.70771 7.8607 -8.95848
123 1 15.7273 3.13985 6.28748 -8.95146
124 1 17.3019 4.71205 7.8604 -8.94729
125 1 18.8715 3.14252 6.28822 -8.94905
126 1 20.4434 4.71519 7.86136 -8.94925
127 1 3.11682e-12 6.28856 6.28867 -8.95091
128 1 1.57012 7.86138 7.86181 -8.95216
129 1 3.13945 6.28664 6.28721 -8.95112
130 1 4.7062 7.85721 7.85997 -8.95829
131 1 6.27427 6.27509 6.27701 -8.93203
132 1 7.82012 7.82383 7.83036 -8.86219
133 1 9.42787 6.27224 6.27806 -8.95108
134 1 11.007 7.84665 7.81856 -8.85977
135 1 12.586 6.27224 6.27806 -8.95108
136 1 14.1938 7.82383 7.83036 -8.86219
137 1 15.7396 6.27509 6.27701 -8.93203
138 1 17.3077 7.85721 7.85997 -8.95829
139 1 18.8744 6.28664 6.28721 -8.95112
140 1 20.4438 7.86138 7.86181 -8.95216
141 1 2.4936e-12 9.43466 6.28917 -8.94985
142 1 3.14209 9.43496 6.28897 -8.95115
143 1 6.28053 9.43528 6.2871 -8.95949
144 1 9.39317 9.39032 6.25802 -8.84105
145 1 12.6207 9.39032 6.25802 -8.84105
146 1 15.7334 9.43528 6.2871 -8.95949
147 1 18.8718 9.43496 6.28897 -8.95115
148 1 1.24596e-15 -4.71512e-13 9.43453 -8.94936
149 1 3.14327 6.04221e-13 9.43453 -8.94938
150 1 6.28799 -4.48873e-12 9.43453 -8.95037
151 1 9.43428 -1.52428e-11 9.43453 -8.94831
152 1 12.5796 -1.25887e-11 9.43453 -8.94831
153 1 15.7259 -1.0662e-11 9.43453 -8.95037
154 1 18.8706 1.88782e-12 9.43453 -8.94938
155 1 -6.75611e-13 3.14336 9.43453 -8.94937
177 1 4.71506 1.57062 11.0077 -8.94932
48 1 15.7262 9.43412 -0.00141645 -8.94913
181 1 17.2988 1.57062 11.0077 -8.94932
19 1 6.2883 3.1433 -0.00119001 -8.94946
45 1 6.28767 9.43412 -0.00141645 -8.94913
25 1 15.7256 3.1433 -0.00119001 -8.94946
176 1 1.57145 1.5715 11.0075 -8.94933
47 1 12.5803 9.43409 22.0116 -8.95083
178 1 7.86112 1.57028 11.0072 -8.9513
179 1 11.007 1.57136 11.007 -8.94932
180 1 14.1528 1.57028 11.0072 -8.9513
46 1 9.43361 9.43409 22.0116 -8.95083
182 1 20.4425 1.5715 11.0075 -8.94933
343 1 18.8705 9.4343 18.8698 -8.94937
342 1 15.7262 9.43412 18.8705 -8.94913
185 1 7.85799 4.70771 11.0084 -8.95848
186 1 11.007 4.71382 11.0079 -8.95354
187 1 14.1559 4.70771 11.0084 -8.95848
341 1 12.5803 9.43409 18.8713 -8.95083
340 1 9.43361 9.43409 18.8713 -8.95083
190 1 1.57012 7.86138 11.0072 -8.95216
191 1 4.7062 7.85721 11.0091 -8.95829
192 1 7.82012 7.82383 11.0387 -8.86219
193 1 11.007 7.84665 11.0505 -8.85977
194 1 14.1938 7.82383 11.0387 -8.86219
195 1 17.3077 7.85721 11.0091 -8.95829
196 1 20.4438 7.86138 11.0072 -8.95216
197 1 1.66506e-15 -3.97585e-13 12.5802 -8.94933
198 1 1.57149 1.57158 14.153 -8.9493
199 1 3.14332 6.0612e-13 12.5804 -8.94927
200 1 4.71522 1.57064 14.1536 -8.95004
201 1 6.2883 -4.37973e-12 12.5803 -8.95062
202 1 7.86094 1.57022 14.1536 -8.95051
203 1 9.43432 -7.92914e-12 12.5802 -8.95087
204 1 11.007 1.57038 14.1538 -8.94956
205 1 12.5796 -1.14511e-11 12.5802 -8.95087
206 1 14.153 1.57022 14.1536 -8.95051
207 1 15.7256 -1.05701e-11 12.5803 -8.95062
208 1 17.2987 1.57064 14.1536 -8.95004
209 1 18.8706 1.67608e-12 12.5804 -8.94927
210 1 20.4424 1.57158 14.153 -8.9493
211 1 -5.65472e-13 3.14345 12.5804 -8.94925
212 1 1.57049 4.71547 14.1537 -8.94993
213 1 3.1424 3.14252 12.5808 -8.94905
214 1 4.71107 4.71152 14.1571 -8.94514
215 1 6.28657 3.13985 12.5816 -8.95146
216 1 7.85746 4.70914 14.1577 -8.94877
217 1 9.43395 3.13986 12.5815 -8.95265
218 1 11.007 4.71071 14.1574 -8.94598
219 1 12.58 3.13986 12.5815 -8.95265
220 1 14.1564 4.70914 14.1577 -8.94877
221 1 15.7273 3.13985 12.5816 -8.95146
222 1 17.3028 4.71152 14.1571 -8.94514
223 1 18.8715 3.14252 12.5808 -8.94905
224 1 20.4434 4.71547 14.1537 -8.94993
225 1 3.11727e-12 6.28856 12.5804 -8.95091
226 1 1.57086 7.86178 14.1529 -8.95024
227 1 3.13945 6.28664 12.5818 -8.95112
228 1 4.7115 7.86018 14.1551 -8.9527
229 1 6.27427 6.27509 12.592 -8.93203
230 1 7.84646 7.8466 14.171 -8.94038
231 1 9.42787 6.27224 12.591 -8.95108
232 1 11.007 7.85343 14.1681 -8.95375
233 1 12.586 6.27224 12.591 -8.95108
234 1 14.1674 7.8466 14.171 -8.94038
235 1 15.7396 6.27509 12.592 -8.93203
236 1 17.3024 7.86018 14.1551 -8.9527
237 1 18.8744 6.28664 12.5818 -8.95112
238 1 20.443 7.86178 14.1529 -8.95024
239 1 2.49419e-12 9.43466 12.5799 -8.94985
240 1 3.14209 9.43496 12.5801 -8.95115
241 1 6.28053 9.43528 12.582 -8.95949
242 1 9.39317 9.39032 12.611 -8.84105
243 1 12.6207 9.39032 12.611 -8.84105
244 1 15.7334 9.43528 12.582 -8.95949
245 1 18.8718 9.43496 12.5801 -8.95115
246 1 8.68016e-16 -1.90967e-13 15.7254 -8.94935
247 1 1.57155 1.57172 17.2979 -8.94899
248 1 3.14342 1.07513e-13 15.7257 -8.94951
249 1 4.71568 1.57128 17.2983 -8.94942
250 1 6.28834 6.78446e-13 15.7259 -8.94992
251 1 7.8612 1.57127 17.2982 -8.94935
252 1 9.43405 6.14863e-13 15.7259 -8.94946
253 1 11.007 1.57131 17.2982 -8.94938
254 1 12.5799 1.21871e-12 15.7259 -8.94946
255 1 14.1527 1.57127 17.2982 -8.94935
256 1 15.7256 1.84966e-12 15.7259 -8.94992
257 1 17.2982 1.57128 17.2983 -8.94942
258 1 18.8705 5.22812e-13 15.7257 -8.94951
259 1 20.4424 1.57172 17.2979 -8.94899
260 1 -2.0518e-13 3.14367 15.7258 -8.94943
261 1 1.5713 4.71634 17.298 -8.94982
262 1 3.14235 3.14264 15.7267 -8.94836
263 1 4.714 4.71442 17.3 -8.94849
264 1 6.28701 3.14136 15.7273 -8.94937
265 1 7.86023 4.71427 17.2999 -8.94926
266 1 9.43367 3.1417 15.7271 -8.94903
267 1 11.007 4.71437 17.2998 -8.94905
268 1 12.5802 3.1417 15.7271 -8.94903
269 1 14.1537 4.71427 17.2999 -8.94926
270 1 15.7269 3.14136 15.7273 -8.94937
271 1 17.2999 4.71442 17.3 -8.94849
272 1 18.8716 3.14264 15.7267 -8.94836
273 1 20.4426 4.71634 17.298 -8.94982
274 1 -5.37579e-13 6.2891 15.7255 -8.95005
275 1 1.57146 7.86172 17.2978 -8.94929
276 1 3.14187 6.28817 15.7265 -8.95055
277 1 4.71476 7.86124 17.2988 -8.94934
278 1 6.28263 6.2831 15.7325 -8.94645
279 1 7.85915 7.85956 17.3023 -8.95285
280 1 9.43233 6.28401 15.7313 -8.94818
281 1 11.007 7.85971 17.302 -8.95135
282 1 12.5816 6.28401 15.7313 -8.94818
283 1 14.1548 7.85956 17.3023 -8.95285
284 1 15.7313 6.2831 15.7325 -8.94645
285 1 17.2991 7.86124 17.2988 -8.94934
286 1 18.872 6.28817 15.7265 -8.95055
287 1 20.4424 7.86172 17.2978 -8.94929
288 1 -2.9586e-13 9.43434 15.7254 -8.94951
289 1 3.14244 9.43413 15.7261 -8.94885
290 1 6.28556 9.43384 15.728 -8.9478
291 1 9.43087 9.43173 15.7336 -8.95475
292 1 12.583 9.43173 15.7336 -8.95475
293 1 15.7283 9.43384 15.728 -8.9478
294 1 18.8715 9.43413 15.7261 -8.94885
295 1 1.32245e-15 -3.95411e-14 18.8697 -8.94878
296 1 1.57171 1.57193 20.4415 -8.94899
297 1 3.14379 -5.04316e-14 18.8698 -8.94926
298 1 4.71614 1.57173 20.4415 -8.94943
299 1 6.28875 -9.75824e-14 18.8698 -8.9494
300 1 7.86141 1.57167 20.4415 -8.94937
301 1 9.43418 -1.24612e-13 18.8698 -8.94938
302 1 11.007 1.57167 20.4415 -8.94938
303 1 12.5797 -2.03348e-13 18.8698 -8.94938
304 1 14.1525 1.57167 20.4415 -8.94937
305 1 15.7252 -2.36628e-13 18.8698 -8.9494
306 1 17.2978 1.57173 20.4415 -8.94943
307 1 18.8701 -1.4344e-13 18.8698 -8.94926
308 1 20.4422 1.57193 20.4415 -8.94899
309 1 4.88364e-14 3.14425 18.8698 -8.94951
310 1 1.57169 4.71673 20.4415 -8.94957
311 1 3.14326 3.14361 18.8701 -8.94907
312 1 4.71541 4.7158 20.4415 -8.94987
313 1 6.2883 3.1433 18.8702 -8.94946
314 1 7.86099 4.71557 20.4415 -8.9496
315 1 9.43402 3.14327 18.8702 -8.94932
316 1 11.007 4.71554 20.4415 -8.94954
317 1 12.5799 3.14327 18.8702 -8.94932
318 1 14.1529 4.71557 20.4415 -8.9496
319 1 15.7256 3.1433 18.8702 -8.94946
320 1 17.2985 4.7158 20.4415 -8.94987
321 1 18.8706 3.14361 18.8701 -8.94907
322 1 20.4422 4.71673 20.4415 -8.94957
323 1 8.53725e-14 6.2893 18.8696 -8.94941
324 1 1.57172 7.86183 20.4415 -8.9494
325 1 3.14337 6.289 18.8699 -8.94957
326 1 4.71558 7.86155 20.4415 -8.94934
327 1 6.28744 6.28784 18.8713 -8.95067
328 1 7.86074 7.86112 20.4415 -8.95102
329 1 9.43372 6.28771 18.8712 -8.94986
330 1 11.007 7.86102 20.4415 -8.95067
331 1 12.5802 6.28771 18.8712 -8.94986
332 1 14.1532 7.86112 20.4415 -8.95102
333 1 15.7265 6.28784 18.8713 -8.95067
334 1 17.2983 7.86155 20.4415 -8.94934
335 1 18.8705 6.289 18.8699 -8.94957
336 1 20.4422 7.86183 20.4415 -8.9494
337 1 3.56124e-14 9.4344 18.8696 -8.94944
338 1 3.14344 9.4343 18.8698 -8.94937
339 1 6.28767 9.43412 18.8705 -8.94913
3 1 3.14379 -5.0274e-14 22.0131 -8.94926
5 1 6.28875 -9.75115e-14 22.0131 -8.9494
11 1 15.7252 -2.36368e-13 22.0131 -8.9494
13 1 18.8701 -1.44215e-13 22.0131 -8.94926
15 1 4.86143e-14 3.14425 22.0132 -8.94951
17 1 3.14326 3.14361 22.0128 -8.94907
41 1 18.8705 6.289 22.013 -8.94957
39 1 15.7265 6.28784 22.0117 -8.95067
27 1 18.8706 3.14361 22.0128 -8.94907
29 1 8.51973e-14 6.2893 22.0133 -8.94941
31 1 3.14337 6.289 22.013 -8.94957
33 1 6.28744 6.28784 22.0117 -8.95067
1 1 3.49155e-16 -3.9154e-14 22.0132 -8.94878
21 1 9.43402 3.14327 22.0128 -8.94932
23 1 12.5799 3.14327 22.0128 -8.94932
43 1 3.59677e-14 9.4344 22.0134 -8.94944
44 1 3.14344 9.4343 22.0131 -8.94937
49 1 18.8705 9.4343 22.0131 -8.94937
344 1 1.57152 11.007 1.57134 -8.94944
345 1 4.71485 11.007 1.57042 -8.9494
346 1 7.85939 11.007 1.56907 -8.9479
347 1 11.007 11.007 1.56844 -8.94997
348 1 14.1545 11.007 1.56907 -8.9479
349 1 17.2991 11.007 1.57042 -8.9494
350 1 20.4424 11.007 1.57134 -8.94944
532 1 20.4434 17.2987 11.0077 -8.94925
352 1 1.57146 14.1522 1.5713 -8.94929
531 1 17.3019 17.3019 11.0087 -8.94729
354 1 4.71476 14.1527 1.57027 -8.94934
688 3 10.2363 11.007 9.43453 2.24148
356 1 7.85915 14.1543 1.56673 -8.95285
687 3 11.7776 11.007 9.43453 2.24148
358 1 11.007 14.1542 1.56703 -8.95135
511 1 18.8715 18.8715 9.43453 -8.94937
360 1 14.1548 14.1543 1.56673 -8.95285
510 1 15.7279 18.874 9.43453 -8.94944
362 1 17.2991 14.1527 1.57027 -8.94934
527 1 4.71199 17.3019 11.0087 -8.94729
364 1 20.4424 14.1522 1.5713 -8.94929
509 1 12.58 18.8704 9.43453 -8.9456
366 1 1.5713 17.2976 1.57104 -8.94982
508 1 9.43395 18.8704 9.43453 -8.9456
368 1 4.714 17.2995 1.56908 -8.94849
507 1 6.28604 18.874 9.43453 -8.94944
370 1 7.86023 17.2996 1.56913 -8.94926
371 1 9.43372 15.7262 -0.00213446 -8.94986
372 1 11.007 17.2995 1.56924 -8.94905
373 1 12.5802 15.7262 -0.00213446 -8.94986
374 1 14.1537 17.2996 1.56913 -8.94926
506 1 3.14236 18.8715 9.43453 -8.94937
376 1 17.2999 17.2995 1.56908 -8.94849
505 1 6.80562e-13 18.8705 9.43453 -8.94937
378 1 20.4426 17.2976 1.57104 -8.94982
504 1 18.8743 15.7278 9.43453 -8.94891
380 1 1.57155 20.4422 1.57112 -8.94899
503 1 15.736 15.7361 9.43453 -8.94012
382 1 4.71568 20.4426 1.57079 -8.94942
502 1 12.5831 15.7207 9.43453 -9.00046
384 1 7.8612 20.4426 1.57084 -8.94935
526 1 1.57055 17.2987 11.0077 -8.94925
386 1 11.007 20.4426 1.57082 -8.94938
499 1 3.13963 15.7278 9.43453 -8.94891
388 1 14.1527 20.4426 1.57084 -8.94935
501 1 9.43083 15.7207 9.43453 -9.00046
390 1 17.2982 20.4426 1.57079 -8.94942
500 1 6.2779 15.7361 9.43453 -8.94012
392 1 20.4424 20.4422 1.57112 -8.94899
393 1 1.57102 11.007 4.71596 -8.94978
394 1 4.71262 11.007 4.71395 -8.94635
395 1 7.85655 11.007 4.71201 -8.93979
396 1 11.007 11.007 4.70655 -9.02433
397 1 14.1573 11.007 4.71201 -8.93979
398 1 17.3013 11.007 4.71395 -8.94635
399 1 20.4429 11.007 4.71596 -8.94978
400 1 2.99421e-13 12.5796 3.14365 -8.94951
401 1 1.57086 14.1521 4.71618 -8.95024
402 1 3.14244 12.5798 3.14301 -8.94885
403 1 4.7115 14.1537 4.71399 -8.9527
404 1 6.28556 12.5801 3.14109 -8.9478
405 1 7.84646 14.1673 4.69805 -8.94038
406 1 9.43087 12.5822 3.13549 -8.95475
407 1 11.007 14.1605 4.70096 -8.95375
408 1 12.583 12.5822 3.13549 -8.95475
409 1 14.1674 14.1673 4.69805 -8.94038
410 1 15.7283 12.5801 3.14109 -8.9478
411 1 17.3024 14.1537 4.71399 -8.9527
412 1 18.8715 12.5798 3.14301 -8.94885
413 1 20.443 14.1521 4.71618 -8.95024
414 1 5.39533e-13 15.7248 3.1436 -8.95005
415 1 1.57049 17.2984 4.71539 -8.94993
416 1 3.14187 15.7257 3.14254 -8.95055
417 1 4.71107 17.3024 4.71196 -8.94514
418 1 6.28263 15.7308 3.13659 -8.94645
419 1 7.85746 17.3048 4.71134 -8.94877
420 1 9.43233 15.7299 3.13773 -8.94818
421 1 11.007 17.3032 4.71165 -8.94598
422 1 12.5816 15.7299 3.13773 -8.94818
423 1 14.1564 17.3048 4.71134 -8.94877
424 1 15.7313 15.7308 3.13659 -8.94645
425 1 17.3028 17.3024 4.71196 -8.94514
426 1 18.872 15.7257 3.14254 -8.95055
427 1 20.4434 17.2984 4.71539 -8.94993
428 1 2.0774e-13 18.8702 3.14327 -8.94943
429 1 1.57149 20.4423 4.71602 -8.9493
430 1 3.14235 18.8713 3.1424 -8.94836
431 1 4.71522 20.4433 4.71549 -8.95004
432 1 6.28701 18.8725 3.14174 -8.94937
433 1 7.86094 20.4437 4.71549 -8.95051
434 1 9.43367 18.8722 3.14198 -8.94903
435 1 11.007 20.4435 4.71526 -8.94956
436 1 12.5802 18.8722 3.14198 -8.94903
437 1 14.153 20.4437 4.71549 -8.95051
438 1 15.7269 18.8725 3.14174 -8.94937
439 1 17.2987 20.4433 4.71549 -8.95004
440 1 18.8716 18.8713 3.1424 -8.94836
441 1 20.4424 20.4423 4.71602 -8.9493
442 1 1.5722 11.007 7.86194 -8.94707
443 1 4.71994 11.007 7.86317 -8.9395
444 1 7.88511 11.007 7.86929 -8.93017
445 1 11.007 11.007 7.52093 -7.53948
446 1 14.1288 11.007 7.86929 -8.93017
447 1 17.294 11.007 7.86317 -8.9395
448 1 20.4417 11.007 7.86194 -8.94707
449 1 -2.48303e-12 12.5792 6.28917 -8.94985
450 1 1.57012 14.1525 7.86181 -8.95216
451 1 3.14209 12.5789 6.28897 -8.95115
452 1 4.7062 14.1567 7.85997 -8.95829
453 1 6.28053 12.5786 6.2871 -8.95949
454 1 7.82012 14.1901 7.83036 -8.86219
455 1 9.39317 12.6236 6.25802 -8.84105
456 1 11.007 14.1673 7.81856 -8.85977
457 1 12.6207 12.6236 6.25802 -8.84105
458 1 14.1938 14.1901 7.83036 -8.86219
459 1 15.7334 12.5786 6.2871 -8.95949
460 1 17.3077 14.1567 7.85997 -8.95829
461 1 18.8718 12.5789 6.28897 -8.95115
462 1 20.4438 14.1525 7.86181 -8.95216
463 1 -3.05877e-12 15.7253 6.28867 -8.95091
464 1 1.57055 17.2987 7.86136 -8.94925
465 1 3.13945 15.7273 6.28721 -8.95112
466 1 4.71199 17.3019 7.8604 -8.94729
467 1 6.27427 15.7388 6.27701 -8.93203
468 1 7.85799 17.3062 7.8607 -8.95848
469 1 9.42787 15.7417 6.27806 -8.95108
470 1 11.007 17.3001 7.8612 -8.95354
471 1 12.586 15.7417 6.27806 -8.95108
472 1 14.1559 17.3062 7.8607 -8.95848
473 1 15.7396 15.7388 6.27701 -8.93203
474 1 17.3019 17.3019 7.8604 -8.94729
475 1 18.8744 15.7273 6.28721 -8.95112
476 1 20.4434 17.2987 7.86136 -8.94925
477 1 5.68906e-13 18.8705 6.28866 -8.94925
478 1 1.57145 20.4424 7.86161 -8.94933
479 1 3.1424 18.8714 6.28822 -8.94905
480 1 4.71506 20.4433 7.86141 -8.94932
481 1 6.28657 18.8741 6.28748 -8.95146
482 1 7.86112 20.4436 7.86184 -8.9513
483 1 9.43395 18.874 6.2876 -8.95265
484 1 11.007 20.4425 7.86205 -8.94932
485 1 12.58 18.874 6.2876 -8.95265
486 1 14.1528 20.4436 7.86184 -8.9513
487 1 15.7273 18.8741 6.28748 -8.95146
488 1 17.2988 20.4433 7.86141 -8.94932
489 1 18.8715 18.8714 6.28822 -8.94905
490 1 20.4425 20.4424 7.86161 -8.94933
491 1 3.64298e-12 12.5791 9.43453 -8.94921
492 1 3.14315 12.5793 9.43453 -8.94981
493 1 6.28526 12.5873 9.43453 -8.9703
494 1 9.36775 12.8095 9.43453 -8.0732
495 1 12.6461 12.8095 9.43453 -8.0732
496 1 15.7286 12.5873 9.43453 -8.9703
497 1 18.8707 12.5793 9.43453 -8.94981
498 1 -3.11648e-12 15.7257 9.43453 -8.95033
534 1 4.71506 20.4433 11.0077 -8.94932
538 1 17.2988 20.4433 11.0077 -8.94932
389 1 15.7256 18.8706 -0.00119001 -8.94946
383 1 6.2883 18.8706 -0.00119001 -8.94946
355 1 6.28767 12.5798 -0.00141645 -8.94913
361 1 15.7262 12.5798 -0.00141645 -8.94913
512 1 1.5722 11.007 11.0071 -8.94707
513 1 4.71994 11.007 11.0059 -8.9395
514 1 7.88511 11.007 10.9998 -8.93017
515 1 11.007 11.007 11.3481 -7.53948
516 1 14.1288 11.007 10.9998 -8.93017
517 1 17.294 11.007 11.0059 -8.9395
518 1 20.4417 11.007 11.0071 -8.94707
519 1 1.57012 14.1525 11.0072 -8.95216
520 1 4.7062 14.1567 11.0091 -8.95829
521 1 7.82012 14.1901 11.0387 -8.86219
522 1 11.007 14.1673 11.0505 -8.85977
523 1 14.1938 14.1901 11.0387 -8.86219
524 1 17.3077 14.1567 11.0091 -8.95829
525 1 20.4438 14.1525 11.0072 -8.95216
686 1 20.4422 20.442 20.4415 -8.94899
685 1 18.8706 18.8703 18.8701 -8.94907
528 1 7.85799 17.3062 11.0084 -8.95848
529 1 11.007 17.3001 11.0079 -8.95354
530 1 14.1559 17.3062 11.0084 -8.95848
684 1 17.2978 20.4422 20.4415 -8.94943
683 1 15.7256 18.8706 18.8702 -8.94946
533 1 1.57145 20.4424 11.0075 -8.94933
391 1 18.8706 18.8703 22.0128 -8.94907
535 1 7.86112 20.4436 11.0072 -8.9513
536 1 11.007 20.4425 11.007 -8.94932
537 1 14.1528 20.4436 11.0072 -8.9513
381 1 3.14326 18.8703 22.0128 -8.94907
539 1 20.4425 20.4424 11.0075 -8.94933
540 1 1.57102 11.007 14.1531 -8.94978
541 1 4.71262 11.007 14.1551 -8.94635
542 1 7.85655 11.007 14.1571 -8.93979
543 1 11.007 11.007 14.1625 -9.02433
544 1 14.1573 11.007 14.1571 -8.93979
545 1 17.3013 11.007 14.1551 -8.94635
546 1 20.4429 11.007 14.1531 -8.94978
547 1 -2.48249e-12 12.5792 12.5799 -8.94985
548 1 1.57086 14.1521 14.1529 -8.95024
549 1 3.14209 12.5789 12.5801 -8.95115
550 1 4.7115 14.1537 14.1551 -8.9527
551 1 6.28053 12.5786 12.582 -8.95949
552 1 7.84646 14.1673 14.171 -8.94038
553 1 9.39317 12.6236 12.611 -8.84105
554 1 11.007 14.1605 14.1681 -8.95375
555 1 12.6207 12.6236 12.611 -8.84105
556 1 14.1674 14.1673 14.171 -8.94038
557 1 15.7334 12.5786 12.582 -8.95949
558 1 17.3024 14.1537 14.1551 -8.9527
559 1 18.8718 12.5789 12.5801 -8.95115
560 1 20.443 14.1521 14.1529 -8.95024
561 1 -3.05851e-12 15.7253 12.5804 -8.95091
562 1 1.57049 17.2984 14.1537 -8.94993
563 1 3.13945 15.7273 12.5818 -8.95112
564 1 4.71107 17.3024 14.1571 -8.94514
565 1 6.27427 15.7388 12.592 -8.93203
566 1 7.85746 17.3048 14.1577 -8.94877
567 1 9.42787 15.7417 12.591 -8.95108
568 1 11.007 17.3032 14.1574 -8.94598
569 1 12.586 15.7417 12.591 -8.95108
570 1 14.1564 17.3048 14.1577 -8.94877
571 1 15.7396 15.7388 12.592 -8.93203
572 1 17.3028 17.3024 14.1571 -8.94514
573 1 18.8744 15.7273 12.5818 -8.95112
574 1 20.4434 17.2984 14.1537 -8.94993
575 1 5.69198e-13 18.8705 12.5804 -8.94925
576 1 1.57149 20.4423 14.153 -8.9493
577 1 3.1424 18.8714 12.5808 -8.94905
578 1 4.71522 20.4433 14.1536 -8.95004
579 1 6.28657 18.8741 12.5816 -8.95146
580 1 7.86094 20.4437 14.1536 -8.95051
581 1 9.43395 18.874 12.5815 -8.95265
582 1 11.007 20.4435 14.1538 -8.94956
583 1 12.58 18.874 12.5815 -8.95265
584 1 14.153 20.4437 14.1536 -8.95051
585 1 15.7273 18.8741 12.5816 -8.95146
586 1 17.2987 20.4433 14.1536 -8.95004
587 1 18.8715 18.8714 12.5808 -8.94905
588 1 20.4424 20.4423 14.153 -8.9493
589 1 1.57152 11.007 17.2977 -8.94944
590 1 4.71485 11.007 17.2986 -8.9494
591 1 7.85939 11.007 17.3 -8.9479
592 1 11.007 11.007 17.3006 -8.94997
593 1 14.1545 11.007 17.3 -8.9479
594 1 17.2991 11.007 17.2986 -8.9494
595 1 20.4424 11.007 17.2977 -8.94944
596 1 2.99491e-13 12.5796 15.7254 -8.94951
597 1 1.57146 14.1522 17.2978 -8.94929
598 1 3.14244 12.5798 15.7261 -8.94885
599 1 4.71476 14.1527 17.2988 -8.94934
600 1 6.28556 12.5801 15.728 -8.9478
601 1 7.85915 14.1543 17.3023 -8.95285
602 1 9.43087 12.5822 15.7336 -8.95475
603 1 11.007 14.1542 17.302 -8.95135
604 1 12.583 12.5822 15.7336 -8.95475
605 1 14.1548 14.1543 17.3023 -8.95285
606 1 15.7283 12.5801 15.728 -8.9478
607 1 17.2991 14.1527 17.2988 -8.94934
608 1 18.8715 12.5798 15.7261 -8.94885
609 1 20.4424 14.1522 17.2978 -8.94929
610 1 5.39336e-13 15.7248 15.7255 -8.95005
611 1 1.5713 17.2976 17.298 -8.94982
612 1 3.14187 15.7257 15.7265 -8.95055
613 1 4.714 17.2995 17.3 -8.94849
614 1 6.28263 15.7308 15.7325 -8.94645
615 1 7.86023 17.2996 17.2999 -8.94926
616 1 9.43233 15.7299 15.7313 -8.94818
617 1 11.007 17.2995 17.2998 -8.94905
618 1 12.5816 15.7299 15.7313 -8.94818
619 1 14.1537 17.2996 17.2999 -8.94926
620 1 15.7313 15.7308 15.7325 -8.94645
621 1 17.2999 17.2995 17.3 -8.94849
622 1 18.872 15.7257 15.7265 -8.95055
623 1 20.4426 17.2976 17.298 -8.94982
624 1 2.07161e-13 18.8702 15.7258 -8.94943
625 1 1.57155 20.4422 17.2979 -8.94899
626 1 3.14235 18.8713 15.7267 -8.94836
627 1 4.71568 20.4426 17.2983 -8.94942
628 1 6.28701 18.8725 15.7273 -8.94937
629 1 7.8612 20.4426 17.2982 -8.94935
630 1 9.43367 18.8722 15.7271 -8.94903
631 1 11.007 20.4426 17.2982 -8.94938
632 1 12.5802 18.8722 15.7271 -8.94903
633 1 14.1527 20.4426 17.2982 -8.94935
634 1 15.7269 18.8725 15.7273 -8.94937
635 1 17.2982 20.4426 17.2983 -8.94942
636 1 18.8716 18.8713 15.7267 -8.94836
637 1 20.4424 20.4422 17.2979 -8.94899
638 1 1.57174 11.007 20.4415 -8.94944
639 1 4.71557 11.007 20.4415 -8.94947
640 1 7.86055 11.007 20.4415 -8.9495
641 1 11.007 11.007 20.4415 -8.94924
642 1 14.1534 11.007 20.4415 -8.9495
643 1 17.2983 11.007 20.4415 -8.94947
644 1 20.4422 11.007 20.4415 -8.94944
645 1 -3.54921e-14 12.5795 18.8696 -8.94944
646 1 1.57172 14.1521 20.4415 -8.9494
647 1 3.14344 12.5796 18.8698 -8.94937
648 1 4.71558 14.1524 20.4415 -8.94934
649 1 6.28767 12.5798 18.8705 -8.94913
650 1 7.86074 14.1528 20.4415 -8.95102
651 1 9.43361 12.5798 18.8713 -8.95083
652 1 11.007 14.1529 20.4415 -8.95067
653 1 12.5803 12.5798 18.8713 -8.95083
654 1 14.1532 14.1528 20.4415 -8.95102
655 1 15.7262 12.5798 18.8705 -8.94913
656 1 17.2983 14.1524 20.4415 -8.94934
657 1 18.8705 12.5796 18.8698 -8.94937
658 1 20.4422 14.1521 20.4415 -8.9494
659 1 -8.41103e-14 15.7246 18.8696 -8.94941
660 1 1.57169 17.2972 20.4415 -8.94957
661 1 3.14337 15.7249 18.8699 -8.94957
662 1 4.71541 17.2981 20.4415 -8.94987
663 1 6.28744 15.7261 18.8713 -8.95067
664 1 7.86099 17.2983 20.4415 -8.9496
665 1 9.43372 15.7262 18.8712 -8.94986
666 1 11.007 17.2984 20.4415 -8.94954
667 1 12.5802 15.7262 18.8712 -8.94986
668 1 14.1529 17.2983 20.4415 -8.9496
669 1 15.7265 15.7261 18.8713 -8.95067
670 1 17.2985 17.2981 20.4415 -8.94987
671 1 18.8705 15.7249 18.8699 -8.94957
672 1 20.4422 17.2972 20.4415 -8.94957
673 1 -4.69982e-14 18.8697 18.8698 -8.94951
674 1 1.57171 20.442 20.4415 -8.94899
675 1 3.14326 18.8703 18.8701 -8.94907
676 1 4.71614 20.4422 20.4415 -8.94943
677 1 6.2883 18.8706 18.8702 -8.94946
678 1 7.86141 20.4422 20.4415 -8.94937
679 1 9.43402 18.8706 18.8702 -8.94932
680 1 11.007 20.4422 20.4415 -8.94938
681 1 12.5799 18.8706 18.8702 -8.94932
682 1 14.1525 20.4422 20.4415 -8.94937
379 1 -4.7761e-14 18.8697 22.0132 -8.94951
357 1 9.43361 12.5798 22.0116 -8.95083
359 1 12.5803 12.5798 22.0116 -8.95083
377 1 18.8705 15.7249 22.013 -8.94957
365 1 -8.34426e-14 15.7246 22.0133 -8.94941
367 1 3.14337 15.7249 22.013 -8.94957
369 1 6.28744 15.7261 22.0117 -8.95067
375 1 15.7265 15.7261 22.0117 -8.95067
351 1 -3.52742e-14 12.5795 22.0134 -8.94944
353 1 3.14344 12.5796 22.0131 -8.94937
363 1 18.8705 12.5796 22.0131 -8.94937
385 1 9.43402 18.8706 22.0128 -8.94932
387 1 12.5799 18.8706 22.0128 -8.94932
