ITEM: TIMESTEP
63
ITEM: NUMBER OF ATOMS
688
ITEM: BOX BOUNDS pp pp pp
0.0000000000000000e+00 2.2013900999999997e+01
0.0000000000000000e+00 2.2013900999999997e+01
0.0000000000000000e+00 2.2013900999999997e+01
ITEM: ATOMS id type x y z c_pot
189 1 20.4421 4.7167 11.0071 -8.94933
2 1 1.57231 1.57231 1.57228 -8.94939
175 1 18.8717 9.43492 9.43453 -8.95066
4 1 4.71711 1.57221 1.5722 -8.94964
174 1 15.7326 9.42868 9.43453 -8.97128
6 1 7.86206 1.57222 1.57219 -8.94954
7 1 9.43452 1.6705e-15 -8.48549e-05 -8.94963
8 1 11.007 1.5722 1.57214 -8.94959
9 1 12.5794 1.92961e-15 -8.48549e-05 -8.94963
10 1 14.1518 1.57222 1.57219 -8.94954
173 1 12.6543 9.21163 9.43453 -8.06661
12 1 17.2968 1.57221 1.5722 -8.94964
172 1 9.35963 9.21163 9.43453 -8.06661
14 1 20.4416 1.57231 1.57228 -8.94939
171 1 6.2813 9.42868 9.43453 -8.97128
16 1 1.57223 4.71715 1.57222 -8.94975
170 1 3.14218 9.43492 9.43453 -8.95066
18 1 4.71632 4.71634 1.57121 -8.94868
169 1 6.75721e-16 9.43472 9.43453 -8.94993
20 1 7.8619 4.71651 1.57146 -8.94942
188 1 17.299 4.71481 11.0077 -8.94777
22 1 11.007 4.71645 1.57142 -8.94929
184 1 4.71488 4.71481 11.0077 -8.94777
24 1 14.152 4.71651 1.57146 -8.94942
168 1 18.8721 6.28803 9.43453 -8.94886
26 1 17.2976 4.71634 1.57121 -8.94868
167 1 15.733 6.28103 9.43453 -8.94056
28 1 20.4417 4.71715 1.57222 -8.94975
166 1 12.5822 6.29265 9.43453 -8.99999
30 1 1.57223 7.86206 1.5722 -8.94947
165 1 9.43168 6.29265 9.43453 -8.99999
32 1 4.71666 7.86208 1.57171 -8.94948
164 1 6.28091 6.28103 9.43453 -8.94056
34 1 7.86099 7.86109 1.56904 -8.95254
35 1 9.43444 6.28916 -0.000781845 -8.9496
36 1 11.007 7.86117 1.56961 -8.95054
37 1 12.5795 6.28916 -0.000781845 -8.9496
38 1 14.1529 7.86109 1.56904 -8.95254
163 1 3.14183 6.28803 9.43453 -8.94886
40 1 17.2972 7.86208 1.57171 -8.94948
162 1 1.60239e-17 6.2892 9.43453 -8.95002
42 1 20.4417 7.86206 1.5722 -8.94947
183 1 1.57177 4.7167 11.0071 -8.94933
157 1 6.28813 3.14198 9.43453 -8.9493
161 1 18.8697 3.14417 9.43453 -8.94958
160 1 15.7258 3.14198 9.43453 -8.9493
159 1 12.5793 3.14345 9.43453 -8.94645
158 1 9.43456 3.14345 9.43453 -8.94645
156 1 3.14419 3.14417 9.43453 -8.94958
50 1 1.3901e-15 1.79102e-15 3.1448 -8.94968
51 1 1.5723 1.57229 4.71719 -8.94963
52 1 3.14464 1.40388e-15 3.14465 -8.94959
53 1 4.7168 1.57181 4.71686 -8.94988
54 1 6.28955 1.70543e-15 3.14459 -8.94974
55 1 7.86193 1.57159 4.7168 -8.95005
56 1 9.43447 1.67135e-15 3.1445 -8.94951
57 1 11.007 1.57156 4.7166 -8.94944
58 1 12.5794 1.66496e-15 3.1445 -8.94951
59 1 14.152 1.57159 4.7168 -8.95005
60 1 15.7244 1.74494e-15 3.14459 -8.94974
61 1 17.2971 1.57181 4.71686 -8.94988
62 1 18.8693 1.60883e-15 3.14465 -8.94959
63 1 20.4416 1.57229 4.71719 -8.94963
64 1 1.14027e-15 3.14463 3.14463 -8.94953
65 1 1.57175 4.71675 4.71678 -8.94973
66 1 3.1442 3.14421 3.14422 -8.94865
67 1 4.7143 4.7144 4.71453 -8.94538
68 1 6.28914 3.14375 3.14401 -8.94964
69 1 7.86039 4.71309 4.71465 -8.94948
70 1 9.43444 3.14385 3.14404 -8.94921
71 1 11.007 4.71396 4.71479 -8.94661
72 1 12.5795 3.14385 3.14404 -8.94921
73 1 14.1535 4.71309 4.71465 -8.94948
74 1 15.7248 3.14375 3.14401 -8.94964
75 1 17.2996 4.7144 4.71453 -8.94538
76 1 18.8697 3.14421 3.14422 -8.94865
77 1 20.4421 4.71675 4.71678 -8.94973
78 1 8.9282e-16 6.28961 3.14463 -8.94979
79 1 1.57177 7.86207 4.7169 -8.94992
80 1 3.14392 6.28935 3.14416 -8.95024
81 1 4.71408 7.86158 4.71559 -8.95221
82 1 6.28601 6.28612 3.13994 -8.94666
83 1 7.84991 7.85029 4.70188 -8.94055
84 1 9.434 6.28721 3.14157 -8.94835
85 1 11.007 7.85712 4.70673 -8.95305
86 1 12.5799 6.28721 3.14157 -8.94835
87 1 14.164 7.85029 4.70188 -8.94055
88 1 15.7279 6.28612 3.13994 -8.94666
89 1 17.2998 7.86158 4.71559 -8.95221
90 1 18.87 6.28935 3.14416 -8.95024
91 1 20.4421 7.86207 4.7169 -8.94992
92 1 -3.78814e-16 9.43447 3.14452 -8.94955
93 1 3.14391 9.43443 3.14408 -8.94901
94 1 6.2877 9.43466 3.14279 -8.94813
95 1 9.43229 9.433 3.13799 -8.95454
96 1 12.5816 9.433 3.13799 -8.95454
97 1 15.7262 9.43466 3.14279 -8.94813
98 1 18.87 9.43443 3.14408 -8.94901
99 1 -3.35686e-16 1.4011e-15 6.28966 -8.94963
100 1 1.57227 1.57227 7.86208 -8.94962
101 1 3.14461 1.57276e-15 6.2896 -8.94949
102 1 4.71671 1.57177 7.86195 -8.94938
103 1 6.2894 1.8236e-15 6.28946 -8.95034
104 1 7.86191 1.57107 7.86207 -8.95113
105 1 9.43455 1.05932e-15 6.2894 -8.9504
106 1 11.007 1.57157 7.8621 -8.94936
107 1 12.5793 8.01221e-16 6.2894 -8.9504
108 1 14.152 1.57107 7.86207 -8.95113
109 1 15.7245 1.72233e-15 6.28946 -8.95034
110 1 17.2972 1.57177 7.86195 -8.94938
111 1 18.8693 1.17856e-15 6.2896 -8.94949
112 1 20.4416 1.57227 7.86208 -8.94962
113 1 1.25569e-15 3.14461 6.2896 -8.9495
114 1 1.57177 4.7167 7.86194 -8.94933
115 1 3.14424 3.14422 6.28943 -8.94938
116 1 4.71488 4.71481 7.86135 -8.94777
117 1 6.28855 3.14221 6.28877 -8.9512
118 1 7.85994 4.70991 7.86154 -8.95824
119 1 9.43464 3.14188 6.28889 -8.95183
120 1 11.007 4.71471 7.86232 -8.95191
121 1 12.5793 3.14188 6.28889 -8.95183
122 1 14.154 4.70991 7.86154 -8.95824
123 1 15.7254 3.14221 6.28877 -8.9512
124 1 17.299 4.71481 7.86135 -8.94777
125 1 18.8697 3.14422 6.28943 -8.94938
126 1 20.4421 4.7167 7.86194 -8.94933
127 1 1.54134e-15 6.28934 6.28937 -8.95044
128 1 1.57079 7.86185 7.86194 -8.95173
129 1 3.14186 6.28829 6.28842 -8.9507
130 1 4.70792 7.85907 7.86045 -8.95761
131 1 6.27823 6.27882 6.27973 -8.93198
132 1 7.82193 7.82704 7.83255 -8.86061
133 1 9.43077 6.27699 6.28295 -8.95302
134 1 11.007 7.85256 7.82734 -8.86782
135 1 12.5831 6.27699 6.28295 -8.95302
136 1 14.192 7.82704 7.83255 -8.86061
137 1 15.7357 6.27882 6.27973 -8.93198
138 1 17.306 7.85907 7.86045 -8.95761
139 1 18.872 6.28829 6.28842 -8.9507
140 1 20.4431 7.86185 7.86194 -8.95173
141 1 9.79774e-17 9.43459 6.28936 -8.94989
142 1 3.1426 9.435 6.28913 -8.95078
143 1 6.28127 9.43622 6.288 -8.95904
144 1 9.39393 9.39351 6.26148 -8.84029
145 1 12.62 9.39351 6.26148 -8.84029
146 1 15.7326 9.43622 6.288 -8.95904
147 1 18.8713 9.435 6.28913 -8.95078
148 1 -2.92513e-16 1.76949e-15 9.43453 -8.94964
149 1 3.14459 1.79758e-15 9.43453 -8.94957
150 1 6.28923 1.79652e-15 9.43453 -8.95012
151 1 9.43457 1.45632e-15 9.43453 -8.94904
152 1 12.5793 1.27186e-15 9.43453 -8.94904
153 1 15.7247 1.7814e-15 9.43453 -8.95012
154 1 18.8693 1.81256e-15 9.43453 -8.94957
155 1 -6.58109e-16 3.14459 9.43453 -8.94957
177 1 4.71671 1.57177 11.0071 -8.94938
48 1 15.7247 9.4345 -0.000616574 -8.94934
181 1 17.2972 1.57177 11.0071 -8.94938
19 1 6.28962 3.14464 -0.000191092 -8.94963
45 1 6.28919 9.4345 -0.000616574 -8.94934
25 1 15.7243 3.14464 -0.000191092 -8.94963
176 1 1.57227 1.57227 11.007 -8.94962
47 1 12.5796 9.43444 22.0125 -8.95065
178 1 7.86191 1.57107 11.007 -8.95113
179 1 11.007 1.57157 11.007 -8.94936
180 1 14.152 1.57107 11.007 -8.95113
46 1 9.43431 9.43444 22.0125 -8.95065
182 1 20.4416 1.57227 11.007 -8.94962
343 1 18.8693 9.4345 18.8693 -8.94958
342 1 15.7247 9.4345 18.8697 -8.94934
185 1 7.85994 4.70991 11.0075 -8.95824
186 1 11.007 4.71471 11.0067 -8.95191
187 1 14.154 4.70991 11.0075 -8.95824
341 1 12.5796 9.43444 18.8704 -8.95065
340 1 9.43431 9.43444 18.8704 -8.95065
190 1 1.57079 7.86185 11.0071 -8.95173
191 1 4.70792 7.85907 11.0086 -8.95761
192 1 7.82193 7.82704 11.0365 -8.86061
193 1 11.007 7.85256 11.0417 -8.86782
194 1 14.192 7.82704 11.0365 -8.86061
195 1 17.306 7.85907 11.0086 -8.95761
196 1 20.4431 7.86185 11.0071 -8.95173
197 1 -9.32572e-17 1.48289e-15 12.5794 -8.94963
198 1 1.5723 1.57229 14.1519 -8.94963
199 1 3.14461 1.64963e-15 12.5795 -8.94949
200 1 4.7168 1.57181 14.1522 -8.94988
201 1 6.2894 1.65918e-15 12.5796 -8.95034
202 1 7.86193 1.57159 14.1523 -8.95005
203 1 9.43455 1.16782e-15 12.5797 -8.9504
204 1 11.007 1.57156 14.1525 -8.94944
205 1 12.5793 4.60645e-16 12.5797 -8.9504
206 1 14.152 1.57159 14.1523 -8.95005
207 1 15.7245 1.6754e-15 12.5796 -8.95034
208 1 17.2971 1.57181 14.1522 -8.94988
209 1 18.8693 1.61501e-15 12.5795 -8.94949
210 1 20.4416 1.57229 14.1519 -8.94963
211 1 1.53907e-16 3.14461 12.5795 -8.9495
212 1 1.57175 4.71675 14.1523 -8.94973
213 1 3.14424 3.14422 12.5796 -8.94938
214 1 4.7143 4.7144 14.1545 -8.94538
215 1 6.28855 3.14221 12.5803 -8.9512
216 1 7.86039 4.71309 14.1544 -8.94948
217 1 9.43464 3.14188 12.5802 -8.95183
218 1 11.007 4.71396 14.1543 -8.94661
219 1 12.5793 3.14188 12.5802 -8.95183
220 1 14.1535 4.71309 14.1544 -8.94948
221 1 15.7254 3.14221 12.5803 -8.9512
222 1 17.2996 4.7144 14.1545 -8.94538
223 1 18.8697 3.14422 12.5796 -8.94938
224 1 20.4421 4.71675 14.1523 -8.94973
225 1 7.59535e-16 6.28934 12.5797 -8.95044
226 1 1.57177 7.86207 14.1522 -8.94992
227 1 3.14186 6.28829 12.5806 -8.9507
228 1 4.71408 7.86158 14.1535 -8.95221
229 1 6.27823 6.27882 12.5893 -8.93198
230 1 7.84991 7.85029 14.1672 -8.94055
231 1 9.43077 6.27699 12.5861 -8.95302
232 1 11.007 7.85712 14.1623 -8.95305
233 1 12.5831 6.27699 12.5861 -8.95302
234 1 14.164 7.85029 14.1672 -8.94055
235 1 15.7357 6.27882 12.5893 -8.93198
236 1 17.2998 7.86158 14.1535 -8.95221
237 1 18.872 6.28829 12.5806 -8.9507
238 1 20.4421 7.86207 14.1522 -8.94992
239 1 5.57111e-16 9.43459 12.5797 -8.94989
240 1 3.1426 9.435 12.5799 -8.95078
241 1 6.28127 9.43622 12.5811 -8.95904
242 1 9.39393 9.39351 12.6076 -8.84029
243 1 12.62 9.39351 12.6076 -8.84029
244 1 15.7326 9.43622 12.5811 -8.95904
245 1 18.8713 9.435 12.5799 -8.95078
246 1 1.42055e-15 1.48479e-15 15.7243 -8.94968
247 1 1.57231 1.57231 17.2968 -8.94939
248 1 3.14464 1.20765e-15 15.7244 -8.94959
249 1 4.71711 1.57221 17.2969 -8.94964
250 1 6.28955 1.67836e-15 15.7245 -8.94974
251 1 7.86206 1.57222 17.2969 -8.94954
252 1 9.43447 1.84046e-15 15.7246 -8.94951
253 1 11.007 1.5722 17.2969 -8.94959
254 1 12.5794 1.79488e-15 15.7246 -8.94951
255 1 14.1518 1.57222 17.2969 -8.94954
256 1 15.7244 1.72309e-15 15.7245 -8.94974
257 1 17.2968 1.57221 17.2969 -8.94964
258 1 18.8693 1.15759e-15 15.7244 -8.94959
259 1 20.4416 1.57231 17.2968 -8.94939
260 1 1.19831e-15 3.14463 15.7244 -8.94953
261 1 1.57223 4.71715 17.2968 -8.94975
262 1 3.1442 3.14421 15.7248 -8.94865
263 1 4.71632 4.71634 17.2978 -8.94868
264 1 6.28914 3.14375 15.725 -8.94964
265 1 7.8619 4.71651 17.2976 -8.94942
266 1 9.43444 3.14385 15.725 -8.94921
267 1 11.007 4.71645 17.2976 -8.94929
268 1 12.5795 3.14385 15.725 -8.94921
269 1 14.152 4.71651 17.2976 -8.94942
270 1 15.7248 3.14375 15.725 -8.94964
271 1 17.2976 4.71634 17.2978 -8.94868
272 1 18.8697 3.14421 15.7248 -8.94865
273 1 20.4417 4.71715 17.2968 -8.94975
274 1 5.8508e-16 6.28961 15.7244 -8.94979
275 1 1.57223 7.86206 17.2969 -8.94947
276 1 3.14392 6.28935 15.7249 -8.95024
277 1 4.71666 7.86208 17.2973 -8.94948
278 1 6.28601 6.28612 15.7291 -8.94666
279 1 7.86099 7.86109 17.3 -8.95254
280 1 9.434 6.28721 15.7275 -8.94835
281 1 11.007 7.86117 17.2994 -8.95054
282 1 12.5799 6.28721 15.7275 -8.94835
283 1 14.1529 7.86109 17.3 -8.95254
284 1 15.7279 6.28612 15.7291 -8.94666
285 1 17.2972 7.86208 17.2973 -8.94948
286 1 18.87 6.28935 15.7249 -8.95024
287 1 20.4417 7.86206 17.2969 -8.94947
288 1 -2.17157e-16 9.43447 15.7245 -8.94955
289 1 3.14391 9.43443 15.725 -8.94901
290 1 6.2877 9.43466 15.7263 -8.94813
291 1 9.43229 9.433 15.7311 -8.95454
292 1 12.5816 9.433 15.7311 -8.95454
293 1 15.7262 9.43466 15.7263 -8.94813
294 1 18.87 9.43443 15.725 -8.94901
295 1 1.62935e-15 1.12761e-15 18.8691 -8.94945
296 1 1.57236 1.57237 20.4415 -8.9495
297 1 3.1448 1.17878e-15 18.8691 -8.94963
298 1 4.71724 1.57237 20.4415 -8.94966
299 1 6.28966 1.72545e-15 18.8691 -8.94961
300 1 7.86209 1.57235 20.4415 -8.94961
301 1 9.43452 1.74409e-15 18.8691 -8.94963
302 1 11.007 1.57234 20.4415 -8.94963
303 1 12.5794 1.82591e-15 18.8691 -8.94963
304 1 14.1518 1.57235 20.4415 -8.94961
305 1 15.7242 2.16044e-15 18.8691 -8.94961
306 1 17.2967 1.57237 20.4415 -8.94966
307 1 18.8691 1.22018e-15 18.8691 -8.94963
308 1 20.4415 1.57237 20.4415 -8.9495
309 1 1.18773e-15 3.1448 18.8691 -8.94966
310 1 1.57238 4.71725 20.4415 -8.94968
311 1 3.14462 3.14463 18.8693 -8.94936
312 1 4.717 4.717 20.4415 -8.94976
313 1 6.28962 3.14464 18.8692 -8.94963
314 1 7.86204 4.71699 20.4415 -8.94957
315 1 9.4345 3.14459 18.8693 -8.94956
316 1 11.007 4.71695 20.4415 -8.94959
317 1 12.5794 3.14459 18.8693 -8.94956
318 1 14.1519 4.71699 20.4415 -8.94957
319 1 15.7243 3.14464 18.8692 -8.94963
320 1 17.2969 4.717 20.4415 -8.94976
321 1 18.8693 3.14463 18.8693 -8.94936
322 1 20.4415 4.71725 20.4415 -8.94968
323 1 -2.78467e-16 6.28966 18.8691 -8.94958
324 1 1.57235 7.86209 20.4415 -8.94961
325 1 3.14468 6.28966 18.8692 -8.94967
326 1 4.71703 7.86208 20.4415 -8.9495
327 1 6.28917 6.2892 18.87 -8.95037
328 1 7.86185 7.86188 20.4415 -8.95071
329 1 9.43444 6.28916 18.8698 -8.9496
330 1 11.007 7.86179 20.4415 -8.95018
331 1 12.5795 6.28916 18.8698 -8.9496
332 1 14.152 7.86188 20.4415 -8.95071
333 1 15.7247 6.2892 18.87 -8.95037
334 1 17.2969 7.86208 20.4415 -8.9495
335 1 18.8692 6.28966 18.8692 -8.94967
336 1 20.4415 7.86209 20.4415 -8.94961
337 1 -1.17093e-16 9.43452 18.8691 -8.94963
338 1 3.14461 9.4345 18.8693 -8.94958
339 1 6.28919 9.4345 18.8697 -8.94934
3 1 3.1448 1.72531e-15 22.0138 -8.94963
5 1 6.28966 1.74008e-15 22.0138 -8.94961
11 1 15.7242 2.14895e-15 22.0138 -8.94961
13 1 18.8691 1.66766e-15 22.0138 -8.94963
15 1 1.14555e-15 3.1448 22.0138 -8.94966
17 1 3.14462 3.14463 22.0137 -8.94936
41 1 18.8692 6.28966 22.0137 -8.94967
39 1 15.7247 6.2892 22.013 -8.95037
27 1 18.8693 3.14463 22.0137 -8.94936
29 1 7.08593e-17 6.28966 22.0138 -8.94958
31 1 3.14468 6.28966 22.0137 -8.94967
33 1 6.28917 6.2892 22.013 -8.95037
1 1 1.75084e-15 9.37228e-16 22.0139 -8.94945
21 1 9.4345 3.14459 22.0137 -8.94956
23 1 12.5794 3.14459 22.0137 -8.94956
43 1 1.26254e-16 9.43452 22.0138 -8.94963
44 1 3.14461 9.4345 22.0137 -8.94958
49 1 18.8693 9.4345 22.0137 -8.94958
344 1 1.57221 11.007 1.57216 -8.9496
345 1 4.7165 11.007 1.57154 -8.94956
346 1 7.86097 11.007 1.57043 -8.94834
347 1 11.007 11.007 1.56948 -8.95001
348 1 14.1529 11.007 1.57043 -8.94834
349 1 17.2974 11.007 1.57154 -8.94956
350 1 20.4417 11.007 1.57216 -8.9496
532 1 20.4421 17.2972 11.0071 -8.94933
352 1 1.57223 14.1518 1.5722 -8.94947
531 1 17.299 17.2991 11.0077 -8.94777
354 1 4.71666 14.1518 1.57171 -8.94948
688 3 10.243 11.007 9.43453 2.25376
356 1 7.86099 14.1528 1.56904 -8.95254
687 3 11.7709 11.007 9.43453 2.25376
358 1 11.007 14.1527 1.56961 -8.95054
511 1 18.8697 18.8697 9.43453 -8.94958
360 1 14.1529 14.1528 1.56904 -8.95254
510 1 15.7258 18.8719 9.43453 -8.9493
362 1 17.2972 14.1518 1.57171 -8.94948
527 1 4.71488 17.2991 11.0077 -8.94777
364 1 20.4417 14.1518 1.5722 -8.94947
509 1 12.5793 18.8704 9.43453 -8.94645
366 1 1.57223 17.2968 1.57222 -8.94975
508 1 9.43456 18.8704 9.43453 -8.94645
368 1 4.71632 17.2976 1.57121 -8.94868
507 1 6.28813 18.8719 9.43453 -8.9493
370 1 7.8619 17.2974 1.57146 -8.94942
371 1 9.43444 15.7247 -0.000781845 -8.9496
372 1 11.007 17.2975 1.57142 -8.94929
373 1 12.5795 15.7247 -0.000781845 -8.9496
374 1 14.152 17.2974 1.57146 -8.94942
506 1 3.14419 18.8697 9.43453 -8.94958
376 1 17.2976 17.2976 1.57121 -8.94868
505 1 -5.81567e-16 18.8693 9.43453 -8.94957
378 1 20.4417 17.2968 1.57222 -8.94975
504 1 18.8721 15.7259 9.43453 -8.94886
380 1 1.57231 20.4416 1.57228 -8.94939
503 1 15.733 15.7329 9.43453 -8.94056
382 1 4.71711 20.4417 1.5722 -8.94964
502 1 12.5822 15.7213 9.43453 -8.99999
384 1 7.86206 20.4417 1.57219 -8.94954
526 1 1.57177 17.2972 11.0071 -8.94933
386 1 11.007 20.4417 1.57214 -8.94959
499 1 3.14183 15.7259 9.43453 -8.94886
388 1 14.1518 20.4417 1.57219 -8.94954
501 1 9.43168 15.7213 9.43453 -8.99999
390 1 17.2968 20.4417 1.5722 -8.94964
500 1 6.28091 15.7329 9.43453 -8.94056
392 1 20.4416 20.4416 1.57228 -8.94939
393 1 1.57163 11.007 4.71662 -8.94968
394 1 4.7141 11.007 4.71495 -8.94667
395 1 7.85791 11.007 4.71342 -8.94112
396 1 11.007 11.007 4.70817 -9.02404
397 1 14.156 11.007 4.71342 -8.94112
398 1 17.2998 11.007 4.71495 -8.94667
399 1 20.4423 11.007 4.71662 -8.94968
400 1 -3.31907e-16 12.5794 3.14452 -8.94955
401 1 1.57177 14.1518 4.7169 -8.94992
402 1 3.14391 12.5795 3.14408 -8.94901
403 1 4.71408 14.1523 4.71559 -8.95221
404 1 6.2877 12.5792 3.14279 -8.94813
405 1 7.84991 14.1636 4.70188 -8.94055
406 1 9.43229 12.5809 3.13799 -8.95454
407 1 11.007 14.1568 4.70673 -8.95305
408 1 12.5816 12.5809 3.13799 -8.95454
409 1 14.164 14.1636 4.70188 -8.94055
410 1 15.7262 12.5792 3.14279 -8.94813
411 1 17.2998 14.1523 4.71559 -8.95221
412 1 18.87 12.5795 3.14408 -8.94901
413 1 20.4421 14.1518 4.7169 -8.94992
414 1 7.21436e-16 15.7243 3.14463 -8.94979
415 1 1.57175 17.2971 4.71678 -8.94973
416 1 3.14392 15.7246 3.14416 -8.95024
417 1 4.7143 17.2995 4.71453 -8.94538
418 1 6.28601 15.7278 3.13994 -8.94666
419 1 7.86039 17.3008 4.71465 -8.94948
420 1 9.434 15.7267 3.14157 -8.94835
421 1 11.007 17.2999 4.71479 -8.94661
422 1 12.5799 15.7267 3.14157 -8.94835
423 1 14.1535 17.3008 4.71465 -8.94948
424 1 15.7279 15.7278 3.13994 -8.94666
425 1 17.2996 17.2995 4.71453 -8.94538
426 1 18.87 15.7246 3.14416 -8.95024
427 1 20.4421 17.2971 4.71678 -8.94973
428 1 1.01213e-15 18.8693 3.14463 -8.94953
429 1 1.5723 20.4416 4.71719 -8.94963
430 1 3.1442 18.8697 3.14422 -8.94865
431 1 4.7168 20.4421 4.71686 -8.94988
432 1 6.28914 18.8702 3.14401 -8.94964
433 1 7.86193 20.4423 4.7168 -8.95005
434 1 9.43444 18.8701 3.14404 -8.94921
435 1 11.007 20.4423 4.7166 -8.94944
436 1 12.5795 18.8701 3.14404 -8.94921
437 1 14.152 20.4423 4.7168 -8.95005
438 1 15.7248 18.8702 3.14401 -8.94964
439 1 17.2971 20.4421 4.71686 -8.94988
440 1 18.8697 18.8697 3.14422 -8.94865
441 1 20.4416 20.4416 4.71719 -8.94963
442 1 1.5717 11.007 7.86181 -8.94806
443 1 4.71718 11.007 7.86246 -8.9401
444 1 7.87958 11.007 7.86839 -8.93175
445 1 11.007 11.007 7.52108 -7.52511
446 1 14.1343 11.007 7.86839 -8.93175
447 1 17.2967 11.007 7.86246 -8.9401
448 1 20.4422 11.007 7.86181 -8.94806
449 1 5.72366e-16 12.5793 6.28936 -8.94989
450 1 1.57079 14.152 7.86194 -8.95173
451 1 3.1426 12.5789 6.28913 -8.95078
452 1 4.70792 14.1548 7.86045 -8.95761
453 1 6.28127 12.5777 6.288 -8.95904
454 1 7.82193 14.1869 7.83255 -8.86061
455 1 9.39393 12.6204 6.26148 -8.84029
456 1 11.007 14.1613 7.82734 -8.86782
457 1 12.62 12.6204 6.26148 -8.84029
458 1 14.192 14.1869 7.83255 -8.86061
459 1 15.7326 12.5777 6.288 -8.95904
460 1 17.306 14.1548 7.86045 -8.95761
461 1 18.8713 12.5789 6.28913 -8.95078
462 1 20.4431 14.152 7.86194 -8.95173
463 1 1.13054e-15 15.7246 6.28937 -8.95044
464 1 1.57177 17.2972 7.86194 -8.94933
465 1 3.14186 15.7256 6.28842 -8.9507
466 1 4.71488 17.2991 7.86135 -8.94777
467 1 6.27823 15.7351 6.27973 -8.93198
468 1 7.85994 17.304 7.86154 -8.95824
469 1 9.43077 15.7369 6.28295 -8.95302
470 1 11.007 17.2992 7.86232 -8.95191
471 1 12.5831 15.7369 6.28295 -8.95302
472 1 14.154 17.304 7.86154 -8.95824
473 1 15.7357 15.7351 6.27973 -8.93198
474 1 17.299 17.2991 7.86135 -8.94777
475 1 18.872 15.7256 6.28842 -8.9507
476 1 20.4421 17.2972 7.86194 -8.94933
477 1 1.2381e-15 18.8693 6.2896 -8.9495
478 1 1.57227 20.4416 7.86208 -8.94962
479 1 3.14424 18.8697 6.28943 -8.94938
480 1 4.71671 20.4421 7.86195 -8.94938
481 1 6.28855 18.8717 6.28877 -8.9512
482 1 7.86191 20.4428 7.86207 -8.95113
483 1 9.43464 18.872 6.28889 -8.95183
484 1 11.007 20.4423 7.8621 -8.94936
485 1 12.5793 18.872 6.28889 -8.95183
486 1 14.152 20.4428 7.86207 -8.95113
487 1 15.7254 18.8717 6.28877 -8.9512
488 1 17.2972 20.4421 7.86195 -8.94938
489 1 18.8697 18.8697 6.28943 -8.94938
490 1 20.4416 20.4416 7.86208 -8.94962
491 1 8.3003e-16 12.5792 9.43453 -8.94993
492 1 3.14218 12.579 9.43453 -8.95066
493 1 6.2813 12.5852 9.43453 -8.97128
494 1 9.35963 12.8023 9.43453 -8.06661
495 1 12.6543 12.8023 9.43453 -8.06661
496 1 15.7326 12.5852 9.43453 -8.97128
497 1 18.8717 12.579 9.43453 -8.95066
498 1 -1.40518e-16 15.7247 9.43453 -8.95002
534 1 4.71671 20.4421 11.0071 -8.94938
538 1 17.2972 20.4421 11.0071 -8.94938
389 1 15.7243 18.8693 -0.000191092 -8.94963
383 1 6.28962 18.8693 -0.000191092 -8.94963
355 1 6.28919 12.5794 -0.000616574 -8.94934
361 1 15.7247 12.5794 -0.000616574 -8.94934
512 1 1.5717 11.007 11.0073 -8.94806
513 1 4.71718 11.007 11.0066 -8.9401
514 1 7.87958 11.007 11.0007 -8.93175
515 1 11.007 11.007 11.348 -7.52511
516 1 14.1343 11.007 11.0007 -8.93175
517 1 17.2967 11.007 11.0066 -8.9401
518 1 20.4422 11.007 11.0073 -8.94806
519 1 1.57079 14.152 11.0071 -8.95173
520 1 4.70792 14.1548 11.0086 -8.95761
521 1 7.82193 14.1869 11.0365 -8.86061
522 1 11.007 14.1613 11.0417 -8.86782
523 1 14.192 14.1869 11.0365 -8.86061
524 1 17.306 14.1548 11.0086 -8.95761
525 1 20.4431 14.152 11.0071 -8.95173
686 1 20.4415 20.4415 20.4415 -8.9495
685 1 18.8693 18.8693 18.8693 -8.94936
528 1 7.85994 17.304 11.0075 -8.95824
529 1 11.007 17.2992 11.0067 -8.95191
530 1 14.154 17.304 11.0075 -8.95824
684 1 17.2967 20.4415 20.4415 -8.94966
683 1 15.7243 18.8693 18.8692 -8.94963
533 1 1.57227 20.4416 11.007 -8.94962
391 1 18.8693 18.8693 22.0137 -8.94936
535 1 7.86191 20.4428 11.007 -8.95113
536 1 11.007 20.4423 11.007 -8.94936
537 1 14.152 20.4428 11.007 -8.95113
381 1 3.14462 18.8693 22.0137 -8.94936
539 1 20.4416 20.4416 11.007 -8.94962
540 1 1.57163 11.007 14.1524 -8.94968
541 1 4.7141 11.007 14.1541 -8.94667
542 1 7.85791 11.007 14.1556 -8.94112
543 1 11.007 11.007 14.1609 -9.02404
544 1 14.156 11.007 14.1556 -8.94112
545 1 17.2998 11.007 14.1541 -8.94667
546 1 20.4423 11.007 14.1524 -8.94968
547 1 7.20202e-16 12.5793 12.5797 -8.94989
548 1 1.57177 14.1518 14.1522 -8.94992
549 1 3.1426 12.5789 12.5799 -8.95078
550 1 4.71408 14.1523 14.1535 -8.95221
551 1 6.28127 12.5777 12.5811 -8.95904
552 1 7.84991 14.1636 14.1672 -8.94055
553 1 9.39393 12.6204 12.6076 -8.84029
554 1 11.007 14.1568 14.1623 -8.95305
555 1 12.62 12.6204 12.6076 -8.84029
556 1 14.164 14.1636 14.1672 -8.94055
557 1 15.7326 12.5777 12.5811 -8.95904
558 1 17.2998 14.1523 14.1535 -8.95221
559 1 18.8713 12.5789 12.5799 -8.95078
560 1 20.4421 14.1518 14.1522 -8.94992
561 1 5.42332e-16 15.7246 12.5797 -8.95044
562 1 1.57175 17.2971 14.1523 -8.94973
563 1 3.14186 15.7256 12.5806 -8.9507
564 1 4.7143 17.2995 14.1545 -8.94538
565 1 6.27823 15.7351 12.5893 -8.93198
566 1 7.86039 17.3008 14.1544 -8.94948
567 1 9.43077 15.7369 12.5861 -8.95302
568 1 11.007 17.2999 14.1543 -8.94661
569 1 12.5831 15.7369 12.5861 -8.95302
570 1 14.1535 17.3008 14.1544 -8.94948
571 1 15.7357 15.7351 12.5893 -8.93198
572 1 17.2996 17.2995 14.1545 -8.94538
573 1 18.872 15.7256 12.5806 -8.9507
574 1 20.4421 17.2971 14.1523 -8.94973
575 1 1.0927e-15 18.8693 12.5795 -8.9495
576 1 1.5723 20.4416 14.1519 -8.94963
577 1 3.14424 18.8697 12.5796 -8.94938
578 1 4.7168 20.4421 14.1522 -8.94988
579 1 6.28855 18.8717 12.5803 -8.9512
580 1 7.86193 20.4423 14.1523 -8.95005
581 1 9.43464 18.872 12.5802 -8.95183
582 1 11.007 20.4423 14.1525 -8.94944
583 1 12.5793 18.872 12.5802 -8.95183
584 1 14.152 20.4423 14.1523 -8.95005
585 1 15.7254 18.8717 12.5803 -8.9512
586 1 17.2971 20.4421 14.1522 -8.94988
587 1 18.8697 18.8697 12.5796 -8.94938
588 1 20.4416 20.4416 14.1519 -8.94963
589 1 1.57221 11.007 17.2969 -8.9496
590 1 4.7165 11.007 17.2975 -8.94956
591 1 7.86097 11.007 17.2986 -8.94834
592 1 11.007 11.007 17.2996 -8.95001
593 1 14.1529 11.007 17.2986 -8.94834
594 1 17.2974 11.007 17.2975 -8.94956
595 1 20.4417 11.007 17.2969 -8.9496
596 1 -3.30303e-16 12.5794 15.7245 -8.94955
597 1 1.57223 14.1518 17.2969 -8.94947
598 1 3.14391 12.5795 15.725 -8.94901
599 1 4.71666 14.1518 17.2973 -8.94948
600 1 6.2877 12.5792 15.7263 -8.94813
601 1 7.86099 14.1528 17.3 -8.95254
602 1 9.43229 12.5809 15.7311 -8.95454
603 1 11.007 14.1527 17.2994 -8.95054
604 1 12.5816 12.5809 15.7311 -8.95454
605 1 14.1529 14.1528 17.3 -8.95254
606 1 15.7262 12.5792 15.7263 -8.94813
607 1 17.2972 14.1518 17.2973 -8.94948
608 1 18.87 12.5795 15.725 -8.94901
609 1 20.4417 14.1518 17.2969 -8.94947
610 1 5.62565e-16 15.7243 15.7244 -8.94979
611 1 1.57223 17.2968 17.2968 -8.94975
612 1 3.14392 15.7246 15.7249 -8.95024
613 1 4.71632 17.2976 17.2978 -8.94868
614 1 6.28601 15.7278 15.7291 -8.94666
615 1 7.8619 17.2974 17.2976 -8.94942
616 1 9.434 15.7267 15.7275 -8.94835
617 1 11.007 17.2975 17.2976 -8.94929
618 1 12.5799 15.7267 15.7275 -8.94835
619 1 14.152 17.2974 17.2976 -8.94942
620 1 15.7279 15.7278 15.7291 -8.94666
621 1 17.2976 17.2976 17.2978 -8.94868
622 1 18.87 15.7246 15.7249 -8.95024
623 1 20.4417 17.2968 17.2968 -8.94975
624 1 1.4629e-15 18.8693 15.7244 -8.94953
625 1 1.57231 20.4416 17.2968 -8.94939
626 1 3.1442 18.8697 15.7248 -8.94865
627 1 4.71711 20.4417 17.2969 -8.94964
628 1 6.28914 18.8702 15.725 -8.94964
629 1 7.86206 20.4417 17.2969 -8.94954
630 1 9.43444 18.8701 15.725 -8.94921
631 1 11.007 20.4417 17.2969 -8.94959
632 1 12.5795 18.8701 15.725 -8.94921
633 1 14.1518 20.4417 17.2969 -8.94954
634 1 15.7248 18.8702 15.725 -8.94964
635 1 17.2968 20.4417 17.2969 -8.94964
636 1 18.8697 18.8697 15.7248 -8.94865
637 1 20.4416 20.4416 17.2968 -8.94939
638 1 1.57235 11.007 20.4415 -8.94963
639 1 4.71697 11.007 20.4415 -8.94964
640 1 7.86171 11.007 20.4415 -8.94967
641 1 11.007 11.007 20.4415 -8.94957
642 1 14.1522 11.007 20.4415 -8.94967
643 1 17.2969 11.007 20.4415 -8.94964
644 1 20.4416 11.007 20.4415 -8.94963
645 1 -1.36695e-16 12.5794 18.8691 -8.94963
646 1 1.57235 14.1518 20.4415 -8.94961
647 1 3.14461 12.5794 18.8693 -8.94958
648 1 4.71703 14.1518 20.4415 -8.9495
649 1 6.28919 12.5794 18.8697 -8.94934
650 1 7.86185 14.152 20.4415 -8.95071
651 1 9.43431 12.5795 18.8704 -8.95065
652 1 11.007 14.1521 20.4415 -8.95018
653 1 12.5796 12.5795 18.8704 -8.95065
654 1 14.152 14.152 20.4415 -8.95071
655 1 15.7247 12.5794 18.8697 -8.94934
656 1 17.2969 14.1518 20.4415 -8.9495
657 1 18.8693 12.5794 18.8693 -8.94958
658 1 20.4415 14.1518 20.4415 -8.94961
659 1 4.74669e-17 15.7242 18.8691 -8.94958
660 1 1.57238 17.2967 20.4415 -8.94968
661 1 3.14468 15.7242 18.8692 -8.94967
662 1 4.717 17.2969 20.4415 -8.94976
663 1 6.28917 15.7247 18.87 -8.95037
664 1 7.86204 17.2969 20.4415 -8.94957
665 1 9.43444 15.7247 18.8698 -8.9496
666 1 11.007 17.2969 20.4415 -8.94959
667 1 12.5795 15.7247 18.8698 -8.9496
668 1 14.1519 17.2969 20.4415 -8.94957
669 1 15.7247 15.7247 18.87 -8.95037
670 1 17.2969 17.2969 20.4415 -8.94976
671 1 18.8692 15.7242 18.8692 -8.94967
672 1 20.4415 17.2967 20.4415 -8.94968
673 1 1.38161e-15 18.8691 18.8691 -8.94966
674 1 1.57236 20.4415 20.4415 -8.9495
675 1 3.14462 18.8693 18.8693 -8.94936
676 1 4.71724 20.4415 20.4415 -8.94966
677 1 6.28962 18.8693 18.8692 -8.94963
678 1 7.86209 20.4416 20.4415 -8.94961
679 1 9.4345 18.8693 18.8693 -8.94956
680 1 11.007 20.4416 20.4415 -8.94963
681 1 12.5794 18.8693 18.8693 -8.94956
682 1 14.1518 20.4416 20.4415 -8.94961
379 1 1.25696e-15 18.8691 22.0138 -8.94966
357 1 9.43431 12.5795 22.0125 -8.95065
359 1 12.5796 12.5795 22.0125 -8.95065
377 1 18.8692 15.7242 22.0137 -8.94967
365 1 8.81032e-17 15.7242 22.0138 -8.94958
367 1 3.14468 15.7242 22.0137 -8.94967
369 1 6.28917 15.7247 22.013 -8.95037
375 1 15.7247 15.7247 22.013 -8.95037
351 1 4.36872e-17 12.5794 22.0138 -8.94963
353 1 3.14461 12.5794 22.0137 -8.94958
363 1 18.8693 12.5794 22.0137 -8.94958
385 1 9.4345 18.8693 22.0137 -8.94956
387 1 12.5794 18.8693 22.0137 -8.94956
