LAMMPS data file via write_data, version 2 Aug 2023, timestep = 120, units = metal

694 atoms
3 atom types

-0.009455644834389907 22.019002641690147 xlo xhi
-0.010354945762462549 22.01990194261823 ylo yhi
-0.010133263849731927 22.019680260705513 zlo zhi

Masses

1 183.84
2 1.008
3 4.0026

Atoms # atomic

1 1 -0.009455641901429213 -0.010354942828316546 -0.010133260914798627 0 0 0
2 1 1.5640056640339173 1.5632348346975011 1.563424847789501 0 0 0
3 1 3.137466970192163 -0.010354942911495447 -0.010133260937262788 0 0 0
4 1 4.710928272540386 1.5632348300946748 1.5634248441613472 0 0 0
5 1 6.28438958194598 -0.01035494289967174 -0.010133261155030736 0 0 0
6 1 7.857850885780127 1.5632348253482329 1.5634248389135148 0 0 0
7 1 9.431312193890077 -0.01035494306159621 -0.010133261305786652 0 0 0
8 1 11.004773500957173 1.563234826462973 1.5634248397126382 0 0 0
9 1 12.578234806117669 -0.010354942985782743 -0.010133261018540713 0 0 0
10 1 14.151696118093712 1.563234827809234 1.5634248447790284 0 0 0
11 1 15.725157418154556 -0.010354942719503206 -0.010133261043536554 0 0 0
12 1 17.298618722001397 1.5632348385950867 1.5634248499248338 0 0 0
13 1 18.8720800297724 -0.010354942834035282 -0.010133260829494126 0 0 0
14 1 20.44554133587694 1.563234834908053 1.5634248479027968 0 0 0
15 1 -0.009455641997084962 3.1368246124531187 -0.010133260872766704 0 0 0
16 1 1.5640056624750172 4.710414389521506 1.5634248472805896 0 0 0
17 1 3.1374669688430754 3.1368246111135485 -0.010133262327793562 0 0 0
18 1 4.710928169177014 4.710414288166146 1.5634247369192216 0 0 0
19 1 6.284389579290781 3.1368246081456785 22.01968025654802 0 0 -1
20 1 7.857850805470792 4.710414284663786 1.5634245350568907 0 0 0
21 1 9.431312193574492 3.136824601468427 22.019680251769195 0 0 -1
22 1 11.00477358052174 4.710414218947259 1.563424575747491 0 0 0
23 1 12.578234804634707 3.1368246015209458 22.019680251370797 0 0 -1
24 1 14.151696262538094 4.71041368682837 1.5634242466961898 0 0 0
25 1 15.725157425155482 3.136824608003618 22.01968026056062 0 0 -1
26 1 17.298618546776623 4.710414566454827 1.5634250337845699 0 0 0
27 1 18.872080027487378 3.136824614771572 -0.010133258435046076 0 0 0
28 1 20.445541330304536 4.710414393559377 1.5634248517323572 0 0 0
29 1 -0.009455641830115399 6.284004167367787 -0.01013326092998297 0 0 0
30 1 1.5640056649550271 7.857593947467625 1.5634248486986828 0 0 0
31 1 3.1374669690537424 6.284004167899895 -0.010133262320135169 0 0 0
32 1 4.7109283760507585 7.857594012858086 1.5634249226769537 0 0 0
33 1 6.284389592710791 6.284004183559319 22.019680192812235 0 0 -1
34 1 7.857852710448004 7.857595845742273 1.5634218069595218 0 0 0
35 1 9.43131208096939 6.284003786532519 22.019679742218713 0 0 -1
36 1 11.004768848506716 7.857597737309238 1.5634236402197492 0 0 0
37 1 12.578234896773585 6.284004083668785 22.019680169161894 0 0 -1
38 1 14.151702297238064 7.857587490945074 1.56342490231534 0 0 0
39 1 15.725157467426726 6.284004112139547 -0.010133169260148988 0 0 0
40 1 17.298619714044186 7.857593483005512 1.5634240451042063 0 0 0
41 1 18.87208003781073 6.284004156802165 22.019680258586728 0 0 -1
42 1 20.445541343847097 7.857593938837538 1.5634248478272812 0 0 0
43 1 -0.009455641815878818 9.431183722376776 -0.010133260864072532 0 0 0
44 1 1.5640056583836555 11.004773499720255 1.56342484130724 0 0 0
45 1 3.1374669667678448 9.431183724362686 -0.010133260683274609 0 0 0
46 1 4.71092822033011 11.004773556076218 1.5634250224793793 0 0 0
47 1 6.28438932597807 9.431183683234638 22.019680017117576 0 0 -1
48 1 7.857855969110121 11.004769542956948 1.5634314843611163 0 0 0
49 1 9.431308959086993 9.431180568215387 22.019678585251715 0 0 -1
50 1 11.004785679524588 11.004786588516417 1.562920236990438 0 0 0
51 1 12.578238427777151 9.431180053459794 22.019669654690503 0 0 -1
52 1 14.151710654632229 11.004766558501096 1.5634027860171382 0 0 0
53 1 15.725157705409458 9.431183342401368 22.01967977468063 0 0 -1
54 1 17.298617596718763 11.004773483164177 1.5634264326791183 0 0 0
55 1 18.872080037579114 9.431183733552245 22.019680260504444 0 0 -1
56 1 20.445541346954148 11.004773501112496 1.5634248364886203 0 0 0
57 1 -0.009455641731339537 12.57836327764762 -0.010133260829733313 0 0 0
58 1 1.5640056657502814 14.151953054639257 1.5634248501675148 0 0 0
59 1 3.1374669660163375 12.578363276034379 -0.01013326222725977 0 0 0
60 1 4.71092818007643 14.151952999139128 1.5634248823632537 0 0 0
61 1 6.284389501572071 12.57836323947153 -0.010133255273672138 0 0 0
62 1 7.8578455478585525 14.151958468497606 1.5634169764420445 0 0 0
63 1 9.431308601509295 12.578366764000359 22.01967111166857 0 0 -1
64 1 11.004765860135304 14.151967681797814 1.5633962055980857 0 0 0
65 1 12.578238834597768 12.578367227379514 22.019657772838432 0 0 -1
66 1 14.151713231142969 14.151970227347073 1.5634075584282865 0 0 0
67 1 15.725156928380878 12.578363471024014 -0.010132914348977843 0 0 0
68 1 17.298619424180842 14.151953374679243 1.5634244351638604 0 0 0
69 1 18.872080037897497 12.578363267484129 22.019680259571338 0 0 -1
70 1 20.445541342474048 14.151953058550676 1.5634248478171398 0 0 0
71 1 -0.009455641780241462 15.725542832623484 -0.01013326090550869 0 0 0
72 1 1.5640056654788297 17.299132608823157 1.5634248492798277 0 0 0
73 1 3.137466968838595 15.725542832861503 -0.010133260136239532 0 0 0
74 1 4.710928265589896 17.299132616105872 1.5634248488895142 0 0 0
75 1 6.284389472262307 15.72554293139067 22.01968015893399 0 0 -1
76 1 7.857850448526256 17.299133191236617 1.5634244437855742 0 0 0
77 1 9.431311825665947 15.725543312262987 22.019679487832047 0 0 -1
78 1 11.004773564214785 17.299131218950603 1.5634267841817122 0 0 0
79 1 12.578235047271503 15.725542572200206 -0.010133210403580065 0 0 0
80 1 14.151696540433427 17.299133555235148 1.5634242886282288 0 0 0
81 1 15.725157695888399 15.725543109263388 22.019680068964437 0 0 -1
82 1 17.29861863123245 17.29913251903347 1.5634249512438265 0 0 0
83 1 18.87208003877211 15.725542840517837 22.019680258930116 0 0 -1
84 1 20.445541332769135 17.299132608024095 1.5634248501341332 0 0 0
85 1 -0.00945564192306059 18.87272238761112 -0.01013326086339302 0 0 0
86 1 1.5640056642595404 20.44631216524361 1.5634248479470156 0 0 0
87 1 3.1374669702315185 18.872722387594674 -0.010133260763328883 0 0 0
88 1 4.710928277966984 20.446312163179872 1.563424849966877 0 0 0
89 1 6.284389575646688 18.8727223951865 22.01968025886965 0 0 -1
90 1 7.85785088133007 20.446312174770032 1.5634248443989505 0 0 0
91 1 9.43131220541484 18.872722393444388 -0.010133262493915938 0 0 0
92 1 11.004773496375016 20.446312185264826 1.5634248261456134 0 0 0
93 1 12.578234792200027 18.872722397410158 22.019680253879702 0 0 -1
94 1 14.15169612412822 20.446312179882998 1.5634248421352892 0 0 0
95 1 15.725157427662063 18.872722398468525 22.019680258436978 0 0 -1
96 1 17.29861872011049 20.446312160427773 1.5634248518266876 0 0 0
97 1 18.87208002852576 18.87272238633466 -0.010133259447504222 0 0 0
98 1 20.44554133592344 20.446312165304064 1.5634248478671484 0 0 0
99 1 -0.009455641907404607 -0.010354942836122354 3.136982956635247 0 0 0
100 1 1.5640056638472235 1.5632348345385192 4.710541065284732 0 0 0
101 1 3.1374669700482767 -0.010354943196789375 3.136982956526147 0 0 0
102 1 4.710928264980667 1.563234819550201 4.71054106015725 0 0 0
103 1 6.2843895802526974 22.019901936283834 3.136982954901679 0 -1 0
104 1 7.857850750950137 1.563234475061521 4.710540921555965 0 0 0
105 1 9.431312192941645 22.01990193831745 3.1369829522029415 0 -1 0
106 1 11.004773594169265 1.5632344794522017 4.710540921976177 0 0 0
107 1 12.578234811305265 -0.010354943822222134 3.136982955806934 0 0 0
108 1 14.151696165676835 1.5632348649243413 4.710541024158353 0 0 0
109 1 15.725157415689575 22.0199019419642 3.1369829592264944 0 -1 0
110 1 17.298618721325266 1.5632348395613707 4.710541065428386 0 0 0
111 1 18.872080029825238 -0.010354942715764625 3.1369829565212126 0 0 0
112 1 20.44554133580752 1.5632348349824603 4.710541065132311 0 0 0
113 1 -0.009455642206521174 3.1368246123921146 3.1369829565390535 0 0 0
114 1 1.5640056525540156 4.71041438514929 4.710541061704687 0 0 0
115 1 3.1374669592927367 3.1368246040647434 3.1369829497804442 0 0 0
116 1 4.71092773387359 4.710414024613044 4.710540670917189 0 0 0
117 1 6.284389337078109 3.1368242868647482 3.1369827054527355 0 0 0
118 1 7.857837791024399 4.710396317794548 4.710527646252724 0 0 0
119 1 9.431312142931407 3.1368245600855436 3.136982948617524 0 0 0
120 1 11.004777932613866 4.710405246250504 4.710534469834107 0 0 0
121 1 12.578235065742808 3.136824281330661 3.136982656204412 0 0 0
122 1 14.15169529052019 4.710418075809813 4.710541538656421 0 0 0
123 1 15.725157363091348 3.1368248171653073 3.1369830249309354 0 0 0
124 1 17.298618841099948 4.710414364936878 4.710541358518446 0 0 0
125 1 18.8720800264793 3.136824617334843 3.136982956251221 0 0 0
126 1 20.44554132918344 4.710414395936382 4.7105410659662805 0 0 0
127 1 22.01900263795175 6.284004168745203 3.136982957992979 -1 0 0
128 1 1.5640055771951398 7.857593905564183 4.710541017545268 0 0 0
129 1 3.137466873513078 6.284004160383827 3.136982939335303 0 0 0
130 1 4.710924000946379 7.857594230012049 4.710541778937582 0 0 0
131 1 6.284382644769435 6.2839970768735895 3.136975783419418 0 0 0
132 1 7.85743152784835 7.857193286229175 4.710158704162159 0 0 0
133 1 9.431309609827625 6.284006444065155 3.136979787627286 0 0 0
134 1 11.004693643783618 7.857479025255956 4.710222855506481 0 0 0
135 1 12.578241361503787 6.284006918634322 3.1369864798151523 0 0 0
136 1 14.15112032071481 7.857930383521952 4.7111028100084775 0 0 0
137 1 15.725147475544231 6.284013870913384 3.13699302410076 0 0 0
138 1 17.29860438020984 7.857602294092536 4.710548310202178 0 0 0
139 1 18.872079692167024 6.284004362404036 3.1369831679711626 0 0 0
140 1 20.445541105838185 7.857593969257776 4.7105411043608685 0 0 0
141 1 -0.009455638475841598 9.43118372172916 3.1369829583123057 0 0 0
142 1 1.564005763700384 11.004773538925749 4.710541018776942 0 0 0
143 1 3.1374670525388177 9.431183980330506 3.136983030446608 0 0 0
144 1 4.710952843090091 11.0047766160582 4.710568062363546 0 0 0
145 1 6.28439817468436 9.431186661846114 3.136990992124339 0 0 0
146 1 7.857773808211238 11.004825778191455 4.710742021467596 0 0 0
147 1 9.431382517229666 9.431234189987975 3.137192959148726 0 0 0
148 1 10.999173528255124 10.999087700118135 4.680374225955257 0 0 0
149 1 12.57848490352374 9.43101829957829 3.1365136254132824 0 0 0
150 1 14.15371569770947 11.004142699095286 4.709931790235854 0 0 0
151 1 15.725173108921412 9.431154355459913 3.1369703373560607 0 0 0
152 1 17.29861888640369 11.004771333103308 4.710568497589782 0 0 0
153 1 18.872080547912226 9.4311836378581 3.1369827313962895 0 0 0
154 1 20.44554144930734 11.004773471963372 4.71054109021165 0 0 0
155 1 -0.009455638014020124 12.578363278531834 3.136982958618204 0 0 0
156 1 1.5640057207538551 14.15195306662637 4.710541061708612 0 0 0
157 1 3.1374669766597743 12.57836310949983 3.136982945965667 0 0 0
158 1 4.710930387644459 14.151949873128446 4.710544091192692 0 0 0
159 1 6.284400305270708 12.578363277528117 3.1369963652609156 0 0 0
160 1 7.857807440428477 14.152091970667954 4.7103326802346785 0 0 0
161 1 9.431188208474202 12.57859659118806 3.136641982681946 0 0 0
162 1 11.004546572504898 14.154557359390678 4.709353274367296 0 0 0
163 1 12.578742186208316 12.578893430421557 3.135538076103293 0 0 0
164 1 14.151523657721786 14.151677027955472 4.710574563805025 0 0 0
165 1 15.725162256850016 12.578380218994509 3.1369842989972394 0 0 0
166 1 17.298613201469067 14.151948296588527 4.710545555775023 0 0 0
167 1 18.872080396997145 12.57836328183641 3.1369828724306115 0 0 0
168 1 20.44554123453571 14.151953054926386 4.710541074899932 0 0 0
169 1 -0.009455643074345354 15.725542831133899 3.136982958298371 0 0 0
170 1 1.5640056730945806 17.29913260480761 4.710541069277914 0 0 0
171 1 3.1374670392600295 15.725542758431192 3.136983039805169 0 0 0
172 1 4.710928590882719 17.299132347181406 4.710541398726027 0 0 0
173 1 6.284387682983445 15.72554438087605 3.1369815841007815 0 0 0
174 1 7.857859491030156 17.299126599341534 4.7105481686452055 0 0 0
175 1 9.43128534543616 15.725563616013156 3.136965353873859 0 0 0
176 1 11.00477587688517 17.29913183493021 4.710576622550829 0 0 0
177 1 12.578262557690696 15.725553199435174 3.13698102951129 0 0 0
178 1 14.151683919457728 17.299118588317143 4.71055244634885 0 0 0
179 1 15.72515340034163 15.725538686699107 3.1369871882087703 0 0 0
180 1 17.298618919929893 17.299132902690655 4.710541063976711 0 0 0
181 1 18.87207985241746 15.725542729753816 3.1369830715825544 0 0 0
182 1 20.445541334699257 17.299132607642598 4.710541064972192 0 0 0
183 1 -0.00945564178990176 18.872722387555108 3.136982956664159 0 0 0
184 1 1.56400566437156 20.44631216509139 4.710541065332409 0 0 0
185 1 3.1374669756520848 18.87272238276669 3.1369829609663555 0 0 0
186 1 4.710928279401814 20.446312158577097 4.710541066416416 0 0 0
187 1 6.284389713193102 18.872722258909878 3.1369831055368356 0 0 0
188 1 7.8578509073705 20.446312034316914 4.7105410992415235 0 0 0
189 1 9.43131223172533 18.87272323754335 3.1369824914753055 0 0 0
190 1 11.004773529627643 20.446312234041343 4.710541126076513 0 0 0
191 1 12.578234859551387 18.872723783823375 3.136981947364687 0 0 0
192 1 14.151696060601635 20.44631190217459 4.710541127043818 0 0 0
193 1 15.725157183673414 18.872722081488632 3.136983204944821 0 0 0
194 1 17.298618724629698 20.446312168605125 4.710541058758075 0 0 0
195 1 18.87208002903212 18.87272238818915 3.136982953581097 0 0 0
196 1 20.44554133569299 20.446312165014028 4.71054106538028 0 0 0
197 1 -0.009455641906226461 -0.010354942841566859 6.284099173978346 0 0 0
198 1 1.5640056637279 1.5632348343253388 7.857657282654959 0 0 0
199 1 3.1374669701007822 -0.010354943570073312 6.284099173937419 0 0 0
200 1 4.710928265214903 1.5632348261912328 7.857657282690016 0 0 0
201 1 6.284389578492546 22.01990192175178 6.284099173639371 0 -1 0
202 1 7.857850699855594 1.563234201666223 7.857657285904387 0 0 0
203 1 9.431312136922754 22.01990165880532 6.284099118263528 0 -1 0
204 1 11.004773688389022 1.56322845601509 7.857657300272006 0 0 0
205 1 12.578234872818339 22.019901760693077 6.284099120213665 0 -1 0
206 1 14.15169612092728 1.563235032067602 7.857657297734414 0 0 0
207 1 15.725157412352079 -0.010354942063259842 6.284099175964553 0 0 0
208 1 17.29861872112918 1.5632348340354392 7.857657282630592 0 0 0
209 1 18.872080029472958 -0.010354943131512367 6.284099173862975 0 0 0
210 1 20.44554133558357 1.5632348351352785 7.857657282671853 0 0 0
211 1 -0.009455642245492817 3.136824612463662 6.284099173747029 0 0 0
212 1 1.564005644767402 4.710414374015468 7.857657282569565 0 0 0
213 1 3.1374669597379037 3.1368246061536036 6.284099178078011 0 0 0
214 1 4.710928924053105 4.710415442715506 7.857657293251155 0 0 0
215 1 6.284389574867437 3.136824348728186 6.284098929093407 0 0 0
216 1 7.857837887742788 4.710387262714202 7.857657563737765 0 0 0
217 1 9.431308387675521 3.1368092715301805 6.284095184573603 0 0 0
218 1 11.004780580026374 4.7098803631476445 7.857658260846106 0 0 0
219 1 12.5782385776623 3.136820430620351 6.284095484913267 0 0 0
220 1 14.151687624691778 4.710438009919715 7.857658475581033 0 0 0
221 1 15.72515745550181 3.1368249088385665 6.284099261102918 0 0 0
222 1 17.298620266140137 4.71041315232504 7.8576573055340155 0 0 0
223 1 18.872080039441112 3.1368246046950996 6.284099165975098 0 0 0
224 1 20.445541346055073 4.710414387128528 7.857657284788707 0 0 0
225 1 22.019002628815272 6.284004170052106 6.284099174470766 -1 0 0
226 1 1.5640054083515693 7.857593866665714 7.857657285495799 0 0 0
227 1 3.137466432209981 6.284003998657635 6.28409921431491 0 0 0
228 1 4.710928124025036 7.857620289533262 7.857657741416926 0 0 0
229 1 6.284365945990164 6.2839871290201765 6.284080238545162 0 0 0
230 1 7.856039943754291 7.856740961404083 7.857693670517442 0 0 0
231 1 9.43074397246097 6.283074579995637 6.283572833993117 0 0 0
232 1 11.007970204311215 7.827938942711486 7.857702270666975 0 0 0
233 1 12.578011322879911 6.284020875565751 6.283996424979409 0 0 0
234 1 14.150645915431088 7.858889824545741 7.857764710852654 0 0 0
235 1 15.725127561255288 6.284034790542995 6.284112104585217 0 0 0
236 1 17.298568389737714 7.857632913978719 7.857655495575881 0 0 0
237 1 18.872079822495643 6.284004097475002 6.284099507734936 0 0 0
238 1 20.4455408591629 7.857593965320358 7.85765726739485 0 0 0
239 1 22.019002520706774 9.431183685416066 6.284099139604028 -1 0 0
240 1 1.5640011393078406 11.004773624366308 7.857657341509045 0 0 0
241 1 3.137461788416818 9.431181159028144 6.284096221191487 0 0 0
242 1 4.710531422727552 11.004781218768871 7.857661963595292 0 0 0
243 1 6.2842764084003715 9.43128928815962 6.284089348292885 0 0 0
244 1 7.817207198566697 11.005784651720685 7.8580206015522265 0 0 0
245 1 9.418800712656026 9.420073455763939 6.26334733754934 0 0 0
246 1 20.445541335928695 20.446312165296874 20.446122152262923 0 0 0
247 1 12.593053632034579 9.412195696100603 6.275607471921467 0 0 0
248 1 14.186475945983725 10.994172257145001 7.859955098968976 0 0 0
249 1 15.72461075361865 9.43148380163853 6.2842372079660525 0 0 0
250 1 17.298885577321897 11.004770622731154 7.85766263946243 0 0 0
251 1 18.8720762339582 9.431181557852714 6.2840974843523805 0 0 0
252 1 20.44554428728625 11.004773499107534 7.857657311311388 0 0 0
253 1 22.01900262597796 12.578363318153066 6.2840991422205015 -1 0 0
254 1 1.5640060761290362 14.151953023472773 7.857657338865484 0 0 0
255 1 3.137466139556738 12.578366196121543 6.284096304312066 0 0 0
256 1 4.710971077985168 14.1519183317751 7.857661494577657 0 0 0
257 1 6.284642141868106 12.578261727194734 6.284204734513984 0 0 0
258 1 7.858575304068941 14.151336628663168 7.858063329013505 0 0 0
259 1 9.409114678015417 12.594534732207656 6.271363933087275 0 0 0
260 1 11.00368095074227 14.193576696866998 7.860297951559558 0 0 0
261 1 12.603555593349402 12.61168610529576 6.252016257008496 0 0 0
262 1 14.151938680928257 14.15284924805346 7.85798723163319 0 0 0
263 1 15.724893845322251 12.578135776055428 6.2842333783060305 0 0 0
264 1 17.298596217009568 14.151927456756875 7.857659283983228 0 0 0
265 1 18.872079687057074 12.578365394545656 6.284097361010568 0 0 0
266 1 20.445541132890224 14.151953036665777 7.85765732286377 0 0 0
267 1 -0.009455637140673613 15.7255428267974 6.28409917778684 0 0 0
268 1 1.5640056673264588 17.29913261237747 7.857657281918232 0 0 0
269 1 3.1374673587895234 15.725542708308362 6.284099553720871 0 0 0
270 1 4.710928332188644 17.299132611809057 7.857657551896935 0 0 0
271 1 6.284419541590968 15.725514672216143 6.284110360978766 0 0 0
272 1 7.857891209547443 17.299085814601828 7.857658259274312 0 0 0
273 1 9.431582986512703 15.724913785614488 6.284243131407131 0 0 0
274 1 11.004774241106695 17.299500815882894 7.857665552224697 0 0 0
275 1 12.577868559990495 15.724624589165785 6.284446209114599 0 0 0
276 1 14.1516549783715 17.29910363871496 7.857658974571854 0 0 0
277 1 15.725139655782236 15.725525473469983 6.284090029169461 0 0 0
278 1 17.298617513763766 17.299131523966757 7.857657555249887 0 0 0
279 1 18.872080032638575 15.725542857374537 6.284099352247874 0 0 0
280 1 20.445541329107048 17.299132613345378 7.857657284062417 0 0 0
281 1 -0.009455641860086869 18.872722387201115 6.284099173942674 0 0 0
282 1 1.5640056645084945 20.446312164935087 7.857657282574164 0 0 0
283 1 3.137466976329358 18.872722380010654 6.284099177365286 0 0 0
284 1 4.710928271110321 20.446312164973513 7.857657284341116 0 0 0
285 1 6.284389413558023 18.872722316314576 6.284099568378384 0 0 0
286 1 7.85785094489848 20.446311662068855 7.857657305324283 0 0 0
287 1 9.431309214250485 18.872718657477815 6.284096608612944 0 0 0
288 1 11.004773565906335 20.44631606910023 7.857657345110775 0 0 0
289 1 12.578237518600119 18.872715458665866 6.284096351802295 0 0 0
290 1 14.151695981391121 20.446311814602822 7.857657316461076 0 0 0
291 1 15.725158102438357 18.872723067301333 6.284099377365753 0 0 0
292 1 17.2986187388193 20.446312171823333 7.8576572839607906 0 0 0
293 1 18.87208002648359 18.872722380824314 6.2840991890243805 0 0 0
294 1 20.44554133618311 20.446312165404844 7.857657282597525 0 0 0
295 1 -0.009455641907944741 -0.010354942851638337 9.431215391335469 0 0 0
296 1 1.5640056638585091 1.563234834548403 11.004773500037288 0 0 0
297 1 3.137466970150093 -0.010354943526078316 9.43121539143362 0 0 0
298 1 4.710928265247411 1.5632348197575554 11.004773505323492 0 0 0
299 1 6.28438957918138 22.019901918785134 9.431215392383917 0 -1 0
300 1 7.857850754937997 1.563234486452862 11.004773642434447 0 0 0
301 1 9.431312141519985 22.0199016263101 9.431215453385587 0 -1 0
302 1 11.004773606786525 1.5632345753041819 11.004773628586356 0 0 0
303 1 12.578234868110647 22.01990172942841 9.431215451319925 0 -1 0
304 1 14.151696149079946 1.5632348735582027 11.00477352787452 0 0 0
305 1 15.725157411774033 -0.010354944673339894 9.431215390087804 0 0 0
306 1 17.298618721251263 1.5632348406882672 11.004773499885628 0 0 0
307 1 18.872080029403765 -0.01035494308848641 9.431215391520452 0 0 0
308 1 20.44554133584236 1.5632348349681313 11.00477350019631 0 0 0
309 1 -0.009455642187102166 3.13682461242513 9.431215391611428 0 0 0
310 1 1.5640056527968376 4.71041438540338 11.004773503898502 0 0 0
311 1 3.1374669595821705 3.136824605906494 9.431215387382919 0 0 0
312 1 4.710927717965574 4.71041400949721 11.004773898860789 0 0 0
313 1 6.284389555297905 3.136824333364362 9.431215644170434 0 0 0
314 1 7.857837955065076 4.710396991756196 11.004786741892058 0 0 0
315 1 9.431308429636436 3.136809586985157 9.431219446787818 0 0 0
316 1 11.004779426335142 4.710412300756479 11.004778607421638 0 0 0
317 1 12.578238536405356 3.1368226757335176 9.431219103897476 0 0 0
318 1 14.151694190467804 4.710418133516087 11.004771874284675 0 0 0
319 1 15.725157487064768 3.136824892524402 9.431215309527207 0 0 0
320 1 17.298618640861466 4.71041451665599 11.004773173939515 0 0 0
321 1 18.872080039467594 3.1368246063391925 9.431215401335214 0 0 0
322 1 20.445541325142422 4.710414398205224 11.004773496555428 0 0 0
323 1 22.019002627065824 6.284004170123829 9.431215390553588 -1 0 0
324 1 1.5640055918113323 7.85759391021972 11.004773548166416 0 0 0
325 1 3.1374664240165937 6.2840039867390285 9.43121535969912 0 0 0
326 1 4.71092456223023 7.857594238708989 11.004772410925517 0 0 0
327 1 6.2843662936599864 6.283987608288078 9.431235186961299 0 0 0
328 1 7.857476491605698 7.857234344490463 11.005120809886979 0 0 0
329 1 9.4307538233288 6.283094667797679 9.431747691473097 0 0 0
330 1 11.0049553378318 7.857812108557673 11.005124895168532 0 0 0
331 1 12.578036675163796 6.284189471178668 9.431321017492582 0 0 0
332 1 14.15114204068308 7.857842199178825 11.004158482475342 0 0 0
333 1 15.725128073143221 6.2840327252447 9.431202298012538 0 0 0
334 1 17.298609038300256 7.857597851158736 11.004768956558175 0 0 0
335 1 18.872079549156602 6.284004335083953 9.431215007282042 0 0 0
336 1 20.44554115956419 7.857593960927479 11.004773486308876 0 0 0
337 1 22.019002549552773 9.431183690826668 9.431215431348912 -1 0 0
338 1 1.5640059709173613 11.004773592155425 11.004773493138664 0 0 0
339 1 3.1374620491566647 9.431180980628927 9.43121848312006 0 0 0
340 1 4.710965342995746 11.004780899061206 11.004741829940865 0 0 0
341 1 6.284311499823262 9.43131061953278 9.431231228562215 0 0 0
342 1 7.858346680876871 11.005353281176392 11.004293938846217 0 0 0
343 1 9.418575531853804 9.420113323662491 9.451893032851142 0 0 0
344 1 11.00498258933204 11.005451095913028 11.037112632069178 0 0 0
345 1 12.589663818802409 9.422337177422962 9.439702589623382 0 0 0
346 1 14.150233741784147 11.004642373567519 11.003229379465374 0 0 0
347 1 15.72478214995597 9.431326052902596 9.431138819102843 0 0 0
348 1 17.298568220951438 11.004775924615096 11.004739084634585 0 0 0
349 1 18.872078403798685 9.43118158059793 9.431217537733822 0 0 0
350 1 20.445540814580266 11.004773527526837 11.00477346442166 0 0 0
351 1 -0.009455635307011502 12.57836331424491 9.431215430217923 0 0 0
352 1 1.5640058405248987 14.151953009799074 11.004773452599755 0 0 0
353 1 3.137473664505668 12.5783661690323 9.431218255728117 0 0 0
354 1 4.710935850031414 14.15194599290907 11.004766419331034 0 0 0
355 1 6.285245798874217 12.578295609900598 9.431134902158353 0 0 0
356 1 7.857976563056314 14.151836434779861 11.004650062717806 0 0 0
357 1 9.417599212538809 12.593041250087047 9.446013553372696 0 0 0
358 1 11.004753245876978 14.150799850598299 11.003533235124962 0 0 0
359 1 12.59247323709982 12.600608140562551 9.465693257928736 0 0 0
360 1 14.151584334348671 14.151735304205003 11.004463989531617 0 0 0
361 1 15.724461903812983 12.578354582722621 9.431146943111452 0 0 0
362 1 17.2986140261685 14.151948449334057 11.004768084527859 0 0 0
363 1 18.87207433118619 12.578365207255048 9.431217538869658 0 0 0
364 1 20.445541191389676 14.151953008756696 11.004773462339049 0 0 0
365 1 -0.009455638842645168 15.725542825543158 9.431215389386201 0 0 0
366 1 1.5640056755422422 17.299132604403535 11.004773498173936 0 0 0
367 1 3.137467205161873 15.725543041810349 9.431215088841297 0 0 0
368 1 4.710928760077578 17.299132128393627 11.00477298127533 0 0 0
369 1 6.284435089294578 15.725497530348317 9.431209455376502 0 0 0
370 1 7.857857758613737 17.299125483444648 11.004766181360676 0 0 0
371 1 9.431406924012888 15.724670052605724 9.431145887261831 0 0 0
372 1 11.004777325057983 17.299075705021252 11.004728283526207 0 0 0
373 1 12.578099094339771 15.724239000781802 9.430942806479251 0 0 0
374 1 14.151684766981917 17.29911998835257 11.00476151476368 0 0 0
375 1 15.725123772232772 15.725509556725045 9.43122625762603 0 0 0
376 1 17.298618563694003 17.29913254145331 11.004773259156162 0 0 0
377 1 18.872079901600642 15.725542940249758 9.431215225270629 0 0 0
378 1 20.445541328848687 17.299132605369053 11.00477349932327 0 0 0
379 1 -0.009455641811189387 18.872722387025448 9.431215391447777 0 0 0
380 1 1.5640056643781977 20.446312165107784 11.004773500131268 0 0 0
381 1 3.137466969321478 18.872722388895536 9.431215392136217 0 0 0
382 1 4.710928282291056 20.44631215284753 11.00477349796697 0 0 0
383 1 6.28438938073301 18.87272214249046 9.43121501655936 0 0 0
384 1 7.85785093678406 20.446311976356654 11.004773456285664 0 0 0
385 1 9.431309007780488 18.872715956594675 9.431218284059556 0 0 0
386 1 11.004773541065575 20.44631148486652 11.00477339733169 0 0 0
387 1 12.578237529867035 18.87271083259735 9.431218400934489 0 0 0
388 1 14.151696018315508 20.446311866015225 11.004773416619184 0 0 0
389 1 15.725158219689515 18.87272296421244 9.431215193453957 0 0 0
390 1 17.298618722493245 20.446312162710715 11.004773505554988 0 0 0
391 1 18.872080033414495 18.8727223876401 9.431215382114116 0 0 0
392 1 20.44554133575133 20.446312165070875 11.004773500078997 0 0 0
393 1 -0.009455641907008344 -0.01035494283690934 12.578331608676603 0 0 0
394 1 1.5640056640423925 1.5632348347042977 14.151889717448098 0 0 0
395 1 3.137466970128806 -0.010354943306511691 12.578331608745371 0 0 0
396 1 4.710928272763094 1.5632348304296386 14.15188972091564 0 0 0
397 1 6.284389581093434 22.01990193514391 12.57833160998058 0 -1 0
398 1 7.85785088739889 1.5632348283498922 14.151889724522745 0 0 0
399 1 9.431312198051723 22.01990192173264 12.578331607374974 0 -1 0
400 1 11.004773501254919 1.5632348346960603 14.151889722358463 0 0 0
401 1 12.578234806242014 22.019901928784517 12.57833160392579 0 -1 0
402 1 14.151696116027205 1.5632348333483863 14.15188971859304 0 0 0
403 1 15.725157414806494 22.019901941159024 12.578331605643184 0 -1 0
404 1 17.298618721982912 1.5632348384517152 14.151889715407053 0 0 0
405 1 18.872080029737134 -0.010354942814466772 12.578331608726709 0 0 0
406 1 20.44554133584662 1.5632348349311305 14.151889717307798 0 0 0
407 1 -0.009455642263555972 3.1368246124366204 12.578331608723206 0 0 0
408 1 1.5640056628774783 4.710414389776123 14.151889717798559 0 0 0
409 1 3.1374669596222504 3.136824604419519 12.578331615600987 0 0 0
410 1 4.7109281852553355 4.710414305264403 14.15188981416163 0 0 0
411 1 6.284389345712816 3.136824306263091 12.578331854013609 0 0 0
412 1 7.857850907214409 4.710414419126586 14.151889932197287 0 0 0
413 1 9.431312205635598 3.1368247165669594 12.578331558257386 0 0 0
414 1 11.004773652398923 4.710414692737791 14.151889811728077 0 0 0
415 1 12.578235007525366 3.136824479707793 12.578331867780518 0 0 0
416 1 14.151696106617017 4.7104141134272535 14.151890052664525 0 0 0
417 1 15.725157355843402 3.136824813176753 12.57833153819411 0 0 0
418 1 17.2986185591726 4.710414561180848 14.1518895497593 0 0 0
419 1 18.872080024340658 3.136824618955673 12.578331606951789 0 0 0
420 1 20.44554133108079 4.710414393049901 14.151889714337516 0 0 0
421 1 22.01900263922298 6.284004168629712 12.57833160783752 -1 0 0
422 1 1.56400567026773 7.857593950422278 14.151889713508039 0 0 0
423 1 3.1374668944831536 6.284004172078978 12.57833161952799 0 0 0
424 1 4.710928584961609 7.857594203148039 14.151889469335869 0 0 0
425 1 6.284383476526459 6.283997976927861 12.578337971166762 0 0 0
426 1 7.85785578098519 7.857598509299228 14.151889748890136 0 0 0
427 1 9.43131415512564 6.284013772257957 12.578329410681464 0 0 0
428 1 11.004774845945844 7.8576230654998405 14.151865617003908 0 0 0
429 1 12.578239354782044 6.2840164044678755 12.57832298267839 0 0 0
430 1 14.1516899511131 7.857599175319941 14.151877793940061 0 0 0
431 1 15.725148349007398 6.284013609127156 12.578322374736993 0 0 0
432 1 17.298618648053154 7.857594367333527 14.151889654659637 0 0 0
433 1 18.872079754909226 6.284004318771203 12.578331461103986 0 0 0
434 1 20.445541321956703 7.857593950877073 14.151889707103066 0 0 0
435 1 22.01900263769677 9.431183727898059 12.57833160184504 -1 0 0
436 1 1.5640056702217384 11.004773499908719 14.151889718730732 0 0 0
437 1 3.137467344263247 9.431184111023475 12.578331404083393 0 0 0
438 1 4.71092869269563 11.004773876434719 14.151889352237605 0 0 0