LAMMPS data file via write_data, version 2 Aug 2023, timestep = 120, units = metal

689 atoms
3 atom types

-0.001769744625508152 22.01131674148127 xlo xhi
-0.0032918391670391394 22.012838836022777 ylo yhi
-0.00567196464969825 22.01521896150541 zlo zhi

Masses

1 183.84
2 1.008
3 4.0026

Atoms # atomic

1 1 -0.0017697418176845577 -0.0032918363583435413 -0.0056719618708017385 0 0 0
2 1 1.5705935786681033 1.569288926149164 1.5672488188728966 0 0 0
3 1 3.1429568995471557 -0.0032918363586963667 -0.005671961213535142 0 0 0
4 1 4.715320233794168 1.5692889489417974 1.5672488341912394 0 0 0
5 1 6.287683541252812 -0.003291836176868699 -0.005671960055890259 0 0 0
6 1 7.860046895034938 1.5692889956173803 1.5672488555016408 0 0 0
7 1 9.432410179737788 -0.003291835885871713 -0.00567196086394163 0 0 0
8 1 11.00477350024451 1.5692889609226452 1.5672488237373927 0 0 0
9 1 12.577136819891416 -0.0032918362675376086 -0.005671960932713028 0 0 0
10 1 14.149500100563781 1.569289001526068 1.5672488589530402 0 0 0
11 1 15.721863458890935 -0.0032918354767287276 -0.005671960307836451 0 0 0
12 1 17.294226770276868 1.5692889427924916 1.5672488302972047 0 0 0
13 1 18.866590100772296 -0.003291836259011369 -0.005671961421427107 0 0 0
14 1 20.438953421652005 1.5692889262853298 1.5672488187553868 0 0 0
15 1 -0.0017697418188344298 3.1418696891842983 -0.005671961214320749 0 0 0
16 1 1.5705936004528567 4.714450465299195 1.5672488333577668 0 0 0
17 1 3.1429569115562965 3.141869701286546 -0.005671949261734184 0 0 0
18 1 4.715320816906579 4.714451060193525 1.567249430284447 0 0 0
19 1 6.287683583107722 3.1418697322021076 -0.005671918458287014 0 0 0
20 1 7.860048526631281 4.714452411636643 1.567250775322782 0 0 0
21 1 9.432410188427996 3.1418696853343193 22.01521896145899 0 0 -1
22 1 11.00477366862228 4.714451190828292 1.567249562805014 0 0 0
23 1 12.577136812313487 3.1418696635708754 22.015218939697437 0 0 -1
24 1 14.149498139884457 4.714452585802577 1.5672509510000827 0 0 0
25 1 15.721863413001124 3.1418697373597166 -0.005671913351893383 0 0 0
26 1 17.294226349485278 4.714450874003328 1.5672492434880063 0 0 0
27 1 18.86659009170112 3.1418696977068032 -0.005671952786787042 0 0 0
28 1 20.438953399757093 4.714450466728862 1.567248834468119 0 0 0
29 1 -0.0017697407247150834 6.287031213539821 -0.005671962263543774 0 0 0
30 1 1.5705936210951548 7.859612003673604 1.5672488339915391 0 0 0
31 1 3.14295692228833 6.287031250104106 -0.005671938470183959 0 0 0
32 1 4.715321702971057 7.859613781552337 1.5672503309202979 0 0 0
33 1 6.287684094459858 6.287031807419262 -0.005671016073545764 0 0 0
34 1 7.860063580950088 7.8596293044047645 1.5672776757510873 0 0 0
35 1 9.43241100856158 6.2870322895111235 -0.0056694269121126415 0 0 0
36 1 11.004769718938972 7.859656513845951 1.5673239240727288 0 0 0
37 1 12.577135837979712 6.287032309190619 -0.005669216665516802 0 0 0
38 1 14.149486329054406 7.859626248024278 1.567269634004756 0 0 0
39 1 15.721863047338397 6.287031682557586 -0.005671272654796351 0 0 0
40 1 17.294226062045592 7.859613080645748 1.5672496380223773 0 0 0
41 1 18.86659008737871 6.287031236025815 -0.005671944839281914 0 0 0
42 1 20.43895342779601 7.859611972303939 1.5672487957483265 0 0 0
43 1 -0.0017697432248554776 9.432192737295297 -0.005671961329108143 0 0 0
44 1 1.5705935552727919 11.004773500166596 1.5672487559630823 0 0 0
45 1 3.142956812802132 9.432192760337108 22.015218878832684 0 0 -1
46 1 4.7153209358221995 11.004773519646522 1.5672495454388884 0 0 0
47 1 6.287684118228503 9.43219372930086 -0.0056697919653579424 0 0 0
48 1 7.860094305961888 11.004772667561346 1.567331284880707 0 0 0
49 1 9.432411215626782 9.432194346592619 -0.005646538558639469 0 0 0
50 1 11.004755168543822 11.004758685280008 1.5674092198015086 0 0 0
51 1 12.577135081719995 9.432194738711269 -0.005650989593070938 0 0 0
52 1 14.149471058695408 11.004758845638419 1.567289537231836 0 0 0
53 1 15.721863609152912 9.432193101797903 -0.005671113279323006 0 0 0
54 1 17.29422594251174 11.004772701909939 1.5672494797936656 0 0 0
55 1 18.86659019482543 9.432192741879447 22.015218862302252 0 0 -1
56 1 20.438953451821636 11.004773514454088 1.5672487707056106 0 0 0
57 1 -0.001769741262239576 12.577354263168697 -0.005671964092313569 0 0 0
58 1 1.5705936205258755 14.149934995060212 1.5672488361847992 0 0 0
59 1 3.142956809028198 12.577354239753047 22.0152188744365 0 0 -1
60 1 4.715321721715173 14.14993317909213 1.5672503517614331 0 0 0
61 1 6.287684151787472 12.577353243764744 -0.005669742992551936 0 0 0
62 1 7.860063427350419 14.149917928244415 1.5672771000545611 0 0 0
63 1 9.432412253434565 12.577352207547184 -0.005645992540088304 0 0 0
64 1 11.00475765661564 14.149903492110175 1.5673034363262128 0 0 0
65 1 12.577135098214212 12.577352294214666 22.015217998003866 0 0 -1
66 1 14.149497913640333 14.149932442824948 1.5672529930790788 0 0 0
67 1 15.721862806099368 12.577353508832067 -0.005670811898338735 0 0 0
68 1 17.294226016097678 14.149934170379986 1.5672492767908972 0 0 0
69 1 18.866590125700068 12.577354234698369 22.015218945059175 0 0 -1
70 1 20.438953366814992 14.149934994478134 1.5672488573861367 0 0 0
71 1 -0.001769742007423199 15.722515785639688 -0.005671960925331696 0 0 0
72 1 1.5705936004170837 17.295096535811027 1.5672488323076426 0 0 0
73 1 3.142956923190713 15.722515749423726 -0.005671937503627768 0 0 0
74 1 4.715320791342412 17.295095961152878 1.56724941074061 0 0 0
75 1 6.28768409008394 15.72251520808323 -0.005671030411961204 0 0 0
76 1 7.86004809573039 17.295095021814006 1.567250264334107 0 0 0
77 1 9.432410641697329 15.72251510672257 -0.005670144942698246 0 0 0
78 1 11.004773146483988 17.295095461419926 1.5672501113743629 0 0 0
79 1 12.577135885483681 15.722514823232434 -0.005669941040176549 0 0 0
80 1 14.149498717944848 17.29509520971254 1.5672503480737956 0 0 0
81 1 15.72186335921659 15.722515657822486 -0.0056718757128562105 0 0 0
82 1 17.294226706712095 17.29509646394919 1.5672488325438905 0 0 0
83 1 18.866590091201463 15.722515777420789 -0.005671959255100473 0 0 0
84 1 20.438953423524154 17.295096553999425 1.5672488157086475 0 0 0
85 1 -0.0017697414053430803 18.867677311305613 -0.005671961562870282 0 0 0
86 1 1.570593578667911 20.44025807408026 1.5672488188456244 0 0 0
87 1 3.1429569111063156 18.867677299224713 -0.005671949626498065 0 0 0
88 1 4.715320232678047 20.440258052786525 1.5672488328638061 0 0 0
89 1 6.287683574197868 18.8676772766418 -0.005671928301291811 0 0 0
90 1 7.860046890694192 20.440258014454276 1.5672488516449732 0 0 0
91 1 9.432410186100848 18.867677318876687 22.015218960480013 0 0 -1
92 1 11.004773494149418 20.440258058529274 1.5672488080115186 0 0 0
93 1 12.577136797401348 18.867677317092628 -0.005671964318157106 0 0 0
94 1 14.1495001096153 20.440258032585938 1.5672488425056212 0 0 0
95 1 15.721863431411451 18.86767728031882 -0.005671927227247101 0 0 0
96 1 17.29422677168481 20.440258062848788 1.5672488288742612 0 0 0
97 1 18.866590099233512 18.867677309421335 -0.0056719609162868435 0 0 0
98 1 20.438953422783502 20.44025807547789 1.5672488174560673 0 0 0
99 1 -0.0017697419387571352 -0.0032918365354846196 3.1401695988840737 0 0 0
100 1 1.5705935771934898 1.5692889248886692 4.713090377373128 0 0 0
101 1 3.1429568987051795 -0.0032918365300850113 3.1401695994115206 0 0 0
102 1 4.7153202200863396 1.5692889433790496 4.713090394171486 0 0 0
103 1 6.287683558242699 -0.0032918333886679777 3.14016961939979 0 0 0
104 1 7.860047125702103 1.5692897439750015 4.713090675501065 0 0 0
105 1 9.432410200835177 -0.0032918274583612923 3.1401696299739807 0 0 0
106 1 11.004773447446633 1.5692907728276742 4.713090786410467 0 0 0
107 1 12.577136791922095 -0.0032918212897260794 3.14016963385079 0 0 0
108 1 14.149499912358488 1.5692895737737513 4.713090636681184 0 0 0
109 1 15.721863446971527 -0.003291829915985208 3.1401696146424247 0 0 0
110 1 17.29422679441909 1.5692889254339197 4.7130903763347245 0 0 0
111 1 18.866590103536094 -0.003291833432300086 3.1401695969960244 0 0 0
112 1 20.438953423129746 1.56928892378716 4.713090377070062 0 0 0
113 1 -0.0017697405828296492 3.1418696870904568 3.140169598360874 0 0 0
114 1 1.5705935958891768 4.714450450362882 4.713090393021356 0 0 0
115 1 3.142956909004132 3.1418696986882466 3.1401696241346544 0 0 0
116 1 4.7153209392870545 4.71445119998288 4.7130921443474065 0 0 0
117 1 6.287684071424389 3.1418706104484193 3.1401701771248045 0 0 0
118 1 7.860062453054597 4.714478616560944 4.713107457611342 0 0 0
119 1 9.432411033258095 3.1418722576922646 3.1401706957111855 0 0 0
120 1 11.004769672914579 4.714528259160387 4.713135915671358 0 0 0
121 1 12.577135811774017 3.1418724698424367 3.1401707173815963 0 0 0
122 1 14.149487666453387 4.714470303247279 4.713104479391785 0 0 0
123 1 15.72186307540319 3.1418703496281637 3.140170048663547 0 0 0
124 1 17.294226531774726 4.714450820110192 4.713091423902081 0 0 0
125 1 18.866590096592 3.1418696967407747 3.1401696141655937 0 0 0
126 1 20.438953458505523 4.71445040369174 4.713090353787936 0 0 0
127 1 -0.0017697414402966173 6.287031231970217 3.1401696188695594 0 0 0
128 1 1.5705943891532486 7.859612243229752 4.713090654029863 0 0 0
129 1 3.142957778367704 6.287031749504468 3.1401701436348852 0 0 0
130 1 4.715348484382136 7.859628337526338 4.713107732595271 0 0 0
131 1 6.287706075430777 6.2870540267843165 3.140192439013183 0 0 0
132 1 7.860708589983111 7.860275868977571 4.713750885226649 0 0 0
133 1 9.432438481354902 6.287109028978058 3.1402472446093936 0 0 0
134 1 11.004561687614778 7.8612130707294625 4.714678950032053 0 0 0
135 1 12.577101286124778 6.287126869187277 3.1402650715267404 0 0 0
136 1 14.149058269297248 7.860007893159767 4.713482444120313 0 0 0
137 1 15.721848169194809 6.287046362119287 3.140184750418629 0 0 0
138 1 17.2942019276715 7.8596286551365875 4.7131072456656495 0 0 0
139 1 18.866589247289618 6.287031816054832 3.140170208452606 0 0 0
140 1 20.43895285129965 7.859612010261334 4.71309041693614 0 0 0
141 1 -0.0017697229086370719 9.4321927580863 3.1401696178039353 0 0 0
142 1 1.5705954613975803 11.004773484786437 4.71309070932474 0 0 0
143 1 3.1429590869373643 9.432193729797701 3.140170216082241 0 0 0
144 1 4.715405095940049 11.004772994832953 4.7131388391932525 0 0 0
145 1 6.28776669854984 9.432227069718795 3.1402530059134266 0 0 0
146 1 7.861863633075304 11.004750297517477 4.7149095762258675 0 0 0
147 1 9.432540713682187 9.43231837939628 3.141310664463219 0 0 0
148 1 11.00420101694977 11.003846393368518 4.705793271387503 0 0 0
149 1 12.576980730774554 9.432274257222534 3.141066999558672 0 0 0
150 1 14.148231308482398 11.003841696794732 4.713934996100045 0 0 0
151 1 15.721802226380644 9.432198406198914 3.1402236188163766 0 0 0
152 1 17.29416154194274 11.00475137801984 4.713131815129246 0 0 0
153 1 18.8665894506331 9.43219293654123 3.140168912705897 0 0 0
154 1 20.43895143179092 11.00477299751788 4.713091546744465 0 0 0
155 1 22.011316721260005 12.577354221360771 3.140169647590697 -1 0 0
156 1 1.5705943871899322 14.14993477222739 4.713090640448629 0 0 0
157 1 3.1429591035546935 12.577353247794628 3.1401702158983475 0 0 0
158 1 4.715347005396179 14.1499191692678 4.71310715617948 0 0 0
159 1 6.287768500496595 12.577319070035824 3.140255195767806 0 0 0
160 1 7.860662193319436 14.149303797347942 4.713719729525026 0 0 0
161 1 9.432528676265036 12.577200781432987 3.141293160862886 0 0 0
162 1 11.00379959882147 14.148914378004102 4.714211830515591 0 0 0
163 1 12.576978007001223 12.577148328384594 3.1400220319776233 0 0 0
164 1 14.149743003725234 14.150029036010476 4.7131448203568755 0 0 0
165 1 15.72181383624691 12.577323243876737 3.1402082691251514 0 0 0
166 1 17.29424351871038 14.149949734709523 4.713078958610099 0 0 0
167 1 18.866587870062983 12.577353256664061 3.1401708811769606 0 0 0
168 1 20.438954180423103 14.149935503547661 4.7130899446051915 0 0 0
169 1 -0.001769704279519558 15.722515788690274 3.140169599318046 0 0 0
170 1 1.5705935959705946 17.295096549383718 4.713090392181918 0 0 0
171 1 3.1429577381520906 15.72251527303231 3.1401701225005723 0 0 0
172 1 4.715320896580993 17.295095790526634 4.713092120471697 0 0 0
173 1 6.287704934403379 15.722493962705371 3.1401915578977118 0 0 0
174 1 7.860059649548101 17.295071788457268 4.713103429339177 0 0 0
175 1 9.432420884275974 15.722455200722491 3.1402273447832387 0 0 0
176 1 11.004767375350369 17.29502834556212 4.713136595643881 0 0 0
177 1 12.577102902868084 15.722445144880766 3.140242103931134 0 0 0
178 1 14.149489962846332 17.295083885961766 4.713105860667245 0 0 0
179 1 15.72186297180116 15.722514753578885 3.140168164447793 0 0 0
180 1 17.294229314430968 17.29509954325303 4.713087553153149 0 0 0
181 1 18.866590315638586 15.722516150203166 3.140169347380608 0 0 0
182 1 20.438953496156536 17.295096582811215 4.713090329182997 0 0 0
183 1 -0.0017697398476471228 18.867677312763973 3.140169597862748 0 0 0
184 1 1.570593577158921 20.440258075362944 4.713090377451826 0 0 0
185 1 3.1429569082631263 18.867677301178606 3.1401696236228185 0 0 0
186 1 4.715320226217978 20.440258049515062 4.713090399075551 0 0 0
187 1 6.287684007361393 18.867676470149068 3.140170097479968 0 0 0
188 1 7.860047063996564 20.440257386455084 4.713090611249599 0 0 0
189 1 9.432410976012195 18.867675154070785 3.1401705365147894 0 0 0
190 1 11.004773348944417 20.440256556947293 4.713090665646552 0 0 0
191 1 12.57713584679441 18.86767533353759 3.1401705309664605 0 0 0
192 1 14.149500015641522 20.440257708036988 4.713090517818951 0 0 0
193 1 15.721863098881744 18.867676858395654 3.1401700388634097 0 0 0
194 1 17.29422685180204 20.440258198911906 4.713090316486348 0 0 0
195 1 18.86659016125232 18.867677384384148 3.1401695371179543 0 0 0
196 1 20.43895341664097 20.440258068874027 4.71309038217822 0 0 0
197 1 -0.001769741356889835 -0.003291835861871894 6.286011159151328 0 0 0
198 1 1.570593575842563 1.5692889232839098 7.8589319390314065 0 0 0
199 1 3.1429568980881326 -0.0032918358505646156 6.286011157473016 0 0 0
200 1 4.715320131031268 1.5692888595032286 7.858931944979806 0 0 0
201 1 6.287683553286774 22.012838832195428 6.286011182531119 0 -1 0
202 1 7.8600471331312 1.5692906907461464 7.858931915578248 0 0 0
203 1 9.43241022429033 -0.003291745420995442 6.2860112163702375 0 0 0
204 1 11.004773171132666 1.569293134580192 7.858931614436696 0 0 0
205 1 12.577136737614376 -0.0032915688156734267 6.28601120392775 0 0 0
206 1 14.149500226440475 1.5692895563934044 7.858931653622548 0 0 0
207 1 15.721863488868811 -0.003291755421437038 6.286011138199981 0 0 0
208 1 17.294226839052882 1.5692888745411264 7.858931950160894 0 0 0
209 1 18.866590097485066 22.012838832285183 6.286011159451279 0 -1 0
210 1 20.438953423157503 1.5692889249200839 7.858931940862167 0 0 0
211 1 22.01131674126058 3.141869691449015 6.2860111586061755 -1 0 0
212 1 1.5705935127117572 4.714450360920172 7.858931944121572 0 0 0
213 1 3.142956761454477 3.1418695506355596 6.286011175236316 0 0 0
214 1 4.715320618230035 4.714450856527747 7.858932311328936 0 0 0
215 1 6.287683328150563 3.1418710379075723 6.286012096100786 0 0 0
216 1 7.860092072249683 4.7145298448754165 7.858928635143895 0 0 0
217 1 9.432410701284626 3.14189522010735 6.286012450317805 0 0 0
218 1 11.004754604177215 4.7145872895495335 7.858912013461209 0 0 0
219 1 12.577135722200481 3.141890499978351 6.2860129866945496 0 0 0
220 1 14.149473898454382 4.714485921604899 7.858914320884937 0 0 0
221 1 15.72186426683635 3.141869844730898 6.286011449045544 0 0 0
222 1 17.294226853967206 4.714450191301276 7.8589313271786105 0 0 0
223 1 18.866590234988184 3.141869537324347 6.286011155968424 0 0 0
224 1 20.43895348171726 4.714450385400568 7.858931975441379 0 0 0
225 1 -0.0017697167364730234 6.28703122620799 6.286011176356245 0 0 0
226 1 1.5705953069867877 7.859612223805477 7.858931894341149 0 0 0
227 1 3.142958177316526 6.287030972803431 6.286012064231096 0 0 0
228 1 4.715399042237889 7.859657014375693 7.858928973888185 0 0 0
229 1 6.287763064154957 6.287111162986461 6.286042294370048 0 0 0
230 1 7.861729034817096 7.861310516348239 7.858751542936841 0 0 0
231 1 9.432528580117106 6.288161931721405 6.286135069480023 0 0 0
232 1 11.004140474551106 7.851422739765742 7.857707645644486 0 0 0
233 1 12.576990310600854 6.287916077635075 6.286087988182077 0 0 0
234 1 14.14838628164658 7.8603139302072895 7.857809896698596 0 0 0
235 1 15.72180630283858 6.2870816086599035 6.2860128396970385 0 0 0
236 1 17.29416774537077 7.85964995404452 7.858907668669742 0 0 0
237 1 18.866590666152554 6.287029379764813 6.28601125107039 0 0 0
238 1 20.4389515929394 7.859613062233704 7.8589314142715425 0 0 0
239 1 -0.001769357763800133 9.432192531001164 6.286010954140353 0 0 0
240 1 1.5705992789653622 11.004773475506665 7.858931844789314 0 0 0
241 1 3.1429832331725738 9.432193763204227 6.286012562659859 0 0 0
242 1 4.715493235950805 11.004772810742123 7.858926586934501 0 0 0
243 1 6.288853396863369 9.432336905540854 6.2861650419633275 0 0 0
244 1 7.852443161094643 11.00481861445078 7.858673071789934 0 0 0
245 1 9.433320193812541 9.43263143540068 6.286952778076465 0 0 0
246 1 20.438953421586167 20.440258074050128 20.442298181672026 0 0 0
247 1 12.577233422402584 9.424391442294914 6.2786413572580555 0 0 0
248 1 14.195814617212875 10.995394886248388 7.848992202507215 0 0 0
249 1 15.720426611022024 9.432020097207433 6.285833255173844 0 0 0
250 1 17.295636756972645 11.004771186058166 7.858935498255212 0 0 0
251 1 18.86657267112053 9.432178135808458 6.285996600521324 0 0 0
252 1 20.438980164372794 11.00477275973674 7.858931156627419 0 0 0
253 1 -0.0017684987615446334 12.577354457654861 6.2860109610930754 0 0 0
254 1 1.5705953041167604 14.149934803439573 7.858931898415526 0 0 0
255 1 3.1429823451426917 12.577353224237324 6.2860125545620695 0 0 0
256 1 4.715395579741541 14.149890705520436 7.858929097780671 0 0 0
257 1 6.28880955972123 12.577212172094587 6.286162866331895 0 0 0
258 1 7.861595084502458 14.148291399026883 7.858756095452942 0 0 0
259 1 9.43155444181614 12.57734394222227 6.286644640552266 0 0 0
260 1 11.000662263796611 14.163511912469618 7.858314962396638 0 0 0
261 1 12.577000152721393 12.589812540260246 6.262259020304584 0 0 0
262 1 14.152023071121661 14.15432077254204 7.858403569789669 0 0 0
263 1 15.722161262969252 12.577880402742808 6.2856802167587436 0 0 0
264 1 17.294301718297373 14.149956931403038 7.858914347383993 0 0 0
265 1 18.86661556213868 12.577370191693007 6.285996119993324 0 0 0
266 1 20.438954985857073 14.149934731833248 7.8589315605061865 0 0 0
267 1 -0.0017696643362690564 15.722515783626509 6.2860111533677125 0 0 0
268 1 1.5705935111369764 17.295096636106322 7.858931943914859 0 0 0
269 1 3.1429581195413605 15.722516041132673 6.286012040898976 0 0 0
270 1 4.715320748510904 17.295096051965583 7.858932295994412 0 0 0
271 1 6.287760981433824 15.722434830929792 6.286040779619471 0 0 0
272 1 7.860096996711008 17.295013062322116 7.858929392664703 0 0 0
273 1 9.432371358771825 15.721546947444622 6.286032650673591 0 0 0
274 1 11.00474331693767 17.295102877574546 7.8589209175373425 0 0 0
275 1 12.57699484126013 15.722148569485736 6.286319433734201 0 0 0
276 1 14.149485590925568 17.29518689240232 7.858923164361562 0 0 0
277 1 15.721954943109624 15.722618860339555 6.285917850871063 0 0 0
278 1 17.29422076496364 17.295091549476126 7.858932098847098 0 0 0
279 1 18.86659283161011 15.722516845931086 6.286009757950062 0 0 0
280 1 20.438953279307952 17.295096475957354 7.85893197437705 0 0 0
281 1 22.011316737467954 18.867677308453956 6.28601116086791 -1 0 0
282 1 1.5705935760118488 20.4402580772266 7.8589319390259496 0 0 0
283 1 3.1429567635654845 18.867677450772163 6.286011176004565 0 0 0
284 1 4.715320124883796 20.440258146644197 7.8589319431433005 0 0 0
285 1 6.287683632254435 18.867675633301086 6.286012172291795 0 0 0
286 1 7.86004717695776 20.4402562493274 7.858931913351259 0 0 0
287 1 9.432409477991419 18.86765625357429 6.286010892553362 0 0 0
288 1 11.004773236406914 20.440256700962205 7.858931788947524 0 0 0
289 1 12.577135923085825 18.867669564260996 6.286010762475037 0 0 0
290 1 14.149500149331667 20.44025994237731 7.8589318282367415 0 0 0
291 1 15.72186531063442 18.867681297907037 6.286010050493665 0 0 0
292 1 17.294226804757148 20.440258050665324 7.858931948023675 0 0 0
293 1 18.866589918665483 18.86767712657239 6.286011259011722 0 0 0
294 1 20.438953432156975 20.440258083010704 7.8589319392709935 0 0 0
295 1 -0.0017697411304145655 -0.0032918360562521395 9.431852720020236 0 0 0
296 1 1.5705935761430556 1.5692889236089798 11.004773502495668 0 0 0
297 1 3.1429568973167514 -0.0032918360792395748 9.431852722041052 0 0 0
298 1 4.71532023052755 1.5692889616510193 11.004773476449804 0 0 0
299 1 6.2876835543918705 22.012838832994355 9.431852693950049 0 -1 0
300 1 7.860047123348417 1.5692896428460554 11.004773216019933 0 0 0
301 1 9.432410251753712 -0.0032917351966407944 9.431852650642577 0 0 0
302 1 11.0047732037269 1.5692899811228653 11.004773410495714 0 0 0
303 1 12.57713673316885 22.012838806783115 9.431852676647711 0 -1 0
304 1 14.149500184377404 1.5692888772933893 11.004773522010177 0 0 0
305 1 15.721863462545585 -0.0032917453331623094 9.431852729524865 0 0 0
306 1 17.294226759717798 1.569288961077003 11.004773479615784 0 0 0
307 1 18.86659010025353 22.01283883275392 9.431852719991113 0 -1 0
308 1 20.438953422348806 1.5692889251822884 11.004773500534908 0 0 0
309 1 -0.0017697413096051866 3.1418696859099264 9.431852721825189 0 0 0
310 1 1.570593612267996 4.714450462184744 11.004773477433025 0 0 0
311 1 3.1429567089981996 3.1418694968183005 9.431852713411399 0 0 0
312 1 4.715321647386621 4.714451902789343 11.004771250367442 0 0 0
313 1 6.28768356834932 3.141871605303609 9.43185166019456 0 0 0
314 1 7.860060512922654 4.71447149255837 11.004759188899138 0 0 0
315 1 9.4324121960211 3.141892215312144 9.431850821612056 0 0 0
316 1 11.004757189027105 4.714499512502773 11.0047462793718 0 0 0
317 1 12.577135567445788 3.1418631450715946 9.431850905846458 0 0 0
318 1 14.149502362950532 4.714444230081826 11.004774163519622 0 0 0
319 1 15.721862774484125 3.141871004698742 9.431851907326793 0 0 0
320 1 17.294225525953465 4.714451448876279 11.004772381592323 0 0 0
321 1 18.86659017522231 3.141869619941585 9.431852711747434 0 0 0
322 1 20.438953358656022 4.714450493143616 11.004773467979698 0 0 0
323 1 22.01131671070685 6.287031261074001 9.431852679281636 -1 0 0
324 1 1.5705942619434485 7.85961219874958 11.004773271420724 0 0 0
325 1 3.1429586876719755 6.287031142588792 9.431851680205584 0 0 0
326 1 4.715339968703291 7.859625329776755 11.004759028753393 0 0 0
327 1 6.2877918576287835 6.287140351435317 9.431815982800682 0 0 0
328 1 7.860415613747937 7.859998397962706 11.004388394276374 0 0 0
329 1 9.432509773120191 6.287939804719916 9.431707955080716 0 0 0
330 1 11.003791050272424 7.860658838897731 11.003910272193183 0 0 0
331 1 12.576992020833702 6.286604418987425 9.431653102181974 0 0 0
332 1 14.150055116748424 7.859341148539208 11.005189558500481 0 0 0
333 1 15.72180136237649 6.28708325824293 9.431819621990062 0 0 0
334 1 17.29424971741112 7.85959898332405 11.004788210274182 0 0 0
335 1 18.86658784931332 6.287032401382214 9.431851714768664 0 0 0
336 1 20.438954262094942 7.859611529257895 11.004773985887823 0 0 0
337 1 -0.0017685263237689043 9.432192542624609 9.431852910156257 0 0 0
338 1 1.5705952586658827 11.004773489100987 11.004773271516171 0 0 0
339 1 3.1429785063141833 9.432193927643146 9.431851170160085 0 0 0
340 1 4.715393360011146 11.004773122044016 11.004730782113622 0 0 0
341 1 6.288603771293832 9.432329958636236 9.431707681098322 0 0 0
342 1 7.861611531398339 11.00475659821246 11.003160435971173 0 0 0
343 1 9.420613771545856 9.421428475411423 9.43392832042594 0 0 0
344 1 11.000605603795876 11.004452881222909 11.087325055295988 0 0 0
345 1 12.587742646350131 9.39732635228496 9.446210653842472 0 0 0
346 1 14.151937795698062 11.004423994301407 11.009155212892374 0 0 0
347 1 15.722318756009324 9.431904105797946 9.43233573765962 0 0 0
348 1 17.29430220680236 11.004757928306132 11.004796479782716 0 0 0
349 1 18.86661794162167 9.432177571166742 9.431867879607044 0 0 0
350 1 20.43895494113566 11.004773129309788 11.004773146640643 0 0 0
351 1 -0.0017679201795716708 12.57735443772078 9.431852895791954 0 0 0
352 1 1.5705942594533733 14.149934811611612 11.004773280714609 0 0 0
353 1 3.142977845581116 12.577353052486954 9.431851181145836 0 0 0
354 1 4.71533896951347 14.149922038975898 11.00475946528316 0 0 0
355 1 6.288570560491114 12.577218202905941 9.431708739576932 0 0 0
356 1 7.860386371578931 14.149580434333025 11.004418072124158 0 0 0
357 1 9.41928929690822 12.588827478745161 9.434502523334514 0 0 0
358 1 11.003837183295566 14.148453057342875 11.00335770177262 0 0 0
359 1 12.588160641441842 12.616724408320128 9.462256281374563 0 0 0
360 1 14.149959726260567 14.149719789091034 11.00454531356291 0 0 0
361 1 15.723586906308228 12.578228917716261 9.432722805418639 0 0 0
362 1 17.294274084607824 14.14997591427895 11.004814192964202 0 0 0
363 1 18.866648551217523 12.577370068042537 9.431868629662404 0 0 0
364 1 20.438955097744152 14.149935834068817 11.004774311245377 0 0 0
365 1 -0.0017697146464980002 15.722515757886939 9.431852708639486 0 0 0
366 1 1.5705936120260853 17.29509653836514 11.004773478882274 0 0 0
367 1 3.1429586127569755 15.72251587601014 9.431851710179536 0 0 0
368 1 4.71532157134912 17.29509510993976 11.004771299606485 0 0 0
369 1 6.287788734918218 15.722407227803018 9.431817761800179 0 0 0
370 1 7.860056275768749 17.295080470202137 11.004763087845376 0 0 0
371 1 9.432377662832993 15.721750826290572 9.431833466455624 0 0 0
372 1 11.004763710916246 17.29502995229198 11.004735870148409 0 0 0
373 1 12.576995724358977 15.72278164406077 9.43142406100559 0 0 0
374 1 14.149495769986933 17.295084142635115 11.004764061684494 0 0 0
375 1 15.721925242925186 15.722596520511965 9.431936221491894 0 0 0
376 1 17.29422963365166 17.29510034309041 11.004776098503362 0 0 0
377 1 18.866590214308083 15.722514556461821 9.431853508559634 0 0 0
378 1 20.43895342220012 17.29509650953862 11.004773504495976 0 0 0
379 1 -0.001769744342957862 18.867677313303798 9.431852719444667 0 0 0
380 1 1.5705935761320338 20.44025807659344 11.004773502406112 0 0 0
381 1 3.1429567118307213 18.86767750231992 9.43185271224652 0 0 0
382 1 4.715320237105001 20.44025803090419 11.004773473079643 0 0 0
383 1 6.287683768404923 18.867675182556102 9.431851579740536 0 0 0
384 1 7.860047036437993 20.44025752792136 11.00477329592526 0 0 0
385 1 9.432410164497202 18.867659665039287 9.43185282338409 0 0 0
386 1 11.004773267906247 20.440256669824052 11.004773371012083 0 0 0
387 1 12.577135759610039 18.867681457691134 9.431853399370317 0 0 0
388 1 14.149500126522524 20.440257752129696 11.004773479307723 0 0 0
389 1 15.721864622972301 18.86768048893863 9.431853723743242 0 0 0
390 1 17.29422684088756 20.440258200093254 11.00477355438055 0 0 0
391 1 18.86658996627834 18.867677150796467 9.431852605900797 0 0 0
392 1 20.438953415349612 20.440258066877295 11.004773496745901 0 0 0
393 1 -0.0017697420629534499 -0.0032918365626784865 12.577694280199692 0 0 0
394 1 1.5705935789074748 1.5692889264474223 14.150615059914676 0 0 0
395 1 3.1429568993567467 -0.0032918365503806016 12.577694279216491 0 0 0
396 1 4.7153202312208355 1.5692889444723295 14.15061504780196 0 0 0
397 1 6.2876835559902045 -0.0032918320948420914 12.577694262314495 0 0 0
398 1 7.860046883113719 1.5692889769927576 14.150615034592477 0 0 0
399 1 9.432410191101551 22.01283882682497 12.577694261418287 0 -1 0
400 1 11.004773493514586 1.5692889757530175 14.150615061484457 0 0 0
401 1 12.577136793963962 22.012838826623664 12.57769424362609 0 -1 0
402 1 14.149500110554932 1.5692889802359529 14.150615028802013 0 0 0
403 1 15.721863457145119 22.012838824935262 12.577694275761624 0 -1 0
404 1 17.294226781507252 1.5692889225015403 14.150615060614536 0 0 0
405 1 18.866590102775284 -0.0032918322201279386 12.577694281628451 0 0 0
406 1 20.43895342142578 1.5692889263763437 14.150615060303481 0 0 0
407 1 -0.0017697424112887849 3.141869689508589 12.57769427899661 0 0 0
408 1 1.5705935957064827 4.7144504615359795 14.150615049857635 0 0 0
409 1 3.1429569248171396 3.141869714517805 12.577694243507283 0 0 0
410 1 4.715320669733423 4.714450918269394 14.15061458642693 0 0 0
411 1 6.287683975872746 3.141870405262021 12.577693814505055 0 0 0
412 1 7.860048156293585 4.714451880739772 14.150613541808825 0 0 0
413 1 9.432410617382187 3.1418713765611375 12.577693744212754 0 0 0
414 1 11.004773019834346 4.714452948487171 14.150613581870463 0 0 0
415 1 12.577135890251773 3.1418715531210895 12.577693371060109 0 0 0
416 1 14.149498743454053 4.7144521566529045 14.150613532196857 0 0 0
417 1 15.721863512347742 3.1418694822129445 12.577694305861856 0 0 0
418 1 17.29422688685508 4.714450282488044 14.150615149793216 0 0 0
419 1 18.866590078942107 3.141869704988844 12.577694263878444 0 0 0
420 1 20.43895342839098 4.714450445724418 14.150615067638364 0 0 0
421 1 -0.001769705528229793 6.287031211399342 12.577694283619259 0 0 0
422 1 1.5705936225763948 7.859612000528347 14.150615044668813 0 0 0
423 1 3.1429575280872735 6.287031628588174 12.577693872736095 0 0 0
424 1 4.715321627083742 7.859613805018286 14.150613544982871 0 0 0
425 1 6.287699233685197 6.287047439806548 12.577678604627819 0 0 0
426 1 7.860055246266089 7.859620451138729 14.150599623179538 0 0 0
427 1 9.432419604073218 6.2870908255691225 12.577621398314074 0 0 0
428 1 11.004766885844234 7.859717345978063 14.150493260274235 0 0 0
429 1 12.577103012485313 6.2870974514080675 12.577619617980229 0 0 0
430 1 14.149493705958216 7.859622612618003 14.150612063343113 0 0 0
431 1 15.721871079544187 6.287021601271583 12.57770176207996 0 0 0
432 1 17.294228802487734 7.859609236673397 14.150617495471998 0 0 0
433 1 18.86659051641147 6.287030903676648 12.57769471172237 0 0 0
434 1 20.43895349180038 7.8596119258933825 14.150615094068163 0 0 0
435 1 -0.0017696497411334717 9.432192733437203 12.5776942761061 0 0 0
436 1 1.5705935809539346 11.004773500518198 14.15061511603257 0 0 0