LAMMPS data file via write_data, version 2 Aug 2023, timestep = 120, units = metal

689 atoms
3 atom types

0.0011721078981725389 22.0083748889576 xlo xhi
0.0017878282089069798 22.007759168646864 ylo yhi
-0.0012696453209440892 22.010816642176724 zlo zhi

Masses

1 183.84
2 1.008
3 4.0026

Atoms # atomic

1 1 22.008374887541056 0.001787851249040484 -0.0012695647978265409 -1 0 0
2 1 1.5731158693031815 1.5736437888774795 1.571023009588981 0 0 0
3 1 3.145058541327508 22.007758895669713 -0.001269315513542655 0 -1 0
4 1 4.717001730579806 1.5736437966724033 1.5710226851854192 0 0 0
5 1 6.28894533364244 22.007759086995208 -0.0012685774495785034 0 -1 0
6 1 7.860895709308935 1.5736535092199067 1.5710311896021107 0 0 0
7 1 9.43282942590066 0.0017882838565871167 22.010815710501788 0 0 -1
8 1 11.0047732563914 1.573641324987664 1.5710228288866568 0 0 0
9 1 12.576717568271574 0.001788163632877527 22.010815765326292 0 0 -1
10 1 14.148652262052508 1.5736516123377262 1.5710302508073293 0 0 0
11 1 15.720601581397975 22.007758781031715 -0.001268520676376466 0 -1 0
12 1 17.29254444440431 1.573645624981461 1.5710235026257175 0 0 0
13 1 18.864488552766552 0.0017878308188558625 -0.0012694157345365647 0 0 0
14 1 20.43643122452504 1.5736435815021812 1.5710229266145757 0 0 0
15 1 22.008374844677725 3.145498175416097 -0.0012694957810005646 -1 0 0
16 1 1.573116237883993 4.71735344936714 1.5710225766312234 0 0 0
17 1 3.1450614114235207 3.1455011447965857 -0.001266234187867169 0 0 0
18 1 4.717041769640205 4.717393411088569 1.5710680776555996 0 0 0
19 1 6.288950717689683 3.14550203106206 -0.001262939564249636 0 0 0
20 1 7.8609924876815604 4.717428782783222 1.5711408898851198 0 0 0
21 1 9.4328262056808 3.145492043771415 22.01081182363365 0 0 -1
22 1 11.004771382470175 4.717321346963421 1.5710159087832298 0 0 0
23 1 12.576720303807992 3.1454926075561755 22.010812305157025 0 0 -1
24 1 14.148567276489933 4.717416198925544 1.57112939972327 0 0 0
25 1 15.720597319724947 3.145500921462152 -0.001263878701903237 0 0 0
26 1 17.292494890699306 4.717404058501543 1.5710769509562632 0 0 0
27 1 18.864485051972768 3.1455017464932986 -0.001265773137676541 0 0 0
28 1 20.43642940385912 4.717354041483409 1.5710231616810384 0 0 0
29 1 22.00837488468005 6.2892090676005905 -0.001268731775065828 -1 0 0
30 1 1.5731252516682008 7.86107068305808 1.571029496482697 0 0 0
31 1 3.1450605423807176 6.289212836475964 -0.0012648263561510049 0 0 0
32 1 4.7170473647035625 7.861138645301601 1.5710980705587811 0 0 0
33 1 6.288880896045391 6.289144447073577 22.01076921657439 0 0 -1
34 1 7.8601520889562435 7.860288023540801 1.5704618421368604 0 0 0
35 1 9.432897698571308 6.2892526398801065 -0.0011123983023676998 0 0 0
36 1 11.004822260657138 7.861111285658448 1.5719911192401133 0 0 0
37 1 12.5766581364915 6.289249500348555 -0.0011185904789721601 0 0 0
38 1 14.149359541307051 7.860361160953409 1.570611250613686 0 0 0
39 1 15.720657843663517 6.289152986608958 22.01078320777134 0 0 -1
40 1 17.292484848194743 7.861153396591907 1.5711233376443627 0 0 0
41 1 18.864486062896617 6.289213329145161 -0.0012643424099145466 0 0 0
42 1 20.436422277940384 7.86107058730676 1.5710300894557732 0 0 0
43 1 22.00837480448316 9.432917672024697 22.01081596223266 -1 0 -1
44 1 1.5731115874296095 11.00477358091187 1.5710220699577653 0 0 0
45 1 3.145052658605211 9.432915316258226 22.010813119523444 0 0 -1
46 1 4.716949836766727 11.004791813980663 1.5710137819700245 0 0 0
47 1 6.288949077982625 9.43294580569036 -0.001179934188024914 0 0 0
48 1 7.860583450659997 11.004364970207675 1.5714705245108058 0 0 0
49 1 9.432329592300505 9.432422144691188 22.010054975712574 0 0 -1
50 1 11.005128769613064 11.004384688045208 1.5598381050197052 0 0 0
51 1 12.577253467580586 9.432382366861237 22.010083224983664 0 0 -1
52 1 14.148612496771435 11.004716776441844 1.5719660323502969 0 0 0
53 1 15.72056169631185 9.432976320072592 -0.0011218852152515648 0 0 0
54 1 17.29258020460866 11.004775675159825 1.5710114884608932 0 0 0
55 1 18.864494314007906 9.432914696826213 22.010812261324606 0 0 -1
56 1 20.436433417582318 11.004773871110883 1.5710229733744827 0 0 0
57 1 22.00837480094438 12.576629487754378 22.010815936631538 -1 0 -1
58 1 1.5731278055931537 14.148475104734738 1.5710307546763975 0 0 0
59 1 3.145050409907379 12.576633289440188 22.010808784372404 0 0 -1
60 1 4.717081295435982 14.148359643174999 1.5711524062908055 0 0 0
61 1 6.288991688072013 12.576561911102003 -0.0011096463296151335 0 0 0
62 1 7.859725045233636 14.149649089520764 1.569866797446257 0 0 0
63 1 9.432337427856002 12.57713090702685 22.00935391895429 0 0 -1
64 1 11.005163916004228 14.14880062935644 1.5714683348139344 0 0 0
65 1 12.577204593718921 12.577133224867207 22.010037787230893 0 0 -1
66 1 14.149425326244101 14.149237141325449 1.5704451483608504 0 0 0
67 1 15.72055732349161 12.57656155560176 -0.0011151128906275076 0 0 0
68 1 17.292470808723653 14.148378579378388 1.5711372436496815 0 0 0
69 1 18.86449488700897 12.57663285824714 22.01081186611886 0 0 -1
70 1 20.43642067038943 14.148475196384911 1.5710314281853954 0 0 0
71 1 0.001172164256404275 15.720337689802095 -0.001268460222723623 0 0 0
72 1 1.5731150577369808 17.292194771996996 1.5710213713017012 0 0 0
73 1 3.1450627687527177 15.72033143382648 -0.0012619801832799787 0 0 0
74 1 4.717020571274084 17.292177258874585 1.5710350460497318 0 0 0
75 1 6.288843709428645 15.720442430511833 22.010712544649028 0 0 -1
76 1 7.861050996350337 17.292081261131344 1.571209881639173 0 0 0
77 1 9.432902183560358 15.72028781725677 -0.0010609178570404943 0 0 0
78 1 11.004731142537292 17.292196804328213 1.5711011671054278 0 0 0
79 1 12.576681109400448 15.720329435091378 -0.001149599068948593 0 0 0
80 1 14.148557360932992 17.29212587969838 1.5711259245757918 0 0 0
81 1 15.720668331890096 15.720404691185802 22.01076390724611 0 0 -1
82 1 17.29250571020583 17.292155458589026 1.57106330577352 0 0 0
83 1 18.864484927240746 15.720332435976134 -0.0012630275810565498 0 0 0
84 1 20.436430438327108 17.292193701252277 1.5710223828110812 0 0 0
85 1 22.008374887060928 18.864048918292905 -0.0012695730900508222 -1 0 0
86 1 1.5731155717461884 20.43590388742408 1.5710225500163568 0 0 0
87 1 3.145060712463681 18.86404654766567 -0.0012675971186960977 0 0 0
88 1 4.717004910709614 20.435899843146863 1.5710257550763014 0 0 0
89 1 6.288956177065429 18.86404002885128 -0.0012548017512173505 0 0 0
90 1 7.860897597865377 20.435888638420018 1.571032052992294 0 0 0
91 1 9.432826879731271 18.864055334585213 22.010811182099065 0 0 -1
92 1 11.004773024201782 20.43590755742718 1.5710211716854674 0 0 0
93 1 12.5767163923601 18.864051132395364 -0.0012680723272077764 0 0 0
94 1 14.148648045608514 20.435888325964655 1.5710332893592622 0 0 0
95 1 15.720595052534298 18.864043792257373 -0.0012613206702295546 0 0 0
96 1 17.29254418796471 20.435901975259284 1.5710235807412727 0 0 0
97 1 18.864485655460363 18.864045936075847 -0.0012665935835703057 0 0 0
98 1 20.436431151852403 20.435903530051082 1.5710228530419017 0 0 0
99 1 0.0011721118585358349 0.0017878350287440646 3.1433139622654775 0 0 0
100 1 1.5731148757911058 1.5736425559948861 4.715605262249472 0 0 0
101 1 3.145059341835693 0.0017894008676588025 3.1433150982030598 0 0 0
102 1 4.717015838954467 1.5736661371568337 4.71561975804251 0 0 0
103 1 6.288943927064913 22.0077580567081 3.1433135518145834 0 -1 0
104 1 7.86088352412795 1.5736556039958336 4.715604558372852 0 0 0
105 1 9.432839976724017 22.007750507718185 3.143325298337232 0 -1 0
106 1 11.004775682729532 1.5737450381621148 4.715626571505066 0 0 0
107 1 12.576706218323164 22.00775009465319 3.1433258749060706 0 -1 0
108 1 14.148660478419957 1.5736708382617153 4.715607386282136 0 0 0
109 1 15.720604383115901 0.0017910777537525186 3.143312280531298 0 0 0
110 1 17.292531980312273 1.5736633477129802 4.7156187368656886 0 0 0
111 1 18.864487164735294 0.0017881584040186464 3.1433156494223256 0 0 0
112 1 20.436432078508023 1.5736426467571603 4.715605302231535 0 0 0
113 1 0.0011723363581891747 3.1455000848842465 3.143316099241428 0 0 0
114 1 1.573139554249549 4.717368447227823 4.715621642118831 0 0 0
115 1 3.145072975429568 3.1455126493106125 3.1433282548131642 0 0 0
116 1 4.717197063990809 4.7175372012432275 4.7157984381589415 0 0 0
117 1 6.288944648103539 3.1455107741706865 3.1433175629191954 0 0 0
118 1 7.860832548023473 4.717445719649599 4.715597736348972 0 0 0
119 1 9.432900703720021 3.145633254624364 3.1433945217565107 0 0 0
120 1 11.004838262936069 4.718670273951069 4.716049909217441 0 0 0
121 1 12.57665640379781 3.145622604569157 3.1433882025219435 0 0 0
122 1 14.148631041436659 4.717648221550722 4.715690442814827 0 0 0
123 1 15.720590256789468 3.145530340936216 3.1433289822560604 0 0 0
124 1 17.292363540036042 4.717531375139268 4.71577956435895 0 0 0
125 1 18.864475707030802 3.1455109265170216 3.1433265281425764 0 0 0
126 1 20.43641142619644 4.717367340346299 4.715619377677788 0 0 0
127 1 22.008371671058917 6.28920576755381 3.143311788109527 -1 0 0
128 1 1.573080323518504 7.861021202210447 4.715567762690163 0 0 0
129 1 3.1450577959703865 6.2891959887301825 3.1433063491321045 0 0 0
130 1 4.716864315322263 7.860702636165426 4.715293549928304 0 0 0
131 1 6.289286774251616 6.289546551454269 3.1437165633189923 0 0 0
132 1 7.863038304457408 7.862422444403063 4.717503241547421 0 0 0
133 1 9.433924578873414 6.289992935077785 3.1445503077875 0 0 0
134 1 11.005563764965183 7.872522873246646 4.726622590472149 0 0 0
135 1 12.575770703096985 6.289914489405324 3.1444775770769153 0 0 0
136 1 14.145674348519352 7.864014739941048 4.718896317206727 0 0 0
137 1 15.720119920753625 6.28969024958056 3.143842855356513 0 0 0
138 1 17.29232832636643 7.861009718466901 4.71561143448497 0 0 0
139 1 18.864462371443118 6.289214560522078 3.1433233130594593 0 0 0
140 1 20.43641446499204 7.861055514925156 4.715600787423194 0 0 0
141 1 0.0011740221072420827 9.432925766621757 3.1433228180625696 0 0 0
142 1 1.5732217611263855 11.004769310160539 4.715628523759695 0 0 0
143 1 3.1451878559010664 9.432987772708856 3.143375443704133 0 0 0
144 1 4.7181503961297855 11.004789182756102 4.715995064271943 0 0 0
145 1 6.289464783139912 9.433661292137389 3.143949479310545 0 0 0
146 1 7.87049306916245 11.001243038716407 4.724595051714719 0 0 0
147 1 9.42708193395141 9.426900413943981 3.138328179037554 0 0 0
148 1 11.00450989176892 11.004962598164493 4.623599470464282 0 0 0
149 1 12.582541292140002 9.427065408770078 3.1390836163925218 0 0 0
150 1 14.137070301127167 11.003891642282731 4.726346210959381 0 0 0
151 1 15.719906620401204 9.43385008508807 3.1444190877424303 0 0 0
152 1 17.29123399897607 11.004704367085859 4.71601033369182 0 0 0
153 1 18.864361715488172 9.432979271721306 3.143387374771734 0 0 0
154 1 20.43632533415444 11.004772066401369 4.715624254759589 0 0 0
155 1 0.0011741134108697261 12.576620053966055 3.1433226952011717 0 0 0
156 1 1.57305926251706 14.148520273394602 4.715566169983633 0 0 0
157 1 3.145194579124982 12.576545551656436 3.143364303942966 0 0 0
158 1 4.716472150232062 14.148794421502027 4.715302407333636 0 0 0
159 1 6.28985213196471 12.575386932746923 3.144490960825325 0 0 0
160 1 7.8569713719622 14.1509728693693 4.713524894521273 0 0 0
161 1 9.426762175687339 12.582653119691386 3.1294825875974124 0 0 0
162 1 11.009956791557746 14.139812092176289 4.722629703284707 0 0 0
163 1 12.582668798353376 12.582275716147484 3.138046997025212 0 0 0
164 1 14.147420426338165 14.1463519619501 4.717146257250825 0 0 0
165 1 15.719817684998798 12.575520138577925 3.144492138454439 0 0 0
166 1 17.292492500168784 14.148563127889366 4.7155353608868165 0 0 0
167 1 18.864351145552376 12.576557104285715 3.143394374551687 0 0 0
168 1 20.436418722983092 14.148487891487349 4.715602499261737 0 0 0
169 1 22.00837114021581 15.72034146632972 3.1433113797318297 -1 0 0
170 1 1.573121595783566 17.292191363192217 4.715608852689169 0 0 0
171 1 3.14503102286316 15.720365356935112 3.1432892838398536 0 0 0
172 1 4.717080243469024 17.292136023760936 4.7156553344373355 0 0 0
173 1 6.288860450145981 15.720437425186887 3.1432263525887585 0 0 0
174 1 7.860804892094444 17.29231560011323 4.715581827370409 0 0 0
175 1 9.4339847146794 15.719129803124247 3.1449166484956437 0 0 0
176 1 11.004667695168642 17.290549735746136 4.71647730788444 0 0 0
177 1 12.575981238248163 15.719817530300553 3.1441076397279075 0 0 0
178 1 14.148922085468195 17.292242640391272 4.715358059271385 0 0 0
179 1 15.72027334517677 15.720017250868723 3.1436670792792856 0 0 0
180 1 17.29240883908352 17.29205359407019 4.715743276543905 0 0 0
181 1 18.864477574838826 15.720340750512184 3.143313288479155 0 0 0
182 1 20.436416116731994 17.29218458435579 4.715614571353087 0 0 0
183 1 22.00837422324103 18.86404796675471 3.1433150333381312 -1 0 0
184 1 1.5731149052034494 20.435904253399745 4.715605585911124 0 0 0
185 1 3.145065490540134 18.864044529833052 3.143317994378553 0 0 0
186 1 4.717004278368353 20.43589997305917 4.715608543212806 0 0 0
187 1 6.288969187260543 18.86402981295978 3.1433376089964034 0 0 0
188 1 7.860859210969506 20.43591661638171 4.71557333628744 0 0 0
189 1 9.432933274867757 18.863846224629544 3.1433978632073156 0 0 0
190 1 11.00476675019038 20.435732210000456 4.715646208158831 0 0 0
191 1 12.576597276165476 18.863864702580763 3.1434175170190004 0 0 0
192 1 14.14870150839107 20.435934950130324 4.715563855046451 0 0 0
193 1 15.720599209072441 18.864038743693673 3.1433147495626 0 0 0
194 1 17.292535960900288 20.435887907906753 4.7156159798997255 0 0 0
195 1 18.864477232531808 18.86403808418226 3.1433244453609652 0 0 0
196 1 20.436432316548437 20.4359044430946 4.715605258265314 0 0 0
197 1 22.008374868803973 0.0017878305821160232 6.28789783692434 -1 0 0
198 1 1.5731149882253137 1.573642623941992 7.860189574239867 0 0 0
199 1 3.1450581303921785 22.007759009573526 6.287897204147348 0 -1 0
200 1 4.717005307591276 1.573648847753585 7.8601897469266735 0 0 0
201 1 6.288955004318841 0.0017980875296563165 6.2879066315999435 0 0 0
202 1 7.860910863890648 1.5738136854879048 7.860201937444908 0 0 0
203 1 9.432804147127365 0.0018250276072251381 6.287869002610224 0 0 0
204 1 11.004778565203427 1.5736860977120786 7.860215462552231 0 0 0
205 1 12.576743868658477 0.0018383882943357713 6.2878718249968815 0 0 0
206 1 14.14863113735411 1.5738143908294422 7.860201431752453 0 0 0
207 1 15.720591110483486 0.0017899401474619527 6.287907952955264 0 0 0
208 1 17.29254175846413 1.5736468673560355 7.860189883254743 0 0 0
209 1 18.864488915925268 0.0017878534154340188 6.287897096940855 0 0 0
210 1 20.436431964781164 1.5736428191444598 7.860189574686887 0 0 0
211 1 22.008374652453945 3.1454977466819547 6.2878967979709115 -1 0 0
212 1 1.5731169552728048 4.717355818099063 7.86018983190935 0 0 0
213 1 3.14505736490428 3.145497371774681 6.2878949339902 0 0 0
214 1 4.717045065098597 4.7174140446622195 7.860207278266385 0 0 0
215 1 6.289062508761361 3.1457407368502905 6.288012964302361 0 0 0
216 1 7.861495805399941 4.71931214453764 7.8603734300147625 0 0 0
217 1 9.432782848472053 3.145632412016064 6.287888348928719 0 0 0
218 1 11.00482151273062 4.716144547720917 7.86054326631594 0 0 0
219 1 12.576763152251809 3.1457294057043748 6.287881218539886 0 0 0
220 1 14.14800611670253 4.719352429908608 7.860366183328648 0 0 0
221 1 15.720485718459031 3.145732833846205 6.288005469755819 0 0 0
222 1 17.292497450718322 4.717399908929899 7.8602069039859535 0 0 0
223 1 18.864489604416686 3.1454972207877403 6.2878947273731765 0 0 0
224 1 20.43642763754372 4.7173573458835705 7.860189822230378 0 0 0
225 1 0.0011764588635863704 6.2892229324959885 6.287911653090399 0 0 0
226 1 1.5733182821103076 7.861101168016593 7.860205580889851 0 0 0
227 1 3.1453369363743064 6.289330853376344 6.288038549935634 0 0 0
228 1 4.719265020194385 7.8618585526778455 7.860372910026375 0 0 0
229 1 6.290799851567983 6.290829436687672 6.289540177338249 0 0 0
230 1 7.878201079054579 7.876637749948083 7.860278200267096 0 0 0
231 1 9.432310487672314 6.2895111187394015 6.287227827689165 0 0 0
232 1 11.002713838211639 7.835772373933402 7.861739421993986 0 0 0
233 1 12.577044385937342 6.290757082896574 6.287638621088602 0 0 0
234 1 14.132888612268829 7.876533036652451 7.860171890873314 0 0 0
235 1 15.71888259011415 6.290877596531266 6.289414937188059 0 0 0
236 1 17.29053948403683 7.861676378257661 7.860370878858474 0 0 0
237 1 18.86424879187575 6.2893249967279665 6.288007360027162 0 0 0
238 1 20.436264160087507 7.861091719181225 7.8602054261169725 0 0 0
239 1 22.008333618448468 9.432886773231843 6.287872288287576 -1 0 0
240 1 1.5723594232906781 11.00473796584209 7.860192582911839 0 0 0
241 1 3.144710617499931 9.432434401690074 6.2874435348000635 0 0 0
242 1 4.706937020940546 11.004126515389324 7.860133153640461 0 0 0
243 1 6.287872542833774 9.429082464728447 6.283264046695369 0 0 0
244 1 7.786386704957952 10.987572569077003 7.859357031185114 0 0 0
245 1 9.443660624993989 9.440696260506757 6.294219379824084 0 0 0
246 1 20.436431644895993 20.435903889873266 20.438524912191046 0 0 0
247 1 12.56054208514541 9.448915346692726 6.302080475350283 0 0 0
248 1 14.17882012870551 11.004650207252242 7.858680666160754 0 0 0
249 1 15.719713738998783 9.431867456887204 6.28695907053319 0 0 0
250 1 17.294802955056717 11.004311828685575 7.860113669650217 0 0 0
251 1 18.86437322134421 9.432799367839928 6.287810458970677 0 0 0
252 1 20.436491598543856 11.004741031977202 7.86019159168453 0 0 0
253 1 22.00832430792672 12.576650227489615 6.287875676630306 -1 0 0
254 1 1.5731542892366839 14.148482933600391 7.860177243020039 0 0 0
255 1 3.1446190713728543 12.577029117492492 6.287503615332786 0 0 0
256 1 4.717535609103801 14.148557423434935 7.8599577818059645 0 0 0
257 1 6.286656429095141 12.579624518328117 6.285389246894122 0 0 0
258 1 7.86921430752895 14.141204144014921 7.857514363979214 0 0 0
259 1 9.425359116378873 12.601539340733478 6.231423374092231 0 0 0
260 1 11.007675000066657 14.227243297411977 7.8468064753743505 0 0 0
261 1 12.566859462277865 12.56674799515546 6.293033794606881 0 0 0
262 1 14.135340640854151 14.134509474219554 7.856684917608277 0 0 0
263 1 15.72053708724676 12.577355496355798 6.2867232206240615 0 0 0
264 1 17.291245962576593 14.148277330280697 7.859938669977278 0 0 0
265 1 18.864404982605006 12.576691538964868 6.287858099932923 0 0 0
266 1 20.43633019285152 14.148487130107227 7.860176309508277 0 0 0
267 1 22.008368408634745 15.720334568115986 6.287902295034002 -1 0 0
268 1 1.5731159839506255 17.292192104280367 7.860192487034206 0 0 0
269 1 3.1451026893679956 15.72034404383979 6.287930406813046 0 0 0
270 1 4.7169903442761365 17.29223969579433 7.860211180656051 0 0 0
271 1 6.289233390774828 15.719999236198982 6.288656311750432 0 0 0
272 1 7.861243664734366 17.29144436733206 7.860250342313903 0 0 0
273 1 9.428995046651487 15.72060256542443 6.286382195173899 0 0 0
274 1 11.004905904433995 17.302822156646243 7.860096156849323 0 0 0
275 1 12.581453962092864 15.721180347308492 6.284572875247724 0 0 0
276 1 14.148243425904933 17.290615997273147 7.860211576897557 0 0 0
277 1 15.719562427685458 15.718992338468997 6.289064989304023 0 0 0
278 1 17.292519399482206 17.29218102657196 7.8602178463636365 0 0 0
279 1 18.864338915728165 15.72027564881005 6.287958725990506 0 0 0
280 1 20.436426025230325 17.292188867823356 7.8601927796098545 0 0 0
281 1 0.0011723528005283285 18.864048668295325 6.28789762230055 0 0 0
282 1 1.5731151107537258 20.435904040517965 7.860189562367134 0 0 0
283 1 3.145058377823958 18.8640496961482 6.287895005922487 0 0 0
284 1 4.717001707713213 20.435908347013875 7.86019072779363 0 0 0
285 1 6.2889698523400615 18.863973023085663 6.287944608214229 0 0 0
286 1 7.860925526276708 20.435822209563316 7.8601848253473605 0 0 0
287 1 9.432371197430452 18.86428971949566 6.287419360748026 0 0 0
288 1 11.004758258190735 20.436727625924924 7.860181218543895 0 0 0
289 1 12.577225428812746 18.864381429826278 6.287417242298146 0 0 0
290 1 14.148640024444767 20.43577081886416 7.860182015924102 0 0 0
291 1 15.720528762758233 18.863849641360037 6.287983389585898 0 0 0
292 1 17.292542526664874 20.435902261705774 7.860191025608682 0 0 0
293 1 18.864491092051278 18.8640514519863 6.287894350820229 0 0 0
294 1 20.43643202950628 20.435904186223713 7.8601895437269675 0 0 0
295 1 22.008374868162452 0.0017878382421285235 9.432481607177754 -1 0 0
296 1 1.57311455694371 1.5736422751633095 11.004774513355155 0 0 0
297 1 3.145058115247394 22.007759128849226 9.432482438990693 0 -1 0
298 1 4.717014496238478 1.5736644922379488 11.004762453224867 0 0 0
299 1 6.288954498350867 0.0017954391102828295 9.432473552944026 0 0 0
300 1 7.860895116711065 1.5736945697643698 11.004765354865139 0 0 0
301 1 9.4328009997419 0.0018592737907019074 9.432508946353929 0 0 0
302 1 11.004775302968838 1.5738143621452692 11.00473023036861 0 0 0
303 1 12.576747254355523 0.001877227250384549 9.432506465094002 0 0 0
304 1 14.148649404792824 1.573708973356347 11.004763106924711 0 0 0
305 1 15.720591386736615 22.0077581019559 9.43247191551195 0 -1 0
306 1 17.292533242434306 1.57366171259134 11.004763279395203 0 0 0
307 1 18.864488983843504 0.0017880115044654683 9.43248255986705 0 0 0
308 1 20.436432396696325 1.5736423661758505 11.004774473517578 0 0 0
309 1 22.00837465709634 3.1454978151099544 9.432482664492548 -1 0 0
310 1 1.5731384912047714 4.717367219820704 11.004760772571094 0 0 0
311 1 3.14505456125872 3.1454947692184234 9.432486499614 0 0 0
312 1 4.71721105618904 4.717552019320394 11.004584715227942 0 0 0
313 1 6.289042915553029 3.1457347444649844 9.432396277652169 0 0 0
314 1 7.861028678837381 4.717806400879676 11.004643224927422 0 0 0
315 1 9.432757866276866 3.145929106203167 9.43252081022705 0 0 0
316 1 11.004829911347155 4.719061682864881 11.00405296303281 0 0 0
317 1 12.576791018515763 3.1460127902246056 9.432527383986942 0 0 0
318 1 14.148444094867134 4.717991585032939 11.004558679334423 0 0 0
319 1 15.720501920852083 3.145730102733426 9.432403005868432 0 0 0
320 1 17.2923514531755 4.717544593364056 11.004603229352474 0 0 0
321 1 18.864492394166128 3.1454944926806254 9.432486662359668 0 0 0
322 1 20.43641278978257 4.717365867793377 11.00476303495081 0 0 0
323 1 0.0011767234906547258 6.289221275443999 9.432471934068388 0 0 0
324 1 1.5731234695586136 7.861038755734313 11.004796337360556 0 0 0
325 1 3.145333141374727 6.289316139889731 9.432371764070966 0 0 0
326 1 4.717294101993161 7.860918980119854 11.004910851042665 0 0 0
327 1 6.290890515681997 6.290932905189346 9.430977471075762 0 0 0
328 1 7.865494820775476 7.864404480497538 11.000731568695814 0 0 0
329 1 9.432232211631794 6.292549710616449 9.433337499568141 0 0 0
330 1 11.00540170828719 7.871364979666743 10.993796282669143 0 0 0
331 1 12.577113090870853 6.293606437322273 9.4329305063308 0 0 0
332 1 14.143359318845219 7.865901119951149 10.99946908184646 0 0 0
333 1 15.718791998787262 6.290980887573762 9.431091631925156 0 0 0
334 1 17.291904095478323 7.861226840851575 11.004590794506457 0 0 0
335 1 18.864254369395116 6.289308682425782 9.432402757900622 0 0 0
336 1 20.436371261091633 7.861073146123646 11.004762903872855 0 0 0
337 1 22.008333530867922 9.43288911115182 9.432507007262872 -1 0 0
338 1 1.573236230786692 11.004742306466067 11.004753634876364 0 0 0
339 1 3.145073461115927 9.432460202812583 9.432924815745531 0 0 0
340 1 4.7181388709605105 11.004381949203184 11.004462324149811 0 0 0
341 1 6.291102300250218 9.429221331451112 9.436859265172412 0 0 0
342 1 7.868645307749147 10.995809827312918 10.99723285834657 0 0 0
343 1 9.45136931785253 9.449364006376433 9.418356907587704 0 0 0
344 1 11.00398948519907 10.998102984028145 11.036882229278003 0 0 0
345 1 12.552294056858397 9.45675277103884 9.410633071080508 0 0 0
346 1 14.139461935543107 10.998997018321559 10.996106502668965 0 0 0
347 1 15.716479640379584 9.432079645389107 9.433061467120247 0 0 0
348 1 17.291275237913627 11.004290777709938 11.004459048162333 0 0 0
349 1 18.86401195175263 9.43282699603947 9.432553679666407 0 0 0
350 1 20.43631382517121 11.004744106929255 11.00475888373586 0 0 0
351 1 22.008326070322315 12.576653214830056 9.432509280235443 -1 0 0
352 1 1.5730531281256472 14.148534704878694 11.004831561036898 0 0 0
353 1 3.144219028884393 12.57705469434559 9.432913916851389 0 0 0
354 1 4.71639341660633 14.148987660685195 11.005294182877092 0 0 0
355 1 6.281521949992026 12.579575828978362 9.434939877062636 0 0 0
356 1 7.8567415761611805 14.153905382793608 11.007831065766053 0 0 0
357 1 9.384368755331037 12.60497999369231 9.509612247316317 0 0 0
358 1 11.009078889253958 14.147042858343324 11.003998395280565 0 0 0
359 1 12.608927801878094 12.569752838761238 9.444873078564846 0 0 0
360 1 14.146312466721492 14.14801316133702 11.002990550680611 0 0 0
361 1 15.725894229335701 12.577363569254446 9.433540816804385 0 0 0
362 1 17.292508582136083 14.148760182687274 11.005066260880863 0 0 0
363 1 18.864822658026988 12.576720005603631 9.43256066145212 0 0 0
364 1 20.43642427861216 14.148503301828125 11.004796392466274 0 0 0
365 1 22.008367723462705 15.720330946483193 9.432476151302938 -1 0 0
366 1 1.5731251342633392 17.29218860283583 11.00476842907005 0 0 0
367 1 3.145164243735095 15.720307619850699 9.43244004117189 0 0 0
368 1 4.717111287758998 17.292110163792948 11.004696472625477 0 0 0
369 1 6.289642180850499 15.719655293026657 9.431427667484176 0 0 0
370 1 7.860783296160073 17.292536706088868 11.004847936096663 0 0 0
371 1 9.430243047193798 15.720992730835839 9.434357874333232 0 0 0
372 1 11.004626274260724 17.291744492252228 11.004443451338602 0 0 0
373 1 12.58023856097695 15.722306228818615 9.436202554467366 0 0 0
374 1 14.148983172024247 17.292431702454575 11.005106957284951 0 0 0
375 1 15.718970361083858 15.718474623873869 9.431001773224285 0 0 0
376 1 17.29237748361383 17.29202537437508 11.004603259839458 0 0 0
377 1 18.86426558098127 15.720235122079838 9.43241092771352 0 0 0
378 1 20.43641210350337 17.292181475245528 11.00476236500499 0 0 0
379 1 0.001172412586149974 18.86404914698988 9.432482230800513 0 0 0
380 1 1.573114788155179 20.435904423165937 11.004774009044418 0 0 0
381 1 3.145054315367882 18.864052371430258 9.432485649816254 0 0 0
382 1 4.7170061838705015 20.43589666803747 11.004770108029255 0 0 0
383 1 6.288964692677791 18.86395497958475 9.432430349439349 0 0 0
384 1 7.8608542139257676 20.435935013497968 11.004805858096997 0 0 0
385 1 9.432363690028243 18.864381493368366 9.432927545436197 0 0 0
386 1 11.004763926336501 20.43585039903287 11.00474383174951 0 0 0
387 1 12.57723954149035 18.864542729290367 9.432935368766003 0 0 0
388 1 14.148709806858557 20.435956414801936 11.0048186598433 0 0 0
389 1 15.72052742009622 18.863817802412115 9.432388499391905 0 0 0
390 1 17.292533760344693 20.43588405970854 11.004762136841572 0 0 0
391 1 18.864495573434873 18.864054580167174 9.43248632537582 0 0 0
392 1 20.436432452528393 20.435904622313803 11.004774331157643 0 0 0
393 1 0.0011721097298780729 22.007759125179412 12.577065558791704 0 -1 0
394 1 1.573115946851396 1.5736438450989292 14.149356485498027 0 0 0
395 1 3.1450593909710007 0.0017890826781502014 12.577064479490376 0 0 0
396 1 4.7170043280862695 1.5736479151300762 14.149354411623765 0 0 0
397 1 6.288944950068579 0.0017909813705731725 12.577064889007783 0 0 0
398 1 7.860897091562551 1.573660856381061 14.14934591170499 0 0 0
399 1 9.432837915142995 0.0017971225165433486 12.57705629927801 0 0 0
400 1 11.004773424359682 1.5736478967423801 14.149354243114194 0 0 0
401 1 12.576707949307256 0.0017956440842859698 12.577055356807952 0 0 0
402 1 14.14865064802703 1.5736590364823528 14.149346615602875 0 0 0
403 1 15.72060371852992 0.0017957107190064775 12.577066536163402 0 0 0
404 1 17.292541912924534 1.5736497032260255 14.149353663350748 0 0 0
405 1 18.864487096460657 22.00775916505134 12.577063898437912 0 -1 0
406 1 20.43643114443446 1.573643639398152 14.149356565724894 0 0 0
407 1 0.001172338997864898 3.145499867381251 12.577063787534879 0 0 0
408 1 1.5731202333641494 4.717356335452258 14.149354182304467 0 0 0
409 1 3.1450739238575642 3.145513603028952 12.57705115324164 0 0 0
410 1 4.717074664756464 4.717425770629925 14.149280684134157 0 0 0
411 1 6.288972621435091 3.1455582700821134 12.577037494351734 0 0 0
412 1 7.861023101440622 4.717512509566441 14.149195989514993 0 0 0
413 1 9.432916523784543 3.1457052951238733 12.576963785134563 0 0 0
414 1 11.004771134470944 4.7174308964964125 14.149276716388771 0 0 0
415 1 12.576639779299416 3.145698442540925 12.576966191652412 0 0 0
416 1 14.148535981125217 4.717499850835059 14.149207844066225 0 0 0
417 1 15.72056310816792 3.1455764614817205 12.577026895929881 0 0 0
418 1 17.29246300175216 4.717435198895509 14.149272867933892 0 0 0
419 1 18.864474791540186 3.1455118602364607 12.577052884231762 0 0 0
420 1 20.436425455473277 4.717356899339254 14.149353617875034 0 0 0
421 1 22.008371673932075 6.289210073343724 12.57706362083376 -1 0 0
422 1 1.5731280187608538 7.861069726196063 14.149349931862922 0 0 0
423 1 3.1451095035709176 6.28922649554801 12.577045434616645 0 0 0
424 1 4.7171068867839505 7.86115224301463 14.1492591490141 0 0 0
425 1 6.289613005337944 6.289857294532848 12.57635760427095 0 0 0
426 1 7.860979172083311 7.861139701510373 14.14891901497562 0 0 0
427 1 9.43391966149712 6.2905441831700495 12.5756527777119 0 0 0
428 1 11.004821149647407 7.861699261339619 14.147663976669588 0 0 0
429 1 12.575763275909823 6.290470583273442 12.57572246445519 0 0 0
430 1 14.14853163278228 7.861212310985317 14.14877620184061 0 0 0
431 1 15.719807112160003 6.289986477614719 12.576244814856807 0 0 0
432 1 17.29242473059482 7.861166056451049 14.149232752378904 0 0 0
433 1 18.86441163764844 6.289244522205323 12.57702884283182 0 0 0
434 1 20.436419876919192 7.861069462752346 14.149349517170002 0 0 0
435 1 0.001174459251523334 9.43292337621932 12.577057709630559 0 0 0
436 1 1.573123964046494 11.004777196242179 14.149351870877805 0 0 0
437 1 3.145213394013368 9.432965269293506 12.577018175367263 0 0 0
438 1 4.717111633990009 11.004827878843377 14.149266527563896 0 0 0