LAMMPS data file via write_data, version 2 Aug 2023, timestep = 120, units = metal

686 atoms
3 atom types

0.0028318397581603106 22.00671515709762 xlo xhi
0.002280772783343709 22.007266224072435 ylo yhi
0.001985233098650532 22.007561763757124 zlo zhi

Masses

1 183.84
2 1.008
3 4.0026

Atoms # atomic

1 1 22.006715078144868 22.007266138305816 0.001985337925757312 -1 -1 0
2 1 1.5745379016679777 1.5740655535588683 1.5738122306024744 0 0 0
3 1 3.146244031805478 22.007266123240267 0.0019855233939629186 0 -1 0
4 1 4.717951467508595 1.5740676248502368 1.5738138978472356 0 0 0
5 1 6.28965604944671 22.007265860988255 0.0019857900094158746 0 -1 0
6 1 7.861363331201718 1.5740682370039836 1.5738149003170705 0 0 0
7 1 9.433067393167962 22.00726614843068 0.0019855250441136174 0 -1 0
8 1 11.004773419937937 1.574067467638718 1.5738137100748018 0 0 0
9 1 12.576479556612119 22.00726621354329 0.0019854976016350618 0 -1 0
10 1 14.14818400527705 1.574068385012245 1.5738147981897195 0 0 0
11 1 15.719891179666835 22.007265983009216 0.001985696735720074 0 -1 0
12 1 17.291595487614448 1.5740674956642542 1.573814052556494 0 0 0
13 1 18.863302865338568 22.0072659684867 0.001985661714491597 0 -1 0
14 1 20.43500886470178 1.5740655998839663 1.5738124355770051 0 0 0
15 1 22.006715077592194 3.1458504073895868 0.0019855167897263647 -1 0 0
16 1 1.5745401396964105 4.717636710334952 1.573814028180434 0 0 0
17 1 3.146245267800491 3.145851650816888 0.001986763932543346 0 0 0
18 1 4.717975693905119 4.717660878635228 1.5738379882825533 0 0 0
19 1 6.289657054297364 3.1458523306507344 0.0019873818136447994 0 0 0
20 1 7.86138468803643 4.717665383834324 1.5738410421565896 0 0 0
21 1 9.433068514558018 3.145852194608661 0.001987339068097782 0 0 0
22 1 11.004775788764425 4.71767125212264 1.573847800595435 0 0 0
23 1 12.576478557392292 3.1458518753251052 0.0019870724104364967 0 0 0
24 1 14.148162245965455 4.71766555562188 1.5738419432428183 0 0 0
25 1 15.71989004629913 3.1458523615186644 0.001987439187401966 0 0 0
26 1 17.29157097937044 4.717663385157591 1.573839579859668 0 0 0
27 1 18.86330165158606 3.1458518236717863 0.001986908474208604 0 0 0
28 1 20.435005245361324 4.717638212707109 1.5738155043454034 0 0 0
29 1 22.006714782234567 6.289419898202997 0.001985804318390356 -1 0 0
30 1 1.5745406240991966 7.861205879344079 1.5738149623173747 0 0 0
31 1 3.1462461506627193 6.289421097387099 0.0019876637034339046 0 0 0
32 1 4.717983360227225 7.861230323085651 1.5738461443521417 0 0 0
33 1 6.289676940367618 6.2894408989741555 0.0020210459981364485 0 0 0
34 1 7.86153935972538 7.861383170032743 1.5741698931357857 0 0 0
35 1 9.433088308572483 6.289446465879588 0.0020343146928115015 0 0 0
36 1 11.00480237827222 7.861599438701024 1.5744532625672287 0 0 0
37 1 12.576459850533809 6.289444024696081 0.0020326203587704298 0 0 0
38 1 14.148021995355238 7.861374348626076 1.5741628070192257 0 0 0
39 1 15.719872385821493 6.289440135007312 0.0020197431943526013 0 0 0
40 1 17.291516480421745 7.861279013125375 1.5739083927595248 0 0 0
41 1 18.863297326208436 6.289424682260571 0.001992053834105202 0 0 0
42 1 20.43499947983979 7.861210126325799 1.5738199793109413 0 0 0
43 1 22.00671509290272 9.43298866354415 0.0019855135632573027 -1 0 0
44 1 1.5745397427387833 11.004773349219501 1.5738136657640278 0 0 0
45 1 3.1462458721410833 9.432989720597378 0.0019873571427702075 0 0 0
46 1 4.717987247578841 11.00477518501048 1.573849565548113 0 0 0
47 1 6.289684622404217 9.433011518730146 0.0020386914354223484 0 0 0
48 1 7.861770346728523 11.004817839351285 1.5744992737846453 0 0 0
49 1 9.43307635582707 9.432998553959548 0.002267201598808049 0 0 0
50 1 11.004800641077093 11.00482628934928 1.5741833005564765 0 0 0
51 1 12.57649261401181 9.433012731691495 0.0022908764452512897 0 0 0
52 1 14.147774459297827 11.004844470377185 1.5750557545258803 0 0 0
53 1 15.719842550424486 9.4330337018578 0.002094770644590612 0 0 0
54 1 17.291529054602062 11.00480471228391 1.5739239611387645 0 0 0
55 1 18.86329810252935 9.432991539922163 0.001992056689652595 0 0 0
56 1 20.435006128329075 11.004773531885668 1.5738145343603365 0 0 0
57 1 22.006715147117724 12.57655827408634 0.0019855106897619973 -1 0 0
58 1 1.5745406041962058 14.148341622121944 1.5738147572480765 0 0 0
59 1 3.1462455947725525 12.576557257485808 0.0019870862926083532 0 0 0
60 1 4.717980558351837 14.148319805362895 1.5738433501759765 0 0 0
61 1 6.289681606939554 12.576538603547727 0.002035505913664775 0 0 0
62 1 7.861545498463979 14.14816715485828 1.574207800821002 0 0 0
63 1 9.433090547974334 12.576573715959254 0.002315962457827709 0 0 0
64 1 11.004829212624037 14.147921072007268 1.5751267184797921 0 0 0
65 1 12.576481406572801 12.576562519053356 0.002391727857978 0 0 0
66 1 14.148001542380634 14.14816197927745 1.574472614710416 0 0 0
67 1 15.719840500056028 12.57652898737903 0.002119052129097244 0 0 0
68 1 17.29150887862616 14.148268188718376 1.5739383998868497 0 0 0
69 1 18.863300822938 12.57655785610916 0.001988459066666337 0 0 0
70 1 20.435002463628965 14.148340048360376 1.5738174100916642 0 0 0
71 1 22.00671490233772 15.720127353041153 0.001985693813574039 -1 0 0
72 1 1.5745400960061484 17.291910250732624 1.573814240530148 0 0 0
73 1 3.14624602618076 15.720126251114992 0.0019875403699419992 0 0 0
74 1 4.7179808165865404 17.291883362373373 1.5738430859184787 0 0 0
75 1 6.289678080978169 15.720106808145012 0.0020233139119307498 0 0 0
76 1 7.861438515335422 17.291829228978685 1.5739130595976598 0 0 0
77 1 9.433112973239112 15.720077455054764 0.002099490511557743 0 0 0
78 1 11.004805312367024 17.29184257059047 1.5739252219454336 0 0 0
79 1 12.576447774121084 15.720074305777072 0.0021257756899675426 0 0 0
80 1 14.148105599939614 17.29181880144087 1.5739468373012575 0 0 0
81 1 15.7198603467817 15.720096648167482 0.0020512318751334034 0 0 0
82 1 17.291545403138542 17.291860383317857 1.5738774729256448 0 0 0
83 1 18.863295960374522 15.720122259737833 0.00199423237837026 0 0 0
84 1 20.435002379561155 17.29190714379153 1.5738180173801963 0 0 0
85 1 22.006714924170442 18.863696487139684 0.0019856628554198474 -1 0 0
86 1 1.5745380288391941 20.435481122302473 1.5738125185413805 0 0 0
87 1 3.146245591221536 18.86369512491826 0.001987086931550833 0 0 0
88 1 4.717953343392329 20.43547724207896 1.5738157734074498 0 0 0
89 1 6.28966096424788 18.863690747380875 0.001992348622184616 0 0 0
90 1 7.861367216907355 20.4354720835855 1.573819758177323 0 0 0
91 1 9.433070203156534 18.86369178550875 0.0019917989386537627 0 0 0
92 1 11.004773668695963 20.435478601076166 1.5738143938585727 0 0 0
93 1 12.5764792820322 18.863694613343263 0.0019881792590119574 0 0 0
94 1 14.148182748234335 20.435474983695112 1.5738172196926998 0 0 0
95 1 15.71988573479905 18.86368924794277 0.0019946991978787186 0 0 0
96 1 17.291591985984663 20.435474435557847 1.5738182587290177 0 0 0
97 1 18.863299607888848 18.863693232083943 0.0019895435861309032 0 0 0
98 1 20.435007360720753 20.435479698748786 1.5738138803672839 0 0 0
99 1 22.006715049707143 22.007266109211837 3.145639109405035 -1 -1 0
100 1 1.574537943858091 1.5740655912039347 4.717465938607299 0 0 0
101 1 3.146244269695273 22.00726586431835 3.1456393963294356 0 -1 0
102 1 4.717952174787986 1.5740678466808455 4.717467355616072 0 0 0
103 1 6.289659332950483 22.007263061838003 3.145642697391133 0 -1 0
104 1 7.861369246393209 1.5740850616530146 4.717473409141956 0 0 0
105 1 9.433072204752031 22.007259284704478 3.1456464086144673 0 -1 0
106 1 11.004777200274503 1.5741079542094485 4.717485365994065 0 0 0
107 1 12.57647763685061 22.00726201504146 3.1456443531594847 0 -1 0
108 1 14.148175573047132 1.5740861419223362 4.717476965221604 0 0 0
109 1 15.719886377332207 22.007259726638324 3.145644991527192 0 -1 0
110 1 17.291593514526614 1.5740682093375926 4.7174687067421335 0 0 0
111 1 18.863301293010853 22.007263805170457 3.1456408256357995 0 -1 0
112 1 20.435008819021373 1.574065656959869 4.717466077840999 0 0 0
113 1 22.00671490283661 3.1458505738737834 3.145639320439462 -1 0 0
114 1 1.5745400676450714 4.717637149516265 4.717467144159821 0 0 0
115 1 3.1462456625965634 3.145852139807909 3.1456402208055114 0 0 0
116 1 4.717974097387215 4.717661238973299 4.717484440847477 0 0 0
117 1 6.289674671075646 3.145883533371524 3.145657939073653 0 0 0
118 1 7.861498748678755 4.717956876210442 4.717603176310489 0 0 0
119 1 9.433088978577608 3.145902195749469 3.1456669436183167 0 0 0
120 1 11.004801511055382 4.718286664999041 4.717843202316883 0 0 0
121 1 12.576459885962862 3.1459002427805367 3.145664885517637 0 0 0
122 1 14.148032526251948 4.717997764431159 4.71761700719232 0 0 0
123 1 15.719872213454854 3.145885285907454 3.145659005583061 0 0 0
124 1 17.29154779619581 4.717700274499107 4.71750956433599 0 0 0
125 1 18.863299118885145 3.14585513549219 3.1456423941117633 0 0 0
126 1 20.43500222727863 4.717641049560727 4.717470208320787 0 0 0
127 1 22.00671276312243 6.289423130638885 3.145642608943238 -1 0 0
128 1 1.5745626900851906 7.86121480913682 4.717476274949819 0 0 0
129 1 3.1462801970731116 6.2894416937943465 3.145661018166635 0 0 0
130 1 4.718319409761135 7.861391784790546 4.717652429742927 0 0 0
131 1 6.289988148761564 6.289753387465937 3.14596842791756 0 0 0
132 1 7.864571005578163 7.864431767449221 4.720633576535956 0 0 0
133 1 9.433269424163788 6.289839890586579 3.14603323672252 0 0 0
134 1 11.00497075506036 7.86550356643711 4.7215157404414185 0 0 0
135 1 12.576303298386886 6.289866674736731 3.146058601797984 0 0 0
136 1 14.145182991695766 7.864640077799112 4.720577117133167 0 0 0
137 1 15.719563943766227 6.289774093242004 3.145973898233481 0 0 0
138 1 17.290968273098816 7.861672933241895 4.717934935299354 0 0 0
139 1 18.863243996758307 6.289466695951228 3.1456857437537846 0 0 0
140 1 20.434950581104633 7.861232267405939 4.717493261662817 0 0 0
141 1 22.006708131029892 9.432993557052544 3.14564640260182 -1 0 0
142 1 1.5745828386386849 11.00477689862705 4.717486668339915 0 0 0
143 1 3.1462964444236126 9.4330110518065 3.145667682918172 0 0 0
144 1 4.718633676273129 11.004817438539334 4.717870804446408 0 0 0
145 1 6.290108485699723 9.433225336094726 3.1460963735963263 0 0 0
146 1 7.865950279729249 11.005204643175956 4.722066534030713 0 0 0
147 1 9.433355174405802 9.433286418222288 3.1494308957656614 0 0 0
148 1 11.005378762656676 11.005463204959693 4.706054075863543 0 0 0
149 1 12.576566003496955 9.433660264257298 3.1496449649677256 0 0 0
150 1 14.141365590143955 11.006431677381698 4.729885391398041 0 0 0
151 1 15.71897742003309 9.433699771191346 3.1467146284117242 0 0 0
152 1 17.289994270746675 11.00523964593025 4.7186532330436854 0 0 0
153 1 18.86316460972299 9.433070459898317 3.1457361599268125 0 0 0
154 1 20.434871298383154 11.004804928471524 4.717517734477297 0 0 0
155 1 22.006710832150382 12.576556259163938 3.1456445437237295 -1 0 0
156 1 1.5745624230282889 14.148332490249002 4.717478701926321 0 0 0
157 1 3.146293531763509 12.576539077800263 3.145664941665981 0 0 0
158 1 4.718357891356099 14.148158105820373 4.717658503915724 0 0 0
159 1 6.290109796253862 12.57637996070721 3.1460974487813833 0 0 0
160 1 7.865096154696397 14.14504003327913 4.721149847050616 0 0 0
161 1 9.433753193373438 12.576658701286663 3.150086175860833 0 0 0
162 1 11.00622408410869 14.14105161610769 4.731014840080219 0 0 0
163 1 12.576437271716097 12.57654910323537 3.150292517663941 0 0 0
164 1 14.144631415488488 14.144811900531785 4.72449462764277 0 0 0
165 1 15.718748057869263 12.576158420747044 3.147152942697931 0 0 0
166 1 17.290522065930375 14.14770548693068 4.7183207662793505 0 0 0
167 1 18.86318965131416 12.576525469954516 3.1457093449650606 0 0 0
168 1 20.43490362340721 14.148302472805167 4.717511356005765 0 0 0
169 1 22.006709436176948 15.720122837034648 3.1456447802525696 -1 0 0
170 1 1.5745435260091016 17.2919064380155 4.717470612816072 0 0 0
171 1 3.146282615343347 15.720105971365276 3.1456622858119405 0 0 0
172 1 4.718045192811554 17.291834334893615 4.717537280595667 0 0 0
173 1 6.290043971853233 15.719766771306336 3.146023503901608 0 0 0
174 1 7.861905435282779 17.291196708385684 4.7180099553726915 0 0 0
175 1 9.433800452891884 15.719186461286412 3.146803028624674 0 0 0
176 1 11.005227225843429 17.29028634168419 4.718662131403366 0 0 0
177 1 12.576025799241588 15.718931214140195 3.1472650240147964 0 0 0
178 1 14.147452434610504 17.29074811492925 4.718407011352315 0 0 0
179 1 15.719347474835148 15.719583533858266 3.146354534478947 0 0 0
180 1 17.291208972464016 17.291527773127903 4.717826723381731 0 0 0
181 1 18.863207857829586 15.720056267327593 3.1457167920148152 0 0 0
182 1 20.434970335356677 17.29188893702976 4.7174874824057715 0 0 0
183 1 22.006712856592298 18.86369476398971 3.145640975503121 -1 0 0
184 1 1.574538050213182 20.435481092052502 4.71746609158235 0 0 0
185 1 3.1462505786761876 18.863690981376397 3.145644086899413 0 0 0
186 1 4.717956994210887 20.43547254441359 4.717471195428652 0 0 0
187 1 6.2897075348512175 18.86363152385843 3.1456908401928705 0 0 0
188 1 7.861392582610396 20.43541553641296 4.7174967900575275 0 0 0
189 1 9.43314734860801 18.863562121284684 3.1457324159456657 0 0 0
190 1 11.004805182587956 20.435340968674357 4.717519142135674 0 0 0
191 1 12.576447649571207 18.863583735796116 3.1457086091265265 0 0 0
192 1 14.148139982234776 20.435367243429347 4.71751599078822 0 0 0
193 1 15.719814438465017 18.863595915878292 3.145721994188222 0 0 0
194 1 17.291574879178366 20.435443455178273 4.71748663810952 0 0 0
195 1 18.863272140321993 18.863665927536605 3.1456678626260866 0 0 0
196 1 20.435006925155683 20.4354792440763 4.7174671941476305 0 0 0
197 1 22.00671501649475 22.00726608280789 6.289292807280717 -1 -1 0
198 1 1.5745378338711284 1.5740654809296093 7.861119697911235 0 0 0
199 1 3.146244049700718 22.00726613997798 6.289292690757584 0 -1 0
200 1 4.71795129495026 1.5740675780323585 7.861119784263382 0 0 0
201 1 6.289662621049263 22.007259350310367 6.289297054742674 0 -1 0
202 1 7.8613789260902465 1.5741023809391297 7.861121248812651 0 0 0
203 1 9.433078371261118 22.007229160194292 6.289303327555633 0 -1 0
204 1 11.004764898150015 1.574058313916718 7.861108826139032 0 0 0
205 1 12.576475228433804 22.00719031021503 6.289312526310315 0 -1 0
206 1 14.14818033229076 1.574096346999733 7.861109337851263 0 0 0
207 1 15.719880331389032 22.007239453831776 6.28930135361385 0 -1 0
208 1 17.291592236644846 1.5740693483735453 7.861122247578993 0 0 0
209 1 18.863300615476767 22.007263339711432 6.289294130337595 0 -1 0
210 1 20.43500893826037 1.574065448278924 7.861119660524897 0 0 0
211 1 0.0028318408577882232 3.145850362374834 6.289292676097688 0 0 0
212 1 1.5745397771004193 4.7176361887704275 7.861119697774351 0 0 0
213 1 3.146245867431235 3.1458522194327 6.28929391161385 0 0 0
214 1 4.717985834397173 4.717671761834357 7.8611228983143695 0 0 0
215 1 6.289679418514156 3.1458953682877264 6.289309979119783 0 0 0
216 1 7.861697294817072 4.718198689734056 7.861105204216289 0 0 0
217 1 9.433045368721364 3.146070796894541 6.289268972493088 0 0 0
218 1 11.004540356650859 4.717351518537873 7.860863688358219 0 0 0
219 1 12.576498709002523 3.1461382591572087 6.289308272517003 0 0 0
220 1 14.148066538865299 4.718411222878896 7.860872387153873 0 0 0
221 1 15.719871500671998 3.145912947874265 6.2893080147393645 0 0 0
222 1 17.29154412044 4.71773999053855 7.861148303241269 0 0 0
223 1 18.86329901289762 3.1458563689738885 6.2892953236422935 0 0 0
224 1 20.43500725142997 4.717636499794548 7.8611199475960385 0 0 0
225 1 22.006710013783785 6.28942567380781 6.28929629115966 -1 0 0
226 1 1.5745762979188744 7.861222302839469 7.861120375206882 0 0 0
227 1 3.1462855174669677 6.2894423899569825 6.289309155268657 0 0 0
228 1 4.718504148084683 7.861557229370913 7.861108213478436 0 0 0
229 1 6.289981485836537 6.289775269779324 6.289420300225826 0 0 0
230 1 7.8645662101822715 7.86463641983846 7.8605264649816124 0 0 0
231 1 9.432851656388518 6.292670919930106 6.2890651913681 0 0 0
232 1 11.001573157330732 7.844614636054507 7.8578817953734585 0 0 0
233 1 12.576623259841236 6.293327033403741 6.289514583571104 0 0 0
234 1 14.145604663513499 7.870225214748825 7.85749052548704 0 0 0
235 1 15.719401769382634 6.29011049565075 6.289573980071356 0 0 0
236 1 17.290366999310884 7.862271807284451 7.8614237552792865 0 0 0
237 1 18.863203852452106 6.289497446789228 6.289356414965039 0 0 0
238 1 20.434898808134914 7.861247076107167 7.861142372955725 0 0 0
239 1 22.006687785278658 9.43300066679111 6.289303759631093 -1 0 0
240 1 1.5745846757930768 11.004778827364982 7.861120643663792 0 0 0
241 1 3.1465300678393335 9.433002386074923 6.289304375882533 0 0 0
242 1 4.718368421339478 11.0048207131366 7.861110335364194 0 0 0
243 1 6.293521894595103 9.433371081037107 6.289665781310763 0 0 0
244 1 7.851177846615966 11.005445175476583 7.862111511421884 0 0 0
245 1 9.447672995327961 9.447410792520355 6.304170514789584 0 0 0
246 1 20.435008920035333 20.435481262085627 20.435734972938892 0 0 0
247 1 12.565638151036103 9.450494125979947 6.302410052609888 0 0 0
248 1 14.16977894802903 11.015048550134377 7.861473607956623 0 0 0
249 1 15.714023567235923 9.43594707899444 6.291705769358137 0 0 0
250 1 17.288046604296685 11.00501561577462 7.860954011133248 0 0 0
251 1 18.86273424616332 9.433148554190325 6.289443709226606 0 0 0
252 1 20.434667126037844 11.004782274839277 7.8611148272128615 0 0 0
253 1 22.006648686091705 12.576555471130698 6.289311831524342 -1 0 0
254 1 1.574604328087373 14.14832383846864 7.861122417113694 0 0 0
255 1 3.1465790702439973 12.576569248143484 6.28931890358717 0 0 0
256 1 4.719158929966726 14.147969531142015 7.861128339233951 0 0 0
257 1 6.294174861839384 12.576565277950955 6.290057960841701 0 0 0
258 1 7.87364228305942 14.142249846401512 7.861541361161289 0 0 0
259 1 9.451760763662307 12.56457888525234 6.308209517024272 0 0 0
260 1 11.01414170739937 14.155914520788448 7.870661015929952 0 0 0
261 1 12.567126926531628 12.567017156372867 6.281701373624075 0 0 0
262 1 14.129490389739994 14.12941619610835 7.873098272778841 0 0 0
263 1 15.707630066480963 12.57614038513748 6.29537292958932 0 0 0
264 1 17.287077628528138 14.14757740162597 7.861113374281682 0 0 0
265 1 18.862095198966625 12.576549608728572 6.2896661422030435 0 0 0
266 1 20.434673875930585 14.148316784044752 7.861108704540352 0 0 0
267 1 22.00669053523049 15.720114746273424 6.289303177302344 -1 0 0
268 1 1.5745421145904288 17.291906688148973 7.861121625808427 0 0 0
269 1 3.146349446319361 15.72008203861451 6.289333239218715 0 0 0
270 1 4.718063331573049 17.2918418668884 7.861152423164244 0 0 0
271 1 6.290732104134218 15.719271538339529 6.289931369787013 0 0 0
272 1 7.862505882417196 17.29039655049726 7.861520453563448 0 0 0
273 1 9.436621698869631 15.713099085133305 6.2928232974070815 0 0 0
274 1 11.004815513538427 17.28725923978903 7.861128745929754 0 0 0
275 1 12.575028869867051 15.706577739874104 6.296584614507711 0 0 0
276 1 14.147500129034313 17.287464830944646 7.861018849585458 0 0 0
277 1 15.716156418459363 15.716443389933238 6.292595998293309 0 0 0
278 1 17.291143185589956 17.291453766120917 7.861297936409905 0 0 0
279 1 18.86289491475643 15.719934838288786 6.289477658760668 0 0 0
280 1 20.434959428116134 17.291886289548987 7.861138802306238 0 0 0
281 1 22.006712346610456 18.863694246196665 6.289294042386289 -1 0 0
282 1 1.574537804669033 20.43548127569122 7.8611196110075285 0 0 0
283 1 3.146250476665384 18.86369160944016 6.289295615941552 0 0 0
284 1 4.717952123985004 20.43547833179995 7.861120023855386 0 0 0
285 1 6.289744208252032 18.863570366780724 6.2893675875414905 0 0 0
286 1 7.86141251594975 20.435347528909293 7.861148941607059 0 0 0
287 1 9.433251333428114 18.863036477992857 6.289473637181834 0 0 0
288 1 11.004771489513356 20.43507508542306 7.861115385432447 0 0 0
289 1 12.57642377764227 18.86238222221652 6.289714654210241 0 0 0
290 1 14.148162405931357 20.435150796339933 7.8611041487094395 0 0 0
291 1 15.719707464745051 18.863301157847996 6.2894685069063305 0 0 0
292 1 17.291571337099818 20.435431233794592 7.861139282785948 0 0 0
293 1 18.863272387476975 18.863665633326693 6.289315860413366 0 0 0
294 1 20.43500736080921 20.435479702924248 7.861120627363249 0 0 0
295 1 22.00671512474696 22.00726618006948 9.432946626702577 -1 -1 0
296 1 1.5745379214110165 1.574065571100584 11.004773508546027 0 0 0
297 1 3.1462440059618784 22.007266201022897 9.432946710649613 0 -1 0
298 1 4.717952312726056 1.5740685167915842 11.004771987069068 0 0 0
299 1 6.289660766775982 22.00726197232547 9.432944837715523 0 -1 0
300 1 7.861371072757253 1.5740815699652382 11.004764092198496 0 0 0
301 1 9.433086385328199 22.00719072706023 9.432941053311758 0 -1 0
302 1 11.00476502991533 1.5740730756210883 11.004767199522618 0 0 0
303 1 12.57647654949789 22.00719410832253 9.432941210800989 0 -1 0
304 1 14.148188570833398 1.574058984867119 11.004775067841381 0 0 0
305 1 15.719871403693412 22.00721980763313 9.43294325212879 0 -1 0
306 1 17.291590604375322 1.5740716758103865 11.004768225558848 0 0 0
307 1 18.863301809289553 22.00726422261121 9.432946757793951 0 -1 0
308 1 20.435008934445705 1.574065505214685 11.004773599481595 0 0 0
309 1 0.0028318521754049342 3.145850327906585 9.43294670925468 0 0 0
310 1 1.574540789912907 4.717637278832097 11.004772130123705 0 0 0
311 1 3.146245621250178 3.1458519098744615 9.432945815038206 0 0 0
312 1 4.71798208045779 4.717667932335759 11.004748139714915 0 0 0
313 1 6.289680792405742 3.1458999602738205 9.432927338076135 0 0 0
314 1 7.861490909875798 4.7179219317601175 11.004634798288961 0 0 0
315 1 9.433072448019194 3.146079979081444 9.432951938442269 0 0 0
316 1 11.004556564787459 4.718014124703712 11.004643098429048 0 0 0
317 1 12.576500512992945 3.145715148388399 9.432942275838096 0 0 0
318 1 14.148289758779727 4.717820463121176 11.004870044131636 0 0 0
319 1 15.719840183602981 3.145975606586526 9.432916391350425 0 0 0
320 1 17.29152229279862 4.717759633146706 11.004698530922687 0 0 0
321 1 18.863300703870365 3.1458531249849506 9.432946453926867 0 0 0
322 1 20.435003890184436 4.717639112978431 11.004770890730551 0 0 0
323 1 22.006712134357564 6.289424210624526 9.432944849137616 -1 0 0
324 1 1.5745556240056955 7.861214668131835 11.004764803228175 0 0 0
325 1 3.14628935601303 6.289442814042743 9.432927202339435 0 0 0
326 1 4.718224803715387 7.861350053095668 11.004628271199838 0 0 0
327 1 6.290068361078442 6.289866607524599 9.432752881954894 0 0 0
328 1 7.863607021970132 7.863713527941763 11.002221279847154 0 0 0
329 1 9.433005140411558 6.292538859700021 9.432876289426382 0 0 0
330 1 11.001978325506805 7.864931736997584 11.002121058105262 0 0 0
331 1 12.576707724732934 6.28592422467537 9.432769012350146 0 0 0
332 1 14.148541106237088 7.864937533692744 11.00548198663124 0 0 0
333 1 15.71891042673598 6.290841288488804 9.432516526749271 0 0 0
334 1 17.290788990717346 7.862031441373113 11.00417048592097 0 0 0
335 1 18.863211885939695 6.28948054834469 9.432915818644231 0 0 0
336 1 20.434922347879464 7.861245101032706 11.004735748622197 0 0 0
337 1 22.006659325044144 9.433007135631252 9.432941173968958 -1 0 0
338 1 1.5745936948621186 11.0047789345396 11.004755194180602 0 0 0
339 1 3.146496474322711 9.433012029805582 9.432948807751567 0 0 0
340 1 4.718912762240592 11.00483683544899 11.004395729170795 0 0 0
341 1 6.2928345383872974 9.433480378131197 9.432827679977827 0 0 0
342 1 7.870137624088433 11.006238802180908 10.997450401412916 0 0 0
343 1 9.435613964455806 9.441369466145225 9.42057104960046 0 0 0
344 1 10.991995292518876 11.013233707819401 11.056972191852964 0 0 0
345 1 12.589270948053596 9.380780105311473 9.424483932972997 0 0 0
346 1 14.145636948919268 11.017148905818722 10.99638461854852 0 0 0
347 1 15.711137168111856 9.440298052917326 9.43148536015144 0 0 0
348 1 17.288418015273148 11.004893285986883 11.004281689099065 0 0 0
349 1 18.86234149521409 9.433366535209403 9.432883294947242 0 0 0
350 1 20.434756468194088 11.004771356272432 11.004750301010619 0 0 0
351 1 22.006668223898068 12.576557236877834 9.432941276001971 -1 0 0
352 1 1.5745651598830959 14.148331911766833 11.004761656240344 0 0 0
353 1 3.1465858158294298 12.576563084294216 9.432937846153516 0 0 0
354 1 4.718518638890957 14.1481920643125 11.004613852128832 0 0 0
355 1 6.293206308897394 12.576723985527636 9.432704721088964 0 0 0
356 1 7.8672294243435505 14.145929703793547 11.001815108752414 0 0 0
357 1 9.411512854283066 12.576187523727604 9.422656641736172 0 0 0
358 1 11.015616343966782 14.135237824492501 10.987281926411699 0 0 0
359 1 18.86330148443281 18.863695108092767 18.863905800737914 0 0 0
360 1 14.133580746577838 14.13346590199383 10.99035206339764 0 0 0
361 1 15.730063587559052 12.575562067517167 9.432270257279436 0 0 0
362 1 17.287730380873782 14.147969220266317 11.004390496291135 0 0 0
363 1 18.862883669403388 12.576567489074282 9.432899296309511 0 0 0
364 1 20.434722837620246 14.148331266751727 11.004759918631215 0 0 0
365 1 22.0066701207653 15.72010677681147 9.432943208008549 -1 0 0
366 1 1.5745448323137228 17.291904817383475 11.004768763819154 0 0 0
367 1 3.1463817520654493 15.720075693993174 9.432915137746345 0 0 0
368 1 4.718088472014061 17.291814995483264 11.004691769891988 0 0 0
369 1 6.291260166495555 15.718939466853083 9.432479531887475 0 0 0
370 1 7.862276792337531 17.290835306314367 11.004061293778285 0 0 0
371 1 9.439901254451696 15.707687771718533 9.43128452212163 0 0 0
372 1 11.004686337236567 17.287907176545637 11.004102127917221 0 0 0
373 1 12.57587784751957 15.731546002197753 9.432258528061713 0 0 0
374 1 14.14789823285461 17.288120888926183 11.004476368195977 0 0 0
375 1 15.715302311840684 15.71552626059383 9.432514979130818 0 0 0
376 1 17.291144461283274 17.291454819538583 11.004536940562787 0 0 0
377 1 18.86261927360257 15.719722692370162 9.432902684920197 0 0 0
378 1 20.43495649538263 17.291883528158 11.00475127331221 0 0 0
379 1 22.006713216721163 18.863695345683 9.4329467563943 -1 0 0
380 1 1.5745378588283905 20.435481272450268 11.004773662460005 0 0 0
381 1 3.1462468131557917 18.86369447825235 9.432946575868463 0 0 0
382 1 4.717954834376105 20.435474739422354 11.004770786106208 0 0 0
383 1 6.289723873608888 18.863584975560588 9.43291537751447 0 0 0
384 1 7.861410445448352 20.43537185291417 11.004728576868954 0 0 0
385 1 9.433478534712382 18.86245199981838 9.432875585788393 0 0 0
386 1 11.004760275515268 20.435175904909606 11.004749569173812 0 0 0
387 1 12.576452404091798 18.86332625936256 9.432893817524775 0 0 0
388 1 14.148176617400562 20.435199594246395 11.004763792532868 0 0 0
389 1 15.719482580618944 18.863009677072302 9.43290224057731 0 0 0
390 1 17.29156830992705 20.435428034866202 11.004750802169243 0 0 0
391 1 18.86326574550477 18.863659451507086 9.432944921571107 0 0 0
392 1 20.435007083961068 20.43547943276715 11.004772604413002 0 0 0
393 1 22.006715013770624 22.007266081803785 12.576600386422921 -1 -1 0
394 1 1.5745379203307523 1.574065568102555 14.148427186352805 0 0 0
395 1 3.146244211581347 22.00726598249163 12.576600196913615 0 -1 0
396 1 4.717951422186423 1.5740672086911045 14.148425593695586 0 0 0
397 1 6.289661346706826 22.00725970499136 12.576595520141828 0 -1 0
398 1 7.861362850477963 1.5740651863542972 14.148425068744274 0 0 0
399 1 9.433075117626643 22.00723977361864 12.576590453656722 0 -1 0
400 1 11.004775810011507 1.5740663694054204 14.148423549274902 0 0 0
401 1 12.576477423996971 22.007219770740804 12.57658159757833 0 -1 0
402 1 14.148182135334292 1.5740674066908003 14.148422448939222 0 0 0
403 1 15.71988266636141 22.007239194279723 12.576591494362926 0 -1 0
404 1 17.291595596508007 1.5740650438849166 14.148425463107415 0 0 0
405 1 18.86330040835749 22.00726329409473 12.576598584386074 0 -1 0
406 1 20.435008724389668 1.5740657592060916 14.148426899665228 0 0 0
407 1 22.00671501341759 3.1458505184775984 12.576600219493395 -1 0 0
408 1 1.5745394879200332 4.717636449292156 14.148425745928035 0 0 0
409 1 3.1462461232304926 3.145852520647865 12.576598762650114 0 0 0
410 1 4.71797179263467 4.7176588037744445 14.14840499481751 0 0 0
411 1 6.289672753897839 3.145880273912751 12.57658300925708 0 0 0
412 1 7.861377477486407 4.717658780787075 14.1484052525353 0 0 0
413 1 9.433071464101447 3.145874574009377 12.576592364067608 0 0 0
414 1 11.00479325276063 4.717698315131083 14.148388249476923 0 0 0
415 1 12.57646349532234 3.1459258195352633 12.57656280101452 0 0 0
416 1 14.148148076469878 4.71769605952641 14.148387669800702 0 0 0
417 1 15.71988900961008 3.14586873285276 12.576596343493819 0 0 0
418 1 17.291576400558977 4.71766676931952 14.148404731357997 0 0 0
419 1 18.863297018345783 3.1458587291475903 12.576594959911276 0 0 0
420 1 20.4350043406313 4.717639672130092 14.148423066959248 0 0 0
421 1 22.006710411321983 6.289424406099055 12.576596299177597 -1 0 0
422 1 1.5745425493066465 7.861208251615832 14.148422354199692 0 0 0
423 1 3.1462720131836686 6.289437099755508 12.576583813717784 0 0 0
424 1 4.718018876572275 7.8612678803511535 14.148359089372358 0 0 0
425 1 6.289920992980632 6.289711903001054 12.57633521154839 0 0 0
426 1 7.861516279994468 7.861370515043009 14.148126183809877 0 0 0
427 1 9.433139259588621 6.289667645041794 12.57631340650367 0 0 0
428 1 11.004974739031079 7.861851800839055 14.147629844439331 0 0 0
429 1 12.576278231226873 6.290217000521532 12.575952692304337 0 0 0
430 1 14.14811361610773 7.861491162599512 14.14817906360694 0 0 0
431 1 15.719736678991305 6.289720602597236 12.57643411645883 0 0 0
432 1 17.291331936322617 7.861469342626346 14.148134917292786 0 0 0
433 1 18.8632341516172 6.289487597092555 12.576536760290972 0 0 0
434 1 20.43498091850038 7.8612207419903095 14.148409650715852 0 0 0
435 1 22.006697322020056 9.43299752980374 12.57658986872617 -1 0 0
436 1 1.574540830490806 11.004775255744802 14.148422544636096 0 0 0
437 1 3.146330720686604 9.43302661738852 12.576559395180658 0 0 0
438 1 4.718041094159433 11.004804290755366 14.148366281033615 0 0 0
439 1 6.290465339137528 9.433593127248805 12.575771803746893 0 0 0
440 1 7.862343732229732 11.005204662922267 14.147003509567142 0 0 0