LAMMPS data file via write_data, version 2 Aug 2023, timestep = 120, units = metal

690 atoms
3 atom types

-0.009743866510547839 22.019290863366333 xlo xhi
-0.006613471306021221 22.01616046816181 ylo yhi
-0.004434152027039354 22.013981148882813 zlo zhi

Masses

1 183.84
2 1.008
3 4.0026

Atoms # atomic

1 1 -0.009743863791480126 -0.006613468587092835 -0.004434149302687729 0 0 0
2 1 1.563758617057973 1.5664418129331863 1.5683098008231267 0 0 0
3 1 3.1372610975789117 -0.0066134685328932226 -0.004434149291159838 0 0 0
4 1 4.710763579711386 1.5664418133101465 1.5683098028895517 0 0 0
5 1 6.284266058710116 -0.006613468720601406 -0.004434149281483474 0 0 0
6 1 7.857768547797923 1.5664418295913072 1.568309802210292 0 0 0
7 1 9.431271017252934 -0.0066134696490163045 -0.004434150177784888 0 0 0
8 1 11.004773508502181 1.5664416306799234 1.5683096570718986 0 0 0
9 1 12.578275982612908 -0.006613469762544137 -0.00443415134706452 0 0 0
10 1 14.151778448378389 1.5664418189034703 1.56830980765775 0 0 0
11 1 15.725280941690201 -0.006613468672270338 -0.004434149679722953 0 0 0
12 1 17.298783415352382 1.5664418232367459 1.5683098074983104 0 0 0
13 1 18.87228590229596 -0.006613468533703448 -0.004434149052257404 0 0 0
14 1 20.445788383490058 1.566441812639267 1.568309800707734 0 0 0
15 1 -0.009743863972642989 3.139497094301676 -0.004434149160849482 0 0 0
16 1 1.5637586178558693 4.712552377270873 1.5683098032492484 0 0 0
17 1 3.137261096148628 3.139497092780756 -0.004434151160657929 0 0 0
18 1 4.710763498101066 4.712552288399791 1.5683096981909372 0 0 0
19 1 6.284266073761435 3.1394971102019467 -0.004434129655526561 0 0 0
20 1 7.857769297580598 4.712553120755371 1.5683105506210622 0 0 0
21 1 9.431270970884446 3.1394970283564034 22.01398107644932 0 0 -1
22 1 11.004773745403213 4.712549221800935 1.568307239359449 0 0 0
23 1 12.5782760070112 3.1394969718841104 22.01398105641449 0 0 -1
24 1 14.151777846856653 4.712551887200216 1.5683088474205253 0 0 0
25 1 15.725280954862065 3.139497083557881 22.013981135475372 0 0 -1
26 1 17.298783121695593 4.712552624798585 1.5683100878718765 0 0 0
27 1 18.872285897659147 3.1394970990752458 -0.00443414411599388 0 0 0
28 1 20.445788373418587 4.712552379519843 1.5683098049317583 0 0 0
29 1 -0.00974386194315549 6.285607655789033 -0.004434150375344961 0 0 0
30 1 1.563758643146881 7.8586629546403 1.5683098140473255 0 0 0
31 1 3.137261112831853 6.285607667765176 -0.004434130138484812 0 0 0
32 1 4.710764242031149 7.8586633917591655 1.5683104845210665 0 0 0
33 1 6.28426586002236 6.285607492441702 22.013980853129286 0 0 -1
34 1 7.8577629210002105 7.85865688753038 1.568299098132775 0 0 0
35 1 9.431271728565152 6.285608319910007 -0.004432909240806717 0 0 0
36 1 11.004791604284968 7.858678315026212 1.5683421456711322 0 0 0
37 1 12.578275852057937 6.285605725194256 22.013979813922624 0 0 -1
38 1 14.151763635491932 7.85868016355996 1.5683296123423367 0 0 0
39 1 15.725280494368036 6.285608149105691 -0.004433478763733043 0 0 0
40 1 17.298785317659732 7.85866107310598 1.5683076557318525 0 0 0
41 1 18.872285954762926 6.285607617553196 22.01398109342949 0 0 -1
42 1 20.44578844586424 7.858662901390465 1.568309766802513 0 0 0
43 1 22.019290859317767 9.431718217866484 -0.004434148183517692 -1 0 0
44 1 1.5637583736908498 11.004773498265298 1.5683095679398424 0 0 0
45 1 3.1372610505221425 9.431718214419625 22.01398111096547 0 0 -1
46 1 4.710762579846337 11.004773370324576 1.5683098124966561 0 0 0
47 1 6.284266529487226 9.43171846907492 -0.004433304646185682 0 0 0
48 1 7.85777008286892 11.004774726411611 1.5683223383299145 0 0 0
49 1 9.431269480538454 9.431717419478606 22.01397417549231 0 0 -1
50 1 11.004781347417675 11.004775578046287 1.5682324420533382 0 0 0
51 1 12.57827557355479 9.431716771101291 -0.004418903693740274 0 0 0
52 1 14.15177576273055 11.004774736651056 1.5682377017226614 0 0 0
53 1 15.72528262523866 9.431717296740487 22.013978071990184 0 0 -1
54 1 17.29877858511319 11.00477338996059 1.5683142507177135 0 0 0
55 1 18.872285744786744 9.431718291517019 -0.004433990353426939 0 0 0
56 1 20.44578829063317 11.00477349809695 1.56830984833014 0 0 0
57 1 22.01929085927689 12.577828782046472 -0.004434147700900742 -1 0 0
58 1 1.5637586381725967 14.15088404764884 1.5683098115044625 0 0 0
59 1 3.137261075004737 12.577828782812581 22.013981135386704 0 0 -1
60 1 4.710764005092666 14.150883780022502 1.568310231644718 0 0 0
61 1 6.2842664151862415 12.577828578391298 -0.004433543625354341 0 0 0
62 1 7.857765049386168 14.150888355372524 1.5683029983335033 0 0 0
63 1 9.43126925078437 12.57782942157576 22.01397610376614 0 0 -1
64 1 11.004791637029053 14.150867405851779 1.5683288929688581 0 0 0
65 1 12.578275851784174 12.577830037140703 -0.004417040870450069 0 0 0
66 1 14.15176121812607 14.150865139037439 1.5683336801111964 0 0 0
67 1 15.725282680285174 12.577829754107317 22.013977910379207 0 0 -1
68 1 17.29878552127254 14.150886078759362 1.5683074353318591 0 0 0
69 1 18.872285722440935 12.577828706361897 -0.00443396890470876 0 0 0
70 1 20.44578845100929 14.150884101117454 1.568309763556902 0 0 0
71 1 -0.009743861942312353 15.723939344326313 -0.0044341504853263655 0 0 0
72 1 1.5637586185912111 17.296994622211347 1.5683098033713332 0 0 0
73 1 3.137261106999836 15.723939335722271 -0.00443413660622105 0 0 0
74 1 4.71076354320872 17.296994668301338 1.5683097546082734 0 0 0
75 1 6.284265934242108 15.723939449847737 22.013980973050845 0 0 -1
76 1 7.8577689694206 17.29699428116247 1.5683101573552938 0 0 0
77 1 9.431271533736814 15.723938848106897 -0.00443337668733736 0 0 0
78 1 11.00477375566317 17.296995590054486 1.5683085332098547 0 0 0
79 1 12.578276045241852 15.723941565661235 22.013979234053835 0 0 -1
80 1 14.151778165293978 17.296995641363583 1.5683083296236353 0 0 0
81 1 15.725280418363655 15.723938792157997 -0.004433358606372452 0 0 0
82 1 17.298783076193637 17.296994331406676 1.568310144314753 0 0 0
83 1 18.872285959973336 15.723939385291363 22.013981087624234 0 0 -1
84 1 20.445788372602507 17.296994619896555 1.5683098051375244 0 0 0
85 1 -0.009743863974194472 18.87004990580767 -0.004434149146784104 0 0 0
86 1 1.5637586170163633 20.443105187317567 1.5683098008630314 0 0 0
87 1 3.1372610971031714 18.870049906602333 -0.004434149984571547 0 0 0
88 1 4.7107635762289215 20.44310519002221 1.5683097991278243 0 0 0
89 1 6.284266065105856 18.870049899030032 -0.004434142131456173 0 0 0
90 1 7.857768546036227 20.4431051750292 1.5683098076894681 0 0 0
91 1 9.431270998045843 18.87004993525461 22.01398111582709 0 0 -1
92 1 11.004773506716699 20.44310519708117 1.5683097987666803 0 0 0
93 1 12.578275978938414 18.8700499935693 22.01398109306345 0 0 -1
94 1 14.151778451959828 20.443105188394437 1.5683098114003886 0 0 0
95 1 15.725280964421248 18.870049926710106 22.0139811220207 0 0 -1
96 1 17.2987834188113 20.44310518002943 1.5683098037410599 0 0 0
97 1 18.872285896714224 18.870049900298145 -0.004434142942543309 0 0 0
98 1 20.4457883835367 20.443105187616922 1.5683098007426068 0 0 0
99 1 -0.009743863811865905 -0.0066134685898975925 3.1410537507924152 0 0 0
100 1 1.5637586175249587 1.5664418134141478 4.713797701037813 0 0 0
101 1 3.1372610975299815 -0.0066134688511107435 3.1410537507386693 0 0 0
102 1 4.710763577585849 1.5664418103780047 4.713797698087686 0 0 0
103 1 6.284266053372008 -0.006613468302005373 3.1410537460446273 0 0 0
104 1 7.8577682286588475 1.56644144983789 4.7137973826527535 0 0 0
105 1 9.43127103335847 -0.0066134483483881994 3.1410537667067366 0 0 0
106 1 11.004773401529441 1.5664433315176276 4.713798004027021 0 0 0
107 1 12.578275965568148 -0.0066134470576284955 3.141053777307507 0 0 0
108 1 14.151778877747514 1.566441525278535 4.7137972728971045 0 0 0
109 1 15.725280947727496 -0.006613468333625969 3.141053745789165 0 0 0
110 1 17.29878341230303 1.5664418221181007 4.713797704528785 0 0 0
111 1 18.87228590258731 -0.00661346883062915 3.141053750812033 0 0 0
112 1 20.445788382647798 1.5664418132774074 4.713797700752436 0 0 0
113 1 -0.009743863582461562 3.1394970936481097 3.1410537503512246 0 0 0
114 1 1.5637586134679027 4.712552374752006 4.713797696623658 0 0 0
115 1 3.137261096392964 3.1394970929627823 3.141053746214563 0 0 0
116 1 4.710763214646831 4.712552019089924 4.71379719843309 0 0 0
117 1 6.2842660881507 3.1394970130841817 3.1410537784734816 0 0 0
118 1 7.85776192951778 4.712542557855638 4.713791222185838 0 0 0
119 1 9.431272337291803 3.1394980106055987 3.141053869365925 0 0 0
120 1 11.004767613355073 4.712651262821066 4.713877223286485 0 0 0
121 1 12.578274705906884 3.1394987576066438 3.1410544152414306 0 0 0
122 1 14.151790872121301 4.712550858126121 4.713785292218644 0 0 0
123 1 15.725280857942643 3.139497324817742 3.1410538318149244 0 0 0
124 1 17.29878397318535 4.712551967302924 4.71379733834362 0 0 0
125 1 18.872285913553885 3.139497081777239 3.1410537407849546 0 0 0
126 1 20.44578839946583 4.712552362543695 4.7137976859353135 0 0 0
127 1 22.01929085898953 6.285607651883371 3.1410537468462447 -1 0 0
128 1 1.5637582343461292 7.858662617563853 4.713797365877672 0 0 0
129 1 3.137261055583133 6.285607676152023 3.1410537886518166 0 0 0
130 1 4.7107537587940405 7.858655875870001 4.713791083840009 0 0 0
131 1 6.284262231891734 6.285603058675441 3.14104886992545 0 0 0
132 1 7.8575791349011315 7.858472272285582 4.713616225628743 0 0 0
133 1 9.431296617073253 6.285643949335132 3.141082626019066 0 0 0
134 1 11.004799937496095 7.859615257514376 4.714483486752415 0 0 0
135 1 12.578265084708137 6.285666508718918 3.1410946261483432 0 0 0
136 1 14.15195425175457 7.8590928793248045 4.713932879180014 0 0 0
137 1 15.72527052903878 6.285615860952599 3.141063329098425 0 0 0
138 1 17.298783986832476 7.858664828740956 4.713798843361918 0 0 0
139 1 18.872285571910275 6.285607737378044 3.141053823554899 0 0 0
140 1 20.445788467534626 7.858662801209309 4.713797594389848 0 0 0
141 1 -0.009743782226141594 9.431718236963365 3.14105379189699 0 0 0
142 1 1.5637607079979876 11.004773514257495 4.713798644829655 0 0 0
143 1 3.1372624716415523 9.431719579006167 3.1410545249783133 0 0 0
144 1 4.710858644315936 11.004774808091318 4.71388682667914 0 0 0
145 1 6.284291118837398 9.431729770863582 3.1410710390589225 0 0 0
146 1 7.85807693819586 11.004875521614409 4.714179714120303 0 0 0
147 1 9.431181461257177 9.431637879857425 3.140730723082989 0 0 0
148 1 11.002224140858416 11.004342418989602 4.710045625476725 0 0 0
149 1 12.578276452586167 9.432262190773207 3.14172972484909 0 0 0
150 1 14.153880161853277 11.00487192354018 4.710621428729453 0 0 0
151 1 15.725344199913826 9.431656887313592 3.140988555494477 0 0 0
152 1 17.298838072841765 11.004774781829296 4.7137870848414645 0 0 0
153 1 18.87228804758768 9.431717364251305 3.1410528343751327 0 0 0
154 1 20.445788812775508 11.00477351463337 4.713798472803503 0 0 0
155 1 -0.009743782110365364 12.577828763940712 3.1410537896190043 0 0 0
156 1 1.5637582662025873 14.150884372768289 4.713797372411742 0 0 0
157 1 3.137262237386358 12.577827450736313 3.1410544181106537 0 0 0
158 1 4.710755880079325 14.15089002456061 4.713791589488045 0 0 0
159 1 6.28428013396743 12.577819462610103 3.1410603341662635 0 0 0
160 1 7.857654121542801 14.150983272415637 4.713684457146082 0 0 0
161 1 9.431192697405017 12.577891556967069 3.1408494337038375 0 0 0
162 1 11.004802240790395 14.150346966172023 4.7139361255976056 0 0 0
163 1 12.578265510248707 12.57726821834637 3.141849359025359 0 0 0
164 1 14.151879305673809 14.150362727550114 4.714000673907911 0 0 0
165 1 15.725353595617197 12.577892311766806 3.140979414226844 0 0 0
166 1 17.298781712345544 14.150881049343683 4.7137994888774575 0 0 0
167 1 18.872288306013758 12.577829668212734 3.141052685180123 0 0 0
168 1 20.44578842948306 14.15088418798967 4.713797602860839 0 0 0
169 1 22.019290858839618 15.72393934740337 3.1410537470130793 -1 0 0
170 1 1.5637586202183757 17.296994621011443 4.713797701078572 0 0 0
171 1 3.1372610932805816 15.723939297561305 3.141053793279414 0 0 0
172 1 4.710763394672593 17.29699475607868 4.713797513160573 0 0 0
173 1 6.284264000783923 15.723941805018487 3.1410510852780176 0 0 0
174 1 7.8577650101370615 17.296999941159964 4.713794392118091 0 0 0
175 1 9.431283506733674 15.723920539522197 3.141071750608756 0 0 0
176 1 11.00476784149576 17.296981026785872 4.713799658010544 0 0 0
177 1 12.578278237890617 15.7238966761526 3.141085281035919 0 0 0
178 1 14.15178760458457 17.296991640907958 4.713788565341489 0 0 0
179 1 15.72526871432008 15.72392896301466 3.1410655694402787 0 0 0
180 1 17.298783731169703 17.296994746608362 4.713797644929528 0 0 0
181 1 18.872285528680834 15.72393923151688 3.14105383238156 0 0 0
182 1 20.44578839299947 17.29699463345167 4.713797690280426 0 0 0
183 1 -0.009743863573716788 18.870049906303958 3.1410537505421634 0 0 0
184 1 1.5637586174458318 20.44310518688073 4.713797701066626 0 0 0
185 1 3.1372610974630106 18.870049903048013 3.141053751015266 0 0 0
186 1 4.710763579591127 20.443105185051245 4.713797701168684 0 0 0
187 1 6.284265965164863 18.870050040667103 3.1410536642422895 0 0 0
188 1 7.857768468072997 20.443105323390263 4.713797624656004 0 0 0
189 1 9.43127116972104 18.87004951479799 3.141053827727472 0 0 0
190 1 11.004773398261486 20.443105136805745 4.713797553722824 0 0 0
191 1 12.578275874622387 18.870048909400573 3.141054219566016 0 0 0
192 1 14.151778642696444 20.44310525217392 4.713797511632229 0 0 0
193 1 15.725280980888671 18.870049729036236 3.1410537180567695 0 0 0
194 1 17.298783410936945 20.44310517393641 4.713797707021338 0 0 0
195 1 18.87228591255043 18.870049914260115 3.1410537454585294 0 0 0
196 1 20.44578838280199 20.443105187085106 4.713797700745291 0 0 0
197 1 -0.009743863845830925 -0.006613468603399173 6.286541650448602 0 0 0
198 1 1.5637586152273593 1.5664418111494502 7.859285599759521 0 0 0
199 1 3.1372610977304416 -0.006613469005265554 6.286541650773439 0 0 0
200 1 4.710763530593988 1.5664417932384334 7.859285613770574 0 0 0
201 1 6.284266065565731 -0.006613461876050715 6.286541649767569 0 0 0
202 1 7.85776895325113 1.5664423663112517 7.859285298682165 0 0 0
203 1 9.431270797072512 22.016160191468405 6.286541406309176 0 -1 0
204 1 11.004773623343013 1.5664128795070988 7.859285327973815 0 0 0
205 1 12.578276221028514 22.01616019506278 6.286541393045767 0 -1 0
206 1 14.151777921497432 1.5664427346668044 7.859285616548408 0 0 0
207 1 15.725280914971544 -0.006613461357076469 6.286541656665928 0 0 0
208 1 17.2987834711554 1.5664417748580322 7.859285605012321 0 0 0
209 1 18.872285903693484 -0.006613468924157802 6.286541650373411 0 0 0
210 1 20.44578838421132 1.5664418119625823 7.859285600126034 0 0 0
211 1 -0.009743864095091806 3.139497094335522 6.286541650703538 0 0 0
212 1 1.56375859796418 4.71255232730102 7.859285614283997 0 0 0
213 1 3.137261142011454 3.139497139247732 6.286541682139742 0 0 0
214 1 4.710765645379038 4.712554428103697 7.859286898848933 0 0 0
215 1 6.2842664161485375 3.13949721818881 6.286541853256107 0 0 0
216 1 7.857807009037869 4.712576094851123 7.859267243785688 0 0 0
217 1 9.431254318600672 3.1394786228407536 6.2865251220224225 0 0 0
218 1 11.004783056864998 4.710823112622373 7.859254303311177 0 0 0
219 1 12.57829325935653 3.1394671035920516 6.286524501076881 0 0 0
220 1 14.151729728197854 4.712595093062809 7.859291507905617 0 0 0
221 1 15.725279781965888 3.1394983522385007 6.286542112950433 0 0 0
222 1 17.298782041461134 4.712553125474177 7.859286503121914 0 0 0
223 1 18.872285886507314 3.139497097143405 6.286541670245906 0 0 0
224 1 20.445788367501414 4.712552371100861 7.859285608611234 0 0 0
225 1 -0.009743848188226618 6.285607662644554 6.286541645710635 0 0 0
226 1 1.563759222823832 7.8586633568093935 7.8592853088415415 0 0 0
227 1 3.1372612512915308 6.285608089109139 6.286541826674842 0 0 0
228 1 4.710789046254414 7.858702657153692 7.85926837946977 0 0 0
229 1 6.28423702144281 6.285577924135254 6.286520019412049 0 0 0
230 1 7.856931214300713 7.857817412378123 7.858140500331461 0 0 0
231 1 9.430396285172378 6.285289644558778 6.285983504561944 0 0 0
232 1 11.005259267064588 7.792389126985517 7.826561900989676 0 0 0
233 1 12.57917055569996 6.284646449633344 6.285984732943079 0 0 0
234 1 14.152010599755013 7.858288527964789 7.858883818746834 0 0 0
235 1 15.725290025611127 6.285613212254185 6.286531010868781 0 0 0
236 1 17.298791391815772 7.858659018534149 7.859268523822061 0 0 0
237 1 18.872286631443373 6.285607117486476 6.286541243490091 0 0 0
238 1 20.44578836634318 7.85866317750367 7.85928551565515 0 0 0
239 1 22.019290696219347 9.431717873386045 6.286541334227109 -1 0 0
240 1 1.5637292665954414 11.004773533351917 7.859285084711168 0 0 0
241 1 3.1372421389645653 9.43170079574219 6.286525253311064 0 0 0
242 1 4.708997612297083 11.004775059145611 7.859235004725653 0 0 0
243 1 6.2838987187987545 9.430795449152429 6.285948289036579 0 0 0
244 1 7.789860122394552 11.004783604733143 7.825692847324823 0 0 0
245 1 9.426856748976334 9.427518985165191 6.275828097672483 0 0 0
246 1 11.046635787165158 11.039995149615281 7.736929183092085 0 0 0
247 1 12.5829332676029 9.409706012040362 6.2704411425319115 0 0 0
248 1 14.174451303955236 11.004725277537618 7.868774689342494 0 0 0
249 1 15.725233606348638 9.431748928332352 6.286340786200328 0 0 0
250 1 17.299510801856552 11.004774508339283 7.8592153036303705 0 0 0
251 1 18.872291831662988 9.431709994540316 6.286534651328447 0 0 0
252 1 20.44580102919145 11.004773526064561 7.8592852918302105 0 0 0
253 1 22.019290694962994 12.577829130152404 6.286541334032495 -1 0 0
254 1 1.563759451539757 14.15088361673158 7.859285318442001 0 0 0
255 1 3.1372437580729016 12.577846341731316 6.286525299259158 0 0 0
256 1 4.710797222179401 14.15084199159504 7.859268965237603 0 0 0
257 1 6.283997559035126 12.578751498638937 6.285983144127469 0 0 0
258 1 7.857065353593538 14.151667265477709 7.857853378083995 0 0 0
259 1 9.429895214901963 12.582377286973106 6.280330409927017 0 0 0
260 1 11.005249504727335 14.157672810813274 7.855314420138978 0 0 0
261 1 12.580049709818478 12.600455248299038 6.274621793979422 0 0 0
262 1 14.151908607665849 14.151247980602825 7.85859224821043 0 0 0
263 1 15.725136204132324 12.57779618885944 6.286371710413085 0 0 0
264 1 17.298784765319333 14.15088638019567 7.859268465916112 0 0 0
265 1 18.872290142156714 12.577837095562119 6.286534709680966 0 0 0
266 1 20.445788164954216 14.15088380324906 7.8592855184110695 0 0 0
267 1 -0.009743847795252236 15.72393933395364 6.286541648378132 0 0 0
268 1 1.5637586036905733 17.296994666246785 7.859285617351791 0 0 0
269 1 3.1372615770340815 15.723938819674819 6.286541909945578 0 0 0
270 1 4.710765505323898 17.29699244497204 7.859287254220291 0 0 0
271 1 6.284252015436728 15.72396536908724 6.286526274755229 0 0 0
272 1 7.857770008041212 17.297006321431464 7.859281523904518 0 0 0
273 1 9.431165345646646 15.72409068934097 6.286458391585946 0 0 0
274 1 11.004782682700592 17.297161539018177 7.8592774351359695 0 0 0
275 1 12.578401219734625 15.724721194703292 6.286473292826383 0 0 0
276 1 14.151766981062027 17.29698841864004 7.859305586495893 0 0 0
277 1 15.725275234292754 15.723930295006197 6.2865363140644845 0 0 0
278 1 17.298782228545168 17.29699380175122 7.8592869510076495 0 0 0
279 1 18.872286304471526 15.723939777738478 6.28654129862199 0 0 0
280 1 20.445788362993614 17.29699462224199 7.859285611610793 0 0 0
281 1 -0.00974386402782879 18.870049905705958 6.286541650851072 0 0 0
282 1 1.5637586156338412 20.443105188862276 7.859285599656352 0 0 0
283 1 3.137261139221873 18.870049862154648 6.286541682422895 0 0 0
284 1 4.710763583234588 20.443105153345126 7.859285609357546 0 0 0
285 1 6.28426610183454 18.870050140766807 6.2865416347788825 0 0 0
286 1 7.857768476618837 20.443105270730513 7.859285554842538 0 0 0
287 1 9.43126994839464 18.870054625469486 6.28653947919713 0 0 0
288 1 11.004773620313735 20.443107458437183 7.859285834159965 0 0 0
289 1 12.578277858002137 18.870066568490465 6.286538549816974 0 0 0
290 1 14.151778397980337 20.44310491309801 7.859285869614939 0 0 0
291 1 15.725280007446345 18.870048925620445 6.286541882931682 0 0 0
292 1 17.29878342080601 20.443105175496115 7.859285600554234 0 0 0
293 1 18.872285890474387 18.87004990499323 6.286541669191036 0 0 0
294 1 20.445788383817828 20.443105188026696 7.859285600020299 0 0 0
295 1 -0.009743863760598102 -0.006613468638495562 9.432029550174265 0 0 0
296 1 1.563758616305316 1.5664418121787156 11.004773500165655 0 0 0
297 1 3.137261096614875 -0.006613469894756038 9.432029550322525 0 0 0
298 1 4.710763608282167 1.5664418558344246 11.004773481805998 0 0 0
299 1 6.284266081093102 -0.006613452650277986 9.43202954438783 0 0 0
300 1 7.85776793825398 1.5664407330906307 11.004774108188228 0 0 0
301 1 9.431270750923396 22.01615974932937 9.432029767768276 0 -1 0
302 1 11.004773717201054 1.5664407479775018 11.004773537752948 0 0 0
303 1 12.578276236964662 22.01615975835492 9.432029759140534 0 -1 0
304 1 14.151778833597506 1.56644109924073 11.004773875517646 0 0 0
305 1 15.725280932552948 -0.006613453368926782 9.432029545534052 0 0 0
306 1 17.29878340203712 1.5664418491226353 11.00477348269261 0 0 0
307 1 18.872285902711834 -0.006613469760802736 9.432029550517168 0 0 0
308 1 20.445788383996383 1.5664418119884231 11.004773500294228 0 0 0
309 1 -0.009743864838035514 3.1394970927456143 9.43202955047368 0 0 0
310 1 1.5637586574312905 4.712552404016449 11.004773481479216 0 0 0
311 1 3.137261013401551 3.1394970105200497 9.432029529863122 0 0 0
312 1 4.710764688555391 4.7125535439393325 11.00477259134349 0 0 0
313 1 6.284267127792317 3.1394990091535746 9.432028793495213 0 0 0
314 1 7.857742560185693 4.712507044359878 11.004800729906307 0 0 0
315 1 9.431254127603477 3.1394452254644096 9.432046010350062 0 0 0
316 1 11.004789915603272 4.71249361606672 11.004770310898296 0 0 0
317 1 12.578292125565577 3.1394742157001923 9.432045519875265 0 0 0
318 1 14.15178763646739 4.7125258551343725 11.004784249494294 0 0 0
319 1 15.725280336622422 3.139498543975666 9.43202881477203 0 0 0
320 1 17.298782294276883 4.712553736428159 11.004772704441693 0 0 0
321 1 18.872285958255045 3.139497028386005 9.432029548639228 0 0 0
322 1 20.445788371331272 4.712552378154363 11.004773502308119 0 0 0
323 1 -0.009743837979812403 6.28560767838613 9.432029545848705 0 0 0
324 1 1.5637575476328545 7.85866234405112 11.004774131659845 0 0 0
325 1 3.1372630879807084 6.285608734416752 9.432028801203 0 0 0
326 1 4.710720831686648 7.858638941343117 11.00479995563633 0 0 0
327 1 6.28434397204215 6.285685044522966 9.43203024210232 0 0 0
328 1 7.856233612228741 7.857127281819573 11.006340734153572 0 0 0
329 1 9.430815423191858 6.283544470049444 9.432539990026529 0 0 0
330 1 11.005498651512495 7.855194108884755 11.009981231934997 0 0 0
331 1 12.578687403880057 6.285227016384049 9.432546791527699 0 0 0
332 1 14.15225692340153 7.857574883832682 11.005585016507862 0 0 0
333 1 15.725222748183354 6.2856715293152705 9.432027300019557 0 0 0
334 1 17.298793531961536 7.858657316387996 11.004778979926451 0 0 0
335 1 18.87228498661758 6.2856079047230695 9.43202969367894 0 0 0
336 1 20.445788514628155 7.858662721609164 11.004773729236813 0 0 0
337 1 22.019290301071752 9.431717886104037 9.432029878902057 -1 0 0
338 1 1.563757411986608 11.0047735186375 11.004773198384116 0 0 0
339 1 3.1372105302668425 9.431701587469368 9.43204608766063 0 0 0
340 1 4.710679861269231 11.00477508106142 11.004780706144961 0 0 0
341 1 6.2822770293011265 9.431272661346808 9.432551056106275 0 0 0
342 1 7.853726074313271 11.00510081067076 11.010675034896444 0 0 0
343 1 9.362399933304015 9.360976677399739 9.496443483898789 0 0 0
344 1 11.009127630278776 10.97599329121804 11.080525788257269 0 0 0
345 1 12.648018425468498 9.424054051942202 9.468012461739438 0 0 0
346 1 14.151821517059842 11.005149825291356 11.005008930890456 0 0 0
347 1 15.726486409660485 9.431655697932921 9.431816256037065 0 0 0
348 1 17.298775910251468 11.004774366870388 11.004768733680228 0 0 0
349 1 18.87230828342311 9.431712061779947 9.43203635198086 0 0 0
350 1 20.445787790573938 11.004773510805123 11.004773096313377 0 0 0
351 1 22.01929031468611 12.577829116927395 9.432029879059096 -1 0 0
352 1 1.5637576161986888 14.150884643303645 11.00477411212327 0 0 0
353 1 3.1372131919717456 12.577845471408837 9.432046081930958 0 0 0
354 1 4.71072519875528 14.150906076661311 11.00479898023575 0 0 0
355 1 6.282431561007388 12.578250457346995 9.432532076119088 0 0 0
356 1 7.856440036709551 14.151907125936793 11.006428936030474 0 0 0
357 1 9.368217281460554 12.672858211058943 9.462971563373877 0 0 0
358 1 11.00546684679823 14.156223359757766 11.008987742804365 0 0 0
359 1 12.645505734166285 12.613332910593872 9.436181079961678 0 0 0
360 1 14.15217519503726 14.151601241194227 11.005782361952905 0 0 0
361 1 15.72640030171369 12.57787608934151 9.431798581247135 0 0 0
362 1 17.29879133316539 14.150888274746537 11.004778764203248 0 0 0
363 1 18.872306754036245 12.577834992475488 9.432036345684207 0 0 0
364 1 20.445788478627513 14.150884274597601 11.00477371564109 0 0 0
365 1 -0.009743838426617477 15.723939318701653 9.432029543105273 0 0 0
366 1 1.5637586754510526 17.29699458963176 11.004773473685843 0 0 0
367 1 3.1372637745044414 15.723938126106754 9.432028716581629 0 0 0
368 1 4.71076541024558 17.296993213765806 11.004772024183005 0 0 0
369 1 6.2843791489933425 15.7238418932247 9.43202909192648 0 0 0
370 1 7.857769239331201 17.29700544529523 11.004778270892984 0 0 0
371 1 9.431671552288577 15.725031292797151 9.432059388965031 0 0 0
372 1 11.004789258660162 17.29712613851577 11.004789962164462 0 0 0
373 1 12.577827917306106 15.723521516949821 9.432058975586996 0 0 0
374 1 14.151761502754963 17.29698884851514 11.004762234948508 0 0 0
375 1 15.725179836915851 15.723847552154464 9.432025971435406 0 0 0
376 1 17.298781510640087 17.296992963699868 11.004772027230397 0 0 0
377 1 18.872284286035264 15.7239390192878 9.432029609260564 0 0 0
378 1 20.445788350735075 17.296994614920695 11.004773493931223 0 0 0
379 1 -0.009743864795312154 18.870049907405747 9.432029550547632 0 0 0
380 1 1.5637586160579462 20.44310518819 11.004773500432071 0 0 0
381 1 3.1372609892999725 18.87005000479861 9.432029538008846 0 0 0
382 1 4.710763585386931 20.443105168258665 11.00477349530729 0 0 0
383 1 6.284266098356841 18.87004892232165 9.432029610799272 0 0 0
384 1 7.857768461981067 20.44310515107553 11.004773570226636 0 0 0
385 1 9.431268824816598 18.870067691884962 9.432029989591667 0 0 0
386 1 11.004773712383715 20.44310716969656 11.004773382228473 0 0 0
387 1 12.578277441551661 18.870040015592977 9.43202959669247 0 0 0
388 1 14.151778313856179 20.44310481104976 11.004773341464585 0 0 0
389 1 15.725281359556288 18.870049303127697 9.432029626331923 0 0 0
390 1 17.29878342404916 20.443105172367485 11.004773496356266 0 0 0
391 1 18.872285992053364 18.870049996091232 9.432029560395433 0 0 0
392 1 20.445788384429523 20.443105188553908 11.004773500641422 0 0 0
393 1 -0.009743863783838628 -0.006613468575386363 12.577517449853783 0 0 0
394 1 1.5637586168022444 1.566441812715929 14.150261399757262 0 0 0
395 1 3.1372610980672038 -0.0066134683178900346 12.577517449532973 0 0 0
396 1 4.710763572439156 1.5664418085736116 14.15026140544423 0 0 0
397 1 6.284266048525286 22.016160447894705 12.577517459352382 0 -1 0
398 1 7.857768527933668 1.5664417832888209 14.150261408689506 0 0 0
399 1 9.431271005473683 -0.006613431424591401 12.577517462652317 0 0 0
400 1 11.004773487742055 1.566441874725103 14.150261423672807 0 0 0
401 1 12.578276003071034 -0.0066134269464685775 12.577517475745571 0 0 0
402 1 14.151778487217253 1.5664417648892182 14.150261423686393 0 0 0
403 1 15.725280942803433 22.016160448302667 12.577517451520905 0 -1 0
404 1 17.29878342484918 1.566441810174423 14.150261403035021 0 0 0
405 1 18.872285902203092 -0.006613468351413984 12.577517449407932 0 0 0
406 1 20.445788383218503 1.5664418130646822 14.150261399544831 0 0 0
407 1 -0.009743863384838725 3.1394970945337577 12.577517449639702 0 0 0
408 1 1.5637586127053773 4.712552369475128 14.150261406643727 0 0 0
409 1 3.1372611070961156 3.1394971047193554 12.57751744605554 0 0 0
410 1 4.710763537580075 4.712552301392507 14.150261401225315 0 0 0
411 1 6.284265524170707 3.1394964101798406 12.577518039588009 0 0 0
412 1 7.857767473180115 4.7125512196618855 14.150263437945652 0 0 0
413 1 9.431270703380484 3.1394966148639702 12.577517429601894 0 0 0
414 1 11.004772526135744 4.7125610060441065 14.150254031319621 0 0 0
415 1 12.578276586716429 3.1394949233879803 12.577518338337159 0 0 0
416 1 14.15178041333901 4.71255054535265 14.150263532823221 0 0 0
417 1 15.725281176789746 3.1394967588417253 12.57751774214627 0 0 0
418 1 17.29878351026145 4.712552329521594 14.150261448878796 0 0 0
419 1 18.872285888194824 3.1394971146888553 12.577517438375942 0 0 0
420 1 20.445788382097756 4.712552376718628 14.15026139856391 0 0 0
421 1 22.019290847585918 6.285607643481245 12.577517464126988 -1 0 0
422 1 1.5637586200236797 7.858662922232843 14.150261381675389 0 0 0
423 1 3.1372604225771674 6.285607148677435 12.577518067599646 0 0 0
424 1 4.710762631686995 7.858661450211073 14.150263265345263 0 0 0
425 1 6.284246174614762 6.285586962099005 12.577536075343067 0 0 0
426 1 7.857792445284884 7.858685166652784 14.150255802782459 0 0 0
427 1 9.43118131690063 6.285601813225956 12.577527121120882 0 0 0
428 1 11.004760854164749 7.858761950389718 14.150277946284756 0 0 0
429 1 12.578370091660622 6.285528390027968 12.577591170138847 0 0 0
430 1 14.151770171613423 7.858664524363584 14.150266683071472 0 0 0
431 1 15.725292492237681 6.285596791334099 12.577528563633514 0 0 0
432 1 17.29878175802944 7.85866454787227 14.150259978372828 0 0 0
433 1 18.8722860528465 6.285607653024245 12.57751750886122 0 0 0
434 1 20.445788357286425 7.858662941421209 14.150261397050947 0 0 0
435 1 22.01929084917077 9.431718220361407 12.577517398168673 -1 0 0
436 1 1.5637587878962784 11.004773495940698 14.150261359484421 0 0 0
437 1 3.1372602671260554 9.431717481581055 12.577517416577175 0 0 0
438 1 4.710775082498026 11.00477308191197 14.150251031240668 0 0 0