LAMMPS data file via write_data, version 2 Aug 2023, timestep = 42, units = metal

688 atoms
3 atom types

0 22.009546999999998 xlo xhi
0 22.009546999999998 ylo yhi
0 22.009546999999998 zlo zhi

Masses

1 183.84
2 1.008
3 4.0026

Atoms # atomic

1 1 0.0012234507216047116 0.0010548296448543036 0.00017176354574136731 0 0 0
2 1 1.5732388457029143 1.5731614030646306 1.571998523669719 0 0 0
3 1 3.145271449690127 0.0011287985964771468 0.00010520360665111639 0 0 0
4 1 4.7173411676338155 1.5732039633151096 1.5719450134509103 0 0 0
5 1 6.289455966472837 0.0011582922054752037 0.00010386172360909995 0 0 0
6 1 7.861605149105611 1.5732278387056349 1.5719785247431524 0 0 0
7 1 9.433742746324159 0.0011237781696148955 0.0001301206908088659 0 0 0
8 1 11.005905386626035 1.5731840289095067 1.572045045805702 0 0 0
9 1 12.578056514611838 0.0010538291227914734 0.00017837841953536758 0 0 0
10 1 14.15021956486683 1.5731171662913928 1.572087058039711 0 0 0
11 1 15.722376535108276 0.000995461270211108 0.0002273718700703825 0 0 0
12 1 17.294541325620308 1.5730609017546033 1.5720874176052826 0 0 0
13 1 18.866652638342128 0.000988430521034285 0.0002311726685888665 0 0 0
14 1 20.43873854036342 1.5730867343774804 1.5720742488221413 0 0 0
15 1 0.0012898425655855337 3.145172648383961 0.00023115812172682518 0 0 0
16 1 1.5732683398579939 4.71734592089588 1.571999865227532 0 0 0
17 1 3.1453140105002984 3.1452311218475053 0.0001587130158625418 0 0 0
18 1 4.717360052080727 4.7173681130323235 1.571933116201144 0 0 0
19 1 6.289478159321231 3.1452500055479025 0.00017061027299150792 0 0 0
20 1 7.861628946856362 4.717400954714307 1.5719981162543113 0 0 0
21 1 9.433768268605176 3.145229186350717 0.00022466777507886492 0 0 0
22 1 11.005919238259125 4.717366886750558 1.5721349423242297 0 0 0
23 1 12.578081618714146 3.1451546001548483 0.00030566864236548387 0 0 0
24 1 14.150220391217212 4.717311083055368 1.5721850522491776 0 0 0
25 1 15.722437741494545 3.145086318808654 0.0003778686298373097 0 0 0
26 1 17.294572139832116 4.717253209055332 1.572169574110572 0 0 0
27 1 18.866756331767878 3.1450689423923452 0.0003721492454189789 0 0 0
28 1 20.438764384552993 4.717283968181513 1.572087417400926 0 0 0
29 1 0.0012827854351974912 6.289448775199731 0.000227383086265312 0 0 0
30 1 1.573233825668748 7.861632700098228 1.571973605648049 0 0 0
31 1 3.145337886767004 6.289495103547344 0.00012520112488272493 0 0 0
32 1 4.717339233850201 7.861658222383306 1.5718790586120779 0 0 0
33 1 6.289511002584477 6.289518901236503 0.0001056101312498069 0 0 0
34 1 7.861611574288188 7.8616915729403605 1.5718981218958668 0 0 0
35 1 9.433801619890778 6.289501527883862 0.0002056049652412321 0 0 0
36 1 11.005914410654793 7.861682963437983 1.5721231152971498 0 0 0
37 1 12.578081388275878 6.289429080809163 0.000341624007428956 0 0 0
38 1 14.150194740251314 7.861630593552636 1.5721981389776543 0 0 0
39 1 15.722448487152745 6.289376858124066 0.00046275886965204815 0 0 0
40 1 17.29451422132046 7.861604984107706 1.5721850497431098 0 0 0
41 1 18.86673899971226 6.289387608277493 0.0003778844203565786 0 0 0
42 1 20.438708133389028 7.861605805083302 1.5720870703353433 0 0 0
43 1 0.0012244543196541927 9.433768884828037 0.00017838002537730799 0 0 0
44 1 1.5731638768125158 11.005946467263385 1.5719253485005789 0 0 0
45 1 3.145294077059606 9.433795339994214 5.868004450704234e-05 0 0 0
46 1 4.7172646479014455 11.005971572081581 1.5717980587939473 0 0 0
47 1 6.28947693511991 9.433809192247372 22.00951578449899 0 0 -1
48 1 7.861539128023194 11.005971341576176 1.5717621036588527 0 0 0
49 1 9.433793011349653 9.433804364662713 22.00952761222323 0 0 -1
50 1 11.005874297626486 11.005951042561112 1.571945180184907 0 0 0
51 1 12.578061090368868 9.433764250596205 0.00015854800036027182 0 0 0
52 1 14.150142327308304 11.005910904207326 1.5721231305488912 0 0 0
53 1 15.722396205579027 9.433743939189869 0.0003416068575768734 0 0 0
54 1 17.294458389483385 11.00590606741662 1.5721349663739328 0 0 0
55 1 18.866670687860914 9.433743734700508 0.00030565258415111063 0 0 0
56 1 20.438641237164973 11.005919957948015 1.5720450662133831 0 0 0
57 1 0.0011544607655272594 12.57808259578252 0.00013012202105144866 0 0 0
58 1 1.5731055077368474 14.150266486795068 1.5718763557476014 0 0 0
59 1 3.1452272134409807 12.578109516634449 1.6668889607274195e-05 0 0 0
60 1 4.717196366456765 14.150327693975001 1.5717258591261947 0 0 0
61 1 6.289421131339668 12.578110344424633 22.009465675008 0 0 -1
62 1 7.861486905608693 14.150338439964864 1.5716409684376296 0 0 0
63 1 9.433740641960528 12.578084693516887 22.00945258843927 0 0 -1
64 1 11.005853987192667 14.150286158236122 1.5717621208978003 0 0 0
65 1 12.578020952880042 12.578032280701956 22.00952759752417 0 0 -1
66 1 14.150133709500933 14.150213707064177 1.571898135786132 0 0 0
67 1 15.722323754671025 12.578023662330983 0.00020559245956980758 0 0 0
68 1 17.29442428043869 14.150196300032253 1.5719981333964792 0 0 0
69 1 18.866596056758652 12.578057004247611 0.0002246853468968975 0 0 0
70 1 20.43859739825997 14.15022014728895 1.5719785424674841 0 0 0
71 1 0.001119935098769906 15.722369317204182 0.00010385183542283016 0 0 0
72 1 1.5730984773051115 17.294542589537375 1.5718725551271369 0 0 0
73 1 3.1451709481238064 15.722431276860455 1.6309854196094875e-05 0 0 0
74 1 4.717178989235742 17.29464628333544 1.5717315783053254 0 0 0
75 1 6.28936325641875 15.72246209125299 22.009481153377944 0 0 -1
76 1 7.861497655640092 17.2946289517955 1.571725842212281 0 0 0
77 1 9.433715031880768 15.72240417382801 22.00946567734444 0 0 -1
78 1 11.005853782568828 17.29456064043501 1.571798074650716 0 0 0
79 1 12.578016115927102 15.722348342768326 22.009515761571297 0 0 -1
80 1 14.150167052334224 17.294486009871584 1.5718790425345455 0 0 0
81 1 15.722306348461053 15.722314233695563 0.00010559510616210472 0 0 0
82 1 17.294457139921395 17.294465183612935 1.5719331144589415 0 0 0
83 1 18.86657523130169 15.72234709189277 0.00017061374447212283 0 0 0
84 1 20.438621286814794 17.294484105294778 1.5719450172513596 0 0 0
85 1 0.0011494946587810413 18.86655384517701 0.00010520295398563917 0 0 0
86 1 1.5731648763111081 20.4386604030695 1.5719319641185334 0 0 0
87 1 3.1451967805236554 18.86662849152504 2.9478506711200225e-05 0 0 0
88 1 4.717282694760955 20.43872679455451 1.5718725689692379 0 0 0
89 1 6.28939401425111 18.86665433627869 1.6309676460934952e-05 0 0 0
90 1 7.861558821579602 20.43871973735012 1.5718763431080431 0 0 0
91 1 9.433715852007396 18.86659808518188 1.6656363406752916e-05 0 0 0
92 1 11.005878932581009 20.438661406553727 1.571925346464994 0 0 0
93 1 12.578030005998265 18.866531190510223 5.866145740185402e-05 0 0 0
94 1 14.150192644465282 20.438591413690478 1.5719736055373985 0 0 0
95 1 15.722330196106224 18.866487351443187 0.0001251859853479052 0 0 0
96 1 17.294479366242204 20.438556887969572 1.571999876156005 0 0 0
97 1 18.866594154181797 18.86651123925832 0.0001587110245930489 0 0 0
98 1 20.43866389369153 20.438586446949863 1.5719985252138042 0 0 0
99 1 0.0011842290010125004 0.0010940489405857263 3.1438913193601477 0 0 0
100 1 1.5731563039832166 1.5730719567914027 4.715823887381628 0 0 0
101 1 3.1451520866966103 0.0011753335419208992 3.1437982331737615 0 0 0
102 1 4.717047410081883 1.5730631567331863 4.7156466966483634 0 0 0
103 1 6.289350681726662 0.0012225546344113154 3.1437515003978 0 0 0
104 1 7.861404867169281 1.5731204458836587 4.715656281801284 0 0 0
105 1 9.433692361656592 0.0012042199819192335 3.1437989478523574 0 0 0
106 1 11.005866454455447 1.5730614279479733 4.715752942193177 0 0 0
107 1 12.57806063258693 0.0011327310344315619 3.1438528080167796 0 0 0
108 1 14.150345771116411 1.5729827614329002 4.715744316005742 0 0 0
109 1 15.722415607500007 0.0010584718827574848 3.1438641958213966 0 0 0
110 1 17.294795075672926 1.5728823999030026 4.7157072278900385 0 0 0
111 1 18.866682473554533 0.0010358256933373476 3.1438772822731917 0 0 0
112 1 20.438850184868652 1.5729750557309075 4.715816248821234 0 0 0
113 1 0.001242438426045006 3.145142795043312 3.1438772906017483 0 0 0
114 1 1.5731744732539683 4.717121812660387 4.715703439127826 0 0 0
115 1 3.1452105454032577 3.1451930881843455 3.1438014112420554 0 0 0
116 1 4.717006507591153 4.717077982053276 4.7155495560246115 0 0 0
117 1 6.2893658726081005 3.1452115614924927 3.1437516647175836 0 0 0
118 1 7.861323145854355 4.717107772864207 4.715519893989136 0 0 0
119 1 9.433728987391211 3.1452390655054776 3.143883222657255 0 0 0
120 1 11.005864002348419 4.717085370563711 4.715860641701238 0 0 0
121 1 12.578069816458886 3.14518300337556 3.143958919923469 0 0 0
122 1 14.15040212879911 4.7170201072355304 4.715705605566369 0 0 0
123 1 15.722466412596967 3.145096546259711 3.1439005663504394 0 0 0
124 1 17.294852027017082 4.716973282929828 4.715678141627602 0 0 0
125 1 18.86673331820942 3.1450919544375324 3.1439090684648123 0 0 0
126 1 20.43894283142629 4.717030217790594 4.715707200853567 0 0 0
127 1 0.001219769819113049 6.28940969639027 3.143864204447502 0 0 0
128 1 1.5730987229294182 7.861515147452008 4.715677646858745 0 0 0
129 1 3.1451981966328075 6.289438145633558 3.1437708749525886 0 0 0
130 1 4.716939005396168 7.86151276110481 4.715524007097216 0 0 0
131 1 6.289311738936966 6.289427803770974 3.1436741775098747 0 0 0
132 1 7.861107333434462 7.861494612408038 4.715351589984882 0 0 0
133 1 9.43373507049319 6.289495769123766 3.1439095837580138 0 0 0
134 1 11.005794733626932 7.8615447193494905 4.716071600438311 0 0 0
135 1 12.578023802341377 6.289452978320998 3.1440659113180707 0 0 0
136 1 14.150429026798342 7.861396258378444 4.715744111029033 0 0 0
137 1 15.722467567464967 6.289357787295797 3.1439483382651763 0 0 0
138 1 17.29480517139995 7.8614232070039645 4.715705644699225 0 0 0
139 1 18.866728764479515 6.289358945253324 3.1439005482254303 0 0 0
140 1 20.438842506574467 7.861479599132871 4.7157443407504065 0 0 0
141 1 0.001145560689145295 9.433764745420383 3.143852838505357 0 0 0
142 1 1.5729862704398925 11.006001147029846 4.715634890501844 0 0 0
143 1 3.1451210754112497 9.433792827035388 3.1437314834409946 0 0 0
144 1 4.716777386163126 11.006076715968565 4.715431937798265 0 0 0
145 1 6.289219423570693 9.433820907116878 3.1436161634959454 0 0 0
146 1 7.8608917412408665 11.006152124399005 4.715205937350119 0 0 0
147 1 9.433664519284235 9.433859058929139 3.1438171164714963 0 0 0
148 1 11.005703566660264 11.006121697811443 4.715883866700268 0 0 0
149 1 12.577999407341274 9.433825902833451 3.1440883153891614 0 0 0
150 1 14.150280545665508 11.006030530842986 4.716071693520118 0 0 0
151 1 15.722372295391843 9.433801523312788 3.1440659716302437 0 0 0
152 1 17.29473990308216 11.005961291937455 4.7158607315482985 0 0 0
153 1 18.866642282115038 9.433755548427412 3.1439589562640555 0 0 0
154 1 20.438763820088173 11.005958884987999 4.715752999968343 0 0 0
155 1 0.0010740163455817914 12.578132985367128 3.143798981134241 0 0 0
156 1 1.5729093115083337 14.150494871716333 4.715561109451341 0 0 0
157 1 3.145029393576962 12.578191644380707 3.1436442589020612 0 0 0
158 1 4.71666181463524 14.150715132049369 4.7152275799499 0 0 0
159 1 6.289117010342436 12.578265456701256 3.143433164753248 0 0 0
160 1 7.860820717199679 14.151004589139943 4.714711818949093 0 0 0
161 1 9.433583759338509 12.578241555353571 3.143510961574403 0 0 0
162 1 11.005673140562271 14.1509335233988 4.715206000159558 0 0 0
163 1 12.577966236455016 12.578160776593018 3.143817186111661 0 0 0
164 1 14.150330636935411 14.150717929993075 4.715351691733498 0 0 0
165 1 15.722329494917354 12.578090205537187 3.1439096565018607 0 0 0
166 1 17.294717440007343 14.15050211266757 4.715519970308237 0 0 0
167 1 18.86658617132472 12.57809631713125 3.1438832673915234 0 0 0
168 1 20.438704775364474 14.150420460257628 4.715656310387485 0 0 0
169 1 0.0010556767248620506 15.722474607952082 3.143751515684889 0 0 0
170 1 1.572936173947757 17.29485347550296 4.715595277261076 0 0 0
171 1 3.1449777298570716 15.722584903531228 3.1435879501554784 0 0 0
172 1 4.7166608471746425 17.2951644084263 4.715251991311434 0 0 0
173 1 6.289061206397472 15.722764109162123 3.143307217907996 0 0 0
174 1 7.861110175498323 17.295163481787544 4.715227568198548 0 0 0
175 1 9.433559884813386 15.72270828272584 3.1434331769205857 0 0 0
176 1 11.00574861478977 17.295047876506395 4.715431994056766 0 0 0
177 1 12.578004389546113 15.722605842949093 3.1436162061453397 0 0 0
178 1 14.150312519130264 17.29488620304075 4.715524069858288 0 0 0
179 1 15.72239743079613 15.722513483426795 3.14367420945003 0 0 0
180 1 17.294747272599928 17.294818710519127 4.71554956599897 0 0 0
181 1 18.866613657490063 15.722459397289375 3.143751672959219 0 0 0
182 1 20.43876208316449 17.29477785685651 4.715646679116261 0 0 0
183 1 0.0011029448065372832 18.866673197754874 3.1437982384859624 0 0 0
184 1 1.5730740469714701 20.4387512235753 4.715814210736577 0 0 0
185 1 3.1450350886393506 18.866790170560748 3.14366337425319 0 0 0
186 1 4.716971802694876 20.43888907207729 4.7155952674173705 0 0 0
187 1 6.2892403661606195 18.866847525394444 3.1435879396113844 0 0 0
188 1 7.861330444889778 20.4389159409795 4.715561080149037 0 0 0
189 1 9.433633725714511 18.866795886939077 3.143644260855607 0 0 0
190 1 11.005824204418703 20.438839013575247 4.71563488879892 0 0 0
191 1 12.578032524798353 18.86670417345197 3.1437315193108524 0 0 0
192 1 14.150310182028123 20.43872653033631 4.715677639936628 0 0 0
193 1 15.722387150083053 18.866627012880024 3.1437708952899324 0 0 0
194 1 17.294703454451998 20.43865074387293 4.715703445907031 0 0 0
195 1 18.866632179429075 18.866614702142947 3.1438013910299696 0 0 0
196 1 20.438753307541695 20.438668959006996 4.7158238657399005 0 0 0
197 1 0.0012160627323551285 0.0010621806028830866 6.2879551449038065 0 0 0
198 1 1.5731408383197074 1.5729597295046065 7.860101381378339 0 0 0
199 1 3.1450052857875597 0.0011599048476018583 6.287879819202214 0 0 0
200 1 4.716857275519026 1.5729361835191424 7.859983371903173 0 0 0
201 1 6.288894635594831 0.0011282239830957218 6.287559797020673 0 0 0
202 1 7.860665618963297 1.5722937703294328 7.859424161375715 0 0 0
203 1 9.433484308770065 0.0011426685548372008 6.287602788362604 0 0 0
204 1 11.005803822295608 1.572303390760003 7.859660813538254 0 0 0
205 1 12.578153318797785 0.0010239067694408953 6.287651617157299 0 0 0
206 1 14.150994925121031 1.5720216928420532 7.859478935869325 0 0 0
207 1 15.722798044807828 0.0008627440614545264 6.287623086655196 0 0 0
208 1 17.295219969602186 1.5724993751062055 7.859836734781573 0 0 0
209 1 18.866926395296765 0.0009633509595020095 6.28783343423656 0 0 0
210 1 20.4390169149757 1.572808328726536 7.860066901961405 0 0 0
211 1 0.0013148713638511213 3.144898867948289 6.287833412483385 0 0 0
212 1 1.5730605985097899 4.716807403320894 7.859878748581007 0 0 0
213 1 3.144953140563823 3.144927478887249 6.287754490091635 0 0 0
214 1 4.716366944048717 4.7165792194476674 7.859642566473124 0 0 0
215 1 6.288668036964024 3.1445506463187622 6.287338372841558 0 0 0
216 1 7.859477058562774 4.715026129965338 7.858414341092446 0 0 0
217 1 9.433504265105958 3.1447423579935823 6.287575463136827 0 0 0
218 1 11.00579268989494 4.7157381823978675 7.8598313662364205 0 0 0
219 1 12.578182727764462 3.144624929526731 6.28765400305233 0 0 0
220 1 14.152121887399693 4.714729448615593 7.858529234611677 0 0 0
221 1 15.723135869380346 3.144325514480681 6.287378969537596 0 0 0
222 1 17.296002384690702 4.715822913890958 7.859345723223023 0 0 0
223 1 18.86718110955878 3.1446441419051947 6.2876619936086025 0 0 0
224 1 20.439325871584828 4.71660532447002 7.859836698516187 0 0 0
225 1 0.0014154977356728997 6.289027272090164 6.287623073882746 0 0 0
226 1 1.5729588415646512 7.861175607667275 7.859661170446716 0 0 0
227 1 3.1447799922929818 6.2890493511549845 6.287515443537533 0 0 0
228 1 4.7156673890930945 7.860939696792301 7.859197527316588 0 0 0
229 1 6.288347775205457 6.28865998953191 6.287062795260861 0 0 0
230 1 7.858288084892755 7.859700665889912 7.857537919442911 0 0 0
231 1 9.433339787593317 6.288940030495027 6.2873089568261475 0 0 0
232 1 11.005300846668082 7.861147881535565 7.86054454980896 0 0 0
233 1 12.578106317151786 6.288840640216526 6.2876106114386525 0 0 0
234 1 14.152122559944056 7.859702653221776 7.8582799348558545 0 0 0
235 1 15.723227118628877 6.288598180005417 6.287331354176103 0 0 0
236 1 17.29709580776262 7.8597034003099004 7.858529314409845 0 0 0
237 1 18.867499745504563 6.288689464873844 6.287378961573802 0 0 0
238 1 20.439803584854527 7.86083039630813 7.859478967196736 0 0 0
239 1 0.001254381866411434 9.433672031595696 6.287651648113399 0 0 0
240 1 1.572757522313377 11.006103096545505 7.85962906897107 0 0 0
241 1 3.144622945330368 9.43372001007 6.287492925601572 0 0 0
242 1 4.715394816637227 11.006282934173113 7.859196677171978 0 0 0
243 1 6.288207670128059 9.43375013514611 6.28714745049907 0 0 0
244 1 7.858158917340651 11.00689885232019 7.857979610010553 0 0 0
245 1 9.432932604106494 9.433853053713989 6.28697689474665 0 0 0
246 1 11.005758130649077 11.00606700934302 7.860369030073214 0 0 0
247 1 12.578192347387297 9.43363287729712 6.287556401164867 0 0 0
248 1 14.150677280360757 11.006524328173418 7.860544638498233 0 0 0
249 1 15.722984610238303 9.43371894453313 6.287610693066104 0 0 0
250 1 17.296087060585005 11.006032575000672 7.859831467498237 0 0 0
251 1 18.867200333856612 9.433642596893124 6.28765409396546 0 0 0
252 1 20.439521897628794 11.006021495090973 7.859660869599707 0 0 0
253 1 0.001135599090415472 12.578341023500824 6.28760279875788 0 0 0
254 1 1.572624695510997 14.15103416267698 7.859553194169046 0 0 0
255 1 3.14446700050163 12.578490635925455 6.2873656386521315 0 0 0
256 1 4.715000291526143 14.151886981670515 7.85880498458728 0 0 0
257 1 6.287951598942565 12.578927041406333 6.286721153977701 0 0 0
258 1 7.856614642590188 14.155210617683172 7.85587230148379 0 0 0
259 1 9.432727276704602 12.579097958076463 6.28609016884186 0 0 0
260 1 11.004926334841546 14.153666323463346 7.857979661718292 0 0 0
261 1 12.577972148600551 12.578892607615545 6.2869769856779065 0 0 0
262 1 14.152124517956093 14.153537123635054 7.857538007360058 0 0 0
263 1 15.72288520709441 12.578485445011577 6.2873090880390405 0 0 0
264 1 17.2967990795025 14.152348175164112 7.858414447707722 0 0 0
265 1 18.867082880794374 12.578321024915406 6.28757553997598 0 0 0
266 1 20.439531496829833 14.151159690237751 7.859424200573878 0 0 0
267 1 0.001150026699317408 15.72293067155592 6.2875598140139815 0 0 0
268 1 1.572849131325596 17.295031470385723 7.859960334948824 0 0 0
269 1 3.1443877363044344 15.723191380042822 6.287319529373263 0 0 0
270 1 4.716335403785508 17.29548987299504 7.859693454587744 0 0 0
271 1 6.287600063198918 15.724225231138904 6.286347797722634 0 0 0
272 1 7.859938319153816 17.29682501046706 7.858804968214935 0 0 0
273 1 9.432898217313618 15.723873695751015 6.286721194143757 0 0 0
274 1 11.005542329190316 17.296430472813174 7.85919673093722 0 0 0
275 1 12.578075123325991 15.723617598469026 6.287147536761277 0 0 0
276 1 14.150885554209031 17.29615786961125 7.859197584693097 0 0 0
277 1 15.72316523964452 15.723477447569513 6.287062894806341 0 0 0
278 1 17.295246028309265 17.295458280016497 7.859642618862884 0 0 0
279 1 18.867274578854392 15.723157238008968 6.287338405967885 0 0 0
280 1 20.43888905479318 17.294967979620328 7.859983377371694 0 0 0
281 1 0.0011183533897769348 18.86681998408068 6.287879791459591 0 0 0
282 1 1.5730378737001705 20.43878737859918 7.860111076487243 0 0 0
283 1 3.1448229499619242 18.867002299819582 6.28775109395834 0 0 0
284 1 4.716793822386563 20.43897611790074 7.859960307794388 0 0 0
285 1 6.288633917188516 18.86743751063794 6.287319487153218 0 0 0
286 1 7.860791150571711 20.43920059515135 7.859553168018682 0 0 0
287 1 9.433334685154927 18.86735829354168 6.287365652946174 0 0 0
288 1 11.00572223448467 20.43906779577007 7.859629077988774 0 0 0
289 1 12.578105307676962 18.867202324841962 6.287492959421738 0 0 0
290 1 14.150649718159684 20.438866448952155 7.859661182276119 0 0 0
291 1 15.722775932227089 18.867045238541714 6.28751547053645 0 0 0
292 1 17.295017871182182 20.4387646249506 7.859878779763622 0 0 0
293 1 18.86689776227055 18.86687206041356 6.2877544749533625 0 0 0
294 1 20.438865527471147 20.438684392018633 7.860101369398632 0 0 0
295 1 0.0012760854905607564 0.0010021560566202347 9.432384245928288 0 0 0
296 1 1.5731783581103107 1.5728797797390168 11.00466797820724 0 0 0
297 1 3.14496169068947 0.0011177261416036618 9.432353048652635 0 0 0
298 1 4.716839160945828 1.5728323719700137 11.004648612041422 0 0 0
299 1 6.28879933780758 0.0011152145160858518 9.432222716569406 0 0 0
300 1 7.8608139433917374 1.5722620785136825 11.004633257478782 0 0 0
301 1 9.433040233130642 0.0006551707677166453 9.43185097070037 0 0 0
302 1 11.005637536046292 1.5700349177871942 11.004462658900678 0 0 0
303 1 12.578397913033085 0.00044314080905143394 9.431903961842847 0 0 0
304 1 14.151143578218983 1.5713959483677449 11.00450231113734 0 0 0
305 1 15.723102172023488 0.0007121326796117418 9.432087690153685 0 0 0
306 1 17.295404408112546 1.5722558191621618 11.00461145260229 0 0 0
307 1 18.867096538016135 0.0008474819768776188 9.432312737626775 0 0 0
308 1 20.439139874486614 1.5726854086272846 11.004665173095155 0 0 0
309 1 0.001430757951214789 3.144728740881636 9.43231271270064 0 0 0
310 1 1.573142659392143 4.7166971050919875 11.004607741787614 0 0 0
311 1 3.144915043317826 3.144776153661219 9.432293360859605 0 0 0
312 1 4.716444973831128 4.716450580677572 11.004587170107325 0 0 0
313 1 6.288587046008682 3.1444279826699417 9.432202580652588 0 0 0
314 1 7.860474483267815 4.7153170365397115 11.004804696953977 0 0 0
315 1 9.432116419101034 3.1419446635244834 9.43097833611075 0 0 0
316 1 11.005137675032822 4.703879976763686 11.003622303090532 0 0 0
317 1 12.579333832446789 3.1417049889429824 9.43119145280173 0 0 0
318 1 14.152368874515341 4.712877299470242 11.004133215990425 0 0 0
319 1 15.723731544490226 3.143425402533926 9.431884020789632 0 0 0
320 1 17.29636466475391 4.715460643994333 11.004531874452972 0 0 0
321 1 18.8674834345492 3.144341841520634 9.432216607425529 0 0 0
322 1 20.43956947682097 4.716420904008407 11.004611442239359 0 0 0
323 1 0.001566162046884786 6.288723137947443 9.432087659560162 0 0 0
324 1 1.572685070394817 7.860950706974838 11.004424775716549 0 0 0
325 1 3.144282452147625 6.288641984378231 9.431908507221738 0 0 0
326 1 4.714316024370542 7.860312383754595 11.003820355675321 0 0 0
327 1 6.287005047481382 6.287912792616882 9.43148377867358 0 0 0
328 1 7.857664889358647 7.858969849258257 11.002454701531793 0 0 0
329 1 9.427620725087174 6.282874675476198 9.427682296355414 0 0 0
330 1 11.004480754043504 7.808265163158212 10.982527953441394 0 0 0
331 1 12.58348587673309 6.282537971433738 9.428560102657496 0 0 0
332 1 14.156530292422886 7.855294874012094 11.000450185116863 0 0 0
333 1 15.725885661349462 6.285939601071472 9.430812921629654 0 0 0
334 1 17.298947964036405 7.859456374563751 11.004133241627098 0 0 0
335 1 18.868399901725635 6.288093758802192 9.43188403238998 0 0 0
336 1 20.440429385888578 7.860681729923316 11.00450232888734 0 0 0
337 1 0.0018351718562447052 9.433427415117068 9.431903973028842 0 0 0
338 1 1.5724088979594306 11.006317045156395 11.00439646325044 0 0 0
339 1 3.14363104514634 9.433536285570895 9.43180492311494 0 0 0
340 1 4.712107947462659 11.007202554570663 11.003692861486062 0 0 0
341 1 6.2848294933929125 9.432872751957126 9.431034707024985 0 0 0
342 1 7.846251343653402 11.009352714406383 11.00146245026012 0 0 0
343 1 9.424267463592164 9.429835745583006 9.42485699312368 0 0 0
344 1 10.947949435132774 11.063875581096896 10.955697277751765 0 0 0
345 1 12.5817223996768 9.430102709210054 9.427004051913075 0 0 0
346 1 14.203559839879 11.00734434759236 10.98252803353987 0 0 0
347 1 15.72928720580249 9.428339336629275 9.42856017583148 0 0 0
348 1 17.307945213550507 11.00668755202923 11.003622314405527 0 0 0
349 1 18.87012027983784 9.432491444470507 9.431191515251585 0 0 0
350 1 20.44179037159802 11.006187749769108 11.00446267364489 0 0 0
351 1 0.001623141141549064 12.578785079490967 9.431850985758569 0 0 0
352 1 1.5726621632004691 14.151066660793777 11.004557584956498 0 0 0
353 1 3.1432716516829857 12.57917512265908 9.431555451928874 0 0 0
354 1 4.715190655040112 14.15178301387084 11.004467325257819 0 0 0
355 1 6.283710604092128 12.581190079831302 9.429897267215695 0 0 0
356 1 7.8580702092409345 14.15375504048332 11.004653610334291 0 0 0
357 1 9.419771315159355 12.592053861978153 9.420729896286346 0 0 0
358 1 11.002472465353376 14.165573826731613 11.001462452087907 0 0 0
359 1 12.581989315805403 12.587557634461067 9.424857043446972 0 0 0
360 1 14.152855286067691 14.154160269453735 11.002454707897298 0 0 0
361 1 15.728950435366032 12.58420445467337 9.427682392798081 0 0 0
362 1 17.29650815990655 14.15135071581605 11.00480472615207 0 0 0
363 1 18.869880576585164 12.579708846488654 9.43097837171938 0 0 0
364 1 20.43956318862971 14.151011303626673 11.004633272129567 0 0 0
365 1 0.00116305801009404 15.723025953257707 9.432222757468738 0 0 0
366 1 1.5728702895579152 17.295061371832 11.004633675533746 0 0 0
367 1 3.1442879445500154 15.723344945130018 9.432103243300169 0 0 0
368 1 4.716297729903842 17.29552757627065 11.004571818054266 0 0 0
369 1 6.287461677504414 15.724363630859568 9.431768896631485 0 0 0
370 1 7.8600422776585415 17.296634664636645 11.00446732445514 0 0 0
371 1 9.430635157773844 15.728114657546387 9.429897305598942 0 0 0
372 1 11.004622713259161 17.299717334336755 11.003692880561584 0 0 0
373 1 12.578952451162008 15.72699574887376 9.431034753376743 0 0 0
374 1 14.151512845148059 17.297509206769792 11.003820381279231 0 0 0
375 1 15.72391240356527 15.724820152494809 9.431483847322358 0 0 0
376 1 17.295374656490456 17.295380264028744 11.004587200905789 0 0 0
377 1 18.86739725772915 15.723238198986449 9.432202626022493 0 0 0
378 1 20.438992877631676 17.294986095269447 11.004648621798195 0 0 0
379 1 0.001160514349818205 18.866863584832323 9.432353051864396 0 0 0
380 1 1.5730594170282626 20.43876585764681 11.00466722297674 0 0 0
381 1 3.1447514612019396 18.86707382363408 9.432290373099196 0 0 0
382 1 4.716763937020172 20.438954999836977 11.004633661233617 0 0 0
383 1 6.288480374157196 18.8675373535891 9.432103217996273 0 0 0
384 1 7.860758641605407 20.439163152500512 11.004557584134039 0 0 0
385 1 9.432650185168203 18.868553675527632 9.431555462068037 0 0 0
386 1 11.005508266058571 20.43941645488796 11.004396451799439 0 0 0
387 1 12.578289004265644 18.86819425566141 9.43180494363988 0 0 0
388 1 14.150874587224948 20.439140237933955 11.00442479703029 0 0 0
389 1 15.723183277216167 18.867542803471544 9.431908545190167 0 0 0
390 1 17.29512816505929 20.43868261715592 11.004607762962085 0 0 0
391 1 18.867049091670008 18.866910188717597 9.432293385053718 0 0 0
392 1 20.438945487072697 20.438646914862293 11.004667985954898 0 0 0
393 1 0.0013289050794282214 0.0009493695493072777 12.576983503909762 0 0 0
394 1 1.573227773705675 1.57285164441506 14.14929767842067 0 0 0
395 1 3.144989827040938 0.0010683115304191443 12.576982749168032 0 0 0
396 1 4.716886201864959 1.5728049973646876 14.149357366506898 0 0 0
397 1 6.288807152681116 0.001032612466262775 12.577042986110452 0 0 0
398 1 7.86075203261405 1.5721724048527574 14.14974221981576 0 0 0
399 1 9.433060754084151 0.0005750226799097994 12.577225952009208 0 0 0
400 1 11.005646333267174 1.5715209963989167 14.149845803855607 0 0 0
401 1 12.578427093255915 0.0002988491454872341 12.577254263869987 0 0 0
402 1 14.151285170773892 1.5711616021891994 14.150095274879636 0 0 0
403 1 15.723176708600503 0.0005521144584576681 12.577093141634307 0 0 0
404 1 17.295454992474053 1.572177896130619 14.149547483438255 0 0 0
405 1 18.867171419542775 0.0007602411278953962 12.577017050809927 0 0 0
406 1 20.439183871228508 1.5726414139287501 14.149360354065259 0 0 0
407 1 0.0015180470321486572 3.1446538901076306 12.577017066034934 0 0 0
408 1 1.5732252624561707 4.716689290958351 14.149428010175187 0 0 0
409 1 3.144942419270331 3.1447291140486073 12.577002114545857 0 0 0
410 1 4.716538031859051 4.716476998942781 14.149448145086586 0 0 0
411 1 6.2885606292724825 3.1443349261435123 12.577063555669142 0 0 0
412 1 7.86002284220701 4.714894999158713 14.150166946828168 0 0 0
413 1 9.432422432582971 3.1422059752687987 12.577830369868424 0 0 0
414 1 11.004982800538068 4.712719443212277 14.150616019213208 0 0 0
415 1 12.579312603210642 3.1399978974466065 12.577957863757977 0 0 0
416 1 14.153300127469956 4.711600554345018 14.151753459073825 0 0 0
417 1 15.723893062100233 3.143080606107914 12.577183400675905 0 0 0
418 1 17.296473677413715 4.715351629284104 14.14988183027213 0 0 0
419 1 18.867637623063107 3.1441876826377575 12.577078908893101 0 0 0
420 1 20.439647400468033 4.716370327134121 14.149547509780284 0 0 0
421 1 0.0017261995736818703 6.288648594842853 12.577093144383143 0 0 0
422 1 1.5727652188531525 7.860930185464113 14.14979975603943 0 0 0
423 1 3.1443721267077143 6.288703895600578 12.577017468941314 0 0 0
424 1 4.714054713279553 7.860006370913114 14.150672388882999 0 0 0
425 1 6.28742708606092 6.288364434539482 12.576846027932051 0 0 0
426 1 7.854984724700155 7.85551067649334 14.15396842951845 0 0 0
427 1 9.431079898168024 6.2855548396628205 12.579196024151342 0 0 0
428 1 11.001945793024529 7.852157412190532 14.156793735255134 0 0 0
429 1 12.581462762322184 6.274141292321492 12.580188275622977 0 0 0
430 1 14.164163908379768 7.847661264705716 14.160920830763962 0 0 0
431 1 15.725865087171186 6.285960160618194 12.576997116453926 0 0 0
432 1 17.300224702586473 7.858525110428911 14.151753422368783 0 0 0
433 1 18.868744710931775 6.287932230424222 12.57718340420861 0 0 0
434 1 20.440663721742112 7.860540137935118 14.150095266531565 0 0 0
435 1 0.0019795022672910003 9.43339821867176 12.57725427630495 0 0 0
436 1 1.572553189088367 11.006287864353034 14.14974676451771 0 0 0
437 1 3.142144966597734 9.433527487430593 12.577188066652127 0 0 0