LAMMPS data file via write_data, version 2 Aug 2023, timestep = 120, units = metal

695 atoms
3 atom types

-0.009043954069571383 22.018590950925354 xlo xhi
-0.012222878515568488 22.021769875371344 ylo yhi
-0.011410247643776458 22.020957244499574 zlo zhi

Masses

1 183.84
2 1.008
3 4.0026

Atoms # atomic

1 1 -0.00904395119387259 -0.012222875625158069 -0.01141024476813874 0 0 0
2 1 1.564358541900943 1.561633749584111 1.562330290300883 0 0 0
3 1 3.1377610350524066 -0.012222875762465956 -0.011410244757327975 0 0 0
4 1 4.711163523839861 1.561633743857171 1.5623302862446993 0 0 0
5 1 6.284566020807434 -0.01222287450559224 -0.011410245041178303 0 0 0
6 1 7.85796852062334 1.561633772917437 1.5623303084617917 0 0 0
7 1 9.431371006577978 22.021769874945317 -0.011410243549614877 0 -1 0
8 1 11.004773489784608 1.5616337598593897 1.5623303029096587 0 0 0
9 1 12.578175993086152 -0.01222287686776923 -0.011410241674367593 0 0 0
10 1 14.151578495755741 1.5616337290454247 1.5623302787244624 0 0 0
11 1 15.724980979656502 -0.012222875174759954 -0.011410245756650858 0 0 0
12 1 17.298383469030814 1.56163375535098 1.5623302935510146 0 0 0
13 1 18.8717859649071 -0.012222875666028928 -0.01141024462174568 0 0 0
14 1 20.445188458280732 1.5616337495670096 1.56233029025875 0 0 0
15 1 -0.009043951307806915 3.135490374794816 -0.011410244706710693 0 0 0
16 1 1.5643585406106224 4.709347000226966 1.5623302904702372 0 0 0
17 1 3.137761033137097 3.1354903728149224 -0.011410246779871581 0 0 0
18 1 4.711163369604733 4.7093468432429395 1.562330122685907 0 0 0
19 1 6.284566024241739 3.1354903863127985 -0.011410237180817386 0 0 0
20 1 7.857968570891261 4.709347479381652 1.5623304687797175 0 0 0
21 1 9.431370999503828 3.1354903518203705 22.02095723651446 0 0 -1
22 1 11.004773608709428 4.709346495900388 1.5623296060374914 0 0 0
23 1 12.578175986083213 3.1354903464813217 22.02095721292501 0 0 -1
24 1 14.151578533643304 4.7093453837307075 1.5623287459684603 0 0 0
25 1 15.7249809935428 3.1354903513772845 22.020957224272227 0 0 -1
26 1 17.298383237055667 4.709347220608914 1.5623305204736793 0 0 0
27 1 18.871785962184656 3.135490377430398 -0.011410242006939504 0 0 0
28 1 20.44518845048529 4.709347005036199 1.5623302953510254 0 0 0
29 1 -0.009043951303926752 6.2832036248566965 -0.011410244629599546 0 0 0
30 1 1.5643585437624647 7.857060251654725 1.5623302917224713 0 0 0
31 1 3.137761034511657 6.283203626708294 -0.011410245377438743 0 0 0
32 1 4.711163770349996 7.857060420961486 1.5623305141113595 0 0 0
33 1 6.284566083394253 6.283203681785827 22.02095717707797 0 0 -1
34 1 7.857973789607301 7.857065245053498 1.5623279799172085 0 0 0
35 1 9.431370963232892 6.283202346102407 22.020955892305455 0 0 -1
36 1 11.004770371592498 7.8570711354194644 1.5623387925932726 0 0 0
37 1 12.578176079729246 6.283203601517106 -0.011410196355192914 0 0 0
38 1 14.151580385416846 7.857058316496381 1.5623374744315504 0 0 0
39 1 15.72498091978535 6.283203700941797 -0.011409975771144545 0 0 0
40 1 17.29838449051761 7.857059787091952 1.5623294168739457 0 0 0
41 1 18.87178596756537 6.283203616453766 -0.011410244611335036 0 0 0
42 1 20.445188458169504 7.85706024562066 1.5623302959310579 0 0 0
43 1 -0.00904395109714721 9.430916874850476 -0.011410244507258449 0 0 0
44 1 1.5643585391497912 11.004773499717308 1.5623302855880403 0 0 0
45 1 3.1377610314931115 9.4309168754932 -0.011410245435845916 0 0 0
46 1 4.711163375384745 11.004773507052839 1.562330294615365 0 0 0
47 1 6.284565676112376 9.430916839019124 22.020956968049873 0 0 -1
48 1 7.857977885599195 11.004767815481763 1.5623426458881189 0 0 0
49 1 9.431366727584374 9.430912746389838 -0.01140991850779599 0 0 0
50 1 11.004791753343962 11.004787049485657 1.5616488821975065 0 0 0
51 1 12.578180819836088 9.430912503739231 22.02094927260528 0 0 -1
52 1 14.151591638111293 11.00476566101231 1.562312259157748 0 0 0
53 1 15.724981367887523 9.43091643379928 22.0209566878285 0 0 -1
54 1 17.298382927463084 11.004773494149235 1.5623313958345408 0 0 0
55 1 18.87178597725657 9.430916878965059 22.020957241812994 0 0 -1
56 1 20.445188467632917 11.004773501269113 1.5623302846046474 0 0 0
57 1 -0.009043951059333139 12.578630125159806 -0.011410244527928763 0 0 0
58 1 1.5643585447085884 14.152486750453475 1.5623302926285987 0 0 0
59 1 3.137761030772451 12.57863012446375 -0.011410246565320178 0 0 0
60 1 4.711163470385461 14.15248668838567 1.5623303339398038 0 0 0
61 1 6.2845658962861135 12.578630093147925 22.020957211010742 0 0 -1
62 1 7.857964320696496 14.152490893810912 1.5623255107333793 0 0 0
63 1 9.431366188717949 12.578635147680256 22.020945784580583 0 0 -1
64 1 11.004766913689508 14.152501702010536 1.5623045753480533 0 0 0
65 1 12.578181374570436 12.578635178544461 22.020933498234456 0 0 -1
66 1 14.151595618994772 14.152504123295342 1.5623139661455572 0 0 0
67 1 15.724980871767226 12.578630341175066 -0.011410218054850606 0 0 0
68 1 17.298384183826414 14.152487053443354 1.562329859489468 0 0 0
69 1 18.871785981015737 12.578630121069782 22.02095724022969 0 0 -1
70 1 20.445188457567188 14.152486751867297 1.562330295703935 0 0 0
71 1 -0.009043951205407696 15.726343375158311 -0.011410244623296168 0 0 0
72 1 1.5643585442726065 17.300199998359616 1.562330291962304 0 0 0
73 1 3.1377610357461236 15.726343375326634 -0.011410242480017862 0 0 0
74 1 4.711163569713104 17.300199964694283 1.5623303271622284 0 0 0
75 1 6.284565973907656 15.72634342031745 22.02095722687975 0 0 -1
76 1 7.857968133927157 17.300200937051525 1.5623296021281583 0 0 0
77 1 9.431370613710005 15.726343676370437 22.0209567209968 0 0 -1
78 1 11.004773586001628 17.300198955785447 1.5623320784290888 0 0 0
79 1 12.578176253373636 15.726342875709681 -0.011409863918803382 0 0 0
80 1 14.151578839839974 17.30020205130352 1.5623286849381797 0 0 0
81 1 15.724981222802759 15.726343610729915 22.02095717064571 0 0 -1
82 1 17.298383269907596 17.300199811153565 1.5623304888898284 0 0 0
83 1 18.871785969669393 15.72634338229679 -0.011410244886423993 0 0 0
84 1 20.445188452227935 17.300199996347853 1.5623302939673211 0 0 0
85 1 -0.009043951238636648 18.874056625267357 -0.011410244694431247 0 0 0
86 1 1.5643585419263133 20.447913250639797 1.5623302902688236 0 0 0
87 1 3.1377610357705645 18.874056624660412 -0.011410244075050912 0 0 0
88 1 4.7111635323906365 20.44791324481435 1.56233029499583 0 0 0
89 1 6.284566010514526 18.874056637720805 22.02095723835546 0 0 -1
90 1 7.857968494210682 20.447913292811077 1.5623302589287884 0 0 0
91 1 9.431371024971925 18.87405661814998 -0.01141024426953202 0 0 0
92 1 11.004773501208518 20.447913334653528 1.5623302026517236 0 0 0
93 1 12.578175967415403 18.874056639394293 22.020957221166324 0 0 -1
94 1 14.151578506167704 20.44791330000694 1.5623302571989344 0 0 0
95 1 15.7249809982564 18.874056655374282 22.020957223495408 0 0 -1
96 1 17.29838346589859 20.44791324128679 1.5623302970606985 0 0 0
97 1 18.87178596237722 18.874056622770794 -0.011410242185202008 0 0 0
98 1 20.445188458339246 20.447913250718592 1.562330290181023 0 0 0
99 1 -0.009043951207624867 -0.012222875638162664 3.136070825360076 0 0 0
100 1 1.5643585418210815 1.561633749348829 4.709811360329135 0 0 0
101 1 3.13776103469645 -0.012222875297355888 3.1360708250196363 0 0 0
102 1 4.711163524409777 1.561633744235952 4.70981135689184 0 0 0
103 1 6.28456602041196 22.02176986322831 3.1360708255462306 0 -1 0
104 1 7.85796834337429 1.5616333161815226 4.709811201398361 0 0 0
105 1 9.43137101112262 -0.012222851008451824 3.136070834245987 0 0 0
106 1 11.00477362943571 1.5616337664998663 4.709811540215798 0 0 0
107 1 12.57817599342534 -0.012222868313494836 3.1360708309235137 0 0 0
108 1 14.151578534238757 1.5616338174917381 4.709811307294887 0 0 0
109 1 15.72498097510755 22.021769872360828 3.1360708302294746 0 -1 0
110 1 17.298383474632843 1.561633747380512 4.709811357360339 0 0 0
111 1 18.871785965438004 -0.012222875297124585 3.1360708249382916 0 0 0
112 1 20.445188457892073 1.5616337499370079 4.709811359934311 0 0 0
113 1 -0.00904395125936165 3.1354903743802227 3.13607082499822 0 0 0
114 1 1.564358522897977 4.709346986144798 4.70981134783563 0 0 0
115 1 3.137761028663911 3.1354903729665042 3.1360708213420594 0 0 0
116 1 4.711163114735564 4.7093468610689095 4.709810965930414 0 0 0
117 1 6.284565711533256 3.1354899692628804 3.1360705328697716 0 0 0
118 1 7.857951521346452 4.709322970628504 4.709794417949486 0 0 0
119 1 9.431371017222592 3.13549101323586 3.136071402242084 0 0 0
120 1 11.004780360839527 4.709344852640066 4.709805208998053 0 0 0
121 1 12.57817626488677 3.1354897540281117 3.136070112729595 0 0 0
122 1 14.151575120068705 4.709352787300101 4.709813622382278 0 0 0
123 1 15.724980875803233 3.1354906444974797 3.1360709127290094 0 0 0
124 1 17.298384080851246 4.709346456690597 4.709811740168011 0 0 0
125 1 18.87178597015333 3.135490372060003 3.136070820614221 0 0 0
126 1 20.44518846430498 4.709346996313536 4.7098113557836605 0 0 0
127 1 22.018590945963076 6.283203627534367 3.1360708276942497 -1 0 0
128 1 1.5643584963950006 7.857060201852683 4.709811308556375 0 0 0
129 1 3.1377609759412586 6.283203696447354 3.136070886812648 0 0 0
130 1 4.711161710014451 7.85706546912796 4.70981703274019 0 0 0
131 1 6.284555762387054 6.283192529830891 3.13605983373776 0 0 0
132 1 7.857380380502696 7.856486740390296 4.709264013723727 0 0 0
133 1 9.431375511181033 6.283217627381736 3.1360767673665815 0 0 0
134 1 11.004745406792077 7.857449469590248 4.709768877220442 0 0 0
135 1 12.57817791913099 6.283217898439885 3.1360834169890848 0 0 0
136 1 14.150879030801581 7.857430176021041 4.71051645992147 0 0 0
137 1 15.724967482529447 6.283216072576148 3.136083692875109 0 0 0
138 1 17.29836473449632 7.857071152785811 4.709821620982285 0 0 0
139 1 18.871785491821853 6.28320390719298 3.1360711169722864 0 0 0
140 1 20.445188137238038 7.8570602890543295 4.709811421456636 0 0 0
141 1 -0.009043952349198584 9.430916873282825 3.136070828644631 0 0 0
142 1 1.5643586755475163 11.004773512704334 4.709811343769997 0 0 0
143 1 3.1377610814015817 9.43091708280469 3.1360707745346357 0 0 0
144 1 4.711193105157652 11.004776730589166 4.709838482579686 0 0 0
145 1 6.28458385821884 9.430925110396526 3.1360867936665326 0 0 0
146 1 7.858279275159859 11.004764116613403 4.710134638328393 0 0 0
147 1 9.431547850443389 9.431048190128436 3.136434059645618 0 0 0
148 1 10.997939840027712 10.997610092511211 4.672491932907546 0 0 0
149 1 12.57836146899329 9.430948776831531 3.135867764713466 0 0 0
150 1 14.153456002382896 11.003992793083292 4.709512033753582 0 0 0
151 1 15.724991427324717 9.43088603965878 3.1360635972165825 0 0 0
152 1 17.298373759797432 11.004770475474718 4.709849314299749 0 0 0
153 1 18.87178641102346 9.430916848165701 3.1360706359255204 0 0 0
154 1 20.445188463424397 11.004773465141376 4.709811403527494 0 0 0
155 1 -0.009043952819031567 12.578630126202093 3.1360708280649408 0 0 0
156 1 1.564358563103547 14.152486791198092 4.709811318679148 0 0 0
157 1 3.1377609765033485 12.578629991090713 3.1360706995356002 0 0 0
158 1 4.7111645368945885 14.152482736327995 4.709815442688381 0 0 0
159 1 6.2845860575689265 12.578626112261242 3.136091472074371 0 0 0
160 1 7.85774132357039 14.152675292916545 4.709719563880694 0 0 0
161 1 9.4314140720983 12.578788687941072 3.1356491105305193 0 0 0
162 1 11.004556051550702 14.155069621168746 4.708976591693741 0 0 0
163 1 12.578673437207405 12.579124915255557 3.13465700274171 0 0 0
164 1 14.151246852784869 14.15201716891108 4.709897998472484 0 0 0
165 1 15.72497616594887 12.578645248390151 3.136082753230299 0 0 0
166 1 17.298373005878005 14.15247977127835 4.709818217105337 0 0 0
167 1 18.871786176390582 12.578630066484038 3.1360708505531 0 0 0
168 1 20.445188266789863 14.15248674413382 4.709811381944351 0 0 0
169 1 22.018590950509754 15.726343372993638 3.136070827108311 -1 0 0
170 1 1.5643585289038346 17.30020000981609 4.709811350375705 0 0 0
171 1 3.137761151932828 15.726343278283496 3.1360709189304035 0 0 0
172 1 4.711163166500336 17.30020050632828 4.709811052398298 0 0 0
173 1 6.284565826920593 15.726343542026289 3.136070305525992 0 0 0
174 1 7.857983568649962 17.30018676012532 4.709826544989605 0 0 0
175 1 9.431343293319165 15.726353781562116 3.1360662452932124 0 0 0
176 1 11.00477222534664 17.300184373336673 4.709864621763335 0 0 0
177 1 12.578203508826928 15.726343117208472 3.1360802821869345 0 0 0
178 1 14.151562919080472 17.300179179147722 4.709827034045706 0 0 0
179 1 15.724971562137137 15.72633447482166 3.136079825011604 0 0 0
180 1 17.298384513162507 17.30020118497487 4.709811368719701 0 0 0
181 1 18.871785628546508 15.726343191826329 3.136071017839841 0 0 0
182 1 20.445188468290997 17.300200003751176 4.70981135609714 0 0 0
183 1 -0.00904395116875488 18.874056625672615 3.1360708250184754 0 0 0
184 1 1.564358542146799 20.44791325030747 4.7098113603058716 0 0 0
185 1 3.1377610310107316 18.87405663059719 3.1360708193273497 0 0 0
186 1 4.71116351034355 20.44791327471173 4.709811342857808 0 0 0
187 1 6.284566308664161 18.874056301788873 3.136071121532706 0 0 0
188 1 7.857968571773276 20.447912990262996 4.709811408616336 0 0 0
189 1 9.431371130166157 18.874058965293383 3.136068853267526 0 0 0
190 1 11.00477349772384 20.44791298097891 4.709811605813553 0 0 0
191 1 12.578175913455333 18.874058879162828 3.136068886435288 0 0 0
192 1 14.15157843584161 20.44791290710081 4.709811395540009 0 0 0
193 1 15.724980632078003 18.874056137303253 3.136071172885427 0 0 0
194 1 17.298383486670065 20.447913275187695 4.709811344439755 0 0 0
195 1 18.871785974755884 18.874056636225934 3.136070813831175 0 0 0
196 1 20.445188457352064 20.44791324958889 4.709811360357703 0 0 0
197 1 -0.009043951235256658 -0.0122228756054232 6.283551895181361 0 0 0
198 1 1.5643585417799617 1.5616337490245222 7.85729243012646 0 0 0
199 1 3.13776103553297 -0.012222876587523425 6.283551895066844 0 0 0
200 1 4.711163534931666 1.5616337566041933 7.857292430278224 0 0 0
201 1 6.28456601966854 -0.012222878040658212 6.283551894024447 0 0 0
202 1 7.857968385181483 1.561633131966243 7.857292432146508 0 0 0
203 1 9.431370930253365 22.021769479081474 6.283551815760566 0 -1 0
204 1 11.004773760390576 1.561624754582033 7.8572924424353525 0 0 0
205 1 12.57817608148794 22.021769689788247 6.283551807021312 0 -1 0
206 1 14.151578350378312 1.5616341947305552 7.857292441948387 0 0 0
207 1 15.724980969339427 -0.012222870531659375 6.283551901049249 0 0 0
208 1 17.298383480439796 1.5616337323802292 7.85729243045265 0 0 0
209 1 18.87178596380703 -0.012222876468913823 6.283551894930095 0 0 0
210 1 20.44518845699978 1.561633750527436 7.857292430118939 0 0 0
211 1 -0.009043950685982939 3.1354903754926564 6.283551894586626 0 0 0
212 1 1.5643585005410983 4.709346964623726 7.857292430036003 0 0 0
213 1 3.137761034327003 3.135490371667472 6.283551895055319 0 0 0
214 1 4.711163404871561 4.709347367367339 7.857292449592931 0 0 0
215 1 6.284565987373428 3.1354901205587704 6.283551624298718 0 0 0
216 1 7.857952519875862 4.709319209987872 7.857292709725345 0 0 0
217 1 9.431365743319503 3.135470475756457 6.283546691564908 0 0 0
218 1 11.004783494621988 4.708607263758401 7.857293275625985 0 0 0
219 1 12.57818106529188 3.1354869386353106 6.283546312912649 0 0 0
220 1 14.15156406825061 4.709382392179186 7.857293501392676 0 0 0
221 1 15.724981436278643 3.1354903558026015 6.2835520141779275 0 0 0
222 1 17.298385976465752 4.709344883145134 7.857292481109805 0 0 0
223 1 18.871786005310756 3.135490336514774 6.283551884518314 0 0 0
224 1 20.445188514615943 4.70934695673399 7.857292433275529 0 0 0
225 1 22.01859093682086 6.28320363049424 6.283551897007848 -1 0 0
226 1 1.5643584391164302 7.857060353715631 7.857292433282274 0 0 0
227 1 3.1377597355007207 6.283202689514273 6.283551897162064 0 0 0
228 1 4.711167816225258 7.857095003165211 7.85729265612979 0 0 0
229 1 6.2845430983927795 6.283191191911364 6.2835338323730525 0 0 0
230 1 7.856189869343142 7.856634093703519 7.857329659660073 0 0 0
231 1 9.430667901163298 6.282067499769066 6.282916618762765 0 0 0
232 1 11.008336140206067 7.820427742626756 7.857170172297419 0 0 0
233 1 12.577825519463207 6.283378770767175 6.283456741476901 0 0 0
234 1 14.150144189955821 7.858749472412812 7.857470882399437 0 0 0
235 1 15.72493856297891 6.283245995469324 6.283571521547902 0 0 0
236 1 17.298314101610217 7.857113007263728 7.857290845466827 0 0 0
237 1 18.871786224565962 6.283202977966173 6.2835523700485405 0 0 0
238 1 20.445187767814446 7.857060312812364 7.8572924152347525 0 0 0
239 1 22.01859079467865 9.430916796143334 6.283551823479431 -1 0 0
240 1 1.564348093941334 11.004773543688401 7.857292437362806 0 0 0
241 1 3.1377571841065732 9.430910920738697 6.283545564518826 0 0 0
242 1 4.710241464090569 11.004809060729544 7.857293596082545 0 0 0
243 1 6.284841469942382 9.431256100469607 6.2835376970310355 0 0 0
244 1 7.798994234995084 11.000127046499564 7.857171710728977 0 0 0
245 1 9.415880454946548 9.41457136243566 6.254983062604998 0 0 0
246 1 20.445188458178528 20.44791325054958 20.447216709868048 0 0 0
247 1 12.596721141971528 9.406493977125452 6.272623939471425 0 0 0
248 1 14.194980175104238 10.991922351937818 7.859851235434723 0 0 0
249 1 15.724295800164038 9.431262988766719 6.283744611614503 0 0 0
250 1 17.29875394370674 11.004769248717952 7.857300314606695 0 0 0
251 1 18.87178035183427 9.43091408363481 6.283549736933246 0 0 0
252 1 20.44519212076008 11.004773498199745 7.857292480107982 0 0 0
253 1 22.018590870863335 12.578630203224995 6.283551822815936 -1 0 0
254 1 1.5643586448406197 14.15248659656871 7.857292433603657 0 0 0
255 1 3.137758496095669 12.57863660050988 6.283545246561603 0 0 0
256 1 4.711175892442752 14.15246198734153 7.857292706456849 0 0 0
257 1 6.284908927033243 12.57865940674917 6.283608726219465 0 0 0
258 1 7.8570968900017535 14.154286628679275 7.85744625681198 0 0 0
259 1 9.401117197797946 12.607217918731088 6.252237095962944 0 0 0
260 1 11.00539607513638 14.206195383800754 7.859896409350699 0 0 0
261 1 12.60971730529643 12.619801120693177 6.243871083442046 0 0 0
262 1 14.151680967864161 14.1533663108275 7.857627518238244 0 0 0
263 1 15.724644452875967 12.578328309058282 6.283733684017852 0 0 0
264 1 17.29834995092047 14.15245157071635 7.857295110606233 0 0 0
265 1 18.87178490950555 12.578632959394472 6.28354955317573 0 0 0
266 1 20.44518810094052 14.152486694705207 7.85729248388279 0 0 0
267 1 22.018590945384965 15.726343369977661 6.283551897128086 -1 0 0
268 1 1.5643585207792297 17.30020002620495 7.857292431122225 0 0 0
269 1 3.1377601782180657 15.726344039908911 6.28355190719057 0 0 0
270 1 4.7111646161732565 17.300199184039663 7.857292464755036 0 0 0
271 1 6.284564218017139 15.72634798418503 6.283533396336145 0 0 0
272 1 7.858017451156434 17.300177673567813 7.857290319947398 0 0 0
273 1 9.431670167165727 15.725327567935015 6.283962776018922 0 0 0
274 1 11.004778716485035 17.300743122034444 7.857299111436797 0 0 0
275 1 12.577756023687758 15.725272483156052 6.283941531802174 0 0 0
276 1 14.15152229152212 17.300157572664162 7.857295011586514 0 0 0
277 1 15.724952616426302 15.726314811892765 6.28354022472379 0 0 0
278 1 17.298381872780904 17.300198544431606 7.857292792896691 0 0 0
279 1 18.871786256523592 15.726343756147267 6.283552148087105 0 0 0
280 1 20.445188470087746 17.300200028652327 7.857292430910293 0 0 0
281 1 -0.009043951072214045 18.87405662452098 6.283551895037703 0 0 0
282 1 1.5643585407176244 20.447913251519914 7.85729243013943 0 0 0
283 1 3.1377610286393676 18.87405662780896 6.283551906544437 0 0 0
284 1 4.7111634746253594 20.447913301818815 7.8572924338868875 0 0 0
285 1 6.284564454699945 18.874058481641413 6.2835520413455495 0 0 0
286 1 7.857968647363666 20.44791302017863 7.857292410709463 0 0 0
287 1 9.431366915445452 18.874048878084498 6.283547904021119 0 0 0
288 1 11.004773568972032 20.44791869486829 7.8572924380654685 0 0 0
289 1 12.578180272952498 18.87404974634192 6.283546937847189 0 0 0
290 1 14.151578284230345 20.44791271209004 7.857292479685577 0 0 0
291 1 15.724982542457214 18.874058160179136 6.283552142301974 0 0 0
292 1 17.298383527212355 20.447913289777606 7.857292431316797 0 0 0
293 1 18.871785979211836 18.874056632505482 6.283551925611173 0 0 0
294 1 20.445188459838953 20.44791325196048 7.857292429885999 0 0 0
295 1 -0.009043951261790655 -0.012222875629857773 9.43103296509979 0 0 0
296 1 1.5643585418522774 1.5616337493783015 11.004773499976231 0 0 0
297 1 3.1377610352927063 -0.012222876325011596 9.431032965299895 0 0 0
298 1 4.711163524543577 1.5616337441071662 11.004773503465259 0 0 0
299 1 6.284566020259656 22.021769871558366 9.431032965516719 0 -1 0
300 1 7.857968344809542 1.5616333300068281 11.004773657102978 0 0 0
301 1 9.431370933659881 22.021769515299873 9.431033049904894 0 -1 0
302 1 11.00477363992423 1.561633797525581 11.00477330745404 0 0 0
303 1 12.578176076660009 22.021769629046954 9.431033053753682 0 -1 0
304 1 14.15157852204418 1.5616338270945807 11.004773541012712 0 0 0
305 1 15.724980970494418 -0.012222872521950867 9.43103295975943 0 0 0
306 1 17.298383474464455 1.5616337490977406 11.004773502385438 0 0 0
307 1 18.871785963763845 -0.01222287630327846 9.431032965491507 0 0 0
308 1 20.445188458068937 1.5616337498130826 11.004773500415226 0 0 0
309 1 -0.009043950445738195 3.1354903753125876 9.431032965769779 0 0 0
310 1 1.5643585225223051 4.709346986036191 11.00477351277808 0 0 0
311 1 3.137761032909335 3.13549037005088 9.431032965129178 0 0 0
312 1 4.7111630745782715 4.709346822183707 11.004773893613901 0 0 0
313 1 6.284565979282287 3.135490122897543 9.431033243200973 0 0 0
314 1 7.857951610841789 4.709323763364526 11.00479015869428 0 0 0
315 1 9.431365726568586 3.1354707263398263 9.431038179281137 0 0 0
316 1 11.00478200122044 4.709347138836219 11.00477840527654 0 0 0
317 1 12.57818107464774 3.1354889926125717 9.431038459176538 0 0 0
318 1 14.151573997821291 4.7093534995894535 11.004770193468872 0 0 0
319 1 15.724981462755336 3.1354903681911974 9.431032850511249 0 0 0
320 1 17.29838387289735 4.709346613388773 11.00477307464015 0 0 0
321 1 18.871786007703605 3.1354903364762117 9.431032978166986 0 0 0
322 1 20.445188456780897 4.709347001621044 11.004773500615892 0 0 0
323 1 22.018590933452984 6.283203630970168 9.43103296293661 -1 0 0
324 1 1.564358512604059 7.857060204070251 11.004773549600886 0 0 0
325 1 3.1377597173314267 6.28320266229125 9.431032973093458 0 0 0
326 1 4.71116273264152 7.857065631433272 11.004767499496102 0 0 0
327 1 6.284544550185533 6.283192556888764 9.43105206839617 0 0 0
328 1 7.8574429126082554 7.856534526452677 11.005265338588583 0 0 0
329 1 9.430681221286475 6.282081309470497 9.431671788323618 0 0 0
330 1 11.005033733151263 7.857418875760951 11.005073308735172 0 0 0
331 1 12.577866497550302 6.283536182590523 9.431122395243912 0 0 0
332 1 14.150830805759256 7.857400031112849 11.003939164681142 0 0 0
333 1 15.724939663388689 6.283243193557562 9.431014296191675 0 0 0
334 1 17.29836899270388 7.857066292648489 11.00476582655085 0 0 0
335 1 18.871785799145155 6.283203346227872 9.431032441512775 0 0 0
336 1 20.445188200154078 7.857060268070611 11.004773464851068 0 0 0
337 1 22.01859081976675 9.430916799375506 9.43103304164974 -1 0 0
338 1 1.564358700686179 11.00477351438523 11.004773510874932 0 0 0
339 1 3.1377575232992845 9.4309109026412 9.43103932226356 0 0 0
340 1 4.7111955528683715 11.004777723251177 11.004745364907997 0 0 0
341 1 6.284861215835275 9.43125892612174 9.431045099800361 0 0 0
342 1 7.858274777103441 11.004994606899901 11.004612806064307 0 0 0
343 1 9.415292095314204 9.413641635856619 9.45916114511661 0 0 0
344 1 11.005431065803142 11.005046202906874 11.04493323402067 0 0 0
345 1 12.591993775517993 9.420188685072317 9.441380626560655 0 0 0
346 1 14.149637757762905 11.004578339830001 11.002709666857575 0 0 0
347 1 15.724424885877172 9.43109119009669 9.4309158750531 0 0 0
348 1 17.298312995783917 11.004776450549874 11.004725820077232 0 0 0
349 1 18.871782447028924 9.43091373407839 9.431035666621563 0 0 0
350 1 20.445187705067575 11.004773532016529 11.004773431176242 0 0 0
351 1 22.018590792832413 12.578630198632904 9.431033043192354 -1 0 0
352 1 1.5643585498103734 14.152486787398662 11.004773539167049 0 0 0
353 1 3.137759408974993 12.578636633379253 9.43103964298962 0 0 0
354 1 4.711164134299706 14.152482354235026 11.004769131854122 0 0 0
355 1 6.284987825346891 12.578718078956832 9.430973440196656 0 0 0
356 1 7.857675474695646 14.15264904548744 11.004766355544392 0 0 0
357 1 9.414572629733364 12.603112957583047 9.462019357595851 0 0 0
358 1 11.005172876061891 14.151250696912513 11.003266128891024 0 0 0
359 1 12.597059355114723 12.606584649204848 9.473480454797691 0 0 0
360 1 14.151471021119223 14.152239475824068 11.004412529244949 0 0 0
361 1 15.724059825203621 12.578614517049903 9.430932001829815 0 0 0
362 1 17.298376885702833 14.152480356949997 11.00476531400958 0 0 0
363 1 18.871777428232612 12.578632774399228 9.431035662094418 0 0 0
364 1 20.445188254148345 14.15248669495076 11.0047734383016 0 0 0
365 1 22.018590944989135 15.72634337113512 9.431032963643023 -1 0 0
366 1 1.5643585308232268 17.300200008942895 11.004773508734692 0 0 0
367 1 3.1377602668511306 15.726343979786936 9.431032945014513 0 0 0
368 1 4.711163271462121 17.300200356369423 11.004773768328699 0 0 0
369 1 6.284561474863285 15.726349243092297 9.431051941124156 0 0 0
370 1 7.857978246605532 17.300191701976658 11.00476144044087 0 0 0
371 1 9.43148675277831 15.725528443251598 9.430689860896347 0 0 0
372 1 11.004778207852755 17.300124454703944 11.004711450629754 0 0 0
373 1 12.57807130043378 15.724742971298813 9.430728876452378 0 0 0
374 1 14.151563267455042 17.30018243787203 11.00475691185807 0 0 0
375 1 15.724932559441218 15.726294596911147 9.43104384804062 0 0 0
376 1 17.298383545148898 17.30020021126375 11.00477310548619 0 0 0
377 1 18.871786225748313 15.72634401199948 9.431032703069523 0 0 0
378 1 20.445188457712895 17.30020000115588 11.004773502941111 0 0 0
379 1 -0.00904395103808209 18.874056624475713 9.431032965358213 0 0 0
380 1 1.5643585420528392 20.447913250449176 11.004773500019006 0 0 0
381 1 3.1377610298306178 18.874056628725633 9.43103295563317 0 0 0
382 1 4.711163516448707 20.44791326669706 11.00477351258491 0 0 0
383 1 6.28456495065197 18.874057931698257 9.431032758692856 0 0 0
384 1 7.857968543468749 20.44791307124738 11.004773487263813 0 0 0
385 1 9.431366299311385 18.874052043617986 9.43103767727077 0 0 0
386 1 11.004773567118297 20.447912218896683 11.0047732347402 0 0 0
387 1 12.578180054059471 18.874042885273393 9.431037806379601 0 0 0
388 1 14.15157839007806 20.447912893156406 11.004773425211706 0 0 0
389 1 15.724982715576923 18.874058008156673 9.431032685907637 0 0 0
390 1 17.298383483452945 20.447913263068962 11.004773513186654 0 0 0
391 1 18.871786004833858 18.87405665896402 9.431032946409472 0 0 0
392 1 20.445188458092236 20.447913250337876 11.004773500337064 0 0 0
393 1 -0.009043951198431072 -0.012222875629281331 12.578514034932729 0 0 0
394 1 1.5643585418951844 1.561633749578453 14.152254569902963 0 0 0
395 1 3.137761034792663 -0.012222875434580593 12.578514035175349 0 0 0
396 1 4.7111635240582865 1.5616337443670743 14.152254573742008 0 0 0
397 1 6.284566019725171 22.021769865548894 12.578514035762181 0 -1 0
398 1 7.857968520993331 1.5616337724375866 14.152254551537563 0 0 0
399 1 9.4313710163163 -0.012222869661295174 12.578514019867345 0 0 0
400 1 11.004773489742325 1.5616337667656854 14.15225455808412 0 0 0
401 1 12.578175989388196 22.021769869543615 12.578514028709098 0 -1 0
402 1 14.151578495132323 1.5616337316581372 14.15225458141205 0 0 0
403 1 15.724980974691057 22.021769872946987 12.57851402988264 0 -1 0
404 1 17.298383469158175 1.5616337550660442 14.152254566932626 0 0 0
405 1 18.871785965268828 -0.012222875529933211 12.578514035184234 0 0 0
406 1 20.44518845823955 1.5616337495910406 14.15225456990701 0 0 0
407 1 -0.009043951394522624 3.13549037446679 12.578514035212686 0 0 0
408 1 1.564358541072629 4.709347000458055 14.15225456952325 0 0 0
409 1 3.137761028280225 3.135490372626325 12.5785140392873 0 0 0
410 1 4.711163390364326 4.709346863844605 14.15225471706424 0 0 0
411 1 6.284565719626909 3.135489992985724 12.578514319406327 0 0 0
412 1 7.857968587990526 4.709347453250466 14.152254418009663 0 0 0
413 1 9.431371034106649 3.135491071495758 12.578513437520558 0 0 0
414 1 11.004773701122245 4.709347305054973 14.152254792159374 0 0 0
415 1 12.578176250583248 3.1354897832729014 12.578514829111635 0 0 0
416 1 14.15157844938685 4.709345665826177 14.152255955638863 0 0 0
417 1 15.72498087094836 3.1354906467840205 12.578513944980884 0 0 0
418 1 17.298383242156177 4.709347228768947 14.152254341477434 0 0 0
419 1 18.871785967190224 3.1354903741427163 12.578514037347198 0 0 0
420 1 20.445188451599563 4.709347004110334 14.152254565764043 0 0 0
421 1 22.018590947664002 6.283203627022556 12.578514033123344 -1 0 0
422 1 1.564358544917568 7.857060252095303 14.152254567596078 0 0 0
423 1 3.1377610013996717 6.28320370650825 12.578513963255704 0 0 0
424 1 4.711163779011255 7.857060443453674 14.152254339024239 0 0 0
425 1 6.28455694692027 6.283193723995251 12.578523779653061 0 0 0
426 1 7.857975066847224 7.857066431456759 14.152254933370028 0 0 0
427 1 9.431375852256593 6.283221006655293 12.578506125465847 0 0 0
428 1 11.004776071993986 7.857099433579759 14.152220422159992 0 0 0
429 1 12.578180789629322 6.283221805998586 12.578500179401578 0 0 0
430 1 14.151569663138861 7.857067042048872 14.152237732347139 0 0 0
431 1 15.724967700745445 6.283216814988638 12.578500821129987 0 0 0
432 1 17.29838339990667 7.857060797859568 14.15225451870471 0 0 0
433 1 18.871785570156636 6.283203840995715 12.578513806425711 0 0 0
434 1 20.44518843451863 7.8570602589864365 14.152254553224905 0 0 0
435 1 22.018590936835892 9.430916878404132 12.57851402740107 -1 0 0
436 1 1.5643585462091916 11.004773500369854 14.15225457270625 0 0 0
437 1 3.137761143494255 9.430917095928264 12.578514066475798 0 0 0
438 1 4.711163944122016 11.004773595786236 14.152254333163143 0 0 0