LAMMPS data file via write_data, version 2 Aug 2023, timestep = 97, units = metal

686 atoms
3 atom types

0.0007850755143536017 22.008761921341428 xlo xhi
0.0007850053967440076 22.008761991459032 ylo yhi
0.0007850500766109367 22.00876194677916 zlo zhi

Masses

1 183.84
2 1.008
3 4.0026

Atoms # atomic

1 1 0.0007850771989468063 0.0007850070813347317 0.0009217665882911191 0 0 0
2 1 1.5729017552824498 1.5729016952737076 1.572979624465271 0 0 0
3 1 3.144956949848023 0.0007850070812749567 0.0009602320570692646 0 0 0
4 1 4.717009870426848 1.5730123216739005 1.5730131563612793 0 0 0
5 1 6.288991551710754 0.0007850070812720437 0.0009966017274489229 0 0 0
6 1 7.861019643474938 1.5730859476745926 1.5731095188544606 0 0 0
7 1 9.432863017208316 0.0007850070812194245 0.00101206311424936 0 0 0
8 1 11.004773500112178 1.5730733850191128 1.5731234974146122 0 0 0
9 1 12.576683983016027 0.0007850070812160033 0.0010120631142533857 0 0 0
10 1 14.148527356749211 1.573085947674635 1.5731095188545339 0 0 0
11 1 15.720555448513922 0.0007850070812716925 0.0009966017274704016 0 0 0
12 1 17.292537129797797 1.573012321673915 1.573013156361296 0 0 0
13 1 18.86459005037695 0.00078500708127364 0.000960232057154395 0 0 0
14 1 20.436645244942774 1.5729016952737258 1.5729796244652399 0 0 0
15 1 0.0007850771988866083 3.144956899877367 0.0009602320799349776 0 0 0
16 1 1.5730123817794046 4.71700983049717 1.5730131563700829 0 0 0
17 1 3.1450982611692666 3.1450982111256294 0.00110154312681025 0 0 0
18 1 4.717561906274483 4.717561866238179 1.5735651917203748 0 0 0
19 1 6.289081269321332 3.145116334941157 0.001119667188893084 0 0 0
20 1 7.861355614763413 4.717610516037861 1.5736138419615717 0 0 0
21 1 9.432919975822534 3.145167501505046 0.0011708341550538436 0 0 0
22 1 11.004773500112156 4.717655573155967 1.5736588988965496 0 0 0
23 1 12.57662702440171 3.1451675015050333 0.0011708341550358914 0 0 0
24 1 14.148191385460658 4.717610516038018 1.5736138419617216 0 0 0
25 1 15.720465730903326 3.1451163349411577 0.0011196671888859485 0 0 0
26 1 17.291985093949982 4.717561866238281 1.5735651917204811 0 0 0
27 1 18.86444873905562 3.145098211125706 0.0011015431268817386 0 0 0
28 1 20.436534618445734 4.717009830497193 1.573013156370106 0 0 0
29 1 0.0007850771988906447 6.288991521809772 0.000996601710004849 0 0 0
30 1 1.5730860077393298 7.861019623503657 1.573109518802096 0 0 0
31 1 3.145116384988266 6.289081239293892 0.0011196672092808108 0 0 0
32 1 4.717610556077767 7.861355594860871 1.573613842021085 0 0 0
33 1 6.289082399812947 6.28908236981664 0.0013584566724168295 0 0 0
34 1 7.860926853725862 7.8609268337513925 1.573798440369742 0 0 0
35 1 9.433106405327733 6.289364472588496 0.0017181656238921873 0 0 0
36 1 11.004773500111988 7.862252798633399 1.5751302506917537 0 0 0
37 1 12.576440594896422 6.289364472588544 0.0017181656239904503 0 0 0
38 1 14.148620146497956 7.860926833751493 1.5737984403697287 0 0 0
39 1 15.72046460041155 6.289082369816681 0.0013584566724454703 0 0 0
40 1 17.291936444146433 7.8613555948609655 1.5736138420213364 0 0 0
41 1 18.864430615236618 6.289081239293976 0.0011196672093665204 0 0 0
42 1 20.436460992485674 7.861019623503694 1.5731095188021382 0 0 0
43 1 0.0007850771988350781 9.432863007202238 0.001012063199871558 0 0 0
44 1 1.573073445080317 11.004773500112169 1.5731234974388666 0 0 0
45 1 3.145167551543442 9.432919965867141 0.0011708340836663752 0 0 0
46 1 4.717655613141382 11.004773500112154 1.573658898840712 0 0 0
47 1 6.289364502581406 9.433106395326217 0.0017181656544448054 0 0 0
48 1 7.862252818565053 11.004773500111979 1.575130250636801 0 0 0
49 1 9.432396165231676 9.432396155273212 0.000975438427643117 0 0 0
50 1 11.004773500111948 11.00477350011194 1.5681099520199593 0 0 0
51 1 12.577150834992352 9.432396155273226 0.0009754384277479282 0 0 0
52 1 14.147294181658538 11.004773500111979 1.5751302506368257 0 0 0
53 1 15.720182497643009 9.433106395326226 0.001718165654551562 0 0 0
54 1 17.29189138708283 11.004773500112154 1.5736588988407867 0 0 0
55 1 18.864379448681305 9.432919965867095 0.001170834083794535 0 0 0
56 1 20.436473555144687 11.004773500112169 1.5731234974389567 0 0 0
57 1 0.0007850771988334534 12.576683993022092 0.001012063199871071 0 0 0
58 1 1.573086007739373 14.148527376720473 1.5731095188021662 0 0 0
59 1 3.1451675515434196 12.576627034357097 0.0011708340836444728 0 0 0
60 1 4.717610556077921 14.148191405363185 1.5736138420212433 0 0 0
61 1 6.289364502581455 12.576440604897927 0.0017181656545510941 0 0 0
62 1 7.8609268537259585 14.148620166472417 1.5737984403697307 0 0 0
63 1 9.432396165231696 12.57715084495081 0.0009754384277464317 0 0 0
64 1 11.00477350011199 14.147294201590181 1.5751302506917821 0 0 0
65 1 12.577150834992333 12.57715084495079 0.0009754384278547655 0 0 0
66 1 14.148620146497866 14.148620166472321 1.5737984403697216 0 0 0
67 1 15.720182497642966 12.576440604897911 0.0017181656546594209 0 0 0
68 1 17.291936444146287 14.148191405363097 1.573613842021496 0 0 0
69 1 18.864379448681326 12.57662703435714 0.0011708340837726418 0 0 0
70 1 20.436460992485635 14.14852737672044 1.5731095188022115 0 0 0
71 1 0.000785077198887287 15.720555478414884 0.0009966017100340645 0 0 0
72 1 1.5730123817794162 17.292537169727467 1.573013156370104 0 0 0
73 1 3.145116384988266 15.720465760930757 0.0011196672092781278 0 0 0
74 1 4.717561906274584 17.291985133986262 1.5735651917204763 0 0 0
75 1 6.289082399812995 15.720464630407859 0.0013584566724479895 0 0 0
76 1 7.861355614763503 17.291936484186337 1.5736138419618193 0 0 0
77 1 9.43310640532774 15.720182527635902 0.0017181656239969297 0 0 0
78 1 11.004773500112156 17.29189142706823 1.5736588988966238 0 0 0
79 1 12.576440594896408 15.720182527635863 0.0017181656240967279 0 0 0
80 1 14.148191385460565 17.291936484186174 1.573613841961974 0 0 0
81 1 15.72046460041151 15.720464630407813 0.0013584566724875436 0 0 0
82 1 17.291985093949876 17.291985133986163 1.5735651917205815 0 0 0
83 1 18.864430615236607 15.720465760930677 0.0011196672093631945 0 0 0
84 1 20.436534618445716 17.292537169727442 1.5730131563701248 0 0 0
85 1 0.0007850771988867967 18.86459010034759 0.0009602320800254639 0 0 0
86 1 1.5729017552824653 20.4366453049515 1.5729796244652425 0 0 0
87 1 3.145098261169346 18.864448789099253 0.001101543126887081 0 0 0
88 1 4.717009870426871 20.436534678551222 1.5730131563613008 0 0 0
89 1 6.2890812693214135 18.864430665283706 0.0011196671889741197 0 0 0
90 1 7.8610196434749735 20.436461052550392 1.573109518854507 0 0 0
91 1 9.432919975822497 18.86437949871968 0.0011708341551788695 0 0 0
92 1 11.004773500112178 20.436473615205873 1.5731234974147006 0 0 0
93 1 12.576627024401748 18.86437949871971 0.0011708341551628103 0 0 0
94 1 14.148527356749174 20.436461052550346 1.5731095188545785 0 0 0
95 1 15.720465730903252 18.864430665283706 0.0011196671889734254 0 0 0
96 1 17.292537129797772 20.436534678551208 1.5730131563613186 0 0 0
97 1 18.86444873905555 18.864448789099182 0.0011015431269633224 0 0 0
98 1 20.436645244942753 20.436645304951483 1.5729796244652114 0 0 0
99 1 0.0007850771988742118 0.0007850070812596542 3.144949052646039 0 0 0
100 1 1.5729257476046798 1.5729256875151554 4.716932339321718 0 0 0
101 1 3.144993319443226 0.0007850070812727291 3.1449948418358487 0 0 0
102 1 4.717106232813417 1.5730859475753807 4.717022936757124 0 0 0
103 1 6.288871890064536 0.000785007081142925 3.144875179820955 0 0 0
104 1 7.86073839190731 1.573001742139936 4.716741685269502 0 0 0
105 1 9.432885196024213 0.0007850070810834577 3.1450168099913607 0 0 0
106 1 11.004773500112151 1.5732194627410423 4.716970985308108 0 0 0
107 1 12.576661804199983 0.00078500708108613 3.145016809991405 0 0 0
108 1 14.148808608316738 1.5730017421400082 4.7167416852696045 0 0 0
109 1 15.720675110159979 0.0007850070811426394 3.144875179821057 0 0 0
110 1 17.29244076741114 1.5730859475754384 4.717022936757159 0 0 0
111 1 18.864553680781622 0.0007850070812740784 3.14499484183587 0 0 0
112 1 20.43662125262046 1.5729256875151 4.716932339321748 0 0 0
113 1 0.0007850771988883496 3.1449932694779004 3.1449948418550138 0 0 0
114 1 1.5730860076465916 4.717106192803588 4.717022936760411 0 0 0
115 1 3.1451163850430883 3.14511633501639 3.1450845585631395 0 0 0
116 1 4.717610556094032 4.717610516113668 4.717358907843518 0 0 0
117 1 6.289082399984857 3.1453551241326254 3.145085689352539 0 0 0
118 1 7.860926853691166 4.717795114205133 4.716930147022666 0 0 0
119 1 9.433106405527528 3.1457148332901896 3.145367792137151 0 0 0
120 1 11.00477350011199 4.71912692476065 4.718256111983971 0 0 0
121 1 12.576440594696619 3.145714833290292 3.145367792137196 0 0 0
122 1 14.148620146532657 4.717795114205123 4.7169301470227625 0 0 0
123 1 15.72046460023965 3.1453551241326645 3.1450856893525843 0 0 0
124 1 17.291936444130183 4.7176105161139175 4.717358907843606 0 0 0
125 1 18.864430615181792 3.145116335016475 3.1450845585632217 0 0 0
126 1 20.436460992578407 4.717106192803631 4.7170229367604435 0 0 0
127 1 0.0007850771987565921 6.2888718602272276 3.1448751798937327 0 0 0
128 1 1.5730018022683359 7.860738371966727 4.716741685276647 0 0 0
129 1 3.145355174199716 6.289082370013997 3.145085689377971 0 0 0
130 1 4.71779515422327 7.860926833706199 4.716930147012186 0 0 0
131 1 6.290704739799036 6.290704709895131 3.1467080296644427 0 0 0
132 1 7.865478762784397 7.865478742793369 4.721482055517976 0 0 0
133 1 9.434166879213109 6.291071663303572 3.147074982752604 0 0 0
134 1 11.004773500111796 7.870044726905149 4.726048039819504 0 0 0
135 1 12.575380121010584 6.2910716633036845 3.14707498275272 0 0 0
136 1 14.144068237439063 7.865478742793198 4.7214820555178045 0 0 0
137 1 15.718842260425156 6.290704709895228 3.146708029664541 0 0 0
138 1 17.29175184600089 7.860926833706195 4.7169301470121825 0 0 0
139 1 18.864191826024925 6.289082370014055 3.1450856893780244 0 0 0
140 1 20.436545197956512 7.86073837196678 4.716741685276703 0 0 0
141 1 0.0007850771987005805 9.432885186002473 3.1450168099350875 0 0 0
142 1 1.5732195227869876 11.00477350011215 4.716970985329576 0 0 0
143 1 3.1457148833159887 9.43310639558529 3.1453677921743486 0 0 0
144 1 4.719126964696292 11.004773500111979 4.718256111890581 0 0 0
145 1 6.2910716933981 9.434166869295991 3.1470749827744413 0 0 0
146 1 7.870044746980285 11.004773500111787 4.726048039968786 0 0 0
147 1 9.431166302321493 9.431166292280604 3.1470993017571085 0 0 0
148 1 11.00477350011163 11.00477350011162 4.678610306450662 0 0 0
149 1 12.578380697901972 9.431166292280608 3.1470993017571494 0 0 0
150 1 14.13950225324269 11.004773500111789 4.726048039968982 0 0 0
151 1 15.718475306825665 9.434166869296234 3.1470749827745985 0 0 0
152 1 17.290420035527543 11.004773500111979 4.718256111890722 0 0 0
153 1 18.86383211690833 9.433106395585376 3.1453677921744467 0 0 0
154 1 20.436327477437526 11.00477350011215 4.716970985329647 0 0 0
155 1 0.0007850771987024863 12.576661814221715 3.1450168099351328 0 0 0
156 1 1.5730018022684091 14.148808628257306 4.716741685276744 0 0 0
157 1 3.1457148833160904 12.576440604638849 3.145367792174392 0 0 0
158 1 4.717795154223257 14.148620166517608 4.716930147012283 0 0 0
159 1 6.291071693398217 12.575380130927693 3.147074982774556 0 0 0
160 1 7.865478762784221 14.144068257430082 4.721482055517806 0 0 0
161 1 9.431166302321499 12.578380707942847 3.1470993017571494 0 0 0
162 1 11.00477350011179 14.1395022733178 4.726048039819697 0 0 0
163 1 12.578380697901963 12.578380707942843 3.147099301757192 0 0 0
164 1 14.144068237439237 14.14406825743025 4.721482055517635 0 0 0
165 1 15.718475306825558 12.575380130927448 3.147074982774713 0 0 0
166 1 17.2917518460009 14.148620166517613 4.7169301470122775 0 0 0
167 1 18.863832116908227 12.576440604638758 3.1453677921744934 0 0 0
168 1 20.436545197956427 14.148808628257248 4.7167416852768085 0 0 0
169 1 0.0007850771987550726 15.720675139997278 3.1448751798938366 0 0 0
170 1 1.5730860076466477 17.292440807420967 4.717022936760451 0 0 0
171 1 3.145355174199751 15.72046463021049 3.145085689378015 0 0 0
172 1 4.717610556094284 17.291936484110526 4.717358907843609 0 0 0
173 1 6.290704739799139 15.71884229032905 3.1467080296645404 0 0 0
174 1 7.86092685369116 17.291751886019004 4.716930147022664 0 0 0
175 1 9.434166879213352 15.718475336920177 3.1470749827527658 0 0 0
176 1 11.004773500111982 17.290420075463167 4.7182561119841155 0 0 0
177 1 12.575380121010342 15.718475336920067 3.147074982752881 0 0 0
178 1 14.148620146532664 17.291751886019014 4.716930147022762 0 0 0
179 1 15.71884226042506 15.718842290328949 3.146708029664643 0 0 0
180 1 17.291936444129927 17.291936484110273 4.717358907843699 0 0 0
181 1 18.864191826024893 15.720464630210436 3.1450856893780723 0 0 0
182 1 20.43646099257835 17.292440807420924 4.717022936760483 0 0 0
183 1 0.0007850771988885706 18.86455373074693 3.1449948418550355 0 0 0
184 1 1.572925747604626 20.436621312709974 4.71693233932175 0 0 0
185 1 3.1451163850431745 18.86443066520846 3.1450845585632217 0 0 0
186 1 4.717106232813457 20.43646105264961 4.717022936757156 0 0 0
187 1 6.289082399984909 18.864191876091997 3.1450856893525954 0 0 0
188 1 7.860738391907368 20.436545258084895 4.716741685269563 0 0 0
189 1 9.433106405527623 18.863832166934124 3.145367792137252 0 0 0
190 1 11.004773500112151 20.436327537483447 4.71697098530818 0 0 0
191 1 12.576440594696527 18.863832166934017 3.1453677921372947 0 0 0
192 1 14.148808608316678 20.436545258084823 4.71674168526966 0 0 0
193 1 15.720464600239584 18.864191876091972 3.145085689352639 0 0 0
194 1 17.292440767411108 20.436461052649545 4.717022936757196 0 0 0
195 1 18.8644306151817 18.86443066520837 3.145084558563309 0 0 0
196 1 20.436621252620522 20.436621312710038 4.716932339321784 0 0 0
197 1 0.0007850771989218962 0.000785007081305853 6.288847510108558 0 0 0
198 1 1.5729290117484676 1.572928951635209 7.860776800583313 0 0 0
199 1 3.145008780938208 0.0007850070812193282 6.288866314267542 0 0 0
200 1 4.717120211362112 1.573073384891519 7.860776800583361 0 0 0
201 1 6.289013520788904 0.0007850070810852892 6.288888493200452 0 0 0
202 1 7.860967692395865 1.5732194625221876 7.860776800583482 0 0 0
203 1 9.432662147643278 0.0007850070809943247 6.2886654440070995 0 0 0
204 1 11.004773500112178 1.5722916754609673 7.860776800583435 0 0 0
205 1 12.576884852580765 0.000785007080997663 6.288665444007078 0 0 0
206 1 14.14857930782814 1.5732194625222717 7.860776800583484 0 0 0
207 1 15.720533479435502 0.0007850070810882352 6.288888493200488 0 0 0
208 1 17.292426788862333 1.573073384891599 7.860776800583358 0 0 0
209 1 18.864538219286608 0.0007850070812210163 6.288866314267663 0 0 0
210 1 20.436617988476655 1.5729289516352838 7.860776800583314 0 0 0
211 1 0.000785077198835479 3.145008730919231 6.288866314246464 0 0 0
212 1 1.5730734449927168 4.71712017134601 7.860776800583361 0 0 0
213 1 3.145167551455988 3.145167501346206 6.288923272248826 0 0 0
214 1 4.717655612678709 4.717655572637456 7.860776800583488 0 0 0
215 1 6.289364502220518 3.145714833202447 6.289109702312795 0 0 0
216 1 7.862252818264487 4.719126924982471 7.8607768005839995 0 0 0
217 1 9.432396165168964 3.144972105761921 6.288399462374277 0 0 0
218 1 11.004773500111945 4.712106625788004 7.860776800584105 0 0 0
219 1 12.577150835055072 3.144972105762028 6.288399462374291 0 0 0
220 1 14.1472941819591 4.719126924982493 7.8607768005839995 0 0 0
221 1 15.720182498003902 3.1457148332025535 6.289109702312804 0 0 0
222 1 17.291891387545512 4.717655572637529 7.860776800583482 0 0 0
223 1 18.86437944876877 3.145167501346328 6.288923272248786 0 0 0
224 1 20.436473555232286 4.717120171346095 7.860776800583361 0 0 0
225 1 0.0007850771987013297 6.289013490808037 6.288888493144177 0 0 0
226 1 1.5732195224919938 7.860967672468423 7.860776800583482 0 0 0
227 1 3.145714883197659 6.2893644722648 6.289109702372057 0 0 0
228 1 4.719126964973053 7.86225279823938 7.8607768005839995 0 0 0
229 1 6.291071693730511 6.291071663657791 6.290170176172585 0 0 0
230 1 7.870044747287631 7.870044727361936 7.860776800584483 0 0 0
231 1 9.43116630217237 6.2910959822091845 6.287169598751198 0 0 0
232 1 11.00477350011163 7.822606992268868 7.860776800585026 0 0 0
233 1 12.5783806980511 6.291095982209225 6.287169598751205 0 0 0
234 1 14.139502252935335 7.870044727362127 7.860776800584481 0 0 0
235 1 15.718475306493255 6.291071663657951 6.290170176172825 0 0 0
236 1 17.290420035250783 7.86225279823952 7.8607768005839995 0 0 0
237 1 18.863832117026664 6.2893644722649 6.289109702372146 0 0 0
238 1 20.436327477732508 7.860967672468495 7.860776800583482 0 0 0
239 1 0.0007850771986114385 9.432662137662088 6.2886654440307375 0 0 0
240 1 1.5722917355727746 11.004773500112176 7.860776800583437 0 0 0
241 1 3.144972155770561 9.432396155183433 6.288399462347223 0 0 0
242 1 4.712106665879074 11.00477350011194 7.860776800584103 0 0 0
243 1 6.291096012167702 9.43116629214336 6.287169598763066 0 0 0
244 1 7.822607012196 11.004773500111616 7.860776800585028 0 0 0
245 1 9.438380227446775 9.43838021760335 6.294383524495561 0 0 0
246 1 20.436646400320186 20.43664646040154 20.436880775138686 0 0 0
247 1 12.571166772776515 9.438380217603354 6.294383524495564 0 0 0
248 1 14.186939988027039 11.004773500111616 7.860776800585025 0 0 0
249 1 15.718450988056105 9.431166292143283 6.287169598762984 0 0 0
250 1 17.29744033434432 11.00477350011194 7.860776800584109 0 0 0
251 1 18.86457484445364 9.432396155183524 6.288399462347313 0 0 0
252 1 20.437255264651753 11.004773500112176 7.860776800583438 0 0 0
253 1 0.0007850771986115938 12.576884862561956 6.288665444030724 0 0 0
254 1 1.5732195224920729 14.148579327755572 7.860776800583484 0 0 0
255 1 3.1449721557706636 12.577150845040585 6.28839946234724 0 0 0
256 1 4.719126964973077 14.147294201984192 7.860776800584003 0 0 0
257 1 6.291096012167746 12.578380708080088 6.287169598763069 0 0 0
258 1 7.870044747287823 14.13950227286102 7.860776800584483 0 0 0
259 1 9.43838022744678 12.571166782619928 6.294383524495569 0 0 0
260 1 11.00477350011163 14.186940007954163 7.860776800585028 0 0 0
261 1 12.571166772776508 12.571166782619922 6.294383524495577 0 0 0
262 1 14.139502252935142 14.139502272860824 7.860776800584481 0 0 0
263 1 15.718450988056059 12.578380708080168 6.287169598762985 0 0 0
264 1 17.290420035250754 14.147294201984055 7.8607768005839995 0 0 0
265 1 18.864574844453536 12.577150845040492 6.288399462347334 0 0 0
266 1 20.436327477732426 14.148579327755495 7.860776800583481 0 0 0
267 1 0.0007850771987018245 15.720533509416349 6.288888493144218 0 0 0
268 1 1.5730734449927966 17.29242682887843 7.860776800583362 0 0 0
269 1 3.145714883197764 15.720182527959608 6.289109702372066 0 0 0
270 1 4.717655612678787 17.291891427586744 7.860776800583488 0 0 0
271 1 6.291071693730673 15.71847533656596 6.290170176172824 0 0 0
272 1 7.862252818264626 17.290420075241354 7.860776800584003 0 0 0
273 1 9.43116630217228 15.718451018014608 6.287169598751121 0 0 0
274 1 11.004773500111945 17.297440374435382 7.860776800584106 0 0 0
275 1 12.578380698051177 15.718451018014566 6.287169598751123 0 0 0
276 1 14.14729418195896 17.290420075241332 7.8607768005839995 0 0 0
277 1 15.718475306493094 15.718475336565797 6.29017017617307 0 0 0
278 1 17.29189138754542 17.291891427586677 7.8607768005834835 0 0 0
279 1 18.86383211702656 15.7201825279595 6.289109702372158 0 0 0
280 1 20.436473555232194 17.292426828878334 7.860776800583361 0 0 0
281 1 0.0007850771988323099 18.86453826930557 6.288866314246585 0 0 0
282 1 1.5729290117485444 20.436618048589906 7.860776800583313 0 0 0
283 1 3.1451675514561117 18.864379498878534 6.288923272248786 0 0 0
284 1 4.717120211362201 20.436473615333476 7.86077680058336 0 0 0
285 1 6.289364502220615 18.863832167021858 6.289109702312885 0 0 0
286 1 7.860967692395935 20.436327537702308 7.860776800583485 0 0 0
287 1 9.43239616516906 18.86457489446226 6.288399462374367 0 0 0
288 1 11.004773500112178 20.437255324763548 7.860776800583435 0 0 0
289 1 12.577150835054976 18.864574894462162 6.288399462374386 0 0 0
290 1 14.148579307828067 20.436327537702223 7.860776800583482 0 0 0
291 1 15.720182498003803 18.86383216702176 6.289109702312895 0 0 0
292 1 17.29242678886224 20.436473615333387 7.860776800583362 0 0 0
293 1 18.86437944876863 18.86437949887841 6.2889232722487485 0 0 0
294 1 20.436617988476577 20.43661804858983 7.860776800583314 0 0 0
295 1 0.0007850771989205031 0.0007850070813059835 9.4327060910577 0 0 0
296 1 1.5729257476046088 1.5729256875150857 11.004621261844461 0 0 0
297 1 3.1450087809381992 0.000785007081220859 9.432687286898986 0 0 0
298 1 4.717106232813215 1.5730859475752228 11.00453066440949 0 0 0
299 1 6.2890135207887985 0.0007850070810866417 9.432665107966468 0 0 0
300 1 7.860738391907046 1.5730017421397364 11.004811915897422 0 0 0
301 1 9.432662147643265 0.0007850070809947114 9.432888157160255 0 0 0
302 1 11.00477350011215 1.5732194627408402 11.004582615858943 0 0 0
303 1 12.576884852580784 0.000785007080995193 9.43288815716027 0 0 0
304 1 14.14880860831699 1.573001742139808 11.00481191589733 0 0 0
305 1 15.720533479435606 0.0007850070810868323 9.432665107966425 0 0 0
306 1 17.292440767411353 1.5730859475752788 11.004530664409456 0 0 0
307 1 18.864538219286608 0.0007850070812174805 9.432687286898854 0 0 0
308 1 20.43662125262053 1.5729256875150297 11.004621261844418 0 0 0
309 1 0.0007850771988340909 3.145008730919218 9.432687286920059 0 0 0
310 1 1.573086007646433 4.717106192803389 11.004530664406204 0 0 0
311 1 3.145167551456035 3.145167501346255 9.432630328917902 0 0 0
312 1 4.71761055609359 4.717610516113225 11.004194693323393 0 0 0
313 1 6.289364502220426 3.1457148332022253 9.432443898854288 0 0 0
314 1 7.8609268536909225 4.7177951142050665 11.00462345414496 0 0 0
315 1 9.432396165168965 3.1449721057617057 9.433154138793173 0 0 0
316 1 11.00477350011199 4.7191269247605545 11.003297489184192 0 0 0
317 1 12.577150835055066 3.1449721057618145 9.433154138793158 0 0 0
318 1 14.148620146532902 4.717795114205061 11.004623454144866 0 0 0
319 1 15.720182498003991 3.145714833202331 9.43244389885428 0 0 0
320 1 17.291936444130627 4.717610516113479 11.004194693323297 0 0 0
321 1 18.864379448768727 3.1451675013463793 9.43263032891794 0 0 0
322 1 20.43646099257856 4.7171061928034295 11.004530664406172 0 0 0
323 1 0.00078507719870219 6.2890134908079345 9.43266510802274 0 0 0
324 1 1.5730018022681362 7.860738371966465 11.00481191589028 0 0 0
325 1 3.1457148831974378 6.2893644722647135 9.432443898795025 0 0 0
326 1 4.717795154223201 7.860926833705956 11.004623454155443 0 0 0
327 1 6.29107169373026 6.291071663657543 9.43138342499577 0 0 0
328 1 7.865478762784719 7.865478742793694 11.000071545650544 0 0 0
329 1 9.431166302172326 6.291095982209009 9.434384002417938 0 0 0
330 1 11.00477350011179 7.870044726904584 10.995505561350573 0 0 0
331 1 12.578380698051133 6.291095982209056 9.434384002417932 0 0 0
332 1 14.144068237438738 7.865478742793523 11.000071545650714 0 0 0
333 1 15.718475306493497 6.291071663657705 9.431383424995532 0 0 0
334 1 17.291751846000956 7.860926833705951 11.004623454155452 0 0 0
335 1 18.86383211702688 6.289364472264814 9.432443898794942 0 0 0
336 1 20.436545197956715 7.86073837196652 11.004811915890228 0 0 0
337 1 0.0007850771986152973 9.432662137662069 9.432888157136615 0 0 0
338 1 1.57321952278679 11.00477350011215 11.00458261583748 0 0 0
339 1 3.1449721557703443 9.432396155183437 9.43315413882023 0 0 0
340 1 4.719126964696198 11.004773500111973 11.003297489277587 0 0 0
341 1 6.291096012167532 9.431166292143322 9.434384002406075 0 0 0
342 1 7.870044746979713 11.004773500111789 10.995505561201288 0 0 0
343 1 9.438380227446826 9.438380217603404 9.42717007667409 0 0 0
344 1 11.00477350011163 11.004773500111625 11.042943294718844 0 0 0
345 1 12.571166772776463 9.43838021760341 9.42717007667409 0 0 0
346 1 14.139502253243256 11.004773500111789 10.995505561201101 0 0 0
347 1 15.718450988056276 9.431166292143242 9.434384002406157 0 0 0
348 1 17.29042003552763 11.004773500111979 11.00329748927745 0 0 0
349 1 18.864574844453855 9.432396155183527 9.433154138820136 0 0 0
350 1 20.43632747743772 11.00477350011215 11.004582615837409 0 0 0
351 1 0.0007850771986107135 12.576884862561965 9.432888157136631 0 0 0
352 1 1.5730018022682093 14.14880862825757 11.004811915890182 0 0 0
353 1 3.144972155770449 12.577150845040583 9.433154138820214 0 0 0
354 1 4.717795154223195 14.148620166517858 11.004623454155341 0 0 0
355 1 6.291096012167572 12.57838070808012 9.43438400240607 0 0 0
356 1 7.865478762784552 14.144068257429753 11.000071545650712 0 0 0
357 1 9.438380227446832 12.571166782619878 9.427170076674086 0 0 0
358 1 11.004773500111797 14.139502273318373 10.995505561350383 0 0 0
359 1 12.571166772776452 12.571166782619862 9.427170076674084 0 0 0
360 1 14.144068237438901 14.14406825742992 11.00007154565088 0 0 0
361 1 15.718450988056231 12.578380708080212 9.434384002406157 0 0 0
362 1 17.29175184600096 14.14862016651786 11.00462345415535 0 0 0
363 1 18.864574844453756 12.577150845040485 9.433154138820125 0 0 0
364 1 20.436545197956633 14.14880862825751 11.004811915890128 0 0 0
365 1 0.000785077198702357 15.720533509416457 9.432665108022704 0 0 0
366 1 1.5730860076464892 17.292440807421166 11.004530664406163 0 0 0
367 1 3.145714883197544 15.720182527959693 9.432443898795013 0 0 0
368 1 4.71761055609384 17.29193648411097 11.0041946933233 0 0 0
369 1 6.291071693730419 15.718475336566208 9.431383424995532 0 0 0
370 1 7.8609268536909145 17.29175188601907 11.004623454144966 0 0 0
371 1 9.43116630217225 15.71845101801478 9.434384002418016 0 0 0
372 1 11.004773500111982 17.29042007546326 11.00329748918406 0 0 0
373 1 12.578380698051216 15.718451018014738 9.434384002418021 0 0 0
374 1 14.148620146532904 17.291751886019078 11.00462345414487 0 0 0
375 1 15.718475306493348 15.718475336566057 9.431383424995287 0 0 0
376 1 17.291936444130364 17.291936484110714 11.00419469332321 0 0 0
377 1 18.86383211702678 15.720182527959588 9.432443898794922 0 0 0
378 1 20.436460992578507 17.29244080742112 11.004530664406134 0 0 0
379 1 0.0007850771988288901 18.864538269305577 9.432687286919935 0 0 0
380 1 1.5729257476045533 20.43662131271005 11.00462126184442 0 0 0
381 1 3.1451675514561606 18.86437949887848 9.43263032891794 0 0 0
382 1 4.717106232813262 20.436461052649765 11.004530664409458 0 0 0
383 1 6.289364502220528 18.86383216702208 9.432443898854201 0 0 0
384 1 7.8607383919071045 20.4365452580851 11.004811915897363 0 0 0
385 1 9.43239616516906 18.864574894462486 9.433154138793086 0 0 0
386 1 11.00477350011215 20.436327537483646 11.004582615858872 0 0 0
387 1 12.577150835054976 18.864574894462372 9.433154138793066 0 0 0
388 1 14.148808608316939 20.436545258085026 11.004811915897264 0 0 0
389 1 15.720182498003888 18.863832167021968 9.432443898854197 0 0 0
390 1 17.292440767411307 20.436461052649705 11.00453066440942 0 0 0
391 1 18.864379448768588 18.864379498878357 9.43263032891798 0 0 0
392 1 20.43662125262059 20.4366213127101 11.004621261844385 0 0 0
393 1 0.0007850771988713353 0.0007850070812607465 12.576604548519771 0 0 0
394 1 1.5729017552824822 1.5729016952737438 14.148573976699762 0 0 0
395 1 3.1449933194430977 0.0007850070812752349 12.576558759330194 0 0 0
396 1 4.717009870426764 1.5730123216738552 14.148540444804121 0 0 0
397 1 6.288871890064247 0.0007850070811453835 12.576678421345584 0 0 0
398 1 7.861019643474775 1.5730859476744035 14.148444082311185 0 0 0
399 1 9.432885196024122 0.0007850070810872677 12.576536791175469 0 0 0
400 1 11.004773500112178 1.5730733850188705 14.148430103751346 0 0 0
401 1 12.576661804200079 0.0007850070810858324 12.576536791175423 0 0 0
402 1 14.148527356749371 1.5730859476744503 14.14844408231111 0 0 0
403 1 15.720675110160265 0.0007850070811477826 12.576678421345473 0 0 0
404 1 17.29253712979787 1.5730123216738696 14.148540444804102 0 0 0
405 1 18.864553680781743 0.0007850070812744295 12.57655875933017 0 0 0
406 1 20.436645244942746 1.5729016952737527 14.148573976699792 0 0 0
407 1 0.0007850771988895788 3.144993269477774 12.57655875931103 0 0 0
408 1 1.5730123817793609 4.717009830497088 14.148540444795325 0 0 0
409 1 3.1451163850430226 3.145116335016327 12.57646904260298 0 0 0
410 1 4.717561906274154 4.717561866237854 14.147988409445567 0 0 0
411 1 6.2890823999847685 3.145355124132559 12.576467911813923 0 0 0
412 1 7.861355614763176 4.717610516037198 14.147939759205116 0 0 0
413 1 9.433106405527498 3.1457148332899094 12.576185809029619 0 0 0
414 1 11.00477350011216 4.71765557315571 14.14789470227015 0 0 0
415 1 12.576440594696649 3.1457148332900156 12.576185809029573 0 0 0
416 1 14.148191385460887 4.717610516037352 14.14793975920495 0 0 0
417 1 15.720464600239735 3.1453551241325917 12.576467911813879 0 0 0
418 1 17.2919850939503 4.717561866237959 14.14798840944547 0 0 0
419 1 18.86443061518185 3.145116335016411 12.576469042602897 0 0 0
420 1 20.436534618445773 4.71700983049711 14.148540444795291 0 0 0
421 1 0.0007850771987587173 6.288871860226938 12.57667842127281 0 0 0
422 1 1.5730860077391444 7.861019623503494 14.148444082363554 0 0 0
423 1 3.1453551741996484 6.289082370013906 12.576467911788493 0 0 0
424 1 4.7176105560771004 7.861355594860632 14.147939759145599 0 0 0
425 1 6.290704739798775 6.290704709894871 12.574845571503008 0 0 0
426 1 7.86092685372581 7.860926833751346 14.147755160797125 0 0 0
427 1 9.434166879212473 6.29107166330313 12.574478618415979 0 0 0
428 1 11.004773500111982 7.862252798633042 14.146423350476095 0 0 0
429 1 12.575380121011223 6.291071663303242 12.574478618415858 0 0 0
430 1 14.148620146498004 7.860926833751445 14.14775516079713 0 0 0
431 1 15.718842260425415 6.290704709894974 12.574845571502909 0 0 0
432 1 17.291936444147108 7.8613555948607265 14.14793975914535 0 0 0
433 1 18.86419182602499 6.2890823700139675 12.576467911788438 0 0 0
434 1 20.436460992485856 7.861019623503531 14.148444082363511 0 0 0
435 1 0.0007850771987024261 9.432885186002373 12.576536791231737 0 0 0
436 1 1.573073445080079 11.004773500112169 14.148430103727092 0 0 0
437 1 3.1457148833157107 9.43310639558526 12.576185808992422 0 0 0