LAMMPS data file via write_data, version 2 Aug 2023, timestep = 120, units = metal

694 atoms
3 atom types

-0.01166967305171745 22.021216669907492 xlo xhi
-0.012932438137214158 22.022479434992988 ylo yhi
-0.010131693116029258 22.019678689971798 zlo zhi

Masses

1 183.84
2 1.008
3 4.0026

Atoms # atomic

1 1 -0.011669670179394971 -0.012932435268145205 -0.01013169024535546 0 0 0
2 1 1.5621079255884256 1.5610255555631851 1.563426194171483 0 0 0
3 1 3.135885521633073 -0.012932435362714862 -0.010131690109679164 0 0 0
4 1 4.709663118749945 1.5610255580361676 1.563426195973555 0 0 0
5 1 6.283440712506054 -0.012932434508530441 -0.010131690885309004 0 0 0
6 1 7.8572183145625845 1.5610255624043574 1.5634261970095935 0 0 0
7 1 9.430995903422065 -0.012932436891796897 -0.010131689575694583 0 0 0
8 1 11.004773497368744 1.5610254628082614 1.5634261138724084 0 0 0
9 1 12.578551096416547 -0.012932437649165155 -0.010131688255140449 0 0 0
10 1 14.152328691352167 1.561025543829021 1.5634261870303308 0 0 0
11 1 15.726106287643459 -0.012932435319988046 -0.010131691058974329 0 0 0
12 1 17.29988387746889 1.5610255642573467 1.5634261993025647 0 0 0
13 1 18.87366147846844 -0.012932435124958857 -0.010131690117440546 0 0 0
14 1 20.447439075052085 1.5610255550092345 1.563426193840317 0 0 0
15 1 -0.01166967016507174 3.134983546543637 -0.01013169015220194 0 0 0
16 1 1.5621079319529734 4.708941542067449 1.5634261986545543 0 0 0
17 1 3.1358855226203515 3.134983547334608 -0.010131689292817625 0 0 0
18 1 4.709663198041035 4.708941599131969 1.5634262616114813 0 0 0
19 1 6.283440712731609 3.1349835441399843 -0.010131691656808635 0 0 0
20 1 7.857218721065412 4.70894149334633 1.5634261324461076 0 0 0
21 1 9.430995889105757 3.134983499875318 22.019678649726607 0 0 -1
22 1 11.004773642777932 4.708939365247484 1.5634243820487914 0 0 0
23 1 12.578551101362704 3.1349834787762956 22.019678626335633 0 0 -1
24 1 14.152328348473173 4.708940330286763 1.5634249621023761 0 0 0
25 1 15.72610629928407 3.1349835288544567 22.01967867528921 0 0 -1
26 1 17.29988367499412 4.708941735803546 1.5634263913101045 0 0 0
27 1 18.873661475841097 3.134983549176507 -0.01013168729337708 0 0 0
28 1 20.447439070913187 4.708941538127332 1.5634261937790594 0 0 0
29 1 -0.011669670137471078 6.282899527303743 -0.010131690782857892 0 0 0
30 1 1.562107905843437 7.8568575054439584 1.5634261814097614 0 0 0
31 1 3.1358855122348532 6.282899519580931 22.019678686783887 0 0 -1
32 1 4.709662524211798 7.856857053165551 1.5634256963879367 0 0 0
33 1 6.28344069127048 6.2828995184115675 -0.010131644071301214 0 0 0
34 1 7.857216153697389 7.856856970371317 1.5634218788609222 0 0 0
35 1 9.430996023970488 6.282899389693849 -0.01013147561339614 0 0 0
36 1 11.004770453097825 7.8568584269256885 1.5634453563826956 0 0 0
37 1 12.57855106847798 6.2828993473136645 -0.01013147447807625 0 0 0
38 1 14.152327477161338 7.856860541453388 1.5634358806748159 0 0 0
39 1 15.726106134482077 6.28289969908229 -0.0101313645896494 0 0 0
40 1 17.29988527173915 7.856856754709163 1.5634246062868355 0 0 0
41 1 18.873661500000896 6.282899505545898 22.0196786665899 0 0 -1
42 1 20.447439094685702 7.856857510655493 1.5634261887143543 0 0 0
43 1 -0.011669669650507947 9.430815508660093 -0.010131690538348333 0 0 0
44 1 1.56210785010634 11.004773487948919 1.5634261220142562 0 0 0
45 1 3.135885526090497 9.430815517905247 -0.010131685141075613 0 0 0
46 1 4.709663375907735 11.004773605594004 1.5634271072179202 0 0 0
47 1 6.283440368775724 9.430815274687605 22.019678051583433 0 0 -1
48 1 7.857208291308648 11.004771377625717 1.5634098333133004 0 0 0
49 1 9.430993300248117 9.430812643612892 22.019676313108487 0 0 -1
50 1 11.004716734307493 11.004769202590994 1.5631387442827804 0 0 0
51 1 12.57855254978208 9.430813317230017 22.019675075436314 0 0 -1
52 1 14.152328628980271 11.004771627266981 1.5633896986322955 0 0 0
53 1 15.726106984418463 9.430815001561788 22.019677456967905 0 0 -1
54 1 17.299882458974118 11.004773577207057 1.5634275844961698 0 0 0
55 1 18.8736614739745 9.430815533350849 -0.010131678568437887 0 0 0
56 1 20.44743907869569 11.00477347851916 1.5634261829238263 0 0 0
57 1 -0.011669670672754692 12.578731490780884 -0.010131688057039574 0 0 0
58 1 1.562107881366687 14.152689511383876 1.5634261655012553 0 0 0
59 1 3.135885516572143 12.578731474160703 22.019678675969494 0 0 -1
60 1 4.709661658320395 14.152689981680679 1.5634249790891435 0 0 0
61 1 6.28344048281105 12.57873177622587 22.01967824570881 0 0 -1
62 1 7.857216477021722 14.152691338092744 1.5634292922432993 0 0 0
63 1 9.430993224206816 12.578734274265443 22.01967266611921 0 0 -1
64 1 11.004767679080594 14.152696272849338 1.563419839099229 0 0 0
65 1 12.57855251897959 12.578733621035655 22.01966931728222 0 0 -1
66 1 14.152331319118751 14.152690934125609 1.5634228098680187 0 0 0
67 1 15.726106868281393 12.578731872603926 22.019677678744173 0 0 -1
68 1 17.299884712505786 14.152690083139872 1.5634255927729255 0 0 0
69 1 18.873661467979087 12.578731476526917 -0.010131691487969644 0 0 0
70 1 20.447439118329413 14.152689513515861 1.5634261626314632 0 0 0
71 1 -0.011669670289566648 15.72664747334367 -0.010131691394990757 0 0 0
72 1 1.5621079386470869 17.300605452936978 1.5634262029711028 0 0 0
73 1 3.1358855019899847 15.72664749017458 22.019678679071028 0 0 -1
74 1 4.709663326432798 17.300605271576483 1.5634263841066143 0 0 0
75 1 6.283440757878492 15.726647413445042 -0.010131467923329756 0 0 0
76 1 7.857218198363516 17.300606859630953 1.5634249240017062 0 0 0
77 1 9.430995682586255 15.726647698422772 22.019678469700427 0 0 -1
78 1 11.004773436863468 17.300606218132327 1.5634256205271753 0 0 0
79 1 12.578551201866565 15.72664754225772 22.019678612363116 0 0 -1
80 1 14.152328629035479 17.30060542896306 1.5634263748512982 0 0 0
81 1 15.726106296021323 15.726647454827965 22.019678647116972 0 0 -1
82 1 17.29988397573448 17.30060557173687 1.563426085434138 0 0 0
83 1 18.8736614891601 15.726647482381521 22.019678685561093 0 0 -1
84 1 20.447439070762268 17.300605458281357 1.56342619801151 0 0 0
85 1 -0.0116696700374029 18.87456345344887 -0.010131690060504149 0 0 0
86 1 1.5621079253857049 20.448521444835603 1.5634261940859724 0 0 0
87 1 3.13588552434117 18.87456345106949 -0.01013168746920986 0 0 0
88 1 4.709663123314647 20.448521435208622 1.5634261996285046 0 0 0
89 1 6.283440696362041 18.874563476559306 22.019678671906625 0 0 -1
90 1 7.857218293676628 20.448521477386183 1.5634261732494983 0 0 0
91 1 9.430995908000526 18.874563481204053 22.019678659865413 0 0 -1
92 1 11.004773491910305 20.448521482939107 1.563426164730129 0 0 0
93 1 12.578551105377793 18.874563471625446 22.019678662881002 0 0 -1
94 1 14.152328710815047 20.448521469116123 1.5634261702390542 0 0 0
95 1 15.726106286767884 18.874563449397495 -0.01013168414343991 0 0 0
96 1 17.29988388076966 20.448521443310387 1.563426196350791 0 0 0
97 1 18.8736614798549 18.874563455169884 -0.01013169159302322 0 0 0
98 1 20.44743907433095 20.448521444375345 1.5634261942776448 0 0 0
99 1 -0.011669670184697148 -0.012932435212123118 3.1369840786127727 0 0 0
100 1 1.5621079265502027 1.5610255563439064 4.710541962924988 0 0 0
101 1 3.135885520738691 -0.012932434682331058 3.1369840782236262 0 0 0
102 1 4.7096631160574125 1.5610255546007796 4.71054196315462 0 0 0
103 1 6.283440713631833 22.022479430333142 3.136984079197466 0 -1 0
104 1 7.857218132662789 1.5610254275765412 4.710541819006166 0 0 0
105 1 9.43099591307937 -0.012932417532142524 3.136984095740119 0 0 0
106 1 11.00477350832731 1.5610261946404498 4.71054206383894 0 0 0
107 1 12.578551088574878 -0.012932411771087353 3.1369840921876526 0 0 0
108 1 14.152328838871796 1.5610255614256763 4.7105418491615785 0 0 0
109 1 15.726106284408347 -0.012932435494498462 3.1369840806995257 0 0 0
110 1 17.299883904778284 1.5610255159770197 4.710541946452178 0 0 0
111 1 18.873661479621436 -0.012932435936398349 3.1369840779264737 0 0 0
112 1 20.44743907171204 1.5610255585263155 4.710541963652876 0 0 0
113 1 -0.0116696703080466 3.13498354573304 3.1369840781823988 0 0 0
114 1 1.562107903026949 4.708941517311036 4.710541956498343 0 0 0
115 1 3.1358855133214645 3.134983540876597 3.1369840748857603 0 0 0
116 1 4.709662520764505 4.708941078299546 4.710541907185252 0 0 0
117 1 6.283440715485361 3.1349835963866806 3.136984110053164 0 0 0
118 1 7.857214037248867 4.708941149603974 4.710538191539383 0 0 0
119 1 9.430996441398365 3.134984125612851 3.1369842621057145 0 0 0
120 1 11.004776014939157 4.709000857795269 4.7105866679326445 0 0 0
121 1 12.578550646285231 3.1349838243063353 3.1369839192674203 0 0 0
122 1 14.15232988217 4.7089486927082085 4.710542949168318 0 0 0
123 1 15.726106168394997 3.1349838479244148 3.1369842474344063 0 0 0
124 1 17.299885595543273 4.708939652055148 4.710540812330461 0 0 0
125 1 18.873661514535122 3.1349835066158303 3.136984054430744 0 0 0
126 1 20.447439085381404 4.708941540493861 4.7105419532644435 0 0 0
127 1 -0.011669661194476315 6.282899527057287 3.136984076709485 0 0 0
128 1 1.5621080260333131 7.856857449916848 4.710541928164407 0 0 0
129 1 3.1358858175107174 6.282899770089813 3.1369842972612214 0 0 0
130 1 4.709671278611065 7.8568650753766125 4.710548264466185 0 0 0
131 1 6.283444227132724 6.282902178809787 3.1369868478905367 0 0 0
132 1 7.857301083995419 7.857125018801148 4.710447542156177 0 0 0
133 1 9.43101724803726 6.282928809930253 3.1370096892272143 0 0 0
134 1 11.005025656932272 7.858006994322231 4.7118016094282185 0 0 0
135 1 12.578542252026478 6.282938109636326 3.13702162917419 0 0 0
136 1 14.152372024949337 7.857345988440357 4.711079807327288 0 0 0
137 1 15.726096776209301 6.28290866448258 3.1369930154513144 0 0 0
138 1 17.29989383221419 7.8568482547763905 4.71053243348734 0 0 0
139 1 18.873661426424114 6.282899404085044 3.136983917564025 0 0 0
140 1 20.44743938749568 7.856857345306827 4.710541779037492 0 0 0
141 1 -0.011669665894686824 9.430815516503555 3.136984082675719 0 0 0
142 1 1.5621082954884389 11.00477358980225 4.7105421988559355 0 0 0
143 1 3.1358845904434784 9.430815850873683 3.136983435953774 0 0 0
144 1 4.709694523132081 11.00478238571442 4.710600366816337 0 0 0
145 1 6.283422584011704 9.430800361214555 3.136963715741071 0 0 0
146 1 7.855692178500914 11.004873803926593 4.710119750744762 0 0 0
147 1 9.4308522391307 9.430859467009178 3.136996642738829 0 0 0
148 1 11.009803511385806 11.004823643133077 4.694121578819349 0 0 0
149 1 12.57836985739005 9.430937436485001 3.1368241966760717 0 0 0
150 1 14.153270234843871 11.004913772014289 4.708648026940805 0 0 0
151 1 15.72612996895571 9.430785780808717 3.136954815690576 0 0 0
152 1 17.299903776899022 11.004785994641516 4.710540273850468 0 0 0
153 1 18.873661973289284 9.430815319876327 3.13698399707183 0 0 0
154 1 20.44743943286285 11.004773704778026 4.710542014920207 0 0 0
155 1 -0.011669657030629051 12.578731494438374 3.136984079214427 0 0 0
156 1 1.5621083174673496 14.152689441690006 4.710542023311238 0 0 0
157 1 3.135883135545834 12.578731356251001 3.1369819815333844 0 0 0
158 1 4.709684126039639 14.152672478071976 4.710557997111663 0 0 0
159 1 6.283429311895236 12.578753916213344 3.136975891981766 0 0 0
160 1 7.857529294358292 14.152365692042691 4.710876554262196 0 0 0
161 1 9.43087151296064 12.57868408912326 3.1367313637301812 0 0 0
162 1 11.00440118838701 14.152727057050118 4.710586779848126 0 0 0
163 1 12.578337174939497 12.578791030545394 3.136440608153108 0 0 0
164 1 14.152693455344448 14.153257838992541 4.7103792944366525 0 0 0
165 1 15.726128202602665 12.578762960167367 3.1369650377638543 0 0 0
166 1 17.29987562991745 14.15267584058658 4.71055523678513 0 0 0
167 1 18.873664066077914 12.5787319693995 3.136981964810544 0 0 0
168 1 20.4474388682908 14.15268942704896 4.710541997501371 0 0 0
169 1 -0.011669663752068099 15.726647461381308 3.1369840856601368 0 0 0
170 1 1.5621078817828775 17.300605500239342 4.710541951199466 0 0 0
171 1 3.135886150241553 15.726647007426774 3.1369845194741526 0 0 0
172 1 4.709662087548411 17.3006063503134 4.710541580807772 0 0 0
173 1 6.283450516914733 15.726638373354008 3.1369928576832455 0 0 0
174 1 7.857225130104588 17.300594385739483 4.710548575717131 0 0 0
175 1 9.430990639476253 15.726640245196313 3.1369917829337703 0 0 0
176 1 11.00477713056864 17.300594580610912 4.710554408240143 0 0 0
177 1 12.578545188379247 15.726637083507372 3.1369970185672518 0 0 0
178 1 14.152320509859516 17.300606247574915 4.7105505866021185 0 0 0
179 1 15.726112951088563 15.726655055134362 3.1369765475648337 0 0 0
180 1 17.29988356577177 17.30060509696597 4.710541700851449 0 0 0
181 1 18.873661250504753 15.72664718716212 3.136984327843919 0 0 0
182 1 20.447439103719425 17.300605492300715 4.710541948464977 0 0 0
183 1 -0.011669670721400635 18.87456345513893 3.1369840779162748 0 0 0
184 1 1.5621079271082379 20.4485214430805 4.710541963122425 0 0 0
185 1 3.135885500718637 18.87456347127868 3.136984069646486 0 0 0
186 1 4.709663093747547 20.448521472893052 4.710541950259362 0 0 0
187 1 6.283440925005276 18.874563063080902 3.1369843064118594 0 0 0
188 1 7.857218250032222 20.448521296954578 4.7105419130019754 0 0 0
189 1 9.43099583249169 18.874564425951178 3.1369831025112545 0 0 0
190 1 11.004773549468823 20.448521128811556 4.710542257305551 0 0 0
191 1 12.578551118993861 18.874565141654326 3.1369824232140484 0 0 0
192 1 14.152328700393811 20.44852140275032 4.710541953948861 0 0 0
193 1 15.726106158564342 18.874563383356666 3.1369842290514227 0 0 0
194 1 17.29988390118877 20.448521462832616 4.710541951248934 0 0 0
195 1 18.87366146963235 18.874563443058037 3.1369840796518838 0 0 0
196 1 20.447439074806702 20.448521444913595 4.710541963020831 0 0 0
197 1 -0.011669670060759701 -0.012932435289210675 6.284099847078178 0 0 0
198 1 1.5621079250212353 1.5610255547391845 7.857657730813754 0 0 0
199 1 3.1358855228607676 -0.01293243697242859 6.284099847171109 0 0 0
200 1 4.7096630723803266 1.5610255194323874 7.857657739528003 0 0 0
201 1 6.2834407348703705 -0.012932423931908877 6.284099852811294 0 0 0
202 1 7.857218626866326 1.561025998096106 7.857657659561882 0 0 0
203 1 9.4309957604884 22.022479336445624 6.284099701313896 0 -1 0
204 1 11.00477358259131 1.5610137925643335 7.857657623995885 0 0 0
205 1 12.578551233168707 22.022479282931698 6.284099692145889 0 -1 0
206 1 14.152328309730935 1.561025304231418 7.857657687735823 0 0 0
207 1 15.726106273114326 22.02247943391315 6.2840998499102865 0 -1 0
208 1 17.29988390480539 1.5610255396431838 7.857657736145538 0 0 0
209 1 18.87366147583878 -0.01293243572433492 6.284099847225656 0 0 0
210 1 20.447439078589284 1.5610255520019156 7.8576577311029 0 0 0
211 1 -0.011669669599298929 3.13498354744518 6.284099847331322 0 0 0
212 1 1.562107868570573 4.708941475434241 7.857657745812612 0 0 0
213 1 3.135885514667574 3.134983536312209 6.28409985665764 0 0 0
214 1 4.709663352524474 4.70894190539876 7.857658118103657 0 0 0
215 1 6.283440882164687 3.13498379444809 6.284099941729537 0 0 0
216 1 7.857240465163458 4.708964578650397 7.857652489479204 0 0 0
217 1 9.430988725550089 3.1349719563914134 6.2840929549930635 0 0 0
218 1 11.004775649957274 4.7080712230364075 7.857646086984573 0 0 0
219 1 12.578557796629404 3.1349730707239027 6.284092742146254 0 0 0
220 1 14.15230723687705 4.708914429002282 7.857657757848197 0 0 0
221 1 15.726106601120788 3.1349824531065638 6.284099472458393 0 0 0
222 1 17.29988126697987 4.708943778666803 7.857657972792277 0 0 0
223 1 18.873661396192137 3.134983631629929 6.284099874183562 0 0 0
224 1 20.44743901870907 4.708941581994136 7.857657721976496 0 0 0
225 1 -0.011669665702779265 6.2828995463814294 6.284099848525077 0 0 0
226 1 1.5621085841815954 7.8568579350880015 7.85765755416831 0 0 0
227 1 3.1358847865605637 6.2828987599077 6.284099951129307 0 0 0
228 1 4.709693092412456 7.8568904551407135 7.857642489365642 0 0 0
229 1 6.283444242277932 6.282907135029393 6.2840924861339555 0 0 0
230 1 7.8570468779255815 7.8569146917771695 7.857075969894404 0 0 0
231 1 9.430650790609459 6.282562132588414 6.283928423924447 0 0 0
232 1 11.003280392673393 7.807764227138131 7.834834527825141 0 0 0
233 1 12.57888949805379 6.282627298577944 6.284163345727876 0 0 0
234 1 14.154166306169914 7.853946701766467 7.85754516585054 0 0 0
235 1 15.726154950939794 6.282851265246369 6.2840548503620886 0 0 0
236 1 17.299929861945277 7.856841967689573 7.857658912392213 0 0 0
237 1 18.87366198666827 6.282899770431389 6.284099309377693 0 0 0
238 1 20.44743953083643 7.856857856341523 7.857657816297847 0 0 0
239 1 -0.011669397586454413 9.430815351051226 6.284099705603533 0 0 0
240 1 1.5620961570138554 11.004773686234815 7.857657383340764 0 0 0
241 1 3.135885055209804 9.430807284115312 6.284092854816412 0 0 0
242 1 4.708763808891853 11.004777499858601 7.857634269107972 0 0 0
243 1 6.2839387777341225 9.430789819951249 6.283929082115318 0 0 0
244 1 7.806253555079169 11.003939251200302 7.8354145672964455 0 0 0
245 1 9.421187782527538 9.414944353678294 6.277365088062644 0 0 0
246 1 11.026017351580151 11.003372877682787 7.790585981653256 0 0 0
247 1 12.582617807920697 9.40889353902055 6.260408342946469 0 0 0
248 1 14.181255418957875 11.010693246226136 7.864237413932529 0 0 0
249 1 15.726657035647419 9.430440857244786 6.283828592152817 0 0 0
250 1 17.30052767105549 11.004755282130255 7.857617131808266 0 0 0
251 1 18.873678070998096 9.430809061370985 6.284093791982799 0 0 0
252 1 20.447447938239343 11.004773790285697 7.857657780734218 0 0 0
253 1 -0.011669595470721722 12.578731638733723 6.284099702009556 0 0 0
254 1 1.562108586442069 14.152688881086284 7.857657557906317 0 0 0
255 1 3.1358952060786747 12.578739275205361 6.284092915126934 0 0 0
256 1 4.7096799589012255 14.152653044581378 7.8576425328072546 0 0 0
257 1 6.284632209226106 12.578732274242101 6.284344588405545 0 0 0
258 1 7.856125292732838 14.153254292518636 7.857030143013077 0 0 0
259 1 9.414209944725934 12.595703022161272 6.264629147020167 0 0 0
260 1 11.005395792250155 14.18543400576836 7.855123830727945 0 0 0
261 1 12.590112104698408 12.603201498284848 6.25650482091078 0 0 0
262 1 14.153330177216489 14.153088030709648 7.857672629782189 0 0 0
263 1 15.725204388580645 12.578420953108004 6.284513981493741 0 0 0
264 1 17.29988975252562 14.152675610436594 7.857654975490563 0 0 0
265 1 18.873654884433886 12.578736394500043 6.2840944971632675 0 0 0
266 1 20.447438661134846 14.152688855896887 7.857657750141262 0 0 0
267 1 -0.011669664258566274 15.726647466970544 6.2840998512790005 0 0 0
268 1 1.5621078718735748 17.300605522091864 7.857657740539178 0 0 0
269 1 3.135884316820246 15.72664849750416 6.284099767947413 0 0 0
270 1 4.709664105237903 17.300604220035535 7.85765813462315 0 0 0
271 1 6.283434104764826 15.726656943961732 6.284080067943652 0 0 0
272 1 7.857228638274785 17.300606005103543 7.857660310268525 0 0 0
273 1 9.431143378803702 15.726341920419308 6.284236541994668 0 0 0
274 1 11.004777625451405 17.301291773435135 7.857656092952232 0 0 0
275 1 12.578474076677434 15.726012893927814 6.284287386983313 0 0 0
276 1 14.152310706688251 17.30059708172207 7.857664442904085 0 0 0
277 1 15.726118922805847 15.726657233813828 6.284094065508521 0 0 0
278 1 17.299882933301735 17.300604588588907 7.857658249635787 0 0 0
279 1 18.873662982295954 15.72664868652936 6.284099659297576 0 0 0
280 1 20.44743908406048 17.300605475737612 7.857657735498503 0 0 0
281 1 -0.011669670874872376 18.874563450306457 6.284099847156751 0 0 0
282 1 1.5621079237852238 20.448521446767938 7.857657730704036 0 0 0
283 1 3.135885537724485 18.8745634341737 6.284099863195716 0 0 0
284 1 4.709663105455931 20.44852144777522 7.857657732220288 0 0 0
285 1 6.2834399147476905 18.874564455449104 6.284099665182362 0 0 0
286 1 7.857218866879193 20.448520976609153 7.857657767919469 0 0 0
287 1 9.430989768375955 18.874566012086916 6.284093402384773 0 0 0
288 1 11.004773591118258 20.448530682046034 7.857657824754832 0 0 0
289 1 12.578556806045318 18.874561487321177 6.284093099033625 0 0 0
290 1 14.15232803529338 20.44852077637984 7.857657775466329 0 0 0
291 1 15.726107275482656 18.87456470970914 6.284099877331961 0 0 0
292 1 17.29988390612867 20.448521467140743 7.8576577357840005 0 0 0
293 1 18.873661449256257 18.8745634248061 6.284099853643402 0 0 0
294 1 20.447439076099123 20.448521446067797 7.857657730805406 0 0 0
295 1 -0.011669669954700148 -0.012932435347146427 9.431215615775411 0 0 0
296 1 1.5621079257508792 1.5610255557316208 11.004773500543926 0 0 0
297 1 3.1358855220423565 22.022479434495512 9.43121561598297 0 -1 0
298 1 4.709663138162545 1.5610255813738 11.004773489359195 0 0 0
299 1 6.2834407375505785 -0.0129324086717407 9.431215609307362 0 0 0
300 1 7.857218114695143 1.561025222886595 11.004773711650069 0 0 0
301 1 9.43099574965794 22.02247915418672 9.431215751131969 0 -1 0
302 1 11.004773533272036 1.5610250927947598 11.00477353033453 0 0 0
303 1 12.578551239931034 22.022479124659135 9.431215758480045 0 -1 0
304 1 14.152328833103542 1.5610252462294907 11.004773650032801 0 0 0
305 1 15.726106274324614 -0.012932433090645385 9.43121561206829 0 0 0
306 1 17.299883881436802 1.5610255502601 11.004773506491643 0 0 0
307 1 18.873661476826477 -0.012932436377340756 9.43121561588333 0 0 0
308 1 20.447439073543396 1.5610255562446982 11.00477349979369 0 0 0
309 1 22.02121666810827 3.1349835469028244 9.431215615737061 -1 0 0
310 1 1.5621079536486198 4.708941560199214 11.004773487233336 0 0 0
311 1 3.135885414398477 3.1349834413515456 9.431215609556192 0 0 0
312 1 4.709663183303888 4.708941582897569 11.004773070283642 0 0 0
313 1 6.2834414509338865 3.1349846824711305 9.431215336685833 0 0 0
314 1 7.857208325000076 4.708925999315206 11.00478551837794 0 0 0
315 1 9.430989027836459 3.134962911395352 9.431222342274033 0 0 0
316 1 11.004777740966611 4.708915546737949 11.00476943615245 0 0 0
317 1 12.578557307824795 3.134969308835081 9.431222555151733 0 0 0
318 1 14.152333796580947 4.708927201311096 11.004778100113155 0 0 0
319 1 15.726106225874393 3.1349830706842825 9.431215785019674 0 0 0
320 1 17.299884407117105 4.708941169210658 11.004774243964022 0 0 0
321 1 18.87366143986564 3.1349835753760327 9.431215599491512 0 0 0
322 1 20.447439105221278 4.708941516762412 11.004773518930548 0 0 0
323 1 -0.011669621283074756 6.282899554002164 9.431215612757127 0 0 0
324 1 1.5621075833161606 7.856857298779791 11.004773720200602 0 0 0
325 1 3.1358868403068842 6.282900426116031 9.43121516450739 0 0 0
326 1 4.709647867086533 7.856847295359861 11.004785065535543 0 0 0
327 1 6.283492546880937 6.282951102572034 9.431211771177333 0 0 0
328 1 7.856825952462143 7.856469897604928 11.005175410241408 0 0 0
329 1 9.430722699025207 6.28189536419387 9.431501659572422 0 0 0
330 1 11.004661752283972 7.854534808755999 11.008428306323157 0 0 0
331 1 12.57873774056234 6.282403319942671 9.43143549765867 0 0 0
332 1 14.15275281998176 7.85607726577146 11.005323700451335 0 0 0
333 1 15.726131696952235 6.28287737094218 9.431255380402156 0 0 0
334 1 17.299888251328976 7.856858596266823 11.004771619845837 0 0 0
335 1 18.873662979805903 6.282898636917174 9.431216235812494 0 0 0
336 1 20.447439151969885 7.856857417465696 11.004773595695502 0 0 0
337 1 22.021216512878627 9.430815369311528 9.431215755835309 -1 0 0
338 1 1.562107420162862 11.004773585653364 11.004773644328887 0 0 0
339 1 3.135863423919077 9.430807895077526 9.431223211920122 0 0 0
340 1 4.709643092091503 11.00478250072618 11.004762881075447 0 0 0
341 1 6.2824352079692405 9.430543618871653 9.431525745164494 0 0 0
342 1 7.854977559591748 11.004897583031866 11.008145726783123 0 0 0
343 1 9.383462859064638 9.382979320293781 9.475769270543497 0 0 0
344 1 11.007755038146149 10.98490398588228 11.05659671660864 0 0 0
345 1 12.6243005015935 9.418078137947209 9.472673291794369 0 0 0
346 1 14.151758797139449 11.005105679361634 11.003745362828754 0 0 0
347 1 15.726375071068329 9.430853101592707 9.430799331283573 0 0 0
348 1 17.299863074184376 11.00478212360722 11.004758044574714 0 0 0
349 1 18.873671124827307 9.430810173815981 9.431220669023048 0 0 0
350 1 20.44743870664039 11.00477363057403 11.004773385534067 0 0 0
351 1 22.021216430078603 12.578731625612772 9.431215760780638 -1 0 0
352 1 1.5621078840285911 14.152689593404526 11.004773622328386 0 0 0
353 1 3.135874006219084 12.578738381043374 9.431223471449124 0 0 0
354 1 4.709661707105525 14.152689999719328 11.00477509583401 0 0 0
355 1 6.283127380190588 12.57896357273731 9.431104329691262 0 0 0
356 1 7.857098745586809 14.152822104670234 11.004883980444557 0 0 0
357 1 9.379974459366421 12.64278476457374 9.465718375582224 0 0 0
358 1 11.004946558866052 14.156038764882206 11.007036474500136 0 0 0
359 1 12.632070935007565 12.605590930833214 9.449930904176432 0 0 0
360 1 14.152176178213479 14.152945862889293 11.004815605440628 0 0 0
361 1 15.725472700815299 12.57843261796306 9.430569866908796 0 0 0
362 1 17.2998674540198 14.152675333587434 11.004758741551441 0 0 0
363 1 18.873655906679144 12.578735804462122 9.431220466496297 0 0 0
364 1 20.447438686971193 14.152689435219528 11.004773449448658 0 0 0
365 1 -0.011669644868608258 15.726647453483576 9.431215608914943 0 0 0
366 1 1.562107928112999 17.30060546275429 11.004773497864855 0 0 0
367 1 3.1358860194869473 15.726647183597548 9.431215350148275 0 0 0
368 1 4.709662789058603 17.300606010098683 11.004773426712868 0 0 0
369 1 6.283483618653825 15.726614648153623 9.43122686850921 0 0 0
370 1 7.857230234594668 17.30059554981942 11.004763674587826 0 0 0
371 1 9.43145387123897 15.726337093856175 9.431057969038108 0 0 0
372 1 11.004778736595197 17.300650696550257 11.004768039183114 0 0 0
373 1 12.578084577742482 15.725650553789382 9.431101137831742 0 0 0
374 1 14.152312095406009 17.30059296012487 11.004758555021354 0 0 0
375 1 15.726076813765411 15.726621596047023 9.431230170935738 0 0 0
376 1 17.299884099588336 17.30060567412014 11.004773464815546 0 0 0
377 1 18.873662580763252 15.726648673025426 9.431215874734969 0 0 0
378 1 20.447439109364524 17.30060549661971 11.00477351300976 0 0 0
379 1 -0.011669672594907447 18.874563452228674 9.4312156160343 0 0 0
380 1 1.5621079260970228 20.448521443786795 11.0047735005002 0 0 0
381 1 3.1358854292367413 18.874563535962036 9.431215604452259 0 0 0
382 1 4.709663088461331 20.448521476456385 11.004773513159734 0 0 0
383 1 6.283439520901771 18.87456459987546 9.431215835414806 0 0 0
384 1 7.857218327450082 20.448521166847854 11.004773494553476 0 0 0
385 1 9.43098965609713 18.874564104024543 9.431221065122983 0 0 0
386 1 11.004773549665142 20.448521779215564 11.004773113932655 0 0 0
387 1 12.578556951584805 18.874555808930314 9.43122142508863 0 0 0
388 1 14.15232861696039 20.448521122387383 11.004773441701351 0 0 0
389 1 15.72610744447347 18.874564553309458 9.43121575015102 0 0 0
390 1 17.299883913540853 20.44852147614431 11.004773511508102 0 0 0
391 1 18.873661539695618 18.874563515721142 9.431215610476583 0 0 0
392 1 20.447439074277078 20.448521444386106 11.004773500448277 0 0 0
393 1 -0.011669670164684091 -0.012932435265513386 12.578331384279206 0 0 0
394 1 1.5621079254973622 1.5610255554458106 14.151889268656875 0 0 0
395 1 3.1358855209857555 -0.012932434159050156 12.57833138438828 0 0 0
396 1 4.709663117375894 1.5610255568567761 14.151889269529837 0 0 0
397 1 6.283440715017073 22.02247942214477 12.578331383955799 0 -1 0
398 1 7.857218300840194 1.561025545152682 14.15188926742834 0 0 0
399 1 9.430995902721396 -0.012932414535187998 12.578331379435914 0 0 0
400 1 11.00477349595928 1.5610255847443724 14.151889277524413 0 0 0
401 1 12.578551098484564 -0.012932414648021046 12.578331384207912 0 0 0
402 1 14.15232870275185 1.5610255391645933 14.151889274495277 0 0 0
403 1 15.726106283438266 22.022479422367486 12.578331382604423 0 -1 0
404 1 17.299883883226933 1.561025554439398 14.151889269483176 0 0 0
405 1 18.873661479395622 -0.012932434661176719 12.578331384692001 0 0 0
406 1 20.447439074552193 1.561025555620866 14.151889268682151 0 0 0
407 1 -0.011669669448679316 3.1349835462912137 12.57833138442869 0 0 0
408 1 1.562107927237167 4.708941537358386 14.151889269330372 0 0 0
409 1 3.1358855165949 3.1349835412818954 12.57833138437613 0 0 0
410 1 4.709663156699642 4.708941582598249 14.151889187494001 0 0 0
411 1 6.283440561402083 3.134983406052173 12.578331584737322 0 0 0
412 1 7.857217760854723 4.708940544175244 14.151890594784811 0 0 0
413 1 9.430995718549182 3.134983123310383 12.578331517994096 0 0 0
414 1 11.004773042702215 4.708946017041181 14.151885333947238 0 0 0
415 1 12.578551346055377 3.1349826780206853 12.578331598411387 0 0 0
416 1 14.152329510230963 4.70894083337847 14.151890121918257 0 0 0
417 1 15.726106374074126 3.1349834050387444 12.578331492433971 0 0 0
418 1 17.299884020522374 4.7089414167106325 14.151889394599959 0 0 0
419 1 18.873661482691027 3.1349835446622296 12.578331394702015 0 0 0
420 1 20.44743907524768 4.708941537294086 14.151889268180874 0 0 0
421 1 22.021216669077308 6.2828995246907935 12.57833138797667 -1 0 0
422 1 1.5621079094923516 7.856857510885368 14.151889272842528 0 0 0
423 1 3.1358853985114337 6.282899379967408 12.578331556357773 0 0 0
424 1 4.7096622372 7.856857050451483 14.151890526878713 0 0 0
425 1 6.28343801923214 6.2828970366915975 12.578332798737803 0 0 0
426 1 7.857233893563479 7.856872518622636 14.151877615983379 0 0 0
427 1 9.430945601100621 6.282903007466598 12.578331640662837 0 0 0
428 1 11.00476824656342 7.856914535041498 14.151888864262496 0 0 0
429 1 12.57859318402219 6.282867164255103 12.578362553930285 0 0 0
430 1 14.152319903633789 7.856862264334199 14.151890396415821 0 0 0
431 1 15.726116216861818 6.282889926765592 12.578341711823667 0 0 0
432 1 17.299883405492903 7.856858153792144 14.151888893594064 0 0 0
433 1 18.873661572744073 6.282899526212783 12.57833134544674 0 0 0
434 1 20.44743907148577 7.856857516767989 14.151889273697792 0 0 0
435 1 22.021216661931554 9.43081551399996 12.57833138209098 -1 0 0
436 1 1.5621079444235757 11.004773492697845 14.151889291033138 0 0 0
437 1 3.135885107384278 9.430815408805723 12.5783315192231 0 0 0
438 1 4.709667480563352 11.004773355002191 14.151885145857534 0 0 0