LAMMPS data file via write_data, version 2 Aug 2023, timestep = 120, units = metal

690 atoms
3 atom types

-0.005252349225234072 22.014799346081006 xlo xhi
-0.0038947486628007504 22.01344174551857 ylo yhi
-0.006665042783386118 22.01621203963917 zlo zhi

Masses

1 183.84
2 1.008
3 4.0026

Atoms # atomic

1 1 -0.005252346299754578 -0.0038947457446679664 -0.006665039842640609 0 0 0
2 1 1.5676084892233637 1.5687721468470026 1.566397609002762 0 0 0
3 1 3.1404693243298145 -0.0038947457509661597 -0.006665039742064722 0 0 0
4 1 4.713330162465577 1.5687721513446804 1.5663976119615588 0 0 0
5 1 6.2861909948004 -0.003894745763893548 -0.006665039431083271 0 0 0
6 1 7.85905183554519 1.5687721631431077 1.5663976188201791 0 0 0
7 1 9.431912664547033 -0.0038947457324300045 -0.006665039038141922 0 0 0
8 1 11.004773499578612 1.56877215290127 1.5663976141472171 0 0 0
9 1 12.577634335363626 -0.0038947459240622484 -0.0066650387506988025 0 0 0
10 1 14.150495164939525 1.5687721626784847 1.5663976187016233 0 0 0
11 1 15.723356005319328 -0.003894745671362849 -0.006665039510159381 0 0 0
12 1 17.296216837503774 1.5687721513805715 1.5663976120429859 0 0 0
13 1 18.869077675714077 -0.003894745784172222 -0.00666503971645863 0 0 0
14 1 20.441938510899742 1.568772146876158 1.5663976090233218 0 0 0
15 1 -0.00525234630328807 3.1414390390099114 -0.0066650397553927165 0 0 0
16 1 1.5676084935418817 4.714105934350467 1.5663976118441971 0 0 0
17 1 3.1404693263028465 3.141439041018421 -0.0066650377345654705 0 0 0
18 1 4.7133302984105905 4.714106074242126 1.5663977472084207 0 0 0
19 1 6.28619100291468 3.1414390505825573 -0.0066650280821816685 0 0 0
20 1 7.859052479389833 4.714106357314013 1.5663980254388172 0 0 0
21 1 9.431912660623308 3.141439029507228 22.016212033312986 0 0 -1
22 1 11.004773456258011 4.7141051552499675 1.5663968190610402 0 0 0
23 1 12.577634338854068 3.1414390319210628 22.01621203578232 0 0 -1
24 1 14.150494567824268 4.714106303373706 1.5663979651009665 0 0 0
25 1 15.72335599765074 3.1414390502299163 -0.006665028499283416 0 0 0
26 1 17.29621669568344 4.71410608069916 1.5663977551785009 0 0 0
27 1 18.86907767370917 3.141439041084931 -0.0066650376508359255 0 0 0
28 1 20.441938506257916 4.714105934678893 1.5663976121415049 0 0 0
29 1 -0.005252346275209084 6.286772823184628 -0.006665040102768653 0 0 0
30 1 1.5676084890547346 7.859439714832164 1.5663976051471973 0 0 0
31 1 3.1404693258341654 6.286772827103584 -0.006665037731283768 0 0 0
32 1 4.713330133527638 7.85944029521391 1.5663975918487616 0 0 0
33 1 6.28619110433714 6.286772960634759 -0.006664830928431367 0 0 0
34 1 7.859056998086898 7.859445523771906 1.566405737176116 0 0 0
35 1 9.431912940515765 6.2867728221414545 -0.006664496449263769 0 0 0
36 1 11.004774037072323 7.859459968567413 1.5664310313771335 0 0 0
37 1 12.577634071736856 6.2867727777210405 -0.006664577017752215 0 0 0
38 1 14.150489463469428 7.85944600253971 1.566406749442664 0 0 0
39 1 15.723355883713776 6.286772970115328 -0.006664812437291606 0 0 0
40 1 17.296216908641803 7.859440280788824 1.5663975662668854 0 0 0
41 1 18.86907767430055 6.2867728270351035 -0.006665037633006772 0 0 0
42 1 20.441938513684192 7.859439713183792 1.5663976033849754 0 0 0
43 1 -0.00525234654820026 9.432106606746293 -0.006665038775552489 0 0 0
44 1 1.5676084100017065 11.004773500813222 1.566397529848264 0 0 0
45 1 3.1404692675719597 9.432106606906753 22.016211985062668 0 0 -1
46 1 4.713329249814727 11.004773578011408 1.5663968993673862 0 0 0
47 1 6.28619053535643 9.432106879871577 -0.006665005138007274 0 0 0
48 1 7.859070954691045 11.004772994421309 1.5664286651879915 0 0 0
49 1 9.431912995050475 9.43210726998325 -0.0066566020211158376 0 0 0
50 1 11.004770647731485 11.004768333844568 1.5665285513656455 0 0 0
51 1 12.577633931172382 9.432107372139585 -0.006655679605160756 0 0 0
52 1 14.150478860737042 11.004768978699703 1.5664266838326881 0 0 0
53 1 15.723356548513406 9.43210683497552 22.016211983816554 0 0 -1
54 1 17.296217749366985 11.004773754841318 1.5663968527676917 0 0 0
55 1 18.86907772957995 9.432106606672344 22.016211987365736 0 0 -1
56 1 20.441938565756043 11.004773507320882 1.5663975534146408 0 0 0
57 1 -0.005252345682061044 12.577440393364936 -0.006665039526567891 0 0 0
58 1 1.5676084914348427 14.150107284039324 1.5663976065600758 0 0 0
59 1 3.1404692554485907 12.577440394363727 22.016211973243667 0 0 -1
60 1 4.713330292019335 14.15010661089587 1.5663977525659756 0 0 0
61 1 6.286190542558154 12.577440099622851 -0.006664940040057132 0 0 0
62 1 7.8590561268786825 14.150102029916876 1.5664036012708717 0 0 0
63 1 9.431913344028661 12.577439673754675 -0.006657196275233396 0 0 0
64 1 11.004769977660208 14.150092297598528 1.5664260171681799 0 0 0
65 1 12.577633885213752 12.577439707355678 -0.006663016806720891 0 0 0
66 1 14.15049426262044 14.150105632949494 1.5664019227596688 0 0 0
67 1 15.723356138745357 12.577440106801818 -0.006664490101496057 0 0 0
68 1 17.296216983445092 14.150106461427686 1.566397490692976 0 0 0
69 1 18.86907777271725 12.577440391763194 22.016211947130763 0 0 -1
70 1 20.441938506060858 14.150107279127091 1.5663976118192102 0 0 0
71 1 -0.0052523463001255 15.72277417670352 -0.006665039977247747 0 0 0
72 1 1.5676084930196548 17.295441065972266 1.5663976115219087 0 0 0
73 1 3.140469327847734 15.722774171419088 -0.006665035659265499 0 0 0
74 1 4.7133302759261255 17.29544094727838 1.5663977239757527 0 0 0
75 1 6.286191080785588 15.722774060559201 -0.006664872794491267 0 0 0
76 1 7.859052536658108 17.295440531435755 1.5663981472935817 0 0 0
77 1 9.431912874502348 15.722774225552843 -0.006664523611181392 0 0 0
78 1 11.004773747646684 17.295441841271618 1.5663971460329136 0 0 0
79 1 12.577634083368823 15.722774030207516 -0.006664121344923802 0 0 0
80 1 14.150494261878594 17.295440744526793 1.5663980546773961 0 0 0
81 1 15.723355957999967 15.722774090011507 -0.0066648800425692205 0 0 0
82 1 17.296216677259714 17.295440898605985 1.5663977604683141 0 0 0
83 1 18.869077676995584 15.722774174711038 -0.006665040468310336 0 0 0
84 1 20.441938506164163 17.295441065885928 1.5663976117218563 0 0 0
85 1 -0.005252346315470465 18.86810796107349 -0.006665039761389503 0 0 0
86 1 1.5676084892350686 20.44077485330021 1.5663976090045795 0 0 0
87 1 3.1404693260228957 18.868107959318202 -0.006665038027960696 0 0 0
88 1 4.713330163025475 20.440774848464446 1.5663976125274244 0 0 0
89 1 6.286191004511477 18.868107948422463 -0.006665026251264232 0 0 0
90 1 7.859051836628955 20.440774834501752 1.5663976195239264 0 0 0
91 1 9.431912663639622 18.868107970284694 22.016212035559526 0 0 -1
92 1 11.004773493746606 20.44077487034714 1.566397589207169 0 0 0
93 1 12.577634336644678 18.86810798703848 22.016212011182127 0 0 -1
94 1 14.15049517147183 20.440774842157452 1.5663976131835988 0 0 0
95 1 15.723355995922557 18.86810794893837 -0.006665024910475617 0 0 0
96 1 17.296216835065124 20.440774845853685 1.5663976143005263 0 0 0
97 1 18.869077673334722 18.868107958585743 -0.0066650373820814355 0 0 0
98 1 20.441938510974843 20.4407748533847 1.5663976089199227 0 0 0
99 1 -0.005252346296974705 -0.0038947457427117188 3.1394602574183472 0 0 0
100 1 1.5676084895753395 1.5687721472082428 4.712522906105913 0 0 0
101 1 3.1404693247572477 -0.0038947457584619645 3.1394602578043393 0 0 0
102 1 4.713330171700532 1.5687721676335413 4.712522914220698 0 0 0
103 1 6.286190998954539 -0.0038947455905806857 3.139460261896663 0 0 0
104 1 7.859051922791686 1.5687723945370886 4.712522997681853 0 0 0
105 1 9.43191267274301 22.013441744017864 3.139460271608589 0 -1 0
106 1 11.004773504255395 1.5687726940621938 4.712523016764621 0 0 0
107 1 12.577634328788916 -0.003894745919661991 3.1394602719037876 0 0 0
108 1 14.150495074832293 1.5687723982464137 4.712523002566928 0 0 0
109 1 15.723355999436926 22.013441745421105 3.1394602633891404 0 -1 0
110 1 17.29621682644232 1.5687721712820866 4.712522915983145 0 0 0
111 1 18.869077675402096 -0.003894745495727463 3.1394602576776287 0 0 0
112 1 20.441938510621366 1.568772147163484 4.712522906020711 0 0 0
113 1 -0.005252346349746167 3.1414390394790352 3.1394602578403434 0 0 0
114 1 1.5676085118628376 4.714105944843688 4.712522916101595 0 0 0
115 1 3.140469337913065 3.1414390531107474 3.1394602680681722 0 0 0
116 1 4.713330786867521 4.7141065762350625 4.7125234790938855 0 0 0
117 1 6.286191146622101 3.1414392950427352 3.1394604080868613 0 0 0
118 1 7.859058182206762 4.714115474605694 4.71252891239831 0 0 0
119 1 9.431912954112288 3.1414396098577844 3.1394602475991396 0 0 0
120 1 11.004773842097485 4.714139475160891 4.712542800441853 0 0 0
121 1 12.577634048066262 3.141439552973902 3.139460225792345 0 0 0
122 1 14.150488598023887 4.71411555038005 4.712528492332844 0 0 0
123 1 15.723355853118205 3.1414393022170186 3.1394604105815533 0 0 0
124 1 17.296216102171147 4.714106706767688 4.712523589392848 0 0 0
125 1 18.869077660369047 3.1414390552390667 3.1394602697469316 0 0 0
126 1 20.44193848551149 4.714105946362502 4.712522917170429 0 0 0
127 1 -0.005252347414928313 6.286772826672125 3.1394602603023025 0 0 0
128 1 1.5676086102000404 7.859439707746823 4.7125228691124565 0 0 0
129 1 3.1404695655131603 6.28677299160611 3.1394603991481747 0 0 0
130 1 4.713338472458427 7.85944555129433 4.712527801177864 0 0 0
131 1 6.286198202861875 6.286780109345649 3.13946734935086 0 0 0
132 1 7.85938312604911 7.8597799462305415 4.712864720018058 0 0 0
133 1 9.431926663521446 6.286822832867142 3.139510464030901 0 0 0
134 1 11.004793204345319 7.860584896149555 4.713671925990255 0 0 0
135 1 12.577620673388804 6.286817092498947 3.139504600112448 0 0 0
136 1 14.150122576760676 7.859820102091574 4.712905782410898 0 0 0
137 1 15.723348217427976 6.2867806450256785 3.1394679760809763 0 0 0
138 1 17.296206477433817 7.859447384606489 4.712529316126352 0 0 0
139 1 18.869077403299194 6.286773017557491 3.1394604251695686 0 0 0
140 1 20.44193830720855 7.859439762670221 4.712522924901486 0 0 0
141 1 -0.005252341419205414 9.432106616057522 3.1394602690028783 0 0 0
142 1 1.5676093107313327 11.004773493368232 4.712523083288452 0 0 0
143 1 3.1404692868408945 9.432107170249916 3.139459609117398 0 0 0
144 1 4.713397752651831 11.004772778295287 4.712577861527388 0 0 0
145 1 6.286235384833319 9.43211896039724 3.139500824229344 0 0 0
146 1 7.860139679555555 11.004722660724461 4.713589924475676 0 0 0
147 1 9.432021220783462 9.432214349326696 3.1401304655583004 0 0 0
148 1 11.004831363919557 11.004456692039929 4.707003835765553 0 0 0
149 1 12.577522900324153 9.432227166141843 3.140196779479463 0 0 0
150 1 14.149432384813457 11.004564649623651 4.71366731069653 0 0 0
151 1 15.723315630748054 9.432118645515107 3.1394979701089354 0 0 0
152 1 17.29616249694207 11.004771890458848 4.712565064391127 0 0 0
153 1 18.86907786528971 9.43210704127873 3.1394595148913074 0 0 0
154 1 20.441937823443 11.004773471130227 4.7125230378245355 0 0 0
155 1 -0.0052523485987270215 12.577440382968962 3.139460270169878 0 0 0
156 1 1.5676085878721253 14.150107298257089 4.712522863054748 0 0 0
157 1 3.140469412085137 12.577439811677193 3.1394596703800888 0 0 0
158 1 4.713336558550372 14.150102182260408 4.712527199306511 0 0 0
159 1 6.286246106669753 12.577426995683762 3.139511369939723 0 0 0
160 1 7.8592911638046905 14.149863921352964 4.712775088589109 0 0 0
161 1 9.43204382894866 12.577334721566022 3.1400730151598233 0 0 0
162 1 11.004655684439689 14.14902000390652 4.7137630681384035 0 0 0
163 1 12.577524400822886 12.577338482241352 3.1396029046639895 0 0 0
164 1 14.15036101793727 14.149839590605469 4.712941114154099 0 0 0
165 1 15.723282531175087 12.577426426490119 3.139531917876083 0 0 0
166 1 17.29621150954241 14.150102856990019 4.712527883339848 0 0 0
167 1 18.86907712287003 12.57743990991135 3.139460050631553 0 0 0
168 1 20.44193838389257 14.150107259405592 4.712522912297404 0 0 0
169 1 -0.005252346937291079 15.72277417415337 3.1394602595226617 0 0 0
170 1 1.5676085119418852 17.295441055767114 4.712522915784921 0 0 0
171 1 3.140469528426465 15.722774026401586 3.139460380230033 0 0 0
172 1 4.713330808363043 17.295440418364645 4.712523483744818 0 0 0
173 1 6.286196599049127 15.722768478859072 3.139465702428808 0 0 0
174 1 7.859058534600611 17.29543259887878 4.712529309286113 0 0 0
175 1 9.431927301989544 15.722717744557524 3.1395138593686656 0 0 0
176 1 11.004778580324096 17.29537174359045 4.712580448882682 0 0 0
177 1 12.577621171099878 15.72269196266656 3.139542759900283 0 0 0
178 1 14.15048280977921 17.295426165957576 4.712536005250868 0 0 0
179 1 15.723348835061142 15.722766659334072 3.1394668732879114 0 0 0
180 1 17.29621670934161 17.295441041443638 4.7125229438069836 0 0 0
181 1 18.869077439978746 15.722774052260526 3.1394603680961692 0 0 0
182 1 20.441938501903582 17.295441062253023 4.712522907862302 0 0 0
183 1 -0.005252346123136151 18.868107960766785 3.13946025767846 0 0 0
184 1 1.5676084896362437 20.440774852907506 4.7125229061520075 0 0 0
185 1 3.1404693385993943 18.868107947002564 3.139460268429944 0 0 0
186 1 4.7133301728727055 20.4407748306898 4.712522915600426 0 0 0
187 1 6.286191179513326 18.868107699655514 3.1394604387864966 0 0 0
188 1 7.85905185021032 20.44077467215996 4.712522921432657 0 0 0
189 1 9.431913308895918 18.868107361990624 3.1394601604672916 0 0 0
190 1 11.004773553176074 20.440773988119762 4.712523038128772 0 0 0
191 1 12.57763380009249 18.868108178774538 3.139459183464819 0 0 0
192 1 14.150495089359605 20.44077452376526 4.712522972315004 0 0 0
193 1 15.723355704449181 18.868107550904618 3.1394605471442314 0 0 0
194 1 17.296216835529474 20.440774846838842 4.712522904307936 0 0 0
195 1 18.86907766747764 18.868107955119577 3.139460260406688 0 0 0
196 1 20.44193851056262 20.440774852949186 4.712522906153314 0 0 0
197 1 -0.005252346291088011 -0.003894745737839746 6.285585554452401 0 0 0
198 1 1.567608490069936 1.568772147674394 7.858648202956008 0 0 0
199 1 3.1404693254145433 -0.003894745870320103 6.28558555460718 0 0 0
200 1 4.713330172440917 1.5687721710673048 7.858648203288209 0 0 0
201 1 6.286191007960967 22.013441744886574 6.285585561135332 0 -1 0
202 1 7.859051956613023 1.5687726854488862 7.85864819649231 0 0 0
203 1 9.431912635290677 -0.003894659942043236 6.285585522054869 0 0 0
204 1 11.004773508528794 1.5687745393512271 7.858648189718234 0 0 0
205 1 12.57763436488412 -0.0038947411339781716 6.285585519460954 0 0 0
206 1 14.150495037239489 1.5687728097682114 7.858648196605665 0 0 0
207 1 15.723355991931841 -0.0038947364149068318 6.2855855593219445 0 0 0
208 1 17.296216825625194 1.5687721671830217 7.858648203316267 0 0 0
209 1 18.86907767464166 -0.0038947459186037345 6.28558555452026 0 0 0
210 1 20.441938509778026 1.5687721479779912 7.858648202957028 0 0 0
211 1 -0.005252346268523859 3.1414390401328918 6.285585554489548 0 0 0
212 1 1.5676084980017906 4.714105929845516 7.858648203359749 0 0 0
213 1 3.1404693374922568 3.1414390540639614 6.28558555885239 0 0 0
214 1 4.713330116747766 4.714106115108684 7.858648272323475 0 0 0
215 1 6.286191272901807 3.141439826253219 6.28558581454493 0 0 0
216 1 7.859070766920029 4.714137326035754 7.858647532429987 0 0 0
217 1 9.431913685985412 3.141448823946615 6.285586378469978 0 0 0
218 1 11.004774323037033 4.714253533237067 7.858646899430279 0 0 0
219 1 12.577633389695336 3.1414493595991444 6.285586419375059 0 0 0
220 1 14.150474939965425 4.714145470782647 7.858647545385292 0 0 0
221 1 15.723355655587502 3.141440006818499 6.2855858875873905 0 0 0
222 1 17.296217653575308 4.714105353437426 7.858648275129072 0 0 0
223 1 18.869077666821436 3.1414390494142626 6.2855855506121205 0 0 0
224 1 20.44193850572464 4.714105933186478 7.85864820342587 0 0 0
225 1 -0.005252348288470375 6.286772838322835 6.285585562755381 0 0 0
226 1 1.5676092947392317 7.859439879644101 7.858648197033728 0 0 0
227 1 3.1404702229808374 6.286773134503911 6.285586086563078 0 0 0
228 1 4.71339794814121 7.859494673377592 7.858647532045054 0 0 0
229 1 6.286235961781181 6.286813730738122 6.285597974192351 0 0 0
230 1 7.8601445021141805 7.860504512343817 7.858601131526114 0 0 0
231 1 9.43203352875391 6.287454208295682 6.285704856553199 0 0 0
232 1 11.005207672378486 7.854721354420701 7.858464591543614 0 0 0
233 1 12.577518027802457 6.28749048860237 6.285703255292989 0 0 0
234 1 14.149068581354456 7.861046836996995 7.858601424691833 0 0 0
235 1 15.72330789334374 6.286819647134357 6.28560411942433 0 0 0
236 1 17.296145546797877 7.859494461526936 7.858647544710494 0 0 0
237 1 18.869076739553584 6.286773131876111 6.285586120715057 0 0 0
238 1 20.441937661382777 7.859439848860843 7.858648197114759 0 0 0
239 1 22.014799271866945 9.432106518612889 6.285585459871916 -1 0 0
240 1 1.5675975459520086 11.004773485246087 7.85864819002499 0 0 0
241 1 3.140472385000653 9.43209977458553 6.285577895902074 0 0 0
242 1 4.7124369667433905 11.00477213830061 7.8586469363554965 0 0 0
243 1 6.28707664826687 9.431972612111766 6.285451600748419 0 0 0
244 1 7.792359435142904 11.004661785581217 7.858558667873936 0 0 0
245 1 9.431216565189485 9.4255100058277 6.278875259045297 0 0 0
246 1 20.441938511113584 20.440774853496453 20.443149391368728 0 0 0
247 1 12.577817905624672 9.4289912190503 6.283354203370418 0 0 0
248 1 14.191815446907482 10.98750684247319 7.8584892886437405 0 0 0
249 1 15.722480960922338 9.432189346632684 6.285527663223882 0 0 0
250 1 17.296608370847306 11.004766049874783 7.858646918345551 0 0 0
251 1 18.869070767663597 9.43210358762549 6.285581614551672 0 0 0
252 1 20.44194308856796 11.004773438435599 7.858648190240222 0 0 0
253 1 22.01479931192069 12.577440475561742 6.285585458107434 -1 0 0
254 1 1.5676092543090363 14.150107135116873 7.858648196870002 0 0 0
255 1 3.1404713131891646 12.57744720631471 6.285577952170788 0 0 0
256 1 4.713394832163785 14.150053755923613 7.858647516199171 0 0 0
257 1 6.286994037871214 12.577577175137652 6.285449399167254 0 0 0
258 1 7.860027925228423 14.149136909841397 7.858601156852117 0 0 0
259 1 9.423789518350794 12.585731968339095 6.271649873938667 0 0 0
260 1 11.003040048233473 14.208652617034955 7.858586796421389 0 0 0
261 1 12.58541676717503 12.597195293281768 6.242466766723188 0 0 0
262 1 14.15133366330972 14.1517649682469 7.858604172799192 0 0 0
263 1 15.7227214063498 12.577478922793064 6.285563508246666 0 0 0
264 1 17.296198296181093 14.150078555291689 7.8586475243160585 0 0 0
265 1 18.869073616133605 12.577443323115789 6.285581819331339 0 0 0
266 1 20.441938311706096 14.150107216670918 7.858648196846547 0 0 0
267 1 -0.005252334838028008 15.722774167377706 6.28558555865877 0 0 0
268 1 1.5676085028218896 17.295441070687996 7.858648203310838 0 0 0
269 1 3.1404702027983653 15.722773885931684 6.285586069614707 0 0 0
270 1 4.713330600351028 17.2954406332214 7.858648267380108 0 0 0
271 1 6.286238059044717 15.722728320316408 6.285596773888095 0 0 0
272 1 7.859104602847096 17.29537728374644 7.858647509663219 0 0 0
273 1 9.431867404508685 15.721876804955635 6.285528986710521 0 0 0
274 1 11.004775995185295 17.296174849945572 7.858646909777735 0 0 0
275 1 12.57764830093319 15.721382115716409 6.2857869257925465 0 0 0
276 1 14.150441585373423 17.295411375763386 7.85864749365207 0 0 0
277 1 15.72333443853721 15.722751363701684 6.285565156876742 0 0 0
278 1 17.296213957173354 17.295438388540205 7.858648260854736 0 0 0
279 1 18.869077450416658 15.722774066448201 6.285585667995155 0 0 0
280 1 20.44193848786571 17.29544106849619 7.858648203180511 0 0 0
281 1 -0.005252346128004361 18.868107960134253 6.285585554634317 0 0 0
282 1 1.5676084900604694 20.44077485247595 7.858648202954962 0 0 0
283 1 3.140469340808905 18.868107944563675 6.2855855628780395 0 0 0
284 1 4.713330158831177 20.440774839180303 7.858648203349853 0 0 0
285 1 6.286191229973739 18.8681071371944 6.285586081342769 0 0 0
286 1 7.859051980872982 20.44077407967083 7.858648196547455 0 0 0
287 1 9.431906739980548 18.868103093484915 6.285579558603226 0 0 0
288 1 11.004773602577885 20.440783656981072 7.858648189279891 0 0 0
289 1 12.577639660240798 18.868096769450258 6.285579180248157 0 0 0
290 1 14.150494905057094 20.440774424227346 7.858648196293444 0 0 0
291 1 15.72335647292331 18.868108273305157 6.285585758405506 0 0 0
292 1 17.296216853393137 20.440774846805862 7.8586482034581415 0 0 0
293 1 18.869077659428445 18.868107943091957 6.285585577609624 0 0 0
294 1 20.44193851135756 20.440774853632742 7.858648202954754 0 0 0
295 1 -0.005252346291102018 -0.0038947457376026493 9.43171085147023 0 0 0
296 1 1.5676084895631233 1.5687721471969567 11.004773499824108 0 0 0
297 1 3.140469325409952 -0.0038947458654073302 9.43171085132262 0 0 0
298 1 4.7133301719596545 1.56877216857222 11.00477349108631 0 0 0
299 1 6.286191007779321 22.013441744853 9.431710844427851 0 -1 0
300 1 7.859051915894756 1.5687723699812146 11.004773414427325 0 0 0
301 1 9.43191263522142 -0.0038946598353546955 9.43171088304131 0 0 0
302 1 11.004773504360653 1.5687726547177665 11.004773402704535 0 0 0
303 1 12.577634364957623 -0.0038947405844659637 9.431710885640705 0 0 0
304 1 14.150495081657413 1.5687723743619242 11.004773409458206 0 0 0
305 1 15.723355992105398 -0.003894736489096293 9.43171084624046 0 0 0
306 1 17.29621682615234 1.5687721723028223 11.004773489306606 0 0 0
307 1 18.869077674650242 -0.0038947459065914315 9.431710851411443 0 0 0
308 1 20.441938510632216 1.5687721471539058 11.004773499909007 0 0 0
309 1 -0.005252346268564223 3.141439040127388 9.431710851444693 0 0 0
310 1 1.5676085129173873 4.714105945194224 11.004773489079087 0 0 0
311 1 3.140469334134196 3.1414390507746113 9.431710847769036 0 0 0
312 1 4.713330853405011 4.7141066429686465 11.004772843299264 0 0 0
313 1 6.286191282112288 3.14143989279252 9.431710573196089 0 0 0
314 1 7.859057548011616 4.7141135438295905 11.004768202473524 0 0 0
315 1 9.431913686389136 3.141447733821288 9.431710017627346 0 0 0
316 1 11.004773851275766 4.714137014126899 11.004755099902958 0 0 0
317 1 12.577633391075643 3.1414482869479228 9.431709977891632 0 0 0
318 1 14.150489222892578 4.714113672025342 11.004768617028844 0 0 0
319 1 15.723355645125629 3.1414400774604303 9.43171050064051 0 0 0
320 1 17.296216028138915 4.7141067810890895 11.004772730738235 0 0 0
321 1 18.869077670136225 3.141439046204592 9.431710856069685 0 0 0
322 1 20.441938484335804 4.714105946778641 11.004773487953342 0 0 0
323 1 -0.00525234836806259 6.286772838152808 9.431710842805098 0 0 0
324 1 1.5676085852078745 7.85943970074935 11.004773543438025 0 0 0
325 1 3.1404702979503205 6.2867731495795205 9.431710297839476 0 0 0
326 1 4.713336541237165 7.85944490361246 11.004769325145915 0 0 0
327 1 6.286245588783371 6.286823315498931 9.431697427362078 0 0 0
328 1 7.85929431570048 7.859691220236867 11.00452487960364 0 0 0
329 1 9.432032188935814 6.287374840116423 9.431594104896714 0 0 0
330 1 11.004794078631747 7.860518745699145 11.003703356178208 0 0 0
331 1 12.577519378423464 6.2874132583944915 9.431595980700038 0 0 0
332 1 14.150206798027599 7.859735953042856 11.004479138147314 0 0 0
333 1 15.723298120174412 6.286829394032351 9.431691298945346 0 0 0
334 1 17.296208329645413 7.859446753846505 11.004767773138864 0 0 0
335 1 18.869076653048282 6.286773155653582 9.431710264131397 0 0 0
336 1 20.44193833135492 7.859439755746902 11.004773487521092 0 0 0
337 1 22.014799271670785 9.432106518530093 9.43171094587567 -1 0 0
338 1 1.5676092728690516 11.004773493180672 11.004773336464238 0 0 0
339 1 3.140471310682397 9.432099791456581 9.431718535033838 0 0 0
340 1 4.713395493052022 11.00477276192245 11.00471988914451 0 0 0
341 1 6.286998626652189 9.431970598300925 9.43184817437364 0 0 0
342 1 7.860076435778979 11.004721917182515 11.003782484972465 0 0 0
343 1 9.424443667470221 9.41874427556256 9.439689005055232 0 0 0
344 1 11.00482089855684 11.004552484131313 11.052215371508824 0 0 0
345 1 12.584498308348994 9.422301668169798 9.435116294328584 0 0 0
346 1 14.149499162068436 11.004563871697586 11.00370967410534 0 0 0
347 1 15.722556762333975 9.432188108961686 9.431771466791313 0 0 0
348 1 17.296164860536763 11.004771869660951 11.004732752436714 0 0 0
349 1 18.86907182697344 9.432103591179875 9.431714813673109 0 0 0
350 1 20.44193786227668 11.004773470846144 11.004773381871672 0 0 0
351 1 22.014799311824426 12.577440475627315 9.431710947637864 -1 0 0
352 1 1.5676085617450497 14.150107305384605 11.004773549653473 0 0 0
353 1 3.1404702110380103 12.577447186797103 9.431718479504204 0 0 0
354 1 4.7133345380612175 14.150102843826398 11.00476994663135 0 0 0
355 1 6.2869123464996735 12.577579106150273 9.431850270839828 0 0 0
356 1 7.859195240381368 14.149959360066752 11.004621799895219 0 0 0
357 1 9.416970252901589 12.592570030148325 9.446983389947807 0 0 0
358 1 11.004657286946228 14.149075106247535 11.003599036873766 0 0 0
359 1 12.592247867473809 12.60390224249443 9.475879109975262 0 0 0
360 1 14.150464015113895 14.14994120157851 11.004462330091284 0 0 0
361 1 15.722801467747377 12.577480171775685 9.431734826093992 0 0 0
362 1 17.29621348896137 14.150103493094786 11.004769192388942 0 0 0
363 1 18.869074712494378 12.577443313487302 9.431714602937676 0 0 0
364 1 20.441938409884674 14.150107266456164 11.004773500269254 0 0 0
365 1 -0.005252334691234232 15.722774167568758 9.43171084689349 0 0 0
366 1 1.5676085128269739 17.295441055476214 11.004773489432376 0 0 0
367 1 3.140470269307251 15.722773874138053 9.431710314194634 0 0 0
368 1 4.713330856341791 17.295440370094383 11.004772842819778 0 0 0
369 1 6.2862471199136944 15.722719272461458 9.43169860735713 0 0 0
370 1 7.859057869746388 17.29543461909446 11.004767828417206 0 0 0
371 1 9.431865014313178 15.721958839045191 9.431769883893741 0 0 0
372 1 11.004778565989211 17.295373927915357 11.004717296067305 0 0 0
373 1 12.577650495469518 15.721467826659122 9.431511077153232 0 0 0
374 1 14.150483486111142 17.295428214915816 11.004761136020083 0 0 0
375 1 15.723326133174163 15.722743088211567 9.431730269320893 0 0 0
376 1 17.296216660194396 17.295440991662996 11.004773389210781 0 0 0
377 1 18.869077401808312 15.722774065925782 9.431710715947993 0 0 0
378 1 20.441938501154176 17.295441062091275 11.004773497480386 0 0 0
379 1 -0.005252346130972886 18.868107960137767 9.431710851295023 0 0 0
380 1 1.567608489624456 20.44077485291978 11.004773499777446 0 0 0
381 1 3.1404693375234514 18.868107947884784 9.431710843608167 0 0 0
382 1 4.7133301731846915 20.44077482981525 11.004773489629414 0 0 0
383 1 6.286191250515933 18.868107064382023 9.43171030559663 0 0 0
384 1 7.859051843279025 20.44077469773465 11.004773490741643 0 0 0
385 1 9.431906781398526 18.868104179203165 9.431716855651711 0 0 0
386 1 11.004773552963943 20.440774025467967 11.004773381768945 0 0 0
387 1 12.577639642738033 18.8680978926007 9.431717244871177 0 0 0
388 1 14.150495096592131 20.440774550070063 11.004773440072057 0 0 0
389 1 15.72335642684629 18.8681081814981 9.431710628127247 0 0 0
390 1 17.29621683512417 20.44077484586942 11.004773500806058 0 0 0
391 1 18.86907766255088 18.868107946469017 9.431710828871617 0 0 0
392 1 20.441938510576247 20.44077485296564 11.004773499776418 0 0 0
393 1 -0.005252346297011219 -0.003894745742548775 12.577836148498095 0 0 0
394 1 1.5676084892245152 1.5687721468481557 14.150898796844551 0 0 0
395 1 3.1404693247610873 -0.0038947457571328727 12.57783614809753 0 0 0
396 1 4.713330162169239 1.5687721508801764 14.150898794187054 0 0 0
397 1 6.2861909985841296 -0.0038947455654325834 12.577836144381292 0 0 0
398 1 7.859051835720544 1.5687721641093795 14.150898787245808 0 0 0
399 1 9.431912672502788 22.01344174393204 12.577836135172445 0 -1 0
400 1 11.004773499594947 1.5687721578153262 14.150898791375825 0 0 0
401 1 12.577634329029028 -0.003894745930237363 12.57783613487056 0 0 0
402 1 14.150495164757512 1.5687721636805798 14.150898787343516 0 0 0
403 1 15.723355999809229 22.01344174547464 12.577836142890504 0 -1 0
404 1 17.296216837790933 1.5687721509348809 14.150898794095884 0 0 0
405 1 18.869077675396557 -0.0038947454943452195 12.57783614822242 0 0 0
406 1 20.441938510897817 1.5687721468780544 14.150898796823384 0 0 0
407 1 -0.005252346351381373 3.1414390394869103 12.577836148056116 0 0 0
408 1 1.5676084930174674 4.71410593402165 14.150898794368132 0 0 0
409 1 3.140469338520111 3.141439053722603 12.577836136988404 0 0 0
410 1 4.713330278363177 4.7141060538186315 14.150898679033153 0 0 0
411 1 6.286191129121046 3.141439259870476 12.577836016597315 0 0 0
412 1 7.8590525119858246 4.7141064890891995 14.150898305929031 0 0 0
413 1 9.431912943275455 3.1414396321060307 12.577836155280378 0 0 0
414 1 11.004773457688161 4.714105549600068 14.150899412221817 0 0 0
415 1 12.577634059321674 3.1414395776549857 12.577836176222657 0 0 0
416 1 14.150494534422398 4.714106438456539 14.150898363179977 0 0 0
417 1 15.723355870217976 3.1414392681719177 12.577836013764708 0 0 0
418 1 17.296216714786322 4.7141060611832595 14.150898670100867 0 0 0
419 1 18.869077659699457 3.1414390559147582 12.577836135257598 0 0 0
420 1 20.441938506763044 4.714105934360226 14.150898794060675 0 0 0
421 1 -0.00525234742884275 6.286772826304062 12.577836146022717 0 0 0
422 1 1.5676084912462898 7.85943971524974 14.150898799943725 0 0 0
423 1 3.1404695264825646 6.286772974032959 12.577836029420027 0 0 0
424 1 4.713330312753346 7.859440329122946 14.150898692696543 0 0 0
425 1 6.28619660824379 6.28677851608557 12.577830634616578 0 0 0
426 1 7.8590596729246025 7.85944817188104 14.150889306490445 0 0 0
427 1 9.431926037927152 6.286826049094759 12.577781516155646 0 0 0
428 1 11.004774054395888 7.859488397920722 14.15083806141299 0 0 0
429 1 12.577621325572851 6.286820485129021 12.577787216727705 0 0 0
430 1 14.150486762801368 7.859448678215224 14.150888217182777 0 0 0
431 1 15.723349745846113 6.286779116957413 12.577829941730634 0 0 0
432 1 17.296216733271116 7.859440312613513 14.150898722081726 0 0 0
433 1 18.869077441046848 6.286773000584484 12.577836002882314 0 0 0
434 1 20.441938511585 7.859439713563154 14.150898801750369 0 0 0
435 1 -0.005252341380459141 9.432106615797712 12.577836137125832 0 0 0
436 1 1.5676084160271249 11.00477350078766 14.15089887402413 0 0 0