LAMMPS data file via write_data, version 2 Aug 2023, timestep = 120, units = metal

689 atoms
3 atom types

-0.001977867831787274 22.011524864687583 xlo xhi
-0.004740989676079467 22.014287986531873 ylo yhi
-0.005136705444863183 22.01468370230067 zlo zhi

Masses

1 183.84
2 1.008
3 4.0026

Atoms # atomic

1 1 -0.0019778649987765295 -0.004740986848110563 -0.005136702622337925 0 0 0
2 1 1.5704151872949945 1.5680467971253322 1.5677076123561606 0 0 0
3 1 3.142808239812872 -0.004740986849158702 -0.005136702284218757 0 0 0
4 1 4.715201299966115 1.568046810550615 1.567707621464574 0 0 0
5 1 6.287594345043861 -0.004740986915607527 -0.005136701196928709 0 0 0
6 1 7.859987420080341 1.5680468480544434 1.5677076413948516 0 0 0
7 1 9.432380447805311 -0.004740986282824451 -0.005136701227805437 0 0 0
8 1 11.004773499688167 1.568046834452427 1.5677076305019595 0 0 0
9 1 12.577166551954042 -0.004740986630814825 -0.0051367009907125295 0 0 0
10 1 14.149559579427786 1.568046848914611 1.5677076418923226 0 0 0
11 1 15.72195265519012 -0.00474098642512662 -0.005136701482286322 0 0 0
12 1 17.29434570095111 1.5680468089722412 1.5677076205547107 0 0 0
13 1 18.86673876028474 -0.004740986863993867 -0.005136702297742073 0 0 0
14 1 20.4391318128133 1.5680467973036392 1.5677076124445775 0 0 0
15 1 -0.0019778650086368305 3.140834581356896 -0.005136702308720244 0 0 0
16 1 1.5704151996571452 4.713622372860614 1.5677076202374531 0 0 0
17 1 3.1428082464464833 3.1408345880281625 -0.005136695633188611 0 0 0
18 1 4.715201677047049 4.713622762410208 1.5677080097388751 0 0 0
19 1 6.287594372556699 3.140834613554373 -0.005136669958682237 0 0 0
20 1 7.859988643195452 4.71362385852206 1.5677091154669927 0 0 0
21 1 9.4323804509338 3.1408345937741866 -0.005136689772864809 0 0 0
22 1 11.004773515908235 4.713622566138169 1.567707816089329 0 0 0
23 1 12.577166548644296 3.140834590554219 -0.005136693126656839 0 0 0
24 1 14.149558300686753 4.713623885441734 1.5677091483995225 0 0 0
25 1 15.721952627250392 3.140834613540814 -0.00513666978458217 0 0 0
26 1 17.294345364292898 4.713622713926397 1.5677079697317182 0 0 0
27 1 18.86673875427231 3.140834587285685 -0.005136696251737847 0 0 0
28 1 20.439131799769374 4.71362237407426 1.5677076211328995 0 0 0
29 1 -0.00197786452114799 6.286410148553951 -0.0051367031988603954 0 0 0
30 1 1.5704151980081422 7.859197941586396 1.5677076112381305 0 0 0
31 1 3.1428082444058187 6.286410164203693 -0.005136697919512816 0 0 0
32 1 4.715201806212658 7.859199197332492 1.567708150131988 0 0 0
33 1 6.287594695121396 6.286410548944357 -0.005136077113273546 0 0 0
34 1 7.859999931877906 7.85921147461037 1.5677296593925343 0 0 0
35 1 9.432381078622994 6.286410993558073 -0.0051347472972174514 0 0 0
36 1 11.004772089764858 7.859235858081177 1.5677724190811384 0 0 0
37 1 12.57716587394954 6.28641101844424 -0.005134693545908096 0 0 0
38 1 14.149548088823014 7.859210358844809 1.567727131712445 0 0 0
39 1 15.721952347710655 6.286410507346324 -0.005136146931885439 0 0 0
40 1 17.294345519436874 7.859198836906196 1.5677078868752183 0 0 0
41 1 18.86673875937513 6.286410159218063 -0.005136700114507359 0 0 0
42 1 20.439131827752316 7.859197924428797 1.5677075899845085 0 0 0
43 1 -0.0019778661856399834 9.431985715669827 -0.005136701035912249 0 0 0
44 1 1.570415140235908 11.004773501990359 1.567707547078151 0 0 0
45 1 3.1428081409429605 9.431985727893425 22.014683606471717 0 0 -1
46 1 4.715201419849707 11.004773746033123 1.5677077584626549 0 0 0
47 1 6.287594166562406 9.431986375900829 -0.005135745361699311 0 0 0
48 1 7.860024225409777 11.00477127294699 1.5677708024455117 0 0 0
49 1 9.432381108463902 9.431987089679732 -0.005116744564976882 0 0 0
50 1 11.004761116153045 11.004758632002703 1.567860949157319 0 0 0
51 1 12.577165553426857 9.431987353134488 -0.00511803199276493 0 0 0
52 1 14.149535059951116 11.004760185834447 1.5677464391765517 0 0 0
53 1 15.721953181503645 9.431986022477068 -0.005136395681603721 0 0 0
54 1 17.294345721337535 11.004773084150623 1.567707442192291 0 0 0
55 1 18.8667388626682 9.431985713074862 22.014683596152874 0 0 -1
56 1 20.43913184389159 11.004773511523823 1.567707576045613 0 0 0
57 1 -0.0019778651558643836 12.577561284641567 -0.0051367031522605916 0 0 0
58 1 1.570415205746719 14.150349054741026 1.5677076166211787 0 0 0
59 1 3.142808104533421 12.57756127598306 22.014683569322735 0 0 -1
60 1 4.715202097980072 14.150347509001362 1.5677084486909727 0 0 0
61 1 6.287594262986474 12.57756055186663 -0.0051354416720210206 0 0 0
62 1 7.859997868308672 14.150337560508632 1.5677245765760173 0 0 0
63 1 9.432382314592763 12.577559565845398 -0.0051184682162265585 0 0 0
64 1 11.004761732748241 14.150325197597674 1.5677560132197306 0 0 0
65 1 12.577165501763782 12.577559652006634 22.01468100489732 0 0 -1
66 1 14.149559696993641 14.15034800983022 1.5677145229142508 0 0 0
67 1 15.72195205966241 12.577560703706366 -0.005135533274881961 0 0 0
68 1 17.29434559856132 14.15034832213004 1.5677077003580353 0 0 0
69 1 18.866738820875234 12.577561274105763 22.014683640970496 0 0 -1
70 1 20.4391317981422 14.150349057868434 1.5677076226233686 0 0 0
71 1 -0.001977864746140204 15.723136851029839 -0.005136702569953011 0 0 0
72 1 1.5704151976604088 17.295924628844027 1.5677076187385328 0 0 0
73 1 3.1428082506630686 15.723136831251812 -0.005136691483516873 0 0 0
74 1 4.715201616383649 17.295924296630634 1.567707948983143 0 0 0
75 1 6.287594630927262 15.723136518881635 -0.005136191900118145 0 0 0
76 1 7.859988514042257 17.295923285149378 1.5677088629462759 0 0 0
77 1 9.432380846830341 15.72313630873595 -0.005135173391693979 0 0 0
78 1 11.004773118210538 17.295924599253695 1.5677084295362735 0 0 0
79 1 12.577165937159116 15.723136072854324 -0.005135168121386317 0 0 0
80 1 14.1495587312782 17.295923778156947 1.5677086272493548 0 0 0
81 1 15.721952566440702 15.72313673424209 -0.005136498281306864 0 0 0
82 1 17.294345514180566 17.29592442981525 1.5677077782164954 0 0 0
83 1 18.86673876463092 15.723136849764554 22.014683699908872 0 0 -1
84 1 20.439131807102616 17.29592463303113 1.567707615161599 0 0 0
85 1 -0.0019778649441617867 18.868712418862735 -0.0051367024138186095 0 0 0
86 1 1.5704151873691732 20.441500203050623 1.5677076123690836 0 0 0
87 1 3.1428082455622284 18.868712412866092 -0.005136696518424381 0 0 0
88 1 4.715201299774246 20.44150019102752 1.5677076210958398 0 0 0
89 1 6.287594369735965 18.868712389151494 -0.005136672768817439 0 0 0
90 1 7.859987429200939 20.441500142981116 1.567707647654329 0 0 0
91 1 9.43238045195915 18.868712417935136 -0.005136691418919233 0 0 0
92 1 11.004773493452861 20.441500223396297 1.5677075775093172 0 0 0
93 1 12.57716653653764 18.868712405650076 -0.0051366807225904886 0 0 0
94 1 14.14955957828294 20.441500163003585 1.5677076369872374 0 0 0
95 1 15.721952639168155 18.868712400611297 -0.005136680236634147 0 0 0
96 1 17.294345698771803 20.441500190893223 1.5677076220676796 0 0 0
97 1 18.866738757059924 18.868712415374485 -0.005136699479712742 0 0 0
98 1 20.439131813343785 20.441500203621082 1.5677076118359206 0 0 0
99 1 -0.0019778650401001325 -0.004740986916365555 3.14055192689945 0 0 0
100 1 1.5704151866958254 1.5680467965708371 4.71339624053213 0 0 0
101 1 3.1428082391716545 -0.004740986893826343 3.14055192709374 0 0 0
102 1 4.715201290069557 1.568046805274443 4.713396250945135 0 0 0
103 1 6.287594349927019 -0.004740979158205076 3.1405519351480025 0 0 0
104 1 7.859987585544221 1.568047396858384 4.713396462258017 0 0 0
105 1 9.432380472460823 22.014287969110665 3.1405519641330955 0 -1 0
106 1 11.004773488387775 1.5680481379885713 4.713396567320543 0 0 0
107 1 12.57716652723581 22.014287978511575 3.140551963908417 0 -1 0
108 1 14.149559430044608 1.5680473423747847 4.713396449455361 0 0 0
109 1 15.721952649657286 -0.004740981407458559 3.14055193509418 0 0 0
110 1 17.29434570567318 1.5680468158176457 4.713396254000956 0 0 0
111 1 18.86673876167759 -0.00474098522239575 3.140551926350482 0 0 0
112 1 20.439131813962213 1.5680467957697832 4.713396240271262 0 0 0
113 1 -0.001977864856051674 3.1408345806474443 3.1405519270503004 0 0 0
114 1 1.5704151972606966 4.713622363728369 4.7133962509149026 0 0 0
115 1 3.14280824418208 3.140834585379481 3.1405519425400024 0 0 0
116 1 4.715201787950775 4.713622875082459 4.713397516765771 0 0 0
117 1 6.287594704554701 3.1408352161520936 3.1405523377471942 0 0 0
118 1 7.8600005022971695 4.713644978796019 4.71341040137927 0 0 0
119 1 9.432381072901615 3.140836523809928 3.1405527697251143 0 0 0
120 1 11.0047725382438 4.713686293413693 4.7134335554618545 0 0 0
121 1 12.577165888164776 3.1408365525337696 3.140552780312061 0 0 0
122 1 14.149547689027226 4.713641784022788 4.713408976088402 0 0 0
123 1 15.72195234080145 3.1408351363105984 3.140552297011801 0 0 0
124 1 17.294344945850124 4.713623210532969 4.71339775735973 0 0 0
125 1 18.866738749035356 3.1408345940378966 3.140551948062519 0 0 0
126 1 20.43913180900848 4.713622353282811 4.713396245045452 0 0 0
127 1 -0.001977866770418578 6.286410161398745 3.1405519394472945 0 0 0
128 1 1.570415711446151 7.859198109002351 4.713396418371 0 0 0
129 1 3.1428087980126134 6.286410487602362 3.1405522667453867 0 0 0
130 1 4.715222510821927 7.859210640698484 4.713409001314093 0 0 0
131 1 6.287611392966912 6.286427490645285 3.1405692560802843 0 0 0
132 1 7.860581908662752 7.859790165623163 4.713987813708232 0 0 0
133 1 9.432405833618972 6.286477854558077 3.1406200273862446 0 0 0
134 1 11.004707091316137 7.860789474338812 4.71499351917136 0 0 0
135 1 12.577139049597843 6.286481875855464 3.1406245787835183 0 0 0
136 1 14.149036665202134 7.859690377683629 4.713898188805467 0 0 0
137 1 15.72193777450223 6.286425077592318 3.1405672361711914 0 0 0
138 1 17.29432328380075 7.859213095736603 4.713411029428842 0 0 0
139 1 18.866738161380535 6.2864105645482695 3.1405523284559935 0 0 0
140 1 20.439131297149228 7.859198060748086 4.713396357603091 0 0 0
141 1 -0.001977851450688199 9.431985725710016 3.140551931022567 0 0 0
142 1 1.5704163690871222 11.004773476509733 4.713396370713891 0 0 0
143 1 3.1428091657080786 9.431986360093978 3.1405517609020643 0 0 0
144 1 4.715266033183265 11.004771612531243 4.713433972635352 0 0 0
145 1 6.287660973761259 9.432010805981674 3.14061858464352 0 0 0
146 1 7.861567919342359 11.004645565984267 4.714973728884269 0 0 0
147 1 9.432504444999116 9.432117697628023 3.141587049657533 0 0 0
148 1 11.004252721848463 11.003891137217725 4.705988440658795 0 0 0
149 1 12.57702524494393 9.432082587159304 3.1415026533488493 0 0 0
150 1 14.14846645311526 11.004006900525077 4.714236698782269 0 0 0
151 1 15.721900845221343 9.431994013397748 3.1406005688777134 0 0 0
152 1 17.294303243464892 11.004762068471369 4.713419289243543 0 0 0
153 1 18.866738787581927 9.431985846548484 3.1405509650213284 0 0 0
154 1 20.439130761514757 11.004773257741713 4.713396729060502 0 0 0
155 1 22.011524862826416 12.577561265135413 3.140551945768629 -1 0 0
156 1 1.570415643788781 14.150348915504319 4.713396395696799 0 0 0
157 1 3.142809429501275 12.577560566293213 3.1405518055981223 0 0 0
158 1 4.715217414741433 14.15033815465008 4.713407116576272 0 0 0
159 1 6.287683499402311 12.577533103566852 3.140641475064669 0 0 0
160 1 7.8603892186233555 14.149948632199765 4.713802962297391 0 0 0
161 1 9.432483752714397 12.57742204659789 3.1414178573459366 0 0 0
162 1 11.004258464716985 14.149095546248764 4.714856832059484 0 0 0
163 1 12.577026892343925 12.57739119087292 3.1402837575849554 0 0 0
164 1 14.149637983804414 14.150219041737593 4.713746440534652 0 0 0
165 1 15.721900938225692 12.577537380331055 3.140600284437843 0 0 0
166 1 17.294348485423658 14.15035149164112 4.7133957100278145 0 0 0
167 1 18.866737686445276 12.577560794718819 3.1405523078200495 0 0 0
168 1 20.439131935819468 14.150349182351965 4.713396144266117 0 0 0
169 1 -0.001977854434361705 15.7231368476204 3.140551931533822 0 0 0
170 1 1.570415198382253 17.295924635573915 4.713396249376657 0 0 0
171 1 3.1428086722861686 15.72313658589873 3.140552206019958 0 0 0
172 1 4.715201748501051 17.295924071948512 4.713397482774758 0 0 0
173 1 6.287607901620413 15.723123450251963 3.140565788655798 0 0 0
174 1 7.859992101716263 17.295913593846862 4.713401584449746 0 0 0
175 1 9.43239846178607 15.723065005158166 3.140612032306986 0 0 0
176 1 11.00477569173084 17.295806096945892 4.713494218951258 0 0 0
177 1 12.57714150804886 15.72307463351712 3.1406090408585006 0 0 0
178 1 14.149550480314439 17.29591159740195 4.713408003259701 0 0 0
179 1 15.721945619495402 15.723129854651502 3.1405579270230657 0 0 0
180 1 17.294346883910677 17.295926007484653 4.713395169226334 0 0 0
181 1 18.86673861070349 15.723136882899936 3.1405519609909853 0 0 0
182 1 20.439131843273863 17.295924649301778 4.713396222126601 0 0 0
183 1 -0.0019778640796034616 18.86871241956419 3.1405519265832873 0 0 0
184 1 1.5704151866609513 20.44150020369939 4.713396240616399 0 0 0
185 1 3.142808246504885 18.868712412541665 3.1405519427160264 0 0 0
186 1 4.715201294603516 20.441500184170053 4.713396255861896 0 0 0
187 1 6.2875946267526786 18.868711947441753 3.1405522573044125 0 0 0
188 1 7.859987183579917 20.441500139610213 4.713396092737529 0 0 0
189 1 9.432381882311637 18.868709980924805 3.14055302937828 0 0 0
190 1 11.004773487982929 20.44149770325311 4.713397196536342 0 0 0
191 1 12.577165188371465 18.86871055769439 3.1405528028420853 0 0 0
192 1 14.149559792709486 20.441500120301242 4.713396090551088 0 0 0
193 1 15.721952265329746 18.868711920558308 3.1405523491757172 0 0 0
194 1 17.294345743543605 20.441500255522563 4.713396219520962 0 0 0
195 1 18.866738785967833 18.868712451288648 3.1405519041576575 0 0 0
196 1 20.43913181061998 20.441500200681972 4.713396242683897 0 0 0
197 1 -0.0019778647885400256 -0.004740986588954449 6.286240556026569 0 0 0
198 1 1.5704151859564222 1.568046795492944 7.859084870496296 0 0 0
199 1 3.1428082390483256 -0.004740985965642554 6.286240554087052 0 0 0
200 1 4.7152012270934325 1.5680467535036713 7.859084872488443 0 0 0
201 1 6.2875943732469235 22.014287953797325 6.2862405827938845 0 -1 0
202 1 7.859987523496895 1.568047932317881 7.859084852842587 0 0 0
203 1 9.432380256341308 -0.004740520421969774 6.286240380874776 0 0 0
204 1 11.004773470965679 1.5680515796465335 7.859084830584948 0 0 0
205 1 12.577166735360004 -0.004740520479649537 6.286240371820552 0 0 0
206 1 14.149559506325334 1.568048016260233 7.859084852446637 0 0 0
207 1 15.721952636412816 -0.00474096829321064 6.286240572958028 0 0 0
208 1 17.29434577307013 1.568046749976503 7.859084872397149 0 0 0
209 1 18.86673875953195 -0.004740989643510867 6.286240554482593 0 0 0
210 1 20.43913181367363 1.5680467960458715 7.859084870511024 0 0 0
211 1 -0.0019778655799578284 3.1408345820390076 6.286240555260061 0 0 0
212 1 1.5704151398768782 4.713622297586106 7.859084872496139 0 0 0
213 1 3.1428081397877428 3.1408344812456734 6.286240568987978 0 0 0
214 1 4.7152014619970615 4.7136225517318735 7.859085096771324 0 0 0
215 1 6.287594128837353 3.140835500545203 6.2862412182862455 0 0 0
216 1 7.860023722281123 4.7136851981569565 7.85908325451119 0 0 0
217 1 9.432381517409889 3.140855455322853 6.286242392367659 0 0 0
218 1 11.004772144464019 4.713808173259956 7.8590817500686105 0 0 0
219 1 12.577165557421356 3.1408538545470375 6.286242456263359 0 0 0
220 1 14.149524069427605 4.7136898930088265 7.859083231917429 0 0 0
221 1 15.721952801815211 3.1408357452024487 6.2862412934356025 0 0 0
222 1 17.29434612323495 4.713621958692515 7.859085081587338 0 0 0
223 1 18.866738877774694 3.140834457853897 6.286240561993012 0 0 0
224 1 20.43913187507486 4.713622290953591 7.8590848721378626 0 0 0
225 1 22.011524861346683 6.2864101600155875 6.286240574811307 -1 0 0
226 1 1.5704163661459087 7.859198065591706 7.859084853404603 0 0 0
227 1 3.1428091483941136 6.286409953446293 6.286241210607103 0 0 0
228 1 4.71526674757673 7.859235884522958 7.859083241858407 0 0 0
229 1 6.287661725654304 6.28647714039411 6.286266108852871 0 0 0
230 1 7.861593322470151 7.860791004467996 7.858970952901947 0 0 0
231 1 9.432532586239457 6.287475843152858 6.2863990449061795 0 0 0
232 1 11.00513228733056 7.853022514563 7.858829134090219 0 0 0
233 1 12.57702421656742 6.287379188542368 6.286389090936003 0 0 0
234 1 14.147612452098652 7.861090772224103 7.858969366938905 0 0 0
235 1 15.721874755067102 6.286487974883965 6.286273444856013 0 0 0
236 1 17.294266853519602 7.85924429209053 7.859083246329989 0 0 0
237 1 18.866737965611204 6.286409610021838 6.286241215055075 0 0 0
238 1 20.439129976654986 7.859198622932972 7.859084853491566 0 0 0
239 1 -0.001977768090021094 9.431985676776199 6.286240515044816 0 0 0
240 1 1.5704192576180067 11.004773449690035 7.859084830493268 0 0 0
241 1 3.1428280857892656 9.431986540900187 6.286241401011331 0 0 0
242 1 4.715360679247366 11.004770003243998 7.859081703118132 0 0 0
243 1 6.288649202251284 9.432125789078874 6.286379500645339 0 0 0
244 1 7.852331023605794 11.004555289533496 7.8588278176363575 0 0 0
245 1 9.432939894831103 9.4327734248428 6.286860714673528 0 0 0
246 1 20.43913181285359 20.4415002030144 20.441839388059122 0 0 0
247 1 12.57710207806697 9.428856109074838 6.284704703257059 0 0 0
248 1 14.17314600008087 10.996011318783108 7.858831232851913 0 0 0
249 1 15.720696046859626 9.432130173630464 6.28620131916771 0 0 0
250 1 17.294847357093843 11.004783277567393 7.859081523208239 0 0 0
251 1 18.866720097446972 9.43198105619596 6.286235126370055 0 0 0
252 1 20.439139498472578 11.004773078578612 7.859084827543551 0 0 0
253 1 -0.0019773848471271397 12.577561315048738 6.2862405219239035 0 0 0
254 1 1.5704162241470958 14.15034899016749 7.859084852358747 0 0 0
255 1 3.142825058885709 12.577560414127845 6.286241467742196 0 0 0
256 1 4.715257713061505 14.150314911071662 7.859083169189308 0 0 0
257 1 6.288471696616285 12.577427848886272 6.286374936575364 0 0 0
258 1 7.861348471591064 14.148942553208226 7.858968485816941 0 0 0
259 1 9.421676730365899 12.579371280301991 6.276736722988519 0 0 0
260 1 11.002008285036155 14.240524193426607 7.858990049365025 0 0 0
261 1 12.586611790234851 12.586509312264894 6.261417221741245 0 0 0
262 1 14.150842682134503 14.152749325231365 7.85895148845232 0 0 0
263 1 15.722023050503925 12.577730536827312 6.28617975105377 0 0 0
264 1 17.294372068712118 14.150352598644162 7.859082939331403 0 0 0
265 1 18.866745311864463 12.577566823810322 6.286235275571649 0 0 0
266 1 20.43913211634911 14.150348808587179 7.859084848936945 0 0 0
267 1 -0.0019778350762839837 15.723136847104318 6.2862405602523195 0 0 0
268 1 1.570415155632505 17.29592469660226 7.859084872337426 0 0 0
269 1 3.1428090009994167 15.723137122951178 6.286241147427295 0 0 0
270 1 4.715202424483149 17.29592401583598 7.859085070211924 0 0 0
271 1 6.287659223532825 15.723060066167571 6.286262689687812 0 0 0
272 1 7.860079764559023 17.295809579007543 7.859083194679181 0 0 0
273 1 9.43179934762342 15.722213259207223 6.285708702760451 0 0 0
274 1 11.00476217386902 17.297657809769063 7.859081635389863 0 0 0
275 1 12.577627409148706 15.722257387151965 6.286144850375914 0 0 0
276 1 14.149479324785972 17.295892319380986 7.859082961607928 0 0 0
277 1 15.721992123634926 15.723170118078809 6.2862021592857555 0 0 0
278 1 17.2943415873182 17.29592155382587 7.8590850110544075 0 0 0
279 1 18.866739856714275 15.723137291586868 6.286240155176632 0 0 0
280 1 20.43913176192842 17.295924626301748 7.859084872292417 0 0 0
281 1 -0.0019778673592797586 18.868712417587606 6.286240556373434 0 0 0
282 1 1.570415184224373 20.441500205494325 7.859084870521141 0 0 0
283 1 3.1428081378245247 18.86871252475735 6.286240578446205 0 0 0
284 1 4.715201117059274 20.441500360410277 7.859084872406523 0 0 0
285 1 6.287594370463569 18.868710954903726 6.2862419141210735 0 0 0
286 1 7.859988558404494 20.441497539495526 7.859084852167453 0 0 0
287 1 9.432361940157223 18.86871249585279 6.286223084928642 0 0 0
288 1 11.004773511322492 20.44152835594876 7.8590848272745575 0 0 0
289 1 12.57718415218226 18.868713494176266 6.286223086363434 0 0 0
290 1 14.149558444175893 20.441498952102744 7.859084848573634 0 0 0
291 1 15.721953606336688 18.86871386704738 6.286241021009456 0 0 0
292 1 17.29434586563628 20.44150033874897 7.859084872002992 0 0 0
293 1 18.86673868855418 18.868712347411204 6.2862406138408815 0 0 0
294 1 20.43913181991059 20.44150020859714 7.859084870572233 0 0 0
295 1 -0.0019778647789526383 -0.004740986576761262 9.431929185500705 0 0 0
296 1 1.570415186197848 1.5680467960729025 11.004773501347417 0 0 0
297 1 3.142808238818046 -0.004740985985299541 9.431929187580458 0 0 0
298 1 4.715201294579667 1.5680468131038268 11.00477348765318 0 0 0
299 1 6.2875943751624765 22.014287953946265 9.431929157478741 0 -1 0
300 1 7.859987568638381 1.5680473277811082 11.00477329618946 0 0 0
301 1 9.432380259001992 -0.00474051970965032 9.431929358577811 0 0 0
302 1 11.004773488293091 1.5680480241350157 11.004773213538199 0 0 0
303 1 12.577166732853001 -0.00474051508210624 9.431929367635682 0 0 0
304 1 14.149559447003226 1.5680472722431986 11.004773309521887 0 0 0
305 1 15.72195263434393 -0.004740967810463709 9.431929167211395 0 0 0
306 1 17.294345701192363 1.5680468235588658 11.00477348466542 0 0 0
307 1 18.866738759749225 22.0142879865024 9.431929187176088 0 -1 0
308 1 20.43913181445031 1.568046795275444 11.004773501591625 0 0 0
309 1 -0.00197786563035026 3.1408345818348833 9.431929186422186 0 0 0
310 1 1.5704152052744487 4.713622368309515 11.00477348744178 0 0 0
311 1 3.1428081055142143 3.140834447005542 9.431929176460313 0 0 0
312 1 4.715202089005591 4.713623177197809 11.004771949814025 0 0 0
313 1 6.287594170254759 3.1408357390012203 9.43192846568635 0 0 0
314 1 7.859998869099734 4.713640278145117 11.004761028022564 0 0 0
315 1 9.43238159743058 3.1408529942985113 9.431927249318042 0 0 0
316 1 11.004772518804613 4.7136805374900534 11.004739676731305 0 0 0
317 1 12.577165484270155 3.1408513434543877 9.43192718695496 0 0 0
318 1 14.149549345714476 4.7136369710863395 11.004762521062943 0 0 0
319 1 15.721952752777232 3.1408359772805663 9.431928390135731 0 0 0
320 1 17.294344630468082 4.713623528060137 11.004771723709403 0 0 0
321 1 18.866738910162425 3.1408344252526748 9.431929183349029 0 0 0
322 1 20.43913180152824 4.71362235742729 11.004773493687464 0 0 0
323 1 22.011524861811413 6.286410161963564 9.431929165435312 -1 0 0
324 1 1.570415641018037 7.859198091242612 11.004773342245803 0 0 0
325 1 3.1428093959614696 6.286409996765705 9.431928464855536 0 0 0
326 1 4.71521789830775 7.859209012227256 11.004762333494275 0 0 0
327 1 6.287682531826162 6.286497908042892 9.431900767964619 0 0 0
328 1 7.860403595538878 7.859611873645331 11.004361963252746 0 0 0
329 1 9.432529051269055 6.287322684674552 9.431776847591784 0 0 0
330 1 11.004706974617003 7.860688614312465 11.00329909578858 0 0 0
331 1 12.577027795225328 6.2872223869916075 9.431786406269827 0 0 0
332 1 14.14921904158469 7.859508373011579 11.0044551589639 0 0 0
333 1 15.72185487687852 6.286507800565373 9.431893407689778 0 0 0
334 1 17.29432783742146 7.859211566211722 11.004760299496716 0 0 0
335 1 18.866737756395267 6.2864096295347185 9.431928461748326 0 0 0
336 1 20.43913136647554 7.859198043734743 11.004773402531967 0 0 0
337 1 -0.0019777686882137646 9.431985679581995 9.431929226009641 0 0 0
338 1 1.5704162467856837 11.004773475485644 11.004773415528867 0 0 0
339 1 3.1428254942847205 9.431986628802095 9.4319283075676 0 0 0
340 1 4.715260047987847 11.004771544230882 11.00473922868966 0 0 0
341 1 6.288495422769608 9.432122195140218 9.431795620086938 0 0 0
342 1 7.861457778696391 11.004643241183652 11.003323841908063 0 0 0
343 1 9.423194711677212 9.423012092726998 9.433374660272243 0 0 0
344 1 11.004230626830552 11.003987472937727 11.077799664107793 0 0 0
345 1 12.586909268599998 9.418979518629413 9.435594023149646 0 0 0
346 1 14.148587833522583 11.003983426136857 11.004077065874581 0 0 0
347 1 15.720849769457178 9.432126972010666 9.431972998930252 0 0 0
348 1 17.294309513161497 11.004761773377815 11.004754079350901 0 0 0
349 1 18.866722626109 9.431981178857962 9.431934546812794 0 0 0
350 1 20.439130891510718 11.004773253110745 11.004773059892903 0 0 0
351 1 -0.0019773793785615745 12.577561312504885 9.431929219381717 0 0 0
352 1 1.5704155692413986 14.150348934268417 11.004773365962683 0 0 0
353 1 3.1428223190925366 12.577560341978783 9.43192825610954 0 0 0
354 1 4.715212547056234 14.150339857023978 11.004764298656172 0 0 0
355 1 6.28830585399558 12.57743123750232 9.431799767318289 0 0 0
356 1 7.860195084718215 14.150142605837905 11.004562604306033 0 0 0
357 1 9.411757991039963 12.589270580751196 9.443626670621047 0 0 0
358 1 11.004238594343931 14.149200572091756 11.00344173628499 0 0 0
359 1 12.596489013489618 12.596322273493895 9.458734770526776 0 0 0
360 1 14.14985715136816 14.15043654674741 11.004643977242187 0 0 0
361 1 15.72221769206522 12.577732148710293 9.431992413803322 0 0 0
362 1 17.2943539330421 14.15035341061417 11.004776023901066 0 0 0
363 1 18.866748482323814 12.577566767286898 9.43193448238308 0 0 0
364 1 20.439132021500985 14.150349204342689 11.004773620926647 0 0 0
365 1 -0.0019778349697105587 15.723136844850734 9.431929179816267 0 0 0
366 1 1.570415206343586 17.295924631003448 11.004773489098536 0 0 0
367 1 3.1428092371084575 15.723137065084481 9.431928526658563 0 0 0
368 1 4.715202093784363 17.29592372638488 11.004772007689082 0 0 0
369 1 6.287678034190574 15.72304120093664 9.431904121200464 0 0 0
370 1 7.859990464651162 17.295918435545584 11.004769886067745 0 0 0
371 1 9.431792828068419 15.722371476768263 9.432466368326283 0 0 0
372 1 11.004775481850217 17.295811639576538 11.004678778975277 0 0 0
373 1 12.577630917711708 15.722448316647217 9.43202620050037 0 0 0
374 1 14.149552361436443 17.295916981077458 11.004763698423622 0 0 0
375 1 15.721977822351565 15.723155807508123 9.431964258791572 0 0 0
376 1 17.294346521421417 17.29592564446754 11.004774371605674 0 0 0
377 1 18.866739612570974 15.723137173754807 9.4319295154456 0 0 0
378 1 20.439131835278452 17.295924644429927 11.004773516311197 0 0 0
379 1 -0.001977867373244565 18.868712417851224 9.431929185303744 0 0 0
380 1 1.5704151861606925 20.44150020419733 11.004773501236556 0 0 0
381 1 3.1428081066445586 18.868712555963146 9.431929166909272 0 0 0
382 1 4.715201299062742 20.441500176418973 11.004773482769645 0 0 0
383 1 6.287594452661177 18.868710700153294 9.431927768694568 0 0 0
384 1 7.859987166040306 20.44150021142512 11.00477366663539 0 0 0
385 1 9.432361991190911 18.868715084708604 9.431946600122425 0 0 0
386 1 11.00477348501803 20.44149782149262 11.00477258970518 0 0 0
387 1 12.57718412038282 18.868716445238647 9.431946549322221 0 0 0
388 1 14.149559813250086 20.44150020274995 11.004773671906229 0 0 0
389 1 15.721953512524376 18.86871365194401 9.431928655868433 0 0 0
390 1 17.294345739103928 20.44150024802431 11.004773519388884 0 0 0
391 1 18.866738713202327 18.868712371756757 9.431929131065669 0 0 0
392 1 20.43913181110006 20.44150020115782 11.004773499113899 0 0 0
393 1 -0.0019778650409482965 -0.004740986917350814 12.57761781465161 0 0 0
394 1 1.570415187398937 1.5680467972296368 14.15046212900274 0 0 0
395 1 3.14280823940429 -0.004740986891198619 12.577617814273358 0 0 0
396 1 4.715201298748942 1.5680468085356507 14.150462121214032 0 0 0
397 1 6.287594348703909 -0.004740979078108782 12.577617807648496 0 0 0
398 1 7.859987419037495 1.5680468476680738 14.150462101002852 0 0 0
399 1 9.43238047148053 22.01428796895105 12.577617779603855 0 -1 0
400 1 11.004773499757551 1.568046848059366 14.15046211095259 0 0 0
401 1 12.577166528113988 22.014287978886006 12.577617779813043 0 -1 0
402 1 14.149559580364242 1.5680468488240695 14.150462100404974 0 0 0
403 1 15.72195265098104 -0.004740981132405187 12.577617807799534 0 0 0
404 1 17.294345702203568 1.5680468069145852 14.150462122151287 0 0 0
405 1 18.86673876144721 -0.004740985217004543 12.577617815023077 0 0 0
406 1 20.43913181271172 1.5680467974065162 14.150462128916159 0 0 0
407 1 -0.001977864845562633 3.1408345808923444 12.577617814292854 0 0 0
408 1 1.5704151973168703 4.713622371442973 14.150462122717634 0 0 0
409 1 3.1428082511639768 3.1408345923839573 12.57761779434002 0 0 0
410 1 4.715201608196513 4.713622692836182 14.15046179486857 0 0 0
411 1 6.287594647324931 3.1408351040515865 12.577617461822104 0 0 0
412 1 7.859988665854371 4.7136238822379966 14.150460623598137 0 0 0
413 1 9.432381036033647 3.140836443369747 12.577617052189265 0 0 0
414 1 11.004773529367295 4.713623505605927 14.150461563673762 0 0 0
415 1 12.577165923422763 3.140836472981774 12.577617052775087 0 0 0
416 1 14.149558264485075 4.713623908378907 14.15046059229249 0 0 0
417 1 15.721952399575425 3.140835022231486 12.577617503263005 0 0 0
418 1 17.29434543373034 4.713622643239314 14.150461835940312 0 0 0
419 1 18.86673874213867 3.1408346009939327 12.577617788914823 0 0 0
420 1 20.439131802085836 4.713622372677521 14.15046212180184 0 0 0
421 1 -0.0019778668245441014 6.286410160128735 12.577617803539871 0 0 0
422 1 1.5704152013857937 7.859197941347024 14.150462128669504 0 0 0
423 1 3.142808675059455 6.2864104299022765 12.577617542745351 0 0 0
424 1 4.71520193961076 7.859199238502715 14.150461480783415 0 0 0
425 1 6.287607698746485 6.286423790703876 12.577604340596842 0 0 0
426 1 7.859999065023861 7.85921062197971 14.150444020764624 0 0 0
427 1 9.432404510407034 6.286480092897599 12.577540949059706 0 0 0
428 1 11.004772111087634 7.859288790696199 14.150347288272236 0 0 0
429 1 12.57714036598679 6.286484622953684 12.577535903157361 0 0 0
430 1 14.149548907416513 7.859209533296695 14.150446571111882 0 0 0
431 1 15.721941533819999 6.286421308918543 12.577606423477347 0 0 0
432 1 17.2943453724218 7.859198862719681 14.150461730692081 0 0 0
433 1 18.86673828286157 6.286410508347965 12.577617479485097 0 0 0
434 1 20.439131824695842 7.859197923960185 14.15046215022471 0 0 0
435 1 -0.0019778510121937474 9.431985724443036 12.577617811253123 0 0 0
436 1 1.5704151572053413 11.004773501842877 14.15046218954214 0 0 0
437 1 3.142809123933259 9.431986321250132 12.577618040898571 0 0 0