LAMMPS data file via write_data, version 2 Aug 2023, timestep = 26, units = metal

686 atoms
3 atom types

-1.0395867784617095e-06 22.009548036442556 xlo xhi
-1.0395795954648472e-06 22.009548036435373 ylo yhi
-1.039580701691263e-06 22.009548036436478 zlo zhi

Masses

1 183.84
2 1.008
3 4.0026

Atoms # atomic

1 1 -1.037902026611625e-06 -1.0378948408152889e-06 -1.0378959469161288e-06 0 0 0
2 1 1.572109610386254 1.5721096103924106 1.572109610391465 0 0 0
3 1 3.1442202586739536 -1.0378948435312198e-06 -1.0378959476418412e-06 0 0 0
4 1 4.716330906961218 1.5721096103924144 1.5721096103914656 0 0 0
5 1 6.288441555248556 -1.037894840744497e-06 -1.0378959469211957e-06 0 0 0
6 1 7.860552203536218 1.5721096103924117 1.5721096103914651 0 0 0
7 1 9.432662851824261 -1.0378948395011221e-06 -1.0378959495952334e-06 0 0 0
8 1 11.004773500112512 1.572109610392417 1.5721096103914665 0 0 0
9 1 12.57688414840056 -1.0378948434229872e-06 -1.0378959478288595e-06 0 0 0
10 1 14.148994796688225 1.5721096103924117 1.572109610391466 0 0 0
11 1 15.72110544497556 -1.037894841428518e-06 -1.0378959474186342e-06 0 0 0
12 1 17.29321609326282 1.5721096103924121 1.572109610391465 0 0 0
13 1 18.86532674155052 -1.037894843667069e-06 -1.0378959472108177e-06 0 0 0
14 1 20.43743738983881 1.5721096103924124 1.5721096103914662 0 0 0
15 1 -1.0379020287460564e-06 3.1442202586790864 -1.0378959492767465e-06 0 0 0
16 1 1.5721096103862564 4.716330906965326 1.5721096103914671 0 0 0
17 1 3.1442202586739563 3.1442202586790886 -1.0378959509962755e-06 0 0 0
18 1 4.716330906961217 4.716330906965325 1.572109610391466 0 0 0
19 1 6.288441555248551 3.144220258679088 -1.0378959492403662e-06 0 0 0
20 1 7.860552203536217 4.716330906965326 1.5721096103914651 0 0 0
21 1 9.432662851824265 3.1442202586790877 -1.0378959493825305e-06 0 0 0
22 1 11.004773500112512 4.7163309069653225 1.5721096103914673 0 0 0
23 1 12.576884148400556 3.1442202586790904 -1.037895949739785e-06 0 0 0
24 1 14.148994796688221 4.716330906965328 1.5721096103914647 0 0 0
25 1 15.72110544497556 3.1442202586790886 -1.0378959479063893e-06 0 0 0
26 1 17.293216093262828 4.716330906965323 1.5721096103914651 0 0 0
27 1 18.865326741550522 3.14422025867909 -1.03789595145005e-06 0 0 0
28 1 20.437437389838802 4.716330906965325 1.572109610391466 0 0 0
29 1 -1.0379020277261077e-06 6.2884415552516355 -1.0378959488969227e-06 0 0 0
30 1 1.572109610386253 7.860552203538271 1.5721096103914642 0 0 0
31 1 3.1442202586739545 6.288441555251633 -1.037895948790936e-06 0 0 0
32 1 4.716330906961218 7.860552203538271 1.5721096103914665 0 0 0
33 1 6.288441555248556 6.288441555251633 -1.0378959480765916e-06 0 0 0
34 1 7.860552203536218 7.860552203538269 1.572109610391465 0 0 0
35 1 9.432662851824261 6.288441555251635 -1.0378959486191575e-06 0 0 0
36 1 11.004773500112508 7.860552203538276 1.5721096103914658 0 0 0
37 1 12.576884148400564 6.288441555251635 -1.037895949565392e-06 0 0 0
38 1 14.148994796688223 7.860552203538271 1.5721096103914651 0 0 0
39 1 15.72110544497556 6.288441555251634 -1.0378959484042081e-06 0 0 0
40 1 17.29321609326282 7.860552203538273 1.5721096103914642 0 0 0
41 1 18.865326741550522 6.288441555251634 -1.0378959487850178e-06 0 0 0
42 1 20.437437389838802 7.860552203538271 1.572109610391466 0 0 0
43 1 -1.0379020268414533e-06 9.432662851825292 -1.0378959485736126e-06 0 0 0
44 1 1.572109610386256 11.00477350011251 1.5721096103914651 0 0 0
45 1 3.1442202586739536 9.432662851825292 -1.0378959498607054e-06 0 0 0
46 1 4.716330906961217 11.004773500112513 1.5721096103914665 0 0 0
47 1 6.2884415552485535 9.432662851825292 -1.037895949288903e-06 0 0 0
48 1 7.8605522035362165 11.004773500112513 1.5721096103914645 0 0 0
49 1 9.432662851824263 9.43266285182529 -1.0378959488250884e-06 0 0 0
50 1 11.00477350011251 11.004773500112512 1.5721096103914676 0 0 0
51 1 12.576884148400557 9.432662851825294 -1.0378959489408734e-06 0 0 0
52 1 14.148994796688223 11.004773500112515 1.5721096103914676 0 0 0
53 1 15.721105444975558 9.432662851825292 -1.0378959495814048e-06 0 0 0
54 1 17.293216093262824 11.004773500112513 1.5721096103914654 0 0 0
55 1 18.86532674155052 9.432662851825292 -1.0378959491088275e-06 0 0 0
56 1 20.437437389838802 11.004773500112512 1.5721096103914678 0 0 0
57 1 -1.0379020291313425e-06 12.576884148399536 -1.0378959517626696e-06 0 0 0
58 1 1.5721096103862529 14.148994796686175 1.572109610391465 0 0 0
59 1 3.144220258673956 12.576884148399532 -1.0378959497504783e-06 0 0 0
60 1 4.716330906961217 14.148994796686171 1.5721096103914662 0 0 0
61 1 6.288441555248555 12.576884148399534 -1.0378959486794042e-06 0 0 0
62 1 7.860552203536218 14.148994796686173 1.5721096103914654 0 0 0
63 1 9.43266285182426 12.57688414839953 -1.037895949127628e-06 0 0 0
64 1 11.00477350011251 14.148994796686171 1.572109610391464 0 0 0
65 1 12.576884148400556 12.576884148399538 -1.037895949308157e-06 0 0 0
66 1 14.148994796688218 14.148994796686175 1.5721096103914647 0 0 0
67 1 15.721105444975558 12.576884148399534 -1.037895950523055e-06 0 0 0
68 1 17.293216093262824 14.148994796686171 1.572109610391463 0 0 0
69 1 18.86532674155052 12.576884148399532 -1.0378959520509852e-06 0 0 0
70 1 20.437437389838802 14.148994796686175 1.5721096103914645 0 0 0
71 1 -1.0379020282908419e-06 15.721105444972482 -1.0378959465985996e-06 0 0 0
72 1 1.5721096103862553 17.293216093258714 1.5721096103914667 0 0 0
73 1 3.144220258673954 15.721105444972482 -1.0378959457685048e-06 0 0 0
74 1 4.7163309069612165 17.29321609325872 1.5721096103914656 0 0 0
75 1 6.2884415552485535 15.721105444972485 -1.0378959503632956e-06 0 0 0
76 1 7.860552203536216 17.293216093258717 1.5721096103914654 0 0 0
77 1 9.43266285182426 15.721105444972483 -1.0378959477884744e-06 0 0 0
78 1 11.004773500112504 17.29321609325872 1.5721096103914642 0 0 0
79 1 12.576884148400556 15.721105444972476 -1.0378959491883148e-06 0 0 0
80 1 14.148994796688221 17.293216093258717 1.5721096103914676 0 0 0
81 1 15.721105444975558 15.721105444972483 -1.0378959484910146e-06 0 0 0
82 1 17.293216093262824 17.293216093258717 1.5721096103914658 0 0 0
83 1 18.865326741550522 15.721105444972483 -1.0378959466610058e-06 0 0 0
84 1 20.437437389838806 17.293216093258717 1.572109610391467 0 0 0
85 1 -1.0379020303882242e-06 18.865326741545395 -1.0378959538637081e-06 0 0 0
86 1 1.5721096103862549 20.437437389832652 1.5721096103914647 0 0 0
87 1 3.1442202586739554 18.865326741545395 -1.0378959516554496e-06 0 0 0
88 1 4.716330906961219 20.43743738983265 1.5721096103914662 0 0 0
89 1 6.288441555248552 18.865326741545395 -1.0378959481731985e-06 0 0 0
90 1 7.8605522035362165 20.437437389832652 1.572109610391467 0 0 0
91 1 9.432662851824265 18.86532674154539 -1.0378959492021527e-06 0 0 0
92 1 11.00477350011251 20.437437389832645 1.572109610391466 0 0 0
93 1 12.576884148400554 18.865326741545395 -1.0378959498136337e-06 0 0 0
94 1 14.148994796688218 20.43743738983265 1.572109610391467 0 0 0
95 1 15.721105444975557 18.86532674154539 -1.0378959525831582e-06 0 0 0
96 1 17.293216093262824 20.437437389832652 1.5721096103914636 0 0 0
97 1 18.865326741550522 18.865326741545395 -1.0378959508312358e-06 0 0 0
98 1 20.437437389838802 20.43743738983265 1.572109610391467 0 0 0
99 1 -1.0379020288378621e-06 -1.0378948415716334e-06 3.144220258678295 0 0 0
100 1 1.572109610386254 1.5721096103924164 4.716330906964693 0 0 0
101 1 3.1442202586739554 -1.037894843189367e-06 3.1442202586782972 0 0 0
102 1 4.716330906961218 1.5721096103924161 4.716330906964693 0 0 0
103 1 6.288441555248554 -1.037894843060709e-06 3.1442202586782977 0 0 0
104 1 7.860552203536218 1.5721096103924124 4.716330906964695 0 0 0
105 1 9.43266285182426 -1.0378948403449234e-06 3.1442202586782977 0 0 0
106 1 11.004773500112512 1.572109610392418 4.716330906964692 0 0 0
107 1 12.576884148400561 -1.0378948455642856e-06 3.1442202586782972 0 0 0
108 1 14.148994796688223 1.5721096103924133 4.716330906964693 0 0 0
109 1 15.721105444975557 -1.037894841111181e-06 3.144220258678297 0 0 0
110 1 17.29321609326282 1.5721096103924166 4.716330906964692 0 0 0
111 1 18.86532674155052 -1.0378948430313509e-06 3.144220258678295 0 0 0
112 1 20.437437389838802 1.572109610392416 4.716330906964693 0 0 0
113 1 -1.0379020282619689e-06 3.1442202586790864 3.1442202586783012 0 0 0
114 1 1.5721096103862562 4.716330906965322 4.716330906964692 0 0 0
115 1 3.1442202586739563 3.144220258679089 3.144220258678299 0 0 0
116 1 4.7163309069612165 4.7163309069653225 4.716330906964692 0 0 0
117 1 6.288441555248552 3.1442202586790886 3.1442202586782995 0 0 0
118 1 7.860552203536218 4.716330906965324 4.716330906964694 0 0 0
119 1 9.432662851824269 3.1442202586790877 3.144220258678301 0 0 0
120 1 11.00477350011251 4.71633090696532 4.716330906964692 0 0 0
121 1 12.576884148400556 3.144220258679089 3.1442202586782977 0 0 0
122 1 14.148994796688225 4.716330906965325 4.716330906964692 0 0 0
123 1 15.72110544497556 3.144220258679088 3.144220258678298 0 0 0
124 1 17.29321609326282 4.716330906965322 4.716330906964691 0 0 0
125 1 18.86532674155052 3.144220258679089 3.144220258678301 0 0 0
126 1 20.437437389838802 4.716330906965324 4.716330906964694 0 0 0
127 1 -1.0379020294017042e-06 6.288441555251633 3.1442202586782964 0 0 0
128 1 1.572109610386254 7.8605522035382736 4.716330906964693 0 0 0
129 1 3.144220258673955 6.288441555251632 3.1442202586782972 0 0 0
130 1 4.716330906961218 7.860552203538274 4.716330906964694 0 0 0
131 1 6.288441555248555 6.288441555251634 3.1442202586782977 0 0 0
132 1 7.860552203536217 7.860552203538272 4.716330906964695 0 0 0
133 1 9.432662851824261 6.288441555251633 3.1442202586782972 0 0 0
134 1 11.00477350011251 7.860552203538273 4.716330906964692 0 0 0
135 1 12.57688414840056 6.288441555251635 3.1442202586782977 0 0 0
136 1 14.148994796688223 7.860552203538272 4.716330906964694 0 0 0
137 1 15.721105444975558 6.288441555251633 3.1442202586782977 0 0 0
138 1 17.293216093262824 7.860552203538274 4.716330906964695 0 0 0
139 1 18.865326741550522 6.288441555251632 3.1442202586782977 0 0 0
140 1 20.4374373898388 7.860552203538271 4.716330906964694 0 0 0
141 1 -1.0379020289730539e-06 9.43266285182529 3.1442202586782964 0 0 0
142 1 1.5721096103862553 11.004773500112513 4.716330906964691 0 0 0
143 1 3.144220258673956 9.432662851825294 3.1442202586782986 0 0 0
144 1 4.716330906961217 11.004773500112515 4.716330906964691 0 0 0
145 1 6.288441555248553 9.43266285182529 3.1442202586782995 0 0 0
146 1 7.860552203536215 11.004773500112513 4.716330906964693 0 0 0
147 1 9.432662851824265 9.432662851825292 3.144220258678298 0 0 0
148 1 11.004773500112508 11.004773500112512 4.716330906964693 0 0 0
149 1 12.576884148400554 9.432662851825294 3.1442202586782977 0 0 0
150 1 14.148994796688223 11.004773500112515 4.716330906964691 0 0 0
151 1 15.721105444975555 9.432662851825292 3.1442202586782995 0 0 0
152 1 17.293216093262824 11.004773500112515 4.716330906964693 0 0 0
153 1 18.865326741550522 9.432662851825295 3.144220258678296 0 0 0
154 1 20.437437389838802 11.004773500112513 4.716330906964689 0 0 0
155 1 -1.0379020301537147e-06 12.576884148399532 3.1442202586782995 0 0 0
156 1 1.572109610386253 14.148994796686173 4.716330906964695 0 0 0
157 1 3.144220258673957 12.576884148399534 3.1442202586783 0 0 0
158 1 4.716330906961218 14.148994796686171 4.716330906964693 0 0 0
159 1 6.288441555248552 12.576884148399534 3.1442202586782986 0 0 0
160 1 7.860552203536217 14.148994796686173 4.716330906964693 0 0 0
161 1 9.43266285182426 12.576884148399532 3.1442202586782972 0 0 0
162 1 11.004773500112508 14.148994796686173 4.7163309069646955 0 0 0
163 1 12.576884148400557 12.576884148399534 3.1442202586782972 0 0 0
164 1 14.148994796688221 14.148994796686175 4.716330906964693 0 0 0
165 1 15.721105444975555 12.576884148399529 3.1442202586782995 0 0 0
166 1 17.293216093262824 14.14899479668617 4.716330906964694 0 0 0
167 1 18.86532674155052 12.576884148399532 3.1442202586782977 0 0 0
168 1 20.437437389838802 14.148994796686171 4.716330906964693 0 0 0
169 1 -1.0379020278811657e-06 15.72110544497248 3.144220258678297 0 0 0
170 1 1.5721096103862544 17.29321609325872 4.716330906964691 0 0 0
171 1 3.1442202586739523 15.721105444972485 3.144220258678296 0 0 0
172 1 4.716330906961217 17.293216093258717 4.716330906964692 0 0 0
173 1 6.2884415552485535 15.721105444972483 3.1442202586783004 0 0 0
174 1 7.8605522035362165 17.293216093258717 4.716330906964693 0 0 0
175 1 9.43266285182426 15.721105444972485 3.144220258678299 0 0 0
176 1 11.004773500112506 17.293216093258717 4.716330906964694 0 0 0
177 1 12.57688414840056 15.72110544497248 3.144220258678298 0 0 0
178 1 14.148994796688223 17.293216093258717 4.716330906964688 0 0 0
179 1 15.721105444975557 15.721105444972485 3.144220258678297 0 0 0
180 1 17.29321609326282 17.29321609325872 4.716330906964691 0 0 0
181 1 18.86532674155052 15.721105444972487 3.144220258678296 0 0 0
182 1 20.437437389838802 17.293216093258717 4.716330906964691 0 0 0
183 1 -1.0379020305966703e-06 18.865326741545395 3.1442202586783012 0 0 0
184 1 1.5721096103862544 20.43743738983265 4.716330906964693 0 0 0
185 1 3.1442202586739554 18.865326741545392 3.1442202586782986 0 0 0
186 1 4.716330906961218 20.43743738983265 4.716330906964692 0 0 0
187 1 6.288441555248551 18.865326741545395 3.1442202586782977 0 0 0
188 1 7.860552203536217 20.437437389832652 4.716330906964691 0 0 0
189 1 9.432662851824265 18.865326741545392 3.1442202586782964 0 0 0
190 1 11.004773500112508 20.437437389832645 4.716330906964693 0 0 0
191 1 12.576884148400554 18.865326741545392 3.1442202586782977 0 0 0
192 1 14.148994796688221 20.43743738983265 4.716330906964692 0 0 0
193 1 15.721105444975553 18.86532674154539 3.144220258678301 0 0 0
194 1 17.293216093262824 20.437437389832645 4.7163309069646955 0 0 0
195 1 18.865326741550522 18.865326741545392 3.1442202586782995 0 0 0
196 1 20.437437389838806 20.437437389832645 4.716330906964693 0 0 0
197 1 -1.0379020281856052e-06 -1.0378948433022293e-06 6.28844155525116 0 0 0
198 1 1.5721096103862566 1.5721096103924126 7.860552203537957 0 0 0
199 1 3.1442202586739545 -1.0378948421265882e-06 6.288441555251161 0 0 0
200 1 4.716330906961218 1.5721096103924153 7.860552203537956 0 0 0
201 1 6.288441555248555 -1.0378948404410405e-06 6.288441555251161 0 0 0
202 1 7.860552203536218 1.5721096103924108 7.860552203537956 0 0 0
203 1 9.43266285182426 -1.037894842180419e-06 6.288441555251159 0 0 0
204 1 11.004773500112512 1.5721096103924164 7.860552203537956 0 0 0
205 1 12.57688414840056 -1.0378948426639582e-06 6.288441555251162 0 0 0
206 1 14.14899479668822 1.5721096103924106 7.8605522035379565 0 0 0
207 1 15.721105444975555 -1.0378948440583898e-06 6.288441555251162 0 0 0
208 1 17.293216093262828 1.5721096103924153 7.860552203537958 0 0 0
209 1 18.865326741550522 -1.0378948418563855e-06 6.288441555251164 0 0 0
210 1 20.437437389838806 1.5721096103924115 7.8605522035379565 0 0 0
211 1 -1.0379020280014956e-06 3.1442202586790873 6.288441555251158 0 0 0
212 1 1.5721096103862564 4.716330906965324 7.8605522035379565 0 0 0
213 1 3.1442202586739563 3.144220258679088 6.28844155525116 0 0 0
214 1 4.7163309069612165 4.716330906965325 7.860552203537957 0 0 0
215 1 6.288441555248552 3.144220258679087 6.28844155525116 0 0 0
216 1 7.860552203536219 4.716330906965326 7.8605522035379565 0 0 0
217 1 9.432662851824265 3.144220258679088 6.288441555251159 0 0 0
218 1 11.004773500112508 4.716330906965323 7.860552203537959 0 0 0
219 1 12.576884148400556 3.1442202586790877 6.288441555251161 0 0 0
220 1 14.148994796688225 4.716330906965326 7.8605522035379565 0 0 0
221 1 15.72110544497556 3.1442202586790895 6.288441555251159 0 0 0
222 1 17.293216093262824 4.7163309069653225 7.860552203537959 0 0 0
223 1 18.86532674155052 3.1442202586790873 6.28844155525116 0 0 0
224 1 20.437437389838802 4.716330906965326 7.8605522035379565 0 0 0
225 1 -1.0379020319629038e-06 6.2884415552516355 6.288441555251163 0 0 0
226 1 1.5721096103862549 7.860552203538272 7.860552203537956 0 0 0
227 1 3.1442202586739554 6.288441555251635 6.288441555251163 0 0 0
228 1 4.716330906961217 7.860552203538273 7.8605522035379565 0 0 0
229 1 6.288441555248555 6.288441555251635 6.288441555251162 0 0 0
230 1 7.860552203536217 7.860552203538271 7.860552203537956 0 0 0
231 1 9.43266285182426 6.288441555251633 6.288441555251161 0 0 0
232 1 11.004773500112512 7.860552203538273 7.8605522035379565 0 0 0
233 1 12.576884148400564 6.2884415552516355 6.288441555251161 0 0 0
234 1 14.148994796688223 7.86055220353827 7.860552203537955 0 0 0
235 1 15.721105444975555 6.288441555251634 6.288441555251161 0 0 0
236 1 17.29321609326282 7.860552203538275 7.860552203537956 0 0 0
237 1 18.865326741550525 6.288441555251635 6.288441555251162 0 0 0
238 1 20.437437389838806 7.860552203538271 7.860552203537952 0 0 0
239 1 -1.0379020272653033e-06 9.432662851825288 6.28844155525116 0 0 0
240 1 1.572109610386255 11.004773500112513 7.860552203537958 0 0 0
241 1 3.1442202586739545 9.432662851825292 6.28844155525116 0 0 0
242 1 4.716330906961217 11.004773500112513 7.860552203537957 0 0 0
243 1 6.288441555248553 9.432662851825292 6.288441555251161 0 0 0
244 1 7.860552203536218 11.004773500112515 7.860552203537957 0 0 0
245 1 9.432662851824265 9.432662851825292 6.28844155525116 0 0 0
246 1 11.004773500112508 11.004773500112513 7.8605522035379565 0 0 0
247 1 12.576884148400556 9.43266285182529 6.288441555251161 0 0 0
248 1 14.14899479668822 11.004773500112515 7.860552203537958 0 0 0
249 1 15.721105444975557 9.43266285182529 6.28844155525116 0 0 0
250 1 17.293216093262824 11.004773500112512 7.860552203537958 0 0 0
251 1 18.86532674155052 9.43266285182529 6.288441555251162 0 0 0
252 1 20.437437389838802 11.004773500112515 7.860552203537958 0 0 0
253 1 -1.0379020275529409e-06 12.576884148399536 6.28844155525116 0 0 0
254 1 1.5721096103862562 14.148994796686175 7.860552203537956 0 0 0
255 1 3.1442202586739563 12.576884148399532 6.288441555251161 0 0 0
256 1 4.716330906961216 14.148994796686173 7.860552203537958 0 0 0
257 1 6.288441555248552 12.576884148399536 6.288441555251161 0 0 0
258 1 7.860552203536217 14.148994796686171 7.8605522035379565 0 0 0
259 1 9.43266285182426 12.576884148399536 6.28844155525116 0 0 0
260 1 11.00477350011251 14.14899479668617 7.860552203537952 0 0 0
261 1 12.576884148400554 12.576884148399536 6.288441555251161 0 0 0
262 1 14.148994796688218 14.148994796686171 7.860552203537956 0 0 0
263 1 15.72110544497556 12.576884148399536 6.288441555251159 0 0 0
264 1 17.29321609326282 14.14899479668617 7.860552203537951 0 0 0
265 1 18.86532674155052 12.576884148399534 6.28844155525116 0 0 0
266 1 20.437437389838802 14.148994796686175 7.860552203537956 0 0 0
267 1 -1.0379020297591318e-06 15.72110544497248 6.288441555251163 0 0 0
268 1 1.5721096103862557 17.293216093258717 7.8605522035379565 0 0 0
269 1 3.1442202586739536 15.721105444972482 6.288441555251162 0 0 0
270 1 4.716330906961216 17.293216093258724 7.8605522035379565 0 0 0
271 1 6.2884415552485535 15.721105444972485 6.288441555251159 0 0 0
272 1 7.860552203536217 17.29321609325872 7.860552203537957 0 0 0
273 1 9.432662851824261 15.721105444972483 6.288441555251161 0 0 0
274 1 11.004773500112508 17.293216093258717 7.860552203537957 0 0 0
275 1 12.576884148400557 15.72110544497248 6.288441555251162 0 0 0
276 1 14.14899479668822 17.293216093258714 7.86055220353796 0 0 0
277 1 15.721105444975558 15.72110544497248 6.288441555251162 0 0 0
278 1 17.29321609326282 17.29321609325872 7.860552203537958 0 0 0
279 1 18.86532674155052 15.721105444972483 6.288441555251162 0 0 0
280 1 20.4374373898388 17.29321609325872 7.86055220353796 0 0 0
281 1 -1.0379020286370185e-06 18.865326741545395 6.288441555251158 0 0 0
282 1 1.5721096103862555 20.43743738983265 7.860552203537954 0 0 0
283 1 3.144220258673955 18.865326741545395 6.288441555251161 0 0 0
284 1 4.716330906961216 20.43743738983265 7.860552203537957 0 0 0
285 1 6.288441555248551 18.865326741545395 6.288441555251161 0 0 0
286 1 7.860552203536217 20.437437389832652 7.860552203537955 0 0 0
287 1 9.432662851824265 18.865326741545395 6.288441555251163 0 0 0
288 1 11.004773500112508 20.43743738983265 7.860552203537956 0 0 0
289 1 12.576884148400552 18.865326741545395 6.28844155525116 0 0 0
290 1 14.148994796688221 20.437437389832652 7.860552203537956 0 0 0
291 1 15.721105444975558 18.865326741545395 6.288441555251159 0 0 0
292 1 17.29321609326282 20.43743738983265 7.860552203537951 0 0 0
293 1 18.86532674155052 18.8653267415454 6.288441555251159 0 0 0
294 1 20.437437389838806 20.437437389832652 7.8605522035379565 0 0 0
295 1 -1.037902029321391e-06 -1.0378948411859789e-06 9.432662851825134 0 0 0
296 1 1.572109610386253 1.5721096103924141 11.004773500112513 0 0 0
297 1 3.144220258673955 -1.0378948415622347e-06 9.432662851825134 0 0 0
298 1 4.716330906961218 1.572109610392416 11.004773500112513 0 0 0
299 1 6.288441555248557 -1.037894841654689e-06 9.432662851825134 0 0 0
300 1 7.8605522035362165 1.572109610392413 11.004773500112515 0 0 0
301 1 9.432662851824261 -1.0378948424277645e-06 9.432662851825135 0 0 0
302 1 11.004773500112512 1.572109610392418 11.004773500112512 0 0 0
303 1 12.576884148400563 -1.0378948406289484e-06 9.432662851825135 0 0 0
304 1 14.148994796688223 1.5721096103924137 11.004773500112512 0 0 0
305 1 15.721105444975555 -1.037894842078911e-06 9.432662851825134 0 0 0
306 1 17.29321609326282 1.5721096103924137 11.00477350011251 0 0 0
307 1 18.865326741550522 -1.0378948395617352e-06 9.432662851825132 0 0 0
308 1 20.437437389838802 1.5721096103924146 11.004773500112513 0 0 0
309 1 -1.0379020270008802e-06 3.1442202586790886 9.432662851825135 0 0 0
310 1 1.5721096103862544 4.716330906965323 11.004773500112512 0 0 0
311 1 3.1442202586739554 3.144220258679089 9.432662851825132 0 0 0
312 1 4.7163309069612165 4.7163309069653225 11.004773500112513 0 0 0
313 1 6.288441555248551 3.1442202586790886 9.432662851825135 0 0 0
314 1 7.860552203536218 4.716330906965326 11.004773500112513 0 0 0
315 1 9.432662851824265 3.144220258679089 9.432662851825137 0 0 0
316 1 11.004773500112506 4.7163309069653225 11.004773500112512 0 0 0
317 1 12.576884148400554 3.1442202586790886 9.432662851825134 0 0 0
318 1 14.148994796688223 4.716330906965326 11.004773500112513 0 0 0
319 1 15.721105444975562 3.1442202586790895 9.432662851825134 0 0 0
320 1 17.29321609326282 4.7163309069653225 11.00477350011251 0 0 0
321 1 18.86532674155052 3.1442202586790873 9.432662851825132 0 0 0
322 1 20.437437389838802 4.716330906965324 11.004773500112515 0 0 0
323 1 -1.0379020285277365e-06 6.288441555251631 9.432662851825135 0 0 0
324 1 1.5721096103862553 7.860552203538273 11.004773500112513 0 0 0
325 1 3.1442202586739567 6.288441555251634 9.432662851825132 0 0 0
326 1 4.716330906961218 7.860552203538273 11.004773500112515 0 0 0
327 1 6.288441555248554 6.288441555251634 9.432662851825137 0 0 0
328 1 7.8605522035362165 7.860552203538271 11.004773500112517 0 0 0
329 1 9.43266285182426 6.288441555251632 9.432662851825134 0 0 0
330 1 11.00477350011251 7.860552203538274 11.004773500112513 0 0 0
331 1 12.57688414840056 6.288441555251634 9.432662851825134 0 0 0
332 1 14.148994796688223 7.860552203538268 11.004773500112517 0 0 0
333 1 15.721105444975558 6.288441555251634 9.432662851825134 0 0 0
334 1 17.293216093262824 7.8605522035382736 11.004773500112517 0 0 0
335 1 18.865326741550522 6.288441555251632 9.432662851825134 0 0 0
336 1 20.437437389838802 7.860552203538271 11.004773500112517 0 0 0
337 1 -1.0379020266006721e-06 9.432662851825294 9.432662851825134 0 0 0
338 1 1.5721096103862535 11.004773500112512 11.004773500112513 0 0 0
339 1 3.144220258673955 9.432662851825294 9.432662851825134 0 0 0
340 1 4.716330906961218 11.004773500112512 11.004773500112513 0 0 0
341 1 6.2884415552485535 9.432662851825294 9.432662851825137 0 0 0
342 1 7.860552203536218 11.004773500112513 11.004773500112513 0 0 0
343 1 9.432662851824263 9.432662851825292 9.432662851825134 0 0 0
344 1 11.00477350011251 11.004773500112513 11.004773500112515 0 0 0
345 1 12.576884148400556 9.432662851825294 9.432662851825134 0 0 0
346 1 14.148994796688225 11.004773500112515 11.004773500112512 0 0 0
347 1 15.721105444975557 9.432662851825294 9.432662851825135 0 0 0
348 1 17.293216093262824 11.004773500112515 11.004773500112512 0 0 0
349 1 18.86532674155052 9.432662851825294 9.432662851825134 0 0 0
350 1 20.437437389838802 11.004773500112515 11.00477350011251 0 0 0
351 1 -1.0379020290100343e-06 12.576884148399532 9.432662851825134 0 0 0
352 1 1.5721096103862564 14.148994796686175 11.004773500112513 0 0 0
353 1 3.1442202586739554 12.576884148399534 9.432662851825134 0 0 0
354 1 4.716330906961217 14.148994796686175 11.004773500112513 0 0 0
355 1 6.2884415552485535 12.576884148399532 9.432662851825135 0 0 0
356 1 7.860552203536216 14.148994796686173 11.004773500112513 0 0 0
357 1 9.432662851824258 12.576884148399534 9.432662851825135 0 0 0
358 1 11.00477350011251 14.148994796686171 11.004773500112517 0 0 0
359 1 12.576884148400557 12.576884148399529 9.432662851825134 0 0 0
360 1 14.148994796688223 14.14899479668617 11.004773500112513 0 0 0
361 1 15.721105444975553 12.576884148399529 9.432662851825135 0 0 0
362 1 17.29321609326282 14.148994796686171 11.004773500112517 0 0 0
363 1 18.865326741550522 12.57688414839953 9.432662851825135 0 0 0
364 1 20.437437389838806 14.148994796686171 11.004773500112515 0 0 0
365 1 -1.0379020289373084e-06 15.721105444972487 9.432662851825134 0 0 0
366 1 1.5721096103862513 17.29321609325872 11.004773500112513 0 0 0
367 1 3.144220258673955 15.721105444972483 9.432662851825135 0 0 0
368 1 4.71633090696122 17.29321609325872 11.004773500112515 0 0 0
369 1 6.288441555248556 15.721105444972483 9.432662851825135 0 0 0
370 1 7.860552203536218 17.293216093258717 11.004773500112512 0 0 0
371 1 9.432662851824261 15.721105444972485 9.432662851825135 0 0 0
372 1 11.004773500112506 17.29321609325872 11.004773500112515 0 0 0
373 1 12.576884148400557 15.721105444972483 9.432662851825135 0 0 0
374 1 14.148994796688225 17.29321609325872 11.004773500112512 0 0 0
375 1 15.721105444975555 15.721105444972485 9.432662851825134 0 0 0
376 1 17.293216093262817 17.293216093258717 11.004773500112512 0 0 0
377 1 18.865326741550522 15.721105444972483 9.432662851825134 0 0 0
378 1 20.437437389838806 17.293216093258724 11.004773500112512 0 0 0
379 1 -1.0379020295829193e-06 18.865326741545395 9.432662851825135 0 0 0
380 1 1.572109610386254 20.437437389832652 11.004773500112512 0 0 0
381 1 3.1442202586739567 18.865326741545395 9.432662851825135 0 0 0
382 1 4.716330906961217 20.43743738983265 11.004773500112513 0 0 0
383 1 6.288441555248552 18.865326741545392 9.432662851825132 0 0 0
384 1 7.860552203536217 20.437437389832652 11.004773500112513 0 0 0
385 1 9.432662851824263 18.865326741545392 9.432662851825135 0 0 0
386 1 11.004773500112506 20.43743738983265 11.004773500112513 0 0 0
387 1 12.576884148400554 18.865326741545392 9.432662851825134 0 0 0
388 1 14.148994796688221 20.43743738983265 11.004773500112513 0 0 0
389 1 15.721105444975555 18.865326741545392 9.432662851825137 0 0 0
390 1 17.293216093262824 20.43743738983265 11.004773500112517 0 0 0
391 1 18.865326741550522 18.865326741545395 9.432662851825134 0 0 0
392 1 20.437437389838806 20.43743738983265 11.004773500112513 0 0 0
393 1 -1.0379020273731086e-06 -1.037894840136752e-06 12.576884148399692 0 0 0
394 1 1.5721096103862549 1.5721096103924137 14.14899479668649 0 0 0
395 1 3.1442202586739545 -1.0378948429001813e-06 12.576884148399692 0 0 0
396 1 4.716330906961218 1.5721096103924166 14.148994796686488 0 0 0
397 1 6.288441555248555 -1.0378948399857887e-06 12.576884148399694 0 0 0
398 1 7.860552203536216 1.5721096103924128 14.14899479668649 0 0 0
399 1 9.43266285182426 -1.0378948427122732e-06 12.57688414839969 0 0 0
400 1 11.00477350011251 1.5721096103924141 14.14899479668649 0 0 0
401 1 12.57688414840056 -1.0378948402465854e-06 12.576884148399692 0 0 0
402 1 14.148994796688221 1.5721096103924146 14.148994796686486 0 0 0
403 1 15.721105444975557 -1.0378948416085755e-06 12.576884148399694 0 0 0
404 1 17.293216093262828 1.5721096103924155 14.148994796686488 0 0 0
405 1 18.86532674155052 -1.037894843742795e-06 12.576884148399694 0 0 0
406 1 20.437437389838802 1.5721096103924168 14.148994796686488 0 0 0
407 1 -1.0379020305355883e-06 3.1442202586790877 12.57688414839969 0 0 0
408 1 1.5721096103862577 4.716330906965325 14.14899479668649 0 0 0
409 1 3.144220258673956 3.14422025867909 12.576884148399696 0 0 0
410 1 4.716330906961216 4.716330906965323 14.148994796686491 0 0 0
411 1 6.288441555248551 3.1442202586790873 12.576884148399694 0 0 0
412 1 7.860552203536218 4.716330906965324 14.148994796686491 0 0 0
413 1 9.432662851824263 3.1442202586790886 12.576884148399689 0 0 0
414 1 11.00477350011251 4.7163309069653225 14.148994796686493 0 0 0
415 1 12.576884148400556 3.144220258679088 12.576884148399696 0 0 0
416 1 14.14899479668822 4.716330906965325 14.148994796686491 0 0 0
417 1 15.721105444975557 3.1442202586790877 12.576884148399689 0 0 0
418 1 17.29321609326282 4.716330906965321 14.148994796686491 0 0 0
419 1 18.865326741550522 3.144220258679089 12.576884148399692 0 0 0
420 1 20.437437389838802 4.716330906965323 14.148994796686488 0 0 0
421 1 -1.0379020291809011e-06 6.2884415552516355 12.576884148399692 0 0 0
422 1 1.5721096103862564 7.860552203538273 14.14899479668649 0 0 0
423 1 3.144220258673955 6.288441555251634 12.576884148399694 0 0 0
424 1 4.716330906961217 7.860552203538272 14.148994796686488 0 0 0
425 1 6.288441555248554 6.288441555251635 12.576884148399694 0 0 0
426 1 7.860552203536219 7.860552203538271 14.14899479668649 0 0 0
427 1 9.43266285182426 6.288441555251633 12.576884148399696 0 0 0
428 1 11.00477350011251 7.860552203538275 14.148994796686484 0 0 0
429 1 12.576884148400561 6.288441555251635 12.576884148399692 0 0 0
430 1 14.148994796688221 7.86055220353827 14.148994796686488 0 0 0
431 1 15.721105444975558 6.288441555251634 12.576884148399689 0 0 0
432 1 17.29321609326282 7.860552203538274 14.148994796686488 0 0 0
433 1 18.865326741550522 6.2884415552516355 12.576884148399694 0 0 0