LAMMPS data file via write_data, version 2 Aug 2023, timestep = 120, units = metal

690 atoms
3 atom types

0.0011169298619360334 22.008430066993842 xlo xhi
0.00023344978972697334 22.009313547066046 ylo yhi
0.0023054176205525847 22.007241579235238 zlo zhi

Masses

1 183.84
2 1.008
3 4.0026

Atoms # atomic

1 1 22.008430037887525 22.009313516214046 0.0023054503973453395 -1 -1 0
2 1 1.5730678604779536 1.5723105682822065 1.5740865629459704 0 0 0
3 1 3.1450189044418813 22.009313524771784 0.0023055106077386773 0 -1 0
4 1 4.716970468472308 1.5723116266527402 1.5740872895674962 0 0 0
5 1 6.288921131562583 22.009313283249945 0.0023058684611499984 0 -1 0
6 1 7.860874605357748 1.5723145765846849 1.5740898628711224 0 0 0
7 1 9.432822082676138 0.00023378011347410303 22.007241319021524 0 0 -1
8 1 11.004773305549739 1.5723108852032612 1.5740867029223093 0 0 0
9 1 12.576724658727741 0.00023351173969325632 0.0023054818983703246 0 0 0
10 1 14.148673870394793 1.5723143487913436 1.5740889628435222 0 0 0
11 1 15.720626335768609 0.00023354389791894128 0.0023055175010886194 0 0 0
12 1 17.29257535164114 1.572312853205322 1.5740885103146784 0 0 0
13 1 18.864527922771124 22.009313432302946 0.002305668576954921 0 -1 0
14 1 20.436479052436294 1.572310759249672 1.574086647425484 0 0 0
15 1 22.008429934857155 3.1443878814625528 0.0023055445900584137 -1 0 0
16 1 1.5730680885959492 4.7164649769098315 1.5740866568145662 0 0 0
17 1 3.145019513248942 3.144388411092196 0.002306069613293062 0 0 0
18 1 4.716985062502643 4.7164788933648465 1.5741005924579 0 0 0
19 1 6.288923250130279 3.1443905877394127 0.002308281310922407 0 0 0
20 1 7.860922489697924 4.716518834323136 1.574139827202773 0 0 0
21 1 9.43282214357213 3.144387824195487 0.0023054588900362906 0 0 0
22 1 11.004786728452675 4.716479395025465 1.5741004727588994 0 0 0
23 1 12.576725460473387 3.144385761145603 22.00723965963265 0 0 -1
24 1 14.148627039273082 4.716518998583291 1.574140376084726 0 0 0
25 1 15.720624100563025 3.144390411938157 0.0023080849201904635 0 0 0
26 1 17.29254115963857 4.716502268927465 1.5741228847866398 0 0 0
27 1 18.864526390020128 3.1443895849003365 0.002307232505926447 0 0 0
28 1 20.4364755376371 4.716467547972925 1.5740892244748081 0 0 0
29 1 22.008429667237117 6.288542396586285 0.0023058318342023703 -1 0 0
30 1 1.5730690931290952 7.860620515934038 1.5740879564367887 0 0 0
31 1 3.1450192959361365 6.288542183219936 22.007241506011304 0 0 -1
32 1 4.7169818654349545 7.860626093288491 1.5740865726859952 0 0 0
33 1 6.288934281711234 6.2885550834970845 0.0023253444759047735 0 0 0
34 1 7.861016178097901 7.860748842097707 1.5743327926097828 0 0 0
35 1 9.432862672009335 6.288584414330561 0.002382153845128041 0 0 0
36 1 11.004952673014126 7.861098460214816 1.575169261465612 0 0 0
37 1 12.576700169115124 6.2885695105935175 0.0023751018866395588 0 0 0
38 1 14.148429597996351 7.860868016476317 1.5746189261021046 0 0 0
39 1 15.72060185893094 6.288566498931963 0.002348876771969047 0 0 0
40 1 17.29247679501003 7.860713590940508 1.5741969813337984 0 0 0
41 1 18.864522674196646 6.288547043139918 0.0023115413344023837 0 0 0
42 1 20.436468578046657 7.860626123615541 1.574094415039561 0 0 0
43 1 0.0011172324349340743 9.432695953170056 22.00724138796952 0 0 -1
44 1 1.5730682610537206 11.004773261559786 1.5740866992735019 0 0 0
45 1 3.1450192972091293 9.432696530381483 0.002305753742726503 0 0 0
46 1 4.71697763732829 11.004775220868515 1.5740882951665351 0 0 0
47 1 6.288938566502516 9.43271114770807 0.002325246030931179 0 0 0
48 1 7.86119256502844 11.004802321874823 1.5745498963390787 0 0 0
49 1 9.432858802356414 9.432713687864071 0.0025093985703045457 0 0 0
50 1 11.005054461099125 11.004766875745833 1.5745070250298765 0 0 0
51 1 12.576729575009502 9.432724678677332 0.002790807697454407 0 0 0
52 1 14.148101237577391 11.004819998502596 1.575891250541641 0 0 0
53 1 15.720568343985484 9.432750207715685 0.002442928379065126 0 0 0
54 1 17.292516648273676 11.004803791150785 1.5742030153168267 0 0 0
55 1 18.86452704897159 9.432698019896023 0.002308854451260935 0 0 0
56 1 20.43648251983994 11.004770427450824 1.574083154632147 0 0 0
57 1 0.0011170072317281156 12.57685080646173 0.002305461715692032 0 0 0
58 1 1.5730696460652445 14.148926833884442 1.5740877189660114 0 0 0
59 1 3.1450190547960624 12.576850528335191 0.002305519064595437 0 0 0
60 1 4.716983267834988 14.148921135262114 1.5740874586439142 0 0 0
61 1 6.2889357599419515 12.57683637166772 0.0023231481623816673 0 0 0
62 1 7.8610066383848825 14.148808586646682 1.5743281187627434 0 0 0
63 1 9.432879795725315 12.57685397520516 0.002545000960944562 0 0 0
64 1 11.004960787351761 14.148468079079155 1.5758074428136646 0 0 0
65 1 12.576709517730391 12.57684357767995 0.0028167230976032112 0 0 0
66 1 14.148449962031973 14.148700620040412 1.5746591714474492 0 0 0
67 1 15.720568594450933 12.576801048040041 0.0024756512736098576 0 0 0
68 1 17.2924581835107 14.148815152105719 1.5742560251246043 0 0 0
69 1 18.864529767339462 12.576851438644406 22.007238941433286 0 0 -1
70 1 20.436476595719675 14.148927556874849 1.5740871411575217 0 0 0
71 1 22.008430029386094 15.721004975858834 0.0023055026819588566 -1 0 0
72 1 1.5730676301622586 17.293082061025885 1.5740866693908855 0 0 0
73 1 3.145019287521974 15.7210049127671 22.007241451623024 0 0 -1
74 1 4.716987674287996 17.293067129924314 1.5741037463689016 0 0 0
75 1 6.288932086408641 15.720993962979865 0.0023232771180108957 0 0 0
76 1 7.860972274744745 17.292976779258932 1.5741996465292136 0 0 0
77 1 9.43288339799597 15.720943276699252 0.002439993598165121 0 0 0
78 1 11.004820057575932 17.29304154959202 1.5741718466000068 0 0 0
79 1 12.576682606711065 15.720955536944102 0.0024738378022260183 0 0 0
80 1 14.148550735883907 17.292950958281597 1.5742575521249342 0 0 0
81 1 15.720603079971351 15.720981005717439 0.0023523193219165328 0 0 0
82 1 17.292539691373605 17.29304485806098 1.5741247685705309 0 0 0
83 1 18.864520596951028 15.720998062480366 0.0023158098053323414 0 0 0
84 1 20.43647216901311 17.29307650625164 1.5740924340397002 0 0 0
85 1 22.008429803374877 18.865159019263043 0.002305670844589751 -1 0 0
86 1 1.5730680098357588 20.43723626529702 1.5740867200418214 0 0 0
87 1 3.1450196891317277 18.865158468978958 0.002306279095370088 0 0 0
88 1 4.71697123966274 20.43723480492111 1.5740880483512865 0 0 0
89 1 6.288926146604677 18.86515345346463 0.0023116571811080547 0 0 0
90 1 7.86087868983602 20.437226014770005 1.5740932728618042 0 0 0
91 1 9.432823364947554 18.86515839844456 0.0023075405016226656 0 0 0
92 1 11.004770108278015 20.437241363623635 1.574082158799313 0 0 0
93 1 12.576726846675772 18.86516335557771 22.007235367894612 0 0 -1
94 1 14.148675879511707 20.437234632949924 1.5740857325419193 0 0 0
95 1 15.720618924848338 18.865151230004944 0.002315158996887852 0 0 0
96 1 17.292572370090706 20.437230423302623 1.5740909849157967 0 0 0
97 1 18.864526179893325 18.8651572632133 0.002307528259835633 0 0 0
98 1 20.43647836313206 20.437235609544928 1.5740872755747035 0 0 0
99 1 0.001116980383605181 0.00023347839062455434 3.1458677009375102 0 0 0
100 1 1.573067895260086 1.5723106424708948 4.7176488665102045 0 0 0
101 1 3.14501892126103 22.009313311937998 3.145867860062961 0 -1 0
102 1 4.716970392029396 1.5723103181036389 4.717649386165253 0 0 0
103 1 6.288920574083122 0.00023406838918111071 3.1458676592232777 0 0 0
104 1 7.860874675700216 1.5723251914438896 4.717651598257013 0 0 0
105 1 9.432829274963504 22.009305526607143 3.1458750719142556 0 -1 0
106 1 11.004783903670027 1.5723696699338743 4.7176660509760096 0 0 0
107 1 12.576722716883326 22.009312878183096 3.1458712856841355 0 -1 0
108 1 14.148661981139544 1.5723414200456638 4.717662492668974 0 0 0
109 1 15.720620346801358 22.00930691502327 3.145873460434779 0 -1 0
110 1 17.29257657940873 1.5723163223524623 4.71764919943999 0 0 0
111 1 18.864529104811467 0.00023432378003617588 3.1458668013045172 0 0 0
112 1 20.4364790846784 1.5723105020711916 4.717648909444169 0 0 0
113 1 22.008429941485446 3.1443879187258887 3.1458678841247587 -1 0 0
114 1 1.5730690270440926 4.7164659820751424 4.717649870907226 0 0 0
115 1 3.1450187338310096 3.144387137076605 3.1458675737123465 0 0 0
116 1 4.716974661919351 4.716458527534418 4.717650685893831 0 0 0
117 1 6.288931874713404 3.144405581183584 3.145879008179604 0 0 0
118 1 7.860984725971394 4.716684165868632 4.717747850542361 0 0 0
119 1 9.432862277674143 3.144465334170995 3.1459100570821477 0 0 0
120 1 11.004940463559716 4.717543929149919 4.718103252334299 0 0 0
121 1 12.576700692635985 3.1444594285955243 3.1458960676825347 0 0 0
122 1 14.148438513406813 4.717008533259562 4.717883949862213 0 0 0
123 1 15.720602088935378 3.14443257190905 3.1458927886012016 0 0 0
124 1 17.292518215520218 4.716535813229028 4.717703405973809 0 0 0
125 1 18.86452542604262 3.144391288174911 3.1458705440919466 0 0 0
126 1 20.43647420234938 4.716468515346598 4.71765241220386 0 0 0
127 1 22.008426182695356 6.288543023894778 3.1458688019451744 -1 0 0
128 1 1.573054283458151 7.860607482311839 4.717637393420063 0 0 0
129 1 3.1450218674359207 6.288536856706192 3.145862744766114 0 0 0
130 1 4.716950666353004 7.860462553170022 4.717492836111519 0 0 0
131 1 6.289161863886336 6.288761096508647 3.1460849653265344 0 0 0
132 1 7.863407250490869 7.8629150441403945 4.719890183517091 0 0 0
133 1 9.43349503463615 6.289314271874758 3.1466190789838806 0 0 0
134 1 11.005469329456272 7.870472057803245 4.727351821272609 0 0 0
135 1 12.576215505850838 6.289418244834975 3.146714465545428 0 0 0
136 1 14.143678583118101 7.866001513508851 4.722720808860934 0 0 0
137 1 15.720099378761189 6.28909543844121 3.146394696315472 0 0 0
138 1 17.291790306633423 7.861170558775949 4.718176954959262 0 0 0
139 1 18.864466136817715 6.2885871155351385 3.14591324501295 0 0 0
140 1 20.43642852230049 7.860635070244523 4.717666122312851 0 0 0
141 1 22.008419684699536 9.432701839801451 3.145874090430311 -1 0 0
142 1 1.5730851900103988 11.004776586649934 4.717659678505848 0 0 0
143 1 3.1450531623257487 9.432713047457257 3.1458824546910384 0 0 0
144 1 4.7174180461669355 11.004804106553765 4.71788479638255 0 0 0
145 1 6.289182443517252 9.432846898085005 3.145931609738068 0 0 0
146 1 7.864596476689115 11.004946962089821 4.72078860644204 0 0 0
147 1 9.433349255198703 9.433062676868776 3.1482124033705214 0 0 0
148 1 11.008295047655004 11.004401868940906 4.702747010299566 0 0 0
149 1 12.57696506565857 9.43346502860295 3.1520655882021895 0 0 0
150 1 14.1375951811437 11.00697781605783 4.734968806985401 0 0 0
151 1 15.719228028940949 9.43376411701766 3.147420231823426 0 0 0
152 1 17.290043550667654 11.005758215377012 4.719334732438031 0 0 0
153 1 18.864336002171843 9.432814990531323 3.145993005792085 0 0 0
154 1 20.436286280728897 11.004818181375994 4.7177101368777965 0 0 0
155 1 22.008427641755265 12.576848651631241 3.145870260395814 -1 0 0
156 1 1.5730471740156797 14.14893872866149 4.717639275365739 0 0 0
157 1 3.1450510796645594 12.576834037246586 3.145879439183781 0 0 0
158 1 4.716924283605929 14.149107950745183 4.71746845497885 0 0 0
159 1 6.289209639244043 12.576715879605933 3.1459580777495564 0 0 0
160 1 7.8633439642541125 14.14688670520212 4.719905806322551 0 0 0
161 1 9.433729680170739 12.576784134050051 3.1486011793680184 0 0 0
162 1 11.006080120182027 14.135654439087588 4.7354979822848025 0 0 0
163 1 12.57667322232946 12.576648847002721 3.1508184063607994 0 0 0
164 1 14.144446679405775 14.144694137133127 4.7224376035850275 0 0 0
165 1 15.719126365662113 12.57599867196356 3.14808580013585 0 0 0
166 1 17.290922962633488 14.147607439939687 4.718911976916251 0 0 0
167 1 18.864442008518015 12.576803859124567 3.145896750253099 0 0 0
168 1 20.43633199113852 14.14886413451856 4.717708278327901 0 0 0
169 1 22.00841996799366 15.721000641530072 3.1458720899183477 -1 0 0
170 1 1.5730751109137247 17.29307873740555 4.717652183260502 0 0 0
171 1 3.1450180124682126 15.721013370084435 3.1458596774286116 0 0 0
172 1 4.717054316939331 17.293019310160755 4.717719309985654 0 0 0
173 1 6.2891826333127465 15.720793847605991 3.1461168858001956 0 0 0
174 1 7.861265769917641 17.29263848279828 4.718009358606416 0 0 0
175 1 9.434066549922631 15.719639714960042 3.147372049273884 0 0 0
176 1 11.005929216353852 17.290594457369497 4.719028791113061 0 0 0
177 1 12.575750796043156 15.719353202269502 3.1482892003678997 0 0 0
178 1 14.147399923542308 17.291500077617624 4.718711021239885 0 0 0
179 1 15.720109010255324 15.72048715696133 3.1464145836400528 0 0 0
180 1 17.29236681449992 17.29286756323052 4.7178197212248 0 0 0
181 1 18.86440307439499 15.72090115717351 3.145972353159663 0 0 0
182 1 20.43647413246237 17.29308162762081 4.7176504382008195 0 0 0
183 1 22.00842997822125 18.865158876620992 3.14586810492281 -1 0 0
184 1 1.5730677120476366 20.437236425855325 4.7176488328148665 0 0 0
185 1 3.1450230907011 18.865156098697877 3.145871297665444 0 0 0
186 1 4.716972564494396 20.437231001057746 4.717652586653626 0 0 0
187 1 6.2889487234228945 18.865129074059436 3.1458953351344467 0 0 0
188 1 7.860855007859169 20.437236576815028 4.717632760362443 0 0 0
189 1 9.43294415619625 18.864974878806404 3.145974329126777 0 0 0
190 1 11.004819761049909 20.437056614339827 4.7176993658966655 0 0 0
191 1 12.576685812123113 18.865087380504672 3.1458603919566284 0 0 0
192 1 14.14862027008146 20.43710313694428 4.717697904806692 0 0 0
193 1 15.720531693952745 18.86504298120078 3.1459503793917176 0 0 0
194 1 17.292599947371713 20.437253328332496 4.717627001007456 0 0 0
195 1 18.86451311282378 18.86514390854044 3.145880960090017 0 0 0
196 1 20.436479824146986 20.437236396610132 4.7176489272956506 0 0 0
197 1 0.0011169477499131098 0.0002334505983084301 6.289429992940183 0 0 0
198 1 1.5730678283253017 1.5723105666022985 7.861211173712526 0 0 0
199 1 3.145018547291083 0.00023377433078660987 6.289429733474173 0 0 0
200 1 4.716968951820314 1.5723100442075293 7.861211343630917 0 0 0
201 1 6.288925129919931 22.009306346341763 6.289433991739821 0 -1 0
202 1 7.860880768449526 1.572328426270501 7.861212224143364 0 0 0
203 1 9.432804899718604 0.0002577875194128926 6.289410778488185 0 0 0
204 1 11.004766482475294 1.5723692788916268 7.8611878427699695 0 0 0
205 1 12.576720132094279 22.009255297153317 6.289432538299549 0 -1 0
206 1 14.148675766213847 1.5723977931434574 7.86118815985557 0 0 0
207 1 15.720645196230272 0.00026517273814718117 6.289410178510928 0 0 0
208 1 17.292575628395586 1.572314014047734 7.861213560632286 0 0 0
209 1 18.864527208692802 22.00931174253324 6.289431113967881 0 -1 0
210 1 20.436479344857197 1.572310252221761 7.861211140115778 0 0 0
211 1 0.001117151297919604 3.144387590053446 6.289429837396269 0 0 0
212 1 1.5730680790096137 4.716464614208 7.861211077773876 0 0 0
213 1 3.145019060688669 3.14438798401791 6.289430420401736 0 0 0
214 1 4.7169787417941045 4.7164687521841495 7.861215158920664 0 0 0
215 1 6.288932502811895 3.144399476025569 6.289440633925677 0 0 0
216 1 7.861120990133587 4.716813042586307 7.8611764921545495 0 0 0
217 1 9.43282816000843 3.1445424978850762 6.289416611306808 0 0 0
218 1 11.004781711132798 4.716258792731532 7.8609024729216435 0 0 0
219 1 12.576728705669826 3.1448464726529686 6.289446027786319 0 0 0
220 1 14.148410516620064 4.71757339632338 7.860932514059019 0 0 0
221 1 15.7206037430996 3.144465221499163 6.289449255858595 0 0 0
222 1 17.292520869630106 4.716562091894156 7.861241042530269 0 0 0
223 1 18.864527760819158 3.144389546663536 6.289431980649917 0 0 0
224 1 20.436479892183183 4.716463897386555 7.8612119483133345 0 0 0
225 1 22.00842427851141 6.288546465524684 6.289433970963302 -1 0 0
226 1 1.5730822334497705 7.860628425374863 7.861212696450314 0 0 0
227 1 3.1450459536496513 6.288553037252512 6.289443208477207 0 0 0
228 1 4.717312105802839 7.860814777493377 7.861199503673916 0 0 0
229 1 6.2890717378949965 6.28851334956037 6.2894871289881396 0 0 0
230 1 7.863239682875381 7.862566116029495 7.860290757622673 0 0 0
231 1 9.432933364904882 6.290469382864337 6.289367886208332 0 0 0
232 1 11.005390430166571 7.841318146206753 7.858967963193622 0 0 0
233 1 12.57690062193176 6.294545938862121 6.289732961727747 0 0 0
234 1 14.142993015358618 7.871894249032609 7.858547835198805 0 0 0
235 1 15.719823527157548 6.2895369181096985 6.2899124189662095 0 0 0
236 1 17.29110086727413 7.861608093318204 7.861478816560049 0 0 0
237 1 18.864420882139466 6.288608426145547 6.28949396654759 0 0 0
238 1 20.436343559381687 7.860669917630186 7.861248892404099 0 0 0
239 1 22.008390217478407 9.432684584165855 6.289418107617347 -1 0 0
240 1 1.5727356359117624 11.004771021988299 7.8612059273926835 0 0 0
241 1 3.144847623435444 9.432502004137623 6.289234701732985 0 0 0
242 1 4.710558788664002 11.004835626908932 7.861224846897994 0 0 0
243 1 6.288821854638606 9.429846914820745 6.286583451653043 0 0 0
244 1 7.789790317338475 11.005465593677508 7.862214625369383 0 0 0
245 1 9.451028149481917 9.447339408295306 6.304121813118168 0 0 0
246 1 20.436479008712055 20.437236283744756 20.435460460018625 0 0 0
247 1 12.561068797475095 9.462340869918139 6.316547188415881 0 0 0
248 1 14.162399786907162 11.021841929029781 7.8728875257193245 0 0 0
249 1 15.712723154894215 9.435748660949098 6.291876149441961 0 0 0
250 1 17.28986355549219 11.003003707774068 7.858669582823206 0 0 0
251 1 18.86395355459211 9.432703168717618 6.289445001246111 0 0 0
252 1 20.436301899051507 11.004606624043758 7.8610051116638004 0 0 0
253 1 22.008308447060013 12.576852307093887 6.2894382449769894 -1 0 0
254 1 1.5731440266826135 14.148923775519028 7.861208546789374 0 0 0
255 1 3.1448723888337984 12.577075991712928 6.2892509427775645 0 0 0
256 1 4.718243969857904 14.148666307477605 7.861282704861614 0 0 0
257 1 6.2891081559956445 12.580169144959596 6.286930088781143 0 0 0
258 1 7.875609500373047 14.140572374145354 7.862685684664749 0 0 0
259 1 9.450227761129902 12.56694203838343 6.304267740673334 0 0 0
260 1 11.023168503058649 14.160071581530822 7.87729829220778 0 0 0
261 1 12.561947847215821 12.559112931096218 6.283021978641531 0 0 0
262 1 14.1384875777747 14.135761897466468 7.871446637234835 0 0 0
263 1 15.698699290760931 12.576352925560366 6.301048260225687 0 0 0
264 1 17.29124180036658 14.149996236467718 7.8588071100426 0 0 0
265 1 18.86263693778548 12.576742758997744 6.289829982638246 0 0 0
266 1 20.436498991718857 14.149069276735139 7.861001687738521 0 0 0
267 1 0.001127546522084799 15.721012320047832 6.289422183165074 0 0 0
268 1 1.5730669904794414 17.29307963881738 7.861213241831247 0 0 0
269 1 3.1451261236879824 15.720963748544891 6.289474911918185 0 0 0
270 1 4.717016387976692 17.293066495265457 7.861240116230188 0 0 0
271 1 6.290103716560811 15.720180535632926 6.290334069944321 0 0 0
272 1 7.861717168797173 17.29151852597154 7.861828007845925 0 0 0
273 1 9.435614329519707 15.716701505243691 6.291863367187884 0 0 0
274 1 11.000806593442407 17.295800086536115 7.856867969644793 0 0 0
275 1 12.577263884143704 15.700156466499571 6.302232288132057 0 0 0
276 1 14.152224147107363 17.29558217045887 7.85683536612557 0 0 0
277 1 15.718782643065381 15.71919634311085 6.290549414012171 0 0 0
278 1 17.292572001847063 17.292919750944407 7.861336725053516 0 0 0
279 1 18.864464378436672 15.721047140085538 6.289389847133603 0 0 0
280 1 20.43644218559972 17.293054988902057 7.861245466411758 0 0 0
281 1 22.008428226507288 18.865157714151636 6.289431589726827 -1 0 0
282 1 1.5730677841337426 20.437236653253468 7.861210938621647 0 0 0
283 1 3.1450183274623105 18.865159930992487 6.289430184395061 0 0 0
284 1 4.716966203769275 20.43724075241625 7.861209532930117 0 0 0
285 1 6.288976715570517 18.86505018018993 6.289500673991688 0 0 0
286 1 7.860909721431059 20.437113019826032 7.861244230663787 0 0 0
287 1 9.432479234021887 18.865194590578938 6.289074142428322 0 0 0
288 1 11.004525876556942 20.437514139945275 7.860935389839632 0 0 0
289 1 12.576671335842121 18.863598550639537 6.289520435821704 0 0 0
290 1 14.148887432193577 20.43756187181798 7.860939338215871 0 0 0
291 1 15.720976499437867 18.865400786515483 6.289069486429494 0 0 0
292 1 17.292577130791873 20.437215095634343 7.861217355469495 0 0 0
293 1 18.86453302079134 18.86515102796684 6.289439630678043 0 0 0
294 1 20.43647973852226 20.43723620760193 7.861211544346356 0 0 0
295 1 0.001116995863557756 0.0002335821132579915 9.432992269098053 0 0 0
296 1 1.5730678619067993 1.5723106018316142 11.004773527040673 0 0 0
297 1 3.145018671828416 0.00023360861778259226 9.432992485168496 0 0 0
298 1 4.7169704595827575 1.5723112996165438 11.004772960449946 0 0 0
299 1 6.28892250361645 22.009312140327662 9.432991593386173 0 -1 0
300 1 7.860878698806077 1.572319726161614 11.004766673349852 0 0 0
301 1 9.43282981479513 22.00925996170467 9.432988579609091 0 -1 0
302 1 11.0047599008891 1.5723507884551824 11.004781013727383 0 0 0
303 1 12.576714033430891 0.0006757526109508287 9.432983893730215 0 0 0
304 1 14.14868670136324 1.5723668522632992 11.004784276064504 0 0 0
305 1 15.720628791050116 0.00023402277363970825 9.432982462621005 0 0 0
306 1 17.292571818967595 1.5723163584541657 11.004768998886156 0 0 0
307 1 18.86452720168362 22.009311603778414 9.432993479775831 0 -1 0
308 1 20.43647930925996 1.5723104926639033 11.004773689335678 0 0 0
309 1 0.00111727421958965 3.1443874138485777 9.432992384656918 0 0 0
310 1 1.5730698820064288 4.716465970262653 11.004772427146788 0 0 0
311 1 3.14501861440734 3.1443873615674325 9.43299219884425 0 0 0
312 1 4.716982986285303 4.7164652853021405 11.00476324353944 0 0 0
313 1 6.288936980857226 3.14440853915859 9.432979957760988 0 0 0
314 1 7.8609822938276315 4.716649476207542 11.004685366924978 0 0 0
315 1 9.43285132439316 3.1445256527377214 9.43297414447103 0 0 0
316 1 11.00465548785955 4.716830555570202 11.004644637442764 0 0 0
317 1 12.576738300796748 3.144344765132787 9.432979543080872 0 0 0
318 1 14.148704197710249 4.716764036102726 11.004798092213399 0 0 0
319 1 15.7205669143342 3.144535523370563 9.432957597535113 0 0 0
320 1 17.29250432572957 4.71659955404771 11.00469865042152 0 0 0
321 1 18.864529803710532 3.144386253142385 9.43299221764027 0 0 0
322 1 20.436479492745793 4.71646343805834 11.004772354862888 0 0 0
323 1 22.008429107827094 6.288542921370987 9.432990502295917 -1 0 0
324 1 1.5730444926525293 7.860607850308324 11.004785729259304 0 0 0
325 1 3.145050048384123 6.288552959230491 9.432976434926395 0 0 0
326 1 4.716841153539915 7.860419067788244 11.004986047672318 0 0 0
327 1 6.28918059970764 6.288642554926534 9.43285755376561 0 0 0
328 1 7.862123477839232 7.861993171690395 11.003474416658612 0 0 0
329 1 9.432853054838839 6.2899075092731955 9.432666780636605 0 0 0
330 1 11.000386470568198 7.8639329695152655 11.00031631157422 0 0 0
331 1 12.576753499810406 6.285698256054227 9.43256770807018 0 0 0
332 1 14.143825524487605 7.86311096232398 11.001364672101854 0 0 0
333 1 15.719370803074309 6.290278788520335 9.432438667860719 0 0 0
334 1 17.290977143156617 7.861905480662223 11.003954074376365 0 0 0
335 1 18.864418281743752 6.288618503862919 9.432983983753344 0 0 0
336 1 20.436362282306078 7.860649386533726 11.00472942050609 0 0 0
337 1 22.008324584797506 9.432711637496933 9.432998236567053 -1 0 0
338 1 1.5731229160947986 11.00477132096384 11.004770590135434 0 0 0
339 1 3.144807726146313 9.432513635867723 9.433208356527473 0 0 0
340 1 4.717946840288606 11.004875400737857 11.004548313595663 0 0 0
341 1 6.2879583536409145 9.43000979420754 9.436174615175853 0 0 0
342 1 7.871044911433419 11.00618246082138 10.997854833860261 0 0 0
343 1 9.435751616026723 9.438252443132138 9.420358750555804 0 0 0
344 1 10.998821264639224 11.00716493480921 11.057869448078284 0 0 0
345 1 12.576456522640122 9.39124958165749 9.424255858753714 0 0 0
346 1 14.176345773023819 10.958547494237859 11.00446289507509 0 0 0
347 1 15.711344828088551 9.439027889967726 9.427453258467592 0 0 0
348 1 17.28980152022298 11.004939263206387 11.00567441514825 0 0 0
349 1 18.86321128677649 9.43326637023862 9.433020761845315 0 0 0
350 1 20.43636955572844 11.004583560514513 11.004912680797148 0 0 0
351 1 0.0013668772370784288 12.57685294079767 9.433004858382578 0 0 0
352 1 1.5730652215256007 14.148945169335642 11.004788805275588 0 0 0
353 1 3.144971435658389 12.57705930263556 9.433187803499058 0 0 0
354 1 4.717072762517265 14.149088572414822 11.004941598041642 0 0 0
355 1 6.288996671425512 12.580067016645014 9.436031235469745 0 0 0
356 1 7.864329726633984 14.146828916015773 11.002392702586285 0 0 0
357 1 9.417526835242919 12.56791016957007 9.422759751136313 0 0 0
358 1 11.012702814897292 14.129029489268575 10.980657251467258 0 0 0
359 1 18.864527622533497 18.865158675739004 18.863678415346765 0 0 0
360 1 14.170364874725772 14.198303611518435 11.0013621367914 0 0 0
361 1 15.782414427577699 12.576427345534698 9.426975897374875 0 0 0
362 1 17.289917035302626 14.148418653411017 11.005804193856711 0 0 0
363 1 18.870152545838526 12.576744614860111 9.432883872921737 0 0 0
364 1 20.436382089375485 14.149094839799691 11.004917779759767 0 0 0
365 1 22.008384160497286 15.720984490578816 9.432994263283296 -1 0 0
366 1 1.5730736073098417 17.29307671467595 11.004769015543927 0 0 0
367 1 3.145147276795952 15.72096554927706 9.432956606676928 0 0 0
368 1 4.7170900702593155 17.293005248176087 11.00469265643741 0 0 0
369 1 6.290629155068687 15.719992692398138 9.432301195773135 0 0 0
370 1 7.861661993583523 17.2918988955929 11.003847560564084 0 0 0
371 1 9.441550740749639 15.706761713096913 9.430421301435096 0 0 0
372 1 11.000285495809047 17.294747570848013 11.008397023650303 0 0 0
373 1 12.576682331504564 15.804886268086145 9.433769956700381 0 0 0
374 1 14.152878478406784 17.302316646592022 11.008884535696957 0 0 0
375 1 15.718313896103108 15.71847050975834 9.429433454741412 0 0 0
376 1 17.292144788204038 17.292384642439906 11.004541284411438 0 0 0
377 1 18.863841359971232 15.720484511786703 9.433095519611403 0 0 0
378 1 20.43644173521949 17.293070819633936 11.004753393575674 0 0 0
379 1 0.0011195286962925246 18.86516116474724 9.432992244043813 0 0 0
380 1 1.5730676064670455 20.437236786062698 11.004773894600714 0 0 0
381 1 3.1450135463102784 18.86516320405166 9.432994259011565 0 0 0
382 1 4.716968084237812 20.437236765035323 11.00477375762356 0 0 0
383 1 6.288920249420761 18.86511314933513 9.43297072591513 0 0 0
384 1 7.86090851791675 20.43713276374895 11.004732866729885 0 0 0
385 1 9.432941551864001 18.86403785670504 9.432946499291102 0 0 0
386 1 11.004516864099159 20.43751149934446 11.005008902743189 0 0 0
387 1 12.57650266026461 18.873090582994877 9.432852419575552 0 0 0
388 1 14.148917363599637 20.437938653166505 11.005027420866758 0 0 0
389 1 15.720725912023712 18.86501681104148 9.432773247018874 0 0 0
390 1 17.292554495060134 20.437170832540914 11.00475821733441 0 0 0
391 1 18.864534084422825 18.865137095541673 9.433013401023116 0 0 0
392 1 20.43648193943472 20.437239723318193 11.004774018511116 0 0 0
393 1 0.0011170186551056045 0.0002336173381729835 12.576554809712386 0 0 0
394 1 1.573067903042468 1.5723105886639472 14.148335822961643 0 0 0
395 1 3.14501873326043 0.0002335317908778929 12.576554749230516 0 0 0
396 1 4.716970622287689 1.5723111440111193 14.148334968441784 0 0 0
397 1 6.288924884705961 22.009307578018245 12.576550548522908 0 -1 0
398 1 7.860871283955802 1.5723145335766167 14.148335786204141 0 0 0
399 1 9.43280389331089 0.00025758917798502154 12.576572239507895 0 0 0
400 1 11.004775549459742 1.5723126202488817 14.148333774039418 0 0 0
401 1 12.57671431983571 22.0092958141993 12.576557991932924 0 -1 0
402 1 14.148673030102998 1.572311289684301 14.148332224906866 0 0 0
403 1 15.720653411823966 0.0002727737845977446 12.576581023420173 0 0 0
404 1 17.292577290456578 1.572315922566448 14.148335718465859 0 0 0
405 1 18.864525884142054 22.009309869846657 12.576552242566352 0 -1 0
406 1 20.436478920681708 1.5723106092203591 14.148335595119777 0 0 0
407 1 0.001117208392489083 3.144387637738995 12.576554780557382 0 0 0
408 1 1.5730672479825614 4.716464578075582 14.148336139809922 0 0 0
409 1 3.1450193381738307 3.1443876059270015 12.576554348046955 0 0 0
410 1 4.716976978547713 4.71647367684173 14.148327600359169 0 0 0
411 1 6.288931823705572 3.144403566224472 12.576544534277073 0 0 0
412 1 7.8608925056484615 4.716516563246227 14.148311245423507 0 0 0
413 1 9.432830100194849 3.144420463506662 12.57654589479074 0 0 0
414 1 11.004799933622708 4.716535529053306 14.148297239498799 0 0 0
415 1 12.57671730275132 3.1444697391017193 12.576523206285483 0 0 0
416 1 14.148640179929323 4.716521387172145 14.148296465322774 0 0 0
417 1 15.720618019999572 3.1444336178056673 12.576543814524689 0 0 0
418 1 17.292528695436907 4.716515982993411 14.148286233766491 0 0 0
419 1 18.864525025952016 3.1443934253732992 12.57655087225037 0 0 0
420 1 20.43647208133358 4.716470827830203 14.148330434751882 0 0 0
421 1 22.008422484549136 6.2885440335395595 12.576552519051654 -1 0 0
422 1 1.5730733249073847 7.860622837820454 14.148332195069438 0 0 0
423 1 3.1450107429727114 6.288530944060719 12.576565692465373 0 0 0
424 1 4.717060268963257 7.860680950594768 14.148281903758928 0 0 0
425 1 6.289046599051473 6.288696998791504 12.57643069422111 0 0 0
426 1 7.861529824244924 7.861294325329532 14.147621374536161 0 0 0
427 1 9.43294366895077 6.288917299592121 12.576315490519184 0 0 0
428 1 11.004920851772075 7.861439162259425 14.147095003735277 0 0 0
429 1 12.576394075632479 6.289580627683072 12.575790478487933 0 0 0
430 1 14.148460218949447 7.860979974839603 14.147722894691558 0 0 0
431 1 15.72007993924969 6.289188198497082 12.576003757305106 0 0 0
432 1 17.292526252906107 7.860665822570813 14.148250732298028 0 0 0
433 1 18.86441136500329 6.288642420779366 12.57645916323692 0 0 0
434 1 20.436458213872523 7.8606364127941974 14.148317401050626 0 0 0
435 1 22.00842287424248 9.432694922731121 12.57655346227499 -1 0 0
436 1 1.573072952904807 11.004774485736466 14.148333054048058 0 0 0
437 1 3.1451155404589537 9.43273448028226 12.576521867705607 0 0 0
438 1 4.717075544120324 11.004801636491951 14.148301642942391 0 0 0