LAMMPS data file via write_data, version 2 Aug 2023, timestep = 120, units = metal

689 atoms
3 atom types

-0.008171823689476856 22.01771882054525 xlo xhi
-0.007419312185583413 22.016966309041354 ylo yhi
-0.002587739134554528 22.012134735990333 zlo zhi

Masses

1 183.84
2 1.008
3 4.0026

Atoms # atomic

1 1 -0.00817182073938572 -0.007419309235869314 -0.002587736197654808 0 0 0
2 1 1.5651060823513774 1.565751092211151 1.569892440516967 0 0 0
3 1 3.1383839853247646 -0.007419309231223976 -0.0025877361939715014 0 0 0
4 1 4.711661888626655 1.5657510924571825 1.5698924409024404 0 0 0
5 1 6.284939791233913 -0.007419309183714265 -0.002587736160261823 0 0 0
6 1 7.858217697100822 1.565751096299769 1.5698924435029806 0 0 0
7 1 9.43149559706722 -0.007419309086484738 -0.0025877360899748104 0 0 0
8 1 11.004773499928259 1.5657510883182095 1.569892434550664 0 0 0
9 1 12.578051402934376 -0.007419309087812479 -0.002587736093508295 0 0 0
10 1 14.151329303070638 1.565751096042793 1.569892443450292 0 0 0
11 1 15.724607208772282 -0.0074193091859674895 -0.0025877361589677563 0 0 0
12 1 17.297885111274525 1.56575109259701 1.569892440995292 0 0 0
13 1 18.871163014734343 -0.007419309231058415 -0.0025877361918950096 0 0 0
14 1 20.444440917792942 1.5657510921943483 1.5698924405087278 0 0 0
15 1 -0.008171820735084987 3.1389214935418788 -0.0025877361939032123 0 0 0
16 1 1.5651060825954057 4.712091895192428 1.56989244089557 0 0 0
17 1 3.138383985251668 3.138921493463291 -0.002587736281476708 0 0 0
18 1 4.711661879581918 4.712091885885131 1.5698924305113466 0 0 0
19 1 6.284939792566174 3.1389214947426773 -0.0025877344498643298 0 0 0
20 1 7.858217790301074 4.712091973745533 1.5698925476341763 0 0 0
21 1 9.431495598758337 3.1389214952885904 -0.0025877320029738912 0 0 0
22 1 11.004773478581265 4.71209189380688 1.5698926004460936 0 0 0
23 1 12.57805140107231 3.1389214964039107 -0.002587730913596575 0 0 0
24 1 14.151329236528525 4.7120919570406805 1.5698925297210182 0 0 0
25 1 15.724607207656884 3.138921494546968 -0.002587734637951971 0 0 0
26 1 17.297885114590024 4.7120918905556755 1.5698924365482907 0 0 0
27 1 18.87116301475676 3.138921493502549 -0.002587736227326494 0 0 0
28 1 20.444440917897065 4.7120918947612145 1.5698924404360322 0 0 0
29 1 -0.008171820690147278 6.285262296158555 -0.0025877361632516507 0 0 0
30 1 1.5651060861667467 7.858432699998802 1.5698924432541883 0 0 0
31 1 3.13838398634602 6.285262297381395 -0.0025877346639420168 0 0 0
32 1 4.711661956876355 7.858432788607892 1.569892534582178 0 0 0
33 1 6.284939782709821 6.285262286831873 22.01213472238032 0 0 -1
34 1 7.858217167162494 7.858432200722435 1.569891232779208 0 0 0
35 1 9.431495636189197 6.285262320739315 -0.0025876336762260107 0 0 0
36 1 11.004773762466396 7.8584321181563235 1.5698958984208 0 0 0
37 1 12.578051369337027 6.285262321234754 -0.0025876518729815168 0 0 0
38 1 14.151329496924658 7.8584325266954655 1.5698919572293322 0 0 0
39 1 15.724607210693136 6.285262291917887 22.01213473293888 0 0 -1
40 1 17.29788510932985 7.8584327095666655 1.5698924418184301 0 0 0
41 1 18.871163014737803 6.285262296153728 -0.0025877362293752195 0 0 0
42 1 20.444440917930233 7.858432697434342 1.5698924403842638 0 0 0
43 1 -0.008171820580804854 9.43160309871849 -0.00258773607351395 0 0 0
44 1 1.5651060805726533 11.004773499945035 1.5698924370238956 0 0 0
45 1 3.138383987278347 9.431603099800725 -0.0025877321320002195 0 0 0
46 1 4.711661827322275 11.004773479897201 1.5698925386400813 0 0 0
47 1 6.284939809530391 9.431603136631304 -0.002587643186865593 0 0 0
48 1 7.8582170498501664 11.004773737113785 1.569895739999196 0 0 0
49 1 9.431495650573286 9.431603152559212 22.012134130592077 0 0 -1
50 1 11.004773870689792 11.004773833182162 1.5698978371913008 0 0 0
51 1 12.578051323274785 9.431603120305946 22.012134539270665 0 0 -1
52 1 14.151329707160484 11.00477372948994 1.569891746014549 0 0 0
53 1 15.724607214573846 9.43160309795971 -0.002587735900494293 0 0 0
54 1 17.297885116670162 11.004773487740774 1.569892434295398 0 0 0
55 1 18.87116301528058 9.431603098667063 -0.002587736754703818 0 0 0
56 1 20.444440917991937 11.004773499989604 1.5698924404060925 0 0 0
57 1 -0.008171820583450158 12.577943901284721 -0.0025877360762767694 0 0 0
58 1 1.5651060860406498 14.151114300156857 1.5698924433132986 0 0 0
59 1 3.1383839879537825 12.577943900059951 -0.0025877314834582017 0 0 0
60 1 4.711661945172036 14.151114236966706 1.5698925217652397 0 0 0
61 1 6.284939812992034 12.577943868819492 -0.0025876577148446606 0 0 0
62 1 7.858217495179451 14.151114492194104 1.5698919206489712 0 0 0
63 1 9.431495618504727 12.577943815821222 22.012134501186278 0 0 -1
64 1 11.004773754462029 14.151114606195671 1.5698916219095127 0 0 0
65 1 12.57805135520315 12.577943848401922 -0.0025875779849034415 0 0 0
66 1 14.151329187201508 14.151114175129779 1.569892614355522 0 0 0
67 1 15.724607211093796 12.577943907226778 22.012134731736914 0 0 -1
68 1 17.297885114049784 14.15111430811418 1.5698924360705468 0 0 0
69 1 18.871163014703427 12.577943901307654 -0.0025877362086626724 0 0 0
70 1 20.444440917914463 14.151114302662094 1.569892440485547 0 0 0
71 1 -0.008171820692233555 15.724284703845928 -0.002587736158111642 0 0 0
72 1 1.5651060827344028 17.297455104715684 1.5698924410001436 0 0 0
73 1 3.1383839862278617 15.724284702813524 -0.002587734758657746 0 0 0
74 1 4.711661883744761 17.29745510844524 1.5698924368303957 0 0 0
75 1 6.284939786785716 15.724284706578366 22.012134732292 0 0 -1
76 1 7.858217705834378 17.297455100677784 1.569892440844133 0 0 0
77 1 9.431495596050446 15.72428470879633 -0.002587736410397955 0 0 0
78 1 11.004773484945686 17.297455109426068 1.569892436539769 0 0 0
79 1 12.578051409322601 15.724284707563722 22.012134726940243 0 0 -1
80 1 14.151329314566333 17.29745511072927 1.569892429933088 0 0 0
81 1 15.724607206883896 15.724284701805711 -0.00258773275120094 0 0 0
82 1 17.297885110560053 17.29745510389582 1.5698924425755092 0 0 0
83 1 18.871163014748102 15.72428470392747 -0.0025877362166002783 0 0 0
84 1 20.444440917774898 17.297455105160676 1.5698924405322425 0 0 0
85 1 -0.008171820734880654 18.87062550651692 -0.0025877361913116677 0 0 0
86 1 1.5651060823445822 20.443795907921835 1.5698924405190016 0 0 0
87 1 3.1383839852855577 18.87062550654431 -0.002587736223497057 0 0 0
88 1 4.711661888140866 20.44379590808221 1.5698924404101648 0 0 0
89 1 6.284939791215729 18.870625506490715 -0.0025877362156006634 0 0 0
90 1 7.858217694173233 20.443795907988708 1.569892440471103 0 0 0
91 1 9.431495597023062 18.870625507430365 -0.0025877371312844643 0 0 0
92 1 11.004773499978182 20.44379590860488 1.569892439902439 0 0 0
93 1 12.578051402911905 18.87062550645796 -0.002587736179099083 0 0 0
94 1 14.151329305938491 20.443795908114303 1.569892440462123 0 0 0
95 1 15.724607208903256 18.870625506586194 -0.0025877362999091047 0 0 0
96 1 17.297885111769272 20.443795907954083 1.5698924404991463 0 0 0
97 1 18.871163014722974 18.8706255065051 -0.002587736170989828 0 0 0
98 1 20.444440917799977 20.443795907938945 1.5698924405104797 0 0 0
99 1 -0.00817182074189714 -0.007419309235655642 3.142372617141707 0 0 0
100 1 1.5651060822681804 1.5657510921372846 4.714852793739074 0 0 0
101 1 3.1383839852888404 -0.007419309335556155 3.1423726171316613 0 0 0
102 1 4.711661884681864 1.5657510890854722 4.7148527918769725 0 0 0
103 1 6.284939790801113 -0.007419309030804807 3.1423726169025707 0 0 0
104 1 7.858217646210463 1.5657510616485326 4.714852763771713 0 0 0
105 1 9.431495598025105 -0.007419304162583931 3.1423726182161755 0 0 0
106 1 11.004773501451226 1.565751290924366 4.714852809509215 0 0 0
107 1 12.5780514020775 -0.007419304236116712 3.1423726182938165 0 0 0
108 1 14.151329352674601 1.5657510675754436 4.7148527656440935 0 0 0
109 1 15.72460720909333 -0.0074193090284809 3.1423726170133057 0 0 0
110 1 17.29788511501124 1.5657510890502553 4.714852792427706 0 0 0
111 1 18.871163014783473 -0.007419309334972006 3.142372617133687 0 0 0
112 1 20.444440917841995 1.5657510921876816 4.714852793732572 0 0 0
113 1 -0.008171820799904635 3.138921493477552 3.142372617107724 0 0 0
114 1 1.5651060794287215 4.712091891325344 4.714852791919953 0 0 0
115 1 3.1383839868711725 3.138921495098424 3.1423726175932876 0 0 0
116 1 4.7116619242861 4.7120919293993095 4.714852757261302 0 0 0
117 1 6.284939815180829 3.138921506689516 3.1423726456183947 0 0 0
118 1 7.85821849652269 4.712091989654873 4.714853705400072 0 0 0
119 1 9.431495813115252 3.1389216941683564 3.142372723831461 0 0 0
120 1 11.004773616625924 4.7121224398983195 4.714881338629039 0 0 0
121 1 12.578051193030237 3.138921679802836 3.1423727291216696 0 0 0
122 1 14.151328384621454 4.712092482672847 4.714853812907277 0 0 0
123 1 15.724607178148688 3.1389215175356076 3.1423726500304108 0 0 0
124 1 17.297885085495224 4.71209189311244 4.714852775331702 0 0 0
125 1 18.871163013835897 3.1389214939695727 3.1423726173185105 0 0 0
126 1 20.44444091786209 4.712091894506383 4.714852793197122 0 0 0
127 1 -0.008171820615072588 6.285262295804279 3.1423726168978465 0 0 0
128 1 1.565106050274245 7.858432648424845 4.714852763331329 0 0 0
129 1 3.1383839971353638 6.28526231941845 3.1423726444928 0 0 0
130 1 4.711661865186853 7.858433421562558 4.714853578631144 0 0 0
131 1 6.284938973149614 6.285261482675492 3.1423716759676497 0 0 0
132 1 7.858172065745171 7.858387225982169 4.714813920878298 0 0 0
133 1 9.431499323126806 6.2852696898915745 3.142379314127019 0 0 0
134 1 11.004802359341317 7.858628329589494 4.715215861814826 0 0 0
135 1 12.578048123995229 6.28526654382076 3.1423761031810042 0 0 0
136 1 14.151345148861779 7.8584088730258825 4.714836443452678 0 0 0
137 1 15.724607551885597 6.285261947352618 3.142372211703702 0 0 0
138 1 17.297885559083003 7.858432553216328 4.714852612223424 0 0 0
139 1 18.871163022590437 6.28526229103924 3.1423726129874394 0 0 0
140 1 20.44444092381098 7.858432695068519 4.714852790037086 0 0 0
141 1 -0.008171816535463896 9.431603099462443 3.142372617634938 0 0 0
142 1 1.5651062327009158 11.004773501498121 4.714852767913035 0 0 0
143 1 3.138384155680142 9.431603312405759 3.1423726964041325 0 0 0
144 1 4.711692311712759 11.004773579906951 4.714881279160845 0 0 0
145 1 6.28494699290927 9.43160673932693 3.142379058361948 0 0 0
146 1 7.8584067274654315 11.004802134837819 4.7152071543229335 0 0 0
147 1 9.431495148136024 9.431602820766047 3.14231415314819 0 0 0
148 1 11.004560163699807 11.004582259953825 4.715371434073296 0 0 0
149 1 12.578046631519829 9.431605551579441 3.142349348735016 0 0 0
150 1 14.151326677551573 11.004801701756966 4.714852868721313 0 0 0
151 1 15.72460517420907 9.431603194226428 3.1423745843983215 0 0 0
152 1 17.29788557441988 11.004773580482032 4.714852550889805 0 0 0
153 1 18.871163017398377 9.431603097882013 3.142372606265231 0 0 0
154 1 20.4444409258168 11.004773501558 4.714852789225082 0 0 0
155 1 -0.00817181661254932 12.57794390064479 3.1423726177434577 0 0 0
156 1 1.5651060568713355 14.151114351104432 4.714852766214304 0 0 0
157 1 3.1383841444051725 12.57794369293198 3.1423727032724074 0 0 0
158 1 4.711662257694433 14.151113529727443 4.714853628415549 0 0 0
159 1 6.284944040431235 12.577940692595813 3.142376014974643 0 0 0
160 1 7.858190786099573 14.151133113991746 4.714834121645489 0 0 0
161 1 9.431497639267397 12.57793907726178 3.142346302051015 0 0 0
162 1 11.00480203679009 14.151116784089275 4.714834763753044 0 0 0
163 1 12.57804452530801 12.577936744457082 3.142379931109306 0 0 0
164 1 14.151327604392556 14.151112689295653 4.714855346237687 0 0 0
165 1 15.724607626230052 12.577944228742322 3.1423720412539247 0 0 0
166 1 17.29788517518265 14.151114388250246 4.714852663403424 0 0 0
167 1 18.87116302210774 12.577943906700222 3.1423726125426796 0 0 0
168 1 20.444440917314243 14.151114304348413 4.714852792849458 0 0 0
169 1 -0.00817182060480139 15.724284704109166 3.142372617035939 0 0 0
170 1 1.5651060808608837 17.297455107603696 4.714852793117604 0 0 0
171 1 3.1383840074867573 15.724284675334122 3.142372649274954 0 0 0
172 1 4.711661956642942 17.297455007496787 4.714852846460095 0 0 0
173 1 6.2849393918051835 15.724285085396227 3.1423722283275524 0 0 0
174 1 7.8582171326243655 17.29745598576037 4.7148522846843 0 0 0
175 1 9.4314955477177 15.724282379546867 3.1423745548054964 0 0 0
176 1 11.004773625179537 17.297454284540635 4.714853910726391 0 0 0
177 1 12.578051890594951 15.724285195250205 3.1423716842189076 0 0 0
178 1 14.151329728999922 17.29745545006367 4.714852444558859 0 0 0
179 1 15.724607151755972 15.724284639088502 3.142372742877267 0 0 0
180 1 17.29788505820981 17.297455048940407 4.714852856899662 0 0 0
181 1 18.871163013154383 15.724284704369879 3.1423726175962168 0 0 0
182 1 20.444440916548615 17.297455104482275 4.7148527943380065 0 0 0
183 1 -0.008171820799900935 18.870625506568928 3.142372617132263 0 0 0
184 1 1.5651060822205278 20.443795908093588 4.714852793677207 0 0 0
185 1 3.1383839866777237 18.870625504667075 3.142372618231452 0 0 0
186 1 4.711661890164033 20.443795904983567 4.714852795034308 0 0 0
187 1 6.284939780663578 18.8706255193919 3.1423726096948172 0 0 0
188 1 7.85821768689165 20.44379592064579 4.714852788545961 0 0 0
189 1 9.431495602699641 18.870625501626208 3.142372611999248 0 0 0
190 1 11.004773501774206 20.443795917998955 4.714852787768189 0 0 0
191 1 12.578051403157676 18.870625510065825 3.142372617618287 0 0 0
192 1 14.151329311587505 20.44379591423127 4.714852790627431 0 0 0
193 1 15.724607212845411 18.870625508919083 3.142372614348306 0 0 0
194 1 17.29788510962573 20.443795905180522 4.714852795517963 0 0 0
195 1 18.871163014070873 18.870625505840636 3.142372617901045 0 0 0
196 1 20.44444091788451 20.44379590803781 4.714852793675298 0 0 0
197 1 -0.008171820746110992 -0.007419309259766723 6.287332970285096 0 0 0
198 1 1.5651060815510653 1.5657510913829071 7.859813146560072 0 0 0
199 1 3.1383839855484004 -0.0074193086611953 6.28733297015722 0 0 0
200 1 4.711661864248791 1.5657510726060315 7.859813152250874 0 0 0
201 1 6.284939795595933 -0.0074193088629200795 6.287332971933125 0 0 0
202 1 7.858217887127521 1.565751322604431 7.85981309851715 0 0 0
203 1 9.431495566884283 22.01696628666856 6.287332939706226 0 -1 0
204 1 11.004773530319332 1.565745965426036 7.859813077052517 0 0 0
205 1 12.5780514339014 22.016966286306612 6.287332940040075 0 -1 0
206 1 14.151329077920023 1.565751394965902 7.859813127365467 0 0 0
207 1 15.724607203468445 -0.007419308728392215 6.287332972942957 0 0 0
208 1 17.297885140843285 1.5657510646228094 7.859813150341652 0 0 0
209 1 18.871163014670646 -0.007419308678376747 6.28733297008005 0 0 0
210 1 20.444440918289732 1.5657510918692241 7.859813146685175 0 0 0
211 1 -0.00817182046245282 3.1389214939914623 6.287332970259252 0 0 0
212 1 1.5651060623463384 4.71209187082254 7.8598131523119354 0 0 0
213 1 3.138383990791065 3.1389214989745238 6.287332974951214 0 0 0
214 1 4.711662381508557 4.712092389288379 7.859813362676635 0 0 0
215 1 6.2849395569510245 3.138921245387119 6.28733302020357 0 0 0
216 1 7.858232662778204 4.712104376099589 7.859809008202109 0 0 0
217 1 9.43149231429318 3.138919144464631 6.287329971286939 0 0 0
218 1 11.004776719060384 4.711658268704702 7.859805853760928 0 0 0
219 1 12.578054732108692 3.138919331638708 6.287329962238428 0 0 0
220 1 14.151311013494526 4.712108774284497 7.859812145784817 0 0 0
221 1 15.724607394646979 3.138921316972742 6.287333067568923 0 0 0
222 1 17.29788480411252 4.712092090093699 7.859813281751757 0 0 0
223 1 18.871163011674742 3.1389214967141825 6.287332972796365 0 0 0
224 1 20.44444090907186 4.712091899954515 7.859813148973342 0 0 0
225 1 -0.008171817108750022 6.285262299195503 6.28733297082706 0 0 0
226 1 1.5651063161846297 7.858432893556495 7.859813099140599 0 0 0
227 1 3.138383745604536 6.285262066327722 6.287333022964107 0 0 0
228 1 4.711674531198887 7.85844778197912 7.859808997500191 0 0 0
229 1 6.284936378200854 6.285258817096945 6.287329482064271 0 0 0
230 1 7.858001528041865 7.858216332285237 7.859520431421201 0 0 0
231 1 9.43137179096767 6.285395318641444 6.287348920610059 0 0 0
232 1 11.004893832225322 7.8246617539425944 7.8429566131106805 0 0 0
233 1 12.578175771425819 6.285404017517671 6.287339804887981 0 0 0
234 1 14.151396539249335 7.858305418423491 7.859661319906585 0 0 0
235 1 15.72460992709393 6.285261491443424 6.2873312106476975 0 0 0
236 1 17.297889356028534 7.858429478364246 7.859809966497169 0 0 0
237 1 18.87116308146977 6.285262250005688 6.287332923162269 0 0 0
238 1 20.444440984362824 7.858432672392351 7.859813119787286 0 0 0
239 1 22.017718794070646 9.431603069080747 6.287332937998116 -1 0 0
240 1 1.5651009229311552 11.004773514169802 7.859813061656462 0 0 0
241 1 3.138381474686928 9.431599762532848 6.287329882436029 0 0 0
242 1 4.711222134932781 11.00477515318857 7.859804335438897 0 0 0
243 1 6.285066464849165 9.431474690667113 6.287343888039776 0 0 0
244 1 7.824002281337333 11.004831722113328 7.842723308388923 0 0 0
245 1 9.429676304064074 9.429930502507217 6.282322167180639 0 0 0
246 1 11.038265740429402 11.03372378302246 7.816472753206642 0 0 0
247 1 12.579724629102797 9.43167497570179 6.285027884931397 0 0 0
248 1 14.151741468921466 11.004827184873538 7.859729875742474 0 0 0
249 1 15.72461985363318 9.431600395378425 6.28733796908091 0 0 0
250 1 17.297894996578258 11.004775128950286 7.859808559944551 0 0 0
251 1 18.87116333602028 9.431603057807173 6.287332856193368 0 0 0
252 1 20.444441003356438 11.0047735140438 7.85981310352118 0 0 0
253 1 22.017718794044274 12.577943931783274 6.2873329391505735 -1 0 0
254 1 1.5651064134283954 14.151114088798293 7.859813114030467 0 0 0
255 1 3.138381695036031 12.577947298477953 6.287329939472549 0 0 0
256 1 4.711681841962998 14.151096916654975 7.859811101147204 0 0 0
257 1 6.2850751758318975 12.57807349338347 6.287334437371944 0 0 0
258 1 7.858447984381894 14.150966242147572 7.859723923181546 0 0 0
259 1 9.431429097591225 12.579726728655265 6.2847724505395295 0 0 0
260 1 11.004886986977793 14.153165748137486 7.858650203733911 0 0 0
261 1 12.578031662452073 12.578041231503137 6.287378360017857 0 0 0
262 1 14.150969928723056 14.150899054532163 7.859854954369688 0 0 0
263 1 15.724611047681822 12.577947395649703 6.287328644774132 0 0 0
264 1 17.29788225702617 14.151115212742155 7.859812026018397 0 0 0
265 1 18.871163117535705 12.577944000763082 6.287332906075617 0 0 0
266 1 20.444440889494256 14.151114309945024 7.859813134268163 0 0 0
267 1 -0.008171817023262189 15.72428469969251 6.287332971925447 0 0 0
268 1 1.5651060530896463 17.297455133984418 7.8598131512250005 0 0 0
269 1 3.138383891540787 15.72428486567886 6.287333089741823 0 0 0
270 1 4.711661618556042 17.297455335484504 7.859813282707095 0 0 0
271 1 6.28494293480644 15.724283265888008 6.287335445287615 0 0 0
272 1 7.858220105574203 17.297451691524493 7.859814693192409 0 0 0
273 1 9.431474875192007 15.72432196857405 6.287313788659174 0 0 0
274 1 11.00477671616848 17.29748267034866 7.859811509516746 0 0 0
275 1 12.578072116966025 15.724311820549595 6.287305989870575 0 0 0
276 1 14.15132363349825 17.297447611803157 7.85981775189056 0 0 0
277 1 15.724604136724466 15.724281357611215 6.287336894442302 0 0 0
278 1 17.297885527114744 17.297455594355636 7.859813186611956 0 0 0
279 1 18.87116294461576 15.724284684512108 6.28733298812773 0 0 0
280 1 20.44444091829051 17.297455104948142 7.859813147800633 0 0 0
281 1 -0.00817182047020393 18.870625506348137 6.2873329701472915 0 0 0
282 1 1.5651060826191934 20.443795907778302 7.859813146675569 0 0 0
283 1 3.1383839817648287 18.870625511195943 6.28733296938199 0 0 0
284 1 4.711661882476526 20.443795912816856 7.85981314459031 0 0 0
285 1 6.284939874071574 18.87062538809403 6.287333029780647 0 0 0
286 1 7.858217711781375 20.443795836192756 7.859813158727784 0 0 0
287 1 9.431495394022852 18.870626274481523 6.287332739798498 0 0 0
288 1 11.004773529950878 20.443796126358514 7.859813192326595 0 0 0
289 1 12.578051648873052 18.870626028440334 6.28733277375224 0 0 0
290 1 14.15132925352435 20.443795767129217 7.859813186689162 0 0 0
291 1 15.724607081914007 18.87062532747827 6.2873330747683 0 0 0
292 1 17.297885121932882 20.443795919961328 7.859813143331881 0 0 0
293 1 18.87116301962181 18.87062551236732 6.2873329674328975 0 0 0
294 1 20.44444091726711 20.443795907346185 7.8598131468058625 0 0 0
295 1 -0.008171820686862312 -0.007419309192104947 9.432293323443432 0 0 0
296 1 1.5651060828185022 1.5657510926547873 11.004773500217746 0 0 0
297 1 3.1383839852989053 -0.007419310335986617 9.432293323560044 0 0 0
298 1 4.711661894747639 1.565751098674231 11.004773496258268 0 0 0
299 1 6.284939799430921 -0.0074192980649821945 9.432293321875168 0 0 0
300 1 7.85821761806062 1.5657509881447227 11.004773575660307 0 0 0
301 1 9.43149556182717 22.01696619328055 9.432293350681732 0 -1 0
302 1 11.004773529638786 1.5657508689100421 11.004773560608482 0 0 0
303 1 12.578051433905678 22.01696619444205 9.432293350220244 0 -1 0
304 1 14.151329348558225 1.5657510242237154 11.004773543908717 0 0 0
305 1 15.724607205196566 -0.0074192985915927726 9.432293321419383 0 0 0
306 1 17.29788510868183 1.5657510954538665 11.004773497631316 0 0 0
307 1 18.871163014420596 -0.007419310229564314 9.432293323600566 0 0 0
308 1 20.444440917543847 1.5657510924131646 11.004773500130462 0 0 0
309 1 -0.008171821162835316 3.1389214927721567 9.432293323552317 0 0 0
310 1 1.565106088396543 4.712091901111007 11.004773496174277 0 0 0
311 1 3.138383933710041 3.1389214420688627 9.43229331668027 0 0 0
312 1 4.711661600654653 4.712091606061513 11.004773339137012 0 0 0
313 1 6.284940201498212 3.138922045821675 9.432293215621034 0 0 0
314 1 7.858213974660423 4.712086761660558 11.004778184074203 0 0 0
315 1 9.431492459260582 3.1389121196519474 9.432296338916696 0 0 0
316 1 11.004776870154872 4.712082924967783 11.004769579516973 0 0 0
317 1 12.578054315641246 3.1389175882592393 9.432296318984568 0 0 0
318 1 14.151329954346501 4.712088974913341 11.004775058965107 0 0 0
319 1 15.724607038159798 3.1389217755659726 9.432293192345623 0 0 0
320 1 17.297885245731287 4.712091744911888 11.004773390955226 0 0 0
321 1 18.87116304427484 3.138921462991937 9.432293319961264 0 0 0
322 1 20.44444091358759 4.712091899347698 11.00477349828226 0 0 0
323 1 -0.008171812949448735 6.285262305186057 9.432293321909018 0 0 0
324 1 1.5651059861791325 7.858432624743279 11.004773573925267 0 0 0
325 1 3.1383845440608336 6.285262715264871 9.432293216644691 0 0 0
326 1 4.711656919258072 7.858429107610208 11.004778191613763 0 0 0
327 1 6.284970394266605 6.285292802434354 9.432295270545804 0 0 0
328 1 7.8581638859658565 7.858379075431806 11.004824923613722 0 0 0
329 1 9.431375719419973 6.284744642105473 9.432430011121006 0 0 0
330 1 11.004886823901202 7.857153036670731 11.007142696965195 0 0 0
331 1 12.578154811037619 6.285198283294102 9.432427883599024 0 0 0
332 1 14.151216980348437 7.858281170540077 11.004789610636783 0 0 0
333 1 15.724589039266425 6.285281498882499 9.432294165893826 0 0 0
334 1 17.297887868065953 7.858429119546877 11.00477672492749 0 0 0
335 1 18.87116269277428 6.285262540234788 9.432293342114797 0 0 0
336 1 20.444440951149414 7.858432668271961 11.004773531311148 0 0 0
337 1 22.017718760517166 9.431603070758516 9.432293350473499 -1 0 0
338 1 1.5651057368957642 11.004773513445212 11.004773613484103 0 0 0
339 1 3.1383747744440766 9.431600046409644 9.432296337635089 0 0 0
340 1 4.711647333948088 11.004775272409177 11.004771080853162 0 0 0
341 1 6.284424874451961 9.431475921580317 9.432430388934307 0 0 0
342 1 7.856580616854541 11.00482372042844 11.007355165882423 0 0 0
343 1 9.39658555653968 9.39612285338895 9.465957517710052 0 0 0
344 1 11.006640631434793 11.001654928933183 11.020050744892577 0 0 0
345 1 12.613077868502458 9.429888235092525 9.449271088984938 0 0 0
346 1 14.151126399995036 11.004834306661166 11.004710969737168 0 0 0
347 1 15.725063080074312 9.431594151847845 9.432300336825142 0 0 0
348 1 17.297888435064664 11.004775226594237 11.004778143220571 0 0 0
349 1 18.871168192588307 9.431603243467778 9.432293391845233 0 0 0
350 1 20.44444097060762 11.004773513166848 11.004773548006748 0 0 0
351 1 22.01771876097924 12.57794392783524 9.4322933499662 -1 0 0
352 1 1.565106046868048 14.151114359347323 11.004773555884135 0 0 0
353 1 3.1383779141291144 12.577946926979783 9.432296316877155 0 0 0
354 1 4.711662028494097 14.151115841382842 11.004776095994153 0 0 0
355 1 6.2846912492418925 12.578027710782955 9.432427190446731 0 0 0
356 1 7.858415903429153 14.150794705962996 11.004731990755213 0 0 0
357 1 9.421656165141998 12.616548989242785 9.44913652629104 0 0 0
358 1 11.004891045604454 14.152555403646772 11.005783867921254 0 0 0
359 1 12.58819013870039 12.583114120837392 9.432540857586135 0 0 0
360 1 14.151003546327527 14.150932512983033 11.00473331720654 0 0 0
361 1 15.724798742004262 12.5779087821098 9.43229720880117 0 0 0
362 1 17.297883030581943 14.151115825497302 11.004774671676502 0 0 0
363 1 18.871165103097493 12.577943730815926 9.432293370025146 0 0 0
364 1 20.44444089347036 14.151114316090466 11.004773513507551 0 0 0
365 1 -0.008171812761825223 15.724284696143513 9.432293321457161 0 0 0
366 1 1.5651060847978746 17.297455101960413 11.004773496758963 0 0 0
367 1 3.138384489011899 15.724284360619112 9.432293192948046 0 0 0
368 1 4.711661387334103 17.297455666605536 11.00477339047354 0 0 0
369 1 6.284964543209343 15.724263420263863 9.432294101212143 0 0 0
370 1 7.858220049579507 17.29744995647624 11.004771994749737 0 0 0
371 1 9.43176106464865 15.724297511581613 9.432299381397653 0 0 0
372 1 11.004776816266133 17.297475674512356 11.00477506034402 0 0 0
373 1 12.577770629054566 15.723845643851009 9.432297267785433 0 0 0
374 1 14.151323950353506 17.29744808270401 11.004768944224457 0 0 0
375 1 15.724597371318511 15.724277221676234 9.432293106247634 0 0 0
376 1 17.297885485851882 17.29745555381282 11.004773462298601 0 0 0
377 1 18.87116278542517 15.724284551065713 9.432293318333599 0 0 0
378 1 20.444440917730496 17.297455103823598 11.004773498979391 0 0 0
379 1 -0.00817182118164706 18.87062550725027 9.432293323605585 0 0 0
380 1 1.565106082980947 20.443795907210855 11.00477350015223 0 0 0
381 1 3.138383946201846 18.870625541377446 9.432293321008169 0 0 0
382 1 4.7116618817798726 20.44379591658489 11.004773502685785 0 0 0
383 1 6.284939426555177 18.870625775357322 9.432293342704515 0 0 0
384 1 7.85821770736373 20.44379580252591 11.004773492183304 0 0 0
385 1 9.431495241329891 18.870626188934523 9.432293390917932 0 0 0
386 1 11.00477352907814 20.443796091031803 11.00477345836932 0 0 0
387 1 12.578051539381807 18.870620881247948 9.432293371286582 0 0 0
388 1 14.151329259938784 20.44379577065318 11.004773461169137 0 0 0
389 1 15.724607728269687 18.870625983270592 9.432293319026794 0 0 0
390 1 17.297885120942933 20.443795919529986 11.004773503440168 0 0 0
391 1 18.87116302891917 18.870625518211714 9.432293323628238 0 0 0
392 1 20.44444091731312 20.44379590739364 11.004773500050451 0 0 0
393 1 -0.008171820733340367 -0.007419309243588178 12.577253676561792 0 0 0
394 1 1.5651060822143485 1.5657510920824944 14.149733853197532 0 0 0
395 1 3.1383839851658655 -0.007419308995765434 12.57725367661703 0 0 0
396 1 4.711661888417189 1.5657510930059664 14.149733853113764 0 0 0
397 1 6.284939791482646 22.016966308797677 12.5772536766653 0 -1 0
398 1 7.858217690579115 1.5657510898520286 14.149733855342694 0 0 0
399 1 9.43149559468661 -0.007419310829714922 12.577253678805604 0 0 0
400 1 11.004773499108481 1.5657510959345562 14.14973386042542 0 0 0
401 1 12.578051406005402 -0.007419311075755765 12.577253678840997 0 0 0
402 1 14.151329310580866 1.565751085657236 14.149733856588474 0 0 0
403 1 15.724607207764889 22.01696630890425 12.577253675961499 0 -1 0
404 1 17.29788511139505 1.565751092867571 14.149733852994544 0 0 0
405 1 18.871163014948426 -0.007419308998901097 12.577253676643842 0 0 0
406 1 20.444440917860526 1.5657510921349698 14.14973385317013 0 0 0
407 1 -0.008171820781005071 3.1389214935994976 12.57725367652175 0 0 0
408 1 1.5651060833378887 4.712091895124525 14.149733853089387 0 0 0
409 1 3.1383839803970264 3.138921488622525 12.577253678743084 0 0 0
410 1 4.711661923421359 4.712091929614962 14.14973380135858 0 0 0
411 1 6.284939743859772 3.1389214839588497 12.577253725378094 0 0 0
412 1 7.8582175354002555 4.712091771951575 14.149734174113444 0 0 0
413 1 9.431495516289083 3.1389213281812487 12.57725375139358 0 0 0
414 1 11.004773316395509 4.712094139232976 14.149731727103713 0 0 0
415 1 12.578051531455733 3.1389211081319157 12.577253821453873 0 0 0
416 1 14.151329621428562 4.712091634746646 14.149734218826906 0 0 0
417 1 15.724607212371776 3.1389215111300217 12.577253696987185 0 0 0
418 1 17.29788509947892 4.712091913996565 14.149733827877146 0 0 0
419 1 18.87116301683749 3.138921491165195 12.577253677599003 0 0 0
420 1 20.444440917872768 4.712091894479975 14.149733853357738 0 0 0
421 1 -0.00817182063554166 6.285262295126645 12.577253677745585 0 0 0
422 1 1.5651060768525087 7.8584326924945085 14.149733857180149 0 0 0
423 1 3.1383839846394745 6.285262255359187 12.577253721373173 0 0 0
424 1 4.7116616535077265 7.858432463478771 14.149734288824138 0 0 0
425 1 6.284940149672551 6.285262625210321 12.577252593439168 0 0 0
426 1 7.858229807338403 7.858445058541642 14.149722576853806 0 0 0
427 1 9.43147166118997 6.2852759608333155 12.577244532850886 0 0 0
428 1 11.004769813195887 7.858445466346155 14.149750538210627 0 0 0
429 1 12.57807442207328 6.285249565978535 12.577268053563659 0 0 0
430 1 14.151321348330125 7.8584395479702325 14.149727107876139 0 0 0
431 1 15.724607309030926 6.285262547919936 12.577253153847206 0 0 0
432 1 17.29788488233757 7.858432926146261 14.149733752703593 0 0 0
433 1 18.87116305053057 6.285262242908404 12.57725370965898 0 0 0
434 1 20.444440913150338 7.858432698141408 14.149733852681145 0 0 0
435 1 22.01771881673136 9.431603096569418 12.577253681237849 -1 0 0
436 1 1.5651060810634645 11.004773499169033 14.14973386334894 0 0 0
437 1 3.1383836381181665 9.431602966155012 12.5772538643171 0 0 0