LAMMPS data file via write_data, version 2 Aug 2023, timestep = 120, units = metal

690 atoms
3 atom types

-0.010101954884528842 22.019648951740297 xlo xhi
-0.01008832324941341 22.019635320105195 ylo yhi
-0.0034021840843706666 22.01294918094013 zlo zhi

Masses

1 183.84
2 1.008
3 4.0026

Atoms # atomic

1 1 -0.010101951978626064 -0.010088320343526583 -0.0034021811760676034 0 0 0
2 1 1.56345168416568 1.563463368424292 1.569194344852292 0 0 0
3 1 3.1370053201833326 -0.010088320329433128 -0.003402181174988832 0 0 0
4 1 4.7105589568821244 1.563463368898138 1.5691943455545432 0 0 0
5 1 6.28411259208319 -0.010088320426996552 -0.003402181233317328 0 0 0
6 1 7.85766622780663 1.5634633686648134 1.5691943424976387 0 0 0
7 1 9.431219863405488 -0.010088320352458586 -0.003402181209267216 0 0 0
8 1 11.004773499994574 1.563463298278039 1.5691942813883848 0 0 0
9 1 12.578327136596778 -0.010088320367840532 -0.003402181230494448 0 0 0
10 1 14.15188077228604 1.5634633683215389 1.569194342411227 0 0 0
11 1 15.725434407924983 -0.010088320432322957 -0.0034021812326987446 0 0 0
12 1 17.298988043028313 1.5634633691121569 1.569194345657287 0 0 0
13 1 18.8725416798867 -0.010088320328241947 -0.0034021811704508854 0 0 0
14 1 20.44609531600949 1.5634633683973764 1.5691943448359107 0 0 0
15 1 -0.010101951964568319 3.137015057065554 -0.0034021811750039642 0 0 0
16 1 1.5634516846375035 4.710566746385593 1.5691943455525732 0 0 0
17 1 3.137005319751108 3.1370150566337047 -0.00340218167626616 0 0 0
18 1 4.71055892860568 4.710566718127707 1.5691943130050174 0 0 0
19 1 6.2841125950453725 3.137015060686131 -0.0034021763140589948 0 0 0
20 1 7.857666363853841 4.710566909067952 1.5691945239909921 0 0 0
21 1 9.431219857642835 3.137015041752427 22.012949167585507 0 0 -1
22 1 11.004773471900837 4.710565975418547 1.5691938795584752 0 0 0
23 1 12.578327142031979 3.137015045927084 22.01294917194494 0 0 -1
24 1 14.151880674796347 4.710566882705423 1.5691944894877061 0 0 0
25 1 15.725434405455974 3.13701505974356 -0.0034021774516183783 0 0 0
26 1 17.298988060516802 4.710566730103327 1.5691943267864639 0 0 0
27 1 18.872541680145694 3.1370150568378117 -0.0034021814455379193 0 0 0
28 1 20.446095316640793 4.710566745224755 1.5691943444114382 0 0 0
29 1 -0.010101952062438238 6.284118434212623 -0.0034021812333414865 0 0 0
30 1 1.563451684409541 7.8576701225629355 1.5691943424972055 0 0 0
31 1 3.1370053238152154 6.284118437176065 -0.0034021763044544055 0 0 0
32 1 4.710559119892959 7.857670258644157 1.5691945242780654 0 0 0
33 1 6.284112553112367 6.2841183952899895 22.012949115951493 0 0 -1
34 1 7.857664842968445 7.857668739252112 1.5691912853885301 0 0 0
35 1 9.431219921207736 6.2841184882193195 -0.003402009827527535 0 0 0
36 1 11.00477378097001 7.857668673018313 1.5691980912999302 0 0 0
37 1 12.578327093427806 6.284118479744186 -0.003402046047399031 0 0 0
38 1 14.151881716751662 7.857669655716697 1.5691926358818897 0 0 0
39 1 15.725434429335834 6.284118414269065 22.012949147008868 0 0 -1
40 1 17.29898801966199 7.8576701429686935 1.5691943567815159 0 0 0
41 1 18.87254167907945 6.284118434488286 -0.0034021804657369255 0 0 0
42 1 20.446095313983363 7.857670124049597 1.5691943465952336 0 0 0
43 1 -0.010101951987521481 9.431221810779112 -0.0034021812102116825 0 0 0
44 1 1.5634516136321452 11.004773499998372 1.5691942810250998 0 0 0
45 1 3.1370053047994606 9.431221805004512 22.01294916751163 0 0 -1
46 1 4.710558183572816 11.004773471906853 1.5691938774118122 0 0 0
47 1 6.2841126463400405 9.431221868579717 -0.0034020096764980157 0 0 0
48 1 7.857664777610997 11.004773780395292 1.569198087163709 0 0 0
49 1 9.431219930520639 9.431221877704973 22.012948124879756 0 0 -1
50 1 11.00477409080077 11.00477408894391 1.5691946868151694 0 0 0
51 1 12.578327006046079 9.431221804711358 22.012948548610122 0 0 -1
52 1 14.151882413522538 11.004773763141037 1.569191142166536 0 0 0
53 1 15.72543442704025 9.431221795995272 22.012949168276258 0 0 -1
54 1 17.29898801395529 11.004773473245908 1.5691944076564712 0 0 0
55 1 18.872541683912644 9.431221811810886 22.012949180688015 0 0 -1
56 1 20.446095318927476 11.004773499856729 1.5691943404773965 0 0 0
57 1 -0.010101952003395266 12.578325189223232 -0.0034021812319418067 0 0 0
58 1 1.5634516840725137 14.151876877524712 1.5691943424176693 0 0 0
59 1 3.1370053089910086 12.578325194669384 22.01294917189212 0 0 -1
60 1 4.710559093467605 14.151876779990836 1.569194489644154 0 0 0
61 1 6.28411263777866 12.578325146042921 -0.0034020459807027597 0 0 0
62 1 7.857665760776147 14.151877821129247 1.5691926362162365 0 0 0
63 1 9.43121985745155 12.578325058930075 22.012948547737537 0 0 -1
64 1 11.004773763641387 14.151878517914673 1.5691911426916825 0 0 0
65 1 12.578327079062982 12.578325131868372 22.0129489440547 0 0 -1
66 1 14.151880837601702 14.151876943211006 1.5691939234245318 0 0 0
67 1 15.725434435942086 12.57832521819478 22.012949132969243 0 0 -1
68 1 17.298988044795635 14.151876894833135 1.5691943218225517 0 0 0
69 1 18.872541679944135 12.578325187870405 -0.0034021803145216595 0 0 0
70 1 20.44609531397563 14.151876876125295 1.5691943468526348 0 0 0
71 1 -0.010101952067678993 15.725428565795516 -0.003402181232626466 0 0 0
72 1 1.5634516848501825 17.298980253526217 1.5691943456537056 0 0 0
73 1 3.1370053228675374 15.725428563326409 -0.003402177448752557 0 0 0
74 1 4.710558940602923 17.298980270994967 1.5691943268151842 0 0 0
75 1 6.284112572130832 15.725428587174804 22.012949147030763 0 0 -1
76 1 7.857666248206402 17.298980230391724 1.56919435650493 0 0 0
77 1 9.431219848616333 15.725428585048595 22.012949168136636 0 0 -1
78 1 11.004773473224331 17.298980224792285 1.569194407236347 0 0 0
79 1 12.578327165586531 15.725428593867811 22.0129491328864 0 0 -1
80 1 14.151880789620833 17.298980255479684 1.5691943215954776 0 0 0
81 1 15.725434410849237 15.725428568726526 22.012949177893027 0 0 -1
82 1 17.298988048185965 17.298980258689504 1.5691943423184276 0 0 0
83 1 18.87254168003353 15.725428566020623 -0.00340218164820789 0 0 0
84 1 20.446095316538738 17.29898025475517 1.569194344414138 0 0 0
85 1 -0.010101951963385267 18.872531943004557 -0.003402181170477283 0 0 0
86 1 1.5634516841387405 20.44608363175091 1.5691943448359233 0 0 0
87 1 3.137005319955878 18.872531943262928 -0.00340218144477055 0 0 0
88 1 4.710558955718216 20.44608363238335 1.5691943444101617 0 0 0
89 1 6.284112592356793 18.872531942205086 -0.003402180474569448 0 0 0
90 1 7.857666229292528 20.44608362973673 1.5691943465835636 0 0 0
91 1 9.431219864433098 18.872531947019382 22.012949180696502 0 0 -1
92 1 11.004773499856896 20.44608363465022 1.5691943405073294 0 0 0
93 1 12.57832713524831 18.872531943065923 -0.0034021803209600544 0 0 0
94 1 14.151880770882332 20.44608362972982 1.569194346841908 0 0 0
95 1 15.725434408151797 18.87253194315457 -0.003402181651880086 0 0 0
96 1 17.298988044261478 20.44608363228049 1.5691943444135021 0 0 0
97 1 18.87254167992813 18.87253194304608 -0.003402181186023224 0 0 0
98 1 20.446095316021566 20.44608363176296 1.5691943448338064 0 0 0
99 1 -0.01010195197951256 -0.010088320344403245 3.141790870746598 0 0 0
100 1 1.5634516841113426 1.563463368369963 4.714387396635052 0 0 0
101 1 3.1370053200817565 -0.0100883203980904 3.1417908706585647 0 0 0
102 1 4.710558951867719 1.5634633637480375 4.714387392771758 0 0 0
103 1 6.2841125913742 -0.010088319303592842 3.1417908700160426 0 0 0
104 1 7.857666163172678 1.5634633094824086 4.714387320761028 0 0 0
105 1 9.431219868676767 -0.010088314471322869 3.141790877579522 0 0 0
106 1 11.004773500924452 1.5634638665279883 4.7143875595826685 0 0 0
107 1 12.57832713134374 -0.010088314301940099 3.1417908776083068 0 0 0
108 1 14.151880837331657 1.5634633108869382 4.714387318781702 0 0 0
109 1 15.725434408665704 -0.010088319207329968 3.1417908698871146 0 0 0
110 1 17.2989880466025 1.5634633651582566 4.714387394353999 0 0 0
111 1 18.872541679938198 -0.010088320429873739 3.1417908707122795 0 0 0
112 1 20.446095316091043 1.5634633683558472 4.714387396592506 0 0 0
113 1 -0.010101952033386513 3.137015056964034 3.1417908706586424 0 0 0
114 1 1.5634516794864037 4.71056674137023 4.714387392771225 0 0 0
115 1 3.137005319988859 3.137015056867973 3.1417908703994293 0 0 0
116 1 4.71055883479309 4.710566624163977 4.714387261467345 0 0 0
117 1 6.284112631100374 3.137015071325903 3.141790907404924 0 0 0
118 1 7.857666124334651 4.710565609444223 4.714387331106651 0 0 0
119 1 9.43122026068022 3.1370150803610115 3.141790724352466 0 0 0
120 1 11.00477354898573 4.710609404210373 4.714427470281544 0 0 0
121 1 12.578326742266382 3.137015069385966 3.141790736585585 0 0 0
122 1 14.151880782280754 4.710566060732833 4.714387444693106 0 0 0
123 1 15.72543436522861 3.1370150811457784 3.1417909104727415 0 0 0
124 1 17.298988131252173 4.710566624661542 4.714387297548674 0 0 0
125 1 18.87254168006916 3.1370150557715593 3.1417908700792703 0 0 0
126 1 20.44609531812517 4.710566743739684 4.714387395425854 0 0 0
127 1 -0.010101950943317459 6.28411843349899 3.141790870012576 0 0 0
128 1 1.5634516247982817 7.8576700577013385 4.714387320487478 0 0 0
129 1 3.1370053342792135 6.284118473018283 3.1417909072266776 0 0 0
130 1 4.710557806995895 7.857670003777259 4.714387317965193 0 0 0
131 1 6.28411109986851 6.284116942117625 3.141789057436672 0 0 0
132 1 7.857597541753983 7.857601437625919 4.714325865771938 0 0 0
133 1 9.431224807131212 6.284128486485175 3.1417988758612894 0 0 0
134 1 11.004805728595297 7.857889625365145 4.7147583532347035 0 0 0
135 1 12.578322720400053 6.284125215073238 3.141795445548939 0 0 0
136 1 14.151922047042211 7.857619418008997 4.714343002378005 0 0 0
137 1 15.7254353996223 6.284117544741679 3.141789782757268 0 0 0
138 1 17.29899018608916 7.857668532866656 4.71438591439642 0 0 0
139 1 18.872541718362864 6.284118405763129 3.141790844670194 0 0 0
140 1 20.446095360155095 7.857670100985089 4.71438737561824 0 0 0
141 1 -0.010101946077904047 9.431221816069 3.1417908776333507 0 0 0
142 1 1.5634521842232174 11.004773500909785 4.7143875611829 0 0 0
143 1 3.1370053436507197 9.431222208484105 3.141790724367419 0 0 0
144 1 4.7106016579825765 11.004773545984817 4.71442751081459 0 0 0
145 1 6.284122644429069 9.431226752618404 3.141798863563077 0 0 0
146 1 7.857885805960404 11.004805656660203 4.714758103627733 0 0 0
147 1 9.431216146665582 9.431218085630046 3.141702036540856 0 0 0
148 1 11.00453251432766 11.004532354866804 4.714476543785679 0 0 0
149 1 12.578324031713374 9.431221660571282 3.1417359932990596 0 0 0
150 1 14.151912443186673 11.004804847190494 4.714312743590215 0 0 0
151 1 15.725431335821458 9.431221226485828 3.1417928331261384 0 0 0
152 1 17.298985273094992 11.004773640504471 4.714390916060354 0 0 0
153 1 18.87254158908184 9.431221847192822 3.141790937532629 0 0 0
154 1 20.446095302481798 11.004773501670876 4.7143874112388735 0 0 0
155 1 -0.010101945920879653 12.578325183948348 3.141790877674042 0 0 0
156 1 1.5634516261212499 14.151876942815397 4.714387318474497 0 0 0
157 1 3.1370053330702867 12.57832479438753 3.1417907369908162 0 0 0
158 1 4.710558252989136 14.151876906731424 4.714387426652984 0 0 0
159 1 6.284119377305481 12.578320773615776 3.1417954347056223 0 0 0
160 1 7.857615465154656 14.151918198928575 4.714342970660687 0 0 0
161 1 9.4312197188368 12.578322087082727 3.141735942706789 0 0 0
162 1 11.00480487759401 14.151908567904178 4.714312736281822 0 0 0
163 1 12.578320721902088 12.578318776050027 3.141766675175921 0 0 0
164 1 14.15190773324484 14.15190383496785 4.714359728122847 0 0 0
165 1 15.725434571039525 12.578326288593598 3.141789527352827 0 0 0
166 1 17.298990157787014 14.151878377162445 4.714385664669619 0 0 0
167 1 18.87254161212028 12.578325153326512 3.14179093773763 0 0 0
168 1 20.446095361721643 14.15187689984073 4.714387373151826 0 0 0
169 1 -0.01010195084417709 15.725428566544426 3.141790869878111 0 0 0
170 1 1.5634516808972259 17.298980257102148 4.714387394355144 0 0 0
171 1 3.1370053439886094 15.725428523394372 3.1417909101831047 0 0 0
172 1 4.710558835470413 17.298980341633403 4.714387297941099 0 0 0
173 1 6.284111702245778 15.72542955809303 3.1417897828605477 0 0 0
174 1 7.857664637968279 17.298982399778826 4.714385911114215 0 0 0
175 1 9.431219279320102 15.725425492312826 3.1417928348535433 0 0 0
176 1 11.004773641497756 17.29897749054458 4.714390907844155 0 0 0
177 1 12.578328236367314 15.725428730796787 3.14178952660248 0 0 0
178 1 14.151882271100321 17.298982368817764 4.714385661620139 0 0 0
179 1 15.725434829771695 15.725428988048924 3.141790567071759 0 0 0
180 1 17.298988016892224 17.298980227509272 4.714387449276749 0 0 0
181 1 18.872541715805063 15.72542859428215 3.1417908412219746 0 0 0
182 1 20.446095314335434 17.29898025367243 4.714387398199343 0 0 0
183 1 -0.010101952065570406 18.872531943055634 3.141790870712817 0 0 0
184 1 1.5634516840966068 20.446083631832987 4.714387396591992 0 0 0
185 1 3.1370053188929714 18.872531943187145 3.141790870082636 0 0 0
186 1 4.710558954220558 20.44608363387804 4.71438739541463 0 0 0
187 1 6.284112563599638 18.8725319815647 3.1417908445817804 0 0 0
188 1 7.857666206253785 20.44608367589682 4.714387375641603 0 0 0
189 1 9.43121989975322 18.872531852784284 3.1417909369630133 0 0 0
190 1 11.004773501784324 20.44608361833489 4.714387411102996 0 0 0
191 1 12.578327100770725 18.872531875876515 3.141790937226394 0 0 0
192 1 14.15188079443662 20.44608367720182 4.714387373401976 0 0 0
193 1 15.72543443643988 18.87253197892763 3.1417908411802893 0 0 0
194 1 17.298988043218767 20.44608363012334 4.714387398156759 0 0 0
195 1 18.872541679759912 18.872531942878492 3.1417908711799667 0 0 0
196 1 20.44609531607851 20.44608363181942 4.7143873965441605 0 0 0
197 1 -0.010101951987527086 -0.010088320352434937 6.286983922447229 0 0 0
198 1 1.5634516837889652 1.563463368047653 7.859580448020964 0 0 0
199 1 3.1370053201749473 -0.010088320137806066 6.286983922446909 0 0 0
200 1 4.710558943252051 1.5634633641541857 7.859580455504797 0 0 0
201 1 6.284112588675027 -0.010088321107941764 6.286983920533193 0 0 0
202 1 7.857666150797441 1.563463342328823 7.859580351970601 0 0 0
203 1 9.431219800304463 22.01963527636221 6.286983859314837 0 -1 0
204 1 11.004773542548199 1.5634544533068717 7.859580312080394 0 0 0
205 1 12.578327202055773 22.01963527524023 6.286983856565646 0 -1 0
206 1 14.151880805495434 1.5634634554769942 7.859580391644991 0 0 0
207 1 15.725434408961538 -0.010088322587696435 6.286983922791172 0 0 0
208 1 17.298988056764973 1.5634633580424009 7.859580453348197 0 0 0
209 1 18.87254167991547 -0.010088320190881564 6.286983922329722 0 0 0
210 1 20.446095316208975 1.5634633682780368 7.859580448178091 0 0 0
211 1 -0.0101019517727977 3.1370150570567987 6.2869839224464705 0 0 0
212 1 1.5634516798871074 4.71056673274304 7.859580455516751 0 0 0
213 1 3.137005323356222 3.137015060238844 6.286983930498203 0 0 0
214 1 4.710559459282298 4.710567248744996 7.859580859313965 0 0 0
215 1 6.2841123720895 3.13701475709062 6.286983971261996 0 0 0
216 1 7.857686011868439 4.71058110445062 7.85957334603405 0 0 0
217 1 9.431214455567071 3.1370103478193427 6.286978783780237 0 0 0
218 1 11.00477679375583 4.709901192764323 7.859564345977983 0 0 0
219 1 12.57833261840081 3.137010461070355 6.286978678324867 0 0 0
220 1 14.151856735883124 4.71058708317117 7.859577581952015 0 0 0
221 1 15.725434541091753 3.1370148911927505 6.286984062895009 0 0 0
222 1 17.298987786849466 4.710566826633558 7.859580666936054 0 0 0
223 1 18.872541680569046 3.137015056776318 6.286983925243657 0 0 0
224 1 20.446095315725735 4.710566741641892 7.859580448923279 0 0 0
225 1 -0.010101952777688057 6.284118430815168 6.28698392054983 0 0 0
226 1 1.5634516582444957 7.857670045522664 7.859580351902473 0 0 0
227 1 3.1370050202850037 6.284118214243337 6.286983971370363 0 0 0
228 1 4.710573347820932 7.85768993034025 7.859573342112211 0 0 0
229 1 6.284103555462148 6.28410938443229 6.286976214584386 0 0 0
230 1 7.857265018134295 7.857268456484809 7.8590731042591155 0 0 0
231 1 9.43096053785609 6.284173047147549 6.2869016283068575 0 0 0
232 1 11.004605125608736 7.816714989248756 7.83912644678683 0 0 0
233 1 12.578581195233062 6.284184509525215 6.286891148061314 0 0 0
234 1 14.152163997925392 7.857365956997558 7.8590930117845685 0 0 0
235 1 15.725442776124593 6.284112869377534 6.286977886902741 0 0 0
236 1 17.298994609819466 7.857667594252149 7.859575590257027 0 0 0
237 1 18.872541865653062 6.284118338279368 6.286983850123728 0 0 0
238 1 20.446095472548176 7.85767003161002 7.85958038887019 0 0 0
239 1 22.01964890766999 9.431221747583786 6.2869838592696246 -1 0 0
240 1 1.5634427486978681 11.004773542164019 7.859580311812281 0 0 0
241 1 3.137000592492396 9.43121639131978 6.286978774549801 0 0 0
242 1 4.709891981832878 11.004776771958015 7.8595643410518505 0 0 0
243 1 6.284166512349172 9.430961475900832 6.286900760896535 0 0 0
244 1 7.816628257363174 11.004610185593272 7.839092471954379 0 0 0
245 1 9.429028282175624 9.429030723409522 6.281103940994731 0 0 0
246 1 11.037333945199263 11.037355656881221 7.792392271148253 0 0 0
247 1 12.580768125243434 9.430750062790958 6.283263444955794 0 0 0
248 1 14.156594322669918 11.004681752318163 7.85680072094461 0 0 0
249 1 15.725527740995354 9.431157104522066 6.286921352443691 0 0 0
250 1 17.299073752572546 11.004776807937997 7.859569434697631 0 0 0
251 1 18.87254380163296 9.431221106734673 6.286983271875399 0 0 0
252 1 20.44609645353687 11.004773546848549 7.859580402921509 0 0 0
253 1 22.019648906700812 12.578325254796685 6.286983856440779 -1 0 0
254 1 1.5634517707079552 14.151876911156393 7.8595803912329405 0 0 0
255 1 3.1370007034604885 12.578330682309165 6.286978670578368 0 0 0
256 1 4.710579314646933 14.151852838782018 7.859577549749381 0 0 0
257 1 6.284177729257434 12.57858032902814 6.2868900988387555 0 0 0
258 1 7.857363148686598 14.152159331301114 7.859094010636022 0 0 0
259 1 9.430745497993506 12.580768402042645 6.283259838329643 0 0 0
260 1 11.00468043159614 14.156585686874248 7.856803549905511 0 0 0
261 1 12.579295956681571 12.579293884977556 6.285145070816475 0 0 0
262 1 14.151587505840945 14.151581660313427 7.859426610109598 0 0 0
263 1 15.725512748240488 12.578388867223616 6.286916811684799 0 0 0
264 1 17.298983480040953 14.151874727846458 7.859580144617606 0 0 0
265 1 18.87254360995366 12.578326007997443 6.28698319750753 0 0 0
266 1 20.44609529432022 14.151876924364254 7.859580430531031 0 0 0
267 1 -0.010101954324202184 15.725428566800362 6.286983922834414 0 0 0
268 1 1.563451673755571 17.298980267279013 7.859580453364183 0 0 0
269 1 3.137005154301627 15.725428699278508 6.286984062766922 0 0 0
270 1 4.7105590350679725 17.298979998891603 7.859580666241638 0 0 0
271 1 6.284107050579397 15.725436926374783 6.286977908469441 0 0 0
272 1 7.8576636396543895 17.298986863812427 7.859575534463707 0 0 0
273 1 9.431155175919407 15.725521941058732 6.286921345105663 0 0 0
274 1 11.004776746499502 17.299066001313154 7.85956933636257 0 0 0
275 1 12.578390799862033 15.72550685459632 6.286916873356328 0 0 0
276 1 14.151878790841037 17.298975821586225 7.859579978690308 0 0 0
277 1 15.725432256580241 15.725426419540376 6.286986800044882 0 0 0
278 1 17.29898826876834 17.298980476824067 7.85958057052953 0 0 0
279 1 18.87254160353679 15.725428533073977 6.286983980703023 0 0 0
280 1 20.44609531838354 17.29898025556047 7.85958044788829 0 0 0
281 1 -0.010101951824686286 18.87253194303468 6.2869839223275745 0 0 0
282 1 1.56345168402018 20.446083631949772 7.8595804481788685 0 0 0
283 1 3.1370053198561316 18.872531943714336 6.286983925217231 0 0 0
284 1 4.710558952158809 20.44608363145118 7.859580448962896 0 0 0
285 1 6.284112495097951 18.872532129545103 6.2869838491867265 0 0 0
286 1 7.857666136230106 20.44608378961361 7.8595803882490385 0 0 0
287 1 9.431219158381536 18.872534064482625 6.286983271873834 0 0 0
288 1 11.00477354562407 20.446084772622314 7.859580400247446 0 0 0
289 1 12.578327955041486 18.872533861282353 6.286983207773184 0 0 0
290 1 14.1518808210053 20.446083613897514 7.859580428600074 0 0 0
291 1 15.725434378121886 18.872531869516138 6.286983977792291 0 0 0
292 1 17.298988045006897 20.446083634021242 7.859580447996923 0 0 0
293 1 18.872541682532933 18.87253194561 6.286983919198182 0 0 0
294 1 20.446095315868067 20.446083631610527 7.859580448261502 0 0 0
295 1 -0.010101951969452155 -0.010088320334359581 9.432176974164598 0 0 0
296 1 1.5634516842446113 1.5634633685033617 11.004773500131614 0 0 0
297 1 3.137005319954263 -0.010088320568997092 9.432176974215306 0 0 0
298 1 4.710558956837015 1.5634633687197128 11.004773495285438 0 0 0
299 1 6.284112587309164 -0.010088314638164977 9.432176972957684 0 0 0
300 1 7.857666057257741 1.5634630901991118 11.00477366916341 0 0 0
301 1 9.431219787459463 22.019635207027687 9.432177028723618 0 -1 0
302 1 11.004773538411468 1.5634628225422782 11.004773499470794 0 0 0
303 1 12.578327215766484 22.019635203285507 9.432177028277884 0 -1 0
304 1 14.151880904428 1.563463140100932 11.004773626613378 0 0 0
305 1 15.725434409536394 -0.010088317542943726 9.43217697213961 0 0 0
306 1 17.29898804323903 1.5634633685755992 11.004773495961421 0 0 0
307 1 18.87254168002653 -0.010088320555914888 9.432176974284626 0 0 0
308 1 20.446095315926723 1.5634633684349235 11.004773500050243 0 0 0
309 1 -0.010101952206832765 3.1370150568384054 9.432176974215466 0 0 0
310 1 1.5634516844700501 4.710566746349042 11.004773495271852 0 0 0
311 1 3.1370052970592903 3.1370150339479106 9.4321769632753 0 0 0
312 1 4.710558740828212 4.710566530217819 11.004773209796474 0 0 0
313 1 6.284112817296978 3.1370155516143545 9.43217676621802 0 0 0
314 1 7.857659087902436 4.710554754186292 11.004782294105572 0 0 0
315 1 9.431214391852988 3.136997918433713 9.432182120729676 0 0 0
316 1 11.004776686216358 4.7105329751133045 11.004771757700174 0 0 0
317 1 12.578332581478621 3.1370044007515023 9.432182106459546 0 0 0
318 1 14.151884105464582 4.710557813887283 11.004778081608563 0 0 0
319 1 15.725434308944266 3.137015320134068 9.432176728870514 0 0 0
320 1 17.298988216569857 4.710566603774961 11.004773342122867 0 0 0
321 1 18.872541691498682 3.1370150417253138 9.432176968979403 0 0 0
322 1 20.446095320910697 4.710566742166733 11.004773500728714 0 0 0
323 1 -0.01010194626396305 6.284118429453604 9.43217697295417 0 0 0
324 1 1.5634514052603756 7.857669951689441 11.004773669546566 0 0 0
325 1 3.1370058162449497 6.284118660537844 9.432176765883874 0 0 0
326 1 4.710546951393196 7.857662969766949 11.004782311090056 0 0 0
327 1 6.284154654658466 6.284160485354939 9.432178888722708 0 0 0
328 1 7.8573079710356435 7.857311884050488 11.005124227082385 0 0 0
329 1 9.431022639967619 6.2832667108300235 9.432377814068463 0 0 0
330 1 11.004632986470096 7.855215409199206 11.008104567624041 0 0 0
331 1 12.578433943560182 6.283816339639955 9.432372003831905 0 0 0
332 1 14.152038181869479 7.857254648427037 11.005166069054525 0 0 0
333 1 15.725409138791335 6.284146321784976 9.43217760743814 0 0 0
334 1 17.298992696562756 7.857667307741854 11.004778456381016 0 0 0
335 1 18.872541659538733 6.284118359822987 9.432177001917891 0 0 0
336 1 20.446095417754098 7.857670036295781 11.00477356559846 0 0 0
337 1 22.019648837087793 9.431221734724389 9.432177028838133 -1 0 0
338 1 1.563451137605797 11.004773538057401 11.004773498391652 0 0 0
339 1 3.136988154560766 9.431216327713878 9.4321821318697 0 0 0
340 1 4.710525090916851 11.0047766650088 11.004771757863484 0 0 0
341 1 6.28326001544303 9.431023828097791 9.432378397585904 0 0 0
342 1 7.855204658116891 11.004632726031645 11.00810621609032 0 0 0
343 1 9.385737864902307 9.385727926567675 9.471622428480725 0 0 0
344 1 10.999943113538986 10.999952634315544 11.03930628134111 0 0 0
345 1 12.627476425465165 9.412776489439239 9.451840998956703 0 0 0
346 1 14.155827267096418 11.004742811477348 11.007415574065934 0 0 0
347 1 15.72621720627792 9.43129855532248 9.432187852867179 0 0 0
348 1 17.299063020712307 11.004776773396355 11.004784510842839 0 0 0
349 1 18.87255271080862 9.431220768536107 9.432177074211285 0 0 0
350 1 20.44609640153904 11.004773542523624 11.004773546295132 0 0 0
351 1 22.019648830680648 12.578325268525862 9.432177028393497 -1 0 0
352 1 1.5634514545498435 14.151877010350132 11.004773627387113 0 0 0
353 1 3.136994590227694 12.578330646495433 9.432182117664706 0 0 0
354 1 4.710550001613775 14.151880250011697 11.004778126437289 0 0 0
355 1 6.28380594291317 12.578433325802637 9.432372489770644 0 0 0
356 1 7.8572518782324146 14.152033458764386 11.00516484182816 0 0 0
357 1 9.412783634808068 12.62738573394154 9.451810413564857 0 0 0
358 1 11.004741295552915 14.15581868261398 11.007412224146831 0 0 0
359 1 12.599808921737074 12.59977175166796 9.432484526517843 0 0 0
360 1 14.151636617655814 14.15163064067384 11.004931690034164 0 0 0
361 1 15.725661450440017 12.578135511210847 9.432182720795383 0 0 0
362 1 17.298984371311967 14.15187524510123 11.004773946073804 0 0 0
363 1 18.8725458787603 12.578326214346758 9.432177057536107 0 0 0
364 1 20.44609529965696 14.15187692357475 11.004773520690188 0 0 0
365 1 -0.010101949163264989 15.725428567369693 9.432176972136732 0 0 0
366 1 1.5634516843161173 17.298980253728253 11.004773495941004 0 0 0
367 1 3.1370055850039273 15.725428464871957 9.43217672852138 0 0 0
368 1 4.710558812731941 17.298980428176026 11.004773342774731 0 0 0
369 1 6.284140428560513 15.725403335180335 9.432177605911358 0 0 0
370 1 7.857663353270979 17.29898495073739 11.004778513525737 0 0 0
371 1 9.431294194452363 15.726216185999837 9.432187880298649 0 0 0
372 1 11.00477671188365 17.299055275059054 11.004784609884288 0 0 0
373 1 12.578143026174104 15.725670505078527 9.432182726037576 0 0 0
374 1 14.151879307236756 17.298976709639362 11.004774111788658 0 0 0
375 1 15.725412490629449 15.725406583859199 9.432176556719057 0 0 0
376 1 17.298988220068615 17.29898042812722 11.004773379277532 0 0 0
377 1 18.87254158965554 15.725428603838775 9.432176966618545 0 0 0
378 1 20.446095317925348 17.298980255320725 11.004773500286817 0 0 0
379 1 -0.010101952197984368 18.872531943140896 9.432176974284902 0 0 0
380 1 1.5634516841767505 20.446083631667797 11.004773500049604 0 0 0
381 1 3.137005304869159 18.87253195460451 9.43217696898525 0 0 0
382 1 4.710558952684406 20.446083636629 11.004773500687 0 0 0
383 1 6.284112521703241 18.87253191889645 9.43217700189975 0 0 0
384 1 7.857666140914065 20.44608373487328 11.004773566227191 0 0 0
385 1 9.431218823183368 18.87254304009186 9.43217707424415 0 0 0
386 1 11.004773541299269 20.44608472056289 11.004773549029368 0 0 0
387 1 12.578328163755543 18.8725363582195 9.432177057489689 0 0 0
388 1 14.151880820216531 20.446083619197864 11.004773522612458 0 0 0
389 1 15.725434440948813 18.87253184661019 9.432176966641814 0 0 0
390 1 17.29898804476747 20.446083633563376 11.004773500178814 0 0 0
391 1 18.872541687159405 18.87253195033284 9.432176974603255 0 0 0
392 1 20.446095315886843 20.446083631629325 11.004773500041367 0 0 0
393 1 -0.010101951980734037 -0.010088320345637305 12.577370025842505 0 0 0
394 1 1.5634516840330734 1.5634633682916754 14.149966551816368 0 0 0
395 1 3.137005320040619 -0.010088320276703724 12.577370025902095 0 0 0
396 1 4.71055895494369 1.5634633682765604 14.149966552503038 0 0 0
397 1 6.284112588129117 -0.010088322766614515 12.5773700292423 0 0 0
398 1 7.857666221388841 1.5634633562861595 14.14996655513062 0 0 0
399 1 9.431219854990958 -0.010088304419118607 12.577370028297668 0 0 0
400 1 11.004773496733609 1.563463391295412 14.149966553519176 0 0 0
401 1 12.578327146266469 -0.010088304792410793 12.577370031780475 0 0 0
402 1 14.151880781918575 1.563463348133708 14.149966559810197 0 0 0
403 1 15.725434410659332 22.01963531910439 12.577370027739976 0 -1 0
404 1 17.298988044978007 1.5634633675847822 14.14996655226429 0 0 0
405 1 18.872541679997642 -0.010088320325080754 12.577370025895766 0 0 0
406 1 20.44609531612303 1.5634633683113106 14.149966551786118 0 0 0
407 1 -0.010101951911396673 3.137015056922585 12.577370025902477 0 0 0
408 1 1.5634516840135038 4.710566744443845 14.149966552507088 0 0 0
409 1 3.1370053147976544 3.1370150516771456 12.577370029770288 0 0 0
410 1 4.710558980842287 4.710566770299059 14.149966515378832 0 0 0
411 1 6.284112453246933 3.1370149058570664 12.577370175238512 0 0 0
412 1 7.8576656498632005 4.710565909535345 14.149967722127208 0 0 0
413 1 9.43121958203484 3.137014472042309 12.57737023372403 0 0 0
414 1 11.004773058175843 4.710570455890918 14.149962860909387 0 0 0
415 1 12.578327454947724 3.137014051259685 12.577370314797864 0 0 0
416 1 14.151881667558472 4.710565668133553 14.149967597340629 0 0 0
417 1 15.725434502615318 3.137014930178067 12.577370115600292 0 0 0
418 1 17.298988070820055 4.7105667178899235 14.149966562098221 0 0 0
419 1 18.872541684887228 3.137015052690001 12.577370028834313 0 0 0
420 1 20.446095316045053 4.710566745143423 14.149966551648205 0 0 0
421 1 -0.01010195444443777 6.2841184302681 12.577370029232503 0 0 0
422 1 1.5634516720659708 7.857670116145421 14.149966555077002 0 0 0
423 1 3.1370051685639737 6.284118295063639 12.577370175664502 0 0 0
424 1 4.710558118902643 7.857669543076649 14.149967723584927 0 0 0
425 1 6.2841090939827415 6.284114934686305 12.577372603216281 0 0 0
426 1 7.8576813336177285 7.857685226389181 14.149955289407783 0 0 0
427 1 9.431170022945816 6.284115818230102 12.57737592948818 0 0 0
428 1 11.004759393014004 7.85768045911568 14.150006513413791 0 0 0
429 1 12.578370615825065 6.284077640511763 12.577406728663915 0 0 0
430 1 14.151885343152742 7.857664654135814 14.149975827840612 0 0 0
431 1 15.725438482206176 6.284113970955571 12.577373570603712 0 0 0
432 1 17.298989388812455 7.8576691175896025 14.149967865994311 0 0 0
433 1 18.87254176220469 6.284118373470833 12.577370076811446 0 0 0
434 1 20.44609534727892 7.857670107208055 14.149966566342282 0 0 0
435 1 -0.010101936036808217 9.43122180239784 12.577370028185415 0 0 0
436 1 1.5634517072363987 11.00477349674572 14.14996655337325 0 0 0
437 1 3.1370047356336603 9.431221528471296 12.577370232187672 0 0 0
438 1 4.7105626718913785 11.00477305820666 14.14996285521241 0 0 0