LAMMPS data file via write_data, version 2 Aug 2023, timestep = 120, units = metal

691 atoms
3 atom types

-0.009449689326658633 22.018996686182433 xlo xhi
-0.008612985230082176 22.01815998208586 ylo yhi
-0.0031729433060369012 22.0127199401618 zlo zhi

Masses

1 183.84
2 1.008
3 4.0026

Atoms # atomic

1 1 -0.009449686470183783 -0.008612982375399291 -0.0031729404442980935 0 0 0
2 1 1.5640107689384677 1.5647279438693387 1.5693908369439564 0 0 0
3 1 3.137471224154328 -0.008612982360156961 -0.0031729404405639898 0 0 0
4 1 4.7109316802485095 1.5647279444258193 1.5693908378297676 0 0 0
5 1 6.28439213447066 -0.008612982399608803 -0.0031729405122630887 0 0 0
6 1 7.857852591754414 1.5647279485121328 1.5693908359792637 0 0 0
7 1 9.431313043626815 -0.008612982894611544 -0.003172940715182741 0 0 0
8 1 11.004773487199415 1.5647278120830905 1.569390722964654 0 0 0
9 1 12.578233956038508 -0.008612981232704276 -0.00317293901562142 0 0 0
10 1 14.151694425846324 1.5647279103507343 1.5693908096741276 0 0 0
11 1 15.72515486593586 -0.0086129832787733 -0.0031729410263129725 0 0 0
12 1 17.298615314807854 1.5647279521886912 1.5693908433114654 0 0 0
13 1 18.87207577586579 -0.008612982237231111 -0.003172940367941302 0 0 0
14 1 20.445536231411623 1.5647279436709451 1.5693908367578029 0 0 0
15 1 -0.009449686530790547 3.1380688699852457 -0.003172940382870801 0 0 0
16 1 1.5640107697002334 4.711409797104081 1.569390838130592 0 0 0
17 1 3.13747122364771 3.138068869426844 -0.0031729410727897728 0 0 0
18 1 4.710931648398842 4.711409763089358 1.569390797234419 0 0 0
19 1 6.284392140108283 3.1380688766834393 -0.0031729320706364267 0 0 0
20 1 7.857852890158283 4.711410148096907 1.5693911806529268 0 0 0
21 1 9.431313026738204 3.1380688328098514 22.012719906643284 0 0 -1
22 1 11.004773561273188 4.711407742384871 1.569389339396308 0 0 0
23 1 12.578233962641406 3.1380688262380083 22.012719885995953 0 0 -1
24 1 14.151694192046651 4.711408986872926 1.5693902008452267 0 0 0
25 1 15.725154872360475 3.138068857618819 22.012719935902396 0 0 -1
26 1 17.29861521255499 4.7114099124797475 1.5693909253032587 0 0 0
27 1 18.872075774662402 3.138068871454187 -0.003172939305909196 0 0 0
28 1 20.445536226643398 4.711409798084727 1.5693908399057164 0 0 0
29 1 -0.009449686083389617 6.2847507216862715 -0.003172940934129042 0 0 0
30 1 1.5640107676606485 7.858091647279138 1.569390831880955 0 0 0
31 1 3.137471229484075 6.2847507259035265 -0.0031729331449360867 0 0 0
32 1 4.7109319145890645 7.858091826046198 1.5693911010952768 0 0 0
33 1 6.2843920635532236 6.284750662048323 22.012719834669184 0 0 -1
34 1 7.857849997618403 7.858089718582124 1.5693861179696238 0 0 0
35 1 9.431313138897613 6.284750819390255 -0.003172585700272781 0 0 0
36 1 11.004770988992579 7.858087109352183 1.5694002468012638 0 0 0
37 1 12.578233899464676 6.2847510212328626 -0.003172331059593187 0 0 0
38 1 14.1516985150151 7.858088526694335 1.5693929617079496 0 0 0
39 1 15.725154877465183 6.2847507215624665 -0.0031728660602422434 0 0 0
40 1 17.298616120850667 7.858091624637886 1.5693900975069097 0 0 0
41 1 18.872075791599222 6.284750712777597 22.012719928588574 0 0 -1
42 1 20.445536247077193 7.85809164170468 1.5693908278563264 0 0 0
43 1 -0.009449687014393948 9.43143257310658 -0.0031729396489050053 0 0 0
44 1 1.5640106506628773 11.004773499972005 1.569390727117109 0 0 0
45 1 3.1374711987324106 9.43143256569562 22.012719916076875 0 0 -1
46 1 4.710930577984758 11.004773459256596 1.5693901413399625 0 0 0
47 1 6.284392227904355 9.431432655953623 -0.003172688418688999 0 0 0
48 1 7.8578503591746225 11.004774013850254 1.5693957750868897 0 0 0
49 1 9.431313445048422 9.431432628630214 22.01271898777949 0 0 -1
50 1 11.004771168926375 11.00477761420181 1.569392554851905 0 0 0
51 1 12.578233750437375 9.431432531212879 22.012714587325437 0 0 -1
52 1 14.151699605362193 11.004777005829173 1.569387047405481 0 0 0
53 1 15.725154586195739 9.431432516261747 -0.0031726421389521187 0 0 0
54 1 17.298615784222747 11.00477352018496 1.5693904255763893 0 0 0
55 1 18.872075789327205 9.431432577844054 22.012719924590296 0 0 -1
56 1 20.44553624857271 11.004773496039391 1.5693908241014143 0 0 0
57 1 -0.009449687688491202 12.578114426889554 -0.0031729390057721363 0 0 0
58 1 1.5640107664855292 14.151455352973601 1.569390830975999 0 0 0
59 1 3.137471206929687 12.578114433720176 22.0127199246625 0 0 -1
60 1 4.710931858287706 14.151455229771553 1.569391028123648 0 0 0
61 1 6.284392194224895 12.578114375490156 -0.003172760281067531 0 0 0
62 1 7.857852254422623 14.151456458212431 1.5693891446420385 0 0 0
63 1 9.431313037062429 12.578114260155278 22.01271944228397 0 0 -1
64 1 11.004773467875129 14.151458016113137 1.56938597025962 0 0 0
65 1 12.578233865153532 12.578114132330052 22.012719664458682 0 0 -1
66 1 14.151694685202953 14.151455810153776 1.5693896786007873 0 0 0
67 1 15.725154910284699 12.578114478896726 22.012719933704975 0 0 -1
68 1 17.298615216152445 14.151455298346008 1.569391035588897 0 0 0
69 1 18.87207578602586 12.578114432761259 22.01271992668646 0 0 -1
70 1 20.445536244511857 14.15145536105529 1.569390822875712 0 0 0
71 1 -0.00944968637589198 15.724796278297557 -0.0031729408517000954 0 0 0
72 1 1.5640107701752264 17.298137202663057 1.5693908383949007 0 0 0
73 1 3.1374712277660763 15.724796274902051 -0.0031729352422386952 0 0 0
74 1 4.710931664934549 17.29813722068672 1.569390817459826 0 0 0
75 1 6.284392114593759 15.72479630109169 22.012719905152988 0 0 -1
76 1 7.8578525987971215 17.29813720685602 1.5693908272460277 0 0 0
77 1 9.431313011321144 15.724796320479028 22.012719893690864 0 0 -1
78 1 11.004773487038086 17.298137149204315 1.5693909225084501 0 0 0
79 1 12.578233993747713 15.72479630234245 22.012719896000373 0 0 -1
80 1 14.151694415314484 17.29813717719394 1.5693908299835306 0 0 0
81 1 15.72515487935129 15.724796291992885 22.012719917408553 0 0 -1
82 1 17.298615335482943 17.298137225520424 1.5693908231530458 0 0 0
83 1 18.87207577300578 15.724796275601342 -0.0031729355736269268 0 0 0
84 1 20.445536230358137 17.29813720263075 1.5693908380302375 0 0 0
85 1 -0.0094496864628185 18.871478130121602 -0.003172940416724281 0 0 0
86 1 1.5640107688870704 20.444819056349758 1.569390836917922 0 0 0
87 1 3.1374712239172124 18.87147813042858 -0.0031729407583642945 0 0 0
88 1 4.710931679025628 20.444819056809976 1.569390836658847 0 0 0
89 1 6.284392134492877 18.871478129418346 -0.0031729396920768898 0 0 0
90 1 7.85785259058141 20.444819055462045 1.569390838080212 0 0 0
91 1 9.431313045593049 18.871478133775405 -0.003172943134334348 0 0 0
92 1 11.004773499656665 20.444819056658005 1.5693908339847829 0 0 0
93 1 12.578233954492898 18.871478131782343 -0.003172941418879841 0 0 0
94 1 14.151694409245174 20.444819051352244 1.5693908410567168 0 0 0
95 1 15.72515486549273 18.87147812913466 -0.0031729400430791184 0 0 0
96 1 17.29861532158311 20.444819058014716 1.569390835845867 0 0 0
97 1 18.872075776111238 18.8714781304208 -0.0031729406058866893 0 0 0
98 1 20.445536231222306 20.444819056238558 1.569390837004724 0 0 0
99 1 -0.009449686469510719 -0.008612982367259693 3.1419546141536996 0 0 0
100 1 1.5640107688483678 1.5647279437901551 4.714518391383343 0 0 0
101 1 3.1374712239870157 -0.008612982441081893 3.141954614008297 0 0 0
102 1 4.710931672739976 1.564727936915945 4.714518385478748 0 0 0
103 1 6.284392133724203 -0.008612981708530169 3.1419546134658876 0 0 0
104 1 7.857852490019364 1.5647278428852625 4.714518278581827 0 0 0
105 1 9.431313053605427 -0.00861296770941982 3.1419546258472133 0 0 0
106 1 11.004773585193533 1.56472886644503 4.714518694192013 0 0 0
107 1 12.578233949154654 -0.008612983225886777 3.141954622332165 0 0 0
108 1 14.151694412453976 1.564728156379445 4.714518378252536 0 0 0
109 1 15.725154863419412 -0.008612972278142539 3.1419546166749894 0 0 0
110 1 17.298615339684797 1.5647279106412713 4.714518369404897 0 0 0
111 1 18.872075776200504 -0.008612983198305129 3.1419546138534153 0 0 0
112 1 20.445536231156616 1.564727944028074 4.714518391475808 0 0 0
113 1 -0.009449686136173736 3.1380688695026446 3.1419546136986893 0 0 0
114 1 1.5640107613642251 4.7114097887764945 4.714518384710267 0 0 0
115 1 3.1374712243361578 3.138068870200904 3.1419546138573184 0 0 0
116 1 4.710931516456083 4.711409648629074 4.714518193280094 0 0 0
117 1 6.284392181435782 3.138068881945892 3.1419546580055644 0 0 0
118 1 7.857851663239924 4.711407591290582 4.71451765296461 0 0 0
119 1 9.43131378461654 3.138069152718085 3.141954562191223 0 0 0
120 1 11.004782666898945 4.711476763965019 4.714578670717803 0 0 0
121 1 12.578233456342641 3.1380676610739573 3.1419531036610877 0 0 0
122 1 14.151685228929193 4.711422877728774 4.7145292775888015 0 0 0
123 1 15.725154563974845 3.1380692836264075 3.141954937244874 0 0 0
124 1 17.298616326177118 4.711408673115644 4.714517373944329 0 0 0
125 1 18.872075788022965 3.1380688541058506 3.1419545986657944 0 0 0
126 1 20.44553625955199 4.711409780082282 4.7145183731151405 0 0 0
127 1 -0.009449688769686018 6.284750721992163 3.141954615120155 0 0 0
128 1 1.5640106968735672 7.858091563127159 4.7145182950094195 0 0 0
129 1 3.1374712595826253 6.2847507816568235 3.141954676716878 0 0 0
130 1 4.710930705602826 7.858091663999378 4.714518675784057 0 0 0
131 1 6.284390570357642 6.284748934279323 3.1419524302381885 0 0 0
132 1 7.857774837751605 7.85801288135323 4.714449357291585 0 0 0
133 1 9.431326469837424 6.284770709944706 3.1419708781716165 0 0 0
134 1 11.004840116799263 7.8586033534774655 4.715406708304162 0 0 0
135 1 12.57822789571903 6.28477473151502 3.141980680320745 0 0 0
136 1 14.151722396720954 7.858261883509294 4.7149072012036655 0 0 0
137 1 15.72514928959269 6.284756530614656 3.141959153733325 0 0 0
138 1 17.298613686348222 7.858092626319335 4.714520585762382 0 0 0
139 1 18.872075572249333 6.284750776927875 3.14195471428984 0 0 0
140 1 20.445536209060652 7.858091610142941 4.714518372529229 0 0 0
141 1 -0.009449677124149774 9.431432583625254 3.1419546302204577 0 0 0
142 1 1.564011563057518 11.004773497861985 4.714518744218556 0 0 0
143 1 3.1374712162901366 9.431433095388186 3.1419543821934135 0 0 0
144 1 4.710986529807537 11.004773603985333 4.714569594196979 0 0 0
145 1 6.2844052065193585 9.43143926212049 3.14196508557757 0 0 0
146 1 7.858135612958538 11.004822265448755 4.714961570319985 0 0 0
147 1 9.431313816292356 9.431429108368805 3.1418521759717315 0 0 0
148 1 11.00458493928322 11.00456882955491 4.71483412955422 0 0 0
149 1 12.578228441668475 9.431467483940912 3.1415634784896613 0 0 0
150 1 14.15160549299722 11.004911425449853 4.714650881215052 0 0 0
151 1 15.725146979338582 9.431433054144387 3.1419629296659273 0 0 0
152 1 17.298606757216596 11.004773113977997 4.714526126941395 0 0 0
153 1 18.87207610002389 9.43143255512932 3.1419542412849277 0 0 0
154 1 20.445535880201497 11.004773545076855 4.7145187404304885 0 0 0
155 1 -0.009449670687592672 12.578114417278089 3.141954627779203 0 0 0
156 1 1.564010693739837 14.15145544101496 4.714518284888357 0 0 0
157 1 3.1374712021414317 12.578113913418902 3.141954396952242 0 0 0
158 1 4.71093167325672 14.151455166060408 4.714519035889589 0 0 0
159 1 6.284400303030901 12.578108600023551 3.141959830205744 0 0 0
160 1 7.857810606204791 14.151484462209917 4.714483496348952 0 0 0
161 1 9.431317297345988 12.57810703714659 3.14190373970295 0 0 0
162 1 11.004785646573119 14.15152498604735 4.714405770484661 0 0 0
163 1 12.578224264841023 12.57811319470431 3.1419126414102307 0 0 0
164 1 14.15174258242432 14.15151164213908 4.714464588507587 0 0 0
165 1 15.725151806128792 12.578113221339809 3.1419564483220843 0 0 0
166 1 17.29861195687691 14.151449870068472 4.714522724491608 0 0 0
167 1 18.872076479423427 12.578114442552204 3.1419538399614337 0 0 0
168 1 20.4455361585565 14.151455352810636 4.714518382008429 0 0 0
169 1 -0.009449688066779439 15.724796277383758 3.141954615202506 0 0 0
170 1 1.5640107625565551 17.298137209047535 4.714518387135614 0 0 0
171 1 3.1374712815160724 15.724796208278168 3.1419546879494966 0 0 0
172 1 4.710931483633839 17.29813736918061 4.714518198149188 0 0 0
173 1 6.284391455336161 15.72479715910328 3.1419535607894806 0 0 0
174 1 7.857851257023187 17.298138752769937 4.714517285294415 0 0 0
175 1 9.43131170266737 15.724794129467679 3.1419557184047573 0 0 0
176 1 11.00477337850641 17.298136512516603 4.714520437382684 0 0 0
177 1 12.578235225633833 15.724795290573914 3.141954586418501 0 0 0
178 1 14.15169628232933 17.298141647800023 4.714514780754449 0 0 0
179 1 15.72515582508956 15.724797648248831 3.1419536185427765 0 0 0
180 1 17.29861490749918 17.298136678270172 4.714518831531021 0 0 0
181 1 18.87207570438777 15.72479616868134 3.1419547041696263 0 0 0
182 1 20.44553622679676 17.29813720666211 4.714518390439899 0 0 0
183 1 -0.009449686659460664 18.871478130280295 3.141954614043318 0 0 0
184 1 1.5640107688591476 20.444819056426873 4.714518391341793 0 0 0
185 1 3.1374712221854733 18.871478130690566 3.1419546126745037 0 0 0
186 1 4.7109316758888795 20.444819060946926 4.714518388188412 0 0 0
187 1 6.284392113085938 18.871478155884237 3.1419545984054857 0 0 0
188 1 7.857852573244176 20.44481908342805 4.714518379574586 0 0 0
189 1 9.431313053963075 18.871478066830523 3.141954666264027 0 0 0
190 1 11.004773500102504 20.444819062515013 4.714518412692994 0 0 0
191 1 12.578233918557016 18.87147807944254 3.1419546666040064 0 0 0
192 1 14.151694435200032 20.44481913003068 4.71451836421747 0 0 0
193 1 15.72515492127865 18.87147821749114 3.1419545454233364 0 0 0
194 1 17.29861531511886 20.444819042379482 4.714518398742553 0 0 0
195 1 18.87207576935179 18.87147812101465 3.1419546213430114 0 0 0
196 1 20.44553623171803 20.444819056886704 4.714518390850622 0 0 0
197 1 -0.009449686467091952 -0.008612982419629323 6.287082168484672 0 0 0
198 1 1.5640107682295799 1.564727943152339 7.859645945218298 0 0 0
199 1 3.137471224320983 -0.008612982066751776 6.287082168530531 0 0 0
200 1 4.71093165774158 1.5647279334085953 7.859645957443795 0 0 0
201 1 6.28439213147394 -0.00861298041130226 6.287082165668058 0 0 0
202 1 7.857852641715864 1.5647280549900464 7.859645821672678 0 0 0
203 1 9.431312966993284 22.01815990242534 6.287082090223046 0 -1 0
204 1 11.004773769826913 1.5647160998618754 7.85964580583656 0 0 0
205 1 12.578234038651653 -0.008612925059314217 6.28708207450853 0 0 0
206 1 14.151694060710431 1.5647279708502242 7.859645916550575 0 0 0
207 1 15.725154862823679 22.018159964327275 6.28708216943011 0 -1 0
208 1 17.298615362374704 1.564727900479882 7.859645950765229 0 0 0
209 1 18.872075775815496 -0.0086129815845836 6.287082168083089 0 0 0
210 1 20.445536233074375 1.564727942433629 7.859645945498542 0 0 0
211 1 -0.009449686213330762 3.1380688701967387 6.287082168700065 0 0 0
212 1 1.5640107598878654 4.711409775162057 7.859645957614125 0 0 0
213 1 3.1374712300752337 3.1380688759192084 6.287082179272252 0 0 0
214 1 4.710932502587338 4.711410613266447 7.859646475494925 0 0 0
215 1 6.284391826822726 3.138068454931776 6.287082236074844 0 0 0
216 1 7.85787828984921 4.711428454325202 7.85963679849124 0 0 0
217 1 9.43130528056424 3.1380615714098234 6.287075141680758 0 0 0
218 1 11.004783277073912 4.710499266982741 7.859627488161745 0 0 0
219 1 12.578241132696856 3.138071833062487 6.2870742769126675 0 0 0
220 1 14.151658385836406 4.711402539170526 7.859645084657583 0 0 0
221 1 15.725155716879295 3.1380673146802827 6.287082015338623 0 0 0
222 1 17.29861328823432 4.711411301986382 7.859646153721925 0 0 0
223 1 18.872075769204805 3.1380688774747205 6.287082184589304 0 0 0
224 1 20.44553623034226 4.711409790007236 7.859645949029765 0 0 0
225 1 -0.00944967105702452 6.284750716639733 6.28708216308555 0 0 0
226 1 1.5640108928941683 7.858091703015087 7.8596458209848 0 0 0
227 1 3.137470762944309 6.284750395824994 6.287082209442633 0 0 0
228 1 4.710949063798466 7.858116339340887 7.8596367540550105 0 0 0
229 1 6.284378762782469 6.2847379924795375 6.287071977018008 0 0 0
230 1 7.857318573829523 7.85757853531473 7.858998279332184 0 0 0
231 1 9.430909005314202 6.28473745333254 6.286904479457888 0 0 0
232 1 11.003188458481562 7.807096939233675 7.835270184346517 0 0 0
233 1 12.578591431320854 6.285414974733331 6.287321349143486 0 0 0
234 1 14.153598799338956 7.855378406044472 7.858945548784785 0 0 0
235 1 15.725208108416606 6.284701109992445 6.28704015837141 0 0 0
236 1 17.298659559382155 7.858075597066616 7.859636130381518 0 0 0
237 1 18.872077179344124 6.28475006118798 6.287081573756351 0 0 0
238 1 20.445536888691098 7.858091647001131 7.859645833922055 0 0 0
239 1 22.018996660003847 9.431432461743773 6.2870820541900025 -1 0 0
240 1 1.5639992324467307 11.004773589623753 7.859645801547612 0 0 0
241 1 3.137465465204907 9.43142552262245 6.287075627615476 0 0 0
242 1 4.710057657002576 11.004779813150598 7.859627515984072 0 0 0
243 1 6.284421882625399 9.4310690161521 6.2869383377776416 0 0 0
244 1 7.808653960949626 11.004733016531475 7.835215407703904 0 0 0
245 1 9.429105789508688 9.428962611698113 6.28049734107312 0 0 0
246 1 11.028704853171561 11.052554297703667 7.77936465762339 0 0 0
247 1 12.580774356332348 9.42403074829907 6.268778797411529 0 0 0
248 1 14.170662073385236 11.012076156415294 7.85692556074104 0 0 0
249 1 15.725054161582179 9.431277913592737 6.287131089728655 0 0 0
250 1 17.299057218198556 11.004748231044019 7.859630390538398 0 0 0
251 1 18.872077932370022 9.43142879659403 6.287078499593339 0 0 0
252 1 20.445542400075674 11.004773638459167 7.859645839630736 0 0 0
253 1 22.01899657919035 12.578114548685441 6.287082045707357 -1 0 0
254 1 1.5640110758912138 14.151455199539136 7.859645909529239 0 0 0
255 1 3.1374652399273772 12.578121596739612 6.287075034353315 0 0 0
256 1 4.710957533710961 14.151422484012182 7.8596446971775356 0 0 0
257 1 6.28444378293708 12.578472211435674 6.286921259348815 0 0 0
258 1 7.857332641436542 14.151926612949955 7.858931370483114 0 0 0
259 1 9.431708435757512 12.580540731150219 6.283487214049631 0 0 0
260 1 11.005188470631017 14.15514890360053 7.857123380680826 0 0 0
261 1 12.579065910354812 12.581197803817858 6.2842932350979686 0 0 0
262 1 14.150655941076629 14.150197690065864 7.859622764370727 0 0 0
263 1 15.724776204696264 12.577942173830744 6.28703673605975 0 0 0
264 1 17.298585000642934 14.151438227478732 7.8596440191849295 0 0 0
265 1 18.872073118925243 12.578117956614086 6.2870785717801345 0 0 0
266 1 20.44553577452675 14.151455226742108 7.859645904293142 0 0 0
267 1 22.018996684409952 15.72479627325077 6.287082172755685 -1 0 0
268 1 1.5640107462677737 17.29813722936189 7.859645950740715 0 0 0
269 1 3.137470945110031 15.724796462355142 6.2870823670358496 0 0 0
270 1 4.710931964620926 17.29813660743429 7.859646169461146 0 0 0
271 1 6.284381326348906 15.724811248724974 6.287071192363087 0 0 0
272 1 7.8578445095345 17.298152076878317 7.85963690904871 0 0 0
273 1 9.4312639285696 15.724877702902706 6.287032133539063 0 0 0
274 1 11.004778577111084 17.29821517637407 7.859630601943074 0 0 0
275 1 12.5782970308865 15.724902955847345 6.287020982091733 0 0 0
276 1 14.151693704212034 17.298118495168424 7.85964513258838 0 0 0
277 1 15.7251348552056 15.724773197525433 6.2871021770583795 0 0 0
278 1 17.29861763933257 17.298139417909397 7.8596461232477175 0 0 0
279 1 18.872075749377498 15.724796577787211 6.287082354641534 0 0 0
280 1 20.445536260062493 17.29813721387428 7.859645946863036 0 0 0
281 1 -0.009449686252727473 18.87147812979636 6.287082168108595 0 0 0
282 1 1.5640107686382865 20.444819056786454 7.8596459455161325 0 0 0
283 1 3.137471225881968 18.871478128186094 6.287082173066529 0 0 0
284 1 4.710931677583181 20.444819051647038 7.859645948354978 0 0 0
285 1 6.28439194679386 18.871478481805454 6.287081980901924 0 0 0
286 1 7.857852465241704 20.444819344057947 7.85964584143562 0 0 0
287 1 9.431312463320628 18.871479853805692 6.28708175700002 0 0 0
288 1 11.00477357972541 20.44482007876491 7.859645845886752 0 0 0
289 1 12.578234854183172 18.87148019775204 6.2870816912417675 0 0 0
290 1 14.151694461213792 20.444818822821514 7.859645919503951 0 0 0
291 1 15.725154694855052 18.87147760381843 6.287082353200411 0 0 0
292 1 17.298615318440863 20.444819070394214 7.859645945962993 0 0 0
293 1 18.87207580026642 18.871478159191078 6.287082140602135 0 0 0
294 1 20.445536230161295 20.444819055340535 7.8596459455093015 0 0 0
295 1 -0.009449686437568269 -0.008612982386726553 9.43220972286585 0 0 0
296 1 1.5640107692571135 1.5647279441931723 11.004773500191698 0 0 0
297 1 3.13747122365667 -0.008612982798888013 9.43220972294424 0 0 0
298 1 4.710931683688011 1.5647279455814496 11.004773492717137 0 0 0
299 1 6.2843921324770555 -0.008612970965584858 9.432209720576179 0 0 0
300 1 7.857852363074098 1.5647275695285616 11.004773738264205 0 0 0
301 1 9.431312955567362 22.01815986335177 9.432209795851003 0 -1 0
302 1 11.004773678046684 1.5647277845838123 11.004773369158029 0 0 0
303 1 12.57823404977821 -0.00861294394382251 9.432209803804552 0 0 0
304 1 14.151694441639158 1.5647279757050219 11.004773531873633 0 0 0
305 1 15.725154862583238 22.018159969056107 9.432209720862964 0 -1 0
306 1 17.298615334755283 1.564727915194277 11.004773515090587 0 0 0
307 1 18.87207577597369 -0.008612981901688205 9.432209723213184 0 0 0
308 1 20.445536231012632 1.564727944105876 11.004773499926475 0 0 0
309 1 -0.009449686885208761 3.138068869471783 9.432209722809457 0 0 0
310 1 1.5640107702887747 4.711409800061656 11.004773493168866 0 0 0
311 1 3.137471183019552 3.1380688285114315 9.432209705317119 0 0 0
312 1 4.710931336085206 4.711409469406872 11.004773160813098 0 0 0
313 1 6.284392712509448 3.138069777497427 9.4322094430075 0 0 0
314 1 7.857841716766883 4.711392688055749 11.004785767896715 0 0 0
315 1 9.43130533685318 3.1380455666889 9.432216947686095 0 0 0
316 1 11.004789031948663 4.711393683787449 11.004759136819144 0 0 0
317 1 12.578240723037455 3.138069032072183 9.43221725916822 0 0 0
318 1 14.151687324427877 4.711409982521356 11.004766294592091 0 0 0
319 1 15.725155507949681 3.138067691305954 9.432209758045792 0 0 0
320 1 17.29861616401665 4.711408806828092 11.004774178154394 0 0 0
321 1 18.872075790776186 3.1380688538814887 9.432209704018517 0 0 0
322 1 20.445536257396217 4.711409782319775 11.004773513012331 0 0 0
323 1 -0.009449662050486174 6.284750717565768 9.432209722523764 0 0 0
324 1 1.5640104106523367 7.858091433699816 11.004773727432582 0 0 0
325 1 3.1374720929517017 6.284751260480202 9.432209453655986 0 0 0
326 1 4.710915269921532 7.858081362071659 11.0047850409833 0 0 0
327 1 6.284442286108706 6.284801367517355 9.432212479571803 0 0 0
328 1 7.857305209085372 7.857544206782336 11.005312719243868 0 0 0
329 1 9.431026801204377 6.283612908678541 9.43250616834569 0 0 0
330 1 11.004753872497156 7.85607135839748 11.00801526342638 0 0 0
331 1 12.578331222883602 6.285265798795836 9.432058418181333 0 0 0
332 1 14.152148971340182 7.85749120875081 11.005008666728465 0 0 0
333 1 15.725168191646315 6.284738334531904 9.432240151165416 0 0 0
334 1 17.29862558793971 7.858085552557945 11.004779868084892 0 0 0
335 1 18.872076528465612 6.284750504142763 9.432210140450804 0 0 0
336 1 20.445536430456972 7.8580914961494885 11.004773627709346 0 0 0
337 1 22.018996632684978 9.431432450489295 9.4322098370383 -1 0 0
338 1 1.5640104942120148 11.004773583780086 11.004773333187103 0 0 0
339 1 3.137449072775845 9.431425530263297 9.432216646305063 0 0 0
340 1 4.710906323228399 11.004779675303872 11.004768906161312 0 0 0
341 1 6.283288232224075 9.431179556448077 9.432478403081134 0 0 0
342 1 7.855797029410941 11.004784128694086 11.008404116653248 0 0 0
343 1 9.377356717466062 9.377456221890341 9.479967833567454 0 0 0
344 1 10.99962024780446 11.000006349941039 11.042840284101164 0 0 0
345 1 12.636909404696052 9.39960962038787 9.47069645835671 0 0 0
346 1 14.155251775926963 11.005025963306435 11.00713700758619 0 0 0
347 1 15.72622641560322 9.431327369798371 9.43210976850416 0 0 0
348 1 17.298687584254758 11.004778120101388 11.004784325895224 0 0 0
349 1 18.87209425281786 9.431428537654147 9.432213197414917 0 0 0
350 1 20.44553710237007 11.004773619582325 11.004773296500069 0 0 0
351 1 22.01899656956281 12.578114559995313 9.432209835152408 -1 0 0
352 1 1.5640105082105944 14.151455479137766 11.004773635830595 0 0 0
353 1 3.1374615928157334 12.578121181293657 9.43221663562272 0 0 0
354 1 4.7109195609563255 14.151457746814279 11.004777137508695 0 0 0
355 1 6.2842484131031116 12.578216487241807 9.432471636212341 0 0 0
356 1 7.857136582358164 14.151829018630956 11.005397829140765 0 0 0
357 1 9.409579924260457 12.636478094429066 9.455558902067283 0 0 0
358 1 11.004845392835325 14.154958478458909 11.00718826666274 0 0 0
359 1 12.601493479677503 12.603951920043862 9.434000255857857 0 0 0
360 1 14.151171037208961 14.150964454264667 11.004850457172546 0 0 0
361 1 15.725096152979816 12.577664724308887 9.432179706298076 0 0 0
362 1 17.2986017227445 14.151448390116839 11.004768601116425 0 0 0
363 1 18.87207815973261 12.578117929177568 9.432212952125582 0 0 0
364 1 20.445536043457395 14.151455390530485 11.004773530468546 0 0 0
365 1 -0.009449687061572572 15.724796272717198 9.432209717003865 0 0 0
366 1 1.5640107670676502 17.29813720410323 11.0047734975332 0 0 0
367 1 3.1374713497819164 15.72479626339451 9.432209403152845 0 0 0
368 1 4.7109316365299385 17.298137203785785 11.0047733606257 0 0 0
369 1 6.284421191273797 15.724769485991326 9.432210326320481 0 0 0
370 1 7.857844963641897 17.29814883179796 11.004782416946712 0 0 0
371 1 9.43135220416564 15.72601515148608 9.432213618988667 0 0 0
372 1 11.004778657107087 17.298213601354327 11.004789477157727 0 0 0
373 1 12.57799900112585 15.725156136264573 9.432212444787474 0 0 0
374 1 14.151694103475663 17.298131226848373 11.004775667406719 0 0 0
375 1 15.725111175792389 15.724749946272736 9.432199810410294 0 0 0
376 1 17.298615836797637 17.298137620786033 11.004773095691634 0 0 0
377 1 18.872075657275225 15.724796585195083 9.432209599291955 0 0 0
378 1 20.44553623787743 17.298137208215433 11.00477350327303 0 0 0
379 1 -0.009449686503472218 18.87147813002897 9.432209723204943 0 0 0
380 1 1.5640107689921694 20.444819056223732 11.004773500037778 0 0 0
381 1 3.1374712038508306 18.871478147996168 9.432209715334755 0 0 0
382 1 4.710931677364286 20.44481905991636 11.004773499203496 0 0 0
383 1 6.284392348768032 18.871477874023356 9.432209764352958 0 0 0
384 1 7.8578524690881695 20.444819266799765 11.004773608468378 0 0 0
385 1 9.431312272036898 18.871495084246323 9.432209748822379 0 0 0
386 1 11.004773578864757 20.44482019070262 11.004773602788172 0 0 0
387 1 12.578234640151983 18.8714834530126 9.432209624621528 0 0 0
388 1 14.15169445819769 20.444818994139286 11.004773532642204 0 0 0
389 1 15.725154757301606 18.871477583174407 9.432209621844136 0 0 0
390 1 17.298615317430144 20.444819054227906 11.004773495939922 0 0 0
391 1 18.872075815666083 18.871478173948002 9.432209738990506 0 0 0
392 1 20.44553623099701 20.44481905615435 11.004773500433869 0 0 0
393 1 -0.009449686470977381 -0.00861298237093605 12.577337277152665 0 0 0
394 1 1.5640107686957783 1.5647279436286303 14.149901054539098 0 0 0
395 1 3.1374712240184968 -0.008612982338896206 12.577337277195445 0 0 0
396 1 4.710931678211415 1.564727944420516 14.149901055091744 0 0 0
397 1 6.284392128907349 -0.008612983725963079 12.577337282692941 0 0 0
398 1 7.857852589436593 1.564727940813231 14.149901049246479 0 0 0
399 1 9.431313041072018 -0.008612957135399071 12.57733727093395 0 0 0
400 1 11.004773477040676 1.5647279386221422 14.149901082890302 0 0 0
401 1 12.57823396545271 -0.008612979775408097 12.5773372834399 0 0 0
402 1 14.151694437800755 1.5647278929574322 14.149901087061751 0 0 0
403 1 15.725154864343628 -0.008612980292012146 12.577337274965036 0 0 0
404 1 17.298615317301596 1.564727949228222 14.149901050086255 0 0 0
405 1 18.872075776321882 -0.008612982865329171 12.577337277569342 0 0 0
406 1 20.44553623153893 1.5647279435626646 14.149901054589396 0 0 0
407 1 -0.009449686056204129 3.13806886955702 12.577337277462656 0 0 0
408 1 1.5640107695697965 4.7114097947991915 14.14990105497588 0 0 0
409 1 3.137471214198442 3.1380688601902564 12.57733728539642 0 0 0
410 1 4.710931731307449 4.711409843250172 14.149900987715636 0 0 0
411 1 6.284391954481586 3.1380686719231607 12.577337486457834 0 0 0
412 1 7.857852215335539 4.711409000225606 14.149902423570202 0 0 0
413 1 9.431313063036853 3.1380688831724686 12.577337102286215 0 0 0
414 1 11.004773000713634 4.711413370359057 14.14989745651433 0 0 0
415 1 12.578234238685019 3.1380664881591893 12.577339033082074 0 0 0
416 1 14.151695209471955 4.711408329499061 14.149902453691498 0 0 0
417 1 15.725154715374721 3.1380690468949934 12.577337114482427 0 0 0
418 1 17.29861530754432 4.711409820932237 14.149901038403716 0 0 0
419 1 18.872075791997407 3.13806885065081 12.57733729424497 0 0 0
420 1 20.445536228877817 4.711409796151557 14.149901053047618 0 0 0
421 1 22.018996685304025 6.284750716807428 12.577337281880741 -1 0 0
422 1 1.5640107685722635 7.858091645746697 14.149901047962876 0 0 0
423 1 3.137471029271492 6.284750547760207 12.5773374879324 0 0 0
424 1 4.710931023869618 7.858091211739511 14.149902269662157 0 0 0
425 1 6.284387786609784 6.284746203339117 12.577340253500642 0 0 0
426 1 7.857879787648095 7.85811864331367 14.149879038052232 0 0 0
427 1 9.431266442120718 6.28476669755728 12.577330296658209 0 0 0
428 1 11.00475613588799 7.858112342671945 14.149934204106673 0 0 0
429 1 12.578278718139527 6.284725365173909 12.577359286559762 0 0 0
430 1 14.151690082485121 7.8580941226943635 14.149897992260133 0 0 0
431 1 15.725158282008868 6.284747171826022 12.57734083506681 0 0 0
432 1 17.29861685712553 7.8580907115055 14.149902738597532 0 0 0
433 1 18.87207581081784 6.284750632195624 12.577337341648253 0 0 0
434 1 20.44553626333293 7.858091630370586 14.149901067540977 0 0 0
435 1 -0.009449665803049862 9.431432570750118 12.57733726157929 0 0 0
436 1 1.5640107981467148 11.004773491284334 14.149901057323122 0 0 0
437 1 3.13747113427156 9.431432398953035 12.57733714656722 0 0 0
438 1 4.710935980408705 11.004772918878478 14.149896945751133 0 0 0