LAMMPS data file via write_data, version 2 Aug 2023, timestep = 120, units = metal

692 atoms
3 atom types

-0.013040273223779836 22.02258727007959 xlo xhi
-0.015113821269501363 22.024660818125295 ylo yhi
-0.011640985549504356 22.0211879824053 zlo zhi

Masses

1 183.84
2 1.008
3 4.0026

Atoms # atomic

1 1 -0.01304027041388286 -0.015113818456937943 -0.011640982738248673 0 0 0
2 1 1.5609331255765446 1.5591557986806963 1.5621325149942058 0 0 0
3 1 3.1349065214189626 -0.01511381849386427 -0.011640982680263489 0 0 0
4 1 4.708879918633024 1.5591557997679402 1.5621325164618698 0 0 0
5 1 6.282853312888946 -0.015113818359443549 -0.011640982722518218 0 0 0
6 1 7.856826715336488 1.5591558085609463 1.562132521044576 0 0 0
7 1 9.43080010393259 -0.015113818310311602 -0.011640982838484587 0 0 0
8 1 11.004773500001507 1.5591557599288668 1.562132473854806 0 0 0
9 1 12.578746896072571 -0.015113818299855674 -0.011640982849739351 0 0 0
10 1 14.152720284663847 1.5591558085681048 1.5621325210581345 0 0 0
11 1 15.726693687115144 -0.01511381836181282 -0.011640982720275786 0 0 0
12 1 17.30066708138572 1.5591557997663321 1.562132516456561 0 0 0
13 1 18.874640478688736 -0.015113818493127363 -0.011640982681066624 0 0 0
14 1 20.44861387464864 1.5591557986817437 1.5621325149949687 0 0 0
15 1 -0.013040270414062506 3.1334254156546346 -0.011640982703351486 0 0 0
16 1 1.5609331263368078 4.707695033723448 1.5621325161877457 0 0 0
17 1 3.134906520808424 3.1334254151838357 -0.01164098336065476 0 0 0
18 1 4.708879876934723 4.707694997258177 1.5621324706668722 0 0 0
19 1 6.282853317012992 3.133425420287843 -0.01164097678942582 0 0 0
20 1 7.856826937843012 4.707695306830801 1.562132789736498 0 0 0
21 1 9.43080010599138 3.133425411505013 -0.011640981970597404 0 0 0
22 1 11.004773499597338 4.707694908115051 1.5621328979177285 0 0 0
23 1 12.578746894006043 3.1334254115266766 -0.011640981947828212 0 0 0
24 1 14.152720062650719 4.707695306465036 1.562132789052633 0 0 0
25 1 15.726693683001452 3.133425420281611 -0.011640976799700263 0 0 0
26 1 17.300667122950678 4.7076949973307105 1.5621324708315194 0 0 0
27 1 18.874640479296193 3.1334254151855316 -0.01164098335790633 0 0 0
28 1 20.448613873873892 4.707695033740107 1.562132516201245 0 0 0
29 1 -0.013040270412192792 6.2819646495980805 -0.011640982682448803 0 0 0
30 1 1.5609331388503271 7.856234276399248 1.5621325227188227 0 0 0
31 1 3.1349065303997974 6.281964656262035 -0.011640972347404249 0 0 0
32 1 4.7088803413767915 7.8562345949139285 1.562132954830272 0 0 0
33 1 6.2828532558375 6.2819646056052125 22.021187893459025 0 0 -1
34 1 7.856825107812353 7.856232767740669 1.5621285729665495 0 0 0
35 1 9.430800190707869 6.281964680133116 -0.011640751555682184 0 0 0
36 1 11.004773503285843 7.8562319227951924 1.5621377797101637 0 0 0
37 1 12.578746809417733 6.281964679928547 -0.011640752238916805 0 0 0
38 1 14.152721888716396 7.8562327728252335 1.5621285835498162 0 0 0
39 1 15.726693744045283 6.281964605713416 22.021187893730936 0 0 -1
40 1 17.300666660352707 7.856234593528083 1.5621329543841094 0 0 0
41 1 18.874640469725733 6.2819646562498725 -0.011640972351239105 0 0 0
42 1 20.448613861525583 7.856234276354013 1.5621325226050256 0 0 0
43 1 -0.013040270422360252 9.430503881770623 -0.011640983871977323 0 0 0
44 1 1.5609330005983648 11.004773501108277 1.5621323858164395 0 0 0
45 1 3.1349065027706167 9.43050388977801 22.021187973975234 0 0 -1
46 1 4.7088797318768245 11.004774150324094 1.5621331090927963 0 0 0
47 1 6.2828532926057505 9.430503841680176 -0.011640780846822366 0 0 0
48 1 7.85681420390915 11.00476416783383 1.5621284392579813 0 0 0
49 1 9.430800126440614 9.430504308740062 22.021186705833273 0 0 -1
50 1 11.004773420010615 11.004754703274624 1.562117986039035 0 0 0
51 1 12.57874687149623 9.430504313460526 22.021186714488227 0 0 -1
52 1 14.152732879963065 11.00476408272529 1.5621282983284475 0 0 0
53 1 15.726693709479843 9.430503839736321 -0.011640783703243226 0 0 0
54 1 17.300667264193653 11.004774153230045 1.5621331141818606 0 0 0
55 1 18.87464049722541 9.430503889802921 22.021187974086974 0 0 -1
56 1 20.448613999085186 11.004773501136789 1.5621323863418435 0 0 0
57 1 -0.013040270419354984 12.579043118173074 -0.011640982508044871 0 0 0
58 1 1.5609331245046247 14.15331272702198 1.562132506600304 0 0 0
59 1 3.1349063877542505 12.579043115206579 22.021187853272266 0 0 -1
60 1 4.708880438579284 14.153311824777164 1.5621333342629709 0 0 0
61 1 6.2828541048363435 12.579043038468205 -0.011639428159066212 0 0 0
62 1 7.856816518172846 14.15332333023565 1.56212116264091 0 0 0
63 1 9.43080077327684 12.579042809719425 22.021171106187058 0 0 -1
64 1 11.004773417310599 14.153335050990975 1.5621030808107637 0 0 0
65 1 12.578746231330992 12.579042810526499 22.021170965260595 0 0 -1
66 1 14.152730568153034 14.153323413189428 1.56212109391536 0 0 0
67 1 15.726692890022663 12.579043039189003 -0.011639421106135998 0 0 0
68 1 17.300666561446658 14.153311822960143 1.5621333373533035 0 0 0
69 1 18.874640612813764 12.57904311521062 22.021187852784724 0 0 -1
70 1 20.4486138759402 14.153312727060149 1.5621325064065443 0 0 0
71 1 -0.013040270410097334 15.72758235061374 -0.011640983400047263 0 0 0
72 1 1.560933133091473 17.301851961579395 1.562132521678426 0 0 0
73 1 3.134906529880733 15.727582340422142 -0.011640968623072111 0 0 0
74 1 4.7088799407548905 17.301851936479768 1.5621325196945213 0 0 0
75 1 6.282853136567982 15.727582508650274 22.021187803859778 0 0 -1
76 1 7.856826924807245 17.301851840856415 1.5621326664015656 0 0 0
77 1 9.430799820889376 15.727582190279922 -0.011640699569168082 0 0 0
78 1 11.004773500573727 17.301851174426233 1.562133911186677 0 0 0
79 1 12.57874717796753 15.727582184866666 -0.011640693541478347 0 0 0
80 1 14.15272007442499 17.301851840143158 1.5621326652959318 0 0 0
81 1 15.726693864651645 15.72758250976365 22.021187802579725 0 0 -1
82 1 17.300667058971484 17.301851936368884 1.5621325197730223 0 0 0
83 1 18.8746404702295 15.727582340406538 -0.011640968584872596 0 0 0
84 1 20.448613867077785 17.30185196154092 1.5621325217250264 0 0 0
85 1 -0.01304027041472141 18.876121584306116 -0.01164098253383874 0 0 0
86 1 1.5609331253702097 20.450391201720965 1.562132514792082 0 0 0
87 1 3.1349065224476846 18.876121583317897 -0.011640981883406678 0 0 0
88 1 4.708879918423184 20.450391199383535 1.5621325163737163 0 0 0
89 1 6.2828533123720085 18.876121584657703 -0.011640981597711427 0 0 0
90 1 7.856826712953653 20.45039119534471 1.5621325178754255 0 0 0
91 1 9.430800116717666 18.876121611024516 22.02118796495504 0 0 -1
92 1 11.004773500131776 20.45039124138502 1.5621324659423514 0 0 0
93 1 12.578746883242658 18.876121611134934 22.021187964956404 0 0 -1
94 1 14.152720286859765 20.45039119516793 1.5621325180273258 0 0 0
95 1 15.726693687682 18.876121584698247 -0.011640981693355352 0 0 0
96 1 17.300667081651895 20.45039119944373 1.5621325163113278 0 0 0
97 1 18.87464047764932 18.876121583312468 -0.011640981875822914 0 0 0
98 1 20.448613874859593 20.45039120172361 1.5621325147892824 0 0 0
99 1 -0.013040270413972066 -0.01511381846467252 3.1359060125617946 0 0 0
100 1 1.560933125548976 1.5591557986501108 4.709679510124083 0 0 0
101 1 3.134906521002635 -0.0151138181736686 3.135906012202078 0 0 0
102 1 4.708879911418929 1.5591557930546007 4.709679505392522 0 0 0
103 1 6.282853308829725 -0.015113815397691483 3.135906008280014 0 0 0
104 1 7.856826575466362 1.5591556875695476 4.7096793734500135 0 0 0
105 1 9.430800114398384 -0.015113820237728974 3.1359060277153774 0 0 0
106 1 11.004773499853663 1.5591567632868282 4.709679937857404 0 0 0
107 1 12.578746885536507 -0.015113820385924102 3.1359060277425166 0 0 0
108 1 14.152720424752367 1.559155687264817 4.709679373270299 0 0 0
109 1 15.726693691246702 -0.015113815290476916 3.1359060082088304 0 0 0
110 1 17.30066708852314 1.5591557931966222 4.7096795054653136 0 0 0
111 1 18.874640479104684 -0.015113818168563919 3.135906012202163 0 0 0
112 1 20.44861387467671 1.5591557986502456 4.709679510123612 0 0 0
113 1 -0.013040270415665842 3.1334254154189343 3.135906012362897 0 0 0
114 1 1.560933119928638 4.7076950270860785 4.709679505297697 0 0 0
115 1 3.1349065219203185 3.133425415715685 3.135906011929944 0 0 0
116 1 4.708879749365534 4.707694858506934 4.70967929984219 0 0 0
117 1 6.282853379840663 3.133425437452412 3.1359060766063602 0 0 0
118 1 7.856825425716535 4.7076919899601135 4.709678430919188 0 0 0
119 1 9.4308007782077 3.133426065929818 3.1359063617949072 0 0 0
120 1 11.004773488256564 4.707761041904792 4.709742154924826 0 0 0
121 1 12.578746221521175 3.1334260662887923 3.135906362371176 0 0 0
122 1 14.152721594113364 4.7076919651898175 4.709678404610606 0 0 0
123 1 15.726693620542779 3.1334254371166734 3.1359060762319193 0 0 0
124 1 17.300667246494037 4.707694864342398 4.709679304330232 0 0 0
125 1 18.87464047812221 3.133425415801194 3.1359060119975277 0 0 0
126 1 20.44861388020456 4.707695027137486 4.709679505339581 0 0 0
127 1 -0.013040270451875528 6.281964647119728 3.135906010243658 0 0 0
128 1 1.560932948950905 7.8562341083689615 4.709679332005308 0 0 0
129 1 3.1349065258911573 6.28196468804808 3.1359060531680636 0 0 0
130 1 4.7088755101035185 7.856231418831697 4.709677123622526 0 0 0
131 1 6.282850962343849 6.281962372443733 3.1359035431463815 0 0 0
132 1 7.856697294655029 7.8560996869127075 4.709565146711008 0 0 0
133 1 9.430807679142088 6.281982069295681 3.135919050341162 0 0 0
134 1 11.004773547070515 7.856517183653472 4.710100423753223 0 0 0
135 1 12.578739322616347 6.281982045523592 3.135919010781449 0 0 0
136 1 14.15284952450253 7.85609970186463 4.709565360092652 0 0 0
137 1 15.726696032859104 6.2819623717646005 3.135903547950029 0 0 0
138 1 17.300671382404254 7.856231539636936 4.7096772274249 0 0 0
139 1 18.874640472786492 6.281964689581734 3.135906054532809 0 0 0
140 1 20.4486140485231 7.856234109847843 4.709679333442686 0 0 0
141 1 -0.013040270275792413 9.430503907351794 3.1359060540055177 0 0 0
142 1 1.5609346534110506 11.004773604652659 4.7096803681499555 0 0 0
143 1 3.1349073085836228 9.430504771986845 3.1359064729339456 0 0 0
144 1 4.7089529049755035 11.004782103967177 4.709752815130495 0 0 0
145 1 6.282869500485289 9.430510865067811 3.1359170499999314 0 0 0
146 1 7.856841932390146 11.004241526578289 4.7100475225757314 0 0 0
147 1 9.430800229145333 9.430544247962185 3.1357870336294478 0 0 0
148 1 11.004771702407302 11.003871951663678 4.710289179097481 0 0 0
149 1 12.578746743036614 9.43054435202528 3.1357872545987173 0 0 0
150 1 14.152713771873518 11.004234694912455 4.710043751871045 0 0 0
151 1 15.726677633066332 9.43051074077678 3.1359170039146895 0 0 0
152 1 17.30059436849751 11.004782151778366 4.709752674024305 0 0 0
153 1 18.87463969951799 9.430504769664298 3.135906467272718 0 0 0
154 1 20.448612350037273 11.004773605100011 4.70968036621515 0 0 0
155 1 -0.013040270268090704 12.579043099537865 3.135906040924716 0 0 0
156 1 1.560933259453586 14.153312768126408 4.709679474926891 0 0 0
157 1 3.1349070168320865 12.579042438075724 3.1359057885703354 0 0 0
158 1 4.708883503684847 14.153305936937699 4.709689243568942 0 0 0
159 1 6.282928681205404 12.579035119990182 3.135982314973907 0 0 0
160 1 7.856394895306897 14.153975761061055 4.709502004303753 0 0 0
161 1 9.430819680529973 12.579028084274809 3.1346536381976344 0 0 0
162 1 11.004770175760891 14.153923632152882 4.709307369324187 0 0 0
163 1 12.57872752439237 12.579028066321829 3.1346439599131934 0 0 0
164 1 14.153154432864293 14.153979770608473 4.7095019722775415 0 0 0
165 1 15.726618145041396 12.579035186377306 3.1359826111563427 0 0 0
166 1 17.30066334600164 14.153305782689989 4.709689424586195 0 0 0
167 1 18.87463998774123 12.579042441516512 3.1359057846496206 0 0 0
168 1 20.44861373635341 14.153312765946206 4.709679477338792 0 0 0
169 1 -0.013040270502882654 15.727582345340405 3.1359060198715687 0 0 0
170 1 1.5609330835330948 17.3018519919988 4.7096794804234206 0 0 0
171 1 3.134906831009475 15.727582086009186 3.135906327063838 0 0 0
172 1 4.708878735054752 17.301852873769302 4.7096783559745505 0 0 0
173 1 6.282849898573166 15.727585904234745 3.135901810270259 0 0 0
174 1 7.8568190847373 17.301865981064616 4.7096746760820745 0 0 0
175 1 9.430793386964211 15.727542174345768 3.1359336672651232 0 0 0
176 1 11.004773360468988 17.301798783384793 4.709742578557503 0 0 0
177 1 12.578753567606102 15.727542054862672 3.135933804512334 0 0 0
178 1 14.152728007927843 17.30186609493301 4.709674612404309 0 0 0
179 1 15.726697116165317 15.727585926774983 3.135901785813292 0 0 0
180 1 17.300668275826986 17.301852880803658 4.7096783455676094 0 0 0
181 1 18.874640165881942 15.72758208344642 3.135906330212746 0 0 0
182 1 20.448613917155317 17.301851992211695 4.709679480145159 0 0 0
183 1 -0.013040270406688034 18.87612158535259 3.135906011539071 0 0 0
184 1 1.5609331260851083 20.450391201165793 4.709679510576876 0 0 0
185 1 3.1349065042830535 18.876121598039568 3.1359059958364264 0 0 0
186 1 4.708879905931859 20.450391222484082 4.709679499916167 0 0 0
187 1 6.282853283232255 18.87612161721051 3.1359060022453926 0 0 0
188 1 7.856826388047514 20.45039163014304 4.709679177557105 0 0 0
189 1 9.430800649361466 18.876120800694782 3.135906367096132 0 0 0
190 1 11.00477349801328 20.45039018803765 4.709680261648848 0 0 0
191 1 12.578746347031208 18.87612078833865 3.1359063782259136 0 0 0
192 1 14.152720614059236 20.450391634876485 4.709679175522589 0 0 0
193 1 15.726693720271038 18.87612162051173 3.1359059987616638 0 0 0
194 1 17.300667094167405 20.45039122269183 4.709679499841865 0 0 0
195 1 18.874640496075102 18.87612159821111 3.135905995643989 0 0 0
196 1 20.448613874135706 20.450391201161338 4.709679510583254 0 0 0
197 1 -0.013040270413828813 -0.015113818420609899 6.283453007469045 0 0 0
198 1 1.5609331249669114 1.5591557980272892 7.8572265045440455 0 0 0
199 1 3.134906521282664 -0.015113818382789334 6.283453007202716 0 0 0
200 1 4.708879889229077 1.5591557842868327 7.857226513627409 0 0 0
201 1 6.282853310357505 -0.015113814968382083 6.283453006418035 0 0 0
202 1 7.856826698660762 1.5591558974996131 7.857226352118371 0 0 0
203 1 9.430799784729862 -0.01511356073350172 6.28345267911118 0 0 0
204 1 11.004773500461717 1.5591402682317672 7.857226201255454 0 0 0
205 1 12.578747215160588 -0.01511355765619387 6.283452679088073 0 0 0
206 1 14.152720300893609 1.5591559013408607 7.857226352867983 0 0 0
207 1 15.726693689761731 -0.015113814608959502 6.283453006350912 0 0 0
208 1 17.300667110753256 1.5591557842990036 7.857226513617065 0 0 0
209 1 18.874640478824777 -0.015113818387871883 6.283453007213059 0 0 0
210 1 20.448613875252292 1.559155798035907 7.85722650454551 0 0 0
211 1 -0.013040270416555384 3.1334254157516863 6.283453007400352 0 0 0
212 1 1.5609331081421711 4.707695001536515 7.857226514312686 0 0 0
213 1 3.1349065303328447 3.133425424718955 6.283453019286534 0 0 0
214 1 4.708880634698972 4.707695769674981 7.857227185186349 0 0 0
215 1 6.282853113548027 3.1334251313503705 6.2834531448181385 0 0 0
216 1 7.8568572917733785 4.70771848052247 7.857215798282714 0 0 0
217 1 9.430790251864908 3.1334163421777106 6.283443741391961 0 0 0
218 1 11.0047735446226 4.706546175965736 7.857195212670783 0 0 0
219 1 12.578756750675302 3.1334163249704274 6.283443738731566 0 0 0
220 1 14.152689627953167 4.707718708646765 7.857215862052248 0 0 0
221 1 15.726693883245575 3.133425138597943 6.28345314776261 0 0 0
222 1 17.300666370055467 4.707695764934198 7.857227184707021 0 0 0
223 1 18.87464046978344 3.133425424703528 6.283453019227459 0 0 0
224 1 20.44861389191072 4.707695001747706 7.857226514293744 0 0 0
225 1 -0.013040270521239796 6.281964647388296 6.2834530040143735 0 0 0
226 1 1.5609332410344077 7.856234250610366 7.857226351783436 0 0 0
227 1 3.1349062647851986 6.281964500656868 6.283453153671158 0 0 0
228 1 4.708907532275751 7.856268364450216 7.857215660876607 0 0 0
229 1 6.282839317378141 6.281949668081769 6.28344275297593 0 0 0
230 1 7.856416871428384 7.8557849453355635 7.856478285958531 0 0 0
231 1 9.430274390089036 6.281864013626514 6.283176504490966 0 0 0
232 1 11.004792565928865 7.801170949424315 7.83008729386325 0 0 0
233 1 12.579273067219484 6.281863126527263 6.283175606799285 0 0 0
234 1 14.153121366807293 7.855793521044849 7.856482954006282 0 0 0
235 1 15.726707504205967 6.28194995188148 6.283442962836782 0 0 0
236 1 17.300639434371732 7.856268256210104 7.857215765506965 0 0 0
237 1 18.874640734001904 6.2819644996921795 6.28345315497155 0 0 0
238 1 20.44861375570707 7.856234251255806 7.857226352990312 0 0 0
239 1 -0.013040272438491094 9.430503663190505 6.283452789870344 0 0 0
240 1 1.5609159871316154 11.004773700794475 7.857226226599905 0 0 0
241 1 3.1348949895043963 9.43049270351153 6.2834431483835145 0 0 0
242 1 4.707634879895599 11.00477483565541 7.857197504162505 0 0 0
243 1 6.282690222798512 9.42991276413715 6.283092938325499 0 0 0
244 1 7.798127634609285 11.002130763219375 7.829683540365059 0 0 0
245 1 9.42656263538891 9.42650182534446 6.273977341014676 0 0 0
246 1 11.005097056257199 10.93661973310388 7.717758269000903 0 0 0
247 1 12.582987470649188 9.426506628404754 6.27397925532735 0 0 0
248 1 14.211091095274984 11.00210409298791 7.829876020205287 0 0 0
249 1 15.726851277675578 9.429919496550445 6.283098623608204 0 0 0
250 1 17.301904130470447 11.004774762747582 7.85719741801466 0 0 0
251 1 18.874651878776866 9.430492764934646 6.283443205461035 0 0 0
252 1 20.448630898988537 11.004773700366524 7.8572262275015206 0 0 0
253 1 -0.013040273199935472 12.579043332465366 6.2834527612628674 0 0 0
254 1 1.560932638766156 14.15331253289252 7.857226346693286 0 0 0
255 1 3.1349047972302793 12.579053266521537 6.283442719860081 0 0 0
256 1 4.708846862434363 14.153280600034359 7.857215784540352 0 0 0
257 1 6.28320246716501 12.579587980859232 6.283517122551262 0 0 0
258 1 7.852990371141965 14.156254804615523 7.856487462503855 0 0 0
259 1 9.399809498237094 12.58249129857434 6.221929183607989 0 0 0
260 1 11.004265980348432 14.258287918631993 7.85382359603329 0 0 0
261 1 12.609817108694479 12.58234903066109 6.221549039087623 0 0 0
262 1 14.156576180675284 14.156273012018968 7.856486272722812 0 0 0
263 1 15.726336755673433 12.579581812552293 6.283524976060311 0 0 0
264 1 17.300700760591994 14.15328077008633 7.857215772804813 0 0 0
265 1 18.874642018387092 12.579053195060656 6.283442780913163 0 0 0
266 1 20.44861437013186 14.153312532474713 7.857226346705774 0 0 0
267 1 -0.013040270185151371 15.727582357815733 6.283452995786098 0 0 0
268 1 1.5609331243108004 17.301852010355084 7.857226516678649 0 0 0
269 1 3.1349045116316114 15.727583534046937 6.28345253229449 0 0 0
270 1 4.7088854057965195 17.301846764892193 7.857227092097059 0 0 0
271 1 6.282804122745576 15.72763108305822 6.283390041489478 0 0 0
272 1 7.856894305083985 17.301831202163232 7.857226531633495 0 0 0
273 1 9.430088954927268 15.72789453490965 6.282565921490524 0 0 0
274 1 11.00477377456561 17.30399663482906 7.85721086818403 0 0 0
275 1 12.57945183065173 15.72789836016556 6.282569310386971 0 0 0
276 1 14.152653167276208 17.301831916541612 7.857226494982754 0 0 0
277 1 15.726743351547713 15.727631579231387 6.283389609175344 0 0 0
278 1 17.300661530256153 17.301846697413307 7.857227091569596 0 0 0
279 1 18.874642508625957 15.727583544878188 6.283452524550789 0 0 0
280 1 20.44861387563047 17.30185201035385 7.857226516648164 0 0 0
281 1 -0.013040270422824277 18.876121583487464 6.283453007817218 0 0 0
282 1 1.560933122017958 20.45039120497354 7.8572265044456255 0 0 0
283 1 3.1349065614826452 18.876121555327515 6.283453068038491 0 0 0
284 1 4.708879845958267 20.450391233535925 7.857226500699587 0 0 0
285 1 6.2828531505899745 18.876122407282875 6.283453327368289 0 0 0
286 1 7.856827031547431 20.450391021365686 7.857226512564544 0 0 0
287 1 9.430780864727174 18.876144379621923 6.283432874168616 0 0 0
288 1 11.00477349663872 20.450422983123744 7.8572265198165 0 0 0
289 1 12.578766150169853 18.876144528486744 6.283432866880818 0 0 0
290 1 14.152719972408141 20.45039103404587 7.857226512193728 0 0 0
291 1 15.726693851044962 18.876122416717926 6.283453318686582 0 0 0
292 1 17.300667153472016 20.450391232527988 7.857226500730381 0 0 0
293 1 18.874640438105068 18.87612155485788 6.283453068611144 0 0 0
294 1 20.44861387823493 20.450391205007257 7.85722650444474 0 0 0
295 1 -0.013040270413787101 -0.015113818420035254 9.431000002585751 0 0 0
296 1 1.5609331256817958 1.5591557987524565 11.004773500261035 0 0 0
297 1 3.134906521360957 -0.015113819209144274 9.431000002844483 0 0 0
298 1 4.70887992187036 1.5591558041925329 11.00477349394542 0 0 0
299 1 6.282853311592978 -0.015113802241782107 9.431000002000683 0 0 0
300 1 7.856826420472747 1.5591553476698852 11.004773783944616 0 0 0
301 1 9.430799772110705 22.024660811749918 9.431000317009826 0 -1 0
302 1 11.004773500621738 1.5591553459612673 11.004773425669793 0 0 0
303 1 12.57874722777695 22.02466081672864 9.431000317027792 0 -1 0
304 1 14.15272057895146 1.5591553503732585 11.004773783331077 0 0 0
305 1 15.726693688528282 -0.015113801924666517 9.43100000207537 0 0 0
306 1 17.3006670781017 1.559155804286342 11.0047734939199 0 0 0
307 1 18.87464047874658 -0.015113819209372846 9.431000002834397 0 0 0
308 1 20.448613874540538 1.5591557987557376 11.004773500260516 0 0 0
309 1 -0.013040270420283951 3.1334254149548677 9.431000002925204 0 0 0
310 1 1.560933131031425 4.707695037431564 11.00477349301577 0 0 0
311 1 3.1349064723217483 3.133425366714487 9.430999987489415 0 0 0
312 1 4.708879942180078 4.707695075241869 11.004773039395891 0 0 0
313 1 6.282853722228399 3.133426242817425 9.430999615104529 0 0 0
314 1 7.856812489579802 4.707672761451528 11.004788054610701 0 0 0
315 1 9.430790606775124 3.133397437741694 9.431009355837409 0 0 0
316 1 11.004773546216787 4.707659114328079 11.004775984625413 0 0 0
317 1 12.578756393385737 3.1333975194630503 9.431009355146436 0 0 0
318 1 14.152734446136963 4.707672934275883 11.004787990680692 0 0 0
319 1 15.726693277507882 3.1334262465183533 9.430999614260388 0 0 0
320 1 17.300667060302114 4.70769507485361 11.00477303734252 0 0 0
321 1 18.874640527625534 3.1334253668576544 9.430999987541714 0 0 0
322 1 20.44861386918653 4.707695037431456 11.004773493047855 0 0 0
323 1 -0.013040270488411287 6.281964648780482 9.430999997921042 0 0 0
324 1 1.5609326048206666 7.856233949828673 11.00477383416537 0 0 0
325 1 3.1349074419318472 6.2819651289683724 9.430999573017262 0 0 0
326 1 4.708857039238281 7.856220070244505 11.004789504236875 0 0 0
327 1 6.282914517370273 6.282024345126079 9.431001110028792 0 0 0
328 1 7.856035537770642 7.855442406424844 11.005583637077939 0 0 0
329 1 9.430534955778349 6.280640043993641 9.431349332749958 0 0 0
330 1 11.004776677381612 7.853814041833566 11.008988794538489 0 0 0
331 1 12.57901122128735 6.280645073203804 9.43134916763621 0 0 0
332 1 14.15350297295137 7.855450547518276 11.005575617174445 0 0 0
333 1 15.7266324263582 6.2820244719123455 9.431001028812839 0 0 0
334 1 17.300689639294255 7.856220285048006 11.004789304407673 0 0 0
335 1 18.874639561742914 6.281965123690864 9.430999574779051 0 0 0
336 1 20.448614388394116 7.8562339526367655 11.00477383122148 0 0 0
337 1 22.022587268642102 9.430503650515389 9.431000215015567 -1 0 0
338 1 1.560932968464397 11.004773600356405 11.004772993691706 0 0 0
339 1 3.134875795749121 9.430493088494345 9.431010238856576 0 0 0
340 1 4.708835886890907 11.004781987239348 11.004764957240752 0 0 0
341 1 6.281480898555655 9.430166151466251 9.431408323461316 0 0 0
342 1 7.853440284363129 11.004403754598346 11.009445869612133 0 0 0
343 1 9.374484962637746 9.373358554005462 9.483937101393137 0 0 0
344 1 11.004764373919208 10.981826187344 11.069858312476452 0 0 0
345 1 12.634830543745077 9.373499472865703 9.483709502934737 0 0 0
346 1 14.156110808241126 11.004389093748689 11.009445870182178 0 0 0
347 1 15.728053010932351 9.430171095864546 9.431404952062184 0 0 0
348 1 17.30071120472407 11.004781925609507 11.00476495285209 0 0 0
349 1 18.87467092200967 9.43049315270202 9.4310101690103 0 0 0
350 1 20.448614032747173 11.004773599443313 11.004772994763862 0 0 0
351 1 -0.013040273145237593 12.579043345271941 9.431000244520758 0 0 0
352 1 1.5609329008856414 14.153312932792145 11.00477369127017 0 0 0
353 1 3.1348856313390523 12.579053074535624 9.431010574242258 0 0 0
354 1 4.708864705960289 14.153317416066457 11.004776711420218 0 0 0
355 1 6.2820102250709295 12.579313943350014 9.43098917361598 0 0 0
356 1 7.855603392497447 14.154554906223916 11.005986648649188 0 0 0
357 1 9.35259231640701 12.653155291355876 9.508988722084661 0 0 0
358 1 11.004767645457791 14.157940639022843 11.008358710004993 0 0 0
359 1 12.657200056491194 12.653152013817285 9.509499948708081 0 0 0
360 1 14.15395499928257 14.154568308627965 11.00599587938639 0 0 0
361 1 15.727532831724117 12.579310871088362 9.43098454139701 0 0 0
362 1 17.300682313800724 14.153317314649502 11.004776580520344 0 0 0
363 1 18.874661225491614 12.57905300397686 9.431010507993138 0 0 0
364 1 20.448614096402494 14.153312930666374 11.004773688820412 0 0 0
365 1 -0.013040270150594998 15.727582356067066 9.431000005543385 0 0 0
366 1 1.5609330975709175 17.301851979584097 11.004773515346294 0 0 0
367 1 3.1349057263659077 15.727582744182554 9.431000188697002 0 0 0
368 1 4.708879013893809 17.301852884931318 11.004774126041115 0 0 0
369 1 6.282869833607189 15.727568638755352 9.43105823973307 0 0 0
370 1 7.856823580975451 17.3018656021497 11.00477672726036 0 0 0
371 1 9.430567143684526 15.728367676382561 9.431825843663503 0 0 0
372 1 11.004773327095704 17.301884428073 11.00472770921402 0 0 0
373 1 12.578974052941 15.72837464154052 9.431822592807118 0 0 0
374 1 14.152723556553372 17.301865886678684 11.004776833373349 0 0 0
375 1 15.72667763200413 15.727569143797497 9.431058590639006 0 0 0
376 1 17.300667995417786 17.30185288992385 11.00477413532399 0 0 0
377 1 18.874641295758565 15.727582755952088 9.431000195598527 0 0 0
378 1 20.448613903137467 17.301851979822946 11.00477351563579 0 0 0
379 1 -0.013040270423829544 18.876121584500684 9.431000002587426 0 0 0
380 1 1.5609331260127235 20.450391201062022 11.004773499945324 0 0 0
381 1 3.134906492562821 18.876121611079896 9.430999939322325 0 0 0
382 1 4.708879899020634 20.450391233813487 11.004773517774513 0 0 0
383 1 6.282852600989834 18.876122667038793 9.430999775567091 0 0 0
384 1 7.856826398129604 20.450391479884 11.004773806332935 0 0 0
385 1 9.4307807268853 18.876148278762056 9.431019194492906 0 0 0
386 1 11.004773497598094 20.45039123936504 11.004772731196823 0 0 0
387 1 12.578766288998917 18.876148486513408 9.431019203230589 0 0 0
388 1 14.152720604388314 20.450391486972016 11.004773808751217 0 0 0
389 1 15.726694396013864 18.87612267266771 9.430999782598903 0 0 0
390 1 17.300667101036154 20.450391233957443 11.004773517785138 0 0 0
391 1 18.874640507091318 18.876121610731644 9.430999938764907 0 0 0
392 1 20.448613874211187 20.4503912010615 11.004773499939875 0 0 0
393 1 -0.013040270413961927 -0.015113818461756391 12.578546997480599 0 0 0
394 1 1.5609331253562806 1.559155798468549 14.152320495146506 0 0 0
395 1 3.1349065209220637 -0.015113817859638402 12.578546997931134 0 0 0
396 1 4.708879916040142 1.5591557990503693 14.152320496105395 0 0 0
397 1 6.2828533073161665 22.024660813395876 12.578547002903532 0 -1 0
398 1 7.856826701315686 1.5591557926570534 14.15232049822092 0 0 0
399 1 9.430800098265433 -0.015113820756834267 12.5785469968261 0 0 0
400 1 11.004773499990259 1.5591558456608803 14.15232050445672 0 0 0
401 1 12.57874690167723 -0.01511382092147878 12.578546996805066 0 0 0
402 1 14.152720298731358 1.5591557926220865 14.152320498263538 0 0 0
403 1 15.7266936927525 22.024660813614467 12.578547002967108 0 -1 0
404 1 17.30066708394116 1.5591557991070293 14.152320496071981 0 0 0
405 1 18.87464047918496 -0.015113817855584358 12.578546997930786 0 0 0
406 1 20.448613874868293 1.5591557984703954 14.152320495145457 0 0 0
407 1 -0.013040270414736484 3.133425415586112 12.578546997430706 0 0 0
408 1 1.5609331259591646 4.707695030709314 14.15232049659732 0 0 0
409 1 3.13490651371107 3.133425407941451 12.578547003434494 0 0 0
410 1 4.708879993735133 4.70769509455513 14.15232040321316 0 0 0
411 1 6.28285308078901 3.1334251927758574 12.578547233647345 0 0 0
412 1 7.856826222091244 4.707694826918279 14.152321191520738 0 0 0
413 1 9.43079980652313 3.1334252967882756 12.578546862612992 0 0 0
414 1 11.00477350002029 4.707701511789365 14.152314943430206 0 0 0
415 1 12.578747195243652 3.1334252940170875 12.578546865604936 0 0 0
416 1 14.15272077948009 4.707694824616623 14.15232119344027 0 0 0
417 1 15.726693917275401 3.1334251963781736 12.57854723164918 0 0 0
418 1 17.300667004381665 4.707695096480095 14.152320401316082 0 0 0
419 1 18.874640486335466 3.133425408033448 12.57854700339448 0 0 0
420 1 20.448613874173663 4.707695030779838 14.152320496526247 0 0 0
421 1 -0.013040270545859897 6.281964639676438 12.578547007847096 0 0 0
422 1 1.5609331317214292 7.856234263110686 14.1523204824807 0 0 0
423 1 3.134906249801821 6.281964396892673 12.57854729072982 0 0 0
424 1 4.708879237536716 7.856233436425963 14.152321694950738 0 0 0
425 1 6.28284705587057 6.281958011058093 12.578552039861194 0 0 0
426 1 7.8568454072521625 7.856252800142858 14.152308899431643 0 0 0
427 1 9.430741994258048 6.2819745493138965 12.578540277005231 0 0 0
428 1 11.004773546016061 7.856319096463472 14.152310716174844 0 0 0
429 1 12.578805097770308 6.28197444532524 12.578540386638931 0 0 0
430 1 14.152701534159702 7.856252855534086 14.152308734569399 0 0 0
431 1 15.726699800310094 6.281958153045521 12.578551896308712 0 0 0
432 1 17.300667766365464 7.8562334345208145 14.152321696586192 0 0 0
433 1 18.874640744063132 6.281964401545427 12.578547286136638 0 0 0
434 1 20.448613868942576 7.856234262943099 14.152320482871161 0 0 0
435 1 -0.013040270145555125 9.430503885646356 12.578546961518537 0 0 0
436 1 1.5609331754109281 11.004773489540893 14.152320497143798 0 0 0
437 1 3.1349065454249456 9.430503631946337 12.578546423656244 0 0 0