LAMMPS data file via write_data, version 2 Aug 2023, timestep = 120, units = metal

692 atoms
3 atom types

-0.01566800391167992 22.025215000767457 xlo xhi
-0.01241990018308555 22.021966897038876 ylo yhi
-0.008545381084589786 22.018092377940363 zlo zhi

Masses

1 183.84
2 1.008
3 4.0026

Atoms # atomic

1 1 -0.015668001048432807 -0.012419897309035281 -0.008545378223261171 0 0 0
2 1 1.5586807849961626 1.561464873907945 1.5647858902588072 0 0 0
3 1 3.1330295707681493 -0.012419897188801451 -0.008545378332818971 0 0 0
4 1 4.707378357379216 1.5614648745723885 1.5647858908980277 0 0 0
5 1 6.281727142304899 -0.012419896555814528 -0.008545378732577928 0 0 0
6 1 7.856075929454445 1.5614648772894384 1.5647858897249607 0 0 0
7 1 9.430424714264431 -0.012419896555173452 -0.00854537952338273 0 0 0
8 1 11.00477349981474 1.5614648443221297 1.5647858625654063 0 0 0
9 1 12.579122285530218 -0.012419897168530177 -0.008545378853177757 0 0 0
10 1 14.15347107094598 1.56146487729856 1.5647858896538038 0 0 0
11 1 15.727819857956808 -0.012419896432375949 -0.008545378848315249 0 0 0
12 1 17.30216864243539 1.5614648745746753 1.5647858911112718 0 0 0
13 1 18.87651742926811 -0.012419897227792036 -0.00854537827217163 0 0 0
14 1 20.450866215185865 1.561464873910113 1.5647858902689593 0 0 0
15 1 -0.015668001048303334 3.1353496449868112 -0.008545378197688244 0 0 0
16 1 1.5586807850030897 4.709234416431689 1.5647858907560979 0 0 0
17 1 3.133029570229169 3.135349644452412 -0.008545378908511259 0 0 0
18 1 4.707378312849677 4.709234376193036 1.5647858422356409 0 0 0
19 1 6.2817271454529795 3.135349646661446 -0.008545374975566846 0 0 0
20 1 7.8560760882997585 4.709234515134823 1.564786010237692 0 0 0
21 1 9.4304247105047 3.135349639367835 22.018092375714158 0 0 -1
22 1 11.00477348215818 4.709234022467593 1.5647858499646035 0 0 0
23 1 12.579122289311822 3.1353496401116434 22.018092376448646 0 0 -1
24 1 14.15347093365545 4.709234505199927 1.564785998322436 0 0 0
25 1 15.727819854789239 3.1353496465940034 -0.008545375068393745 0 0 0
26 1 17.302168682221584 4.70923438021062 1.5647858480395467 0 0 0
27 1 18.87651742980403 3.1353496444940907 -0.0085453788427847 0 0 0
28 1 20.450866214706306 4.709234416827295 1.5647858911435402 0 0 0
29 1 -0.015668000930379438 6.283119187111283 -0.008545378226227043 0 0 0
30 1 1.5586807962157538 7.857003965591196 1.5647858966091133 0 0 0
31 1 3.1330295790727205 6.283119192880491 -0.008545368530511419 0 0 0
32 1 4.7073787637435975 7.857004271509457 1.5647863353701639 0 0 0
33 1 6.281727052746297 6.283119115858403 22.01809225933575 0 0 -1
34 1 7.856072485280821 7.857000475356775 1.5647798602913996 0 0 0
35 1 9.430424821242015 6.283119192377514 -0.008545222942542549 0 0 0
36 1 11.004773552844522 7.85700583395241 1.5647929496296926 0 0 0
37 1 12.579122189389517 6.283119195552182 -0.00854523456582648 0 0 0
38 1 14.153474433496502 7.857000935770247 1.5647806598126672 0 0 0
39 1 15.727819935589118 6.283119122906984 22.018092273797027 0 0 -1
40 1 17.302168418309897 7.857004111777575 1.564786173374522 0 0 0
41 1 18.876517423567808 6.283119190650243 -0.008545370931185417 0 0 0
42 1 20.450866211469595 7.85700396215995 1.5647858914501966 0 0 0
43 1 -0.01566800145757606 9.430888727481681 -0.00854537918469225 0 0 0
44 1 1.5586806635875632 11.004773498817327 1.5647857704949668 0 0 0
45 1 3.1330295406722244 9.430888724244658 22.01809235314237 0 0 -1
46 1 4.707377315611396 11.004773625867669 1.564785238933432 0 0 0
47 1 6.2817274094027855 9.430888880078891 -0.00854488081351465 0 0 0
48 1 7.856075535706353 11.004773290372931 1.5647955478056526 0 0 0
49 1 9.430424027435045 9.430887985531704 22.018088901066523 0 0 -1
50 1 11.004776201992753 11.004766212843696 1.5647017029183545 0 0 0
51 1 12.57912294388861 9.430887915423908 22.018088900358627 0 0 -1
52 1 14.153470359085828 11.004774023924822 1.5647895530469527 0 0 0
53 1 15.72781963122633 9.43088882795981 -0.008545034067242809 0 0 0
54 1 17.302169271100887 11.004773522693498 1.5647856031205796 0 0 0
55 1 18.876517447774262 9.43088872541722 22.018092363537814 0 0 -1
56 1 20.45086632619998 11.004773500397073 1.5647857813182608 0 0 0
57 1 -0.015668001070494087 12.57865827243606 -0.008545378859779587 0 0 0
58 1 1.5586807797454663 14.152543038426899 1.5647858842954505 0 0 0
59 1 3.133029507646465 12.578658270444901 22.0180923198824 0 0 -1
60 1 4.70737793060171 14.15254270722637 1.56478550117505 0 0 0
61 1 6.281727261248558 12.578658213958642 -0.00854496780371331 0 0 0
62 1 7.8560775284419435 14.15254464933738 1.5647892614363395 0 0 0
63 1 9.430423634121862 12.578658082710293 22.0180860730945 0 0 -1
64 1 11.004776197517218 14.152553419493598 1.564692273973048 0 0 0
65 1 12.579123171566767 12.578658084658015 22.018088706346415 0 0 -1
66 1 14.153468419220186 14.152543722245328 1.564783755009255 0 0 0
67 1 15.727819831968493 12.578658217963143 -0.008545226154423996 0 0 0
68 1 17.302168149765635 14.152542810996039 1.5647863603025791 0 0 0
69 1 18.87651746310531 12.578658275017592 22.018092349941373 0 0 -1
70 1 20.45086620519117 14.152543036624328 1.5647858959368501 0 0 0
71 1 -0.015668001543089446 15.726427813025182 -0.008545378567716552 0 0 0
72 1 1.5586807920836274 17.300312580197087 1.5647858960853092 0 0 0
73 1 3.1330295657881986 15.726427813989856 22.018092377044386 0 0 -1
74 1 4.707378448528676 17.30031251074162 1.5647859833617226 0 0 0
75 1 6.281727286424798 15.726427752129831 -0.008545171855271313 0 0 0
76 1 7.856074122786965 17.300314554862073 1.5647834049516438 0 0 0
77 1 9.430423808378364 15.726428737602184 22.018090040028092 0 0 -1
78 1 11.00477354872532 17.300308090572727 1.5647899596095163 0 0 0
79 1 12.579123167057563 15.726428803207485 22.01809003452508 0 0 -1
80 1 14.153472798608721 17.300314388442462 1.5647838981239708 0 0 0
81 1 15.72781974802582 15.726427798519145 -0.008545318687574542 0 0 0
82 1 17.302168734390467 17.300312670092556 1.5647858191375432 0 0 0
83 1 18.876517418426083 15.726427808284457 -0.008545367564905784 0 0 0
84 1 20.450866215789894 17.300312583849077 1.5647858907947143 0 0 0
85 1 -0.01566800092891897 18.874197355047347 -0.008545378102390993 0 0 0
86 1 1.5586807843211914 20.448082126824975 1.5647858897251778 0 0 0
87 1 3.1330295724039425 18.874197353976598 -0.00854537660259991 0 0 0
88 1 4.707378346796834 20.448082136247088 1.5647858797434278 0 0 0
89 1 6.281727104787617 18.874197390563605 22.018092334911746 0 0 -1
90 1 7.856075927976694 20.44808216247169 1.564785874952415 0 0 0
91 1 9.43042476426223 18.874197353805194 -0.00854536308002495 0 0 0
92 1 11.004773480951807 20.44808211069545 1.5647858776673216 0 0 0
93 1 12.579122243092442 18.87419735383668 -0.008545379092575772 0 0 0
94 1 14.15347109511091 20.448082178249443 1.5647858602149316 0 0 0
95 1 15.727819886766547 18.87419738672334 22.018092345990414 0 0 -1
96 1 17.30216864842681 20.44808213237582 1.5647858851754326 0 0 0
97 1 18.876517430262258 18.87419735616643 -0.00854537899919643 0 0 0
98 1 20.450866215381154 20.44808212643256 1.564785890119557 0 0 0
99 1 -0.01566800103692487 -0.012419897325205981 3.1381171586141434 0 0 0
100 1 1.5586807849797897 1.561464873909078 4.711448426957359 0 0 0
101 1 3.1330295705926328 -0.012419896973845464 3.1381171584031184 0 0 0
102 1 4.707378352374807 1.5614648700255853 4.711448423555112 0 0 0
103 1 6.281727129936189 -0.012419876822523436 3.138117145956543 0 0 0
104 1 7.856075820227067 1.5614647916291875 4.7114483199309545 0 0 0
105 1 9.430424709463267 -0.012419860948998959 3.1381171363795723 0 0 0
106 1 11.004773504415692 1.561465295712874 4.711448376829039 0 0 0
107 1 12.579122296708805 -0.012419845782696916 3.138117138459154 0 0 0
108 1 14.153471175888331 1.5614647914940032 4.711448325036206 0 0 0
109 1 15.72781986406956 -0.012419886814190387 3.138117152208399 0 0 0
110 1 17.30216864715084 1.5614648703111356 4.711448423996995 0 0 0
111 1 18.87651742932987 -0.0124198973423249 3.1381171585590786 0 0 0
112 1 20.450866215194676 1.5614648739100945 4.711448426956643 0 0 0
113 1 -0.01566800104172275 3.135349644799684 3.1381171584469483 0 0 0
114 1 1.5586807810437815 4.7092344124056735 4.7114484233161935 0 0 0
115 1 3.133029571346615 3.135349644945374 3.1381171580560867 0 0 0
116 1 4.707378253932668 4.709234305361255 4.711448272740899 0 0 0
117 1 6.281727184624285 3.1353496356050408 3.138117194742591 0 0 0
118 1 7.8560752039663555 4.709231484451569 4.7114475110057885 0 0 0
119 1 9.430425238919554 3.135349861920918 3.1381171632866707 0 0 0
120 1 11.004773694077585 4.709284908564648 4.711497706733219 0 0 0
121 1 12.57912176706359 3.1353498450281876 3.1381171622306767 0 0 0
122 1 14.153471615305342 4.709231962235905 4.711447700184533 0 0 0
123 1 15.727819809746306 3.1353496454694563 3.1381172008411418 0 0 0
124 1 17.302168736494973 4.709234333330881 4.711448288713555 0 0 0
125 1 18.876517428405432 3.1353496455037106 3.1381171583898073 0 0 0
126 1 20.450866219609587 4.709234411945824 4.711448422969394 0 0 0
127 1 -0.01566800190085011 6.283119184989971 3.138117156827895 0 0 0
128 1 1.5586806276540603 7.8570038328054475 4.7114482838354395 0 0 0
129 1 3.1330295453279295 6.28311919167686 3.1381171665642635 0 0 0
130 1 4.707374050217434 7.857001235707092 4.711446099415818 0 0 0
131 1 6.281724689158634 6.283116591819194 3.138114275797797 0 0 0
132 1 7.855950776119329 7.856878259282776 4.711333359683706 0 0 0
133 1 9.430429693661841 6.283131655915713 3.1381280340133353 0 0 0
134 1 11.004785659440866 7.857150151495642 4.711795238347031 0 0 0
135 1 12.579117607528103 6.283129859992256 3.1381262943759207 0 0 0
136 1 14.153575351719699 7.856896193951384 4.711353311484015 0 0 0
137 1 15.727821909007988 6.283116871648879 3.1381146983027928 0 0 0
138 1 17.302170906607213 7.8570029326931365 4.711447780433599 0 0 0
139 1 18.876517419729076 6.283119220633019 3.1381171960622063 0 0 0
140 1 20.450866323625608 7.857003854532944 4.711448310250875 0 0 0
141 1 -0.01566799514936275 9.430888743430557 3.138117186772799 0 0 0
142 1 1.5586817896142158 11.004773484729112 4.7114489063303795 0 0 0
143 1 3.133030114057554 9.43088936313236 3.1381173978097623 0 0 0
144 1 4.7074382474893 11.00477390985319 4.71150079339505 0 0 0
145 1 6.281744784093564 9.430899993857192 3.138131713532769 0 0 0
146 1 7.856694740178087 11.004638508457045 4.712206422017496 0 0 0
147 1 9.430355525761055 9.430816348780043 3.1379204562584717 0 0 0
148 1 11.005046025321825 11.001564804021617 4.707364331753758 0 0 0
149 1 12.57919411009684 9.430807514574736 3.137918920525088 0 0 0
150 1 14.153367611350587 11.00446497332687 4.711605669994108 0 0 0
151 1 15.727811532837324 9.430891073322108 3.138123620552033 0 0 0
152 1 17.302118382839648 11.004771161752021 4.7114970500604 0 0 0
153 1 18.876517236446833 9.430889231203723 3.138117180697427 0 0 0
154 1 20.45086536345515 11.004773466993026 4.711448881793329 0 0 0
155 1 -0.015667998030412984 12.578658256847733 3.1381171920743682 0 0 0
156 1 1.5586807971786742 14.15254315880169 4.711448330932329 0 0 0
157 1 3.1330299320784327 12.578657726535761 3.1381171554206286 0 0 0
158 1 4.707382799203873 14.152543432090837 4.7114503484605885 0 0 0
159 1 6.281764153258804 12.578651866456646 3.138151388792752 0 0 0
160 1 7.856308986521787 14.15278448350716 4.7116930367374525 0 0 0
161 1 9.430618394656213 12.578648281830809 3.137714969778487 0 0 0
162 1 11.005050813136098 14.155469735331417 4.706895004973586 0 0 0
163 1 12.57903977193612 12.578648934895524 3.13786836138908 0 0 0
164 1 14.153742097185889 14.152955554745434 4.7111071602415535 0 0 0
165 1 15.727799194261298 12.57865196277231 3.138134144943772 0 0 0
166 1 17.302174955056998 14.152546186291373 4.711445245064477 0 0 0
167 1 18.876517078272286 12.578657717955002 3.1381173049013866 0 0 0
168 1 20.450866386073198 14.152543175516367 4.711448283571174 0 0 0
169 1 -0.015667995037291226 15.726427814098118 3.1381171592655757 0 0 0
170 1 1.5586807254363744 17.30031261187579 4.711448394520938 0 0 0
171 1 3.133029842765794 15.726427683461361 3.138117375217233 0 0 0
172 1 4.707375904620814 17.3003144637392 4.711446614316405 0 0 0
173 1 6.281729486011621 15.726425055344318 3.13811929886818 0 0 0
174 1 7.856043058742185 17.300347548965423 4.711415296499156 0 0 0
175 1 9.430352151573091 15.726497927622296 3.1380346516129984 0 0 0
176 1 11.004785635584685 17.300387077718877 4.711421463295475 0 0 0
177 1 12.579197670760024 15.726506365415197 3.138032711052022 0 0 0
178 1 14.153483986521525 17.300331055418187 4.711433631896054 0 0 0
179 1 15.72782653997835 15.726433919376735 3.1381114018490046 0 0 0
180 1 17.302168994204553 17.30031269971918 4.7114482004416685 0 0 0
181 1 18.87651751303667 15.726427823524869 3.1381171510763335 0 0 0
182 1 20.450866226547227 17.300312590753318 4.711448420438802 0 0 0
183 1 -0.015668001893955244 18.874197355937117 3.1381171577647526 0 0 0
184 1 1.558680785929169 20.448082125559665 4.71144842765197 0 0 0
185 1 3.1330295256287837 18.874197388572068 3.138117122713293 0 0 0
186 1 4.707378358449301 20.448082141768573 4.711448430199592 0 0 0
187 1 6.2817264485459985 18.874198001745516 3.1381164316180645 0 0 0
188 1 7.856075457099568 20.448083174433197 4.711447944633434 0 0 0
189 1 9.430424015762213 18.8741972681164 3.1381184035905902 0 0 0
190 1 11.004773701160849 20.448083960737964 4.711447947274675 0 0 0
191 1 12.57912327556416 18.874199478635465 3.1381162641665123 0 0 0
192 1 14.15347134270635 20.448082664893473 4.7114481723760795 0 0 0
193 1 15.727820167079773 18.874197724112925 3.1381168474730488 0 0 0
194 1 17.302168641019183 20.448082123908975 4.711448432556511 0 0 0
195 1 18.876517439130165 18.87419736011377 3.138117152446898 0 0 0
196 1 20.450866215096866 20.448082126247424 4.711448427105248 0 0 0
197 1 -0.015668001079658003 -0.012419897268995976 6.284779695130372 0 0 0
198 1 1.5586807844024788 1.561464873389808 7.858110963151402 0 0 0
199 1 3.1330295695368324 -0.012419896054994984 6.284779695539173 0 0 0
200 1 4.70737833520036 1.5614648638559723 7.858110971641794 0 0 0
201 1 6.281727131781563 -0.012419881344803343 6.284779688814606 0 0 0
202 1 7.85607602169868 1.5614650833139885 7.8581108539691025 0 0 0
203 1 9.430424547503037 -0.012419260016874642 6.2847795200670085 0 0 0
204 1 11.004773509500646 1.5614530440677898 7.858110739405276 0 0 0
205 1 12.57912246467292 -0.012419593031318807 6.284779526943924 0 0 0
206 1 14.153470968978306 1.5614650876511416 7.858110854826152 0 0 0
207 1 15.727819857377355 22.02196689667536 6.284779697734956 0 -1 0
208 1 17.302168664444814 1.5614648640100754 7.858110971662072 0 0 0
209 1 18.876517429627224 -0.012419896635342072 6.284779695187222 0 0 0
210 1 20.450866215727544 1.561464873402048 7.858110963152706 0 0 0
211 1 -0.015668001079847078 3.135349645250417 6.284779695190248 0 0 0
212 1 1.558680772870378 4.709234392308451 7.858110973170446 0 0 0
213 1 3.1330295793935474 3.135349653748987 6.284779706549316 0 0 0
214 1 4.707379172883145 4.709235254094396 7.858111521966369 0 0 0
215 1 6.281726975852374 3.1353494117769785 6.284779818945593 0 0 0
216 1 7.856100796644446 4.709252313757353 7.858103135673761 0 0 0
217 1 9.430417526114763 3.1353423886446468 6.284772600585942 0 0 0
218 1 11.004773921340645 4.7083868939408795 7.858086452943204 0 0 0
219 1 12.579129492725603 3.1353427025280194 6.284772603164933 0 0 0
220 1 14.15344574043661 4.709254089645705 7.858103202007973 0 0 0
221 1 15.72782001108764 3.1353494455655735 6.284779831018783 0 0 0
222 1 17.302167876959437 4.709235191000756 7.858111527189755 0 0 0
223 1 18.876517420164753 3.135349654002533 6.28477970612767 0 0 0
224 1 20.450866224993813 4.709234394812401 7.858110972849597 0 0 0
225 1 -0.015668000845774504 6.283119187922547 6.284779693948607 0 0 0
226 1 1.5586810186065585 7.857004085978839 7.858110845625587 0 0 0
227 1 3.1330293816756867 6.283119085506304 6.284779816363308 0 0 0
228 1 4.707401299556359 7.857032408187394 7.858102945507839 0 0 0
229 1 6.281718309420328 6.283108704593939 6.284771004558136 0 0 0
230 1 7.85567836692201 7.856554424715618 7.857562376919135 0 0 0
231 1 9.430074811580008 6.283090169547123 6.284634162056217 0 0 0
232 1 11.004801918986773 7.810631435929535 7.835196188011611 0 0 0
233 1 12.579471855820632 6.2831114191254995 6.284633853082602 0 0 0
234 1 14.153821541115182 7.8566446374524075 7.857568262985829 0 0 0
235 1 15.727828695420152 6.2831098569057735 6.28477198998737 0 0 0
236 1 17.302147814487004 7.857029709661984 7.8581030999666694 0 0 0
237 1 18.876517661594445 6.283119042444732 6.284779788360444 0 0 0
238 1 20.450866000908615 7.857004066907478 7.858110847218341 0 0 0
239 1 22.02521497480984 9.430888563753976 6.284779534788619 -1 0 0
240 1 1.5586677437710312 11.0047735040466 7.858110787860491 0 0 0
241 1 3.1330207148553533 9.430880579118329 6.28477202536887 0 0 0
242 1 4.706416041137773 11.00476675644451 7.8580916331561275 0 0 0
243 1 6.28162968831784 9.430441957236782 6.284537113828874 0 0 0
244 1 7.804429832005708 11.001789505146457 7.835042590976938 0 0 0
245 1 9.426736359970569 9.426072124152578 6.2766901524932575 0 0 0
246 1 11.01185172332592 10.997442728912707 7.751167871848963 0 0 0
247 1 12.582243576233417 9.42727068559607 6.277139276341128 0 0 0
248 1 14.201017398518283 11.004670110735669 7.834895160225491 0 0 0
249 1 15.727835673974056 9.430519656858205 6.2846139153595155 0 0 0
250 1 17.30304185016725 11.004769544438904 7.85809140741583 0 0 0
251 1 18.876524319939204 9.430881325857861 6.28477286251648 0 0 0
252 1 20.450878059719276 11.004773459321497 7.858110789265772 0 0 0
253 1 -0.015668001870096423 12.578658427743175 6.284779524251485 0 0 0
254 1 1.5586797862241821 14.152542902187566 7.858110873319784 0 0 0
255 1 3.1330184465576045 12.57866564786436 6.284771705485969 0 0 0
256 1 4.707315698053212 14.152524310741802 7.858105876025885 0 0 0
257 1 6.28147459224067 12.57902430273133 6.284841435433032 0 0 0
258 1 7.851491497302099 14.155604899047418 7.857838433954108 0 0 0
259 1 9.40583182771063 12.581578257841361 6.2568554709908595 0 0 0
260 1 11.012758386675298 14.1890176114201 7.863250394773549 0 0 0
261 1 12.601012623445731 12.58166143191035 6.2696986017177805 0 0 0
262 1 14.15393736089054 14.152898371678843 7.857931896632508 0 0 0
263 1 15.728080388589365 12.579025308205566 6.284688492312078 0 0 0
264 1 17.302158209147866 14.152520964977294 7.858105973900035 0 0 0
265 1 18.876528655591372 12.578665573672314 6.28477290470007 0 0 0
266 1 20.45086616642161 14.152542975989638 7.858110874853055 0 0 0
267 1 22.025214976738287 15.726427820400781 6.284779684927659 -1 0 0
268 1 1.558680772360721 17.30031261880371 7.858110971935628 0 0 0
269 1 3.133027296258312 15.726428677745583 6.284778950315672 0 0 0
270 1 4.707382754628986 17.300307616712104 7.858111622158892 0 0 0
271 1 6.281641366241756 15.726506458083241 6.284705329316823 0 0 0
272 1 7.856048620778518 17.30038986278863 7.858123759023994 0 0 0
273 1 9.429553108148683 15.728249020535511 6.283938853767194 0 0 0
274 1 11.004759141229911 17.3012003514896 7.8580845648945905 0 0 0
275 1 12.579439041749538 15.727065797554484 6.2843735661470905 0 0 0
276 1 14.153462155460506 17.300311679544194 7.858122507003498 0 0 0
277 1 15.727829948795858 15.726436667740398 6.284773273239169 0 0 0
278 1 17.30216808395528 17.30031182538945 7.8581117722413945 0 0 0
279 1 18.87651784531738 15.726427982599619 6.28477970451038 0 0 0
280 1 20.45086622766707 17.300312605431902 7.858110973817196 0 0 0
281 1 -0.015668000672997683 18.874197354993438 6.284779695338586 0 0 0
282 1 1.5586807814954244 20.448082130247542 7.8581109628897705 0 0 0
283 1 3.1330296376190048 18.874197305077836 6.284779750050281 0 0 0
284 1 4.707378371659843 20.44808207761015 7.858110942611026 0 0 0
285 1 6.2817286439272815 18.87419705201212 6.284779030164067 0 0 0
286 1 7.856075757972231 20.448083600689547 7.858111173792282 0 0 0
287 1 9.43041640772619 18.87424100509614 6.284771070318104 0 0 0
288 1 11.004773835460512 20.448095444016325 7.8581113068681505 0 0 0
289 1 12.579129669828488 18.874219643150926 6.2847719568855975 0 0 0
290 1 14.153470911375845 20.448082120225173 7.858111160749621 0 0 0
291 1 15.727819237767498 18.87419684268655 6.284779791547258 0 0 0
292 1 17.302168649875753 20.448082122515835 7.858110953005826 0 0 0
293 1 18.876517415929502 18.87419734825658 6.284779709633369 0 0 0
294 1 20.450866215742806 20.448082126970355 7.858110962920909 0 0 0
295 1 -0.015668001083855847 -0.012419897283959147 9.431442231755714 0 0 0
296 1 1.5586807852082574 1.5614648740910042 11.004773500122328 0 0 0
297 1 3.1330295708281315 -0.012419898118507015 9.431442231168713 0 0 0
298 1 4.707378362844273 1.561464881757215 11.00477349393413 0 0 0
299 1 6.2817271308909985 -0.012419851307641868 9.431442242856164 0 0 0
300 1 7.856075713235922 1.5614645463242007 11.00477370901171 0 0 0
301 1 9.430424541657061 -0.012419789592897345 9.431442408545767 0 0 0
302 1 11.004773505208846 1.561464186816584 11.004773794929111 0 0 0
303 1 12.579122470926738 22.021966694935657 9.431442401358634 0 -1 0
304 1 14.153471282084116 1.5614645503112852 11.004773703230962 0 0 0
305 1 15.727819857364421 -0.01241988087007932 9.431442234013575 0 0 0
306 1 17.302168636694944 1.5614648818161663 11.00477349354222 0 0 0
307 1 18.876517428813717 -0.01241989819628635 9.431442231641624 0 0 0
308 1 20.45086621496365 1.5614648740947326 11.004773500123708 0 0 0
309 1 -0.015668001104428075 3.135349644260653 9.431442231960023 0 0 0
310 1 1.55868079273427 4.7092344230788 11.004773492149795 0 0 0
311 1 3.1330295327226914 3.1353496076863228 9.431442218560361 0 0 0
312 1 4.707378287890536 4.70923436102977 11.004773110540718 0 0 0
313 1 6.281727626402376 3.135350500816239 9.431441942721637 0 0 0
314 1 7.856065996005417 4.7092187941800425 11.004784260801276 0 0 0
315 1 9.430417857019192 3.1353285785581906 9.431449103077613 0 0 0
316 1 11.004773755162796 4.709206723715259 11.004775103445626 0 0 0
317 1 12.57912914797967 3.135329007861177 9.431449098502021 0 0 0
318 1 14.153480725109526 4.709219585306866 11.004783971859176 0 0 0
319 1 15.72781937266193 3.1353505274541016 9.43144193354925 0 0 0
320 1 17.30216870679214 4.709234383984435 11.004773093085849 0 0 0
321 1 18.87651746679513 3.1353496077266523 9.431442219032954 0 0 0
322 1 20.450866208054503 4.709234422468333 11.004773492861968 0 0 0
323 1 -0.01566800051887232 6.283119191027341 9.43144222631508 0 0 0
324 1 1.558680387841028 7.857003715293827 11.004773762383945 0 0 0
325 1 3.1330306026994226 6.283119824951026 9.431441906918252 0 0 0
326 1 4.707362003639733 7.856993307629855 11.00478616006645 0 0 0
327 1 6.281778715393153 6.283168403842864 9.431444996514147 0 0 0
328 1 7.855603351950502 7.856536032934001 11.00525804101203 0 0 0
329 1 9.4302325475804 6.282132122816619 9.431700884803305 0 0 0
330 1 11.004787689752897 7.855061223891819 11.008280205846226 0 0 0
331 1 12.5793134006338 6.2821612332573835 9.431700495669025 0 0 0
332 1 14.153909963045585 7.856571270572963 11.005225999361697 0 0 0
333 1 15.727767720387359 6.283170157736382 9.431444199432022 0 0 0
334 1 17.30218296077973 7.856994886226731 11.004784487302754 0 0 0
335 1 18.876516489872966 6.283119728304297 9.4314419366939 0 0 0
336 1 20.45086655944201 7.857003738941515 11.004773735815665 0 0 0
337 1 22.025214972713975 9.430888552864849 9.431442391210679 -1 0 0
338 1 1.5586804434592647 11.00477350499079 11.004773254649349 0 0 0
339 1 3.133006450913855 9.430880683547631 9.431450163056452 0 0 0
340 1 4.707341942808611 11.00477475790851 11.004770524817028 0 0 0
341 1 6.280666083292638 9.43058023636911 9.431784502806568 0 0 0
342 1 7.853254105715527 11.004516782308693 11.008803818241802 0 0 0
343 1 9.382565982876788 9.38145937173269 9.476535055557536 0 0 0
344 1 11.005180267000021 10.985254106067295 11.060503370013583 0 0 0
345 1 12.626097001969635 9.382778709653788 9.475921776629292 0 0 0
346 1 14.15619312145854 11.004726313858251 11.008789889720894 0 0 0
347 1 15.728792005147266 9.430657305243766 9.431716078605223 0 0 0
348 1 17.302208268139697 11.004772570475922 11.004774906436674 0 0 0
349 1 18.876538397184103 9.430881493243083 9.431449380124999 0 0 0
350 1 20.45086662238884 11.004773491341478 11.00477327867848 0 0 0
351 1 22.02521499458498 12.578658436841895 9.431442396594514 -1 0 0
352 1 1.5586805014694916 14.152543255382769 11.004773683911816 0 0 0
353 1 3.133007376174024 12.578665468329243 9.431450197174835 0 0 0
354 1 4.707365383225432 14.152550656749316 11.004780113237485 0 0 0
355 1 6.280684869227695 12.578863048222622 9.431592881435972 0 0 0
356 1 7.855372316530857 14.153133223758411 11.005588931830824 0 0 0
357 1 9.376098431395441 12.643522235869199 9.47380115593712 0 0 0
358 1 11.00518052196854 14.156078765696684 11.00781695432855 0 0 0
359 1 12.629284266843934 12.644470455664187 9.460139990273364 0 0 0
360 1 14.154009940426983 14.15287288352036 11.005509090325154 0 0 0
361 1 15.72886152565727 12.578869256733926 9.431719099088086 0 0 0
362 1 17.302184582125996 14.152552787574006 11.004784624102156 0 0 0
363 1 18.87653930403829 12.57866540196187 9.431449123613804 0 0 0
364 1 20.450866581019152 14.152543267829882 11.00477372929588 0 0 0
365 1 22.025214974419875 15.726427819267647 9.431442235649454 -1 0 0
366 1 1.5586807433484597 17.300312601938344 11.004773520214185 0 0 0
367 1 3.1330283946866895 15.72642814227386 9.431442739982174 0 0 0
368 1 4.707376753353071 17.300314162716997 11.004774680809481 0 0 0
369 1 6.281701860359143 15.726455596100733 9.431516860590271 0 0 0
370 1 7.8560650948602975 17.300328563091824 11.004784961293087 0 0 0
371 1 9.430379391795919 15.727350022499438 9.431698893290337 0 0 0
372 1 11.004784606045881 17.300376143058582 11.004779525153312 0 0 0
373 1 12.578830850394388 15.726373367327511 9.431482378212475 0 0 0
374 1 14.153464947307967 17.300310508840763 11.004769782147457 0 0 0
375 1 15.727760467367757 15.726374764584268 9.431453428565703 0 0 0
376 1 17.30216850242583 17.300312701278852 11.00477306120086 0 0 0
377 1 18.87651656057129 15.726427375370308 9.431442037157268 0 0 0
378 1 20.45086620630597 17.300312579285734 11.004773494082126 0 0 0
379 1 -0.015668000713121803 18.87419735584441 9.431442231930678 0 0 0
380 1 1.5586807852947189 20.448082125894608 11.004773499879795 0 0 0
381 1 3.133029554401013 18.874197362632025 9.431442184743442 0 0 0
382 1 4.707378331468344 20.44808217167702 11.004773524501397 0 0 0
383 1 6.281726214559828 18.87419915574116 9.4314432811495 0 0 0
384 1 7.856075683684736 20.4480825432632 11.004773765730851 0 0 0
385 1 9.430417144058694 18.874222472851617 9.43144944660156 0 0 0
386 1 11.00477369102628 20.448083305124943 11.004773623277181 0 0 0
387 1 12.579129220494384 18.874202873573807 9.431448687484426 0 0 0
388 1 14.153471130010422 20.448082029499247 11.004773550614138 0 0 0
389 1 15.72782072478369 18.874197881068834 9.431442528855667 0 0 0
390 1 17.302168656766383 20.448082141543175 11.004773512816497 0 0 0
391 1 18.87651748870595 18.874197403200135 9.431442225088215 0 0 0
392 1 20.450866215376756 20.448082126308222 11.00477350040955 0 0 0
393 1 -0.015668001040600166 -0.012419897309468582 12.578104768278184 0 0 0
394 1 1.558680784824083 1.5614648737505896 14.151436036685125 0 0 0
395 1 3.133029570354152 -0.01241989647356196 12.578104768778609 0 0 0
396 1 4.707378355836315 1.561464874452405 14.151436037462402 0 0 0
397 1 6.281727135150964 -0.01241989468819117 12.578104775979481 0 0 0
398 1 7.856075921615963 1.561464857120672 14.151436046316327 0 0 0
399 1 9.430424705661347 -0.012419886663197032 12.578104789575208 0 0 0
400 1 11.00477349994274 1.5614649020014164 14.151436053233114 0 0 0
401 1 12.579122300368384 -0.012419877757199342 12.5781047875648 0 0 0
402 1 14.153471078721154 1.5614648572710788 14.151436046217196 0 0 0
403 1 15.727819859059814 22.021966891662974 12.578104769666902 0 -1 0
404 1 17.30216864391115 1.5614648745365556 14.151436037179899 0 0 0
405 1 18.87651742945605 -0.012419896976463125 12.578104768524662 0 0 0
406 1 20.450866215356534 1.561464873751907 14.151436036673907 0 0 0
407 1 -0.01566800104159723 3.1353496450183878 12.578104768197333 0 0 0
408 1 1.55868078520182 4.709234414360796 14.151436038019106 0 0 0
409 1 3.1330295660893097 3.1353496402835974 12.578104772194692 0 0 0
410 1 4.707378418717389 4.709234458815415 14.151435967923135 0 0 0
411 1 6.281726974290743 3.135349495560704 12.578104932836007 0 0 0
412 1 7.856075610117404 4.7092337396090835 14.151437083744753 0 0 0
413 1 9.430424487063842 3.135349171385375 12.578105092750608 0 0 0
414 1 11.004773496435714 4.709239003229238 14.151432179817931 0 0 0
415 1 12.57912252128321 3.13534916013887 12.578105101261052 0 0 0
416 1 14.153471401037224 4.709233728549887 14.151437092896279 0 0 0
417 1 15.727820017303724 3.1353495121175787 12.578104923801924 0 0 0
418 1 17.302168572125424 4.709234468781724 14.151435958079682 0 0 0
419 1 18.8765174336388 3.1353496408517167 12.578104771864412 0 0 0
420 1 20.450866214455946 4.7092344147809015 14.151436037606915 0 0 0
421 1 -0.015668001983092886 6.2831191795213295 12.578104776637808 0 0 0
422 1 1.5586807888975862 7.857003953939764 14.15143602721959 0 0 0
423 1 3.133029366780713 6.283118994283907 12.578105003227387 0 0 0
424 1 4.7073777458384205 7.857003312005171 14.151437032161509 0 0 0
425 1 6.281723603389587 6.283115030359579 12.578107704771698 0 0 0
426 1 7.856090037649618 7.857018335478788 14.151426607605634 0 0 0
427 1 9.430380242097378 6.283130822259041 12.578095065713997 0 0 0
428 1 11.004773656759333 7.857070541842883 14.15142661389056 0 0 0
429 1 12.57916718306757 6.283130138485654 12.578095718262482 0 0 0
430 1 14.153456901056886 7.857018402646005 14.151426087321124 0 0 0
431 1 15.727822766081463 6.283115669599903 12.578107052943281 0 0 0
432 1 17.302169276040203 7.857003319288121 14.151437034198416 0 0 0
433 1 18.876517596294853 6.283119023238027 12.578104973851046 0 0 0
434 1 20.450866215340316 7.8570039521655906 14.151436030707293 0 0 0
435 1 -0.015667997456367874 9.43088872641144 12.578104741572572 0 0 0
436 1 1.558680827479788 11.004773496060087 14.1514360302479 0 0 0
437 1 3.1330293791249937 9.430888440489598 12.57810456324293 0 0 0