LAMMPS data file via write_data, version 2 Aug 2023, timestep = 120, units = metal

689 atoms
3 atom types

-0.004664363366641475 22.014211360222433 xlo xhi
-0.0038403801010985436 22.013387376956867 ylo yhi
-0.0031872833353416346 22.012734280191104 zlo zhi

Masses

1 183.84
2 1.008
3 4.0026

Atoms # atomic

1 1 -0.00466436045603907 -0.0038403771877306672 -0.0031872804083838938 0 0 0
2 1 1.5681124770835135 1.5688187484552998 1.5693785456620233 0 0 0
3 1 3.1408893142278984 -0.003840377191988531 -0.0031872803208034314 0 0 0
4 1 4.713666154478455 1.568818752806847 1.569378548363971 0 0 0
5 1 6.286442988730346 -0.003840377181905179 -0.0031872802909045815 0 0 0
6 1 7.859219832893905 1.5688187604131352 1.5693785502580513 0 0 0
7 1 9.431996662452175 -0.003840377068163206 -0.003187280300129948 0 0 0
8 1 11.004773499477668 1.5688187455302471 1.5693785289335342 0 0 0
9 1 12.577550337524995 -0.003840377058745149 -0.0031872802772062313 0 0 0
10 1 14.150327167857634 1.5688187583515187 1.5693785491427776 0 0 0
11 1 15.723104011301825 -0.003840377184909567 -0.00318728032788014 0 0 0
12 1 17.295880845314695 1.568818753083692 1.5693785485536778 0 0 0
13 1 18.868657685844884 -0.003840377192171926 -0.0031872803161656343 0 0 0
14 1 20.44143452305611 1.5688187484680234 1.5693785456737732 0 0 0
15 1 -0.004664360457263768 3.1414778737085975 -0.003187280310994043 0 0 0
16 1 1.568112481632133 4.714137002181057 1.569378548645246 0 0 0
17 1 3.1408893164897997 3.14147787592622 -0.0031872781099385157 0 0 0
18 1 4.713666307476609 4.714137152472539 1.569378697312512 0 0 0
19 1 6.286442998066656 3.1414778804945387 -0.003187273545399842 0 0 0
20 1 7.8592205323818245 4.71413747005347 1.56937901301912 0 0 0
21 1 9.43199667074144 3.141477835561415 22.012734245097253 0 0 -1
22 1 11.004773399894757 4.714137436333743 1.5693789824558144 0 0 0
23 1 12.577550328222742 3.141477848540198 22.012734258081057 0 0 -1
24 1 14.150326576810631 4.714137395768913 1.569378938847303 0 0 0
25 1 15.723104003066508 3.1414778791565277 -0.003187274883122886 0 0 0
26 1 17.295880681935625 4.71413716310845 1.56937870788387 0 0 0
27 1 18.86865768348268 3.141477876049861 -0.0031872779877643673 0 0 0
28 1 20.441434518115923 4.714137002383561 1.5693785488371608 0 0 0
29 1 -0.0046643604414589425 6.286796124545965 -0.003187280053563426 0 0 0
30 1 1.5681124978117877 7.859455260888839 1.5693785568378422 0 0 0
31 1 3.1408893241055353 6.286796133989274 -0.0031872706969252626 0 0 0
32 1 4.713666698043924 7.859455803177895 1.5693790350036307 0 0 0
33 1 6.286443138730537 6.286796265128093 -0.0031870416717793668 0 0 0
34 1 7.8592264680617046 7.8594616059115445 1.5693888054825895 0 0 0
35 1 9.431996979270114 6.286796200299369 -0.0031865890380790842 0 0 0
36 1 11.004774191650167 7.859477152087267 1.569414754050377 0 0 0
37 1 12.57755003919665 6.2867961995559245 -0.00318667471126196 0 0 0
38 1 14.150319896330311 7.859462287563183 1.5693904220320825 0 0 0
39 1 15.723103843759612 6.2867962803447295 -0.003187013548639223 0 0 0
40 1 17.295880249046395 7.859455845752941 1.5693791372618935 0 0 0
41 1 18.868657675244734 6.2867961347464165 -0.0031872698119923696 0 0 0
42 1 20.441434505777043 7.859455258164706 1.5693785546736825 0 0 0
43 1 -0.004664360558645788 9.432114374684218 -0.0031872799544946087 0 0 0
44 1 1.5681124605597707 11.004773500327946 1.5693785129622582 0 0 0
45 1 3.140889312462024 9.432114387115742 -0.003187279392783693 0 0 0
46 1 4.713666840892288 11.00477358420945 1.5693794495815199 0 0 0
47 1 6.286443219642512 9.432114628189462 -0.003186573865133468 0 0 0
48 1 7.859240137308462 11.004772777805716 1.5694104168504195 0 0 0
49 1 9.43199757924899 9.43211508078646 -0.003177457184610338 0 0 0
50 1 11.004774756359973 11.004772166269811 1.5695198578898844 0 0 0
51 1 12.577549468870822 9.43211509191018 -0.003176375271524118 0 0 0
52 1 14.150305438722075 11.00477279264947 1.5694146663505477 0 0 0
53 1 15.723103726542615 9.432114658311503 -0.003186471769951324 0 0 0
54 1 17.295880438699992 11.004773587381747 1.569378956127965 0 0 0
55 1 18.86865768721651 9.432114382806983 -0.0031872816905282094 0 0 0
56 1 20.44143450911117 11.004773500343191 1.5693785456912297 0 0 0
57 1 -0.0046643605588132814 12.577432625331264 -0.003187279957469292 0 0 0
58 1 1.568112499274706 14.150091738496062 1.569378557532209 0 0 0
59 1 3.1408893044520423 12.577432613705843 22.01273427611449 0 0 -1
60 1 4.713666759134816 14.15009109990636 1.5693790959539207 0 0 0
61 1 6.286443212950661 12.577432349482198 -0.00318650865116537 0 0 0
62 1 7.859225747197202 14.150086082880026 1.5693869305626291 0 0 0
63 1 9.431997568407105 12.577431889000222 -0.003178616661155796 0 0 0
64 1 11.004774206658377 14.150071366514146 1.569411390080999 0 0 0
65 1 12.577549478714396 12.577431875896862 -0.0031775050837394157 0 0 0
66 1 14.150320607429387 14.150085383453481 1.5693885872107864 0 0 0
67 1 15.723103734807461 12.577432319621515 -0.0031864046758885993 0 0 0
68 1 17.29588018824472 14.150091054392618 1.5693791977379403 0 0 0
69 1 18.86865769535651 12.577432618036882 22.012734273687396 0 0 -1
70 1 20.441434504280977 14.150091741209092 1.569378555376914 0 0 0
71 1 -0.004664360441612071 15.722750875435159 -0.003187280030423114 0 0 0
72 1 1.5681124811927822 17.295409998114284 1.5693785483579663 0 0 0
73 1 3.1408893252108805 15.722750865050829 -0.0031872695905581163 0 0 0
74 1 4.713666289346284 17.295409864484736 1.5693786795630922 0 0 0
75 1 6.286443120434725 15.722750757226562 -0.0031870793036637463 0 0 0
76 1 7.859220529555101 17.295409538768318 1.5693790105819236 0 0 0
77 1 9.431996958606764 15.722750838111281 -0.003186642414976415 0 0 0
78 1 11.004773409540483 17.295409389919516 1.569379385464732 0 0 0
79 1 12.577550060030113 15.722750840066114 -0.003186720020847253 0 0 0
80 1 14.150326570317429 17.295409607963396 1.5693789412370325 0 0 0
81 1 15.723103861898641 15.722750741786445 -0.003187050644944002 0 0 0
82 1 17.295880699430498 17.295409853310858 1.5693786905798046 0 0 0
83 1 18.868657674123188 15.722750864274483 -0.0031872686918137183 0 0 0
84 1 20.44143451854368 17.295409997907043 1.5693785485548146 0 0 0
85 1 -0.004664360457403382 18.86806912637305 -0.0031872803182868537 0 0 0
86 1 1.568112477089964 20.44072825169633 1.5693785456635416 0 0 0
87 1 3.1408893162865157 18.868069124327576 -0.003187278306933772 0 0 0
88 1 4.713666154852685 20.4407282471675 1.5693785487551297 0 0 0
89 1 6.28644299818582 18.868069119085835 -0.0031872725660907586 0 0 0
90 1 7.859219834879514 20.44072823766056 1.569378551174415 0 0 0
91 1 9.431996674002319 18.86806916642417 22.01273424559978 0 0 -1
92 1 11.004773499574714 20.440728294114425 1.569378489507494 0 0 0
93 1 12.577550325092053 18.86806915429728 22.012734257762858 0 0 -1
94 1 14.150327165780112 20.440728239515558 1.569378550156433 0 0 0
95 1 15.723104002821547 18.86806912030996 -0.0031872737929223047 0 0 0
96 1 17.295880844935027 20.440728246878177 1.5693785489510552 0 0 0
97 1 18.868657683679448 18.868069124198772 -0.003187278180862773 0 0 0
98 1 20.441434523050994 20.440728251684988 1.5693785456740255 0 0 0
99 1 -0.0046643604553615655 -0.003840377188326265 3.1419443713118786 0 0 0
100 1 1.5681124774220105 1.568818748821953 4.714510197282037 0 0 0
101 1 3.1408893146324544 -0.0038403772080599537 3.141944371708593 0 0 0
102 1 4.713666162969938 1.5688187681976524 4.714510205566955 0 0 0
103 1 6.286442992364528 -0.003840376188541199 3.1419443745626747 0 0 0
104 1 7.859219918924357 1.568818995219676 4.714510278036057 0 0 0
105 1 9.43199667183426 22.01338736962817 3.1419443821140205 0 -1 0
106 1 11.004773506443321 1.5688192702342034 4.714510254638271 0 0 0
107 1 12.577550328470029 22.01338736950461 3.141944381541031 0 -1 0
108 1 14.150327075551296 1.5688190142572758 4.714510284106495 0 0 0
109 1 15.723104007366395 -0.003840376198422992 3.141944374818404 0 0 0
110 1 17.29588083610069 1.5688187698725318 4.714510206541514 0 0 0
111 1 18.868657685414384 -0.003840377204874406 3.1419443717413147 0 0 0
112 1 20.441434522772948 1.5688187487493008 4.714510197220926 0 0 0
113 1 -0.004664360451105833 3.141477874124069 3.1419443717370905 0 0 0
114 1 1.5681125011051715 4.714137013013893 4.714510209216446 0 0 0
115 1 3.140889327012307 3.1414778862508834 3.1419443819051702 0 0 0
116 1 4.713666785481421 4.714137579297785 4.714510743421443 0 0 0
117 1 6.286443148803131 3.1414781232749736 3.1419445126656838 0 0 0
118 1 7.8592265008135715 4.714147295962872 4.714516540221363 0 0 0
119 1 9.431996984157035 3.1414785712278377 3.141944447703293 0 0 0
120 1 11.004774188146863 4.714173157526191 4.714532119252298 0 0 0
121 1 12.577550032764638 3.1414784868198984 3.1419444469768045 0 0 0
122 1 14.150319850824536 4.714148924643307 4.714517219993207 0 0 0
123 1 15.723103835269505 3.141478149635086 3.1419445277070914 0 0 0
124 1 17.29588015704376 4.714137686158901 4.7145107908874575 0 0 0
125 1 18.868657672115912 3.1414778873694127 3.1419443827225995 0 0 0
126 1 20.441434501537735 4.714137011488648 4.714510206594055 0 0 0
127 1 -0.004664362852925399 6.286796127555995 3.141944374394646 0 0 0
128 1 1.5681125360985355 7.859455191612101 4.714510128795737 0 0 0
129 1 3.1408895436550273 6.28679626393929 3.1419445026209196 0 0 0
130 1 4.7136726710194825 7.859457965671444 4.714512833859593 0 0 0
131 1 6.286450861810316 6.2868040977123565 3.1419523026125864 0 0 0
132 1 7.859561020254148 7.859809950072998 4.714865217770344 0 0 0
133 1 9.432010970203045 6.286849135471574 3.1419974070254164 0 0 0
134 1 11.00482903190606 7.860611014020168 4.715663391942546 0 0 0
135 1 12.577536898407937 6.286836961562141 3.141985226421587 0 0 0
136 1 14.149912121334356 7.859870708518323 4.714925968635464 0 0 0
137 1 15.72309511533591 6.286804954319636 3.1419531585926324 0 0 0
138 1 17.295868774632673 7.859462543964884 4.714517433165286 0 0 0
139 1 18.86865739601142 6.286796301927039 3.141944540762417 0 0 0
140 1 20.441434247693948 7.859455347939824 4.714510290642475 0 0 0
141 1 -0.004664352154015291 9.432114383143732 3.141944384138819 0 0 0
142 1 1.5681135466142415 11.004773493334676 4.714510607418037 0 0 0
143 1 3.140890297202164 9.432114987462175 3.1419447077906697 0 0 0
144 1 4.713738631878603 11.00477279300969 4.714570260652938 0 0 0
145 1 6.286488566899311 9.432125618526747 3.141983476768317 0 0 0
146 1 7.860256812002184 11.004720402868509 4.715492399107143 0 0 0
147 1 9.432108916161583 9.432227600463943 3.1426299855425754 0 0 0
148 1 11.004917419662133 11.004599386413597 4.70917833935308 0 0 0
149 1 12.577434276007077 9.432230161293504 3.1427030790747184 0 0 0
150 1 14.149166017129446 11.004720637939746 4.715666750135368 0 0 0
151 1 15.723062918129333 9.432127934682265 3.1419855089642423 0 0 0
152 1 17.295845039269082 11.004772797760946 4.714532021426303 0 0 0
153 1 18.86865686529453 9.432114672403069 3.1419446545674545 0 0 0
154 1 20.441433959889697 11.00477349334769 4.714510298218112 0 0 0
155 1 -0.00466435216841885 12.577432616506279 3.1419443843592263 0 0 0
156 1 1.568112512885684 14.150091814525522 4.7145101219468755 0 0 0
157 1 3.1408903627377387 12.577431993546588 3.14194470444108 0 0 0
158 1 4.713670796912345 14.150089723667937 4.714512117565364 0 0 0
159 1 6.286499364179201 12.577420409094715 3.141994266169285 0 0 0
160 1 7.859481150164508 14.149825634398612 4.71478556678605 0 0 0
161 1 9.43210702787438 12.577322809990534 3.142548885461685 0 0 0
162 1 11.004829216590169 14.149030233082557 4.715549252173111 0 0 0
163 1 12.577436239570433 12.577320312186531 3.1426253274358498 0 0 0
164 1 14.149987964977331 14.149760888682406 4.714850083257836 0 0 0
165 1 15.72305167105994 12.577418089820807 3.1419967690627812 0 0 0
166 1 17.295870616759515 14.150085146467529 4.7145167234633325 0 0 0
167 1 18.868656801341626 12.57743230876222 3.1419446463566887 0 0 0
168 1 20.441434270601693 14.150091658122175 4.714510283849958 0 0 0
169 1 -0.004664362859524776 15.722750872783742 3.1419443740515165 0 0 0
170 1 1.5681125007373888 17.295409987531297 4.714510208806596 0 0 0
171 1 3.140889509559328 15.722750754851775 3.1419444844871793 0 0 0
172 1 4.713666766376272 17.295409445505584 4.714510744580173 0 0 0
173 1 6.286449486547329 15.722744277771586 3.141950929134214 0 0 0
174 1 7.859225516608827 17.295401932738418 4.714515548375617 0 0 0
175 1 9.432009605260165 15.722693410477676 3.1419979135294565 0 0 0
176 1 11.00477419241064 17.29534041636422 4.714566862466171 0 0 0
177 1 12.577538259810028 15.722704755834803 3.141986582636416 0 0 0
178 1 14.150320840030998 17.295400287670187 4.71451622110453 0 0 0
179 1 15.723096446123085 15.72274337613289 3.141951829375452 0 0 0
180 1 17.29588017828498 17.295409340724145 4.714510787614188 0 0 0
181 1 18.868657429422026 15.722750716701636 3.1419445228427225 0 0 0
182 1 20.441434502059316 17.29540998913281 4.714510206093266 0 0 0
183 1 -0.00466436044822215 18.868069125964688 3.1419443717242213 0 0 0
184 1 1.5681124774914255 20.440728251293645 4.714510197329531 0 0 0
185 1 3.140889327382826 18.868069113898642 3.1419443819970767 0 0 0
186 1 4.713666164935884 20.44072822920345 4.71451020817799 0 0 0
187 1 6.286443161361477 18.86806888821618 3.141944524216429 0 0 0
188 1 7.859219816122371 20.440728129399538 4.714510163784244 0 0 0
189 1 9.431997268294593 18.86806830481807 3.1419444815595745 0 0 0
190 1 11.004773506514093 20.44072712595544 4.714510640168627 0 0 0
191 1 12.577549748669613 18.86806837788634 3.141944483151865 0 0 0
192 1 14.150327178223838 20.440728110061368 4.71451016988152 0 0 0
193 1 15.723103822694743 18.868068861217882 3.1419445394452765 0 0 0
194 1 17.295880834223354 20.440728227701342 4.714510209035959 0 0 0
195 1 18.868657671834388 18.868069112868763 3.1419443827258635 0 0 0
196 1 20.441434522700163 20.44072825136272 4.7145101972723635 0 0 0
197 1 -0.004664360456050806 -0.003840377188915371 6.2870760227910365 0 0 0
198 1 1.5681124777693214 1.568818749095554 7.859641848502582 0 0 0
199 1 3.1408893151526915 -0.0038403772528236217 6.287076022981055 0 0 0
200 1 4.713666161130381 1.5688187743327553 7.859641848804052 0 0 0
201 1 6.286443001452552 22.01338737415252 6.287076029794073 0 -1 0
202 1 7.859219946355615 1.5688192789689397 7.8596418418149625 0 0 0
203 1 9.431996613919313 -0.0038402500037859684 6.287075966886944 0 0 0
204 1 11.004773513593216 1.5688211215059658 7.859641834580371 0 0 0
205 1 12.577550387033892 -0.003840250001307109 6.287075966647646 0 0 0
206 1 14.150327041057615 1.5688193433000992 7.859641841933344 0 0 0
207 1 15.723103997580697 22.01338737427261 6.287076030383739 0 -1 0
208 1 17.29588083800237 1.5688187696920322 7.859641848784679 0 0 0
209 1 18.868657684944072 -0.0038403772575168102 6.287076022934166 0 0 0
210 1 20.44143452228791 1.5688187492377654 7.859641848502738 0 0 0
211 1 -0.00466436044966659 3.1414778745262018 6.28707602291103 0 0 0
212 1 1.5681124791453043 4.71413698614814 7.859641848824187 0 0 0
213 1 3.1408893260724926 3.141477888125149 6.2870760323583506 0 0 0
214 1 4.713666649078749 4.714137714002216 7.859641927280514 0 0 0
215 1 6.286443312451902 3.1414786696614376 6.287076272172987 0 0 0
216 1 7.859239946424539 4.71416863759505 7.859641127122622 0 0 0
217 1 9.431997657159922 3.141487759141994 6.287076722237569 0 0 0
218 1 11.004774770745591 4.71427731683788 7.859640469320423 0 0 0
219 1 12.577549395717973 3.1414888266567185 6.287076732964305 0 0 0
220 1 14.150305635537066 4.714172830733025 7.859641141945389 0 0 0
221 1 15.723103637142415 3.1414787728016687 6.287076301916274 0 0 0
222 1 17.295880691223875 4.7141371572882065 7.85964192501703 0 0 0
223 1 18.868657675104664 3.14147788442413 6.287076027103524 0 0 0
224 1 20.441434501854555 4.71413700946299 7.85964184877716 0 0 0
225 1 -0.00466435541753411 6.286796137518527 6.287076030424289 0 0 0
226 1 1.5681134495421978 7.859455566638976 7.8596418419783545 0 0 0
227 1 3.140890364036374 6.286796538964944 6.28707662555452 0 0 0
228 1 4.713738553647496 7.859515230698606 7.859641139311407 0 0 0
229 1 6.286488347567503 6.286834985830134 6.287087267531111 0 0 0
230 1 7.860252330562486 7.8604362014803675 7.8595905423586645 0 0 0
231 1 9.43210846364176 6.287480406185208 6.287188529192923 0 0 0
232 1 11.004917281250801 7.854097233054409 7.859455569475943 0 0 0
233 1 12.577434801528195 6.287553353034143 6.287191098358122 0 0 0
234 1 14.149170378326554 7.860610059604572 7.859590816485475 0 0 0
235 1 15.723062831949598 6.2868373301684075 6.287089582061739 0 0 0
236 1 17.295845278215605 7.859476856006003 7.859641143843102 0 0 0
237 1 18.868656781791266 6.2867964969832295 6.287076309545408 0 0 0
238 1 20.44143393202443 7.8594553798460804 7.859641841858216 0 0 0
239 1 22.01421115965589 9.432114301730852 6.287075947489686 -1 0 0
240 1 1.5680974557790792 11.004773486109354 7.85964183468543 0 0 0
241 1 3.1408887472766494 9.43210509882419 6.287066662478403 0 0 0
242 1 4.712511304462147 11.004772204345086 7.859640527639751 0 0 0
243 1 6.287152122812688 9.431788942122616 6.286750288265709 0 0 0
244 1 7.775935303024077 11.004679810795427 7.8595300217869895 0 0 0
245 1 9.431083061158414 9.425242721383098 6.280204306858219 0 0 0
246 1 20.441434523252237 20.440728251878706 20.440168454709333 0 0 0
247 1 12.577163481830294 9.43248196109673 6.287443848342222 0 0 0
248 1 14.155782421359074 11.004601294014247 7.859455917642545 0 0 0
249 1 15.722348841829511 9.43222840587991 6.287189865567513 0 0 0
250 1 17.295742677627725 11.00477214739833 7.859640465063011 0 0 0
251 1 18.868646799748365 9.432115300828585 6.287076868654325 0 0 0
252 1 20.44143215046584 11.004773486037216 7.8596418345227494 0 0 0
253 1 22.014211159651996 12.577432697455276 6.287075947631417 -1 0 0
254 1 1.5681133994965624 14.150091447482815 7.859641841816427 0 0 0
255 1 3.140887648381201 12.577441863737985 6.287066648145066 0 0 0
256 1 4.7137354589034794 14.150033134724207 7.8596411240489905 0 0 0
257 1 6.287074329207964 12.577761169841324 6.286747973914842 0 0 0
258 1 7.86014244582377 14.14920381987082 7.859590409386311 0 0 0
259 1 9.423872377414748 12.585648291369987 6.27299782586532 0 0 0
260 1 11.004852592699761 14.216754989757257 7.859565489912999 0 0 0
261 1 12.584346881023842 12.57838181629184 6.280264891037098 0 0 0
262 1 14.149281177657214 14.149030509324707 7.859590536453454 0 0 0
263 1 15.72242644045702 12.577322065857011 6.28718786693726 0 0 0
264 1 17.295848510289215 14.150071655241355 7.859641128182824 0 0 0
265 1 18.86864788600413 12.577431653172539 6.287076859867594 0 0 0
266 1 20.441433982672795 14.150091633561244 7.859641841738082 0 0 0
267 1 -0.00466435531226751 15.722750863327544 6.287076030021273 0 0 0
268 1 1.568112483539833 17.295410014383553 7.859641848787861 0 0 0
269 1 3.140890310858965 15.722750502940478 6.287076607277056 0 0 0
270 1 4.713667116998355 17.295409050514575 7.85964192230107 0 0 0
271 1 6.286489251887655 15.722707172331 6.287085940347991 0 0 0
272 1 7.859275131338618 17.295344453241118 7.859641116200622 0 0 0
273 1 9.431857340689573 15.72192407875363 6.286936174833729 0 0 0
274 1 11.00477473762828 17.296326919777616 7.859640536832516 0 0 0
275 1 12.577686402164057 15.721850924851218 6.286939099535059 0 0 0
276 1 14.150270566260845 17.295340358660223 7.859641130114139 0 0 0
277 1 15.723062094999538 15.72270499426604 6.287088249779309 0 0 0
278 1 17.29588019586714 17.295409580119063 7.859641927082177 0 0 0
279 1 18.868656840603013 15.722750546940878 6.287076289642703 0 0 0
280 1 20.44143449716528 17.295409991007137 7.859641848792133 0 0 0
281 1 -0.004664360453540699 18.86806912551942 6.287076022953273 0 0 0
282 1 1.568112477707136 20.44072825109319 7.859641848502316 0 0 0
283 1 3.1408893294949918 18.868069111417817 6.287076036351402 0 0 0
284 1 4.71366614306105 20.44072824083681 7.85964184880958 0 0 0
285 1 6.286443374901538 18.868068177106718 6.287076560203782 0 0 0
286 1 7.85922010483279 20.440727346933848 7.859641841892808 0 0 0
287 1 9.431989635771 18.868065857568467 6.287068631732918 0 0 0
288 1 11.004773513487073 20.440739595554184 7.859641834690921 0 0 0
289 1 12.577557409096203 18.868064780993627 6.287068651614159 0 0 0
290 1 14.150326881945315 20.44072728284994 7.859641842044735 0 0 0
291 1 15.723103578276694 18.868068081222937 6.287076588728115 0 0 0
292 1 17.295880856044672 20.440728245220292 7.859641848855559 0 0 0
293 1 18.86865767132047 18.868069114739388 6.287076031442505 0 0 0
294 1 20.441434522361504 20.44072825096205 7.859641848502658 0 0 0
295 1 -0.004664360456030238 -0.0038403771889325778 9.432207674243104 0 0 0
296 1 1.5681124773988915 1.5688187487991365 11.004773499769803 0 0 0
297 1 3.140889315150299 -0.0038403772506808097 9.432207674063292 0 0 0
298 1 4.713666163378498 1.568818769329204 11.004773490819108 0 0 0
299 1 6.286443001417724 22.013387374165873 9.432207666852177 0 -1 0
300 1 7.85921991148632 1.5688189692907386 11.004773426016124 0 0 0
301 1 9.4319966139421 -0.0038402502086242215 9.432207729968658 0 0 0
302 1 11.004773506657065 1.5688192247695003 11.004773457310932 0 0 0
303 1 12.577550387014881 -0.003840250184360035 9.432207730197927 0 0 0
304 1 14.150327082754462 1.5688189888914632 11.004773419875132 0 0 0
305 1 15.723103997611425 22.013387374184973 9.432207666268495 0 -1 0
306 1 17.29588083571013 1.5688187709329071 11.004773489874628 0 0 0
307 1 18.868657684946857 -0.003840377254967715 9.432207674110053 0 0 0
308 1 20.441434522794516 1.568818748727633 11.004773499829657 0 0 0
309 1 -0.004664360450916687 3.141477874525309 9.432207674131803 0 0 0
310 1 1.568112502233284 4.714137013438255 11.004773487180481 0 0 0
311 1 3.140889320818857 3.1414778828942307 9.432207665400753 0 0 0
312 1 4.713666837528411 4.714137631333476 11.004772860609647 0 0 0
313 1 6.286443304819905 3.141478729310098 9.432207401926453 0 0 0
314 1 7.859225795441906 4.714145317245342 11.004767865044064 0 0 0
315 1 9.431997648461033 3.141486596075991 9.432206948628448 0 0 0
316 1 11.00477420321088 4.714170359445833 11.004753136958714 0 0 0
317 1 12.57754940328718 3.141487694487543 9.432206935899186 0 0 0
318 1 14.150320546491148 4.714146985456455 11.004767167851154 0 0 0
319 1 15.723103642644796 3.141478833008147 9.43220737264938 0 0 0
320 1 17.29588010525876 4.714137737732197 11.004772815573642 0 0 0
321 1 18.868657680232957 3.141477879291822 9.432207670587578 0 0 0
322 1 20.44143450050849 4.714137011861415 11.004773489854983 0 0 0
323 1 -0.004664355351410366 6.286796137483817 9.432207666235161 0 0 0
324 1 1.5681125109990313 7.859455184597485 11.004773574651773 0 0 0
325 1 3.1408904245253253 6.286796534025253 9.43220705040921 0 0 0
326 1 4.713670703389307 7.85945726444969 11.004771556548606 0 0 0
327 1 6.286498666239912 6.286845291389382 9.432195386460684 0 0 0
328 1 7.8594715646541395 7.859720805211901 11.004513599550428 0 0 0
329 1 9.432106900834004 6.287397262687677 9.432098421120365 0 0 0
330 1 11.00482920518402 7.860531875908303 11.003701109714761 0 0 0
331 1 12.577436452924728 6.287473536362078 9.432095918433815 0 0 0
332 1 14.149997453664684 7.859785338848251 11.004448788145108 0 0 0
333 1 15.723052402517709 6.286847766074151 9.432193070620235 0 0 0
334 1 17.295870707212522 7.859461848967994 11.004766961893372 0 0 0
335 1 18.868656723523276 6.286796491378031 9.432207366699501 0 0 0
336 1 20.441434272669586 7.859455340877155 11.004773412949476 0 0 0
337 1 22.01421115982509 9.432114301740322 9.43220774903048 -1 0 0
338 1 1.5681135035221019 11.004773493154204 11.004773104099087 0 0 0
339 1 3.14088765963979 9.432105096621763 9.432216993003177 0 0 0
340 1 4.713736030801397 11.004772777399376 11.004714825198828 0 0 0
341 1 6.2870723823146655 9.431787086684272 9.432536127639136 0 0 0
342 1 7.86017817181384 11.00471973687241 11.00387335439255 0 0 0
343 1 9.423988284596607 9.418147186213384 9.440434277125068 0 0 0
344 1 11.004864692992863 11.004664775088932 11.059991127781858 0 0 0
345 1 12.584226398386217 9.425419881387622 9.433163171164807 0 0 0
346 1 14.149245636744817 11.004719831437539 11.003699304505238 0 0 0
347 1 15.72242858989402 9.432226731226505 9.432097189089852 0 0 0
348 1 17.295847807990572 11.00477278156699 11.004753235878756 0 0 0
349 1 18.868647902281985 9.432115293493425 9.432206790701082 0 0 0
350 1 20.441434004277344 11.004773493183306 11.004773412986784 0 0 0
351 1 22.014211159828 12.577432697438686 9.432207748887578 -1 0 0
352 1 1.568112486888023 14.150091821674588 11.00477358163541 0 0 0
353 1 3.1408865362961036 12.577441863254302 9.432217006149582 0 0 0
354 1 4.713668766623312 14.150090436350563 11.004772285966288 0 0 0
355 1 6.286990995636804 12.577762943003949 9.43253836718405 0 0 0
356 1 7.859386132657103 14.14992018682035 11.00459891037432 0 0 0
357 1 9.416753516378721 12.592779218606234 9.447676089115244 0 0 0
358 1 11.004829297446049 14.149103710216323 11.003808332926644 0 0 0
359 1 12.591460165462156 12.585505447517457 9.440402988076418 0 0 0
360 1 14.15007888887527 14.149851744236221 11.004530463734019 0 0 0
361 1 15.72250964943487 12.577323641295157 9.432099116109132 0 0 0
362 1 17.2958726111346 14.150085853179428 11.004767683252707 0 0 0
363 1 18.868649019236848 12.577431661480958 9.432206800372999 0 0 0
364 1 20.441434296401926 14.150091665365784 11.004773419850906 0 0 0
365 1 -0.004664355331207008 15.722750863369084 9.43220766662834 0 0 0
366 1 1.5681125017768442 17.295409987142186 11.004773487615093 0 0 0
367 1 3.1408903668891925 15.722750507263035 9.432207068220348 0 0 0
368 1 4.71366681935915 17.295409392777685 11.004772863816553 0 0 0
369 1 6.286499054968602 15.722697355055349 9.432196701938823 0 0 0
370 1 7.859224804145368 17.295403968305003 11.004768860443392 0 0 0
371 1 9.431854982172041 15.722008194320225 9.432350029876586 0 0 0
372 1 11.004774206205283 17.29534295437512 11.004718187874484 0 0 0
373 1 12.577688867628085 15.721931579732557 9.432347237284219 0 0 0
374 1 14.150321543739661 17.29540228427625 11.004768170929191 0 0 0
375 1 15.72305180545679 15.722694670329165 9.432194391676175 0 0 0
376 1 17.29588012544289 17.29540928832045 11.0047728162918 0 0 0
377 1 18.868656783514968 15.722750554984806 9.432207385998755 0 0 0
378 1 20.441434500971063 17.295409988746588 11.004773490327478 0 0 0
379 1 -0.004664360455155589 18.86806912552055 9.432207674089478 0 0 0
380 1 1.5681124774677713 20.44072825131757 11.004773499721715 0 0 0
381 1 3.1408893244050553 18.868069116523753 9.432207661344323 0 0 0
382 1 4.713666165352435 20.440728228123703 11.004773488196541 0 0 0
383 1 6.286443368776929 18.86806812093476 9.432207113635831 0 0 0
384 1 7.859219808816857 20.440728155699503 11.004773540140702 0 0 0
385 1 9.431989635943756 18.868066996179415 9.432215028723586 0 0 0
386 1 11.004773506684785 20.44072716878564 11.004773071676798 0 0 0
387 1 12.577557411272618 18.868065894643138 9.432215007671447 0 0 0
388 1 14.15032718540103 20.44072813580059 11.004773533907702 0 0 0
389 1 15.723103581153541 18.8680680168604 9.432207085292164 0 0 0
390 1 17.295880833761952 20.440728226527327 11.00477348729718 0 0 0
391 1 18.868657676517937 18.868069119991905 9.432207666309905 0 0 0
392 1 20.441434522722894 20.44072825138628 11.004773499779217 0 0 0
393 1 -0.004664360455368253 -0.0038403771883094543 12.57733932571608 0 0 0
394 1 1.568112477087211 1.5688187484590528 14.149905151288992 0 0 0
395 1 3.1408893146439096 -0.0038403772071636537 12.577339325300004 0 0 0
396 1 4.713666154133817 1.5688187522655246 14.149905148964807 0 0 0
397 1 6.286442991971678 -0.0038403761793459495 12.577339322884482 0 0 0
398 1 7.85921983277834 1.5688187613882791 14.149905146442784 0 0 0
399 1 9.431996671521103 22.01338736963488 12.57733931516643 0 -1 0
400 1 11.004773499541471 1.568818750889898 14.149905166881815 0 0 0
401 1 12.577550328790437 22.01338736956574 12.5773393157482 0 -1 0
402 1 14.150327167917037 1.5688187594790328 14.14990514750666 0 0 0
403 1 15.723104007751925 -0.0038403761851018786 12.57733932262403 0 0 0
404 1 17.295880845651176 1.5688187525569117 14.149905148765454 0 0 0
405 1 18.868657685402987 -0.003840377207192779 12.577339325267596 0 0 0
406 1 20.44143452305353 1.5688187484706348 14.149905151278336 0 0 0
407 1 -0.0046643604489081 3.141477874134113 12.577339325274014 0 0 0
408 1 1.5681124811229805 4.714137001858303 14.149905148648736 0 0 0
409 1 3.1408893278159815 3.1414778870553883 12.577339314241378 0 0 0
410 1 4.713666286743562 4.714137131965558 14.149905019651989 0 0 0
411 1 6.286443129835363 3.1414780829756834 12.57733920784122 0 0 0
412 1 7.859220555328902 4.714137524074056 14.149904670305178 0 0 0
413 1 9.431996969737622 3.141478544985512 12.577339283585273 0 0 0
414 1 11.00477340955006 4.714137830208658 14.149904553319477 0 0 0
415 1 12.577550047456235 3.1414784685377244 12.577339285538859 0 0 0
416 1 14.150326544539224 4.714137454078428 14.14990473986888 0 0 0
417 1 15.72310385395859 3.1414781101898908 12.577339192378599 0 0 0
418 1 17.29588070201945 4.714137143133611 14.14990500860383 0 0 0
419 1 18.868657671377864 3.141477888105828 12.577339313493942 0 0 0
420 1 20.441434518614304 4.714137002064661 14.149905148452385 0 0 0
421 1 -0.004664362856645623 6.286796127179088 12.577339323017457 0 0 0
422 1 1.5681124983536787 7.859455260736189 14.14990514023932 0 0 0
423 1 3.1408895054914465 6.286796245207785 12.577339215773929 0 0 0
424 1 4.713666738411067 7.8594558290520755 14.149904661307263 0 0 0
425 1 6.286449271430096 6.286802507848247 12.577332966055671 0 0 0
426 1 7.859227734855749 7.859462880962965 14.149895023675716 0 0 0
427 1 9.432010154636734 6.286851469926433 12.5772816702747 0 0 0
428 1 11.004774195509098 7.85950878034048 14.149838513261198 0 0 0
429 1 12.577537711439817 6.286840153361518 12.577293012628797 0 0 0
430 1 14.15031863775707 7.859463550747451 14.149893392178278 0 0 0
431 1 15.723096659743193 6.286803410379478 12.577332063310399 0 0 0
432 1 17.295880212197932 7.85945587222991 14.1499045625083 0 0 0
433 1 18.868657433523797 6.286796283314477 12.577339177432854 0 0 0
434 1 20.441434505274138 7.859455257979883 14.149905142435635 0 0 0
435 1 -0.004664352122744545 9.432114382831418 12.57733931345573 0 0 0
436 1 1.5681124649325597 11.00477350029484 14.14990518391327 0 0 0
437 1 3.140890270744705 9.432114974794226 12.577339026315764 0 0 0