LAMMPS data file via write_data, version 2 Aug 2023, timestep = 120, units = metal

693 atoms
3 atom types

-0.009198939424348579 22.01874593628013 xlo xhi
-0.008783854601734668 22.0183308514575 ylo yhi
-0.010892487891873453 22.02043948474765 zlo zhi

Masses

1 183.84
2 1.008
3 4.0026

Atoms # atomic

1 1 -0.009198936482562635 -0.008783851658675084 -0.010892484957489 0 0 0
2 1 1.5642256973826383 1.5645814844127768 1.5627740843744737 0 0 0
3 1 3.137650331217377 -0.008783851779180308 -0.01089248496496171 0 0 0
4 1 4.711074960706754 1.5645814789481187 1.5627740802959251 0 0 0
5 1 6.284499598845621 -0.008783851371252297 -0.010892484850443347 0 0 0
6 1 7.857924241849204 1.5645814994929206 1.5627740967437227 0 0 0
7 1 9.431348866208202 -0.0087838527263323 -0.010892485579098232 0 0 0
8 1 11.004773492045672 1.564581495240652 1.5627740931567657 0 0 0
9 1 12.57819813373498 -0.008783851792922962 -0.010892484365753623 0 0 0
10 1 14.15162277123879 1.5645814839817314 1.5627740814692312 0 0 0
11 1 15.725047401317273 -0.008783851578029824 -0.010892485095313278 0 0 0
12 1 17.29847203334188 1.5645814878860438 1.5627740861015544 0 0 0
13 1 18.871896668740426 -0.008783851691594293 -0.010892484856738438 0 0 0
14 1 20.445321302870386 1.5645814842912549 1.5627740844188391 0 0 0
15 1 -0.009198936578188972 3.137946820416206 -0.010892484921068703 0 0 0
16 1 1.564225695505779 4.711312155664958 1.562774083776363 0 0 0
17 1 3.137650329894433 3.1379468190435187 -0.010892486319054874 0 0 0
18 1 4.711074861897911 4.71131205346291 1.5627739774483957 0 0 0
19 1 6.284499599628263 3.1379468237895107 -0.010892485187559671 0 0 0
20 1 7.857924271874921 4.711312561870279 1.5627742540600333 0 0 0
21 1 9.431348865827651 3.1379468147940526 -0.010892485357326055 0 0 0
22 1 11.004773661989422 4.7113121564805525 1.5627738370750197 0 0 0
23 1 12.578198136417399 3.137946811839197 22.02043947589101 0 0 -1
24 1 14.151622753767063 4.711312126707108 1.5627740271651738 0 0 0
25 1 15.72504740106565 3.13794681891605 -0.010892487339194255 0 0 0
26 1 17.2984718603634 4.711312333509028 1.562774263348888 0 0 0
27 1 18.871896666512527 3.1379468227100906 -0.010892482559676482 0 0 0
28 1 20.445321297842035 4.711312159316612 1.5627740875924072 0 0 0
29 1 -0.009198936687498306 6.284677492407969 -0.010892484783341027 0 0 0
30 1 1.5642257007584894 7.858042832274236 1.562774086771386 0 0 0
31 1 3.1376503333931884 6.284677494148061 -0.010892483335935198 0 0 0
32 1 4.711075302826052 7.858042931865415 1.5627743811530255 0 0 0
33 1 6.284499615356784 6.284677508371541 22.02043941577234 0 0 -1
34 1 7.857926350982832 7.858044839138442 1.5627712649348513 0 0 0
35 1 9.431348929036172 6.284677299601954 22.020439223045017 0 0 -1
36 1 11.004774920710776 7.858053936291608 1.5627810705502923 0 0 0
37 1 12.578198185948413 6.28467738542742 22.020439452015196 0 0 -1
38 1 14.151619260350076 7.858045884168498 1.5627848158540898 0 0 0
39 1 15.725047274988084 6.284677615139272 -0.010892227598841628 0 0 0
40 1 17.298471787202367 7.858043120635607 1.5627743536874923 0 0 0
41 1 18.871896662259612 6.284677497343583 -0.010892477953211806 0 0 0
42 1 20.445321288194403 7.858042834608886 1.5627740928172242 0 0 0
43 1 -0.009198936700736727 9.431408164069877 -0.010892484695978087 0 0 0
44 1 1.564225687413691 11.00477350137063 1.5627740726134185 0 0 0
45 1 3.1376503291547038 9.431408166482235 -0.010892484324087915 0 0 0
46 1 4.711074983988991 11.004773586196546 1.5627742951594048 0 0 0
47 1 6.2844994823028255 9.431408189346678 22.020439396341988 0 0 -1
48 1 7.857927851539346 11.004773633145737 1.5627797856052574 0 0 0
49 1 9.431347105871135 9.431406539639125 22.020438624898386 0 0 -1
50 1 11.004772749288314 11.004790944306855 1.562511190359706 0 0 0
51 1 12.578200094765933 9.431406638695162 -0.01089154217728318 0 0 0
52 1 14.151619795303386 11.004770287486819 1.5627927412448577 0 0 0
53 1 15.725047326953788 9.431408170797173 -0.01089206965568057 0 0 0
54 1 17.2984727615033 11.004773505469533 1.5627736016585356 0 0 0
55 1 18.871896670599327 9.43140816098689 -0.010892483079724995 0 0 0
56 1 20.445321303569184 11.00477349966097 1.5627740810579607 0 0 0
57 1 -0.009198936569621008 12.578138835968248 -0.010892484643591289 0 0 0
58 1 1.564225702746057 14.15150416892867 1.5627740886898114 0 0 0
59 1 3.1376503272414116 12.57813883469818 -0.010892485240317076 0 0 0
60 1 4.711074964824724 14.15150410844568 1.5627741531201655 0 0 0
61 1 6.28449955751559 12.57813881382518 -0.010892432382099453 0 0 0
62 1 7.857922957732225 14.151505402044286 1.5627715544786476 0 0 0
63 1 9.431346836788762 12.578140844064475 22.0204360889266 0 0 -1
64 1 11.00477147505968 14.151508351996972 1.5627643342501072 0 0 0
65 1 12.57820033058882 12.578140780153733 22.020432657911456 0 0 -1
66 1 14.15162624143397 14.151507801690663 1.5627712293564007 0 0 0
67 1 15.72504726717901 12.578138710374562 -0.01089196337161341 0 0 0
68 1 17.298471722611133 14.151503741732983 1.5627744589745471 0 0 0
69 1 18.87189667961165 12.578138838051778 22.02043948131073 0 0 -1
70 1 20.445321288283974 14.151504164424226 1.5627740929918463 0 0 0
71 1 -0.009198936613071406 15.724869507584051 -0.010892484753667265 0 0 0
72 1 1.564225699954679 17.29823484179958 1.5627740864002793 0 0 0
73 1 3.1376503325231475 15.724869506645192 -0.010892482307792937 0 0 0
74 1 4.711075017915272 17.298234788972813 1.5627741419681456 0 0 0
75 1 6.284499583164542 15.724869524883207 -0.010892458102348766 0 0 0
76 1 7.857924081485733 17.29823509490325 1.5627739832122902 0 0 0
77 1 9.431348734882592 15.724869638145362 22.020439269511044 0 0 -1
78 1 11.0047736485301 17.298233499213655 1.5627758678570582 0 0 0
79 1 12.578198258173291 15.724869497243409 -0.010892453998812513 0 0 0
80 1 14.151622825433101 17.298235125662877 1.5627740380160473 0 0 0
81 1 15.725047427433337 15.724869542134874 -0.010892439906333132 0 0 0
82 1 17.298471925425844 17.29823472936021 1.5627741910441464 0 0 0
83 1 18.871896663147812 15.724869502435409 -0.010892478264344833 0 0 0
84 1 20.44532130001689 17.298234842259767 1.5627740861406365 0 0 0
85 1 -0.009198936490777049 18.87160017962351 -0.010892484898312765 0 0 0
86 1 1.5642256974379556 20.44496551573368 1.5627740844754858 0 0 0
87 1 3.137650332083529 18.871600178805984 -0.010892484091684848 0 0 0
88 1 4.71107496834411 20.444965511510905 1.5627740876448342 0 0 0
89 1 6.284499596838118 18.871600182600247 -0.010892485541947628 0 0 0
90 1 7.8579242329674805 20.444965519941725 1.5627740835690487 0 0 0
91 1 9.43134887888055 18.871600173127284 -0.010892472157647728 0 0 0
92 1 11.004773500623687 20.444965533449643 1.5627740613752947 0 0 0
93 1 12.578198122881721 18.87160018698362 -0.010892486366142998 0 0 0
94 1 14.15162276799544 20.44496552108641 1.5627740812520308 0 0 0
95 1 15.725047402229444 18.8716001826769 -0.010892484467356401 0 0 0
96 1 17.298472029933073 20.444965509233466 1.5627740894459057 0 0 0
97 1 18.871896667150224 18.871600177922765 -0.010892483309079352 0 0 0
98 1 20.4453213028242 20.444965515859373 1.562774084399382 0 0 0
99 1 -0.009198936494638703 -0.00878385165894458 3.1364406537590126 0 0 0
100 1 1.5642256977797162 1.5645814846670487 4.710107223369157 0 0 0
101 1 3.1376503313513804 -0.008783851252130468 3.1364406538327785 0 0 0
102 1 4.711074982189997 1.5645814989615856 4.710107225925294 0 0 0
103 1 6.284499596339996 22.01833084183748 3.1364406517648233 0 -1 0
104 1 7.857924075201641 1.5645810853210065 4.710107068895578 0 0 0
105 1 9.431348869758084 -0.008783851964937585 3.1364406593060568 0 0 0
106 1 11.004773618278687 1.5645814350495293 4.710107293186044 0 0 0
107 1 12.578198135584977 22.018330844831254 3.1364406563811125 0 -1 0
108 1 14.151622802569234 1.5645815074784464 4.710107184307876 0 0 0
109 1 15.725047397946184 22.018330849188366 3.13644065693832 0 -1 0
110 1 17.29847203607903 1.5645814874177209 4.710107222705988 0 0 0
111 1 18.871896669257527 -0.008783851337703161 3.1364406536462632 0 0 0
112 1 20.445321302556533 1.5645814846079797 4.710107222939438 0 0 0
113 1 -0.009198936463115226 3.137946820182252 3.136440653668712 0 0 0
114 1 1.5642256879003018 4.711312151992561 4.7101072183523796 0 0 0
115 1 3.137650328550496 3.1379468208814805 3.1364406486435272 0 0 0
116 1 4.7110748064736425 4.711312192254971 4.710106724205012 0 0 0
117 1 6.284499304113124 3.137946459798522 3.1364403731305868 0 0 0
118 1 7.857908169345326 4.711292346429874 4.710092009189006 0 0 0
119 1 9.431348892879457 3.1379480893952065 3.136441857375367 0 0 0
120 1 11.004781169747352 4.711311607036964 4.710100952048501 0 0 0
121 1 12.578198348001788 3.1379467106145813 3.1364404066049696 0 0 0
122 1 14.151622322183382 4.711315263557829 4.710108180052649 0 0 0
123 1 15.725047360252814 3.1379469963535582 3.136440697642376 0 0 0
124 1 17.29847213644131 4.711312110245834 4.710107497849471 0 0 0
125 1 18.871896675777677 3.1379468146399274 3.136440655462114 0 0 0
126 1 20.445321302474934 4.71131215402062 4.710107226458673 0 0 0
127 1 22.018745933329487 6.284677492239974 3.136440654195938 -1 0 0
128 1 1.564225572607047 7.858042754105766 4.710107160359135 0 0 0
129 1 3.1376502288333796 6.2846774731072825 3.1364406390391397 0 0 0
130 1 4.711070720720844 7.858042261589019 4.710107885824404 0 0 0
131 1 6.284493255001572 6.284670474160864 3.136434073941247 0 0 0
132 1 7.857526034929718 7.857667872786507 4.709736153387677 0 0 0
133 1 9.431353454055293 6.284688477764152 3.136443399422826 0 0 0
134 1 11.005003377249949 7.858495390104033 4.709918747127123 0 0 0
135 1 12.578201233700383 6.2846901908065185 3.1364494213607776 0 0 0
136 1 14.151026969136412 7.858318894895344 4.710770674302691 0 0 0
137 1 15.725037509846118 6.284687644506271 3.1364507574987996 0 0 0
138 1 17.298460976385307 7.858047327655434 4.710112331001992 0 0 0
139 1 18.871896398233634 6.284677635268803 3.1364408125246404 0 0 0
140 1 20.445321144292258 7.8580428195001355 4.710107232868518 0 0 0
141 1 22.0187459317554 9.431408167184445 3.1364406594811323 -1 0 0
142 1 1.5642259104013543 11.00477354216929 4.7101072489813305 0 0 0
143 1 3.137650542907023 9.431408459373374 3.136440820549137 0 0 0
144 1 4.711104383139278 11.004777031148333 4.7101363537559555 0 0 0
145 1 6.284510626970892 9.431414062558893 3.1364504248321947 0 0 0
146 1 7.857957404795061 11.004983370254646 4.710302391520231 0 0 0
147 1 9.431396494807494 9.431579951788425 3.1365441061516814 0 0 0
148 1 11.005047334292213 10.999887210514881 4.692860913150189 0 0 0
149 1 12.5781843737868 9.431586306180117 3.1366773994559027 0 0 0
150 1 14.150559473163574 11.004221936676622 4.711473373295254 0 0 0
151 1 15.725018380973772 9.43141487519798 3.1364701626867375 0 0 0
152 1 17.298430925179975 11.004771788143795 4.710136697624615 0 0 0
153 1 18.871896063779396 9.431408419973664 3.1364409535637003 0 0 0
154 1 20.445320901505326 11.004773475977387 4.710107249145243 0 0 0
155 1 22.018745933856703 12.578138833431225 3.136440659726526 -1 0 0
156 1 1.5642257583877046 14.151504207893634 4.7101072054344355 0 0 0
157 1 3.137650506229776 12.578138654252363 3.1364407568718016 0 0 0
158 1 4.711079972539597 14.151501199041778 4.7101101745821 0 0 0
159 1 6.284513598377789 12.578139133193137 3.136454983536004 0 0 0
160 1 7.858133298384929 14.151442406771595 4.710045153462672 0 0 0
161 1 9.431345823693066 12.578253239789246 3.1363505457152243 0 0 0
162 1 11.004742216281766 14.152837564138844 4.709675490058151 0 0 0
163 1 12.578222825558928 12.578251041489905 3.136045019474799 0 0 0
164 1 14.151444212274646 14.15135205775428 4.710229570399566 0 0 0
165 1 15.725004835174524 12.578120792432253 3.136484517100345 0 0 0
166 1 17.298469053818202 14.151502591669459 4.7101091912288675 0 0 0
167 1 18.87189603073805 12.578138502128727 3.136440958305578 0 0 0
168 1 20.445321264030312 14.151504205619872 4.710107207134702 0 0 0
169 1 -0.009198936030744653 15.724869507195242 3.1364406548155106 0 0 0
170 1 1.5642257018515027 17.29823484327366 4.710107227663674 0 0 0
171 1 3.137650458716768 15.724869416289252 3.1364407567419748 0 0 0
172 1 4.711075116511625 17.298234788707006 4.710107568941384 0 0 0
173 1 6.284501611471256 15.724867408935959 3.136442976688554 0 0 0
174 1 7.857935160054296 17.298224164618546 4.710117125634077 0 0 0
175 1 9.431337978599329 15.724871746329367 3.1364398035753336 0 0 0
176 1 11.004777567945792 17.298211315629235 4.710149227265665 0 0 0
177 1 12.578211318676882 15.72485649027837 3.1364573438026007 0 0 0
178 1 14.151607039223494 17.298217864403906 4.710122821030068 0 0 0
179 1 15.725042937892706 15.724864758990602 3.1364451211261186 0 0 0
180 1 17.298472280760745 17.29823526500701 4.71010719126935 0 0 0
181 1 18.871896551452057 15.724869466821605 3.136440724775181 0 0 0
182 1 20.445321303604636 17.298234844584748 4.710107223562656 0 0 0
183 1 -0.00919893640725132 18.87160017980652 3.1364406537759755 0 0 0
184 1 1.5642256975415298 20.44496551555928 4.710107223004459 0 0 0
185 1 3.1376503344829114 18.87160017760642 3.136440657346498 0 0 0
186 1 4.711074959475572 20.444965519113204 4.710107227181871 0 0 0
187 1 6.2844998081937655 18.871599942046345 3.136440855820266 0 0 0
188 1 7.8579242572251715 20.444965332815073 4.710107259976098 0 0 0
189 1 9.431349071177278 18.871600268269827 3.136440717850445 0 0 0
190 1 11.004773543963864 20.44496511658701 4.710107476332574 0 0 0
191 1 12.578198009733976 18.871600433877667 3.136440472942566 0 0 0
192 1 14.15162268976279 20.444965205018065 4.710107306615734 0 0 0
193 1 15.725047100070414 18.871599805051797 3.1364409589662463 0 0 0
194 1 17.298472049309265 20.44496553299139 4.710107222234784 0 0 0
195 1 18.871896673067855 18.871600186495904 3.136440651772508 0 0 0
196 1 20.445321301980254 20.444965514960806 4.710107223228586 0 0 0
197 1 -0.009198936531218659 -0.008783851686457499 6.283773792211168 0 0 0
198 1 1.5642256954504496 1.5645814819952049 7.8574403614696235 0 0 0
199 1 3.1376503304637517 -0.008783852377857794 6.283773792342759 0 0 0
200 1 4.7110750046398495 1.5645815351251309 7.85744036164992 0 0 0
201 1 6.284499607542577 22.018330846317294 6.283773794121438 0 -1 0
202 1 7.8579243298046135 1.5645810735617098 7.857440359764145 0 0 0
203 1 9.431348800881151 22.018330520661497 6.283773733662784 0 -1 0
204 1 11.004773712247053 1.5645752647821725 7.857440358214206 0 0 0
205 1 12.578198197687003 22.018330647075786 6.283773729501082 0 -1 0
206 1 14.151622429261653 1.564582000987741 7.8574403597019185 0 0 0
207 1 15.725047395069852 -0.008783849591898096 6.2837737972118735 0 0 0
208 1 17.29847204803715 1.5645814787678936 7.857440361666894 0 0 0
209 1 18.871896668076744 -0.008783852098057788 6.283773792184253 0 0 0
210 1 20.445321302495348 1.5645814844560082 7.85744036147387 0 0 0
211 1 -0.009198935618447646 3.137946820636036 6.283773791830093 0 0 0
212 1 1.564225666518439 4.71131212028429 7.8574403614770185 0 0 0
213 1 3.1376503771899302 3.1379468634754084 6.283773805237354 0 0 0
214 1 4.71107633011996 4.711313962663617 7.857440389796132 0 0 0
215 1 6.284500466255929 3.137947371641 6.283773509252817 0 0 0
216 1 7.8579091666315 4.7112806893992785 7.8574401687799265 0 0 0
217 1 9.431345218915514 3.1379292586502134 6.283770023760577 0 0 0
218 1 11.0047823327869 4.710796463255996 7.8574394751187535 0 0 0
219 1 12.57820134465393 3.1379444103638323 6.283770062705751 0 0 0
220 1 14.151613465599699 4.711335757332735 7.85744015395668 0 0 0
221 1 15.725047609319923 3.1379469308959465 6.283773874145247 0 0 0
222 1 17.29847234880029 4.711312126975253 7.85744038850198 0 0 0
223 1 18.87189669631049 3.1379467970913684 6.28377379594541 0 0 0
224 1 20.445321354451245 4.711312100789533 7.85744036152635 0 0 0
225 1 22.018745926657278 6.284677498966272 6.283773794496312 -1 0 0
226 1 1.5642256342063434 7.858042989426902 7.857440359967058 0 0 0
227 1 3.137649675252595 6.284677266113805 6.283773817697526 0 0 0
228 1 4.711072550958712 7.858071079970285 7.85744034283107 0 0 0
229 1 6.284469303386966 6.284654028760632 6.283750464812506 0 0 0
230 1 7.855848358325808 7.857011536669727 7.857429488242057 0 0 0
231 1 9.430726929687356 6.283588459179196 6.28313538651182 0 0 0
232 1 11.008660402149467 7.827823043070554 7.857098267538403 0 0 0
233 1 12.578065098406224 6.28480633048411 6.2836122025213825 0 0 0
234 1 14.150625622012205 7.8592432713460765 7.857427531698865 0 0 0
235 1 15.725022096480961 6.284702952662581 6.283785966739133 0 0 0
236 1 17.298423424653745 7.858080853308876 7.857440294601075 0 0 0
237 1 18.87189640120031 6.284677479422256 6.283774142843303 0 0 0
238 1 20.445320756176447 7.858042955382515 7.857440358043232 0 0 0
239 1 22.018745819889194 9.431408123553545 6.283773749236326 -1 0 0
240 1 1.5642203068477065 11.004773611276603 7.857440415855777 0 0 0
241 1 3.137644007082231 9.431405010388644 6.283770261811611 0 0 0
242 1 4.7106093138990754 11.004781056366145 7.857444585199783 0 0 0
243 1 6.284350760813567 9.43149130253896 6.283712121087657 0 0 0
244 1 7.813754247282668 11.006203614410556 7.857783752096282 0 0 0
245 1 9.421884693005703 9.422850764953614 6.262425269982524 0 0 0
246 1 20.44532130271177 20.44496551571663 20.44677291573135 0 0 0
247 1 12.586234264092756 9.425243093523928 6.275805252346241 0 0 0
248 1 14.184815853992523 10.993300688329573 7.857678249368157 0 0 0
249 1 15.724668909489003 9.431559657965737 6.283869286328368 0 0 0
250 1 17.298720751650805 11.004770150664264 7.857444516800415 0 0 0
251 1 18.871894815396384 9.431406285076767 6.28377185684592 0 0 0
252 1 20.445324105170677 11.004773511925755 7.857440414784728 0 0 0
253 1 -0.009198938918957183 12.578138879574361 6.283773750085754 0 0 0
254 1 1.5642264224940652 14.151503878074125 7.857440418595996 0 0 0
255 1 3.137649033186083 12.578142109184775 6.283770505635068 0 0 0
256 1 4.711123482277787 14.151466632493268 7.857444583487173 0 0 0
257 1 6.2847131396604246 12.578079562893393 6.283845451755105 0 0 0
258 1 7.858906643451064 14.15068632878417 7.857693439350954 0 0 0
259 1 9.413164675559845 12.592085952072058 6.270758492452312 0 0 0
260 1 11.003731940330045 14.194324281607757 7.859300944599757 0 0 0
261 1 12.596384128802477 12.600186688628883 6.2495637651701035 0 0 0
262 1 14.151967617413279 14.152662389641549 7.857688876658101 0 0 0
263 1 15.724962068685992 12.578084834165137 6.283887311401884 0 0 0
264 1 17.29845220351218 14.151480828643182 7.857444665532579 0 0 0
265 1 18.87189818294676 12.578140795162517 6.283771826235654 0 0 0
266 1 20.445321032442436 14.151504047011644 7.8574404190402065 0 0 0
267 1 -0.00919892912401229 15.724869497733653 6.283773798273354 0 0 0
268 1 1.564225655418574 17.29823489703189 7.857440362808776 0 0 0
269 1 3.1376506853333566 15.724869482140054 6.2837742012048805 0 0 0
270 1 4.711075471396378 17.29823442935074 7.857440629640218 0 0 0
271 1 6.284532788536284 15.724839449103388 6.2837852267490275 0 0 0
272 1 7.857968968967339 17.298181892478762 7.857438779824558 0 0 0
273 1 9.431714838677488 15.723965924982815 6.283895421235265 0 0 0
274 1 11.004776498753811 17.298633054720852 7.857444359926565 0 0 0
275 1 12.577793688305755 15.72352331989079 6.2841079942031115 0 0 0
276 1 14.15157638353588 17.29820376542283 7.857438837296261 0 0 0
277 1 15.725032559687712 15.724857070264635 6.283762928865733 0 0 0
278 1 17.298469595187537 17.298232605792265 7.857440637132862 0 0 0
279 1 18.871896666916868 15.724869536586938 6.283773966448807 0 0 0
280 1 20.445321313260404 17.298234874843303 7.857440362189073 0 0 0
281 1 -0.009198936874361503 18.871600179570923 6.283773792014784 0 0 0
282 1 1.5642256967136294 20.444965516280114 7.857440361277891 0 0 0
283 1 3.1376503099851956 18.87160020210972 6.283773803364194 0 0 0
284 1 4.711074907011167 20.444965564259782 7.857440363124738 0 0 0
285 1 6.28449952510773 18.8715999837439 6.283774197082116 0 0 0
286 1 7.857924527541386 20.444964715754434 7.857440361366439 0 0 0
287 1 9.43134552871992 18.871593844082984 6.2837709881419075 0 0 0
288 1 11.004773596847159 20.44496974361611 7.857440356232242 0 0 0
289 1 12.578201201772018 18.87158839558939 6.283770920176322 0 0 0
290 1 14.151622379434617 20.444964905896587 7.8574403613514745 0 0 0
291 1 15.725047656706257 18.871600463180904 6.283773985687577 0 0 0
292 1 17.298472085545892 20.444965549264275 7.857440363224127 0 0 0
293 1 18.871896663715734 18.871600177049395 6.283773817858981 0 0 0
294 1 20.445321305970857 20.44496551883455 7.857440361265706 0 0 0
295 1 -0.009198936532184463 -0.008783851764849616 9.431106930785807 0 0 0
296 1 1.5642256977275117 1.564581484632696 11.004773499672837 0 0 0
297 1 3.137650330314184 -0.008783852072162781 9.431106930738071 0 0 0
298 1 4.711074982404002 1.5645814993238232 11.004773496885516 0 0 0
299 1 6.284499607769035 22.018330843987048 9.431106928630609 0 -1 0
300 1 7.857924075315513 1.5645810833601792 11.004773655160177 0 0 0
301 1 9.431348803573082 22.018330518817265 9.43110699140513 0 -1 0
302 1 11.00477361831541 1.564581370434809 11.00477343383834 0 0 0
303 1 12.578198194989143 22.018330645013936 9.431106995577686 0 -1 0
304 1 14.15162280236396 1.5645815043755582 11.00477353970736 0 0 0
305 1 15.725047394802043 -0.008783852086754985 9.431106925549331 0 0 0
306 1 17.298472035933372 1.5645814876407904 11.004773500036508 0 0 0
307 1 18.871896668245114 -0.008783851766440285 9.431106930895245 0 0 0
308 1 20.4453213026096 1.5645814845736938 11.004773500099478 0 0 0
309 1 -0.009198935606813433 3.1379468206719623 9.431106931180596 0 0 0
310 1 1.5642256885246653 4.711312152354129 11.004773504630435 0 0 0
311 1 3.13765037120562 3.137946857357663 9.431106918096116 0 0 0
312 1 4.711074841087694 4.711312228655432 11.004773969602597 0 0 0
313 1 6.284500465833816 3.1379473913077027 9.4311072093981 0 0 0
314 1 7.857908172899488 4.711292013971508 11.004788834278319 0 0 0
315 1 9.431345214692307 3.137928937972574 9.43111066659609 0 0 0
316 1 11.004781155800993 4.711306975013806 11.004780653195034 0 0 0
317 1 12.578201346548036 3.1379441197086893 9.431110617057636 0 0 0
318 1 14.151622198417598 4.711314963784908 11.004772691185611 0 0 0
319 1 15.7250476034233 3.1379469569030443 9.431106844168706 0 0 0
320 1 17.29847210971798 4.711312136554828 11.004773192696208 0 0 0
321 1 18.87189670164798 3.1379467916426345 9.431106927329942 0 0 0
322 1 20.44532130168962 4.711312154563523 11.004773496385148 0 0 0
323 1 22.01874592648055 6.284677499908193 9.431106928395605 -1 0 0
324 1 1.5642255630918898 7.858042746151915 11.004773566262479 0 0 0
325 1 3.137649675792102 6.28467724899983 9.43110690346146 0 0 0
326 1 4.711070084420968 7.858042018487557 11.004772950381307 0 0 0
327 1 6.284473056847299 6.28465795020226 9.431130151866897 0 0 0
328 1 7.857498735949785 7.8576405247831556 11.005182172376315 0 0 0
329 1 9.43073162576801 6.283563411231831 9.431742201041798 0 0 0
330 1 11.005007560419237 7.858155551006127 11.005324047966962 0 0 0
331 1 12.578060946187154 6.28478217991984 9.43126614445797 0 0 0
332 1 14.151079788161473 7.858282785096456 11.004174490093591 0 0 0
333 1 15.725018457717848 6.284706772898455 9.431094530514244 0 0 0
334 1 17.29846193877148 7.85804706326329 11.004768679316312 0 0 0
335 1 18.871896391197364 6.284677471027833 9.431106575130846 0 0 0
336 1 20.445321161176178 7.858042809772484 11.004773495524692 0 0 0
337 1 22.01874582267161 9.431408117199616 9.43110697663979 -1 0 0
338 1 1.5642260704933286 11.004773599942336 11.004773422480362 0 0 0
339 1 3.1376434589420694 9.431404752464667 9.431110563921333 0 0 0
340 1 4.711112946353354 11.004781774303279 11.004740268606447 0 0 0
341 1 6.284325630611958 9.43151027505474 9.431174915804549 0 0 0
342 1 7.858364166010278 11.005389674960133 11.004359623343916 0 0 0
343 1 9.417827935211562 9.419970989248675 9.452857233439923 0 0 0
344 1 11.005022091393855 11.00556583611432 11.039532865264809 0 0 0
345 1 12.589874127522878 9.422710406205498 9.439101634483784 0 0 0
346 1 14.1501909960263 11.004650740192272 11.003235165627379 0 0 0
347 1 15.724708248903413 9.431578733584418 9.4310262974855 0 0 0
348 1 17.298422763700533 11.004776745140132 11.004740130539178 0 0 0
349 1 18.871895604496004 9.431405961642575 9.431108968758318 0 0 0
350 1 20.445320749190238 11.004773535622673 11.004773424205734 0 0 0
351 1 22.018745936049495 12.578138878228048 9.431106975033831 -1 0 0
352 1 1.5642258404874265 14.151504154376655 11.004773464859582 0 0 0
353 1 3.13765636821889 12.578142055634629 9.431110286534594 0 0 0
354 1 4.711082220019216 14.151497355037991 11.004766701575416 0 0 0
355 1 6.285327193607745 12.578105387662434 9.431061028567319 0 0 0
356 1 7.858042317957477 14.151393445007438 11.004655504381077 0 0 0
357 1 9.417233059876274 12.59339179614992 9.44619876148261 0 0 0
358 1 11.004746013241949 14.150369753418824 11.003533442115737 0 0 0
359 1 12.592245842845983 12.60099405041907 9.466554317915035 0 0 0
360 1 14.151518412232384 14.151287967582093 11.00445831187558 0 0 0
361 1 15.724340302587741 12.578108342172351 9.431018940936656 0 0 0
362 1 17.29846641695434 14.151498665722674 11.00476748793138 0 0 0
363 1 18.87189079311957 12.578140744528648 9.431108932784186 0 0 0
364 1 20.445321177874813 14.151504151272162 11.004773462570961 0 0 0
365 1 -0.009198928587463845 15.72486950505118 9.431106926763238 0 0 0
366 1 1.5642257027676225 17.298234845052253 11.004773494680194 0 0 0
367 1 3.137650688383211 15.724869659146686 9.431106574158983 0 0 0
368 1 4.711075349408443 17.298234474779914 11.004772909458309 0 0 0
369 1 6.284550600638122 15.72481901277215 9.431097139957691 0 0 0
370 1 7.857931366891703 17.2982276944776 11.004766080279524 0 0 0
371 1 9.431439670404789 15.723999696809859 9.431043883854612 0 0 0
372 1 11.004777613170226 17.298176556558772 11.00472636882517 0 0 0
373 1 12.578069135322721 15.723550970577223 9.430833073245129 0 0 0
374 1 14.151610860043935 17.298220813436505 11.004759902511134 0 0 0
375 1 15.725014041535227 15.724835912675374 9.431119559435903 0 0 0
376 1 17.29847205784512 17.298234959396023 11.004773282129833 0 0 0
377 1 18.87189674458325 15.724869800822333 9.431106811354379 0 0 0
378 1 20.445321303500545 17.298234847157282 11.004773499445662 0 0 0
379 1 -0.009198936966017856 18.87160017926369 9.431106931053806 0 0 0
380 1 1.5642256970296855 20.44496551609806 11.004773500282969 0 0 0
381 1 3.1376502732700744 18.871600238753636 9.431106924451415 0 0 0
382 1 4.711074965220297 20.444965509401307 11.004773493398735 0 0 0
383 1 6.284499539024331 18.871599746532976 9.43110648047576 0 0 0
384 1 7.857924239927582 20.444965378322387 11.004773472929829 0 0 0
385 1 9.431345518138187 18.871594210219524 9.431110018591239 0 0 0
386 1 11.004773544054816 20.444964688713686 11.004773254389391 0 0 0
387 1 12.578201273984012 18.871588754650976 9.431110087701756 0 0 0
388 1 14.15162270724554 20.44496524637428 11.004773426338517 0 0 0
389 1 15.725047597213198 18.87160017334452 9.431106692717943 0 0 0
390 1 17.298472043703875 20.4449655234067 11.004773498284289 0 0 0
391 1 18.871896702029368 18.871600215919493 9.431106909990687 0 0 0
392 1 20.44532130249123 20.44496551550729 11.004773500070906 0 0 0
393 1 -0.009198936494219092 -0.008783851646302574 12.578440069249378 0 0 0
394 1 1.5642256973923538 1.5645814844174446 14.152106638552237 0 0 0
395 1 3.1376503314990285 -0.008783851454342063 12.578440069080111 0 0 0
396 1 4.711074960698388 1.564581478962794 14.152106642678763 0 0 0
397 1 6.284499595581423 22.01833084320906 12.578440071676773 0 -1 0
398 1 7.857924240821387 1.5645814978829493 14.152106626916598 0 0 0
399 1 9.431348871844175 22.01833084060707 12.578440061668358 0 -1 0
400 1 11.00477349201752 1.564581499328316 14.152106629298398 0 0 0
401 1 12.578198133496679 22.01833083082967 12.578440064574453 0 -1 0
402 1 14.151622772246862 1.5645814821111195 14.152106642256483 0 0 0
403 1 15.725047398709403 22.01833085042748 12.578440066498741 0 -1 0
404 1 17.29847203339654 1.5645814877649733 14.15210663692694 0 0 0
405 1 18.871896669110296 -0.008783851531984068 12.578440069267216 0 0 0
406 1 20.44532130285209 1.564581484303745 14.152106638505666 0 0 0
407 1 -0.009198936471760002 3.137946820207608 12.578440069321752 0 0 0
408 1 1.5642256953013045 4.711312155515813 14.152106639223986 0 0 0
409 1 3.137650329253742 3.1379468215765796 12.57844007401421 0 0 0
410 1 4.711074853821482 4.711312047632658 14.152106749894584 0 0 0
411 1 6.284499304640693 3.137946456576026 12.57844035348557 0 0 0
412 1 7.857924195520926 4.711312550765476 14.152106506126554 0 0 0
413 1 9.431348854460653 3.1379480034656058 12.578438903540802 0 0 0
414 1 11.004773660533376 4.711312752136753 14.152106484573778 0 0 0
415 1 12.578198385145027 3.1379466224981445 12.5784403556347 0 0 0
416 1 14.151622827340603 4.71131208174533 14.152106769414242 0 0 0
417 1 15.72504736037193 3.137946986463345 12.578440029473201 0 0 0
418 1 17.298471876639393 4.711312319346746 14.152106471946263 0 0 0
419 1 18.871896674638887 3.1379468157288777 12.578440067172712 0 0 0
420 1 20.445321298240884 4.711312159062134 14.152106635506609 0 0 0
421 1 22.018745933483572 6.284677491910083 12.578440068979221 -1 0 0
422 1 1.5642257040496534 7.8580428338671355 14.152106634208792 0 0 0
423 1 3.1376502135526216 6.284677463815496 12.578440087380795 0 0 0
424 1 4.711075473681686 7.858043053152685 14.152106185856553 0 0 0
425 1 6.284492676747922 6.2846700424852955 12.578447084622722 0 0 0
426 1 7.857928984032054 7.858047559894962 14.152107275991913 0 0 0
427 1 9.431349106662358 6.2846857343671 12.578440051500273 0 0 0
428 1 11.004775086608428 7.858074214602112 14.152083213571544 0 0 0
429 1 12.578205475828574 6.284687316429695 12.578434151198456 0 0 0
430 1 14.151616333506045 7.858048749437961 14.152093807948454 0 0 0
431 1 15.725038532896216 6.284686749914852 12.578430834180713 0 0 0
432 1 17.298471615363564 7.85804323539918 14.152106217311381 0 0 0
433 1 18.871896423281893 6.28467762191158 12.578439918235894 0 0 0
434 1 20.44532128493763 7.858042836348468 14.152106628358732 0 0 0
435 1 22.01874593207184 9.431408169739187 12.578440060870646 -1 0 0
436 1 1.5642257001479145 11.004773503460784 14.152106646353824 0 0 0
437 1 3.137650738755128 9.431408547524565 12.578439803297734 0 0 0