LAMMPS data file via write_data, version 2 Aug 2023, timestep = 120, units = metal

688 atoms
3 atom types

0.0006137846395106466 22.008933212216263 xlo xhi
0.0005346949363972804 22.00901230191934 ylo yhi
-0.003972323154096409 22.013519320009873 zlo zhi

Masses

1 183.84
2 1.008
3 4.0026

Atoms # atomic

1 1 0.0006137875376653022 0.0005346978369903983 -0.0039723202507896665 0 0 0
2 1 1.5726366037794897 1.572568812602648 1.568705654306336 0 0 0
3 1 3.1446594199673803 0.0005346978375811687 -0.003972320127439491 0 0 0
4 1 4.716682239833491 1.5725688187393445 1.5687056580679342 0 0 0
5 1 6.288705052058548 0.0005346977996160013 -0.003972320322456879 0 0 0
6 1 7.860727872803256 1.5725688168630794 1.568705652598538 0 0 0
7 1 9.432750683312385 0.0005346981710060178 -0.003972320225224968 0 0 0
8 1 11.004773500151604 1.5725687827930679 1.5687056135398296 0 0 0
9 1 12.576796316541826 0.0005346972912453084 -0.003972319772197028 0 0 0
10 1 14.148819126592402 1.572568819335192 1.5687056540471476 0 0 0
11 1 15.720841948098466 0.0005346982109819571 -0.003972320540419526 0 0 0
12 1 17.292864760669413 1.5725688177288861 1.5687056575113736 0 0 0
13 1 18.864887580092727 0.0005346977962179087 -0.0039723201094059865 0 0 0
14 1 20.436910396343237 1.5725688126856288 1.56870565434766 0 0 0
15 1 0.0006137875335335908 3.144602927330986 -0.003972320119459835 0 0 0
16 1 1.5726366098617954 4.716637045717435 1.5687056580779914 0 0 0
17 1 3.1446594230210696 3.1446029303732983 -0.003972317087681251 0 0 0
18 1 4.7166824422180795 4.716637248026653 1.5687058591449374 0 0 0
19 1 6.288705059781236 3.144602928430037 -0.003972318965342726 0 0 0
20 1 7.860728581175946 4.716637225402007 1.5687058379839762 0 0 0
21 1 9.43275069105578 3.144602862928925 22.013519258777546 0 0 -1
22 1 11.004773522222044 4.7166371600704435 1.5687057774237643 0 0 0
23 1 12.576796309555375 3.14460285843268 22.01351925385446 0 0 -1
24 1 14.148818375068108 4.71663730991333 1.5687059203981513 0 0 0
25 1 15.720841939291379 3.144602930361663 -0.003972317140016107 0 0 0
26 1 17.292864579984574 4.716637220029605 1.5687058354354202 0 0 0
27 1 18.864887577372198 3.1446029299591878 -0.003972317438059095 0 0 0
28 1 20.436910389867972 4.716637046374393 1.5687056585937924 0 0 0
29 1 0.0006137877591542109 6.28867115629701 -0.003972320528292607 0 0 0
30 1 1.5726366091254058 7.860705275847141 1.5687056532461054 0 0 0
31 1 3.1446594215738757 6.288671164211987 -0.003972318505627633 0 0 0
32 1 4.716682422540779 7.860705994618913 1.568705838463477 0 0 0
33 1 6.288705231654249 6.288671333640795 -0.003972025282031992 0 0 0
34 1 7.8607357877666955 7.860713193310926 1.5687185898823288 0 0 0
35 1 9.432751038498782 6.288670932367106 -0.0039719101550622915 0 0 0
36 1 11.00477266600369 7.86072986462764 1.5687462966141914 0 0 0
37 1 12.576795942463935 6.288670996748893 -0.003971823569642618 0 0 0
38 1 14.148811860730712 7.860713074067493 1.5687176294842509 0 0 0
39 1 15.720841786011178 6.288671327126785 -0.003972048683762431 0 0 0
40 1 17.292864731114157 7.860705815776314 1.5687057394978077 0 0 0
41 1 18.86488757983103 6.288671162358872 -0.0039723187312273285 0 0 0
42 1 20.436910404512314 7.860705266895994 1.5687056418205585 0 0 0
43 1 0.0006137868804144689 9.432739385141709 -0.003972319260782052 0 0 0
44 1 1.5726365740262265 11.004773500077402 1.5687056138234625 0 0 0
45 1 3.144659356077988 9.43273939219814 22.013519259349522 0 0 -1
46 1 4.716682309737421 11.004773506627844 1.5687057342540038 0 0 0
47 1 6.288704829494384 9.432739751969306 -0.003971899889306495 0 0 0
48 1 7.860752832747302 11.004773115586328 1.568747262587422 0 0 0
49 1 9.432751235128249 9.432739932671765 -0.003960407580954986 0 0 0
50 1 11.004766188105458 11.004766420837496 1.5688494246671183 0 0 0
51 1 12.576795595597744 9.432740572258309 -0.0039606812331709216 0 0 0
52 1 14.14880149798494 11.004766437712819 1.5687326936860477 0 0 0
53 1 15.72084234280964 9.432739583694278 -0.003972215505537861 0 0 0
54 1 17.292865022100106 11.004773130602631 1.5687052804199935 0 0 0
55 1 18.86488764530009 9.432739382873555 22.013519254108786 0 0 -1
56 1 20.436910413687396 11.004773504461278 1.5687056344035242 0 0 0
57 1 0.0006137874331598288 12.576807614919986 -0.003972320235883051 0 0 0
58 1 1.5726366091680422 14.148841723927418 1.5687056536944513 0 0 0
59 1 3.144659354973383 12.576807607881342 22.01351925790142 0 0 -1
60 1 4.716682433906267 14.148840996181207 1.5687058533009537 0 0 0
61 1 6.2887048655791915 12.576807238435233 -0.003971860294336179 0 0 0
62 1 7.860735519432052 14.148834074447237 1.568718226171649 0 0 0
63 1 9.43275190987987 12.576806964158408 -0.003960014863456919 0 0 0
64 1 11.00476650001597 14.148823407282974 1.56874081353873 0 0 0
65 1 12.57679559806137 12.576806993508946 -0.003972158276263837 0 0 0
66 1 14.148817848452621 14.148840262215282 1.5687126563744938 0 0 0
67 1 15.720841716453084 12.576807321929765 -0.003971865203960297 0 0 0
68 1 17.292864983933875 14.148841448673956 1.568705411706839 0 0 0
69 1 18.864887599483783 12.576807608158164 22.013519301792005 0 0 -1
70 1 20.436910393752022 14.148841726423791 1.5687056561489856 0 0 0
71 1 0.0006137876809441671 15.72087584361635 -0.003972320367003147 0 0 0
72 1 1.572636609847967 17.292909954428026 1.5687056579585597 0 0 0
73 1 3.144659421687876 15.720875835679573 -0.003972318317291055 0 0 0
74 1 4.7166824394707225 17.292909755013707 1.568705856726618 0 0 0
75 1 6.288705225366682 15.720875674480537 -0.003972033713015139 0 0 0
76 1 7.860728536741469 17.29290981120852 1.568705776928431 0 0 0
77 1 9.432750950188803 15.7208761634035 -0.003972030433329933 0 0 0
78 1 11.004773258066697 17.292910215961147 1.5687055179158889 0 0 0
79 1 12.576795944527774 15.720875555842637 -0.003971581307975596 0 0 0
80 1 14.148818644012264 17.29291008894841 1.568705647941969 0 0 0
81 1 15.720841870018498 15.720875761421182 -0.003972154719648283 0 0 0
82 1 17.29286461852451 17.29290980780524 1.5687057846669612 0 0 0
83 1 18.86488758637868 15.720875845257174 22.013519316231715 0 0 -1
84 1 20.436910392217467 17.292909956274112 1.5687056564917425 0 0 0
85 1 0.0006137875570721156 18.864944072769685 -0.003972320142156343 0 0 0
86 1 1.5726366037788855 20.436978187572006 1.5687056542963957 0 0 0
87 1 3.1446594229931706 18.864944069731486 -0.003972317113103683 0 0 0
88 1 4.7166822395094075 20.436978181832917 1.5687056577290768 0 0 0
89 1 6.288705058919836 18.864944072295167 -0.003972319920104651 0 0 0
90 1 7.860727874152176 20.436978181178286 1.5687056546535636 0 0 0
91 1 9.432750684503327 18.86494414311676 22.013519255023436 0 0 -1
92 1 11.00477349576379 20.436978231184742 1.5687056056085398 0 0 0
93 1 12.576796309379906 18.864944109336022 22.013519282556377 0 0 -1
94 1 14.148819131380131 20.43697819586892 1.5687056450715382 0 0 0
95 1 15.72084194611235 18.864944076179654 -0.003972321170488379 0 0 0
96 1 17.292864758964477 20.436978180033744 1.5687056597574764 0 0 0
97 1 18.864887578132397 18.86494407066923 -0.003972318276988467 0 0 0
98 1 20.436910396626338 20.436978187842122 1.5687056540509792 0 0 0
99 1 0.0006137875256990455 0.0005346978105669104 3.1413836285501127 0 0 0
100 1 1.5726366035654804 1.5725688124087707 4.71406160241145 0 0 0
101 1 3.1446594198937015 0.0005346978096101785 3.141383628776577 0 0 0
102 1 4.716682237028371 1.572568820549475 4.714061608271359 0 0 0
103 1 6.288705057675532 0.0005346987080051518 3.141383634255579 0 0 0
104 1 7.860727974642127 1.5725691135380178 4.7140617049719 0 0 0
105 1 9.432750690679294 0.0005346958815513033 3.1413836301700546 0 0 0
106 1 11.004773494471495 1.5725694246914064 4.714061634803799 0 0 0
107 1 12.576796309570195 0.0005347021358932832 3.1413836303766627 0 0 0
108 1 14.148819032672764 1.5725690835189299 4.714061697128306 0 0 0
109 1 15.720841941704304 0.0005346956490823474 3.1413836352117546 0 0 0
110 1 17.292864760965692 1.5725688258713342 4.714061610056618 0 0 0
111 1 18.86488758056038 0.0005346986482028397 3.1413836284070022 0 0 0
112 1 20.436910396838538 1.5725688120191872 4.714061602257053 0 0 0
113 1 0.000613787616246341 3.1446029271202947 3.1413836286880694 0 0 0
114 1 1.5726366120530713 4.71663704307795 4.714061608369969 0 0 0
115 1 3.1446594242865062 3.1446029316076025 3.1413836372803567 0 0 0
116 1 4.716682475285204 4.716637278614499 4.714062333882112 0 0 0
117 1 6.288705244687164 3.1446032359095972 3.14138381068045 0 0 0
118 1 7.860736083212623 4.7166503310106584 4.714069798654502 0 0 0
119 1 9.432751049938103 3.1446033370167754 3.1413834005714967 0 0 0
120 1 11.00477294827345 4.716678193488791 4.714086409126645 0 0 0
121 1 12.576795929449561 3.144603382911758 3.141383425094052 0 0 0
122 1 14.148811621692206 4.716648502719706 4.714069028611204 0 0 0
123 1 15.720841779011758 3.1446031883745413 3.1413837845197996 0 0 0
124 1 17.292864362678944 4.716637488680623 4.714062458996971 0 0 0
125 1 18.864887572562004 3.1446029360421517 3.141383640160001 0 0 0
126 1 20.436910392683178 4.716637036293252 4.714061603985834 0 0 0
127 1 0.0006137864138699062 6.288671162950127 3.14138363511571 0 0 0
128 1 1.5726369016857102 7.8607053745770745 4.714061703499544 0 0 0
129 1 3.1446597275440213 6.28867134655779 3.1413838103644673 0 0 0
130 1 4.716695346868689 7.860713331817648 4.714069659075309 0 0 0
131 1 6.2887156095147185 6.288681733977749 3.1413941466533144 0 0 0
132 1 7.861176926808438 7.861155169267968 4.714510430142302 0 0 0
133 1 9.432766112672686 6.2887167240524855 3.1414294149669004 0 0 0
134 1 11.004730273724501 7.86188622227611 4.715246476507535 0 0 0
135 1 12.576779678981 6.288720126559936 3.141433138311592 0 0 0
136 1 14.148416813211757 7.861088817588178 4.714449954470614 0 0 0
137 1 15.720832652587713 6.288680283394493 3.1413929097119286 0 0 0
138 1 17.29285013985791 7.860715626299869 4.7140715291965645 0 0 0
139 1 18.864887242958844 6.288671397864754 3.1413838544038035 0 0 0
140 1 20.436910086883962 7.860705354055128 4.7140616783893465 0 0 0
141 1 0.000613794506222153 9.432739390100021 3.141383629907713 0 0 0
142 1 1.5726372391068255 11.004773497106758 4.7140616433907745 0 0 0
143 1 3.144659849514596 9.432739768653228 3.141383408550027 0 0 0
144 1 4.716724796799294 11.004773361746421 4.714087191120805 0 0 0
145 1 6.288751295083998 9.432755649837146 3.141429998284315 0 0 0
146 1 7.861950418370233 11.004766304447639 4.715287922341794 0 0 0
147 1 9.432862215456375 9.432850290947274 3.1421836886633017 0 0 0
148 1 11.00440544779631 11.004310771817035 4.708891830435214 0 0 0
149 1 12.576674659797389 9.432824835386997 3.1421244550368144 0 0 0
150 1 14.147938788724606 11.004310558160611 4.714755762059183 0 0 0
151 1 15.720804514682383 9.432745586287753 3.141419527142365 0 0 0
152 1 17.292837689677512 11.004767369954022 4.714076054817551 0 0 0
153 1 18.86488774949469 9.432739459140945 3.1413828992940727 0 0 0
154 1 20.436909817364917 11.00477337636696 4.714061875192926 0 0 0
155 1 0.000613785837669185 12.57680760609412 3.14138363633994 0 0 0
156 1 1.5726369010454708 14.14884162819368 4.7140617011918495 0 0 0
157 1 3.144659858614883 12.576807226915934 3.1413834133641214 0 0 0
158 1 4.716694974406345 14.148833805135974 4.714069523132489 0 0 0
159 1 6.288752117134352 12.57679116346035 3.1414310781488584 0 0 0
160 1 7.861161599059291 14.148404040354254 4.714499395337748 0 0 0
161 1 9.432847778533075 12.576688758208576 3.1421675119081414 0 0 0
162 1 11.0044309171112 14.147773896714588 4.715282551593258 0 0 0
163 1 12.576674569610836 12.576665489922114 3.1413745776799096 0 0 0
164 1 14.148698532741076 14.148555800379716 4.714512443305966 0 0 0
165 1 15.720818906621568 12.576793809097847 3.1414049230455006 0 0 0
166 1 17.292862961037944 14.148841839052801 4.71406285178553 0 0 0
167 1 18.86488717883792 12.576807381558533 3.1413837258438897 0 0 0
168 1 20.436910399862153 14.148841768324337 4.714061571933742 0 0 0
169 1 0.0006137923901727965 15.72087584069828 3.141383631827208 0 0 0
170 1 1.572636612048756 17.292909957045133 4.714061608059958 0 0 0
171 1 3.144659720626914 15.720875657699816 3.1413838066442903 0 0 0
172 1 4.716682456040701 17.292909722154615 4.714062323223951 0 0 0
173 1 6.288715410934645 15.720865507944056 3.1413939578006578 0 0 0
174 1 7.860734844834114 17.292898118046026 4.714068231179559 0 0 0
175 1 9.432763543004025 15.720832335532375 3.141426231225254 0 0 0
176 1 11.004775060231959 17.292866691109133 4.71409001236808 0 0 0
177 1 12.57677993945887 15.720840722495042 3.141421838699741 0 0 0
178 1 14.148809640964839 17.29289558846434 4.714073224671618 0 0 0
179 1 15.720834864992998 15.720868492223437 3.1413901088790297 0 0 0
180 1 17.292865494759365 17.29291082194475 4.714061027124373 0 0 0
181 1 18.864887413458543 15.720875811103646 3.1413836888873083 0 0 0
182 1 20.43691041255047 17.292909966388525 4.714061593005169 0 0 0
183 1 0.0006137880188653361 18.864944073101633 3.1413836284416123 0 0 0
184 1 1.5726366035617998 20.436978187756072 4.714061602422467 0 0 0
185 1 3.1446594238619494 18.86494406861058 3.141383637032292 0 0 0
186 1 4.716682238324636 20.436978178124868 4.714061609123811 0 0 0
187 1 6.288705221398882 18.86494379183446 3.141383785319778 0 0 0
188 1 7.860727952909127 20.436977931584238 4.714061683232455 0 0 0
189 1 9.432751115807035 18.86494358347893 3.141383488625643 0 0 0
190 1 11.004773496596245 20.436977539765294 4.714061653626524 0 0 0
191 1 12.576795941421596 18.86494403962419 3.141383256130459 0 0 0
192 1 14.148819032230247 20.436977876967287 4.714061708765853 0 0 0
193 1 15.720841703869501 18.864943698126797 3.141383903069737 0 0 0
194 1 17.29286478101087 20.4369782156966 4.714061590036216 0 0 0
195 1 18.864887593411257 18.864944088902785 3.141383617441284 0 0 0
196 1 20.436910395543052 20.436978186685895 4.714061603152752 0 0 0
197 1 0.0006137876135408219 0.0005346979329612507 6.286739577116421 0 0 0
198 1 1.5726366039240347 1.5725688127518087 7.859417551322508 0 0 0
199 1 3.1446594201918554 0.0005346979320369113 6.286739576779451 0 0 0
200 1 4.71668220865365 1.572568791653823 7.85941755227198 0 0 0
201 1 6.288705056281392 0.0005346966012154658 6.286739583578098 0 0 0
202 1 7.860727928446434 1.5725694444139724 7.859417542603201 0 0 0
203 1 9.432750717054402 0.0005347267028278863 6.2867396082293165 0 0 0
204 1 11.00477348551827 1.5725715869974555 7.859417532571581 0 0 0
205 1 12.57679627861031 0.000534722977482914 6.286739604136155 0 0 0
206 1 14.14881908639582 1.5725694961419936 7.85941754250362 0 0 0
207 1 15.720841948474446 0.0005347232286194786 6.286739578879667 0 0 0
208 1 17.29286479142759 1.5725687877748593 7.8594175522619585 0 0 0
209 1 18.864887579380753 0.0005346965995684818 6.286739576841221 0 0 0
210 1 20.436910395731882 1.5725688132372733 7.859417551322659 0 0 0
211 1 0.0006137871748128613 3.1446029280788363 6.286739576793648 0 0 0
212 1 1.5726365825295652 4.716637013618254 7.859417552272199 0 0 0
213 1 3.1446593667251173 3.144602874153154 6.286739578964436 0 0 0
214 1 4.716681721251315 4.7166365301043065 7.859417663996039 0 0 0
215 1 6.288704840665241 3.144603355486954 6.286739915452157 0 0 0
216 1 7.860751367052739 4.7166770201737 7.859416622943429 0 0 0
217 1 9.43275146752472 3.144615493995681 6.286740314258905 0 0 0
218 1 11.00477271915877 4.716793245578489 7.85941582149899 0 0 0
219 1 12.576795581597535 3.144614604409651 6.286740381124117 0 0 0
220 1 14.14879603649681 4.716680518238798 7.859416612766175 0 0 0
221 1 15.720842101974126 3.1446035033361803 6.286739958255275 0 0 0
222 1 17.292865652471512 4.716636123109823 7.859417662536785 0 0 0
223 1 18.86488764282345 3.144602860761877 6.286739573201353 0 0 0
224 1 20.436910425595226 4.716637010920093 7.859417552271545 0 0 0
225 1 0.0006137866590549408 6.2886711628919505 6.2867395854960515 0 0 0
226 1 1.572637237522707 7.8607053353332805 7.859417542589733 0 0 0
227 1 3.144659861510122 6.288670954598307 6.286739923015241 0 0 0
228 1 4.716722842834618 7.860729358705876 7.859416623579055 0 0 0
229 1 6.288751475020512 6.288717482608504 6.286755347702431 0 0 0
230 1 7.861933268316818 7.861907883370541 7.859351047345838 0 0 0
231 1 9.43287561214203 6.28948789184481 6.286869402301722 0 0 0
232 1 11.00505223492948 7.855949711485378 7.859225237931209 0 0 0
233 1 12.576676980001746 6.289425397794646 6.28686331808008 0 0 0
234 1 14.147338449707112 7.862175819329766 7.859350390981021 0 0 0
235 1 15.720789488253155 6.288723998448878 6.286759947678088 0 0 0
236 1 17.29281759044695 7.8607326828219835 7.859416622391998 0 0 0
237 1 18.864887400955265 6.288670574950321 6.2867398894052124 0 0 0
238 1 20.436909457671383 7.860705615053317 7.8594175426576145 0 0 0
239 1 0.0006138333389020781 9.432739370651332 6.2867395604565255 0 0 0
240 1 1.5726393500020939 11.004773494544668 7.859417532563801 0 0 0
241 1 3.14467183035445 9.432740080027953 6.286740229407296 0 0 0
242 1 4.716830268611738 11.004773272139946 7.859415828173564 0 0 0
243 1 6.289516629768776 9.432856656940984 6.286862123562111 0 0 0
244 1 7.855374239186897 11.004796783745423 7.859225336550225 0 0 0
245 1 9.433253705480872 9.433098595056327 6.287274053463178 0 0 0
246 1 20.436910396408138 20.436978187580536 20.440841345991412 0 0 0
247 1 12.576676571985608 9.430071241802864 6.285597061577609 0 0 0
248 1 14.166620252053148 10.99811931460409 7.859226062235756 0 0 0
249 1 15.719825096971489 9.432907988704608 6.286768878172739 0 0 0
250 1 17.293174757510208 11.004786499259705 7.859415693634512 0 0 0
251 1 18.864875353519377 9.432736863789923 6.286736517602534 0 0 0
252 1 20.436914512628718 11.00477328895477 7.859417530752841 0 0 0
253 1 0.0006140402414649537 12.576807624488671 6.286739562984293 0 0 0
254 1 1.572637235876329 14.148841670498527 7.859417542520126 0 0 0
255 1 3.1446716006919213 12.576806915224129 6.286740230820941 0 0 0
256 1 4.7167216565194545 14.148817863493944 7.859416617786863 0 0 0
257 1 6.289500931160347 12.576690923834217 6.286861773315687 0 0 0
258 1 7.8618709226238055 14.147663809235635 7.8593503628042445 0 0 0
259 1 9.432262252504012 12.576796509065861 6.287134554309786 0 0 0
260 1 11.00267770856598 14.157048313808332 7.859213629658323 0 0 0
261 1 12.576362258895175 12.58248319956426 6.274955983047166 0 0 0
262 1 14.149726495607942 14.150611405780124 7.859335657998058 0 0 0
263 1 15.720730781683447 12.576909186569994 6.286727908353259 0 0 0
264 1 17.292879608831107 14.148843720369245 7.859416471570071 0 0 0
265 1 18.864889238229317 12.576810754546807 6.2867365974693135 0 0 0
266 1 20.436910553811398 14.14884159445378 7.859417540574128 0 0 0
267 1 0.0006138059515458008 15.720875841182519 6.286739579020169 0 0 0
268 1 1.5726365824397912 17.292909985989695 7.859417552254417 0 0 0
269 1 3.144659841734903 15.72087604922123 6.286739916003332 0 0 0
270 1 4.716681747844777 17.29291044204677 7.859417661491146 0 0 0
271 1 6.2887506829149835 15.72082912276558 6.286754798826205 0 0 0
272 1 7.860753361909749 17.292868241050506 7.85941660932492 0 0 0
273 1 9.432794319657686 15.720144218245949 6.2868202109116 0 0 0
274 1 11.004766225445923 17.292818299362036 7.859415662160592 0 0 0
275 1 12.576680546710337 15.720158029121093 6.287138473545994 0 0 0
276 1 14.148802731811875 17.29292182760272 7.859416460250127 0 0 0
277 1 15.720865546030936 15.720901600225206 6.286716182139087 0 0 0
278 1 17.292863219845565 17.292908705827276 7.859417635498772 0 0 0
279 1 18.864888223253043 15.720876136050615 6.286739339089526 0 0 0
280 1 20.43691038471833 17.29290995530138 7.859417552124263 0 0 0
281 1 0.000613786808268251 18.86494407222654 6.286739577124677 0 0 0
282 1 1.5726366039343163 20.43697818747216 7.859417551323545 0 0 0
283 1 3.1446593669110685 18.864944126284914 6.286739579215604 0 0 0
284 1 4.716682206915693 20.436978209997765 7.8594175522623155 0 0 0
285 1 6.288704934604994 18.864943545200862 6.286739928185451 0 0 0
286 1 7.860727936629701 20.436977554124745 7.859417542586699 0 0 0
287 1 9.432750861594412 18.864933370414573 6.286739718940221 0 0 0
288 1 11.004773503778027 20.436976388554825 7.859417530689425 0 0 0
289 1 12.576795659281393 18.864933597171472 6.286739945386695 0 0 0
290 1 14.148819063926688 20.436978341052114 7.859417540572206 0 0 0
291 1 15.720842628714447 18.864945196388355 6.286739441754497 0 0 0
292 1 17.29286478691565 20.43697820605261 7.859417552152379 0 0 0
293 1 18.86488755246135 18.864944044986984 6.286739594161584 0 0 0
294 1 20.4369103984038 20.436978189341055 7.859417551341168 0 0 0
295 1 0.0006137876161282334 0.0005346979357987246 9.432095525731503 0 0 0
296 1 1.5726366033978931 1.572568812241163 11.004773500561347 0 0 0
297 1 3.144659420091178 0.0005346979315624159 9.43209552612676 0 0 0
298 1 4.716682238920888 1.5725688239155968 11.004773493161492 0 0 0
299 1 6.288705057121197 0.0005346966314306666 9.43209551870802 0 0 0
300 1 7.86072796585581 1.572569081413914 11.004773407448324 0 0 0
301 1 9.432750717914576 0.0005347266875942264 9.432095494473662 0 0 0
302 1 11.004773494307495 1.5725693530338898 11.004773489359511 0 0 0
303 1 12.576796277824684 0.0005347261835885904 9.432095498670254 0 0 0
304 1 14.148819041621156 1.572569051242758 11.004773415328124 0 0 0
305 1 15.720841947553428 0.000534723370981876 9.43209552335722 0 0 0
306 1 17.292864759079013 1.572568829216602 11.004773491387425 0 0 0
307 1 18.864887579485842 0.0005346965882397859 9.432095526061396 0 0 0
308 1 20.436910397005242 1.5725688118520211 11.00477350071533 0 0 0
309 1 0.0006137871751510145 3.1446029279782244 9.432095526112425 0 0 0
310 1 1.5726366154160925 4.7166370449687856 11.004773493066718 0 0 0
311 1 3.144659350619075 3.144602858046197 9.43209552545749 0 0 0
312 1 4.716682634412196 4.716637437704092 11.004772637704594 0 0 0
313 1 6.288704882845248 3.1446034971198475 9.43209515515202 0 0 0
314 1 7.86073524070925 4.7166479731372 11.004766209461483 0 0 0
315 1 9.43275149865181 3.144614052975124 9.432094771679703 0 0 0
316 1 11.00477294118272 4.716674052603548 11.004750636478343 0 0 0
317 1 12.57679555081347 3.1446131468987586 9.432094706441275 0 0 0
318 1 14.148812470584886 4.716646141061502 11.00476697091786 0 0 0
319 1 15.720842059422798 3.1446036436911484 9.432095112229717 0 0 0
320 1 17.29286420422132 4.716637647204153 11.004772513961504 0 0 0
321 1 18.86488765886195 3.1446028447305845 9.432095531200584 0 0 0
322 1 20.436910389357696 4.716637038165404 11.004773497453746 0 0 0
323 1 0.0006137866805754315 6.2886711637286155 9.432095516793142 0 0 0
324 1 1.5726368696318858 7.8607053657843435 11.004773408827846 0 0 0
325 1 3.1446600025594544 6.288670996765101 9.432095148232106 0 0 0
326 1 4.716692988787971 7.860712490605774 11.004766350097915 0 0 0
327 1 6.28876448093264 6.28873048877393 9.432078400763222 0 0 0
328 1 7.861079864147816 7.861058122518771 11.004429881195785 0 0 0
329 1 9.43287320094897 6.289393275313278 9.43196948284257 0 0 0
330 1 11.004730408682827 7.86176646429534 11.003692152406723 0 0 0
331 1 12.576679358234736 6.2893288699360665 9.431975322561998 0 0 0
332 1 14.148515627900778 7.860990152629356 11.004491820099414 0 0 0
333 1 15.720776572359345 6.2887369064057195 9.43207379262261 0 0 0
334 1 17.29285248246953 7.8607147984154535 11.004764460313806 0 0 0
335 1 18.864887260629548 6.288670617996662 9.432095181821973 0 0 0
336 1 20.43691011871726 7.8607053454408184 11.004773433746902 0 0 0
337 1 0.0006138331357574481 9.432739371520567 9.432095542196892 0 0 0
338 1 1.572637167426306 11.004773497034225 11.004773480818308 0 0 0
339 1 3.1446703892730183 9.43274011081888 9.432094857194185 0 0 0
340 1 4.716720631976847 11.00477335813509 11.004749869733063 0 0 0
341 1 6.289422081950315 9.432854193789769 9.431976797927554 0 0 0
342 1 7.861829756716562 11.004766166553592 11.003651255375868 0 0 0
343 1 9.425413692482605 9.425248528317397 9.433114130865482 0 0 0
344 1 11.004386669657611 11.004294977106648 11.075222622908516 0 0 0
345 1 12.584551150081882 9.42215266001268 9.434823556117497 0 0 0
346 1 14.148069947324162 11.004293728103038 11.0041970271602 0 0 0
347 1 15.719919599328984 9.43290549453697 9.432069519101592 0 0 0
348 1 17.292842033149597 11.004767227563505 11.004761098598271 0 0 0
349 1 18.86487677662477 9.432736906667778 9.432098559289958 0 0 0
350 1 20.436909893614853 11.004773374111556 11.004773250592212 0 0 0
351 1 0.0006140435333171999 12.576807623704676 9.43209553976645 0 0 0
352 1 1.5726368688485282 14.148841637050143 11.004773411194698 0 0 0
353 1 3.1446701512832127 12.576806884576023 9.432094856221434 0 0 0
354 1 4.716692598096677 14.148834649965767 11.004766492858863 0 0 0
355 1 6.289405508173564 12.57669339480978 9.431976966305239 0 0 0
356 1 7.861063483097581 14.14850214064914 11.004441738020004 0 0 0
357 1 9.424362706844724 12.584673475776608 9.43327361352061 0 0 0
358 1 11.004415486992281 14.147904074164787 11.00366840614394 0 0 0
359 1 12.584230814366942 12.590303497523678 9.445312549310474 0 0 0
360 1 14.148814881372159 14.148671470251497 11.00444662225582 0 0 0
361 1 15.72084972950957 12.576910602682057 9.432109113180527 0 0 0
362 1 17.292865662050907 14.148842815861508 11.004773332619994 0 0 0
363 1 18.864890972786203 12.576810722932137 9.432098516225583 0 0 0
364 1 20.436910438196833 14.148841779211049 11.004773542466474 0 0 0
365 1 0.0006138061034297336 15.720875840257001 9.432095523218827 0 0 0
366 1 1.5726366153775082 17.29290995516354 11.004773493393671 0 0 0
367 1 3.144659980385379 15.7208760070018 9.432095155221502 0 0 0
368 1 4.716682613480799 17.292909564690603 11.004772650660522 0 0 0
369 1 6.28876349456584 15.720816300480172 9.4320789386992 0 0 0
370 1 7.860734004216911 17.29290048418061 11.00476778847517 0 0 0
371 1 9.432791073528325 15.720239954104578 9.432018384458464 0 0 0
372 1 11.004774922032796 17.29287106960454 11.004747184923266 0 0 0
373 1 12.576681900824676 15.720278832990754 9.431697726260671 0 0 0
374 1 14.148810610606935 17.292898264788615 11.004762946375706 0 0 0
375 1 15.720855102099573 15.720891172730555 9.432117292330092 0 0 0
376 1 17.29286534537823 17.292910672596843 11.004773968084438 0 0 0
377 1 18.864888098006855 15.72087608458338 9.432095730164981 0 0 0
378 1 20.436910409451517 17.292909964512525 11.004773508541666 0 0 0
379 1 0.0006137867947747206 18.86494407232819 9.43209552577708 0 0 0
380 1 1.572636603395467 20.436978187921948 11.004773500548914 0 0 0
381 1 3.14465935102548 18.864944142177503 9.432095525175 0 0 0
382 1 4.716682240206555 20.43697817479599 11.004773492317899 0 0 0
383 1 6.288704977756327 18.864943405022622 9.432095142347688 0 0 0
384 1 7.860727944210645 20.436977963812982 11.004773429165942 0 0 0
385 1 9.43275090754523 18.864934808343154 9.432095365011893 0 0 0
386 1 11.00477349445634 20.43697761662222 11.004773472526216 0 0 0
387 1 12.576795627570181 18.864935327776625 9.432095163497152 0 0 0
388 1 14.148819043082492 20.436977915105565 11.004773405599071 0 0 0
389 1 15.720842573421837 18.86494506730177 9.432095627337583 0 0 0
390 1 17.292864779127264 20.436978212590667 11.004773511480455 0 0 0
391 1 18.864887565670173 18.864944058223514 9.432095509918955 0 0 0
392 1 20.436910395693094 20.436978186836253 11.004773499798073 0 0 0
393 1 0.0006137875254733956 0.0005346978103229617 12.577451474300373 0 0 0
394 1 1.572636603806686 1.572568812629809 14.15012944844954 0 0 0
395 1 3.1446594199781233 0.0005346978102617643 12.577451473998801 0 0 0
396 1 4.716682239304306 1.572568817882337 14.15012944529509 0 0 0
397 1 6.28870505714819 0.0005346987102521133 12.577451469215369 0 0 0
398 1 7.860727872514541 1.5725688179724622 14.150129449548668 0 0 0
399 1 9.432750689956952 0.0005346959724480387 12.577451472941437 0 0 0
400 1 11.004773500080946 1.5725687914536381 14.150129486282749 0 0 0
401 1 12.576796310251106 0.0005347024075090653 12.57745147263004 0 0 0
402 1 14.148819126958264 1.5725688202523693 14.150129448183995 0 0 0
403 1 15.720841942270445 0.0005346957442208502 12.57745146830319 0 0 0
404 1 17.292864761191996 1.5725688168789065 14.150129445848346 0 0 0
405 1 18.8648875804788 0.0005346986534636416 12.577451474371477 0 0 0
406 1 20.4369103963161 1.5725688127128277 14.150129448408407 0 0 0
407 1 0.0006137876169362587 3.144602927204562 12.577451474087567 0 0 0
408 1 1.5726366090053063 4.7166370451872 14.150129445283369 0 0 0
409 1 3.1446594268305286 3.144602934151187 12.577451463769936 0 0 0
410 1 4.716682415712536 4.71663722155382 14.15012926822411 0 0 0
411 1 6.28870521897038 3.1446031803141334 12.57745132488101 0 0 0
412 1 7.860728581385641 4.716637267115346 14.150129212469071 0 0 0
413 1 9.432751022676543 3.1446033031293728 12.57745172516299 0 0 0
414 1 11.004773512455449 4.716637597099582 14.15012919352815 0 0 0
415 1 12.576795957057776 3.1446033417582426 12.577451698683195 0 0 0
416 1 14.148818384413973 4.716637346792879 14.150129135341775 0 0 0
417 1 15.720841804363877 3.1446031330251647 12.577451350957158 0 0 0
418 1 17.29286460687874 4.716637193188002 14.15012929218292 0 0 0
419 1 18.86488757002797 3.144602938576184 12.577451460907268 0 0 0
420 1 20.436910390719454 4.71663704585003 14.1501294447634 0 0 0
421 1 0.0006137864063627971 6.288671162429051 12.577451468348208 0 0 0
422 1 1.5726366101647125 7.860705275559262 14.150129448976335 0 0 0
423 1 3.144659671824922 6.288671320843403 12.577451325323791 0 0 0
424 1 4.716682465498403 7.860705994904596 14.150129210707837 0 0 0
425 1 6.288713851846624 6.2886799760961845 12.577442804223649 0 0 0
426 1 7.860733868816968 7.860711269605603 14.150119978810807 0 0 0
427 1 9.43276455585233 6.288717802359248 12.577399366378371 0 0 0
428 1 11.004772659677624 7.86076960583712 14.150050678254203 0 0 0
429 1 12.576781238349485 6.288720609331222 12.577396228550453 0 0 0
430 1 14.148813770257004 7.860711220630087 14.150120885967155 0 0 0
431 1 15.720834432992792 6.288678499678283 12.577444063532608 0 0 0
432 1 17.292864693975723 7.860705806317164 14.150129315438853 0 0 0
433 1 18.864887298282927 6.288671372626563 12.577451281070053 0 0 0
434 1 20.436910403712723 7.860705266474503 14.150129460527538 0 0 0
435 1 0.0006137947048545713 9.432739389370258 12.577451473266732 0 0 0
436 1 1.5726365829067677 11.004773500057363 14.150129485891503 0 0 0
437 1 3.144659816655059 9.432739741115318 12.57745171585953 0 0 0