ITEM: TIMESTEP
114
ITEM: NUMBER OF ATOMS
688
ITEM: BOX BOUNDS pp pp pp
0.0000000000000000e+00 2.2013900999999997e+01
0.0000000000000000e+00 2.2013900999999997e+01
0.0000000000000000e+00 2.2013900999999997e+01
ITEM: ATOMS id type x y z c_pot
1 1 1.27536e-05 3.7247e-13 0.000989241 -8.94952
2 1 1.57238 1.57216 1.57336 -8.94951
175 1 18.8707 9.43392 9.43504 -8.94976
4 1 4.71721 1.57219 1.57345 -8.94967
5 1 6.28965 5.06302e-14 0.00114951 -8.9496
6 1 7.86209 1.5722 1.57344 -8.9496
174 1 15.7288 9.43315 9.43363 -8.94782
8 1 11.007 1.57218 1.57327 -8.9496
9 1 12.5794 -2.23969e-13 0.000891491 -8.9496
10 1 14.1519 1.5721 1.57308 -8.94964
173 1 12.5866 9.43258 9.4297 -9.03208
12 1 17.297 1.57203 1.57302 -8.94956
13 1 18.8692 2.18589e-13 0.000811731 -8.94952
14 1 20.4417 1.57212 1.57325 -8.94956
193 1 11.0109 7.86073 11.0121 -9.05683
16 1 1.57231 4.71665 1.57335 -8.94953
17 1 3.14468 3.14436 0.00116788 -8.94958
18 1 4.717 4.71665 1.57341 -8.94961
172 1 9.41613 9.3574 9.41756 -9.37227
20 1 7.86203 4.71669 1.57339 -8.94958
21 1 9.43449 3.14443 0.0010537 -8.94959
22 1 11.0071 4.71663 1.57303 -8.94957
23 1 12.5794 3.14438 0.000799092 -8.9496
24 1 14.1523 4.71638 1.57265 -8.94979
171 1 6.28891 9.43323 9.43263 -9.03928
26 1 17.2975 4.7162 1.57253 -8.94909
27 1 18.8694 3.14423 0.000718865 -8.9494
28 1 20.4419 4.71656 1.57306 -8.94953
29 1 -1.13208e-05 6.28911 0.00106192 -8.94959
30 1 1.57227 7.86165 1.57339 -8.94963
170 1 3.14206 9.43325 9.43527 -8.9465
32 1 4.71674 7.86154 1.57334 -8.94978
33 1 6.28928 6.289 0.0013152 -8.94959
34 1 7.86171 7.86131 1.57289 -8.94951
169 1 -0.000703184 9.43395 9.43542 -8.9496
36 1 11.0072 7.86129 1.57211 -8.94924
168 1 18.8697 6.28889 9.43531 -8.94949
38 1 14.1535 7.86067 1.57088 -8.94982
39 1 15.7251 6.28865 5.24858e-05 -8.94955
40 1 17.298 7.86129 1.57214 -8.94955
167 1 15.7256 6.28864 9.43517 -8.94908
42 1 20.442 7.86159 1.57296 -8.94958
166 1 12.58 6.28891 9.4352 -8.95078
44 1 3.14432 9.43426 0.00150773 -8.94962
165 1 9.4344 6.27351 9.43568 -8.97215
192 1 7.85735 7.86152 11.0149 -9.03343
47 1 12.5801 9.43397 -0.000586896 -8.95047
164 1 6.28947 6.28879 9.43654 -8.95116
49 1 18.8697 9.43424 0.000503301 -8.94957
50 1 22.014 -3.52832e-13 3.14572 -8.94962
51 1 1.57239 1.57218 4.71817 -8.94967
52 1 3.1447 -6.39615e-14 3.14569 -8.9495
53 1 4.71694 1.57205 4.718 -8.9495
54 1 6.28966 -1.28347e-13 3.14579 -8.94963
55 1 7.8621 1.57219 4.71813 -8.94956
56 1 9.43456 2.05644e-13 3.14573 -8.94962
57 1 11.0071 1.57214 4.71797 -8.94955
58 1 12.5795 -6.10309e-14 3.14553 -8.94962
59 1 14.1523 1.57191 4.71773 -8.94971
60 1 15.7246 -2.24628e-13 3.1454 -8.94965
61 1 17.2971 1.57206 4.71793 -8.94967
62 1 18.8693 2.48233e-13 3.14558 -8.94962
63 1 20.4417 1.57215 4.71807 -8.94961
64 1 0.000108822 3.14435 3.14565 -8.94958
65 1 1.57228 4.71663 4.71802 -8.94961
66 1 3.14463 3.14431 3.14567 -8.94942
67 1 4.71659 4.71623 4.71772 -8.94901
68 1 6.28961 3.14443 3.14575 -8.94979
69 1 7.86219 4.71668 4.71798 -8.95024
70 1 9.43458 3.14439 3.14565 -8.94959
71 1 11.0073 4.71651 4.71748 -8.94961
72 1 12.5796 3.14425 3.14532 -8.94964
73 1 14.1531 4.71548 4.71689 -8.94998
74 1 15.7249 3.14391 3.1451 -8.94962
75 1 17.2977 4.7162 4.71745 -8.94956
76 1 18.8695 3.14421 3.14542 -8.94958
77 1 20.4419 4.71654 4.71784 -8.94955
78 1 22.0141 6.28903 3.14547 -8.94966
79 1 1.57213 7.86153 4.71784 -8.94978
80 1 3.14439 6.28891 3.14551 -8.94936
81 1 4.71589 7.86089 4.71712 -8.94855
82 1 6.28924 6.28889 3.14528 -8.94975
83 1 7.86147 7.86106 4.71657 -8.95094
84 1 9.43461 6.28882 3.14525 -8.94922
85 1 11.0072 7.86156 4.71584 -8.95061
86 1 12.58 6.28863 3.14439 -8.9501
87 1 14.1575 7.85748 4.71227 -8.94343
88 1 15.7264 6.28761 3.14355 -8.94789
89 1 17.2994 7.86071 4.71631 -8.94989
90 1 18.8702 6.28869 3.14489 -8.94957
91 1 20.4424 7.86147 4.71755 -8.94984
92 1 0.000313286 9.43426 3.14543 -8.94961
93 1 3.14436 9.43423 3.14555 -8.94958
94 1 6.28893 9.43412 3.14472 -8.95052
95 1 9.43406 9.43326 3.14347 -8.94649
96 1 12.5824 9.43272 3.13983 -8.95158
97 1 15.7269 9.43366 3.14302 -8.94931
98 1 18.8705 9.43412 3.14468 -8.94953
99 1 4.96633e-05 -2.13394e-13 6.29057 -8.9496
100 1 1.5723 1.57219 7.86306 -8.9496
101 1 3.1447 3.40839e-14 6.29065 -8.94963
102 1 4.71699 1.57217 7.86317 -8.94956
103 1 6.28934 -2.68045e-14 6.29044 -8.94975
104 1 7.86175 1.57162 7.86289 -8.95005
105 1 9.43462 2.90449e-13 6.2905 -8.94948
106 1 11.0074 1.57173 7.86283 -8.94971
107 1 12.5798 1.65753e-14 6.29032 -8.94978
108 1 14.1522 1.57211 7.86296 -8.94966
109 1 15.7246 -1.04008e-13 6.29046 -8.9497
110 1 17.297 1.57214 7.86293 -8.94961
111 1 18.8693 2.17939e-13 6.2905 -8.94961
112 1 20.4416 1.57218 7.86297 -8.94961
113 1 22.014 3.14439 6.29053 -8.94961
114 1 1.57218 4.71665 7.86307 -8.94958
115 1 3.14461 3.14441 6.29065 -8.94979
116 1 4.71675 4.71666 7.86333 -8.95024
117 1 6.28897 3.14371 6.29011 -8.94934
118 1 7.86051 4.71417 7.86175 -8.94811
119 1 9.43475 3.14413 6.29043 -8.94923
120 1 11.0088 4.71494 7.86166 -8.94664
121 1 12.5803 3.14364 6.28989 -8.94967
122 1 14.1529 4.71629 7.8627 -8.95026
123 1 15.7249 3.1441 6.29026 -8.94976
124 1 17.2975 4.71647 7.86273 -8.94961
125 1 18.8695 3.14429 6.29039 -8.94962
126 1 20.4418 4.71661 7.86289 -8.94956
127 1 9.75904e-05 6.28896 6.29032 -8.94959
128 1 1.57157 7.86128 7.86282 -8.94951
129 1 3.14405 6.28886 6.29036 -8.94975
130 1 4.71521 7.86102 7.86268 -8.95093
131 1 6.28775 6.28744 6.289 -8.94725
132 1 7.85583 7.85715 7.8572 -9.00959
133 1 9.43532 6.28883 6.2908 -8.95116
134 1 11.0136 7.86154 7.85872 -9.03341
135 1 12.5819 6.28676 6.28821 -8.95179
136 1 14.1565 7.85989 7.86065 -8.9483
137 1 15.7264 6.2881 6.28923 -8.94924
138 1 17.2991 7.86091 7.86195 -8.94942
139 1 18.8702 6.28873 6.28995 -8.94947
140 1 20.4421 7.86136 7.86264 -8.94968
141 1 22.0141 9.4342 6.29027 -8.94995
142 1 3.1434 9.4341 6.29011 -8.95052
143 1 6.28538 9.43266 6.28671 -8.94698
144 1 9.43135 9.43325 6.29037 -9.03929
145 1 12.5954 9.42356 6.27355 -8.97399
146 1 15.73 9.43297 6.28694 -8.95207
147 1 18.8712 9.43403 6.28956 -8.95026
148 1 -7.3938e-05 4.09565e-14 9.43546 -8.9496
149 1 3.14459 1.24244e-13 9.43559 -8.94962
150 1 6.28936 1.62916e-14 9.43572 -8.94948
151 1 9.43455 -1.23728e-13 9.43569 -8.95098
152 1 12.5797 4.41068e-14 9.43557 -8.94945
153 1 15.7245 -2.33624e-14 9.43546 -8.94964
154 1 18.8692 1.37507e-13 9.43542 -8.9496
155 1 -0.00011165 3.14439 9.43548 -8.94959
156 1 3.14445 3.14436 9.43565 -8.94959
157 1 6.28923 3.14411 9.43589 -8.94924
158 1 9.43456 3.14176 9.43575 -8.95453
159 1 12.5798 3.14423 9.43555 -8.9493
160 1 15.7247 3.14432 9.43542 -8.94958
161 1 18.8693 3.14438 9.4354 -8.9496
162 1 22.0136 6.28893 9.43549 -8.94949
163 1 3.14394 6.28878 9.43575 -8.94922
191 1 4.71445 7.86152 11.0085 -8.9506
181 1 17.2968 1.57218 11.0079 -8.9496
188 1 17.2971 4.71664 11.0079 -8.94953
190 1 1.57079 7.86126 11.0083 -8.94924
177 1 4.71681 1.57212 11.0082 -8.94955
184 1 4.71622 4.71648 11.0084 -8.94961
189 1 20.4414 4.71663 11.008 -8.94956
7 1 9.4345 -1.95224e-13 0.0010612 -8.9496
343 1 18.8692 9.43426 18.8703 -8.94958
48 1 15.7253 9.4341 22.0137 -8.94954
178 1 7.86168 1.57173 11.0085 -8.94971
179 1 11.0073 1.57175 11.0085 -8.94975
180 1 14.1521 1.57219 11.008 -8.94958
342 1 15.7248 9.43421 18.8702 -8.9496
182 1 20.4414 1.57219 11.0079 -8.9496
183 1 1.57181 4.71658 11.0081 -8.94957
45 1 6.28917 9.43422 22.0154 -8.94996
185 1 7.86043 4.71492 11.01 -8.94664
186 1 11.0084 4.71495 11.0096 -8.94707
187 1 14.1526 4.71665 11.0079 -8.94986
341 1 12.5798 9.43402 18.871 -8.95017
43 1 22.0139 9.43429 22.015 -8.94959
340 1 9.43392 9.43393 18.8719 -8.94976
339 1 6.28845 9.43404 18.8724 -8.95027
338 1 3.14356 9.43412 18.8717 -8.94954
337 1 22.0133 9.43424 18.8708 -8.94957
194 1 14.1544 7.86136 11.0075 -8.95012
195 1 17.2981 7.86135 11.0079 -8.94939
196 1 20.4414 7.8614 11.0081 -8.94954
197 1 -0.000218832 -2.56371e-13 12.5804 -8.9496
198 1 1.57199 1.57209 14.153 -8.94964
199 1 3.14443 -9.7499e-14 12.5806 -8.94962
200 1 4.71665 1.5719 14.1534 -8.94971
201 1 6.28921 2.5048e-14 12.5809 -8.94978
202 1 7.86188 1.57212 14.1533 -8.94966
203 1 9.43447 -1.30576e-13 12.5808 -8.94945
204 1 11.0069 1.57219 14.1532 -8.94958
205 1 12.5797 2.28238e-13 12.5808 -8.94973
206 1 14.1521 1.57204 14.1532 -8.94962
207 1 15.7244 -2.96731e-13 12.5804 -8.94964
208 1 17.2967 1.57217 14.1528 -8.94966
209 1 18.8691 -1.328e-13 12.5803 -8.94961
210 1 20.4413 1.57216 14.1528 -8.94961
211 1 22.0136 3.14434 12.5805 -8.94959
212 1 1.57149 4.71635 14.1534 -8.94979
213 1 3.14416 3.14422 12.5807 -8.94964
214 1 4.71573 4.71546 14.1543 -8.94998
215 1 6.28873 3.14363 12.5814 -8.94968
216 1 7.86155 4.71631 14.1541 -8.95025
217 1 9.4344 3.14423 12.581 -8.94929
218 1 11.0068 4.71667 14.1537 -8.94986
219 1 12.58 3.14383 12.5811 -8.94959
220 1 14.1525 4.71601 14.1536 -8.94968
221 1 15.7245 3.14438 12.5805 -8.94971
222 1 17.2969 4.71656 14.1531 -8.94974
223 1 18.8691 3.14439 12.5804 -8.9496
224 1 20.4412 4.71657 14.1531 -8.9496
225 1 -0.000777131 6.28887 12.5808 -8.94952
226 1 1.56962 7.86064 14.1547 -8.94981
227 1 3.14313 6.28859 12.5812 -8.9501
228 1 4.71102 7.85746 14.1587 -8.9434
229 1 6.28693 6.28674 12.5831 -8.95178
230 1 7.85941 7.85992 14.1577 -8.94833
231 1 9.43398 6.28893 12.5812 -8.95076
232 1 11.0064 7.86138 14.1556 -8.95014
233 1 12.5809 6.28731 12.5821 -8.95119
234 1 14.1548 7.85915 14.156 -8.94529
235 1 15.7252 6.28882 12.5807 -8.94998
236 1 17.2978 7.86105 14.1538 -8.94967
237 1 18.8693 6.28895 12.5806 -8.94954
238 1 20.4409 7.86133 14.1536 -8.94992
239 1 22.012 9.43394 12.5813 -8.95047
240 1 3.13848 9.4327 12.5836 -8.95158
241 1 6.27214 9.42352 12.5967 -8.97395
242 1 9.42842 9.43266 12.5877 -9.03219
243 1 12.5883 9.42542 12.5895 -9.00809
244 1 15.7279 9.43308 12.582 -8.94985
245 1 18.8698 9.43401 12.5809 -8.95017
246 1 -0.00026768 2.81497e-13 15.7253 -8.94962
247 1 1.57202 1.57203 17.298 -8.94956
248 1 3.14438 -5.27507e-14 15.7257 -8.94965
249 1 4.71695 1.57206 17.2982 -8.94967
250 1 6.28944 1.86473e-13 15.7257 -8.9497
251 1 7.86195 1.57215 17.2981 -8.94961
252 1 9.43444 -1.79905e-13 15.7256 -8.94964
253 1 11.0069 1.5722 17.2979 -8.9496
254 1 12.5794 1.00837e-13 15.7255 -8.94964
255 1 14.1518 1.57217 17.2978 -8.94966
256 1 15.7244 -7.96037e-15 15.7254 -8.94959
257 1 17.2967 1.57211 17.2978 -8.94957
258 1 18.869 6.20154e-13 15.7253 -8.94963
259 1 20.4413 1.57211 17.2978 -8.9496
260 1 -0.000434142 3.14423 15.7255 -8.94966
261 1 1.57148 4.71618 17.2986 -8.94909
262 1 3.14403 3.1439 15.726 -8.94962
263 1 4.7164 4.71621 17.2988 -8.94956
264 1 6.28921 3.14411 15.7261 -8.94976
265 1 7.86169 4.7165 17.2986 -8.94961
266 1 9.43436 3.14434 15.7259 -8.94958
267 1 11.0069 4.71667 17.2983 -8.94953
268 1 12.5794 3.1444 15.7257 -8.94971
269 1 14.152 4.71658 17.298 -8.94975
270 1 15.7245 3.1442 15.7256 -8.94956
271 1 17.2969 4.71645 17.298 -8.94931
272 1 18.869 3.14431 15.7254 -8.94965
273 1 20.4412 4.71647 17.2981 -8.94948
274 1 22.0128 6.28862 15.7262 -8.94955
275 1 1.57101 7.86127 17.2991 -8.94955
276 1 3.14239 6.28758 15.7276 -8.94788
277 1 4.71517 7.86071 17.3006 -8.94989
278 1 6.28809 6.28811 15.7276 -8.94925
279 1 7.86084 7.86094 17.3003 -8.94942
280 1 9.43404 6.28867 15.7268 -8.94908
281 1 11.0067 7.86138 17.2993 -8.94939
282 1 12.5795 6.28884 15.7263 -8.94998
283 1 14.1526 7.86107 17.299 -8.94967
284 1 15.7252 6.28836 15.7263 -8.94851
285 1 17.297 7.86153 17.2981 -8.94975
286 1 18.8692 6.28881 15.7258 -8.94958
287 1 20.441 7.86154 17.2983 -8.94958
288 1 22.0125 9.43409 15.7265 -8.94954
289 1 3.14178 9.43365 15.7281 -8.94931
290 1 6.28572 9.43298 15.7313 -8.95207
291 1 9.43244 9.43318 15.73 -8.9478
292 1 12.5808 9.43309 15.7291 -8.94985
293 1 15.7251 9.43415 15.7263 -8.94998
294 1 18.869 9.4342 15.7259 -8.9496
295 1 22.0137 -2.53414e-13 18.8702 -8.94952
296 1 1.57229 1.57212 20.4427 -8.94956
297 1 3.14464 -3.68725e-13 18.8704 -8.94962
298 1 4.71714 1.57216 20.4428 -8.94961
299 1 6.28956 -2.08091e-14 18.8704 -8.94962
300 1 7.86203 1.5722 20.4427 -8.94961
301 1 9.43446 1.44496e-13 18.8703 -8.9496
302 1 11.0069 1.57221 20.4426 -8.94961
303 1 12.5793 3.9881e-13 18.8702 -8.94961
304 1 14.1518 1.57218 20.4424 -8.94961
305 1 15.7242 -4.46335e-13 18.8701 -8.94963
306 1 17.2967 1.57212 20.4424 -8.94961
307 1 18.8691 -2.59012e-13 18.8701 -8.94956
308 1 20.4415 1.57212 20.4425 -8.94943
309 1 -0.000294002 3.14423 18.8704 -8.9494
310 1 1.57205 4.71656 20.443 -8.94953
311 1 3.14444 3.14421 18.8706 -8.94958
312 1 4.71685 4.71656 20.4431 -8.94955
313 1 6.28942 3.14431 18.8706 -8.94962
314 1 7.86189 4.71664 20.4429 -8.94956
315 1 9.43441 3.14441 18.8704 -8.9496
316 1 11.0069 4.71667 20.4426 -8.94956
317 1 12.5794 3.14442 18.8702 -8.9496
318 1 14.152 4.7166 20.4423 -8.9496
319 1 15.7243 3.14433 18.8701 -8.94965
320 1 17.297 4.71648 20.4423 -8.94948
321 1 18.8691 3.14426 18.8702 -8.94944
322 1 20.4415 4.71662 20.4426 -8.94957
323 1 22.0134 6.28898 18.8707 -8.94958
324 1 1.57187 7.86159 20.4432 -8.94958
325 1 3.14384 6.2887 18.8714 -8.94957
326 1 4.71649 7.86149 20.4436 -8.94985
327 1 6.28891 6.28876 18.8714 -8.94947
328 1 7.86156 7.86139 20.4434 -8.94967
329 1 9.43425 6.28894 18.8709 -8.94949
330 1 11.007 7.86143 20.4427 -8.94954
331 1 12.5795 6.28899 18.8705 -8.94955
332 1 14.1524 7.86136 20.4421 -8.94992
333 1 15.7247 6.28884 18.8703 -8.94958
334 1 17.2972 7.86155 20.4422 -8.94958
335 1 18.8692 6.28904 18.8703 -8.94962
336 1 20.4415 7.86165 20.4426 -8.94958
3 1 3.14479 4.49149e-13 22.015 -8.94962
41 1 18.8696 6.28899 22.0145 -8.94958
11 1 15.7243 -7.77453e-14 22.0147 -8.94962
19 1 6.28957 3.14442 22.0151 -8.94961
25 1 15.7245 3.14426 22.0145 -8.94967
31 1 3.14443 6.28904 22.0153 -8.94966
35 1 9.43443 6.28898 22.0149 -8.94949
37 1 12.5797 6.28891 22.0144 -8.94952
15 1 22.0139 3.14432 22.0149 -8.94949
46 1 9.4343 9.43398 22.0145 -8.94959
176 1 1.57213 1.57217 11.008 -8.9496
344 1 1.57227 11.007 1.57342 -8.94961
345 1 4.71671 11.007 1.57336 -8.94956
346 1 7.86197 11.007 1.57272 -8.9501
347 1 11.0074 11.007 1.56988 -8.95315
348 1 14.1536 11.007 1.57051 -8.94954
349 1 17.2981 11.007 1.57202 -8.94953
350 1 20.4421 11.007 1.57293 -8.94957
688 2 10.3238 11.007 9.36149 0.549088
352 1 1.57227 14.1522 1.57339 -8.94963
353 1 3.14432 12.5796 0.00150773 -8.94962
354 1 4.71674 14.1524 1.57334 -8.94978
511 1 18.8693 18.8695 9.4354 -8.9496
356 1 7.86171 14.1526 1.57289 -8.94951
538 1 17.2968 20.4417 11.0079 -8.9496
358 1 11.0072 14.1526 1.57211 -8.94924
359 1 12.5801 12.5799 -0.000586896 -8.95047
360 1 14.1535 14.1532 1.57088 -8.94982
510 1 15.7247 18.8696 9.43542 -8.94958
362 1 17.298 14.1526 1.57214 -8.94955
363 1 18.8697 12.5797 0.000503301 -8.94957
364 1 20.442 14.1523 1.57296 -8.94958
365 1 -1.13208e-05 15.7248 0.00106192 -8.94959
366 1 1.57231 17.2973 1.57335 -8.94953
509 1 12.5798 18.8697 9.43555 -8.9493
368 1 4.717 17.2972 1.57341 -8.94961
369 1 6.28928 15.7249 0.0013152 -8.94959
370 1 7.86203 17.2972 1.57339 -8.94958
508 1 9.43456 18.8721 9.43575 -8.95453
372 1 11.0071 17.2973 1.57303 -8.94957
507 1 6.28923 18.8698 9.43589 -8.94924
374 1 14.1523 17.2975 1.57265 -8.94979
375 1 15.7251 15.7253 5.24858e-05 -8.94955
376 1 17.2975 17.2977 1.57253 -8.94909
506 1 3.14445 18.8695 9.43565 -8.94959
378 1 20.4419 17.2973 1.57306 -8.94953
531 1 17.2971 17.2973 11.0079 -8.94953
380 1 1.57238 20.4417 1.57336 -8.94951
381 1 3.14468 18.8695 0.00116788 -8.94958
382 1 4.71721 20.4417 1.57345 -8.94967
505 1 -0.00011165 18.8695 9.43548 -8.94959
384 1 7.86209 20.4417 1.57344 -8.9496
385 1 9.43449 18.8695 0.0010537 -8.94959
386 1 11.007 20.4417 1.57327 -8.9496
387 1 12.5794 18.8695 0.000799092 -8.9496
388 1 14.1519 20.4418 1.57308 -8.94964
504 1 18.8697 15.725 9.43531 -8.94949
390 1 17.297 20.4419 1.57302 -8.94956
391 1 18.8694 18.8697 0.000718865 -8.9494
392 1 20.4417 20.4418 1.57325 -8.94956
393 1 1.57211 11.007 4.71785 -8.94956
394 1 4.71593 11.007 4.7172 -8.94815
395 1 7.86199 11.007 4.71506 -8.95359
396 1 11.0092 11.007 4.70338 -8.97422
397 1 14.1571 11.007 4.71189 -8.9472
398 1 17.2996 11.007 4.71604 -8.94933
399 1 20.4425 11.007 4.71746 -8.94974
400 1 0.000313286 12.5796 3.14543 -8.94961
401 1 1.57213 14.1524 4.71784 -8.94978
402 1 3.14436 12.5797 3.14555 -8.94958
403 1 4.71589 14.153 4.71712 -8.94855
404 1 6.28893 12.5798 3.14472 -8.95052
405 1 7.86147 14.1528 4.71657 -8.95094
406 1 9.43406 12.5806 3.14347 -8.94649
407 1 11.0072 14.1523 4.71584 -8.95061
408 1 12.5824 12.5812 3.13983 -8.95158
409 1 14.1575 14.1564 4.71227 -8.94343
410 1 15.7269 12.5802 3.14302 -8.94931
411 1 17.2994 14.1532 4.71631 -8.94989
412 1 18.8705 12.5798 3.14468 -8.94953
413 1 20.4424 14.1524 4.71755 -8.94984
414 1 22.0141 15.7249 3.14547 -8.94966
415 1 1.57228 17.2973 4.71802 -8.94961
416 1 3.14439 15.725 3.14551 -8.94936
417 1 4.71659 17.2977 4.71772 -8.94901
418 1 6.28924 15.725 3.14528 -8.94975
419 1 7.86219 17.2972 4.71798 -8.95024
420 1 9.43461 15.7251 3.14525 -8.94922
421 1 11.0073 17.2974 4.71748 -8.94961
422 1 12.58 15.7253 3.14439 -8.9501
423 1 14.1531 17.2984 4.71689 -8.94998
424 1 15.7264 15.7263 3.14355 -8.94789
425 1 17.2977 17.2977 4.71745 -8.94956
426 1 18.8702 15.7252 3.14489 -8.94957
427 1 20.4419 17.2974 4.71784 -8.94955
428 1 0.000108822 18.8696 3.14565 -8.94958
429 1 1.57239 20.4417 4.71817 -8.94967
430 1 3.14463 18.8696 3.14567 -8.94942
431 1 4.71694 20.4419 4.718 -8.9495
432 1 6.28961 18.8695 3.14575 -8.94979
433 1 7.8621 20.4417 4.71813 -8.94956
434 1 9.43458 18.8695 3.14565 -8.94959
435 1 11.0071 20.4418 4.71797 -8.94955
436 1 12.5796 18.8697 3.14532 -8.94964
437 1 14.1523 20.442 4.71773 -8.94971
438 1 15.7249 18.87 3.1451 -8.94962
439 1 17.2971 20.4418 4.71793 -8.94967
440 1 18.8695 18.8697 3.14542 -8.94958
441 1 20.4417 20.4417 4.71807 -8.94961
442 1 1.57136 11.007 7.86313 -8.95011
443 1 4.71366 11.007 7.86325 -8.95359
444 1 7.8482 11.007 7.84963 -9.0129
445 1 11.0457 11.007 7.775 -9.26537
446 1 14.1623 11.007 7.85696 -9.00911
447 1 17.3004 11.007 7.86173 -8.95097
448 1 20.4424 11.007 7.86266 -8.94994
449 1 22.0141 12.5797 6.29027 -8.94995
450 1 1.57157 14.1526 7.86282 -8.94951
451 1 3.1434 12.5798 6.29011 -8.95052
452 1 4.71521 14.1529 7.86268 -8.95093
453 1 6.28538 12.5812 6.28671 -8.94698
454 1 7.85583 14.1568 7.8572 -9.00959
455 1 9.43135 12.5806 6.29037 -9.03929
456 1 11.0136 14.1524 7.85872 -9.03341
457 1 12.5954 12.5903 6.27355 -8.97399
458 1 14.1565 14.154 7.86065 -8.9483
459 1 15.73 12.5809 6.28694 -8.95207
460 1 17.2991 14.153 7.86195 -8.94942
461 1 18.8712 12.5799 6.28956 -8.95026
462 1 20.4421 14.1525 7.86264 -8.94968
463 1 9.75904e-05 15.7249 6.29032 -8.94959
464 1 1.57218 17.2972 7.86307 -8.94958
465 1 3.14405 15.725 6.29036 -8.94975
466 1 4.71675 17.2972 7.86333 -8.95024
467 1 6.28775 15.7265 6.289 -8.94725
468 1 7.86051 17.2997 7.86175 -8.94811
469 1 9.43532 15.7251 6.2908 -8.95116
470 1 11.0088 17.299 7.86166 -8.94664
471 1 12.5819 15.7271 6.28821 -8.95179
472 1 14.1529 17.2976 7.8627 -8.95026
473 1 15.7264 15.7258 6.28923 -8.94924
474 1 17.2975 17.2974 7.86273 -8.94961
475 1 18.8702 15.7252 6.28995 -8.94947
476 1 20.4418 17.2973 7.86289 -8.94956
477 1 22.014 18.8695 6.29053 -8.94961
478 1 1.5723 20.4417 7.86306 -8.9496
479 1 3.14461 18.8695 6.29065 -8.94979
480 1 4.71699 20.4417 7.86317 -8.94956
481 1 6.28897 18.8702 6.29011 -8.94934
482 1 7.86175 20.4423 7.86289 -8.95005
483 1 9.43475 18.8698 6.29043 -8.94923
484 1 11.0074 20.4422 7.86283 -8.94971
485 1 12.5803 18.8703 6.28989 -8.94967
486 1 14.1522 20.4418 7.86296 -8.94966
487 1 15.7249 18.8698 6.29026 -8.94976
488 1 17.297 20.4418 7.86293 -8.94961
489 1 18.8695 18.8696 6.29039 -8.94962
490 1 20.4416 20.4417 7.86297 -8.94961
491 1 -0.000703184 12.5799 9.43542 -8.9496
492 1 3.14206 12.5807 9.43527 -8.9465
493 1 6.28891 12.5807 9.43263 -9.03928
494 1 9.41613 12.6565 9.41756 -9.37227
495 1 12.5866 12.5813 9.4297 -9.03208
496 1 15.7288 12.5807 9.43363 -8.94782
497 1 18.8707 12.58 9.43504 -8.94976
498 1 22.0136 15.725 9.43549 -8.94949
499 1 3.14394 15.7251 9.43575 -8.94922
500 1 6.28947 15.7251 9.43654 -8.95116
501 1 9.4344 15.7404 9.43568 -8.97215
502 1 12.58 15.725 9.4352 -8.95078
503 1 15.7256 15.7253 9.43517 -8.94908
512 1 1.56851 11.007 11.0085 -8.95316
687 2 9.3602 11.007 10.3258 0.549103
513 1 4.70192 11.007 11.0105 -8.97423
516 1 14.1663 11.007 11.0077 -9.01516
519 1 1.57079 14.1526 11.0083 -8.94924
520 1 4.71445 14.1524 11.0085 -8.9506
521 1 7.85735 14.1524 11.0149 -9.03343
522 1 11.0109 14.1532 11.0121 -9.05683
527 1 4.71622 17.2974 11.0084 -8.94961
532 1 20.4414 17.2973 11.008 -8.94956
534 1 4.71681 20.4418 11.0082 -8.94955
686 1 20.4415 20.4418 20.4425 -8.94943
685 1 18.8691 18.8696 18.8702 -8.94944
514 1 7.77347 11.007 11.0469 -9.26527
515 1 11.0754 11.007 11.0766 -9.32764
684 1 17.2967 20.4418 20.4424 -8.94961
517 1 17.3002 11.007 11.0078 -8.95306
518 1 20.4414 11.007 11.0081 -8.95068
683 1 15.7243 18.8696 18.8701 -8.94965
682 1 14.1518 20.4417 20.4424 -8.94961
681 1 12.5794 18.8695 18.8702 -8.9496
680 1 11.0069 20.4417 20.4426 -8.94961
523 1 14.1544 14.1525 11.0075 -8.95012
524 1 17.2981 14.1526 11.0079 -8.94939
525 1 20.4414 14.1525 11.0081 -8.94954
526 1 1.57181 17.2973 11.0081 -8.94957
389 1 15.7245 18.8696 22.0145 -8.94967
528 1 7.86043 17.299 11.01 -8.94664
529 1 11.0084 17.2989 11.0096 -8.94707
530 1 14.1526 17.2973 11.0079 -8.94986
679 1 9.43441 18.8695 18.8704 -8.9496
383 1 6.28957 18.8695 22.0151 -8.94961
678 1 7.86203 20.4417 20.4427 -8.94961
377 1 18.8696 15.7249 22.0145 -8.94958
535 1 7.86168 20.4422 11.0085 -8.94971
536 1 11.0073 20.4422 11.0085 -8.94975
537 1 14.1521 20.4417 11.008 -8.94958
677 1 6.28942 18.8696 18.8706 -8.94962
539 1 20.4414 20.4417 11.0079 -8.9496
540 1 1.56922 11.007 14.1548 -8.94954
541 1 4.71057 11.007 14.1583 -8.94719
542 1 7.85565 11.007 14.1636 -9.00911
543 1 11.0065 11.007 14.1675 -9.01516
544 1 14.1535 11.007 14.1547 -8.94965
545 1 17.2976 11.007 14.1536 -8.94918
546 1 20.4407 11.007 14.1536 -8.94974
547 1 22.012 12.58 12.5813 -8.95047
548 1 1.56962 14.1533 14.1547 -8.94981
549 1 3.13848 12.5812 12.5836 -8.95158
550 1 4.71102 14.1564 14.1587 -8.9434
551 1 6.27214 12.5904 12.5967 -8.97395
552 1 7.85941 14.154 14.1577 -8.94833
553 1 9.42842 12.5812 12.5877 -9.03219
554 1 11.0064 14.1525 14.1556 -8.95014
555 1 12.5883 12.5885 12.5895 -9.00809
556 1 14.1548 14.1547 14.156 -8.94529
557 1 15.7279 12.5808 12.582 -8.94985
558 1 17.2978 14.1528 14.1538 -8.94967
559 1 18.8698 12.5799 12.5809 -8.95017
560 1 20.4409 14.1526 14.1536 -8.94992
561 1 -0.000777131 15.725 12.5808 -8.94952
562 1 1.57149 17.2976 14.1534 -8.94979
563 1 3.14313 15.7253 12.5812 -8.9501
564 1 4.71573 17.2984 14.1543 -8.94998
565 1 6.28693 15.7272 12.5831 -8.95178
566 1 7.86155 17.2976 14.1541 -8.95025
567 1 9.43398 15.725 12.5812 -8.95076
568 1 11.0068 17.2972 14.1537 -8.94986
569 1 12.5809 15.7266 12.5821 -8.95119
570 1 14.1525 17.2979 14.1536 -8.94968
571 1 15.7252 15.7251 12.5807 -8.94998
572 1 17.2969 17.2973 14.1531 -8.94974
573 1 18.8693 15.7249 12.5806 -8.94954
574 1 20.4412 17.2973 14.1531 -8.9496
575 1 22.0136 18.8696 12.5805 -8.94959
576 1 1.57199 20.4418 14.153 -8.94964
577 1 3.14416 18.8697 12.5807 -8.94964
578 1 4.71665 20.442 14.1534 -8.94971
579 1 6.28873 18.8703 12.5814 -8.94968
580 1 7.86188 20.4418 14.1533 -8.94966
581 1 9.4344 18.8697 12.581 -8.94929
582 1 11.0069 20.4417 14.1532 -8.94958
583 1 12.58 18.8701 12.5811 -8.94959
584 1 14.1521 20.4419 14.1532 -8.94962
585 1 15.7245 18.8695 12.5805 -8.94971
586 1 17.2967 20.4417 14.1528 -8.94966
587 1 18.8691 18.8695 12.5804 -8.9496
588 1 20.4413 20.4417 14.1528 -8.94961
589 1 1.57085 11.007 17.2992 -8.94953
590 1 4.71486 11.007 17.3008 -8.94933
591 1 7.86058 11.007 17.3017 -8.95098
592 1 11.0066 11.007 17.3014 -8.95307
593 1 14.1525 11.007 17.2988 -8.94918
594 1 17.297 11.007 17.2981 -8.94956
595 1 20.441 11.007 17.2984 -8.94957
596 1 22.0125 12.5798 15.7265 -8.94954
597 1 1.57101 14.1526 17.2991 -8.94955
598 1 3.14178 12.5803 15.7281 -8.94931
599 1 4.71517 14.1532 17.3006 -8.94989
600 1 6.28572 12.5809 15.7313 -8.95207
601 1 7.86084 14.153 17.3003 -8.94942
602 1 9.43244 12.5807 15.73 -8.9478
603 1 11.0067 14.1525 17.2993 -8.94939
604 1 12.5808 12.5808 15.7291 -8.94985
605 1 14.1526 14.1528 17.299 -8.94967
606 1 15.7251 12.5798 15.7263 -8.94998
607 1 17.297 14.1524 17.2981 -8.94975
608 1 18.869 12.5797 15.7259 -8.9496
609 1 20.441 14.1524 17.2983 -8.94958
610 1 22.0128 15.7253 15.7262 -8.94955
611 1 1.57148 17.2977 17.2986 -8.94909
612 1 3.14239 15.7263 15.7276 -8.94788
613 1 4.7164 17.2977 17.2988 -8.94956
614 1 6.28809 15.7258 15.7276 -8.94925
615 1 7.86169 17.2974 17.2986 -8.94961
616 1 9.43404 15.7252 15.7268 -8.94908
617 1 11.0069 17.2972 17.2983 -8.94953
618 1 12.5795 15.7251 15.7263 -8.94998
619 1 14.152 17.2973 17.298 -8.94975
620 1 15.7252 15.7255 15.7263 -8.94851
621 1 17.2969 17.2974 17.298 -8.94931
622 1 18.8692 15.7251 15.7258 -8.94958
623 1 20.4412 17.2974 17.2981 -8.94948
624 1 -0.000434142 18.8697 15.7255 -8.94966
625 1 1.57202 20.4419 17.298 -8.94956
626 1 3.14403 18.87 15.726 -8.94962
627 1 4.71695 20.4418 17.2982 -8.94967
628 1 6.28921 18.8698 15.7261 -8.94976
629 1 7.86195 20.4418 17.2981 -8.94961
630 1 9.43436 18.8696 15.7259 -8.94958
631 1 11.0069 20.4417 17.2979 -8.9496
632 1 12.5794 18.8695 15.7257 -8.94971
633 1 14.1518 20.4417 17.2978 -8.94966
634 1 15.7245 18.8697 15.7256 -8.94956
635 1 17.2967 20.4418 17.2978 -8.94957
636 1 18.869 18.8696 15.7254 -8.94965
637 1 20.4413 20.4418 17.2978 -8.9496
638 1 1.57181 11.007 20.4433 -8.94957
639 1 4.71636 11.007 20.4438 -8.94974
640 1 7.86156 11.007 20.4437 -8.94994
641 1 11.0069 11.007 20.4427 -8.95068
642 1 14.1525 11.007 20.442 -8.94975
643 1 17.2972 11.007 20.4422 -8.94957
644 1 20.4415 11.007 20.4426 -8.94958
645 1 22.0133 12.5797 18.8708 -8.94957
646 1 1.57187 14.1523 20.4432 -8.94958
647 1 3.14356 12.5798 18.8717 -8.94954
648 1 4.71649 14.1524 20.4436 -8.94985
649 1 6.28845 12.5799 18.8724 -8.95027
650 1 7.86156 14.1525 20.4434 -8.94967
651 1 9.43392 12.58 18.8719 -8.94976
652 1 11.007 14.1525 20.4427 -8.94954
653 1 12.5798 12.5799 18.871 -8.95017
654 1 14.1524 14.1525 20.4421 -8.94992
655 1 15.7248 12.5797 18.8702 -8.9496
656 1 17.2972 14.1523 20.4422 -8.94958
657 1 18.8692 12.5796 18.8703 -8.94958
658 1 20.4415 14.1523 20.4426 -8.94958
659 1 22.0134 15.7249 18.8707 -8.94958
660 1 1.57205 17.2973 20.443 -8.94953
661 1 3.14384 15.7252 18.8714 -8.94957
662 1 4.71685 17.2973 20.4431 -8.94955
663 1 6.28891 15.7251 18.8714 -8.94947
664 1 7.86189 17.2973 20.4429 -8.94956
665 1 9.43425 15.725 18.8709 -8.94949
666 1 11.0069 17.2972 20.4426 -8.94956
667 1 12.5795 15.7249 18.8705 -8.94955
668 1 14.152 17.2973 20.4423 -8.9496
669 1 15.7247 15.7251 18.8703 -8.94958
670 1 17.297 17.2974 20.4423 -8.94948
671 1 18.8692 15.7249 18.8703 -8.94962
672 1 20.4415 17.2973 20.4426 -8.94957
673 1 -0.000294002 18.8697 18.8704 -8.9494
674 1 1.57229 20.4418 20.4427 -8.94956
675 1 3.14444 18.8697 18.8706 -8.94958
676 1 4.71714 20.4417 20.4428 -8.94961
351 1 22.0139 12.5796 22.015 -8.94959
355 1 6.28917 12.5797 22.0154 -8.94996
361 1 15.7253 12.5798 22.0137 -8.94954
367 1 3.14443 15.7249 22.0153 -8.94966
371 1 9.43443 15.7249 22.0149 -8.94949
373 1 12.5797 15.725 22.0144 -8.94952
357 1 9.4343 12.5799 22.0145 -8.94959
379 1 22.0139 18.8696 22.0149 -8.94949
533 1 1.57213 20.4417 11.008 -8.9496
