ITEM: TIMESTEP
99
ITEM: NUMBER OF ATOMS
688
ITEM: BOX BOUNDS pp pp pp
0.0000000000000000e+00 2.2013900999999997e+01
0.0000000000000000e+00 2.2013900999999997e+01
0.0000000000000000e+00 2.2013900999999997e+01
ITEM: ATOMS id type x y z c_pot
1 1 6.54663e-05 -3.35259e-14 0.000742479 -8.94953
2 1 1.57244 1.57217 1.57306 -8.94952
175 1 18.8707 9.43386 9.43503 -8.94978
4 1 4.71729 1.57223 1.57321 -8.94967
5 1 6.28973 1.29677e-15 0.000927054 -8.9496
6 1 7.86206 1.57227 1.57332 -8.9496
174 1 15.7292 9.43308 9.43397 -8.94783
8 1 11.0068 1.57224 1.57326 -8.9496
9 1 12.5792 -1.16306e-15 0.000851904 -8.94961
10 1 14.1517 1.57214 1.57307 -8.94964
173 1 12.5871 9.43256 9.43043 -9.03162
12 1 17.2968 1.57204 1.5729 -8.94957
13 1 18.8691 2.38238e-14 0.000667224 -8.94952
14 1 20.4416 1.57211 1.573 -8.94955
193 1 11.0111 7.86101 11.0126 -9.05716
16 1 1.57231 4.71665 1.57309 -8.94952
17 1 3.1448 3.14439 0.000917364 -8.94959
18 1 4.71704 4.71674 1.57324 -8.94962
172 1 9.41588 9.35818 9.41834 -9.3729
20 1 7.86197 4.71683 1.57341 -8.94958
21 1 9.43442 3.14453 0.00101711 -8.94959
22 1 11.0069 4.71676 1.57319 -8.94957
23 1 12.5793 3.14444 0.0008532 -8.9496
24 1 14.152 4.71646 1.5728 -8.94979
171 1 6.28839 9.43326 9.43281 -9.03895
26 1 17.2973 4.71619 1.57253 -8.9491
27 1 18.8693 3.1442 0.000626284 -8.9494
28 1 20.4418 4.71653 1.57287 -8.94953
29 1 -2.09085e-05 6.28908 0.000893252 -8.94959
30 1 1.5722 7.86165 1.57318 -8.94963
170 1 3.14161 9.43319 9.43511 -8.94651
32 1 4.71668 7.8616 1.57323 -8.94979
33 1 6.28931 6.28909 0.00123056 -8.94958
34 1 7.86161 7.86143 1.57307 -8.94948
169 1 -0.00090269 9.43389 9.43521 -8.94962
36 1 11.007 7.86141 1.5725 -8.94922
168 1 18.8697 6.28876 9.4352 -8.94949
38 1 14.1532 7.86073 1.57123 -8.94982
39 1 15.7249 6.28865 0.000236546 -8.94956
40 1 17.2977 7.86128 1.57228 -8.94956
167 1 15.7257 6.28857 9.4353 -8.94908
42 1 20.4419 7.86157 1.57285 -8.94958
166 1 12.5801 6.28898 9.43558 -8.95083
44 1 3.14433 9.43427 0.00133788 -8.94962
165 1 9.43436 6.2738 9.43603 -8.97206
192 1 7.85724 7.86169 11.0151 -9.03363
47 1 12.58 9.434 -0.000198249 -8.95047
164 1 6.2893 6.2889 9.43659 -8.95119
49 1 18.8696 9.43422 0.000587972 -8.94957
50 1 22.0139 -2.03152e-15 3.14537 -8.94962
51 1 1.57236 1.57218 4.71779 -8.94966
52 1 3.14475 1.37907e-14 3.14538 -8.94951
53 1 4.71695 1.57209 4.71775 -8.94951
54 1 6.28966 1.96948e-17 3.14561 -8.94963
55 1 7.86202 1.57227 4.71806 -8.94956
56 1 9.43443 -4.19583e-15 3.14568 -8.94962
57 1 11.0069 1.57222 4.71799 -8.94954
58 1 12.5792 -9.93752e-15 3.14552 -8.94962
59 1 14.152 1.57195 4.71769 -8.94971
60 1 15.7243 -9.92191e-15 3.14529 -8.94964
61 1 17.2968 1.57205 4.71771 -8.94967
62 1 18.8692 6.81567e-15 3.14532 -8.94962
63 1 20.4416 1.57213 4.71771 -8.94961
64 1 4.51279e-05 3.14433 3.14533 -8.94957
65 1 1.57217 4.71662 4.7177 -8.9496
66 1 3.14465 3.14435 3.14538 -8.94943
67 1 4.71653 4.71633 4.71758 -8.94904
68 1 6.2896 3.14454 3.14564 -8.9498
69 1 7.86207 4.71689 4.71811 -8.95025
70 1 9.43443 3.14453 3.1457 -8.9496
71 1 11.007 4.71673 4.71775 -8.94962
72 1 12.5794 3.14436 3.14541 -8.94965
73 1 14.1528 4.71559 4.71706 -8.95
74 1 15.7246 3.14395 3.14507 -8.94963
75 1 17.2974 4.71619 4.71736 -8.94955
76 1 18.8693 3.14419 3.14521 -8.94958
77 1 20.4418 4.7165 4.71755 -8.94954
78 1 22.014 6.28901 3.14521 -8.94966
79 1 1.57189 7.8615 4.71757 -8.94978
80 1 3.14429 6.28894 3.14528 -8.94935
81 1 4.71567 7.86094 4.71706 -8.94852
82 1 6.28917 6.28904 3.14535 -8.94977
83 1 7.86129 7.86127 4.71697 -8.95094
84 1 9.43442 6.28901 3.14556 -8.94923
85 1 11.007 7.86177 4.71646 -8.95063
86 1 12.5797 6.28878 3.14475 -8.95011
87 1 14.1572 7.85759 4.71272 -8.94351
88 1 15.7261 6.28766 3.14371 -8.94791
89 1 17.2991 7.86072 4.71639 -8.94989
90 1 18.87 6.28867 3.14479 -8.94957
91 1 20.4422 7.86142 4.71735 -8.94984
92 1 9.85873e-05 9.43424 3.14522 -8.94961
93 1 3.14417 9.43424 3.14537 -8.94958
94 1 6.28875 9.43417 3.14484 -8.95055
95 1 9.43384 9.43334 3.14395 -8.9464
96 1 12.5821 9.4328 3.14037 -8.95155
97 1 15.7266 9.43369 3.14334 -8.94934
98 1 18.8702 9.43411 3.14467 -8.94953
99 1 -1.90938e-05 -1.68548e-14 6.29015 -8.9496
100 1 1.57226 1.57217 7.86266 -8.94961
101 1 3.14469 2.28088e-15 6.29029 -8.94964
102 1 4.71695 1.5722 7.86288 -8.94957
103 1 6.28931 1.16719e-15 6.29025 -8.94974
104 1 7.86168 1.57171 7.86279 -8.95003
105 1 9.43448 2.30746e-14 6.29045 -8.94946
106 1 11.0073 1.5718 7.86281 -8.9497
107 1 12.5796 1.91979e-14 6.29027 -8.94977
108 1 14.1521 1.57213 7.86288 -8.94967
109 1 15.7244 2.30795e-14 6.29028 -8.94971
110 1 17.2968 1.57211 7.86268 -8.94961
111 1 18.8691 3.06035e-14 6.29015 -8.94962
112 1 20.4415 1.57214 7.86258 -8.94961
113 1 22.0139 3.14435 6.29014 -8.94961
114 1 1.57204 4.71659 7.86272 -8.94958
115 1 3.14454 3.14442 6.29033 -8.9498
116 1 4.71662 4.71671 7.86316 -8.95025
117 1 6.28891 3.14384 6.29002 -8.94934
118 1 7.86042 4.7144 7.86188 -8.94808
119 1 9.4346 3.14431 6.29052 -8.94922
120 1 11.0086 4.71515 7.86192 -8.94662
121 1 12.58 3.14376 6.28998 -8.94967
122 1 14.1528 4.71633 7.86283 -8.95027
123 1 15.7247 3.14411 6.29018 -8.94976
124 1 17.2974 4.71639 7.86262 -8.9496
125 1 18.8693 3.14424 6.2901 -8.94962
126 1 20.4416 4.71651 7.86257 -8.94956
127 1 -0.000109797 6.28889 6.29 -8.94958
128 1 1.57128 7.86122 7.86256 -8.9495
129 1 3.14385 6.28886 6.29013 -8.94972
130 1 4.71486 7.86102 7.86261 -8.95085
131 1 6.28762 6.28765 6.28914 -8.94736
132 1 7.8557 7.85752 7.85778 -9.00952
133 1 9.43514 6.28915 6.29126 -8.9512
134 1 11.0134 7.86185 7.8595 -9.03348
135 1 12.5817 6.28696 6.28867 -8.95181
136 1 14.1565 7.8599 7.86106 -8.94824
137 1 15.7262 6.28811 6.28937 -8.94922
138 1 17.2991 7.86084 7.86202 -8.9494
139 1 18.87 6.28865 6.28979 -8.94946
140 1 20.4419 7.86127 7.86243 -8.94968
141 1 22.0138 9.43417 6.29001 -8.94995
142 1 3.14304 9.43409 6.28994 -8.95051
143 1 6.28497 9.43267 6.28685 -8.94694
144 1 9.43117 9.43352 6.29124 -9.03899
145 1 12.5951 9.42373 6.27435 -8.97417
146 1 15.7299 9.43297 6.28727 -8.95206
147 1 18.871 9.43401 6.28951 -8.95025
148 1 -9.93884e-05 4.32613e-15 9.43506 -8.9496
149 1 3.14458 1.21752e-14 9.43522 -8.94962
150 1 6.28934 6.84901e-15 9.43548 -8.94948
151 1 9.4345 -3.82086e-14 9.43558 -8.95097
152 1 12.5796 -1.07902e-14 9.43549 -8.94945
153 1 15.7244 -2.63962e-16 9.43528 -8.94964
154 1 18.8691 7.41751e-15 9.43509 -8.9496
155 1 -0.000157997 3.14431 9.43512 -8.94959
156 1 3.14439 3.14434 9.43533 -8.94959
157 1 6.28919 3.1442 9.43575 -8.94925
158 1 9.43451 3.14191 9.43576 -8.95452
159 1 12.5798 3.14429 9.43559 -8.94931
160 1 15.7247 3.14427 9.43533 -8.94958
161 1 18.8693 3.14428 9.43514 -8.94959
162 1 22.0135 6.28882 9.43522 -8.94949
163 1 3.14374 6.28875 9.43554 -8.94922
191 1 4.71419 7.86151 11.0084 -8.95058
181 1 17.2968 1.57213 11.0077 -8.9496
188 1 17.2972 4.7165 11.0079 -8.94952
190 1 1.57062 7.86117 11.0081 -8.94923
177 1 4.71682 1.57213 11.0079 -8.94955
184 1 4.71615 4.7165 11.0083 -8.94961
189 1 20.4415 4.71649 11.0077 -8.94956
7 1 9.43443 1.19847e-14 0.000945153 -8.9496
343 1 18.8693 9.43422 18.8705 -8.94958
48 1 15.7252 9.43409 22.014 -8.94955
178 1 7.86169 1.57178 11.0084 -8.94971
179 1 11.0073 1.5718 11.0084 -8.94973
180 1 14.1521 1.57217 11.0079 -8.94959
342 1 15.725 9.43417 18.8706 -8.9496
182 1 20.4415 1.57213 11.0076 -8.9496
183 1 1.57175 4.71649 11.0079 -8.94957
45 1 6.28917 9.43426 22.0154 -8.94996
185 1 7.86042 4.71507 11.01 -8.94667
186 1 11.0085 4.71511 11.0097 -8.94704
187 1 14.1527 4.71659 11.008 -8.94987
341 1 12.5799 9.43402 18.8714 -8.9502
43 1 22.0138 9.43428 22.0149 -8.94959
340 1 9.43407 9.43396 18.872 -8.94973
339 1 6.28858 9.43407 18.8723 -8.95028
338 1 3.14367 9.43411 18.8715 -8.94954
337 1 22.0134 9.43421 18.8708 -8.94957
194 1 14.1549 7.86128 11.008 -8.95002
195 1 17.2984 7.86122 11.008 -8.94938
196 1 20.4415 7.86127 11.008 -8.94955
197 1 -0.00015409 -3.84452e-14 12.5801 -8.94961
198 1 1.57209 1.57205 14.1527 -8.94964
199 1 3.14449 2.14317e-15 12.5802 -8.94962
200 1 4.71675 1.5719 14.1531 -8.94971
201 1 6.28926 2.46143e-14 12.5806 -8.94978
202 1 7.86197 1.57216 14.1531 -8.94964
203 1 9.43451 -6.70054e-15 12.5806 -8.94943
204 1 11.007 1.57222 14.1531 -8.94957
205 1 12.5797 5.49821e-16 12.5807 -8.94973
206 1 14.1522 1.57201 14.1531 -8.94963
207 1 15.7244 2.44496e-14 12.5803 -8.94965
208 1 17.2968 1.5721 14.1527 -8.94966
209 1 18.8691 -2.19081e-14 12.5801 -8.94961
210 1 20.4414 1.57209 14.1526 -8.94961
211 1 22.0136 3.14424 12.5802 -8.94959
212 1 1.57157 4.71625 14.1532 -8.94978
213 1 3.14418 3.14418 12.5804 -8.94964
214 1 4.7158 4.71547 14.1541 -8.94998
215 1 6.28877 3.14368 12.5812 -8.94969
216 1 7.86167 4.71644 14.154 -8.95025
217 1 9.43447 3.14434 12.5809 -8.94927
218 1 11.007 4.71676 14.1537 -8.94985
219 1 12.5801 3.14385 12.5811 -8.9496
220 1 14.1527 4.71593 14.1537 -8.94971
221 1 15.7247 3.14428 12.5804 -8.94971
222 1 17.2972 4.71639 14.1531 -8.94973
223 1 18.8692 3.14426 12.5802 -8.9496
224 1 20.4413 4.71641 14.153 -8.94959
225 1 -0.000743194 6.28873 12.5806 -8.94951
226 1 1.56965 7.86055 14.1545 -8.9498
227 1 3.14306 6.28853 12.581 -8.95009
228 1 4.71102 7.85745 14.1586 -8.94336
229 1 6.28691 6.28681 12.5831 -8.95177
230 1 7.85963 7.86012 14.1576 -8.94847
231 1 9.43416 6.28919 12.5813 -8.9507
232 1 11.0067 7.86152 14.1558 -8.95021
233 1 12.5812 6.28732 12.5823 -8.9513
234 1 14.1554 7.85897 14.1564 -8.9451
235 1 15.7255 6.28866 12.5809 -8.94995
236 1 17.2983 7.86089 14.154 -8.94965
237 1 18.8695 6.28877 12.5806 -8.94954
238 1 20.4411 7.86119 14.1536 -8.94992
239 1 22.012 9.43388 12.5812 -8.95048
240 1 3.13828 9.43265 12.5835 -8.95154
241 1 6.27199 9.42358 12.5967 -8.97387
242 1 9.42876 9.43307 12.5877 -9.03263
243 1 12.5893 9.42521 12.5903 -9.00793
244 1 15.7286 9.43297 12.5824 -8.94991
245 1 18.8701 9.43393 12.581 -8.95018
246 1 -0.000134958 1.21359e-14 15.7251 -8.94962
247 1 1.57218 1.57201 17.2978 -8.94956
248 1 3.14452 1.67765e-15 15.7254 -8.94965
249 1 4.71711 1.57207 17.2979 -8.94967
250 1 6.28956 1.67865e-14 15.7254 -8.9497
251 1 7.86206 1.57219 17.2978 -8.94961
252 1 9.43451 1.62738e-16 15.7254 -8.94963
253 1 11.0069 1.57222 17.2978 -8.9496
254 1 12.5794 2.9618e-14 15.7254 -8.94964
255 1 14.1518 1.57216 17.2978 -8.94966
256 1 15.7244 1.71231e-14 15.7254 -8.9496
257 1 17.2968 1.57207 17.2977 -8.94957
258 1 18.8691 1.21666e-14 15.7251 -8.94963
259 1 20.4415 1.57206 17.2976 -8.9496
260 1 -0.000293552 3.14414 15.7254 -8.94966
261 1 1.57163 4.71612 17.2984 -8.94909
262 1 3.14417 3.14386 15.7258 -8.94962
263 1 4.71657 4.71624 17.2986 -8.94958
264 1 6.28935 3.14417 15.7258 -8.94976
265 1 7.86183 4.71658 17.2984 -8.94961
266 1 9.43447 3.14441 15.7257 -8.94958
267 1 11.007 4.71672 17.2983 -8.94953
268 1 12.5795 3.14439 15.7256 -8.94971
269 1 14.1521 4.71653 17.2982 -8.94976
270 1 15.7246 3.1441 15.7256 -8.94956
271 1 17.2971 4.71632 17.2981 -8.94929
272 1 18.8692 3.14419 15.7253 -8.94964
273 1 20.4413 4.71635 17.2981 -8.94947
274 1 22.013 6.2885 15.7261 -8.94954
275 1 1.57114 7.86122 17.299 -8.94956
276 1 3.14249 6.28755 15.7274 -8.94787
277 1 4.7153 7.86073 17.3004 -8.94989
278 1 6.28825 6.2882 15.7274 -8.94929
279 1 7.86102 7.86103 17.3002 -8.9494
280 1 9.43423 6.28879 15.7268 -8.9491
281 1 11.007 7.86143 17.2994 -8.94938
282 1 12.5798 6.28885 15.7265 -8.95
283 1 14.1529 7.86099 17.2994 -8.94967
284 1 15.7255 6.28821 15.7266 -8.94846
285 1 17.2973 7.86142 17.2984 -8.94974
286 1 18.8694 6.28865 15.7259 -8.94957
287 1 20.4412 7.86144 17.2984 -8.94958
288 1 22.0126 9.43403 15.7264 -8.94954
289 1 3.14184 9.43362 15.728 -8.9493
290 1 6.28583 9.433 15.7312 -8.95205
291 1 9.43275 9.43325 15.7301 -8.94766
292 1 12.5813 9.43307 15.7296 -8.94985
293 1 15.7256 9.43405 15.7267 -8.94996
294 1 18.8694 9.43412 15.7261 -8.9496
295 1 22.0139 1.82324e-14 18.87 -8.94952
296 1 1.57243 1.57212 20.4424 -8.94956
297 1 3.14482 -2.7624e-14 18.8701 -8.94962
298 1 4.71729 1.57218 20.4425 -8.94962
299 1 6.28969 -2.7585e-14 18.8701 -8.94962
300 1 7.86208 1.57224 20.4425 -8.94961
301 1 9.43448 -2.76522e-14 18.8701 -8.9496
302 1 11.0068 1.57224 20.4425 -8.94961
303 1 12.5793 -2.69496e-14 18.8701 -8.94961
304 1 14.1517 1.57218 20.4424 -8.94961
305 1 15.7242 -2.8306e-14 18.87 -8.94964
306 1 17.2966 1.5721 20.4423 -8.94961
307 1 18.8691 -4.37081e-14 18.87 -8.94956
308 1 20.4415 1.57209 20.4423 -8.94943
309 1 -0.000160853 3.14417 18.8703 -8.9494
310 1 1.57216 4.71654 20.4427 -8.94953
311 1 3.14461 3.14421 18.8704 -8.94959
312 1 4.71698 4.71663 20.4429 -8.94955
313 1 6.28956 3.14437 18.8704 -8.94962
314 1 7.86195 4.71675 20.4428 -8.94956
315 1 9.43446 3.14448 18.8703 -8.9496
316 1 11.0069 4.71676 20.4427 -8.94956
317 1 12.5793 3.14444 18.8702 -8.9496
318 1 14.1519 4.71662 20.4425 -8.9496
319 1 15.7243 3.14428 18.8702 -8.94965
320 1 17.297 4.71643 20.4423 -8.94948
321 1 18.8692 3.14419 18.8701 -8.94943
322 1 20.4415 4.71656 20.4425 -8.94956
323 1 22.0135 6.28891 18.8706 -8.94958
324 1 1.57195 7.86158 20.443 -8.94958
325 1 3.14398 6.2887 18.8712 -8.94957
326 1 4.71658 7.86152 20.4435 -8.94985
327 1 6.28905 6.28883 18.8712 -8.94947
328 1 7.86163 7.86147 20.4434 -8.94965
329 1 9.43436 6.28902 18.8709 -8.94949
330 1 11.007 7.86149 20.4429 -8.94952
331 1 12.5796 6.28901 18.8706 -8.94954
332 1 14.1524 7.86135 20.4424 -8.94993
333 1 15.7248 6.28876 18.8705 -8.94957
334 1 17.2972 7.86151 20.4424 -8.94959
335 1 18.8693 6.28893 18.8704 -8.94961
336 1 20.4415 7.8616 20.4426 -8.94958
3 1 3.14492 5.60482e-15 22.0147 -8.94962
41 1 18.8695 6.28895 22.0145 -8.94958
11 1 15.7241 4.51305e-14 22.0146 -8.94962
19 1 6.28964 3.1445 22.0149 -8.94961
25 1 15.7243 3.14426 22.0146 -8.94967
31 1 3.14448 6.28907 22.0151 -8.94966
35 1 9.43436 6.2891 22.015 -8.94948
37 1 12.5795 6.28899 22.0146 -8.94951
15 1 22.0139 3.1443 22.0147 -8.94949
46 1 9.43423 9.43402 22.0148 -8.94958
176 1 1.57214 1.57213 11.0076 -8.9496
344 1 1.57216 11.007 1.57323 -8.94961
345 1 4.71662 11.007 1.57328 -8.94957
346 1 7.86186 11.007 1.57294 -8.95012
347 1 11.0072 11.007 1.57032 -8.95318
348 1 14.1534 11.007 1.57094 -8.94954
349 1 17.2978 11.007 1.57221 -8.94953
350 1 20.4419 11.007 1.57285 -8.94957
688 2 10.3235 11.007 9.36375 0.549726
352 1 1.5722 14.1522 1.57318 -8.94963
353 1 3.14433 12.5796 0.00133788 -8.94962
354 1 4.71668 14.1523 1.57323 -8.94979
511 1 18.8693 18.8696 9.43514 -8.94959
356 1 7.86161 14.1525 1.57307 -8.94948
538 1 17.2968 20.4418 11.0077 -8.9496
358 1 11.007 14.1525 1.5725 -8.94922
359 1 12.58 12.5799 -0.000198249 -8.95047
360 1 14.1532 14.1532 1.57123 -8.94982
510 1 15.7247 18.8696 9.43533 -8.94958
362 1 17.2977 14.1526 1.57228 -8.94956
363 1 18.8696 12.5797 0.000587972 -8.94957
364 1 20.4419 14.1523 1.57285 -8.94958
365 1 -2.09085e-05 15.7248 0.000893252 -8.94959
366 1 1.57231 17.2973 1.57309 -8.94952
509 1 12.5798 18.8696 9.43559 -8.94931
368 1 4.71704 17.2972 1.57324 -8.94962
369 1 6.28931 15.7248 0.00123056 -8.94958
370 1 7.86197 17.2971 1.57341 -8.94958
508 1 9.43451 18.872 9.43576 -8.95452
372 1 11.0069 17.2971 1.57319 -8.94957
507 1 6.28919 18.8697 9.43575 -8.94925
374 1 14.152 17.2974 1.5728 -8.94979
375 1 15.7249 15.7252 0.000236546 -8.94956
376 1 17.2973 17.2977 1.57253 -8.9491
506 1 3.14439 18.8696 9.43533 -8.94959
378 1 20.4418 17.2974 1.57287 -8.94953
531 1 17.2972 17.2974 11.0079 -8.94952
380 1 1.57244 20.4417 1.57306 -8.94952
381 1 3.1448 18.8695 0.000917364 -8.94959
382 1 4.71729 20.4417 1.57321 -8.94967
505 1 -0.000157997 18.8696 9.43512 -8.94959
384 1 7.86206 20.4416 1.57332 -8.9496
385 1 9.43442 18.8694 0.00101711 -8.94959
386 1 11.0068 20.4417 1.57326 -8.9496
387 1 12.5793 18.8695 0.0008532 -8.9496
388 1 14.1517 20.4418 1.57307 -8.94964
504 1 18.8697 15.7251 9.4352 -8.94949
390 1 17.2968 20.4419 1.5729 -8.94957
391 1 18.8693 18.8697 0.000626284 -8.9494
392 1 20.4416 20.4418 1.573 -8.94955
393 1 1.5718 11.007 4.71761 -8.94956
394 1 4.71564 11.007 4.71719 -8.94815
395 1 7.86171 11.007 4.71543 -8.95369
396 1 11.0089 11.007 4.704 -8.9741
397 1 14.1568 11.007 4.71243 -8.94722
398 1 17.2993 11.007 4.7162 -8.94933
399 1 20.4423 11.007 4.7173 -8.94974
400 1 9.85873e-05 12.5797 3.14522 -8.94961
401 1 1.57189 14.1524 4.71757 -8.94978
402 1 3.14417 12.5797 3.14537 -8.94958
403 1 4.71567 14.153 4.71706 -8.94852
404 1 6.28875 12.5797 3.14484 -8.95055
405 1 7.86129 14.1526 4.71697 -8.95094
406 1 9.43384 12.5806 3.14395 -8.9464
407 1 11.007 14.1521 4.71646 -8.95063
408 1 12.5821 12.5811 3.14037 -8.95155
409 1 14.1572 14.1563 4.71272 -8.94351
410 1 15.7266 12.5802 3.14334 -8.94934
411 1 17.2991 14.1532 4.71639 -8.94989
412 1 18.8702 12.5798 3.14467 -8.94953
413 1 20.4422 14.1525 4.71735 -8.94984
414 1 22.014 15.7249 3.14521 -8.94966
415 1 1.57217 17.2973 4.7177 -8.9496
416 1 3.14429 15.725 3.14528 -8.94935
417 1 4.71653 17.2976 4.71758 -8.94904
418 1 6.28917 15.7249 3.14535 -8.94977
419 1 7.86207 17.297 4.71811 -8.95025
420 1 9.43442 15.7249 3.14556 -8.94923
421 1 11.007 17.2972 4.71775 -8.94962
422 1 12.5797 15.7251 3.14475 -8.95011
423 1 14.1528 17.2983 4.71706 -8.95
424 1 15.7261 15.7262 3.14371 -8.94791
425 1 17.2974 17.2977 4.71736 -8.94955
426 1 18.87 15.7252 3.14479 -8.94957
427 1 20.4418 17.2974 4.71755 -8.94954
428 1 4.51279e-05 18.8696 3.14533 -8.94957
429 1 1.57236 20.4417 4.71779 -8.94966
430 1 3.14465 18.8696 3.14538 -8.94943
431 1 4.71695 20.4418 4.71775 -8.94951
432 1 6.2896 18.8694 3.14564 -8.9498
433 1 7.86202 20.4416 4.71806 -8.94956
434 1 9.43443 18.8694 3.1457 -8.9496
435 1 11.0069 20.4417 4.71799 -8.94954
436 1 12.5794 18.8695 3.14541 -8.94965
437 1 14.152 20.442 4.71769 -8.94971
438 1 15.7246 18.87 3.14507 -8.94963
439 1 17.2968 20.4418 4.71771 -8.94967
440 1 18.8693 18.8697 3.14521 -8.94958
441 1 20.4416 20.4418 4.71771 -8.94961
442 1 1.57098 11.007 7.86289 -8.95013
443 1 4.7131 11.007 7.86322 -8.95363
444 1 7.84763 11.007 7.85005 -9.01364
445 1 11.0456 11.007 7.77643 -9.26555
446 1 14.1624 11.007 7.85764 -9.00902
447 1 17.3004 11.007 7.86188 -8.95094
448 1 20.4422 11.007 7.8625 -8.94994
449 1 22.0138 12.5797 6.29001 -8.94995
450 1 1.57128 14.1527 7.86256 -8.9495
451 1 3.14304 12.5798 6.28994 -8.95051
452 1 4.71486 14.1529 7.86261 -8.95085
453 1 6.28497 12.5812 6.28685 -8.94694
454 1 7.8557 14.1564 7.85778 -9.00952
455 1 9.43117 12.5804 6.29124 -9.03899
456 1 11.0134 14.1521 7.8595 -9.03348
457 1 12.5951 12.5902 6.27435 -8.97417
458 1 14.1565 14.154 7.86106 -8.94824
459 1 15.7299 12.5809 6.28727 -8.95206
460 1 17.2991 14.1531 7.86202 -8.9494
461 1 18.871 12.5799 6.28951 -8.95025
462 1 20.4419 14.1526 7.86243 -8.94968
463 1 -0.000109797 15.725 6.29 -8.94958
464 1 1.57204 17.2973 7.86272 -8.94958
465 1 3.14385 15.725 6.29013 -8.94972
466 1 4.71662 17.2972 7.86316 -8.95025
467 1 6.28762 15.7263 6.28914 -8.94736
468 1 7.86042 17.2995 7.86188 -8.94808
469 1 9.43514 15.7248 6.29126 -8.9512
470 1 11.0086 17.2988 7.86192 -8.94662
471 1 12.5817 15.7269 6.28867 -8.95181
472 1 14.1528 17.2976 7.86283 -8.95027
473 1 15.7262 15.7258 6.28937 -8.94922
474 1 17.2974 17.2975 7.86262 -8.9496
475 1 18.87 15.7253 6.28979 -8.94946
476 1 20.4416 17.2974 7.86257 -8.94956
477 1 22.0139 18.8696 6.29014 -8.94961
478 1 1.57226 20.4417 7.86266 -8.94961
479 1 3.14454 18.8695 6.29033 -8.9498
480 1 4.71695 20.4417 7.86288 -8.94957
481 1 6.28891 18.8701 6.29002 -8.94934
482 1 7.86168 20.4422 7.86279 -8.95003
483 1 9.4346 18.8696 6.29052 -8.94922
484 1 11.0073 20.4421 7.86281 -8.9497
485 1 12.58 18.8701 6.28998 -8.94967
486 1 14.1521 20.4418 7.86288 -8.94967
487 1 15.7247 18.8698 6.29018 -8.94976
488 1 17.2968 20.4418 7.86268 -8.94961
489 1 18.8693 18.8697 6.2901 -8.94962
490 1 20.4415 20.4418 7.86258 -8.94961
491 1 -0.00090269 12.58 9.43521 -8.94962
492 1 3.14161 12.5807 9.43511 -8.94651
493 1 6.28839 12.5806 9.43281 -9.03895
494 1 9.41588 12.6557 9.41834 -9.3729
495 1 12.5871 12.5813 9.43043 -9.03162
496 1 15.7292 12.5808 9.43397 -8.94783
497 1 18.8707 12.58 9.43503 -8.94978
498 1 22.0135 15.7251 9.43522 -8.94949
499 1 3.14374 15.7252 9.43554 -8.94922
500 1 6.2893 15.725 9.43659 -8.95119
501 1 9.43436 15.7401 9.43603 -8.97206
502 1 12.5801 15.7249 9.43558 -8.95083
503 1 15.7257 15.7253 9.4353 -8.94908
512 1 1.56824 11.007 11.0084 -8.95321
687 2 9.36249 11.007 10.331 0.548443
513 1 4.70138 11.007 11.0105 -8.9742
516 1 14.1671 11.007 11.0083 -9.0154
519 1 1.57062 14.1527 11.0081 -8.94923
520 1 4.71419 14.1524 11.0084 -8.95058
521 1 7.85724 14.1522 11.0151 -9.03363
522 1 11.0111 14.1529 11.0126 -9.05716
527 1 4.71615 17.2974 11.0083 -8.94961
532 1 20.4415 17.2974 11.0077 -8.94956
534 1 4.71682 20.4418 11.0079 -8.94955
686 1 20.4415 20.4418 20.4423 -8.94943
685 1 18.8692 18.8697 18.8701 -8.94943
514 1 7.77276 11.007 11.0468 -9.26391
515 1 11.0774 11.007 11.0774 -9.3272
684 1 17.2966 20.4418 20.4423 -8.94961
517 1 17.3007 11.007 11.008 -8.95314
518 1 20.4414 11.007 11.008 -8.95073
683 1 15.7243 18.8696 18.8702 -8.94965
682 1 14.1517 20.4417 20.4424 -8.94961
681 1 12.5793 18.8695 18.8702 -8.9496
680 1 11.0068 20.4417 20.4425 -8.94961
523 1 14.1549 14.1526 11.008 -8.95002
524 1 17.2984 14.1527 11.008 -8.94938
525 1 20.4415 14.1526 11.008 -8.94955
526 1 1.57175 17.2974 11.0079 -8.94957
389 1 15.7243 18.8696 22.0146 -8.94967
528 1 7.86042 17.2988 11.01 -8.94667
529 1 11.0085 17.2988 11.0097 -8.94704
530 1 14.1527 17.2973 11.008 -8.94987
679 1 9.43446 18.8694 18.8703 -8.9496
383 1 6.28964 18.8694 22.0149 -8.94961
678 1 7.86208 20.4417 20.4425 -8.94961
377 1 18.8695 15.725 22.0145 -8.94958
535 1 7.86169 20.4421 11.0084 -8.94971
536 1 11.0073 20.4421 11.0084 -8.94973
537 1 14.1521 20.4417 11.0079 -8.94959
677 1 6.28956 18.8695 18.8704 -8.94962
539 1 20.4415 20.4418 11.0076 -8.9496
540 1 1.56922 11.007 14.1547 -8.94954
541 1 4.71049 11.007 14.1582 -8.94719
542 1 7.85574 11.007 14.1637 -9.00903
543 1 11.0073 11.007 14.1682 -9.01539
544 1 14.1543 11.007 14.1553 -8.94956
545 1 17.2982 11.007 14.1539 -8.94918
546 1 20.441 11.007 14.1537 -8.94976
547 1 22.012 12.58 12.5812 -8.95048
548 1 1.56965 14.1534 14.1545 -8.9498
549 1 3.13828 12.5813 12.5835 -8.95154
550 1 4.71102 14.1564 14.1586 -8.94336
551 1 6.27199 12.5903 12.5967 -8.97387
552 1 7.85963 14.1538 14.1576 -8.94847
553 1 9.42876 12.5808 12.5877 -9.03263
554 1 11.0067 14.1524 14.1558 -8.95021
555 1 12.5893 12.5887 12.5903 -9.00793
556 1 14.1554 14.1549 14.1564 -8.9451
557 1 15.7286 12.5809 12.5824 -8.94991
558 1 17.2983 14.153 14.154 -8.94965
559 1 18.8701 12.58 12.581 -8.95018
560 1 20.4411 14.1527 14.1536 -8.94992
561 1 -0.000743194 15.7252 12.5806 -8.94951
562 1 1.57157 17.2977 14.1532 -8.94978
563 1 3.14306 15.7254 12.581 -8.95009
564 1 4.7158 17.2984 14.1541 -8.94998
565 1 6.28691 15.7271 12.5831 -8.95177
566 1 7.86167 17.2975 14.154 -8.95025
567 1 9.43416 15.7247 12.5813 -8.9507
568 1 11.007 17.2971 14.1537 -8.94985
569 1 12.5812 15.7266 12.5823 -8.9513
570 1 14.1527 17.298 14.1537 -8.94971
571 1 15.7255 15.7252 12.5809 -8.94995
572 1 17.2972 17.2975 14.1531 -8.94973
573 1 18.8695 15.7251 12.5806 -8.94954
574 1 20.4413 17.2975 14.153 -8.94959
575 1 22.0136 18.8697 12.5802 -8.94959
576 1 1.57209 20.4418 14.1527 -8.94964
577 1 3.14418 18.8697 12.5804 -8.94964
578 1 4.71675 20.442 14.1531 -8.94971
579 1 6.28877 18.8702 12.5812 -8.94969
580 1 7.86197 20.4417 14.1531 -8.94964
581 1 9.43447 18.8696 12.5809 -8.94927
582 1 11.007 20.4417 14.1531 -8.94957
583 1 12.5801 18.8701 12.5811 -8.9496
584 1 14.1522 20.4419 14.1531 -8.94963
585 1 15.7247 18.8696 12.5804 -8.94971
586 1 17.2968 20.4418 14.1527 -8.94966
587 1 18.8692 18.8696 12.5802 -8.9496
588 1 20.4414 20.4418 14.1526 -8.94961
589 1 1.57097 11.007 17.2991 -8.94953
590 1 4.71499 11.007 17.3007 -8.94932
591 1 7.86078 11.007 17.3016 -8.95101
592 1 11.0069 11.007 17.3017 -8.95318
593 1 14.1529 11.007 17.2993 -8.94919
594 1 17.2973 11.007 17.2985 -8.94955
595 1 20.4412 11.007 17.2985 -8.94957
596 1 22.0126 12.5799 15.7264 -8.94954
597 1 1.57114 14.1527 17.299 -8.94956
598 1 3.14184 12.5803 15.728 -8.9493
599 1 4.7153 14.1532 17.3004 -8.94989
600 1 6.28583 12.5809 15.7312 -8.95205
601 1 7.86102 14.1529 17.3002 -8.9494
602 1 9.43275 12.5807 15.7301 -8.94766
603 1 11.007 14.1525 17.2994 -8.94938
604 1 12.5813 12.5808 15.7296 -8.94985
605 1 14.1529 14.1529 17.2994 -8.94967
606 1 15.7256 12.5798 15.7267 -8.94996
607 1 17.2973 14.1525 17.2984 -8.94974
608 1 18.8694 12.5798 15.7261 -8.9496
609 1 20.4412 14.1525 17.2984 -8.94958
610 1 22.013 15.7254 15.7261 -8.94954
611 1 1.57163 17.2978 17.2984 -8.94909
612 1 3.14249 15.7264 15.7274 -8.94787
613 1 4.71657 17.2977 17.2986 -8.94958
614 1 6.28825 15.7257 15.7274 -8.94929
615 1 7.86183 17.2973 17.2984 -8.94961
616 1 9.43423 15.7251 15.7268 -8.9491
617 1 11.007 17.2972 17.2983 -8.94953
618 1 12.5798 15.7251 15.7265 -8.95
619 1 14.1521 17.2974 17.2982 -8.94976
620 1 15.7255 15.7257 15.7266 -8.94846
621 1 17.2971 17.2976 17.2981 -8.94929
622 1 18.8694 15.7253 15.7259 -8.94957
623 1 20.4413 17.2976 17.2981 -8.94947
624 1 -0.000293552 18.8698 15.7254 -8.94966
625 1 1.57218 20.4419 17.2978 -8.94956
626 1 3.14417 18.87 15.7258 -8.94962
627 1 4.71711 20.4418 17.2979 -8.94967
628 1 6.28935 18.8697 15.7258 -8.94976
629 1 7.86206 20.4417 17.2978 -8.94961
630 1 9.43447 18.8695 15.7257 -8.94958
631 1 11.0069 20.4417 17.2978 -8.9496
632 1 12.5795 18.8695 15.7256 -8.94971
633 1 14.1518 20.4417 17.2978 -8.94966
634 1 15.7246 18.8698 15.7256 -8.94956
635 1 17.2968 20.4418 17.2977 -8.94957
636 1 18.8692 18.8697 15.7253 -8.94964
637 1 20.4415 20.4418 17.2976 -8.9496
638 1 1.57187 11.007 20.4431 -8.94957
639 1 4.71644 11.007 20.4436 -8.94975
640 1 7.86163 11.007 20.4437 -8.94994
641 1 11.007 11.007 20.443 -8.95069
642 1 14.1525 11.007 20.4424 -8.94975
643 1 17.2973 11.007 20.4424 -8.94957
644 1 20.4415 11.007 20.4427 -8.94958
645 1 22.0134 12.5797 18.8708 -8.94957
646 1 1.57195 14.1523 20.443 -8.94958
647 1 3.14367 12.5798 18.8715 -8.94954
648 1 4.71658 14.1524 20.4435 -8.94985
649 1 6.28858 12.5798 18.8723 -8.95028
650 1 7.86163 14.1524 20.4434 -8.94965
651 1 9.43407 12.5799 18.872 -8.94973
652 1 11.007 14.1524 20.4429 -8.94952
653 1 12.5799 12.5799 18.8714 -8.9502
654 1 14.1524 14.1526 20.4424 -8.94993
655 1 15.725 12.5797 18.8706 -8.9496
656 1 17.2972 14.1524 20.4424 -8.94959
657 1 18.8693 12.5797 18.8705 -8.94958
658 1 20.4415 14.1523 20.4426 -8.94958
659 1 22.0135 15.725 18.8706 -8.94958
660 1 1.57216 17.2974 20.4427 -8.94953
661 1 3.14398 15.7252 18.8712 -8.94957
662 1 4.71698 17.2973 20.4429 -8.94955
663 1 6.28905 15.7251 18.8712 -8.94947
664 1 7.86195 17.2972 20.4428 -8.94956
665 1 9.43436 15.7249 18.8709 -8.94949
666 1 11.0069 17.2971 20.4427 -8.94956
667 1 12.5796 15.7249 18.8706 -8.94954
668 1 14.1519 17.2973 20.4425 -8.9496
669 1 15.7248 15.7251 18.8705 -8.94957
670 1 17.297 17.2975 20.4423 -8.94948
671 1 18.8693 15.725 18.8704 -8.94961
672 1 20.4415 17.2973 20.4425 -8.94956
673 1 -0.000160853 18.8697 18.8703 -8.9494
674 1 1.57243 20.4418 20.4424 -8.94956
675 1 3.14461 18.8697 18.8704 -8.94959
676 1 4.71729 20.4417 20.4425 -8.94962
351 1 22.0138 12.5796 22.0149 -8.94959
355 1 6.28917 12.5796 22.0154 -8.94996
361 1 15.7252 12.5798 22.014 -8.94955
367 1 3.14448 15.7248 22.0151 -8.94966
371 1 9.43436 15.7248 22.015 -8.94948
373 1 12.5795 15.7249 22.0146 -8.94951
357 1 9.43423 12.5799 22.0148 -8.94958
379 1 22.0139 18.8696 22.0147 -8.94949
533 1 1.57214 20.4418 11.0076 -8.9496
