ITEM: TIMESTEP
107
ITEM: NUMBER OF ATOMS
688
ITEM: BOX BOUNDS pp pp pp
0.0000000000000000e+00 2.2013900999999997e+01
0.0000000000000000e+00 2.2013900999999997e+01
0.0000000000000000e+00 2.2013900999999997e+01
ITEM: ATOMS id type x y z c_pot
1 1 3.67126e-05 -1.41303e-15 0.000833521 -8.94952
2 1 1.57241 1.57216 1.57318 -8.94952
175 1 18.8707 9.43389 9.43504 -8.94977
4 1 4.71725 1.57221 1.5733 -8.94967
5 1 6.28969 4.46822e-16 0.00101373 -8.94961
6 1 7.86206 1.57224 1.57337 -8.9496
174 1 15.729 9.43311 9.43382 -8.94783
8 1 11.0069 1.57222 1.57327 -8.9496
9 1 12.5793 -6.63882e-16 0.000871105 -8.9496
10 1 14.1518 1.57213 1.57308 -8.94964
173 1 12.5868 9.43256 9.43011 -9.03187
12 1 17.2968 1.57204 1.57295 -8.94956
13 1 18.8691 -7.98542e-16 0.00071981 -8.94952
14 1 20.4416 1.57211 1.57309 -8.94956
193 1 11.011 7.86087 11.0124 -9.057
16 1 1.5723 4.71664 1.5732 -8.94953
17 1 3.14474 3.14437 0.00101661 -8.94958
18 1 4.71701 4.71669 1.57331 -8.94962
172 1 9.416 9.3577 9.41792 -9.37229
20 1 7.86199 4.71676 1.5734 -8.94958
21 1 9.43445 3.14448 0.00104232 -8.94959
22 1 11.007 4.7167 1.57312 -8.94957
23 1 12.5793 3.14441 0.000840733 -8.9496
24 1 14.1521 4.71642 1.57274 -8.94979
171 1 6.28865 9.43323 9.43273 -9.03912
26 1 17.2974 4.71619 1.57253 -8.9491
27 1 18.8693 3.14421 0.000660401 -8.9494
28 1 20.4418 4.71654 1.57295 -8.94953
29 1 -2.18867e-05 6.28909 0.000961928 -8.94959
30 1 1.57223 7.86165 1.57328 -8.94963
170 1 3.14184 9.43321 9.43518 -8.94651
32 1 4.7167 7.86157 1.57329 -8.94979
33 1 6.28929 6.28905 0.00126905 -8.94959
34 1 7.86165 7.86138 1.573 -8.9495
169 1 -0.000804385 9.43392 9.43531 -8.94961
36 1 11.0071 7.86136 1.57234 -8.94923
168 1 18.8697 6.28882 9.43525 -8.94949
38 1 14.1534 7.8607 1.57108 -8.94982
39 1 15.725 6.28865 0.000159746 -8.94956
40 1 17.2978 7.86128 1.57223 -8.94956
167 1 15.7257 6.28862 9.43526 -8.94908
42 1 20.4419 7.86158 1.5729 -8.94958
166 1 12.5801 6.28896 9.43543 -8.95081
44 1 3.14432 9.43427 0.00141732 -8.94962
165 1 9.43438 6.27369 9.43587 -8.9721
192 1 7.85731 7.86161 11.015 -9.03352
47 1 12.58 9.43398 -0.000355579 -8.95047
164 1 6.28938 6.28886 9.43658 -8.95118
49 1 18.8696 9.43423 0.00055605 -8.94957
50 1 22.014 -9.42854e-16 3.14551 -8.94962
51 1 1.57236 1.57218 4.71794 -8.94967
52 1 3.14472 -5.54747e-16 3.14551 -8.9495
53 1 4.71693 1.57207 4.71785 -8.9495
54 1 6.28965 8.76096e-16 3.14568 -8.94963
55 1 7.86205 1.57223 4.71809 -8.94956
56 1 9.43448 1.53268e-15 3.14571 -8.94962
57 1 11.007 1.57217 4.71798 -8.94954
58 1 12.5794 -3.32322e-16 3.14554 -8.94962
59 1 14.1521 1.57192 4.71771 -8.94971
60 1 15.7244 1.71179e-16 3.14534 -8.94964
61 1 17.2969 1.57206 4.71781 -8.94967
62 1 18.8692 9.8913e-17 3.14543 -8.94962
63 1 20.4416 1.57214 4.71786 -8.94961
64 1 6.37073e-05 3.14434 3.14546 -8.94958
65 1 1.57221 4.71662 4.71783 -8.94961
66 1 3.14463 3.14433 3.14549 -8.94943
67 1 4.71655 4.71628 4.71764 -8.94902
68 1 6.28959 3.14449 3.14568 -8.9498
69 1 7.86211 4.71679 4.71805 -8.95024
70 1 9.43449 3.14446 3.14567 -8.94959
71 1 11.0072 4.71663 4.71763 -8.94961
72 1 12.5795 3.1443 3.14537 -8.94964
73 1 14.153 4.71554 4.717 -8.94999
74 1 15.7247 3.14393 3.14508 -8.94963
75 1 17.2976 4.71619 4.7174 -8.94955
76 1 18.8694 3.14419 3.14529 -8.94958
77 1 20.4418 4.71652 4.71767 -8.94954
78 1 22.014 6.28902 3.14532 -8.94966
79 1 1.57199 7.86151 4.71769 -8.94978
80 1 3.14432 6.28893 3.14538 -8.94935
81 1 4.71576 7.86091 4.71708 -8.94854
82 1 6.28919 6.28897 3.14532 -8.94976
83 1 7.86136 7.86116 4.71677 -8.95094
84 1 9.4345 6.28893 3.14543 -8.94923
85 1 11.0071 7.86166 4.71617 -8.95062
86 1 12.5799 6.2887 3.1446 -8.9501
87 1 14.1573 7.85753 4.71252 -8.94347
88 1 15.7263 6.28764 3.14365 -8.9479
89 1 17.2992 7.86071 4.71636 -8.94989
90 1 18.8701 6.28868 3.14484 -8.94957
91 1 20.4423 7.86144 4.71744 -8.94984
92 1 0.00018963 9.43425 3.14532 -8.94961
93 1 3.14424 9.43423 3.14545 -8.94958
94 1 6.28882 9.43414 3.14479 -8.95053
95 1 9.43393 9.43329 3.14373 -8.94645
96 1 12.5822 9.43276 3.14013 -8.95156
97 1 15.7267 9.43367 3.1432 -8.94933
98 1 18.8704 9.43411 3.14468 -8.94953
99 1 -7.25624e-08 -5.3717e-16 6.29032 -8.9496
100 1 1.57227 1.57218 7.86282 -8.9496
101 1 3.14468 -4.26944e-16 6.29043 -8.94963
102 1 4.71696 1.57219 7.863 -8.94956
103 1 6.28931 6.34205e-16 6.29032 -8.94974
104 1 7.86171 1.57167 7.86283 -8.95004
105 1 9.43453 1.0214e-15 6.29048 -8.94947
106 1 11.0073 1.57177 7.86283 -8.9497
107 1 12.5797 -2.12098e-16 6.2903 -8.94977
108 1 14.1521 1.57212 7.86292 -8.94966
109 1 15.7245 1.12168e-16 6.29036 -8.9497
110 1 17.2969 1.57213 7.8628 -8.94961
111 1 18.8692 5.23193e-16 6.2903 -8.94962
112 1 20.4415 1.57216 7.86274 -8.94961
113 1 22.0139 3.14437 6.2903 -8.94961
114 1 1.5721 4.71662 7.86287 -8.94958
115 1 3.14456 3.14442 6.29046 -8.94979
116 1 4.71667 4.71669 7.86322 -8.95024
117 1 6.28893 3.14379 6.29006 -8.94934
118 1 7.86045 4.71428 7.86181 -8.9481
119 1 9.43466 3.14423 6.29048 -8.94923
120 1 11.0087 4.71504 7.8618 -8.94663
121 1 12.5801 3.14371 6.28995 -8.94967
122 1 14.1529 4.71631 7.86278 -8.95026
123 1 15.7248 3.14411 6.29023 -8.94976
124 1 17.2974 4.71642 7.86267 -8.94961
125 1 18.8694 3.14426 6.29023 -8.94962
126 1 20.4417 4.71656 7.86271 -8.94956
127 1 -2.21609e-05 6.28893 6.29014 -8.94959
128 1 1.57143 7.86125 7.86268 -8.9495
129 1 3.14394 6.28887 6.29023 -8.94974
130 1 4.71502 7.86103 7.86266 -8.95089
131 1 6.28766 6.28753 6.28906 -8.94731
132 1 7.8558 7.85737 7.85753 -9.00952
133 1 9.43522 6.28899 6.29104 -8.95119
134 1 11.0135 7.86171 7.85916 -9.03342
135 1 12.5818 6.28685 6.28845 -8.95181
136 1 14.1565 7.8599 7.8609 -8.94827
137 1 15.7263 6.2881 6.28932 -8.94923
138 1 17.2991 7.86088 7.86201 -8.94941
139 1 18.8701 6.28868 6.28986 -8.94946
140 1 20.442 7.86131 7.86253 -8.94968
141 1 22.0139 9.43419 6.29013 -8.94995
142 1 3.1432 9.4341 6.29003 -8.95052
143 1 6.28517 9.4327 6.2868 -8.94696
144 1 9.43124 9.43339 6.29084 -9.03914
145 1 12.5952 9.42366 6.27397 -8.97408
146 1 15.7299 9.43298 6.28714 -8.95206
147 1 18.8711 9.43402 6.28954 -8.95026
148 1 -9.37296e-05 5.01933e-16 9.43522 -8.9496
149 1 3.14458 -4.53737e-16 9.43537 -8.94962
150 1 6.28934 5.01732e-16 9.43558 -8.94948
151 1 9.43452 4.32816e-16 9.43563 -8.95098
152 1 12.5796 1.50993e-15 9.43553 -8.94945
153 1 15.7244 5.14595e-16 9.43536 -8.94964
154 1 18.8692 5.21244e-17 9.43523 -8.9496
155 1 -0.000138368 3.14435 9.43527 -8.94959
156 1 3.14442 3.14435 9.43545 -8.94959
157 1 6.28921 3.14416 9.4358 -8.94924
158 1 9.43453 3.14183 9.43575 -8.95452
159 1 12.5798 3.14426 9.43558 -8.9493
160 1 15.7247 3.14429 9.43538 -8.94958
161 1 18.8693 3.14433 9.43525 -8.94959
162 1 22.0136 6.28887 9.43533 -8.94949
163 1 3.14384 6.28877 9.43563 -8.94922
191 1 4.71433 7.86152 11.0084 -8.95059
181 1 17.2968 1.57216 11.0078 -8.9496
188 1 17.2972 4.71656 11.0079 -8.94953
190 1 1.57071 7.86121 11.0082 -8.94923
177 1 4.71681 1.57212 11.008 -8.94955
184 1 4.7162 4.7165 11.0083 -8.94961
189 1 20.4415 4.71656 11.0078 -8.94956
7 1 9.43446 -1.21685e-15 0.000993675 -8.9496
343 1 18.8693 9.43424 18.8704 -8.94958
48 1 15.7252 9.43409 22.0139 -8.94955
178 1 7.86169 1.57176 11.0084 -8.94971
179 1 11.0073 1.57178 11.0084 -8.94974
180 1 14.1521 1.57218 11.008 -8.94959
342 1 15.7249 9.43419 18.8704 -8.9496
182 1 20.4414 1.57215 11.0077 -8.9496
183 1 1.57178 4.71653 11.008 -8.94957
45 1 6.28916 9.43424 22.0154 -8.94996
185 1 7.86042 4.715 11.01 -8.94665
186 1 11.0085 4.71504 11.0097 -8.94706
187 1 14.1526 4.71663 11.008 -8.94986
341 1 12.5799 9.43403 18.8712 -8.95018
43 1 22.0139 9.43428 22.0149 -8.94959
340 1 9.43401 9.43395 18.872 -8.94974
339 1 6.28853 9.43406 18.8724 -8.95027
338 1 3.14362 9.43412 18.8716 -8.94954
337 1 22.0133 9.43422 18.8708 -8.94957
194 1 14.1547 7.86132 11.0078 -8.95007
195 1 17.2982 7.86129 11.008 -8.94939
196 1 20.4414 7.86133 11.008 -8.94954
197 1 -0.000179897 1.01119e-15 12.5802 -8.9496
198 1 1.57206 1.57207 14.1528 -8.94964
199 1 3.14447 1.41401e-15 12.5804 -8.94962
200 1 4.71671 1.5719 14.1532 -8.94971
201 1 6.28924 9.24415e-16 12.5808 -8.94978
202 1 7.86194 1.57214 14.1532 -8.94965
203 1 9.4345 1.52301e-15 12.5807 -8.94944
204 1 11.007 1.57221 14.1532 -8.94957
205 1 12.5797 2.48059e-15 12.5807 -8.94973
206 1 14.1521 1.57202 14.1531 -8.94963
207 1 15.7244 8.75711e-16 12.5803 -8.94964
208 1 17.2968 1.57213 14.1528 -8.94966
209 1 18.8691 -2.46735e-16 12.5802 -8.94961
210 1 20.4414 1.57212 14.1527 -8.94961
211 1 22.0136 3.14429 12.5803 -8.94959
212 1 1.57154 4.71629 14.1533 -8.94979
213 1 3.14417 3.1442 12.5806 -8.94964
214 1 4.71578 4.71546 14.1542 -8.94998
215 1 6.28876 3.14366 12.5813 -8.94968
216 1 7.86162 4.71637 14.154 -8.95025
217 1 9.43445 3.14429 12.5809 -8.94928
218 1 11.0069 4.71672 14.1537 -8.94986
219 1 12.5801 3.14385 12.5811 -8.9496
220 1 14.1526 4.71598 14.1537 -8.9497
221 1 15.7246 3.14433 12.5804 -8.94971
222 1 17.2971 4.71647 14.1531 -8.94974
223 1 18.8692 3.14432 12.5803 -8.9496
224 1 20.4413 4.71648 14.153 -8.94959
225 1 -0.000748644 6.28879 12.5807 -8.94952
226 1 1.56966 7.86059 14.1546 -8.94981
227 1 3.14311 6.28856 12.5811 -8.9501
228 1 4.71102 7.85745 14.1586 -8.94338
229 1 6.28693 6.28677 12.5831 -8.95178
230 1 7.85955 7.86002 14.1577 -8.9484
231 1 9.43409 6.28906 12.5813 -8.95073
232 1 11.0065 7.86146 14.1557 -8.95018
233 1 12.581 6.2873 12.5822 -8.95124
234 1 14.1551 7.85905 14.1563 -8.9452
235 1 15.7253 6.28875 12.5808 -8.94996
236 1 17.2981 7.86097 14.1539 -8.94966
237 1 18.8694 6.28886 12.5806 -8.94954
238 1 20.441 7.86125 14.1536 -8.94992
239 1 22.012 9.43391 12.5812 -8.95047
240 1 3.13839 9.43267 12.5835 -8.95156
241 1 6.27209 9.42358 12.5967 -8.9739
242 1 9.42861 9.43289 12.5878 -9.03236
243 1 12.5888 9.42537 12.5899 -9.00799
244 1 15.7283 9.43303 12.5823 -8.94987
245 1 18.87 9.43397 12.581 -8.95018
246 1 -0.00018802 6.82891e-16 15.7252 -8.94962
247 1 1.57212 1.57202 17.2979 -8.94956
248 1 3.14447 -6.84218e-16 15.7255 -8.94965
249 1 4.71705 1.57207 17.298 -8.94967
250 1 6.28952 8.80239e-16 15.7255 -8.9497
251 1 7.86202 1.57217 17.298 -8.94961
252 1 9.43449 4.51501e-16 15.7255 -8.94963
253 1 11.0069 1.57222 17.2979 -8.9496
254 1 12.5794 1.13429e-15 15.7254 -8.94964
255 1 14.1518 1.57217 17.2978 -8.94966
256 1 15.7244 5.38198e-16 15.7254 -8.94959
257 1 17.2967 1.57209 17.2977 -8.94957
258 1 18.8691 1.10505e-15 15.7252 -8.94963
259 1 20.4414 1.57208 17.2977 -8.9496
260 1 -0.000348398 3.14418 15.7254 -8.94966
261 1 1.57157 4.71615 17.2985 -8.94909
262 1 3.14411 3.14388 15.7259 -8.94962
263 1 4.7165 4.71622 17.2987 -8.94957
264 1 6.2893 3.14414 15.7259 -8.94976
265 1 7.86177 4.71654 17.2985 -8.94961
266 1 9.43443 3.14438 15.7258 -8.94958
267 1 11.0069 4.7167 17.2983 -8.94953
268 1 12.5795 3.1444 15.7257 -8.94971
269 1 14.152 4.71656 17.2981 -8.94976
270 1 15.7246 3.14414 15.7256 -8.94956
271 1 17.297 4.71638 17.2981 -8.9493
272 1 18.8691 3.14425 15.7253 -8.94965
273 1 20.4413 4.7164 17.2981 -8.94948
274 1 22.0129 6.28856 15.7262 -8.94955
275 1 1.57109 7.86125 17.299 -8.94956
276 1 3.14246 6.28757 15.7275 -8.94788
277 1 4.71525 7.86072 17.3005 -8.94989
278 1 6.28818 6.28815 15.7275 -8.94927
279 1 7.86094 7.86098 17.3003 -8.94941
280 1 9.43415 6.28874 15.7268 -8.94909
281 1 11.0069 7.86141 17.2994 -8.94938
282 1 12.5797 6.28885 15.7264 -8.94999
283 1 14.1528 7.86104 17.2992 -8.94967
284 1 15.7254 6.2883 15.7265 -8.94848
285 1 17.2972 7.86147 17.2983 -8.94974
286 1 18.8693 6.28873 15.7259 -8.94957
287 1 20.4411 7.86149 17.2983 -8.94958
288 1 22.0126 9.43405 15.7265 -8.94954
289 1 3.14183 9.43363 15.728 -8.94931
290 1 6.28579 9.43299 15.7312 -8.95207
291 1 9.4326 9.43319 15.7301 -8.94774
292 1 12.5811 9.43307 15.7294 -8.94986
293 1 15.7254 9.43409 15.7265 -8.94996
294 1 18.8692 9.43416 15.726 -8.9496
295 1 22.0138 -1.39683e-15 18.8701 -8.94952
296 1 1.57237 1.57212 20.4425 -8.94956
297 1 3.14474 -6.70819e-16 18.8702 -8.94962
298 1 4.71722 1.57217 20.4426 -8.94961
299 1 6.28964 -3.67524e-16 18.8702 -8.94962
300 1 7.86206 1.57222 20.4426 -8.94961
301 1 9.43448 6.31352e-16 18.8702 -8.9496
302 1 11.0069 1.57223 20.4425 -8.94961
303 1 12.5793 6.86886e-16 18.8701 -8.94961
304 1 14.1517 1.57218 20.4424 -8.94961
305 1 15.7242 5.90188e-16 18.8701 -8.94964
306 1 17.2967 1.57211 20.4423 -8.94961
307 1 18.8691 3.05633e-16 18.87 -8.94956
308 1 20.4415 1.5721 20.4424 -8.94943
309 1 -0.000216064 3.1442 18.8703 -8.9494
310 1 1.57211 4.71655 20.4428 -8.94953
311 1 3.14454 3.14421 18.8705 -8.94959
312 1 4.71692 4.7166 20.443 -8.94955
313 1 6.2895 3.14434 18.8705 -8.94962
314 1 7.86192 4.7167 20.4429 -8.94956
315 1 9.43444 3.14445 18.8704 -8.9496
316 1 11.0069 4.71672 20.4427 -8.94956
317 1 12.5794 3.14443 18.8702 -8.9496
318 1 14.1519 4.71661 20.4424 -8.9496
319 1 15.7243 3.1443 18.8701 -8.94965
320 1 17.297 4.71645 20.4423 -8.94948
321 1 18.8691 3.14422 18.8701 -8.94944
322 1 20.4415 4.71659 20.4425 -8.94956
323 1 22.0135 6.28894 18.8706 -8.94958
324 1 1.57191 7.86158 20.4431 -8.94958
325 1 3.14391 6.2887 18.8713 -8.94957
326 1 4.71653 7.8615 20.4435 -8.94985
327 1 6.28899 6.28879 18.8713 -8.94947
328 1 7.8616 7.86143 20.4434 -8.94966
329 1 9.43431 6.28898 18.8709 -8.94949
330 1 11.007 7.86146 20.4428 -8.94953
331 1 12.5795 6.289 18.8706 -8.94954
332 1 14.1524 7.86135 20.4423 -8.94992
333 1 15.7248 6.28879 18.8704 -8.94957
334 1 17.2972 7.86153 20.4423 -8.94958
335 1 18.8692 6.28898 18.8703 -8.94962
336 1 20.4415 7.86162 20.4426 -8.94958
3 1 3.14486 9.35558e-16 22.0148 -8.94962
41 1 18.8695 6.28896 22.0145 -8.94958
11 1 15.7242 5.21218e-16 22.0146 -8.94962
19 1 6.28961 3.14446 22.015 -8.94961
25 1 15.7244 3.14426 22.0146 -8.94967
31 1 3.14445 6.28906 22.0151 -8.94966
35 1 9.43439 6.28904 22.015 -8.94949
37 1 12.5796 6.28895 22.0145 -8.94951
15 1 22.0139 3.14431 22.0148 -8.94949
46 1 9.43426 9.434 22.0147 -8.94959
176 1 1.57213 1.57215 11.0078 -8.9496
344 1 1.5722 11.007 1.57332 -8.94961
345 1 4.71665 11.007 1.57332 -8.94957
346 1 7.8619 11.007 1.57285 -8.95011
347 1 11.0073 11.007 1.57013 -8.95317
348 1 14.1535 11.007 1.57075 -8.94954
349 1 17.2979 11.007 1.57214 -8.94953
350 1 20.442 11.007 1.57289 -8.94957
688 2 10.3238 11.007 9.36263 0.548834
352 1 1.57223 14.1522 1.57328 -8.94963
353 1 3.14432 12.5796 0.00141732 -8.94962
354 1 4.7167 14.1523 1.57329 -8.94979
511 1 18.8693 18.8696 9.43525 -8.94959
356 1 7.86165 14.1525 1.573 -8.9495
538 1 17.2968 20.4417 11.0078 -8.9496
358 1 11.0071 14.1525 1.57234 -8.94923
359 1 12.58 12.5799 -0.000355579 -8.95047
360 1 14.1534 14.1532 1.57108 -8.94982
510 1 15.7247 18.8696 9.43538 -8.94958
362 1 17.2978 14.1526 1.57223 -8.94956
363 1 18.8696 12.5797 0.00055605 -8.94957
364 1 20.4419 14.1523 1.5729 -8.94958
365 1 -2.18867e-05 15.7248 0.000961928 -8.94959
366 1 1.5723 17.2973 1.5732 -8.94953
509 1 12.5798 18.8696 9.43558 -8.9493
368 1 4.71701 17.2972 1.57331 -8.94962
369 1 6.28929 15.7249 0.00126905 -8.94959
370 1 7.86199 17.2971 1.5734 -8.94958
508 1 9.43453 18.8721 9.43575 -8.95452
372 1 11.007 17.2972 1.57312 -8.94957
507 1 6.28921 18.8697 9.4358 -8.94924
374 1 14.1521 17.2975 1.57274 -8.94979
375 1 15.725 15.7253 0.000159746 -8.94956
376 1 17.2974 17.2977 1.57253 -8.9491
506 1 3.14442 18.8696 9.43545 -8.94959
378 1 20.4418 17.2974 1.57295 -8.94953
531 1 17.2972 17.2973 11.0079 -8.94953
380 1 1.57241 20.4417 1.57318 -8.94952
381 1 3.14474 18.8695 0.00101661 -8.94958
382 1 4.71725 20.4417 1.5733 -8.94967
505 1 -0.000138368 18.8696 9.43527 -8.94959
384 1 7.86206 20.4417 1.57337 -8.9496
385 1 9.43445 18.8694 0.00104232 -8.94959
386 1 11.0069 20.4417 1.57327 -8.9496
387 1 12.5793 18.8695 0.000840733 -8.9496
388 1 14.1518 20.4418 1.57308 -8.94964
504 1 18.8697 15.7251 9.43525 -8.94949
390 1 17.2968 20.4419 1.57295 -8.94956
391 1 18.8693 18.8697 0.000660401 -8.9494
392 1 20.4416 20.4418 1.57309 -8.94956
393 1 1.57193 11.007 4.71773 -8.94956
394 1 4.71577 11.007 4.7172 -8.94815
395 1 7.86182 11.007 4.71528 -8.95365
396 1 11.0091 11.007 4.70372 -8.97417
397 1 14.1569 11.007 4.71221 -8.94721
398 1 17.2995 11.007 4.71614 -8.94933
399 1 20.4424 11.007 4.71738 -8.94974
400 1 0.00018963 12.5797 3.14532 -8.94961
401 1 1.57199 14.1524 4.71769 -8.94978
402 1 3.14424 12.5797 3.14545 -8.94958
403 1 4.71576 14.153 4.71708 -8.94854
404 1 6.28882 12.5798 3.14479 -8.95053
405 1 7.86136 14.1527 4.71677 -8.95094
406 1 9.43393 12.5806 3.14373 -8.94645
407 1 11.0071 14.1522 4.71617 -8.95062
408 1 12.5822 12.5811 3.14013 -8.95156
409 1 14.1573 14.1564 4.71252 -8.94347
410 1 15.7267 12.5802 3.1432 -8.94933
411 1 17.2992 14.1532 4.71636 -8.94989
412 1 18.8704 12.5798 3.14468 -8.94953
413 1 20.4423 14.1525 4.71744 -8.94984
414 1 22.014 15.7249 3.14532 -8.94966
415 1 1.57221 17.2973 4.71783 -8.94961
416 1 3.14432 15.725 3.14538 -8.94935
417 1 4.71655 17.2976 4.71764 -8.94902
418 1 6.28919 15.7249 3.14532 -8.94976
419 1 7.86211 17.2971 4.71805 -8.95024
420 1 9.4345 15.725 3.14543 -8.94923
421 1 11.0072 17.2973 4.71763 -8.94961
422 1 12.5799 15.7252 3.1446 -8.9501
423 1 14.153 17.2984 4.717 -8.94999
424 1 15.7263 15.7263 3.14365 -8.9479
425 1 17.2976 17.2977 4.7174 -8.94955
426 1 18.8701 15.7252 3.14484 -8.94957
427 1 20.4418 17.2974 4.71767 -8.94954
428 1 6.37073e-05 18.8696 3.14546 -8.94958
429 1 1.57236 20.4417 4.71794 -8.94967
430 1 3.14463 18.8696 3.14549 -8.94943
431 1 4.71693 20.4418 4.71785 -8.9495
432 1 6.28959 18.8694 3.14568 -8.9498
433 1 7.86205 20.4417 4.71809 -8.94956
434 1 9.43449 18.8694 3.14567 -8.94959
435 1 11.007 20.4417 4.71798 -8.94954
436 1 12.5795 18.8696 3.14537 -8.94964
437 1 14.1521 20.442 4.71771 -8.94971
438 1 15.7247 18.87 3.14508 -8.94963
439 1 17.2969 20.4418 4.71781 -8.94967
440 1 18.8694 18.8697 3.14529 -8.94958
441 1 20.4416 20.4418 4.71786 -8.94961
442 1 1.57116 11.007 7.863 -8.95012
443 1 4.71339 11.007 7.86323 -8.95361
444 1 7.84789 11.007 7.8498 -9.01326
445 1 11.0456 11.007 7.77571 -9.26539
446 1 14.1624 11.007 7.8573 -9.00906
447 1 17.3004 11.007 7.86182 -8.95095
448 1 20.4423 11.007 7.86258 -8.94994
449 1 22.0139 12.5797 6.29013 -8.94995
450 1 1.57143 14.1526 7.86268 -8.9495
451 1 3.1432 12.5798 6.29003 -8.95052
452 1 4.71502 14.1529 7.86266 -8.95089
453 1 6.28517 12.5812 6.2868 -8.94696
454 1 7.8558 14.1565 7.85753 -9.00952
455 1 9.43124 12.5805 6.29084 -9.03914
456 1 11.0135 14.1522 7.85916 -9.03342
457 1 12.5952 12.5902 6.27397 -8.97408
458 1 14.1565 14.154 7.8609 -8.94827
459 1 15.7299 12.5809 6.28714 -8.95206
460 1 17.2991 14.153 7.86201 -8.94941
461 1 18.8711 12.5799 6.28954 -8.95026
462 1 20.442 14.1526 7.86253 -8.94968
463 1 -2.21609e-05 15.725 6.29014 -8.94959
464 1 1.5721 17.2973 7.86287 -8.94958
465 1 3.14394 15.725 6.29023 -8.94974
466 1 4.71667 17.2972 7.86322 -8.95024
467 1 6.28766 15.7264 6.28906 -8.94731
468 1 7.86045 17.2996 7.86181 -8.9481
469 1 9.43522 15.7249 6.29104 -8.95119
470 1 11.0087 17.2989 7.8618 -8.94663
471 1 12.5818 15.7271 6.28845 -8.95181
472 1 14.1529 17.2976 7.86278 -8.95026
473 1 15.7263 15.7258 6.28932 -8.94923
474 1 17.2974 17.2975 7.86267 -8.94961
475 1 18.8701 15.7252 6.28986 -8.94946
476 1 20.4417 17.2973 7.86271 -8.94956
477 1 22.0139 18.8695 6.2903 -8.94961
478 1 1.57227 20.4417 7.86282 -8.9496
479 1 3.14456 18.8695 6.29046 -8.94979
480 1 4.71696 20.4417 7.863 -8.94956
481 1 6.28893 18.8701 6.29006 -8.94934
482 1 7.86171 20.4422 7.86283 -8.95004
483 1 9.43466 18.8697 6.29048 -8.94923
484 1 11.0073 20.4421 7.86283 -8.9497
485 1 12.5801 18.8702 6.28995 -8.94967
486 1 14.1521 20.4418 7.86292 -8.94966
487 1 15.7248 18.8698 6.29023 -8.94976
488 1 17.2969 20.4418 7.8628 -8.94961
489 1 18.8694 18.8696 6.29023 -8.94962
490 1 20.4415 20.4417 7.86274 -8.94961
491 1 -0.000804385 12.58 9.43531 -8.94961
492 1 3.14184 12.5807 9.43518 -8.94651
493 1 6.28865 12.5807 9.43273 -9.03912
494 1 9.416 12.6562 9.41792 -9.37229
495 1 12.5868 12.5813 9.43011 -9.03187
496 1 15.729 12.5808 9.43382 -8.94783
497 1 18.8707 12.58 9.43504 -8.94977
498 1 22.0136 15.725 9.43533 -8.94949
499 1 3.14384 15.7251 9.43563 -8.94922
500 1 6.28938 15.725 9.43658 -8.95118
501 1 9.43438 15.7402 9.43587 -8.9721
502 1 12.5801 15.7249 9.43543 -8.95081
503 1 15.7257 15.7253 9.43526 -8.94908
512 1 1.56838 11.007 11.0085 -8.95319
687 2 9.36131 11.007 10.3284 0.548144
513 1 4.70166 11.007 11.0105 -8.97422
516 1 14.1667 11.007 11.0081 -9.01528
519 1 1.57071 14.1527 11.0082 -8.94923
520 1 4.71433 14.1524 11.0084 -8.95059
521 1 7.85731 14.1523 11.015 -9.03352
522 1 11.011 14.153 11.0124 -9.057
527 1 4.7162 17.2974 11.0083 -8.94961
532 1 20.4415 17.2973 11.0078 -8.94956
534 1 4.71681 20.4418 11.008 -8.94955
686 1 20.4415 20.4418 20.4424 -8.94943
685 1 18.8691 18.8697 18.8701 -8.94944
514 1 7.77313 11.007 11.0469 -9.26454
515 1 11.0764 11.007 11.0771 -9.32709
684 1 17.2967 20.4418 20.4423 -8.94961
517 1 17.3005 11.007 11.0079 -8.9531
518 1 20.4414 11.007 11.008 -8.9507
683 1 15.7243 18.8696 18.8701 -8.94965
682 1 14.1517 20.4417 20.4424 -8.94961
681 1 12.5794 18.8695 18.8702 -8.9496
680 1 11.0069 20.4417 20.4425 -8.94961
523 1 14.1547 14.1526 11.0078 -8.95007
524 1 17.2982 14.1526 11.008 -8.94939
525 1 20.4414 14.1526 11.008 -8.94954
526 1 1.57178 17.2974 11.008 -8.94957
389 1 15.7244 18.8696 22.0146 -8.94967
528 1 7.86042 17.2989 11.01 -8.94665
529 1 11.0085 17.2989 11.0097 -8.94706
530 1 14.1526 17.2973 11.008 -8.94986
679 1 9.43444 18.8695 18.8704 -8.9496
383 1 6.28961 18.8694 22.015 -8.94961
678 1 7.86206 20.4417 20.4426 -8.94961
377 1 18.8695 15.7249 22.0145 -8.94958
535 1 7.86169 20.4421 11.0084 -8.94971
536 1 11.0073 20.4421 11.0084 -8.94974
537 1 14.1521 20.4417 11.008 -8.94959
677 1 6.2895 18.8696 18.8705 -8.94962
539 1 20.4414 20.4417 11.0077 -8.9496
540 1 1.56924 11.007 14.1547 -8.94954
541 1 4.71055 11.007 14.1583 -8.94719
542 1 7.85572 11.007 14.1637 -9.00907
543 1 11.0069 11.007 14.1678 -9.01528
544 1 14.1539 11.007 14.1551 -8.94961
545 1 17.2979 11.007 14.1538 -8.94918
546 1 20.4409 11.007 14.1537 -8.94975
547 1 22.012 12.58 12.5812 -8.95047
548 1 1.56966 14.1533 14.1546 -8.94981
549 1 3.13839 12.5812 12.5835 -8.95156
550 1 4.71102 14.1564 14.1586 -8.94338
551 1 6.27209 12.5903 12.5967 -8.9739
552 1 7.85955 14.1539 14.1577 -8.9484
553 1 9.42861 12.581 12.5878 -9.03236
554 1 11.0065 14.1524 14.1557 -8.95018
555 1 12.5888 12.5885 12.5899 -9.00799
556 1 14.1551 14.1548 14.1563 -8.9452
557 1 15.7283 12.5809 12.5823 -8.94987
558 1 17.2981 14.1529 14.1539 -8.94966
559 1 18.87 12.5799 12.581 -8.95018
560 1 20.441 14.1526 14.1536 -8.94992
561 1 -0.000748644 15.7251 12.5807 -8.94952
562 1 1.57154 17.2976 14.1533 -8.94979
563 1 3.14311 15.7253 12.5811 -8.9501
564 1 4.71578 17.2984 14.1542 -8.94998
565 1 6.28693 15.7271 12.5831 -8.95178
566 1 7.86162 17.2975 14.154 -8.95025
567 1 9.43409 15.7248 12.5813 -8.95073
568 1 11.0069 17.2972 14.1537 -8.94986
569 1 12.581 15.7266 12.5822 -8.95124
570 1 14.1526 17.2979 14.1537 -8.9497
571 1 15.7253 15.7252 12.5808 -8.94996
572 1 17.2971 17.2974 14.1531 -8.94974
573 1 18.8694 15.725 12.5806 -8.94954
574 1 20.4413 17.2974 14.153 -8.94959
575 1 22.0136 18.8696 12.5803 -8.94959
576 1 1.57206 20.4418 14.1528 -8.94964
577 1 3.14417 18.8697 12.5806 -8.94964
578 1 4.71671 20.442 14.1532 -8.94971
579 1 6.28876 18.8702 12.5813 -8.94968
580 1 7.86194 20.4418 14.1532 -8.94965
581 1 9.43445 18.8696 12.5809 -8.94928
582 1 11.007 20.4417 14.1532 -8.94957
583 1 12.5801 18.8701 12.5811 -8.9496
584 1 14.1521 20.4419 14.1531 -8.94963
585 1 15.7246 18.8696 12.5804 -8.94971
586 1 17.2968 20.4418 14.1528 -8.94966
587 1 18.8692 18.8696 12.5803 -8.9496
588 1 20.4414 20.4418 14.1527 -8.94961
589 1 1.57092 11.007 17.2992 -8.94953
590 1 4.71494 11.007 17.3008 -8.94932
591 1 7.86068 11.007 17.3017 -8.95099
592 1 11.0068 11.007 17.3016 -8.95311
593 1 14.1527 11.007 17.2991 -8.94918
594 1 17.2972 11.007 17.2983 -8.94956
595 1 20.4411 11.007 17.2984 -8.94957
596 1 22.0126 12.5798 15.7265 -8.94954
597 1 1.57109 14.1527 17.299 -8.94956
598 1 3.14183 12.5803 15.728 -8.94931
599 1 4.71525 14.1532 17.3005 -8.94989
600 1 6.28579 12.5809 15.7312 -8.95207
601 1 7.86094 14.1529 17.3003 -8.94941
602 1 9.4326 12.5807 15.7301 -8.94774
603 1 11.0069 14.1525 17.2994 -8.94938
604 1 12.5811 12.5808 15.7294 -8.94986
605 1 14.1528 14.1529 17.2992 -8.94967
606 1 15.7254 12.5798 15.7265 -8.94996
607 1 17.2972 14.1524 17.2983 -8.94974
608 1 18.8692 12.5797 15.726 -8.9496
609 1 20.4411 14.1524 17.2983 -8.94958
610 1 22.0129 15.7253 15.7262 -8.94955
611 1 1.57157 17.2978 17.2985 -8.94909
612 1 3.14246 15.7263 15.7275 -8.94788
613 1 4.7165 17.2977 17.2987 -8.94957
614 1 6.28818 15.7257 15.7275 -8.94927
615 1 7.86177 17.2974 17.2985 -8.94961
616 1 9.43415 15.7252 15.7268 -8.94909
617 1 11.0069 17.2972 17.2983 -8.94953
618 1 12.5797 15.725 15.7264 -8.94999
619 1 14.152 17.2973 17.2981 -8.94976
620 1 15.7254 15.7256 15.7265 -8.94848
621 1 17.297 17.2975 17.2981 -8.9493
622 1 18.8693 15.7252 15.7259 -8.94957
623 1 20.4413 17.2975 17.2981 -8.94948
624 1 -0.000348398 18.8697 15.7254 -8.94966
625 1 1.57212 20.4419 17.2979 -8.94956
626 1 3.14411 18.87 15.7259 -8.94962
627 1 4.71705 20.4418 17.298 -8.94967
628 1 6.2893 18.8698 15.7259 -8.94976
629 1 7.86202 20.4417 17.298 -8.94961
630 1 9.43443 18.8695 15.7258 -8.94958
631 1 11.0069 20.4417 17.2979 -8.9496
632 1 12.5795 18.8695 15.7257 -8.94971
633 1 14.1518 20.4417 17.2978 -8.94966
634 1 15.7246 18.8698 15.7256 -8.94956
635 1 17.2967 20.4418 17.2977 -8.94957
636 1 18.8691 18.8697 15.7253 -8.94965
637 1 20.4414 20.4418 17.2977 -8.9496
638 1 1.57184 11.007 20.4432 -8.94957
639 1 4.7164 11.007 20.4437 -8.94975
640 1 7.86159 11.007 20.4437 -8.94994
641 1 11.007 11.007 20.4429 -8.95069
642 1 14.1525 11.007 20.4422 -8.94975
643 1 17.2973 11.007 20.4423 -8.94957
644 1 20.4415 11.007 20.4427 -8.94958
645 1 22.0133 12.5797 18.8708 -8.94957
646 1 1.57191 14.1523 20.4431 -8.94958
647 1 3.14362 12.5798 18.8716 -8.94954
648 1 4.71653 14.1524 20.4435 -8.94985
649 1 6.28853 12.5798 18.8724 -8.95027
650 1 7.8616 14.1525 20.4434 -8.94966
651 1 9.43401 12.5799 18.872 -8.94974
652 1 11.007 14.1524 20.4428 -8.94953
653 1 12.5799 12.5799 18.8712 -8.95018
654 1 14.1524 14.1525 20.4423 -8.94992
655 1 15.7249 12.5797 18.8704 -8.9496
656 1 17.2972 14.1524 20.4423 -8.94958
657 1 18.8693 12.5797 18.8704 -8.94958
658 1 20.4415 14.1523 20.4426 -8.94958
659 1 22.0135 15.725 18.8706 -8.94958
660 1 1.57211 17.2974 20.4428 -8.94953
661 1 3.14391 15.7252 18.8713 -8.94957
662 1 4.71692 17.2973 20.443 -8.94955
663 1 6.28899 15.7251 18.8713 -8.94947
664 1 7.86192 17.2972 20.4429 -8.94956
665 1 9.43431 15.7249 18.8709 -8.94949
666 1 11.0069 17.2972 20.4427 -8.94956
667 1 12.5795 15.7249 18.8706 -8.94954
668 1 14.1519 17.2973 20.4424 -8.9496
669 1 15.7248 15.7251 18.8704 -8.94957
670 1 17.297 17.2974 20.4423 -8.94948
671 1 18.8692 15.7249 18.8703 -8.94962
672 1 20.4415 17.2973 20.4425 -8.94956
673 1 -0.000216064 18.8697 18.8703 -8.9494
674 1 1.57237 20.4418 20.4425 -8.94956
675 1 3.14454 18.8697 18.8705 -8.94959
676 1 4.71722 20.4417 20.4426 -8.94961
351 1 22.0139 12.5796 22.0149 -8.94959
355 1 6.28916 12.5797 22.0154 -8.94996
361 1 15.7252 12.5798 22.0139 -8.94955
367 1 3.14445 15.7248 22.0151 -8.94966
371 1 9.43439 15.7249 22.015 -8.94949
373 1 12.5796 15.7249 22.0145 -8.94951
357 1 9.43426 12.5799 22.0147 -8.94959
379 1 22.0139 18.8696 22.0148 -8.94949
533 1 1.57213 20.4418 11.0078 -8.9496
