ITEM: TIMESTEP
70
ITEM: NUMBER OF ATOMS
688
ITEM: BOX BOUNDS pp pp pp
0.0000000000000000e+00 2.2013900999999997e+01
0.0000000000000000e+00 2.2013900999999997e+01
0.0000000000000000e+00 2.2013900999999997e+01
ITEM: ATOMS id type x y z c_pot
1 1 0.000170251 -1.2161e-15 0.000174488 -8.94955
2 1 1.57265 1.57231 1.57237 -8.9496
175 1 18.87 9.43386 9.43444 -8.95028
4 1 4.71756 1.57245 1.57252 -8.94967
5 1 6.28989 1.05367e-15 0.000139713 -8.94962
6 1 7.86221 1.57257 1.57269 -8.94961
174 1 15.7297 9.43254 9.4351 -8.95094
8 1 11.0067 1.57256 1.57274 -8.94961
9 1 12.5791 -2.51688e-17 0.000247199 -8.94962
10 1 14.1514 1.57244 1.57265 -8.94967
173 1 12.596 9.42478 9.43057 -9.01502
12 1 17.2964 1.57227 1.57246 -8.94965
13 1 18.869 4.04426e-15 0.000246915 -8.94959
14 1 20.4415 1.5722 1.57237 -8.94949
193 1 11.0148 7.86413 11.0129 -9.06215
16 1 1.57241 4.71681 1.57226 -8.94955
17 1 3.14513 3.14469 0.000210509 -8.94968
18 1 4.71751 4.71717 1.57252 -8.94973
172 1 9.41166 9.37015 9.4286 -9.37324
20 1 7.86214 4.71735 1.57297 -8.94962
21 1 9.43441 3.14489 0.000461266 -8.94961
22 1 11.0065 4.71738 1.5731 -8.9496
23 1 12.579 3.14482 0.000505215 -8.94961
24 1 14.1512 4.71713 1.57287 -8.94991
171 1 6.27889 9.43031 9.43125 -9.03109
26 1 17.2967 4.71666 1.5724 -8.94938
27 1 18.8691 3.14439 0.000346743 -8.94946
28 1 20.4414 4.71682 1.57234 -8.94956
29 1 -3.24173e-05 6.28928 0.000251407 -8.94961
30 1 1.57221 7.86181 1.57226 -8.94965
170 1 3.13769 9.43231 9.43352 -8.94771
32 1 4.71705 7.86191 1.57241 -8.94997
33 1 6.28978 6.28957 0.000285428 -8.94946
34 1 7.86186 7.86207 1.57325 -8.94902
169 1 -0.0026953 9.43367 9.43398 -8.94999
36 1 11.0062 7.86218 1.57353 -8.94891
168 1 18.8697 6.28835 9.43428 -8.94946
38 1 14.1519 7.86145 1.5723 -8.94993
39 1 15.7243 6.2891 0.000513031 -8.94972
40 1 17.2967 7.86177 1.57261 -8.94967
167 1 15.7262 6.28767 9.43464 -8.94834
42 1 20.4413 7.86181 1.5724 -8.94958
166 1 12.5809 6.28736 9.43637 -8.95298
44 1 3.14471 9.43439 0.000272927 -8.94971
165 1 9.43389 6.27839 9.43825 -8.97012
192 1 7.85458 7.86268 11.0151 -9.03843
47 1 12.5792 9.43429 0.000624455 -8.95043
164 1 6.2879 6.28886 9.43645 -8.95229
49 1 18.8692 9.43436 0.000600492 -8.94959
50 1 22.014 -1.82189e-15 3.14459 -8.94958
51 1 1.57244 1.57217 4.71687 -8.94966
52 1 3.14506 -9.13255e-15 3.1447 -8.94955
53 1 4.7173 1.57218 4.71704 -8.94954
54 1 6.2899 3.47143e-16 3.14501 -8.94959
55 1 7.86216 1.57254 4.71743 -8.94949
56 1 9.43444 -6.1225e-15 3.14513 -8.94959
57 1 11.0066 1.57252 4.71746 -8.94949
58 1 12.579 2.53244e-15 3.14507 -8.94959
59 1 14.1515 1.57221 4.71712 -8.94961
60 1 15.7239 -8.16977e-16 3.14477 -8.94961
61 1 17.2966 1.57211 4.71685 -8.94964
62 1 18.869 2.46461e-15 3.14459 -8.94956
63 1 20.4415 1.57212 4.71683 -8.94958
64 1 5.04294e-07 3.14441 3.14448 -8.9495
65 1 1.57197 4.71654 4.71662 -8.94938
66 1 3.14493 3.14455 3.14458 -8.94966
67 1 4.71719 4.71707 4.71728 -8.94956
68 1 6.28997 3.145 3.14506 -8.94982
69 1 7.86209 4.71817 4.71855 -8.95026
70 1 9.43433 3.14504 3.14527 -8.94966
71 1 11.0062 4.71817 4.71858 -8.94984
72 1 12.5788 3.14502 3.14519 -8.94975
73 1 14.1513 4.71681 4.71744 -8.95025
74 1 15.7239 3.14448 3.14471 -8.9498
75 1 17.2968 4.71642 4.71666 -8.94919
76 1 18.869 3.14439 3.14451 -8.94945
77 1 20.4413 4.71661 4.71664 -8.94949
78 1 22.0136 6.28916 3.14436 -8.94958
79 1 1.57132 7.86142 4.7163 -8.94962
80 1 3.14445 6.28918 3.14432 -8.94938
81 1 4.71554 7.86102 4.71617 -8.94879
82 1 6.28976 6.28997 3.14559 -8.9499
83 1 7.86181 7.86308 4.71945 -8.95089
84 1 9.43408 6.29029 3.1465 -8.94928
85 1 11.0048 7.86359 4.72002 -8.95064
86 1 12.5783 6.28996 3.146 -8.95029
87 1 14.154 7.85931 4.71487 -8.94617
88 1 15.7245 6.28871 3.14424 -8.9487
89 1 17.2971 7.86134 4.71664 -8.94981
90 1 18.8691 6.28913 3.14447 -8.94961
91 1 20.4411 7.86156 4.71654 -8.94966
92 1 -0.000518944 9.43431 3.14434 -8.94956
93 1 3.14406 9.4342 3.14425 -8.94964
94 1 6.28893 9.43443 3.14487 -8.95086
95 1 9.43311 9.4337 3.14615 -8.94492
96 1 12.58 9.43343 3.14313 -8.9507
97 1 15.7245 9.43413 3.14463 -8.94964
98 1 18.869 9.43435 3.14456 -8.94957
99 1 -4.2279e-05 5.03076e-15 6.28924 -8.94961
100 1 1.57229 1.57213 7.86177 -8.94962
101 1 3.1449 3.83392e-15 6.28938 -8.94973
102 1 4.71708 1.57219 7.86207 -8.94976
103 1 6.28954 1.10733e-14 6.28944 -8.94961
104 1 7.86186 1.57234 7.86222 -8.94966
105 1 9.43439 1.61871e-15 6.28968 -8.94926
106 1 11.0068 1.57226 7.86218 -8.9495
107 1 12.5792 9.18599e-15 6.28946 -8.94958
108 1 14.1518 1.57207 7.86203 -8.94992
109 1 15.7241 -1.1039e-15 6.28934 -8.9498
110 1 17.2968 1.57205 7.86171 -8.94956
111 1 18.8691 8.30978e-16 6.28921 -8.94957
112 1 20.4415 1.57205 7.86168 -8.94958
113 1 22.0137 3.14426 6.28915 -8.94957
114 1 1.57159 4.71618 7.86153 -8.94957
115 1 3.14453 3.14431 6.28938 -8.94983
116 1 4.71633 4.71647 7.86209 -8.95047
117 1 6.28935 3.14476 6.28971 -8.94929
118 1 7.86046 4.71614 7.86232 -8.94744
119 1 9.43425 3.14538 6.29055 -8.9489
120 1 11.0076 4.71638 7.86237 -8.94629
121 1 12.5792 3.14469 6.28982 -8.94937
122 1 14.1524 4.71567 7.86208 -8.95062
123 1 15.7243 3.14408 6.28934 -8.94978
124 1 17.2972 4.71605 7.86157 -8.94944
125 1 18.8691 3.14425 6.28915 -8.94954
126 1 20.4413 4.71633 7.86152 -8.94949
127 1 -0.000864434 6.28868 6.28875 -8.94949
128 1 1.56974 7.86073 7.86103 -8.94942
129 1 3.14329 6.28842 6.2887 -8.94893
130 1 4.71211 7.85988 7.86111 -8.94825
131 1 6.28833 6.28902 6.29006 -8.94935
132 1 7.85708 7.86322 7.86491 -9.00486
133 1 9.43417 6.29187 6.29391 -8.95164
134 1 11.009 7.86568 7.86755 -9.02965
135 1 12.579 6.28871 6.29072 -8.95238
136 1 14.1572 7.85792 7.86072 -8.94487
137 1 15.7255 6.28789 6.28862 -8.94815
138 1 17.2983 7.86077 7.86159 -8.94998
139 1 18.8692 6.28868 6.28892 -8.94958
140 1 20.4409 7.86119 7.86143 -8.94981
141 1 22.0125 9.43412 6.28872 -8.94976
142 1 3.1416 9.43383 6.28852 -8.95009
143 1 6.28396 9.4335 6.28767 -8.94802
144 1 9.43076 9.4374 6.30021 -9.02699
145 1 12.5885 9.42751 6.28198 -8.98041
146 1 15.7269 9.43352 6.28888 -8.95109
147 1 18.8692 9.43418 6.28904 -8.94986
148 1 -9.19802e-05 -2.23069e-15 9.43429 -8.94961
149 1 3.14473 -8.81219e-15 9.43442 -8.9497
150 1 6.28948 -1.34316e-14 9.43474 -8.94961
151 1 9.43437 -1.0244e-14 9.43477 -8.95069
152 1 12.5793 2.06836e-15 9.4347 -8.94973
153 1 15.7244 -6.2037e-15 9.43436 -8.94973
154 1 18.8692 1.43364e-15 9.43425 -8.94959
155 1 -0.000244161 3.14408 9.43423 -8.94958
156 1 3.14417 3.14397 9.43438 -8.94963
157 1 6.28928 3.14438 9.43502 -8.94956
158 1 9.43422 3.14263 9.43521 -8.95371
159 1 12.5794 3.14399 9.435 -8.94995
160 1 15.7248 3.14361 9.43434 -8.94952
161 1 18.8693 3.14403 9.43423 -8.94956
162 1 22.0128 6.28846 9.43414 -8.94951
163 1 3.14254 6.28826 9.43439 -8.94903
191 1 4.71087 7.86026 11.0078 -8.94973
181 1 17.297 1.5719 11.0069 -8.94958
188 1 17.2978 4.71572 11.0073 -8.94952
190 1 1.56902 7.8606 11.0072 -8.94936
177 1 4.71689 1.57196 11.0071 -8.94971
184 1 4.71573 4.71617 11.0076 -8.94969
189 1 20.4414 4.71615 11.0069 -8.94954
7 1 9.43446 -2.76846e-15 0.000202662 -8.94962
343 1 18.8696 9.43421 18.8705 -8.94949
48 1 15.7243 9.43429 22.0147 -8.94964
178 1 7.86178 1.57206 11.0075 -8.9497
179 1 11.0069 1.57193 11.0075 -8.94955
180 1 14.1521 1.57173 11.0071 -8.94989
342 1 15.7255 9.43403 18.8715 -8.94951
182 1 20.4416 1.57196 11.0069 -8.94959
183 1 1.57129 4.71604 11.0071 -8.94957
45 1 6.28969 9.43453 22.0143 -8.94998
185 1 7.86004 4.7159 11.0097 -8.94729
186 1 11.0086 4.7159 11.0097 -8.94633
187 1 14.1533 4.71514 11.0078 -8.94993
341 1 12.5799 9.43417 18.8716 -8.95097
43 1 22.0138 9.43438 22.0142 -8.9496
340 1 9.43441 9.43432 18.8697 -8.94872
339 1 6.28944 9.4345 18.8701 -8.95055
338 1 3.14422 9.43423 18.8704 -8.9496
337 1 22.0138 9.43425 18.8702 -8.94956
194 1 14.1589 7.85778 11.009 -8.9472
195 1 17.2994 7.86028 11.0078 -8.94974
196 1 20.4411 7.86094 11.007 -8.94986
197 1 -6.9833e-05 2.19832e-15 12.5795 -8.94961
198 1 1.57222 1.57198 14.1522 -8.94966
199 1 3.14464 9.88452e-15 12.5796 -8.94971
200 1 4.7169 1.57186 14.1524 -8.94982
201 1 6.28936 1.179e-14 12.5798 -8.94986
202 1 7.86213 1.5725 14.1522 -8.94934
203 1 9.43441 9.96427e-15 12.5798 -8.94909
204 1 11.0067 1.57228 14.1523 -8.94948
205 1 12.5795 1.08536e-14 12.5798 -8.94993
206 1 14.1522 1.57157 14.1526 -8.94998
207 1 15.7245 -2.2351e-15 12.5797 -8.94976
208 1 17.2971 1.57183 14.1523 -8.94961
209 1 18.8693 1.57215e-15 12.5795 -8.94959
210 1 20.4416 1.57193 14.1522 -8.94959
211 1 22.0137 3.14399 12.5796 -8.94958
212 1 1.5715 4.71591 14.1526 -8.94971
213 1 3.14405 3.1439 12.5798 -8.9497
214 1 4.71584 4.71544 14.1532 -8.94984
215 1 6.28889 3.14398 12.5803 -8.9499
216 1 7.86222 4.71787 14.1521 -8.94988
217 1 9.43445 3.14516 12.5801 -8.94848
218 1 11.0068 4.7172 14.1525 -8.94959
219 1 12.5799 3.14357 12.5804 -8.95021
220 1 14.1535 4.71447 14.1538 -8.9504
221 1 15.7252 3.14341 12.58 -8.94965
222 1 17.298 4.71548 14.1529 -8.94945
223 1 18.8695 3.14391 12.5797 -8.94956
224 1 20.4416 4.71606 14.1526 -8.94952
225 1 -0.00102143 6.2883 12.58 -8.94957
226 1 1.56932 7.8602 14.154 -8.94955
227 1 3.14217 6.28784 12.5805 -8.94981
228 1 4.71045 7.85714 14.1578 -8.94203
229 1 6.28608 6.28638 12.5822 -8.95164
230 1 7.86287 7.86389 14.1528 -8.95314
231 1 9.43528 6.29232 12.5797 -8.94807
232 1 11.0064 7.86286 14.154 -8.95154
233 1 12.5827 6.28471 12.5826 -8.95425
234 1 14.161 7.85438 14.1612 -8.93998
235 1 15.7273 6.28688 12.5814 -8.94879
236 1 17.2999 7.85996 14.1544 -8.95032
237 1 18.8701 6.28806 12.5801 -8.94951
238 1 20.4415 7.86089 14.1532 -8.95005
239 1 22.0113 9.43368 12.5804 -8.95062
240 1 3.13595 9.43216 12.5829 -8.95099
241 1 6.26889 9.42357 12.5956 -8.96945
242 1 9.43533 9.44482 12.573 -9.05277
243 1 12.6031 9.41711 12.6014 -8.99616
244 1 15.7323 9.43225 12.5837 -8.95325
245 1 18.8705 9.43383 12.5806 -8.95082
246 1 -2.32956e-06 -3.30004e-15 15.7247 -8.94961
247 1 1.57241 1.57205 17.2973 -8.94954
248 1 3.14476 -3.06679e-15 15.7248 -8.94968
249 1 4.71746 1.57229 17.297 -8.9497
250 1 6.28977 -1.30667e-14 15.7245 -8.94956
251 1 7.86211 1.57242 17.2969 -8.94956
252 1 9.43439 -1.01843e-14 15.7245 -8.94958
253 1 11.0067 1.57236 17.297 -8.94958
254 1 12.5792 3.05968e-15 15.7247 -8.94964
255 1 14.1516 1.5721 17.2973 -8.9497
256 1 15.7244 -4.7438e-15 15.7249 -8.94979
257 1 17.2969 1.5719 17.2976 -8.94958
258 1 18.8694 1.87632e-15 15.7248 -8.94959
259 1 20.4416 1.57198 17.2973 -8.94956
260 1 -9.5398e-05 3.14399 15.725 -8.9496
261 1 1.57197 4.71615 17.2979 -8.94908
262 1 3.14438 3.14383 15.7251 -8.94958
263 1 4.71729 4.71682 17.2973 -8.95007
264 1 6.28981 3.14476 15.7246 -8.94974
265 1 7.86201 4.71719 17.297 -8.94947
266 1 9.43434 3.14469 15.7247 -8.94959
267 1 11.0068 4.71692 17.2974 -8.94952
268 1 12.5793 3.14424 15.7251 -8.9497
269 1 14.1519 4.71617 17.298 -8.95004
270 1 15.725 3.14326 15.7255 -8.94972
271 1 17.2978 4.71557 17.2985 -8.94875
272 1 18.8695 3.14386 15.7251 -8.94955
273 1 20.4417 4.71621 17.2978 -8.94943
274 1 22.0131 6.28834 15.7257 -8.9495
275 1 1.57155 7.86127 17.2983 -8.94956
276 1 3.14284 6.28762 15.7265 -8.94754
277 1 4.71601 7.86113 17.2987 -8.95013
278 1 6.28948 6.28966 15.725 -8.95073
279 1 7.86212 7.86221 17.2969 -8.94923
280 1 9.43439 6.28998 15.7247 -8.94891
281 1 11.0069 7.86189 17.2979 -8.94924
282 1 12.5799 6.28863 15.7261 -8.95063
283 1 14.154 7.86008 17.3005 -8.94993
284 1 15.7272 6.28646 15.7278 -8.94667
285 1 17.2983 7.86095 17.299 -8.94943
286 1 18.8703 6.28811 15.726 -8.94965
287 1 20.4417 7.86132 17.2981 -8.9495
288 1 22.0128 9.43392 15.7259 -8.94955
289 1 3.14196 9.43347 15.7269 -8.94916
290 1 6.28665 9.43348 15.7286 -8.95289
291 1 9.43442 9.4343 15.7244 -8.94433
292 1 12.5845 9.4318 15.7326 -8.95202
293 1 15.7279 9.43293 15.7283 -8.94887
294 1 18.8705 9.43387 15.7263 -8.94957
295 1 22.014 -6.06837e-15 18.8697 -8.94952
296 1 1.57268 1.57222 20.4418 -8.94965
297 1 3.14512 3.20695e-15 18.8695 -8.94969
298 1 4.71754 1.57233 20.4417 -8.94961
299 1 6.28984 1.44925e-15 18.8694 -8.94958
300 1 7.86216 1.57237 20.4417 -8.94961
301 1 9.43442 8.98305e-15 18.8694 -8.94959
302 1 11.0067 1.57235 20.4418 -8.94961
303 1 12.5791 8.83743e-15 18.8695 -8.9496
304 1 14.1515 1.57225 20.442 -8.94962
305 1 15.724 -3.3906e-15 18.8697 -8.94968
306 1 17.2965 1.57214 20.442 -8.94967
307 1 18.8692 5.82347e-16 18.8698 -8.94953
308 1 20.4416 1.57211 20.442 -8.94941
309 1 0.00011607 3.14423 18.8698 -8.94939
310 1 1.57244 4.71677 20.442 -8.94957
311 1 3.14501 3.14448 18.8696 -8.94977
312 1 4.7175 4.71713 20.4418 -8.94963
313 1 6.28985 3.14479 18.8693 -8.94956
314 1 7.86212 4.71726 20.4419 -8.94954
315 1 9.4344 3.14478 18.8694 -8.94959
316 1 11.0067 4.7172 20.442 -8.94956
317 1 12.5791 3.14462 18.8696 -8.94956
318 1 14.1515 4.71694 20.4423 -8.94965
319 1 15.7242 3.14422 18.87 -8.94976
320 1 17.2969 4.71651 20.4424 -8.94948
321 1 18.8693 3.14409 18.87 -8.94925
322 1 20.4416 4.71671 20.4422 -8.94956
323 1 22.0139 6.28898 18.8701 -8.94956
324 1 1.57229 7.86174 20.4422 -8.94961
325 1 3.14449 6.28897 18.8702 -8.94967
326 1 4.71719 7.86184 20.4422 -8.95001
327 1 6.28978 6.28951 18.8695 -8.94956
328 1 7.86205 7.86194 20.4419 -8.94931
329 1 9.43438 6.28949 18.8696 -8.94953
330 1 11.0066 7.86185 20.4423 -8.94934
331 1 12.5792 6.28912 18.8702 -8.94955
332 1 14.1521 7.86145 20.443 -8.95015
333 1 15.7251 6.28837 18.8712 -8.94957
334 1 17.297 7.86159 20.4427 -8.94954
335 1 18.8695 6.28882 18.8703 -8.94951
336 1 20.4416 7.8617 20.4423 -8.94958
3 1 3.14518 2.76031e-15 22.014 -8.94964
41 1 18.8692 6.28923 22.0144 -8.94961
11 1 15.7238 -2.13982e-16 22.0142 -8.94965
19 1 6.2899 3.14487 22.0142 -8.94961
25 1 15.7239 3.14458 22.0144 -8.94974
31 1 3.14487 6.28935 22.0141 -8.94977
35 1 9.43428 6.28966 22.0145 -8.94943
37 1 12.5789 6.28954 22.0147 -8.94949
15 1 22.014 3.14448 22.0141 -8.94952
46 1 9.43406 9.43426 22.0145 -8.94907
176 1 1.57216 1.57202 11.0069 -8.94962
344 1 1.5721 11.007 1.57223 -8.94963
345 1 4.71696 11.007 1.5723 -8.94969
346 1 7.86196 11.007 1.573 -8.94983
347 1 11.0062 11.007 1.57162 -8.95301
348 1 14.1517 11.007 1.57249 -8.94953
349 1 17.2967 11.007 1.57269 -8.94959
350 1 20.4413 11.007 1.57243 -8.94957
688 2 10.293 11.007 9.41198 0.541799
352 1 1.57221 14.1521 1.57226 -8.94965
353 1 3.14471 12.5795 0.000272927 -8.94971
354 1 4.71705 14.152 1.57241 -8.94997
511 1 18.8693 18.8699 9.43423 -8.94956
356 1 7.86186 14.1518 1.57325 -8.94902
538 1 17.297 20.442 11.0069 -8.94958
358 1 11.0062 14.1517 1.57353 -8.94891
359 1 12.5792 12.5796 0.000624455 -8.95043
360 1 14.1519 14.1524 1.5723 -8.94993
510 1 15.7248 18.8703 9.43434 -8.94952
362 1 17.2967 14.1521 1.57261 -8.94967
363 1 18.8692 12.5795 0.000600492 -8.94959
364 1 20.4413 14.1521 1.5724 -8.94958
365 1 -3.24173e-05 15.7246 0.000251407 -8.94961
366 1 1.57241 17.2971 1.57226 -8.94955
509 1 12.5794 18.8699 9.435 -8.94995
368 1 4.71751 17.2967 1.57252 -8.94973
369 1 6.28978 15.7243 0.000285428 -8.94946
370 1 7.86214 17.2966 1.57297 -8.94962
508 1 9.43422 18.8713 9.43521 -8.95371
372 1 11.0065 17.2965 1.5731 -8.9496
507 1 6.28928 18.8695 9.43502 -8.94956
374 1 14.1512 17.2968 1.57287 -8.94991
375 1 15.7243 15.7248 0.000513031 -8.94972
376 1 17.2967 17.2972 1.5724 -8.94938
506 1 3.14417 18.8699 9.43438 -8.94963
378 1 20.4414 17.2971 1.57234 -8.94956
531 1 17.2978 17.2982 11.0073 -8.94952
380 1 1.57265 20.4416 1.57237 -8.9496
381 1 3.14513 18.8692 0.000210509 -8.94968
382 1 4.71756 20.4414 1.57252 -8.94967
505 1 -0.000244161 18.8698 9.43423 -8.94958
384 1 7.86221 20.4413 1.57269 -8.94961
385 1 9.43441 18.869 0.000461266 -8.94961
386 1 11.0067 20.4413 1.57274 -8.94961
387 1 12.579 18.8691 0.000505215 -8.94961
388 1 14.1514 20.4415 1.57265 -8.94967
504 1 18.8697 15.7256 9.43428 -8.94946
390 1 17.2964 20.4416 1.57246 -8.94965
391 1 18.8691 18.8695 0.000346743 -8.94946
392 1 20.4415 20.4417 1.57237 -8.94949
393 1 1.57097 11.007 4.71642 -8.94948
394 1 4.71527 11.007 4.71661 -8.94841
395 1 7.86105 11.007 4.71835 -8.95418
396 1 11.0068 11.007 4.70861 -8.96997
397 1 14.153 11.007 4.71603 -8.94831
398 1 17.2971 11.007 4.71685 -8.94934
399 1 20.441 11.007 4.71657 -8.9496
400 1 -0.000518944 12.5796 3.14434 -8.94956
401 1 1.57132 14.1525 4.7163 -8.94962
402 1 3.14406 12.5797 3.14425 -8.94964
403 1 4.71554 14.1529 4.71617 -8.94879
404 1 6.28893 12.5795 3.14487 -8.95086
405 1 7.86181 14.1508 4.71945 -8.95089
406 1 9.43311 12.5802 3.14615 -8.94492
407 1 11.0048 14.1503 4.72002 -8.95064
408 1 12.58 12.5805 3.14313 -8.9507
409 1 14.154 14.1546 4.71487 -8.94617
410 1 15.7245 12.5798 3.14463 -8.94964
411 1 17.2971 14.1526 4.71664 -8.94981
412 1 18.869 12.5796 3.14456 -8.94957
413 1 20.4411 14.1523 4.71654 -8.94966
414 1 22.0136 15.7247 3.14436 -8.94958
415 1 1.57197 17.2974 4.71662 -8.94938
416 1 3.14445 15.7247 3.14432 -8.94938
417 1 4.71719 17.2968 4.71728 -8.94956
418 1 6.28976 15.7239 3.14559 -8.9499
419 1 7.86209 17.2957 4.71855 -8.95026
420 1 9.43408 15.7236 3.1465 -8.94928
421 1 11.0062 17.2957 4.71858 -8.94984
422 1 12.5783 15.7239 3.146 -8.95029
423 1 14.1513 17.2971 4.71744 -8.95025
424 1 15.7245 15.7252 3.14424 -8.9487
425 1 17.2968 17.2975 4.71666 -8.94919
426 1 18.8691 15.7248 3.14447 -8.94961
427 1 20.4413 17.2973 4.71664 -8.94949
428 1 5.04294e-07 18.8695 3.14448 -8.9495
429 1 1.57244 20.4417 4.71687 -8.94966
430 1 3.14493 18.8694 3.14458 -8.94966
431 1 4.7173 20.4417 4.71704 -8.94954
432 1 6.28997 18.8689 3.14506 -8.94982
433 1 7.86216 20.4414 4.71743 -8.94949
434 1 9.43433 18.8689 3.14527 -8.94966
435 1 11.0066 20.4414 4.71746 -8.94949
436 1 12.5788 18.8689 3.14519 -8.94975
437 1 14.1515 20.4417 4.71712 -8.94961
438 1 15.7239 18.8694 3.14471 -8.9498
439 1 17.2966 20.4418 4.71685 -8.94964
440 1 18.869 18.8695 3.14451 -8.94945
441 1 20.4415 20.4418 4.71683 -8.94958
442 1 1.56867 11.007 7.86114 -8.9501
443 1 4.70926 11.007 7.86165 -8.95275
444 1 7.84281 11.007 7.85519 -9.03436
445 1 11.0415 11.007 7.80077 -9.26988
446 1 14.159 11.007 7.86159 -9.00484
447 1 17.2988 11.007 7.86172 -8.95025
448 1 20.4406 11.007 7.86147 -8.94997
449 1 22.0125 12.5798 6.28872 -8.94976
450 1 1.56974 14.1532 7.86103 -8.94942
451 1 3.1416 12.5801 6.28852 -8.95009
452 1 4.71211 14.154 7.86111 -8.94825
453 1 6.28396 12.5804 6.28767 -8.94802
454 1 7.85708 14.1507 7.86491 -9.00486
455 1 9.43076 12.5765 6.30021 -9.02699
456 1 11.009 14.1482 7.86755 -9.02965
457 1 12.5885 12.5864 6.28198 -8.98041
458 1 14.1572 14.156 7.86072 -8.94487
459 1 15.7269 12.5804 6.28888 -8.95109
460 1 17.2983 14.1531 7.86159 -8.94998
461 1 18.8692 12.5797 6.28904 -8.94986
462 1 20.4409 14.1527 7.86143 -8.94981
463 1 -0.000864434 15.7252 6.28875 -8.94949
464 1 1.57159 17.2977 7.86153 -8.94957
465 1 3.14329 15.7255 6.2887 -8.94893
466 1 4.71633 17.2974 7.86209 -8.95047
467 1 6.28833 15.7249 6.29006 -8.94935
468 1 7.86046 17.2978 7.86232 -8.94744
469 1 9.43417 15.722 6.29391 -8.95164
470 1 11.0076 17.2975 7.86237 -8.94629
471 1 12.579 15.7252 6.29072 -8.95238
472 1 14.1524 17.2982 7.86208 -8.95062
473 1 15.7255 15.726 6.28862 -8.94815
474 1 17.2972 17.2979 7.86157 -8.94944
475 1 18.8692 15.7252 6.28892 -8.94958
476 1 20.4413 17.2976 7.86152 -8.94949
477 1 22.0137 18.8696 6.28915 -8.94957
478 1 1.57229 20.4418 7.86177 -8.94962
479 1 3.14453 18.8696 6.28938 -8.94983
480 1 4.71708 20.4417 7.86207 -8.94976
481 1 6.28935 18.8691 6.28971 -8.94929
482 1 7.86186 20.4416 7.86222 -8.94966
483 1 9.43425 18.8685 6.29055 -8.9489
484 1 11.0068 20.4416 7.86218 -8.9495
485 1 12.5792 18.8692 6.28982 -8.94937
486 1 14.1518 20.4418 7.86203 -8.94992
487 1 15.7243 18.8698 6.28934 -8.94978
488 1 17.2968 20.4419 7.86171 -8.94956
489 1 18.8691 18.8697 6.28915 -8.94954
490 1 20.4415 20.4419 7.86168 -8.94958
491 1 -0.0026953 12.5802 9.43398 -8.94999
492 1 3.13769 12.5816 9.43352 -8.94771
493 1 6.27889 12.5836 9.43125 -9.03109
494 1 9.41166 12.6437 9.4286 -9.37324
495 1 12.596 12.5891 9.43057 -9.01502
496 1 15.7297 12.5814 9.4351 -8.95094
497 1 18.87 12.58 9.43444 -8.95028
498 1 22.0128 15.7254 9.43414 -8.94951
499 1 3.14254 15.7256 9.43439 -8.94903
500 1 6.2879 15.725 9.43645 -8.95229
501 1 9.43389 15.7355 9.43825 -8.97012
502 1 12.5809 15.7265 9.43637 -8.95298
503 1 15.7262 15.7262 9.43464 -8.94834
512 1 1.5655 11.007 11.0075 -8.95391
687 2 9.41223 11.007 10.4732 0.509045
513 1 4.69467 11.007 11.01 -8.97452
516 1 14.1663 11.007 11.0117 -9.02286
519 1 1.56902 14.1533 11.0072 -8.94936
520 1 4.71087 14.1536 11.0078 -8.94973
521 1 7.85458 14.1512 11.0151 -9.03843
522 1 11.0148 14.1498 11.0129 -9.06215
527 1 4.71573 17.2977 11.0076 -8.94969
532 1 20.4414 17.2977 11.0069 -8.94954
534 1 4.71689 20.4419 11.0071 -8.94971
686 1 20.4416 20.4418 20.442 -8.94941
685 1 18.8693 18.8698 18.87 -8.94925
514 1 7.75271 11.007 11.0371 -9.22389
515 1 11.1336 11.007 11.0803 -9.30336
684 1 17.2965 20.4418 20.442 -8.94967
517 1 17.3005 11.007 11.0084 -8.95156
518 1 20.4404 11.007 11.0071 -8.95074
683 1 15.7242 18.8697 18.87 -8.94976
682 1 14.1515 20.4417 20.442 -8.94962
681 1 12.5791 18.8693 18.8696 -8.94956
680 1 11.0067 20.4416 20.4418 -8.94961
523 1 14.1589 14.1561 11.009 -8.9472
524 1 17.2994 14.1536 11.0078 -8.94974
525 1 20.4411 14.153 11.007 -8.94986
526 1 1.57129 17.2979 11.0071 -8.94957
389 1 15.7239 18.8693 22.0144 -8.94974
528 1 7.86004 17.298 11.0097 -8.94729
529 1 11.0086 17.298 11.0097 -8.94633
530 1 14.1533 17.2988 11.0078 -8.94993
679 1 9.4344 18.8691 18.8694 -8.94959
383 1 6.2899 18.869 22.0142 -8.94961
678 1 7.86216 20.4415 20.4417 -8.94961
377 1 18.8692 15.7247 22.0144 -8.94961
535 1 7.86178 20.4418 11.0075 -8.9497
536 1 11.0069 20.442 11.0075 -8.94955
537 1 14.1521 20.4422 11.0071 -8.94989
677 1 6.28985 18.8691 18.8693 -8.94956
539 1 20.4416 20.4419 11.0069 -8.94959
540 1 1.56861 11.007 14.1539 -8.94941
541 1 4.70949 11.007 14.1567 -8.94647
542 1 7.85662 11.007 14.1575 -9.00826
543 1 11.0156 11.007 14.1677 -9.01836
544 1 14.1604 11.007 14.1599 -8.94757
545 1 17.3003 11.007 14.1546 -8.94962
546 1 20.4413 11.007 14.1533 -8.94998
547 1 22.0113 12.5802 12.5804 -8.95062
548 1 1.56932 14.1537 14.154 -8.94955
549 1 3.13595 12.5817 12.5829 -8.95099
550 1 4.71045 14.1568 14.1578 -8.94203
551 1 6.26889 12.5903 12.5956 -8.96945
552 1 7.86287 14.15 14.1528 -8.95314
553 1 9.43533 12.5691 12.573 -9.05277
554 1 11.0064 14.151 14.154 -8.95154
555 1 12.6031 12.5968 12.6014 -8.99616
556 1 14.161 14.1595 14.1612 -8.93998
557 1 15.7323 12.5816 12.5837 -8.95325
558 1 17.2999 14.1539 14.1544 -8.95032
559 1 18.8705 12.5801 12.5806 -8.95082
560 1 20.4415 14.153 14.1532 -8.95005
561 1 -0.00102143 15.7256 12.58 -8.94957
562 1 1.5715 17.298 14.1526 -8.94971
563 1 3.14217 15.7261 12.5805 -8.94981
564 1 4.71584 17.2985 14.1532 -8.94984
565 1 6.28608 15.7275 12.5822 -8.95164
566 1 7.86222 17.296 14.1521 -8.94988
567 1 9.43528 15.7216 12.5797 -8.94807
568 1 11.0068 17.2967 14.1525 -8.94959
569 1 12.5827 15.7292 12.5826 -8.95425
570 1 14.1535 17.2994 14.1538 -8.9504
571 1 15.7273 15.727 12.5814 -8.94879
572 1 17.298 17.2984 14.1529 -8.94945
573 1 18.8701 15.7258 12.5801 -8.94951
574 1 20.4416 17.2978 14.1526 -8.94952
575 1 22.0137 18.8699 12.5796 -8.94958
576 1 1.57222 20.4419 14.1522 -8.94966
577 1 3.14405 18.87 12.5798 -8.9497
578 1 4.7169 20.442 14.1524 -8.94982
579 1 6.28889 18.8699 12.5803 -8.9499
580 1 7.86213 20.4414 14.1522 -8.94934
581 1 9.43445 18.8687 12.5801 -8.94848
582 1 11.0067 20.4416 14.1523 -8.94948
583 1 12.5799 18.8703 12.5804 -8.95021
584 1 14.1522 20.4423 14.1526 -8.94998
585 1 15.7252 18.8705 12.58 -8.94965
586 1 17.2971 20.4421 14.1523 -8.94961
587 1 18.8695 18.87 12.5797 -8.94956
588 1 20.4416 20.442 14.1522 -8.94959
589 1 1.57133 11.007 17.2983 -8.94955
590 1 4.71568 11.007 17.299 -8.94942
591 1 7.86185 11.007 17.298 -8.95095
592 1 11.0079 11.007 17.3008 -8.95373
593 1 14.1542 11.007 17.3009 -8.94922
594 1 17.2985 11.007 17.2992 -8.94947
595 1 20.4416 11.007 17.2981 -8.94951
596 1 22.0128 12.58 15.7259 -8.94955
597 1 1.57155 14.1526 17.2983 -8.94956
598 1 3.14196 12.5804 15.7269 -8.94916
599 1 4.71601 14.1528 17.2987 -8.95013
600 1 6.28665 12.5804 15.7286 -8.95289
601 1 7.86212 14.1517 17.2969 -8.94923
602 1 9.43442 12.5796 15.7244 -8.94433
603 1 11.0069 14.152 17.2979 -8.94924
604 1 12.5845 12.5821 15.7326 -8.95202
605 1 14.154 14.1538 17.3005 -8.94993
606 1 15.7279 12.581 15.7283 -8.94887
607 1 17.2983 14.153 17.299 -8.94943
608 1 18.8705 12.58 15.7263 -8.94957
609 1 20.4417 14.1526 17.2981 -8.9495
610 1 22.0131 15.7256 15.7257 -8.9495
611 1 1.57197 17.2977 17.2979 -8.94908
612 1 3.14284 15.7263 15.7265 -8.94754
613 1 4.71729 17.2971 17.2973 -8.95007
614 1 6.28948 15.7242 15.725 -8.95073
615 1 7.86201 17.2967 17.297 -8.94947
616 1 9.43439 15.7239 15.7247 -8.94891
617 1 11.0068 17.297 17.2974 -8.94952
618 1 12.5799 15.7253 15.7261 -8.95063
619 1 14.1519 17.2977 17.298 -8.95004
620 1 15.7272 15.7274 15.7278 -8.94667
621 1 17.2978 17.2983 17.2985 -8.94875
622 1 18.8703 15.7258 15.726 -8.94965
623 1 20.4417 17.2977 17.2978 -8.94943
624 1 -9.5398e-05 18.8699 15.725 -8.9496
625 1 1.57241 20.4418 17.2973 -8.94954
626 1 3.14438 18.8701 15.7251 -8.94958
627 1 4.71746 20.4416 17.297 -8.9497
628 1 6.28981 18.8691 15.7246 -8.94974
629 1 7.86211 20.4415 17.2969 -8.94956
630 1 9.43434 18.8692 15.7247 -8.94959
631 1 11.0067 20.4415 17.297 -8.94958
632 1 12.5793 18.8697 15.7251 -8.9497
633 1 14.1516 20.4418 17.2973 -8.9497
634 1 15.725 18.8706 15.7255 -8.94972
635 1 17.2969 20.442 17.2976 -8.94958
636 1 18.8695 18.87 15.7251 -8.94955
637 1 20.4416 20.4419 17.2973 -8.94956
638 1 1.57221 11.007 20.4422 -8.9496
639 1 4.7171 11.007 20.4422 -8.94988
640 1 7.86213 11.007 20.442 -8.94967
641 1 11.0066 11.007 20.4424 -8.95069
642 1 14.1522 11.007 20.4432 -8.94988
643 1 17.297 11.007 20.4427 -8.94954
644 1 20.4416 11.007 20.4424 -8.94958
645 1 22.0138 12.5796 18.8702 -8.94956
646 1 1.57229 14.1522 20.4422 -8.94961
647 1 3.14422 12.5797 18.8704 -8.9496
648 1 4.71719 14.1521 20.4422 -8.95001
649 1 6.28944 12.5794 18.8701 -8.95055
650 1 7.86205 14.152 20.4419 -8.94931
651 1 9.43441 12.5796 18.8697 -8.94872
652 1 11.0066 14.152 20.4423 -8.94934
653 1 12.5799 12.5797 18.8716 -8.95097
654 1 14.1521 14.1524 20.443 -8.95015
655 1 15.7255 12.5799 18.8715 -8.94951
656 1 17.297 14.1523 20.4427 -8.94954
657 1 18.8696 12.5797 18.8705 -8.94949
658 1 20.4416 14.1522 20.4423 -8.94958
659 1 22.0139 15.7249 18.8701 -8.94956
660 1 1.57244 17.2971 20.442 -8.94957
661 1 3.14449 15.7249 18.8702 -8.94967
662 1 4.7175 17.2968 20.4418 -8.94963
663 1 6.28978 15.7244 18.8695 -8.94956
664 1 7.86212 17.2966 20.4419 -8.94954
665 1 9.43438 15.7244 18.8696 -8.94953
666 1 11.0067 17.2967 20.442 -8.94956
667 1 12.5792 15.7248 18.8702 -8.94955
668 1 14.1515 17.297 20.4423 -8.94965
669 1 15.7251 15.7255 18.8712 -8.94957
670 1 17.2969 17.2974 20.4424 -8.94948
671 1 18.8695 15.7251 18.8703 -8.94951
672 1 20.4416 17.2972 20.4422 -8.94956
673 1 0.00011607 18.8697 18.8698 -8.94939
674 1 1.57268 20.4417 20.4418 -8.94965
675 1 3.14501 18.8694 18.8696 -8.94977
676 1 4.71754 20.4416 20.4417 -8.94961
351 1 22.0138 12.5795 22.0142 -8.9496
355 1 6.28969 12.5794 22.0143 -8.94998
361 1 15.7243 12.5796 22.0147 -8.94964
367 1 3.14487 15.7246 22.0141 -8.94977
371 1 9.43428 15.7242 22.0145 -8.94943
373 1 12.5789 15.7244 22.0147 -8.94949
357 1 9.43406 12.5796 22.0145 -8.94907
379 1 22.014 18.8694 22.0141 -8.94952
533 1 1.57216 20.4419 11.0069 -8.94962
