ITEM: TIMESTEP
68
ITEM: NUMBER OF ATOMS
688
ITEM: BOX BOUNDS pp pp pp
0.0000000000000000e+00 2.2013900999999997e+01
0.0000000000000000e+00 2.2013900999999997e+01
0.0000000000000000e+00 2.2013900999999997e+01
ITEM: ATOMS id type x y z c_pot
1 1 0.000145465 1.26498e-15 0.000115905 -8.94955
2 1 1.57259 1.57229 1.5723 -8.94962
175 1 18.8696 9.43402 9.43435 -8.95039
4 1 4.71752 1.5724 1.57243 -8.94967
5 1 6.28986 4.96791e-16 9.62029e-05 -8.94961
6 1 7.8622 1.57247 1.57255 -8.94961
174 1 15.729 9.43324 9.43543 -8.95307
8 1 11.0068 1.57249 1.57259 -8.94961
9 1 12.5791 -4.1721e-16 0.000172295 -8.94961
10 1 14.1514 1.57242 1.57254 -8.94967
173 1 12.5978 9.42125 9.42859 -9.00708
12 1 17.2964 1.57228 1.57239 -8.94966
13 1 18.869 1.37574e-15 0.000172931 -8.9496
14 1 20.4415 1.57222 1.57232 -8.94947
193 1 11.0156 7.86492 11.0127 -9.06351
16 1 1.57238 4.71686 1.57219 -8.94956
17 1 3.14508 3.14469 8.29278e-05 -8.94969
18 1 4.7175 4.71717 1.57243 -8.94971
172 1 9.41048 9.375 9.43183 -9.37376
20 1 7.8622 4.71737 1.57283 -8.94962
21 1 9.43446 3.14486 0.000260427 -8.94961
22 1 11.0066 4.71742 1.57295 -8.9496
23 1 12.5791 3.14482 0.000315461 -8.94961
24 1 14.1513 4.71723 1.57277 -8.94989
171 1 6.27633 9.42911 9.43003 -9.02867
26 1 17.2966 4.7168 1.57234 -8.94947
27 1 18.8691 3.14445 0.000242414 -8.94949
28 1 20.4414 4.71688 1.57229 -8.94959
29 1 -3.77424e-05 6.28934 0.000171487 -8.94961
30 1 1.5722 7.86181 1.57215 -8.94965
170 1 3.13721 9.43235 9.43324 -8.94834
32 1 4.71713 7.86187 1.57219 -8.94997
33 1 6.28982 6.2896 0.000134328 -8.94946
34 1 7.86191 7.862 1.57292 -8.949
169 1 -0.0027391 9.43373 9.43386 -8.95009
36 1 11.0063 7.86217 1.5733 -8.94892
168 1 18.8697 6.28843 9.43412 -8.94944
38 1 14.1518 7.86159 1.57233 -8.94991
39 1 15.7243 6.28919 0.000464781 -8.94977
40 1 17.2966 7.86188 1.57257 -8.9497
167 1 15.7264 6.28742 9.43433 -8.94799
42 1 20.4413 7.86187 1.57233 -8.9496
166 1 12.5807 6.28659 9.43591 -8.95398
44 1 3.14473 9.4344 0.000119439 -8.94972
165 1 9.43378 6.27874 9.43852 -8.96936
192 1 7.85346 7.86243 11.0155 -9.04009
47 1 12.5792 9.43433 0.000468371 -8.95035
164 1 6.28773 6.28848 9.43596 -8.9526
49 1 18.8691 9.4344 0.00044594 -8.94959
50 1 22.0139 4.53408e-16 3.14455 -8.94958
51 1 1.5724 1.57215 4.71685 -8.94965
52 1 3.145 -1.10693e-15 3.14463 -8.94957
53 1 4.71732 1.57227 4.717 -8.94954
54 1 6.28989 5.24248e-17 3.14484 -8.94961
55 1 7.86218 1.57258 4.71734 -8.94949
56 1 9.43449 -3.8538e-16 3.14494 -8.94961
57 1 11.0067 1.57259 4.71736 -8.94949
58 1 12.5791 1.01942e-15 3.1449 -8.9496
59 1 14.1516 1.57232 4.71708 -8.94955
60 1 15.724 9.3873e-16 3.1447 -8.9496
61 1 17.2966 1.57213 4.71682 -8.94963
62 1 18.869 6.76344e-16 3.14454 -8.94956
63 1 20.4415 1.57215 4.71683 -8.94958
64 1 -4.54931e-05 3.14443 3.14444 -8.94949
65 1 1.57198 4.7165 4.7165 -8.94931
66 1 3.14495 3.14458 3.14457 -8.94967
67 1 4.71719 4.71695 4.71708 -8.9497
68 1 6.28995 3.14497 3.14497 -8.9498
69 1 7.86227 4.71802 4.71822 -8.95028
70 1 9.43442 3.14507 3.14519 -8.94964
71 1 11.0061 4.71809 4.71831 -8.94994
72 1 12.5789 3.14504 3.14511 -8.94975
73 1 14.1513 4.71697 4.71736 -8.9503
74 1 15.7239 3.14462 3.14471 -8.94981
75 1 17.2968 4.71646 4.71652 -8.94907
76 1 18.869 3.14442 3.14447 -8.94942
77 1 20.4413 4.71662 4.71659 -8.9495
78 1 22.0136 6.2892 3.1443 -8.94957
79 1 1.57136 7.86142 4.71621 -8.94959
80 1 3.14445 6.2891 3.14416 -8.94944
81 1 4.71573 7.8611 4.71604 -8.94904
82 1 6.28984 6.28987 3.14528 -8.94985
83 1 7.86184 7.86309 4.71946 -8.95062
84 1 9.43417 6.29013 3.14624 -8.94928
85 1 11.0048 7.86371 4.72023 -8.95039
86 1 12.5784 6.29003 3.14584 -8.95023
87 1 14.1533 7.85999 4.71544 -8.94727
88 1 15.7244 6.28891 3.14423 -8.94905
89 1 17.2969 7.86158 4.71672 -8.9498
90 1 18.869 6.28927 3.14447 -8.94964
91 1 20.4411 7.86165 4.71654 -8.9496
92 1 -0.000493358 9.43433 3.14427 -8.94956
93 1 3.14413 9.43426 3.14412 -8.94964
94 1 6.28905 9.43444 3.14462 -8.95082
95 1 9.43321 9.43395 3.14605 -8.94509
96 1 12.5797 9.4336 3.14357 -8.95033
97 1 15.7242 9.43436 3.14481 -8.94972
98 1 18.8689 9.4344 3.14457 -8.94958
99 1 -2.54514e-05 1.27012e-15 6.28928 -8.9496
100 1 1.57226 1.57206 7.86176 -8.94962
101 1 3.14484 1.18164e-15 6.28937 -8.94975
102 1 4.71714 1.57215 7.86197 -8.9498
103 1 6.28962 1.73871e-15 6.28946 -8.94958
104 1 7.86186 1.57222 7.86205 -8.94961
105 1 9.43442 5.03983e-16 6.28963 -8.94925
106 1 11.0069 1.5722 7.862 -8.94948
107 1 12.5792 1.92199e-15 6.28945 -8.94952
108 1 14.1518 1.57202 7.8619 -8.94999
109 1 15.7242 3.18832e-16 6.28931 -8.94981
110 1 17.2968 1.57202 7.86168 -8.94954
111 1 18.8691 6.11671e-16 6.28924 -8.94956
112 1 20.4415 1.57208 7.86171 -8.94958
113 1 22.0137 3.14424 6.28913 -8.94957
114 1 1.5716 4.71618 7.86149 -8.94955
115 1 3.14455 3.14423 6.28923 -8.94982
116 1 4.71628 4.71628 7.86196 -8.95052
117 1 6.2894 3.14462 6.28954 -8.94928
118 1 7.86066 4.71649 7.86238 -8.9473
119 1 9.43429 3.14534 6.29024 -8.94889
120 1 11.0073 4.71663 7.86246 -8.94617
121 1 12.5792 3.14465 6.28966 -8.94929
122 1 14.1525 4.71555 7.86187 -8.95075
123 1 15.7244 3.14407 6.28915 -8.9498
124 1 17.2972 4.71614 7.86148 -8.94937
125 1 18.8691 3.14426 6.28912 -8.94954
126 1 20.4414 4.71636 7.86149 -8.94948
127 1 -0.000861013 6.28872 6.28871 -8.9495
128 1 1.56961 7.86062 7.86081 -8.94944
129 1 3.1432 6.28825 6.28842 -8.94868
130 1 4.71192 7.85936 7.86024 -8.94738
131 1 6.28872 6.28948 6.29019 -8.94968
132 1 7.85718 7.86403 7.86545 -9.0022
133 1 9.43397 6.29208 6.29386 -8.95165
134 1 11.0077 7.86619 7.86846 -9.02685
135 1 12.5785 6.28942 6.29104 -8.95236
136 1 14.1572 7.85715 7.85969 -8.94344
137 1 15.7255 6.28783 6.28831 -8.94774
138 1 17.2981 7.86095 7.86154 -8.95043
139 1 18.8692 6.28882 6.28887 -8.94968
140 1 20.4408 7.86128 7.86132 -8.94988
141 1 22.0125 9.4341 6.28863 -8.94968
142 1 3.14171 9.43376 6.28821 -8.9499
143 1 6.28432 9.43327 6.28758 -8.94894
144 1 9.43072 9.43772 6.30018 -9.02104
145 1 12.5861 9.42831 6.28395 -8.98276
146 1 15.7259 9.43385 6.28923 -8.95063
147 1 18.8691 9.43421 6.28899 -8.94969
148 1 -6.33021e-05 3.79284e-16 9.4343 -8.9496
149 1 3.14469 -1.50677e-17 9.43439 -8.94971
150 1 6.28957 -2.28225e-15 9.43461 -8.94963
151 1 9.43439 -1.47515e-15 9.43462 -8.95054
152 1 12.5793 2.33948e-16 9.43456 -8.94979
153 1 15.7244 3.41557e-16 9.4343 -8.94974
154 1 18.8692 9.5124e-16 9.43426 -8.94958
155 1 -0.000255147 3.1441 9.43423 -8.94957
156 1 3.14423 3.14398 9.43436 -8.94961
157 1 6.28926 3.1443 9.43489 -8.94968
158 1 9.43426 3.14304 9.43517 -8.95346
159 1 12.5794 3.14391 9.43485 -8.95021
160 1 15.7248 3.14366 9.43427 -8.94945
161 1 18.8693 3.14407 9.4342 -8.94956
162 1 22.0128 6.28847 9.43405 -8.94952
163 1 3.1424 6.28796 9.4342 -8.94899
191 1 4.71037 7.85986 11.0078 -8.94949
181 1 17.297 1.57189 11.0069 -8.94958
188 1 17.2978 4.71577 11.007 -8.94954
190 1 1.56892 7.86054 11.0071 -8.94943
177 1 4.71693 1.57199 11.0071 -8.94974
184 1 4.71559 4.71592 11.0074 -8.94974
189 1 20.4415 4.71619 11.0069 -8.94954
7 1 9.43449 -4.073e-16 0.00014049 -8.94962
343 1 18.8696 9.43423 18.8703 -8.9495
48 1 15.7243 9.43436 22.0147 -8.94965
178 1 7.86182 1.57203 11.0075 -8.94973
179 1 11.0069 1.57197 11.0074 -8.94951
180 1 14.1521 1.57175 11.007 -8.94995
342 1 15.7253 9.43404 18.8712 -8.94943
182 1 20.4415 1.57202 11.0069 -8.94959
183 1 1.57134 4.71604 11.007 -8.94957
45 1 6.28976 9.4345 22.014 -8.94996
185 1 7.86024 4.71592 11.0094 -8.94748
186 1 11.0082 4.71599 11.0092 -8.94603
187 1 14.1536 4.71479 11.0075 -8.94997
341 1 12.5798 9.43413 18.8714 -8.95118
43 1 22.0138 9.43439 22.0141 -8.94961
340 1 9.43434 9.43437 18.8691 -8.94848
339 1 6.28955 9.4345 18.8698 -8.9506
338 1 3.14431 9.43426 18.8702 -8.9496
337 1 22.0138 9.43428 18.8701 -8.94956
194 1 14.1594 7.85688 11.0092 -8.94625
195 1 17.2995 7.86024 11.0075 -8.94995
196 1 20.4411 7.86103 11.007 -8.94997
197 1 -5.97027e-05 9.27368e-16 12.5795 -8.94961
198 1 1.5722 1.57197 14.1522 -8.94966
199 1 3.14462 1.93548e-15 12.5796 -8.94973
200 1 4.71695 1.57189 14.1524 -8.94983
201 1 6.28945 2.5044e-15 12.5798 -8.94991
202 1 7.86213 1.57252 14.1521 -8.94928
203 1 9.4344 2.29249e-15 12.5797 -8.94902
204 1 11.0067 1.57231 14.1522 -8.94947
205 1 12.5794 1.90825e-15 12.5797 -8.95002
206 1 14.1521 1.57161 14.1524 -8.95005
207 1 15.7245 1.49895e-15 12.5796 -8.94979
208 1 17.2971 1.57182 14.1523 -8.9496
209 1 18.8693 9.16363e-16 12.5795 -8.94958
210 1 20.4416 1.57199 14.1521 -8.94959
211 1 22.0137 3.14403 12.5796 -8.94958
212 1 1.57151 4.71594 14.1526 -8.94968
213 1 3.14411 3.14386 12.5798 -8.9497
214 1 4.71582 4.71532 14.1533 -8.94978
215 1 6.28887 3.14378 12.5803 -8.95
216 1 7.86235 4.71808 14.1519 -8.94976
217 1 9.43443 3.14524 12.5799 -8.9483
218 1 11.0066 4.7172 14.1525 -8.94956
219 1 12.5799 3.14328 12.5803 -8.95044
220 1 14.1536 4.71413 14.1538 -8.95063
221 1 15.7252 3.14338 12.5799 -8.94959
222 1 17.298 4.71554 14.1529 -8.94936
223 1 18.8695 3.14394 12.5796 -8.94956
224 1 20.4416 4.71612 14.1525 -8.94951
225 1 -0.00101484 6.28836 12.5799 -8.9496
226 1 1.56935 7.86023 14.1538 -8.94951
227 1 3.14208 6.28774 12.5805 -8.94973
228 1 4.71068 7.85713 14.1575 -8.94164
229 1 6.28599 6.28642 12.5822 -8.95147
230 1 7.86329 7.86472 14.1512 -8.95458
231 1 9.43525 6.29298 12.579 -8.94716
232 1 11.0061 7.86293 14.1533 -8.95137
233 1 12.5828 6.28438 12.5826 -8.95545
234 1 14.1617 7.85331 14.1617 -8.93767
235 1 15.7275 6.28672 12.5812 -8.94838
236 1 17.3001 7.86007 14.1541 -8.95077
237 1 18.8701 6.2882 12.58 -8.9495
238 1 20.4414 7.86102 14.1529 -8.95012
239 1 22.0113 9.4337 12.5803 -8.95062
240 1 3.13592 9.43205 12.5827 -8.95099
241 1 6.26821 9.42271 12.5954 -8.96787
242 1 9.43697 9.44816 12.5676 -9.06395
243 1 12.6068 9.41235 12.6055 -8.98836
244 1 15.7319 9.43254 12.583 -8.95537
245 1 18.8705 9.4339 12.5803 -8.95092
246 1 -8.44143e-06 4.06959e-17 15.7247 -8.94961
247 1 1.57238 1.57205 17.2972 -8.94953
248 1 3.14473 9.53272e-16 15.7248 -8.94969
249 1 4.71747 1.5723 17.2969 -8.94971
250 1 6.28982 -1.92367e-15 15.7245 -8.94953
251 1 7.86211 1.5724 17.2969 -8.94956
252 1 9.43439 -1.60427e-15 15.7245 -8.94957
253 1 11.0067 1.57233 17.297 -8.94958
254 1 12.5791 2.44103e-15 15.7246 -8.94963
255 1 14.1516 1.57211 17.2972 -8.94969
256 1 15.7244 7.75176e-16 15.7249 -8.94984
257 1 17.2969 1.57188 17.2974 -8.94959
258 1 18.8693 1.40961e-15 15.7247 -8.94957
259 1 20.4416 1.57203 17.2972 -8.94956
260 1 -0.000123542 3.14405 15.7249 -8.94958
261 1 1.57198 4.71624 17.2978 -8.94906
262 1 3.1444 3.14387 15.7251 -8.94955
263 1 4.71733 4.71691 17.2972 -8.95017
264 1 6.28986 3.14484 15.7245 -8.94973
265 1 7.86206 4.71728 17.2968 -8.94938
266 1 9.43433 3.14482 15.7245 -8.94958
267 1 11.0067 4.71703 17.2972 -8.94949
268 1 12.5792 3.14429 15.7248 -8.94967
269 1 14.1519 4.71627 17.2978 -8.9501
270 1 15.725 3.1433 15.7254 -8.94975
271 1 17.2977 4.71563 17.2984 -8.94856
272 1 18.8695 3.14392 15.725 -8.94954
273 1 20.4417 4.71628 17.2977 -8.94945
274 1 22.0132 6.28841 15.7256 -8.94951
275 1 1.57161 7.86131 17.2981 -8.94955
276 1 3.14286 6.28758 15.7265 -8.94753
277 1 4.71617 7.86121 17.2986 -8.95021
278 1 6.28975 6.28986 15.7246 -8.95112
279 1 7.86227 7.86241 17.2964 -8.94927
280 1 9.43426 6.28984 15.7245 -8.94873
281 1 11.0066 7.86196 17.2975 -8.9493
282 1 12.5796 6.28862 15.7258 -8.95077
283 1 14.154 7.86002 17.3006 -8.95015
284 1 15.7276 6.28602 15.7281 -8.94619
285 1 17.2982 7.86098 17.2987 -8.94933
286 1 18.8702 6.28822 15.7258 -8.94975
287 1 20.4417 7.8614 17.2979 -8.94948
288 1 22.0129 9.43398 15.7257 -8.94954
289 1 3.14209 9.43358 15.7267 -8.94913
290 1 6.28689 9.43371 15.7279 -8.95317
291 1 9.43465 9.43509 15.7228 -8.94339
292 1 12.5843 9.43175 15.7325 -8.95326
293 1 15.7281 9.43304 15.7282 -8.94849
294 1 18.8704 9.43391 15.726 -8.94951
295 1 22.014 -1.16053e-15 18.8696 -8.94951
296 1 1.57263 1.57224 20.4418 -8.94966
297 1 3.14507 5.37137e-16 18.8694 -8.9497
298 1 4.7175 1.57236 20.4417 -8.9496
299 1 6.28982 7.09301e-16 18.8693 -8.94957
300 1 7.86216 1.5724 20.4417 -8.94961
301 1 9.43444 2.09607e-15 18.8693 -8.94959
302 1 11.0068 1.57239 20.4417 -8.94961
303 1 12.5791 2.51238e-15 18.8694 -8.94959
304 1 14.1515 1.57231 20.4418 -8.94961
305 1 15.7241 1.03993e-15 18.8695 -8.94968
306 1 17.2965 1.57218 20.4419 -8.94968
307 1 18.8692 8.58131e-16 18.8697 -8.94952
308 1 20.4416 1.57216 20.4419 -8.9494
309 1 5.75524e-05 3.14428 18.8697 -8.9494
310 1 1.57243 4.7168 20.4419 -8.94958
311 1 3.145 3.14452 18.8695 -8.9498
312 1 4.71749 4.71713 20.4417 -8.94966
313 1 6.28984 3.14478 18.8693 -8.94954
314 1 7.86214 4.71722 20.4417 -8.94955
315 1 9.4344 3.14478 18.8693 -8.9496
316 1 11.0067 4.71718 20.4419 -8.94957
317 1 12.5791 3.14462 18.8695 -8.94956
318 1 14.1515 4.71696 20.4421 -8.94967
319 1 15.7242 3.14427 18.8698 -8.94979
320 1 17.2969 4.71657 20.4423 -8.9495
321 1 18.8694 3.14412 18.8699 -8.94922
322 1 20.4416 4.71677 20.442 -8.94957
323 1 22.0138 6.28906 18.87 -8.94955
324 1 1.5723 7.86178 20.442 -8.94962
325 1 3.14454 6.28903 18.8701 -8.94969
326 1 4.71725 7.8619 20.442 -8.95003
327 1 6.28987 6.28966 18.8692 -8.94959
328 1 7.8621 7.86201 20.4416 -8.94929
329 1 9.43432 6.28958 18.8693 -8.94954
330 1 11.0066 7.86194 20.442 -8.94934
331 1 12.5791 6.28929 18.87 -8.94954
332 1 14.152 7.86157 20.4428 -8.9502
333 1 15.7251 6.28846 18.871 -8.9496
334 1 17.297 7.86167 20.4425 -8.94954
335 1 18.8695 6.28893 18.8702 -8.94951
336 1 20.4416 7.86177 20.4421 -8.94957
3 1 3.14511 2.07388e-16 22.014 -8.94963
41 1 18.8691 6.28933 22.0143 -8.94961
11 1 15.7239 9.0585e-16 22.0141 -8.94964
19 1 6.28988 3.14483 22.0141 -8.94962
25 1 15.7239 3.14464 22.0142 -8.94974
31 1 3.14485 6.28937 22.014 -8.94979
35 1 9.43436 6.28966 22.0144 -8.94944
37 1 12.579 6.28961 22.0145 -8.9495
15 1 22.014 3.14451 22.014 -8.94954
46 1 9.43416 9.4343 22.0141 -8.949
176 1 1.57216 1.572 11.0069 -8.94962
344 1 1.57213 11.007 1.57214 -8.94963
345 1 4.71702 11.007 1.57214 -8.94972
346 1 7.86207 11.007 1.57278 -8.94973
347 1 11.0062 11.007 1.57163 -8.95276
348 1 14.1516 11.007 1.57265 -8.94948
349 1 17.2966 11.007 1.57265 -8.94962
350 1 20.4413 11.007 1.57235 -8.94959
688 2 10.2781 11.007 9.43466 0.543579
352 1 1.5722 14.1521 1.57215 -8.94965
353 1 3.14473 12.5795 0.000119439 -8.94972
354 1 4.71713 14.152 1.57219 -8.94997
511 1 18.8693 18.8698 9.4342 -8.94956
356 1 7.86191 14.1519 1.57292 -8.949
538 1 17.297 20.442 11.0069 -8.94958
358 1 11.0063 14.1517 1.5733 -8.94892
359 1 12.5792 12.5796 0.000468371 -8.95035
360 1 14.1518 14.1523 1.57233 -8.94991
510 1 15.7248 18.8702 9.43427 -8.94945
362 1 17.2966 14.152 1.57257 -8.9497
363 1 18.8691 12.5795 0.00044594 -8.94959
364 1 20.4413 14.152 1.57233 -8.9496
365 1 -3.77424e-05 15.7246 0.000171487 -8.94961
366 1 1.57238 17.297 1.57219 -8.94956
509 1 12.5794 18.87 9.43485 -8.95021
368 1 4.7175 17.2967 1.57243 -8.94971
369 1 6.28982 15.7243 0.000134328 -8.94946
370 1 7.8622 17.2965 1.57283 -8.94962
508 1 9.43426 18.8709 9.43517 -8.95346
372 1 11.0066 17.2965 1.57295 -8.9496
507 1 6.28926 18.8696 9.43489 -8.94968
374 1 14.1513 17.2967 1.57277 -8.94989
375 1 15.7243 15.7247 0.000464781 -8.94977
376 1 17.2966 17.2971 1.57234 -8.94947
506 1 3.14423 18.8699 9.43436 -8.94961
378 1 20.4414 17.297 1.57229 -8.94959
531 1 17.2978 17.2981 11.007 -8.94954
380 1 1.57259 20.4416 1.5723 -8.94962
381 1 3.14508 18.8692 8.29278e-05 -8.94969
382 1 4.71752 20.4415 1.57243 -8.94967
505 1 -0.000255147 18.8698 9.43423 -8.94957
384 1 7.8622 20.4414 1.57255 -8.94961
385 1 9.43446 18.869 0.000260427 -8.94961
386 1 11.0068 20.4414 1.57259 -8.94961
387 1 12.5791 18.8691 0.000315461 -8.94961
388 1 14.1514 20.4415 1.57254 -8.94967
504 1 18.8697 15.7255 9.43412 -8.94944
390 1 17.2964 20.4416 1.57239 -8.94966
391 1 18.8691 18.8695 0.000242414 -8.94949
392 1 20.4415 20.4417 1.57232 -8.94947
393 1 1.57108 11.007 4.71624 -8.94948
394 1 4.71528 11.007 4.71623 -8.94862
395 1 7.86122 11.007 4.71816 -8.95343
396 1 11.0063 11.007 4.70931 -8.96775
397 1 14.1522 11.007 4.71674 -8.94881
398 1 17.2967 11.007 4.71689 -8.94938
399 1 20.4409 11.007 4.71655 -8.94955
400 1 -0.000493358 12.5796 3.14427 -8.94956
401 1 1.57136 14.1525 4.71621 -8.94959
402 1 3.14413 12.5796 3.14412 -8.94964
403 1 4.71573 14.1528 4.71604 -8.94904
404 1 6.28905 12.5795 3.14462 -8.95082
405 1 7.86184 14.1508 4.71946 -8.95062
406 1 9.43321 12.58 3.14605 -8.94509
407 1 11.0048 14.1502 4.72023 -8.95039
408 1 12.5797 12.5803 3.14357 -8.95033
409 1 14.1533 14.1539 4.71544 -8.94727
410 1 15.7242 12.5795 3.14481 -8.94972
411 1 17.2969 14.1523 4.71672 -8.9498
412 1 18.8689 12.5795 3.14457 -8.94958
413 1 20.4411 14.1522 4.71654 -8.9496
414 1 22.0136 15.7247 3.1443 -8.94957
415 1 1.57198 17.2974 4.7165 -8.94931
416 1 3.14445 15.7248 3.14416 -8.94944
417 1 4.71719 17.2969 4.71708 -8.9497
418 1 6.28984 15.724 3.14528 -8.94985
419 1 7.86227 17.2959 4.71822 -8.95028
420 1 9.43417 15.7238 3.14624 -8.94928
421 1 11.0061 17.2958 4.71831 -8.94994
422 1 12.5784 15.7239 3.14584 -8.95023
423 1 14.1513 17.2969 4.71736 -8.9503
424 1 15.7244 15.725 3.14423 -8.94905
425 1 17.2968 17.2974 4.71652 -8.94907
426 1 18.869 15.7246 3.14447 -8.94964
427 1 20.4413 17.2973 4.71659 -8.9495
428 1 -4.54931e-05 18.8695 3.14444 -8.94949
429 1 1.5724 20.4417 4.71685 -8.94965
430 1 3.14495 18.8693 3.14457 -8.94967
431 1 4.71732 20.4416 4.717 -8.94954
432 1 6.28995 18.8689 3.14497 -8.9498
433 1 7.86218 20.4413 4.71734 -8.94949
434 1 9.43442 18.8688 3.14519 -8.94964
435 1 11.0067 20.4413 4.71736 -8.94949
436 1 12.5789 18.8689 3.14511 -8.94975
437 1 14.1516 20.4416 4.71708 -8.94955
438 1 15.7239 18.8693 3.14471 -8.94981
439 1 17.2966 20.4418 4.71682 -8.94963
440 1 18.869 18.8695 3.14447 -8.94942
441 1 20.4415 20.4417 4.71683 -8.94958
442 1 1.56866 11.007 7.86098 -8.95001
443 1 4.70896 11.007 7.86119 -8.952
444 1 7.8437 11.007 7.85766 -9.04238
445 1 11.0377 11.007 7.80948 -9.27196
446 1 14.1572 11.007 7.86243 -9.00263
447 1 17.2982 11.007 7.86173 -8.94986
448 1 20.4405 11.007 7.86132 -8.94992
449 1 22.0125 12.5798 6.28863 -8.94968
450 1 1.56961 14.1533 7.86081 -8.94944
451 1 3.14171 12.5801 6.28821 -8.9499
452 1 4.71192 14.1545 7.86024 -8.94738
453 1 6.28432 12.5806 6.28758 -8.94894
454 1 7.85718 14.1499 7.86545 -9.0022
455 1 9.43072 12.5762 6.30018 -9.02104
456 1 11.0077 14.1477 7.86846 -9.02685
457 1 12.5861 12.5856 6.28395 -8.98276
458 1 14.1572 14.1568 7.85969 -8.94344
459 1 15.7259 12.58 6.28923 -8.95063
460 1 17.2981 14.153 7.86154 -8.95043
461 1 18.8691 12.5797 6.28899 -8.94969
462 1 20.4408 14.1526 7.86132 -8.94988
463 1 -0.000861013 15.7252 6.28871 -8.9495
464 1 1.5716 17.2977 7.86149 -8.94955
465 1 3.1432 15.7256 6.28842 -8.94868
466 1 4.71628 17.2976 7.86196 -8.95052
467 1 6.28872 15.7244 6.29019 -8.94968
468 1 7.86066 17.2974 7.86238 -8.9473
469 1 9.43397 15.7218 6.29386 -8.95165
470 1 11.0073 17.2973 7.86246 -8.94617
471 1 12.5785 15.7245 6.29104 -8.95236
472 1 14.1525 17.2984 7.86187 -8.95075
473 1 15.7255 15.7261 6.28831 -8.94774
474 1 17.2972 17.2978 7.86148 -8.94937
475 1 18.8692 15.7251 6.28887 -8.94968
476 1 20.4414 17.2975 7.86149 -8.94948
477 1 22.0137 18.8697 6.28913 -8.94957
478 1 1.57226 20.4418 7.86176 -8.94962
479 1 3.14455 18.8697 6.28923 -8.94982
480 1 4.71714 20.4418 7.86197 -8.9498
481 1 6.2894 18.8693 6.28954 -8.94928
482 1 7.86186 20.4417 7.86205 -8.94961
483 1 9.43429 18.8686 6.29024 -8.94889
484 1 11.0069 20.4417 7.862 -8.94948
485 1 12.5792 18.8693 6.28966 -8.94929
486 1 14.1518 20.4419 7.8619 -8.94999
487 1 15.7244 18.8698 6.28915 -8.9498
488 1 17.2968 20.4419 7.86168 -8.94954
489 1 18.8691 18.8696 6.28912 -8.94954
490 1 20.4415 20.4418 7.86171 -8.94958
491 1 -0.0027391 12.5802 9.43386 -8.95009
492 1 3.13721 12.5815 9.43324 -8.94834
493 1 6.27633 12.5848 9.43003 -9.02867
494 1 9.41048 12.6389 9.43183 -9.37376
495 1 12.5978 12.5927 9.42859 -9.00708
496 1 15.729 12.5807 9.43543 -8.95307
497 1 18.8696 12.5799 9.43435 -8.95039
498 1 22.0128 15.7254 9.43405 -8.94952
499 1 3.1424 15.7259 9.4342 -8.94899
500 1 6.28773 15.7254 9.43596 -8.9526
501 1 9.43378 15.7352 9.43852 -8.96936
502 1 12.5807 15.7273 9.43591 -8.95398
503 1 15.7264 15.7265 9.43433 -8.94799
512 1 1.56541 11.007 11.0073 -8.95388
687 2 9.42997 11.007 10.5305 0.498178
513 1 4.6939 11.007 11.0095 -8.97481
516 1 14.1592 11.007 11.012 -9.02737
519 1 1.56892 14.1534 11.0071 -8.94943
520 1 4.71037 14.154 11.0078 -8.94949
521 1 7.85346 14.1515 11.0155 -9.04009
522 1 11.0156 14.149 11.0127 -9.06351
527 1 4.71559 17.298 11.0074 -8.94974
532 1 20.4415 17.2977 11.0069 -8.94954
534 1 4.71693 20.4419 11.0071 -8.94974
686 1 20.4416 20.4417 20.4419 -8.9494
685 1 18.8694 18.8698 18.8699 -8.94922
514 1 7.74673 11.007 11.0323 -9.20898
515 1 11.1569 11.007 11.0784 -9.29532
684 1 17.2965 20.4417 20.4419 -8.94968
517 1 17.2992 11.007 11.008 -8.94928
518 1 20.4403 11.007 11.007 -8.95043
683 1 15.7242 18.8696 18.8698 -8.94979
682 1 14.1515 20.4416 20.4418 -8.94961
681 1 12.5791 18.8693 18.8695 -8.94956
680 1 11.0068 20.4415 20.4417 -8.94961
523 1 14.1594 14.157 11.0092 -8.94625
524 1 17.2995 14.1537 11.0075 -8.94995
525 1 20.4411 14.1529 11.007 -8.94997
526 1 1.57134 17.2979 11.007 -8.94957
389 1 15.7239 18.8693 22.0142 -8.94974
528 1 7.86024 17.298 11.0094 -8.94748
529 1 11.0082 17.2979 11.0092 -8.94603
530 1 14.1536 17.2991 11.0075 -8.94997
679 1 9.4344 18.8691 18.8693 -8.9496
383 1 6.28988 18.8691 22.0141 -8.94962
678 1 7.86216 20.4415 20.4417 -8.94961
377 1 18.8691 15.7246 22.0143 -8.94961
535 1 7.86182 20.4419 11.0075 -8.94973
536 1 11.0069 20.4419 11.0074 -8.94951
537 1 14.1521 20.4422 11.007 -8.94995
677 1 6.28984 18.8691 18.8693 -8.94954
539 1 20.4415 20.4419 11.0069 -8.94959
540 1 1.56872 11.007 14.1538 -8.94942
541 1 4.70949 11.007 14.1565 -8.94631
542 1 7.85687 11.007 14.1555 -9.00798
543 1 11.0167 11.007 14.1662 -9.01881
544 1 14.161 11.007 14.1605 -8.94677
545 1 17.3003 11.007 14.1545 -8.94981
546 1 20.4413 11.007 14.1531 -8.95003
547 1 22.0113 12.5802 12.5803 -8.95062
548 1 1.56935 14.1537 14.1538 -8.94951
549 1 3.13592 12.5819 12.5827 -8.95099
550 1 4.71068 14.1568 14.1575 -8.94164
551 1 6.26821 12.5912 12.5954 -8.96787
552 1 7.86329 14.1492 14.1512 -8.95458
553 1 9.43697 12.5657 12.5676 -9.06395
554 1 11.0061 14.151 14.1533 -8.95137
555 1 12.6068 12.6015 12.6055 -8.98836
556 1 14.1617 14.1606 14.1617 -8.93767
557 1 15.7319 12.5814 12.583 -8.95537
558 1 17.3001 14.1538 14.1541 -8.95077
559 1 18.8705 12.58 12.5803 -8.95092
560 1 20.4414 14.1529 14.1529 -8.95012
561 1 -0.00101484 15.7255 12.5799 -8.9496
562 1 1.57151 17.298 14.1526 -8.94968
563 1 3.14208 15.7262 12.5805 -8.94973
564 1 4.71582 17.2986 14.1533 -8.94978
565 1 6.28599 15.7275 12.5822 -8.95147
566 1 7.86235 17.2958 14.1519 -8.94976
567 1 9.43525 15.7209 12.579 -8.94716
568 1 11.0066 17.2967 14.1525 -8.94956
569 1 12.5828 15.7295 12.5826 -8.95545
570 1 14.1536 17.2998 14.1538 -8.95063
571 1 15.7275 15.7272 12.5812 -8.94838
572 1 17.298 17.2984 14.1529 -8.94936
573 1 18.8701 15.7257 12.58 -8.9495
574 1 20.4416 17.2978 14.1525 -8.94951
575 1 22.0137 18.8699 12.5796 -8.94958
576 1 1.5722 20.4419 14.1522 -8.94966
577 1 3.14411 18.87 12.5798 -8.9497
578 1 4.71695 20.442 14.1524 -8.94983
579 1 6.28887 18.8701 12.5803 -8.95
580 1 7.86213 20.4414 14.1521 -8.94928
581 1 9.43443 18.8687 12.5799 -8.9483
582 1 11.0067 20.4416 14.1522 -8.94947
583 1 12.5799 18.8706 12.5803 -8.95044
584 1 14.1521 20.4423 14.1524 -8.95005
585 1 15.7252 18.8705 12.5799 -8.94959
586 1 17.2971 20.4421 14.1523 -8.9496
587 1 18.8695 18.87 12.5796 -8.94956
588 1 20.4416 20.4419 14.1521 -8.94959
589 1 1.57144 11.007 17.2981 -8.94955
590 1 4.71576 11.007 17.2986 -8.94945
591 1 7.86211 11.007 17.297 -8.95078
592 1 11.0075 11.007 17.2996 -8.95339
593 1 14.1543 11.007 17.3008 -8.94929
594 1 17.2983 11.007 17.2989 -8.94944
595 1 20.4417 11.007 17.298 -8.94951
596 1 22.0129 12.5799 15.7257 -8.94954
597 1 1.57161 14.1526 17.2981 -8.94955
598 1 3.14209 12.5803 15.7267 -8.94913
599 1 4.71617 14.1527 17.2986 -8.95021
600 1 6.28689 12.5802 15.7279 -8.95317
601 1 7.86227 14.1515 17.2964 -8.94927
602 1 9.43465 12.5788 15.7228 -8.94339
603 1 11.0066 14.1519 17.2975 -8.9493
604 1 12.5843 12.5821 15.7325 -8.95326
605 1 14.154 14.1539 17.3006 -8.95015
606 1 15.7281 12.5809 15.7282 -8.94849
607 1 17.2982 14.1529 17.2987 -8.94933
608 1 18.8704 12.58 15.726 -8.94951
609 1 20.4417 14.1525 17.2979 -8.94948
610 1 22.0132 15.7255 15.7256 -8.94951
611 1 1.57198 17.2977 17.2978 -8.94906
612 1 3.14286 15.7263 15.7265 -8.94753
613 1 4.71733 17.297 17.2972 -8.95017
614 1 6.28975 15.724 15.7246 -8.95112
615 1 7.86206 17.2966 17.2968 -8.94938
616 1 9.43426 15.7241 15.7245 -8.94873
617 1 11.0067 17.2969 17.2972 -8.94949
618 1 12.5796 15.7253 15.7258 -8.95077
619 1 14.1519 17.2976 17.2978 -8.9501
620 1 15.7276 15.7279 15.7281 -8.94619
621 1 17.2977 17.2983 17.2984 -8.94856
622 1 18.8702 15.7257 15.7258 -8.94975
623 1 20.4417 17.2976 17.2977 -8.94945
624 1 -0.000123542 18.8699 15.7249 -8.94958
625 1 1.57238 20.4418 17.2972 -8.94953
626 1 3.1444 18.87 15.7251 -8.94955
627 1 4.71747 20.4416 17.2969 -8.94971
628 1 6.28986 18.8691 15.7245 -8.94973
629 1 7.86211 20.4415 17.2969 -8.94956
630 1 9.43433 18.8691 15.7245 -8.94958
631 1 11.0067 20.4416 17.297 -8.94958
632 1 12.5792 18.8696 15.7248 -8.94967
633 1 14.1516 20.4418 17.2972 -8.94969
634 1 15.725 18.8706 15.7254 -8.94975
635 1 17.2969 20.442 17.2974 -8.94959
636 1 18.8695 18.87 15.725 -8.94954
637 1 20.4416 20.4419 17.2972 -8.94956
638 1 1.57224 11.007 20.4421 -8.94961
639 1 4.71715 11.007 20.442 -8.94989
640 1 7.8622 11.007 20.4416 -8.94957
641 1 11.0066 11.007 20.4421 -8.95052
642 1 14.1521 11.007 20.443 -8.94988
643 1 17.297 11.007 20.4426 -8.94955
644 1 20.4416 11.007 20.4422 -8.94957
645 1 22.0138 12.5796 18.8701 -8.94956
646 1 1.5723 14.1521 20.442 -8.94962
647 1 3.14431 12.5796 18.8702 -8.9496
648 1 4.71725 14.152 20.442 -8.95003
649 1 6.28955 12.5794 18.8698 -8.9506
650 1 7.8621 14.1519 20.4416 -8.94929
651 1 9.43434 12.5795 18.8691 -8.94848
652 1 11.0066 14.152 20.442 -8.94934
653 1 12.5798 12.5798 18.8714 -8.95118
654 1 14.152 14.1523 20.4428 -8.9502
655 1 15.7253 12.5799 18.8712 -8.94943
656 1 17.297 14.1522 20.4425 -8.94954
657 1 18.8696 12.5797 18.8703 -8.9495
658 1 20.4416 14.1521 20.4421 -8.94957
659 1 22.0138 15.7248 18.87 -8.94955
660 1 1.57243 17.2971 20.4419 -8.94958
661 1 3.14454 15.7249 18.8701 -8.94969
662 1 4.71749 17.2968 20.4417 -8.94966
663 1 6.28987 15.7242 18.8692 -8.94959
664 1 7.86214 17.2967 20.4417 -8.94955
665 1 9.43432 15.7243 18.8693 -8.94954
666 1 11.0067 17.2967 20.4419 -8.94957
667 1 12.5791 15.7246 18.87 -8.94954
668 1 14.1515 17.2969 20.4421 -8.94967
669 1 15.7251 15.7254 18.871 -8.9496
670 1 17.2969 17.2973 20.4423 -8.9495
671 1 18.8695 15.725 18.8702 -8.94951
672 1 20.4416 17.2971 20.442 -8.94957
673 1 5.75524e-05 18.8696 18.8697 -8.9494
674 1 1.57263 20.4417 20.4418 -8.94966
675 1 3.145 18.8694 18.8695 -8.9498
676 1 4.7175 20.4415 20.4417 -8.9496
351 1 22.0138 12.5795 22.0141 -8.94961
355 1 6.28976 12.5794 22.014 -8.94996
361 1 15.7243 12.5795 22.0147 -8.94965
367 1 3.14485 15.7245 22.014 -8.94979
371 1 9.43436 15.7242 22.0144 -8.94944
373 1 12.579 15.7243 22.0145 -8.9495
357 1 9.43416 12.5796 22.0141 -8.949
379 1 22.014 18.8694 22.014 -8.94954
533 1 1.57216 20.4419 11.0069 -8.94962
