ITEM: TIMESTEP
62
ITEM: NUMBER OF ATOMS
688
ITEM: BOX BOUNDS pp pp pp
0.0000000000000000e+00 2.2013900999999997e+01
0.0000000000000000e+00 2.2013900999999997e+01
0.0000000000000000e+00 2.2013900999999997e+01
ITEM: ATOMS id type x y z c_pot
1 1 7.58487e-05 -6.94278e-17 1.89666e-05 -8.94956
2 1 1.57249 1.57231 1.57228 -8.94963
175 1 18.8696 9.43428 9.43418 -8.95049
4 1 4.71738 1.57238 1.57235 -8.94967
5 1 6.28975 -6.89943e-15 -6.61282e-06 -8.94961
6 1 7.86216 1.57239 1.57239 -8.94963
174 1 15.7283 9.43384 9.43526 -8.95619
8 1 11.0069 1.57242 1.57241 -8.94962
9 1 12.5793 3.69715e-15 9.20583e-06 -8.94961
10 1 14.1517 1.5724 1.5724 -8.94967
173 1 12.6013 9.41567 9.42514 -8.99507
12 1 17.2965 1.57233 1.57233 -8.94969
13 1 18.869 1.45159e-14 3.2245e-05 -8.94963
14 1 20.4415 1.57226 1.57227 -8.94946
193 1 11.0164 7.86521 11.0117 -9.06513
16 1 1.57232 4.71693 1.57214 -8.9496
17 1 3.14495 3.14471 -2.75149e-05 -8.94968
18 1 4.71739 4.71712 1.57228 -8.94966
172 1 9.40733 9.37764 9.43451 -9.35523
20 1 7.86222 4.71724 1.57255 -8.94963
21 1 9.43451 3.14478 5.23748e-05 -8.94962
22 1 11.0068 4.7173 1.57264 -8.9496
23 1 12.5792 3.14478 7.29911e-05 -8.94961
24 1 14.1515 4.71721 1.57251 -8.94978
171 1 6.27171 9.42587 9.42692 -9.02575
26 1 17.2967 4.71695 1.57225 -8.94965
27 1 18.8691 3.14456 7.65771e-05 -8.94955
28 1 20.4415 4.717 1.57224 -8.94963
29 1 -4.82912e-05 6.28945 3.49935e-05 -8.94962
30 1 1.57223 7.86187 1.57209 -8.94966
170 1 3.13722 9.43228 9.4328 -8.94977
32 1 4.71717 7.86186 1.57198 -8.94995
33 1 6.2898 6.28956 -0.00010248 -8.94951
34 1 7.86203 7.86188 1.57235 -8.94913
169 1 -0.00245381 9.43386 9.43383 -8.95022
36 1 11.0067 7.86209 1.57277 -8.94902
168 1 18.8698 6.28864 9.43405 -8.94941
38 1 14.1519 7.86179 1.57224 -8.94987
39 1 15.7243 6.28934 0.000206836 -8.94982
40 1 17.2967 7.86199 1.57243 -8.94973
167 1 15.7266 6.28743 9.43372 -8.94756
42 1 20.4414 7.86195 1.57225 -8.94961
166 1 12.5805 6.28582 9.43526 -8.95553
44 1 3.14474 9.43443 -1.82624e-05 -8.94973
165 1 9.43351 6.28069 9.43846 -8.96829
192 1 7.8514 7.86084 11.0152 -9.04215
47 1 12.5793 9.43438 0.000131383 -8.95013
164 1 6.28762 6.28786 9.43537 -8.95325
49 1 18.8692 9.43444 0.000164694 -8.9496
50 1 22.0139 -4.80378e-15 3.14459 -8.94958
51 1 1.57233 1.57215 4.71691 -8.94964
52 1 3.14488 8.08267e-17 3.14464 -8.94958
53 1 4.71728 1.57227 4.71699 -8.94954
54 1 6.28979 -8.85307e-15 3.14474 -8.94962
55 1 7.8622 1.57249 4.7172 -8.94951
56 1 9.43453 -2.08916e-15 3.14477 -8.94962
57 1 11.0068 1.57255 4.71721 -8.9495
58 1 12.5793 1.59443e-14 3.14478 -8.94962
59 1 14.1517 1.57236 4.71707 -8.94946
60 1 15.7241 -1.94082e-14 3.14469 -8.94958
61 1 17.2968 1.57215 4.71687 -8.94963
62 1 18.8691 1.33841e-14 3.14458 -8.94956
63 1 20.4415 1.57219 4.71695 -8.94959
64 1 -7.10578e-05 3.14447 3.14445 -8.94945
65 1 1.57198 4.7165 4.71648 -8.94919
66 1 3.14489 3.1446 3.14455 -8.94967
67 1 4.71723 4.71683 4.71687 -8.94967
68 1 6.28988 3.14485 3.14482 -8.94979
69 1 7.86241 4.71767 4.71771 -8.95025
70 1 9.43454 3.14494 3.14495 -8.94961
71 1 11.0064 4.71785 4.71781 -8.95005
72 1 12.5791 3.14496 3.14493 -8.94976
73 1 14.1513 4.71723 4.71724 -8.95021
74 1 15.724 3.14472 3.14468 -8.94981
75 1 17.297 4.7165 4.71641 -8.94886
76 1 18.8691 3.14448 3.14446 -8.94936
77 1 20.4414 4.7167 4.71666 -8.94952
78 1 22.0137 6.28931 3.14434 -8.94956
79 1 1.57155 7.86147 4.7162 -8.94952
80 1 3.14449 6.28911 3.14407 -8.94955
81 1 4.716 7.86107 4.71565 -8.94957
82 1 6.28983 6.2896 3.14476 -8.9497
83 1 7.86193 7.86257 4.71829 -8.94986
84 1 9.43445 6.28988 3.14559 -8.9492
85 1 11.0053 7.86333 4.71952 -8.9497
86 1 12.5787 6.28992 3.14537 -8.94998
87 1 14.1523 7.8611 4.71599 -8.94951
88 1 15.7243 6.28928 3.14427 -8.94964
89 1 17.2967 7.86194 4.71682 -8.94978
90 1 18.869 6.28944 3.14451 -8.9497
91 1 20.4412 7.86177 4.71662 -8.9495
92 1 -0.00033125 9.43438 3.14431 -8.94957
93 1 3.1443 9.43428 3.144 -8.9496
94 1 6.28926 9.43435 3.14405 -8.95056
95 1 9.43363 9.43405 3.14516 -8.94625
96 1 12.5795 9.43391 3.14399 -8.94928
97 1 15.7241 9.43458 3.14485 -8.94983
98 1 18.8689 9.43446 3.14453 -8.94961
99 1 -4.05187e-05 4.09989e-15 6.28942 -8.9496
100 1 1.57226 1.57209 7.86185 -8.94962
101 1 3.14477 1.74641e-16 6.28942 -8.94978
102 1 4.71717 1.57209 7.86192 -8.94986
103 1 6.28965 8.29316e-15 6.28942 -8.94959
104 1 7.86197 1.57214 7.8619 -8.94957
105 1 9.43449 2.46656e-15 6.28952 -8.94928
106 1 11.0069 1.57214 7.86185 -8.94943
107 1 12.5793 9.7854e-15 6.28942 -8.94946
108 1 14.1518 1.57202 7.86187 -8.95006
109 1 15.7243 -6.56199e-15 6.28937 -8.94985
110 1 17.2969 1.57208 7.86179 -8.94954
111 1 18.8692 -8.92819e-15 6.28939 -8.94957
112 1 20.4415 1.57216 7.86187 -8.94958
113 1 22.0137 3.14431 6.28925 -8.94956
114 1 1.57171 4.71621 7.86148 -8.94951
115 1 3.14454 3.14416 6.28918 -8.9498
116 1 4.71633 4.71591 7.86159 -8.95055
117 1 6.28951 3.14447 6.28936 -8.9493
118 1 7.86098 4.71642 7.86203 -8.94733
119 1 9.4344 3.14513 6.28987 -8.94889
120 1 11.0071 4.71671 7.86209 -8.94627
121 1 12.5793 3.14467 6.28946 -8.94913
122 1 14.1526 4.71537 7.86142 -8.95098
123 1 15.7245 3.14407 6.28909 -8.94982
124 1 17.2973 4.71625 7.8614 -8.94928
125 1 18.8692 3.14435 6.28924 -8.94954
126 1 20.4415 4.7165 7.8616 -8.94947
127 1 -0.000724619 6.2888 6.28876 -8.94954
128 1 1.56975 7.8606 7.86067 -8.94957
129 1 3.14315 6.28796 6.28801 -8.94836
130 1 4.71162 7.85855 7.85908 -8.94541
131 1 6.28901 6.28928 6.28963 -8.95016
132 1 7.85864 7.86516 7.86606 -8.99369
133 1 9.43408 6.29178 6.29302 -8.95187
134 1 11.0047 7.8669 7.8696 -9.01863
135 1 12.5781 6.29 6.29094 -8.95223
136 1 14.1576 7.85627 7.85823 -8.94086
137 1 15.7258 6.28772 6.28772 -8.94722
138 1 17.2981 7.8612 7.86128 -8.95098
139 1 18.8694 6.28893 6.28885 -8.94983
140 1 20.441 7.86144 7.86135 -8.95
141 1 22.0128 9.43414 6.28865 -8.94954
142 1 3.14211 9.43373 6.28788 -8.94962
143 1 6.2855 9.4337 6.28738 -8.95072
144 1 9.43063 9.43705 6.29732 -9.01022
145 1 12.5814 9.4308 6.28806 -8.98608
146 1 15.7247 9.43437 6.28948 -8.95006
147 1 18.869 9.43434 6.28894 -8.94935
148 1 -5.80656e-05 9.11445e-15 9.43441 -8.9496
149 1 3.1447 -9.86666e-15 9.43442 -8.94972
150 1 6.28966 -6.95694e-15 9.43452 -8.94971
151 1 9.4345 -7.85013e-15 9.43448 -8.95043
152 1 12.5793 -3.29882e-15 9.43451 -8.94986
153 1 15.7244 1.18859e-14 9.43435 -8.94975
154 1 18.8692 2.4792e-15 9.4344 -8.94959
155 1 -0.000203689 3.14423 9.43432 -8.94957
156 1 3.14433 3.14396 9.43431 -8.94958
157 1 6.28939 3.14409 9.43468 -8.94979
158 1 9.43436 3.14313 9.43492 -8.95291
159 1 12.5793 3.1438 9.43465 -8.9505
160 1 15.7248 3.14372 9.43418 -8.94937
161 1 18.8693 3.14421 9.43428 -8.94957
162 1 22.013 6.28862 9.43408 -8.94953
163 1 3.14246 6.28778 9.43396 -8.94894
191 1 4.71003 7.85923 11.0076 -8.94905
181 1 17.297 1.57198 11.0069 -8.94957
188 1 17.2977 4.71601 11.0069 -8.94956
190 1 1.56912 7.86056 11.007 -8.94961
177 1 4.71703 1.57196 11.007 -8.94977
184 1 4.71566 4.71565 11.0072 -8.94981
189 1 20.4415 4.71642 11.0069 -8.94954
7 1 9.43451 3.14534e-16 4.58867e-06 -8.94962
343 1 18.8695 9.43432 18.8699 -8.94952
48 1 15.7243 9.43442 22.0143 -8.94967
178 1 7.86195 1.57198 11.0073 -8.94979
179 1 11.0069 1.57199 11.0073 -8.94937
180 1 14.152 1.57178 11.0069 -8.95002
342 1 15.725 9.43416 18.8706 -8.94936
182 1 20.4415 1.57212 11.0069 -8.9496
183 1 1.5715 4.71617 11.007 -8.94955
45 1 6.2898 9.43448 22.0137 -8.94993
185 1 7.86025 4.71577 11.009 -8.94822
186 1 11.008 4.71634 11.0087 -8.94595
187 1 14.1536 4.71453 11.0072 -8.95007
341 1 12.5795 9.43431 18.8708 -8.95134
43 1 22.0138 9.43444 22.0139 -8.94961
340 1 9.4343 9.4345 18.8682 -8.94815
339 1 6.28969 9.43457 18.8694 -8.95059
338 1 3.14443 9.4343 18.87 -8.94957
337 1 22.0138 9.43435 18.8697 -8.94956
194 1 14.16 7.85585 11.0086 -8.945
195 1 17.2996 7.86035 11.007 -8.9502
196 1 20.4412 7.86122 11.0069 -8.95014
197 1 -6.12877e-05 2.47845e-15 12.5795 -8.94961
198 1 1.57221 1.57204 14.1521 -8.94967
199 1 3.14467 8.65307e-15 12.5795 -8.94975
200 1 4.71701 1.57188 14.1523 -8.94986
201 1 6.28956 1.93236e-14 12.5797 -8.95
202 1 7.86224 1.57252 14.152 -8.94924
203 1 9.43448 1.79342e-14 12.5796 -8.94896
204 1 11.0067 1.57236 14.152 -8.94948
205 1 12.5794 2.76245e-15 12.5796 -8.95011
206 1 14.152 1.57169 14.1523 -8.95014
207 1 15.7245 -1.60067e-14 12.5795 -8.9498
208 1 17.297 1.57195 14.1521 -8.94959
209 1 18.8692 -8.6604e-15 12.5795 -8.94959
210 1 20.4415 1.57211 14.152 -8.9496
211 1 22.0137 3.14421 12.5795 -8.94958
212 1 1.57156 4.71606 14.1526 -8.94961
213 1 3.14422 3.14389 12.5797 -8.9497
214 1 4.71588 4.71518 14.1533 -8.94962
215 1 6.28898 3.14361 12.5802 -8.95011
216 1 7.86252 4.7182 14.1517 -8.94969
217 1 9.43448 3.14529 12.5797 -8.94803
218 1 11.0063 4.71718 14.1522 -8.94961
219 1 12.5798 3.14323 12.58 -8.9507
220 1 14.1534 4.71405 14.1536 -8.95099
221 1 15.725 3.14353 12.5797 -8.94953
222 1 17.2978 4.71582 14.1526 -8.94923
223 1 18.8694 3.14416 12.5795 -8.94958
224 1 20.4416 4.71638 14.1523 -8.94952
225 1 -0.000881494 6.28856 12.5798 -8.94964
226 1 1.56964 7.8604 14.1536 -8.9495
227 1 3.14214 6.2876 12.5805 -8.94965
228 1 4.71105 7.85715 14.1572 -8.94121
229 1 6.28587 6.28596 12.5821 -8.95099
230 1 7.86419 7.86571 14.1495 -8.95609
231 1 9.43527 6.29391 12.578 -8.94593
232 1 11.0046 7.86319 14.152 -8.95107
233 1 12.5824 6.28387 12.5819 -8.95673
234 1 14.1626 7.85211 14.1623 -8.93532
235 1 15.7275 6.28671 12.5809 -8.94778
236 1 17.2999 7.86043 14.1535 -8.95132
237 1 18.8701 6.28848 12.5797 -8.9495
238 1 20.4415 7.86128 14.1526 -8.9502
239 1 22.0115 9.43384 12.5801 -8.9506
240 1 3.13645 9.43208 12.5824 -8.9511
241 1 6.26771 9.4219 12.5948 -8.96521
242 1 9.43856 9.45199 12.5612 -9.08865
243 1 12.61 9.40772 12.6089 -8.97354
244 1 15.7314 9.43306 12.5818 -8.95784
245 1 18.8704 9.43415 12.5798 -8.95102
246 1 -5.31251e-05 7.73869e-15 15.7245 -8.94962
247 1 1.57231 1.57211 17.2971 -8.94952
248 1 3.14471 8.16397e-17 15.7246 -8.94969
249 1 4.71745 1.57234 17.2968 -8.94972
250 1 6.28987 -1.34773e-14 15.7244 -8.94952
251 1 7.86214 1.57241 17.2968 -8.94955
252 1 9.43445 -2.05674e-14 15.7244 -8.94957
253 1 11.0068 1.57238 17.2968 -8.94957
254 1 12.5792 -5.66136e-15 15.7244 -8.94959
255 1 14.1516 1.57221 17.2969 -8.94967
256 1 15.7244 7.9589e-15 15.7246 -8.94987
257 1 17.2969 1.57199 17.2972 -8.9496
258 1 18.8692 2.53266e-15 15.7245 -8.94958
259 1 20.4415 1.57214 17.297 -8.94957
260 1 -0.000167884 3.14422 15.7247 -8.94956
261 1 1.57199 4.71639 17.2976 -8.94907
262 1 3.14441 3.14392 15.725 -8.94947
263 1 4.7174 4.71698 17.297 -8.95025
264 1 6.28997 3.14487 15.7244 -8.94973
265 1 7.86212 4.71731 17.2967 -8.94923
266 1 9.43436 3.14485 15.7244 -8.94955
267 1 11.0066 4.71715 17.2969 -8.94946
268 1 12.579 3.14449 15.7246 -8.9496
269 1 14.1517 4.71658 17.2974 -8.9501
270 1 15.7248 3.14347 15.7252 -8.94982
271 1 17.2977 4.71584 17.2981 -8.94835
272 1 18.8694 3.14415 15.7247 -8.94954
273 1 20.4416 4.71652 17.2974 -8.94949
274 1 22.0133 6.28866 15.7253 -8.94954
275 1 1.57174 7.86145 17.2978 -8.94952
276 1 3.14303 6.28768 15.7264 -8.94754
277 1 4.7164 7.86132 17.2984 -8.95035
278 1 6.29005 6.29 15.7243 -8.95163
279 1 7.86249 7.86265 17.2958 -8.9494
280 1 9.43393 6.28985 15.7242 -8.9484
281 1 11.0061 7.86219 17.2968 -8.94945
282 1 12.5791 6.28879 15.7253 -8.95084
283 1 14.1535 7.86027 17.3002 -8.95061
284 1 15.7277 6.28591 15.7281 -8.94558
285 1 17.2978 7.86127 17.2982 -8.94922
286 1 18.8701 6.28854 15.7254 -8.9499
287 1 20.4416 7.86159 17.2976 -8.94945
288 1 22.0131 9.43408 15.7254 -8.94952
289 1 3.14244 9.43364 15.7264 -8.94911
290 1 6.28746 9.43412 15.727 -8.95382
291 1 9.43453 9.4359 15.7201 -8.94306
292 1 12.5834 9.43214 15.7319 -8.95538
293 1 15.7277 9.43319 15.7276 -8.94791
294 1 18.8702 9.43405 15.7255 -8.94943
295 1 22.0139 1.7983e-15 18.8694 -8.94952
296 1 1.57252 1.57229 20.4416 -8.94967
297 1 3.14498 -3.99167e-16 18.8692 -8.94971
298 1 4.71738 1.57237 20.4415 -8.9496
299 1 6.28976 7.96031e-15 18.8692 -8.94957
300 1 7.86213 1.57239 20.4415 -8.94961
301 1 9.43449 1.73532e-14 18.8692 -8.9496
302 1 11.0069 1.57238 20.4415 -8.94961
303 1 12.5792 9.96648e-15 18.8692 -8.94959
304 1 14.1516 1.57234 20.4416 -8.94961
305 1 15.7241 3.61985e-15 18.8693 -8.94968
306 1 17.2966 1.57225 20.4417 -8.94968
307 1 18.8692 -4.4694e-15 18.8694 -8.94953
308 1 20.4415 1.57223 20.4417 -8.94941
309 1 -1.59827e-05 3.14441 18.8695 -8.94941
310 1 1.57236 4.71691 20.4418 -8.9496
311 1 3.14494 3.14459 18.8693 -8.94981
312 1 4.71744 4.71716 20.4415 -8.94968
313 1 6.28981 3.14479 18.8692 -8.94952
314 1 7.86213 4.71719 20.4415 -8.94956
315 1 9.43445 3.14478 18.8692 -8.94961
316 1 11.0068 4.71717 20.4416 -8.94958
317 1 12.5791 3.14471 18.8692 -8.94955
318 1 14.1516 4.71706 20.4417 -8.94967
319 1 15.7242 3.14444 18.8695 -8.94982
320 1 17.2969 4.71676 20.442 -8.94956
321 1 18.8693 3.14429 18.8696 -8.9492
322 1 20.4415 4.71694 20.4418 -8.94959
323 1 22.0138 6.28924 18.8697 -8.94955
324 1 1.5723 7.86187 20.4418 -8.94962
325 1 3.14459 6.28914 18.8699 -8.9497
326 1 4.71728 7.86193 20.4418 -8.95005
327 1 6.28996 6.28972 18.869 -8.94967
328 1 7.86218 7.86205 20.4412 -8.94933
329 1 9.43433 6.28964 18.869 -8.94956
330 1 11.0066 7.86201 20.4415 -8.94941
331 1 12.579 6.28948 18.8695 -8.94956
332 1 14.1519 7.86173 20.4423 -8.95023
333 1 15.7249 6.28871 18.8705 -8.94971
334 1 17.2969 7.86181 20.4421 -8.94953
335 1 18.8694 6.28917 18.8698 -8.94952
336 1 20.4415 7.8619 20.4418 -8.94958
3 1 3.14496 8.70944e-15 22.0139 -8.94962
41 1 18.8691 6.28945 22.014 -8.94962
11 1 15.7241 -1.81955e-14 22.0139 -8.94963
19 1 6.28978 3.14478 22.0139 -8.94962
25 1 15.7241 3.1447 22.014 -8.9497
31 1 3.1448 6.28943 22.0139 -8.9498
35 1 9.43446 6.2896 22.014 -8.94948
37 1 12.5791 6.2896 22.0141 -8.94953
15 1 22.0139 3.1446 22.0139 -8.94957
46 1 9.43435 9.43432 22.0136 -8.94908
176 1 1.57221 1.57205 11.0069 -8.94961
344 1 1.57221 11.007 1.57209 -8.94964
345 1 4.71712 11.007 1.57195 -8.94975
346 1 7.86216 11.007 1.57215 -8.9495
347 1 11.0066 11.007 1.57142 -8.95203
348 1 14.1517 11.007 1.57264 -8.94942
349 1 17.2967 11.007 1.57243 -8.94965
350 1 20.4414 11.007 1.57224 -8.94961
688 2 10.2457 11.007 9.48009 0.52139
352 1 1.57223 14.152 1.57209 -8.94966
353 1 3.14474 12.5795 -1.82624e-05 -8.94973
354 1 4.71717 14.152 1.57198 -8.94995
511 1 18.8693 18.8697 9.43428 -8.94957
356 1 7.86203 14.152 1.57235 -8.94913
538 1 17.297 20.4419 11.0069 -8.94957
358 1 11.0067 14.1518 1.57277 -8.94902
359 1 12.5793 12.5795 0.000131383 -8.95013
360 1 14.1519 14.1521 1.57224 -8.94987
510 1 15.7248 18.8702 9.43418 -8.94937
362 1 17.2967 14.1519 1.57243 -8.94973
363 1 18.8692 12.5795 0.000164694 -8.9496
364 1 20.4414 14.152 1.57225 -8.94961
365 1 -4.82912e-05 15.7245 3.49935e-05 -8.94962
366 1 1.57232 17.297 1.57214 -8.9496
509 1 12.5793 18.8701 9.43465 -8.9505
368 1 4.71739 17.2968 1.57228 -8.94966
369 1 6.2898 15.7243 -0.00010248 -8.94951
370 1 7.86222 17.2967 1.57255 -8.94963
508 1 9.43436 18.8708 9.43492 -8.95291
372 1 11.0068 17.2966 1.57264 -8.9496
507 1 6.28939 18.8698 9.43468 -8.94979
374 1 14.1515 17.2967 1.57251 -8.94978
375 1 15.7243 15.7246 0.000206836 -8.94982
376 1 17.2967 17.297 1.57225 -8.94965
506 1 3.14433 18.8699 9.43431 -8.94958
378 1 20.4415 17.2969 1.57224 -8.94963
531 1 17.2977 17.2979 11.0069 -8.94956
380 1 1.57249 20.4416 1.57228 -8.94963
381 1 3.14495 18.8692 -2.75149e-05 -8.94968
382 1 4.71738 20.4415 1.57235 -8.94967
505 1 -0.000203689 18.8697 9.43432 -8.94957
384 1 7.86216 20.4415 1.57239 -8.94963
385 1 9.43451 18.8691 5.23748e-05 -8.94962
386 1 11.0069 20.4415 1.57241 -8.94962
387 1 12.5792 18.8691 7.29911e-05 -8.94961
388 1 14.1517 20.4415 1.5724 -8.94967
504 1 18.8698 15.7253 9.43405 -8.94941
390 1 17.2965 20.4416 1.57233 -8.94969
391 1 18.8691 18.8693 7.65771e-05 -8.94955
392 1 20.4415 20.4416 1.57227 -8.94946
393 1 1.57139 11.007 4.71621 -8.94948
394 1 4.71554 11.007 4.71572 -8.94903
395 1 7.86125 11.007 4.71762 -8.95176
396 1 11.0061 11.007 4.71059 -8.96297
397 1 14.151 11.007 4.71766 -8.94987
398 1 17.2965 11.007 4.71688 -8.94941
399 1 20.4411 11.007 4.71661 -8.94949
400 1 -0.00033125 12.5795 3.14431 -8.94957
401 1 1.57155 14.1524 4.7162 -8.94952
402 1 3.1443 12.5796 3.144 -8.9496
403 1 4.716 14.1528 4.71565 -8.94957
404 1 6.28926 12.5795 3.14405 -8.95056
405 1 7.86193 14.1513 4.71829 -8.94986
406 1 9.43363 12.5798 3.14516 -8.94625
407 1 11.0053 14.1506 4.71952 -8.9497
408 1 12.5795 12.58 3.14399 -8.94928
409 1 14.1523 14.1528 4.71599 -8.94951
410 1 15.7241 12.5793 3.14485 -8.94983
411 1 17.2967 14.152 4.71682 -8.94978
412 1 18.8689 12.5794 3.14453 -8.94961
413 1 20.4412 14.1521 4.71662 -8.9495
414 1 22.0137 15.7246 3.14434 -8.94956
415 1 1.57198 17.2974 4.71648 -8.94919
416 1 3.14449 15.7248 3.14407 -8.94955
417 1 4.71723 17.2971 4.71687 -8.94967
418 1 6.28983 15.7243 3.14476 -8.9497
419 1 7.86241 17.2962 4.71771 -8.95025
420 1 9.43445 15.724 3.14559 -8.9492
421 1 11.0064 17.296 4.71781 -8.95005
422 1 12.5787 15.724 3.14537 -8.94998
423 1 14.1513 17.2967 4.71724 -8.95021
424 1 15.7243 15.7246 3.14427 -8.94964
425 1 17.297 17.2974 4.71641 -8.94886
426 1 18.869 15.7245 3.14451 -8.9497
427 1 20.4414 17.2972 4.71666 -8.94952
428 1 -7.10578e-05 18.8694 3.14445 -8.94945
429 1 1.57233 20.4417 4.71691 -8.94964
430 1 3.14489 18.8693 3.14455 -8.94967
431 1 4.71728 20.4416 4.71699 -8.94954
432 1 6.28988 18.8691 3.14482 -8.94979
433 1 7.8622 20.4414 4.7172 -8.94951
434 1 9.43454 18.869 3.14495 -8.94961
435 1 11.0068 20.4413 4.71721 -8.9495
436 1 12.5791 18.8689 3.14493 -8.94976
437 1 14.1517 20.4415 4.71707 -8.94946
438 1 15.724 18.8692 3.14468 -8.94981
439 1 17.2968 20.4418 4.71687 -8.94963
440 1 18.8691 18.8694 3.14446 -8.94936
441 1 20.4415 20.4417 4.71695 -8.94959
442 1 1.56899 11.007 7.86076 -8.9498
443 1 4.7096 11.007 7.86017 -8.95019
444 1 7.84588 11.007 7.85952 -9.05442
445 1 11.0298 11.007 7.82551 -9.27141
446 1 14.1528 11.007 7.86395 -8.99731
447 1 17.2977 11.007 7.86127 -8.94879
448 1 20.4407 11.007 7.86124 -8.94981
449 1 22.0128 12.5798 6.28865 -8.94954
450 1 1.56975 14.1533 7.86067 -8.94957
451 1 3.14211 12.5802 6.28788 -8.94962
452 1 4.71162 14.1553 7.85908 -8.94541
453 1 6.2855 12.5802 6.28738 -8.95072
454 1 7.85864 14.1487 7.86606 -8.99369
455 1 9.43063 12.5768 6.29732 -9.01022
456 1 11.0047 14.147 7.8696 -9.01863
457 1 12.5814 12.5831 6.28806 -8.98608
458 1 14.1576 14.1576 7.85823 -8.94086
459 1 15.7247 12.5795 6.28948 -8.95006
460 1 17.2981 14.1527 7.86128 -8.95098
461 1 18.869 12.5796 6.28894 -8.94935
462 1 20.441 14.1525 7.86135 -8.95
463 1 -0.000724619 15.7251 6.28876 -8.94954
464 1 1.57171 17.2977 7.86148 -8.94951
465 1 3.14315 15.7259 6.28801 -8.94836
466 1 4.71633 17.298 7.86159 -8.95055
467 1 6.28901 15.7246 6.28963 -8.95016
468 1 7.86098 17.2975 7.86203 -8.94733
469 1 9.43408 15.7221 6.29302 -8.95187
470 1 11.0071 17.2972 7.86209 -8.94627
471 1 12.5781 15.7239 6.29094 -8.95223
472 1 14.1526 17.2985 7.86142 -8.95098
473 1 15.7258 15.7262 6.28772 -8.94722
474 1 17.2973 17.2977 7.8614 -8.94928
475 1 18.8694 15.725 6.28885 -8.94983
476 1 20.4415 17.2974 7.8616 -8.94947
477 1 22.0137 18.8696 6.28925 -8.94956
478 1 1.57226 20.4418 7.86185 -8.94962
479 1 3.14454 18.8697 6.28918 -8.9498
480 1 4.71717 20.4418 7.86192 -8.94986
481 1 6.28951 18.8694 6.28936 -8.9493
482 1 7.86197 20.4418 7.8619 -8.94957
483 1 9.4344 18.8688 6.28987 -8.94889
484 1 11.0069 20.4418 7.86185 -8.94943
485 1 12.5793 18.8692 6.28946 -8.94913
486 1 14.1518 20.4419 7.86187 -8.95006
487 1 15.7245 18.8698 6.28909 -8.94982
488 1 17.2969 20.4418 7.86179 -8.94954
489 1 18.8692 18.8695 6.28924 -8.94954
490 1 20.4415 20.4417 7.86187 -8.94958
491 1 -0.00245381 12.58 9.43383 -8.95022
492 1 3.13722 12.5816 9.4328 -8.94977
493 1 6.27171 12.588 9.42692 -9.02575
494 1 9.40733 12.6363 9.43451 -9.35523
495 1 12.6013 12.5982 9.42514 -8.99507
496 1 15.7283 12.5801 9.43526 -8.95619
497 1 18.8696 12.5796 9.43418 -8.95049
498 1 22.013 15.7253 9.43408 -8.94953
499 1 3.14246 15.7261 9.43396 -8.94894
500 1 6.28762 15.726 9.43537 -8.95325
501 1 9.43351 15.7332 9.43846 -8.96829
502 1 12.5805 15.7281 9.43526 -8.95553
503 1 15.7266 15.7265 9.43372 -8.94756
512 1 1.56587 11.007 11.0071 -8.95377
687 2 9.45678 11.007 10.6518 0.470619
513 1 4.69406 11.007 11.0088 -8.97554
516 1 14.1495 11.007 11.0115 -9.0363
519 1 1.56912 14.1533 11.007 -8.94961
520 1 4.71003 14.1547 11.0076 -8.94905
521 1 7.8514 14.1531 11.0152 -9.04215
522 1 11.0164 14.1487 11.0117 -9.06513
527 1 4.71566 17.2983 11.0072 -8.94981
532 1 20.4415 17.2975 11.0069 -8.94954
534 1 4.71703 20.4419 11.007 -8.94977
686 1 20.4415 20.4417 20.4417 -8.94941
685 1 18.8693 18.8696 18.8696 -8.9492
514 1 7.73728 11.007 11.0253 -9.1853
515 1 11.1958 11.007 11.0788 -9.27011
684 1 17.2966 20.4416 20.4417 -8.94968
517 1 17.298 11.007 11.0074 -8.94618
518 1 20.4403 11.007 11.0069 -8.95001
683 1 15.7242 18.8695 18.8695 -8.94982
682 1 14.1516 20.4416 20.4416 -8.94961
681 1 12.5791 18.8692 18.8692 -8.94955
680 1 11.0069 20.4415 20.4415 -8.94961
523 1 14.16 14.1581 11.0086 -8.945
524 1 17.2996 14.1536 11.007 -8.9502
525 1 20.4412 14.1527 11.0069 -8.95014
526 1 1.5715 17.2977 11.007 -8.94955
389 1 15.7241 18.8692 22.014 -8.9497
528 1 7.86025 17.2981 11.009 -8.94822
529 1 11.008 17.2976 11.0087 -8.94595
530 1 14.1536 17.2994 11.0072 -8.95007
679 1 9.43445 18.8691 18.8692 -8.94961
383 1 6.28978 18.8691 22.0139 -8.94962
678 1 7.86213 20.4415 20.4415 -8.94961
377 1 18.8691 15.7244 22.014 -8.94962
535 1 7.86195 20.4419 11.0073 -8.94979
536 1 11.0069 20.4419 11.0073 -8.94937
537 1 14.152 20.4421 11.0069 -8.95002
677 1 6.28981 18.8691 18.8692 -8.94952
539 1 20.4415 20.4418 11.0069 -8.9496
540 1 1.56911 11.007 14.1536 -8.94941
541 1 4.71014 11.007 14.1559 -8.94603
542 1 7.85733 11.007 14.1512 -9.00745
543 1 11.0169 11.007 14.1597 -9.02015
544 1 14.161 11.007 14.1602 -8.94595
545 1 17.3001 11.007 14.154 -8.94986
546 1 20.4414 11.007 14.1528 -8.95009
547 1 22.0115 12.5801 12.5801 -8.9506
548 1 1.56964 14.1535 14.1536 -8.9495
549 1 3.13645 12.5818 12.5824 -8.9511
550 1 4.71105 14.1567 14.1572 -8.94121
551 1 6.26771 12.592 12.5948 -8.96521
552 1 7.86419 14.1482 14.1495 -8.95609
553 1 9.43856 12.5619 12.5612 -9.08865
554 1 11.0046 14.1507 14.152 -8.95107
555 1 12.61 12.6062 12.6089 -8.97354
556 1 14.1626 14.1618 14.1623 -8.93532
557 1 15.7314 12.5808 12.5818 -8.95784
558 1 17.2999 14.1535 14.1535 -8.95132
559 1 18.8704 12.5798 12.5798 -8.95102
560 1 20.4415 14.1526 14.1526 -8.9502
561 1 -0.000881494 15.7253 12.5798 -8.94964
562 1 1.57156 17.2978 14.1526 -8.94961
563 1 3.14214 15.7263 12.5805 -8.94965
564 1 4.71588 17.2987 14.1533 -8.94962
565 1 6.28587 15.7279 12.5821 -8.95099
566 1 7.86252 17.2957 14.1517 -8.94969
567 1 9.43527 15.72 12.578 -8.94593
568 1 11.0063 17.2967 14.1522 -8.94961
569 1 12.5824 15.73 12.5819 -8.95673
570 1 14.1534 17.2999 14.1536 -8.95099
571 1 15.7275 15.7272 12.5809 -8.94778
572 1 17.2978 17.2981 14.1526 -8.94923
573 1 18.8701 15.7254 12.5797 -8.9495
574 1 20.4416 17.2975 14.1523 -8.94952
575 1 22.0137 18.8697 12.5795 -8.94958
576 1 1.57221 20.4419 14.1521 -8.94967
577 1 3.14422 18.87 12.5797 -8.9497
578 1 4.71701 20.442 14.1523 -8.94986
579 1 6.28898 18.8703 12.5802 -8.95011
580 1 7.86224 20.4414 14.152 -8.94924
581 1 9.43448 18.8686 12.5797 -8.94803
582 1 11.0067 20.4415 14.152 -8.94948
583 1 12.5798 18.8707 12.58 -8.9507
584 1 14.152 20.4422 14.1523 -8.95014
585 1 15.725 18.8704 12.5797 -8.94953
586 1 17.297 20.4419 14.1521 -8.94959
587 1 18.8694 18.8697 12.5795 -8.94958
588 1 20.4415 20.4418 14.152 -8.9496
589 1 1.57162 11.007 17.2978 -8.94955
590 1 4.71599 11.007 17.2984 -8.94946
591 1 7.86216 11.007 17.2956 -8.9501
592 1 11.0069 11.007 17.2979 -8.95196
593 1 14.1538 11.007 17.3002 -8.94932
594 1 17.2979 11.007 17.2982 -8.94945
595 1 20.4416 11.007 17.2976 -8.9495
596 1 22.0131 12.5798 15.7254 -8.94952
597 1 1.57174 14.1524 17.2978 -8.94952
598 1 3.14244 12.5803 15.7264 -8.94911
599 1 4.7164 14.1526 17.2984 -8.95035
600 1 6.28746 12.5798 15.727 -8.95382
601 1 7.86249 14.1513 17.2958 -8.9494
602 1 9.43453 12.578 15.7201 -8.94306
603 1 11.0061 14.1517 17.2968 -8.94945
604 1 12.5834 12.5818 15.7319 -8.95538
605 1 14.1535 14.1536 17.3002 -8.95061
606 1 15.7277 12.5807 15.7276 -8.94791
607 1 17.2978 14.1526 17.2982 -8.94922
608 1 18.8702 12.5799 15.7255 -8.94943
609 1 20.4416 14.1523 17.2976 -8.94945
610 1 22.0133 15.7252 15.7253 -8.94954
611 1 1.57199 17.2975 17.2976 -8.94907
612 1 3.14303 15.7262 15.7264 -8.94754
613 1 4.7174 17.2969 17.297 -8.95025
614 1 6.29005 15.7239 15.7243 -8.95163
615 1 7.86212 17.2966 17.2967 -8.94923
616 1 9.43393 15.7241 15.7242 -8.9484
617 1 11.0066 17.2967 17.2969 -8.94946
618 1 12.5791 15.7251 15.7253 -8.95084
619 1 14.1517 17.2973 17.2974 -8.9501
620 1 15.7277 15.728 15.7281 -8.94558
621 1 17.2977 17.2981 17.2981 -8.94835
622 1 18.8701 15.7254 15.7254 -8.9499
623 1 20.4416 17.2974 17.2974 -8.94949
624 1 -0.000167884 18.8697 15.7247 -8.94956
625 1 1.57231 20.4418 17.2971 -8.94952
626 1 3.14441 18.87 15.725 -8.94947
627 1 4.71745 20.4416 17.2968 -8.94972
628 1 6.28997 18.869 15.7244 -8.94973
629 1 7.86214 20.4415 17.2968 -8.94955
630 1 9.43436 18.869 15.7244 -8.94955
631 1 11.0068 20.4415 17.2968 -8.94957
632 1 12.579 18.8694 15.7246 -8.9496
633 1 14.1516 20.4417 17.2969 -8.94967
634 1 15.7248 18.8704 15.7252 -8.94982
635 1 17.2969 20.4419 17.2972 -8.9496
636 1 18.8694 18.8697 15.7247 -8.94954
637 1 20.4415 20.4418 17.297 -8.94957
638 1 1.57226 11.007 20.4419 -8.94961
639 1 4.71721 11.007 20.4418 -8.9499
640 1 7.86226 11.007 20.4411 -8.94942
641 1 11.0066 11.007 20.4415 -8.95013
642 1 14.152 11.007 20.4425 -8.94985
643 1 17.297 11.007 20.4421 -8.94957
644 1 20.4415 11.007 20.4419 -8.94958
645 1 22.0138 12.5795 18.8697 -8.94956
646 1 1.5723 14.152 20.4418 -8.94962
647 1 3.14443 12.5796 18.87 -8.94957
648 1 4.71728 14.152 20.4418 -8.95005
649 1 6.28969 12.5793 18.8694 -8.95059
650 1 7.86218 14.1518 20.4412 -8.94933
651 1 9.4343 12.5794 18.8682 -8.94815
652 1 11.0066 14.1519 20.4415 -8.94941
653 1 12.5795 12.5796 18.8708 -8.95134
654 1 14.1519 14.1522 20.4423 -8.95023
655 1 15.725 12.5797 18.8706 -8.94936
656 1 17.2969 14.1521 20.4421 -8.94953
657 1 18.8695 12.5796 18.8699 -8.94952
658 1 20.4415 14.152 20.4418 -8.94958
659 1 22.0138 15.7247 18.8697 -8.94955
660 1 1.57236 17.297 20.4418 -8.9496
661 1 3.14459 15.7248 18.8699 -8.9497
662 1 4.71744 17.2967 20.4415 -8.94968
663 1 6.28996 15.7242 18.869 -8.94967
664 1 7.86213 17.2967 20.4415 -8.94956
665 1 9.43433 15.7243 18.869 -8.94956
666 1 11.0068 17.2967 20.4416 -8.94958
667 1 12.579 15.7244 18.8695 -8.94956
668 1 14.1516 17.2968 20.4417 -8.94967
669 1 15.7249 15.7252 18.8705 -8.94971
670 1 17.2969 17.2971 20.442 -8.94956
671 1 18.8694 15.7247 18.8698 -8.94952
672 1 20.4415 17.297 20.4418 -8.94959
673 1 -1.59827e-05 18.8695 18.8695 -8.94941
674 1 1.57252 20.4416 20.4416 -8.94967
675 1 3.14494 18.8693 18.8693 -8.94981
676 1 4.71738 20.4415 20.4415 -8.9496
351 1 22.0138 12.5795 22.0139 -8.94961
355 1 6.2898 12.5794 22.0137 -8.94993
361 1 15.7243 12.5795 22.0143 -8.94967
367 1 3.1448 15.7245 22.0139 -8.9498
371 1 9.43446 15.7243 22.014 -8.94948
373 1 12.5791 15.7243 22.0141 -8.94953
357 1 9.43435 12.5796 22.0136 -8.94908
379 1 22.0139 18.8693 22.0139 -8.94957
533 1 1.57221 20.4419 11.0069 -8.94961
