ITEM: TIMESTEP
91
ITEM: NUMBER OF ATOMS
688
ITEM: BOX BOUNDS pp pp pp
0.0000000000000000e+00 2.2013900999999997e+01
0.0000000000000000e+00 2.2013900999999997e+01
0.0000000000000000e+00 2.2013900999999997e+01
ITEM: ATOMS id type x y z c_pot
1 1 9.8606e-05 2.07948e-14 0.000673543 -8.94953
2 1 1.57248 1.57217 1.57296 -8.94952
175 1 18.8708 9.43382 9.435 -8.94981
4 1 4.71734 1.57225 1.57313 -8.94967
5 1 6.28976 -1.15511e-16 0.000845665 -8.94961
6 1 7.86206 1.57231 1.57328 -8.9496
174 1 15.7294 9.43302 9.43409 -8.94785
8 1 11.0067 1.57228 1.57324 -8.9496
9 1 12.5791 1.66149e-15 0.000820514 -8.94961
10 1 14.1516 1.57217 1.57305 -8.94964
173 1 12.5874 9.4324 9.43075 -9.03132
12 1 17.2967 1.57204 1.57286 -8.94957
13 1 18.8691 -1.29423e-14 0.000626869 -8.94952
14 1 20.4416 1.57211 1.57292 -8.94955
193 1 11.0113 7.86118 11.0127 -9.05735
16 1 1.57233 4.71666 1.57299 -8.94952
17 1 3.14485 3.14441 0.000833217 -8.94959
18 1 4.71707 4.71678 1.57318 -8.94963
172 1 9.4157 9.35841 9.41868 -9.37257
20 1 7.86196 4.71691 1.57341 -8.94958
21 1 9.4344 3.14457 0.000990312 -8.94959
22 1 11.0068 4.71683 1.57324 -8.94957
23 1 12.5792 3.14448 0.000857483 -8.9496
24 1 14.1519 4.7165 1.57285 -8.9498
171 1 6.28795 9.43316 9.43281 -9.03872
26 1 17.2972 4.71621 1.57252 -8.94911
27 1 18.8692 3.1442 0.000599284 -8.9494
28 1 20.4417 4.71653 1.5728 -8.94953
29 1 -1.5227e-05 6.28908 0.000831653 -8.94959
30 1 1.57218 7.86166 1.57309 -8.94963
170 1 3.14137 9.43315 9.43502 -8.94654
32 1 4.71668 7.86163 1.57318 -8.9498
33 1 6.28935 6.28915 0.00118333 -8.94957
34 1 7.86159 7.86149 1.57314 -8.94946
169 1 -0.0010253 9.43386 9.43511 -8.94963
36 1 11.0069 7.86147 1.57265 -8.94921
168 1 18.8697 6.28869 9.43513 -8.94949
38 1 14.1531 7.86077 1.57136 -8.94982
39 1 15.7249 6.28867 0.000303291 -8.94956
40 1 17.2976 7.86129 1.57232 -8.94956
167 1 15.7258 6.28853 9.43535 -8.94906
42 1 20.4418 7.86157 1.5728 -8.94958
166 1 12.5802 6.28902 9.43575 -8.95089
44 1 3.14435 9.43428 0.0012507 -8.94962
165 1 9.43435 6.27404 9.4362 -8.97201
192 1 7.85715 7.86177 11.0152 -9.03378
47 1 12.5799 9.43401 -5.99564e-05 -8.95047
164 1 6.28919 6.28896 9.43663 -8.95123
49 1 18.8696 9.43422 0.000614379 -8.94957
50 1 22.014 2.208e-15 3.14525 -8.94962
51 1 1.57237 1.57218 4.71766 -8.94967
52 1 3.1448 -8.8292e-15 3.14528 -8.94951
53 1 4.71698 1.57211 4.71766 -8.94951
54 1 6.28969 1.65246e-15 3.14555 -8.94963
55 1 7.86201 1.57231 4.71803 -8.94955
56 1 9.43439 4.40638e-15 3.14565 -8.94962
57 1 11.0068 1.57226 4.71798 -8.94954
58 1 12.5792 6.66844e-15 3.1455 -8.94962
59 1 14.1519 1.57197 4.71765 -8.94971
60 1 15.7242 6.39009e-15 3.14524 -8.94964
61 1 17.2967 1.57206 4.71762 -8.94967
62 1 18.8691 -3.07709e-15 3.14523 -8.94962
63 1 20.4415 1.57212 4.71758 -8.94961
64 1 3.59186e-05 3.14433 3.14521 -8.94957
65 1 1.57214 4.71661 4.71757 -8.94959
66 1 3.14468 3.14437 3.14529 -8.94944
67 1 4.71654 4.71639 4.71755 -8.94905
68 1 6.28962 3.1446 3.1456 -8.9498
69 1 7.86204 4.71701 4.71819 -8.95025
70 1 9.43439 3.1446 3.14571 -8.9496
71 1 11.007 4.71685 4.71787 -8.94962
72 1 12.5792 3.14442 3.14543 -8.94965
73 1 14.1527 4.71565 4.71712 -8.95
74 1 15.7245 3.14398 3.14505 -8.94963
75 1 17.2973 4.71619 4.71731 -8.94954
76 1 18.8693 3.14419 3.14513 -8.94958
77 1 20.4417 4.71648 4.71743 -8.94953
78 1 22.0139 6.289 3.1451 -8.94965
79 1 1.5718 7.8615 4.71745 -8.94977
80 1 3.14428 6.28897 3.1452 -8.94934
81 1 4.71558 7.86095 4.71701 -8.94851
82 1 6.28917 6.28913 3.14539 -8.94978
83 1 7.86126 7.86139 4.71717 -8.95096
84 1 9.43436 6.28912 3.1457 -8.94924
85 1 11.0068 7.8619 4.71675 -8.95064
86 1 12.5796 6.28886 3.14491 -8.95012
87 1 14.157 7.85766 4.7129 -8.94357
88 1 15.726 6.28771 3.14378 -8.94793
89 1 17.299 7.86071 4.7164 -8.9499
90 1 18.8699 6.28868 3.14474 -8.94957
91 1 20.4421 7.86141 4.71725 -8.94983
92 1 1.22765e-05 9.43424 3.14512 -8.94961
93 1 3.14411 9.43424 3.14529 -8.94959
94 1 6.28868 9.43419 3.14487 -8.95056
95 1 9.43375 9.43337 3.14416 -8.94634
96 1 12.5819 9.43283 3.14061 -8.95153
97 1 15.7264 9.4337 3.14345 -8.94936
98 1 18.8701 9.43411 3.14465 -8.94953
99 1 -2.49324e-05 1.04628e-14 6.29 -8.9496
100 1 1.57225 1.57216 7.86252 -8.94961
101 1 3.14471 -6.88412e-16 6.29017 -8.94964
102 1 4.71696 1.57221 7.86279 -8.94958
103 1 6.28932 3.27545e-16 6.29017 -8.94974
104 1 7.86167 1.57175 7.86275 -8.95002
105 1 9.43445 -1.31781e-14 6.29042 -8.94945
106 1 11.0072 1.57184 7.86278 -8.94969
107 1 12.5795 -1.17767e-14 6.29022 -8.94976
108 1 14.152 1.57213 7.86282 -8.94968
109 1 15.7243 -1.32563e-14 6.29019 -8.94971
110 1 17.2968 1.5721 7.86257 -8.94961
111 1 18.8691 -1.84602e-14 6.29002 -8.94962
112 1 20.4415 1.57212 7.86244 -8.94961
113 1 22.0138 3.14433 6.29 -8.94961
114 1 1.57198 4.71656 7.86259 -8.94958
115 1 3.14454 3.14443 6.29022 -8.9498
116 1 4.71657 4.71673 7.86309 -8.95025
117 1 6.28891 3.14392 6.28999 -8.94934
118 1 7.86039 4.71451 7.86193 -8.94806
119 1 9.43455 3.14441 6.29056 -8.9492
120 1 11.0086 4.71524 7.86202 -8.94661
121 1 12.5799 3.14383 6.29 -8.94966
122 1 14.1528 4.71633 7.86286 -8.95028
123 1 15.7246 3.14412 6.29013 -8.94977
124 1 17.2973 4.71635 7.86255 -8.94961
125 1 18.8693 3.14422 6.28998 -8.94961
126 1 20.4416 4.71646 7.86245 -8.94955
127 1 -0.000190876 6.28886 6.28986 -8.94957
128 1 1.57114 7.86118 7.86243 -8.94949
129 1 3.14378 6.28886 6.29003 -8.9497
130 1 4.71467 7.86103 7.8626 -8.95076
131 1 6.28757 6.28772 6.2892 -8.94744
132 1 7.85571 7.85781 7.85816 -9.00939
133 1 9.43507 6.28933 6.29148 -8.95124
134 1 11.0133 7.86209 7.86003 -9.03344
135 1 12.5815 6.28705 6.28886 -8.95186
136 1 14.1566 7.8599 7.86122 -8.94817
137 1 15.7261 6.2881 6.28939 -8.94919
138 1 17.2991 7.86079 7.86202 -8.9494
139 1 18.8699 6.28862 6.2897 -8.94945
140 1 20.4419 7.86122 7.86232 -8.94967
141 1 22.0137 9.43416 6.28988 -8.94995
142 1 3.14285 9.43408 6.28985 -8.95051
143 1 6.28483 9.43276 6.28696 -8.94691
144 1 9.43108 9.43372 6.29177 -9.03877
145 1 12.5949 9.42389 6.27475 -8.97432
146 1 15.7297 9.43302 6.28743 -8.95203
147 1 18.8709 9.43399 6.28946 -8.95024
148 1 -0.000101449 -2.29945e-15 9.43492 -8.9496
149 1 3.14459 -8.01713e-15 9.43509 -8.94963
150 1 6.28934 -2.90686e-15 9.4354 -8.94948
151 1 9.43448 2.45617e-14 9.43552 -8.95097
152 1 12.5796 6.8264e-15 9.43543 -8.94946
153 1 15.7244 1.22491e-15 9.43518 -8.94965
154 1 18.8691 -3.69657e-15 9.43497 -8.9496
155 1 -0.000176815 3.14427 9.43499 -8.94959
156 1 3.14437 3.14432 9.43521 -8.9496
157 1 6.28918 3.14424 9.43569 -8.94926
158 1 9.4345 3.14197 9.43575 -8.9545
159 1 12.5798 3.14431 9.43559 -8.94932
160 1 15.7247 3.14423 9.43528 -8.94958
161 1 18.8693 3.14423 9.43503 -8.94959
162 1 22.0135 6.28876 9.4351 -8.94949
163 1 3.14363 6.28873 9.43545 -8.94922
191 1 4.71402 7.8615 11.0084 -8.95055
181 1 17.2969 1.5721 11.0076 -8.9496
188 1 17.2973 4.71642 11.0078 -8.94953
190 1 1.5705 7.86112 11.0081 -8.94923
177 1 4.71682 1.57213 11.0078 -8.94956
184 1 4.71612 4.71651 11.0082 -8.9496
189 1 20.4415 4.71642 11.0077 -8.94956
7 1 9.43441 -6.86873e-15 0.000887211 -8.94961
343 1 18.8694 9.4342 18.8706 -8.94957
48 1 15.7251 9.4341 22.0141 -8.94955
178 1 7.86168 1.57181 11.0083 -8.94971
179 1 11.0073 1.57182 11.0083 -8.94972
180 1 14.1521 1.57216 11.0079 -8.9496
342 1 15.725 9.43415 18.8707 -8.9496
182 1 20.4415 1.5721 11.0075 -8.9496
183 1 1.57171 4.71644 11.0078 -8.94957
45 1 6.28919 9.43428 22.0153 -8.94997
185 1 7.8604 4.71515 11.01 -8.94669
186 1 11.0085 4.71518 11.0098 -8.94703
187 1 14.1528 4.71656 11.0081 -8.94987
341 1 12.58 9.43403 18.8715 -8.95022
43 1 22.0138 9.43428 22.0148 -8.94959
340 1 9.43413 9.43399 18.872 -8.94969
339 1 6.28865 9.43409 18.8722 -8.95029
338 1 3.14372 9.43412 18.8715 -8.94955
337 1 22.0134 9.4342 18.8708 -8.94957
194 1 14.1552 7.86119 11.0081 -8.94995
195 1 17.2985 7.86114 11.0081 -8.94938
196 1 20.4415 7.8612 11.0079 -8.94956
197 1 -0.000134072 2.41726e-14 12.58 -8.94961
198 1 1.57212 1.57204 14.1526 -8.94964
199 1 3.14451 -1.08476e-16 12.5801 -8.94963
200 1 4.71677 1.5719 14.153 -8.94972
201 1 6.28927 -1.45488e-14 12.5805 -8.94977
202 1 7.86199 1.57218 14.153 -8.94964
203 1 9.43451 4.87995e-15 12.5806 -8.94942
204 1 11.007 1.57223 14.153 -8.94956
205 1 12.5797 5.15042e-16 12.5806 -8.94973
206 1 14.1522 1.57199 14.1531 -8.94964
207 1 15.7245 -1.35798e-14 12.5802 -8.94966
208 1 17.2969 1.57207 14.1527 -8.94966
209 1 18.8692 1.41459e-14 12.58 -8.94961
210 1 20.4415 1.57206 14.1526 -8.94961
211 1 22.0136 3.14419 12.5801 -8.94959
212 1 1.57158 4.7162 14.1531 -8.94978
213 1 3.14418 3.14416 12.5803 -8.94964
214 1 4.7158 4.71547 14.154 -8.94997
215 1 6.28878 3.14372 12.5811 -8.94969
216 1 7.86171 4.71651 14.1539 -8.95024
217 1 9.43449 3.1444 12.5808 -8.94924
218 1 11.007 4.7168 14.1537 -8.94985
219 1 12.5801 3.14385 12.5811 -8.94962
220 1 14.1528 4.71587 14.1538 -8.94973
221 1 15.7247 3.14422 12.5804 -8.94971
222 1 17.2972 4.7163 14.1531 -8.94973
223 1 18.8692 3.1442 12.5802 -8.94959
224 1 20.4414 4.71634 14.1529 -8.94958
225 1 -0.000747548 6.28866 12.5805 -8.94951
226 1 1.56964 7.8605 14.1545 -8.94979
227 1 3.143 6.28849 12.581 -8.95009
228 1 4.71097 7.85745 14.1585 -8.94332
229 1 6.28686 6.28682 12.583 -8.95177
230 1 7.85977 7.86027 14.1575 -8.9486
231 1 9.43424 6.28933 12.5814 -8.95061
232 1 11.0068 7.86162 14.1558 -8.95029
233 1 12.5813 6.28727 12.5824 -8.95137
234 1 14.1557 7.85883 14.1567 -8.94501
235 1 15.7257 6.28857 12.581 -8.94992
236 1 17.2985 7.8608 14.1541 -8.94965
237 1 18.8696 6.28868 12.5806 -8.94954
238 1 20.4412 7.86112 14.1536 -8.94992
239 1 22.012 9.43384 12.5811 -8.95049
240 1 3.13813 9.43262 12.5834 -8.95151
241 1 6.27186 9.42363 12.5967 -8.97374
242 1 9.429 9.43351 12.5875 -9.03288
243 1 12.5898 9.42517 12.5907 -9.00778
244 1 15.729 9.43291 12.5827 -8.9499
245 1 18.8703 9.43388 12.581 -8.9502
246 1 -9.34586e-05 -5.58191e-15 15.7251 -8.94962
247 1 1.57224 1.572 17.2977 -8.94956
248 1 3.14457 -1.68829e-15 15.7253 -8.94965
249 1 4.71717 1.57208 17.2978 -8.94967
250 1 6.2896 -9.16263e-15 15.7253 -8.94969
251 1 7.86208 1.57221 17.2977 -8.94961
252 1 9.43451 5.88498e-16 15.7253 -8.94963
253 1 11.0069 1.57224 17.2977 -8.9496
254 1 12.5794 -1.6972e-14 15.7253 -8.94964
255 1 14.1518 1.57215 17.2977 -8.94966
256 1 15.7244 -1.01907e-14 15.7253 -8.9496
257 1 17.2968 1.57204 17.2977 -8.94957
258 1 18.8692 -6.68991e-15 15.7251 -8.94963
259 1 20.4415 1.57204 17.2976 -8.9496
260 1 -0.000250189 3.1441 15.7253 -8.94966
261 1 1.57168 4.7161 17.2984 -8.94909
262 1 3.14421 3.14385 15.7257 -8.94962
263 1 4.71663 4.71626 17.2985 -8.94959
264 1 6.28939 3.1442 15.7257 -8.94976
265 1 7.86187 4.71662 17.2983 -8.94961
266 1 9.43449 3.14444 15.7256 -8.94958
267 1 11.007 4.71675 17.2982 -8.94953
268 1 12.5795 3.14439 15.7256 -8.94971
269 1 14.1521 4.7165 17.2982 -8.94977
270 1 15.7247 3.14404 15.7256 -8.94957
271 1 17.2971 4.71625 17.2982 -8.94927
272 1 18.8692 3.14413 15.7253 -8.94964
273 1 20.4414 4.7163 17.2981 -8.94947
274 1 22.013 6.28845 15.7261 -8.94954
275 1 1.57118 7.86121 17.2989 -8.94956
276 1 3.14253 6.28754 15.7273 -8.94786
277 1 4.71535 7.86074 17.3003 -8.94989
278 1 6.28831 6.28826 15.7273 -8.94933
279 1 7.86111 7.86108 17.3001 -8.94938
280 1 9.43431 6.28887 15.7267 -8.94912
281 1 11.0071 7.86146 17.2994 -8.94936
282 1 12.5799 6.28884 15.7265 -8.95004
283 1 14.1531 7.86095 17.2995 -8.94965
284 1 15.7257 6.28812 15.7267 -8.9484
285 1 17.2974 7.86136 17.2985 -8.94973
286 1 18.8695 6.28856 15.726 -8.94956
287 1 20.4413 7.8614 17.2984 -8.94958
288 1 22.0127 9.434 15.7264 -8.94954
289 1 3.14184 9.4336 15.7279 -8.9493
290 1 6.28587 9.43303 15.7311 -8.95207
291 1 9.43287 9.43325 15.73 -8.94758
292 1 12.5817 9.43298 15.7299 -8.9499
293 1 15.7259 9.434 15.7269 -8.94994
294 1 18.8695 9.43408 15.7262 -8.9496
295 1 22.0139 -1.18666e-14 18.87 -8.94952
296 1 1.57249 1.57212 20.4424 -8.94957
297 1 3.14488 1.62673e-14 18.87 -8.94963
298 1 4.71735 1.5722 20.4424 -8.94962
299 1 6.28973 1.70131e-14 18.87 -8.94962
300 1 7.8621 1.57226 20.4425 -8.94961
301 1 9.43448 1.79703e-14 18.87 -8.9496
302 1 11.0068 1.57226 20.4424 -8.94961
303 1 12.5792 1.60651e-14 18.87 -8.94961
304 1 14.1516 1.57218 20.4424 -8.94961
305 1 15.7241 1.87769e-14 18.87 -8.94964
306 1 17.2966 1.57209 20.4423 -8.94961
307 1 18.8691 2.74958e-14 18.87 -8.94956
308 1 20.4415 1.57208 20.4423 -8.94943
309 1 -0.000111554 3.14416 18.8702 -8.9494
310 1 1.57221 4.71655 20.4427 -8.94953
311 1 3.14468 3.14422 18.8703 -8.9496
312 1 4.71704 4.71666 20.4428 -8.94955
313 1 6.28961 3.1444 18.8703 -8.94962
314 1 7.86197 4.7168 20.4428 -8.94956
315 1 9.43447 3.14451 18.8702 -8.9496
316 1 11.0069 4.7168 20.4427 -8.94956
317 1 12.5793 3.14445 18.8702 -8.9496
318 1 14.1519 4.71663 20.4425 -8.9496
319 1 15.7243 3.14426 18.8702 -8.94966
320 1 17.297 4.71641 20.4424 -8.94948
321 1 18.8692 3.14416 18.8701 -8.94943
322 1 20.4416 4.71655 20.4425 -8.94956
323 1 22.0136 6.28889 18.8706 -8.94958
324 1 1.57199 7.86158 20.4429 -8.94958
325 1 3.14403 6.28871 18.8711 -8.94957
326 1 4.71663 7.86155 20.4434 -8.94986
327 1 6.28911 6.28887 18.8711 -8.94947
328 1 7.86166 7.8615 20.4433 -8.94964
329 1 9.43439 6.28906 18.8709 -8.94949
330 1 11.007 7.86152 20.4429 -8.94951
331 1 12.5796 6.28902 18.8707 -8.94954
332 1 14.1524 7.86135 20.4425 -8.94993
333 1 15.7249 6.28872 18.8706 -8.94957
334 1 17.2972 7.86149 20.4425 -8.94959
335 1 18.8693 6.28889 18.8704 -8.94961
336 1 20.4416 7.86159 20.4426 -8.94958
3 1 3.14499 -3.62826e-15 22.0146 -8.94962
41 1 18.8695 6.28894 22.0145 -8.94958
11 1 15.724 -2.72268e-14 22.0146 -8.94963
19 1 6.28968 3.14455 22.0149 -8.94961
25 1 15.7242 3.14428 22.0146 -8.94967
31 1 3.14452 6.28909 22.015 -8.94967
35 1 9.43433 6.28916 22.015 -8.94948
37 1 12.5794 6.28904 22.0147 -8.94951
15 1 22.014 3.1443 22.0146 -8.94949
46 1 9.4342 9.43404 22.0148 -8.94956
176 1 1.57214 1.57211 11.0075 -8.9496
344 1 1.57212 11.007 1.57314 -8.94962
345 1 4.71661 11.007 1.57323 -8.94957
346 1 7.86183 11.007 1.57301 -8.95011
347 1 11.0071 11.007 1.57049 -8.95319
348 1 14.1532 11.007 1.5711 -8.94954
349 1 17.2977 11.007 1.57228 -8.94953
350 1 20.4418 11.007 1.57281 -8.94957
688 2 10.323 11.007 9.365 0.548893
352 1 1.57218 14.1522 1.57309 -8.94963
353 1 3.14435 12.5796 0.0012507 -8.94962
354 1 4.71668 14.1523 1.57318 -8.9498
511 1 18.8693 18.8697 9.43503 -8.94959
356 1 7.86159 14.1524 1.57314 -8.94946
538 1 17.2969 20.4418 11.0076 -8.9496
358 1 11.0069 14.1524 1.57265 -8.94921
359 1 12.5799 12.5799 -5.99564e-05 -8.95047
360 1 14.1531 14.1531 1.57136 -8.94982
510 1 15.7247 18.8697 9.43528 -8.94958
362 1 17.2976 14.1526 1.57232 -8.94956
363 1 18.8696 12.5797 0.000614379 -8.94957
364 1 20.4418 14.1523 1.5728 -8.94958
365 1 -1.5227e-05 15.7248 0.000831653 -8.94959
366 1 1.57233 17.2972 1.57299 -8.94952
509 1 12.5798 18.8696 9.43559 -8.94932
368 1 4.71707 17.2971 1.57318 -8.94963
369 1 6.28935 15.7248 0.00118333 -8.94957
370 1 7.86196 17.297 1.57341 -8.94958
508 1 9.4345 18.8719 9.43575 -8.9545
372 1 11.0068 17.2971 1.57324 -8.94957
507 1 6.28918 18.8697 9.43569 -8.94926
374 1 14.1519 17.2974 1.57285 -8.9498
375 1 15.7249 15.7252 0.000303291 -8.94956
376 1 17.2972 17.2977 1.57252 -8.94911
506 1 3.14437 18.8696 9.43521 -8.9496
378 1 20.4417 17.2974 1.5728 -8.94953
531 1 17.2973 17.2975 11.0078 -8.94953
380 1 1.57248 20.4417 1.57296 -8.94952
381 1 3.14485 18.8695 0.000833217 -8.94959
382 1 4.71734 20.4416 1.57313 -8.94967
505 1 -0.000176815 18.8696 9.43499 -8.94959
384 1 7.86206 20.4416 1.57328 -8.9496
385 1 9.4344 18.8693 0.000990312 -8.94959
386 1 11.0067 20.4416 1.57324 -8.9496
387 1 12.5792 18.8694 0.000857483 -8.9496
388 1 14.1516 20.4417 1.57305 -8.94964
504 1 18.8697 15.7252 9.43513 -8.94949
390 1 17.2967 20.4419 1.57286 -8.94957
391 1 18.8692 18.8697 0.000599284 -8.9494
392 1 20.4416 20.4418 1.57292 -8.94955
393 1 1.57168 11.007 4.7175 -8.94956
394 1 4.71551 11.007 4.71717 -8.94815
395 1 7.86159 11.007 4.71569 -8.95378
396 1 11.0088 11.007 4.70431 -8.97403
397 1 14.1566 11.007 4.71273 -8.94724
398 1 17.2992 11.007 4.71625 -8.94933
399 1 20.4421 11.007 4.71722 -8.94974
400 1 1.22765e-05 12.5797 3.14512 -8.94961
401 1 1.5718 14.1524 4.71745 -8.94977
402 1 3.14411 12.5797 3.14529 -8.94959
403 1 4.71558 14.1529 4.71701 -8.94851
404 1 6.28868 12.5797 3.14487 -8.95056
405 1 7.86126 14.1525 4.71717 -8.95096
406 1 9.43375 12.5805 3.14416 -8.94634
407 1 11.0068 14.152 4.71675 -8.95064
408 1 12.5819 12.5811 3.14061 -8.95153
409 1 14.157 14.1562 4.7129 -8.94357
410 1 15.7264 12.5802 3.14345 -8.94936
411 1 17.299 14.1532 4.7164 -8.9499
412 1 18.8701 12.5798 3.14465 -8.94953
413 1 20.4421 14.1525 4.71725 -8.94983
414 1 22.0139 15.7249 3.1451 -8.94965
415 1 1.57214 17.2973 4.71757 -8.94959
416 1 3.14428 15.7249 3.1452 -8.94934
417 1 4.71654 17.2975 4.71755 -8.94905
418 1 6.28917 15.7248 3.14539 -8.94978
419 1 7.86204 17.2969 4.71819 -8.95025
420 1 9.43436 15.7248 3.1457 -8.94924
421 1 11.007 17.2971 4.71787 -8.94962
422 1 12.5796 15.725 3.14491 -8.95012
423 1 14.1527 17.2982 4.71712 -8.95
424 1 15.726 15.7262 3.14378 -8.94793
425 1 17.2973 17.2977 4.71731 -8.94954
426 1 18.8699 15.7252 3.14474 -8.94957
427 1 20.4417 17.2974 4.71743 -8.94953
428 1 3.59186e-05 18.8696 3.14521 -8.94957
429 1 1.57237 20.4417 4.71766 -8.94967
430 1 3.14468 18.8695 3.14529 -8.94944
431 1 4.71698 20.4418 4.71766 -8.94951
432 1 6.28962 18.8693 3.1456 -8.9498
433 1 7.86201 20.4416 4.71803 -8.94955
434 1 9.43439 18.8693 3.14571 -8.9496
435 1 11.0068 20.4416 4.71798 -8.94954
436 1 12.5792 18.8695 3.14543 -8.94965
437 1 14.1519 20.4419 4.71765 -8.94971
438 1 15.7245 18.8699 3.14505 -8.94963
439 1 17.2967 20.4418 4.71762 -8.94967
440 1 18.8693 18.8697 3.14513 -8.94958
441 1 20.4415 20.4418 4.71758 -8.94961
442 1 1.57077 11.007 7.86276 -8.95013
443 1 4.71284 11.007 7.86319 -8.95364
444 1 7.84718 11.007 7.85009 -9.0141
445 1 11.0456 11.007 7.77732 -9.26564
446 1 14.1625 11.007 7.85788 -9.00894
447 1 17.3004 11.007 7.8619 -8.95092
448 1 20.4421 11.007 7.8624 -8.94994
449 1 22.0137 12.5797 6.28988 -8.94995
450 1 1.57114 14.1527 7.86243 -8.94949
451 1 3.14285 12.5798 6.28985 -8.95051
452 1 4.71467 14.1529 7.8626 -8.95076
453 1 6.28483 12.5811 6.28696 -8.94691
454 1 7.85571 14.1561 7.85816 -9.00939
455 1 9.43108 12.5802 6.29177 -9.03877
456 1 11.0133 14.1518 7.86003 -9.03344
457 1 12.5949 12.59 6.27475 -8.97432
458 1 14.1566 14.154 7.86122 -8.94817
459 1 15.7297 12.5809 6.28743 -8.95203
460 1 17.2991 14.1531 7.86202 -8.9494
461 1 18.8709 12.5799 6.28946 -8.95024
462 1 20.4419 14.1527 7.86232 -8.94967
463 1 -0.000190876 15.725 6.28986 -8.94957
464 1 1.57198 17.2973 7.86259 -8.94958
465 1 3.14378 15.725 6.29003 -8.9497
466 1 4.71657 17.2972 7.86309 -8.95025
467 1 6.28757 15.7262 6.2892 -8.94744
468 1 7.86039 17.2994 7.86193 -8.94806
469 1 9.43507 15.7246 6.29148 -8.95124
470 1 11.0086 17.2987 7.86202 -8.94661
471 1 12.5815 15.7268 6.28886 -8.95186
472 1 14.1528 17.2976 7.86286 -8.95028
473 1 15.7261 15.7258 6.28939 -8.94919
474 1 17.2973 17.2976 7.86255 -8.94961
475 1 18.8699 15.7253 6.2897 -8.94945
476 1 20.4416 17.2974 7.86245 -8.94955
477 1 22.0138 18.8696 6.29 -8.94961
478 1 1.57225 20.4417 7.86252 -8.94961
479 1 3.14454 18.8695 6.29022 -8.9498
480 1 4.71696 20.4417 7.86279 -8.94958
481 1 6.28891 18.87 6.28999 -8.94934
482 1 7.86167 20.4421 7.86275 -8.95002
483 1 9.43455 18.8695 6.29056 -8.9492
484 1 11.0072 20.4421 7.86278 -8.94969
485 1 12.5799 18.8701 6.29 -8.94966
486 1 14.152 20.4418 7.86282 -8.94968
487 1 15.7246 18.8698 6.29013 -8.94977
488 1 17.2968 20.4418 7.86257 -8.94961
489 1 18.8693 18.8697 6.28998 -8.94961
490 1 20.4415 20.4418 7.86244 -8.94961
491 1 -0.0010253 12.58 9.43511 -8.94963
492 1 3.14137 12.5807 9.43502 -8.94654
493 1 6.28795 12.5807 9.43281 -9.03872
494 1 9.4157 12.6555 9.41868 -9.37257
495 1 12.5874 12.5815 9.43075 -9.03132
496 1 15.7294 12.5809 9.43409 -8.94785
497 1 18.8708 12.5801 9.435 -8.94981
498 1 22.0135 15.7251 9.4351 -8.94949
499 1 3.14363 15.7252 9.43545 -8.94922
500 1 6.28919 15.7249 9.43663 -8.95123
501 1 9.43435 15.7399 9.4362 -8.97201
502 1 12.5802 15.7249 9.43575 -8.95089
503 1 15.7258 15.7254 9.43535 -8.94906
512 1 1.56806 11.007 11.0083 -8.95326
687 2 9.36393 11.007 10.3348 0.546674
513 1 4.70099 11.007 11.0105 -8.9742
516 1 14.1677 11.007 11.0086 -9.01555
519 1 1.5705 14.1528 11.0081 -8.94923
520 1 4.71402 14.1524 11.0084 -8.95055
521 1 7.85715 14.1521 11.0152 -9.03378
522 1 11.0113 14.1527 11.0127 -9.05735
527 1 4.71612 17.2974 11.0082 -8.9496
532 1 20.4415 17.2975 11.0077 -8.94956
534 1 4.71682 20.4418 11.0078 -8.94956
686 1 20.4415 20.4418 20.4423 -8.94943
685 1 18.8692 18.8697 18.8701 -8.94943
514 1 7.77223 11.007 11.0467 -9.26296
515 1 11.0787 11.007 11.078 -9.32628
684 1 17.2966 20.4418 20.4423 -8.94961
517 1 17.3009 11.007 11.0081 -8.95319
518 1 20.4415 11.007 11.008 -8.95076
683 1 15.7243 18.8696 18.8702 -8.94966
682 1 14.1516 20.4417 20.4424 -8.94961
681 1 12.5793 18.8695 18.8702 -8.9496
680 1 11.0068 20.4416 20.4424 -8.94961
523 1 14.1552 14.1527 11.0081 -8.94995
524 1 17.2985 14.1528 11.0081 -8.94938
525 1 20.4415 14.1527 11.0079 -8.94956
526 1 1.57171 17.2975 11.0078 -8.94957
389 1 15.7242 18.8696 22.0146 -8.94967
528 1 7.8604 17.2987 11.01 -8.94669
529 1 11.0085 17.2987 11.0098 -8.94703
530 1 14.1528 17.2973 11.0081 -8.94987
679 1 9.43447 18.8694 18.8702 -8.9496
383 1 6.28968 18.8694 22.0149 -8.94961
678 1 7.8621 20.4416 20.4425 -8.94961
377 1 18.8695 15.725 22.0145 -8.94958
535 1 7.86168 20.4421 11.0083 -8.94971
536 1 11.0073 20.4421 11.0083 -8.94972
537 1 14.1521 20.4417 11.0079 -8.9496
677 1 6.28961 18.8695 18.8703 -8.94962
539 1 20.4415 20.4418 11.0075 -8.9496
540 1 1.56918 11.007 14.1546 -8.94954
541 1 4.71042 11.007 14.1582 -8.94717
542 1 7.8558 11.007 14.1636 -9.00901
543 1 11.0076 11.007 14.1683 -9.01557
544 1 14.1548 11.007 14.1556 -8.94953
545 1 17.2984 11.007 14.1541 -8.94919
546 1 20.4411 11.007 14.1537 -8.94976
547 1 22.012 12.5801 12.5811 -8.95049
548 1 1.56964 14.1534 14.1545 -8.94979
549 1 3.13813 12.5813 12.5834 -8.95151
550 1 4.71097 14.1565 14.1585 -8.94332
551 1 6.27186 12.5903 12.5967 -8.97374
552 1 7.85977 14.1536 14.1575 -8.9486
553 1 9.429 12.5804 12.5875 -9.03288
554 1 11.0068 14.1523 14.1558 -8.95029
555 1 12.5898 12.5887 12.5907 -9.00778
556 1 14.1557 14.1551 14.1567 -8.94501
557 1 15.729 12.581 12.5827 -8.9499
558 1 17.2985 14.1531 14.1541 -8.94965
559 1 18.8703 12.58 12.581 -8.9502
560 1 20.4412 14.1528 14.1536 -8.94992
561 1 -0.000747548 15.7252 12.5805 -8.94951
562 1 1.57158 17.2977 14.1531 -8.94978
563 1 3.143 15.7254 12.581 -8.95009
564 1 4.7158 17.2984 14.154 -8.94997
565 1 6.28686 15.7271 12.583 -8.95177
566 1 7.86171 17.2974 14.1539 -8.95024
567 1 9.43424 15.7246 12.5814 -8.95061
568 1 11.007 17.2971 14.1537 -8.94985
569 1 12.5813 15.7266 12.5824 -8.95137
570 1 14.1528 17.298 14.1538 -8.94973
571 1 15.7257 15.7253 12.581 -8.94992
572 1 17.2972 17.2976 14.1531 -8.94973
573 1 18.8696 15.7252 12.5806 -8.94954
574 1 20.4414 17.2976 14.1529 -8.94958
575 1 22.0136 18.8697 12.5801 -8.94959
576 1 1.57212 20.4419 14.1526 -8.94964
577 1 3.14418 18.8697 12.5803 -8.94964
578 1 4.71677 20.442 14.153 -8.94972
579 1 6.28878 18.8702 12.5811 -8.94969
580 1 7.86199 20.4417 14.153 -8.94964
581 1 9.43449 18.8695 12.5808 -8.94924
582 1 11.007 20.4417 14.153 -8.94956
583 1 12.5801 18.87 12.5811 -8.94962
584 1 14.1522 20.4419 14.1531 -8.94964
585 1 15.7247 18.8697 12.5804 -8.94971
586 1 17.2969 20.4418 14.1527 -8.94966
587 1 18.8692 18.8697 12.5802 -8.94959
588 1 20.4415 20.4418 14.1526 -8.94961
589 1 1.57101 11.007 17.2991 -8.94952
590 1 4.71503 11.007 17.3006 -8.94932
591 1 7.86086 11.007 17.3015 -8.95102
592 1 11.0071 11.007 17.3018 -8.95322
593 1 14.153 11.007 17.2995 -8.94917
594 1 17.2975 11.007 17.2986 -8.94955
595 1 20.4413 11.007 17.2985 -8.94957
596 1 22.0127 12.5799 15.7264 -8.94954
597 1 1.57118 14.1527 17.2989 -8.94956
598 1 3.14184 12.5803 15.7279 -8.9493
599 1 4.71535 14.1532 17.3003 -8.94989
600 1 6.28587 12.5809 15.7311 -8.95207
601 1 7.86111 14.1528 17.3001 -8.94938
602 1 9.43287 12.5807 15.73 -8.94758
603 1 11.0071 14.1524 17.2994 -8.94936
604 1 12.5817 12.5809 15.7299 -8.9499
605 1 14.1531 14.1529 17.2995 -8.94965
606 1 15.7259 12.5799 15.7269 -8.94994
607 1 17.2974 14.1525 17.2985 -8.94973
608 1 18.8695 12.5798 15.7262 -8.9496
609 1 20.4413 14.1525 17.2984 -8.94958
610 1 22.013 15.7255 15.7261 -8.94954
611 1 1.57168 17.2978 17.2984 -8.94909
612 1 3.14253 15.7264 15.7273 -8.94786
613 1 4.71663 17.2976 17.2985 -8.94959
614 1 6.28831 15.7256 15.7273 -8.94933
615 1 7.86187 17.2973 17.2983 -8.94961
616 1 9.43431 15.725 15.7267 -8.94912
617 1 11.007 17.2972 17.2982 -8.94953
618 1 12.5799 15.7251 15.7265 -8.95004
619 1 14.1521 17.2974 17.2982 -8.94977
620 1 15.7257 15.7258 15.7267 -8.9484
621 1 17.2971 17.2976 17.2982 -8.94927
622 1 18.8695 15.7253 15.726 -8.94956
623 1 20.4414 17.2976 17.2981 -8.94947
624 1 -0.000250189 18.8698 15.7253 -8.94966
625 1 1.57224 20.4419 17.2977 -8.94956
626 1 3.14421 18.87 15.7257 -8.94962
627 1 4.71717 20.4418 17.2978 -8.94967
628 1 6.28939 18.8697 15.7257 -8.94976
629 1 7.86208 20.4417 17.2977 -8.94961
630 1 9.43449 18.8695 15.7256 -8.94958
631 1 11.0069 20.4417 17.2977 -8.9496
632 1 12.5795 18.8695 15.7256 -8.94971
633 1 14.1518 20.4418 17.2977 -8.94966
634 1 15.7247 18.8699 15.7256 -8.94957
635 1 17.2968 20.4419 17.2977 -8.94957
636 1 18.8692 18.8698 15.7253 -8.94964
637 1 20.4415 20.4419 17.2976 -8.9496
638 1 1.5719 11.007 20.443 -8.94957
639 1 4.71649 11.007 20.4436 -8.94975
640 1 7.86166 11.007 20.4437 -8.94994
641 1 11.007 11.007 20.443 -8.95072
642 1 14.1525 11.007 20.4425 -8.94976
643 1 17.2973 11.007 20.4425 -8.94958
644 1 20.4416 11.007 20.4427 -8.94958
645 1 22.0134 12.5797 18.8708 -8.94957
646 1 1.57199 14.1523 20.4429 -8.94958
647 1 3.14372 12.5798 18.8715 -8.94955
648 1 4.71663 14.1524 20.4434 -8.94986
649 1 6.28865 12.5798 18.8722 -8.95029
650 1 7.86166 14.1524 20.4433 -8.94964
651 1 9.43413 12.5799 18.872 -8.94969
652 1 11.007 14.1524 20.4429 -8.94951
653 1 12.58 12.5799 18.8715 -8.95022
654 1 14.1524 14.1526 20.4425 -8.94993
655 1 15.725 12.5797 18.8707 -8.9496
656 1 17.2972 14.1524 20.4425 -8.94959
657 1 18.8694 12.5797 18.8706 -8.94957
658 1 20.4416 14.1523 20.4426 -8.94958
659 1 22.0136 15.725 18.8706 -8.94958
660 1 1.57221 17.2974 20.4427 -8.94953
661 1 3.14403 15.7252 18.8711 -8.94957
662 1 4.71704 17.2972 20.4428 -8.94955
663 1 6.28911 15.725 18.8711 -8.94947
664 1 7.86197 17.2971 20.4428 -8.94956
665 1 9.43439 15.7248 18.8709 -8.94949
666 1 11.0069 17.2971 20.4427 -8.94956
667 1 12.5796 15.7249 18.8707 -8.94954
668 1 14.1519 17.2973 20.4425 -8.9496
669 1 15.7249 15.7252 18.8706 -8.94957
670 1 17.297 17.2975 20.4424 -8.94948
671 1 18.8693 15.725 18.8704 -8.94961
672 1 20.4416 17.2974 20.4425 -8.94956
673 1 -0.000111554 18.8697 18.8702 -8.9494
674 1 1.57249 20.4418 20.4424 -8.94957
675 1 3.14468 18.8697 18.8703 -8.9496
676 1 4.71735 20.4417 20.4424 -8.94962
351 1 22.0138 12.5796 22.0148 -8.94959
355 1 6.28919 12.5796 22.0153 -8.94997
361 1 15.7251 12.5798 22.0141 -8.94955
367 1 3.14452 15.7248 22.015 -8.94967
371 1 9.43433 15.7247 22.015 -8.94948
373 1 12.5794 15.7249 22.0147 -8.94951
357 1 9.4342 12.5799 22.0148 -8.94956
379 1 22.014 18.8696 22.0146 -8.94949
533 1 1.57214 20.4418 11.0075 -8.9496
