ITEM: TIMESTEP
56
ITEM: NUMBER OF ATOMS
688
ITEM: BOX BOUNDS pp pp pp
0.0000000000000000e+00 2.2013900999999997e+01
0.0000000000000000e+00 2.2013900999999997e+01
0.0000000000000000e+00 2.2013900999999997e+01
ITEM: ATOMS id type x y z c_pot
1 1 5.26384e-06 -3.09249e-16 -3.72279e-06 -8.94964
2 1 1.57242 1.57241 1.5724 -8.94963
175 1 18.8699 9.43435 9.4343 -8.95054
4 1 4.71726 1.5724 1.5724 -8.94966
5 1 6.28968 1.27229e-15 -1.04648e-05 -8.94963
6 1 7.8621 1.5724 1.57239 -8.94963
174 1 15.7286 9.43372 9.43391 -8.95534
8 1 11.007 1.57239 1.57238 -8.94963
9 1 12.5794 9.04371e-16 -1.23938e-05 -8.94963
10 1 14.1518 1.5724 1.57239 -8.94964
173 1 12.6001 9.41629 9.42185 -8.99555
12 1 17.2966 1.5724 1.5724 -8.94966
13 1 18.8691 5.38618e-16 -7.39368e-06 -8.94965
14 1 20.4415 1.5724 1.5724 -8.94958
193 1 11.0133 7.86685 11.0091 -9.06602
16 1 1.57236 4.71719 1.57234 -8.94962
17 1 3.14484 3.14482 -2.54525e-05 -8.94963
18 1 4.71723 4.71719 1.57232 -8.94958
172 1 9.40928 9.39181 9.44454 -9.3476
20 1 7.86211 4.71717 1.57236 -8.94965
21 1 9.43453 3.14481 -2.53806e-05 -8.94964
22 1 11.0069 4.71718 1.57235 -8.94962
23 1 12.5794 3.14481 -2.36924e-05 -8.94963
24 1 14.1518 4.71718 1.57237 -8.94969
171 1 6.27322 9.42328 9.42285 -9.02044
26 1 17.2968 4.71713 1.57228 -8.94952
27 1 18.8691 3.1448 -1.02177e-05 -8.94958
28 1 20.4415 4.71724 1.57238 -8.94966
29 1 -1.98352e-05 6.28967 -7.75494e-06 -8.94963
30 1 1.57234 7.86207 1.57232 -8.94962
170 1 3.13984 9.43297 9.43296 -8.95117
32 1 4.71715 7.86202 1.57216 -8.94989
33 1 6.28962 6.28957 -0.000131365 -8.94953
34 1 7.86189 7.86179 1.57204 -8.94936
169 1 -0.00107389 9.4342 9.43419 -8.95029
36 1 11.0069 7.86193 1.5722 -8.94923
168 1 18.8695 6.28928 9.43439 -8.94941
38 1 14.1522 7.86171 1.57184 -8.9497
39 1 15.7244 6.28952 -0.00010229 -8.94967
40 1 17.2967 7.86209 1.57234 -8.94968
167 1 15.7255 6.28837 9.43408 -8.94811
42 1 20.4415 7.8621 1.57238 -8.94963
166 1 12.5797 6.28664 9.43439 -8.95576
44 1 3.14477 9.43451 -3.8718e-05 -8.94966
165 1 9.43405 6.28193 9.43676 -8.96509
192 1 7.85313 7.86159 11.0135 -9.04506
47 1 12.5795 9.43435 -0.000363572 -8.94999
164 1 6.2891 6.28757 9.43438 -8.95379
49 1 18.8691 9.43453 -8.65339e-06 -8.94963
50 1 22.0139 2.57507e-16 3.14482 -8.94963
51 1 1.57237 1.57235 4.71721 -8.94966
52 1 3.14481 -5.62014e-16 3.1448 -8.94958
53 1 4.71718 1.57233 4.71714 -8.94954
54 1 6.28969 -9.04127e-17 3.14481 -8.94964
55 1 7.86211 1.57238 4.71718 -8.94958
56 1 9.43453 9.27206e-18 3.1448 -8.94965
57 1 11.0069 1.57237 4.71717 -8.94959
58 1 12.5794 3.80357e-16 3.1448 -8.94964
59 1 14.1518 1.57234 4.71716 -8.94956
60 1 15.7242 -3.27232e-17 3.1448 -8.94961
61 1 17.2967 1.57233 4.71719 -8.94963
62 1 18.8691 1.63171e-15 3.14481 -8.94961
63 1 20.4415 1.57239 4.71724 -8.94965
64 1 -3.52198e-05 3.14477 3.14477 -8.94951
65 1 1.57216 4.71696 4.71697 -8.94921
66 1 3.14481 3.14478 3.14477 -8.94963
67 1 4.71719 4.71704 4.71704 -8.9496
68 1 6.2897 3.14479 3.14477 -8.94975
69 1 7.86226 4.71721 4.71721 -8.95014
70 1 9.43453 3.14475 3.14476 -8.94962
71 1 11.0068 4.7172 4.71716 -8.94978
72 1 12.5793 3.14477 3.14477 -8.94967
73 1 14.1517 4.71703 4.71718 -8.95015
74 1 15.7242 3.14475 3.14478 -8.94976
75 1 17.297 4.7169 4.71691 -8.94904
76 1 18.8691 3.14476 3.14476 -8.94949
77 1 20.4415 4.71711 4.71711 -8.94954
78 1 22.0138 6.28963 3.14474 -8.94965
79 1 1.57212 7.86194 4.7169 -8.94961
80 1 3.14463 6.28946 3.14449 -8.94969
81 1 4.71668 7.86157 4.71614 -8.95018
82 1 6.2896 6.28948 3.14454 -8.94949
83 1 7.86191 7.86169 4.71684 -8.94937
84 1 9.43452 6.28948 3.14483 -8.94936
85 1 11.0063 7.86232 4.71749 -8.9489
86 1 12.5792 6.28953 3.14479 -8.94975
87 1 14.1529 7.86085 4.71554 -8.94957
88 1 15.7246 6.28924 3.14426 -8.9494
89 1 17.297 7.862 4.717 -8.94994
90 1 18.8692 6.28963 3.14473 -8.94972
91 1 20.4415 7.86205 4.71711 -8.9496
92 1 -7.51411e-05 9.43451 3.14472 -8.94962
93 1 3.14459 9.43445 3.14445 -8.94957
94 1 6.28952 9.43449 3.14422 -8.95048
95 1 9.43382 9.43385 3.14384 -8.94783
96 1 12.5801 9.43365 3.14305 -8.94916
97 1 15.7245 9.43452 3.14458 -8.94972
98 1 18.8691 9.43452 3.14473 -8.94962
99 1 -1.47022e-05 9.64663e-16 6.28968 -8.94963
100 1 1.57236 1.57235 7.86209 -8.94962
101 1 3.14479 -4.75766e-16 6.28965 -8.94971
102 1 4.71718 1.57225 7.86205 -8.94979
103 1 6.28958 -4.95839e-16 6.28954 -8.94963
104 1 7.86198 1.57209 7.86191 -8.94971
105 1 9.43453 6.02156e-16 6.28957 -8.94949
106 1 11.0071 1.57213 7.86189 -8.94949
107 1 12.5795 1.87729e-16 6.28954 -8.94956
108 1 14.1519 1.57218 7.86204 -8.94992
109 1 15.7243 7.5619e-16 6.28963 -8.94976
110 1 17.2967 1.57231 7.86207 -8.94959
111 1 18.8691 1.49748e-15 6.28967 -8.94962
112 1 20.4415 1.57238 7.8621 -8.94964
113 1 22.0139 3.14475 6.28964 -8.94964
114 1 1.57219 4.71693 7.86197 -8.94958
115 1 3.14467 3.14455 6.28953 -8.94979
116 1 4.71687 4.71634 7.86175 -8.95057
117 1 6.28948 3.14445 6.28936 -8.94933
118 1 7.86158 4.71609 7.86147 -8.94811
119 1 9.43456 3.14467 6.28956 -8.94919
120 1 11.0072 4.71655 7.8616 -8.94675
121 1 12.5795 3.14454 6.28945 -8.9493
122 1 14.1523 4.71595 7.86168 -8.95084
123 1 15.7244 3.14442 6.28947 -8.94977
124 1 17.297 4.71685 7.86192 -8.94951
125 1 18.8691 3.14473 6.28963 -8.94963
126 1 20.4415 4.71709 7.86203 -8.94954
127 1 -0.000296652 6.28936 6.28937 -8.94961
128 1 1.57105 7.86128 7.86129 -8.94981
129 1 3.14374 6.28853 6.28853 -8.94807
130 1 4.71297 7.85823 7.85826 -8.94424
131 1 6.28953 6.2892 6.2892 -8.94928
132 1 7.86052 7.86237 7.86228 -8.98639
133 1 9.43471 6.29016 6.29086 -8.95093
134 1 11.0052 7.86586 7.86606 -9.00761
135 1 12.5787 6.28953 6.29003 -8.95189
136 1 14.157 7.85677 7.85765 -8.94081
137 1 15.7255 6.28824 6.2883 -8.94721
138 1 17.2981 7.86133 7.86143 -8.95046
139 1 18.8694 6.28934 6.28936 -8.94965
140 1 20.4415 7.86182 7.86183 -8.94993
141 1 22.0136 9.43442 6.28935 -8.94953
142 1 3.14373 9.43416 6.28864 -8.94931
143 1 6.28806 9.43404 6.28709 -8.95321
144 1 9.43244 9.43481 6.29066 -8.99993
145 1 12.5815 9.43104 6.28625 -8.98504
146 1 15.725 9.43446 6.28924 -8.95033
147 1 18.8694 9.43446 6.2894 -8.94945
148 1 -1.83827e-05 1.01709e-15 9.43453 -8.94963
149 1 3.14478 8.06601e-16 9.43452 -8.94967
150 1 6.28963 7.70875e-16 9.43453 -8.94969
151 1 9.43454 1.30738e-15 9.43449 -8.95027
152 1 12.5794 1.48976e-15 9.43453 -8.94976
153 1 15.7243 1.36805e-15 9.43451 -8.9497
154 1 18.8691 1.14016e-15 9.43452 -8.94963
155 1 -4.48709e-05 3.14473 9.43452 -8.94963
156 1 3.14467 3.14452 9.43447 -8.94958
157 1 6.28961 3.14424 9.43453 -8.94986
158 1 9.43454 3.14338 9.43459 -8.95214
159 1 12.5793 3.14416 9.43454 -8.9503
160 1 15.7245 3.14436 9.43445 -8.94948
161 1 18.8692 3.14471 9.43451 -8.94963
162 1 22.0136 6.28934 9.43441 -8.94949
163 1 3.14391 6.28867 9.43415 -8.94888
191 1 4.71254 7.85963 11.007 -8.94897
181 1 17.2967 1.57231 11.007 -8.9496
188 1 17.297 4.71683 11.007 -8.94964
190 1 1.57086 7.86134 11.0069 -8.9496
177 1 4.71716 1.57222 11.007 -8.9497
184 1 4.71666 4.71634 11.007 -8.94976
189 1 20.4415 4.71708 11.007 -8.94957
7 1 9.43453 1.07907e-15 -1.21983e-05 -8.94963
343 1 18.8691 9.43452 18.8692 -8.94963
48 1 15.7243 9.4345 22.0139 -8.94961
178 1 7.86202 1.57204 11.0071 -8.94978
179 1 11.007 1.5721 11.0071 -8.94947
180 1 14.1519 1.57214 11.007 -8.94985
342 1 15.7245 9.43444 18.8695 -8.94946
182 1 20.4415 1.57238 11.007 -8.94963
183 1 1.57216 4.71694 11.0069 -8.94962
45 1 6.28966 9.43451 22.0138 -8.94981
185 1 7.86121 4.71582 11.0081 -8.94798
186 1 11.0075 4.71645 11.0078 -8.94591
187 1 14.1526 4.71582 11.007 -8.94999
341 1 12.5794 9.43439 18.8698 -8.95073
43 1 22.0139 9.43452 22.0139 -8.94963
340 1 9.43438 9.43445 18.8688 -8.94883
339 1 6.28977 9.43453 18.8694 -8.95036
338 1 3.1447 9.43447 18.8694 -8.94957
337 1 22.0139 9.43452 18.8692 -8.94963
194 1 14.1576 7.85771 11.0074 -8.9456
195 1 17.2985 7.86116 11.007 -8.94986
196 1 20.4415 7.86178 11.0069 -8.9499
197 1 -1.73455e-05 -8.42657e-16 12.5794 -8.94963
198 1 1.57237 1.57235 14.1518 -8.94965
199 1 3.14478 1.3815e-15 12.5794 -8.94967
200 1 4.71713 1.57216 14.152 -8.94981
201 1 6.28959 1.64103e-15 12.5795 -8.9499
202 1 7.86218 1.57245 14.1519 -8.94939
203 1 9.43453 2.30176e-15 12.5795 -8.94928
204 1 11.0069 1.57241 14.1519 -8.94946
205 1 12.5794 1.43088e-15 12.5795 -8.94987
206 1 14.1519 1.57213 14.152 -8.94989
207 1 15.7243 6.49126e-16 12.5794 -8.9497
208 1 17.2967 1.57231 14.1518 -8.94961
209 1 18.8691 1.58275e-15 12.5794 -8.94962
210 1 20.4415 1.57239 14.1518 -8.94964
211 1 22.0139 3.14474 12.5794 -8.94963
212 1 1.57215 4.7169 14.152 -8.94967
213 1 3.14465 3.14452 12.5794 -8.94966
214 1 4.71663 4.71593 14.1526 -8.94975
215 1 6.2894 3.14398 12.5798 -8.95017
216 1 7.86267 4.71781 14.1517 -8.94945
217 1 9.43457 3.14501 12.5795 -8.94859
218 1 11.0064 4.71753 14.1519 -8.94912
219 1 12.5795 3.14398 12.5797 -8.95037
220 1 14.1524 4.71569 14.1525 -8.95065
221 1 15.7245 3.14436 12.5795 -8.94957
222 1 17.297 4.71683 14.152 -8.94947
223 1 18.8692 3.14471 12.5794 -8.94963
224 1 20.4415 4.71709 14.1519 -8.94956
225 1 -0.000280575 6.28935 12.5795 -8.94956
226 1 1.57099 7.86122 14.1527 -8.94972
227 1 3.14373 6.28865 12.5798 -8.94953
228 1 4.7129 7.85772 14.1563 -8.94147
229 1 6.28757 6.28626 12.5813 -8.95157
230 1 7.86455 7.86492 14.1498 -8.95517
231 1 9.43502 6.2924 12.5777 -8.94666
232 1 11.0038 7.86451 14.15 -8.95216
233 1 12.5806 6.28586 12.5805 -8.95625
234 1 14.1582 7.85554 14.1584 -8.93771
235 1 15.7256 6.28831 12.58 -8.94836
236 1 17.2982 7.86132 14.1526 -8.95069
237 1 18.8695 6.28929 12.5795 -8.94946
238 1 20.4415 7.86183 14.1521 -8.94995
239 1 22.0128 9.4342 12.5797 -8.95046
240 1 3.13939 9.43287 12.5812 -8.95208
241 1 6.2703 9.42114 12.5939 -8.96304
242 1 9.43549 9.45102 12.5613 -9.13979
243 1 12.6039 9.41208 12.6015 -8.98147
244 1 15.7292 9.43364 12.5803 -8.95627
245 1 18.87 9.43434 12.5796 -8.95061
246 1 -1.46544e-05 -2.08463e-16 15.7242 -8.94964
247 1 1.57236 1.57235 17.2967 -8.94958
248 1 3.14477 5.55075e-16 15.7243 -8.94967
249 1 4.71732 1.57243 17.2966 -8.94965
250 1 6.28973 -9.67614e-17 15.7243 -8.94956
251 1 7.86211 1.57241 17.2967 -8.94961
252 1 9.43452 1.73879e-15 15.7243 -8.9496
253 1 11.0069 1.57241 17.2967 -8.94961
254 1 12.5793 1.11038e-15 15.7243 -8.94957
255 1 14.1517 1.57241 17.2967 -8.94962
256 1 15.7243 1.07429e-15 15.7243 -8.94972
257 1 17.2967 1.57232 17.2967 -8.94962
258 1 18.8691 1.19162e-15 15.7242 -8.94962
259 1 20.4415 1.57239 17.2967 -8.94964
260 1 -4.71266e-05 3.14474 15.7243 -8.94964
261 1 1.57221 4.71697 17.2969 -8.94913
262 1 3.14464 3.14446 15.7245 -8.94955
263 1 4.71747 4.71729 17.2966 -8.9501
264 1 6.28988 3.14491 15.7242 -8.94963
265 1 7.8622 4.71727 17.2966 -8.94957
266 1 9.4345 3.14483 15.7243 -8.94952
267 1 11.0068 4.71725 17.2967 -8.94962
268 1 12.5792 3.14482 15.7243 -8.94952
269 1 14.1516 4.71723 17.2967 -8.95015
270 1 15.7244 3.14437 15.7245 -8.94974
271 1 17.297 4.71683 17.2971 -8.94887
272 1 18.8691 3.14473 15.7243 -8.94963
273 1 20.4415 4.71711 17.2968 -8.94954
274 1 22.0136 6.28935 15.7246 -8.94956
275 1 1.57221 7.86195 17.297 -8.9496
276 1 3.14383 6.28847 15.7255 -8.9476
277 1 4.71698 7.8617 17.2977 -8.95047
278 1 6.2905 6.29012 15.724 -8.95108
279 1 7.86247 7.86222 17.2963 -8.94922
280 1 9.4344 6.28998 15.7239 -8.94885
281 1 11.0063 7.86219 17.2964 -8.94908
282 1 12.5784 6.28992 15.724 -8.95099
283 1 14.1524 7.86132 17.2983 -8.95059
284 1 15.7258 6.28788 15.726 -8.94667
285 1 17.297 7.86193 17.297 -8.94954
286 1 18.8694 6.28934 15.7246 -8.94973
287 1 20.4415 7.86204 17.2968 -8.94954
288 1 22.0136 9.43441 15.7246 -8.94948
289 1 3.14392 9.43412 15.7253 -8.94907
290 1 6.28898 9.4343 15.7265 -8.95448
291 1 9.43415 9.4359 15.7217 -8.94465
292 1 12.5808 9.43338 15.7285 -8.95525
293 1 15.7255 9.43403 15.7255 -8.94858
294 1 18.8695 9.43441 15.7246 -8.94943
295 1 22.0139 7.55633e-16 18.8691 -8.9496
296 1 1.57243 1.57241 20.4415 -8.94967
297 1 3.14486 7.91256e-16 18.8691 -8.94966
298 1 4.71727 1.57242 20.4415 -8.94963
299 1 6.28969 2.16601e-15 18.8691 -8.94962
300 1 7.8621 1.57241 20.4415 -8.94963
301 1 9.43453 2.04534e-15 18.8691 -8.94963
302 1 11.0069 1.57241 20.4415 -8.94963
303 1 12.5794 1.30715e-15 18.8691 -8.94963
304 1 14.1518 1.57241 20.4415 -8.94963
305 1 15.7242 1.27193e-15 18.8691 -8.94965
306 1 17.2966 1.57241 20.4415 -8.94968
307 1 18.8691 1.25548e-15 18.8691 -8.94961
308 1 20.4415 1.5724 20.4415 -8.94956
309 1 -2.30496e-05 3.14478 18.8691 -8.9495
310 1 1.57237 4.7172 20.4415 -8.94963
311 1 3.14488 3.14483 18.8691 -8.94976
312 1 4.71728 4.71724 20.4414 -8.9496
313 1 6.28971 3.14483 18.8691 -8.94961
314 1 7.86211 4.71721 20.4415 -8.94961
315 1 9.43452 3.1448 18.8691 -8.94964
316 1 11.0069 4.71721 20.4415 -8.94962
317 1 12.5793 3.14482 18.8691 -8.94962
318 1 14.1517 4.71723 20.4415 -8.94962
319 1 15.7242 3.14482 18.8691 -8.9498
320 1 17.2967 4.71715 20.4416 -8.94958
321 1 18.8691 3.14475 18.8691 -8.94943
322 1 20.4415 4.71725 20.4415 -8.94966
323 1 22.0139 6.28964 18.8691 -8.94964
324 1 1.57237 7.86208 20.4415 -8.94962
325 1 3.14471 6.28951 18.8694 -8.94973
326 1 4.71723 7.86205 20.4416 -8.9499
327 1 6.28981 6.28967 18.869 -8.94953
328 1 7.86207 7.86198 20.4414 -8.94949
329 1 9.43448 6.2896 18.869 -8.9495
330 1 11.0069 7.862 20.4414 -8.94942
331 1 12.5792 6.28965 18.8691 -8.94948
332 1 14.1519 7.86193 20.4416 -8.94999
333 1 15.7245 6.28937 18.8695 -8.94971
334 1 17.2967 7.86208 20.4416 -8.94959
335 1 18.8691 6.28964 18.8692 -8.94965
336 1 20.4415 7.8621 20.4415 -8.94963
3 1 3.14484 -1.07639e-16 22.0139 -8.94964
41 1 18.8691 6.28968 22.0139 -8.94965
11 1 15.7242 1.72964e-15 22.0139 -8.94963
19 1 6.28969 3.14481 22.0139 -8.94964
25 1 15.7242 3.14482 22.0139 -8.94967
31 1 3.14479 6.28963 22.0139 -8.94973
35 1 9.43451 6.28958 22.0138 -8.94955
37 1 12.5793 6.2896 22.0138 -8.94953
15 1 22.0139 3.14482 22.0139 -8.94961
46 1 9.43436 9.43432 22.0135 -8.94946
176 1 1.57236 1.57235 11.0069 -8.94962
344 1 1.57234 11.007 1.57232 -8.94962
345 1 4.71712 11.007 1.57212 -8.94974
346 1 7.86208 11.007 1.57207 -8.94935
347 1 11.0069 11.007 1.57071 -8.95211
348 1 14.152 11.007 1.57206 -8.94937
349 1 17.2967 11.007 1.57233 -8.94961
350 1 20.4415 11.007 1.57237 -8.94963
688 2 10.206 11.007 9.49881 0.636484
352 1 1.57234 14.1518 1.57232 -8.94962
353 1 3.14477 12.5794 -3.8718e-05 -8.94966
354 1 4.71715 14.1519 1.57216 -8.94989
511 1 18.8692 18.8692 9.43451 -8.94963
356 1 7.86189 14.1521 1.57204 -8.94936
538 1 17.2967 20.4416 11.007 -8.9496
358 1 11.0069 14.152 1.5722 -8.94923
359 1 12.5795 12.5795 -0.000363572 -8.94999
360 1 14.1522 14.1522 1.57184 -8.9497
510 1 15.7245 18.8695 9.43445 -8.94948
362 1 17.2967 14.1518 1.57234 -8.94968
363 1 18.8691 12.5794 -8.65339e-06 -8.94963
364 1 20.4415 14.1518 1.57238 -8.94963
365 1 -1.98352e-05 15.7242 -7.75494e-06 -8.94963
366 1 1.57236 17.2967 1.57234 -8.94962
509 1 12.5793 18.8697 9.43454 -8.9503
368 1 4.71723 17.2967 1.57232 -8.94958
369 1 6.28962 15.7243 -0.000131365 -8.94953
370 1 7.86211 17.2967 1.57236 -8.94965
508 1 9.43454 18.8705 9.43459 -8.95214
372 1 11.0069 17.2967 1.57235 -8.94962
507 1 6.28961 18.8697 9.43453 -8.94986
374 1 14.1518 17.2967 1.57237 -8.94969
375 1 15.7244 15.7244 -0.00010229 -8.94967
376 1 17.2968 17.2968 1.57228 -8.94952
506 1 3.14467 18.8694 9.43447 -8.94958
378 1 20.4415 17.2967 1.57238 -8.94966
531 1 17.297 17.2971 11.007 -8.94964
380 1 1.57242 20.4415 1.5724 -8.94963
381 1 3.14484 18.8691 -2.54525e-05 -8.94963
382 1 4.71726 20.4415 1.5724 -8.94966
505 1 -4.48709e-05 18.8692 9.43452 -8.94963
384 1 7.8621 20.4415 1.57239 -8.94963
385 1 9.43453 18.8691 -2.53806e-05 -8.94964
386 1 11.007 20.4415 1.57238 -8.94963
387 1 12.5794 18.8691 -2.36924e-05 -8.94963
388 1 14.1518 20.4415 1.57239 -8.94964
504 1 18.8695 15.7246 9.43439 -8.94941
390 1 17.2966 20.4415 1.5724 -8.94966
391 1 18.8691 18.8691 -1.02177e-05 -8.94958
392 1 20.4415 20.4415 1.5724 -8.94958
393 1 1.57208 11.007 4.7169 -8.9496
394 1 4.71653 11.007 4.71614 -8.94916
395 1 7.86214 11.007 4.71691 -8.94869
396 1 11.0072 11.007 4.70879 -8.96055
397 1 14.1519 11.007 4.71666 -8.94989
398 1 17.2969 11.007 4.71697 -8.94948
399 1 20.4415 11.007 4.7171 -8.94959
400 1 -7.51411e-05 12.5794 3.14472 -8.94962
401 1 1.57212 14.152 4.7169 -8.94961
402 1 3.14459 12.5794 3.14445 -8.94957
403 1 4.71668 14.1523 4.71614 -8.95018
404 1 6.28952 12.5794 3.14422 -8.95048
405 1 7.86191 14.1522 4.71684 -8.94937
406 1 9.43382 12.58 3.14384 -8.94783
407 1 11.0063 14.1516 4.71749 -8.9489
408 1 12.5801 12.5802 3.14305 -8.94916
409 1 14.1529 14.1531 4.71554 -8.94957
410 1 15.7245 12.5794 3.14458 -8.94972
411 1 17.297 14.1519 4.717 -8.94994
412 1 18.8691 12.5794 3.14473 -8.94962
413 1 20.4415 14.1519 4.71711 -8.9496
414 1 22.0138 15.7243 3.14474 -8.94965
415 1 1.57216 17.2969 4.71697 -8.94921
416 1 3.14463 15.7244 3.14449 -8.94969
417 1 4.71719 17.2969 4.71704 -8.9496
418 1 6.2896 15.7244 3.14454 -8.94949
419 1 7.86226 17.2967 4.71721 -8.95014
420 1 9.43452 15.7244 3.14483 -8.94936
421 1 11.0068 17.2967 4.71716 -8.94978
422 1 12.5792 15.7244 3.14479 -8.94975
423 1 14.1517 17.2969 4.71718 -8.95015
424 1 15.7246 15.7247 3.14426 -8.9494
425 1 17.297 17.297 4.71691 -8.94904
426 1 18.8692 15.7243 3.14473 -8.94972
427 1 20.4415 17.2968 4.71711 -8.94954
428 1 -3.52198e-05 18.8691 3.14477 -8.94951
429 1 1.57237 20.4415 4.71721 -8.94966
430 1 3.14481 18.8691 3.14477 -8.94963
431 1 4.71718 20.4416 4.71714 -8.94954
432 1 6.2897 18.8691 3.14477 -8.94975
433 1 7.86211 20.4415 4.71718 -8.94958
434 1 9.43453 18.8692 3.14476 -8.94962
435 1 11.0069 20.4415 4.71717 -8.94959
436 1 12.5793 18.8691 3.14477 -8.94967
437 1 14.1518 20.4416 4.71716 -8.94956
438 1 15.7242 18.8691 3.14478 -8.94976
439 1 17.2967 20.4416 4.71719 -8.94963
440 1 18.8691 18.8691 3.14476 -8.94949
441 1 20.4415 20.4415 4.71724 -8.94965
442 1 1.57086 11.007 7.86136 -8.94953
443 1 4.71275 11.007 7.85973 -8.94812
444 1 7.85486 11.007 7.86388 -9.05473
445 1 11.0266 11.007 7.82748 -9.26802
446 1 14.1523 11.007 7.86203 -8.99449
447 1 17.2977 11.007 7.86143 -8.9483
448 1 20.4414 11.007 7.86179 -8.94966
449 1 22.0136 12.5795 6.28935 -8.94953
450 1 1.57105 14.1526 7.86129 -8.94981
451 1 3.14373 12.5797 6.28864 -8.94931
452 1 4.71297 14.1557 7.85826 -8.94424
453 1 6.28806 12.5799 6.28709 -8.95321
454 1 7.86052 14.1515 7.86228 -8.98639
455 1 9.43244 12.5791 6.29066 -8.99993
456 1 11.0052 14.148 7.86606 -9.00761
457 1 12.5815 12.5829 6.28625 -8.98504
458 1 14.157 14.1571 7.85765 -8.94081
459 1 15.725 12.5794 6.28924 -8.95033
460 1 17.2981 14.1526 7.86143 -8.95046
461 1 18.8694 12.5794 6.2894 -8.94945
462 1 20.4415 14.1521 7.86183 -8.94993
463 1 -0.000296652 15.7245 6.28937 -8.94961
464 1 1.57219 17.297 7.86197 -8.94958
465 1 3.14374 15.7254 6.28853 -8.94807
466 1 4.71687 17.2976 7.86175 -8.95057
467 1 6.28953 15.7247 6.2892 -8.94928
468 1 7.86158 17.2978 7.86147 -8.94811
469 1 9.43471 15.7237 6.29086 -8.95093
470 1 11.0072 17.2974 7.8616 -8.94675
471 1 12.5787 15.7244 6.29003 -8.95189
472 1 14.1523 17.298 7.86168 -8.95084
473 1 15.7255 15.7257 6.2883 -8.94721
474 1 17.297 17.2971 7.86192 -8.94951
475 1 18.8694 15.7246 6.28936 -8.94965
476 1 20.4415 17.2968 7.86203 -8.94954
477 1 22.0139 18.8692 6.28964 -8.94964
478 1 1.57236 20.4416 7.86209 -8.94962
479 1 3.14467 18.8694 6.28953 -8.94979
480 1 4.71718 20.4417 7.86205 -8.94979
481 1 6.28948 18.8694 6.28936 -8.94933
482 1 7.86198 20.4418 7.86191 -8.94971
483 1 9.43456 18.8692 6.28956 -8.94919
484 1 11.0071 20.4418 7.86189 -8.94949
485 1 12.5795 18.8694 6.28945 -8.9493
486 1 14.1519 20.4417 7.86204 -8.94992
487 1 15.7244 18.8695 6.28947 -8.94977
488 1 17.2967 20.4416 7.86207 -8.94959
489 1 18.8691 18.8692 6.28963 -8.94963
490 1 20.4415 20.4415 7.8621 -8.94964
491 1 -0.00107389 12.5797 9.43419 -8.95029
492 1 3.13984 12.5809 9.43296 -8.95117
493 1 6.27322 12.5906 9.42285 -9.02044
494 1 9.40928 12.6221 9.44454 -9.3476
495 1 12.6001 12.5976 9.42185 -8.99555
496 1 15.7286 12.5802 9.43391 -8.95534
497 1 18.8699 12.5795 9.4343 -8.95054
498 1 22.0136 15.7246 9.43441 -8.94949
499 1 3.14391 15.7252 9.43415 -8.94888
500 1 6.2891 15.7263 9.43438 -8.95379
501 1 9.43405 15.732 9.43676 -8.96509
502 1 12.5797 15.7273 9.43439 -8.95576
503 1 15.7255 15.7255 9.43408 -8.94811
512 1 1.56868 11.007 11.007 -8.95261
687 2 9.45378 11.007 10.8912 0.618685
513 1 4.70156 11.007 11.0074 -8.97878
516 1 14.1524 11.007 11.0073 -9.03429
519 1 1.57086 14.1526 11.0069 -8.9496
520 1 4.71254 14.1543 11.007 -8.94897
521 1 7.85313 14.1523 11.0135 -9.04506
522 1 11.0133 14.147 11.0091 -9.06602
527 1 4.71666 17.2976 11.007 -8.94976
532 1 20.4415 17.2968 11.007 -8.94957
534 1 4.71716 20.4417 11.007 -8.9497
686 1 20.4415 20.4415 20.4415 -8.94956
685 1 18.8691 18.8692 18.8691 -8.94943
514 1 7.72273 11.007 11.0141 -9.18499
515 1 11.1878 11.007 11.0574 -9.30506
684 1 17.2966 20.4415 20.4415 -8.94968
517 1 17.2984 11.007 11.007 -8.94779
518 1 20.4413 11.007 11.0069 -8.95018
683 1 15.7242 18.8691 18.8691 -8.9498
682 1 14.1518 20.4415 20.4415 -8.94963
681 1 12.5793 18.8691 18.8691 -8.94962
680 1 11.0069 20.4415 20.4415 -8.94963
523 1 14.1576 14.1562 11.0074 -8.9456
524 1 17.2985 14.1527 11.007 -8.94986
525 1 20.4415 14.1521 11.0069 -8.9499
526 1 1.57216 17.297 11.0069 -8.94962
389 1 15.7242 18.8691 22.0139 -8.94967
528 1 7.86121 17.2981 11.0081 -8.94798
529 1 11.0075 17.2974 11.0078 -8.94591
530 1 14.1526 17.2981 11.007 -8.94999
679 1 9.43452 18.8691 18.8691 -8.94964
383 1 6.28969 18.8691 22.0139 -8.94964
678 1 7.8621 20.4415 20.4415 -8.94963
377 1 18.8691 15.7242 22.0139 -8.94965
535 1 7.86202 20.4419 11.0071 -8.94978
536 1 11.007 20.4418 11.0071 -8.94947
537 1 14.1519 20.4418 11.007 -8.94985
677 1 6.28971 18.8691 18.8691 -8.94961
539 1 20.4415 20.4415 11.007 -8.94963
540 1 1.57083 11.007 14.1527 -8.94941
541 1 4.71277 11.007 14.1548 -8.94626
542 1 7.8588 11.007 14.1475 -9.01073
543 1 11.0116 11.007 14.1537 -9.02409
544 1 14.1569 11.007 14.1561 -8.94628
545 1 17.2984 11.007 14.1527 -8.94953
546 1 20.4415 11.007 14.1521 -8.94984
547 1 22.0128 12.5797 12.5797 -8.95046
548 1 1.57099 14.1527 14.1527 -8.94972
549 1 3.13939 12.581 12.5812 -8.95208
550 1 4.7129 14.1562 14.1563 -8.94147
551 1 6.2703 12.5928 12.5939 -8.96304
552 1 7.86455 14.149 14.1498 -8.95517
553 1 9.43549 12.5629 12.5613 -9.13979
554 1 11.0038 14.1494 14.15 -8.95216
555 1 12.6039 12.6018 12.6015 -8.98147
556 1 14.1582 14.1584 14.1584 -8.93771
557 1 15.7292 12.5803 12.5803 -8.95627
558 1 17.2982 14.1526 14.1526 -8.95069
559 1 18.87 12.5796 12.5796 -8.95061
560 1 20.4415 14.1521 14.1521 -8.94995
561 1 -0.000280575 15.7246 12.5795 -8.94956
562 1 1.57215 17.297 14.152 -8.94967
563 1 3.14373 15.7252 12.5798 -8.94953
564 1 4.71663 17.298 14.1526 -8.94975
565 1 6.28757 15.7276 12.5813 -8.95157
566 1 7.86267 17.2961 14.1517 -8.94945
567 1 9.43502 15.7215 12.5777 -8.94666
568 1 11.0064 17.2964 14.1519 -8.94912
569 1 12.5806 15.728 12.5805 -8.95625
570 1 14.1524 17.2982 14.1525 -8.95065
571 1 15.7256 15.7256 12.58 -8.94836
572 1 17.297 17.2971 14.152 -8.94947
573 1 18.8695 15.7246 12.5795 -8.94946
574 1 20.4415 17.2968 14.1519 -8.94956
575 1 22.0139 18.8692 12.5794 -8.94963
576 1 1.57237 20.4416 14.1518 -8.94965
577 1 3.14465 18.8694 12.5794 -8.94966
578 1 4.71713 20.4417 14.152 -8.94981
579 1 6.2894 18.8699 12.5798 -8.95017
580 1 7.86218 20.4414 14.1519 -8.94939
581 1 9.43457 18.8689 12.5795 -8.94859
582 1 11.0069 20.4415 14.1519 -8.94946
583 1 12.5795 18.8699 12.5797 -8.95037
584 1 14.1519 20.4418 14.152 -8.94989
585 1 15.7245 18.8695 12.5795 -8.94957
586 1 17.2967 20.4416 14.1518 -8.94961
587 1 18.8692 18.8692 12.5794 -8.94963
588 1 20.4415 20.4415 14.1518 -8.94964
589 1 1.57219 11.007 17.297 -8.94964
590 1 4.71678 11.007 17.2977 -8.94952
591 1 7.86229 11.007 17.2962 -8.94828
592 1 11.0067 11.007 17.2973 -8.95012
593 1 14.1525 11.007 17.2981 -8.94941
594 1 17.297 11.007 17.297 -8.94963
595 1 20.4415 11.007 17.2968 -8.94957
596 1 22.0136 12.5795 15.7246 -8.94948
597 1 1.57221 14.1519 17.297 -8.9496
598 1 3.14392 12.5798 15.7253 -8.94907
599 1 4.71698 14.1522 17.2977 -8.95047
600 1 6.28898 12.5796 15.7265 -8.95448
601 1 7.86247 14.1517 17.2963 -8.94922
602 1 9.43415 12.578 15.7217 -8.94465
603 1 11.0063 14.1517 17.2964 -8.94908
604 1 12.5808 12.5805 15.7285 -8.95525
605 1 14.1524 14.1526 17.2983 -8.95059
606 1 15.7255 12.5799 15.7255 -8.94858
607 1 17.297 14.152 17.297 -8.94954
608 1 18.8695 12.5795 15.7246 -8.94943
609 1 20.4415 14.1519 17.2968 -8.94954
610 1 22.0136 15.7245 15.7246 -8.94956
611 1 1.57221 17.2969 17.2969 -8.94913
612 1 3.14383 15.7254 15.7255 -8.9476
613 1 4.71747 17.2966 17.2966 -8.9501
614 1 6.2905 15.7238 15.724 -8.95108
615 1 7.8622 17.2966 17.2966 -8.94957
616 1 9.4344 15.7239 15.7239 -8.94885
617 1 11.0068 17.2967 17.2967 -8.94962
618 1 12.5784 15.724 15.724 -8.95099
619 1 14.1516 17.2967 17.2967 -8.95015
620 1 15.7258 15.726 15.726 -8.94667
621 1 17.297 17.2971 17.2971 -8.94887
622 1 18.8694 15.7246 15.7246 -8.94973
623 1 20.4415 17.2968 17.2968 -8.94954
624 1 -4.71266e-05 18.8692 15.7243 -8.94964
625 1 1.57236 20.4416 17.2967 -8.94958
626 1 3.14464 18.8694 15.7245 -8.94955
627 1 4.71732 20.4415 17.2966 -8.94965
628 1 6.28988 18.869 15.7242 -8.94963
629 1 7.86211 20.4415 17.2967 -8.94961
630 1 9.4345 18.8691 15.7243 -8.94952
631 1 11.0069 20.4415 17.2967 -8.94961
632 1 12.5792 18.8691 15.7243 -8.94952
633 1 14.1517 20.4415 17.2967 -8.94962
634 1 15.7244 18.8695 15.7245 -8.94974
635 1 17.2967 20.4416 17.2967 -8.94962
636 1 18.8691 18.8692 15.7243 -8.94963
637 1 20.4415 20.4415 17.2967 -8.94964
638 1 1.57237 11.007 20.4415 -8.94962
639 1 4.7172 11.007 20.4416 -8.9498
640 1 7.86215 11.007 20.4414 -8.9494
641 1 11.0068 11.007 20.4414 -8.95012
642 1 14.1519 11.007 20.4417 -8.94974
643 1 17.2967 11.007 20.4416 -8.94961
644 1 20.4415 11.007 20.4415 -8.94963
645 1 22.0139 12.5794 18.8692 -8.94963
646 1 1.57237 14.1518 20.4415 -8.94962
647 1 3.1447 12.5794 18.8694 -8.94957
648 1 4.71723 14.1518 20.4416 -8.9499
649 1 6.28977 12.5794 18.8694 -8.95036
650 1 7.86207 14.1519 20.4414 -8.94949
651 1 9.43438 12.5795 18.8688 -8.94883
652 1 11.0069 14.1519 20.4414 -8.94942
653 1 12.5794 12.5795 18.8698 -8.95073
654 1 14.1519 14.152 20.4416 -8.94999
655 1 15.7245 12.5795 18.8695 -8.94946
656 1 17.2967 14.1518 20.4416 -8.94959
657 1 18.8691 12.5794 18.8692 -8.94963
658 1 20.4415 14.1518 20.4415 -8.94963
659 1 22.0139 15.7243 18.8691 -8.94964
660 1 1.57237 17.2967 20.4415 -8.94963
661 1 3.14471 15.7244 18.8694 -8.94973
662 1 4.71728 17.2967 20.4414 -8.9496
663 1 6.28981 15.7242 18.869 -8.94953
664 1 7.86211 17.2967 20.4415 -8.94961
665 1 9.43448 15.7243 18.869 -8.9495
666 1 11.0069 17.2967 20.4415 -8.94962
667 1 12.5792 15.7243 18.8691 -8.94948
668 1 14.1517 17.2967 20.4415 -8.94962
669 1 15.7245 15.7245 18.8695 -8.94971
670 1 17.2967 17.2967 20.4416 -8.94958
671 1 18.8691 15.7243 18.8692 -8.94965
672 1 20.4415 17.2967 20.4415 -8.94966
673 1 -2.30496e-05 18.8691 18.8691 -8.9495
674 1 1.57243 20.4415 20.4415 -8.94967
675 1 3.14488 18.8691 18.8691 -8.94976
676 1 4.71727 20.4415 20.4415 -8.94963
351 1 22.0139 12.5794 22.0139 -8.94963
355 1 6.28966 12.5794 22.0138 -8.94981
361 1 15.7243 12.5794 22.0139 -8.94961
367 1 3.14479 15.7243 22.0139 -8.94973
371 1 9.43451 15.7243 22.0138 -8.94955
373 1 12.5793 15.7243 22.0138 -8.94953
357 1 9.43436 12.5796 22.0135 -8.94946
379 1 22.0139 18.8691 22.0139 -8.94961
533 1 1.57236 20.4416 11.0069 -8.94962
