ITEM: TIMESTEP
44
ITEM: NUMBER OF ATOMS
688
ITEM: BOX BOUNDS pp pp pp
0.0000000000000000e+00 2.2013900999999997e+01
0.0000000000000000e+00 2.2013900999999997e+01
0.0000000000000000e+00 2.2013900999999997e+01
ITEM: ATOMS id type x y z c_pot
1 1 2.78365e-09 -1.31405e-16 8.64134e-11 -8.94963
2 1 1.57242 1.57242 1.57242 -8.94963
175 1 18.8691 9.43453 9.43452 -8.94979
4 1 4.71726 1.57242 1.57242 -8.94963
5 1 6.28969 1.01457e-15 -6.99368e-10 -8.94963
6 1 7.86211 1.57242 1.57242 -8.94963
174 1 15.7248 9.43439 9.4344 -8.95098
8 1 11.007 1.57242 1.57242 -8.94963
9 1 12.5794 1.54368e-16 -1.88907e-09 -8.94963
10 1 14.1518 1.57242 1.57242 -8.94963
173 1 12.5867 9.42838 9.43177 -9.02222
12 1 17.2966 1.57242 1.57242 -8.94963
13 1 18.8691 6.05171e-16 1.84637e-09 -8.94963
14 1 20.4415 1.57242 1.57242 -8.94963
193 1 11.0073 7.86371 11.0071 -9.06465
16 1 1.57242 4.71726 1.57242 -8.94963
17 1 3.14484 3.14484 1.98222e-08 -8.94963
18 1 4.71726 4.71726 1.57242 -8.94963
172 1 9.41686 9.39526 9.43318 -9.33126
20 1 7.86211 4.71726 1.57242 -8.94964
21 1 9.43453 3.14484 -3.22934e-08 -8.94963
22 1 11.007 4.71726 1.57242 -8.94963
23 1 12.5794 3.14484 -2.87849e-08 -8.94963
24 1 14.1518 4.71726 1.57242 -8.94964
171 1 6.28763 9.43257 9.43157 -9.0372
26 1 17.2966 4.71726 1.57242 -8.94963
27 1 18.8691 3.14484 2.01138e-09 -8.94963
28 1 20.4415 4.71726 1.57242 -8.94963
29 1 1.58229e-08 6.28969 1.69679e-09 -8.94963
30 1 1.57242 7.86211 1.57242 -8.94963
170 1 3.14464 9.4344 9.43441 -8.94941
32 1 4.71726 7.86211 1.57242 -8.94964
33 1 6.28969 6.28969 -1.0307e-07 -8.94963
34 1 7.8621 7.8621 1.57242 -8.9496
169 1 -9.9998e-06 9.43452 9.43453 -8.94966
36 1 11.007 7.86211 1.57243 -8.94961
168 1 18.8691 6.28969 9.43453 -8.94962
38 1 14.1518 7.8621 1.57242 -8.94961
39 1 15.7242 6.28969 -1.96379e-07 -8.94963
40 1 17.2966 7.86211 1.57242 -8.94964
167 1 15.7242 6.28969 9.43453 -8.94964
42 1 20.4415 7.86211 1.57242 -8.94963
166 1 12.5793 6.28938 9.43457 -8.95198
44 1 3.14484 9.43453 1.07801e-07 -8.94963
165 1 9.43458 6.28612 9.43457 -8.96022
192 1 7.86175 7.86282 11.0085 -9.04692
47 1 12.5794 9.43453 -4.54414e-06 -8.94963
164 1 6.28993 6.28982 9.43456 -8.95152
49 1 18.8691 9.43453 -7.68943e-08 -8.94963
50 1 22.0139 4.65211e-16 3.14484 -8.94963
51 1 1.57242 1.57242 4.71726 -8.94963
52 1 3.14484 4.17735e-16 3.14484 -8.94963
53 1 4.71726 1.57242 4.71726 -8.94963
54 1 6.28969 3.19025e-16 3.14484 -8.94963
55 1 7.86211 1.57242 4.71727 -8.94964
56 1 9.43453 1.53823e-16 3.14484 -8.94963
57 1 11.0069 1.57242 4.71727 -8.94964
58 1 12.5794 3.09037e-16 3.14484 -8.94963
59 1 14.1518 1.57242 4.71726 -8.94963
60 1 15.7242 3.4066e-17 3.14484 -8.94963
61 1 17.2966 1.57242 4.71726 -8.94963
62 1 18.8691 1.01859e-15 3.14484 -8.94963
63 1 20.4415 1.57242 4.71726 -8.94963
64 1 4.93822e-08 3.14484 3.14484 -8.94963
65 1 1.57242 4.71726 4.71726 -8.94963
66 1 3.14484 3.14484 3.14484 -8.94964
67 1 4.71727 4.71727 4.71727 -8.94966
68 1 6.28969 3.14484 3.14484 -8.94964
69 1 7.86212 4.71727 4.71727 -8.94975
70 1 9.43453 3.14484 3.14484 -8.94962
71 1 11.0069 4.71727 4.71726 -8.94967
72 1 12.5794 3.14484 3.14484 -8.94963
73 1 14.1518 4.71727 4.71727 -8.94968
74 1 15.7242 3.14484 3.14484 -8.94964
75 1 17.2966 4.71726 4.71726 -8.94961
76 1 18.8691 3.14484 3.14484 -8.94963
77 1 20.4415 4.71726 4.71726 -8.94963
78 1 22.0139 6.28969 3.14484 -8.94963
79 1 1.57242 7.86211 4.71726 -8.94964
80 1 3.14484 6.28968 3.14484 -8.94962
81 1 4.71724 7.86208 4.71723 -8.94956
82 1 6.28969 6.28969 3.14485 -8.94961
83 1 7.86209 7.86209 4.71723 -8.94956
84 1 9.43453 6.28969 3.14486 -8.94962
85 1 11.0069 7.86219 4.7174 -8.94991
86 1 12.5794 6.28969 3.14485 -8.94968
87 1 14.1518 7.86207 4.71721 -8.94939
88 1 15.7242 6.28969 3.14484 -8.94962
89 1 17.2966 7.86212 4.71727 -8.94969
90 1 18.8691 6.28969 3.14484 -8.94964
91 1 20.4415 7.86211 4.71726 -8.94963
92 1 8.89073e-08 9.43453 3.14484 -8.94963
93 1 3.14484 9.43453 3.14484 -8.94964
94 1 6.28968 9.43452 3.14482 -8.94975
95 1 9.43444 9.43444 3.14475 -8.94914
96 1 12.5795 9.43444 3.14477 -8.94918
97 1 15.7242 9.43454 3.14486 -8.9497
98 1 18.8691 9.43453 3.14484 -8.94963
99 1 9.28558e-10 7.53093e-16 6.28969 -8.94963
100 1 1.57242 1.57242 7.86211 -8.94963
101 1 3.14484 -1.14091e-16 6.28969 -8.94963
102 1 4.71727 1.57242 7.86211 -8.94964
103 1 6.28969 -3.18659e-17 6.28969 -8.94963
104 1 7.8621 1.57242 7.8621 -8.94961
105 1 9.43453 -8.2853e-18 6.28969 -8.94962
106 1 11.007 1.57242 7.8621 -8.94961
107 1 12.5794 5.74282e-16 6.28969 -8.94963
108 1 14.1518 1.57242 7.86211 -8.94965
109 1 15.7242 7.50031e-16 6.28969 -8.94963
110 1 17.2966 1.57242 7.86211 -8.94963
111 1 18.8691 1.31844e-15 6.28969 -8.94963
112 1 20.4415 1.57242 7.86211 -8.94963
113 1 22.0139 3.14484 6.28969 -8.94963
114 1 1.57242 4.71727 7.86211 -8.94964
115 1 3.14484 3.14484 6.28969 -8.94964
116 1 4.71727 4.71727 7.86212 -8.94978
117 1 6.28968 3.14484 6.28968 -8.94957
118 1 7.862 4.71723 7.862 -8.94879
119 1 9.43453 3.14486 6.2897 -8.94961
120 1 11.0071 4.71723 7.86199 -8.94858
121 1 12.5794 3.14484 6.28968 -8.94958
122 1 14.1518 4.71723 7.8621 -8.94978
123 1 15.7242 3.14484 6.28968 -8.94963
124 1 17.2966 4.71727 7.86211 -8.94966
125 1 18.8691 3.14484 6.28969 -8.94963
126 1 20.4415 4.71726 7.86211 -8.94963
127 1 -1.57078e-07 6.28969 6.28969 -8.94963
128 1 1.57241 7.8621 7.8621 -8.94962
129 1 3.14484 6.28968 6.28968 -8.94954
130 1 4.71709 7.86194 7.86193 -8.94868
131 1 6.28974 6.28973 6.28974 -8.94965
132 1 7.86165 7.86281 7.86157 -8.98581
133 1 9.43458 6.28989 6.2899 -8.95082
134 1 11.0073 7.86332 7.86291 -9.00407
135 1 12.5793 6.28971 6.28978 -8.95027
136 1 14.1524 7.86153 7.86162 -8.94707
137 1 15.7242 6.28965 6.28964 -8.94935
138 1 17.2967 7.86208 7.86208 -8.94966
139 1 18.8691 6.28968 6.28968 -8.94962
140 1 20.4415 7.86211 7.86211 -8.94964
141 1 22.0139 9.43453 6.28969 -8.94964
142 1 3.14482 9.43452 6.28968 -8.94973
143 1 6.28938 9.43433 6.28926 -8.94977
144 1 9.43373 9.43442 6.28953 -9.00379
145 1 12.5801 9.43314 6.28946 -8.98573
146 1 15.7241 9.43461 6.28978 -8.95024
147 1 18.8691 9.43453 6.28969 -8.94962
148 1 1.32917e-08 7.45368e-17 9.43453 -8.94963
149 1 3.14484 2.68164e-16 9.43453 -8.94963
150 1 6.28969 6.99142e-16 9.43453 -8.94962
151 1 9.43453 2.78911e-16 9.43453 -8.94973
152 1 12.5794 6.18446e-16 9.43453 -8.94964
153 1 15.7242 1.32092e-15 9.43453 -8.94963
154 1 18.8691 1.94297e-15 9.43453 -8.94963
155 1 -7.49638e-08 3.14484 9.43453 -8.94963
156 1 3.14484 3.14484 9.43453 -8.94962
157 1 6.2897 3.14486 9.43453 -8.94963
158 1 9.43453 3.14466 9.43453 -8.9507
159 1 12.5794 3.14484 9.43453 -8.94975
160 1 15.7242 3.14484 9.43453 -8.94961
161 1 18.8691 3.14484 9.43453 -8.94963
162 1 22.0139 6.28969 9.43453 -8.94963
163 1 3.14486 6.28969 9.43453 -8.94962
191 1 4.71729 7.86212 11.0069 -8.95015
181 1 17.2966 1.57242 11.007 -8.94963
188 1 17.2966 4.71727 11.0069 -8.94966
190 1 1.57242 7.86211 11.0069 -8.94961
177 1 4.71727 1.57242 11.0069 -8.94964
184 1 4.71726 4.71727 11.0069 -8.94969
189 1 20.4415 4.71726 11.007 -8.94963
7 1 9.43453 -1.98925e-16 2.52665e-09 -8.94963
343 1 18.8691 9.43453 18.8691 -8.94963
48 1 15.7242 9.43453 22.0139 -8.94963
178 1 7.8621 1.57242 11.007 -8.94961
179 1 11.007 1.57242 11.007 -8.9496
180 1 14.1518 1.57242 11.007 -8.94965
342 1 15.7242 9.43453 18.8691 -8.94963
182 1 20.4415 1.57242 11.007 -8.94963
183 1 1.57242 4.71726 11.007 -8.94964
45 1 6.28969 9.43453 22.0139 -8.94964
185 1 7.86199 4.71721 11.007 -8.94867
186 1 11.0071 4.71723 11.007 -8.94836
187 1 14.1518 4.71722 11.007 -8.94969
341 1 12.5794 9.43452 18.8691 -8.94967
43 1 22.0139 9.43453 22.0139 -8.94963
340 1 9.43453 9.43453 18.8691 -8.94979
339 1 6.28969 9.43453 18.8691 -8.94968
338 1 3.14484 9.43453 18.8691 -8.94962
337 1 22.0139 9.43453 18.8691 -8.94963
194 1 14.1522 7.86167 11.0072 -8.9486
195 1 17.2967 7.86209 11.007 -8.94966
196 1 20.4415 7.86211 11.007 -8.94964
197 1 1.86332e-09 -4.18761e-16 12.5794 -8.94963
198 1 1.57242 1.57242 14.1518 -8.94963
199 1 3.14484 -2.77021e-16 12.5794 -8.94963
200 1 4.71726 1.57242 14.1518 -8.94963
201 1 6.28969 7.12161e-16 12.5794 -8.94963
202 1 7.86211 1.57242 14.1518 -8.94962
203 1 9.43453 4.5815e-16 12.5794 -8.94964
204 1 11.007 1.57242 14.1518 -8.94962
205 1 12.5794 -4.50834e-16 12.5794 -8.94963
206 1 14.1518 1.57242 14.1518 -8.94963
207 1 15.7242 5.03647e-16 12.5794 -8.94963
208 1 17.2966 1.57242 14.1518 -8.94963
209 1 18.8691 1.51032e-15 12.5794 -8.94963
210 1 20.4415 1.57242 14.1518 -8.94963
211 1 22.0139 3.14484 12.5794 -8.94963
212 1 1.57242 4.71727 14.1518 -8.94965
213 1 3.14484 3.14484 12.5794 -8.94963
214 1 4.71726 4.71725 14.1518 -8.94968
215 1 6.28968 3.14484 12.5794 -8.94964
216 1 7.8621 4.71732 14.1518 -8.94934
217 1 9.43453 3.14483 12.5794 -8.94979
218 1 11.007 4.71731 14.1518 -8.94927
219 1 12.5794 3.14484 12.5794 -8.94966
220 1 14.1518 4.71725 14.1518 -8.94971
221 1 15.7242 3.14484 12.5794 -8.94962
222 1 17.2966 4.71726 14.1518 -8.94963
223 1 18.8691 3.14484 12.5794 -8.94963
224 1 20.4415 4.71726 14.1518 -8.94963
225 1 1.46465e-06 6.28969 12.5794 -8.94963
226 1 1.5724 7.8621 14.1518 -8.94962
227 1 3.14486 6.2897 12.5794 -8.94973
228 1 4.71701 7.86182 14.1521 -8.94791
229 1 6.28971 6.28954 12.5794 -8.95042
230 1 7.86259 7.8631 14.1509 -8.95116
231 1 9.43459 6.28935 12.5792 -8.9506
232 1 11.0064 7.86314 14.1508 -8.95117
233 1 12.5793 6.2895 12.5793 -8.95129
234 1 14.1521 7.86177 14.1521 -8.94744
235 1 15.7242 6.28967 12.5794 -8.94955
236 1 17.2966 7.8621 14.1518 -8.94968
237 1 18.8691 6.28968 12.5794 -8.94963
238 1 20.4415 7.86211 14.1518 -8.94964
239 1 22.0139 9.43453 12.5794 -8.94968
240 1 3.14455 9.4344 12.5795 -8.94986
241 1 6.28624 9.43127 12.5827 -8.98525
242 1 9.43425 9.43366 12.5798 -9.13855
243 1 12.5838 9.42945 12.5831 -9.0159
244 1 15.7245 9.43448 12.5794 -8.95048
245 1 18.8691 9.43453 12.5794 -8.94967
246 1 6.1148e-09 3.50205e-16 15.7242 -8.94963
247 1 1.57242 1.57242 17.2966 -8.94963
248 1 3.14484 -5.00885e-16 15.7242 -8.94963
249 1 4.71726 1.57242 17.2966 -8.94963
250 1 6.28969 1.72628e-15 15.7242 -8.94963
251 1 7.86211 1.57242 17.2966 -8.94963
252 1 9.43453 1.29988e-15 15.7242 -8.94963
253 1 11.007 1.57242 17.2966 -8.94963
254 1 12.5794 5.93295e-16 15.7242 -8.94963
255 1 14.1518 1.57242 17.2966 -8.94963
256 1 15.7242 1.45813e-15 15.7242 -8.94963
257 1 17.2966 1.57242 17.2966 -8.94963
258 1 18.8691 8.76722e-16 15.7242 -8.94963
259 1 20.4415 1.57242 17.2966 -8.94963
260 1 9.84607e-08 3.14484 15.7242 -8.94963
261 1 1.57242 4.71726 17.2966 -8.94962
262 1 3.14484 3.14484 15.7242 -8.94963
263 1 4.71727 4.71727 17.2966 -8.94968
264 1 6.28969 3.14485 15.7242 -8.94961
265 1 7.86211 4.71727 17.2966 -8.94967
266 1 9.43453 3.14485 15.7242 -8.94961
267 1 11.0069 4.71727 17.2966 -8.94966
268 1 12.5794 3.14485 15.7242 -8.94961
269 1 14.1518 4.71727 17.2966 -8.94969
270 1 15.7242 3.14484 15.7242 -8.94963
271 1 17.2966 4.71726 17.2966 -8.94962
272 1 18.8691 3.14484 15.7242 -8.94963
273 1 20.4415 4.71726 17.2966 -8.94963
274 1 22.0139 6.28969 15.7242 -8.94963
275 1 1.57242 7.86211 17.2966 -8.94965
276 1 3.14483 6.28967 15.7242 -8.94948
277 1 4.71726 7.8621 17.2967 -8.9497
278 1 6.28978 6.28978 15.7241 -8.95003
279 1 7.86209 7.86208 17.2966 -8.94923
280 1 9.43453 6.2898 15.7241 -8.95011
281 1 11.007 7.8621 17.2966 -8.94926
282 1 12.5793 6.28978 15.7241 -8.95009
283 1 14.1518 7.8621 17.2967 -8.94968
284 1 15.7242 6.28967 15.7242 -8.94946
285 1 17.2966 7.86211 17.2966 -8.94965
286 1 18.8691 6.28969 15.7242 -8.94963
287 1 20.4415 7.86211 17.2966 -8.94963
288 1 22.0139 9.43453 15.7242 -8.94963
289 1 3.14485 9.43453 15.7242 -8.9497
290 1 6.28973 9.43455 15.7243 -8.95086
291 1 9.43445 9.43447 15.7247 -8.94921
292 1 12.5794 9.43447 15.7244 -8.95048
293 1 15.7242 9.43454 15.7242 -8.94974
294 1 18.8691 9.43453 15.7242 -8.94963
295 1 22.0139 6.43273e-16 18.8691 -8.94963
296 1 1.57242 1.57242 20.4415 -8.94963
297 1 3.14484 1.19228e-15 18.8691 -8.94963
298 1 4.71726 1.57242 20.4415 -8.94963
299 1 6.28969 6.2741e-16 18.8691 -8.94963
300 1 7.86211 1.57242 20.4415 -8.94963
301 1 9.43453 1.1127e-15 18.8691 -8.94963
302 1 11.007 1.57242 20.4415 -8.94963
303 1 12.5794 1.43169e-15 18.8691 -8.94963
304 1 14.1518 1.57242 20.4415 -8.94963
305 1 15.7242 1.42585e-16 18.8691 -8.94963
306 1 17.2966 1.57242 20.4415 -8.94963
307 1 18.8691 6.65852e-16 18.8691 -8.94963
308 1 20.4415 1.57242 20.4415 -8.94963
309 1 -4.34789e-09 3.14484 18.8691 -8.94963
310 1 1.57242 4.71726 20.4415 -8.94963
311 1 3.14484 3.14484 18.8691 -8.94964
312 1 4.71726 4.71726 20.4415 -8.94963
313 1 6.28969 3.14484 18.8691 -8.94963
314 1 7.86211 4.71726 20.4415 -8.94964
315 1 9.43453 3.14484 18.8691 -8.94963
316 1 11.007 4.71726 20.4415 -8.94964
317 1 12.5794 3.14484 18.8691 -8.94963
318 1 14.1518 4.71726 20.4415 -8.94963
319 1 15.7242 3.14484 18.8691 -8.94964
320 1 17.2966 4.71726 20.4415 -8.94963
321 1 18.8691 3.14484 18.8691 -8.94963
322 1 20.4415 4.71726 20.4415 -8.94963
323 1 22.0139 6.28969 18.8691 -8.94963
324 1 1.57242 7.86211 20.4415 -8.94963
325 1 3.14484 6.28969 18.8691 -8.94963
326 1 4.71726 7.86211 20.4415 -8.94964
327 1 6.28969 6.28969 18.8691 -8.9496
328 1 7.86211 7.86211 20.4415 -8.94962
329 1 9.43453 6.28969 18.869 -8.94962
330 1 11.007 7.86211 20.4415 -8.94961
331 1 12.5794 6.28969 18.8691 -8.94961
332 1 14.1518 7.86211 20.4415 -8.94964
333 1 15.7242 6.28969 18.8691 -8.94963
334 1 17.2966 7.86211 20.4415 -8.94963
335 1 18.8691 6.28969 18.8691 -8.94963
336 1 20.4415 7.86211 20.4415 -8.94963
3 1 3.14484 1.74155e-15 22.0139 -8.94963
41 1 18.8691 6.28969 22.0139 -8.94963
11 1 15.7242 1.75269e-15 22.0139 -8.94963
19 1 6.28969 3.14484 22.0139 -8.94963
25 1 15.7242 3.14484 22.0139 -8.94963
31 1 3.14484 6.28969 22.0139 -8.94963
35 1 9.43453 6.28969 22.0139 -8.94963
37 1 12.5794 6.28969 22.0139 -8.94963
15 1 22.0139 3.14484 22.0139 -8.94963
46 1 9.43453 9.43452 22.0139 -8.94964
176 1 1.57242 1.57242 11.007 -8.94963
344 1 1.57242 11.007 1.57242 -8.94963
345 1 4.71726 11.007 1.57242 -8.94963
346 1 7.86211 11.007 1.57241 -8.94969
347 1 11.007 11.007 1.57227 -8.95048
348 1 14.1518 11.007 1.57244 -8.94959
349 1 17.2966 11.007 1.57242 -8.94963
350 1 20.4415 11.007 1.57242 -8.94963
688 2 10.2151 11.007 9.43814 0.798013
352 1 1.57242 14.1518 1.57242 -8.94963
353 1 3.14484 12.5794 1.07801e-07 -8.94963
354 1 4.71726 14.1518 1.57242 -8.94964
511 1 18.8691 18.8691 9.43453 -8.94963
356 1 7.8621 14.1518 1.57242 -8.9496
538 1 17.2966 20.4415 11.007 -8.94963
358 1 11.007 14.1518 1.57243 -8.94961
359 1 12.5794 12.5794 -4.54414e-06 -8.94963
360 1 14.1518 14.1518 1.57242 -8.94961
510 1 15.7242 18.8691 9.43453 -8.94961
362 1 17.2966 14.1518 1.57242 -8.94964
363 1 18.8691 12.5794 -7.68943e-08 -8.94963
364 1 20.4415 14.1518 1.57242 -8.94963
365 1 1.58229e-08 15.7242 1.69679e-09 -8.94963
366 1 1.57242 17.2966 1.57242 -8.94963
509 1 12.5794 18.8691 9.43453 -8.94975
368 1 4.71726 17.2966 1.57242 -8.94963
369 1 6.28969 15.7242 -1.0307e-07 -8.94963
370 1 7.86211 17.2966 1.57242 -8.94964
508 1 9.43453 18.8692 9.43453 -8.9507
372 1 11.007 17.2966 1.57242 -8.94963
507 1 6.2897 18.869 9.43453 -8.94963
374 1 14.1518 17.2966 1.57242 -8.94964
375 1 15.7242 15.7242 -1.96379e-07 -8.94963
376 1 17.2966 17.2966 1.57242 -8.94963
506 1 3.14484 18.8691 9.43453 -8.94962
378 1 20.4415 17.2966 1.57242 -8.94963
531 1 17.2966 17.2966 11.0069 -8.94966
380 1 1.57242 20.4415 1.57242 -8.94963
381 1 3.14484 18.8691 1.98222e-08 -8.94963
382 1 4.71726 20.4415 1.57242 -8.94963
505 1 -7.49638e-08 18.8691 9.43453 -8.94963
384 1 7.86211 20.4415 1.57242 -8.94963
385 1 9.43453 18.8691 -3.22934e-08 -8.94963
386 1 11.007 20.4415 1.57242 -8.94963
387 1 12.5794 18.8691 -2.87849e-08 -8.94963
388 1 14.1518 20.4415 1.57242 -8.94963
504 1 18.8691 15.7242 9.43453 -8.94962
390 1 17.2966 20.4415 1.57242 -8.94963
391 1 18.8691 18.8691 2.01138e-09 -8.94963
392 1 20.4415 20.4415 1.57242 -8.94963
393 1 1.57242 11.007 4.71726 -8.94963
394 1 4.71726 11.007 4.71726 -8.94957
395 1 7.86207 11.007 4.71707 -8.95027
396 1 11.0069 11.007 4.71428 -8.95894
397 1 14.1516 11.007 4.7175 -8.95035
398 1 17.2966 11.007 4.71726 -8.94958
399 1 20.4415 11.007 4.71726 -8.94963
400 1 8.89073e-08 12.5794 3.14484 -8.94963
401 1 1.57242 14.1518 4.71726 -8.94964
402 1 3.14484 12.5794 3.14484 -8.94964
403 1 4.71724 14.1518 4.71723 -8.94956
404 1 6.28968 12.5794 3.14482 -8.94975
405 1 7.86209 14.1518 4.71723 -8.94956
406 1 9.43444 12.5795 3.14475 -8.94914
407 1 11.0069 14.1517 4.7174 -8.94991
408 1 12.5795 12.5795 3.14477 -8.94918
409 1 14.1518 14.1518 4.71721 -8.94939
410 1 15.7242 12.5794 3.14486 -8.9497
411 1 17.2966 14.1518 4.71727 -8.94969
412 1 18.8691 12.5794 3.14484 -8.94963
413 1 20.4415 14.1518 4.71726 -8.94963
414 1 22.0139 15.7242 3.14484 -8.94963
415 1 1.57242 17.2966 4.71726 -8.94963
416 1 3.14484 15.7242 3.14484 -8.94962
417 1 4.71727 17.2966 4.71727 -8.94966
418 1 6.28969 15.7242 3.14485 -8.94961
419 1 7.86212 17.2966 4.71727 -8.94975
420 1 9.43453 15.7242 3.14486 -8.94962
421 1 11.0069 17.2966 4.71726 -8.94967
422 1 12.5794 15.7242 3.14485 -8.94968
423 1 14.1518 17.2966 4.71727 -8.94968
424 1 15.7242 15.7242 3.14484 -8.94962
425 1 17.2966 17.2966 4.71726 -8.94961
426 1 18.8691 15.7242 3.14484 -8.94964
427 1 20.4415 17.2966 4.71726 -8.94963
428 1 4.93822e-08 18.8691 3.14484 -8.94963
429 1 1.57242 20.4415 4.71726 -8.94963
430 1 3.14484 18.8691 3.14484 -8.94964
431 1 4.71726 20.4415 4.71726 -8.94963
432 1 6.28969 18.8691 3.14484 -8.94964
433 1 7.86211 20.4415 4.71727 -8.94964
434 1 9.43453 18.8691 3.14484 -8.94962
435 1 11.0069 20.4415 4.71727 -8.94964
436 1 12.5794 18.8691 3.14484 -8.94963
437 1 14.1518 20.4415 4.71726 -8.94963
438 1 15.7242 18.8691 3.14484 -8.94964
439 1 17.2966 20.4415 4.71726 -8.94963
440 1 18.8691 18.8691 3.14484 -8.94963
441 1 20.4415 20.4415 4.71726 -8.94963
442 1 1.5724 11.007 7.86211 -8.94972
443 1 4.71692 11.007 7.86203 -8.95081
444 1 7.85837 11.007 7.85998 -9.04637
445 1 11.0245 11.007 7.82703 -9.28477
446 1 14.1508 11.007 7.86313 -8.99934
447 1 17.2966 11.007 7.86209 -8.94919
448 1 20.4415 11.007 7.86211 -8.94961
449 1 22.0139 12.5794 6.28969 -8.94964
450 1 1.57241 14.1518 7.8621 -8.94962
451 1 3.14482 12.5794 6.28968 -8.94973
452 1 4.71709 14.152 7.86193 -8.94868
453 1 6.28938 12.5796 6.28926 -8.94977
454 1 7.86165 14.1511 7.86157 -8.98581
455 1 9.43373 12.5795 6.28953 -9.00379
456 1 11.0073 14.1506 7.86291 -9.00407
457 1 12.5801 12.5808 6.28946 -8.98573
458 1 14.1524 14.1524 7.86162 -8.94707
459 1 15.7241 12.5793 6.28978 -8.95024
460 1 17.2967 14.1518 7.86208 -8.94966
461 1 18.8691 12.5794 6.28969 -8.94962
462 1 20.4415 14.1518 7.86211 -8.94964
463 1 -1.57078e-07 15.7242 6.28969 -8.94963
464 1 1.57242 17.2966 7.86211 -8.94964
465 1 3.14484 15.7242 6.28968 -8.94954
466 1 4.71727 17.2966 7.86212 -8.94978
467 1 6.28974 15.7242 6.28974 -8.94965
468 1 7.862 17.2967 7.862 -8.94879
469 1 9.43458 15.724 6.2899 -8.95082
470 1 11.0071 17.2967 7.86199 -8.94858
471 1 12.5793 15.7242 6.28978 -8.95027
472 1 14.1518 17.2967 7.8621 -8.94978
473 1 15.7242 15.7242 6.28964 -8.94935
474 1 17.2966 17.2966 7.86211 -8.94966
475 1 18.8691 15.7242 6.28968 -8.94962
476 1 20.4415 17.2966 7.86211 -8.94963
477 1 22.0139 18.8691 6.28969 -8.94963
478 1 1.57242 20.4415 7.86211 -8.94963
479 1 3.14484 18.8691 6.28969 -8.94964
480 1 4.71727 20.4415 7.86211 -8.94964
481 1 6.28968 18.8691 6.28968 -8.94957
482 1 7.8621 20.4415 7.8621 -8.94961
483 1 9.43453 18.869 6.2897 -8.94961
484 1 11.007 20.4415 7.8621 -8.94961
485 1 12.5794 18.8691 6.28968 -8.94958
486 1 14.1518 20.4415 7.86211 -8.94965
487 1 15.7242 18.8691 6.28968 -8.94963
488 1 17.2966 20.4415 7.86211 -8.94963
489 1 18.8691 18.8691 6.28969 -8.94963
490 1 20.4415 20.4415 7.86211 -8.94963
491 1 -9.9998e-06 12.5794 9.43453 -8.94966
492 1 3.14464 12.5795 9.43441 -8.94941
493 1 6.28763 12.5813 9.43157 -9.0372
494 1 9.41686 12.6186 9.43318 -9.33126
495 1 12.5867 12.5855 9.43177 -9.02222
496 1 15.7248 12.5795 9.4344 -8.95098
497 1 18.8691 12.5794 9.43452 -8.94979
498 1 22.0139 15.7242 9.43453 -8.94963
499 1 3.14486 15.7242 9.43453 -8.94962
500 1 6.28993 15.7241 9.43456 -8.95152
501 1 9.43458 15.7278 9.43457 -8.96022
502 1 12.5793 15.7245 9.43457 -8.95198
503 1 15.7242 15.7242 9.43453 -8.94964
512 1 1.57221 11.007 11.0069 -8.95076
687 2 9.42956 11.007 10.9986 1.04843
513 1 4.71292 11.007 11.007 -8.96709
516 1 14.155 11.007 11.0059 -9.01436
519 1 1.57242 14.1518 11.0069 -8.94961
520 1 4.71729 14.1518 11.0069 -8.95015
521 1 7.86175 14.1511 11.0085 -9.04692
522 1 11.0073 14.1502 11.0071 -9.06465
527 1 4.71726 17.2966 11.0069 -8.94969
532 1 20.4415 17.2966 11.007 -8.94963
534 1 4.71727 20.4415 11.0069 -8.94964
686 1 20.4415 20.4415 20.4415 -8.94963
685 1 18.8691 18.8691 18.8691 -8.94963
514 1 7.79336 11.007 11.0108 -9.31106
515 1 11.0967 11.007 11.0462 -9.42271
684 1 17.2966 20.4415 20.4415 -8.94963
517 1 17.2968 11.007 11.007 -8.95031
518 1 20.4415 11.007 11.007 -8.94972
683 1 15.7242 18.8691 18.8691 -8.94964
682 1 14.1518 20.4415 20.4415 -8.94963
681 1 12.5794 18.8691 18.8691 -8.94963
680 1 11.007 20.4415 20.4415 -8.94963
523 1 14.1522 14.1522 11.0072 -8.9486
524 1 17.2967 14.1518 11.007 -8.94966
525 1 20.4415 14.1518 11.007 -8.94964
526 1 1.57242 17.2966 11.007 -8.94964
389 1 15.7242 18.8691 22.0139 -8.94963
528 1 7.86199 17.2967 11.007 -8.94867
529 1 11.0071 17.2967 11.007 -8.94836
530 1 14.1518 17.2967 11.007 -8.94969
679 1 9.43453 18.8691 18.8691 -8.94963
383 1 6.28969 18.8691 22.0139 -8.94963
678 1 7.86211 20.4415 20.4415 -8.94963
377 1 18.8691 15.7242 22.0139 -8.94963
535 1 7.8621 20.4415 11.007 -8.94961
536 1 11.007 20.4415 11.007 -8.9496
537 1 14.1518 20.4415 11.007 -8.94965
677 1 6.28969 18.8691 18.8691 -8.94963
539 1 20.4415 20.4415 11.007 -8.94963
540 1 1.57242 11.007 14.1518 -8.94961
541 1 4.71722 11.007 14.1519 -8.94957
542 1 7.86263 11.007 14.151 -9.01258
543 1 11.0064 11.007 14.1538 -9.02128
544 1 14.1517 11.007 14.1517 -8.95048
545 1 17.2966 11.007 14.1518 -8.94957
546 1 20.4415 11.007 14.1518 -8.94963
547 1 22.0139 12.5794 12.5794 -8.94968
548 1 1.5724 14.1518 14.1518 -8.94962
549 1 3.14455 12.5795 12.5795 -8.94986
550 1 4.71701 14.1521 14.1521 -8.94791
551 1 6.28624 12.5826 12.5827 -8.98525
552 1 7.86259 14.1508 14.1509 -8.95116
553 1 9.43425 12.5802 12.5798 -9.13855
554 1 11.0064 14.1508 14.1508 -8.95117
555 1 12.5838 12.5845 12.5831 -9.0159
556 1 14.1521 14.1521 14.1521 -8.94744
557 1 15.7245 12.5794 12.5794 -8.95048
558 1 17.2966 14.1518 14.1518 -8.94968
559 1 18.8691 12.5794 12.5794 -8.94967
560 1 20.4415 14.1518 14.1518 -8.94964
561 1 1.46465e-06 15.7242 12.5794 -8.94963
562 1 1.57242 17.2966 14.1518 -8.94965
563 1 3.14486 15.7242 12.5794 -8.94973
564 1 4.71726 17.2967 14.1518 -8.94968
565 1 6.28971 15.7244 12.5794 -8.95042
566 1 7.8621 17.2966 14.1518 -8.94934
567 1 9.43459 15.7245 12.5792 -8.9506
568 1 11.007 17.2966 14.1518 -8.94927
569 1 12.5793 15.7244 12.5793 -8.95129
570 1 14.1518 17.2967 14.1518 -8.94971
571 1 15.7242 15.7242 12.5794 -8.94955
572 1 17.2966 17.2966 14.1518 -8.94963
573 1 18.8691 15.7242 12.5794 -8.94963
574 1 20.4415 17.2966 14.1518 -8.94963
575 1 22.0139 18.8691 12.5794 -8.94963
576 1 1.57242 20.4415 14.1518 -8.94963
577 1 3.14484 18.8691 12.5794 -8.94963
578 1 4.71726 20.4415 14.1518 -8.94963
579 1 6.28968 18.8691 12.5794 -8.94964
580 1 7.86211 20.4415 14.1518 -8.94962
581 1 9.43453 18.8691 12.5794 -8.94979
582 1 11.007 20.4415 14.1518 -8.94962
583 1 12.5794 18.8691 12.5794 -8.94966
584 1 14.1518 20.4415 14.1518 -8.94963
585 1 15.7242 18.8691 12.5794 -8.94962
586 1 17.2966 20.4415 14.1518 -8.94963
587 1 18.8691 18.8691 12.5794 -8.94963
588 1 20.4415 20.4415 14.1518 -8.94963
589 1 1.57242 11.007 17.2966 -8.94964
590 1 4.71725 11.007 17.2967 -8.9496
591 1 7.86209 11.007 17.2966 -8.94923
592 1 11.007 11.007 17.2968 -8.95
593 1 14.1518 11.007 17.2966 -8.94959
594 1 17.2966 11.007 17.2966 -8.94964
595 1 20.4415 11.007 17.2966 -8.94963
596 1 22.0139 12.5794 15.7242 -8.94963
597 1 1.57242 14.1518 17.2966 -8.94965
598 1 3.14485 12.5794 15.7242 -8.9497
599 1 4.71726 14.1518 17.2967 -8.9497
600 1 6.28973 12.5794 15.7243 -8.95086
601 1 7.86209 14.1518 17.2966 -8.94923
602 1 9.43445 12.5794 15.7247 -8.94921
603 1 11.007 14.1518 17.2966 -8.94926
604 1 12.5794 12.5794 15.7244 -8.95048
605 1 14.1518 14.1518 17.2967 -8.94968
606 1 15.7242 12.5794 15.7242 -8.94974
607 1 17.2966 14.1518 17.2966 -8.94965
608 1 18.8691 12.5794 15.7242 -8.94963
609 1 20.4415 14.1518 17.2966 -8.94963
610 1 22.0139 15.7242 15.7242 -8.94963
611 1 1.57242 17.2966 17.2966 -8.94962
612 1 3.14483 15.7242 15.7242 -8.94948
613 1 4.71727 17.2966 17.2966 -8.94968
614 1 6.28978 15.7241 15.7241 -8.95003
615 1 7.86211 17.2966 17.2966 -8.94967
616 1 9.43453 15.7241 15.7241 -8.95011
617 1 11.0069 17.2966 17.2966 -8.94966
618 1 12.5793 15.7241 15.7241 -8.95009
619 1 14.1518 17.2966 17.2966 -8.94969
620 1 15.7242 15.7242 15.7242 -8.94946
621 1 17.2966 17.2966 17.2966 -8.94962
622 1 18.8691 15.7242 15.7242 -8.94963
623 1 20.4415 17.2966 17.2966 -8.94963
624 1 9.84607e-08 18.8691 15.7242 -8.94963
625 1 1.57242 20.4415 17.2966 -8.94963
626 1 3.14484 18.8691 15.7242 -8.94963
627 1 4.71726 20.4415 17.2966 -8.94963
628 1 6.28969 18.8691 15.7242 -8.94961
629 1 7.86211 20.4415 17.2966 -8.94963
630 1 9.43453 18.869 15.7242 -8.94961
631 1 11.007 20.4415 17.2966 -8.94963
632 1 12.5794 18.8691 15.7242 -8.94961
633 1 14.1518 20.4415 17.2966 -8.94963
634 1 15.7242 18.8691 15.7242 -8.94963
635 1 17.2966 20.4415 17.2966 -8.94963
636 1 18.8691 18.8691 15.7242 -8.94963
637 1 20.4415 20.4415 17.2966 -8.94963
638 1 1.57242 11.007 20.4415 -8.94963
639 1 4.71726 11.007 20.4415 -8.94964
640 1 7.86211 11.007 20.4415 -8.94962
641 1 11.007 11.007 20.4415 -8.9497
642 1 14.1518 11.007 20.4415 -8.94963
643 1 17.2966 11.007 20.4415 -8.94963
644 1 20.4415 11.007 20.4415 -8.94963
645 1 22.0139 12.5794 18.8691 -8.94963
646 1 1.57242 14.1518 20.4415 -8.94963
647 1 3.14484 12.5794 18.8691 -8.94962
648 1 4.71726 14.1518 20.4415 -8.94964
649 1 6.28969 12.5794 18.8691 -8.94968
650 1 7.86211 14.1518 20.4415 -8.94962
651 1 9.43453 12.5794 18.8691 -8.94979
652 1 11.007 14.1518 20.4415 -8.94961
653 1 12.5794 12.5794 18.8691 -8.94967
654 1 14.1518 14.1518 20.4415 -8.94964
655 1 15.7242 12.5794 18.8691 -8.94963
656 1 17.2966 14.1518 20.4415 -8.94963
657 1 18.8691 12.5794 18.8691 -8.94963
658 1 20.4415 14.1518 20.4415 -8.94963
659 1 22.0139 15.7242 18.8691 -8.94963
660 1 1.57242 17.2966 20.4415 -8.94963
661 1 3.14484 15.7242 18.8691 -8.94963
662 1 4.71726 17.2966 20.4415 -8.94963
663 1 6.28969 15.7242 18.8691 -8.9496
664 1 7.86211 17.2966 20.4415 -8.94964
665 1 9.43453 15.7242 18.869 -8.94962
666 1 11.007 17.2966 20.4415 -8.94964
667 1 12.5794 15.7242 18.8691 -8.94961
668 1 14.1518 17.2966 20.4415 -8.94963
669 1 15.7242 15.7242 18.8691 -8.94963
670 1 17.2966 17.2966 20.4415 -8.94963
671 1 18.8691 15.7242 18.8691 -8.94963
672 1 20.4415 17.2966 20.4415 -8.94963
673 1 -4.34789e-09 18.8691 18.8691 -8.94963
674 1 1.57242 20.4415 20.4415 -8.94963
675 1 3.14484 18.8691 18.8691 -8.94964
676 1 4.71726 20.4415 20.4415 -8.94963
351 1 22.0139 12.5794 22.0139 -8.94963
355 1 6.28969 12.5794 22.0139 -8.94964
361 1 15.7242 12.5794 22.0139 -8.94963
367 1 3.14484 15.7242 22.0139 -8.94963
371 1 9.43453 15.7242 22.0139 -8.94963
373 1 12.5794 15.7242 22.0139 -8.94963
357 1 9.43453 12.5794 22.0139 -8.94964
379 1 22.0139 18.8691 22.0139 -8.94963
533 1 1.57242 20.4415 11.007 -8.94963
