ITEM: TIMESTEP
39
ITEM: NUMBER OF ATOMS
688
ITEM: BOX BOUNDS pp pp pp
0.0000000000000000e+00 2.2013900999999997e+01
0.0000000000000000e+00 2.2013900999999997e+01
0.0000000000000000e+00 2.2013900999999997e+01
ITEM: ATOMS id type x y z c_pot
1 1 1.80643e-10 2.46819e-16 1.72026e-11 -8.94963
2 1 1.57242 1.57242 1.57242 -8.94963
175 1 18.8691 9.43453 9.43453 -8.9497
4 1 4.71726 1.57242 1.57242 -8.94963
5 1 6.28969 5.90712e-16 3.82018e-10 -8.94963
6 1 7.86211 1.57242 1.57242 -8.94963
174 1 15.7244 9.43451 9.4345 -8.95079
8 1 11.007 1.57242 1.57242 -8.94963
9 1 12.5794 1.34489e-16 1.58507e-10 -8.94963
10 1 14.1518 1.57242 1.57242 -8.94963
173 1 12.5843 9.43062 9.43318 -9.02708
12 1 17.2966 1.57242 1.57242 -8.94963
13 1 18.8691 4.73194e-16 1.78894e-10 -8.94963
14 1 20.4415 1.57242 1.57242 -8.94963
193 1 11.0069 7.86326 11.0069 -9.06546
16 1 1.57242 4.71726 1.57242 -8.94963
17 1 3.14484 3.14484 3.60113e-09 -8.94963
18 1 4.71726 4.71726 1.57242 -8.94963
172 1 9.42098 9.40415 9.43212 -9.3399
20 1 7.86211 4.71726 1.57242 -8.94963
21 1 9.43453 3.14484 -4.67521e-09 -8.94963
22 1 11.007 4.71726 1.57242 -8.94963
23 1 12.5794 3.14484 -1.2458e-09 -8.94963
24 1 14.1518 4.71726 1.57242 -8.94963
171 1 6.28919 9.43382 9.43307 -9.0406
26 1 17.2966 4.71726 1.57242 -8.94963
27 1 18.8691 3.14484 6.22111e-10 -8.94963
28 1 20.4415 4.71726 1.57242 -8.94963
29 1 2.48781e-09 6.28969 3.3309e-10 -8.94963
30 1 1.57242 7.86211 1.57242 -8.94963
170 1 3.14481 9.4345 9.4345 -8.94947
32 1 4.71726 7.86211 1.57242 -8.94963
33 1 6.28969 6.28969 3.44039e-08 -8.94963
34 1 7.86211 7.86211 1.57242 -8.94962
169 1 -1.07518e-06 9.43453 9.43453 -8.94964
36 1 11.007 7.86211 1.57243 -8.94963
168 1 18.8691 6.28969 9.43453 -8.94963
38 1 14.1518 7.86211 1.57242 -8.94962
39 1 15.7242 6.28969 2.04561e-08 -8.94963
40 1 17.2966 7.86211 1.57242 -8.94963
167 1 15.7242 6.28969 9.43453 -8.94969
42 1 20.4415 7.86211 1.57242 -8.94963
166 1 12.5793 6.28956 9.43455 -8.95121
44 1 3.14484 9.43453 2.4704e-08 -8.94963
165 1 9.43458 6.28793 9.43454 -8.9576
192 1 7.86252 7.86307 11.0075 -9.04946
47 1 12.5794 9.43453 -3.78944e-07 -8.94963
164 1 6.28981 6.28978 9.43454 -8.95098
49 1 18.8691 9.43453 -9.50078e-09 -8.94963
50 1 22.0139 4.82569e-16 3.14484 -8.94963
51 1 1.57242 1.57242 4.71726 -8.94963
52 1 3.14484 5.1563e-16 3.14484 -8.94963
53 1 4.71726 1.57242 4.71726 -8.94963
54 1 6.28969 1.87213e-16 3.14484 -8.94963
55 1 7.86211 1.57242 4.71726 -8.94963
56 1 9.43453 -1.04253e-16 3.14484 -8.94963
57 1 11.007 1.57242 4.71726 -8.94963
58 1 12.5794 2.79797e-16 3.14484 -8.94963
59 1 14.1518 1.57242 4.71726 -8.94963
60 1 15.7242 3.04691e-17 3.14484 -8.94963
61 1 17.2966 1.57242 4.71726 -8.94963
62 1 18.8691 5.29742e-16 3.14484 -8.94963
63 1 20.4415 1.57242 4.71726 -8.94963
64 1 7.53126e-09 3.14484 3.14484 -8.94963
65 1 1.57242 4.71726 4.71726 -8.94963
66 1 3.14484 3.14484 3.14484 -8.94963
67 1 4.71727 4.71727 4.71727 -8.94966
68 1 6.28969 3.14484 3.14484 -8.94963
69 1 7.86211 4.71726 4.71726 -8.94966
70 1 9.43453 3.14484 3.14484 -8.94963
71 1 11.0069 4.71726 4.71726 -8.94964
72 1 12.5794 3.14484 3.14484 -8.94963
73 1 14.1518 4.71727 4.71727 -8.94965
74 1 15.7242 3.14484 3.14484 -8.94963
75 1 17.2966 4.71726 4.71726 -8.94963
76 1 18.8691 3.14484 3.14484 -8.94963
77 1 20.4415 4.71726 4.71726 -8.94963
78 1 22.0139 6.28969 3.14484 -8.94963
79 1 1.57242 7.86211 4.71726 -8.94963
80 1 3.14484 6.28969 3.14484 -8.94963
81 1 4.71726 7.8621 4.71725 -8.94958
82 1 6.28969 6.28969 3.14485 -8.94962
83 1 7.86211 7.86211 4.71728 -8.94953
84 1 9.43453 6.28969 3.14485 -8.94963
85 1 11.0069 7.86215 4.71733 -8.9499
86 1 12.5794 6.28969 3.14484 -8.94965
87 1 14.1518 7.86212 4.71727 -8.94966
88 1 15.7242 6.28969 3.14484 -8.94964
89 1 17.2966 7.86211 4.71727 -8.94966
90 1 18.8691 6.28969 3.14484 -8.94963
91 1 20.4415 7.86211 4.71726 -8.94963
92 1 2.38821e-08 9.43453 3.14484 -8.94963
93 1 3.14484 9.43453 3.14484 -8.94964
94 1 6.28968 9.43453 3.14484 -8.94968
95 1 9.4345 9.4345 3.14482 -8.94938
96 1 12.5794 9.4345 3.14484 -8.94929
97 1 15.7242 9.43453 3.14485 -8.94965
98 1 18.8691 9.43453 3.14484 -8.94963
99 1 9.84947e-10 6.46222e-16 6.28969 -8.94963
100 1 1.57242 1.57242 7.86211 -8.94963
101 1 3.14484 -5.27858e-17 6.28969 -8.94963
102 1 4.71726 1.57242 7.86211 -8.94963
103 1 6.28969 -9.24873e-17 6.28969 -8.94963
104 1 7.86211 1.57242 7.86211 -8.94962
105 1 9.43453 8.55717e-17 6.28969 -8.94963
106 1 11.007 1.57242 7.86211 -8.94962
107 1 12.5794 2.80261e-16 6.28969 -8.94963
108 1 14.1518 1.57242 7.86211 -8.94964
109 1 15.7242 2.98526e-16 6.28969 -8.94963
110 1 17.2966 1.57242 7.86211 -8.94963
111 1 18.8691 7.49738e-16 6.28969 -8.94963
112 1 20.4415 1.57242 7.86211 -8.94963
113 1 22.0139 3.14484 6.28969 -8.94963
114 1 1.57242 4.71726 7.86211 -8.94963
115 1 3.14484 3.14484 6.28969 -8.94963
116 1 4.71726 4.71726 7.86211 -8.94968
117 1 6.28969 3.14484 6.28969 -8.94961
118 1 7.86207 4.71728 7.86207 -8.94903
119 1 9.43453 3.14485 6.28969 -8.94963
120 1 11.007 4.71727 7.86207 -8.94902
121 1 12.5794 3.14484 6.28969 -8.94961
122 1 14.1518 4.71725 7.8621 -8.94968
123 1 15.7242 3.14484 6.28969 -8.94963
124 1 17.2966 4.71727 7.86211 -8.94964
125 1 18.8691 3.14484 6.28969 -8.94963
126 1 20.4415 4.71726 7.86211 -8.94963
127 1 6.65849e-08 6.28969 6.28969 -8.94963
128 1 1.57242 7.86211 7.86211 -8.94962
129 1 3.14484 6.28969 6.28969 -8.94961
130 1 4.71724 7.86208 7.86207 -8.94918
131 1 6.28973 6.28973 6.28974 -8.94989
132 1 7.86229 7.86315 7.86226 -8.98866
133 1 9.43454 6.28979 6.28979 -8.95059
134 1 11.0071 7.8631 7.86285 -9.005
135 1 12.5793 6.28972 6.28973 -8.95003
136 1 14.152 7.86188 7.86191 -8.94808
137 1 15.7242 6.28968 6.28968 -8.94952
138 1 17.2967 7.8621 7.8621 -8.94964
139 1 18.8691 6.28969 6.28969 -8.94963
140 1 20.4415 7.86211 7.86211 -8.94963
141 1 22.0139 9.43453 6.28969 -8.94963
142 1 3.14484 9.43453 6.28968 -8.94968
143 1 6.28955 9.43442 6.28951 -8.94948
144 1 9.43415 9.4346 6.28971 -9.00495
145 1 12.5794 9.43405 6.29008 -8.98843
146 1 15.7242 9.43457 6.28973 -8.94997
147 1 18.8691 9.43453 6.28969 -8.94963
148 1 3.0324e-09 9.05601e-17 9.43453 -8.94963
149 1 3.14484 3.17461e-17 9.43453 -8.94963
150 1 6.28969 2.93054e-16 9.43453 -8.94963
151 1 9.43453 4.90142e-17 9.43453 -8.94966
152 1 12.5794 3.43424e-16 9.43453 -8.94963
153 1 15.7242 7.02387e-16 9.43453 -8.94963
154 1 18.8691 1.28147e-15 9.43453 -8.94963
155 1 -1.29697e-08 3.14484 9.43453 -8.94963
156 1 3.14484 3.14484 9.43453 -8.94963
157 1 6.28969 3.14485 9.43453 -8.94963
158 1 9.43453 3.14479 9.43453 -8.95015
159 1 12.5794 3.14484 9.43453 -8.94969
160 1 15.7242 3.14484 9.43453 -8.94962
161 1 18.8691 3.14484 9.43453 -8.94963
162 1 22.0139 6.28969 9.43453 -8.94963
163 1 3.14485 6.28969 9.43453 -8.94963
191 1 4.71732 7.86213 11.0069 -8.95006
181 1 17.2966 1.57242 11.007 -8.94963
188 1 17.2966 4.71727 11.007 -8.94964
190 1 1.57242 7.86211 11.0069 -8.94962
177 1 4.71726 1.57242 11.007 -8.94964
184 1 4.71726 4.71726 11.0069 -8.94965
189 1 20.4415 4.71726 11.007 -8.94963
7 1 9.43453 7.8705e-17 8.42704e-10 -8.94963
343 1 18.8691 9.43453 18.8691 -8.94963
48 1 15.7242 9.43453 22.0139 -8.94963
178 1 7.86211 1.57242 11.007 -8.94962
179 1 11.007 1.57242 11.007 -8.94962
180 1 14.1518 1.57242 11.007 -8.94964
342 1 15.7242 9.43453 18.8691 -8.94963
182 1 20.4415 1.57242 11.007 -8.94963
183 1 1.57242 4.71726 11.007 -8.94963
45 1 6.28969 9.43453 22.0139 -8.94964
185 1 7.86207 4.71727 11.007 -8.949
186 1 11.007 4.71727 11.007 -8.94892
187 1 14.1518 4.71725 11.007 -8.94965
341 1 12.5794 9.43453 18.8691 -8.94964
43 1 22.0139 9.43453 22.0139 -8.94963
340 1 9.43453 9.43453 18.8691 -8.94973
339 1 6.28969 9.43453 18.8691 -8.94965
338 1 3.14484 9.43453 18.8691 -8.94963
337 1 22.0139 9.43453 18.8691 -8.94963
194 1 14.152 7.86193 11.0071 -8.94904
195 1 17.2966 7.8621 11.007 -8.94965
196 1 20.4415 7.86211 11.007 -8.94963
197 1 1.19783e-09 -2.35201e-16 12.5794 -8.94963
198 1 1.57242 1.57242 14.1518 -8.94963
199 1 3.14484 -2.65379e-16 12.5794 -8.94963
200 1 4.71726 1.57242 14.1518 -8.94963
201 1 6.28969 5.69537e-16 12.5794 -8.94963
202 1 7.86211 1.57242 14.1518 -8.94963
203 1 9.43453 9.14376e-17 12.5794 -8.94964
204 1 11.007 1.57242 14.1518 -8.94963
205 1 12.5794 -2.02168e-16 12.5794 -8.94963
206 1 14.1518 1.57242 14.1518 -8.94963
207 1 15.7242 4.10017e-16 12.5794 -8.94963
208 1 17.2966 1.57242 14.1518 -8.94963
209 1 18.8691 1.04368e-15 12.5794 -8.94963
210 1 20.4415 1.57242 14.1518 -8.94963
211 1 22.0139 3.14484 12.5794 -8.94963
212 1 1.57242 4.71726 14.1518 -8.94964
213 1 3.14484 3.14484 12.5794 -8.94963
214 1 4.71726 4.71726 14.1518 -8.94966
215 1 6.28969 3.14484 12.5794 -8.94963
216 1 7.8621 4.71728 14.1518 -8.9494
217 1 9.43453 3.14484 12.5794 -8.94974
218 1 11.007 4.71728 14.1518 -8.94938
219 1 12.5794 3.14484 12.5794 -8.94964
220 1 14.1518 4.71726 14.1518 -8.94966
221 1 15.7242 3.14484 12.5794 -8.94963
222 1 17.2966 4.71726 14.1518 -8.94963
223 1 18.8691 3.14484 12.5794 -8.94963
224 1 20.4415 4.71726 14.1518 -8.94963
225 1 3.05679e-07 6.28969 12.5794 -8.94963
226 1 1.57242 7.86211 14.1518 -8.94963
227 1 3.14485 6.28969 12.5794 -8.94968
228 1 4.71719 7.86202 14.1519 -8.94878
229 1 6.28972 6.28967 12.5793 -8.95026
230 1 7.86241 7.86281 14.1511 -8.95088
231 1 9.43455 6.28944 12.5793 -8.95064
232 1 11.0067 7.86283 14.1511 -8.95111
233 1 12.5793 6.28966 12.5793 -8.95051
234 1 14.1519 7.86203 14.1519 -8.94877
235 1 15.7242 6.28968 12.5794 -8.94959
236 1 17.2966 7.86211 14.1518 -8.94965
237 1 18.8691 6.28969 12.5794 -8.94963
238 1 20.4415 7.86211 14.1518 -8.94963
239 1 22.0139 9.43453 12.5794 -8.94965
240 1 3.14476 9.4345 12.5794 -8.9498
241 1 6.28807 9.43293 12.581 -8.99043
242 1 9.4344 9.4328 12.5808 -9.13539
243 1 12.5811 9.43233 12.5806 -9.02567
244 1 15.7242 9.43454 12.5794 -8.9501
245 1 18.8691 9.43453 12.5794 -8.94964
246 1 7.18375e-10 2.16454e-16 15.7242 -8.94963
247 1 1.57242 1.57242 17.2966 -8.94963
248 1 3.14484 -2.18376e-16 15.7242 -8.94963
249 1 4.71726 1.57242 17.2966 -8.94963
250 1 6.28969 1.37683e-15 15.7242 -8.94963
251 1 7.86211 1.57242 17.2966 -8.94963
252 1 9.43453 7.58894e-16 15.7242 -8.94963
253 1 11.007 1.57242 17.2966 -8.94963
254 1 12.5794 4.69146e-16 15.7242 -8.94963
255 1 14.1518 1.57242 17.2966 -8.94963
256 1 15.7242 9.58746e-16 15.7242 -8.94963
257 1 17.2966 1.57242 17.2966 -8.94963
258 1 18.8691 7.89604e-16 15.7242 -8.94963
259 1 20.4415 1.57242 17.2966 -8.94963
260 1 1.16771e-08 3.14484 15.7242 -8.94963
261 1 1.57242 4.71726 17.2966 -8.94963
262 1 3.14484 3.14484 15.7242 -8.94963
263 1 4.71727 4.71727 17.2966 -8.94965
264 1 6.28969 3.14484 15.7242 -8.94962
265 1 7.86211 4.71726 17.2966 -8.94964
266 1 9.43453 3.14485 15.7242 -8.94963
267 1 11.0069 4.71726 17.2966 -8.94964
268 1 12.5794 3.14484 15.7242 -8.94962
269 1 14.1518 4.71727 17.2966 -8.94965
270 1 15.7242 3.14484 15.7242 -8.94963
271 1 17.2966 4.71726 17.2966 -8.94963
272 1 18.8691 3.14484 15.7242 -8.94963
273 1 20.4415 4.71726 17.2966 -8.94963
274 1 22.0139 6.28969 15.7242 -8.94963
275 1 1.57242 7.86211 17.2966 -8.94964
276 1 3.14484 6.28968 15.7242 -8.94958
277 1 4.71726 7.86211 17.2966 -8.94965
278 1 6.28972 6.28973 15.7242 -8.94991
279 1 7.8621 7.8621 17.2966 -8.94937
280 1 9.43453 6.28974 15.7242 -8.95003
281 1 11.007 7.8621 17.2966 -8.94938
282 1 12.5793 6.28973 15.7242 -8.94993
283 1 14.1518 7.86211 17.2966 -8.94964
284 1 15.7242 6.28968 15.7242 -8.94959
285 1 17.2966 7.86211 17.2966 -8.94964
286 1 18.8691 6.28969 15.7242 -8.94963
287 1 20.4415 7.86211 17.2966 -8.94963
288 1 22.0139 9.43453 15.7242 -8.94963
289 1 3.14485 9.43453 15.7242 -8.94967
290 1 6.28971 9.43454 15.7242 -8.9503
291 1 9.4345 9.4345 15.7245 -8.9497
292 1 12.5794 9.43452 15.7242 -8.94998
293 1 15.7242 9.43453 15.7242 -8.94968
294 1 18.8691 9.43453 15.7242 -8.94963
295 1 22.0139 4.18945e-16 18.8691 -8.94963
296 1 1.57242 1.57242 20.4415 -8.94963
297 1 3.14484 6.99059e-16 18.8691 -8.94963
298 1 4.71726 1.57242 20.4415 -8.94963
299 1 6.28969 5.33184e-16 18.8691 -8.94963
300 1 7.86211 1.57242 20.4415 -8.94963
301 1 9.43453 7.6444e-16 18.8691 -8.94963
302 1 11.007 1.57242 20.4415 -8.94963
303 1 12.5794 1.10665e-15 18.8691 -8.94963
304 1 14.1518 1.57242 20.4415 -8.94963
305 1 15.7242 3.19946e-16 18.8691 -8.94963
306 1 17.2966 1.57242 20.4415 -8.94963
307 1 18.8691 5.56058e-16 18.8691 -8.94963
308 1 20.4415 1.57242 20.4415 -8.94963
309 1 4.59478e-10 3.14484 18.8691 -8.94963
310 1 1.57242 4.71726 20.4415 -8.94963
311 1 3.14484 3.14484 18.8691 -8.94963
312 1 4.71726 4.71726 20.4415 -8.94963
313 1 6.28969 3.14484 18.8691 -8.94963
314 1 7.86211 4.71726 20.4415 -8.94963
315 1 9.43453 3.14484 18.8691 -8.94963
316 1 11.007 4.71726 20.4415 -8.94963
317 1 12.5794 3.14484 18.8691 -8.94963
318 1 14.1518 4.71726 20.4415 -8.94963
319 1 15.7242 3.14484 18.8691 -8.94963
320 1 17.2966 4.71726 20.4415 -8.94963
321 1 18.8691 3.14484 18.8691 -8.94963
322 1 20.4415 4.71726 20.4415 -8.94963
323 1 22.0139 6.28969 18.8691 -8.94963
324 1 1.57242 7.86211 20.4415 -8.94963
325 1 3.14484 6.28969 18.8691 -8.94963
326 1 4.71726 7.86211 20.4415 -8.94963
327 1 6.28969 6.28969 18.8691 -8.94962
328 1 7.86211 7.86211 20.4415 -8.94962
329 1 9.43453 6.28969 18.8691 -8.94963
330 1 11.007 7.86211 20.4415 -8.94962
331 1 12.5794 6.28969 18.8691 -8.94962
332 1 14.1518 7.86211 20.4415 -8.94963
333 1 15.7242 6.28969 18.8691 -8.94963
334 1 17.2966 7.86211 20.4415 -8.94963
335 1 18.8691 6.28969 18.8691 -8.94963
336 1 20.4415 7.86211 20.4415 -8.94963
3 1 3.14484 1.11591e-15 22.0139 -8.94963
41 1 18.8691 6.28969 22.0139 -8.94963
11 1 15.7242 1.09601e-15 22.0139 -8.94963
19 1 6.28969 3.14484 22.0139 -8.94963
25 1 15.7242 3.14484 22.0139 -8.94963
31 1 3.14484 6.28969 22.0139 -8.94963
35 1 9.43453 6.28969 22.0139 -8.94963
37 1 12.5794 6.28969 22.0139 -8.94963
15 1 22.0139 3.14484 22.0139 -8.94963
46 1 9.43453 9.43453 22.0139 -8.94963
176 1 1.57242 1.57242 11.007 -8.94963
344 1 1.57242 11.007 1.57242 -8.94963
345 1 4.71726 11.007 1.57242 -8.94963
346 1 7.86211 11.007 1.57242 -8.94967
347 1 11.007 11.007 1.57238 -8.95002
348 1 14.1518 11.007 1.57243 -8.94962
349 1 17.2966 11.007 1.57242 -8.94963
350 1 20.4415 11.007 1.57242 -8.94963
688 2 10.2171 11.007 9.43547 0.894517
352 1 1.57242 14.1518 1.57242 -8.94963
353 1 3.14484 12.5794 2.4704e-08 -8.94963
354 1 4.71726 14.1518 1.57242 -8.94963
511 1 18.8691 18.8691 9.43453 -8.94963
356 1 7.86211 14.1518 1.57242 -8.94962
538 1 17.2966 20.4415 11.007 -8.94963
358 1 11.007 14.1518 1.57243 -8.94963
359 1 12.5794 12.5794 -3.78944e-07 -8.94963
360 1 14.1518 14.1518 1.57242 -8.94962
510 1 15.7242 18.8691 9.43453 -8.94962
362 1 17.2966 14.1518 1.57242 -8.94963
363 1 18.8691 12.5794 -9.50078e-09 -8.94963
364 1 20.4415 14.1518 1.57242 -8.94963
365 1 2.48781e-09 15.7242 3.3309e-10 -8.94963
366 1 1.57242 17.2966 1.57242 -8.94963
509 1 12.5794 18.8691 9.43453 -8.94969
368 1 4.71726 17.2966 1.57242 -8.94963
369 1 6.28969 15.7242 3.44039e-08 -8.94963
370 1 7.86211 17.2966 1.57242 -8.94963
508 1 9.43453 18.8691 9.43453 -8.95015
372 1 11.007 17.2966 1.57242 -8.94963
507 1 6.28969 18.8691 9.43453 -8.94963
374 1 14.1518 17.2966 1.57242 -8.94963
375 1 15.7242 15.7242 2.04561e-08 -8.94963
376 1 17.2966 17.2966 1.57242 -8.94963
506 1 3.14484 18.8691 9.43453 -8.94963
378 1 20.4415 17.2966 1.57242 -8.94963
531 1 17.2966 17.2966 11.007 -8.94964
380 1 1.57242 20.4415 1.57242 -8.94963
381 1 3.14484 18.8691 3.60113e-09 -8.94963
382 1 4.71726 20.4415 1.57242 -8.94963
505 1 -1.29697e-08 18.8691 9.43453 -8.94963
384 1 7.86211 20.4415 1.57242 -8.94963
385 1 9.43453 18.8691 -4.67521e-09 -8.94963
386 1 11.007 20.4415 1.57242 -8.94963
387 1 12.5794 18.8691 -1.2458e-09 -8.94963
388 1 14.1518 20.4415 1.57242 -8.94963
504 1 18.8691 15.7242 9.43453 -8.94963
390 1 17.2966 20.4415 1.57242 -8.94963
391 1 18.8691 18.8691 6.2211e-10 -8.94963
392 1 20.4415 20.4415 1.57242 -8.94963
393 1 1.57242 11.007 4.71726 -8.94963
394 1 4.71727 11.007 4.71727 -8.94965
395 1 7.86209 11.007 4.71717 -8.95025
396 1 11.0069 11.007 4.71587 -8.95657
397 1 14.1517 11.007 4.71738 -8.95031
398 1 17.2966 11.007 4.71726 -8.9496
399 1 20.4415 11.007 4.71726 -8.94963
400 1 2.38821e-08 12.5794 3.14484 -8.94963
401 1 1.57242 14.1518 4.71726 -8.94963
402 1 3.14484 12.5794 3.14484 -8.94964
403 1 4.71726 14.1518 4.71725 -8.94958
404 1 6.28968 12.5794 3.14484 -8.94968
405 1 7.86211 14.1518 4.71728 -8.94953
406 1 9.4345 12.5794 3.14482 -8.94938
407 1 11.0069 14.1518 4.71733 -8.9499
408 1 12.5794 12.5794 3.14484 -8.94929
409 1 14.1518 14.1518 4.71727 -8.94966
410 1 15.7242 12.5794 3.14485 -8.94965
411 1 17.2966 14.1518 4.71727 -8.94966
412 1 18.8691 12.5794 3.14484 -8.94963
413 1 20.4415 14.1518 4.71726 -8.94963
414 1 22.0139 15.7242 3.14484 -8.94963
415 1 1.57242 17.2966 4.71726 -8.94963
416 1 3.14484 15.7242 3.14484 -8.94963
417 1 4.71727 17.2966 4.71727 -8.94966
418 1 6.28969 15.7242 3.14485 -8.94962
419 1 7.86211 17.2966 4.71726 -8.94966
420 1 9.43453 15.7242 3.14485 -8.94963
421 1 11.0069 17.2966 4.71726 -8.94964
422 1 12.5794 15.7242 3.14484 -8.94965
423 1 14.1518 17.2966 4.71727 -8.94965
424 1 15.7242 15.7242 3.14484 -8.94964
425 1 17.2966 17.2966 4.71726 -8.94963
426 1 18.8691 15.7242 3.14484 -8.94963
427 1 20.4415 17.2966 4.71726 -8.94963
428 1 7.53126e-09 18.8691 3.14484 -8.94963
429 1 1.57242 20.4415 4.71726 -8.94963
430 1 3.14484 18.8691 3.14484 -8.94963
431 1 4.71726 20.4415 4.71726 -8.94963
432 1 6.28969 18.8691 3.14484 -8.94963
433 1 7.86211 20.4415 4.71726 -8.94963
434 1 9.43453 18.8691 3.14484 -8.94963
435 1 11.007 20.4415 4.71726 -8.94963
436 1 12.5794 18.8691 3.14484 -8.94963
437 1 14.1518 20.4415 4.71726 -8.94963
438 1 15.7242 18.8691 3.14484 -8.94963
439 1 17.2966 20.4415 4.71726 -8.94963
440 1 18.8691 18.8691 3.14484 -8.94963
441 1 20.4415 20.4415 4.71726 -8.94963
442 1 1.57242 11.007 7.86211 -8.94968
443 1 4.71712 11.007 7.8621 -8.95082
444 1 7.85903 11.007 7.86024 -9.04626
445 1 11.0201 11.007 7.83586 -9.29436
446 1 14.1508 11.007 7.86287 -8.99847
447 1 17.2966 11.007 7.8621 -8.94931
448 1 20.4415 11.007 7.86211 -8.94962
449 1 22.0139 12.5794 6.28969 -8.94963
450 1 1.57242 14.1518 7.86211 -8.94962
451 1 3.14484 12.5794 6.28968 -8.94968
452 1 4.71724 14.1518 7.86207 -8.94918
453 1 6.28955 12.5795 6.28951 -8.94948
454 1 7.86229 14.1508 7.86226 -8.98866
455 1 9.43415 12.5793 6.28971 -9.00495
456 1 11.0071 14.1508 7.86285 -9.005
457 1 12.5794 12.5799 6.29008 -8.98843
458 1 14.152 14.152 7.86191 -8.94808
459 1 15.7242 12.5793 6.28973 -8.94997
460 1 17.2967 14.1518 7.8621 -8.94964
461 1 18.8691 12.5794 6.28969 -8.94963
462 1 20.4415 14.1518 7.86211 -8.94963
463 1 6.65849e-08 15.7242 6.28969 -8.94963
464 1 1.57242 17.2966 7.86211 -8.94963
465 1 3.14484 15.7242 6.28969 -8.94961
466 1 4.71726 17.2966 7.86211 -8.94968
467 1 6.28973 15.7242 6.28974 -8.94989
468 1 7.86207 17.2966 7.86207 -8.94903
469 1 9.43454 15.7241 6.28979 -8.95059
470 1 11.007 17.2966 7.86207 -8.94902
471 1 12.5793 15.7242 6.28973 -8.95003
472 1 14.1518 17.2966 7.8621 -8.94968
473 1 15.7242 15.7242 6.28968 -8.94952
474 1 17.2966 17.2966 7.86211 -8.94964
475 1 18.8691 15.7242 6.28969 -8.94963
476 1 20.4415 17.2966 7.86211 -8.94963
477 1 22.0139 18.8691 6.28969 -8.94963
478 1 1.57242 20.4415 7.86211 -8.94963
479 1 3.14484 18.8691 6.28969 -8.94963
480 1 4.71726 20.4415 7.86211 -8.94963
481 1 6.28969 18.8691 6.28969 -8.94961
482 1 7.86211 20.4415 7.86211 -8.94962
483 1 9.43453 18.8691 6.28969 -8.94963
484 1 11.007 20.4415 7.86211 -8.94962
485 1 12.5794 18.8691 6.28969 -8.94961
486 1 14.1518 20.4415 7.86211 -8.94964
487 1 15.7242 18.8691 6.28969 -8.94963
488 1 17.2966 20.4415 7.86211 -8.94963
489 1 18.8691 18.8691 6.28969 -8.94963
490 1 20.4415 20.4415 7.86211 -8.94963
491 1 -1.07518e-06 12.5794 9.43453 -8.94964
492 1 3.14481 12.5794 9.4345 -8.94947
493 1 6.28919 12.5801 9.43307 -9.0406
494 1 9.42098 12.6097 9.43212 -9.3399
495 1 12.5843 12.5833 9.43318 -9.02708
496 1 15.7244 12.5794 9.4345 -8.95079
497 1 18.8691 12.5794 9.43453 -8.9497
498 1 22.0139 15.7242 9.43453 -8.94963
499 1 3.14485 15.7242 9.43453 -8.94963
500 1 6.28981 15.7241 9.43454 -8.95098
501 1 9.43458 15.726 9.43454 -8.9576
502 1 12.5793 15.7243 9.43455 -8.95121
503 1 15.7242 15.7242 9.43453 -8.94969
512 1 1.57237 11.007 11.0069 -8.95006
687 2 9.43098 11.007 11.0029 1.1884
513 1 4.71563 11.007 11.0069 -8.96284
516 1 14.1526 11.007 11.0062 -9.01006
519 1 1.57242 14.1518 11.0069 -8.94962
520 1 4.71732 14.1518 11.0069 -8.95006
521 1 7.86252 14.1508 11.0075 -9.04946
522 1 11.0069 14.1506 11.0069 -9.06546
527 1 4.71726 17.2966 11.0069 -8.94965
532 1 20.4415 17.2966 11.007 -8.94963
534 1 4.71726 20.4415 11.007 -8.94964
686 1 20.4415 20.4415 20.4415 -8.94963
685 1 18.8691 18.8691 18.8691 -8.94963
514 1 7.81472 11.007 11.0097 -9.3454
515 1 11.0705 11.007 11.0373 -9.46996
684 1 17.2966 20.4415 20.4415 -8.94963
517 1 17.2966 11.007 11.007 -8.94976
518 1 20.4415 11.007 11.007 -8.94964
683 1 15.7242 18.8691 18.8691 -8.94963
682 1 14.1518 20.4415 20.4415 -8.94963
681 1 12.5794 18.8691 18.8691 -8.94963
680 1 11.007 20.4415 20.4415 -8.94963
523 1 14.152 14.152 11.0071 -8.94904
524 1 17.2966 14.1518 11.007 -8.94965
525 1 20.4415 14.1518 11.007 -8.94963
526 1 1.57242 17.2966 11.007 -8.94963
389 1 15.7242 18.8691 22.0139 -8.94963
528 1 7.86207 17.2966 11.007 -8.949
529 1 11.007 17.2966 11.007 -8.94892
530 1 14.1518 17.2966 11.007 -8.94965
679 1 9.43453 18.8691 18.8691 -8.94963
383 1 6.28969 18.8691 22.0139 -8.94963
678 1 7.86211 20.4415 20.4415 -8.94963
377 1 18.8691 15.7242 22.0139 -8.94963
535 1 7.86211 20.4415 11.007 -8.94962
536 1 11.007 20.4415 11.007 -8.94962
537 1 14.1518 20.4415 11.007 -8.94964
677 1 6.28969 18.8691 18.8691 -8.94963
539 1 20.4415 20.4415 11.007 -8.94963
540 1 1.57242 11.007 14.1518 -8.94963
541 1 4.71727 11.007 14.1518 -8.94979
542 1 7.86258 11.007 14.1513 -9.01198
543 1 11.0064 11.007 14.1526 -9.01868
544 1 14.1517 11.007 14.1517 -8.95066
545 1 17.2966 11.007 14.1518 -8.9496
546 1 20.4415 11.007 14.1518 -8.94963
547 1 22.0139 12.5794 12.5794 -8.94965
548 1 1.57242 14.1518 14.1518 -8.94963
549 1 3.14476 12.5794 12.5794 -8.9498
550 1 4.71719 14.1519 14.1519 -8.94878
551 1 6.28807 12.581 12.581 -8.99043
552 1 7.86241 14.1511 14.1511 -8.95088
553 1 9.4344 12.5811 12.5808 -9.13539
554 1 11.0067 14.1511 14.1511 -8.95111
555 1 12.5811 12.5816 12.5806 -9.02567
556 1 14.1519 14.1519 14.1519 -8.94877
557 1 15.7242 12.5794 12.5794 -8.9501
558 1 17.2966 14.1518 14.1518 -8.94965
559 1 18.8691 12.5794 12.5794 -8.94964
560 1 20.4415 14.1518 14.1518 -8.94963
561 1 3.05679e-07 15.7242 12.5794 -8.94963
562 1 1.57242 17.2966 14.1518 -8.94964
563 1 3.14485 15.7242 12.5794 -8.94968
564 1 4.71726 17.2966 14.1518 -8.94966
565 1 6.28972 15.7242 12.5793 -8.95026
566 1 7.8621 17.2966 14.1518 -8.9494
567 1 9.43455 15.7245 12.5793 -8.95064
568 1 11.007 17.2966 14.1518 -8.94938
569 1 12.5793 15.7242 12.5793 -8.95051
570 1 14.1518 17.2966 14.1518 -8.94966
571 1 15.7242 15.7242 12.5794 -8.94959
572 1 17.2966 17.2966 14.1518 -8.94963
573 1 18.8691 15.7242 12.5794 -8.94963
574 1 20.4415 17.2966 14.1518 -8.94963
575 1 22.0139 18.8691 12.5794 -8.94963
576 1 1.57242 20.4415 14.1518 -8.94963
577 1 3.14484 18.8691 12.5794 -8.94963
578 1 4.71726 20.4415 14.1518 -8.94963
579 1 6.28969 18.8691 12.5794 -8.94963
580 1 7.86211 20.4415 14.1518 -8.94963
581 1 9.43453 18.8691 12.5794 -8.94974
582 1 11.007 20.4415 14.1518 -8.94963
583 1 12.5794 18.8691 12.5794 -8.94964
584 1 14.1518 20.4415 14.1518 -8.94963
585 1 15.7242 18.8691 12.5794 -8.94963
586 1 17.2966 20.4415 14.1518 -8.94963
587 1 18.8691 18.8691 12.5794 -8.94963
588 1 20.4415 20.4415 14.1518 -8.94963
589 1 1.57242 11.007 17.2966 -8.94964
590 1 4.71726 11.007 17.2966 -8.94962
591 1 7.8621 11.007 17.2966 -8.9494
592 1 11.007 11.007 17.2967 -8.94974
593 1 14.1518 11.007 17.2966 -8.94961
594 1 17.2966 11.007 17.2966 -8.94963
595 1 20.4415 11.007 17.2966 -8.94963
596 1 22.0139 12.5794 15.7242 -8.94963
597 1 1.57242 14.1518 17.2966 -8.94964
598 1 3.14485 12.5794 15.7242 -8.94967
599 1 4.71726 14.1518 17.2966 -8.94965
600 1 6.28971 12.5794 15.7242 -8.9503
601 1 7.8621 14.1518 17.2966 -8.94937
602 1 9.4345 12.5794 15.7245 -8.9497
603 1 11.007 14.1518 17.2966 -8.94938
604 1 12.5794 12.5794 15.7242 -8.94998
605 1 14.1518 14.1518 17.2966 -8.94964
606 1 15.7242 12.5794 15.7242 -8.94968
607 1 17.2966 14.1518 17.2966 -8.94964
608 1 18.8691 12.5794 15.7242 -8.94963
609 1 20.4415 14.1518 17.2966 -8.94963
610 1 22.0139 15.7242 15.7242 -8.94963
611 1 1.57242 17.2966 17.2966 -8.94963
612 1 3.14484 15.7242 15.7242 -8.94958
613 1 4.71727 17.2966 17.2966 -8.94965
614 1 6.28972 15.7242 15.7242 -8.94991
615 1 7.86211 17.2966 17.2966 -8.94964
616 1 9.43453 15.7242 15.7242 -8.95003
617 1 11.0069 17.2966 17.2966 -8.94964
618 1 12.5793 15.7242 15.7242 -8.94993
619 1 14.1518 17.2966 17.2966 -8.94965
620 1 15.7242 15.7242 15.7242 -8.94959
621 1 17.2966 17.2966 17.2966 -8.94963
622 1 18.8691 15.7242 15.7242 -8.94963
623 1 20.4415 17.2966 17.2966 -8.94963
624 1 1.16771e-08 18.8691 15.7242 -8.94963
625 1 1.57242 20.4415 17.2966 -8.94963
626 1 3.14484 18.8691 15.7242 -8.94963
627 1 4.71726 20.4415 17.2966 -8.94963
628 1 6.28969 18.8691 15.7242 -8.94962
629 1 7.86211 20.4415 17.2966 -8.94963
630 1 9.43453 18.8691 15.7242 -8.94963
631 1 11.007 20.4415 17.2966 -8.94963
632 1 12.5794 18.8691 15.7242 -8.94962
633 1 14.1518 20.4415 17.2966 -8.94963
634 1 15.7242 18.8691 15.7242 -8.94963
635 1 17.2966 20.4415 17.2966 -8.94963
636 1 18.8691 18.8691 15.7242 -8.94963
637 1 20.4415 20.4415 17.2966 -8.94963
638 1 1.57242 11.007 20.4415 -8.94963
639 1 4.71726 11.007 20.4415 -8.94963
640 1 7.86211 11.007 20.4415 -8.94963
641 1 11.007 11.007 20.4415 -8.94965
642 1 14.1518 11.007 20.4415 -8.94963
643 1 17.2966 11.007 20.4415 -8.94963
644 1 20.4415 11.007 20.4415 -8.94963
645 1 22.0139 12.5794 18.8691 -8.94963
646 1 1.57242 14.1518 20.4415 -8.94963
647 1 3.14484 12.5794 18.8691 -8.94963
648 1 4.71726 14.1518 20.4415 -8.94963
649 1 6.28969 12.5794 18.8691 -8.94965
650 1 7.86211 14.1518 20.4415 -8.94962
651 1 9.43453 12.5794 18.8691 -8.94973
652 1 11.007 14.1518 20.4415 -8.94962
653 1 12.5794 12.5794 18.8691 -8.94964
654 1 14.1518 14.1518 20.4415 -8.94963
655 1 15.7242 12.5794 18.8691 -8.94963
656 1 17.2966 14.1518 20.4415 -8.94963
657 1 18.8691 12.5794 18.8691 -8.94963
658 1 20.4415 14.1518 20.4415 -8.94963
659 1 22.0139 15.7242 18.8691 -8.94963
660 1 1.57242 17.2966 20.4415 -8.94963
661 1 3.14484 15.7242 18.8691 -8.94963
662 1 4.71726 17.2966 20.4415 -8.94963
663 1 6.28969 15.7242 18.8691 -8.94962
664 1 7.86211 17.2966 20.4415 -8.94963
665 1 9.43453 15.7242 18.8691 -8.94963
666 1 11.007 17.2966 20.4415 -8.94963
667 1 12.5794 15.7242 18.8691 -8.94962
668 1 14.1518 17.2966 20.4415 -8.94963
669 1 15.7242 15.7242 18.8691 -8.94963
670 1 17.2966 17.2966 20.4415 -8.94963
671 1 18.8691 15.7242 18.8691 -8.94963
672 1 20.4415 17.2966 20.4415 -8.94963
673 1 4.59478e-10 18.8691 18.8691 -8.94963
674 1 1.57242 20.4415 20.4415 -8.94963
675 1 3.14484 18.8691 18.8691 -8.94963
676 1 4.71726 20.4415 20.4415 -8.94963
351 1 22.0139 12.5794 22.0139 -8.94963
355 1 6.28969 12.5794 22.0139 -8.94964
361 1 15.7242 12.5794 22.0139 -8.94963
367 1 3.14484 15.7242 22.0139 -8.94963
371 1 9.43453 15.7242 22.0139 -8.94963
373 1 12.5794 15.7242 22.0139 -8.94963
357 1 9.43453 12.5794 22.0139 -8.94963
379 1 22.0139 18.8691 22.0139 -8.94963
533 1 1.57242 20.4415 11.007 -8.94963
