ITEM: TIMESTEP
46
ITEM: NUMBER OF ATOMS
688
ITEM: BOX BOUNDS pp pp pp
0.0000000000000000e+00 2.2013900999999997e+01
0.0000000000000000e+00 2.2013900999999997e+01
0.0000000000000000e+00 2.2013900999999997e+01
ITEM: ATOMS id type x y z c_pot
1 1 9.34748e-09 -3.94407e-16 -3.02736e-11 -8.94963
2 1 1.57242 1.57242 1.57242 -8.94963
175 1 18.8691 9.43453 9.43452 -8.94985
4 1 4.71726 1.57242 1.57242 -8.94963
5 1 6.28969 1.23187e-15 -3.42548e-09 -8.94963
6 1 7.86211 1.57242 1.57242 -8.94963
174 1 15.7251 9.43429 9.43431 -8.95108
8 1 11.007 1.57242 1.57242 -8.94963
9 1 12.5794 2.27178e-17 -5.20545e-09 -8.94963
10 1 14.1518 1.57242 1.57242 -8.94963
173 1 12.5881 9.4271 9.4308 -9.01943
12 1 17.2966 1.57242 1.57242 -8.94963
13 1 18.8691 5.35182e-16 4.53469e-09 -8.94963
14 1 20.4415 1.57242 1.57242 -8.94963
193 1 11.0077 7.86392 11.0073 -9.06435
16 1 1.57242 4.71726 1.57242 -8.94963
17 1 3.14484 3.14484 3.26028e-08 -8.94963
18 1 4.71726 4.71727 1.57242 -8.94963
172 1 9.41537 9.39231 9.43434 -9.32859
20 1 7.86211 4.71727 1.57242 -8.94964
21 1 9.43453 3.14484 -6.0117e-08 -8.94963
22 1 11.007 4.71726 1.57242 -8.94963
23 1 12.5794 3.14484 -6.62019e-08 -8.94963
24 1 14.1518 4.71727 1.57242 -8.94964
171 1 6.2864 9.43164 9.43055 -9.03519
26 1 17.2966 4.71726 1.57242 -8.94963
27 1 18.8691 3.14484 -9.83611e-10 -8.94963
28 1 20.4415 4.71726 1.57242 -8.94963
29 1 3.19519e-08 6.28969 3.93068e-09 -8.94963
30 1 1.57242 7.86211 1.57242 -8.94963
170 1 3.14445 9.43431 9.43432 -8.9494
32 1 4.71726 7.86211 1.57242 -8.94964
33 1 6.28969 6.28969 -6.05779e-07 -8.94962
34 1 7.8621 7.86209 1.57241 -8.94958
169 1 -2.4302e-05 9.43452 9.43452 -8.94969
36 1 11.007 7.86211 1.57244 -8.9496
168 1 18.8691 6.28969 9.43453 -8.94962
38 1 14.1518 7.8621 1.57241 -8.9496
39 1 15.7242 6.28969 -7.91859e-07 -8.94963
40 1 17.2966 7.86211 1.57242 -8.94964
167 1 15.7242 6.28967 9.43453 -8.94958
42 1 20.4415 7.86211 1.57242 -8.94963
166 1 12.5793 6.28923 9.43458 -8.95239
44 1 3.14484 9.43453 1.77251e-07 -8.94963
165 1 9.43456 6.285 9.43462 -8.96133
192 1 7.86107 7.86252 11.0092 -9.04599
47 1 12.5794 9.43452 -1.12681e-05 -8.94964
164 1 6.28999 6.28979 9.43457 -8.95177
49 1 18.8691 9.43453 -1.50252e-07 -8.94963
50 1 22.0139 3.40079e-16 3.14484 -8.94963
51 1 1.57242 1.57242 4.71726 -8.94963
52 1 3.14484 1.68904e-16 3.14484 -8.94963
53 1 4.71726 1.57242 4.71726 -8.94962
54 1 6.28969 3.46051e-16 3.14484 -8.94963
55 1 7.86211 1.57242 4.71727 -8.94964
56 1 9.43453 2.96975e-16 3.14484 -8.94963
57 1 11.0069 1.57242 4.71727 -8.94964
58 1 12.5794 1.23006e-16 3.14484 -8.94963
59 1 14.1518 1.57242 4.71726 -8.94962
60 1 15.7242 -8.82099e-18 3.14484 -8.94963
61 1 17.2966 1.57242 4.71726 -8.94963
62 1 18.8691 1.18963e-15 3.14484 -8.94963
63 1 20.4415 1.57242 4.71726 -8.94963
64 1 1.00228e-07 3.14484 3.14484 -8.94963
65 1 1.57242 4.71726 4.71726 -8.94962
66 1 3.14484 3.14484 3.14484 -8.94964
67 1 4.71727 4.71727 4.71728 -8.94966
68 1 6.28969 3.14484 3.14484 -8.94964
69 1 7.86212 4.71728 4.71727 -8.9498
70 1 9.43453 3.14484 3.14484 -8.94962
71 1 11.0069 4.71728 4.71726 -8.94969
72 1 12.5794 3.14484 3.14484 -8.94964
73 1 14.1518 4.71727 4.71728 -8.9497
74 1 15.7242 3.14484 3.14484 -8.94964
75 1 17.2966 4.71726 4.71726 -8.9496
76 1 18.8691 3.14484 3.14484 -8.94963
77 1 20.4415 4.71726 4.71726 -8.94963
78 1 22.0139 6.28969 3.14484 -8.94963
79 1 1.57242 7.86211 4.71726 -8.94964
80 1 3.14484 6.28968 3.14484 -8.94962
81 1 4.71722 7.86206 4.71721 -8.94956
82 1 6.28969 6.28969 3.14485 -8.9496
83 1 7.86207 7.86206 4.71717 -8.9496
84 1 9.43454 6.28969 3.14487 -8.94961
85 1 11.0069 7.86221 4.71742 -8.94987
86 1 12.5794 6.28969 3.14486 -8.94971
87 1 14.1519 7.86201 4.71713 -8.94919
88 1 15.7242 6.28968 3.14483 -8.94959
89 1 17.2966 7.86212 4.71728 -8.94972
90 1 18.8691 6.28969 3.14484 -8.94964
91 1 20.4415 7.86211 4.71727 -8.94963
92 1 1.19906e-07 9.43453 3.14484 -8.94963
93 1 3.14484 9.43453 3.14484 -8.94964
94 1 6.28967 9.43452 3.1448 -8.9498
95 1 9.43439 9.43438 3.14468 -8.94898
96 1 12.5795 9.43438 3.14469 -8.94915
97 1 15.7242 9.43455 3.14487 -8.94973
98 1 18.8691 9.43453 3.14484 -8.94963
99 1 -2.00008e-09 8.07649e-16 6.28969 -8.94963
100 1 1.57242 1.57242 7.86211 -8.94963
101 1 3.14484 -2.26875e-16 6.28969 -8.94963
102 1 4.71727 1.57242 7.86211 -8.94964
103 1 6.28968 1.31928e-16 6.28968 -8.94963
104 1 7.8621 1.57241 7.8621 -8.94962
105 1 9.43453 -4.93826e-17 6.28969 -8.94962
106 1 11.007 1.57241 7.8621 -8.94961
107 1 12.5794 7.0269e-16 6.28968 -8.94963
108 1 14.1518 1.57242 7.86211 -8.94966
109 1 15.7242 9.00611e-16 6.28969 -8.94964
110 1 17.2966 1.57242 7.86211 -8.94963
111 1 18.8691 1.63161e-15 6.28969 -8.94963
112 1 20.4415 1.57242 7.86211 -8.94963
113 1 22.0139 3.14484 6.28969 -8.94963
114 1 1.57242 4.71727 7.86211 -8.94965
115 1 3.14484 3.14484 6.28969 -8.94964
116 1 4.71727 4.71727 7.86212 -8.94985
117 1 6.28967 3.14484 6.28967 -8.94955
118 1 7.86194 4.71716 7.86193 -8.94868
119 1 9.43453 3.14487 6.2897 -8.94959
120 1 11.0071 4.71717 7.86192 -8.94832
121 1 12.5794 3.14483 6.28967 -8.94956
122 1 14.1518 4.7172 7.86209 -8.94986
123 1 15.7242 3.14484 6.28968 -8.94963
124 1 17.2966 4.71727 7.86211 -8.94967
125 1 18.8691 3.14484 6.28969 -8.94964
126 1 20.4415 4.71726 7.86211 -8.94963
127 1 -1.04752e-06 6.28968 6.28968 -8.94963
128 1 1.57239 7.86209 7.86209 -8.94961
129 1 3.14483 6.28967 6.28967 -8.94948
130 1 4.71692 7.8618 7.86178 -8.9483
131 1 6.28971 6.28971 6.28971 -8.94945
132 1 7.86122 7.86246 7.86111 -8.9849
133 1 9.43461 6.28994 6.28997 -8.95086
134 1 11.0075 7.8634 7.8629 -9.00385
135 1 12.5793 6.28967 6.28979 -8.95042
136 1 14.1527 7.86123 7.86141 -8.94645
137 1 15.7243 6.28962 6.28961 -8.94922
138 1 17.2967 7.86206 7.86206 -8.94967
139 1 18.8691 6.28968 6.28968 -8.94962
140 1 20.4415 7.86211 7.8621 -8.94965
141 1 22.0139 9.43453 6.28969 -8.94964
142 1 3.14481 9.43451 6.28967 -8.94976
143 1 6.28925 9.4343 6.28906 -8.95006
144 1 9.43348 9.43429 6.28942 -9.00309
145 1 12.5806 9.43254 6.28891 -8.98471
146 1 15.7242 9.43464 6.2898 -8.9504
147 1 18.869 9.43453 6.28969 -8.94963
148 1 2.42257e-08 -1.91432e-17 9.43453 -8.94963
149 1 3.14484 3.86487e-16 9.43453 -8.94963
150 1 6.28969 9.79301e-16 9.43453 -8.94962
151 1 9.43453 3.66609e-16 9.43453 -8.9498
152 1 12.5794 7.15563e-16 9.43453 -8.94964
153 1 15.7242 1.61725e-15 9.43453 -8.94963
154 1 18.8691 2.01866e-15 9.43453 -8.94963
155 1 -1.27326e-07 3.14484 9.43453 -8.94963
156 1 3.14484 3.14484 9.43453 -8.94962
157 1 6.2897 3.14486 9.43453 -8.94962
158 1 9.43453 3.14455 9.43453 -8.95104
159 1 12.5794 3.14483 9.43453 -8.94979
160 1 15.7242 3.14484 9.43453 -8.94961
161 1 18.8691 3.14484 9.43453 -8.94963
162 1 22.0139 6.28969 9.43453 -8.94963
163 1 3.14487 6.28968 9.43453 -8.94961
191 1 4.71719 7.86208 11.0068 -8.95015
181 1 17.2966 1.57242 11.007 -8.94963
188 1 17.2966 4.71727 11.0069 -8.94967
190 1 1.57242 7.8621 11.0069 -8.9496
177 1 4.71727 1.57242 11.0069 -8.94964
184 1 4.71726 4.71727 11.0069 -8.94971
189 1 20.4415 4.71726 11.007 -8.94963
7 1 9.43453 -4.71232e-16 4.63511e-09 -8.94963
343 1 18.8691 9.43453 18.8691 -8.94963
48 1 15.7242 9.43453 22.0139 -8.94963
178 1 7.8621 1.57241 11.007 -8.94962
179 1 11.007 1.57241 11.007 -8.94959
180 1 14.1518 1.57242 11.007 -8.94966
342 1 15.7242 9.43453 18.8691 -8.94962
182 1 20.4415 1.57242 11.007 -8.94963
183 1 1.57242 4.71727 11.007 -8.94964
45 1 6.28969 9.43453 22.0139 -8.94965
185 1 7.86192 4.71713 11.0071 -8.94851
186 1 11.0071 4.71718 11.0071 -8.94801
187 1 14.1518 4.71719 11.007 -8.94972
341 1 12.5794 9.43452 18.8691 -8.94971
43 1 22.0139 9.43453 22.0139 -8.94963
340 1 9.43452 9.43452 18.8691 -8.94981
339 1 6.28969 9.43453 18.8691 -8.94971
338 1 3.14484 9.43453 18.8691 -8.94962
337 1 22.0139 9.43453 18.8691 -8.94963
194 1 14.1525 7.86145 11.0072 -8.94832
195 1 17.2967 7.86208 11.007 -8.94967
196 1 20.4415 7.86211 11.007 -8.94964
197 1 -2.19101e-10 -5.35103e-16 12.5794 -8.94963
198 1 1.57242 1.57242 14.1518 -8.94963
199 1 3.14484 -9.64307e-17 12.5794 -8.94963
200 1 4.71726 1.57242 14.1518 -8.94964
201 1 6.28969 8.33917e-16 12.5794 -8.94963
202 1 7.86211 1.57243 14.1518 -8.94961
203 1 9.43453 6.52587e-16 12.5794 -8.94964
204 1 11.007 1.57243 14.1518 -8.94962
205 1 12.5794 -5.39167e-16 12.5794 -8.94963
206 1 14.1518 1.57242 14.1518 -8.94964
207 1 15.7242 4.85116e-16 12.5794 -8.94963
208 1 17.2966 1.57242 14.1518 -8.94963
209 1 18.8691 1.64598e-15 12.5794 -8.94963
210 1 20.4415 1.57242 14.1518 -8.94963
211 1 22.0139 3.14484 12.5794 -8.94963
212 1 1.57242 4.71727 14.1518 -8.94966
213 1 3.14484 3.14484 12.5794 -8.94963
214 1 4.71725 4.71723 14.1518 -8.9497
215 1 6.28968 3.14482 12.5794 -8.94965
216 1 7.86211 4.71734 14.1518 -8.94931
217 1 9.43453 3.14483 12.5794 -8.9498
218 1 11.007 4.71733 14.1518 -8.94921
219 1 12.5794 3.14482 12.5794 -8.94968
220 1 14.1518 4.71723 14.1518 -8.94977
221 1 15.7242 3.14484 12.5794 -8.94962
222 1 17.2966 4.71726 14.1518 -8.94964
223 1 18.8691 3.14484 12.5794 -8.94964
224 1 20.4415 4.71726 14.1518 -8.94963
225 1 2.52322e-06 6.28969 12.5794 -8.94963
226 1 1.57238 7.86208 14.1518 -8.94961
227 1 3.14487 6.2897 12.5794 -8.94976
228 1 4.71684 7.86163 14.1523 -8.94729
229 1 6.28966 6.28938 12.5794 -8.95049
230 1 7.86274 7.86325 14.1508 -8.95147
231 1 9.43463 6.28935 12.5791 -8.9504
232 1 11.0063 7.86329 14.1506 -8.95126
233 1 12.5793 6.28932 12.5793 -8.9518
234 1 14.1524 7.8615 14.1524 -8.94647
235 1 15.7242 6.28965 12.5794 -8.94951
236 1 17.2967 7.86209 14.1518 -8.9497
237 1 18.8691 6.28968 12.5794 -8.94962
238 1 20.4415 7.86211 14.1518 -8.94964
239 1 22.0139 9.43452 12.5794 -8.94972
240 1 3.14433 9.4343 12.5796 -8.94991
241 1 6.2849 9.43016 12.5839 -8.98241
242 1 9.43419 9.43468 12.5787 -9.14044
243 1 12.5858 9.42749 12.5849 -9.0111
244 1 15.7247 9.43441 12.5795 -8.9508
245 1 18.8691 9.43452 12.5794 -8.94971
246 1 1.69807e-08 3.23368e-16 15.7242 -8.94963
247 1 1.57242 1.57242 17.2966 -8.94963
248 1 3.14484 -5.54776e-16 15.7242 -8.94963
249 1 4.71726 1.57242 17.2966 -8.94963
250 1 6.28969 1.77424e-15 15.7242 -8.94963
251 1 7.86211 1.57242 17.2966 -8.94963
252 1 9.43453 1.63704e-15 15.7242 -8.94963
253 1 11.007 1.57242 17.2966 -8.94964
254 1 12.5794 5.5009e-16 15.7242 -8.94963
255 1 14.1518 1.57242 17.2966 -8.94963
256 1 15.7242 1.88479e-15 15.7242 -8.94963
257 1 17.2966 1.57242 17.2966 -8.94963
258 1 18.8691 8.88865e-16 15.7242 -8.94963
259 1 20.4415 1.57242 17.2966 -8.94963
260 1 2.31608e-07 3.14484 15.7242 -8.94963
261 1 1.57242 4.71726 17.2966 -8.94961
262 1 3.14484 3.14484 15.7242 -8.94963
263 1 4.71728 4.71728 17.2966 -8.94971
264 1 6.28969 3.14485 15.7242 -8.9496
265 1 7.86211 4.71727 17.2966 -8.94969
266 1 9.43453 3.14486 15.7242 -8.9496
267 1 11.0069 4.71727 17.2966 -8.94968
268 1 12.5794 3.14485 15.7242 -8.9496
269 1 14.1518 4.71728 17.2966 -8.94971
270 1 15.7242 3.14484 15.7242 -8.94964
271 1 17.2966 4.71726 17.2966 -8.94961
272 1 18.8691 3.14484 15.7242 -8.94963
273 1 20.4415 4.71726 17.2966 -8.94963
274 1 22.0139 6.28968 15.7242 -8.94962
275 1 1.57242 7.86211 17.2966 -8.94965
276 1 3.14481 6.28965 15.7242 -8.94938
277 1 4.71726 7.8621 17.2967 -8.94974
278 1 6.28982 6.28982 15.7241 -8.9501
279 1 7.86209 7.86207 17.2966 -8.94916
280 1 9.43453 6.28983 15.7241 -8.95011
281 1 11.007 7.86209 17.2966 -8.94919
282 1 12.5792 6.28983 15.7241 -8.95018
283 1 14.1518 7.86209 17.2967 -8.94972
284 1 15.7242 6.28965 15.7243 -8.94932
285 1 17.2966 7.86211 17.2966 -8.94966
286 1 18.8691 6.28968 15.7242 -8.94963
287 1 20.4415 7.86211 17.2966 -8.94963
288 1 22.0139 9.43453 15.7242 -8.94963
289 1 3.14486 9.43453 15.7242 -8.94971
290 1 6.28974 9.43455 15.7244 -8.95123
291 1 9.43439 9.43445 15.7248 -8.9488
292 1 12.5794 9.43441 15.7246 -8.95085
293 1 15.7242 9.43455 15.7242 -8.94976
294 1 18.8691 9.43453 15.7242 -8.94963
295 1 22.0139 7.27366e-16 18.8691 -8.94963
296 1 1.57242 1.57242 20.4415 -8.94963
297 1 3.14484 1.3883e-15 18.8691 -8.94963
298 1 4.71726 1.57242 20.4415 -8.94963
299 1 6.28969 7.77243e-16 18.8691 -8.94963
300 1 7.86211 1.57242 20.4415 -8.94963
301 1 9.43453 1.28194e-15 18.8691 -8.94963
302 1 11.007 1.57242 20.4415 -8.94963
303 1 12.5794 1.50534e-15 18.8691 -8.94963
304 1 14.1518 1.57242 20.4415 -8.94963
305 1 15.7242 3.16253e-17 18.8691 -8.94963
306 1 17.2966 1.57242 20.4415 -8.94963
307 1 18.8691 5.67059e-16 18.8691 -8.94963
308 1 20.4415 1.57242 20.4415 -8.94963
309 1 -2.36212e-08 3.14484 18.8691 -8.94963
310 1 1.57242 4.71726 20.4415 -8.94963
311 1 3.14484 3.14484 18.8691 -8.94964
312 1 4.71726 4.71726 20.4415 -8.94963
313 1 6.28969 3.14484 18.8691 -8.94963
314 1 7.86211 4.71727 20.4415 -8.94964
315 1 9.43453 3.14484 18.8691 -8.94962
316 1 11.007 4.71727 20.4415 -8.94964
317 1 12.5794 3.14484 18.8691 -8.94963
318 1 14.1518 4.71727 20.4415 -8.94963
319 1 15.7242 3.14484 18.8691 -8.94964
320 1 17.2966 4.71726 20.4415 -8.94963
321 1 18.8691 3.14484 18.8691 -8.94963
322 1 20.4415 4.71726 20.4415 -8.94963
323 1 22.0139 6.28969 18.8691 -8.94963
324 1 1.57242 7.86211 20.4415 -8.94963
325 1 3.14484 6.28968 18.8691 -8.94963
326 1 4.71726 7.86211 20.4415 -8.94964
327 1 6.28969 6.28969 18.869 -8.94959
328 1 7.86211 7.8621 20.4415 -8.94961
329 1 9.43453 6.28969 18.869 -8.94961
330 1 11.007 7.86211 20.4415 -8.9496
331 1 12.5794 6.28969 18.869 -8.9496
332 1 14.1518 7.86211 20.4415 -8.94964
333 1 15.7242 6.28968 18.8691 -8.94963
334 1 17.2966 7.86211 20.4415 -8.94963
335 1 18.8691 6.28969 18.8691 -8.94964
336 1 20.4415 7.86211 20.4415 -8.94963
3 1 3.14484 1.77738e-15 22.0139 -8.94963
41 1 18.8691 6.28969 22.0139 -8.94963
11 1 15.7242 1.79058e-15 22.0139 -8.94963
19 1 6.28969 3.14484 22.0139 -8.94963
25 1 15.7242 3.14484 22.0139 -8.94963
31 1 3.14484 6.28969 22.0139 -8.94963
35 1 9.43453 6.28969 22.0139 -8.94963
37 1 12.5794 6.28969 22.0139 -8.94963
15 1 22.0139 3.14484 22.0139 -8.94963
46 1 9.43452 9.43452 22.0139 -8.94965
176 1 1.57242 1.57242 11.007 -8.94963
344 1 1.57242 11.007 1.57242 -8.94963
345 1 4.71726 11.007 1.57242 -8.94962
346 1 7.86211 11.007 1.57241 -8.9497
347 1 11.007 11.007 1.57217 -8.95078
348 1 14.1518 11.007 1.57245 -8.94956
349 1 17.2966 11.007 1.57242 -8.94963
350 1 20.4415 11.007 1.57242 -8.94963
688 2 10.2141 11.007 9.4404 0.76137
352 1 1.57242 14.1518 1.57242 -8.94963
353 1 3.14484 12.5794 1.77251e-07 -8.94963
354 1 4.71726 14.1518 1.57242 -8.94964
511 1 18.8691 18.8691 9.43453 -8.94963
356 1 7.8621 14.1518 1.57241 -8.94958
538 1 17.2966 20.4415 11.007 -8.94963
358 1 11.007 14.1518 1.57244 -8.9496
359 1 12.5794 12.5794 -1.12681e-05 -8.94964
360 1 14.1518 14.1518 1.57241 -8.9496
510 1 15.7242 18.8691 9.43453 -8.94961
362 1 17.2966 14.1518 1.57242 -8.94964
363 1 18.8691 12.5794 -1.50252e-07 -8.94963
364 1 20.4415 14.1518 1.57242 -8.94963
365 1 3.19519e-08 15.7242 3.93068e-09 -8.94963
366 1 1.57242 17.2966 1.57242 -8.94963
509 1 12.5794 18.8691 9.43453 -8.94979
368 1 4.71726 17.2966 1.57242 -8.94963
369 1 6.28969 15.7242 -6.05779e-07 -8.94962
370 1 7.86211 17.2966 1.57242 -8.94964
508 1 9.43453 18.8694 9.43453 -8.95104
372 1 11.007 17.2966 1.57242 -8.94963
507 1 6.2897 18.869 9.43453 -8.94962
374 1 14.1518 17.2966 1.57242 -8.94964
375 1 15.7242 15.7242 -7.91859e-07 -8.94963
376 1 17.2966 17.2966 1.57242 -8.94963
506 1 3.14484 18.8691 9.43453 -8.94962
378 1 20.4415 17.2966 1.57242 -8.94963
531 1 17.2966 17.2966 11.0069 -8.94967
380 1 1.57242 20.4415 1.57242 -8.94963
381 1 3.14484 18.8691 3.26028e-08 -8.94963
382 1 4.71726 20.4415 1.57242 -8.94963
505 1 -1.27326e-07 18.8691 9.43453 -8.94963
384 1 7.86211 20.4415 1.57242 -8.94963
385 1 9.43453 18.8691 -6.0117e-08 -8.94963
386 1 11.007 20.4415 1.57242 -8.94963
387 1 12.5794 18.8691 -6.62019e-08 -8.94963
388 1 14.1518 20.4415 1.57242 -8.94963
504 1 18.8691 15.7242 9.43453 -8.94962
390 1 17.2966 20.4415 1.57242 -8.94963
391 1 18.8691 18.8691 -9.83611e-10 -8.94963
392 1 20.4415 20.4415 1.57242 -8.94963
393 1 1.57242 11.007 4.71726 -8.94963
394 1 4.71724 11.007 4.71724 -8.9495
395 1 7.86205 11.007 4.717 -8.95019
396 1 11.007 11.007 4.71324 -8.95997
397 1 14.1516 11.007 4.71755 -8.95027
398 1 17.2966 11.007 4.71726 -8.94956
399 1 20.4415 11.007 4.71726 -8.94963
400 1 1.19906e-07 12.5794 3.14484 -8.94963
401 1 1.57242 14.1518 4.71726 -8.94964
402 1 3.14484 12.5794 3.14484 -8.94964
403 1 4.71722 14.1518 4.71721 -8.94956
404 1 6.28967 12.5794 3.1448 -8.9498
405 1 7.86207 14.1518 4.71717 -8.9496
406 1 9.43439 12.5795 3.14468 -8.94898
407 1 11.0069 14.1517 4.71742 -8.94987
408 1 12.5795 12.5795 3.14469 -8.94915
409 1 14.1519 14.1519 4.71713 -8.94919
410 1 15.7242 12.5794 3.14487 -8.94973
411 1 17.2966 14.1518 4.71728 -8.94972
412 1 18.8691 12.5794 3.14484 -8.94963
413 1 20.4415 14.1518 4.71727 -8.94963
414 1 22.0139 15.7242 3.14484 -8.94963
415 1 1.57242 17.2966 4.71726 -8.94962
416 1 3.14484 15.7242 3.14484 -8.94962
417 1 4.71727 17.2966 4.71728 -8.94966
418 1 6.28969 15.7242 3.14485 -8.9496
419 1 7.86212 17.2966 4.71727 -8.9498
420 1 9.43454 15.7242 3.14487 -8.94961
421 1 11.0069 17.2966 4.71726 -8.94969
422 1 12.5794 15.7242 3.14486 -8.94971
423 1 14.1518 17.2966 4.71728 -8.9497
424 1 15.7242 15.7242 3.14483 -8.94959
425 1 17.2966 17.2966 4.71726 -8.9496
426 1 18.8691 15.7242 3.14484 -8.94964
427 1 20.4415 17.2966 4.71726 -8.94963
428 1 1.00228e-07 18.8691 3.14484 -8.94963
429 1 1.57242 20.4415 4.71726 -8.94963
430 1 3.14484 18.8691 3.14484 -8.94964
431 1 4.71726 20.4415 4.71726 -8.94962
432 1 6.28969 18.8691 3.14484 -8.94964
433 1 7.86211 20.4415 4.71727 -8.94964
434 1 9.43453 18.8691 3.14484 -8.94962
435 1 11.0069 20.4415 4.71727 -8.94964
436 1 12.5794 18.8691 3.14484 -8.94964
437 1 14.1518 20.4415 4.71726 -8.94962
438 1 15.7242 18.8691 3.14484 -8.94964
439 1 17.2966 20.4415 4.71726 -8.94963
440 1 18.8691 18.8691 3.14484 -8.94963
441 1 20.4415 20.4415 4.71726 -8.94963
442 1 1.57239 11.007 7.86211 -8.94974
443 1 4.71675 11.007 7.86195 -8.95063
444 1 7.85822 11.007 7.86007 -9.04664
445 1 11.0262 11.007 7.82367 -9.28067
446 1 14.1509 11.007 7.86321 -8.99959
447 1 17.2966 11.007 7.86208 -8.94913
448 1 20.4415 11.007 7.86211 -8.94961
449 1 22.0139 12.5794 6.28969 -8.94964
450 1 1.57239 14.1518 7.86209 -8.94961
451 1 3.14481 12.5794 6.28967 -8.94976
452 1 4.71692 14.1521 7.86178 -8.9483
453 1 6.28925 12.5796 6.28906 -8.95006
454 1 7.86122 14.1514 7.86111 -8.9849
455 1 9.43348 12.5796 6.28942 -9.00309
456 1 11.0075 14.1505 7.8629 -9.00385
457 1 12.5806 12.5814 6.28891 -8.98471
458 1 14.1527 14.1527 7.86141 -8.94645
459 1 15.7242 12.5793 6.2898 -8.9504
460 1 17.2967 14.1518 7.86206 -8.94967
461 1 18.869 12.5794 6.28969 -8.94963
462 1 20.4415 14.1518 7.8621 -8.94965
463 1 -1.04752e-06 15.7242 6.28968 -8.94963
464 1 1.57242 17.2966 7.86211 -8.94965
465 1 3.14483 15.7242 6.28967 -8.94948
466 1 4.71727 17.2966 7.86212 -8.94985
467 1 6.28971 15.7242 6.28971 -8.94945
468 1 7.86194 17.2967 7.86193 -8.94868
469 1 9.43461 15.724 6.28997 -8.95086
470 1 11.0071 17.2967 7.86192 -8.94832
471 1 12.5793 15.7242 6.28979 -8.95042
472 1 14.1518 17.2967 7.86209 -8.94986
473 1 15.7243 15.7243 6.28961 -8.94922
474 1 17.2966 17.2966 7.86211 -8.94967
475 1 18.8691 15.7242 6.28968 -8.94962
476 1 20.4415 17.2966 7.86211 -8.94963
477 1 22.0139 18.8691 6.28969 -8.94963
478 1 1.57242 20.4415 7.86211 -8.94963
479 1 3.14484 18.8691 6.28969 -8.94964
480 1 4.71727 20.4415 7.86211 -8.94964
481 1 6.28967 18.8691 6.28967 -8.94955
482 1 7.8621 20.4415 7.8621 -8.94962
483 1 9.43453 18.869 6.2897 -8.94959
484 1 11.007 20.4415 7.8621 -8.94961
485 1 12.5794 18.8691 6.28967 -8.94956
486 1 14.1518 20.4415 7.86211 -8.94966
487 1 15.7242 18.8691 6.28968 -8.94963
488 1 17.2966 20.4415 7.86211 -8.94963
489 1 18.8691 18.8691 6.28969 -8.94964
490 1 20.4415 20.4415 7.86211 -8.94963
491 1 -2.4302e-05 12.5794 9.43452 -8.94969
492 1 3.14445 12.5796 9.43432 -8.9494
493 1 6.2864 12.5823 9.43055 -9.03519
494 1 9.41537 12.6216 9.43434 -9.32859
495 1 12.5881 12.5868 9.4308 -9.01943
496 1 15.7251 12.5796 9.43431 -8.95108
497 1 18.8691 12.5794 9.43452 -8.94985
498 1 22.0139 15.7242 9.43453 -8.94963
499 1 3.14487 15.7242 9.43453 -8.94961
500 1 6.28999 15.7241 9.43457 -8.95177
501 1 9.43456 15.7289 9.43462 -8.96133
502 1 12.5793 15.7247 9.43458 -8.95239
503 1 15.7242 15.7242 9.43453 -8.94958
512 1 1.57203 11.007 11.0069 -8.95125
687 2 9.42902 11.007 10.9954 0.983323
513 1 4.71104 11.007 11.007 -8.96916
516 1 14.1564 11.007 11.0058 -9.01663
519 1 1.57242 14.1518 11.0069 -8.9496
520 1 4.71719 14.1518 11.0068 -8.95015
521 1 7.86107 14.1514 11.0092 -9.04599
522 1 11.0077 14.15 11.0073 -9.06435
527 1 4.71726 17.2966 11.0069 -8.94971
532 1 20.4415 17.2966 11.007 -8.94963
534 1 4.71727 20.4415 11.0069 -8.94964
686 1 20.4415 20.4415 20.4415 -8.94963
685 1 18.8691 18.8691 18.8691 -8.94963
514 1 7.78248 11.007 11.0111 -9.29318
515 1 11.1096 11.007 11.0493 -9.40011
684 1 17.2966 20.4415 20.4415 -8.94963
517 1 17.297 11.007 11.007 -8.9506
518 1 20.4415 11.007 11.007 -8.94979
683 1 15.7242 18.8691 18.8691 -8.94964
682 1 14.1518 20.4415 20.4415 -8.94963
681 1 12.5794 18.8691 18.8691 -8.94963
680 1 11.007 20.4415 20.4415 -8.94963
523 1 14.1525 14.1524 11.0072 -8.94832
524 1 17.2967 14.1518 11.007 -8.94967
525 1 20.4415 14.1518 11.007 -8.94964
526 1 1.57242 17.2966 11.007 -8.94964
389 1 15.7242 18.8691 22.0139 -8.94963
528 1 7.86192 17.2968 11.0071 -8.94851
529 1 11.0071 17.2967 11.0071 -8.94801
530 1 14.1518 17.2967 11.007 -8.94972
679 1 9.43453 18.8691 18.8691 -8.94962
383 1 6.28969 18.8691 22.0139 -8.94963
678 1 7.86211 20.4415 20.4415 -8.94963
377 1 18.8691 15.7242 22.0139 -8.94963
535 1 7.8621 20.4415 11.007 -8.94962
536 1 11.007 20.4415 11.007 -8.94959
537 1 14.1518 20.4415 11.007 -8.94966
677 1 6.28969 18.8691 18.8691 -8.94963
539 1 20.4415 20.4415 11.007 -8.94963
540 1 1.5724 11.007 14.1518 -8.94959
541 1 4.71714 11.007 14.152 -8.94933
542 1 7.86256 11.007 14.1509 -9.01284
543 1 11.0065 11.007 14.1545 -9.02237
544 1 14.1518 11.007 14.1518 -8.95017
545 1 17.2966 11.007 14.1518 -8.94954
546 1 20.4415 11.007 14.1518 -8.94963
547 1 22.0139 12.5794 12.5794 -8.94972
548 1 1.57238 14.1518 14.1518 -8.94961
549 1 3.14433 12.5796 12.5796 -8.94991
550 1 4.71684 14.1523 14.1523 -8.94729
551 1 6.2849 12.5837 12.5839 -8.98241
552 1 7.86274 14.1507 14.1508 -8.95147
553 1 9.43419 12.5792 12.5787 -9.14044
554 1 11.0063 14.1506 14.1506 -8.95126
555 1 12.5858 12.5864 12.5849 -9.0111
556 1 14.1524 14.1524 14.1524 -8.94647
557 1 15.7247 12.5795 12.5795 -8.9508
558 1 17.2967 14.1518 14.1518 -8.9497
559 1 18.8691 12.5794 12.5794 -8.94971
560 1 20.4415 14.1518 14.1518 -8.94964
561 1 2.52322e-06 15.7242 12.5794 -8.94963
562 1 1.57242 17.2966 14.1518 -8.94966
563 1 3.14487 15.7242 12.5794 -8.94976
564 1 4.71725 17.2967 14.1518 -8.9497
565 1 6.28966 15.7245 12.5794 -8.95049
566 1 7.86211 17.2966 14.1518 -8.94931
567 1 9.43463 15.7246 12.5791 -8.9504
568 1 11.007 17.2966 14.1518 -8.94921
569 1 12.5793 15.7246 12.5793 -8.9518
570 1 14.1518 17.2967 14.1518 -8.94977
571 1 15.7242 15.7242 12.5794 -8.94951
572 1 17.2966 17.2966 14.1518 -8.94964
573 1 18.8691 15.7242 12.5794 -8.94962
574 1 20.4415 17.2966 14.1518 -8.94963
575 1 22.0139 18.8691 12.5794 -8.94963
576 1 1.57242 20.4415 14.1518 -8.94963
577 1 3.14484 18.8691 12.5794 -8.94963
578 1 4.71726 20.4415 14.1518 -8.94964
579 1 6.28968 18.8691 12.5794 -8.94965
580 1 7.86211 20.4415 14.1518 -8.94961
581 1 9.43453 18.8691 12.5794 -8.9498
582 1 11.007 20.4415 14.1518 -8.94962
583 1 12.5794 18.8691 12.5794 -8.94968
584 1 14.1518 20.4415 14.1518 -8.94964
585 1 15.7242 18.8691 12.5794 -8.94962
586 1 17.2966 20.4415 14.1518 -8.94963
587 1 18.8691 18.8691 12.5794 -8.94964
588 1 20.4415 20.4415 14.1518 -8.94963
589 1 1.57242 11.007 17.2966 -8.94965
590 1 4.71725 11.007 17.2967 -8.94959
591 1 7.86209 11.007 17.2966 -8.94912
592 1 11.007 11.007 17.2969 -8.95016
593 1 14.1518 11.007 17.2966 -8.94956
594 1 17.2966 11.007 17.2966 -8.94965
595 1 20.4415 11.007 17.2966 -8.94963
596 1 22.0139 12.5794 15.7242 -8.94963
597 1 1.57242 14.1518 17.2966 -8.94965
598 1 3.14486 12.5794 15.7242 -8.94971
599 1 4.71726 14.1518 17.2967 -8.94974
600 1 6.28974 12.5793 15.7244 -8.95123
601 1 7.86209 14.1518 17.2966 -8.94916
602 1 9.43439 12.5794 15.7248 -8.9488
603 1 11.007 14.1518 17.2966 -8.94919
604 1 12.5794 12.5795 15.7246 -8.95085
605 1 14.1518 14.1518 17.2967 -8.94972
606 1 15.7242 12.5794 15.7242 -8.94976
607 1 17.2966 14.1518 17.2966 -8.94966
608 1 18.8691 12.5794 15.7242 -8.94963
609 1 20.4415 14.1518 17.2966 -8.94963
610 1 22.0139 15.7242 15.7242 -8.94962
611 1 1.57242 17.2966 17.2966 -8.94961
612 1 3.14481 15.7243 15.7242 -8.94938
613 1 4.71728 17.2966 17.2966 -8.94971
614 1 6.28982 15.7241 15.7241 -8.9501
615 1 7.86211 17.2966 17.2966 -8.94969
616 1 9.43453 15.7241 15.7241 -8.95011
617 1 11.0069 17.2966 17.2966 -8.94968
618 1 12.5792 15.7241 15.7241 -8.95018
619 1 14.1518 17.2966 17.2966 -8.94971
620 1 15.7242 15.7243 15.7243 -8.94932
621 1 17.2966 17.2966 17.2966 -8.94961
622 1 18.8691 15.7242 15.7242 -8.94963
623 1 20.4415 17.2966 17.2966 -8.94963
624 1 2.31608e-07 18.8691 15.7242 -8.94963
625 1 1.57242 20.4415 17.2966 -8.94963
626 1 3.14484 18.8691 15.7242 -8.94963
627 1 4.71726 20.4415 17.2966 -8.94963
628 1 6.28969 18.869 15.7242 -8.9496
629 1 7.86211 20.4415 17.2966 -8.94963
630 1 9.43453 18.869 15.7242 -8.9496
631 1 11.007 20.4415 17.2966 -8.94964
632 1 12.5794 18.869 15.7242 -8.9496
633 1 14.1518 20.4415 17.2966 -8.94963
634 1 15.7242 18.8691 15.7242 -8.94964
635 1 17.2966 20.4415 17.2966 -8.94963
636 1 18.8691 18.8691 15.7242 -8.94963
637 1 20.4415 20.4415 17.2966 -8.94963
638 1 1.57242 11.007 20.4415 -8.94963
639 1 4.71726 11.007 20.4415 -8.94964
640 1 7.86211 11.007 20.4415 -8.94961
641 1 11.007 11.007 20.4415 -8.94974
642 1 14.1518 11.007 20.4415 -8.94963
643 1 17.2966 11.007 20.4415 -8.94963
644 1 20.4415 11.007 20.4415 -8.94963
645 1 22.0139 12.5794 18.8691 -8.94963
646 1 1.57242 14.1518 20.4415 -8.94963
647 1 3.14484 12.5794 18.8691 -8.94962
648 1 4.71726 14.1518 20.4415 -8.94964
649 1 6.28969 12.5794 18.8691 -8.94971
650 1 7.86211 14.1518 20.4415 -8.94961
651 1 9.43452 12.5794 18.8691 -8.94981
652 1 11.007 14.1518 20.4415 -8.9496
653 1 12.5794 12.5794 18.8691 -8.94971
654 1 14.1518 14.1518 20.4415 -8.94964
655 1 15.7242 12.5794 18.8691 -8.94962
656 1 17.2966 14.1518 20.4415 -8.94963
657 1 18.8691 12.5794 18.8691 -8.94963
658 1 20.4415 14.1518 20.4415 -8.94963
659 1 22.0139 15.7242 18.8691 -8.94963
660 1 1.57242 17.2966 20.4415 -8.94963
661 1 3.14484 15.7242 18.8691 -8.94963
662 1 4.71726 17.2966 20.4415 -8.94963
663 1 6.28969 15.7242 18.869 -8.94959
664 1 7.86211 17.2966 20.4415 -8.94964
665 1 9.43453 15.7242 18.869 -8.94961
666 1 11.007 17.2966 20.4415 -8.94964
667 1 12.5794 15.7242 18.869 -8.9496
668 1 14.1518 17.2966 20.4415 -8.94963
669 1 15.7242 15.7242 18.8691 -8.94963
670 1 17.2966 17.2966 20.4415 -8.94963
671 1 18.8691 15.7242 18.8691 -8.94964
672 1 20.4415 17.2966 20.4415 -8.94963
673 1 -2.36212e-08 18.8691 18.8691 -8.94963
674 1 1.57242 20.4415 20.4415 -8.94963
675 1 3.14484 18.8691 18.8691 -8.94964
676 1 4.71726 20.4415 20.4415 -8.94963
351 1 22.0139 12.5794 22.0139 -8.94963
355 1 6.28969 12.5794 22.0139 -8.94965
361 1 15.7242 12.5794 22.0139 -8.94963
367 1 3.14484 15.7242 22.0139 -8.94963
371 1 9.43453 15.7242 22.0139 -8.94963
373 1 12.5794 15.7242 22.0139 -8.94963
357 1 9.43452 12.5794 22.0139 -8.94965
379 1 22.0139 18.8691 22.0139 -8.94963
533 1 1.57242 20.4415 11.007 -8.94963
