ITEM: TIMESTEP
54
ITEM: NUMBER OF ATOMS
688
ITEM: BOX BOUNDS pp pp pp
0.0000000000000000e+00 2.2013900999999997e+01
0.0000000000000000e+00 2.2013900999999997e+01
0.0000000000000000e+00 2.2013900999999997e+01
ITEM: ATOMS id type x y z c_pot
1 1 1.88323e-06 -4.46551e-16 -8.40144e-07 -8.94964
2 1 1.57242 1.57242 1.57242 -8.94963
175 1 18.8697 9.43439 9.43436 -8.9504
4 1 4.71727 1.57242 1.57242 -8.94966
5 1 6.28969 1.39475e-15 -1.91467e-06 -8.94963
6 1 7.86211 1.57241 1.57241 -8.94963
174 1 15.7281 9.43361 9.43378 -8.95397
8 1 11.007 1.57241 1.57241 -8.94963
9 1 12.5794 1.04272e-15 -2.24427e-06 -8.94963
10 1 14.1518 1.57242 1.57242 -8.94964
173 1 12.5978 9.41842 9.42327 -9.00013
12 1 17.2966 1.57242 1.57242 -8.94965
13 1 18.8691 1.27671e-15 -1.80741e-06 -8.94964
14 1 20.4415 1.57242 1.57242 -8.94961
193 1 11.0119 7.86586 11.0089 -9.0652
16 1 1.5724 4.71724 1.57239 -8.94962
17 1 3.14484 3.14484 -8.82985e-06 -8.94963
18 1 4.71724 4.71723 1.57238 -8.94959
172 1 9.41074 9.39178 9.44401 -9.34059
20 1 7.86212 4.71723 1.5724 -8.94965
21 1 9.43453 3.14484 -8.9164e-06 -8.94964
22 1 11.0069 4.71723 1.57238 -8.94963
23 1 12.5794 3.14484 -8.58006e-06 -8.94964
24 1 14.1518 4.71724 1.57241 -8.94969
171 1 6.27587 9.42446 9.42366 -9.02199
26 1 17.2967 4.71721 1.57235 -8.94953
27 1 18.8691 3.14483 -4.04862e-06 -8.9496
28 1 20.4415 4.71726 1.57241 -8.94965
29 1 -5.22817e-06 6.28968 -1.58544e-06 -8.94963
30 1 1.57239 7.8621 1.57239 -8.94963
170 1 3.14106 9.4332 9.43318 -8.95062
32 1 4.71719 7.86206 1.57228 -8.9498
33 1 6.28964 6.28962 -7.47225e-05 -8.94956
34 1 7.86194 7.86187 1.57211 -8.94944
169 1 -0.000671983 9.43431 9.43431 -8.95016
36 1 11.0069 7.862 1.57228 -8.94933
168 1 18.8693 6.28949 9.43448 -8.94947
38 1 14.1521 7.86183 1.57201 -8.94963
39 1 15.7243 6.28961 -6.64285e-05 -8.94963
40 1 17.2967 7.86212 1.57241 -8.94969
167 1 15.725 6.28881 9.43429 -8.94849
42 1 20.4415 7.86211 1.57241 -8.94963
166 1 12.5795 6.28727 9.43444 -8.95506
44 1 3.14481 9.43452 -1.70451e-05 -8.94964
165 1 9.4342 6.28154 9.43595 -8.96456
192 1 7.85494 7.86128 11.0128 -9.04505
47 1 12.5795 9.4344 -0.000270331 -8.94993
164 1 6.28955 6.28813 9.43441 -8.95338
49 1 18.8691 9.43453 -2.97964e-06 -8.94963
50 1 22.0139 -5.41107e-16 3.14484 -8.94964
51 1 1.57241 1.5724 4.71725 -8.94965
52 1 3.14483 -9.76391e-16 3.14483 -8.94959
53 1 4.71721 1.57237 4.71721 -8.94955
54 1 6.28969 1.58931e-16 3.14484 -8.94965
55 1 7.86212 1.57241 4.71724 -8.94961
56 1 9.43453 2.22954e-16 3.14483 -8.94965
57 1 11.0069 1.5724 4.71723 -8.94961
58 1 12.5794 6.94537e-16 3.14483 -8.94964
59 1 14.1518 1.57237 4.71721 -8.94957
60 1 15.7242 1.6794e-15 3.14483 -8.94961
61 1 17.2967 1.57239 4.71724 -8.94963
62 1 18.8691 1.09815e-15 3.14483 -8.94962
63 1 20.4415 1.57242 4.71726 -8.94965
64 1 -1.09513e-05 3.14482 3.14482 -8.94957
65 1 1.5723 4.71713 4.71714 -8.94935
66 1 3.14483 3.14482 3.14482 -8.94962
67 1 4.7172 4.71712 4.71714 -8.94952
68 1 6.2897 3.14483 3.14482 -8.94974
69 1 7.86222 4.71725 4.71722 -8.9501
70 1 9.43453 3.14479 3.1448 -8.94962
71 1 11.0069 4.71721 4.71715 -8.94973
72 1 12.5794 3.14481 3.14481 -8.94966
73 1 14.1518 4.71709 4.71722 -8.95002
74 1 15.7242 3.14481 3.14482 -8.94971
75 1 17.2968 4.71709 4.71709 -8.94923
76 1 18.8691 3.14482 3.14482 -8.94956
77 1 20.4415 4.71721 4.71721 -8.94957
78 1 22.0139 6.28967 3.14481 -8.94965
79 1 1.57227 7.86204 4.71711 -8.94966
80 1 3.14473 6.28957 3.14467 -8.94965
81 1 4.71684 7.86174 4.7165 -8.95002
82 1 6.2896 6.28954 3.14461 -8.9495
83 1 7.86185 7.86167 4.71665 -8.94955
84 1 9.43454 6.28953 3.14482 -8.94942
85 1 11.0065 7.86222 4.71729 -8.94915
86 1 12.5793 6.28958 3.14483 -8.94978
87 1 14.1529 7.86094 4.71581 -8.94897
88 1 15.7245 6.28939 3.14446 -8.9493
89 1 17.2968 7.86208 4.71714 -8.94996
90 1 18.8691 6.28967 3.14481 -8.94971
91 1 20.4415 7.8621 4.71722 -8.94964
92 1 -2.92307e-05 9.43452 3.14481 -8.94963
93 1 3.14471 9.43449 3.14465 -8.94957
94 1 6.28952 9.43451 3.14437 -8.95035
95 1 9.43386 9.43388 3.14387 -8.94789
96 1 12.5801 9.43373 3.14326 -8.94923
97 1 15.7244 9.43457 3.14476 -8.94973
98 1 18.8691 9.43453 3.14481 -8.94962
99 1 -2.56255e-06 7.96323e-16 6.28968 -8.94963
100 1 1.57241 1.5724 7.8621 -8.94963
101 1 3.14483 -7.03408e-16 6.28968 -8.94968
102 1 4.71723 1.57235 7.8621 -8.94972
103 1 6.28962 -1.78348e-16 6.28961 -8.94965
104 1 7.862 1.57217 7.86196 -8.94974
105 1 9.43453 -1.41964e-16 6.28963 -8.94953
106 1 11.007 1.57219 7.86195 -8.94955
107 1 12.5794 9.52157e-16 6.2896 -8.94961
108 1 14.1518 1.5723 7.86209 -8.94983
109 1 15.7242 1.64014e-15 6.28967 -8.94971
110 1 17.2967 1.57238 7.8621 -8.94961
111 1 18.8691 1.34076e-15 6.28968 -8.94963
112 1 20.4415 1.57241 7.86211 -8.94964
113 1 22.0139 3.14482 6.28968 -8.94965
114 1 1.57234 4.71713 7.86207 -8.94964
115 1 3.14477 3.14472 6.28963 -8.94976
116 1 4.71705 4.71674 7.86194 -8.95044
117 1 6.28949 3.14455 6.28944 -8.94935
118 1 7.86154 4.7161 7.86138 -8.94826
119 1 9.43456 3.14474 6.2896 -8.94927
120 1 11.0073 4.71648 7.86148 -8.94699
121 1 12.5795 3.14459 6.28949 -8.94937
122 1 14.1522 4.71638 7.86187 -8.95063
123 1 15.7243 3.14463 6.28958 -8.94972
124 1 17.2968 4.71707 7.86203 -8.9496
125 1 18.8691 3.14481 6.28967 -8.94965
126 1 20.4415 4.71721 7.86209 -8.94959
127 1 -0.000153613 6.28953 6.28954 -8.94959
128 1 1.57153 7.86157 7.86159 -8.94971
129 1 3.14412 6.28898 6.28899 -8.94841
130 1 4.714 7.85911 7.8591 -8.9449
131 1 6.28939 6.2892 6.28914 -8.94898
132 1 7.86043 7.86153 7.86113 -8.98545
133 1 9.43477 6.2899 6.29043 -8.95072
134 1 11.006 7.86478 7.86461 -9.00589
135 1 12.579 6.28932 6.28985 -8.95163
136 1 14.156 7.85779 7.85863 -8.94187
137 1 15.7251 6.28874 6.28879 -8.94767
138 1 17.2977 7.86152 7.86161 -8.95011
139 1 18.8693 6.2895 6.28951 -8.94959
140 1 20.4415 7.86196 7.86196 -8.94985
141 1 22.0137 9.43449 6.28955 -8.94959
142 1 3.14417 9.43433 6.28905 -8.94952
143 1 6.2884 9.4342 6.2874 -8.9529
144 1 9.43255 9.43428 6.29005 -8.99981
145 1 12.5823 9.43056 6.28573 -8.98467
146 1 15.7248 9.43455 6.28946 -8.95071
147 1 18.8692 9.43452 6.28956 -8.94955
148 1 -2.97361e-06 4.54829e-16 9.43453 -8.94963
149 1 3.14482 6.83085e-16 9.43453 -8.94966
150 1 6.28965 1.5907e-15 9.43453 -8.94964
151 1 9.43454 1.25884e-15 9.43451 -8.9503
152 1 12.5794 8.273e-16 9.43453 -8.94971
153 1 15.7242 1.55153e-15 9.43452 -8.94967
154 1 18.8691 1.88538e-15 9.43453 -8.94963
155 1 -1.27975e-05 3.14482 9.43453 -8.94964
156 1 3.14477 3.1447 9.43451 -8.9496
157 1 6.28964 3.14449 9.43452 -8.94973
158 1 9.43455 3.14344 9.43454 -8.95218
159 1 12.5793 3.14439 9.43453 -8.95012
160 1 15.7244 3.14459 9.4345 -8.94951
161 1 18.8691 3.1448 9.43453 -8.94965
162 1 22.0138 6.28954 9.43449 -8.94953
163 1 3.14439 6.28911 9.43434 -8.94911
191 1 4.71408 7.86043 11.0069 -8.94932
181 1 17.2967 1.57238 11.007 -8.94961
188 1 17.2968 4.71707 11.007 -8.94966
190 1 1.57153 7.86167 11.0069 -8.94951
177 1 4.71722 1.57234 11.0069 -8.94967
184 1 4.71694 4.71677 11.0069 -8.94973
189 1 20.4415 4.71721 11.007 -8.94961
7 1 9.43453 8.66746e-16 -1.9879e-06 -8.94963
343 1 18.8691 9.43453 18.8691 -8.94964
48 1 15.7243 9.43453 22.0139 -8.9496
178 1 7.86202 1.57213 11.0071 -8.94977
179 1 11.007 1.57217 11.0071 -8.94953
180 1 14.1518 1.57227 11.007 -8.94979
342 1 15.7243 9.4345 18.8692 -8.94951
182 1 20.4415 1.57241 11.007 -8.94964
183 1 1.57232 4.71714 11.0069 -8.94964
45 1 6.28967 9.43452 22.0138 -8.94977
185 1 7.86135 4.71592 11.0078 -8.94796
186 1 11.0075 4.71643 11.0077 -8.9462
187 1 14.1523 4.71632 11.0069 -8.94993
341 1 12.5794 9.43442 18.8696 -8.95045
43 1 22.0139 9.43453 22.0139 -8.94964
340 1 9.43442 9.43443 18.869 -8.94923
339 1 6.28973 9.43453 18.8693 -8.95019
338 1 3.14478 9.43451 18.8692 -8.94958
337 1 22.0139 9.43453 18.8691 -8.94964
194 1 14.1562 7.85872 11.0073 -8.94625
195 1 17.2979 7.86148 11.007 -8.94969
196 1 20.4415 7.86196 11.007 -8.94979
197 1 -3.03823e-06 -9.87748e-16 12.5794 -8.94963
198 1 1.57241 1.5724 14.1518 -8.94965
199 1 3.14483 1.10835e-15 12.5794 -8.94965
200 1 4.71719 1.57228 14.1519 -8.94973
201 1 6.28962 1.93697e-15 12.5795 -8.94981
202 1 7.86214 1.57245 14.1518 -8.94948
203 1 9.43453 1.56741e-15 12.5794 -8.94945
204 1 11.0069 1.57242 14.1519 -8.94953
205 1 12.5794 5.84098e-16 12.5794 -8.94979
206 1 14.1518 1.57227 14.1519 -8.94978
207 1 15.7242 6.33666e-16 12.5794 -8.94968
208 1 17.2967 1.57238 14.1518 -8.94962
209 1 18.8691 1.00587e-15 12.5794 -8.94963
210 1 20.4415 1.57242 14.1518 -8.94964
211 1 22.0139 3.14482 12.5794 -8.94964
212 1 1.57232 4.71713 14.1518 -8.94971
213 1 3.14477 3.14472 12.5794 -8.94966
214 1 4.71687 4.71641 14.1523 -8.94972
215 1 6.28948 3.14426 12.5797 -8.95001
216 1 7.86248 4.71763 14.1518 -8.94929
217 1 9.43457 3.14489 12.5795 -8.949
218 1 11.0066 4.71743 14.1519 -8.949
219 1 12.5795 3.14424 12.5796 -8.95016
220 1 14.1521 4.71626 14.1522 -8.95044
221 1 15.7244 3.14461 12.5794 -8.94959
222 1 17.2968 4.71708 14.1519 -8.94956
223 1 18.8691 3.14481 12.5794 -8.94965
224 1 20.4415 4.71721 14.1518 -8.9496
225 1 -0.00011486 6.28955 12.5794 -8.94958
226 1 1.57151 7.86153 14.1524 -8.94961
227 1 3.14428 6.28911 12.5796 -8.94969
228 1 4.71406 7.85868 14.1553 -8.94241
229 1 6.28824 6.28694 12.5809 -8.95138
230 1 7.86442 7.86465 14.15 -8.95459
231 1 9.43494 6.2912 12.5781 -8.94736
232 1 11.0041 7.86442 14.15 -8.95241
233 1 12.5801 6.28666 12.5801 -8.95535
234 1 14.1566 7.857 14.1569 -8.9394
235 1 15.725 6.28883 12.5798 -8.94872
236 1 17.2977 7.8616 14.1523 -8.95033
237 1 18.8693 6.2895 12.5794 -8.9495
238 1 20.4415 7.86197 14.1519 -8.94985
239 1 22.0132 9.43431 12.5796 -8.95029
240 1 3.14071 9.43312 12.5809 -8.9515
241 1 6.27323 9.42257 12.5923 -8.96576
242 1 9.43492 9.44752 12.5654 -9.14656
243 1 12.6004 9.41511 12.5981 -8.98753
244 1 15.7282 9.4337 12.5802 -8.95488
245 1 18.8697 9.43439 12.5795 -8.95039
246 1 -1.74885e-06 -3.68438e-16 15.7242 -8.94964
247 1 1.5724 1.57239 17.2967 -8.9496
248 1 3.14481 1.45057e-16 15.7242 -8.94964
249 1 4.71729 1.57244 17.2966 -8.94964
250 1 6.28971 8.18941e-16 15.7242 -8.94959
251 1 7.86211 1.57242 17.2966 -8.94963
252 1 9.43452 1.1758e-15 15.7242 -8.94961
253 1 11.0069 1.57242 17.2966 -8.94963
254 1 12.5794 9.17286e-16 15.7242 -8.9496
255 1 14.1518 1.57243 17.2966 -8.94962
256 1 15.7242 1.91861e-15 15.7242 -8.94967
257 1 17.2967 1.57239 17.2967 -8.94962
258 1 18.8691 1.52995e-15 15.7242 -8.94963
259 1 20.4415 1.57242 17.2966 -8.94965
260 1 -1.24537e-05 3.14482 15.7242 -8.94966
261 1 1.57232 4.71714 17.2968 -8.9493
262 1 3.14474 3.14466 15.7243 -8.94957
263 1 4.71741 4.71734 17.2966 -8.95
264 1 6.28979 3.14492 15.7242 -8.9496
265 1 7.86216 4.71727 17.2966 -8.94966
266 1 9.43451 3.14485 15.7243 -8.94952
267 1 11.0069 4.71727 17.2966 -8.9497
268 1 12.5793 3.14486 15.7242 -8.94951
269 1 14.1516 4.71732 17.2966 -8.95005
270 1 15.7243 3.14462 15.7243 -8.9497
271 1 17.2968 4.71707 17.2968 -8.94912
272 1 18.8691 3.14481 15.7242 -8.94965
273 1 20.4415 4.71721 17.2967 -8.94957
274 1 22.0137 6.28953 15.7244 -8.94955
275 1 1.57234 7.86206 17.2968 -8.94967
276 1 3.14422 6.28894 15.725 -8.94799
277 1 4.71709 7.86187 17.2973 -8.95032
278 1 6.29036 6.2901 15.724 -8.9509
279 1 7.86227 7.86205 17.2965 -8.94899
280 1 9.43446 6.28989 15.724 -8.9493
281 1 11.0066 7.86207 17.2965 -8.94892
282 1 12.5786 6.29 15.7239 -8.95087
283 1 14.1522 7.86161 17.2977 -8.95036
284 1 15.7252 6.28857 15.7254 -8.94726
285 1 17.2968 7.86207 17.2968 -8.94965
286 1 18.8693 6.28953 15.7244 -8.94966
287 1 20.4415 7.8621 17.2967 -8.9496
288 1 22.0138 9.43449 15.7244 -8.94953
289 1 3.1444 9.43432 15.7248 -8.94932
290 1 6.28936 9.43437 15.726 -8.95401
291 1 9.43408 9.43527 15.7232 -8.94541
292 1 12.5803 9.4336 15.7276 -8.95429
293 1 15.7249 9.43431 15.7249 -8.94902
294 1 18.8692 9.43449 15.7244 -8.94948
295 1 22.0139 8.43399e-16 18.8691 -8.94962
296 1 1.57243 1.57242 20.4415 -8.94965
297 1 3.14485 8.13722e-16 18.8691 -8.94964
298 1 4.71727 1.57242 20.4415 -8.94963
299 1 6.28969 1.40367e-15 18.8691 -8.94963
300 1 7.86211 1.57242 20.4415 -8.94963
301 1 9.43453 1.89073e-15 18.8691 -8.94964
302 1 11.007 1.57242 20.4415 -8.94963
303 1 12.5794 2.35073e-16 18.8691 -8.94964
304 1 14.1518 1.57242 20.4415 -8.94963
305 1 15.7242 1.41027e-15 18.8691 -8.94964
306 1 17.2966 1.57242 20.4415 -8.94966
307 1 18.8691 8.98547e-16 18.8691 -8.94962
308 1 20.4415 1.57242 20.4415 -8.94961
309 1 -8.14671e-06 3.14482 18.8691 -8.94957
310 1 1.5724 4.71724 20.4415 -8.94962
311 1 3.14487 3.14486 18.869 -8.94972
312 1 4.71727 4.71726 20.4415 -8.9496
313 1 6.2897 3.14484 18.8691 -8.94963
314 1 7.86211 4.71726 20.4415 -8.94963
315 1 9.43453 3.14483 18.8691 -8.94963
316 1 11.0069 4.71726 20.4415 -8.94964
317 1 12.5794 3.14484 18.8691 -8.94964
318 1 14.1518 4.71726 20.4415 -8.94962
319 1 15.7242 3.14486 18.869 -8.94975
320 1 17.2967 4.71722 20.4415 -8.94959
321 1 18.8691 3.14481 18.8691 -8.94953
322 1 20.4415 4.71726 20.4415 -8.94966
323 1 22.0139 6.28968 18.8691 -8.94966
324 1 1.57241 7.8621 20.4415 -8.94962
325 1 3.14478 6.28961 18.8692 -8.94969
326 1 4.71725 7.86209 20.4415 -8.94981
327 1 6.28973 6.28967 18.869 -8.94949
328 1 7.86207 7.86202 20.4414 -8.94955
329 1 9.43451 6.28964 18.869 -8.94951
330 1 11.0069 7.86204 20.4415 -8.94948
331 1 12.5793 6.28967 18.869 -8.94948
332 1 14.1519 7.86202 20.4416 -8.94987
333 1 15.7243 6.28954 18.8693 -8.94967
334 1 17.2967 7.86211 20.4415 -8.94962
335 1 18.8691 6.28968 18.8691 -8.94967
336 1 20.4415 7.86211 20.4415 -8.94964
3 1 3.14484 1.81182e-16 22.0139 -8.94963
41 1 18.8691 6.28969 22.0139 -8.94965
11 1 15.7242 1.4366e-15 22.0139 -8.94963
19 1 6.28969 3.14484 22.0139 -8.94965
25 1 15.7242 3.14484 22.0139 -8.94966
31 1 3.14482 6.28966 22.0139 -8.94968
35 1 9.43453 6.28964 22.0139 -8.94958
37 1 12.5794 6.28965 22.0139 -8.94957
15 1 22.0139 3.14484 22.0139 -8.94962
46 1 9.43441 9.43438 22.0136 -8.94957
176 1 1.5724 1.5724 11.0069 -8.94963
344 1 1.57239 11.007 1.57239 -8.94963
345 1 4.71717 11.007 1.57224 -8.94968
346 1 7.86208 11.007 1.57218 -8.94945
347 1 11.0069 11.007 1.5709 -8.95217
348 1 14.1519 11.007 1.57223 -8.94934
349 1 17.2967 11.007 1.57239 -8.94963
350 1 20.4415 11.007 1.57241 -8.94963
688 2 10.2091 11.007 9.47598 0.665846
352 1 1.57239 14.1518 1.57239 -8.94963
353 1 3.14481 12.5794 -1.70451e-05 -8.94964
354 1 4.71719 14.1518 1.57228 -8.9498
511 1 18.8691 18.8691 9.43453 -8.94965
356 1 7.86194 14.152 1.57211 -8.94944
538 1 17.2967 20.4415 11.007 -8.94961
358 1 11.0069 14.1519 1.57228 -8.94933
359 1 12.5795 12.5795 -0.000270331 -8.94993
360 1 14.1521 14.1521 1.57201 -8.94963
510 1 15.7244 18.8693 9.4345 -8.94951
362 1 17.2967 14.1518 1.57241 -8.94969
363 1 18.8691 12.5794 -2.97964e-06 -8.94963
364 1 20.4415 14.1518 1.57241 -8.94963
365 1 -5.22817e-06 15.7242 -1.58544e-06 -8.94963
366 1 1.5724 17.2967 1.57239 -8.94962
509 1 12.5793 18.8695 9.43453 -8.95012
368 1 4.71724 17.2967 1.57238 -8.94959
369 1 6.28964 15.7243 -7.47225e-05 -8.94956
370 1 7.86212 17.2967 1.5724 -8.94965
508 1 9.43455 18.8705 9.43454 -8.95218
372 1 11.0069 17.2967 1.57238 -8.94963
507 1 6.28964 18.8694 9.43452 -8.94973
374 1 14.1518 17.2967 1.57241 -8.94969
375 1 15.7243 15.7243 -6.64285e-05 -8.94963
376 1 17.2967 17.2967 1.57235 -8.94953
506 1 3.14477 18.8692 9.43451 -8.9496
378 1 20.4415 17.2966 1.57241 -8.94965
531 1 17.2968 17.2968 11.007 -8.94966
380 1 1.57242 20.4415 1.57242 -8.94963
381 1 3.14484 18.8691 -8.82985e-06 -8.94963
382 1 4.71727 20.4415 1.57242 -8.94966
505 1 -1.27975e-05 18.8691 9.43453 -8.94964
384 1 7.86211 20.4415 1.57241 -8.94963
385 1 9.43453 18.8691 -8.9164e-06 -8.94964
386 1 11.007 20.4415 1.57241 -8.94963
387 1 12.5794 18.8691 -8.58006e-06 -8.94964
388 1 14.1518 20.4415 1.57242 -8.94964
504 1 18.8693 15.7244 9.43448 -8.94947
390 1 17.2966 20.4415 1.57242 -8.94965
391 1 18.8691 18.8691 -4.04862e-06 -8.9496
392 1 20.4415 20.4415 1.57242 -8.94961
393 1 1.57224 11.007 4.7171 -8.94963
394 1 4.71672 11.007 4.71648 -8.94909
395 1 7.86217 11.007 4.71682 -8.9489
396 1 11.0073 11.007 4.70849 -8.96156
397 1 14.1519 11.007 4.7169 -8.94963
398 1 17.2968 11.007 4.71711 -8.94947
399 1 20.4415 11.007 4.71721 -8.94962
400 1 -2.92307e-05 12.5794 3.14481 -8.94963
401 1 1.57227 14.1519 4.71711 -8.94966
402 1 3.14471 12.5794 3.14465 -8.94957
403 1 4.71684 14.1522 4.7165 -8.95002
404 1 6.28952 12.5794 3.14437 -8.95035
405 1 7.86185 14.1522 4.71665 -8.94955
406 1 9.43386 12.58 3.14387 -8.94789
407 1 11.0065 14.1517 4.71729 -8.94915
408 1 12.5801 12.5802 3.14326 -8.94923
409 1 14.1529 14.153 4.71581 -8.94897
410 1 15.7244 12.5793 3.14476 -8.94973
411 1 17.2968 14.1518 4.71714 -8.94996
412 1 18.8691 12.5794 3.14481 -8.94962
413 1 20.4415 14.1518 4.71722 -8.94964
414 1 22.0139 15.7242 3.14481 -8.94965
415 1 1.5723 17.2968 4.71714 -8.94935
416 1 3.14473 15.7243 3.14467 -8.94965
417 1 4.7172 17.2968 4.71714 -8.94952
418 1 6.2896 15.7244 3.14461 -8.9495
419 1 7.86222 17.2967 4.71722 -8.9501
420 1 9.43454 15.7244 3.14482 -8.94942
421 1 11.0069 17.2967 4.71715 -8.94973
422 1 12.5793 15.7243 3.14483 -8.94978
423 1 14.1518 17.2968 4.71722 -8.95002
424 1 15.7245 15.7245 3.14446 -8.9493
425 1 17.2968 17.2968 4.71709 -8.94923
426 1 18.8691 15.7242 3.14481 -8.94971
427 1 20.4415 17.2967 4.71721 -8.94957
428 1 -1.09513e-05 18.8691 3.14482 -8.94957
429 1 1.57241 20.4415 4.71725 -8.94965
430 1 3.14483 18.8691 3.14482 -8.94962
431 1 4.71721 20.4415 4.71721 -8.94955
432 1 6.2897 18.8691 3.14482 -8.94974
433 1 7.86212 20.4415 4.71724 -8.94961
434 1 9.43453 18.8691 3.1448 -8.94962
435 1 11.0069 20.4415 4.71723 -8.94961
436 1 12.5794 18.8691 3.14481 -8.94966
437 1 14.1518 20.4415 4.71721 -8.94957
438 1 15.7242 18.8691 3.14482 -8.94971
439 1 17.2967 20.4415 4.71724 -8.94963
440 1 18.8691 18.8691 3.14482 -8.94956
441 1 20.4415 20.4415 4.71726 -8.94965
442 1 1.57149 11.007 7.86169 -8.9495
443 1 4.71406 11.007 7.86035 -8.94837
444 1 7.85671 11.007 7.86321 -9.05184
445 1 11.0278 11.007 7.8229 -9.27141
446 1 14.1522 11.007 7.86229 -8.99665
447 1 17.2974 11.007 7.86168 -8.94841
448 1 20.4415 11.007 7.86196 -8.94963
449 1 22.0137 12.5794 6.28955 -8.94959
450 1 1.57153 14.1523 7.86159 -8.94971
451 1 3.14417 12.5796 6.28905 -8.94952
452 1 4.714 14.1548 7.8591 -8.9449
453 1 6.2884 12.5797 6.2874 -8.9529
454 1 7.86043 14.1524 7.86113 -8.98545
455 1 9.43255 12.5796 6.29005 -8.99981
456 1 11.006 14.1491 7.86461 -9.00589
457 1 12.5823 12.5833 6.28573 -8.98467
458 1 14.156 14.1561 7.85863 -8.94187
459 1 15.7248 12.5793 6.28946 -8.95071
460 1 17.2977 14.1524 7.86161 -8.95011
461 1 18.8692 12.5794 6.28956 -8.94955
462 1 20.4415 14.1519 7.86196 -8.94985
463 1 -0.000153613 15.7244 6.28954 -8.94959
464 1 1.57234 17.2968 7.86207 -8.94964
465 1 3.14412 15.7249 6.28899 -8.94841
466 1 4.71705 17.2972 7.86194 -8.95044
467 1 6.28939 15.7247 6.28914 -8.94898
468 1 7.86154 17.2978 7.86138 -8.94826
469 1 9.43477 15.724 6.29043 -8.95072
470 1 11.0073 17.2974 7.86148 -8.94699
471 1 12.579 15.7246 6.28985 -8.95163
472 1 14.1522 17.2975 7.86187 -8.95063
473 1 15.7251 15.7252 6.28879 -8.94767
474 1 17.2968 17.2968 7.86203 -8.9496
475 1 18.8693 15.7244 6.28951 -8.94959
476 1 20.4415 17.2967 7.86209 -8.94959
477 1 22.0139 18.8691 6.28968 -8.94965
478 1 1.57241 20.4415 7.8621 -8.94963
479 1 3.14477 18.8692 6.28963 -8.94976
480 1 4.71723 20.4416 7.8621 -8.94972
481 1 6.28949 18.8693 6.28944 -8.94935
482 1 7.862 20.4417 7.86196 -8.94974
483 1 9.43456 18.8692 6.2896 -8.94927
484 1 11.007 20.4417 7.86195 -8.94955
485 1 12.5795 18.8693 6.28949 -8.94937
486 1 14.1518 20.4416 7.86209 -8.94983
487 1 15.7243 18.8693 6.28958 -8.94972
488 1 17.2967 20.4415 7.8621 -8.94961
489 1 18.8691 18.8691 6.28967 -8.94965
490 1 20.4415 20.4415 7.86211 -8.94964
491 1 -0.000671983 12.5796 9.43431 -8.95016
492 1 3.14106 12.5807 9.43318 -8.95062
493 1 6.27587 12.5894 9.42366 -9.02199
494 1 9.41074 12.6221 9.44401 -9.34059
495 1 12.5978 12.5955 9.42327 -9.00013
496 1 15.7281 12.5803 9.43378 -8.95397
497 1 18.8697 12.5795 9.43436 -8.9504
498 1 22.0138 15.7244 9.43449 -8.94953
499 1 3.14439 15.7248 9.43434 -8.94911
500 1 6.28955 15.7258 9.43441 -8.95338
501 1 9.4342 15.7324 9.43595 -8.96456
502 1 12.5795 15.7266 9.43444 -8.95506
503 1 15.725 15.7251 9.43429 -8.94849
512 1 1.56944 11.007 11.0069 -8.95288
687 2 9.44026 11.007 10.9395 0.690164
513 1 4.70234 11.007 11.0072 -8.97839
516 1 14.1557 11.007 11.0065 -9.03044
519 1 1.57153 14.1522 11.0069 -8.94951
520 1 4.71408 14.1535 11.0069 -8.94932
521 1 7.85494 14.1526 11.0128 -9.04505
522 1 11.0119 14.148 11.0089 -9.0652
527 1 4.71694 17.2971 11.0069 -8.94973
532 1 20.4415 17.2967 11.007 -8.94961
534 1 4.71722 20.4416 11.0069 -8.94967
686 1 20.4415 20.4415 20.4415 -8.94961
685 1 18.8691 18.8691 18.8691 -8.94953
514 1 7.72903 11.007 11.0128 -9.2032
515 1 11.1733 11.007 11.0544 -9.3164
684 1 17.2966 20.4415 20.4415 -8.94966
517 1 17.2985 11.007 11.0069 -8.94924
518 1 20.4414 11.007 11.007 -8.95037
683 1 15.7242 18.869 18.869 -8.94975
682 1 14.1518 20.4415 20.4415 -8.94963
681 1 12.5794 18.8691 18.8691 -8.94964
680 1 11.007 20.4415 20.4415 -8.94963
523 1 14.1562 14.1552 11.0073 -8.94625
524 1 17.2979 14.1524 11.007 -8.94969
525 1 20.4415 14.1519 11.007 -8.94979
526 1 1.57232 17.2968 11.0069 -8.94964
389 1 15.7242 18.8691 22.0139 -8.94966
528 1 7.86135 17.298 11.0078 -8.94796
529 1 11.0075 17.2975 11.0077 -8.9462
530 1 14.1523 17.2976 11.0069 -8.94993
679 1 9.43453 18.8691 18.8691 -8.94963
383 1 6.28969 18.8691 22.0139 -8.94965
678 1 7.86211 20.4415 20.4415 -8.94963
377 1 18.8691 15.7242 22.0139 -8.94965
535 1 7.86202 20.4418 11.0071 -8.94977
536 1 11.007 20.4417 11.0071 -8.94953
537 1 14.1518 20.4416 11.007 -8.94979
677 1 6.2897 18.8691 18.8691 -8.94963
539 1 20.4415 20.4415 11.007 -8.94964
540 1 1.57151 11.007 14.1523 -8.94935
541 1 4.71428 11.007 14.154 -8.94685
542 1 7.86001 11.007 14.1485 -9.01241
543 1 11.01 11.007 14.155 -9.02457
544 1 14.1553 11.007 14.1547 -8.94694
545 1 17.2977 11.007 14.1524 -8.94937
546 1 20.4415 11.007 14.152 -8.94973
547 1 22.0132 12.5796 12.5796 -8.95029
548 1 1.57151 14.1524 14.1524 -8.94961
549 1 3.14071 12.5808 12.5809 -8.9515
550 1 4.71406 14.1552 14.1553 -8.94241
551 1 6.27323 12.5913 12.5923 -8.96576
552 1 7.86442 14.1493 14.15 -8.95459
553 1 9.43492 12.5664 12.5654 -9.14656
554 1 11.0041 14.1495 14.15 -8.95241
555 1 12.6004 12.5988 12.5981 -8.98753
556 1 14.1566 14.1569 14.1569 -8.9394
557 1 15.7282 12.5802 12.5802 -8.95488
558 1 17.2977 14.1523 14.1523 -8.95033
559 1 18.8697 12.5795 12.5795 -8.95039
560 1 20.4415 14.1519 14.1519 -8.94985
561 1 -0.00011486 15.7244 12.5794 -8.94958
562 1 1.57232 17.2968 14.1518 -8.94971
563 1 3.14428 15.7248 12.5796 -8.94969
564 1 4.71687 17.2975 14.1523 -8.94972
565 1 6.28824 15.727 12.5809 -8.95138
566 1 7.86248 17.2963 14.1518 -8.94929
567 1 9.43494 15.7227 12.5781 -8.94736
568 1 11.0066 17.2965 14.1519 -8.949
569 1 12.5801 15.7272 12.5801 -8.95535
570 1 14.1521 17.2976 14.1522 -8.95044
571 1 15.725 15.7251 12.5798 -8.94872
572 1 17.2968 17.2968 14.1519 -8.94956
573 1 18.8693 15.7244 12.5794 -8.9495
574 1 20.4415 17.2967 14.1518 -8.9496
575 1 22.0139 18.8691 12.5794 -8.94964
576 1 1.57241 20.4415 14.1518 -8.94965
577 1 3.14477 18.8692 12.5794 -8.94966
578 1 4.71719 20.4416 14.1519 -8.94973
579 1 6.28948 18.8696 12.5797 -8.95001
580 1 7.86214 20.4415 14.1518 -8.94948
581 1 9.43457 18.869 12.5795 -8.949
582 1 11.0069 20.4415 14.1519 -8.94953
583 1 12.5795 18.8697 12.5796 -8.95016
584 1 14.1518 20.4416 14.1519 -8.94978
585 1 15.7244 18.8693 12.5794 -8.94959
586 1 17.2967 20.4415 14.1518 -8.94962
587 1 18.8691 18.8691 12.5794 -8.94965
588 1 20.4415 20.4415 14.1518 -8.94964
589 1 1.57233 11.007 17.2968 -8.94966
590 1 4.71698 11.007 17.2973 -8.94952
591 1 7.86222 11.007 17.2965 -8.94829
592 1 11.0067 11.007 17.2976 -8.95029
593 1 14.1522 11.007 17.2975 -8.94936
594 1 17.2968 11.007 17.2968 -8.94967
595 1 20.4415 11.007 17.2967 -8.94961
596 1 22.0138 12.5794 15.7244 -8.94953
597 1 1.57234 14.1518 17.2968 -8.94967
598 1 3.1444 12.5796 15.7248 -8.94932
599 1 4.71709 14.152 17.2973 -8.95032
600 1 6.28936 12.5795 15.726 -8.95401
601 1 7.86227 14.1519 17.2965 -8.94899
602 1 9.43408 12.5786 15.7232 -8.94541
603 1 11.0066 14.1518 17.2965 -8.94892
604 1 12.5803 12.5803 15.7276 -8.95429
605 1 14.1522 14.1523 17.2977 -8.95036
606 1 15.7249 12.5796 15.7249 -8.94902
607 1 17.2968 14.1518 17.2968 -8.94965
608 1 18.8692 12.5794 15.7244 -8.94948
609 1 20.4415 14.1518 17.2967 -8.9496
610 1 22.0137 15.7244 15.7244 -8.94955
611 1 1.57232 17.2968 17.2968 -8.9493
612 1 3.14422 15.725 15.725 -8.94799
613 1 4.71741 17.2966 17.2966 -8.95
614 1 6.29036 15.7238 15.724 -8.9509
615 1 7.86216 17.2966 17.2966 -8.94966
616 1 9.43446 15.724 15.724 -8.9493
617 1 11.0069 17.2966 17.2966 -8.9497
618 1 12.5786 15.7239 15.7239 -8.95087
619 1 14.1516 17.2966 17.2966 -8.95005
620 1 15.7252 15.7253 15.7254 -8.94726
621 1 17.2968 17.2968 17.2968 -8.94912
622 1 18.8693 15.7244 15.7244 -8.94966
623 1 20.4415 17.2967 17.2967 -8.94957
624 1 -1.24537e-05 18.8691 15.7242 -8.94966
625 1 1.5724 20.4415 17.2967 -8.9496
626 1 3.14474 18.8692 15.7243 -8.94957
627 1 4.71729 20.4415 17.2966 -8.94964
628 1 6.28979 18.869 15.7242 -8.9496
629 1 7.86211 20.4415 17.2966 -8.94963
630 1 9.43451 18.869 15.7243 -8.94952
631 1 11.0069 20.4415 17.2966 -8.94963
632 1 12.5793 18.869 15.7242 -8.94951
633 1 14.1518 20.4415 17.2966 -8.94962
634 1 15.7243 18.8693 15.7243 -8.9497
635 1 17.2967 20.4415 17.2967 -8.94962
636 1 18.8691 18.8691 15.7242 -8.94965
637 1 20.4415 20.4415 17.2966 -8.94965
638 1 1.57241 11.007 20.4415 -8.94963
639 1 4.71723 11.007 20.4415 -8.94974
640 1 7.86212 11.007 20.4415 -8.94949
641 1 11.0069 11.007 20.4414 -8.95016
642 1 14.1519 11.007 20.4416 -8.94967
643 1 17.2967 11.007 20.4415 -8.94963
644 1 20.4415 11.007 20.4415 -8.94964
645 1 22.0139 12.5794 18.8691 -8.94964
646 1 1.57241 14.1518 20.4415 -8.94962
647 1 3.14478 12.5794 18.8692 -8.94958
648 1 4.71725 14.1518 20.4415 -8.94981
649 1 6.28973 12.5794 18.8693 -8.95019
650 1 7.86207 14.1519 20.4414 -8.94955
651 1 9.43442 12.5795 18.869 -8.94923
652 1 11.0069 14.1519 20.4415 -8.94948
653 1 12.5794 12.5795 18.8696 -8.95045
654 1 14.1519 14.1519 20.4416 -8.94987
655 1 15.7243 12.5794 18.8692 -8.94951
656 1 17.2967 14.1518 20.4415 -8.94962
657 1 18.8691 12.5794 18.8691 -8.94964
658 1 20.4415 14.1518 20.4415 -8.94964
659 1 22.0139 15.7242 18.8691 -8.94966
660 1 1.5724 17.2967 20.4415 -8.94962
661 1 3.14478 15.7243 18.8692 -8.94969
662 1 4.71727 17.2966 20.4415 -8.9496
663 1 6.28973 15.7242 18.869 -8.94949
664 1 7.86211 17.2966 20.4415 -8.94963
665 1 9.43451 15.7243 18.869 -8.94951
666 1 11.0069 17.2966 20.4415 -8.94964
667 1 12.5793 15.7242 18.869 -8.94948
668 1 14.1518 17.2966 20.4415 -8.94962
669 1 15.7243 15.7244 18.8693 -8.94967
670 1 17.2967 17.2967 20.4415 -8.94959
671 1 18.8691 15.7242 18.8691 -8.94967
672 1 20.4415 17.2966 20.4415 -8.94966
673 1 -8.14671e-06 18.8691 18.8691 -8.94957
674 1 1.57243 20.4415 20.4415 -8.94965
675 1 3.14487 18.869 18.869 -8.94972
676 1 4.71727 20.4415 20.4415 -8.94963
351 1 22.0139 12.5794 22.0139 -8.94964
355 1 6.28967 12.5794 22.0138 -8.94977
361 1 15.7243 12.5794 22.0139 -8.9496
367 1 3.14482 15.7242 22.0139 -8.94968
371 1 9.43453 15.7243 22.0139 -8.94958
373 1 12.5794 15.7243 22.0139 -8.94957
357 1 9.43441 12.5795 22.0136 -8.94957
379 1 22.0139 18.8691 22.0139 -8.94962
533 1 1.5724 20.4415 11.0069 -8.94963
