ITEM: TIMESTEP
111
ITEM: NUMBER OF ATOMS
688
ITEM: BOX BOUNDS pp pp pp
0.0000000000000000e+00 2.2013900999999997e+01
0.0000000000000000e+00 2.2013900999999997e+01
0.0000000000000000e+00 2.2013900999999997e+01
ITEM: ATOMS id type x y z c_pot
1 1 1.73764e-05 2.38426e-14 0.000929221 -8.94952
2 1 1.57239 1.57216 1.5733 -8.94951
175 1 18.8707 9.43391 9.43504 -8.94977
4 1 4.71722 1.5722 1.5734 -8.94967
5 1 6.28966 3.29124e-15 0.00109725 -8.9496
6 1 7.86208 1.57222 1.57342 -8.9496
174 1 15.7289 9.43313 9.43369 -8.94783
8 1 11.0069 1.5722 1.57327 -8.9496
9 1 12.5793 -1.91138e-14 0.000882688 -8.9496
10 1 14.1519 1.57211 1.57308 -8.94964
173 1 12.5866 9.43258 9.42985 -9.03202
12 1 17.2969 1.57204 1.573 -8.94956
13 1 18.8692 1.03366e-14 0.000775167 -8.94952
14 1 20.4416 1.57212 1.57319 -8.94956
193 1 11.0109 7.86077 11.0122 -9.05688
16 1 1.57231 4.71664 1.5733 -8.94953
17 1 3.1447 3.14436 0.00111423 -8.94958
18 1 4.717 4.71666 1.57337 -8.94961
172 1 9.41608 9.35745 9.41764 -9.37214
20 1 7.86201 4.71671 1.57339 -8.94958
21 1 9.43447 3.14445 0.00105583 -8.94959
22 1 11.007 4.71665 1.57306 -8.94957
23 1 12.5794 3.14439 0.000819879 -8.9496
24 1 14.1522 4.71639 1.57268 -8.94979
171 1 6.28884 9.43322 9.43267 -9.03924
26 1 17.2975 4.71619 1.57253 -8.9491
27 1 18.8693 3.14423 0.000697367 -8.9494
28 1 20.4418 4.71655 1.57302 -8.94953
29 1 -1.83461e-05 6.2891 0.00102574 -8.94959
30 1 1.57226 7.86165 1.57336 -8.94963
170 1 3.14199 9.43323 9.43524 -8.9465
32 1 4.71672 7.86155 1.57332 -8.94979
33 1 6.28928 6.28901 0.00129819 -8.94959
34 1 7.86169 7.86133 1.57293 -8.94951
169 1 -0.000732416 9.43394 9.43538 -8.9496
36 1 11.0072 7.86131 1.57219 -8.94924
168 1 18.8697 6.28887 9.4353 -8.94949
38 1 14.1535 7.86068 1.57095 -8.94982
39 1 15.7251 6.28865 8.82068e-05 -8.94956
40 1 17.2979 7.86128 1.57218 -8.94955
167 1 15.7256 6.28864 9.4352 -8.94908
42 1 20.442 7.86159 1.57294 -8.94958
166 1 12.5801 6.28893 9.43529 -8.95079
44 1 3.14432 9.43426 0.00148026 -8.94962
165 1 9.43439 6.27358 9.43574 -8.97214
192 1 7.85734 7.86155 11.0149 -9.03345
47 1 12.5801 9.43397 -0.000503407 -8.95047
164 1 6.28945 6.28882 9.43656 -8.95117
49 1 18.8697 9.43424 0.000523405 -8.94957
50 1 22.014 -1.73416e-14 3.14565 -8.94962
51 1 1.57237 1.57218 4.71809 -8.94967
52 1 3.1447 -4.02519e-15 3.14563 -8.9495
53 1 4.71693 1.57205 4.71794 -8.9495
54 1 6.28965 -2.9021e-15 3.14575 -8.94963
55 1 7.86208 1.5722 4.71811 -8.94956
56 1 9.43453 1.19694e-14 3.14573 -8.94962
57 1 11.0071 1.57215 4.71797 -8.94955
58 1 12.5795 -4.43612e-15 3.14554 -8.94962
59 1 14.1523 1.57191 4.71773 -8.94971
60 1 15.7245 -1.18888e-14 3.14538 -8.94965
61 1 17.297 1.57206 4.71789 -8.94967
62 1 18.8693 1.40561e-14 3.14553 -8.94962
63 1 20.4417 1.57215 4.71799 -8.94961
64 1 9.07881e-05 3.14435 3.14558 -8.94958
65 1 1.57225 4.71663 4.71796 -8.94961
66 1 3.14462 3.14432 3.1456 -8.94943
67 1 4.71658 4.71625 4.7177 -8.94901
68 1 6.2896 3.14445 3.14572 -8.94979
69 1 7.86216 4.71672 4.71801 -8.95024
70 1 9.43455 3.14441 3.14565 -8.94959
71 1 11.0072 4.71655 4.71753 -8.94961
72 1 12.5796 3.14426 3.14533 -8.94964
73 1 14.1531 4.7155 4.71693 -8.94998
74 1 15.7248 3.14391 3.14509 -8.94962
75 1 17.2977 4.71619 4.71744 -8.94955
76 1 18.8695 3.1442 3.14538 -8.94958
77 1 20.4419 4.71654 4.71778 -8.94955
78 1 22.0141 6.28903 3.14542 -8.94966
79 1 1.57208 7.86152 4.71779 -8.94978
80 1 3.14436 6.28892 3.14546 -8.94935
81 1 4.71585 7.86089 4.71711 -8.94855
82 1 6.28922 6.28891 3.1453 -8.94976
83 1 7.86142 7.86108 4.71662 -8.95094
84 1 9.43457 6.28886 3.14531 -8.94922
85 1 11.0072 7.86158 4.71594 -8.95061
86 1 12.58 6.28865 3.14447 -8.9501
87 1 14.1574 7.85749 4.71235 -8.94344
88 1 15.7264 6.28762 3.14358 -8.94789
89 1 17.2993 7.86071 4.71632 -8.94989
90 1 18.8702 6.28869 3.14487 -8.94957
91 1 20.4424 7.86146 4.71752 -8.94984
92 1 0.000272451 9.43425 3.14539 -8.94961
93 1 3.14432 9.43423 3.14552 -8.94958
94 1 6.28889 9.43412 3.14474 -8.95052
95 1 9.43402 9.43327 3.14355 -8.94648
96 1 12.5823 9.43273 3.13993 -8.95157
97 1 15.7268 9.43366 3.14308 -8.94932
98 1 18.8705 9.43411 3.14468 -8.94953
99 1 2.73306e-05 -1.08875e-14 6.29048 -8.9496
100 1 1.57229 1.57219 7.86298 -8.9496
101 1 3.14469 3.64254e-16 6.29057 -8.94963
102 1 4.71697 1.57218 7.86311 -8.94956
103 1 6.28933 3.67546e-16 6.2904 -8.94975
104 1 7.86173 1.57164 7.86287 -8.95004
105 1 9.43459 1.89924e-14 6.29049 -8.94948
106 1 11.0074 1.57174 7.86283 -8.94971
107 1 12.5798 -3.06497e-16 6.29031 -8.94977
108 1 14.1522 1.57211 7.86295 -8.94966
109 1 15.7245 -3.70801e-15 6.29042 -8.9497
110 1 17.2969 1.57214 7.86289 -8.94961
111 1 18.8693 1.09797e-14 6.29043 -8.94962
112 1 20.4416 1.57217 7.86289 -8.94961
113 1 22.014 3.14439 6.29045 -8.94961
114 1 1.57215 4.71664 7.86299 -8.94958
115 1 3.14459 3.14441 6.29058 -8.94979
116 1 4.71672 4.71667 7.86329 -8.95024
117 1 6.28896 3.14374 6.29009 -8.94934
118 1 7.86049 4.71419 7.86176 -8.94811
119 1 9.43472 3.14416 6.29045 -8.94923
120 1 11.0087 4.71497 7.8617 -8.94663
121 1 12.5802 3.14366 6.28991 -8.94967
122 1 14.1529 4.7163 7.86272 -8.95026
123 1 15.7249 3.14411 6.29026 -8.94976
124 1 17.2974 4.71645 7.86271 -8.94961
125 1 18.8695 3.14428 6.29033 -8.94962
126 1 20.4417 4.71659 7.86283 -8.94956
127 1 5.47714e-05 6.28895 6.29025 -8.94959
128 1 1.57153 7.86128 7.86278 -8.94951
129 1 3.14402 6.28886 6.29032 -8.94975
130 1 4.71514 7.86103 7.86267 -8.95092
131 1 6.28771 6.28746 6.28901 -8.94727
132 1 7.85585 7.85723 7.85732 -9.00955
133 1 9.43528 6.28888 6.29087 -8.95117
134 1 11.0135 7.86159 7.85887 -9.03341
135 1 12.5819 6.28678 6.28829 -8.95179
136 1 14.1565 7.8599 7.86074 -8.9483
137 1 15.7264 6.2881 6.28926 -8.94924
138 1 17.2991 7.8609 7.86198 -8.94942
139 1 18.8702 6.28871 6.28992 -8.94947
140 1 20.4421 7.86134 7.8626 -8.94968
141 1 22.014 9.4342 6.29022 -8.94995
142 1 3.14334 9.4341 6.29009 -8.95052
143 1 6.28531 9.43269 6.28674 -8.94697
144 1 9.43131 9.43329 6.29053 -9.03925
145 1 12.5953 9.4236 6.27368 -8.97401
146 1 15.73 9.43298 6.28701 -8.95207
147 1 18.8711 9.43403 6.28956 -8.95026
148 1 -8.41389e-05 2.98461e-15 9.43537 -8.9496
149 1 3.14458 4.29654e-15 9.43551 -8.94962
150 1 6.28935 1.13385e-15 9.43567 -8.94948
151 1 9.43454 -7.99521e-15 9.43567 -8.95098
152 1 12.5797 3.30122e-15 9.43556 -8.94945
153 1 15.7245 -3.01518e-16 9.43543 -8.94964
154 1 18.8692 2.98151e-15 9.43535 -8.9496
155 1 -0.000119443 3.14438 9.43541 -8.94959
156 1 3.14444 3.14435 9.43558 -8.94959
157 1 6.28923 3.14413 9.43586 -8.94924
158 1 9.43455 3.14178 9.43575 -8.95453
159 1 12.5798 3.14424 9.43556 -8.9493
160 1 15.7247 3.14431 9.43541 -8.94958
161 1 18.8693 3.14436 9.43535 -8.9496
162 1 22.0136 6.28891 9.43544 -8.94949
163 1 3.14392 6.28878 9.43571 -8.94922
191 1 4.71442 7.86152 11.0084 -8.9506
181 1 17.2968 1.57218 11.0079 -8.9496
188 1 17.2971 4.71661 11.0079 -8.94953
190 1 1.57077 7.86124 11.0083 -8.94924
177 1 4.71681 1.57212 11.0082 -8.94955
184 1 4.71622 4.71649 11.0084 -8.9496
189 1 20.4414 4.71661 11.0079 -8.94956
7 1 9.43448 -1.21865e-14 0.00103466 -8.9496
343 1 18.8692 9.43426 18.8703 -8.94958
48 1 15.7253 9.43409 22.0138 -8.94954
178 1 7.86169 1.57174 11.0085 -8.94971
179 1 11.0073 1.57176 11.0084 -8.94975
180 1 14.1521 1.57219 11.008 -8.94958
342 1 15.7248 9.4342 18.8703 -8.9496
182 1 20.4414 1.57218 11.0078 -8.9496
183 1 1.5718 4.71656 11.0081 -8.94957
45 1 6.28916 9.43423 22.0154 -8.94996
185 1 7.86042 4.71494 11.01 -8.94665
186 1 11.0084 4.71498 11.0096 -8.94707
187 1 14.1526 4.71665 11.008 -8.94986
341 1 12.5798 9.43403 18.8711 -8.95017
43 1 22.0139 9.43429 22.015 -8.94959
340 1 9.43395 9.43394 18.8719 -8.94975
339 1 6.28848 9.43405 18.8724 -8.95027
338 1 3.14358 9.43412 18.8717 -8.94954
337 1 22.0133 9.43423 18.8708 -8.94957
194 1 14.1545 7.86135 11.0076 -8.95011
195 1 17.2981 7.86133 11.0079 -8.94939
196 1 20.4414 7.86137 11.008 -8.94954
197 1 -0.000205531 -1.1835e-14 12.5803 -8.9496
198 1 1.57202 1.57209 14.1529 -8.94964
199 1 3.14444 -2.22424e-15 12.5805 -8.94962
200 1 4.71667 1.5719 14.1534 -8.94971
201 1 6.28922 1.08966e-15 12.5809 -8.94978
202 1 7.86191 1.57212 14.1533 -8.94966
203 1 9.43448 -7.65124e-15 12.5808 -8.94945
204 1 11.007 1.5722 14.1532 -8.94958
205 1 12.5797 1.37664e-14 12.5808 -8.94973
206 1 14.1521 1.57203 14.1532 -8.94962
207 1 15.7244 -1.27312e-14 12.5804 -8.94964
208 1 17.2968 1.57216 14.1528 -8.94966
209 1 18.8691 -6.97726e-15 12.5803 -8.94961
210 1 20.4413 1.57215 14.1528 -8.94961
211 1 22.0136 3.14432 12.5804 -8.94959
212 1 1.57151 4.71633 14.1533 -8.94979
213 1 3.14416 3.14421 12.5807 -8.94964
214 1 4.71575 4.71546 14.1543 -8.94998
215 1 6.28874 3.14364 12.5814 -8.94968
216 1 7.86157 4.71633 14.1541 -8.95025
217 1 9.43442 3.14425 12.581 -8.94929
218 1 11.0068 4.71669 14.1537 -8.94986
219 1 12.58 3.14384 12.5811 -8.94959
220 1 14.1525 4.71601 14.1536 -8.94969
221 1 15.7246 3.14437 12.5805 -8.94971
222 1 17.297 4.71653 14.1531 -8.94974
223 1 18.8691 3.14437 12.5804 -8.9496
224 1 20.4412 4.71654 14.153 -8.94959
225 1 -0.000764707 6.28884 12.5807 -8.94952
226 1 1.56964 7.86063 14.1546 -8.94981
227 1 3.14313 6.28858 12.5812 -8.9501
228 1 4.71101 7.85745 14.1587 -8.9434
229 1 6.28693 6.28674 12.5831 -8.95178
230 1 7.85947 7.85995 14.1577 -8.94835
231 1 9.43402 6.28897 12.5813 -8.95075
232 1 11.0064 7.86141 14.1556 -8.95015
233 1 12.5809 6.2873 12.5821 -8.9512
234 1 14.1549 7.85912 14.1561 -8.94527
235 1 15.7252 6.2888 12.5807 -8.94997
236 1 17.2979 7.86103 14.1538 -8.94967
237 1 18.8693 6.28892 12.5806 -8.94954
238 1 20.4409 7.8613 14.1536 -8.94992
239 1 22.012 9.43394 12.5812 -8.95047
240 1 3.13845 9.43269 12.5836 -8.95157
241 1 6.27214 9.42356 12.5966 -8.97393
242 1 9.42848 9.43272 12.5878 -9.03223
243 1 12.5884 9.42544 12.5896 -9.00804
244 1 15.7281 9.43307 12.5821 -8.94985
245 1 18.8699 9.434 12.5809 -8.95017
246 1 -0.000239726 1.28223e-14 15.7253 -8.94962
247 1 1.57206 1.57203 17.298 -8.94956
248 1 3.14441 -8.00226e-15 15.7256 -8.94965
249 1 4.71699 1.57206 17.2981 -8.94967
250 1 6.28947 7.78237e-15 15.7256 -8.9497
251 1 7.86198 1.57216 17.298 -8.94961
252 1 9.43446 -7.5473e-15 15.7256 -8.94964
253 1 11.0069 1.57221 17.2979 -8.9496
254 1 12.5794 4.94173e-15 15.7255 -8.94964
255 1 14.1518 1.57217 17.2978 -8.94966
256 1 15.7244 9.89558e-16 15.7254 -8.94959
257 1 17.2967 1.57211 17.2977 -8.94957
258 1 18.869 3.4754e-14 15.7252 -8.94963
259 1 20.4414 1.5721 17.2977 -8.9496
260 1 -0.000402342 3.14422 15.7255 -8.94966
261 1 1.57151 4.71617 17.2986 -8.94909
262 1 3.14406 3.14389 15.726 -8.94962
263 1 4.71644 4.71621 17.2988 -8.94956
264 1 6.28924 3.14412 15.726 -8.94976
265 1 7.86172 4.71651 17.2986 -8.94961
266 1 9.43439 3.14435 15.7258 -8.94958
267 1 11.0069 4.71668 17.2983 -8.94953
268 1 12.5794 3.1444 15.7257 -8.94971
269 1 14.152 4.71657 17.2981 -8.94975
270 1 15.7245 3.14418 15.7256 -8.94956
271 1 17.2969 4.71643 17.298 -8.9493
272 1 18.8691 3.14429 15.7254 -8.94965
273 1 20.4412 4.71645 17.2981 -8.94948
274 1 22.0128 6.2886 15.7262 -8.94955
275 1 1.57104 7.86127 17.2991 -8.94956
276 1 3.14242 6.28758 15.7276 -8.94788
277 1 4.7152 7.86071 17.3005 -8.94989
278 1 6.28812 6.28812 15.7276 -8.94925
279 1 7.86087 7.86095 17.3003 -8.94941
280 1 9.43407 6.2887 15.7268 -8.94909
281 1 11.0068 7.86139 17.2993 -8.94938
282 1 12.5796 6.28885 15.7264 -8.94998
283 1 14.1527 7.86106 17.2991 -8.94967
284 1 15.7253 6.28835 15.7264 -8.9485
285 1 17.2971 7.86151 17.2982 -8.94975
286 1 18.8692 6.28879 15.7258 -8.94957
287 1 20.4411 7.86152 17.2983 -8.94958
288 1 22.0125 9.43407 15.7265 -8.94954
289 1 3.1418 9.43364 15.7281 -8.94931
290 1 6.28575 9.43298 15.7313 -8.95207
291 1 9.43249 9.43317 15.7301 -8.94779
292 1 12.5809 9.43308 15.7292 -8.94985
293 1 15.7252 9.43412 15.7264 -8.94997
294 1 18.8691 9.43419 15.726 -8.9496
295 1 22.0138 -1.24107e-14 18.8702 -8.94952
296 1 1.57232 1.57212 20.4426 -8.94956
297 1 3.14468 -2.03758e-14 18.8703 -8.94962
298 1 4.71717 1.57216 20.4427 -8.94961
299 1 6.28959 -1.49823e-15 18.8704 -8.94962
300 1 7.86204 1.5722 20.4427 -8.94961
301 1 9.43447 1.07659e-14 18.8703 -8.9496
302 1 11.0069 1.57221 20.4426 -8.94961
303 1 12.5793 2.39498e-14 18.8702 -8.94961
304 1 14.1518 1.57217 20.4424 -8.94961
305 1 15.7242 -2.4045e-14 18.8701 -8.94963
306 1 17.2967 1.57211 20.4424 -8.94961
307 1 18.8691 -1.33181e-14 18.8701 -8.94956
308 1 20.4415 1.57211 20.4425 -8.94943
309 1 -0.000265828 3.14422 18.8704 -8.9494
310 1 1.57206 4.71655 20.4429 -8.94953
311 1 3.14447 3.14421 18.8706 -8.94959
312 1 4.71687 4.71658 20.443 -8.94955
313 1 6.28945 3.14432 18.8706 -8.94962
314 1 7.8619 4.71667 20.4429 -8.94956
315 1 9.43442 3.14442 18.8704 -8.9496
316 1 11.0069 4.71669 20.4426 -8.94956
317 1 12.5794 3.14442 18.8702 -8.9496
318 1 14.152 4.71661 20.4424 -8.9496
319 1 15.7243 3.14432 18.8701 -8.94965
320 1 17.297 4.71647 20.4423 -8.94948
321 1 18.8691 3.14425 18.8701 -8.94944
322 1 20.4415 4.71661 20.4425 -8.94957
323 1 22.0134 6.28897 18.8707 -8.94958
324 1 1.57189 7.86159 20.4431 -8.94958
325 1 3.14386 6.2887 18.8713 -8.94957
326 1 4.7165 7.86149 20.4436 -8.94985
327 1 6.28893 6.28876 18.8714 -8.94947
328 1 7.86158 7.8614 20.4434 -8.94967
329 1 9.43428 6.28895 18.8709 -8.94949
330 1 11.007 7.86144 20.4427 -8.94954
331 1 12.5795 6.28899 18.8705 -8.94954
332 1 14.1524 7.86135 20.4422 -8.94992
333 1 15.7247 6.28882 18.8703 -8.94958
334 1 17.2972 7.86154 20.4422 -8.94958
335 1 18.8692 6.28902 18.8703 -8.94962
336 1 20.4415 7.86164 20.4426 -8.94958
3 1 3.14481 2.92127e-14 22.0149 -8.94962
41 1 18.8696 6.28898 22.0145 -8.94958
11 1 15.7243 -3.59337e-15 22.0147 -8.94962
19 1 6.28958 3.14443 22.0151 -8.94961
25 1 15.7244 3.14425 22.0145 -8.94967
31 1 3.14444 6.28905 22.0152 -8.94966
35 1 9.43441 6.289 22.0149 -8.94949
37 1 12.5796 6.28892 22.0144 -8.94952
15 1 22.0139 3.14432 22.0149 -8.94949
46 1 9.43429 9.43398 22.0146 -8.94959
176 1 1.57213 1.57216 11.0079 -8.9496
344 1 1.57225 11.007 1.57339 -8.94961
345 1 4.71669 11.007 1.57335 -8.94957
346 1 7.86195 11.007 1.57276 -8.95011
347 1 11.0073 11.007 1.56997 -8.95316
348 1 14.1536 11.007 1.57059 -8.94954
349 1 17.298 11.007 1.57206 -8.94953
350 1 20.442 11.007 1.57292 -8.94957
688 2 10.3238 11.007 9.36183 0.548717
352 1 1.57226 14.1522 1.57336 -8.94963
353 1 3.14432 12.5796 0.00148026 -8.94962
354 1 4.71672 14.1524 1.57332 -8.94979
511 1 18.8693 18.8695 9.43535 -8.9496
356 1 7.86169 14.1526 1.57293 -8.94951
538 1 17.2968 20.4417 11.0079 -8.9496
358 1 11.0072 14.1526 1.57219 -8.94924
359 1 12.5801 12.5799 -0.000503407 -8.95047
360 1 14.1535 14.1532 1.57095 -8.94982
510 1 15.7247 18.8696 9.43541 -8.94958
362 1 17.2979 14.1526 1.57218 -8.94955
363 1 18.8697 12.5797 0.000523405 -8.94957
364 1 20.442 14.1523 1.57294 -8.94958
365 1 -1.83461e-05 15.7248 0.00102574 -8.94959
366 1 1.57231 17.2973 1.5733 -8.94953
509 1 12.5798 18.8697 9.43556 -8.9493
368 1 4.717 17.2972 1.57337 -8.94961
369 1 6.28928 15.7249 0.00129819 -8.94959
370 1 7.86201 17.2972 1.57339 -8.94958
508 1 9.43455 18.8721 9.43575 -8.95453
372 1 11.007 17.2973 1.57306 -8.94957
507 1 6.28923 18.8698 9.43586 -8.94924
374 1 14.1522 17.2975 1.57268 -8.94979
375 1 15.7251 15.7253 8.82068e-05 -8.94956
376 1 17.2975 17.2977 1.57253 -8.9491
506 1 3.14444 18.8695 9.43558 -8.94959
378 1 20.4418 17.2974 1.57302 -8.94953
531 1 17.2971 17.2973 11.0079 -8.94953
380 1 1.57239 20.4417 1.5733 -8.94951
381 1 3.1447 18.8695 0.00111423 -8.94958
382 1 4.71722 20.4417 1.5734 -8.94967
505 1 -0.000119443 18.8695 9.43541 -8.94959
384 1 7.86208 20.4417 1.57342 -8.9496
385 1 9.43447 18.8695 0.00105583 -8.94959
386 1 11.0069 20.4417 1.57327 -8.9496
387 1 12.5794 18.8695 0.000819879 -8.9496
388 1 14.1519 20.4418 1.57308 -8.94964
504 1 18.8697 15.725 9.4353 -8.94949
390 1 17.2969 20.4419 1.573 -8.94956
391 1 18.8693 18.8697 0.000697367 -8.9494
392 1 20.4416 20.4418 1.57319 -8.94956
393 1 1.57205 11.007 4.71781 -8.94956
394 1 4.71588 11.007 4.71721 -8.94815
395 1 7.86192 11.007 4.71514 -8.95361
396 1 11.0092 11.007 4.70349 -8.9742
397 1 14.157 11.007 4.712 -8.9472
398 1 17.2996 11.007 4.71608 -8.94933
399 1 20.4425 11.007 4.71744 -8.94974
400 1 0.000272451 12.5796 3.14539 -8.94961
401 1 1.57208 14.1524 4.71779 -8.94978
402 1 3.14432 12.5797 3.14552 -8.94958
403 1 4.71585 14.153 4.71711 -8.94855
404 1 6.28889 12.5798 3.14474 -8.95052
405 1 7.86142 14.1528 4.71662 -8.95094
406 1 9.43402 12.5806 3.14355 -8.94648
407 1 11.0072 14.1523 4.71594 -8.95061
408 1 12.5823 12.5812 3.13993 -8.95157
409 1 14.1574 14.1564 4.71235 -8.94344
410 1 15.7268 12.5802 3.14308 -8.94932
411 1 17.2993 14.1532 4.71632 -8.94989
412 1 18.8705 12.5798 3.14468 -8.94953
413 1 20.4424 14.1524 4.71752 -8.94984
414 1 22.0141 15.7249 3.14542 -8.94966
415 1 1.57225 17.2973 4.71796 -8.94961
416 1 3.14436 15.725 3.14546 -8.94935
417 1 4.71658 17.2977 4.7177 -8.94901
418 1 6.28922 15.725 3.1453 -8.94976
419 1 7.86216 17.2972 4.71801 -8.95024
420 1 9.43457 15.725 3.14531 -8.94922
421 1 11.0072 17.2973 4.71753 -8.94961
422 1 12.58 15.7253 3.14447 -8.9501
423 1 14.1531 17.2984 4.71693 -8.94998
424 1 15.7264 15.7263 3.14358 -8.94789
425 1 17.2977 17.2977 4.71744 -8.94955
426 1 18.8702 15.7252 3.14487 -8.94957
427 1 20.4419 17.2974 4.71778 -8.94955
428 1 9.07881e-05 18.8696 3.14558 -8.94958
429 1 1.57237 20.4417 4.71809 -8.94967
430 1 3.14462 18.8696 3.1456 -8.94943
431 1 4.71693 20.4419 4.71794 -8.9495
432 1 6.2896 18.8695 3.14572 -8.94979
433 1 7.86208 20.4417 4.71811 -8.94956
434 1 9.43455 18.8695 3.14565 -8.94959
435 1 11.0071 20.4418 4.71797 -8.94955
436 1 12.5796 18.8696 3.14533 -8.94964
437 1 14.1523 20.442 4.71773 -8.94971
438 1 15.7248 18.87 3.14509 -8.94962
439 1 17.297 20.4418 4.71789 -8.94967
440 1 18.8695 18.8697 3.14538 -8.94958
441 1 20.4417 20.4418 4.71799 -8.94961
442 1 1.5713 11.007 7.86308 -8.95011
443 1 4.71358 11.007 7.86323 -8.95359
444 1 7.84812 11.007 7.84968 -9.013
445 1 11.0457 11.007 7.77521 -9.26534
446 1 14.1623 11.007 7.85707 -9.0091
447 1 17.3004 11.007 7.86176 -8.95096
448 1 20.4424 11.007 7.86264 -8.94994
449 1 22.014 12.5797 6.29022 -8.94995
450 1 1.57153 14.1526 7.86278 -8.94951
451 1 3.14334 12.5798 6.29009 -8.95052
452 1 4.71514 14.1529 7.86267 -8.95092
453 1 6.28531 12.5812 6.28674 -8.94697
454 1 7.85585 14.1567 7.85732 -9.00955
455 1 9.43131 12.5806 6.29053 -9.03925
456 1 11.0135 14.1523 7.85887 -9.03341
457 1 12.5953 12.5903 6.27368 -8.97401
458 1 14.1565 14.154 7.86074 -8.9483
459 1 15.73 12.5809 6.28701 -8.95207
460 1 17.2991 14.153 7.86198 -8.94942
461 1 18.8711 12.5799 6.28956 -8.95026
462 1 20.4421 14.1526 7.8626 -8.94968
463 1 5.47714e-05 15.725 6.29025 -8.94959
464 1 1.57215 17.2973 7.86299 -8.94958
465 1 3.14402 15.725 6.29032 -8.94975
466 1 4.71672 17.2972 7.86329 -8.95024
467 1 6.28771 15.7264 6.28901 -8.94727
468 1 7.86049 17.2997 7.86176 -8.94811
469 1 9.43528 15.725 6.29087 -8.95117
470 1 11.0087 17.2989 7.8617 -8.94663
471 1 12.5819 15.7271 6.28829 -8.95179
472 1 14.1529 17.2976 7.86272 -8.95026
473 1 15.7264 15.7258 6.28926 -8.94924
474 1 17.2974 17.2975 7.86271 -8.94961
475 1 18.8702 15.7252 6.28992 -8.94947
476 1 20.4417 17.2973 7.86283 -8.94956
477 1 22.014 18.8695 6.29045 -8.94961
478 1 1.57229 20.4417 7.86298 -8.9496
479 1 3.14459 18.8695 6.29058 -8.94979
480 1 4.71697 20.4417 7.86311 -8.94956
481 1 6.28896 18.8702 6.29009 -8.94934
482 1 7.86173 20.4423 7.86287 -8.95004
483 1 9.43472 18.8697 6.29045 -8.94923
484 1 11.0074 20.4422 7.86283 -8.94971
485 1 12.5802 18.8702 6.28991 -8.94967
486 1 14.1522 20.4418 7.86295 -8.94966
487 1 15.7249 18.8698 6.29026 -8.94976
488 1 17.2969 20.4418 7.86289 -8.94961
489 1 18.8695 18.8696 6.29033 -8.94962
490 1 20.4416 20.4417 7.86289 -8.94961
491 1 -0.000732416 12.58 9.43538 -8.9496
492 1 3.14199 12.5807 9.43524 -8.9465
493 1 6.28884 12.5807 9.43267 -9.03924
494 1 9.41608 12.6565 9.41764 -9.37214
495 1 12.5866 12.5813 9.42985 -9.03202
496 1 15.7289 12.5808 9.43369 -8.94783
497 1 18.8707 12.58 9.43504 -8.94977
498 1 22.0136 15.725 9.43544 -8.94949
499 1 3.14392 15.7251 9.43571 -8.94922
500 1 6.28945 15.7251 9.43656 -8.95117
501 1 9.43439 15.7403 9.43574 -8.97214
502 1 12.5801 15.725 9.43529 -8.95079
503 1 15.7256 15.7253 9.4352 -8.94908
512 1 1.56847 11.007 11.0085 -8.95316
687 2 9.36051 11.007 10.3266 0.548419
513 1 4.70186 11.007 11.0105 -8.97423
516 1 14.1664 11.007 11.0078 -9.01519
519 1 1.57077 14.1527 11.0083 -8.94924
520 1 4.71442 14.1524 11.0084 -8.9506
521 1 7.85734 14.1524 11.0149 -9.03345
522 1 11.0109 14.1531 11.0122 -9.05688
527 1 4.71622 17.2974 11.0084 -8.9496
532 1 20.4414 17.2973 11.0079 -8.94956
534 1 4.71681 20.4418 11.0082 -8.94955
686 1 20.4415 20.4418 20.4425 -8.94943
685 1 18.8691 18.8697 18.8701 -8.94944
514 1 7.77335 11.007 11.047 -9.26497
515 1 11.0758 11.007 11.0768 -9.32726
684 1 17.2967 20.4418 20.4424 -8.94961
517 1 17.3003 11.007 11.0078 -8.95307
518 1 20.4414 11.007 11.0081 -8.95069
683 1 15.7243 18.8696 18.8701 -8.94965
682 1 14.1518 20.4417 20.4424 -8.94961
681 1 12.5794 18.8695 18.8702 -8.9496
680 1 11.0069 20.4417 20.4426 -8.94961
523 1 14.1545 14.1526 11.0076 -8.95011
524 1 17.2981 14.1526 11.0079 -8.94939
525 1 20.4414 14.1525 11.008 -8.94954
526 1 1.5718 17.2973 11.0081 -8.94957
389 1 15.7244 18.8696 22.0145 -8.94967
528 1 7.86042 17.299 11.01 -8.94665
529 1 11.0084 17.2989 11.0096 -8.94707
530 1 14.1526 17.2973 11.008 -8.94986
679 1 9.43442 18.8695 18.8704 -8.9496
383 1 6.28958 18.8695 22.0151 -8.94961
678 1 7.86204 20.4417 20.4427 -8.94961
377 1 18.8696 15.7249 22.0145 -8.94958
535 1 7.86169 20.4422 11.0085 -8.94971
536 1 11.0073 20.4421 11.0084 -8.94975
537 1 14.1521 20.4417 11.008 -8.94958
677 1 6.28945 18.8696 18.8706 -8.94962
539 1 20.4414 20.4417 11.0078 -8.9496
540 1 1.56923 11.007 14.1548 -8.94954
541 1 4.71057 11.007 14.1583 -8.94719
542 1 7.85568 11.007 14.1636 -9.0091
543 1 11.0066 11.007 14.1676 -9.01519
544 1 14.1536 11.007 14.1548 -8.94964
545 1 17.2977 11.007 14.1537 -8.94918
546 1 20.4408 11.007 14.1537 -8.94975
547 1 22.012 12.58 12.5812 -8.95047
548 1 1.56964 14.1533 14.1546 -8.94981
549 1 3.13845 12.5812 12.5836 -8.95157
550 1 4.71101 14.1565 14.1587 -8.9434
551 1 6.27214 12.5903 12.5966 -8.97393
552 1 7.85947 14.154 14.1577 -8.94835
553 1 9.42848 12.5812 12.5878 -9.03223
554 1 11.0064 14.1525 14.1556 -8.95015
555 1 12.5884 12.5885 12.5896 -9.00804
556 1 14.1549 14.1548 14.1561 -8.94527
557 1 15.7281 12.5808 12.5821 -8.94985
558 1 17.2979 14.1529 14.1538 -8.94967
559 1 18.8699 12.5799 12.5809 -8.95017
560 1 20.4409 14.1526 14.1536 -8.94992
561 1 -0.000764707 15.7251 12.5807 -8.94952
562 1 1.57151 17.2976 14.1533 -8.94979
563 1 3.14313 15.7253 12.5812 -8.9501
564 1 4.71575 17.2984 14.1543 -8.94998
565 1 6.28693 15.7272 12.5831 -8.95178
566 1 7.86157 17.2976 14.1541 -8.95025
567 1 9.43402 15.7249 12.5813 -8.95075
568 1 11.0068 17.2972 14.1537 -8.94986
569 1 12.5809 15.7266 12.5821 -8.9512
570 1 14.1525 17.2979 14.1536 -8.94969
571 1 15.7252 15.7251 12.5807 -8.94997
572 1 17.297 17.2974 14.1531 -8.94974
573 1 18.8693 15.725 12.5806 -8.94954
574 1 20.4412 17.2974 14.153 -8.94959
575 1 22.0136 18.8696 12.5804 -8.94959
576 1 1.57202 20.4418 14.1529 -8.94964
577 1 3.14416 18.8697 12.5807 -8.94964
578 1 4.71667 20.442 14.1534 -8.94971
579 1 6.28874 18.8703 12.5814 -8.94968
580 1 7.86191 20.4418 14.1533 -8.94966
581 1 9.43442 18.8697 12.581 -8.94929
582 1 11.007 20.4417 14.1532 -8.94958
583 1 12.58 18.8701 12.5811 -8.94959
584 1 14.1521 20.4419 14.1532 -8.94962
585 1 15.7246 18.8695 12.5805 -8.94971
586 1 17.2968 20.4417 14.1528 -8.94966
587 1 18.8691 18.8695 12.5804 -8.9496
588 1 20.4413 20.4418 14.1528 -8.94961
589 1 1.57087 11.007 17.2992 -8.94953
590 1 4.7149 11.007 17.3008 -8.94932
591 1 7.86061 11.007 17.3017 -8.95098
592 1 11.0067 11.007 17.3015 -8.95308
593 1 14.1525 11.007 17.2989 -8.94918
594 1 17.2971 11.007 17.2982 -8.94956
595 1 20.441 11.007 17.2984 -8.94957
596 1 22.0125 12.5798 15.7265 -8.94954
597 1 1.57104 14.1526 17.2991 -8.94956
598 1 3.1418 12.5803 15.7281 -8.94931
599 1 4.7152 14.1532 17.3005 -8.94989
600 1 6.28575 12.5809 15.7313 -8.95207
601 1 7.86087 14.1529 17.3003 -8.94941
602 1 9.43249 12.5807 15.7301 -8.94779
603 1 11.0068 14.1525 17.2993 -8.94938
604 1 12.5809 12.5808 15.7292 -8.94985
605 1 14.1527 14.1528 17.2991 -8.94967
606 1 15.7252 12.5798 15.7264 -8.94997
607 1 17.2971 14.1524 17.2982 -8.94975
608 1 18.8691 12.5797 15.726 -8.9496
609 1 20.4411 14.1524 17.2983 -8.94958
610 1 22.0128 15.7253 15.7262 -8.94955
611 1 1.57151 17.2977 17.2986 -8.94909
612 1 3.14242 15.7263 15.7276 -8.94788
613 1 4.71644 17.2977 17.2988 -8.94956
614 1 6.28812 15.7258 15.7276 -8.94925
615 1 7.86172 17.2974 17.2986 -8.94961
616 1 9.43407 15.7252 15.7268 -8.94909
617 1 11.0069 17.2972 17.2983 -8.94953
618 1 12.5796 15.7251 15.7264 -8.94998
619 1 14.152 17.2973 17.2981 -8.94975
620 1 15.7253 15.7255 15.7264 -8.9485
621 1 17.2969 17.2975 17.298 -8.9493
622 1 18.8692 15.7251 15.7258 -8.94957
623 1 20.4412 17.2975 17.2981 -8.94948
624 1 -0.000402342 18.8697 15.7255 -8.94966
625 1 1.57206 20.4419 17.298 -8.94956
626 1 3.14406 18.87 15.726 -8.94962
627 1 4.71699 20.4418 17.2981 -8.94967
628 1 6.28924 18.8698 15.726 -8.94976
629 1 7.86198 20.4417 17.298 -8.94961
630 1 9.43439 18.8696 15.7258 -8.94958
631 1 11.0069 20.4417 17.2979 -8.9496
632 1 12.5794 18.8695 15.7257 -8.94971
633 1 14.1518 20.4417 17.2978 -8.94966
634 1 15.7245 18.8697 15.7256 -8.94956
635 1 17.2967 20.4418 17.2977 -8.94957
636 1 18.8691 18.8696 15.7254 -8.94965
637 1 20.4414 20.4418 17.2977 -8.9496
638 1 1.57182 11.007 20.4432 -8.94957
639 1 4.71638 11.007 20.4438 -8.94974
640 1 7.86157 11.007 20.4437 -8.94994
641 1 11.0069 11.007 20.4427 -8.95069
642 1 14.1525 11.007 20.4421 -8.94975
643 1 17.2972 11.007 20.4422 -8.94957
644 1 20.4415 11.007 20.4426 -8.94958
645 1 22.0133 12.5797 18.8708 -8.94957
646 1 1.57189 14.1523 20.4431 -8.94958
647 1 3.14358 12.5798 18.8717 -8.94954
648 1 4.7165 14.1524 20.4436 -8.94985
649 1 6.28848 12.5799 18.8724 -8.95027
650 1 7.86158 14.1525 20.4434 -8.94967
651 1 9.43395 12.58 18.8719 -8.94975
652 1 11.007 14.1525 20.4427 -8.94954
653 1 12.5798 12.5799 18.8711 -8.95017
654 1 14.1524 14.1525 20.4422 -8.94992
655 1 15.7248 12.5797 18.8703 -8.9496
656 1 17.2972 14.1524 20.4422 -8.94958
657 1 18.8692 12.5796 18.8703 -8.94958
658 1 20.4415 14.1523 20.4426 -8.94958
659 1 22.0134 15.7249 18.8707 -8.94958
660 1 1.57206 17.2973 20.4429 -8.94953
661 1 3.14386 15.7252 18.8713 -8.94957
662 1 4.71687 17.2973 20.443 -8.94955
663 1 6.28893 15.7251 18.8714 -8.94947
664 1 7.8619 17.2972 20.4429 -8.94956
665 1 9.43428 15.725 18.8709 -8.94949
666 1 11.0069 17.2972 20.4426 -8.94956
667 1 12.5795 15.7249 18.8705 -8.94954
668 1 14.152 17.2973 20.4424 -8.9496
669 1 15.7247 15.7251 18.8703 -8.94958
670 1 17.297 17.2974 20.4423 -8.94948
671 1 18.8692 15.7249 18.8703 -8.94962
672 1 20.4415 17.2973 20.4425 -8.94957
673 1 -0.000265828 18.8697 18.8704 -8.9494
674 1 1.57232 20.4418 20.4426 -8.94956
675 1 3.14447 18.8697 18.8706 -8.94959
676 1 4.71717 20.4417 20.4427 -8.94961
351 1 22.0139 12.5796 22.015 -8.94959
355 1 6.28916 12.5797 22.0154 -8.94996
361 1 15.7253 12.5798 22.0138 -8.94954
367 1 3.14444 15.7249 22.0152 -8.94966
371 1 9.43441 15.7249 22.0149 -8.94949
373 1 12.5796 15.725 22.0144 -8.94952
357 1 9.43429 12.5799 22.0146 -8.94959
379 1 22.0139 18.8696 22.0149 -8.94949
533 1 1.57213 20.4417 11.0079 -8.9496
