ITEM: TIMESTEP
82
ITEM: NUMBER OF ATOMS
688
ITEM: BOX BOUNDS pp pp pp
0.0000000000000000e+00 2.2013900999999997e+01
0.0000000000000000e+00 2.2013900999999997e+01
0.0000000000000000e+00 2.2013900999999997e+01
ITEM: ATOMS id type x y z c_pot
1 1 0.000216224 -9.93792e-16 0.000467095 -8.94954
2 1 1.57262 1.5722 1.57266 -8.94954
175 1 18.8708 9.43365 9.43475 -8.94994
4 1 4.71752 1.57234 1.57286 -8.94968
5 1 6.28988 -7.31509e-16 0.000582542 -8.94961
6 1 7.86209 1.5724 1.57306 -8.94961
174 1 15.7303 9.43276 9.43446 -8.94803
8 1 11.0066 1.57238 1.57309 -8.94961
9 1 12.5789 9.89656e-16 0.000678683 -8.94961
10 1 14.1513 1.57225 1.57294 -8.94966
173 1 12.5898 9.43153 9.43217 -9.02877
12 1 17.2965 1.57208 1.57269 -8.94959
13 1 18.869 8.28448e-16 0.000495945 -8.94954
14 1 20.4415 1.57213 1.57266 -8.94954
193 1 11.0122 7.86215 11.0133 -9.05865
16 1 1.5724 4.71675 1.57266 -8.94952
17 1 3.14506 3.14454 0.000527258 -8.94962
18 1 4.71728 4.71702 1.57296 -8.94967
172 1 9.41468 9.3617 9.42137 -9.3753
20 1 7.862 4.71723 1.57338 -8.94959
21 1 9.43434 3.14476 0.000786119 -8.94959
22 1 11.0065 4.71716 1.57337 -8.94958
23 1 12.579 3.14463 0.000770222 -8.94961
24 1 14.1515 4.71677 1.57299 -8.94985
171 1 6.28557 9.43283 9.4328 -9.03711
26 1 17.2969 4.71635 1.57249 -8.94916
27 1 18.8692 3.14423 0.000498442 -8.94941
28 1 20.4416 4.71659 1.57259 -8.94953
29 1 2.53875e-05 6.28914 0.000613584 -8.9496
30 1 1.57215 7.86171 1.57271 -8.94965
170 1 3.14 9.43301 9.43459 -8.9467
32 1 4.7168 7.86176 1.57291 -8.94985
33 1 6.28952 6.28939 0.000948144 -8.94954
34 1 7.86156 7.86174 1.57333 -8.94933
169 1 -0.00164317 9.43374 9.43462 -8.94974
36 1 11.0065 7.86174 1.57318 -8.94909
168 1 18.8697 6.28841 9.43478 -8.94947
38 1 14.1525 7.86096 1.57183 -8.94984
39 1 15.7246 6.28876 0.000528591 -8.9496
40 1 17.2972 7.86139 1.57246 -8.9496
167 1 15.7261 6.28809 9.4353 -8.94901
42 1 20.4416 7.86162 1.57262 -8.94958
166 1 12.5805 6.28892 9.43628 -8.95121
44 1 3.14449 9.43434 0.00085225 -8.94965
165 1 9.43425 6.27489 9.43702 -8.97165
192 1 7.85645 7.86219 11.0156 -9.03481
47 1 12.5796 9.43408 0.000373031 -8.95047
164 1 6.28873 6.2891 9.43663 -8.95144
49 1 18.8694 9.43425 0.000667296 -8.94958
50 1 22.014 2.07437e-15 3.14487 -8.94961
51 1 1.57244 1.57218 4.71724 -8.94967
52 1 3.14496 1.14746e-15 3.14495 -8.94953
53 1 4.71713 1.57223 4.71738 -8.94952
54 1 6.28982 2.3826e-15 3.14528 -8.94963
55 1 7.86203 1.57251 4.71788 -8.94953
56 1 9.43432 2.78126e-16 3.14545 -8.94961
57 1 11.0066 1.57246 4.71787 -8.94952
58 1 12.5789 7.54679e-16 3.14532 -8.94961
59 1 14.1516 1.57211 4.71746 -8.94969
60 1 15.7239 -1.51844e-16 3.145 -8.94964
61 1 17.2965 1.57208 4.71727 -8.94966
62 1 18.869 1.7692e-16 3.1449 -8.94961
63 1 20.4415 1.57213 4.71715 -8.9496
64 1 1.93281e-05 3.14436 3.14484 -8.94955
65 1 1.57209 4.7166 4.71711 -8.94954
66 1 3.14485 3.1445 3.14499 -8.94949
67 1 4.71664 4.71661 4.71738 -8.9492
68 1 6.28975 3.14486 3.14548 -8.94981
69 1 7.86206 4.71753 4.71843 -8.95027
70 1 9.43428 3.14493 3.14574 -8.94961
71 1 11.0065 4.71737 4.71826 -8.94967
72 1 12.5789 3.1447 3.14548 -8.94967
73 1 14.1521 4.71597 4.71728 -8.95008
74 1 15.7241 3.14416 3.14496 -8.94967
75 1 17.297 4.71624 4.71705 -8.94948
76 1 18.8691 3.14424 3.14485 -8.94955
77 1 20.4415 4.71645 4.717 -8.94949
78 1 22.0138 6.28903 3.14471 -8.94962
79 1 1.57149 7.86146 4.71697 -8.94973
80 1 3.1443 6.28904 3.14484 -8.94932
81 1 4.71539 7.86106 4.71685 -8.94847
82 1 6.28931 6.28952 3.14551 -8.94984
83 1 7.86123 7.86209 4.71828 -8.95106
84 1 9.43414 6.28958 3.14623 -8.94927
85 1 11.0062 7.86262 4.71826 -8.95068
86 1 12.579 6.28931 3.14546 -8.9502
87 1 14.156 7.85813 4.71375 -8.94402
88 1 15.7254 6.28795 3.14396 -8.94809
89 1 17.2983 7.86081 4.71643 -8.94989
90 1 18.8695 6.28876 3.14457 -8.94957
91 1 20.4416 7.86141 4.71688 -8.94979
92 1 -0.000287448 9.43426 3.14474 -8.94959
93 1 3.14398 9.43429 3.14493 -8.9496
94 1 6.28859 9.43433 3.14501 -8.95068
95 1 9.43342 9.43364 3.14516 -8.94589
96 1 12.5812 9.43303 3.14164 -8.95138
97 1 15.7257 9.43385 3.14392 -8.94945
98 1 18.8696 9.43415 3.14459 -8.94954
99 1 2.47713e-06 -1.39866e-15 6.28955 -8.9496
100 1 1.57226 1.5721 7.86207 -8.94962
101 1 3.14478 -6.76765e-16 6.28977 -8.94967
102 1 4.71702 1.57225 7.86243 -8.94962
103 1 6.28942 -1.16191e-15 6.28993 -8.9497
104 1 7.86165 1.57191 7.86252 -8.94994
105 1 9.43434 2.60061e-16 6.29023 -8.94937
106 1 11.0071 1.57197 7.86258 -8.94964
107 1 12.5793 -4.49303e-16 6.29 -8.94971
108 1 14.1518 1.57212 7.8625 -8.94973
109 1 15.7241 7.03956e-16 6.28982 -8.94973
110 1 17.2967 1.57201 7.86214 -8.94962
111 1 18.869 -1.09163e-15 6.28958 -8.94961
112 1 20.4415 1.57207 7.86197 -8.9496
113 1 22.0138 3.14426 6.28951 -8.94959
114 1 1.57178 4.71645 7.86212 -8.94957
115 1 3.14456 3.14443 6.28979 -8.94981
116 1 4.71639 4.71675 7.86284 -8.9503
117 1 6.28899 3.14418 6.28987 -8.94934
118 1 7.86036 4.71519 7.86226 -8.94791
119 1 9.4344 3.14485 6.29062 -8.94913
120 1 11.0083 4.7158 7.8625 -8.94653
121 1 12.5796 3.14408 6.28998 -8.94961
122 1 14.1526 4.71626 7.86284 -8.95034
123 1 15.7244 3.14412 6.28982 -8.94978
124 1 17.2972 4.71618 7.86221 -8.94958
125 1 18.8691 3.14415 6.28953 -8.9496
126 1 20.4414 4.7163 7.86197 -8.94953
127 1 -0.000495604 6.28875 6.28934 -8.94952
128 1 1.57047 7.86098 7.86185 -8.94945
129 1 3.14348 6.28879 6.28958 -8.94953
130 1 4.71384 7.86087 7.86227 -8.95028
131 1 6.28766 6.28836 6.28967 -8.94786
132 1 7.85548 7.85914 7.85987 -9.00896
133 1 9.43475 6.29031 6.29263 -8.95137
134 1 11.0128 7.86318 7.86244 -9.03338
135 1 12.5808 6.28777 6.28979 -8.95201
136 1 14.1566 7.85964 7.86157 -8.94768
137 1 15.7257 6.28806 6.28936 -8.94902
138 1 17.299 7.86055 7.86182 -8.94935
139 1 18.8696 6.28853 6.28931 -8.94941
140 1 20.4415 7.86107 7.86183 -8.94969
141 1 22.0131 9.43408 6.28935 -8.94992
142 1 3.14215 9.434 6.28937 -8.95045
143 1 6.28409 9.43272 6.28728 -8.94684
144 1 9.43089 9.43489 6.29459 -9.03712
145 1 12.5937 9.42452 6.27693 -8.97546
146 1 15.7291 9.43308 6.28793 -8.95189
147 1 18.8704 9.43393 6.28921 -8.95017
148 1 -6.48878e-05 1.68105e-15 9.4345 -8.94961
149 1 3.1446 2.09263e-15 9.4347 -8.94965
150 1 6.28939 1.39762e-15 9.43505 -8.9495
151 1 9.4344 2.88399e-15 9.43523 -8.9509
152 1 12.5794 -8.03802e-16 9.43511 -8.94949
153 1 15.7243 6.65366e-16 9.4348 -8.94969
154 1 18.8691 2.26398e-16 9.43455 -8.9496
155 1 -0.000250509 3.14414 9.43456 -8.94958
156 1 3.14431 3.14427 9.43483 -8.9496
157 1 6.28913 3.14438 9.43545 -8.94933
158 1 9.43443 3.14236 9.43571 -8.95438
159 1 12.5796 3.14433 9.43548 -8.94941
160 1 15.7247 3.14405 9.43499 -8.94958
161 1 18.8693 3.14406 9.43463 -8.94958
162 1 22.0132 6.28853 9.43464 -8.94948
163 1 3.14311 6.28851 9.43507 -8.94919
191 1 4.713 7.86133 11.0083 -8.95039
181 1 17.2969 1.57196 11.0073 -8.94961
188 1 17.2975 4.71606 11.0076 -8.94952
190 1 1.56988 7.86088 11.0077 -8.94924
177 1 4.71684 1.57214 11.0075 -8.9496
184 1 4.71587 4.71643 11.0079 -8.94962
189 1 20.4415 4.71616 11.0073 -8.94955
7 1 9.43437 -1.02449e-15 0.000669553 -8.94961
343 1 18.8696 9.43414 18.8707 -8.94956
48 1 15.7248 9.43415 22.0145 -8.94958
178 1 7.86168 1.5719 11.008 -8.9497
179 1 11.0072 1.57189 11.0081 -8.94967
180 1 14.1521 1.57206 11.0076 -8.94966
342 1 15.7252 9.43406 18.8712 -8.9496
182 1 20.4415 1.57202 11.0071 -8.9496
183 1 1.57154 4.71627 11.0074 -8.94956
45 1 6.28935 9.43437 22.0151 -8.94999
185 1 7.8604 4.71548 11.0099 -8.94678
186 1 11.0085 4.71551 11.0098 -8.94688
187 1 14.1531 4.71618 11.0081 -8.94989
341 1 12.5802 9.43397 18.8718 -8.95036
43 1 22.0138 9.4343 22.0146 -8.94959
340 1 9.43431 9.43404 18.8715 -8.94951
339 1 6.28893 9.43417 18.8716 -8.95035
338 1 3.14394 9.43415 18.871 -8.94957
337 1 22.0136 9.43418 18.8706 -8.94957
194 1 14.1566 7.86057 11.0089 -8.94933
195 1 17.2992 7.86068 11.0081 -8.94939
196 1 20.4414 7.86096 11.0076 -8.94962
197 1 -5.56703e-05 -8.09678e-16 12.5797 -8.94961
198 1 1.5722 1.57197 14.1524 -8.94965
199 1 3.14454 -5.0058e-16 12.5798 -8.94966
200 1 4.71686 1.57193 14.1527 -8.94974
201 1 6.28932 -1.75491e-15 12.5802 -8.94978
202 1 7.86202 1.5723 14.1526 -8.94957
203 1 9.43446 -2.03155e-15 12.5802 -8.94933
204 1 11.007 1.57229 14.1527 -8.94952
205 1 12.5796 -4.74853e-16 12.5803 -8.94975
206 1 14.1522 1.57189 14.1529 -8.9497
207 1 15.7245 -4.95261e-16 12.58 -8.9497
208 1 17.297 1.5719 14.1526 -8.94967
209 1 18.8692 -1.81646e-15 12.5798 -8.94961
210 1 20.4416 1.57198 14.1524 -8.9496
211 1 22.0136 3.14403 12.5799 -8.94959
212 1 1.57158 4.71605 14.1529 -8.94976
213 1 3.14417 3.14406 12.58 -8.94965
214 1 4.7158 4.71544 14.1537 -8.94995
215 1 6.28878 3.14378 12.5808 -8.94973
216 1 7.86191 4.71693 14.1533 -8.95018
217 1 9.43451 3.14466 12.5805 -8.9491
218 1 11.0071 4.71701 14.1534 -8.94979
219 1 12.5802 3.14374 12.5809 -8.94968
220 1 14.1532 4.71546 14.1539 -8.94987
221 1 15.7249 3.1439 12.5803 -8.94972
222 1 17.2976 4.71588 14.1532 -8.94967
223 1 18.8694 3.14394 12.58 -8.94959
224 1 20.4416 4.71607 14.1528 -8.94956
225 1 -0.00083885 6.28842 12.5803 -8.94951
226 1 1.56947 7.86032 14.1543 -8.9497
227 1 3.14266 6.2883 12.5807 -8.95004
228 1 4.71083 7.85743 14.1581 -8.94299
229 1 6.28665 6.287 12.5828 -8.95174
230 1 7.86038 7.86113 14.1564 -8.94946
231 1 9.43456 6.29018 12.581 -8.95017
232 1 11.0074 7.86217 14.1554 -8.95077
233 1 12.582 6.28716 12.5826 -8.95189
234 1 14.1572 7.85798 14.1577 -8.94407
235 1 15.7264 6.28797 12.5812 -8.94974
236 1 17.2993 7.86029 14.1545 -8.94962
237 1 18.8699 6.28832 12.5805 -8.94952
238 1 20.4414 7.86088 14.1535 -8.94992
239 1 22.0118 9.43368 12.5809 -8.95056
240 1 3.13731 9.43244 12.5832 -8.95136
241 1 6.27088 9.42348 12.5966 -8.97303
242 1 9.43022 9.43585 12.5851 -9.03562
243 1 12.5936 9.4238 12.5933 -9.00682
244 1 15.7307 9.43245 12.5834 -8.95019
245 1 18.8708 9.43362 12.5811 -8.95034
246 1 4.34517e-05 1.07399e-15 15.7249 -8.94962
247 1 1.57239 1.57198 17.2975 -8.94956
248 1 3.14468 -8.88765e-16 15.725 -8.94966
249 1 4.71734 1.57215 17.2974 -8.94968
250 1 6.2897 2.78537e-15 15.7249 -8.94966
251 1 7.86213 1.57228 17.2974 -8.9496
252 1 9.43448 8.59393e-16 15.7249 -8.94961
253 1 11.0068 1.57226 17.2974 -8.9496
254 1 12.5793 6.65513e-16 15.7251 -8.94964
255 1 14.1517 1.57209 17.2976 -8.94968
256 1 15.7245 4.27712e-16 15.7252 -8.94965
257 1 17.2968 1.57193 17.2977 -8.94957
258 1 18.8692 1.29168e-15 15.725 -8.94963
259 1 20.4416 1.57199 17.2976 -8.94959
260 1 -0.000126564 3.144 15.7252 -8.94964
261 1 1.57186 4.7161 17.2982 -8.94907
262 1 3.14434 3.14386 15.7254 -8.94961
263 1 4.71687 4.71644 17.298 -8.94969
264 1 6.28954 3.14439 15.7252 -8.94976
265 1 7.86204 4.71689 17.2978 -8.94961
266 1 9.43453 3.14464 15.7252 -8.94958
267 1 11.007 4.71687 17.2979 -8.94954
268 1 12.5795 3.14436 15.7254 -8.94972
269 1 14.1522 4.71636 17.2982 -8.94984
270 1 15.7248 3.14379 15.7256 -8.9496
271 1 17.2973 4.71599 17.2983 -8.94916
272 1 18.8694 3.14392 15.7253 -8.94961
273 1 20.4416 4.71615 17.2981 -8.94943
274 1 22.0132 6.28828 15.726 -8.9495
275 1 1.57133 7.86117 17.2987 -8.94956
276 1 3.1426 6.28748 15.727 -8.9478
277 1 4.71556 7.86083 17.2998 -8.94992
278 1 6.28865 6.28861 15.7266 -8.94963
279 1 7.86145 7.86135 17.2993 -8.94933
280 1 9.43456 6.28917 15.7261 -8.94919
281 1 11.0073 7.86156 17.2991 -8.9493
282 1 12.5801 6.28877 15.7265 -8.95021
283 1 14.1536 7.86062 17.3001 -8.94964
284 1 15.7263 6.28751 15.7272 -8.94811
285 1 17.2978 7.86109 17.2989 -8.94968
286 1 18.8699 6.28823 15.7261 -8.94951
287 1 20.4416 7.86128 17.2984 -8.94956
288 1 22.0128 9.43393 15.7263 -8.94955
289 1 3.1418 9.4336 15.7275 -8.94928
290 1 6.28602 9.43313 15.7304 -8.95212
291 1 9.43355 9.43365 15.729 -8.94685
292 1 12.5829 9.43272 15.7307 -8.95008
293 1 15.7269 9.43372 15.7277 -8.94981
294 1 18.87 9.43392 15.7264 -8.94959
295 1 22.0141 1.31981e-15 18.8699 -8.94952
296 1 1.57267 1.57216 20.4422 -8.94959
297 1 3.14507 6.97641e-16 18.8698 -8.94965
298 1 4.71752 1.5723 20.4421 -8.94962
299 1 6.28984 1.38963e-15 18.8697 -8.94961
300 1 7.86214 1.57237 20.4421 -8.94961
301 1 9.43444 1.7181e-15 18.8697 -8.9496
302 1 11.0067 1.57235 20.4422 -8.94961
303 1 12.5791 1.57393e-15 18.8698 -8.94961
304 1 14.1514 1.57224 20.4423 -8.94962
305 1 15.7241 -7.97023e-16 18.8699 -8.94966
306 1 17.2965 1.57209 20.4423 -8.94963
307 1 18.8691 1.32313e-15 18.87 -8.94956
308 1 20.4416 1.57209 20.4422 -8.94942
309 1 3.54453e-05 3.14414 18.8701 -8.94939
310 1 1.57239 4.71661 20.4424 -8.94954
311 1 3.1449 3.14431 18.87 -8.94964
312 1 4.71727 4.71683 20.4424 -8.94957
313 1 6.28975 3.14456 18.8699 -8.94962
314 1 7.86206 4.717 20.4424 -8.94956
315 1 9.43445 3.14464 18.8699 -8.9496
316 1 11.0067 4.71695 20.4425 -8.94956
317 1 12.5792 3.14448 18.8701 -8.9496
318 1 14.1517 4.71668 20.4426 -8.94962
319 1 15.7242 3.14419 18.8702 -8.94969
320 1 17.2969 4.71638 20.4425 -8.94947
321 1 18.8693 3.14406 18.8702 -8.94939
322 1 20.4416 4.71653 20.4424 -8.94955
323 1 22.0137 6.28887 18.8704 -8.94957
324 1 1.57215 7.86163 20.4426 -8.9496
325 1 3.14426 6.28879 18.8707 -8.94959
326 1 4.71687 7.86169 20.4429 -8.94991
327 1 6.28938 6.28913 18.8705 -8.94947
328 1 7.86179 7.8617 20.4429 -8.94955
329 1 9.43445 6.28927 18.8704 -8.94948
330 1 11.0069 7.86166 20.4429 -8.94944
331 1 12.5795 6.28908 18.8706 -8.94952
332 1 14.1523 7.86137 20.4428 -8.94997
333 1 15.725 6.28855 18.8709 -8.94953
334 1 17.2972 7.86147 20.4427 -8.94959
335 1 18.8695 6.28878 18.8705 -8.94958
336 1 20.4416 7.8616 20.4426 -8.94958
3 1 3.14517 -2.09739e-15 22.0144 -8.94964
41 1 18.8693 6.289 22.0145 -8.94959
11 1 15.7238 -1.30343e-16 22.0145 -8.94964
19 1 6.28981 3.14472 22.0146 -8.94962
25 1 15.724 3.14437 22.0145 -8.9497
31 1 3.14468 6.28921 22.0146 -8.94969
35 1 9.43425 6.28941 22.015 -8.94944
37 1 12.5791 6.28925 22.0149 -8.94949
15 1 22.014 3.14435 22.0144 -8.94949
46 1 9.4341 9.43414 22.0149 -8.94943
176 1 1.57215 1.57203 11.0072 -8.94961
344 1 1.57206 11.007 1.57276 -8.94962
345 1 4.71667 11.007 1.57297 -8.9496
346 1 7.8618 11.007 1.57325 -8.9501
347 1 11.0066 11.007 1.57114 -8.95325
348 1 14.1526 11.007 1.57175 -8.94955
349 1 17.2972 11.007 1.57249 -8.94955
350 1 20.4416 11.007 1.57266 -8.94957
688 2 10.3177 11.007 9.37398 0.552753
352 1 1.57215 14.1522 1.57271 -8.94965
353 1 3.14449 12.5796 0.00085225 -8.94965
354 1 4.7168 14.1521 1.57291 -8.94985
511 1 18.8693 18.8698 9.43463 -8.94958
356 1 7.86156 14.1522 1.57333 -8.94933
538 1 17.2969 20.4419 11.0073 -8.94961
358 1 11.0065 14.1522 1.57318 -8.94909
359 1 12.5796 12.5798 0.000373031 -8.95047
360 1 14.1525 14.1529 1.57183 -8.94984
510 1 15.7247 18.8699 9.43499 -8.94958
362 1 17.2972 14.1525 1.57246 -8.9496
363 1 18.8694 12.5797 0.000667296 -8.94958
364 1 20.4416 14.1523 1.57262 -8.94958
365 1 2.53875e-05 15.7248 0.000613584 -8.9496
366 1 1.5724 17.2971 1.57266 -8.94952
509 1 12.5796 18.8696 9.43548 -8.94941
368 1 4.71728 17.2969 1.57296 -8.94967
369 1 6.28952 15.7245 0.000948144 -8.94954
370 1 7.862 17.2967 1.57338 -8.94959
508 1 9.43443 18.8715 9.43571 -8.95438
372 1 11.0065 17.2967 1.57337 -8.94958
507 1 6.28913 18.8695 9.43545 -8.94933
374 1 14.1515 17.2971 1.57299 -8.94985
375 1 15.7246 15.7251 0.000528591 -8.9496
376 1 17.2969 17.2976 1.57249 -8.94916
506 1 3.14431 18.8696 9.43483 -8.9496
378 1 20.4416 17.2973 1.57259 -8.94953
531 1 17.2975 17.2978 11.0076 -8.94952
380 1 1.57262 20.4417 1.57266 -8.94954
381 1 3.14506 18.8694 0.000527258 -8.94962
382 1 4.71752 20.4416 1.57286 -8.94968
505 1 -0.000250509 18.8698 9.43456 -8.94958
384 1 7.86209 20.4415 1.57306 -8.94961
385 1 9.43434 18.8691 0.000786119 -8.94959
386 1 11.0066 20.4415 1.57309 -8.94961
387 1 12.579 18.8693 0.000770222 -8.94961
388 1 14.1513 20.4416 1.57294 -8.94966
504 1 18.8697 15.7255 9.43478 -8.94947
390 1 17.2965 20.4418 1.57269 -8.94959
391 1 18.8692 18.8697 0.000498442 -8.94941
392 1 20.4415 20.4418 1.57266 -8.94954
393 1 1.57126 11.007 4.717 -8.94952
394 1 4.7151 11.007 4.717 -8.94817
395 1 7.86132 11.007 4.71661 -8.95418
396 1 11.0081 11.007 4.70567 -8.97335
397 1 14.1557 11.007 4.71383 -8.94742
398 1 17.2985 11.007 4.71639 -8.94933
399 1 20.4416 11.007 4.71687 -8.9497
400 1 -0.000287448 12.5796 3.14474 -8.94959
401 1 1.57149 14.1524 4.71697 -8.94973
402 1 3.14398 12.5796 3.14493 -8.9496
403 1 4.71539 14.1528 4.71685 -8.94847
404 1 6.28859 12.5796 3.14501 -8.95068
405 1 7.86123 14.1518 4.71828 -8.95106
406 1 9.43342 12.5803 3.14516 -8.94589
407 1 11.0062 14.1513 4.71826 -8.95068
408 1 12.5812 12.5809 3.14164 -8.95138
409 1 14.156 14.1558 4.71375 -8.94402
410 1 15.7257 12.58 3.14392 -8.94945
411 1 17.2983 14.1531 4.71643 -8.94989
412 1 18.8696 12.5798 3.14459 -8.94954
413 1 20.4416 14.1525 4.71688 -8.94979
414 1 22.0138 15.7249 3.14471 -8.94962
415 1 1.57209 17.2973 4.71711 -8.94954
416 1 3.1443 15.7249 3.14484 -8.94932
417 1 4.71664 17.2973 4.71738 -8.9492
418 1 6.28931 15.7244 3.14551 -8.94984
419 1 7.86206 17.2964 4.71843 -8.95027
420 1 9.43414 15.7243 3.14623 -8.94927
421 1 11.0065 17.2965 4.71826 -8.94967
422 1 12.579 15.7246 3.14546 -8.9502
423 1 14.1521 17.2979 4.71728 -8.95008
424 1 15.7254 15.7259 3.14396 -8.94809
425 1 17.297 17.2977 4.71705 -8.94948
426 1 18.8695 15.7251 3.14457 -8.94957
427 1 20.4415 17.2975 4.717 -8.94949
428 1 1.93281e-05 18.8695 3.14484 -8.94955
429 1 1.57244 20.4417 4.71724 -8.94967
430 1 3.14485 18.8694 3.14499 -8.94949
431 1 4.71713 20.4417 4.71738 -8.94952
432 1 6.28975 18.869 3.14548 -8.94981
433 1 7.86203 20.4414 4.71788 -8.94953
434 1 9.43428 18.869 3.14574 -8.94961
435 1 11.0066 20.4414 4.71787 -8.94952
436 1 12.5789 18.8692 3.14548 -8.94967
437 1 14.1516 20.4418 4.71746 -8.94969
438 1 15.7241 18.8697 3.14496 -8.94967
439 1 17.2965 20.4418 4.71727 -8.94966
440 1 18.8691 18.8697 3.14485 -8.94955
441 1 20.4415 20.4418 4.71715 -8.9496
442 1 1.56984 11.007 7.86221 -8.95017
443 1 4.7113 11.007 7.86299 -8.95367
444 1 7.84526 11.007 7.85129 -9.01773
445 1 11.0451 11.007 7.78327 -9.26735
446 1 14.1624 11.007 7.85933 -9.00837
447 1 17.3002 11.007 7.86195 -8.95077
448 1 20.4416 11.007 7.86197 -8.94997
449 1 22.0131 12.5798 6.28935 -8.94992
450 1 1.57047 14.1529 7.86185 -8.94945
451 1 3.14215 12.5799 6.28937 -8.95045
452 1 4.71384 14.153 7.86227 -8.95028
453 1 6.28409 12.5812 6.28728 -8.94684
454 1 7.85548 14.1548 7.85987 -9.00896
455 1 9.43089 12.579 6.29459 -9.03712
456 1 11.0128 14.1507 7.86244 -9.03338
457 1 12.5937 12.5894 6.27693 -8.97546
458 1 14.1566 14.1543 7.86157 -8.94768
459 1 15.7291 12.5808 6.28793 -8.95189
460 1 17.299 14.1533 7.86182 -8.94935
461 1 18.8704 12.58 6.28921 -8.95017
462 1 20.4415 14.1528 7.86183 -8.94969
463 1 -0.000495604 15.7251 6.28934 -8.94952
464 1 1.57178 17.2974 7.86212 -8.94957
465 1 3.14348 15.7251 6.28958 -8.94953
466 1 4.71639 17.2971 7.86284 -8.9503
467 1 6.28766 15.7255 6.28967 -8.94786
468 1 7.86036 17.2987 7.86226 -8.94791
469 1 9.43475 15.7236 6.29263 -8.95137
470 1 11.0083 17.2981 7.8625 -8.94653
471 1 12.5808 15.7261 6.28979 -8.95201
472 1 14.1526 17.2976 7.86284 -8.95034
473 1 15.7257 15.7258 6.28936 -8.94902
474 1 17.2972 17.2977 7.86221 -8.94958
475 1 18.8696 15.7254 6.28931 -8.94941
476 1 20.4414 17.2976 7.86197 -8.94953
477 1 22.0138 18.8696 6.28951 -8.94959
478 1 1.57226 20.4418 7.86207 -8.94962
479 1 3.14456 18.8695 6.28979 -8.94981
480 1 4.71702 20.4417 7.86243 -8.94962
481 1 6.28899 18.8697 6.28987 -8.94934
482 1 7.86165 20.442 7.86252 -8.94994
483 1 9.4344 18.869 6.29062 -8.94913
484 1 11.0071 20.4419 7.86258 -8.94964
485 1 12.5796 18.8698 6.28998 -8.94961
486 1 14.1518 20.4418 7.8625 -8.94973
487 1 15.7244 18.8698 6.28982 -8.94978
488 1 17.2967 20.4419 7.86214 -8.94962
489 1 18.8691 18.8698 6.28953 -8.9496
490 1 20.4415 20.4418 7.86197 -8.9496
491 1 -0.00164317 12.5802 9.43462 -8.94974
492 1 3.14 12.5809 9.43459 -8.9467
493 1 6.28557 12.5811 9.4328 -9.03711
494 1 9.41468 12.6522 9.42137 -9.3753
495 1 12.5898 12.5824 9.43217 -9.02877
496 1 15.7303 12.5811 9.43446 -8.94803
497 1 18.8708 12.5803 9.43475 -8.94994
498 1 22.0132 15.7254 9.43464 -8.94948
499 1 3.14311 15.7254 9.43507 -8.94919
500 1 6.28873 15.7248 9.43663 -8.95144
501 1 9.43425 15.739 9.43702 -8.97165
502 1 12.5805 15.725 9.43628 -8.95121
503 1 15.7261 15.7258 9.4353 -8.94901
512 1 1.5671 11.007 11.0079 -8.9535
687 2 9.37401 11.007 10.3611 0.544221
513 1 4.69879 11.007 11.0103 -8.97423
516 1 14.1707 11.007 11.0098 -9.01661
519 1 1.56988 14.153 11.0077 -8.94924
520 1 4.713 14.1526 11.0083 -8.95039
521 1 7.85645 14.1517 11.0156 -9.03481
522 1 11.0122 14.1517 11.0133 -9.05865
527 1 4.71587 17.2975 11.0079 -8.94962
532 1 20.4415 17.2977 11.0073 -8.94955
534 1 4.71684 20.4418 11.0075 -8.9496
686 1 20.4416 20.4418 20.4422 -8.94942
685 1 18.8693 18.8698 18.8702 -8.94939
514 1 7.76827 11.007 11.0449 -9.25653
515 1 11.0878 11.007 11.0793 -9.32487
684 1 17.2965 20.4418 20.4423 -8.94963
517 1 17.3019 11.007 11.0083 -8.95351
518 1 20.4414 11.007 11.0077 -8.95098
683 1 15.7242 18.8697 18.8702 -8.94969
682 1 14.1514 20.4417 20.4423 -8.94962
681 1 12.5792 18.8694 18.8701 -8.9496
680 1 11.0067 20.4416 20.4422 -8.94961
523 1 14.1566 14.1533 11.0089 -8.94933
524 1 17.2992 14.1532 11.0081 -8.94939
525 1 20.4414 14.1529 11.0076 -8.94962
526 1 1.57154 17.2976 11.0074 -8.94956
389 1 15.724 18.8695 22.0145 -8.9497
528 1 7.8604 17.2984 11.0099 -8.94678
529 1 11.0085 17.2984 11.0098 -8.94688
530 1 14.1531 17.2977 11.0081 -8.94989
679 1 9.43445 18.8693 18.8699 -8.9496
383 1 6.28981 18.8692 22.0146 -8.94962
678 1 7.86214 20.4415 20.4421 -8.94961
377 1 18.8693 15.7249 22.0145 -8.94959
535 1 7.86168 20.442 11.008 -8.9497
536 1 11.0072 20.442 11.0081 -8.94967
537 1 14.1521 20.4418 11.0076 -8.94966
677 1 6.28975 18.8693 18.8699 -8.94962
539 1 20.4415 20.4419 11.0071 -8.9496
540 1 1.56893 11.007 14.1544 -8.94951
541 1 4.70995 11.007 14.1579 -8.94704
542 1 7.85591 11.007 14.1631 -9.00879
543 1 11.0101 11.007 14.1697 -9.01663
544 1 14.157 11.007 14.157 -8.94916
545 1 17.2995 11.007 14.1547 -8.94926
546 1 20.4413 11.007 14.1537 -8.94981
547 1 22.0118 12.5802 12.5809 -8.95056
548 1 1.56947 14.1536 14.1543 -8.9497
549 1 3.13731 12.5815 12.5832 -8.95136
550 1 4.71083 14.1565 14.1581 -8.94299
551 1 6.27088 12.5904 12.5966 -8.97303
552 1 7.86038 14.1528 14.1564 -8.94946
553 1 9.43022 12.5781 12.5851 -9.03562
554 1 11.0074 14.1517 14.1554 -8.95077
555 1 12.5936 12.5901 12.5933 -9.00682
556 1 14.1572 14.1559 14.1577 -8.94407
557 1 15.7307 12.5815 12.5834 -8.95019
558 1 17.2993 14.1536 14.1545 -8.94962
559 1 18.8708 12.5803 12.5811 -8.95034
560 1 20.4414 14.153 14.1535 -8.94992
561 1 -0.00083885 15.7255 12.5803 -8.94951
562 1 1.57158 17.2978 14.1529 -8.94976
563 1 3.14266 15.7256 12.5807 -8.95004
564 1 4.7158 17.2985 14.1537 -8.94995
565 1 6.28665 15.7269 12.5828 -8.95174
566 1 7.86191 17.297 14.1533 -8.95018
567 1 9.43456 15.7237 12.581 -8.95017
568 1 11.0071 17.2969 14.1534 -8.94979
569 1 12.582 15.7267 12.5826 -8.95189
570 1 14.1532 17.2984 14.1539 -8.94987
571 1 15.7264 15.7259 12.5812 -8.94974
572 1 17.2976 17.298 14.1532 -8.94967
573 1 18.8699 15.7256 12.5805 -8.94952
574 1 20.4416 17.2978 14.1528 -8.94956
575 1 22.0136 18.8699 12.5799 -8.94959
576 1 1.5722 20.4419 14.1524 -8.94965
577 1 3.14417 18.8698 12.58 -8.94965
578 1 4.71686 20.442 14.1527 -8.94974
579 1 6.28878 18.8701 12.5808 -8.94973
580 1 7.86202 20.4416 14.1526 -8.94957
581 1 9.43451 18.8692 12.5805 -8.9491
582 1 11.007 20.4416 14.1527 -8.94952
583 1 12.5802 18.8702 12.5809 -8.94968
584 1 14.1522 20.442 14.1529 -8.9497
585 1 15.7249 18.87 12.5803 -8.94972
586 1 17.297 20.442 14.1526 -8.94967
587 1 18.8694 18.87 12.58 -8.94959
588 1 20.4416 20.4419 14.1524 -8.9496
589 1 1.57114 11.007 17.2988 -8.94952
590 1 4.71521 11.007 17.3 -8.94935
591 1 7.8613 11.007 17.3007 -8.95114
592 1 11.0076 11.007 17.3018 -8.95362
593 1 14.1538 11.007 17.3002 -8.94918
594 1 17.2979 11.007 17.299 -8.94952
595 1 20.4415 11.007 17.2985 -8.94955
596 1 22.0128 12.58 15.7263 -8.94955
597 1 1.57133 14.1527 17.2987 -8.94956
598 1 3.1418 12.5803 15.7275 -8.94928
599 1 4.71556 14.1531 17.2998 -8.94992
600 1 6.28602 12.5808 15.7304 -8.95212
601 1 7.86145 14.1526 17.2993 -8.94933
602 1 9.43355 12.5803 15.729 -8.94685
603 1 11.0073 14.1523 17.2991 -8.9493
604 1 12.5829 12.5812 15.7307 -8.95008
605 1 14.1536 14.1533 17.3001 -8.94964
606 1 15.7269 12.5802 15.7277 -8.94981
607 1 17.2978 14.1528 17.2989 -8.94968
608 1 18.87 12.58 15.7264 -8.94959
609 1 20.4416 14.1526 17.2984 -8.94956
610 1 22.0132 15.7256 15.726 -8.9495
611 1 1.57186 17.2978 17.2982 -8.94907
612 1 3.1426 15.7264 15.727 -8.9478
613 1 4.71687 17.2975 17.298 -8.94969
614 1 6.28865 15.7253 15.7266 -8.94963
615 1 7.86204 17.297 17.2978 -8.94961
616 1 9.43456 15.7247 15.7261 -8.94919
617 1 11.007 17.297 17.2979 -8.94954
618 1 12.5801 15.7251 15.7265 -8.95021
619 1 14.1522 17.2975 17.2982 -8.94984
620 1 15.7263 15.7264 15.7272 -8.94811
621 1 17.2973 17.2979 17.2983 -8.94916
622 1 18.8699 15.7257 15.7261 -8.94951
623 1 20.4416 17.2978 17.2981 -8.94943
624 1 -0.000126564 18.8699 15.7252 -8.94964
625 1 1.57239 20.4419 17.2975 -8.94956
626 1 3.14434 18.87 15.7254 -8.94961
627 1 4.71734 20.4418 17.2974 -8.94968
628 1 6.28954 18.8695 15.7252 -8.94976
629 1 7.86213 20.4416 17.2974 -8.9496
630 1 9.43453 18.8693 15.7252 -8.94958
631 1 11.0068 20.4416 17.2974 -8.9496
632 1 12.5795 18.8695 15.7254 -8.94972
633 1 14.1517 20.4418 17.2976 -8.94968
634 1 15.7248 18.8701 15.7256 -8.9496
635 1 17.2968 20.442 17.2977 -8.94957
636 1 18.8694 18.87 15.7253 -8.94961
637 1 20.4416 20.4419 17.2976 -8.94959
638 1 1.57206 11.007 20.4427 -8.94958
639 1 4.71672 11.007 20.4431 -8.94979
640 1 7.86185 11.007 20.4433 -8.9499
641 1 11.0069 11.007 20.4432 -8.95077
642 1 14.1524 11.007 20.443 -8.94979
643 1 17.2972 11.007 20.4428 -8.94957
644 1 20.4416 11.007 20.4426 -8.94957
645 1 22.0136 12.5797 18.8706 -8.94957
646 1 1.57215 14.1523 20.4426 -8.9496
647 1 3.14394 12.5798 18.871 -8.94957
648 1 4.71687 14.1522 20.4429 -8.94991
649 1 6.28893 12.5797 18.8716 -8.95035
650 1 7.86179 14.1522 20.4429 -8.94955
651 1 9.43431 12.5799 18.8715 -8.94951
652 1 11.0069 14.1522 20.4429 -8.94944
653 1 12.5802 12.5799 18.8718 -8.95036
654 1 14.1523 14.1525 20.4428 -8.94997
655 1 15.7252 12.5798 18.8712 -8.9496
656 1 17.2972 14.1524 20.4427 -8.94959
657 1 18.8696 12.5798 18.8707 -8.94956
658 1 20.4416 14.1523 20.4426 -8.94958
659 1 22.0137 15.725 18.8704 -8.94957
660 1 1.57239 17.2973 20.4424 -8.94954
661 1 3.14426 15.7251 18.8707 -8.94959
662 1 4.71727 17.2971 20.4424 -8.94957
663 1 6.28938 15.7248 18.8705 -8.94947
664 1 7.86206 17.2969 20.4424 -8.94956
665 1 9.43445 15.7246 18.8704 -8.94948
666 1 11.0067 17.297 20.4425 -8.94956
667 1 12.5795 15.7248 18.8706 -8.94952
668 1 14.1517 17.2972 20.4426 -8.94962
669 1 15.725 15.7253 18.8709 -8.94953
670 1 17.2969 17.2975 20.4425 -8.94947
671 1 18.8695 15.7251 18.8705 -8.94958
672 1 20.4416 17.2974 20.4424 -8.94955
673 1 3.54453e-05 18.8698 18.8701 -8.94939
674 1 1.57267 20.4417 20.4422 -8.94959
675 1 3.1449 18.8696 18.87 -8.94964
676 1 4.71752 20.4416 20.4421 -8.94962
351 1 22.0138 12.5796 22.0146 -8.94959
355 1 6.28935 12.5795 22.0151 -8.94999
361 1 15.7248 12.5797 22.0145 -8.94958
367 1 3.14468 15.7247 22.0146 -8.94969
371 1 9.43425 15.7245 22.015 -8.94944
373 1 12.5791 15.7247 22.0149 -8.94949
357 1 9.4341 12.5798 22.0149 -8.94943
379 1 22.014 18.8696 22.0144 -8.94949
533 1 1.57215 20.4419 11.0072 -8.94961
