ITEM: TIMESTEP
76
ITEM: NUMBER OF ATOMS
688
ITEM: BOX BOUNDS pp pp pp
0.0000000000000000e+00 2.2013900999999997e+01
0.0000000000000000e+00 2.2013900999999997e+01
0.0000000000000000e+00 2.2013900999999997e+01
ITEM: ATOMS id type x y z c_pot
1 1 0.000220526 -2.8247e-16 0.000289231 -8.94955
2 1 1.57267 1.57226 1.57246 -8.94958
175 1 18.8704 9.43367 9.43451 -8.95014
4 1 4.71759 1.57241 1.57264 -8.94968
5 1 6.28991 7.66447e-16 0.00032243 -8.94961
6 1 7.86216 1.57249 1.57283 -8.94961
174 1 15.7305 9.43246 9.43469 -8.94909
8 1 11.0066 1.57248 1.57288 -8.94961
9 1 12.579 1.72809e-16 0.000442067 -8.94962
10 1 14.1513 1.57237 1.57277 -8.94967
173 1 12.5934 9.42852 9.4322 -9.02235
12 1 17.2964 1.57218 1.57254 -8.94963
13 1 18.869 5.42055e-16 0.000353788 -8.94957
14 1 20.4415 1.57217 1.57247 -8.94951
193 1 11.0138 7.86332 11.0133 -9.06077
16 1 1.57243 4.71682 1.57241 -8.94953
17 1 3.14514 3.14464 0.000306199 -8.94967
18 1 4.71746 4.71718 1.57273 -8.94971
172 1 9.41301 9.36699 9.42554 -9.37677
20 1 7.86208 4.71741 1.57321 -8.94961
21 1 9.43436 3.14487 0.000571734 -8.9496
22 1 11.0064 4.71738 1.57329 -8.94959
23 1 12.5789 3.14476 0.000614609 -8.94962
24 1 14.1512 4.71703 1.57298 -8.9499
171 1 6.28173 9.43163 9.4321 -9.03382
26 1 17.2967 4.71654 1.57245 -8.94928
27 1 18.8691 3.14432 0.000410507 -8.94943
28 1 20.4415 4.71672 1.57242 -8.94954
29 1 6.94694e-06 6.28923 0.000394417 -8.9496
30 1 1.57218 7.86177 1.57241 -8.94965
170 1 3.13846 9.43268 9.43397 -8.94718
32 1 4.71698 7.86186 1.57259 -8.94992
33 1 6.2897 6.28957 0.000584092 -8.94948
34 1 7.86169 7.86196 1.57334 -8.94912
169 1 -0.00233576 9.43368 9.43419 -8.9499
36 1 11.0062 7.86202 1.57348 -8.94896
168 1 18.8697 6.28832 9.43445 -8.94946
38 1 14.1521 7.86124 1.57216 -8.94989
39 1 15.7244 6.28895 0.000591506 -8.94966
40 1 17.2968 7.86161 1.57257 -8.94965
167 1 15.7262 6.28766 9.43495 -8.94874
42 1 20.4414 7.86174 1.57248 -8.94958
166 1 12.5807 6.28811 9.43639 -8.952
44 1 3.14464 9.43437 0.000476799 -8.94969
165 1 9.4341 6.2765 9.43785 -8.97082
192 1 7.85539 7.86259 11.0156 -9.03687
47 1 12.5793 9.4342 0.000587473 -8.95047
164 1 6.28822 6.28901 9.43651 -8.95189
49 1 18.8692 9.43431 0.000647437 -8.94958
50 1 22.014 1.23955e-16 3.14466 -8.94959
51 1 1.57246 1.57218 4.71698 -8.94966
52 1 3.14505 6.98149e-17 3.14475 -8.94955
53 1 4.71727 1.57228 4.71717 -8.94953
54 1 6.28989 -3.03451e-17 3.14507 -8.94961
55 1 7.8621 1.57261 4.71765 -8.94949
56 1 9.43437 1.97682e-16 3.14522 -8.94961
57 1 11.0066 1.57258 4.71766 -8.94949
58 1 12.5789 -1.64265e-16 3.14513 -8.94961
59 1 14.1515 1.57221 4.71725 -8.94965
60 1 15.7239 2.82485e-16 3.14483 -8.94964
61 1 17.2965 1.5721 4.71698 -8.94965
62 1 18.869 -4.1733e-17 3.14467 -8.94958
63 1 20.4415 1.57213 4.71691 -8.94958
64 1 6.76704e-06 3.1444 3.14459 -8.94952
65 1 1.57204 4.71658 4.71677 -8.94945
66 1 3.14495 3.14458 3.14475 -8.94958
67 1 4.71693 4.71686 4.71728 -8.94944
68 1 6.28989 3.14502 3.14527 -8.94981
69 1 7.86214 4.71797 4.71854 -8.95029
70 1 9.43428 3.14511 3.14556 -8.94963
71 1 11.0062 4.71788 4.71848 -8.94977
72 1 12.5787 3.14494 3.14536 -8.94971
73 1 14.1516 4.71643 4.71737 -8.95019
74 1 15.7239 3.14438 3.14483 -8.94974
75 1 17.2968 4.71634 4.71679 -8.94933
76 1 18.869 3.14433 3.14462 -8.9495
77 1 20.4414 4.71653 4.71673 -8.94947
78 1 22.0136 6.28911 3.14446 -8.9496
79 1 1.57132 7.86143 4.71653 -8.94966
80 1 3.14438 6.2891 3.1445 -8.94934
81 1 4.71545 7.8611 4.71655 -8.94857
82 1 6.2896 6.28985 3.14558 -8.9499
83 1 7.86153 7.86283 4.71931 -8.95106
84 1 9.43404 6.29001 3.14651 -8.94929
85 1 11.0053 7.86336 4.71962 -8.9507
86 1 12.5785 6.28974 3.14585 -8.95029
87 1 14.1548 7.85881 4.71452 -8.94509
88 1 15.7248 6.28836 3.14413 -8.94842
89 1 17.2976 7.86108 4.71651 -8.94985
90 1 18.8692 6.28897 3.14449 -8.94958
91 1 20.4413 7.8615 4.71665 -8.94972
92 1 -0.000460181 9.43429 3.14447 -8.94958
93 1 3.14401 9.43429 3.14452 -8.94963
94 1 6.28876 9.43444 3.14501 -8.95083
95 1 9.43316 9.4338 3.14599 -8.94517
96 1 12.5804 9.43326 3.14261 -8.95102
97 1 15.7249 9.43404 3.14436 -8.94957
98 1 18.8692 9.43426 3.14457 -8.94955
99 1 -4.66245e-06 3.17185e-16 6.28931 -8.9496
100 1 1.57227 1.57209 7.86183 -8.94962
101 1 3.14485 1.08809e-15 6.28951 -8.94971
102 1 4.71708 1.57223 7.86217 -8.94971
103 1 6.28953 8.50304e-16 6.28966 -8.94964
104 1 7.86172 1.57211 7.86229 -8.94978
105 1 9.43433 1.50428e-16 6.28994 -8.94928
106 1 11.0069 1.57211 7.8623 -8.94956
107 1 12.5792 3.03972e-16 6.2897 -8.94963
108 1 14.1517 1.57208 7.86217 -8.94984
109 1 15.7241 4.06184e-16 6.2895 -8.94977
110 1 17.2967 1.572 7.86182 -8.94959
111 1 18.869 1.77583e-16 6.2893 -8.94959
112 1 20.4415 1.57205 7.86173 -8.94959
113 1 22.0137 3.14425 6.28923 -8.94958
114 1 1.57164 4.71631 7.86174 -8.94956
115 1 3.14457 3.14438 6.28948 -8.94982
116 1 4.71631 4.71664 7.86247 -8.9504
117 1 6.28917 3.14449 6.28975 -8.94932
118 1 7.86042 4.7159 7.86246 -8.94762
119 1 9.43429 3.14522 6.29055 -8.949
120 1 11.0079 4.71627 7.86264 -8.94635
121 1 12.5793 3.14439 6.28986 -8.94949
122 1 14.1525 4.71596 7.86247 -8.95047
123 1 15.7243 3.14409 6.28948 -8.94978
124 1 17.2972 4.71607 7.86182 -8.94951
125 1 18.8691 3.14418 6.28924 -8.94957
126 1 20.4413 4.71629 7.86165 -8.94951
127 1 -0.000756593 6.28871 6.28894 -8.94949
128 1 1.56991 7.8608 7.86131 -8.94941
129 1 3.14332 6.28861 6.28907 -8.94921
130 1 4.71287 7.86036 7.8616 -8.94919
131 1 6.28805 6.28899 6.2901 -8.9487
132 1 7.85605 7.86143 7.86272 -9.00732
133 1 9.43437 6.29141 6.29363 -8.95153
134 1 11.0111 7.86471 7.86555 -9.03205
135 1 12.5798 6.2885 6.29051 -8.95224
136 1 14.1568 7.85875 7.86122 -8.94634
137 1 15.7255 6.28796 6.28899 -8.94859
138 1 17.2986 7.86053 7.86162 -8.94953
139 1 18.8694 6.2886 6.28903 -8.94945
140 1 20.4411 7.86109 7.8615 -8.94975
141 1 22.0126 9.43408 6.28892 -8.94983
142 1 3.14171 9.43389 6.28884 -8.95028
143 1 6.28377 9.4329 6.28758 -8.94726
144 1 9.43083 9.43652 6.29833 -9.03238
145 1 12.5911 9.42596 6.27983 -8.97809
146 1 15.7278 9.43328 6.28847 -8.95153
147 1 18.8697 9.43403 6.28907 -8.95001
148 1 -6.33814e-05 8.1785e-19 9.43431 -8.9496
149 1 3.14466 3.93571e-16 9.43448 -8.94969
150 1 6.28946 2.61854e-16 9.4348 -8.94955
151 1 9.43434 -8.66834e-16 9.43491 -8.95075
152 1 12.5793 3.9709e-16 9.4348 -8.94962
153 1 15.7243 1.08917e-16 9.43448 -8.94972
154 1 18.8692 4.06979e-16 9.43431 -8.94959
155 1 -0.000267427 3.14409 9.43431 -8.94958
156 1 3.14424 3.14413 9.43454 -8.94962
157 1 6.28917 3.14443 9.4352 -8.94947
158 1 9.43432 3.1427 9.4355 -8.95406
159 1 12.5795 3.14415 9.43521 -8.9497
160 1 15.7247 3.1438 9.43462 -8.94956
161 1 18.8693 3.144 9.43434 -8.94957
162 1 22.0129 6.28846 9.43428 -8.94949
163 1 3.14267 6.28828 9.43465 -8.94911
191 1 4.71171 7.86081 11.0081 -8.95003
181 1 17.297 1.57189 11.007 -8.9496
188 1 17.2976 4.7158 11.0074 -8.94952
190 1 1.56927 7.86069 11.0074 -8.94929
177 1 4.71688 1.57208 11.0072 -8.94966
184 1 4.71569 4.71626 11.0076 -8.94966
189 1 20.4414 4.7161 11.0071 -8.94954
7 1 9.43441 1.03898e-16 0.000402056 -8.94961
343 1 18.8696 9.43416 18.8707 -8.94953
48 1 15.7245 9.43424 22.0147 -8.94963
178 1 7.86171 1.572 11.0077 -8.9497
179 1 11.007 1.57194 11.0077 -8.9496
180 1 14.1521 1.57188 11.0073 -8.94979
342 1 15.7254 9.43401 18.8714 -8.94956
182 1 20.4415 1.57198 11.0069 -8.94959
183 1 1.57138 4.71612 11.0071 -8.94956
45 1 6.28957 9.43447 22.0146 -8.94999
185 1 7.86032 4.7158 11.0097 -8.94702
186 1 11.0085 4.71576 11.0096 -8.94659
187 1 14.1533 4.71552 11.0079 -8.94991
341 1 12.5801 9.434 18.8718 -8.95069
43 1 22.0138 9.43435 22.0144 -8.9496
340 1 9.43438 9.43417 18.8705 -8.94908
339 1 6.28925 9.43434 18.8707 -8.95047
338 1 3.14414 9.4342 18.8706 -8.94959
337 1 22.0137 9.43422 18.8704 -8.94956
194 1 14.1581 7.85908 11.0093 -8.94818
195 1 17.2994 7.86034 11.008 -8.94954
196 1 20.4412 7.8609 11.0073 -8.94975
197 1 -4.57932e-05 5.85359e-16 12.5796 -8.94961
198 1 1.57222 1.57196 14.1523 -8.94966
199 1 3.14459 1.49975e-15 12.5797 -8.9497
200 1 4.7169 1.57191 14.1525 -8.94978
201 1 6.28936 1.14902e-15 12.58 -8.94983
202 1 7.86206 1.57242 14.1523 -8.94943
203 1 9.4344 1.32593e-15 12.5799 -8.94918
204 1 11.0068 1.5723 14.1524 -8.94949
205 1 12.5795 7.49804e-16 12.58 -8.94986
206 1 14.1522 1.57172 14.1527 -8.94985
207 1 15.7245 1.79373e-16 12.5797 -8.94975
208 1 17.2971 1.57181 14.1524 -8.94964
209 1 18.8693 1.03276e-15 12.5796 -8.94959
210 1 20.4416 1.57194 14.1523 -8.94959
211 1 22.0137 3.14398 12.5797 -8.94958
212 1 1.57153 4.71596 14.1527 -8.94973
213 1 3.14411 3.14397 12.5799 -8.94968
214 1 4.71582 4.71544 14.1534 -8.94991
215 1 6.28881 3.14385 12.5805 -8.94983
216 1 7.86212 4.71752 14.1526 -8.95002
217 1 9.43448 3.14497 12.5802 -8.94876
218 1 11.007 4.71715 14.153 -8.94968
219 1 12.5801 3.14353 12.5806 -8.94994
220 1 14.1534 4.71482 14.1539 -8.95015
221 1 15.7251 3.14356 12.5801 -8.94969
222 1 17.2978 4.71557 14.1531 -8.94956
223 1 18.8695 3.14386 12.5798 -8.94957
224 1 20.4416 4.71601 14.1527 -8.94954
225 1 -0.000982029 6.28832 12.5801 -8.94954
226 1 1.56932 7.86021 14.1541 -8.94959
227 1 3.14232 6.28804 12.5805 -8.94991
228 1 4.71065 7.85732 14.1578 -8.94241
229 1 6.28636 6.28689 12.5824 -8.95171
230 1 7.86167 7.86271 14.1542 -8.9514
231 1 9.43496 6.29147 12.5802 -8.94908
232 1 11.0073 7.86272 14.1545 -8.95143
233 1 12.5826 6.28614 12.5827 -8.95305
234 1 14.1592 7.85611 14.1594 -8.94195
235 1 15.727 6.28723 12.5813 -8.94929
236 1 17.2998 7.85994 14.1547 -8.94984
237 1 18.87 6.28813 12.5803 -8.94951
238 1 20.4415 7.86083 14.1533 -8.94998
239 1 22.0114 9.43364 12.5806 -8.95062
240 1 3.13639 9.43223 12.583 -8.95111
241 1 6.26961 9.42332 12.5961 -8.97124
242 1 9.43289 9.44067 12.5787 -9.04347
243 1 12.5994 9.42044 12.5976 -9.00268
244 1 15.732 9.43202 12.5839 -8.95138
245 1 18.8709 9.43361 12.5809 -8.95061
246 1 4.88551e-05 7.5522e-16 15.7248 -8.94961
247 1 1.57243 1.57201 17.2974 -8.94955
248 1 3.14474 9.68127e-16 15.7249 -8.94968
249 1 4.71743 1.57224 17.2971 -8.94969
250 1 6.28976 5.8843e-16 15.7246 -8.9496
251 1 7.86212 1.57237 17.2971 -8.94958
252 1 9.43441 1.3099e-15 15.7247 -8.94958
253 1 11.0067 1.5723 17.2972 -8.94959
254 1 12.5792 1.39749e-15 15.7248 -8.94964
255 1 14.1517 1.57207 17.2974 -8.9497
256 1 15.7245 1.24142e-15 15.7251 -8.94974
257 1 17.2969 1.57188 17.2976 -8.94958
258 1 18.8693 1.4521e-16 15.7249 -8.9496
259 1 20.4417 1.57198 17.2974 -8.94957
260 1 -8.66261e-05 3.14397 15.7251 -8.94962
261 1 1.57196 4.71613 17.298 -8.94907
262 1 3.14438 3.14386 15.7252 -8.94959
263 1 4.71713 4.7167 17.2975 -8.94991
264 1 6.2897 3.14464 15.7248 -8.94974
265 1 7.86208 4.71713 17.2973 -8.94955
266 1 9.43444 3.14476 15.7248 -8.94958
267 1 11.0069 4.71694 17.2976 -8.94952
268 1 12.5794 3.14429 15.7251 -8.94971
269 1 14.1521 4.71622 17.2981 -8.94996
270 1 15.7249 3.14348 15.7256 -8.94966
271 1 17.2976 4.71573 17.2984 -8.94893
272 1 18.8695 3.14383 15.7252 -8.94957
273 1 20.4417 4.71614 17.298 -8.94942
274 1 22.0132 6.28827 15.7258 -8.94949
275 1 1.57147 7.86121 17.2984 -8.94956
276 1 3.14272 6.28753 15.7267 -8.94767
277 1 4.71584 7.86102 17.2991 -8.95004
278 1 6.28917 6.28924 15.7255 -8.95024
279 1 7.86186 7.86184 17.2979 -8.94925
280 1 9.43457 6.28957 15.7253 -8.94914
281 1 11.0072 7.86173 17.2984 -8.94923
282 1 12.58 6.28865 15.7263 -8.9505
283 1 14.1539 7.86022 17.3005 -8.94972
284 1 15.727 6.28677 15.7277 -8.94739
285 1 17.2981 7.86092 17.299 -8.94955
286 1 18.8701 6.28809 15.7261 -8.94953
287 1 20.4417 7.86127 17.2983 -8.94953
288 1 22.0128 9.43391 15.7261 -8.94954
289 1 3.14185 9.43356 15.7271 -8.94922
290 1 6.28637 9.43337 15.7293 -8.95252
291 1 9.43419 9.43414 15.7266 -8.94538
292 1 12.584 9.43215 15.7317 -8.95082
293 1 15.7277 9.43329 15.7283 -8.9494
294 1 18.8703 9.43385 15.7264 -8.94958
295 1 22.0141 4.48921e-16 18.8698 -8.94952
296 1 1.57271 1.5722 20.442 -8.94963
297 1 3.14513 4.96813e-16 18.8696 -8.94968
298 1 4.71757 1.57234 20.4419 -8.94962
299 1 6.28986 6.4689e-16 18.8694 -8.9496
300 1 7.86215 1.5724 20.4419 -8.94961
301 1 9.43441 4.13137e-16 18.8695 -8.9496
302 1 11.0067 1.57237 20.442 -8.94961
303 1 12.5791 3.24776e-16 18.8696 -8.94961
304 1 14.1514 1.57226 20.4421 -8.94962
305 1 15.724 1.65198e-15 18.8698 -8.94967
306 1 17.2965 1.57212 20.4422 -8.94966
307 1 18.8692 9.08808e-16 18.8699 -8.94954
308 1 20.4416 1.57211 20.4421 -8.94941
309 1 0.000101735 3.14419 18.8699 -8.94939
310 1 1.57246 4.7167 20.4422 -8.94956
311 1 3.14501 3.14443 18.8697 -8.94972
312 1 4.71744 4.71703 20.442 -8.94961
313 1 6.28983 3.14471 18.8695 -8.94959
314 1 7.8621 4.71717 20.4421 -8.94955
315 1 9.43441 3.14474 18.8696 -8.9496
316 1 11.0067 4.7171 20.4423 -8.94956
317 1 12.5791 3.14454 18.8698 -8.94959
318 1 14.1516 4.71681 20.4424 -8.94964
319 1 15.7242 3.14418 18.8701 -8.94973
320 1 17.2969 4.71643 20.4425 -8.94947
321 1 18.8693 3.14404 18.8701 -8.94932
322 1 20.4416 4.71662 20.4423 -8.94955
323 1 22.0138 6.28892 18.8702 -8.94956
324 1 1.57225 7.8617 20.4423 -8.94961
325 1 3.14443 6.28891 18.8704 -8.94964
326 1 4.7171 7.86181 20.4424 -8.94998
327 1 6.28964 6.28941 18.8699 -8.9495
328 1 7.86194 7.86187 20.4423 -8.9494
329 1 9.43441 6.28945 18.8699 -8.9495
330 1 11.0067 7.8618 20.4426 -8.94936
331 1 12.5794 6.28913 18.8704 -8.94953
332 1 14.1521 7.86142 20.443 -8.95008
333 1 15.7251 6.28842 18.8711 -8.94952
334 1 17.2971 7.86152 20.4428 -8.94957
335 1 18.8696 6.28878 18.8705 -8.94954
336 1 20.4416 7.86166 20.4424 -8.94957
3 1 3.14522 1.7505e-16 22.0142 -8.94964
41 1 18.8692 6.28913 22.0144 -8.9496
11 1 15.7238 2.80523e-16 22.0143 -8.94965
19 1 6.28989 3.14483 22.0143 -8.94962
25 1 15.7239 3.14451 22.0144 -8.94973
31 1 3.14482 6.28932 22.0143 -8.94974
35 1 9.43424 6.28961 22.0148 -8.94942
37 1 12.5789 6.28946 22.0148 -8.94949
15 1 22.014 3.14443 22.0142 -8.94951
46 1 9.43404 9.43422 22.0147 -8.9492
176 1 1.57216 1.57201 11.007 -8.94962
344 1 1.57208 11.007 1.57243 -8.94963
345 1 4.71684 11.007 1.5726 -8.94965
346 1 7.86189 11.007 1.57325 -8.94998
347 1 11.0063 11.007 1.57154 -8.95322
348 1 14.152 11.007 1.57227 -8.94954
349 1 17.2968 11.007 1.57264 -8.94957
350 1 20.4414 11.007 1.57251 -8.94957
688 2 10.305 11.007 9.39306 0.552341
352 1 1.57218 14.1521 1.57241 -8.94965
353 1 3.14464 12.5795 0.000476799 -8.94969
354 1 4.71698 14.152 1.57259 -8.94992
511 1 18.8693 18.8699 9.43434 -8.94957
356 1 7.86169 14.1519 1.57334 -8.94912
538 1 17.297 20.442 11.007 -8.9496
358 1 11.0062 14.1519 1.57348 -8.94896
359 1 12.5793 12.5797 0.000587473 -8.95047
360 1 14.1521 14.1527 1.57216 -8.94989
510 1 15.7247 18.8701 9.43462 -8.94956
362 1 17.2968 14.1523 1.57257 -8.94965
363 1 18.8692 12.5796 0.000647437 -8.94958
364 1 20.4414 14.1522 1.57248 -8.94958
365 1 6.94694e-06 15.7247 0.000394417 -8.9496
366 1 1.57243 17.2971 1.57241 -8.94953
509 1 12.5795 18.8697 9.43521 -8.9497
368 1 4.71746 17.2967 1.57273 -8.94971
369 1 6.2897 15.7243 0.000584092 -8.94948
370 1 7.86208 17.2965 1.57321 -8.94961
508 1 9.43432 18.8712 9.4355 -8.95406
372 1 11.0064 17.2965 1.57329 -8.94959
507 1 6.28917 18.8695 9.4352 -8.94947
374 1 14.1512 17.2969 1.57298 -8.9499
375 1 15.7244 15.725 0.000591506 -8.94966
376 1 17.2967 17.2974 1.57245 -8.94928
506 1 3.14424 18.8698 9.43454 -8.94962
378 1 20.4415 17.2972 1.57242 -8.94954
531 1 17.2976 17.2981 11.0074 -8.94952
380 1 1.57267 20.4416 1.57246 -8.94958
381 1 3.14514 18.8693 0.000306199 -8.94967
382 1 4.71759 20.4415 1.57264 -8.94968
505 1 -0.000267427 18.8698 9.43431 -8.94958
384 1 7.86216 20.4414 1.57283 -8.94961
385 1 9.43436 18.869 0.000571734 -8.9496
386 1 11.0066 20.4414 1.57288 -8.94961
387 1 12.5789 18.8691 0.000614609 -8.94962
388 1 14.1513 20.4415 1.57277 -8.94967
504 1 18.8697 15.7256 9.43445 -8.94946
390 1 17.2964 20.4417 1.57254 -8.94963
391 1 18.8691 18.8696 0.000410507 -8.94943
392 1 20.4415 20.4417 1.57247 -8.94951
393 1 1.57103 11.007 4.71658 -8.94949
394 1 4.71505 11.007 4.71676 -8.94828
395 1 7.86123 11.007 4.71769 -8.95445
396 1 11.0072 11.007 4.70725 -8.97169
397 1 14.1541 11.007 4.71512 -8.94787
398 1 17.2976 11.007 4.71663 -8.94934
399 1 20.4412 11.007 4.71667 -8.94964
400 1 -0.000460181 12.5796 3.14447 -8.94958
401 1 1.57132 14.1525 4.71653 -8.94966
402 1 3.14401 12.5796 3.14452 -8.94963
403 1 4.71545 14.1528 4.71655 -8.94857
404 1 6.28876 12.5795 3.14501 -8.95083
405 1 7.86153 14.1511 4.71931 -8.95106
406 1 9.43316 12.5801 3.14599 -8.94517
407 1 11.0053 14.1505 4.71962 -8.9507
408 1 12.5804 12.5806 3.14261 -8.95102
409 1 14.1548 14.1551 4.71452 -8.94509
410 1 15.7249 12.5799 3.14436 -8.94957
411 1 17.2976 14.1528 4.71651 -8.94985
412 1 18.8692 12.5796 3.14457 -8.94955
413 1 20.4413 14.1524 4.71665 -8.94972
414 1 22.0136 15.7248 3.14446 -8.9496
415 1 1.57204 17.2973 4.71677 -8.94945
416 1 3.14438 15.7248 3.1445 -8.94934
417 1 4.71693 17.297 4.71728 -8.94944
418 1 6.2896 15.7241 3.14558 -8.9499
419 1 7.86214 17.2959 4.71854 -8.95029
420 1 9.43404 15.7239 3.14651 -8.94929
421 1 11.0062 17.296 4.71848 -8.94977
422 1 12.5785 15.7242 3.14585 -8.95029
423 1 14.1516 17.2975 4.71737 -8.95019
424 1 15.7248 15.7255 3.14413 -8.94842
425 1 17.2968 17.2976 4.71679 -8.94933
426 1 18.8692 15.7249 3.14449 -8.94958
427 1 20.4414 17.2974 4.71673 -8.94947
428 1 6.76704e-06 18.8695 3.14459 -8.94952
429 1 1.57246 20.4417 4.71698 -8.94966
430 1 3.14495 18.8693 3.14475 -8.94958
431 1 4.71727 20.4416 4.71717 -8.94953
432 1 6.28989 18.8689 3.14527 -8.94981
433 1 7.8621 20.4413 4.71765 -8.94949
434 1 9.43428 18.8688 3.14556 -8.94963
435 1 11.0066 20.4413 4.71766 -8.94949
436 1 12.5787 18.869 3.14536 -8.94971
437 1 14.1515 20.4417 4.71725 -8.94965
438 1 15.7239 18.8695 3.14483 -8.94974
439 1 17.2965 20.4418 4.71698 -8.94965
440 1 18.869 18.8696 3.14462 -8.9495
441 1 20.4415 20.4418 4.71691 -8.94958
442 1 1.569 11.007 7.8616 -8.95016
443 1 4.7098 11.007 7.86239 -8.95334
444 1 7.8433 11.007 7.8534 -9.02635
445 1 11.0434 11.007 7.7933 -9.26962
446 1 14.161 11.007 7.86077 -9.00668
447 1 17.2995 11.007 7.86188 -8.95049
448 1 20.441 11.007 7.8616 -8.94998
449 1 22.0126 12.5798 6.28892 -8.94983
450 1 1.56991 14.1531 7.86131 -8.94941
451 1 3.14171 12.58 6.28884 -8.95028
452 1 4.71287 14.1535 7.8616 -8.94919
453 1 6.28377 12.581 6.28758 -8.94726
454 1 7.85605 14.1525 7.86272 -9.00732
455 1 9.43083 12.5774 6.29833 -9.03238
456 1 11.0111 14.1492 7.86555 -9.03205
457 1 12.5911 12.5879 6.27983 -8.97809
458 1 14.1568 14.1552 7.86122 -8.94634
459 1 15.7278 12.5806 6.28847 -8.95153
460 1 17.2986 14.1534 7.86162 -8.94953
461 1 18.8697 12.5799 6.28907 -8.95001
462 1 20.4411 14.1528 7.8615 -8.94975
463 1 -0.000756593 15.7252 6.28894 -8.94949
464 1 1.57164 17.2976 7.86174 -8.94956
465 1 3.14332 15.7253 6.28907 -8.94921
466 1 4.71631 17.2973 7.86247 -8.9504
467 1 6.28805 15.7249 6.2901 -8.9487
468 1 7.86042 17.298 7.86246 -8.94762
469 1 9.43437 15.7225 6.29363 -8.95153
470 1 11.0079 17.2976 7.86264 -8.94635
471 1 12.5798 15.7254 6.29051 -8.95224
472 1 14.1525 17.2979 7.86247 -8.95047
473 1 15.7255 15.7259 6.28899 -8.94859
474 1 17.2972 17.2978 7.86182 -8.94951
475 1 18.8694 15.7253 6.28903 -8.94945
476 1 20.4413 17.2976 7.86165 -8.94951
477 1 22.0137 18.8697 6.28923 -8.94958
478 1 1.57227 20.4418 7.86183 -8.94962
479 1 3.14457 18.8695 6.28948 -8.94982
480 1 4.71708 20.4417 7.86217 -8.94971
481 1 6.28917 18.8694 6.28975 -8.94932
482 1 7.86172 20.4418 7.86229 -8.94978
483 1 9.43429 18.8687 6.29055 -8.949
484 1 11.0069 20.4418 7.8623 -8.94956
485 1 12.5793 18.8695 6.28986 -8.94949
486 1 14.1517 20.4418 7.86217 -8.94984
487 1 15.7243 18.8698 6.28948 -8.94978
488 1 17.2967 20.4419 7.86182 -8.94959
489 1 18.8691 18.8697 6.28924 -8.94957
490 1 20.4415 20.4418 7.86173 -8.94959
491 1 -0.00233576 12.5802 9.43419 -8.9499
492 1 3.13846 12.5812 9.43397 -8.94718
493 1 6.28173 12.5823 9.4321 -9.03382
494 1 9.41301 12.6469 9.42554 -9.37677
495 1 12.5934 12.5854 9.4322 -9.02235
496 1 15.7305 12.5814 9.43469 -8.94909
497 1 18.8704 12.5802 9.43451 -8.95014
498 1 22.0129 15.7254 9.43428 -8.94949
499 1 3.14267 15.7256 9.43465 -8.94911
500 1 6.28822 15.7249 9.43651 -8.95189
501 1 9.4341 15.7374 9.43785 -8.97082
502 1 12.5807 15.7258 9.43639 -8.952
503 1 15.7262 15.7262 9.43495 -8.94874
512 1 1.56601 11.007 11.0076 -8.9538
687 2 9.39414 11.007 10.4189 0.531102
513 1 4.69603 11.007 11.0101 -8.97441
516 1 14.1714 11.007 11.011 -9.01943
519 1 1.56927 14.1532 11.0074 -8.94929
520 1 4.71171 14.1531 11.0081 -8.95003
521 1 7.85539 14.1513 11.0156 -9.03687
522 1 11.0138 14.1506 11.0133 -9.06077
527 1 4.71569 17.2976 11.0076 -8.94966
532 1 20.4414 17.2978 11.0071 -8.94954
534 1 4.71688 20.4418 11.0072 -8.94966
686 1 20.4416 20.4418 20.4421 -8.94941
685 1 18.8693 18.8699 18.8701 -8.94932
514 1 7.75997 11.007 11.0405 -9.2409
515 1 11.1099 11.007 11.0801 -9.31686
684 1 17.2965 20.4418 20.4422 -8.94966
517 1 17.3017 11.007 11.0083 -8.95327
518 1 20.4409 11.007 11.0074 -8.95103
683 1 15.7242 18.8697 18.8701 -8.94973
682 1 14.1514 20.4416 20.4421 -8.94962
681 1 12.5791 18.8694 18.8698 -8.94959
680 1 11.0067 20.4415 20.442 -8.94961
523 1 14.1581 14.1548 11.0093 -8.94818
524 1 17.2994 14.1536 11.008 -8.94954
525 1 20.4412 14.153 11.0073 -8.94975
526 1 1.57138 17.2978 11.0071 -8.94956
389 1 15.7239 18.8694 22.0144 -8.94973
528 1 7.86032 17.2981 11.0097 -8.94702
529 1 11.0085 17.2981 11.0096 -8.94659
530 1 14.1533 17.2984 11.0079 -8.94991
679 1 9.43441 18.8692 18.8696 -8.9496
383 1 6.28989 18.8691 22.0143 -8.94962
678 1 7.86215 20.4415 20.4419 -8.94961
377 1 18.8692 15.7248 22.0144 -8.9496
535 1 7.86171 20.4419 11.0077 -8.9497
536 1 11.007 20.442 11.0077 -8.9496
537 1 14.1521 20.442 11.0073 -8.94979
677 1 6.28983 18.8692 18.8695 -8.94959
539 1 20.4415 20.4419 11.0069 -8.94959
540 1 1.56867 11.007 14.1541 -8.94945
541 1 4.70956 11.007 14.1573 -8.94671
542 1 7.85638 11.007 14.1604 -9.00841
543 1 11.0136 11.007 14.17 -9.018
544 1 14.1593 11.007 14.1588 -8.94836
545 1 17.3001 11.007 14.1549 -8.94947
546 1 20.4413 11.007 14.1535 -8.9499
547 1 22.0114 12.5803 12.5806 -8.95062
548 1 1.56932 14.1537 14.1541 -8.94959
549 1 3.13639 12.5817 12.583 -8.95111
550 1 4.71065 14.1566 14.1578 -8.94241
551 1 6.26961 12.5906 12.5961 -8.97124
552 1 7.86167 14.1512 14.1542 -8.9514
553 1 9.43289 12.5732 12.5787 -9.04347
554 1 11.0073 14.1512 14.1545 -8.95143
555 1 12.5994 12.5935 12.5976 -9.00268
556 1 14.1592 14.1578 14.1594 -8.94195
557 1 15.732 12.5819 12.5839 -8.95138
558 1 17.2998 14.154 14.1547 -8.94984
559 1 18.8709 12.5803 12.5809 -8.95061
560 1 20.4415 14.1531 14.1533 -8.94998
561 1 -0.000982029 15.7256 12.5801 -8.94954
562 1 1.57153 17.2979 14.1527 -8.94973
563 1 3.14232 15.7259 12.5805 -8.94991
564 1 4.71582 17.2985 14.1534 -8.94991
565 1 6.28636 15.727 12.5824 -8.95171
566 1 7.86212 17.2964 14.1526 -8.95002
567 1 9.43496 15.7224 12.5802 -8.94908
568 1 11.007 17.2968 14.153 -8.94968
569 1 12.5826 15.7278 12.5827 -8.95305
570 1 14.1534 17.2991 14.1539 -8.95015
571 1 15.727 15.7267 12.5813 -8.94929
572 1 17.2978 17.2983 14.1531 -8.94956
573 1 18.87 15.7258 12.5803 -8.94951
574 1 20.4416 17.2979 14.1527 -8.94954
575 1 22.0137 18.8699 12.5797 -8.94958
576 1 1.57222 20.4419 14.1523 -8.94966
577 1 3.14411 18.8699 12.5799 -8.94968
578 1 4.7169 20.442 14.1525 -8.94978
579 1 6.28881 18.87 12.5805 -8.94983
580 1 7.86206 20.4415 14.1523 -8.94943
581 1 9.43448 18.8689 12.5802 -8.94876
582 1 11.0068 20.4416 14.1524 -8.94949
583 1 12.5801 18.8704 12.5806 -8.94994
584 1 14.1522 20.4422 14.1527 -8.94985
585 1 15.7251 18.8703 12.5801 -8.94969
586 1 17.2971 20.4421 14.1524 -8.94964
587 1 18.8695 18.87 12.5798 -8.94957
588 1 20.4416 20.442 14.1523 -8.94959
589 1 1.57127 11.007 17.2985 -8.94953
590 1 4.71546 11.007 17.2993 -8.9494
591 1 7.86173 11.007 17.2991 -8.95111
592 1 11.0078 11.007 17.3013 -8.95402
593 1 14.1542 11.007 17.3007 -8.9492
594 1 17.2983 11.007 17.2992 -8.94946
595 1 20.4417 11.007 17.2984 -8.94954
596 1 22.0128 12.58 15.7261 -8.94954
597 1 1.57147 14.1527 17.2984 -8.94956
598 1 3.14185 12.5803 15.7271 -8.94922
599 1 4.71584 14.1529 17.2991 -8.95004
600 1 6.28637 12.5805 15.7293 -8.95252
601 1 7.86186 14.1521 17.2979 -8.94925
602 1 9.43419 12.5798 15.7266 -8.94538
603 1 11.0072 14.1522 17.2984 -8.94923
604 1 12.584 12.5818 15.7317 -8.95082
605 1 14.1539 14.1537 17.3005 -8.94972
606 1 15.7277 12.5806 15.7283 -8.9494
607 1 17.2981 14.153 17.299 -8.94955
608 1 18.8703 12.5801 15.7264 -8.94958
609 1 20.4417 14.1526 17.2983 -8.94953
610 1 22.0132 15.7256 15.7258 -8.94949
611 1 1.57196 17.2978 17.298 -8.94907
612 1 3.14272 15.7264 15.7267 -8.94767
613 1 4.71713 17.2972 17.2975 -8.94991
614 1 6.28917 15.7247 15.7255 -8.95024
615 1 7.86208 17.2968 17.2973 -8.94955
616 1 9.43457 15.7243 15.7253 -8.94914
617 1 11.0069 17.297 17.2976 -8.94952
618 1 12.58 15.7253 15.7263 -8.9505
619 1 14.1521 17.2977 17.2981 -8.94996
620 1 15.727 15.7271 15.7277 -8.94739
621 1 17.2976 17.2982 17.2984 -8.94893
622 1 18.8701 15.7258 15.7261 -8.94953
623 1 20.4417 17.2978 17.298 -8.94942
624 1 -8.66261e-05 18.8699 15.7251 -8.94962
625 1 1.57243 20.4419 17.2974 -8.94955
626 1 3.14438 18.87 15.7252 -8.94959
627 1 4.71743 20.4417 17.2971 -8.94969
628 1 6.2897 18.8693 15.7248 -8.94974
629 1 7.86212 20.4415 17.2971 -8.94958
630 1 9.43444 18.8691 15.7248 -8.94958
631 1 11.0067 20.4416 17.2972 -8.94959
632 1 12.5794 18.8696 15.7251 -8.94971
633 1 14.1517 20.4418 17.2974 -8.9497
634 1 15.7249 18.8704 15.7256 -8.94966
635 1 17.2969 20.442 17.2976 -8.94958
636 1 18.8695 18.8701 15.7252 -8.94957
637 1 20.4417 20.4419 17.2974 -8.94957
638 1 1.57217 11.007 20.4424 -8.9496
639 1 4.71698 11.007 20.4425 -8.94984
640 1 7.86203 11.007 20.4425 -8.94976
641 1 11.0067 11.007 20.4428 -8.95077
642 1 14.1523 11.007 20.4432 -8.94985
643 1 17.2971 11.007 20.4429 -8.94956
644 1 20.4416 11.007 20.4425 -8.94957
645 1 22.0137 12.5797 18.8704 -8.94956
646 1 1.57225 14.1522 20.4423 -8.94961
647 1 3.14414 12.5797 18.8706 -8.94959
648 1 4.7171 14.1521 20.4424 -8.94998
649 1 6.28925 12.5796 18.8707 -8.95047
650 1 7.86194 14.152 20.4423 -8.9494
651 1 9.43438 12.5797 18.8705 -8.94908
652 1 11.0067 14.1521 20.4426 -8.94936
653 1 12.5801 12.5799 18.8718 -8.95069
654 1 14.1521 14.1525 20.443 -8.95008
655 1 15.7254 12.5799 18.8714 -8.94956
656 1 17.2971 14.1524 20.4428 -8.94957
657 1 18.8696 12.5797 18.8707 -8.94953
658 1 20.4416 14.1522 20.4424 -8.94957
659 1 22.0138 15.725 18.8702 -8.94956
660 1 1.57246 17.2972 20.4422 -8.94956
661 1 3.14443 15.725 18.8704 -8.94964
662 1 4.71744 17.2969 20.442 -8.94961
663 1 6.28964 15.7245 18.8699 -8.9495
664 1 7.8621 17.2967 20.4421 -8.94955
665 1 9.43441 15.7245 18.8699 -8.9495
666 1 11.0067 17.2968 20.4423 -8.94956
667 1 12.5794 15.7248 18.8704 -8.94953
668 1 14.1516 17.2971 20.4424 -8.94964
669 1 15.7251 15.7255 18.8711 -8.94952
670 1 17.2969 17.2975 20.4425 -8.94947
671 1 18.8696 15.7251 18.8705 -8.94954
672 1 20.4416 17.2973 20.4423 -8.94955
673 1 0.000101735 18.8697 18.8699 -8.94939
674 1 1.57271 20.4417 20.442 -8.94963
675 1 3.14501 18.8695 18.8697 -8.94972
676 1 4.71757 20.4416 20.4419 -8.94962
351 1 22.0138 12.5796 22.0144 -8.9496
355 1 6.28957 12.5794 22.0146 -8.94999
361 1 15.7245 12.5797 22.0147 -8.94963
367 1 3.14482 15.7246 22.0143 -8.94974
371 1 9.43424 15.7243 22.0148 -8.94942
373 1 12.5789 15.7244 22.0148 -8.94949
357 1 9.43404 12.5797 22.0147 -8.9492
379 1 22.014 18.8695 22.0142 -8.94951
533 1 1.57216 20.4419 11.007 -8.94962
