ITEM: TIMESTEP
89
ITEM: NUMBER OF ATOMS
688
ITEM: BOX BOUNDS pp pp pp
0.0000000000000000e+00 2.2013900999999997e+01
0.0000000000000000e+00 2.2013900999999997e+01
0.0000000000000000e+00 2.2013900999999997e+01
ITEM: ATOMS id type x y z c_pot
189 1 20.4415 4.71646 11.007 -8.94954
2 1 1.57178 1.57215 1.57178 -8.94919
448 1 20.443 11.0067 7.86185 -8.94955
4 1 4.71668 1.57203 1.5716 -8.9496
447 1 17.3015 11.0056 7.86104 -8.94977
6 1 7.86188 1.572 1.57163 -8.94944
7 1 9.43449 5.95044e-05 -0.000387322 -8.94952
8 1 11.0071 1.57195 1.57167 -8.94949
445 1 11.0781 11.0016 7.61781 -8.1575
10 1 14.1522 1.57188 1.57177 -8.94947
443 1 4.71958 11.0074 7.8627 -8.94338
12 1 17.2973 1.57183 1.57183 -8.94948
442 1 1.57241 11.0069 7.86183 -8.94799
14 1 20.4415 1.57216 1.57212 -8.94956
188 1 17.2977 4.71598 11.0069 -8.94893
16 1 1.57194 4.71684 1.57171 -8.94976
398 1 17.3015 11.007 4.71439 -8.94937
18 1 4.71584 4.71598 1.57053 -8.94932
394 1 4.71536 11.0066 4.71521 -8.94618
20 1 7.86149 4.71598 1.57084 -8.94913
50 1 -0.000395211 0.000101492 3.14446 -8.94952
22 1 11.007 4.71581 1.57086 -8.94938
183 1 1.57062 4.71603 11.0074 -8.94931
24 1 14.1528 4.71557 1.57078 -8.94955
349 1 17.2986 11.007 1.57079 -8.94946
26 1 17.2984 4.71553 1.57097 -8.94817
345 1 4.71651 11.0068 1.57144 -8.94951
28 1 20.4421 4.71663 1.57184 -8.9495
165 1 9.43047 6.29168 9.43427 -8.99411
30 1 1.57217 7.86195 1.57184 -8.94941
164 1 6.27974 6.2801 9.43433 -8.94224
32 1 4.71657 7.86207 1.57144 -8.94967
163 1 3.14046 6.28717 9.43446 -8.94913
34 1 7.8615 7.86144 1.56996 -8.95233
35 1 9.43412 6.28872 -0.00104273 -8.9496
36 1 11.0069 7.86059 1.56927 -8.95051
37 1 12.5796 6.28857 -0.00117381 -8.94968
38 1 14.154 7.8601 1.56834 -8.95162
162 1 -0.00098397 6.28883 9.43448 -8.94993
40 1 17.2986 7.86104 1.57075 -8.94932
161 1 18.8694 3.14416 9.43448 -8.94955
42 1 20.4422 7.86172 1.57175 -8.94947
350 1 20.4422 11.0069 1.57171 -8.94949
44 1 3.14442 9.43444 -0.000361886 -8.9495
160 1 15.725 3.14386 9.43443 -8.9496
159 1 12.5796 3.14478 9.43442 -8.94795
158 1 9.43421 3.14396 9.43442 -8.94693
48 1 15.7257 9.43402 -0.00125358 -8.9495
157 1 6.28696 3.14116 9.43446 -8.94955
175 1 18.8703 9.43382 9.4344 -8.94726
51 1 1.57158 1.57208 4.71667 -8.94946
174 1 15.7229 9.43482 9.43455 -8.93965
53 1 4.71597 1.5715 4.71598 -8.94998
54 1 6.2892 0.000264298 3.14381 -8.94962
55 1 7.8618 1.5715 4.71617 -8.94981
173 1 12.5574 9.44809 9.43406 -8.96283
57 1 11.0073 1.5715 4.71626 -8.94971
172 1 9.36925 9.24038 9.4327 -8.24262
59 1 14.1525 1.57139 4.71667 -8.95066
60 1 15.7249 6.22021e-05 3.14426 -8.95004
61 1 17.2971 1.57206 4.71709 -8.94973
171 1 6.28327 9.42812 9.43474 -8.96864
63 1 20.4414 1.57219 4.71703 -8.94951
64 1 22.0134 3.14434 3.14428 -8.94957
65 1 1.57082 4.71623 4.71615 -8.9497
66 1 3.14327 3.14362 3.14328 -8.94844
67 1 4.71302 4.7133 4.71324 -8.9455
68 1 6.28871 3.14333 3.14324 -8.94968
69 1 7.86049 4.71328 4.71434 -8.9495
70 1 9.43437 3.14332 3.1434 -8.94933
71 1 11.0075 4.71351 4.71437 -8.94797
72 1 12.58 3.1432 3.14351 -8.94917
73 1 14.155 4.71222 4.71421 -8.95005
74 1 15.7257 3.14286 3.14351 -8.94947
75 1 17.2981 4.71579 4.71666 -8.95045
76 1 18.8696 3.14413 3.14441 -8.94984
77 1 20.4416 4.71661 4.71688 -8.94986
78 1 22.014 6.28924 3.14418 -8.94986
79 1 1.57167 7.86193 4.71655 -8.95005
80 1 3.14342 6.28902 3.14345 -8.95018
81 1 4.71428 7.86112 4.71507 -8.95104
82 1 6.28638 6.28648 3.14004 -8.94924
83 1 7.85509 7.85413 4.70651 -8.9501
84 1 9.43381 6.28669 3.14123 -8.94764
85 1 11.0082 7.8557 4.70757 -8.94934
86 1 12.5811 6.28635 3.14071 -8.94884
87 1 14.1656 7.84923 4.70379 -8.92904
88 1 15.7291 6.28498 3.14026 -8.94434
89 1 17.3018 7.85934 4.71443 -8.95038
90 1 18.8711 6.2883 3.14355 -8.94954
91 1 20.4428 7.86142 4.71646 -8.95019
92 1 0.000254628 9.43432 3.14407 -8.94953
93 1 3.14396 9.43437 3.14379 -8.94891
94 1 6.28892 9.43468 3.14346 -8.94909
95 1 9.43516 9.43381 3.14221 -8.95305
96 1 12.5828 9.43271 3.13618 -8.95948
97 1 15.7286 9.43295 3.14054 -8.94814
98 1 18.8711 9.43401 3.14342 -8.9494
170 1 3.14293 9.43469 9.43449 -8.95087
100 1 1.57148 1.57203 7.86187 -8.94947
101 1 3.14365 0.000277041 6.28905 -8.94936
102 1 4.7157 1.5714 7.86156 -8.9494
169 1 22.0138 9.43438 9.43446 -8.94931
104 1 7.8616 1.57122 7.86178 -8.95136
105 1 9.43471 0.000533696 6.28897 -8.95034
106 1 11.0071 1.57214 7.86207 -8.94938
107 1 12.5797 0.000285457 6.28941 -8.95038
108 1 14.1523 1.57221 7.8621 -8.94942
168 1 18.87 6.28851 9.43441 -8.94949
110 1 17.2971 1.57206 7.86203 -8.94955
111 1 18.8693 8.5835e-05 6.28954 -8.94955
112 1 20.4414 1.57216 7.862 -8.94954
113 1 -0.000606594 3.14425 6.28932 -8.94944
114 1 1.57062 4.71604 7.86164 -8.9493
115 1 3.14306 3.14346 6.28872 -8.9492
116 1 4.71323 4.71352 7.86067 -8.94774
117 1 6.28762 3.14135 6.2879 -8.95133
118 1 7.85892 4.70955 7.86073 -8.95813
119 1 9.43459 3.14208 6.28843 -8.95077
120 1 11.0066 4.7156 7.86175 -8.95102
121 1 12.5799 3.14247 6.28911 -8.95244
122 1 14.1524 4.71624 7.86269 -8.94924
123 1 15.7249 3.14391 6.28972 -8.94971
124 1 17.2976 4.71604 7.86198 -8.94888
125 1 18.8694 3.14422 6.28952 -8.9494
126 1 20.4414 4.71648 7.86192 -8.94953
127 1 22.0131 6.28903 6.28923 -8.95013
128 1 1.57025 7.86158 7.86179 -8.9514
129 1 3.14072 6.28757 6.28772 -8.95072
130 1 4.70829 7.85838 7.86001 -8.95684
131 1 6.27797 6.27804 6.27913 -8.93403
132 1 7.8275 7.82871 7.83446 -8.87581
133 1 9.43353 6.28044 6.28455 -8.95227
134 1 11.0198 7.85563 7.83996 -8.91388
135 1 12.5854 6.27882 6.28289 -8.95445
136 1 14.1551 7.86057 7.86436 -8.95422
137 1 15.7269 6.28741 6.28922 -8.95192
138 1 17.2985 7.86102 7.86259 -8.9499
139 1 18.8701 6.2888 6.28954 -8.9499
140 1 20.4419 7.86152 7.86202 -8.94975
141 1 22.0142 9.43437 6.28921 -8.95002
142 1 3.14334 9.43497 6.28911 -8.95057
143 1 6.28483 9.43426 6.28732 -8.95193
144 1 9.41835 9.40785 6.2769 -8.89712
145 1 12.6209 9.39896 6.25121 -8.84972
146 1 15.7361 9.4304 6.28418 -8.95664
147 1 18.8725 9.43362 6.28865 -8.95157
148 1 -0.000478061 0.000110013 9.43452 -8.94953
167 1 15.7263 6.28743 9.43425 -8.94585
150 1 6.28848 0.00058341 9.43451 -8.95034
151 1 9.43454 0.00082424 9.43438 -8.94873
152 1 12.5799 0.000617356 9.43437 -8.94921
153 1 15.7248 0.000154381 9.43449 -8.94966
166 1 12.5773 6.29245 9.43438 -8.94391
155 1 22.0133 3.1442 9.43451 -8.9495
156 1 3.14295 3.14339 9.4345 -8.94947
181 1 17.2971 1.57203 11.007 -8.94954
344 1 1.57216 11.0069 1.57178 -8.94953
177 1 4.71571 1.57137 11.0075 -8.94941
184 1 4.71322 4.71349 11.0083 -8.94782
45 1 6.28923 9.43455 -0.000439316 -8.94944
41 1 18.87 6.28905 -0.000454255 -8.94948
19 1 6.28927 3.14427 -0.00053873 -8.94948
25 1 15.7248 3.14403 -0.000479636 -8.94958
176 1 1.57149 1.57202 11.0072 -8.94947
254 1 12.5798 -4.94759e-05 15.725 -8.94949
178 1 7.86161 1.57112 11.0071 -8.95127
179 1 11.0071 1.57215 11.0069 -8.94978
180 1 14.1523 1.57208 11.0068 -8.94937
644 1 20.442 11.0069 20.4416 -8.94953
182 1 20.4414 1.57215 11.007 -8.94954
643 1 17.2978 11.007 20.4417 -8.94946
252 1 9.43457 6.72576e-06 15.7251 -8.9495
185 1 7.85884 4.70948 11.008 -8.95786
186 1 11.0066 4.71511 11.0071 -8.95138
187 1 14.1525 4.71598 11.0061 -8.94908
642 1 14.1528 11.007 20.4418 -8.95048
641 1 11.0068 11.0069 20.4417 -8.94848
190 1 1.57022 7.86154 11.0072 -8.95145
191 1 4.70805 7.85824 11.0089 -8.95653
192 1 7.82729 7.829 11.0333 -8.87372
193 1 11.0196 7.85382 11.0291 -8.92881
194 1 14.1561 7.86009 11.0038 -8.95162
195 1 17.299 7.86082 11.0062 -8.9497
196 1 20.442 7.86148 11.0069 -8.94982
343 1 18.8702 9.43425 18.8698 -8.94946
198 1 1.57159 1.57205 14.1524 -8.94945
342 1 15.7259 9.43391 18.8709 -8.94946
200 1 4.71598 1.57142 14.153 -8.94998
201 1 6.28884 0.000461746 12.5801 -8.95066
202 1 7.8617 1.57136 14.1529 -8.94987
341 1 12.5798 9.43419 18.8713 -8.95168
204 1 11.0073 1.57129 14.1528 -8.94964
340 1 9.43438 9.43446 18.87 -8.94974
206 1 14.1526 1.57121 14.1524 -8.95076
207 1 15.7247 9.79478e-05 12.5794 -8.9496
208 1 17.2971 1.57197 14.1519 -8.94976
339 1 6.28911 9.4345 18.8698 -8.94938
210 1 20.4414 1.57217 14.152 -8.94951
211 1 -0.000591845 3.14423 12.5797 -8.94944
212 1 1.57082 4.71619 14.1529 -8.94966
213 1 3.14306 3.14343 12.5803 -8.94921
214 1 4.71299 4.71328 14.1557 -8.94559
215 1 6.2876 3.14128 12.581 -8.95121
216 1 7.86017 4.71275 14.1549 -8.9498
217 1 9.4345 3.14178 12.5806 -8.95103
218 1 11.0075 4.71298 14.1548 -8.94789
219 1 12.58 3.14209 12.5799 -8.95277
220 1 14.1554 4.71142 14.1551 -8.95053
221 1 15.725 3.14374 12.5792 -8.94965
222 1 17.2983 4.7156 14.1524 -8.95048
223 1 18.8695 3.14418 12.5795 -8.9494
224 1 20.4417 4.71655 14.1522 -8.94984
225 1 22.0132 6.28899 12.5798 -8.95013
226 1 1.57167 7.86192 14.1525 -8.95015
227 1 3.14065 6.28753 12.5813 -8.95058
228 1 4.71396 7.86112 14.1539 -8.9518
229 1 6.27792 6.27814 12.5896 -8.93401
230 1 7.85294 7.85207 14.1642 -8.94674
231 1 9.43302 6.27916 12.5846 -8.95354
232 1 11.0083 7.85435 14.1624 -8.94913
233 1 12.5861 6.2772 12.5865 -8.95617
234 1 14.1688 7.84613 14.1681 -8.92365
235 1 15.7274 6.28706 12.5796 -8.95171
236 1 17.3027 7.85894 14.1549 -8.95095
237 1 18.8703 6.28869 12.5794 -8.94983
238 1 20.4431 7.86135 14.1526 -8.9503
239 1 22.0143 9.43436 12.5798 -8.95008
240 1 3.14326 9.43505 12.5798 -8.95077
241 1 6.28423 9.43497 12.5809 -8.95582
242 1 9.40998 9.40184 12.5969 -8.92733
243 1 12.6318 9.3912 12.6251 -8.86081
244 1 15.7383 9.4303 12.585 -8.9595
245 1 18.873 9.43361 12.5803 -8.95198
246 1 -0.00037675 8.32546e-05 15.7246 -8.94953
247 1 1.57179 1.57213 17.2973 -8.94922
248 1 3.14388 0.000202536 15.7252 -8.94952
249 1 4.71662 1.57197 17.2975 -8.94958
338 1 3.14437 9.43443 18.8695 -8.9495
251 1 7.86186 1.5719 17.2975 -8.94943
337 1 22.0141 9.4344 18.8695 -8.94952
253 1 11.007 1.57184 17.2974 -8.94948
336 1 20.442 7.86185 20.4416 -8.94952
255 1 14.1522 1.57176 17.2974 -8.94946
335 1 18.8701 6.28897 18.8697 -8.94942
257 1 17.2974 1.57174 17.2973 -8.94946
258 1 18.8693 4.98155e-05 15.7244 -8.94972
259 1 20.4416 1.57214 17.297 -8.94958
260 1 22.0135 3.14431 15.7248 -8.94957
261 1 1.57193 4.71679 17.2974 -8.9498
262 1 3.14326 3.14358 15.7258 -8.9485
263 1 4.71565 4.7158 17.2987 -8.94907
264 1 6.28856 3.14314 15.7259 -8.94971
265 1 7.86141 4.71583 17.2984 -8.94909
266 1 9.43431 3.14312 15.7257 -8.94928
267 1 11.007 4.71563 17.2984 -8.94931
268 1 12.58 3.14295 15.7257 -8.94912
269 1 14.1529 4.71534 17.2985 -8.94952
270 1 15.7259 3.14254 15.7257 -8.94955
271 1 17.2987 4.7152 17.2984 -8.9478
272 1 18.8697 3.14404 15.7247 -8.94988
273 1 20.4422 4.71655 17.2973 -8.94952
274 1 22.0141 6.28918 15.7249 -8.94993
275 1 1.57215 7.8619 17.2973 -8.9494
276 1 3.14331 6.28895 15.7256 -8.95035
277 1 4.71639 7.86195 17.2978 -8.9495
278 1 6.28574 6.28585 15.7295 -8.94837
279 1 7.86126 7.86121 17.2996 -8.95261
280 1 9.43362 6.28625 15.7281 -8.94739
281 1 11.0069 7.86033 17.3002 -8.95044
282 1 12.5812 6.28576 15.7288 -8.94853
283 1 14.1544 7.85969 17.3016 -8.95201
284 1 15.7301 6.28392 15.7298 -8.94298
285 1 17.299 7.86075 17.2988 -8.949
286 1 18.8714 6.28809 15.7257 -8.94965
287 1 20.4424 7.86162 17.2975 -8.94943
288 1 0.000362031 9.43427 15.7251 -8.94959
289 1 3.14376 9.43431 15.7254 -8.94892
290 1 6.2883 9.43439 15.726 -8.94828
291 1 9.43469 9.43331 15.7278 -8.95398
292 1 12.5836 9.43205 15.7346 -8.96065
293 1 15.7299 9.43221 15.7297 -8.9468
294 1 18.8717 9.43381 15.7259 -8.94931
49 1 18.87 9.4343 22.0134 -8.94948
296 1 1.5721 1.57219 20.4415 -8.94933
334 1 17.2978 7.86148 20.4417 -8.94941
298 1 4.71695 1.57218 20.4415 -8.94955
299 1 6.28945 2.8163e-05 18.8694 -8.94953
300 1 7.86194 1.57213 20.4415 -8.94951
333 1 15.7256 6.2882 18.8707 -8.95008
302 1 11.007 1.57209 20.4415 -8.94953
332 1 14.1525 7.86135 20.4417 -8.95079
304 1 14.152 1.57207 20.4415 -8.94951
305 1 15.7245 -2.81398e-05 18.8694 -8.94956
306 1 17.297 1.57206 20.4415 -8.94958
331 1 12.5797 6.28847 18.8705 -8.94965
308 1 20.4417 1.5722 20.4415 -8.94919
309 1 22.0139 3.14452 18.8694 -8.94952
310 1 1.57225 4.71707 20.4415 -8.94968
311 1 3.14417 3.14426 18.8697 -8.94937
312 1 4.71664 4.71674 20.4416 -8.95001
313 1 6.28925 3.14422 18.8697 -8.94948
314 1 7.86169 4.71655 20.4415 -8.94949
315 1 9.43436 3.1441 18.8697 -8.94948
316 1 11.0069 4.71639 20.4416 -8.94952
317 1 12.5796 3.14403 18.8697 -8.94944
318 1 14.1522 4.71632 20.4416 -8.94955
319 1 15.7248 3.14396 18.8697 -8.94959
320 1 17.2976 4.71628 20.4416 -8.94951
321 1 18.8698 3.14411 18.8696 -8.94903
322 1 20.4419 4.71688 20.4415 -8.9495
323 1 22.0141 6.28942 18.8694 -8.94949
324 1 1.57228 7.86198 20.4415 -8.94951
325 1 3.1444 6.28951 18.8696 -8.94969
326 1 4.71681 7.86206 20.4416 -8.94954
327 1 6.2889 6.28905 18.8703 -8.95066
328 1 7.86177 7.86194 20.4416 -8.95047
329 1 9.43409 6.28864 18.8703 -8.94956
330 1 11.0067 7.86148 20.4416 -8.95031
512 1 1.57246 11.0069 11.0071 -8.94784
513 1 4.71989 11.0077 11.0059 -8.94188
515 1 11.0865 10.9676 11.2847 -8.34215
517 1 17.3021 11.0058 11.0075 -8.94974
518 1 20.4432 11.0067 11.007 -8.94954
540 1 1.57175 11.0068 14.1528 -8.94966
541 1 4.7148 11.0066 14.154 -8.94649
542 1 7.86114 11.006 14.1535 -8.94335
544 1 14.1664 11.0058 14.1658 -8.9395
545 1 17.303 11.0067 14.1554 -8.94927
546 1 20.4433 11.0068 14.1528 -8.95008
47 1 12.5797 9.43427 22.0123 -8.95152
591 1 7.86157 11.0068 17.2978 -8.9489
592 1 11.0073 11.0066 17.2983 -8.94634
593 1 14.1551 11.0068 17.3017 -8.95001
46 1 9.43443 9.43453 22.0133 -8.94971
638 1 1.57225 11.0069 20.4415 -8.94955
639 1 4.71673 11.0069 20.4416 -8.94962
640 1 7.86172 11.0069 20.4416 -8.94941
3 1 3.14443 8.61557e-05 22.0135 -8.94957
39 1 15.7255 6.28836 22.0127 -8.95004
9 1 12.5795 4.01584e-05 22.0135 -8.94952
33 1 6.28899 6.28914 22.0129 -8.95063
13 1 18.8694 1.62313e-05 22.0136 -8.94938
15 1 22.0139 3.14455 22.0136 -8.94951
17 1 3.14421 3.1443 22.0133 -8.94943
31 1 3.14444 6.28954 22.0135 -8.94972
23 1 12.5796 3.14409 22.0134 -8.94946
29 1 22.0141 6.28946 22.0136 -8.94951
27 1 18.8697 3.14418 22.0136 -8.94913
21 1 9.43438 3.14415 22.0134 -8.94949
43 1 22.0141 9.43442 22.0136 -8.94953
539 1 20.4414 20.4419 11.007 -8.94954
688 3 10.2621 11.0526 9.45455 2.21707
346 1 7.86183 11.0068 1.57175 -8.94866
347 1 11.0074 11.0069 1.57148 -8.94637
348 1 14.1545 11.007 1.56846 -8.94972
687 2 10.9251 12.458 10.1987 0.356177
529 1 11.0059 17.3058 11.0066 -8.96046
154 1 18.8693 22.014 9.43451 -8.94957
352 1 1.57209 14.1519 1.57177 -8.94941
353 1 3.14439 12.5793 -0.000394848 -8.94952
354 1 4.71646 14.1517 1.57119 -8.94952
149 1 3.14359 22.0142 9.43453 -8.94944
356 1 7.86152 14.1523 1.56929 -8.95314
393 1 1.57178 11.0068 4.71626 -8.94948
358 1 11.007 14.153 1.56928 -8.95068
399 1 20.4429 11.0069 4.71632 -8.94991
360 1 14.1538 14.1535 1.56864 -8.9516
361 1 15.7257 12.5799 -0.00120447 -8.9494
362 1 17.2985 14.1528 1.57086 -8.9492
363 1 18.87 12.5796 -0.000470918 -8.94948
364 1 20.4422 14.1521 1.57175 -8.94943
109 1 15.7248 22.0141 6.28954 -8.94952
366 1 1.57181 17.2971 1.5716 -8.94984
103 1 6.28878 22.0146 6.28878 -8.95067
368 1 4.71555 17.2982 1.56997 -8.94948
369 1 6.28896 15.7248 -0.0013609 -8.95091
370 1 7.86149 17.2981 1.5703 -8.94919
99 1 22.0134 22.014 6.28943 -8.94952
372 1 11.0072 17.2982 1.57049 -8.94934
62 1 18.8693 22.014 3.1446 -8.94968
374 1 14.1528 17.2982 1.57069 -8.94964
375 1 15.7254 15.7254 -0.00118491 -8.9501
376 1 17.2983 17.2983 1.57097 -8.94836
58 1 12.5798 22.014 3.14402 -8.94951
378 1 20.442 17.2972 1.57182 -8.94958
1 1 22.0137 22.014 -0.000225669 -8.94919
380 1 1.57167 20.442 1.57166 -8.94901
381 1 3.14409 18.8697 -0.000715657 -8.94945
382 1 4.7166 20.4422 1.57144 -8.94958
56 1 9.43457 22.0141 3.14387 -8.94953
384 1 7.86189 20.4422 1.57149 -8.94943
385 1 9.43445 18.8698 -0.000698314 -8.94949
386 1 11.0071 20.4421 1.57156 -8.94948
387 1 12.5796 18.8698 -0.000635403 -8.94944
388 1 14.1523 20.4421 1.5717 -8.94943
52 1 3.14385 22.0142 3.14384 -8.94948
390 1 17.2973 20.4421 1.57179 -8.94948
391 1 18.8697 18.8697 -0.000365624 -8.94918
392 1 20.4415 20.4418 1.57207 -8.94953
511 1 18.8695 18.8699 9.4345 -8.94956
510 1 15.7252 18.8703 9.43447 -8.94956
395 1 7.8632 11.0066 4.71709 -8.94706
396 1 11.0121 11.0067 4.72026 -9.00567
397 1 14.1624 11.0071 4.70687 -8.94467
509 1 12.5801 18.871 9.43372 -8.94763
508 1 9.43343 18.8724 9.43376 -8.9456
400 1 0.000193884 12.5795 3.14404 -8.94955
401 1 1.57136 14.1518 4.71637 -8.94979
402 1 3.14384 12.5792 3.14366 -8.94902
403 1 4.71385 14.1523 4.71456 -8.95101
404 1 6.28862 12.5787 3.14305 -8.94859
405 1 7.85457 14.16 4.70323 -8.95541
406 1 9.43508 12.5795 3.14233 -8.95186
407 1 11.0077 14.1573 4.70731 -8.95192
408 1 12.5827 12.5808 3.1372 -8.9579
409 1 14.1645 14.1635 4.7047 -8.93222
410 1 15.7285 12.5809 3.14089 -8.94736
411 1 17.3012 14.1539 4.71482 -8.95116
412 1 18.8711 12.5798 3.14346 -8.94927
413 1 20.4426 14.1522 4.71649 -8.95017
414 1 22.0138 15.7246 3.14411 -8.94983
415 1 1.57027 17.298 4.71577 -8.94985
416 1 3.14317 15.7248 3.14318 -8.95029
417 1 4.7112 17.3024 4.71135 -8.94277
418 1 6.28582 15.7279 3.13858 -8.95017
419 1 7.85996 17.302 4.71274 -8.94862
420 1 9.43399 15.7275 3.14013 -8.9481
421 1 11.0079 17.3011 4.71341 -8.94665
422 1 12.581 15.7273 3.14061 -8.94928
423 1 14.1552 17.3018 4.71382 -8.94976
424 1 15.7288 15.7286 3.14041 -8.94512
425 1 17.2983 17.2983 4.71635 -8.95002
426 1 18.8708 15.7254 3.1436 -8.94979
427 1 20.4416 17.2974 4.71666 -8.94981
428 1 22.0133 18.8697 3.1441 -8.94952
429 1 1.57143 20.4422 4.71657 -8.94945
430 1 3.14274 18.8709 3.14272 -8.94773
431 1 4.71564 20.4434 4.71563 -8.94994
432 1 6.28844 18.8712 3.14265 -8.94951
433 1 7.86171 20.4433 4.71586 -8.94976
434 1 9.43445 18.871 3.14297 -8.94924
435 1 11.0074 20.443 4.71603 -8.94959
436 1 12.5801 18.8709 3.14324 -8.94891
437 1 14.1525 20.4428 4.71656 -8.95068
438 1 15.7257 18.8711 3.14337 -8.94943
439 1 17.2972 20.4421 4.71699 -8.94965
440 1 18.8696 18.8699 3.1443 -8.94976
441 1 20.4414 20.4419 4.71697 -8.94952
507 1 6.28616 18.8744 9.4345 -8.94951
506 1 3.14248 18.8711 9.43453 -8.94935
444 1 7.8782 10.9999 7.86223 -8.95601
505 1 22.0131 18.8699 9.43452 -8.94949
446 1 14.1628 11.0016 7.85025 -9.00259
504 1 18.8704 15.7254 9.43441 -8.94926
503 1 15.727 15.7263 9.43426 -8.94642
449 1 22.014 12.5793 6.28915 -8.94991
450 1 1.56982 14.1523 7.86172 -8.95219
451 1 3.14289 12.5787 6.2887 -8.94994
452 1 4.70563 14.1565 7.85921 -8.96093
453 1 6.28446 12.5776 6.28684 -8.95193
454 1 7.81322 14.2018 7.8157 -8.85452
455 1 9.41692 12.6044 6.27885 -8.95506
456 1 11.0169 14.1624 7.83407 -8.95793
457 1 12.6177 12.613 6.25662 -8.90214
458 1 14.1575 14.1568 7.86186 -8.97481
459 1 15.7344 12.5819 6.28614 -8.95862
460 1 17.3004 14.1535 7.8615 -8.94828
461 1 18.8721 12.5797 6.28893 -8.95124
462 1 20.4423 14.1524 7.8618 -8.95005
463 1 22.0129 15.7249 6.28902 -8.95041
464 1 1.57012 17.2982 7.86153 -8.94926
465 1 3.13931 15.7269 6.287 -8.95174
466 1 4.71184 17.3018 7.86019 -8.94718
467 1 6.27235 15.7414 6.2733 -8.92297
468 1 7.85702 17.309 7.85887 -8.96074
469 1 9.43309 15.7369 6.28048 -8.94777
470 1 11.0058 17.2999 7.86119 -8.9517
471 1 12.5856 15.7359 6.28168 -8.95377
472 1 14.1531 17.2992 7.86184 -8.94911
473 1 15.7277 15.7271 6.28829 -8.95033
474 1 17.2979 17.2981 7.86186 -8.94934
475 1 18.8705 15.7254 6.28909 -8.94958
476 1 20.4414 17.2976 7.86185 -8.94955
477 1 -0.000769392 18.8699 6.28923 -8.94943
478 1 1.57135 20.4422 7.86184 -8.94945
479 1 3.14253 18.8711 6.28843 -8.94911
480 1 4.71542 20.4434 7.86147 -8.94936
481 1 6.28665 18.8746 6.28688 -8.95166
482 1 7.86127 20.4446 7.86148 -8.95179
483 1 9.43454 18.8734 6.28761 -8.95094
484 1 11.0071 20.4429 7.86192 -8.94921
485 1 12.58 18.872 6.2888 -8.95267
486 1 14.1526 20.4426 7.86187 -8.94937
487 1 15.7252 18.8705 6.28937 -8.94947
488 1 17.2972 20.4421 7.86201 -8.94961
489 1 18.8695 18.8699 6.28942 -8.94952
490 1 20.4414 20.4419 7.86199 -8.94955
491 1 22.0141 12.5793 9.43446 -8.94954
492 1 3.1434 12.5793 9.43444 -8.94882
493 1 6.28832 12.589 9.43402 -8.98778
494 1 9.28714 12.8094 9.41196 -8.35421
495 1 12.6149 12.5726 9.41286 -9.11216
496 1 15.7343 12.5785 9.43371 -8.95843
497 1 18.8722 12.5796 9.43433 -8.95091
498 1 -0.00114203 15.7252 9.43448 -8.95002
499 1 3.13936 15.7274 9.43449 -8.94913
500 1 6.27657 15.7373 9.43445 -8.94214
501 1 9.42502 15.7251 9.43151 -9.0545
502 1 12.5786 15.7249 9.43133 -8.99544
526 1 1.57018 17.2982 11.0075 -8.94923
11 1 15.7245 22.0139 -0.000293788 -8.94953
5 1 6.28945 22.014 -0.000392623 -8.94951
527 1 4.71205 17.3017 11.0087 -8.94684
532 1 20.4415 17.2976 11.0071 -8.94951
534 1 4.71547 20.4434 11.0076 -8.9493
538 1 17.2972 20.442 11.007 -8.94953
365 1 22.014 15.7244 -0.000280804 -8.9495
686 1 20.4417 20.4417 20.4415 -8.94924
685 1 18.8697 18.8698 18.8695 -8.94909
514 1 7.8815 11.0044 11.0037 -8.96366
684 1 17.297 20.4418 20.4415 -8.94962
516 1 14.1647 11.0046 11.0187 -9.0228
683 1 15.7247 18.8698 18.8696 -8.94973
682 1 14.152 20.4418 20.4415 -8.9495
519 1 1.56993 14.1523 11.0072 -8.95205
520 1 4.70613 14.1563 11.0093 -8.96001
521 1 7.8163 14.1966 11.0485 -8.88694
522 1 11.0193 14.1887 11.0365 -9.14677
523 1 14.1607 14.1553 11.0072 -8.99797
524 1 17.3011 14.1535 11.0071 -8.94897
525 1 20.4425 14.1524 11.0071 -8.95011
594 1 17.299 11.0069 17.2988 -8.94935
590 1 4.71635 11.0068 17.2978 -8.94949
528 1 7.85796 17.3076 11.0088 -8.96053
307 1 18.8694 22.0139 18.8694 -8.94938
530 1 14.1525 17.2983 11.0061 -8.95028
531 1 17.2978 17.298 11.007 -8.94901
295 1 22.0137 22.014 18.8693 -8.94923
533 1 1.57136 20.4422 11.0072 -8.94945
377 1 18.8699 15.7248 22.0135 -8.94947
535 1 7.86147 20.4442 11.0073 -8.9516
536 1 11.0071 20.4438 11.007 -8.95149
537 1 14.1523 20.4423 11.0069 -8.94934
373 1 12.5796 15.7252 22.0126 -8.94967
303 1 12.5795 22.0139 18.8694 -8.94952
681 1 12.5796 18.8698 18.8695 -8.94946
680 1 11.007 20.4418 20.4414 -8.94953
679 1 9.43448 18.8697 18.8695 -8.94951
543 1 11.0126 11.0057 14.1508 -9.05942
678 1 7.86197 20.4418 20.4414 -8.94953
677 1 6.28933 18.8697 18.8697 -8.94962
676 1 4.71694 20.4418 20.4415 -8.94958
547 1 22.0142 12.5793 12.5798 -8.95008
548 1 1.57139 14.1519 14.1526 -8.94994
549 1 3.14281 12.5788 12.5802 -8.95029
550 1 4.71357 14.1524 14.1544 -8.95146
551 1 6.28366 12.5775 12.5818 -8.95346
552 1 7.85296 14.1607 14.1661 -8.95199
553 1 9.41095 12.6046 12.5963 -8.93054
554 1 11.0079 14.1536 14.1554 -8.99098
555 1 12.6295 12.6135 12.6239 -8.89429
556 1 14.1679 14.1654 14.167 -8.92699
557 1 15.7381 12.5819 12.5843 -8.9591
558 1 17.3024 14.1544 14.1548 -8.95124
559 1 18.873 12.5797 12.5801 -8.95194
560 1 20.4429 14.1523 14.1526 -8.95032
561 1 22.013 15.725 12.58 -8.95036
562 1 1.57042 17.298 14.1532 -8.9498
563 1 3.13959 15.7268 12.5818 -8.95153
564 1 4.71165 17.302 14.1572 -8.94344
565 1 6.27351 15.7399 12.5939 -8.92613
566 1 7.8603 17.3013 14.1553 -8.9496
567 1 9.43224 15.7332 12.5842 -8.9812
568 1 11.0079 17.2992 14.1533 -8.94842
569 1 12.5866 15.7322 12.5837 -8.97911
570 1 14.1549 17.3014 14.1546 -8.95102
571 1 15.7285 15.7272 12.5806 -8.95008
572 1 17.2984 17.2984 14.1527 -8.94988
573 1 18.8708 15.7254 12.5799 -8.94963
574 1 20.4417 17.2975 14.1524 -8.94977
575 1 -0.000733315 18.8699 12.5798 -8.94941
576 1 1.57147 20.4421 14.1525 -8.94945
577 1 3.14264 18.871 12.5806 -8.94907
578 1 4.71574 20.4432 14.1533 -8.95004
579 1 6.28695 18.8741 12.5817 -8.95197
580 1 7.86158 20.4432 14.1532 -8.94952
581 1 9.43401 18.8734 12.5814 -8.949
582 1 11.0074 20.4426 14.1528 -8.94922
583 1 12.5805 18.8721 12.5803 -8.95051
584 1 14.1527 20.4428 14.1525 -8.95047
585 1 15.7251 18.8703 12.5794 -8.95005
586 1 17.2972 20.4421 14.152 -8.9498
587 1 18.8695 18.8698 12.5796 -8.9495
588 1 20.4414 20.4419 14.1521 -8.94953
589 1 1.57215 11.0069 17.2974 -8.94953
675 1 3.1441 18.8697 18.8698 -8.94941
674 1 1.57205 20.4418 20.4415 -8.94933
673 1 22.0139 18.8694 18.8694 -8.94956
672 1 20.4419 17.297 20.4415 -8.94953
671 1 18.87 15.7249 18.8697 -8.94944
595 1 20.4424 11.0069 17.2975 -8.94948
596 1 0.000308678 12.5795 15.7251 -8.94958
597 1 1.57209 14.1519 17.2974 -8.9494
598 1 3.14369 12.5793 15.7255 -8.949
599 1 4.71635 14.1518 17.2979 -8.94948
600 1 6.28817 12.5788 15.7263 -8.94811
601 1 7.86136 14.1524 17.2998 -8.9533
602 1 9.43493 12.5796 15.7275 -8.9541
603 1 11.0069 14.153 17.2989 -8.94849
604 1 12.5833 12.5808 15.734 -8.96107
605 1 14.1542 14.1539 17.3012 -8.95201
606 1 15.7297 12.5811 15.7294 -8.94671
607 1 17.2988 14.153 17.2986 -8.94908
608 1 18.8716 12.5799 15.7259 -8.94921
609 1 20.4423 14.1522 17.2975 -8.94941
610 1 22.0139 15.7247 15.725 -8.94988
611 1 1.57183 17.2971 17.2975 -8.94982
612 1 3.14313 15.7249 15.7259 -8.95032
613 1 4.71554 17.2982 17.2991 -8.94923
614 1 6.2856 15.7281 15.7304 -8.94912
615 1 7.86175 17.2978 17.2982 -8.94954
616 1 9.43465 15.7264 15.727 -8.94879
617 1 11.0071 17.2979 17.2979 -8.94916
618 1 12.5803 15.7264 15.727 -8.94987
619 1 14.1525 17.298 17.298 -8.94998
620 1 15.7296 15.7294 15.7294 -8.94362
621 1 17.2985 17.2985 17.2984 -8.94796
622 1 18.8712 15.7257 15.7257 -8.94973
623 1 20.4421 17.2973 17.2973 -8.94954
624 1 22.0134 18.8698 15.7249 -8.94952
625 1 1.57171 20.442 17.2974 -8.94907
626 1 3.14287 18.8708 15.7262 -8.94791
627 1 4.71661 20.4421 17.2976 -8.94962
628 1 6.28857 18.871 15.7262 -8.94973
629 1 7.86196 20.442 17.2975 -8.94954
630 1 9.43466 18.8704 15.7256 -8.94966
631 1 11.0071 20.442 17.2974 -8.9495
632 1 12.5799 18.8704 15.7254 -8.94931
633 1 14.1522 20.442 17.2973 -8.94954
634 1 15.7257 18.8711 15.7256 -8.94971
635 1 17.2973 20.4421 17.2973 -8.94953
636 1 18.8697 18.8699 15.7248 -8.94974
637 1 20.4415 20.4418 17.297 -8.94954
670 1 17.2975 17.2976 20.4416 -8.94955
669 1 15.7255 15.7256 18.8706 -8.95008
668 1 14.1521 17.2975 20.4414 -8.94958
667 1 12.5795 15.7251 18.87 -8.94946
666 1 11.007 17.2974 20.4413 -8.94954
665 1 9.43432 15.725 18.8699 -8.94951
664 1 7.8618 17.2973 20.4414 -8.94957
645 1 22.0141 12.5794 18.8695 -8.94952
646 1 1.57225 14.1519 20.4415 -8.94952
647 1 3.14436 12.5793 18.8696 -8.94953
648 1 4.71677 14.1518 20.4415 -8.94953
649 1 6.2891 12.5792 18.8698 -8.94942
650 1 7.86184 14.1519 20.4415 -8.95071
651 1 9.43451 12.5793 18.8699 -8.94984
652 1 11.0068 14.1523 20.4414 -8.94998
653 1 12.5797 12.5796 18.8711 -8.95174
654 1 14.1524 14.1525 20.4417 -8.95074
655 1 15.7259 12.5799 18.8708 -8.94939
656 1 17.2977 14.1524 20.4416 -8.94938
657 1 18.8701 12.5796 18.8698 -8.94945
658 1 20.442 14.152 20.4416 -8.94951
659 1 22.014 15.7245 18.8694 -8.94949
660 1 1.5722 17.2968 20.4415 -8.94968
661 1 3.14435 15.7243 18.8696 -8.94968
662 1 4.71658 17.2972 20.4415 -8.95012
663 1 6.28892 15.7248 18.8705 -8.95086
197 1 22.0134 22.014 12.5796 -8.94952
199 1 3.14368 22.0141 12.58 -8.94935
203 1 9.4346 22.0144 12.5801 -8.95031
205 1 12.5798 22.0142 12.5797 -8.95035
209 1 18.8693 22.014 12.5795 -8.94953
250 1 6.28914 22.0141 15.7253 -8.94958
389 1 15.7248 18.8698 22.0134 -8.94962
383 1 6.28926 18.8698 22.0132 -8.94951
256 1 15.7249 22.0139 15.7249 -8.95004
297 1 3.14442 22.014 18.8695 -8.94956
301 1 9.43449 22.0139 18.8694 -8.94952
351 1 22.0141 12.5794 22.0136 -8.94953
355 1 6.28917 12.5792 22.0133 -8.94945
371 1 9.43425 15.7251 22.0125 -8.94975
367 1 3.14436 15.7243 22.0134 -8.94968
357 1 9.43448 12.5792 22.0132 -8.94952
359 1 12.5797 12.5795 22.0124 -8.95118
379 1 22.0138 18.8694 22.0136 -8.94958
