ITEM: TIMESTEP
85
ITEM: NUMBER OF ATOMS
688
ITEM: BOX BOUNDS pp pp pp
0.0000000000000000e+00 2.2013900999999997e+01
0.0000000000000000e+00 2.2013900999999997e+01
0.0000000000000000e+00 2.2013900999999997e+01
ITEM: ATOMS id type x y z c_pot
189 1 20.4415 4.71649 11.007 -8.94954
2 1 1.57182 1.57216 1.57182 -8.94919
448 1 20.443 11.0067 7.86186 -8.94957
4 1 4.71672 1.57204 1.57165 -8.94961
447 1 17.3015 11.0056 7.86106 -8.9498
6 1 7.8619 1.57201 1.57167 -8.94945
7 1 9.4345 5.57302e-05 -0.000364347 -8.94953
8 1 11.0071 1.57197 1.5717 -8.94949
445 1 11.0784 11.0015 7.61804 -8.1577
10 1 14.1522 1.57191 1.5718 -8.94947
443 1 4.71949 11.0074 7.86268 -8.94325
12 1 17.2973 1.57186 1.57186 -8.94948
442 1 1.57235 11.0069 7.86182 -8.948
14 1 20.4415 1.57218 1.57214 -8.94957
188 1 17.2977 4.716 11.0069 -8.94894
16 1 1.57196 4.71687 1.57174 -8.94976
398 1 17.3014 11.007 4.71445 -8.94937
18 1 4.71588 4.71602 1.57058 -8.94932
394 1 4.71537 11.0066 4.71523 -8.94619
20 1 7.86152 4.71603 1.57088 -8.94913
50 1 -0.000364827 9.19835e-05 3.14449 -8.94953
22 1 11.007 4.71586 1.5709 -8.94938
183 1 1.57067 4.71607 11.0073 -8.94931
24 1 14.1527 4.71564 1.57083 -8.94956
349 1 17.2985 11.007 1.57084 -8.94946
26 1 17.2983 4.71558 1.57101 -8.94817
345 1 4.71652 11.0068 1.57145 -8.94952
28 1 20.4421 4.71667 1.57187 -8.9495
165 1 9.43043 6.29172 9.43425 -8.99432
30 1 1.57217 7.86197 1.57186 -8.94941
164 1 6.27976 6.28012 9.43434 -8.94223
32 1 4.7166 7.86209 1.57147 -8.94967
163 1 3.1405 6.28721 9.43446 -8.94914
34 1 7.86151 7.86148 1.56998 -8.95233
35 1 9.43413 6.28876 -0.00102626 -8.94959
36 1 11.0069 7.86064 1.56931 -8.9505
37 1 12.5796 6.28862 -0.00115189 -8.94967
38 1 14.1539 7.86015 1.56839 -8.95161
162 1 -0.000965502 6.28885 9.43448 -8.94993
40 1 17.2985 7.86108 1.57079 -8.94932
161 1 18.8694 3.14418 9.43448 -8.94956
42 1 20.4422 7.86174 1.57178 -8.94948
350 1 20.4422 11.0069 1.57174 -8.9495
44 1 3.14442 9.43445 -0.000353437 -8.9495
160 1 15.725 3.14386 9.43443 -8.94961
159 1 12.5796 3.14473 9.43442 -8.94797
158 1 9.43423 3.14393 9.43441 -8.94691
48 1 15.7256 9.43405 -0.00123444 -8.9495
157 1 6.28702 3.14117 9.43446 -8.94955
175 1 18.8703 9.43383 9.43441 -8.94728
51 1 1.57163 1.57209 4.71671 -8.94947
174 1 15.723 9.43479 9.43454 -8.93966
53 1 4.71603 1.5715 4.71603 -8.94998
54 1 6.28924 0.000242178 3.14387 -8.94962
55 1 7.86182 1.57151 4.71621 -8.9498
173 1 12.5575 9.44788 9.43399 -8.96291
57 1 11.0073 1.57151 4.71629 -8.94971
172 1 9.36899 9.23939 9.43271 -8.24135
59 1 14.1525 1.57141 4.71669 -8.95065
60 1 15.7248 5.83869e-05 3.14428 -8.95004
61 1 17.2971 1.57208 4.7171 -8.94973
171 1 6.28316 9.42808 9.43474 -8.9687
63 1 20.4414 1.5722 4.71705 -8.94951
64 1 22.0135 3.14437 3.14431 -8.94957
65 1 1.57086 4.71626 4.71619 -8.9497
66 1 3.14332 3.14364 3.14333 -8.94844
67 1 4.71308 4.71334 4.71328 -8.94547
68 1 6.28875 3.14337 3.1433 -8.94968
69 1 7.86054 4.71335 4.71439 -8.94949
70 1 9.43438 3.14336 3.14345 -8.94933
71 1 11.0075 4.71356 4.71443 -8.94796
72 1 12.5799 3.14324 3.14355 -8.94917
73 1 14.1549 4.71227 4.71426 -8.95005
74 1 15.7256 3.1429 3.14355 -8.94947
75 1 17.298 4.71583 4.71668 -8.95044
76 1 18.8696 3.14416 3.14444 -8.94984
77 1 20.4416 4.71664 4.71691 -8.94986
78 1 22.014 6.28926 3.14421 -8.94986
79 1 1.57168 7.86195 4.71657 -8.95004
80 1 3.14346 6.28905 3.14349 -8.95017
81 1 4.71432 7.86117 4.71511 -8.95104
82 1 6.28643 6.28654 3.14009 -8.94927
83 1 7.85513 7.85422 4.70656 -8.95019
84 1 9.43382 6.28676 3.14129 -8.94765
85 1 11.0082 7.85577 4.70765 -8.94939
86 1 12.581 6.28642 3.14078 -8.94885
87 1 14.1655 7.84927 4.70386 -8.92904
88 1 15.729 6.28504 3.14032 -8.94434
89 1 17.3018 7.85937 4.71448 -8.95037
90 1 18.871 6.28834 3.14358 -8.94953
91 1 20.4428 7.86144 4.71648 -8.95018
92 1 0.000228302 9.43434 3.14409 -8.94953
93 1 3.14397 9.43438 3.14381 -8.94891
94 1 6.28895 9.43472 3.14349 -8.94911
95 1 9.43515 9.43385 3.14226 -8.95302
96 1 12.5828 9.43274 3.13623 -8.95948
97 1 15.7285 9.43298 3.14061 -8.94815
98 1 18.8711 9.43404 3.14346 -8.94939
170 1 3.14286 9.4347 9.4345 -8.95087
100 1 1.57154 1.57204 7.86188 -8.94948
101 1 3.14372 0.000253562 6.28909 -8.94937
102 1 4.71577 1.57141 7.86159 -8.9494
169 1 22.0138 9.43438 9.43446 -8.94933
104 1 7.86163 1.5712 7.86179 -8.95136
105 1 9.43472 0.000501256 6.28899 -8.95033
106 1 11.0071 1.57212 7.86207 -8.94939
107 1 12.5797 0.000269558 6.28942 -8.95037
108 1 14.1523 1.5722 7.8621 -8.94943
168 1 18.87 6.28853 9.43442 -8.94949
110 1 17.2971 1.57206 7.86203 -8.94955
111 1 18.8693 7.99304e-05 6.28955 -8.94956
112 1 20.4414 1.57216 7.86201 -8.94955
113 1 -0.000573271 3.14427 6.28934 -8.94944
114 1 1.57067 4.71608 7.86165 -8.94931
115 1 3.14313 3.14349 6.28876 -8.94921
116 1 4.7133 4.71356 7.86069 -8.94774
117 1 6.28767 3.14137 6.28793 -8.95133
118 1 7.85895 4.70956 7.86074 -8.95815
119 1 9.43461 3.14209 6.28846 -8.95076
120 1 11.0066 4.71556 7.86178 -8.95106
121 1 12.5799 3.14247 6.28913 -8.95244
122 1 14.1524 4.71621 7.8627 -8.94924
123 1 15.7249 3.14393 6.28973 -8.94971
124 1 17.2976 4.71606 7.86199 -8.94889
125 1 18.8694 3.14425 6.28954 -8.9494
126 1 20.4415 4.7165 7.86193 -8.94954
127 1 22.0131 6.28906 6.28924 -8.95013
128 1 1.57025 7.8616 7.8618 -8.9514
129 1 3.14076 6.28761 6.28774 -8.95073
130 1 4.70826 7.85841 7.86 -8.95688
131 1 6.27798 6.27806 6.27912 -8.93391
132 1 7.82732 7.82862 7.83431 -8.8753
133 1 9.43355 6.28048 6.2846 -8.95224
134 1 11.0199 7.85553 7.83994 -8.91365
135 1 12.5854 6.27883 6.28294 -8.95443
136 1 14.1551 7.86052 7.86437 -8.9542
137 1 15.7269 6.28743 6.28925 -8.95191
138 1 17.2985 7.86102 7.8626 -8.94989
139 1 18.8701 6.28882 6.28956 -8.9499
140 1 20.4419 7.86154 7.86203 -8.94976
141 1 22.0142 9.43438 6.28921 -8.95002
142 1 3.14331 9.43497 6.2891 -8.95053
143 1 6.28486 9.43434 6.28737 -8.95194
144 1 9.4184 9.40792 6.27708 -8.89728
145 1 12.6209 9.39895 6.25127 -8.84967
146 1 15.736 9.4304 6.28422 -8.95661
147 1 18.8724 9.43364 6.28867 -8.95157
148 1 -0.000437092 0.00010033 9.43452 -8.94954
167 1 15.7263 6.28742 9.43425 -8.94586
150 1 6.28853 0.00054781 9.43451 -8.95033
151 1 9.43456 0.000801224 9.43438 -8.94874
152 1 12.5799 0.000606819 9.43437 -8.94922
153 1 15.7248 0.000149703 9.43449 -8.94966
166 1 12.5773 6.29234 9.43435 -8.94392
155 1 22.0133 3.14422 9.43451 -8.94951
156 1 3.14302 3.14343 9.43451 -8.94947
181 1 17.2971 1.57204 11.007 -8.94955
344 1 1.57215 11.0069 1.5718 -8.94954
177 1 4.71578 1.57138 11.0074 -8.9494
184 1 4.71329 4.71354 11.0083 -8.94782
45 1 6.28924 9.43456 -0.000433991 -8.94944
41 1 18.8699 6.28909 -0.000438791 -8.94949
19 1 6.2893 3.1443 -0.000515405 -8.94948
25 1 15.7247 3.14408 -0.000461226 -8.94959
176 1 1.57155 1.57204 11.0072 -8.94948
254 1 12.5798 -3.41332e-05 15.725 -8.94948
178 1 7.86164 1.57111 11.0071 -8.95126
179 1 11.0071 1.57214 11.0069 -8.9498
180 1 14.1523 1.57208 11.0068 -8.94937
644 1 20.442 11.0069 20.4416 -8.94953
182 1 20.4414 1.57216 11.007 -8.94955
643 1 17.2978 11.007 20.4417 -8.94947
252 1 9.43457 1.56643e-05 15.7251 -8.9495
185 1 7.85889 4.70949 11.008 -8.9579
186 1 11.0066 4.71507 11.0071 -8.95146
187 1 14.1525 4.71597 11.0061 -8.94907
642 1 14.1527 11.007 20.4418 -8.95047
641 1 11.0068 11.0069 20.4417 -8.94848
190 1 1.57021 7.86156 11.0072 -8.95146
191 1 4.70803 7.85827 11.0089 -8.95657
192 1 7.82713 7.82892 11.0335 -8.87325
193 1 11.0196 7.85363 11.0291 -8.92834
194 1 14.1561 7.86008 11.0038 -8.95164
195 1 17.2989 7.86084 11.0062 -8.9497
196 1 20.442 7.8615 11.0069 -8.94982
343 1 18.8701 9.43427 18.8698 -8.94947
198 1 1.57163 1.57206 14.1523 -8.94946
342 1 15.7258 9.43394 18.8708 -8.94946
200 1 4.71603 1.57143 14.153 -8.94998
201 1 6.28888 0.000438092 12.5801 -8.95065
202 1 7.86172 1.57139 14.1529 -8.94986
341 1 12.5798 9.43422 18.8712 -8.95166
204 1 11.0073 1.57133 14.1528 -8.94963
340 1 9.43437 9.43448 18.87 -8.94972
206 1 14.1526 1.57125 14.1524 -8.95075
207 1 15.7247 0.000101026 12.5794 -8.94959
208 1 17.2971 1.572 14.1519 -8.94976
339 1 6.28912 9.43451 18.8697 -8.94938
210 1 20.4414 1.57218 14.152 -8.94952
211 1 -0.000560332 3.14425 12.5797 -8.94945
212 1 1.57086 4.71622 14.1529 -8.94966
213 1 3.14313 3.14347 12.5803 -8.94921
214 1 4.71305 4.71333 14.1557 -8.94556
215 1 6.28766 3.14132 12.581 -8.95122
216 1 7.86023 4.71284 14.1548 -8.94977
217 1 9.43452 3.14181 12.5806 -8.95101
218 1 11.0075 4.71307 14.1548 -8.94788
219 1 12.58 3.14212 12.5799 -8.95276
220 1 14.1553 4.7115 14.1551 -8.9505
221 1 15.7249 3.14377 12.5792 -8.94965
222 1 17.2982 4.71565 14.1523 -8.95047
223 1 18.8694 3.14421 12.5795 -8.9494
224 1 20.4417 4.71658 14.1521 -8.94983
225 1 22.0132 6.28902 12.5798 -8.95013
226 1 1.57167 7.86193 14.1525 -8.95013
227 1 3.14069 6.28756 12.5813 -8.95059
228 1 4.71402 7.86118 14.1538 -8.95178
229 1 6.27794 6.27817 12.5896 -8.93392
230 1 7.85305 7.85224 14.1641 -8.94692
231 1 9.43303 6.27923 12.5846 -8.95345
232 1 11.0082 7.85449 14.1622 -8.94921
233 1 12.5861 6.27725 12.5864 -8.95608
234 1 14.1686 7.84627 14.1679 -8.92376
235 1 15.7273 6.28711 12.5796 -8.95171
236 1 17.3026 7.859 14.1548 -8.95094
237 1 18.8703 6.28872 12.5794 -8.94982
238 1 20.443 7.86138 14.1526 -8.95029
239 1 22.0143 9.43437 12.5798 -8.95008
240 1 3.14324 9.43505 12.5798 -8.95073
241 1 6.28425 9.43503 12.5808 -8.95569
242 1 9.41016 9.40209 12.5965 -8.92769
243 1 12.6315 9.39139 12.6248 -8.86118
244 1 15.7382 9.43034 12.5849 -8.95945
245 1 18.873 9.43363 12.5803 -8.95196
246 1 -0.000348611 7.63251e-05 15.7246 -8.94954
247 1 1.57182 1.57214 17.2972 -8.94922
248 1 3.14393 0.000188921 15.7251 -8.94953
249 1 4.71666 1.57199 17.2975 -8.94958
338 1 3.14438 9.43443 18.8695 -8.94951
251 1 7.86188 1.57193 17.2974 -8.94944
337 1 22.0141 9.43441 18.8694 -8.94953
253 1 11.007 1.57187 17.2974 -8.94949
336 1 20.442 7.86187 20.4416 -8.94953
255 1 14.1522 1.5718 17.2973 -8.94946
335 1 18.87 6.28902 18.8697 -8.94943
257 1 17.2973 1.57177 17.2973 -8.94946
258 1 18.8693 4.92192e-05 15.7244 -8.94972
259 1 20.4416 1.57215 17.2969 -8.94959
260 1 22.0135 3.14433 15.7247 -8.94957
261 1 1.57195 4.71682 17.2974 -8.9498
262 1 3.14331 3.14361 15.7257 -8.94849
263 1 4.71571 4.71585 17.2987 -8.94908
264 1 6.28861 3.14319 15.7259 -8.94971
265 1 7.86144 4.71589 17.2983 -8.9491
266 1 9.43433 3.14318 15.7257 -8.94928
267 1 11.007 4.71569 17.2983 -8.94932
268 1 12.5799 3.14301 15.7256 -8.94911
269 1 14.1528 4.71542 17.2985 -8.94953
270 1 15.7258 3.14261 15.7257 -8.94954
271 1 17.2986 4.71528 17.2984 -8.94781
272 1 18.8697 3.14408 15.7246 -8.94988
273 1 20.4422 4.71659 17.2973 -8.94952
274 1 22.0141 6.28921 15.7249 -8.94992
275 1 1.57215 7.86191 17.2973 -8.9494
276 1 3.14335 6.28899 15.7256 -8.95035
277 1 4.71642 7.86198 17.2978 -8.9495
278 1 6.28582 6.28594 15.7295 -8.94842
279 1 7.86129 7.86127 17.2995 -8.95261
280 1 9.43364 6.28635 15.728 -8.94741
281 1 11.0069 7.8604 17.3001 -8.95044
282 1 12.5811 6.28587 15.7287 -8.94855
283 1 14.1543 7.85977 17.3015 -8.95201
284 1 15.7299 6.28403 15.7296 -8.94302
285 1 17.2989 7.86081 17.2987 -8.94901
286 1 18.8713 6.28815 15.7256 -8.94965
287 1 20.4423 7.86166 17.2974 -8.94943
288 1 0.000324311 9.43429 15.725 -8.94959
289 1 3.14377 9.43432 15.7253 -8.94892
290 1 6.28833 9.43443 15.7259 -8.9483
291 1 9.43471 9.4334 15.7277 -8.95394
292 1 12.5835 9.43214 15.7344 -8.96065
293 1 15.7298 9.43227 15.7296 -8.94682
294 1 18.8716 9.43385 15.7259 -8.94931
49 1 18.87 9.43431 22.0134 -8.94949
296 1 1.57212 1.5722 20.4415 -8.94935
334 1 17.2977 7.86152 20.4416 -8.94942
298 1 4.71698 1.5722 20.4415 -8.94956
299 1 6.28948 2.81554e-05 18.8694 -8.94954
300 1 7.86195 1.57214 20.4415 -8.94952
333 1 15.7256 6.28827 18.8707 -8.95008
302 1 11.007 1.57211 20.4415 -8.94953
332 1 14.1524 7.86139 20.4417 -8.95078
304 1 14.152 1.57209 20.4415 -8.94951
305 1 15.7245 -2.13168e-05 18.8694 -8.94956
306 1 17.297 1.57209 20.4415 -8.94959
331 1 12.5796 6.28853 18.8705 -8.94965
308 1 20.4417 1.57222 20.4415 -8.94921
309 1 22.0139 3.14454 18.8694 -8.94953
310 1 1.57226 4.71709 20.4415 -8.94968
311 1 3.14421 3.14429 18.8697 -8.94937
312 1 4.71667 4.71676 20.4415 -8.95001
313 1 6.28928 3.14425 18.8696 -8.94949
314 1 7.86171 4.71658 20.4415 -8.94949
315 1 9.43438 3.14414 18.8696 -8.94948
316 1 11.0069 4.71643 20.4415 -8.94952
317 1 12.5795 3.14407 18.8696 -8.94945
318 1 14.1522 4.71637 20.4416 -8.94956
319 1 15.7248 3.14401 18.8696 -8.9496
320 1 17.2975 4.71633 20.4416 -8.94952
321 1 18.8698 3.14415 18.8695 -8.94904
322 1 20.4419 4.71692 20.4415 -8.94951
323 1 22.0141 6.28944 18.8694 -8.94949
324 1 1.57227 7.86199 20.4415 -8.94952
325 1 3.14442 6.28953 18.8695 -8.94969
326 1 4.71683 7.86207 20.4416 -8.94954
327 1 6.28894 6.28908 18.8703 -8.95066
328 1 7.86178 7.86195 20.4416 -8.95046
329 1 9.4341 6.28868 18.8703 -8.94956
330 1 11.0067 7.86151 20.4416 -8.9503
512 1 1.5724 11.0069 11.0071 -8.94785
513 1 4.71977 11.0076 11.0059 -8.94187
515 1 11.0865 10.9679 11.2837 -8.34238
517 1 17.3021 11.0058 11.0075 -8.94976
518 1 20.4432 11.0067 11.007 -8.94956
540 1 1.57173 11.0068 14.1528 -8.94965
541 1 4.71481 11.0066 14.1539 -8.94649
542 1 7.8612 11.006 14.1534 -8.94344
544 1 14.1662 11.0058 14.1656 -8.93954
545 1 17.3029 11.0067 14.1553 -8.94928
546 1 20.4432 11.0068 14.1528 -8.95007
47 1 12.5797 9.43429 22.0123 -8.95151
591 1 7.86157 11.0068 17.2978 -8.94889
592 1 11.0073 11.0067 17.2982 -8.94628
593 1 14.1549 11.0068 17.3017 -8.95001
46 1 9.43442 9.43454 22.0133 -8.9497
638 1 1.57225 11.0069 20.4415 -8.94956
639 1 4.71674 11.0069 20.4416 -8.94962
640 1 7.86172 11.0069 20.4416 -8.9494
3 1 3.14447 7.78302e-05 22.0136 -8.94957
39 1 15.7254 6.28842 22.0127 -8.95004
9 1 12.5795 3.9314e-05 22.0136 -8.94953
33 1 6.28902 6.28916 22.0129 -8.95063
13 1 18.8694 1.53681e-05 22.0136 -8.94939
15 1 22.0139 3.14457 22.0136 -8.94952
17 1 3.14424 3.14433 22.0134 -8.94944
31 1 3.14446 6.28956 22.0135 -8.94972
23 1 12.5795 3.14413 22.0134 -8.94946
29 1 22.014 6.28948 22.0137 -8.94951
27 1 18.8697 3.14421 22.0136 -8.94914
21 1 9.43439 3.14418 22.0134 -8.94949
43 1 22.014 9.43443 22.0136 -8.94954
539 1 20.4414 20.4419 11.007 -8.94955
688 3 10.2609 11.0519 9.45412 2.21711
346 1 7.86183 11.0069 1.57176 -8.94865
347 1 11.0073 11.0069 1.57148 -8.94636
348 1 14.1544 11.007 1.5685 -8.94972
687 2 10.9267 12.4609 10.1993 0.358256
529 1 11.006 17.3059 11.0067 -8.96062
154 1 18.8693 22.014 9.43451 -8.94957
352 1 1.5721 14.1518 1.5718 -8.94941
353 1 3.1444 12.5793 -0.00038305 -8.94953
354 1 4.71649 14.1517 1.57124 -8.94953
149 1 3.14366 22.0141 9.43453 -8.94945
356 1 7.86155 14.1522 1.56936 -8.95312
393 1 1.57176 11.0068 4.71628 -8.94948
358 1 11.0069 14.1529 1.56933 -8.95067
399 1 20.4428 11.0069 4.71634 -8.9499
360 1 14.1537 14.1535 1.56869 -8.9516
361 1 15.7256 12.5799 -0.00118395 -8.9494
362 1 17.2984 14.1527 1.5709 -8.9492
363 1 18.87 12.5796 -0.000454279 -8.94949
364 1 20.4421 14.1521 1.57178 -8.94944
109 1 15.7248 22.0141 6.28954 -8.94952
366 1 1.57185 17.297 1.57165 -8.94984
103 1 6.28883 22.0145 6.28882 -8.95066
368 1 4.71562 17.2981 1.57005 -8.94949
369 1 6.28899 15.7247 -0.00131624 -8.95089
370 1 7.86152 17.298 1.57037 -8.94919
99 1 22.0135 22.014 6.28945 -8.94953
372 1 11.0072 17.2981 1.57056 -8.94934
62 1 18.8693 22.014 3.14462 -8.94968
374 1 14.1527 17.2982 1.57075 -8.94964
375 1 15.7254 15.7254 -0.00115873 -8.9501
376 1 17.2982 17.2982 1.571 -8.94836
58 1 12.5798 22.014 3.14405 -8.94951
378 1 20.442 17.2972 1.57185 -8.94958
1 1 22.0137 22.014 -0.000209475 -8.94921
380 1 1.57171 20.442 1.5717 -8.94902
381 1 3.14413 18.8697 -0.000681004 -8.94946
382 1 4.71665 20.4421 1.5715 -8.94959
56 1 9.43458 22.0141 3.14391 -8.94953
384 1 7.86191 20.4421 1.57154 -8.94944
385 1 9.43446 18.8698 -0.000661815 -8.9495
386 1 11.0071 20.4421 1.5716 -8.94949
387 1 12.5796 18.8698 -0.00060393 -8.94945
388 1 14.1522 20.4421 1.57174 -8.94943
52 1 3.14391 22.0141 3.14389 -8.94949
390 1 17.2973 20.4421 1.57181 -8.94948
391 1 18.8697 18.8697 -0.000349845 -8.94919
392 1 20.4415 20.4418 1.57209 -8.94954
511 1 18.8695 18.8698 9.4345 -8.94956
510 1 15.7252 18.8703 9.43448 -8.94956
395 1 7.86325 11.0066 4.7172 -8.94704
396 1 11.0121 11.0067 4.72033 -9.00565
397 1 14.1623 11.0071 4.70694 -8.94467
509 1 12.5802 18.871 9.43372 -8.94761
508 1 9.43347 18.8723 9.43376 -8.9456
400 1 0.000172942 12.5795 3.14407 -8.94955
401 1 1.57139 14.1518 4.71641 -8.94978
402 1 3.14386 12.5792 3.14369 -8.94902
403 1 4.71394 14.1522 4.71463 -8.95103
404 1 6.28866 12.5787 3.14311 -8.94861
405 1 7.85468 14.1599 4.70341 -8.95545
406 1 9.43508 12.5795 3.14241 -8.95183
407 1 11.0077 14.1572 4.70743 -8.95194
408 1 12.5826 12.5807 3.13726 -8.95791
409 1 14.1645 14.1634 4.70476 -8.93225
410 1 15.7284 12.5809 3.14095 -8.94736
411 1 17.3012 14.1539 4.71486 -8.95115
412 1 18.871 12.5798 3.14351 -8.94927
413 1 20.4425 14.1522 4.71652 -8.95017
414 1 22.0138 15.7246 3.14415 -8.94983
415 1 1.57034 17.298 4.71582 -8.94984
416 1 3.14323 15.7248 3.14325 -8.9503
417 1 4.71133 17.3023 4.71146 -8.94281
418 1 6.28591 15.7278 3.1387 -8.95019
419 1 7.86004 17.3019 4.71286 -8.94863
420 1 9.43401 15.7274 3.14023 -8.94811
421 1 11.0079 17.301 4.71351 -8.94666
422 1 12.5809 15.7272 3.14069 -8.9493
423 1 14.1551 17.3017 4.71388 -8.94975
424 1 15.7287 15.7285 3.14046 -8.94513
425 1 17.2983 17.2982 4.71638 -8.95
426 1 18.8708 15.7254 3.14363 -8.94979
427 1 20.4416 17.2974 4.71669 -8.9498
428 1 22.0133 18.8697 3.14414 -8.94952
429 1 1.57149 20.4421 4.71661 -8.94946
430 1 3.14282 18.8708 3.1428 -8.94774
431 1 4.71572 20.4433 4.7157 -8.94994
432 1 6.28851 18.8711 3.14274 -8.94952
433 1 7.86174 20.4432 4.71591 -8.94975
434 1 9.43446 18.8709 3.14304 -8.94925
435 1 11.0074 20.443 4.71607 -8.94959
436 1 12.5801 18.8709 3.1433 -8.94892
437 1 14.1525 20.4427 4.71658 -8.95067
438 1 15.7257 18.871 3.14341 -8.94942
439 1 17.2971 20.4421 4.71701 -8.94965
440 1 18.8696 18.8698 3.14433 -8.94975
441 1 20.4414 20.4419 4.717 -8.94953
507 1 6.28626 18.8743 9.4345 -8.94951
506 1 3.14258 18.871 9.43453 -8.94936
444 1 7.87835 10.9999 7.86254 -8.95575
505 1 22.0132 18.8699 9.43452 -8.94949
446 1 14.1629 11.0015 7.85026 -9.00256
504 1 18.8704 15.7254 9.43442 -8.94926
503 1 15.727 15.7263 9.43428 -8.94643
449 1 22.014 12.5793 6.28916 -8.9499
450 1 1.56983 14.1523 7.86172 -8.95218
451 1 3.1429 12.5787 6.28872 -8.94991
452 1 4.70567 14.1564 7.85922 -8.96086
453 1 6.28454 12.5775 6.28695 -8.95196
454 1 7.81334 14.2016 7.81591 -8.8547
455 1 9.41709 12.6042 6.2791 -8.95509
456 1 11.0171 14.1624 7.83416 -8.95749
457 1 12.6178 12.613 6.25669 -8.90219
458 1 14.1576 14.1569 7.86181 -8.97496
459 1 15.7344 12.5819 6.28617 -8.95859
460 1 17.3004 14.1535 7.86151 -8.9483
461 1 18.8721 12.5797 6.28895 -8.95123
462 1 20.4423 14.1524 7.86181 -8.95006
463 1 22.0129 15.7249 6.28904 -8.9504
464 1 1.5702 17.2981 7.86155 -8.94926
465 1 3.13941 15.7268 6.28705 -8.95171
466 1 4.71197 17.3017 7.86023 -8.94721
467 1 6.27252 15.7412 6.27345 -8.92302
468 1 7.85714 17.3089 7.85893 -8.96071
469 1 9.43316 15.7367 6.28064 -8.9478
470 1 11.0058 17.2999 7.86125 -8.95171
471 1 12.5856 15.7358 6.28175 -8.95373
472 1 14.1531 17.2991 7.86185 -8.94914
473 1 15.7277 15.7271 6.2883 -8.95028
474 1 17.2979 17.298 7.86187 -8.94934
475 1 18.8705 15.7253 6.2891 -8.94957
476 1 20.4414 17.2975 7.86186 -8.94955
477 1 -0.000722585 18.8698 6.28926 -8.94944
478 1 1.57141 20.4422 7.86186 -8.94946
479 1 3.14263 18.871 6.28848 -8.94912
480 1 4.7155 20.4434 7.8615 -8.94937
481 1 6.28675 18.8745 6.28696 -8.95165
482 1 7.86132 20.4445 7.8615 -8.95177
483 1 9.43458 18.8733 6.28767 -8.95093
484 1 11.0071 20.4429 7.86193 -8.94922
485 1 12.58 18.872 6.28883 -8.95266
486 1 14.1526 20.4426 7.86187 -8.94937
487 1 15.7252 18.8705 6.28939 -8.94948
488 1 17.2972 20.442 7.86201 -8.94961
489 1 18.8695 18.8698 6.28944 -8.94952
490 1 20.4414 20.4419 7.862 -8.94955
491 1 22.0141 12.5793 9.43446 -8.94957
492 1 3.1433 12.5792 9.43444 -8.94894
493 1 6.28791 12.5889 9.43403 -8.98757
494 1 9.28782 12.8098 9.41219 -8.35389
495 1 12.6152 12.5726 9.41273 -9.11329
496 1 15.7343 12.5786 9.4337 -8.95848
497 1 18.8722 12.5796 9.43434 -8.95094
498 1 -0.00111066 15.7251 9.43448 -8.95001
499 1 3.13944 15.7273 9.43449 -8.94913
500 1 6.27669 15.7371 9.43447 -8.94214
501 1 9.42514 15.7251 9.43157 -9.05458
502 1 12.5786 15.7249 9.43135 -8.99544
526 1 1.57025 17.2981 11.0075 -8.94923
11 1 15.7245 22.0139 -0.000276287 -8.94954
5 1 6.28947 22.014 -0.000365276 -8.94951
527 1 4.71217 17.3016 11.0087 -8.94686
532 1 20.4415 17.2975 11.0071 -8.94951
534 1 4.71555 20.4433 11.0075 -8.9493
538 1 17.2972 20.442 11.007 -8.94953
365 1 22.014 15.7244 -0.000264345 -8.94951
686 1 20.4417 20.4417 20.4415 -8.94925
685 1 18.8697 18.8697 18.8695 -8.9491
514 1 7.88125 11.0044 11.0037 -8.96348
684 1 17.297 20.4418 20.4415 -8.94963
516 1 14.1647 11.0046 11.0185 -9.02281
683 1 15.7247 18.8698 18.8695 -8.94973
682 1 14.152 20.4418 20.4415 -8.94951
519 1 1.56993 14.1523 11.0072 -8.95204
520 1 4.70615 14.1562 11.0093 -8.95995
521 1 7.81636 14.1965 11.0485 -8.88704
522 1 11.0194 14.1893 11.0368 -9.14737
523 1 14.1606 14.1553 11.0072 -8.99805
524 1 17.301 14.1535 11.0071 -8.94894
525 1 20.4424 14.1524 11.0071 -8.9501
594 1 17.2989 11.0069 17.2987 -8.94936
590 1 4.71636 11.0068 17.2978 -8.9495
528 1 7.85805 17.3075 11.0088 -8.9605
307 1 18.8694 22.0139 18.8694 -8.94938
530 1 14.1525 17.2983 11.0061 -8.95027
531 1 17.2978 17.298 11.007 -8.94901
295 1 22.0137 22.014 18.8693 -8.94925
533 1 1.57143 20.4422 11.0072 -8.94946
377 1 18.8699 15.7248 22.0135 -8.94948
535 1 7.86152 20.4442 11.0072 -8.95159
536 1 11.0071 20.4438 11.007 -8.95154
537 1 14.1524 20.4423 11.0069 -8.94933
373 1 12.5796 15.7252 22.0127 -8.94967
303 1 12.5795 22.0139 18.8694 -8.94952
681 1 12.5795 18.8697 18.8695 -8.94947
680 1 11.007 20.4418 20.4415 -8.94954
679 1 9.43448 18.8697 18.8695 -8.94952
543 1 11.0125 11.0058 14.1505 -9.05925
678 1 7.86198 20.4418 20.4415 -8.94953
677 1 6.28935 18.8697 18.8696 -8.94962
676 1 4.71697 20.4418 20.4415 -8.94959
547 1 22.0142 12.5793 12.5798 -8.95007
548 1 1.57141 14.1519 14.1526 -8.94993
549 1 3.1428 12.5787 12.5802 -8.95027
550 1 4.71364 14.1524 14.1543 -8.95147
551 1 6.2837 12.5775 12.5817 -8.9534
552 1 7.85305 14.1605 14.166 -8.95202
553 1 9.4111 12.6045 12.5962 -8.93089
554 1 11.0078 14.1537 14.1554 -8.99126
555 1 12.6294 12.6135 12.6237 -8.89425
556 1 14.1677 14.1653 14.1669 -8.92701
557 1 15.738 12.5819 12.5842 -8.95909
558 1 17.3023 14.1544 14.1547 -8.95124
559 1 18.8729 12.5797 12.5801 -8.95193
560 1 20.4428 14.1523 14.1526 -8.95031
561 1 22.0131 15.7249 12.5799 -8.95035
562 1 1.57047 17.2979 14.1532 -8.9498
563 1 3.13966 15.7267 12.5818 -8.95152
564 1 4.71174 17.3019 14.1571 -8.94347
565 1 6.27362 15.7397 12.5939 -8.92618
566 1 7.86031 17.3013 14.1553 -8.94953
567 1 9.43218 15.7333 12.5843 -8.98126
568 1 11.0079 17.2992 14.1533 -8.94841
569 1 12.5867 15.7324 12.5839 -8.97921
570 1 14.1549 17.3015 14.1546 -8.95093
571 1 15.7284 15.7272 12.5805 -8.95013
572 1 17.2984 17.2984 14.1527 -8.94989
573 1 18.8707 15.7254 12.5798 -8.94962
574 1 20.4417 17.2974 14.1523 -8.94977
575 1 -0.000690608 18.8698 12.5798 -8.94942
576 1 1.57153 20.4421 14.1524 -8.94946
577 1 3.14272 18.8709 12.5805 -8.94908
578 1 4.71581 20.4431 14.1532 -8.95004
579 1 6.28703 18.874 12.5817 -8.95197
580 1 7.8616 20.4432 14.1531 -8.94951
581 1 9.43402 18.8734 12.5814 -8.94901
582 1 11.0074 20.4426 14.1528 -8.94922
583 1 12.5805 18.8721 12.5803 -8.95052
584 1 14.1526 20.4428 14.1525 -8.95046
585 1 15.7251 18.8703 12.5794 -8.95005
586 1 17.2971 20.442 14.152 -8.9498
587 1 18.8695 18.8698 12.5795 -8.94951
588 1 20.4414 20.4418 14.152 -8.94954
589 1 1.57214 11.0069 17.2974 -8.94953
675 1 3.14414 18.8697 18.8698 -8.94941
674 1 1.57207 20.4418 20.4415 -8.94935
673 1 22.0139 18.8694 18.8694 -8.94956
672 1 20.4418 17.297 20.4415 -8.94953
671 1 18.8699 15.7248 18.8697 -8.94945
595 1 20.4423 11.0069 17.2975 -8.94948
596 1 0.000275168 12.5795 15.7251 -8.94958
597 1 1.5721 14.1519 17.2973 -8.9494
598 1 3.14371 12.5793 15.7254 -8.949
599 1 4.71638 14.1518 17.2979 -8.94948
600 1 6.28821 12.5788 15.7263 -8.94812
601 1 7.86137 14.1524 17.2998 -8.95329
602 1 9.43493 12.5795 15.7275 -8.9541
603 1 11.0069 14.153 17.2989 -8.94852
604 1 12.5832 12.5808 15.7339 -8.96107
605 1 14.1541 14.1538 17.3011 -8.95201
606 1 15.7295 12.5811 15.7293 -8.94673
607 1 17.2987 14.1529 17.2986 -8.94909
608 1 18.8715 12.5799 15.7258 -8.94921
609 1 20.4423 14.1522 17.2974 -8.94942
610 1 22.0139 15.7246 15.725 -8.94987
611 1 1.57186 17.2971 17.2974 -8.94983
612 1 3.14318 15.7249 15.7258 -8.95032
613 1 4.7156 17.2982 17.299 -8.94923
614 1 6.28567 15.728 15.7303 -8.94913
615 1 7.86176 17.2978 17.2982 -8.94954
616 1 9.43463 15.7264 15.727 -8.94881
617 1 11.0071 17.2979 17.2979 -8.94916
618 1 12.5803 15.7263 15.727 -8.94989
619 1 14.1525 17.298 17.298 -8.94998
620 1 15.7295 15.7293 15.7294 -8.94364
621 1 17.2984 17.2985 17.2983 -8.94797
622 1 18.8711 15.7256 15.7256 -8.94973
623 1 20.4421 17.2973 17.2973 -8.94954
624 1 22.0134 18.8697 15.7249 -8.94952
625 1 1.57174 20.442 17.2973 -8.94908
626 1 3.14294 18.8708 15.7261 -8.94792
627 1 4.71665 20.4421 17.2975 -8.94962
628 1 6.28861 18.871 15.7261 -8.9497
629 1 7.86197 20.442 17.2974 -8.94955
630 1 9.43465 18.8704 15.7256 -8.94965
631 1 11.0071 20.442 17.2974 -8.94951
632 1 12.5798 18.8704 15.7254 -8.9493
633 1 14.1521 20.442 17.2973 -8.94954
634 1 15.7256 18.8711 15.7256 -8.94967
635 1 17.2973 20.4421 17.2973 -8.94953
636 1 18.8697 18.8699 15.7247 -8.94974
637 1 20.4415 20.4418 17.297 -8.94955
670 1 17.2975 17.2975 20.4416 -8.94956
669 1 15.7255 15.7255 18.8706 -8.95008
668 1 14.1521 17.2974 20.4414 -8.94959
667 1 12.5795 15.7251 18.87 -8.94947
666 1 11.0069 17.2974 20.4413 -8.94954
665 1 9.43432 15.725 18.8699 -8.94951
664 1 7.86181 17.2973 20.4414 -8.94957
645 1 22.0141 12.5794 18.8694 -8.94953
646 1 1.57225 14.1519 20.4415 -8.94953
647 1 3.14437 12.5793 18.8695 -8.94953
648 1 4.71679 14.1518 20.4415 -8.94953
649 1 6.28911 12.5792 18.8698 -8.94941
650 1 7.86185 14.1519 20.4415 -8.95069
651 1 9.4345 12.5793 18.8699 -8.94983
652 1 11.0068 14.1523 20.4414 -8.94998
653 1 12.5797 12.5796 18.871 -8.95173
654 1 14.1524 14.1524 20.4417 -8.95074
655 1 15.7258 12.5799 18.8708 -8.94939
656 1 17.2977 14.1524 20.4416 -8.94938
657 1 18.8701 12.5796 18.8697 -8.94946
658 1 20.4419 14.152 20.4415 -8.94952
659 1 22.014 15.7244 18.8694 -8.94949
660 1 1.57221 17.2968 20.4415 -8.94968
661 1 3.14438 15.7243 18.8696 -8.94968
662 1 4.71661 17.2972 20.4415 -8.95011
663 1 6.28894 15.7248 18.8704 -8.95085
197 1 22.0135 22.014 12.5796 -8.94952
199 1 3.14375 22.0141 12.5799 -8.94935
203 1 9.4346 22.0144 12.5801 -8.95031
205 1 12.5798 22.0142 12.5797 -8.95036
209 1 18.8693 22.014 12.5795 -8.94954
250 1 6.28917 22.0141 15.7252 -8.94958
389 1 15.7247 18.8698 22.0134 -8.94963
383 1 6.28929 18.8697 22.0132 -8.94951
256 1 15.7249 22.0139 15.7248 -8.95003
297 1 3.14446 22.014 18.8694 -8.94956
301 1 9.43449 22.0139 18.8694 -8.94953
351 1 22.014 12.5794 22.0136 -8.94954
355 1 6.28918 12.5792 22.0134 -8.94945
371 1 9.43425 15.7251 22.0126 -8.94974
367 1 3.14439 15.7243 22.0134 -8.94968
357 1 9.43447 12.5792 22.0132 -8.94951
359 1 12.5797 12.5795 22.0124 -8.95118
379 1 22.0138 18.8694 22.0136 -8.94959
