ITEM: TIMESTEP
73
ITEM: NUMBER OF ATOMS
688
ITEM: BOX BOUNDS pp pp pp
0.0000000000000000e+00 2.2013900999999997e+01
0.0000000000000000e+00 2.2013900999999997e+01
0.0000000000000000e+00 2.2013900999999997e+01
ITEM: ATOMS id type x y z c_pot
189 1 20.4415 4.71661 11.007 -8.94955
2 1 1.57195 1.5722 1.57196 -8.94923
448 1 20.4428 11.0067 7.86189 -8.94964
4 1 4.71688 1.5721 1.57183 -8.94963
447 1 17.3015 11.0057 7.86115 -8.94992
6 1 7.86197 1.57208 1.57183 -8.94947
7 1 9.43451 4.18841e-05 -0.000275561 -8.94956
8 1 11.007 1.57204 1.57184 -8.94951
445 1 11.0792 11.0012 7.61963 -8.15783
10 1 14.1521 1.57201 1.57193 -8.94948
443 1 4.71908 11.0072 7.86258 -8.94293
12 1 17.2971 1.57196 1.57196 -8.94949
442 1 1.57215 11.0069 7.86179 -8.94804
14 1 20.4415 1.57224 1.57223 -8.94959
188 1 17.2976 4.71611 11.0069 -8.94895
16 1 1.57206 4.71697 1.57189 -8.94976
398 1 17.3011 11.007 4.7147 -8.94934
18 1 4.71608 4.71618 1.57078 -8.94934
394 1 4.71545 11.0066 4.71532 -8.94625
20 1 7.86164 4.71621 1.57106 -8.94914
50 1 -0.000253894 6.02615e-05 3.14461 -8.94957
22 1 11.007 4.71606 1.57109 -8.94939
183 1 1.5709 4.71624 11.0073 -8.94932
24 1 14.1525 4.7159 1.57105 -8.94958
349 1 17.2982 11.007 1.57104 -8.94947
26 1 17.2981 4.71583 1.57117 -8.94819
345 1 4.71657 11.0068 1.57152 -8.94955
28 1 20.442 4.71681 1.57198 -8.94951
165 1 9.43031 6.29174 9.43419 -8.99508
30 1 1.57219 7.86202 1.57196 -8.94943
164 1 6.27994 6.2803 9.43436 -8.94227
32 1 4.7167 7.86217 1.57159 -8.94967
163 1 3.14074 6.28743 9.43448 -8.94914
34 1 7.86157 7.86162 1.5701 -8.95231
35 1 9.43416 6.28889 -0.000943326 -8.94958
36 1 11.0068 7.86081 1.56947 -8.95046
37 1 12.5795 6.2888 -0.00103992 -8.94965
38 1 14.1536 7.86035 1.56862 -8.95159
162 1 -0.000872681 6.28898 9.43449 -8.94992
40 1 17.2982 7.86127 1.571 -8.94934
161 1 18.8694 3.14428 9.4345 -8.94957
42 1 20.442 7.86185 1.5719 -8.94949
350 1 20.442 11.0069 1.57187 -8.94952
44 1 3.14446 9.43447 -0.000311919 -8.94953
160 1 15.725 3.14389 9.43445 -8.94962
159 1 12.5797 3.14457 9.43441 -8.94806
158 1 9.43431 3.14382 9.43441 -8.94688
48 1 15.7254 9.43414 -0.00112899 -8.9495
157 1 6.28731 3.14131 9.43447 -8.94953
175 1 18.8703 9.43386 9.43443 -8.94736
51 1 1.57182 1.57213 4.71686 -8.94951
174 1 15.7231 9.43467 9.43451 -8.9397
53 1 4.71624 1.57155 4.71623 -8.94997
54 1 6.28938 0.000170002 3.14409 -8.94961
55 1 7.86192 1.57157 4.71637 -8.94976
173 1 12.5581 9.44707 9.43372 -8.96314
57 1 11.0073 1.57156 4.71642 -8.94967
172 1 9.3677 9.23555 9.43265 -8.23787
59 1 14.1524 1.57149 4.71677 -8.95061
60 1 15.7247 4.49251e-05 3.14438 -8.95001
61 1 17.297 1.57214 4.71715 -8.94971
171 1 6.28271 9.42798 9.43476 -8.969
63 1 20.4415 1.57225 4.71712 -8.94954
64 1 22.0135 3.14446 3.14444 -8.94958
65 1 1.57103 4.71639 4.71634 -8.94969
66 1 3.14353 3.14377 3.14354 -8.94842
67 1 4.71335 4.71355 4.71348 -8.94537
68 1 6.28896 3.14356 3.14353 -8.94967
69 1 7.86076 4.71366 4.71463 -8.94944
70 1 9.43442 3.14354 3.14364 -8.94934
71 1 11.0075 4.71381 4.71469 -8.94796
72 1 12.5798 3.14343 3.14374 -8.94917
73 1 14.1547 4.71252 4.71449 -8.95004
74 1 15.7254 3.14312 3.14371 -8.94946
75 1 17.2979 4.71602 4.71681 -8.9504
76 1 18.8695 3.1443 3.14454 -8.94983
77 1 20.4416 4.71677 4.717 -8.94984
78 1 22.014 6.28936 3.14433 -8.94983
79 1 1.57171 7.86201 4.71665 -8.94997
80 1 3.14365 6.2892 3.14368 -8.95016
81 1 4.71453 7.86141 4.71527 -8.95102
82 1 6.28668 6.28683 3.14034 -8.94936
83 1 7.85536 7.85466 4.70681 -8.95054
84 1 9.43385 6.28705 3.14155 -8.94769
85 1 11.008 7.8561 4.70803 -8.94955
86 1 12.5807 6.28673 3.14111 -8.9489
87 1 14.1651 7.84951 4.70421 -8.92905
88 1 15.7286 6.28535 3.14061 -8.94436
89 1 17.3014 7.85955 4.7147 -8.95032
90 1 18.8708 6.28854 3.14375 -8.94952
91 1 20.4426 7.86154 4.71659 -8.95015
92 1 0.00013832 9.43439 3.14422 -8.94953
93 1 3.14402 9.43444 3.1439 -8.94894
94 1 6.28903 9.43487 3.1436 -8.94917
95 1 9.43507 9.43401 3.14241 -8.95289
96 1 12.5824 9.43286 3.13646 -8.95946
97 1 15.7281 9.43312 3.14091 -8.94818
98 1 18.8708 9.43413 3.14366 -8.9494
170 1 3.14263 9.43474 9.43451 -8.95091
100 1 1.57176 1.5721 7.86195 -8.94952
101 1 3.14398 0.000176263 6.28924 -8.9494
102 1 4.71603 1.57146 7.86168 -8.9494
169 1 22.0137 9.43442 9.43448 -8.94939
104 1 7.86175 1.57116 7.86183 -8.95134
105 1 9.43475 0.000390328 6.28908 -8.95029
106 1 11.0071 1.57202 7.86208 -8.94941
107 1 12.5797 0.00021364 6.28945 -8.95035
108 1 14.1523 1.57216 7.8621 -8.94944
168 1 18.87 6.28863 9.43444 -8.94949
110 1 17.2971 1.5721 7.86205 -8.94956
111 1 18.8693 5.8618e-05 6.28959 -8.94957
112 1 20.4415 1.57221 7.86204 -8.94957
113 1 -0.000446204 3.14438 6.28944 -8.94947
114 1 1.5709 4.71624 7.86173 -8.94932
115 1 3.14341 3.14365 6.28892 -8.94923
116 1 4.71364 4.71381 7.86079 -8.94775
117 1 6.28791 3.14152 6.28807 -8.95133
118 1 7.85914 4.70961 7.86079 -8.95822
119 1 9.43468 3.14217 6.28858 -8.95069
120 1 11.0066 4.71543 7.86188 -8.95116
121 1 12.5799 3.14252 6.28922 -8.95241
122 1 14.1524 4.71614 7.86273 -8.94923
123 1 15.7248 3.14401 6.28977 -8.94969
124 1 17.2976 4.71615 7.86202 -8.94891
125 1 18.8694 3.14435 6.28958 -8.94941
126 1 20.4415 4.71663 7.86197 -8.94954
127 1 22.0132 6.28916 6.28931 -8.95011
128 1 1.57027 7.86168 7.86182 -8.95142
129 1 3.14097 6.28778 6.28785 -8.95075
130 1 4.70824 7.85858 7.86 -8.95702
131 1 6.27812 6.27824 6.27913 -8.93355
132 1 7.82681 7.82844 7.83388 -8.87329
133 1 9.43365 6.28072 6.28482 -8.95214
134 1 11.02 7.85518 7.84004 -8.91295
135 1 12.5853 6.27894 6.2832 -8.95437
136 1 14.1552 7.86036 7.86441 -8.95412
137 1 15.7267 6.28754 6.28939 -8.95185
138 1 17.2985 7.86105 7.86265 -8.94988
139 1 18.87 6.28893 6.28963 -8.94987
140 1 20.4418 7.8616 7.86206 -8.94978
141 1 22.0141 9.4344 6.28925 -8.95001
142 1 3.14325 9.435 6.28908 -8.9504
143 1 6.28492 9.43462 6.2875 -8.95185
144 1 9.4186 9.40831 6.27777 -8.89799
145 1 12.6207 9.39901 6.25161 -8.84983
146 1 15.7358 9.43042 6.28443 -8.9565
147 1 18.8723 9.4337 6.28878 -8.95155
148 1 -0.00029785 6.79124e-05 9.43453 -8.94957
167 1 15.7262 6.28743 9.43427 -8.94592
150 1 6.28873 0.000424733 9.43451 -8.9503
151 1 9.43461 0.000711286 9.43437 -8.94879
152 1 12.5799 0.00056007 9.43437 -8.94927
153 1 15.7248 0.000127873 9.4345 -8.94966
166 1 12.5774 6.29194 9.43427 -8.94398
155 1 22.0134 3.14434 9.43452 -8.94953
156 1 3.14332 3.1436 9.43452 -8.94948
181 1 17.2971 1.57208 11.007 -8.94956
344 1 1.57215 11.0069 1.57189 -8.94956
177 1 4.71604 1.57145 11.0074 -8.9494
184 1 4.71364 4.7138 11.0082 -8.94782
45 1 6.28928 9.43458 -0.000409138 -8.94945
41 1 18.8697 6.28926 -0.000364757 -8.94952
19 1 6.28942 3.14441 -0.000416135 -8.9495
25 1 15.7246 3.14426 -0.000377986 -8.94962
176 1 1.57176 1.57209 11.0071 -8.94952
254 1 12.5797 6.32445e-06 15.7249 -8.94947
178 1 7.86176 1.57109 11.0071 -8.95125
179 1 11.0071 1.57208 11.0068 -8.94988
180 1 14.1523 1.57207 11.0068 -8.94938
644 1 20.4418 11.0069 20.4415 -8.94956
182 1 20.4415 1.57221 11.007 -8.94957
643 1 17.2975 11.007 20.4416 -8.94948
252 1 9.43456 3.72364e-05 15.725 -8.94949
185 1 7.8591 4.70958 11.008 -8.95799
186 1 11.0066 4.71491 11.007 -8.95175
187 1 14.1525 4.71597 11.006 -8.94907
642 1 14.1526 11.007 20.4417 -8.95042
641 1 11.0067 11.0069 20.4416 -8.94848
190 1 1.57024 7.86165 11.0072 -8.95147
191 1 4.70803 7.85844 11.0089 -8.9567
192 1 7.82671 7.82876 11.0339 -8.87144
193 1 11.0198 7.85291 11.0287 -8.92681
194 1 14.156 7.86004 11.0036 -8.95171
195 1 17.2988 7.8609 11.0062 -8.94968
196 1 20.4419 7.86157 11.0069 -8.94983
343 1 18.8698 9.43435 18.8696 -8.9495
198 1 1.57182 1.57212 14.1522 -8.9495
342 1 15.7255 9.43405 18.8706 -8.94945
200 1 4.71625 1.57151 14.1528 -8.94998
201 1 6.28904 0.000349422 12.58 -8.95062
202 1 7.86181 1.5715 14.1527 -8.94981
341 1 12.5796 9.43431 18.871 -8.95159
204 1 11.0073 1.57145 14.1527 -8.9496
340 1 9.43436 9.43454 18.8699 -8.94967
206 1 14.1525 1.57139 14.1524 -8.95071
207 1 15.7247 0.000101148 12.5794 -8.94958
208 1 17.297 1.57209 14.1519 -8.94974
339 1 6.28918 9.43453 18.8697 -8.94939
210 1 20.4415 1.57224 14.1519 -8.94954
211 1 -0.000438494 3.14437 12.5796 -8.94947
212 1 1.57103 4.71636 14.1527 -8.94966
213 1 3.1434 3.14363 12.5801 -8.94924
214 1 4.71333 4.71356 14.1555 -8.94546
215 1 6.2879 3.14149 12.5809 -8.95123
216 1 7.86048 4.71322 14.1546 -8.94968
217 1 9.43459 3.14193 12.5805 -8.95093
218 1 11.0074 4.71341 14.1545 -8.94787
219 1 12.58 3.14222 12.5798 -8.95272
220 1 14.155 4.71187 14.1548 -8.95043
221 1 15.7248 3.1439 12.5792 -8.94964
222 1 17.298 4.7159 14.1522 -8.95044
223 1 18.8694 3.14432 12.5794 -8.94942
224 1 20.4416 4.71673 14.152 -8.94982
225 1 22.0132 6.28913 12.5797 -8.95012
226 1 1.5717 7.862 14.1524 -8.95004
227 1 3.14091 6.28774 12.5812 -8.95062
228 1 4.71428 7.86142 14.1537 -8.95171
229 1 6.27809 6.27837 12.5896 -8.93362
230 1 7.85352 7.85294 14.1636 -8.94761
231 1 9.43312 6.27958 12.5843 -8.9531
232 1 11.008 7.85506 14.1615 -8.9495
233 1 12.5859 6.2775 12.5861 -8.95576
234 1 14.1679 7.84688 14.1672 -8.92423
235 1 15.727 6.28732 12.5794 -8.95171
236 1 17.3021 7.85928 14.1545 -8.95088
237 1 18.8701 6.28886 12.5794 -8.9498
238 1 20.4428 7.86149 14.1525 -8.95024
239 1 22.0142 9.4344 12.5797 -8.95005
240 1 3.14317 9.43507 12.5798 -8.95058
241 1 6.2844 9.43531 12.5807 -8.95541
242 1 9.4109 9.40315 12.5951 -8.92895
243 1 12.6306 9.3922 12.6235 -8.86216
244 1 15.7377 9.43049 12.5845 -8.95927
245 1 18.8726 9.43371 12.5801 -8.9519
246 1 -0.00024397 5.16459e-05 15.7244 -8.94957
247 1 1.57196 1.57219 17.2971 -8.94925
248 1 3.14413 0.000139469 15.7249 -8.94955
249 1 4.71682 1.57207 17.2973 -8.9496
338 1 3.14443 9.43445 18.8695 -8.94953
251 1 7.86195 1.57202 17.2973 -8.94946
337 1 22.014 9.43445 18.8694 -8.94956
253 1 11.007 1.57198 17.2973 -8.94951
336 1 20.4418 7.86196 20.4415 -8.94956
255 1 14.1521 1.57194 17.2972 -8.94947
335 1 18.8698 6.2892 18.8696 -8.94947
257 1 17.2972 1.57191 17.2972 -8.94946
258 1 18.8693 4.28794e-05 15.7244 -8.94972
259 1 20.4415 1.57222 17.2968 -8.94961
260 1 22.0135 3.14444 15.7246 -8.94957
261 1 1.57204 4.71694 17.2972 -8.9498
262 1 3.14353 3.14375 15.7255 -8.94847
263 1 4.71594 4.71604 17.2984 -8.94913
264 1 6.28883 3.14343 15.7256 -8.9497
265 1 7.86159 4.71613 17.2981 -8.94912
266 1 9.43438 3.14341 15.7255 -8.94929
267 1 11.007 4.71595 17.2981 -8.94934
268 1 12.5798 3.14327 15.7254 -8.94912
269 1 14.1526 4.71575 17.2982 -8.94956
270 1 15.7256 3.14289 15.7255 -8.94951
271 1 17.2983 4.71559 17.2981 -8.94788
272 1 18.8695 3.14425 15.7245 -8.94986
273 1 20.442 4.71675 17.2971 -8.94953
274 1 22.014 6.28933 15.7247 -8.94988
275 1 1.57216 7.86197 17.2972 -8.94941
276 1 3.14356 6.28915 15.7254 -8.95031
277 1 4.71655 7.86207 17.2976 -8.94951
278 1 6.28616 6.28632 15.7291 -8.94862
279 1 7.86142 7.86148 17.2993 -8.95261
280 1 9.43373 6.28676 15.7277 -8.94748
281 1 11.0068 7.86064 17.2998 -8.95041
282 1 12.5808 6.28632 15.7283 -8.94865
283 1 14.1539 7.86008 17.301 -8.952
284 1 15.7294 6.2845 15.7292 -8.94319
285 1 17.2985 7.86106 17.2984 -8.94905
286 1 18.871 6.28839 15.7254 -8.94963
287 1 20.4421 7.86178 17.2973 -8.94946
288 1 0.000199947 9.43434 15.7249 -8.94958
289 1 3.14384 9.43438 15.7253 -8.94894
290 1 6.28847 9.43459 15.7258 -8.94836
291 1 9.43475 9.43374 15.7272 -8.95381
292 1 12.5829 9.43246 15.7337 -8.96062
293 1 15.7291 9.43251 15.7291 -8.94691
294 1 18.8712 9.43398 15.7256 -8.94932
49 1 18.8697 9.43438 22.0135 -8.94952
296 1 1.57221 1.57225 20.4415 -8.9494
334 1 17.2975 7.86167 20.4416 -8.94944
298 1 4.71709 1.57225 20.4415 -8.94958
299 1 6.28955 2.499e-05 18.8693 -8.94956
300 1 7.86201 1.57221 20.4415 -8.94955
333 1 15.7253 6.28853 18.8704 -8.95009
302 1 11.007 1.57218 20.4415 -8.94956
332 1 14.1523 7.86153 20.4416 -8.95074
304 1 14.1519 1.57219 20.4415 -8.94954
305 1 15.7244 -3.54675e-06 18.8693 -8.94958
306 1 17.2969 1.57219 20.4415 -8.94962
331 1 12.5795 6.28874 18.8703 -8.94963
308 1 20.4416 1.57228 20.4415 -8.94928
309 1 22.0139 3.14463 18.8693 -8.94957
310 1 1.5723 4.71716 20.4415 -8.94969
311 1 3.14434 3.14439 18.8696 -8.9494
312 1 4.7168 4.71686 20.4415 -8.94999
313 1 6.2894 3.14438 18.8695 -8.94951
314 1 7.8618 4.71671 20.4415 -8.94949
315 1 9.43442 3.14428 18.8695 -8.94951
316 1 11.0069 4.71659 20.4415 -8.94953
317 1 12.5795 3.14425 18.8695 -8.94948
318 1 14.152 4.71658 20.4415 -8.94957
319 1 15.7246 3.14422 18.8695 -8.94963
320 1 17.2973 4.71655 20.4416 -8.94955
321 1 18.8696 3.14431 18.8694 -8.94909
322 1 20.4418 4.71704 20.4415 -8.94955
323 1 22.014 6.28953 18.8693 -8.94952
324 1 1.57227 7.86203 20.4415 -8.94954
325 1 3.14451 6.28959 18.8694 -8.94969
326 1 4.7169 7.86209 20.4415 -8.94954
327 1 6.28907 6.2892 18.8701 -8.95064
328 1 7.86183 7.862 20.4416 -8.95043
329 1 9.43415 6.28884 18.8701 -8.94955
330 1 11.0067 7.86161 20.4416 -8.95026
512 1 1.57219 11.0069 11.0072 -8.94789
513 1 4.71935 11.0074 11.0061 -8.94159
515 1 11.0871 10.9688 11.2805 -8.34208
517 1 17.3019 11.0059 11.0074 -8.94983
518 1 20.443 11.0067 11.007 -8.94961
540 1 1.57167 11.0068 14.1527 -8.94963
541 1 4.71489 11.0066 14.1539 -8.94655
542 1 7.86139 11.0061 14.1529 -8.94361
544 1 14.1654 11.0059 14.1648 -8.93977
545 1 17.3023 11.0068 14.1549 -8.9493
546 1 20.4429 11.0069 14.1526 -8.95004
47 1 12.5796 9.43435 22.0123 -8.95148
591 1 7.86158 11.0068 17.2977 -8.94887
592 1 11.0071 11.0067 17.298 -8.94607
593 1 14.1545 11.0069 17.3013 -8.94999
46 1 9.43439 9.43458 22.0133 -8.94967
638 1 1.57225 11.0069 20.4415 -8.94958
639 1 4.7168 11.0069 20.4415 -8.94964
640 1 7.86173 11.0069 20.4416 -8.9494
3 1 3.1446 5.03783e-05 22.0137 -8.94961
39 1 15.7252 6.28863 22.0128 -8.95003
9 1 12.5795 3.35585e-05 22.0136 -8.94955
33 1 6.28913 6.28925 22.013 -8.95059
13 1 18.8693 1.16447e-05 22.0137 -8.94944
15 1 22.0139 3.14465 22.0137 -8.94955
17 1 3.14438 3.14442 22.0135 -8.94946
31 1 3.14454 6.28962 22.0136 -8.94971
23 1 12.5795 3.14428 22.0135 -8.94949
29 1 22.014 6.28955 22.0137 -8.94954
27 1 18.8696 3.14436 22.0136 -8.94918
21 1 9.43443 3.14431 22.0135 -8.94952
43 1 22.014 9.43446 22.0137 -8.94956
539 1 20.4415 20.4418 11.007 -8.94957
688 3 10.257 11.0504 9.45271 2.21757
346 1 7.86182 11.0069 1.57181 -8.94862
347 1 11.0072 11.0069 1.57148 -8.94637
348 1 14.1541 11.007 1.5687 -8.94969
687 2 10.9332 12.4719 10.2014 0.365442
529 1 11.0062 17.3065 11.0068 -8.96125
154 1 18.8693 22.014 9.43452 -8.94959
352 1 1.57214 14.1518 1.57192 -8.94942
353 1 3.14445 12.5793 -0.000332748 -8.94955
354 1 4.71663 14.1516 1.57143 -8.94954
149 1 3.14393 22.0141 9.43453 -8.94947
356 1 7.86163 14.1521 1.56963 -8.95302
393 1 1.57174 11.0068 4.71636 -8.94947
358 1 11.0068 14.1528 1.56954 -8.95063
399 1 20.4426 11.0069 4.71647 -8.94988
360 1 14.1535 14.1533 1.56891 -8.9516
361 1 15.7254 12.5798 -0.00107838 -8.9494
362 1 17.2981 14.1526 1.5711 -8.94923
363 1 18.8697 12.5795 -0.000377261 -8.94952
364 1 20.442 14.152 1.5719 -8.94946
109 1 15.7247 22.0141 6.28956 -8.94952
366 1 1.57198 17.2969 1.57183 -8.94984
103 1 6.28899 22.0144 6.28896 -8.95063
368 1 4.71588 17.2979 1.57038 -8.9495
369 1 6.28911 15.7246 -0.00114352 -8.95082
370 1 7.86165 17.2978 1.57067 -8.9492
99 1 22.0136 22.014 6.28954 -8.94956
372 1 11.0071 17.2979 1.57081 -8.94935
62 1 18.8692 22.014 3.1447 -8.94968
374 1 14.1525 17.2979 1.57098 -8.94966
375 1 15.7252 15.7252 -0.00104185 -8.95009
376 1 17.298 17.298 1.57117 -8.94837
58 1 12.5797 22.014 3.14419 -8.9495
378 1 20.4419 17.2971 1.57197 -8.94959
1 1 22.0138 22.0139 -0.000148278 -8.94929
380 1 1.57188 20.4419 1.57187 -8.94908
381 1 3.14429 18.8696 -0.000546106 -8.94948
382 1 4.71683 20.442 1.57172 -8.94961
56 1 9.43458 22.014 3.14408 -8.94953
384 1 7.86198 20.442 1.57173 -8.94947
385 1 9.43447 18.8697 -0.000528135 -8.94952
386 1 11.0071 20.442 1.57176 -8.94951
387 1 12.5795 18.8697 -0.000484522 -8.94948
388 1 14.1521 20.442 1.57187 -8.94945
52 1 3.14412 22.0141 3.14411 -8.94951
390 1 17.2971 20.442 1.57193 -8.94949
391 1 18.8695 18.8695 -0.000283136 -8.94922
392 1 20.4415 20.4417 1.57219 -8.94956
511 1 18.8695 18.8697 9.43451 -8.94958
510 1 15.7251 18.8702 9.43449 -8.94957
395 1 7.86342 11.0066 4.71752 -8.9471
396 1 11.012 11.0066 4.72053 -9.00544
397 1 14.1619 11.0071 4.70726 -8.94471
509 1 12.5803 18.8711 9.43375 -8.94751
508 1 9.43363 18.8723 9.43378 -8.94562
400 1 0.000100164 12.5794 3.1442 -8.94955
401 1 1.57151 14.1518 4.71654 -8.94974
402 1 3.14394 12.5792 3.14381 -8.94903
403 1 4.71431 14.152 4.71493 -8.95108
404 1 6.28882 12.5786 3.14332 -8.94867
405 1 7.85516 14.1592 4.70414 -8.95559
406 1 9.43507 12.5793 3.14265 -8.95169
407 1 11.0076 14.1568 4.70792 -8.95202
408 1 12.5823 12.5806 3.13748 -8.95792
409 1 14.1641 14.1632 4.70508 -8.93239
410 1 15.728 12.5807 3.14124 -8.94739
411 1 17.3008 14.1538 4.71506 -8.95112
412 1 18.8707 12.5797 3.1437 -8.94928
413 1 20.4424 14.1522 4.71663 -8.95013
414 1 22.0139 15.7245 3.1443 -8.94981
415 1 1.57062 17.2978 4.71604 -8.94981
416 1 3.1435 15.7246 3.14351 -8.9503
417 1 4.71188 17.3018 4.71196 -8.94298
418 1 6.2863 15.7274 3.1392 -8.95024
419 1 7.86037 17.3013 4.71334 -8.94869
420 1 9.43408 15.727 3.14067 -8.94815
421 1 11.0078 17.3006 4.7139 -8.94671
422 1 12.5807 15.7269 3.14104 -8.94933
423 1 14.1549 17.3014 4.71414 -8.94974
424 1 15.7283 15.7282 3.14073 -8.94516
425 1 17.2981 17.298 4.7165 -8.94993
426 1 18.8706 15.7252 3.1438 -8.94977
427 1 20.4416 17.2973 4.7168 -8.94977
428 1 22.0134 18.8696 3.14431 -8.94952
429 1 1.57172 20.442 4.7168 -8.94951
430 1 3.14314 18.8706 3.14312 -8.94782
431 1 4.716 20.443 4.71597 -8.94993
432 1 6.28877 18.8708 3.1431 -8.94954
433 1 7.86187 20.443 4.71613 -8.94972
434 1 9.4345 18.8706 3.14331 -8.94928
435 1 11.0074 20.4428 4.71622 -8.94956
436 1 12.5799 18.8706 3.14352 -8.94895
437 1 14.1524 20.4426 4.71667 -8.95063
438 1 15.7255 18.8708 3.1436 -8.94942
439 1 17.2971 20.442 4.71707 -8.94965
440 1 18.8695 18.8697 3.14444 -8.94973
441 1 20.4414 20.4418 4.71709 -8.94955
507 1 6.28668 18.8739 9.43451 -8.94951
506 1 3.14297 18.8707 9.43454 -8.94939
444 1 7.87833 10.9999 7.86331 -8.95516
505 1 22.0133 18.8697 9.43452 -8.94952
446 1 14.1634 11.0014 7.85037 -9.00247
504 1 18.8703 15.7253 9.43445 -8.94925
503 1 15.7269 15.7262 9.43435 -8.94651
449 1 22.0139 12.5793 6.28922 -8.94988
450 1 1.56991 14.1522 7.86175 -8.95213
451 1 3.14295 12.5787 6.28878 -8.94981
452 1 4.7059 14.156 7.85927 -8.96052
453 1 6.28483 12.5772 6.28729 -8.95199
454 1 7.81401 14.2004 7.8169 -8.85528
455 1 9.41779 12.6034 6.28005 -8.95541
456 1 11.0176 14.1622 7.83469 -8.95596
457 1 12.6176 12.6127 6.25702 -8.90289
458 1 14.158 14.157 7.86166 -8.97558
459 1 15.7342 12.5818 6.28634 -8.95846
460 1 17.3004 14.1535 7.86153 -8.94837
461 1 18.8719 12.5796 6.28905 -8.95121
462 1 20.4422 14.1523 7.86185 -8.95008
463 1 22.0131 15.7248 6.28914 -8.95036
464 1 1.57053 17.2979 7.86166 -8.94927
465 1 3.13981 15.7266 6.28726 -8.9516
466 1 4.71253 17.3012 7.86042 -8.94732
467 1 6.27329 15.7403 6.27408 -8.92338
468 1 7.8576 17.3083 7.85917 -8.96055
469 1 9.43345 15.736 6.28129 -8.94797
470 1 11.006 17.2998 7.86148 -8.95169
471 1 12.5855 15.7355 6.28209 -8.95364
472 1 14.1531 17.2991 7.86193 -8.94923
473 1 15.7276 15.727 6.28838 -8.9501
474 1 17.2978 17.2979 7.86193 -8.94937
475 1 18.8704 15.7252 6.28917 -8.94954
476 1 20.4415 17.2974 7.86192 -8.94955
477 1 -0.000551984 18.8697 6.28938 -8.94946
478 1 1.57166 20.442 7.86194 -8.9495
479 1 3.14301 18.8707 6.28872 -8.94917
480 1 4.71582 20.4431 7.86161 -8.94937
481 1 6.28714 18.874 6.28725 -8.9516
482 1 7.86148 20.4442 7.86156 -8.95168
483 1 9.43472 18.8729 6.28789 -8.95087
484 1 11.0072 20.4428 7.86196 -8.94924
485 1 12.5799 18.8718 6.28894 -8.95262
486 1 14.1525 20.4425 7.86187 -8.94937
487 1 15.7251 18.8704 6.28945 -8.9495
488 1 17.2971 20.442 7.86203 -8.94962
489 1 18.8694 18.8697 6.28951 -8.94954
490 1 20.4415 20.4418 7.86203 -8.94957
491 1 22.0139 12.5793 9.43448 -8.9497
492 1 3.14293 12.5791 9.43446 -8.94943
493 1 6.28633 12.5883 9.43409 -8.98685
494 1 9.28995 12.8107 9.41294 -8.35057
495 1 12.6162 12.5726 9.41225 -9.11732
496 1 15.7345 12.5787 9.43366 -8.95862
497 1 18.8722 12.5797 9.43437 -8.95105
498 1 -0.000979433 15.725 9.4345 -8.94998
499 1 3.13984 15.7269 9.43451 -8.94912
500 1 6.27726 15.7364 9.43453 -8.94223
501 1 9.42563 15.7251 9.43178 -9.05477
502 1 12.5788 15.725 9.43145 -8.99544
526 1 1.57056 17.2979 11.0074 -8.94924
11 1 15.7244 22.0139 -0.000205882 -8.94956
5 1 6.28955 22.0139 -0.000263412 -8.94954
527 1 4.71269 17.3011 11.0086 -8.94696
532 1 20.4415 17.2974 11.0071 -8.94952
534 1 4.71585 20.443 11.0074 -8.9493
538 1 17.2971 20.442 11.007 -8.94954
365 1 22.014 15.7243 -0.000197614 -8.94953
686 1 20.4416 20.4416 20.4415 -8.94932
685 1 18.8696 18.8696 18.8694 -8.94915
514 1 7.8811 11.0044 11.003 -8.96264
684 1 17.2969 20.4417 20.4415 -8.94965
516 1 14.1648 11.0046 11.018 -9.0229
683 1 15.7245 18.8696 18.8695 -8.94974
682 1 14.1519 20.4417 20.4415 -8.94954
519 1 1.56999 14.1522 11.0072 -8.95197
520 1 4.70633 14.1559 11.0094 -8.95965
521 1 7.81686 14.1956 11.048 -8.88743
522 1 11.0198 14.1917 11.0378 -9.14991
523 1 14.1602 14.1553 11.0071 -8.99841
524 1 17.3008 14.1534 11.0071 -8.9488
525 1 20.4423 14.1523 11.0071 -8.95008
594 1 17.2985 11.0069 17.2984 -8.94938
590 1 4.71643 11.0068 17.2977 -8.94953
528 1 7.85844 17.3071 11.0087 -8.96033
307 1 18.8693 22.0139 18.8693 -8.94942
530 1 14.1524 17.2983 11.0061 -8.9502
531 1 17.2977 17.2979 11.007 -8.94903
295 1 22.0138 22.0139 18.8692 -8.94931
533 1 1.57167 20.442 11.0071 -8.94949
377 1 18.8697 15.7246 22.0136 -8.94952
535 1 7.86166 20.444 11.0072 -8.95151
536 1 11.0072 20.4439 11.007 -8.95172
537 1 14.1523 20.4423 11.0069 -8.94932
373 1 12.5795 15.725 22.0128 -8.94966
303 1 12.5795 22.0139 18.8693 -8.94955
681 1 12.5795 18.8696 18.8695 -8.94949
680 1 11.007 20.4418 20.4415 -8.94956
679 1 9.43449 18.8696 18.8695 -8.94953
543 1 11.0123 11.006 14.1495 -9.05857
678 1 7.86202 20.4417 20.4415 -8.94956
677 1 6.28944 18.8695 18.8696 -8.94961
676 1 4.71708 20.4417 20.4415 -8.9496
547 1 22.0141 12.5793 12.5798 -8.95003
548 1 1.57149 14.1518 14.1525 -8.94988
549 1 3.14282 12.5787 12.5801 -8.95017
550 1 4.71396 14.1521 14.1541 -8.9515
551 1 6.28396 12.5772 12.5815 -8.95341
552 1 7.85345 14.16 14.1655 -8.95214
553 1 9.4117 12.6042 12.5955 -8.93223
554 1 11.0077 14.1538 14.1556 -8.99233
555 1 12.6286 12.6134 12.623 -8.89395
556 1 14.1671 14.165 14.1664 -8.92716
557 1 15.7374 12.5819 12.5838 -8.959
558 1 17.3018 14.1541 14.1544 -8.95122
559 1 18.8725 12.5797 12.58 -8.95186
560 1 20.4427 14.1522 14.1525 -8.95028
561 1 22.0131 15.7248 12.5799 -8.95031
562 1 1.57071 17.2977 14.1529 -8.94978
563 1 3.14 15.7265 12.5816 -8.95144
564 1 4.71216 17.3014 14.1567 -8.94362
565 1 6.27418 15.7391 12.5935 -8.92652
566 1 7.86037 17.301 14.1552 -8.94928
567 1 9.43197 15.7336 12.5847 -8.98147
568 1 11.0078 17.2993 14.1534 -8.94835
569 1 12.5869 15.733 12.5844 -8.97963
570 1 14.1549 17.3014 14.1546 -8.95057
571 1 15.7281 15.727 12.5804 -8.95034
572 1 17.2982 17.2981 14.1525 -8.94993
573 1 18.8706 15.7253 12.5798 -8.9496
574 1 20.4417 17.2973 14.1522 -8.94976
575 1 -0.00053158 18.8697 12.5797 -8.94945
576 1 1.57174 20.442 14.1522 -8.9495
577 1 3.14307 18.8706 12.5803 -8.94913
578 1 4.71605 20.4429 14.153 -8.95004
579 1 6.28735 18.8736 12.5814 -8.95192
580 1 7.86166 20.443 14.153 -8.94947
581 1 9.43406 18.8733 12.5814 -8.94905
582 1 11.0073 20.4426 14.1527 -8.9492
583 1 12.5805 18.8723 12.5804 -8.95058
584 1 14.1526 20.4428 14.1525 -8.9504
585 1 15.725 18.8702 12.5793 -8.95003
586 1 17.2971 20.4419 14.1519 -8.94979
587 1 18.8694 18.8697 12.5795 -8.94951
588 1 20.4415 20.4418 14.152 -8.94956
589 1 1.57212 11.0069 17.2972 -8.94955
675 1 3.14429 18.8696 18.8696 -8.94944
674 1 1.57217 20.4417 20.4415 -8.9494
673 1 22.0139 18.8693 18.8693 -8.94959
672 1 20.4417 17.2969 20.4415 -8.94957
671 1 18.8697 15.7247 18.8696 -8.94949
595 1 20.4421 11.0069 17.2973 -8.9495
596 1 0.000164944 12.5795 15.7249 -8.94958
597 1 1.57212 14.1519 17.2972 -8.94941
598 1 3.14378 12.5793 15.7253 -8.949
599 1 4.71651 14.1517 17.2977 -8.94949
600 1 6.28836 12.5787 15.7261 -8.94817
601 1 7.86145 14.1523 17.2996 -8.9532
602 1 9.43493 12.5794 15.7273 -8.95409
603 1 11.0068 14.1529 17.2988 -8.94864
604 1 12.5827 12.5807 15.7334 -8.96104
605 1 14.1538 14.1536 17.3008 -8.95199
606 1 15.7289 12.5809 15.7288 -8.94679
607 1 17.2984 14.1527 17.2983 -8.94912
608 1 18.8711 12.5798 15.7256 -8.94922
609 1 20.4421 14.1521 17.2973 -8.94944
610 1 22.0139 15.7245 15.7248 -8.94985
611 1 1.57198 17.297 17.2973 -8.94982
612 1 3.14341 15.7247 15.7256 -8.95031
613 1 4.71583 17.298 17.2987 -8.94925
614 1 6.28599 15.7277 15.7299 -8.94919
615 1 7.86182 17.2976 17.2981 -8.94954
616 1 9.43458 15.7262 15.727 -8.94889
617 1 11.0071 17.2977 17.2978 -8.94918
618 1 12.5801 15.7262 15.7269 -8.95
619 1 14.1523 17.2978 17.2979 -8.94998
620 1 15.729 15.7289 15.729 -8.94373
621 1 17.2982 17.2982 17.2981 -8.94802
622 1 18.8709 15.7254 15.7254 -8.94972
623 1 20.442 17.2971 17.2972 -8.94955
624 1 22.0135 18.8696 15.7247 -8.94954
625 1 1.57189 20.4419 17.2972 -8.94913
626 1 3.14321 18.8705 15.7259 -8.94799
627 1 4.7168 20.442 17.2973 -8.94961
628 1 6.28877 18.8708 15.7259 -8.94961
629 1 7.86201 20.4419 17.2973 -8.94956
630 1 9.43464 18.8703 15.7255 -8.94963
631 1 11.007 20.4419 17.2973 -8.94952
632 1 12.5798 18.8703 15.7253 -8.94929
633 1 14.152 20.4419 17.2972 -8.94955
634 1 15.7255 18.8709 15.7255 -8.94955
635 1 17.2972 20.442 17.2972 -8.9495
636 1 18.8696 18.8697 15.7246 -8.94975
637 1 20.4415 20.4417 17.2969 -8.94958
670 1 17.2973 17.2973 20.4416 -8.94957
669 1 15.7252 15.7253 18.8704 -8.95007
668 1 14.152 17.2972 20.4415 -8.9496
667 1 12.5794 15.725 18.87 -8.94949
666 1 11.0069 17.2973 20.4414 -8.94956
665 1 9.43432 15.7249 18.8699 -8.94953
664 1 7.86187 17.2972 20.4414 -8.94957
645 1 22.014 12.5794 18.8694 -8.94956
646 1 1.57226 14.1518 20.4415 -8.94955
647 1 3.14442 12.5794 18.8695 -8.94955
648 1 4.71687 14.1518 20.4415 -8.94952
649 1 6.28916 12.5792 18.8697 -8.9494
650 1 7.86187 14.1518 20.4415 -8.95063
651 1 9.43447 12.5793 18.8699 -8.94981
652 1 11.0067 14.1522 20.4414 -8.94998
653 1 12.5795 12.5795 18.8709 -8.95167
654 1 14.1522 14.1523 20.4416 -8.95071
655 1 15.7255 12.5798 18.8706 -8.94938
656 1 17.2974 14.1522 20.4416 -8.9494
657 1 18.8698 12.5795 18.8696 -8.94949
658 1 20.4418 14.1519 20.4415 -8.94955
659 1 22.014 15.7244 18.8693 -8.94952
660 1 1.57227 17.2967 20.4415 -8.94969
661 1 3.14447 15.7243 18.8695 -8.94968
662 1 4.71675 17.2971 20.4415 -8.95007
663 1 6.28905 15.7247 18.8703 -8.95078
197 1 22.0136 22.014 12.5795 -8.94956
199 1 3.14399 22.0141 12.5798 -8.94938
203 1 9.43461 22.0144 12.58 -8.95031
205 1 12.5798 22.0143 12.5797 -8.95038
209 1 18.8693 22.014 12.5794 -8.94955
250 1 6.28929 22.0141 15.725 -8.94956
389 1 15.7246 18.8696 22.0135 -8.94965
383 1 6.28941 18.8696 22.0134 -8.94952
256 1 15.7248 22.014 15.7248 -8.94997
297 1 3.14458 22.0139 18.8693 -8.94959
301 1 9.4345 22.0139 18.8694 -8.94955
351 1 22.014 12.5794 22.0137 -8.94957
355 1 6.28923 12.5792 22.0134 -8.94944
371 1 9.43427 15.725 22.0127 -8.94972
367 1 3.14449 15.7242 22.0135 -8.94968
357 1 9.43443 12.5792 22.0132 -8.94948
359 1 12.5796 12.5795 22.0124 -8.95115
379 1 22.0139 18.8693 22.0137 -8.94961
