ITEM: TIMESTEP
54
ITEM: NUMBER OF ATOMS
688
ITEM: BOX BOUNDS pp pp pp
0.0000000000000000e+00 2.2013900999999997e+01
0.0000000000000000e+00 2.2013900999999997e+01
0.0000000000000000e+00 2.2013900999999997e+01
ITEM: ATOMS id type x y z c_pot
189 1 20.4415 4.71726 11.007 -8.94963
2 1 1.57242 1.57242 1.57242 -8.94962
448 1 20.4416 11.0069 7.86208 -8.94993
4 1 4.71727 1.57242 1.57242 -8.94966
447 1 17.2983 11.0066 7.86187 -8.951
6 1 7.86211 1.57242 1.57242 -8.94963
7 1 9.43453 1.14685e-08 5.24643e-08 -8.94963
8 1 11.007 1.57242 1.57242 -8.94964
445 1 11.0867 10.9985 7.65322 -8.12915
10 1 14.1518 1.57242 1.57242 -8.94964
443 1 4.71634 11.0068 7.86125 -8.94481
12 1 17.2966 1.57242 1.57242 -8.94962
442 1 1.57221 11.0069 7.862 -8.94944
14 1 20.4415 1.57242 1.57242 -8.94963
188 1 17.2967 4.71724 11.007 -8.9496
16 1 1.57242 4.71726 1.57242 -8.94965
398 1 17.297 11.007 4.71709 -8.94953
18 1 4.71723 4.71723 1.57237 -8.94959
394 1 4.71701 11.007 4.71692 -8.94856
20 1 7.86211 4.71724 1.5724 -8.9496
50 1 1.16563e-07 1.51038e-08 3.14484 -8.94964
22 1 11.007 4.71724 1.57239 -8.94966
183 1 1.5724 4.71725 11.007 -8.9496
24 1 14.1518 4.71726 1.57241 -8.94977
349 1 17.2967 11.007 1.57241 -8.94969
26 1 17.2967 4.71723 1.57239 -8.94944
345 1 4.71723 11.0069 1.57237 -8.94961
28 1 20.4415 4.71726 1.57242 -8.94963
165 1 9.43283 6.28294 9.43429 -8.9892
30 1 1.57242 7.86211 1.57242 -8.94963
164 1 6.28744 6.28734 9.43454 -8.94718
32 1 4.71725 7.86212 1.57241 -8.94968
163 1 3.14448 6.2895 9.43453 -8.94935
34 1 7.86199 7.86199 1.57206 -8.95025
35 1 9.43452 6.28966 -3.01078e-05 -8.94961
36 1 11.0069 7.86197 1.57212 -8.94959
37 1 12.5794 6.28967 -1.66892e-05 -8.94961
38 1 14.152 7.86189 1.57194 -8.95003
162 1 -2.94697e-05 6.28967 9.43453 -8.94966
40 1 17.2966 7.86211 1.57241 -8.94974
161 1 18.8691 3.14484 9.43453 -8.94965
42 1 20.4415 7.86211 1.57242 -8.94964
350 1 20.4415 11.007 1.57242 -8.94963
44 1 3.14484 9.43453 -2.5054e-06 -8.94963
160 1 15.7242 3.14479 9.43453 -8.94961
159 1 12.5795 3.1447 9.43451 -8.94934
158 1 9.4346 3.1436 9.43451 -8.95087
48 1 15.7242 9.43453 -2.20878e-05 -8.94959
157 1 6.28949 3.14446 9.43453 -8.94938
175 1 18.8692 9.43444 9.43453 -8.94936
51 1 1.57242 1.57242 4.71727 -8.94965
174 1 15.725 9.43392 9.43462 -8.94528
53 1 4.71723 1.57237 4.71723 -8.94962
54 1 6.28969 1.40582e-06 3.14484 -8.94964
55 1 7.86211 1.57241 4.71725 -8.94962
173 1 12.5738 9.43631 9.43295 -8.96104
57 1 11.007 1.57239 4.71724 -8.94962
172 1 9.35774 9.24296 9.43375 -8.16825
59 1 14.1518 1.57238 4.71724 -8.9497
60 1 15.7242 1.10333e-06 3.14484 -8.94963
61 1 17.2966 1.57242 4.71726 -8.94964
171 1 6.28059 9.43211 9.43462 -8.96945
63 1 20.4415 1.57242 4.71726 -8.94963
64 1 22.0139 3.14484 3.14484 -8.94963
65 1 1.57237 4.71724 4.71724 -8.94962
66 1 3.14481 3.14481 3.14481 -8.94945
67 1 4.71686 4.71685 4.71685 -8.94795
68 1 6.28969 3.14483 3.14484 -8.94977
69 1 7.86213 4.71709 4.71713 -8.95
70 1 9.43452 3.14482 3.14482 -8.94965
71 1 11.007 4.71697 4.71701 -8.94915
72 1 12.5794 3.14482 3.14482 -8.9496
73 1 14.1521 4.71674 4.71701 -8.94976
74 1 15.7242 3.14479 3.14481 -8.9496
75 1 17.2967 4.71725 4.71726 -8.94977
76 1 18.8691 3.14484 3.14484 -8.94965
77 1 20.4415 4.71726 4.71726 -8.94964
78 1 22.0139 6.28968 3.14484 -8.94964
79 1 1.5724 7.8621 4.71724 -8.94961
80 1 3.14483 6.28969 3.14483 -8.94976
81 1 4.71707 7.86212 4.71712 -8.95014
82 1 6.28942 6.28943 3.14432 -8.94966
83 1 7.86056 7.86064 4.71388 -8.95191
84 1 9.4345 6.28943 3.14456 -8.94914
85 1 11.0064 7.86099 4.7151 -8.95081
86 1 12.5793 6.28955 3.14468 -8.94999
87 1 14.1557 7.85818 4.71339 -8.93625
88 1 15.7246 6.28925 3.14441 -8.94782
89 1 17.2971 7.86187 4.71702 -8.9498
90 1 18.8691 6.28966 3.14481 -8.9496
91 1 20.4415 7.86209 4.71725 -8.94969
92 1 -3.83746e-08 9.43453 3.14484 -8.94963
93 1 3.14482 9.43453 3.14482 -8.94961
94 1 6.28958 9.43468 3.14469 -8.94981
95 1 9.43404 9.43409 3.14356 -8.94979
96 1 12.5802 9.43378 3.14177 -8.95469
97 1 15.7244 9.43449 3.14463 -8.9497
98 1 18.8691 9.43453 3.14483 -8.94963
170 1 3.14368 9.43464 9.43452 -8.95162
100 1 1.57242 1.57242 7.86211 -8.94964
101 1 3.14484 2.37919e-07 6.28969 -8.94963
102 1 4.71724 1.5724 7.86211 -8.9496
169 1 22.0138 9.43453 9.43453 -8.94987
104 1 7.86205 1.57215 7.86205 -8.95027
105 1 9.43454 1.1175e-05 6.28967 -8.94972
106 1 11.007 1.57226 7.86205 -8.94974
107 1 12.5794 8.13759e-06 6.28966 -8.94977
108 1 14.1518 1.57241 7.86211 -8.94965
168 1 18.8691 6.28965 9.43453 -8.9496
110 1 17.2966 1.57242 7.86211 -8.94963
111 1 18.8691 -1.84232e-07 6.28969 -8.94963
112 1 20.4415 1.57242 7.86211 -8.94963
113 1 -2.70878e-07 3.14484 6.28969 -8.94963
114 1 1.5724 4.71725 7.86211 -8.9496
115 1 3.14483 3.14483 6.28969 -8.94972
116 1 4.71705 4.71706 7.86205 -8.94957
117 1 6.28947 3.14439 6.28947 -8.94996
118 1 7.86127 4.71429 7.86133 -8.95401
119 1 9.43461 3.14455 6.28956 -8.94965
120 1 11.0075 4.716 7.86166 -8.94938
121 1 12.5795 3.14448 6.28957 -8.95027
122 1 14.152 4.71703 7.86221 -8.9497
123 1 15.7242 3.14482 6.28969 -8.94965
124 1 17.2967 4.71724 7.8621 -8.9496
125 1 18.8691 3.14484 6.28969 -8.94963
126 1 20.4415 4.71726 7.86211 -8.94963
127 1 22.0139 6.28967 6.28968 -8.94971
128 1 1.57215 7.86207 7.86207 -8.95026
129 1 3.14439 6.28948 6.28948 -8.94995
130 1 4.71424 7.86126 7.86134 -8.95421
131 1 6.28607 6.28608 6.28601 -8.93766
132 1 7.83839 7.83985 7.84045 -8.87303
133 1 9.43502 6.28753 6.2887 -8.95136
134 1 11.0145 7.8571 7.85199 -8.92304
135 1 12.5808 6.28623 6.2883 -8.95312
136 1 14.1535 7.86085 7.86299 -8.95077
137 1 15.7244 6.28951 6.28969 -8.95025
138 1 17.2969 7.86194 7.86218 -8.94971
139 1 18.8691 6.28967 6.28969 -8.94964
140 1 20.4415 7.86209 7.86211 -8.94971
141 1 22.0139 9.43452 6.28966 -8.94971
142 1 3.14451 9.43455 6.2895 -8.94953
143 1 6.28788 9.43524 6.28871 -8.94977
144 1 9.42574 9.42296 6.28397 -8.91457
145 1 12.6051 9.41034 6.26562 -8.86085
146 1 15.7277 9.43335 6.28847 -8.95323
147 1 18.8694 9.43444 6.28959 -8.95022
148 1 -1.36848e-08 -1.48414e-08 9.43453 -8.94963
167 1 15.7245 6.28931 9.43452 -8.94837
150 1 6.28966 2.15072e-06 9.43453 -8.9497
151 1 9.43452 5.72216e-05 9.43451 -8.95014
152 1 12.5794 5.38533e-05 9.43451 -8.94963
153 1 15.7242 -1.90201e-06 9.43453 -8.94965
166 1 12.5793 6.28931 9.43428 -8.94853
155 1 22.0139 3.14484 9.43453 -8.94964
156 1 3.14483 3.14483 9.43453 -8.94969
181 1 17.2966 1.57242 11.007 -8.94963
344 1 1.57242 11.007 1.57242 -8.94965
177 1 4.71724 1.5724 11.007 -8.94959
184 1 4.71706 4.71706 11.007 -8.94956
45 1 6.28968 9.43454 -1.24931e-05 -8.94964
41 1 18.8691 6.28969 4.97541e-07 -8.94965
19 1 6.28969 3.14484 3.63169e-07 -8.94964
25 1 15.7242 3.14484 3.2516e-07 -8.94966
176 1 1.57242 1.57242 11.007 -8.94964
254 1 12.5794 -7.02811e-06 15.7242 -8.94963
178 1 7.86205 1.57215 11.007 -8.95025
179 1 11.007 1.57227 11.007 -8.95001
180 1 14.1518 1.5724 11.0069 -8.94963
644 1 20.4415 11.007 20.4415 -8.94963
182 1 20.4415 1.57242 11.007 -8.94963
643 1 17.2966 11.007 20.4415 -8.94963
252 1 9.43453 -7.17407e-06 15.7242 -8.94964
185 1 7.8613 4.71434 11.0077 -8.95402
186 1 11.0074 4.71558 11.0074 -8.95059
187 1 14.1519 4.71706 11.0068 -8.94973
642 1 14.1518 11.0069 20.4415 -8.94973
641 1 11.0069 11.0069 20.4415 -8.94997
190 1 1.57215 7.86206 11.007 -8.95026
191 1 4.71423 7.86124 11.0077 -8.95406
192 1 7.83849 7.84008 11.0283 -8.87255
193 1 11.0144 7.8529 11.0167 -8.93311
194 1 14.1536 7.86093 11.0056 -8.95024
195 1 17.297 7.86191 11.0069 -8.94958
196 1 20.4415 7.86209 11.007 -8.94971
343 1 18.8691 9.43453 18.8691 -8.94965
198 1 1.57242 1.57242 14.1518 -8.94965
342 1 15.7242 9.43452 18.8691 -8.94958
200 1 4.71723 1.57237 14.1518 -8.94962
201 1 6.28966 -2.0673e-06 12.5794 -8.94977
202 1 7.86211 1.57241 14.1518 -8.94962
341 1 12.5794 9.43449 18.8693 -8.95033
204 1 11.007 1.57239 14.1518 -8.9496
340 1 9.43449 9.43449 18.8692 -8.94974
206 1 14.1518 1.57238 14.1518 -8.9497
207 1 15.7242 -2.4882e-06 12.5794 -8.94964
208 1 17.2966 1.57242 14.1518 -8.94964
339 1 6.28966 9.43452 18.8691 -8.94963
210 1 20.4415 1.57242 14.1518 -8.94963
211 1 -2.97739e-07 3.14484 12.5794 -8.94963
212 1 1.57237 4.71724 14.1518 -8.94962
213 1 3.14483 3.14483 12.5794 -8.94972
214 1 4.71686 4.71686 14.1522 -8.94799
215 1 6.28947 3.14439 12.5796 -8.94998
216 1 7.8621 4.71705 14.152 -8.94997
217 1 9.43459 3.14452 12.5795 -8.94966
218 1 11.007 4.71696 14.1521 -8.94913
219 1 12.5795 3.14443 12.5795 -8.95032
220 1 14.1521 4.71667 14.1521 -8.94978
221 1 15.7242 3.14483 12.5794 -8.94966
222 1 17.2966 4.71725 14.1518 -8.94979
223 1 18.8691 3.14484 12.5794 -8.94963
224 1 20.4415 4.71726 14.1518 -8.94964
225 1 22.0139 6.28967 12.5794 -8.94971
226 1 1.57239 7.8621 14.1518 -8.94961
227 1 3.1444 6.28948 12.5796 -8.94995
228 1 4.71705 7.8621 14.1519 -8.95021
229 1 6.2861 6.28612 12.583 -8.93788
230 1 7.86027 7.86032 14.1555 -8.95094
231 1 9.43477 6.28723 12.5805 -8.95098
232 1 11.0063 7.86091 14.154 -8.95115
233 1 12.581 6.28576 12.581 -8.95309
234 1 14.1563 7.85756 14.1562 -8.93395
235 1 15.7244 6.28954 12.5793 -8.95039
236 1 17.2972 7.86186 14.152 -8.94996
237 1 18.8691 6.28967 12.5794 -8.94963
238 1 20.4415 7.86209 14.1518 -8.9497
239 1 22.0139 9.43452 12.5794 -8.94972
240 1 3.14448 9.43454 12.5796 -8.94958
241 1 6.28761 9.43529 12.5803 -8.95107
242 1 9.42216 9.42147 12.5864 -8.94813
243 1 12.6102 9.40726 12.6062 -8.87964
244 1 15.7281 9.43349 12.5805 -8.95504
245 1 18.8694 9.43444 12.5795 -8.9503
246 1 1.04235e-07 1.38641e-08 15.7242 -8.94964
247 1 1.57242 1.57242 17.2966 -8.94962
248 1 3.14484 -2.55079e-08 15.7242 -8.94962
249 1 4.71727 1.57242 17.2966 -8.94965
338 1 3.14484 9.43453 18.8691 -8.94963
251 1 7.86211 1.57242 17.2966 -8.94964
337 1 22.0139 9.43453 18.8691 -8.94963
253 1 11.007 1.57242 17.2966 -8.94964
336 1 20.4415 7.86211 20.4415 -8.94963
255 1 14.1518 1.57242 17.2966 -8.94964
335 1 18.8691 6.28969 18.8691 -8.94965
257 1 17.2966 1.57242 17.2966 -8.94962
258 1 18.8691 -9.37493e-09 15.7242 -8.94964
259 1 20.4415 1.57242 17.2966 -8.94963
260 1 22.0139 3.14484 15.7242 -8.94963
261 1 1.57242 4.71726 17.2966 -8.94965
262 1 3.14481 3.14481 15.7242 -8.94945
263 1 4.71723 4.71723 17.2967 -8.94958
264 1 6.28969 3.14483 15.7242 -8.94976
265 1 7.86211 4.71725 17.2967 -8.9496
266 1 9.43452 3.14482 15.7242 -8.94964
267 1 11.007 4.71724 17.2967 -8.94966
268 1 12.5794 3.14482 15.7242 -8.94959
269 1 14.1518 4.71726 17.2966 -8.94979
270 1 15.7243 3.14478 15.7243 -8.94959
271 1 17.2967 4.71722 17.2967 -8.94941
272 1 18.8691 3.14484 15.7242 -8.94966
273 1 20.4415 4.71726 17.2966 -8.94963
274 1 22.0139 6.28968 15.7242 -8.94964
275 1 1.57242 7.86211 17.2966 -8.94963
276 1 3.14483 6.28968 15.7242 -8.94976
277 1 4.71724 7.86211 17.2967 -8.94961
278 1 6.28939 6.28939 15.7248 -8.94954
279 1 7.86204 7.86203 17.297 -8.95046
280 1 9.43451 6.28945 15.7245 -8.94906
281 1 11.0069 7.86196 17.297 -8.94959
282 1 12.5793 6.28957 15.7244 -8.94996
283 1 14.152 7.86192 17.2971 -8.9503
284 1 15.7247 6.28918 15.7247 -8.94756
285 1 17.2967 7.8621 17.2967 -8.94968
286 1 18.8691 6.28965 15.7242 -8.94962
287 1 20.4415 7.86211 17.2966 -8.94963
288 1 3.50974e-07 9.43453 15.7242 -8.94964
289 1 3.14481 9.43451 15.7242 -8.9496
290 1 6.28947 9.43454 15.7245 -8.94933
291 1 9.43431 9.43439 15.7253 -8.95093
292 1 12.5799 9.43406 15.7272 -8.9562
293 1 15.7245 9.43435 15.7246 -8.94916
294 1 18.8691 9.43452 15.7242 -8.9496
49 1 18.8691 9.43453 22.0139 -8.94964
296 1 1.57242 1.57242 20.4415 -8.94963
334 1 17.2966 7.86211 20.4415 -8.94963
298 1 4.71726 1.57242 20.4415 -8.94963
299 1 6.28969 -6.7188e-07 18.8691 -8.94964
300 1 7.86211 1.57242 20.4415 -8.94963
333 1 15.7242 6.28966 18.8691 -8.94965
302 1 11.007 1.57242 20.4415 -8.94963
332 1 14.1518 7.86208 20.4415 -8.94979
304 1 14.1518 1.57242 20.4415 -8.94963
305 1 15.7242 -6.18274e-07 18.8691 -8.94964
306 1 17.2966 1.57242 20.4415 -8.94964
331 1 12.5794 6.28967 18.8691 -8.9496
308 1 20.4415 1.57242 20.4415 -8.94963
309 1 22.0139 3.14484 18.8691 -8.94963
310 1 1.57242 4.71726 20.4415 -8.94963
311 1 3.14484 3.14484 18.8691 -8.94962
312 1 4.71726 4.71726 20.4415 -8.94964
313 1 6.28969 3.14484 18.8691 -8.94964
314 1 7.86211 4.71726 20.4415 -8.94963
315 1 9.43453 3.14484 18.8691 -8.94964
316 1 11.007 4.71726 20.4415 -8.94964
317 1 12.5794 3.14484 18.8691 -8.94964
318 1 14.1518 4.71726 20.4415 -8.94964
319 1 15.7242 3.14484 18.8691 -8.94966
320 1 17.2966 4.71726 20.4415 -8.94962
321 1 18.8691 3.14484 18.8691 -8.94961
322 1 20.4415 4.71726 20.4415 -8.94964
323 1 22.0139 6.28969 18.8691 -8.94963
324 1 1.57242 7.86211 20.4415 -8.94963
325 1 3.14484 6.28969 18.8691 -8.94964
326 1 4.71726 7.86211 20.4415 -8.94963
327 1 6.28967 6.28967 18.8691 -8.94972
328 1 7.86209 7.86209 20.4415 -8.94975
329 1 9.43452 6.28966 18.8691 -8.94961
330 1 11.0069 7.86209 20.4415 -8.94969
512 1 1.5722 11.0069 11.0071 -8.94944
513 1 4.71626 11.0068 11.0078 -8.9447
515 1 11.0909 10.9679 11.233 -8.31194
517 1 17.2983 11.0066 11.0071 -8.95074
518 1 20.4416 11.0069 11.007 -8.94991
540 1 1.57237 11.0069 14.1518 -8.94963
541 1 4.71685 11.0069 14.1522 -8.9487
542 1 7.86147 11.0065 14.1529 -8.94812
544 1 14.1553 11.0066 14.1555 -8.9456
545 1 17.2972 11.0069 14.1521 -8.94961
546 1 20.4415 11.007 14.1518 -8.9497
47 1 12.5794 9.43448 22.0136 -8.95031
591 1 7.86199 11.0069 17.2969 -8.9495
592 1 11.0069 11.0069 17.2974 -8.94912
593 1 14.1521 11.0069 17.2972 -8.94957
46 1 9.43447 9.43448 22.0137 -8.94976
638 1 1.57242 11.007 20.4415 -8.94963
639 1 4.71726 11.007 20.4415 -8.94964
640 1 7.8621 11.0069 20.4415 -8.94965
3 1 3.14484 7.61883e-11 22.0139 -8.94964
39 1 15.7242 6.28965 22.0138 -8.94962
9 1 12.5794 -1.13685e-08 22.0139 -8.94963
33 1 6.28966 6.28966 22.0139 -8.94969
13 1 18.8691 5.64944e-09 22.0139 -8.94963
15 1 22.0139 3.14484 22.0139 -8.94963
17 1 3.14484 3.14484 22.0139 -8.94962
31 1 3.14484 6.28969 22.0139 -8.94964
23 1 12.5794 3.14484 22.0139 -8.94963
29 1 22.0139 6.28969 22.0139 -8.94963
27 1 18.8691 3.14484 22.0139 -8.94962
21 1 9.43453 3.14484 22.0139 -8.94964
43 1 22.0139 9.43453 22.0139 -8.94963
539 1 20.4415 20.4415 11.007 -8.94963
688 3 10.2318 11.0263 9.44258 2.37523
346 1 7.86205 11.007 1.57233 -8.94933
347 1 11.0069 11.007 1.57129 -8.95058
348 1 14.152 11.007 1.57203 -8.9494
687 2 10.9852 12.5495 10.215 0.460775
529 1 11.0074 17.3044 11.0075 -8.96139
154 1 18.8691 22.0139 9.43453 -8.94963
352 1 1.57242 14.1518 1.57242 -8.94963
353 1 3.14484 12.5794 -2.32706e-06 -8.94963
354 1 4.71725 14.1518 1.57241 -8.94965
149 1 3.14484 22.0139 9.43453 -8.94964
356 1 7.862 14.1519 1.57206 -8.95034
393 1 1.57239 11.007 4.71723 -8.9496
358 1 11.0069 14.1519 1.57208 -8.94981
399 1 20.4415 11.007 4.71725 -8.94966
360 1 14.152 14.152 1.57198 -8.95003
361 1 15.7242 12.5794 -2.16859e-05 -8.94958
362 1 17.2966 14.1518 1.57241 -8.94971
363 1 18.8691 12.5794 -6.65292e-07 -8.94964
364 1 20.4415 14.1518 1.57242 -8.94963
109 1 15.7242 22.0139 6.28968 -8.94963
366 1 1.57242 17.2966 1.57242 -8.94966
103 1 6.28965 22.0139 6.28965 -8.94976
368 1 4.71723 17.2967 1.57237 -8.94961
369 1 6.28967 15.7242 -4.35421e-05 -8.94971
370 1 7.8621 17.2967 1.57238 -8.94959
99 1 22.0139 22.0139 6.28969 -8.94963
372 1 11.007 17.2967 1.57238 -8.94963
62 1 18.8691 22.0139 3.14484 -8.94963
374 1 14.1518 17.2967 1.5724 -8.94976
375 1 15.7242 15.7242 -4.44996e-05 -8.94963
376 1 17.2967 17.2967 1.57239 -8.94946
58 1 12.5794 22.0139 3.14484 -8.94963
378 1 20.4415 17.2966 1.57242 -8.94963
1 1 22.0139 22.0139 -1.65054e-07 -8.94963
380 1 1.57242 20.4415 1.57242 -8.94961
381 1 3.14484 18.8691 -4.0304e-06 -8.94962
382 1 4.71726 20.4415 1.57242 -8.94965
56 1 9.43453 22.0139 3.14484 -8.94964
384 1 7.86211 20.4415 1.57242 -8.94964
385 1 9.43453 18.8691 -1.18972e-06 -8.94964
386 1 11.007 20.4415 1.57242 -8.94964
387 1 12.5794 18.8691 -2.49285e-06 -8.94963
388 1 14.1518 20.4415 1.57242 -8.94964
52 1 3.14484 22.0139 3.14484 -8.94962
390 1 17.2966 20.4415 1.57242 -8.94962
391 1 18.8691 18.8691 -1.51253e-06 -8.94962
392 1 20.4415 20.4415 1.57242 -8.94963
511 1 18.8691 18.8691 9.43453 -8.94964
510 1 15.7243 18.8691 9.43455 -8.94959
395 1 7.86257 11.0071 4.71719 -8.95035
396 1 11.0085 11.0068 4.71179 -8.9937
397 1 14.1539 11.0071 4.71479 -8.94851
509 1 12.5798 18.8696 9.43421 -8.94821
508 1 9.4343 18.8707 9.43422 -8.9498
400 1 4.00273e-07 12.5794 3.14484 -8.94963
401 1 1.5724 14.1518 4.71725 -8.94961
402 1 3.14482 12.5794 3.14482 -8.94961
403 1 4.71713 14.1517 4.71714 -8.95032
404 1 6.28954 12.5792 3.14466 -8.94961
405 1 7.86085 14.153 4.71361 -8.9545
406 1 9.43407 12.5797 3.14372 -8.94905
407 1 11.0064 14.1528 4.71457 -8.95235
408 1 12.5801 12.5801 3.14205 -8.95377
409 1 14.1553 14.1553 4.71359 -8.93859
410 1 15.7244 12.5794 3.14465 -8.94937
411 1 17.297 14.152 4.71707 -8.95011
412 1 18.8691 12.5794 3.14482 -8.94959
413 1 20.4415 14.1518 4.71725 -8.9497
414 1 22.0139 15.7242 3.14484 -8.94964
415 1 1.57236 17.2967 4.71723 -8.94961
416 1 3.14484 15.7242 3.14484 -8.9498
417 1 4.71677 17.2971 4.71677 -8.94754
418 1 6.28944 15.7245 3.1443 -8.94994
419 1 7.86203 17.2969 4.71699 -8.94969
420 1 9.43449 15.7245 3.14439 -8.94932
421 1 11.007 17.297 4.7169 -8.94874
422 1 12.5794 15.7244 3.14456 -8.9501
423 1 14.1521 17.2972 4.71691 -8.94947
424 1 15.7246 15.7246 3.14443 -8.94808
425 1 17.2967 17.2967 4.71723 -8.94962
426 1 18.8691 15.7242 3.14482 -8.94965
427 1 20.4415 17.2966 4.71726 -8.94962
428 1 22.0139 18.8691 3.14484 -8.94962
429 1 1.57242 20.4415 4.71727 -8.94966
430 1 3.1448 18.8691 3.1448 -8.94941
431 1 4.71723 20.4415 4.71723 -8.94962
432 1 6.28968 18.8691 3.14482 -8.94973
433 1 7.86211 20.4415 4.71724 -8.94962
434 1 9.43452 18.8691 3.14482 -8.94967
435 1 11.007 20.4415 4.71723 -8.94959
436 1 12.5794 18.8691 3.14481 -8.9496
437 1 14.1518 20.4415 4.71723 -8.9497
438 1 15.7243 18.8691 3.1448 -8.94956
439 1 17.2966 20.4415 4.71726 -8.94963
440 1 18.8691 18.8691 3.14484 -8.94964
441 1 20.4415 20.4415 4.71726 -8.94964
507 1 6.28945 18.8695 9.43456 -8.94948
506 1 3.14482 18.8691 9.43453 -8.94969
444 1 7.86729 11.0036 7.86202 -8.94687
505 1 22.0139 18.8691 9.43453 -8.94964
446 1 14.163 11.0034 7.85686 -9.00187
504 1 18.8691 15.7242 9.43453 -8.94955
503 1 15.7245 15.7244 9.43466 -8.94921
449 1 22.0139 12.5794 6.28967 -8.94968
450 1 1.5721 14.1519 7.86205 -8.95037
451 1 3.14455 12.5793 6.28952 -8.94942
452 1 4.71365 14.1528 7.86111 -8.95487
453 1 6.28818 12.5782 6.28887 -8.95062
454 1 7.83356 14.1807 7.83367 -8.87658
455 1 9.42774 12.5894 6.2859 -8.97057
456 1 11.0139 14.1595 7.84721 -8.95836
457 1 12.6023 12.6019 6.26876 -8.91768
458 1 14.1551 14.1559 7.86055 -8.98019
459 1 15.7269 12.5802 6.28912 -8.9547
460 1 17.2974 14.1523 7.86179 -8.9488
461 1 18.8693 12.5794 6.28964 -8.95011
462 1 20.4415 14.1518 7.86208 -8.94975
463 1 22.0139 15.7242 6.28967 -8.94972
464 1 1.57239 17.2967 7.86211 -8.9496
465 1 3.1443 15.7245 6.28944 -8.95003
466 1 4.71701 17.2969 7.86204 -8.94961
467 1 6.28518 15.7287 6.28514 -8.93371
468 1 7.86109 17.3004 7.86113 -8.95512
469 1 9.43486 15.7274 6.28741 -8.94914
470 1 11.0075 17.2984 7.86156 -8.95019
471 1 12.5811 15.7282 6.28747 -8.95174
472 1 14.1521 17.2973 7.86206 -8.95014
473 1 15.7247 15.7247 6.28936 -8.94909
474 1 17.2967 17.2967 7.86212 -8.94981
475 1 18.8691 15.7243 6.28963 -8.94953
476 1 20.4415 17.2966 7.86211 -8.94964
477 1 -8.48357e-07 18.8691 6.28969 -8.94964
478 1 1.57242 20.4415 7.86211 -8.94964
479 1 3.14483 18.8691 6.28968 -8.94974
480 1 4.71724 20.4415 7.86211 -8.94961
481 1 6.28944 18.8696 6.28943 -8.95003
482 1 7.86201 20.4418 7.86201 -8.95029
483 1 9.4346 18.8695 6.28948 -8.94985
484 1 11.007 20.4417 7.86206 -8.94982
485 1 12.5795 18.8695 6.28951 -8.9504
486 1 14.1519 20.4416 7.86208 -8.9496
487 1 15.7243 18.8691 6.28967 -8.94963
488 1 17.2966 20.4415 7.86211 -8.94964
489 1 18.8691 18.8691 6.28969 -8.94966
490 1 20.4415 20.4415 7.86211 -8.94963
491 1 22.0138 12.5794 9.43453 -8.95012
492 1 3.14338 12.5792 9.43453 -8.95219
493 1 6.27863 12.582 9.43442 -8.97899
494 1 9.30362 12.782 9.41469 -8.31588
495 1 12.6229 12.5765 9.41269 -9.15047
496 1 15.7318 12.5801 9.43437 -8.95913
497 1 18.8699 12.5795 9.43453 -8.95136
498 1 -3.41626e-05 15.7242 9.43453 -8.94966
499 1 3.14441 15.7244 9.43454 -8.94939
500 1 6.28688 15.727 9.43474 -8.94763
501 1 9.43181 15.7317 9.43275 -9.04429
502 1 12.5799 15.7249 9.43274 -9.00038
526 1 1.57239 17.2967 11.007 -8.9496
11 1 15.7242 22.0139 2.20255e-07 -8.94963
5 1 6.28969 22.0139 -8.80608e-08 -8.94963
527 1 4.717 17.2969 11.007 -8.94934
532 1 20.4415 17.2966 11.0069 -8.94964
534 1 4.71724 20.4415 11.007 -8.94959
538 1 17.2966 20.4415 11.007 -8.94962
365 1 22.0139 15.7242 2.82253e-08 -8.94963
686 1 20.4415 20.4415 20.4415 -8.94963
685 1 18.8691 18.8691 18.8691 -8.94961
514 1 7.8673 11.0057 11.0068 -8.95719
684 1 17.2966 20.4415 20.4415 -8.94964
516 1 14.1626 11.0056 11.0114 -9.02215
683 1 15.7242 18.8691 18.8691 -8.94967
682 1 14.1518 20.4415 20.4415 -8.94963
519 1 1.5721 14.1519 11.007 -8.9503
520 1 4.71386 14.1528 11.0079 -8.95404
521 1 7.83631 14.1766 11.0328 -8.90856
522 1 11.0136 14.2002 11.0358 -9.18314
523 1 14.1541 14.1536 11.0078 -9.00075
524 1 17.2974 14.1523 11.0072 -8.94839
525 1 20.4415 14.1518 11.007 -8.94971
594 1 17.2967 11.0069 17.2967 -8.94972
590 1 4.71723 11.0069 17.2967 -8.94964
528 1 7.86141 17.2997 11.0076 -8.95497
307 1 18.8691 22.0139 18.8691 -8.94963
530 1 14.1518 17.2969 11.0067 -8.95044
531 1 17.2967 17.2967 11.0069 -8.94961
295 1 22.0139 22.0139 18.8691 -8.94963
533 1 1.57242 20.4415 11.007 -8.94964
377 1 18.8691 15.7242 22.0139 -8.94965
535 1 7.86205 20.4418 11.007 -8.95024
536 1 11.007 20.4423 11.007 -8.95161
537 1 14.1518 20.4415 11.0069 -8.9496
373 1 12.5794 15.7242 22.0139 -8.94964
303 1 12.5794 22.0139 18.8691 -8.94963
681 1 12.5794 18.8691 18.8691 -8.94963
680 1 11.007 20.4415 20.4415 -8.94963
679 1 9.43453 18.8691 18.8691 -8.94963
543 1 11.0085 11.0077 14.1534 -9.04284
678 1 7.86211 20.4415 20.4415 -8.94963
677 1 6.28969 18.8691 18.8691 -8.94965
676 1 4.71726 20.4415 20.4415 -8.94964
547 1 22.0139 12.5794 12.5794 -8.94972
548 1 1.57239 14.1518 14.1518 -8.94964
549 1 3.14446 12.5793 12.5795 -8.94965
550 1 4.71697 14.1518 14.152 -8.95035
551 1 6.2874 12.5783 12.5804 -8.95142
552 1 7.85991 14.1535 14.1562 -8.95163
553 1 9.42226 12.5893 12.5891 -8.95389
554 1 11.0064 14.1513 14.1528 -9.0002
555 1 12.6077 12.6011 12.6067 -8.90698
556 1 14.1562 14.1559 14.1564 -8.93579
557 1 15.7279 12.5802 12.5803 -8.9551
558 1 17.2972 14.152 14.1521 -8.95012
559 1 18.8694 12.5794 12.5794 -8.95038
560 1 20.4415 14.1518 14.1518 -8.94973
561 1 22.0139 15.7242 12.5794 -8.94971
562 1 1.57237 17.2967 14.1518 -8.94962
563 1 3.14432 15.7245 12.5796 -8.95002
564 1 4.71679 17.2971 14.1523 -8.94783
565 1 6.28539 15.7282 12.5834 -8.93672
566 1 7.8618 17.2971 14.1523 -8.94898
567 1 9.43185 15.728 12.5827 -8.982
568 1 11.007 17.2966 14.1518 -8.94962
569 1 12.5839 15.7289 12.5829 -8.98237
570 1 14.1524 17.2975 14.1524 -8.94875
571 1 15.7248 15.7245 12.5795 -8.95054
572 1 17.2967 17.2967 14.1518 -8.94973
573 1 18.8692 15.7243 12.5794 -8.94957
574 1 20.4415 17.2966 14.1518 -8.94963
575 1 -9.65487e-07 18.8691 12.5794 -8.94964
576 1 1.57242 20.4415 14.1518 -8.94965
577 1 3.14483 18.8691 12.5794 -8.94971
578 1 4.71723 20.4415 14.1518 -8.94965
579 1 6.28946 18.8695 12.5796 -8.95021
580 1 7.86207 20.4416 14.1519 -8.94954
581 1 9.43426 18.8698 12.5798 -8.94889
582 1 11.007 20.4415 14.1518 -8.94947
583 1 12.5798 18.8699 12.5798 -8.94943
584 1 14.1519 20.4416 14.1519 -8.94961
585 1 15.7242 18.8691 12.5793 -8.94986
586 1 17.2966 20.4415 14.1518 -8.94967
587 1 18.8691 18.8691 12.5794 -8.94965
588 1 20.4415 20.4415 14.1518 -8.94964
589 1 1.57242 11.007 17.2966 -8.94964
675 1 3.14484 18.8691 18.8691 -8.94962
674 1 1.57242 20.4415 20.4415 -8.94963
673 1 22.0139 18.8691 18.8691 -8.94963
672 1 20.4415 17.2966 20.4415 -8.94964
671 1 18.8691 15.7242 18.8691 -8.94966
595 1 20.4415 11.007 17.2966 -8.94963
596 1 6.59029e-07 12.5794 15.7242 -8.94963
597 1 1.57242 14.1518 17.2966 -8.94963
598 1 3.14481 12.5794 15.7242 -8.94958
599 1 4.71725 14.1518 17.2967 -8.94967
600 1 6.28948 12.5793 15.7245 -8.9494
601 1 7.86196 14.1519 17.2971 -8.95047
602 1 9.43413 12.5796 15.7259 -8.95142
603 1 11.0069 14.152 17.2969 -8.94902
604 1 12.5801 12.5799 15.7277 -8.95602
605 1 14.152 14.152 17.2972 -8.9502
606 1 15.7245 12.5795 15.7246 -8.94914
607 1 17.2967 14.1518 17.2967 -8.94972
608 1 18.8691 12.5794 15.7242 -8.94957
609 1 20.4415 14.1518 17.2966 -8.94963
610 1 22.0139 15.7242 15.7242 -8.94964
611 1 1.57242 17.2966 17.2966 -8.94965
612 1 3.14482 15.7242 15.7242 -8.94977
613 1 4.71722 17.2967 17.2967 -8.94956
614 1 6.28934 15.7246 15.7248 -8.94945
615 1 7.86213 17.2966 17.2967 -8.94974
616 1 9.43466 15.7243 15.7246 -8.95013
617 1 11.007 17.2967 17.2967 -8.94953
618 1 12.5792 15.7242 15.7244 -8.95095
619 1 14.1518 17.2966 17.2966 -8.9499
620 1 15.7247 15.7247 15.7247 -8.94763
621 1 17.2967 17.2967 17.2967 -8.94941
622 1 18.8691 15.7243 15.7243 -8.94963
623 1 20.4415 17.2966 17.2966 -8.94963
624 1 22.0139 18.8691 15.7242 -8.94962
625 1 1.57242 20.4415 17.2966 -8.94962
626 1 3.1448 18.8691 15.7243 -8.94944
627 1 4.71726 20.4415 17.2966 -8.94964
628 1 6.28966 18.8691 15.7243 -8.94963
629 1 7.86211 20.4415 17.2966 -8.94966
630 1 9.43457 18.869 15.7242 -8.9498
631 1 11.007 20.4415 17.2966 -8.94964
632 1 12.5793 18.869 15.7242 -8.94974
633 1 14.1518 20.4415 17.2966 -8.94966
634 1 15.7243 18.8692 15.7243 -8.94946
635 1 17.2966 20.4415 17.2966 -8.94961
636 1 18.8691 18.8691 15.7242 -8.94965
637 1 20.4415 20.4415 17.2966 -8.94963
670 1 17.2966 17.2966 20.4415 -8.94961
669 1 15.7243 15.7243 18.8691 -8.94962
668 1 14.1518 17.2966 20.4415 -8.94964
667 1 12.5794 15.7242 18.8691 -8.94962
666 1 11.007 17.2966 20.4415 -8.94964
665 1 9.43453 15.7242 18.8691 -8.94962
664 1 7.86211 17.2966 20.4415 -8.94963
645 1 22.0139 12.5794 18.8691 -8.94963
646 1 1.57242 14.1518 20.4415 -8.94963
647 1 3.14484 12.5794 18.8691 -8.94963
648 1 4.71726 14.1518 20.4415 -8.94963
649 1 6.28967 12.5794 18.8691 -8.94962
650 1 7.86209 14.1518 20.4415 -8.94978
651 1 9.4345 12.5794 18.8693 -8.94995
652 1 11.0069 14.1518 20.4415 -8.94966
653 1 12.5794 12.5794 18.8694 -8.95049
654 1 14.1518 14.1518 20.4415 -8.9498
655 1 15.7242 12.5794 18.8691 -8.94957
656 1 17.2966 14.1518 20.4415 -8.94963
657 1 18.8691 12.5794 18.8691 -8.94965
658 1 20.4415 14.1518 20.4415 -8.94963
659 1 22.0139 15.7242 18.8691 -8.94963
660 1 1.57242 17.2966 20.4415 -8.94964
661 1 3.14484 15.7242 18.8691 -8.94965
662 1 4.71726 17.2966 20.4415 -8.94963
663 1 6.28966 15.7242 18.8691 -8.94969
197 1 22.0139 22.0139 12.5794 -8.94963
199 1 3.14484 22.0139 12.5794 -8.94963
203 1 9.43451 22.014 12.5794 -8.94972
205 1 12.5794 22.0139 12.5794 -8.94978
209 1 18.8691 22.0139 12.5794 -8.94963
250 1 6.28968 22.0139 15.7242 -8.94962
389 1 15.7242 18.8691 22.0139 -8.94965
383 1 6.28969 18.8691 22.0139 -8.94963
256 1 15.7242 22.0139 15.7242 -8.94962
297 1 3.14484 22.0139 18.8691 -8.94964
301 1 9.43453 22.0139 18.8691 -8.94963
351 1 22.0139 12.5794 22.0139 -8.94963
355 1 6.28967 12.5794 22.0139 -8.94964
371 1 9.43452 15.7242 22.0139 -8.94965
367 1 3.14484 15.7242 22.0139 -8.94964
357 1 9.43447 12.5794 22.0138 -8.94971
359 1 12.5794 12.5794 22.0136 -8.95023
379 1 22.0139 18.8691 22.0139 -8.94963
