ITEM: TIMESTEP
95
ITEM: NUMBER OF ATOMS
688
ITEM: BOX BOUNDS pp pp pp
0.0000000000000000e+00 2.2013900999999997e+01
0.0000000000000000e+00 2.2013900999999997e+01
0.0000000000000000e+00 2.2013900999999997e+01
ITEM: ATOMS id type x y z c_pot
189 1 20.4415 4.71642 11.0071 -8.94954
2 1 1.57173 1.57214 1.57173 -8.94918
448 1 20.443 11.0067 7.86183 -8.94953
4 1 4.71661 1.57202 1.57154 -8.94959
447 1 17.3015 11.0056 7.86102 -8.94973
6 1 7.86185 1.57198 1.57158 -8.94943
7 1 9.43449 6.51542e-05 -0.000420547 -8.94951
8 1 11.0071 1.57193 1.57162 -8.94948
445 1 11.0777 11.0016 7.61748 -8.15732
10 1 14.1523 1.57185 1.57173 -8.94946
443 1 4.71969 11.0075 7.86272 -8.94359
12 1 17.2973 1.5718 1.5718 -8.94947
442 1 1.57249 11.0069 7.86184 -8.94799
14 1 20.4416 1.57214 1.57209 -8.94955
188 1 17.2977 4.71595 11.0069 -8.94893
16 1 1.57191 4.7168 1.57166 -8.94975
398 1 17.3016 11.007 4.71432 -8.94938
18 1 4.71578 4.71593 1.57048 -8.94931
394 1 4.71534 11.0066 4.71518 -8.94618
20 1 7.86145 4.71592 1.57078 -8.94913
50 1 -0.000440116 0.000116358 3.14441 -8.94951
22 1 11.007 4.71574 1.5708 -8.94938
183 1 1.57055 4.71598 11.0074 -8.94931
24 1 14.1528 4.71549 1.57072 -8.94955
349 1 17.2987 11.007 1.57074 -8.94946
26 1 17.2985 4.71545 1.57092 -8.94817
345 1 4.7165 11.0068 1.57141 -8.9495
28 1 20.4421 4.71659 1.57181 -8.94949
165 1 9.43054 6.29158 9.4343 -8.99376
30 1 1.57217 7.86193 1.57181 -8.94941
164 1 6.27974 6.28008 9.43433 -8.94225
32 1 4.71654 7.86203 1.57141 -8.94967
163 1 3.14041 6.28711 9.43445 -8.94913
34 1 7.86149 7.86139 1.56992 -8.95233
35 1 9.43412 6.28867 -0.0010626 -8.9496
36 1 11.007 7.86053 1.56923 -8.95051
37 1 12.5797 6.2885 -0.00120007 -8.94968
38 1 14.1541 7.86003 1.56827 -8.95162
162 1 -0.00100657 6.28879 9.43447 -8.94993
40 1 17.2987 7.86097 1.57069 -8.94932
161 1 18.8694 3.14414 9.43447 -8.94955
42 1 20.4423 7.86168 1.57171 -8.94947
350 1 20.4423 11.0069 1.57167 -8.94949
44 1 3.14441 9.43443 -0.000372278 -8.94949
160 1 15.725 3.14386 9.43442 -8.9496
159 1 12.5796 3.14485 9.43442 -8.94792
158 1 9.43419 3.14399 9.43442 -8.94698
48 1 15.7258 9.43399 -0.00127531 -8.9495
157 1 6.28687 3.14114 9.43446 -8.94955
175 1 18.8703 9.43382 9.43439 -8.94724
51 1 1.5715 1.57207 4.71661 -8.94944
174 1 15.7229 9.43487 9.43458 -8.93971
53 1 4.71589 1.57149 4.71591 -8.94998
54 1 6.28914 0.000298987 3.14373 -8.94962
55 1 7.86176 1.5715 4.71611 -8.94983
173 1 12.5575 9.4482 9.43418 -8.96276
57 1 11.0073 1.57149 4.71622 -8.94973
172 1 9.36967 9.24201 9.43266 -8.24428
59 1 14.1525 1.57138 4.71665 -8.95066
60 1 15.7249 6.8025e-05 3.14422 -8.95005
61 1 17.2971 1.57204 4.71707 -8.94973
171 1 6.28343 9.4282 9.43475 -8.96852
63 1 20.4414 1.57218 4.717 -8.9495
64 1 22.0134 3.14431 3.14424 -8.94957
65 1 1.57077 4.71619 4.71611 -8.9497
66 1 3.1432 3.14358 3.14322 -8.94845
67 1 4.71295 4.71325 4.71319 -8.94555
68 1 6.28864 3.14328 3.14317 -8.94968
69 1 7.86043 4.7132 4.71427 -8.94952
70 1 9.43435 3.14327 3.14334 -8.94933
71 1 11.0075 4.71345 4.7143 -8.94798
72 1 12.58 3.14314 3.14345 -8.94917
73 1 14.155 4.71217 4.71415 -8.95006
74 1 15.7257 3.14279 3.14346 -8.94948
75 1 17.2981 4.71574 4.71662 -8.95046
76 1 18.8697 3.14408 3.14438 -8.94985
77 1 20.4416 4.71657 4.71685 -8.94987
78 1 22.014 6.2892 3.14414 -8.94987
79 1 1.57167 7.8619 4.71653 -8.95008
80 1 3.14337 6.28897 3.1434 -8.95018
81 1 4.71422 7.86104 4.71503 -8.95103
82 1 6.28631 6.28639 3.13998 -8.94921
83 1 7.85504 7.854 4.70645 -8.94997
84 1 9.43381 6.2866 3.14116 -8.94764
85 1 11.0083 7.85562 4.70747 -8.94928
86 1 12.5811 6.28627 3.14062 -8.94882
87 1 14.1657 7.84918 4.70369 -8.92905
88 1 15.7292 6.28489 3.14018 -8.94434
89 1 17.3019 7.85929 4.71437 -8.95039
90 1 18.8711 6.28824 3.1435 -8.94955
91 1 20.4429 7.86139 4.71642 -8.9502
92 1 0.000294704 9.43431 3.14403 -8.94953
93 1 3.14395 9.43434 3.14376 -8.9489
94 1 6.2889 9.43463 3.14341 -8.94907
95 1 9.43519 9.43376 3.14214 -8.95308
96 1 12.5829 9.43267 3.13611 -8.95948
97 1 15.7287 9.43291 3.14046 -8.94814
98 1 18.8712 9.43398 3.14336 -8.9494
170 1 3.14302 9.43469 9.43449 -8.95087
100 1 1.5714 1.57202 7.86184 -8.94946
101 1 3.14355 0.000313761 6.28899 -8.94935
102 1 4.71561 1.5714 7.86153 -8.9494
169 1 22.0138 9.43436 9.43445 -8.9493
104 1 7.86155 1.57125 7.86176 -8.95137
105 1 9.43469 0.000583364 6.28894 -8.95036
106 1 11.0071 1.57218 7.86206 -8.94938
107 1 12.5797 0.000309434 6.2894 -8.95038
108 1 14.1523 1.57223 7.8621 -8.94942
168 1 18.87 6.28848 9.4344 -8.94949
110 1 17.2971 1.57205 7.86202 -8.94954
111 1 18.8693 9.47228e-05 6.28952 -8.94955
112 1 20.4414 1.57214 7.86198 -8.94954
113 1 -0.000654909 3.14422 6.28929 -8.94943
114 1 1.57055 4.716 7.86161 -8.9493
115 1 3.14297 3.14342 6.28867 -8.9492
116 1 4.71315 4.71346 7.86064 -8.94774
117 1 6.28754 3.14132 6.28785 -8.95132
118 1 7.85887 4.70955 7.86072 -8.95807
119 1 9.43456 3.14208 6.2884 -8.95079
120 1 11.0066 4.71565 7.86172 -8.95097
121 1 12.5799 3.14247 6.28908 -8.95244
122 1 14.1524 4.71628 7.86269 -8.94925
123 1 15.7249 3.1439 6.2897 -8.94972
124 1 17.2977 4.71603 7.86196 -8.94888
125 1 18.8694 3.1442 6.28951 -8.9494
126 1 20.4414 4.71644 7.8619 -8.94953
127 1 22.0131 6.289 6.2892 -8.95013
128 1 1.57026 7.86155 7.86179 -8.95138
129 1 3.14068 6.28753 6.2877 -8.95071
130 1 4.70835 7.85836 7.86002 -8.95677
131 1 6.27798 6.27802 6.27916 -8.9342
132 1 7.82778 7.82886 7.83468 -8.87662
133 1 9.43352 6.2804 6.2845 -8.95231
134 1 11.0197 7.85579 7.84001 -8.91426
135 1 12.5855 6.27883 6.28284 -8.95449
136 1 14.155 7.86064 7.86436 -8.95418
137 1 15.7269 6.28739 6.28918 -8.95193
138 1 17.2985 7.86102 7.86257 -8.9499
139 1 18.8701 6.28877 6.28952 -8.94991
140 1 20.4419 7.8615 7.862 -8.94975
141 1 22.0143 9.43436 6.2892 -8.95003
142 1 3.14338 9.43496 6.28912 -8.95061
143 1 6.28479 9.43415 6.28724 -8.9519
144 1 9.41828 9.40778 6.27663 -8.8969
145 1 12.6209 9.39898 6.25113 -8.84977
146 1 15.7361 9.43041 6.28413 -8.95667
147 1 18.8725 9.43361 6.28861 -8.95157
148 1 -0.000541086 0.000125231 9.43452 -8.94952
167 1 15.7263 6.28744 9.43425 -8.94584
150 1 6.2884 0.000637275 9.4345 -8.95035
151 1 9.43451 0.000856909 9.43438 -8.94873
152 1 12.5799 0.000631218 9.43437 -8.9492
153 1 15.7248 0.000160368 9.43449 -8.94966
166 1 12.5773 6.2926 9.43442 -8.94397
155 1 22.0132 3.14416 9.4345 -8.9495
156 1 3.14284 3.14334 9.4345 -8.94946
181 1 17.2971 1.57202 11.0069 -8.94954
344 1 1.57218 11.0069 1.57175 -8.94953
177 1 4.71562 1.57137 11.0075 -8.94941
184 1 4.71313 4.71344 11.0083 -8.94783
45 1 6.28922 9.43453 -0.000446846 -8.94944
41 1 18.8701 6.28899 -0.000473163 -8.94947
19 1 6.28923 3.14423 -0.000570222 -8.94947
25 1 15.7249 3.14396 -0.000503327 -8.94957
176 1 1.5714 1.57201 11.0072 -8.94946
254 1 12.5798 -7.57083e-05 15.725 -8.94949
178 1 7.86155 1.57113 11.0072 -8.95127
179 1 11.0071 1.57217 11.0069 -8.94975
180 1 14.1523 1.57209 11.0068 -8.94937
644 1 20.4421 11.0069 20.4416 -8.94952
182 1 20.4414 1.57213 11.007 -8.94954
643 1 17.2979 11.007 20.4417 -8.94946
252 1 9.43457 -9.08603e-06 15.7252 -8.9495
185 1 7.85878 4.70946 11.008 -8.95779
186 1 11.0066 4.71517 11.0072 -8.95126
187 1 14.1526 4.716 11.0061 -8.94909
642 1 14.1529 11.007 20.4418 -8.95049
641 1 11.0069 11.0069 20.4417 -8.9485
190 1 1.57023 7.86151 11.0072 -8.95144
191 1 4.70809 7.8582 11.0089 -8.95646
192 1 7.82756 7.82914 11.0331 -8.8745
193 1 11.0195 7.85411 11.0292 -8.92955
194 1 14.1561 7.86011 11.0039 -8.95152
195 1 17.299 7.8608 11.0062 -8.94971
196 1 20.442 7.86146 11.0069 -8.94982
343 1 18.8703 9.43422 18.8699 -8.94945
198 1 1.57151 1.57204 14.1524 -8.94944
342 1 15.726 9.43386 18.871 -8.94947
200 1 4.7159 1.5714 14.1531 -8.94998
201 1 6.28877 0.000495881 12.5802 -8.95066
202 1 7.86166 1.57132 14.153 -8.94989
341 1 12.5799 9.43415 18.8714 -8.9517
204 1 11.0073 1.57125 14.1528 -8.94965
340 1 9.4344 9.43443 18.8701 -8.94977
206 1 14.1526 1.57116 14.1525 -8.95077
207 1 15.7247 9.08867e-05 12.5794 -8.94961
208 1 17.2972 1.57194 14.1519 -8.94977
339 1 6.2891 9.43448 18.8698 -8.94938
210 1 20.4414 1.57215 14.152 -8.94951
211 1 -0.000637041 3.14419 12.5797 -8.94944
212 1 1.57078 4.71615 14.1529 -8.94966
213 1 3.14297 3.14339 12.5803 -8.9492
214 1 4.71291 4.71322 14.1558 -8.94563
215 1 6.28752 3.14124 12.5811 -8.9512
216 1 7.8601 4.71263 14.1549 -8.94983
217 1 9.43448 3.14175 12.5806 -8.95105
218 1 11.0075 4.71287 14.1549 -8.9479
219 1 12.58 3.14206 12.58 -8.95277
220 1 14.1555 4.71131 14.1552 -8.95056
221 1 15.725 3.1437 12.5792 -8.94966
222 1 17.2984 4.71552 14.1524 -8.95048
223 1 18.8695 3.14414 12.5795 -8.9494
224 1 20.4417 4.7165 14.1522 -8.94984
225 1 22.0132 6.28895 12.5798 -8.95013
226 1 1.57167 7.86189 14.1525 -8.95018
227 1 3.14061 6.28748 12.5813 -8.95057
228 1 4.71389 7.86104 14.1539 -8.95183
229 1 6.27792 6.27811 12.5895 -8.93416
230 1 7.85279 7.85184 14.1644 -8.94647
231 1 9.433 6.27906 12.5847 -8.95368
232 1 11.0084 7.85416 14.1626 -8.94902
233 1 12.5861 6.27714 12.5866 -8.95631
234 1 14.1691 7.84593 14.1684 -8.92347
235 1 15.7275 6.287 12.5797 -8.9517
236 1 17.3029 7.85885 14.155 -8.95096
237 1 18.8704 6.28864 12.5795 -8.94983
238 1 20.4431 7.86131 14.1526 -8.95032
239 1 22.0144 9.43435 12.5798 -8.95009
240 1 3.1433 9.43505 12.5797 -8.95082
241 1 6.28421 9.4349 12.5809 -8.95595
242 1 9.40972 9.40147 12.5975 -8.92679
243 1 12.6321 9.3909 12.6256 -8.86029
244 1 15.7385 9.43025 12.5851 -8.95956
245 1 18.8732 9.43358 12.5803 -8.952
246 1 -0.000417715 9.36116e-05 15.7246 -8.94952
247 1 1.57174 1.57211 17.2973 -8.94921
248 1 3.1438 0.000222627 15.7252 -8.94952
249 1 4.71656 1.57194 17.2976 -8.94958
338 1 3.14437 9.43441 18.8696 -8.94949
251 1 7.86183 1.57186 17.2975 -8.94943
337 1 22.0141 9.43439 18.8695 -8.94951
253 1 11.0071 1.5718 17.2975 -8.94948
336 1 20.4421 7.86181 20.4416 -8.94951
255 1 14.1523 1.57171 17.2974 -8.94945
335 1 18.8702 6.2889 18.8698 -8.9494
257 1 17.2974 1.57169 17.2974 -8.94946
258 1 18.8693 4.95849e-05 15.7245 -8.94971
259 1 20.4416 1.57211 17.297 -8.94957
260 1 22.0135 3.14427 15.7248 -8.94956
261 1 1.5719 4.71675 17.2975 -8.9498
262 1 3.14319 3.14354 15.7258 -8.94851
263 1 4.71558 4.71573 17.2988 -8.94905
264 1 6.28848 3.14306 15.726 -8.94972
265 1 7.86136 4.71575 17.2984 -8.94908
266 1 9.4343 3.14304 15.7258 -8.94928
267 1 11.007 4.71553 17.2984 -8.94931
268 1 12.58 3.14285 15.7257 -8.94912
269 1 14.153 4.71522 17.2986 -8.94951
270 1 15.7259 3.14244 15.7258 -8.94956
271 1 17.2988 4.7151 17.2985 -8.94778
272 1 18.8697 3.14398 15.7247 -8.94988
273 1 20.4422 4.71649 17.2974 -8.94952
274 1 22.0141 6.28914 15.7249 -8.94994
275 1 1.57216 7.86187 17.2974 -8.94939
276 1 3.14324 6.28889 15.7257 -8.95036
277 1 4.71635 7.86191 17.2978 -8.9495
278 1 6.28563 6.28572 15.7296 -8.9483
279 1 7.86122 7.86113 17.2997 -8.9526
280 1 9.4336 6.2861 15.7282 -8.94737
281 1 11.007 7.86023 17.3003 -8.95044
282 1 12.5813 6.28561 15.729 -8.94849
283 1 14.1545 7.85958 17.3017 -8.95201
284 1 15.7303 6.28376 15.7299 -8.94292
285 1 17.2991 7.86066 17.2989 -8.94898
286 1 18.8715 6.28801 15.7257 -8.94966
287 1 20.4425 7.86158 17.2975 -8.94942
288 1 0.00042064 9.43425 15.7251 -8.9496
289 1 3.14376 9.43428 15.7254 -8.94891
290 1 6.28825 9.43433 15.726 -8.94826
291 1 9.43468 9.43318 15.728 -8.95403
292 1 12.5838 9.43193 15.7348 -8.96065
293 1 15.7301 9.43214 15.7299 -8.94678
294 1 18.8718 9.43377 15.726 -8.94931
49 1 18.8701 9.43427 22.0134 -8.94948
296 1 1.57207 1.57218 20.4415 -8.94932
334 1 17.2979 7.86142 20.4417 -8.9494
298 1 4.71691 1.57216 20.4415 -8.94955
299 1 6.28942 2.75464e-05 18.8695 -8.94953
300 1 7.86191 1.57211 20.4415 -8.94951
333 1 15.7258 6.2881 18.8708 -8.95007
302 1 11.007 1.57206 20.4415 -8.94952
332 1 14.1526 7.86129 20.4418 -8.9508
304 1 14.1521 1.57203 20.4415 -8.9495
305 1 15.7246 -3.99392e-05 18.8694 -8.94955
306 1 17.2971 1.57202 20.4415 -8.94956
331 1 12.5797 6.28839 18.8706 -8.94966
308 1 20.4417 1.57218 20.4415 -8.94917
309 1 22.0139 3.14448 18.8694 -8.94951
310 1 1.57224 4.71704 20.4415 -8.94967
311 1 3.14412 3.14423 18.8697 -8.94935
312 1 4.71659 4.7167 20.4416 -8.95001
313 1 6.2892 3.14417 18.8697 -8.94948
314 1 7.86166 4.7165 20.4416 -8.94949
315 1 9.43435 3.14405 18.8697 -8.94947
316 1 11.0069 4.71632 20.4416 -8.94952
317 1 12.5796 3.14396 18.8697 -8.94943
318 1 14.1523 4.71624 20.4416 -8.94955
319 1 15.7249 3.14388 18.8697 -8.94958
320 1 17.2977 4.7162 20.4416 -8.9495
321 1 18.8699 3.14405 18.8696 -8.94901
322 1 20.442 4.71683 20.4416 -8.94949
323 1 22.0141 6.28938 18.8695 -8.94948
324 1 1.57229 7.86197 20.4415 -8.9495
325 1 3.14437 6.28948 18.8696 -8.94969
326 1 4.71679 7.86205 20.4416 -8.94954
327 1 6.28886 6.289 18.8704 -8.95066
328 1 7.86176 7.86191 20.4416 -8.95048
329 1 9.43408 6.28858 18.8704 -8.94956
330 1 11.0068 7.86144 20.4416 -8.95032
512 1 1.57256 11.007 11.0071 -8.94782
513 1 4.72007 11.0078 11.0058 -8.94194
515 1 11.0863 10.9671 11.286 -8.34179
517 1 17.3022 11.0058 11.0076 -8.94972
518 1 20.4433 11.0067 11.007 -8.94953
540 1 1.57179 11.0068 14.1528 -8.94967
541 1 4.71478 11.0066 14.154 -8.94648
542 1 7.86106 11.006 14.1537 -8.94327
544 1 14.1666 11.0058 14.166 -8.93945
545 1 17.3032 11.0067 14.1555 -8.94927
546 1 20.4434 11.0068 14.1529 -8.95009
47 1 12.5798 9.43425 22.0123 -8.95153
591 1 7.86156 11.0068 17.2978 -8.94891
592 1 11.0074 11.0066 17.2984 -8.94643
593 1 14.1552 11.0068 17.3019 -8.95002
46 1 9.43446 9.43451 22.0133 -8.94973
638 1 1.57227 11.0069 20.4415 -8.94955
639 1 4.71673 11.0069 20.4416 -8.94962
640 1 7.86173 11.0069 20.4416 -8.94942
3 1 3.14438 9.92474e-05 22.0135 -8.94955
39 1 15.7256 6.28828 22.0126 -8.95004
9 1 12.5796 4.08618e-05 22.0135 -8.94951
33 1 6.28896 6.2891 22.0128 -8.95064
13 1 18.8694 1.73323e-05 22.0136 -8.94937
15 1 22.0139 3.14452 22.0136 -8.9495
17 1 3.14416 3.14427 22.0133 -8.94942
31 1 3.14441 6.28952 22.0135 -8.94972
23 1 12.5796 3.14403 22.0134 -8.94945
29 1 22.0141 6.28942 22.0136 -8.9495
27 1 18.8698 3.14412 22.0135 -8.94912
21 1 9.43437 3.14411 22.0134 -8.94948
43 1 22.0141 9.43441 22.0136 -8.94952
539 1 20.4413 20.4419 11.0071 -8.94953
688 3 10.2637 11.0536 9.45523 2.21708
346 1 7.86184 11.0068 1.57171 -8.94868
347 1 11.0074 11.0069 1.57146 -8.94637
348 1 14.1546 11.007 1.56841 -8.94972
687 2 10.9227 12.4539 10.1978 0.352832
529 1 11.0059 17.3055 11.0066 -8.96021
154 1 18.8693 22.014 9.43451 -8.94956
352 1 1.57209 14.1519 1.57173 -8.9494
353 1 3.14438 12.5793 -0.000411107 -8.94952
354 1 4.71641 14.1517 1.57113 -8.94952
149 1 3.14349 22.0142 9.43452 -8.94944
356 1 7.86149 14.1523 1.56919 -8.95317
393 1 1.5718 11.0068 4.71625 -8.94949
358 1 11.007 14.153 1.5692 -8.95068
399 1 20.4429 11.0069 4.71628 -8.94992
360 1 14.1539 14.1536 1.56857 -8.95159
361 1 15.7258 12.5799 -0.00122912 -8.9494
362 1 17.2986 14.1528 1.5708 -8.9492
363 1 18.8701 12.5796 -0.000491793 -8.94947
364 1 20.4422 14.1522 1.57171 -8.94943
109 1 15.7248 22.0142 6.28954 -8.94952
366 1 1.57176 17.2971 1.57154 -8.94984
103 1 6.2887 22.0146 6.28873 -8.95068
368 1 4.71546 17.2983 1.56986 -8.94948
369 1 6.28892 15.7248 -0.0014254 -8.95092
370 1 7.86144 17.2982 1.57019 -8.94918
99 1 22.0134 22.014 6.28939 -8.94951
372 1 11.0072 17.2983 1.5704 -8.94933
62 1 18.8693 22.014 3.14457 -8.94968
374 1 14.1528 17.2983 1.57062 -8.94963
375 1 15.7255 15.7255 -0.00121963 -8.9501
376 1 17.2984 17.2984 1.57091 -8.94835
58 1 12.5798 22.0141 3.14397 -8.94951
378 1 20.442 17.2973 1.57178 -8.94957
1 1 22.0137 22.014 -0.000248845 -8.94917
380 1 1.57161 20.4421 1.5716 -8.94899
381 1 3.14402 18.8698 -0.000765219 -8.94944
382 1 4.71653 20.4422 1.57136 -8.94957
56 1 9.43457 22.0141 3.14381 -8.94953
384 1 7.86186 20.4422 1.57142 -8.94943
385 1 9.43445 18.8699 -0.000752612 -8.94948
386 1 11.0071 20.4422 1.5715 -8.94947
387 1 12.5797 18.8699 -0.00068135 -8.94943
388 1 14.1523 20.4421 1.57165 -8.94942
52 1 3.14377 22.0142 3.14376 -8.94948
390 1 17.2973 20.4421 1.57175 -8.94947
391 1 18.8698 18.8698 -0.000387039 -8.94917
392 1 20.4415 20.4419 1.57203 -8.94952
511 1 18.8694 18.8699 9.43449 -8.94955
510 1 15.7252 18.8703 9.43447 -8.94956
395 1 7.86311 11.0066 4.71691 -8.94711
396 1 11.0121 11.0068 4.72015 -9.00568
397 1 14.1625 11.0072 4.70679 -8.94466
509 1 12.5801 18.871 9.4337 -8.94767
508 1 9.43336 18.8724 9.43374 -8.94561
400 1 0.000225402 12.5795 3.144 -8.94955
401 1 1.57132 14.1519 4.71633 -8.94981
402 1 3.14382 12.5793 3.14362 -8.94902
403 1 4.71373 14.1524 4.71445 -8.95098
404 1 6.28856 12.5787 3.14296 -8.94857
405 1 7.85441 14.1603 4.70298 -8.95536
406 1 9.43508 12.5796 3.14221 -8.9519
407 1 11.0077 14.1575 4.70715 -8.95189
408 1 12.5828 12.5808 3.13713 -8.95789
409 1 14.1646 14.1636 4.70462 -8.93219
410 1 15.7286 12.5809 3.14081 -8.94735
411 1 17.3013 14.154 4.71476 -8.95117
412 1 18.8712 12.5798 3.14341 -8.94927
413 1 20.4426 14.1523 4.71645 -8.95019
414 1 22.0138 15.7246 3.14406 -8.94983
415 1 1.57018 17.2981 4.71569 -8.94986
416 1 3.14308 15.7249 3.14309 -8.95029
417 1 4.71102 17.3026 4.71119 -8.94273
418 1 6.28568 15.728 3.13841 -8.95015
419 1 7.85984 17.3022 4.71257 -8.94861
420 1 9.43396 15.7276 3.13997 -8.94809
421 1 11.0079 17.3013 4.71328 -8.94664
422 1 12.5811 15.7274 3.1405 -8.94926
423 1 14.1553 17.3019 4.71375 -8.94978
424 1 15.7289 15.7286 3.14033 -8.94511
425 1 17.2983 17.2983 4.71631 -8.95005
426 1 18.8709 15.7255 3.14354 -8.9498
427 1 20.4416 17.2975 4.71662 -8.94982
428 1 22.0132 18.8698 3.14404 -8.94952
429 1 1.57134 20.4422 4.7165 -8.94944
430 1 3.14263 18.871 3.14261 -8.94771
431 1 4.71553 20.4435 4.71554 -8.94994
432 1 6.28834 18.8713 3.14253 -8.94951
433 1 7.86165 20.4434 4.71578 -8.94977
434 1 9.43443 18.8711 3.14287 -8.94924
435 1 11.0074 20.4431 4.71598 -8.9496
436 1 12.5802 18.871 3.14317 -8.9489
437 1 14.1526 20.4428 4.71653 -8.95069
438 1 15.7258 18.8712 3.14332 -8.94943
439 1 17.2972 20.4421 4.71697 -8.94966
440 1 18.8697 18.8699 3.14426 -8.94977
441 1 20.4414 20.4419 4.71693 -8.94951
507 1 6.28601 18.8746 9.4345 -8.94951
506 1 3.14234 18.8712 9.43453 -8.94934
444 1 7.87792 10.9999 7.86172 -8.9563
505 1 22.013 18.87 9.43451 -8.94948
446 1 14.1626 11.0016 7.85024 -9.00259
504 1 18.8704 15.7255 9.4344 -8.94927
503 1 15.727 15.7263 9.43424 -8.94641
449 1 22.0141 12.5793 6.28914 -8.94992
450 1 1.5698 14.1523 7.86171 -8.9522
451 1 3.14288 12.5788 6.28867 -8.94997
452 1 4.7056 14.1566 7.85919 -8.96104
453 1 6.28434 12.5777 6.28668 -8.95186
454 1 7.81306 14.2022 7.81538 -8.85425
455 1 9.41668 12.6046 6.27848 -8.95504
456 1 11.0166 14.1624 7.83396 -8.95857
457 1 12.6177 12.6131 6.25655 -8.90208
458 1 14.1573 14.1567 7.86194 -8.97453
459 1 15.7345 12.5819 6.2861 -8.95866
460 1 17.3004 14.1535 7.8615 -8.94824
461 1 18.8721 12.5797 6.28889 -8.95124
462 1 20.4423 14.1524 7.86179 -8.95004
463 1 22.0129 15.725 6.28899 -8.95042
464 1 1.57001 17.2983 7.86149 -8.94926
465 1 3.13919 15.727 6.28694 -8.95177
466 1 4.71165 17.302 7.86012 -8.94715
467 1 6.27213 15.7417 6.27311 -8.92289
468 1 7.85687 17.3092 7.85878 -8.96078
469 1 9.43299 15.7371 6.28026 -8.94772
470 1 11.0057 17.2999 7.86109 -8.95168
471 1 12.5856 15.7359 6.28159 -8.95383
472 1 14.1531 17.2992 7.86181 -8.94908
473 1 15.7277 15.7271 6.28828 -8.95039
474 1 17.2979 17.2981 7.86184 -8.94933
475 1 18.8705 15.7254 6.28907 -8.94958
476 1 20.4414 17.2976 7.86183 -8.94955
477 1 -0.000838774 18.8699 6.28919 -8.94943
478 1 1.57125 20.4423 7.86181 -8.94944
479 1 3.14239 18.8712 6.28834 -8.94909
480 1 4.7153 20.4435 7.86143 -8.94936
481 1 6.2865 18.8748 6.28678 -8.95167
482 1 7.8612 20.4447 7.86145 -8.95182
483 1 9.43448 18.8735 6.28752 -8.95096
484 1 11.0071 20.4429 7.8619 -8.94921
485 1 12.58 18.8721 6.28875 -8.95267
486 1 14.1526 20.4426 7.86187 -8.94937
487 1 15.7252 18.8706 6.28935 -8.94946
488 1 17.2972 20.4421 7.862 -8.94961
489 1 18.8695 18.8699 6.2894 -8.94951
490 1 20.4413 20.4419 7.86197 -8.94954
491 1 22.0142 12.5793 9.43445 -8.9495
492 1 3.14355 12.5793 9.43443 -8.94864
493 1 6.28893 12.5892 9.43401 -8.98809
494 1 9.28611 12.8089 9.41161 -8.35436
495 1 12.6146 12.5727 9.41304 -9.1103
496 1 15.7342 12.5785 9.43373 -8.9584
497 1 18.8723 12.5796 9.43433 -8.95087
498 1 -0.00118501 15.7252 9.43447 -8.95003
499 1 3.13925 15.7275 9.43448 -8.94914
500 1 6.27642 15.7375 9.43442 -8.94214
501 1 9.42484 15.7251 9.43141 -9.05438
502 1 12.5784 15.7248 9.43129 -8.99549
526 1 1.57007 17.2983 11.0075 -8.94922
11 1 15.7246 22.0139 -0.000318141 -8.94952
5 1 6.28941 22.014 -0.000432559 -8.9495
527 1 4.71189 17.3019 11.0088 -8.94682
532 1 20.4414 17.2976 11.0071 -8.94951
534 1 4.71535 20.4435 11.0076 -8.94929
538 1 17.2972 20.4421 11.007 -8.94952
365 1 22.014 15.7244 -0.000303526 -8.9495
686 1 20.4417 20.4418 20.4415 -8.94922
685 1 18.8698 18.8698 18.8696 -8.94908
514 1 7.88165 11.0044 11.0039 -8.96385
684 1 17.2971 20.4418 20.4415 -8.94961
516 1 14.1647 11.0046 11.0189 -9.02276
683 1 15.7248 18.8699 18.8696 -8.94973
682 1 14.1521 20.4418 20.4414 -8.94949
519 1 1.56993 14.1523 11.0072 -8.95206
520 1 4.70612 14.1564 11.0093 -8.96011
521 1 7.81622 14.1968 11.0486 -8.88679
522 1 11.019 14.1877 11.0361 -9.14594
523 1 14.1608 14.1552 11.0073 -8.9978
524 1 17.3011 14.1535 11.0071 -8.94901
525 1 20.4425 14.1524 11.0071 -8.95012
594 1 17.2992 11.0069 17.2989 -8.94934
590 1 4.71633 11.0068 17.2978 -8.94948
528 1 7.85783 17.3077 11.0088 -8.96057
307 1 18.8695 22.0139 18.8694 -8.94936
530 1 14.1524 17.2982 11.0061 -8.95031
531 1 17.2979 17.298 11.007 -8.949
295 1 22.0137 22.014 18.8693 -8.94921
533 1 1.57127 20.4423 11.0072 -8.94943
377 1 18.87 15.7249 22.0134 -8.94946
535 1 7.86141 20.4443 11.0073 -8.95162
536 1 11.0071 20.4438 11.0069 -8.95143
537 1 14.1523 20.4423 11.0069 -8.94934
373 1 12.5797 15.7252 22.0126 -8.94967
303 1 12.5796 22.0139 18.8694 -8.94951
681 1 12.5796 18.8698 18.8695 -8.94946
680 1 11.007 20.4419 20.4414 -8.94952
679 1 9.43448 18.8698 18.8695 -8.94951
543 1 11.0126 11.0056 14.1512 -9.05967
678 1 7.86196 20.4418 20.4414 -8.94952
677 1 6.2893 18.8697 18.8697 -8.94962
676 1 4.7169 20.4418 20.4415 -8.94958
547 1 22.0143 12.5793 12.5798 -8.95009
548 1 1.57138 14.1519 14.1527 -8.94996
549 1 3.14282 12.5788 12.5802 -8.95032
550 1 4.71348 14.1525 14.1544 -8.95146
551 1 6.28363 12.5776 12.5819 -8.9535
552 1 7.85284 14.1608 14.1662 -8.95195
553 1 9.41076 12.6046 12.5966 -8.93005
554 1 11.0079 14.1535 14.1553 -8.99057
555 1 12.6297 12.6134 12.6241 -8.89435
556 1 14.1681 14.1654 14.1671 -8.92695
557 1 15.7383 12.5819 12.5844 -8.95913
558 1 17.3026 14.1545 14.1549 -8.95125
559 1 18.8731 12.5797 12.5802 -8.95196
560 1 20.443 14.1524 14.1527 -8.95033
561 1 22.013 15.725 12.58 -8.95037
562 1 1.57034 17.298 14.1533 -8.94981
563 1 3.13949 15.7269 12.5818 -8.95156
564 1 4.71152 17.3021 14.1573 -8.94341
565 1 6.27337 15.7401 12.594 -8.92605
566 1 7.86029 17.3014 14.1553 -8.9497
567 1 9.43232 15.733 12.5841 -8.98111
568 1 11.0079 17.2992 14.1533 -8.94844
569 1 12.5865 15.7319 12.5835 -8.97897
570 1 14.1549 17.3014 14.1545 -8.95115
571 1 15.7285 15.7272 12.5806 -8.95
572 1 17.2985 17.2985 14.1527 -8.94986
573 1 18.8708 15.7255 12.5799 -8.94963
574 1 20.4417 17.2975 14.1524 -8.94978
575 1 -0.000795825 18.8699 12.5798 -8.94941
576 1 1.57139 20.4422 14.1525 -8.94943
577 1 3.14251 18.8711 12.5806 -8.94906
578 1 4.71566 20.4433 14.1534 -8.95004
579 1 6.28684 18.8742 12.5818 -8.95198
580 1 7.86156 20.4432 14.1532 -8.94953
581 1 9.434 18.8733 12.5814 -8.94898
582 1 11.0074 20.4426 14.1528 -8.94923
583 1 12.5804 18.872 12.5802 -8.95047
584 1 14.1527 20.4427 14.1525 -8.95049
585 1 15.7251 18.8703 12.5794 -8.95006
586 1 17.2972 20.4421 14.152 -8.94981
587 1 18.8695 18.8699 12.5796 -8.9495
588 1 20.4414 20.4419 14.1521 -8.94953
589 1 1.57217 11.0069 17.2974 -8.94952
675 1 3.14404 18.8698 18.8698 -8.9494
674 1 1.57201 20.4418 20.4415 -8.94931
673 1 22.0139 18.8695 18.8695 -8.94955
672 1 20.4419 17.297 20.4415 -8.94951
671 1 18.8701 15.7249 18.8698 -8.94943
595 1 20.4425 11.0069 17.2976 -8.94947
596 1 0.000360676 12.5795 15.7251 -8.94959
597 1 1.57209 14.1519 17.2974 -8.94939
598 1 3.14368 12.5793 15.7255 -8.949
599 1 4.71631 14.1518 17.298 -8.94947
600 1 6.28812 12.5789 15.7264 -8.94808
601 1 7.86134 14.1525 17.2999 -8.95332
602 1 9.43493 12.5796 15.7276 -8.95411
603 1 11.007 14.153 17.2989 -8.94843
604 1 12.5835 12.5809 15.7341 -8.96107
605 1 14.1543 14.1539 17.3012 -8.95201
606 1 15.7299 12.5811 15.7295 -8.9467
607 1 17.299 14.1531 17.2987 -8.94907
608 1 18.8717 12.5799 15.726 -8.94921
609 1 20.4424 14.1522 17.2975 -8.94941
610 1 22.0139 15.7247 15.725 -8.94988
611 1 1.57179 17.2972 17.2975 -8.94982
612 1 3.14305 15.725 15.7259 -8.95032
613 1 4.71547 17.2983 17.2991 -8.94923
614 1 6.2855 15.7282 15.7305 -8.9491
615 1 7.86173 17.2978 17.2983 -8.94955
616 1 9.43467 15.7264 15.727 -8.94876
617 1 11.0072 17.2979 17.2979 -8.94915
618 1 12.5804 15.7264 15.7269 -8.94984
619 1 14.1526 17.2981 17.2981 -8.94998
620 1 15.7297 15.7295 15.7295 -8.94361
621 1 17.2986 17.2986 17.2984 -8.94795
622 1 18.8713 15.7257 15.7257 -8.94973
623 1 20.4421 17.2974 17.2974 -8.94953
624 1 22.0133 18.8698 15.725 -8.94951
625 1 1.57165 20.442 17.2974 -8.94905
626 1 3.14279 18.8709 15.7263 -8.9479
627 1 4.71656 20.4422 17.2976 -8.94963
628 1 6.28852 18.8711 15.7262 -8.94976
629 1 7.86195 20.442 17.2975 -8.94954
630 1 9.43467 18.8705 15.7256 -8.94967
631 1 11.0071 20.442 17.2974 -8.9495
632 1 12.5799 18.8704 15.7254 -8.94932
633 1 14.1522 20.442 17.2973 -8.94954
634 1 15.7257 18.8712 15.7256 -8.94975
635 1 17.2974 20.4421 17.2973 -8.94954
636 1 18.8697 18.87 15.7248 -8.94974
637 1 20.4415 20.4419 17.297 -8.94954
670 1 17.2976 17.2976 20.4416 -8.94955
669 1 15.7256 15.7257 18.8707 -8.95008
668 1 14.1522 17.2975 20.4414 -8.94957
667 1 12.5796 15.7252 18.87 -8.94945
666 1 11.007 17.2975 20.4413 -8.94953
665 1 9.43433 15.7251 18.8699 -8.9495
664 1 7.86178 17.2974 20.4413 -8.94957
645 1 22.0141 12.5795 18.8695 -8.94951
646 1 1.57225 14.1519 20.4415 -8.94951
647 1 3.14436 12.5793 18.8696 -8.94952
648 1 4.71675 14.1518 20.4415 -8.94953
649 1 6.28909 12.5792 18.8698 -8.94942
650 1 7.86184 14.1519 20.4415 -8.95072
651 1 9.43454 12.5793 18.8699 -8.94985
652 1 11.0068 14.1523 20.4413 -8.94998
653 1 12.5798 12.5796 18.8711 -8.95176
654 1 14.1525 14.1525 20.4417 -8.95075
655 1 15.726 12.58 18.8709 -8.9494
656 1 17.2978 14.1525 20.4417 -8.94937
657 1 18.8702 12.5797 18.8698 -8.94944
658 1 20.442 14.1521 20.4416 -8.9495
659 1 22.0141 15.7245 18.8695 -8.94948
660 1 1.57217 17.2969 20.4415 -8.94968
661 1 3.14432 15.7244 18.8696 -8.94968
662 1 4.71653 17.2973 20.4415 -8.95013
663 1 6.28888 15.7249 18.8705 -8.95088
197 1 22.0134 22.014 12.5796 -8.94951
199 1 3.14358 22.0142 12.58 -8.94934
203 1 9.43458 22.0144 12.5801 -8.95031
205 1 12.5798 22.0142 12.5797 -8.95034
209 1 18.8693 22.014 12.5795 -8.94953
250 1 6.2891 22.0141 15.7253 -8.94959
389 1 15.7248 18.8699 22.0133 -8.94962
383 1 6.28922 18.8698 22.0131 -8.9495
256 1 15.725 22.0139 15.7249 -8.95006
297 1 3.14437 22.014 18.8695 -8.94955
301 1 9.43449 22.0139 18.8695 -8.94951
351 1 22.0141 12.5794 22.0136 -8.94953
355 1 6.28916 12.5792 22.0133 -8.94946
371 1 9.43425 15.7252 22.0125 -8.94975
367 1 3.14433 15.7243 22.0134 -8.94968
357 1 9.43451 12.5792 22.0132 -8.94954
359 1 12.5798 12.5796 22.0124 -8.95119
379 1 22.0138 18.8694 22.0136 -8.94957
