ITEM: TIMESTEP
58
ITEM: NUMBER OF ATOMS
688
ITEM: BOX BOUNDS pp pp pp
0.0000000000000000e+00 2.2013900999999997e+01
0.0000000000000000e+00 2.2013900999999997e+01
0.0000000000000000e+00 2.2013900999999997e+01
ITEM: ATOMS id type x y z c_pot
189 1 20.4415 4.71721 11.007 -8.94962
2 1 1.57239 1.5724 1.57239 -8.94953
448 1 20.442 11.0069 7.86204 -8.95006
4 1 4.71726 1.5724 1.5724 -8.9497
447 1 17.3001 11.0062 7.86171 -8.95078
6 1 7.8621 1.57239 1.57239 -8.94962
7 1 9.43453 8.38604e-07 -7.36158e-06 -8.94964
8 1 11.007 1.57239 1.57238 -8.94964
445 1 11.0863 10.9991 7.63124 -8.15193
10 1 14.1518 1.5724 1.57239 -8.94961
443 1 4.71682 11.0068 7.86145 -8.94269
12 1 17.2967 1.57237 1.57238 -8.94958
442 1 1.57193 11.0069 7.86182 -8.94886
14 1 20.4415 1.57242 1.57242 -8.94964
188 1 17.2969 4.717 11.007 -8.94934
16 1 1.5724 4.71725 1.5724 -8.9497
398 1 17.2981 11.007 4.71645 -8.94929
18 1 4.71704 4.71705 1.57207 -8.94949
394 1 4.71632 11.0069 4.71614 -8.9473
20 1 7.86207 4.71708 1.57218 -8.94942
50 1 -4.33688e-06 7.1266e-07 3.14484 -8.94966
22 1 11.007 4.71706 1.57217 -8.94958
183 1 1.57216 4.7171 11.007 -8.94948
24 1 14.1518 4.7171 1.57224 -8.94981
349 1 17.2968 11.007 1.57221 -8.94964
26 1 17.2969 4.71701 1.57217 -8.94891
345 1 4.71706 11.0069 1.57214 -8.94961
28 1 20.4415 4.71723 1.57239 -8.94959
165 1 9.43118 6.2872 9.43414 -8.99518
30 1 1.5724 7.8621 1.57239 -8.9496
164 1 6.28408 6.28404 9.4345 -8.94408
32 1 4.71718 7.86218 1.57228 -8.94969
163 1 3.14333 6.28893 9.43452 -8.94912
34 1 7.86184 7.86189 1.5713 -8.95128
35 1 9.43447 6.28951 -0.000235484 -8.94956
36 1 11.0067 7.86162 1.57121 -8.94979
37 1 12.5794 6.28955 -0.000199782 -8.94956
38 1 14.1524 7.86143 1.57082 -8.95085
162 1 -0.000201739 6.28957 9.43453 -8.94975
40 1 17.2968 7.86204 1.57221 -8.94968
161 1 18.8691 3.1448 9.43453 -8.94965
42 1 20.4415 7.8621 1.57239 -8.94963
350 1 20.4415 11.007 1.57239 -8.94963
44 1 3.1448 9.43452 -4.05877e-05 -8.94961
160 1 15.7244 3.14453 9.43452 -8.94962
159 1 12.5797 3.14441 9.43446 -8.94875
158 1 9.43466 3.14325 9.43447 -8.94877
48 1 15.7244 9.43448 -0.000237457 -8.94951
157 1 6.28893 3.14335 9.43453 -8.94928
175 1 18.8696 9.4342 9.43452 -8.94853
51 1 1.5724 1.5724 4.71726 -8.94967
174 1 15.7246 9.43392 9.43462 -8.94172
53 1 4.71707 1.57217 4.71707 -8.9497
54 1 6.28968 1.23974e-05 3.1448 -8.94963
55 1 7.86211 1.57224 4.71713 -8.9496
173 1 12.5652 9.44154 9.4329 -8.96171
57 1 11.007 1.5722 4.71709 -8.94959
172 1 9.35934 9.22937 9.43323 -8.2075
59 1 14.1519 1.57217 4.71715 -8.94998
60 1 15.7243 6.61936e-06 3.14479 -8.94969
61 1 17.2967 1.57241 4.71726 -8.94965
171 1 6.2801 9.42992 9.4347 -8.97052
63 1 20.4415 1.57242 4.71726 -8.94963
64 1 22.0139 3.14481 3.14481 -8.94961
65 1 1.57211 4.71709 4.71709 -8.94963
66 1 3.1446 3.14461 3.1446 -8.94898
67 1 4.71574 4.71575 4.71572 -8.94614
68 1 6.28964 3.14466 3.14468 -8.94981
69 1 7.86197 4.71619 4.71645 -8.94967
70 1 9.43451 3.14459 3.14463 -8.94955
71 1 11.0071 4.71599 4.71632 -8.94841
72 1 12.5794 3.1446 3.14465 -8.94942
73 1 14.1528 4.71532 4.71628 -8.94998
74 1 15.7244 3.14448 3.14462 -8.94953
75 1 17.2968 4.71709 4.71723 -8.94998
76 1 18.8691 3.14482 3.14483 -8.94971
77 1 20.4415 4.71723 4.71725 -8.94968
78 1 22.0139 6.28966 3.1448 -8.94966
79 1 1.57224 7.8621 4.71713 -8.94963
80 1 3.14467 6.28966 3.14469 -8.94992
81 1 4.71636 7.86216 4.71659 -8.95054
82 1 6.28864 6.2887 3.14297 -8.94966
83 1 7.85833 7.85845 4.71024 -8.95221
84 1 9.43432 6.28876 3.14362 -8.94832
85 1 11.0065 7.85913 4.71199 -8.95021
86 1 12.5795 6.28884 3.14375 -8.9495
87 1 14.1604 7.85354 4.70875 -8.93085
88 1 15.7259 6.288 3.14319 -8.94568
89 1 17.2985 7.86117 4.71633 -8.95002
90 1 18.8694 6.28948 3.14463 -8.94955
91 1 20.4417 7.862 4.71714 -8.94985
92 1 -6.08444e-06 9.43452 3.14479 -8.94961
93 1 3.14464 9.43451 3.14462 -8.94936
94 1 6.28938 9.43497 3.1443 -8.94958
95 1 9.43429 9.43432 3.14282 -8.95119
96 1 12.5807 9.43342 3.13888 -8.95778
97 1 15.7253 9.43419 3.14358 -8.94892
98 1 18.8693 9.43451 3.14467 -8.94953
170 1 3.14269 9.43483 9.43453 -8.95145
100 1 1.57239 1.5724 7.8621 -8.94965
101 1 3.14479 7.39852e-06 6.28967 -8.94959
102 1 4.71708 1.57219 7.86206 -8.94949
169 1 22.0136 9.43453 9.43452 -8.94989
104 1 7.86199 1.57166 7.86198 -8.95094
105 1 9.43459 6.76995e-05 6.28954 -8.94992
106 1 11.0071 1.57202 7.86203 -8.94971
107 1 12.5795 4.15963e-05 6.28959 -8.95005
108 1 14.1519 1.57231 7.8621 -8.9496
168 1 18.8694 6.28943 9.43451 -8.94954
110 1 17.2967 1.57238 7.8621 -8.94962
111 1 18.8691 1.56634e-06 6.28968 -8.94963
112 1 20.4415 1.57242 7.86211 -8.94964
113 1 -2.8738e-05 3.14482 6.28968 -8.94961
114 1 1.57216 4.7171 7.86206 -8.94948
115 1 3.14465 3.14466 6.28962 -8.94963
116 1 4.71617 4.71614 7.86174 -8.94867
117 1 6.28904 3.14335 6.28902 -8.95065
118 1 7.86061 4.71158 7.86099 -8.95673
119 1 9.43477 3.14368 6.28924 -8.94991
120 1 11.0072 4.71527 7.8619 -8.95031
121 1 12.5796 3.14369 6.28946 -8.95134
122 1 14.1522 4.71654 7.86247 -8.94946
123 1 15.7243 3.14467 6.28973 -8.94965
124 1 17.2969 4.71701 7.86207 -8.94932
125 1 18.8691 3.14481 6.28968 -8.94959
126 1 20.4415 4.71721 7.86209 -8.94961
127 1 22.0137 6.2896 6.28962 -8.94988
128 1 1.57144 7.86199 7.86199 -8.95093
129 1 3.14325 6.28897 6.28896 -8.95041
130 1 4.71096 7.86024 7.86057 -8.95638
131 1 6.28196 6.28202 6.28201 -8.93357
132 1 7.82952 7.8318 7.83441 -8.86785
133 1 9.43486 6.28446 6.28716 -8.95158
134 1 11.0179 7.85555 7.84562 -8.91578
135 1 12.5827 6.28239 6.28631 -8.95443
136 1 14.1546 7.86022 7.86427 -8.9526
137 1 15.7251 6.2889 6.28979 -8.95092
138 1 17.2976 7.86158 7.86244 -8.94968
139 1 18.8692 6.28955 6.2897 -8.94968
140 1 20.4416 7.862 7.86211 -8.94979
141 1 22.0139 9.43449 6.28957 -8.94986
142 1 3.14388 9.43474 6.28921 -8.94965
143 1 6.28638 9.43588 6.28815 -8.95094
144 1 9.42164 9.4154 6.28149 -8.90516
145 1 12.6154 9.40216 6.25654 -8.85148
146 1 15.7319 9.43182 6.28676 -8.95513
147 1 18.8704 9.43422 6.28937 -8.95094
148 1 -5.86974e-06 8.29948e-07 9.43453 -8.94964
167 1 15.7254 6.28839 9.43444 -8.947
150 1 6.28949 4.90018e-05 9.43454 -8.94991
151 1 9.43453 0.00022569 9.43445 -8.94985
152 1 12.5796 0.0002052 9.43445 -8.94957
153 1 15.7243 1.35855e-05 9.43453 -8.94967
166 1 12.5786 6.28984 9.43412 -8.94599
155 1 22.0139 3.14481 9.43453 -8.94963
156 1 3.14464 3.14465 9.43453 -8.94965
181 1 17.2967 1.57238 11.007 -8.94962
344 1 1.57239 11.0069 1.57238 -8.94965
177 1 4.71708 1.57219 11.007 -8.94949
184 1 4.71617 4.71614 11.0073 -8.94867
45 1 6.28959 9.43455 -0.000111411 -8.94958
41 1 18.8691 6.28968 -2.2348e-05 -8.94968
19 1 6.28968 3.14482 -2.60485e-05 -8.94962
25 1 15.7242 3.14482 -2.22168e-05 -8.9497
176 1 1.57239 1.5724 11.007 -8.94965
254 1 12.5794 -5.7154e-06 15.7243 -8.94957
178 1 7.862 1.57164 11.007 -8.95087
179 1 11.0071 1.57207 11.007 -8.95023
180 1 14.1519 1.57229 11.0069 -8.94955
644 1 20.4415 11.007 20.4415 -8.94964
182 1 20.4415 1.57242 11.007 -8.94964
643 1 17.2967 11.0069 20.4415 -8.94961
252 1 9.43453 -5.51144e-06 15.7243 -8.94961
185 1 7.86066 4.71165 11.0079 -8.95667
186 1 11.0072 4.71457 11.0071 -8.95162
187 1 14.1522 4.71654 11.0064 -8.94943
642 1 14.152 11.007 20.4415 -8.95
641 1 11.0069 11.0069 20.4414 -8.94952
190 1 1.57143 7.86198 11.0071 -8.95095
191 1 4.71088 7.86017 11.0085 -8.95614
192 1 7.82955 7.83205 11.034 -8.86691
193 1 11.0178 7.85127 11.023 -8.9266
194 1 14.1549 7.86021 11.0039 -8.95116
195 1 17.2977 7.8615 11.0066 -8.94948
196 1 20.4416 7.86199 11.0069 -8.94981
343 1 18.8691 9.43452 18.8691 -8.94966
198 1 1.5724 1.5724 14.1518 -8.94967
342 1 15.7244 9.43445 18.8694 -8.94948
200 1 4.71708 1.57216 14.152 -8.94972
201 1 6.28955 2.68204e-05 12.5795 -8.95012
202 1 7.86208 1.57224 14.152 -8.94962
341 1 12.5794 9.43447 18.8699 -8.95106
204 1 11.007 1.57218 14.152 -8.94954
340 1 9.43445 9.43451 18.8694 -8.94975
206 1 14.1519 1.57216 14.1519 -8.95002
207 1 15.7243 1.0138e-05 12.5794 -8.94962
208 1 17.2967 1.5724 14.1518 -8.94967
339 1 6.28956 9.43452 18.8693 -8.94954
210 1 20.4415 1.57242 14.1518 -8.94963
211 1 -2.88357e-05 3.14482 12.5794 -8.94961
212 1 1.57211 4.71708 14.152 -8.94963
213 1 3.14465 3.14466 12.5794 -8.94963
214 1 4.71574 4.71576 14.1533 -8.94621
215 1 6.28905 3.14337 12.58 -8.95066
216 1 7.86186 4.71602 14.1527 -8.94969
217 1 9.43471 3.14356 12.5799 -8.95
218 1 11.0071 4.71587 14.1528 -8.94833
219 1 12.5797 3.14352 12.5796 -8.9515
220 1 14.153 4.71504 14.1529 -8.95007
221 1 15.7243 3.14467 12.5793 -8.94965
222 1 17.2968 4.71709 14.1518 -8.95004
223 1 18.8691 3.1448 12.5794 -8.94959
224 1 20.4415 4.71723 14.1518 -8.94968
225 1 22.0137 6.2896 12.5794 -8.94988
226 1 1.57223 7.86209 14.1519 -8.94964
227 1 3.14324 6.28896 12.5801 -8.95036
228 1 4.71627 7.86214 14.1525 -8.95081
229 1 6.28198 6.28211 12.5869 -8.93381
230 1 7.85749 7.85764 14.1595 -8.95063
231 1 9.43442 6.28373 12.5821 -8.95152
232 1 11.0064 7.85877 14.1572 -8.95044
233 1 12.5832 6.28138 12.583 -8.95469
234 1 14.1617 7.85218 14.1616 -8.92781
235 1 15.7251 6.28892 12.5791 -8.95101
236 1 17.2987 7.86112 14.1527 -8.95042
237 1 18.8693 6.28954 12.5793 -8.94963
238 1 20.4418 7.862 14.1519 -8.94988
239 1 22.0139 9.43449 12.5795 -8.94988
240 1 3.14381 9.43474 12.5798 -8.94976
241 1 6.28593 9.43616 12.5806 -8.95313
242 1 9.41641 9.41259 12.5894 -8.9386
243 1 12.622 9.39793 12.6157 -8.87028
244 1 15.7327 9.4321 12.582 -8.95752
245 1 18.8705 9.43423 12.5796 -8.95111
246 1 -4.33995e-06 6.72082e-07 15.7242 -8.94966
247 1 1.57239 1.5724 17.2967 -8.94953
248 1 3.14478 4.72989e-06 15.7243 -8.94959
249 1 4.71725 1.5724 17.2967 -8.94968
338 1 3.1448 9.43452 18.8691 -8.94962
251 1 7.8621 1.57239 17.2967 -8.94962
337 1 22.0139 9.43453 18.8691 -8.94964
253 1 11.007 1.57239 17.2967 -8.94964
336 1 20.4415 7.86211 20.4415 -8.94964
255 1 14.1518 1.57239 17.2967 -8.94961
335 1 18.8691 6.28967 18.8691 -8.94966
257 1 17.2967 1.57237 17.2967 -8.94957
258 1 18.8691 2.49238e-06 15.7242 -8.94966
259 1 20.4415 1.57242 17.2966 -8.94964
260 1 22.0139 3.14481 15.7242 -8.94961
261 1 1.5724 4.71725 17.2967 -8.9497
262 1 3.1446 3.14461 15.7245 -8.94899
263 1 4.71702 4.71702 17.297 -8.94942
264 1 6.28962 3.14463 15.7244 -8.94979
265 1 7.86208 4.71709 17.2969 -8.94941
266 1 9.43451 3.14458 15.7244 -8.94952
267 1 11.007 4.71705 17.2969 -8.94957
268 1 12.5794 3.14458 15.7244 -8.94939
269 1 14.1518 4.7171 17.2968 -8.94981
270 1 15.7245 3.14442 15.7245 -8.94952
271 1 17.2969 4.71696 17.2969 -8.94878
272 1 18.8691 3.14481 15.7242 -8.94973
273 1 20.4415 4.71723 17.2967 -8.9496
274 1 22.0139 6.28966 15.7243 -8.94967
275 1 1.57239 7.86209 17.2967 -8.94959
276 1 3.14465 6.28965 15.7244 -8.94996
277 1 4.71714 7.86213 17.2968 -8.94956
278 1 6.28849 6.28853 15.7262 -8.94933
279 1 7.86191 7.86195 17.2978 -8.95162
280 1 9.43431 6.28874 15.7255 -8.94817
281 1 11.0067 7.86159 17.2979 -8.9498
282 1 12.5794 6.2888 15.7254 -8.94936
283 1 14.1524 7.86145 17.2984 -8.9513
284 1 15.7262 6.28769 15.7261 -8.94504
285 1 17.2969 7.86198 17.2969 -8.94952
286 1 18.8695 6.28946 15.7244 -8.94961
287 1 20.4415 7.86209 17.2967 -8.94961
288 1 -2.06395e-06 9.43451 15.7243 -8.94963
289 1 3.14457 9.43447 15.7245 -8.94934
290 1 6.28912 9.43473 15.725 -8.94886
291 1 9.43454 9.43464 15.7261 -8.95235
292 1 12.5805 9.4337 15.7303 -8.95922
293 1 15.7257 9.43392 15.7258 -8.94799
294 1 18.8694 9.43446 15.7245 -8.94949
49 1 18.8691 9.43453 22.0139 -8.94965
296 1 1.57241 1.57241 20.4415 -8.94961
334 1 17.2967 7.86209 20.4415 -8.94958
298 1 4.71727 1.57242 20.4415 -8.94964
299 1 6.28969 -2.03116e-06 18.8691 -8.94965
300 1 7.86211 1.57242 20.4415 -8.94964
333 1 15.7244 6.28949 18.8694 -8.94981
302 1 11.007 1.57242 20.4415 -8.94964
332 1 14.1519 7.86199 20.4415 -8.9502
304 1 14.1518 1.57242 20.4415 -8.94963
305 1 15.7242 -1.62553e-06 18.8691 -8.94965
306 1 17.2966 1.57242 20.4415 -8.94967
331 1 12.5794 6.28954 18.8693 -8.94955
308 1 20.4415 1.57242 20.4415 -8.9496
309 1 22.0139 3.14484 18.8691 -8.94964
310 1 1.57242 4.71727 20.4415 -8.94965
311 1 3.1448 3.1448 18.8691 -8.94957
312 1 4.71722 4.71722 20.4415 -8.9497
313 1 6.28968 3.14482 18.8691 -8.94962
314 1 7.86209 4.71721 20.4415 -8.94958
315 1 9.43453 3.1448 18.8691 -8.94964
316 1 11.007 4.71721 20.4415 -8.94963
317 1 12.5794 3.14481 18.8691 -8.94963
318 1 14.1518 4.71723 20.4415 -8.94962
319 1 15.7242 3.14482 18.8691 -8.94971
320 1 17.2967 4.7172 20.4415 -8.94959
321 1 18.8691 3.14481 18.8691 -8.9495
322 1 20.4415 4.71726 20.4415 -8.94965
323 1 22.0139 6.28968 18.8691 -8.94963
324 1 1.57241 7.8621 20.4415 -8.94963
325 1 3.14482 6.28969 18.8691 -8.94965
326 1 4.71723 7.86211 20.4415 -8.94961
327 1 6.28958 6.28959 18.8693 -8.95003
328 1 7.86204 7.86205 20.4415 -8.95004
329 1 9.43447 6.28951 18.8693 -8.94955
330 1 11.0069 7.86198 20.4415 -8.94989
512 1 1.57191 11.0069 11.0072 -8.94881
513 1 4.71683 11.0069 11.0075 -8.94217
515 1 11.0903 10.9704 11.257 -8.3289
517 1 17.3001 11.0063 11.0072 -8.95043
518 1 20.442 11.0069 11.007 -8.95001
540 1 1.57213 11.0069 14.152 -8.94961
541 1 4.71597 11.0069 14.1531 -8.94755
542 1 7.86156 11.0064 14.1528 -8.94584
544 1 14.1594 11.0065 14.1596 -8.94239
545 1 17.2986 11.007 14.1528 -8.94942
546 1 20.4418 11.007 14.1519 -8.94982
47 1 12.5794 9.43445 22.0131 -8.95104
591 1 7.86175 11.0069 17.2973 -8.94912
592 1 11.0067 11.0069 17.2976 -8.94676
593 1 14.1527 11.0069 17.2986 -8.94962
46 1 9.43441 9.43448 22.0135 -8.94979
638 1 1.57241 11.007 20.4415 -8.94964
639 1 4.71721 11.0069 20.4415 -8.94967
640 1 7.86202 11.0069 20.4415 -8.94963
3 1 3.14484 5.72298e-07 22.0139 -8.94966
39 1 15.7244 6.28949 22.0136 -8.94973
9 1 12.5794 8.87886e-07 22.0139 -8.94964
33 1 6.28957 6.28958 22.0136 -8.94996
13 1 18.8691 3.52797e-07 22.0139 -8.94961
15 1 22.0139 3.14484 22.0139 -8.94964
17 1 3.14481 3.14481 22.0139 -8.94958
31 1 3.14483 6.28969 22.0139 -8.94966
23 1 12.5794 3.14481 22.0139 -8.94963
29 1 22.0139 6.28969 22.0139 -8.94963
27 1 18.8691 3.14481 22.0139 -8.94952
21 1 9.43453 3.14481 22.0139 -8.94964
43 1 22.0139 9.43453 22.0139 -8.94964
539 1 20.4415 20.4415 11.007 -8.94964
688 3 10.2395 11.0386 9.44742 2.26501
346 1 7.86187 11.007 1.57207 -8.94886
347 1 11.0067 11.007 1.5711 -8.94822
348 1 14.1525 11.007 1.57088 -8.94936
687 2 10.9669 12.5242 10.2101 0.414015
529 1 11.0072 17.3074 11.0075 -8.9628
154 1 18.8691 22.0139 9.43453 -8.94964
352 1 1.57239 14.1518 1.57239 -8.9496
353 1 3.1448 12.5794 -4.09117e-05 -8.94962
354 1 4.71716 14.1517 1.57226 -8.94962
149 1 3.14478 22.0139 9.43453 -8.94961
356 1 7.86188 14.1519 1.57121 -8.95158
393 1 1.57217 11.0069 4.71704 -8.94952
358 1 11.0067 14.1522 1.57118 -8.95002
399 1 20.4417 11.007 4.71714 -8.94972
360 1 14.1524 14.1524 1.57092 -8.95086
361 1 15.7244 12.5794 -0.000229484 -8.94947
362 1 17.2968 14.1519 1.57223 -8.94961
363 1 18.8691 12.5794 -2.64059e-05 -8.94965
364 1 20.4415 14.1518 1.57239 -8.94961
109 1 15.7243 22.0139 6.28966 -8.94959
366 1 1.5724 17.2966 1.5724 -8.94973
103 1 6.28953 22.014 6.28952 -8.95011
368 1 4.71703 17.2969 1.57202 -8.94958
369 1 6.28957 15.7243 -0.000268617 -8.95004
370 1 7.86205 17.2969 1.57209 -8.94942
99 1 22.0139 22.0139 6.28968 -8.94964
372 1 11.007 17.2969 1.57209 -8.94955
62 1 18.8691 22.0139 3.14484 -8.94964
374 1 14.1519 17.2968 1.57219 -8.9498
375 1 15.7244 15.7244 -0.000261277 -8.94976
376 1 17.2969 17.2969 1.57218 -8.949
58 1 12.5794 22.0139 3.14478 -8.94958
378 1 20.4415 17.2967 1.57239 -8.94962
1 1 22.0139 22.0139 -4.18272e-06 -8.9496
380 1 1.57238 20.4415 1.57238 -8.9495
381 1 3.1448 18.8691 -5.07763e-05 -8.94959
382 1 4.71725 20.4415 1.57239 -8.94969
56 1 9.43452 22.0139 3.14478 -8.94962
384 1 7.8621 20.4415 1.57238 -8.94963
385 1 9.43453 18.8691 -4.48713e-05 -8.94963
386 1 11.007 20.4415 1.57237 -8.94965
387 1 12.5794 18.8691 -4.44582e-05 -8.94962
388 1 14.1518 20.4415 1.57238 -8.94961
52 1 3.14478 22.0139 3.14478 -8.94957
390 1 17.2967 20.4415 1.57238 -8.94958
391 1 18.8691 18.8691 -2.29214e-05 -8.94953
392 1 20.4415 20.4415 1.57241 -8.94963
511 1 18.8691 18.8691 9.43453 -8.94965
510 1 15.7245 18.8694 9.43455 -8.94956
395 1 7.86321 11.007 4.71754 -8.94863
396 1 11.0103 11.0066 4.71677 -9.00194
397 1 14.1573 11.0072 4.71124 -8.94615
509 1 12.5802 18.8704 9.43392 -8.94744
508 1 9.43418 18.8717 9.43394 -8.94742
400 1 -4.86176e-06 12.5794 3.14479 -8.94962
401 1 1.57224 14.1518 4.71713 -8.94957
402 1 3.14462 12.5794 3.14461 -8.94937
403 1 4.71644 14.1515 4.71657 -8.95073
404 1 6.2893 12.5789 3.14421 -8.94921
405 1 7.85876 14.155 4.70924 -8.95619
406 1 9.43439 12.5793 3.1431 -8.95007
407 1 11.0064 14.1542 4.71167 -8.95209
408 1 12.5806 12.5803 3.13951 -8.95646
409 1 14.1595 14.1595 4.70922 -8.93436
410 1 15.7253 12.5798 3.14369 -8.94833
411 1 17.2982 14.1525 4.71649 -8.95061
412 1 18.8693 12.5794 3.14466 -8.94947
413 1 20.4417 14.1519 4.71717 -8.94985
414 1 22.0139 15.7242 3.14481 -8.94967
415 1 1.57204 17.2969 4.71704 -8.94965
416 1 3.14469 15.7242 3.14469 -8.95002
417 1 4.71527 17.2986 4.71526 -8.94493
418 1 6.28862 15.7252 3.1427 -8.9503
419 1 7.86182 17.298 4.71603 -8.94917
420 1 9.43439 15.7252 3.14322 -8.94867
421 1 11.0072 17.2982 4.71595 -8.94757
422 1 12.5795 15.7251 3.14357 -8.94975
423 1 14.153 17.2986 4.71608 -8.94963
424 1 15.7258 15.7258 3.14322 -8.94628
425 1 17.297 17.2969 4.71709 -8.9496
426 1 18.8694 15.7244 3.14466 -8.94969
427 1 20.4415 17.2967 4.71721 -8.94963
428 1 22.0139 18.8691 3.1448 -8.94959
429 1 1.57239 20.4415 4.71725 -8.94969
430 1 3.14454 18.8693 3.14454 -8.94877
431 1 4.71704 20.4418 4.71703 -8.9497
432 1 6.28961 18.8693 3.14461 -8.94973
433 1 7.86209 20.4418 4.71707 -8.94959
434 1 9.43451 18.8694 3.14457 -8.94954
435 1 11.007 20.4418 4.71703 -8.94953
436 1 12.5794 18.8694 3.14459 -8.94935
437 1 14.1519 20.4418 4.71711 -8.94997
438 1 15.7245 18.8694 3.14459 -8.94947
439 1 17.2967 20.4415 4.71725 -8.94963
440 1 18.8691 18.8691 3.14481 -8.94964
441 1 20.4415 20.4415 4.71726 -8.94964
507 1 6.28873 18.8708 9.43457 -8.94934
506 1 3.14458 18.8693 9.43453 -8.94962
444 1 7.87421 11.0016 7.86457 -8.94868
505 1 22.0139 18.8691 9.43453 -8.94963
446 1 14.1651 11.0018 7.85316 -9.00257
504 1 18.8694 15.7245 9.43454 -8.94938
503 1 15.7254 15.7252 9.43469 -8.94786
449 1 22.0138 12.5794 6.28957 -8.94976
450 1 1.57127 14.1519 7.86196 -8.95127
451 1 3.14387 12.579 6.28919 -8.94931
452 1 4.70962 14.154 7.86013 -8.95801
453 1 6.28677 12.5767 6.28834 -8.95134
454 1 7.82168 14.1919 7.82333 -8.86621
455 1 9.42324 12.596 6.28429 -8.96142
456 1 11.0167 14.1602 7.84143 -8.95399
457 1 12.612 12.6091 6.26121 -8.90761
458 1 14.1574 14.1572 7.86093 -8.97842
459 1 15.7305 12.581 6.28804 -8.95684
460 1 17.2988 14.153 7.86162 -8.94853
461 1 18.8701 12.5795 6.28951 -8.95066
462 1 20.4418 14.152 7.862 -8.94996
463 1 22.0137 15.7243 6.28958 -8.94996
464 1 1.5721 17.2968 7.86207 -8.94946
465 1 3.14285 15.7251 6.28878 -8.95075
466 1 4.71588 17.298 7.86171 -8.94854
467 1 6.27958 15.7342 6.27958 -8.92689
468 1 7.86005 17.3041 7.86032 -8.95834
469 1 9.43501 15.731 6.285 -8.94857
470 1 11.0072 17.2992 7.86178 -8.9507
471 1 12.5829 15.7319 6.28531 -8.95341
472 1 14.1526 17.2982 7.86205 -8.94996
473 1 15.7258 15.7256 6.28898 -8.94913
474 1 17.2969 17.2969 7.86211 -8.94972
475 1 18.8695 15.7245 6.2895 -8.94945
476 1 20.4415 17.2967 7.8621 -8.94962
477 1 -3.61811e-05 18.8691 6.28968 -8.94962
478 1 1.57238 20.4415 7.8621 -8.94965
479 1 3.14461 18.8693 6.2896 -8.94965
480 1 4.71703 20.4418 7.86206 -8.94949
481 1 6.28884 18.871 6.28882 -8.95083
482 1 7.86187 20.4427 7.86186 -8.95104
483 1 9.43481 18.8706 6.28899 -8.95017
484 1 11.0071 20.4421 7.86199 -8.94964
485 1 12.5797 18.8704 6.28928 -8.95149
486 1 14.1521 20.4419 7.86199 -8.94952
487 1 15.7244 18.8694 6.28962 -8.9496
488 1 17.2967 20.4415 7.8621 -8.94964
489 1 18.8691 18.8691 6.28968 -8.94967
490 1 20.4415 20.4415 7.86211 -8.94964
491 1 22.0137 12.5793 9.43453 -8.9503
492 1 3.14244 12.579 9.43453 -8.95149
493 1 6.2798 12.5847 9.4342 -8.98327
494 1 9.29857 12.7992 9.41633 -8.33314
495 1 12.6211 12.573 9.41116 -9.13753
496 1 15.7343 12.5799 9.43402 -8.95916
497 1 18.871 12.5796 9.43451 -8.95155
498 1 -0.00022678 15.7243 9.43453 -8.94974
499 1 3.14305 15.7251 9.43456 -8.94912
500 1 6.28282 15.7309 9.43475 -8.94426
501 1 9.42893 15.7283 9.43221 -9.05114
502 1 12.5797 15.725 9.43206 -8.99721
526 1 1.5721 17.2968 11.007 -8.94946
11 1 15.7242 22.0139 -4.84294e-06 -8.94964
5 1 6.28968 22.0139 -6.98235e-06 -8.94963
527 1 4.71591 17.298 11.0074 -8.94818
532 1 20.4415 17.2967 11.007 -8.94961
534 1 4.71704 20.4418 11.007 -8.94945
538 1 17.2967 20.4416 11.007 -8.9496
365 1 22.0139 15.7242 -4.65494e-06 -8.94963
686 1 20.4415 20.4415 20.4415 -8.94961
685 1 18.8691 18.8691 18.8691 -8.94951
514 1 7.87515 11.0046 11.0032 -8.95735
684 1 17.2966 20.4415 20.4415 -8.94967
516 1 14.1648 11.0047 11.0144 -9.02312
683 1 15.7242 18.8691 18.8691 -8.94974
682 1 14.1518 20.4415 20.4415 -8.94963
519 1 1.57131 14.1519 11.0071 -8.95112
520 1 4.71 14.1538 11.0087 -8.95713
521 1 7.82428 14.1878 11.0429 -8.89631
522 1 11.0175 14.2008 11.039 -9.16746
523 1 14.1564 14.1545 11.007 -9
524 1 17.2986 14.1529 11.0073 -8.94806
525 1 20.4418 14.152 11.007 -8.94986
594 1 17.2969 11.0069 17.2969 -8.94963
590 1 4.71703 11.0069 17.297 -8.94962
528 1 7.86064 17.3032 11.008 -8.95811
307 1 18.8691 22.0139 18.8691 -8.9496
530 1 14.1521 17.2975 11.0064 -8.95023
531 1 17.2969 17.297 11.0069 -8.94937
295 1 22.0139 22.0139 18.8691 -8.94961
533 1 1.57238 20.4415 11.007 -8.94965
377 1 18.8691 15.7242 22.0139 -8.94967
535 1 7.86197 20.4425 11.007 -8.95089
536 1 11.0071 20.4432 11.007 -8.95225
537 1 14.1519 20.4417 11.0069 -8.94946
373 1 12.5794 15.7243 22.0137 -8.94961
303 1 12.5794 22.0139 18.8691 -8.94964
681 1 12.5794 18.8691 18.8691 -8.94961
680 1 11.007 20.4415 20.4415 -8.94964
679 1 9.43453 18.8691 18.8691 -8.94962
543 1 11.0103 11.007 14.1491 -9.05208
678 1 7.86211 20.4415 20.4415 -8.94964
677 1 6.28968 18.8691 18.8691 -8.94966
676 1 4.71726 20.4415 20.4415 -8.94964
547 1 22.0139 12.5794 12.5795 -8.94985
548 1 1.5722 14.1518 14.1519 -8.94965
549 1 3.14374 12.5791 12.5798 -8.94963
550 1 4.71615 14.1516 14.1526 -8.95092
551 1 6.28582 12.5769 12.5808 -8.95253
552 1 7.85733 14.1557 14.1607 -8.95275
553 1 9.41712 12.5967 12.5915 -8.94365
554 1 11.0064 14.1524 14.1547 -8.99772
555 1 12.6193 12.6093 12.6158 -8.89721
556 1 14.1611 14.1603 14.1613 -8.93024
557 1 15.732 12.5811 12.5815 -8.95744
558 1 17.2986 14.1526 14.1528 -8.95068
559 1 18.8703 12.5795 12.5795 -8.95106
560 1 20.4417 14.1519 14.1519 -8.94993
561 1 22.0137 15.7243 12.5795 -8.94994
562 1 1.57206 17.2968 14.152 -8.94965
563 1 3.14293 15.725 12.5802 -8.95071
564 1 4.71536 17.2984 14.1536 -8.94555
565 1 6.28002 15.7332 12.5885 -8.93031
566 1 7.86123 17.2985 14.1534 -8.94843
567 1 9.43145 15.7317 12.5847 -8.98111
568 1 11.0072 17.2977 14.1526 -8.94857
569 1 12.5861 15.7327 12.5849 -8.98151
570 1 14.1535 17.2992 14.1534 -8.94888
571 1 15.7259 15.7253 12.5797 -8.95092
572 1 17.297 17.2969 14.1519 -8.94988
573 1 18.8695 15.7245 12.5795 -8.94952
574 1 20.4415 17.2967 14.1518 -8.94964
575 1 -3.5555e-05 18.8691 12.5794 -8.94961
576 1 1.57239 20.4415 14.1518 -8.94967
577 1 3.14461 18.8693 12.5795 -8.94959
578 1 4.71705 20.4418 14.152 -8.94978
579 1 6.28892 18.8707 12.5801 -8.95111
580 1 7.86194 20.4419 14.1521 -8.94942
581 1 9.4341 18.8714 12.5806 -8.94884
582 1 11.007 20.4418 14.152 -8.94927
583 1 12.5803 18.8712 12.5803 -8.95009
584 1 14.1521 20.442 14.1521 -8.94981
585 1 15.7244 18.8693 12.5793 -8.94995
586 1 17.2967 20.4415 14.1518 -8.94972
587 1 18.8691 18.8691 12.5794 -8.94962
588 1 20.4415 20.4415 14.1518 -8.94964
589 1 1.57238 11.0069 17.2967 -8.94964
675 1 3.1448 18.8691 18.8691 -8.94957
674 1 1.57241 20.4415 20.4415 -8.94961
673 1 22.0139 18.8691 18.8691 -8.94964
672 1 20.4415 17.2966 20.4415 -8.94965
671 1 18.8691 15.7242 18.8691 -8.94967
595 1 20.4415 11.0069 17.2967 -8.94962
596 1 -1.39326e-06 12.5794 15.7243 -8.94963
597 1 1.57239 14.1518 17.2967 -8.94959
598 1 3.14456 12.5794 15.7245 -8.94932
599 1 4.71713 14.1517 17.2968 -8.94961
600 1 6.28908 12.5789 15.7251 -8.94879
601 1 7.8618 14.152 17.298 -8.95176
602 1 9.43444 12.5792 15.7267 -8.95278
603 1 11.0067 14.1523 17.2977 -8.94887
604 1 12.5806 12.5801 15.7305 -8.95912
605 1 14.1525 14.1525 17.2984 -8.95112
606 1 15.7257 12.5798 15.7258 -8.94788
607 1 17.2969 14.1519 17.2969 -8.94957
608 1 18.8694 12.5794 15.7245 -8.94942
609 1 20.4415 14.1518 17.2967 -8.9496
610 1 22.0139 15.7242 15.7243 -8.94968
611 1 1.57239 17.2966 17.2967 -8.94971
612 1 3.14462 15.7243 15.7244 -8.94998
613 1 4.717 17.2969 17.2971 -8.94945
614 1 6.28843 15.7254 15.7265 -8.94947
615 1 7.8621 17.2968 17.297 -8.94968
616 1 9.4346 15.7249 15.7256 -8.94968
617 1 11.007 17.2969 17.2969 -8.94939
618 1 12.5792 15.7247 15.7254 -8.9508
619 1 14.1518 17.2968 17.2969 -8.95006
620 1 15.726 15.726 15.7261 -8.94545
621 1 17.2969 17.2969 17.2969 -8.94886
622 1 18.8694 15.7244 15.7244 -8.94964
623 1 20.4415 17.2967 17.2967 -8.94961
624 1 22.0139 18.8691 15.7243 -8.9496
625 1 1.57238 20.4415 17.2967 -8.94951
626 1 3.14455 18.8693 15.7245 -8.94887
627 1 4.71724 20.4415 17.2967 -8.94964
628 1 6.28951 18.8694 15.7245 -8.9495
629 1 7.86212 20.4415 17.2967 -8.94968
630 1 9.43459 18.8693 15.7245 -8.94973
631 1 11.007 20.4415 17.2967 -8.94964
632 1 12.5793 18.8692 15.7245 -8.94955
633 1 14.1518 20.4415 17.2967 -8.94967
634 1 15.7246 18.8696 15.7246 -8.94924
635 1 17.2967 20.4415 17.2967 -8.94953
636 1 18.8691 18.8691 15.7242 -8.94968
637 1 20.4415 20.4415 17.2966 -8.94963
670 1 17.2967 17.2967 20.4415 -8.94958
669 1 15.7244 15.7244 18.8694 -8.94974
668 1 14.1518 17.2967 20.4415 -8.94964
667 1 12.5793 15.7243 18.8693 -8.94958
666 1 11.007 17.2967 20.4415 -8.94963
665 1 9.4345 15.7244 18.8693 -8.9496
664 1 7.86209 17.2967 20.4415 -8.94961
645 1 22.0139 12.5794 18.8691 -8.94964
646 1 1.57241 14.1518 20.4415 -8.94963
647 1 3.1448 12.5794 18.8691 -8.94963
648 1 4.71723 14.1518 20.4415 -8.94961
649 1 6.28956 12.5793 18.8693 -8.94954
650 1 7.86204 14.1519 20.4415 -8.95012
651 1 9.43446 12.5794 18.8695 -8.94995
652 1 11.0069 14.1519 20.4415 -8.94982
653 1 12.5794 12.5794 18.8699 -8.95116
654 1 14.1519 14.1519 20.4415 -8.9502
655 1 15.7244 12.5794 18.8694 -8.94945
656 1 17.2967 14.1518 20.4415 -8.94957
657 1 18.8691 12.5794 18.8691 -8.94966
658 1 20.4415 14.1518 20.4415 -8.94964
659 1 22.0139 15.7242 18.8691 -8.94963
660 1 1.57242 17.2966 20.4415 -8.94965
661 1 3.14482 15.7242 18.8691 -8.94966
662 1 4.71721 17.2967 20.4415 -8.9497
663 1 6.28955 15.7243 18.8694 -8.95001
197 1 22.0139 22.0139 12.5794 -8.94964
199 1 3.14479 22.0139 12.5794 -8.94958
203 1 9.4345 22.0141 12.5796 -8.94998
205 1 12.5795 22.0141 12.5795 -8.95012
209 1 18.8691 22.0139 12.5794 -8.94962
250 1 6.28965 22.0139 15.7243 -8.94958
389 1 15.7242 18.8691 22.0139 -8.9497
383 1 6.28968 18.8691 22.0139 -8.94961
256 1 15.7243 22.0139 15.7243 -8.94965
297 1 3.14484 22.0139 18.8691 -8.94965
301 1 9.43453 22.0139 18.8691 -8.94964
351 1 22.0139 12.5794 22.0139 -8.94964
355 1 6.28958 12.5793 22.0138 -8.94957
371 1 9.43447 15.7244 22.0136 -8.94965
367 1 3.14483 15.7242 22.0139 -8.94965
357 1 9.43441 12.5794 22.0135 -8.94967
359 1 12.5794 12.5794 22.0131 -8.95084
379 1 22.0139 18.8691 22.0139 -8.94965
