ITEM: TIMESTEP
120
ITEM: NUMBER OF ATOMS
688
ITEM: BOX BOUNDS pp pp pp
0.0000000000000000e+00 2.2013900999999997e+01
0.0000000000000000e+00 2.2013900999999997e+01
0.0000000000000000e+00 2.2013900999999997e+01
ITEM: ATOMS id type x y z c_pot
189 1 20.4414 4.71633 11.0071 -8.94953
2 1 1.57158 1.57214 1.5716 -8.94916
448 1 20.4432 11.0066 7.86181 -8.94947
4 1 4.71642 1.572 1.57135 -8.94958
447 1 17.3014 11.0056 7.86098 -8.94962
6 1 7.86176 1.57196 1.57142 -8.94942
7 1 9.43448 8.55952e-05 -0.00052967 -8.94949
8 1 11.0071 1.57188 1.5715 -8.94946
445 1 11.0764 11.0016 7.617 -8.15553
10 1 14.1524 1.57176 1.57162 -8.94945
443 1 4.72011 11.0079 7.86275 -8.94406
12 1 17.2975 1.57171 1.57172 -8.94946
442 1 1.57277 11.007 7.86187 -8.94799
14 1 20.4416 1.5721 1.57201 -8.94953
188 1 17.2978 4.71591 11.0069 -8.94893
16 1 1.57184 4.7167 1.57155 -8.94974
398 1 17.3019 11.007 4.71418 -8.94941
18 1 4.71562 4.7158 1.57035 -8.94929
394 1 4.71529 11.0066 4.71506 -8.94617
20 1 7.86136 4.71576 1.57065 -8.94913
50 1 -0.000593712 0.000175828 3.14427 -8.94947
22 1 11.0071 4.71556 1.57067 -8.94938
183 1 1.57039 4.71587 11.0074 -8.94931
24 1 14.1531 4.71527 1.57058 -8.94953
349 1 17.2991 11.007 1.57062 -8.94946
26 1 17.2987 4.71524 1.57082 -8.94816
345 1 4.71648 11.0067 1.57133 -8.94947
28 1 20.4422 4.71645 1.57173 -8.94949
165 1 9.43079 6.29106 9.43441 -8.99262
30 1 1.57222 7.86185 1.57174 -8.9494
164 1 6.27987 6.28016 9.43432 -8.94231
32 1 4.71648 7.8619 1.57132 -8.94965
163 1 3.14038 6.28702 9.43443 -8.94914
34 1 7.86147 7.86122 1.56984 -8.9523
35 1 9.43413 6.28852 -0.00109175 -8.94961
36 1 11.0072 7.86036 1.56912 -8.95051
37 1 12.5799 6.2883 -0.00123627 -8.94968
38 1 14.1544 7.85986 1.56814 -8.95163
162 1 -0.00104178 6.28871 9.43445 -8.94992
40 1 17.299 7.86081 1.57057 -8.94932
161 1 18.8693 3.1441 9.43446 -8.94954
42 1 20.4425 7.86157 1.57163 -8.94946
350 1 20.4425 11.0069 1.57159 -8.94947
44 1 3.14444 9.43439 -0.000392101 -8.94947
160 1 15.725 3.14391 9.43442 -8.94959
159 1 12.5795 3.14506 9.43445 -8.94786
158 1 9.43412 3.14403 9.43445 -8.94722
48 1 15.7262 9.43389 -0.00129359 -8.9495
157 1 6.28665 3.14116 9.43445 -8.94953
175 1 18.8704 9.43381 9.43439 -8.94722
51 1 1.57127 1.57208 4.71645 -8.94942
174 1 15.7228 9.435 9.4347 -8.94
53 1 4.71564 1.57154 4.71572 -8.94998
54 1 6.28895 0.00043679 3.1435 -8.94963
55 1 7.86162 1.57154 4.71596 -8.94987
173 1 12.5578 9.4485 9.43456 -8.9627
57 1 11.0073 1.57152 4.71611 -8.94975
172 1 9.37101 9.24734 9.43259 -8.25009
59 1 14.1526 1.57136 4.71658 -8.95066
60 1 15.725 8.90745e-05 3.14414 -8.95006
61 1 17.2972 1.57201 4.71702 -8.94974
171 1 6.28393 9.42856 9.43472 -8.96813
63 1 20.4413 1.57216 4.71691 -8.94949
64 1 22.0134 3.14425 3.14412 -8.94956
65 1 1.57066 4.71611 4.71601 -8.94971
66 1 3.14301 3.14352 3.14306 -8.9485
67 1 4.7128 4.71317 4.71312 -8.94571
68 1 6.28845 3.14317 3.14299 -8.94971
69 1 7.86029 4.71305 4.71413 -8.94958
70 1 9.43431 3.14316 3.14318 -8.94934
71 1 11.0076 4.71334 4.71411 -8.94803
72 1 12.5801 3.14301 3.1433 -8.94918
73 1 14.1552 4.71209 4.71402 -8.9501
74 1 15.7259 3.14265 3.14336 -8.9495
75 1 17.2983 4.71563 4.71653 -8.95047
76 1 18.8697 3.14397 3.14429 -8.94985
77 1 20.4416 4.71648 4.71677 -8.94987
78 1 22.0141 6.2891 3.14405 -8.9499
79 1 1.57171 7.86183 4.71649 -8.95014
80 1 3.14325 6.28883 3.14328 -8.95016
81 1 4.71412 7.86083 4.71493 -8.951
82 1 6.28616 6.28617 3.13986 -8.94912
83 1 7.85493 7.85373 4.7063 -8.94955
84 1 9.43381 6.28639 3.14099 -8.94762
85 1 11.0084 7.85545 4.70722 -8.94904
86 1 12.5814 6.28606 3.14042 -8.94876
87 1 14.1659 7.84912 4.7035 -8.92912
88 1 15.7295 6.2847 3.14 -8.94436
89 1 17.3021 7.85921 4.71424 -8.95043
90 1 18.8713 6.28809 3.14338 -8.94957
91 1 20.443 7.86133 4.71635 -8.95022
92 1 0.000438472 9.43425 3.14396 -8.94954
93 1 3.14396 9.43426 3.14371 -8.94889
94 1 6.28881 9.43447 3.14324 -8.94901
95 1 9.43526 9.43363 3.14185 -8.9532
96 1 12.5832 9.4326 3.13593 -8.95946
97 1 15.7291 9.43284 3.14029 -8.94815
98 1 18.8715 9.43391 3.14323 -8.94941
170 1 3.14336 9.43472 9.43446 -8.95087
100 1 1.57112 1.57202 7.86176 -8.94944
101 1 3.14323 0.000459077 6.28882 -8.94933
102 1 4.71532 1.57146 7.86145 -8.94941
169 1 22.014 9.43435 9.43443 -8.94927
104 1 7.86137 1.57138 7.86172 -8.95138
105 1 9.43459 0.000766042 6.28884 -8.95039
106 1 11.0071 1.57231 7.86203 -8.94936
107 1 12.5797 0.000393751 6.28936 -8.95039
108 1 14.1523 1.57232 7.86211 -8.94942
168 1 18.87 6.28845 9.43438 -8.94949
110 1 17.2971 1.57206 7.86201 -8.94953
111 1 18.8692 0.000127686 6.28948 -8.94954
112 1 20.4412 1.57213 7.86194 -8.94952
113 1 -0.00081075 3.14416 6.2892 -8.94942
114 1 1.57038 4.7159 7.86156 -8.9493
115 1 3.14271 3.14335 6.28854 -8.94919
116 1 4.71297 4.71339 7.8606 -8.94778
117 1 6.28733 3.14133 6.28775 -8.95129
118 1 7.85878 4.70961 7.86068 -8.95786
119 1 9.43448 3.14212 6.28831 -8.95081
120 1 11.0066 4.7158 7.86163 -8.95072
121 1 12.58 3.14252 6.28898 -8.95239
122 1 14.1523 4.71644 7.86268 -8.94933
123 1 15.7249 3.1439 6.28967 -8.94974
124 1 17.2976 4.71603 7.86193 -8.94888
125 1 18.8694 3.14415 6.28946 -8.94939
126 1 20.4414 4.71637 7.86186 -8.94953
127 1 22.0131 6.28893 6.28916 -8.95012
128 1 1.57036 7.86149 7.86178 -8.95133
129 1 3.14064 6.28745 6.28768 -8.95068
130 1 4.70864 7.85837 7.86008 -8.95652
131 1 6.27815 6.27811 6.27933 -8.93477
132 1 7.82881 7.82948 7.83546 -8.87927
133 1 9.43353 6.28038 6.28442 -8.95248
134 1 11.0193 7.85635 7.84033 -8.91566
135 1 12.5854 6.27898 6.28279 -8.95464
136 1 14.1549 7.86082 7.86432 -8.95404
137 1 15.727 6.2874 6.28908 -8.95191
138 1 17.2985 7.86105 7.86253 -8.94991
139 1 18.8702 6.28871 6.28945 -8.94992
140 1 20.4419 7.86147 7.86197 -8.94973
141 1 22.0144 9.43434 6.28919 -8.95004
142 1 3.14353 9.43496 6.28916 -8.95076
143 1 6.28476 9.43391 6.28702 -8.95199
144 1 9.41812 9.40767 6.27575 -8.89629
145 1 12.6208 9.39909 6.25096 -8.8501
146 1 15.7361 9.43049 6.28403 -8.95673
147 1 18.8727 9.43359 6.28854 -8.95157
148 1 -0.00077676 0.000186587 9.43451 -8.9495
167 1 15.7262 6.28754 9.43427 -8.94579
150 1 6.28813 0.000829964 9.4345 -8.95038
151 1 9.43439 0.000954001 9.43437 -8.94875
152 1 12.5798 0.000658771 9.43436 -8.94916
153 1 15.7247 0.000170768 9.43448 -8.94966
166 1 12.5771 6.293 9.4346 -8.9442
155 1 22.013 3.1441 9.43449 -8.94948
156 1 3.14256 3.14327 9.43449 -8.94945
181 1 17.2971 1.572 11.0069 -8.94954
344 1 1.57226 11.0068 1.5717 -8.94951
177 1 4.71533 1.5714 11.0075 -8.94941
184 1 4.71294 4.71334 11.0083 -8.94787
45 1 6.28922 9.43447 -0.000473124 -8.94945
41 1 18.8703 6.2888 -0.000499658 -8.94944
19 1 6.2891 3.14413 -0.000650985 -8.94946
25 1 15.7251 3.14376 -0.000550332 -8.94954
176 1 1.57113 1.572 11.0073 -8.94943
254 1 12.5799 -0.000199425 15.7251 -8.94951
178 1 7.86138 1.57119 11.0072 -8.95127
179 1 11.007 1.5722 11.0069 -8.94966
180 1 14.1523 1.5721 11.0068 -8.94938
644 1 20.4423 11.0069 20.4416 -8.94949
182 1 20.4412 1.57211 11.0071 -8.94952
643 1 17.2983 11.007 20.4418 -8.94945
252 1 9.43455 -8.89251e-05 15.7253 -8.94952
185 1 7.85865 4.70946 11.0081 -8.95753
186 1 11.0066 4.71532 11.0074 -8.9508
187 1 14.1526 4.71605 11.0062 -8.94915
642 1 14.1532 11.007 20.4419 -8.95053
641 1 11.007 11.0069 20.4418 -8.94856
190 1 1.57034 7.86145 11.0071 -8.95139
191 1 4.70837 7.8582 11.0088 -8.95622
192 1 7.82856 7.8297 11.0323 -8.87708
193 1 11.019 7.85506 11.0292 -8.93212
194 1 14.1563 7.86007 11.0042 -8.95119
195 1 17.2991 7.86076 11.0063 -8.94972
196 1 20.4421 7.86141 11.0069 -8.94981
343 1 18.8706 9.43412 18.87 -8.94943
198 1 1.5713 1.57202 14.1526 -8.94941
342 1 15.7265 9.43372 18.8713 -8.94947
200 1 4.71567 1.57138 14.1532 -8.94997
201 1 6.28856 0.00060305 12.5803 -8.95068
202 1 7.86154 1.57122 14.1531 -8.94993
341 1 12.5802 9.434 18.8717 -8.95177
204 1 11.0073 1.57109 14.1529 -8.94967
340 1 9.43448 9.43429 18.8703 -8.94987
206 1 14.1527 1.57099 14.1525 -8.95078
207 1 15.7247 4.09519e-05 12.5794 -8.94963
208 1 17.2972 1.57183 14.152 -8.94978
339 1 6.28908 9.43441 18.8699 -8.94938
210 1 20.4413 1.5721 14.1521 -8.94949
211 1 -0.000777339 3.14411 12.5798 -8.94942
212 1 1.57067 4.71604 14.153 -8.94966
213 1 3.14271 3.1433 12.5805 -8.9492
214 1 4.71275 4.7131 14.1558 -8.94577
215 1 6.28729 3.14117 12.5812 -8.95113
216 1 7.85992 4.71231 14.1551 -8.94996
217 1 9.43441 3.14167 12.5807 -8.9511
218 1 11.0076 4.71256 14.1553 -8.94796
219 1 12.5801 3.14196 12.5801 -8.95274
220 1 14.1557 4.71101 14.1555 -8.95068
221 1 15.7251 3.14359 12.5793 -8.94968
222 1 17.2986 4.71529 14.1526 -8.95048
223 1 18.8695 3.14405 12.5795 -8.94939
224 1 20.4418 4.71636 14.1523 -8.94984
225 1 22.0132 6.28886 12.5798 -8.95012
226 1 1.57174 7.86181 14.1525 -8.95027
227 1 3.14056 6.28738 12.5813 -8.95052
228 1 4.71373 7.8608 14.154 -8.95188
229 1 6.27804 6.27813 12.5894 -8.93468
230 1 7.85239 7.85116 14.1649 -8.94562
231 1 9.43299 6.27882 12.5849 -8.95412
232 1 11.0086 7.85359 14.1634 -8.94862
233 1 12.5862 6.27702 12.5868 -8.95677
234 1 14.1699 7.84533 14.1692 -8.92298
235 1 15.7278 6.28681 12.5799 -8.95163
236 1 17.3034 7.85861 14.1553 -8.95101
237 1 18.8705 6.28853 12.5795 -8.94984
238 1 20.4434 7.8612 14.1527 -8.95036
239 1 22.0147 9.43433 12.5797 -8.95013
240 1 3.14349 9.43507 12.5796 -8.95101
241 1 6.28412 9.43461 12.5811 -8.95622
242 1 9.40894 9.40043 12.5993 -8.9252
243 1 12.633 9.38994 12.627 -8.85866
244 1 15.739 9.43008 12.5856 -8.95974
245 1 18.8735 9.43351 12.5805 -8.95205
246 1 -0.00055059 0.000129438 15.7248 -8.94949
247 1 1.57161 1.57208 17.2975 -8.9492
248 1 3.14358 0.00028927 15.7254 -8.94949
249 1 4.71638 1.57186 17.2977 -8.94957
338 1 3.1444 9.43437 18.8696 -8.94947
251 1 7.86175 1.57174 17.2976 -8.94942
337 1 22.0143 9.43433 18.8696 -8.94949
253 1 11.0071 1.57164 17.2976 -8.94946
336 1 20.4423 7.8617 20.4416 -8.94948
255 1 14.1524 1.57152 17.2975 -8.94945
335 1 18.8705 6.28868 18.8699 -8.94937
257 1 17.2976 1.57153 17.2975 -8.94946
258 1 18.8693 3.72288e-05 15.7246 -8.94971
259 1 20.4416 1.57204 17.2971 -8.94955
260 1 22.0134 3.14417 15.7249 -8.94956
261 1 1.57183 4.71662 17.2976 -8.9498
262 1 3.143 3.14344 15.726 -8.94855
263 1 4.71537 4.71553 17.299 -8.94898
264 1 6.28827 3.14285 15.7262 -8.94976
265 1 7.86122 4.71548 17.2987 -8.94906
266 1 9.43424 3.14279 15.726 -8.94928
267 1 11.0071 4.71523 17.2987 -8.94929
268 1 12.5802 3.14257 15.7259 -8.94913
269 1 14.1533 4.71486 17.2989 -8.94946
270 1 15.7261 3.14216 15.7259 -8.94959
271 1 17.2991 4.71477 17.2987 -8.94772
272 1 18.8699 3.1438 15.7248 -8.94988
273 1 20.4424 4.71631 17.2975 -8.94951
274 1 22.0142 6.28901 15.7251 -8.94998
275 1 1.57222 7.86178 17.2975 -8.94939
276 1 3.1431 6.28872 15.7258 -8.95038
277 1 4.71625 7.86175 17.298 -8.94948
278 1 6.28534 6.28533 15.7299 -8.94807
279 1 7.86111 7.86083 17.3 -8.95257
280 1 9.43355 6.28567 15.7286 -8.9473
281 1 11.0072 7.85989 17.3007 -8.95042
282 1 12.5817 6.28515 15.7295 -8.94836
283 1 14.155 7.85922 17.3022 -8.95201
284 1 15.7308 6.28331 15.7304 -8.94274
285 1 17.2996 7.86039 17.2992 -8.94894
286 1 18.8719 6.28776 15.726 -8.94967
287 1 20.4428 7.86144 17.2977 -8.94941
288 1 0.000645831 9.43418 15.7252 -8.94961
289 1 3.14377 9.43421 15.7255 -8.94891
290 1 6.28811 9.43413 15.7263 -8.94818
291 1 9.43466 9.43276 15.7287 -8.95421
292 1 12.5843 9.43153 15.7356 -8.96065
293 1 15.7308 9.4319 15.7304 -8.94671
294 1 18.8723 9.43363 15.7263 -8.94931
49 1 18.8704 9.43419 22.0134 -8.94945
296 1 1.57197 1.57214 20.4415 -8.94927
334 1 17.2982 7.86123 20.4418 -8.94939
298 1 4.71677 1.57212 20.4415 -8.94953
299 1 6.28932 2.01348e-05 18.8695 -8.94951
300 1 7.86184 1.57204 20.4415 -8.94948
333 1 15.7261 6.28779 18.8711 -8.95006
302 1 11.007 1.57196 20.4415 -8.94949
332 1 14.1529 7.8611 20.4419 -8.95082
304 1 14.1522 1.5719 20.4415 -8.94947
305 1 15.7247 -9.77067e-05 18.8694 -8.94954
306 1 17.2973 1.57189 20.4415 -8.94953
331 1 12.5799 6.28811 18.8708 -8.94965
308 1 20.4418 1.5721 20.4415 -8.94911
309 1 22.0139 3.14438 18.8695 -8.94947
310 1 1.57222 4.71694 20.4416 -8.94966
311 1 3.14399 3.14412 18.8699 -8.94932
312 1 4.71647 4.71658 20.4416 -8.95
313 1 6.28906 3.14403 18.8698 -8.94946
314 1 7.86158 4.71635 20.4416 -8.94948
315 1 9.43432 3.14387 18.8698 -8.94944
316 1 11.0069 4.71613 20.4416 -8.94951
317 1 12.5797 3.14374 18.8698 -8.94941
318 1 14.1525 4.71598 20.4417 -8.94953
319 1 15.7251 3.14362 18.8698 -8.94954
320 1 17.298 4.71595 20.4417 -8.94947
321 1 18.8701 3.14385 18.8697 -8.94897
322 1 20.4421 4.71668 20.4416 -8.94946
323 1 22.0142 6.28926 18.8696 -8.94946
324 1 1.57236 7.86191 20.4416 -8.94948
325 1 3.14431 6.28938 18.8697 -8.94969
326 1 4.71675 7.86198 20.4416 -8.94954
327 1 6.28873 6.28883 18.8705 -8.95065
328 1 7.86174 7.8618 20.4417 -8.9505
329 1 9.43408 6.28836 18.8705 -8.94955
330 1 11.0069 7.86129 20.4418 -8.95035
512 1 1.57289 11.007 11.007 -8.9478
513 1 4.72056 11.0081 11.0057 -8.94247
515 1 11.086 10.9654 11.29 -8.34113
517 1 17.3023 11.0058 11.0077 -8.94964
518 1 20.4435 11.0066 11.007 -8.94949
540 1 1.57194 11.0068 14.1528 -8.94971
541 1 4.71476 11.0066 14.1541 -8.94648
542 1 7.86079 11.0059 14.1544 -8.94318
544 1 14.1673 11.0056 14.1668 -8.93934
545 1 17.3038 11.0066 14.1559 -8.94925
546 1 20.4438 11.0068 14.153 -8.95013
47 1 12.5801 9.43416 22.0123 -8.95156
591 1 7.86156 11.0068 17.2981 -8.94898
592 1 11.0076 11.0065 17.2988 -8.94665
593 1 14.1557 11.0068 17.3023 -8.95005
46 1 9.43455 9.43443 22.0133 -8.9498
638 1 1.57237 11.0069 20.4416 -8.94952
639 1 4.71674 11.0068 20.4416 -8.9496
640 1 7.86178 11.0069 20.4416 -8.94947
3 1 3.14421 0.000152463 22.0134 -8.94952
39 1 15.7259 6.28805 22.0126 -8.95003
9 1 12.5797 3.84794e-05 22.0134 -8.94949
33 1 6.28887 6.28898 22.0128 -8.95063
13 1 18.8695 1.88261e-05 22.0136 -8.94933
15 1 22.0139 3.14443 22.0135 -8.94946
17 1 3.14403 3.1442 22.0132 -8.9494
31 1 3.14436 6.28943 22.0134 -8.94971
23 1 12.5797 3.14387 22.0133 -8.94943
29 1 22.0142 6.28932 22.0136 -8.94948
27 1 18.87 3.14397 22.0135 -8.94908
21 1 9.43434 3.14399 22.0133 -8.94946
43 1 22.0143 9.43435 22.0136 -8.9495
539 1 20.4412 20.442 11.0071 -8.94951
688 3 10.2686 11.0576 9.45649 2.21725
346 1 7.86185 11.0068 1.57154 -8.94876
347 1 11.0076 11.0069 1.57135 -8.94642
348 1 14.1549 11.007 1.5683 -8.94972
687 2 10.9151 12.4404 10.1945 0.341362
529 1 11.0056 17.3047 11.0063 -8.95934
154 1 18.8692 22.014 9.4345 -8.94955
352 1 1.57207 14.1519 1.57162 -8.94939
353 1 3.14439 12.5793 -0.000459909 -8.9495
354 1 4.71626 14.1518 1.57091 -8.94949
149 1 3.14315 22.0143 9.43452 -8.94942
356 1 7.86141 14.1526 1.56885 -8.95323
393 1 1.57189 11.0068 4.71622 -8.94951
358 1 11.0071 14.1532 1.56896 -8.95067
399 1 20.4431 11.0068 4.7162 -8.94993
360 1 14.1542 14.1538 1.56841 -8.95156
361 1 15.7261 12.58 -0.00126683 -8.9494
362 1 17.2989 14.153 1.57067 -8.94919
363 1 18.8704 12.5797 -0.000526905 -8.94945
364 1 20.4424 14.1522 1.57161 -8.94942
109 1 15.7248 22.0142 6.28953 -8.94953
366 1 1.5716 17.2973 1.57135 -8.94982
103 1 6.28845 22.0148 6.28858 -8.9507
368 1 4.71517 17.2986 1.56952 -8.94945
369 1 6.2888 15.725 -0.00163881 -8.95096
370 1 7.86129 17.2985 1.56984 -8.94917
99 1 22.0132 22.0141 6.28928 -8.94948
372 1 11.0073 17.2985 1.57012 -8.94932
62 1 18.8693 22.014 3.14449 -8.94967
374 1 14.1531 17.2985 1.57042 -8.94961
375 1 15.7258 15.7257 -0.00130432 -8.95009
376 1 17.2986 17.2985 1.57079 -8.94835
58 1 12.5799 22.0141 3.14385 -8.94952
378 1 20.4421 17.2974 1.57166 -8.94957
1 1 22.0136 22.014 -0.000316443 -8.94912
380 1 1.57141 20.4422 1.57142 -8.94894
381 1 3.14384 18.87 -0.000918647 -8.94941
382 1 4.71629 20.4424 1.5711 -8.94955
56 1 9.43453 22.0142 3.14363 -8.94954
384 1 7.86176 20.4424 1.57119 -8.94941
385 1 9.43444 18.87 -0.000942184 -8.94947
386 1 11.0072 20.4423 1.57132 -8.94945
387 1 12.5798 18.87 -0.000834939 -8.94941
388 1 14.1524 20.4423 1.57152 -8.9494
52 1 3.14351 22.0143 3.14353 -8.94945
390 1 17.2975 20.4422 1.57165 -8.94946
391 1 18.8699 18.8699 -0.000441733 -8.94914
392 1 20.4415 20.442 1.57193 -8.9495
511 1 18.8693 18.87 9.43447 -8.94954
510 1 15.7251 18.8703 9.43444 -8.94956
395 1 7.86285 11.0067 4.71625 -8.94711
396 1 11.0121 11.0069 4.7197 -9.00563
397 1 14.1626 11.0073 4.70661 -8.94469
509 1 12.5799 18.8708 9.43364 -8.94778
508 1 9.43314 18.8724 9.43366 -8.94566
400 1 0.000333283 12.5795 3.14392 -8.94956
401 1 1.57121 14.152 4.71621 -8.94984
402 1 3.14376 12.5793 3.1435 -8.94903
403 1 4.71337 14.1528 4.71411 -8.9509
404 1 6.28838 12.5789 3.14262 -8.94852
405 1 7.85396 14.1609 4.70219 -8.95528
406 1 9.43505 12.5798 3.14176 -8.95203
407 1 11.0077 14.1579 4.7067 -8.95174
408 1 12.583 12.581 3.13691 -8.95783
409 1 14.1648 14.1637 4.70447 -8.93218
410 1 15.7289 12.581 3.14064 -8.94735
411 1 17.3015 14.1541 4.71465 -8.9512
412 1 18.8714 12.5799 3.14328 -8.94928
413 1 20.4427 14.1523 4.71636 -8.95022
414 1 22.0138 15.7247 3.14391 -8.94985
415 1 1.56988 17.2983 4.71548 -8.94989
416 1 3.1428 15.7251 3.14282 -8.95026
417 1 4.7105 17.3031 4.71074 -8.94259
418 1 6.2853 15.7285 3.1379 -8.95008
419 1 7.85949 17.3028 4.71207 -8.94859
420 1 9.43387 15.7281 3.13949 -8.94807
421 1 11.0079 17.3017 4.71288 -8.94661
422 1 12.5813 15.7277 3.14021 -8.94919
423 1 14.1554 17.3021 4.71358 -8.94985
424 1 15.7291 15.7288 3.14016 -8.94512
425 1 17.2984 17.2984 4.71623 -8.95012
426 1 18.8711 15.7256 3.14343 -8.94982
427 1 20.4415 17.2976 4.71651 -8.94985
428 1 22.0131 18.87 3.14388 -8.94952
429 1 1.57105 20.4424 4.71629 -8.9494
430 1 3.14228 18.8713 3.14229 -8.94766
431 1 4.71518 20.4438 4.71525 -8.94993
432 1 6.28803 18.8717 3.14215 -8.94949
433 1 7.86145 20.4437 4.71553 -8.9498
434 1 9.43436 18.8714 3.14255 -8.94922
435 1 11.0074 20.4433 4.7158 -8.94962
436 1 12.5803 18.8712 3.14293 -8.94888
437 1 14.1526 20.4429 4.71644 -8.95071
438 1 15.726 18.8713 3.14318 -8.94945
439 1 17.2972 20.4422 4.71691 -8.94966
440 1 18.8697 18.8701 3.14416 -8.94979
441 1 20.4412 20.442 4.71683 -8.94949
507 1 6.28557 18.8751 9.43447 -8.94952
506 1 3.14191 18.8716 9.43452 -8.94932
444 1 7.87776 10.9998 7.86057 -8.95669
505 1 22.0128 18.8702 9.4345 -8.94946
446 1 14.1621 11.0018 7.85023 -9.00257
504 1 18.8704 15.7255 9.43437 -8.94927
503 1 15.7269 15.7262 9.43416 -8.94636
449 1 22.0142 12.5793 6.2891 -8.94995
450 1 1.56981 14.1525 7.86168 -8.95222
451 1 3.14287 12.579 6.28858 -8.95005
452 1 4.70558 14.157 7.85913 -8.96144
453 1 6.28405 12.5782 6.28615 -8.9518
454 1 7.81249 14.2035 7.81418 -8.85284
455 1 9.41597 12.6051 6.2773 -8.95514
456 1 11.0155 14.1621 7.83383 -8.96074
457 1 12.6174 12.6132 6.25642 -8.90215
458 1 14.1566 14.1565 7.86215 -8.97367
459 1 15.7344 12.582 6.28604 -8.95871
460 1 17.3003 14.1535 7.8615 -8.94813
461 1 18.8722 12.5797 6.28883 -8.95124
462 1 20.4423 14.1524 7.86176 -8.95001
463 1 22.0127 15.7251 6.28891 -8.95045
464 1 1.56967 17.2985 7.86139 -8.94926
465 1 3.13885 15.7274 6.28676 -8.9519
466 1 4.71113 17.3026 7.85994 -8.94708
467 1 6.27146 15.7425 6.2725 -8.9225
468 1 7.85641 17.3099 7.85844 -8.96092
469 1 9.4327 15.7378 6.27959 -8.94754
470 1 11.0054 17.3 7.86078 -8.95157
471 1 12.5854 15.736 6.28143 -8.95408
472 1 14.153 17.2991 7.86173 -8.94904
473 1 15.7277 15.7271 6.28827 -8.95054
474 1 17.2979 17.2981 7.86178 -8.94932
475 1 18.8705 15.7254 6.28901 -8.9496
476 1 20.4413 17.2977 7.86177 -8.94956
477 1 -0.00107867 18.8701 6.28906 -8.94941
478 1 1.57091 20.4425 7.86172 -8.94941
479 1 3.14196 18.8716 6.28811 -8.94906
480 1 4.7149 20.4439 7.8613 -8.94935
481 1 6.28605 18.8754 6.28647 -8.95169
482 1 7.86096 20.445 7.86136 -8.95191
483 1 9.43429 18.8739 6.28723 -8.95097
484 1 11.0069 20.443 7.86182 -8.9492
485 1 12.5799 18.8722 6.28861 -8.95265
486 1 14.1525 20.4426 7.86186 -8.94938
487 1 15.7252 18.8706 6.2893 -8.94944
488 1 17.2971 20.4421 7.86198 -8.94961
489 1 18.8694 18.87 6.28933 -8.9495
490 1 20.4412 20.442 7.86192 -8.94952
491 1 22.0144 12.5793 9.43442 -8.94936
492 1 3.1441 12.5796 9.43438 -8.94797
493 1 6.2911 12.5897 9.43388 -8.98927
494 1 9.28194 12.8076 9.41063 -8.35328
495 1 12.6138 12.5726 9.41368 -9.10404
496 1 15.7339 12.5783 9.43384 -8.95834
497 1 18.8723 12.5796 9.43432 -8.95078
498 1 -0.00130451 15.7254 9.43445 -8.95005
499 1 3.13898 15.7279 9.43444 -8.94917
500 1 6.27604 15.7381 9.43428 -8.94219
501 1 9.42426 15.7252 9.43108 -9.05407
502 1 12.578 15.7246 9.43117 -8.99569
526 1 1.56978 17.2985 11.0076 -8.94922
11 1 15.7247 22.0139 -0.000386394 -8.9495
5 1 6.28929 22.014 -0.000561264 -8.94947
527 1 4.71145 17.3023 11.0089 -8.94676
532 1 20.4413 17.2977 11.0071 -8.94951
534 1 4.71499 20.4437 11.0077 -8.94928
538 1 17.2971 20.4421 11.007 -8.94951
365 1 22.0141 15.7245 -0.000364134 -8.94948
686 1 20.4417 20.4418 20.4415 -8.94917
685 1 18.8699 18.87 18.8697 -8.94904
514 1 7.8813 11.0042 11.0051 -8.96454
684 1 17.2972 20.4419 20.4415 -8.94959
516 1 14.1646 11.0045 11.0195 -9.02257
683 1 15.7249 18.87 18.8696 -8.94973
682 1 14.1522 20.4419 20.4414 -8.94947
519 1 1.56999 14.1525 11.0072 -8.95208
520 1 4.7062 14.1567 11.0092 -8.96047
521 1 7.81593 14.1974 11.049 -8.88567
522 1 11.0181 14.1844 11.0345 -9.14325
523 1 14.1611 14.1551 11.0074 -8.99725
524 1 17.3013 14.1534 11.0072 -8.94913
525 1 20.4426 14.1524 11.0071 -8.95013
594 1 17.2997 11.0069 17.2992 -8.94931
590 1 4.71632 11.0068 17.2979 -8.94945
528 1 7.85746 17.3081 11.0089 -8.96071
307 1 18.8695 22.0139 18.8695 -8.94934
530 1 14.1523 17.298 11.0061 -8.95042
531 1 17.2978 17.2981 11.007 -8.94901
295 1 22.0136 22.014 18.8694 -8.94917
533 1 1.57095 20.4424 11.0073 -8.9494
377 1 18.8702 15.725 22.0134 -8.94944
535 1 7.8612 20.4444 11.0073 -8.95169
536 1 11.0069 20.4436 11.0069 -8.95122
537 1 14.1522 20.4422 11.0068 -8.94936
373 1 12.5799 15.7254 22.0124 -8.94966
303 1 12.5796 22.0138 18.8695 -8.94949
681 1 12.5797 18.8699 18.8695 -8.94944
680 1 11.0071 20.4419 20.4414 -8.9495
679 1 9.4345 18.8698 18.8695 -8.94951
543 1 11.0129 11.0051 14.1525 -9.06033
678 1 7.86191 20.4419 20.4414 -8.9495
677 1 6.28921 18.8698 18.8697 -8.94963
676 1 4.71676 20.4419 20.4414 -8.94956
547 1 22.0145 12.5794 12.5798 -8.95013
548 1 1.57137 14.152 14.1528 -8.94999
549 1 3.14291 12.579 12.5802 -8.95041
550 1 4.71326 14.1528 14.1546 -8.95139
551 1 6.28348 12.5779 12.5822 -8.95341
552 1 7.85258 14.1612 14.1665 -8.95192
553 1 9.41015 12.6044 12.5973 -8.92877
554 1 11.008 14.1531 14.1548 -8.98923
555 1 12.6302 12.6131 12.6247 -8.89475
556 1 14.1686 14.1655 14.1674 -8.92695
557 1 15.7388 12.5818 12.5848 -8.95916
558 1 17.303 14.1546 14.1551 -8.95125
559 1 18.8734 12.5797 12.5803 -8.952
560 1 20.4432 14.1525 14.1528 -8.95036
561 1 22.013 15.7251 12.58 -8.95039
562 1 1.57013 17.2982 14.1534 -8.94982
563 1 3.13928 15.7272 12.5819 -8.95164
564 1 4.7112 17.3025 14.1576 -8.94331
565 1 6.27301 15.7406 12.5942 -8.92572
566 1 7.86029 17.3014 14.1553 -8.95002
567 1 9.43261 15.7324 12.5835 -8.98071
568 1 11.0079 17.2989 14.153 -8.94849
569 1 12.5859 15.7307 12.5827 -8.97852
570 1 14.1548 17.3012 14.1543 -8.95156
571 1 15.7287 15.7273 12.5807 -8.94973
572 1 17.2986 17.2986 14.1528 -8.94981
573 1 18.871 15.7255 12.58 -8.94964
574 1 20.4417 17.2977 14.1525 -8.94978
575 1 -0.0010032 18.8701 12.5799 -8.94938
576 1 1.57114 20.4423 14.1527 -8.9494
577 1 3.14216 18.8714 12.5808 -8.94902
578 1 4.71539 20.4435 14.1536 -8.95004
579 1 6.28652 18.8745 12.5819 -8.95198
580 1 7.86148 20.4433 14.1533 -8.94957
581 1 9.43395 18.8732 12.5813 -8.94889
582 1 11.0074 20.4425 14.1528 -8.94923
583 1 12.5803 18.8716 12.58 -8.95036
584 1 14.1526 20.4426 14.1525 -8.95052
585 1 15.7251 18.8703 12.5794 -8.95009
586 1 17.2972 20.4421 14.152 -8.94982
587 1 18.8694 18.87 12.5796 -8.9495
588 1 20.4413 20.442 14.1522 -8.94951
589 1 1.57228 11.0069 17.2975 -8.94951
675 1 3.14389 18.8699 18.8699 -8.94937
674 1 1.57188 20.4419 20.4415 -8.94926
673 1 22.0138 18.8696 18.8695 -8.94951
672 1 20.442 17.2972 20.4416 -8.94949
671 1 18.8703 15.7251 18.8699 -8.9494
595 1 20.4428 11.0069 17.2978 -8.94946
596 1 0.000559372 12.5795 15.7253 -8.9496
597 1 1.57213 14.152 17.2975 -8.94939
598 1 3.14367 12.5794 15.7256 -8.94902
599 1 4.7162 14.152 17.2981 -8.94945
600 1 6.28797 12.5791 15.7266 -8.94801
601 1 7.8613 14.1527 17.3 -8.95336
602 1 9.43496 12.5797 15.728 -8.95409
603 1 11.0072 14.1531 17.2988 -8.94824
604 1 12.5839 12.5809 15.7345 -8.96103
605 1 14.1547 14.1541 17.3015 -8.95201
606 1 15.7305 12.5812 15.73 -8.94665
607 1 17.2994 14.1533 17.299 -8.94904
608 1 18.8722 12.58 15.7262 -8.94921
609 1 20.4426 14.1524 17.2977 -8.94939
610 1 22.014 15.7248 15.7252 -8.9499
611 1 1.57169 17.2973 17.2977 -8.94981
612 1 3.14287 15.7252 15.7261 -8.95031
613 1 4.71528 17.2985 17.2993 -8.94921
614 1 6.28527 15.7286 15.7307 -8.94905
615 1 7.86172 17.298 17.2983 -8.94956
616 1 9.43477 15.7265 15.7269 -8.94868
617 1 11.0073 17.298 17.2978 -8.94914
618 1 12.5805 15.7263 15.7268 -8.94973
619 1 14.1527 17.2982 17.298 -8.94997
620 1 15.7301 15.7297 15.7297 -8.94357
621 1 17.2988 17.2988 17.2986 -8.94793
622 1 18.8716 15.7259 15.7259 -8.94974
623 1 20.4422 17.2976 17.2975 -8.94952
624 1 22.0132 18.87 15.7252 -8.9495
625 1 1.5715 20.4421 17.2976 -8.94901
626 1 3.14254 18.8711 15.7265 -8.94786
627 1 4.7164 20.4423 17.2978 -8.94965
628 1 6.28839 18.8713 15.7264 -8.94987
629 1 7.8619 20.442 17.2975 -8.94955
630 1 9.43469 18.8705 15.7256 -8.9497
631 1 11.0072 20.442 17.2974 -8.9495
632 1 12.5799 18.8704 15.7253 -8.94934
633 1 14.1523 20.442 17.2973 -8.94955
634 1 15.7257 18.8712 15.7256 -8.94991
635 1 17.2974 20.4422 17.2974 -8.94958
636 1 18.8698 18.8701 15.7249 -8.94972
637 1 20.4415 20.442 17.2972 -8.94951
670 1 17.2978 17.2978 20.4416 -8.94953
669 1 15.7259 15.7259 18.8708 -8.95008
668 1 14.1523 17.2977 20.4413 -8.94955
667 1 12.5797 15.7253 18.8699 -8.94939
666 1 11.007 17.2976 20.4412 -8.94952
665 1 9.43439 15.7252 18.8698 -8.94948
664 1 7.86174 17.2975 20.4412 -8.94957
645 1 22.0143 12.5795 18.8696 -8.94949
646 1 1.5723 14.1519 20.4415 -8.9495
647 1 3.14438 12.5794 18.8696 -8.9495
648 1 4.7167 14.1518 20.4415 -8.94954
649 1 6.28908 12.5793 18.8699 -8.94944
650 1 7.86184 14.152 20.4414 -8.95077
651 1 9.43464 12.5793 18.87 -8.9499
652 1 11.0069 14.1524 20.4413 -8.94996
653 1 12.5801 12.5797 18.8713 -8.95179
654 1 14.1528 14.1527 20.4417 -8.95076
655 1 15.7264 12.5801 18.8711 -8.9494
656 1 17.2981 14.1526 20.4417 -8.94936
657 1 18.8706 12.5797 18.87 -8.94941
658 1 20.4422 14.1522 20.4416 -8.94947
659 1 22.0141 15.7246 18.8696 -8.94947
660 1 1.57212 17.297 20.4415 -8.94966
661 1 3.14424 15.7245 18.8697 -8.94967
662 1 4.7164 17.2974 20.4414 -8.95016
663 1 6.2888 15.725 18.8705 -8.95092
197 1 22.0132 22.0141 12.5797 -8.94948
199 1 3.14328 22.0143 12.5802 -8.94932
203 1 9.43451 22.0144 12.5801 -8.95029
205 1 12.5798 22.014 12.5796 -8.95029
209 1 18.8692 22.014 12.5795 -8.94952
250 1 6.28896 22.0141 15.7255 -8.94962
389 1 15.725 18.8701 22.0132 -8.9496
383 1 6.28908 18.87 22.0129 -8.94949
256 1 15.725 22.0138 15.7249 -8.9501
297 1 3.14422 22.014 18.8696 -8.94953
301 1 9.43448 22.0139 18.8695 -8.94949
351 1 22.0142 12.5795 22.0136 -8.94951
355 1 6.28914 12.5792 22.0132 -8.94948
371 1 9.43428 15.7253 22.0122 -8.94977
367 1 3.14422 15.7244 22.0133 -8.94967
357 1 9.4346 12.5793 22.0131 -8.9496
359 1 12.58 12.5796 22.0123 -8.95121
379 1 22.0138 18.8696 22.0135 -8.94953
