ITEM: TIMESTEP
57
ITEM: NUMBER OF ATOMS
688
ITEM: BOX BOUNDS pp pp pp
0.0000000000000000e+00 2.2013900999999997e+01
0.0000000000000000e+00 2.2013900999999997e+01
0.0000000000000000e+00 2.2013900999999997e+01
ITEM: ATOMS id type x y z c_pot
189 1 20.4415 4.71723 11.007 -8.94962
2 1 1.5724 1.57241 1.5724 -8.94956
448 1 20.4419 11.0069 7.86205 -8.95006
4 1 4.71726 1.57241 1.57241 -8.94969
447 1 17.2997 11.0063 7.86174 -8.95089
6 1 7.8621 1.5724 1.5724 -8.94963
7 1 9.43453 3.07444e-07 -2.91301e-06 -8.94964
8 1 11.007 1.5724 1.5724 -8.94964
445 1 11.086 10.9986 7.63685 -8.14614
10 1 14.1518 1.57241 1.57241 -8.94962
443 1 4.71659 11.0067 7.86131 -8.94298
12 1 17.2967 1.57239 1.5724 -8.9496
442 1 1.57199 11.0069 7.86186 -8.94902
14 1 20.4415 1.57242 1.57242 -8.94964
188 1 17.2968 4.71709 11.007 -8.94942
16 1 1.57241 4.71726 1.57241 -8.94969
398 1 17.2978 11.007 4.71665 -8.94933
18 1 4.71711 4.71712 1.57218 -8.94952
394 1 4.7165 11.0069 4.71633 -8.94756
20 1 7.86209 4.71714 1.57227 -8.94948
50 1 -1.57162e-06 2.53315e-07 3.14484 -8.94965
22 1 11.007 4.71713 1.57226 -8.94961
183 1 1.57225 4.71715 11.007 -8.94951
24 1 14.1518 4.71717 1.57232 -8.94982
349 1 17.2968 11.007 1.57229 -8.94966
26 1 17.2968 4.71709 1.57225 -8.94906
345 1 4.71712 11.0069 1.57222 -8.94961
28 1 20.4415 4.71724 1.5724 -8.9496
165 1 9.43152 6.28611 9.43416 -8.99426
30 1 1.57241 7.8621 1.5724 -8.94961
164 1 6.2849 6.28483 9.43451 -8.94462
32 1 4.7172 7.86216 1.57233 -8.94969
163 1 3.14367 6.2891 9.43452 -8.94915
34 1 7.86187 7.8619 1.5715 -8.95103
35 1 9.43449 6.28957 -0.000162094 -8.94957
36 1 11.0067 7.86172 1.57147 -8.94972
37 1 12.5794 6.2896 -0.00012976 -8.94957
38 1 14.1523 7.86156 1.57114 -8.95065
162 1 -0.000140115 6.28961 9.43453 -8.94972
40 1 17.2968 7.86207 1.5723 -8.94971
161 1 18.8691 3.14482 9.43453 -8.94966
42 1 20.4415 7.86211 1.57241 -8.94963
350 1 20.4415 11.007 1.57241 -8.94963
44 1 3.14482 9.43452 -2.39905e-05 -8.94962
160 1 15.7244 3.14462 9.43453 -8.94961
159 1 12.5796 3.14448 9.43448 -8.94889
158 1 9.43466 3.14327 9.43448 -8.94928
48 1 15.7243 9.4345 -0.00015655 -8.94953
157 1 6.28909 3.14368 9.43453 -8.94928
175 1 18.8695 9.43426 9.43452 -8.94875
51 1 1.57241 1.57241 4.71726 -8.94967
174 1 15.7248 9.43386 9.43463 -8.94234
53 1 4.71713 1.57224 4.71713 -8.94967
54 1 6.28968 7.27798e-06 3.14482 -8.94963
55 1 7.86212 1.5723 4.71717 -8.9496
173 1 12.5668 9.44053 9.43284 -8.96046
57 1 11.007 1.57227 4.71714 -8.9496
172 1 9.35884 9.23155 9.43333 -8.19783
59 1 14.1519 1.57224 4.71718 -8.94989
60 1 15.7242 4.55257e-06 3.14481 -8.94967
61 1 17.2966 1.57241 4.71727 -8.94965
171 1 6.27992 9.43042 9.43469 -8.97048
63 1 20.4415 1.57242 4.71726 -8.94963
64 1 22.0139 3.14482 3.14483 -8.94961
65 1 1.5722 4.71714 4.71714 -8.94963
66 1 3.14468 3.14468 3.14468 -8.94911
67 1 4.71606 4.71607 4.71605 -8.94651
68 1 6.28967 3.14473 3.14474 -8.94981
69 1 7.86205 4.71648 4.71667 -8.94976
70 1 9.43451 3.14468 3.14471 -8.94959
71 1 11.007 4.71628 4.71652 -8.94857
72 1 12.5794 3.14468 3.14472 -8.94947
73 1 14.1526 4.71573 4.7165 -8.94993
74 1 15.7244 3.14459 3.14469 -8.94954
75 1 17.2967 4.71716 4.71725 -8.94992
76 1 18.8691 3.14483 3.14484 -8.94969
77 1 20.4415 4.71724 4.71726 -8.94967
78 1 22.0139 6.28967 3.14482 -8.94965
79 1 1.5723 7.8621 4.71717 -8.94961
80 1 3.14473 6.28967 3.14475 -8.94988
81 1 4.71658 7.86216 4.71675 -8.95044
82 1 6.28888 6.28892 3.14336 -8.94967
83 1 7.85889 7.85902 4.71104 -8.95225
84 1 9.43438 6.28895 3.1439 -8.9485
85 1 11.0064 7.8596 4.71273 -8.95025
86 1 12.5794 6.28907 3.14405 -8.94965
87 1 14.1593 7.85457 4.7098 -8.93153
88 1 15.7255 6.28837 3.14355 -8.94614
89 1 17.2981 7.86138 4.71654 -8.94997
90 1 18.8693 6.28954 3.1447 -8.94956
91 1 20.4417 7.86203 4.71718 -8.9498
92 1 -4.04562e-06 9.43453 3.14481 -8.94962
93 1 3.14471 9.43451 3.14469 -8.94943
94 1 6.28943 9.4349 3.14441 -8.94965
95 1 9.43418 9.43425 3.14294 -8.95085
96 1 12.5806 9.43349 3.13948 -8.95723
97 1 15.725 9.4343 3.14391 -8.94913
98 1 18.8692 9.43452 3.14473 -8.94956
170 1 3.14289 9.43479 9.43453 -8.95154
100 1 1.57241 1.57241 7.86211 -8.94965
101 1 3.14481 3.2819e-06 6.28968 -8.94961
102 1 4.71714 1.57227 7.86208 -8.94952
169 1 22.0137 9.43453 9.43452 -8.94991
104 1 7.862 1.57179 7.86199 -8.9508
105 1 9.43457 4.72069e-05 6.28958 -8.94986
106 1 11.0071 1.57208 7.86203 -8.94974
107 1 12.5794 3.01875e-05 6.28962 -8.94998
108 1 14.1519 1.57234 7.8621 -8.94962
168 1 18.8693 6.28951 9.43452 -8.94956
110 1 17.2967 1.5724 7.8621 -8.94962
111 1 18.8691 3.71472e-07 6.28968 -8.94964
112 1 20.4415 1.57242 7.86211 -8.94964
113 1 -1.47828e-05 3.14483 6.28968 -8.94962
114 1 1.57225 4.71715 7.86208 -8.94951
115 1 3.14473 3.14473 6.28965 -8.94968
116 1 4.71645 4.71643 7.86185 -8.9489
117 1 6.28916 3.14364 6.28914 -8.95048
118 1 7.86077 4.71214 7.86104 -8.95622
119 1 9.43473 3.14393 6.28932 -8.94982
120 1 11.0073 4.71539 7.86182 -8.95008
121 1 12.5796 3.14391 6.28948 -8.95107
122 1 14.1522 4.71667 7.8624 -8.94953
123 1 15.7243 3.14473 6.28971 -8.94965
124 1 17.2968 4.71709 7.86208 -8.9494
125 1 18.8691 3.14482 6.28968 -8.94961
126 1 20.4415 4.71723 7.8621 -8.94962
127 1 22.0138 6.28963 6.28964 -8.94983
128 1 1.57165 7.86201 7.86202 -8.95079
129 1 3.14358 6.28912 6.28911 -8.9503
130 1 4.71169 7.86049 7.86074 -8.95602
131 1 6.28288 6.28293 6.28287 -8.93407
132 1 7.83088 7.83306 7.83514 -8.86857
133 1 9.43498 6.28519 6.28753 -8.95149
134 1 11.0172 7.8558 7.84696 -8.91723
135 1 12.5822 6.28325 6.28682 -8.95429
136 1 14.1544 7.86032 7.86403 -8.95219
137 1 15.7249 6.28909 6.28977 -8.95076
138 1 17.2974 7.86167 7.86236 -8.94968
139 1 18.8692 6.28959 6.2897 -8.94966
140 1 20.4415 7.86203 7.86211 -8.94978
141 1 22.0139 9.4345 6.2896 -8.94982
142 1 3.14404 9.43468 6.28928 -8.94959
143 1 6.2867 9.43582 6.28825 -8.95067
144 1 9.42236 9.41697 6.28198 -8.90703
145 1 12.6139 9.40317 6.25786 -8.8538
146 1 15.731 9.43218 6.28717 -8.95479
147 1 18.8701 9.43429 6.28944 -8.95077
148 1 -2.32955e-06 2.6041e-07 9.43453 -8.94964
167 1 15.7252 6.28863 9.43447 -8.94728
150 1 6.28955 2.91514e-05 9.43454 -8.94985
151 1 9.43452 0.000173545 9.43447 -8.94999
152 1 12.5795 0.000159549 9.43446 -8.94959
153 1 15.7243 6.41294e-06 9.43453 -8.94967
166 1 12.5788 6.28964 9.43413 -8.94649
155 1 22.0139 3.14483 9.43453 -8.94963
156 1 3.14472 3.14472 9.43453 -8.94968
181 1 17.2967 1.5724 11.007 -8.94962
344 1 1.5724 11.007 1.5724 -8.94966
177 1 4.71714 1.57227 11.007 -8.94951
184 1 4.71645 4.71643 11.0072 -8.9489
45 1 6.28962 9.43455 -7.58718e-05 -8.9496
41 1 18.8691 6.28968 -1.01125e-05 -8.94968
19 1 6.28969 3.14483 -1.23957e-05 -8.94962
25 1 15.7242 3.14483 -1.01346e-05 -8.94969
176 1 1.57241 1.57241 11.007 -8.94965
254 1 12.5794 -9.16556e-06 15.7243 -8.94959
178 1 7.86201 1.57178 11.007 -8.95074
179 1 11.0071 1.57211 11.007 -8.95021
180 1 14.1519 1.57233 11.0069 -8.94958
644 1 20.4415 11.007 20.4415 -8.94964
182 1 20.4415 1.57242 11.007 -8.94964
643 1 17.2967 11.007 20.4415 -8.94962
252 1 9.43453 -9.29917e-06 15.7242 -8.94962
185 1 7.86083 4.71221 11.0079 -8.95619
186 1 11.0073 4.71472 11.0072 -8.95142
187 1 14.1521 4.71669 11.0065 -8.94951
642 1 14.1519 11.0069 20.4415 -8.94992
641 1 11.0069 11.0069 20.4414 -8.94968
190 1 1.57164 7.862 11.007 -8.9508
191 1 4.71163 7.86044 11.0083 -8.9558
192 1 7.83093 7.8333 11.0334 -8.86777
193 1 11.0172 7.85138 11.0217 -8.92781
194 1 14.1546 7.86031 11.0042 -8.95098
195 1 17.2975 7.8616 11.0067 -8.94949
196 1 20.4415 7.86203 11.0069 -8.94979
343 1 18.8691 9.43453 18.8691 -8.94966
198 1 1.57241 1.57241 14.1518 -8.94967
342 1 15.7244 9.43447 18.8693 -8.9495
200 1 4.71714 1.57223 14.1519 -8.94968
201 1 6.28959 1.223e-05 12.5795 -8.95003
202 1 7.86209 1.5723 14.1519 -8.94961
341 1 12.5794 9.43448 18.8697 -8.95093
204 1 11.007 1.57225 14.1519 -8.94955
340 1 9.43446 9.43449 18.8694 -8.94977
206 1 14.1519 1.57223 14.1519 -8.94992
207 1 15.7242 3.36846e-06 12.5794 -8.94963
208 1 17.2966 1.57241 14.1518 -8.94966
339 1 6.2896 9.43452 18.8692 -8.94957
210 1 20.4415 1.57242 14.1518 -8.94963
211 1 -1.48802e-05 3.14483 12.5794 -8.94962
212 1 1.5722 4.71714 14.1519 -8.94962
213 1 3.14473 3.14473 12.5794 -8.94967
214 1 4.71607 4.71608 14.153 -8.94658
215 1 6.28917 3.14366 12.5799 -8.9505
216 1 7.86196 4.71634 14.1525 -8.94976
217 1 9.43468 3.14384 12.5798 -8.94989
218 1 11.007 4.7162 14.1526 -8.9485
219 1 12.5796 3.14377 12.5796 -8.95122
220 1 14.1527 4.71551 14.1527 -8.95001
221 1 15.7243 3.14473 12.5793 -8.94966
222 1 17.2967 4.71716 14.1518 -8.94997
223 1 18.8691 3.14482 12.5794 -8.94961
224 1 20.4415 4.71724 14.1518 -8.94966
225 1 22.0138 6.28963 12.5794 -8.94983
226 1 1.57229 7.8621 14.1519 -8.94962
227 1 3.14358 6.28911 12.5799 -8.95027
228 1 4.71651 7.86214 14.1523 -8.95066
229 1 6.28291 6.28301 12.5861 -8.93432
230 1 7.85817 7.85831 14.1587 -8.95083
231 1 9.43456 6.28455 12.5817 -8.95132
232 1 11.0063 7.85929 14.1564 -8.95053
233 1 12.5827 6.2823 12.5825 -8.95442
234 1 14.1605 7.85331 14.1604 -8.92875
235 1 15.7249 6.28911 12.5792 -8.95085
236 1 17.2983 7.86135 14.1525 -8.95032
237 1 18.8692 6.28958 12.5794 -8.94963
238 1 20.4417 7.86203 14.1519 -8.94983
239 1 22.0139 9.4345 12.5795 -8.94984
240 1 3.14398 9.43468 12.5798 -8.94969
241 1 6.28628 9.43605 12.5806 -8.95265
242 1 9.41752 9.41444 12.5888 -8.94057
243 1 12.62 9.39938 12.6141 -8.87254
244 1 15.7317 9.43243 12.5816 -8.95708
245 1 18.8702 9.43429 12.5796 -8.95094
246 1 -1.61736e-06 2.3969e-07 15.7242 -8.94965
247 1 1.5724 1.57241 17.2967 -8.94956
248 1 3.14481 2.03846e-06 15.7243 -8.9496
249 1 4.71726 1.57241 17.2967 -8.94968
338 1 3.14482 9.43452 18.8691 -8.94963
251 1 7.86211 1.5724 17.2967 -8.94963
337 1 22.0139 9.43453 18.8691 -8.94964
253 1 11.0069 1.5724 17.2967 -8.94964
336 1 20.4415 7.86211 20.4415 -8.94964
255 1 14.1518 1.57241 17.2967 -8.94963
335 1 18.8691 6.28968 18.8691 -8.94966
257 1 17.2967 1.57239 17.2967 -8.94958
258 1 18.8691 1.08647e-06 15.7242 -8.94965
259 1 20.4415 1.57242 17.2966 -8.94964
260 1 22.0139 3.14482 15.7242 -8.94961
261 1 1.57241 4.71726 17.2966 -8.94969
262 1 3.14468 3.14468 15.7244 -8.94912
263 1 4.7171 4.7171 17.2969 -8.94947
264 1 6.28965 3.14471 15.7243 -8.9498
265 1 7.86209 4.71715 17.2968 -8.94947
266 1 9.43451 3.14467 15.7244 -8.94956
267 1 11.007 4.71712 17.2968 -8.9496
268 1 12.5794 3.14468 15.7244 -8.94945
269 1 14.1518 4.71717 17.2968 -8.94983
270 1 15.7244 3.14455 15.7244 -8.94954
271 1 17.2968 4.71706 17.2968 -8.94896
272 1 18.8691 3.14483 15.7242 -8.94971
273 1 20.4415 4.71724 17.2967 -8.94961
274 1 22.0139 6.28967 15.7242 -8.94966
275 1 1.5724 7.8621 17.2967 -8.9496
276 1 3.14472 6.28966 15.7243 -8.9499
277 1 4.71718 7.86212 17.2968 -8.94957
278 1 6.28877 6.28879 15.7258 -8.94938
279 1 7.86194 7.86197 17.2975 -8.95136
280 1 9.43438 6.28895 15.7252 -8.94835
281 1 11.0067 7.86169 17.2976 -8.94973
282 1 12.5794 6.28905 15.7251 -8.94951
283 1 14.1523 7.86159 17.298 -8.95108
284 1 15.7257 6.28813 15.7257 -8.94556
285 1 17.2968 7.86203 17.2968 -8.94958
286 1 18.8693 6.28953 15.7244 -8.94961
287 1 20.4415 7.8621 17.2967 -8.94962
288 1 -1.67243e-06 9.43452 15.7243 -8.94964
289 1 3.14465 9.43448 15.7244 -8.94941
290 1 6.28921 9.43468 15.7249 -8.94896
291 1 9.43447 9.43459 15.7259 -8.95205
292 1 12.5803 9.4338 15.7296 -8.95872
293 1 15.7253 9.43406 15.7254 -8.94826
294 1 18.8693 9.43448 15.7244 -8.94952
49 1 18.8691 9.43453 22.0139 -8.94965
296 1 1.57242 1.57242 20.4415 -8.94962
334 1 17.2967 7.8621 20.4415 -8.9496
298 1 4.71727 1.57242 20.4415 -8.94964
299 1 6.28969 -2.01182e-06 18.8691 -8.94964
300 1 7.86211 1.57242 20.4415 -8.94964
333 1 15.7243 6.28955 18.8693 -8.94975
302 1 11.007 1.57242 20.4415 -8.94964
332 1 14.1519 7.86202 20.4415 -8.95009
304 1 14.1518 1.57242 20.4415 -8.94963
305 1 15.7242 -1.71246e-06 18.8691 -8.94965
306 1 17.2966 1.57242 20.4415 -8.94966
331 1 12.5794 6.28959 18.8692 -8.94956
308 1 20.4415 1.57242 20.4415 -8.94962
309 1 22.0139 3.14484 18.8691 -8.94964
310 1 1.57242 4.71727 20.4415 -8.94964
311 1 3.14482 3.14482 18.8691 -8.94959
312 1 4.71724 4.71724 20.4415 -8.94968
313 1 6.28969 3.14483 18.8691 -8.94963
314 1 7.8621 4.71723 20.4415 -8.9496
315 1 9.43453 3.14482 18.8691 -8.94964
316 1 11.007 4.71724 20.4415 -8.94963
317 1 12.5794 3.14482 18.8691 -8.94964
318 1 14.1518 4.71725 20.4415 -8.94962
319 1 15.7242 3.14483 18.8691 -8.9497
320 1 17.2967 4.71723 20.4415 -8.9496
321 1 18.8691 3.14482 18.8691 -8.94954
322 1 20.4415 4.71726 20.4415 -8.94965
323 1 22.0139 6.28968 18.8691 -8.94963
324 1 1.57242 7.86211 20.4415 -8.94963
325 1 3.14483 6.28969 18.8691 -8.94964
326 1 4.71724 7.86211 20.4415 -8.94962
327 1 6.28961 6.28961 18.8692 -8.94993
328 1 7.86206 7.86206 20.4415 -8.94996
329 1 9.43449 6.28956 18.8692 -8.94956
330 1 11.0069 7.86202 20.4415 -8.94983
512 1 1.57197 11.0069 11.0072 -8.94898
513 1 4.71658 11.0068 11.0077 -8.94259
515 1 11.0903 10.9698 11.2514 -8.32446
517 1 17.2997 11.0064 11.0072 -8.95052
518 1 20.4419 11.0069 11.007 -8.95002
540 1 1.57221 11.0069 14.152 -8.94961
541 1 4.71619 11.0069 14.1529 -8.9478
542 1 7.8615 11.0064 14.1529 -8.94633
544 1 14.1584 11.0065 14.1586 -8.94296
545 1 17.2982 11.007 14.1526 -8.94946
546 1 20.4417 11.007 14.1519 -8.94979
47 1 12.5794 9.43445 22.0132 -8.95089
591 1 7.86181 11.0069 17.2972 -8.94921
592 1 11.0067 11.0069 17.2976 -8.94723
593 1 14.1525 11.0069 17.2982 -8.94958
46 1 9.43442 9.43447 22.0135 -8.9498
638 1 1.57242 11.007 20.4415 -8.94964
639 1 4.71724 11.0069 20.4415 -8.94966
640 1 7.86205 11.0069 20.4415 -8.94965
3 1 3.14484 1.89146e-07 22.0139 -8.94965
39 1 15.7243 6.28955 22.0137 -8.94969
9 1 12.5794 3.05212e-07 22.0139 -8.94964
33 1 6.2896 6.28961 22.0137 -8.94988
13 1 18.8691 1.53189e-07 22.0139 -8.94962
15 1 22.0139 3.14484 22.0139 -8.94964
17 1 3.14482 3.14482 22.0139 -8.9496
31 1 3.14484 6.28969 22.0139 -8.94966
23 1 12.5794 3.14483 22.0139 -8.94963
29 1 22.0139 6.28969 22.0139 -8.94963
27 1 18.8691 3.14482 22.0139 -8.94955
21 1 9.43453 3.14482 22.0139 -8.94964
43 1 22.0139 9.43453 22.0139 -8.94964
539 1 20.4415 20.4415 11.007 -8.94964
688 3 10.2401 11.0334 9.44598 2.28155
346 1 7.86192 11.007 1.57214 -8.94896
347 1 11.0068 11.007 1.57109 -8.94879
348 1 14.1524 11.007 1.57122 -8.94935
687 2 10.9714 12.5304 10.2113 0.419486
529 1 11.0073 17.307 11.0075 -8.96265
154 1 18.8691 22.0139 9.43453 -8.94964
352 1 1.57241 14.1518 1.5724 -8.94961
353 1 3.14482 12.5794 -2.38657e-05 -8.94962
354 1 4.7172 14.1517 1.57232 -8.94963
149 1 3.14481 22.0139 9.43453 -8.94962
356 1 7.8619 14.1519 1.57145 -8.95129
393 1 1.57225 11.0069 4.71711 -8.94954
358 1 11.0067 14.1521 1.57144 -8.94996
399 1 20.4416 11.007 4.71718 -8.9497
360 1 14.1523 14.1523 1.57122 -8.95066
361 1 15.7243 12.5794 -0.000152107 -8.9495
362 1 17.2968 14.1518 1.5723 -8.94965
363 1 18.8691 12.5794 -1.35834e-05 -8.94965
364 1 20.4415 14.1518 1.57241 -8.94962
109 1 15.7243 22.0139 6.28967 -8.9496
366 1 1.57241 17.2966 1.57241 -8.94971
103 1 6.28957 22.014 6.28957 -8.95002
368 1 4.7171 17.2968 1.57215 -8.94959
369 1 6.2896 15.7243 -0.000189098 -8.94993
370 1 7.86207 17.2968 1.5722 -8.94947
99 1 22.0139 22.0139 6.28969 -8.94964
372 1 11.007 17.2968 1.57219 -8.94958
62 1 18.8691 22.0139 3.14484 -8.94964
374 1 14.1518 17.2967 1.57227 -8.94981
375 1 15.7243 15.7243 -0.00018553 -8.94971
376 1 17.2968 17.2968 1.57225 -8.94913
58 1 12.5794 22.0139 3.14481 -8.9496
378 1 20.4415 17.2967 1.5724 -8.94963
1 1 22.0139 22.0139 -2.08304e-06 -8.94962
380 1 1.5724 20.4415 1.5724 -8.94954
381 1 3.14482 18.8691 -3.0195e-05 -8.9496
382 1 4.71726 20.4415 1.57241 -8.94969
56 1 9.43453 22.0139 3.14481 -8.94963
384 1 7.8621 20.4415 1.5724 -8.94964
385 1 9.43453 18.8691 -2.42198e-05 -8.94964
386 1 11.007 20.4415 1.5724 -8.94965
387 1 12.5794 18.8691 -2.5655e-05 -8.94963
388 1 14.1518 20.4415 1.5724 -8.94962
52 1 3.1448 22.0139 3.1448 -8.94958
390 1 17.2967 20.4415 1.57239 -8.94959
391 1 18.8691 18.8691 -1.32026e-05 -8.94956
392 1 20.4415 20.4415 1.57242 -8.94963
511 1 18.8691 18.8691 9.43453 -8.94965
510 1 15.7245 18.8693 9.43455 -8.94956
395 1 7.86305 11.007 4.71743 -8.94899
396 1 11.0098 11.0066 4.71555 -9.00036
397 1 14.1565 11.0072 4.71207 -8.94648
509 1 12.5801 18.8702 9.43398 -8.94756
508 1 9.43421 18.8715 9.434 -8.94794
400 1 -2.7295e-06 12.5794 3.14481 -8.94963
401 1 1.5723 14.1518 4.71717 -8.94957
402 1 3.1447 12.5794 3.14469 -8.94944
403 1 4.71666 14.1515 4.71675 -8.95062
404 1 6.28935 12.579 3.14434 -8.94931
405 1 7.8593 14.1545 4.71019 -8.95592
406 1 9.43427 12.5795 3.14319 -8.94979
407 1 11.0064 14.1539 4.71233 -8.95203
408 1 12.5805 12.5803 3.14004 -8.95598
409 1 14.1585 14.1586 4.7102 -8.93489
410 1 15.725 12.5797 3.14399 -8.94858
411 1 17.2979 14.1523 4.71667 -8.95049
412 1 18.8692 12.5794 3.14472 -8.9495
413 1 20.4416 14.1518 4.7172 -8.94981
414 1 22.0139 15.7242 3.14482 -8.94966
415 1 1.57216 17.2968 4.71711 -8.94963
416 1 3.14475 15.7242 3.14475 -8.94997
417 1 4.71572 17.2981 4.71571 -8.94547
418 1 6.28888 15.725 3.14317 -8.95024
419 1 7.8619 17.2977 4.71632 -8.94928
420 1 9.43442 15.725 3.14356 -8.94881
421 1 11.0072 17.2979 4.71621 -8.94781
422 1 12.5794 15.7249 3.14387 -8.94986
423 1 14.1527 17.2982 4.71632 -8.94957
424 1 15.7254 15.7254 3.14357 -8.94667
425 1 17.2969 17.2968 4.71714 -8.94959
426 1 18.8693 15.7243 3.14472 -8.94968
427 1 20.4415 17.2967 4.71723 -8.94962
428 1 22.0139 18.8691 3.14482 -8.9496
429 1 1.57241 20.4415 4.71726 -8.94968
430 1 3.14464 18.8693 3.14464 -8.94896
431 1 4.71711 20.4417 4.71711 -8.94967
432 1 6.28964 18.8692 3.1447 -8.94975
433 1 7.8621 20.4417 4.71713 -8.9496
434 1 9.43451 18.8693 3.14466 -8.94959
435 1 11.007 20.4417 4.7171 -8.94954
436 1 12.5794 18.8693 3.14467 -8.94942
437 1 14.1519 20.4417 4.71715 -8.94988
438 1 15.7244 18.8693 3.14466 -8.94949
439 1 17.2967 20.4415 4.71725 -8.94963
440 1 18.8691 18.8691 3.14483 -8.94964
441 1 20.4415 20.4415 4.71726 -8.94964
507 1 6.28894 18.8704 9.43457 -8.94934
506 1 3.14468 18.8692 9.43453 -8.94966
444 1 7.87288 11.0019 7.86414 -8.94896
505 1 22.0139 18.8691 9.43453 -8.94963
446 1 14.165 11.002 7.85391 -9.00247
504 1 18.8693 15.7244 9.43454 -8.94942
503 1 15.7252 15.725 9.4347 -8.94816
449 1 22.0139 12.5794 6.28961 -8.94974
450 1 1.5715 14.1519 7.86198 -8.95108
451 1 3.14405 12.5791 6.28927 -8.9493
452 1 4.71047 14.1537 7.86035 -8.95736
453 1 6.28707 12.577 6.28842 -8.95128
454 1 7.824 14.1897 7.8253 -8.86558
455 1 9.42419 12.5945 6.28466 -8.9633
456 1 11.0161 14.16 7.84273 -8.95455
457 1 12.6105 12.6082 6.26228 -8.91039
458 1 14.157 14.157 7.86078 -8.97876
459 1 15.7297 12.5808 6.28832 -8.95644
460 1 17.2984 14.1528 7.86164 -8.94857
461 1 18.8699 12.5795 6.28955 -8.95054
462 1 20.4417 14.1519 7.86202 -8.94991
463 1 22.0138 15.7243 6.28961 -8.9499
464 1 1.57221 17.2968 7.86208 -8.9495
465 1 3.14326 15.7249 6.28897 -8.95058
466 1 4.71624 17.2977 7.86183 -8.94879
467 1 6.2808 15.733 6.28076 -8.92818
468 1 7.86032 17.3033 7.8605 -8.9577
469 1 9.43508 15.7301 6.28555 -8.94876
470 1 11.0073 17.2991 7.8617 -8.95055
471 1 12.5825 15.7311 6.28581 -8.95322
472 1 14.1525 17.298 7.86205 -8.95004
473 1 15.7255 15.7254 6.28907 -8.94907
474 1 17.2968 17.2968 7.86212 -8.94976
475 1 18.8694 15.7244 6.28954 -8.94946
476 1 20.4415 17.2967 7.8621 -8.94963
477 1 -1.87991e-05 18.8691 6.28968 -8.94963
478 1 1.5724 20.4415 7.86211 -8.94965
479 1 3.1447 18.8692 6.28964 -8.9497
480 1 4.71711 20.4417 7.86208 -8.94952
481 1 6.28901 18.8706 6.289 -8.95065
482 1 7.8619 20.4424 7.8619 -8.95088
483 1 9.43476 18.8703 6.28912 -8.95007
484 1 11.0071 20.442 7.862 -8.94971
485 1 12.5796 18.8702 6.28933 -8.95123
486 1 14.152 20.4418 7.86201 -8.94954
487 1 15.7244 18.8693 6.28963 -8.94961
488 1 17.2967 20.4415 7.86211 -8.94964
489 1 18.8691 18.8691 6.28968 -8.94967
490 1 20.4415 20.4415 7.86211 -8.94964
491 1 22.0138 12.5794 9.43453 -8.9503
492 1 3.14259 12.579 9.43454 -8.95172
493 1 6.27918 12.5841 9.43424 -8.98273
494 1 9.29735 12.7994 9.41607 -8.33308
495 1 12.6216 12.5734 9.41129 -9.1393
496 1 15.734 12.58 9.43411 -8.95915
497 1 18.8707 12.5796 9.43452 -8.95158
498 1 -0.000158 15.7243 9.43453 -8.94972
499 1 3.14346 15.7249 9.43456 -8.94915
500 1 6.2838 15.73 9.43477 -8.94499
501 1 9.42956 15.7291 9.43227 -9.05037
502 1 12.5798 15.725 9.4322 -8.9978
526 1 1.57221 17.2968 11.007 -8.9495
11 1 15.7242 22.0139 -1.75793e-06 -8.94964
5 1 6.28968 22.0139 -3.06306e-06 -8.94963
527 1 4.71625 17.2977 11.0073 -8.94845
532 1 20.4415 17.2967 11.007 -8.94962
534 1 4.71711 20.4417 11.007 -8.94949
538 1 17.2967 20.4415 11.007 -8.94961
365 1 22.0139 15.7242 -1.84675e-06 -8.94963
686 1 20.4415 20.4415 20.4415 -8.94962
685 1 18.8691 18.8691 18.8691 -8.94955
514 1 7.87352 11.0048 11.0038 -8.95792
684 1 17.2966 20.4415 20.4415 -8.94966
516 1 14.1646 11.0049 11.0138 -9.02303
683 1 15.7242 18.8691 18.8691 -8.94972
682 1 14.1518 20.4415 20.4415 -8.94963
519 1 1.57154 14.1519 11.0071 -8.95094
520 1 4.71085 14.1536 11.0086 -8.95646
521 1 7.82666 14.1856 11.041 -8.89633
522 1 11.0166 14.2013 11.0386 -9.17055
523 1 14.1558 14.1543 11.0072 -9.00021
524 1 17.2983 14.1527 11.0073 -8.94806
525 1 20.4417 14.1519 11.007 -8.94982
594 1 17.2968 11.0069 17.2968 -8.94966
590 1 4.7171 11.0069 17.2969 -8.94963
528 1 7.86086 17.3024 11.0079 -8.95747
307 1 18.8691 22.0139 18.8691 -8.94961
530 1 14.152 17.2973 11.0064 -8.95028
531 1 17.2968 17.2969 11.0069 -8.94944
295 1 22.0139 22.0139 18.8691 -8.94962
533 1 1.5724 20.4415 11.007 -8.94965
377 1 18.8691 15.7242 22.0139 -8.94967
535 1 7.86199 20.4423 11.007 -8.95076
536 1 11.0071 20.443 11.007 -8.95219
537 1 14.1519 20.4416 11.0069 -8.9495
373 1 12.5794 15.7243 22.0137 -8.94962
303 1 12.5794 22.0139 18.8691 -8.94964
681 1 12.5794 18.8691 18.8691 -8.94962
680 1 11.007 20.4415 20.4415 -8.94964
679 1 9.43453 18.8691 18.8691 -8.94963
543 1 11.0099 11.0072 14.1499 -9.0503
678 1 7.86211 20.4415 20.4415 -8.94964
677 1 6.28969 18.8691 18.8691 -8.94966
676 1 4.71727 20.4415 20.4415 -8.94964
547 1 22.0139 12.5794 12.5794 -8.94982
548 1 1.57227 14.1518 14.1519 -8.94964
549 1 3.14393 12.5791 12.5798 -8.94961
550 1 4.7164 14.1517 14.1524 -8.95077
551 1 6.28615 12.5771 12.5807 -8.95238
552 1 7.85798 14.1551 14.1597 -8.95258
553 1 9.41822 12.5951 12.591 -8.94578
554 1 11.0063 14.1522 14.1543 -8.99836
555 1 12.6171 12.6079 12.6141 -8.89933
556 1 14.16 14.1594 14.1602 -8.93119
557 1 15.7311 12.5809 12.5812 -8.95699
558 1 17.2982 14.1524 14.1526 -8.95055
559 1 18.87 12.5795 12.5795 -8.95091
560 1 20.4417 14.1518 14.1519 -8.94988
561 1 22.0138 15.7243 12.5794 -8.94988
562 1 1.57217 17.2968 14.1519 -8.94964
563 1 3.14334 15.7249 12.58 -8.95054
564 1 4.71579 17.298 14.1532 -8.94604
565 1 6.28122 15.7321 12.5874 -8.93161
566 1 7.86137 17.2981 14.1531 -8.94848
567 1 9.43147 15.7309 12.5844 -8.98119
568 1 11.0071 17.2973 14.1524 -8.94876
569 1 12.5857 15.732 12.5846 -8.98169
570 1 14.1532 17.2987 14.1532 -8.94876
571 1 15.7257 15.7251 12.5797 -8.95087
572 1 17.2969 17.2968 14.1519 -8.94985
573 1 18.8694 15.7244 12.5795 -8.94953
574 1 20.4415 17.2967 14.1518 -8.94963
575 1 -1.88236e-05 18.8691 12.5794 -8.94962
576 1 1.57241 20.4415 14.1518 -8.94967
577 1 3.1447 18.8692 12.5794 -8.94965
578 1 4.71712 20.4417 14.1519 -8.94974
579 1 6.28908 18.8704 12.5799 -8.9509
580 1 7.86198 20.4418 14.152 -8.94945
581 1 9.43412 18.871 12.5804 -8.94882
582 1 11.007 20.4417 14.152 -8.94932
583 1 12.5802 18.8709 12.5802 -8.94993
584 1 14.152 20.4419 14.152 -8.94973
585 1 15.7243 18.8692 12.5793 -8.94994
586 1 17.2967 20.4415 14.1518 -8.94971
587 1 18.8691 18.8691 12.5794 -8.94964
588 1 20.4415 20.4415 14.1518 -8.94964
589 1 1.5724 11.0069 17.2967 -8.94965
675 1 3.14482 18.8691 18.8691 -8.94959
674 1 1.57242 20.4415 20.4415 -8.94962
673 1 22.0139 18.8691 18.8691 -8.94964
672 1 20.4415 17.2966 20.4415 -8.94965
671 1 18.8691 15.7242 18.8691 -8.94967
595 1 20.4415 11.0069 17.2967 -8.94962
596 1 -8.42678e-07 12.5794 15.7243 -8.94963
597 1 1.5724 14.1518 17.2967 -8.9496
598 1 3.14464 12.5794 15.7244 -8.9494
599 1 4.71717 14.1518 17.2968 -8.94964
600 1 6.28917 12.579 15.7249 -8.94892
601 1 7.86184 14.152 17.2978 -8.95145
602 1 9.43434 12.5793 15.7265 -8.95246
603 1 11.0067 14.1522 17.2975 -8.94889
604 1 12.5804 12.5801 15.7299 -8.95853
605 1 14.1524 14.1523 17.2981 -8.95091
606 1 15.7253 12.5797 15.7254 -8.94815
607 1 17.2968 14.1519 17.2968 -8.94963
608 1 18.8693 12.5794 15.7244 -8.94946
609 1 20.4415 14.1518 17.2967 -8.94961
610 1 22.0139 15.7242 15.7242 -8.94967
611 1 1.57241 17.2966 17.2967 -8.94969
612 1 3.1447 15.7242 15.7243 -8.94992
613 1 4.71709 17.2968 17.2969 -8.94948
614 1 6.2887 15.7252 15.726 -8.94948
615 1 7.86212 17.2967 17.2969 -8.94971
616 1 9.43462 15.7247 15.7254 -8.9498
617 1 11.007 17.2968 17.2968 -8.94943
618 1 12.5792 15.7246 15.7251 -8.95089
619 1 14.1518 17.2967 17.2968 -8.95003
620 1 15.7256 15.7257 15.7257 -8.94591
621 1 17.2968 17.2968 17.2968 -8.94902
622 1 18.8693 15.7244 15.7244 -8.94963
623 1 20.4415 17.2967 17.2967 -8.94961
624 1 22.0139 18.8691 15.7242 -8.94961
625 1 1.5724 20.4415 17.2967 -8.94955
626 1 3.14465 18.8692 15.7244 -8.94904
627 1 4.71725 20.4415 17.2967 -8.94964
628 1 6.28956 18.8693 15.7244 -8.94953
629 1 7.86212 20.4415 17.2967 -8.94968
630 1 9.43458 18.8692 15.7244 -8.94976
631 1 11.007 20.4415 17.2967 -8.94964
632 1 12.5793 18.8692 15.7244 -8.94961
633 1 14.1518 20.4415 17.2967 -8.94967
634 1 15.7245 18.8694 15.7245 -8.94928
635 1 17.2967 20.4415 17.2967 -8.94955
636 1 18.8691 18.8691 15.7242 -8.94967
637 1 20.4415 20.4415 17.2966 -8.94963
670 1 17.2967 17.2967 20.4415 -8.94959
669 1 15.7244 15.7244 18.8693 -8.9497
668 1 14.1518 17.2967 20.4415 -8.94964
667 1 12.5793 15.7243 18.8692 -8.94959
666 1 11.007 17.2967 20.4415 -8.94964
665 1 9.43451 15.7243 18.8692 -8.94961
664 1 7.8621 17.2967 20.4415 -8.94962
645 1 22.0139 12.5794 18.8691 -8.94964
646 1 1.57242 14.1518 20.4415 -8.94963
647 1 3.14482 12.5794 18.8691 -8.94963
648 1 4.71724 14.1518 20.4415 -8.94962
649 1 6.2896 12.5794 18.8692 -8.94956
650 1 7.86205 14.1518 20.4415 -8.95003
651 1 9.43447 12.5794 18.8695 -8.94997
652 1 11.0069 14.1519 20.4415 -8.94978
653 1 12.5794 12.5794 18.8698 -8.95103
654 1 14.1519 14.1519 20.4415 -8.95009
655 1 15.7244 12.5794 18.8693 -8.94948
656 1 17.2967 14.1518 20.4415 -8.94959
657 1 18.8691 12.5794 18.8691 -8.94966
658 1 20.4415 14.1518 20.4415 -8.94964
659 1 22.0139 15.7242 18.8691 -8.94963
660 1 1.57242 17.2966 20.4415 -8.94965
661 1 3.14483 15.7242 18.8691 -8.94966
662 1 4.71723 17.2967 20.4415 -8.94967
663 1 6.28959 15.7243 18.8693 -8.9499
197 1 22.0139 22.0139 12.5794 -8.94964
199 1 3.14481 22.0139 12.5794 -8.9496
203 1 9.4345 22.0141 12.5795 -8.94991
205 1 12.5795 22.0141 12.5795 -8.95004
209 1 18.8691 22.0139 12.5794 -8.94963
250 1 6.28967 22.0139 15.7243 -8.94959
389 1 15.7242 18.8691 22.0139 -8.94969
383 1 6.28968 18.8691 22.0139 -8.94962
256 1 15.7243 22.0139 15.7243 -8.94963
297 1 3.14484 22.0139 18.8691 -8.94965
301 1 9.43453 22.0139 18.8691 -8.94964
351 1 22.0139 12.5794 22.0139 -8.94964
355 1 6.28961 12.5793 22.0138 -8.9496
371 1 9.43449 15.7243 22.0137 -8.94965
367 1 3.14483 15.7242 22.0139 -8.94965
357 1 9.43442 12.5794 22.0136 -8.9497
359 1 12.5794 12.5794 22.0133 -8.95072
379 1 22.0139 18.8691 22.0139 -8.94964
