ITEM: TIMESTEP
98
ITEM: NUMBER OF ATOMS
688
ITEM: BOX BOUNDS pp pp pp
0.0000000000000000e+00 2.2013900999999997e+01
0.0000000000000000e+00 2.2013900999999997e+01
0.0000000000000000e+00 2.2013900999999997e+01
ITEM: ATOMS id type x y z c_pot
189 1 20.4415 4.7164 11.0071 -8.94954
2 1 1.57171 1.57214 1.57171 -8.94918
448 1 20.4431 11.0067 7.86183 -8.94952
4 1 4.71659 1.57201 1.57151 -8.94959
447 1 17.3015 11.0056 7.86101 -8.94971
6 1 7.86184 1.57198 1.57155 -8.94943
7 1 9.43449 6.77312e-05 -0.000435249 -8.94951
8 1 11.0071 1.57192 1.5716 -8.94948
445 1 11.0773 11.0017 7.61776 -8.15645
10 1 14.1523 1.57184 1.57171 -8.94946
443 1 4.71974 11.0076 7.86273 -8.94368
12 1 17.2974 1.57178 1.57178 -8.94947
442 1 1.57253 11.0069 7.86184 -8.94799
14 1 20.4416 1.57213 1.57208 -8.94955
188 1 17.2977 4.71595 11.0069 -8.94893
16 1 1.5719 4.71679 1.57164 -8.94975
398 1 17.3017 11.0069 4.7143 -8.94938
18 1 4.71575 4.71591 1.57045 -8.94931
394 1 4.71533 11.0066 4.71516 -8.94617
20 1 7.86144 4.7159 1.57076 -8.94913
50 1 -0.000460325 0.000123395 3.14439 -8.9495
22 1 11.0071 4.71571 1.57078 -8.94938
183 1 1.57053 4.71596 11.0074 -8.94931
24 1 14.1529 4.71546 1.57069 -8.94955
349 1 17.2988 11.007 1.57071 -8.94946
26 1 17.2985 4.71541 1.5709 -8.94817
345 1 4.7165 11.0068 1.5714 -8.9495
28 1 20.4421 4.71656 1.57179 -8.94949
165 1 9.43057 6.29153 9.43432 -8.99364
30 1 1.57218 7.86192 1.5718 -8.9494
164 1 6.27974 6.28008 9.43433 -8.94226
32 1 4.71653 7.86201 1.57139 -8.94966
163 1 3.1404 6.28709 9.43445 -8.94913
34 1 7.86149 7.86136 1.56991 -8.95233
35 1 9.43411 6.28865 -0.0010698 -8.9496
36 1 11.007 7.86051 1.56921 -8.95051
37 1 12.5797 6.28848 -0.00120952 -8.94968
38 1 14.1541 7.86001 1.56825 -8.95162
162 1 -0.00101494 6.28878 9.43447 -8.94993
40 1 17.2987 7.86095 1.57067 -8.94932
161 1 18.8694 3.14413 9.43447 -8.94955
42 1 20.4423 7.86166 1.5717 -8.94947
350 1 20.4423 11.0069 1.57166 -8.94948
44 1 3.14441 9.43443 -0.000376171 -8.94949
160 1 15.725 3.14387 9.43442 -8.9496
159 1 12.5796 3.14488 9.43443 -8.94791
158 1 9.43418 3.144 9.43442 -8.947
48 1 15.7259 9.43398 -0.0012826 -8.9495
157 1 6.28684 3.14114 9.43446 -8.94955
175 1 18.8703 9.43381 9.43439 -8.94723
51 1 1.57147 1.57207 4.71659 -8.94944
174 1 15.7228 9.43489 9.43459 -8.93976
53 1 4.71586 1.57149 4.71588 -8.94998
54 1 6.28912 0.000315399 3.1437 -8.94962
55 1 7.86174 1.5715 4.71609 -8.94983
173 1 12.5575 9.44822 9.43422 -8.9627
57 1 11.0073 1.57149 4.71621 -8.94973
172 1 9.36976 9.24253 9.43262 -8.24527
59 1 14.1525 1.57137 4.71664 -8.95067
60 1 15.7249 7.07233e-05 3.14421 -8.95005
61 1 17.2971 1.57204 4.71706 -8.94973
171 1 6.2835 9.42824 9.43475 -8.96848
63 1 20.4414 1.57217 4.71698 -8.9495
64 1 22.0134 3.1443 3.14422 -8.94957
65 1 1.57075 4.71617 4.71609 -8.9497
66 1 3.14317 3.14357 3.14319 -8.94846
67 1 4.71292 4.71323 4.71317 -8.94557
68 1 6.28861 3.14326 3.14314 -8.94969
69 1 7.8604 4.71317 4.71425 -8.94953
70 1 9.43435 3.14325 3.14331 -8.94933
71 1 11.0076 4.71342 4.71427 -8.94798
72 1 12.58 3.14312 3.14342 -8.94917
73 1 14.1551 4.71215 4.71412 -8.95006
74 1 15.7258 3.14277 3.14345 -8.94948
75 1 17.2982 4.71572 4.7166 -8.95046
76 1 18.8697 3.14406 3.14436 -8.94985
77 1 20.4416 4.71656 4.71684 -8.94987
78 1 22.014 6.28918 3.14413 -8.94987
79 1 1.57167 7.86189 4.71652 -8.95008
80 1 3.14334 6.28895 3.14338 -8.95017
81 1 4.7142 7.861 4.71501 -8.95102
82 1 6.28628 6.28635 3.13996 -8.9492
83 1 7.85502 7.85396 4.70643 -8.94991
84 1 9.4338 6.28657 3.14113 -8.94763
85 1 11.0083 7.85559 4.70743 -8.94924
86 1 12.5812 6.28623 3.14058 -8.94881
87 1 14.1658 7.84916 4.70366 -8.92906
88 1 15.7292 6.28486 3.14015 -8.94434
89 1 17.302 7.85927 4.71435 -8.9504
90 1 18.8712 6.28822 3.14348 -8.94955
91 1 20.4429 7.86138 4.71641 -8.9502
92 1 0.000313139 9.4343 3.14402 -8.94953
93 1 3.14395 9.43433 3.14375 -8.9489
94 1 6.28888 9.4346 3.14339 -8.94907
95 1 9.4352 9.43374 3.1421 -8.9531
96 1 12.583 9.43266 3.13608 -8.95948
97 1 15.7288 9.4329 3.14043 -8.94814
98 1 18.8713 9.43397 3.14334 -8.9494
170 1 3.14307 9.43469 9.43449 -8.95086
100 1 1.57136 1.57202 7.86183 -8.94946
101 1 3.14351 0.000331096 6.28896 -8.94935
102 1 4.71557 1.5714 7.86152 -8.94941
169 1 22.0139 9.43436 9.43445 -8.94929
104 1 7.86152 1.57127 7.86176 -8.95137
105 1 9.43468 0.000606348 6.28893 -8.95036
106 1 11.0071 1.5722 7.86206 -8.94937
107 1 12.5798 0.00032039 6.28939 -8.95039
108 1 14.1523 1.57224 7.8621 -8.94942
168 1 18.87 6.28848 9.4344 -8.94949
110 1 17.2971 1.57205 7.86202 -8.94954
111 1 18.8693 9.88094e-05 6.28952 -8.94955
112 1 20.4413 1.57214 7.86198 -8.94953
113 1 -0.000676269 3.1442 6.28927 -8.94943
114 1 1.57052 4.71598 7.8616 -8.9493
115 1 3.14293 3.1434 6.28864 -8.9492
116 1 4.71311 4.71344 7.86063 -8.94775
117 1 6.28751 3.14132 6.28784 -8.95132
118 1 7.85885 4.70955 7.86071 -8.95805
119 1 9.43455 3.14208 6.28838 -8.95079
120 1 11.0066 4.71567 7.86171 -8.95094
121 1 12.5799 3.14247 6.28906 -8.95243
122 1 14.1524 4.7163 7.86268 -8.94926
123 1 15.7249 3.14389 6.2897 -8.94972
124 1 17.2977 4.71602 7.86196 -8.94888
125 1 18.8694 3.14419 6.2895 -8.94939
126 1 20.4414 4.71643 7.8619 -8.94953
127 1 22.0131 6.28899 6.2892 -8.95013
128 1 1.57027 7.86154 7.86179 -8.95138
129 1 3.14066 6.28751 6.28769 -8.95071
130 1 4.70838 7.85835 7.86003 -8.95674
131 1 6.278 6.27802 6.27918 -8.93428
132 1 7.82791 7.82893 7.83478 -8.87688
133 1 9.43352 6.28039 6.28448 -8.95233
134 1 11.0196 7.85586 7.84004 -8.91443
135 1 12.5855 6.27884 6.28282 -8.95451
136 1 14.155 7.86067 7.86435 -8.95415
137 1 15.727 6.28739 6.28917 -8.95193
138 1 17.2985 7.86102 7.86256 -8.9499
139 1 18.8701 6.28875 6.28951 -8.94991
140 1 20.4419 7.8615 7.862 -8.94975
141 1 22.0143 9.43435 6.2892 -8.95003
142 1 3.14339 9.43496 6.28912 -8.95063
143 1 6.28477 9.4341 6.2872 -8.9519
144 1 9.41825 9.40776 6.27651 -8.89686
145 1 12.6209 9.39899 6.2511 -8.85002
146 1 15.7361 9.43042 6.28411 -8.95668
147 1 18.8726 9.43361 6.2886 -8.95157
148 1 -0.00057038 0.000132444 9.43452 -8.94952
167 1 15.7263 6.28746 9.43425 -8.94583
150 1 6.28836 0.000661933 9.4345 -8.95035
151 1 9.4345 0.000871028 9.43438 -8.94873
152 1 12.5799 0.000636722 9.43437 -8.94919
153 1 15.7248 0.000162676 9.43449 -8.94966
166 1 12.5772 6.29266 9.43444 -8.94401
155 1 22.0132 3.14415 9.4345 -8.94949
156 1 3.1428 3.14333 9.4345 -8.94946
181 1 17.2971 1.57202 11.0069 -8.94954
344 1 1.57218 11.0069 1.57174 -8.94952
177 1 4.71558 1.57137 11.0075 -8.94941
184 1 4.71309 4.71341 11.0083 -8.94783
45 1 6.28922 9.43453 -0.000450242 -8.94944
41 1 18.8701 6.28896 -0.000480063 -8.94946
19 1 6.28921 3.14422 -0.000583232 -8.94947
25 1 15.7249 3.14393 -0.00051254 -8.94957
176 1 1.57137 1.57201 11.0072 -8.94946
254 1 12.5798 -8.89398e-05 15.7251 -8.94949
178 1 7.86153 1.57114 11.0072 -8.95127
179 1 11.0071 1.57218 11.0069 -8.94974
180 1 14.1523 1.57209 11.0068 -8.94937
644 1 20.4421 11.0069 20.4416 -8.94951
182 1 20.4414 1.57213 11.007 -8.94953
643 1 17.298 11.007 20.4417 -8.94946
252 1 9.43457 -1.72818e-05 15.7252 -8.9495
185 1 7.85876 4.70946 11.0081 -8.95776
186 1 11.0066 4.71519 11.0072 -8.95119
187 1 14.1526 4.71601 11.0061 -8.94909
642 1 14.1529 11.007 20.4418 -8.95049
641 1 11.0069 11.0069 20.4417 -8.94851
190 1 1.57024 7.8615 11.0072 -8.95144
191 1 4.70812 7.85819 11.0089 -8.95643
192 1 7.82769 7.82921 11.033 -8.87476
193 1 11.0194 7.85425 11.0292 -8.92988
194 1 14.1562 7.86011 11.0039 -8.95147
195 1 17.299 7.8608 11.0062 -8.94971
196 1 20.442 7.86145 11.0069 -8.94982
343 1 18.8703 9.4342 18.8699 -8.94945
198 1 1.57148 1.57203 14.1525 -8.94944
342 1 15.7261 9.43384 18.871 -8.94947
200 1 4.71587 1.5714 14.1531 -8.94998
201 1 6.28875 0.000510858 12.5802 -8.95067
202 1 7.86164 1.57131 14.153 -8.94989
341 1 12.5799 9.43413 18.8714 -8.95171
204 1 11.0073 1.57123 14.1529 -8.94965
340 1 9.43441 9.43441 18.8701 -8.94978
206 1 14.1526 1.57114 14.1525 -8.95077
207 1 15.7247 8.6663e-05 12.5794 -8.94961
208 1 17.2972 1.57192 14.1519 -8.94977
339 1 6.28909 9.43447 18.8698 -8.94938
210 1 20.4414 1.57214 14.1521 -8.9495
211 1 -0.000656806 3.14418 12.5797 -8.94944
212 1 1.57076 4.71613 14.1529 -8.94966
213 1 3.14293 3.14337 12.5804 -8.9492
214 1 4.71288 4.7132 14.1558 -8.94565
215 1 6.28748 3.14123 12.5811 -8.95119
216 1 7.86007 4.71258 14.155 -8.94985
217 1 9.43447 3.14174 12.5806 -8.95106
218 1 11.0076 4.71283 14.155 -8.94791
219 1 12.58 3.14204 12.58 -8.95277
220 1 14.1555 4.71127 14.1553 -8.95058
221 1 15.725 3.14369 12.5792 -8.94966
222 1 17.2984 4.71548 14.1524 -8.95049
223 1 18.8695 3.14413 12.5795 -8.9494
224 1 20.4417 4.71648 14.1522 -8.94984
225 1 22.0132 6.28894 12.5798 -8.95013
226 1 1.57168 7.86188 14.1525 -8.95019
227 1 3.14059 6.28746 12.5813 -8.95056
228 1 4.71386 7.86101 14.1539 -8.95184
229 1 6.27793 6.27811 12.5895 -8.93423
230 1 7.85273 7.85174 14.1644 -8.94635
231 1 9.43299 6.27902 12.5847 -8.95375
232 1 11.0084 7.85408 14.1627 -8.94897
233 1 12.5861 6.27712 12.5866 -8.95638
234 1 14.1692 7.84584 14.1685 -8.9234
235 1 15.7275 6.28697 12.5797 -8.95169
236 1 17.303 7.85882 14.155 -8.95097
237 1 18.8704 6.28862 12.5795 -8.94984
238 1 20.4432 7.8613 14.1526 -8.95032
239 1 22.0144 9.43434 12.5798 -8.9501
240 1 3.14332 9.43505 12.5797 -8.95085
241 1 6.2842 9.43487 12.5809 -8.956
242 1 9.4096 9.40132 12.5977 -8.92654
243 1 12.6322 9.39077 12.6258 -8.85995
244 1 15.7386 9.43022 12.5852 -8.95959
245 1 18.8732 9.43357 12.5803 -8.95201
246 1 -0.000435866 9.83033e-05 15.7247 -8.94951
247 1 1.57172 1.57211 17.2973 -8.94921
248 1 3.14377 0.000231614 15.7253 -8.94951
249 1 4.71653 1.57193 17.2976 -8.94958
338 1 3.14437 9.43441 18.8696 -8.94949
251 1 7.86182 1.57184 17.2975 -8.94943
337 1 22.0142 9.43438 18.8695 -8.94951
253 1 11.0071 1.57178 17.2975 -8.94947
336 1 20.4421 7.8618 20.4416 -8.9495
255 1 14.1523 1.57168 17.2974 -8.94945
335 1 18.8702 6.28887 18.8698 -8.9494
257 1 17.2975 1.57167 17.2974 -8.94946
258 1 18.8693 4.90187e-05 15.7245 -8.94971
259 1 20.4416 1.5721 17.297 -8.94957
260 1 22.0134 3.14426 15.7248 -8.94956
261 1 1.57189 4.71673 17.2975 -8.9498
262 1 3.14316 3.14352 15.7258 -8.94851
263 1 4.71555 4.7157 17.2988 -8.94904
264 1 6.28845 3.14303 15.726 -8.94973
265 1 7.86133 4.71571 17.2985 -8.94908
266 1 9.43429 3.143 15.7258 -8.94928
267 1 11.007 4.71549 17.2985 -8.9493
268 1 12.5801 3.14281 15.7258 -8.94912
269 1 14.153 4.71517 17.2987 -8.9495
270 1 15.726 3.1424 15.7258 -8.94956
271 1 17.2988 4.71505 17.2985 -8.94777
272 1 18.8698 3.14396 15.7247 -8.94988
273 1 20.4423 4.71647 17.2974 -8.94951
274 1 22.0141 6.28912 15.725 -8.94995
275 1 1.57216 7.86186 17.2974 -8.94939
276 1 3.14322 6.28887 15.7257 -8.95037
277 1 4.71633 7.86189 17.2979 -8.94949
278 1 6.28558 6.28566 15.7297 -8.94827
279 1 7.8612 7.86109 17.2997 -8.9526
280 1 9.43359 6.28604 15.7283 -8.94736
281 1 11.007 7.86019 17.3004 -8.95044
282 1 12.5814 6.28554 15.7291 -8.94847
283 1 14.1546 7.85953 17.3018 -8.95201
284 1 15.7303 6.2837 15.73 -8.94289
285 1 17.2992 7.86062 17.2989 -8.94898
286 1 18.8716 6.28797 15.7258 -8.94966
287 1 20.4425 7.86156 17.2976 -8.94942
288 1 0.000448123 9.43424 15.7251 -8.9496
289 1 3.14375 9.43427 15.7254 -8.94891
290 1 6.28822 9.4343 15.7261 -8.94825
291 1 9.43467 9.43313 15.7281 -8.95405
292 1 12.5839 9.43187 15.7349 -8.96065
293 1 15.7302 9.4321 15.73 -8.94677
294 1 18.8719 9.43375 15.7261 -8.94931
49 1 18.8702 9.43426 22.0134 -8.94947
296 1 1.57205 1.57217 20.4415 -8.94931
334 1 17.2979 7.86139 20.4417 -8.9494
298 1 4.71689 1.57216 20.4415 -8.94954
299 1 6.28941 2.70262e-05 18.8695 -8.94952
300 1 7.8619 1.5721 20.4415 -8.9495
333 1 15.7258 6.28806 18.8708 -8.95007
302 1 11.007 1.57205 20.4415 -8.94951
332 1 14.1526 7.86127 20.4418 -8.9508
304 1 14.1521 1.57201 20.4415 -8.94949
305 1 15.7246 -4.59568e-05 18.8694 -8.94955
306 1 17.2971 1.572 20.4415 -8.94956
331 1 12.5797 6.28835 18.8706 -8.94966
308 1 20.4417 1.57217 20.4415 -8.94916
309 1 22.0139 3.14447 18.8694 -8.9495
310 1 1.57223 4.71703 20.4415 -8.94967
311 1 3.1441 3.14421 18.8698 -8.94935
312 1 4.71657 4.71668 20.4416 -8.95001
313 1 6.28918 3.14415 18.8697 -8.94948
314 1 7.86165 4.71648 20.4416 -8.94949
315 1 9.43434 3.14402 18.8697 -8.94946
316 1 11.0069 4.7163 20.4416 -8.94952
317 1 12.5796 3.14393 18.8697 -8.94943
318 1 14.1523 4.7162 20.4416 -8.94955
319 1 15.7249 3.14384 18.8697 -8.94957
320 1 17.2977 4.71616 20.4416 -8.9495
321 1 18.8699 3.14402 18.8696 -8.94901
322 1 20.442 4.71681 20.4416 -8.94949
323 1 22.0141 6.28937 18.8695 -8.94948
324 1 1.57229 7.86196 20.4415 -8.9495
325 1 3.14436 6.28947 18.8696 -8.94969
326 1 4.71678 7.86204 20.4416 -8.94954
327 1 6.28884 6.28898 18.8704 -8.95066
328 1 7.86175 7.8619 20.4416 -8.95048
329 1 9.43408 6.28855 18.8704 -8.94956
330 1 11.0068 7.86142 20.4417 -8.95032
512 1 1.5726 11.007 11.0071 -8.94781
513 1 4.72014 11.0078 11.0058 -8.94199
515 1 11.0864 10.9669 11.2868 -8.34228
517 1 17.3022 11.0058 11.0076 -8.94971
518 1 20.4433 11.0067 11.007 -8.94952
540 1 1.5718 11.0068 14.1528 -8.94968
541 1 4.71477 11.0066 14.154 -8.94648
542 1 7.86102 11.006 14.1538 -8.94324
544 1 14.1667 11.0058 14.1661 -8.93943
545 1 17.3033 11.0067 14.1555 -8.94926
546 1 20.4434 11.0068 14.1529 -8.9501
47 1 12.5798 9.43423 22.0123 -8.95154
591 1 7.86156 11.0068 17.2979 -8.94892
592 1 11.0074 11.0066 17.2984 -8.94646
593 1 14.1553 11.0068 17.3019 -8.95002
46 1 9.43447 9.4345 22.0133 -8.94974
638 1 1.57228 11.0069 20.4415 -8.94954
639 1 4.71672 11.0069 20.4416 -8.94961
640 1 7.86173 11.0069 20.4416 -8.94943
3 1 3.14436 0.000105473 22.0135 -8.94955
39 1 15.7256 6.28825 22.0126 -8.95004
9 1 12.5796 4.09672e-05 22.0135 -8.94951
33 1 6.28894 6.28908 22.0128 -8.95064
13 1 18.8694 1.77378e-05 22.0136 -8.94936
15 1 22.0139 3.1445 22.0136 -8.94949
17 1 3.14414 3.14426 22.0133 -8.94942
31 1 3.1444 6.28951 22.0135 -8.94972
23 1 12.5796 3.14401 22.0134 -8.94945
29 1 22.0141 6.28941 22.0136 -8.9495
27 1 18.8698 3.1441 22.0135 -8.94911
21 1 9.43436 3.14409 22.0134 -8.94948
43 1 22.0141 9.4344 22.0136 -8.94952
539 1 20.4413 20.442 11.0071 -8.94953
688 3 10.2644 11.0542 9.45499 2.21718
346 1 7.86184 11.0068 1.57169 -8.94869
347 1 11.0074 11.0069 1.57145 -8.94638
348 1 14.1547 11.007 1.56839 -8.94972
687 2 10.9217 12.4521 10.1974 0.351085
529 1 11.0058 17.3054 11.0065 -8.96009
154 1 18.8693 22.014 9.43451 -8.94956
352 1 1.57208 14.1519 1.57171 -8.9494
353 1 3.14438 12.5793 -0.00041802 -8.94951
354 1 4.71639 14.1517 1.5711 -8.94951
149 1 3.14344 22.0142 9.43452 -8.94943
356 1 7.86148 14.1524 1.56915 -8.95318
393 1 1.57181 11.0068 4.71624 -8.94949
358 1 11.007 14.1531 1.56917 -8.95068
399 1 20.443 11.0069 4.71627 -8.94992
360 1 14.154 14.1536 1.56854 -8.95159
361 1 15.7258 12.5799 -0.00123808 -8.9494
362 1 17.2986 14.1528 1.57078 -8.9492
363 1 18.8702 12.5796 -0.000499679 -8.94946
364 1 20.4422 14.1522 1.57169 -8.94942
109 1 15.7248 22.0142 6.28953 -8.94952
366 1 1.57174 17.2971 1.57151 -8.94984
103 1 6.28867 22.0146 6.28871 -8.95068
368 1 4.71542 17.2983 1.56981 -8.94948
369 1 6.2889 15.7248 -0.00145392 -8.95093
370 1 7.86142 17.2982 1.57014 -8.94918
99 1 22.0133 22.014 6.28937 -8.94951
372 1 11.0072 17.2983 1.57036 -8.94933
62 1 18.8693 22.014 3.14456 -8.94968
374 1 14.1529 17.2984 1.57059 -8.94963
375 1 15.7255 15.7255 -0.00123374 -8.9501
376 1 17.2984 17.2984 1.57089 -8.94835
58 1 12.5799 22.0141 3.14395 -8.94951
378 1 20.442 17.2973 1.57176 -8.94957
1 1 22.0137 22.014 -0.000258904 -8.94916
380 1 1.57158 20.4421 1.57157 -8.94898
381 1 3.144 18.8698 -0.00078684 -8.94944
382 1 4.71649 20.4423 1.57132 -8.94957
56 1 9.43456 22.0141 3.14378 -8.94953
384 1 7.86185 20.4422 1.57138 -8.94942
385 1 9.43445 18.8699 -0.000777189 -8.94948
386 1 11.0071 20.4422 1.57147 -8.94947
387 1 12.5797 18.8699 -0.000701834 -8.94943
388 1 14.1523 20.4422 1.57163 -8.94942
52 1 3.14374 22.0142 3.14373 -8.94947
390 1 17.2974 20.4422 1.57173 -8.94947
391 1 18.8698 18.8698 -0.000395902 -8.94916
392 1 20.4415 20.4419 1.57202 -8.94952
511 1 18.8694 18.8699 9.43449 -8.94955
510 1 15.7252 18.8703 9.43447 -8.94956
395 1 7.86308 11.0066 4.71681 -8.94712
396 1 11.0121 11.0068 4.72009 -9.00563
397 1 14.1625 11.0072 4.70676 -8.94466
509 1 12.5801 18.8709 9.4337 -8.94768
508 1 9.43333 18.8724 9.43373 -8.94562
400 1 0.000239727 12.5795 3.14399 -8.94955
401 1 1.57131 14.1519 4.71631 -8.94981
402 1 3.14381 12.5793 3.1436 -8.94902
403 1 4.71368 14.1525 4.7144 -8.95097
404 1 6.28854 12.5788 3.14291 -8.94857
405 1 7.85434 14.1604 4.70288 -8.95534
406 1 9.43508 12.5796 3.14216 -8.95192
407 1 11.0077 14.1576 4.70708 -8.95186
408 1 12.5828 12.5808 3.1371 -8.95788
409 1 14.1647 14.1636 4.70459 -8.93219
410 1 15.7287 12.5809 3.14078 -8.94735
411 1 17.3014 14.154 4.71474 -8.95118
412 1 18.8712 12.5799 3.14338 -8.94927
413 1 20.4426 14.1523 4.71644 -8.95019
414 1 22.0138 15.7246 3.14403 -8.94984
415 1 1.57013 17.2981 4.71566 -8.94987
416 1 3.14304 15.7249 3.14305 -8.95029
417 1 4.71094 17.3026 4.71112 -8.94271
418 1 6.28563 15.7281 3.13834 -8.95014
419 1 7.85979 17.3023 4.7125 -8.9486
420 1 9.43395 15.7277 3.1399 -8.94809
421 1 11.0079 17.3013 4.71322 -8.94663
422 1 12.5811 15.7274 3.14045 -8.94925
423 1 14.1553 17.3019 4.71372 -8.94979
424 1 15.7289 15.7287 3.1403 -8.94511
425 1 17.2984 17.2983 4.7163 -8.95006
426 1 18.8709 15.7255 3.14352 -8.9498
427 1 20.4416 17.2975 4.7166 -8.94982
428 1 22.0132 18.8698 3.14402 -8.94952
429 1 1.5713 20.4422 4.71647 -8.94943
430 1 3.14258 18.8711 3.14256 -8.9477
431 1 4.71549 20.4435 4.71549 -8.94994
432 1 6.2883 18.8714 3.14247 -8.9495
433 1 7.86163 20.4434 4.71574 -8.94977
434 1 9.43442 18.8711 3.14282 -8.94923
435 1 11.0074 20.4431 4.71595 -8.9496
436 1 12.5802 18.871 3.14313 -8.9489
437 1 14.1526 20.4428 4.71652 -8.9507
438 1 15.7258 18.8712 3.14329 -8.94943
439 1 17.2972 20.4421 4.71696 -8.94966
440 1 18.8697 18.8699 3.14424 -8.94977
441 1 20.4413 20.4419 4.71692 -8.94951
507 1 6.28595 18.8747 9.43449 -8.94951
506 1 3.14228 18.8713 9.43453 -8.94934
444 1 7.87783 10.9998 7.86153 -8.95642
505 1 22.013 18.87 9.43451 -8.94948
446 1 14.1625 11.0017 7.85024 -9.00256
504 1 18.8704 15.7255 9.4344 -8.94927
503 1 15.727 15.7263 9.43423 -8.9464
449 1 22.0141 12.5793 6.28913 -8.94992
450 1 1.5698 14.1524 7.8617 -8.95221
451 1 3.14288 12.5788 6.28866 -8.94998
452 1 4.70559 14.1567 7.85918 -8.96109
453 1 6.28429 12.5778 6.2866 -8.95184
454 1 7.81298 14.2024 7.81523 -8.85413
455 1 9.41658 12.6047 6.27832 -8.95508
456 1 11.0165 14.1624 7.83393 -8.95888
457 1 12.6177 12.6131 6.25653 -8.90227
458 1 14.1572 14.1567 7.86197 -8.97438
459 1 15.7345 12.5819 6.28608 -8.95867
460 1 17.3004 14.1535 7.8615 -8.94823
461 1 18.8722 12.5797 6.28888 -8.95124
462 1 20.4423 14.1524 7.86179 -8.95004
463 1 22.0129 15.725 6.28898 -8.95042
464 1 1.56996 17.2983 7.86147 -8.94926
465 1 3.13914 15.7271 6.28691 -8.95179
466 1 4.71157 17.3021 7.8601 -8.94714
467 1 6.27203 15.7418 6.27303 -8.92285
468 1 7.8568 17.3093 7.85874 -8.9608
469 1 9.43294 15.7372 6.28017 -8.9477
470 1 11.0057 17.2999 7.86105 -8.95167
471 1 12.5856 15.736 6.28156 -8.95386
472 1 14.1531 17.2991 7.8618 -8.94908
473 1 15.7277 15.7271 6.28827 -8.95041
474 1 17.2979 17.2981 7.86183 -8.94933
475 1 18.8706 15.7254 6.28906 -8.94959
476 1 20.4414 17.2976 7.86182 -8.94955
477 1 -0.000870077 18.87 6.28917 -8.94942
478 1 1.5712 20.4423 7.8618 -8.94943
479 1 3.14233 18.8713 6.28831 -8.94909
480 1 4.71524 20.4436 7.86141 -8.94936
481 1 6.28644 18.8749 6.28673 -8.95168
482 1 7.86117 20.4447 7.86144 -8.95184
483 1 9.43446 18.8736 6.28748 -8.95096
484 1 11.007 20.443 7.86189 -8.94921
485 1 12.58 18.8721 6.28873 -8.95267
486 1 14.1525 20.4426 7.86187 -8.94937
487 1 15.7252 18.8706 6.28934 -8.94946
488 1 17.2972 20.4421 7.862 -8.94961
489 1 18.8695 18.8699 6.28939 -8.94951
490 1 20.4413 20.442 7.86196 -8.94953
491 1 22.0142 12.5793 9.43444 -8.94948
492 1 3.14363 12.5794 9.43442 -8.94856
493 1 6.2892 12.5893 9.434 -8.98823
494 1 9.28563 12.8087 9.41145 -8.35406
495 1 12.6146 12.5728 9.41312 -9.10933
496 1 15.7341 12.5785 9.43375 -8.95841
497 1 18.8723 12.5796 9.43433 -8.95086
498 1 -0.00120304 15.7252 9.43447 -8.95003
499 1 3.1392 15.7276 9.43447 -8.94914
500 1 6.27636 15.7376 9.4344 -8.94215
501 1 9.42477 15.7251 9.43137 -9.05432
502 1 12.5784 15.7248 9.43127 -8.99553
526 1 1.57003 17.2983 11.0075 -8.94922
11 1 15.7246 22.0139 -0.000328479 -8.94952
5 1 6.28939 22.014 -0.000450261 -8.94949
527 1 4.71182 17.3019 11.0088 -8.94681
532 1 20.4414 17.2976 11.0071 -8.94951
534 1 4.7153 20.4435 11.0076 -8.94929
538 1 17.2972 20.4421 11.007 -8.94952
365 1 22.014 15.7245 -0.000313069 -8.94949
686 1 20.4417 20.4418 20.4415 -8.94921
685 1 18.8698 18.8698 18.8696 -8.94907
514 1 7.88165 11.0044 11.0041 -8.96399
684 1 17.2971 20.4419 20.4415 -8.94961
516 1 14.1647 11.0046 11.0189 -9.02274
683 1 15.7248 18.8699 18.8696 -8.94973
682 1 14.1521 20.4419 20.4414 -8.94949
519 1 1.56993 14.1524 11.0072 -8.95206
520 1 4.70612 14.1564 11.0093 -8.96015
521 1 7.81619 14.1969 11.0486 -8.88672
522 1 11.0189 14.1873 11.0359 -9.14557
523 1 14.1609 14.1552 11.0073 -8.9977
524 1 17.3012 14.1535 11.0071 -8.94903
525 1 20.4425 14.1524 11.0071 -8.95012
594 1 17.2993 11.0069 17.2989 -8.94934
590 1 4.71633 11.0068 17.2978 -8.94947
528 1 7.85777 17.3078 11.0089 -8.96059
307 1 18.8695 22.0139 18.8694 -8.94936
530 1 14.1524 17.2982 11.0061 -8.95032
531 1 17.2979 17.2981 11.007 -8.949
295 1 22.0137 22.014 18.8693 -8.94921
533 1 1.57122 20.4423 11.0073 -8.94943
377 1 18.87 15.7249 22.0134 -8.94946
535 1 7.86139 20.4443 11.0073 -8.95163
536 1 11.0071 20.4437 11.0069 -8.9514
537 1 14.1523 20.4423 11.0068 -8.94934
373 1 12.5797 15.7253 22.0125 -8.94967
303 1 12.5796 22.0139 18.8694 -8.94951
681 1 12.5796 18.8698 18.8695 -8.94945
680 1 11.007 20.4419 20.4414 -8.94952
679 1 9.43448 18.8698 18.8695 -8.94951
543 1 11.0127 11.0055 14.1514 -9.05979
678 1 7.86195 20.4419 20.4414 -8.94951
677 1 6.28928 18.8697 18.8697 -8.94962
676 1 4.71688 20.4419 20.4415 -8.94958
547 1 22.0143 12.5793 12.5798 -8.9501
548 1 1.57137 14.1519 14.1527 -8.94996
549 1 3.14283 12.5788 12.5802 -8.95033
550 1 4.71344 14.1526 14.1545 -8.95145
551 1 6.28361 12.5776 12.5819 -8.9535
552 1 7.85279 14.1609 14.1662 -8.95193
553 1 9.41067 12.6046 12.5967 -8.92984
554 1 11.0079 14.1535 14.1552 -8.99039
555 1 12.6298 12.6134 12.6242 -8.89431
556 1 14.1682 14.1655 14.1671 -8.92695
557 1 15.7384 12.5819 12.5844 -8.95914
558 1 17.3027 14.1545 14.1549 -8.95125
559 1 18.8731 12.5797 12.5802 -8.95197
560 1 20.443 14.1524 14.1527 -8.95034
561 1 22.013 15.725 12.58 -8.95037
562 1 1.57031 17.2981 14.1533 -8.94981
563 1 3.13945 15.7269 12.5819 -8.95157
564 1 4.71147 17.3022 14.1573 -8.9434
565 1 6.27331 15.7401 12.5941 -8.92601
566 1 7.86028 17.3014 14.1553 -8.94975
567 1 9.43236 15.733 12.584 -8.98106
568 1 11.0079 17.2991 14.1532 -8.94845
569 1 12.5864 15.7317 12.5834 -8.97891
570 1 14.1549 17.3014 14.1545 -8.9512
571 1 15.7286 15.7273 12.5806 -8.94997
572 1 17.2985 17.2985 14.1528 -8.94986
573 1 18.8709 15.7255 12.5799 -8.94964
574 1 20.4417 17.2976 14.1524 -8.94978
575 1 -0.000823685 18.8699 12.5798 -8.9494
576 1 1.57136 20.4422 14.1526 -8.94943
577 1 3.14246 18.8711 12.5807 -8.94905
578 1 4.71562 20.4433 14.1534 -8.95004
579 1 6.28679 18.8742 12.5818 -8.95198
580 1 7.86155 20.4432 14.1532 -8.94954
581 1 9.43399 18.8733 12.5814 -8.94897
582 1 11.0074 20.4426 14.1528 -8.94923
583 1 12.5804 18.8719 12.5802 -8.95046
584 1 14.1527 20.4427 14.1525 -8.95049
585 1 15.7251 18.8703 12.5794 -8.95006
586 1 17.2972 20.4421 14.152 -8.94981
587 1 18.8695 18.8699 12.5796 -8.9495
588 1 20.4414 20.4419 14.1521 -8.94952
589 1 1.57218 11.0069 17.2974 -8.94952
675 1 3.14402 18.8698 18.8698 -8.94939
674 1 1.57199 20.4419 20.4415 -8.9493
673 1 22.0138 18.8695 18.8695 -8.94954
672 1 20.4419 17.2971 20.4415 -8.94951
671 1 18.8701 15.725 18.8698 -8.94943
595 1 20.4425 11.0069 17.2976 -8.94947
596 1 0.000385026 12.5795 15.7252 -8.94959
597 1 1.5721 14.1519 17.2974 -8.94939
598 1 3.14367 12.5793 15.7255 -8.949
599 1 4.71629 14.1518 17.298 -8.94947
600 1 6.2881 12.5789 15.7264 -8.94807
601 1 7.86133 14.1525 17.2999 -8.95333
602 1 9.43493 12.5796 15.7277 -8.95411
603 1 11.007 14.1531 17.2989 -8.94841
604 1 12.5835 12.5809 15.7342 -8.96106
605 1 14.1544 14.154 17.3013 -8.95201
606 1 15.73 12.5812 15.7296 -8.94669
607 1 17.299 14.1531 17.2988 -8.94906
608 1 18.8718 12.5799 15.726 -8.94921
609 1 20.4424 14.1523 17.2975 -8.9494
610 1 22.0139 15.7247 15.7251 -8.94988
611 1 1.57178 17.2972 17.2976 -8.94982
612 1 3.14303 15.725 15.726 -8.95032
613 1 4.71544 17.2983 17.2992 -8.94922
614 1 6.28546 15.7283 15.7305 -8.94909
615 1 7.86173 17.2979 17.2983 -8.94955
616 1 9.43469 15.7265 15.727 -8.94875
617 1 11.0072 17.2979 17.2978 -8.94915
618 1 12.5804 15.7264 15.7269 -8.94982
619 1 14.1526 17.2981 17.2981 -8.94998
620 1 15.7298 15.7295 15.7296 -8.9436
621 1 17.2986 17.2987 17.2985 -8.94795
622 1 18.8713 15.7258 15.7258 -8.94973
623 1 20.4421 17.2974 17.2974 -8.94953
624 1 22.0133 18.8698 15.725 -8.94951
625 1 1.57163 20.442 17.2975 -8.94905
626 1 3.14275 18.8709 15.7263 -8.94789
627 1 4.71654 20.4422 17.2977 -8.94963
628 1 6.2885 18.8711 15.7263 -8.94977
629 1 7.86194 20.442 17.2975 -8.94954
630 1 9.43467 18.8705 15.7256 -8.94967
631 1 11.0071 20.442 17.2974 -8.9495
632 1 12.5799 18.8704 15.7254 -8.94932
633 1 14.1522 20.442 17.2973 -8.94955
634 1 15.7257 18.8712 15.7256 -8.94978
635 1 17.2974 20.4422 17.2973 -8.94955
636 1 18.8697 18.87 15.7248 -8.94974
637 1 20.4415 20.4419 17.2971 -8.94953
670 1 17.2976 17.2977 20.4416 -8.94955
669 1 15.7257 15.7257 18.8707 -8.95008
668 1 14.1522 17.2975 20.4414 -8.94957
667 1 12.5796 15.7252 18.87 -8.94944
666 1 11.007 17.2975 20.4413 -8.94953
665 1 9.43433 15.7251 18.8699 -8.9495
664 1 7.86177 17.2974 20.4413 -8.94957
645 1 22.0141 12.5795 18.8695 -8.94951
646 1 1.57226 14.1519 20.4415 -8.94951
647 1 3.14436 12.5793 18.8696 -8.94952
648 1 4.71674 14.1518 20.4415 -8.94953
649 1 6.28909 12.5792 18.8698 -8.94942
650 1 7.86183 14.1519 20.4415 -8.95073
651 1 9.43455 12.5793 18.8699 -8.94986
652 1 11.0068 14.1523 20.4413 -8.94998
653 1 12.5798 12.5796 18.8711 -8.95176
654 1 14.1525 14.1525 20.4417 -8.95075
655 1 15.726 12.58 18.8709 -8.9494
656 1 17.2979 14.1525 20.4417 -8.94937
657 1 18.8703 12.5797 18.8699 -8.94944
658 1 20.4421 14.1521 20.4416 -8.9495
659 1 22.0141 15.7245 18.8695 -8.94948
660 1 1.57217 17.2969 20.4415 -8.94968
661 1 3.14431 15.7244 18.8697 -8.94968
662 1 4.71651 17.2973 20.4415 -8.95014
663 1 6.28887 15.7249 18.8705 -8.95089
197 1 22.0134 22.014 12.5797 -8.9495
199 1 3.14354 22.0142 12.5801 -8.94933
203 1 9.43457 22.0144 12.5801 -8.95031
205 1 12.5798 22.0142 12.5797 -8.95033
209 1 18.8693 22.014 12.5795 -8.94953
250 1 6.28908 22.0141 15.7253 -8.94959
389 1 15.7248 18.8699 22.0133 -8.94961
383 1 6.2892 18.8698 22.0131 -8.9495
256 1 15.725 22.0139 15.7249 -8.95006
297 1 3.14435 22.014 18.8695 -8.94954
301 1 9.43449 22.0139 18.8695 -8.94951
351 1 22.0141 12.5794 22.0136 -8.94952
355 1 6.28916 12.5792 22.0133 -8.94946
371 1 9.43425 15.7252 22.0124 -8.94976
367 1 3.14431 15.7243 22.0134 -8.94968
357 1 9.43452 12.5792 22.0132 -8.94955
359 1 12.5798 12.5796 22.0123 -8.95119
379 1 22.0138 18.8694 22.0136 -8.94956
