ITEM: TIMESTEP
64
ITEM: NUMBER OF ATOMS
688
ITEM: BOX BOUNDS pp pp pp
0.0000000000000000e+00 2.2013900999999997e+01
0.0000000000000000e+00 2.2013900999999997e+01
0.0000000000000000e+00 2.2013900999999997e+01
ITEM: ATOMS id type x y z c_pot
189 1 20.4415 4.71684 11.007 -8.94956
2 1 1.57215 1.57228 1.57216 -8.9493
448 1 20.4426 11.0068 7.86195 -8.94979
4 1 4.71708 1.57222 1.5721 -8.94967
447 1 17.3014 11.0058 7.86134 -8.95018
6 1 7.86204 1.57219 1.57208 -8.94952
7 1 9.43452 2.21463e-05 -0.000146022 -8.9496
8 1 11.007 1.57217 1.57207 -8.94956
445 1 11.0799 11.0006 7.62422 -8.15866
10 1 14.1519 1.57217 1.57213 -8.94952
443 1 4.71842 11.007 7.86234 -8.94243
12 1 17.2969 1.57212 1.57214 -8.94951
442 1 1.57193 11.0069 7.86176 -8.94818
14 1 20.4415 1.57233 1.57233 -8.94962
188 1 17.2974 4.71635 11.0069 -8.949
16 1 1.57221 4.71711 1.57212 -8.94975
398 1 17.3003 11.007 4.7152 -8.94929
18 1 4.71641 4.71647 1.57117 -8.94937
394 1 4.7156 11.0067 4.71547 -8.94641
20 1 7.86183 4.71652 1.57142 -8.94918
50 1 -0.000114835 2.40382e-05 3.14475 -8.94963
22 1 11.0069 4.71641 1.57144 -8.94943
183 1 1.57132 4.71654 11.0072 -8.94935
24 1 14.1522 4.71634 1.57145 -8.94965
349 1 17.2977 11.007 1.57143 -8.9495
26 1 17.2977 4.71623 1.57149 -8.94828
345 1 4.71669 11.0069 1.57166 -8.94959
28 1 20.4418 4.717 1.57216 -8.94952
165 1 9.43029 6.29128 9.43415 -8.99592
30 1 1.57225 7.86207 1.57214 -8.94947
164 1 6.28062 6.28091 9.4344 -8.94232
32 1 4.71688 7.86224 1.57182 -8.94968
163 1 3.14135 6.28787 9.43449 -8.94914
34 1 7.86166 7.86178 1.57035 -8.95219
35 1 9.43426 6.2891 -0.000760205 -8.94955
36 1 11.0067 7.86108 1.56985 -8.95033
37 1 12.5794 6.28908 -0.000797399 -8.9496
38 1 14.1532 7.86068 1.56913 -8.95152
162 1 -0.000675102 6.28919 9.43451 -8.94988
40 1 17.2977 7.86158 1.5714 -8.94941
161 1 18.8693 3.14446 9.43451 -8.9496
42 1 20.4418 7.86198 1.57211 -8.94953
350 1 20.4418 11.007 1.57209 -8.94956
44 1 3.14458 9.43449 -0.000225436 -8.94956
160 1 15.7249 3.14399 9.43448 -8.94964
159 1 12.5797 3.14436 9.43441 -8.94819
158 1 9.43446 3.14358 9.43442 -8.94703
48 1 15.725 9.43427 -0.000881764 -8.94948
157 1 6.28783 3.14171 9.4345 -8.94947
175 1 18.8702 9.43393 9.43447 -8.94755
51 1 1.57209 1.57223 4.71707 -8.94958
174 1 15.7235 9.43449 9.43452 -8.93966
53 1 4.71656 1.57171 4.71654 -8.94991
54 1 6.28954 9.28593e-05 3.14441 -8.94961
55 1 7.86203 1.57174 4.71665 -8.94968
173 1 12.5585 9.44618 9.43326 -8.96335
57 1 11.0072 1.57171 4.71663 -8.94963
172 1 9.36629 9.23236 9.43268 -8.2339
59 1 14.1522 1.57167 4.7169 -8.95049
60 1 15.7245 2.80645e-05 3.14455 -8.94993
61 1 17.2969 1.57225 4.71722 -8.94968
171 1 6.28177 9.42819 9.43475 -8.96946
63 1 20.4415 1.57233 4.71721 -8.94958
64 1 22.0137 3.14461 3.14462 -8.94959
65 1 1.57136 4.71662 4.7166 -8.94968
66 1 3.1439 3.14403 3.1439 -8.94846
67 1 4.71393 4.71405 4.71397 -8.94529
68 1 6.28926 3.14392 3.14394 -8.9497
69 1 7.86118 4.71432 4.71513 -8.94943
70 1 9.43447 3.14388 3.14398 -8.94938
71 1 11.0074 4.71435 4.71518 -8.94798
72 1 12.5796 3.14381 3.14406 -8.94919
73 1 14.1542 4.71313 4.71496 -8.95006
74 1 15.7251 3.14353 3.14401 -8.94946
75 1 17.2975 4.71639 4.717 -8.95031
76 1 18.8693 3.14453 3.14469 -8.9498
77 1 20.4415 4.71697 4.71712 -8.9498
78 1 22.014 6.2895 3.14453 -8.94977
79 1 1.57184 7.86208 4.71681 -8.94985
80 1 3.14399 6.2894 3.14403 -8.95012
81 1 4.71501 7.86176 4.71561 -8.95098
82 1 6.28719 6.28735 3.14092 -8.94949
83 1 7.85594 7.85558 4.70737 -8.95118
84 1 9.43395 6.28758 3.14207 -8.94777
85 1 11.0075 7.85682 4.70885 -8.94972
86 1 12.5803 6.28733 3.14181 -8.949
87 1 14.1643 7.8501 4.70498 -8.92896
88 1 15.7279 6.28597 3.14122 -8.94443
89 1 17.3007 7.85993 4.71513 -8.95025
90 1 18.8703 6.28886 3.14404 -8.94951
91 1 20.4424 7.8617 4.71679 -8.95008
92 1 3.96629e-05 9.43445 3.14444 -8.94955
93 1 3.14417 9.43449 3.1441 -8.94901
94 1 6.28916 9.43506 3.14378 -8.94926
95 1 9.4349 9.43426 3.14255 -8.95259
96 1 12.5819 9.43305 3.13688 -8.95934
97 1 15.7273 9.43341 3.14158 -8.94827
98 1 18.8703 9.43429 3.14401 -8.94941
170 1 3.14239 9.43482 9.43453 -8.95106
100 1 1.57205 1.57221 7.86204 -8.94957
101 1 3.14434 9.18086e-05 6.28946 -8.94945
102 1 4.71643 1.57164 7.86182 -8.9494
169 1 22.0136 9.43448 9.4345 -8.94954
104 1 7.86188 1.57118 7.86189 -8.95129
105 1 9.43473 0.000255486 6.28922 -8.9502
106 1 11.0071 1.57192 7.86208 -8.94947
107 1 12.5796 0.000143062 6.28949 -8.9503
108 1 14.1522 1.57215 7.86209 -8.94947
168 1 18.8699 6.28885 9.43447 -8.94949
110 1 17.297 1.57218 7.86206 -8.94958
111 1 18.8692 3.10922e-05 6.28964 -8.9496
112 1 20.4415 1.5723 7.86208 -8.94961
113 1 -0.000264135 3.14456 6.28956 -8.94951
114 1 1.57131 4.71654 7.86186 -8.94934
115 1 3.14386 3.14396 6.28919 -8.94932
116 1 4.71435 4.71439 7.86102 -8.94786
117 1 6.28828 3.14191 6.28833 -8.95125
118 1 7.85955 4.70984 7.86086 -8.95822
119 1 9.43477 3.14243 6.28877 -8.95051
120 1 11.0067 4.71526 7.86202 -8.95115
121 1 12.5798 3.14272 6.28935 -8.95228
122 1 14.1523 4.71613 7.86274 -8.94924
123 1 15.7246 3.1442 6.2898 -8.94967
124 1 17.2974 4.71637 7.86205 -8.94896
125 1 18.8693 3.14453 6.28963 -8.94945
126 1 20.4415 4.71685 7.86202 -8.94956
127 1 22.0133 6.28933 6.28942 -8.95007
128 1 1.57046 7.86181 7.86186 -8.95139
129 1 3.14149 6.28811 6.28811 -8.95073
130 1 4.70851 7.85896 7.86005 -8.95718
131 1 6.27869 6.27881 6.2794 -8.93286
132 1 7.82613 7.82828 7.83306 -8.87128
133 1 9.43395 6.28141 6.28536 -8.95194
134 1 11.02 7.85497 7.84069 -8.91244
135 1 12.5848 6.27941 6.28386 -8.95445
136 1 14.1551 7.86024 7.86459 -8.95397
137 1 15.7263 6.28785 6.28961 -8.95172
138 1 17.2983 7.86116 7.86269 -8.94983
139 1 18.8697 6.28915 6.2897 -8.9498
140 1 20.4417 7.86173 7.86209 -8.9498
141 1 22.014 9.43444 6.28933 -8.94999
142 1 3.14327 9.435 6.28907 -8.95018
143 1 6.28519 9.43518 6.28773 -8.95166
144 1 9.419 9.4094 6.27885 -8.89947
145 1 12.6204 9.39902 6.25218 -8.85112
146 1 15.7353 9.43057 6.2849 -8.95633
147 1 18.8718 9.43383 6.28897 -8.95148
148 1 -0.000138124 3.05968e-05 9.43453 -8.94961
167 1 15.7261 6.28753 9.43431 -8.94606
150 1 6.289 0.000270188 9.43452 -8.95021
151 1 9.43462 0.000568531 9.43438 -8.94899
152 1 12.5799 0.000469359 9.43437 -8.94936
153 1 15.7246 8.75384e-05 9.43451 -8.94968
166 1 12.5777 6.29133 9.43416 -8.94409
155 1 22.0136 3.14454 9.43452 -8.94957
156 1 3.14381 3.14394 9.43452 -8.94952
181 1 17.297 1.57218 11.007 -8.94958
344 1 1.5722 11.0069 1.57207 -8.9496
177 1 4.71643 1.57164 11.0072 -8.9494
184 1 4.71435 4.71438 11.008 -8.94791
45 1 6.28937 9.43459 -0.000347511 -8.94947
41 1 18.8694 6.28948 -0.000226468 -8.94959
19 1 6.28956 3.14458 -0.000254474 -8.94953
25 1 15.7244 3.14453 -0.000230749 -8.94967
176 1 1.57205 1.57221 11.007 -8.94957
254 1 12.5796 2.57353e-05 15.7247 -8.94947
178 1 7.86189 1.57113 11.0071 -8.9512
179 1 11.0071 1.57201 11.0069 -8.95002
180 1 14.1522 1.57209 11.0068 -8.94941
644 1 20.4416 11.0069 20.4415 -8.94961
182 1 20.4415 1.5723 11.007 -8.94961
643 1 17.2972 11.007 20.4416 -8.94951
252 1 9.43455 3.94239e-05 15.7247 -8.94951
185 1 7.85955 4.70984 11.0079 -8.95804
186 1 11.0067 4.71465 11.0069 -8.95202
187 1 14.1524 4.71602 11.006 -8.94913
642 1 14.1523 11.007 20.4416 -8.95034
641 1 11.0067 11.0069 20.4415 -8.94862
190 1 1.57042 7.86179 11.0072 -8.95142
191 1 4.70833 7.85885 11.0089 -8.95689
192 1 7.8261 7.82859 11.0349 -8.86979
193 1 11.0198 7.85204 11.0279 -8.92513
194 1 14.1557 7.86004 11.0034 -8.95194
195 1 17.2986 7.86103 11.0062 -8.94963
196 1 20.4418 7.8617 11.0069 -8.94984
343 1 18.8695 9.43444 18.8694 -8.94956
198 1 1.57209 1.57223 14.152 -8.94957
342 1 15.7251 9.43421 18.8702 -8.94944
200 1 4.71656 1.57168 14.1525 -8.94993
201 1 6.28924 0.000223552 12.5798 -8.95053
202 1 7.86192 1.57172 14.1525 -8.94973
341 1 12.5794 9.43442 18.8707 -8.95146
204 1 11.0072 1.57165 14.1525 -8.94955
340 1 9.43438 9.43458 18.8698 -8.94963
206 1 14.1523 1.57162 14.1522 -8.95057
207 1 15.7245 7.72481e-05 12.5794 -8.94957
208 1 17.2969 1.57222 14.1518 -8.94971
339 1 6.2893 9.43454 18.8696 -8.94942
210 1 20.4415 1.57233 14.1518 -8.94957
211 1 -0.000261461 3.14456 12.5795 -8.94952
212 1 1.57135 4.71661 14.1525 -8.94965
213 1 3.14386 3.14396 12.5799 -8.94932
214 1 4.71392 4.71406 14.155 -8.94538
215 1 6.28829 3.1419 12.5807 -8.95119
216 1 7.86095 4.71398 14.1541 -8.94959
217 1 9.43468 3.14223 12.5803 -8.95071
218 1 11.0073 4.71406 14.154 -8.9479
219 1 12.5799 3.14245 12.5797 -8.95254
220 1 14.1545 4.7126 14.1543 -8.95034
221 1 15.7247 3.14413 12.5792 -8.94964
222 1 17.2976 4.71632 14.152 -8.95035
223 1 18.8693 3.14452 12.5794 -8.94946
224 1 20.4415 4.71695 14.1519 -8.94978
225 1 22.0133 6.28931 12.5796 -8.95007
226 1 1.57182 7.86207 14.1522 -8.94991
227 1 3.14144 6.28808 12.5809 -8.95062
228 1 4.71481 7.86177 14.1534 -8.95155
229 1 6.27868 6.27894 12.5894 -8.93301
230 1 7.85444 7.85417 14.1628 -8.94879
231 1 9.43341 6.2804 12.5838 -8.95251
232 1 11.0075 7.85606 14.1604 -8.94992
233 1 12.5854 6.27813 12.5854 -8.95533
234 1 14.1664 7.84798 14.1659 -8.92509
235 1 15.7265 6.28773 12.5792 -8.95164
236 1 17.3012 7.85979 14.154 -8.95078
237 1 18.8698 6.28909 12.5793 -8.94974
238 1 20.4424 7.86167 14.1523 -8.95015
239 1 22.014 9.43444 12.5797 -8.95002
240 1 3.14319 9.43505 12.5799 -8.95033
241 1 6.2847 9.43576 12.5806 -8.95478
242 1 9.41221 9.40522 12.5931 -8.93131
243 1 12.6287 9.39359 12.6214 -8.86471
244 1 15.7366 9.43077 12.5838 -8.95891
245 1 18.8721 9.43386 12.58 -8.95176
246 1 -0.000110906 2.12727e-05 15.7243 -8.94963
247 1 1.57215 1.57227 17.2969 -8.94932
248 1 3.14442 7.33598e-05 15.7246 -8.94957
249 1 4.71704 1.57221 17.297 -8.94964
338 1 3.14455 9.43448 18.8693 -8.94956
251 1 7.86204 1.57217 17.297 -8.94951
337 1 22.0139 9.43449 18.8692 -8.9496
253 1 11.007 1.57214 17.297 -8.94955
336 1 20.4416 7.86205 20.4415 -8.94961
255 1 14.1519 1.57214 17.297 -8.94951
335 1 18.8694 6.28945 18.8694 -8.94954
257 1 17.297 1.5721 17.297 -8.94948
258 1 18.8692 2.7328e-05 15.7243 -8.94971
259 1 20.4415 1.57232 17.2967 -8.94964
260 1 22.0137 3.1446 15.7244 -8.94958
261 1 1.57219 4.71709 17.297 -8.94978
262 1 3.1439 3.14401 15.7251 -8.9485
263 1 4.71631 4.71637 17.298 -8.9492
264 1 6.28916 3.14383 15.7252 -8.94971
265 1 7.86181 4.71648 17.2977 -8.94916
266 1 9.43445 3.1438 15.7251 -8.94933
267 1 11.0069 4.71634 17.2977 -8.94939
268 1 12.5796 3.1437 15.7251 -8.94914
269 1 14.1522 4.71625 17.2977 -8.94962
270 1 15.7252 3.14337 15.7252 -8.9495
271 1 17.2978 4.71607 17.2977 -8.94802
272 1 18.8693 3.14451 15.7244 -8.94983
273 1 20.4418 4.71697 17.2969 -8.94955
274 1 22.014 6.28948 15.7245 -8.94981
275 1 1.57222 7.86203 17.297 -8.94945
276 1 3.14393 6.28937 15.725 -8.95024
277 1 4.71677 7.86216 17.2974 -8.9495
278 1 6.2868 6.28696 15.7285 -8.9489
279 1 7.86161 7.86173 17.2989 -8.95251
280 1 9.43388 6.28741 15.7271 -8.94759
281 1 11.0066 7.86099 17.2993 -8.95031
282 1 12.5803 6.28707 15.7275 -8.94879
283 1 14.1533 7.86055 17.3003 -8.95194
284 1 15.7285 6.28532 15.7284 -8.94351
285 1 17.2979 7.86144 17.2979 -8.94914
286 1 18.8705 6.28878 15.7251 -8.94961
287 1 20.4418 7.86194 17.297 -8.9495
288 1 7.04502e-05 9.43442 15.7247 -8.94959
289 1 3.14401 9.43443 15.725 -8.94899
290 1 6.28869 9.43477 15.7256 -8.94846
291 1 9.43477 9.43421 15.7267 -8.95354
292 1 12.5821 9.43292 15.7328 -8.96048
293 1 15.7281 9.43292 15.7282 -8.94709
294 1 18.8705 9.43418 15.7252 -8.94935
49 1 18.8694 9.43447 22.0137 -8.94957
296 1 1.57232 1.57232 20.4415 -8.94949
334 1 17.2971 7.86187 20.4416 -8.94947
298 1 4.7172 1.57233 20.4415 -8.94962
299 1 6.28964 1.28441e-05 18.8692 -8.9496
300 1 7.86207 1.5723 20.4415 -8.94959
333 1 15.7249 6.2889 18.8701 -8.95006
302 1 11.007 1.57229 20.4415 -8.9496
332 1 14.1521 7.86172 20.4416 -8.95066
304 1 14.1518 1.57231 20.4415 -8.94959
305 1 15.7243 4.60844e-06 18.8692 -8.94962
306 1 17.2967 1.57231 20.4415 -8.94967
331 1 12.5794 6.28905 18.87 -8.94959
308 1 20.4416 1.57235 20.4415 -8.94941
309 1 22.0139 3.14475 18.8692 -8.94961
310 1 1.57236 4.71723 20.4415 -8.94969
311 1 3.14455 3.14456 18.8694 -8.94945
312 1 4.71698 4.71701 20.4415 -8.94993
313 1 6.28956 3.14457 18.8693 -8.94954
314 1 7.86194 4.7169 20.4415 -8.94951
315 1 9.43448 3.14449 18.8694 -8.94956
316 1 11.0069 4.71684 20.4415 -8.94956
317 1 12.5794 3.1445 18.8693 -8.94953
318 1 14.1519 4.71687 20.4415 -8.94958
319 1 15.7244 3.1445 18.8693 -8.94968
320 1 17.297 4.71684 20.4415 -8.94957
321 1 18.8694 3.14454 18.8693 -8.94919
322 1 20.4416 4.71717 20.4415 -8.94961
323 1 22.0139 6.28962 18.8692 -8.94956
324 1 1.57232 7.86207 20.4415 -8.94958
325 1 3.14465 6.28966 18.8693 -8.94967
326 1 4.71703 7.8621 20.4415 -8.94954
327 1 6.28928 6.28935 18.8699 -8.95053
328 1 7.86192 7.86203 20.4415 -8.95035
329 1 9.43425 6.28907 18.8699 -8.94953
330 1 11.0067 7.86174 20.4415 -8.95017
512 1 1.57194 11.0069 11.0072 -8.94805
513 1 4.71862 11.0072 11.0064 -8.9413
515 1 11.0875 10.9699 11.2736 -8.34211
517 1 17.3016 11.006 11.0073 -8.94999
518 1 20.4427 11.0067 11.007 -8.94973
540 1 1.5717 11.0069 14.1525 -8.9496
541 1 4.71507 11.0067 14.1538 -8.94671
542 1 7.86161 11.0062 14.1526 -8.94395
544 1 14.164 11.0061 14.1636 -8.94026
545 1 17.3013 11.0069 14.1543 -8.94935
546 1 20.4425 11.0069 14.1524 -8.94998
47 1 12.5794 9.43442 22.0124 -8.95142
591 1 7.8616 11.0068 17.2976 -8.94886
592 1 11.0069 11.0068 17.2977 -8.94585
593 1 14.1539 11.0069 17.3006 -8.94993
46 1 9.43437 9.43459 22.0133 -8.94966
638 1 1.5723 11.0069 20.4415 -8.94961
639 1 4.71694 11.0069 20.4415 -8.94966
640 1 7.8618 11.0069 20.4416 -8.94945
3 1 3.14475 1.97789e-05 22.0138 -8.94966
39 1 15.7249 6.28896 22.013 -8.94998
9 1 12.5794 1.93567e-05 22.0138 -8.9496
33 1 6.2893 6.28938 22.0132 -8.95047
13 1 18.8692 6.13181e-06 22.0138 -8.94951
15 1 22.0139 3.14476 22.0138 -8.9496
17 1 3.14457 3.14458 22.0136 -8.94949
31 1 3.14467 6.28968 22.0137 -8.9497
23 1 12.5794 3.14451 22.0137 -8.94954
29 1 22.0139 6.28964 22.0138 -8.94958
27 1 18.8693 3.14457 22.0137 -8.94927
21 1 9.43448 3.14451 22.0136 -8.94956
43 1 22.0139 9.4345 22.0138 -8.9496
539 1 20.4415 20.4417 11.007 -8.9496
688 3 10.2516 11.0479 9.45054 2.23368
346 1 7.86181 11.0069 1.57184 -8.94861
347 1 11.007 11.0069 1.57138 -8.94653
348 1 14.1536 11.007 1.56917 -8.94962
687 2 10.9434 12.4885 10.2042 0.380861
529 1 11.0065 17.3073 11.007 -8.96211
154 1 18.8692 22.0139 9.43453 -8.94961
352 1 1.57223 14.1518 1.57211 -8.94947
353 1 3.14457 12.5794 -0.000237611 -8.94957
354 1 4.71684 14.1516 1.57171 -8.94956
149 1 3.1443 22.014 9.43453 -8.94951
356 1 7.86174 14.152 1.57004 -8.95275
393 1 1.57177 11.0069 4.71653 -8.94946
358 1 11.0067 14.1526 1.56991 -8.9505
399 1 20.4423 11.0069 4.7167 -8.94982
360 1 14.1531 14.153 1.56938 -8.95153
361 1 15.725 12.5797 -0.000843112 -8.9494
362 1 17.2976 14.1523 1.57146 -8.9493
363 1 18.8694 12.5794 -0.000241054 -8.94956
364 1 20.4418 14.1519 1.57211 -8.9495
109 1 15.7246 22.0141 6.28959 -8.94952
366 1 1.57217 17.2968 1.5721 -8.94982
103 1 6.2892 22.0142 6.28916 -8.95053
368 1 4.71629 17.2975 1.57091 -8.94952
369 1 6.28929 15.7245 -0.000869351 -8.95066
370 1 7.86184 17.2975 1.57114 -8.94922
99 1 22.0138 22.0139 6.28963 -8.94961
372 1 11.007 17.2976 1.57122 -8.9494
62 1 18.8692 22.0139 3.14478 -8.94967
374 1 14.1522 17.2975 1.57139 -8.9497
375 1 15.7249 15.7249 -0.0008157 -8.95004
376 1 17.2976 17.2976 1.57149 -8.94844
58 1 12.5796 22.014 3.14441 -8.9495
378 1 20.4417 17.2969 1.57216 -8.9496
1 1 22.0138 22.0139 -6.92774e-05 -8.94941
380 1 1.57211 20.4417 1.5721 -8.94918
381 1 3.14452 18.8694 -0.000343235 -8.94951
382 1 4.71705 20.4418 1.57204 -8.94966
56 1 9.43455 22.014 3.14436 -8.94955
384 1 7.86204 20.4418 1.57202 -8.94952
385 1 9.4345 18.8694 -0.000336401 -8.94956
386 1 11.007 20.4418 1.57201 -8.94956
387 1 12.5795 18.8694 -0.000307539 -8.94953
388 1 14.1519 20.4418 1.57209 -8.9495
52 1 3.14441 22.014 3.14441 -8.94953
390 1 17.2969 20.4418 1.57212 -8.94951
391 1 18.8693 18.8693 -0.000173956 -8.9493
392 1 20.4415 20.4416 1.57231 -8.94959
511 1 18.8694 18.8695 9.43452 -8.94961
510 1 15.725 18.87 9.43451 -8.94958
395 1 7.86358 11.0067 4.71781 -8.94722
396 1 11.0117 11.0065 4.72033 -9.00482
397 1 14.161 11.0071 4.70799 -8.94476
509 1 12.5804 18.8711 9.43377 -8.94737
508 1 9.43386 18.8722 9.4338 -8.94576
400 1 2.1781e-05 12.5794 3.14443 -8.94956
401 1 1.57172 14.1517 4.71675 -8.94966
402 1 3.14412 12.5793 3.14404 -8.94907
403 1 4.71494 14.1517 4.7154 -8.95109
404 1 6.28902 12.5785 3.14358 -8.94878
405 1 7.85604 14.1581 4.70536 -8.95575
406 1 9.43498 12.5791 3.14286 -8.9514
407 1 11.0073 14.1561 4.7088 -8.95198
408 1 12.5817 12.5805 3.13784 -8.95786
409 1 14.1632 14.1626 4.70576 -8.93248
410 1 15.7272 12.5805 3.14186 -8.94751
411 1 17.3002 14.1534 4.71544 -8.95104
412 1 18.8702 12.5796 3.14403 -8.9493
413 1 20.4422 14.1521 4.71683 -8.95005
414 1 22.0139 15.7243 3.14453 -8.94976
415 1 1.57108 17.2974 4.7164 -8.94976
416 1 3.14393 15.7244 3.14395 -8.95024
417 1 4.71279 17.3009 4.71281 -8.9433
418 1 6.28699 15.7267 3.14009 -8.95034
419 1 7.86092 17.3003 4.71412 -8.94876
420 1 9.43418 15.7264 3.14138 -8.94822
421 1 11.0077 17.3 4.71451 -8.94685
422 1 12.5802 15.7264 3.14173 -8.9494
423 1 14.1544 17.3008 4.71465 -8.94976
424 1 15.7277 15.7277 3.1413 -8.94524
425 1 17.2977 17.2977 4.71672 -8.9498
426 1 18.8702 15.7249 3.14409 -8.94975
427 1 20.4416 17.297 4.71697 -8.94972
428 1 22.0136 18.8694 3.14453 -8.94953
429 1 1.57203 20.4418 4.71704 -8.94959
430 1 3.14363 18.8702 3.14361 -8.94797
431 1 4.71639 20.4426 4.71637 -8.94989
432 1 6.28915 18.8702 3.14366 -8.94958
433 1 7.862 20.4426 4.71647 -8.94966
434 1 9.43454 18.8702 3.14374 -8.94933
435 1 11.0073 20.4425 4.71648 -8.94952
436 1 12.5797 18.8702 3.14388 -8.94901
437 1 14.1522 20.4424 4.71682 -8.95049
438 1 15.7251 18.8704 3.14392 -8.94942
439 1 17.2969 20.4418 4.71715 -8.94964
440 1 18.8693 18.8694 3.14461 -8.94969
441 1 20.4415 20.4416 4.71719 -8.9496
507 1 6.28735 18.8731 9.43453 -8.94947
506 1 3.14357 18.8702 9.43454 -8.94944
444 1 7.87822 11 7.86437 -8.95406
505 1 22.0136 18.8694 9.43453 -8.94956
446 1 14.1642 11.0012 7.85074 -9.00235
504 1 18.8701 15.7251 9.4345 -8.94925
503 1 15.7266 15.7261 9.43447 -8.94672
449 1 22.0139 12.5793 6.28932 -8.94985
450 1 1.57016 14.152 7.86181 -8.95198
451 1 3.14308 12.5786 6.28887 -8.94963
452 1 4.70652 14.1554 7.85939 -8.95992
453 1 6.28536 12.5768 6.28777 -8.95211
454 1 7.81569 14.1981 7.81878 -8.85815
455 1 9.41892 12.6019 6.2814 -8.95635
456 1 11.018 14.1617 7.83601 -8.95445
457 1 12.6173 12.6124 6.25749 -8.90508
458 1 14.1582 14.1572 7.86149 -8.97645
459 1 15.7336 12.5817 6.28673 -8.95826
460 1 17.3001 14.1535 7.86157 -8.94843
461 1 18.8715 12.5796 6.28921 -8.95114
462 1 20.4421 14.1522 7.8619 -8.95009
463 1 22.0132 15.7246 6.28929 -8.95028
464 1 1.57106 17.2975 7.86183 -8.9493
465 1 3.14056 15.7261 6.28766 -8.95141
466 1 4.71351 17.3003 7.86079 -8.94753
467 1 6.27473 15.7389 6.27523 -8.92428
468 1 7.85836 17.3072 7.85952 -8.96015
469 1 9.43395 15.7347 6.28236 -8.94828
470 1 11.0064 17.2996 7.86177 -8.95155
471 1 12.585 15.7349 6.28285 -8.9537
472 1 14.153 17.2989 7.86201 -8.94943
473 1 15.7272 15.7267 6.28856 -8.94981
474 1 17.2976 17.2976 7.86202 -8.94945
475 1 18.8702 15.725 6.28928 -8.94949
476 1 20.4415 17.2971 7.862 -8.94956
477 1 -0.000324109 18.8694 6.28954 -8.94951
478 1 1.57199 20.4418 7.86203 -8.94956
479 1 3.1436 18.8702 6.28909 -8.94927
480 1 4.71627 20.4427 7.8618 -8.94938
481 1 6.28772 18.8732 6.28773 -8.95148
482 1 7.86166 20.4438 7.86166 -8.95154
483 1 9.43487 18.8723 6.28823 -8.95073
484 1 11.0072 20.4426 7.86198 -8.9493
485 1 12.5798 18.8715 6.28908 -8.95246
486 1 14.1524 20.4424 7.86188 -8.94939
487 1 15.7249 18.8701 6.28953 -8.94952
488 1 17.297 20.4418 7.86206 -8.94962
489 1 18.8693 18.8695 6.28959 -8.94958
490 1 20.4415 20.4417 7.86208 -8.94961
491 1 22.0138 12.5793 9.43451 -8.94992
492 1 3.14249 12.5789 9.43449 -8.95012
493 1 6.28406 12.5875 9.43416 -8.98575
494 1 9.29372 12.8086 9.41398 -8.34698
495 1 12.6175 12.5723 9.41152 -9.12395
496 1 15.7347 12.579 9.43367 -8.95881
497 1 18.872 12.5797 9.43442 -8.95121
498 1 -0.000748125 15.7248 9.43452 -8.94991
499 1 3.14064 15.7263 9.43454 -8.94911
500 1 6.27846 15.7351 9.43459 -8.94253
501 1 9.4264 15.7254 9.43201 -9.05425
502 1 12.579 15.725 9.4316 -8.99552
526 1 1.57108 17.2975 11.0072 -8.94927
11 1 15.7243 22.0139 -0.000104271 -8.9496
5 1 6.28963 22.0139 -0.000130493 -8.94959
527 1 4.71362 17.3002 11.0082 -8.94716
532 1 20.4415 17.2971 11.007 -8.94954
534 1 4.7163 20.4426 11.0073 -8.94932
538 1 17.297 20.4418 11.007 -8.94956
365 1 22.0139 15.7243 -0.00010014 -8.94957
686 1 20.4416 20.4416 20.4415 -8.94944
685 1 18.8694 18.8694 18.8693 -8.94924
514 1 7.88048 11.0041 11.0023 -8.96144
684 1 17.2967 20.4416 20.4415 -8.94968
516 1 14.1649 11.0045 11.0171 -9.02301
683 1 15.7244 18.8694 18.8693 -8.94976
682 1 14.1518 20.4416 20.4415 -8.94958
519 1 1.57021 14.152 11.0072 -8.95182
520 1 4.70689 14.1553 11.0093 -8.95908
521 1 7.81826 14.1939 11.0469 -8.88986
522 1 11.0198 14.1951 11.0389 -9.1545
523 1 14.1593 14.1551 11.0069 -8.99901
524 1 17.3003 14.1534 11.0071 -8.94854
525 1 20.4422 14.1523 11.0071 -8.95002
594 1 17.2979 11.0069 17.2979 -8.94942
590 1 4.71657 11.0069 17.2975 -8.94958
528 1 7.85912 17.3062 11.0085 -8.95995
307 1 18.8692 22.0139 18.8692 -8.94949
530 1 14.1524 17.2983 11.0061 -8.95014
531 1 17.2975 17.2977 11.0069 -8.94908
295 1 22.0138 22.0139 18.8691 -8.94943
533 1 1.572 20.4418 11.007 -8.94955
377 1 18.8694 15.7244 22.0137 -8.94958
535 1 7.86183 20.4436 11.0071 -8.95138
536 1 11.0072 20.4439 11.007 -8.95199
537 1 14.1523 20.4422 11.0069 -8.94932
373 1 12.5794 15.7248 22.0131 -8.94963
303 1 12.5794 22.0139 18.8692 -8.94959
681 1 12.5794 18.8694 18.8693 -8.94953
680 1 11.007 20.4416 20.4415 -8.9496
679 1 9.43451 18.8694 18.8694 -8.94956
543 1 11.0119 11.0063 14.1483 -9.05713
678 1 7.86207 20.4416 20.4415 -8.94959
677 1 6.28957 18.8694 18.8694 -8.94962
676 1 4.71719 20.4416 20.4415 -8.94962
547 1 22.0139 12.5793 12.5797 -8.94998
548 1 1.57168 14.1517 14.1523 -8.94978
549 1 3.14293 12.5787 12.5801 -8.94999
550 1 4.71457 14.1518 14.1537 -8.95145
551 1 6.28439 12.5768 12.5812 -8.95345
552 1 7.85426 14.159 14.1647 -8.95228
553 1 9.41279 12.6031 12.5944 -8.93488
554 1 11.0073 14.1537 14.1557 -8.99392
555 1 12.6269 12.613 12.6215 -8.89455
556 1 14.1658 14.1642 14.1655 -8.92757
557 1 15.7362 12.5818 12.5831 -8.95877
558 1 17.301 14.1537 14.1539 -8.95117
559 1 18.872 12.5796 12.5798 -8.95171
560 1 20.4423 14.1521 14.1523 -8.9502
561 1 22.0133 15.7246 12.5797 -8.95024
562 1 1.57113 17.2974 14.1526 -8.94976
563 1 3.1407 15.726 12.5812 -8.95132
564 1 4.71295 17.3007 14.156 -8.94393
565 1 6.27533 15.7378 12.5926 -8.92737
566 1 7.86057 17.3004 14.1549 -8.94889
567 1 9.4317 15.7337 12.585 -8.98158
568 1 11.0076 17.2991 14.1533 -8.94828
569 1 12.5871 15.7337 12.585 -8.98028
570 1 14.1547 17.3011 14.1545 -8.95002
571 1 15.7275 15.7266 12.5801 -8.95064
572 1 17.2978 17.2977 14.1523 -8.94996
573 1 18.8703 15.725 12.5797 -8.94955
574 1 20.4416 17.297 14.1521 -8.94973
575 1 -0.000312231 18.8694 12.5795 -8.9495
576 1 1.57204 20.4418 14.152 -8.94958
577 1 3.14364 18.8702 12.5799 -8.94923
578 1 4.71642 20.4425 14.1526 -8.95001
579 1 6.28786 18.8728 12.581 -8.95182
580 1 7.86174 20.4428 14.1528 -8.94941
581 1 9.43409 18.8731 12.5813 -8.94905
582 1 11.0072 20.4425 14.1526 -8.94918
583 1 12.5806 18.8723 12.5805 -8.95061
584 1 14.1525 20.4426 14.1524 -8.95027
585 1 15.7248 18.8699 12.5793 -8.95
586 1 17.2969 20.4418 14.1518 -8.94977
587 1 18.8693 18.8695 12.5794 -8.94954
588 1 20.4415 20.4416 14.1519 -8.94959
589 1 1.57217 11.0069 17.297 -8.94958
675 1 3.14452 18.8694 18.8694 -8.94947
674 1 1.5723 20.4416 20.4415 -8.94949
673 1 22.0139 18.8692 18.8692 -8.94963
672 1 20.4416 17.2967 20.4415 -8.94962
671 1 18.8694 15.7244 18.8694 -8.94956
595 1 20.4419 11.0069 17.297 -8.94954
596 1 5.35367e-05 12.5794 15.7247 -8.94958
597 1 1.5722 14.1518 17.297 -8.94945
598 1 3.14397 12.5793 15.7251 -8.94903
599 1 4.71674 14.1516 17.2974 -8.94951
600 1 6.2886 12.5786 15.7258 -8.94829
601 1 7.86158 14.1521 17.2993 -8.95297
602 1 9.43487 12.5791 15.727 -8.954
603 1 11.0067 14.1527 17.2987 -8.94877
604 1 12.582 12.5805 15.7328 -8.96087
605 1 14.1533 14.1532 17.3002 -8.9519
606 1 15.7279 12.5806 15.728 -8.94693
607 1 17.2978 14.1524 17.2978 -8.94921
608 1 18.8705 12.5797 15.7252 -8.94925
609 1 20.4418 14.1519 17.297 -8.94949
610 1 22.0139 15.7244 15.7246 -8.9498
611 1 1.57216 17.2968 17.297 -8.9498
612 1 3.14383 15.7245 15.7251 -8.95025
613 1 4.71623 17.2976 17.2982 -8.94929
614 1 6.28664 15.727 15.7291 -8.94928
615 1 7.86194 17.2973 17.2978 -8.94955
616 1 9.43454 15.7258 15.7268 -8.94906
617 1 11.007 17.2975 17.2976 -8.94922
618 1 12.5798 15.7259 15.7267 -8.9502
619 1 14.1521 17.2975 17.2976 -8.95001
620 1 15.7283 15.7282 15.7283 -8.94394
621 1 17.2978 17.2978 17.2977 -8.94814
622 1 18.8704 15.725 15.7251 -8.9497
623 1 20.4418 17.2969 17.2969 -8.94957
624 1 22.0136 18.8694 15.7245 -8.94956
625 1 1.57211 20.4417 17.2969 -8.94922
626 1 3.14366 18.8701 15.7254 -8.94812
627 1 4.71701 20.4418 17.297 -8.94961
628 1 6.28904 18.8703 15.7255 -8.9495
629 1 7.86207 20.4417 17.297 -8.94959
630 1 9.43462 18.87 15.7252 -8.94961
631 1 11.007 20.4418 17.2971 -8.94955
632 1 12.5796 18.87 15.7251 -8.9493
633 1 14.1519 20.4417 17.297 -8.94957
634 1 15.7253 18.8706 15.7252 -8.94938
635 1 17.297 20.4418 17.297 -8.94947
636 1 18.8694 18.8695 15.7244 -8.94974
637 1 20.4415 20.4416 17.2968 -8.94961
670 1 17.297 17.297 20.4415 -8.94958
669 1 15.7249 15.725 18.8701 -8.95002
668 1 14.1519 17.297 20.4415 -8.94962
667 1 12.5794 15.7247 18.8698 -8.94952
666 1 11.0069 17.2971 20.4415 -8.94958
665 1 9.43436 15.7248 18.8698 -8.94955
664 1 7.86196 17.297 20.4415 -8.94957
645 1 22.0139 12.5794 18.8692 -8.9496
646 1 1.57231 14.1518 20.4415 -8.94958
647 1 3.14455 12.5794 18.8693 -8.94958
648 1 4.717 14.1518 20.4415 -8.94953
649 1 6.28928 12.5793 18.8696 -8.94941
650 1 7.86193 14.1518 20.4415 -8.95051
651 1 9.43444 12.5793 18.8698 -8.94981
652 1 11.0067 14.1521 20.4415 -8.94996
653 1 12.5794 12.5795 18.8707 -8.95156
654 1 14.1521 14.1522 20.4416 -8.95063
655 1 15.7251 12.5797 18.8702 -8.94937
656 1 17.2971 14.152 20.4416 -8.94945
657 1 18.8695 12.5795 18.8694 -8.94955
658 1 20.4416 14.1518 20.4415 -8.94961
659 1 22.0139 15.7243 18.8692 -8.94956
660 1 1.57235 17.2967 20.4415 -8.94969
661 1 3.14463 15.7242 18.8693 -8.94968
662 1 4.71695 17.2969 20.4415 -8.94998
663 1 6.28924 15.7246 18.87 -8.95061
197 1 22.0138 22.0139 12.5794 -8.94961
199 1 3.14434 22.014 12.5796 -8.94944
203 1 9.43458 22.0144 12.5799 -8.95027
205 1 12.5798 22.0143 12.5797 -8.95038
209 1 18.8692 22.0139 12.5794 -8.94958
250 1 6.28945 22.014 15.7247 -8.94954
389 1 15.7244 18.8694 22.0136 -8.94968
383 1 6.28955 18.8694 22.0136 -8.94954
256 1 15.7246 22.014 15.7246 -8.94987
297 1 3.14474 22.0139 18.8692 -8.94963
301 1 9.43452 22.0139 18.8692 -8.9496
351 1 22.0139 12.5794 22.0138 -8.9496
355 1 6.28933 12.5793 22.0135 -8.94946
371 1 9.43432 15.7248 22.013 -8.94969
367 1 3.14465 15.7242 22.0137 -8.94967
357 1 9.4344 12.5792 22.0133 -8.94948
359 1 12.5794 12.5795 22.0125 -8.95112
379 1 22.0139 18.8691 22.0138 -8.94964
