ITEM: TIMESTEP
118
ITEM: NUMBER OF ATOMS
688
ITEM: BOX BOUNDS pp pp pp
0.0000000000000000e+00 2.2013900999999997e+01
0.0000000000000000e+00 2.2013900999999997e+01
0.0000000000000000e+00 2.2013900999999997e+01
ITEM: ATOMS id type x y z c_pot
189 1 20.4414 4.71634 11.0071 -8.94953
2 1 1.5716 1.57213 1.57161 -8.94916
448 1 20.4432 11.0066 7.86181 -8.94948
4 1 4.71644 1.572 1.57137 -8.94958
447 1 17.3014 11.0056 7.86098 -8.94963
6 1 7.86177 1.57196 1.57143 -8.94942
7 1 9.43448 8.36801e-05 -0.000520075 -8.94949
8 1 11.0071 1.57188 1.57151 -8.94946
445 1 11.0765 11.0016 7.61703 -8.15592
10 1 14.1524 1.57177 1.57163 -8.94945
443 1 4.72008 11.0079 7.86275 -8.944
12 1 17.2975 1.57172 1.57172 -8.94946
442 1 1.57274 11.007 7.86187 -8.94799
14 1 20.4416 1.5721 1.57201 -8.94953
188 1 17.2978 4.71591 11.0069 -8.94893
16 1 1.57185 4.71671 1.57156 -8.94974
398 1 17.3018 11.007 4.71419 -8.94941
18 1 4.71563 4.71581 1.57036 -8.9493
394 1 4.71529 11.0066 4.71507 -8.94617
20 1 7.86136 4.71577 1.57066 -8.94913
50 1 -0.000579986 0.000169933 3.14428 -8.94947
22 1 11.0071 4.71557 1.57068 -8.94938
183 1 1.5704 4.71588 11.0074 -8.94931
24 1 14.1531 4.71528 1.57059 -8.94954
349 1 17.299 11.007 1.57062 -8.94946
26 1 17.2987 4.71525 1.57082 -8.94816
345 1 4.71648 11.0067 1.57134 -8.94947
28 1 20.4422 4.71646 1.57173 -8.94949
165 1 9.43077 6.29112 9.4344 -8.99274
30 1 1.57221 7.86186 1.57175 -8.9494
164 1 6.27985 6.28015 9.43432 -8.9423
32 1 4.71648 7.86191 1.57133 -8.94965
163 1 3.14037 6.28702 9.43443 -8.94914
34 1 7.86147 7.86123 1.56985 -8.9523
35 1 9.43413 6.28853 -0.00109143 -8.94961
36 1 11.0071 7.86038 1.56912 -8.95051
37 1 12.5799 6.28832 -0.00123624 -8.94968
38 1 14.1544 7.85987 1.56815 -8.95163
162 1 -0.0010414 6.28871 9.43445 -8.94992
40 1 17.299 7.86082 1.57058 -8.94932
161 1 18.8694 3.1441 9.43446 -8.94954
42 1 20.4425 7.86158 1.57163 -8.94946
350 1 20.4425 11.0069 1.5716 -8.94947
44 1 3.14444 9.43439 -0.00039115 -8.94947
160 1 15.725 3.14391 9.43442 -8.94959
159 1 12.5795 3.14504 9.43445 -8.94786
158 1 9.43413 3.14403 9.43445 -8.94719
48 1 15.7261 9.4339 -0.00129532 -8.9495
157 1 6.28667 3.14116 9.43445 -8.94953
175 1 18.8704 9.43381 9.43438 -8.94722
51 1 1.57129 1.57208 4.71646 -8.94942
174 1 15.7228 9.43499 9.43468 -8.93998
53 1 4.71566 1.57153 4.71574 -8.94998
54 1 6.28896 0.000423159 3.14352 -8.94963
55 1 7.86163 1.57153 4.71597 -8.94987
173 1 12.5578 9.44847 9.43453 -8.96272
57 1 11.0073 1.57152 4.71612 -8.94975
172 1 9.37087 9.24678 9.4326 -8.24945
59 1 14.1526 1.57136 4.71658 -8.95067
60 1 15.725 8.71608e-05 3.14415 -8.95006
61 1 17.2972 1.57201 4.71702 -8.94974
171 1 6.28389 9.42852 9.43472 -8.96818
63 1 20.4413 1.57216 4.71691 -8.94949
64 1 22.0134 3.14425 3.14413 -8.94957
65 1 1.57067 4.71611 4.71601 -8.94971
66 1 3.14302 3.14352 3.14307 -8.94849
67 1 4.71281 4.71317 4.71312 -8.9457
68 1 6.28846 3.14317 3.143 -8.9497
69 1 7.8603 4.71305 4.71414 -8.94958
70 1 9.43432 3.14317 3.14319 -8.94934
71 1 11.0076 4.71334 4.71412 -8.94802
72 1 12.5801 3.14302 3.14331 -8.94918
73 1 14.1552 4.71209 4.71402 -8.95009
74 1 15.7259 3.14266 3.14336 -8.94949
75 1 17.2983 4.71563 4.71653 -8.95047
76 1 18.8697 3.14398 3.1443 -8.94985
77 1 20.4416 4.71648 4.71678 -8.94987
78 1 22.0141 6.28911 3.14406 -8.94989
79 1 1.5717 7.86184 4.71649 -8.95013
80 1 3.14325 6.28884 3.14328 -8.95017
81 1 4.71412 7.86084 4.71494 -8.951
82 1 6.28617 6.28618 3.13987 -8.94913
83 1 7.85494 7.85375 4.70631 -8.94958
84 1 9.43381 6.2864 3.141 -8.94762
85 1 11.0084 7.85546 4.70724 -8.94906
86 1 12.5814 6.28607 3.14043 -8.94876
87 1 14.1659 7.84912 4.70351 -8.92912
88 1 15.7294 6.28471 3.14001 -8.94436
89 1 17.3021 7.85921 4.71425 -8.95043
90 1 18.8713 6.2881 3.14339 -8.94957
91 1 20.443 7.86133 4.71635 -8.95022
92 1 0.000425359 9.43426 3.14397 -8.94954
93 1 3.14395 9.43427 3.14371 -8.94889
94 1 6.28882 9.43448 3.14325 -8.94902
95 1 9.43525 9.43364 3.14187 -8.95319
96 1 12.5832 9.43261 3.13594 -8.95947
97 1 15.729 9.43284 3.1403 -8.94815
98 1 18.8715 9.43391 3.14324 -8.94941
170 1 3.14333 9.43471 9.43447 -8.95087
100 1 1.57114 1.57202 7.86177 -8.94944
101 1 3.14325 0.000444712 6.28883 -8.94933
102 1 4.71534 1.57145 7.86146 -8.94941
169 1 22.014 9.43435 9.43443 -8.94927
104 1 7.86139 1.57136 7.86172 -8.95138
105 1 9.4346 0.000749019 6.28885 -8.95039
106 1 11.0071 1.5723 7.86203 -8.94936
107 1 12.5797 0.000386196 6.28936 -8.95039
108 1 14.1523 1.57231 7.86211 -8.94942
168 1 18.87 6.28845 9.43438 -8.94949
110 1 17.2971 1.57206 7.86201 -8.94953
111 1 18.8692 0.000124529 6.28948 -8.94954
112 1 20.4412 1.57213 7.86194 -8.94952
113 1 -0.000797429 3.14416 6.2892 -8.94942
114 1 1.57039 4.7159 7.86156 -8.9493
115 1 3.14273 3.14336 6.28855 -8.94919
116 1 4.71297 4.71339 7.8606 -8.94778
117 1 6.28734 3.14132 6.28775 -8.95129
118 1 7.85878 4.7096 7.86068 -8.95788
119 1 9.43449 3.14212 6.28832 -8.95081
120 1 11.0066 4.71579 7.86163 -8.95075
121 1 12.58 3.14251 6.28899 -8.95239
122 1 14.1523 4.71643 7.86268 -8.94932
123 1 15.7249 3.14389 6.28967 -8.94974
124 1 17.2976 4.71602 7.86193 -8.94888
125 1 18.8694 3.14415 6.28946 -8.94939
126 1 20.4414 4.71638 7.86186 -8.94953
127 1 22.0131 6.28893 6.28916 -8.95012
128 1 1.57035 7.86149 7.86178 -8.95133
129 1 3.14064 6.28745 6.28768 -8.95068
130 1 4.70861 7.85836 7.86007 -8.95655
131 1 6.27813 6.27809 6.27931 -8.93471
132 1 7.82871 7.82941 7.83538 -8.879
133 1 9.43352 6.28038 6.28442 -8.95246
134 1 11.0193 7.8563 7.84029 -8.91551
135 1 12.5854 6.27896 6.28279 -8.95462
136 1 14.1549 7.8608 7.86432 -8.95405
137 1 15.727 6.28739 6.28909 -8.95191
138 1 17.2985 7.86105 7.86253 -8.94991
139 1 18.8702 6.28871 6.28946 -8.94992
140 1 20.4419 7.86147 7.86197 -8.94973
141 1 22.0144 9.43434 6.28919 -8.95004
142 1 3.14352 9.43496 6.28916 -8.95075
143 1 6.28476 9.43393 6.28704 -8.952
144 1 9.41813 9.40768 6.27583 -8.89635
145 1 12.6208 9.39909 6.25098 -8.85007
146 1 15.7361 9.43048 6.28404 -8.95672
147 1 18.8727 9.43359 6.28854 -8.95157
148 1 -0.000754507 0.000180407 9.43452 -8.9495
167 1 15.7263 6.28753 9.43426 -8.9458
150 1 6.28815 0.000812223 9.4345 -8.95038
151 1 9.4344 0.000946312 9.43438 -8.94875
152 1 12.5798 0.00065787 9.43436 -8.94916
153 1 15.7247 0.000170582 9.43448 -8.94966
166 1 12.5772 6.29297 9.43458 -8.94418
155 1 22.013 3.1441 9.43449 -8.94948
156 1 3.14259 3.14327 9.43449 -8.94945
181 1 17.2971 1.572 11.0069 -8.94954
344 1 1.57225 11.0068 1.5717 -8.94951
177 1 4.71535 1.5714 11.0075 -8.94941
184 1 4.71295 4.71335 11.0083 -8.94787
45 1 6.28922 9.43447 -0.000470793 -8.94945
41 1 18.8703 6.28882 -0.000499747 -8.94945
19 1 6.28911 3.14414 -0.000645432 -8.94946
25 1 15.725 3.14378 -0.000548264 -8.94954
176 1 1.57116 1.572 11.0073 -8.94944
254 1 12.5799 -0.000186121 15.7251 -8.94951
178 1 7.8614 1.57119 11.0072 -8.95127
179 1 11.0071 1.5722 11.0069 -8.94967
180 1 14.1523 1.5721 11.0068 -8.94938
644 1 20.4423 11.0069 20.4416 -8.94949
182 1 20.4412 1.57211 11.0071 -8.94952
643 1 17.2983 11.007 20.4418 -8.94945
252 1 9.43456 -8.01247e-05 15.7253 -8.94952
185 1 7.85866 4.70946 11.0081 -8.95756
186 1 11.0066 4.71531 11.0074 -8.95084
187 1 14.1526 4.71605 11.0062 -8.94914
642 1 14.1532 11.007 20.4419 -8.95052
641 1 11.007 11.0069 20.4418 -8.94856
190 1 1.57033 7.86145 11.0071 -8.9514
191 1 4.70834 7.85819 11.0088 -8.95624
192 1 7.82847 7.82964 11.0324 -8.87681
193 1 11.0191 7.85498 11.0292 -8.93188
194 1 14.1563 7.86007 11.0042 -8.95122
195 1 17.2991 7.86077 11.0063 -8.94972
196 1 20.4421 7.86141 11.0069 -8.94981
343 1 18.8706 9.43412 18.87 -8.94943
198 1 1.57132 1.57202 14.1526 -8.94942
342 1 15.7264 9.43373 18.8712 -8.94947
200 1 4.71569 1.57138 14.1532 -8.94997
201 1 6.28858 0.000594064 12.5803 -8.95068
202 1 7.86155 1.57123 14.1531 -8.94993
341 1 12.5802 9.43401 18.8716 -8.95177
204 1 11.0073 1.57111 14.1529 -8.94967
340 1 9.43447 9.43431 18.8703 -8.94986
206 1 14.1527 1.571 14.1525 -8.95078
207 1 15.7247 4.72017e-05 12.5794 -8.94963
208 1 17.2972 1.57184 14.152 -8.94978
339 1 6.28908 9.43441 18.8699 -8.94938
210 1 20.4413 1.5721 14.1521 -8.94949
211 1 -0.00076578 3.14412 12.5798 -8.94942
212 1 1.57068 4.71605 14.153 -8.94966
213 1 3.14273 3.1433 12.5805 -8.9492
214 1 4.71276 4.7131 14.1558 -8.94576
215 1 6.28731 3.14118 12.5812 -8.95114
216 1 7.85993 4.71233 14.1551 -8.94995
217 1 9.43441 3.14167 12.5807 -8.9511
218 1 11.0076 4.71258 14.1552 -8.94795
219 1 12.5801 3.14197 12.5801 -8.95274
220 1 14.1557 4.71104 14.1555 -8.95067
221 1 15.7251 3.1436 12.5793 -8.94968
222 1 17.2986 4.71531 14.1526 -8.95048
223 1 18.8695 3.14406 12.5795 -8.94939
224 1 20.4418 4.71637 14.1523 -8.94984
225 1 22.0132 6.28887 12.5798 -8.95013
226 1 1.57173 7.86181 14.1525 -8.95026
227 1 3.14056 6.28738 12.5813 -8.95053
228 1 4.71374 7.86082 14.154 -8.95188
229 1 6.27802 6.27812 12.5894 -8.93463
230 1 7.85242 7.85121 14.1648 -8.94569
231 1 9.43299 6.27884 12.5849 -8.95409
232 1 11.0086 7.85364 14.1633 -8.94866
233 1 12.5862 6.27703 12.5868 -8.95673
234 1 14.1698 7.84538 14.1691 -8.92303
235 1 15.7277 6.28683 12.5799 -8.95163
236 1 17.3034 7.85863 14.1553 -8.95101
237 1 18.8705 6.28853 12.5795 -8.94984
238 1 20.4434 7.86121 14.1527 -8.95036
239 1 22.0146 9.43433 12.5797 -8.95012
240 1 3.14347 9.43506 12.5797 -8.95099
241 1 6.28413 9.43464 12.5811 -8.9562
242 1 9.409 9.40052 12.5991 -8.92536
243 1 12.633 9.39003 12.6269 -8.85887
244 1 15.739 9.4301 12.5855 -8.95972
245 1 18.8735 9.43351 12.5804 -8.95204
246 1 -0.000539186 0.000126229 15.7248 -8.94949
247 1 1.57162 1.57208 17.2975 -8.9492
248 1 3.1436 0.000283454 15.7254 -8.9495
249 1 4.71639 1.57187 17.2977 -8.94957
338 1 3.1444 9.43437 18.8696 -8.94947
251 1 7.86175 1.57175 17.2976 -8.94942
337 1 22.0143 9.43433 18.8696 -8.94949
253 1 11.0071 1.57165 17.2976 -8.94946
336 1 20.4423 7.86171 20.4416 -8.94948
255 1 14.1524 1.57153 17.2975 -8.94945
335 1 18.8705 6.2887 18.8699 -8.94937
257 1 17.2976 1.57155 17.2974 -8.94946
258 1 18.8693 3.9154e-05 15.7245 -8.94971
259 1 20.4416 1.57204 17.2971 -8.94955
260 1 22.0134 3.14418 15.7249 -8.94956
261 1 1.57184 4.71663 17.2976 -8.9498
262 1 3.14302 3.14345 15.726 -8.94855
263 1 4.71539 4.71554 17.299 -8.94899
264 1 6.28829 3.14286 15.7262 -8.94975
265 1 7.86123 4.7155 17.2986 -8.94906
266 1 9.43425 3.14281 15.726 -8.94928
267 1 11.0071 4.71526 17.2987 -8.94929
268 1 12.5802 3.14259 15.7259 -8.94913
269 1 14.1532 4.71489 17.2989 -8.94947
270 1 15.7261 3.14218 15.7259 -8.94959
271 1 17.2991 4.7148 17.2987 -8.94772
272 1 18.8699 3.14382 15.7248 -8.94988
273 1 20.4424 4.71633 17.2975 -8.94951
274 1 22.0142 6.28902 15.7251 -8.94998
275 1 1.57221 7.86179 17.2974 -8.94939
276 1 3.14311 6.28873 15.7258 -8.95038
277 1 4.71625 7.86177 17.298 -8.94948
278 1 6.28536 6.28536 15.7299 -8.94809
279 1 7.86112 7.86086 17.3 -8.95257
280 1 9.43355 6.2857 15.7286 -8.9473
281 1 11.0071 7.85992 17.3007 -8.95042
282 1 12.5816 6.28518 15.7294 -8.94837
283 1 14.155 7.85925 17.3022 -8.95201
284 1 15.7308 6.28334 15.7303 -8.94275
285 1 17.2996 7.86041 17.2992 -8.94895
286 1 18.8718 6.28778 15.7259 -8.94967
287 1 20.4427 7.86145 17.2977 -8.94941
288 1 0.000624208 9.43419 15.7252 -8.94961
289 1 3.14377 9.43421 15.7255 -8.94891
290 1 6.28812 9.43414 15.7262 -8.94819
291 1 9.43465 9.4328 15.7287 -8.9542
292 1 12.5843 9.43157 15.7356 -8.96065
293 1 15.7308 9.43192 15.7304 -8.94672
294 1 18.8723 9.43364 15.7263 -8.94931
49 1 18.8704 9.43419 22.0134 -8.94946
296 1 1.57198 1.57215 20.4415 -8.94927
334 1 17.2982 7.86125 20.4418 -8.94939
298 1 4.71678 1.57212 20.4415 -8.94953
299 1 6.28933 2.11062e-05 18.8695 -8.94951
300 1 7.86185 1.57204 20.4415 -8.94949
333 1 15.7261 6.28782 18.871 -8.95006
302 1 11.007 1.57197 20.4415 -8.94949
332 1 14.1528 7.86112 20.4419 -8.95082
304 1 14.1522 1.57191 20.4415 -8.94947
305 1 15.7247 -9.1353e-05 18.8694 -8.94954
306 1 17.2972 1.5719 20.4415 -8.94953
331 1 12.5799 6.28814 18.8708 -8.94965
308 1 20.4418 1.57211 20.4415 -8.94911
309 1 22.0139 3.14438 18.8695 -8.94947
310 1 1.57222 4.71695 20.4415 -8.94966
311 1 3.144 3.14413 18.8698 -8.94932
312 1 4.71647 4.71659 20.4416 -8.95
313 1 6.28907 3.14404 18.8698 -8.94946
314 1 7.86158 4.71636 20.4416 -8.94949
315 1 9.43432 3.14389 18.8698 -8.94945
316 1 11.0069 4.71615 20.4416 -8.94951
317 1 12.5797 3.14376 18.8698 -8.94942
318 1 14.1525 4.716 20.4417 -8.94954
319 1 15.7251 3.14365 18.8698 -8.94955
320 1 17.2979 4.71597 20.4417 -8.94948
321 1 18.8701 3.14387 18.8697 -8.94897
322 1 20.4421 4.71669 20.4416 -8.94946
323 1 22.0142 6.28927 18.8695 -8.94946
324 1 1.57235 7.86191 20.4416 -8.94948
325 1 3.14431 6.28939 18.8697 -8.94969
326 1 4.71675 7.86199 20.4416 -8.94954
327 1 6.28874 6.28884 18.8705 -8.95065
328 1 7.86174 7.86181 20.4417 -8.9505
329 1 9.43408 6.28838 18.8705 -8.94955
330 1 11.0069 7.8613 20.4417 -8.95035
512 1 1.57286 11.007 11.007 -8.9478
513 1 4.72052 11.0081 11.0057 -8.94241
515 1 11.086 10.9655 11.2895 -8.34127
517 1 17.3023 11.0058 11.0077 -8.94965
518 1 20.4435 11.0066 11.007 -8.94949
540 1 1.57193 11.0068 14.1528 -8.9497
541 1 4.71476 11.0066 14.1541 -8.94648
542 1 7.86082 11.0059 14.1543 -8.94318
544 1 14.1672 11.0056 14.1667 -8.93935
545 1 17.3038 11.0066 14.1558 -8.94925
546 1 20.4437 11.0068 14.153 -8.95012
47 1 12.58 9.43416 22.0123 -8.95156
591 1 7.86156 11.0068 17.2981 -8.94898
592 1 11.0076 11.0065 17.2987 -8.94663
593 1 14.1557 11.0068 17.3023 -8.95005
46 1 9.43454 9.43443 22.0133 -8.9498
638 1 1.57235 11.0069 20.4416 -8.94952
639 1 4.71674 11.0068 20.4416 -8.9496
640 1 7.86177 11.0069 20.4416 -8.94947
3 1 3.14422 0.000147158 22.0134 -8.94952
39 1 15.7259 6.28807 22.0126 -8.95003
9 1 12.5796 3.8983e-05 22.0134 -8.94949
33 1 6.28888 6.28899 22.0128 -8.95063
13 1 18.8695 1.8876e-05 22.0136 -8.94933
15 1 22.0139 3.14444 22.0135 -8.94947
17 1 3.14404 3.1442 22.0132 -8.9494
31 1 3.14436 6.28944 22.0134 -8.94971
23 1 12.5797 3.14388 22.0133 -8.94943
29 1 22.0142 6.28933 22.0136 -8.94948
27 1 18.87 3.14398 22.0135 -8.94909
21 1 9.43434 3.144 22.0133 -8.94946
43 1 22.0143 9.43436 22.0136 -8.9495
539 1 20.4412 20.442 11.0071 -8.94951
688 3 10.2681 11.0572 9.45646 2.21724
346 1 7.86185 11.0068 1.57155 -8.94875
347 1 11.0076 11.0069 1.57137 -8.94641
348 1 14.1549 11.007 1.5683 -8.94972
687 2 10.9157 12.4416 10.1948 0.342463
529 1 11.0056 17.3048 11.0063 -8.95942
154 1 18.8692 22.014 9.4345 -8.94955
352 1 1.57207 14.1519 1.57163 -8.94939
353 1 3.14439 12.5793 -0.000455757 -8.9495
354 1 4.71627 14.1518 1.57093 -8.94949
149 1 3.14318 22.0143 9.43452 -8.94942
356 1 7.86142 14.1525 1.56888 -8.95322
393 1 1.57188 11.0068 4.71622 -8.94951
358 1 11.0071 14.1532 1.56898 -8.95068
399 1 20.4431 11.0068 4.71621 -8.94993
360 1 14.1542 14.1538 1.56842 -8.95157
361 1 15.7261 12.58 -0.00126614 -8.9494
362 1 17.2988 14.153 1.57068 -8.94919
363 1 18.8704 12.5797 -0.000526112 -8.94945
364 1 20.4424 14.1522 1.57162 -8.94942
109 1 15.7248 22.0142 6.28953 -8.94953
366 1 1.57162 17.2973 1.57137 -8.94983
103 1 6.28847 22.0148 6.28859 -8.9507
368 1 4.71519 17.2985 1.56955 -8.94946
369 1 6.28881 15.7249 -0.00161972 -8.95096
370 1 7.8613 17.2985 1.56987 -8.94917
99 1 22.0132 22.0141 6.28929 -8.94948
372 1 11.0073 17.2985 1.57014 -8.94932
62 1 18.8693 22.014 3.1445 -8.94967
374 1 14.153 17.2985 1.57043 -8.94962
375 1 15.7257 15.7257 -0.00129872 -8.95009
376 1 17.2986 17.2985 1.5708 -8.94835
58 1 12.5799 22.0141 3.14386 -8.94952
378 1 20.4421 17.2974 1.57167 -8.94957
1 1 22.0136 22.014 -0.000311351 -8.94912
380 1 1.57143 20.4422 1.57143 -8.94895
381 1 3.14385 18.8699 -0.000905861 -8.94941
382 1 4.71631 20.4424 1.57113 -8.94955
56 1 9.43453 22.0142 3.14364 -8.94954
384 1 7.86177 20.4424 1.57121 -8.94941
385 1 9.43444 18.87 -0.000924875 -8.94947
386 1 11.0072 20.4423 1.57133 -8.94945
387 1 12.5798 18.87 -0.000821304 -8.94941
388 1 14.1524 20.4423 1.57153 -8.94941
52 1 3.14354 22.0143 3.14355 -8.94945
390 1 17.2975 20.4422 1.57166 -8.94946
391 1 18.8699 18.8699 -0.00043803 -8.94914
392 1 20.4415 20.442 1.57194 -8.9495
511 1 18.8694 18.87 9.43448 -8.94954
510 1 15.7251 18.8703 9.43445 -8.94956
395 1 7.86287 11.0067 4.71631 -8.9471
396 1 11.0121 11.0069 4.71975 -9.00564
397 1 14.1626 11.0072 4.70662 -8.94469
509 1 12.5799 18.8708 9.43365 -8.94777
508 1 9.43316 18.8724 9.43367 -8.94566
400 1 0.000323831 12.5795 3.14392 -8.94956
401 1 1.57122 14.152 4.71622 -8.94984
402 1 3.14377 12.5793 3.14351 -8.94902
403 1 4.7134 14.1528 4.71414 -8.95091
404 1 6.2884 12.5789 3.14265 -8.94852
405 1 7.85399 14.1609 4.70226 -8.95529
406 1 9.43506 12.5798 3.1418 -8.95202
407 1 11.0077 14.1579 4.70674 -8.95175
408 1 12.583 12.581 3.13693 -8.95784
409 1 14.1648 14.1637 4.70447 -8.93219
410 1 15.7289 12.581 3.14065 -8.94735
411 1 17.3015 14.1541 4.71465 -8.9512
412 1 18.8714 12.5799 3.14329 -8.94928
413 1 20.4427 14.1523 4.71637 -8.95021
414 1 22.0138 15.7247 3.14392 -8.94985
415 1 1.5699 17.2983 4.7155 -8.94989
416 1 3.14282 15.7251 3.14285 -8.95027
417 1 4.71054 17.3031 4.71078 -8.9426
418 1 6.28533 15.7285 3.13794 -8.95009
419 1 7.85952 17.3028 4.71211 -8.94859
420 1 9.43388 15.728 3.13953 -8.94807
421 1 11.0079 17.3016 4.71291 -8.94661
422 1 12.5813 15.7276 3.14023 -8.9492
423 1 14.1554 17.302 4.71359 -8.94985
424 1 15.7291 15.7288 3.14017 -8.94512
425 1 17.2984 17.2984 4.71624 -8.95011
426 1 18.8711 15.7256 3.14343 -8.94982
427 1 20.4415 17.2976 4.71652 -8.94985
428 1 22.0131 18.8699 3.14389 -8.94952
429 1 1.57107 20.4424 4.71631 -8.94941
430 1 3.14231 18.8713 3.14232 -8.94766
431 1 4.71521 20.4438 4.71527 -8.94993
432 1 6.28806 18.8717 3.14218 -8.94949
433 1 7.86147 20.4437 4.71555 -8.94979
434 1 9.43437 18.8714 3.14257 -8.94923
435 1 11.0074 20.4433 4.71582 -8.94961
436 1 12.5803 18.8712 3.14295 -8.94888
437 1 14.1526 20.4429 4.71645 -8.95071
438 1 15.7259 18.8713 3.14319 -8.94945
439 1 17.2972 20.4422 4.71691 -8.94966
440 1 18.8697 18.87 3.14417 -8.94979
441 1 20.4413 20.442 4.71684 -8.94949
507 1 6.28561 18.875 9.43447 -8.94952
506 1 3.14195 18.8716 9.43452 -8.94932
444 1 7.87784 10.9998 7.86071 -8.95664
505 1 22.0128 18.8701 9.4345 -8.94946
446 1 14.1621 11.0018 7.85023 -9.00257
504 1 18.8704 15.7255 9.43437 -8.94927
503 1 15.7269 15.7262 9.43417 -8.94636
449 1 22.0141 12.5793 6.28911 -8.94995
450 1 1.5698 14.1525 7.86168 -8.95222
451 1 3.14287 12.5789 6.28859 -8.95004
452 1 4.70558 14.1569 7.85914 -8.9614
453 1 6.28408 12.5781 6.2862 -8.95182
454 1 7.81254 14.2033 7.81429 -8.85297
455 1 9.41603 12.6051 6.2774 -8.95513
456 1 11.0156 14.1621 7.83383 -8.96054
457 1 12.6174 12.6132 6.25643 -8.90213
458 1 14.1567 14.1565 7.86212 -8.97374
459 1 15.7344 12.582 6.28604 -8.95871
460 1 17.3003 14.1535 7.8615 -8.94814
461 1 18.8722 12.5797 6.28883 -8.95124
462 1 20.4423 14.1524 7.86176 -8.95001
463 1 22.0128 15.7251 6.28892 -8.95044
464 1 1.5697 17.2985 7.8614 -8.94926
465 1 3.13888 15.7273 6.28678 -8.95188
466 1 4.71117 17.3025 7.85995 -8.94708
467 1 6.27152 15.7424 6.27256 -8.92253
468 1 7.85644 17.3099 7.85847 -8.96091
469 1 9.43272 15.7377 6.27964 -8.94756
470 1 11.0054 17.3 7.86081 -8.95158
471 1 12.5855 15.736 6.28144 -8.95406
472 1 14.153 17.2991 7.86173 -8.94905
473 1 15.7277 15.7271 6.28826 -8.95053
474 1 17.2979 17.2981 7.86179 -8.94932
475 1 18.8705 15.7254 6.28902 -8.9496
476 1 20.4413 17.2977 7.86178 -8.94956
477 1 -0.00105691 18.8701 6.28907 -8.94941
478 1 1.57094 20.4424 7.86173 -8.94941
479 1 3.14199 18.8715 6.28812 -8.94906
480 1 4.71493 20.4438 7.86131 -8.94935
481 1 6.28609 18.8753 6.28649 -8.95169
482 1 7.86098 20.4449 7.86136 -8.95191
483 1 9.4343 18.8739 6.28725 -8.95097
484 1 11.0069 20.443 7.86183 -8.9492
485 1 12.5799 18.8722 6.28862 -8.95265
486 1 14.1525 20.4426 7.86186 -8.94938
487 1 15.7252 18.8706 6.2893 -8.94944
488 1 17.2971 20.4421 7.86198 -8.94961
489 1 18.8694 18.87 6.28934 -8.9495
490 1 20.4412 20.442 7.86193 -8.94952
491 1 22.0143 12.5793 9.43442 -8.94937
492 1 3.14405 12.5795 9.43439 -8.94804
493 1 6.2909 12.5897 9.43389 -8.98916
494 1 9.28234 12.8078 9.41071 -8.35331
495 1 12.6139 12.5727 9.41363 -9.10461
496 1 15.7339 12.5784 9.43383 -8.95835
497 1 18.8723 12.5796 9.43432 -8.95079
498 1 -0.00129528 15.7254 9.43445 -8.95005
499 1 3.139 15.7279 9.43444 -8.94916
500 1 6.27607 15.7381 9.4343 -8.94218
501 1 9.42432 15.7252 9.43111 -9.0541
502 1 12.578 15.7247 9.43118 -8.99568
526 1 1.5698 17.2985 11.0076 -8.94922
11 1 15.7247 22.0139 -0.000381259 -8.9495
5 1 6.2893 22.014 -0.000550318 -8.94947
527 1 4.71148 17.3023 11.0089 -8.94676
532 1 20.4413 17.2977 11.0071 -8.94951
534 1 4.71502 20.4437 11.0077 -8.94928
538 1 17.2971 20.4421 11.007 -8.94951
365 1 22.0141 15.7245 -0.000359841 -8.94948
686 1 20.4417 20.4418 20.4415 -8.94917
685 1 18.8699 18.87 18.8696 -8.94904
514 1 7.88136 11.0043 11.005 -8.96448
684 1 17.2972 20.4419 20.4415 -8.94959
516 1 14.1646 11.0045 11.0195 -9.02258
683 1 15.7249 18.87 18.8696 -8.94973
682 1 14.1522 20.4419 20.4414 -8.94947
519 1 1.56998 14.1525 11.0072 -8.95208
520 1 4.70619 14.1567 11.0092 -8.96044
521 1 7.81596 14.1974 11.0489 -8.88577
522 1 11.0182 14.1847 11.0346 -9.14348
523 1 14.1611 14.1551 11.0074 -8.99729
524 1 17.3013 14.1534 11.0072 -8.94912
525 1 20.4426 14.1524 11.0071 -8.95013
594 1 17.2997 11.0069 17.2992 -8.94931
590 1 4.71632 11.0068 17.2979 -8.94945
528 1 7.85749 17.308 11.0089 -8.9607
307 1 18.8695 22.0139 18.8695 -8.94934
530 1 14.1523 17.298 11.0061 -8.95041
531 1 17.2978 17.2981 11.007 -8.94901
295 1 22.0136 22.014 18.8694 -8.94917
533 1 1.57098 20.4424 11.0073 -8.94941
377 1 18.8702 15.725 22.0134 -8.94944
535 1 7.86122 20.4444 11.0073 -8.95168
536 1 11.007 20.4436 11.0069 -8.95124
537 1 14.1522 20.4422 11.0068 -8.94936
373 1 12.5798 15.7254 22.0124 -8.94966
303 1 12.5796 22.0138 18.8695 -8.94949
681 1 12.5797 18.8699 18.8695 -8.94944
680 1 11.0071 20.4419 20.4414 -8.9495
679 1 9.4345 18.8698 18.8695 -8.94951
543 1 11.0128 11.0052 14.1524 -9.06026
678 1 7.86191 20.4419 20.4414 -8.9495
677 1 6.28922 18.8698 18.8697 -8.94963
676 1 4.71677 20.4419 20.4414 -8.94956
547 1 22.0145 12.5794 12.5798 -8.95013
548 1 1.57136 14.152 14.1528 -8.94999
549 1 3.1429 12.5789 12.5802 -8.95041
550 1 4.71328 14.1528 14.1546 -8.9514
551 1 6.28349 12.5779 12.5821 -8.95342
552 1 7.85259 14.1612 14.1665 -8.95192
553 1 9.4102 12.6044 12.5973 -8.92889
554 1 11.008 14.1531 14.1549 -8.98934
555 1 12.6302 12.6132 12.6246 -8.89477
556 1 14.1685 14.1655 14.1673 -8.92695
557 1 15.7387 12.5818 12.5847 -8.95916
558 1 17.303 14.1546 14.1551 -8.95125
559 1 18.8734 12.5797 12.5803 -8.952
560 1 20.4432 14.1525 14.1528 -8.95036
561 1 22.013 15.7251 12.58 -8.95039
562 1 1.57015 17.2982 14.1534 -8.94982
563 1 3.13929 15.7272 12.5819 -8.95163
564 1 4.71123 17.3024 14.1575 -8.94332
565 1 6.27304 15.7405 12.5942 -8.92575
566 1 7.86029 17.3014 14.1553 -8.94999
567 1 9.43259 15.7325 12.5836 -8.98075
568 1 11.0079 17.2989 14.153 -8.94849
569 1 12.5859 15.7308 12.5827 -8.97856
570 1 14.1548 17.3012 14.1543 -8.95152
571 1 15.7287 15.7273 12.5807 -8.94975
572 1 17.2986 17.2986 14.1528 -8.94981
573 1 18.871 15.7255 12.5799 -8.94964
574 1 20.4417 17.2977 14.1525 -8.94978
575 1 -0.000985028 18.8701 12.5799 -8.94938
576 1 1.57116 20.4423 14.1527 -8.9494
577 1 3.14218 18.8714 12.5808 -8.94902
578 1 4.71541 20.4435 14.1536 -8.95004
579 1 6.28655 18.8745 12.5819 -8.95198
580 1 7.86149 20.4433 14.1533 -8.94957
581 1 9.43396 18.8732 12.5813 -8.9489
582 1 11.0074 20.4425 14.1528 -8.94923
583 1 12.5803 18.8716 12.58 -8.95037
584 1 14.1526 20.4426 14.1525 -8.95052
585 1 15.7251 18.8703 12.5794 -8.95009
586 1 17.2972 20.4421 14.152 -8.94982
587 1 18.8694 18.87 12.5796 -8.9495
588 1 20.4413 20.442 14.1522 -8.94951
589 1 1.57227 11.0069 17.2975 -8.94951
675 1 3.1439 18.8699 18.8699 -8.94937
674 1 1.5719 20.4419 20.4415 -8.94926
673 1 22.0138 18.8696 18.8695 -8.94952
672 1 20.442 17.2972 20.4416 -8.94949
671 1 18.8703 15.7251 18.8699 -8.9494
595 1 20.4428 11.0069 17.2977 -8.94946
596 1 0.0005404 12.5795 15.7253 -8.9496
597 1 1.57212 14.152 17.2975 -8.94939
598 1 3.14367 12.5794 15.7256 -8.94901
599 1 4.71621 14.1519 17.2981 -8.94945
600 1 6.28798 12.579 15.7266 -8.94802
601 1 7.8613 14.1526 17.3 -8.95336
602 1 9.43495 12.5797 15.728 -8.9541
603 1 11.0071 14.1531 17.2988 -8.94826
604 1 12.5839 12.5809 15.7345 -8.96103
605 1 14.1547 14.1541 17.3015 -8.95201
606 1 15.7304 12.5812 15.7299 -8.94665
607 1 17.2993 14.1532 17.299 -8.94904
608 1 18.8721 12.58 15.7262 -8.94921
609 1 20.4426 14.1523 17.2977 -8.94939
610 1 22.014 15.7248 15.7252 -8.94989
611 1 1.5717 17.2973 17.2977 -8.94981
612 1 3.14289 15.7252 15.7261 -8.95031
613 1 4.71529 17.2985 17.2993 -8.94921
614 1 6.28529 15.7286 15.7307 -8.94906
615 1 7.86172 17.298 17.2983 -8.94956
616 1 9.43476 15.7265 15.7269 -8.94869
617 1 11.0073 17.298 17.2978 -8.94914
618 1 12.5805 15.7263 15.7268 -8.94974
619 1 14.1527 17.2982 17.298 -8.94997
620 1 15.73 15.7297 15.7297 -8.94357
621 1 17.2988 17.2988 17.2986 -8.94793
622 1 18.8715 15.7259 15.7259 -8.94974
623 1 20.4422 17.2975 17.2975 -8.94952
624 1 22.0132 18.8699 15.7251 -8.9495
625 1 1.57151 20.4421 17.2976 -8.94902
626 1 3.14256 18.8711 15.7265 -8.94786
627 1 4.71641 20.4423 17.2978 -8.94965
628 1 6.2884 18.8713 15.7263 -8.94986
629 1 7.86191 20.442 17.2975 -8.94955
630 1 9.43469 18.8705 15.7256 -8.9497
631 1 11.0072 20.442 17.2974 -8.9495
632 1 12.5799 18.8704 15.7253 -8.94934
633 1 14.1523 20.442 17.2973 -8.94955
634 1 15.7257 18.8712 15.7256 -8.94989
635 1 17.2974 20.4422 17.2974 -8.94958
636 1 18.8698 18.8701 15.7249 -8.94972
637 1 20.4415 20.442 17.2971 -8.94951
670 1 17.2978 17.2978 20.4416 -8.94953
669 1 15.7259 15.7259 18.8708 -8.95008
668 1 14.1523 17.2977 20.4413 -8.94955
667 1 12.5797 15.7253 18.8699 -8.9494
666 1 11.007 17.2976 20.4412 -8.94952
665 1 9.43438 15.7252 18.8699 -8.94949
664 1 7.86174 17.2975 20.4412 -8.94957
645 1 22.0143 12.5795 18.8696 -8.94949
646 1 1.57229 14.1519 20.4415 -8.9495
647 1 3.14438 12.5794 18.8696 -8.9495
648 1 4.7167 14.1518 20.4415 -8.94954
649 1 6.28908 12.5793 18.8699 -8.94944
650 1 7.86184 14.1519 20.4414 -8.95077
651 1 9.43463 12.5793 18.87 -8.9499
652 1 11.0069 14.1524 20.4413 -8.94997
653 1 12.58 12.5797 18.8712 -8.95178
654 1 14.1527 14.1526 20.4417 -8.95076
655 1 15.7263 12.5801 18.8711 -8.9494
656 1 17.2981 14.1526 20.4417 -8.94936
657 1 18.8705 12.5797 18.87 -8.94941
658 1 20.4422 14.1522 20.4416 -8.94948
659 1 22.0141 15.7246 18.8696 -8.94947
660 1 1.57212 17.297 20.4415 -8.94966
661 1 3.14424 15.7245 18.8697 -8.94967
662 1 4.71641 17.2974 20.4414 -8.95016
663 1 6.2888 15.725 18.8705 -8.95092
197 1 22.0132 22.0141 12.5797 -8.94948
199 1 3.14331 22.0143 12.5802 -8.94932
203 1 9.43452 22.0144 12.5801 -8.95029
205 1 12.5798 22.0141 12.5796 -8.95029
209 1 18.8692 22.014 12.5795 -8.94952
250 1 6.28897 22.0141 15.7255 -8.94961
389 1 15.725 18.87 22.0132 -8.9496
383 1 6.28909 18.87 22.0129 -8.94949
256 1 15.725 22.0138 15.7249 -8.95009
297 1 3.14423 22.014 18.8696 -8.94953
301 1 9.43448 22.0139 18.8695 -8.94949
351 1 22.0142 12.5795 22.0136 -8.94951
355 1 6.28914 12.5792 22.0132 -8.94948
371 1 9.43428 15.7253 22.0123 -8.94977
367 1 3.14423 15.7244 22.0133 -8.94967
357 1 9.43459 12.5793 22.0131 -8.9496
359 1 12.58 12.5796 22.0123 -8.95121
379 1 22.0138 18.8695 22.0135 -8.94954
