ITEM: TIMESTEP
29
ITEM: NUMBER OF ATOMS
688
ITEM: BOX BOUNDS pp pp pp
0.0000000000000000e+00 2.2013900999999997e+01
0.0000000000000000e+00 2.2013900999999997e+01
0.0000000000000000e+00 2.2013900999999997e+01
ITEM: ATOMS id type x y z c_pot
189 1 20.4415 4.71726 11.007 -8.94963
2 1 1.57242 1.57242 1.57242 -8.94963
448 1 20.4415 11.007 7.86211 -8.94963
4 1 4.71726 1.57242 1.57242 -8.94963
447 1 17.2966 11.0069 7.86211 -8.9496
6 1 7.86211 1.57242 1.57242 -8.94963
7 1 9.43453 1.68798e-11 7.78085e-12 -8.94963
8 1 11.007 1.57242 1.57242 -8.94963
445 1 11.0325 11.0059 7.80898 -7.9156
10 1 14.1518 1.57242 1.57242 -8.94963
443 1 4.71724 11.0069 7.8621 -8.95
12 1 17.2966 1.57242 1.57242 -8.94963
442 1 1.57242 11.007 7.86211 -8.94964
14 1 20.4415 1.57242 1.57242 -8.94963
188 1 17.2966 4.71726 11.007 -8.94963
16 1 1.57242 4.71726 1.57242 -8.94963
398 1 17.2966 11.007 4.71726 -8.94962
18 1 4.71726 4.71726 1.57242 -8.94963
394 1 4.71727 11.007 4.71727 -8.94968
20 1 7.86211 4.71726 1.57242 -8.94963
50 1 6.5961e-13 1.15663e-12 3.14484 -8.94963
22 1 11.007 4.71726 1.57242 -8.94963
183 1 1.57242 4.71726 11.007 -8.94963
24 1 14.1518 4.71726 1.57242 -8.94963
349 1 17.2966 11.007 1.57242 -8.94963
26 1 17.2966 4.71726 1.57242 -8.94963
345 1 4.71726 11.007 1.57242 -8.94963
28 1 20.4415 4.71726 1.57242 -8.94963
165 1 9.43452 6.28899 9.43453 -8.96069
30 1 1.57242 7.86211 1.57242 -8.94963
164 1 6.28971 6.28971 9.43453 -8.95078
32 1 4.71726 7.86211 1.57242 -8.94963
163 1 3.14484 6.28969 9.43453 -8.94963
34 1 7.86211 7.86211 1.57242 -8.94963
35 1 9.43453 6.28969 6.0514e-09 -8.94963
36 1 11.007 7.86211 1.57242 -8.94963
37 1 12.5794 6.28969 7.00407e-09 -8.94963
38 1 14.1518 7.86211 1.57242 -8.94963
162 1 1.05353e-09 6.28969 9.43453 -8.94963
40 1 17.2966 7.86211 1.57242 -8.94963
161 1 18.8691 3.14484 9.43453 -8.94963
42 1 20.4415 7.86211 1.57242 -8.94963
350 1 20.4415 11.007 1.57242 -8.94963
44 1 3.14484 9.43453 9.67272e-11 -8.94963
160 1 15.7242 3.14484 9.43453 -8.94963
159 1 12.5794 3.14484 9.43453 -8.94964
158 1 9.43453 3.14483 9.43453 -8.94981
48 1 15.7242 9.43453 9.91613e-09 -8.94963
157 1 6.28969 3.14484 9.43453 -8.94963
175 1 18.8691 9.43453 9.43453 -8.94964
51 1 1.57242 1.57242 4.71726 -8.94963
174 1 15.7242 9.43452 9.43453 -8.95032
53 1 4.71726 1.57242 4.71726 -8.94963
54 1 6.28969 1.89382e-10 3.14484 -8.94963
55 1 7.86211 1.57242 4.71726 -8.94963
173 1 12.5815 9.43303 9.43447 -8.96973
57 1 11.007 1.57242 4.71726 -8.94963
172 1 9.40901 9.3831 9.43446 -7.92905
59 1 14.1518 1.57242 4.71726 -8.94963
60 1 15.7242 1.84264e-10 3.14484 -8.94963
61 1 17.2966 1.57242 4.71726 -8.94963
171 1 6.28935 9.43448 9.43453 -8.95541
63 1 20.4415 1.57242 4.71726 -8.94963
64 1 22.0139 3.14484 3.14484 -8.94963
65 1 1.57242 4.71726 4.71726 -8.94963
66 1 3.14484 3.14484 3.14484 -8.94963
67 1 4.71726 4.71726 4.71726 -8.94963
68 1 6.28969 3.14484 3.14484 -8.94963
69 1 7.86211 4.71726 4.71726 -8.94965
70 1 9.43453 3.14484 3.14484 -8.94963
71 1 11.007 4.71726 4.71726 -8.94964
72 1 12.5794 3.14484 3.14484 -8.94963
73 1 14.1518 4.71726 4.71726 -8.94963
74 1 15.7242 3.14484 3.14484 -8.94963
75 1 17.2966 4.71726 4.71726 -8.94963
76 1 18.8691 3.14484 3.14484 -8.94963
77 1 20.4415 4.71726 4.71726 -8.94963
78 1 22.0139 6.28969 3.14484 -8.94963
79 1 1.57242 7.86211 4.71726 -8.94963
80 1 3.14484 6.28969 3.14484 -8.94963
81 1 4.71726 7.86211 4.71726 -8.94964
82 1 6.28969 6.28969 3.14484 -8.94963
83 1 7.8621 7.86211 4.71726 -8.94969
84 1 9.43453 6.28969 3.14484 -8.94964
85 1 11.0069 7.86213 4.71728 -8.95045
86 1 12.5794 6.28969 3.14484 -8.94966
87 1 14.1518 7.8621 4.71726 -8.94937
88 1 15.7242 6.28969 3.14484 -8.94963
89 1 17.2966 7.86211 4.71726 -8.94963
90 1 18.8691 6.28969 3.14484 -8.94963
91 1 20.4415 7.86211 4.71726 -8.94963
92 1 4.05638e-10 9.43453 3.14484 -8.94963
93 1 3.14484 9.43453 3.14484 -8.94963
94 1 6.28969 9.43453 3.14484 -8.94964
95 1 9.43452 9.43452 3.14484 -8.94955
96 1 12.5794 9.43452 3.14483 -8.94965
97 1 15.7242 9.43453 3.14484 -8.94966
98 1 18.8691 9.43453 3.14484 -8.94963
170 1 3.14484 9.43453 9.43453 -8.94972
100 1 1.57242 1.57242 7.86211 -8.94963
101 1 3.14484 1.26862e-10 6.28969 -8.94963
102 1 4.71726 1.57242 7.86211 -8.94963
169 1 22.0139 9.43453 9.43453 -8.94963
104 1 7.86211 1.57242 7.86211 -8.94963
105 1 9.43453 5.20427e-09 6.28969 -8.94963
106 1 11.007 1.57242 7.86211 -8.94963
107 1 12.5794 5.02026e-09 6.28969 -8.94963
108 1 14.1518 1.57242 7.86211 -8.94963
168 1 18.8691 6.28969 9.43453 -8.94963
110 1 17.2966 1.57242 7.86211 -8.94963
111 1 18.8691 1.19995e-10 6.28969 -8.94963
112 1 20.4415 1.57242 7.86211 -8.94963
113 1 8.63672e-11 3.14484 6.28969 -8.94963
114 1 1.57242 4.71726 7.86211 -8.94963
115 1 3.14484 3.14484 6.28969 -8.94963
116 1 4.71726 4.71726 7.86211 -8.94966
117 1 6.28969 3.14484 6.28969 -8.94963
118 1 7.8621 4.71725 7.8621 -8.94965
119 1 9.43453 3.14484 6.28969 -8.94963
120 1 11.007 4.71726 7.8621 -8.94956
121 1 12.5794 3.14484 6.28969 -8.94963
122 1 14.1518 4.71726 7.86211 -8.94964
123 1 15.7242 3.14484 6.28969 -8.94963
124 1 17.2966 4.71726 7.86211 -8.94963
125 1 18.8691 3.14484 6.28969 -8.94963
126 1 20.4415 4.71726 7.86211 -8.94963
127 1 22.0139 6.28969 6.28969 -8.94963
128 1 1.57242 7.86211 7.86211 -8.94963
129 1 3.14484 6.28969 6.28969 -8.94963
130 1 4.71726 7.86211 7.8621 -8.94974
131 1 6.28968 6.28968 6.28968 -8.94939
132 1 7.86156 7.86158 7.86155 -8.93415
133 1 9.43453 6.2897 6.28971 -8.95041
134 1 11.0072 7.86195 7.86188 -8.94502
135 1 12.5794 6.28968 6.28968 -8.94971
136 1 14.1518 7.8621 7.86209 -8.94939
137 1 15.7242 6.28969 6.28969 -8.94964
138 1 17.2966 7.86211 7.86211 -8.94963
139 1 18.8691 6.28969 6.28969 -8.94963
140 1 20.4415 7.86211 7.86211 -8.94963
141 1 22.0139 9.43453 6.28969 -8.94963
142 1 3.14484 9.43453 6.28969 -8.94963
143 1 6.28967 9.43451 6.28968 -8.94947
144 1 9.4343 9.43429 6.28952 -8.94425
145 1 12.5799 9.43395 6.28914 -8.93359
146 1 15.7242 9.43453 6.28969 -8.94983
147 1 18.8691 9.43453 6.28969 -8.94963
148 1 4.84313e-11 5.48787e-12 9.43453 -8.94963
167 1 15.7242 6.28969 9.43453 -8.94968
150 1 6.28969 3.83114e-10 9.43453 -8.94963
151 1 9.43453 2.04428e-08 9.43453 -8.94964
152 1 12.5794 2.08006e-08 9.43453 -8.94963
153 1 15.7242 1.05024e-10 9.43453 -8.94963
166 1 12.5794 6.28968 9.43453 -8.95034
155 1 22.0139 3.14484 9.43453 -8.94963
156 1 3.14484 3.14484 9.43453 -8.94963
181 1 17.2966 1.57242 11.007 -8.94963
344 1 1.57242 11.007 1.57242 -8.94963
177 1 4.71726 1.57242 11.007 -8.94963
184 1 4.71726 4.71726 11.007 -8.94966
45 1 6.28969 9.43453 2.47566e-09 -8.94963
41 1 18.8691 6.28969 9.30052e-11 -8.94963
19 1 6.28969 3.14484 1.01816e-10 -8.94963
25 1 15.7242 3.14484 5.95756e-11 -8.94963
176 1 1.57242 1.57242 11.007 -8.94963
254 1 12.5794 2.79765e-10 15.7242 -8.94963
178 1 7.86211 1.57242 11.007 -8.94963
179 1 11.007 1.57242 11.007 -8.94963
180 1 14.1518 1.57242 11.007 -8.94963
644 1 20.4415 11.007 20.4415 -8.94963
182 1 20.4415 1.57242 11.007 -8.94963
643 1 17.2966 11.007 20.4415 -8.94963
252 1 9.43453 2.90456e-10 15.7242 -8.94963
185 1 7.8621 4.71725 11.007 -8.94966
186 1 11.007 4.71726 11.007 -8.94961
187 1 14.1518 4.71726 11.007 -8.94964
642 1 14.1518 11.007 20.4415 -8.94963
641 1 11.007 11.007 20.4415 -8.94963
190 1 1.57242 7.86211 11.007 -8.94963
191 1 4.71726 7.86211 11.007 -8.94974
192 1 7.86156 7.86158 11.0075 -8.93433
193 1 11.0072 7.86178 11.0071 -8.94747
194 1 14.1518 7.86209 11.007 -8.94958
195 1 17.2966 7.86211 11.007 -8.94963
196 1 20.4415 7.86211 11.007 -8.94963
343 1 18.8691 9.43453 18.8691 -8.94963
198 1 1.57242 1.57242 14.1518 -8.94963
342 1 15.7242 9.43453 18.8691 -8.94963
200 1 4.71726 1.57242 14.1518 -8.94963
201 1 6.28969 1.63144e-09 12.5794 -8.94963
202 1 7.86211 1.57242 14.1518 -8.94963
341 1 12.5794 9.43453 18.8691 -8.94963
204 1 11.007 1.57242 14.1518 -8.94963
340 1 9.43453 9.43453 18.8691 -8.94963
206 1 14.1518 1.57242 14.1518 -8.94963
207 1 15.7242 1.65164e-09 12.5794 -8.94963
208 1 17.2966 1.57242 14.1518 -8.94963
339 1 6.28969 9.43453 18.8691 -8.94963
210 1 20.4415 1.57242 14.1518 -8.94963
211 1 8.61528e-11 3.14484 12.5794 -8.94963
212 1 1.57242 4.71726 14.1518 -8.94963
213 1 3.14484 3.14484 12.5794 -8.94963
214 1 4.71726 4.71726 14.1518 -8.94963
215 1 6.28969 3.14484 12.5794 -8.94963
216 1 7.86211 4.71726 14.1518 -8.94965
217 1 9.43453 3.14484 12.5794 -8.94963
218 1 11.007 4.71726 14.1518 -8.94964
219 1 12.5794 3.14484 12.5794 -8.94963
220 1 14.1518 4.71726 14.1518 -8.94963
221 1 15.7242 3.14484 12.5794 -8.94963
222 1 17.2966 4.71726 14.1518 -8.94963
223 1 18.8691 3.14484 12.5794 -8.94963
224 1 20.4415 4.71726 14.1518 -8.94963
225 1 22.0139 6.28969 12.5794 -8.94963
226 1 1.57242 7.86211 14.1518 -8.94963
227 1 3.14484 6.28969 12.5794 -8.94963
228 1 4.71726 7.86211 14.1518 -8.94964
229 1 6.28968 6.28968 12.5794 -8.94938
230 1 7.86211 7.86211 14.1518 -8.9498
231 1 9.43453 6.28971 12.5794 -8.95029
232 1 11.0069 7.86213 14.1518 -8.95074
233 1 12.5794 6.28968 12.5794 -8.94959
234 1 14.1518 7.8621 14.1518 -8.94947
235 1 15.7242 6.28969 12.5794 -8.94964
236 1 17.2966 7.86211 14.1518 -8.94963
237 1 18.8691 6.28969 12.5794 -8.94963
238 1 20.4415 7.86211 14.1518 -8.94963
239 1 22.0139 9.43453 12.5794 -8.94963
240 1 3.14484 9.43453 12.5794 -8.94963
241 1 6.28967 9.43451 12.5794 -8.94939
242 1 9.43436 9.43464 12.5793 -8.98775
243 1 12.5799 9.43429 12.5797 -8.97631
244 1 15.7242 9.43453 12.5794 -8.94976
245 1 18.8691 9.43453 12.5794 -8.94963
246 1 6.48408e-13 2.89248e-12 15.7242 -8.94963
247 1 1.57242 1.57242 17.2966 -8.94963
248 1 3.14484 6.53997e-11 15.7242 -8.94963
249 1 4.71726 1.57242 17.2966 -8.94963
338 1 3.14484 9.43453 18.8691 -8.94963
251 1 7.86211 1.57242 17.2966 -8.94963
337 1 22.0139 9.43453 18.8691 -8.94963
253 1 11.007 1.57242 17.2966 -8.94963
336 1 20.4415 7.86211 20.4415 -8.94963
255 1 14.1518 1.57242 17.2966 -8.94963
335 1 18.8691 6.28969 18.8691 -8.94963
257 1 17.2966 1.57242 17.2966 -8.94963
258 1 18.8691 6.57246e-11 15.7242 -8.94963
259 1 20.4415 1.57242 17.2966 -8.94963
260 1 22.0139 3.14484 15.7242 -8.94963
261 1 1.57242 4.71726 17.2966 -8.94963
262 1 3.14484 3.14484 15.7242 -8.94963
263 1 4.71726 4.71726 17.2966 -8.94963
264 1 6.28969 3.14484 15.7242 -8.94963
265 1 7.86211 4.71726 17.2966 -8.94963
266 1 9.43453 3.14484 15.7242 -8.94963
267 1 11.007 4.71726 17.2966 -8.94963
268 1 12.5794 3.14484 15.7242 -8.94963
269 1 14.1518 4.71726 17.2966 -8.94963
270 1 15.7242 3.14484 15.7242 -8.94963
271 1 17.2966 4.71726 17.2966 -8.94963
272 1 18.8691 3.14484 15.7242 -8.94963
273 1 20.4415 4.71726 17.2966 -8.94963
274 1 22.0139 6.28969 15.7242 -8.94963
275 1 1.57242 7.86211 17.2966 -8.94963
276 1 3.14484 6.28969 15.7242 -8.94963
277 1 4.71726 7.86211 17.2966 -8.94963
278 1 6.28969 6.28969 15.7242 -8.94963
279 1 7.86211 7.86211 17.2966 -8.94963
280 1 9.43453 6.28969 15.7242 -8.94963
281 1 11.007 7.86211 17.2966 -8.94963
282 1 12.5794 6.28969 15.7242 -8.94965
283 1 14.1518 7.86211 17.2966 -8.94963
284 1 15.7242 6.28969 15.7242 -8.94963
285 1 17.2966 7.86211 17.2966 -8.94963
286 1 18.8691 6.28969 15.7242 -8.94963
287 1 20.4415 7.86211 17.2966 -8.94963
288 1 3.97287e-10 9.43453 15.7242 -8.94963
289 1 3.14484 9.43453 15.7242 -8.94963
290 1 6.28969 9.43453 15.7242 -8.94963
291 1 9.43453 9.43453 15.7242 -8.94963
292 1 12.5794 9.43453 15.7242 -8.94973
293 1 15.7242 9.43453 15.7242 -8.94964
294 1 18.8691 9.43453 15.7242 -8.94963
49 1 18.8691 9.43453 22.0139 -8.94963
296 1 1.57242 1.57242 20.4415 -8.94963
334 1 17.2966 7.86211 20.4415 -8.94963
298 1 4.71726 1.57242 20.4415 -8.94963
299 1 6.28969 4.98355e-11 18.8691 -8.94963
300 1 7.86211 1.57242 20.4415 -8.94963
333 1 15.7242 6.28969 18.8691 -8.94963
302 1 11.007 1.57242 20.4415 -8.94963
332 1 14.1518 7.86211 20.4415 -8.94963
304 1 14.1518 1.57242 20.4415 -8.94963
305 1 15.7242 4.98224e-11 18.8691 -8.94963
306 1 17.2966 1.57242 20.4415 -8.94963
331 1 12.5794 6.28969 18.8691 -8.94963
308 1 20.4415 1.57242 20.4415 -8.94963
309 1 22.0139 3.14484 18.8691 -8.94963
310 1 1.57242 4.71726 20.4415 -8.94963
311 1 3.14484 3.14484 18.8691 -8.94963
312 1 4.71726 4.71726 20.4415 -8.94963
313 1 6.28969 3.14484 18.8691 -8.94963
314 1 7.86211 4.71726 20.4415 -8.94963
315 1 9.43453 3.14484 18.8691 -8.94963
316 1 11.007 4.71726 20.4415 -8.94963
317 1 12.5794 3.14484 18.8691 -8.94963
318 1 14.1518 4.71726 20.4415 -8.94963
319 1 15.7242 3.14484 18.8691 -8.94963
320 1 17.2966 4.71726 20.4415 -8.94963
321 1 18.8691 3.14484 18.8691 -8.94963
322 1 20.4415 4.71726 20.4415 -8.94963
323 1 22.0139 6.28969 18.8691 -8.94963
324 1 1.57242 7.86211 20.4415 -8.94963
325 1 3.14484 6.28969 18.8691 -8.94963
326 1 4.71726 7.86211 20.4415 -8.94963
327 1 6.28969 6.28969 18.8691 -8.94963
328 1 7.86211 7.86211 20.4415 -8.94963
329 1 9.43453 6.28969 18.8691 -8.94963
330 1 11.007 7.86211 20.4415 -8.94963
512 1 1.57242 11.007 11.007 -8.94964
513 1 4.71724 11.0069 11.007 -8.95006
515 1 11.0324 10.9972 11.0631 -8.17315
517 1 17.2966 11.0069 11.007 -8.94965
518 1 20.4415 11.007 11.007 -8.94963
540 1 1.57242 11.007 14.1518 -8.94963
541 1 4.71727 11.007 14.1518 -8.94969
542 1 7.86209 11.0069 14.1518 -8.95007
544 1 14.1518 11.0069 14.1518 -8.95045
545 1 17.2966 11.007 14.1518 -8.94963
546 1 20.4415 11.007 14.1518 -8.94963
47 1 12.5794 9.43453 22.0139 -8.94963
591 1 7.86211 11.007 17.2966 -8.94964
592 1 11.007 11.007 17.2966 -8.9497
593 1 14.1518 11.007 17.2966 -8.94963
46 1 9.43453 9.43453 22.0139 -8.94963
638 1 1.57242 11.007 20.4415 -8.94963
639 1 4.71726 11.007 20.4415 -8.94963
640 1 7.86211 11.007 20.4415 -8.94963
3 1 3.14484 4.23501e-13 22.0139 -8.94963
39 1 15.7242 6.28969 22.0139 -8.94963
9 1 12.5794 1.53716e-11 22.0139 -8.94963
33 1 6.28969 6.28969 22.0139 -8.94963
13 1 18.8691 4.14059e-13 22.0139 -8.94963
15 1 22.0139 3.14484 22.0139 -8.94963
17 1 3.14484 3.14484 22.0139 -8.94963
31 1 3.14484 6.28969 22.0139 -8.94963
23 1 12.5794 3.14484 22.0139 -8.94963
29 1 22.0139 6.28969 22.0139 -8.94963
27 1 18.8691 3.14484 22.0139 -8.94963
21 1 9.43453 3.14484 22.0139 -8.94963
43 1 22.0139 9.43453 22.0139 -8.94963
539 1 20.4415 20.4415 11.007 -8.94963
688 3 10.221 11.0076 9.43492 4.3028
346 1 7.86211 11.007 1.57242 -8.94964
347 1 11.007 11.007 1.57241 -8.94982
348 1 14.1518 11.007 1.57242 -8.94963
687 2 11.0065 12.5788 10.2206 1.02812
529 1 11.007 17.2968 11.0069 -8.9524
154 1 18.8691 22.0139 9.43453 -8.94963
352 1 1.57242 14.1518 1.57242 -8.94963
353 1 3.14484 12.5794 6.55605e-10 -8.94963
354 1 4.71726 14.1518 1.57242 -8.94963
149 1 3.14484 22.0139 9.43453 -8.94963
356 1 7.86211 14.1518 1.57242 -8.94963
393 1 1.57242 11.007 4.71726 -8.94963
358 1 11.007 14.1518 1.57242 -8.94964
399 1 20.4415 11.007 4.71726 -8.94963
360 1 14.1518 14.1518 1.57242 -8.94963
361 1 15.7242 12.5794 5.00757e-09 -8.94963
362 1 17.2966 14.1518 1.57242 -8.94963
363 1 18.8691 12.5794 -4.56818e-11 -8.94963
364 1 20.4415 14.1518 1.57242 -8.94963
109 1 15.7242 22.0139 6.28969 -8.94963
366 1 1.57242 17.2966 1.57242 -8.94963
103 1 6.28969 22.0139 6.28969 -8.94963
368 1 4.71726 17.2966 1.57242 -8.94963
369 1 6.28969 15.7242 6.96876e-10 -8.94963
370 1 7.86211 17.2966 1.57242 -8.94963
99 1 22.0139 22.0139 6.28969 -8.94963
372 1 11.007 17.2966 1.57242 -8.94963
62 1 18.8691 22.0139 3.14484 -8.94963
374 1 14.1518 17.2966 1.57242 -8.94963
375 1 15.7242 15.7242 2.43188e-10 -8.94963
376 1 17.2966 17.2966 1.57242 -8.94963
58 1 12.5794 22.0139 3.14484 -8.94963
378 1 20.4415 17.2966 1.57242 -8.94963
1 1 22.0139 22.0139 -2.5354e-14 -8.94963
380 1 1.57242 20.4415 1.57242 -8.94963
381 1 3.14484 18.8691 1.21283e-11 -8.94963
382 1 4.71726 20.4415 1.57242 -8.94963
56 1 9.43453 22.0139 3.14484 -8.94963
384 1 7.86211 20.4415 1.57242 -8.94963
385 1 9.43453 18.8691 4.01826e-10 -8.94963
386 1 11.007 20.4415 1.57242 -8.94963
387 1 12.5794 18.8691 3.01297e-10 -8.94963
388 1 14.1518 20.4415 1.57242 -8.94963
52 1 3.14484 22.0139 3.14484 -8.94963
390 1 17.2966 20.4415 1.57242 -8.94963
391 1 18.8691 18.8691 2.70878e-11 -8.94963
392 1 20.4415 20.4415 1.57242 -8.94963
511 1 18.8691 18.8691 9.43453 -8.94963
510 1 15.7242 18.8691 9.43453 -8.94963
395 1 7.86212 11.007 4.71727 -8.95048
396 1 11.007 11.007 4.71654 -8.96106
397 1 14.1518 11.007 4.7173 -8.95087
509 1 12.5794 18.8691 9.43453 -8.94958
508 1 9.43453 18.8691 9.43453 -8.94975
400 1 4.11896e-10 12.5794 3.14484 -8.94963
401 1 1.57242 14.1518 4.71726 -8.94963
402 1 3.14484 12.5794 3.14484 -8.94963
403 1 4.71726 14.1518 4.71726 -8.94963
404 1 6.28969 12.5794 3.14484 -8.94963
405 1 7.86211 14.1518 4.71726 -8.94979
406 1 9.43452 12.5794 3.14484 -8.94943
407 1 11.0069 14.1518 4.71726 -8.95089
408 1 12.5794 12.5794 3.14484 -8.94953
409 1 14.1518 14.1518 4.71726 -8.94947
410 1 15.7242 12.5794 3.14484 -8.94965
411 1 17.2966 14.1518 4.71726 -8.94963
412 1 18.8691 12.5794 3.14484 -8.94963
413 1 20.4415 14.1518 4.71726 -8.94963
414 1 22.0139 15.7242 3.14484 -8.94963
415 1 1.57242 17.2966 4.71726 -8.94963
416 1 3.14484 15.7242 3.14484 -8.94963
417 1 4.71726 17.2966 4.71726 -8.94963
418 1 6.28969 15.7242 3.14484 -8.94963
419 1 7.86211 17.2966 4.71726 -8.94964
420 1 9.43453 15.7242 3.14484 -8.94964
421 1 11.007 17.2966 4.71727 -8.94967
422 1 12.5794 15.7242 3.14484 -8.94965
423 1 14.1518 17.2966 4.71726 -8.94962
424 1 15.7242 15.7242 3.14484 -8.94963
425 1 17.2966 17.2966 4.71726 -8.94963
426 1 18.8691 15.7242 3.14484 -8.94963
427 1 20.4415 17.2966 4.71726 -8.94963
428 1 22.0139 18.8691 3.14484 -8.94963
429 1 1.57242 20.4415 4.71726 -8.94963
430 1 3.14484 18.8691 3.14484 -8.94963
431 1 4.71726 20.4415 4.71726 -8.94963
432 1 6.28969 18.8691 3.14484 -8.94963
433 1 7.86211 20.4415 4.71726 -8.94963
434 1 9.43453 18.8691 3.14484 -8.94963
435 1 11.007 20.4415 4.71726 -8.94963
436 1 12.5794 18.8691 3.14484 -8.94963
437 1 14.1518 20.4415 4.71726 -8.94963
438 1 15.7242 18.8691 3.14484 -8.94963
439 1 17.2966 20.4415 4.71726 -8.94963
440 1 18.8691 18.8691 3.14484 -8.94963
441 1 20.4415 20.4415 4.71726 -8.94963
507 1 6.28969 18.8691 9.43453 -8.94963
506 1 3.14484 18.8691 9.43453 -8.94963
444 1 7.86027 11.007 7.86072 -8.95712
505 1 22.0139 18.8691 9.43453 -8.94963
446 1 14.1518 11.007 7.86225 -8.99849
504 1 18.8691 15.7242 9.43453 -8.94963
503 1 15.7242 15.7242 9.43453 -8.94988
449 1 22.0139 12.5794 6.28969 -8.94963
450 1 1.57242 14.1518 7.86211 -8.94963
451 1 3.14484 12.5794 6.28969 -8.94964
452 1 4.71726 14.1518 7.8621 -8.94963
453 1 6.28968 12.5794 6.28968 -8.94969
454 1 7.86188 14.1523 7.86172 -8.97631
455 1 9.43459 12.5796 6.28997 -8.99155
456 1 11.0072 14.153 7.86031 -8.98096
457 1 12.5797 12.5799 6.28958 -8.98098
458 1 14.1515 14.1518 7.86227 -8.99259
459 1 15.7242 12.5794 6.28969 -8.95004
460 1 17.2966 14.1518 7.86211 -8.94951
461 1 18.8691 12.5794 6.28969 -8.94963
462 1 20.4415 14.1518 7.86211 -8.94963
463 1 22.0139 15.7242 6.28969 -8.94963
464 1 1.57242 17.2966 7.86211 -8.94963
465 1 3.14484 15.7242 6.28969 -8.94963
466 1 4.71726 17.2966 7.86211 -8.94965
467 1 6.28968 15.7242 6.28968 -8.94947
468 1 7.8621 17.2966 7.8621 -8.94967
469 1 9.43451 15.7242 6.28968 -8.95008
470 1 11.007 17.2967 7.8621 -8.9499
471 1 12.5794 15.7242 6.28966 -8.94937
472 1 14.1518 17.2966 7.86211 -8.94965
473 1 15.7242 15.7242 6.28969 -8.94973
474 1 17.2966 17.2966 7.86211 -8.94963
475 1 18.8691 15.7242 6.28969 -8.94963
476 1 20.4415 17.2966 7.86211 -8.94963
477 1 7.9845e-11 18.8691 6.28969 -8.94963
478 1 1.57242 20.4415 7.86211 -8.94963
479 1 3.14484 18.8691 6.28969 -8.94963
480 1 4.71726 20.4415 7.86211 -8.94963
481 1 6.28969 18.8691 6.28969 -8.94963
482 1 7.86211 20.4415 7.86211 -8.94963
483 1 9.43453 18.8691 6.28969 -8.94964
484 1 11.007 20.4415 7.86211 -8.94964
485 1 12.5794 18.8691 6.28969 -8.94963
486 1 14.1518 20.4415 7.86211 -8.94963
487 1 15.7242 18.8691 6.28969 -8.94963
488 1 17.2966 20.4415 7.86211 -8.94963
489 1 18.8691 18.8691 6.28969 -8.94963
490 1 20.4415 20.4415 7.86211 -8.94963
491 1 22.0139 12.5794 9.43453 -8.94963
492 1 3.14484 12.5794 9.43453 -8.94977
493 1 6.28914 12.5794 9.43455 -8.95752
494 1 9.39933 12.6306 9.42963 -8.17273
495 1 12.5916 12.5809 9.42948 -9.21147
496 1 15.7244 12.5794 9.43455 -8.95292
497 1 18.8691 12.5794 9.43453 -8.94969
498 1 7.499e-10 15.7242 9.43453 -8.94963
499 1 3.14484 15.7242 9.43453 -8.94963
500 1 6.28971 15.7242 9.43453 -8.95101
501 1 9.43457 15.7248 9.43447 -9.01687
502 1 12.5793 15.7241 9.43446 -9.00657
526 1 1.57242 17.2966 11.007 -8.94963
11 1 15.7242 22.0139 9.58988e-12 -8.94963
5 1 6.28969 22.0139 -4.63028e-13 -8.94963
527 1 4.71726 17.2966 11.007 -8.94965
532 1 20.4415 17.2966 11.007 -8.94963
534 1 4.71726 20.4415 11.007 -8.94963
538 1 17.2966 20.4415 11.007 -8.94963
365 1 22.0139 15.7242 9.33128e-12 -8.94963
686 1 20.4415 20.4415 20.4415 -8.94963
685 1 18.8691 18.8691 18.8691 -8.94963
514 1 7.86001 11.007 11.0086 -8.96968
684 1 17.2966 20.4415 20.4415 -8.94963
516 1 14.152 11.007 11.0071 -9.0114
683 1 15.7242 18.8691 18.8691 -8.94963
682 1 14.1518 20.4415 20.4415 -8.94963
519 1 1.57242 14.1518 11.007 -8.94963
520 1 4.71726 14.1518 11.007 -8.94968
521 1 7.86164 14.1523 11.0076 -8.99011
522 1 11.0071 14.162 11.0122 -9.24152
523 1 14.1517 14.1518 11.007 -9.00554
524 1 17.2966 14.1518 11.007 -8.94957
525 1 20.4415 14.1518 11.007 -8.94963
594 1 17.2966 11.007 17.2966 -8.94963
590 1 4.71726 11.007 17.2966 -8.94963
528 1 7.8621 17.2966 11.007 -8.94985
307 1 18.8691 22.0139 18.8691 -8.94963
530 1 14.1518 17.2966 11.007 -8.94984
531 1 17.2966 17.2966 11.007 -8.94963
295 1 22.0139 22.0139 18.8691 -8.94963
533 1 1.57242 20.4415 11.007 -8.94963
377 1 18.8691 15.7242 22.0139 -8.94963
535 1 7.86211 20.4415 11.007 -8.94964
536 1 11.007 20.4415 11.007 -8.94969
537 1 14.1518 20.4415 11.007 -8.94964
373 1 12.5794 15.7242 22.0139 -8.94963
303 1 12.5794 22.0139 18.8691 -8.94963
681 1 12.5794 18.8691 18.8691 -8.94963
680 1 11.007 20.4415 20.4415 -8.94963
679 1 9.43453 18.8691 18.8691 -8.94963
543 1 11.007 11.0072 14.1521 -9.007
678 1 7.86211 20.4415 20.4415 -8.94963
677 1 6.28969 18.8691 18.8691 -8.94963
676 1 4.71726 20.4415 20.4415 -8.94963
547 1 22.0139 12.5794 12.5794 -8.94963
548 1 1.57242 14.1518 14.1518 -8.94963
549 1 3.14484 12.5794 12.5794 -8.94964
550 1 4.71726 14.1518 14.1518 -8.94964
551 1 6.28965 12.5794 12.5794 -8.94973
552 1 7.86208 14.1518 14.1518 -8.94937
553 1 9.43329 12.5796 12.5811 -8.98089
554 1 11.0069 14.1515 14.1514 -8.99731
555 1 12.5809 12.5799 12.5815 -8.97094
556 1 14.1518 14.1518 14.1518 -8.94905
557 1 15.7242 12.5794 12.5794 -8.95009
558 1 17.2966 14.1518 14.1518 -8.94964
559 1 18.8691 12.5794 12.5794 -8.94964
560 1 20.4415 14.1518 14.1518 -8.94963
561 1 22.0139 15.7242 12.5794 -8.94963
562 1 1.57242 17.2966 14.1518 -8.94963
563 1 3.14484 15.7242 12.5794 -8.94963
564 1 4.71726 17.2966 14.1518 -8.94963
565 1 6.28968 15.7242 12.5794 -8.9494
566 1 7.86211 17.2966 14.1518 -8.94974
567 1 9.43457 15.7239 12.5792 -8.99365
568 1 11.007 17.2966 14.1518 -8.94994
569 1 12.5793 15.7239 12.5792 -8.99294
570 1 14.1518 17.2966 14.1518 -8.94972
571 1 15.7242 15.7242 12.5794 -8.94965
572 1 17.2966 17.2966 14.1518 -8.94963
573 1 18.8691 15.7242 12.5794 -8.94963
574 1 20.4415 17.2966 14.1518 -8.94963
575 1 7.87412e-11 18.8691 12.5794 -8.94963
576 1 1.57242 20.4415 14.1518 -8.94963
577 1 3.14484 18.8691 12.5794 -8.94963
578 1 4.71726 20.4415 14.1518 -8.94963
579 1 6.28969 18.8691 12.5794 -8.94963
580 1 7.86211 20.4415 14.1518 -8.94963
581 1 9.43453 18.8691 12.5794 -8.94951
582 1 11.007 20.4415 14.1518 -8.94963
583 1 12.5794 18.8691 12.5794 -8.94951
584 1 14.1518 20.4415 14.1518 -8.94963
585 1 15.7242 18.8691 12.5794 -8.94963
586 1 17.2966 20.4415 14.1518 -8.94963
587 1 18.8691 18.8691 12.5794 -8.94963
588 1 20.4415 20.4415 14.1518 -8.94963
589 1 1.57242 11.007 17.2966 -8.94963
675 1 3.14484 18.8691 18.8691 -8.94963
674 1 1.57242 20.4415 20.4415 -8.94963
673 1 22.0139 18.8691 18.8691 -8.94963
672 1 20.4415 17.2966 20.4415 -8.94963
671 1 18.8691 15.7242 18.8691 -8.94963
595 1 20.4415 11.007 17.2966 -8.94963
596 1 4.04287e-10 12.5794 15.7242 -8.94963
597 1 1.57242 14.1518 17.2966 -8.94963
598 1 3.14484 12.5794 15.7242 -8.94963
599 1 4.71726 14.1518 17.2966 -8.94963
600 1 6.28969 12.5794 15.7242 -8.94967
601 1 7.86211 14.1518 17.2966 -8.94963
602 1 9.43453 12.5794 15.7242 -8.95003
603 1 11.007 14.1518 17.2966 -8.94951
604 1 12.5794 12.5794 15.7242 -8.95013
605 1 14.1518 14.1518 17.2966 -8.94963
606 1 15.7242 12.5794 15.7242 -8.94969
607 1 17.2966 14.1518 17.2966 -8.94963
608 1 18.8691 12.5794 15.7242 -8.94963
609 1 20.4415 14.1518 17.2966 -8.94963
610 1 22.0139 15.7242 15.7242 -8.94963
611 1 1.57242 17.2966 17.2966 -8.94963
612 1 3.14484 15.7242 15.7242 -8.94963
613 1 4.71726 17.2966 17.2966 -8.94963
614 1 6.28969 15.7242 15.7242 -8.94962
615 1 7.86211 17.2966 17.2966 -8.94963
616 1 9.43453 15.7242 15.7242 -8.94971
617 1 11.007 17.2966 17.2966 -8.94962
618 1 12.5794 15.7242 15.7242 -8.94973
619 1 14.1518 17.2966 17.2966 -8.94963
620 1 15.7242 15.7242 15.7242 -8.94961
621 1 17.2966 17.2966 17.2966 -8.94963
622 1 18.8691 15.7242 15.7242 -8.94963
623 1 20.4415 17.2966 17.2966 -8.94963
624 1 22.0139 18.8691 15.7242 -8.94963
625 1 1.57242 20.4415 17.2966 -8.94963
626 1 3.14484 18.8691 15.7242 -8.94963
627 1 4.71726 20.4415 17.2966 -8.94963
628 1 6.28969 18.8691 15.7242 -8.94963
629 1 7.86211 20.4415 17.2966 -8.94963
630 1 9.43453 18.8691 15.7242 -8.94963
631 1 11.007 20.4415 17.2966 -8.94963
632 1 12.5794 18.8691 15.7242 -8.94963
633 1 14.1518 20.4415 17.2966 -8.94963
634 1 15.7242 18.8691 15.7242 -8.94963
635 1 17.2966 20.4415 17.2966 -8.94963
636 1 18.8691 18.8691 15.7242 -8.94963
637 1 20.4415 20.4415 17.2966 -8.94963
670 1 17.2966 17.2966 20.4415 -8.94963
669 1 15.7242 15.7242 18.8691 -8.94963
668 1 14.1518 17.2966 20.4415 -8.94963
667 1 12.5794 15.7242 18.8691 -8.94963
666 1 11.007 17.2966 20.4415 -8.94963
665 1 9.43453 15.7242 18.8691 -8.94963
664 1 7.86211 17.2966 20.4415 -8.94963
645 1 22.0139 12.5794 18.8691 -8.94963
646 1 1.57242 14.1518 20.4415 -8.94963
647 1 3.14484 12.5794 18.8691 -8.94963
648 1 4.71726 14.1518 20.4415 -8.94963
649 1 6.28969 12.5794 18.8691 -8.94963
650 1 7.86211 14.1518 20.4415 -8.94963
651 1 9.43453 12.5794 18.8691 -8.94964
652 1 11.007 14.1518 20.4415 -8.94963
653 1 12.5794 12.5794 18.8691 -8.94964
654 1 14.1518 14.1518 20.4415 -8.94963
655 1 15.7242 12.5794 18.8691 -8.94963
656 1 17.2966 14.1518 20.4415 -8.94963
657 1 18.8691 12.5794 18.8691 -8.94963
658 1 20.4415 14.1518 20.4415 -8.94963
659 1 22.0139 15.7242 18.8691 -8.94963
660 1 1.57242 17.2966 20.4415 -8.94963
661 1 3.14484 15.7242 18.8691 -8.94963
662 1 4.71726 17.2966 20.4415 -8.94963
663 1 6.28969 15.7242 18.8691 -8.94963
197 1 22.0139 22.0139 12.5794 -8.94963
199 1 3.14484 22.0139 12.5794 -8.94963
203 1 9.43453 22.0139 12.5794 -8.94963
205 1 12.5794 22.0139 12.5794 -8.94963
209 1 18.8691 22.0139 12.5794 -8.94963
250 1 6.28969 22.0139 15.7242 -8.94963
389 1 15.7242 18.8691 22.0139 -8.94963
383 1 6.28969 18.8691 22.0139 -8.94963
256 1 15.7242 22.0139 15.7242 -8.94963
297 1 3.14484 22.0139 18.8691 -8.94963
301 1 9.43453 22.0139 18.8691 -8.94963
351 1 22.0139 12.5794 22.0139 -8.94963
355 1 6.28969 12.5794 22.0139 -8.94963
371 1 9.43453 15.7242 22.0139 -8.94963
367 1 3.14484 15.7242 22.0139 -8.94963
357 1 9.43453 12.5794 22.0139 -8.94963
359 1 12.5794 12.5794 22.0139 -8.94963
379 1 22.0139 18.8691 22.0139 -8.94963
