ITEM: TIMESTEP
70
ITEM: NUMBER OF ATOMS
688
ITEM: BOX BOUNDS pp pp pp
0.0000000000000000e+00 2.2013900999999997e+01
0.0000000000000000e+00 2.2013900999999997e+01
0.0000000000000000e+00 2.2013900999999997e+01
ITEM: ATOMS id type x y z c_pot
189 1 20.4415 4.71665 11.007 -8.94955
2 1 1.57199 1.57221 1.572 -8.94924
448 1 20.4428 11.0067 7.8619 -8.94967
4 1 4.71692 1.57212 1.57188 -8.94964
447 1 17.3015 11.0057 7.86119 -8.94996
6 1 7.86198 1.57209 1.57187 -8.94948
7 1 9.43451 3.83492e-05 -0.000252441 -8.94957
8 1 11.007 1.57206 1.57188 -8.94952
445 1 11.0792 11.0011 7.6207 -8.15798
10 1 14.152 1.57204 1.57196 -8.94949
443 1 4.71897 11.0071 7.86254 -8.94288
12 1 17.2971 1.57199 1.57199 -8.94949
442 1 1.57211 11.0069 7.86179 -8.94806
14 1 20.4415 1.57225 1.57225 -8.9496
188 1 17.2976 4.71615 11.0069 -8.94895
16 1 1.57208 4.717 1.57193 -8.94976
398 1 17.301 11.007 4.71478 -8.94934
18 1 4.71613 4.71623 1.57084 -8.94934
394 1 4.71547 11.0066 4.71534 -8.94627
20 1 7.86167 4.71627 1.57112 -8.94915
50 1 -0.000226854 5.29983e-05 3.14464 -8.94958
22 1 11.007 4.71612 1.57115 -8.9494
183 1 1.57097 4.71629 11.0073 -8.94932
24 1 14.1524 4.71597 1.57111 -8.94959
349 1 17.2981 11.007 1.5711 -8.94947
26 1 17.298 4.71589 1.57122 -8.9482
345 1 4.71659 11.0068 1.57154 -8.94956
28 1 20.4419 4.71684 1.57201 -8.94951
165 1 9.43029 6.29172 9.43418 -8.9951
30 1 1.57219 7.86203 1.57199 -8.94944
164 1 6.28001 6.28037 9.43437 -8.94226
32 1 4.71673 7.86219 1.57162 -8.94967
163 1 3.14082 6.2875 9.43448 -8.94914
34 1 7.86158 7.86165 1.57013 -8.9523
35 1 9.43418 6.28892 -0.000916892 -8.94957
36 1 11.0068 7.86085 1.56952 -8.95045
37 1 12.5795 6.28885 -0.00100415 -8.94964
38 1 14.1536 7.8604 1.56869 -8.95158
162 1 -0.000843135 6.28901 9.4345 -8.94991
40 1 17.2981 7.86133 1.57106 -8.94935
161 1 18.8694 3.1443 9.4345 -8.94957
42 1 20.442 7.86187 1.57194 -8.9495
350 1 20.442 11.0069 1.57191 -8.94952
44 1 3.14448 9.43448 -0.000299045 -8.94953
160 1 15.725 3.1439 9.43445 -8.94963
159 1 12.5797 3.14453 9.43441 -8.94808
158 1 9.43434 3.14378 9.43441 -8.94688
48 1 15.7253 9.43416 -0.00109377 -8.94949
157 1 6.2874 3.14136 9.43448 -8.94952
175 1 18.8702 9.43387 9.43444 -8.94739
51 1 1.57187 1.57215 4.7169 -8.94952
174 1 15.7232 9.43464 9.4345 -8.93971
53 1 4.7163 1.57157 4.71628 -8.94996
54 1 6.28941 0.000154169 3.14415 -8.94961
55 1 7.86194 1.57159 4.71642 -8.94974
173 1 12.5582 9.44686 9.43363 -8.96333
57 1 11.0073 1.57158 4.71645 -8.94967
172 1 9.36789 9.2357 9.43266 -8.23675
59 1 14.1523 1.57151 4.7168 -8.9506
60 1 15.7247 4.16994e-05 3.14441 -8.95
61 1 17.297 1.57216 4.71717 -8.94971
171 1 6.28257 9.42798 9.43476 -8.96901
63 1 20.4415 1.57226 4.71714 -8.94954
64 1 22.0136 3.14449 3.14447 -8.94958
65 1 1.57108 4.71642 4.71638 -8.94969
66 1 3.14359 3.14381 3.1436 -8.94842
67 1 4.71343 4.71362 4.71354 -8.94534
68 1 6.28901 3.14362 3.1436 -8.94968
69 1 7.86083 4.71375 4.71471 -8.94943
70 1 9.43443 3.14359 3.1437 -8.94935
71 1 11.0074 4.71389 4.71476 -8.94796
72 1 12.5798 3.14349 3.14379 -8.94917
73 1 14.1546 4.7126 4.71456 -8.95004
74 1 15.7254 3.14318 3.14376 -8.94946
75 1 17.2978 4.71608 4.71684 -8.95039
76 1 18.8695 3.14434 3.14457 -8.94983
77 1 20.4415 4.7168 4.71702 -8.94984
78 1 22.014 6.28939 3.14437 -8.94982
79 1 1.57173 7.86203 4.71667 -8.94995
80 1 3.1437 6.28923 3.14374 -8.95016
81 1 4.7146 7.86147 4.71533 -8.95102
82 1 6.28676 6.28691 3.14041 -8.94938
83 1 7.85544 7.85479 4.70688 -8.95065
84 1 9.43386 6.28713 3.14162 -8.9477
85 1 11.0079 7.85621 4.70815 -8.94958
86 1 12.5806 6.28682 3.14121 -8.94891
87 1 14.165 7.84959 4.70432 -8.92905
88 1 15.7285 6.28544 3.1407 -8.94437
89 1 17.3013 7.8596 4.71477 -8.95031
90 1 18.8707 6.28859 3.14379 -8.94951
91 1 20.4426 7.86156 4.71663 -8.95014
92 1 0.000117759 9.4344 3.14425 -8.94953
93 1 3.14404 9.43445 3.14393 -8.94895
94 1 6.28905 9.43491 3.14363 -8.94918
95 1 9.43505 9.43405 3.14244 -8.95285
96 1 12.5824 9.43289 3.13652 -8.95945
97 1 15.7279 9.43316 3.141 -8.94819
98 1 18.8707 9.43416 3.14372 -8.9494
170 1 3.14258 9.43476 9.43452 -8.95093
100 1 1.57181 1.57211 7.86197 -8.94953
101 1 3.14405 0.000159143 6.28928 -8.94941
102 1 4.7161 1.57149 7.8617 -8.9494
169 1 22.0136 9.43443 9.43449 -8.94941
104 1 7.86177 1.57115 7.86184 -8.95133
105 1 9.43475 0.00036456 6.2891 -8.95028
106 1 11.0071 1.572 7.86209 -8.94942
107 1 12.5797 0.000200303 6.28946 -8.95035
108 1 14.1523 1.57215 7.8621 -8.94944
168 1 18.87 6.28866 9.43445 -8.94949
110 1 17.2971 1.57211 7.86205 -8.94956
111 1 18.8693 5.34045e-05 6.2896 -8.94958
112 1 20.4415 1.57223 7.86205 -8.94958
113 1 -0.000413551 3.14441 6.28946 -8.94947
114 1 1.57096 4.71629 7.86175 -8.94932
115 1 3.14348 3.1437 6.28897 -8.94924
116 1 4.71375 4.71389 7.86082 -8.94776
117 1 6.28797 3.14157 6.28811 -8.95132
118 1 7.8592 4.70964 7.8608 -8.95823
119 1 9.4347 3.1422 6.28861 -8.95067
120 1 11.0066 4.7154 7.8619 -8.95118
121 1 12.5799 3.14254 6.28925 -8.9524
122 1 14.1524 4.71613 7.86274 -8.94922
123 1 15.7248 3.14403 6.28978 -8.94969
124 1 17.2976 4.71618 7.86203 -8.94891
125 1 18.8694 3.14438 6.28959 -8.94942
126 1 20.4415 4.71666 7.86198 -8.94954
127 1 22.0132 6.28919 6.28933 -8.95011
128 1 1.57028 7.8617 7.86183 -8.95142
129 1 3.14104 6.28783 6.28788 -8.95075
130 1 4.70825 7.85863 7.86 -8.95706
131 1 6.27817 6.2783 6.27914 -8.93344
132 1 7.82667 7.8284 7.83375 -8.87335
133 1 9.43369 6.2808 6.28489 -8.95209
134 1 11.02 7.85511 7.84009 -8.9129
135 1 12.5852 6.27899 6.28329 -8.95436
136 1 14.1552 7.86034 7.86443 -8.95409
137 1 15.7266 6.28758 6.28943 -8.95184
138 1 17.2985 7.86106 7.86266 -8.94988
139 1 18.8699 6.28897 6.28964 -8.94986
140 1 20.4418 7.86162 7.86207 -8.94978
141 1 22.0141 9.43441 6.28926 -8.95001
142 1 3.14324 9.435 6.28908 -8.95037
143 1 6.28496 9.43471 6.28753 -8.95177
144 1 9.41866 9.40845 6.27795 -8.89828
145 1 12.6207 9.39903 6.2517 -8.85022
146 1 15.7358 9.43043 6.28449 -8.95647
147 1 18.8722 9.43372 6.28881 -8.95154
148 1 -0.000265855 6.04587e-05 9.43453 -8.94957
167 1 15.7262 6.28743 9.43428 -8.94594
150 1 6.28878 0.000395977 9.43451 -8.95028
151 1 9.43461 0.000687528 9.43437 -8.94881
152 1 12.5799 0.000546323 9.43437 -8.94928
153 1 15.7247 0.000121307 9.4345 -8.94967
166 1 12.5775 6.29183 9.43425 -8.94399
155 1 22.0135 3.14437 9.43452 -8.94953
156 1 3.1434 3.14365 9.43452 -8.94949
181 1 17.2971 1.5721 11.007 -8.94956
344 1 1.57215 11.0069 1.57192 -8.94957
177 1 4.71611 1.57147 11.0073 -8.9494
184 1 4.71374 4.71388 11.0082 -8.94783
45 1 6.28929 9.43459 -0.000401055 -8.94945
41 1 18.8696 6.2893 -0.0003425 -8.94953
19 1 6.28945 3.14444 -0.000388533 -8.9495
25 1 15.7245 3.14431 -0.000353803 -8.94963
176 1 1.57181 1.57211 11.0071 -8.94952
254 1 12.5797 1.29382e-05 15.7249 -8.94947
178 1 7.86179 1.57109 11.0071 -8.95124
179 1 11.0071 1.57207 11.0068 -8.9499
180 1 14.1523 1.57207 11.0068 -8.94938
644 1 20.4418 11.0069 20.4415 -8.94957
182 1 20.4415 1.57223 11.007 -8.94958
643 1 17.2974 11.007 20.4416 -8.94949
252 1 9.43456 4.0092e-05 15.7249 -8.94949
185 1 7.85917 4.70961 11.008 -8.95801
186 1 11.0066 4.71487 11.007 -8.95181
187 1 14.1525 4.71597 11.006 -8.94907
642 1 14.1525 11.007 20.4417 -8.95041
641 1 11.0067 11.0069 20.4416 -8.94849
190 1 1.57025 7.86167 11.0072 -8.95147
191 1 4.70805 7.8585 11.009 -8.95674
192 1 7.82658 7.82871 11.0341 -8.87153
193 1 11.0198 7.85273 11.0286 -8.92653
194 1 14.1559 7.86004 11.0036 -8.95174
195 1 17.2988 7.86092 11.0062 -8.94967
196 1 20.4419 7.86159 11.0069 -8.94983
343 1 18.8698 9.43437 18.8696 -8.94951
198 1 1.57187 1.57214 14.1521 -8.94951
342 1 15.7255 9.43408 18.8705 -8.94945
200 1 4.7163 1.57153 14.1527 -8.94997
201 1 6.28908 0.000327217 12.58 -8.95061
202 1 7.86183 1.57154 14.1527 -8.9498
341 1 12.5795 9.43433 18.871 -8.95157
204 1 11.0072 1.57148 14.1526 -8.94959
340 1 9.43436 9.43455 18.8699 -8.94966
206 1 14.1524 1.57143 14.1523 -8.95069
207 1 15.7246 9.86834e-05 12.5794 -8.94957
208 1 17.297 1.57211 14.1518 -8.94974
339 1 6.2892 9.43454 18.8697 -8.94939
210 1 20.4415 1.57225 14.1519 -8.94954
211 1 -0.000406915 3.1444 12.5796 -8.94948
212 1 1.57108 4.7164 14.1527 -8.94966
213 1 3.14348 3.14368 12.5801 -8.94925
214 1 4.71342 4.71363 14.1554 -8.94544
215 1 6.28796 3.14155 12.5808 -8.95123
216 1 7.86056 4.71334 14.1545 -8.94966
217 1 9.43461 3.14197 12.5804 -8.9509
218 1 11.0074 4.71351 14.1544 -8.94788
219 1 12.5799 3.14225 12.5798 -8.9527
220 1 14.155 4.71198 14.1547 -8.95041
221 1 15.7248 3.14394 12.5792 -8.94964
222 1 17.2979 4.71597 14.1522 -8.95043
223 1 18.8694 3.14435 12.5794 -8.94942
224 1 20.4416 4.71676 14.152 -8.94981
225 1 22.0132 6.28916 12.5797 -8.95011
226 1 1.57171 7.86202 14.1524 -8.95002
227 1 3.14098 6.28779 12.5811 -8.95062
228 1 4.71436 7.86149 14.1536 -8.95168
229 1 6.27815 6.27844 12.5896 -8.93352
230 1 7.85366 7.85313 14.1635 -8.9478
231 1 9.43316 6.27969 12.5842 -8.95298
232 1 11.0079 7.85522 14.1614 -8.94957
233 1 12.5858 6.27758 12.586 -8.95567
234 1 14.1676 7.84705 14.167 -8.92437
235 1 15.727 6.28739 12.5794 -8.95171
236 1 17.3019 7.85936 14.1544 -8.95087
237 1 18.8701 6.2889 12.5794 -8.94979
238 1 20.4427 7.86152 14.1524 -8.95023
239 1 22.0141 9.4344 12.5797 -8.95005
240 1 3.14316 9.43507 12.5798 -8.95054
241 1 6.28444 9.43538 12.5807 -8.95531
242 1 9.41111 9.40346 12.5948 -8.92936
243 1 12.6303 9.39244 12.6231 -8.86269
244 1 15.7375 9.43053 12.5844 -8.95921
245 1 18.8726 9.43373 12.5801 -8.95188
246 1 -0.000218183 4.57052e-05 15.7244 -8.94958
247 1 1.57199 1.5722 17.2971 -8.94926
248 1 3.14418 0.000127309 15.7249 -8.94955
249 1 4.71686 1.57209 17.2972 -8.94961
338 1 3.14444 9.43446 18.8694 -8.94953
251 1 7.86197 1.57205 17.2972 -8.94947
337 1 22.014 9.43446 18.8693 -8.94956
253 1 11.007 1.57201 17.2972 -8.94951
336 1 20.4418 7.86198 20.4415 -8.94957
255 1 14.152 1.57198 17.2972 -8.94948
335 1 18.8697 6.28925 18.8695 -8.94948
257 1 17.2972 1.57194 17.2971 -8.94946
258 1 18.8692 4.05084e-05 15.7243 -8.94972
259 1 20.4415 1.57224 17.2968 -8.94962
260 1 22.0136 3.14447 15.7246 -8.94957
261 1 1.57207 4.71697 17.2972 -8.9498
262 1 3.14359 3.14379 15.7254 -8.94847
263 1 4.716 4.7161 17.2984 -8.94915
264 1 6.28889 3.14349 15.7255 -8.9497
265 1 7.86163 4.71619 17.298 -8.94912
266 1 9.43439 3.14347 15.7254 -8.94929
267 1 11.0069 4.71602 17.298 -8.94935
268 1 12.5798 3.14334 15.7254 -8.94912
269 1 14.1525 4.71583 17.2981 -8.94956
270 1 15.7255 3.14297 15.7254 -8.94951
271 1 17.2982 4.71567 17.2981 -8.9479
272 1 18.8695 3.1443 15.7245 -8.94986
273 1 20.442 4.71679 17.2971 -8.94953
274 1 22.014 6.28936 15.7247 -8.94987
275 1 1.57216 7.86199 17.2971 -8.94942
276 1 3.14362 6.28919 15.7253 -8.9503
277 1 4.71659 7.86209 17.2976 -8.94951
278 1 6.28626 6.28642 15.729 -8.94867
279 1 7.86145 7.86153 17.2992 -8.9526
280 1 9.43375 6.28687 15.7276 -8.94749
281 1 11.0067 7.8607 17.2997 -8.9504
282 1 12.5807 6.28644 15.7281 -8.94868
283 1 14.1538 7.86017 17.3009 -8.95199
284 1 15.7293 6.28463 15.7291 -8.94324
285 1 17.2984 7.86112 17.2983 -8.94907
286 1 18.8709 6.28846 15.7254 -8.94962
287 1 20.4421 7.86181 17.2972 -8.94946
288 1 0.000172528 9.43436 15.7249 -8.94958
289 1 3.14386 9.43439 15.7252 -8.94894
290 1 6.28851 9.43462 15.7258 -8.94837
291 1 9.43476 9.43383 15.7271 -8.95377
292 1 12.5828 9.43254 15.7336 -8.96061
293 1 15.729 9.43257 15.7289 -8.94694
294 1 18.8711 9.43401 15.7255 -8.94933
49 1 18.8697 9.4344 22.0135 -8.94953
296 1 1.57223 1.57226 20.4415 -8.94941
334 1 17.2974 7.86171 20.4416 -8.94944
298 1 4.71711 1.57227 20.4415 -8.94959
299 1 6.28957 2.3446e-05 18.8693 -8.94957
300 1 7.86202 1.57222 20.4415 -8.94956
333 1 15.7252 6.28859 18.8704 -8.95008
302 1 11.007 1.5722 20.4415 -8.94957
332 1 14.1522 7.86157 20.4416 -8.95073
304 1 14.1519 1.57221 20.4415 -8.94955
305 1 15.7244 -7.00163e-07 18.8693 -8.94959
306 1 17.2968 1.57221 20.4415 -8.94963
331 1 12.5795 6.2888 18.8702 -8.94963
308 1 20.4416 1.57229 20.4415 -8.9493
309 1 22.0139 3.14466 18.8693 -8.94957
310 1 1.57231 4.71717 20.4415 -8.94969
311 1 3.14438 3.14442 18.8695 -8.94941
312 1 4.71683 4.71689 20.4415 -8.94998
313 1 6.28943 3.14441 18.8695 -8.94951
314 1 7.86183 4.71674 20.4415 -8.9495
315 1 9.43443 3.14431 18.8695 -8.94952
316 1 11.0069 4.71663 20.4415 -8.94954
317 1 12.5795 3.14429 18.8695 -8.94949
318 1 14.152 4.71663 20.4415 -8.94957
319 1 15.7246 3.14427 18.8695 -8.94964
320 1 17.2973 4.7166 20.4416 -8.94955
321 1 18.8696 3.14435 18.8694 -8.94911
322 1 20.4417 4.71706 20.4415 -8.94956
323 1 22.014 6.28955 18.8693 -8.94953
324 1 1.57228 7.86204 20.4415 -8.94954
325 1 3.14453 6.28961 18.8694 -8.94968
326 1 4.71692 7.86209 20.4415 -8.94954
327 1 6.28911 6.28922 18.8701 -8.95062
328 1 7.86184 7.86201 20.4416 -8.95041
329 1 9.43417 6.28888 18.8701 -8.94955
330 1 11.0067 7.86163 20.4415 -8.95025
512 1 1.57213 11.0069 11.0072 -8.94791
513 1 4.71924 11.0073 11.0061 -8.94152
515 1 11.0871 10.969 11.2793 -8.34254
517 1 17.3019 11.0059 11.0074 -8.94986
518 1 20.4429 11.0067 11.007 -8.94963
540 1 1.57167 11.0068 14.1527 -8.94962
541 1 4.71491 11.0066 14.1539 -8.94657
542 1 7.86144 11.0061 14.1529 -8.94365
544 1 14.1652 11.006 14.1646 -8.93984
545 1 17.3021 11.0068 14.1548 -8.94931
546 1 20.4429 11.0069 14.1526 -8.95003
47 1 12.5795 9.43437 22.0123 -8.95147
591 1 7.86158 11.0068 17.2977 -8.94886
592 1 11.0071 11.0067 17.2979 -8.94602
593 1 14.1544 11.0069 17.3011 -8.94999
46 1 9.43438 9.43458 22.0133 -8.94966
638 1 1.57225 11.0069 20.4415 -8.94959
639 1 4.71682 11.0069 20.4415 -8.94964
640 1 7.86174 11.0069 20.4416 -8.94941
3 1 3.14463 4.41654e-05 22.0137 -8.94962
39 1 15.7252 6.28869 22.0128 -8.95002
9 1 12.5795 3.14559e-05 22.0137 -8.94956
33 1 6.28916 6.28928 22.013 -8.95058
13 1 18.8693 1.06291e-05 22.0137 -8.94945
15 1 22.0139 3.14467 22.0137 -8.94956
17 1 3.14441 3.14445 22.0135 -8.94947
31 1 3.14456 6.28963 22.0136 -8.94971
23 1 12.5795 3.14432 22.0135 -8.9495
29 1 22.014 6.28957 22.0137 -8.94955
27 1 18.8695 3.1444 22.0136 -8.94919
21 1 9.43444 3.14434 22.0135 -8.94953
43 1 22.014 9.43447 22.0137 -8.94957
539 1 20.4415 20.4418 11.007 -8.94958
688 3 10.256 11.0496 9.45226 2.22216
346 1 7.86182 11.0069 1.57182 -8.94862
347 1 11.0071 11.0069 1.57148 -8.94638
348 1 14.154 11.007 1.56876 -8.94968
687 2 10.935 12.4748 10.2019 0.368494
529 1 11.0062 17.3067 11.0069 -8.96141
154 1 18.8693 22.014 9.43452 -8.94959
352 1 1.57215 14.1518 1.57195 -8.94943
353 1 3.14447 12.5794 -0.000318222 -8.94955
354 1 4.71667 14.1516 1.57148 -8.94954
149 1 3.144 22.0141 9.43453 -8.94947
356 1 7.86165 14.1521 1.5697 -8.95298
393 1 1.57174 11.0068 4.71638 -8.94946
358 1 11.0068 14.1528 1.56959 -8.95062
399 1 20.4426 11.0069 4.71651 -8.94987
360 1 14.1534 14.1533 1.56898 -8.95159
361 1 15.7253 12.5798 -0.0010442 -8.9494
362 1 17.298 14.1525 1.57115 -8.94923
363 1 18.8697 12.5795 -0.000354879 -8.94952
364 1 20.4419 14.152 1.57194 -8.94946
109 1 15.7247 22.0141 6.28956 -8.94952
366 1 1.57201 17.2969 1.57188 -8.94984
103 1 6.28903 22.0144 6.28899 -8.95061
368 1 4.71595 17.2978 1.57047 -8.9495
369 1 6.28914 15.7246 -0.0010979 -8.9508
370 1 7.86169 17.2977 1.57075 -8.9492
99 1 22.0136 22.014 6.28956 -8.94957
372 1 11.0071 17.2979 1.57088 -8.94936
62 1 18.8692 22.0139 3.14471 -8.94968
374 1 14.1525 17.2979 1.57104 -8.94967
375 1 15.7251 15.7251 -0.00100728 -8.95009
376 1 17.2979 17.2979 1.57122 -8.94837
58 1 12.5797 22.014 3.14422 -8.9495
378 1 20.4419 17.297 1.57201 -8.94959
1 1 22.0138 22.0139 -0.000133074 -8.94931
380 1 1.57192 20.4418 1.57191 -8.94909
381 1 3.14433 18.8695 -0.000510791 -8.94949
382 1 4.71687 20.442 1.57178 -8.94962
56 1 9.43457 22.014 3.14413 -8.94953
384 1 7.86199 20.442 1.57178 -8.94948
385 1 9.43448 18.8696 -0.000494546 -8.94953
386 1 11.0071 20.442 1.5718 -8.94952
387 1 12.5795 18.8696 -0.000453694 -8.94949
388 1 14.1521 20.4419 1.57191 -8.94946
52 1 3.14418 22.0141 3.14416 -8.94951
390 1 17.2971 20.4419 1.57196 -8.94949
391 1 18.8695 18.8695 -0.000264669 -8.94923
392 1 20.4415 20.4417 1.57221 -8.94956
511 1 18.8695 18.8697 9.43451 -8.94958
510 1 15.7251 18.8702 9.43449 -8.94957
395 1 7.86346 11.0066 4.71759 -8.94713
396 1 11.012 11.0066 4.72055 -9.00528
397 1 14.1618 11.0071 4.70736 -8.94471
509 1 12.5803 18.8711 9.43375 -8.94748
508 1 9.43367 18.8723 9.43378 -8.94563
400 1 8.34458e-05 12.5794 3.14424 -8.94955
401 1 1.57154 14.1517 4.71657 -8.94973
402 1 3.14397 12.5792 3.14385 -8.94903
403 1 4.71441 14.1519 4.71501 -8.95109
404 1 6.28885 12.5786 3.14337 -8.94868
405 1 7.8553 14.159 4.70434 -8.95562
406 1 9.43506 12.5793 3.14269 -8.95165
407 1 11.0076 14.1567 4.70806 -8.95201
408 1 12.5822 12.5806 3.13754 -8.95791
409 1 14.164 14.1631 4.70517 -8.93242
410 1 15.7278 12.5807 3.14132 -8.9474
411 1 17.3007 14.1537 4.71512 -8.95111
412 1 18.8706 12.5797 3.14375 -8.94928
413 1 20.4424 14.1522 4.71667 -8.95012
414 1 22.0139 15.7244 3.14434 -8.9498
415 1 1.5707 17.2977 4.7161 -8.9498
416 1 3.14357 15.7246 3.14359 -8.95029
417 1 4.71203 17.3016 4.7121 -8.94303
418 1 6.28641 15.7272 3.13934 -8.95026
419 1 7.86046 17.3011 4.71347 -8.9487
420 1 9.4341 15.7269 3.14078 -8.94816
421 1 11.0078 17.3005 4.714 -8.94673
422 1 12.5806 15.7268 3.14115 -8.94934
423 1 14.1548 17.3013 4.71422 -8.94975
424 1 15.7282 15.7281 3.14081 -8.94517
425 1 17.298 17.298 4.71654 -8.94991
426 1 18.8705 15.7252 3.14385 -8.94977
427 1 20.4416 17.2972 4.71683 -8.94977
428 1 22.0135 18.8695 3.14435 -8.94952
429 1 1.57178 20.4419 4.71684 -8.94952
430 1 3.14322 18.8705 3.1432 -8.94784
431 1 4.71607 20.443 4.71604 -8.94992
432 1 6.28884 18.8707 3.14319 -8.94954
433 1 7.86189 20.4429 4.71619 -8.94971
434 1 9.43451 18.8706 3.14338 -8.94929
435 1 11.0074 20.4427 4.71627 -8.94956
436 1 12.5799 18.8706 3.14358 -8.94895
437 1 14.1524 20.4426 4.7167 -8.95061
438 1 15.7254 18.8707 3.14365 -8.94942
439 1 17.297 20.4419 4.71708 -8.94964
440 1 18.8695 18.8696 3.14447 -8.94972
441 1 20.4415 20.4417 4.71711 -8.94956
507 1 6.28679 18.8738 9.43452 -8.94951
506 1 3.14307 18.8706 9.43454 -8.9494
444 1 7.87818 10.9999 7.86341 -8.95503
505 1 22.0134 18.8697 9.43452 -8.94952
446 1 14.1635 11.0014 7.85041 -9.00243
504 1 18.8703 15.7253 9.43446 -8.94925
503 1 15.7268 15.7262 9.43437 -8.94654
449 1 22.0139 12.5793 6.28923 -8.94987
450 1 1.56994 14.1521 7.86176 -8.95211
451 1 3.14297 12.5786 6.2888 -8.94978
452 1 4.70598 14.1559 7.85929 -8.96043
453 1 6.28492 12.5771 6.28739 -8.95198
454 1 7.81426 14.2 7.81721 -8.85579
455 1 9.41798 12.6032 6.28029 -8.9556
456 1 11.0177 14.1622 7.83486 -8.95565
457 1 12.6176 12.6126 6.25711 -8.90344
458 1 14.158 14.157 7.86162 -8.97578
459 1 15.7342 12.5818 6.2864 -8.95843
460 1 17.3003 14.1535 7.86154 -8.94838
461 1 18.8718 12.5796 6.28908 -8.9512
462 1 20.4422 14.1523 7.86186 -8.95008
463 1 22.0131 15.7248 6.28916 -8.95035
464 1 1.57062 17.2978 7.86169 -8.94927
465 1 3.13993 15.7265 6.28732 -8.95157
466 1 4.71269 17.301 7.86048 -8.94735
467 1 6.27352 15.7401 6.27427 -8.92352
468 1 7.85773 17.3081 7.85923 -8.96049
469 1 9.43353 15.7358 6.28147 -8.94802
470 1 11.0061 17.2997 7.86154 -8.95168
471 1 12.5854 15.7354 6.2822 -8.95363
472 1 14.1531 17.2991 7.86194 -8.94926
473 1 15.7275 15.727 6.28841 -8.95006
474 1 17.2978 17.2979 7.86195 -8.94938
475 1 18.8704 15.7252 6.28919 -8.94953
476 1 20.4415 17.2973 7.86194 -8.94955
477 1 -0.000509936 18.8696 6.28941 -8.94947
478 1 1.57172 20.442 7.86196 -8.94951
479 1 3.14311 18.8706 6.28878 -8.94918
480 1 4.7159 20.443 7.86165 -8.94937
481 1 6.28724 18.8739 6.28733 -8.95158
482 1 7.86152 20.4442 7.86158 -8.95166
483 1 9.43475 18.8728 6.28795 -8.95086
484 1 11.0072 20.4428 7.86197 -8.94924
485 1 12.5799 18.8718 6.28897 -8.9526
486 1 14.1525 20.4425 7.86187 -8.94937
487 1 15.725 18.8703 6.28946 -8.9495
488 1 17.2971 20.4419 7.86204 -8.94962
489 1 18.8694 18.8696 6.28953 -8.94954
490 1 20.4415 20.4418 7.86204 -8.94958
491 1 22.0139 12.5793 9.43449 -8.94974
492 1 3.14285 12.5791 9.43447 -8.94956
493 1 6.28593 12.5882 9.43411 -8.98664
494 1 9.29068 12.8104 9.41313 -8.351
495 1 12.6163 12.5725 9.41212 -9.1187
496 1 15.7346 12.5787 9.43366 -8.95863
497 1 18.8721 12.5797 9.43438 -8.95107
498 1 -0.000942707 15.725 9.4345 -8.94997
499 1 3.13996 15.7268 9.43452 -8.94912
500 1 6.27744 15.7362 9.43454 -8.94226
501 1 9.42576 15.7251 9.43183 -9.05471
502 1 12.5789 15.725 9.43148 -8.99542
526 1 1.57065 17.2978 11.0074 -8.94924
11 1 15.7244 22.0139 -0.000187333 -8.94957
5 1 6.28957 22.0139 -0.000238122 -8.94955
527 1 4.71283 17.3009 11.0085 -8.94699
532 1 20.4415 17.2973 11.0071 -8.94952
534 1 4.71593 20.443 11.0074 -8.94931
538 1 17.2971 20.4419 11.007 -8.94954
365 1 22.0139 15.7243 -0.000179937 -8.94954
686 1 20.4416 20.4416 20.4415 -8.94934
685 1 18.8695 18.8695 18.8694 -8.94916
514 1 7.88105 11.0043 11.0028 -8.96243
684 1 17.2968 20.4417 20.4415 -8.94966
516 1 14.1648 11.0046 11.0178 -9.02291
683 1 15.7245 18.8696 18.8695 -8.94974
682 1 14.1519 20.4417 20.4415 -8.94955
519 1 1.57002 14.1521 11.0072 -8.95195
520 1 4.7064 14.1558 11.0094 -8.95956
521 1 7.81706 14.1954 11.0479 -8.88785
522 1 11.0198 14.1923 11.038 -9.15065
523 1 14.1601 14.1552 11.007 -8.99854
524 1 17.3007 14.1534 11.0071 -8.94876
525 1 20.4423 14.1523 11.0071 -8.95007
594 1 17.2984 11.0069 17.2983 -8.94939
590 1 4.71645 11.0068 17.2977 -8.94954
528 1 7.85855 17.3069 11.0087 -8.96028
307 1 18.8693 22.0139 18.8693 -8.94943
530 1 14.1524 17.2983 11.0061 -8.95019
531 1 17.2977 17.2979 11.0069 -8.94903
295 1 22.0138 22.0139 18.8692 -8.94933
533 1 1.57173 20.442 11.0071 -8.9495
377 1 18.8696 15.7246 22.0136 -8.94953
535 1 7.8617 20.4439 11.0072 -8.95149
536 1 11.0072 20.4439 11.007 -8.95177
537 1 14.1523 20.4423 11.0069 -8.94932
373 1 12.5795 15.725 22.0129 -8.94966
303 1 12.5795 22.0139 18.8693 -8.94956
681 1 12.5795 18.8696 18.8695 -8.9495
680 1 11.007 20.4417 20.4415 -8.94957
679 1 9.4345 18.8696 18.8695 -8.94954
543 1 11.0122 11.0061 14.1493 -9.05832
678 1 7.86203 20.4417 20.4415 -8.94956
677 1 6.28946 18.8695 18.8695 -8.94961
676 1 4.7171 20.4417 20.4415 -8.9496
547 1 22.014 12.5793 12.5798 -8.95002
548 1 1.57152 14.1518 14.1525 -8.94986
549 1 3.14283 12.5787 12.5801 -8.95014
550 1 4.71406 14.152 14.154 -8.9515
551 1 6.28403 12.5771 12.5814 -8.95342
552 1 7.85357 14.1598 14.1654 -8.95216
553 1 9.41187 12.604 12.5953 -8.93267
554 1 11.0076 14.1538 14.1556 -8.9926
555 1 12.6283 12.6134 12.6228 -8.8941
556 1 14.1669 14.1649 14.1663 -8.92722
557 1 15.7372 12.5819 12.5837 -8.95896
558 1 17.3017 14.1541 14.1543 -8.95122
559 1 18.8725 12.5797 12.5799 -8.95184
560 1 20.4426 14.1522 14.1524 -8.95026
561 1 22.0132 15.7248 12.5798 -8.9503
562 1 1.57078 17.2977 14.1529 -8.94977
563 1 3.1401 15.7264 12.5815 -8.95142
564 1 4.71228 17.3013 14.1566 -8.94367
565 1 6.27435 15.7389 12.5934 -8.92664
566 1 7.8604 17.3009 14.1552 -8.94921
567 1 9.43192 15.7336 12.5847 -8.9815
568 1 11.0078 17.2993 14.1534 -8.94833
569 1 12.587 15.7332 12.5845 -8.97973
570 1 14.1549 17.3014 14.1546 -8.95048
571 1 15.728 15.727 12.5804 -8.95039
572 1 17.2981 17.2981 14.1525 -8.94994
573 1 18.8705 15.7252 12.5797 -8.94959
574 1 20.4416 17.2972 14.1522 -8.94976
575 1 -0.000491633 18.8696 12.5796 -8.94946
576 1 1.5718 20.4419 14.1522 -8.94951
577 1 3.14317 18.8706 12.5802 -8.94914
578 1 4.71611 20.4429 14.1529 -8.95003
579 1 6.28744 18.8734 12.5814 -8.95191
580 1 7.86167 20.443 14.153 -8.94946
581 1 9.43406 18.8733 12.5814 -8.94905
582 1 11.0073 20.4426 14.1527 -8.9492
583 1 12.5806 18.8723 12.5804 -8.95059
584 1 14.1526 20.4427 14.1525 -8.95038
585 1 15.725 18.8702 12.5793 -8.95002
586 1 17.297 20.4419 14.1519 -8.94979
587 1 18.8694 18.8696 12.5795 -8.94952
588 1 20.4415 20.4417 14.1519 -8.94956
589 1 1.57212 11.0069 17.2972 -8.94956
675 1 3.14433 18.8695 18.8696 -8.94944
674 1 1.5722 20.4417 20.4415 -8.94942
673 1 22.0139 18.8693 18.8693 -8.9496
672 1 20.4417 17.2968 20.4415 -8.94958
671 1 18.8697 15.7246 18.8695 -8.9495
595 1 20.4421 11.0069 17.2973 -8.94951
596 1 0.000140879 12.5795 15.7249 -8.94958
597 1 1.57213 14.1519 17.2972 -8.94942
598 1 3.14381 12.5793 15.7253 -8.949
599 1 4.71655 14.1517 17.2977 -8.94949
600 1 6.28841 12.5787 15.726 -8.94819
601 1 7.86147 14.1522 17.2996 -8.95317
602 1 9.43492 12.5793 15.7272 -8.95408
603 1 11.0068 14.1528 17.2988 -8.94867
604 1 12.5826 12.5806 15.7333 -8.96102
605 1 14.1537 14.1535 17.3007 -8.95198
606 1 15.7288 12.5808 15.7287 -8.9468
607 1 17.2983 14.1527 17.2982 -8.94913
608 1 18.871 12.5798 15.7255 -8.94922
609 1 20.442 14.1521 17.2972 -8.94945
610 1 22.0139 15.7245 15.7247 -8.94984
611 1 1.57201 17.2969 17.2972 -8.94982
612 1 3.14348 15.7246 15.7255 -8.95031
613 1 4.7159 17.2979 17.2986 -8.94925
614 1 6.28609 15.7275 15.7298 -8.9492
615 1 7.86184 17.2976 17.2981 -8.94954
616 1 9.43457 15.7261 15.727 -8.94892
617 1 11.0071 17.2977 17.2978 -8.94919
618 1 12.58 15.7262 15.7269 -8.95004
619 1 14.1523 17.2978 17.2979 -8.94999
620 1 15.7289 15.7288 15.7289 -8.94376
621 1 17.2981 17.2981 17.298 -8.94804
622 1 18.8708 15.7253 15.7254 -8.94971
623 1 20.4419 17.2971 17.2971 -8.94955
624 1 22.0135 18.8695 15.7247 -8.94954
625 1 1.57193 20.4418 17.2971 -8.94914
626 1 3.14328 18.8705 15.7258 -8.94801
627 1 4.71684 20.442 17.2973 -8.9496
628 1 6.28881 18.8707 15.7258 -8.94959
629 1 7.86202 20.4419 17.2973 -8.94956
630 1 9.43463 18.8702 15.7254 -8.94962
631 1 11.007 20.4419 17.2972 -8.94952
632 1 12.5797 18.8703 15.7253 -8.94929
633 1 14.152 20.4419 17.2971 -8.94955
634 1 15.7255 18.8709 15.7254 -8.94952
635 1 17.2971 20.442 17.2971 -8.94949
636 1 18.8695 18.8697 15.7246 -8.94975
637 1 20.4415 20.4417 17.2969 -8.94958
670 1 17.2972 17.2973 20.4416 -8.94958
669 1 15.7252 15.7252 18.8704 -8.95006
668 1 14.152 17.2972 20.4415 -8.9496
667 1 12.5794 15.7249 18.8699 -8.9495
666 1 11.0069 17.2972 20.4414 -8.94956
665 1 9.43433 15.7249 18.8699 -8.94953
664 1 7.86189 17.2972 20.4414 -8.94957
645 1 22.014 12.5794 18.8693 -8.94956
646 1 1.57226 14.1518 20.4415 -8.94955
647 1 3.14444 12.5794 18.8695 -8.94955
648 1 4.71689 14.1518 20.4415 -8.94952
649 1 6.28918 12.5792 18.8697 -8.9494
650 1 7.86188 14.1518 20.4415 -8.95061
651 1 9.43446 12.5793 18.8698 -8.94981
652 1 11.0067 14.1522 20.4414 -8.94998
653 1 12.5795 12.5795 18.8709 -8.95166
654 1 14.1522 14.1523 20.4416 -8.9507
655 1 15.7254 12.5798 18.8705 -8.94938
656 1 17.2974 14.1522 20.4416 -8.94941
657 1 18.8698 12.5795 18.8696 -8.9495
658 1 20.4418 14.1519 20.4415 -8.94956
659 1 22.014 15.7243 18.8693 -8.94953
660 1 1.57228 17.2967 20.4415 -8.94969
661 1 3.1445 15.7243 18.8694 -8.94968
662 1 4.71679 17.297 20.4415 -8.95006
663 1 6.28908 15.7247 18.8703 -8.95076
197 1 22.0136 22.014 12.5795 -8.94957
199 1 3.14406 22.014 12.5798 -8.94939
203 1 9.43461 22.0144 12.58 -8.9503
205 1 12.5798 22.0143 12.5797 -8.95038
209 1 18.8693 22.0139 12.5794 -8.94956
250 1 6.28932 22.0141 15.725 -8.94956
389 1 15.7245 18.8696 22.0135 -8.94966
383 1 6.28943 18.8695 22.0134 -8.94952
256 1 15.7248 22.014 15.7247 -8.94996
297 1 3.14461 22.0139 18.8693 -8.9496
301 1 9.43451 22.0139 18.8693 -8.94956
351 1 22.014 12.5794 22.0137 -8.94957
355 1 6.28925 12.5792 22.0134 -8.94944
371 1 9.43427 15.7249 22.0128 -8.94971
367 1 3.14452 15.7242 22.0136 -8.94968
357 1 9.43442 12.5792 22.0133 -8.94948
359 1 12.5795 12.5795 22.0124 -8.95114
379 1 22.0139 18.8692 22.0137 -8.94962
