ITEM: TIMESTEP
50
ITEM: NUMBER OF ATOMS
688
ITEM: BOX BOUNDS pp pp pp
0.0000000000000000e+00 2.2013900999999997e+01
0.0000000000000000e+00 2.2013900999999997e+01
0.0000000000000000e+00 2.2013900999999997e+01
ITEM: ATOMS id type x y z c_pot
189 1 20.4415 4.71726 11.007 -8.94963
2 1 1.57242 1.57242 1.57242 -8.94963
448 1 20.4415 11.0069 7.8621 -8.94975
4 1 4.71726 1.57242 1.57242 -8.94964
447 1 17.2972 11.0068 7.862 -8.95064
6 1 7.86211 1.57242 1.57242 -8.94963
7 1 9.43453 9.37096e-09 3.53375e-09 -8.94963
8 1 11.007 1.57242 1.57242 -8.94963
445 1 11.0806 11.0007 7.6833 -8.10621
10 1 14.1518 1.57242 1.57242 -8.94963
443 1 4.71662 11.0068 7.86163 -8.94722
12 1 17.2966 1.57242 1.57242 -8.94963
442 1 1.57236 11.0069 7.86208 -8.94964
14 1 20.4415 1.57242 1.57242 -8.94963
188 1 17.2966 4.71726 11.007 -8.94965
16 1 1.57242 4.71726 1.57242 -8.94964
398 1 17.2967 11.007 4.71724 -8.94964
18 1 4.71726 4.71726 1.57241 -8.94962
394 1 4.71724 11.007 4.71721 -8.94932
20 1 7.86211 4.71726 1.57242 -8.94964
50 1 2.63796e-08 3.20524e-09 3.14484 -8.94963
22 1 11.007 4.71726 1.57242 -8.94965
183 1 1.57242 4.71726 11.007 -8.94963
24 1 14.1518 4.71727 1.57243 -8.94969
349 1 17.2966 11.007 1.57242 -8.94966
26 1 17.2966 4.71726 1.57242 -8.94959
345 1 4.71726 11.007 1.57242 -8.94962
28 1 20.4415 4.71726 1.57242 -8.94963
165 1 9.43389 6.28216 9.43443 -8.98149
30 1 1.57242 7.86211 1.57242 -8.94963
164 1 6.28905 6.289 9.43454 -8.94993
32 1 4.71726 7.86211 1.57242 -8.94965
163 1 3.14478 6.28965 9.43453 -8.94954
34 1 7.86207 7.86207 1.57233 -8.94978
35 1 9.43453 6.28968 -1.31747e-06 -8.94963
36 1 11.0069 7.86209 1.57237 -8.94961
37 1 12.5794 6.28969 1.73644e-06 -8.94963
38 1 14.1519 7.86205 1.57231 -8.94969
162 1 -3.00253e-06 6.28968 9.43453 -8.94964
40 1 17.2966 7.86211 1.57243 -8.94969
161 1 18.8691 3.14484 9.43453 -8.94964
42 1 20.4415 7.86211 1.57242 -8.94963
350 1 20.4415 11.007 1.57242 -8.94963
44 1 3.14484 9.43453 -3.64392e-08 -8.94963
160 1 15.7242 3.14484 9.43453 -8.94962
159 1 12.5794 3.14481 9.43452 -8.9496
158 1 9.43455 3.14417 9.43452 -8.95149
48 1 15.7242 9.43453 1.55596e-06 -8.94963
157 1 6.28965 3.14478 9.43453 -8.94954
175 1 18.8691 9.43451 9.43453 -8.94964
51 1 1.57242 1.57242 4.71726 -8.94964
174 1 15.7247 9.43425 9.43457 -8.9483
53 1 4.71726 1.57241 4.71726 -8.94962
54 1 6.28969 2.21157e-07 3.14484 -8.94963
55 1 7.86211 1.57242 4.71727 -8.94964
173 1 12.5799 9.43273 9.43354 -8.9626
57 1 11.0069 1.57242 4.71726 -8.94963
172 1 9.36154 9.26587 9.43398 -8.13637
59 1 14.1518 1.57241 4.71726 -8.94964
60 1 15.7242 1.98627e-07 3.14484 -8.94963
61 1 17.2966 1.57242 4.71726 -8.94963
171 1 6.28321 9.43345 9.43456 -8.96668
63 1 20.4415 1.57242 4.71726 -8.94963
64 1 22.0139 3.14484 3.14484 -8.94963
65 1 1.57241 4.71726 4.71726 -8.94963
66 1 3.14484 3.14484 3.14484 -8.94959
67 1 4.71718 4.71718 4.71718 -8.94904
68 1 6.28969 3.14485 3.14485 -8.94969
69 1 7.86212 4.71727 4.71727 -8.94999
70 1 9.43453 3.14484 3.14484 -8.94964
71 1 11.0069 4.71722 4.71722 -8.94954
72 1 12.5794 3.14484 3.14484 -8.94963
73 1 14.1518 4.71715 4.71721 -8.94967
74 1 15.7242 3.14484 3.14484 -8.94962
75 1 17.2966 4.71727 4.71726 -8.94968
76 1 18.8691 3.14484 3.14484 -8.94964
77 1 20.4415 4.71726 4.71726 -8.94963
78 1 22.0139 6.28969 3.14484 -8.94963
79 1 1.57242 7.86211 4.71726 -8.94962
80 1 3.14484 6.28969 3.14484 -8.94968
81 1 4.71724 7.8621 4.71725 -8.9499
82 1 6.28963 6.28963 3.14473 -8.94964
83 1 7.86159 7.86162 4.71602 -8.95106
84 1 9.43453 6.28964 3.14481 -8.94954
85 1 11.0067 7.86185 4.71664 -8.95138
86 1 12.5794 6.28969 3.14485 -8.95
87 1 14.1531 7.86074 4.71591 -8.94232
88 1 15.7243 6.28959 3.14475 -8.94901
89 1 17.2967 7.86206 4.71722 -8.9497
90 1 18.8691 6.28968 3.14484 -8.94963
91 1 20.4415 7.86211 4.71726 -8.94964
92 1 1.89259e-07 9.43453 3.14484 -8.94963
93 1 3.14484 9.43453 3.14484 -8.94965
94 1 6.28967 9.43457 3.14481 -8.94982
95 1 9.4342 9.4342 3.14424 -8.94914
96 1 12.5798 9.43413 3.14362 -8.95197
97 1 15.7242 9.43454 3.14484 -8.9499
98 1 18.8691 9.43453 3.14484 -8.94964
170 1 3.14438 9.43455 9.43453 -8.95118
100 1 1.57242 1.57242 7.86211 -8.94963
101 1 3.14484 3.58046e-08 6.28969 -8.94963
102 1 4.71726 1.57242 7.86211 -8.94963
169 1 22.0139 9.43453 9.43453 -8.94974
104 1 7.86209 1.57235 7.86209 -8.94986
105 1 9.43453 1.94299e-06 6.28968 -8.94965
106 1 11.007 1.57238 7.86209 -8.94968
107 1 12.5794 1.51955e-06 6.28968 -8.94967
108 1 14.1518 1.57242 7.86211 -8.94965
168 1 18.8691 6.28968 9.43453 -8.94962
110 1 17.2966 1.57242 7.86211 -8.94963
111 1 18.8691 -5.99923e-09 6.28969 -8.94963
112 1 20.4415 1.57242 7.86211 -8.94963
113 1 2.62738e-07 3.14484 6.28969 -8.94963
114 1 1.57242 4.71726 7.86211 -8.94963
115 1 3.14485 3.14485 6.28969 -8.94968
116 1 4.71725 4.71726 7.86211 -8.94985
117 1 6.28963 3.14473 6.28963 -8.94968
118 1 7.86169 4.71607 7.8617 -8.95167
119 1 9.43455 3.1448 6.28967 -8.94963
120 1 11.0073 4.71668 7.86179 -8.949
121 1 12.5794 3.14475 6.28965 -8.94979
122 1 14.1518 4.71721 7.86213 -8.94976
123 1 15.7242 3.14484 6.28969 -8.94964
124 1 17.2966 4.71727 7.86211 -8.94965
125 1 18.8691 3.14484 6.28969 -8.94963
126 1 20.4415 4.71726 7.86211 -8.94963
127 1 22.0139 6.28968 6.28968 -8.94965
128 1 1.57236 7.8621 7.8621 -8.94986
129 1 3.14474 6.28964 6.28964 -8.94973
130 1 4.71616 7.8618 7.86181 -8.95214
131 1 6.28841 6.2884 6.28838 -8.9428
132 1 7.84821 7.84893 7.84878 -8.88303
133 1 9.43477 6.28906 6.28946 -8.95149
134 1 11.0114 7.85897 7.85673 -8.92962
135 1 12.5798 6.28843 6.28922 -8.95157
136 1 14.1526 7.8615 7.86223 -8.94964
137 1 15.7242 6.28967 6.28967 -8.94991
138 1 17.2967 7.86207 7.86211 -8.94971
139 1 18.8691 6.28968 6.28969 -8.94964
140 1 20.4415 7.86211 7.86211 -8.94966
141 1 22.0139 9.43453 6.28968 -8.94965
142 1 3.14476 9.43452 6.28964 -8.94958
143 1 6.28891 9.43465 6.28921 -8.94926
144 1 9.4295 9.42851 6.28625 -8.92408
145 1 12.5941 9.42025 6.27575 -8.87618
146 1 15.7254 9.43415 6.2893 -8.95168
147 1 18.8691 9.43451 6.28967 -8.94983
148 1 -6.34998e-09 -1.37825e-09 9.43453 -8.94963
167 1 15.7243 6.28963 9.43453 -8.94924
150 1 6.28968 -4.87711e-07 9.43453 -8.94965
151 1 9.43452 1.19213e-05 9.43452 -8.94995
152 1 12.5794 1.17698e-05 9.43452 -8.94963
153 1 15.7242 -1.04619e-06 9.43453 -8.94964
166 1 12.5793 6.28942 9.43443 -8.95027
155 1 22.0139 3.14484 9.43453 -8.94963
156 1 3.14484 3.14484 9.43453 -8.94966
181 1 17.2966 1.57242 11.007 -8.94963
344 1 1.57242 11.007 1.57242 -8.94964
177 1 4.71726 1.57242 11.0069 -8.94963
184 1 4.71725 4.71726 11.007 -8.94984
45 1 6.28969 9.43453 1.30979e-07 -8.94965
41 1 18.8691 6.28969 3.36626e-07 -8.94964
19 1 6.28969 3.14484 3.61685e-07 -8.94963
25 1 15.7242 3.14484 2.79374e-07 -8.94964
176 1 1.57242 1.57242 11.007 -8.94963
254 1 12.5794 -1.93293e-06 15.7242 -8.94964
178 1 7.86209 1.57235 11.007 -8.94985
179 1 11.007 1.57238 11.007 -8.94978
180 1 14.1518 1.57242 11.0069 -8.94964
644 1 20.4415 11.007 20.4415 -8.94963
182 1 20.4415 1.57242 11.007 -8.94963
643 1 17.2966 11.007 20.4415 -8.94963
252 1 9.43453 -1.94166e-06 15.7242 -8.94964
185 1 7.86171 4.71609 11.0074 -8.95169
186 1 11.0073 4.71651 11.0073 -8.94976
187 1 14.1518 4.71722 11.0069 -8.94979
642 1 14.1518 11.007 20.4415 -8.94965
641 1 11.0069 11.0069 20.4415 -8.94989
190 1 1.57236 7.8621 11.007 -8.94986
191 1 4.71616 7.86179 11.0072 -8.95207
192 1 7.84832 7.8491 11.0202 -8.88313
193 1 11.0113 7.85624 11.0121 -8.93849
194 1 14.1526 7.86157 11.0067 -8.9498
195 1 17.2967 7.86206 11.0069 -8.94966
196 1 20.4415 7.86211 11.007 -8.94966
343 1 18.8691 9.43453 18.8691 -8.94964
198 1 1.57242 1.57242 14.1518 -8.94964
342 1 15.7242 9.43453 18.8691 -8.94962
200 1 4.71726 1.57241 14.1518 -8.94962
201 1 6.28968 -9.79765e-07 12.5794 -8.94966
202 1 7.86211 1.57242 14.1518 -8.94963
341 1 12.5794 9.43452 18.8691 -8.94987
204 1 11.0069 1.57242 14.1518 -8.94963
340 1 9.43452 9.43451 18.8691 -8.94967
206 1 14.1518 1.57241 14.1518 -8.94964
207 1 15.7242 -9.18486e-07 12.5794 -8.94964
208 1 17.2966 1.57242 14.1518 -8.94963
339 1 6.28968 9.43453 18.8691 -8.94964
210 1 20.4415 1.57242 14.1518 -8.94963
211 1 2.59404e-07 3.14484 12.5794 -8.94963
212 1 1.57241 4.71726 14.1518 -8.94963
213 1 3.14485 3.14485 12.5794 -8.94968
214 1 4.71718 4.71718 14.1519 -8.94905
215 1 6.28963 3.14473 12.5794 -8.94969
216 1 7.86212 4.71726 14.1518 -8.94997
217 1 9.43454 3.14479 12.5794 -8.94962
218 1 11.0069 4.71723 14.1518 -8.94954
219 1 12.5794 3.14474 12.5794 -8.94979
220 1 14.1519 4.71714 14.1519 -8.94966
221 1 15.7242 3.14484 12.5794 -8.94965
222 1 17.2966 4.71727 14.1518 -8.94968
223 1 18.8691 3.14484 12.5794 -8.94963
224 1 20.4415 4.71726 14.1518 -8.94963
225 1 22.0139 6.28968 12.5794 -8.94965
226 1 1.57242 7.86211 14.1518 -8.94962
227 1 3.14474 6.28964 12.5794 -8.94973
228 1 4.71724 7.86209 14.1518 -8.94989
229 1 6.28842 6.28841 12.5807 -8.94293
230 1 7.86155 7.86156 14.1531 -8.95072
231 1 9.43467 6.289 12.5797 -8.95105
232 1 11.0067 7.8619 14.1524 -8.95199
233 1 12.5799 6.28833 12.5799 -8.95135
234 1 14.1533 7.86061 14.1533 -8.94139
235 1 15.7242 6.28967 12.5794 -8.95
236 1 17.2967 7.86206 14.1518 -8.94973
237 1 18.8691 6.28968 12.5794 -8.94963
238 1 20.4415 7.86211 14.1518 -8.94964
239 1 22.0139 9.43453 12.5794 -8.94965
240 1 3.14475 9.43452 12.5794 -8.9496
241 1 6.28879 9.43462 12.5799 -8.94974
242 1 9.42768 9.42829 12.5833 -8.95893
243 1 12.5967 9.41916 12.5947 -8.89906
244 1 15.7255 9.43417 12.5797 -8.95258
245 1 18.8691 9.43451 12.5794 -8.94985
246 1 2.54123e-08 4.76076e-09 15.7242 -8.94963
247 1 1.57242 1.57242 17.2966 -8.94963
248 1 3.14484 -2.99144e-10 15.7242 -8.94963
249 1 4.71726 1.57242 17.2966 -8.94964
338 1 3.14484 9.43453 18.8691 -8.94963
251 1 7.86211 1.57242 17.2966 -8.94963
337 1 22.0139 9.43453 18.8691 -8.94963
253 1 11.007 1.57242 17.2966 -8.94963
336 1 20.4415 7.86211 20.4415 -8.94963
255 1 14.1518 1.57242 17.2966 -8.94963
335 1 18.8691 6.28969 18.8691 -8.94964
257 1 17.2966 1.57242 17.2966 -8.94963
258 1 18.8691 5.38281e-09 15.7242 -8.94963
259 1 20.4415 1.57242 17.2966 -8.94963
260 1 22.0139 3.14484 15.7242 -8.94963
261 1 1.57242 4.71726 17.2966 -8.94964
262 1 3.14484 3.14484 15.7242 -8.94959
263 1 4.71726 4.71726 17.2966 -8.94962
264 1 6.28969 3.14485 15.7242 -8.94969
265 1 7.86211 4.71727 17.2966 -8.94964
266 1 9.43453 3.14484 15.7242 -8.94965
267 1 11.007 4.71726 17.2966 -8.94965
268 1 12.5794 3.14485 15.7242 -8.94964
269 1 14.1518 4.71727 17.2966 -8.9497
270 1 15.7242 3.14484 15.7242 -8.94962
271 1 17.2966 4.71726 17.2966 -8.94959
272 1 18.8691 3.14484 15.7242 -8.94964
273 1 20.4415 4.71726 17.2966 -8.94963
274 1 22.0139 6.28969 15.7242 -8.94963
275 1 1.57242 7.86211 17.2966 -8.94963
276 1 3.14484 6.28969 15.7242 -8.94968
277 1 4.71726 7.86211 17.2966 -8.94963
278 1 6.28963 6.28963 15.7243 -8.94963
279 1 7.86209 7.86209 17.2967 -8.94988
280 1 9.43454 6.28965 15.7243 -8.94952
281 1 11.0069 7.86208 17.2967 -8.94959
282 1 12.5793 6.2897 15.7242 -8.95001
283 1 14.1518 7.86206 17.2967 -8.9498
284 1 15.7243 6.28959 15.7243 -8.94897
285 1 17.2966 7.86211 17.2966 -8.94966
286 1 18.8691 6.28968 15.7242 -8.94963
287 1 20.4415 7.86211 17.2966 -8.94963
288 1 2.28469e-07 9.43453 15.7242 -8.94963
289 1 3.14484 9.43453 15.7242 -8.94965
290 1 6.28962 9.43451 15.7243 -8.94956
291 1 9.43435 9.43437 15.7247 -8.94992
292 1 12.5796 9.43429 15.7253 -8.95298
293 1 15.7243 9.43448 15.7243 -8.94963
294 1 18.8691 9.43453 15.7242 -8.94963
49 1 18.8691 9.43453 22.0139 -8.94963
296 1 1.57242 1.57242 20.4415 -8.94963
334 1 17.2966 7.86211 20.4415 -8.94963
298 1 4.71726 1.57242 20.4415 -8.94963
299 1 6.28969 -7.49865e-08 18.8691 -8.94963
300 1 7.86211 1.57242 20.4415 -8.94963
333 1 15.7242 6.28968 18.8691 -8.94963
302 1 11.007 1.57242 20.4415 -8.94963
332 1 14.1518 7.8621 20.4415 -8.94966
304 1 14.1518 1.57242 20.4415 -8.94963
305 1 15.7242 -7.21264e-08 18.8691 -8.94963
306 1 17.2966 1.57242 20.4415 -8.94963
331 1 12.5794 6.28969 18.8691 -8.94963
308 1 20.4415 1.57242 20.4415 -8.94963
309 1 22.0139 3.14484 18.8691 -8.94963
310 1 1.57242 4.71726 20.4415 -8.94963
311 1 3.14484 3.14484 18.8691 -8.94963
312 1 4.71726 4.71726 20.4415 -8.94963
313 1 6.28969 3.14484 18.8691 -8.94963
314 1 7.86211 4.71726 20.4415 -8.94963
315 1 9.43453 3.14484 18.8691 -8.94963
316 1 11.007 4.71726 20.4415 -8.94963
317 1 12.5794 3.14484 18.8691 -8.94963
318 1 14.1518 4.71726 20.4415 -8.94963
319 1 15.7242 3.14484 18.8691 -8.94964
320 1 17.2966 4.71726 20.4415 -8.94963
321 1 18.8691 3.14484 18.8691 -8.94963
322 1 20.4415 4.71726 20.4415 -8.94963
323 1 22.0139 6.28969 18.8691 -8.94963
324 1 1.57242 7.86211 20.4415 -8.94963
325 1 3.14484 6.28969 18.8691 -8.94963
326 1 4.71726 7.86211 20.4415 -8.94963
327 1 6.28968 6.28968 18.8691 -8.94965
328 1 7.8621 7.8621 20.4415 -8.94966
329 1 9.43453 6.28968 18.8691 -8.94963
330 1 11.0069 7.86211 20.4415 -8.94964
512 1 1.57235 11.0069 11.007 -8.94965
513 1 4.71655 11.0068 11.0074 -8.94731
515 1 11.0836 10.9706 11.1987 -8.3
517 1 17.2973 11.0068 11.0071 -8.95055
518 1 20.4415 11.0069 11.007 -8.94975
540 1 1.57242 11.007 14.1518 -8.94964
541 1 4.71718 11.0069 14.1519 -8.94939
542 1 7.86173 11.0066 14.1525 -8.94959
544 1 14.153 11.0067 14.1532 -8.94859
545 1 17.2967 11.0069 14.1518 -8.94968
546 1 20.4415 11.007 14.1518 -8.94965
47 1 12.5794 9.43451 22.0138 -8.94987
591 1 7.86208 11.0069 17.2967 -8.94966
592 1 11.0069 11.0069 17.2971 -8.95041
593 1 14.1518 11.0069 17.2968 -8.94962
46 1 9.43451 9.43451 22.0139 -8.94969
638 1 1.57242 11.007 20.4415 -8.94963
639 1 4.71726 11.007 20.4415 -8.94963
640 1 7.86211 11.007 20.4415 -8.94964
3 1 3.14484 1.76992e-11 22.0139 -8.94963
39 1 15.7242 6.28968 22.0139 -8.94962
9 1 12.5794 5.95065e-09 22.0139 -8.94963
33 1 6.28968 6.28968 22.0139 -8.94964
13 1 18.8691 5.35246e-10 22.0139 -8.94963
15 1 22.0139 3.14484 22.0139 -8.94963
17 1 3.14484 3.14484 22.0139 -8.94963
31 1 3.14484 6.28969 22.0139 -8.94963
23 1 12.5794 3.14484 22.0139 -8.94963
29 1 22.0139 6.28969 22.0139 -8.94963
27 1 18.8691 3.14484 22.0139 -8.94963
21 1 9.43453 3.14484 22.0139 -8.94963
43 1 22.0139 9.43453 22.0139 -8.94963
539 1 20.4415 20.4415 11.007 -8.94963
688 3 10.2268 11.0197 9.44053 2.60483
346 1 7.86211 11.007 1.57241 -8.94958
347 1 11.0069 11.007 1.57177 -8.9514
348 1 14.1518 11.007 1.57236 -8.94953
687 2 10.9962 12.5645 10.2178 0.556683
529 1 11.0073 17.301 11.0073 -8.95918
154 1 18.8691 22.0139 9.43453 -8.94963
352 1 1.57242 14.1518 1.57242 -8.94963
353 1 3.14484 12.5794 1.30597e-08 -8.94963
354 1 4.71726 14.1518 1.57242 -8.94964
149 1 3.14484 22.0139 9.43453 -8.94963
356 1 7.86208 14.1518 1.57234 -8.94979
393 1 1.57242 11.007 4.71726 -8.94963
358 1 11.0069 14.1518 1.57236 -8.94975
399 1 20.4415 11.007 4.71726 -8.94964
360 1 14.1518 14.1518 1.57232 -8.94969
361 1 15.7242 12.5794 1.10468e-06 -8.94963
362 1 17.2966 14.1518 1.57242 -8.94968
363 1 18.8691 12.5794 -7.3043e-08 -8.94963
364 1 20.4415 14.1518 1.57242 -8.94963
109 1 15.7242 22.0139 6.28969 -8.94963
366 1 1.57242 17.2966 1.57242 -8.94964
103 1 6.28968 22.0139 6.28968 -8.94966
368 1 4.71726 17.2966 1.57241 -8.94963
369 1 6.28968 15.7242 -5.7211e-06 -8.94964
370 1 7.86211 17.2966 1.57242 -8.94963
99 1 22.0139 22.0139 6.28969 -8.94963
372 1 11.007 17.2966 1.57242 -8.94964
62 1 18.8691 22.0139 3.14484 -8.94963
374 1 14.1518 17.2966 1.57242 -8.94969
375 1 15.7242 15.7242 -6.15115e-06 -8.94962
376 1 17.2966 17.2966 1.57242 -8.9496
58 1 12.5794 22.0139 3.14484 -8.94963
378 1 20.4415 17.2966 1.57242 -8.94963
1 1 22.0139 22.0139 -7.07559e-09 -8.94963
380 1 1.57242 20.4415 1.57242 -8.94963
381 1 3.14484 18.8691 -2.92346e-07 -8.94963
382 1 4.71726 20.4415 1.57242 -8.94964
56 1 9.43453 22.0139 3.14484 -8.94963
384 1 7.86211 20.4415 1.57242 -8.94963
385 1 9.43453 18.8691 2.27549e-07 -8.94963
386 1 11.007 20.4415 1.57242 -8.94964
387 1 12.5794 18.8691 -1.07651e-08 -8.94963
388 1 14.1518 20.4415 1.57242 -8.94964
52 1 3.14484 22.0139 3.14484 -8.94963
390 1 17.2966 20.4415 1.57242 -8.94963
391 1 18.8691 18.8691 -6.87787e-08 -8.94963
392 1 20.4415 20.4415 1.57242 -8.94963
511 1 18.8691 18.8691 9.43453 -8.94963
510 1 15.7242 18.8691 9.43454 -8.94963
395 1 7.86234 11.007 4.71718 -8.95135
396 1 11.0075 11.0069 4.71024 -8.9839
397 1 14.1524 11.0071 4.71659 -8.95068
509 1 12.5795 18.8692 9.43441 -8.94892
508 1 9.43442 18.8699 9.43441 -8.95084
400 1 2.71837e-07 12.5794 3.14484 -8.94963
401 1 1.57242 14.1518 4.71726 -8.94963
402 1 3.14484 12.5794 3.14484 -8.94965
403 1 4.71726 14.1518 4.71725 -8.94999
404 1 6.28965 12.5793 3.1448 -8.94972
405 1 7.86174 14.1521 4.71605 -8.95239
406 1 9.4342 12.5797 3.14435 -8.94863
407 1 11.0067 14.152 4.71626 -8.95275
408 1 12.5798 12.5798 3.14374 -8.95139
409 1 14.153 14.153 4.71603 -8.94349
410 1 15.7242 12.5794 3.14485 -8.94975
411 1 17.2967 14.1518 4.71723 -8.94982
412 1 18.8691 12.5794 3.14484 -8.94962
413 1 20.4415 14.1518 4.71726 -8.94965
414 1 22.0139 15.7242 3.14484 -8.94963
415 1 1.57241 17.2966 4.71726 -8.94962
416 1 3.14485 15.7242 3.14485 -8.94968
417 1 4.71717 17.2967 4.71717 -8.94897
418 1 6.28964 15.7243 3.14474 -8.94975
419 1 7.86208 17.2967 4.71723 -8.94981
420 1 9.43452 15.7243 3.14475 -8.94963
421 1 11.007 17.2967 4.7172 -8.94942
422 1 12.5794 15.7242 3.1448 -8.95005
423 1 14.1519 17.2968 4.71718 -8.94949
424 1 15.7243 15.7243 3.14476 -8.94911
425 1 17.2966 17.2966 4.71726 -8.94964
426 1 18.8691 15.7242 3.14484 -8.94964
427 1 20.4415 17.2966 4.71726 -8.94963
428 1 22.0139 18.8691 3.14484 -8.94963
429 1 1.57242 20.4415 4.71726 -8.94964
430 1 3.14484 18.8691 3.14484 -8.94959
431 1 4.71726 20.4415 4.71726 -8.94962
432 1 6.28969 18.8691 3.14484 -8.94967
433 1 7.86211 20.4415 4.71726 -8.94964
434 1 9.43453 18.8691 3.14484 -8.94967
435 1 11.007 20.4415 4.71726 -8.94962
436 1 12.5794 18.8691 3.14484 -8.94965
437 1 14.1518 20.4415 4.71726 -8.94964
438 1 15.7242 18.8691 3.14484 -8.94961
439 1 17.2966 20.4415 4.71726 -8.94963
440 1 18.8691 18.8691 3.14484 -8.94964
441 1 20.4415 20.4415 4.71726 -8.94963
507 1 6.28965 18.8691 9.43454 -8.94961
506 1 3.14484 18.8691 9.43453 -8.94966
444 1 7.86215 11.0054 7.8599 -8.94848
505 1 22.0139 18.8691 9.43453 -8.94963
446 1 14.1588 11.005 7.85975 -9.00078
504 1 18.8691 15.7242 9.43453 -8.94962
503 1 15.7242 15.7242 9.43458 -8.94996
449 1 22.0139 12.5794 6.28968 -8.94964
450 1 1.57235 14.1518 7.86209 -8.94987
451 1 3.14478 12.5794 6.28965 -8.94958
452 1 4.716 14.1522 7.8617 -8.9521
453 1 6.28908 12.5792 6.28931 -8.95023
454 1 7.84649 14.1681 7.84601 -8.89823
455 1 9.43103 12.5847 6.28775 -8.97789
456 1 11.0111 14.1581 7.85183 -8.96484
457 1 12.5923 12.5929 6.27766 -8.9307
458 1 14.153 14.1541 7.86107 -8.98252
459 1 15.7251 12.5797 6.28959 -8.95284
460 1 17.2968 14.152 7.86198 -8.94907
461 1 18.8691 12.5794 6.28968 -8.9498
462 1 20.4415 14.1518 7.8621 -8.94965
463 1 22.0139 15.7242 6.28968 -8.94965
464 1 1.57242 17.2966 7.86211 -8.94963
465 1 3.14473 15.7243 6.28963 -8.94972
466 1 4.71725 17.2967 7.8621 -8.94989
467 1 6.28822 15.7257 6.2882 -8.94136
468 1 7.86166 17.298 7.86166 -8.95221
469 1 9.43452 15.7254 6.28882 -8.94991
470 1 11.0073 17.2975 7.86174 -8.94999
471 1 12.5801 15.7259 6.28874 -8.95024
472 1 14.1519 17.2968 7.86209 -8.95001
473 1 15.7243 15.7243 6.2896 -8.94941
474 1 17.2966 17.2966 7.86211 -8.94975
475 1 18.8691 15.7242 6.28968 -8.94959
476 1 20.4415 17.2966 7.86211 -8.94964
477 1 2.10288e-07 18.8691 6.28969 -8.94963
478 1 1.57242 20.4415 7.86211 -8.94963
479 1 3.14485 18.8691 6.28969 -8.94968
480 1 4.71726 20.4415 7.86211 -8.94963
481 1 6.28963 18.8692 6.28963 -8.94969
482 1 7.86208 20.4416 7.86208 -8.94985
483 1 9.43454 18.8691 6.28965 -8.94975
484 1 11.007 20.4415 7.86209 -8.94977
485 1 12.5794 18.8692 6.28963 -8.94988
486 1 14.1518 20.4415 7.8621 -8.94963
487 1 15.7242 18.8691 6.28968 -8.94964
488 1 17.2966 20.4415 7.86211 -8.94964
489 1 18.8691 18.8691 6.28969 -8.94964
490 1 20.4415 20.4415 7.86211 -8.94963
491 1 22.0139 12.5794 9.43453 -8.94985
492 1 3.1442 12.5793 9.43453 -8.9518
493 1 6.28097 12.5805 9.43455 -8.97308
494 1 9.32002 12.7515 9.41516 -8.30024
495 1 12.6203 12.5803 9.41561 -9.16745
496 1 15.7287 12.5797 9.43452 -8.9586
497 1 18.8693 12.5794 9.43453 -8.95074
498 1 -3.76815e-06 15.7242 9.43453 -8.94963
499 1 3.14477 15.7242 9.43453 -8.94958
500 1 6.28886 15.7251 9.4346 -8.9505
501 1 9.43352 15.732 9.43346 -9.03558
502 1 12.5796 15.7245 9.43343 -9.00322
526 1 1.57242 17.2966 11.0069 -8.94963
11 1 15.7242 22.0139 5.35682e-08 -8.94963
5 1 6.28969 22.0139 -6.96846e-09 -8.94963
527 1 4.71725 17.2967 11.007 -8.94977
532 1 20.4415 17.2966 11.0069 -8.94964
534 1 4.71726 20.4415 11.007 -8.94963
538 1 17.2966 20.4415 11.007 -8.94963
365 1 22.0139 15.7242 1.12755e-08 -8.94963
686 1 20.4415 20.4415 20.4415 -8.94963
685 1 18.8691 18.8691 18.8691 -8.94963
514 1 7.86159 11.0065 11.0097 -8.96025
684 1 17.2966 20.4415 20.4415 -8.94963
516 1 14.1588 11.0064 11.0092 -9.01971
683 1 15.7242 18.8691 18.8691 -8.94964
682 1 14.1518 20.4415 20.4415 -8.94963
519 1 1.57235 14.1518 11.007 -8.94986
520 1 4.71603 14.1522 11.0073 -8.9517
521 1 7.84776 14.1657 11.022 -8.92888
522 1 11.0107 14.1935 11.0306 -9.2007
523 1 14.1527 14.1527 11.0079 -9.00166
524 1 17.2969 14.152 11.0071 -8.94893
525 1 20.4415 14.1518 11.007 -8.94965
594 1 17.2966 11.007 17.2966 -8.94969
590 1 4.71726 11.007 17.2966 -8.94964
528 1 7.8618 17.2978 11.0073 -8.9524
307 1 18.8691 22.0139 18.8691 -8.94963
530 1 14.1517 17.2966 11.0069 -8.95044
531 1 17.2966 17.2966 11.0069 -8.94966
295 1 22.0139 22.0139 18.8691 -8.94963
533 1 1.57242 20.4415 11.007 -8.94963
377 1 18.8691 15.7242 22.0139 -8.94964
535 1 7.86209 20.4415 11.007 -8.94986
536 1 11.007 20.4417 11.007 -8.95075
537 1 14.1518 20.4415 11.0069 -8.94964
373 1 12.5794 15.7242 22.0139 -8.94964
303 1 12.5794 22.0139 18.8691 -8.94963
681 1 12.5794 18.8691 18.8691 -8.94963
680 1 11.007 20.4415 20.4415 -8.94963
679 1 9.43453 18.8691 18.8691 -8.94963
543 1 11.0075 11.0079 14.1559 -9.03139
678 1 7.86211 20.4415 20.4415 -8.94963
677 1 6.28969 18.8691 18.8691 -8.94964
676 1 4.71726 20.4415 20.4415 -8.94963
547 1 22.0139 12.5794 12.5794 -8.94966
548 1 1.57242 14.1518 14.1518 -8.94964
549 1 3.14474 12.5794 12.5794 -8.94971
550 1 4.7172 14.1518 14.1518 -8.94998
551 1 6.28856 12.5792 12.5799 -8.95056
552 1 7.8612 14.1525 14.1535 -8.95024
553 1 9.42624 12.5845 12.5873 -8.96296
554 1 11.0067 14.1509 14.1515 -9.00079
555 1 12.5967 12.5922 12.5972 -8.92203
556 1 14.1535 14.1534 14.1536 -8.94153
557 1 15.7256 12.5797 12.5797 -8.95308
558 1 17.2968 14.1518 14.1519 -8.94982
559 1 18.8691 12.5794 12.5794 -8.94995
560 1 20.4415 14.1518 14.1518 -8.94966
561 1 22.0139 15.7242 12.5794 -8.94965
562 1 1.57241 17.2966 14.1518 -8.94962
563 1 3.14473 15.7243 12.5794 -8.94973
564 1 4.71717 17.2967 14.1519 -8.94902
565 1 6.28823 15.7256 12.5808 -8.94275
566 1 7.86205 17.2967 14.1519 -8.94954
567 1 9.43291 15.7253 12.5807 -8.98476
568 1 11.0069 17.2964 14.1516 -8.95028
569 1 12.5817 15.7258 12.5809 -8.98418
570 1 14.1519 17.2968 14.1519 -8.94921
571 1 15.7244 15.7243 12.5794 -8.95011
572 1 17.2966 17.2966 14.1518 -8.94966
573 1 18.8691 15.7242 12.5794 -8.94961
574 1 20.4415 17.2966 14.1518 -8.94963
575 1 1.93195e-07 18.8691 12.5794 -8.94963
576 1 1.57242 20.4415 14.1518 -8.94964
577 1 3.14485 18.8691 12.5794 -8.94968
578 1 4.71726 20.4415 14.1518 -8.94963
579 1 6.28963 18.8692 12.5794 -8.94979
580 1 7.8621 20.4415 14.1518 -8.9496
581 1 9.43442 18.8692 12.5795 -8.94908
582 1 11.0069 20.4415 14.1518 -8.94958
583 1 12.5795 18.8693 12.5795 -8.94922
584 1 14.1518 20.4415 14.1518 -8.9496
585 1 15.7242 18.8691 12.5794 -8.94974
586 1 17.2966 20.4415 14.1518 -8.94964
587 1 18.8691 18.8691 12.5794 -8.94964
588 1 20.4415 20.4415 14.1518 -8.94963
589 1 1.57242 11.007 17.2966 -8.94964
675 1 3.14484 18.8691 18.8691 -8.94963
674 1 1.57242 20.4415 20.4415 -8.94963
673 1 22.0139 18.8691 18.8691 -8.94963
672 1 20.4415 17.2966 20.4415 -8.94963
671 1 18.8691 15.7242 18.8691 -8.94964
595 1 20.4415 11.007 17.2966 -8.94963
596 1 2.81107e-07 12.5794 15.7242 -8.94963
597 1 1.57242 14.1518 17.2966 -8.94963
598 1 3.14484 12.5794 15.7242 -8.94964
599 1 4.71727 14.1518 17.2966 -8.94966
600 1 6.28965 12.5793 15.7243 -8.94969
601 1 7.86206 14.1518 17.2968 -8.94987
602 1 9.43424 12.5796 15.7252 -8.95073
603 1 11.0069 14.1518 17.2966 -8.94918
604 1 12.5797 12.5797 15.7258 -8.95333
605 1 14.1519 14.1519 17.2968 -8.94977
606 1 15.7242 12.5794 15.7242 -8.94971
607 1 17.2966 14.1518 17.2966 -8.94969
608 1 18.8691 12.5794 15.7242 -8.94962
609 1 20.4415 14.1518 17.2966 -8.94963
610 1 22.0139 15.7242 15.7242 -8.94963
611 1 1.57242 17.2966 17.2966 -8.94964
612 1 3.14484 15.7242 15.7242 -8.94968
613 1 4.71726 17.2966 17.2966 -8.94961
614 1 6.2896 15.7243 15.7244 -8.94949
615 1 7.86212 17.2966 17.2966 -8.9497
616 1 9.43463 15.7242 15.7242 -8.95016
617 1 11.007 17.2966 17.2966 -8.94958
618 1 12.5793 15.7241 15.7242 -8.9506
619 1 14.1518 17.2966 17.2966 -8.94975
620 1 15.7243 15.7243 15.7243 -8.94887
621 1 17.2966 17.2966 17.2966 -8.94958
622 1 18.8691 15.7242 15.7242 -8.94963
623 1 20.4415 17.2966 17.2966 -8.94963
624 1 22.0139 18.8691 15.7242 -8.94963
625 1 1.57242 20.4415 17.2966 -8.94963
626 1 3.14484 18.8691 15.7242 -8.94959
627 1 4.71726 20.4415 17.2966 -8.94964
628 1 6.28969 18.8691 15.7242 -8.94966
629 1 7.86211 20.4415 17.2966 -8.94964
630 1 9.43454 18.869 15.7242 -8.94974
631 1 11.007 20.4415 17.2966 -8.94963
632 1 12.5794 18.869 15.7242 -8.94973
633 1 14.1518 20.4415 17.2966 -8.94964
634 1 15.7242 18.8691 15.7242 -8.94959
635 1 17.2966 20.4415 17.2966 -8.94963
636 1 18.8691 18.8691 15.7242 -8.94964
637 1 20.4415 20.4415 17.2966 -8.94963
670 1 17.2966 17.2966 20.4415 -8.94963
669 1 15.7242 15.7242 18.8691 -8.94962
668 1 14.1518 17.2966 20.4415 -8.94964
667 1 12.5794 15.7242 18.869 -8.94963
666 1 11.007 17.2966 20.4415 -8.94963
665 1 9.43453 15.7242 18.8691 -8.94963
664 1 7.86211 17.2966 20.4415 -8.94963
645 1 22.0139 12.5794 18.8691 -8.94963
646 1 1.57242 14.1518 20.4415 -8.94963
647 1 3.14484 12.5794 18.8691 -8.94963
648 1 4.71726 14.1518 20.4415 -8.94963
649 1 6.28968 12.5794 18.8691 -8.94963
650 1 7.8621 14.1518 20.4415 -8.94967
651 1 9.43452 12.5794 18.8691 -8.94982
652 1 11.0069 14.1518 20.4415 -8.94962
653 1 12.5794 12.5794 18.8691 -8.95
654 1 14.1518 14.1518 20.4415 -8.94967
655 1 15.7242 12.5794 18.8691 -8.94962
656 1 17.2966 14.1518 20.4415 -8.94963
657 1 18.8691 12.5794 18.8691 -8.94964
658 1 20.4415 14.1518 20.4415 -8.94963
659 1 22.0139 15.7242 18.8691 -8.94963
660 1 1.57242 17.2966 20.4415 -8.94963
661 1 3.14484 15.7242 18.8691 -8.94964
662 1 4.71726 17.2966 20.4415 -8.94963
663 1 6.28968 15.7242 18.8691 -8.94963
197 1 22.0139 22.0139 12.5794 -8.94963
199 1 3.14484 22.0139 12.5794 -8.94963
203 1 9.43452 22.0139 12.5794 -8.94964
205 1 12.5794 22.0139 12.5794 -8.94966
209 1 18.8691 22.0139 12.5794 -8.94963
250 1 6.28969 22.0139 15.7242 -8.94963
389 1 15.7242 18.8691 22.0139 -8.94964
383 1 6.28969 18.8691 22.0139 -8.94963
256 1 15.7242 22.0139 15.7242 -8.94963
297 1 3.14484 22.0139 18.8691 -8.94963
301 1 9.43453 22.0139 18.8691 -8.94963
351 1 22.0139 12.5794 22.0139 -8.94963
355 1 6.28969 12.5794 22.0139 -8.94965
371 1 9.43453 15.7242 22.0139 -8.94964
367 1 3.14484 15.7242 22.0139 -8.94963
357 1 9.43451 12.5794 22.0139 -8.94966
359 1 12.5794 12.5794 22.0138 -8.94984
379 1 22.0139 18.8691 22.0139 -8.94963
