ITEM: TIMESTEP
37
ITEM: NUMBER OF ATOMS
688
ITEM: BOX BOUNDS pp pp pp
0.0000000000000000e+00 2.2013900999999997e+01
0.0000000000000000e+00 2.2013900999999997e+01
0.0000000000000000e+00 2.2013900999999997e+01
ITEM: ATOMS id type x y z c_pot
189 1 20.4415 4.71726 11.007 -8.94963
2 1 1.57242 1.57242 1.57242 -8.94963
448 1 20.4415 11.007 7.86211 -8.94964
4 1 4.71726 1.57242 1.57242 -8.94963
447 1 17.2967 11.0069 7.8621 -8.94969
6 1 7.86211 1.57242 1.57242 -8.94963
7 1 9.43453 1.60407e-10 -5.93798e-11 -8.94963
8 1 11.007 1.57242 1.57242 -8.94963
445 1 11.0482 11.0049 7.77416 -8.00754
10 1 14.1518 1.57242 1.57242 -8.94963
443 1 4.71718 11.0069 7.86208 -8.94992
12 1 17.2966 1.57242 1.57242 -8.94963
442 1 1.57242 11.007 7.86211 -8.94965
14 1 20.4415 1.57242 1.57242 -8.94963
188 1 17.2966 4.71726 11.007 -8.94964
16 1 1.57242 4.71726 1.57242 -8.94963
398 1 17.2966 11.007 4.71726 -8.94962
18 1 4.71726 4.71726 1.57242 -8.94963
394 1 4.71727 11.007 4.71727 -8.94969
20 1 7.86211 4.71726 1.57242 -8.94963
50 1 3.67498e-11 2.48139e-11 3.14484 -8.94963
22 1 11.007 4.71726 1.57242 -8.94963
183 1 1.57242 4.71726 11.007 -8.94963
24 1 14.1518 4.71726 1.57242 -8.94963
349 1 17.2966 11.007 1.57242 -8.94963
26 1 17.2966 4.71726 1.57242 -8.94963
345 1 4.71726 11.007 1.57242 -8.94963
28 1 20.4415 4.71726 1.57242 -8.94963
165 1 9.43449 6.28741 9.43452 -8.96571
30 1 1.57242 7.86211 1.57242 -8.94963
164 1 6.28973 6.28973 9.43453 -8.95136
32 1 4.71726 7.86211 1.57242 -8.94963
163 1 3.14484 6.28969 9.43453 -8.94962
34 1 7.86211 7.86211 1.57242 -8.94963
35 1 9.43453 6.28969 6.19401e-08 -8.94963
36 1 11.007 7.86211 1.57242 -8.94964
37 1 12.5794 6.28969 8.25143e-08 -8.94963
38 1 14.1518 7.86211 1.57242 -8.94963
162 1 8.15165e-09 6.28969 9.43453 -8.94963
40 1 17.2966 7.86211 1.57242 -8.94963
161 1 18.8691 3.14484 9.43453 -8.94963
42 1 20.4415 7.86211 1.57242 -8.94963
350 1 20.4415 11.007 1.57242 -8.94963
44 1 3.14484 9.43453 7.27275e-10 -8.94963
160 1 15.7242 3.14484 9.43453 -8.94963
159 1 12.5794 3.14484 9.43453 -8.94966
158 1 9.43453 3.1448 9.43453 -8.95023
48 1 15.7242 9.43453 1.03628e-07 -8.94963
157 1 6.28969 3.14484 9.43453 -8.94963
175 1 18.8691 9.43453 9.43453 -8.94966
51 1 1.57242 1.57242 4.71726 -8.94963
174 1 15.7243 9.43452 9.43453 -8.9505
53 1 4.71726 1.57242 4.71726 -8.94963
54 1 6.28969 2.19828e-09 3.14484 -8.94963
55 1 7.86211 1.57242 4.71726 -8.94963
173 1 12.5824 9.43218 9.43437 -8.96805
57 1 11.007 1.57242 4.71726 -8.94963
172 1 9.39305 9.34946 9.43432 -8.02349
59 1 14.1518 1.57242 4.71726 -8.94963
60 1 15.7242 2.11781e-09 3.14484 -8.94963
61 1 17.2966 1.57242 4.71726 -8.94963
171 1 6.28859 9.43439 9.43453 -8.9587
63 1 20.4415 1.57242 4.71726 -8.94963
64 1 22.0139 3.14484 3.14484 -8.94963
65 1 1.57242 4.71726 4.71726 -8.94963
66 1 3.14484 3.14484 3.14484 -8.94963
67 1 4.71726 4.71726 4.71726 -8.94961
68 1 6.28969 3.14484 3.14484 -8.94963
69 1 7.86211 4.71727 4.71727 -8.9497
70 1 9.43453 3.14484 3.14484 -8.94963
71 1 11.0069 4.71727 4.71727 -8.94965
72 1 12.5794 3.14484 3.14484 -8.94963
73 1 14.1518 4.71726 4.71726 -8.94963
74 1 15.7242 3.14484 3.14484 -8.94963
75 1 17.2966 4.71726 4.71726 -8.94963
76 1 18.8691 3.14484 3.14484 -8.94963
77 1 20.4415 4.71726 4.71726 -8.94963
78 1 22.0139 6.28969 3.14484 -8.94963
79 1 1.57242 7.86211 4.71726 -8.94963
80 1 3.14484 6.28969 3.14484 -8.94963
81 1 4.71726 7.86211 4.71727 -8.94967
82 1 6.28969 6.28969 3.14484 -8.94963
83 1 7.86209 7.86209 4.71721 -8.94983
84 1 9.43453 6.28969 3.14484 -8.94965
85 1 11.0069 7.86215 4.7173 -8.95096
86 1 12.5794 6.28969 3.14485 -8.94971
87 1 14.1518 7.86205 4.71721 -8.94874
88 1 15.7242 6.28968 3.14484 -8.94961
89 1 17.2966 7.86211 4.71726 -8.94964
90 1 18.8691 6.28969 3.14484 -8.94963
91 1 20.4415 7.86211 4.71726 -8.94963
92 1 3.97984e-09 9.43453 3.14484 -8.94963
93 1 3.14484 9.43453 3.14484 -8.94964
94 1 6.28969 9.43453 3.14484 -8.94967
95 1 9.4345 9.4345 3.14481 -8.94937
96 1 12.5794 9.4345 3.14478 -8.94973
97 1 15.7242 9.43453 3.14485 -8.94971
98 1 18.8691 9.43453 3.14484 -8.94963
170 1 3.14482 9.43453 9.43453 -8.94991
100 1 1.57242 1.57242 7.86211 -8.94963
101 1 3.14484 1.22041e-09 6.28969 -8.94963
102 1 4.71726 1.57242 7.86211 -8.94963
169 1 22.0139 9.43453 9.43453 -8.94964
104 1 7.86211 1.57242 7.86211 -8.94964
105 1 9.43453 3.45584e-08 6.28969 -8.94963
106 1 11.007 1.57242 7.86211 -8.94963
107 1 12.5794 3.20706e-08 6.28969 -8.94963
108 1 14.1518 1.57242 7.86211 -8.94963
168 1 18.8691 6.28969 9.43453 -8.94963
110 1 17.2966 1.57242 7.86211 -8.94963
111 1 18.8691 1.08122e-09 6.28969 -8.94963
112 1 20.4415 1.57242 7.86211 -8.94963
113 1 1.82494e-09 3.14484 6.28969 -8.94963
114 1 1.57242 4.71726 7.86211 -8.94963
115 1 3.14484 3.14484 6.28969 -8.94963
116 1 4.71727 4.71727 7.86211 -8.9497
117 1 6.28969 3.14484 6.28968 -8.94963
118 1 7.86208 4.7172 7.86208 -8.94972
119 1 9.43453 3.14484 6.28969 -8.94964
120 1 11.007 4.71723 7.86208 -8.94939
121 1 12.5794 3.14484 6.28969 -8.94963
122 1 14.1518 4.71726 7.86211 -8.94966
123 1 15.7242 3.14484 6.28969 -8.94963
124 1 17.2966 4.71726 7.86211 -8.94964
125 1 18.8691 3.14484 6.28969 -8.94963
126 1 20.4415 4.71726 7.86211 -8.94963
127 1 22.0139 6.28969 6.28969 -8.94963
128 1 1.57242 7.86211 7.86211 -8.94964
129 1 3.14484 6.28969 6.28969 -8.94963
130 1 4.71722 7.8621 7.86209 -8.94996
131 1 6.28964 6.28964 6.28963 -8.94878
132 1 7.86023 7.86032 7.86022 -8.92106
133 1 9.43454 6.28972 6.28973 -8.95091
134 1 11.0076 7.86161 7.86138 -8.94167
135 1 12.5794 6.28963 6.28967 -8.94988
136 1 14.1519 7.86206 7.86205 -8.94927
137 1 15.7242 6.28969 6.28968 -8.94966
138 1 17.2966 7.86211 7.86211 -8.94964
139 1 18.8691 6.28969 6.28969 -8.94963
140 1 20.4415 7.86211 7.86211 -8.94963
141 1 22.0139 9.43453 6.28969 -8.94963
142 1 3.14484 9.43453 6.28969 -8.94963
143 1 6.28964 9.43448 6.28965 -8.94936
144 1 9.43379 9.43374 6.28917 -8.94019
145 1 12.5813 9.43256 6.28782 -8.91986
146 1 15.7243 9.43452 6.28968 -8.95006
147 1 18.8691 9.43453 6.28969 -8.94964
148 1 2.95065e-10 -3.19214e-11 9.43453 -8.94963
167 1 15.7242 6.28969 9.43453 -8.94969
150 1 6.28969 -6.85601e-09 9.43453 -8.94963
151 1 9.43453 1.73572e-07 9.43453 -8.94965
152 1 12.5794 1.78614e-07 9.43453 -8.94963
153 1 15.7242 -1.09072e-08 9.43453 -8.94963
166 1 12.5793 6.28966 9.43452 -8.95071
155 1 22.0139 3.14484 9.43453 -8.94963
156 1 3.14484 3.14484 9.43453 -8.94963
181 1 17.2966 1.57242 11.007 -8.94963
344 1 1.57242 11.007 1.57242 -8.94963
177 1 4.71726 1.57242 11.007 -8.94963
184 1 4.71727 4.71727 11.0069 -8.9497
45 1 6.28969 9.43453 3.71808e-08 -8.94963
41 1 18.8691 6.28969 1.99296e-09 -8.94963
19 1 6.28969 3.14484 2.21916e-09 -8.94963
25 1 15.7242 3.14484 1.47892e-09 -8.94963
176 1 1.57242 1.57242 11.007 -8.94963
254 1 12.5794 -9.24234e-09 15.7242 -8.94963
178 1 7.86211 1.57242 11.007 -8.94964
179 1 11.007 1.57242 11.007 -8.94964
180 1 14.1518 1.57242 11.007 -8.94963
644 1 20.4415 11.007 20.4415 -8.94963
182 1 20.4415 1.57242 11.007 -8.94963
643 1 17.2966 11.007 20.4415 -8.94963
252 1 9.43453 -9.18946e-09 15.7242 -8.94963
185 1 7.86208 4.7172 11.007 -8.94973
186 1 11.007 4.71722 11.007 -8.94951
187 1 14.1518 4.71726 11.007 -8.94967
642 1 14.1518 11.007 20.4415 -8.94963
641 1 11.007 11.007 20.4415 -8.94965
190 1 1.57242 7.86211 11.007 -8.94964
191 1 4.71722 7.8621 11.007 -8.94996
192 1 7.86024 7.86033 11.0088 -8.92136
193 1 11.0076 7.86114 11.0076 -8.94569
194 1 14.1519 7.86206 11.007 -8.94958
195 1 17.2966 7.86211 11.007 -8.94964
196 1 20.4415 7.86211 11.007 -8.94963
343 1 18.8691 9.43453 18.8691 -8.94963
198 1 1.57242 1.57242 14.1518 -8.94963
342 1 15.7242 9.43453 18.8691 -8.94963
200 1 4.71726 1.57242 14.1518 -8.94963
201 1 6.28969 2.85496e-09 12.5794 -8.94963
202 1 7.86211 1.57242 14.1518 -8.94963
341 1 12.5794 9.43453 18.8691 -8.94964
204 1 11.007 1.57242 14.1518 -8.94963
340 1 9.43453 9.43453 18.8691 -8.94963
206 1 14.1518 1.57242 14.1518 -8.94963
207 1 15.7242 3.23396e-09 12.5794 -8.94963
208 1 17.2966 1.57242 14.1518 -8.94963
339 1 6.28969 9.43453 18.8691 -8.94963
210 1 20.4415 1.57242 14.1518 -8.94963
211 1 1.8213e-09 3.14484 12.5794 -8.94963
212 1 1.57242 4.71726 14.1518 -8.94963
213 1 3.14484 3.14484 12.5794 -8.94963
214 1 4.71726 4.71726 14.1518 -8.94961
215 1 6.28969 3.14484 12.5794 -8.94963
216 1 7.86211 4.71727 14.1518 -8.9497
217 1 9.43453 3.14484 12.5794 -8.94964
218 1 11.0069 4.71727 14.1518 -8.94965
219 1 12.5794 3.14484 12.5794 -8.94963
220 1 14.1518 4.71726 14.1518 -8.94963
221 1 15.7242 3.14484 12.5794 -8.94963
222 1 17.2966 4.71726 14.1518 -8.94963
223 1 18.8691 3.14484 12.5794 -8.94963
224 1 20.4415 4.71726 14.1518 -8.94963
225 1 22.0139 6.28969 12.5794 -8.94963
226 1 1.57242 7.86211 14.1518 -8.94963
227 1 3.14484 6.28969 12.5794 -8.94964
228 1 4.71727 7.86211 14.1518 -8.94966
229 1 6.28964 6.28963 12.5794 -8.94878
230 1 7.8621 7.8621 14.1518 -8.94996
231 1 9.43453 6.28972 12.5793 -8.95069
232 1 11.0069 7.86217 14.1517 -8.95144
233 1 12.5794 6.28964 12.5794 -8.94969
234 1 14.1518 7.86206 14.1518 -8.94885
235 1 15.7242 6.28969 12.5794 -8.94966
236 1 17.2966 7.86211 14.1518 -8.94964
237 1 18.8691 6.28969 12.5794 -8.94963
238 1 20.4415 7.86211 14.1518 -8.94963
239 1 22.0139 9.43453 12.5794 -8.94963
240 1 3.14484 9.43453 12.5794 -8.94963
241 1 6.28963 9.43447 12.5794 -8.94927
242 1 9.43376 9.43425 12.5796 -8.98165
243 1 12.5814 9.43302 12.581 -8.95909
244 1 15.7243 9.43452 12.5794 -8.95001
245 1 18.8691 9.43453 12.5794 -8.94964
246 1 3.62048e-11 4.90835e-11 15.7242 -8.94963
247 1 1.57242 1.57242 17.2966 -8.94963
248 1 3.14484 6.70259e-10 15.7242 -8.94963
249 1 4.71726 1.57242 17.2966 -8.94963
338 1 3.14484 9.43453 18.8691 -8.94963
251 1 7.86211 1.57242 17.2966 -8.94963
337 1 22.0139 9.43453 18.8691 -8.94963
253 1 11.007 1.57242 17.2966 -8.94963
336 1 20.4415 7.86211 20.4415 -8.94963
255 1 14.1518 1.57242 17.2966 -8.94963
335 1 18.8691 6.28969 18.8691 -8.94963
257 1 17.2966 1.57242 17.2966 -8.94963
258 1 18.8691 6.81696e-10 15.7242 -8.94963
259 1 20.4415 1.57242 17.2966 -8.94963
260 1 22.0139 3.14484 15.7242 -8.94963
261 1 1.57242 4.71726 17.2966 -8.94963
262 1 3.14484 3.14484 15.7242 -8.94963
263 1 4.71726 4.71726 17.2966 -8.94963
264 1 6.28969 3.14484 15.7242 -8.94963
265 1 7.86211 4.71726 17.2966 -8.94963
266 1 9.43453 3.14484 15.7242 -8.94963
267 1 11.007 4.71726 17.2966 -8.94963
268 1 12.5794 3.14484 15.7242 -8.94963
269 1 14.1518 4.71726 17.2966 -8.94963
270 1 15.7242 3.14484 15.7242 -8.94963
271 1 17.2966 4.71726 17.2966 -8.94963
272 1 18.8691 3.14484 15.7242 -8.94963
273 1 20.4415 4.71726 17.2966 -8.94963
274 1 22.0139 6.28969 15.7242 -8.94963
275 1 1.57242 7.86211 17.2966 -8.94963
276 1 3.14484 6.28969 15.7242 -8.94963
277 1 4.71726 7.86211 17.2966 -8.94963
278 1 6.28969 6.28969 15.7242 -8.94964
279 1 7.86211 7.86211 17.2966 -8.94964
280 1 9.43453 6.28969 15.7242 -8.94964
281 1 11.007 7.86211 17.2966 -8.94963
282 1 12.5794 6.28969 15.7242 -8.9497
283 1 14.1518 7.86211 17.2966 -8.94963
284 1 15.7242 6.28969 15.7242 -8.94961
285 1 17.2966 7.86211 17.2966 -8.94963
286 1 18.8691 6.28969 15.7242 -8.94963
287 1 20.4415 7.86211 17.2966 -8.94963
288 1 3.91098e-09 9.43453 15.7242 -8.94963
289 1 3.14484 9.43453 15.7242 -8.94964
290 1 6.28968 9.43453 15.7242 -8.94963
291 1 9.43452 9.43452 15.7242 -8.94953
292 1 12.5794 9.43452 15.7243 -8.94991
293 1 15.7242 9.43453 15.7242 -8.94967
294 1 18.8691 9.43453 15.7242 -8.94963
49 1 18.8691 9.43453 22.0139 -8.94963
296 1 1.57242 1.57242 20.4415 -8.94963
334 1 17.2966 7.86211 20.4415 -8.94963
298 1 4.71726 1.57242 20.4415 -8.94963
299 1 6.28969 3.9426e-10 18.8691 -8.94963
300 1 7.86211 1.57242 20.4415 -8.94963
333 1 15.7242 6.28969 18.8691 -8.94963
302 1 11.007 1.57242 20.4415 -8.94963
332 1 14.1518 7.86211 20.4415 -8.94963
304 1 14.1518 1.57242 20.4415 -8.94963
305 1 15.7242 3.96291e-10 18.8691 -8.94963
306 1 17.2966 1.57242 20.4415 -8.94963
331 1 12.5794 6.28969 18.8691 -8.94963
308 1 20.4415 1.57242 20.4415 -8.94963
309 1 22.0139 3.14484 18.8691 -8.94963
310 1 1.57242 4.71726 20.4415 -8.94963
311 1 3.14484 3.14484 18.8691 -8.94963
312 1 4.71726 4.71726 20.4415 -8.94963
313 1 6.28969 3.14484 18.8691 -8.94963
314 1 7.86211 4.71726 20.4415 -8.94963
315 1 9.43453 3.14484 18.8691 -8.94963
316 1 11.007 4.71726 20.4415 -8.94963
317 1 12.5794 3.14484 18.8691 -8.94963
318 1 14.1518 4.71726 20.4415 -8.94963
319 1 15.7242 3.14484 18.8691 -8.94963
320 1 17.2966 4.71726 20.4415 -8.94963
321 1 18.8691 3.14484 18.8691 -8.94963
322 1 20.4415 4.71726 20.4415 -8.94963
323 1 22.0139 6.28969 18.8691 -8.94963
324 1 1.57242 7.86211 20.4415 -8.94963
325 1 3.14484 6.28969 18.8691 -8.94963
326 1 4.71726 7.86211 20.4415 -8.94963
327 1 6.28969 6.28969 18.8691 -8.94963
328 1 7.86211 7.86211 20.4415 -8.94963
329 1 9.43453 6.28969 18.8691 -8.94963
330 1 11.007 7.86211 20.4415 -8.94963
512 1 1.57242 11.007 11.007 -8.94965
513 1 4.71717 11.0069 11.007 -8.95001
515 1 11.048 10.9903 11.0998 -8.24918
517 1 17.2967 11.0069 11.007 -8.94977
518 1 20.4415 11.007 11.007 -8.94964
540 1 1.57242 11.007 14.1518 -8.94963
541 1 4.71727 11.0069 14.1518 -8.94971
542 1 7.86207 11.0069 14.1519 -8.95025
544 1 14.1518 11.0069 14.1518 -8.95077
545 1 17.2966 11.0069 14.1518 -8.94964
546 1 20.4415 11.007 14.1518 -8.94963
47 1 12.5794 9.43453 22.0139 -8.94964
591 1 7.86211 11.0069 17.2966 -8.94966
592 1 11.007 11.0069 17.2967 -8.95001
593 1 14.1518 11.0069 17.2966 -8.94964
46 1 9.43453 9.43453 22.0139 -8.94964
638 1 1.57242 11.007 20.4415 -8.94963
639 1 4.71726 11.007 20.4415 -8.94963
640 1 7.86211 11.007 20.4415 -8.94963
3 1 3.14484 8.01514e-12 22.0139 -8.94963
39 1 15.7242 6.28969 22.0139 -8.94963
9 1 12.5794 1.3942e-10 22.0139 -8.94963
33 1 6.28969 6.28969 22.0139 -8.94963
13 1 18.8691 7.93259e-12 22.0139 -8.94963
15 1 22.0139 3.14484 22.0139 -8.94963
17 1 3.14484 3.14484 22.0139 -8.94963
31 1 3.14484 6.28969 22.0139 -8.94963
23 1 12.5794 3.14484 22.0139 -8.94963
29 1 22.0139 6.28969 22.0139 -8.94963
27 1 18.8691 3.14484 22.0139 -8.94963
21 1 9.43453 3.14484 22.0139 -8.94963
43 1 22.0139 9.43453 22.0139 -8.94963
539 1 20.4415 20.4415 11.007 -8.94963
688 3 10.2217 11.0093 9.43585 3.71079
346 1 7.86211 11.007 1.57242 -8.94966
347 1 11.007 11.007 1.57238 -8.95025
348 1 14.1518 11.007 1.57242 -8.94963
687 2 11.0055 12.5774 10.2203 0.896426
529 1 11.007 17.2972 11.0069 -8.95411
154 1 18.8691 22.0139 9.43453 -8.94963
352 1 1.57242 14.1518 1.57242 -8.94963
353 1 3.14484 12.5794 3.97225e-09 -8.94963
354 1 4.71726 14.1518 1.57242 -8.94963
149 1 3.14484 22.0139 9.43453 -8.94963
356 1 7.86211 14.1518 1.57242 -8.94963
393 1 1.57242 11.007 4.71726 -8.94963
358 1 11.007 14.1518 1.57242 -8.94966
399 1 20.4415 11.007 4.71726 -8.94963
360 1 14.1518 14.1518 1.57242 -8.94962
361 1 15.7242 12.5794 7.01291e-08 -8.94963
362 1 17.2966 14.1518 1.57242 -8.94963
363 1 18.8691 12.5794 -3.80696e-09 -8.94963
364 1 20.4415 14.1518 1.57242 -8.94963
109 1 15.7242 22.0139 6.28969 -8.94963
366 1 1.57242 17.2966 1.57242 -8.94963
103 1 6.28969 22.0139 6.28969 -8.94963
368 1 4.71726 17.2966 1.57242 -8.94963
369 1 6.28969 15.7242 -1.07977e-08 -8.94963
370 1 7.86211 17.2966 1.57242 -8.94963
99 1 22.0139 22.0139 6.28969 -8.94963
372 1 11.007 17.2966 1.57242 -8.94963
62 1 18.8691 22.0139 3.14484 -8.94963
374 1 14.1518 17.2966 1.57242 -8.94963
375 1 15.7242 15.7242 -1.66852e-08 -8.94963
376 1 17.2966 17.2966 1.57242 -8.94963
58 1 12.5794 22.0139 3.14484 -8.94963
378 1 20.4415 17.2966 1.57242 -8.94963
1 1 22.0139 22.0139 -2.27244e-12 -8.94963
380 1 1.57242 20.4415 1.57242 -8.94963
381 1 3.14484 18.8691 -6.91238e-11 -8.94963
382 1 4.71726 20.4415 1.57242 -8.94963
56 1 9.43453 22.0139 3.14484 -8.94963
384 1 7.86211 20.4415 1.57242 -8.94963
385 1 9.43453 18.8691 2.7266e-09 -8.94963
386 1 11.007 20.4415 1.57242 -8.94963
387 1 12.5794 18.8691 1.19654e-09 -8.94963
388 1 14.1518 20.4415 1.57242 -8.94963
52 1 3.14484 22.0139 3.14484 -8.94963
390 1 17.2966 20.4415 1.57242 -8.94963
391 1 18.8691 18.8691 3.32278e-10 -8.94963
392 1 20.4415 20.4415 1.57242 -8.94963
511 1 18.8691 18.8691 9.43453 -8.94963
510 1 15.7242 18.8691 9.43453 -8.94963
395 1 7.86215 11.007 4.71726 -8.95099
396 1 11.007 11.007 4.71495 -8.96625
397 1 14.1517 11.007 4.71733 -8.95153
509 1 12.5794 18.8691 9.43452 -8.94953
508 1 9.43452 18.8691 9.43452 -8.95009
400 1 4.18327e-09 12.5794 3.14484 -8.94963
401 1 1.57242 14.1518 4.71726 -8.94963
402 1 3.14484 12.5794 3.14484 -8.94964
403 1 4.71726 14.1518 4.71726 -8.94966
404 1 6.28968 12.5794 3.14484 -8.94965
405 1 7.86211 14.1518 4.71723 -8.95005
406 1 9.4345 12.5794 3.14482 -8.94916
407 1 11.0069 14.1517 4.71724 -8.9517
408 1 12.5794 12.5794 3.1448 -8.94953
409 1 14.1518 14.1518 4.71723 -8.94894
410 1 15.7242 12.5794 3.14485 -8.94968
411 1 17.2966 14.1518 4.71726 -8.94964
412 1 18.8691 12.5794 3.14484 -8.94963
413 1 20.4415 14.1518 4.71726 -8.94963
414 1 22.0139 15.7242 3.14484 -8.94963
415 1 1.57242 17.2966 4.71726 -8.94963
416 1 3.14484 15.7242 3.14484 -8.94963
417 1 4.71726 17.2966 4.71726 -8.94961
418 1 6.28969 15.7242 3.14484 -8.94964
419 1 7.86211 17.2966 4.71726 -8.94967
420 1 9.43453 15.7242 3.14484 -8.94965
421 1 11.0069 17.2966 4.71727 -8.94969
422 1 12.5794 15.7242 3.14484 -8.9497
423 1 14.1518 17.2966 4.71726 -8.9496
424 1 15.7242 15.7242 3.14484 -8.94962
425 1 17.2966 17.2966 4.71726 -8.94964
426 1 18.8691 15.7242 3.14484 -8.94963
427 1 20.4415 17.2966 4.71726 -8.94963
428 1 22.0139 18.8691 3.14484 -8.94963
429 1 1.57242 20.4415 4.71726 -8.94963
430 1 3.14484 18.8691 3.14484 -8.94963
431 1 4.71726 20.4415 4.71726 -8.94963
432 1 6.28969 18.8691 3.14484 -8.94963
433 1 7.86211 20.4415 4.71726 -8.94963
434 1 9.43453 18.8691 3.14484 -8.94963
435 1 11.007 20.4415 4.71726 -8.94963
436 1 12.5794 18.8691 3.14484 -8.94964
437 1 14.1518 20.4415 4.71726 -8.94963
438 1 15.7242 18.8691 3.14484 -8.94963
439 1 17.2966 20.4415 4.71726 -8.94963
440 1 18.8691 18.8691 3.14484 -8.94963
441 1 20.4415 20.4415 4.71726 -8.94963
507 1 6.28969 18.8691 9.43453 -8.94964
506 1 3.14484 18.8691 9.43453 -8.94963
444 1 7.85948 11.0069 7.85989 -8.95488
505 1 22.0139 18.8691 9.43453 -8.94963
446 1 14.1525 11.0069 7.86215 -8.99951
504 1 18.8691 15.7242 9.43453 -8.94964
503 1 15.7242 15.7242 9.43453 -8.95004
449 1 22.0139 12.5794 6.28969 -8.94963
450 1 1.57242 14.1518 7.86211 -8.94964
451 1 3.14484 12.5794 6.28969 -8.94964
452 1 4.71722 14.1518 7.86209 -8.94976
453 1 6.28965 12.5794 6.28966 -8.94977
454 1 7.86062 14.1537 7.86033 -8.95916
455 1 9.43432 12.5801 6.28992 -8.98864
456 1 11.0076 14.154 7.85871 -8.97755
457 1 12.5808 12.5813 6.28857 -8.96861
458 1 14.1514 14.1519 7.86223 -8.99015
459 1 15.7242 12.5794 6.28971 -8.95047
460 1 17.2966 14.1518 7.8621 -8.94942
461 1 18.8691 12.5794 6.28969 -8.94964
462 1 20.4415 14.1518 7.86211 -8.94963
463 1 22.0139 15.7242 6.28969 -8.94963
464 1 1.57242 17.2966 7.86211 -8.94963
465 1 3.14484 15.7242 6.28969 -8.94963
466 1 4.71727 17.2966 7.86211 -8.9497
467 1 6.28964 15.7243 6.28964 -8.94885
468 1 7.86208 17.2967 7.86208 -8.94977
469 1 9.43449 15.7243 6.28966 -8.9503
470 1 11.007 17.2967 7.86207 -8.94996
471 1 12.5794 15.7243 6.2896 -8.94929
472 1 14.1518 17.2966 7.86211 -8.94969
473 1 15.7242 15.7242 6.28969 -8.94975
474 1 17.2966 17.2966 7.86211 -8.94964
475 1 18.8691 15.7242 6.28969 -8.94963
476 1 20.4415 17.2966 7.86211 -8.94963
477 1 1.69235e-09 18.8691 6.28969 -8.94963
478 1 1.57242 20.4415 7.86211 -8.94963
479 1 3.14484 18.8691 6.28969 -8.94963
480 1 4.71726 20.4415 7.86211 -8.94963
481 1 6.28969 18.8691 6.28969 -8.94963
482 1 7.86211 20.4415 7.86211 -8.94964
483 1 9.43453 18.8691 6.28969 -8.94965
484 1 11.007 20.4415 7.86211 -8.94965
485 1 12.5794 18.8691 6.28968 -8.94964
486 1 14.1518 20.4415 7.86211 -8.94963
487 1 15.7242 18.8691 6.28969 -8.94963
488 1 17.2966 20.4415 7.86211 -8.94963
489 1 18.8691 18.8691 6.28969 -8.94963
490 1 20.4415 20.4415 7.86211 -8.94963
491 1 22.0139 12.5794 9.43453 -8.94964
492 1 3.14481 12.5794 9.43453 -8.95007
493 1 6.28797 12.5795 9.43457 -8.96156
494 1 9.37675 12.6635 9.42616 -8.24719
495 1 12.6001 12.5818 9.42572 -9.20483
496 1 15.7249 12.5794 9.43456 -8.95482
497 1 18.8691 12.5794 9.43453 -8.94981
498 1 3.88332e-09 15.7242 9.43453 -8.94963
499 1 3.14484 15.7242 9.43453 -8.94964
500 1 6.28972 15.7242 9.43453 -8.95172
501 1 9.43455 15.7264 9.43435 -9.02113
502 1 12.5793 15.7241 9.43435 -9.00623
526 1 1.57242 17.2966 11.007 -8.94963
11 1 15.7242 22.0139 2.01589e-10 -8.94963
5 1 6.28969 22.0139 -5.57708e-11 -8.94963
527 1 4.71727 17.2966 11.0069 -8.9497
532 1 20.4415 17.2966 11.007 -8.94963
534 1 4.71726 20.4415 11.007 -8.94963
538 1 17.2966 20.4415 11.007 -8.94963
365 1 22.0139 15.7242 1.09467e-10 -8.94963
686 1 20.4415 20.4415 20.4415 -8.94963
685 1 18.8691 18.8691 18.8691 -8.94963
514 1 7.85909 11.007 11.0096 -8.96794
684 1 17.2966 20.4415 20.4415 -8.94963
516 1 14.1528 11.007 11.0073 -9.0138
683 1 15.7242 18.8691 18.8691 -8.94963
682 1 14.1518 20.4415 20.4415 -8.94963
519 1 1.57242 14.1518 11.007 -8.94964
520 1 4.71721 14.1518 11.007 -8.94982
521 1 7.86034 14.1535 11.009 -8.97605
522 1 11.0076 14.1698 11.0165 -9.23424
523 1 14.1518 14.1518 11.0072 -9.00461
524 1 17.2966 14.1518 11.007 -8.9495
525 1 20.4415 14.1518 11.007 -8.94963
594 1 17.2966 11.007 17.2966 -8.94964
590 1 4.71726 11.007 17.2966 -8.94963
528 1 7.86209 17.2967 11.007 -8.95007
307 1 18.8691 22.0139 18.8691 -8.94963
530 1 14.1518 17.2966 11.0069 -8.95
531 1 17.2966 17.2966 11.007 -8.94964
295 1 22.0139 22.0139 18.8691 -8.94963
533 1 1.57242 20.4415 11.007 -8.94963
377 1 18.8691 15.7242 22.0139 -8.94963
535 1 7.86211 20.4415 11.007 -8.94965
536 1 11.007 20.4415 11.007 -8.94979
537 1 14.1518 20.4415 11.007 -8.94964
373 1 12.5794 15.7242 22.0139 -8.94963
303 1 12.5794 22.0139 18.8691 -8.94963
681 1 12.5794 18.8691 18.8691 -8.94963
680 1 11.007 20.4415 20.4415 -8.94963
679 1 9.43453 18.8691 18.8691 -8.94963
543 1 11.007 11.0074 14.1533 -9.01199
678 1 7.86211 20.4415 20.4415 -8.94963
677 1 6.28969 18.8691 18.8691 -8.94963
676 1 4.71726 20.4415 20.4415 -8.94963
547 1 22.0139 12.5794 12.5794 -8.94963
548 1 1.57242 14.1518 14.1518 -8.94963
549 1 3.14484 12.5794 12.5794 -8.94966
550 1 4.71726 14.1518 14.1518 -8.94967
551 1 6.28957 12.5794 12.5794 -8.94984
552 1 7.86202 14.1519 14.1519 -8.94929
553 1 9.43207 12.5801 12.5825 -8.97733
554 1 11.0069 14.1513 14.1511 -8.99853
555 1 12.583 12.5812 12.5838 -8.95914
556 1 14.1519 14.1519 14.1519 -8.9482
557 1 15.7243 12.5794 12.5794 -8.95055
558 1 17.2966 14.1518 14.1518 -8.94965
559 1 18.8691 12.5794 12.5794 -8.94966
560 1 20.4415 14.1518 14.1518 -8.94963
561 1 22.0139 15.7242 12.5794 -8.94963
562 1 1.57242 17.2966 14.1518 -8.94963
563 1 3.14484 15.7242 12.5794 -8.94963
564 1 4.71726 17.2966 14.1518 -8.94961
565 1 6.28964 15.7243 12.5794 -8.94881
566 1 7.86212 17.2966 14.1518 -8.9498
567 1 9.43446 15.7237 12.5791 -8.99191
568 1 11.0069 17.2966 14.1518 -8.95015
569 1 12.5795 15.7238 12.5792 -8.99085
570 1 14.1518 17.2966 14.1518 -8.94973
571 1 15.7242 15.7242 12.5794 -8.94969
572 1 17.2966 17.2966 14.1518 -8.94963
573 1 18.8691 15.7242 12.5794 -8.94963
574 1 20.4415 17.2966 14.1518 -8.94963
575 1 1.65913e-09 18.8691 12.5794 -8.94963
576 1 1.57242 20.4415 14.1518 -8.94963
577 1 3.14484 18.8691 12.5794 -8.94963
578 1 4.71726 20.4415 14.1518 -8.94963
579 1 6.28968 18.8691 12.5794 -8.94963
580 1 7.86211 20.4415 14.1518 -8.94963
581 1 9.43452 18.8691 12.5794 -8.94943
582 1 11.007 20.4415 14.1518 -8.94963
583 1 12.5794 18.8691 12.5794 -8.94942
584 1 14.1518 20.4415 14.1518 -8.94963
585 1 15.7242 18.8691 12.5794 -8.94963
586 1 17.2966 20.4415 14.1518 -8.94963
587 1 18.8691 18.8691 12.5794 -8.94963
588 1 20.4415 20.4415 14.1518 -8.94963
589 1 1.57242 11.007 17.2966 -8.94963
675 1 3.14484 18.8691 18.8691 -8.94963
674 1 1.57242 20.4415 20.4415 -8.94963
673 1 22.0139 18.8691 18.8691 -8.94963
672 1 20.4415 17.2966 20.4415 -8.94963
671 1 18.8691 15.7242 18.8691 -8.94963
595 1 20.4415 11.007 17.2966 -8.94963
596 1 4.07323e-09 12.5794 15.7242 -8.94963
597 1 1.57242 14.1518 17.2966 -8.94963
598 1 3.14484 12.5794 15.7242 -8.94964
599 1 4.71726 14.1518 17.2966 -8.94964
600 1 6.28969 12.5794 15.7242 -8.9497
601 1 7.86211 14.1518 17.2966 -8.94963
602 1 9.43451 12.5794 15.7243 -8.95018
603 1 11.007 14.1518 17.2966 -8.94944
604 1 12.5794 12.5794 15.7243 -8.95052
605 1 14.1518 14.1518 17.2966 -8.94963
606 1 15.7242 12.5794 15.7242 -8.94974
607 1 17.2966 14.1518 17.2966 -8.94964
608 1 18.8691 12.5794 15.7242 -8.94963
609 1 20.4415 14.1518 17.2966 -8.94963
610 1 22.0139 15.7242 15.7242 -8.94963
611 1 1.57242 17.2966 17.2966 -8.94963
612 1 3.14484 15.7242 15.7242 -8.94963
613 1 4.71726 17.2966 17.2966 -8.94963
614 1 6.28968 15.7242 15.7242 -8.9496
615 1 7.86211 17.2966 17.2966 -8.94964
616 1 9.43454 15.7242 15.7242 -8.9498
617 1 11.007 17.2966 17.2966 -8.94961
618 1 12.5794 15.7242 15.7242 -8.94986
619 1 14.1518 17.2966 17.2966 -8.94964
620 1 15.7242 15.7242 15.7242 -8.94958
621 1 17.2966 17.2966 17.2966 -8.94963
622 1 18.8691 15.7242 15.7242 -8.94963
623 1 20.4415 17.2966 17.2966 -8.94963
624 1 22.0139 18.8691 15.7242 -8.94963
625 1 1.57242 20.4415 17.2966 -8.94963
626 1 3.14484 18.8691 15.7242 -8.94963
627 1 4.71726 20.4415 17.2966 -8.94963
628 1 6.28969 18.8691 15.7242 -8.94964
629 1 7.86211 20.4415 17.2966 -8.94963
630 1 9.43453 18.8691 15.7242 -8.94963
631 1 11.007 20.4415 17.2966 -8.94963
632 1 12.5794 18.8691 15.7242 -8.94963
633 1 14.1518 20.4415 17.2966 -8.94963
634 1 15.7242 18.8691 15.7242 -8.94964
635 1 17.2966 20.4415 17.2966 -8.94963
636 1 18.8691 18.8691 15.7242 -8.94963
637 1 20.4415 20.4415 17.2966 -8.94963
670 1 17.2966 17.2966 20.4415 -8.94963
669 1 15.7242 15.7242 18.8691 -8.94963
668 1 14.1518 17.2966 20.4415 -8.94963
667 1 12.5794 15.7242 18.8691 -8.94963
666 1 11.007 17.2966 20.4415 -8.94963
665 1 9.43453 15.7242 18.8691 -8.94963
664 1 7.86211 17.2966 20.4415 -8.94963
645 1 22.0139 12.5794 18.8691 -8.94963
646 1 1.57242 14.1518 20.4415 -8.94963
647 1 3.14484 12.5794 18.8691 -8.94963
648 1 4.71726 14.1518 20.4415 -8.94963
649 1 6.28969 12.5794 18.8691 -8.94963
650 1 7.86211 14.1518 20.4415 -8.94963
651 1 9.43453 12.5794 18.8691 -8.94966
652 1 11.007 14.1518 20.4415 -8.94963
653 1 12.5794 12.5794 18.8691 -8.94966
654 1 14.1518 14.1518 20.4415 -8.94963
655 1 15.7242 12.5794 18.8691 -8.94963
656 1 17.2966 14.1518 20.4415 -8.94963
657 1 18.8691 12.5794 18.8691 -8.94963
658 1 20.4415 14.1518 20.4415 -8.94963
659 1 22.0139 15.7242 18.8691 -8.94963
660 1 1.57242 17.2966 20.4415 -8.94963
661 1 3.14484 15.7242 18.8691 -8.94963
662 1 4.71726 17.2966 20.4415 -8.94963
663 1 6.28969 15.7242 18.8691 -8.94963
197 1 22.0139 22.0139 12.5794 -8.94963
199 1 3.14484 22.0139 12.5794 -8.94963
203 1 9.43453 22.0139 12.5794 -8.94963
205 1 12.5794 22.0139 12.5794 -8.94963
209 1 18.8691 22.0139 12.5794 -8.94963
250 1 6.28969 22.0139 15.7242 -8.94963
389 1 15.7242 18.8691 22.0139 -8.94963
383 1 6.28969 18.8691 22.0139 -8.94963
256 1 15.7242 22.0139 15.7242 -8.94963
297 1 3.14484 22.0139 18.8691 -8.94963
301 1 9.43453 22.0139 18.8691 -8.94963
351 1 22.0139 12.5794 22.0139 -8.94963
355 1 6.28969 12.5794 22.0139 -8.94963
371 1 9.43453 15.7242 22.0139 -8.94963
367 1 3.14484 15.7242 22.0139 -8.94963
357 1 9.43453 12.5794 22.0139 -8.94963
359 1 12.5794 12.5794 22.0139 -8.94964
379 1 22.0139 18.8691 22.0139 -8.94963
