ITEM: TIMESTEP
32
ITEM: NUMBER OF ATOMS
688
ITEM: BOX BOUNDS pp pp pp
0.0000000000000000e+00 2.2013900999999997e+01
0.0000000000000000e+00 2.2013900999999997e+01
0.0000000000000000e+00 2.2013900999999997e+01
ITEM: ATOMS id type x y z c_pot
189 1 20.4415 4.71726 11.007 -8.94963
2 1 1.57242 1.57242 1.57242 -8.94963
448 1 20.4415 11.007 7.86211 -8.94963
4 1 4.71726 1.57242 1.57242 -8.94963
447 1 17.2966 11.0069 7.86211 -8.94961
6 1 7.86211 1.57242 1.57242 -8.94963
7 1 9.43453 3.70278e-11 8.23808e-12 -8.94963
8 1 11.007 1.57242 1.57242 -8.94963
445 1 11.0374 11.0056 7.7984 -7.94794
10 1 14.1518 1.57242 1.57242 -8.94963
443 1 4.71722 11.0069 7.8621 -8.95001
12 1 17.2966 1.57242 1.57242 -8.94963
442 1 1.57242 11.007 7.86211 -8.94964
14 1 20.4415 1.57242 1.57242 -8.94963
188 1 17.2966 4.71726 11.007 -8.94963
16 1 1.57242 4.71726 1.57242 -8.94963
398 1 17.2966 11.007 4.71726 -8.94962
18 1 4.71726 4.71726 1.57242 -8.94963
394 1 4.71727 11.007 4.71727 -8.94968
20 1 7.86211 4.71726 1.57242 -8.94963
50 1 2.90878e-12 3.48568e-12 3.14484 -8.94963
22 1 11.007 4.71726 1.57242 -8.94963
183 1 1.57242 4.71726 11.007 -8.94963
24 1 14.1518 4.71726 1.57242 -8.94963
349 1 17.2966 11.007 1.57242 -8.94963
26 1 17.2966 4.71726 1.57242 -8.94963
345 1 4.71726 11.007 1.57242 -8.94963
28 1 20.4415 4.71726 1.57242 -8.94963
165 1 9.43451 6.2886 9.43453 -8.96234
30 1 1.57242 7.86211 1.57242 -8.94963
164 1 6.28972 6.28972 9.43453 -8.95099
32 1 4.71726 7.86211 1.57242 -8.94963
163 1 3.14484 6.28969 9.43453 -8.94963
34 1 7.86211 7.86211 1.57242 -8.94963
35 1 9.43453 6.28969 1.38847e-08 -8.94963
36 1 11.007 7.86211 1.57242 -8.94964
37 1 12.5794 6.28969 1.69132e-08 -8.94963
38 1 14.1518 7.86211 1.57242 -8.94963
162 1 2.37833e-09 6.28969 9.43453 -8.94963
40 1 17.2966 7.86211 1.57242 -8.94963
161 1 18.8691 3.14484 9.43453 -8.94963
42 1 20.4415 7.86211 1.57242 -8.94963
350 1 20.4415 11.007 1.57242 -8.94963
44 1 3.14484 9.43453 1.83991e-10 -8.94963
160 1 15.7242 3.14484 9.43453 -8.94963
159 1 12.5794 3.14484 9.43453 -8.94965
158 1 9.43453 3.14483 9.43453 -8.94992
48 1 15.7242 9.43453 2.28281e-08 -8.94963
157 1 6.28969 3.14484 9.43453 -8.94963
175 1 18.8691 9.43453 9.43453 -8.94965
51 1 1.57242 1.57242 4.71726 -8.94963
174 1 15.7243 9.43452 9.43453 -8.9504
53 1 4.71726 1.57242 4.71726 -8.94963
54 1 6.28969 4.46242e-10 3.14484 -8.94963
55 1 7.86211 1.57242 4.71726 -8.94963
173 1 12.5818 9.43275 9.43444 -8.96925
57 1 11.007 1.57242 4.71726 -8.94963
172 1 9.404 9.37276 9.43442 -7.96255
59 1 14.1518 1.57242 4.71726 -8.94963
60 1 15.7242 4.33071e-10 3.14484 -8.94963
61 1 17.2966 1.57242 4.71726 -8.94963
171 1 6.28917 9.43446 9.43453 -8.95646
63 1 20.4415 1.57242 4.71726 -8.94963
64 1 22.0139 3.14484 3.14484 -8.94963
65 1 1.57242 4.71726 4.71726 -8.94963
66 1 3.14484 3.14484 3.14484 -8.94963
67 1 4.71726 4.71726 4.71726 -8.94963
68 1 6.28969 3.14484 3.14484 -8.94963
69 1 7.86211 4.71727 4.71727 -8.94967
70 1 9.43453 3.14484 3.14484 -8.94963
71 1 11.007 4.71726 4.71726 -8.94964
72 1 12.5794 3.14484 3.14484 -8.94963
73 1 14.1518 4.71726 4.71726 -8.94963
74 1 15.7242 3.14484 3.14484 -8.94963
75 1 17.2966 4.71726 4.71726 -8.94963
76 1 18.8691 3.14484 3.14484 -8.94963
77 1 20.4415 4.71726 4.71726 -8.94963
78 1 22.0139 6.28969 3.14484 -8.94963
79 1 1.57242 7.86211 4.71726 -8.94963
80 1 3.14484 6.28969 3.14484 -8.94963
81 1 4.71726 7.86211 4.71726 -8.94965
82 1 6.28969 6.28969 3.14484 -8.94963
83 1 7.8621 7.8621 4.71725 -8.94973
84 1 9.43453 6.28969 3.14484 -8.94964
85 1 11.0069 7.86214 4.71729 -8.95061
86 1 12.5794 6.28969 3.14484 -8.94967
87 1 14.1518 7.86209 4.71725 -8.94923
88 1 15.7242 6.28969 3.14484 -8.94962
89 1 17.2966 7.86211 4.71726 -8.94964
90 1 18.8691 6.28969 3.14484 -8.94963
91 1 20.4415 7.86211 4.71726 -8.94963
92 1 9.03141e-10 9.43453 3.14484 -8.94963
93 1 3.14484 9.43453 3.14484 -8.94963
94 1 6.28969 9.43453 3.14484 -8.94965
95 1 9.43452 9.43452 3.14483 -8.94951
96 1 12.5794 9.43452 3.14482 -8.94967
97 1 15.7242 9.43453 3.14484 -8.94967
98 1 18.8691 9.43453 3.14484 -8.94963
170 1 3.14484 9.43453 9.43453 -8.94976
100 1 1.57242 1.57242 7.86211 -8.94963
101 1 3.14484 2.83154e-10 6.28969 -8.94963
102 1 4.71726 1.57242 7.86211 -8.94963
169 1 22.0139 9.43453 9.43453 -8.94963
104 1 7.86211 1.57242 7.86211 -8.94964
105 1 9.43453 9.94226e-09 6.28969 -8.94963
106 1 11.007 1.57242 7.86211 -8.94963
107 1 12.5794 9.49996e-09 6.28969 -8.94963
108 1 14.1518 1.57242 7.86211 -8.94963
168 1 18.8691 6.28969 9.43453 -8.94963
110 1 17.2966 1.57242 7.86211 -8.94963
111 1 18.8691 2.63439e-10 6.28969 -8.94963
112 1 20.4415 1.57242 7.86211 -8.94963
113 1 2.56053e-10 3.14484 6.28969 -8.94963
114 1 1.57242 4.71726 7.86211 -8.94963
115 1 3.14484 3.14484 6.28969 -8.94963
116 1 4.71727 4.71727 7.86211 -8.94967
117 1 6.28969 3.14484 6.28969 -8.94963
118 1 7.8621 4.71724 7.8621 -8.94967
119 1 9.43453 3.14484 6.28969 -8.94964
120 1 11.007 4.71725 7.8621 -8.94952
121 1 12.5794 3.14484 6.28969 -8.94963
122 1 14.1518 4.71726 7.86211 -8.94964
123 1 15.7242 3.14484 6.28969 -8.94963
124 1 17.2966 4.71726 7.86211 -8.94963
125 1 18.8691 3.14484 6.28969 -8.94963
126 1 20.4415 4.71726 7.86211 -8.94963
127 1 22.0139 6.28969 6.28969 -8.94963
128 1 1.57242 7.86211 7.86211 -8.94964
129 1 3.14484 6.28969 6.28969 -8.94963
130 1 4.71725 7.8621 7.8621 -8.94979
131 1 6.28967 6.28967 6.28967 -8.94925
132 1 7.86126 7.8613 7.86125 -8.93036
133 1 9.43453 6.28971 6.28971 -8.95057
134 1 11.0073 7.86187 7.86177 -8.94403
135 1 12.5794 6.28967 6.28968 -8.94975
136 1 14.1518 7.86209 7.86208 -8.94935
137 1 15.7242 6.28969 6.28969 -8.94964
138 1 17.2966 7.86211 7.86211 -8.94963
139 1 18.8691 6.28969 6.28969 -8.94963
140 1 20.4415 7.86211 7.86211 -8.94963
141 1 22.0139 9.43453 6.28969 -8.94963
142 1 3.14484 9.43453 6.28969 -8.94963
143 1 6.28967 9.4345 6.28967 -8.94944
144 1 9.43419 9.43416 6.28944 -8.94308
145 1 12.5803 9.43363 6.28884 -8.92967
146 1 15.7242 9.43453 6.28969 -8.94989
147 1 18.8691 9.43453 6.28969 -8.94963
148 1 9.83109e-11 3.40089e-12 9.43453 -8.94963
167 1 15.7242 6.28969 9.43453 -8.94969
150 1 6.28969 -1.8359e-10 9.43453 -8.94963
151 1 9.43453 4.28738e-08 9.43453 -8.94964
152 1 12.5794 4.37769e-08 9.43453 -8.94963
153 1 15.7242 -8.95179e-10 9.43453 -8.94963
166 1 12.5794 6.28968 9.43453 -8.95046
155 1 22.0139 3.14484 9.43453 -8.94963
156 1 3.14484 3.14484 9.43453 -8.94963
181 1 17.2966 1.57242 11.007 -8.94963
344 1 1.57242 11.007 1.57242 -8.94963
177 1 4.71726 1.57242 11.007 -8.94963
184 1 4.71727 4.71727 11.007 -8.94967
45 1 6.28969 9.43453 6.66215e-09 -8.94963
41 1 18.8691 6.28969 2.77711e-10 -8.94963
19 1 6.28969 3.14484 3.06552e-10 -8.94963
25 1 15.7242 3.14484 1.90212e-10 -8.94963
176 1 1.57242 1.57242 11.007 -8.94963
254 1 12.5794 -2.2393e-10 15.7242 -8.94963
178 1 7.86211 1.57242 11.007 -8.94964
179 1 11.007 1.57242 11.007 -8.94964
180 1 14.1518 1.57242 11.007 -8.94963
644 1 20.4415 11.007 20.4415 -8.94963
182 1 20.4415 1.57242 11.007 -8.94963
643 1 17.2966 11.007 20.4415 -8.94963
252 1 9.43453 -1.94307e-10 15.7242 -8.94963
185 1 7.8621 4.71724 11.007 -8.94967
186 1 11.007 4.71725 11.007 -8.94958
187 1 14.1518 4.71726 11.007 -8.94965
642 1 14.1518 11.007 20.4415 -8.94963
641 1 11.007 11.007 20.4415 -8.94964
190 1 1.57242 7.86211 11.007 -8.94964
191 1 4.71725 7.8621 11.007 -8.94979
192 1 7.86126 7.8613 11.0078 -8.93057
193 1 11.0073 7.86163 11.0073 -8.94695
194 1 14.1518 7.86209 11.007 -8.94958
195 1 17.2966 7.86211 11.007 -8.94963
196 1 20.4415 7.86211 11.007 -8.94963
343 1 18.8691 9.43453 18.8691 -8.94963
198 1 1.57242 1.57242 14.1518 -8.94963
342 1 15.7242 9.43453 18.8691 -8.94963
200 1 4.71726 1.57242 14.1518 -8.94963
201 1 6.28969 2.61864e-09 12.5794 -8.94963
202 1 7.86211 1.57242 14.1518 -8.94963
341 1 12.5794 9.43453 18.8691 -8.94963
204 1 11.007 1.57242 14.1518 -8.94963
340 1 9.43453 9.43453 18.8691 -8.94963
206 1 14.1518 1.57242 14.1518 -8.94963
207 1 15.7242 2.67779e-09 12.5794 -8.94963
208 1 17.2966 1.57242 14.1518 -8.94963
339 1 6.28969 9.43453 18.8691 -8.94963
210 1 20.4415 1.57242 14.1518 -8.94963
211 1 2.55472e-10 3.14484 12.5794 -8.94963
212 1 1.57242 4.71726 14.1518 -8.94963
213 1 3.14484 3.14484 12.5794 -8.94963
214 1 4.71726 4.71726 14.1518 -8.94962
215 1 6.28969 3.14484 12.5794 -8.94963
216 1 7.86211 4.71727 14.1518 -8.94966
217 1 9.43453 3.14484 12.5794 -8.94963
218 1 11.007 4.71727 14.1518 -8.94964
219 1 12.5794 3.14484 12.5794 -8.94963
220 1 14.1518 4.71726 14.1518 -8.94963
221 1 15.7242 3.14484 12.5794 -8.94963
222 1 17.2966 4.71726 14.1518 -8.94963
223 1 18.8691 3.14484 12.5794 -8.94963
224 1 20.4415 4.71726 14.1518 -8.94963
225 1 22.0139 6.28969 12.5794 -8.94963
226 1 1.57242 7.86211 14.1518 -8.94963
227 1 3.14484 6.28969 12.5794 -8.94963
228 1 4.71726 7.86211 14.1518 -8.94964
229 1 6.28967 6.28967 12.5794 -8.94925
230 1 7.86211 7.86211 14.1518 -8.94984
231 1 9.43453 6.28971 12.5793 -8.95042
232 1 11.0069 7.86214 14.1518 -8.95097
233 1 12.5794 6.28967 12.5794 -8.94961
234 1 14.1518 7.8621 14.1518 -8.94934
235 1 15.7242 6.28969 12.5794 -8.94964
236 1 17.2966 7.86211 14.1518 -8.94963
237 1 18.8691 6.28969 12.5794 -8.94963
238 1 20.4415 7.86211 14.1518 -8.94963
239 1 22.0139 9.43453 12.5794 -8.94963
240 1 3.14484 9.43453 12.5794 -8.94963
241 1 6.28966 9.4345 12.5794 -8.94935
242 1 9.43423 9.43457 12.5794 -8.98597
243 1 12.5802 9.43403 12.58 -8.97138
244 1 15.7242 9.43453 12.5794 -8.94981
245 1 18.8691 9.43453 12.5794 -8.94963
246 1 2.87015e-12 7.88824e-12 15.7242 -8.94963
247 1 1.57242 1.57242 17.2966 -8.94963
248 1 3.14484 1.51279e-10 15.7242 -8.94963
249 1 4.71726 1.57242 17.2966 -8.94963
338 1 3.14484 9.43453 18.8691 -8.94963
251 1 7.86211 1.57242 17.2966 -8.94963
337 1 22.0139 9.43453 18.8691 -8.94963
253 1 11.007 1.57242 17.2966 -8.94963
336 1 20.4415 7.86211 20.4415 -8.94963
255 1 14.1518 1.57242 17.2966 -8.94963
335 1 18.8691 6.28969 18.8691 -8.94963
257 1 17.2966 1.57242 17.2966 -8.94963
258 1 18.8691 1.52415e-10 15.7242 -8.94963
259 1 20.4415 1.57242 17.2966 -8.94963
260 1 22.0139 3.14484 15.7242 -8.94963
261 1 1.57242 4.71726 17.2966 -8.94963
262 1 3.14484 3.14484 15.7242 -8.94963
263 1 4.71726 4.71726 17.2966 -8.94963
264 1 6.28969 3.14484 15.7242 -8.94963
265 1 7.86211 4.71726 17.2966 -8.94963
266 1 9.43453 3.14484 15.7242 -8.94963
267 1 11.007 4.71726 17.2966 -8.94963
268 1 12.5794 3.14484 15.7242 -8.94963
269 1 14.1518 4.71726 17.2966 -8.94963
270 1 15.7242 3.14484 15.7242 -8.94963
271 1 17.2966 4.71726 17.2966 -8.94963
272 1 18.8691 3.14484 15.7242 -8.94963
273 1 20.4415 4.71726 17.2966 -8.94963
274 1 22.0139 6.28969 15.7242 -8.94963
275 1 1.57242 7.86211 17.2966 -8.94963
276 1 3.14484 6.28969 15.7242 -8.94963
277 1 4.71726 7.86211 17.2966 -8.94963
278 1 6.28969 6.28969 15.7242 -8.94964
279 1 7.86211 7.86211 17.2966 -8.94963
280 1 9.43453 6.28969 15.7242 -8.94963
281 1 11.007 7.86211 17.2966 -8.94963
282 1 12.5794 6.28969 15.7242 -8.94966
283 1 14.1518 7.86211 17.2966 -8.94963
284 1 15.7242 6.28969 15.7242 -8.94963
285 1 17.2966 7.86211 17.2966 -8.94963
286 1 18.8691 6.28969 15.7242 -8.94963
287 1 20.4415 7.86211 17.2966 -8.94963
288 1 8.83206e-10 9.43453 15.7242 -8.94963
289 1 3.14484 9.43453 15.7242 -8.94963
290 1 6.28969 9.43453 15.7242 -8.94963
291 1 9.43453 9.43453 15.7242 -8.9496
292 1 12.5794 9.43453 15.7242 -8.94977
293 1 15.7242 9.43453 15.7242 -8.94965
294 1 18.8691 9.43453 15.7242 -8.94963
49 1 18.8691 9.43453 22.0139 -8.94963
296 1 1.57242 1.57242 20.4415 -8.94963
334 1 17.2966 7.86211 20.4415 -8.94963
298 1 4.71726 1.57242 20.4415 -8.94963
299 1 6.28969 1.09017e-10 18.8691 -8.94963
300 1 7.86211 1.57242 20.4415 -8.94963
333 1 15.7242 6.28969 18.8691 -8.94963
302 1 11.007 1.57242 20.4415 -8.94963
332 1 14.1518 7.86211 20.4415 -8.94963
304 1 14.1518 1.57242 20.4415 -8.94963
305 1 15.7242 1.08959e-10 18.8691 -8.94963
306 1 17.2966 1.57242 20.4415 -8.94963
331 1 12.5794 6.28969 18.8691 -8.94963
308 1 20.4415 1.57242 20.4415 -8.94963
309 1 22.0139 3.14484 18.8691 -8.94963
310 1 1.57242 4.71726 20.4415 -8.94963
311 1 3.14484 3.14484 18.8691 -8.94963
312 1 4.71726 4.71726 20.4415 -8.94963
313 1 6.28969 3.14484 18.8691 -8.94963
314 1 7.86211 4.71726 20.4415 -8.94963
315 1 9.43453 3.14484 18.8691 -8.94963
316 1 11.007 4.71726 20.4415 -8.94963
317 1 12.5794 3.14484 18.8691 -8.94963
318 1 14.1518 4.71726 20.4415 -8.94963
319 1 15.7242 3.14484 18.8691 -8.94963
320 1 17.2966 4.71726 20.4415 -8.94963
321 1 18.8691 3.14484 18.8691 -8.94963
322 1 20.4415 4.71726 20.4415 -8.94963
323 1 22.0139 6.28969 18.8691 -8.94963
324 1 1.57242 7.86211 20.4415 -8.94963
325 1 3.14484 6.28969 18.8691 -8.94963
326 1 4.71726 7.86211 20.4415 -8.94963
327 1 6.28969 6.28969 18.8691 -8.94963
328 1 7.86211 7.86211 20.4415 -8.94963
329 1 9.43453 6.28969 18.8691 -8.94963
330 1 11.007 7.86211 20.4415 -8.94963
512 1 1.57242 11.007 11.007 -8.94964
513 1 4.71722 11.0069 11.007 -8.95008
515 1 11.0373 10.9951 11.0744 -8.20311
517 1 17.2966 11.0069 11.007 -8.94968
518 1 20.4415 11.007 11.007 -8.94963
540 1 1.57242 11.007 14.1518 -8.94963
541 1 4.71727 11.007 14.1518 -8.94969
542 1 7.86209 11.0069 14.1518 -8.95013
544 1 14.1518 11.0069 14.1518 -8.95059
545 1 17.2966 11.007 14.1518 -8.94963
546 1 20.4415 11.007 14.1518 -8.94963
47 1 12.5794 9.43453 22.0139 -8.94964
591 1 7.86211 11.007 17.2966 -8.94965
592 1 11.007 11.007 17.2966 -8.94977
593 1 14.1518 11.007 17.2966 -8.94963
46 1 9.43453 9.43453 22.0139 -8.94963
638 1 1.57242 11.007 20.4415 -8.94963
639 1 4.71726 11.007 20.4415 -8.94963
640 1 7.86211 11.007 20.4415 -8.94963
3 1 3.14484 1.23021e-12 22.0139 -8.94963
39 1 15.7242 6.28969 22.0139 -8.94963
9 1 12.5794 3.33402e-11 22.0139 -8.94963
33 1 6.28969 6.28969 22.0139 -8.94963
13 1 18.8691 1.20708e-12 22.0139 -8.94963
15 1 22.0139 3.14484 22.0139 -8.94963
17 1 3.14484 3.14484 22.0139 -8.94963
31 1 3.14484 6.28969 22.0139 -8.94963
23 1 12.5794 3.14484 22.0139 -8.94963
29 1 22.0139 6.28969 22.0139 -8.94963
27 1 18.8691 3.14484 22.0139 -8.94963
21 1 9.43453 3.14484 22.0139 -8.94963
43 1 22.0139 9.43453 22.0139 -8.94963
539 1 20.4415 20.4415 11.007 -8.94963
688 3 10.2212 11.0079 9.43497 4.11026
346 1 7.86211 11.007 1.57242 -8.94964
347 1 11.007 11.007 1.57241 -8.94993
348 1 14.1518 11.007 1.57242 -8.94963
687 2 11.0063 12.5785 10.2205 0.987646
529 1 11.007 17.2969 11.0069 -8.95292
154 1 18.8691 22.0139 9.43453 -8.94963
352 1 1.57242 14.1518 1.57242 -8.94963
353 1 3.14484 12.5794 1.23121e-09 -8.94963
354 1 4.71726 14.1518 1.57242 -8.94963
149 1 3.14484 22.0139 9.43453 -8.94963
356 1 7.86211 14.1518 1.57242 -8.94963
393 1 1.57242 11.007 4.71726 -8.94963
358 1 11.007 14.1518 1.57242 -8.94965
399 1 20.4415 11.007 4.71726 -8.94963
360 1 14.1518 14.1518 1.57242 -8.94963
361 1 15.7242 12.5794 1.28589e-08 -8.94963
362 1 17.2966 14.1518 1.57242 -8.94963
363 1 18.8691 12.5794 -4.3551e-10 -8.94963
364 1 20.4415 14.1518 1.57242 -8.94963
109 1 15.7242 22.0139 6.28969 -8.94963
366 1 1.57242 17.2966 1.57242 -8.94963
103 1 6.28969 22.0139 6.28969 -8.94963
368 1 4.71726 17.2966 1.57242 -8.94963
369 1 6.28969 15.7242 2.96952e-10 -8.94963
370 1 7.86211 17.2966 1.57242 -8.94963
99 1 22.0139 22.0139 6.28969 -8.94963
372 1 11.007 17.2966 1.57242 -8.94963
62 1 18.8691 22.0139 3.14484 -8.94963
374 1 14.1518 17.2966 1.57242 -8.94963
375 1 15.7242 15.7242 -8.30406e-10 -8.94963
376 1 17.2966 17.2966 1.57242 -8.94963
58 1 12.5794 22.0139 3.14484 -8.94963
378 1 20.4415 17.2966 1.57242 -8.94963
1 1 22.0139 22.0139 -1.40185e-13 -8.94963
380 1 1.57242 20.4415 1.57242 -8.94963
381 1 3.14484 18.8691 1.99605e-11 -8.94963
382 1 4.71726 20.4415 1.57242 -8.94963
56 1 9.43453 22.0139 3.14484 -8.94963
384 1 7.86211 20.4415 1.57242 -8.94963
385 1 9.43453 18.8691 7.54221e-10 -8.94963
386 1 11.007 20.4415 1.57242 -8.94963
387 1 12.5794 18.8691 5.02706e-10 -8.94963
388 1 14.1518 20.4415 1.57242 -8.94963
52 1 3.14484 22.0139 3.14484 -8.94963
390 1 17.2966 20.4415 1.57242 -8.94963
391 1 18.8691 18.8691 6.69373e-11 -8.94963
392 1 20.4415 20.4415 1.57242 -8.94963
511 1 18.8691 18.8691 9.43453 -8.94963
510 1 15.7242 18.8691 9.43453 -8.94963
395 1 7.86213 11.007 4.71727 -8.95064
396 1 11.007 11.007 4.71615 -8.96273
397 1 14.1518 11.007 4.71731 -8.95109
509 1 12.5794 18.8691 9.43453 -8.94957
508 1 9.43453 18.8691 9.43453 -8.94984
400 1 9.25011e-10 12.5794 3.14484 -8.94963
401 1 1.57242 14.1518 4.71726 -8.94963
402 1 3.14484 12.5794 3.14484 -8.94963
403 1 4.71726 14.1518 4.71726 -8.94964
404 1 6.28969 12.5794 3.14484 -8.94964
405 1 7.86211 14.1518 4.71726 -8.94985
406 1 9.43452 12.5794 3.14484 -8.94936
407 1 11.0069 14.1518 4.71726 -8.95115
408 1 12.5794 12.5794 3.14483 -8.94952
409 1 14.1518 14.1518 4.71726 -8.94935
410 1 15.7242 12.5794 3.14484 -8.94966
411 1 17.2966 14.1518 4.71726 -8.94963
412 1 18.8691 12.5794 3.14484 -8.94963
413 1 20.4415 14.1518 4.71726 -8.94963
414 1 22.0139 15.7242 3.14484 -8.94963
415 1 1.57242 17.2966 4.71726 -8.94963
416 1 3.14484 15.7242 3.14484 -8.94963
417 1 4.71726 17.2966 4.71726 -8.94963
418 1 6.28969 15.7242 3.14484 -8.94964
419 1 7.86211 17.2966 4.71726 -8.94965
420 1 9.43453 15.7242 3.14484 -8.94964
421 1 11.007 17.2966 4.71727 -8.94967
422 1 12.5794 15.7242 3.14484 -8.94966
423 1 14.1518 17.2966 4.71726 -8.94961
424 1 15.7242 15.7242 3.14484 -8.94963
425 1 17.2966 17.2966 4.71726 -8.94963
426 1 18.8691 15.7242 3.14484 -8.94963
427 1 20.4415 17.2966 4.71726 -8.94963
428 1 22.0139 18.8691 3.14484 -8.94963
429 1 1.57242 20.4415 4.71726 -8.94963
430 1 3.14484 18.8691 3.14484 -8.94963
431 1 4.71726 20.4415 4.71726 -8.94963
432 1 6.28969 18.8691 3.14484 -8.94963
433 1 7.86211 20.4415 4.71726 -8.94963
434 1 9.43453 18.8691 3.14484 -8.94963
435 1 11.007 20.4415 4.71726 -8.94963
436 1 12.5794 18.8691 3.14484 -8.94963
437 1 14.1518 20.4415 4.71726 -8.94963
438 1 15.7242 18.8691 3.14484 -8.94963
439 1 17.2966 20.4415 4.71726 -8.94963
440 1 18.8691 18.8691 3.14484 -8.94963
441 1 20.4415 20.4415 4.71726 -8.94963
507 1 6.28969 18.8691 9.43453 -8.94963
506 1 3.14484 18.8691 9.43453 -8.94963
444 1 7.85998 11.007 7.86046 -8.95646
505 1 22.0139 18.8691 9.43453 -8.94963
446 1 14.1519 11.007 7.86224 -8.99887
504 1 18.8691 15.7242 9.43453 -8.94964
503 1 15.7242 15.7242 9.43453 -8.94993
449 1 22.0139 12.5794 6.28969 -8.94963
450 1 1.57242 14.1518 7.86211 -8.94963
451 1 3.14484 12.5794 6.28969 -8.94964
452 1 4.71725 14.1518 7.8621 -8.94965
453 1 6.28967 12.5794 6.28967 -8.94972
454 1 7.86162 14.1526 7.86143 -8.97139
455 1 9.43454 12.5797 6.28998 -8.9907
456 1 11.0073 14.1533 7.85986 -8.97994
457 1 12.5799 12.5802 6.28938 -8.97743
458 1 14.1514 14.1518 7.86227 -8.99189
459 1 15.7242 12.5794 6.28969 -8.95016
460 1 17.2966 14.1518 7.86211 -8.94949
461 1 18.8691 12.5794 6.28969 -8.94964
462 1 20.4415 14.1518 7.86211 -8.94963
463 1 22.0139 15.7242 6.28969 -8.94963
464 1 1.57242 17.2966 7.86211 -8.94963
465 1 3.14484 15.7242 6.28969 -8.94963
466 1 4.71726 17.2966 7.86211 -8.94966
467 1 6.28967 15.7242 6.28968 -8.94934
468 1 7.8621 17.2967 7.8621 -8.94969
469 1 9.43451 15.7242 6.28968 -8.95016
470 1 11.007 17.2967 7.86209 -8.94993
471 1 12.5794 15.7243 6.28965 -8.94933
472 1 14.1518 17.2966 7.86211 -8.94966
473 1 15.7242 15.7242 6.28969 -8.94974
474 1 17.2966 17.2966 7.86211 -8.94963
475 1 18.8691 15.7242 6.28969 -8.94963
476 1 20.4415 17.2966 7.86211 -8.94963
477 1 2.37212e-10 18.8691 6.28969 -8.94963
478 1 1.57242 20.4415 7.86211 -8.94963
479 1 3.14484 18.8691 6.28969 -8.94963
480 1 4.71726 20.4415 7.86211 -8.94963
481 1 6.28969 18.8691 6.28969 -8.94963
482 1 7.86211 20.4415 7.86211 -8.94963
483 1 9.43453 18.8691 6.28969 -8.94964
484 1 11.007 20.4415 7.86211 -8.94964
485 1 12.5794 18.8691 6.28969 -8.94964
486 1 14.1518 20.4415 7.86211 -8.94963
487 1 15.7242 18.8691 6.28969 -8.94963
488 1 17.2966 20.4415 7.86211 -8.94963
489 1 18.8691 18.8691 6.28969 -8.94963
490 1 20.4415 20.4415 7.86211 -8.94963
491 1 22.0139 12.5794 9.43453 -8.94964
492 1 3.14483 12.5794 9.43453 -8.94984
493 1 6.28887 12.5794 9.43456 -8.95884
494 1 9.39229 12.6408 9.4286 -8.20208
495 1 12.5941 12.5812 9.42837 -9.20987
496 1 15.7245 12.5794 9.43455 -8.95351
497 1 18.8691 12.5794 9.43453 -8.94972
498 1 1.60875e-09 15.7242 9.43453 -8.94963
499 1 3.14484 15.7242 9.43453 -8.94963
500 1 6.28972 15.7242 9.43453 -8.95126
501 1 9.43457 15.7252 9.43444 -9.0183
502 1 12.5793 15.7241 9.43444 -9.00649
526 1 1.57242 17.2966 11.007 -8.94963
11 1 15.7242 22.0139 2.81789e-11 -8.94963
5 1 6.28969 22.0139 -3.60718e-12 -8.94963
527 1 4.71727 17.2966 11.007 -8.94966
532 1 20.4415 17.2966 11.007 -8.94963
534 1 4.71726 20.4415 11.007 -8.94963
538 1 17.2966 20.4415 11.007 -8.94963
365 1 22.0139 15.7242 2.32038e-11 -8.94963
686 1 20.4415 20.4415 20.4415 -8.94963
685 1 18.8691 18.8691 18.8691 -8.94963
514 1 7.85968 11.007 11.0089 -8.96923
684 1 17.2966 20.4415 20.4415 -8.94963
516 1 14.1522 11.007 11.0071 -9.01219
683 1 15.7242 18.8691 18.8691 -8.94963
682 1 14.1518 20.4415 20.4415 -8.94963
519 1 1.57242 14.1518 11.007 -8.94963
520 1 4.71725 14.1518 11.007 -8.94971
521 1 7.86135 14.1525 11.0079 -8.98601
522 1 11.0072 14.1643 11.0134 -9.23952
523 1 14.1517 14.1518 11.0071 -9.00528
524 1 17.2966 14.1518 11.007 -8.94956
525 1 20.4415 14.1518 11.007 -8.94963
594 1 17.2966 11.007 17.2966 -8.94963
590 1 4.71726 11.007 17.2966 -8.94963
528 1 7.8621 17.2967 11.007 -8.94991
307 1 18.8691 22.0139 18.8691 -8.94963
530 1 14.1518 17.2966 11.007 -8.94988
531 1 17.2966 17.2966 11.007 -8.94963
295 1 22.0139 22.0139 18.8691 -8.94963
533 1 1.57242 20.4415 11.007 -8.94963
377 1 18.8691 15.7242 22.0139 -8.94963
535 1 7.86211 20.4415 11.007 -8.94964
536 1 11.007 20.4415 11.007 -8.94971
537 1 14.1518 20.4415 11.007 -8.94964
373 1 12.5794 15.7242 22.0139 -8.94963
303 1 12.5794 22.0139 18.8691 -8.94963
681 1 12.5794 18.8691 18.8691 -8.94963
680 1 11.007 20.4415 20.4415 -8.94963
679 1 9.43453 18.8691 18.8691 -8.94963
543 1 11.007 11.0073 14.1524 -9.00862
678 1 7.86211 20.4415 20.4415 -8.94963
677 1 6.28969 18.8691 18.8691 -8.94963
676 1 4.71726 20.4415 20.4415 -8.94963
547 1 22.0139 12.5794 12.5794 -8.94963
548 1 1.57242 14.1518 14.1518 -8.94963
549 1 3.14484 12.5794 12.5794 -8.94965
550 1 4.71726 14.1518 14.1518 -8.94965
551 1 6.28963 12.5794 12.5794 -8.94976
552 1 7.86207 14.1518 14.1518 -8.94934
553 1 9.43295 12.5797 12.5815 -8.97984
554 1 11.0069 14.1514 14.1513 -8.99769
555 1 12.5815 12.5802 12.5821 -8.96744
556 1 14.1518 14.1518 14.1518 -8.94884
557 1 15.7243 12.5794 12.5794 -8.95021
558 1 17.2966 14.1518 14.1518 -8.94964
559 1 18.8691 12.5794 12.5794 -8.94965
560 1 20.4415 14.1518 14.1518 -8.94963
561 1 22.0139 15.7242 12.5794 -8.94963
562 1 1.57242 17.2966 14.1518 -8.94963
563 1 3.14484 15.7242 12.5794 -8.94963
564 1 4.71726 17.2966 14.1518 -8.94963
565 1 6.28967 15.7242 12.5794 -8.94927
566 1 7.86211 17.2966 14.1518 -8.94976
567 1 9.43455 15.7238 12.5791 -8.99317
568 1 11.007 17.2966 14.1518 -8.95
569 1 12.5794 15.7239 12.5792 -8.99234
570 1 14.1518 17.2966 14.1518 -8.94973
571 1 15.7242 15.7242 12.5794 -8.94966
572 1 17.2966 17.2966 14.1518 -8.94963
573 1 18.8691 15.7242 12.5794 -8.94963
574 1 20.4415 17.2966 14.1518 -8.94963
575 1 2.33687e-10 18.8691 12.5794 -8.94963
576 1 1.57242 20.4415 14.1518 -8.94963
577 1 3.14484 18.8691 12.5794 -8.94963
578 1 4.71726 20.4415 14.1518 -8.94963
579 1 6.28969 18.8691 12.5794 -8.94963
580 1 7.86211 20.4415 14.1518 -8.94963
581 1 9.43453 18.8691 12.5794 -8.94949
582 1 11.007 20.4415 14.1518 -8.94963
583 1 12.5794 18.8691 12.5794 -8.94948
584 1 14.1518 20.4415 14.1518 -8.94963
585 1 15.7242 18.8691 12.5794 -8.94963
586 1 17.2966 20.4415 14.1518 -8.94963
587 1 18.8691 18.8691 12.5794 -8.94963
588 1 20.4415 20.4415 14.1518 -8.94963
589 1 1.57242 11.007 17.2966 -8.94963
675 1 3.14484 18.8691 18.8691 -8.94963
674 1 1.57242 20.4415 20.4415 -8.94963
673 1 22.0139 18.8691 18.8691 -8.94963
672 1 20.4415 17.2966 20.4415 -8.94963
671 1 18.8691 15.7242 18.8691 -8.94963
595 1 20.4415 11.007 17.2966 -8.94963
596 1 9.05589e-10 12.5794 15.7242 -8.94963
597 1 1.57242 14.1518 17.2966 -8.94963
598 1 3.14484 12.5794 15.7242 -8.94963
599 1 4.71726 14.1518 17.2966 -8.94963
600 1 6.28969 12.5794 15.7242 -8.94968
601 1 7.86211 14.1518 17.2966 -8.94963
602 1 9.43452 12.5794 15.7243 -8.95008
603 1 11.007 14.1518 17.2966 -8.94949
604 1 12.5794 12.5794 15.7243 -8.95024
605 1 14.1518 14.1518 17.2966 -8.94963
606 1 15.7242 12.5794 15.7242 -8.9497
607 1 17.2966 14.1518 17.2966 -8.94963
608 1 18.8691 12.5794 15.7242 -8.94963
609 1 20.4415 14.1518 17.2966 -8.94963
610 1 22.0139 15.7242 15.7242 -8.94963
611 1 1.57242 17.2966 17.2966 -8.94963
612 1 3.14484 15.7242 15.7242 -8.94963
613 1 4.71726 17.2966 17.2966 -8.94963
614 1 6.28969 15.7242 15.7242 -8.94961
615 1 7.86211 17.2966 17.2966 -8.94964
616 1 9.43454 15.7242 15.7242 -8.94974
617 1 11.007 17.2966 17.2966 -8.94962
618 1 12.5794 15.7242 15.7242 -8.94976
619 1 14.1518 17.2966 17.2966 -8.94964
620 1 15.7242 15.7242 15.7242 -8.94961
621 1 17.2966 17.2966 17.2966 -8.94963
622 1 18.8691 15.7242 15.7242 -8.94963
623 1 20.4415 17.2966 17.2966 -8.94963
624 1 22.0139 18.8691 15.7242 -8.94963
625 1 1.57242 20.4415 17.2966 -8.94963
626 1 3.14484 18.8691 15.7242 -8.94963
627 1 4.71726 20.4415 17.2966 -8.94963
628 1 6.28969 18.8691 15.7242 -8.94964
629 1 7.86211 20.4415 17.2966 -8.94963
630 1 9.43453 18.8691 15.7242 -8.94963
631 1 11.007 20.4415 17.2966 -8.94963
632 1 12.5794 18.8691 15.7242 -8.94963
633 1 14.1518 20.4415 17.2966 -8.94963
634 1 15.7242 18.8691 15.7242 -8.94963
635 1 17.2966 20.4415 17.2966 -8.94963
636 1 18.8691 18.8691 15.7242 -8.94963
637 1 20.4415 20.4415 17.2966 -8.94963
670 1 17.2966 17.2966 20.4415 -8.94963
669 1 15.7242 15.7242 18.8691 -8.94963
668 1 14.1518 17.2966 20.4415 -8.94963
667 1 12.5794 15.7242 18.8691 -8.94963
666 1 11.007 17.2966 20.4415 -8.94963
665 1 9.43453 15.7242 18.8691 -8.94963
664 1 7.86211 17.2966 20.4415 -8.94963
645 1 22.0139 12.5794 18.8691 -8.94963
646 1 1.57242 14.1518 20.4415 -8.94963
647 1 3.14484 12.5794 18.8691 -8.94963
648 1 4.71726 14.1518 20.4415 -8.94963
649 1 6.28969 12.5794 18.8691 -8.94963
650 1 7.86211 14.1518 20.4415 -8.94963
651 1 9.43453 12.5794 18.8691 -8.94964
652 1 11.007 14.1518 20.4415 -8.94963
653 1 12.5794 12.5794 18.8691 -8.94965
654 1 14.1518 14.1518 20.4415 -8.94963
655 1 15.7242 12.5794 18.8691 -8.94963
656 1 17.2966 14.1518 20.4415 -8.94963
657 1 18.8691 12.5794 18.8691 -8.94963
658 1 20.4415 14.1518 20.4415 -8.94963
659 1 22.0139 15.7242 18.8691 -8.94963
660 1 1.57242 17.2966 20.4415 -8.94963
661 1 3.14484 15.7242 18.8691 -8.94963
662 1 4.71726 17.2966 20.4415 -8.94963
663 1 6.28969 15.7242 18.8691 -8.94963
197 1 22.0139 22.0139 12.5794 -8.94963
199 1 3.14484 22.0139 12.5794 -8.94963
203 1 9.43453 22.0139 12.5794 -8.94963
205 1 12.5794 22.0139 12.5794 -8.94963
209 1 18.8691 22.0139 12.5794 -8.94963
250 1 6.28969 22.0139 15.7242 -8.94963
389 1 15.7242 18.8691 22.0139 -8.94963
383 1 6.28969 18.8691 22.0139 -8.94963
256 1 15.7242 22.0139 15.7242 -8.94963
297 1 3.14484 22.0139 18.8691 -8.94963
301 1 9.43453 22.0139 18.8691 -8.94963
351 1 22.0139 12.5794 22.0139 -8.94963
355 1 6.28969 12.5794 22.0139 -8.94963
371 1 9.43453 15.7242 22.0139 -8.94963
367 1 3.14484 15.7242 22.0139 -8.94963
357 1 9.43453 12.5794 22.0139 -8.94963
359 1 12.5794 12.5794 22.0139 -8.94963
379 1 22.0139 18.8691 22.0139 -8.94963
