ITEM: TIMESTEP
36
ITEM: NUMBER OF ATOMS
688
ITEM: BOX BOUNDS pp pp pp
0.0000000000000000e+00 2.2013900999999997e+01
0.0000000000000000e+00 2.2013900999999997e+01
0.0000000000000000e+00 2.2013900999999997e+01
ITEM: ATOMS id type x y z c_pot
189 1 20.4415 4.71726 11.007 -8.94963
2 1 1.57242 1.57242 1.57242 -8.94963
448 1 20.4415 11.007 7.86211 -8.94963
4 1 4.71726 1.57242 1.57242 -8.94963
447 1 17.2967 11.0069 7.8621 -8.94967
6 1 7.86211 1.57242 1.57242 -8.94963
7 1 9.43453 1.18538e-10 -2.79203e-11 -8.94963
8 1 11.007 1.57242 1.57242 -8.94963
445 1 11.0459 11.0051 7.77961 -7.99604
10 1 14.1518 1.57242 1.57242 -8.94963
443 1 4.71719 11.0069 7.86208 -8.94996
12 1 17.2966 1.57242 1.57242 -8.94963
442 1 1.57242 11.007 7.86211 -8.94965
14 1 20.4415 1.57242 1.57242 -8.94963
188 1 17.2966 4.71726 11.007 -8.94964
16 1 1.57242 4.71726 1.57242 -8.94963
398 1 17.2966 11.007 4.71726 -8.94962
18 1 4.71726 4.71726 1.57242 -8.94963
394 1 4.71727 11.007 4.71727 -8.94969
20 1 7.86211 4.71726 1.57242 -8.94963
50 1 2.20751e-11 1.66797e-11 3.14484 -8.94963
22 1 11.007 4.71726 1.57242 -8.94963
183 1 1.57242 4.71726 11.007 -8.94963
24 1 14.1518 4.71726 1.57242 -8.94963
349 1 17.2966 11.007 1.57242 -8.94963
26 1 17.2966 4.71726 1.57242 -8.94963
345 1 4.71726 11.007 1.57242 -8.94963
28 1 20.4415 4.71726 1.57242 -8.94963
165 1 9.4345 6.28771 9.43452 -8.96496
30 1 1.57242 7.86211 1.57242 -8.94963
164 1 6.28973 6.28973 9.43453 -8.95129
32 1 4.71726 7.86211 1.57242 -8.94963
163 1 3.14484 6.28969 9.43453 -8.94962
34 1 7.86211 7.86211 1.57242 -8.94963
35 1 9.43453 6.28969 4.58574e-08 -8.94963
36 1 11.007 7.86211 1.57242 -8.94964
37 1 12.5794 6.28969 6.00537e-08 -8.94963
38 1 14.1518 7.86211 1.57242 -8.94963
162 1 6.62131e-09 6.28969 9.43453 -8.94963
40 1 17.2966 7.86211 1.57242 -8.94963
161 1 18.8691 3.14484 9.43453 -8.94963
42 1 20.4415 7.86211 1.57242 -8.94963
350 1 20.4415 11.007 1.57242 -8.94963
44 1 3.14484 9.43453 5.36012e-10 -8.94963
160 1 15.7242 3.14484 9.43453 -8.94963
159 1 12.5794 3.14484 9.43453 -8.94966
158 1 9.43453 3.14481 9.43453 -8.95015
48 1 15.7242 9.43453 7.64104e-08 -8.94963
157 1 6.28969 3.14484 9.43453 -8.94963
175 1 18.8691 9.43453 9.43453 -8.94965
51 1 1.57242 1.57242 4.71726 -8.94963
174 1 15.7243 9.43452 9.43453 -8.95049
53 1 4.71726 1.57242 4.71726 -8.94963
54 1 6.28969 1.58236e-09 3.14484 -8.94963
55 1 7.86211 1.57242 4.71726 -8.94963
173 1 12.5823 9.4323 9.43439 -8.96834
57 1 11.007 1.57242 4.71726 -8.94963
172 1 9.39549 9.35476 9.43435 -8.01087
59 1 14.1518 1.57242 4.71726 -8.94963
60 1 15.7242 1.52692e-09 3.14484 -8.94963
61 1 17.2966 1.57242 4.71726 -8.94963
171 1 6.28874 9.43441 9.43453 -8.95821
63 1 20.4415 1.57242 4.71726 -8.94963
64 1 22.0139 3.14484 3.14484 -8.94963
65 1 1.57242 4.71726 4.71726 -8.94963
66 1 3.14484 3.14484 3.14484 -8.94963
67 1 4.71726 4.71726 4.71726 -8.94961
68 1 6.28969 3.14484 3.14484 -8.94963
69 1 7.86211 4.71727 4.71727 -8.94969
70 1 9.43453 3.14484 3.14484 -8.94963
71 1 11.0069 4.71727 4.71727 -8.94964
72 1 12.5794 3.14484 3.14484 -8.94963
73 1 14.1518 4.71726 4.71726 -8.94963
74 1 15.7242 3.14484 3.14484 -8.94963
75 1 17.2966 4.71726 4.71726 -8.94963
76 1 18.8691 3.14484 3.14484 -8.94963
77 1 20.4415 4.71726 4.71726 -8.94963
78 1 22.0139 6.28969 3.14484 -8.94963
79 1 1.57242 7.86211 4.71726 -8.94963
80 1 3.14484 6.28969 3.14484 -8.94963
81 1 4.71726 7.86211 4.71727 -8.94966
82 1 6.28969 6.28969 3.14484 -8.94963
83 1 7.86209 7.86209 4.71722 -8.9498
84 1 9.43453 6.28969 3.14484 -8.94965
85 1 11.0069 7.86215 4.7173 -8.95089
86 1 12.5794 6.28969 3.14485 -8.94969
87 1 14.1518 7.86207 4.71722 -8.94887
88 1 15.7242 6.28969 3.14484 -8.94961
89 1 17.2966 7.86211 4.71726 -8.94964
90 1 18.8691 6.28969 3.14484 -8.94963
91 1 20.4415 7.86211 4.71726 -8.94963
92 1 2.9342e-09 9.43453 3.14484 -8.94963
93 1 3.14484 9.43453 3.14484 -8.94964
94 1 6.28969 9.43453 3.14484 -8.94966
95 1 9.43451 9.43451 3.14481 -8.9494
96 1 12.5794 9.43451 3.14479 -8.94971
97 1 15.7242 9.43453 3.14485 -8.9497
98 1 18.8691 9.43453 3.14484 -8.94963
170 1 3.14483 9.43453 9.43453 -8.94987
100 1 1.57242 1.57242 7.86211 -8.94963
101 1 3.14484 9.08049e-10 6.28969 -8.94963
102 1 4.71726 1.57242 7.86211 -8.94963
169 1 22.0139 9.43453 9.43453 -8.94964
104 1 7.86211 1.57242 7.86211 -8.94964
105 1 9.43453 2.66017e-08 6.28969 -8.94963
106 1 11.007 1.57242 7.86211 -8.94963
107 1 12.5794 2.48724e-08 6.28969 -8.94963
108 1 14.1518 1.57242 7.86211 -8.94963
168 1 18.8691 6.28969 9.43453 -8.94963
110 1 17.2966 1.57242 7.86211 -8.94963
111 1 18.8691 8.14234e-10 6.28969 -8.94963
112 1 20.4415 1.57242 7.86211 -8.94963
113 1 1.22436e-09 3.14484 6.28969 -8.94963
114 1 1.57242 4.71726 7.86211 -8.94963
115 1 3.14484 3.14484 6.28969 -8.94963
116 1 4.71727 4.71727 7.86211 -8.94969
117 1 6.28969 3.14484 6.28969 -8.94963
118 1 7.86209 4.71722 7.86209 -8.94971
119 1 9.43453 3.14484 6.28969 -8.94964
120 1 11.007 4.71724 7.86209 -8.94942
121 1 12.5794 3.14484 6.28969 -8.94963
122 1 14.1518 4.71726 7.86211 -8.94965
123 1 15.7242 3.14484 6.28969 -8.94963
124 1 17.2966 4.71726 7.86211 -8.94964
125 1 18.8691 3.14484 6.28969 -8.94963
126 1 20.4415 4.71726 7.86211 -8.94963
127 1 22.0139 6.28969 6.28969 -8.94963
128 1 1.57242 7.86211 7.86211 -8.94964
129 1 3.14484 6.28969 6.28969 -8.94963
130 1 4.71723 7.8621 7.8621 -8.94992
131 1 6.28965 6.28965 6.28965 -8.94891
132 1 7.86051 7.86058 7.8605 -8.92326
133 1 9.43454 6.28972 6.28973 -8.95084
134 1 11.0075 7.86168 7.86148 -8.94222
135 1 12.5794 6.28964 6.28967 -8.94985
136 1 14.1518 7.86207 7.86206 -8.94929
137 1 15.7242 6.28969 6.28968 -8.94966
138 1 17.2966 7.86211 7.86211 -8.94964
139 1 18.8691 6.28969 6.28969 -8.94963
140 1 20.4415 7.86211 7.86211 -8.94963
141 1 22.0139 9.43453 6.28969 -8.94963
142 1 3.14484 9.43453 6.28969 -8.94963
143 1 6.28964 9.43449 6.28965 -8.94938
144 1 9.4339 9.43386 6.28924 -8.94087
145 1 12.581 9.43285 6.2881 -8.92216
146 1 15.7242 9.43453 6.28969 -8.95002
147 1 18.8691 9.43453 6.28969 -8.94964
148 1 2.43575e-10 -1.85026e-11 9.43453 -8.94963
167 1 15.7242 6.28969 9.43453 -8.94969
150 1 6.28969 -4.27636e-09 9.43453 -8.94963
151 1 9.43453 1.29705e-07 9.43453 -8.94965
152 1 12.5794 1.33314e-07 9.43453 -8.94963
153 1 15.7242 -7.12849e-09 9.43453 -8.94963
166 1 12.5794 6.28967 9.43452 -8.95066
155 1 22.0139 3.14484 9.43453 -8.94963
156 1 3.14484 3.14484 9.43453 -8.94963
181 1 17.2966 1.57242 11.007 -8.94963
344 1 1.57242 11.007 1.57242 -8.94963
177 1 4.71726 1.57242 11.007 -8.94963
184 1 4.71727 4.71727 11.0069 -8.94969
45 1 6.28969 9.43453 2.64238e-08 -8.94963
41 1 18.8691 6.28969 1.33516e-09 -8.94963
19 1 6.28969 3.14484 1.4849e-09 -8.94963
25 1 15.7242 3.14484 9.77715e-10 -8.94963
176 1 1.57242 1.57242 11.007 -8.94963
254 1 12.5794 -5.48825e-09 15.7242 -8.94963
178 1 7.86211 1.57242 11.007 -8.94964
179 1 11.007 1.57242 11.007 -8.94964
180 1 14.1518 1.57242 11.007 -8.94963
644 1 20.4415 11.007 20.4415 -8.94963
182 1 20.4415 1.57242 11.007 -8.94963
643 1 17.2966 11.007 20.4415 -8.94963
252 1 9.43453 -5.43391e-09 15.7242 -8.94963
185 1 7.86209 4.71722 11.007 -8.94971
186 1 11.007 4.71723 11.007 -8.94953
187 1 14.1518 4.71726 11.007 -8.94966
642 1 14.1518 11.007 20.4415 -8.94963
641 1 11.007 11.007 20.4415 -8.94965
190 1 1.57242 7.86211 11.007 -8.94964
191 1 4.71723 7.8621 11.007 -8.94992
192 1 7.86052 7.86059 11.0086 -8.92354
193 1 11.0075 7.86127 11.0075 -8.94599
194 1 14.1518 7.86207 11.007 -8.94958
195 1 17.2966 7.86211 11.007 -8.94964
196 1 20.4415 7.86211 11.007 -8.94963
343 1 18.8691 9.43453 18.8691 -8.94963
198 1 1.57242 1.57242 14.1518 -8.94963
342 1 15.7242 9.43453 18.8691 -8.94963
200 1 4.71726 1.57242 14.1518 -8.94963
201 1 6.28969 3.42634e-09 12.5794 -8.94963
202 1 7.86211 1.57242 14.1518 -8.94963
341 1 12.5794 9.43453 18.8691 -8.94964
204 1 11.007 1.57242 14.1518 -8.94963
340 1 9.43453 9.43453 18.8691 -8.94963
206 1 14.1518 1.57242 14.1518 -8.94963
207 1 15.7242 3.68438e-09 12.5794 -8.94963
208 1 17.2966 1.57242 14.1518 -8.94963
339 1 6.28969 9.43453 18.8691 -8.94963
210 1 20.4415 1.57242 14.1518 -8.94963
211 1 1.22185e-09 3.14484 12.5794 -8.94963
212 1 1.57242 4.71726 14.1518 -8.94963
213 1 3.14484 3.14484 12.5794 -8.94963
214 1 4.71726 4.71726 14.1518 -8.94961
215 1 6.28969 3.14484 12.5794 -8.94963
216 1 7.86211 4.71727 14.1518 -8.94969
217 1 9.43453 3.14484 12.5794 -8.94964
218 1 11.0069 4.71727 14.1518 -8.94965
219 1 12.5794 3.14484 12.5794 -8.94963
220 1 14.1518 4.71726 14.1518 -8.94963
221 1 15.7242 3.14484 12.5794 -8.94963
222 1 17.2966 4.71726 14.1518 -8.94963
223 1 18.8691 3.14484 12.5794 -8.94963
224 1 20.4415 4.71726 14.1518 -8.94963
225 1 22.0139 6.28969 12.5794 -8.94963
226 1 1.57242 7.86211 14.1518 -8.94963
227 1 3.14484 6.28969 12.5794 -8.94963
228 1 4.71727 7.86211 14.1518 -8.94966
229 1 6.28965 6.28965 12.5794 -8.94891
230 1 7.8621 7.8621 14.1518 -8.94993
231 1 9.43453 6.28972 12.5793 -8.95063
232 1 11.0069 7.86217 14.1518 -8.95134
233 1 12.5794 6.28965 12.5794 -8.94966
234 1 14.1518 7.86207 14.1518 -8.94899
235 1 15.7242 6.28969 12.5794 -8.94965
236 1 17.2966 7.86211 14.1518 -8.94964
237 1 18.8691 6.28969 12.5794 -8.94963
238 1 20.4415 7.86211 14.1518 -8.94963
239 1 22.0139 9.43453 12.5794 -8.94963
240 1 3.14484 9.43453 12.5794 -8.94963
241 1 6.28964 9.43448 12.5794 -8.94929
242 1 9.43389 9.43435 12.5796 -8.98266
243 1 12.5811 9.4333 12.5807 -8.96198
244 1 15.7243 9.43452 12.5794 -8.94996
245 1 18.8691 9.43453 12.5794 -8.94964
246 1 2.17667e-11 3.37989e-11 15.7242 -8.94963
247 1 1.57242 1.57242 17.2966 -8.94963
248 1 3.14484 4.97611e-10 15.7242 -8.94963
249 1 4.71726 1.57242 17.2966 -8.94963
338 1 3.14484 9.43453 18.8691 -8.94963
251 1 7.86211 1.57242 17.2966 -8.94963
337 1 22.0139 9.43453 18.8691 -8.94963
253 1 11.007 1.57242 17.2966 -8.94963
336 1 20.4415 7.86211 20.4415 -8.94963
255 1 14.1518 1.57242 17.2966 -8.94963
335 1 18.8691 6.28969 18.8691 -8.94963
257 1 17.2966 1.57242 17.2966 -8.94963
258 1 18.8691 5.04729e-10 15.7242 -8.94963
259 1 20.4415 1.57242 17.2966 -8.94963
260 1 22.0139 3.14484 15.7242 -8.94963
261 1 1.57242 4.71726 17.2966 -8.94963
262 1 3.14484 3.14484 15.7242 -8.94963
263 1 4.71726 4.71726 17.2966 -8.94963
264 1 6.28969 3.14484 15.7242 -8.94963
265 1 7.86211 4.71726 17.2966 -8.94963
266 1 9.43453 3.14484 15.7242 -8.94963
267 1 11.007 4.71726 17.2966 -8.94963
268 1 12.5794 3.14484 15.7242 -8.94963
269 1 14.1518 4.71726 17.2966 -8.94963
270 1 15.7242 3.14484 15.7242 -8.94963
271 1 17.2966 4.71726 17.2966 -8.94963
272 1 18.8691 3.14484 15.7242 -8.94963
273 1 20.4415 4.71726 17.2966 -8.94963
274 1 22.0139 6.28969 15.7242 -8.94963
275 1 1.57242 7.86211 17.2966 -8.94963
276 1 3.14484 6.28969 15.7242 -8.94963
277 1 4.71726 7.86211 17.2966 -8.94963
278 1 6.28969 6.28969 15.7242 -8.94964
279 1 7.86211 7.86211 17.2966 -8.94964
280 1 9.43453 6.28969 15.7242 -8.94964
281 1 11.007 7.86211 17.2966 -8.94963
282 1 12.5794 6.28969 15.7242 -8.94969
283 1 14.1518 7.86211 17.2966 -8.94963
284 1 15.7242 6.28969 15.7242 -8.94962
285 1 17.2966 7.86211 17.2966 -8.94963
286 1 18.8691 6.28969 15.7242 -8.94963
287 1 20.4415 7.86211 17.2966 -8.94963
288 1 2.87611e-09 9.43453 15.7242 -8.94963
289 1 3.14484 9.43453 15.7242 -8.94964
290 1 6.28968 9.43453 15.7242 -8.94963
291 1 9.43452 9.43452 15.7242 -8.94955
292 1 12.5794 9.43452 15.7242 -8.94987
293 1 15.7242 9.43453 15.7242 -8.94966
294 1 18.8691 9.43453 15.7242 -8.94963
49 1 18.8691 9.43453 22.0139 -8.94963
296 1 1.57242 1.57242 20.4415 -8.94963
334 1 17.2966 7.86211 20.4415 -8.94963
298 1 4.71726 1.57242 20.4415 -8.94963
299 1 6.28969 3.10841e-10 18.8691 -8.94963
300 1 7.86211 1.57242 20.4415 -8.94963
333 1 15.7242 6.28969 18.8691 -8.94963
302 1 11.007 1.57242 20.4415 -8.94963
332 1 14.1518 7.86211 20.4415 -8.94963
304 1 14.1518 1.57242 20.4415 -8.94963
305 1 15.7242 3.11691e-10 18.8691 -8.94963
306 1 17.2966 1.57242 20.4415 -8.94963
331 1 12.5794 6.28969 18.8691 -8.94963
308 1 20.4415 1.57242 20.4415 -8.94963
309 1 22.0139 3.14484 18.8691 -8.94963
310 1 1.57242 4.71726 20.4415 -8.94963
311 1 3.14484 3.14484 18.8691 -8.94963
312 1 4.71726 4.71726 20.4415 -8.94963
313 1 6.28969 3.14484 18.8691 -8.94963
314 1 7.86211 4.71726 20.4415 -8.94963
315 1 9.43453 3.14484 18.8691 -8.94963
316 1 11.007 4.71726 20.4415 -8.94963
317 1 12.5794 3.14484 18.8691 -8.94963
318 1 14.1518 4.71726 20.4415 -8.94963
319 1 15.7242 3.14484 18.8691 -8.94963
320 1 17.2966 4.71726 20.4415 -8.94963
321 1 18.8691 3.14484 18.8691 -8.94963
322 1 20.4415 4.71726 20.4415 -8.94963
323 1 22.0139 6.28969 18.8691 -8.94963
324 1 1.57242 7.86211 20.4415 -8.94963
325 1 3.14484 6.28969 18.8691 -8.94963
326 1 4.71726 7.86211 20.4415 -8.94963
327 1 6.28969 6.28969 18.8691 -8.94963
328 1 7.86211 7.86211 20.4415 -8.94963
329 1 9.43453 6.28969 18.8691 -8.94963
330 1 11.007 7.86211 20.4415 -8.94963
512 1 1.57242 11.007 11.007 -8.94965
513 1 4.71718 11.0069 11.007 -8.95004
515 1 11.0457 10.9914 11.0941 -8.24121
517 1 17.2967 11.0069 11.007 -8.94974
518 1 20.4415 11.007 11.007 -8.94964
540 1 1.57242 11.007 14.1518 -8.94963
541 1 4.71727 11.0069 14.1518 -8.9497
542 1 7.86207 11.0069 14.1519 -8.95023
544 1 14.1518 11.0069 14.1518 -8.95074
545 1 17.2966 11.0069 14.1518 -8.94964
546 1 20.4415 11.007 14.1518 -8.94963
47 1 12.5794 9.43453 22.0139 -8.94964
591 1 7.86211 11.0069 17.2966 -8.94966
592 1 11.007 11.0069 17.2967 -8.94995
593 1 14.1518 11.0069 17.2966 -8.94964
46 1 9.43453 9.43453 22.0139 -8.94963
638 1 1.57242 11.007 20.4415 -8.94963
639 1 4.71726 11.007 20.4415 -8.94963
640 1 7.86211 11.007 20.4415 -8.94963
3 1 3.14484 5.50628e-12 22.0139 -8.94963
39 1 15.7242 6.28969 22.0139 -8.94963
9 1 12.5794 1.0398e-10 22.0139 -8.94963
33 1 6.28969 6.28969 22.0139 -8.94963
13 1 18.8691 5.43283e-12 22.0139 -8.94963
15 1 22.0139 3.14484 22.0139 -8.94963
17 1 3.14484 3.14484 22.0139 -8.94963
31 1 3.14484 6.28969 22.0139 -8.94963
23 1 12.5794 3.14484 22.0139 -8.94963
29 1 22.0139 6.28969 22.0139 -8.94963
27 1 18.8691 3.14484 22.0139 -8.94963
21 1 9.43453 3.14484 22.0139 -8.94963
43 1 22.0139 9.43453 22.0139 -8.94963
539 1 20.4415 20.4415 11.007 -8.94963
688 3 10.2215 11.0088 9.43558 3.79611
346 1 7.86211 11.007 1.57242 -8.94965
347 1 11.007 11.007 1.57239 -8.95017
348 1 14.1518 11.007 1.57242 -8.94963
687 2 11.0057 12.5777 10.2204 0.916794
529 1 11.007 17.2971 11.0069 -8.95384
154 1 18.8691 22.0139 9.43453 -8.94963
352 1 1.57242 14.1518 1.57242 -8.94963
353 1 3.14484 12.5794 3.11636e-09 -8.94963
354 1 4.71726 14.1518 1.57242 -8.94963
149 1 3.14484 22.0139 9.43453 -8.94963
356 1 7.86211 14.1518 1.57242 -8.94963
393 1 1.57242 11.007 4.71726 -8.94963
358 1 11.007 14.1518 1.57242 -8.94966
399 1 20.4415 11.007 4.71726 -8.94963
360 1 14.1518 14.1518 1.57242 -8.94962
361 1 15.7242 12.5794 4.98785e-08 -8.94963
362 1 17.2966 14.1518 1.57242 -8.94963
363 1 18.8691 12.5794 -2.59247e-09 -8.94963
364 1 20.4415 14.1518 1.57242 -8.94963
109 1 15.7242 22.0139 6.28969 -8.94963
366 1 1.57242 17.2966 1.57242 -8.94963
103 1 6.28969 22.0139 6.28969 -8.94963
368 1 4.71726 17.2966 1.57242 -8.94963
369 1 6.28969 15.7242 -5.90586e-09 -8.94963
370 1 7.86211 17.2966 1.57242 -8.94963
99 1 22.0139 22.0139 6.28969 -8.94963
372 1 11.007 17.2966 1.57242 -8.94963
62 1 18.8691 22.0139 3.14484 -8.94963
374 1 14.1518 17.2966 1.57242 -8.94963
375 1 15.7242 15.7242 -1.01133e-08 -8.94963
376 1 17.2966 17.2966 1.57242 -8.94963
58 1 12.5794 22.0139 3.14484 -8.94963
378 1 20.4415 17.2966 1.57242 -8.94963
1 1 22.0139 22.0139 -1.29767e-12 -8.94963
380 1 1.57242 20.4415 1.57242 -8.94963
381 1 3.14484 18.8691 -1.57217e-11 -8.94963
382 1 4.71726 20.4415 1.57242 -8.94963
56 1 9.43453 22.0139 3.14484 -8.94963
384 1 7.86211 20.4415 1.57242 -8.94963
385 1 9.43453 18.8691 2.05296e-09 -8.94963
386 1 11.007 20.4415 1.57242 -8.94963
387 1 12.5794 18.8691 9.99774e-10 -8.94963
388 1 14.1518 20.4415 1.57242 -8.94963
52 1 3.14484 22.0139 3.14484 -8.94963
390 1 17.2966 20.4415 1.57242 -8.94963
391 1 18.8691 18.8691 2.41599e-10 -8.94963
392 1 20.4415 20.4415 1.57242 -8.94963
511 1 18.8691 18.8691 9.43453 -8.94963
510 1 15.7242 18.8691 9.43453 -8.94963
395 1 7.86215 11.007 4.71726 -8.95091
396 1 11.007 11.007 4.71525 -8.96547
397 1 14.1517 11.007 4.71733 -8.95144
509 1 12.5794 18.8691 9.43452 -8.94954
508 1 9.43452 18.8691 9.43452 -8.95003
400 1 3.06468e-09 12.5794 3.14484 -8.94963
401 1 1.57242 14.1518 4.71726 -8.94963
402 1 3.14484 12.5794 3.14484 -8.94963
403 1 4.71726 14.1518 4.71726 -8.94965
404 1 6.28968 12.5794 3.14484 -8.94964
405 1 7.86211 14.1518 4.71724 -8.95
406 1 9.43451 12.5794 3.14483 -8.94921
407 1 11.0069 14.1517 4.71725 -8.95158
408 1 12.5794 12.5794 3.14481 -8.94952
409 1 14.1518 14.1518 4.71724 -8.94906
410 1 15.7242 12.5794 3.14484 -8.94968
411 1 17.2966 14.1518 4.71726 -8.94963
412 1 18.8691 12.5794 3.14484 -8.94963
413 1 20.4415 14.1518 4.71726 -8.94963
414 1 22.0139 15.7242 3.14484 -8.94963
415 1 1.57242 17.2966 4.71726 -8.94963
416 1 3.14484 15.7242 3.14484 -8.94963
417 1 4.71726 17.2966 4.71726 -8.94962
418 1 6.28969 15.7242 3.14484 -8.94964
419 1 7.86211 17.2966 4.71726 -8.94966
420 1 9.43453 15.7242 3.14484 -8.94965
421 1 11.0069 17.2966 4.71727 -8.94968
422 1 12.5794 15.7242 3.14484 -8.94969
423 1 14.1518 17.2966 4.71726 -8.9496
424 1 15.7242 15.7242 3.14484 -8.94962
425 1 17.2966 17.2966 4.71726 -8.94964
426 1 18.8691 15.7242 3.14484 -8.94963
427 1 20.4415 17.2966 4.71726 -8.94963
428 1 22.0139 18.8691 3.14484 -8.94963
429 1 1.57242 20.4415 4.71726 -8.94963
430 1 3.14484 18.8691 3.14484 -8.94963
431 1 4.71726 20.4415 4.71726 -8.94963
432 1 6.28969 18.8691 3.14484 -8.94963
433 1 7.86211 20.4415 4.71726 -8.94963
434 1 9.43453 18.8691 3.14484 -8.94963
435 1 11.007 20.4415 4.71726 -8.94963
436 1 12.5794 18.8691 3.14484 -8.94964
437 1 14.1518 20.4415 4.71726 -8.94963
438 1 15.7242 18.8691 3.14484 -8.94963
439 1 17.2966 20.4415 4.71726 -8.94963
440 1 18.8691 18.8691 3.14484 -8.94963
441 1 20.4415 20.4415 4.71726 -8.94963
507 1 6.28969 18.8691 9.43453 -8.94964
506 1 3.14484 18.8691 9.43453 -8.94963
444 1 7.85958 11.0069 7.86001 -8.95522
505 1 22.0139 18.8691 9.43453 -8.94963
446 1 14.1523 11.0069 7.86218 -8.99939
504 1 18.8691 15.7242 9.43453 -8.94964
503 1 15.7242 15.7242 9.43453 -8.95002
449 1 22.0139 12.5794 6.28969 -8.94963
450 1 1.57242 14.1518 7.86211 -8.94964
451 1 3.14484 12.5794 6.28969 -8.94964
452 1 4.71723 14.1518 7.86209 -8.94973
453 1 6.28966 12.5794 6.28966 -8.94976
454 1 7.8609 14.1534 7.86064 -8.96203
455 1 9.43439 12.58 6.28995 -8.98912
456 1 11.0075 14.1538 7.85899 -8.9781
457 1 12.5805 12.581 6.2888 -8.97067
458 1 14.1514 14.1519 7.86225 -8.99056
459 1 15.7242 12.5794 6.2897 -8.95039
460 1 17.2966 14.1518 7.8621 -8.94944
461 1 18.8691 12.5794 6.28969 -8.94964
462 1 20.4415 14.1518 7.86211 -8.94963
463 1 22.0139 15.7242 6.28969 -8.94963
464 1 1.57242 17.2966 7.86211 -8.94963
465 1 3.14484 15.7242 6.28969 -8.94963
466 1 4.71727 17.2966 7.86211 -8.94969
467 1 6.28965 15.7242 6.28965 -8.94899
468 1 7.86209 17.2967 7.86209 -8.94975
469 1 9.43449 15.7242 6.28966 -8.95027
470 1 11.007 17.2967 7.86208 -8.94996
471 1 12.5794 15.7243 6.28962 -8.94929
472 1 14.1518 17.2966 7.86211 -8.94968
473 1 15.7242 15.7242 6.28969 -8.94975
474 1 17.2966 17.2966 7.86211 -8.94963
475 1 18.8691 15.7242 6.28969 -8.94963
476 1 20.4415 17.2966 7.86211 -8.94963
477 1 1.13472e-09 18.8691 6.28969 -8.94963
478 1 1.57242 20.4415 7.86211 -8.94963
479 1 3.14484 18.8691 6.28969 -8.94963
480 1 4.71726 20.4415 7.86211 -8.94963
481 1 6.28969 18.8691 6.28969 -8.94963
482 1 7.86211 20.4415 7.86211 -8.94964
483 1 9.43453 18.8691 6.28969 -8.94965
484 1 11.007 20.4415 7.86211 -8.94965
485 1 12.5794 18.8691 6.28968 -8.94964
486 1 14.1518 20.4415 7.86211 -8.94963
487 1 15.7242 18.8691 6.28969 -8.94963
488 1 17.2966 20.4415 7.86211 -8.94963
489 1 18.8691 18.8691 6.28969 -8.94963
490 1 20.4415 20.4415 7.86211 -8.94963
491 1 22.0139 12.5794 9.43453 -8.94964
492 1 3.14482 12.5794 9.43453 -8.95001
493 1 6.28821 12.5795 9.43456 -8.96097
494 1 9.38018 12.6585 9.42672 -8.23958
495 1 12.5987 12.5817 9.42633 -9.20616
496 1 15.7248 12.5794 9.43456 -8.95453
497 1 18.8691 12.5794 9.43453 -8.94978
498 1 3.60794e-09 15.7242 9.43453 -8.94963
499 1 3.14484 15.7242 9.43453 -8.94963
500 1 6.28972 15.7242 9.43453 -8.95164
501 1 9.43455 15.7261 9.43438 -9.02052
502 1 12.5793 15.7241 9.43437 -9.0063
526 1 1.57242 17.2966 11.007 -8.94963
11 1 15.7242 22.0139 1.34503e-10 -8.94963
5 1 6.28969 22.0139 -3.36417e-11 -8.94963
527 1 4.71727 17.2966 11.0069 -8.94969
532 1 20.4415 17.2966 11.007 -8.94963
534 1 4.71726 20.4415 11.007 -8.94963
538 1 17.2966 20.4415 11.007 -8.94963
365 1 22.0139 15.7242 8.05875e-11 -8.94963
686 1 20.4415 20.4415 20.4415 -8.94963
685 1 18.8691 18.8691 18.8691 -8.94963
514 1 7.8592 11.007 11.0094 -8.96823
684 1 17.2966 20.4415 20.4415 -8.94963
516 1 14.1526 11.007 11.0072 -9.01346
683 1 15.7242 18.8691 18.8691 -8.94963
682 1 14.1518 20.4415 20.4415 -8.94963
519 1 1.57242 14.1518 11.007 -8.94964
520 1 4.71722 14.1518 11.007 -8.94979
521 1 7.86062 14.1533 11.0087 -8.97836
522 1 11.0075 14.1686 11.0158 -9.23553
523 1 14.1517 14.1518 11.0072 -9.00476
524 1 17.2966 14.1518 11.007 -8.94952
525 1 20.4415 14.1518 11.007 -8.94963
594 1 17.2966 11.007 17.2966 -8.94963
590 1 4.71726 11.007 17.2966 -8.94963
528 1 7.86209 17.2967 11.007 -8.95003
307 1 18.8691 22.0139 18.8691 -8.94963
530 1 14.1518 17.2966 11.007 -8.94997
531 1 17.2966 17.2966 11.007 -8.94964
295 1 22.0139 22.0139 18.8691 -8.94963
533 1 1.57242 20.4415 11.007 -8.94963
377 1 18.8691 15.7242 22.0139 -8.94963
535 1 7.86211 20.4415 11.007 -8.94964
536 1 11.007 20.4415 11.007 -8.94977
537 1 14.1518 20.4415 11.007 -8.94964
373 1 12.5794 15.7242 22.0139 -8.94963
303 1 12.5794 22.0139 18.8691 -8.94963
681 1 12.5794 18.8691 18.8691 -8.94963
680 1 11.007 20.4415 20.4415 -8.94963
679 1 9.43453 18.8691 18.8691 -8.94963
543 1 11.007 11.0074 14.1531 -9.01124
678 1 7.86211 20.4415 20.4415 -8.94963
677 1 6.28969 18.8691 18.8691 -8.94963
676 1 4.71726 20.4415 20.4415 -8.94963
547 1 22.0139 12.5794 12.5794 -8.94963
548 1 1.57242 14.1518 14.1518 -8.94963
549 1 3.14484 12.5794 12.5794 -8.94966
550 1 4.71726 14.1518 14.1518 -8.94966
551 1 6.28959 12.5794 12.5794 -8.94982
552 1 7.86204 14.1519 14.1519 -8.94929
553 1 9.43228 12.58 12.5823 -8.97791
554 1 11.0069 14.1513 14.1511 -8.99834
555 1 12.5826 12.5809 12.5834 -8.96104
556 1 14.1519 14.1519 14.1519 -8.94837
557 1 15.7243 12.5794 12.5794 -8.95047
558 1 17.2966 14.1518 14.1518 -8.94964
559 1 18.8691 12.5794 12.5794 -8.94966
560 1 20.4415 14.1518 14.1518 -8.94963
561 1 22.0139 15.7242 12.5794 -8.94963
562 1 1.57242 17.2966 14.1518 -8.94963
563 1 3.14484 15.7242 12.5794 -8.94963
564 1 4.71726 17.2966 14.1518 -8.94961
565 1 6.28965 15.7243 12.5794 -8.94893
566 1 7.86212 17.2966 14.1518 -8.94979
567 1 9.43449 15.7237 12.5791 -8.99222
568 1 11.0069 17.2966 14.1518 -8.95011
569 1 12.5794 15.7238 12.5792 -8.9912
570 1 14.1518 17.2966 14.1518 -8.94973
571 1 15.7242 15.7242 12.5794 -8.94968
572 1 17.2966 17.2966 14.1518 -8.94963
573 1 18.8691 15.7242 12.5794 -8.94963
574 1 20.4415 17.2966 14.1518 -8.94963
575 1 1.11458e-09 18.8691 12.5794 -8.94963
576 1 1.57242 20.4415 14.1518 -8.94963
577 1 3.14484 18.8691 12.5794 -8.94963
578 1 4.71726 20.4415 14.1518 -8.94963
579 1 6.28968 18.8691 12.5794 -8.94963
580 1 7.86211 20.4415 14.1518 -8.94963
581 1 9.43452 18.8691 12.5794 -8.94944
582 1 11.007 20.4415 14.1518 -8.94963
583 1 12.5794 18.8691 12.5794 -8.94943
584 1 14.1518 20.4415 14.1518 -8.94963
585 1 15.7242 18.8691 12.5794 -8.94963
586 1 17.2966 20.4415 14.1518 -8.94963
587 1 18.8691 18.8691 12.5794 -8.94963
588 1 20.4415 20.4415 14.1518 -8.94963
589 1 1.57242 11.007 17.2966 -8.94963
675 1 3.14484 18.8691 18.8691 -8.94963
674 1 1.57242 20.4415 20.4415 -8.94963
673 1 22.0139 18.8691 18.8691 -8.94963
672 1 20.4415 17.2966 20.4415 -8.94963
671 1 18.8691 15.7242 18.8691 -8.94963
595 1 20.4415 11.007 17.2966 -8.94963
596 1 2.988e-09 12.5794 15.7242 -8.94963
597 1 1.57242 14.1518 17.2966 -8.94963
598 1 3.14484 12.5794 15.7242 -8.94963
599 1 4.71726 14.1518 17.2966 -8.94964
600 1 6.28969 12.5794 15.7242 -8.9497
601 1 7.86211 14.1518 17.2966 -8.94963
602 1 9.43451 12.5794 15.7243 -8.95016
603 1 11.007 14.1518 17.2966 -8.94945
604 1 12.5794 12.5794 15.7243 -8.95045
605 1 14.1518 14.1518 17.2966 -8.94963
606 1 15.7242 12.5794 15.7242 -8.94973
607 1 17.2966 14.1518 17.2966 -8.94964
608 1 18.8691 12.5794 15.7242 -8.94963
609 1 20.4415 14.1518 17.2966 -8.94963
610 1 22.0139 15.7242 15.7242 -8.94963
611 1 1.57242 17.2966 17.2966 -8.94963
612 1 3.14484 15.7242 15.7242 -8.94963
613 1 4.71726 17.2966 17.2966 -8.94963
614 1 6.28968 15.7242 15.7242 -8.9496
615 1 7.86211 17.2966 17.2966 -8.94964
616 1 9.43454 15.7242 15.7242 -8.94979
617 1 11.007 17.2966 17.2966 -8.94962
618 1 12.5794 15.7242 15.7242 -8.94983
619 1 14.1518 17.2966 17.2966 -8.94964
620 1 15.7242 15.7242 15.7242 -8.94959
621 1 17.2966 17.2966 17.2966 -8.94963
622 1 18.8691 15.7242 15.7242 -8.94963
623 1 20.4415 17.2966 17.2966 -8.94963
624 1 22.0139 18.8691 15.7242 -8.94963
625 1 1.57242 20.4415 17.2966 -8.94963
626 1 3.14484 18.8691 15.7242 -8.94963
627 1 4.71726 20.4415 17.2966 -8.94963
628 1 6.28969 18.8691 15.7242 -8.94964
629 1 7.86211 20.4415 17.2966 -8.94963
630 1 9.43453 18.8691 15.7242 -8.94963
631 1 11.007 20.4415 17.2966 -8.94963
632 1 12.5794 18.8691 15.7242 -8.94963
633 1 14.1518 20.4415 17.2966 -8.94963
634 1 15.7242 18.8691 15.7242 -8.94964
635 1 17.2966 20.4415 17.2966 -8.94963
636 1 18.8691 18.8691 15.7242 -8.94963
637 1 20.4415 20.4415 17.2966 -8.94963
670 1 17.2966 17.2966 20.4415 -8.94963
669 1 15.7242 15.7242 18.8691 -8.94963
668 1 14.1518 17.2966 20.4415 -8.94963
667 1 12.5794 15.7242 18.8691 -8.94963
666 1 11.007 17.2966 20.4415 -8.94963
665 1 9.43453 15.7242 18.8691 -8.94963
664 1 7.86211 17.2966 20.4415 -8.94963
645 1 22.0139 12.5794 18.8691 -8.94963
646 1 1.57242 14.1518 20.4415 -8.94963
647 1 3.14484 12.5794 18.8691 -8.94963
648 1 4.71726 14.1518 20.4415 -8.94963
649 1 6.28969 12.5794 18.8691 -8.94963
650 1 7.86211 14.1518 20.4415 -8.94963
651 1 9.43453 12.5794 18.8691 -8.94965
652 1 11.007 14.1518 20.4415 -8.94963
653 1 12.5794 12.5794 18.8691 -8.94966
654 1 14.1518 14.1518 20.4415 -8.94963
655 1 15.7242 12.5794 18.8691 -8.94963
656 1 17.2966 14.1518 20.4415 -8.94963
657 1 18.8691 12.5794 18.8691 -8.94963
658 1 20.4415 14.1518 20.4415 -8.94963
659 1 22.0139 15.7242 18.8691 -8.94963
660 1 1.57242 17.2966 20.4415 -8.94963
661 1 3.14484 15.7242 18.8691 -8.94963
662 1 4.71726 17.2966 20.4415 -8.94963
663 1 6.28969 15.7242 18.8691 -8.94963
197 1 22.0139 22.0139 12.5794 -8.94963
199 1 3.14484 22.0139 12.5794 -8.94963
203 1 9.43453 22.0139 12.5794 -8.94963
205 1 12.5794 22.0139 12.5794 -8.94963
209 1 18.8691 22.0139 12.5794 -8.94963
250 1 6.28969 22.0139 15.7242 -8.94963
389 1 15.7242 18.8691 22.0139 -8.94963
383 1 6.28969 18.8691 22.0139 -8.94963
256 1 15.7242 22.0139 15.7242 -8.94963
297 1 3.14484 22.0139 18.8691 -8.94963
301 1 9.43453 22.0139 18.8691 -8.94963
351 1 22.0139 12.5794 22.0139 -8.94963
355 1 6.28969 12.5794 22.0139 -8.94963
371 1 9.43453 15.7242 22.0139 -8.94963
367 1 3.14484 15.7242 22.0139 -8.94963
357 1 9.43453 12.5794 22.0139 -8.94963
359 1 12.5794 12.5794 22.0139 -8.94964
379 1 22.0139 18.8691 22.0139 -8.94963
