ITEM: TIMESTEP
91
ITEM: NUMBER OF ATOMS
688
ITEM: BOX BOUNDS pp pp pp
0.0000000000000000e+00 2.2013900999999997e+01
0.0000000000000000e+00 2.2013900999999997e+01
0.0000000000000000e+00 2.2013900999999997e+01
ITEM: ATOMS id type x y z c_pot
189 1 20.4415 4.71644 11.007 -8.94954
2 1 1.57176 1.57215 1.57177 -8.94918
448 1 20.443 11.0067 7.86184 -8.94954
4 1 4.71665 1.57203 1.57158 -8.9496
447 1 17.3015 11.0056 7.86103 -8.94976
6 1 7.86187 1.57199 1.57161 -8.94944
7 1 9.43449 6.15088e-05 -0.000399271 -8.94952
8 1 11.0071 1.57194 1.57165 -8.94948
445 1 11.078 11.0016 7.61766 -8.15747
10 1 14.1522 1.57187 1.57176 -8.94946
443 1 4.71962 11.0075 7.86271 -8.94345
12 1 17.2973 1.57182 1.57182 -8.94947
442 1 1.57244 11.0069 7.86183 -8.94799
14 1 20.4415 1.57215 1.57211 -8.94956
188 1 17.2977 4.71597 11.0069 -8.94893
16 1 1.57193 4.71683 1.57169 -8.94975
398 1 17.3016 11.007 4.71437 -8.94937
18 1 4.71581 4.71596 1.57051 -8.94932
394 1 4.71535 11.0066 4.7152 -8.94618
20 1 7.86148 4.71596 1.57082 -8.94913
50 1 -0.000411232 0.000106679 3.14444 -8.94951
22 1 11.007 4.71578 1.57084 -8.94938
183 1 1.5706 4.71601 11.0074 -8.94931
24 1 14.1528 4.71554 1.57076 -8.94955
349 1 17.2986 11.007 1.57077 -8.94946
26 1 17.2984 4.7155 1.57095 -8.94817
345 1 4.71651 11.0068 1.57143 -8.94951
28 1 20.4421 4.71662 1.57183 -8.94949
165 1 9.43049 6.29165 9.43428 -8.99398
30 1 1.57217 7.86194 1.57183 -8.94941
164 1 6.27974 6.28009 9.43433 -8.94224
32 1 4.71656 7.86205 1.57143 -8.94967
163 1 3.14044 6.28715 9.43446 -8.94913
34 1 7.8615 7.86142 1.56994 -8.95233
35 1 9.43412 6.2887 -0.00105043 -8.9496
36 1 11.0069 7.86057 1.56925 -8.95051
37 1 12.5797 6.28855 -0.00118403 -8.94968
38 1 14.154 7.86008 1.56831 -8.95162
162 1 -0.000992676 6.28881 9.43447 -8.94993
40 1 17.2986 7.86101 1.57073 -8.94932
161 1 18.8694 3.14415 9.43448 -8.94955
42 1 20.4423 7.8617 1.57173 -8.94947
350 1 20.4423 11.0069 1.5717 -8.94949
44 1 3.14442 9.43444 -0.00036588 -8.9495
160 1 15.725 3.14386 9.43443 -8.9496
159 1 12.5796 3.1448 9.43442 -8.94794
158 1 9.4342 3.14397 9.43442 -8.94695
48 1 15.7257 9.43401 -0.00126222 -8.9495
157 1 6.28693 3.14115 9.43446 -8.94955
175 1 18.8703 9.43382 9.4344 -8.94725
51 1 1.57155 1.57208 4.71665 -8.94945
174 1 15.7229 9.43484 9.43456 -8.93965
53 1 4.71594 1.57149 4.71595 -8.94998
54 1 6.28918 0.000276393 3.14379 -8.94962
55 1 7.86178 1.5715 4.71615 -8.94982
173 1 12.5574 9.44817 9.4341 -8.96281
57 1 11.0073 1.5715 4.71625 -8.94972
172 1 9.36942 9.24099 9.43269 -8.24327
59 1 14.1525 1.57139 4.71666 -8.95066
60 1 15.7249 6.42494e-05 3.14425 -8.95005
61 1 17.2971 1.57206 4.71708 -8.94973
171 1 6.28333 9.42815 9.43474 -8.9686
63 1 20.4414 1.57219 4.71701 -8.94951
64 1 22.0134 3.14433 3.14427 -8.94957
65 1 1.5708 4.71621 4.71614 -8.9497
66 1 3.14324 3.1436 3.14326 -8.94845
67 1 4.71299 4.71328 4.71322 -8.94552
68 1 6.28868 3.14331 3.14322 -8.94968
69 1 7.86046 4.71325 4.71431 -8.94951
70 1 9.43436 3.14331 3.14338 -8.94933
71 1 11.0075 4.71348 4.71434 -8.94797
72 1 12.58 3.14318 3.14349 -8.94917
73 1 14.155 4.7122 4.71419 -8.95005
74 1 15.7257 3.14283 3.14349 -8.94947
75 1 17.2981 4.71577 4.71664 -8.95045
76 1 18.8696 3.14411 3.1444 -8.94984
77 1 20.4416 4.7166 4.71687 -8.94986
78 1 22.014 6.28922 3.14417 -8.94987
79 1 1.57167 7.86192 4.71654 -8.95006
80 1 3.1434 6.289 3.14343 -8.95018
81 1 4.71426 7.86109 4.71506 -8.95104
82 1 6.28635 6.28644 3.14002 -8.94923
83 1 7.85507 7.85408 4.70649 -8.95005
84 1 9.43381 6.28666 3.1412 -8.94764
85 1 11.0082 7.85567 4.70753 -8.94932
86 1 12.5811 6.28632 3.14067 -8.94883
87 1 14.1657 7.84921 4.70375 -8.92904
88 1 15.7291 6.28495 3.14023 -8.94434
89 1 17.3019 7.85932 4.71441 -8.95038
90 1 18.8711 6.28828 3.14353 -8.94954
91 1 20.4428 7.86141 4.71644 -8.95019
92 1 0.000268775 9.43432 3.14405 -8.94953
93 1 3.14395 9.43436 3.14378 -8.94891
94 1 6.28891 9.43466 3.14344 -8.94908
95 1 9.43517 9.43379 3.14219 -8.95306
96 1 12.5829 9.4327 3.13615 -8.95948
97 1 15.7286 9.43293 3.14051 -8.94814
98 1 18.8712 9.434 3.1434 -8.9494
170 1 3.14296 9.43469 9.43449 -8.95087
100 1 1.57145 1.57203 7.86186 -8.94947
101 1 3.14362 0.000289857 6.28903 -8.94936
102 1 4.71567 1.5714 7.86155 -8.9494
169 1 22.0138 9.43437 9.43446 -8.94931
104 1 7.86158 1.57123 7.86177 -8.95136
105 1 9.4347 0.000551182 6.28896 -8.95035
106 1 11.0071 1.57216 7.86206 -8.94938
107 1 12.5797 0.000293949 6.28941 -8.95038
108 1 14.1523 1.57222 7.8621 -8.94942
168 1 18.87 6.2885 9.43441 -8.94949
110 1 17.2971 1.57206 7.86202 -8.94954
111 1 18.8693 8.89796e-05 6.28953 -8.94955
112 1 20.4414 1.57215 7.86199 -8.94954
113 1 -0.000623964 3.14424 6.28931 -8.94944
114 1 1.57059 4.71602 7.86163 -8.9493
115 1 3.14303 3.14344 6.2887 -8.9492
116 1 4.7132 4.71349 7.86066 -8.94774
117 1 6.28759 3.14134 6.28788 -8.95133
118 1 7.8589 4.70955 7.86073 -8.95811
119 1 9.43458 3.14208 6.28842 -8.95078
120 1 11.0066 4.71562 7.86174 -8.951
121 1 12.5799 3.14247 6.2891 -8.95244
122 1 14.1524 4.71625 7.86269 -8.94925
123 1 15.7249 3.14391 6.28971 -8.94972
124 1 17.2977 4.71604 7.86197 -8.94888
125 1 18.8694 3.14421 6.28952 -8.9494
126 1 20.4414 4.71646 7.86191 -8.94953
127 1 22.0131 6.28902 6.28922 -8.95013
128 1 1.57025 7.86157 7.86179 -8.95139
129 1 3.1407 6.28756 6.28771 -8.95072
130 1 4.70831 7.85837 7.86001 -8.95682
131 1 6.27797 6.27803 6.27914 -8.93409
132 1 7.82759 7.82876 7.83453 -8.87612
133 1 9.43353 6.28042 6.28453 -8.95228
134 1 11.0198 7.85569 7.83997 -8.91401
135 1 12.5855 6.27882 6.28287 -8.95447
136 1 14.155 7.8606 7.86437 -8.95421
137 1 15.7269 6.2874 6.28921 -8.95192
138 1 17.2985 7.86102 7.86258 -8.9499
139 1 18.8701 6.28878 6.28953 -8.9499
140 1 20.4419 7.86151 7.86201 -8.94975
141 1 22.0142 9.43436 6.2892 -8.95003
142 1 3.14335 9.43496 6.28911 -8.95058
143 1 6.28482 9.43422 6.2873 -8.95192
144 1 9.41833 9.40783 6.2768 -8.89704
145 1 12.6209 9.39897 6.25118 -8.84972
146 1 15.7361 9.43041 6.28416 -8.95665
147 1 18.8725 9.43362 6.28863 -8.95157
148 1 -0.000500209 0.000115316 9.43452 -8.94953
167 1 15.7263 6.28743 9.43425 -8.94585
150 1 6.28845 0.000602468 9.43451 -8.95034
151 1 9.43453 0.000836094 9.43438 -8.94873
152 1 12.5799 0.000622547 9.43437 -8.94921
153 1 15.7248 0.000156647 9.43449 -8.94966
166 1 12.5773 6.29251 9.43439 -8.94392
155 1 22.0132 3.14419 9.43451 -8.9495
156 1 3.14291 3.14337 9.4345 -8.94946
181 1 17.2971 1.57203 11.007 -8.94954
344 1 1.57217 11.0069 1.57177 -8.94953
177 1 4.71568 1.57137 11.0075 -8.94941
184 1 4.71319 4.71347 11.0083 -8.94782
45 1 6.28923 9.43454 -0.000442025 -8.94944
41 1 18.87 6.28903 -0.000461565 -8.94948
19 1 6.28926 3.14426 -0.000550382 -8.94948
25 1 15.7248 3.14401 -0.00048859 -8.94958
176 1 1.57146 1.57202 11.0072 -8.94947
254 1 12.5798 -5.83345e-05 15.725 -8.94949
178 1 7.86159 1.57113 11.0071 -8.95127
179 1 11.0071 1.57216 11.0069 -8.94977
180 1 14.1523 1.57208 11.0068 -8.94937
644 1 20.442 11.0069 20.4416 -8.94952
182 1 20.4414 1.57214 11.007 -8.94954
643 1 17.2979 11.007 20.4417 -8.94946
252 1 9.43457 1.45637e-06 15.7252 -8.9495
185 1 7.85882 4.70947 11.008 -8.95783
186 1 11.0066 4.71513 11.0072 -8.95134
187 1 14.1525 4.71599 11.0061 -8.94908
642 1 14.1528 11.007 20.4418 -8.95048
641 1 11.0068 11.0069 20.4417 -8.94849
190 1 1.57022 7.86153 11.0072 -8.95145
191 1 4.70806 7.85822 11.0089 -8.9565
192 1 7.82738 7.82905 11.0333 -8.87402
193 1 11.0195 7.85393 11.0292 -8.92907
194 1 14.1561 7.8601 11.0038 -8.95159
195 1 17.299 7.86082 11.0062 -8.94971
196 1 20.442 7.86147 11.0069 -8.94982
343 1 18.8702 9.43424 18.8698 -8.94946
198 1 1.57156 1.57205 14.1524 -8.94945
342 1 15.726 9.43389 18.8709 -8.94946
200 1 4.71595 1.57141 14.153 -8.94998
201 1 6.28882 0.000474052 12.5802 -8.95066
202 1 7.86168 1.57135 14.1529 -8.94988
341 1 12.5798 9.43418 18.8713 -8.95169
204 1 11.0073 1.57128 14.1528 -8.94964
340 1 9.43439 9.43445 18.8701 -8.94975
206 1 14.1526 1.57119 14.1524 -8.95076
207 1 15.7247 9.57863e-05 12.5794 -8.9496
208 1 17.2971 1.57196 14.1519 -8.94976
339 1 6.28911 9.43449 18.8698 -8.94938
210 1 20.4414 1.57216 14.152 -8.94951
211 1 -0.000608168 3.14422 12.5797 -8.94944
212 1 1.57081 4.71617 14.1529 -8.94966
213 1 3.14303 3.14341 12.5803 -8.9492
214 1 4.71296 4.71326 14.1557 -8.9456
215 1 6.28757 3.14127 12.5811 -8.95121
216 1 7.86014 4.71271 14.1549 -8.94981
217 1 9.43449 3.14177 12.5806 -8.95104
218 1 11.0075 4.71294 14.1549 -8.94789
219 1 12.58 3.14208 12.5799 -8.95277
220 1 14.1554 4.71138 14.1552 -8.95054
221 1 15.725 3.14373 12.5792 -8.94966
222 1 17.2983 4.71557 14.1524 -8.95048
223 1 18.8695 3.14417 12.5795 -8.9494
224 1 20.4417 4.71653 14.1522 -8.94984
225 1 22.0132 6.28897 12.5798 -8.95013
226 1 1.57167 7.86191 14.1525 -8.95016
227 1 3.14063 6.28751 12.5813 -8.95058
228 1 4.71394 7.86109 14.1539 -8.95181
229 1 6.27792 6.27813 12.5895 -8.93406
230 1 7.85289 7.85198 14.1642 -8.94664
231 1 9.43301 6.27912 12.5847 -8.95359
232 1 11.0083 7.85428 14.1625 -8.94909
233 1 12.5861 6.27718 12.5865 -8.95622
234 1 14.1689 7.84606 14.1682 -8.92359
235 1 15.7274 6.28704 12.5796 -8.95171
236 1 17.3028 7.85891 14.1549 -8.95095
237 1 18.8703 6.28867 12.5794 -8.94983
238 1 20.4431 7.86134 14.1526 -8.95031
239 1 22.0144 9.43435 12.5798 -8.95009
240 1 3.14327 9.43505 12.5798 -8.95079
241 1 6.28422 9.43494 12.5809 -8.95587
242 1 9.40988 9.40171 12.5971 -8.92713
243 1 12.6319 9.39109 12.6253 -8.86063
244 1 15.7384 9.43028 12.585 -8.95952
245 1 18.8731 9.4336 12.5803 -8.95198
246 1 -0.00039146 8.69364e-05 15.7246 -8.94953
247 1 1.57177 1.57212 17.2973 -8.94922
248 1 3.14385 0.000209716 15.7252 -8.94952
249 1 4.7166 1.57196 17.2975 -8.94958
338 1 3.14437 9.43442 18.8696 -8.9495
251 1 7.86185 1.57189 17.2975 -8.94943
337 1 22.0141 9.4344 18.8695 -8.94952
253 1 11.0071 1.57182 17.2974 -8.94948
336 1 20.442 7.86183 20.4416 -8.94951
255 1 14.1522 1.57174 17.2974 -8.94945
335 1 18.8701 6.28895 18.8697 -8.94941
257 1 17.2974 1.57172 17.2973 -8.94946
258 1 18.8693 4.98959e-05 15.7245 -8.94972
259 1 20.4416 1.57213 17.297 -8.94958
260 1 22.0135 3.1443 15.7248 -8.94956
261 1 1.57191 4.71678 17.2974 -8.9498
262 1 3.14323 3.14356 15.7258 -8.9485
263 1 4.71563 4.71578 17.2987 -8.94906
264 1 6.28853 3.14311 15.7259 -8.94972
265 1 7.86139 4.7158 17.2984 -8.94909
266 1 9.43431 3.14309 15.7258 -8.94928
267 1 11.007 4.7156 17.2984 -8.94931
268 1 12.58 3.14291 15.7257 -8.94912
269 1 14.1529 4.71529 17.2986 -8.94951
270 1 15.7259 3.1425 15.7257 -8.94955
271 1 17.2987 4.71517 17.2985 -8.94779
272 1 18.8697 3.14402 15.7247 -8.94988
273 1 20.4422 4.71653 17.2973 -8.94952
274 1 22.0141 6.28917 15.7249 -8.94993
275 1 1.57215 7.86189 17.2973 -8.9494
276 1 3.14328 6.28893 15.7257 -8.95036
277 1 4.71637 7.86193 17.2978 -8.9495
278 1 6.2857 6.2858 15.7296 -8.94835
279 1 7.86124 7.86118 17.2996 -8.95261
280 1 9.43362 6.2862 15.7282 -8.94739
281 1 11.0069 7.8603 17.3002 -8.95044
282 1 12.5812 6.28571 15.7289 -8.94851
283 1 14.1544 7.85965 17.3016 -8.95201
284 1 15.7301 6.28386 15.7298 -8.94295
285 1 17.299 7.86072 17.2988 -8.94899
286 1 18.8714 6.28806 15.7257 -8.94966
287 1 20.4424 7.86161 17.2975 -8.94943
288 1 0.000382549 9.43427 15.7251 -8.94959
289 1 3.14376 9.4343 15.7254 -8.94892
290 1 6.28828 9.43437 15.726 -8.94828
291 1 9.43469 9.43327 15.7279 -8.954
292 1 12.5837 9.43201 15.7347 -8.96065
293 1 15.73 9.43219 15.7298 -8.94679
294 1 18.8717 9.4338 15.726 -8.94931
49 1 18.8701 9.43429 22.0134 -8.94948
296 1 1.57209 1.57219 20.4415 -8.94933
334 1 17.2978 7.86145 20.4417 -8.94941
298 1 4.71694 1.57218 20.4415 -8.94955
299 1 6.28944 2.80297e-05 18.8695 -8.94953
300 1 7.86193 1.57212 20.4415 -8.94951
333 1 15.7257 6.28816 18.8708 -8.95008
302 1 11.007 1.57208 20.4415 -8.94952
332 1 14.1525 7.86133 20.4417 -8.95079
304 1 14.152 1.57205 20.4415 -8.9495
305 1 15.7245 -3.21053e-05 18.8694 -8.94956
306 1 17.2971 1.57204 20.4415 -8.94957
331 1 12.5797 6.28845 18.8705 -8.94966
308 1 20.4417 1.57219 20.4415 -8.94918
309 1 22.0139 3.14451 18.8694 -8.94952
310 1 1.57224 4.71706 20.4415 -8.94968
311 1 3.14415 3.14425 18.8697 -8.94936
312 1 4.71662 4.71672 20.4416 -8.95001
313 1 6.28923 3.1442 18.8697 -8.94948
314 1 7.86168 4.71653 20.4415 -8.94949
315 1 9.43436 3.14408 18.8697 -8.94947
316 1 11.0069 4.71636 20.4416 -8.94952
317 1 12.5796 3.144 18.8697 -8.94944
318 1 14.1522 4.71629 20.4416 -8.94955
319 1 15.7248 3.14393 18.8697 -8.94958
320 1 17.2976 4.71625 20.4416 -8.94951
321 1 18.8698 3.14408 18.8696 -8.94902
322 1 20.4419 4.71687 20.4415 -8.9495
323 1 22.0141 6.2894 18.8694 -8.94948
324 1 1.57228 7.86198 20.4415 -8.94951
325 1 3.14439 6.2895 18.8696 -8.94969
326 1 4.7168 7.86206 20.4416 -8.94954
327 1 6.28889 6.28903 18.8704 -8.95066
328 1 7.86176 7.86193 20.4416 -8.95047
329 1 9.43409 6.28862 18.8703 -8.94956
330 1 11.0067 7.86147 20.4416 -8.95031
512 1 1.5725 11.0069 11.0071 -8.94783
513 1 4.71995 11.0077 11.0059 -8.94189
515 1 11.0864 10.9674 11.2852 -8.34198
517 1 17.3022 11.0058 11.0075 -8.94973
518 1 20.4432 11.0067 11.007 -8.94954
540 1 1.57176 11.0068 14.1528 -8.94966
541 1 4.71479 11.0066 14.154 -8.94648
542 1 7.86111 11.006 14.1536 -8.94332
544 1 14.1665 11.0058 14.1659 -8.93948
545 1 17.3031 11.0067 14.1554 -8.94927
546 1 20.4433 11.0068 14.1528 -8.95009
47 1 12.5798 9.43426 22.0123 -8.95153
591 1 7.86157 11.0068 17.2978 -8.9489
592 1 11.0074 11.0066 17.2983 -8.94637
593 1 14.1551 11.0068 17.3018 -8.95002
46 1 9.43444 9.43452 22.0133 -8.94972
638 1 1.57226 11.0069 20.4415 -8.94955
639 1 4.71673 11.0069 20.4416 -8.94962
640 1 7.86172 11.0069 20.4416 -8.94941
3 1 3.14441 9.07138e-05 22.0135 -8.94956
39 1 15.7255 6.28833 22.0127 -8.95004
9 1 12.5796 4.04846e-05 22.0135 -8.94952
33 1 6.28898 6.28912 22.0129 -8.95063
13 1 18.8694 1.66552e-05 22.0136 -8.94938
15 1 22.0139 3.14454 22.0136 -8.94951
17 1 3.14419 3.14429 22.0133 -8.94943
31 1 3.14443 6.28954 22.0135 -8.94972
23 1 12.5796 3.14407 22.0134 -8.94945
29 1 22.0141 6.28944 22.0136 -8.94951
27 1 18.8698 3.14416 22.0135 -8.94913
21 1 9.43438 3.14414 22.0134 -8.94949
43 1 22.0141 9.43441 22.0136 -8.94953
539 1 20.4414 20.4419 11.0071 -8.94954
688 3 10.2627 11.0529 9.45483 2.21719
346 1 7.86184 11.0068 1.57173 -8.94867
347 1 11.0074 11.0069 1.57147 -8.94637
348 1 14.1545 11.007 1.56844 -8.94972
687 2 10.9242 12.4566 10.1984 0.355157
529 1 11.0059 17.3057 11.0066 -8.96037
154 1 18.8693 22.014 9.43451 -8.94957
352 1 1.57209 14.1519 1.57175 -8.9494
353 1 3.14439 12.5793 -0.000400803 -8.94952
354 1 4.71644 14.1517 1.57117 -8.94952
149 1 3.14355 22.0142 9.43453 -8.94944
356 1 7.86151 14.1523 1.56926 -8.95315
393 1 1.57178 11.0068 4.71626 -8.94949
358 1 11.007 14.153 1.56925 -8.95068
399 1 20.4429 11.0069 4.7163 -8.94991
360 1 14.1538 14.1535 1.56861 -8.9516
361 1 15.7257 12.5799 -0.00121403 -8.9494
362 1 17.2985 14.1528 1.57084 -8.9492
363 1 18.8701 12.5796 -0.00047889 -8.94947
364 1 20.4422 14.1521 1.57173 -8.94943
109 1 15.7248 22.0141 6.28954 -8.94952
366 1 1.57179 17.2971 1.57158 -8.94984
103 1 6.28875 22.0146 6.28876 -8.95067
368 1 4.71552 17.2982 1.56993 -8.94948
369 1 6.28894 15.7248 -0.00138411 -8.95091
370 1 7.86147 17.2981 1.57026 -8.94919
99 1 22.0134 22.014 6.28941 -8.94952
372 1 11.0072 17.2982 1.57046 -8.94934
62 1 18.8693 22.014 3.14459 -8.94968
374 1 14.1528 17.2983 1.57066 -8.94964
375 1 15.7254 15.7254 -0.00119784 -8.9501
376 1 17.2983 17.2983 1.57095 -8.94835
58 1 12.5798 22.014 3.144 -8.94951
378 1 20.442 17.2972 1.5718 -8.94958
1 1 22.0137 22.014 -0.000234053 -8.94919
380 1 1.57165 20.442 1.57164 -8.949
381 1 3.14406 18.8698 -0.000733576 -8.94945
382 1 4.71657 20.4422 1.57141 -8.94958
56 1 9.43457 22.0141 3.14384 -8.94953
384 1 7.86188 20.4422 1.57146 -8.94943
385 1 9.43445 18.8698 -0.000717638 -8.94949
386 1 11.0071 20.4422 1.57154 -8.94948
387 1 12.5796 18.8699 -0.000651869 -8.94944
388 1 14.1523 20.4421 1.57168 -8.94943
52 1 3.14383 22.0142 3.14381 -8.94948
390 1 17.2973 20.4421 1.57177 -8.94948
391 1 18.8697 18.8697 -0.000373534 -8.94918
392 1 20.4415 20.4419 1.57206 -8.94953
511 1 18.8695 18.8699 9.43449 -8.94955
510 1 15.7252 18.8703 9.43447 -8.94956
395 1 7.86317 11.0066 4.71703 -8.94708
396 1 11.0121 11.0067 4.72022 -9.00568
397 1 14.1624 11.0072 4.70684 -8.94466
509 1 12.5801 18.871 9.43371 -8.94764
508 1 9.43341 18.8724 9.43375 -8.94561
400 1 0.000205063 12.5795 3.14403 -8.94955
401 1 1.57135 14.1518 4.71636 -8.9498
402 1 3.14383 12.5792 3.14365 -8.94902
403 1 4.71381 14.1524 4.71452 -8.951
404 1 6.2886 12.5787 3.14302 -8.94859
405 1 7.85451 14.1601 4.70314 -8.9554
406 1 9.43508 12.5795 3.14229 -8.95187
407 1 11.0077 14.1574 4.70725 -8.95191
408 1 12.5827 12.5808 3.13717 -8.9579
409 1 14.1646 14.1635 4.70467 -8.93221
410 1 15.7285 12.5809 3.14086 -8.94735
411 1 17.3013 14.154 4.7148 -8.95116
412 1 18.8711 12.5798 3.14344 -8.94927
413 1 20.4426 14.1523 4.71648 -8.95018
414 1 22.0138 15.7246 3.14409 -8.94983
415 1 1.57024 17.298 4.71574 -8.94986
416 1 3.14313 15.7248 3.14315 -8.95029
417 1 4.71113 17.3025 4.71129 -8.94275
418 1 6.28577 15.7279 3.13852 -8.95016
419 1 7.85992 17.3021 4.71268 -8.94861
420 1 9.43398 15.7275 3.14007 -8.9481
421 1 11.0079 17.3012 4.71337 -8.94664
422 1 12.581 15.7273 3.14057 -8.94928
423 1 14.1552 17.3018 4.7138 -8.94977
424 1 15.7288 15.7286 3.14038 -8.94512
425 1 17.2983 17.2983 4.71634 -8.95003
426 1 18.8709 15.7254 3.14358 -8.94979
427 1 20.4416 17.2974 4.71664 -8.94981
428 1 22.0133 18.8698 3.14408 -8.94952
429 1 1.5714 20.4422 4.71654 -8.94945
430 1 3.1427 18.8709 3.14268 -8.94772
431 1 4.7156 20.4434 4.7156 -8.94994
432 1 6.28841 18.8712 3.14261 -8.94951
433 1 7.86169 20.4433 4.71583 -8.94976
434 1 9.43444 18.871 3.14293 -8.94924
435 1 11.0074 20.443 4.71601 -8.9496
436 1 12.5801 18.871 3.14321 -8.94891
437 1 14.1526 20.4428 4.71655 -8.95069
438 1 15.7258 18.8711 3.14335 -8.94943
439 1 17.2972 20.4421 4.71698 -8.94966
440 1 18.8696 18.8699 3.14428 -8.94976
441 1 20.4414 20.4419 4.71696 -8.94952
507 1 6.28611 18.8745 9.4345 -8.94951
506 1 3.14243 18.8712 9.43453 -8.94935
444 1 7.87811 10.9999 7.86205 -8.95613
505 1 22.0131 18.8699 9.43452 -8.94948
446 1 14.1627 11.0016 7.85025 -9.0026
504 1 18.8704 15.7255 9.43441 -8.94926
503 1 15.727 15.7263 9.43425 -8.94641
449 1 22.014 12.5793 6.28915 -8.94991
450 1 1.56981 14.1523 7.86171 -8.9522
451 1 3.14289 12.5788 6.28869 -8.94995
452 1 4.70562 14.1565 7.8592 -8.96097
453 1 6.28442 12.5776 6.28679 -8.9519
454 1 7.81316 14.202 7.81559 -8.85445
455 1 9.41683 12.6045 6.27871 -8.95505
456 1 11.0168 14.1624 7.83403 -8.95815
457 1 12.6177 12.6131 6.2566 -8.9021
458 1 14.1574 14.1568 7.86189 -8.97474
459 1 15.7345 12.5819 6.28612 -8.95863
460 1 17.3004 14.1535 7.8615 -8.94826
461 1 18.8721 12.5797 6.28891 -8.95124
462 1 20.4423 14.1524 7.8618 -8.95005
463 1 22.0129 15.725 6.28901 -8.95041
464 1 1.57008 17.2982 7.86151 -8.94926
465 1 3.13927 15.727 6.28698 -8.95175
466 1 4.71177 17.3019 7.86016 -8.94717
467 1 6.27227 15.7415 6.27323 -8.92294
468 1 7.85696 17.3091 7.85884 -8.96076
469 1 9.43305 15.737 6.2804 -8.94775
470 1 11.0057 17.2999 7.86115 -8.9517
471 1 12.5856 15.7359 6.28165 -8.95379
472 1 14.1531 17.2992 7.86183 -8.9491
473 1 15.7277 15.7271 6.28828 -8.95035
474 1 17.2979 17.2981 7.86185 -8.94934
475 1 18.8705 15.7254 6.28908 -8.94958
476 1 20.4414 17.2976 7.86184 -8.94955
477 1 -0.000794116 18.8699 6.28922 -8.94943
478 1 1.57131 20.4422 7.86183 -8.94945
479 1 3.14248 18.8711 6.2884 -8.9491
480 1 4.71537 20.4435 7.86145 -8.94936
481 1 6.28659 18.8747 6.28684 -8.95167
482 1 7.86125 20.4446 7.86147 -8.9518
483 1 9.43452 18.8734 6.28758 -8.95095
484 1 11.0071 20.4429 7.86191 -8.94921
485 1 12.58 18.8721 6.28878 -8.95267
486 1 14.1526 20.4426 7.86187 -8.94937
487 1 15.7252 18.8705 6.28937 -8.94947
488 1 17.2972 20.4421 7.86201 -8.94961
489 1 18.8695 18.8699 6.28942 -8.94952
490 1 20.4414 20.4419 7.86198 -8.94954
491 1 22.0141 12.5793 9.43445 -8.94953
492 1 3.14345 12.5793 9.43443 -8.94875
493 1 6.28854 12.5891 9.43402 -8.98789
494 1 9.2868 12.8092 9.41184 -8.35438
495 1 12.6147 12.5726 9.41292 -9.11159
496 1 15.7342 12.5785 9.43372 -8.9584
497 1 18.8722 12.5796 9.43433 -8.9509
498 1 -0.00115784 15.7252 9.43448 -8.95002
499 1 3.13932 15.7274 9.43448 -8.94914
500 1 6.27651 15.7373 9.43444 -8.94214
501 1 9.42495 15.7251 9.43147 -9.05445
502 1 12.5785 15.7249 9.43132 -8.99544
526 1 1.57014 17.2982 11.0075 -8.94922
11 1 15.7245 22.0139 -0.000302693 -8.94953
5 1 6.28943 22.014 -0.000406953 -8.9495
527 1 4.71199 17.3018 11.0088 -8.94683
532 1 20.4414 17.2976 11.0071 -8.94951
534 1 4.71543 20.4434 11.0076 -8.9493
538 1 17.2972 20.442 11.007 -8.94952
365 1 22.014 15.7244 -0.000289142 -8.9495
686 1 20.4417 20.4417 20.4415 -8.94923
685 1 18.8698 18.8698 18.8696 -8.94909
514 1 7.88159 11.0044 11.0038 -8.96374
684 1 17.297 20.4418 20.4415 -8.94962
516 1 14.1647 11.0046 11.0187 -9.02279
683 1 15.7247 18.8698 18.8696 -8.94973
682 1 14.152 20.4418 20.4415 -8.9495
519 1 1.56993 14.1523 11.0072 -8.95205
520 1 4.70612 14.1563 11.0093 -8.96005
521 1 7.81627 14.1967 11.0485 -8.88691
522 1 11.0192 14.1883 11.0364 -9.14647
523 1 14.1608 14.1553 11.0073 -8.99793
524 1 17.3011 14.1535 11.0071 -8.94898
525 1 20.4425 14.1524 11.0071 -8.95011
594 1 17.2991 11.0069 17.2988 -8.94935
590 1 4.71634 11.0068 17.2978 -8.94949
528 1 7.85791 17.3076 11.0088 -8.96055
307 1 18.8694 22.0139 18.8694 -8.94937
530 1 14.1525 17.2983 11.0061 -8.95029
531 1 17.2978 17.298 11.007 -8.94901
295 1 22.0137 22.014 18.8693 -8.94923
533 1 1.57133 20.4422 11.0072 -8.94944
377 1 18.8699 15.7248 22.0135 -8.94947
535 1 7.86145 20.4442 11.0073 -8.95161
536 1 11.0071 20.4438 11.007 -8.95147
537 1 14.1523 20.4423 11.0069 -8.94934
373 1 12.5797 15.7252 22.0126 -8.94967
303 1 12.5795 22.0139 18.8694 -8.94951
681 1 12.5796 18.8698 18.8695 -8.94946
680 1 11.007 20.4418 20.4414 -8.94953
679 1 9.43448 18.8697 18.8695 -8.94951
543 1 11.0126 11.0056 14.1509 -9.05951
678 1 7.86197 20.4418 20.4414 -8.94952
677 1 6.28932 18.8697 18.8697 -8.94962
676 1 4.71693 20.4418 20.4415 -8.94958
547 1 22.0142 12.5793 12.5798 -8.95008
548 1 1.57139 14.1519 14.1527 -8.94995
549 1 3.14281 12.5788 12.5802 -8.9503
550 1 4.71353 14.1525 14.1544 -8.95146
551 1 6.28365 12.5776 12.5818 -8.95348
552 1 7.85291 14.1607 14.1661 -8.95197
553 1 9.41088 12.6046 12.5964 -8.93036
554 1 11.0079 14.1536 14.1553 -8.99083
555 1 12.6296 12.6134 12.624 -8.89431
556 1 14.168 14.1654 14.167 -8.92697
557 1 15.7382 12.5819 12.5843 -8.95911
558 1 17.3025 14.1544 14.1548 -8.95124
559 1 18.873 12.5797 12.5801 -8.95195
560 1 20.4429 14.1524 14.1526 -8.95033
561 1 22.013 15.725 12.58 -8.95036
562 1 1.57039 17.298 14.1532 -8.9498
563 1 3.13955 15.7268 12.5818 -8.95154
564 1 4.7116 17.302 14.1572 -8.94343
565 1 6.27345 15.74 12.594 -8.9261
566 1 7.86029 17.3013 14.1553 -8.94964
567 1 9.43227 15.7331 12.5842 -8.98117
568 1 11.0079 17.2992 14.1533 -8.94843
569 1 12.5865 15.732 12.5836 -8.97906
570 1 14.1549 17.3014 14.1546 -8.95106
571 1 15.7285 15.7272 12.5806 -8.95005
572 1 17.2984 17.2984 14.1527 -8.94987
573 1 18.8708 15.7254 12.5799 -8.94963
574 1 20.4417 17.2975 14.1524 -8.94977
575 1 -0.000755712 18.8699 12.5798 -8.94941
576 1 1.57144 20.4421 14.1525 -8.94944
577 1 3.14259 18.871 12.5806 -8.94906
578 1 4.71571 20.4432 14.1533 -8.95004
579 1 6.28691 18.8741 12.5817 -8.95197
580 1 7.86157 20.4432 14.1532 -8.94952
581 1 9.43401 18.8734 12.5814 -8.94899
582 1 11.0074 20.4426 14.1528 -8.94922
583 1 12.5805 18.872 12.5803 -8.95049
584 1 14.1527 20.4427 14.1525 -8.95048
585 1 15.7251 18.8703 12.5794 -8.95005
586 1 17.2972 20.4421 14.152 -8.94981
587 1 18.8695 18.8699 12.5796 -8.9495
588 1 20.4414 20.4419 14.1521 -8.94953
589 1 1.57215 11.0069 17.2974 -8.94953
675 1 3.14408 18.8698 18.8698 -8.9494
674 1 1.57203 20.4418 20.4415 -8.94933
673 1 22.0139 18.8694 18.8694 -8.94955
672 1 20.4419 17.297 20.4415 -8.94952
671 1 18.87 15.7249 18.8697 -8.94944
595 1 20.4424 11.0069 17.2975 -8.94947
596 1 0.000326892 12.5795 15.7251 -8.94959
597 1 1.57209 14.1519 17.2974 -8.9494
598 1 3.14369 12.5793 15.7255 -8.949
599 1 4.71634 14.1518 17.298 -8.94947
600 1 6.28815 12.5788 15.7263 -8.9481
601 1 7.86135 14.1525 17.2998 -8.95331
602 1 9.43493 12.5796 15.7276 -8.9541
603 1 11.0069 14.153 17.2989 -8.94847
604 1 12.5834 12.5808 15.734 -8.96107
605 1 14.1543 14.1539 17.3012 -8.95201
606 1 15.7298 12.5811 15.7294 -8.94671
607 1 17.2989 14.153 17.2987 -8.94908
608 1 18.8716 12.5799 15.7259 -8.94921
609 1 20.4423 14.1522 17.2975 -8.94941
610 1 22.0139 15.7247 15.725 -8.94988
611 1 1.57182 17.2971 17.2975 -8.94982
612 1 3.1431 15.7249 15.7259 -8.95032
613 1 4.71552 17.2983 17.2991 -8.94923
614 1 6.28556 15.7282 15.7304 -8.94911
615 1 7.86174 17.2978 17.2983 -8.94954
616 1 9.43466 15.7264 15.727 -8.94878
617 1 11.0072 17.2979 17.2979 -8.94916
618 1 12.5803 15.7264 15.7269 -8.94986
619 1 14.1525 17.2981 17.298 -8.94998
620 1 15.7296 15.7294 15.7295 -8.94362
621 1 17.2985 17.2986 17.2984 -8.94796
622 1 18.8712 15.7257 15.7257 -8.94973
623 1 20.4421 17.2973 17.2974 -8.94954
624 1 22.0133 18.8698 15.725 -8.94952
625 1 1.57169 20.442 17.2974 -8.94906
626 1 3.14284 18.8708 15.7262 -8.94791
627 1 4.7166 20.4421 17.2976 -8.94962
628 1 6.28855 18.8711 15.7262 -8.94974
629 1 7.86196 20.442 17.2975 -8.94954
630 1 9.43466 18.8704 15.7256 -8.94966
631 1 11.0071 20.442 17.2974 -8.9495
632 1 12.5799 18.8704 15.7254 -8.94931
633 1 14.1522 20.442 17.2973 -8.94954
634 1 15.7257 18.8711 15.7256 -8.94972
635 1 17.2973 20.4421 17.2973 -8.94954
636 1 18.8697 18.8699 15.7248 -8.94974
637 1 20.4415 20.4419 17.297 -8.94954
670 1 17.2976 17.2976 20.4416 -8.94955
669 1 15.7256 15.7256 18.8706 -8.95008
668 1 14.1522 17.2975 20.4414 -8.94958
667 1 12.5796 15.7252 18.87 -8.94945
666 1 11.007 17.2975 20.4413 -8.94954
665 1 9.43432 15.7251 18.8699 -8.94951
664 1 7.86179 17.2973 20.4414 -8.94957
645 1 22.0141 12.5794 18.8695 -8.94952
646 1 1.57225 14.1519 20.4415 -8.94952
647 1 3.14436 12.5793 18.8696 -8.94952
648 1 4.71676 14.1518 20.4415 -8.94953
649 1 6.2891 12.5792 18.8698 -8.94942
650 1 7.86184 14.1519 20.4415 -8.95071
651 1 9.43452 12.5793 18.8699 -8.94984
652 1 11.0068 14.1523 20.4414 -8.94998
653 1 12.5797 12.5796 18.8711 -8.95175
654 1 14.1525 14.1525 20.4417 -8.95075
655 1 15.7259 12.58 18.8709 -8.94939
656 1 17.2978 14.1524 20.4417 -8.94938
657 1 18.8702 12.5796 18.8698 -8.94945
658 1 20.442 14.152 20.4416 -8.94951
659 1 22.014 15.7245 18.8694 -8.94949
660 1 1.57219 17.2968 20.4415 -8.94968
661 1 3.14434 15.7244 18.8696 -8.94968
662 1 4.71656 17.2972 20.4415 -8.95013
663 1 6.2889 15.7248 18.8705 -8.95087
197 1 22.0134 22.014 12.5796 -8.94951
199 1 3.14365 22.0141 12.58 -8.94934
203 1 9.43459 22.0144 12.5801 -8.95031
205 1 12.5798 22.0142 12.5797 -8.95035
209 1 18.8693 22.014 12.5795 -8.94953
250 1 6.28913 22.0141 15.7253 -8.94959
389 1 15.7248 18.8699 22.0133 -8.94962
383 1 6.28925 18.8698 22.0131 -8.9495
256 1 15.7249 22.0139 15.7249 -8.95005
297 1 3.1444 22.014 18.8695 -8.94955
301 1 9.43449 22.0139 18.8694 -8.94952
351 1 22.0141 12.5794 22.0136 -8.94953
355 1 6.28917 12.5792 22.0133 -8.94945
371 1 9.43425 15.7251 22.0125 -8.94975
367 1 3.14435 15.7243 22.0134 -8.94968
357 1 9.43449 12.5792 22.0132 -8.94953
359 1 12.5798 12.5796 22.0124 -8.95119
379 1 22.0138 18.8694 22.0136 -8.94957
