ITEM: TIMESTEP
61
ITEM: NUMBER OF ATOMS
688
ITEM: BOX BOUNDS pp pp pp
0.0000000000000000e+00 2.2013900999999997e+01
0.0000000000000000e+00 2.2013900999999997e+01
0.0000000000000000e+00 2.2013900999999997e+01
ITEM: ATOMS id type x y z c_pot
189 1 20.4415 4.71709 11.007 -8.94959
2 1 1.57232 1.57236 1.57232 -8.94942
448 1 20.4423 11.0068 7.862 -8.94998
4 1 4.71722 1.57234 1.57231 -8.9497
447 1 17.3009 11.006 7.86157 -8.95049
6 1 7.86208 1.57232 1.57229 -8.94959
7 1 9.43452 6.10943e-06 -4.25967e-05 -8.94964
8 1 11.007 1.57231 1.57228 -8.94961
445 1 11.0835 11 7.62654 -8.15571
10 1 14.1518 1.57232 1.57231 -8.94957
443 1 4.71752 11.0068 7.86189 -8.94242
12 1 17.2968 1.57229 1.5723 -8.94955
442 1 1.57185 11.0069 7.86176 -8.9485
14 1 20.4415 1.57239 1.5724 -8.94964
188 1 17.2971 4.71672 11.0069 -8.94915
16 1 1.57234 4.71722 1.57231 -8.94973
398 1 17.2991 11.007 4.7159 -8.94925
18 1 4.7168 4.71682 1.5717 -8.94943
394 1 4.71592 11.0068 4.71575 -8.94679
20 1 7.86199 4.71686 1.57187 -8.94929
50 1 -2.9168e-05 5.37916e-06 3.14482 -8.94966
22 1 11.0069 4.7168 1.57188 -8.9495
183 1 1.57182 4.71688 11.0071 -8.94941
24 1 14.1519 4.71682 1.57194 -8.94975
349 1 17.2972 11.007 1.5719 -8.94957
26 1 17.2972 4.7167 1.5719 -8.94856
345 1 4.71689 11.0069 1.57191 -8.94961
28 1 20.4416 4.71716 1.57231 -8.94956
165 1 9.43059 6.28954 9.43413 -8.99606
30 1 1.57234 7.86209 1.57231 -8.94954
164 1 6.28223 6.28233 9.43445 -8.94305
32 1 4.71706 7.86223 1.5721 -8.94969
163 1 3.14238 6.28846 9.43451 -8.94911
34 1 7.86176 7.86186 1.5708 -8.9518
35 1 9.43438 6.28934 -0.000472516 -8.94955
36 1 11.0066 7.86138 1.57052 -8.95004
37 1 12.5794 6.28937 -0.00045103 -8.94956
38 1 14.1528 7.86108 1.56999 -8.95125
162 1 -0.00040724 6.28943 9.43452 -8.94981
40 1 17.2971 7.86188 1.57189 -8.94956
161 1 18.8692 3.14468 9.43452 -8.94964
42 1 20.4416 7.86208 1.57231 -8.94959
350 1 20.4416 11.007 1.5723 -8.9496
44 1 3.14472 9.43451 -0.000111143 -8.94959
160 1 15.7246 3.14427 9.43451 -8.94963
159 1 12.5797 3.1443 9.43443 -8.94845
158 1 9.43461 3.14334 9.43444 -8.94772
48 1 15.7246 9.4344 -0.000516119 -8.94948
157 1 6.28845 3.14252 9.43452 -8.94936
175 1 18.8699 9.43406 9.43451 -8.94802
51 1 1.57231 1.57234 4.71721 -8.94965
174 1 15.7241 9.43418 9.43458 -8.94046
53 1 4.71687 1.57195 4.71687 -8.9498
54 1 6.28965 3.76606e-05 3.14468 -8.94961
55 1 7.86209 1.57202 4.71695 -8.94961
173 1 12.5614 9.44403 9.43312 -8.96245
57 1 11.0071 1.57197 4.7169 -8.94959
172 1 9.36258 9.22932 9.43303 -8.21991
59 1 14.152 1.57194 4.71705 -8.95023
60 1 15.7244 1.43926e-05 3.1447 -8.94979
61 1 17.2967 1.57236 4.71726 -8.94966
171 1 6.28083 9.42892 9.43472 -8.97011
63 1 20.4415 1.57239 4.71725 -8.94962
64 1 22.0138 3.14475 3.14476 -8.9496
65 1 1.57179 4.7169 4.7169 -8.94966
66 1 3.14433 3.14437 3.14433 -8.94868
67 1 4.71486 4.71492 4.71485 -8.94553
68 1 6.28952 3.14438 3.14441 -8.94977
69 1 7.86167 4.71534 4.71585 -8.9495
70 1 9.4345 3.1443 3.14437 -8.94946
71 1 11.0072 4.7152 4.71581 -8.94814
72 1 12.5795 3.14428 3.14442 -8.94929
73 1 14.1535 4.71424 4.71566 -8.95004
74 1 15.7247 3.14408 3.14438 -8.94949
75 1 17.2971 4.71682 4.71716 -8.95014
76 1 18.8691 3.14473 3.14479 -8.94975
77 1 20.4415 4.71715 4.71721 -8.94974
78 1 22.0139 6.28961 3.14471 -8.9497
79 1 1.57206 7.8621 4.717 -8.94971
80 1 3.14441 6.28958 3.14445 -8.95002
81 1 4.71574 7.86206 4.71614 -8.95079
82 1 6.28797 6.28809 3.14195 -8.9496
83 1 7.85706 7.85704 4.70864 -8.95183
84 1 9.43415 6.28823 3.14288 -8.94799
85 1 11.0069 7.858 4.71033 -8.94999
86 1 12.5798 6.28817 3.14287 -8.94921
87 1 14.1625 7.85156 4.70664 -8.92966
88 1 15.7269 6.287 3.14222 -8.94487
89 1 17.2996 7.86057 4.71576 -8.95014
90 1 18.8698 6.28924 3.1444 -8.94952
91 1 20.442 7.86188 4.717 -8.94996
92 1 -4.05885e-06 9.4345 3.14467 -8.94958
93 1 3.14442 9.4345 3.14439 -8.94917
94 1 6.28928 9.43509 3.14404 -8.94942
95 1 9.43459 9.4344 3.14264 -8.95197
96 1 12.5812 9.43326 3.13773 -8.95874
97 1 15.7262 9.43385 3.14265 -8.94853
98 1 18.8697 9.43444 3.14442 -8.94946
170 1 3.1424 9.43487 9.43453 -8.95124
100 1 1.57229 1.57233 7.86209 -8.94963
101 1 3.14465 3.17158e-05 6.28961 -8.94953
102 1 4.71683 1.57194 7.86197 -8.94943
169 1 22.0136 9.43452 9.43452 -8.94975
104 1 7.86195 1.57137 7.86194 -8.95117
105 1 9.43465 0.000137809 6.2894 -8.95006
106 1 11.0071 1.57192 7.86205 -8.9496
107 1 12.5795 8.01361e-05 6.28954 -8.95019
108 1 14.1521 1.57222 7.86209 -8.94953
168 1 18.8696 6.28917 9.4345 -8.94951
110 1 17.2968 1.5723 7.86209 -8.9496
111 1 18.8691 9.99493e-06 6.28967 -8.94962
112 1 20.4415 1.57239 7.8621 -8.94964
113 1 -0.000103451 3.14474 6.28965 -8.94957
114 1 1.57182 4.71688 7.86199 -8.9494
115 1 3.14436 3.14438 6.28947 -8.94949
116 1 4.71535 4.71532 7.86141 -8.94819
117 1 6.2887 3.14263 6.28869 -8.951
118 1 7.86014 4.71054 7.86092 -8.95764
119 1 9.43482 3.14304 6.28902 -8.95019
120 1 11.007 4.71517 7.86204 -8.95081
121 1 12.5797 3.14317 6.28942 -8.95188
122 1 14.1523 4.71628 7.86264 -8.94934
123 1 15.7245 3.14447 6.28977 -8.94965
124 1 17.2971 4.71673 7.86206 -8.94912
125 1 18.8692 3.14472 6.28966 -8.94953
126 1 20.4415 4.71709 7.86207 -8.94959
127 1 22.0135 6.2895 6.28955 -8.94998
128 1 1.57092 7.86192 7.86193 -8.95121
129 1 3.14238 6.28857 6.28855 -8.95061
130 1 4.70953 7.85961 7.86024 -8.95694
131 1 6.28012 6.28022 6.28043 -8.93294
132 1 7.82727 7.82964 7.83341 -8.86887
133 1 9.43443 6.28284 6.28627 -8.95177
134 1 11.0191 7.85516 7.84285 -8.91354
135 1 12.5839 6.28069 6.28507 -8.95454
136 1 14.155 7.86015 7.86456 -8.95343
137 1 15.7256 6.2884 6.28977 -8.95134
138 1 17.298 7.86136 7.8626 -8.94973
139 1 18.8694 6.28939 6.28972 -8.94972
140 1 20.4416 7.86188 7.86211 -8.94981
141 1 22.0139 9.43447 6.28946 -8.94994
142 1 3.14352 9.4349 6.28911 -8.94988
143 1 6.28574 9.43571 6.28797 -8.95134
144 1 9.42015 9.41209 6.28027 -8.90194
145 1 12.6184 9.40025 6.25404 -8.85067
146 1 15.7338 9.4311 6.2858 -8.95582
147 1 18.8711 9.43404 6.2892 -8.95126
148 1 -3.65426e-05 7.33717e-06 9.43453 -8.94964
167 1 15.7258 6.28789 9.43438 -8.94645
150 1 6.28929 0.000126196 9.43454 -8.95005
151 1 9.43457 0.000380473 9.43441 -8.94943
152 1 12.5797 0.000331303 9.43441 -8.94948
153 1 15.7244 4.26361e-05 9.43453 -8.94968
166 1 12.5781 6.29048 9.43412 -8.9449
155 1 22.0138 3.14473 9.43453 -8.9496
156 1 3.14433 3.14437 9.43453 -8.94959
181 1 17.2968 1.5723 11.007 -8.9496
344 1 1.57231 11.0069 1.57228 -8.94963
177 1 4.71683 1.57194 11.0071 -8.94943
184 1 4.71536 4.71532 11.0076 -8.94822
45 1 6.2895 9.43457 -0.000223456 -8.94952
41 1 18.8692 6.28963 -8.9065e-05 -8.94966
19 1 6.28965 3.14474 -9.98253e-05 -8.94958
25 1 15.7243 3.14474 -8.9007e-05 -8.9497
176 1 1.57229 1.57233 11.007 -8.94963
254 1 12.5794 1.05686e-05 15.7244 -8.94951
178 1 7.86197 1.57135 11.0071 -8.95109
179 1 11.0071 1.57199 11.007 -8.95018
180 1 14.152 1.57218 11.0069 -8.94948
644 1 20.4415 11.007 20.4415 -8.94964
182 1 20.4415 1.57239 11.007 -8.94964
643 1 17.2968 11.007 20.4415 -8.94956
252 1 9.43453 1.46196e-05 15.7244 -8.94956
185 1 7.86018 4.71058 11.008 -8.95753
186 1 11.0069 4.71446 11.0069 -8.95195
187 1 14.1523 4.71624 11.0062 -8.94925
642 1 14.1521 11.007 20.4416 -8.95018
641 1 11.0068 11.0069 20.4415 -8.94906
190 1 1.5709 7.86191 11.0071 -8.95123
191 1 4.7094 7.85952 11.0088 -8.95668
192 1 7.82726 7.82992 11.0347 -8.86761
193 1 11.019 7.85146 11.0257 -8.925
194 1 14.1554 7.86006 11.0035 -8.95155
195 1 17.2982 7.86126 11.0064 -8.94952
196 1 20.4417 7.86187 11.0069 -8.94984
343 1 18.8692 9.4345 18.8692 -8.94962
198 1 1.57231 1.57234 14.1518 -8.94965
342 1 15.7247 9.43436 18.8698 -8.94944
200 1 4.71688 1.57194 14.1522 -8.94982
201 1 6.28943 9.35129e-05 12.5796 -8.95034
202 1 7.86202 1.57202 14.1522 -8.94965
341 1 12.5794 9.43447 18.8703 -8.9513
204 1 11.0071 1.57194 14.1522 -8.94952
340 1 9.43442 9.43455 18.8696 -8.94968
206 1 14.1521 1.57193 14.1521 -8.95029
207 1 15.7244 3.8017e-05 12.5794 -8.94959
208 1 17.2967 1.57234 14.1518 -8.94969
339 1 6.28945 9.43453 18.8694 -8.94948
210 1 20.4415 1.57239 14.1518 -8.94961
211 1 -0.000103075 3.14474 12.5794 -8.94957
212 1 1.57179 4.71689 14.1522 -8.94964
213 1 3.14436 3.14438 12.5796 -8.94949
214 1 4.71486 4.71493 14.1542 -8.94562
215 1 6.28872 3.14264 12.5803 -8.95098
216 1 7.8615 4.71508 14.1533 -8.94958
217 1 9.43473 3.14287 12.5801 -8.95033
218 1 11.0072 4.71501 14.1533 -8.94805
219 1 12.5798 3.14296 12.5797 -8.95208
220 1 14.1537 4.71384 14.1536 -8.95021
221 1 15.7245 3.14445 12.5792 -8.94964
222 1 17.2971 4.7168 14.1519 -8.95019
223 1 18.8692 3.14471 12.5794 -8.94953
224 1 20.4415 4.71714 14.1518 -8.94972
225 1 22.0135 6.28949 12.5795 -8.94998
226 1 1.57204 7.86209 14.1521 -8.94974
227 1 3.14236 6.28855 12.5805 -8.95053
228 1 4.71559 7.86205 14.1529 -8.95119
229 1 6.28013 6.28033 12.5884 -8.93315
230 1 7.85593 7.85597 14.1613 -8.94988
231 1 9.43395 6.28194 12.583 -8.952
232 1 11.0069 7.85745 14.1588 -8.95019
233 1 12.5844 6.27953 12.5842 -8.95513
234 1 14.1642 7.84988 14.1639 -8.92608
235 1 15.7258 6.28837 12.5791 -8.95137
236 1 17.2999 7.8605 14.1533 -8.95062
237 1 18.8695 6.28936 12.5793 -8.94967
238 1 20.442 7.86187 14.152 -8.95002
239 1 22.0139 9.43447 12.5796 -8.94996
240 1 3.14343 9.43492 12.5799 -8.95001
241 1 6.28526 9.43613 12.5806 -8.95405
242 1 9.4141 9.40863 12.591 -8.93477
243 1 12.626 9.39521 12.6188 -8.86763
244 1 15.7348 9.43138 12.5829 -8.95836
245 1 18.8713 9.43406 12.5798 -8.95147
246 1 -2.83965e-05 4.96375e-06 15.7242 -8.94966
247 1 1.57232 1.57236 17.2967 -8.94943
248 1 3.14467 2.33789e-05 15.7244 -8.94958
249 1 4.7172 1.57234 17.2968 -8.94967
338 1 3.14471 9.4345 18.8692 -8.9496
251 1 7.86209 1.57231 17.2968 -8.94958
337 1 22.0139 9.43452 18.8691 -8.94963
253 1 11.007 1.5723 17.2968 -8.94961
336 1 20.4415 7.8621 20.4415 -8.94964
255 1 14.1518 1.57231 17.2968 -8.94957
335 1 18.8692 6.28961 18.8692 -8.94963
257 1 17.2968 1.57228 17.2968 -8.94952
258 1 18.8691 1.03969e-05 15.7242 -8.94969
259 1 20.4415 1.57239 17.2967 -8.94965
260 1 22.0138 3.14475 15.7243 -8.94959
261 1 1.57234 4.71721 17.2967 -8.94974
262 1 3.14433 3.14437 15.7247 -8.9487
263 1 4.71674 4.71676 17.2974 -8.94931
264 1 6.28947 3.14432 15.7247 -8.94976
265 1 7.86199 4.71685 17.2972 -8.94927
266 1 9.43449 3.14426 15.7247 -8.94942
267 1 11.0069 4.71677 17.2972 -8.94948
268 1 12.5795 3.14423 15.7247 -8.94925
269 1 14.1519 4.71679 17.2972 -8.94974
270 1 15.7248 3.14399 15.7248 -8.9495
271 1 17.2973 4.71661 17.2973 -8.94837
272 1 18.8692 3.14472 15.7243 -8.94978
273 1 20.4416 4.71715 17.2968 -8.94957
274 1 22.0139 6.28961 15.7243 -8.94972
275 1 1.57232 7.86207 17.2968 -8.94953
276 1 3.14437 6.28956 15.7246 -8.95009
277 1 4.717 7.86216 17.297 -8.94952
278 1 6.28771 6.2878 15.7273 -8.94916
279 1 7.8618 7.86189 17.2983 -8.95215
280 1 9.43413 6.28817 15.7263 -8.94783
281 1 11.0066 7.86134 17.2986 -8.95005
282 1 12.5797 6.28804 15.7264 -8.94905
283 1 14.1528 7.86106 17.2993 -8.95171
284 1 15.7273 6.28655 15.7272 -8.9441
285 1 17.2972 7.8618 17.2973 -8.94934
286 1 18.8699 6.2892 15.7247 -8.9496
287 1 20.4416 7.86205 17.2968 -8.94956
288 1 8.1619e-06 9.43448 15.7244 -8.94961
289 1 3.14431 9.43445 15.7247 -8.94915
290 1 6.28892 9.43482 15.7253 -8.94865
291 1 9.43468 9.43458 15.7263 -8.95299
292 1 12.5812 9.43338 15.7316 -8.96005
293 1 15.7267 9.43348 15.7269 -8.94747
294 1 18.8699 9.43436 15.7247 -8.94941
49 1 18.8692 9.43451 22.0138 -8.94962
296 1 1.57239 1.57239 20.4415 -8.94957
334 1 17.2968 7.86203 20.4415 -8.94952
298 1 4.71726 1.5724 20.4415 -8.94964
299 1 6.28968 1.54618e-06 18.8691 -8.94964
300 1 7.8621 1.57239 20.4415 -8.94963
333 1 15.7246 6.28926 18.8697 -8.94995
302 1 11.007 1.57238 20.4415 -8.94964
332 1 14.152 7.86189 20.4415 -8.95045
304 1 14.1518 1.57239 20.4415 -8.94962
305 1 15.7242 7.24962e-07 18.8691 -8.94965
306 1 17.2967 1.57239 20.4415 -8.94969
331 1 12.5794 6.28936 18.8696 -8.94955
308 1 20.4415 1.5724 20.4415 -8.94954
309 1 22.0139 3.14482 18.8691 -8.94963
310 1 1.5724 4.71726 20.4415 -8.94967
311 1 3.14472 3.14472 18.8692 -8.94951
312 1 4.71714 4.71715 20.4415 -8.9498
313 1 6.28966 3.14474 18.8692 -8.94959
314 1 7.86204 4.7171 20.4415 -8.94954
315 1 9.43452 3.14471 18.8692 -8.94961
316 1 11.0069 4.71709 20.4415 -8.9496
317 1 12.5794 3.14471 18.8692 -8.9496
318 1 14.1518 4.71712 20.4415 -8.94959
319 1 15.7243 3.14473 18.8692 -8.94972
320 1 17.2968 4.71709 20.4415 -8.94958
321 1 18.8692 3.14472 18.8691 -8.94936
322 1 20.4415 4.71725 20.4415 -8.94965
323 1 22.0139 6.28967 18.8691 -8.94961
324 1 1.57238 7.86209 20.4415 -8.94961
325 1 3.14477 6.28969 18.8691 -8.94966
326 1 4.71716 7.86211 20.4415 -8.94957
327 1 6.28947 6.28949 18.8696 -8.95029
328 1 7.862 7.86204 20.4415 -8.95021
329 1 9.43438 6.28933 18.8696 -8.94953
330 1 11.0068 7.86188 20.4415 -8.95003
512 1 1.57184 11.0069 11.0073 -8.94841
513 1 4.71762 11.007 11.007 -8.94154
515 1 11.0887 10.9711 11.2655 -8.33863
517 1 17.301 11.0061 11.0072 -8.95023
518 1 20.4423 11.0068 11.007 -8.94991
540 1 1.57189 11.0069 14.1523 -8.94959
541 1 4.71547 11.0068 14.1535 -8.94705
542 1 7.86167 11.0063 14.1526 -8.9448
544 1 14.1617 11.0063 14.1616 -8.94115
545 1 17.2998 11.0069 14.1534 -8.94938
546 1 20.4421 11.0069 14.1521 -8.94989
47 1 12.5794 9.43445 22.0127 -8.95128
591 1 7.86165 11.0069 17.2975 -8.94895
592 1 11.0067 11.0069 17.2976 -8.94607
593 1 14.1532 11.0069 17.2995 -8.94977
46 1 9.43438 9.43453 22.0133 -8.94973
638 1 1.57238 11.0069 20.4415 -8.94963
639 1 4.71712 11.0069 20.4415 -8.94967
640 1 7.86193 11.0069 20.4415 -8.94956
3 1 3.14482 4.42417e-06 22.0139 -8.94967
39 1 15.7246 6.28929 22.0134 -8.94986
9 1 12.5794 5.87908e-06 22.0139 -8.94963
33 1 6.28947 6.28949 22.0134 -8.95021
13 1 18.8691 1.84721e-06 22.0139 -8.94958
15 1 22.0139 3.14482 22.0139 -8.94963
17 1 3.14473 3.14473 22.0138 -8.94954
31 1 3.14478 6.28969 22.0138 -8.94968
23 1 12.5794 3.14472 22.0138 -8.9496
29 1 22.0139 6.28968 22.0139 -8.94962
27 1 18.8692 3.14474 22.0138 -8.9494
21 1 9.43452 3.14471 22.0138 -8.94962
43 1 22.0139 9.43452 22.0139 -8.94963
539 1 20.4415 20.4415 11.007 -8.94963
688 3 10.2448 11.0421 9.44821 2.24524
346 1 7.86181 11.007 1.57193 -8.94868
347 1 11.0068 11.007 1.57121 -8.94715
348 1 14.153 11.007 1.57002 -8.94948
687 2 10.9558 12.5079 10.2073 0.398748
529 1 11.0069 17.3077 11.0073 -8.96275
154 1 18.8691 22.0139 9.43453 -8.94963
352 1 1.57233 14.1518 1.5723 -8.94954
353 1 3.14472 12.5794 -0.000114763 -8.9496
354 1 4.71704 14.1516 1.57205 -8.94958
149 1 3.14463 22.0139 9.43453 -8.94957
356 1 7.86182 14.1519 1.57063 -8.95223
393 1 1.57196 11.0069 4.71681 -8.94948
358 1 11.0067 14.1524 1.57054 -8.95024
399 1 20.4419 11.007 4.71697 -8.94977
360 1 14.1527 14.1527 1.57017 -8.95125
361 1 15.7246 12.5795 -0.000495792 -8.94942
362 1 17.2971 14.152 1.57193 -8.94946
363 1 18.8692 12.5794 -9.6339e-05 -8.94962
364 1 20.4416 14.1518 1.57231 -8.94957
109 1 15.7244 22.014 6.28963 -8.94955
366 1 1.57234 17.2967 1.57231 -8.94978
103 1 6.2894 22.0141 6.28938 -8.95034
368 1 4.71674 17.2971 1.57157 -8.94956
369 1 6.28946 15.7244 -0.000524109 -8.95033
370 1 7.86198 17.2971 1.57171 -8.94931
99 1 22.0139 22.0139 6.28968 -8.94964
372 1 11.007 17.2972 1.57172 -8.94947
62 1 18.8691 22.0139 3.14483 -8.94966
374 1 14.152 17.2971 1.57188 -8.94977
375 1 15.7246 15.7246 -0.000504632 -8.94989
376 1 17.2972 17.2972 1.5719 -8.94869
58 1 12.5794 22.0139 3.14465 -8.94954
378 1 20.4416 17.2967 1.57232 -8.94961
1 1 22.0139 22.0139 -1.92533e-05 -8.94954
380 1 1.5723 20.4416 1.5723 -8.94936
381 1 3.14472 18.8692 -0.000147791 -8.94955
382 1 4.7172 20.4416 1.57229 -8.94969
56 1 9.43453 22.0139 3.14464 -8.94959
384 1 7.86208 20.4416 1.57227 -8.94959
385 1 9.43452 18.8692 -0.000145103 -8.94961
386 1 11.007 20.4416 1.57226 -8.94962
387 1 12.5794 18.8692 -0.000134307 -8.94958
388 1 14.1518 20.4416 1.57229 -8.94956
52 1 3.14466 22.0139 3.14466 -8.94955
390 1 17.2968 20.4416 1.57229 -8.94954
391 1 18.8692 18.8692 -7.08683e-05 -8.94942
392 1 20.4415 20.4415 1.57239 -8.94962
511 1 18.8692 18.8693 9.43452 -8.94963
510 1 15.7248 18.8697 9.43454 -8.94957
395 1 7.86352 11.0069 4.71777 -8.94786
396 1 11.0111 11.0065 4.71906 -9.00387
397 1 14.1592 11.0072 4.70947 -8.94535
509 1 12.5804 18.8708 9.43382 -8.94732
508 1 9.43408 18.872 9.43384 -8.94639
400 1 -6.38306e-06 12.5794 3.14467 -8.94959
401 1 1.57202 14.1517 4.71698 -8.94959
402 1 3.14439 12.5793 3.14436 -8.9492
403 1 4.71579 14.1515 4.71605 -8.95092
404 1 6.28918 12.5787 3.14391 -8.94898
405 1 7.85742 14.1565 4.70716 -8.95616
406 1 9.4347 12.5791 3.14297 -8.95077
407 1 11.0068 14.1551 4.71021 -8.95206
408 1 12.5811 12.5804 3.13855 -8.95734
409 1 14.1615 14.1613 4.70729 -8.93325
410 1 15.7262 12.5801 3.14283 -8.94784
411 1 17.2991 14.1529 4.71601 -8.95085
412 1 18.8697 12.5795 3.14442 -8.94938
413 1 20.4419 14.1519 4.71704 -8.94995
414 1 22.0139 15.7243 3.14472 -8.94971
415 1 1.57164 17.2971 4.71679 -8.9497
416 1 3.14441 15.7242 3.14442 -8.95014
417 1 4.71408 17.2997 4.71406 -8.9439
418 1 6.28789 15.7259 3.14145 -8.95039
419 1 7.8615 17.299 4.71518 -8.94892
420 1 9.43429 15.7258 3.14235 -8.9484
421 1 11.0075 17.299 4.71529 -8.94714
422 1 12.5798 15.7256 3.14272 -8.94955
423 1 14.1536 17.2997 4.71542 -8.94972
424 1 15.7267 15.7267 3.14228 -8.94562
425 1 17.2973 17.2972 4.71694 -8.94967
426 1 18.8697 15.7246 3.14443 -8.94972
427 1 20.4415 17.2968 4.71713 -8.94966
428 1 22.0138 18.8692 3.14472 -8.94956
429 1 1.57229 20.4416 4.7172 -8.94966
430 1 3.14418 18.8697 3.14418 -8.94833
431 1 4.71679 20.4422 4.71678 -8.9498
432 1 6.28946 18.8696 3.14426 -8.94967
433 1 7.86207 20.4421 4.71684 -8.9496
434 1 9.43452 18.8697 3.14424 -8.94943
435 1 11.0071 20.4421 4.7168 -8.94951
436 1 12.5795 18.8697 3.1443 -8.94917
437 1 14.1521 20.442 4.71699 -8.95022
438 1 15.7247 18.8698 3.14432 -8.94944
439 1 17.2968 20.4416 4.71722 -8.94963
440 1 18.8692 18.8692 3.14475 -8.94966
441 1 20.4415 20.4415 4.71725 -8.94963
507 1 6.28814 18.8719 9.43456 -8.94938
506 1 3.1442 18.8697 9.43454 -8.94954
444 1 7.87642 11.0008 7.86472 -8.9511
505 1 22.0138 18.8692 9.43453 -8.9496
446 1 14.1649 11.0013 7.85172 -9.00249
504 1 18.8698 15.7248 9.43453 -8.9493
503 1 15.726 15.7257 9.43462 -8.94723
449 1 22.0138 12.5793 6.28946 -8.94981
450 1 1.57069 14.152 7.86189 -8.95167
451 1 3.14344 12.5788 6.28902 -8.94942
452 1 4.70784 14.1547 7.8597 -8.95909
453 1 6.28605 12.5765 6.28809 -8.95171
454 1 7.81825 14.1953 7.82077 -8.86243
455 1 9.42095 12.5992 6.28308 -8.95825
456 1 11.0176 14.1609 7.83856 -8.95363
457 1 12.6152 12.611 6.25906 -8.90568
458 1 14.158 14.1573 7.86122 -8.97756
459 1 15.7322 12.5814 6.28738 -8.95766
460 1 17.2995 14.1533 7.86159 -8.94848
461 1 18.8708 12.5796 6.28939 -8.95092
462 1 20.4419 14.1521 7.86196 -8.95005
463 1 22.0135 15.7245 6.28947 -8.95013
464 1 1.57169 17.2971 7.86198 -8.94937
465 1 3.14174 15.7256 6.28825 -8.95113
466 1 4.71483 17.299 7.86131 -8.94795
467 1 6.27694 15.7368 6.27712 -8.92535
468 1 7.8593 17.3058 7.85992 -8.9594
469 1 9.43463 15.7329 6.28373 -8.94844
470 1 11.0068 17.2994 7.86188 -8.95116
471 1 12.584 15.7335 6.28408 -8.95366
472 1 14.1528 17.2986 7.86205 -8.94973
473 1 15.7265 15.7262 6.28878 -8.94941
474 1 17.2972 17.2972 7.86208 -8.94959
475 1 18.8698 15.7247 6.2894 -8.94945
476 1 20.4415 17.2968 7.86207 -8.94959
477 1 -0.000127482 18.8692 6.28965 -8.94957
478 1 1.57227 20.4416 7.86209 -8.94962
479 1 3.14423 18.8696 6.28943 -8.94948
480 1 4.71675 20.4421 7.86197 -8.94943
481 1 6.28835 18.8721 6.28832 -8.95123
482 1 7.86178 20.4433 7.86177 -8.95133
483 1 9.43489 18.8714 6.28864 -8.95044
484 1 11.0072 20.4424 7.86198 -8.94946
485 1 12.5797 18.871 6.28919 -8.95203
486 1 14.1522 20.4421 7.86193 -8.94945
487 1 15.7246 18.8697 6.28958 -8.94956
488 1 17.2968 20.4416 7.86209 -8.94963
489 1 18.8692 18.8692 6.28966 -8.94964
490 1 20.4415 20.4415 7.8621 -8.94963
491 1 22.0137 12.5793 9.43453 -8.95017
492 1 3.1423 12.5789 9.43452 -8.95084
493 1 6.28167 12.5862 9.43417 -8.98448
494 1 9.29691 12.8045 9.41576 -8.34295
495 1 12.6194 12.5723 9.4112 -9.13165
496 1 15.7347 12.5794 9.43382 -8.95903
497 1 18.8715 12.5797 9.43448 -8.95142
498 1 -0.000450478 15.7245 9.43453 -8.94982
499 1 3.14192 15.7256 9.43455 -8.94908
500 1 6.28055 15.733 9.43467 -8.94322
501 1 9.42754 15.7265 9.43213 -9.05307
502 1 12.5793 15.725 9.43182 -8.99613
526 1 1.5717 17.2971 11.0071 -8.94936
11 1 15.7242 22.0139 -2.95539e-05 -8.94963
5 1 6.28967 22.0139 -3.7608e-05 -8.94962
527 1 4.7149 17.299 11.0078 -8.94758
532 1 20.4415 17.2969 11.007 -8.94958
534 1 4.71675 20.4421 11.0071 -8.94937
538 1 17.2968 20.4417 11.007 -8.94958
365 1 22.0139 15.7242 -2.80446e-05 -8.94961
686 1 20.4415 20.4415 20.4415 -8.94956
685 1 18.8692 18.8692 18.8691 -8.94939
514 1 7.87826 11.0044 11.0024 -8.95923
684 1 17.2967 20.4415 20.4415 -8.94968
516 1 14.1651 11.0045 11.0158 -9.0231
683 1 15.7243 18.8692 18.8692 -8.94976
682 1 14.1518 20.4415 20.4415 -8.94962
519 1 1.57074 14.152 11.0071 -8.95152
520 1 4.70821 14.1545 11.0091 -8.95827
521 1 7.82064 14.1914 11.0454 -8.89283
522 1 11.019 14.1987 11.0395 -9.16088
523 1 14.1578 14.1548 11.0068 -8.99949
524 1 17.2994 14.1532 11.0072 -8.94822
525 1 20.4419 14.1521 11.0071 -8.94994
594 1 17.2973 11.0069 17.2973 -8.94953
590 1 4.71682 11.0069 17.2972 -8.9496
528 1 7.85999 17.3049 11.0082 -8.95921
307 1 18.8691 22.0139 18.8691 -8.94956
530 1 14.1522 17.2979 11.0062 -8.95014
531 1 17.2972 17.2973 11.007 -8.94921
295 1 22.0139 22.0139 18.8691 -8.94955
533 1 1.57227 20.4416 11.007 -8.94962
377 1 18.8692 15.7243 22.0138 -8.94964
535 1 7.86193 20.443 11.0071 -8.95117
536 1 11.0071 20.4437 11.007 -8.95223
537 1 14.1521 20.4419 11.0069 -8.94938
373 1 12.5794 15.7245 22.0134 -8.94961
303 1 12.5794 22.0139 18.8691 -8.94963
681 1 12.5794 18.8692 18.8692 -8.94958
680 1 11.007 20.4415 20.4415 -8.94963
679 1 9.43453 18.8692 18.8692 -8.9496
543 1 11.0111 11.0067 14.1482 -9.05504
678 1 7.8621 20.4415 20.4415 -8.94963
677 1 6.28965 18.8692 18.8692 -8.94964
676 1 4.71725 20.4415 20.4415 -8.94964
547 1 22.0139 12.5794 12.5796 -8.94992
548 1 1.57198 14.1518 14.1521 -8.94969
549 1 3.14329 12.5788 12.58 -8.94977
550 1 4.71544 14.1516 14.1531 -8.9512
551 1 6.28505 12.5766 12.581 -8.95304
552 1 7.85577 14.1572 14.1629 -8.95263
553 1 9.41469 12.6003 12.5929 -8.93892
554 1 11.0068 14.1531 14.1554 -8.99593
555 1 12.6238 12.6119 12.6191 -8.89516
556 1 14.1636 14.1625 14.1636 -8.92843
557 1 15.7342 12.5815 12.5822 -8.95829
558 1 17.2997 14.1531 14.1533 -8.95097
559 1 18.8711 12.5796 12.5796 -8.9514
560 1 20.442 14.152 14.152 -8.95006
561 1 22.0135 15.7245 12.5796 -8.95009
562 1 1.57167 17.2971 14.1522 -8.94971
563 1 3.14186 15.7255 12.5807 -8.95106
564 1 4.7142 17.2995 14.1548 -8.94455
565 1 6.27741 15.7358 12.5909 -8.92852
566 1 7.86091 17.2994 14.1542 -8.9485
567 1 9.43154 15.733 12.5851 -8.98135
568 1 11.0074 17.2984 14.153 -8.9483
569 1 12.5868 15.7336 12.5852 -8.98105
570 1 14.1541 17.3002 14.154 -8.94936
571 1 15.7267 15.7259 12.5799 -8.95088
572 1 17.2974 17.2972 14.1521 -8.94995
573 1 18.8698 15.7247 12.5796 -8.94952
574 1 20.4415 17.2968 14.1519 -8.94968
575 1 -0.000123234 18.8692 12.5794 -8.94957
576 1 1.57229 20.4416 14.1519 -8.94965
577 1 3.14425 18.8696 12.5796 -8.94943
578 1 4.71681 20.4421 14.1522 -8.94991
579 1 6.28846 18.8717 12.5805 -8.95154
580 1 7.86184 20.4423 14.1524 -8.94938
581 1 9.43408 18.8723 12.581 -8.94894
582 1 11.0071 20.4421 14.1523 -8.9492
583 1 12.5805 18.8719 12.5804 -8.95042
584 1 14.1523 20.4423 14.1523 -8.95002
585 1 15.7246 18.8695 12.5793 -8.94998
586 1 17.2968 20.4416 14.1518 -8.94975
587 1 18.8692 18.8692 12.5794 -8.94959
588 1 20.4415 20.4415 14.1518 -8.94962
589 1 1.5723 11.0069 17.2968 -8.94962
675 1 3.14471 18.8692 18.8692 -8.94953
674 1 1.57239 20.4415 20.4415 -8.94957
673 1 22.0139 18.8691 18.8691 -8.94964
672 1 20.4415 17.2967 20.4415 -8.94965
671 1 18.8692 15.7243 18.8692 -8.94964
595 1 20.4416 11.0069 17.2968 -8.94959
596 1 5.00921e-06 12.5794 15.7244 -8.94961
597 1 1.57232 14.1518 17.2968 -8.94952
598 1 3.14428 12.5794 15.7248 -8.94916
599 1 4.71698 14.1517 17.2971 -8.94956
600 1 6.28885 12.5787 15.7255 -8.94851
601 1 7.86171 14.152 17.2987 -8.95244
602 1 9.43469 12.579 15.7268 -8.95347
603 1 11.0066 14.1524 17.2982 -8.94884
604 1 12.5811 12.5802 15.7317 -8.96021
605 1 14.1528 14.1528 17.2993 -8.95158
606 1 15.7267 12.5802 15.7268 -8.94733
607 1 17.2972 14.1521 17.2973 -8.9494
608 1 18.8699 12.5795 15.7247 -8.94933
609 1 20.4416 14.1518 17.2968 -8.94955
610 1 22.0139 15.7243 15.7244 -8.94973
611 1 1.57232 17.2967 17.2968 -8.94976
612 1 3.14432 15.7243 15.7247 -8.95012
613 1 4.7167 17.2972 17.2975 -8.94937
614 1 6.2876 15.7261 15.7278 -8.94943
615 1 7.86204 17.297 17.2973 -8.94961
616 1 9.43455 15.7253 15.7263 -8.94936
617 1 11.007 17.2971 17.2972 -8.94931
618 1 12.5794 15.7253 15.7261 -8.95052
619 1 14.1519 17.297 17.2972 -8.95006
620 1 15.7271 15.7271 15.7272 -8.94454
621 1 17.2972 17.2973 17.2972 -8.94848
622 1 18.8698 15.7247 15.7247 -8.94967
623 1 20.4416 17.2967 17.2968 -8.94959
624 1 22.0138 18.8692 15.7243 -8.94958
625 1 1.5723 20.4416 17.2968 -8.94938
626 1 3.1442 18.8697 15.7248 -8.94847
627 1 4.71718 20.4416 17.2968 -8.94963
628 1 6.28933 18.8698 15.7249 -8.94946
629 1 7.8621 20.4416 17.2968 -8.94965
630 1 9.43459 18.8696 15.7248 -8.94965
631 1 11.007 20.4416 17.2968 -8.94961
632 1 12.5794 18.8696 15.7247 -8.9494
633 1 14.1518 20.4416 17.2968 -8.94962
634 1 15.7249 18.87 15.7249 -8.94924
635 1 17.2968 20.4417 17.2968 -8.94948
636 1 18.8692 18.8692 15.7243 -8.94971
637 1 20.4415 20.4415 17.2967 -8.94963
670 1 17.2968 17.2968 20.4415 -8.94958
669 1 15.7246 15.7246 18.8697 -8.94988
668 1 14.1518 17.2968 20.4415 -8.94963
667 1 12.5793 15.7245 18.8695 -8.94955
666 1 11.007 17.2968 20.4415 -8.94962
665 1 9.43444 15.7245 18.8696 -8.94957
664 1 7.86205 17.2968 20.4415 -8.94959
645 1 22.0139 12.5794 18.8691 -8.94963
646 1 1.57238 14.1518 20.4415 -8.94961
647 1 3.14471 12.5794 18.8692 -8.94961
648 1 4.71715 14.1518 20.4415 -8.94957
649 1 6.28944 12.5793 18.8694 -8.94947
650 1 7.86199 14.1519 20.4415 -8.95032
651 1 9.43445 12.5793 18.8697 -8.94986
652 1 11.0068 14.152 20.4415 -8.94991
653 1 12.5793 12.5794 18.8703 -8.95139
654 1 14.152 14.152 20.4415 -8.95043
655 1 15.7247 12.5795 18.8697 -8.94939
656 1 17.2968 14.1519 20.4415 -8.94951
657 1 18.8692 12.5794 18.8692 -8.94962
658 1 20.4415 14.1518 20.4415 -8.94964
659 1 22.0139 15.7242 18.8691 -8.94961
660 1 1.5724 17.2966 20.4415 -8.94967
661 1 3.14476 15.7242 18.8692 -8.94967
662 1 4.71713 17.2968 20.4415 -8.94981
663 1 6.28943 15.7244 18.8697 -8.9503
197 1 22.0139 22.0139 12.5794 -8.94964
199 1 3.14465 22.0139 12.5794 -8.94952
203 1 9.43452 22.0142 12.5797 -8.95014
205 1 12.5796 22.0142 12.5796 -8.95028
209 1 18.8691 22.0139 12.5794 -8.94961
250 1 6.28959 22.014 15.7244 -8.94955
389 1 15.7243 18.8692 22.0138 -8.94971
383 1 6.28964 18.8692 22.0138 -8.94958
256 1 15.7244 22.014 15.7244 -8.94974
297 1 3.14482 22.0139 18.8691 -8.94965
301 1 9.43453 22.0139 18.8691 -8.94963
351 1 22.0139 12.5794 22.0139 -8.94964
355 1 6.28947 12.5793 22.0136 -8.94951
371 1 9.43441 15.7246 22.0133 -8.94966
367 1 3.14477 15.7242 22.0138 -8.94966
357 1 9.4344 12.5793 22.0134 -8.94957
359 1 12.5794 12.5794 22.0128 -8.95103
379 1 22.0139 18.8691 22.0139 -8.94965
