ITEM: TIMESTEP
91
ITEM: NUMBER OF ATOMS
688
ITEM: BOX BOUNDS pp pp pp
0.0000000000000000e+00 2.2013900999999997e+01
0.0000000000000000e+00 2.2013900999999997e+01
0.0000000000000000e+00 2.2013900999999997e+01
ITEM: ATOMS id type x y z c_pot
189 1 20.4414 4.71655 11.0071 -8.94956
2 1 1.57181 1.57206 1.57186 -8.94912
175 1 18.8693 9.43443 9.43475 -8.9479
4 1 4.71675 1.57194 1.57175 -8.94961
174 1 15.7218 9.43546 9.43507 -8.94408
6 1 7.86192 1.57192 1.57178 -8.94946
7 1 9.43448 -1.31205e-15 -0.000224184 -8.94954
8 1 11.007 1.57189 1.57181 -8.9495
173 1 12.5639 9.43171 9.4208 -8.93543
10 1 14.1521 1.57186 1.5719 -8.94949
11 1 15.7245 -8.28859e-16 -0.000171977 -8.94957
12 1 17.2973 1.57181 1.57191 -8.94947
188 1 17.2978 4.71609 11.0069 -8.94895
14 1 20.4415 1.57214 1.57218 -8.94951
172 1 9.35634 9.17933 9.43136 -8.13373
16 1 1.57195 4.71692 1.57182 -8.94985
171 1 6.28139 9.42538 9.43338 -8.9711
18 1 4.71584 4.71599 1.57062 -8.94951
19 1 6.28927 3.1442 -0.000394754 -8.94948
20 1 7.8615 4.71598 1.57094 -8.94911
170 1 3.1421 9.43481 9.4344 -8.95104
22 1 11.007 4.71581 1.57099 -8.94933
169 1 22.0132 9.43465 9.43455 -8.94942
24 1 14.1527 4.71559 1.57091 -8.94968
25 1 15.7248 3.144 -0.000354791 -8.94966
26 1 17.2984 4.71553 1.5711 -8.94814
168 1 18.87 6.28875 9.43453 -8.94961
28 1 20.442 4.71673 1.57195 -8.94956
167 1 15.7267 6.28735 9.43422 -8.94624
30 1 1.57215 7.86202 1.57194 -8.9494
31 1 3.14441 6.2896 -0.000262641 -8.94975
32 1 4.71665 7.86228 1.57168 -8.94966
166 1 12.5799 6.28709 9.43195 -8.9455
34 1 7.8615 7.86164 1.57048 -8.95262
35 1 9.43403 6.2886 -0.00070544 -8.94962
36 1 11.0067 7.86075 1.56978 -8.95076
37 1 12.5796 6.28851 -0.000816559 -8.94972
38 1 14.1541 7.86005 1.56868 -8.95174
165 1 9.42903 6.29008 9.43372 -9.00776
40 1 17.2986 7.86109 1.57095 -8.9491
41 1 18.87 6.28911 -0.000357709 -8.94947
42 1 20.4422 7.86178 1.57187 -8.94943
43 1 22.014 9.43445 -0.0002143 -8.94955
187 1 14.1531 4.7154 11.0063 -8.94892
45 1 6.28911 9.43464 -5.63804e-05 -8.94935
164 1 6.2773 6.2777 9.43349 -8.94071
163 1 3.13967 6.28695 9.43444 -8.94924
48 1 15.7259 9.43395 -0.00101619 -8.94926
162 1 -0.00124799 6.28895 9.43452 -8.95006
50 1 -0.000334374 6.62589e-16 3.14455 -8.94951
51 1 1.57161 1.57195 4.7167 -8.94943
52 1 3.14401 8.7751e-16 3.144 -8.94952
53 1 4.71603 1.57112 4.71598 -8.95003
54 1 6.28932 6.53453e-16 3.14403 -8.94955
55 1 7.86183 1.57121 4.71618 -8.94963
56 1 9.43456 3.77091e-16 3.14405 -8.94953
57 1 11.0073 1.57129 4.71628 -8.9496
58 1 12.5797 7.13174e-17 3.14417 -8.9495
59 1 14.1525 1.57124 4.71666 -8.9507
60 1 15.7248 5.60753e-16 3.14434 -8.95005
61 1 17.2971 1.57194 4.71707 -8.94965
62 1 18.8693 3.93596e-16 3.14467 -8.94966
63 1 20.4414 1.57215 4.71707 -8.94951
64 1 22.0134 3.14432 3.1443 -8.94954
65 1 1.5706 4.71615 4.71604 -8.94971
66 1 3.14316 3.14342 3.1432 -8.94808
67 1 4.71235 4.71268 4.7125 -8.9441
68 1 6.28877 3.14328 3.14327 -8.94956
69 1 7.86044 4.7132 4.71399 -8.94876
70 1 9.4344 3.14329 3.14345 -8.94935
71 1 11.0075 4.71348 4.71419 -8.94762
72 1 12.5799 3.1432 3.14358 -8.94912
73 1 14.1553 4.71193 4.7138 -8.94962
74 1 15.7257 3.1428 3.1435 -8.94939
75 1 17.2983 4.71569 4.71652 -8.95002
76 1 18.8696 3.14411 3.14444 -8.94972
77 1 20.4415 4.71667 4.7169 -8.94991
78 1 22.0139 6.28937 3.14429 -8.94984
79 1 1.57157 7.86211 4.71657 -8.94982
80 1 3.14353 6.28925 3.14357 -8.95037
81 1 4.71464 7.86192 4.71527 -8.95142
82 1 6.28652 6.2868 3.13999 -8.95031
83 1 7.85607 7.85557 4.70653 -8.95507
84 1 9.43379 6.28681 3.14118 -8.94771
85 1 11.0079 7.8565 4.7074 -8.95185
86 1 12.5809 6.28654 3.14068 -8.94934
87 1 14.1657 7.84942 4.70344 -8.93041
88 1 15.7291 6.285 3.14031 -8.94456
89 1 17.3015 7.85983 4.71491 -8.95076
90 1 18.8709 6.28851 3.14376 -8.94967
91 1 20.4425 7.86167 4.71668 -8.95018
92 1 0.0001904 9.4344 3.14418 -8.94954
93 1 3.14401 9.43456 3.14388 -8.94893
94 1 6.28924 9.43532 3.1441 -8.94913
95 1 9.43523 9.43445 3.14383 -8.95111
96 1 12.5829 9.43301 3.13621 -8.95979
97 1 15.7288 9.43294 3.14066 -8.94739
98 1 18.8711 9.43407 3.14361 -8.94927
99 1 22.0135 1.31696e-15 6.28947 -8.94952
100 1 1.5715 1.57191 7.86186 -8.94949
101 1 3.14378 1.72565e-15 6.28906 -8.94932
102 1 4.71565 1.57095 7.86141 -8.9493
103 1 6.289 1.59213e-15 6.2889 -8.95071
104 1 7.86166 1.57048 7.86169 -8.95147
105 1 9.43471 1.08236e-15 6.28901 -8.95026
106 1 11.0071 1.57148 7.86191 -8.94959
107 1 12.5797 1.09852e-15 6.28941 -8.95043
108 1 14.1525 1.57164 7.86191 -8.94946
109 1 15.7248 2.80592e-16 6.28953 -8.94953
110 1 17.2972 1.57198 7.86202 -8.94953
111 1 18.8693 1.18829e-15 6.28957 -8.94953
112 1 20.4414 1.57212 7.86201 -8.94955
113 1 -0.000642327 3.14423 6.28933 -8.94945
114 1 1.57038 4.71599 7.86158 -8.94933
115 1 3.14291 3.1432 6.28859 -8.94908
116 1 4.71248 4.71277 7.86019 -8.94715
117 1 6.28742 3.14063 6.28757 -8.9517
118 1 7.85833 4.70793 7.85998 -8.95966
119 1 9.43452 3.14154 6.2881 -8.95043
120 1 11.0064 4.71399 7.86097 -8.95247
121 1 12.58 3.142 6.28888 -8.95256
122 1 14.1534 4.71484 7.86174 -8.94855
123 1 15.7252 3.14352 6.28946 -8.94949
124 1 17.2979 4.71607 7.86197 -8.94896
125 1 18.8695 3.14423 6.28954 -8.94942
126 1 20.4414 4.71657 7.86195 -8.94958
127 1 22.0129 6.28913 6.28922 -8.95033
128 1 1.56963 7.86168 7.86172 -8.95196
129 1 3.13993 6.28732 6.28726 -8.95098
130 1 4.70593 7.85773 7.8591 -8.95859
131 1 6.27523 6.27578 6.27624 -8.9283
132 1 7.81806 7.82186 7.82484 -8.84526
133 1 9.43316 6.2797 6.28319 -8.94917
134 1 11.0235 7.8491 7.83353 -8.89681
135 1 12.5868 6.27764 6.28108 -8.95204
136 1 14.1587 7.85801 7.86078 -8.94979
137 1 15.728 6.28681 6.28836 -8.95051
138 1 17.2988 7.86147 7.86275 -8.95093
139 1 18.8702 6.28897 6.2896 -8.95012
140 1 20.4416 7.86183 7.86218 -8.95011
141 1 22.0139 9.43456 6.28928 -8.94991
142 1 3.14316 9.43522 6.28891 -8.94973
143 1 6.28612 9.43682 6.28835 -8.95146
144 1 9.42199 9.41184 6.28392 -8.91026
145 1 12.621 9.40079 6.25009 -8.86044
146 1 15.7353 9.43183 6.28521 -8.9574
147 1 18.8719 9.4342 6.28918 -8.95168
148 1 -0.000420233 1.68202e-15 9.43451 -8.94954
149 1 3.14369 1.52068e-15 9.43446 -8.94945
150 1 6.28852 3.332e-16 9.43429 -8.95039
151 1 9.43467 1.19001e-15 9.4343 -8.94855
152 1 12.58 1.83061e-16 9.43427 -8.94948
153 1 15.7249 1.41659e-16 9.43446 -8.94964
154 1 18.8693 1.60135e-15 9.4345 -8.94956
155 1 22.0132 3.14418 9.4345 -8.94951
156 1 3.14279 3.14317 9.43445 -8.94946
157 1 6.28648 3.14009 9.43409 -8.94936
158 1 9.43417 3.14292 9.43418 -8.94643
159 1 12.5802 3.14323 9.43395 -8.94875
160 1 15.7252 3.14367 9.43442 -8.94958
161 1 18.8695 3.14419 9.4345 -8.94955
177 1 4.71566 1.57098 11.0074 -8.94933
180 1 14.1525 1.57173 11.0068 -8.94936
184 1 4.71257 4.71289 11.0084 -8.94761
183 1 1.57039 4.71599 11.0074 -8.94929
3 1 3.14449 4.73305e-16 -0.000233953 -8.9496
176 1 1.5715 1.57191 11.0071 -8.94947
343 1 18.8701 9.4343 18.8697 -8.94947
178 1 7.86149 1.57014 11.0069 -8.95164
179 1 11.0073 1.5711 11.0066 -8.94985
342 1 15.7262 9.43388 18.8709 -8.94935
341 1 12.5811 9.4329 18.8745 -8.95134
182 1 20.4414 1.57212 11.007 -8.94954
340 1 9.4331 9.43336 18.8723 -8.94747
339 1 6.28889 9.43464 18.8698 -8.94965
185 1 7.85769 4.70651 11.0076 -8.95824
186 1 11.0076 4.71229 11.0061 -8.9517
338 1 3.14426 9.43449 18.8696 -8.94952
337 1 9.82613e-05 9.43445 18.8694 -8.94956
336 1 20.442 7.86189 20.4416 -8.94953
190 1 1.56969 7.86172 11.0073 -8.952
191 1 4.70614 7.85791 11.0096 -8.95954
192 1 7.817 7.82018 11.0392 -8.87782
193 1 11.03 7.84541 11.0261 -8.94725
194 1 14.1569 7.85973 11.0044 -8.9549
195 1 17.2985 7.86139 11.0064 -8.95032
196 1 20.4415 7.86181 11.0069 -8.95005
197 1 22.0135 -4.13512e-17 12.5796 -8.94953
198 1 1.57158 1.57195 14.1523 -8.94947
199 1 3.14376 6.31971e-16 12.5799 -8.94937
200 1 4.71589 1.57107 14.153 -8.94993
201 1 6.28884 -4.54449e-16 12.58 -8.95062
202 1 7.8616 1.57076 14.153 -8.94987
203 1 9.4347 1.38773e-15 12.5799 -8.95104
204 1 11.0075 1.57083 14.1529 -8.94971
205 1 12.5799 1.60126e-15 12.5795 -8.95041
206 1 14.1527 1.57111 14.1523 -8.9507
207 1 15.7248 1.78649e-15 12.5793 -8.9495
208 1 17.2972 1.57196 14.1519 -8.94967
209 1 18.8693 8.63717e-16 12.5794 -8.94952
210 1 20.4414 1.57215 14.152 -8.94951
211 1 -0.000642488 3.14422 12.5797 -8.94944
212 1 1.57057 4.71614 14.153 -8.94968
213 1 3.14291 3.14321 12.5803 -8.94916
214 1 4.71227 4.71265 14.1564 -8.94434
215 1 6.28726 3.14033 12.5812 -8.95133
216 1 7.8597 4.71135 14.1556 -8.94845
217 1 9.43459 3.13964 12.5806 -8.95315
218 1 11.0085 4.71173 14.1554 -8.946
219 1 12.5802 3.14158 12.5799 -8.95243
220 1 14.1557 4.71153 14.1551 -8.94972
221 1 15.7251 3.14367 12.5793 -8.94946
222 1 17.2982 4.71585 14.1523 -8.95031
223 1 18.8695 3.14423 12.5795 -8.94941
224 1 20.4415 4.71667 14.1521 -8.94985
225 1 22.0129 6.28912 12.5798 -8.95028
226 1 1.57153 7.86216 14.1524 -8.94994
227 1 3.14 6.28732 12.5816 -8.95079
228 1 4.71448 7.86192 14.1535 -8.95289
229 1 6.27576 6.27555 12.592 -8.92825
230 1 7.85301 7.8512 14.1656 -8.99261
231 1 9.43419 6.27003 12.5843 -8.96332
232 1 11.0107 7.85439 14.1637 -9.00062
233 1 12.5869 6.27675 12.5872 -8.95197
234 1 14.1665 7.8486 14.1653 -8.92915
235 1 15.7274 6.28745 12.5797 -8.95083
236 1 17.3013 7.86005 14.1538 -8.95162
237 1 18.8701 6.28898 12.5794 -8.94983
238 1 20.4424 7.86176 14.1522 -8.95032
239 1 -0.000139487 9.43462 12.5797 -8.94972
240 1 3.14352 9.43533 12.5799 -8.94929
241 1 6.28796 9.43743 12.5796 -9.00307
242 1 9.41464 9.36385 12.5775 -9.19375
243 1 12.6208 9.39847 12.6186 -8.90993
244 1 15.7332 9.43299 12.5828 -8.96075
245 1 18.8712 9.43446 12.5796 -8.95177
246 1 -0.000349334 -8.54616e-17 15.7245 -8.94953
247 1 1.57176 1.57205 17.2973 -8.94916
248 1 3.14391 1.16069e-16 15.7251 -8.9495
249 1 4.71655 1.57183 17.2975 -8.94953
250 1 6.28909 3.794e-16 15.7252 -8.9496
251 1 7.86184 1.57179 17.2975 -8.94948
252 1 9.43455 -3.24264e-16 15.7252 -8.94953
253 1 11.0071 1.57173 17.2975 -8.94949
254 1 12.5799 9.98208e-16 15.7251 -8.9496
255 1 14.1524 1.57166 17.2974 -8.94953
256 1 15.725 1.7982e-16 15.7247 -8.95005
257 1 17.2974 1.57178 17.2972 -8.94945
258 1 18.8693 -9.01846e-16 15.7244 -8.94968
259 1 20.4415 1.57214 17.2969 -8.94958
260 1 22.0134 3.14431 15.7247 -8.94955
261 1 1.57185 4.71688 17.2973 -8.94992
262 1 3.14306 3.1434 15.7259 -8.94819
263 1 4.71546 4.71569 17.2989 -8.94904
264 1 6.28835 3.14275 15.7261 -8.94943
265 1 7.86133 4.71553 17.2986 -8.94947
266 1 9.43441 3.14272 15.7258 -8.94931
267 1 11.0071 4.7153 17.2987 -8.9492
268 1 12.5803 3.14251 15.7258 -8.94921
269 1 14.1532 4.71484 17.2988 -8.94983
270 1 15.7259 3.14263 15.7256 -8.94935
271 1 17.2985 4.71546 17.2981 -8.94817
272 1 18.8696 3.14414 15.7246 -8.94983
273 1 20.442 4.71671 17.2971 -8.9496
274 1 -2.11152e-05 6.28938 15.7247 -8.94995
275 1 1.57205 7.86202 17.2972 -8.94949
276 1 3.14328 6.2892 15.7255 -8.95066
277 1 4.7163 7.86218 17.2977 -8.94986
278 1 6.28539 6.28563 15.7302 -8.94828
279 1 7.86037 7.86037 17.3007 -8.95218
280 1 9.43399 6.28541 15.7282 -8.94858
281 1 11.0065 7.86009 17.3016 -8.95061
282 1 12.5819 6.28454 15.7295 -8.95083
283 1 14.1563 7.85777 17.3033 -8.94801
284 1 15.7295 6.28476 15.7289 -8.94416
285 1 17.299 7.86097 17.2983 -8.9497
286 1 18.871 6.28852 15.7252 -8.94983
287 1 20.4422 7.86178 17.2972 -8.94956
288 1 22.014 9.43443 15.7248 -8.94961
289 1 3.14391 9.43463 15.7252 -8.94918
290 1 6.2888 9.4355 15.7252 -8.9502
291 1 9.43191 9.43033 15.7288 -8.99985
292 1 12.5894 9.42521 15.7417 -8.9847
293 1 15.7293 9.43304 15.7285 -8.94996
294 1 18.8711 9.43414 15.7254 -8.94948
295 1 22.0137 -4.9262e-16 18.8693 -8.94927
296 1 1.57209 1.57216 20.4415 -8.94936
297 1 3.14441 -3.4897e-16 18.8695 -8.94954
298 1 4.71694 1.57212 20.4416 -8.94957
299 1 6.28942 -1.22681e-15 18.8695 -8.94954
300 1 7.86193 1.57206 20.4416 -8.94954
301 1 9.43447 -7.90434e-16 18.8695 -8.94955
302 1 11.007 1.57203 20.4416 -8.94954
303 1 12.5795 -1.02666e-15 18.8695 -8.94954
304 1 14.152 1.57203 20.4416 -8.94953
305 1 15.7246 -4.76802e-16 18.8694 -8.94956
306 1 17.2971 1.57204 20.4416 -8.94957
307 1 18.8694 -1.48659e-16 18.8693 -8.94938
308 1 20.4417 1.57221 20.4415 -8.94926
309 1 -4.08749e-05 3.14456 18.8694 -8.9496
310 1 1.5722 4.71709 20.4416 -8.94972
311 1 3.1441 3.14422 18.8698 -8.94937
312 1 4.71652 4.71664 20.4418 -8.94997
313 1 6.28918 3.14409 18.8698 -8.94956
314 1 7.86161 4.71636 20.4418 -8.94955
315 1 9.43436 3.14393 18.8698 -8.94949
316 1 11.0069 4.71625 20.4418 -8.94954
317 1 12.5796 3.14389 18.8698 -8.94947
318 1 14.1523 4.71618 20.4418 -8.94973
319 1 15.725 3.14382 18.8698 -8.94961
320 1 17.2977 4.71619 20.4417 -8.94925
321 1 18.8698 3.14419 18.8695 -8.94916
322 1 20.4419 4.71692 20.4416 -8.94955
323 1 22.014 6.28948 18.8693 -8.94956
324 1 1.5722 7.86201 20.4416 -8.94954
325 1 3.14429 6.28955 18.8696 -8.94979
326 1 4.71666 7.86209 20.4417 -8.94961
327 1 6.28852 6.28877 18.8708 -8.95044
328 1 7.86124 7.8615 20.4424 -8.95017
329 1 9.43392 6.28822 18.8707 -8.94954
330 1 11.0066 7.86121 20.4426 -8.95003
331 1 12.5797 6.28814 18.871 -8.95006
332 1 14.1531 7.86076 20.4427 -8.95053
333 1 15.7262 6.28769 18.8711 -8.94902
334 1 17.2979 7.86148 20.4417 -8.9494
335 1 18.8701 6.28905 18.8696 -8.94957
49 1 18.87 9.43431 22.0135 -8.94946
5 1 6.28947 -1.09804e-15 22.0137 -8.94952
9 1 12.5795 -8.72601e-16 22.0137 -8.94953
15 1 22.0139 3.14457 22.0137 -8.94958
17 1 3.1442 3.14427 22.0134 -8.94946
21 1 9.43439 3.14408 22.0135 -8.9495
23 1 12.5795 3.14405 22.0136 -8.94946
27 1 18.8697 3.14418 22.0136 -8.94908
29 1 0.000109144 6.2895 22.0137 -8.94951
33 1 6.28885 6.28906 22.0132 -8.95064
39 1 15.7257 6.2882 22.013 -8.94992
46 1 9.43405 9.43437 22.0144 -8.94936
47 1 12.5799 9.43407 22.0133 -8.95193
1 1 -0.000179185 6.29977e-16 22.0137 -8.94923
13 1 18.8694 2.5243e-16 22.0137 -8.94936
44 1 3.14436 9.43451 22.0137 -8.94953
181 1 17.2972 1.57198 11.0069 -8.94951
344 1 1.57215 11.007 1.57189 -8.94956
345 1 4.71657 11.007 1.57171 -8.94962
346 1 7.86186 11.007 1.57276 -8.94808
347 1 11.0071 11.007 1.57235 -8.94682
348 1 14.1548 11.007 1.56857 -8.94951
349 1 17.2987 11.007 1.57091 -8.94938
350 1 20.4422 11.007 1.57183 -8.9495
351 1 22.014 12.5794 -0.0002143 -8.94955
352 1 1.57215 14.1519 1.57194 -8.9494
537 1 14.1525 20.4422 11.0068 -8.94936
354 1 4.71665 14.1516 1.57168 -8.94966
355 1 6.28911 12.5793 -5.63804e-05 -8.94935
356 1 7.8615 14.1523 1.57048 -8.95262
688 3 10.1442 11.007 9.40141 2.34373
358 1 11.0067 14.1531 1.56978 -8.95076
511 1 18.8695 18.8697 9.4345 -8.94955
360 1 14.1541 14.1538 1.56868 -8.95174
361 1 15.7259 12.5799 -0.00101619 -8.94926
362 1 17.2986 14.1528 1.57095 -8.9491
510 1 15.7252 18.8702 9.43442 -8.94958
364 1 20.4422 14.1521 1.57187 -8.94943
509 1 12.5802 18.8707 9.43395 -8.94875
366 1 1.57195 17.297 1.57182 -8.94985
367 1 3.14441 15.7243 -0.000262641 -8.94975
368 1 4.71584 17.2979 1.57062 -8.94951
508 1 9.43417 18.871 9.43418 -8.94643
370 1 7.8615 17.2979 1.57094 -8.94911
371 1 9.43403 15.7253 -0.00070544 -8.94962
372 1 11.007 17.2981 1.57099 -8.94933
373 1 12.5796 15.7254 -0.000816559 -8.94972
374 1 14.1527 17.2983 1.57091 -8.94968
507 1 6.28648 18.8738 9.43409 -8.94936
376 1 17.2984 17.2984 1.5711 -8.94814
377 1 18.87 15.7248 -0.000357709 -8.94947
378 1 20.442 17.2972 1.57195 -8.94956
506 1 3.14279 18.8707 9.43445 -8.94946
380 1 1.57181 20.4418 1.57186 -8.94912
505 1 22.0132 18.8697 9.4345 -8.94951
382 1 4.71675 20.442 1.57175 -8.94961
383 1 6.28927 18.8697 -0.000394754 -8.94948
384 1 7.86192 20.442 1.57178 -8.94946
504 1 18.87 15.7251 9.43453 -8.94961
386 1 11.007 20.442 1.57181 -8.9495
503 1 15.7267 15.7266 9.43422 -8.94624
388 1 14.1521 20.442 1.5719 -8.94949
389 1 15.7248 18.8699 -0.000354791 -8.94966
390 1 17.2973 20.4421 1.57191 -8.94947
502 1 12.5799 15.7268 9.43195 -8.9455
392 1 20.4415 20.4418 1.57218 -8.94951
393 1 1.57175 11.007 4.71632 -8.94949
394 1 4.71566 11.007 4.71544 -8.94607
395 1 7.86477 11.007 4.72022 -8.94578
396 1 11.0127 11.007 4.72091 -9.0008
397 1 14.1636 11.007 4.70618 -8.9415
398 1 17.3017 11.007 4.71453 -8.94908
399 1 20.4428 11.007 4.71649 -8.94996
400 1 0.0001904 12.5795 3.14418 -8.94954
401 1 1.57157 14.1518 4.71657 -8.94982
402 1 3.14401 12.5793 3.14388 -8.94893
403 1 4.71464 14.152 4.71527 -8.95142
404 1 6.28924 12.5786 3.1441 -8.94913
405 1 7.85607 14.1583 4.70653 -8.95507
406 1 9.43523 12.5795 3.14383 -8.95111
407 1 11.0079 14.1574 4.7074 -8.95185
408 1 12.5829 12.5809 3.13621 -8.95979
409 1 14.1657 14.1645 4.70344 -8.93041
410 1 15.7288 12.581 3.14066 -8.94739
411 1 17.3015 14.1541 4.71491 -8.95076
412 1 18.8711 12.5798 3.14361 -8.94927
413 1 20.4425 14.1522 4.71668 -8.95018
414 1 22.0139 15.7245 3.14429 -8.94984
415 1 1.5706 17.2977 4.71604 -8.94971
416 1 3.14353 15.7246 3.14357 -8.95037
417 1 4.71235 17.3012 4.7125 -8.9441
418 1 6.28652 15.7271 3.13999 -8.95031
419 1 7.86044 17.3007 4.71399 -8.94876
420 1 9.43379 15.7271 3.14118 -8.94771
421 1 11.0075 17.3004 4.71419 -8.94762
422 1 12.5809 15.7274 3.14068 -8.94934
423 1 14.1553 17.302 4.7138 -8.94962
424 1 15.7291 15.7289 3.14031 -8.94456
425 1 17.2983 17.2982 4.71652 -8.95002
426 1 18.8709 15.7254 3.14376 -8.94967
427 1 20.4415 17.2972 4.7169 -8.94991
428 1 22.0134 18.8696 3.1443 -8.94954
429 1 1.57161 20.4419 4.7167 -8.94943
430 1 3.14316 18.8705 3.1432 -8.94808
431 1 4.71603 20.4428 4.71598 -8.95003
432 1 6.28877 18.8706 3.14327 -8.94956
433 1 7.86183 20.4427 4.71618 -8.94963
434 1 9.4344 18.8706 3.14345 -8.94935
435 1 11.0073 20.4426 4.71628 -8.9496
436 1 12.5799 18.8707 3.14358 -8.94912
437 1 14.1525 20.4427 4.71666 -8.9507
438 1 15.7257 18.8711 3.1435 -8.94939
439 1 17.2971 20.442 4.71707 -8.94965
440 1 18.8696 18.8698 3.14444 -8.94972
441 1 20.4414 20.4418 4.71707 -8.94951
442 1 1.57189 11.007 7.86172 -8.94764
443 1 4.71944 11.007 7.86249 -8.94069
444 1 7.88258 11.007 7.8712 -8.87285
445 1 11.0931 11.007 7.64092 -8.15728
446 1 14.1617 11.007 7.85334 -8.97181
447 1 17.2996 11.007 7.86222 -8.95149
448 1 20.4421 11.007 7.86216 -8.94954
449 1 22.0139 12.5793 6.28928 -8.94991
450 1 1.56963 14.1522 7.86172 -8.95196
451 1 3.14316 12.5787 6.28891 -8.94973
452 1 4.70593 14.1562 7.8591 -8.95859
453 1 6.28612 12.5771 6.28835 -8.95146
454 1 7.81806 14.192 7.82484 -8.84526
455 1 9.42199 12.6021 6.28392 -8.91026
456 1 11.0235 14.1648 7.83353 -8.89681
457 1 12.621 12.6131 6.25009 -8.86044
458 1 14.1587 14.1559 7.86078 -8.94979
459 1 15.7353 12.5821 6.28521 -8.9574
460 1 17.2988 14.1524 7.86275 -8.95093
461 1 18.8719 12.5797 6.28918 -8.95168
462 1 20.4416 14.1521 7.86218 -8.95011
463 1 22.0129 15.7248 6.28922 -8.95033
464 1 1.57038 17.2979 7.86158 -8.94933
465 1 3.13993 15.7266 6.28726 -8.95098
466 1 4.71248 17.3011 7.86019 -8.94715
467 1 6.27523 15.7381 6.27624 -8.9283
468 1 7.85833 17.306 7.85998 -8.95966
469 1 9.43316 15.7342 6.28319 -8.94917
470 1 11.0064 17.2999 7.86097 -8.95247
471 1 12.5868 15.7363 6.28108 -8.95204
472 1 14.1534 17.2991 7.86174 -8.94855
473 1 15.728 15.7271 6.28836 -8.95051
474 1 17.2979 17.2978 7.86197 -8.94896
475 1 18.8702 15.7249 6.2896 -8.95012
476 1 20.4414 17.2973 7.86195 -8.94958
477 1 -0.000642327 18.8697 6.28933 -8.94945
478 1 1.5715 20.442 7.86186 -8.94949
479 1 3.14291 18.8707 6.28859 -8.94908
480 1 4.71565 20.443 7.86141 -8.9493
481 1 6.28742 18.8733 6.28757 -8.9517
482 1 7.86166 20.4434 7.86169 -8.95147
483 1 9.43452 18.8724 6.2881 -8.95043
484 1 11.0071 20.4424 7.86191 -8.94959
485 1 12.58 18.8719 6.28888 -8.95256
486 1 14.1525 20.4423 7.86191 -8.94946
487 1 15.7252 18.8704 6.28946 -8.94949
488 1 17.2972 20.4419 7.86202 -8.94953
489 1 18.8695 18.8697 6.28954 -8.94942
490 1 20.4414 20.4418 7.86201 -8.94955
491 1 22.0132 12.5793 9.43455 -8.94942
492 1 3.1421 12.5791 9.4344 -8.95104
493 1 6.28139 12.5885 9.43338 -8.9711
494 1 9.35634 12.8346 9.43136 -8.13373
495 1 12.5639 12.5822 9.4208 -8.93543
496 1 15.7218 12.5784 9.43507 -8.94408
497 1 18.8693 12.5795 9.43475 -8.9479
498 1 -0.00124799 15.725 9.43452 -8.95006
499 1 3.13967 15.727 9.43444 -8.94924
500 1 6.2773 15.7362 9.43349 -8.94071
501 1 9.42903 15.7238 9.43372 -9.00776
526 1 1.57039 17.2979 11.0074 -8.94929
527 1 4.71257 17.301 11.0084 -8.94761
530 1 14.1531 17.2985 11.0063 -8.94892
531 1 17.2978 17.2978 11.0069 -8.94895
532 1 20.4414 17.2974 11.0071 -8.94956
534 1 4.71566 20.4429 11.0074 -8.94933
517 1 17.2968 11.007 11.0066 -8.94677
518 1 20.4417 11.007 11.0069 -8.94868
512 1 1.57195 11.007 11.0072 -8.94748
513 1 4.71996 11.007 11.0059 -8.94139
514 1 7.88194 11.007 10.99 -8.90493
515 1 11.1479 11.007 11.1313 -8.48969
516 1 14.1461 11.007 11.0146 -9.02344
391 1 18.8697 18.8697 22.0136 -8.94908
387 1 12.5795 18.8699 22.0136 -8.94946
519 1 1.56969 14.1522 11.0073 -8.952
520 1 4.70614 14.156 11.0096 -8.95954
521 1 7.817 14.1937 11.0392 -8.87782
522 1 11.03 14.1685 11.0261 -8.94725
523 1 14.1569 14.1542 11.0044 -8.9549
524 1 17.2985 14.1525 11.0064 -8.95032
525 1 20.4415 14.1521 11.0069 -8.95005
687 2 10.1548 11.007 12.6428 0.8481
686 1 20.4417 20.4417 20.4415 -8.94926
528 1 7.85769 17.3074 11.0076 -8.95824
529 1 11.0076 17.3016 11.0061 -8.9517
685 1 18.8698 18.8697 18.8695 -8.94916
684 1 17.2971 20.4419 20.4416 -8.94957
683 1 15.725 18.8701 18.8698 -8.94961
533 1 1.5715 20.442 11.0071 -8.94947
682 1 14.152 20.4419 20.4416 -8.94953
535 1 7.86149 20.4438 11.0069 -8.95164
536 1 11.0073 20.4428 11.0066 -8.94985
681 1 12.5796 18.87 18.8698 -8.94947
680 1 11.007 20.4419 20.4416 -8.94954
539 1 20.4414 20.4418 11.007 -8.94954
540 1 1.57181 11.007 14.1526 -8.94934
541 1 4.71632 11.007 14.1532 -8.94542
542 1 7.86764 11.007 14.1478 -8.97726
543 1 11.0385 11.007 14.2239 -9.25889
544 1 14.1597 11.007 14.1624 -8.99139
545 1 17.3009 11.007 14.1543 -8.94811
546 1 20.4426 11.007 14.1524 -8.94982
547 1 -0.000139487 12.5793 12.5797 -8.94972
548 1 1.57153 14.1517 14.1524 -8.94994
549 1 3.14352 12.5786 12.5799 -8.94929
550 1 4.71448 14.152 14.1535 -8.95289
551 1 6.28796 12.5765 12.5796 -9.00307
552 1 7.85301 14.1627 14.1656 -8.99261
553 1 9.41464 12.6501 12.5775 -9.19375
554 1 11.0107 14.1595 14.1637 -9.00062
555 1 12.6208 12.6154 12.6186 -8.90993
556 1 14.1665 14.1653 14.1653 -8.92915
557 1 15.7332 12.5809 12.5828 -8.96075
558 1 17.3013 14.1538 14.1538 -8.95162
559 1 18.8712 12.5794 12.5796 -8.95177
560 1 20.4424 14.1521 14.1522 -8.95032
561 1 22.0129 15.7248 12.5798 -8.95028
562 1 1.57057 17.2978 14.153 -8.94968
563 1 3.14 15.7266 12.5816 -8.95079
564 1 4.71227 17.3013 14.1564 -8.94434
565 1 6.27576 15.7384 12.592 -8.92825
566 1 7.8597 17.3026 14.1556 -8.94845
567 1 9.43419 15.7439 12.5843 -8.96332
568 1 11.0085 17.3022 14.1554 -8.946
569 1 12.5869 15.7372 12.5872 -8.95197
570 1 14.1557 17.3024 14.1551 -8.94972
571 1 15.7274 15.7265 12.5797 -8.95083
572 1 17.2982 17.298 14.1523 -8.95031
573 1 18.8701 15.7249 12.5794 -8.94983
574 1 20.4415 17.2972 14.1521 -8.94985
575 1 -0.000642488 18.8697 12.5797 -8.94944
576 1 1.57158 20.442 14.1523 -8.94947
577 1 3.14291 18.8707 12.5803 -8.94916
578 1 4.71589 20.4428 14.153 -8.94993
579 1 6.28726 18.8736 12.5812 -8.95133
580 1 7.8616 20.4431 14.153 -8.94987
581 1 9.43459 18.8743 12.5806 -8.95315
582 1 11.0075 20.4431 14.1529 -8.94971
583 1 12.5802 18.8723 12.5799 -8.95243
584 1 14.1527 20.4428 14.1523 -8.9507
585 1 15.7251 18.8702 12.5793 -8.94946
586 1 17.2972 20.4419 14.1519 -8.94967
587 1 18.8695 18.8697 12.5795 -8.94941
588 1 20.4414 20.4418 14.152 -8.94951
589 1 1.57205 11.007 17.2973 -8.94958
590 1 4.71634 11.007 17.2977 -8.94913
591 1 7.86214 11.007 17.2974 -8.94772
592 1 11.0074 11.007 17.3122 -8.96813
593 1 14.1552 11.007 17.3026 -8.94873
594 1 17.2989 11.007 17.2984 -8.94923
595 1 20.4422 11.007 17.2973 -8.94954
596 1 22.014 12.5795 15.7248 -8.94961
597 1 1.57205 14.1519 17.2972 -8.94949
598 1 3.14391 12.5793 15.7252 -8.94918
599 1 4.7163 14.1517 17.2977 -8.94986
600 1 6.2888 12.5784 15.7252 -8.9502
601 1 7.86037 14.1535 17.3007 -8.95218
602 1 9.43191 12.5836 15.7288 -8.99985
603 1 11.0065 14.1538 17.3016 -8.95061
604 1 12.5894 12.5887 15.7417 -8.9847
605 1 14.1563 14.1561 17.3033 -8.94801
606 1 15.7293 12.5809 15.7285 -8.94996
607 1 17.299 14.1529 17.2983 -8.9497
608 1 18.8711 12.5798 15.7254 -8.94948
609 1 20.4422 14.1521 17.2972 -8.94956
610 1 -2.11152e-05 15.7245 15.7247 -8.94995
611 1 1.57185 17.297 17.2973 -8.94992
612 1 3.14328 15.7247 15.7255 -8.95066
613 1 4.71546 17.2982 17.2989 -8.94904
614 1 6.28539 15.7283 15.7302 -8.94828
615 1 7.86133 17.2984 17.2986 -8.94947
616 1 9.43399 15.7285 15.7282 -8.94858
617 1 11.0071 17.2986 17.2987 -8.9492
618 1 12.5819 15.7294 15.7295 -8.95083
619 1 14.1532 17.2991 17.2988 -8.94983
620 1 15.7295 15.7291 15.7289 -8.94416
621 1 17.2985 17.2984 17.2981 -8.94817
622 1 18.871 15.7254 15.7252 -8.94983
623 1 20.442 17.2972 17.2971 -8.9496
624 1 22.0134 18.8696 15.7247 -8.94955
625 1 1.57176 20.4418 17.2973 -8.94916
626 1 3.14306 18.8705 15.7259 -8.94819
627 1 4.71655 20.4421 17.2975 -8.94953
628 1 6.28835 18.8711 15.7261 -8.94943
629 1 7.86184 20.4421 17.2975 -8.94948
630 1 9.43441 18.8712 15.7258 -8.94931
631 1 11.0071 20.4422 17.2975 -8.94949
632 1 12.5803 18.8714 15.7258 -8.94921
633 1 14.1524 20.4422 17.2974 -8.94953
634 1 15.7259 18.8713 15.7256 -8.94935
635 1 17.2974 20.4421 17.2972 -8.94945
636 1 18.8696 18.8698 15.7246 -8.94983
637 1 20.4415 20.4418 17.2969 -8.94958
638 1 1.57218 11.007 20.4416 -8.94958
639 1 4.7166 11.007 20.4417 -8.94965
640 1 7.8614 11.007 20.4423 -8.94869
641 1 11.0066 11.007 20.4448 -8.9522
642 1 14.1532 11.007 20.4426 -8.94991
643 1 17.2979 11.007 20.4417 -8.94943
644 1 20.442 11.007 20.4416 -8.94954
645 1 9.82613e-05 12.5795 18.8694 -8.94956
646 1 1.5722 14.1519 20.4416 -8.94954
647 1 3.14426 12.5794 18.8696 -8.94952
648 1 4.71666 14.1518 20.4417 -8.94961
649 1 6.28889 12.5793 18.8698 -8.94965
650 1 7.86124 14.1524 20.4424 -8.95017
651 1 9.4331 12.5805 18.8723 -8.94747
652 1 11.0066 14.1527 20.4426 -8.95003
653 1 12.5811 12.581 18.8745 -8.95134
654 1 14.1531 14.1531 20.4427 -8.95053
655 1 15.7262 12.58 18.8709 -8.94935
656 1 17.2979 14.1524 20.4417 -8.9494
657 1 18.8701 12.5796 18.8697 -8.94947
658 1 20.442 14.152 20.4416 -8.94953
659 1 22.014 15.7244 18.8693 -8.94956
660 1 1.5722 17.2968 20.4416 -8.94972
661 1 3.14429 15.7244 18.8696 -8.94979
662 1 4.71652 17.2973 20.4418 -8.94997
663 1 6.28852 15.7251 18.8708 -8.95044
664 1 7.86161 17.2975 20.4418 -8.94955
665 1 9.43392 15.7257 18.8707 -8.94954
666 1 11.0069 17.2977 20.4418 -8.94954
667 1 12.5797 15.7258 18.871 -8.95006
668 1 14.1523 17.2977 20.4418 -8.94973
669 1 15.7262 15.7262 18.8711 -8.94902
670 1 17.2977 17.2977 20.4417 -8.94925
671 1 18.8701 15.7248 18.8696 -8.94957
672 1 20.4419 17.297 20.4416 -8.94955
673 1 -4.08749e-05 18.8693 18.8694 -8.9496
674 1 1.57209 20.4417 20.4415 -8.94936
675 1 3.1441 18.8697 18.8698 -8.94937
676 1 4.71694 20.4418 20.4416 -8.94957
677 1 6.28918 18.8698 18.8698 -8.94956
678 1 7.86193 20.4418 20.4416 -8.94954
679 1 9.43436 18.87 18.8698 -8.94949
357 1 9.43405 12.5795 22.0144 -8.94936
359 1 12.5799 12.5798 22.0133 -8.95193
363 1 18.87 12.5796 22.0135 -8.94946
365 1 0.000109144 15.7244 22.0137 -8.94951
369 1 6.28885 15.7248 22.0132 -8.95064
375 1 15.7257 15.7257 22.013 -8.94992
379 1 22.0139 18.8693 22.0137 -8.94958
381 1 3.1442 18.8696 22.0134 -8.94946
385 1 9.43439 18.8698 22.0135 -8.9495
353 1 3.14436 12.5794 22.0137 -8.94953
538 1 17.2972 20.4419 11.0069 -8.94951
