ITEM: TIMESTEP
53
ITEM: NUMBER OF ATOMS
688
ITEM: BOX BOUNDS pp pp pp
0.0000000000000000e+00 2.2013900999999997e+01
0.0000000000000000e+00 2.2013900999999997e+01
0.0000000000000000e+00 2.2013900999999997e+01
ITEM: ATOMS id type x y z c_pot
189 1 20.4415 4.71726 11.007 -8.94963
2 1 1.57242 1.57242 1.57242 -8.94962
175 1 18.8692 9.43447 9.43453 -8.94953
4 1 4.71727 1.57242 1.57242 -8.94965
174 1 15.725 9.43399 9.43465 -8.94698
6 1 7.86211 1.57242 1.57242 -8.94963
7 1 9.43453 5.06915e-17 3.2733e-08 -8.94963
8 1 11.007 1.57242 1.57242 -8.94964
173 1 12.5783 9.43122 9.43145 -8.93689
10 1 14.1518 1.57242 1.57242 -8.94964
11 1 15.7242 7.35197e-16 1.59619e-07 -8.94963
12 1 17.2966 1.57242 1.57242 -8.94963
188 1 17.2966 4.71725 11.007 -8.94965
14 1 20.4415 1.57242 1.57242 -8.94963
172 1 9.3522 9.23555 9.43506 -8.11332
16 1 1.57242 4.71726 1.57242 -8.94965
171 1 6.2801 9.43194 9.43382 -8.96775
18 1 4.71725 4.71725 1.57239 -8.9496
19 1 6.28969 3.14484 5.24657e-07 -8.94964
20 1 7.86211 4.71726 1.57241 -8.94962
170 1 3.14378 9.43457 9.43448 -8.9517
22 1 11.007 4.71725 1.57241 -8.94965
169 1 22.0138 9.43453 9.43453 -8.94987
24 1 14.1518 4.71726 1.57242 -8.94975
25 1 15.7242 3.14484 4.55663e-07 -8.94965
26 1 17.2967 4.71724 1.5724 -8.9495
168 1 18.8691 6.28966 9.43452 -8.94961
28 1 20.4415 4.71726 1.57242 -8.94963
167 1 15.7245 6.28938 9.43444 -8.94854
30 1 1.57242 7.86211 1.57242 -8.94963
31 1 3.14484 6.28969 1.09204e-06 -8.94964
32 1 4.71726 7.86211 1.57241 -8.94966
166 1 12.5793 6.28914 9.43435 -8.95051
34 1 7.86202 7.86202 1.57217 -8.95007
35 1 9.43453 6.28967 -1.71186e-05 -8.94963
36 1 11.0069 7.86203 1.57224 -8.94959
37 1 12.5794 6.28968 -7.81994e-06 -8.94963
38 1 14.1519 7.86195 1.5721 -8.94989
165 1 9.43342 6.28308 9.43463 -8.99078
40 1 17.2966 7.86211 1.57242 -8.94971
41 1 18.8691 6.28969 3.57912e-08 -8.94965
42 1 20.4415 7.86211 1.57242 -8.94963
43 1 22.0139 9.43453 2.94169e-08 -8.94963
187 1 14.1519 4.71705 11.0068 -8.94993
45 1 6.28968 9.43453 -3.94874e-06 -8.94967
164 1 6.28774 6.28762 9.43427 -8.94725
163 1 3.1446 6.28957 9.43454 -8.94953
48 1 15.7242 9.43453 -1.64527e-05 -8.9496
162 1 -1.4603e-05 6.28968 9.43453 -8.94965
50 1 1.03183e-07 2.38376e-16 3.14484 -8.94963
51 1 1.57242 1.57242 4.71727 -8.94965
52 1 3.14484 -2.44163e-16 3.14484 -8.94962
53 1 4.71724 1.57239 4.71724 -8.94962
54 1 6.28969 9.42486e-16 3.14484 -8.94964
55 1 7.86211 1.57242 4.71726 -8.94962
56 1 9.43453 7.60584e-16 3.14484 -8.94964
57 1 11.007 1.57241 4.71725 -8.94962
58 1 12.5794 9.76994e-16 3.14484 -8.94963
59 1 14.1518 1.57239 4.71725 -8.94967
60 1 15.7242 1.34818e-15 3.14484 -8.94963
61 1 17.2966 1.57242 4.71727 -8.94964
62 1 18.8691 9.14526e-16 3.14484 -8.94963
63 1 20.4415 1.57242 4.71726 -8.94963
64 1 22.0139 3.14484 3.14484 -8.94963
65 1 1.57239 4.71725 4.71725 -8.94962
66 1 3.14482 3.14482 3.14482 -8.94951
67 1 4.71698 4.71698 4.71698 -8.94831
68 1 6.28969 3.14484 3.14484 -8.94975
69 1 7.86214 4.71719 4.7172 -8.95003
70 1 9.43452 3.14483 3.14483 -8.94965
71 1 11.007 4.71709 4.7171 -8.9493
72 1 12.5794 3.14484 3.14483 -8.94962
73 1 14.152 4.71692 4.7171 -8.94974
74 1 15.7242 3.14481 3.14482 -8.94961
75 1 17.2966 4.71726 4.71726 -8.94972
76 1 18.8691 3.14484 3.14484 -8.94965
77 1 20.4415 4.71726 4.71726 -8.94964
78 1 22.0139 6.28969 3.14484 -8.94964
79 1 1.57241 7.86211 4.71725 -8.94962
80 1 3.14484 6.28969 3.14484 -8.94973
81 1 4.71715 7.86211 4.71718 -8.95011
82 1 6.28951 6.28952 3.14449 -8.94972
83 1 7.86106 7.8611 4.71468 -8.95247
84 1 9.43453 6.28952 3.14467 -8.94928
85 1 11.0065 7.86141 4.71575 -8.95119
86 1 12.5793 6.28962 3.14477 -8.95003
87 1 14.1547 7.85917 4.71438 -8.93859
88 1 15.7245 6.2894 3.14456 -8.94829
89 1 17.2969 7.86197 4.71713 -8.94989
90 1 18.8691 6.28967 3.14483 -8.94962
91 1 20.4415 7.8621 4.71726 -8.94968
92 1 4.61496e-07 9.43453 3.14484 -8.94963
93 1 3.14483 9.43453 3.14483 -8.94963
94 1 6.28959 9.43461 3.14472 -8.94977
95 1 9.43406 9.43409 3.14385 -8.94914
96 1 12.5801 9.43388 3.14246 -8.95364
97 1 15.7243 9.4345 3.14473 -8.94968
98 1 18.8691 9.43453 3.14483 -8.94961
99 1 22.0139 1.22689e-15 6.28969 -8.94963
100 1 1.57242 1.57242 7.86211 -8.94964
101 1 3.14484 2.0766e-16 6.28969 -8.94963
102 1 4.71725 1.57241 7.8621 -8.94959
103 1 6.28967 1.87124e-15 6.28967 -8.94973
104 1 7.86207 1.57223 7.86207 -8.95014
105 1 9.43453 2.47166e-15 6.28968 -8.94966
106 1 11.007 1.57231 7.86206 -8.94972
107 1 12.5794 6.07541e-16 6.28967 -8.94971
108 1 14.1518 1.57241 7.86211 -8.94964
109 1 15.7242 7.08168e-16 6.28969 -8.94963
110 1 17.2966 1.57242 7.86211 -8.94963
111 1 18.8691 1.15953e-15 6.28969 -8.94963
112 1 20.4415 1.57242 7.86211 -8.94963
113 1 5.02841e-07 3.14484 6.28969 -8.94963
114 1 1.57241 4.71726 7.86211 -8.94962
115 1 3.14484 3.14484 6.28969 -8.94971
116 1 4.71713 4.71713 7.86206 -8.94958
117 1 6.28953 3.14452 6.28953 -8.9499
118 1 7.86145 4.71491 7.86146 -8.95369
119 1 9.43458 3.14466 6.2896 -8.94959
120 1 11.0074 4.71627 7.86166 -8.94923
121 1 12.5795 3.1446 6.2896 -8.95008
122 1 14.1519 4.71711 7.86217 -8.94972
123 1 15.7242 3.14483 6.28969 -8.94965
124 1 17.2967 4.71725 7.8621 -8.9496
125 1 18.8691 3.14484 6.28969 -8.94963
126 1 20.4415 4.71726 7.86211 -8.94963
127 1 22.0139 6.28968 6.28968 -8.94968
128 1 1.57222 7.86207 7.86207 -8.95012
129 1 3.14452 6.28954 6.28954 -8.94983
130 1 4.71477 7.86135 7.8614 -8.95332
131 1 6.28683 6.28683 6.28676 -8.93868
132 1 7.84042 7.84197 7.84168 -8.86837
133 1 9.43501 6.28818 6.28901 -8.95113
134 1 11.0136 7.85814 7.85338 -8.92107
135 1 12.5804 6.28712 6.28869 -8.95255
136 1 14.1534 7.86108 7.86244 -8.94855
137 1 15.7243 6.28959 6.28967 -8.94999
138 1 17.2969 7.86201 7.86214 -8.94967
139 1 18.8691 6.28968 6.28969 -8.94963
140 1 20.4415 7.8621 7.86211 -8.94969
141 1 22.0139 9.43453 6.28968 -8.94968
142 1 3.14463 9.43455 6.28957 -8.94958
143 1 6.28832 9.43516 6.28886 -8.94988
144 1 9.42773 9.42589 6.2858 -8.92175
145 1 12.6012 9.4141 6.26923 -8.86796
146 1 15.7266 9.43393 6.28906 -8.95377
147 1 18.8692 9.4345 6.28966 -8.95013
148 1 -2.60421e-08 7.65616e-16 9.43453 -8.94963
149 1 3.14484 1.88925e-15 9.43453 -8.94964
150 1 6.28967 1.71406e-15 9.43453 -8.94967
151 1 9.43454 8.80436e-16 9.43453 -8.95007
152 1 12.5794 8.47088e-16 9.43452 -8.94963
153 1 15.7242 -3.09203e-16 9.43453 -8.94965
154 1 18.8691 1.057e-15 9.43453 -8.94963
155 1 22.0139 3.14484 9.43453 -8.94963
156 1 3.14484 3.14484 9.43453 -8.94971
157 1 6.28953 3.14455 9.4345 -8.94937
158 1 9.4346 3.1438 9.43453 -8.95101
159 1 12.5794 3.14472 9.4345 -8.94941
160 1 15.7242 3.14481 9.43452 -8.94962
161 1 18.8691 3.14484 9.43453 -8.94965
177 1 4.71726 1.57241 11.007 -8.94961
180 1 14.1518 1.57241 11.0069 -8.94967
184 1 4.71715 4.71719 11.007 -8.94982
183 1 1.57241 4.71726 11.007 -8.94961
3 1 3.14484 7.18318e-16 9.15479e-08 -8.94964
176 1 1.57242 1.57242 11.007 -8.94964
343 1 18.8691 9.43453 18.8691 -8.94963
178 1 7.86205 1.5722 11.007 -8.95016
179 1 11.007 1.57227 11.007 -8.94974
342 1 15.7242 9.43456 18.869 -8.94975
341 1 12.5797 9.43419 18.8697 -8.94961
182 1 20.4415 1.57242 11.007 -8.94963
340 1 9.43422 9.4342 18.8695 -8.94863
339 1 6.28963 9.43452 18.8692 -8.94982
185 1 7.86117 4.71455 11.0073 -8.95293
186 1 11.0077 4.71588 11.0071 -8.94846
338 1 3.14484 9.43453 18.8691 -8.94965
337 1 -2.89185e-09 9.43453 18.8691 -8.94963
336 1 20.4415 7.86211 20.4415 -8.94963
190 1 1.57223 7.86208 11.007 -8.95014
191 1 4.71478 7.86154 11.0077 -8.95434
192 1 7.83836 7.84068 11.0245 -8.90013
193 1 11.0156 7.85673 11.0145 -8.97355
194 1 14.154 7.8606 11.0059 -8.94932
195 1 17.297 7.86195 11.0069 -8.94965
196 1 20.4415 7.8621 11.007 -8.94971
197 1 22.0139 -6.77794e-16 12.5794 -8.94963
198 1 1.57242 1.57242 14.1518 -8.94965
199 1 3.14484 -6.7341e-16 12.5794 -8.94964
200 1 4.71725 1.5724 14.1518 -8.94962
201 1 6.28967 1.42464e-15 12.5794 -8.9497
202 1 7.86209 1.57238 14.1518 -8.94965
203 1 9.43453 -7.38711e-16 12.5794 -8.9499
204 1 11.007 1.57237 14.1518 -8.94963
205 1 12.5794 -6.19642e-16 12.5794 -8.94972
206 1 14.1518 1.57239 14.1518 -8.94969
207 1 15.7242 3.45552e-16 12.5794 -8.94964
208 1 17.2966 1.57242 14.1518 -8.94964
209 1 18.8691 4.28903e-16 12.5794 -8.94963
210 1 20.4415 1.57242 14.1518 -8.94963
211 1 2.02294e-07 3.14484 12.5794 -8.94963
212 1 1.57239 4.71725 14.1518 -8.94962
213 1 3.14484 3.14484 12.5794 -8.94971
214 1 4.717 4.71702 14.152 -8.94845
215 1 6.28954 3.14455 12.5795 -8.94977
216 1 7.86187 4.71682 14.1521 -8.94954
217 1 9.43458 3.1442 12.5795 -8.95117
218 1 11.0072 4.71678 14.1522 -8.94823
219 1 12.5795 3.14454 12.5795 -8.95018
220 1 14.152 4.71682 14.152 -8.94986
221 1 15.7242 3.14483 12.5794 -8.94964
222 1 17.2966 4.71726 14.1518 -8.94975
223 1 18.8691 3.14484 12.5794 -8.94964
224 1 20.4415 4.71726 14.1518 -8.94964
225 1 22.0139 6.28968 12.5794 -8.94968
226 1 1.57241 7.86211 14.1518 -8.94963
227 1 3.14454 6.28953 12.5795 -8.94977
228 1 4.71709 7.86221 14.1518 -8.95097
229 1 6.28704 6.28709 12.5823 -8.93905
230 1 7.85863 7.8593 14.1574 -8.98655
231 1 9.43494 6.28262 12.58 -8.96275
232 1 11.008 7.86118 14.154 -9.00333
233 1 12.5805 6.28654 12.5804 -8.9534
234 1 14.1556 7.85839 14.1551 -8.93666
235 1 15.7244 6.28954 12.5794 -8.94992
236 1 17.2971 7.86192 14.152 -8.94997
237 1 18.8691 6.28967 12.5794 -8.94961
238 1 20.4415 7.8621 14.1518 -8.9497
239 1 -4.98348e-06 9.43452 12.5794 -8.94968
240 1 3.14462 9.43452 12.5795 -8.94919
241 1 6.28864 9.43617 12.5801 -9.00094
242 1 9.40932 9.38309 12.5817 -9.20415
243 1 12.6062 9.41012 12.6002 -8.90962
244 1 15.7274 9.43381 12.5801 -8.95497
245 1 18.8693 9.43451 12.5794 -8.95035
246 1 6.62442e-08 -3.03895e-16 15.7242 -8.94963
247 1 1.57242 1.57242 17.2966 -8.94963
248 1 3.14484 1.16718e-15 15.7242 -8.94962
249 1 4.71726 1.57242 17.2966 -8.94964
250 1 6.28968 7.5443e-16 15.7242 -8.94964
251 1 7.86211 1.57242 17.2966 -8.94964
252 1 9.43453 9.45946e-16 15.7242 -8.94963
253 1 11.0069 1.57242 17.2966 -8.94964
254 1 12.5794 1.21775e-15 15.7242 -8.94964
255 1 14.1518 1.57242 17.2966 -8.94963
256 1 15.7242 1.75055e-15 15.7242 -8.94964
257 1 17.2966 1.57242 17.2966 -8.94963
258 1 18.8691 1.80667e-15 15.7242 -8.94963
259 1 20.4415 1.57242 17.2966 -8.94963
260 1 22.0139 3.14484 15.7242 -8.94963
261 1 1.57242 4.71727 17.2966 -8.94966
262 1 3.14483 3.14483 15.7242 -8.94953
263 1 4.71723 4.71722 17.2967 -8.94949
264 1 6.28966 3.1448 15.7242 -8.94969
265 1 7.86213 4.71726 17.2966 -8.94979
266 1 9.43453 3.14483 15.7242 -8.94963
267 1 11.0069 4.71725 17.2967 -8.94963
268 1 12.5794 3.14479 15.7243 -8.9496
269 1 14.1518 4.71723 17.2967 -8.94975
270 1 15.7242 3.1448 15.7242 -8.94961
271 1 17.2967 4.71724 17.2967 -8.94947
272 1 18.8691 3.14484 15.7242 -8.94965
273 1 20.4415 4.71726 17.2966 -8.94963
274 1 4.58313e-06 6.28969 15.7242 -8.94964
275 1 1.57241 7.8621 17.2966 -8.94963
276 1 3.14484 6.2897 15.7242 -8.94984
277 1 4.71717 7.86203 17.2967 -8.94941
278 1 6.28925 6.28923 15.7248 -8.94865
279 1 7.86187 7.86187 17.2973 -8.95031
280 1 9.43465 6.28949 15.7243 -8.95004
281 1 11.0068 7.86211 17.2968 -8.95026
282 1 12.5794 6.28924 15.7244 -8.95068
283 1 14.1523 7.86163 17.2973 -8.94861
284 1 15.7246 6.28933 15.7246 -8.948
285 1 17.2966 7.86212 17.2966 -8.94983
286 1 18.8691 6.28966 15.7242 -8.94961
287 1 20.4415 7.86211 17.2966 -8.94964
288 1 22.0139 9.43453 15.7242 -8.94966
289 1 3.14473 9.43449 15.7243 -8.94974
290 1 6.28874 9.43425 15.725 -8.94859
291 1 9.43215 9.43289 15.7259 -9.00031
292 1 12.5829 9.4303 15.7288 -8.98371
293 1 15.7244 9.43461 15.7242 -8.95077
294 1 18.8691 9.43454 15.7242 -8.94963
295 1 22.0139 1.74438e-15 18.8691 -8.94963
296 1 1.57242 1.57242 20.4415 -8.94963
297 1 3.14484 -1.43817e-16 18.8691 -8.94963
298 1 4.71726 1.57242 20.4415 -8.94964
299 1 6.28969 -1.56986e-15 18.8691 -8.94963
300 1 7.86211 1.57242 20.4415 -8.94963
301 1 9.43453 -1.36531e-17 18.8691 -8.94963
302 1 11.007 1.57242 20.4415 -8.94963
303 1 12.5794 1.04743e-15 18.8691 -8.94964
304 1 14.1518 1.57242 20.4415 -8.94963
305 1 15.7242 8.46286e-16 18.8691 -8.94963
306 1 17.2966 1.57242 20.4415 -8.94964
307 1 18.8691 -6.73877e-18 18.8691 -8.94963
308 1 20.4415 1.57242 20.4415 -8.94963
309 1 4.16438e-07 3.14484 18.8691 -8.94963
310 1 1.57242 4.71726 20.4415 -8.94963
311 1 3.14484 3.14484 18.8691 -8.94962
312 1 4.71726 4.71726 20.4415 -8.94963
313 1 6.28969 3.14484 18.8691 -8.94966
314 1 7.86211 4.71726 20.4415 -8.94964
315 1 9.43453 3.14484 18.8691 -8.94963
316 1 11.007 4.71726 20.4415 -8.94964
317 1 12.5794 3.14484 18.8691 -8.94964
318 1 14.1518 4.71727 20.4415 -8.94966
319 1 15.7242 3.14484 18.8691 -8.94965
320 1 17.2966 4.71726 20.4415 -8.94961
321 1 18.8691 3.14484 18.8691 -8.94962
322 1 20.4415 4.71726 20.4415 -8.94964
323 1 22.0139 6.28969 18.8691 -8.94963
324 1 1.57242 7.86211 20.4415 -8.94964
325 1 3.14484 6.28968 18.8691 -8.94961
326 1 4.71726 7.8621 20.4415 -8.94964
327 1 6.28966 6.28965 18.8691 -8.94965
328 1 7.86207 7.86206 20.4415 -8.94967
329 1 9.43454 6.28965 18.8691 -8.94963
330 1 11.0069 7.8621 20.4415 -8.94963
331 1 12.5794 6.28968 18.8691 -8.9498
332 1 14.1518 7.86206 20.4415 -8.94966
333 1 15.7243 6.28964 18.8691 -8.94948
334 1 17.2966 7.86211 20.4415 -8.94966
335 1 18.8691 6.28969 18.8691 -8.94966
49 1 18.8691 9.43453 22.0139 -8.94964
5 1 6.28969 -8.14083e-17 22.0139 -8.94963
9 1 12.5794 -1.32742e-15 22.0139 -8.94963
15 1 22.0139 3.14484 22.0139 -8.94963
17 1 3.14484 3.14484 22.0139 -8.94963
21 1 9.43453 3.14484 22.0139 -8.94964
23 1 12.5794 3.14484 22.0139 -8.94963
27 1 18.8691 3.14484 22.0139 -8.94962
29 1 -7.72676e-08 6.28969 22.0139 -8.94963
33 1 6.28967 6.28967 22.0139 -8.94966
39 1 15.7242 6.28966 22.0139 -8.94961
46 1 9.43447 9.43447 22.0138 -8.94972
47 1 12.5794 9.43447 22.0137 -8.95017
1 1 -1.01814e-07 5.55192e-16 22.0139 -8.94963
13 1 18.8691 3.6391e-16 22.0139 -8.94963
44 1 3.14484 9.43453 22.0139 -8.94963
181 1 17.2966 1.57242 11.007 -8.94963
344 1 1.57242 11.007 1.57242 -8.94964
345 1 4.71724 11.007 1.57239 -8.94961
346 1 7.86207 11.007 1.57235 -8.94945
347 1 11.0069 11.007 1.57141 -8.95121
348 1 14.1519 11.007 1.57216 -8.94941
349 1 17.2966 11.007 1.57242 -8.94969
350 1 20.4415 11.007 1.57242 -8.94964
351 1 22.0139 12.5794 2.94169e-08 -8.94963
352 1 1.57242 14.1518 1.57242 -8.94963
537 1 14.1518 20.4415 11.0069 -8.94967
354 1 4.71726 14.1518 1.57241 -8.94966
355 1 6.28968 12.5794 -3.94874e-06 -8.94967
356 1 7.86202 14.1519 1.57217 -8.95007
688 3 10.2029 11.007 9.4179 2.54875
358 1 11.0069 14.1519 1.57224 -8.94959
511 1 18.8691 18.8691 9.43453 -8.94965
360 1 14.1519 14.152 1.5721 -8.94989
361 1 15.7242 12.5794 -1.64527e-05 -8.9496
362 1 17.2966 14.1518 1.57242 -8.94971
510 1 15.7242 18.8691 9.43452 -8.94962
364 1 20.4415 14.1518 1.57242 -8.94963
509 1 12.5794 18.8692 9.4345 -8.94941
366 1 1.57242 17.2966 1.57242 -8.94965
367 1 3.14484 15.7242 1.09204e-06 -8.94964
368 1 4.71725 17.2967 1.57239 -8.9496
508 1 9.4346 18.8701 9.43453 -8.95101
370 1 7.86211 17.2966 1.57241 -8.94962
371 1 9.43453 15.7242 -1.71186e-05 -8.94963
372 1 11.007 17.2966 1.57241 -8.94965
373 1 12.5794 15.7242 -7.81994e-06 -8.94963
374 1 14.1518 17.2966 1.57242 -8.94975
507 1 6.28953 18.8694 9.4345 -8.94937
376 1 17.2967 17.2967 1.5724 -8.9495
377 1 18.8691 15.7242 3.57912e-08 -8.94965
378 1 20.4415 17.2966 1.57242 -8.94963
506 1 3.14484 18.8691 9.43453 -8.94971
380 1 1.57242 20.4415 1.57242 -8.94962
505 1 22.0139 18.8691 9.43453 -8.94963
382 1 4.71727 20.4415 1.57242 -8.94965
383 1 6.28969 18.8691 5.24657e-07 -8.94964
384 1 7.86211 20.4415 1.57242 -8.94963
504 1 18.8691 15.7242 9.43452 -8.94961
386 1 11.007 20.4415 1.57242 -8.94964
503 1 15.7245 15.7245 9.43444 -8.94854
388 1 14.1518 20.4415 1.57242 -8.94964
389 1 15.7242 18.8691 4.55663e-07 -8.94965
390 1 17.2966 20.4415 1.57242 -8.94963
502 1 12.5793 15.7248 9.43435 -8.95051
392 1 20.4415 20.4415 1.57242 -8.94963
393 1 1.5724 11.007 4.71725 -8.94961
394 1 4.71709 11.007 4.71703 -8.94879
395 1 7.86239 11.007 4.71711 -8.95023
396 1 11.0081 11.007 4.71053 -8.99017
397 1 14.1535 11.007 4.71548 -8.94794
398 1 17.2969 11.007 4.71714 -8.94943
399 1 20.4415 11.007 4.71726 -8.94965
400 1 4.61496e-07 12.5794 3.14484 -8.94963
401 1 1.57241 14.1518 4.71725 -8.94962
402 1 3.14483 12.5794 3.14483 -8.94963
403 1 4.71715 14.1518 4.71718 -8.95011
404 1 6.28959 12.5793 3.14472 -8.94977
405 1 7.86106 14.1528 4.71468 -8.95247
406 1 9.43406 12.5798 3.14385 -8.94914
407 1 11.0065 14.1525 4.71575 -8.95119
408 1 12.5801 12.58 3.14246 -8.95364
409 1 14.1547 14.1547 4.71438 -8.93859
410 1 15.7243 12.5794 3.14473 -8.94968
411 1 17.2969 14.1519 4.71713 -8.94989
412 1 18.8691 12.5794 3.14483 -8.94961
413 1 20.4415 14.1518 4.71726 -8.94968
414 1 22.0139 15.7242 3.14484 -8.94964
415 1 1.57239 17.2967 4.71725 -8.94962
416 1 3.14484 15.7242 3.14484 -8.94973
417 1 4.71698 17.2969 4.71698 -8.94831
418 1 6.28951 15.7244 3.14449 -8.94972
419 1 7.86214 17.2967 4.7172 -8.95003
420 1 9.43453 15.7244 3.14467 -8.94928
421 1 11.007 17.2968 4.7171 -8.9493
422 1 12.5793 15.7243 3.14477 -8.95003
423 1 14.152 17.297 4.7171 -8.94974
424 1 15.7245 15.7245 3.14456 -8.94829
425 1 17.2966 17.2966 4.71726 -8.94972
426 1 18.8691 15.7242 3.14483 -8.94962
427 1 20.4415 17.2966 4.71726 -8.94964
428 1 22.0139 18.8691 3.14484 -8.94963
429 1 1.57242 20.4415 4.71727 -8.94965
430 1 3.14482 18.8691 3.14482 -8.94951
431 1 4.71724 20.4415 4.71724 -8.94962
432 1 6.28969 18.8691 3.14484 -8.94975
433 1 7.86211 20.4415 4.71726 -8.94962
434 1 9.43452 18.8691 3.14483 -8.94965
435 1 11.007 20.4415 4.71725 -8.94962
436 1 12.5794 18.8691 3.14483 -8.94962
437 1 14.1518 20.4415 4.71725 -8.94967
438 1 15.7242 18.8691 3.14482 -8.94961
439 1 17.2966 20.4415 4.71727 -8.94964
440 1 18.8691 18.8691 3.14484 -8.94965
441 1 20.4415 20.4415 4.71726 -8.94963
442 1 1.57227 11.007 7.86204 -8.9495
443 1 4.71645 11.007 7.86144 -8.94581
444 1 7.86534 11.007 7.86217 -8.89596
445 1 11.0912 11.007 7.66466 -8.0846
446 1 14.1604 11.007 7.86046 -8.96985
447 1 17.2976 11.007 7.86218 -8.95153
448 1 20.4415 11.007 7.86211 -8.94985
449 1 22.0139 12.5794 6.28968 -8.94968
450 1 1.57222 14.1518 7.86207 -8.95012
451 1 3.14463 12.5793 6.28957 -8.94958
452 1 4.71477 14.1525 7.8614 -8.95332
453 1 6.28832 12.5787 6.28886 -8.94988
454 1 7.84042 14.1719 7.84168 -8.86837
455 1 9.42773 12.588 6.2858 -8.92175
456 1 11.0136 14.1558 7.85338 -8.92107
457 1 12.6012 12.5998 6.26923 -8.86796
458 1 14.1534 14.1528 7.86244 -8.94855
459 1 15.7266 12.58 6.28906 -8.95377
460 1 17.2969 14.1519 7.86214 -8.94967
461 1 18.8692 12.5794 6.28966 -8.95013
462 1 20.4415 14.1518 7.86211 -8.94969
463 1 22.0139 15.7242 6.28968 -8.94968
464 1 1.57241 17.2966 7.86211 -8.94962
465 1 3.14452 15.7244 6.28954 -8.94983
466 1 4.71713 17.2968 7.86206 -8.94958
467 1 6.28683 15.7271 6.28676 -8.93868
468 1 7.86145 17.299 7.86146 -8.95369
469 1 9.43501 15.7257 6.28901 -8.95113
470 1 11.0074 17.2976 7.86166 -8.94923
471 1 12.5804 15.7268 6.28869 -8.95255
472 1 14.1519 17.2968 7.86217 -8.94972
473 1 15.7243 15.7243 6.28967 -8.94999
474 1 17.2967 17.2967 7.8621 -8.9496
475 1 18.8691 15.7242 6.28969 -8.94963
476 1 20.4415 17.2966 7.86211 -8.94963
477 1 5.02841e-07 18.8691 6.28969 -8.94963
478 1 1.57242 20.4415 7.86211 -8.94964
479 1 3.14484 18.8691 6.28969 -8.94971
480 1 4.71725 20.4415 7.8621 -8.94959
481 1 6.28953 18.8694 6.28953 -8.9499
482 1 7.86207 20.4417 7.86207 -8.95014
483 1 9.43458 18.8692 6.2896 -8.94959
484 1 11.007 20.4416 7.86206 -8.94972
485 1 12.5795 18.8693 6.2896 -8.95008
486 1 14.1518 20.4415 7.86211 -8.94964
487 1 15.7242 18.8691 6.28969 -8.94965
488 1 17.2966 20.4415 7.86211 -8.94963
489 1 18.8691 18.8691 6.28969 -8.94963
490 1 20.4415 20.4415 7.86211 -8.94963
491 1 22.0138 12.5794 9.43453 -8.94987
492 1 3.14378 12.5793 9.43448 -8.9517
493 1 6.2801 12.582 9.43382 -8.96775
494 1 9.3522 12.7784 9.43506 -8.11332
495 1 12.5783 12.5827 9.43145 -8.93689
496 1 15.725 12.5799 9.43465 -8.94698
497 1 18.8692 12.5794 9.43453 -8.94953
498 1 -1.4603e-05 15.7242 9.43453 -8.94965
499 1 3.1446 15.7243 9.43454 -8.94953
500 1 6.28774 15.7263 9.43427 -8.94725
501 1 9.43342 15.7308 9.43463 -8.99078
526 1 1.57241 17.2966 11.007 -8.94961
527 1 4.71715 17.2967 11.007 -8.94982
530 1 14.1519 17.2969 11.0068 -8.94993
531 1 17.2966 17.2966 11.007 -8.94965
532 1 20.4415 17.2966 11.007 -8.94963
534 1 4.71726 20.4415 11.007 -8.94961
517 1 17.2976 11.007 11.0068 -8.95091
518 1 20.4415 11.007 11.0069 -8.94984
512 1 1.57222 11.007 11.007 -8.94973
513 1 4.71577 11.007 11.0075 -8.94754
514 1 7.85943 11.007 11.0015 -8.92189
515 1 11.137 11.007 11.1384 -8.43368
516 1 14.1589 11.007 11.0103 -9.02001
391 1 18.8691 18.8691 22.0139 -8.94962
387 1 12.5794 18.8691 22.0139 -8.94963
519 1 1.57223 14.1518 11.007 -8.95014
520 1 4.71478 14.1524 11.0077 -8.95434
521 1 7.83836 14.1732 11.0245 -8.90013
522 1 11.0156 14.1572 11.0145 -8.97355
523 1 14.154 14.1533 11.0059 -8.94932
524 1 17.297 14.152 11.0069 -8.94965
525 1 20.4415 14.1518 11.007 -8.94971
687 2 10.2017 11.007 12.6001 0.970312
686 1 20.4415 20.4415 20.4415 -8.94963
528 1 7.86117 17.2993 11.0073 -8.95293
529 1 11.0077 17.298 11.0071 -8.94846
685 1 18.8691 18.8691 18.8691 -8.94962
684 1 17.2966 20.4415 20.4415 -8.94964
683 1 15.7242 18.8691 18.8691 -8.94965
533 1 1.57242 20.4415 11.007 -8.94964
682 1 14.1518 20.4415 20.4415 -8.94963
535 1 7.86205 20.4417 11.007 -8.95016
536 1 11.007 20.4416 11.007 -8.94974
681 1 12.5794 18.8691 18.8691 -8.94964
680 1 11.007 20.4415 20.4415 -8.94963
539 1 20.4415 20.4415 11.007 -8.94963
540 1 1.57235 11.007 14.1518 -8.9498
541 1 4.71643 11.007 14.1521 -8.95002
542 1 7.85747 11.007 14.1558 -8.98139
543 1 11.0293 11.007 14.2137 -9.25512
544 1 14.1528 11.007 14.1525 -8.9984
545 1 17.2969 11.007 14.152 -8.94891
546 1 20.4415 11.007 14.1518 -8.94963
547 1 -4.98348e-06 12.5794 12.5794 -8.94968
548 1 1.57241 14.1518 14.1518 -8.94963
549 1 3.14462 12.5794 12.5795 -8.94919
550 1 4.71709 14.1517 14.1518 -8.95097
551 1 6.28864 12.5777 12.5801 -9.00094
552 1 7.85863 14.1546 14.1574 -8.98655
553 1 9.40932 12.6308 12.5817 -9.20415
554 1 11.008 14.1527 14.154 -9.00333
555 1 12.6062 12.6038 12.6002 -8.90962
556 1 14.1556 14.1555 14.1551 -8.93666
557 1 15.7274 12.5801 12.5801 -8.95497
558 1 17.2971 14.152 14.152 -8.94997
559 1 18.8693 12.5794 12.5794 -8.95035
560 1 20.4415 14.1518 14.1518 -8.9497
561 1 22.0139 15.7242 12.5794 -8.94968
562 1 1.57239 17.2967 14.1518 -8.94962
563 1 3.14454 15.7244 12.5795 -8.94977
564 1 4.717 17.2969 14.152 -8.94845
565 1 6.28704 15.7268 12.5823 -8.93905
566 1 7.86187 17.2971 14.1521 -8.94954
567 1 9.43494 15.7313 12.58 -8.96275
568 1 11.0072 17.2971 14.1522 -8.94823
569 1 12.5805 15.7274 12.5804 -8.9534
570 1 14.152 17.2971 14.152 -8.94986
571 1 15.7244 15.7244 12.5794 -8.94992
572 1 17.2966 17.2966 14.1518 -8.94975
573 1 18.8691 15.7242 12.5794 -8.94961
574 1 20.4415 17.2966 14.1518 -8.94964
575 1 2.02294e-07 18.8691 12.5794 -8.94963
576 1 1.57242 20.4415 14.1518 -8.94965
577 1 3.14484 18.8691 12.5794 -8.94971
578 1 4.71725 20.4415 14.1518 -8.94962
579 1 6.28954 18.8694 12.5795 -8.94977
580 1 7.86209 20.4415 14.1518 -8.94965
581 1 9.43458 18.8697 12.5795 -8.95117
582 1 11.007 20.4415 14.1518 -8.94963
583 1 12.5795 18.8694 12.5795 -8.95018
584 1 14.1518 20.4415 14.1518 -8.94969
585 1 15.7242 18.8691 12.5794 -8.94964
586 1 17.2966 20.4415 14.1518 -8.94964
587 1 18.8691 18.8691 12.5794 -8.94964
588 1 20.4415 20.4415 14.1518 -8.94963
589 1 1.57241 11.007 17.2966 -8.94963
590 1 4.71719 11.007 17.2967 -8.9494
591 1 7.86199 11.007 17.2972 -8.95077
592 1 11.0069 11.007 17.3041 -8.96519
593 1 14.1517 11.007 17.2966 -8.94995
594 1 17.2966 11.007 17.2967 -8.94958
595 1 20.4415 11.007 17.2966 -8.94963
596 1 22.0139 12.5794 15.7242 -8.94966
597 1 1.57241 14.1518 17.2966 -8.94963
598 1 3.14473 12.5794 15.7243 -8.94974
599 1 4.71717 14.1519 17.2967 -8.94941
600 1 6.28874 12.5797 15.725 -8.94859
601 1 7.86187 14.152 17.2973 -8.95031
602 1 9.43215 12.581 15.7259 -9.00031
603 1 11.0068 14.1518 17.2968 -8.95026
604 1 12.5829 12.5836 15.7288 -8.98371
605 1 14.1523 14.1523 17.2973 -8.94861
606 1 15.7244 12.5793 15.7242 -8.95077
607 1 17.2966 14.1518 17.2966 -8.94983
608 1 18.8691 12.5794 15.7242 -8.94963
609 1 20.4415 14.1518 17.2966 -8.94964
610 1 4.58313e-06 15.7242 15.7242 -8.94964
611 1 1.57242 17.2966 17.2966 -8.94966
612 1 3.14484 15.7242 15.7242 -8.94984
613 1 4.71723 17.2967 17.2967 -8.94949
614 1 6.28925 15.7247 15.7248 -8.94865
615 1 7.86213 17.2966 17.2966 -8.94979
616 1 9.43465 15.7244 15.7243 -8.95004
617 1 11.0069 17.2966 17.2967 -8.94963
618 1 12.5794 15.7247 15.7244 -8.95068
619 1 14.1518 17.2967 17.2967 -8.94975
620 1 15.7246 15.7246 15.7246 -8.948
621 1 17.2967 17.2967 17.2967 -8.94947
622 1 18.8691 15.7242 15.7242 -8.94961
623 1 20.4415 17.2966 17.2966 -8.94963
624 1 22.0139 18.8691 15.7242 -8.94963
625 1 1.57242 20.4415 17.2966 -8.94963
626 1 3.14483 18.8691 15.7242 -8.94953
627 1 4.71726 20.4415 17.2966 -8.94964
628 1 6.28966 18.8691 15.7242 -8.94969
629 1 7.86211 20.4415 17.2966 -8.94964
630 1 9.43453 18.8691 15.7242 -8.94963
631 1 11.0069 20.4415 17.2966 -8.94964
632 1 12.5794 18.8691 15.7243 -8.9496
633 1 14.1518 20.4415 17.2966 -8.94963
634 1 15.7242 18.8691 15.7242 -8.94961
635 1 17.2966 20.4415 17.2966 -8.94963
636 1 18.8691 18.8691 15.7242 -8.94965
637 1 20.4415 20.4415 17.2966 -8.94963
638 1 1.57242 11.007 20.4415 -8.94964
639 1 4.71726 11.007 20.4415 -8.94962
640 1 7.86211 11.007 20.4415 -8.94974
641 1 11.0069 11.007 20.442 -8.95189
642 1 14.1518 11.007 20.4415 -8.94955
643 1 17.2966 11.007 20.4415 -8.94964
644 1 20.4415 11.007 20.4415 -8.94963
645 1 -2.89185e-09 12.5794 18.8691 -8.94963
646 1 1.57242 14.1518 20.4415 -8.94964
647 1 3.14484 12.5794 18.8691 -8.94965
648 1 4.71726 14.1518 20.4415 -8.94964
649 1 6.28963 12.5794 18.8692 -8.94982
650 1 7.86207 14.1518 20.4415 -8.94967
651 1 9.43422 12.5797 18.8695 -8.94863
652 1 11.0069 14.1518 20.4415 -8.94963
653 1 12.5797 12.5797 18.8697 -8.94961
654 1 14.1518 14.1518 20.4415 -8.94966
655 1 15.7242 12.5793 18.869 -8.94975
656 1 17.2966 14.1518 20.4415 -8.94966
657 1 18.8691 12.5794 18.8691 -8.94963
658 1 20.4415 14.1518 20.4415 -8.94963
659 1 22.0139 15.7242 18.8691 -8.94963
660 1 1.57242 17.2966 20.4415 -8.94963
661 1 3.14484 15.7242 18.8691 -8.94961
662 1 4.71726 17.2966 20.4415 -8.94963
663 1 6.28966 15.7242 18.8691 -8.94965
664 1 7.86211 17.2966 20.4415 -8.94964
665 1 9.43454 15.7242 18.8691 -8.94963
666 1 11.007 17.2966 20.4415 -8.94964
667 1 12.5794 15.7242 18.8691 -8.9498
668 1 14.1518 17.2966 20.4415 -8.94966
669 1 15.7243 15.7243 18.8691 -8.94948
670 1 17.2966 17.2966 20.4415 -8.94961
671 1 18.8691 15.7242 18.8691 -8.94966
672 1 20.4415 17.2966 20.4415 -8.94964
673 1 4.16438e-07 18.8691 18.8691 -8.94963
674 1 1.57242 20.4415 20.4415 -8.94963
675 1 3.14484 18.8691 18.8691 -8.94962
676 1 4.71726 20.4415 20.4415 -8.94964
677 1 6.28969 18.8691 18.8691 -8.94966
678 1 7.86211 20.4415 20.4415 -8.94963
679 1 9.43453 18.8691 18.8691 -8.94963
357 1 9.43447 12.5794 22.0138 -8.94972
359 1 12.5794 12.5794 22.0137 -8.95017
363 1 18.8691 12.5794 22.0139 -8.94964
365 1 -7.72676e-08 15.7242 22.0139 -8.94963
369 1 6.28967 15.7242 22.0139 -8.94966
375 1 15.7242 15.7242 22.0139 -8.94961
379 1 22.0139 18.8691 22.0139 -8.94963
381 1 3.14484 18.8691 22.0139 -8.94963
385 1 9.43453 18.8691 22.0139 -8.94964
353 1 3.14484 12.5794 22.0139 -8.94963
538 1 17.2966 20.4415 11.007 -8.94963
