ITEM: TIMESTEP
84
ITEM: NUMBER OF ATOMS
688
ITEM: BOX BOUNDS pp pp pp
0.0000000000000000e+00 2.2013900999999997e+01
0.0000000000000000e+00 2.2013900999999997e+01
0.0000000000000000e+00 2.2013900999999997e+01
ITEM: ATOMS id type x y z c_pot
189 1 20.4414 4.71658 11.007 -8.94956
2 1 1.57186 1.57208 1.57191 -8.94913
175 1 18.8694 9.43441 9.43474 -8.94793
4 1 4.71682 1.57198 1.57181 -8.94962
174 1 15.722 9.43544 9.43509 -8.94414
6 1 7.86195 1.57196 1.57183 -8.94947
7 1 9.43449 -8.12346e-16 -0.000205723 -8.94955
8 1 11.007 1.57193 1.57185 -8.94951
173 1 12.5641 9.43179 9.42073 -8.93498
10 1 14.1521 1.5719 1.57194 -8.9495
11 1 15.7244 -8.83729e-16 -0.000155814 -8.94958
12 1 17.2972 1.57186 1.57194 -8.94948
188 1 17.2978 4.71612 11.0069 -8.94896
14 1 20.4415 1.57216 1.57221 -8.94952
172 1 9.35619 9.18035 9.43145 -8.13427
16 1 1.57199 4.71695 1.57187 -8.94985
171 1 6.28121 9.42551 9.43338 -8.97109
18 1 4.71591 4.71605 1.5707 -8.94951
19 1 6.28932 3.14425 -0.000365462 -8.94949
20 1 7.86155 4.71605 1.571 -8.94911
170 1 3.14204 9.43483 9.43439 -8.95107
22 1 11.007 4.71589 1.57106 -8.94933
169 1 22.0132 9.43464 9.43454 -8.94944
24 1 14.1526 4.71569 1.57099 -8.94968
25 1 15.7247 3.14408 -0.000329681 -8.94967
26 1 17.2983 4.71562 1.57116 -8.94814
168 1 18.87 6.28876 9.43452 -8.94959
28 1 20.442 4.71677 1.57199 -8.94956
167 1 15.7267 6.28737 9.43424 -8.94622
30 1 1.57216 7.86203 1.57197 -8.94941
31 1 3.14444 6.28961 -0.000239761 -8.94974
32 1 4.71668 7.86229 1.57171 -8.94966
166 1 12.5799 6.28723 9.43203 -8.9456
34 1 7.86152 7.86167 1.57049 -8.9526
35 1 9.43405 6.28865 -0.000691753 -8.94961
36 1 11.0067 7.8608 1.56982 -8.95073
37 1 12.5796 6.28857 -0.000791828 -8.9497
38 1 14.154 7.86012 1.56875 -8.95174
165 1 9.42907 6.29033 9.43378 -9.00761
40 1 17.2984 7.86116 1.57102 -8.94911
41 1 18.8699 6.28917 -0.000333336 -8.94949
42 1 20.4421 7.86181 1.57191 -8.94944
43 1 22.014 9.43446 -0.000196313 -8.94956
187 1 14.153 4.71545 11.0063 -8.94894
45 1 6.28912 9.43463 -6.82355e-05 -8.94936
164 1 6.27746 6.27791 9.43351 -8.94075
163 1 3.1398 6.28704 9.43444 -8.94924
48 1 15.7258 9.43399 -0.000987706 -8.94926
162 1 -0.00118871 6.28898 9.43451 -8.95005
50 1 -0.000297856 4.18413e-16 3.14459 -8.94952
51 1 1.57168 1.57199 4.71675 -8.94945
52 1 3.14408 6.9794e-16 3.14407 -8.94953
53 1 4.71612 1.57118 4.71606 -8.95003
54 1 6.28937 4.10765e-16 3.1441 -8.94956
55 1 7.86188 1.57127 4.71625 -8.94963
56 1 9.43457 6.43164e-16 3.1441 -8.94953
57 1 11.0073 1.57134 4.71633 -8.94959
58 1 12.5797 8.49867e-17 3.14421 -8.9495
59 1 14.1524 1.57129 4.7167 -8.95069
60 1 15.7247 2.5215e-16 3.14438 -8.95004
61 1 17.2971 1.57197 4.7171 -8.94966
62 1 18.8693 5.19385e-16 3.14469 -8.94966
63 1 20.4414 1.57218 4.71709 -8.94951
64 1 22.0134 3.14436 3.14435 -8.94955
65 1 1.57069 4.71621 4.7161 -8.9497
66 1 3.14326 3.14348 3.14329 -8.9481
67 1 4.7125 4.7128 4.71261 -8.94413
68 1 6.28886 3.14336 3.14336 -8.94957
69 1 7.86055 4.71335 4.71411 -8.94878
70 1 9.43442 3.14337 3.14352 -8.94935
71 1 11.0075 4.7136 4.71432 -8.94764
72 1 12.5798 3.14328 3.14365 -8.94912
73 1 14.1552 4.71206 4.71394 -8.94966
74 1 15.7256 3.1429 3.14357 -8.9494
75 1 17.2982 4.71577 4.71658 -8.95001
76 1 18.8696 3.14417 3.14448 -8.94972
77 1 20.4415 4.71672 4.71693 -8.9499
78 1 22.0139 6.2894 3.14433 -8.94983
79 1 1.5716 7.86213 4.7166 -8.94981
80 1 3.1436 6.28929 3.14363 -8.95037
81 1 4.71471 7.86198 4.71532 -8.95142
82 1 6.28662 6.28689 3.14008 -8.95031
83 1 7.85612 7.8557 4.70661 -8.95504
84 1 9.43381 6.28692 3.14129 -8.94771
85 1 11.0078 7.85662 4.70755 -8.9518
86 1 12.5808 6.28665 3.14082 -8.94932
87 1 14.1656 7.84948 4.70356 -8.93033
88 1 15.729 6.28511 3.14041 -8.94455
89 1 17.3014 7.85989 4.71499 -8.95077
90 1 18.8708 6.28857 3.14381 -8.94967
91 1 20.4425 7.8617 4.71671 -8.95018
92 1 0.000157268 9.43441 3.14422 -8.94954
93 1 3.14402 9.43456 3.1439 -8.94894
94 1 6.28924 9.43533 3.14408 -8.94914
95 1 9.43519 9.43448 3.1438 -8.95113
96 1 12.5828 9.43304 3.13627 -8.9598
97 1 15.7286 9.43299 3.14078 -8.9474
98 1 18.871 9.4341 3.14367 -8.94927
99 1 22.0135 1.59805e-15 6.2895 -8.94954
100 1 1.57159 1.57194 7.86188 -8.9495
101 1 3.14387 1.8334e-15 6.28912 -8.94933
102 1 4.71576 1.571 7.86145 -8.9493
103 1 6.28907 1.56354e-15 6.28895 -8.9507
104 1 7.86173 1.57053 7.86172 -8.95146
105 1 9.43472 6.6752e-16 6.28905 -8.95024
106 1 11.0071 1.57151 7.86193 -8.94957
107 1 12.5797 9.91341e-16 6.28944 -8.95042
108 1 14.1525 1.57166 7.86193 -8.94946
109 1 15.7247 3.80595e-16 6.28955 -8.94954
110 1 17.2972 1.572 7.86203 -8.94954
111 1 18.8693 1.21005e-15 6.28958 -8.94954
112 1 20.4414 1.57214 7.86202 -8.94955
113 1 -0.000588225 3.14427 6.28936 -8.94946
114 1 1.57049 4.71605 7.86161 -8.94933
115 1 3.14304 3.14328 6.28866 -8.94909
116 1 4.71265 4.71291 7.86025 -8.94717
117 1 6.28755 3.14075 6.28765 -8.9517
118 1 7.85847 4.7081 7.86006 -8.95965
119 1 9.43457 3.14163 6.28818 -8.95042
120 1 11.0064 4.71412 7.86108 -8.95244
121 1 12.58 3.14208 6.28895 -8.95255
122 1 14.1533 4.71491 7.86182 -8.94859
123 1 15.7251 3.14358 6.2895 -8.94949
124 1 17.2978 4.71611 7.86199 -8.94896
125 1 18.8694 3.14427 6.28956 -8.94943
126 1 20.4414 4.7166 7.86196 -8.94957
127 1 22.0129 6.28916 6.28924 -8.95031
128 1 1.56967 7.8617 7.86172 -8.95194
129 1 3.14006 6.2874 6.28731 -8.95097
130 1 4.70602 7.85784 7.85912 -8.95854
131 1 6.27542 6.27597 6.27638 -8.92838
132 1 7.81821 7.82215 7.82503 -8.84558
133 1 9.43322 6.27991 6.28337 -8.94923
134 1 11.0233 7.84944 7.83383 -8.8971
135 1 12.5867 6.2778 6.28131 -8.95217
136 1 14.1587 7.85803 7.86087 -8.94967
137 1 15.7279 6.28688 6.28844 -8.95047
138 1 17.2988 7.86147 7.86276 -8.95091
139 1 18.8701 6.28901 6.28962 -8.9501
140 1 20.4416 7.86183 7.86217 -8.95011
141 1 22.0138 9.43456 6.28929 -8.94991
142 1 3.14315 9.43523 6.2889 -8.94972
143 1 6.28609 9.43687 6.28834 -8.95146
144 1 9.42191 9.41197 6.28391 -8.91009
145 1 12.6211 9.40069 6.25012 -8.86002
146 1 15.7352 9.43185 6.28533 -8.95742
147 1 18.8718 9.43421 6.28921 -8.95168
148 1 -0.000369567 1.66274e-15 9.43451 -8.94955
149 1 3.14379 1.21918e-15 9.43447 -8.94945
150 1 6.2886 3.97016e-16 9.4343 -8.95038
151 1 9.43469 9.31787e-16 9.43431 -8.94855
152 1 12.58 1.59714e-16 9.43428 -8.94948
153 1 15.7248 -1.27196e-16 9.43446 -8.94964
154 1 18.8693 1.16605e-15 9.4345 -8.94956
155 1 22.0133 3.14423 9.4345 -8.94952
156 1 3.14292 3.14326 9.43445 -8.94946
157 1 6.28662 3.14021 9.4341 -8.94936
158 1 9.43422 3.14299 9.4342 -8.9464
159 1 12.5802 3.14328 9.43398 -8.94875
160 1 15.7252 3.1437 9.43443 -8.94959
161 1 18.8694 3.14422 9.4345 -8.94955
177 1 4.71577 1.57103 11.0073 -8.94933
180 1 14.1525 1.57175 11.0068 -8.94936
184 1 4.71273 4.71303 11.0084 -8.94763
183 1 1.5705 4.71605 11.0074 -8.94929
3 1 3.14454 4.31521e-16 -0.000207682 -8.94961
176 1 1.57159 1.57194 11.0071 -8.94949
343 1 18.87 9.43433 18.8696 -8.94948
178 1 7.86156 1.57019 11.0069 -8.95163
179 1 11.0073 1.57113 11.0066 -8.94983
342 1 15.7261 9.43391 18.8709 -8.94936
341 1 12.5811 9.43293 18.8744 -8.95133
182 1 20.4414 1.57214 11.007 -8.94955
340 1 9.43309 9.43337 18.8723 -8.94748
339 1 6.28888 9.43463 18.8698 -8.94966
185 1 7.8578 4.70668 11.0076 -8.95824
186 1 11.0075 4.71244 11.0061 -8.95165
338 1 3.14425 9.43449 18.8696 -8.94952
337 1 6.58298e-05 9.43445 18.8694 -8.94957
336 1 20.4419 7.86192 20.4415 -8.94954
190 1 1.56973 7.86174 11.0073 -8.95198
191 1 4.70619 7.85803 11.0095 -8.95951
192 1 7.8171 7.8205 11.0391 -8.87816
193 1 11.0298 7.84583 11.026 -8.94769
194 1 14.157 7.85975 11.0044 -8.95484
195 1 17.2985 7.86138 11.0064 -8.95029
196 1 20.4416 7.8618 11.0069 -8.95005
197 1 22.0135 2.62346e-16 12.5795 -8.94954
198 1 1.57166 1.57198 14.1523 -8.94948
199 1 3.14386 6.41277e-16 12.5798 -8.94938
200 1 4.71598 1.57112 14.1529 -8.94993
201 1 6.28891 -3.43694e-16 12.5799 -8.95061
202 1 7.86165 1.57082 14.1529 -8.94986
203 1 9.43471 1.16714e-15 12.5798 -8.95102
204 1 11.0075 1.57088 14.1528 -8.9497
205 1 12.5798 1.65367e-15 12.5795 -8.9504
206 1 14.1526 1.57115 14.1523 -8.95069
207 1 15.7248 1.60747e-15 12.5793 -8.94951
208 1 17.2971 1.57199 14.1519 -8.94967
209 1 18.8693 8.90195e-16 12.5794 -8.94953
210 1 20.4414 1.57217 14.1519 -8.94952
211 1 -0.000588233 3.14426 12.5796 -8.94945
212 1 1.57065 4.71619 14.1529 -8.94968
213 1 3.14302 3.14329 12.5803 -8.94917
214 1 4.7124 4.71276 14.1563 -8.94436
215 1 6.28738 3.14044 12.5812 -8.95132
216 1 7.85978 4.71151 14.1555 -8.94847
217 1 9.43463 3.13976 12.5806 -8.95312
218 1 11.0084 4.71188 14.1553 -8.94602
219 1 12.5802 3.14166 12.5798 -8.95243
220 1 14.1556 4.71164 14.155 -8.94976
221 1 15.7251 3.14372 12.5792 -8.94947
222 1 17.2982 4.71591 14.1522 -8.9503
223 1 18.8694 3.14426 12.5794 -8.94941
224 1 20.4415 4.7167 14.1521 -8.94984
225 1 22.0129 6.28914 12.5798 -8.95027
226 1 1.57154 7.86216 14.1523 -8.94993
227 1 3.1401 6.28739 12.5816 -8.95078
228 1 4.7145 7.86197 14.1534 -8.95287
229 1 6.2759 6.27574 12.5919 -8.92832
230 1 7.85302 7.85141 14.1655 -8.9926
231 1 9.4342 6.27033 12.5842 -8.96331
232 1 11.0106 7.85459 14.1635 -9.00064
233 1 12.5868 6.2769 12.587 -8.95213
234 1 14.1664 7.84863 14.1652 -8.929
235 1 15.7274 6.28749 12.5796 -8.9508
236 1 17.3013 7.86008 14.1537 -8.95161
237 1 18.8701 6.28899 12.5794 -8.94981
238 1 20.4424 7.86177 14.1522 -8.95031
239 1 -0.000153652 9.43461 12.5797 -8.94972
240 1 3.14346 9.43534 12.5799 -8.94927
241 1 6.28788 9.43752 12.5796 -9.00301
242 1 9.41449 9.36432 12.5776 -9.19402
243 1 12.621 9.39835 12.6187 -8.90906
244 1 15.7332 9.43299 12.5827 -8.96078
245 1 18.8712 9.43446 12.5796 -8.95177
246 1 -0.000310729 2.59965e-16 15.7245 -8.94955
247 1 1.57182 1.57208 17.2972 -8.94918
248 1 3.14399 1.41191e-16 15.725 -8.94951
249 1 4.71662 1.57186 17.2975 -8.94954
250 1 6.28915 5.78357e-16 15.7251 -8.94961
251 1 7.86187 1.57182 17.2974 -8.94948
252 1 9.43456 3.57512e-16 15.7251 -8.94953
253 1 11.0071 1.57177 17.2975 -8.9495
254 1 12.5799 1.41536e-15 15.725 -8.9496
255 1 14.1523 1.57171 17.2974 -8.94953
256 1 15.7249 3.54512e-16 15.7247 -8.95004
257 1 17.2973 1.57182 17.2972 -8.94945
258 1 18.8693 -3.09289e-16 15.7243 -8.94968
259 1 20.4415 1.57216 17.2969 -8.94958
260 1 22.0134 3.14435 15.7247 -8.94955
261 1 1.57188 4.7169 17.2973 -8.94991
262 1 3.14316 3.14346 15.7258 -8.9482
263 1 4.71554 4.71574 17.2988 -8.94904
264 1 6.28843 3.14284 15.726 -8.94944
265 1 7.86138 4.71561 17.2985 -8.94947
266 1 9.43443 3.14281 15.7257 -8.94931
267 1 11.007 4.7154 17.2986 -8.9492
268 1 12.5802 3.1426 15.7257 -8.94921
269 1 14.1531 4.71495 17.2986 -8.94983
270 1 15.7258 3.14272 15.7255 -8.94936
271 1 17.2984 4.71555 17.2981 -8.94816
272 1 18.8696 3.14419 15.7245 -8.94983
273 1 20.442 4.71675 17.2971 -8.9496
274 1 -2.2646e-05 6.2894 15.7247 -8.94994
275 1 1.57204 7.86202 17.2972 -8.94949
276 1 3.14334 6.28923 15.7254 -8.95065
277 1 4.71629 7.86217 17.2977 -8.94983
278 1 6.28547 6.28572 15.7301 -8.94831
279 1 7.86036 7.86041 17.3006 -8.95215
280 1 9.43399 6.28555 15.7281 -8.94859
281 1 11.0064 7.86017 17.3014 -8.95059
282 1 12.5818 6.28468 15.7293 -8.95083
283 1 14.1562 7.85786 17.3031 -8.94802
284 1 15.7294 6.28485 15.7287 -8.94413
285 1 17.2989 7.86104 17.2982 -8.94971
286 1 18.8709 6.28857 15.7252 -8.94982
287 1 20.4422 7.86181 17.2972 -8.94957
288 1 22.014 9.43443 15.7248 -8.94961
289 1 3.14387 9.43462 15.7252 -8.94919
290 1 6.28868 9.43548 15.7253 -8.95015
291 1 9.43179 9.4304 15.7288 -8.99977
292 1 12.5893 9.42528 15.7415 -8.98474
293 1 15.7291 9.43308 15.7283 -8.94995
294 1 18.871 9.43416 15.7253 -8.94948
295 1 22.0137 -1.8854e-17 18.8693 -8.94929
296 1 1.57212 1.57218 20.4415 -8.94938
297 1 3.14446 -4.38144e-16 18.8694 -8.94955
298 1 4.71699 1.57215 20.4416 -8.94958
299 1 6.28946 -8.26261e-16 18.8695 -8.94955
300 1 7.86196 1.57209 20.4416 -8.94955
301 1 9.43448 -4.77026e-16 18.8695 -8.94956
302 1 11.007 1.57206 20.4416 -8.94955
303 1 12.5795 -9.7068e-16 18.8695 -8.94955
304 1 14.152 1.57206 20.4416 -8.94954
305 1 15.7246 -9.2225e-16 18.8694 -8.94957
306 1 17.297 1.57208 20.4416 -8.94959
307 1 18.8694 -5.25507e-16 18.8693 -8.9494
308 1 20.4417 1.57223 20.4415 -8.94929
309 1 -3.75539e-05 3.14459 18.8693 -8.9496
310 1 1.57222 4.71711 20.4416 -8.94972
311 1 3.14416 3.14425 18.8697 -8.94938
312 1 4.71657 4.71667 20.4417 -8.94996
313 1 6.28923 3.14413 18.8698 -8.94956
314 1 7.86165 4.71641 20.4418 -8.94955
315 1 9.43438 3.14398 18.8697 -8.9495
316 1 11.0069 4.71631 20.4418 -8.94954
317 1 12.5796 3.14395 18.8698 -8.94948
318 1 14.1522 4.71626 20.4418 -8.94973
319 1 15.7249 3.14389 18.8697 -8.94962
320 1 17.2976 4.71627 20.4417 -8.94926
321 1 18.8697 3.14424 18.8694 -8.94917
322 1 20.4418 4.71696 20.4415 -8.94956
323 1 22.014 6.2895 18.8693 -8.94957
324 1 1.5722 7.86202 20.4416 -8.94954
325 1 3.14431 6.28955 18.8696 -8.94977
326 1 4.71668 7.86209 20.4417 -8.94961
327 1 6.28857 6.28879 18.8707 -8.95042
328 1 7.86126 7.86151 20.4424 -8.95016
329 1 9.43394 6.28827 18.8707 -8.94953
330 1 11.0066 7.86125 20.4425 -8.95002
331 1 12.5797 6.28822 18.8709 -8.95005
332 1 14.1531 7.86082 20.4426 -8.95053
333 1 15.7261 6.28778 18.8711 -8.94902
334 1 17.2978 7.86154 20.4417 -8.94941
335 1 18.87 6.28911 18.8696 -8.94958
49 1 18.8699 9.43434 22.0135 -8.94948
5 1 6.28951 -1.15228e-15 22.0137 -8.94953
9 1 12.5795 -6.50444e-16 22.0137 -8.94954
15 1 22.0139 3.1446 22.0137 -8.94958
17 1 3.14425 3.14431 22.0135 -8.94947
21 1 9.4344 3.14413 22.0136 -8.94951
23 1 12.5795 3.14411 22.0136 -8.94947
27 1 18.8697 3.14424 22.0137 -8.94909
29 1 8.73184e-05 6.28952 22.0137 -8.94952
33 1 6.2889 6.28908 22.0132 -8.95062
39 1 15.7256 6.28828 22.013 -8.94993
46 1 9.43405 9.43438 22.0144 -8.94937
47 1 12.5799 9.43409 22.0133 -8.95192
1 1 -0.000163545 4.57773e-16 22.0138 -8.94925
13 1 18.8694 1.5579e-16 22.0137 -8.94938
44 1 3.14438 9.4345 22.0137 -8.94954
181 1 17.2972 1.572 11.0069 -8.94952
344 1 1.57215 11.007 1.57192 -8.94956
345 1 4.71658 11.007 1.57171 -8.94962
346 1 7.86185 11.007 1.5727 -8.9481
347 1 11.0071 11.007 1.5723 -8.94684
348 1 14.1546 11.007 1.56863 -8.9495
349 1 17.2985 11.007 1.57098 -8.94939
350 1 20.4421 11.007 1.57187 -8.94951
351 1 22.014 12.5794 -0.000196313 -8.94956
352 1 1.57216 14.1519 1.57197 -8.94941
537 1 14.1525 20.4421 11.0068 -8.94936
354 1 4.71668 14.1516 1.57171 -8.94966
355 1 6.28912 12.5793 -6.82355e-05 -8.94936
356 1 7.86152 14.1522 1.57049 -8.9526
688 3 10.1464 11.007 9.40145 2.34316
358 1 11.0067 14.1531 1.56982 -8.95073
511 1 18.8694 18.8697 9.4345 -8.94955
360 1 14.154 14.1538 1.56875 -8.95174
361 1 15.7258 12.5799 -0.000987706 -8.94926
362 1 17.2984 14.1527 1.57102 -8.94911
510 1 15.7252 18.8702 9.43443 -8.94959
364 1 20.4421 14.1521 1.57191 -8.94944
509 1 12.5802 18.8706 9.43398 -8.94875
366 1 1.57199 17.297 1.57187 -8.94985
367 1 3.14444 15.7243 -0.000239761 -8.94974
368 1 4.71591 17.2978 1.5707 -8.94951
508 1 9.43422 18.8709 9.4342 -8.9464
370 1 7.86155 17.2979 1.571 -8.94911
371 1 9.43405 15.7253 -0.000691753 -8.94961
372 1 11.007 17.298 1.57106 -8.94933
373 1 12.5796 15.7253 -0.000791828 -8.9497
374 1 14.1526 17.2982 1.57099 -8.94968
507 1 6.28662 18.8737 9.4341 -8.94936
376 1 17.2983 17.2983 1.57116 -8.94814
377 1 18.8699 15.7247 -0.000333336 -8.94949
378 1 20.442 17.2971 1.57199 -8.94956
506 1 3.14292 18.8706 9.43445 -8.94946
380 1 1.57186 20.4418 1.57191 -8.94913
505 1 22.0133 18.8697 9.4345 -8.94952
382 1 4.71682 20.4419 1.57181 -8.94962
383 1 6.28932 18.8697 -0.000365462 -8.94949
384 1 7.86195 20.4419 1.57183 -8.94947
504 1 18.87 15.7251 9.43452 -8.94959
386 1 11.007 20.442 1.57185 -8.94951
503 1 15.7267 15.7265 9.43424 -8.94622
388 1 14.1521 20.442 1.57194 -8.9495
389 1 15.7247 18.8698 -0.000329681 -8.94967
390 1 17.2972 20.442 1.57194 -8.94948
502 1 12.5799 15.7267 9.43203 -8.9456
392 1 20.4415 20.4417 1.57221 -8.94952
393 1 1.57174 11.007 4.71634 -8.94949
394 1 4.71565 11.007 4.71543 -8.94609
395 1 7.86472 11.007 4.72013 -8.94582
396 1 11.0126 11.007 4.72088 -9.001
397 1 14.1634 11.007 4.70631 -8.9415
398 1 17.3016 11.007 4.71463 -8.94909
399 1 20.4427 11.007 4.71653 -8.94995
400 1 0.000157268 12.5795 3.14422 -8.94954
401 1 1.5716 14.1518 4.7166 -8.94981
402 1 3.14402 12.5793 3.1439 -8.94894
403 1 4.71471 14.1519 4.71532 -8.95142
404 1 6.28924 12.5786 3.14408 -8.94914
405 1 7.85612 14.1582 4.70661 -8.95504
406 1 9.43519 12.5794 3.1438 -8.95113
407 1 11.0078 14.1573 4.70755 -8.9518
408 1 12.5828 12.5809 3.13627 -8.9598
409 1 14.1656 14.1644 4.70356 -8.93033
410 1 15.7286 12.5809 3.14078 -8.9474
411 1 17.3014 14.154 4.71499 -8.95077
412 1 18.871 12.5798 3.14367 -8.94927
413 1 20.4425 14.1522 4.71671 -8.95018
414 1 22.0139 15.7245 3.14433 -8.94983
415 1 1.57069 17.2977 4.7161 -8.9497
416 1 3.1436 15.7246 3.14363 -8.95037
417 1 4.7125 17.3011 4.71261 -8.94413
418 1 6.28662 15.727 3.14008 -8.95031
419 1 7.86055 17.3006 4.71411 -8.94878
420 1 9.43381 15.727 3.14129 -8.94771
421 1 11.0075 17.3003 4.71432 -8.94764
422 1 12.5808 15.7272 3.14082 -8.94932
423 1 14.1552 17.3018 4.71394 -8.94966
424 1 15.729 15.7288 3.14041 -8.94455
425 1 17.2982 17.2981 4.71658 -8.95001
426 1 18.8708 15.7253 3.14381 -8.94967
427 1 20.4415 17.2972 4.71693 -8.9499
428 1 22.0134 18.8695 3.14435 -8.94955
429 1 1.57168 20.4419 4.71675 -8.94945
430 1 3.14326 18.8704 3.14329 -8.9481
431 1 4.71612 20.4427 4.71606 -8.95003
432 1 6.28886 18.8705 3.14336 -8.94957
433 1 7.86188 20.4426 4.71625 -8.94963
434 1 9.43442 18.8705 3.14352 -8.94935
435 1 11.0073 20.4426 4.71633 -8.94959
436 1 12.5798 18.8706 3.14365 -8.94912
437 1 14.1524 20.4426 4.7167 -8.95069
438 1 15.7256 18.871 3.14357 -8.9494
439 1 17.2971 20.4419 4.7171 -8.94966
440 1 18.8696 18.8697 3.14448 -8.94972
441 1 20.4414 20.4417 4.71709 -8.94951
442 1 1.57185 11.007 7.86171 -8.94766
443 1 4.71931 11.007 7.86245 -8.9407
444 1 7.88232 11.007 7.87106 -8.8735
445 1 11.0934 11.007 7.64015 -8.15571
446 1 14.1618 11.007 7.8534 -8.97178
447 1 17.2996 11.007 7.86225 -8.95149
448 1 20.4421 11.007 7.86215 -8.94956
449 1 22.0138 12.5793 6.28929 -8.94991
450 1 1.56967 14.1522 7.86172 -8.95194
451 1 3.14315 12.5787 6.2889 -8.94972
452 1 4.70602 14.1561 7.85912 -8.95854
453 1 6.28609 12.577 6.28834 -8.95146
454 1 7.81821 14.1917 7.82503 -8.84558
455 1 9.42191 12.6019 6.28391 -8.91009
456 1 11.0233 14.1645 7.83383 -8.8971
457 1 12.6211 12.6132 6.25012 -8.86002
458 1 14.1587 14.1559 7.86087 -8.94967
459 1 15.7352 12.5821 6.28533 -8.95742
460 1 17.2988 14.1524 7.86276 -8.95091
461 1 18.8718 12.5797 6.28921 -8.95168
462 1 20.4416 14.1521 7.86217 -8.95011
463 1 22.0129 15.7247 6.28924 -8.95031
464 1 1.57049 17.2979 7.86161 -8.94933
465 1 3.14006 15.7265 6.28731 -8.95097
466 1 4.71265 17.301 7.86025 -8.94717
467 1 6.27542 15.7379 6.27638 -8.92838
468 1 7.85847 17.3058 7.86006 -8.95965
469 1 9.43322 15.734 6.28337 -8.94923
470 1 11.0064 17.2998 7.86108 -8.95244
471 1 12.5867 15.7361 6.28131 -8.95217
472 1 14.1533 17.299 7.86182 -8.94859
473 1 15.7279 15.727 6.28844 -8.95047
474 1 17.2978 17.2978 7.86199 -8.94896
475 1 18.8701 15.7249 6.28962 -8.9501
476 1 20.4414 17.2973 7.86196 -8.94957
477 1 -0.000588225 18.8696 6.28936 -8.94946
478 1 1.57159 20.442 7.86188 -8.9495
479 1 3.14304 18.8706 6.28866 -8.94909
480 1 4.71576 20.4429 7.86145 -8.9493
481 1 6.28755 18.8732 6.28765 -8.9517
482 1 7.86173 20.4434 7.86172 -8.95146
483 1 9.43457 18.8723 6.28818 -8.95042
484 1 11.0071 20.4424 7.86193 -8.94957
485 1 12.58 18.8718 6.28895 -8.95255
486 1 14.1525 20.4422 7.86193 -8.94946
487 1 15.7251 18.8703 6.2895 -8.94949
488 1 17.2972 20.4419 7.86203 -8.94954
489 1 18.8694 18.8696 6.28956 -8.94943
490 1 20.4414 20.4418 7.86202 -8.94955
491 1 22.0132 12.5793 9.43454 -8.94944
492 1 3.14204 12.5791 9.43439 -8.95107
493 1 6.28121 12.5884 9.43338 -8.97109
494 1 9.35619 12.8336 9.43145 -8.13427
495 1 12.5641 12.5821 9.42073 -8.93498
496 1 15.722 12.5785 9.43509 -8.94414
497 1 18.8694 12.5795 9.43474 -8.94793
498 1 -0.00118871 15.7249 9.43451 -8.95005
499 1 3.1398 15.7269 9.43444 -8.94924
500 1 6.27746 15.736 9.43351 -8.94075
501 1 9.42907 15.7236 9.43378 -9.00761
526 1 1.5705 17.2978 11.0074 -8.94929
527 1 4.71273 17.3009 11.0084 -8.94763
530 1 14.153 17.2985 11.0063 -8.94894
531 1 17.2978 17.2978 11.0069 -8.94896
532 1 20.4414 17.2973 11.007 -8.94956
534 1 4.71577 20.4429 11.0073 -8.94933
517 1 17.2969 11.007 11.0066 -8.94678
518 1 20.4417 11.007 11.0069 -8.94872
512 1 1.57189 11.007 11.0072 -8.94752
513 1 4.71977 11.007 11.0059 -8.94143
514 1 7.88157 11.007 10.9901 -8.90497
515 1 11.1492 11.007 11.132 -8.48873
516 1 14.1463 11.007 11.0146 -9.02378
391 1 18.8697 18.8697 22.0137 -8.94909
387 1 12.5795 18.8698 22.0136 -8.94947
519 1 1.56973 14.1522 11.0073 -8.95198
520 1 4.70619 14.1559 11.0095 -8.95951
521 1 7.8171 14.1934 11.0391 -8.87816
522 1 11.0298 14.1681 11.026 -8.94769
523 1 14.157 14.1541 11.0044 -8.95484
524 1 17.2985 14.1525 11.0064 -8.95029
525 1 20.4416 14.1521 11.0069 -8.95005
687 2 10.156 11.007 12.6417 0.849445
686 1 20.4417 20.4417 20.4415 -8.94929
528 1 7.8578 17.3072 11.0076 -8.95824
529 1 11.0075 17.3015 11.0061 -8.95165
685 1 18.8697 18.8697 18.8694 -8.94917
684 1 17.297 20.4418 20.4416 -8.94959
683 1 15.7249 18.87 18.8697 -8.94962
533 1 1.57159 20.442 11.0071 -8.94949
682 1 14.152 20.4418 20.4416 -8.94954
535 1 7.86156 20.4437 11.0069 -8.95163
536 1 11.0073 20.4428 11.0066 -8.94983
681 1 12.5796 18.8699 18.8698 -8.94948
680 1 11.007 20.4418 20.4416 -8.94955
539 1 20.4414 20.4418 11.007 -8.94955
540 1 1.57176 11.007 14.1526 -8.94936
541 1 4.71619 11.007 14.1532 -8.94551
542 1 7.86727 11.007 14.148 -8.97722
543 1 11.0383 11.007 14.224 -9.25878
544 1 14.1597 11.007 14.1623 -8.99138
545 1 17.3008 11.007 14.1542 -8.9481
546 1 20.4425 11.007 14.1524 -8.94982
547 1 -0.000153652 12.5793 12.5797 -8.94972
548 1 1.57154 14.1517 14.1523 -8.94993
549 1 3.14346 12.5786 12.5799 -8.94927
550 1 4.7145 14.1519 14.1534 -8.95287
551 1 6.28788 12.5764 12.5796 -9.00301
552 1 7.85302 14.1625 14.1655 -8.9926
553 1 9.41449 12.6496 12.5776 -9.19402
554 1 11.0106 14.1593 14.1635 -9.00064
555 1 12.621 12.6156 12.6187 -8.90906
556 1 14.1664 14.1653 14.1652 -8.929
557 1 15.7332 12.5809 12.5827 -8.96078
558 1 17.3013 14.1538 14.1537 -8.95161
559 1 18.8712 12.5794 12.5796 -8.95177
560 1 20.4424 14.1521 14.1522 -8.95031
561 1 22.0129 15.7248 12.5798 -8.95027
562 1 1.57065 17.2977 14.1529 -8.94968
563 1 3.1401 15.7265 12.5816 -8.95078
564 1 4.7124 17.3011 14.1563 -8.94436
565 1 6.2759 15.7382 12.5919 -8.92832
566 1 7.85978 17.3024 14.1555 -8.94847
567 1 9.4342 15.7436 12.5842 -8.96331
568 1 11.0084 17.302 14.1553 -8.94602
569 1 12.5868 15.737 12.587 -8.95213
570 1 14.1556 17.3023 14.155 -8.94976
571 1 15.7274 15.7264 12.5796 -8.9508
572 1 17.2982 17.298 14.1522 -8.9503
573 1 18.8701 15.7249 12.5794 -8.94981
574 1 20.4415 17.2972 14.1521 -8.94984
575 1 -0.000588233 18.8696 12.5796 -8.94945
576 1 1.57166 20.4419 14.1523 -8.94948
577 1 3.14302 18.8706 12.5803 -8.94917
578 1 4.71598 20.4428 14.1529 -8.94993
579 1 6.28738 18.8735 12.5812 -8.95132
580 1 7.86165 20.4431 14.1529 -8.94986
581 1 9.43463 18.8741 12.5806 -8.95312
582 1 11.0075 20.443 14.1528 -8.9497
583 1 12.5802 18.8722 12.5798 -8.95243
584 1 14.1526 20.4427 14.1523 -8.95069
585 1 15.7251 18.8702 12.5792 -8.94947
586 1 17.2971 20.4419 14.1519 -8.94967
587 1 18.8694 18.8696 12.5794 -8.94941
588 1 20.4414 20.4417 14.1519 -8.94952
589 1 1.57203 11.007 17.2973 -8.94958
590 1 4.71629 11.007 17.2978 -8.94912
591 1 7.86206 11.007 17.2975 -8.94779
592 1 11.0073 11.007 17.3121 -8.96811
593 1 14.1551 11.007 17.3025 -8.94873
594 1 17.2988 11.007 17.2984 -8.94924
595 1 20.4422 11.007 17.2972 -8.94955
596 1 22.014 12.5795 15.7248 -8.94961
597 1 1.57204 14.1519 17.2972 -8.94949
598 1 3.14387 12.5793 15.7252 -8.94919
599 1 4.71629 14.1517 17.2977 -8.94983
600 1 6.28868 12.5784 15.7253 -8.95015
601 1 7.86036 14.1535 17.3006 -8.95215
602 1 9.43179 12.5835 15.7288 -8.99977
603 1 11.0064 14.1537 17.3014 -8.95059
604 1 12.5893 12.5886 15.7415 -8.98474
605 1 14.1562 14.156 17.3031 -8.94802
606 1 15.7291 12.5808 15.7283 -8.94995
607 1 17.2989 14.1529 17.2982 -8.94971
608 1 18.871 12.5797 15.7253 -8.94948
609 1 20.4422 14.1521 17.2972 -8.94957
610 1 -2.2646e-05 15.7245 15.7247 -8.94994
611 1 1.57188 17.297 17.2973 -8.94991
612 1 3.14334 15.7247 15.7254 -8.95065
613 1 4.71554 17.2982 17.2988 -8.94904
614 1 6.28547 15.7282 15.7301 -8.94831
615 1 7.86138 17.2983 17.2985 -8.94947
616 1 9.43399 15.7284 15.7281 -8.94859
617 1 11.007 17.2985 17.2986 -8.9492
618 1 12.5818 15.7292 15.7293 -8.95083
619 1 14.1531 17.299 17.2986 -8.94983
620 1 15.7294 15.7291 15.7287 -8.94413
621 1 17.2984 17.2984 17.2981 -8.94816
622 1 18.8709 15.7253 15.7252 -8.94982
623 1 20.442 17.2972 17.2971 -8.9496
624 1 22.0134 18.8696 15.7247 -8.94955
625 1 1.57182 20.4418 17.2972 -8.94918
626 1 3.14316 18.8704 15.7258 -8.9482
627 1 4.71662 20.442 17.2975 -8.94954
628 1 6.28843 18.8711 15.726 -8.94944
629 1 7.86187 20.4421 17.2974 -8.94948
630 1 9.43443 18.8711 15.7257 -8.94931
631 1 11.0071 20.4421 17.2975 -8.9495
632 1 12.5802 18.8713 15.7257 -8.94921
633 1 14.1523 20.4422 17.2974 -8.94953
634 1 15.7258 18.8712 15.7255 -8.94936
635 1 17.2973 20.4421 17.2972 -8.94945
636 1 18.8696 18.8697 15.7245 -8.94983
637 1 20.4415 20.4417 17.2969 -8.94958
638 1 1.57218 11.007 20.4416 -8.94958
639 1 4.71661 11.007 20.4417 -8.94965
640 1 7.8614 11.007 20.4423 -8.94872
641 1 11.0066 11.007 20.4448 -8.95222
642 1 14.1532 11.007 20.4425 -8.9499
643 1 17.2978 11.007 20.4417 -8.94944
644 1 20.4419 11.007 20.4416 -8.94955
645 1 6.58298e-05 12.5794 18.8694 -8.94957
646 1 1.5722 14.1519 20.4416 -8.94954
647 1 3.14425 12.5794 18.8696 -8.94952
648 1 4.71668 14.1518 20.4417 -8.94961
649 1 6.28888 12.5793 18.8698 -8.94966
650 1 7.86126 14.1524 20.4424 -8.95016
651 1 9.43309 12.5805 18.8723 -8.94748
652 1 11.0066 14.1527 20.4425 -8.95002
653 1 12.5811 12.581 18.8744 -8.95133
654 1 14.1531 14.1531 20.4426 -8.95053
655 1 15.7261 12.58 18.8709 -8.94936
656 1 17.2978 14.1524 20.4417 -8.94941
657 1 18.87 12.5796 18.8696 -8.94948
658 1 20.4419 14.152 20.4415 -8.94954
659 1 22.014 15.7244 18.8693 -8.94957
660 1 1.57222 17.2968 20.4416 -8.94972
661 1 3.14431 15.7243 18.8696 -8.94977
662 1 4.71657 17.2972 20.4417 -8.94996
663 1 6.28857 15.7251 18.8707 -8.95042
664 1 7.86165 17.2975 20.4418 -8.94955
665 1 9.43394 15.7256 18.8707 -8.94953
666 1 11.0069 17.2976 20.4418 -8.94954
667 1 12.5797 15.7257 18.8709 -8.95005
668 1 14.1522 17.2976 20.4418 -8.94973
669 1 15.7261 15.7261 18.8711 -8.94902
670 1 17.2976 17.2976 20.4417 -8.94926
671 1 18.87 15.7248 18.8696 -8.94958
672 1 20.4418 17.2969 20.4415 -8.94956
673 1 -3.75539e-05 18.8693 18.8693 -8.9496
674 1 1.57212 20.4417 20.4415 -8.94938
675 1 3.14416 18.8697 18.8697 -8.94938
676 1 4.71699 20.4418 20.4416 -8.94958
677 1 6.28923 18.8698 18.8698 -8.94956
678 1 7.86196 20.4418 20.4416 -8.94955
679 1 9.43438 18.8699 18.8697 -8.9495
357 1 9.43405 12.5795 22.0144 -8.94937
359 1 12.5799 12.5798 22.0133 -8.95192
363 1 18.8699 12.5796 22.0135 -8.94948
365 1 8.73184e-05 15.7244 22.0137 -8.94952
369 1 6.2889 15.7248 22.0132 -8.95062
375 1 15.7256 15.7256 22.013 -8.94993
379 1 22.0139 18.8693 22.0137 -8.94958
381 1 3.14425 18.8696 22.0135 -8.94947
385 1 9.4344 18.8698 22.0136 -8.94951
353 1 3.14438 12.5794 22.0137 -8.94954
538 1 17.2972 20.4419 11.0069 -8.94952
