ITEM: TIMESTEP
56
ITEM: NUMBER OF ATOMS
688
ITEM: BOX BOUNDS pp pp pp
0.0000000000000000e+00 2.2013900999999997e+01
0.0000000000000000e+00 2.2013900999999997e+01
0.0000000000000000e+00 2.2013900999999997e+01
ITEM: ATOMS id type x y z c_pot
189 1 20.4415 4.71725 11.007 -8.94963
2 1 1.57241 1.57241 1.57241 -8.94959
175 1 18.8694 9.43438 9.43453 -8.94923
4 1 4.71727 1.57242 1.57242 -8.94968
174 1 15.7251 9.43396 9.43476 -8.94554
6 1 7.86211 1.57241 1.57241 -8.94963
7 1 9.43453 4.35924e-17 -6.33911e-07 -8.94964
8 1 11.007 1.57241 1.57241 -8.94964
173 1 12.574 9.43217 9.42791 -8.93098
10 1 14.1518 1.57242 1.57242 -8.94963
11 1 15.7242 7.20047e-16 8.18158e-09 -8.94964
12 1 17.2966 1.57241 1.57241 -8.94961
188 1 17.2967 4.71716 11.007 -8.94952
14 1 20.4415 1.57242 1.57242 -8.94964
172 1 9.34841 9.21211 9.43503 -8.12807
16 1 1.57242 4.71726 1.57242 -8.94967
171 1 6.27838 9.43027 9.43353 -8.97013
18 1 4.71718 4.71718 1.57228 -8.94956
19 1 6.28969 3.14484 -4.05051e-06 -8.94964
20 1 7.8621 4.7172 1.57234 -8.94953
170 1 3.14292 9.4347 9.43443 -8.95187
22 1 11.007 4.71719 1.57233 -8.94963
169 1 22.0137 9.43453 9.43452 -8.95
24 1 14.1518 4.71722 1.57238 -8.94982
25 1 15.7242 3.14484 -2.85773e-06 -8.94969
26 1 17.2967 4.71716 1.57233 -8.94924
168 1 18.8692 6.28958 9.43451 -8.94957
28 1 20.4415 4.71726 1.57241 -8.94962
167 1 15.725 6.28887 9.43437 -8.94763
30 1 1.57241 7.86211 1.57241 -8.94962
31 1 3.14484 6.28969 5.75382e-07 -8.94965
32 1 4.71723 7.86213 1.57237 -8.94967
166 1 12.5792 6.28885 9.43405 -8.94937
34 1 7.86192 7.86193 1.57179 -8.95072
35 1 9.43452 6.28961 -8.66779e-05 -8.9496
36 1 11.0068 7.86185 1.57182 -8.94965
37 1 12.5794 6.28964 -6.45834e-05 -8.94959
38 1 14.1522 7.8617 1.57156 -8.95039
165 1 9.43224 6.28594 9.43459 -8.99863
40 1 17.2967 7.86209 1.57237 -8.94971
41 1 18.8691 6.28969 -4.77701e-06 -8.94968
42 1 20.4415 7.86211 1.57242 -8.94963
43 1 22.0139 9.43453 -6.07721e-07 -8.94964
187 1 14.1521 4.71674 11.0067 -8.94983
45 1 6.28964 9.43454 -2.82449e-05 -8.94967
164 1 6.28527 6.28514 9.43392 -8.94438
163 1 3.14399 6.28928 9.43454 -8.94937
48 1 15.7243 9.43452 -9.54548e-05 -8.94953
162 1 -8.19209e-05 6.28964 9.43453 -8.94971
50 1 -3.08991e-07 1.10646e-16 3.14484 -8.94964
51 1 1.57242 1.57242 4.71726 -8.94966
52 1 3.14482 -1.84599e-16 3.14482 -8.9496
53 1 4.71718 1.5723 4.71718 -8.94965
54 1 6.28969 1.1483e-15 3.14484 -8.94963
55 1 7.86212 1.57236 4.71722 -8.94959
56 1 9.43453 1.41174e-15 3.14483 -8.94964
57 1 11.007 1.57233 4.7172 -8.9496
58 1 12.5794 8.20949e-16 3.14483 -8.94962
59 1 14.1518 1.57231 4.71721 -8.94979
60 1 15.7242 8.93687e-16 3.14483 -8.94965
61 1 17.2966 1.57242 4.71727 -8.94965
62 1 18.8691 7.32498e-16 3.14484 -8.94964
63 1 20.4415 1.57242 4.71726 -8.94963
64 1 22.0139 3.14483 3.14483 -8.94962
65 1 1.57229 4.71719 4.71719 -8.94961
66 1 3.14475 3.14475 3.14474 -8.94925
67 1 4.71641 4.71641 4.71639 -8.94692
68 1 6.28969 3.1448 3.1448 -8.94981
69 1 7.86213 4.71682 4.71691 -8.94985
70 1 9.43452 3.14475 3.14477 -8.94963
71 1 11.007 4.71665 4.71676 -8.94879
72 1 12.5794 3.14476 3.14478 -8.94953
73 1 14.1523 4.71624 4.71676 -8.94988
74 1 15.7243 3.1447 3.14476 -8.94957
75 1 17.2967 4.71721 4.71725 -8.94981
76 1 18.8691 3.14484 3.14484 -8.94967
77 1 20.4415 4.71726 4.71726 -8.94965
78 1 22.0139 6.28968 3.14483 -8.94965
79 1 1.57235 7.86211 4.71722 -8.94961
80 1 3.14479 6.28968 3.1448 -8.94985
81 1 4.71687 7.86219 4.71695 -8.95047
82 1 6.28916 6.28918 3.14382 -8.94986
83 1 7.8599 7.85999 4.71224 -8.95381
84 1 9.43446 6.28918 3.14422 -8.94875
85 1 11.0062 7.86045 4.7139 -8.951
86 1 12.5793 6.28933 3.1444 -8.94986
87 1 14.1577 7.85617 4.71138 -8.93385
88 1 15.7251 6.2888 3.14398 -8.9469
89 1 17.2975 7.86171 4.71687 -8.95022
90 1 18.8692 6.28961 3.14477 -8.94963
91 1 20.4416 7.86208 4.71723 -8.94977
92 1 -4.99199e-07 9.43453 3.14483 -8.94963
93 1 3.14476 9.43452 3.14476 -8.94951
94 1 6.28947 9.43478 3.14452 -8.94964
95 1 9.43408 9.43417 3.14336 -8.94968
96 1 12.5804 9.43361 3.14047 -8.95619
97 1 15.7247 9.43437 3.14431 -8.94912
98 1 18.8692 9.43452 3.14478 -8.94955
99 1 22.0139 8.43542e-16 6.28969 -8.94964
100 1 1.57242 1.57242 7.86211 -8.94966
101 1 3.14483 4.5181e-16 6.28968 -8.94961
102 1 4.71718 1.57232 7.86208 -8.94952
103 1 6.28963 1.88382e-15 6.28962 -8.94992
104 1 7.86204 1.57193 7.86203 -8.95061
105 1 9.43455 2.01141e-15 6.28964 -8.94974
106 1 11.007 1.57216 7.86203 -8.94975
107 1 12.5794 6.08367e-16 6.28965 -8.94985
108 1 14.1518 1.57235 7.86211 -8.9496
109 1 15.7242 7.63921e-16 6.28969 -8.94963
110 1 17.2966 1.57241 7.8621 -8.94962
111 1 18.8691 1.02632e-15 6.28968 -8.94963
112 1 20.4415 1.57242 7.86211 -8.94964
113 1 -5.3393e-06 3.14484 6.28969 -8.94963
114 1 1.57232 4.7172 7.8621 -8.94957
115 1 3.14478 3.14478 6.28966 -8.94968
116 1 4.71666 4.71663 7.86187 -8.94891
117 1 6.28931 3.14397 6.28929 -8.95039
118 1 7.8611 4.71297 7.86117 -8.95618
119 1 9.43468 3.14423 6.28942 -8.94964
120 1 11.0073 4.71571 7.86169 -8.94992
121 1 12.5795 3.1442 6.28952 -8.95072
122 1 14.1521 4.71681 7.86227 -8.94955
123 1 15.7243 3.14478 6.2897 -8.94965
124 1 17.2967 4.71716 7.86207 -8.94947
125 1 18.8691 3.14483 6.28968 -8.94962
126 1 20.4415 4.71725 7.8621 -8.94962
127 1 22.0138 6.28965 6.28965 -8.94977
128 1 1.57183 7.86201 7.86202 -8.95062
129 1 3.14391 6.28925 6.28925 -8.9501
130 1 4.71231 7.86063 7.86074 -8.95527
131 1 6.28387 6.28391 6.28375 -8.93389
132 1 7.83125 7.83403 7.83414 -8.85713
133 1 9.43518 6.28634 6.28801 -8.95071
134 1 11.0165 7.85667 7.84821 -8.913
135 1 12.5816 6.28465 6.28752 -8.9537
136 1 14.1548 7.86026 7.86286 -8.94843
137 1 15.7247 6.2893 6.28966 -8.95009
138 1 17.2972 7.86184 7.86224 -8.94976
139 1 18.8691 6.28964 6.28969 -8.94964
140 1 20.4415 7.86207 7.8621 -8.94977
141 1 22.0139 9.43452 6.28964 -8.94975
142 1 3.14429 9.43466 6.28939 -8.94948
143 1 6.28749 9.43617 6.28854 -8.95069
144 1 9.42499 9.42137 6.28497 -8.91557
145 1 12.6103 9.40673 6.26093 -8.85882
146 1 15.729 9.43339 6.28844 -8.95573
147 1 18.8696 9.43446 6.28961 -8.95061
148 1 -6.23185e-07 8.83613e-16 9.43453 -8.94963
149 1 3.14483 1.61389e-15 9.43453 -8.94964
150 1 6.2896 2.15378e-15 9.43451 -8.94978
151 1 9.43456 1.38464e-15 9.43452 -8.95
152 1 12.5794 4.56671e-16 9.43451 -8.94962
153 1 15.7242 -6.3143e-16 9.43453 -8.94967
154 1 18.8691 1.16358e-15 9.43453 -8.94963
155 1 22.0139 3.14484 9.43453 -8.94963
156 1 3.14478 3.14479 9.43454 -8.94973
157 1 6.28918 3.14389 9.43444 -8.94921
158 1 9.43469 3.14346 9.4345 -8.94954
159 1 12.5796 3.14448 9.43443 -8.9491
160 1 15.7243 3.14469 9.43451 -8.94963
161 1 18.8691 3.14483 9.43453 -8.94966
177 1 4.71719 1.57234 11.007 -8.94954
180 1 14.1518 1.57235 11.0069 -8.94966
184 1 4.71671 4.71676 11.0072 -8.9493
183 1 1.57233 4.7172 11.007 -8.94954
3 1 3.14484 7.17285e-16 -2.24856e-07 -8.94965
176 1 1.57242 1.57242 11.007 -8.94965
343 1 18.8691 9.43453 18.8691 -8.94963
178 1 7.86199 1.57183 11.007 -8.9507
179 1 11.0071 1.57204 11.007 -8.94981
342 1 15.7243 9.43456 18.8691 -8.94971
341 1 12.58 9.43385 18.8706 -8.9501
182 1 20.4415 1.57242 11.007 -8.94964
340 1 9.4339 9.4339 18.8702 -8.94825
339 1 6.28951 9.43452 18.8693 -8.94988
185 1 7.86057 4.71217 11.0074 -8.95522
186 1 11.0078 4.7149 11.0068 -8.94904
338 1 3.14481 9.43452 18.8691 -8.94963
337 1 -2.56978e-06 9.43453 18.8691 -8.94963
336 1 20.4415 7.86211 20.4415 -8.94963
190 1 1.57184 7.86203 11.007 -8.95068
191 1 4.71218 7.86087 11.0082 -8.95652
192 1 7.82844 7.83197 11.0312 -8.88811
193 1 11.0197 7.85428 11.0185 -8.96501
194 1 14.1553 7.86006 11.0049 -8.9509
195 1 17.2974 7.86172 11.0068 -8.9496
196 1 20.4415 7.86206 11.007 -8.94981
197 1 22.0139 -6.58799e-16 12.5794 -8.94964
198 1 1.57242 1.57242 14.1518 -8.94967
199 1 3.14483 -6.85239e-16 12.5794 -8.94962
200 1 4.71718 1.57231 14.1519 -8.94964
201 1 6.28962 1.16581e-15 12.5794 -8.94987
202 1 7.86206 1.57225 14.1519 -8.94969
203 1 9.43455 -4.082e-16 12.5794 -8.9502
204 1 11.007 1.57223 14.1519 -8.94961
205 1 12.5794 -5.29386e-16 12.5794 -8.94987
206 1 14.1519 1.57229 14.1518 -8.94983
207 1 15.7242 5.65761e-16 12.5794 -8.94964
208 1 17.2966 1.57242 14.1518 -8.94964
209 1 18.8691 4.30705e-16 12.5794 -8.94963
210 1 20.4415 1.57242 14.1518 -8.94963
211 1 -5.71504e-06 3.14484 12.5794 -8.94963
212 1 1.57229 4.71719 14.1519 -8.94961
213 1 3.14478 3.14478 12.5794 -8.94971
214 1 4.7164 4.71646 14.1526 -8.94707
215 1 6.28928 3.14396 12.5798 -8.95016
216 1 7.86161 4.71597 14.1526 -8.94935
217 1 9.43469 3.14332 12.5796 -8.95177
218 1 11.0074 4.71599 14.1527 -8.94734
219 1 12.5796 3.14405 12.5795 -8.9508
220 1 14.1525 4.71601 14.1523 -8.95002
221 1 15.7243 3.14475 12.5793 -8.94963
222 1 17.2967 4.7172 14.1518 -8.94986
223 1 18.8691 3.14483 12.5794 -8.94963
224 1 20.4415 4.71725 14.1518 -8.94965
225 1 22.0138 6.28965 12.5794 -8.94978
226 1 1.57233 7.8621 14.1518 -8.94966
227 1 3.14392 6.28925 12.5798 -8.95002
228 1 4.71657 7.86227 14.152 -8.95162
229 1 6.28397 6.28402 12.5852 -8.93377
230 1 7.85635 7.8569 14.1607 -8.98856
231 1 9.43501 6.27881 12.5809 -8.96329
232 1 11.0082 7.85985 14.1563 -9.00223
233 1 12.5818 6.28378 12.5816 -8.95418
234 1 14.159 7.85505 14.158 -8.93176
235 1 15.7248 6.28919 12.5793 -8.95003
236 1 17.2978 7.86159 14.1523 -8.95037
237 1 18.8692 6.28962 12.5794 -8.94958
238 1 20.4416 7.86207 14.1518 -8.94983
239 1 -3.44596e-05 9.43452 12.5794 -8.94976
240 1 3.14419 9.43462 12.5797 -8.94907
241 1 6.28761 9.43711 12.5803 -9.00199
242 1 9.40885 9.37693 12.5811 -9.20006
243 1 12.6144 9.40303 12.6088 -8.90328
244 1 15.7298 9.43329 12.5806 -8.9572
245 1 18.8697 9.43448 12.5794 -8.95089
246 1 -3.18845e-07 -2.09906e-16 15.7242 -8.94964
247 1 1.57241 1.57242 17.2966 -8.9496
248 1 3.14483 1.24816e-15 15.7242 -8.94961
249 1 4.71725 1.5724 17.2967 -8.94965
250 1 6.28967 7.58731e-16 15.7242 -8.94966
251 1 7.86211 1.57241 17.2966 -8.94964
252 1 9.43453 7.41295e-16 15.7242 -8.94962
253 1 11.0069 1.57241 17.2967 -8.94965
254 1 12.5794 1.16545e-15 15.7242 -8.94964
255 1 14.1518 1.5724 17.2967 -8.94962
256 1 15.7242 1.89452e-15 15.7242 -8.94966
257 1 17.2967 1.5724 17.2967 -8.94961
258 1 18.8691 1.37295e-15 15.7242 -8.94964
259 1 20.4415 1.57242 17.2966 -8.94964
260 1 22.0139 3.14483 15.7242 -8.94962
261 1 1.57242 4.71726 17.2966 -8.9497
262 1 3.14475 3.14476 15.7243 -8.94929
263 1 4.71709 4.71708 17.2969 -8.94929
264 1 6.28959 3.14465 15.7244 -8.94973
265 1 7.86213 4.71717 17.2968 -8.94978
266 1 9.43453 3.1447 15.7243 -8.94957
267 1 11.0069 4.71714 17.2968 -8.94956
268 1 12.5794 3.14461 15.7244 -8.94953
269 1 14.1519 4.71709 17.2968 -8.94985
270 1 15.7243 3.14466 15.7243 -8.94957
271 1 17.2968 4.71715 17.2968 -8.94919
272 1 18.8691 3.14484 15.7242 -8.94968
273 1 20.4415 4.71725 17.2966 -8.94961
274 1 1.04582e-05 6.28968 15.7242 -8.94966
275 1 1.57238 7.86209 17.2967 -8.94962
276 1 3.14475 6.28968 15.7243 -8.95002
277 1 4.71703 7.86198 17.2968 -8.94936
278 1 6.28851 6.28852 15.7259 -8.94823
279 1 7.86151 7.86152 17.2981 -8.95082
280 1 9.43466 6.28889 15.7248 -8.94959
281 1 11.0066 7.86185 17.2975 -8.95015
282 1 12.5796 6.28851 15.725 -8.95092
283 1 14.153 7.86087 17.2984 -8.94818
284 1 15.7253 6.28864 15.7252 -8.94647
285 1 17.2968 7.8621 17.2967 -8.94993
286 1 18.8692 6.28959 15.7243 -8.94961
287 1 20.4415 7.86211 17.2966 -8.94965
288 1 22.0139 9.43452 15.7242 -8.94968
289 1 3.14453 9.43446 15.7244 -8.94968
290 1 6.28818 9.43442 15.7255 -8.94878
291 1 9.4312 9.43194 15.7273 -8.99924
292 1 12.585 9.42828 15.7328 -8.98394
293 1 15.7251 9.43447 15.7247 -8.95075
294 1 18.8692 9.43453 15.7243 -8.94962
295 1 22.0139 1.39652e-15 18.8691 -8.94963
296 1 1.57242 1.57242 20.4415 -8.94962
297 1 3.14484 -1.54917e-16 18.8691 -8.94964
298 1 4.71727 1.57242 20.4415 -8.94964
299 1 6.28969 -1.08173e-15 18.8691 -8.94964
300 1 7.86211 1.57242 20.4415 -8.94964
301 1 9.43453 -1.07714e-16 18.8691 -8.94964
302 1 11.007 1.57242 20.4415 -8.94964
303 1 12.5794 1.18724e-15 18.8691 -8.94964
304 1 14.1518 1.57242 20.4415 -8.94964
305 1 15.7242 9.93081e-16 18.8691 -8.94963
306 1 17.2966 1.57242 20.4415 -8.94964
307 1 18.8691 -2.63357e-16 18.8691 -8.94962
308 1 20.4415 1.57242 20.4415 -8.94963
309 1 1.42391e-06 3.14484 18.8691 -8.94964
310 1 1.57242 4.71726 20.4415 -8.94963
311 1 3.14482 3.14482 18.8691 -8.94957
312 1 4.71724 4.71724 20.4415 -8.94964
313 1 6.28969 3.14484 18.8691 -8.94968
314 1 7.86211 4.71724 20.4415 -8.94963
315 1 9.43453 3.14482 18.8691 -8.94964
316 1 11.007 4.71724 20.4415 -8.94964
317 1 12.5794 3.14483 18.8691 -8.94964
318 1 14.1518 4.71726 20.4415 -8.94969
319 1 15.7242 3.14483 18.8691 -8.94967
320 1 17.2967 4.71724 20.4415 -8.94956
321 1 18.8691 3.14483 18.8691 -8.94958
322 1 20.4415 4.71726 20.4415 -8.94964
323 1 22.0139 6.28968 18.8691 -8.94963
324 1 1.57242 7.86211 20.4415 -8.94964
325 1 3.14481 6.28967 18.8691 -8.9496
326 1 4.71723 7.8621 20.4415 -8.94965
327 1 6.28956 6.28956 18.8693 -8.94972
328 1 7.86198 7.86197 20.4416 -8.94978
329 1 9.43453 6.28953 18.8692 -8.94958
330 1 11.0069 7.86203 20.4415 -8.94964
331 1 12.5793 6.2896 18.8691 -8.94986
332 1 14.152 7.86193 20.4417 -8.94982
333 1 15.7244 6.2895 18.8693 -8.94929
334 1 17.2966 7.86212 20.4415 -8.94967
335 1 18.8691 6.28969 18.8691 -8.94969
49 1 18.8691 9.43453 22.0139 -8.94965
5 1 6.28969 -3.0538e-16 22.0139 -8.94963
9 1 12.5794 -1.10099e-15 22.0139 -8.94964
15 1 22.0139 3.14484 22.0139 -8.94964
17 1 3.14483 3.14483 22.0139 -8.94961
21 1 9.43453 3.14483 22.0139 -8.94964
23 1 12.5794 3.14483 22.0139 -8.94963
27 1 18.8691 3.14483 22.0139 -8.94958
29 1 -5.63302e-07 6.28969 22.0139 -8.94963
33 1 6.28962 6.28962 22.0138 -8.94976
39 1 15.7243 6.28959 22.0138 -8.94962
46 1 9.43439 9.4344 22.0138 -8.94975
47 1 12.5795 9.4344 22.0135 -8.95074
1 1 -1.11309e-06 4.50169e-16 22.0139 -8.94962
13 1 18.8691 4.98019e-16 22.0139 -8.94963
44 1 3.14483 9.43453 22.0139 -8.94962
181 1 17.2966 1.57241 11.007 -8.94962
344 1 1.57241 11.007 1.57241 -8.94965
345 1 4.71718 11.007 1.5723 -8.94961
346 1 7.86198 11.007 1.57224 -8.9491
347 1 11.0068 11.007 1.57116 -8.95
348 1 14.1522 11.007 1.5716 -8.94925
349 1 17.2967 11.007 1.57236 -8.9497
350 1 20.4415 11.007 1.57242 -8.94963
351 1 22.0139 12.5794 -6.07721e-07 -8.94964
352 1 1.57241 14.1518 1.57241 -8.94962
537 1 14.1518 20.4416 11.0069 -8.94966
354 1 4.71723 14.1518 1.57237 -8.94967
355 1 6.28964 12.5794 -2.82449e-05 -8.94967
356 1 7.86192 14.152 1.57179 -8.95072
688 3 10.1938 11.007 9.41173 2.41514
358 1 11.0068 14.1521 1.57182 -8.94965
511 1 18.8691 18.8691 9.43453 -8.94966
360 1 14.1522 14.1522 1.57156 -8.95039
361 1 15.7243 12.5794 -9.54548e-05 -8.94953
362 1 17.2967 14.1518 1.57237 -8.94971
510 1 15.7243 18.8692 9.43451 -8.94963
364 1 20.4415 14.1518 1.57242 -8.94963
509 1 12.5796 18.8694 9.43443 -8.9491
366 1 1.57242 17.2966 1.57242 -8.94967
367 1 3.14484 15.7242 5.75382e-07 -8.94965
368 1 4.71718 17.2967 1.57228 -8.94956
508 1 9.43469 18.8704 9.4345 -8.94954
370 1 7.8621 17.2967 1.57234 -8.94953
371 1 9.43452 15.7243 -8.66779e-05 -8.9496
372 1 11.007 17.2967 1.57233 -8.94963
373 1 12.5794 15.7243 -6.45834e-05 -8.94959
374 1 14.1518 17.2967 1.57238 -8.94982
507 1 6.28918 18.87 9.43444 -8.94921
376 1 17.2967 17.2967 1.57233 -8.94924
377 1 18.8691 15.7242 -4.77701e-06 -8.94968
378 1 20.4415 17.2966 1.57241 -8.94962
506 1 3.14478 18.8691 9.43454 -8.94973
380 1 1.57241 20.4415 1.57241 -8.94959
505 1 22.0139 18.8691 9.43453 -8.94963
382 1 4.71727 20.4415 1.57242 -8.94968
383 1 6.28969 18.8691 -4.05051e-06 -8.94964
384 1 7.86211 20.4415 1.57241 -8.94963
504 1 18.8692 15.7243 9.43451 -8.94957
386 1 11.007 20.4415 1.57241 -8.94964
503 1 15.725 15.725 9.43437 -8.94763
388 1 14.1518 20.4415 1.57242 -8.94963
389 1 15.7242 18.8691 -2.85773e-06 -8.94969
390 1 17.2966 20.4415 1.57241 -8.94961
502 1 12.5792 15.725 9.43405 -8.94937
392 1 20.4415 20.4415 1.57242 -8.94964
393 1 1.57232 11.007 4.71718 -8.94958
394 1 4.71671 11.007 4.71658 -8.94795
395 1 7.86279 11.007 4.71746 -8.94879
396 1 11.0093 11.007 4.71342 -8.99725
397 1 14.1557 11.007 4.7133 -8.94523
398 1 17.2974 11.007 4.71686 -8.94924
399 1 20.4416 11.007 4.71722 -8.94969
400 1 -4.99199e-07 12.5794 3.14483 -8.94963
401 1 1.57235 14.1518 4.71722 -8.94961
402 1 3.14476 12.5794 3.14476 -8.94951
403 1 4.71687 14.1517 4.71695 -8.95047
404 1 6.28947 12.5791 3.14452 -8.94964
405 1 7.8599 14.1539 4.71224 -8.95381
406 1 9.43408 12.5797 3.14336 -8.94968
407 1 11.0062 14.1534 4.7139 -8.951
408 1 12.5804 12.5803 3.14047 -8.95619
409 1 14.1577 14.1577 4.71138 -8.93385
410 1 15.7247 12.5795 3.14431 -8.94912
411 1 17.2975 14.1522 4.71687 -8.95022
412 1 18.8692 12.5794 3.14478 -8.94955
413 1 20.4416 14.1518 4.71723 -8.94977
414 1 22.0139 15.7242 3.14483 -8.94965
415 1 1.57229 17.2967 4.71719 -8.94961
416 1 3.14479 15.7242 3.1448 -8.94985
417 1 4.71641 17.2975 4.71639 -8.94692
418 1 6.28916 15.7247 3.14382 -8.94986
419 1 7.86213 17.2971 4.71691 -8.94985
420 1 9.43446 15.7247 3.14422 -8.94875
421 1 11.007 17.2973 4.71676 -8.94879
422 1 12.5793 15.7246 3.1444 -8.94986
423 1 14.1523 17.2977 4.71676 -8.94988
424 1 15.7251 15.7251 3.14398 -8.9469
425 1 17.2967 17.2967 4.71725 -8.94981
426 1 18.8692 15.7243 3.14477 -8.94963
427 1 20.4415 17.2966 4.71726 -8.94965
428 1 22.0139 18.8691 3.14483 -8.94962
429 1 1.57242 20.4415 4.71726 -8.94966
430 1 3.14475 18.8692 3.14474 -8.94925
431 1 4.71718 20.4416 4.71718 -8.94965
432 1 6.28969 18.8691 3.1448 -8.94981
433 1 7.86212 20.4415 4.71722 -8.94959
434 1 9.43452 18.8691 3.14477 -8.94963
435 1 11.007 20.4416 4.7172 -8.9496
436 1 12.5794 18.8691 3.14478 -8.94953
437 1 14.1518 20.4416 4.71721 -8.94979
438 1 15.7243 18.8692 3.14476 -8.94957
439 1 17.2966 20.4415 4.71727 -8.94965
440 1 18.8691 18.8691 3.14484 -8.94967
441 1 20.4415 20.4415 4.71726 -8.94963
442 1 1.57208 11.007 7.86193 -8.94913
443 1 4.71652 11.007 7.86124 -8.94331
444 1 7.87133 11.007 7.86572 -8.88933
445 1 11.0966 11.007 7.64571 -8.10692
446 1 14.162 11.007 7.85888 -8.97183
447 1 17.2984 11.007 7.8623 -8.95164
448 1 20.4416 11.007 7.86211 -8.94995
449 1 22.0139 12.5794 6.28964 -8.94975
450 1 1.57183 14.1519 7.86202 -8.95062
451 1 3.14429 12.5792 6.28939 -8.94948
452 1 4.71231 14.1533 7.86074 -8.95527
453 1 6.28749 12.5777 6.28854 -8.95069
454 1 7.83125 14.1799 7.83414 -8.85713
455 1 9.42499 12.5925 6.28497 -8.91557
456 1 11.0165 14.1572 7.84821 -8.913
457 1 12.6103 12.6072 6.26093 -8.85882
458 1 14.1548 14.1536 7.86286 -8.94843
459 1 15.729 12.5805 6.28844 -8.95573
460 1 17.2972 14.1521 7.86224 -8.94976
461 1 18.8696 12.5794 6.28961 -8.95061
462 1 20.4415 14.1518 7.8621 -8.94977
463 1 22.0138 15.7243 6.28965 -8.94977
464 1 1.57232 17.2967 7.8621 -8.94957
465 1 3.14391 15.7246 6.28925 -8.9501
466 1 4.71666 17.2973 7.86187 -8.94891
467 1 6.28387 15.73 6.28375 -8.93389
468 1 7.8611 17.3009 7.86117 -8.95618
469 1 9.43518 15.7276 6.28801 -8.95071
470 1 11.0073 17.2982 7.86169 -8.94992
471 1 12.5816 15.7292 6.28752 -8.9537
472 1 14.1521 17.2971 7.86227 -8.94955
473 1 15.7247 15.7246 6.28966 -8.95009
474 1 17.2967 17.2967 7.86207 -8.94947
475 1 18.8691 15.7243 6.28969 -8.94964
476 1 20.4415 17.2967 7.8621 -8.94962
477 1 -5.3393e-06 18.8691 6.28969 -8.94963
478 1 1.57242 20.4415 7.86211 -8.94966
479 1 3.14478 18.8691 6.28966 -8.94968
480 1 4.71718 20.4416 7.86208 -8.94952
481 1 6.28931 18.8699 6.28929 -8.95039
482 1 7.86204 20.442 7.86203 -8.95061
483 1 9.43468 18.8697 6.28942 -8.94964
484 1 11.007 20.4417 7.86203 -8.94975
485 1 12.5795 18.8697 6.28952 -8.95072
486 1 14.1518 20.4415 7.86211 -8.9496
487 1 15.7243 18.8691 6.2897 -8.94965
488 1 17.2966 20.4415 7.8621 -8.94962
489 1 18.8691 18.8691 6.28968 -8.94962
490 1 20.4415 20.4415 7.86211 -8.94964
491 1 22.0137 12.5794 9.43452 -8.95
492 1 3.14292 12.5792 9.43443 -8.95187
493 1 6.27838 12.5836 9.43353 -8.97013
494 1 9.34841 12.8018 9.43503 -8.12807
495 1 12.574 12.5817 9.42791 -8.93098
496 1 15.7251 12.5799 9.43476 -8.94554
497 1 18.8694 12.5795 9.43453 -8.94923
498 1 -8.19209e-05 15.7243 9.43453 -8.94971
499 1 3.14399 15.7246 9.43454 -8.94937
500 1 6.28527 15.7288 9.43392 -8.94438
501 1 9.43224 15.728 9.43459 -8.99863
526 1 1.57233 17.2967 11.007 -8.94954
527 1 4.71671 17.2971 11.0072 -8.9493
530 1 14.1521 17.2972 11.0067 -8.94983
531 1 17.2967 17.2967 11.007 -8.94952
532 1 20.4415 17.2967 11.007 -8.94963
534 1 4.71719 20.4416 11.007 -8.94954
517 1 17.2982 11.007 11.0067 -8.95019
518 1 20.4416 11.007 11.0069 -8.94988
512 1 1.57199 11.007 11.0071 -8.94939
513 1 4.71572 11.007 11.0075 -8.94509
514 1 7.86582 11.007 10.9971 -8.9137
515 1 11.1517 11.007 11.1398 -8.4493
516 1 14.1577 11.007 11.0119 -9.02419
391 1 18.8691 18.8691 22.0139 -8.94958
387 1 12.5794 18.8691 22.0139 -8.94963
519 1 1.57184 14.1519 11.007 -8.95068
520 1 4.71218 14.153 11.0082 -8.95652
521 1 7.82844 14.1819 11.0312 -8.88811
522 1 11.0197 14.1596 11.0185 -8.96501
523 1 14.1553 14.1538 11.0049 -8.9509
524 1 17.2974 14.1522 11.0068 -8.9496
525 1 20.4415 14.1518 11.007 -8.94981
687 2 10.1903 11.007 12.6111 0.913716
686 1 20.4415 20.4415 20.4415 -8.94963
528 1 7.86057 17.3017 11.0074 -8.95522
529 1 11.0078 17.299 11.0068 -8.94904
685 1 18.8691 18.8691 18.8691 -8.94958
684 1 17.2966 20.4415 20.4415 -8.94964
683 1 15.7242 18.8691 18.8691 -8.94967
533 1 1.57242 20.4415 11.007 -8.94965
682 1 14.1518 20.4415 20.4415 -8.94964
535 1 7.86199 20.4421 11.007 -8.9507
536 1 11.0071 20.4419 11.007 -8.94981
681 1 12.5794 18.8691 18.8691 -8.94964
680 1 11.007 20.4415 20.4415 -8.94964
539 1 20.4415 20.4415 11.007 -8.94964
540 1 1.57221 11.007 14.1519 -8.94978
541 1 4.71586 11.007 14.1526 -8.94888
542 1 7.85864 11.007 14.155 -8.97912
543 1 11.0315 11.007 14.2207 -9.25512
544 1 14.1548 11.007 14.1548 -8.99566
545 1 17.2975 11.007 14.1522 -8.9485
546 1 20.4416 11.007 14.1518 -8.94968
547 1 -3.44596e-05 12.5794 12.5794 -8.94976
548 1 1.57233 14.1518 14.1518 -8.94966
549 1 3.14419 12.5793 12.5797 -8.94907
550 1 4.71657 14.1516 14.152 -8.95162
551 1 6.28761 12.5768 12.5803 -9.00199
552 1 7.85635 14.157 14.1607 -8.98856
553 1 9.40885 12.637 12.5811 -9.20006
554 1 11.0082 14.154 14.1563 -9.00223
555 1 12.6144 12.6109 12.6088 -8.90328
556 1 14.159 14.1588 14.158 -8.93176
557 1 15.7298 12.5806 12.5806 -8.9572
558 1 17.2978 14.1523 14.1523 -8.95037
559 1 18.8697 12.5794 12.5794 -8.95089
560 1 20.4416 14.1518 14.1518 -8.94983
561 1 22.0138 15.7243 12.5794 -8.94978
562 1 1.57229 17.2967 14.1519 -8.94961
563 1 3.14392 15.7247 12.5798 -8.95002
564 1 4.7164 17.2974 14.1526 -8.94707
565 1 6.28397 15.7299 12.5852 -8.93377
566 1 7.86161 17.2979 14.1526 -8.94935
567 1 9.43501 15.7351 12.5809 -8.96329
568 1 11.0074 17.2979 14.1527 -8.94734
569 1 12.5818 15.7301 12.5816 -8.95418
570 1 14.1525 17.2979 14.1523 -8.95002
571 1 15.7248 15.7247 12.5793 -8.95003
572 1 17.2967 17.2967 14.1518 -8.94986
573 1 18.8692 15.7243 12.5794 -8.94958
574 1 20.4415 17.2966 14.1518 -8.94965
575 1 -5.71504e-06 18.8691 12.5794 -8.94963
576 1 1.57242 20.4415 14.1518 -8.94967
577 1 3.14478 18.8691 12.5794 -8.94971
578 1 4.71718 20.4416 14.1519 -8.94964
579 1 6.28928 18.8699 12.5798 -8.95016
580 1 7.86206 20.4417 14.1519 -8.94969
581 1 9.43469 18.8706 12.5796 -8.95177
582 1 11.007 20.4417 14.1519 -8.94961
583 1 12.5796 18.8698 12.5795 -8.9508
584 1 14.1519 20.4416 14.1518 -8.94983
585 1 15.7243 18.8691 12.5793 -8.94963
586 1 17.2966 20.4415 14.1518 -8.94964
587 1 18.8691 18.8691 12.5794 -8.94963
588 1 20.4415 20.4415 14.1518 -8.94963
589 1 1.57238 11.007 17.2967 -8.94963
590 1 4.71699 11.007 17.2969 -8.94919
591 1 7.86185 11.007 17.2975 -8.9502
592 1 11.0069 11.007 17.3076 -8.96705
593 1 14.1522 11.007 17.2974 -8.94935
594 1 17.2967 11.007 17.2967 -8.94951
595 1 20.4415 11.007 17.2966 -8.94964
596 1 22.0139 12.5794 15.7242 -8.94968
597 1 1.57238 14.1518 17.2967 -8.94962
598 1 3.14453 12.5794 15.7244 -8.94968
599 1 4.71703 14.1519 17.2968 -8.94936
600 1 6.28818 12.5795 15.7255 -8.94878
601 1 7.86151 14.1524 17.2981 -8.95082
602 1 9.4312 12.582 15.7273 -8.99924
603 1 11.0066 14.1521 17.2975 -8.95015
604 1 12.585 12.5856 15.7328 -8.98394
605 1 14.153 14.153 17.2984 -8.94818
606 1 15.7251 12.5794 15.7247 -8.95075
607 1 17.2968 14.1518 17.2967 -8.94993
608 1 18.8692 12.5794 15.7243 -8.94962
609 1 20.4415 14.1518 17.2966 -8.94965
610 1 1.04582e-05 15.7242 15.7242 -8.94966
611 1 1.57242 17.2966 17.2966 -8.9497
612 1 3.14475 15.7242 15.7243 -8.95002
613 1 4.71709 17.2968 17.2969 -8.94929
614 1 6.28851 15.7254 15.7259 -8.94823
615 1 7.86213 17.2967 17.2968 -8.94978
616 1 9.43466 15.725 15.7248 -8.94959
617 1 11.0069 17.2968 17.2968 -8.94956
618 1 12.5796 15.7254 15.725 -8.95092
619 1 14.1519 17.2968 17.2968 -8.94985
620 1 15.7253 15.7253 15.7252 -8.94647
621 1 17.2968 17.2968 17.2968 -8.94919
622 1 18.8692 15.7243 15.7243 -8.94961
623 1 20.4415 17.2966 17.2966 -8.94961
624 1 22.0139 18.8691 15.7242 -8.94962
625 1 1.57241 20.4415 17.2966 -8.9496
626 1 3.14475 18.8691 15.7243 -8.94929
627 1 4.71725 20.4415 17.2967 -8.94965
628 1 6.28959 18.8692 15.7244 -8.94973
629 1 7.86211 20.4415 17.2966 -8.94964
630 1 9.43453 18.8692 15.7243 -8.94957
631 1 11.0069 20.4415 17.2967 -8.94965
632 1 12.5794 18.8693 15.7244 -8.94953
633 1 14.1518 20.4415 17.2967 -8.94962
634 1 15.7243 18.8692 15.7243 -8.94957
635 1 17.2967 20.4415 17.2967 -8.94961
636 1 18.8691 18.8691 15.7242 -8.94968
637 1 20.4415 20.4415 17.2966 -8.94964
638 1 1.57242 11.007 20.4415 -8.94964
639 1 4.71723 11.007 20.4415 -8.94962
640 1 7.86206 11.007 20.4416 -8.94965
641 1 11.0069 11.007 20.4426 -8.95269
642 1 14.1519 11.007 20.4415 -8.94954
643 1 17.2967 11.007 20.4415 -8.94964
644 1 20.4415 11.007 20.4415 -8.94964
645 1 -2.56978e-06 12.5794 18.8691 -8.94963
646 1 1.57242 14.1518 20.4415 -8.94964
647 1 3.14481 12.5794 18.8691 -8.94963
648 1 4.71723 14.1518 20.4415 -8.94965
649 1 6.28951 12.5794 18.8693 -8.94988
650 1 7.86198 14.1519 20.4416 -8.94978
651 1 9.4339 12.58 18.8702 -8.94825
652 1 11.0069 14.1519 20.4415 -8.94964
653 1 12.58 12.58 18.8706 -8.9501
654 1 14.152 14.152 20.4417 -8.94982
655 1 15.7243 12.5793 18.8691 -8.94971
656 1 17.2966 14.1518 20.4415 -8.94967
657 1 18.8691 12.5794 18.8691 -8.94963
658 1 20.4415 14.1518 20.4415 -8.94963
659 1 22.0139 15.7242 18.8691 -8.94963
660 1 1.57242 17.2966 20.4415 -8.94963
661 1 3.14481 15.7242 18.8691 -8.9496
662 1 4.71724 17.2967 20.4415 -8.94964
663 1 6.28956 15.7243 18.8693 -8.94972
664 1 7.86211 17.2967 20.4415 -8.94963
665 1 9.43453 15.7244 18.8692 -8.94958
666 1 11.007 17.2967 20.4415 -8.94964
667 1 12.5793 15.7243 18.8691 -8.94986
668 1 14.1518 17.2966 20.4415 -8.94969
669 1 15.7244 15.7244 18.8693 -8.94929
670 1 17.2967 17.2967 20.4415 -8.94956
671 1 18.8691 15.7242 18.8691 -8.94969
672 1 20.4415 17.2966 20.4415 -8.94964
673 1 1.42391e-06 18.8691 18.8691 -8.94964
674 1 1.57242 20.4415 20.4415 -8.94962
675 1 3.14482 18.8691 18.8691 -8.94957
676 1 4.71727 20.4415 20.4415 -8.94964
677 1 6.28969 18.8691 18.8691 -8.94968
678 1 7.86211 20.4415 20.4415 -8.94964
679 1 9.43453 18.8691 18.8691 -8.94964
357 1 9.43439 12.5795 22.0138 -8.94975
359 1 12.5795 12.5795 22.0135 -8.95074
363 1 18.8691 12.5794 22.0139 -8.94965
365 1 -5.63302e-07 15.7242 22.0139 -8.94963
369 1 6.28962 15.7243 22.0138 -8.94976
375 1 15.7243 15.7243 22.0138 -8.94962
379 1 22.0139 18.8691 22.0139 -8.94964
381 1 3.14483 18.8691 22.0139 -8.94961
385 1 9.43453 18.8691 22.0139 -8.94964
353 1 3.14483 12.5794 22.0139 -8.94962
538 1 17.2966 20.4415 11.007 -8.94962
