ITEM: TIMESTEP
40
ITEM: NUMBER OF ATOMS
688
ITEM: BOX BOUNDS pp pp pp
0.0000000000000000e+00 2.2013900999999997e+01
0.0000000000000000e+00 2.2013900999999997e+01
0.0000000000000000e+00 2.2013900999999997e+01
ITEM: ATOMS id type x y z c_pot
189 1 20.4415 4.71726 11.007 -8.94963
2 1 1.57242 1.57242 1.57242 -8.94963
175 1 18.8691 9.43453 9.43453 -8.94966
4 1 4.71726 1.57242 1.57242 -8.94963
174 1 15.7243 9.4345 9.43455 -8.95019
6 1 7.86211 1.57242 1.57242 -8.94963
7 1 9.43453 1.09201e-16 2.00405e-10 -8.94963
8 1 11.007 1.57242 1.57242 -8.94963
173 1 12.5826 9.43151 9.43496 -8.95206
10 1 14.1518 1.57242 1.57242 -8.94963
11 1 15.7242 5.94781e-16 4.31085e-10 -8.94963
12 1 17.2966 1.57242 1.57242 -8.94963
188 1 17.2966 4.71727 11.007 -8.94964
14 1 20.4415 1.57242 1.57242 -8.94963
172 1 9.38506 9.33186 9.43459 -8.04263
16 1 1.57242 4.71726 1.57242 -8.94963
171 1 6.2878 9.43421 9.43443 -8.95921
18 1 4.71726 4.71726 1.57242 -8.94963
19 1 6.28969 3.14484 9.68095e-09 -8.94963
20 1 7.86211 4.71726 1.57242 -8.94963
170 1 3.14479 9.43453 9.43453 -8.95008
22 1 11.007 4.71726 1.57242 -8.94963
169 1 22.0139 9.43453 9.43453 -8.94965
24 1 14.1518 4.71726 1.57242 -8.94964
25 1 15.7242 3.14484 6.48236e-09 -8.94963
26 1 17.2966 4.71726 1.57242 -8.94963
168 1 18.8691 6.28969 9.43453 -8.94963
28 1 20.4415 4.71726 1.57242 -8.94963
167 1 15.7242 6.28969 9.43452 -8.94963
30 1 1.57242 7.86211 1.57242 -8.94963
31 1 3.14484 6.28969 7.80787e-09 -8.94963
32 1 4.71726 7.86211 1.57242 -8.94963
166 1 12.5793 6.28965 9.43453 -8.95105
34 1 7.86211 7.86211 1.57242 -8.94963
35 1 9.43453 6.28969 1.03328e-07 -8.94963
36 1 11.0069 7.86211 1.57242 -8.94964
37 1 12.5794 6.28969 1.97252e-07 -8.94963
38 1 14.1518 7.8621 1.57242 -8.94962
165 1 9.43448 6.28633 9.43455 -8.96883
40 1 17.2966 7.86211 1.57242 -8.94964
41 1 18.8691 6.28969 5.80675e-09 -8.94963
42 1 20.4415 7.86211 1.57242 -8.94963
43 1 22.0139 9.43453 -5.58182e-10 -8.94963
187 1 14.1518 4.71726 11.0069 -8.9497
45 1 6.28969 9.43453 1.09455e-07 -8.94964
164 1 6.28974 6.28973 9.43454 -8.95158
163 1 3.14485 6.28969 9.43453 -8.94963
48 1 15.7242 9.43453 1.59181e-07 -8.94963
162 1 7.24325e-08 6.28969 9.43453 -8.94963
50 1 1.83956e-10 2.83007e-16 3.14484 -8.94963
51 1 1.57242 1.57242 4.71726 -8.94963
52 1 3.14484 3.25088e-16 3.14484 -8.94963
53 1 4.71726 1.57242 4.71726 -8.94963
54 1 6.28969 2.41926e-16 3.14484 -8.94963
55 1 7.86211 1.57242 4.71726 -8.94963
56 1 9.43453 3.63001e-16 3.14484 -8.94963
57 1 11.007 1.57242 4.71726 -8.94963
58 1 12.5794 7.93031e-16 3.14484 -8.94963
59 1 14.1518 1.57242 4.71726 -8.94963
60 1 15.7242 8.57648e-16 3.14484 -8.94963
61 1 17.2966 1.57242 4.71726 -8.94963
62 1 18.8691 3.15877e-16 3.14484 -8.94963
63 1 20.4415 1.57242 4.71726 -8.94963
64 1 22.0139 3.14484 3.14484 -8.94963
65 1 1.57242 4.71726 4.71726 -8.94963
66 1 3.14484 3.14484 3.14484 -8.94963
67 1 4.71726 4.71726 4.71726 -8.94958
68 1 6.28969 3.14484 3.14484 -8.94964
69 1 7.86211 4.71727 4.71727 -8.94974
70 1 9.43453 3.14484 3.14484 -8.94963
71 1 11.0069 4.71727 4.71727 -8.94965
72 1 12.5794 3.14484 3.14484 -8.94963
73 1 14.1518 4.71726 4.71726 -8.94963
74 1 15.7242 3.14484 3.14484 -8.94963
75 1 17.2966 4.71726 4.71726 -8.94964
76 1 18.8691 3.14484 3.14484 -8.94963
77 1 20.4415 4.71726 4.71726 -8.94963
78 1 22.0139 6.28969 3.14484 -8.94963
79 1 1.57242 7.86211 4.71726 -8.94963
80 1 3.14484 6.28969 3.14484 -8.94964
81 1 4.71726 7.8621 4.71726 -8.94968
82 1 6.28968 6.28968 3.14484 -8.94963
83 1 7.86207 7.86207 4.71716 -8.95001
84 1 9.43453 6.28969 3.14485 -8.94965
85 1 11.0069 7.86216 4.71729 -8.95111
86 1 12.5794 6.28969 3.14485 -8.94974
87 1 14.1519 7.862 4.71716 -8.94821
88 1 15.7242 6.28968 3.14484 -8.94958
89 1 17.2966 7.86211 4.71726 -8.94964
90 1 18.8691 6.28969 3.14484 -8.94963
91 1 20.4415 7.86211 4.71726 -8.94963
92 1 9.53391e-09 9.43453 3.14484 -8.94963
93 1 3.14484 9.43453 3.14484 -8.94964
94 1 6.28969 9.43453 3.14484 -8.94968
95 1 9.43448 9.43448 3.14477 -8.94924
96 1 12.5794 9.43447 3.14472 -8.94984
97 1 15.7242 9.43453 3.14485 -8.94974
98 1 18.8691 9.43453 3.14484 -8.94963
99 1 22.0139 7.53749e-16 6.28969 -8.94963
100 1 1.57242 1.57242 7.86211 -8.94963
101 1 3.14484 9.28976e-17 6.28969 -8.94963
102 1 4.71726 1.57242 7.86211 -8.94963
103 1 6.28969 2.59805e-16 6.28969 -8.94963
104 1 7.86211 1.57242 7.86211 -8.94965
105 1 9.43453 6.11848e-16 6.28969 -8.94963
106 1 11.007 1.57242 7.86211 -8.94964
107 1 12.5794 4.56559e-16 6.28969 -8.94963
108 1 14.1518 1.57242 7.86211 -8.94963
109 1 15.7242 5.46872e-16 6.28969 -8.94963
110 1 17.2966 1.57242 7.86211 -8.94963
111 1 18.8691 4.22678e-16 6.28969 -8.94963
112 1 20.4415 1.57242 7.86211 -8.94963
113 1 7.86593e-09 3.14484 6.28969 -8.94963
114 1 1.57242 4.71726 7.86211 -8.94963
115 1 3.14484 3.14484 6.28969 -8.94964
116 1 4.71727 4.71727 7.86211 -8.94974
117 1 6.28968 3.14484 6.28968 -8.94962
118 1 7.86205 4.71714 7.86205 -8.94984
119 1 9.43453 3.14484 6.28969 -8.94964
120 1 11.007 4.7172 7.86206 -8.94924
121 1 12.5794 3.14484 6.28968 -8.94963
122 1 14.1518 4.71726 7.86211 -8.94968
123 1 15.7242 3.14484 6.28969 -8.94963
124 1 17.2966 4.71726 7.86211 -8.94964
125 1 18.8691 3.14484 6.28969 -8.94963
126 1 20.4415 4.71726 7.86211 -8.94963
127 1 22.0139 6.28969 6.28969 -8.94963
128 1 1.57242 7.86211 7.86211 -8.94965
129 1 3.14484 6.28968 6.28968 -8.94964
130 1 4.71716 7.86208 7.86207 -8.95011
131 1 6.28958 6.28958 6.28958 -8.94822
132 1 7.85904 7.85918 7.85903 -8.91355
133 1 9.43455 6.28971 6.28974 -8.95111
134 1 11.008 7.86141 7.86097 -8.9392
135 1 12.5794 6.28958 6.28965 -8.95003
136 1 14.1519 7.86203 7.86204 -8.94925
137 1 15.7242 6.28969 6.28968 -8.94969
138 1 17.2966 7.86211 7.86211 -8.94965
139 1 18.8691 6.28969 6.28969 -8.94963
140 1 20.4415 7.86211 7.86211 -8.94963
141 1 22.0139 9.43453 6.28969 -8.94963
142 1 3.14484 9.43453 6.28968 -8.94965
143 1 6.28958 9.43445 6.2896 -8.94918
144 1 9.43345 9.43336 6.28896 -8.93886
145 1 12.5825 9.43144 6.28676 -8.91318
146 1 15.7243 9.4345 6.28966 -8.95017
147 1 18.8691 9.43453 6.28969 -8.94965
148 1 6.74481e-10 3.99931e-16 9.43453 -8.94963
149 1 3.14484 8.47893e-16 9.43453 -8.94963
150 1 6.28969 8.29342e-16 9.43453 -8.94963
151 1 9.43453 5.25782e-17 9.43453 -8.94968
152 1 12.5794 6.34387e-16 9.43453 -8.94963
153 1 15.7242 3.9897e-16 9.43453 -8.94963
154 1 18.8691 5.9434e-16 9.43453 -8.94963
155 1 22.0139 3.14484 9.43453 -8.94963
156 1 3.14484 3.14484 9.43453 -8.94963
157 1 6.28969 3.14484 9.43453 -8.94963
158 1 9.43453 3.14476 9.43453 -8.95052
159 1 12.5794 3.14484 9.43453 -8.94966
160 1 15.7242 3.14484 9.43453 -8.94963
161 1 18.8691 3.14484 9.43453 -8.94963
177 1 4.71726 1.57242 11.007 -8.94963
180 1 14.1518 1.57242 11.007 -8.94964
184 1 4.71727 4.71727 11.0069 -8.94974
183 1 1.57242 4.71726 11.007 -8.94963
3 1 3.14484 3.46465e-16 2.3192e-10 -8.94963
176 1 1.57242 1.57242 11.007 -8.94963
343 1 18.8691 9.43453 18.8691 -8.94963
178 1 7.86211 1.57242 11.007 -8.94965
179 1 11.007 1.57242 11.007 -8.94964
342 1 15.7242 9.43453 18.8691 -8.94964
341 1 12.5794 9.43452 18.8691 -8.94939
182 1 20.4415 1.57242 11.007 -8.94963
340 1 9.43452 9.43451 18.8691 -8.94944
339 1 6.28968 9.43453 18.8691 -8.94965
185 1 7.86204 4.71714 11.007 -8.94957
186 1 11.007 4.71718 11.007 -8.94906
338 1 3.14484 9.43453 18.8691 -8.94964
337 1 1.24487e-08 9.43453 18.8691 -8.94963
336 1 20.4415 7.86211 20.4415 -8.94963
190 1 1.57242 7.86211 11.007 -8.94965
191 1 4.7172 7.86211 11.007 -8.95037
192 1 7.85914 7.85962 11.0098 -8.95317
193 1 11.0083 7.86143 11.0081 -8.9942
194 1 14.152 7.86191 11.0069 -8.94855
195 1 17.2966 7.8621 11.007 -8.94965
196 1 20.4415 7.86211 11.007 -8.94963
197 1 22.0139 -3.13664e-16 12.5794 -8.94963
198 1 1.57242 1.57242 14.1518 -8.94963
199 1 3.14484 -1.41699e-16 12.5794 -8.94963
200 1 4.71726 1.57242 14.1518 -8.94963
201 1 6.28969 5.26302e-16 12.5794 -8.94963
202 1 7.86211 1.57242 14.1518 -8.94963
203 1 9.43453 -1.2369e-16 12.5794 -8.94964
204 1 11.007 1.57242 14.1518 -8.94963
205 1 12.5794 -2.02296e-16 12.5794 -8.94963
206 1 14.1518 1.57242 14.1518 -8.94963
207 1 15.7242 1.5392e-16 12.5794 -8.94963
208 1 17.2966 1.57242 14.1518 -8.94963
209 1 18.8691 6.21985e-17 12.5794 -8.94963
210 1 20.4415 1.57242 14.1518 -8.94963
211 1 7.1398e-09 3.14484 12.5794 -8.94963
212 1 1.57242 4.71726 14.1518 -8.94963
213 1 3.14484 3.14484 12.5794 -8.94964
214 1 4.71726 4.71726 14.1518 -8.94959
215 1 6.28968 3.14484 12.5794 -8.94962
216 1 7.8621 4.71727 14.1518 -8.94948
217 1 9.43453 3.14482 12.5794 -8.94988
218 1 11.007 4.71726 14.1518 -8.94945
219 1 12.5794 3.14484 12.5794 -8.94966
220 1 14.1518 4.71726 14.1518 -8.94965
221 1 15.7242 3.14484 12.5794 -8.94963
222 1 17.2966 4.71726 14.1518 -8.94964
223 1 18.8691 3.14484 12.5794 -8.94963
224 1 20.4415 4.71726 14.1518 -8.94963
225 1 22.0139 6.28969 12.5794 -8.94963
226 1 1.57242 7.86211 14.1518 -8.94963
227 1 3.14484 6.28968 12.5794 -8.94962
228 1 4.7173 7.86213 14.1518 -8.94989
229 1 6.28963 6.28965 12.5795 -8.94882
230 1 7.86217 7.8625 14.1521 -8.99001
231 1 9.43459 6.28885 12.5793 -8.95691
232 1 11.0072 7.86229 14.1517 -9.00617
233 1 12.5794 6.2895 12.5794 -8.95075
234 1 14.152 7.8619 14.152 -8.94743
235 1 15.7242 6.28969 12.5794 -8.94973
236 1 17.2966 7.8621 14.1518 -8.94964
237 1 18.8691 6.28969 12.5794 -8.94963
238 1 20.4415 7.86211 14.1518 -8.94963
239 1 4.40404e-07 9.43453 12.5794 -8.94963
240 1 3.14486 9.43452 12.5794 -8.9494
241 1 6.29033 9.43502 12.5795 -8.99744
242 1 9.42258 9.41153 12.58 -9.23149
243 1 12.5857 9.42919 12.5823 -8.9506
244 1 15.7244 9.4345 12.5794 -8.95107
245 1 18.8691 9.43453 12.5794 -8.94969
246 1 3.3465e-10 2.25412e-16 15.7242 -8.94963
247 1 1.57242 1.57242 17.2966 -8.94963
248 1 3.14484 7.54756e-16 15.7242 -8.94963
249 1 4.71726 1.57242 17.2966 -8.94963
250 1 6.28969 3.60604e-16 15.7242 -8.94963
251 1 7.86211 1.57242 17.2966 -8.94963
252 1 9.43453 3.88983e-16 15.7242 -8.94963
253 1 11.007 1.57242 17.2966 -8.94963
254 1 12.5794 1.56301e-16 15.7242 -8.94963
255 1 14.1518 1.57242 17.2966 -8.94963
256 1 15.7242 8.94252e-16 15.7242 -8.94963
257 1 17.2966 1.57242 17.2966 -8.94963
258 1 18.8691 6.95949e-16 15.7242 -8.94963
259 1 20.4415 1.57242 17.2966 -8.94963
260 1 22.0139 3.14484 15.7242 -8.94963
261 1 1.57242 4.71726 17.2966 -8.94963
262 1 3.14484 3.14484 15.7242 -8.94963
263 1 4.71726 4.71726 17.2966 -8.94964
264 1 6.28969 3.14484 15.7242 -8.94963
265 1 7.86211 4.71726 17.2966 -8.94964
266 1 9.43453 3.14484 15.7242 -8.94964
267 1 11.007 4.71726 17.2966 -8.94963
268 1 12.5794 3.14484 15.7242 -8.94963
269 1 14.1518 4.71727 17.2966 -8.94964
270 1 15.7242 3.14484 15.7242 -8.94963
271 1 17.2966 4.71726 17.2966 -8.94963
272 1 18.8691 3.14484 15.7242 -8.94963
273 1 20.4415 4.71726 17.2966 -8.94963
274 1 6.66568e-08 6.28969 15.7242 -8.94963
275 1 1.57242 7.86211 17.2966 -8.94963
276 1 3.14484 6.28969 15.7242 -8.94965
277 1 4.71726 7.8621 17.2966 -8.94958
278 1 6.2897 6.28969 15.7242 -8.9497
279 1 7.86211 7.86211 17.2966 -8.94969
280 1 9.43453 6.28971 15.7242 -8.95007
281 1 11.0069 7.86213 17.2966 -8.95006
282 1 12.5794 6.28969 15.7242 -8.9498
283 1 14.1518 7.86212 17.2966 -8.94969
284 1 15.7242 6.28968 15.7242 -8.94954
285 1 17.2966 7.86211 17.2966 -8.94965
286 1 18.8691 6.28969 15.7242 -8.94963
287 1 20.4415 7.86211 17.2966 -8.94963
288 1 22.0139 9.43453 15.7242 -8.94963
289 1 3.14484 9.43453 15.7242 -8.94965
290 1 6.28958 9.43444 15.7243 -8.94895
291 1 9.43421 9.4345 15.7242 -9.00447
292 1 12.5793 9.43424 15.7239 -8.98963
293 1 15.7242 9.43455 15.7242 -8.94995
294 1 18.8691 9.43453 15.7242 -8.94963
295 1 22.0139 5.83862e-16 18.8691 -8.94963
296 1 1.57242 1.57242 20.4415 -8.94963
297 1 3.14484 3.23576e-17 18.8691 -8.94963
298 1 4.71726 1.57242 20.4415 -8.94963
299 1 6.28969 -3.99434e-16 18.8691 -8.94963
300 1 7.86211 1.57242 20.4415 -8.94963
301 1 9.43453 -6.00981e-17 18.8691 -8.94963
302 1 11.007 1.57242 20.4415 -8.94963
303 1 12.5794 3.2577e-16 18.8691 -8.94963
304 1 14.1518 1.57242 20.4415 -8.94963
305 1 15.7242 2.36429e-16 18.8691 -8.94963
306 1 17.2966 1.57242 20.4415 -8.94963
307 1 18.8691 1.27289e-16 18.8691 -8.94963
308 1 20.4415 1.57242 20.4415 -8.94963
309 1 1.80711e-09 3.14484 18.8691 -8.94963
310 1 1.57242 4.71726 20.4415 -8.94963
311 1 3.14484 3.14484 18.8691 -8.94963
312 1 4.71726 4.71726 20.4415 -8.94963
313 1 6.28969 3.14484 18.8691 -8.94963
314 1 7.86211 4.71726 20.4415 -8.94963
315 1 9.43453 3.14484 18.8691 -8.94963
316 1 11.007 4.71726 20.4415 -8.94963
317 1 12.5794 3.14484 18.8691 -8.94963
318 1 14.1518 4.71726 20.4415 -8.94963
319 1 15.7242 3.14484 18.8691 -8.94963
320 1 17.2966 4.71726 20.4415 -8.94963
321 1 18.8691 3.14484 18.8691 -8.94963
322 1 20.4415 4.71726 20.4415 -8.94963
323 1 22.0139 6.28969 18.8691 -8.94963
324 1 1.57242 7.86211 20.4415 -8.94963
325 1 3.14484 6.28969 18.8691 -8.94963
326 1 4.71726 7.86211 20.4415 -8.94963
327 1 6.28969 6.28969 18.8691 -8.94963
328 1 7.86211 7.86211 20.4415 -8.94963
329 1 9.43453 6.28969 18.8691 -8.94964
330 1 11.007 7.86211 20.4415 -8.94964
331 1 12.5794 6.28969 18.8691 -8.94964
332 1 14.1518 7.86211 20.4415 -8.94963
333 1 15.7242 6.28969 18.8691 -8.94964
334 1 17.2966 7.86211 20.4415 -8.94963
335 1 18.8691 6.28969 18.8691 -8.94963
49 1 18.8691 9.43453 22.0139 -8.94963
5 1 6.28969 -1.65062e-17 22.0139 -8.94963
9 1 12.5794 -1.65251e-16 22.0139 -8.94963
15 1 22.0139 3.14484 22.0139 -8.94963
17 1 3.14484 3.14484 22.0139 -8.94963
21 1 9.43453 3.14484 22.0139 -8.94963
23 1 12.5794 3.14484 22.0139 -8.94963
27 1 18.8691 3.14484 22.0139 -8.94963
29 1 2.26467e-10 6.28969 22.0139 -8.94963
33 1 6.28969 6.28969 22.0139 -8.94963
39 1 15.7242 6.28969 22.0139 -8.94963
46 1 9.43453 9.43453 22.0139 -8.94964
47 1 12.5794 9.43453 22.0139 -8.94965
1 1 -1.6835e-11 7.2475e-16 22.0139 -8.94963
13 1 18.8691 2.96613e-16 22.0139 -8.94963
44 1 3.14484 9.43453 22.0139 -8.94963
181 1 17.2966 1.57242 11.007 -8.94963
344 1 1.57242 11.007 1.57242 -8.94963
345 1 4.71726 11.007 1.57242 -8.94963
346 1 7.86211 11.007 1.57242 -8.94967
347 1 11.0069 11.007 1.57233 -8.95053
348 1 14.1518 11.007 1.57242 -8.94963
349 1 17.2966 11.007 1.57242 -8.94963
350 1 20.4415 11.007 1.57242 -8.94963
351 1 22.0139 12.5794 -5.58182e-10 -8.94963
352 1 1.57242 14.1518 1.57242 -8.94963
537 1 14.1518 20.4415 11.007 -8.94964
354 1 4.71726 14.1518 1.57242 -8.94963
355 1 6.28969 12.5794 1.09455e-07 -8.94964
356 1 7.86211 14.1518 1.57242 -8.94963
688 3 10.2185 11.007 9.432 3.54713
358 1 11.0069 14.1518 1.57242 -8.94964
511 1 18.8691 18.8691 9.43453 -8.94963
360 1 14.1518 14.1518 1.57242 -8.94962
361 1 15.7242 12.5794 1.59181e-07 -8.94963
362 1 17.2966 14.1518 1.57242 -8.94964
510 1 15.7242 18.8691 9.43453 -8.94963
364 1 20.4415 14.1518 1.57242 -8.94963
509 1 12.5794 18.8691 9.43453 -8.94966
366 1 1.57242 17.2966 1.57242 -8.94963
367 1 3.14484 15.7242 7.80787e-09 -8.94963
368 1 4.71726 17.2966 1.57242 -8.94963
508 1 9.43453 18.8691 9.43453 -8.95052
370 1 7.86211 17.2966 1.57242 -8.94963
371 1 9.43453 15.7242 1.03328e-07 -8.94963
372 1 11.007 17.2966 1.57242 -8.94963
373 1 12.5794 15.7242 1.97252e-07 -8.94963
374 1 14.1518 17.2966 1.57242 -8.94964
507 1 6.28969 18.8691 9.43453 -8.94963
376 1 17.2966 17.2966 1.57242 -8.94963
377 1 18.8691 15.7242 5.80675e-09 -8.94963
378 1 20.4415 17.2966 1.57242 -8.94963
506 1 3.14484 18.8691 9.43453 -8.94963
380 1 1.57242 20.4415 1.57242 -8.94963
505 1 22.0139 18.8691 9.43453 -8.94963
382 1 4.71726 20.4415 1.57242 -8.94963
383 1 6.28969 18.8691 9.68095e-09 -8.94963
384 1 7.86211 20.4415 1.57242 -8.94963
504 1 18.8691 15.7242 9.43453 -8.94963
386 1 11.007 20.4415 1.57242 -8.94963
503 1 15.7242 15.7242 9.43452 -8.94963
388 1 14.1518 20.4415 1.57242 -8.94963
389 1 15.7242 18.8691 6.48236e-09 -8.94963
390 1 17.2966 20.4415 1.57242 -8.94963
502 1 12.5793 15.7243 9.43453 -8.95105
392 1 20.4415 20.4415 1.57242 -8.94963
393 1 1.57242 11.007 4.71726 -8.94963
394 1 4.71727 11.007 4.71727 -8.94969
395 1 7.86215 11.007 4.71723 -8.95105
396 1 11.007 11.007 4.71388 -8.96851
397 1 14.1518 11.007 4.7173 -8.9515
398 1 17.2966 11.007 4.71726 -8.94962
399 1 20.4415 11.007 4.71726 -8.94963
400 1 9.53391e-09 12.5794 3.14484 -8.94963
401 1 1.57242 14.1518 4.71726 -8.94963
402 1 3.14484 12.5794 3.14484 -8.94964
403 1 4.71726 14.1518 4.71726 -8.94968
404 1 6.28969 12.5794 3.14484 -8.94968
405 1 7.86207 14.1518 4.71716 -8.95001
406 1 9.43448 12.5794 3.14477 -8.94924
407 1 11.0069 14.1517 4.71729 -8.95111
408 1 12.5794 12.5794 3.14472 -8.94984
409 1 14.1519 14.1519 4.71716 -8.94821
410 1 15.7242 12.5794 3.14485 -8.94974
411 1 17.2966 14.1518 4.71726 -8.94964
412 1 18.8691 12.5794 3.14484 -8.94963
413 1 20.4415 14.1518 4.71726 -8.94963
414 1 22.0139 15.7242 3.14484 -8.94963
415 1 1.57242 17.2966 4.71726 -8.94963
416 1 3.14484 15.7242 3.14484 -8.94964
417 1 4.71726 17.2966 4.71726 -8.94958
418 1 6.28968 15.7242 3.14484 -8.94963
419 1 7.86211 17.2966 4.71727 -8.94974
420 1 9.43453 15.7242 3.14485 -8.94965
421 1 11.0069 17.2966 4.71727 -8.94965
422 1 12.5794 15.7242 3.14485 -8.94974
423 1 14.1518 17.2966 4.71726 -8.94963
424 1 15.7242 15.7242 3.14484 -8.94958
425 1 17.2966 17.2966 4.71726 -8.94964
426 1 18.8691 15.7242 3.14484 -8.94963
427 1 20.4415 17.2966 4.71726 -8.94963
428 1 22.0139 18.8691 3.14484 -8.94963
429 1 1.57242 20.4415 4.71726 -8.94963
430 1 3.14484 18.8691 3.14484 -8.94963
431 1 4.71726 20.4415 4.71726 -8.94963
432 1 6.28969 18.8691 3.14484 -8.94964
433 1 7.86211 20.4415 4.71726 -8.94963
434 1 9.43453 18.8691 3.14484 -8.94963
435 1 11.007 20.4415 4.71726 -8.94963
436 1 12.5794 18.8691 3.14484 -8.94963
437 1 14.1518 20.4415 4.71726 -8.94963
438 1 15.7242 18.8691 3.14484 -8.94963
439 1 17.2966 20.4415 4.71726 -8.94963
440 1 18.8691 18.8691 3.14484 -8.94963
441 1 20.4415 20.4415 4.71726 -8.94963
442 1 1.57242 11.007 7.86211 -8.94966
443 1 4.71712 11.007 7.86207 -8.95009
444 1 7.85868 11.007 7.8592 -8.91059
445 1 11.0563 11.007 7.75883 -7.9968
446 1 14.1535 11.007 7.86195 -8.96051
447 1 17.2967 11.007 7.86211 -8.95005
448 1 20.4415 11.007 7.86211 -8.94964
449 1 22.0139 12.5794 6.28969 -8.94963
450 1 1.57242 14.1518 7.86211 -8.94965
451 1 3.14484 12.5794 6.28968 -8.94965
452 1 4.71716 14.1518 7.86207 -8.95011
453 1 6.28958 12.5795 6.2896 -8.94918
454 1 7.85904 14.1547 7.85903 -8.91355
455 1 9.43345 12.5805 6.28896 -8.93886
456 1 11.008 14.1525 7.86097 -8.9392
457 1 12.5825 12.5825 6.28676 -8.91318
458 1 14.1519 14.1519 7.86204 -8.94925
459 1 15.7243 12.5794 6.28966 -8.95017
460 1 17.2966 14.1518 7.86211 -8.94965
461 1 18.8691 12.5794 6.28969 -8.94965
462 1 20.4415 14.1518 7.86211 -8.94963
463 1 22.0139 15.7242 6.28969 -8.94963
464 1 1.57242 17.2966 7.86211 -8.94963
465 1 3.14484 15.7242 6.28968 -8.94964
466 1 4.71727 17.2966 7.86211 -8.94974
467 1 6.28958 15.7243 6.28958 -8.94822
468 1 7.86205 17.2968 7.86205 -8.94984
469 1 9.43455 15.7242 6.28974 -8.95111
470 1 11.007 17.2967 7.86206 -8.94924
471 1 12.5794 15.7243 6.28965 -8.95003
472 1 14.1518 17.2966 7.86211 -8.94968
473 1 15.7242 15.7242 6.28968 -8.94969
474 1 17.2966 17.2966 7.86211 -8.94964
475 1 18.8691 15.7242 6.28969 -8.94963
476 1 20.4415 17.2966 7.86211 -8.94963
477 1 7.86593e-09 18.8691 6.28969 -8.94963
478 1 1.57242 20.4415 7.86211 -8.94963
479 1 3.14484 18.8691 6.28969 -8.94964
480 1 4.71726 20.4415 7.86211 -8.94963
481 1 6.28968 18.8691 6.28968 -8.94962
482 1 7.86211 20.4415 7.86211 -8.94965
483 1 9.43453 18.8691 6.28969 -8.94964
484 1 11.007 20.4415 7.86211 -8.94964
485 1 12.5794 18.8691 6.28968 -8.94963
486 1 14.1518 20.4415 7.86211 -8.94963
487 1 15.7242 18.8691 6.28969 -8.94963
488 1 17.2966 20.4415 7.86211 -8.94963
489 1 18.8691 18.8691 6.28969 -8.94963
490 1 20.4415 20.4415 7.86211 -8.94963
491 1 22.0139 12.5794 9.43453 -8.94965
492 1 3.14479 12.5794 9.43453 -8.95008
493 1 6.2878 12.5797 9.43443 -8.95921
494 1 9.38506 12.682 9.43459 -8.04263
495 1 12.5826 12.5824 9.43496 -8.95206
496 1 15.7243 12.5794 9.43455 -8.95019
497 1 18.8691 12.5794 9.43453 -8.94966
498 1 7.24325e-08 15.7242 9.43453 -8.94963
499 1 3.14485 15.7242 9.43453 -8.94963
500 1 6.28974 15.7242 9.43454 -8.95158
501 1 9.43448 15.7276 9.43455 -8.96883
526 1 1.57242 17.2966 11.007 -8.94963
527 1 4.71727 17.2966 11.0069 -8.94974
530 1 14.1518 17.2966 11.0069 -8.9497
531 1 17.2966 17.2966 11.007 -8.94964
532 1 20.4415 17.2966 11.007 -8.94963
534 1 4.71726 20.4415 11.007 -8.94963
517 1 17.2967 11.007 11.0069 -8.9499
518 1 20.4415 11.007 11.007 -8.94964
512 1 1.57242 11.007 11.007 -8.9497
513 1 4.71701 11.007 11.007 -8.95102
514 1 7.85531 11.007 11.0075 -8.94413
515 1 11.0712 11.007 11.0873 -8.31059
516 1 14.1531 11.007 11.0078 -9.00749
391 1 18.8691 18.8691 22.0139 -8.94963
387 1 12.5794 18.8691 22.0139 -8.94963
519 1 1.57242 14.1518 11.007 -8.94965
520 1 4.7172 14.1518 11.007 -8.95037
521 1 7.85914 14.1543 11.0098 -8.95317
522 1 11.0083 14.1525 11.0081 -8.9942
523 1 14.152 14.152 11.0069 -8.94855
524 1 17.2966 14.1518 11.007 -8.94965
525 1 20.4415 14.1518 11.007 -8.94963
687 2 10.2184 11.007 12.5822 1.15472
686 1 20.4415 20.4415 20.4415 -8.94963
528 1 7.86204 17.2968 11.007 -8.94957
529 1 11.007 17.2967 11.007 -8.94906
685 1 18.8691 18.8691 18.8691 -8.94963
684 1 17.2966 20.4415 20.4415 -8.94963
683 1 15.7242 18.8691 18.8691 -8.94963
533 1 1.57242 20.4415 11.007 -8.94963
682 1 14.1518 20.4415 20.4415 -8.94963
535 1 7.86211 20.4415 11.007 -8.94965
536 1 11.007 20.4415 11.007 -8.94964
681 1 12.5794 18.8691 18.8691 -8.94963
680 1 11.007 20.4415 20.4415 -8.94963
539 1 20.4415 20.4415 11.007 -8.94963
540 1 1.57242 11.007 14.1518 -8.94966
541 1 4.71718 11.007 14.1518 -8.95065
542 1 7.85889 11.007 14.154 -8.98599
543 1 11.0181 11.007 14.1772 -9.26122
544 1 14.151 11.007 14.1512 -8.99969
545 1 17.2966 11.007 14.1518 -8.94938
546 1 20.4415 11.007 14.1518 -8.94963
547 1 4.40404e-07 12.5794 12.5794 -8.94963
548 1 1.57242 14.1518 14.1518 -8.94963
549 1 3.14486 12.5794 12.5794 -8.9494
550 1 4.7173 14.1518 14.1518 -8.94989
551 1 6.29033 12.5789 12.5795 -8.99744
552 1 7.86217 14.1514 14.1521 -8.99001
553 1 9.42258 12.6024 12.58 -9.23149
554 1 11.0072 14.1516 14.1517 -9.00617
555 1 12.5857 12.5847 12.5823 -8.9506
556 1 14.152 14.152 14.152 -8.94743
557 1 15.7244 12.5794 12.5794 -8.95107
558 1 17.2966 14.1518 14.1518 -8.94964
559 1 18.8691 12.5794 12.5794 -8.94969
560 1 20.4415 14.1518 14.1518 -8.94963
561 1 22.0139 15.7242 12.5794 -8.94963
562 1 1.57242 17.2966 14.1518 -8.94963
563 1 3.14484 15.7242 12.5794 -8.94962
564 1 4.71726 17.2966 14.1518 -8.94959
565 1 6.28963 15.7243 12.5795 -8.94882
566 1 7.8621 17.2966 14.1518 -8.94948
567 1 9.43459 15.7251 12.5793 -8.95691
568 1 11.007 17.2966 14.1518 -8.94945
569 1 12.5794 15.7244 12.5794 -8.95075
570 1 14.1518 17.2966 14.1518 -8.94965
571 1 15.7242 15.7242 12.5794 -8.94973
572 1 17.2966 17.2966 14.1518 -8.94964
573 1 18.8691 15.7242 12.5794 -8.94963
574 1 20.4415 17.2966 14.1518 -8.94963
575 1 7.1398e-09 18.8691 12.5794 -8.94963
576 1 1.57242 20.4415 14.1518 -8.94963
577 1 3.14484 18.8691 12.5794 -8.94964
578 1 4.71726 20.4415 14.1518 -8.94963
579 1 6.28968 18.8691 12.5794 -8.94962
580 1 7.86211 20.4415 14.1518 -8.94963
581 1 9.43453 18.8691 12.5794 -8.94988
582 1 11.007 20.4415 14.1518 -8.94963
583 1 12.5794 18.8691 12.5794 -8.94966
584 1 14.1518 20.4415 14.1518 -8.94963
585 1 15.7242 18.8691 12.5794 -8.94963
586 1 17.2966 20.4415 14.1518 -8.94963
587 1 18.8691 18.8691 12.5794 -8.94963
588 1 20.4415 20.4415 14.1518 -8.94963
589 1 1.57242 11.007 17.2966 -8.94963
590 1 4.71727 11.007 17.2966 -8.94967
591 1 7.8621 11.007 17.2967 -8.95042
592 1 11.0069 11.007 17.2976 -8.95631
593 1 14.1517 11.007 17.2966 -8.95024
594 1 17.2966 11.007 17.2966 -8.94961
595 1 20.4415 11.007 17.2966 -8.94963
596 1 22.0139 12.5794 15.7242 -8.94963
597 1 1.57242 14.1518 17.2966 -8.94963
598 1 3.14484 12.5794 15.7242 -8.94965
599 1 4.71726 14.1518 17.2966 -8.94958
600 1 6.28958 12.5795 15.7243 -8.94895
601 1 7.86211 14.1518 17.2966 -8.94969
602 1 9.43421 12.5794 15.7242 -9.00447
603 1 11.0069 14.1518 17.2966 -8.95006
604 1 12.5793 12.5797 15.7239 -8.98963
605 1 14.1518 14.1518 17.2966 -8.94969
606 1 15.7242 12.5793 15.7242 -8.94995
607 1 17.2966 14.1518 17.2966 -8.94965
608 1 18.8691 12.5794 15.7242 -8.94963
609 1 20.4415 14.1518 17.2966 -8.94963
610 1 6.66568e-08 15.7242 15.7242 -8.94963
611 1 1.57242 17.2966 17.2966 -8.94963
612 1 3.14484 15.7242 15.7242 -8.94965
613 1 4.71726 17.2966 17.2966 -8.94964
614 1 6.2897 15.7242 15.7242 -8.9497
615 1 7.86211 17.2966 17.2966 -8.94964
616 1 9.43453 15.7242 15.7242 -8.95007
617 1 11.007 17.2966 17.2966 -8.94963
618 1 12.5794 15.7242 15.7242 -8.9498
619 1 14.1518 17.2966 17.2966 -8.94964
620 1 15.7242 15.7242 15.7242 -8.94954
621 1 17.2966 17.2966 17.2966 -8.94963
622 1 18.8691 15.7242 15.7242 -8.94963
623 1 20.4415 17.2966 17.2966 -8.94963
624 1 22.0139 18.8691 15.7242 -8.94963
625 1 1.57242 20.4415 17.2966 -8.94963
626 1 3.14484 18.8691 15.7242 -8.94963
627 1 4.71726 20.4415 17.2966 -8.94963
628 1 6.28969 18.8691 15.7242 -8.94963
629 1 7.86211 20.4415 17.2966 -8.94963
630 1 9.43453 18.8691 15.7242 -8.94964
631 1 11.007 20.4415 17.2966 -8.94963
632 1 12.5794 18.8691 15.7242 -8.94963
633 1 14.1518 20.4415 17.2966 -8.94963
634 1 15.7242 18.8691 15.7242 -8.94963
635 1 17.2966 20.4415 17.2966 -8.94963
636 1 18.8691 18.8691 15.7242 -8.94963
637 1 20.4415 20.4415 17.2966 -8.94963
638 1 1.57242 11.007 20.4415 -8.94963
639 1 4.71726 11.007 20.4415 -8.94963
640 1 7.86211 11.007 20.4415 -8.94966
641 1 11.007 11.007 20.4415 -8.94992
642 1 14.1518 11.007 20.4415 -8.94963
643 1 17.2966 11.007 20.4415 -8.94963
644 1 20.4415 11.007 20.4415 -8.94963
645 1 1.24487e-08 12.5794 18.8691 -8.94963
646 1 1.57242 14.1518 20.4415 -8.94963
647 1 3.14484 12.5794 18.8691 -8.94964
648 1 4.71726 14.1518 20.4415 -8.94963
649 1 6.28968 12.5794 18.8691 -8.94965
650 1 7.86211 14.1518 20.4415 -8.94963
651 1 9.43452 12.5794 18.8691 -8.94944
652 1 11.007 14.1518 20.4415 -8.94964
653 1 12.5794 12.5794 18.8691 -8.94939
654 1 14.1518 14.1518 20.4415 -8.94963
655 1 15.7242 12.5794 18.8691 -8.94964
656 1 17.2966 14.1518 20.4415 -8.94963
657 1 18.8691 12.5794 18.8691 -8.94963
658 1 20.4415 14.1518 20.4415 -8.94963
659 1 22.0139 15.7242 18.8691 -8.94963
660 1 1.57242 17.2966 20.4415 -8.94963
661 1 3.14484 15.7242 18.8691 -8.94963
662 1 4.71726 17.2966 20.4415 -8.94963
663 1 6.28969 15.7242 18.8691 -8.94963
664 1 7.86211 17.2966 20.4415 -8.94963
665 1 9.43453 15.7242 18.8691 -8.94964
666 1 11.007 17.2966 20.4415 -8.94963
667 1 12.5794 15.7242 18.8691 -8.94964
668 1 14.1518 17.2966 20.4415 -8.94963
669 1 15.7242 15.7242 18.8691 -8.94964
670 1 17.2966 17.2966 20.4415 -8.94963
671 1 18.8691 15.7242 18.8691 -8.94963
672 1 20.4415 17.2966 20.4415 -8.94963
673 1 1.80711e-09 18.8691 18.8691 -8.94963
674 1 1.57242 20.4415 20.4415 -8.94963
675 1 3.14484 18.8691 18.8691 -8.94963
676 1 4.71726 20.4415 20.4415 -8.94963
677 1 6.28969 18.8691 18.8691 -8.94963
678 1 7.86211 20.4415 20.4415 -8.94963
679 1 9.43453 18.8691 18.8691 -8.94963
357 1 9.43453 12.5794 22.0139 -8.94964
359 1 12.5794 12.5794 22.0139 -8.94965
363 1 18.8691 12.5794 22.0139 -8.94963
365 1 2.26467e-10 15.7242 22.0139 -8.94963
369 1 6.28969 15.7242 22.0139 -8.94963
375 1 15.7242 15.7242 22.0139 -8.94963
379 1 22.0139 18.8691 22.0139 -8.94963
381 1 3.14484 18.8691 22.0139 -8.94963
385 1 9.43453 18.8691 22.0139 -8.94963
353 1 3.14484 12.5794 22.0139 -8.94963
538 1 17.2966 20.4415 11.007 -8.94963
