ITEM: TIMESTEP
81
ITEM: NUMBER OF ATOMS
688
ITEM: BOX BOUNDS pp pp pp
0.0000000000000000e+00 2.2013900999999997e+01
0.0000000000000000e+00 2.2013900999999997e+01
0.0000000000000000e+00 2.2013900999999997e+01
ITEM: ATOMS id type x y z c_pot
189 1 20.4414 4.7166 11.007 -8.94955
2 1 1.57188 1.5721 1.57193 -8.94914
175 1 18.8694 9.43441 9.43474 -8.94794
4 1 4.71684 1.57199 1.57183 -8.94963
174 1 15.722 9.43543 9.43509 -8.94417
6 1 7.86196 1.57197 1.57185 -8.94947
7 1 9.43449 -6.13176e-16 -0.000198321 -8.94956
8 1 11.007 1.57194 1.57187 -8.94951
173 1 12.5642 9.43181 9.42071 -8.93482
10 1 14.1521 1.57192 1.57195 -8.9495
11 1 15.7244 -8.41148e-16 -0.00014934 -8.94958
12 1 17.2972 1.57187 1.57196 -8.94948
188 1 17.2978 4.71613 11.0069 -8.94896
14 1 20.4415 1.57218 1.57222 -8.94953
172 1 9.35613 9.18075 9.43149 -8.13441
16 1 1.572 4.71696 1.57189 -8.94985
171 1 6.28114 9.42556 9.43338 -8.97109
18 1 4.71595 4.71608 1.57073 -8.9495
19 1 6.28934 3.14427 -0.00035372 -8.94949
20 1 7.86157 4.71608 1.57103 -8.94911
170 1 3.14202 9.43484 9.43439 -8.95108
22 1 11.007 4.71592 1.57109 -8.94934
169 1 22.0132 9.43464 9.43453 -8.94945
24 1 14.1526 4.71573 1.57102 -8.94968
25 1 15.7247 3.14411 -0.000319511 -8.94967
26 1 17.2983 4.71565 1.57118 -8.94814
168 1 18.87 6.28877 9.43452 -8.94959
28 1 20.442 4.71679 1.572 -8.94956
167 1 15.7267 6.28739 9.43425 -8.94622
30 1 1.57216 7.86204 1.57198 -8.94941
31 1 3.14445 6.28961 -0.00023065 -8.94974
32 1 4.71669 7.8623 1.57172 -8.94966
166 1 12.5798 6.28728 9.43207 -8.94565
34 1 7.86153 7.86169 1.5705 -8.95259
35 1 9.43406 6.28867 -0.000685722 -8.9496
36 1 11.0067 7.86083 1.56984 -8.95071
37 1 12.5796 6.2886 -0.000781221 -8.9497
38 1 14.1539 7.86015 1.56878 -8.95174
165 1 9.42909 6.29042 9.43381 -9.00755
40 1 17.2984 7.86119 1.57105 -8.94912
41 1 18.8698 6.2892 -0.000323422 -8.9495
42 1 20.4421 7.86183 1.57193 -8.94945
43 1 22.014 9.43446 -0.000189096 -8.94956
187 1 14.153 4.71547 11.0063 -8.94895
45 1 6.28913 9.43463 -7.28949e-05 -8.94936
164 1 6.27753 6.27799 9.43351 -8.94077
163 1 3.13985 6.28708 9.43444 -8.94924
48 1 15.7258 9.43401 -0.000975335 -8.94926
162 1 -0.00116462 6.28899 9.43451 -8.95004
50 1 -0.000283426 3.62113e-16 3.1446 -8.94953
51 1 1.57171 1.572 4.71678 -8.94945
52 1 3.14411 7.04765e-16 3.1441 -8.94953
53 1 4.71615 1.5712 4.71609 -8.95003
54 1 6.28939 3.8453e-16 3.14412 -8.94956
55 1 7.8619 1.57129 4.71628 -8.94963
56 1 9.43457 7.36791e-16 3.14413 -8.94953
57 1 11.0073 1.57136 4.71636 -8.94959
58 1 12.5797 3.86537e-17 3.14423 -8.9495
59 1 14.1524 1.57131 4.71672 -8.95068
60 1 15.7247 2.54321e-16 3.14439 -8.95004
61 1 17.2971 1.57199 4.71711 -8.94966
62 1 18.8692 6.44419e-16 3.1447 -8.94966
63 1 20.4414 1.57219 4.7171 -8.94952
64 1 22.0134 3.14438 3.14437 -8.94955
65 1 1.57072 4.71623 4.71613 -8.94969
66 1 3.1433 3.14351 3.14332 -8.9481
67 1 4.71257 4.71285 4.71266 -8.94414
68 1 6.28889 3.1434 3.1434 -8.94957
69 1 7.8606 4.71341 4.71417 -8.94879
70 1 9.43443 3.1434 3.14356 -8.94935
71 1 11.0075 4.71366 4.71437 -8.94765
72 1 12.5798 3.14331 3.14368 -8.94912
73 1 14.1551 4.71212 4.71399 -8.94968
74 1 15.7256 3.14294 3.1436 -8.94941
75 1 17.2982 4.71581 4.7166 -8.95001
76 1 18.8696 3.14419 3.1445 -8.94972
77 1 20.4415 4.71674 4.71695 -8.94989
78 1 22.0139 6.28942 3.14435 -8.94983
79 1 1.57161 7.86213 4.71661 -8.94981
80 1 3.14363 6.28931 3.14366 -8.95036
81 1 4.71475 7.862 4.71534 -8.95141
82 1 6.28666 6.28693 3.14012 -8.9503
83 1 7.85615 7.85575 4.70665 -8.95502
84 1 9.43382 6.28697 3.14133 -8.94771
85 1 11.0077 7.85668 4.70762 -8.95178
86 1 12.5808 6.2867 3.14088 -8.94932
87 1 14.1655 7.84951 4.70361 -8.9303
88 1 15.7289 6.28515 3.14046 -8.94455
89 1 17.3013 7.85992 4.71502 -8.95077
90 1 18.8708 6.2886 3.14384 -8.94968
91 1 20.4425 7.8617 4.71672 -8.95017
92 1 0.000144901 9.43442 3.14423 -8.94954
93 1 3.14403 9.43456 3.14391 -8.94894
94 1 6.28925 9.43534 3.14408 -8.94914
95 1 9.43518 9.4345 3.14378 -8.95113
96 1 12.5828 9.43306 3.1363 -8.9598
97 1 15.7285 9.43301 3.14083 -8.9474
98 1 18.8709 9.43411 3.1437 -8.94927
99 1 22.0136 1.66313e-15 6.28951 -8.94954
100 1 1.57162 1.57195 7.8619 -8.9495
101 1 3.14391 1.74162e-15 6.28914 -8.94934
102 1 4.7158 1.57103 7.86147 -8.9493
103 1 6.28909 1.45194e-15 6.28898 -8.95069
104 1 7.86175 1.57055 7.86173 -8.95145
105 1 9.43473 6.49474e-16 6.28907 -8.95024
106 1 11.0071 1.57153 7.86194 -8.94957
107 1 12.5797 9.64133e-16 6.28945 -8.95042
108 1 14.1525 1.57167 7.86194 -8.94946
109 1 15.7247 4.31876e-16 6.28956 -8.94954
110 1 17.2971 1.57201 7.86203 -8.94954
111 1 18.8693 1.14858e-15 6.28959 -8.94954
112 1 20.4414 1.57215 7.86202 -8.94956
113 1 -0.0005669 3.14429 6.28938 -8.94946
114 1 1.57053 4.71608 7.86162 -8.94933
115 1 3.14308 3.14332 6.28868 -8.9491
116 1 4.71272 4.71297 7.86027 -8.94718
117 1 6.2876 3.1408 6.28769 -8.9517
118 1 7.85852 4.70816 7.86009 -8.95965
119 1 9.43459 3.14167 6.28821 -8.95041
120 1 11.0064 4.71417 7.86112 -8.95242
121 1 12.58 3.14212 6.28898 -8.95254
122 1 14.1533 4.71494 7.86185 -8.94861
123 1 15.7251 3.14361 6.28952 -8.9495
124 1 17.2978 4.71613 7.86199 -8.94896
125 1 18.8694 3.14429 6.28956 -8.94943
126 1 20.4414 4.71662 7.86196 -8.94957
127 1 22.0129 6.28917 6.28924 -8.95031
128 1 1.56969 7.86171 7.86172 -8.95193
129 1 3.14011 6.28743 6.28734 -8.95096
130 1 4.70606 7.85788 7.85913 -8.95852
131 1 6.27551 6.27605 6.27643 -8.92841
132 1 7.81828 7.82227 7.8251 -8.84571
133 1 9.43325 6.28 6.28344 -8.94926
134 1 11.0232 7.84958 7.83396 -8.89721
135 1 12.5866 6.27787 6.28141 -8.95222
136 1 14.1587 7.85803 7.86091 -8.94963
137 1 15.7278 6.28691 6.28848 -8.95046
138 1 17.2988 7.86147 7.86277 -8.9509
139 1 18.8701 6.28902 6.28962 -8.95009
140 1 20.4416 7.86183 7.86217 -8.9501
141 1 22.0138 9.43456 6.28929 -8.9499
142 1 3.14315 9.43523 6.2889 -8.94971
143 1 6.28609 9.43689 6.28834 -8.95147
144 1 9.42188 9.41203 6.28391 -8.91002
145 1 12.6211 9.40066 6.25015 -8.85978
146 1 15.7352 9.43186 6.28538 -8.95743
147 1 18.8718 9.43421 6.28923 -8.95167
148 1 -0.000350209 1.68156e-15 9.43451 -8.94955
149 1 3.14383 1.10882e-15 9.43447 -8.94946
150 1 6.28863 3.37925e-16 9.43431 -8.95037
151 1 9.4347 8.8996e-16 9.43432 -8.94855
152 1 12.58 2.63788e-16 9.43429 -8.94948
153 1 15.7248 -2.48939e-16 9.43447 -8.94965
154 1 18.8693 9.89709e-16 9.4345 -8.94957
155 1 22.0133 3.14425 9.4345 -8.94952
156 1 3.14297 3.14329 9.43445 -8.94947
157 1 6.28667 3.14025 9.4341 -8.94936
158 1 9.43424 3.14302 9.43421 -8.9464
159 1 12.5801 3.1433 9.43399 -8.94875
160 1 15.7252 3.14371 9.43443 -8.94959
161 1 18.8694 3.14424 9.4345 -8.94956
177 1 4.71581 1.57106 11.0073 -8.94933
180 1 14.1524 1.57176 11.0068 -8.94936
184 1 4.7128 4.71308 11.0083 -8.94764
183 1 1.57054 4.71608 11.0073 -8.94929
3 1 3.14456 3.97527e-16 -0.000197393 -8.94962
176 1 1.57162 1.57195 11.0071 -8.94949
343 1 18.87 9.43434 18.8696 -8.94948
178 1 7.86158 1.57021 11.0069 -8.95162
179 1 11.0073 1.57115 11.0066 -8.94983
342 1 15.7261 9.43393 18.8708 -8.94936
341 1 12.581 9.43294 18.8744 -8.95132
182 1 20.4414 1.57215 11.007 -8.94956
340 1 9.43309 9.43337 18.8723 -8.94748
339 1 6.28888 9.43463 18.8699 -8.94966
185 1 7.85785 4.70675 11.0076 -8.95824
186 1 11.0075 4.7125 11.0061 -8.95163
338 1 3.14426 9.43449 18.8695 -8.94952
337 1 5.43337e-05 9.43446 18.8694 -8.94957
336 1 20.4419 7.86193 20.4415 -8.94954
190 1 1.56975 7.86175 11.0073 -8.95197
191 1 4.70622 7.85807 11.0095 -8.9595
192 1 7.81714 7.82062 11.0391 -8.87829
193 1 11.0297 7.84599 11.026 -8.94787
194 1 14.157 7.85976 11.0044 -8.95481
195 1 17.2985 7.86137 11.0064 -8.95028
196 1 20.4416 7.8618 11.0069 -8.95005
197 1 22.0136 3.11827e-16 12.5795 -8.94954
198 1 1.57169 1.57199 14.1522 -8.94949
199 1 3.14389 6.42189e-16 12.5798 -8.94938
200 1 4.71601 1.57114 14.1529 -8.94993
201 1 6.28893 -2.2974e-16 12.5799 -8.9506
202 1 7.86167 1.57084 14.1529 -8.94985
203 1 9.43472 1.13287e-15 12.5798 -8.95101
204 1 11.0075 1.57091 14.1528 -8.94969
205 1 12.5798 1.62301e-15 12.5795 -8.95039
206 1 14.1526 1.57117 14.1523 -8.95068
207 1 15.7247 1.37573e-15 12.5793 -8.94951
208 1 17.2971 1.572 14.1519 -8.94967
209 1 18.8693 9.80836e-16 12.5794 -8.94953
210 1 20.4414 1.57218 14.1519 -8.94952
211 1 -0.000566828 3.14428 12.5796 -8.94945
212 1 1.57068 4.71621 14.1529 -8.94968
213 1 3.14307 3.14332 12.5802 -8.94917
214 1 4.71246 4.71281 14.1562 -8.94437
215 1 6.28742 3.14049 12.5811 -8.95132
216 1 7.85981 4.71158 14.1554 -8.94847
217 1 9.43464 3.13981 12.5805 -8.9531
218 1 11.0084 4.71195 14.1553 -8.94602
219 1 12.5802 3.14169 12.5798 -8.95242
220 1 14.1555 4.71169 14.1549 -8.94978
221 1 15.7251 3.14373 12.5792 -8.94947
222 1 17.2981 4.71594 14.1522 -8.95029
223 1 18.8694 3.14428 12.5794 -8.94941
224 1 20.4415 4.71672 14.1521 -8.94983
225 1 22.0129 6.28915 12.5798 -8.95026
226 1 1.57154 7.86216 14.1523 -8.94992
227 1 3.14015 6.28742 12.5815 -8.95078
228 1 4.71452 7.86199 14.1534 -8.95286
229 1 6.27595 6.27582 12.5919 -8.92834
230 1 7.85303 7.8515 14.1654 -8.9926
231 1 9.4342 6.27045 12.5841 -8.96331
232 1 11.0105 7.85467 14.1634 -9.00065
233 1 12.5868 6.27697 12.5869 -8.95219
234 1 14.1664 7.84865 14.1652 -8.92895
235 1 15.7273 6.2875 12.5796 -8.95079
236 1 17.3012 7.8601 14.1537 -8.95161
237 1 18.8701 6.289 12.5794 -8.9498
238 1 20.4424 7.86177 14.1522 -8.95031
239 1 -0.000158752 9.43461 12.5797 -8.94973
240 1 3.14344 9.43533 12.58 -8.94926
241 1 6.28785 9.43755 12.5797 -9.00299
242 1 9.41442 9.36451 12.5776 -9.19413
243 1 12.621 9.39831 12.6187 -8.90877
244 1 15.7333 9.43299 12.5827 -8.96079
245 1 18.8712 9.43445 12.5796 -8.95177
246 1 -0.000295499 3.39132e-16 15.7245 -8.94955
247 1 1.57184 1.57209 17.2972 -8.94918
248 1 3.14402 2.4095e-16 15.725 -8.94951
249 1 4.71664 1.57187 17.2974 -8.94955
250 1 6.28917 5.80836e-16 15.7251 -8.94961
251 1 7.86188 1.57184 17.2974 -8.94949
252 1 9.43456 4.59232e-16 15.7251 -8.94953
253 1 11.0071 1.57179 17.2974 -8.9495
254 1 12.5799 1.41736e-15 15.725 -8.9496
255 1 14.1523 1.57173 17.2973 -8.94953
256 1 15.7249 3.9202e-16 15.7247 -8.95004
257 1 17.2973 1.57183 17.2972 -8.94946
258 1 18.8693 -1.90146e-16 15.7243 -8.94968
259 1 20.4415 1.57217 17.2969 -8.94959
260 1 22.0134 3.14436 15.7247 -8.94955
261 1 1.5719 4.71692 17.2972 -8.94991
262 1 3.14319 3.14348 15.7257 -8.9482
263 1 4.71557 4.71576 17.2988 -8.94904
264 1 6.28846 3.14287 15.726 -8.94944
265 1 7.8614 4.71564 17.2985 -8.94947
266 1 9.43443 3.14285 15.7257 -8.94931
267 1 11.007 4.71544 17.2986 -8.9492
268 1 12.5802 3.14264 15.7257 -8.94921
269 1 14.1531 4.715 17.2986 -8.94984
270 1 15.7258 3.14275 15.7255 -8.94936
271 1 17.2984 4.71558 17.298 -8.94816
272 1 18.8696 3.14421 15.7245 -8.94982
273 1 20.442 4.71677 17.2971 -8.9496
274 1 -2.28887e-05 6.28941 15.7247 -8.94993
275 1 1.57204 7.86202 17.2972 -8.94949
276 1 3.14336 6.28924 15.7254 -8.95064
277 1 4.71629 7.86217 17.2977 -8.94982
278 1 6.2855 6.28576 15.73 -8.94832
279 1 7.86036 7.86043 17.3006 -8.95213
280 1 9.43398 6.28561 15.728 -8.9486
281 1 11.0064 7.8602 17.3014 -8.95058
282 1 12.5817 6.28474 15.7293 -8.95084
283 1 14.1562 7.85789 17.3031 -8.94802
284 1 15.7293 6.28488 15.7287 -8.94412
285 1 17.2988 7.86106 17.2982 -8.94971
286 1 18.8709 6.28859 15.7252 -8.94982
287 1 20.4421 7.86182 17.2972 -8.94957
288 1 22.014 9.43443 15.7248 -8.94961
289 1 3.14385 9.43462 15.7252 -8.9492
290 1 6.28863 9.43548 15.7253 -8.95013
291 1 9.43175 9.43043 15.7288 -8.99974
292 1 12.5892 9.4253 15.7415 -8.98476
293 1 15.7291 9.43309 15.7283 -8.94995
294 1 18.871 9.43416 15.7253 -8.94948
295 1 22.0137 7.17415e-17 18.8692 -8.9493
296 1 1.57213 1.57219 20.4415 -8.94938
297 1 3.14448 -3.32062e-16 18.8694 -8.94955
298 1 4.717 1.57216 20.4416 -8.94958
299 1 6.28947 -7.95943e-16 18.8694 -8.94955
300 1 7.86197 1.5721 20.4416 -8.94955
301 1 9.43448 -4.3439e-16 18.8695 -8.94956
302 1 11.007 1.57207 20.4416 -8.94955
303 1 12.5795 -7.83798e-16 18.8695 -8.94955
304 1 14.152 1.57208 20.4416 -8.94954
305 1 15.7245 -9.4834e-16 18.8694 -8.94957
306 1 17.297 1.57209 20.4416 -8.94959
307 1 18.8694 -5.81729e-16 18.8693 -8.94941
308 1 20.4417 1.57224 20.4415 -8.94929
309 1 -3.60443e-05 3.1446 18.8693 -8.94961
310 1 1.57222 4.71712 20.4416 -8.94971
311 1 3.14418 3.14426 18.8697 -8.94938
312 1 4.71659 4.71669 20.4417 -8.94995
313 1 6.28925 3.14415 18.8697 -8.94957
314 1 7.86167 4.71643 20.4418 -8.94954
315 1 9.43438 3.14401 18.8697 -8.9495
316 1 11.0069 4.71634 20.4418 -8.94954
317 1 12.5796 3.14398 18.8697 -8.94948
318 1 14.1522 4.71629 20.4418 -8.94972
319 1 15.7249 3.14392 18.8697 -8.94962
320 1 17.2976 4.7163 20.4417 -8.94927
321 1 18.8697 3.14426 18.8694 -8.94917
322 1 20.4418 4.71698 20.4415 -8.94956
323 1 22.014 6.28951 18.8693 -8.94957
324 1 1.5722 7.86202 20.4416 -8.94954
325 1 3.14432 6.28955 18.8695 -8.94977
326 1 4.71669 7.86209 20.4417 -8.9496
327 1 6.28858 6.2888 18.8707 -8.95041
328 1 7.86127 7.86151 20.4424 -8.95016
329 1 9.43395 6.2883 18.8707 -8.94953
330 1 11.0066 7.86126 20.4425 -8.95001
331 1 12.5797 6.28825 18.8708 -8.95004
332 1 14.153 7.86085 20.4426 -8.95052
333 1 15.7261 6.28782 18.871 -8.94902
334 1 17.2978 7.86156 20.4417 -8.94942
335 1 18.87 6.28913 18.8696 -8.94958
49 1 18.8699 9.43435 22.0135 -8.94948
5 1 6.28952 -1.07199e-15 22.0137 -8.94954
9 1 12.5795 -4.91159e-16 22.0137 -8.94954
15 1 22.0139 3.14461 22.0137 -8.94959
17 1 3.14427 3.14432 22.0135 -8.94947
21 1 9.43441 3.14415 22.0136 -8.94951
23 1 12.5795 3.14414 22.0136 -8.94947
27 1 18.8697 3.14426 22.0137 -8.9491
29 1 7.93665e-05 6.28953 22.0137 -8.94952
33 1 6.28892 6.2891 22.0132 -8.95061
39 1 15.7256 6.28831 22.0131 -8.94993
46 1 9.43405 9.43438 22.0144 -8.94937
47 1 12.5799 9.4341 22.0133 -8.95191
1 1 -0.000157177 3.96229e-16 22.0138 -8.94926
13 1 18.8693 1.1355e-16 22.0137 -8.94939
44 1 3.14438 9.4345 22.0137 -8.94954
181 1 17.2972 1.572 11.0069 -8.94952
344 1 1.57215 11.007 1.57193 -8.94957
345 1 4.71658 11.007 1.57171 -8.94963
346 1 7.86184 11.007 1.57268 -8.94811
347 1 11.007 11.007 1.57228 -8.94684
348 1 14.1546 11.007 1.56866 -8.9495
349 1 17.2985 11.007 1.57101 -8.9494
350 1 20.4421 11.007 1.57189 -8.94951
351 1 22.014 12.5794 -0.000189096 -8.94956
352 1 1.57216 14.1519 1.57198 -8.94941
537 1 14.1524 20.4421 11.0068 -8.94936
354 1 4.71669 14.1516 1.57172 -8.94966
355 1 6.28913 12.5793 -7.28949e-05 -8.94936
356 1 7.86153 14.1522 1.5705 -8.95259
688 3 10.1472 11.007 9.40167 2.3429
358 1 11.0067 14.1531 1.56984 -8.95071
511 1 18.8694 18.8697 9.4345 -8.94956
360 1 14.1539 14.1537 1.56878 -8.95174
361 1 15.7258 12.5799 -0.000975335 -8.94926
362 1 17.2984 14.1527 1.57105 -8.94912
510 1 15.7252 18.8702 9.43443 -8.94959
364 1 20.4421 14.1521 1.57193 -8.94945
509 1 12.5801 18.8706 9.43399 -8.94875
366 1 1.572 17.2969 1.57189 -8.94985
367 1 3.14445 15.7243 -0.00023065 -8.94974
368 1 4.71595 17.2978 1.57073 -8.9495
508 1 9.43424 18.8709 9.43421 -8.9464
370 1 7.86157 17.2978 1.57103 -8.94911
371 1 9.43406 15.7252 -0.000685722 -8.9496
372 1 11.007 17.298 1.57109 -8.94934
373 1 12.5796 15.7253 -0.000781221 -8.9497
374 1 14.1526 17.2982 1.57102 -8.94968
507 1 6.28667 18.8736 9.4341 -8.94936
376 1 17.2983 17.2982 1.57118 -8.94814
377 1 18.8698 15.7247 -0.000323422 -8.9495
378 1 20.442 17.2971 1.572 -8.94956
506 1 3.14297 18.8706 9.43445 -8.94947
380 1 1.57188 20.4418 1.57193 -8.94914
505 1 22.0133 18.8697 9.4345 -8.94952
382 1 4.71684 20.4419 1.57183 -8.94963
383 1 6.28934 18.8696 -0.00035372 -8.94949
384 1 7.86196 20.4419 1.57185 -8.94947
504 1 18.87 15.7251 9.43452 -8.94959
386 1 11.007 20.442 1.57187 -8.94951
503 1 15.7267 15.7265 9.43425 -8.94622
388 1 14.1521 20.442 1.57195 -8.9495
389 1 15.7247 18.8698 -0.000319511 -8.94967
390 1 17.2972 20.442 1.57196 -8.94948
502 1 12.5798 15.7266 9.43207 -8.94565
392 1 20.4415 20.4417 1.57222 -8.94953
393 1 1.57173 11.007 4.71635 -8.94949
394 1 4.71565 11.007 4.71543 -8.9461
395 1 7.8647 11.007 4.7201 -8.94583
396 1 11.0126 11.007 4.72087 -9.0011
397 1 14.1633 11.007 4.70636 -8.9415
398 1 17.3015 11.007 4.71467 -8.94909
399 1 20.4427 11.007 4.71654 -8.94995
400 1 0.000144901 12.5795 3.14423 -8.94954
401 1 1.57161 14.1518 4.71661 -8.94981
402 1 3.14403 12.5793 3.14391 -8.94894
403 1 4.71475 14.1519 4.71534 -8.95141
404 1 6.28925 12.5786 3.14408 -8.94914
405 1 7.85615 14.1582 4.70665 -8.95502
406 1 9.43518 12.5794 3.14378 -8.95113
407 1 11.0077 14.1572 4.70762 -8.95178
408 1 12.5828 12.5808 3.1363 -8.9598
409 1 14.1655 14.1644 4.70361 -8.9303
410 1 15.7285 12.5809 3.14083 -8.9474
411 1 17.3013 14.154 4.71502 -8.95077
412 1 18.8709 12.5798 3.1437 -8.94927
413 1 20.4425 14.1522 4.71672 -8.95017
414 1 22.0139 15.7245 3.14435 -8.94983
415 1 1.57072 17.2977 4.71613 -8.94969
416 1 3.14363 15.7246 3.14366 -8.95036
417 1 4.71257 17.3011 4.71266 -8.94414
418 1 6.28666 15.727 3.14012 -8.9503
419 1 7.8606 17.3005 4.71417 -8.94879
420 1 9.43382 15.7269 3.14133 -8.94771
421 1 11.0075 17.3002 4.71437 -8.94765
422 1 12.5808 15.7272 3.14088 -8.94932
423 1 14.1551 17.3018 4.71399 -8.94968
424 1 15.7289 15.7287 3.14046 -8.94455
425 1 17.2982 17.2981 4.7166 -8.95001
426 1 18.8708 15.7253 3.14384 -8.94968
427 1 20.4415 17.2972 4.71695 -8.94989
428 1 22.0134 18.8695 3.14437 -8.94955
429 1 1.57171 20.4419 4.71678 -8.94945
430 1 3.1433 18.8704 3.14332 -8.9481
431 1 4.71615 20.4427 4.71609 -8.95003
432 1 6.28889 18.8705 3.1434 -8.94957
433 1 7.8619 20.4426 4.71628 -8.94963
434 1 9.43443 18.8705 3.14356 -8.94935
435 1 11.0073 20.4425 4.71636 -8.94959
436 1 12.5798 18.8706 3.14368 -8.94912
437 1 14.1524 20.4426 4.71672 -8.95068
438 1 15.7256 18.871 3.1436 -8.94941
439 1 17.2971 20.4419 4.71711 -8.94966
440 1 18.8696 18.8697 3.1445 -8.94972
441 1 20.4414 20.4417 4.7171 -8.94952
442 1 1.57184 11.007 7.8617 -8.94767
443 1 4.71926 11.007 7.86243 -8.9407
444 1 7.88223 11.007 7.87101 -8.87375
445 1 11.0936 11.007 7.63974 -8.15546
446 1 14.1619 11.007 7.85344 -8.97177
447 1 17.2996 11.007 7.86226 -8.95149
448 1 20.4421 11.007 7.86215 -8.94957
449 1 22.0138 12.5793 6.28929 -8.9499
450 1 1.56969 14.1522 7.86172 -8.95193
451 1 3.14315 12.5787 6.2889 -8.94971
452 1 4.70606 14.156 7.85913 -8.95852
453 1 6.28609 12.577 6.28834 -8.95147
454 1 7.81828 14.1916 7.8251 -8.84571
455 1 9.42188 12.6019 6.28391 -8.91002
456 1 11.0232 14.1643 7.83396 -8.89721
457 1 12.6211 12.6132 6.25015 -8.85978
458 1 14.1587 14.1559 7.86091 -8.94963
459 1 15.7352 12.582 6.28538 -8.95743
460 1 17.2988 14.1524 7.86277 -8.9509
461 1 18.8718 12.5797 6.28923 -8.95167
462 1 20.4416 14.1521 7.86217 -8.9501
463 1 22.0129 15.7247 6.28924 -8.95031
464 1 1.57053 17.2978 7.86162 -8.94933
465 1 3.14011 15.7265 6.28734 -8.95096
466 1 4.71272 17.3009 7.86027 -8.94718
467 1 6.27551 15.7379 6.27643 -8.92841
468 1 7.85852 17.3057 7.86009 -8.95965
469 1 9.43325 15.7339 6.28344 -8.94926
470 1 11.0064 17.2997 7.86112 -8.95242
471 1 12.5866 15.736 6.28141 -8.95222
472 1 14.1533 17.299 7.86185 -8.94861
473 1 15.7278 15.727 6.28848 -8.95046
474 1 17.2978 17.2978 7.86199 -8.94896
475 1 18.8701 15.7249 6.28962 -8.95009
476 1 20.4414 17.2973 7.86196 -8.94957
477 1 -0.0005669 18.8696 6.28938 -8.94946
478 1 1.57162 20.4419 7.8619 -8.9495
479 1 3.14308 18.8706 6.28868 -8.9491
480 1 4.7158 20.4429 7.86147 -8.9493
481 1 6.2876 18.8731 6.28769 -8.9517
482 1 7.86175 20.4434 7.86173 -8.95145
483 1 9.43459 18.8722 6.28821 -8.95041
484 1 11.0071 20.4424 7.86194 -8.94957
485 1 12.58 18.8718 6.28898 -8.95254
486 1 14.1525 20.4422 7.86194 -8.94946
487 1 15.7251 18.8703 6.28952 -8.9495
488 1 17.2971 20.4419 7.86203 -8.94954
489 1 18.8694 18.8696 6.28956 -8.94943
490 1 20.4414 20.4417 7.86202 -8.94956
491 1 22.0132 12.5793 9.43453 -8.94945
492 1 3.14202 12.5791 9.43439 -8.95108
493 1 6.28114 12.5883 9.43338 -8.97109
494 1 9.35613 12.8331 9.43149 -8.13441
495 1 12.5642 12.5821 9.42071 -8.93482
496 1 15.722 12.5785 9.43509 -8.94417
497 1 18.8694 12.5795 9.43474 -8.94794
498 1 -0.00116462 15.7249 9.43451 -8.95004
499 1 3.13985 15.7268 9.43444 -8.94924
500 1 6.27753 15.7359 9.43351 -8.94077
501 1 9.42909 15.7235 9.43381 -9.00755
526 1 1.57054 17.2978 11.0073 -8.94929
527 1 4.7128 17.3008 11.0083 -8.94764
530 1 14.153 17.2984 11.0063 -8.94895
531 1 17.2978 17.2978 11.0069 -8.94896
532 1 20.4414 17.2973 11.007 -8.94955
534 1 4.71581 20.4428 11.0073 -8.94933
517 1 17.297 11.007 11.0066 -8.94678
518 1 20.4417 11.007 11.0069 -8.94874
512 1 1.57187 11.007 11.0072 -8.94753
513 1 4.71969 11.007 11.006 -8.94144
514 1 7.88144 11.007 10.9901 -8.90495
515 1 11.1496 11.007 11.1322 -8.48804
516 1 14.1463 11.007 11.0146 -9.0239
391 1 18.8697 18.8696 22.0137 -8.9491
387 1 12.5795 18.8698 22.0136 -8.94947
519 1 1.56975 14.1522 11.0073 -8.95197
520 1 4.70622 14.1558 11.0095 -8.9595
521 1 7.81714 14.1933 11.0391 -8.87829
522 1 11.0297 14.1679 11.026 -8.94787
523 1 14.157 14.1541 11.0044 -8.95481
524 1 17.2985 14.1525 11.0064 -8.95028
525 1 20.4416 14.1521 11.0069 -8.95005
687 2 10.1564 11.007 12.6412 0.849922
686 1 20.4417 20.4417 20.4415 -8.94929
528 1 7.85785 17.3071 11.0076 -8.95824
529 1 11.0075 17.3014 11.0061 -8.95163
685 1 18.8697 18.8696 18.8694 -8.94917
684 1 17.297 20.4418 20.4416 -8.94959
683 1 15.7249 18.87 18.8697 -8.94962
533 1 1.57162 20.4419 11.0071 -8.94949
682 1 14.152 20.4418 20.4416 -8.94954
535 1 7.86158 20.4437 11.0069 -8.95162
536 1 11.0073 20.4428 11.0066 -8.94983
681 1 12.5796 18.8699 18.8697 -8.94948
680 1 11.007 20.4418 20.4416 -8.94955
539 1 20.4414 20.4418 11.007 -8.94956
540 1 1.57174 11.007 14.1526 -8.94937
541 1 4.71613 11.007 14.1533 -8.94555
542 1 7.86711 11.007 14.1482 -8.9772
543 1 11.0382 11.007 14.224 -9.25872
544 1 14.1597 11.007 14.1622 -8.99138
545 1 17.3008 11.007 14.1542 -8.9481
546 1 20.4425 11.007 14.1524 -8.94982
547 1 -0.000158752 12.5793 12.5797 -8.94973
548 1 1.57154 14.1517 14.1523 -8.94992
549 1 3.14344 12.5786 12.58 -8.94926
550 1 4.71452 14.1519 14.1534 -8.95286
551 1 6.28785 12.5763 12.5797 -9.00299
552 1 7.85303 14.1624 14.1654 -8.9926
553 1 9.41442 12.6494 12.5776 -9.19413
554 1 11.0105 14.1592 14.1634 -9.00065
555 1 12.621 12.6156 12.6187 -8.90877
556 1 14.1664 14.1653 14.1652 -8.92895
557 1 15.7333 12.5809 12.5827 -8.96079
558 1 17.3012 14.1538 14.1537 -8.95161
559 1 18.8712 12.5794 12.5796 -8.95177
560 1 20.4424 14.1521 14.1522 -8.95031
561 1 22.0129 15.7248 12.5798 -8.95026
562 1 1.57068 17.2977 14.1529 -8.94968
563 1 3.14015 15.7265 12.5815 -8.95078
564 1 4.71246 17.3011 14.1562 -8.94437
565 1 6.27595 15.7381 12.5919 -8.92834
566 1 7.85981 17.3023 14.1554 -8.94847
567 1 9.4342 15.7434 12.5841 -8.96331
568 1 11.0084 17.302 14.1553 -8.94602
569 1 12.5868 15.7369 12.5869 -8.95219
570 1 14.1555 17.3022 14.1549 -8.94978
571 1 15.7273 15.7264 12.5796 -8.95079
572 1 17.2981 17.298 14.1522 -8.95029
573 1 18.8701 15.7249 12.5794 -8.9498
574 1 20.4415 17.2972 14.1521 -8.94983
575 1 -0.000566828 18.8696 12.5796 -8.94945
576 1 1.57169 20.4419 14.1522 -8.94949
577 1 3.14307 18.8706 12.5802 -8.94917
578 1 4.71601 20.4428 14.1529 -8.94993
579 1 6.28742 18.8734 12.5811 -8.95132
580 1 7.86167 20.4431 14.1529 -8.94985
581 1 9.43464 18.8741 12.5805 -8.9531
582 1 11.0075 20.443 14.1528 -8.94969
583 1 12.5802 18.8722 12.5798 -8.95242
584 1 14.1526 20.4427 14.1523 -8.95068
585 1 15.7251 18.8702 12.5792 -8.94947
586 1 17.2971 20.4419 14.1519 -8.94967
587 1 18.8694 18.8696 12.5794 -8.94941
588 1 20.4414 20.4417 14.1519 -8.94952
589 1 1.57202 11.007 17.2972 -8.94958
590 1 4.71628 11.007 17.2978 -8.94911
591 1 7.86202 11.007 17.2975 -8.94781
592 1 11.0073 11.007 17.3121 -8.9681
593 1 14.155 11.007 17.3024 -8.94873
594 1 17.2987 11.007 17.2983 -8.94924
595 1 20.4421 11.007 17.2972 -8.94955
596 1 22.014 12.5795 15.7248 -8.94961
597 1 1.57204 14.1519 17.2972 -8.94949
598 1 3.14385 12.5793 15.7252 -8.9492
599 1 4.71629 14.1517 17.2977 -8.94982
600 1 6.28863 12.5784 15.7253 -8.95013
601 1 7.86036 14.1535 17.3006 -8.95213
602 1 9.43175 12.5835 15.7288 -8.99974
603 1 11.0064 14.1537 17.3014 -8.95058
604 1 12.5892 12.5886 15.7415 -8.98476
605 1 14.1562 14.156 17.3031 -8.94802
606 1 15.7291 12.5808 15.7283 -8.94995
607 1 17.2988 14.1528 17.2982 -8.94971
608 1 18.871 12.5797 15.7253 -8.94948
609 1 20.4421 14.1521 17.2972 -8.94957
610 1 -2.28887e-05 15.7245 15.7247 -8.94993
611 1 1.5719 17.297 17.2972 -8.94991
612 1 3.14336 15.7247 15.7254 -8.95064
613 1 4.71557 17.2981 17.2988 -8.94904
614 1 6.2855 15.7281 15.73 -8.94832
615 1 7.8614 17.2983 17.2985 -8.94947
616 1 9.43398 15.7283 15.728 -8.9486
617 1 11.007 17.2985 17.2986 -8.9492
618 1 12.5817 15.7292 15.7293 -8.95084
619 1 14.1531 17.2989 17.2986 -8.94984
620 1 15.7293 15.729 15.7287 -8.94412
621 1 17.2984 17.2983 17.298 -8.94816
622 1 18.8709 15.7253 15.7252 -8.94982
623 1 20.442 17.2971 17.2971 -8.9496
624 1 22.0134 18.8695 15.7247 -8.94955
625 1 1.57184 20.4418 17.2972 -8.94918
626 1 3.14319 18.8704 15.7257 -8.9482
627 1 4.71664 20.442 17.2974 -8.94955
628 1 6.28846 18.871 15.726 -8.94944
629 1 7.86188 20.4421 17.2974 -8.94949
630 1 9.43443 18.8711 15.7257 -8.94931
631 1 11.0071 20.4421 17.2974 -8.9495
632 1 12.5802 18.8713 15.7257 -8.94921
633 1 14.1523 20.4422 17.2973 -8.94953
634 1 15.7258 18.8711 15.7255 -8.94936
635 1 17.2973 20.4421 17.2972 -8.94946
636 1 18.8696 18.8697 15.7245 -8.94982
637 1 20.4415 20.4417 17.2969 -8.94959
638 1 1.57217 11.007 20.4416 -8.94958
639 1 4.71662 11.007 20.4417 -8.94965
640 1 7.86141 11.007 20.4422 -8.94874
641 1 11.0066 11.007 20.4448 -8.95224
642 1 14.1531 11.007 20.4425 -8.94989
643 1 17.2978 11.007 20.4417 -8.94944
644 1 20.4419 11.007 20.4416 -8.94955
645 1 5.43337e-05 12.5794 18.8694 -8.94957
646 1 1.5722 14.1519 20.4416 -8.94954
647 1 3.14426 12.5794 18.8695 -8.94952
648 1 4.71669 14.1518 20.4417 -8.9496
649 1 6.28888 12.5793 18.8699 -8.94966
650 1 7.86127 14.1524 20.4424 -8.95016
651 1 9.43309 12.5805 18.8723 -8.94748
652 1 11.0066 14.1526 20.4425 -8.95001
653 1 12.581 12.581 18.8744 -8.95132
654 1 14.153 14.1531 20.4426 -8.95052
655 1 15.7261 12.58 18.8708 -8.94936
656 1 17.2978 14.1523 20.4417 -8.94942
657 1 18.87 12.5796 18.8696 -8.94948
658 1 20.4419 14.152 20.4415 -8.94954
659 1 22.014 15.7244 18.8693 -8.94957
660 1 1.57222 17.2968 20.4416 -8.94971
661 1 3.14432 15.7243 18.8695 -8.94977
662 1 4.71659 17.2972 20.4417 -8.94995
663 1 6.28858 15.7251 18.8707 -8.95041
664 1 7.86167 17.2975 20.4418 -8.94954
665 1 9.43395 15.7256 18.8707 -8.94953
666 1 11.0069 17.2976 20.4418 -8.94954
667 1 12.5797 15.7257 18.8708 -8.95004
668 1 14.1522 17.2976 20.4418 -8.94972
669 1 15.7261 15.7261 18.871 -8.94902
670 1 17.2976 17.2976 20.4417 -8.94927
671 1 18.87 15.7248 18.8696 -8.94958
672 1 20.4418 17.2969 20.4415 -8.94956
673 1 -3.60443e-05 18.8693 18.8693 -8.94961
674 1 1.57213 20.4417 20.4415 -8.94938
675 1 3.14418 18.8696 18.8697 -8.94938
676 1 4.717 20.4417 20.4416 -8.94958
677 1 6.28925 18.8697 18.8697 -8.94957
678 1 7.86197 20.4418 20.4416 -8.94955
679 1 9.43438 18.8699 18.8697 -8.9495
357 1 9.43405 12.5795 22.0144 -8.94937
359 1 12.5799 12.5798 22.0133 -8.95191
363 1 18.8699 12.5796 22.0135 -8.94948
365 1 7.93665e-05 15.7244 22.0137 -8.94952
369 1 6.28892 15.7248 22.0132 -8.95061
375 1 15.7256 15.7256 22.0131 -8.94993
379 1 22.0139 18.8693 22.0137 -8.94959
381 1 3.14427 18.8696 22.0135 -8.94947
385 1 9.43441 18.8697 22.0136 -8.94951
353 1 3.14438 12.5794 22.0137 -8.94954
538 1 17.2972 20.4419 11.0069 -8.94952
