ITEM: TIMESTEP
72
ITEM: NUMBER OF ATOMS
688
ITEM: BOX BOUNDS pp pp pp
0.0000000000000000e+00 2.2013900999999997e+01
0.0000000000000000e+00 2.2013900999999997e+01
0.0000000000000000e+00 2.2013900999999997e+01
ITEM: ATOMS id type x y z c_pot
189 1 20.4415 4.71666 11.007 -8.94955
2 1 1.57197 1.57214 1.572 -8.94917
175 1 18.8695 9.43438 9.43472 -8.94799
4 1 4.71693 1.57205 1.57193 -8.94964
174 1 15.7223 9.4354 9.43512 -8.94431
6 1 7.86199 1.57203 1.57193 -8.94949
7 1 9.4345 -5.90119e-16 -0.000167997 -8.94957
8 1 11.007 1.572 1.57194 -8.94953
173 1 12.5649 9.43183 9.42069 -8.93415
10 1 14.152 1.57199 1.57202 -8.9495
11 1 15.7244 -4.3667e-16 -0.000123126 -8.94959
12 1 17.2971 1.57194 1.57202 -8.9495
188 1 17.2977 4.71619 11.0069 -8.94896
14 1 20.4415 1.57222 1.57226 -8.94955
172 1 9.35568 9.18222 9.43169 -8.13478
16 1 1.57206 4.71702 1.57197 -8.94984
171 1 6.28084 9.42579 9.43338 -8.9711
18 1 4.71607 4.71618 1.57085 -8.9495
19 1 6.28941 3.14435 -0.000306136 -8.9495
20 1 7.86166 4.7162 1.57115 -8.94912
170 1 3.14192 9.43488 9.43438 -8.95113
22 1 11.007 4.71606 1.5712 -8.94935
169 1 22.0132 9.43463 9.43452 -8.94951
24 1 14.1525 4.71591 1.57116 -8.94968
25 1 15.7246 3.14423 -0.000277496 -8.94969
26 1 17.2981 4.71581 1.57128 -8.94816
168 1 18.87 6.2888 9.43451 -8.94956
28 1 20.4419 4.71687 1.57206 -8.94957
167 1 15.7266 6.28744 9.43427 -8.9462
30 1 1.57218 7.86205 1.57203 -8.94942
31 1 3.1445 6.28963 -0.000194019 -8.94973
32 1 4.71675 7.86231 1.57177 -8.94966
166 1 12.5797 6.28748 9.43222 -8.94588
34 1 7.86157 7.86173 1.57053 -8.95254
35 1 9.4341 6.28875 -0.000657862 -8.94958
36 1 11.0066 7.86091 1.56991 -8.95065
37 1 12.5795 6.28872 -0.000733944 -8.94967
38 1 14.1537 7.86027 1.56892 -8.95173
165 1 9.42917 6.29076 9.43392 -9.00733
40 1 17.2982 7.86131 1.57117 -8.94915
41 1 18.8697 6.28929 -0.00028234 -8.94952
42 1 20.442 7.86188 1.57199 -8.94946
43 1 22.0139 9.43448 -0.000159701 -8.94957
187 1 14.1529 4.71555 11.0062 -8.949
45 1 6.28916 9.43462 -9.11988e-05 -8.94938
164 1 6.27785 6.27833 9.43354 -8.94085
163 1 3.1401 6.28725 9.43444 -8.94924
48 1 15.7256 9.43407 -0.000919306 -8.94927
162 1 -0.00106412 6.28905 9.43451 -8.95002
50 1 -0.000226324 2.16668e-16 3.14466 -8.94955
51 1 1.57183 1.57205 4.71687 -8.94948
52 1 3.14423 6.57193e-16 3.14421 -8.94955
53 1 4.71629 1.57129 4.71622 -8.95002
54 1 6.28946 4.53411e-16 3.14423 -8.94956
55 1 7.86196 1.57138 4.71639 -8.94961
56 1 9.43457 7.33496e-16 3.14422 -8.94954
57 1 11.0073 1.57144 4.71644 -8.94958
58 1 12.5796 2.84752e-16 3.14431 -8.9495
59 1 14.1523 1.5714 4.71679 -8.95065
60 1 15.7246 7.63925e-16 3.14446 -8.95002
61 1 17.297 1.57205 4.71714 -8.94966
62 1 18.8692 6.56884e-16 3.14474 -8.94967
63 1 20.4414 1.57223 4.71714 -8.94953
64 1 22.0135 3.14445 3.14444 -8.94955
65 1 1.57086 4.71632 4.71624 -8.94968
66 1 3.14345 3.14363 3.14347 -8.94813
67 1 4.71283 4.71306 4.71288 -8.94419
68 1 6.28903 3.14354 3.14356 -8.94959
69 1 7.86079 4.71366 4.71438 -8.94883
70 1 9.43446 3.14353 3.14369 -8.94937
71 1 11.0075 4.71388 4.71459 -8.94769
72 1 12.5798 3.14346 3.14381 -8.94913
73 1 14.1549 4.71236 4.71423 -8.94975
74 1 15.7254 3.1431 3.14372 -8.94942
75 1 17.298 4.71595 4.71669 -8.94999
76 1 18.8695 3.14429 3.14456 -8.94972
77 1 20.4415 4.71681 4.717 -8.94987
78 1 22.0139 6.28946 3.14442 -8.94982
79 1 1.57166 7.86215 4.71667 -8.94978
80 1 3.14374 6.28937 3.14377 -8.95034
81 1 4.71488 7.86208 4.71543 -8.9514
82 1 6.28683 6.28709 3.1403 -8.9503
83 1 7.85626 7.85598 4.70681 -8.95498
84 1 9.43386 6.28715 3.14152 -8.94772
85 1 11.0076 7.85691 4.70791 -8.9517
86 1 12.5806 6.28691 3.14114 -8.9493
87 1 14.1652 7.84965 4.70387 -8.9302
88 1 15.7286 6.28535 3.14065 -8.94454
89 1 17.3011 7.86003 4.71516 -8.95079
90 1 18.8706 6.28871 3.14393 -8.94968
91 1 20.4424 7.86174 4.71678 -8.95016
92 1 9.9773e-05 9.43443 3.1443 -8.94955
93 1 3.14406 9.43456 3.14395 -8.94896
94 1 6.28926 9.43536 3.14406 -8.94916
95 1 9.43511 9.43455 3.14372 -8.95113
96 1 12.5825 9.43311 3.13642 -8.9598
97 1 15.7282 9.4331 3.14106 -8.94742
98 1 18.8707 9.43416 3.14381 -8.94928
99 1 22.0136 1.55754e-15 6.28955 -8.94957
100 1 1.57175 1.57201 7.86194 -8.94952
101 1 3.14405 1.28262e-15 6.28923 -8.94936
102 1 4.71597 1.57113 7.86153 -8.94931
103 1 6.28919 1.48393e-15 6.28906 -8.95067
104 1 7.86184 1.57062 7.86178 -8.95142
105 1 9.43474 7.71409e-16 6.28913 -8.95021
106 1 11.0071 1.57157 7.86198 -8.94955
107 1 12.5796 5.53034e-16 6.28948 -8.95039
108 1 14.1524 1.57172 7.86197 -8.94946
109 1 15.7247 6.58252e-16 6.28958 -8.94954
110 1 17.2971 1.57204 7.86204 -8.94955
111 1 18.8692 1.1216e-15 6.28961 -8.94955
112 1 20.4415 1.57219 7.86204 -8.94957
113 1 -0.000482299 3.14436 6.28943 -8.94947
114 1 1.57071 4.71619 7.86167 -8.94934
115 1 3.14328 3.14345 6.2888 -8.94912
116 1 4.71303 4.71321 7.86037 -8.94722
117 1 6.2878 3.141 6.28783 -8.95168
118 1 7.85876 4.70844 7.86022 -8.95962
119 1 9.43465 3.14184 6.28834 -8.95039
120 1 11.0064 4.71437 7.86129 -8.95235
121 1 12.5799 3.14226 6.28908 -8.9525
122 1 14.1532 4.71506 7.86197 -8.94869
123 1 15.725 3.14372 6.28958 -8.94951
124 1 17.2977 4.7162 7.86201 -8.94897
125 1 18.8694 3.14436 6.28958 -8.94944
126 1 20.4415 4.71668 7.86198 -8.94957
127 1 22.013 6.28922 6.28928 -8.95027
128 1 1.56978 7.86175 7.86173 -8.95189
129 1 3.14034 6.28756 6.28745 -8.95093
130 1 4.70623 7.85806 7.85916 -8.95844
131 1 6.27586 6.27639 6.27668 -8.92855
132 1 7.81858 7.82277 7.82542 -8.84612
133 1 9.43337 6.28036 6.28375 -8.94936
134 1 11.0229 7.85017 7.83456 -8.89774
135 1 12.5863 6.27819 6.28183 -8.95245
136 1 14.1586 7.85807 7.86108 -8.94941
137 1 15.7276 6.28705 6.28862 -8.9504
138 1 17.2987 7.86148 7.86279 -8.95086
139 1 18.87 6.28908 6.28965 -8.95005
140 1 20.4416 7.86184 7.86216 -8.95009
141 1 22.0138 9.43456 6.28931 -8.9499
142 1 3.14316 9.43524 6.2889 -8.94969
143 1 6.28609 9.43698 6.28834 -8.9515
144 1 9.42177 9.41229 6.28392 -8.90978
145 1 12.621 9.40057 6.25029 -8.85902
146 1 15.735 9.43191 6.28558 -8.95746
147 1 18.8717 9.43422 6.28928 -8.95165
148 1 -0.000276841 1.59134e-15 9.43452 -8.94957
149 1 3.14399 1.40854e-15 9.43448 -8.94947
150 1 6.28875 8.80225e-16 9.43433 -8.95035
151 1 9.43473 1.02832e-15 9.43434 -8.94857
152 1 12.5799 5.54043e-16 9.43431 -8.94948
153 1 15.7247 -2.78681e-16 9.43448 -8.94966
154 1 18.8693 6.92572e-16 9.43451 -8.94958
155 1 22.0134 3.14433 9.43451 -8.94953
156 1 3.14318 3.14343 9.43446 -8.94948
157 1 6.2869 3.14045 9.43412 -8.94935
158 1 9.43433 3.14312 9.43424 -8.94638
159 1 12.5801 3.14338 9.43403 -8.94876
160 1 15.7251 3.14376 9.43445 -8.9496
161 1 18.8694 3.1443 9.4345 -8.94957
177 1 4.71598 1.57116 11.0073 -8.94933
180 1 14.1524 1.57179 11.0068 -8.94938
184 1 4.71308 4.71333 11.0083 -8.94767
183 1 1.57071 4.71619 11.0073 -8.94929
3 1 3.14463 2.68169e-16 -0.000157126 -8.94964
176 1 1.57175 1.57201 11.0071 -8.94951
343 1 18.8699 9.43438 18.8695 -8.9495
178 1 7.86167 1.5703 11.0069 -8.9516
179 1 11.0073 1.5712 11.0066 -8.9498
342 1 15.7259 9.434 18.8707 -8.94937
341 1 12.581 9.43298 18.8742 -8.95129
182 1 20.4415 1.57219 11.007 -8.94957
340 1 9.43308 9.43339 18.8722 -8.9475
339 1 6.28888 9.43461 18.8699 -8.94968
185 1 7.85805 4.70703 11.0075 -8.95823
186 1 11.0075 4.71272 11.0061 -8.95154
338 1 3.14427 9.43448 18.8695 -8.94952
337 1 1.58821e-05 9.43447 18.8693 -8.94958
336 1 20.4418 7.86197 20.4415 -8.94956
190 1 1.56982 7.86178 11.0072 -8.95194
191 1 4.70634 7.85827 11.0095 -8.95945
192 1 7.81733 7.82113 11.0389 -8.87869
193 1 11.0294 7.84668 11.0258 -8.94863
194 1 14.157 7.85979 11.0043 -8.95466
195 1 17.2986 7.86135 11.0064 -8.95024
196 1 20.4416 7.8618 11.0069 -8.95004
197 1 22.0136 4.09437e-16 12.5795 -8.94956
198 1 1.57181 1.57205 14.1522 -8.94951
199 1 3.14404 8.5244e-16 12.5797 -8.9494
200 1 4.71615 1.57123 14.1528 -8.94993
201 1 6.28903 2.82658e-16 12.5799 -8.95058
202 1 7.86173 1.57095 14.1528 -8.94983
203 1 9.43473 6.99546e-16 12.5798 -8.95097
204 1 11.0074 1.571 14.1527 -8.94968
205 1 12.5798 1.35608e-15 12.5794 -8.95037
206 1 14.1525 1.57126 14.1522 -8.95066
207 1 15.7247 5.61387e-16 12.5793 -8.94952
208 1 17.297 1.57205 14.1518 -8.94967
209 1 18.8693 1.10604e-15 12.5794 -8.94955
210 1 20.4415 1.57222 14.1519 -8.94953
211 1 -0.000481891 3.14435 12.5796 -8.94946
212 1 1.57082 4.7163 14.1528 -8.94967
213 1 3.14327 3.14346 12.5801 -8.94919
214 1 4.71269 4.71301 14.156 -8.94441
215 1 6.28761 3.14069 12.581 -8.9513
216 1 7.85996 4.71186 14.1552 -8.94849
217 1 9.43469 3.14001 12.5805 -8.95304
218 1 11.0083 4.7122 14.155 -8.94606
219 1 12.5801 3.14183 12.5798 -8.95239
220 1 14.1553 4.71191 14.1547 -8.94984
221 1 15.725 3.14381 12.5792 -8.94949
222 1 17.298 4.71604 14.1521 -8.95026
223 1 18.8694 3.14434 12.5794 -8.94942
224 1 20.4415 4.71678 14.152 -8.94982
225 1 22.013 6.28919 12.5797 -8.95024
226 1 1.57157 7.86217 14.1523 -8.9499
227 1 3.14034 6.28754 12.5814 -8.95077
228 1 4.71457 7.86207 14.1534 -8.95282
229 1 6.27621 6.27615 12.5917 -8.92846
230 1 7.85308 7.85185 14.1653 -8.99258
231 1 9.43422 6.27094 12.5839 -8.9633
232 1 11.0103 7.85501 14.1631 -9.00072
233 1 12.5865 6.27726 12.5866 -8.95243
234 1 14.1662 7.84875 14.1649 -8.92878
235 1 15.7272 6.28758 12.5795 -8.95074
236 1 17.3011 7.86016 14.1536 -8.95159
237 1 18.87 6.28904 12.5793 -8.94976
238 1 20.4423 7.86179 14.1522 -8.95029
239 1 -0.000175678 9.4346 12.5797 -8.94974
240 1 3.14337 9.43532 12.58 -8.94923
241 1 6.28771 9.43769 12.5797 -9.00295
242 1 9.41412 9.36532 12.5777 -9.19458
243 1 12.6212 9.39821 12.6187 -8.90744
244 1 15.7333 9.43298 12.5825 -8.96078
245 1 18.8712 9.43444 12.5796 -8.95177
246 1 -0.000235331 9.69965e-16 15.7244 -8.94957
247 1 1.57193 1.57213 17.2971 -8.94921
248 1 3.14414 5.9819e-16 15.7249 -8.94953
249 1 4.71675 1.57193 17.2973 -8.94957
250 1 6.28925 4.82915e-16 15.725 -8.94961
251 1 7.86193 1.5719 17.2973 -8.9495
252 1 9.43456 5.18277e-16 15.725 -8.94953
253 1 11.0071 1.57186 17.2973 -8.94951
254 1 12.5798 9.68119e-16 15.7249 -8.94959
255 1 14.1522 1.57181 17.2972 -8.94954
256 1 15.7248 2.96111e-16 15.7246 -8.95002
257 1 17.2972 1.5719 17.2971 -8.94947
258 1 18.8692 5.80024e-16 15.7243 -8.94969
259 1 20.4415 1.57222 17.2968 -8.9496
260 1 22.0135 3.14443 15.7246 -8.94955
261 1 1.57196 4.71696 17.2972 -8.94989
262 1 3.14335 3.14359 15.7256 -8.94822
263 1 4.7157 4.71585 17.2987 -8.94905
264 1 6.2886 3.14302 15.7258 -8.94946
265 1 7.86149 4.71577 17.2983 -8.94948
266 1 9.43446 3.143 15.7256 -8.94932
267 1 11.007 4.71559 17.2984 -8.94921
268 1 12.5801 3.1428 15.7256 -8.94921
269 1 14.1529 4.71519 17.2984 -8.94984
270 1 15.7256 3.14291 15.7254 -8.94937
271 1 17.2982 4.71573 17.2979 -8.94817
272 1 18.8695 3.1443 15.7245 -8.94982
273 1 20.4419 4.71684 17.297 -8.9496
274 1 -2.19576e-05 6.28944 15.7246 -8.94991
275 1 1.57204 7.86202 17.2971 -8.9495
276 1 3.14347 6.28929 15.7253 -8.95062
277 1 4.7163 7.86215 17.2976 -8.94978
278 1 6.28565 6.28592 15.7299 -8.94836
279 1 7.86037 7.86049 17.3005 -8.95208
280 1 9.43399 6.28583 15.7278 -8.94863
281 1 11.0063 7.86033 17.3012 -8.95055
282 1 12.5815 6.28499 15.7289 -8.95085
283 1 14.156 7.85805 17.3028 -8.94804
284 1 15.7291 6.28506 15.7285 -8.9441
285 1 17.2986 7.86118 17.2981 -8.94972
286 1 18.8707 6.28868 15.7251 -8.9498
287 1 20.442 7.86187 17.2971 -8.94958
288 1 22.0139 9.43444 15.7247 -8.94962
289 1 3.14381 9.4346 15.7251 -8.94922
290 1 6.28845 9.43544 15.7255 -8.95004
291 1 9.43157 9.43055 15.7288 -8.99963
292 1 12.589 9.42542 15.7412 -8.98481
293 1 15.7289 9.43317 15.728 -8.94994
294 1 18.8708 9.4342 15.7252 -8.94948
295 1 22.0138 6.37476e-16 18.8692 -8.94935
296 1 1.57219 1.57222 20.4415 -8.94941
297 1 3.14456 -5.15295e-17 18.8694 -8.94957
298 1 4.71707 1.5722 20.4416 -8.94959
299 1 6.28952 -1.17962e-15 18.8694 -8.94957
300 1 7.862 1.57214 20.4416 -8.94956
301 1 9.43449 -4.79869e-16 18.8694 -8.94958
302 1 11.007 1.57213 20.4416 -8.94957
303 1 12.5795 -4.17579e-16 18.8694 -8.94957
304 1 14.1519 1.57214 20.4416 -8.94956
305 1 15.7245 -4.33511e-16 18.8693 -8.94958
306 1 17.2969 1.57215 20.4416 -8.94961
307 1 18.8693 -9.67478e-17 18.8693 -8.94944
308 1 20.4416 1.57228 20.4415 -8.94934
309 1 -2.91385e-05 3.14464 18.8693 -8.94962
310 1 1.57225 4.71715 20.4416 -8.94971
311 1 3.14426 3.14432 18.8696 -8.94938
312 1 4.71667 4.71674 20.4417 -8.94992
313 1 6.28933 3.14423 18.8697 -8.94957
314 1 7.86174 4.71652 20.4417 -8.94954
315 1 9.43441 3.1441 18.8697 -8.94952
316 1 11.0069 4.71644 20.4417 -8.94954
317 1 12.5795 3.14409 18.8697 -8.9495
318 1 14.1521 4.71643 20.4417 -8.94972
319 1 15.7247 3.14405 18.8696 -8.94964
320 1 17.2975 4.71643 20.4417 -8.94928
321 1 18.8696 3.14434 18.8694 -8.94919
322 1 20.4418 4.71704 20.4415 -8.94958
323 1 22.0139 6.28954 18.8693 -8.94958
324 1 1.5722 7.86203 20.4416 -8.94955
325 1 3.14437 6.28956 18.8695 -8.94974
326 1 4.71674 7.86208 20.4417 -8.9496
327 1 6.28866 6.28884 18.8707 -8.95037
328 1 7.86132 7.86153 20.4424 -8.95014
329 1 9.434 6.28839 18.8705 -8.94952
330 1 11.0066 7.86132 20.4424 -8.94998
331 1 12.5796 6.28838 18.8707 -8.95002
332 1 14.1529 7.86094 20.4426 -8.9505
333 1 15.7259 6.28797 18.8709 -8.94903
334 1 17.2976 7.86166 20.4416 -8.94944
335 1 18.8698 6.28923 18.8695 -8.9496
49 1 18.8698 9.43439 22.0136 -8.9495
5 1 6.28956 -7.32668e-16 22.0137 -8.94955
9 1 12.5795 -1.23169e-16 22.0137 -8.94956
15 1 22.0139 3.14466 22.0138 -8.9496
17 1 3.14435 3.14439 22.0135 -8.94947
21 1 9.43444 3.14424 22.0136 -8.94952
23 1 12.5795 3.14424 22.0136 -8.94949
27 1 18.8696 3.14435 22.0137 -8.94912
29 1 5.13519e-05 6.28957 22.0138 -8.94954
33 1 6.28899 6.28914 22.0133 -8.95058
39 1 15.7254 6.28846 22.0131 -8.94992
46 1 9.43405 9.43439 22.0143 -8.94939
47 1 12.5798 9.43414 22.0133 -8.95188
1 1 -0.000130978 8.92843e-16 22.0138 -8.94931
13 1 18.8693 -1.10285e-16 22.0138 -8.94942
44 1 3.14442 9.4345 22.0137 -8.94955
181 1 17.2971 1.57204 11.0069 -8.94953
344 1 1.57215 11.007 1.57198 -8.94958
345 1 4.71661 11.007 1.57171 -8.94964
346 1 7.86183 11.007 1.57258 -8.94815
347 1 11.007 11.007 1.57219 -8.94689
348 1 14.1544 11.007 1.56878 -8.94948
349 1 17.2983 11.007 1.57114 -8.94941
350 1 20.442 11.007 1.57196 -8.94952
351 1 22.0139 12.5794 -0.000159701 -8.94957
352 1 1.57218 14.1519 1.57203 -8.94942
537 1 14.1524 20.4421 11.0068 -8.94938
354 1 4.71675 14.1516 1.57177 -8.94966
355 1 6.28916 12.5793 -9.11988e-05 -8.94938
356 1 7.86157 14.1522 1.57053 -8.95254
688 3 10.1505 11.007 9.40201 2.34124
358 1 11.0066 14.153 1.56991 -8.95065
511 1 18.8694 18.8696 9.4345 -8.94957
360 1 14.1537 14.1536 1.56892 -8.95173
361 1 15.7256 12.5798 -0.000919306 -8.94927
362 1 17.2982 14.1526 1.57117 -8.94915
510 1 15.7251 18.8701 9.43445 -8.9496
364 1 20.442 14.152 1.57199 -8.94946
509 1 12.5801 18.8705 9.43403 -8.94876
366 1 1.57206 17.2969 1.57197 -8.94984
367 1 3.1445 15.7243 -0.000194019 -8.94973
368 1 4.71607 17.2977 1.57085 -8.9495
508 1 9.43433 18.8708 9.43424 -8.94638
370 1 7.86166 17.2977 1.57115 -8.94912
371 1 9.4341 15.7251 -0.000657862 -8.94958
372 1 11.007 17.2978 1.5712 -8.94935
373 1 12.5795 15.7252 -0.000733944 -8.94967
374 1 14.1525 17.298 1.57116 -8.94968
507 1 6.2869 18.8734 9.43412 -8.94935
376 1 17.2981 17.2981 1.57128 -8.94816
377 1 18.8697 15.7246 -0.00028234 -8.94952
378 1 20.4419 17.297 1.57206 -8.94957
506 1 3.14318 18.8705 9.43446 -8.94948
380 1 1.57197 20.4418 1.572 -8.94917
505 1 22.0134 18.8696 9.43451 -8.94953
382 1 4.71693 20.4419 1.57193 -8.94964
383 1 6.28941 18.8696 -0.000306136 -8.9495
384 1 7.86199 20.4419 1.57193 -8.94949
504 1 18.87 15.7251 9.43451 -8.94956
386 1 11.007 20.4419 1.57194 -8.94953
503 1 15.7266 15.7265 9.43427 -8.9462
388 1 14.152 20.4419 1.57202 -8.9495
389 1 15.7246 18.8697 -0.000277496 -8.94969
390 1 17.2971 20.442 1.57202 -8.9495
502 1 12.5797 15.7264 9.43222 -8.94588
392 1 20.4415 20.4417 1.57226 -8.94955
393 1 1.57173 11.007 4.71639 -8.94949
394 1 4.71565 11.007 4.71543 -8.94615
395 1 7.86461 11.007 4.71995 -8.94587
396 1 11.0125 11.007 4.72078 -9.00141
397 1 14.163 11.007 4.70663 -8.94152
398 1 17.3013 11.007 4.71485 -8.94909
399 1 20.4426 11.007 4.71661 -8.94993
400 1 9.9773e-05 12.5795 3.1443 -8.94955
401 1 1.57166 14.1518 4.71667 -8.94978
402 1 3.14406 12.5793 3.14395 -8.94896
403 1 4.71488 14.1518 4.71543 -8.9514
404 1 6.28926 12.5785 3.14406 -8.94916
405 1 7.85626 14.1579 4.70681 -8.95498
406 1 9.43511 12.5794 3.14372 -8.95113
407 1 11.0076 14.157 4.70791 -8.9517
408 1 12.5825 12.5808 3.13642 -8.9598
409 1 14.1652 14.1643 4.70387 -8.9302
410 1 15.7282 12.5808 3.14106 -8.94742
411 1 17.3011 14.1539 4.71516 -8.95079
412 1 18.8707 12.5797 3.14381 -8.94928
413 1 20.4424 14.1522 4.71678 -8.95016
414 1 22.0139 15.7244 3.14442 -8.94982
415 1 1.57086 17.2976 4.71624 -8.94968
416 1 3.14374 15.7245 3.14377 -8.95034
417 1 4.71283 17.3008 4.71288 -8.94419
418 1 6.28683 15.7268 3.1403 -8.9503
419 1 7.86079 17.3002 4.71438 -8.94883
420 1 9.43386 15.7267 3.14152 -8.94772
421 1 11.0075 17.3 4.71459 -8.94769
422 1 12.5806 15.727 3.14114 -8.9493
423 1 14.1549 17.3015 4.71423 -8.94975
424 1 15.7286 15.7286 3.14065 -8.94454
425 1 17.298 17.298 4.71669 -8.94999
426 1 18.8706 15.7252 3.14393 -8.94968
427 1 20.4415 17.2971 4.717 -8.94987
428 1 22.0135 18.8695 3.14444 -8.94955
429 1 1.57183 20.4418 4.71687 -8.94948
430 1 3.14345 18.8703 3.14347 -8.94813
431 1 4.71629 20.4426 4.71622 -8.95002
432 1 6.28903 18.8704 3.14356 -8.94959
433 1 7.86196 20.4425 4.71639 -8.94961
434 1 9.43446 18.8704 3.14369 -8.94937
435 1 11.0073 20.4425 4.71644 -8.94958
436 1 12.5798 18.8704 3.14381 -8.94913
437 1 14.1523 20.4425 4.71679 -8.95065
438 1 15.7254 18.8708 3.14372 -8.94942
439 1 17.297 20.4419 4.71714 -8.94966
440 1 18.8695 18.8696 3.14456 -8.94972
441 1 20.4414 20.4417 4.71714 -8.94953
442 1 1.57178 11.007 7.86168 -8.94771
443 1 4.71904 11.007 7.86236 -8.94068
444 1 7.88192 11.007 7.87087 -8.8747
445 1 11.0941 11.007 7.63847 -8.15339
446 1 14.162 11.007 7.85361 -8.97172
447 1 17.2997 11.007 7.86231 -8.95149
448 1 20.4421 11.007 7.86215 -8.94961
449 1 22.0138 12.5793 6.28931 -8.9499
450 1 1.56978 14.1522 7.86173 -8.95189
451 1 3.14316 12.5787 6.2889 -8.94969
452 1 4.70623 14.1558 7.85916 -8.95844
453 1 6.28609 12.5769 6.28834 -8.9515
454 1 7.81858 14.1911 7.82542 -8.84612
455 1 9.42177 12.6016 6.28392 -8.90978
456 1 11.0229 14.1637 7.83456 -8.89774
457 1 12.621 12.6133 6.25029 -8.85902
458 1 14.1586 14.1558 7.86108 -8.94941
459 1 15.735 12.582 6.28558 -8.95746
460 1 17.2987 14.1524 7.86279 -8.95086
461 1 18.8717 12.5797 6.28928 -8.95165
462 1 20.4416 14.1521 7.86216 -8.95009
463 1 22.013 15.7247 6.28928 -8.95027
464 1 1.57071 17.2977 7.86167 -8.94934
465 1 3.14034 15.7263 6.28745 -8.95093
466 1 4.71303 17.3007 7.86037 -8.94722
467 1 6.27586 15.7375 6.27668 -8.92855
468 1 7.85876 17.3055 7.86022 -8.95962
469 1 9.43337 15.7335 6.28375 -8.94936
470 1 11.0064 17.2995 7.86129 -8.95235
471 1 12.5863 15.7357 6.28183 -8.95245
472 1 14.1532 17.2988 7.86197 -8.94869
473 1 15.7276 15.7269 6.28862 -8.9504
474 1 17.2977 17.2977 7.86201 -8.94897
475 1 18.87 15.7248 6.28965 -8.95005
476 1 20.4415 17.2972 7.86198 -8.94957
477 1 -0.000482299 18.8695 6.28943 -8.94947
478 1 1.57175 20.4419 7.86194 -8.94952
479 1 3.14328 18.8704 6.2888 -8.94912
480 1 4.71597 20.4428 7.86153 -8.94931
481 1 6.2878 18.8729 6.28783 -8.95168
482 1 7.86184 20.4433 7.86178 -8.95142
483 1 9.43465 18.8721 6.28834 -8.95039
484 1 11.0071 20.4423 7.86198 -8.94955
485 1 12.5799 18.8716 6.28908 -8.9525
486 1 14.1524 20.4422 7.86197 -8.94946
487 1 15.725 18.8702 6.28958 -8.94951
488 1 17.2971 20.4419 7.86204 -8.94955
489 1 18.8694 18.8695 6.28958 -8.94944
490 1 20.4415 20.4417 7.86204 -8.94957
491 1 22.0132 12.5793 9.43452 -8.94951
492 1 3.14192 12.579 9.43438 -8.95113
493 1 6.28084 12.5881 9.43338 -8.9711
494 1 9.35568 12.8317 9.43169 -8.13478
495 1 12.5649 12.5821 9.42069 -8.93415
496 1 15.7223 12.5785 9.43512 -8.94431
497 1 18.8695 12.5795 9.43472 -8.94799
498 1 -0.00106412 15.7249 9.43451 -8.95002
499 1 3.1401 15.7267 9.43444 -8.94924
500 1 6.27785 15.7356 9.43354 -8.94085
501 1 9.42917 15.7231 9.43392 -9.00733
526 1 1.57071 17.2977 11.0073 -8.94929
527 1 4.71308 17.3006 11.0083 -8.94767
530 1 14.1529 17.2983 11.0062 -8.949
531 1 17.2977 17.2977 11.0069 -8.94896
532 1 20.4415 17.2972 11.007 -8.94955
534 1 4.71598 20.4427 11.0073 -8.94933
517 1 17.2972 11.007 11.0066 -8.94684
518 1 20.4417 11.007 11.0069 -8.94881
512 1 1.57179 11.007 11.0073 -8.94761
513 1 4.71936 11.007 11.006 -8.94146
514 1 7.881 11.007 10.9901 -8.90492
515 1 11.1515 11.007 11.1332 -8.48645
516 1 14.1468 11.007 11.0146 -9.02437
391 1 18.8696 18.8696 22.0137 -8.94912
387 1 12.5795 18.8697 22.0136 -8.94949
519 1 1.56982 14.1521 11.0072 -8.95194
520 1 4.70634 14.1556 11.0095 -8.95945
521 1 7.81733 14.1928 11.0389 -8.87869
522 1 11.0294 14.1672 11.0258 -8.94863
523 1 14.157 14.1541 11.0043 -8.95466
524 1 17.2986 14.1525 11.0064 -8.95024
525 1 20.4416 14.1521 11.0069 -8.95004
687 2 10.1585 11.007 12.6392 0.852496
686 1 20.4416 20.4416 20.4415 -8.94934
528 1 7.85805 17.3069 11.0075 -8.95823
529 1 11.0075 17.3012 11.0061 -8.95154
685 1 18.8696 18.8696 18.8694 -8.94919
684 1 17.2969 20.4417 20.4416 -8.94961
683 1 15.7247 18.8699 18.8696 -8.94964
533 1 1.57175 20.4419 11.0071 -8.94951
682 1 14.1519 20.4418 20.4416 -8.94956
535 1 7.86167 20.4436 11.0069 -8.9516
536 1 11.0073 20.4427 11.0066 -8.9498
681 1 12.5795 18.8698 18.8697 -8.9495
680 1 11.007 20.4418 20.4416 -8.94957
539 1 20.4415 20.4417 11.007 -8.94957
540 1 1.57168 11.007 14.1526 -8.9494
541 1 4.71593 11.007 14.1533 -8.94571
542 1 7.86647 11.007 14.1486 -8.97708
543 1 11.0379 11.007 14.224 -9.25856
544 1 14.1596 11.007 14.162 -8.99141
545 1 17.3007 11.007 14.154 -8.9481
546 1 20.4424 11.007 14.1524 -8.94983
547 1 -0.000175678 12.5793 12.5797 -8.94974
548 1 1.57157 14.1517 14.1523 -8.9499
549 1 3.14337 12.5786 12.58 -8.94923
550 1 4.71457 14.1518 14.1534 -8.95282
551 1 6.28771 12.5762 12.5797 -9.00295
552 1 7.85308 14.1621 14.1653 -8.99258
553 1 9.41412 12.6486 12.5777 -9.19458
554 1 11.0103 14.1589 14.1631 -9.00072
555 1 12.6212 12.6157 12.6187 -8.90744
556 1 14.1662 14.1652 14.1649 -8.92878
557 1 15.7333 12.5809 12.5825 -8.96078
558 1 17.3011 14.1537 14.1536 -8.95159
559 1 18.8712 12.5795 12.5796 -8.95177
560 1 20.4423 14.1521 14.1522 -8.95029
561 1 22.013 15.7247 12.5797 -8.95024
562 1 1.57082 17.2976 14.1528 -8.94967
563 1 3.14034 15.7264 12.5814 -8.95077
564 1 4.71269 17.3009 14.156 -8.94441
565 1 6.27621 15.7378 12.5917 -8.92846
566 1 7.85996 17.302 14.1552 -8.94849
567 1 9.43422 15.743 12.5839 -8.9633
568 1 11.0083 17.3017 14.155 -8.94606
569 1 12.5865 15.7366 12.5866 -8.95243
570 1 14.1553 17.302 14.1547 -8.94984
571 1 15.7272 15.7263 12.5795 -8.95074
572 1 17.298 17.2979 14.1521 -8.95026
573 1 18.87 15.7249 12.5793 -8.94976
574 1 20.4415 17.2971 14.152 -8.94982
575 1 -0.000481891 18.8696 12.5796 -8.94946
576 1 1.57181 20.4419 14.1522 -8.94951
577 1 3.14327 18.8704 12.5801 -8.94919
578 1 4.71615 20.4427 14.1528 -8.94993
579 1 6.28761 18.8732 12.581 -8.9513
580 1 7.86173 20.443 14.1528 -8.94983
581 1 9.43469 18.8739 12.5805 -8.95304
582 1 11.0074 20.4429 14.1527 -8.94968
583 1 12.5801 18.8721 12.5798 -8.95239
584 1 14.1525 20.4426 14.1522 -8.95066
585 1 15.725 18.8701 12.5792 -8.94949
586 1 17.297 20.4418 14.1518 -8.94967
587 1 18.8694 18.8696 12.5794 -8.94942
588 1 20.4415 20.4417 14.1519 -8.94953
589 1 1.572 11.007 17.2972 -8.94959
590 1 4.71623 11.007 17.2978 -8.9491
591 1 7.86191 11.007 17.2976 -8.94793
592 1 11.0072 11.007 17.3121 -8.96807
593 1 14.1548 11.007 17.3021 -8.94874
594 1 17.2985 11.007 17.2982 -8.94925
595 1 20.442 11.007 17.2972 -8.94956
596 1 22.0139 12.5795 15.7247 -8.94962
597 1 1.57204 14.1519 17.2971 -8.9495
598 1 3.14381 12.5793 15.7251 -8.94922
599 1 4.7163 14.1518 17.2976 -8.94978
600 1 6.28845 12.5785 15.7255 -8.95004
601 1 7.86037 14.1534 17.3005 -8.95208
602 1 9.43157 12.5834 15.7288 -8.99963
603 1 11.0063 14.1536 17.3012 -8.95055
604 1 12.589 12.5885 15.7412 -8.98481
605 1 14.156 14.1559 17.3028 -8.94804
606 1 15.7289 12.5807 15.728 -8.94994
607 1 17.2986 14.1527 17.2981 -8.94972
608 1 18.8708 12.5797 15.7252 -8.94948
609 1 20.442 14.152 17.2971 -8.94958
610 1 -2.19576e-05 15.7245 15.7246 -8.94991
611 1 1.57196 17.2969 17.2972 -8.94989
612 1 3.14347 15.7246 15.7253 -8.95062
613 1 4.7157 17.298 17.2987 -8.94905
614 1 6.28565 15.728 15.7299 -8.94836
615 1 7.86149 17.2981 17.2983 -8.94948
616 1 9.43399 15.7281 15.7278 -8.94863
617 1 11.007 17.2983 17.2984 -8.94921
618 1 12.5815 15.7289 15.7289 -8.95085
619 1 14.1529 17.2987 17.2984 -8.94984
620 1 15.7291 15.7288 15.7285 -8.9441
621 1 17.2982 17.2982 17.2979 -8.94817
622 1 18.8707 15.7252 15.7251 -8.9498
623 1 20.4419 17.2971 17.297 -8.9496
624 1 22.0135 18.8695 15.7246 -8.94955
625 1 1.57193 20.4418 17.2971 -8.94921
626 1 3.14335 18.8703 15.7256 -8.94822
627 1 4.71675 20.442 17.2973 -8.94957
628 1 6.2886 18.8709 15.7258 -8.94946
629 1 7.86193 20.442 17.2973 -8.9495
630 1 9.43446 18.8709 15.7256 -8.94932
631 1 11.0071 20.442 17.2973 -8.94951
632 1 12.5801 18.8711 15.7256 -8.94921
633 1 14.1522 20.4421 17.2972 -8.94954
634 1 15.7256 18.871 15.7254 -8.94937
635 1 17.2972 20.442 17.2971 -8.94947
636 1 18.8695 18.8696 15.7245 -8.94982
637 1 20.4415 20.4417 17.2968 -8.9496
638 1 1.57218 11.007 20.4416 -8.94959
639 1 4.71666 11.007 20.4417 -8.94965
640 1 7.86144 11.007 20.4422 -8.94879
641 1 11.0066 11.007 20.4446 -8.95229
642 1 14.153 11.007 20.4424 -8.94988
643 1 17.2976 11.007 20.4417 -8.94946
644 1 20.4418 11.007 20.4415 -8.94957
645 1 1.58821e-05 12.5794 18.8693 -8.94958
646 1 1.5722 14.1519 20.4416 -8.94955
647 1 3.14427 12.5794 18.8695 -8.94952
648 1 4.71674 14.1518 20.4417 -8.9496
649 1 6.28888 12.5793 18.8699 -8.94968
650 1 7.86132 14.1524 20.4424 -8.95014
651 1 9.43308 12.5805 18.8722 -8.9475
652 1 11.0066 14.1526 20.4424 -8.94998
653 1 12.581 12.5809 18.8742 -8.95129
654 1 14.1529 14.153 20.4426 -8.9505
655 1 15.7259 12.5799 18.8707 -8.94937
656 1 17.2976 14.1522 20.4416 -8.94944
657 1 18.8699 12.5795 18.8695 -8.9495
658 1 20.4418 14.1519 20.4415 -8.94956
659 1 22.0139 15.7244 18.8693 -8.94958
660 1 1.57225 17.2968 20.4416 -8.94971
661 1 3.14437 15.7243 18.8695 -8.94974
662 1 4.71667 17.2972 20.4417 -8.94992
663 1 6.28866 15.7251 18.8707 -8.95037
664 1 7.86174 17.2974 20.4417 -8.94954
665 1 9.434 15.7255 18.8705 -8.94952
666 1 11.0069 17.2975 20.4417 -8.94954
667 1 12.5796 15.7255 18.8707 -8.95002
668 1 14.1521 17.2975 20.4417 -8.94972
669 1 15.7259 15.7259 18.8709 -8.94903
670 1 17.2975 17.2975 20.4417 -8.94928
671 1 18.8698 15.7247 18.8695 -8.9496
672 1 20.4418 17.2969 20.4415 -8.94958
673 1 -2.91385e-05 18.8693 18.8693 -8.94962
674 1 1.57219 20.4417 20.4415 -8.94941
675 1 3.14426 18.8696 18.8696 -8.94938
676 1 4.71707 20.4417 20.4416 -8.94959
677 1 6.28933 18.8697 18.8697 -8.94957
678 1 7.862 20.4418 20.4416 -8.94956
679 1 9.43441 18.8698 18.8697 -8.94952
357 1 9.43405 12.5795 22.0143 -8.94939
359 1 12.5798 12.5798 22.0133 -8.95188
363 1 18.8698 12.5795 22.0136 -8.9495
365 1 5.13519e-05 15.7243 22.0138 -8.94954
369 1 6.28899 15.7248 22.0133 -8.95058
375 1 15.7254 15.7254 22.0131 -8.94992
379 1 22.0139 18.8692 22.0138 -8.9496
381 1 3.14435 18.8695 22.0135 -8.94947
385 1 9.43444 18.8697 22.0136 -8.94952
353 1 3.14442 12.5794 22.0137 -8.94955
538 1 17.2971 20.4419 11.0069 -8.94953
