ITEM: TIMESTEP
48
ITEM: NUMBER OF ATOMS
688
ITEM: BOX BOUNDS pp pp pp
0.0000000000000000e+00 2.2013900999999997e+01
0.0000000000000000e+00 2.2013900999999997e+01
0.0000000000000000e+00 2.2013900999999997e+01
ITEM: ATOMS id type x y z c_pot
189 1 20.4415 4.71726 11.007 -8.94963
2 1 1.57242 1.57242 1.57242 -8.94963
175 1 18.8691 9.43452 9.43453 -8.94966
4 1 4.71726 1.57242 1.57242 -8.94964
174 1 15.7247 9.43431 9.43459 -8.94888
6 1 7.86211 1.57242 1.57242 -8.94963
7 1 9.43453 1.09335e-16 7.16722e-11 -8.94963
8 1 11.007 1.57242 1.57242 -8.94963
173 1 12.5817 9.43066 9.43411 -8.94472
10 1 14.1518 1.57242 1.57242 -8.94963
11 1 15.7242 8.57002e-16 1.81127e-08 -8.94963
12 1 17.2966 1.57242 1.57242 -8.94963
188 1 17.2966 4.71727 11.007 -8.94967
14 1 20.4415 1.57242 1.57242 -8.94963
172 1 9.36383 9.27579 9.43472 -8.09201
16 1 1.57242 4.71726 1.57242 -8.94963
171 1 6.28387 9.43338 9.43418 -8.96383
18 1 4.71726 4.71726 1.57242 -8.94963
19 1 6.28969 3.14484 1.87949e-07 -8.94963
20 1 7.86211 4.71726 1.57242 -8.94964
170 1 3.1445 9.43453 9.43451 -8.95098
22 1 11.007 4.71726 1.57242 -8.94964
169 1 22.0139 9.43453 9.43453 -8.94972
24 1 14.1518 4.71727 1.57242 -8.94967
25 1 15.7242 3.14484 1.40119e-07 -8.94964
26 1 17.2966 4.71726 1.57242 -8.94961
168 1 18.8691 6.28968 9.43453 -8.94962
28 1 20.4415 4.71726 1.57242 -8.94963
167 1 15.7242 6.28964 9.4345 -8.9493
30 1 1.57242 7.86211 1.57242 -8.94963
31 1 3.14484 6.28969 1.88158e-07 -8.94963
32 1 4.71726 7.86211 1.57242 -8.94964
166 1 12.5793 6.28946 9.4345 -8.95123
34 1 7.86209 7.86209 1.57237 -8.94971
35 1 9.43453 6.28969 -4.66326e-07 -8.94964
36 1 11.0069 7.8621 1.5724 -8.94962
37 1 12.5794 6.28969 1.13622e-06 -8.94964
38 1 14.1518 7.86208 1.57236 -8.94965
165 1 9.43421 6.28286 9.43461 -8.9797
40 1 17.2966 7.86211 1.57242 -8.94967
41 1 18.8691 6.28969 1.0747e-07 -8.94964
42 1 20.4415 7.86211 1.57242 -8.94963
43 1 22.0139 9.43453 -2.86569e-09 -8.94963
187 1 14.1518 4.71721 11.0069 -8.94984
45 1 6.28969 9.43453 6.19857e-07 -8.94965
164 1 6.28932 6.28927 9.4345 -8.95035
163 1 3.14482 6.28968 9.43454 -8.94962
48 1 15.7242 9.43453 9.42869e-08 -8.94963
162 1 -4.02682e-07 6.28969 9.43453 -8.94963
50 1 1.10504e-08 3.15221e-16 3.14484 -8.94963
51 1 1.57242 1.57242 4.71726 -8.94964
52 1 3.14484 3.14862e-17 3.14484 -8.94963
53 1 4.71726 1.57242 4.71726 -8.94963
54 1 6.28969 5.06043e-16 3.14484 -8.94963
55 1 7.86211 1.57242 4.71727 -8.94963
56 1 9.43453 5.62511e-16 3.14484 -8.94963
57 1 11.007 1.57242 4.71726 -8.94963
58 1 12.5794 1.27779e-15 3.14484 -8.94963
59 1 14.1518 1.57242 4.71726 -8.94963
60 1 15.7242 1.33203e-15 3.14484 -8.94963
61 1 17.2966 1.57242 4.71726 -8.94963
62 1 18.8691 4.59635e-16 3.14484 -8.94963
63 1 20.4415 1.57242 4.71726 -8.94963
64 1 22.0139 3.14484 3.14484 -8.94963
65 1 1.57242 4.71726 4.71726 -8.94963
66 1 3.14484 3.14484 3.14484 -8.94961
67 1 4.71722 4.71722 4.71722 -8.94926
68 1 6.28969 3.14485 3.14485 -8.94967
69 1 7.86212 4.71728 4.71728 -8.94995
70 1 9.43453 3.14484 3.14484 -8.94964
71 1 11.0069 4.71725 4.71724 -8.9496
72 1 12.5794 3.14484 3.14484 -8.94964
73 1 14.1518 4.71721 4.71724 -8.94965
74 1 15.7242 3.14484 3.14484 -8.94963
75 1 17.2966 4.71727 4.71726 -8.94966
76 1 18.8691 3.14484 3.14484 -8.94963
77 1 20.4415 4.71726 4.71726 -8.94963
78 1 22.0139 6.28969 3.14484 -8.94963
79 1 1.57242 7.86211 4.71726 -8.94963
80 1 3.14484 6.28969 3.14484 -8.94966
81 1 4.71725 7.8621 4.71726 -8.94983
82 1 6.28966 6.28966 3.14478 -8.94965
83 1 7.86181 7.86183 4.71649 -8.951
84 1 9.43454 6.28967 3.14483 -8.9496
85 1 11.0068 7.86203 4.71696 -8.9514
86 1 12.5794 6.2897 3.14486 -8.94994
87 1 14.1526 7.86127 4.71644 -8.94434
88 1 15.7243 6.28964 3.1448 -8.94926
89 1 17.2967 7.86208 4.71724 -8.94969
90 1 18.8691 6.28968 3.14484 -8.94963
91 1 20.4415 7.86211 4.71726 -8.94964
92 1 1.38165e-07 9.43453 3.14484 -8.94963
93 1 3.14484 9.43453 3.14484 -8.94965
94 1 6.28967 9.43454 3.14482 -8.94976
95 1 9.43428 9.43428 3.14444 -8.94892
96 1 12.5797 9.43424 3.14405 -8.95111
97 1 15.7242 9.43453 3.14485 -8.94985
98 1 18.8691 9.43453 3.14484 -8.94963
99 1 22.0139 1.23128e-15 6.28969 -8.94963
100 1 1.57242 1.57242 7.86211 -8.94963
101 1 3.14484 1.46433e-16 6.28969 -8.94963
102 1 4.71726 1.57242 7.86211 -8.94963
103 1 6.28968 9.68173e-16 6.28968 -8.94965
104 1 7.8621 1.57238 7.8621 -8.94978
105 1 9.43453 1.87879e-15 6.28969 -8.94963
106 1 11.007 1.5724 7.8621 -8.94967
107 1 12.5794 5.79495e-16 6.28968 -8.94964
108 1 14.1518 1.57242 7.86211 -8.94964
109 1 15.7242 7.77667e-16 6.28969 -8.94963
110 1 17.2966 1.57242 7.86211 -8.94963
111 1 18.8691 8.58872e-16 6.28969 -8.94963
112 1 20.4415 1.57242 7.86211 -8.94963
113 1 1.8202e-07 3.14484 6.28969 -8.94963
114 1 1.57242 4.71727 7.86211 -8.94963
115 1 3.14484 3.14485 6.28969 -8.94967
116 1 4.71727 4.71727 7.86211 -8.94984
117 1 6.28965 3.14478 6.28965 -8.94965
118 1 7.86182 4.71648 7.86182 -8.95116
119 1 9.43454 3.14483 6.28968 -8.94962
120 1 11.0072 4.71687 7.86186 -8.94894
121 1 12.5794 3.14479 6.28967 -8.94971
122 1 14.1518 4.71724 7.86212 -8.94975
123 1 15.7242 3.14484 6.28969 -8.94964
124 1 17.2966 4.71726 7.86211 -8.94964
125 1 18.8691 3.14484 6.28969 -8.94963
126 1 20.4415 4.71726 7.86211 -8.94963
127 1 22.0139 6.28969 6.28969 -8.94964
128 1 1.57239 7.8621 7.8621 -8.94978
129 1 3.14479 6.28966 6.28966 -8.94968
130 1 4.71653 7.86188 7.86189 -8.95134
131 1 6.28887 6.28887 6.28885 -8.94437
132 1 7.85125 7.85184 7.85148 -8.88775
133 1 9.4347 6.28938 6.28962 -8.95141
134 1 11.0104 7.85992 7.85809 -8.93046
135 1 12.5797 6.28891 6.28941 -8.95107
136 1 14.1523 7.86173 7.86207 -8.94889
137 1 15.7242 6.28968 6.28967 -8.94982
138 1 17.2967 7.86209 7.86211 -8.94967
139 1 18.8691 6.28969 6.28969 -8.94963
140 1 20.4415 7.86211 7.86211 -8.94964
141 1 22.0139 9.43453 6.28968 -8.94964
142 1 3.1448 9.43453 6.28966 -8.94965
143 1 6.28914 9.43452 6.28931 -8.9492
144 1 9.431 9.43043 6.28742 -8.93024
145 1 12.5903 9.42388 6.27936 -8.88699
146 1 15.7249 9.43434 6.2895 -8.95158
147 1 18.8691 9.43452 6.28968 -8.94978
148 1 -6.1856e-09 6.43734e-16 9.43453 -8.94963
149 1 3.14484 1.53599e-15 9.43453 -8.94963
150 1 6.28968 1.74923e-15 9.43453 -8.94963
151 1 9.43453 1.41435e-16 9.43453 -8.94987
152 1 12.5794 1.10218e-15 9.43453 -8.94963
153 1 15.7242 1.23195e-18 9.43453 -8.94963
154 1 18.8691 8.42563e-16 9.43453 -8.94963
155 1 22.0139 3.14484 9.43453 -8.94963
156 1 3.14484 3.14484 9.43453 -8.94966
157 1 6.28967 3.14481 9.43452 -8.94955
158 1 9.43454 3.14437 9.43453 -8.9514
159 1 12.5794 3.14483 9.43452 -8.94963
160 1 15.7242 3.14484 9.43453 -8.94962
161 1 18.8691 3.14484 9.43453 -8.94964
177 1 4.71727 1.57242 11.007 -8.94963
180 1 14.1518 1.57242 11.0069 -8.94965
184 1 4.71727 4.71729 11.007 -8.94992
183 1 1.57242 4.71726 11.0069 -8.94963
3 1 3.14484 4.98441e-16 1.08738e-08 -8.94963
176 1 1.57242 1.57242 11.007 -8.94963
343 1 18.8691 9.43453 18.8691 -8.94963
178 1 7.86209 1.57238 11.007 -8.94977
179 1 11.007 1.57239 11.007 -8.94966
342 1 15.7242 9.43454 18.869 -8.9497
341 1 12.5795 9.43443 18.8692 -8.94935
182 1 20.4415 1.57242 11.007 -8.94963
340 1 9.43444 9.43443 18.8692 -8.9491
339 1 6.28967 9.43452 18.8691 -8.94972
185 1 7.86174 4.71641 11.0072 -8.95064
186 1 11.0073 4.71677 11.0071 -8.94847
338 1 3.14484 9.43453 18.8691 -8.94965
337 1 1.08622e-07 9.43453 18.8691 -8.94963
336 1 20.4415 7.86211 20.4415 -8.94963
190 1 1.57239 7.8621 11.007 -8.94977
191 1 4.7166 7.86198 11.0072 -8.95196
192 1 7.85051 7.85171 11.0162 -8.92249
193 1 11.0113 7.85948 11.0107 -8.98401
194 1 14.1527 7.86137 11.0067 -8.9484
195 1 17.2967 7.86207 11.0069 -8.94968
196 1 20.4415 7.86211 11.007 -8.94965
197 1 22.0139 -6.20685e-16 12.5794 -8.94963
198 1 1.57242 1.57242 14.1518 -8.94963
199 1 3.14484 -6.38212e-16 12.5794 -8.94963
200 1 4.71726 1.57242 14.1518 -8.94963
201 1 6.28968 1.1637e-15 12.5794 -8.94964
202 1 7.86211 1.57242 14.1518 -8.94963
203 1 9.43453 -4.93827e-16 12.5794 -8.94971
204 1 11.007 1.57242 14.1518 -8.94963
205 1 12.5794 -5.56599e-16 12.5794 -8.94965
206 1 14.1518 1.57242 14.1518 -8.94964
207 1 15.7242 5.30781e-17 12.5794 -8.94963
208 1 17.2966 1.57242 14.1518 -8.94963
209 1 18.8691 -1.26666e-16 12.5794 -8.94963
210 1 20.4415 1.57242 14.1518 -8.94963
211 1 1.13201e-07 3.14484 12.5794 -8.94963
212 1 1.57242 4.71726 14.1518 -8.94963
213 1 3.14484 3.14484 12.5794 -8.94966
214 1 4.71723 4.71723 14.1518 -8.94933
215 1 6.28966 3.1448 12.5794 -8.94961
216 1 7.86204 4.71721 14.1519 -8.94952
217 1 9.43454 3.14469 12.5794 -8.95043
218 1 11.007 4.71717 14.1519 -8.94904
219 1 12.5794 3.14478 12.5794 -8.94979
220 1 14.1518 4.71718 14.1518 -8.94972
221 1 15.7242 3.14484 12.5794 -8.94963
222 1 17.2966 4.71727 14.1518 -8.94967
223 1 18.8691 3.14484 12.5794 -8.94963
224 1 20.4415 4.71726 14.1518 -8.94963
225 1 22.0139 6.28969 12.5794 -8.94964
226 1 1.57243 7.86211 14.1518 -8.94962
227 1 3.14479 6.28966 12.5794 -8.94964
228 1 4.7173 7.86217 14.1517 -8.95032
229 1 6.28904 6.28907 12.5802 -8.94511
230 1 7.86098 7.86156 14.154 -8.98678
231 1 9.43473 6.28652 12.5794 -8.96076
232 1 11.0076 7.86207 14.1523 -9.00487
233 1 12.5797 6.28865 12.5797 -8.95207
234 1 14.153 7.8609 14.1529 -8.9429
235 1 15.7242 6.28968 12.5794 -8.94982
236 1 17.2967 7.86207 14.1518 -8.94973
237 1 18.8691 6.28969 12.5794 -8.94962
238 1 20.4415 7.86211 14.1518 -8.94965
239 1 1.43047e-06 9.43453 12.5794 -8.94963
240 1 3.14484 9.43451 12.5794 -8.94929
241 1 6.28989 9.43542 12.5797 -8.99917
242 1 9.41396 9.39474 12.581 -9.21527
243 1 12.5952 9.42032 12.5898 -8.92622
244 1 15.7253 9.4343 12.5796 -8.95273
245 1 18.8691 9.43453 12.5794 -8.9499
246 1 7.59254e-09 -3.97925e-18 15.7242 -8.94963
247 1 1.57242 1.57242 17.2966 -8.94963
248 1 3.14484 1.07155e-15 15.7242 -8.94963
249 1 4.71726 1.57242 17.2966 -8.94963
250 1 6.28969 6.65238e-16 15.7242 -8.94963
251 1 7.86211 1.57242 17.2966 -8.94963
252 1 9.43453 5.99193e-16 15.7242 -8.94963
253 1 11.007 1.57242 17.2966 -8.94964
254 1 12.5794 5.44964e-16 15.7242 -8.94963
255 1 14.1518 1.57242 17.2966 -8.94963
256 1 15.7242 1.74474e-15 15.7242 -8.94963
257 1 17.2966 1.57242 17.2966 -8.94963
258 1 18.8691 1.11565e-15 15.7242 -8.94963
259 1 20.4415 1.57242 17.2966 -8.94963
260 1 22.0139 3.14484 15.7242 -8.94963
261 1 1.57242 4.71727 17.2966 -8.94964
262 1 3.14484 3.14484 15.7242 -8.94962
263 1 4.71726 4.71726 17.2966 -8.94961
264 1 6.28968 3.14484 15.7242 -8.94964
265 1 7.86211 4.71727 17.2966 -8.94971
266 1 9.43453 3.14485 15.7242 -8.94964
267 1 11.0069 4.71727 17.2966 -8.94965
268 1 12.5794 3.14484 15.7242 -8.94962
269 1 14.1518 4.71727 17.2966 -8.94967
270 1 15.7242 3.14484 15.7242 -8.94963
271 1 17.2966 4.71726 17.2966 -8.9496
272 1 18.8691 3.14484 15.7242 -8.94964
273 1 20.4415 4.71726 17.2966 -8.94963
274 1 8.89661e-07 6.28969 15.7242 -8.94963
275 1 1.57242 7.86211 17.2966 -8.94963
276 1 3.14485 6.28969 15.7242 -8.9497
277 1 4.71724 7.86208 17.2967 -8.9495
278 1 6.28963 6.28961 15.7243 -8.94932
279 1 7.86207 7.86207 17.2968 -8.94989
280 1 9.43457 6.28972 15.7242 -8.95024
281 1 11.0069 7.86218 17.2966 -8.95029
282 1 12.5794 6.28961 15.7242 -8.9502
283 1 14.1519 7.86204 17.2967 -8.94929
284 1 15.7243 6.28962 15.7243 -8.94911
285 1 17.2966 7.86211 17.2966 -8.94971
286 1 18.8691 6.28968 15.7242 -8.94962
287 1 20.4415 7.86211 17.2966 -8.94963
288 1 22.0139 9.43453 15.7242 -8.94964
289 1 3.14481 9.43452 15.7242 -8.9497
290 1 6.28928 9.43429 15.7246 -8.94862
291 1 9.43338 9.43394 15.7247 -9.00222
292 1 12.5806 9.43273 15.7253 -8.98541
293 1 15.7242 9.4346 15.7241 -8.9504
294 1 18.8691 9.43453 15.7242 -8.94963
295 1 22.0139 1.23127e-15 18.8691 -8.94963
296 1 1.57242 1.57242 20.4415 -8.94963
297 1 3.14484 -4.48964e-17 18.8691 -8.94963
298 1 4.71726 1.57242 20.4415 -8.94963
299 1 6.28969 -9.93995e-16 18.8691 -8.94963
300 1 7.86211 1.57242 20.4415 -8.94963
301 1 9.43453 -8.42428e-18 18.8691 -8.94963
302 1 11.007 1.57242 20.4415 -8.94963
303 1 12.5794 4.5934e-16 18.8691 -8.94963
304 1 14.1518 1.57242 20.4415 -8.94963
305 1 15.7242 2.38009e-16 18.8691 -8.94963
306 1 17.2966 1.57242 20.4415 -8.94963
307 1 18.8691 -2.95869e-16 18.8691 -8.94963
308 1 20.4415 1.57242 20.4415 -8.94963
309 1 4.79776e-08 3.14484 18.8691 -8.94963
310 1 1.57242 4.71726 20.4415 -8.94963
311 1 3.14484 3.14484 18.8691 -8.94963
312 1 4.71726 4.71726 20.4415 -8.94963
313 1 6.28969 3.14484 18.8691 -8.94964
314 1 7.86211 4.71726 20.4415 -8.94964
315 1 9.43453 3.14484 18.8691 -8.94963
316 1 11.007 4.71726 20.4415 -8.94963
317 1 12.5794 3.14484 18.8691 -8.94963
318 1 14.1518 4.71726 20.4415 -8.94964
319 1 15.7242 3.14484 18.8691 -8.94964
320 1 17.2966 4.71726 20.4415 -8.94963
321 1 18.8691 3.14484 18.8691 -8.94963
322 1 20.4415 4.71726 20.4415 -8.94963
323 1 22.0139 6.28969 18.8691 -8.94963
324 1 1.57242 7.86211 20.4415 -8.94963
325 1 3.14484 6.28968 18.8691 -8.94962
326 1 4.71726 7.86211 20.4415 -8.94963
327 1 6.28968 6.28968 18.8691 -8.94963
328 1 7.8621 7.8621 20.4415 -8.94963
329 1 9.43453 6.28968 18.8691 -8.94965
330 1 11.007 7.86211 20.4415 -8.94964
331 1 12.5794 6.28969 18.8691 -8.94971
332 1 14.1518 7.8621 20.4415 -8.94962
333 1 15.7242 6.28968 18.8691 -8.94961
334 1 17.2966 7.86211 20.4415 -8.94964
335 1 18.8691 6.28969 18.8691 -8.94964
49 1 18.8691 9.43453 22.0139 -8.94963
5 1 6.28969 -2.82773e-16 22.0139 -8.94963
9 1 12.5794 -7.93044e-16 22.0139 -8.94963
15 1 22.0139 3.14484 22.0139 -8.94963
17 1 3.14484 3.14484 22.0139 -8.94963
21 1 9.43453 3.14484 22.0139 -8.94963
23 1 12.5794 3.14484 22.0139 -8.94963
27 1 18.8691 3.14484 22.0139 -8.94963
29 1 -1.0151e-09 6.28969 22.0139 -8.94963
33 1 6.28968 6.28968 22.0139 -8.94963
39 1 15.7242 6.28968 22.0139 -8.94962
46 1 9.43452 9.43451 22.0139 -8.94966
47 1 12.5794 9.43451 22.0139 -8.94978
1 1 -2.81829e-09 7.43645e-16 22.0139 -8.94963
13 1 18.8691 3.29636e-16 22.0139 -8.94963
44 1 3.14484 9.43453 22.0139 -8.94963
181 1 17.2966 1.57242 11.007 -8.94963
344 1 1.57242 11.007 1.57242 -8.94963
345 1 4.71726 11.007 1.57242 -8.94962
346 1 7.86211 11.007 1.57241 -8.94965
347 1 11.0069 11.007 1.57195 -8.95144
348 1 14.1518 11.007 1.57239 -8.94957
349 1 17.2966 11.007 1.57242 -8.94965
350 1 20.4415 11.007 1.57242 -8.94963
351 1 22.0139 12.5794 -2.86569e-09 -8.94963
352 1 1.57242 14.1518 1.57242 -8.94963
537 1 14.1518 20.4415 11.0069 -8.94965
354 1 4.71726 14.1518 1.57242 -8.94964
355 1 6.28969 12.5794 6.19857e-07 -8.94965
356 1 7.86209 14.1518 1.57237 -8.94971
688 3 10.2127 11.007 9.42606 2.88373
358 1 11.0069 14.1518 1.5724 -8.94962
511 1 18.8691 18.8691 9.43453 -8.94964
360 1 14.1518 14.1518 1.57236 -8.94965
361 1 15.7242 12.5794 9.42869e-08 -8.94963
362 1 17.2966 14.1518 1.57242 -8.94967
510 1 15.7242 18.8691 9.43453 -8.94962
364 1 20.4415 14.1518 1.57242 -8.94963
509 1 12.5794 18.8691 9.43452 -8.94963
366 1 1.57242 17.2966 1.57242 -8.94963
367 1 3.14484 15.7242 1.88158e-07 -8.94963
368 1 4.71726 17.2966 1.57242 -8.94963
508 1 9.43454 18.8695 9.43453 -8.9514
370 1 7.86211 17.2966 1.57242 -8.94964
371 1 9.43453 15.7242 -4.66326e-07 -8.94964
372 1 11.007 17.2966 1.57242 -8.94964
373 1 12.5794 15.7242 1.13622e-06 -8.94964
374 1 14.1518 17.2966 1.57242 -8.94967
507 1 6.28967 18.8691 9.43452 -8.94955
376 1 17.2966 17.2966 1.57242 -8.94961
377 1 18.8691 15.7242 1.0747e-07 -8.94964
378 1 20.4415 17.2966 1.57242 -8.94963
506 1 3.14484 18.8691 9.43453 -8.94966
380 1 1.57242 20.4415 1.57242 -8.94963
505 1 22.0139 18.8691 9.43453 -8.94963
382 1 4.71726 20.4415 1.57242 -8.94964
383 1 6.28969 18.8691 1.87949e-07 -8.94963
384 1 7.86211 20.4415 1.57242 -8.94963
504 1 18.8691 15.7242 9.43453 -8.94962
386 1 11.007 20.4415 1.57242 -8.94963
503 1 15.7242 15.7243 9.4345 -8.9493
388 1 14.1518 20.4415 1.57242 -8.94963
389 1 15.7242 18.8691 1.40119e-07 -8.94964
390 1 17.2966 20.4415 1.57242 -8.94963
502 1 12.5793 15.7244 9.4345 -8.95123
392 1 20.4415 20.4415 1.57242 -8.94963
393 1 1.57242 11.007 4.71726 -8.94963
394 1 4.71726 11.007 4.71725 -8.94945
395 1 7.86222 11.007 4.71711 -8.9512
396 1 11.0073 11.007 4.71036 -8.97932
397 1 14.1521 11.007 4.7169 -8.95057
398 1 17.2967 11.007 4.71725 -8.94958
399 1 20.4415 11.007 4.71726 -8.94963
400 1 1.38165e-07 12.5794 3.14484 -8.94963
401 1 1.57242 14.1518 4.71726 -8.94963
402 1 3.14484 12.5794 3.14484 -8.94965
403 1 4.71725 14.1518 4.71726 -8.94983
404 1 6.28967 12.5794 3.14482 -8.94976
405 1 7.86181 14.1521 4.71649 -8.951
406 1 9.43428 12.5796 3.14444 -8.94892
407 1 11.0068 14.1519 4.71696 -8.9514
408 1 12.5797 12.5797 3.14405 -8.95111
409 1 14.1526 14.1526 4.71644 -8.94434
410 1 15.7242 12.5794 3.14485 -8.94985
411 1 17.2967 14.1518 4.71724 -8.94969
412 1 18.8691 12.5794 3.14484 -8.94963
413 1 20.4415 14.1518 4.71726 -8.94964
414 1 22.0139 15.7242 3.14484 -8.94963
415 1 1.57242 17.2966 4.71726 -8.94963
416 1 3.14484 15.7242 3.14484 -8.94966
417 1 4.71722 17.2967 4.71722 -8.94926
418 1 6.28966 15.7242 3.14478 -8.94965
419 1 7.86212 17.2966 4.71728 -8.94995
420 1 9.43454 15.7242 3.14483 -8.9496
421 1 11.0069 17.2966 4.71724 -8.9496
422 1 12.5794 15.7242 3.14486 -8.94994
423 1 14.1518 17.2967 4.71724 -8.94965
424 1 15.7243 15.7243 3.1448 -8.94926
425 1 17.2966 17.2966 4.71726 -8.94966
426 1 18.8691 15.7242 3.14484 -8.94963
427 1 20.4415 17.2966 4.71726 -8.94963
428 1 22.0139 18.8691 3.14484 -8.94963
429 1 1.57242 20.4415 4.71726 -8.94964
430 1 3.14484 18.8691 3.14484 -8.94961
431 1 4.71726 20.4415 4.71726 -8.94963
432 1 6.28969 18.8691 3.14485 -8.94967
433 1 7.86211 20.4415 4.71727 -8.94963
434 1 9.43453 18.8691 3.14484 -8.94964
435 1 11.007 20.4415 4.71726 -8.94963
436 1 12.5794 18.8691 3.14484 -8.94964
437 1 14.1518 20.4415 4.71726 -8.94963
438 1 15.7242 18.8691 3.14484 -8.94963
439 1 17.2966 20.4415 4.71726 -8.94963
440 1 18.8691 18.8691 3.14484 -8.94963
441 1 20.4415 20.4415 4.71726 -8.94963
442 1 1.57238 11.007 7.86209 -8.94966
443 1 4.71678 11.007 7.86184 -8.94855
444 1 7.86013 11.007 7.85928 -8.90436
445 1 11.0781 11.007 7.70285 -8.05397
446 1 14.1571 11.007 7.86151 -8.96584
447 1 17.2969 11.007 7.86211 -8.95089
448 1 20.4415 11.007 7.86211 -8.94971
449 1 22.0139 12.5794 6.28968 -8.94964
450 1 1.57239 14.1518 7.8621 -8.94978
451 1 3.1448 12.5794 6.28966 -8.94965
452 1 4.71653 14.152 7.86189 -8.95134
453 1 6.28914 12.5794 6.28931 -8.9492
454 1 7.85125 14.1621 7.85148 -8.88775
455 1 9.431 12.5835 6.28742 -8.93024
456 1 11.0104 14.154 7.85809 -8.93046
457 1 12.5903 12.59 6.27936 -8.88699
458 1 14.1523 14.1522 7.86207 -8.94889
459 1 15.7249 12.5796 6.2895 -8.95158
460 1 17.2967 14.1518 7.86211 -8.94967
461 1 18.8691 12.5794 6.28968 -8.94978
462 1 20.4415 14.1518 7.86211 -8.94964
463 1 22.0139 15.7242 6.28969 -8.94964
464 1 1.57242 17.2966 7.86211 -8.94963
465 1 3.14479 15.7242 6.28966 -8.94968
466 1 4.71727 17.2966 7.86211 -8.94984
467 1 6.28887 15.725 6.28885 -8.94437
468 1 7.86182 17.2974 7.86182 -8.95116
469 1 9.4347 15.7245 6.28962 -8.95141
470 1 11.0072 17.297 7.86186 -8.94894
471 1 12.5797 15.725 6.28941 -8.95107
472 1 14.1518 17.2967 7.86212 -8.94975
473 1 15.7242 15.7242 6.28967 -8.94982
474 1 17.2966 17.2966 7.86211 -8.94964
475 1 18.8691 15.7242 6.28969 -8.94963
476 1 20.4415 17.2966 7.86211 -8.94963
477 1 1.8202e-07 18.8691 6.28969 -8.94963
478 1 1.57242 20.4415 7.86211 -8.94963
479 1 3.14484 18.8691 6.28969 -8.94967
480 1 4.71726 20.4415 7.86211 -8.94963
481 1 6.28965 18.8691 6.28965 -8.94965
482 1 7.8621 20.4415 7.8621 -8.94978
483 1 9.43454 18.8691 6.28968 -8.94962
484 1 11.007 20.4415 7.8621 -8.94967
485 1 12.5794 18.8691 6.28967 -8.94971
486 1 14.1518 20.4415 7.86211 -8.94964
487 1 15.7242 18.8691 6.28969 -8.94964
488 1 17.2966 20.4415 7.86211 -8.94963
489 1 18.8691 18.8691 6.28969 -8.94963
490 1 20.4415 20.4415 7.86211 -8.94963
491 1 22.0139 12.5794 9.43453 -8.94972
492 1 3.1445 12.5794 9.43451 -8.95098
493 1 6.28387 12.5805 9.43418 -8.96383
494 1 9.36383 12.7381 9.43472 -8.09201
495 1 12.5817 12.5832 9.43411 -8.94472
496 1 15.7247 12.5796 9.43459 -8.94888
497 1 18.8691 12.5794 9.43453 -8.94966
498 1 -4.02682e-07 15.7242 9.43453 -8.94963
499 1 3.14482 15.7242 9.43454 -8.94962
500 1 6.28932 15.7246 9.4345 -8.95035
501 1 9.43421 15.731 9.43461 -8.9797
526 1 1.57242 17.2966 11.0069 -8.94963
527 1 4.71727 17.2966 11.007 -8.94992
530 1 14.1518 17.2967 11.0069 -8.94984
531 1 17.2966 17.2966 11.007 -8.94967
532 1 20.4415 17.2966 11.007 -8.94963
534 1 4.71727 20.4415 11.007 -8.94963
517 1 17.2969 11.007 11.0069 -8.95068
518 1 20.4415 11.007 11.0069 -8.94971
512 1 1.57237 11.007 11.007 -8.94979
513 1 4.71641 11.007 11.0072 -8.95001
514 1 7.85487 11.007 11.0057 -8.93387
515 1 11.1086 11.007 11.1224 -8.39308
516 1 14.1567 11.007 11.0088 -9.01384
391 1 18.8691 18.8691 22.0139 -8.94963
387 1 12.5794 18.8691 22.0139 -8.94963
519 1 1.57239 14.1518 11.007 -8.94977
520 1 4.7166 14.1519 11.0072 -8.95196
521 1 7.85051 14.1622 11.0162 -8.92249
522 1 11.0113 14.1544 11.0107 -8.98401
523 1 14.1527 14.1525 11.0067 -8.9484
524 1 17.2967 14.1518 11.0069 -8.94968
525 1 20.4415 14.1518 11.007 -8.94965
687 2 10.2122 11.007 12.5892 1.05797
686 1 20.4415 20.4415 20.4415 -8.94963
528 1 7.86174 17.2975 11.0072 -8.95064
529 1 11.0073 17.2971 11.0071 -8.94847
685 1 18.8691 18.8691 18.8691 -8.94963
684 1 17.2966 20.4415 20.4415 -8.94963
683 1 15.7242 18.8691 18.8691 -8.94964
533 1 1.57242 20.4415 11.007 -8.94963
682 1 14.1518 20.4415 20.4415 -8.94963
535 1 7.86209 20.4415 11.007 -8.94977
536 1 11.007 20.4415 11.007 -8.94966
681 1 12.5794 18.8691 18.8691 -8.94963
680 1 11.007 20.4415 20.4415 -8.94963
539 1 20.4415 20.4415 11.007 -8.94963
540 1 1.57241 11.007 14.1518 -8.94974
541 1 4.71692 11.007 14.1518 -8.95079
542 1 7.85743 11.007 14.1554 -8.98414
543 1 11.0253 11.007 14.1986 -9.25825
544 1 14.1513 11.007 14.1512 -9.00029
545 1 17.2966 11.007 14.1518 -8.9492
546 1 20.4415 11.007 14.1518 -8.94962
547 1 1.43047e-06 12.5794 12.5794 -8.94963
548 1 1.57243 14.1518 14.1518 -8.94962
549 1 3.14484 12.5794 12.5794 -8.94929
550 1 4.7173 14.1517 14.1517 -8.95032
551 1 6.28989 12.5785 12.5797 -8.99917
552 1 7.86098 14.1523 14.154 -8.98678
553 1 9.41396 12.6192 12.581 -9.21527
554 1 11.0076 14.1518 14.1523 -9.00487
555 1 12.5952 12.5936 12.5898 -8.92622
556 1 14.153 14.153 14.1529 -8.9429
557 1 15.7253 12.5796 12.5796 -8.95273
558 1 17.2967 14.1518 14.1518 -8.94973
559 1 18.8691 12.5794 12.5794 -8.9499
560 1 20.4415 14.1518 14.1518 -8.94965
561 1 22.0139 15.7242 12.5794 -8.94964
562 1 1.57242 17.2966 14.1518 -8.94963
563 1 3.14479 15.7242 12.5794 -8.94964
564 1 4.71723 17.2967 14.1518 -8.94933
565 1 6.28904 15.7248 12.5802 -8.94511
566 1 7.86204 17.2967 14.1519 -8.94952
567 1 9.43473 15.7274 12.5794 -8.96076
568 1 11.007 17.2967 14.1519 -8.94904
569 1 12.5797 15.7253 12.5797 -8.95207
570 1 14.1518 17.2967 14.1518 -8.94972
571 1 15.7242 15.7242 12.5794 -8.94982
572 1 17.2966 17.2966 14.1518 -8.94967
573 1 18.8691 15.7242 12.5794 -8.94962
574 1 20.4415 17.2966 14.1518 -8.94963
575 1 1.13201e-07 18.8691 12.5794 -8.94963
576 1 1.57242 20.4415 14.1518 -8.94963
577 1 3.14484 18.8691 12.5794 -8.94966
578 1 4.71726 20.4415 14.1518 -8.94963
579 1 6.28966 18.8691 12.5794 -8.94961
580 1 7.86211 20.4415 14.1518 -8.94963
581 1 9.43454 18.8692 12.5794 -8.95043
582 1 11.007 20.4415 14.1518 -8.94963
583 1 12.5794 18.8691 12.5794 -8.94979
584 1 14.1518 20.4415 14.1518 -8.94964
585 1 15.7242 18.8691 12.5794 -8.94963
586 1 17.2966 20.4415 14.1518 -8.94963
587 1 18.8691 18.8691 12.5794 -8.94963
588 1 20.4415 20.4415 14.1518 -8.94963
589 1 1.57242 11.007 17.2966 -8.94963
590 1 4.71726 11.007 17.2966 -8.9496
591 1 7.86207 11.007 17.2969 -8.95085
592 1 11.0069 11.007 17.3001 -8.96144
593 1 14.1516 11.007 17.2965 -8.95037
594 1 17.2966 11.007 17.2966 -8.9496
595 1 20.4415 11.007 17.2966 -8.94963
596 1 22.0139 12.5794 15.7242 -8.94964
597 1 1.57242 14.1518 17.2966 -8.94963
598 1 3.14481 12.5794 15.7242 -8.9497
599 1 4.71724 14.1518 17.2967 -8.9495
600 1 6.28928 12.5796 15.7246 -8.94862
601 1 7.86207 14.1518 17.2968 -8.94989
602 1 9.43338 12.58 15.7247 -9.00222
603 1 11.0069 14.1517 17.2966 -8.95029
604 1 12.5806 12.5812 15.7253 -8.98541
605 1 14.1519 14.1519 17.2967 -8.94929
606 1 15.7242 12.5793 15.7241 -8.9504
607 1 17.2966 14.1518 17.2966 -8.94971
608 1 18.8691 12.5794 15.7242 -8.94963
609 1 20.4415 14.1518 17.2966 -8.94963
610 1 8.89661e-07 15.7242 15.7242 -8.94963
611 1 1.57242 17.2966 17.2966 -8.94964
612 1 3.14485 15.7242 15.7242 -8.9497
613 1 4.71726 17.2966 17.2966 -8.94961
614 1 6.28963 15.7243 15.7243 -8.94932
615 1 7.86211 17.2966 17.2966 -8.94971
616 1 9.43457 15.7242 15.7242 -8.95024
617 1 11.0069 17.2966 17.2966 -8.94965
618 1 12.5794 15.7243 15.7242 -8.9502
619 1 14.1518 17.2966 17.2966 -8.94967
620 1 15.7243 15.7243 15.7243 -8.94911
621 1 17.2966 17.2966 17.2966 -8.9496
622 1 18.8691 15.7242 15.7242 -8.94962
623 1 20.4415 17.2966 17.2966 -8.94963
624 1 22.0139 18.8691 15.7242 -8.94963
625 1 1.57242 20.4415 17.2966 -8.94963
626 1 3.14484 18.8691 15.7242 -8.94962
627 1 4.71726 20.4415 17.2966 -8.94963
628 1 6.28968 18.8691 15.7242 -8.94964
629 1 7.86211 20.4415 17.2966 -8.94963
630 1 9.43453 18.8691 15.7242 -8.94964
631 1 11.007 20.4415 17.2966 -8.94964
632 1 12.5794 18.8691 15.7242 -8.94962
633 1 14.1518 20.4415 17.2966 -8.94963
634 1 15.7242 18.8691 15.7242 -8.94963
635 1 17.2966 20.4415 17.2966 -8.94963
636 1 18.8691 18.8691 15.7242 -8.94964
637 1 20.4415 20.4415 17.2966 -8.94963
638 1 1.57242 11.007 20.4415 -8.94963
639 1 4.71726 11.007 20.4415 -8.94962
640 1 7.86211 11.007 20.4415 -8.94972
641 1 11.007 11.007 20.4416 -8.95071
642 1 14.1518 11.007 20.4415 -8.9496
643 1 17.2966 11.007 20.4415 -8.94963
644 1 20.4415 11.007 20.4415 -8.94963
645 1 1.08622e-07 12.5794 18.8691 -8.94963
646 1 1.57242 14.1518 20.4415 -8.94963
647 1 3.14484 12.5794 18.8691 -8.94965
648 1 4.71726 14.1518 20.4415 -8.94963
649 1 6.28967 12.5794 18.8691 -8.94972
650 1 7.8621 14.1518 20.4415 -8.94963
651 1 9.43444 12.5795 18.8692 -8.9491
652 1 11.007 14.1518 20.4415 -8.94964
653 1 12.5795 12.5795 18.8692 -8.94935
654 1 14.1518 14.1518 20.4415 -8.94962
655 1 15.7242 12.5794 18.869 -8.9497
656 1 17.2966 14.1518 20.4415 -8.94964
657 1 18.8691 12.5794 18.8691 -8.94963
658 1 20.4415 14.1518 20.4415 -8.94963
659 1 22.0139 15.7242 18.8691 -8.94963
660 1 1.57242 17.2966 20.4415 -8.94963
661 1 3.14484 15.7242 18.8691 -8.94962
662 1 4.71726 17.2966 20.4415 -8.94963
663 1 6.28968 15.7242 18.8691 -8.94963
664 1 7.86211 17.2966 20.4415 -8.94964
665 1 9.43453 15.7242 18.8691 -8.94965
666 1 11.007 17.2966 20.4415 -8.94963
667 1 12.5794 15.7242 18.8691 -8.94971
668 1 14.1518 17.2966 20.4415 -8.94964
669 1 15.7242 15.7242 18.8691 -8.94961
670 1 17.2966 17.2966 20.4415 -8.94963
671 1 18.8691 15.7242 18.8691 -8.94964
672 1 20.4415 17.2966 20.4415 -8.94963
673 1 4.79776e-08 18.8691 18.8691 -8.94963
674 1 1.57242 20.4415 20.4415 -8.94963
675 1 3.14484 18.8691 18.8691 -8.94963
676 1 4.71726 20.4415 20.4415 -8.94963
677 1 6.28969 18.8691 18.8691 -8.94964
678 1 7.86211 20.4415 20.4415 -8.94963
679 1 9.43453 18.8691 18.8691 -8.94963
357 1 9.43452 12.5794 22.0139 -8.94966
359 1 12.5794 12.5794 22.0139 -8.94978
363 1 18.8691 12.5794 22.0139 -8.94963
365 1 -1.0151e-09 15.7242 22.0139 -8.94963
369 1 6.28968 15.7242 22.0139 -8.94963
375 1 15.7242 15.7242 22.0139 -8.94962
379 1 22.0139 18.8691 22.0139 -8.94963
381 1 3.14484 18.8691 22.0139 -8.94963
385 1 9.43453 18.8691 22.0139 -8.94963
353 1 3.14484 12.5794 22.0139 -8.94963
538 1 17.2966 20.4415 11.007 -8.94963
