ITEM: TIMESTEP
104
ITEM: NUMBER OF ATOMS
688
ITEM: BOX BOUNDS pp pp pp
0.0000000000000000e+00 2.2013900999999997e+01
0.0000000000000000e+00 2.2013900999999997e+01
0.0000000000000000e+00 2.2013900999999997e+01
ITEM: ATOMS id type x y z c_pot
189 1 20.4413 4.7165 11.0071 -8.94957
2 1 1.57171 1.57201 1.57177 -8.94909
175 1 18.8692 9.43446 9.43477 -8.94787
4 1 4.71663 1.57188 1.57163 -8.94959
174 1 15.7216 9.43547 9.43504 -8.94394
6 1 7.86185 1.57185 1.57168 -8.94944
7 1 9.43446 -4.04089e-16 -0.000260053 -8.94953
8 1 11.0071 1.57183 1.57172 -8.94948
173 1 12.5633 9.43162 9.42104 -8.93632
10 1 14.1522 1.57178 1.57182 -8.94948
11 1 15.7246 -4.27175e-17 -0.000203058 -8.94956
12 1 17.2974 1.57173 1.57184 -8.94945
188 1 17.2978 4.71605 11.0069 -8.94896
14 1 20.4416 1.57208 1.57212 -8.94949
172 1 9.35658 9.17738 9.43119 -8.13274
16 1 1.57189 4.71685 1.57173 -8.94986
171 1 6.28171 9.42512 9.43337 -8.97113
18 1 4.71569 4.71589 1.57049 -8.94952
19 1 6.28917 3.14412 -0.000450954 -8.94947
20 1 7.8614 4.71585 1.57082 -8.9491
170 1 3.14223 9.43476 9.43442 -8.951
22 1 11.007 4.71566 1.57087 -8.94933
169 1 22.0132 9.43465 9.43457 -8.94937
24 1 14.1529 4.7154 1.57076 -8.94968
25 1 15.7249 3.14386 -0.000401577 -8.94965
26 1 17.2986 4.71536 1.571 -8.94814
168 1 18.8699 6.28874 9.43454 -8.94964
28 1 20.4421 4.71663 1.57189 -8.94955
167 1 15.7268 6.28731 9.43419 -8.94628
30 1 1.57216 7.86201 1.57188 -8.94939
31 1 3.14436 6.28958 -0.000307025 -8.94976
32 1 4.71659 7.86226 1.57164 -8.94966
166 1 12.5801 6.2868 9.4318 -8.9453
34 1 7.86147 7.86158 1.57046 -8.95264
35 1 9.43399 6.28851 -0.000726493 -8.94964
36 1 11.0068 7.86066 1.56973 -8.95081
37 1 12.5797 6.28838 -0.00085689 -8.94976
38 1 14.1543 7.85993 1.56855 -8.95173
165 1 9.42896 6.28955 9.43358 -9.00803
40 1 17.2988 7.86096 1.57082 -8.94908
41 1 18.8701 6.28899 -0.000402843 -8.94945
42 1 20.4423 7.86172 1.5718 -8.94942
43 1 22.0141 9.43443 -0.000248811 -8.94953
187 1 14.1532 4.71529 11.0063 -8.94888
45 1 6.28909 9.43464 -3.27798e-05 -8.94933
164 1 6.27702 6.27732 9.43345 -8.94064
163 1 3.13944 6.28677 9.43444 -8.94924
48 1 15.7261 9.43388 -0.00106138 -8.94926
162 1 -0.00135978 6.28889 9.43453 -8.95008
50 1 -0.000406475 4.80244e-16 3.14447 -8.94948
51 1 1.57146 1.5719 4.71659 -8.94941
52 1 3.14386 1.07256e-15 3.14387 -8.9495
53 1 4.71584 1.57102 4.71582 -8.95003
54 1 6.28921 1.40501e-15 3.14389 -8.94955
55 1 7.86173 1.57111 4.71604 -8.94964
56 1 9.43454 4.73862e-16 3.14394 -8.94952
57 1 11.0073 1.57121 4.71617 -8.94961
58 1 12.5798 2.18999e-16 3.14408 -8.9495
59 1 14.1526 1.57115 4.71657 -8.95072
60 1 15.7249 5.97114e-16 3.14426 -8.95006
61 1 17.2972 1.57187 4.71701 -8.94965
62 1 18.8693 3.29281e-17 3.14461 -8.94965
63 1 20.4414 1.5721 4.71702 -8.94949
64 1 22.0134 3.14425 3.14421 -8.94954
65 1 1.57044 4.71605 4.71593 -8.94972
66 1 3.14298 3.1433 3.14304 -8.94806
67 1 4.71207 4.71246 4.71228 -8.94405
68 1 6.28861 3.14312 3.14309 -8.94954
69 1 7.86024 4.71294 4.71376 -8.94871
70 1 9.43435 3.14314 3.1433 -8.94934
71 1 11.0076 4.71324 4.71393 -8.94759
72 1 12.58 3.14304 3.14343 -8.9491
73 1 14.1555 4.71169 4.71355 -8.94954
74 1 15.7259 3.14263 3.14337 -8.94937
75 1 17.2985 4.71555 4.71642 -8.95005
76 1 18.8697 3.144 3.14437 -8.94972
77 1 20.4416 4.71659 4.71684 -8.94993
78 1 22.0139 6.28932 3.14422 -8.94985
79 1 1.57154 7.86208 4.71653 -8.94984
80 1 3.14341 6.28918 3.14346 -8.95039
81 1 4.71453 7.86182 4.7152 -8.95143
82 1 6.28636 6.28664 3.13982 -8.95033
83 1 7.856 7.85536 4.70639 -8.95515
84 1 9.43376 6.28661 3.141 -8.94771
85 1 11.008 7.85627 4.70714 -8.95195
86 1 12.5811 6.28633 3.14043 -8.94936
87 1 14.1659 7.84935 4.70325 -8.9306
88 1 15.7293 6.28483 3.14014 -8.9446
89 1 17.3017 7.85974 4.71477 -8.95075
90 1 18.8711 6.28839 3.14366 -8.94967
91 1 20.4426 7.86163 4.71662 -8.95019
92 1 0.000264184 9.43439 3.14412 -8.94953
93 1 3.144 9.43455 3.14385 -8.94892
94 1 6.28924 9.43529 3.14413 -8.94912
95 1 9.43532 9.43437 3.1439 -8.95107
96 1 12.5831 9.43296 3.13612 -8.95974
97 1 15.7291 9.43285 3.14046 -8.94739
98 1 18.8713 9.43402 3.14349 -8.94926
99 1 22.0134 1.78041e-15 6.28941 -8.9495
100 1 1.57133 1.57184 7.8618 -8.94947
101 1 3.14359 1.78534e-15 6.28895 -8.94931
102 1 4.71542 1.57084 7.86133 -8.9493
103 1 6.28885 1.04504e-15 6.28879 -8.95073
104 1 7.86153 1.57038 7.86162 -8.9515
105 1 9.43466 9.96744e-16 6.28893 -8.95028
106 1 11.0071 1.57142 7.86184 -8.94961
107 1 12.5797 7.95101e-16 6.28936 -8.95046
108 1 14.1526 1.57159 7.86187 -8.94945
109 1 15.7249 -3.91146e-16 6.2895 -8.94953
110 1 17.2972 1.57194 7.862 -8.94952
111 1 18.8693 2.17892e-16 6.28955 -8.94952
112 1 20.4414 1.57208 7.86199 -8.94953
113 1 -0.000750362 3.14415 6.28927 -8.94944
114 1 1.57018 4.71587 7.86154 -8.94933
115 1 3.14267 3.14306 6.28846 -8.94907
116 1 4.71215 4.71252 7.86009 -8.94712
117 1 6.28718 3.14041 6.2874 -8.95171
118 1 7.85807 4.70759 7.85982 -8.95966
119 1 9.43443 3.14135 6.28794 -8.95045
120 1 11.0064 4.71372 7.86076 -8.95252
121 1 12.5801 3.14184 6.28873 -8.95257
122 1 14.1535 4.71471 7.86159 -8.94847
123 1 15.7253 3.14341 6.28937 -8.94947
124 1 17.2979 4.716 7.86193 -8.94896
125 1 18.8695 3.14416 6.2895 -8.94941
126 1 20.4413 4.7165 7.86194 -8.94959
127 1 22.0128 6.28908 6.28918 -8.95036
128 1 1.56955 7.86164 7.86172 -8.95199
129 1 3.1397 6.28718 6.28716 -8.95101
130 1 4.7058 7.85754 7.85906 -8.95867
131 1 6.27489 6.27542 6.27599 -8.92813
132 1 7.81779 7.82129 7.82448 -8.84462
133 1 9.43307 6.27931 6.28286 -8.94907
134 1 11.0238 7.84847 7.83303 -8.89629
135 1 12.5871 6.27736 6.28067 -8.95179
136 1 14.1587 7.85798 7.8606 -8.95004
137 1 15.7282 6.2867 6.2882 -8.95056
138 1 17.2988 7.86147 7.86271 -8.95095
139 1 18.8702 6.28892 6.28956 -8.95015
140 1 20.4415 7.86183 7.86219 -8.95012
141 1 22.0139 9.43457 6.28928 -8.94991
142 1 3.14318 9.4352 6.28892 -8.94974
143 1 6.28617 9.43672 6.28836 -8.95138
144 1 9.42219 9.41164 6.28399 -8.9107
145 1 12.6208 9.40102 6.25012 -8.86137
146 1 15.7354 9.4318 6.28502 -8.95735
147 1 18.872 9.43419 6.28912 -8.95169
148 1 -0.000528481 1.84883e-15 9.4345 -8.94952
149 1 3.14349 1.21985e-15 9.43445 -8.94943
150 1 6.28834 3.96896e-16 9.43427 -8.9504
151 1 9.4346 1.2778e-15 9.43427 -8.94856
152 1 12.58 4.97553e-16 9.43424 -8.94949
153 1 15.7249 1.27186e-15 9.43444 -8.94963
154 1 18.8693 1.2693e-15 9.4345 -8.94954
155 1 22.0131 3.14411 9.4345 -8.9495
156 1 3.14254 3.14302 9.43444 -8.94944
157 1 6.28622 3.13988 9.43406 -8.94936
158 1 9.43407 3.14276 9.43413 -8.94649
159 1 12.5802 3.14313 9.43389 -8.94875
160 1 15.7253 3.14362 9.4344 -8.94957
161 1 18.8695 3.14414 9.4345 -8.94954
177 1 4.71544 1.57087 11.0074 -8.94933
180 1 14.1525 1.57169 11.0068 -8.94935
184 1 4.71228 4.71264 11.0085 -8.94759
183 1 1.5702 4.71588 11.0074 -8.94929
3 1 3.14439 -1.91831e-16 -0.000286813 -8.94957
176 1 1.57133 1.57185 11.0072 -8.94945
343 1 18.8703 9.43426 18.8697 -8.94945
178 1 7.86136 1.57004 11.0069 -8.95167
179 1 11.0073 1.57102 11.0066 -8.94989
342 1 15.7264 9.4338 18.8711 -8.94935
341 1 12.5812 9.43285 18.8747 -8.95137
182 1 20.4414 1.57208 11.007 -8.94953
340 1 9.43315 9.43334 18.8724 -8.94746
339 1 6.28893 9.43466 18.8698 -8.94963
185 1 7.85747 4.70615 11.0077 -8.95823
186 1 11.0076 4.71198 11.0062 -8.95178
338 1 3.14428 9.43451 18.8695 -8.94952
337 1 0.000177632 9.43444 18.8694 -8.94955
336 1 20.4421 7.86184 20.4416 -8.94951
190 1 1.56963 7.86167 11.0073 -8.95202
191 1 4.70605 7.8577 11.0096 -8.95959
192 1 7.81681 7.81956 11.0394 -8.87715
193 1 11.0302 7.84459 11.0263 -8.94642
194 1 14.1569 7.85965 11.0045 -8.95502
195 1 17.2984 7.86141 11.0064 -8.95036
196 1 20.4415 7.86182 11.007 -8.95006
197 1 22.0134 6.53472e-16 12.5796 -8.9495
198 1 1.57143 1.5719 14.1524 -8.94944
199 1 3.14357 3.49609e-16 12.58 -8.94935
200 1 4.7157 1.57097 14.1532 -8.94993
201 1 6.28869 -5.17185e-16 12.5801 -8.95063
202 1 7.86151 1.57065 14.1531 -8.94988
203 1 9.43466 8.04299e-16 12.5799 -8.95109
204 1 11.0075 1.57073 14.153 -8.94972
205 1 12.5799 1.72032e-15 12.5795 -8.95043
206 1 14.1528 1.57103 14.1524 -8.95071
207 1 15.7249 1.51025e-15 12.5794 -8.9495
208 1 17.2972 1.57191 14.1519 -8.94966
209 1 18.8693 1.58021e-15 12.5795 -8.94951
210 1 20.4414 1.57211 14.152 -8.94949
211 1 -0.00075068 3.14415 12.5797 -8.94943
212 1 1.57043 4.71606 14.1531 -8.94969
213 1 3.14268 3.14307 12.5804 -8.94914
214 1 4.71204 4.71245 14.1566 -8.94431
215 1 6.28705 3.14011 12.5814 -8.95133
216 1 7.85955 4.71103 14.1558 -8.94843
217 1 9.43453 3.13941 12.5807 -8.95322
218 1 11.0086 4.71144 14.1556 -8.94597
219 1 12.5803 3.14142 12.58 -8.95242
220 1 14.1559 4.71133 14.1553 -8.94965
221 1 15.7252 3.14359 12.5793 -8.94945
222 1 17.2984 4.71575 14.1524 -8.95033
223 1 18.8695 3.14417 12.5795 -8.9494
224 1 20.4415 4.71661 14.1522 -8.94986
225 1 22.0128 6.28908 12.5798 -8.9503
226 1 1.57153 7.86215 14.1524 -8.94997
227 1 3.13982 6.28719 12.5817 -8.95081
228 1 4.71446 7.86182 14.1535 -8.95292
229 1 6.27552 6.27518 12.5922 -8.92809
230 1 7.85299 7.8508 14.1657 -8.9926
231 1 9.43418 6.26945 12.5845 -8.96332
232 1 11.011 7.85403 14.1639 -9.0006
233 1 12.5872 6.27648 12.5874 -8.95166
234 1 14.1665 7.84858 14.1654 -8.92946
235 1 15.7275 6.28737 12.5798 -8.95087
236 1 17.3014 7.86001 14.1539 -8.95162
237 1 18.8701 6.28895 12.5794 -8.94987
238 1 20.4425 7.86175 14.1523 -8.95033
239 1 -0.000106446 9.43464 12.5797 -8.9497
240 1 3.14364 9.43533 12.5799 -8.94934
241 1 6.28814 9.43729 12.5795 -9.00322
242 1 9.41487 9.36296 12.5774 -9.19322
243 1 12.6204 9.39875 12.6183 -8.91154
244 1 15.7331 9.43299 12.5829 -8.96066
245 1 18.8711 9.43447 12.5797 -8.95176
246 1 -0.000425758 2.98541e-17 15.7246 -8.94951
247 1 1.57166 1.57201 17.2974 -8.94914
248 1 3.14376 4.97281e-16 15.7252 -8.94948
249 1 4.71642 1.57177 17.2977 -8.94951
250 1 6.28897 -4.45194e-16 15.7254 -8.9496
251 1 7.86177 1.57172 17.2976 -8.94946
252 1 9.43454 -1.60402e-15 15.7253 -8.94953
253 1 11.0071 1.57166 17.2976 -8.94948
254 1 12.58 -1.67255e-16 15.7252 -8.94961
255 1 14.1525 1.57158 17.2975 -8.94952
256 1 15.7251 2.68501e-16 15.7248 -8.95006
257 1 17.2975 1.5717 17.2973 -8.94943
258 1 18.8694 -9.69806e-16 15.7244 -8.94968
259 1 20.4416 1.57209 17.297 -8.94956
260 1 22.0133 3.14425 15.7248 -8.94954
261 1 1.57179 4.71683 17.2974 -8.94993
262 1 3.14289 3.1433 15.726 -8.94817
263 1 4.71533 4.71559 17.2991 -8.94904
264 1 6.28819 3.14259 15.7263 -8.94941
265 1 7.86124 4.71539 17.2987 -8.94947
266 1 9.43438 3.14255 15.726 -8.9493
267 1 11.0071 4.71513 17.2989 -8.94919
268 1 12.5804 3.14233 15.726 -8.9492
269 1 14.1534 4.71464 17.299 -8.94981
270 1 15.7261 3.14248 15.7257 -8.94933
271 1 17.2987 4.71532 17.2982 -8.94818
272 1 18.8697 3.14405 15.7246 -8.94983
273 1 20.4421 4.71663 17.2972 -8.94961
274 1 -1.38232e-05 6.28935 15.7248 -8.94997
275 1 1.57209 7.86203 17.2972 -8.94949
276 1 3.14319 6.28915 15.7256 -8.95069
277 1 4.71633 7.86221 17.2977 -8.94991
278 1 6.28527 6.28545 15.7303 -8.94823
279 1 7.8604 7.86029 17.3007 -8.95224
280 1 9.43402 6.28515 15.7284 -8.94855
281 1 11.0066 7.85995 17.3018 -8.95064
282 1 12.5821 6.28428 15.7298 -8.95082
283 1 14.1565 7.85763 17.3035 -8.94798
284 1 15.7297 6.28462 15.729 -8.94423
285 1 17.2992 7.86086 17.2985 -8.9497
286 1 18.8711 6.28844 15.7253 -8.94984
287 1 20.4423 7.86174 17.2973 -8.94955
288 1 22.0141 9.43443 15.7249 -8.9496
289 1 3.14401 9.43465 15.7251 -8.94916
290 1 6.28904 9.43552 15.7251 -8.9503
291 1 9.43213 9.43019 15.7288 -8.99999
292 1 12.5896 9.42511 15.7418 -8.98462
293 1 15.7294 9.43298 15.7287 -8.95
294 1 18.8713 9.43411 15.7255 -8.94949
295 1 22.0137 -1.27419e-15 18.8693 -8.94923
296 1 1.57202 1.57213 20.4416 -8.94933
297 1 3.14431 -1.78603e-16 18.8695 -8.94951
298 1 4.71685 1.57208 20.4416 -8.94955
299 1 6.28933 -1.69974e-15 18.8696 -8.94952
300 1 7.86187 1.57201 20.4416 -8.94952
301 1 9.43445 -9.80319e-16 18.8696 -8.94953
302 1 11.007 1.57197 20.4416 -8.94952
303 1 12.5796 -7.19964e-16 18.8696 -8.94952
304 1 14.1521 1.57196 20.4416 -8.94952
305 1 15.7247 -2.38475e-17 18.8695 -8.94955
306 1 17.2972 1.57197 20.4416 -8.94955
307 1 18.8695 4.01823e-16 18.8694 -8.94935
308 1 20.4417 1.57217 20.4415 -8.94922
309 1 -4.48982e-05 3.14451 18.8694 -8.94958
310 1 1.57218 4.71705 20.4416 -8.94973
311 1 3.144 3.14416 18.8698 -8.94937
312 1 4.71642 4.71659 20.4418 -8.94999
313 1 6.28908 3.14401 18.8699 -8.94955
314 1 7.86153 4.71628 20.4418 -8.94956
315 1 9.43432 3.14383 18.8699 -8.94948
316 1 11.0069 4.71613 20.4418 -8.94954
317 1 12.5797 3.14376 18.8699 -8.94946
318 1 14.1524 4.71602 20.4418 -8.94974
319 1 15.7251 3.14367 18.8699 -8.9496
320 1 17.2979 4.71605 20.4418 -8.94924
321 1 18.8699 3.14409 18.8695 -8.94914
322 1 20.442 4.71685 20.4416 -8.94953
323 1 22.0141 6.28945 18.8694 -8.94956
324 1 1.57222 7.86201 20.4416 -8.94953
325 1 3.14426 6.28955 18.8696 -8.94982
326 1 4.71664 7.86211 20.4417 -8.94961
327 1 6.28846 6.28872 18.8709 -8.95048
328 1 7.86121 7.86148 20.4425 -8.95019
329 1 9.43389 6.28812 18.8709 -8.94955
330 1 11.0066 7.86115 20.4426 -8.95006
331 1 12.5798 6.28799 18.8711 -8.95008
332 1 14.1533 7.86066 20.4428 -8.95054
333 1 15.7264 6.28753 18.8713 -8.949
334 1 17.2981 7.86137 20.4417 -8.94939
335 1 18.8702 6.28894 18.8697 -8.94955
49 1 18.8702 9.43426 22.0135 -8.94944
5 1 6.28939 -1.87285e-16 22.0136 -8.9495
9 1 12.5795 -8.61172e-16 22.0137 -8.94952
15 1 22.0139 3.14451 22.0136 -8.94956
17 1 3.1441 3.1442 22.0134 -8.94946
21 1 9.43435 3.14399 22.0135 -8.94949
23 1 12.5796 3.14393 22.0135 -8.94944
27 1 18.8699 3.14408 22.0136 -8.94905
29 1 0.000160202 6.28945 22.0137 -8.9495
33 1 6.28877 6.28901 22.0132 -8.95067
39 1 15.7259 6.28804 22.013 -8.94992
46 1 9.43406 9.43436 22.0145 -8.94934
47 1 12.5801 9.43403 22.0134 -8.95194
1 1 -0.000207888 4.08629e-16 22.0137 -8.94918
13 1 18.8695 1.12193e-15 22.0137 -8.94933
44 1 3.14436 9.43451 22.0136 -8.94952
181 1 17.2972 1.57195 11.0069 -8.9495
344 1 1.57219 11.007 1.57185 -8.94955
345 1 4.71657 11.007 1.57172 -8.9496
346 1 7.8619 11.007 1.57288 -8.94804
347 1 11.0072 11.007 1.57243 -8.94682
348 1 14.155 11.007 1.56847 -8.94952
349 1 17.2989 11.007 1.57078 -8.94937
350 1 20.4423 11.007 1.57176 -8.94948
351 1 22.0141 12.5795 -0.000248811 -8.94953
352 1 1.57216 14.1519 1.57188 -8.94939
537 1 14.1525 20.4422 11.0068 -8.94935
354 1 4.71659 14.1516 1.57164 -8.94966
355 1 6.28909 12.5793 -3.27798e-05 -8.94933
356 1 7.86147 14.1523 1.57046 -8.95264
688 3 10.1399 11.007 9.40134 2.3448
358 1 11.0068 14.1532 1.56973 -8.95081
511 1 18.8695 18.8698 9.4345 -8.94954
360 1 14.1543 14.154 1.56855 -8.95173
361 1 15.7261 12.58 -0.00106138 -8.94926
362 1 17.2988 14.1529 1.57082 -8.94908
510 1 15.7253 18.8703 9.4344 -8.94957
364 1 20.4423 14.1522 1.5718 -8.94942
509 1 12.5802 18.8708 9.43389 -8.94875
366 1 1.57189 17.297 1.57173 -8.94986
367 1 3.14436 15.7243 -0.000307025 -8.94976
368 1 4.71569 17.298 1.57049 -8.94952
508 1 9.43407 18.8711 9.43413 -8.94649
370 1 7.8614 17.2981 1.57082 -8.9491
371 1 9.43399 15.7254 -0.000726493 -8.94964
372 1 11.007 17.2982 1.57087 -8.94933
373 1 12.5797 15.7255 -0.00085689 -8.94976
374 1 14.1529 17.2985 1.57076 -8.94968
507 1 6.28622 18.874 9.43406 -8.94936
376 1 17.2986 17.2985 1.571 -8.94814
377 1 18.8701 15.7249 -0.000402843 -8.94945
378 1 20.4421 17.2973 1.57189 -8.94955
506 1 3.14254 18.8709 9.43444 -8.94944
380 1 1.57171 20.4419 1.57177 -8.94909
505 1 22.0131 18.8698 9.4345 -8.9495
382 1 4.71663 20.442 1.57163 -8.94959
383 1 6.28917 18.8698 -0.000450954 -8.94947
384 1 7.86185 20.442 1.57168 -8.94944
504 1 18.8699 15.7252 9.43454 -8.94964
386 1 11.0071 20.4421 1.57172 -8.94948
503 1 15.7268 15.7266 9.43419 -8.94628
388 1 14.1522 20.4421 1.57182 -8.94948
389 1 15.7249 18.87 -0.000401577 -8.94965
390 1 17.2974 20.4422 1.57184 -8.94945
502 1 12.5801 15.7271 9.4318 -8.9453
392 1 20.4416 20.4418 1.57212 -8.94949
393 1 1.57179 11.007 4.7163 -8.94949
394 1 4.71569 11.007 4.71546 -8.94603
395 1 7.86488 11.007 4.72037 -8.94581
396 1 11.0128 11.007 4.72093 -9.00034
397 1 14.1638 11.007 4.70598 -8.94151
398 1 17.302 11.007 4.71436 -8.94908
399 1 20.4429 11.007 4.71643 -8.94996
400 1 0.000264184 12.5795 3.14412 -8.94953
401 1 1.57154 14.1518 4.71653 -8.94984
402 1 3.144 12.5794 3.14385 -8.94892
403 1 4.71453 14.1521 4.7152 -8.95143
404 1 6.28924 12.5786 3.14413 -8.94912
405 1 7.856 14.1585 4.70639 -8.95515
406 1 9.43532 12.5795 3.1439 -8.95107
407 1 11.008 14.1576 4.70714 -8.95195
408 1 12.5831 12.5809 3.13612 -8.95974
409 1 14.1659 14.1646 4.70325 -8.9306
410 1 15.7291 12.581 3.14046 -8.94739
411 1 17.3017 14.1542 4.71477 -8.95075
412 1 18.8713 12.5799 3.14349 -8.94926
413 1 20.4426 14.1523 4.71662 -8.95019
414 1 22.0139 15.7246 3.14422 -8.94985
415 1 1.57044 17.2978 4.71593 -8.94972
416 1 3.14341 15.7247 3.14346 -8.95039
417 1 4.71207 17.3014 4.71228 -8.94405
418 1 6.28636 15.7273 3.13982 -8.95033
419 1 7.86024 17.301 4.71376 -8.94871
420 1 9.43376 15.7273 3.141 -8.94771
421 1 11.0076 17.3007 4.71393 -8.94759
422 1 12.5811 15.7276 3.14043 -8.94936
423 1 14.1555 17.3022 4.71355 -8.94954
424 1 15.7293 15.7291 3.14014 -8.9446
425 1 17.2985 17.2984 4.71642 -8.95005
426 1 18.8711 15.7255 3.14366 -8.94967
427 1 20.4416 17.2973 4.71684 -8.94993
428 1 22.0134 18.8697 3.14421 -8.94954
429 1 1.57146 20.442 4.71659 -8.94941
430 1 3.14298 18.8706 3.14304 -8.94806
431 1 4.71584 20.4429 4.71582 -8.95003
432 1 6.28861 18.8708 3.14309 -8.94954
433 1 7.86173 20.4428 4.71604 -8.94964
434 1 9.43435 18.8708 3.1433 -8.94934
435 1 11.0073 20.4427 4.71617 -8.94961
436 1 12.58 18.8709 3.14343 -8.9491
437 1 14.1526 20.4428 4.71657 -8.95072
438 1 15.7259 18.8713 3.14337 -8.94937
439 1 17.2972 20.442 4.71701 -8.94965
440 1 18.8697 18.8699 3.14437 -8.94972
441 1 20.4414 20.4418 4.71702 -8.94949
442 1 1.57198 11.007 7.86175 -8.9476
443 1 4.71968 11.007 7.86256 -8.94077
444 1 7.88273 11.007 7.87125 -8.87163
445 1 11.0926 11.007 7.64273 -8.15981
446 1 14.1615 11.007 7.85327 -8.9719
447 1 17.2995 11.007 7.86216 -8.95147
448 1 20.4421 11.007 7.86216 -8.94951
449 1 22.0139 12.5793 6.28928 -8.94991
450 1 1.56955 14.1523 7.86172 -8.95199
451 1 3.14318 12.5787 6.28892 -8.94974
452 1 4.7058 14.1564 7.85906 -8.95867
453 1 6.28617 12.5772 6.28836 -8.95138
454 1 7.81779 14.1926 7.82448 -8.84462
455 1 9.42219 12.6023 6.28399 -8.9107
456 1 11.0238 14.1654 7.83303 -8.89629
457 1 12.6208 12.6129 6.25012 -8.86137
458 1 14.1587 14.1559 7.8606 -8.95004
459 1 15.7354 12.5821 6.28502 -8.95735
460 1 17.2988 14.1524 7.86271 -8.95095
461 1 18.872 12.5797 6.28912 -8.95169
462 1 20.4415 14.1521 7.86219 -8.95012
463 1 22.0128 15.7248 6.28918 -8.95036
464 1 1.57018 17.298 7.86154 -8.94933
465 1 3.1397 15.7267 6.28716 -8.95101
466 1 4.71215 17.3014 7.86009 -8.94712
467 1 6.27489 15.7385 6.27599 -8.92813
468 1 7.85807 17.3063 7.85982 -8.95966
469 1 9.43307 15.7346 6.28286 -8.94907
470 1 11.0064 17.3002 7.86076 -8.95252
471 1 12.5871 15.7365 6.28067 -8.95179
472 1 14.1535 17.2992 7.86159 -8.94847
473 1 15.7282 15.7272 6.2882 -8.95056
474 1 17.2979 17.2979 7.86193 -8.94896
475 1 18.8702 15.725 6.28956 -8.95015
476 1 20.4413 17.2974 7.86194 -8.94959
477 1 -0.000750362 18.8698 6.28927 -8.94944
478 1 1.57133 20.4421 7.8618 -8.94947
479 1 3.14267 18.8708 6.28846 -8.94907
480 1 4.71542 20.4431 7.86133 -8.9493
481 1 6.28718 18.8735 6.2874 -8.95171
482 1 7.86153 20.4435 7.86162 -8.9515
483 1 9.43443 18.8726 6.28794 -8.95045
484 1 11.0071 20.4425 7.86184 -8.94961
485 1 12.5801 18.8721 6.28873 -8.95257
486 1 14.1526 20.4423 7.86187 -8.94945
487 1 15.7253 18.8705 6.28937 -8.94947
488 1 17.2972 20.442 7.862 -8.94952
489 1 18.8695 18.8697 6.2895 -8.94941
490 1 20.4414 20.4418 7.86199 -8.94953
491 1 22.0132 12.5792 9.43457 -8.94937
492 1 3.14223 12.5791 9.43442 -8.951
493 1 6.28171 12.5888 9.43337 -8.97113
494 1 9.35658 12.8365 9.43119 -8.13274
495 1 12.5633 12.5823 9.42104 -8.93632
496 1 15.7216 12.5784 9.43504 -8.94394
497 1 18.8692 12.5794 9.43477 -8.94787
498 1 -0.00135978 15.725 9.43453 -8.95008
499 1 3.13944 15.7271 9.43444 -8.94924
500 1 6.27702 15.7366 9.43345 -8.94064
501 1 9.42896 15.7244 9.43358 -9.00803
526 1 1.5702 17.298 11.0074 -8.94929
527 1 4.71228 17.3013 11.0085 -8.94759
530 1 14.1532 17.2986 11.0063 -8.94888
531 1 17.2978 17.2979 11.0069 -8.94896
532 1 20.4413 17.2974 11.0071 -8.94957
534 1 4.71544 20.443 11.0074 -8.94933
517 1 17.2966 11.007 11.0067 -8.94679
518 1 20.4416 11.007 11.0069 -8.94863
512 1 1.57207 11.007 11.0072 -8.9474
513 1 4.72035 11.007 11.0058 -8.94128
514 1 7.88272 11.007 10.9897 -8.90475
515 1 11.1455 11.007 11.1302 -8.49158
516 1 14.1459 11.007 11.0146 -9.02279
391 1 18.8699 18.8698 22.0136 -8.94905
387 1 12.5796 18.87 22.0135 -8.94944
519 1 1.56963 14.1522 11.0073 -8.95202
520 1 4.70605 14.1562 11.0096 -8.95959
521 1 7.81681 14.1943 11.0394 -8.87715
522 1 11.0302 14.1693 11.0263 -8.94642
523 1 14.1569 14.1542 11.0045 -8.95502
524 1 17.2984 14.1525 11.0064 -8.95036
525 1 20.4415 14.1521 11.007 -8.95006
687 2 10.1527 11.007 12.645 0.845926
686 1 20.4417 20.4417 20.4415 -8.94922
528 1 7.85747 17.3077 11.0077 -8.95823
529 1 11.0076 17.3019 11.0062 -8.95178
685 1 18.8699 18.8698 18.8695 -8.94914
684 1 17.2972 20.4419 20.4416 -8.94955
683 1 15.7251 18.8702 18.8699 -8.9496
533 1 1.57133 20.4421 11.0072 -8.94945
682 1 14.1521 20.4419 20.4416 -8.94952
535 1 7.86136 20.4439 11.0069 -8.95167
536 1 11.0073 20.4429 11.0066 -8.94989
681 1 12.5797 18.8701 18.8699 -8.94946
680 1 11.007 20.4419 20.4416 -8.94952
539 1 20.4414 20.4418 11.007 -8.94953
540 1 1.57192 11.007 14.1526 -8.9493
541 1 4.71658 11.007 14.1531 -8.94525
542 1 7.86833 11.007 14.1473 -8.97731
543 1 11.0388 11.007 14.2238 -9.25915
544 1 14.1597 11.007 14.1625 -8.99146
545 1 17.3009 11.007 14.1545 -8.94812
546 1 20.4426 11.007 14.1525 -8.94981
547 1 -0.000106446 12.5793 12.5797 -8.9497
548 1 1.57153 14.1517 14.1524 -8.94997
549 1 3.14364 12.5786 12.5799 -8.94934
550 1 4.71446 14.1521 14.1535 -8.95292
551 1 6.28814 12.5766 12.5795 -9.00322
552 1 7.85299 14.1631 14.1657 -8.9926
553 1 9.41487 12.6509 12.5774 -9.19322
554 1 11.011 14.1599 14.1639 -9.0006
555 1 12.6204 12.6152 12.6183 -8.91154
556 1 14.1665 14.1653 14.1654 -8.92946
557 1 15.7331 12.5809 12.5829 -8.96066
558 1 17.3014 14.1539 14.1539 -8.95162
559 1 18.8711 12.5794 12.5797 -8.95176
560 1 20.4425 14.1522 14.1523 -8.95033
561 1 22.0128 15.7248 12.5798 -8.9503
562 1 1.57043 17.2978 14.1531 -8.94969
563 1 3.13982 15.7267 12.5817 -8.95081
564 1 4.71204 17.3015 14.1566 -8.94431
565 1 6.27552 15.7387 12.5922 -8.92809
566 1 7.85955 17.3029 14.1558 -8.94843
567 1 9.43418 15.7445 12.5845 -8.96332
568 1 11.0086 17.3025 14.1556 -8.94597
569 1 12.5872 15.7374 12.5874 -8.95166
570 1 14.1559 17.3026 14.1553 -8.94965
571 1 15.7275 15.7265 12.5798 -8.95087
572 1 17.2984 17.2981 14.1524 -8.95033
573 1 18.8701 15.7249 12.5794 -8.94987
574 1 20.4415 17.2973 14.1522 -8.94986
575 1 -0.00075068 18.8698 12.5797 -8.94943
576 1 1.57143 20.442 14.1524 -8.94944
577 1 3.14268 18.8708 12.5804 -8.94914
578 1 4.7157 20.4429 14.1532 -8.94993
579 1 6.28705 18.8738 12.5814 -8.95133
580 1 7.86151 20.4432 14.1531 -8.94988
581 1 9.43453 18.8745 12.5807 -8.95322
582 1 11.0075 20.4432 14.153 -8.94972
583 1 12.5803 18.8725 12.58 -8.95242
584 1 14.1528 20.4429 14.1524 -8.95071
585 1 15.7252 18.8703 12.5793 -8.94945
586 1 17.2972 20.442 14.1519 -8.94966
587 1 18.8695 18.8697 12.5795 -8.9494
588 1 20.4414 20.4418 14.152 -8.94949
589 1 1.57212 11.007 17.2973 -8.94957
590 1 4.71644 11.007 17.2977 -8.94914
591 1 7.86231 11.007 17.2973 -8.94761
592 1 11.0075 11.007 17.3122 -8.96816
593 1 14.1554 11.007 17.3028 -8.94872
594 1 17.2991 11.007 17.2986 -8.94923
595 1 20.4424 11.007 17.2973 -8.94953
596 1 22.0141 12.5795 15.7249 -8.9496
597 1 1.57209 14.1519 17.2972 -8.94949
598 1 3.14401 12.5793 15.7251 -8.94916
599 1 4.71633 14.1517 17.2977 -8.94991
600 1 6.28904 12.5784 15.7251 -8.9503
601 1 7.8604 14.1536 17.3007 -8.95224
602 1 9.43213 12.5837 15.7288 -8.99999
603 1 11.0066 14.154 17.3018 -8.95064
604 1 12.5896 12.5888 15.7418 -8.98462
605 1 14.1565 14.1563 17.3035 -8.94798
606 1 15.7294 12.5809 15.7287 -8.95
607 1 17.2992 14.153 17.2985 -8.9497
608 1 18.8713 12.5798 15.7255 -8.94949
609 1 20.4423 14.1522 17.2973 -8.94955
610 1 -1.38232e-05 15.7246 15.7248 -8.94997
611 1 1.57179 17.2971 17.2974 -8.94993
612 1 3.14319 15.7247 15.7256 -8.95069
613 1 4.71533 17.2983 17.2991 -8.94904
614 1 6.28527 15.7284 15.7303 -8.94823
615 1 7.86124 17.2985 17.2987 -8.94947
616 1 9.43402 15.7287 15.7284 -8.94855
617 1 11.0071 17.2988 17.2989 -8.94919
618 1 12.5821 15.7296 15.7298 -8.95082
619 1 14.1534 17.2993 17.299 -8.94981
620 1 15.7297 15.7293 15.729 -8.94423
621 1 17.2987 17.2986 17.2982 -8.94818
622 1 18.8711 15.7255 15.7253 -8.94984
623 1 20.4421 17.2973 17.2972 -8.94961
624 1 22.0133 18.8697 15.7248 -8.94954
625 1 1.57166 20.4419 17.2974 -8.94914
626 1 3.14289 18.8706 15.726 -8.94817
627 1 4.71642 20.4421 17.2977 -8.94951
628 1 6.28819 18.8713 15.7263 -8.94941
629 1 7.86177 20.4422 17.2976 -8.94946
630 1 9.43438 18.8714 15.726 -8.9493
631 1 11.0071 20.4422 17.2976 -8.94948
632 1 12.5804 18.8716 15.726 -8.9492
633 1 14.1525 20.4423 17.2975 -8.94952
634 1 15.7261 18.8714 15.7257 -8.94933
635 1 17.2975 20.4422 17.2973 -8.94943
636 1 18.8697 18.8699 15.7246 -8.94983
637 1 20.4416 20.4418 17.297 -8.94956
638 1 1.57221 11.007 20.4416 -8.94957
639 1 4.7166 11.007 20.4417 -8.94964
640 1 7.8614 11.007 20.4423 -8.94864
641 1 11.0067 11.007 20.4449 -8.95215
642 1 14.1534 11.007 20.4427 -8.94992
643 1 17.2981 11.007 20.4417 -8.94942
644 1 20.4421 11.007 20.4416 -8.94952
645 1 0.000177632 12.5795 18.8694 -8.94955
646 1 1.57222 14.1519 20.4416 -8.94953
647 1 3.14428 12.5794 18.8695 -8.94952
648 1 4.71664 14.1518 20.4417 -8.94961
649 1 6.28893 12.5792 18.8698 -8.94963
650 1 7.86121 14.1524 20.4425 -8.95019
651 1 9.43315 12.5806 18.8724 -8.94746
652 1 11.0066 14.1528 20.4426 -8.95006
653 1 12.5812 12.581 18.8747 -8.95137
654 1 14.1533 14.1532 20.4428 -8.95054
655 1 15.7264 12.5801 18.8711 -8.94935
656 1 17.2981 14.1525 20.4417 -8.94939
657 1 18.8703 12.5796 18.8697 -8.94945
658 1 20.4421 14.1521 20.4416 -8.94951
659 1 22.0141 15.7245 18.8694 -8.94956
660 1 1.57218 17.2968 20.4416 -8.94973
661 1 3.14426 15.7244 18.8696 -8.94982
662 1 4.71642 17.2973 20.4418 -8.94999
663 1 6.28846 15.7252 18.8709 -8.95048
664 1 7.86153 17.2976 20.4418 -8.94956
665 1 9.43389 15.7258 18.8709 -8.94955
666 1 11.0069 17.2978 20.4418 -8.94954
667 1 12.5798 15.7259 18.8711 -8.95008
668 1 14.1524 17.2979 20.4418 -8.94974
669 1 15.7264 15.7264 18.8713 -8.949
670 1 17.2979 17.2979 20.4418 -8.94924
671 1 18.8702 15.725 18.8697 -8.94955
672 1 20.442 17.2971 20.4416 -8.94953
673 1 -4.48982e-05 18.8694 18.8694 -8.94958
674 1 1.57202 20.4418 20.4416 -8.94933
675 1 3.144 18.8697 18.8698 -8.94937
676 1 4.71685 20.4418 20.4416 -8.94955
677 1 6.28908 18.8699 18.8699 -8.94955
678 1 7.86187 20.4419 20.4416 -8.94952
679 1 9.43432 18.8701 18.8699 -8.94948
357 1 9.43406 12.5795 22.0145 -8.94934
359 1 12.5801 12.5799 22.0134 -8.95194
363 1 18.8702 12.5796 22.0135 -8.94944
365 1 0.000160202 15.7244 22.0137 -8.9495
369 1 6.28877 15.7249 22.0132 -8.95067
375 1 15.7259 15.7259 22.013 -8.94992
379 1 22.0139 18.8694 22.0136 -8.94956
381 1 3.1441 18.8697 22.0134 -8.94946
385 1 9.43435 18.8699 22.0135 -8.94949
353 1 3.14436 12.5794 22.0136 -8.94952
538 1 17.2972 20.4419 11.0069 -8.9495
