ITEM: TIMESTEP
69
ITEM: NUMBER OF ATOMS
688
ITEM: BOX BOUNDS pp pp pp
0.0000000000000000e+00 2.2013900999999997e+01
0.0000000000000000e+00 2.2013900999999997e+01
0.0000000000000000e+00 2.2013900999999997e+01
ITEM: ATOMS id type x y z c_pot
189 1 20.4415 4.7167 11.007 -8.94955
2 1 1.57201 1.57216 1.57204 -8.94919
175 1 18.8695 9.43437 9.43471 -8.94802
4 1 4.71697 1.57208 1.57197 -8.94965
174 1 15.7224 9.43537 9.43513 -8.94441
6 1 7.86201 1.57206 1.57197 -8.9495
7 1 9.43451 -4.81903e-16 -0.000153027 -8.94958
8 1 11.007 1.57203 1.57197 -8.94953
173 1 12.5653 9.43178 9.42071 -8.93362
10 1 14.152 1.57203 1.57205 -8.94951
11 1 15.7243 -2.41415e-16 -0.000110442 -8.9496
12 1 17.2971 1.57198 1.57205 -8.9495
188 1 17.2977 4.71622 11.0069 -8.94897
14 1 20.4415 1.57224 1.57228 -8.94956
172 1 9.35556 9.18328 9.4318 -8.13561
16 1 1.57209 4.71704 1.57201 -8.94983
171 1 6.28068 9.42591 9.43338 -8.97109
18 1 4.71614 4.71623 1.57092 -8.9495
19 1 6.28945 3.14439 -0.000283066 -8.9495
20 1 7.8617 4.71626 1.57121 -8.94912
170 1 3.14188 9.4349 9.43437 -8.95116
22 1 11.007 4.71612 1.57126 -8.94935
169 1 22.0132 9.43463 9.43452 -8.94953
24 1 14.1524 4.71599 1.57123 -8.94969
25 1 15.7245 3.14429 -0.000256596 -8.94969
26 1 17.298 4.71589 1.57133 -8.94817
168 1 18.87 6.28882 9.43451 -8.94955
28 1 20.4419 4.71691 1.57209 -8.94957
167 1 15.7266 6.28746 9.43428 -8.9462
30 1 1.57219 7.86206 1.57206 -8.94943
31 1 3.14453 6.28964 -0.000176429 -8.94973
32 1 4.71678 7.86231 1.5718 -8.94966
166 1 12.5796 6.28758 9.4323 -8.946
34 1 7.86159 7.86176 1.57055 -8.95252
35 1 9.43413 6.2888 -0.000642331 -8.94957
36 1 11.0066 7.86095 1.56995 -8.95062
37 1 12.5795 6.28877 -0.00070842 -8.94965
38 1 14.1537 7.86034 1.569 -8.95172
165 1 9.42921 6.2909 9.43398 -9.00717
40 1 17.2981 7.86137 1.57123 -8.94917
41 1 18.8696 6.28934 -0.000261826 -8.94954
42 1 20.4419 7.8619 1.57202 -8.94947
43 1 22.0139 9.43448 -0.000145306 -8.94958
187 1 14.1529 4.71559 11.0062 -8.94902
45 1 6.28918 9.43462 -9.96581e-05 -8.94939
164 1 6.27802 6.2785 9.43354 -8.94088
163 1 3.14023 6.28733 9.43444 -8.94924
48 1 15.7255 9.4341 -0.000888619 -8.94927
162 1 -0.00101321 6.28908 9.43451 -8.95001
50 1 -0.000199553 1.56385e-16 3.14469 -8.94956
51 1 1.57188 1.57208 4.71691 -8.94949
52 1 3.14428 3.3169e-16 3.14426 -8.94955
53 1 4.71636 1.57134 4.71629 -8.95002
54 1 6.28949 5.07189e-16 3.14429 -8.94957
55 1 7.86199 1.57143 4.71645 -8.9496
56 1 9.43457 7.33669e-16 3.14427 -8.94955
57 1 11.0072 1.57148 4.71649 -8.94957
58 1 12.5796 3.25896e-16 3.14434 -8.94951
59 1 14.1523 1.57144 4.71682 -8.95063
60 1 15.7246 9.14413e-16 3.14448 -8.95001
61 1 17.297 1.57208 4.71716 -8.94966
62 1 18.8692 5.39213e-16 3.14476 -8.94967
63 1 20.4415 1.57225 4.71716 -8.94954
64 1 22.0135 3.14448 3.14448 -8.94955
65 1 1.57094 4.71637 4.71629 -8.94968
66 1 3.14353 3.14369 3.14354 -8.94815
67 1 4.71297 4.71317 4.71299 -8.94422
68 1 6.28909 3.14362 3.14364 -8.9496
69 1 7.86088 4.71379 4.7145 -8.94885
70 1 9.43447 3.1436 3.14375 -8.94938
71 1 11.0075 4.71399 4.7147 -8.94771
72 1 12.5797 3.14353 3.14387 -8.94914
73 1 14.1548 4.71249 4.71434 -8.94979
74 1 15.7253 3.14318 3.14378 -8.94943
75 1 17.2979 4.71602 4.71674 -8.94998
76 1 18.8694 3.14434 3.14459 -8.94972
77 1 20.4415 4.71685 4.71702 -8.94986
78 1 22.0139 6.28948 3.14445 -8.94981
79 1 1.57169 7.86215 4.71669 -8.94977
80 1 3.1438 6.2894 3.14383 -8.95033
81 1 4.71496 7.86212 4.71547 -8.95139
82 1 6.28692 6.28717 3.14039 -8.9503
83 1 7.85633 7.85611 4.7069 -8.95497
84 1 9.43388 6.28724 3.14161 -8.94773
85 1 11.0075 7.85703 4.70807 -8.95166
86 1 12.5805 6.28701 3.14127 -8.9493
87 1 14.1651 7.84974 4.70402 -8.93014
88 1 15.7285 6.28546 3.14075 -8.94454
89 1 17.301 7.86009 4.71523 -8.95079
90 1 18.8705 6.28876 3.14397 -8.94968
91 1 20.4424 7.86176 4.7168 -8.95015
92 1 8.04628e-05 9.43444 3.14433 -8.94955
93 1 3.14408 9.43456 3.14398 -8.94897
94 1 6.28927 9.43536 3.14405 -8.94917
95 1 9.43507 9.43457 3.14369 -8.95112
96 1 12.5824 9.43314 3.1365 -8.95979
97 1 15.7281 9.43315 3.14117 -8.94744
98 1 18.8706 9.43418 3.14387 -8.94929
99 1 22.0137 1.23614e-15 6.28957 -8.94958
100 1 1.57182 1.57204 7.86196 -8.94954
101 1 3.14411 1.14089e-15 6.28927 -8.94937
102 1 4.71605 1.57118 7.86157 -8.94931
103 1 6.28923 1.59739e-15 6.2891 -8.95065
104 1 7.86188 1.57066 7.8618 -8.95141
105 1 9.43475 9.9483e-16 6.28916 -8.95019
106 1 11.0071 1.57159 7.86199 -8.94955
107 1 12.5796 5.84179e-16 6.28949 -8.95038
108 1 14.1524 1.57174 7.86198 -8.94947
109 1 15.7246 6.75563e-16 6.28959 -8.94954
110 1 17.2971 1.57206 7.86204 -8.94955
111 1 18.8692 1.25882e-15 6.28961 -8.94956
112 1 20.4415 1.57221 7.86205 -8.94958
113 1 -0.000442093 3.1444 6.28946 -8.94948
114 1 1.5708 4.71625 7.8617 -8.94934
115 1 3.14338 3.14352 6.28886 -8.94913
116 1 4.71319 4.71333 7.86042 -8.94724
117 1 6.28789 3.1411 6.2879 -8.95167
118 1 7.85888 4.70857 7.86027 -8.9596
119 1 9.43468 3.14192 6.2884 -8.95037
120 1 11.0064 4.71446 7.86137 -8.9523
121 1 12.5799 3.14233 6.28913 -8.95248
122 1 14.1531 4.71512 7.86202 -8.94873
123 1 15.7249 3.14377 6.2896 -8.94952
124 1 17.2977 4.71624 7.86202 -8.94897
125 1 18.8694 3.1444 6.28959 -8.94944
126 1 20.4415 4.71672 7.86198 -8.94956
127 1 22.013 6.28924 6.2893 -8.95026
128 1 1.56983 7.86176 7.86173 -8.95187
129 1 3.14046 6.28763 6.28751 -8.95091
130 1 4.70633 7.85815 7.85918 -8.9584
131 1 6.27605 6.27656 6.2768 -8.92861
132 1 7.81874 7.82302 7.82557 -8.84649
133 1 9.43343 6.28055 6.28391 -8.94941
134 1 11.0227 7.85046 7.83488 -8.89808
135 1 12.5862 6.27835 6.28205 -8.95257
136 1 14.1586 7.8581 7.86117 -8.94927
137 1 15.7275 6.28712 6.2887 -8.95037
138 1 17.2987 7.86148 7.86279 -8.95084
139 1 18.87 6.28911 6.28966 -8.95003
140 1 20.4416 7.86184 7.86215 -8.95008
141 1 22.0138 9.43456 6.28932 -8.94989
142 1 3.14317 9.43524 6.28891 -8.94968
143 1 6.2861 9.43703 6.28834 -8.95154
144 1 9.42173 9.41244 6.28394 -8.90969
145 1 12.621 9.40051 6.25037 -8.85881
146 1 15.7349 9.43194 6.28569 -8.95747
147 1 18.8716 9.43423 6.2893 -8.95164
148 1 -0.000243895 1.73874e-15 9.43452 -8.94958
149 1 3.14406 1.2832e-15 9.43449 -8.94948
150 1 6.2888 8.47393e-16 9.43434 -8.95034
151 1 9.43475 8.94587e-16 9.43435 -8.94859
152 1 12.5799 5.73506e-16 9.43432 -8.94948
153 1 15.7247 -2.91149e-16 9.43448 -8.94966
154 1 18.8693 7.28223e-16 9.43451 -8.94958
155 1 22.0134 3.14436 9.43451 -8.94954
156 1 3.14329 3.14351 9.43447 -8.94949
157 1 6.28701 3.14056 9.43412 -8.94935
158 1 9.43437 3.14315 9.43425 -8.94638
159 1 12.5801 3.14341 9.43405 -8.94876
160 1 15.7251 3.14379 9.43445 -8.94961
161 1 18.8694 3.14433 9.4345 -8.94957
177 1 4.71606 1.57121 11.0073 -8.94933
180 1 14.1524 1.57181 11.0068 -8.94938
184 1 4.71323 4.71345 11.0082 -8.94768
183 1 1.5708 4.71624 11.0073 -8.9493
3 1 3.14466 1.17263e-16 -0.000138447 -8.94965
176 1 1.57181 1.57204 11.0071 -8.94952
343 1 18.8698 9.43439 18.8695 -8.9495
178 1 7.86171 1.57034 11.0069 -8.95159
179 1 11.0073 1.57122 11.0066 -8.94979
342 1 15.7258 9.43403 18.8706 -8.94937
341 1 12.5809 9.43301 18.8741 -8.95127
182 1 20.4415 1.57221 11.007 -8.94958
340 1 9.43309 9.4334 18.8722 -8.94751
339 1 6.28889 9.4346 18.8699 -8.94969
185 1 7.85816 4.70716 11.0075 -8.95823
186 1 11.0075 4.71282 11.0061 -8.95149
338 1 3.14429 9.43448 18.8695 -8.94952
337 1 1.45672e-06 9.43447 18.8693 -8.94959
336 1 20.4417 7.86199 20.4415 -8.94957
190 1 1.56986 7.86179 11.0072 -8.95192
191 1 4.70641 7.85836 11.0095 -8.95942
192 1 7.81741 7.82136 11.0389 -8.87905
193 1 11.0292 7.84702 11.0257 -8.94909
194 1 14.157 7.8598 11.0043 -8.95454
195 1 17.2986 7.86135 11.0064 -8.95021
196 1 20.4416 7.86181 11.0069 -8.95004
197 1 22.0137 3.48198e-16 12.5795 -8.94957
198 1 1.57186 1.57207 14.1521 -8.94952
199 1 3.1441 7.24552e-16 12.5797 -8.94941
200 1 4.71622 1.57128 14.1527 -8.94993
201 1 6.28908 5.40917e-16 12.5798 -8.95057
202 1 7.86176 1.571 14.1527 -8.94982
203 1 9.43473 6.1628e-16 12.5798 -8.95096
204 1 11.0074 1.57104 14.1527 -8.94967
205 1 12.5798 9.00885e-16 12.5794 -8.95036
206 1 14.1525 1.5713 14.1522 -8.95064
207 1 15.7246 4.25781e-16 12.5793 -8.94952
208 1 17.297 1.57208 14.1518 -8.94967
209 1 18.8692 1.04896e-15 12.5794 -8.94955
210 1 20.4415 1.57224 14.1519 -8.94954
211 1 -0.00044153 3.14439 12.5796 -8.94947
212 1 1.57089 4.71634 14.1527 -8.94966
213 1 3.14337 3.14353 12.5801 -8.94921
214 1 4.71281 4.71311 14.1559 -8.94442
215 1 6.2877 3.1408 12.581 -8.95129
216 1 7.86004 4.71201 14.1551 -8.9485
217 1 9.43471 3.14011 12.5804 -8.953
218 1 11.0083 4.71233 14.1549 -8.94607
219 1 12.5801 3.1419 12.5797 -8.95237
220 1 14.1552 4.71202 14.1546 -8.94987
221 1 15.7249 3.14385 12.5792 -8.94949
222 1 17.2979 4.7161 14.1521 -8.95025
223 1 18.8694 3.14437 12.5794 -8.94943
224 1 20.4415 4.71682 14.152 -8.94981
225 1 22.013 6.28922 12.5797 -8.95023
226 1 1.57158 7.86217 14.1523 -8.94988
227 1 3.14044 6.2876 12.5814 -8.95076
228 1 4.71461 7.8621 14.1533 -8.9528
229 1 6.27635 6.27632 12.5916 -8.9285
230 1 7.85311 7.85202 14.1652 -8.99257
231 1 9.43424 6.27119 12.5838 -8.96329
232 1 11.0102 7.85519 14.163 -9.00073
233 1 12.5864 6.27741 12.5865 -8.95256
234 1 14.1661 7.84881 14.1648 -8.92868
235 1 15.7271 6.28762 12.5794 -8.95071
236 1 17.301 7.86019 14.1535 -8.95157
237 1 18.87 6.28906 12.5793 -8.94975
238 1 20.4423 7.8618 14.1521 -8.95029
239 1 -0.000181601 9.43459 12.5796 -8.94975
240 1 3.14334 9.43532 12.58 -8.94921
241 1 6.28765 9.43775 12.5798 -9.00289
242 1 9.41395 9.36572 12.5778 -9.19481
243 1 12.6213 9.39814 12.6188 -8.90749
244 1 15.7333 9.43297 12.5825 -8.96077
245 1 18.8712 9.43444 12.5795 -8.95176
246 1 -0.000207129 8.4188e-16 15.7244 -8.94958
247 1 1.57197 1.57215 17.2971 -8.94922
248 1 3.1442 6.25992e-16 15.7248 -8.94953
249 1 4.71679 1.57196 17.2973 -8.94958
250 1 6.28929 3.08688e-16 15.7249 -8.94962
251 1 7.86195 1.57193 17.2973 -8.94951
252 1 9.43456 7.8266e-16 15.7249 -8.94953
253 1 11.007 1.57189 17.2973 -8.94952
254 1 12.5798 5.3728e-16 15.7249 -8.94959
255 1 14.1522 1.57185 17.2972 -8.94954
256 1 15.7247 3.77182e-16 15.7246 -8.95001
257 1 17.2971 1.57194 17.2971 -8.94947
258 1 18.8692 6.35068e-16 15.7243 -8.94969
259 1 20.4415 1.57224 17.2968 -8.94961
260 1 22.0135 3.14446 15.7246 -8.94955
261 1 1.57199 4.71699 17.2971 -8.94989
262 1 3.14343 3.14365 15.7255 -8.94824
263 1 4.71577 4.7159 17.2986 -8.94905
264 1 6.28867 3.1431 15.7258 -8.94947
265 1 7.86154 4.71584 17.2983 -8.94948
266 1 9.43447 3.14308 15.7255 -8.94933
267 1 11.007 4.71567 17.2983 -8.94922
268 1 12.5801 3.14288 15.7255 -8.94921
269 1 14.1529 4.71528 17.2983 -8.94985
270 1 15.7256 3.14299 15.7253 -8.94938
271 1 17.2982 4.7158 17.2979 -8.94817
272 1 18.8695 3.14434 15.7245 -8.94981
273 1 20.4419 4.71687 17.297 -8.9496
274 1 -2.06105e-05 6.28946 15.7246 -8.9499
275 1 1.57204 7.86202 17.2971 -8.9495
276 1 3.14352 6.28932 15.7253 -8.9506
277 1 4.71631 7.86214 17.2976 -8.94975
278 1 6.28573 6.286 15.7298 -8.94837
279 1 7.86038 7.86052 17.3005 -8.95205
280 1 9.434 6.28595 15.7277 -8.94865
281 1 11.0063 7.86039 17.3011 -8.95053
282 1 12.5814 6.28512 15.7288 -8.95086
283 1 14.1559 7.85813 17.3027 -8.94805
284 1 15.729 6.28515 15.7284 -8.9441
285 1 17.2985 7.86123 17.298 -8.94973
286 1 18.8707 6.28872 15.725 -8.94979
287 1 20.442 7.86189 17.2971 -8.94958
288 1 22.0139 9.43444 15.7247 -8.94962
289 1 3.14379 9.43459 15.7251 -8.94923
290 1 6.28837 9.43542 15.7255 -8.95
291 1 9.43148 9.4306 15.7288 -8.99956
292 1 12.5889 9.42548 15.741 -8.98484
293 1 15.7288 9.43321 15.7279 -8.94994
294 1 18.8708 9.43422 15.7251 -8.94948
295 1 22.0138 6.79568e-16 18.8692 -8.94937
296 1 1.57221 1.57224 20.4415 -8.94942
297 1 3.14459 -1.15465e-16 18.8693 -8.94958
298 1 4.7171 1.57222 20.4416 -8.9496
299 1 6.28955 -1.27273e-15 18.8693 -8.94958
300 1 7.86202 1.57217 20.4416 -8.94957
301 1 9.4345 -3.37448e-16 18.8694 -8.94959
302 1 11.007 1.57215 20.4416 -8.94957
303 1 12.5795 -3.01127e-16 18.8694 -8.94957
304 1 14.1519 1.57217 20.4416 -8.94957
305 1 15.7244 1.23327e-17 18.8693 -8.94959
306 1 17.2969 1.57218 20.4416 -8.94962
307 1 18.8693 5.85693e-17 18.8692 -8.94945
308 1 20.4416 1.57229 20.4415 -8.94936
309 1 -2.54513e-05 3.14467 18.8693 -8.94962
310 1 1.57226 4.71716 20.4415 -8.9497
311 1 3.14431 3.14435 18.8696 -8.94939
312 1 4.71671 4.71677 20.4417 -8.94991
313 1 6.28937 3.14427 18.8696 -8.94958
314 1 7.86177 4.71656 20.4417 -8.94954
315 1 9.43443 3.14415 18.8696 -8.94953
316 1 11.0069 4.7165 20.4417 -8.94954
317 1 12.5795 3.14414 18.8696 -8.94951
318 1 14.1521 4.71649 20.4417 -8.94972
319 1 15.7247 3.14411 18.8696 -8.94964
320 1 17.2974 4.71649 20.4417 -8.94929
321 1 18.8695 3.14439 18.8694 -8.94921
322 1 20.4417 4.71707 20.4415 -8.94959
323 1 22.0139 6.28956 18.8693 -8.94958
324 1 1.57221 7.86203 20.4416 -8.94956
325 1 3.14439 6.28957 18.8695 -8.94973
326 1 4.71676 7.86208 20.4417 -8.9496
327 1 6.2887 6.28887 18.8706 -8.95035
328 1 7.86134 7.86154 20.4423 -8.95014
329 1 9.43402 6.28844 18.8705 -8.94951
330 1 11.0066 7.86135 20.4424 -8.94997
331 1 12.5796 6.28844 18.8706 -8.95001
332 1 14.1529 7.86099 20.4425 -8.95049
333 1 15.7259 6.28805 18.8708 -8.94904
334 1 17.2975 7.8617 20.4416 -8.94945
335 1 18.8698 6.28927 18.8695 -8.94961
49 1 18.8697 9.4344 22.0136 -8.94952
5 1 6.28958 -4.62747e-16 22.0138 -8.94956
9 1 12.5794 -1.7119e-16 22.0138 -8.94957
15 1 22.0139 3.14468 22.0138 -8.9496
17 1 3.14439 3.14442 22.0136 -8.94948
21 1 9.43445 3.14429 22.0136 -8.94953
23 1 12.5795 3.14429 22.0136 -8.9495
27 1 18.8695 3.14439 22.0137 -8.94914
29 1 4.00019e-05 6.28958 22.0138 -8.94954
33 1 6.28903 6.28917 22.0133 -8.95056
39 1 15.7253 6.28853 22.0131 -8.94992
46 1 9.43406 9.43439 22.0142 -8.9494
47 1 12.5798 9.43415 22.0132 -8.95186
1 1 -0.000118141 7.10251e-16 22.0138 -8.94933
13 1 18.8693 9.09818e-17 22.0138 -8.94944
44 1 3.14444 9.4345 22.0137 -8.94955
181 1 17.2971 1.57206 11.0069 -8.94954
344 1 1.57215 11.007 1.572 -8.94958
345 1 4.71662 11.007 1.57172 -8.94964
346 1 7.86182 11.007 1.57253 -8.94817
347 1 11.0069 11.007 1.57214 -8.94692
348 1 14.1542 11.007 1.56885 -8.94947
349 1 17.2982 11.007 1.57121 -8.94942
350 1 20.4419 11.007 1.572 -8.94953
351 1 22.0139 12.5794 -0.000145306 -8.94958
352 1 1.57219 14.1518 1.57206 -8.94943
537 1 14.1524 20.4421 11.0068 -8.94938
354 1 4.71678 14.1516 1.5718 -8.94966
355 1 6.28918 12.5793 -9.96581e-05 -8.94939
356 1 7.86159 14.1521 1.57055 -8.95252
688 3 10.1527 11.007 9.40295 2.34478
358 1 11.0066 14.1529 1.56995 -8.95062
511 1 18.8694 18.8696 9.4345 -8.94957
360 1 14.1537 14.1536 1.569 -8.95172
361 1 15.7255 12.5798 -0.000888619 -8.94927
362 1 17.2981 14.1525 1.57123 -8.94917
510 1 15.7251 18.8701 9.43445 -8.94961
364 1 20.4419 14.152 1.57202 -8.94947
509 1 12.5801 18.8705 9.43405 -8.94876
366 1 1.57209 17.2969 1.57201 -8.94983
367 1 3.14453 15.7243 -0.000176429 -8.94973
368 1 4.71614 17.2977 1.57092 -8.9495
508 1 9.43437 18.8707 9.43425 -8.94638
370 1 7.8617 17.2976 1.57121 -8.94912
371 1 9.43413 15.7251 -0.000642331 -8.94957
372 1 11.007 17.2978 1.57126 -8.94935
373 1 12.5795 15.7251 -0.00070842 -8.94965
374 1 14.1524 17.2979 1.57123 -8.94969
507 1 6.28701 18.8733 9.43412 -8.94935
376 1 17.298 17.298 1.57133 -8.94817
377 1 18.8696 15.7246 -0.000261826 -8.94954
378 1 20.4419 17.297 1.57209 -8.94957
506 1 3.14329 18.8704 9.43447 -8.94949
380 1 1.57201 20.4417 1.57204 -8.94919
505 1 22.0134 18.8695 9.43451 -8.94954
382 1 4.71697 20.4418 1.57197 -8.94965
383 1 6.28945 18.8695 -0.000283066 -8.9495
384 1 7.86201 20.4418 1.57197 -8.9495
504 1 18.87 15.7251 9.43451 -8.94955
386 1 11.007 20.4419 1.57197 -8.94953
503 1 15.7266 15.7264 9.43428 -8.9462
388 1 14.152 20.4419 1.57205 -8.94951
389 1 15.7245 18.8696 -0.000256596 -8.94969
390 1 17.2971 20.4419 1.57205 -8.9495
502 1 12.5796 15.7263 9.4323 -8.946
392 1 20.4415 20.4417 1.57228 -8.94956
393 1 1.57173 11.007 4.71641 -8.94949
394 1 4.71565 11.007 4.71543 -8.94617
395 1 7.86457 11.007 4.71988 -8.94588
396 1 11.0124 11.007 4.72071 -9.00152
397 1 14.1628 11.007 4.70678 -8.94153
398 1 17.3011 11.007 4.71494 -8.9491
399 1 20.4425 11.007 4.71664 -8.94992
400 1 8.04628e-05 12.5795 3.14433 -8.94955
401 1 1.57169 14.1517 4.71669 -8.94977
402 1 3.14408 12.5793 3.14398 -8.94897
403 1 4.71496 14.1518 4.71547 -8.95139
404 1 6.28927 12.5785 3.14405 -8.94917
405 1 7.85633 14.1578 4.7069 -8.95497
406 1 9.43507 12.5793 3.14369 -8.95112
407 1 11.0075 14.1569 4.70807 -8.95166
408 1 12.5824 12.5808 3.1365 -8.95979
409 1 14.1651 14.1642 4.70402 -8.93014
410 1 15.7281 12.5808 3.14117 -8.94744
411 1 17.301 14.1538 4.71523 -8.95079
412 1 18.8706 12.5797 3.14387 -8.94929
413 1 20.4424 14.1521 4.7168 -8.95015
414 1 22.0139 15.7244 3.14445 -8.94981
415 1 1.57094 17.2975 4.71629 -8.94968
416 1 3.1438 15.7245 3.14383 -8.95033
417 1 4.71297 17.3007 4.71299 -8.94422
418 1 6.28692 15.7267 3.14039 -8.9503
419 1 7.86088 17.3001 4.7145 -8.94885
420 1 9.43388 15.7267 3.14161 -8.94773
421 1 11.0075 17.2999 4.7147 -8.94771
422 1 12.5805 15.7269 3.14127 -8.9493
423 1 14.1548 17.3014 4.71434 -8.94979
424 1 15.7285 15.7284 3.14075 -8.94454
425 1 17.2979 17.2979 4.71674 -8.94998
426 1 18.8705 15.7251 3.14397 -8.94968
427 1 20.4415 17.2971 4.71702 -8.94986
428 1 22.0135 18.8694 3.14448 -8.94955
429 1 1.57188 20.4418 4.71691 -8.94949
430 1 3.14353 18.8702 3.14354 -8.94815
431 1 4.71636 20.4426 4.71629 -8.95002
432 1 6.28909 18.8703 3.14364 -8.9496
433 1 7.86199 20.4425 4.71645 -8.9496
434 1 9.43447 18.8703 3.14375 -8.94938
435 1 11.0072 20.4424 4.71649 -8.94957
436 1 12.5797 18.8704 3.14387 -8.94914
437 1 14.1523 20.4425 4.71682 -8.95063
438 1 15.7253 18.8707 3.14378 -8.94943
439 1 17.297 20.4418 4.71716 -8.94966
440 1 18.8694 18.8696 3.14459 -8.94972
441 1 20.4415 20.4417 4.71716 -8.94954
442 1 1.57175 11.007 7.86167 -8.94774
443 1 4.71893 11.007 7.86232 -8.94065
444 1 7.88186 11.007 7.87088 -8.87553
445 1 11.0942 11.007 7.63818 -8.15362
446 1 14.1621 11.007 7.85372 -8.97169
447 1 17.2997 11.007 7.86234 -8.95149
448 1 20.4421 11.007 7.86215 -8.94963
449 1 22.0138 12.5793 6.28932 -8.94989
450 1 1.56983 14.1521 7.86173 -8.95187
451 1 3.14317 12.5787 6.28891 -8.94968
452 1 4.70633 14.1558 7.85918 -8.9584
453 1 6.2861 12.5769 6.28834 -8.95154
454 1 7.81874 14.1909 7.82557 -8.84649
455 1 9.42173 12.6015 6.28394 -8.90969
456 1 11.0227 14.1634 7.83488 -8.89808
457 1 12.621 12.6134 6.25037 -8.85881
458 1 14.1586 14.1558 7.86117 -8.94927
459 1 15.7349 12.582 6.28569 -8.95747
460 1 17.2987 14.1524 7.86279 -8.95084
461 1 18.8716 12.5797 6.2893 -8.95164
462 1 20.4416 14.1521 7.86215 -8.95008
463 1 22.013 15.7247 6.2893 -8.95026
464 1 1.5708 17.2977 7.8617 -8.94934
465 1 3.14046 15.7263 6.28751 -8.95091
466 1 4.71319 17.3006 7.86042 -8.94724
467 1 6.27605 15.7373 6.2768 -8.92861
468 1 7.85888 17.3053 7.86027 -8.9596
469 1 9.43343 15.7334 6.28391 -8.94941
470 1 11.0064 17.2994 7.86137 -8.9523
471 1 12.5862 15.7355 6.28205 -8.95257
472 1 14.1531 17.2988 7.86202 -8.94873
473 1 15.7275 15.7268 6.2887 -8.95037
474 1 17.2977 17.2977 7.86202 -8.94897
475 1 18.87 15.7248 6.28966 -8.95003
476 1 20.4415 17.2972 7.86198 -8.94956
477 1 -0.000442093 18.8695 6.28946 -8.94948
478 1 1.57182 20.4419 7.86196 -8.94954
479 1 3.14338 18.8704 6.28886 -8.94913
480 1 4.71605 20.4427 7.86157 -8.94931
481 1 6.28789 18.8728 6.2879 -8.95167
482 1 7.86188 20.4432 7.8618 -8.95141
483 1 9.43468 18.872 6.2884 -8.95037
484 1 11.0071 20.4423 7.86199 -8.94955
485 1 12.5799 18.8716 6.28913 -8.95248
486 1 14.1524 20.4422 7.86198 -8.94947
487 1 15.7249 18.8701 6.2896 -8.94952
488 1 17.2971 20.4418 7.86204 -8.94955
489 1 18.8694 18.8695 6.28959 -8.94944
490 1 20.4415 20.4417 7.86205 -8.94958
491 1 22.0132 12.5793 9.43452 -8.94953
492 1 3.14188 12.579 9.43437 -8.95116
493 1 6.28068 12.588 9.43338 -8.97109
494 1 9.35556 12.8306 9.4318 -8.13561
495 1 12.5653 12.5821 9.42071 -8.93362
496 1 15.7224 12.5785 9.43513 -8.94441
497 1 18.8695 12.5795 9.43471 -8.94802
498 1 -0.00101321 15.7248 9.43451 -8.95001
499 1 3.14023 15.7266 9.43444 -8.94924
500 1 6.27802 15.7354 9.43354 -8.94088
501 1 9.42921 15.723 9.43398 -9.00717
526 1 1.5708 17.2977 11.0073 -8.9493
527 1 4.71323 17.3004 11.0082 -8.94768
530 1 14.1529 17.2983 11.0062 -8.94902
531 1 17.2977 17.2977 11.0069 -8.94897
532 1 20.4415 17.2972 11.007 -8.94955
534 1 4.71606 20.4427 11.0073 -8.94933
517 1 17.2973 11.007 11.0066 -8.94688
518 1 20.4418 11.007 11.0069 -8.94885
512 1 1.57175 11.007 11.0073 -8.94766
513 1 4.71919 11.007 11.0061 -8.94152
514 1 7.88059 11.007 10.9903 -8.90527
515 1 11.1516 11.007 11.1324 -8.48325
516 1 14.147 11.007 11.0145 -9.0245
391 1 18.8695 18.8695 22.0137 -8.94914
387 1 12.5795 18.8696 22.0136 -8.9495
519 1 1.56986 14.1521 11.0072 -8.95192
520 1 4.70641 14.1555 11.0095 -8.95942
521 1 7.81741 14.1925 11.0389 -8.87905
522 1 11.0292 14.1669 11.0257 -8.94909
523 1 14.157 14.1541 11.0043 -8.95454
524 1 17.2986 14.1526 11.0064 -8.95021
525 1 20.4416 14.1521 11.0069 -8.95004
687 2 10.1595 11.007 12.6382 0.852366
686 1 20.4416 20.4416 20.4415 -8.94936
528 1 7.85816 17.3067 11.0075 -8.95823
529 1 11.0075 17.3011 11.0061 -8.95149
685 1 18.8695 18.8695 18.8694 -8.94921
684 1 17.2969 20.4417 20.4416 -8.94962
683 1 15.7247 18.8698 18.8696 -8.94964
533 1 1.57181 20.4419 11.0071 -8.94952
682 1 14.1519 20.4417 20.4416 -8.94957
535 1 7.86171 20.4436 11.0069 -8.95159
536 1 11.0073 20.4427 11.0066 -8.94979
681 1 12.5795 18.8698 18.8696 -8.94951
680 1 11.007 20.4417 20.4416 -8.94957
539 1 20.4415 20.4417 11.007 -8.94958
540 1 1.57166 11.007 14.1526 -8.94941
541 1 4.71583 11.007 14.1533 -8.9458
542 1 7.86614 11.007 14.1489 -8.97706
543 1 11.0377 11.007 14.224 -9.25829
544 1 14.1596 11.007 14.1618 -8.99139
545 1 17.3006 11.007 14.154 -8.9481
546 1 20.4424 11.007 14.1523 -8.94983
547 1 -0.000181601 12.5793 12.5796 -8.94975
548 1 1.57158 14.1517 14.1523 -8.94988
549 1 3.14334 12.5786 12.58 -8.94921
550 1 4.71461 14.1518 14.1533 -8.9528
551 1 6.28765 12.5762 12.5798 -9.00289
552 1 7.85311 14.1619 14.1652 -8.99257
553 1 9.41395 12.6482 12.5778 -9.19481
554 1 11.0102 14.1587 14.163 -9.00073
555 1 12.6213 12.6158 12.6188 -8.90749
556 1 14.1661 14.1651 14.1648 -8.92868
557 1 15.7333 12.5809 12.5825 -8.96077
558 1 17.301 14.1537 14.1535 -8.95157
559 1 18.8712 12.5795 12.5795 -8.95176
560 1 20.4423 14.1521 14.1521 -8.95029
561 1 22.013 15.7247 12.5797 -8.95023
562 1 1.57089 17.2976 14.1527 -8.94966
563 1 3.14044 15.7263 12.5814 -8.95076
564 1 4.71281 17.3008 14.1559 -8.94442
565 1 6.27635 15.7376 12.5916 -8.9285
566 1 7.86004 17.3019 14.1551 -8.9485
567 1 9.43424 15.7427 12.5838 -8.96329
568 1 11.0083 17.3016 14.1549 -8.94607
569 1 12.5864 15.7365 12.5865 -8.95256
570 1 14.1552 17.3019 14.1546 -8.94987
571 1 15.7271 15.7263 12.5794 -8.95071
572 1 17.2979 17.2978 14.1521 -8.95025
573 1 18.87 15.7248 12.5793 -8.94975
574 1 20.4415 17.2971 14.152 -8.94981
575 1 -0.00044153 18.8695 12.5796 -8.94947
576 1 1.57186 20.4418 14.1521 -8.94952
577 1 3.14337 18.8704 12.5801 -8.94921
578 1 4.71622 20.4426 14.1527 -8.94993
579 1 6.2877 18.8731 12.581 -8.95129
580 1 7.86176 20.4429 14.1527 -8.94982
581 1 9.43471 18.8738 12.5804 -8.953
582 1 11.0074 20.4429 14.1527 -8.94967
583 1 12.5801 18.872 12.5797 -8.95237
584 1 14.1525 20.4426 14.1522 -8.95064
585 1 15.7249 18.87 12.5792 -8.94949
586 1 17.297 20.4418 14.1518 -8.94967
587 1 18.8694 18.8695 12.5794 -8.94943
588 1 20.4415 20.4417 14.1519 -8.94954
589 1 1.57199 11.007 17.2972 -8.94959
590 1 4.71622 11.007 17.2978 -8.9491
591 1 7.86185 11.007 17.2977 -8.94799
592 1 11.0071 11.007 17.312 -8.96806
593 1 14.1547 11.007 17.302 -8.94874
594 1 17.2984 11.007 17.2981 -8.94926
595 1 20.442 11.007 17.2971 -8.94957
596 1 22.0139 12.5795 15.7247 -8.94962
597 1 1.57204 14.1519 17.2971 -8.9495
598 1 3.14379 12.5793 15.7251 -8.94923
599 1 4.71631 14.1518 17.2976 -8.94975
600 1 6.28837 12.5785 15.7255 -8.95
601 1 7.86038 14.1534 17.3005 -8.95205
602 1 9.43148 12.5833 15.7288 -8.99956
603 1 11.0063 14.1535 17.3011 -8.95053
604 1 12.5889 12.5884 15.741 -8.98484
605 1 14.1559 14.1558 17.3027 -8.94805
606 1 15.7288 12.5807 15.7279 -8.94994
607 1 17.2985 14.1527 17.298 -8.94973
608 1 18.8708 12.5797 15.7251 -8.94948
609 1 20.442 14.152 17.2971 -8.94958
610 1 -2.06105e-05 15.7244 15.7246 -8.9499
611 1 1.57199 17.2969 17.2971 -8.94989
612 1 3.14352 15.7246 15.7253 -8.9506
613 1 4.71577 17.298 17.2986 -8.94905
614 1 6.28573 15.7279 15.7298 -8.94837
615 1 7.86154 17.2981 17.2983 -8.94948
616 1 9.434 15.728 15.7277 -8.94865
617 1 11.007 17.2982 17.2983 -8.94922
618 1 12.5814 15.7288 15.7288 -8.95086
619 1 14.1529 17.2986 17.2983 -8.94985
620 1 15.729 15.7287 15.7284 -8.9441
621 1 17.2982 17.2981 17.2979 -8.94817
622 1 18.8707 15.7252 15.725 -8.94979
623 1 20.4419 17.297 17.297 -8.9496
624 1 22.0135 18.8694 15.7246 -8.94955
625 1 1.57197 20.4418 17.2971 -8.94922
626 1 3.14343 18.8703 15.7255 -8.94824
627 1 4.71679 20.4419 17.2973 -8.94958
628 1 6.28867 18.8708 15.7258 -8.94947
629 1 7.86195 20.442 17.2973 -8.94951
630 1 9.43447 18.8708 15.7255 -8.94933
631 1 11.007 20.442 17.2973 -8.94952
632 1 12.5801 18.871 15.7255 -8.94921
633 1 14.1522 20.4421 17.2972 -8.94954
634 1 15.7256 18.8709 15.7253 -8.94938
635 1 17.2971 20.442 17.2971 -8.94947
636 1 18.8695 18.8696 15.7245 -8.94981
637 1 20.4415 20.4417 17.2968 -8.94961
638 1 1.57219 11.007 20.4416 -8.94959
639 1 4.71668 11.007 20.4417 -8.94965
640 1 7.86146 11.007 20.4422 -8.94882
641 1 11.0066 11.007 20.4446 -8.95231
642 1 14.1529 11.007 20.4424 -8.94987
643 1 17.2976 11.007 20.4416 -8.94946
644 1 20.4418 11.007 20.4415 -8.94958
645 1 1.45672e-06 12.5794 18.8693 -8.94959
646 1 1.57221 14.1519 20.4416 -8.94956
647 1 3.14429 12.5794 18.8695 -8.94952
648 1 4.71676 14.1518 20.4417 -8.9496
649 1 6.28889 12.5793 18.8699 -8.94969
650 1 7.86134 14.1524 20.4423 -8.95014
651 1 9.43309 12.5805 18.8722 -8.94751
652 1 11.0066 14.1526 20.4424 -8.94997
653 1 12.5809 12.5809 18.8741 -8.95127
654 1 14.1529 14.1529 20.4425 -8.95049
655 1 15.7258 12.5799 18.8706 -8.94937
656 1 17.2975 14.1522 20.4416 -8.94945
657 1 18.8698 12.5795 18.8695 -8.9495
658 1 20.4417 14.1519 20.4415 -8.94957
659 1 22.0139 15.7243 18.8693 -8.94958
660 1 1.57226 17.2967 20.4415 -8.9497
661 1 3.14439 15.7243 18.8695 -8.94973
662 1 4.71671 17.2971 20.4417 -8.94991
663 1 6.2887 15.725 18.8706 -8.95035
664 1 7.86177 17.2973 20.4417 -8.94954
665 1 9.43402 15.7255 18.8705 -8.94951
666 1 11.0069 17.2974 20.4417 -8.94954
667 1 12.5796 15.7255 18.8706 -8.95001
668 1 14.1521 17.2974 20.4417 -8.94972
669 1 15.7259 15.7259 18.8708 -8.94904
670 1 17.2974 17.2974 20.4417 -8.94929
671 1 18.8698 15.7246 18.8695 -8.94961
672 1 20.4417 17.2968 20.4415 -8.94959
673 1 -2.54513e-05 18.8692 18.8693 -8.94962
674 1 1.57221 20.4417 20.4415 -8.94942
675 1 3.14431 18.8695 18.8696 -8.94939
676 1 4.7171 20.4417 20.4416 -8.9496
677 1 6.28937 18.8696 18.8696 -8.94958
678 1 7.86202 20.4417 20.4416 -8.94957
679 1 9.43443 18.8698 18.8696 -8.94953
357 1 9.43406 12.5795 22.0142 -8.9494
359 1 12.5798 12.5798 22.0132 -8.95186
363 1 18.8697 12.5795 22.0136 -8.94952
365 1 4.00019e-05 15.7243 22.0138 -8.94954
369 1 6.28903 15.7247 22.0133 -8.95056
375 1 15.7253 15.7254 22.0131 -8.94992
379 1 22.0139 18.8692 22.0138 -8.9496
381 1 3.14439 18.8695 22.0136 -8.94948
385 1 9.43445 18.8696 22.0136 -8.94953
353 1 3.14444 12.5794 22.0137 -8.94955
538 1 17.2971 20.4418 11.0069 -8.94954
