ITEM: TIMESTEP
57
ITEM: NUMBER OF ATOMS
688
ITEM: BOX BOUNDS pp pp pp
0.0000000000000000e+00 2.2013900999999997e+01
0.0000000000000000e+00 2.2013900999999997e+01
0.0000000000000000e+00 2.2013900999999997e+01
ITEM: ATOMS id type x y z c_pot
189 1 20.4415 4.71723 11.007 -8.94962
2 1 1.5724 1.57241 1.5724 -8.94956
175 1 18.8695 9.43434 9.43453 -8.94906
4 1 4.71726 1.57241 1.57241 -8.94969
174 1 15.7249 9.43408 9.43483 -8.9452
6 1 7.8621 1.5724 1.5724 -8.94963
7 1 9.43453 -7.36107e-17 -2.19705e-06 -8.94964
8 1 11.007 1.57241 1.5724 -8.94964
173 1 12.5725 9.43225 9.42633 -8.93024
10 1 14.1518 1.57241 1.57241 -8.94962
11 1 15.7242 9.40102e-16 -8.17964e-07 -8.94964
12 1 17.2967 1.57239 1.5724 -8.9496
188 1 17.2968 4.71709 11.007 -8.94944
14 1 20.4415 1.57242 1.57242 -8.94964
172 1 9.34899 9.20668 9.43464 -8.13208
16 1 1.57241 4.71726 1.57241 -8.94969
171 1 6.27817 9.42956 9.43346 -8.97067
18 1 4.71712 4.71712 1.57219 -8.94954
19 1 6.28969 3.14483 -1.06383e-05 -8.94963
20 1 7.8621 4.71715 1.57228 -8.94947
170 1 3.14257 9.43477 9.43441 -8.95183
22 1 11.007 4.71714 1.57227 -8.94961
169 1 22.0136 9.43454 9.43452 -8.95001
24 1 14.1518 4.71718 1.57233 -8.94983
25 1 15.7242 3.14483 -8.21938e-06 -8.9497
26 1 17.2968 4.7171 1.57227 -8.94908
168 1 18.8693 6.28951 9.4345 -8.94954
28 1 20.4415 4.71725 1.5724 -8.94962
167 1 15.7252 6.28861 9.43434 -8.94727
30 1 1.57241 7.8621 1.5724 -8.94961
31 1 3.14483 6.28969 -1.76617e-06 -8.94965
32 1 4.7172 7.86215 1.57234 -8.94967
166 1 12.5791 6.28875 9.43387 -8.94889
34 1 7.86188 7.8619 1.57159 -8.95104
35 1 9.4345 6.28956 -0.000140427 -8.94958
36 1 11.0067 7.86174 1.57157 -8.94972
37 1 12.5794 6.2896 -0.000111309 -8.94957
38 1 14.1523 7.86156 1.57124 -8.95065
165 1 9.43168 6.28731 9.43456 -9.00081
40 1 17.2967 7.86207 1.57231 -8.94968
41 1 18.8691 6.28969 -1.12221e-05 -8.94969
42 1 20.4415 7.8621 1.57241 -8.94962
43 1 22.0139 9.43453 -2.1038e-06 -8.94964
187 1 14.1522 4.71658 11.0066 -8.94974
45 1 6.28961 9.43455 -4.68174e-05 -8.94965
164 1 6.2841 6.28401 9.43379 -8.9434
163 1 3.1436 6.28909 9.43453 -8.94931
48 1 15.7243 9.43451 -0.000157211 -8.94948
162 1 -0.000139474 6.28961 9.43453 -8.94974
50 1 -1.48942e-06 3.76146e-16 3.14484 -8.94965
51 1 1.57241 1.57241 4.71726 -8.94967
52 1 3.14481 -2.55534e-16 3.14481 -8.94959
53 1 4.71714 1.57223 4.71714 -8.94969
54 1 6.28969 1.22618e-15 3.14483 -8.94963
55 1 7.86212 1.5723 4.71718 -8.94957
56 1 9.43453 1.51534e-15 3.14482 -8.94964
57 1 11.007 1.57227 4.71715 -8.94958
58 1 12.5794 1.00565e-15 3.14481 -8.94961
59 1 14.1519 1.57225 4.71719 -8.94988
60 1 15.7242 8.1453e-16 3.14482 -8.94967
61 1 17.2966 1.57241 4.71727 -8.94965
62 1 18.8691 7.68546e-16 3.14484 -8.94964
63 1 20.4415 1.57242 4.71726 -8.94963
64 1 22.0139 3.14482 3.14483 -8.94961
65 1 1.5722 4.71714 4.71714 -8.94961
66 1 3.14468 3.14469 3.14468 -8.94909
67 1 4.71604 4.71605 4.71601 -8.94632
68 1 6.28968 3.14475 3.14476 -8.94982
69 1 7.8621 4.71656 4.71671 -8.9497
70 1 9.43452 3.14469 3.14472 -8.94961
71 1 11.0071 4.71637 4.71656 -8.94857
72 1 12.5794 3.1447 3.14473 -8.94948
73 1 14.1525 4.71582 4.71655 -8.94995
74 1 15.7244 3.14461 3.1447 -8.94956
75 1 17.2967 4.71717 4.71724 -8.94984
76 1 18.8691 3.14483 3.14484 -8.94968
77 1 20.4415 4.71725 4.71725 -8.94966
78 1 22.0139 6.28968 3.14482 -8.94966
79 1 1.57231 7.86211 4.71718 -8.94961
80 1 3.14475 6.28968 3.14476 -8.94991
81 1 4.71669 7.86224 4.7168 -8.95065
82 1 6.28894 6.28898 3.14341 -8.94994
83 1 7.85934 7.85946 4.71119 -8.95426
84 1 9.43442 6.28898 3.14394 -8.94851
85 1 11.0062 7.85999 4.71301 -8.95096
86 1 12.5794 6.28913 3.14413 -8.94974
87 1 14.159 7.85485 4.71004 -8.93237
88 1 15.7255 6.28843 3.14361 -8.9463
89 1 17.2979 7.86154 4.71671 -8.95037
90 1 18.8693 6.28957 3.14472 -8.94963
91 1 20.4416 7.86206 4.71721 -8.94983
92 1 -1.91105e-06 9.43452 3.14482 -8.94962
93 1 3.14471 9.43451 3.1447 -8.94944
94 1 6.28941 9.43488 3.14441 -8.94957
95 1 9.43417 9.43428 3.14325 -8.94994
96 1 12.5806 9.43353 3.13966 -8.95712
97 1 15.725 9.43428 3.14401 -8.94881
98 1 18.8692 9.4345 3.14474 -8.94951
99 1 22.0139 9.51775e-16 6.28969 -8.94964
100 1 1.57241 1.57241 7.86211 -8.94966
101 1 3.14481 5.06732e-16 6.28968 -8.94959
102 1 4.71712 1.57224 7.86205 -8.94947
103 1 6.2896 1.62639e-15 6.28959 -8.95003
104 1 7.86204 1.57177 7.86201 -8.9508
105 1 9.43456 1.75952e-15 6.2896 -8.9498
106 1 11.0071 1.57208 7.86202 -8.94973
107 1 12.5794 6.02537e-16 6.28963 -8.94993
108 1 14.1519 1.57231 7.8621 -8.94958
109 1 15.7242 7.49644e-16 6.28969 -8.94962
110 1 17.2967 1.57239 7.8621 -8.94962
111 1 18.8691 1.10466e-15 6.28968 -8.94963
112 1 20.4415 1.57242 7.86211 -8.94964
113 1 -1.40764e-05 3.14483 6.28968 -8.94962
114 1 1.57224 4.71715 7.86208 -8.94954
115 1 3.14472 3.14471 6.28964 -8.94963
116 1 4.71635 4.7163 7.86174 -8.94856
117 1 6.28919 3.14364 6.28915 -8.95064
118 1 7.86094 4.71216 7.86107 -8.95707
119 1 9.43474 3.14397 6.28932 -8.9497
120 1 11.0072 4.71553 7.86177 -8.95028
121 1 12.5796 3.14397 6.28949 -8.95104
122 1 14.1522 4.71662 7.86232 -8.94945
123 1 15.7243 3.14473 6.28971 -8.94963
124 1 17.2968 4.71709 7.86206 -8.94939
125 1 18.8691 3.14482 6.28968 -8.9496
126 1 20.4415 4.71723 7.8621 -8.94962
127 1 22.0138 6.28963 6.28963 -8.94983
128 1 1.57159 7.86199 7.86198 -8.95085
129 1 3.14353 6.28908 6.28907 -8.95024
130 1 4.71121 7.86029 7.86044 -8.956
131 1 6.28254 6.28261 6.28242 -8.93233
132 1 7.8281 7.8314 7.83175 -8.85475
133 1 9.43513 6.28548 6.28752 -8.95051
134 1 11.0176 7.85606 7.84602 -8.91007
135 1 12.5822 6.28357 6.28691 -8.95399
136 1 14.1554 7.85989 7.86293 -8.94833
137 1 15.7249 6.28909 6.28964 -8.95012
138 1 17.2974 7.86177 7.86231 -8.94985
139 1 18.8692 6.28961 6.28969 -8.94965
140 1 20.4415 7.86205 7.8621 -8.94982
141 1 22.0139 9.43452 6.28962 -8.94978
142 1 3.14411 9.43473 6.2893 -8.94945
143 1 6.2872 9.43657 6.28846 -8.95099
144 1 9.42404 9.41963 6.28479 -8.91375
145 1 12.6133 9.40449 6.25816 -8.85798
146 1 15.73 9.43314 6.28813 -8.95638
147 1 18.8698 9.43444 6.28958 -8.95082
148 1 -2.1255e-06 1.02354e-15 9.43453 -8.94964
149 1 3.14482 2.05243e-15 9.43453 -8.94963
150 1 6.28954 1.70171e-15 9.4345 -8.94986
151 1 9.43459 1.60955e-15 9.43451 -8.94986
152 1 12.5795 4.25577e-16 9.4345 -8.94961
153 1 15.7242 -4.65193e-16 9.43453 -8.94968
154 1 18.8691 9.44426e-16 9.43453 -8.94963
155 1 22.0139 3.14483 9.43453 -8.94963
156 1 3.14472 3.14473 9.43454 -8.94972
157 1 6.28897 3.14349 9.4344 -8.94917
158 1 9.43473 3.14338 9.43448 -8.94882
159 1 12.5797 3.14433 9.43439 -8.94898
160 1 15.7244 3.14461 9.43451 -8.94963
161 1 18.8691 3.14482 9.43453 -8.94966
177 1 4.71714 1.57227 11.007 -8.9495
180 1 14.1519 1.5723 11.0069 -8.94964
184 1 4.7164 4.71645 11.0072 -8.949
183 1 1.57225 4.71715 11.007 -8.94951
3 1 3.14484 5.40883e-16 -1.12675e-06 -8.94966
176 1 1.57241 1.57241 11.007 -8.94965
343 1 18.8691 9.43453 18.8691 -8.94963
178 1 7.86196 1.57163 11.007 -8.95092
179 1 11.0071 1.57193 11.0069 -8.94983
342 1 15.7244 9.43455 18.8692 -8.94966
341 1 12.5802 9.4337 18.8711 -8.95033
182 1 20.4415 1.57242 11.007 -8.94964
340 1 9.43376 9.43378 18.8705 -8.94812
339 1 6.28944 9.43452 18.8694 -8.94988
185 1 7.86031 4.71119 11.0073 -8.95605
186 1 11.0078 4.71453 11.0066 -8.94939
338 1 3.14478 9.43451 18.8691 -8.94962
337 1 -5.50229e-06 9.43453 18.8691 -8.94964
336 1 20.4415 7.86211 20.4415 -8.94964
190 1 1.57159 7.862 11.0071 -8.95092
191 1 4.71102 7.86054 11.0085 -8.9573
192 1 7.82522 7.82921 11.0335 -8.88598
193 1 11.0214 7.85333 11.02 -8.96203
194 1 14.1557 7.85993 11.0045 -8.95161
195 1 17.2977 7.86161 11.0067 -8.9496
196 1 20.4416 7.86204 11.0069 -8.94985
197 1 22.0139 -5.18574e-16 12.5794 -8.94964
198 1 1.57241 1.57241 14.1518 -8.94967
199 1 3.14482 -4.17251e-16 12.5794 -8.94961
200 1 4.71713 1.57224 14.1519 -8.94966
201 1 6.28958 1.33085e-15 12.5795 -8.94997
202 1 7.86204 1.57215 14.1519 -8.94971
203 1 9.43457 -2.16848e-16 12.5795 -8.95034
204 1 11.007 1.57212 14.152 -8.9496
205 1 12.5794 -5.31778e-16 12.5794 -8.94995
206 1 14.1519 1.57221 14.1519 -8.94992
207 1 15.7242 7.47545e-16 12.5794 -8.94963
208 1 17.2966 1.57241 14.1518 -8.94965
209 1 18.8691 2.41372e-16 12.5794 -8.94963
210 1 20.4415 1.57242 14.1518 -8.94963
211 1 -1.43993e-05 3.14483 12.5794 -8.94962
212 1 1.5722 4.71714 14.1519 -8.94961
213 1 3.14472 3.14472 12.5794 -8.94968
214 1 4.71601 4.71609 14.153 -8.94646
215 1 6.28913 3.1436 12.5799 -8.95037
216 1 7.86147 4.71549 14.1529 -8.94922
217 1 9.43474 3.14287 12.5797 -8.95197
218 1 11.0075 4.71555 14.153 -8.94701
219 1 12.5796 3.14378 12.5796 -8.9511
220 1 14.1527 4.71553 14.1526 -8.95008
221 1 15.7243 3.14469 12.5793 -8.94962
222 1 17.2968 4.71714 14.1518 -8.94992
223 1 18.8691 3.14482 12.5794 -8.94962
224 1 20.4415 4.71724 14.1518 -8.94965
225 1 22.0138 6.28962 12.5794 -8.94983
226 1 1.57226 7.8621 14.1519 -8.94967
227 1 3.14352 6.28907 12.58 -8.95014
228 1 4.71629 7.8623 14.1522 -8.95187
229 1 6.28258 6.28262 12.5865 -8.93205
230 1 7.85556 7.85603 14.1618 -8.9896
231 1 9.43496 6.27742 12.5814 -8.96327
232 1 11.0083 7.85923 14.1573 -9.00198
233 1 12.5825 6.2826 12.5823 -8.95425
234 1 14.1605 7.85364 14.1593 -8.93046
235 1 15.7251 6.28899 12.5792 -8.95009
236 1 17.2982 7.86141 14.1524 -8.95057
237 1 18.8692 6.28958 12.5794 -8.94957
238 1 20.4417 7.86205 14.1519 -8.9499
239 1 -5.60047e-05 9.43451 12.5794 -8.9498
240 1 3.14397 9.43471 12.5797 -8.94903
241 1 6.28735 9.43746 12.5803 -9.00216
242 1 9.40935 9.37515 12.5806 -9.19927
243 1 12.6167 9.40128 12.6115 -8.90143
244 1 15.7308 9.4331 12.5809 -8.95802
245 1 18.87 9.43446 12.5795 -8.95111
246 1 -1.40161e-06 -9.33006e-17 15.7242 -8.94965
247 1 1.5724 1.57241 17.2967 -8.94957
248 1 3.14481 1.22499e-15 15.7242 -8.94959
249 1 4.71724 1.57238 17.2967 -8.94966
250 1 6.28966 7.34812e-16 15.7243 -8.94966
251 1 7.86211 1.5724 17.2967 -8.94963
252 1 9.43453 7.89133e-16 15.7243 -8.94961
253 1 11.0069 1.57239 17.2967 -8.94964
254 1 12.5794 1.39268e-15 15.7243 -8.94964
255 1 14.1518 1.57238 17.2967 -8.94961
256 1 15.7242 1.36352e-15 15.7242 -8.94968
257 1 17.2967 1.57239 17.2967 -8.9496
258 1 18.8691 1.23183e-15 15.7242 -8.94964
259 1 20.4415 1.57242 17.2966 -8.94964
260 1 22.0139 3.14482 15.7242 -8.94961
261 1 1.5724 4.71726 17.2966 -8.94972
262 1 3.14468 3.14469 15.7244 -8.94915
263 1 4.71699 4.71698 17.297 -8.9492
264 1 6.28953 3.14454 15.7244 -8.94973
265 1 7.86212 4.71709 17.2968 -8.94975
266 1 9.43453 3.14459 15.7244 -8.94954
267 1 11.0069 4.71705 17.2969 -8.9495
268 1 12.5795 3.14448 15.7245 -8.94948
269 1 14.1519 4.71698 17.2968 -8.94988
270 1 15.7244 3.14456 15.7244 -8.94954
271 1 17.2968 4.71707 17.2968 -8.94903
272 1 18.8691 3.14483 15.7242 -8.9497
273 1 20.4415 4.71724 17.2967 -8.94961
274 1 1.27106e-05 6.28967 15.7242 -8.94968
275 1 1.57235 7.86208 17.2967 -8.94961
276 1 3.14466 6.28966 15.7243 -8.95011
277 1 4.71694 7.86197 17.2969 -8.94936
278 1 6.28812 6.28816 15.7265 -8.94819
279 1 7.86132 7.86135 17.2985 -8.95102
280 1 9.43462 6.28853 15.7251 -8.94939
281 1 11.0065 7.86169 17.2979 -8.95012
282 1 12.5797 6.28812 15.7253 -8.95095
283 1 14.1534 7.86048 17.2989 -8.9481
284 1 15.7257 6.28822 15.7256 -8.94583
285 1 17.2969 7.86206 17.2968 -8.94995
286 1 18.8693 6.28953 15.7244 -8.94961
287 1 20.4415 7.8621 17.2967 -8.94965
288 1 22.0139 9.43452 15.7243 -8.94968
289 1 3.14442 9.43445 15.7245 -8.94963
290 1 6.288 9.43454 15.7257 -8.94891
291 1 9.43094 9.43165 15.7278 -8.99902
292 1 12.5858 9.42763 15.7345 -8.9842
293 1 15.7255 9.43436 15.725 -8.95064
294 1 18.8693 9.43452 15.7243 -8.9496
295 1 22.0139 1.51971e-15 18.8691 -8.94962
296 1 1.57242 1.57242 20.4415 -8.94961
297 1 3.14484 -1.27833e-16 18.8691 -8.94964
298 1 4.71727 1.57242 20.4415 -8.94965
299 1 6.28969 -1.41181e-15 18.8691 -8.94964
300 1 7.86211 1.57242 20.4415 -8.94964
301 1 9.43453 -3.73215e-16 18.8691 -8.94964
302 1 11.007 1.57242 20.4415 -8.94964
303 1 12.5794 1.13941e-15 18.8691 -8.94965
304 1 14.1518 1.57242 20.4415 -8.94964
305 1 15.7242 1.13181e-15 18.8691 -8.94963
306 1 17.2966 1.57242 20.4415 -8.94965
307 1 18.8691 -3.4341e-16 18.8691 -8.94962
308 1 20.4415 1.57242 20.4415 -8.94962
309 1 1.95983e-06 3.14484 18.8691 -8.94964
310 1 1.57242 4.71726 20.4415 -8.94964
311 1 3.14481 3.1448 18.8691 -8.94954
312 1 4.71722 4.71722 20.4415 -8.94964
313 1 6.28969 3.14482 18.8691 -8.94968
314 1 7.8621 4.71722 20.4415 -8.94963
315 1 9.43453 3.1448 18.8691 -8.94963
316 1 11.007 4.71722 20.4415 -8.94963
317 1 12.5794 3.14481 18.8691 -8.94964
318 1 14.1518 4.71724 20.4415 -8.9497
319 1 15.7242 3.14481 18.8691 -8.94968
320 1 17.2967 4.71721 20.4415 -8.94952
321 1 18.8691 3.14482 18.8691 -8.94955
322 1 20.4415 4.71726 20.4415 -8.94965
323 1 22.0139 6.28968 18.8691 -8.94963
324 1 1.57241 7.8621 20.4415 -8.94964
325 1 3.1448 6.28966 18.8691 -8.9496
326 1 4.71721 7.86209 20.4415 -8.94965
327 1 6.28949 6.28949 18.8694 -8.94978
328 1 7.86192 7.86191 20.4417 -8.94984
329 1 9.43451 6.28944 18.8693 -8.94956
330 1 11.0069 7.86197 20.4416 -8.94965
331 1 12.5793 6.28953 18.8692 -8.94987
332 1 14.1521 7.86185 20.4417 -8.94992
333 1 15.7245 6.2894 18.8694 -8.94921
334 1 17.2967 7.86212 20.4415 -8.94966
335 1 18.8691 6.28968 18.8691 -8.94971
49 1 18.8691 9.43453 22.0139 -8.94965
5 1 6.28968 -1.52298e-16 22.0139 -8.94963
9 1 12.5794 -9.45368e-16 22.0139 -8.94964
15 1 22.0139 3.14484 22.0139 -8.94964
17 1 3.14482 3.14482 22.0139 -8.9496
21 1 9.43453 3.14482 22.0139 -8.94964
23 1 12.5794 3.14482 22.0139 -8.94963
27 1 18.8691 3.14482 22.0139 -8.94955
29 1 -1.05155e-06 6.28969 22.0139 -8.94963
33 1 6.28959 6.28959 22.0138 -8.94984
39 1 15.7244 6.28953 22.0138 -8.94964
46 1 9.43435 9.43438 22.0138 -8.94974
47 1 12.5795 9.43437 22.0135 -8.95099
1 1 -2.52821e-06 1.96627e-16 22.0139 -8.94962
13 1 18.8691 7.40647e-16 22.0139 -8.94962
44 1 3.14482 9.43452 22.0139 -8.94961
181 1 17.2967 1.57239 11.007 -8.94962
344 1 1.5724 11.007 1.5724 -8.94966
345 1 4.71713 11.007 1.57223 -8.94962
346 1 7.86193 11.007 1.5722 -8.94894
347 1 11.0067 11.007 1.57117 -8.94938
348 1 14.1524 11.007 1.57126 -8.94922
349 1 17.2968 11.007 1.5723 -8.94968
350 1 20.4415 11.007 1.57241 -8.94963
351 1 22.0139 12.5794 -2.1038e-06 -8.94964
352 1 1.57241 14.1518 1.5724 -8.94961
537 1 14.1519 20.4416 11.0069 -8.94964
354 1 4.7172 14.1518 1.57234 -8.94967
355 1 6.28961 12.5794 -4.68174e-05 -8.94965
356 1 7.86188 14.152 1.57159 -8.95104
688 3 10.1885 11.007 9.40713 2.39073
358 1 11.0067 14.1522 1.57157 -8.94972
511 1 18.8691 18.8691 9.43453 -8.94966
360 1 14.1523 14.1523 1.57124 -8.95065
361 1 15.7243 12.5794 -0.000157211 -8.94948
362 1 17.2967 14.1518 1.57231 -8.94968
510 1 15.7244 18.8693 9.43451 -8.94963
364 1 20.4415 14.1518 1.57241 -8.94962
509 1 12.5797 18.8696 9.43439 -8.94898
366 1 1.57241 17.2966 1.57241 -8.94969
367 1 3.14483 15.7242 -1.76617e-06 -8.94965
368 1 4.71712 17.2968 1.57219 -8.94954
508 1 9.43473 18.8705 9.43448 -8.94882
370 1 7.8621 17.2968 1.57228 -8.94947
371 1 9.4345 15.7243 -0.000140427 -8.94958
372 1 11.007 17.2968 1.57227 -8.94961
373 1 12.5794 15.7243 -0.000111309 -8.94957
374 1 14.1518 17.2967 1.57233 -8.94983
507 1 6.28897 18.8704 9.4344 -8.94917
376 1 17.2968 17.2968 1.57227 -8.94908
377 1 18.8691 15.7242 -1.12221e-05 -8.94969
378 1 20.4415 17.2967 1.5724 -8.94962
506 1 3.14472 18.8692 9.43454 -8.94972
380 1 1.5724 20.4415 1.5724 -8.94956
505 1 22.0139 18.8691 9.43453 -8.94963
382 1 4.71726 20.4415 1.57241 -8.94969
383 1 6.28969 18.8691 -1.06383e-05 -8.94963
384 1 7.8621 20.4415 1.5724 -8.94963
504 1 18.8693 15.7244 9.4345 -8.94954
386 1 11.007 20.4415 1.5724 -8.94964
503 1 15.7252 15.7253 9.43434 -8.94727
388 1 14.1518 20.4415 1.57241 -8.94962
389 1 15.7242 18.8691 -8.21938e-06 -8.9497
390 1 17.2967 20.4415 1.5724 -8.9496
502 1 12.5791 15.7252 9.43387 -8.94889
392 1 20.4415 20.4415 1.57242 -8.94964
393 1 1.57225 11.007 4.71712 -8.94957
394 1 4.71651 11.007 4.71635 -8.94759
395 1 7.86304 11.007 4.71773 -8.94814
396 1 11.0098 11.007 4.71487 -8.99895
397 1 14.1568 11.007 4.71226 -8.94421
398 1 17.2978 11.007 4.71669 -8.94918
399 1 20.4416 11.007 4.71719 -8.94972
400 1 -1.91105e-06 12.5794 3.14482 -8.94962
401 1 1.57231 14.1518 4.71718 -8.94961
402 1 3.14471 12.5794 3.1447 -8.94944
403 1 4.71669 14.1517 4.7168 -8.95065
404 1 6.28941 12.579 3.14441 -8.94957
405 1 7.85934 14.1544 4.71119 -8.95426
406 1 9.43417 12.5796 3.14325 -8.94994
407 1 11.0062 14.1539 4.71301 -8.95096
408 1 12.5806 12.5804 3.13966 -8.95712
409 1 14.159 14.159 4.71004 -8.93237
410 1 15.725 12.5796 3.14401 -8.94881
411 1 17.2979 14.1524 4.71671 -8.95037
412 1 18.8692 12.5794 3.14474 -8.94951
413 1 20.4416 14.1518 4.71721 -8.94983
414 1 22.0139 15.7242 3.14482 -8.94966
415 1 1.5722 17.2968 4.71714 -8.94961
416 1 3.14475 15.7242 3.14476 -8.94991
417 1 4.71604 17.2978 4.71601 -8.94632
418 1 6.28894 15.7249 3.14341 -8.94994
419 1 7.8621 17.2973 4.71671 -8.9497
420 1 9.43442 15.7249 3.14394 -8.94851
421 1 11.0071 17.2975 4.71656 -8.94857
422 1 12.5794 15.7248 3.14413 -8.94974
423 1 14.1525 17.2981 4.71655 -8.94995
424 1 15.7255 15.7255 3.14361 -8.9463
425 1 17.2967 17.2967 4.71724 -8.94984
426 1 18.8693 15.7243 3.14472 -8.94963
427 1 20.4415 17.2967 4.71725 -8.94966
428 1 22.0139 18.8691 3.14483 -8.94961
429 1 1.57241 20.4415 4.71726 -8.94967
430 1 3.14468 18.8692 3.14468 -8.94909
431 1 4.71714 20.4417 4.71714 -8.94969
432 1 6.28968 18.8692 3.14476 -8.94982
433 1 7.86212 20.4416 4.71718 -8.94957
434 1 9.43452 18.8692 3.14472 -8.94961
435 1 11.007 20.4416 4.71715 -8.94958
436 1 12.5794 18.8692 3.14473 -8.94948
437 1 14.1519 20.4417 4.71719 -8.94988
438 1 15.7244 18.8693 3.1447 -8.94956
439 1 17.2966 20.4415 4.71727 -8.94965
440 1 18.8691 18.8691 3.14484 -8.94968
441 1 20.4415 20.4415 4.71726 -8.94963
442 1 1.57198 11.007 7.86187 -8.94892
443 1 4.71668 11.007 7.86126 -8.94245
444 1 7.87376 11.007 7.86712 -8.88661
445 1 11.0964 11.007 7.64275 -8.11158
446 1 14.1623 11.007 7.85811 -8.97205
447 1 17.2987 11.007 7.86236 -8.9516
448 1 20.4417 11.007 7.86212 -8.94997
449 1 22.0139 12.5794 6.28962 -8.94978
450 1 1.57159 14.1519 7.86198 -8.95085
451 1 3.14411 12.5792 6.2893 -8.94945
452 1 4.71121 14.1536 7.86044 -8.956
453 1 6.2872 12.5773 6.28846 -8.95099
454 1 7.8281 14.1825 7.83175 -8.85475
455 1 9.42404 12.5943 6.28479 -8.91375
456 1 11.0176 14.1578 7.84602 -8.91007
457 1 12.6133 12.6094 6.25816 -8.85798
458 1 14.1554 14.154 7.86293 -8.94833
459 1 15.73 12.5808 6.28813 -8.95638
460 1 17.2974 14.1521 7.86231 -8.94985
461 1 18.8698 12.5795 6.28958 -8.95082
462 1 20.4415 14.1519 7.8621 -8.94982
463 1 22.0138 15.7243 6.28963 -8.94983
464 1 1.57224 17.2967 7.86208 -8.94954
465 1 3.14353 15.7248 6.28907 -8.95024
466 1 4.71635 17.2976 7.86174 -8.94856
467 1 6.28254 15.7313 6.28242 -8.93233
468 1 7.86094 17.3017 7.86107 -8.95707
469 1 9.43513 15.7284 6.28752 -8.95051
470 1 11.0072 17.2984 7.86177 -8.95028
471 1 12.5822 15.7303 6.28691 -8.95399
472 1 14.1522 17.2973 7.86232 -8.94945
473 1 15.7249 15.7248 6.28964 -8.95012
474 1 17.2968 17.2968 7.86206 -8.94939
475 1 18.8692 15.7243 6.28969 -8.94965
476 1 20.4415 17.2967 7.8621 -8.94962
477 1 -1.40764e-05 18.8691 6.28968 -8.94962
478 1 1.57241 20.4415 7.86211 -8.94966
479 1 3.14472 18.8692 6.28964 -8.94963
480 1 4.71712 20.4417 7.86205 -8.94947
481 1 6.28919 18.8703 6.28915 -8.95064
482 1 7.86204 20.4421 7.86201 -8.9508
483 1 9.43474 18.8699 6.28932 -8.9497
484 1 11.0071 20.4418 7.86202 -8.94973
485 1 12.5796 18.8699 6.28949 -8.95104
486 1 14.1519 20.4416 7.8621 -8.94958
487 1 15.7243 18.8692 6.28971 -8.94963
488 1 17.2967 20.4415 7.8621 -8.94962
489 1 18.8691 18.8691 6.28968 -8.9496
490 1 20.4415 20.4415 7.86211 -8.94964
491 1 22.0136 12.5794 9.43452 -8.95001
492 1 3.14257 12.5791 9.43441 -8.95183
493 1 6.27817 12.5843 9.43346 -8.97067
494 1 9.34899 12.8072 9.43464 -8.13208
495 1 12.5725 12.5816 9.42633 -8.93024
496 1 15.7249 12.5798 9.43483 -8.9452
497 1 18.8695 12.5796 9.43453 -8.94906
498 1 -0.000139474 15.7243 9.43453 -8.94974
499 1 3.1436 15.7248 9.43453 -8.94931
500 1 6.2841 15.7299 9.43379 -8.9434
501 1 9.43168 15.7266 9.43456 -9.00081
526 1 1.57225 17.2967 11.007 -8.94951
527 1 4.7164 17.2975 11.0072 -8.949
530 1 14.1522 17.2973 11.0066 -8.94974
531 1 17.2968 17.2968 11.007 -8.94944
532 1 20.4415 17.2967 11.007 -8.94962
534 1 4.71714 20.4416 11.007 -8.9495
517 1 17.2983 11.007 11.0066 -8.9497
518 1 20.4417 11.007 11.0069 -8.94984
512 1 1.57188 11.007 11.0072 -8.94917
513 1 4.71593 11.007 11.0074 -8.94424
514 1 7.86841 11.007 10.9955 -8.91106
515 1 11.1557 11.007 11.1408 -8.46095
516 1 14.1564 11.007 11.0125 -9.02536
391 1 18.8691 18.8691 22.0139 -8.94955
387 1 12.5794 18.8691 22.0139 -8.94963
519 1 1.57159 14.1519 11.0071 -8.95092
520 1 4.71102 14.1534 11.0085 -8.9573
521 1 7.82522 14.1847 11.0335 -8.88598
522 1 11.0214 14.1606 11.02 -8.96203
523 1 14.1557 14.154 11.0045 -8.95161
524 1 17.2977 14.1523 11.0067 -8.9496
525 1 20.4416 14.1519 11.0069 -8.94985
687 2 10.1856 11.007 12.6153 0.900681
686 1 20.4415 20.4415 20.4415 -8.94962
528 1 7.86031 17.3027 11.0073 -8.95605
529 1 11.0078 17.2994 11.0066 -8.94939
685 1 18.8691 18.8691 18.8691 -8.94955
684 1 17.2966 20.4415 20.4415 -8.94965
683 1 15.7242 18.8691 18.8691 -8.94968
533 1 1.57241 20.4415 11.007 -8.94965
682 1 14.1518 20.4415 20.4415 -8.94964
535 1 7.86196 20.4423 11.007 -8.95092
536 1 11.0071 20.442 11.0069 -8.94983
681 1 12.5794 18.8691 18.8691 -8.94964
680 1 11.007 20.4415 20.4415 -8.94964
539 1 20.4415 20.4415 11.007 -8.94964
540 1 1.57212 11.007 14.1519 -8.94975
541 1 4.71564 11.007 14.1528 -8.94839
542 1 7.85937 11.007 14.1544 -8.97843
543 1 11.0323 11.007 14.2221 -9.25582
544 1 14.1557 11.007 14.1559 -8.99467
545 1 17.2979 11.007 14.1524 -8.94834
546 1 20.4416 11.007 14.1519 -8.9497
547 1 -5.60047e-05 12.5794 12.5794 -8.9498
548 1 1.57226 14.1518 14.1519 -8.94967
549 1 3.14397 12.5792 12.5797 -8.94903
550 1 4.71629 14.1516 14.1522 -8.95187
551 1 6.28735 12.5764 12.5803 -9.00216
552 1 7.85556 14.1579 14.1618 -8.9896
553 1 9.40935 12.6388 12.5806 -9.19927
554 1 11.0083 14.1547 14.1573 -9.00198
555 1 12.6167 12.6126 12.6115 -8.90143
556 1 14.1605 14.1603 14.1593 -8.93046
557 1 15.7308 12.5808 12.5809 -8.95802
558 1 17.2982 14.1525 14.1524 -8.95057
559 1 18.87 12.5794 12.5795 -8.95111
560 1 20.4417 14.1518 14.1519 -8.9499
561 1 22.0138 15.7243 12.5794 -8.94983
562 1 1.5722 17.2968 14.1519 -8.94961
563 1 3.14352 15.7248 12.58 -8.95014
564 1 4.71601 17.2978 14.153 -8.94646
565 1 6.28258 15.7313 12.5865 -8.93205
566 1 7.86147 17.2984 14.1529 -8.94922
567 1 9.43496 15.7365 12.5814 -8.96327
568 1 11.0075 17.2983 14.153 -8.94701
569 1 12.5825 15.7313 12.5823 -8.95425
570 1 14.1527 17.2984 14.1526 -8.95008
571 1 15.7251 15.7249 12.5792 -8.95009
572 1 17.2968 17.2968 14.1518 -8.94992
573 1 18.8692 15.7243 12.5794 -8.94957
574 1 20.4415 17.2967 14.1518 -8.94965
575 1 -1.43993e-05 18.8691 12.5794 -8.94962
576 1 1.57241 20.4415 14.1518 -8.94967
577 1 3.14472 18.8692 12.5794 -8.94968
578 1 4.71713 20.4417 14.1519 -8.94966
579 1 6.28913 18.8703 12.5799 -8.95037
580 1 7.86204 20.4418 14.1519 -8.94971
581 1 9.43474 18.871 12.5797 -8.95197
582 1 11.007 20.4418 14.152 -8.9496
583 1 12.5796 18.8701 12.5796 -8.9511
584 1 14.1519 20.4417 14.1519 -8.94992
585 1 15.7243 18.8692 12.5793 -8.94962
586 1 17.2966 20.4415 14.1518 -8.94965
587 1 18.8691 18.8691 12.5794 -8.94962
588 1 20.4415 20.4415 14.1518 -8.94963
589 1 1.57235 11.007 17.2967 -8.94963
590 1 4.71687 11.007 17.2971 -8.94912
591 1 7.86178 11.007 17.2977 -8.94987
592 1 11.0069 11.007 17.3088 -8.96744
593 1 14.1524 11.007 17.2979 -8.94913
594 1 17.2968 11.007 17.2968 -8.94947
595 1 20.4415 11.007 17.2967 -8.94963
596 1 22.0139 12.5794 15.7243 -8.94968
597 1 1.57235 14.1518 17.2967 -8.94961
598 1 3.14442 12.5794 15.7245 -8.94963
599 1 4.71694 14.1519 17.2969 -8.94936
600 1 6.288 12.5794 15.7257 -8.94891
601 1 7.86132 14.1525 17.2985 -8.95102
602 1 9.43094 12.5823 15.7278 -8.99902
603 1 11.0065 14.1522 17.2979 -8.95012
604 1 12.5858 12.5863 15.7345 -8.9842
605 1 14.1534 14.1534 17.2989 -8.9481
606 1 15.7255 12.5795 15.725 -8.95064
607 1 17.2969 14.1518 17.2968 -8.94995
608 1 18.8693 12.5794 15.7243 -8.9496
609 1 20.4415 14.1518 17.2967 -8.94965
610 1 1.27106e-05 15.7242 15.7242 -8.94968
611 1 1.5724 17.2966 17.2966 -8.94972
612 1 3.14466 15.7242 15.7243 -8.95011
613 1 4.71699 17.2969 17.297 -8.9492
614 1 6.28812 15.7257 15.7265 -8.94819
615 1 7.86212 17.2968 17.2968 -8.94975
616 1 9.43462 15.7254 15.7251 -8.94939
617 1 11.0069 17.2969 17.2969 -8.9495
618 1 12.5797 15.7258 15.7253 -8.95095
619 1 14.1519 17.2969 17.2968 -8.94988
620 1 15.7257 15.7257 15.7256 -8.94583
621 1 17.2968 17.2968 17.2968 -8.94903
622 1 18.8693 15.7244 15.7244 -8.94961
623 1 20.4415 17.2967 17.2967 -8.94961
624 1 22.0139 18.8691 15.7242 -8.94961
625 1 1.5724 20.4415 17.2967 -8.94957
626 1 3.14468 18.8692 15.7244 -8.94915
627 1 4.71724 20.4415 17.2967 -8.94966
628 1 6.28953 18.8694 15.7244 -8.94973
629 1 7.86211 20.4415 17.2967 -8.94963
630 1 9.43453 18.8693 15.7244 -8.94954
631 1 11.0069 20.4415 17.2967 -8.94964
632 1 12.5795 18.8694 15.7245 -8.94948
633 1 14.1518 20.4415 17.2967 -8.94961
634 1 15.7244 18.8693 15.7244 -8.94954
635 1 17.2967 20.4415 17.2967 -8.9496
636 1 18.8691 18.8691 15.7242 -8.9497
637 1 20.4415 20.4415 17.2966 -8.94964
638 1 1.57242 11.007 20.4415 -8.94964
639 1 4.7172 11.007 20.4415 -8.94963
640 1 7.86202 11.007 20.4417 -8.94958
641 1 11.0069 11.007 20.4429 -8.95284
642 1 14.152 11.007 20.4416 -8.94956
643 1 17.2967 11.007 20.4415 -8.94963
644 1 20.4415 11.007 20.4415 -8.94964
645 1 -5.50229e-06 12.5794 18.8691 -8.94964
646 1 1.57241 14.1518 20.4415 -8.94964
647 1 3.14478 12.5794 18.8691 -8.94962
648 1 4.71721 14.1518 20.4415 -8.94965
649 1 6.28944 12.5794 18.8694 -8.94988
650 1 7.86192 14.152 20.4417 -8.94984
651 1 9.43376 12.5801 18.8705 -8.94812
652 1 11.0069 14.1519 20.4416 -8.94965
653 1 12.5802 12.5802 18.8711 -8.95033
654 1 14.1521 14.1521 20.4417 -8.94992
655 1 15.7244 12.5794 18.8692 -8.94966
656 1 17.2967 14.1518 20.4415 -8.94966
657 1 18.8691 12.5794 18.8691 -8.94963
658 1 20.4415 14.1518 20.4415 -8.94964
659 1 22.0139 15.7242 18.8691 -8.94963
660 1 1.57242 17.2966 20.4415 -8.94964
661 1 3.1448 15.7242 18.8691 -8.9496
662 1 4.71722 17.2967 20.4415 -8.94964
663 1 6.28949 15.7244 18.8694 -8.94978
664 1 7.8621 17.2967 20.4415 -8.94963
665 1 9.43451 15.7245 18.8693 -8.94956
666 1 11.007 17.2967 20.4415 -8.94963
667 1 12.5793 15.7244 18.8692 -8.94987
668 1 14.1518 17.2967 20.4415 -8.9497
669 1 15.7245 15.7245 18.8694 -8.94921
670 1 17.2967 17.2967 20.4415 -8.94952
671 1 18.8691 15.7242 18.8691 -8.94971
672 1 20.4415 17.2966 20.4415 -8.94965
673 1 1.95983e-06 18.8691 18.8691 -8.94964
674 1 1.57242 20.4415 20.4415 -8.94961
675 1 3.14481 18.8691 18.8691 -8.94954
676 1 4.71727 20.4415 20.4415 -8.94965
677 1 6.28969 18.8691 18.8691 -8.94968
678 1 7.86211 20.4415 20.4415 -8.94964
679 1 9.43453 18.8691 18.8691 -8.94963
357 1 9.43435 12.5795 22.0138 -8.94974
359 1 12.5795 12.5795 22.0135 -8.95099
363 1 18.8691 12.5794 22.0139 -8.94965
365 1 -1.05155e-06 15.7242 22.0139 -8.94963
369 1 6.28959 15.7243 22.0138 -8.94984
375 1 15.7244 15.7244 22.0138 -8.94964
379 1 22.0139 18.8691 22.0139 -8.94964
381 1 3.14482 18.8691 22.0139 -8.9496
385 1 9.43453 18.8691 22.0139 -8.94964
353 1 3.14482 12.5794 22.0139 -8.94961
538 1 17.2967 20.4415 11.007 -8.94962
