ITEM: TIMESTEP
74
ITEM: NUMBER OF ATOMS
688
ITEM: BOX BOUNDS pp pp pp
0.0000000000000000e+00 2.2013900999999997e+01
0.0000000000000000e+00 2.2013900999999997e+01
0.0000000000000000e+00 2.2013900999999997e+01
ITEM: ATOMS id type x y z c_pot
189 1 20.4415 4.71665 11.007 -8.94955
2 1 1.57195 1.57213 1.57199 -8.94916
175 1 18.8695 9.43439 9.43472 -8.94798
4 1 4.71691 1.57204 1.57191 -8.94964
174 1 15.7222 9.43541 9.43511 -8.94428
6 1 7.86199 1.57202 1.57191 -8.94949
7 1 9.4345 -5.54887e-16 -0.000174038 -8.94957
8 1 11.007 1.57199 1.57192 -8.94952
173 1 12.5647 9.43184 9.42068 -8.93428
10 1 14.152 1.57198 1.57201 -8.9495
11 1 15.7244 -5.15854e-16 -0.000128301 -8.94959
12 1 17.2971 1.57193 1.57201 -8.94949
188 1 17.2977 4.71618 11.0069 -8.94896
14 1 20.4415 1.57221 1.57225 -8.94954
172 1 9.35582 9.18202 9.43164 -8.13484
16 1 1.57205 4.71701 1.57195 -8.94984
171 1 6.2809 9.42575 9.43338 -8.97109
18 1 4.71605 4.71616 1.57083 -8.9495
19 1 6.2894 3.14433 -0.000315534 -8.9495
20 1 7.86164 4.71617 1.57112 -8.94911
170 1 3.14194 9.43488 9.43438 -8.95112
22 1 11.007 4.71603 1.57118 -8.94934
169 1 22.0132 9.43463 9.43453 -8.9495
24 1 14.1525 4.71587 1.57113 -8.94968
25 1 15.7246 3.1442 -0.000285903 -8.94968
26 1 17.2981 4.71578 1.57126 -8.94815
168 1 18.87 6.28879 9.43451 -8.94957
28 1 20.4419 4.71686 1.57205 -8.94957
167 1 15.7266 6.28742 9.43427 -8.9462
30 1 1.57217 7.86205 1.57202 -8.94942
31 1 3.14449 6.28963 -0.00020122 -8.94973
32 1 4.71674 7.86231 1.57176 -8.94966
166 1 12.5797 6.28744 9.43219 -8.94583
34 1 7.86156 7.86173 1.57052 -8.95255
35 1 9.4341 6.28874 -0.000663787 -8.94959
36 1 11.0066 7.86089 1.56989 -8.95067
37 1 12.5795 6.28869 -0.000743809 -8.94967
38 1 14.1538 7.86025 1.56889 -8.95173
165 1 9.42915 6.29069 9.4339 -9.00737
40 1 17.2982 7.86129 1.57115 -8.94914
41 1 18.8697 6.28927 -0.000290578 -8.94952
42 1 20.442 7.86187 1.57198 -8.94946
43 1 22.0139 9.43447 -0.000165533 -8.94957
187 1 14.153 4.71554 11.0062 -8.94899
45 1 6.28915 9.43462 -8.76617e-05 -8.94938
164 1 6.27778 6.27826 9.43353 -8.94083
163 1 3.14004 6.28721 9.43444 -8.94924
48 1 15.7256 9.43406 -0.000931103 -8.94927
162 1 -0.00108438 6.28903 9.43451 -8.95003
50 1 -0.000237426 2.61972e-16 3.14465 -8.94955
51 1 1.57181 1.57204 4.71685 -8.94947
52 1 3.1442 7.46831e-16 3.14419 -8.94954
53 1 4.71626 1.57128 4.7162 -8.95003
54 1 6.28945 4.93853e-16 3.14421 -8.94956
55 1 7.86195 1.57136 4.71637 -8.94961
56 1 9.43457 7.88594e-16 3.1442 -8.94954
57 1 11.0073 1.57142 4.71643 -8.94958
58 1 12.5796 1.6665e-16 3.14429 -8.9495
59 1 14.1523 1.57138 4.71677 -8.95065
60 1 15.7247 6.96282e-16 3.14444 -8.95002
61 1 17.297 1.57204 4.71714 -8.94966
62 1 18.8692 7.34639e-16 3.14473 -8.94967
63 1 20.4414 1.57222 4.71714 -8.94953
64 1 22.0135 3.14443 3.14443 -8.94955
65 1 1.57083 4.7163 4.71622 -8.94968
66 1 3.14342 3.1436 3.14344 -8.94813
67 1 4.71278 4.71302 4.71284 -8.94418
68 1 6.289 3.14351 3.14353 -8.94959
69 1 7.86075 4.71361 4.71434 -8.94882
70 1 9.43445 3.1435 3.14366 -8.94937
71 1 11.0075 4.71383 4.71455 -8.94768
72 1 12.5798 3.14343 3.14378 -8.94913
73 1 14.1549 4.71231 4.71418 -8.94974
74 1 15.7254 3.14306 3.14369 -8.94942
75 1 17.2981 4.71592 4.71667 -8.94999
76 1 18.8695 3.14427 3.14455 -8.94972
77 1 20.4415 4.71679 4.71699 -8.94988
78 1 22.0139 6.28945 3.1444 -8.94982
79 1 1.57165 7.86214 4.71666 -8.94979
80 1 3.14372 6.28936 3.14375 -8.95035
81 1 4.71485 7.86206 4.71541 -8.9514
82 1 6.2868 6.28706 3.14026 -8.9503
83 1 7.85624 7.85593 4.70678 -8.95499
84 1 9.43385 6.28711 3.14148 -8.94772
85 1 11.0076 7.85686 4.70785 -8.95171
86 1 12.5806 6.28687 3.14109 -8.94931
87 1 14.1653 7.84962 4.70381 -8.93021
88 1 15.7287 6.28531 3.14061 -8.94454
89 1 17.3011 7.86001 4.71513 -8.95078
90 1 18.8706 6.28869 3.14391 -8.94968
91 1 20.4424 7.86174 4.71677 -8.95016
92 1 0.000108118 9.43443 3.14428 -8.94954
93 1 3.14405 9.43456 3.14394 -8.94895
94 1 6.28926 9.43535 3.14406 -8.94915
95 1 9.43512 9.43454 3.14373 -8.95113
96 1 12.5826 9.4331 3.1364 -8.9598
97 1 15.7283 9.43308 3.14101 -8.94742
98 1 18.8708 9.43415 3.14379 -8.94928
99 1 22.0136 1.65052e-15 6.28954 -8.94956
100 1 1.57173 1.572 7.86193 -8.94952
101 1 3.14402 1.31792e-15 6.28921 -8.94935
102 1 4.71594 1.57111 7.86152 -8.9493
103 1 6.28917 1.41583e-15 6.28904 -8.95067
104 1 7.86182 1.57061 7.86177 -8.95143
105 1 9.43474 7.4476e-16 6.28912 -8.95021
106 1 11.0071 1.57156 7.86197 -8.94956
107 1 12.5796 6.73458e-16 6.28948 -8.95039
108 1 14.1524 1.57171 7.86197 -8.94946
109 1 15.7247 5.3741e-16 6.28957 -8.94954
110 1 17.2971 1.57204 7.86204 -8.94955
111 1 18.8693 1.06362e-15 6.2896 -8.94955
112 1 20.4415 1.57218 7.86204 -8.94957
113 1 -0.000498824 3.14435 6.28942 -8.94947
114 1 1.57068 4.71617 7.86166 -8.94934
115 1 3.14324 3.14343 6.28878 -8.94912
116 1 4.71297 4.71316 7.86035 -8.94721
117 1 6.28776 3.14096 6.2878 -8.95169
118 1 7.85871 4.70838 7.86019 -8.95962
119 1 9.43464 3.1418 6.28831 -8.95039
120 1 11.0064 4.71433 7.86126 -8.95236
121 1 12.5799 3.14223 6.28906 -8.95251
122 1 14.1532 4.71503 7.86194 -8.94868
123 1 15.725 3.14369 6.28957 -8.94951
124 1 17.2977 4.71619 7.86201 -8.94897
125 1 18.8694 3.14435 6.28958 -8.94944
126 1 20.4414 4.71667 7.86197 -8.94957
127 1 22.013 6.28921 6.28927 -8.95028
128 1 1.56976 7.86174 7.86173 -8.9519
129 1 3.14029 6.28753 6.28742 -8.95093
130 1 4.70619 7.85802 7.85915 -8.95846
131 1 6.27579 6.27632 6.27663 -8.92852
132 1 7.81851 7.82267 7.82535 -8.84609
133 1 9.43334 6.28029 6.28369 -8.94934
134 1 11.023 7.85005 7.83443 -8.89764
135 1 12.5864 6.27812 6.28175 -8.9524
136 1 14.1586 7.85806 7.86105 -8.94945
137 1 15.7277 6.28702 6.28859 -8.95041
138 1 17.2987 7.86148 7.86278 -8.95087
139 1 18.87 6.28907 6.28964 -8.95006
140 1 20.4416 7.86183 7.86216 -8.95009
141 1 22.0138 9.43456 6.28931 -8.9499
142 1 3.14316 9.43524 6.2889 -8.94969
143 1 6.28609 9.43696 6.28834 -8.95149
144 1 9.42179 9.41223 6.28392 -8.90984
145 1 12.6211 9.40058 6.25025 -8.85929
146 1 15.735 9.4319 6.28554 -8.95745
147 1 18.8717 9.43422 6.28927 -8.95166
148 1 -0.000290755 1.63289e-15 9.43451 -8.94957
149 1 3.14396 1.36993e-15 9.43448 -8.94947
150 1 6.28872 8.09765e-16 9.43432 -8.95036
151 1 9.43473 1.03592e-15 9.43433 -8.94856
152 1 12.5799 5.28645e-16 9.43431 -8.94948
153 1 15.7248 -2.9753e-16 9.43447 -8.94965
154 1 18.8693 7.30362e-16 9.43451 -8.94958
155 1 22.0134 3.14431 9.43451 -8.94953
156 1 3.14314 3.1434 9.43446 -8.94948
157 1 6.28685 3.14041 9.43411 -8.94936
158 1 9.43431 3.1431 9.43423 -8.94638
159 1 12.5801 3.14336 9.43402 -8.94876
160 1 15.7251 3.14375 9.43444 -8.9496
161 1 18.8694 3.14428 9.4345 -8.94956
177 1 4.71594 1.57114 11.0073 -8.94933
180 1 14.1524 1.57179 11.0068 -8.94937
184 1 4.71302 4.71328 11.0083 -8.94766
183 1 1.57068 4.71617 11.0073 -8.94929
3 1 3.14462 3.14272e-16 -0.000164906 -8.94963
176 1 1.57172 1.572 11.0071 -8.94951
343 1 18.8699 9.43437 18.8695 -8.94949
178 1 7.86165 1.57028 11.0069 -8.95161
179 1 11.0073 1.57119 11.0066 -8.94981
342 1 15.7259 9.43398 18.8707 -8.94937
341 1 12.581 9.43297 18.8743 -8.95129
182 1 20.4415 1.57218 11.007 -8.94957
340 1 9.43308 9.43339 18.8722 -8.9475
339 1 6.28888 9.43461 18.8699 -8.94967
185 1 7.85801 4.70698 11.0076 -8.95824
186 1 11.0075 4.71268 11.0061 -8.95156
338 1 3.14427 9.43448 18.8695 -8.94952
337 1 2.25513e-05 9.43447 18.8693 -8.94958
336 1 20.4418 7.86197 20.4415 -8.94956
190 1 1.5698 7.86177 11.0072 -8.95195
191 1 4.70631 7.85823 11.0095 -8.95946
192 1 7.81728 7.82102 11.039 -8.87867
193 1 11.0294 7.84655 11.0258 -8.94848
194 1 14.157 7.85978 11.0043 -8.9547
195 1 17.2986 7.86136 11.0064 -8.95025
196 1 20.4416 7.8618 11.0069 -8.95004
197 1 22.0136 5.00338e-16 12.5795 -8.94956
198 1 1.57178 1.57204 14.1522 -8.94951
199 1 3.14401 8.6314e-16 12.5797 -8.94939
200 1 4.71613 1.57122 14.1528 -8.94993
201 1 6.28901 1.94007e-16 12.5799 -8.95059
202 1 7.86172 1.57093 14.1528 -8.94984
203 1 9.43473 7.75395e-16 12.5798 -8.95098
204 1 11.0075 1.57098 14.1527 -8.94968
205 1 12.5798 1.48154e-15 12.5794 -8.95038
206 1 14.1525 1.57124 14.1523 -8.95066
207 1 15.7247 5.95016e-16 12.5793 -8.94952
208 1 17.2971 1.57204 14.1518 -8.94967
209 1 18.8693 1.14194e-15 12.5794 -8.94954
210 1 20.4415 1.57221 14.1519 -8.94953
211 1 -0.000498479 3.14433 12.5796 -8.94946
212 1 1.57079 4.71628 14.1528 -8.94967
213 1 3.14323 3.14343 12.5801 -8.94919
214 1 4.71264 4.71297 14.1561 -8.9444
215 1 6.28757 3.14065 12.5811 -8.95131
216 1 7.85993 4.71181 14.1553 -8.94848
217 1 9.43468 3.13997 12.5805 -8.95305
218 1 11.0083 4.71215 14.1551 -8.94605
219 1 12.5801 3.1418 12.5798 -8.9524
220 1 14.1554 4.71186 14.1548 -8.94983
221 1 15.725 3.1438 12.5792 -8.94948
222 1 17.298 4.71602 14.1522 -8.95027
223 1 18.8694 3.14433 12.5794 -8.94942
224 1 20.4415 4.71677 14.152 -8.94982
225 1 22.013 6.28918 12.5797 -8.95024
226 1 1.57156 7.86217 14.1523 -8.9499
227 1 3.1403 6.28752 12.5814 -8.95077
228 1 4.71456 7.86205 14.1534 -8.95283
229 1 6.27616 6.27608 12.5917 -8.92843
230 1 7.85307 7.85178 14.1653 -8.99259
231 1 9.43422 6.27085 12.584 -8.9633
232 1 11.0104 7.85495 14.1632 -9.0007
233 1 12.5866 6.2772 12.5867 -8.95238
234 1 14.1663 7.84873 14.165 -8.9288
235 1 15.7272 6.28756 12.5795 -8.95075
236 1 17.3011 7.86014 14.1536 -8.95159
237 1 18.87 6.28903 12.5793 -8.94977
238 1 20.4424 7.86179 14.1522 -8.9503
239 1 -0.000172809 9.4346 12.5797 -8.94974
240 1 3.14338 9.43533 12.58 -8.94923
241 1 6.28774 9.43766 12.5797 -9.00295
242 1 9.41419 9.36516 12.5777 -9.19449
243 1 12.6212 9.39821 12.6187 -8.90773
244 1 15.7333 9.43298 12.5826 -8.96079
245 1 18.8712 9.43445 12.5796 -8.95177
246 1 -0.000247019 9.99782e-16 15.7244 -8.94957
247 1 1.57191 1.57212 17.2971 -8.9492
248 1 3.14412 6.18613e-16 15.7249 -8.94952
249 1 4.71673 1.57192 17.2974 -8.94956
250 1 6.28923 5.79266e-16 15.725 -8.94961
251 1 7.86192 1.57189 17.2973 -8.9495
252 1 9.43456 4.73664e-16 15.725 -8.94953
253 1 11.0071 1.57184 17.2973 -8.94951
254 1 12.5798 1.11549e-15 15.7249 -8.94959
255 1 14.1522 1.57179 17.2973 -8.94954
256 1 15.7248 2.8463e-16 15.7246 -8.95002
257 1 17.2972 1.57189 17.2971 -8.94947
258 1 18.8692 4.71036e-16 15.7243 -8.94969
259 1 20.4415 1.57221 17.2968 -8.9496
260 1 22.0135 3.14441 15.7246 -8.94955
261 1 1.57195 4.71695 17.2972 -8.9499
262 1 3.14332 3.14357 15.7256 -8.94822
263 1 4.71568 4.71583 17.2987 -8.94905
264 1 6.28857 3.14299 15.7259 -8.94946
265 1 7.86147 4.71575 17.2984 -8.94948
266 1 9.43445 3.14297 15.7256 -8.94932
267 1 11.007 4.71556 17.2984 -8.94921
268 1 12.5801 3.14277 15.7256 -8.94921
269 1 14.153 4.71515 17.2985 -8.94984
270 1 15.7257 3.14288 15.7254 -8.94937
271 1 17.2983 4.7157 17.2979 -8.94817
272 1 18.8695 3.14428 15.7245 -8.94982
273 1 20.4419 4.71682 17.297 -8.9496
274 1 -2.23478e-05 6.28944 15.7246 -8.94992
275 1 1.57204 7.86202 17.2971 -8.9495
276 1 3.14344 6.28928 15.7253 -8.95062
277 1 4.7163 7.86215 17.2976 -8.94979
278 1 6.28562 6.28588 15.7299 -8.94835
279 1 7.86037 7.86048 17.3005 -8.95209
280 1 9.43399 6.28579 15.7278 -8.94862
281 1 11.0064 7.8603 17.3012 -8.95056
282 1 12.5816 6.28494 15.729 -8.95085
283 1 14.156 7.85801 17.3029 -8.94804
284 1 15.7291 6.28502 15.7286 -8.9441
285 1 17.2987 7.86115 17.2981 -8.94972
286 1 18.8708 6.28866 15.7251 -8.9498
287 1 20.4421 7.86186 17.2971 -8.94958
288 1 22.014 9.43444 15.7248 -8.94962
289 1 3.14382 9.4346 15.7251 -8.94921
290 1 6.28849 9.43545 15.7254 -8.95006
291 1 9.43161 9.43052 15.7288 -8.99965
292 1 12.5891 9.4254 15.7412 -8.9848
293 1 15.7289 9.43315 15.7281 -8.94994
294 1 18.8709 9.43419 15.7252 -8.94948
295 1 22.0138 5.93231e-16 18.8692 -8.94934
296 1 1.57218 1.57222 20.4415 -8.9494
297 1 3.14454 -5.0506e-17 18.8694 -8.94957
298 1 4.71706 1.57219 20.4416 -8.94959
299 1 6.28951 -1.13142e-15 18.8694 -8.94957
300 1 7.86199 1.57213 20.4416 -8.94956
301 1 9.43449 -4.86274e-16 18.8694 -8.94958
302 1 11.007 1.57212 20.4416 -8.94956
303 1 12.5795 -4.54011e-16 18.8694 -8.94956
304 1 14.1519 1.57213 20.4416 -8.94956
305 1 15.7245 -6.11705e-16 18.8694 -8.94958
306 1 17.2969 1.57214 20.4416 -8.94961
307 1 18.8693 -2.57139e-16 18.8693 -8.94943
308 1 20.4416 1.57227 20.4415 -8.94933
309 1 -3.05805e-05 3.14464 18.8693 -8.94961
310 1 1.57224 4.71714 20.4416 -8.94971
311 1 3.14425 3.14431 18.8696 -8.94938
312 1 4.71665 4.71673 20.4417 -8.94993
313 1 6.28932 3.14422 18.8697 -8.94957
314 1 7.86172 4.7165 20.4417 -8.94954
315 1 9.43441 3.14408 18.8697 -8.94952
316 1 11.0069 4.71642 20.4417 -8.94954
317 1 12.5795 3.14407 18.8697 -8.9495
318 1 14.1521 4.7164 20.4417 -8.94972
319 1 15.7248 3.14402 18.8696 -8.94963
320 1 17.2975 4.7164 20.4417 -8.94928
321 1 18.8696 3.14433 18.8694 -8.94919
322 1 20.4418 4.71703 20.4415 -8.94958
323 1 22.0139 6.28954 18.8693 -8.94957
324 1 1.5722 7.86203 20.4416 -8.94955
325 1 3.14436 6.28956 18.8695 -8.94975
326 1 4.71673 7.86208 20.4417 -8.9496
327 1 6.28865 6.28884 18.8707 -8.95038
328 1 7.86131 7.86153 20.4424 -8.95015
329 1 9.43399 6.28837 18.8706 -8.94952
330 1 11.0066 7.86131 20.4424 -8.94999
331 1 12.5796 6.28835 18.8707 -8.95002
332 1 14.1529 7.86092 20.4426 -8.95051
333 1 15.726 6.28794 18.8709 -8.94903
334 1 17.2976 7.86164 20.4416 -8.94943
335 1 18.8699 6.28921 18.8695 -8.9496
49 1 18.8698 9.43438 22.0136 -8.9495
5 1 6.28956 -7.9475e-16 22.0137 -8.94955
9 1 12.5795 -1.89188e-16 22.0137 -8.94956
15 1 22.0139 3.14465 22.0137 -8.9496
17 1 3.14434 3.14437 22.0135 -8.94947
21 1 9.43443 3.14423 22.0136 -8.94952
23 1 12.5795 3.14422 22.0136 -8.94948
27 1 18.8696 3.14433 22.0137 -8.94912
29 1 5.6399e-05 6.28956 22.0138 -8.94953
33 1 6.28898 6.28913 22.0133 -8.95059
39 1 15.7254 6.28843 22.0131 -8.94992
46 1 9.43405 9.43438 22.0143 -8.94939
47 1 12.5798 9.43413 22.0133 -8.95189
1 1 -0.000136191 8.58702e-16 22.0138 -8.9493
13 1 18.8693 -9.00303e-17 22.0138 -8.94942
44 1 3.14441 9.4345 22.0137 -8.94954
181 1 17.2971 1.57203 11.0069 -8.94953
344 1 1.57215 11.007 1.57197 -8.94957
345 1 4.7166 11.007 1.57171 -8.94964
346 1 7.86183 11.007 1.5726 -8.94814
347 1 11.007 11.007 1.5722 -8.94688
348 1 14.1544 11.007 1.56875 -8.94948
349 1 17.2983 11.007 1.57112 -8.94941
350 1 20.442 11.007 1.57195 -8.94952
351 1 22.0139 12.5794 -0.000165533 -8.94957
352 1 1.57217 14.1519 1.57202 -8.94942
537 1 14.1524 20.4421 11.0068 -8.94937
354 1 4.71674 14.1516 1.57176 -8.94966
355 1 6.28915 12.5793 -8.76617e-05 -8.94938
356 1 7.86156 14.1522 1.57052 -8.95255
688 3 10.1499 11.007 9.40182 2.34239
358 1 11.0066 14.153 1.56989 -8.95067
511 1 18.8694 18.8696 9.4345 -8.94956
360 1 14.1538 14.1537 1.56889 -8.95173
361 1 15.7256 12.5798 -0.000931103 -8.94927
362 1 17.2982 14.1526 1.57115 -8.94914
510 1 15.7251 18.8701 9.43444 -8.9496
364 1 20.442 14.152 1.57198 -8.94946
509 1 12.5801 18.8705 9.43402 -8.94876
366 1 1.57205 17.2969 1.57195 -8.94984
367 1 3.14449 15.7243 -0.00020122 -8.94973
368 1 4.71605 17.2977 1.57083 -8.9495
508 1 9.43431 18.8708 9.43423 -8.94638
370 1 7.86164 17.2977 1.57112 -8.94911
371 1 9.4341 15.7252 -0.000663787 -8.94959
372 1 11.007 17.2979 1.57118 -8.94934
373 1 12.5795 15.7252 -0.000743809 -8.94967
374 1 14.1525 17.298 1.57113 -8.94968
507 1 6.28685 18.8735 9.43411 -8.94936
376 1 17.2981 17.2981 1.57126 -8.94815
377 1 18.8697 15.7246 -0.000290578 -8.94952
378 1 20.4419 17.297 1.57205 -8.94957
506 1 3.14314 18.8705 9.43446 -8.94948
380 1 1.57195 20.4418 1.57199 -8.94916
505 1 22.0134 18.8696 9.43451 -8.94953
382 1 4.71691 20.4419 1.57191 -8.94964
383 1 6.2894 18.8696 -0.000315534 -8.9495
384 1 7.86199 20.4419 1.57191 -8.94949
504 1 18.87 15.7251 9.43451 -8.94957
386 1 11.007 20.4419 1.57192 -8.94952
503 1 15.7266 15.7265 9.43427 -8.9462
388 1 14.152 20.4419 1.57201 -8.9495
389 1 15.7246 18.8697 -0.000285903 -8.94968
390 1 17.2971 20.442 1.57201 -8.94949
502 1 12.5797 15.7265 9.43219 -8.94583
392 1 20.4415 20.4417 1.57225 -8.94954
393 1 1.57173 11.007 4.71638 -8.94949
394 1 4.71565 11.007 4.71543 -8.94614
395 1 7.86463 11.007 4.71998 -8.94586
396 1 11.0125 11.007 4.72081 -9.00132
397 1 14.1631 11.007 4.70657 -8.94151
398 1 17.3013 11.007 4.71481 -8.94909
399 1 20.4426 11.007 4.7166 -8.94994
400 1 0.000108118 12.5795 3.14428 -8.94954
401 1 1.57165 14.1518 4.71666 -8.94979
402 1 3.14405 12.5793 3.14394 -8.94895
403 1 4.71485 14.1518 4.71541 -8.9514
404 1 6.28926 12.5785 3.14406 -8.94915
405 1 7.85624 14.158 4.70678 -8.95499
406 1 9.43512 12.5794 3.14373 -8.95113
407 1 11.0076 14.157 4.70785 -8.95171
408 1 12.5826 12.5808 3.1364 -8.9598
409 1 14.1653 14.1643 4.70381 -8.93021
410 1 15.7283 12.5808 3.14101 -8.94742
411 1 17.3011 14.1539 4.71513 -8.95078
412 1 18.8708 12.5798 3.14379 -8.94928
413 1 20.4424 14.1522 4.71677 -8.95016
414 1 22.0139 15.7244 3.1444 -8.94982
415 1 1.57083 17.2976 4.71622 -8.94968
416 1 3.14372 15.7245 3.14375 -8.95035
417 1 4.71278 17.3009 4.71284 -8.94418
418 1 6.2868 15.7268 3.14026 -8.9503
419 1 7.86075 17.3003 4.71434 -8.94882
420 1 9.43385 15.7268 3.14148 -8.94772
421 1 11.0075 17.3001 4.71455 -8.94768
422 1 12.5806 15.727 3.14109 -8.94931
423 1 14.1549 17.3016 4.71418 -8.94974
424 1 15.7287 15.7286 3.14061 -8.94454
425 1 17.2981 17.298 4.71667 -8.94999
426 1 18.8706 15.7252 3.14391 -8.94968
427 1 20.4415 17.2971 4.71699 -8.94988
428 1 22.0135 18.8695 3.14443 -8.94955
429 1 1.57181 20.4419 4.71685 -8.94947
430 1 3.14342 18.8703 3.14344 -8.94813
431 1 4.71626 20.4426 4.7162 -8.95003
432 1 6.289 18.8704 3.14353 -8.94959
433 1 7.86195 20.4425 4.71637 -8.94961
434 1 9.43445 18.8704 3.14366 -8.94937
435 1 11.0073 20.4425 4.71643 -8.94958
436 1 12.5798 18.8705 3.14378 -8.94913
437 1 14.1523 20.4425 4.71677 -8.95065
438 1 15.7254 18.8708 3.14369 -8.94942
439 1 17.297 20.4419 4.71714 -8.94966
440 1 18.8695 18.8696 3.14455 -8.94972
441 1 20.4414 20.4417 4.71714 -8.94953
442 1 1.57179 11.007 7.86168 -8.9477
443 1 4.71908 11.007 7.86238 -8.94069
444 1 7.88198 11.007 7.87089 -8.87455
445 1 11.0939 11.007 7.63892 -8.15365
446 1 14.162 11.007 7.85357 -8.97172
447 1 17.2997 11.007 7.86231 -8.95149
448 1 20.4421 11.007 7.86215 -8.9496
449 1 22.0138 12.5793 6.28931 -8.9499
450 1 1.56976 14.1522 7.86173 -8.9519
451 1 3.14316 12.5787 6.2889 -8.94969
452 1 4.70619 14.1559 7.85915 -8.95846
453 1 6.28609 12.5769 6.28834 -8.95149
454 1 7.81851 14.1912 7.82535 -8.84609
455 1 9.42179 12.6017 6.28392 -8.90984
456 1 11.023 14.1639 7.83443 -8.89764
457 1 12.6211 12.6133 6.25025 -8.85929
458 1 14.1586 14.1558 7.86105 -8.94945
459 1 15.735 12.582 6.28554 -8.95745
460 1 17.2987 14.1524 7.86278 -8.95087
461 1 18.8717 12.5797 6.28927 -8.95166
462 1 20.4416 14.1521 7.86216 -8.95009
463 1 22.013 15.7247 6.28927 -8.95028
464 1 1.57068 17.2977 7.86166 -8.94934
465 1 3.14029 15.7264 6.28742 -8.95093
466 1 4.71297 17.3007 7.86035 -8.94721
467 1 6.27579 15.7376 6.27663 -8.92852
468 1 7.85871 17.3055 7.86019 -8.95962
469 1 9.43334 15.7336 6.28369 -8.94934
470 1 11.0064 17.2996 7.86126 -8.95236
471 1 12.5864 15.7358 6.28175 -8.9524
472 1 14.1532 17.2989 7.86194 -8.94868
473 1 15.7277 15.7269 6.28859 -8.95041
474 1 17.2977 17.2977 7.86201 -8.94897
475 1 18.87 15.7248 6.28964 -8.95006
476 1 20.4414 17.2972 7.86197 -8.94957
477 1 -0.000498824 18.8696 6.28942 -8.94947
478 1 1.57173 20.4419 7.86193 -8.94952
479 1 3.14324 18.8705 6.28878 -8.94912
480 1 4.71594 20.4428 7.86152 -8.9493
481 1 6.28776 18.8729 6.2878 -8.95169
482 1 7.86182 20.4433 7.86177 -8.95143
483 1 9.43464 18.8721 6.28831 -8.95039
484 1 11.0071 20.4423 7.86197 -8.94956
485 1 12.5799 18.8717 6.28906 -8.95251
486 1 14.1524 20.4422 7.86197 -8.94946
487 1 15.725 18.8702 6.28957 -8.94951
488 1 17.2971 20.4419 7.86204 -8.94955
489 1 18.8694 18.8696 6.28958 -8.94944
490 1 20.4415 20.4417 7.86204 -8.94957
491 1 22.0132 12.5793 9.43453 -8.9495
492 1 3.14194 12.579 9.43438 -8.95112
493 1 6.2809 12.5882 9.43338 -8.97109
494 1 9.35582 12.8319 9.43164 -8.13484
495 1 12.5647 12.5821 9.42068 -8.93428
496 1 15.7222 12.5785 9.43511 -8.94428
497 1 18.8695 12.5795 9.43472 -8.94798
498 1 -0.00108438 15.7249 9.43451 -8.95003
499 1 3.14004 15.7267 9.43444 -8.94924
500 1 6.27778 15.7356 9.43353 -8.94083
501 1 9.42915 15.7232 9.4339 -9.00737
526 1 1.57068 17.2977 11.0073 -8.94929
527 1 4.71302 17.3006 11.0083 -8.94766
530 1 14.153 17.2984 11.0062 -8.94899
531 1 17.2977 17.2977 11.0069 -8.94896
532 1 20.4415 17.2973 11.007 -8.94955
534 1 4.71594 20.4428 11.0073 -8.94933
517 1 17.2971 11.007 11.0066 -8.94683
518 1 20.4417 11.007 11.0069 -8.94879
512 1 1.5718 11.007 11.0073 -8.94759
513 1 4.71943 11.007 11.006 -8.94145
514 1 7.8811 11.007 10.9901 -8.90497
515 1 11.1511 11.007 11.133 -8.48692
516 1 14.1467 11.007 11.0146 -9.02428
391 1 18.8696 18.8696 22.0137 -8.94912
387 1 12.5795 18.8697 22.0136 -8.94948
519 1 1.5698 14.1521 11.0072 -8.95195
520 1 4.70631 14.1557 11.0095 -8.95946
521 1 7.81728 14.1929 11.039 -8.87867
522 1 11.0294 14.1674 11.0258 -8.94848
523 1 14.157 14.1541 11.0043 -8.9547
524 1 17.2986 14.1525 11.0064 -8.95025
525 1 20.4416 14.1521 11.0069 -8.95004
687 2 10.1581 11.007 12.6396 0.85186
686 1 20.4416 20.4416 20.4415 -8.94933
528 1 7.85801 17.3069 11.0076 -8.95824
529 1 11.0075 17.3012 11.0061 -8.95156
685 1 18.8696 18.8696 18.8694 -8.94919
684 1 17.2969 20.4418 20.4416 -8.94961
683 1 15.7248 18.8699 18.8696 -8.94963
533 1 1.57172 20.4419 11.0071 -8.94951
682 1 14.1519 20.4418 20.4416 -8.94956
535 1 7.86165 20.4436 11.0069 -8.95161
536 1 11.0073 20.4427 11.0066 -8.94981
681 1 12.5795 18.8698 18.8697 -8.9495
680 1 11.007 20.4418 20.4416 -8.94956
539 1 20.4415 20.4417 11.007 -8.94957
540 1 1.57169 11.007 14.1526 -8.94939
541 1 4.71597 11.007 14.1533 -8.94568
542 1 7.8666 11.007 14.1485 -8.9771
543 1 11.038 11.007 14.224 -9.25858
544 1 14.1596 11.007 14.162 -8.99139
545 1 17.3007 11.007 14.1541 -8.9481
546 1 20.4425 11.007 14.1524 -8.94983
547 1 -0.000172809 12.5793 12.5797 -8.94974
548 1 1.57156 14.1517 14.1523 -8.9499
549 1 3.14338 12.5786 12.58 -8.94923
550 1 4.71456 14.1518 14.1534 -8.95283
551 1 6.28774 12.5762 12.5797 -9.00295
552 1 7.85307 14.1621 14.1653 -8.99259
553 1 9.41419 12.6487 12.5777 -9.19449
554 1 11.0104 14.159 14.1632 -9.0007
555 1 12.6212 12.6157 12.6187 -8.90773
556 1 14.1663 14.1652 14.165 -8.9288
557 1 15.7333 12.5809 12.5826 -8.96079
558 1 17.3011 14.1538 14.1536 -8.95159
559 1 18.8712 12.5795 12.5796 -8.95177
560 1 20.4424 14.1521 14.1522 -8.9503
561 1 22.013 15.7247 12.5797 -8.95024
562 1 1.57079 17.2976 14.1528 -8.94967
563 1 3.1403 15.7264 12.5814 -8.95077
564 1 4.71264 17.3009 14.1561 -8.9444
565 1 6.27616 15.7378 12.5917 -8.92843
566 1 7.85993 17.3021 14.1553 -8.94848
567 1 9.43422 15.7431 12.584 -8.9633
568 1 11.0083 17.3017 14.1551 -8.94605
569 1 12.5866 15.7367 12.5867 -8.95238
570 1 14.1554 17.302 14.1548 -8.94983
571 1 15.7272 15.7263 12.5795 -8.95075
572 1 17.298 17.2979 14.1522 -8.95027
573 1 18.87 15.7249 12.5793 -8.94977
574 1 20.4415 17.2971 14.152 -8.94982
575 1 -0.000498479 18.8696 12.5796 -8.94946
576 1 1.57178 20.4419 14.1522 -8.94951
577 1 3.14323 18.8705 12.5801 -8.94919
578 1 4.71613 20.4427 14.1528 -8.94993
579 1 6.28757 18.8732 12.5811 -8.95131
580 1 7.86172 20.443 14.1528 -8.94984
581 1 9.43468 18.8739 12.5805 -8.95305
582 1 11.0075 20.4429 14.1527 -8.94968
583 1 12.5801 18.8721 12.5798 -8.9524
584 1 14.1525 20.4427 14.1523 -8.95066
585 1 15.725 18.8701 12.5792 -8.94948
586 1 17.2971 20.4419 14.1518 -8.94967
587 1 18.8694 18.8696 12.5794 -8.94942
588 1 20.4415 20.4417 14.1519 -8.94953
589 1 1.572 11.007 17.2972 -8.94959
590 1 4.71624 11.007 17.2978 -8.94911
591 1 7.86193 11.007 17.2976 -8.9479
592 1 11.0072 11.007 17.3121 -8.96808
593 1 14.1549 11.007 17.3022 -8.94874
594 1 17.2986 11.007 17.2982 -8.94925
595 1 20.442 11.007 17.2972 -8.94956
596 1 22.014 12.5795 15.7248 -8.94962
597 1 1.57204 14.1519 17.2971 -8.9495
598 1 3.14382 12.5793 15.7251 -8.94921
599 1 4.7163 14.1517 17.2976 -8.94979
600 1 6.28849 12.5785 15.7254 -8.95006
601 1 7.86037 14.1534 17.3005 -8.95209
602 1 9.43161 12.5834 15.7288 -8.99965
603 1 11.0064 14.1536 17.3012 -8.95056
604 1 12.5891 12.5885 15.7412 -8.9848
605 1 14.156 14.1559 17.3029 -8.94804
606 1 15.7289 12.5808 15.7281 -8.94994
607 1 17.2987 14.1527 17.2981 -8.94972
608 1 18.8709 12.5797 15.7252 -8.94948
609 1 20.4421 14.152 17.2971 -8.94958
610 1 -2.23478e-05 15.7245 15.7246 -8.94992
611 1 1.57195 17.2969 17.2972 -8.9499
612 1 3.14344 15.7246 15.7253 -8.95062
613 1 4.71568 17.2981 17.2987 -8.94905
614 1 6.28562 15.728 15.7299 -8.94835
615 1 7.86147 17.2982 17.2984 -8.94948
616 1 9.43399 15.7281 15.7278 -8.94862
617 1 11.007 17.2983 17.2984 -8.94921
618 1 12.5816 15.729 15.729 -8.95085
619 1 14.153 17.2988 17.2985 -8.94984
620 1 15.7291 15.7289 15.7286 -8.9441
621 1 17.2983 17.2982 17.2979 -8.94817
622 1 18.8708 15.7252 15.7251 -8.9498
623 1 20.4419 17.2971 17.297 -8.9496
624 1 22.0135 18.8695 15.7246 -8.94955
625 1 1.57191 20.4418 17.2971 -8.9492
626 1 3.14332 18.8703 15.7256 -8.94822
627 1 4.71673 20.442 17.2974 -8.94956
628 1 6.28857 18.8709 15.7259 -8.94946
629 1 7.86192 20.442 17.2973 -8.9495
630 1 9.43445 18.8709 15.7256 -8.94932
631 1 11.0071 20.4421 17.2973 -8.94951
632 1 12.5801 18.8711 15.7256 -8.94921
633 1 14.1522 20.4421 17.2973 -8.94954
634 1 15.7257 18.871 15.7254 -8.94937
635 1 17.2972 20.442 17.2971 -8.94947
636 1 18.8695 18.8696 15.7245 -8.94982
637 1 20.4415 20.4417 17.2968 -8.9496
638 1 1.57218 11.007 20.4416 -8.94959
639 1 4.71665 11.007 20.4417 -8.94965
640 1 7.86143 11.007 20.4422 -8.94878
641 1 11.0066 11.007 20.4447 -8.95227
642 1 14.153 11.007 20.4425 -8.94988
643 1 17.2977 11.007 20.4417 -8.94945
644 1 20.4418 11.007 20.4415 -8.94956
645 1 2.25513e-05 12.5794 18.8693 -8.94958
646 1 1.5722 14.1519 20.4416 -8.94955
647 1 3.14427 12.5794 18.8695 -8.94952
648 1 4.71673 14.1518 20.4417 -8.9496
649 1 6.28888 12.5793 18.8699 -8.94967
650 1 7.86131 14.1524 20.4424 -8.95015
651 1 9.43308 12.5805 18.8722 -8.9475
652 1 11.0066 14.1526 20.4424 -8.94999
653 1 12.581 12.5809 18.8743 -8.95129
654 1 14.1529 14.153 20.4426 -8.95051
655 1 15.7259 12.5799 18.8707 -8.94937
656 1 17.2976 14.1523 20.4416 -8.94943
657 1 18.8699 12.5795 18.8695 -8.94949
658 1 20.4418 14.1519 20.4415 -8.94956
659 1 22.0139 15.7244 18.8693 -8.94957
660 1 1.57224 17.2968 20.4416 -8.94971
661 1 3.14436 15.7243 18.8695 -8.94975
662 1 4.71665 17.2972 20.4417 -8.94993
663 1 6.28865 15.7251 18.8707 -8.95038
664 1 7.86172 17.2974 20.4417 -8.94954
665 1 9.43399 15.7255 18.8706 -8.94952
666 1 11.0069 17.2975 20.4417 -8.94954
667 1 12.5796 15.7256 18.8707 -8.95002
668 1 14.1521 17.2975 20.4417 -8.94972
669 1 15.726 15.726 18.8709 -8.94903
670 1 17.2975 17.2975 20.4417 -8.94928
671 1 18.8699 15.7247 18.8695 -8.9496
672 1 20.4418 17.2969 20.4415 -8.94958
673 1 -3.05805e-05 18.8693 18.8693 -8.94961
674 1 1.57218 20.4417 20.4415 -8.9494
675 1 3.14425 18.8696 18.8696 -8.94938
676 1 4.71706 20.4417 20.4416 -8.94959
677 1 6.28932 18.8697 18.8697 -8.94957
678 1 7.86199 20.4418 20.4416 -8.94956
679 1 9.43441 18.8698 18.8697 -8.94952
357 1 9.43405 12.5795 22.0143 -8.94939
359 1 12.5798 12.5798 22.0133 -8.95189
363 1 18.8698 12.5795 22.0136 -8.9495
365 1 5.6399e-05 15.7243 22.0138 -8.94953
369 1 6.28898 15.7248 22.0133 -8.95059
375 1 15.7254 15.7255 22.0131 -8.94992
379 1 22.0139 18.8692 22.0137 -8.9496
381 1 3.14434 18.8695 22.0135 -8.94947
385 1 9.43443 18.8697 22.0136 -8.94952
353 1 3.14441 12.5794 22.0137 -8.94954
538 1 17.2971 20.4419 11.0069 -8.94953
