ITEM: TIMESTEP
46
ITEM: NUMBER OF ATOMS
688
ITEM: BOX BOUNDS pp pp pp
0.0000000000000000e+00 2.2013900999999997e+01
0.0000000000000000e+00 2.2013900999999997e+01
0.0000000000000000e+00 2.2013900999999997e+01
ITEM: ATOMS id type x y z c_pot
189 1 20.4415 4.71726 11.007 -8.94963
2 1 1.57242 1.57242 1.57242 -8.94963
175 1 18.8691 9.43452 9.43453 -8.94967
4 1 4.71726 1.57242 1.57242 -8.94963
174 1 15.7245 9.4344 9.43458 -8.94941
6 1 7.86211 1.57242 1.57242 -8.94963
7 1 9.43453 1.0295e-16 -5.29976e-10 -8.94963
8 1 11.007 1.57242 1.57242 -8.94963
173 1 12.5823 9.43075 9.43455 -8.94705
10 1 14.1518 1.57242 1.57242 -8.94963
11 1 15.7242 7.41825e-16 6.85498e-09 -8.94963
12 1 17.2966 1.57242 1.57242 -8.94963
188 1 17.2966 4.71727 11.007 -8.94966
14 1 20.4415 1.57242 1.57242 -8.94963
172 1 9.36889 9.29087 9.43465 -8.08231
16 1 1.57242 4.71726 1.57242 -8.94963
171 1 6.28521 9.43371 9.43427 -8.9625
18 1 4.71726 4.71726 1.57242 -8.94963
19 1 6.28969 3.14484 8.9894e-08 -8.94963
20 1 7.86211 4.71726 1.57242 -8.94964
170 1 3.14463 9.43452 9.43452 -8.95068
22 1 11.007 4.71726 1.57242 -8.94964
169 1 22.0139 9.43453 9.43453 -8.94969
24 1 14.1518 4.71727 1.57242 -8.94966
25 1 15.7242 3.14484 6.46858e-08 -8.94963
26 1 17.2966 4.71726 1.57242 -8.94962
168 1 18.8691 6.28969 9.43453 -8.94963
28 1 20.4415 4.71726 1.57242 -8.94963
167 1 15.7242 6.28967 9.43451 -8.94945
30 1 1.57242 7.86211 1.57242 -8.94963
31 1 3.14484 6.28969 8.28623e-08 -8.94963
32 1 4.71726 7.86211 1.57242 -8.94964
166 1 12.5793 6.28954 9.43452 -8.95128
34 1 7.8621 7.8621 1.5724 -8.94967
35 1 9.43453 6.28969 1.22006e-07 -8.94964
36 1 11.0069 7.86211 1.57242 -8.94964
37 1 12.5794 6.28969 8.75102e-07 -8.94964
38 1 14.1518 7.86209 1.57239 -8.94963
165 1 9.43433 6.28364 9.43459 -8.97625
40 1 17.2966 7.86211 1.57242 -8.94965
41 1 18.8691 6.28969 5.30779e-08 -8.94963
42 1 20.4415 7.86211 1.57242 -8.94963
43 1 22.0139 9.43453 -3.00595e-09 -8.94963
187 1 14.1518 4.71724 11.0069 -8.94979
45 1 6.28969 9.43453 4.93407e-07 -8.94965
164 1 6.28954 6.28951 9.43453 -8.95102
163 1 3.14484 6.28969 9.43453 -8.94963
48 1 15.7242 9.43453 4.35599e-07 -8.94964
162 1 6.58193e-08 6.28969 9.43453 -8.94963
50 1 3.8738e-09 3.32379e-16 3.14484 -8.94963
51 1 1.57242 1.57242 4.71726 -8.94963
52 1 3.14484 1.52938e-16 3.14484 -8.94963
53 1 4.71726 1.57242 4.71726 -8.94963
54 1 6.28969 4.86623e-16 3.14484 -8.94963
55 1 7.86211 1.57242 4.71727 -8.94963
56 1 9.43453 5.74726e-16 3.14484 -8.94963
57 1 11.007 1.57242 4.71726 -8.94963
58 1 12.5794 1.15934e-15 3.14484 -8.94963
59 1 14.1518 1.57242 4.71726 -8.94963
60 1 15.7242 1.23963e-15 3.14484 -8.94963
61 1 17.2966 1.57242 4.71726 -8.94963
62 1 18.8691 4.40156e-16 3.14484 -8.94963
63 1 20.4415 1.57242 4.71726 -8.94963
64 1 22.0139 3.14484 3.14484 -8.94963
65 1 1.57242 4.71726 4.71726 -8.94963
66 1 3.14484 3.14484 3.14484 -8.94962
67 1 4.71724 4.71724 4.71724 -8.94941
68 1 6.28969 3.14484 3.14484 -8.94966
69 1 7.86212 4.71728 4.71728 -8.94988
70 1 9.43453 3.14484 3.14484 -8.94964
71 1 11.0069 4.71726 4.71726 -8.94963
72 1 12.5794 3.14484 3.14484 -8.94964
73 1 14.1518 4.71724 4.71725 -8.94964
74 1 15.7242 3.14484 3.14484 -8.94963
75 1 17.2966 4.71727 4.71726 -8.94965
76 1 18.8691 3.14484 3.14484 -8.94963
77 1 20.4415 4.71726 4.71726 -8.94963
78 1 22.0139 6.28969 3.14484 -8.94963
79 1 1.57242 7.86211 4.71726 -8.94963
80 1 3.14484 6.28969 3.14484 -8.94965
81 1 4.71726 7.8621 4.71726 -8.94977
82 1 6.28967 6.28967 3.14481 -8.94964
83 1 7.86193 7.86194 4.7168 -8.95063
84 1 9.43453 6.28968 3.14484 -8.94963
85 1 11.0068 7.86211 4.71713 -8.9514
86 1 12.5794 6.2897 3.14486 -8.94988
87 1 14.1523 7.86161 4.71678 -8.94583
88 1 15.7242 6.28966 3.14482 -8.94941
89 1 17.2967 7.8621 4.71725 -8.94967
90 1 18.8691 6.28969 3.14484 -8.94963
91 1 20.4415 7.86211 4.71726 -8.94964
92 1 7.00261e-08 9.43453 3.14484 -8.94963
93 1 3.14484 9.43453 3.14484 -8.94965
94 1 6.28968 9.43454 3.14483 -8.94974
95 1 9.43436 9.43436 3.14458 -8.94897
96 1 12.5796 9.43433 3.14435 -8.95055
97 1 15.7242 9.43453 3.14485 -8.94983
98 1 18.8691 9.43453 3.14484 -8.94963
99 1 22.0139 1.13776e-15 6.28969 -8.94963
100 1 1.57242 1.57242 7.86211 -8.94963
101 1 3.14484 1.04832e-16 6.28969 -8.94963
102 1 4.71726 1.57242 7.86211 -8.94963
103 1 6.28969 6.87553e-16 6.28969 -8.94964
104 1 7.8621 1.5724 7.8621 -8.94972
105 1 9.43453 1.46697e-15 6.28969 -8.94963
106 1 11.007 1.57241 7.8621 -8.94965
107 1 12.5794 5.336e-16 6.28969 -8.94964
108 1 14.1518 1.57242 7.86211 -8.94964
109 1 15.7242 7.83249e-16 6.28969 -8.94963
110 1 17.2966 1.57242 7.86211 -8.94963
111 1 18.8691 7.17748e-16 6.28969 -8.94963
112 1 20.4415 1.57242 7.86211 -8.94963
113 1 8.37381e-08 3.14484 6.28969 -8.94963
114 1 1.57242 4.71727 7.86211 -8.94963
115 1 3.14484 3.14484 6.28969 -8.94965
116 1 4.71727 4.71728 7.86211 -8.94983
117 1 6.28967 3.14481 6.28967 -8.94963
118 1 7.86192 4.71677 7.86191 -8.95059
119 1 9.43453 3.14484 6.28969 -8.94963
120 1 11.0071 4.71701 7.86193 -8.94898
121 1 12.5794 3.14482 6.28968 -8.94967
122 1 14.1518 4.71725 7.86211 -8.94973
123 1 15.7242 3.14484 6.28969 -8.94964
124 1 17.2966 4.71727 7.86211 -8.94964
125 1 18.8691 3.14484 6.28969 -8.94963
126 1 20.4415 4.71726 7.86211 -8.94963
127 1 22.0139 6.28969 6.28969 -8.94964
128 1 1.5724 7.8621 7.8621 -8.94972
129 1 3.14482 6.28967 6.28967 -8.94966
130 1 4.71682 7.86197 7.86197 -8.95086
131 1 6.28921 6.2892 6.28919 -8.94585
132 1 7.85417 7.85458 7.85427 -8.89479
133 1 9.43463 6.28956 6.2897 -8.95141
134 1 11.0095 7.86045 7.8592 -8.93324
135 1 12.5795 6.28922 6.28952 -8.95067
136 1 14.1521 7.86186 7.86203 -8.94901
137 1 15.7242 6.28969 6.28968 -8.94977
138 1 17.2967 7.8621 7.86211 -8.94966
139 1 18.8691 6.28969 6.28969 -8.94963
140 1 20.4415 7.86211 7.86211 -8.94964
141 1 22.0139 9.43453 6.28969 -8.94964
142 1 3.14482 9.43453 6.28968 -8.94965
143 1 6.28932 9.43445 6.28942 -8.94914
144 1 9.4319 9.43155 6.28796 -8.93293
145 1 12.5874 9.42668 6.28213 -8.89414
146 1 15.7246 9.43441 6.28958 -8.95103
147 1 18.8691 9.43453 6.28968 -8.94972
148 1 -1.49642e-09 6.15302e-16 9.43453 -8.94963
149 1 3.14484 1.35164e-15 9.43453 -8.94963
150 1 6.28969 1.53693e-15 9.43453 -8.94963
151 1 9.43453 6.27526e-17 9.43453 -8.94979
152 1 12.5794 9.91974e-16 9.43453 -8.94963
153 1 15.7242 1.40363e-16 9.43453 -8.94963
154 1 18.8691 7.74792e-16 9.43453 -8.94963
155 1 22.0139 3.14484 9.43453 -8.94963
156 1 3.14484 3.14484 9.43453 -8.94965
157 1 6.28968 3.14483 9.43453 -8.94959
158 1 9.43454 3.14453 9.43453 -8.95122
159 1 12.5794 3.14484 9.43453 -8.94966
160 1 15.7242 3.14484 9.43453 -8.94962
161 1 18.8691 3.14484 9.43453 -8.94963
177 1 4.71727 1.57242 11.007 -8.94964
180 1 14.1518 1.57242 11.007 -8.94965
184 1 4.71728 4.71728 11.007 -8.94987
183 1 1.57242 4.71726 11.007 -8.94963
3 1 3.14484 3.98013e-16 4.02858e-09 -8.94963
176 1 1.57242 1.57242 11.007 -8.94963
343 1 18.8691 9.43453 18.8691 -8.94963
178 1 7.8621 1.5724 11.007 -8.94971
179 1 11.007 1.5724 11.007 -8.94965
342 1 15.7242 9.43454 18.8691 -8.94968
341 1 12.5794 9.43447 18.8691 -8.94933
182 1 20.4415 1.57242 11.007 -8.94963
340 1 9.43447 9.43447 18.8691 -8.94923
339 1 6.28968 9.43452 18.8691 -8.94969
185 1 7.86187 4.71675 11.0071 -8.95015
186 1 11.0072 4.71695 11.0071 -8.94861
338 1 3.14484 9.43453 18.8691 -8.94964
337 1 6.58571e-08 9.43453 18.8691 -8.94963
336 1 20.4415 7.86211 20.4415 -8.94963
190 1 1.57241 7.86211 11.007 -8.94971
191 1 4.71689 7.86205 11.0071 -8.95136
192 1 7.85379 7.85472 11.0139 -8.93091
193 1 11.0102 7.86021 11.0097 -8.98722
194 1 14.1524 7.86158 11.0068 -8.94835
195 1 17.2967 7.86209 11.0069 -8.94968
196 1 20.4415 7.86211 11.007 -8.94964
197 1 22.0139 -5.76781e-16 12.5794 -8.94963
198 1 1.57242 1.57242 14.1518 -8.94963
199 1 3.14484 -4.62935e-16 12.5794 -8.94963
200 1 4.71726 1.57242 14.1518 -8.94963
201 1 6.28969 9.15118e-16 12.5794 -8.94963
202 1 7.86211 1.57242 14.1518 -8.94963
203 1 9.43453 -4.77698e-16 12.5794 -8.94968
204 1 11.007 1.57242 14.1518 -8.94963
205 1 12.5794 -4.8427e-16 12.5794 -8.94964
206 1 14.1518 1.57242 14.1518 -8.94964
207 1 15.7242 7.30336e-17 12.5794 -8.94963
208 1 17.2966 1.57242 14.1518 -8.94963
209 1 18.8691 -8.11317e-17 12.5794 -8.94963
210 1 20.4415 1.57242 14.1518 -8.94963
211 1 5.34415e-08 3.14484 12.5794 -8.94963
212 1 1.57242 4.71726 14.1518 -8.94963
213 1 3.14484 3.14484 12.5794 -8.94965
214 1 4.71725 4.71725 14.1518 -8.94946
215 1 6.28967 3.14482 12.5794 -8.94961
216 1 7.86207 4.71725 14.1518 -8.9495
217 1 9.43453 3.14475 12.5794 -8.95023
218 1 11.007 4.71722 14.1519 -8.94921
219 1 12.5794 3.14481 12.5794 -8.94973
220 1 14.1518 4.71722 14.1518 -8.94969
221 1 15.7242 3.14484 12.5794 -8.94963
222 1 17.2966 4.71727 14.1518 -8.94966
223 1 18.8691 3.14484 12.5794 -8.94963
224 1 20.4415 4.71726 14.1518 -8.94963
225 1 22.0139 6.28969 12.5794 -8.94964
226 1 1.57243 7.86211 14.1518 -8.94962
227 1 3.14482 6.28967 12.5794 -8.94963
228 1 4.71731 7.86216 14.1517 -8.95016
229 1 6.28934 6.28936 12.5799 -8.94661
230 1 7.8615 7.86201 14.1532 -8.98753
231 1 9.43467 6.28744 12.5794 -8.95977
232 1 11.0075 7.8622 14.152 -9.00535
233 1 12.5796 6.28903 12.5795 -8.95163
234 1 14.1526 7.86135 14.1525 -8.94459
235 1 15.7242 6.28969 12.5794 -8.94979
236 1 17.2967 7.86209 14.1518 -8.94969
237 1 18.8691 6.28969 12.5794 -8.94963
238 1 20.4415 7.86211 14.1518 -8.94964
239 1 1.24468e-06 9.43453 12.5794 -8.94963
240 1 3.14486 9.43452 12.5794 -8.94932
241 1 6.29014 9.43528 12.5796 -8.99864
242 1 9.41635 9.39957 12.5807 -9.22011
243 1 12.5919 9.42344 12.587 -8.93279
244 1 15.7249 9.43439 12.5795 -8.95215
245 1 18.8691 9.43453 12.5794 -8.94981
246 1 3.10009e-09 1.04101e-16 15.7242 -8.94963
247 1 1.57242 1.57242 17.2966 -8.94963
248 1 3.14484 1.01871e-15 15.7242 -8.94963
249 1 4.71726 1.57242 17.2966 -8.94963
250 1 6.28969 5.2237e-16 15.7242 -8.94963
251 1 7.86211 1.57242 17.2966 -8.94963
252 1 9.43453 4.48126e-16 15.7242 -8.94963
253 1 11.007 1.57242 17.2966 -8.94963
254 1 12.5794 3.81939e-16 15.7242 -8.94963
255 1 14.1518 1.57242 17.2966 -8.94963
256 1 15.7242 1.6773e-15 15.7242 -8.94963
257 1 17.2966 1.57242 17.2966 -8.94963
258 1 18.8691 9.83692e-16 15.7242 -8.94963
259 1 20.4415 1.57242 17.2966 -8.94963
260 1 22.0139 3.14484 15.7242 -8.94963
261 1 1.57242 4.71726 17.2966 -8.94964
262 1 3.14484 3.14484 15.7242 -8.94962
263 1 4.71726 4.71726 17.2966 -8.94963
264 1 6.28968 3.14484 15.7242 -8.94964
265 1 7.86211 4.71727 17.2966 -8.94968
266 1 9.43453 3.14485 15.7242 -8.94964
267 1 11.0069 4.71727 17.2966 -8.94964
268 1 12.5794 3.14484 15.7242 -8.94962
269 1 14.1518 4.71727 17.2966 -8.94965
270 1 15.7242 3.14484 15.7242 -8.94963
271 1 17.2966 4.71726 17.2966 -8.94962
272 1 18.8691 3.14484 15.7242 -8.94963
273 1 20.4415 4.71726 17.2966 -8.94963
274 1 4.4934e-07 6.28969 15.7242 -8.94963
275 1 1.57242 7.86211 17.2966 -8.94963
276 1 3.14485 6.28969 15.7242 -8.94968
277 1 4.71725 7.86209 17.2966 -8.94953
278 1 6.28967 6.28966 15.7242 -8.94948
279 1 7.86209 7.86209 17.2967 -8.9498
280 1 9.43455 6.28973 15.7242 -8.95022
281 1 11.0069 7.86216 17.2966 -8.95024
282 1 12.5794 6.28966 15.7242 -8.95005
283 1 14.1518 7.86208 17.2967 -8.94946
284 1 15.7243 6.28965 15.7243 -8.9493
285 1 17.2966 7.86211 17.2966 -8.94969
286 1 18.8691 6.28968 15.7242 -8.94963
287 1 20.4415 7.86211 17.2966 -8.94963
288 1 22.0139 9.43453 15.7242 -8.94964
289 1 3.14482 9.43452 15.7242 -8.94968
290 1 6.2894 9.43434 15.7245 -8.94869
291 1 9.4337 9.43418 15.7244 -9.00293
292 1 12.58 9.43334 15.7247 -8.98652
293 1 15.7242 9.43459 15.7241 -8.95025
294 1 18.8691 9.43453 15.7242 -8.94963
295 1 22.0139 1.03667e-15 18.8691 -8.94963
296 1 1.57242 1.57242 20.4415 -8.94963
297 1 3.14484 1.62497e-17 18.8691 -8.94963
298 1 4.71726 1.57242 20.4415 -8.94963
299 1 6.28969 -8.52257e-16 18.8691 -8.94963
300 1 7.86211 1.57242 20.4415 -8.94963
301 1 9.43453 -7.85636e-17 18.8691 -8.94963
302 1 11.007 1.57242 20.4415 -8.94963
303 1 12.5794 3.62542e-16 18.8691 -8.94963
304 1 14.1518 1.57242 20.4415 -8.94963
305 1 15.7242 1.8944e-16 18.8691 -8.94963
306 1 17.2966 1.57242 20.4415 -8.94963
307 1 18.8691 -1.94006e-16 18.8691 -8.94963
308 1 20.4415 1.57242 20.4415 -8.94963
309 1 2.01247e-08 3.14484 18.8691 -8.94963
310 1 1.57242 4.71726 20.4415 -8.94963
311 1 3.14484 3.14484 18.8691 -8.94963
312 1 4.71726 4.71726 20.4415 -8.94963
313 1 6.28969 3.14484 18.8691 -8.94963
314 1 7.86211 4.71726 20.4415 -8.94963
315 1 9.43453 3.14484 18.8691 -8.94963
316 1 11.007 4.71726 20.4415 -8.94963
317 1 12.5794 3.14484 18.8691 -8.94963
318 1 14.1518 4.71726 20.4415 -8.94963
319 1 15.7242 3.14484 18.8691 -8.94963
320 1 17.2966 4.71726 20.4415 -8.94963
321 1 18.8691 3.14484 18.8691 -8.94963
322 1 20.4415 4.71726 20.4415 -8.94963
323 1 22.0139 6.28969 18.8691 -8.94963
324 1 1.57242 7.86211 20.4415 -8.94963
325 1 3.14484 6.28969 18.8691 -8.94963
326 1 4.71726 7.86211 20.4415 -8.94963
327 1 6.28969 6.28969 18.8691 -8.94963
328 1 7.8621 7.8621 20.4415 -8.94962
329 1 9.43453 6.28969 18.8691 -8.94964
330 1 11.007 7.86211 20.4415 -8.94964
331 1 12.5794 6.28969 18.8691 -8.94968
332 1 14.1518 7.8621 20.4415 -8.94962
333 1 15.7242 6.28969 18.8691 -8.94963
334 1 17.2966 7.86211 20.4415 -8.94963
335 1 18.8691 6.28969 18.8691 -8.94964
49 1 18.8691 9.43453 22.0139 -8.94963
5 1 6.28969 -2.82845e-16 22.0139 -8.94963
9 1 12.5794 -7.1363e-16 22.0139 -8.94963
15 1 22.0139 3.14484 22.0139 -8.94963
17 1 3.14484 3.14484 22.0139 -8.94963
21 1 9.43453 3.14484 22.0139 -8.94963
23 1 12.5794 3.14484 22.0139 -8.94963
27 1 18.8691 3.14484 22.0139 -8.94963
29 1 5.72282e-10 6.28969 22.0139 -8.94963
33 1 6.28969 6.28969 22.0139 -8.94963
39 1 15.7242 6.28969 22.0139 -8.94963
46 1 9.43452 9.43452 22.0139 -8.94965
47 1 12.5794 9.43452 22.0139 -8.94971
1 1 -7.15365e-10 8.23093e-16 22.0139 -8.94963
13 1 18.8691 2.92348e-16 22.0139 -8.94963
44 1 3.14484 9.43453 22.0139 -8.94963
181 1 17.2966 1.57242 11.007 -8.94963
344 1 1.57242 11.007 1.57242 -8.94963
345 1 4.71726 11.007 1.57242 -8.94962
346 1 7.86211 11.007 1.57242 -8.94967
347 1 11.0069 11.007 1.5721 -8.95124
348 1 14.1518 11.007 1.57241 -8.9496
349 1 17.2966 11.007 1.57242 -8.94964
350 1 20.4415 11.007 1.57242 -8.94963
351 1 22.0139 12.5794 -3.00595e-09 -8.94963
352 1 1.57242 14.1518 1.57242 -8.94963
537 1 14.1518 20.4415 11.007 -8.94965
354 1 4.71726 14.1518 1.57242 -8.94964
355 1 6.28969 12.5794 4.93407e-07 -8.94965
356 1 7.8621 14.1518 1.5724 -8.94967
688 3 10.2149 11.007 9.42834 3.03848
358 1 11.0069 14.1518 1.57242 -8.94964
511 1 18.8691 18.8691 9.43453 -8.94963
360 1 14.1518 14.1518 1.57239 -8.94963
361 1 15.7242 12.5794 4.35599e-07 -8.94964
362 1 17.2966 14.1518 1.57242 -8.94965
510 1 15.7242 18.8691 9.43453 -8.94962
364 1 20.4415 14.1518 1.57242 -8.94963
509 1 12.5794 18.8691 9.43453 -8.94966
366 1 1.57242 17.2966 1.57242 -8.94963
367 1 3.14484 15.7242 8.28623e-08 -8.94963
368 1 4.71726 17.2966 1.57242 -8.94963
508 1 9.43454 18.8694 9.43453 -8.95122
370 1 7.86211 17.2966 1.57242 -8.94964
371 1 9.43453 15.7242 1.22006e-07 -8.94964
372 1 11.007 17.2966 1.57242 -8.94964
373 1 12.5794 15.7242 8.75102e-07 -8.94964
374 1 14.1518 17.2966 1.57242 -8.94966
507 1 6.28968 18.8691 9.43453 -8.94959
376 1 17.2966 17.2966 1.57242 -8.94962
377 1 18.8691 15.7242 5.30779e-08 -8.94963
378 1 20.4415 17.2966 1.57242 -8.94963
506 1 3.14484 18.8691 9.43453 -8.94965
380 1 1.57242 20.4415 1.57242 -8.94963
505 1 22.0139 18.8691 9.43453 -8.94963
382 1 4.71726 20.4415 1.57242 -8.94963
383 1 6.28969 18.8691 8.9894e-08 -8.94963
384 1 7.86211 20.4415 1.57242 -8.94963
504 1 18.8691 15.7242 9.43453 -8.94963
386 1 11.007 20.4415 1.57242 -8.94963
503 1 15.7242 15.7242 9.43451 -8.94945
388 1 14.1518 20.4415 1.57242 -8.94963
389 1 15.7242 18.8691 6.46858e-08 -8.94963
390 1 17.2966 20.4415 1.57242 -8.94963
502 1 12.5793 15.7244 9.43452 -8.95128
392 1 20.4415 20.4415 1.57242 -8.94963
393 1 1.57242 11.007 4.71726 -8.94963
394 1 4.71727 11.007 4.71726 -8.94956
395 1 7.8622 11.007 4.71715 -8.95128
396 1 11.0072 11.007 4.71116 -8.97588
397 1 14.1519 11.007 4.71711 -8.95112
398 1 17.2966 11.007 4.71726 -8.9496
399 1 20.4415 11.007 4.71726 -8.94963
400 1 7.00261e-08 12.5794 3.14484 -8.94963
401 1 1.57242 14.1518 4.71726 -8.94963
402 1 3.14484 12.5794 3.14484 -8.94965
403 1 4.71726 14.1518 4.71726 -8.94977
404 1 6.28968 12.5794 3.14483 -8.94974
405 1 7.86193 14.152 4.7168 -8.95063
406 1 9.43436 12.5795 3.14458 -8.94897
407 1 11.0068 14.1518 4.71713 -8.9514
408 1 12.5796 12.5796 3.14435 -8.95055
409 1 14.1523 14.1523 4.71678 -8.94583
410 1 15.7242 12.5794 3.14485 -8.94983
411 1 17.2967 14.1518 4.71725 -8.94967
412 1 18.8691 12.5794 3.14484 -8.94963
413 1 20.4415 14.1518 4.71726 -8.94964
414 1 22.0139 15.7242 3.14484 -8.94963
415 1 1.57242 17.2966 4.71726 -8.94963
416 1 3.14484 15.7242 3.14484 -8.94965
417 1 4.71724 17.2967 4.71724 -8.94941
418 1 6.28967 15.7242 3.14481 -8.94964
419 1 7.86212 17.2966 4.71728 -8.94988
420 1 9.43453 15.7242 3.14484 -8.94963
421 1 11.0069 17.2966 4.71726 -8.94963
422 1 12.5794 15.7242 3.14486 -8.94988
423 1 14.1518 17.2967 4.71725 -8.94964
424 1 15.7242 15.7242 3.14482 -8.94941
425 1 17.2966 17.2966 4.71726 -8.94965
426 1 18.8691 15.7242 3.14484 -8.94963
427 1 20.4415 17.2966 4.71726 -8.94963
428 1 22.0139 18.8691 3.14484 -8.94963
429 1 1.57242 20.4415 4.71726 -8.94963
430 1 3.14484 18.8691 3.14484 -8.94962
431 1 4.71726 20.4415 4.71726 -8.94963
432 1 6.28969 18.8691 3.14484 -8.94966
433 1 7.86211 20.4415 4.71727 -8.94963
434 1 9.43453 18.8691 3.14484 -8.94964
435 1 11.007 20.4415 4.71726 -8.94963
436 1 12.5794 18.8691 3.14484 -8.94964
437 1 14.1518 20.4415 4.71726 -8.94963
438 1 15.7242 18.8691 3.14484 -8.94963
439 1 17.2966 20.4415 4.71726 -8.94963
440 1 18.8691 18.8691 3.14484 -8.94963
441 1 20.4415 20.4415 4.71726 -8.94963
442 1 1.5724 11.007 7.8621 -8.94967
443 1 4.7169 11.007 7.86194 -8.9492
444 1 7.85925 11.007 7.85895 -8.90654
445 1 11.0728 11.007 7.71777 -8.04203
446 1 14.1559 11.007 7.8617 -8.96433
447 1 17.2968 11.007 7.86211 -8.95062
448 1 20.4415 11.007 7.86211 -8.94968
449 1 22.0139 12.5794 6.28969 -8.94964
450 1 1.5724 14.1518 7.8621 -8.94972
451 1 3.14482 12.5794 6.28968 -8.94965
452 1 4.71682 14.1519 7.86197 -8.95086
453 1 6.28932 12.5794 6.28942 -8.94914
454 1 7.85417 14.1593 7.85427 -8.89479
455 1 9.4319 12.5823 6.28796 -8.93293
456 1 11.0095 14.1534 7.8592 -8.93324
457 1 12.5874 12.5872 6.28213 -8.89414
458 1 14.1521 14.152 7.86203 -8.94901
459 1 15.7246 12.5795 6.28958 -8.95103
460 1 17.2967 14.1518 7.86211 -8.94966
461 1 18.8691 12.5794 6.28968 -8.94972
462 1 20.4415 14.1518 7.86211 -8.94964
463 1 22.0139 15.7242 6.28969 -8.94964
464 1 1.57242 17.2966 7.86211 -8.94963
465 1 3.14482 15.7242 6.28967 -8.94966
466 1 4.71727 17.2966 7.86211 -8.94983
467 1 6.28921 15.7247 6.28919 -8.94585
468 1 7.86192 17.2971 7.86191 -8.95059
469 1 9.43463 15.7243 6.2897 -8.95141
470 1 11.0071 17.2969 7.86193 -8.94898
471 1 12.5795 15.7247 6.28952 -8.95067
472 1 14.1518 17.2966 7.86211 -8.94973
473 1 15.7242 15.7242 6.28968 -8.94977
474 1 17.2966 17.2966 7.86211 -8.94964
475 1 18.8691 15.7242 6.28969 -8.94963
476 1 20.4415 17.2966 7.86211 -8.94963
477 1 8.37381e-08 18.8691 6.28969 -8.94963
478 1 1.57242 20.4415 7.86211 -8.94963
479 1 3.14484 18.8691 6.28969 -8.94965
480 1 4.71726 20.4415 7.86211 -8.94963
481 1 6.28967 18.8691 6.28967 -8.94963
482 1 7.8621 20.4415 7.8621 -8.94972
483 1 9.43453 18.8691 6.28969 -8.94963
484 1 11.007 20.4415 7.8621 -8.94965
485 1 12.5794 18.8691 6.28968 -8.94967
486 1 14.1518 20.4415 7.86211 -8.94964
487 1 15.7242 18.8691 6.28969 -8.94964
488 1 17.2966 20.4415 7.86211 -8.94963
489 1 18.8691 18.8691 6.28969 -8.94963
490 1 20.4415 20.4415 7.86211 -8.94963
491 1 22.0139 12.5794 9.43453 -8.94969
492 1 3.14463 12.5794 9.43452 -8.95068
493 1 6.28521 12.5802 9.43427 -8.9625
494 1 9.36889 12.723 9.43465 -8.08231
495 1 12.5823 12.5832 9.43455 -8.94705
496 1 15.7245 12.5795 9.43458 -8.94941
497 1 18.8691 12.5794 9.43453 -8.94967
498 1 6.58193e-08 15.7242 9.43453 -8.94963
499 1 3.14484 15.7242 9.43453 -8.94963
500 1 6.28954 15.7244 9.43453 -8.95102
501 1 9.43433 15.7303 9.43459 -8.97625
526 1 1.57242 17.2966 11.007 -8.94963
527 1 4.71728 17.2966 11.007 -8.94987
530 1 14.1518 17.2967 11.0069 -8.94979
531 1 17.2966 17.2966 11.007 -8.94966
532 1 20.4415 17.2966 11.007 -8.94963
534 1 4.71727 20.4415 11.007 -8.94964
517 1 17.2968 11.007 11.0069 -8.95045
518 1 20.4415 11.007 11.007 -8.94968
512 1 1.57239 11.007 11.007 -8.94976
513 1 4.71663 11.007 11.0071 -8.95051
514 1 7.85451 11.007 11.0065 -8.93733
515 1 11.0982 11.007 11.1143 -8.37453
516 1 14.1555 11.007 11.0084 -9.01188
391 1 18.8691 18.8691 22.0139 -8.94963
387 1 12.5794 18.8691 22.0139 -8.94963
519 1 1.57241 14.1518 11.007 -8.94971
520 1 4.71689 14.1519 11.0071 -8.95136
521 1 7.85379 14.1592 11.0139 -8.93091
522 1 11.0102 14.1537 11.0097 -8.98722
523 1 14.1524 14.1523 11.0068 -8.94835
524 1 17.2967 14.1518 11.0069 -8.94968
525 1 20.4415 14.1518 11.007 -8.94964
687 2 10.2146 11.007 12.5865 1.08979
686 1 20.4415 20.4415 20.4415 -8.94963
528 1 7.86187 17.2972 11.0071 -8.95015
529 1 11.0072 17.297 11.0071 -8.94861
685 1 18.8691 18.8691 18.8691 -8.94963
684 1 17.2966 20.4415 20.4415 -8.94963
683 1 15.7242 18.8691 18.8691 -8.94963
533 1 1.57242 20.4415 11.007 -8.94963
682 1 14.1518 20.4415 20.4415 -8.94963
535 1 7.8621 20.4415 11.007 -8.94971
536 1 11.007 20.4415 11.007 -8.94965
681 1 12.5794 18.8691 18.8691 -8.94963
680 1 11.007 20.4415 20.4415 -8.94963
539 1 20.4415 20.4415 11.007 -8.94963
540 1 1.57241 11.007 14.1518 -8.94971
541 1 4.71702 11.007 14.1518 -8.95084
542 1 7.85774 11.007 14.1551 -8.98486
543 1 11.0234 11.007 14.1923 -9.25971
544 1 14.1511 11.007 14.1511 -9.00043
545 1 17.2966 11.007 14.1518 -8.94926
546 1 20.4415 11.007 14.1518 -8.94962
547 1 1.24468e-06 12.5794 12.5794 -8.94963
548 1 1.57243 14.1518 14.1518 -8.94962
549 1 3.14486 12.5794 12.5794 -8.94932
550 1 4.71731 14.1517 14.1517 -8.95016
551 1 6.29014 12.5786 12.5796 -8.99864
552 1 7.8615 14.1519 14.1532 -8.98753
553 1 9.41635 12.6143 12.5807 -9.22011
554 1 11.0075 14.1517 14.152 -9.00535
555 1 12.5919 12.5905 12.587 -8.93279
556 1 14.1526 14.1525 14.1525 -8.94459
557 1 15.7249 12.5795 12.5795 -8.95215
558 1 17.2967 14.1518 14.1518 -8.94969
559 1 18.8691 12.5794 12.5794 -8.94981
560 1 20.4415 14.1518 14.1518 -8.94964
561 1 22.0139 15.7242 12.5794 -8.94964
562 1 1.57242 17.2966 14.1518 -8.94963
563 1 3.14482 15.7242 12.5794 -8.94963
564 1 4.71725 17.2967 14.1518 -8.94946
565 1 6.28934 15.7245 12.5799 -8.94661
566 1 7.86207 17.2967 14.1518 -8.9495
567 1 9.43467 15.7265 12.5794 -8.95977
568 1 11.007 17.2967 14.1519 -8.94921
569 1 12.5796 15.7249 12.5795 -8.95163
570 1 14.1518 17.2967 14.1518 -8.94969
571 1 15.7242 15.7242 12.5794 -8.94979
572 1 17.2966 17.2966 14.1518 -8.94966
573 1 18.8691 15.7242 12.5794 -8.94963
574 1 20.4415 17.2966 14.1518 -8.94963
575 1 5.34415e-08 18.8691 12.5794 -8.94963
576 1 1.57242 20.4415 14.1518 -8.94963
577 1 3.14484 18.8691 12.5794 -8.94965
578 1 4.71726 20.4415 14.1518 -8.94963
579 1 6.28967 18.8691 12.5794 -8.94961
580 1 7.86211 20.4415 14.1518 -8.94963
581 1 9.43453 18.8691 12.5794 -8.95023
582 1 11.007 20.4415 14.1518 -8.94963
583 1 12.5794 18.8691 12.5794 -8.94973
584 1 14.1518 20.4415 14.1518 -8.94964
585 1 15.7242 18.8691 12.5794 -8.94963
586 1 17.2966 20.4415 14.1518 -8.94963
587 1 18.8691 18.8691 12.5794 -8.94963
588 1 20.4415 20.4415 14.1518 -8.94963
589 1 1.57242 11.007 17.2966 -8.94963
590 1 4.71727 11.007 17.2966 -8.94964
591 1 7.86208 11.007 17.2968 -8.95076
592 1 11.0069 11.007 17.2991 -8.95993
593 1 14.1517 11.007 17.2965 -8.95039
594 1 17.2966 11.007 17.2966 -8.9496
595 1 20.4415 11.007 17.2966 -8.94963
596 1 22.0139 12.5794 15.7242 -8.94964
597 1 1.57242 14.1518 17.2966 -8.94963
598 1 3.14482 12.5794 15.7242 -8.94968
599 1 4.71725 14.1518 17.2966 -8.94953
600 1 6.2894 12.5796 15.7245 -8.94869
601 1 7.86209 14.1518 17.2967 -8.9498
602 1 9.4337 12.5797 15.7244 -9.00293
603 1 11.0069 14.1517 17.2966 -8.95024
604 1 12.58 12.5806 15.7247 -8.98652
605 1 14.1518 14.1518 17.2967 -8.94946
606 1 15.7242 12.5793 15.7241 -8.95025
607 1 17.2966 14.1518 17.2966 -8.94969
608 1 18.8691 12.5794 15.7242 -8.94963
609 1 20.4415 14.1518 17.2966 -8.94963
610 1 4.4934e-07 15.7242 15.7242 -8.94963
611 1 1.57242 17.2966 17.2966 -8.94964
612 1 3.14485 15.7242 15.7242 -8.94968
613 1 4.71726 17.2966 17.2966 -8.94963
614 1 6.28967 15.7242 15.7242 -8.94948
615 1 7.86211 17.2966 17.2966 -8.94968
616 1 9.43455 15.7242 15.7242 -8.95022
617 1 11.0069 17.2966 17.2966 -8.94964
618 1 12.5794 15.7242 15.7242 -8.95005
619 1 14.1518 17.2966 17.2966 -8.94965
620 1 15.7243 15.7242 15.7243 -8.9493
621 1 17.2966 17.2966 17.2966 -8.94962
622 1 18.8691 15.7242 15.7242 -8.94963
623 1 20.4415 17.2966 17.2966 -8.94963
624 1 22.0139 18.8691 15.7242 -8.94963
625 1 1.57242 20.4415 17.2966 -8.94963
626 1 3.14484 18.8691 15.7242 -8.94962
627 1 4.71726 20.4415 17.2966 -8.94963
628 1 6.28968 18.8691 15.7242 -8.94964
629 1 7.86211 20.4415 17.2966 -8.94963
630 1 9.43453 18.8691 15.7242 -8.94964
631 1 11.007 20.4415 17.2966 -8.94963
632 1 12.5794 18.8691 15.7242 -8.94962
633 1 14.1518 20.4415 17.2966 -8.94963
634 1 15.7242 18.8691 15.7242 -8.94963
635 1 17.2966 20.4415 17.2966 -8.94963
636 1 18.8691 18.8691 15.7242 -8.94963
637 1 20.4415 20.4415 17.2966 -8.94963
638 1 1.57242 11.007 20.4415 -8.94963
639 1 4.71726 11.007 20.4415 -8.94963
640 1 7.86211 11.007 20.4415 -8.9497
641 1 11.007 11.007 20.4416 -8.9504
642 1 14.1518 11.007 20.4415 -8.94961
643 1 17.2966 11.007 20.4415 -8.94963
644 1 20.4415 11.007 20.4415 -8.94963
645 1 6.58571e-08 12.5794 18.8691 -8.94963
646 1 1.57242 14.1518 20.4415 -8.94963
647 1 3.14484 12.5794 18.8691 -8.94964
648 1 4.71726 14.1518 20.4415 -8.94963
649 1 6.28968 12.5794 18.8691 -8.94969
650 1 7.8621 14.1518 20.4415 -8.94962
651 1 9.43447 12.5794 18.8691 -8.94923
652 1 11.007 14.1518 20.4415 -8.94964
653 1 12.5794 12.5794 18.8691 -8.94933
654 1 14.1518 14.1518 20.4415 -8.94962
655 1 15.7242 12.5794 18.8691 -8.94968
656 1 17.2966 14.1518 20.4415 -8.94963
657 1 18.8691 12.5794 18.8691 -8.94963
658 1 20.4415 14.1518 20.4415 -8.94963
659 1 22.0139 15.7242 18.8691 -8.94963
660 1 1.57242 17.2966 20.4415 -8.94963
661 1 3.14484 15.7242 18.8691 -8.94963
662 1 4.71726 17.2966 20.4415 -8.94963
663 1 6.28969 15.7242 18.8691 -8.94963
664 1 7.86211 17.2966 20.4415 -8.94963
665 1 9.43453 15.7242 18.8691 -8.94964
666 1 11.007 17.2966 20.4415 -8.94963
667 1 12.5794 15.7242 18.8691 -8.94968
668 1 14.1518 17.2966 20.4415 -8.94963
669 1 15.7242 15.7242 18.8691 -8.94963
670 1 17.2966 17.2966 20.4415 -8.94963
671 1 18.8691 15.7242 18.8691 -8.94964
672 1 20.4415 17.2966 20.4415 -8.94963
673 1 2.01247e-08 18.8691 18.8691 -8.94963
674 1 1.57242 20.4415 20.4415 -8.94963
675 1 3.14484 18.8691 18.8691 -8.94963
676 1 4.71726 20.4415 20.4415 -8.94963
677 1 6.28969 18.8691 18.8691 -8.94963
678 1 7.86211 20.4415 20.4415 -8.94963
679 1 9.43453 18.8691 18.8691 -8.94963
357 1 9.43452 12.5794 22.0139 -8.94965
359 1 12.5794 12.5794 22.0139 -8.94971
363 1 18.8691 12.5794 22.0139 -8.94963
365 1 5.72282e-10 15.7242 22.0139 -8.94963
369 1 6.28969 15.7242 22.0139 -8.94963
375 1 15.7242 15.7242 22.0139 -8.94963
379 1 22.0139 18.8691 22.0139 -8.94963
381 1 3.14484 18.8691 22.0139 -8.94963
385 1 9.43453 18.8691 22.0139 -8.94963
353 1 3.14484 12.5794 22.0139 -8.94963
538 1 17.2966 20.4415 11.007 -8.94963
