ITEM: TIMESTEP
68
ITEM: NUMBER OF ATOMS
688
ITEM: BOX BOUNDS pp pp pp
0.0000000000000000e+00 2.2013900999999997e+01
0.0000000000000000e+00 2.2013900999999997e+01
0.0000000000000000e+00 2.2013900999999997e+01
ITEM: ATOMS id type x y z c_pot
189 1 20.4415 4.71671 11.007 -8.94955
2 1 1.57201 1.57217 1.57205 -8.94919
175 1 18.8695 9.43437 9.43471 -8.94803
4 1 4.71698 1.57209 1.57198 -8.94965
174 1 15.7225 9.43537 9.43513 -8.94443
6 1 7.86201 1.57206 1.57198 -8.9495
7 1 9.43451 -4.76337e-16 -0.00014992 -8.94958
8 1 11.007 1.57203 1.57198 -8.94954
173 1 12.5653 9.43176 9.42073 -8.93352
10 1 14.152 1.57203 1.57206 -8.94951
11 1 15.7243 -2.34137e-16 -0.000107834 -8.9496
12 1 17.2971 1.57199 1.57205 -8.9495
188 1 17.2977 4.71623 11.0069 -8.94897
14 1 20.4415 1.57225 1.57229 -8.94956
172 1 9.3555 9.18342 9.43184 -8.13552
16 1 1.5721 4.71705 1.57202 -8.94983
171 1 6.28064 9.42593 9.43338 -8.97109
18 1 4.71615 4.71624 1.57093 -8.9495
19 1 6.28945 3.14439 -0.000278315 -8.9495
20 1 7.86171 4.71627 1.57122 -8.94912
170 1 3.14187 9.4349 9.43437 -8.95117
22 1 11.007 4.71614 1.57127 -8.94935
169 1 22.0132 9.43463 9.43452 -8.94954
24 1 14.1524 4.71601 1.57125 -8.94969
25 1 15.7245 3.1443 -0.000252254 -8.94969
26 1 17.298 4.7159 1.57134 -8.94817
168 1 18.87 6.28883 9.4345 -8.94955
28 1 20.4419 4.71691 1.5721 -8.94958
167 1 15.7266 6.28747 9.43429 -8.9462
30 1 1.57219 7.86206 1.57207 -8.94943
31 1 3.14453 6.28964 -0.00017282 -8.94973
32 1 4.71678 7.86231 1.5718 -8.94966
166 1 12.5796 6.2876 9.43232 -8.94603
34 1 7.86159 7.86176 1.57055 -8.95251
35 1 9.43413 6.28881 -0.000638982 -8.94957
36 1 11.0066 7.86096 1.56996 -8.95061
37 1 12.5795 6.28878 -0.000702961 -8.94965
38 1 14.1536 7.86035 1.56902 -8.95171
165 1 9.42922 6.29093 9.43399 -9.00715
40 1 17.2981 7.86138 1.57125 -8.94917
41 1 18.8696 6.28935 -0.00025756 -8.94954
42 1 20.4419 7.86191 1.57203 -8.94947
43 1 22.0139 9.43448 -0.00014233 -8.94958
187 1 14.1529 4.7156 11.0062 -8.94903
45 1 6.28918 9.43462 -0.000101364 -8.94939
164 1 6.27805 6.27854 9.43355 -8.94089
163 1 3.14025 6.28735 9.43444 -8.94924
48 1 15.7255 9.43411 -0.000882037 -8.94927
162 1 -0.00100254 6.28908 9.43451 -8.95001
50 1 -0.000194119 2.02839e-16 3.14469 -8.94957
51 1 1.57189 1.57209 4.71692 -8.94949
52 1 3.14429 2.21657e-16 3.14427 -8.94955
53 1 4.71637 1.57135 4.7163 -8.95002
54 1 6.2895 5.01757e-16 3.1443 -8.94957
55 1 7.86199 1.57144 4.71646 -8.9496
56 1 9.43457 7.16008e-16 3.14427 -8.94955
57 1 11.0072 1.57149 4.7165 -8.94957
58 1 12.5796 3.30498e-16 3.14435 -8.94951
59 1 14.1523 1.57145 4.71682 -8.95062
60 1 15.7246 9.08539e-16 3.14449 -8.95
61 1 17.297 1.57209 4.71717 -8.94966
62 1 18.8692 5.3292e-16 3.14476 -8.94967
63 1 20.4415 1.57225 4.71716 -8.94954
64 1 22.0135 3.14449 3.14449 -8.94955
65 1 1.57095 4.71638 4.7163 -8.94967
66 1 3.14355 3.1437 3.14356 -8.94815
67 1 4.713 4.7132 4.71302 -8.94423
68 1 6.2891 3.14363 3.14366 -8.94961
69 1 7.8609 4.71382 4.71452 -8.94885
70 1 9.43447 3.14361 3.14376 -8.94938
71 1 11.0074 4.71401 4.71473 -8.94771
72 1 12.5797 3.14354 3.14388 -8.94914
73 1 14.1547 4.71252 4.71437 -8.94979
74 1 15.7253 3.1432 3.14379 -8.94943
75 1 17.2979 4.71604 4.71675 -8.94998
76 1 18.8694 3.14435 3.14459 -8.94972
77 1 20.4415 4.71685 4.71702 -8.94986
78 1 22.0139 6.28949 3.14446 -8.94981
79 1 1.57169 7.86215 4.7167 -8.94977
80 1 3.14382 6.28941 3.14384 -8.95033
81 1 4.71497 7.86213 4.71549 -8.95139
82 1 6.28694 6.28719 3.14042 -8.9503
83 1 7.85635 7.85613 4.70692 -8.95497
84 1 9.43388 6.28726 3.14163 -8.94773
85 1 11.0075 7.85706 4.7081 -8.95166
86 1 12.5805 6.28704 3.1413 -8.94929
87 1 14.1651 7.84976 4.70405 -8.93014
88 1 15.7285 6.28548 3.14077 -8.94455
89 1 17.3009 7.8601 4.71525 -8.95079
90 1 18.8705 6.28878 3.14398 -8.94968
91 1 20.4423 7.86177 4.71681 -8.95014
92 1 7.66534e-05 9.43444 3.14434 -8.94955
93 1 3.14408 9.43456 3.14398 -8.94897
94 1 6.28927 9.43536 3.14405 -8.94917
95 1 9.43507 9.43458 3.14368 -8.95112
96 1 12.5824 9.43315 3.13651 -8.95978
97 1 15.728 9.43316 3.1412 -8.94745
98 1 18.8706 9.43419 3.14388 -8.94929
99 1 22.0137 1.17331e-15 6.28958 -8.94958
100 1 1.57183 1.57205 7.86196 -8.94954
101 1 3.14413 1.10624e-15 6.28928 -8.94937
102 1 4.71607 1.57119 7.86157 -8.94931
103 1 6.28923 1.61944e-15 6.28911 -8.95065
104 1 7.86189 1.57067 7.86181 -8.95141
105 1 9.43475 9.82922e-16 6.28916 -8.95019
106 1 11.0071 1.5716 7.86199 -8.94955
107 1 12.5796 5.85356e-16 6.2895 -8.95037
108 1 14.1524 1.57175 7.86198 -8.94947
109 1 15.7246 6.52229e-16 6.28959 -8.94954
110 1 17.2971 1.57207 7.86204 -8.94955
111 1 18.8692 1.249e-15 6.28962 -8.94956
112 1 20.4415 1.57222 7.86205 -8.94958
113 1 -0.000433863 3.14441 6.28946 -8.94948
114 1 1.57082 4.71626 7.86171 -8.94934
115 1 3.1434 3.14354 6.28887 -8.94913
116 1 4.71322 4.71336 7.86043 -8.94724
117 1 6.28791 3.14112 6.28791 -8.95167
118 1 7.8589 4.70859 7.86029 -8.95959
119 1 9.43469 3.14194 6.28841 -8.95037
120 1 11.0064 4.71448 7.86138 -8.9523
121 1 12.5799 3.14234 6.28914 -8.95247
122 1 14.1531 4.71514 7.86203 -8.94874
123 1 15.7249 3.14379 6.28961 -8.94952
124 1 17.2977 4.71625 7.86202 -8.94897
125 1 18.8694 3.1444 6.2896 -8.94944
126 1 20.4415 4.71673 7.86198 -8.94956
127 1 22.013 6.28925 6.2893 -8.95025
128 1 1.56984 7.86176 7.86174 -8.95187
129 1 3.14048 6.28764 6.28752 -8.9509
130 1 4.70635 7.85817 7.85918 -8.95839
131 1 6.27609 6.2766 6.27683 -8.92863
132 1 7.81877 7.82307 7.8256 -8.84653
133 1 9.43345 6.28059 6.28395 -8.94942
134 1 11.0227 7.85052 7.83495 -8.89814
135 1 12.5861 6.27839 6.2821 -8.95259
136 1 14.1585 7.85811 7.86119 -8.94925
137 1 15.7275 6.28714 6.28871 -8.95037
138 1 17.2987 7.86149 7.86279 -8.95083
139 1 18.87 6.28911 6.28966 -8.95003
140 1 20.4416 7.86184 7.86215 -8.95008
141 1 22.0138 9.43456 6.28932 -8.94989
142 1 3.14317 9.43524 6.28891 -8.94967
143 1 6.2861 9.43704 6.28834 -8.95154
144 1 9.42172 9.41248 6.28394 -8.90963
145 1 12.621 9.40052 6.2504 -8.85841
146 1 15.7349 9.43194 6.28572 -8.95747
147 1 18.8716 9.43423 6.2893 -8.95163
148 1 -0.000237281 1.73146e-15 9.43452 -8.94958
149 1 3.14407 1.2344e-15 9.43449 -8.94948
150 1 6.28881 8.01795e-16 9.43434 -8.95034
151 1 9.43475 8.35583e-16 9.43435 -8.94859
152 1 12.5799 5.98552e-16 9.43432 -8.94948
153 1 15.7247 -3.406e-16 9.43448 -8.94966
154 1 18.8693 7.1479e-16 9.43451 -8.94959
155 1 22.0135 3.14437 9.43451 -8.94954
156 1 3.14331 3.14352 9.43447 -8.94949
157 1 6.28703 3.14058 9.43413 -8.94935
158 1 9.43438 3.14316 9.43426 -8.94638
159 1 12.5801 3.14342 9.43406 -8.94876
160 1 15.7251 3.1438 9.43445 -8.94961
161 1 18.8694 3.14433 9.4345 -8.94957
177 1 4.71608 1.57122 11.0073 -8.94933
180 1 14.1524 1.57182 11.0068 -8.94939
184 1 4.71326 4.71348 11.0082 -8.94769
183 1 1.57082 4.71626 11.0073 -8.9493
3 1 3.14467 8.74531e-17 -0.00013467 -8.94965
176 1 1.57182 1.57205 11.0071 -8.94952
343 1 18.8698 9.4344 18.8695 -8.94951
178 1 7.86171 1.57035 11.0069 -8.95159
179 1 11.0073 1.57123 11.0066 -8.94979
342 1 15.7258 9.43404 18.8706 -8.94937
341 1 12.5809 9.43301 18.8741 -8.95127
182 1 20.4415 1.57221 11.007 -8.94958
340 1 9.43309 9.4334 18.8721 -8.94751
339 1 6.28889 9.4346 18.8699 -8.94969
185 1 7.85818 4.70719 11.0075 -8.95822
186 1 11.0075 4.71284 11.0061 -8.95148
338 1 3.14429 9.43448 18.8695 -8.94952
337 1 -1.23578e-06 9.43447 18.8693 -8.94959
336 1 20.4417 7.862 20.4415 -8.94957
190 1 1.56987 7.8618 11.0072 -8.95192
191 1 4.70643 7.85838 11.0095 -8.95942
192 1 7.81743 7.82141 11.0389 -8.87907
193 1 11.0291 7.84709 11.0256 -8.94917
194 1 14.157 7.8598 11.0043 -8.95451
195 1 17.2986 7.86134 11.0064 -8.95021
196 1 20.4416 7.86181 11.0069 -8.95004
197 1 22.0137 3.04099e-16 12.5795 -8.94958
198 1 1.57187 1.57208 14.1521 -8.94953
199 1 3.14412 7.02115e-16 12.5797 -8.94941
200 1 4.71624 1.57129 14.1527 -8.94993
201 1 6.28909 5.53762e-16 12.5798 -8.95057
202 1 7.86177 1.57101 14.1527 -8.94982
203 1 9.43474 6.394e-16 12.5798 -8.95095
204 1 11.0074 1.57105 14.1527 -8.94967
205 1 12.5798 8.33238e-16 12.5794 -8.95036
206 1 14.1525 1.57131 14.1522 -8.95064
207 1 15.7246 3.8682e-16 12.5793 -8.94952
208 1 17.297 1.57209 14.1518 -8.94967
209 1 18.8692 9.96215e-16 12.5794 -8.94955
210 1 20.4415 1.57224 14.1519 -8.94954
211 1 -0.000433268 3.14439 12.5796 -8.94947
212 1 1.5709 4.71635 14.1527 -8.94966
213 1 3.14339 3.14355 12.5801 -8.94921
214 1 4.71284 4.71313 14.1559 -8.94443
215 1 6.28772 3.14082 12.581 -8.95129
216 1 7.86006 4.71204 14.1551 -8.9485
217 1 9.43472 3.14013 12.5804 -8.95299
218 1 11.0083 4.71236 14.1549 -8.94608
219 1 12.5801 3.14191 12.5797 -8.95237
220 1 14.1552 4.71205 14.1546 -8.94988
221 1 15.7249 3.14386 12.5792 -8.94949
222 1 17.2979 4.71611 14.1521 -8.95025
223 1 18.8694 3.14438 12.5794 -8.94943
224 1 20.4415 4.71682 14.152 -8.9498
225 1 22.0131 6.28922 12.5797 -8.95022
226 1 1.57159 7.86217 14.1523 -8.94988
227 1 3.14046 6.28762 12.5814 -8.95076
228 1 4.71462 7.86211 14.1533 -8.95279
229 1 6.27638 6.27636 12.5916 -8.92852
230 1 7.85312 7.85206 14.1652 -8.99256
231 1 9.43424 6.27124 12.5838 -8.9633
232 1 11.0102 7.85523 14.1629 -9.00073
233 1 12.5863 6.27744 12.5864 -8.95259
234 1 14.1661 7.84883 14.1648 -8.92865
235 1 15.7271 6.28763 12.5794 -8.95071
236 1 17.301 7.8602 14.1535 -8.95157
237 1 18.87 6.28907 12.5793 -8.94974
238 1 20.4423 7.8618 14.1521 -8.95028
239 1 -0.000182652 9.43459 12.5796 -8.94975
240 1 3.14333 9.43531 12.58 -8.9492
241 1 6.28764 9.43776 12.5798 -9.00288
242 1 9.41391 9.3658 12.5778 -9.19485
243 1 12.6214 9.3981 12.6188 -8.90756
244 1 15.7333 9.43297 12.5825 -8.96078
245 1 18.8712 9.43444 12.5795 -8.95176
246 1 -0.000201398 8.22346e-16 15.7244 -8.94959
247 1 1.57198 1.57215 17.297 -8.94922
248 1 3.14421 5.86616e-16 15.7248 -8.94953
249 1 4.7168 1.57196 17.2973 -8.94958
250 1 6.2893 2.81286e-16 15.7249 -8.94962
251 1 7.86195 1.57194 17.2973 -8.94951
252 1 9.43456 8.53304e-16 15.7249 -8.94953
253 1 11.007 1.5719 17.2973 -8.94952
254 1 12.5798 4.83761e-16 15.7249 -8.94959
255 1 14.1522 1.57185 17.2972 -8.94954
256 1 15.7247 3.57059e-16 15.7246 -8.95
257 1 17.2971 1.57195 17.2971 -8.94947
258 1 18.8692 6.37208e-16 15.7243 -8.94969
259 1 20.4415 1.57224 17.2968 -8.94961
260 1 22.0135 3.14446 15.7246 -8.94955
261 1 1.572 4.71699 17.2971 -8.94989
262 1 3.14344 3.14366 15.7255 -8.94824
263 1 4.71578 4.71591 17.2986 -8.94905
264 1 6.28868 3.14312 15.7257 -8.94947
265 1 7.86155 4.71585 17.2982 -8.94948
266 1 9.43447 3.14309 15.7255 -8.94933
267 1 11.007 4.71569 17.2983 -8.94922
268 1 12.5801 3.1429 15.7255 -8.94921
269 1 14.1529 4.7153 17.2983 -8.94985
270 1 15.7255 3.14301 15.7253 -8.94938
271 1 17.2981 4.71582 17.2979 -8.94817
272 1 18.8695 3.14435 15.7244 -8.94981
273 1 20.4419 4.71688 17.297 -8.9496
274 1 -2.02805e-05 6.28947 15.7246 -8.9499
275 1 1.57204 7.86202 17.2971 -8.9495
276 1 3.14353 6.28932 15.7253 -8.9506
277 1 4.71631 7.86213 17.2976 -8.94975
278 1 6.28575 6.28602 15.7297 -8.94838
279 1 7.86038 7.86053 17.3005 -8.95205
280 1 9.434 6.28597 15.7277 -8.94865
281 1 11.0063 7.86041 17.301 -8.95053
282 1 12.5814 6.28515 15.7288 -8.95086
283 1 14.1559 7.85814 17.3026 -8.94805
284 1 15.7289 6.28518 15.7284 -8.9441
285 1 17.2985 7.86125 17.298 -8.94973
286 1 18.8706 6.28873 15.725 -8.94979
287 1 20.442 7.86189 17.2971 -8.94958
288 1 22.0139 9.43444 15.7247 -8.94963
289 1 3.14379 9.43459 15.7251 -8.94923
290 1 6.28835 9.43541 15.7255 -8.94999
291 1 9.43147 9.43061 15.7289 -8.99955
292 1 12.5889 9.4255 15.741 -8.98484
293 1 15.7287 9.43321 15.7279 -8.94994
294 1 18.8707 9.43422 15.7251 -8.94949
295 1 22.0138 6.71219e-16 18.8692 -8.94937
296 1 1.57222 1.57224 20.4415 -8.94943
297 1 3.1446 -9.54048e-17 18.8693 -8.94959
298 1 4.7171 1.57222 20.4416 -8.9496
299 1 6.28955 -1.27658e-15 18.8693 -8.94958
300 1 7.86202 1.57217 20.4416 -8.94957
301 1 9.4345 -3.21179e-16 18.8694 -8.94959
302 1 11.007 1.57216 20.4416 -8.94957
303 1 12.5795 -2.45468e-16 18.8694 -8.94958
304 1 14.1519 1.57217 20.4416 -8.94957
305 1 15.7244 1.23223e-16 18.8693 -8.94959
306 1 17.2969 1.57219 20.4416 -8.94962
307 1 18.8693 7.0718e-17 18.8692 -8.94945
308 1 20.4416 1.5723 20.4415 -8.94936
309 1 -2.46744e-05 3.14467 18.8692 -8.94962
310 1 1.57227 4.71716 20.4415 -8.9497
311 1 3.14431 3.14436 18.8696 -8.94939
312 1 4.71672 4.71678 20.4417 -8.94991
313 1 6.28938 3.14428 18.8696 -8.94958
314 1 7.86178 4.71657 20.4417 -8.94954
315 1 9.43443 3.14416 18.8696 -8.94953
316 1 11.0069 4.71651 20.4417 -8.94954
317 1 12.5795 3.14415 18.8696 -8.94951
318 1 14.1521 4.71651 20.4417 -8.94972
319 1 15.7247 3.14412 18.8696 -8.94964
320 1 17.2974 4.7165 20.4417 -8.94929
321 1 18.8695 3.14439 18.8693 -8.94921
322 1 20.4417 4.71708 20.4415 -8.9496
323 1 22.0139 6.28956 18.8693 -8.94958
324 1 1.57221 7.86203 20.4416 -8.94956
325 1 3.14439 6.28957 18.8695 -8.94972
326 1 4.71677 7.86207 20.4417 -8.9496
327 1 6.28871 6.28887 18.8706 -8.95035
328 1 7.86135 7.86154 20.4423 -8.95013
329 1 9.43403 6.28845 18.8705 -8.94951
330 1 11.0066 7.86135 20.4423 -8.94997
331 1 12.5796 6.28845 18.8706 -8.95
332 1 14.1529 7.861 20.4425 -8.95049
333 1 15.7258 6.28807 18.8708 -8.94904
334 1 17.2975 7.86171 20.4416 -8.94945
335 1 18.8698 6.28928 18.8695 -8.94961
49 1 18.8697 9.43441 22.0136 -8.94952
5 1 6.28959 -4.02378e-16 22.0138 -8.94956
9 1 12.5794 -1.32791e-16 22.0138 -8.94957
15 1 22.0139 3.14469 22.0138 -8.94961
17 1 3.1444 3.14442 22.0136 -8.94948
21 1 9.43445 3.1443 22.0136 -8.94953
23 1 12.5795 3.1443 22.0136 -8.9495
27 1 18.8695 3.1444 22.0137 -8.94914
29 1 3.78125e-05 6.28959 22.0138 -8.94954
33 1 6.28904 6.28917 22.0133 -8.95056
39 1 15.7253 6.28854 22.0132 -8.94992
46 1 9.43406 9.43439 22.0142 -8.94941
47 1 12.5798 9.43415 22.0132 -8.95186
1 1 -0.000115499 6.58659e-16 22.0138 -8.94934
13 1 18.8693 9.48619e-17 22.0138 -8.94944
44 1 3.14444 9.4345 22.0137 -8.94955
181 1 17.2971 1.57206 11.0069 -8.94954
344 1 1.57215 11.007 1.57201 -8.94958
345 1 4.71662 11.007 1.57172 -8.94965
346 1 7.86182 11.007 1.57252 -8.94818
347 1 11.0069 11.007 1.57213 -8.94692
348 1 14.1542 11.007 1.56887 -8.94947
349 1 17.2981 11.007 1.57122 -8.94943
350 1 20.4419 11.007 1.572 -8.94953
351 1 22.0139 12.5794 -0.00014233 -8.94958
352 1 1.57219 14.1518 1.57207 -8.94943
537 1 14.1524 20.4421 11.0068 -8.94939
354 1 4.71678 14.1516 1.5718 -8.94966
355 1 6.28918 12.5793 -0.000101364 -8.94939
356 1 7.86159 14.1521 1.57055 -8.95251
688 3 10.1529 11.007 9.40374 2.34441
358 1 11.0066 14.1529 1.56996 -8.95061
511 1 18.8694 18.8696 9.4345 -8.94957
360 1 14.1536 14.1536 1.56902 -8.95171
361 1 15.7255 12.5798 -0.000882037 -8.94927
362 1 17.2981 14.1525 1.57125 -8.94917
510 1 15.7251 18.8701 9.43445 -8.94961
364 1 20.4419 14.152 1.57203 -8.94947
509 1 12.5801 18.8705 9.43406 -8.94876
366 1 1.5721 17.2969 1.57202 -8.94983
367 1 3.14453 15.7243 -0.00017282 -8.94973
368 1 4.71615 17.2977 1.57093 -8.9495
508 1 9.43438 18.8707 9.43426 -8.94638
370 1 7.86171 17.2976 1.57122 -8.94912
371 1 9.43413 15.7251 -0.000638982 -8.94957
372 1 11.007 17.2978 1.57127 -8.94935
373 1 12.5795 15.7251 -0.000702961 -8.94965
374 1 14.1524 17.2979 1.57125 -8.94969
507 1 6.28703 18.8733 9.43413 -8.94935
376 1 17.298 17.298 1.57134 -8.94817
377 1 18.8696 15.7246 -0.00025756 -8.94954
378 1 20.4419 17.297 1.5721 -8.94958
506 1 3.14331 18.8704 9.43447 -8.94949
380 1 1.57201 20.4417 1.57205 -8.94919
505 1 22.0135 18.8695 9.43451 -8.94954
382 1 4.71698 20.4418 1.57198 -8.94965
383 1 6.28945 18.8695 -0.000278315 -8.9495
384 1 7.86201 20.4418 1.57198 -8.9495
504 1 18.87 15.7251 9.4345 -8.94955
386 1 11.007 20.4419 1.57198 -8.94954
503 1 15.7266 15.7264 9.43429 -8.9462
388 1 14.152 20.4419 1.57206 -8.94951
389 1 15.7245 18.8696 -0.000252254 -8.94969
390 1 17.2971 20.4419 1.57205 -8.9495
502 1 12.5796 15.7263 9.43232 -8.94603
392 1 20.4415 20.4417 1.57229 -8.94956
393 1 1.57173 11.007 4.71642 -8.94949
394 1 4.71565 11.007 4.71543 -8.94618
395 1 7.86457 11.007 4.71986 -8.94589
396 1 11.0124 11.007 4.7207 -9.00164
397 1 14.1628 11.007 4.70681 -8.94155
398 1 17.3011 11.007 4.71496 -8.9491
399 1 20.4425 11.007 4.71665 -8.94992
400 1 7.66534e-05 12.5795 3.14434 -8.94955
401 1 1.57169 14.1517 4.7167 -8.94977
402 1 3.14408 12.5793 3.14398 -8.94897
403 1 4.71497 14.1518 4.71549 -8.95139
404 1 6.28927 12.5785 3.14405 -8.94917
405 1 7.85635 14.1578 4.70692 -8.95497
406 1 9.43507 12.5793 3.14368 -8.95112
407 1 11.0075 14.1568 4.7081 -8.95166
408 1 12.5824 12.5808 3.13651 -8.95978
409 1 14.1651 14.1641 4.70405 -8.93014
410 1 15.728 12.5807 3.1412 -8.94745
411 1 17.3009 14.1538 4.71525 -8.95079
412 1 18.8706 12.5797 3.14388 -8.94929
413 1 20.4423 14.1521 4.71681 -8.95014
414 1 22.0139 15.7244 3.14446 -8.94981
415 1 1.57095 17.2975 4.7163 -8.94967
416 1 3.14382 15.7245 3.14384 -8.95033
417 1 4.713 17.3007 4.71302 -8.94423
418 1 6.28694 15.7267 3.14042 -8.9503
419 1 7.8609 17.3001 4.71452 -8.94885
420 1 9.43388 15.7266 3.14163 -8.94773
421 1 11.0074 17.2999 4.71473 -8.94771
422 1 12.5805 15.7269 3.1413 -8.94929
423 1 14.1547 17.3014 4.71437 -8.94979
424 1 15.7285 15.7284 3.14077 -8.94455
425 1 17.2979 17.2979 4.71675 -8.94998
426 1 18.8705 15.7251 3.14398 -8.94968
427 1 20.4415 17.297 4.71702 -8.94986
428 1 22.0135 18.8694 3.14449 -8.94955
429 1 1.57189 20.4418 4.71692 -8.94949
430 1 3.14355 18.8702 3.14356 -8.94815
431 1 4.71637 20.4425 4.7163 -8.95002
432 1 6.2891 18.8703 3.14366 -8.94961
433 1 7.86199 20.4425 4.71646 -8.9496
434 1 9.43447 18.8703 3.14376 -8.94938
435 1 11.0072 20.4424 4.7165 -8.94957
436 1 12.5797 18.8704 3.14388 -8.94914
437 1 14.1523 20.4424 4.71682 -8.95062
438 1 15.7253 18.8707 3.14379 -8.94943
439 1 17.297 20.4418 4.71717 -8.94966
440 1 18.8694 18.8695 3.14459 -8.94972
441 1 20.4415 20.4416 4.71716 -8.94954
442 1 1.57175 11.007 7.86167 -8.94774
443 1 4.7189 11.007 7.86231 -8.94065
444 1 7.88183 11.007 7.87087 -8.87561
445 1 11.0945 11.007 7.63751 -8.15457
446 1 14.1621 11.007 7.85374 -8.97172
447 1 17.2997 11.007 7.86234 -8.95149
448 1 20.4421 11.007 7.86215 -8.94963
449 1 22.0138 12.5793 6.28932 -8.94989
450 1 1.56984 14.1521 7.86174 -8.95187
451 1 3.14317 12.5787 6.28891 -8.94967
452 1 4.70635 14.1557 7.85918 -8.95839
453 1 6.2861 12.5769 6.28834 -8.95154
454 1 7.81877 14.1908 7.8256 -8.84653
455 1 9.42172 12.6014 6.28394 -8.90963
456 1 11.0227 14.1634 7.83495 -8.89814
457 1 12.621 12.6134 6.2504 -8.85841
458 1 14.1585 14.1558 7.86119 -8.94925
459 1 15.7349 12.582 6.28572 -8.95747
460 1 17.2987 14.1524 7.86279 -8.95083
461 1 18.8716 12.5797 6.2893 -8.95163
462 1 20.4416 14.1521 7.86215 -8.95008
463 1 22.013 15.7247 6.2893 -8.95025
464 1 1.57082 17.2976 7.86171 -8.94934
465 1 3.14048 15.7263 6.28752 -8.9509
466 1 4.71322 17.3005 7.86043 -8.94724
467 1 6.27609 15.7373 6.27683 -8.92863
468 1 7.8589 17.3053 7.86029 -8.95959
469 1 9.43345 15.7333 6.28395 -8.94942
470 1 11.0064 17.2994 7.86138 -8.9523
471 1 12.5861 15.7355 6.2821 -8.95259
472 1 14.1531 17.2988 7.86203 -8.94874
473 1 15.7275 15.7268 6.28871 -8.95037
474 1 17.2977 17.2977 7.86202 -8.94897
475 1 18.87 15.7248 6.28966 -8.95003
476 1 20.4415 17.2972 7.86198 -8.94956
477 1 -0.000433863 18.8695 6.28946 -8.94948
478 1 1.57183 20.4419 7.86196 -8.94954
479 1 3.1434 18.8704 6.28887 -8.94913
480 1 4.71607 20.4427 7.86157 -8.94931
481 1 6.28791 18.8728 6.28791 -8.95167
482 1 7.86189 20.4432 7.86181 -8.95141
483 1 9.43469 18.872 6.28841 -8.95037
484 1 11.0071 20.4423 7.86199 -8.94955
485 1 12.5799 18.8716 6.28914 -8.95247
486 1 14.1524 20.4422 7.86198 -8.94947
487 1 15.7249 18.8701 6.28961 -8.94952
488 1 17.2971 20.4418 7.86204 -8.94955
489 1 18.8694 18.8695 6.2896 -8.94944
490 1 20.4415 20.4417 7.86205 -8.94958
491 1 22.0132 12.5793 9.43452 -8.94954
492 1 3.14187 12.579 9.43437 -8.95117
493 1 6.28064 12.588 9.43338 -8.97109
494 1 9.3555 12.8305 9.43184 -8.13552
495 1 12.5653 12.5821 9.42073 -8.93352
496 1 15.7225 12.5785 9.43513 -8.94443
497 1 18.8695 12.5795 9.43471 -8.94803
498 1 -0.00100254 15.7248 9.43451 -8.95001
499 1 3.14025 15.7265 9.43444 -8.94924
500 1 6.27805 15.7354 9.43355 -8.94089
501 1 9.42922 15.723 9.43399 -9.00715
526 1 1.57082 17.2976 11.0073 -8.9493
527 1 4.71326 17.3004 11.0082 -8.94769
530 1 14.1529 17.2983 11.0062 -8.94903
531 1 17.2977 17.2977 11.0069 -8.94897
532 1 20.4415 17.2972 11.007 -8.94955
534 1 4.71608 20.4427 11.0073 -8.94933
517 1 17.2973 11.007 11.0066 -8.94689
518 1 20.4418 11.007 11.0069 -8.94886
512 1 1.57174 11.007 11.0073 -8.94766
513 1 4.71915 11.007 11.0061 -8.94153
514 1 7.88051 11.007 10.9903 -8.90521
515 1 11.1516 11.007 11.1321 -8.48161
516 1 14.1471 11.007 11.0145 -9.02452
391 1 18.8695 18.8695 22.0137 -8.94914
387 1 12.5795 18.8696 22.0136 -8.9495
519 1 1.56987 14.1521 11.0072 -8.95192
520 1 4.70643 14.1555 11.0095 -8.95942
521 1 7.81743 14.1925 11.0389 -8.87907
522 1 11.0291 14.1668 11.0256 -8.94917
523 1 14.157 14.1541 11.0043 -8.95451
524 1 17.2986 14.1526 11.0064 -8.95021
525 1 20.4416 14.1521 11.0069 -8.95004
687 2 10.1597 11.007 12.638 0.852129
686 1 20.4416 20.4416 20.4415 -8.94936
528 1 7.85818 17.3067 11.0075 -8.95822
529 1 11.0075 17.3011 11.0061 -8.95148
685 1 18.8695 18.8695 18.8693 -8.94921
684 1 17.2969 20.4417 20.4416 -8.94962
683 1 15.7247 18.8698 18.8696 -8.94964
533 1 1.57182 20.4419 11.0071 -8.94952
682 1 14.1519 20.4417 20.4416 -8.94957
535 1 7.86171 20.4436 11.0069 -8.95159
536 1 11.0073 20.4427 11.0066 -8.94979
681 1 12.5795 18.8697 18.8696 -8.94951
680 1 11.007 20.4417 20.4416 -8.94957
539 1 20.4415 20.4417 11.007 -8.94958
540 1 1.57166 11.007 14.1525 -8.94942
541 1 4.71581 11.007 14.1534 -8.94582
542 1 7.86607 11.007 14.1489 -8.97705
543 1 11.0377 11.007 14.2241 -9.25819
544 1 14.1595 11.007 14.1618 -8.99137
545 1 17.3006 11.007 14.1539 -8.9481
546 1 20.4424 11.007 14.1523 -8.94983
547 1 -0.000182652 12.5793 12.5796 -8.94975
548 1 1.57159 14.1517 14.1523 -8.94988
549 1 3.14333 12.5786 12.58 -8.9492
550 1 4.71462 14.1518 14.1533 -8.95279
551 1 6.28764 12.5761 12.5798 -9.00288
552 1 7.85312 14.1618 14.1652 -8.99256
553 1 9.41391 12.6481 12.5778 -9.19485
554 1 11.0102 14.1587 14.1629 -9.00073
555 1 12.6214 12.6158 12.6188 -8.90756
556 1 14.1661 14.1651 14.1648 -8.92865
557 1 15.7333 12.5809 12.5825 -8.96078
558 1 17.301 14.1537 14.1535 -8.95157
559 1 18.8712 12.5795 12.5795 -8.95176
560 1 20.4423 14.1521 14.1521 -8.95028
561 1 22.0131 15.7247 12.5797 -8.95022
562 1 1.5709 17.2976 14.1527 -8.94966
563 1 3.14046 15.7263 12.5814 -8.95076
564 1 4.71284 17.3008 14.1559 -8.94443
565 1 6.27638 15.7375 12.5916 -8.92852
566 1 7.86006 17.3019 14.1551 -8.9485
567 1 9.43424 15.7427 12.5838 -8.9633
568 1 11.0083 17.3015 14.1549 -8.94608
569 1 12.5863 15.7365 12.5864 -8.95259
570 1 14.1552 17.3019 14.1546 -8.94988
571 1 15.7271 15.7263 12.5794 -8.95071
572 1 17.2979 17.2978 14.1521 -8.95025
573 1 18.87 15.7248 12.5793 -8.94974
574 1 20.4415 17.2971 14.152 -8.9498
575 1 -0.000433268 18.8695 12.5796 -8.94947
576 1 1.57187 20.4418 14.1521 -8.94953
577 1 3.14339 18.8704 12.5801 -8.94921
578 1 4.71624 20.4426 14.1527 -8.94993
579 1 6.28772 18.8731 12.581 -8.95129
580 1 7.86177 20.4429 14.1527 -8.94982
581 1 9.43472 18.8738 12.5804 -8.95299
582 1 11.0074 20.4428 14.1527 -8.94967
583 1 12.5801 18.872 12.5797 -8.95237
584 1 14.1525 20.4426 14.1522 -8.95064
585 1 15.7249 18.87 12.5792 -8.94949
586 1 17.297 20.4418 14.1518 -8.94967
587 1 18.8694 18.8695 12.5794 -8.94943
588 1 20.4415 20.4417 14.1519 -8.94954
589 1 1.57199 11.007 17.2972 -8.94959
590 1 4.71621 11.007 17.2978 -8.9491
591 1 7.86184 11.007 17.2977 -8.948
592 1 11.0071 11.007 17.312 -8.96806
593 1 14.1547 11.007 17.3019 -8.94874
594 1 17.2984 11.007 17.2981 -8.94926
595 1 20.442 11.007 17.2971 -8.94957
596 1 22.0139 12.5795 15.7247 -8.94963
597 1 1.57204 14.1519 17.2971 -8.9495
598 1 3.14379 12.5793 15.7251 -8.94923
599 1 4.71631 14.1518 17.2976 -8.94975
600 1 6.28835 12.5785 15.7255 -8.94999
601 1 7.86038 14.1534 17.3005 -8.95205
602 1 9.43147 12.5833 15.7289 -8.99955
603 1 11.0063 14.1535 17.301 -8.95053
604 1 12.5889 12.5884 15.741 -8.98484
605 1 14.1559 14.1558 17.3026 -8.94805
606 1 15.7287 12.5807 15.7279 -8.94994
607 1 17.2985 14.1527 17.298 -8.94973
608 1 18.8707 12.5797 15.7251 -8.94949
609 1 20.442 14.152 17.2971 -8.94958
610 1 -2.02805e-05 15.7244 15.7246 -8.9499
611 1 1.572 17.2969 17.2971 -8.94989
612 1 3.14353 15.7246 15.7253 -8.9506
613 1 4.71578 17.298 17.2986 -8.94905
614 1 6.28575 15.7279 15.7297 -8.94838
615 1 7.86155 17.298 17.2982 -8.94948
616 1 9.434 15.7279 15.7277 -8.94865
617 1 11.007 17.2982 17.2983 -8.94922
618 1 12.5814 15.7288 15.7288 -8.95086
619 1 14.1529 17.2986 17.2983 -8.94985
620 1 15.7289 15.7287 15.7284 -8.9441
621 1 17.2981 17.2981 17.2979 -8.94817
622 1 18.8706 15.7252 15.725 -8.94979
623 1 20.4419 17.297 17.297 -8.9496
624 1 22.0135 18.8694 15.7246 -8.94955
625 1 1.57198 20.4417 17.297 -8.94922
626 1 3.14344 18.8702 15.7255 -8.94824
627 1 4.7168 20.4419 17.2973 -8.94958
628 1 6.28868 18.8708 15.7257 -8.94947
629 1 7.86195 20.442 17.2973 -8.94951
630 1 9.43447 18.8708 15.7255 -8.94933
631 1 11.007 20.442 17.2973 -8.94952
632 1 12.5801 18.871 15.7255 -8.94921
633 1 14.1522 20.442 17.2972 -8.94954
634 1 15.7255 18.8709 15.7253 -8.94938
635 1 17.2971 20.442 17.2971 -8.94947
636 1 18.8695 18.8696 15.7244 -8.94981
637 1 20.4415 20.4417 17.2968 -8.94961
638 1 1.57219 11.007 20.4416 -8.9496
639 1 4.71668 11.007 20.4417 -8.94965
640 1 7.86146 11.007 20.4422 -8.94883
641 1 11.0066 11.007 20.4446 -8.95232
642 1 14.1529 11.007 20.4424 -8.94986
643 1 17.2975 11.007 20.4416 -8.94947
644 1 20.4418 11.007 20.4415 -8.94958
645 1 -1.23578e-06 12.5794 18.8693 -8.94959
646 1 1.57221 14.1519 20.4416 -8.94956
647 1 3.14429 12.5794 18.8695 -8.94952
648 1 4.71677 14.1518 20.4417 -8.9496
649 1 6.28889 12.5793 18.8699 -8.94969
650 1 7.86135 14.1524 20.4423 -8.95013
651 1 9.43309 12.5805 18.8721 -8.94751
652 1 11.0066 14.1525 20.4423 -8.94997
653 1 12.5809 12.5809 18.8741 -8.95127
654 1 14.1529 14.1529 20.4425 -8.95049
655 1 15.7258 12.5799 18.8706 -8.94937
656 1 17.2975 14.1522 20.4416 -8.94945
657 1 18.8698 12.5795 18.8695 -8.94951
658 1 20.4417 14.1519 20.4415 -8.94957
659 1 22.0139 15.7243 18.8693 -8.94958
660 1 1.57227 17.2967 20.4415 -8.9497
661 1 3.14439 15.7243 18.8695 -8.94972
662 1 4.71672 17.2971 20.4417 -8.94991
663 1 6.28871 15.725 18.8706 -8.95035
664 1 7.86178 17.2973 20.4417 -8.94954
665 1 9.43403 15.7254 18.8705 -8.94951
666 1 11.0069 17.2974 20.4417 -8.94954
667 1 12.5796 15.7254 18.8706 -8.95
668 1 14.1521 17.2974 20.4417 -8.94972
669 1 15.7258 15.7258 18.8708 -8.94904
670 1 17.2974 17.2974 20.4417 -8.94929
671 1 18.8698 15.7246 18.8695 -8.94961
672 1 20.4417 17.2968 20.4415 -8.9496
673 1 -2.46744e-05 18.8692 18.8692 -8.94962
674 1 1.57222 20.4417 20.4415 -8.94943
675 1 3.14431 18.8695 18.8696 -8.94939
676 1 4.7171 20.4417 20.4416 -8.9496
677 1 6.28938 18.8696 18.8696 -8.94958
678 1 7.86202 20.4417 20.4416 -8.94957
679 1 9.43443 18.8697 18.8696 -8.94953
357 1 9.43406 12.5795 22.0142 -8.94941
359 1 12.5798 12.5797 22.0132 -8.95186
363 1 18.8697 12.5795 22.0136 -8.94952
365 1 3.78125e-05 15.7243 22.0138 -8.94954
369 1 6.28904 15.7247 22.0133 -8.95056
375 1 15.7253 15.7254 22.0132 -8.94992
379 1 22.0139 18.8692 22.0138 -8.94961
381 1 3.1444 18.8695 22.0136 -8.94948
385 1 9.43445 18.8696 22.0136 -8.94953
353 1 3.14444 12.5794 22.0137 -8.94955
538 1 17.2971 20.4418 11.0069 -8.94954
