ITEM: TIMESTEP
111
ITEM: NUMBER OF ATOMS
688
ITEM: BOX BOUNDS pp pp pp
0.0000000000000000e+00 2.2013900999999997e+01
0.0000000000000000e+00 2.2013900999999997e+01
0.0000000000000000e+00 2.2013900999999997e+01
ITEM: ATOMS id type x y z c_pot
189 1 20.4413 4.71647 11.0071 -8.94957
2 1 1.57166 1.57199 1.57172 -8.94907
175 1 18.8691 9.43447 9.43477 -8.94785
4 1 4.71655 1.57185 1.57157 -8.94958
174 1 15.7214 9.43547 9.43502 -8.94376
6 1 7.86181 1.57182 1.57162 -8.94943
7 1 9.43445 1.60491e-16 -0.000279942 -8.94952
8 1 11.0071 1.57179 1.57168 -8.94947
173 1 12.5627 9.43176 9.42121 -8.93678
10 1 14.1523 1.57174 1.57177 -8.94948
11 1 15.7246 -3.13247e-16 -0.000219993 -8.94955
12 1 17.2975 1.57169 1.5718 -8.94944
188 1 17.2979 4.71603 11.007 -8.94896
14 1 20.4416 1.57206 1.57209 -8.94947
172 1 9.35671 9.17653 9.43111 -8.1327
16 1 1.57186 4.71682 1.57169 -8.94986
171 1 6.28187 9.42498 9.43336 -8.97112
18 1 4.71562 4.71584 1.57042 -8.94952
19 1 6.28912 3.14407 -0.000481383 -8.94947
20 1 7.86134 4.71578 1.57075 -8.9491
170 1 3.1423 9.43473 9.43443 -8.95098
22 1 11.007 4.71559 1.5708 -8.94933
169 1 22.0132 9.43466 9.43458 -8.94935
24 1 14.153 4.71531 1.57069 -8.94969
25 1 15.725 3.14379 -0.000425732 -8.94964
26 1 17.2987 4.71528 1.57095 -8.94814
168 1 18.8699 6.28874 9.43454 -8.94965
28 1 20.4422 4.71659 1.57185 -8.94954
167 1 15.7268 6.28729 9.43416 -8.94631
30 1 1.57217 7.862 1.57186 -8.94939
31 1 3.14434 6.28957 -0.000331169 -8.94976
32 1 4.71657 7.86225 1.57162 -8.94966
166 1 12.5802 6.28665 9.43173 -8.94514
34 1 7.86146 7.86154 1.57045 -8.95265
35 1 9.43398 6.28847 -0.000735115 -8.94965
36 1 11.0069 7.86061 1.5697 -8.95084
37 1 12.5797 6.28831 -0.000874544 -8.94977
38 1 14.1544 7.85986 1.5685 -8.95172
165 1 9.42892 6.28923 9.43351 -9.00815
40 1 17.299 7.8609 1.57076 -8.94907
41 1 18.8702 6.28893 -0.000426172 -8.94943
42 1 20.4424 7.86169 1.57176 -8.94941
43 1 22.0141 9.43443 -0.000267416 -8.94953
187 1 14.1532 4.71524 11.0063 -8.94886
45 1 6.2891 9.43465 -1.99639e-05 -8.94933
164 1 6.27688 6.27711 9.43342 -8.9406
163 1 3.13933 6.28668 9.43444 -8.94923
48 1 15.7263 9.43385 -0.0010806 -8.94926
162 1 -0.00141978 6.28887 9.43453 -8.95009
50 1 -0.000446663 2.8169e-16 3.14443 -8.94947
51 1 1.57137 1.57187 4.71652 -8.9494
52 1 3.14377 6.31914e-16 3.14379 -8.94949
53 1 4.71573 1.57097 4.71573 -8.95002
54 1 6.28914 1.44263e-15 3.14381 -8.94954
55 1 7.86167 1.57106 4.71597 -8.94965
56 1 9.43453 7.21427e-16 3.14388 -8.94952
57 1 11.0073 1.57116 4.7161 -8.94961
58 1 12.5798 3.27671e-16 3.14402 -8.9495
59 1 14.1526 1.5711 4.71651 -8.95073
60 1 15.725 5.31517e-16 3.14422 -8.95006
61 1 17.2973 1.57184 4.71698 -8.94965
62 1 18.8694 -1.64252e-16 3.14458 -8.94964
63 1 20.4414 1.57208 4.71699 -8.94948
64 1 22.0133 3.14421 3.14417 -8.94953
65 1 1.57036 4.716 4.71587 -8.94973
66 1 3.14289 3.14324 3.14296 -8.94805
67 1 4.71192 4.71235 4.71217 -8.94402
68 1 6.28851 3.14304 3.143 -8.94953
69 1 7.86014 4.7128 4.71363 -8.94869
70 1 9.43432 3.14306 3.14322 -8.94933
71 1 11.0076 4.71312 4.7138 -8.94757
72 1 12.58 3.14296 3.14334 -8.9491
73 1 14.1556 4.71158 4.71342 -8.94951
74 1 15.726 3.14255 3.1433 -8.94935
75 1 17.2986 4.71548 4.71636 -8.95006
76 1 18.8698 3.14394 3.14433 -8.94971
77 1 20.4416 4.71655 4.71681 -8.94994
78 1 22.014 6.28929 3.14418 -8.94985
79 1 1.57152 7.86207 4.71651 -8.94985
80 1 3.14335 6.28915 3.1434 -8.95039
81 1 4.71448 7.86176 4.71517 -8.95143
82 1 6.28628 6.28656 3.13974 -8.95034
83 1 7.85598 7.85525 4.70633 -8.9552
84 1 9.43375 6.2865 3.14091 -8.94771
85 1 11.0081 7.85616 4.70702 -8.952
86 1 12.5812 6.28623 3.14031 -8.94937
87 1 14.166 7.84933 4.70318 -8.93069
88 1 15.7295 6.28475 3.14005 -8.94463
89 1 17.3018 7.8597 4.7147 -8.95074
90 1 18.8712 6.28833 3.14362 -8.94967
91 1 20.4427 7.86162 4.7166 -8.9502
92 1 0.000310594 9.43438 3.14409 -8.94953
93 1 3.144 9.43454 3.14384 -8.94892
94 1 6.28925 9.43527 3.14415 -8.94912
95 1 9.43536 9.43433 3.14393 -8.95103
96 1 12.5833 9.43293 3.13609 -8.95971
97 1 15.7292 9.43281 3.14037 -8.9474
98 1 18.8714 9.43399 3.14343 -8.94926
99 1 22.0133 1.67404e-15 6.28938 -8.94949
100 1 1.57123 1.57181 7.86178 -8.94946
101 1 3.14348 1.79334e-15 6.28889 -8.9493
102 1 4.7153 1.57079 7.86129 -8.9493
103 1 6.28876 1.06672e-15 6.28873 -8.95074
104 1 7.86145 1.57033 7.86157 -8.95152
105 1 9.43462 4.35741e-16 6.28888 -8.95029
106 1 11.0071 1.57138 7.8618 -8.94963
107 1 12.5798 -3.45076e-17 6.28932 -8.95047
108 1 14.1526 1.57156 7.86184 -8.94944
109 1 15.7249 -6.79528e-16 6.28947 -8.94953
110 1 17.2973 1.57192 7.86199 -8.94952
111 1 18.8693 -4.2612e-16 6.28953 -8.94951
112 1 20.4413 1.57206 7.86198 -8.94952
113 1 -0.000811663 3.14411 6.28923 -8.94944
114 1 1.57007 4.71581 7.86151 -8.94934
115 1 3.14254 3.14298 6.28839 -8.94906
116 1 4.71198 4.71239 7.86003 -8.9471
117 1 6.28704 3.1403 6.28731 -8.95171
118 1 7.85793 4.7074 7.85973 -8.95965
119 1 9.43438 3.14124 6.28786 -8.95046
120 1 11.0064 4.71356 7.86064 -8.95254
121 1 12.5801 3.14176 6.28864 -8.95256
122 1 14.1536 4.71464 7.86151 -8.94843
123 1 15.7254 3.14335 6.28932 -8.94946
124 1 17.298 4.71597 7.86191 -8.94896
125 1 18.8695 3.14412 6.28948 -8.94941
126 1 20.4413 4.71648 7.86193 -8.9496
127 1 22.0128 6.28905 6.28917 -8.95037
128 1 1.56952 7.86161 7.86173 -8.952
129 1 3.13959 6.2871 6.28711 -8.95102
130 1 4.70574 7.85743 7.85904 -8.95871
131 1 6.27473 6.27523 6.27586 -8.92805
132 1 7.81767 7.82099 7.82429 -8.84437
133 1 9.43303 6.2791 6.2827 -8.94901
134 1 11.0239 7.84813 7.83281 -8.89604
135 1 12.5872 6.27722 6.28047 -8.95166
136 1 14.1587 7.85799 7.86055 -8.95025
137 1 15.7283 6.28665 6.28811 -8.95061
138 1 17.2988 7.86147 7.86268 -8.95095
139 1 18.8703 6.2889 6.28954 -8.95017
140 1 20.4415 7.86183 7.86219 -8.95013
141 1 22.0139 9.43457 6.28928 -8.94992
142 1 3.14321 9.43519 6.28893 -8.94975
143 1 6.28621 9.43667 6.28836 -8.95136
144 1 9.4223 9.41155 6.28404 -8.91092
145 1 12.6207 9.40114 6.25016 -8.86182
146 1 15.7354 9.4318 6.28494 -8.95733
147 1 18.872 9.43419 6.28909 -8.95169
148 1 -0.000594421 1.80022e-15 9.4345 -8.94951
149 1 3.14337 1.20759e-15 9.43445 -8.94943
150 1 6.28824 5.79486e-16 9.43426 -8.95041
151 1 9.43456 1.07802e-15 9.43426 -8.94857
152 1 12.58 2.88618e-16 9.43423 -8.94949
153 1 15.7249 1.77964e-15 9.43444 -8.94962
154 1 18.8693 6.89663e-16 9.4345 -8.94953
155 1 22.013 3.14407 9.4345 -8.94949
156 1 3.14241 3.14295 9.43444 -8.94944
157 1 6.28608 3.13976 9.43405 -8.94935
158 1 9.43402 3.14265 9.43411 -8.94652
159 1 12.5803 3.14306 9.43385 -8.94875
160 1 15.7253 3.1436 9.43439 -8.94956
161 1 18.8694 3.14412 9.4345 -8.94953
177 1 4.71532 1.57082 11.0074 -8.94933
180 1 14.1526 1.57167 11.0068 -8.94934
184 1 4.71213 4.71251 11.0085 -8.94757
183 1 1.5701 4.71582 11.0075 -8.94929
3 1 3.14433 -9.08325e-16 -0.000316759 -8.94956
176 1 1.57123 1.57182 11.0072 -8.94944
343 1 18.8704 9.43424 18.8697 -8.94944
178 1 7.86128 1.56998 11.0069 -8.95169
179 1 11.0073 1.57098 11.0066 -8.94992
342 1 15.7265 9.43377 18.8712 -8.94934
341 1 12.5813 9.43283 18.8748 -8.95138
182 1 20.4413 1.57206 11.007 -8.94952
340 1 9.43318 9.43333 18.8724 -8.94745
339 1 6.28897 9.43467 18.8698 -8.94962
185 1 7.85736 4.70595 11.0077 -8.95823
186 1 11.0076 4.71179 11.0062 -8.95183
338 1 3.14431 9.43451 18.8695 -8.94952
337 1 0.000231668 9.43443 18.8694 -8.94955
336 1 20.4422 7.86181 20.4416 -8.9495
190 1 1.56961 7.86165 11.0073 -8.95204
191 1 4.70602 7.85759 11.0096 -8.95962
192 1 7.81672 7.81922 11.0394 -8.87689
193 1 11.0303 7.84413 11.0263 -8.94601
194 1 14.1569 7.85963 11.0045 -8.95514
195 1 17.2984 7.86143 11.0065 -8.95038
196 1 20.4414 7.86183 11.007 -8.95007
197 1 22.0133 7.18174e-16 12.5796 -8.94949
198 1 1.57135 1.57187 14.1525 -8.94943
199 1 3.14347 1.94776e-16 12.58 -8.94934
200 1 4.7156 1.57093 14.1532 -8.94993
201 1 6.2886 -4.5921e-16 12.5801 -8.95064
202 1 7.86145 1.57059 14.1532 -8.94989
203 1 9.43463 1.06593e-15 12.5799 -8.95112
204 1 11.0076 1.57068 14.153 -8.94973
205 1 12.58 1.71047e-15 12.5795 -8.95044
206 1 14.1528 1.57099 14.1525 -8.95071
207 1 15.7249 1.30177e-15 12.5794 -8.94949
208 1 17.2973 1.57189 14.1519 -8.94966
209 1 18.8693 1.36899e-15 12.5795 -8.9495
210 1 20.4414 1.57209 14.152 -8.94949
211 1 -0.000812012 3.14411 12.5798 -8.94942
212 1 1.57036 4.71602 14.1531 -8.9497
213 1 3.14256 3.143 12.5805 -8.94913
214 1 4.71192 4.71234 14.1567 -8.94429
215 1 6.28693 3.13999 12.5814 -8.95133
216 1 7.85947 4.71087 14.1559 -8.94842
217 1 9.4345 3.13928 12.5808 -8.95325
218 1 11.0086 4.71129 14.1558 -8.94596
219 1 12.5804 3.14134 12.58 -8.95241
220 1 14.156 4.71124 14.1554 -8.94961
221 1 15.7253 3.14355 12.5793 -8.94945
222 1 17.2984 4.7157 14.1524 -8.95034
223 1 18.8695 3.14415 12.5795 -8.9494
224 1 20.4415 4.71658 14.1522 -8.94987
225 1 22.0128 6.28907 12.5799 -8.95031
226 1 1.57153 7.86215 14.1524 -8.94998
227 1 3.13974 6.28712 12.5817 -8.95082
228 1 4.71446 7.86176 14.1535 -8.95294
229 1 6.2754 6.27498 12.5923 -8.92801
230 1 7.85299 7.85058 14.1658 -8.99259
231 1 9.43417 6.26913 12.5846 -8.96331
232 1 11.0111 7.85384 14.1641 -9.0006
233 1 12.5873 6.27634 12.5876 -8.9515
234 1 14.1665 7.84858 14.1655 -8.92962
235 1 15.7276 6.28734 12.5798 -8.95091
236 1 17.3015 7.86 14.1539 -8.95161
237 1 18.8701 6.28894 12.5794 -8.94989
238 1 20.4425 7.86175 14.1523 -8.95034
239 1 -8.50118e-05 9.43465 12.5797 -8.9497
240 1 3.14371 9.43532 12.5799 -8.94936
241 1 6.28823 9.4372 12.5795 -9.00324
242 1 9.41497 9.36249 12.5774 -9.19292
243 1 12.6201 9.3989 12.6181 -8.91228
244 1 15.733 9.43298 12.583 -8.9606
245 1 18.8711 9.43448 12.5797 -8.95174
246 1 -0.000468358 -1.54535e-16 15.7246 -8.9495
247 1 1.5716 1.57199 17.2974 -8.94912
248 1 3.14367 3.78626e-16 15.7253 -8.94948
249 1 4.71635 1.57174 17.2977 -8.9495
250 1 6.2889 -7.5944e-16 15.7254 -8.94959
251 1 7.86173 1.57168 17.2977 -8.94945
252 1 9.43453 -1.55466e-15 15.7253 -8.94953
253 1 11.0071 1.57162 17.2977 -8.94947
254 1 12.58 -2.10859e-16 15.7252 -8.94961
255 1 14.1525 1.57153 17.2976 -8.94952
256 1 15.7251 4.04594e-16 15.7249 -8.95006
257 1 17.2976 1.57167 17.2974 -8.94942
258 1 18.8694 -8.69414e-16 15.7244 -8.94967
259 1 20.4416 1.57207 17.297 -8.94955
260 1 22.0133 3.14422 15.7249 -8.94954
261 1 1.57176 4.71681 17.2975 -8.94993
262 1 3.1428 3.14324 15.7261 -8.94816
263 1 4.71526 4.71555 17.2991 -8.94903
264 1 6.2881 3.14251 15.7264 -8.9494
265 1 7.86119 4.71532 17.2988 -8.94947
266 1 9.43437 3.14246 15.726 -8.9493
267 1 11.0071 4.71504 17.299 -8.94918
268 1 12.5805 3.14224 15.7261 -8.9492
269 1 14.1535 4.71454 17.2991 -8.94981
270 1 15.7262 3.14241 15.7258 -8.94932
271 1 17.2988 4.71525 17.2983 -8.94819
272 1 18.8698 3.14401 15.7247 -8.94983
273 1 20.4421 4.71659 17.2972 -8.94961
274 1 -6.89802e-06 6.28934 15.7248 -8.94998
275 1 1.57212 7.86203 17.2972 -8.94949
276 1 3.14315 6.28913 15.7257 -8.9507
277 1 4.71635 7.86222 17.2977 -8.94993
278 1 6.28521 6.28536 15.7304 -8.9482
279 1 7.86043 7.86025 17.3007 -8.95227
280 1 9.43404 6.28501 15.7285 -8.94854
281 1 11.0066 7.85987 17.3019 -8.95066
282 1 12.5822 6.28416 15.73 -8.95082
283 1 14.1567 7.85756 17.3036 -8.94796
284 1 15.7298 6.28456 15.7291 -8.94427
285 1 17.2993 7.86081 17.2985 -8.9497
286 1 18.8712 6.2884 15.7253 -8.94985
287 1 20.4424 7.86172 17.2973 -8.94955
288 1 22.0142 9.43443 15.7249 -8.94959
289 1 3.14408 9.43466 15.7251 -8.94914
290 1 6.28918 9.43553 15.725 -8.95035
291 1 9.43225 9.43012 15.7287 -9.00007
292 1 12.5897 9.42506 15.7419 -8.98458
293 1 15.7295 9.43295 15.7288 -8.95003
294 1 18.8713 9.43409 15.7255 -8.94949
295 1 22.0137 -1.22656e-15 18.8693 -8.94921
296 1 1.57199 1.57211 20.4416 -8.94932
297 1 3.14425 -1.96414e-16 18.8696 -8.9495
298 1 4.71679 1.57206 20.4416 -8.94955
299 1 6.28928 -1.71489e-15 18.8696 -8.94951
300 1 7.86184 1.57198 20.4416 -8.94951
301 1 9.43444 -1.1664e-15 18.8696 -8.94952
302 1 11.007 1.57194 20.4417 -8.94951
303 1 12.5796 -7.4227e-16 18.8696 -8.94952
304 1 14.1521 1.57192 20.4417 -8.94951
305 1 15.7248 -2.54769e-16 18.8695 -8.94954
306 1 17.2972 1.57193 20.4416 -8.94954
307 1 18.8695 4.58692e-16 18.8694 -8.94933
308 1 20.4418 1.57214 20.4415 -8.94921
309 1 -4.5383e-05 3.14448 18.8694 -8.94958
310 1 1.57217 4.71704 20.4416 -8.94973
311 1 3.14395 3.14413 18.8699 -8.94936
312 1 4.71637 4.71657 20.4418 -8.95
313 1 6.28902 3.14397 18.8699 -8.94955
314 1 7.86149 4.71623 20.4418 -8.94956
315 1 9.4343 3.14377 18.8699 -8.94947
316 1 11.0069 4.71606 20.4419 -8.94954
317 1 12.5797 3.1437 18.87 -8.94945
318 1 14.1525 4.71594 20.4418 -8.94974
319 1 15.7252 3.1436 18.8699 -8.94959
320 1 17.298 4.71597 20.4418 -8.94923
321 1 18.8699 3.14404 18.8695 -8.94914
322 1 20.442 4.71681 20.4416 -8.94952
323 1 22.0141 6.28943 18.8694 -8.94955
324 1 1.57224 7.862 20.4416 -8.94952
325 1 3.14425 6.28955 18.8696 -8.94983
326 1 4.71664 7.86212 20.4417 -8.94962
327 1 6.28842 6.2887 18.8709 -8.9505
328 1 7.8612 7.86147 20.4425 -8.95021
329 1 9.43388 6.28806 18.8709 -8.94955
330 1 11.0066 7.86112 20.4427 -8.95007
331 1 12.5799 6.28792 18.8712 -8.9501
332 1 14.1534 7.8606 20.4428 -8.95055
333 1 15.7266 6.28744 18.8713 -8.94899
334 1 17.2982 7.86131 20.4417 -8.94938
335 1 18.8703 6.28889 18.8697 -8.94954
49 1 18.8703 9.43423 22.0134 -8.94943
5 1 6.28935 -2.9705e-16 22.0136 -8.94949
9 1 12.5796 -1.03773e-15 22.0137 -8.94951
15 1 22.0139 3.14448 22.0136 -8.94955
17 1 3.14404 3.14417 22.0133 -8.94945
21 1 9.43433 3.14394 22.0135 -8.94948
23 1 12.5796 3.14387 22.0135 -8.94944
27 1 18.8699 3.14403 22.0136 -8.94904
29 1 0.000193794 6.28943 22.0137 -8.9495
33 1 6.28873 6.28899 22.0132 -8.95068
39 1 15.726 6.28796 22.0129 -8.94991
46 1 9.43408 9.43436 22.0146 -8.94934
47 1 12.5801 9.43401 22.0134 -8.95195
1 1 -0.000222417 1.30589e-16 22.0137 -8.94916
13 1 18.8695 1.26053e-15 22.0137 -8.94931
44 1 3.14437 9.43451 22.0136 -8.94952
181 1 17.2973 1.57194 11.0069 -8.94949
344 1 1.57221 11.007 1.57184 -8.94954
345 1 4.71657 11.007 1.57173 -8.94959
346 1 7.86192 11.007 1.57294 -8.94802
347 1 11.0073 11.007 1.57247 -8.94682
348 1 14.1551 11.007 1.56843 -8.94952
349 1 17.2991 11.007 1.57071 -8.94936
350 1 20.4424 11.007 1.57172 -8.94947
351 1 22.0141 12.5795 -0.000267416 -8.94953
352 1 1.57217 14.1519 1.57186 -8.94939
537 1 14.1526 20.4422 11.0068 -8.94934
354 1 4.71657 14.1516 1.57162 -8.94966
355 1 6.2891 12.5793 -1.99639e-05 -8.94933
356 1 7.86146 14.1524 1.57045 -8.95265
688 3 10.1382 11.007 9.40088 2.34554
358 1 11.0069 14.1533 1.5697 -8.95084
511 1 18.8694 18.8698 9.4345 -8.94953
360 1 14.1544 14.154 1.5685 -8.95172
361 1 15.7263 12.5801 -0.0010806 -8.94926
362 1 17.299 14.153 1.57076 -8.94907
510 1 15.7253 18.8703 9.43439 -8.94956
364 1 20.4424 14.1522 1.57176 -8.94941
509 1 12.5803 18.8708 9.43385 -8.94875
366 1 1.57186 17.2971 1.57169 -8.94986
367 1 3.14434 15.7243 -0.000331169 -8.94976
368 1 4.71562 17.2981 1.57042 -8.94952
508 1 9.43402 18.8712 9.43411 -8.94652
370 1 7.86134 17.2981 1.57075 -8.9491
371 1 9.43398 15.7254 -0.000735115 -8.94965
372 1 11.007 17.2983 1.5708 -8.94933
373 1 12.5797 15.7256 -0.000874544 -8.94977
374 1 14.153 17.2986 1.57069 -8.94969
507 1 6.28608 18.8741 9.43405 -8.94935
376 1 17.2987 17.2986 1.57095 -8.94814
377 1 18.8702 15.725 -0.000426172 -8.94943
378 1 20.4422 17.2973 1.57185 -8.94954
506 1 3.14241 18.871 9.43444 -8.94944
380 1 1.57166 20.4419 1.57172 -8.94907
505 1 22.013 18.8698 9.4345 -8.94949
382 1 4.71655 20.4421 1.57157 -8.94958
383 1 6.28912 18.8698 -0.000481383 -8.94947
384 1 7.86181 20.4421 1.57162 -8.94943
504 1 18.8699 15.7252 9.43454 -8.94965
386 1 11.0071 20.4421 1.57168 -8.94947
503 1 15.7268 15.7266 9.43416 -8.94631
388 1 14.1523 20.4422 1.57177 -8.94948
389 1 15.725 18.8701 -0.000425732 -8.94964
390 1 17.2975 20.4422 1.5718 -8.94944
502 1 12.5802 15.7273 9.43173 -8.94514
392 1 20.4416 20.4418 1.57209 -8.94947
393 1 1.57182 11.007 4.7163 -8.9495
394 1 4.71571 11.007 4.71548 -8.94601
395 1 7.86495 11.007 4.72045 -8.94582
396 1 11.0128 11.007 4.72092 -9.00012
397 1 14.1639 11.007 4.70591 -8.94152
398 1 17.3021 11.007 4.71428 -8.94908
399 1 20.443 11.007 4.7164 -8.94996
400 1 0.000310594 12.5795 3.14409 -8.94953
401 1 1.57152 14.1518 4.71651 -8.94985
402 1 3.144 12.5794 3.14384 -8.94892
403 1 4.71448 14.1521 4.71517 -8.95143
404 1 6.28925 12.5786 3.14415 -8.94912
405 1 7.85598 14.1587 4.70633 -8.9552
406 1 9.43536 12.5796 3.14393 -8.95103
407 1 11.0081 14.1577 4.70702 -8.952
408 1 12.5833 12.581 3.13609 -8.95971
409 1 14.166 14.1646 4.70318 -8.93069
410 1 15.7292 12.5811 3.14037 -8.9474
411 1 17.3018 14.1542 4.7147 -8.95074
412 1 18.8714 12.5799 3.14343 -8.94926
413 1 20.4427 14.1523 4.7166 -8.9502
414 1 22.014 15.7246 3.14418 -8.94985
415 1 1.57036 17.2979 4.71587 -8.94973
416 1 3.14335 15.7248 3.1434 -8.95039
417 1 4.71192 17.3016 4.71217 -8.94402
418 1 6.28628 15.7273 3.13974 -8.95034
419 1 7.86014 17.3011 4.71363 -8.94869
420 1 9.43375 15.7274 3.14091 -8.94771
421 1 11.0076 17.3008 4.7138 -8.94757
422 1 12.5812 15.7277 3.14031 -8.94937
423 1 14.1556 17.3023 4.71342 -8.94951
424 1 15.7295 15.7291 3.14005 -8.94463
425 1 17.2986 17.2984 4.71636 -8.95006
426 1 18.8712 15.7256 3.14362 -8.94967
427 1 20.4416 17.2974 4.71681 -8.94994
428 1 22.0133 18.8697 3.14417 -8.94953
429 1 1.57137 20.442 4.71652 -8.9494
430 1 3.14289 18.8707 3.14296 -8.94805
431 1 4.71573 20.4429 4.71573 -8.95002
432 1 6.28851 18.8709 3.143 -8.94953
433 1 7.86167 20.4428 4.71597 -8.94965
434 1 9.43432 18.8708 3.14322 -8.94933
435 1 11.0073 20.4427 4.7161 -8.94961
436 1 12.58 18.8709 3.14334 -8.9491
437 1 14.1526 20.4428 4.71651 -8.95073
438 1 15.726 18.8714 3.1433 -8.94935
439 1 17.2973 20.4421 4.71698 -8.94965
440 1 18.8698 18.87 3.14433 -8.94971
441 1 20.4414 20.4418 4.71699 -8.94948
442 1 1.57203 11.007 7.86177 -8.94759
443 1 4.71981 11.007 7.8626 -8.94078
444 1 7.8829 11.007 7.87135 -8.87102
445 1 11.0924 11.007 7.64363 -8.15997
446 1 14.1614 11.007 7.85327 -8.97199
447 1 17.2994 11.007 7.86213 -8.95147
448 1 20.4421 11.007 7.86217 -8.94949
449 1 22.0139 12.5793 6.28928 -8.94992
450 1 1.56952 14.1523 7.86173 -8.952
451 1 3.14321 12.5787 6.28893 -8.94975
452 1 4.70574 14.1565 7.85904 -8.95871
453 1 6.28621 12.5772 6.28836 -8.95136
454 1 7.81767 14.1929 7.82429 -8.84437
455 1 9.4223 12.6024 6.28404 -8.91092
456 1 11.0239 14.1658 7.83281 -8.89604
457 1 12.6207 12.6128 6.25016 -8.86182
458 1 14.1587 14.1559 7.86055 -8.95025
459 1 15.7354 12.5821 6.28494 -8.95733
460 1 17.2988 14.1524 7.86268 -8.95095
461 1 18.872 12.5797 6.28909 -8.95169
462 1 20.4415 14.1521 7.86219 -8.95013
463 1 22.0128 15.7248 6.28917 -8.95037
464 1 1.57007 17.2981 7.86151 -8.94934
465 1 3.13959 15.7268 6.28711 -8.95102
466 1 4.71198 17.3015 7.86003 -8.9471
467 1 6.27473 15.7387 6.27586 -8.92805
468 1 7.85793 17.3065 7.85973 -8.95965
469 1 9.43303 15.7348 6.2827 -8.94901
470 1 11.0064 17.3003 7.86064 -8.95254
471 1 12.5872 15.7367 6.28047 -8.95166
472 1 14.1536 17.2993 7.86151 -8.94843
473 1 15.7283 15.7273 6.28811 -8.95061
474 1 17.298 17.2979 7.86191 -8.94896
475 1 18.8703 15.725 6.28954 -8.95017
476 1 20.4413 17.2974 7.86193 -8.9496
477 1 -0.000811663 18.8698 6.28923 -8.94944
478 1 1.57123 20.4421 7.86178 -8.94946
479 1 3.14254 18.8709 6.28839 -8.94906
480 1 4.7153 20.4431 7.86129 -8.9493
481 1 6.28704 18.8736 6.28731 -8.95171
482 1 7.86145 20.4436 7.86157 -8.95152
483 1 9.43438 18.8727 6.28786 -8.95046
484 1 11.0071 20.4425 7.8618 -8.94963
485 1 12.5801 18.8721 6.28864 -8.95256
486 1 14.1526 20.4423 7.86184 -8.94944
487 1 15.7254 18.8705 6.28932 -8.94946
488 1 17.2973 20.442 7.86199 -8.94952
489 1 18.8695 18.8698 6.28948 -8.94941
490 1 20.4413 20.4418 7.86198 -8.94952
491 1 22.0132 12.5792 9.43458 -8.94935
492 1 3.1423 12.5792 9.43443 -8.95098
493 1 6.28187 12.5889 9.43336 -8.97112
494 1 9.35671 12.8374 9.43111 -8.1327
495 1 12.5627 12.5821 9.42121 -8.93678
496 1 15.7214 12.5784 9.43502 -8.94376
497 1 18.8691 12.5794 9.43477 -8.94785
498 1 -0.00141978 15.725 9.43453 -8.95009
499 1 3.13933 15.7272 9.43444 -8.94923
500 1 6.27688 15.7368 9.43342 -8.9406
501 1 9.42892 15.7247 9.43351 -9.00815
526 1 1.5701 17.2981 11.0075 -8.94929
527 1 4.71213 17.3014 11.0085 -8.94757
530 1 14.1532 17.2987 11.0063 -8.94886
531 1 17.2979 17.2979 11.007 -8.94896
532 1 20.4413 17.2974 11.0071 -8.94957
534 1 4.71532 20.4431 11.0074 -8.94933
517 1 17.2965 11.007 11.0067 -8.94683
518 1 20.4416 11.007 11.0069 -8.94861
512 1 1.57214 11.007 11.0072 -8.94736
513 1 4.72055 11.007 11.0057 -8.94132
514 1 7.88281 11.007 10.9897 -8.90488
515 1 11.1442 11.007 11.1299 -8.49264
516 1 14.1458 11.007 11.0146 -9.02249
391 1 18.8699 18.8699 22.0136 -8.94904
387 1 12.5796 18.87 22.0135 -8.94944
519 1 1.56961 14.1523 11.0073 -8.95204
520 1 4.70602 14.1563 11.0096 -8.95962
521 1 7.81672 14.1947 11.0394 -8.87689
522 1 11.0303 14.1698 11.0263 -8.94601
523 1 14.1569 14.1543 11.0045 -8.95514
524 1 17.2984 14.1525 11.0065 -8.95038
525 1 20.4414 14.1521 11.007 -8.95007
687 2 10.1516 11.007 12.6462 0.84511
686 1 20.4418 20.4418 20.4415 -8.94921
528 1 7.85736 17.308 11.0077 -8.95823
529 1 11.0076 17.3021 11.0062 -8.95183
685 1 18.8699 18.8699 18.8695 -8.94914
684 1 17.2972 20.442 20.4416 -8.94954
683 1 15.7252 18.8703 18.8699 -8.94959
533 1 1.57123 20.4421 11.0072 -8.94944
682 1 14.1521 20.442 20.4417 -8.94951
535 1 7.86128 20.4439 11.0069 -8.95169
536 1 11.0073 20.4429 11.0066 -8.94992
681 1 12.5797 18.8702 18.87 -8.94945
680 1 11.007 20.442 20.4417 -8.94951
539 1 20.4413 20.4418 11.007 -8.94952
540 1 1.57199 11.007 14.1526 -8.94929
541 1 4.71674 11.007 14.153 -8.94517
542 1 7.8687 11.007 14.147 -8.97741
543 1 11.039 11.007 14.2238 -9.25933
544 1 14.1597 11.007 14.1626 -8.99152
545 1 17.301 11.007 14.1545 -8.94812
546 1 20.4427 11.007 14.1525 -8.94981
547 1 -8.50118e-05 12.5793 12.5797 -8.9497
548 1 1.57153 14.1517 14.1524 -8.94998
549 1 3.14371 12.5786 12.5799 -8.94936
550 1 4.71446 14.1521 14.1535 -8.95294
551 1 6.28823 12.5767 12.5795 -9.00324
552 1 7.85299 14.1633 14.1658 -8.99259
553 1 9.41497 12.6514 12.5774 -9.19292
554 1 11.0111 14.1601 14.1641 -9.0006
555 1 12.6201 12.615 12.6181 -8.91228
556 1 14.1665 14.1653 14.1655 -8.92962
557 1 15.733 12.5809 12.583 -8.9606
558 1 17.3015 14.1539 14.1539 -8.95161
559 1 18.8711 12.5794 12.5797 -8.95174
560 1 20.4425 14.1522 14.1523 -8.95034
561 1 22.0128 15.7248 12.5799 -8.95031
562 1 1.57036 17.2979 14.1531 -8.9497
563 1 3.13974 15.7268 12.5817 -8.95082
564 1 4.71192 17.3016 14.1567 -8.94429
565 1 6.2754 15.7389 12.5923 -8.92801
566 1 7.85947 17.303 14.1559 -8.94842
567 1 9.43417 15.7448 12.5846 -8.96331
568 1 11.0086 17.3026 14.1558 -8.94596
569 1 12.5873 15.7376 12.5876 -8.9515
570 1 14.156 17.3027 14.1554 -8.94961
571 1 15.7276 15.7266 12.5798 -8.95091
572 1 17.2984 17.2982 14.1524 -8.95034
573 1 18.8701 15.725 12.5794 -8.94989
574 1 20.4415 17.2973 14.1522 -8.94987
575 1 -0.000812012 18.8698 12.5798 -8.94942
576 1 1.57135 20.442 14.1525 -8.94943
577 1 3.14256 18.8709 12.5805 -8.94913
578 1 4.7156 20.443 14.1532 -8.94993
579 1 6.28693 18.8739 12.5814 -8.95133
580 1 7.86145 20.4433 14.1532 -8.94989
581 1 9.4345 18.8746 12.5808 -8.95325
582 1 11.0076 20.4432 14.153 -8.94973
583 1 12.5804 18.8726 12.58 -8.95241
584 1 14.1528 20.4429 14.1525 -8.95071
585 1 15.7253 18.8703 12.5793 -8.94945
586 1 17.2973 20.442 14.1519 -8.94966
587 1 18.8695 18.8698 12.5795 -8.9494
588 1 20.4414 20.4418 14.152 -8.94949
589 1 1.57218 11.007 17.2973 -8.94957
590 1 4.71652 11.007 17.2976 -8.94915
591 1 7.86242 11.007 17.2972 -8.94755
592 1 11.0076 11.007 17.3122 -8.96819
593 1 14.1555 11.007 17.3029 -8.94872
594 1 17.2992 11.007 17.2987 -8.94922
595 1 20.4424 11.007 17.2974 -8.94953
596 1 22.0142 12.5795 15.7249 -8.94959
597 1 1.57212 14.1519 17.2972 -8.94949
598 1 3.14408 12.5792 15.7251 -8.94914
599 1 4.71635 14.1517 17.2977 -8.94993
600 1 6.28918 12.5784 15.725 -8.95035
601 1 7.86043 14.1537 17.3007 -8.95227
602 1 9.43225 12.5838 15.7287 -9.00007
603 1 11.0066 14.154 17.3019 -8.95066
604 1 12.5897 12.5888 15.7419 -8.98458
605 1 14.1567 14.1563 17.3036 -8.94796
606 1 15.7295 12.5809 15.7288 -8.95003
607 1 17.2993 14.1531 17.2985 -8.9497
608 1 18.8713 12.5798 15.7255 -8.94949
609 1 20.4424 14.1522 17.2973 -8.94955
610 1 -6.89802e-06 15.7246 15.7248 -8.94998
611 1 1.57176 17.2971 17.2975 -8.94993
612 1 3.14315 15.7248 15.7257 -8.9507
613 1 4.71526 17.2984 17.2991 -8.94903
614 1 6.28521 15.7285 15.7304 -8.9482
615 1 7.86119 17.2986 17.2988 -8.94947
616 1 9.43404 15.7289 15.7285 -8.94854
617 1 11.0071 17.2989 17.299 -8.94918
618 1 12.5822 15.7297 15.73 -8.95082
619 1 14.1535 17.2994 17.2991 -8.94981
620 1 15.7298 15.7293 15.7291 -8.94427
621 1 17.2988 17.2987 17.2983 -8.94819
622 1 18.8712 15.7255 15.7253 -8.94985
623 1 20.4421 17.2973 17.2972 -8.94961
624 1 22.0133 18.8697 15.7249 -8.94954
625 1 1.5716 20.4419 17.2974 -8.94912
626 1 3.1428 18.8707 15.7261 -8.94816
627 1 4.71635 20.4422 17.2977 -8.9495
628 1 6.2881 18.8714 15.7264 -8.9494
629 1 7.86173 20.4422 17.2977 -8.94945
630 1 9.43437 18.8714 15.726 -8.9493
631 1 11.0071 20.4423 17.2977 -8.94947
632 1 12.5805 18.8717 15.7261 -8.9492
633 1 14.1525 20.4424 17.2976 -8.94952
634 1 15.7262 18.8715 15.7258 -8.94932
635 1 17.2976 20.4422 17.2974 -8.94942
636 1 18.8698 18.8699 15.7247 -8.94983
637 1 20.4416 20.4418 17.297 -8.94955
638 1 1.57224 11.007 20.4416 -8.94956
639 1 4.71661 11.007 20.4417 -8.94964
640 1 7.86142 11.007 20.4423 -8.94861
641 1 11.0067 11.007 20.445 -8.95213
642 1 14.1535 11.007 20.4427 -8.94992
643 1 17.2983 11.007 20.4418 -8.94941
644 1 20.4422 11.007 20.4416 -8.94951
645 1 0.000231668 12.5795 18.8694 -8.94955
646 1 1.57224 14.1519 20.4416 -8.94952
647 1 3.14431 12.5794 18.8695 -8.94952
648 1 4.71664 14.1518 20.4417 -8.94962
649 1 6.28897 12.5792 18.8698 -8.94962
650 1 7.8612 14.1524 20.4425 -8.95021
651 1 9.43318 12.5806 18.8724 -8.94745
652 1 11.0066 14.1528 20.4427 -8.95007
653 1 12.5813 12.5811 18.8748 -8.95138
654 1 14.1534 14.1533 20.4428 -8.95055
655 1 15.7265 12.5801 18.8712 -8.94934
656 1 17.2982 14.1526 20.4417 -8.94938
657 1 18.8704 12.5797 18.8697 -8.94944
658 1 20.4422 14.1521 20.4416 -8.9495
659 1 22.0141 15.7245 18.8694 -8.94955
660 1 1.57217 17.2969 20.4416 -8.94973
661 1 3.14425 15.7244 18.8696 -8.94983
662 1 4.71637 17.2973 20.4418 -8.95
663 1 6.28842 15.7252 18.8709 -8.9505
664 1 7.86149 17.2977 20.4418 -8.94956
665 1 9.43388 15.7258 18.8709 -8.94955
666 1 11.0069 17.2978 20.4419 -8.94954
667 1 12.5799 15.726 18.8712 -8.9501
668 1 14.1525 17.298 20.4418 -8.94974
669 1 15.7266 15.7265 18.8713 -8.94899
670 1 17.298 17.2979 20.4418 -8.94923
671 1 18.8703 15.725 18.8697 -8.94954
672 1 20.442 17.2971 20.4416 -8.94952
673 1 -4.5383e-05 18.8694 18.8694 -8.94958
674 1 1.57199 20.4418 20.4416 -8.94932
675 1 3.14395 18.8698 18.8699 -8.94936
676 1 4.71679 20.4418 20.4416 -8.94955
677 1 6.28902 18.8699 18.8699 -8.94955
678 1 7.86184 20.4419 20.4416 -8.94951
679 1 9.4343 18.8701 18.8699 -8.94947
357 1 9.43408 12.5795 22.0146 -8.94934
359 1 12.5801 12.5799 22.0134 -8.95195
363 1 18.8703 12.5797 22.0134 -8.94943
365 1 0.000193794 15.7245 22.0137 -8.9495
369 1 6.28873 15.7249 22.0132 -8.95068
375 1 15.726 15.7259 22.0129 -8.94991
379 1 22.0139 18.8694 22.0136 -8.94955
381 1 3.14404 18.8697 22.0133 -8.94945
385 1 9.43433 18.87 22.0135 -8.94948
353 1 3.14437 12.5794 22.0136 -8.94952
538 1 17.2973 20.442 11.0069 -8.94949
