ITEM: TIMESTEP
97
ITEM: NUMBER OF ATOMS
688
ITEM: BOX BOUNDS pp pp pp
0.0000000000000000e+00 2.2013900999999997e+01
0.0000000000000000e+00 2.2013900999999997e+01
0.0000000000000000e+00 2.2013900999999997e+01
ITEM: ATOMS id type x y z c_pot
189 1 20.4414 4.71652 11.0071 -8.94956
2 1 1.57176 1.57204 1.57182 -8.9491
175 1 18.8692 9.43444 9.43476 -8.94788
4 1 4.71669 1.57191 1.57169 -8.9496
174 1 15.7217 9.43546 9.43505 -8.94404
6 1 7.86189 1.57189 1.57173 -8.94945
7 1 9.43447 -1.06916e-15 -0.000241506 -8.94953
8 1 11.0071 1.57186 1.57177 -8.94949
173 1 12.5637 9.43161 9.42091 -8.93585
10 1 14.1522 1.57182 1.57186 -8.94949
11 1 15.7245 -5.64744e-16 -0.000187069 -8.94957
12 1 17.2973 1.57177 1.57187 -8.94946
188 1 17.2978 4.71607 11.0069 -8.94895
14 1 20.4416 1.57211 1.57215 -8.9495
172 1 9.35646 9.17836 9.43128 -8.13319
16 1 1.57192 4.71689 1.57178 -8.94985
171 1 6.28155 9.42525 9.43338 -8.97111
18 1 4.71577 4.71594 1.57056 -8.94951
19 1 6.28923 3.14416 -0.000422074 -8.94948
20 1 7.86145 4.71591 1.57088 -8.94911
170 1 3.14216 9.43478 9.43441 -8.95102
22 1 11.007 4.71574 1.57093 -8.94933
169 1 22.0132 9.43465 9.43456 -8.94939
24 1 14.1528 4.7155 1.57083 -8.94968
25 1 15.7248 3.14393 -0.000377816 -8.94965
26 1 17.2985 4.71544 1.57105 -8.94813
168 1 18.8699 6.28874 9.43453 -8.94962
28 1 20.4421 4.71668 1.57192 -8.94955
167 1 15.7268 6.28733 9.4342 -8.94626
30 1 1.57215 7.86201 1.57191 -8.9494
31 1 3.14439 6.28959 -0.000284159 -8.94975
32 1 4.71662 7.86228 1.57166 -8.94966
166 1 12.58 6.28695 9.43187 -8.94542
34 1 7.86148 7.86161 1.57047 -8.95263
35 1 9.43401 6.28856 -0.000716511 -8.94963
36 1 11.0068 7.86071 1.56976 -8.95079
37 1 12.5797 6.28844 -0.00083738 -8.94974
38 1 14.1542 7.85999 1.56861 -8.95173
165 1 9.429 6.28983 9.43365 -9.00789
40 1 17.2987 7.86103 1.57088 -8.94909
41 1 18.87 6.28905 -0.000379931 -8.94946
42 1 20.4422 7.86175 1.57184 -8.94942
43 1 22.0141 9.43444 -0.000231079 -8.94954
187 1 14.1531 4.71535 11.0063 -8.9489
45 1 6.2891 9.43464 -4.50069e-05 -8.94934
164 1 6.27715 6.27752 9.43347 -8.94068
163 1 3.13955 6.28686 9.43444 -8.94924
48 1 15.726 9.43392 -0.00103972 -8.94926
162 1 -0.00130255 6.28892 9.43452 -8.95007
50 1 -0.000369085 6.15498e-16 3.14451 -8.94949
51 1 1.57154 1.57193 4.71664 -8.94942
52 1 3.14394 1.15277e-15 3.14394 -8.94951
53 1 4.71594 1.57107 4.7159 -8.95003
54 1 6.28927 9.32884e-16 3.14396 -8.94955
55 1 7.86179 1.57116 4.71612 -8.94964
56 1 9.43456 3.55056e-16 3.14399 -8.94953
57 1 11.0073 1.57125 4.71622 -8.9496
58 1 12.5797 1.81693e-16 3.14412 -8.9495
59 1 14.1525 1.5712 4.71661 -8.95071
60 1 15.7248 7.03716e-16 3.1443 -8.95005
61 1 17.2972 1.5719 4.71704 -8.94965
62 1 18.8693 3.011e-16 3.14464 -8.94965
63 1 20.4414 1.57213 4.71704 -8.9495
64 1 22.0134 3.14428 3.14426 -8.94954
65 1 1.57052 4.7161 4.71598 -8.94971
66 1 3.14308 3.14336 3.14312 -8.94807
67 1 4.71221 4.71257 4.71239 -8.94407
68 1 6.28869 3.1432 3.14318 -8.94955
69 1 7.86034 4.71307 4.71387 -8.94874
70 1 9.43437 3.14321 3.14337 -8.94934
71 1 11.0076 4.71336 4.71406 -8.9476
72 1 12.5799 3.14312 3.1435 -8.94911
73 1 14.1554 4.71181 4.71368 -8.94958
74 1 15.7258 3.14272 3.14344 -8.94938
75 1 17.2984 4.71562 4.71647 -8.95003
76 1 18.8697 3.14405 3.14441 -8.94972
77 1 20.4416 4.71663 4.71687 -8.94992
78 1 22.0139 6.28935 3.14426 -8.94984
79 1 1.57155 7.8621 4.71655 -8.94983
80 1 3.14347 6.28922 3.14351 -8.95038
81 1 4.71458 7.86187 4.71523 -8.95143
82 1 6.28644 6.28672 3.1399 -8.95032
83 1 7.85603 7.85546 4.70646 -8.95511
84 1 9.43378 6.28671 3.14109 -8.94771
85 1 11.0079 7.85638 4.70726 -8.9519
86 1 12.581 6.28643 3.14055 -8.94935
87 1 14.1658 7.84938 4.70334 -8.9305
88 1 15.7292 6.28492 3.14022 -8.94458
89 1 17.3016 7.85978 4.71484 -8.95076
90 1 18.871 6.28845 3.14371 -8.94967
91 1 20.4426 7.86165 4.71665 -8.95019
92 1 0.000224455 9.4344 3.14415 -8.94953
93 1 3.144 9.43455 3.14386 -8.94893
94 1 6.28924 9.43531 3.14411 -8.94912
95 1 9.43527 9.43441 3.14386 -8.9511
96 1 12.583 9.43298 3.13616 -8.95977
97 1 15.7289 9.43289 3.14056 -8.94739
98 1 18.8712 9.43404 3.14355 -8.94926
99 1 22.0135 1.59014e-15 6.28944 -8.94951
100 1 1.57142 1.57188 7.86183 -8.94948
101 1 3.14369 1.88814e-15 6.28901 -8.94932
102 1 4.71554 1.57089 7.86137 -8.9493
103 1 6.28893 1.44224e-15 6.28885 -8.95072
104 1 7.8616 1.57043 7.86165 -8.95149
105 1 9.43468 1.21687e-15 6.28897 -8.95027
106 1 11.0071 1.57145 7.86188 -8.9496
107 1 12.5797 9.52277e-16 6.28939 -8.95045
108 1 14.1525 1.57161 7.86189 -8.94945
109 1 15.7248 1.46778e-16 6.28952 -8.94953
110 1 17.2972 1.57196 7.86201 -8.94953
111 1 18.8693 8.27591e-16 6.28956 -8.94952
112 1 20.4414 1.5721 7.862 -8.94954
113 1 -0.00069407 3.14419 6.2893 -8.94945
114 1 1.57028 4.71593 7.86156 -8.94933
115 1 3.1428 3.14313 6.28852 -8.94907
116 1 4.71232 4.71265 7.86014 -8.94713
117 1 6.2873 3.14052 6.28749 -8.95171
118 1 7.8582 4.70777 7.8599 -8.95966
119 1 9.43448 3.14144 6.28803 -8.95044
120 1 11.0064 4.71386 7.86087 -8.9525
121 1 12.5801 3.14192 6.28881 -8.95257
122 1 14.1534 4.71478 7.86167 -8.94851
123 1 15.7252 3.14346 6.28942 -8.94948
124 1 17.2979 4.71603 7.86195 -8.94896
125 1 18.8695 3.14419 6.28952 -8.94942
126 1 20.4414 4.71653 7.86194 -8.94958
127 1 22.0128 6.2891 6.2892 -8.95035
128 1 1.56959 7.86166 7.86172 -8.95197
129 1 3.13982 6.28725 6.28721 -8.95099
130 1 4.70586 7.85764 7.85908 -8.95863
131 1 6.27506 6.2756 6.27612 -8.92822
132 1 7.81793 7.82158 7.82466 -8.84495
133 1 9.43311 6.27951 6.28303 -8.94912
134 1 11.0236 7.84879 7.83327 -8.89656
135 1 12.587 6.27749 6.28087 -8.95192
136 1 14.1587 7.85799 7.86069 -8.94989
137 1 15.7281 6.28675 6.28828 -8.95053
138 1 17.2988 7.86147 7.86273 -8.95094
139 1 18.8702 6.28895 6.28958 -8.95013
140 1 20.4415 7.86183 7.86218 -8.95012
141 1 22.0139 9.43456 6.28928 -8.94991
142 1 3.14317 9.43521 6.28891 -8.94973
143 1 6.28614 9.43678 6.28836 -8.95142
144 1 9.42208 9.41173 6.28394 -8.91046
145 1 12.6209 9.40089 6.25009 -8.86091
146 1 15.7354 9.43181 6.28512 -8.95738
147 1 18.8719 9.43419 6.28915 -8.95169
148 1 -0.000470858 1.86311e-15 9.4345 -8.94953
149 1 3.14359 1.46643e-15 9.43446 -8.94944
150 1 6.28844 1.78254e-16 9.43428 -8.95039
151 1 9.43464 1.2568e-15 9.43429 -8.94855
152 1 12.58 9.29861e-17 9.43426 -8.94948
153 1 15.7249 5.23429e-16 9.43445 -8.94963
154 1 18.8693 1.7294e-15 9.4345 -8.94955
155 1 22.0132 3.14415 9.4345 -8.9495
156 1 3.14267 3.1431 9.43444 -8.94945
157 1 6.28636 3.13999 9.43408 -8.94936
158 1 9.43412 3.14285 9.43416 -8.94645
159 1 12.5802 3.14318 9.43392 -8.94875
160 1 15.7252 3.14364 9.43441 -8.94957
161 1 18.8695 3.14417 9.4345 -8.94954
177 1 4.71555 1.57092 11.0074 -8.94933
180 1 14.1525 1.57171 11.0068 -8.94935
184 1 4.71242 4.71277 11.0085 -8.9476
183 1 1.5703 4.71593 11.0074 -8.94929
3 1 3.14445 2.6489e-16 -0.000259241 -8.94959
176 1 1.57142 1.57188 11.0071 -8.94946
343 1 18.8702 9.43428 18.8697 -8.94946
178 1 7.86143 1.57009 11.0069 -8.95166
179 1 11.0073 1.57106 11.0066 -8.94987
342 1 15.7263 9.43384 18.871 -8.94935
341 1 12.5812 9.43288 18.8746 -8.95135
182 1 20.4414 1.5721 11.007 -8.94954
340 1 9.43312 9.43335 18.8723 -8.94746
339 1 6.28891 9.43465 18.8698 -8.94964
185 1 7.85758 4.70634 11.0077 -8.95824
186 1 11.0076 4.71215 11.0062 -8.95174
338 1 3.14427 9.4345 18.8696 -8.94952
337 1 0.000133783 9.43444 18.8694 -8.94956
336 1 20.442 7.86187 20.4416 -8.94952
190 1 1.56966 7.8617 11.0073 -8.95201
191 1 4.70609 7.85781 11.0096 -8.95956
192 1 7.81691 7.81988 11.0393 -8.87749
193 1 11.0301 7.84501 11.0262 -8.94684
194 1 14.1569 7.85969 11.0044 -8.95495
195 1 17.2984 7.8614 11.0064 -8.95034
196 1 20.4415 7.86181 11.007 -8.95006
197 1 22.0134 -5.35704e-20 12.5796 -8.94951
198 1 1.57151 1.57192 14.1524 -8.94945
199 1 3.14367 4.9089e-16 12.5799 -8.94936
200 1 4.7158 1.57102 14.1531 -8.94993
201 1 6.28877 -5.80824e-16 12.58 -8.95062
202 1 7.86156 1.57071 14.153 -8.94988
203 1 9.43468 1.06015e-15 12.5799 -8.95107
204 1 11.0075 1.57078 14.1529 -8.94972
205 1 12.5799 1.52481e-15 12.5795 -8.95042
206 1 14.1527 1.57107 14.1524 -8.9507
207 1 15.7248 1.6078e-15 12.5793 -8.9495
208 1 17.2972 1.57194 14.1519 -8.94966
209 1 18.8693 1.07352e-15 12.5794 -8.94952
210 1 20.4414 1.57213 14.152 -8.9495
211 1 -0.000694325 3.14418 12.5797 -8.94943
212 1 1.5705 4.7161 14.153 -8.94969
213 1 3.1428 3.14314 12.5804 -8.94915
214 1 4.71216 4.71255 14.1565 -8.94433
215 1 6.28716 3.14022 12.5813 -8.95133
216 1 7.85962 4.71119 14.1557 -8.94844
217 1 9.43456 3.13953 12.5807 -8.95319
218 1 11.0085 4.71159 14.1555 -8.94599
219 1 12.5803 3.1415 12.5799 -8.95243
220 1 14.1558 4.71143 14.1552 -8.94969
221 1 15.7252 3.14363 12.5793 -8.94946
222 1 17.2983 4.7158 14.1523 -8.95032
223 1 18.8695 3.1442 12.5795 -8.9494
224 1 20.4415 4.71664 14.1521 -8.94985
225 1 22.0128 6.2891 12.5798 -8.95029
226 1 1.57152 7.86216 14.1524 -8.94995
227 1 3.13991 6.28726 12.5817 -8.9508
228 1 4.71447 7.86187 14.1535 -8.9529
229 1 6.27564 6.27537 12.5921 -8.92817
230 1 7.853 7.85101 14.1656 -8.9926
231 1 9.43418 6.26975 12.5844 -8.96332
232 1 11.0109 7.85421 14.1638 -9.00061
233 1 12.5871 6.27661 12.5873 -8.95182
234 1 14.1665 7.84858 14.1654 -8.92929
235 1 15.7275 6.28741 12.5797 -8.95085
236 1 17.3014 7.86003 14.1538 -8.95162
237 1 18.8701 6.28896 12.5794 -8.94985
238 1 20.4425 7.86175 14.1523 -8.95033
239 1 -0.000124427 9.43463 12.5797 -8.94971
240 1 3.14357 9.43533 12.5799 -8.94931
241 1 6.28804 9.43736 12.5796 -9.00314
242 1 9.41476 9.36342 12.5775 -9.1935
243 1 12.6206 9.3986 12.6184 -8.91073
244 1 15.7331 9.43299 12.5828 -8.96072
245 1 18.8712 9.43447 12.5797 -8.95176
246 1 -0.00038611 7.65903e-17 15.7245 -8.94952
247 1 1.57171 1.57203 17.2973 -8.94915
248 1 3.14384 1.02547e-16 15.7251 -8.94949
249 1 4.71649 1.5718 17.2976 -8.94952
250 1 6.28903 -2.01457e-16 15.7253 -8.9496
251 1 7.86181 1.57175 17.2976 -8.94947
252 1 9.43455 -1.26001e-15 15.7252 -8.94953
253 1 11.0071 1.5717 17.2976 -8.94948
254 1 12.58 1.20701e-16 15.7251 -8.94961
255 1 14.1524 1.57162 17.2975 -8.94953
256 1 15.725 1.42227e-16 15.7248 -8.95005
257 1 17.2974 1.57174 17.2973 -8.94944
258 1 18.8693 -1.26697e-15 15.7244 -8.94968
259 1 20.4416 1.57212 17.2969 -8.94957
260 1 22.0134 3.14428 15.7248 -8.94954
261 1 1.57182 4.71685 17.2974 -8.94992
262 1 3.14298 3.14335 15.7259 -8.94818
263 1 4.71539 4.71564 17.299 -8.94904
264 1 6.28827 3.14267 15.7262 -8.94942
265 1 7.86128 4.71546 17.2987 -8.94947
266 1 9.4344 3.14264 15.7259 -8.9493
267 1 11.0071 4.71522 17.2988 -8.94919
268 1 12.5804 3.14242 15.7259 -8.9492
269 1 14.1533 4.71474 17.2989 -8.94982
270 1 15.726 3.14256 15.7257 -8.94934
271 1 17.2986 4.71539 17.2982 -8.94817
272 1 18.8697 3.1441 15.7246 -8.94983
273 1 20.4421 4.71667 17.2972 -8.94961
274 1 -1.83687e-05 6.28937 15.7248 -8.94996
275 1 1.57207 7.86202 17.2972 -8.94949
276 1 3.14324 6.28918 15.7256 -8.95068
277 1 4.71631 7.8622 17.2977 -8.94988
278 1 6.28533 6.28554 15.7302 -8.94826
279 1 7.86038 7.86033 17.3007 -8.95221
280 1 9.434 6.28529 15.7283 -8.94856
281 1 11.0065 7.86002 17.3017 -8.95063
282 1 12.582 6.28441 15.7297 -8.95082
283 1 14.1564 7.8577 17.3034 -8.94799
284 1 15.7296 6.28469 15.7289 -8.94419
285 1 17.2991 7.86092 17.2984 -8.9497
286 1 18.871 6.28848 15.7253 -8.94984
287 1 20.4423 7.86176 17.2972 -8.94956
288 1 22.0141 9.43443 15.7249 -8.9496
289 1 3.14395 9.43464 15.7251 -8.94917
290 1 6.28891 9.43551 15.7252 -8.95025
291 1 9.43201 9.43026 15.7288 -8.99992
292 1 12.5895 9.42516 15.7418 -8.98466
293 1 15.7294 9.43301 15.7286 -8.94998
294 1 18.8712 9.43412 15.7254 -8.94948
295 1 22.0137 -8.62357e-16 18.8693 -8.94925
296 1 1.57206 1.57214 20.4416 -8.94935
297 1 3.14436 -2.4951e-16 18.8695 -8.94952
298 1 4.7169 1.5721 20.4416 -8.94956
299 1 6.28938 -1.43885e-15 18.8695 -8.94953
300 1 7.8619 1.57203 20.4416 -8.94953
301 1 9.43446 -9.48625e-16 18.8696 -8.94954
302 1 11.007 1.572 20.4416 -8.94953
303 1 12.5796 -8.32414e-16 18.8695 -8.94953
304 1 14.1521 1.57199 20.4416 -8.94952
305 1 15.7246 -3.65409e-16 18.8695 -8.94956
306 1 17.2971 1.57201 20.4416 -8.94956
307 1 18.8695 3.13739e-16 18.8694 -8.94937
308 1 20.4417 1.57219 20.4415 -8.94924
309 1 -4.3275e-05 3.14453 18.8694 -8.94959
310 1 1.57219 4.71707 20.4416 -8.94972
311 1 3.14405 3.14419 18.8698 -8.94937
312 1 4.71647 4.71662 20.4418 -8.94998
313 1 6.28913 3.14405 18.8699 -8.94956
314 1 7.86157 4.71632 20.4418 -8.94955
315 1 9.43434 3.14388 18.8698 -8.94949
316 1 11.0069 4.71619 20.4418 -8.94954
317 1 12.5796 3.14383 18.8698 -8.94946
318 1 14.1523 4.7161 20.4418 -8.94973
319 1 15.725 3.14375 18.8698 -8.94961
320 1 17.2978 4.71612 20.4417 -8.94925
321 1 18.8698 3.14414 18.8695 -8.94915
322 1 20.4419 4.71689 20.4416 -8.94954
323 1 22.014 6.28947 18.8694 -8.94956
324 1 1.57221 7.86201 20.4416 -8.94953
325 1 3.14427 6.28955 18.8696 -8.9498
326 1 4.71665 7.8621 20.4417 -8.94961
327 1 6.28849 6.28874 18.8708 -8.95046
328 1 7.86122 7.86149 20.4425 -8.95018
329 1 9.4339 6.28817 18.8708 -8.94954
330 1 11.0066 7.86118 20.4426 -8.95005
331 1 12.5798 6.28807 18.871 -8.95007
332 1 14.1532 7.86071 20.4427 -8.95054
333 1 15.7263 6.28761 18.8712 -8.94901
334 1 17.298 7.86143 20.4417 -8.9494
335 1 18.8702 6.289 18.8696 -8.94956
49 1 18.8701 9.43429 22.0135 -8.94945
5 1 6.28944 -7.88607e-16 22.0137 -8.94951
9 1 12.5795 -9.45296e-16 22.0137 -8.94952
15 1 22.0139 3.14454 22.0137 -8.94957
17 1 3.14415 3.14424 22.0134 -8.94946
21 1 9.43437 3.14403 22.0135 -8.94949
23 1 12.5796 3.14399 22.0135 -8.94945
27 1 18.8698 3.14413 22.0136 -8.94906
29 1 0.000132322 6.28948 22.0137 -8.94951
33 1 6.28881 6.28903 22.0132 -8.95065
39 1 15.7258 6.28812 22.013 -8.94992
46 1 9.43405 9.43437 22.0145 -8.94935
47 1 12.58 9.43405 22.0133 -8.95194
1 1 -0.000193375 6.98761e-16 22.0137 -8.9492
13 1 18.8694 5.09223e-16 22.0137 -8.94934
44 1 3.14436 9.43451 22.0137 -8.94953
181 1 17.2972 1.57197 11.0069 -8.94951
344 1 1.57217 11.007 1.57187 -8.94955
345 1 4.71656 11.007 1.57171 -8.94961
346 1 7.86188 11.007 1.57282 -8.94806
347 1 11.0072 11.007 1.57239 -8.94682
348 1 14.1549 11.007 1.56852 -8.94951
349 1 17.2988 11.007 1.57084 -8.94938
350 1 20.4423 11.007 1.5718 -8.94949
351 1 22.0141 12.5795 -0.000231079 -8.94954
352 1 1.57215 14.1519 1.57191 -8.9494
537 1 14.1525 20.4422 11.0068 -8.94935
354 1 4.71662 14.1516 1.57166 -8.94966
355 1 6.2891 12.5793 -4.50069e-05 -8.94934
356 1 7.86148 14.1523 1.57047 -8.95263
688 3 10.142 11.007 9.40134 2.34423
358 1 11.0068 14.1532 1.56976 -8.95079
511 1 18.8695 18.8697 9.4345 -8.94954
360 1 14.1542 14.1539 1.56861 -8.95173
361 1 15.726 12.58 -0.00103972 -8.94926
362 1 17.2987 14.1529 1.57088 -8.94909
510 1 15.7252 18.8703 9.43441 -8.94957
364 1 20.4422 14.1521 1.57184 -8.94942
509 1 12.5802 18.8707 9.43392 -8.94875
366 1 1.57192 17.297 1.57178 -8.94985
367 1 3.14439 15.7243 -0.000284159 -8.94975
368 1 4.71577 17.298 1.57056 -8.94951
508 1 9.43412 18.8711 9.43416 -8.94645
370 1 7.86145 17.298 1.57088 -8.94911
371 1 9.43401 15.7253 -0.000716511 -8.94963
372 1 11.007 17.2982 1.57093 -8.94933
373 1 12.5797 15.7255 -0.00083738 -8.94974
374 1 14.1528 17.2984 1.57083 -8.94968
507 1 6.28636 18.8739 9.43408 -8.94936
376 1 17.2985 17.2985 1.57105 -8.94813
377 1 18.87 15.7248 -0.000379931 -8.94946
378 1 20.4421 17.2972 1.57192 -8.94955
506 1 3.14267 18.8708 9.43444 -8.94945
380 1 1.57176 20.4419 1.57182 -8.9491
505 1 22.0132 18.8698 9.4345 -8.9495
382 1 4.71669 20.442 1.57169 -8.9496
383 1 6.28923 18.8697 -0.000422074 -8.94948
384 1 7.86189 20.442 1.57173 -8.94945
504 1 18.8699 15.7252 9.43453 -8.94962
386 1 11.0071 20.442 1.57177 -8.94949
503 1 15.7268 15.7266 9.4342 -8.94626
388 1 14.1522 20.4421 1.57186 -8.94949
389 1 15.7248 18.87 -0.000377816 -8.94965
390 1 17.2973 20.4421 1.57187 -8.94946
502 1 12.58 15.7269 9.43187 -8.94542
392 1 20.4416 20.4418 1.57215 -8.9495
393 1 1.57177 11.007 4.71631 -8.94949
394 1 4.71567 11.007 4.71545 -8.94605
395 1 7.86482 11.007 4.7203 -8.94579
396 1 11.0127 11.007 4.72092 -9.00058
397 1 14.1637 11.007 4.70607 -8.9415
398 1 17.3018 11.007 4.71445 -8.94908
399 1 20.4428 11.007 4.71646 -8.94996
400 1 0.000224455 12.5795 3.14415 -8.94953
401 1 1.57155 14.1518 4.71655 -8.94983
402 1 3.144 12.5793 3.14386 -8.94893
403 1 4.71458 14.152 4.71523 -8.95143
404 1 6.28924 12.5786 3.14411 -8.94912
405 1 7.85603 14.1584 4.70646 -8.95511
406 1 9.43527 12.5795 3.14386 -8.9511
407 1 11.0079 14.1575 4.70726 -8.9519
408 1 12.583 12.5809 3.13616 -8.95977
409 1 14.1658 14.1645 4.70334 -8.9305
410 1 15.7289 12.581 3.14056 -8.94739
411 1 17.3016 14.1541 4.71484 -8.95076
412 1 18.8712 12.5799 3.14355 -8.94926
413 1 20.4426 14.1522 4.71665 -8.95019
414 1 22.0139 15.7246 3.14426 -8.94984
415 1 1.57052 17.2978 4.71598 -8.94971
416 1 3.14347 15.7247 3.14351 -8.95038
417 1 4.71221 17.3013 4.71239 -8.94407
418 1 6.28644 15.7272 3.1399 -8.95032
419 1 7.86034 17.3008 4.71387 -8.94874
420 1 9.43378 15.7272 3.14109 -8.94771
421 1 11.0076 17.3005 4.71406 -8.9476
422 1 12.581 15.7275 3.14055 -8.94935
423 1 14.1554 17.3021 4.71368 -8.94958
424 1 15.7292 15.729 3.14022 -8.94458
425 1 17.2984 17.2983 4.71647 -8.95003
426 1 18.871 15.7255 3.14371 -8.94967
427 1 20.4416 17.2973 4.71687 -8.94992
428 1 22.0134 18.8696 3.14426 -8.94954
429 1 1.57154 20.442 4.71664 -8.94942
430 1 3.14308 18.8705 3.14312 -8.94807
431 1 4.71594 20.4428 4.7159 -8.95003
432 1 6.28869 18.8707 3.14318 -8.94955
433 1 7.86179 20.4427 4.71612 -8.94964
434 1 9.43437 18.8707 3.14337 -8.94934
435 1 11.0073 20.4427 4.71622 -8.9496
436 1 12.5799 18.8708 3.1435 -8.94911
437 1 14.1525 20.4427 4.71661 -8.95071
438 1 15.7258 18.8712 3.14344 -8.94938
439 1 17.2972 20.442 4.71704 -8.94965
440 1 18.8697 18.8698 3.14441 -8.94972
441 1 20.4414 20.4418 4.71704 -8.9495
442 1 1.57194 11.007 7.86174 -8.94762
443 1 4.71956 11.007 7.86252 -8.94072
444 1 7.88266 11.007 7.87122 -8.87224
445 1 11.0929 11.007 7.64181 -8.15855
446 1 14.1616 11.007 7.85329 -8.97184
447 1 17.2995 11.007 7.86219 -8.95148
448 1 20.4421 11.007 7.86216 -8.94953
449 1 22.0139 12.5793 6.28928 -8.94991
450 1 1.56959 14.1522 7.86172 -8.95197
451 1 3.14317 12.5787 6.28891 -8.94973
452 1 4.70586 14.1563 7.85908 -8.95863
453 1 6.28614 12.5771 6.28836 -8.95142
454 1 7.81793 14.1923 7.82466 -8.84495
455 1 9.42208 12.6022 6.28394 -8.91046
456 1 11.0236 14.1651 7.83327 -8.89656
457 1 12.6209 12.613 6.25009 -8.86091
458 1 14.1587 14.1559 7.86069 -8.94989
459 1 15.7354 12.5821 6.28512 -8.95738
460 1 17.2988 14.1524 7.86273 -8.95094
461 1 18.8719 12.5797 6.28915 -8.95169
462 1 20.4415 14.1521 7.86218 -8.95012
463 1 22.0128 15.7248 6.2892 -8.95035
464 1 1.57028 17.298 7.86156 -8.94933
465 1 3.13982 15.7266 6.28721 -8.95099
466 1 4.71232 17.3013 7.86014 -8.94713
467 1 6.27506 15.7383 6.27612 -8.92822
468 1 7.8582 17.3061 7.8599 -8.95966
469 1 9.43311 15.7344 6.28303 -8.94912
470 1 11.0064 17.3 7.86087 -8.9525
471 1 12.587 15.7364 6.28087 -8.95192
472 1 14.1534 17.2991 7.86167 -8.94851
473 1 15.7281 15.7271 6.28828 -8.95053
474 1 17.2979 17.2979 7.86195 -8.94896
475 1 18.8702 15.725 6.28958 -8.95013
476 1 20.4414 17.2974 7.86194 -8.94958
477 1 -0.00069407 18.8697 6.2893 -8.94945
478 1 1.57142 20.442 7.86183 -8.94948
479 1 3.1428 18.8708 6.28852 -8.94907
480 1 4.71554 20.443 7.86137 -8.9493
481 1 6.2873 18.8734 6.28749 -8.95171
482 1 7.8616 20.4435 7.86165 -8.95149
483 1 9.43448 18.8725 6.28803 -8.95044
484 1 11.0071 20.4424 7.86188 -8.9496
485 1 12.5801 18.872 6.28881 -8.95257
486 1 14.1525 20.4423 7.86189 -8.94945
487 1 15.7252 18.8704 6.28942 -8.94948
488 1 17.2972 20.4419 7.86201 -8.94953
489 1 18.8695 18.8697 6.28952 -8.94942
490 1 20.4414 20.4418 7.862 -8.94954
491 1 22.0132 12.5793 9.43456 -8.94939
492 1 3.14216 12.5791 9.43441 -8.95102
493 1 6.28155 12.5886 9.43338 -8.97111
494 1 9.35646 12.8355 9.43128 -8.13319
495 1 12.5637 12.5823 9.42091 -8.93585
496 1 15.7217 12.5784 9.43505 -8.94404
497 1 18.8692 12.5795 9.43476 -8.94788
498 1 -0.00130255 15.725 9.43452 -8.95007
499 1 3.13955 15.727 9.43444 -8.94924
500 1 6.27715 15.7364 9.43347 -8.94068
501 1 9.429 15.7241 9.43365 -9.00789
526 1 1.5703 17.298 11.0074 -8.94929
527 1 4.71242 17.3011 11.0085 -8.9476
530 1 14.1531 17.2986 11.0063 -8.9489
531 1 17.2978 17.2978 11.0069 -8.94895
532 1 20.4414 17.2974 11.0071 -8.94956
534 1 4.71555 20.443 11.0074 -8.94933
517 1 17.2967 11.007 11.0067 -8.94677
518 1 20.4417 11.007 11.0069 -8.94865
512 1 1.572 11.007 11.0072 -8.94744
513 1 4.72015 11.007 11.0058 -8.94134
514 1 7.88231 11.007 10.9898 -8.90484
515 1 11.1467 11.007 11.1307 -8.49073
516 1 14.146 11.007 11.0146 -9.02312
391 1 18.8698 18.8698 22.0136 -8.94906
387 1 12.5796 18.8699 22.0135 -8.94945
519 1 1.56966 14.1522 11.0073 -8.95201
520 1 4.70609 14.1561 11.0096 -8.95956
521 1 7.81691 14.194 11.0393 -8.87749
522 1 11.0301 14.1689 11.0262 -8.94684
523 1 14.1569 14.1542 11.0044 -8.95495
524 1 17.2984 14.1525 11.0064 -8.95034
525 1 20.4415 14.1521 11.007 -8.95006
687 2 10.1538 11.007 12.6439 0.846999
686 1 20.4417 20.4417 20.4415 -8.94924
528 1 7.85758 17.3076 11.0077 -8.95824
529 1 11.0076 17.3018 11.0062 -8.95174
685 1 18.8698 18.8698 18.8695 -8.94915
684 1 17.2971 20.4419 20.4416 -8.94956
683 1 15.725 18.8702 18.8698 -8.94961
533 1 1.57142 20.442 11.0071 -8.94946
682 1 14.1521 20.4419 20.4416 -8.94952
535 1 7.86143 20.4438 11.0069 -8.95166
536 1 11.0073 20.4428 11.0066 -8.94987
681 1 12.5796 18.8701 18.8698 -8.94946
680 1 11.007 20.4419 20.4416 -8.94953
539 1 20.4414 20.4418 11.007 -8.94954
540 1 1.57186 11.007 14.1526 -8.94932
541 1 4.71644 11.007 14.1532 -8.94534
542 1 7.86798 11.007 14.1475 -8.97729
543 1 11.0387 11.007 14.2239 -9.25901
544 1 14.1597 11.007 14.1625 -8.99142
545 1 17.3009 11.007 14.1544 -8.94811
546 1 20.4426 11.007 14.1525 -8.94981
547 1 -0.000124427 12.5793 12.5797 -8.94971
548 1 1.57152 14.1517 14.1524 -8.94995
549 1 3.14357 12.5786 12.5799 -8.94931
550 1 4.71447 14.152 14.1535 -8.9529
551 1 6.28804 12.5765 12.5796 -9.00314
552 1 7.853 14.1629 14.1656 -8.9926
553 1 9.41476 12.6505 12.5775 -9.1935
554 1 11.0109 14.1597 14.1638 -9.00061
555 1 12.6206 12.6153 12.6184 -8.91073
556 1 14.1665 14.1653 14.1654 -8.92929
557 1 15.7331 12.5809 12.5828 -8.96072
558 1 17.3014 14.1539 14.1538 -8.95162
559 1 18.8712 12.5794 12.5797 -8.95176
560 1 20.4425 14.1521 14.1523 -8.95033
561 1 22.0128 15.7248 12.5798 -8.95029
562 1 1.5705 17.2978 14.153 -8.94969
563 1 3.13991 15.7266 12.5817 -8.9508
564 1 4.71216 17.3014 14.1565 -8.94433
565 1 6.27564 15.7385 12.5921 -8.92817
566 1 7.85962 17.3027 14.1557 -8.94844
567 1 9.43418 15.7442 12.5844 -8.96332
568 1 11.0085 17.3023 14.1555 -8.94599
569 1 12.5871 15.7373 12.5873 -8.95182
570 1 14.1558 17.3025 14.1552 -8.94969
571 1 15.7275 15.7265 12.5797 -8.95085
572 1 17.2983 17.2981 14.1523 -8.95032
573 1 18.8701 15.7249 12.5794 -8.94985
574 1 20.4415 17.2973 14.1521 -8.94985
575 1 -0.000694325 18.8697 12.5797 -8.94943
576 1 1.57151 20.442 14.1524 -8.94945
577 1 3.1428 18.8708 12.5804 -8.94915
578 1 4.7158 20.4429 14.1531 -8.94993
579 1 6.28716 18.8737 12.5813 -8.95133
580 1 7.86156 20.4432 14.153 -8.94988
581 1 9.43456 18.8744 12.5807 -8.95319
582 1 11.0075 20.4431 14.1529 -8.94972
583 1 12.5803 18.8724 12.5799 -8.95243
584 1 14.1527 20.4428 14.1524 -8.9507
585 1 15.7252 18.8703 12.5793 -8.94946
586 1 17.2972 20.442 14.1519 -8.94966
587 1 18.8695 18.8697 12.5795 -8.9494
588 1 20.4414 20.4418 14.152 -8.9495
589 1 1.57208 11.007 17.2973 -8.94958
590 1 4.71638 11.007 17.2977 -8.94913
591 1 7.86222 11.007 17.2973 -8.94767
592 1 11.0074 11.007 17.3122 -8.96814
593 1 14.1553 11.007 17.3027 -8.94873
594 1 17.299 11.007 17.2985 -8.94923
595 1 20.4423 11.007 17.2973 -8.94954
596 1 22.0141 12.5795 15.7249 -8.9496
597 1 1.57207 14.1519 17.2972 -8.94949
598 1 3.14395 12.5793 15.7251 -8.94917
599 1 4.71631 14.1517 17.2977 -8.94988
600 1 6.28891 12.5784 15.7252 -8.95025
601 1 7.86038 14.1536 17.3007 -8.95221
602 1 9.43201 12.5836 15.7288 -8.99992
603 1 11.0065 14.1539 17.3017 -8.95063
604 1 12.5895 12.5887 15.7418 -8.98466
605 1 14.1564 14.1562 17.3034 -8.94799
606 1 15.7294 12.5809 15.7286 -8.94998
607 1 17.2991 14.153 17.2984 -8.9497
608 1 18.8712 12.5798 15.7254 -8.94948
609 1 20.4423 14.1521 17.2972 -8.94956
610 1 -1.83687e-05 15.7245 15.7248 -8.94996
611 1 1.57182 17.297 17.2974 -8.94992
612 1 3.14324 15.7247 15.7256 -8.95068
613 1 4.71539 17.2983 17.299 -8.94904
614 1 6.28533 15.7284 15.7302 -8.94826
615 1 7.86128 17.2984 17.2987 -8.94947
616 1 9.434 15.7286 15.7283 -8.94856
617 1 11.0071 17.2987 17.2988 -8.94919
618 1 12.582 15.7295 15.7297 -8.95082
619 1 14.1533 17.2992 17.2989 -8.94982
620 1 15.7296 15.7292 15.7289 -8.94419
621 1 17.2986 17.2985 17.2982 -8.94817
622 1 18.871 15.7254 15.7253 -8.94984
623 1 20.4421 17.2972 17.2972 -8.94961
624 1 22.0134 18.8696 15.7248 -8.94954
625 1 1.57171 20.4419 17.2973 -8.94915
626 1 3.14298 18.8706 15.7259 -8.94818
627 1 4.71649 20.4421 17.2976 -8.94952
628 1 6.28827 18.8712 15.7262 -8.94942
629 1 7.86181 20.4421 17.2976 -8.94947
630 1 9.4344 18.8713 15.7259 -8.9493
631 1 11.0071 20.4422 17.2976 -8.94948
632 1 12.5804 18.8715 15.7259 -8.9492
633 1 14.1524 20.4423 17.2975 -8.94953
634 1 15.726 18.8713 15.7257 -8.94934
635 1 17.2974 20.4422 17.2973 -8.94944
636 1 18.8697 18.8698 15.7246 -8.94983
637 1 20.4416 20.4418 17.2969 -8.94957
638 1 1.57219 11.007 20.4416 -8.94957
639 1 4.7166 11.007 20.4417 -8.94965
640 1 7.8614 11.007 20.4423 -8.94866
641 1 11.0066 11.007 20.4449 -8.95218
642 1 14.1533 11.007 20.4426 -8.94991
643 1 17.298 11.007 20.4417 -8.94943
644 1 20.442 11.007 20.4416 -8.94953
645 1 0.000133783 12.5795 18.8694 -8.94956
646 1 1.57221 14.1519 20.4416 -8.94953
647 1 3.14427 12.5794 18.8696 -8.94952
648 1 4.71665 14.1518 20.4417 -8.94961
649 1 6.28891 12.5793 18.8698 -8.94964
650 1 7.86122 14.1524 20.4425 -8.95018
651 1 9.43312 12.5806 18.8723 -8.94746
652 1 11.0066 14.1527 20.4426 -8.95005
653 1 12.5812 12.581 18.8746 -8.95135
654 1 14.1532 14.1532 20.4427 -8.95054
655 1 15.7263 12.5801 18.871 -8.94935
656 1 17.298 14.1525 20.4417 -8.9494
657 1 18.8702 12.5796 18.8697 -8.94946
658 1 20.442 14.152 20.4416 -8.94952
659 1 22.014 15.7244 18.8694 -8.94956
660 1 1.57219 17.2968 20.4416 -8.94972
661 1 3.14427 15.7244 18.8696 -8.9498
662 1 4.71647 17.2973 20.4418 -8.94998
663 1 6.28849 15.7252 18.8708 -8.95046
664 1 7.86157 17.2976 20.4418 -8.94955
665 1 9.4339 15.7257 18.8708 -8.94954
666 1 11.0069 17.2977 20.4418 -8.94954
667 1 12.5798 15.7258 18.871 -8.95007
668 1 14.1523 17.2978 20.4418 -8.94973
669 1 15.7263 15.7263 18.8712 -8.94901
670 1 17.2978 17.2978 20.4417 -8.94925
671 1 18.8702 15.7249 18.8696 -8.94956
672 1 20.4419 17.297 20.4416 -8.94954
673 1 -4.3275e-05 18.8694 18.8694 -8.94959
674 1 1.57206 20.4418 20.4416 -8.94935
675 1 3.14405 18.8697 18.8698 -8.94937
676 1 4.7169 20.4418 20.4416 -8.94956
677 1 6.28913 18.8699 18.8699 -8.94956
678 1 7.8619 20.4419 20.4416 -8.94953
679 1 9.43434 18.87 18.8698 -8.94949
357 1 9.43405 12.5795 22.0145 -8.94935
359 1 12.58 12.5798 22.0133 -8.95194
363 1 18.8701 12.5796 22.0135 -8.94945
365 1 0.000132322 15.7244 22.0137 -8.94951
369 1 6.28881 15.7249 22.0132 -8.95065
375 1 15.7258 15.7258 22.013 -8.94992
379 1 22.0139 18.8694 22.0137 -8.94957
381 1 3.14415 18.8697 22.0134 -8.94946
385 1 9.43437 18.8699 22.0135 -8.94949
353 1 3.14436 12.5794 22.0137 -8.94953
538 1 17.2972 20.4419 11.0069 -8.94951
