ITEM: TIMESTEP
76
ITEM: NUMBER OF ATOMS
688
ITEM: BOX BOUNDS pp pp pp
0.0000000000000000e+00 2.2013900999999997e+01
0.0000000000000000e+00 2.2013900999999997e+01
0.0000000000000000e+00 2.2013900999999997e+01
ITEM: ATOMS id type x y z c_pot
189 1 20.4414 4.71663 11.007 -8.94955
2 1 1.57193 1.57212 1.57197 -8.94916
175 1 18.8694 9.43439 9.43473 -8.94797
4 1 4.71689 1.57202 1.57189 -8.94964
174 1 15.7222 9.43541 9.43511 -8.94424
6 1 7.86198 1.572 1.57189 -8.94948
7 1 9.4345 -5.86302e-16 -0.000181111 -8.94956
8 1 11.007 1.57197 1.57191 -8.94952
173 1 12.5646 9.43184 9.42069 -8.93443
10 1 14.152 1.57196 1.57199 -8.9495
11 1 15.7244 -5.44695e-16 -0.000134388 -8.94959
12 1 17.2971 1.57191 1.57199 -8.94949
188 1 17.2977 4.71616 11.0069 -8.94896
14 1 20.4415 1.5722 1.57224 -8.94954
172 1 9.35592 9.18165 9.4316 -8.13474
16 1 1.57204 4.71699 1.57194 -8.94984
171 1 6.28097 9.42569 9.43338 -8.97109
18 1 4.71602 4.71613 1.5708 -8.9495
19 1 6.28938 3.14431 -0.000326584 -8.94949
20 1 7.86162 4.71615 1.5711 -8.94911
170 1 3.14196 9.43487 9.43438 -8.95111
22 1 11.007 4.716 1.57115 -8.94934
169 1 22.0132 9.43464 9.43453 -8.94948
24 1 14.1525 4.71583 1.5711 -8.94968
25 1 15.7246 3.14418 -0.000295717 -8.94968
26 1 17.2982 4.71574 1.57124 -8.94815
168 1 18.87 6.28879 9.43451 -8.94957
28 1 20.4419 4.71684 1.57204 -8.94957
167 1 15.7267 6.28741 9.43426 -8.9462
30 1 1.57217 7.86204 1.57201 -8.94942
31 1 3.14448 6.28962 -0.000209708 -8.94974
32 1 4.71672 7.8623 1.57175 -8.94966
166 1 12.5797 6.2874 9.43215 -8.94577
34 1 7.86155 7.86171 1.57051 -8.95256
35 1 9.43408 6.28872 -0.000670484 -8.94959
36 1 11.0067 7.86087 1.56988 -8.95068
37 1 12.5795 6.28867 -0.00075507 -8.94968
38 1 14.1538 7.86022 1.56886 -8.95173
165 1 9.42913 6.29062 9.43387 -9.00742
40 1 17.2983 7.86126 1.57112 -8.94914
41 1 18.8698 6.28925 -0.000300183 -8.94951
42 1 20.442 7.86186 1.57196 -8.94946
43 1 22.014 9.43447 -0.000172371 -8.94957
187 1 14.153 4.71552 11.0062 -8.94898
45 1 6.28914 9.43463 -8.34497e-05 -8.94937
164 1 6.27771 6.27818 9.43353 -8.94081
163 1 3.13999 6.28717 9.43444 -8.94924
48 1 15.7256 9.43404 -0.000944508 -8.94926
162 1 -0.00110793 6.28902 9.43451 -8.95003
50 1 -0.000250595 3.62984e-16 3.14464 -8.94954
51 1 1.57178 1.57203 4.71683 -8.94947
52 1 3.14418 7.63554e-16 3.14416 -8.94954
53 1 4.71623 1.57125 4.71617 -8.95003
54 1 6.28943 4.47832e-16 3.14419 -8.94956
55 1 7.86193 1.57134 4.71634 -8.94962
56 1 9.43457 7.61869e-16 3.14418 -8.94954
57 1 11.0073 1.5714 4.71641 -8.94958
58 1 12.5796 7.27144e-17 3.14427 -8.9495
59 1 14.1524 1.57136 4.71676 -8.95066
60 1 15.7247 6.05716e-16 3.14443 -8.95003
61 1 17.297 1.57202 4.71713 -8.94966
62 1 18.8692 7.53971e-16 3.14473 -8.94966
63 1 20.4414 1.57221 4.71713 -8.94953
64 1 22.0135 3.14442 3.14441 -8.94955
65 1 1.5708 4.71628 4.71619 -8.94969
66 1 3.14339 3.14358 3.1434 -8.94812
67 1 4.71272 4.71297 4.71278 -8.94417
68 1 6.28897 3.14348 3.14349 -8.94958
69 1 7.8607 4.71355 4.71429 -8.94881
70 1 9.43444 3.14347 3.14363 -8.94936
71 1 11.0075 4.71378 4.7145 -8.94767
72 1 12.5798 3.1434 3.14375 -8.94913
73 1 14.155 4.71225 4.71413 -8.94972
74 1 15.7255 3.14303 3.14367 -8.94942
75 1 17.2981 4.71589 4.71665 -8.95
76 1 18.8695 3.14425 3.14453 -8.94972
77 1 20.4415 4.71678 4.71697 -8.94988
78 1 22.0139 6.28944 3.14439 -8.94982
79 1 1.57164 7.86214 4.71664 -8.94979
80 1 3.14369 6.28934 3.14372 -8.95035
81 1 4.71482 7.86204 4.71538 -8.95141
82 1 6.28676 6.28702 3.14022 -8.9503
83 1 7.85621 7.85588 4.70674 -8.955
84 1 9.43384 6.28707 3.14143 -8.94772
85 1 11.0077 7.85681 4.70778 -8.95173
86 1 12.5807 6.28682 3.14103 -8.94931
87 1 14.1654 7.84958 4.70375 -8.93024
88 1 15.7288 6.28526 3.14056 -8.94454
89 1 17.3012 7.85998 4.7151 -8.95078
90 1 18.8707 6.28866 3.14389 -8.94968
91 1 20.4424 7.86173 4.71675 -8.95016
92 1 0.000118277 9.43442 3.14427 -8.94954
93 1 3.14404 9.43456 3.14393 -8.94895
94 1 6.28925 9.43535 3.14407 -8.94915
95 1 9.43514 9.43453 3.14375 -8.95113
96 1 12.5826 9.43309 3.13637 -8.9598
97 1 15.7284 9.43306 3.14096 -8.94741
98 1 18.8708 9.43414 3.14376 -8.94928
99 1 22.0136 1.66769e-15 6.28953 -8.94956
100 1 1.5717 1.57199 7.86192 -8.94952
101 1 3.14399 1.36844e-15 6.28919 -8.94935
102 1 4.7159 1.57108 7.8615 -8.9493
103 1 6.28915 1.41736e-15 6.28903 -8.95068
104 1 7.8618 1.57059 7.86176 -8.95144
105 1 9.43474 7.84653e-16 6.2891 -8.95022
106 1 11.0071 1.57155 7.86196 -8.94956
107 1 12.5797 7.96712e-16 6.28947 -8.9504
108 1 14.1524 1.5717 7.86196 -8.94946
109 1 15.7247 4.49576e-16 6.28957 -8.94954
110 1 17.2971 1.57203 7.86204 -8.94954
111 1 18.8693 9.68215e-16 6.2896 -8.94955
112 1 20.4414 1.57218 7.86203 -8.94956
113 1 -0.00051836 3.14433 6.28941 -8.94947
114 1 1.57064 4.71614 7.86165 -8.94933
115 1 3.1432 3.14339 6.28875 -8.94911
116 1 4.7129 4.7131 7.86033 -8.9472
117 1 6.28771 3.14091 6.28777 -8.95169
118 1 7.85866 4.70832 7.86016 -8.95963
119 1 9.43462 3.14177 6.28828 -8.9504
120 1 11.0064 4.71429 7.86122 -8.95238
121 1 12.5799 3.1422 6.28904 -8.95252
122 1 14.1532 4.71501 7.86192 -8.94866
123 1 15.725 3.14367 6.28955 -8.94951
124 1 17.2978 4.71617 7.862 -8.94896
125 1 18.8694 3.14433 6.28958 -8.94943
126 1 20.4414 4.71665 7.86197 -8.94957
127 1 22.013 6.28919 6.28926 -8.95029
128 1 1.56974 7.86173 7.86173 -8.95191
129 1 3.14024 6.2875 6.2874 -8.95094
130 1 4.70615 7.85798 7.85914 -8.95848
131 1 6.2757 6.27624 6.27657 -8.92849
132 1 7.81844 7.82255 7.82528 -8.84598
133 1 9.43331 6.2802 6.28362 -8.94932
134 1 11.0231 7.84991 7.83429 -8.89751
135 1 12.5864 6.27805 6.28165 -8.95235
136 1 14.1586 7.85805 7.86101 -8.94951
137 1 15.7277 6.28699 6.28856 -8.95042
138 1 17.2987 7.86148 7.86278 -8.95088
139 1 18.87 6.28905 6.28964 -8.95007
140 1 20.4416 7.86183 7.86216 -8.9501
141 1 22.0138 9.43456 6.2893 -8.9499
142 1 3.14315 9.43524 6.2889 -8.9497
143 1 6.28609 9.43694 6.28834 -8.95148
144 1 9.42182 9.41217 6.28391 -8.90989
145 1 12.6211 9.4006 6.25022 -8.85942
146 1 15.7351 9.43189 6.28549 -8.95745
147 1 18.8717 9.43422 6.28925 -8.95166
148 1 -0.000307467 1.58596e-15 9.43451 -8.94956
149 1 3.14392 1.26818e-15 9.43448 -8.94947
150 1 6.2887 6.50158e-16 9.43432 -8.95036
151 1 9.43472 1.03134e-15 9.43433 -8.94856
152 1 12.5799 4.38688e-16 9.4343 -8.94948
153 1 15.7248 -3.42518e-16 9.43447 -8.94965
154 1 18.8693 7.4022e-16 9.4345 -8.94957
155 1 22.0134 3.14429 9.4345 -8.94952
156 1 3.14309 3.14337 9.43446 -8.94947
157 1 6.2868 3.14036 9.43411 -8.94936
158 1 9.43429 3.14308 9.43423 -8.94639
159 1 12.5801 3.14334 9.43401 -8.94876
160 1 15.7251 3.14374 9.43444 -8.9496
161 1 18.8694 3.14427 9.4345 -8.94956
177 1 4.71591 1.57111 11.0073 -8.94933
180 1 14.1524 1.57178 11.0068 -8.94937
184 1 4.71296 4.71322 11.0083 -8.94765
183 1 1.57064 4.71614 11.0073 -8.94929
3 1 3.1446 3.8091e-16 -0.000174163 -8.94963
176 1 1.57169 1.57199 11.0071 -8.9495
343 1 18.8699 9.43436 18.8696 -8.94949
178 1 7.86163 1.57026 11.0069 -8.95161
179 1 11.0073 1.57118 11.0066 -8.94981
342 1 15.726 9.43397 18.8707 -8.94936
341 1 12.581 9.43296 18.8743 -8.9513
182 1 20.4415 1.57217 11.007 -8.94957
340 1 9.43308 9.43338 18.8722 -8.94749
339 1 6.28888 9.43462 18.8699 -8.94967
185 1 7.85796 4.70691 11.0076 -8.95824
186 1 11.0075 4.71263 11.0061 -8.95158
338 1 3.14426 9.43448 18.8695 -8.94952
337 1 3.09578e-05 9.43446 18.8694 -8.94958
336 1 20.4418 7.86196 20.4415 -8.94955
190 1 1.56979 7.86176 11.0073 -8.95195
191 1 4.70628 7.85818 11.0095 -8.95947
192 1 7.81724 7.82091 11.039 -8.87856
193 1 11.0295 7.84638 11.0259 -8.9483
194 1 14.157 7.85978 11.0044 -8.95473
195 1 17.2986 7.86136 11.0064 -8.95026
196 1 20.4416 7.8618 11.0069 -8.95005
197 1 22.0136 5.06445e-16 12.5795 -8.94955
198 1 1.57176 1.57202 14.1522 -8.9495
199 1 3.14397 7.88182e-16 12.5798 -8.94939
200 1 4.71609 1.57119 14.1528 -8.94993
201 1 6.28899 6.55699e-17 12.5799 -8.95059
202 1 7.8617 1.5709 14.1528 -8.94984
203 1 9.43473 9.45295e-16 12.5798 -8.95099
204 1 11.0075 1.57096 14.1527 -8.94968
205 1 12.5798 1.63188e-15 12.5794 -8.95038
206 1 14.1525 1.57122 14.1523 -8.95067
207 1 15.7247 7.43963e-16 12.5793 -8.94951
208 1 17.2971 1.57203 14.1518 -8.94967
209 1 18.8693 1.09258e-15 12.5794 -8.94954
210 1 20.4414 1.5722 14.1519 -8.94953
211 1 -0.000518092 3.14432 12.5796 -8.94946
212 1 1.57076 4.71626 14.1528 -8.94967
213 1 3.14318 3.1434 12.5802 -8.94918
214 1 4.71259 4.71292 14.1561 -8.94439
215 1 6.28753 3.14061 12.5811 -8.95131
216 1 7.8599 4.71174 14.1553 -8.94848
217 1 9.43467 3.13993 12.5805 -8.95307
218 1 11.0083 4.71209 14.1551 -8.94604
219 1 12.5801 3.14177 12.5798 -8.95241
220 1 14.1554 4.71181 14.1548 -8.94981
221 1 15.725 3.14378 12.5792 -8.94948
222 1 17.2981 4.716 14.1522 -8.95027
223 1 18.8694 3.14431 12.5794 -8.94942
224 1 20.4415 4.71676 14.152 -8.94982
225 1 22.013 6.28917 12.5797 -8.95025
226 1 1.57155 7.86217 14.1523 -8.94991
227 1 3.14025 6.28749 12.5815 -8.95077
228 1 4.71455 7.86204 14.1534 -8.95284
229 1 6.2761 6.27601 12.5918 -8.9284
230 1 7.85306 7.8517 14.1654 -8.99259
231 1 9.43421 6.27073 12.584 -8.96331
232 1 11.0104 7.85486 14.1633 -9.00068
233 1 12.5866 6.27713 12.5868 -8.95233
234 1 14.1663 7.8487 14.165 -8.92884
235 1 15.7273 6.28754 12.5795 -8.95076
236 1 17.3012 7.86013 14.1536 -8.9516
237 1 18.8701 6.28902 12.5793 -8.94978
238 1 20.4424 7.86178 14.1522 -8.9503
239 1 -0.000169132 9.4346 12.5797 -8.94974
240 1 3.1434 9.43533 12.58 -8.94924
241 1 6.28777 9.43763 12.5797 -9.00296
242 1 9.41426 9.36497 12.5777 -9.19439
243 1 12.6211 9.39823 12.6187 -8.90802
244 1 15.7333 9.43299 12.5826 -8.96079
245 1 18.8712 9.43445 12.5796 -8.95177
246 1 -0.000260889 8.42102e-16 15.7244 -8.94956
247 1 1.57189 1.57211 17.2971 -8.9492
248 1 3.14409 5.28632e-16 15.7249 -8.94952
249 1 4.7167 1.5719 17.2974 -8.94956
250 1 6.28922 5.62495e-16 15.725 -8.94961
251 1 7.86191 1.57187 17.2974 -8.9495
252 1 9.43456 4.8075e-16 15.725 -8.94953
253 1 11.0071 1.57183 17.2974 -8.94951
254 1 12.5798 1.2462e-15 15.725 -8.94959
255 1 14.1522 1.57177 17.2973 -8.94954
256 1 15.7248 2.99345e-16 15.7247 -8.95003
257 1 17.2972 1.57187 17.2971 -8.94946
258 1 18.8692 3.37802e-16 15.7243 -8.94969
259 1 20.4415 1.5722 17.2968 -8.94959
260 1 22.0135 3.1444 15.7246 -8.94955
261 1 1.57193 4.71694 17.2972 -8.9499
262 1 3.14328 3.14354 15.7257 -8.94821
263 1 4.71564 4.71581 17.2987 -8.94905
264 1 6.28854 3.14296 15.7259 -8.94945
265 1 7.86145 4.71571 17.2984 -8.94948
266 1 9.43445 3.14293 15.7256 -8.94932
267 1 11.007 4.71553 17.2985 -8.94921
268 1 12.5802 3.14273 15.7256 -8.94921
269 1 14.153 4.7151 17.2985 -8.94984
270 1 15.7257 3.14284 15.7254 -8.94937
271 1 17.2983 4.71566 17.298 -8.94816
272 1 18.8695 3.14426 15.7245 -8.94982
273 1 20.442 4.71681 17.2971 -8.9496
274 1 -2.26849e-05 6.28943 15.7246 -8.94992
275 1 1.57204 7.86202 17.2971 -8.94949
276 1 3.14342 6.28927 15.7254 -8.95063
277 1 4.7163 7.86216 17.2976 -8.9498
278 1 6.28558 6.28585 15.7299 -8.94834
279 1 7.86037 7.86046 17.3006 -8.95211
280 1 9.43399 6.28574 15.7279 -8.94861
281 1 11.0064 7.86027 17.3013 -8.95056
282 1 12.5816 6.28488 15.7291 -8.95084
283 1 14.1561 7.85798 17.3029 -8.94803
284 1 15.7292 6.28498 15.7286 -8.94411
285 1 17.2987 7.86113 17.2981 -8.94971
286 1 18.8708 6.28864 15.7251 -8.94981
287 1 20.4421 7.86185 17.2971 -8.94957
288 1 22.014 9.43444 15.7248 -8.94962
289 1 3.14383 9.43461 15.7251 -8.94921
290 1 6.28853 9.43546 15.7254 -8.95008
291 1 9.43165 9.4305 15.7288 -8.99968
292 1 12.5891 9.42537 15.7413 -8.98479
293 1 15.729 9.43313 15.7281 -8.94994
294 1 18.8709 9.43419 15.7252 -8.94948
295 1 22.0138 4.7649e-16 18.8692 -8.94933
296 1 1.57217 1.57221 20.4415 -8.9494
297 1 3.14452 -9.91652e-17 18.8694 -8.94957
298 1 4.71704 1.57218 20.4416 -8.94959
299 1 6.2895 -1.00681e-15 18.8694 -8.94956
300 1 7.86199 1.57212 20.4416 -8.94956
301 1 9.43449 -5.561e-16 18.8694 -8.94957
302 1 11.007 1.5721 20.4416 -8.94956
303 1 12.5795 -5.71484e-16 18.8694 -8.94956
304 1 14.152 1.57211 20.4416 -8.94955
305 1 15.7245 -8.20368e-16 18.8694 -8.94958
306 1 17.2969 1.57213 20.4416 -8.9496
307 1 18.8693 -4.14213e-16 18.8693 -8.94942
308 1 20.4416 1.57226 20.4415 -8.94932
309 1 -3.22314e-05 3.14462 18.8693 -8.94961
310 1 1.57224 4.71713 20.4416 -8.94971
311 1 3.14423 3.1443 18.8697 -8.94938
312 1 4.71663 4.71672 20.4417 -8.94994
313 1 6.2893 3.1442 18.8697 -8.94957
314 1 7.86171 4.71648 20.4417 -8.94954
315 1 9.4344 3.14406 18.8697 -8.94951
316 1 11.0069 4.7164 20.4418 -8.94954
317 1 12.5795 3.14404 18.8697 -8.94949
318 1 14.1521 4.71637 20.4417 -8.94972
319 1 15.7248 3.14399 18.8697 -8.94963
320 1 17.2975 4.71637 20.4417 -8.94928
321 1 18.8696 3.14431 18.8694 -8.94919
322 1 20.4418 4.71702 20.4415 -8.94957
323 1 22.0139 6.28953 18.8693 -8.94957
324 1 1.5722 7.86202 20.4416 -8.94955
325 1 3.14435 6.28956 18.8695 -8.94975
326 1 4.71672 7.86208 20.4417 -8.9496
327 1 6.28863 6.28883 18.8707 -8.95039
328 1 7.8613 7.86152 20.4424 -8.95015
329 1 9.43398 6.28835 18.8706 -8.94952
330 1 11.0066 7.86129 20.4424 -8.95
331 1 12.5796 6.28832 18.8707 -8.95003
332 1 14.153 7.8609 20.4426 -8.95051
333 1 15.726 6.28791 18.871 -8.94903
334 1 17.2977 7.86162 20.4417 -8.94943
335 1 18.8699 6.28919 18.8695 -8.94959
49 1 18.8698 9.43437 22.0136 -8.94949
5 1 6.28955 -9.32766e-16 22.0137 -8.94954
9 1 12.5795 -3.23097e-16 22.0137 -8.94955
15 1 22.0139 3.14464 22.0137 -8.94959
17 1 3.14432 3.14436 22.0135 -8.94947
21 1 9.43443 3.1442 22.0136 -8.94952
23 1 12.5795 3.1442 22.0136 -8.94948
27 1 18.8696 3.14431 22.0137 -8.94911
29 1 6.26342e-05 6.28955 22.0138 -8.94953
33 1 6.28896 6.28912 22.0133 -8.9506
39 1 15.7255 6.28839 22.0131 -8.94992
46 1 9.43405 9.43438 22.0143 -8.94938
47 1 12.5798 9.43412 22.0133 -8.9519
1 1 -0.000142299 7.75627e-16 22.0138 -8.94929
13 1 18.8693 -1.18421e-16 22.0137 -8.94941
44 1 3.1444 9.4345 22.0137 -8.94954
181 1 17.2971 1.57202 11.0069 -8.94953
344 1 1.57215 11.007 1.57196 -8.94957
345 1 4.71659 11.007 1.57171 -8.94963
346 1 7.86183 11.007 1.57262 -8.94814
347 1 11.007 11.007 1.57223 -8.94686
348 1 14.1545 11.007 1.56872 -8.94949
349 1 17.2984 11.007 1.57109 -8.94941
350 1 20.442 11.007 1.57193 -8.94952
351 1 22.014 12.5794 -0.000172371 -8.94957
352 1 1.57217 14.1519 1.57201 -8.94942
537 1 14.1524 20.4421 11.0068 -8.94937
354 1 4.71672 14.1516 1.57175 -8.94966
355 1 6.28914 12.5793 -8.34497e-05 -8.94937
356 1 7.86155 14.1522 1.57051 -8.95256
688 3 10.1491 11.007 9.40177 2.34249
358 1 11.0067 14.153 1.56988 -8.95068
511 1 18.8694 18.8696 9.4345 -8.94956
360 1 14.1538 14.1537 1.56886 -8.95173
361 1 15.7256 12.5799 -0.000944508 -8.94926
362 1 17.2983 14.1526 1.57112 -8.94914
510 1 15.7251 18.8702 9.43444 -8.9496
364 1 20.442 14.152 1.57196 -8.94946
509 1 12.5801 18.8706 9.43401 -8.94876
366 1 1.57204 17.2969 1.57194 -8.94984
367 1 3.14448 15.7243 -0.000209708 -8.94974
368 1 4.71602 17.2978 1.5708 -8.9495
508 1 9.43429 18.8708 9.43423 -8.94639
370 1 7.86162 17.2978 1.5711 -8.94911
371 1 9.43408 15.7252 -0.000670484 -8.94959
372 1 11.007 17.2979 1.57115 -8.94934
373 1 12.5795 15.7252 -0.00075507 -8.94968
374 1 14.1525 17.2981 1.5711 -8.94968
507 1 6.2868 18.8735 9.43411 -8.94936
376 1 17.2982 17.2982 1.57124 -8.94815
377 1 18.8698 15.7246 -0.000300183 -8.94951
378 1 20.4419 17.2971 1.57204 -8.94957
506 1 3.14309 18.8705 9.43446 -8.94947
380 1 1.57193 20.4418 1.57197 -8.94916
505 1 22.0134 18.8696 9.4345 -8.94952
382 1 4.71689 20.4419 1.57189 -8.94964
383 1 6.28938 18.8696 -0.000326584 -8.94949
384 1 7.86198 20.4419 1.57189 -8.94948
504 1 18.87 15.7251 9.43451 -8.94957
386 1 11.007 20.4419 1.57191 -8.94952
503 1 15.7267 15.7265 9.43426 -8.9462
388 1 14.152 20.4419 1.57199 -8.9495
389 1 15.7246 18.8697 -0.000295717 -8.94968
390 1 17.2971 20.442 1.57199 -8.94949
502 1 12.5797 15.7265 9.43215 -8.94577
392 1 20.4415 20.4417 1.57224 -8.94954
393 1 1.57173 11.007 4.71637 -8.94949
394 1 4.71564 11.007 4.71543 -8.94613
395 1 7.86465 11.007 4.72001 -8.94585
396 1 11.0125 11.007 4.72083 -9.00126
397 1 14.1632 11.007 4.70651 -8.94151
398 1 17.3014 11.007 4.71477 -8.94909
399 1 20.4426 11.007 4.71658 -8.94994
400 1 0.000118277 12.5795 3.14427 -8.94954
401 1 1.57164 14.1518 4.71664 -8.94979
402 1 3.14404 12.5793 3.14393 -8.94895
403 1 4.71482 14.1519 4.71538 -8.95141
404 1 6.28925 12.5786 3.14407 -8.94915
405 1 7.85621 14.158 4.70674 -8.955
406 1 9.43514 12.5794 3.14375 -8.95113
407 1 11.0077 14.1571 4.70778 -8.95173
408 1 12.5826 12.5808 3.13637 -8.9598
409 1 14.1654 14.1643 4.70375 -8.93024
410 1 15.7284 12.5808 3.14096 -8.94741
411 1 17.3012 14.1539 4.7151 -8.95078
412 1 18.8708 12.5798 3.14376 -8.94928
413 1 20.4424 14.1522 4.71675 -8.95016
414 1 22.0139 15.7245 3.14439 -8.94982
415 1 1.5708 17.2976 4.71619 -8.94969
416 1 3.14369 15.7246 3.14372 -8.95035
417 1 4.71272 17.3009 4.71278 -8.94417
418 1 6.28676 15.7269 3.14022 -8.9503
419 1 7.8607 17.3004 4.71429 -8.94881
420 1 9.43384 15.7268 3.14143 -8.94772
421 1 11.0075 17.3001 4.7145 -8.94767
422 1 12.5807 15.7271 3.14103 -8.94931
423 1 14.155 17.3016 4.71413 -8.94972
424 1 15.7288 15.7286 3.14056 -8.94454
425 1 17.2981 17.298 4.71665 -8.95
426 1 18.8707 15.7252 3.14389 -8.94968
427 1 20.4415 17.2971 4.71697 -8.94988
428 1 22.0135 18.8695 3.14441 -8.94955
429 1 1.57178 20.4419 4.71683 -8.94947
430 1 3.14339 18.8703 3.1434 -8.94812
431 1 4.71623 20.4426 4.71617 -8.95003
432 1 6.28897 18.8704 3.14349 -8.94958
433 1 7.86193 20.4426 4.71634 -8.94962
434 1 9.43444 18.8704 3.14363 -8.94936
435 1 11.0073 20.4425 4.71641 -8.94958
436 1 12.5798 18.8705 3.14375 -8.94913
437 1 14.1524 20.4425 4.71676 -8.95066
438 1 15.7255 18.8709 3.14367 -8.94942
439 1 17.297 20.4419 4.71713 -8.94966
440 1 18.8695 18.8697 3.14453 -8.94972
441 1 20.4414 20.4417 4.71713 -8.94953
442 1 1.5718 11.007 7.86169 -8.94769
443 1 4.71913 11.007 7.86239 -8.9407
444 1 7.88204 11.007 7.87091 -8.87432
445 1 11.0938 11.007 7.63914 -8.15416
446 1 14.162 11.007 7.85353 -8.97174
447 1 17.2997 11.007 7.86229 -8.95149
448 1 20.4421 11.007 7.86215 -8.94959
449 1 22.0138 12.5793 6.2893 -8.9499
450 1 1.56974 14.1522 7.86173 -8.95191
451 1 3.14315 12.5787 6.2889 -8.9497
452 1 4.70615 14.1559 7.85914 -8.95848
453 1 6.28609 12.577 6.28834 -8.95148
454 1 7.81844 14.1913 7.82528 -8.84598
455 1 9.42182 12.6017 6.28391 -8.90989
456 1 11.0231 14.164 7.83429 -8.89751
457 1 12.6211 12.6133 6.25022 -8.85942
458 1 14.1586 14.1558 7.86101 -8.94951
459 1 15.7351 12.582 6.28549 -8.95745
460 1 17.2987 14.1524 7.86278 -8.95088
461 1 18.8717 12.5797 6.28925 -8.95166
462 1 20.4416 14.1521 7.86216 -8.9501
463 1 22.013 15.7247 6.28926 -8.95029
464 1 1.57064 17.2978 7.86165 -8.94933
465 1 3.14024 15.7264 6.2874 -8.95094
466 1 4.7129 17.3008 7.86033 -8.9472
467 1 6.2757 15.7377 6.27657 -8.92849
468 1 7.85866 17.3056 7.86016 -8.95963
469 1 9.43331 15.7337 6.28362 -8.94932
470 1 11.0064 17.2996 7.86122 -8.95238
471 1 12.5864 15.7359 6.28165 -8.95235
472 1 14.1532 17.2989 7.86192 -8.94866
473 1 15.7277 15.7269 6.28856 -8.95042
474 1 17.2978 17.2977 7.862 -8.94896
475 1 18.87 15.7248 6.28964 -8.95007
476 1 20.4414 17.2972 7.86197 -8.94957
477 1 -0.00051836 18.8696 6.28941 -8.94947
478 1 1.5717 20.4419 7.86192 -8.94952
479 1 3.1432 18.8705 6.28875 -8.94911
480 1 4.7159 20.4428 7.8615 -8.9493
481 1 6.28771 18.873 6.28777 -8.95169
482 1 7.8618 20.4433 7.86176 -8.95144
483 1 9.43462 18.8721 6.28828 -8.9504
484 1 11.0071 20.4423 7.86196 -8.94956
485 1 12.5799 18.8717 6.28904 -8.95252
486 1 14.1524 20.4422 7.86196 -8.94946
487 1 15.725 18.8702 6.28955 -8.94951
488 1 17.2971 20.4419 7.86204 -8.94954
489 1 18.8694 18.8696 6.28958 -8.94943
490 1 20.4414 20.4417 7.86203 -8.94956
491 1 22.0132 12.5793 9.43453 -8.94948
492 1 3.14196 12.579 9.43438 -8.95111
493 1 6.28097 12.5882 9.43338 -8.97109
494 1 9.35592 12.8323 9.4316 -8.13474
495 1 12.5646 12.5821 9.42069 -8.93443
496 1 15.7222 12.5785 9.43511 -8.94424
497 1 18.8694 12.5795 9.43473 -8.94797
498 1 -0.00110793 15.7249 9.43451 -8.95003
499 1 3.13999 15.7267 9.43444 -8.94924
500 1 6.27771 15.7357 9.43353 -8.94081
501 1 9.42913 15.7233 9.43387 -9.00742
526 1 1.57064 17.2978 11.0073 -8.94929
527 1 4.71296 17.3007 11.0083 -8.94765
530 1 14.153 17.2984 11.0062 -8.94898
531 1 17.2977 17.2977 11.0069 -8.94896
532 1 20.4414 17.2973 11.007 -8.94955
534 1 4.71591 20.4428 11.0073 -8.94933
517 1 17.2971 11.007 11.0066 -8.94681
518 1 20.4417 11.007 11.0069 -8.94878
512 1 1.57182 11.007 11.0073 -8.94758
513 1 4.71951 11.007 11.006 -8.94145
514 1 7.88118 11.007 10.9901 -8.90497
515 1 11.1507 11.007 11.1327 -8.48722
516 1 14.1466 11.007 11.0146 -9.02418
391 1 18.8696 18.8696 22.0137 -8.94911
387 1 12.5795 18.8697 22.0136 -8.94948
519 1 1.56979 14.1521 11.0073 -8.95195
520 1 4.70628 14.1557 11.0095 -8.95947
521 1 7.81724 14.193 11.039 -8.87856
522 1 11.0295 14.1675 11.0259 -8.9483
523 1 14.157 14.1541 11.0044 -8.95473
524 1 17.2986 14.1525 11.0064 -8.95026
525 1 20.4416 14.1521 11.0069 -8.95005
687 2 10.1576 11.007 12.6401 0.851266
686 1 20.4416 20.4416 20.4415 -8.94932
528 1 7.85796 17.307 11.0076 -8.95824
529 1 11.0075 17.3013 11.0061 -8.95158
685 1 18.8696 18.8696 18.8694 -8.94919
684 1 17.2969 20.4418 20.4416 -8.9496
683 1 15.7248 18.8699 18.8697 -8.94963
533 1 1.57169 20.4419 11.0071 -8.9495
682 1 14.152 20.4418 20.4416 -8.94955
535 1 7.86163 20.4436 11.0069 -8.95161
536 1 11.0073 20.4427 11.0066 -8.94981
681 1 12.5795 18.8699 18.8697 -8.94949
680 1 11.007 20.4418 20.4416 -8.94956
539 1 20.4415 20.4417 11.007 -8.94957
540 1 1.57171 11.007 14.1526 -8.94938
541 1 4.71601 11.007 14.1533 -8.94564
542 1 7.86675 11.007 14.1484 -8.97714
543 1 11.038 11.007 14.224 -9.25862
544 1 14.1597 11.007 14.1621 -8.99139
545 1 17.3007 11.007 14.1541 -8.9481
546 1 20.4425 11.007 14.1524 -8.94983
547 1 -0.000169132 12.5793 12.5797 -8.94974
548 1 1.57155 14.1517 14.1523 -8.94991
549 1 3.1434 12.5786 12.58 -8.94924
550 1 4.71455 14.1519 14.1534 -8.95284
551 1 6.28777 12.5763 12.5797 -9.00296
552 1 7.85306 14.1622 14.1654 -8.99259
553 1 9.41426 12.6489 12.5777 -9.19439
554 1 11.0104 14.159 14.1633 -9.00068
555 1 12.6211 12.6157 12.6187 -8.90802
556 1 14.1663 14.1652 14.165 -8.92884
557 1 15.7333 12.5809 12.5826 -8.96079
558 1 17.3012 14.1538 14.1536 -8.9516
559 1 18.8712 12.5795 12.5796 -8.95177
560 1 20.4424 14.1521 14.1522 -8.9503
561 1 22.013 15.7247 12.5797 -8.95025
562 1 1.57076 17.2976 14.1528 -8.94967
563 1 3.14025 15.7264 12.5815 -8.95077
564 1 4.71259 17.301 14.1561 -8.94439
565 1 6.2761 15.7379 12.5918 -8.9284
566 1 7.8599 17.3022 14.1553 -8.94848
567 1 9.43421 15.7432 12.584 -8.96331
568 1 11.0083 17.3018 14.1551 -8.94604
569 1 12.5866 15.7368 12.5868 -8.95233
570 1 14.1554 17.3021 14.1548 -8.94981
571 1 15.7273 15.7264 12.5795 -8.95076
572 1 17.2981 17.2979 14.1522 -8.95027
573 1 18.8701 15.7249 12.5793 -8.94978
574 1 20.4415 17.2971 14.152 -8.94982
575 1 -0.000518092 18.8696 12.5796 -8.94946
576 1 1.57176 20.4419 14.1522 -8.9495
577 1 3.14318 18.8705 12.5802 -8.94918
578 1 4.71609 20.4427 14.1528 -8.94993
579 1 6.28753 18.8733 12.5811 -8.95131
580 1 7.8617 20.443 14.1528 -8.94984
581 1 9.43467 18.874 12.5805 -8.95307
582 1 11.0075 20.4429 14.1527 -8.94968
583 1 12.5801 18.8721 12.5798 -8.95241
584 1 14.1525 20.4427 14.1523 -8.95067
585 1 15.725 18.8701 12.5792 -8.94948
586 1 17.2971 20.4419 14.1518 -8.94967
587 1 18.8694 18.8696 12.5794 -8.94942
588 1 20.4414 20.4417 14.1519 -8.94953
589 1 1.572 11.007 17.2972 -8.94959
590 1 4.71625 11.007 17.2978 -8.94911
591 1 7.86196 11.007 17.2976 -8.94787
592 1 11.0072 11.007 17.3121 -8.96808
593 1 14.1549 11.007 17.3022 -8.94874
594 1 17.2986 11.007 17.2982 -8.94925
595 1 20.4421 11.007 17.2972 -8.94956
596 1 22.014 12.5795 15.7248 -8.94962
597 1 1.57204 14.1519 17.2971 -8.94949
598 1 3.14383 12.5793 15.7251 -8.94921
599 1 4.7163 14.1517 17.2976 -8.9498
600 1 6.28853 12.5784 15.7254 -8.95008
601 1 7.86037 14.1534 17.3006 -8.95211
602 1 9.43165 12.5834 15.7288 -8.99968
603 1 11.0064 14.1536 17.3013 -8.95056
604 1 12.5891 12.5885 15.7413 -8.98479
605 1 14.1561 14.1559 17.3029 -8.94803
606 1 15.729 12.5808 15.7281 -8.94994
607 1 17.2987 14.1528 17.2981 -8.94971
608 1 18.8709 12.5797 15.7252 -8.94948
609 1 20.4421 14.1521 17.2971 -8.94957
610 1 -2.26849e-05 15.7245 15.7246 -8.94992
611 1 1.57193 17.297 17.2972 -8.9499
612 1 3.14342 15.7246 15.7254 -8.95063
613 1 4.71564 17.2981 17.2987 -8.94905
614 1 6.28558 15.7281 15.7299 -8.94834
615 1 7.86145 17.2982 17.2984 -8.94948
616 1 9.43399 15.7282 15.7279 -8.94861
617 1 11.007 17.2984 17.2985 -8.94921
618 1 12.5816 15.729 15.7291 -8.95084
619 1 14.153 17.2988 17.2985 -8.94984
620 1 15.7292 15.7289 15.7286 -8.94411
621 1 17.2983 17.2982 17.298 -8.94816
622 1 18.8708 15.7253 15.7251 -8.94981
623 1 20.442 17.2971 17.2971 -8.9496
624 1 22.0135 18.8695 15.7246 -8.94955
625 1 1.57189 20.4418 17.2971 -8.9492
626 1 3.14328 18.8704 15.7257 -8.94821
627 1 4.7167 20.442 17.2974 -8.94956
628 1 6.28854 18.8709 15.7259 -8.94945
629 1 7.86191 20.442 17.2974 -8.9495
630 1 9.43445 18.871 15.7256 -8.94932
631 1 11.0071 20.4421 17.2974 -8.94951
632 1 12.5802 18.8712 15.7256 -8.94921
633 1 14.1522 20.4421 17.2973 -8.94954
634 1 15.7257 18.8711 15.7254 -8.94937
635 1 17.2972 20.442 17.2971 -8.94946
636 1 18.8695 18.8696 15.7245 -8.94982
637 1 20.4415 20.4417 17.2968 -8.94959
638 1 1.57218 11.007 20.4416 -8.94959
639 1 4.71664 11.007 20.4417 -8.94965
640 1 7.86142 11.007 20.4422 -8.94877
641 1 11.0066 11.007 20.4447 -8.95226
642 1 14.1531 11.007 20.4425 -8.94988
643 1 17.2977 11.007 20.4417 -8.94945
644 1 20.4418 11.007 20.4416 -8.94956
645 1 3.09578e-05 12.5794 18.8694 -8.94958
646 1 1.5722 14.1519 20.4416 -8.94955
647 1 3.14426 12.5794 18.8695 -8.94952
648 1 4.71672 14.1518 20.4417 -8.9496
649 1 6.28888 12.5793 18.8699 -8.94967
650 1 7.8613 14.1524 20.4424 -8.95015
651 1 9.43308 12.5805 18.8722 -8.94749
652 1 11.0066 14.1526 20.4424 -8.95
653 1 12.581 12.5809 18.8743 -8.9513
654 1 14.153 14.153 20.4426 -8.95051
655 1 15.726 12.5799 18.8707 -8.94936
656 1 17.2977 14.1523 20.4417 -8.94943
657 1 18.8699 12.5795 18.8696 -8.94949
658 1 20.4418 14.1519 20.4415 -8.94955
659 1 22.0139 15.7244 18.8693 -8.94957
660 1 1.57224 17.2968 20.4416 -8.94971
661 1 3.14435 15.7243 18.8695 -8.94975
662 1 4.71663 17.2972 20.4417 -8.94994
663 1 6.28863 15.7251 18.8707 -8.95039
664 1 7.86171 17.2974 20.4417 -8.94954
665 1 9.43398 15.7255 18.8706 -8.94952
666 1 11.0069 17.2975 20.4418 -8.94954
667 1 12.5796 15.7256 18.8707 -8.95003
668 1 14.1521 17.2975 20.4417 -8.94972
669 1 15.726 15.726 18.871 -8.94903
670 1 17.2975 17.2975 20.4417 -8.94928
671 1 18.8699 15.7247 18.8695 -8.94959
672 1 20.4418 17.2969 20.4415 -8.94957
673 1 -3.22314e-05 18.8693 18.8693 -8.94961
674 1 1.57217 20.4417 20.4415 -8.9494
675 1 3.14423 18.8696 18.8697 -8.94938
676 1 4.71704 20.4417 20.4416 -8.94959
677 1 6.2893 18.8697 18.8697 -8.94957
678 1 7.86199 20.4418 20.4416 -8.94956
679 1 9.4344 18.8698 18.8697 -8.94951
357 1 9.43405 12.5795 22.0143 -8.94938
359 1 12.5798 12.5798 22.0133 -8.9519
363 1 18.8698 12.5795 22.0136 -8.94949
365 1 6.26342e-05 15.7243 22.0138 -8.94953
369 1 6.28896 15.7248 22.0133 -8.9506
375 1 15.7255 15.7255 22.0131 -8.94992
379 1 22.0139 18.8693 22.0137 -8.94959
381 1 3.14432 18.8695 22.0135 -8.94947
385 1 9.43443 18.8697 22.0136 -8.94952
353 1 3.1444 12.5794 22.0137 -8.94954
538 1 17.2971 20.4419 11.0069 -8.94953
