ITEM: TIMESTEP
50
ITEM: NUMBER OF ATOMS
688
ITEM: BOX BOUNDS pp pp pp
0.0000000000000000e+00 2.2013900999999997e+01
0.0000000000000000e+00 2.2013900999999997e+01
0.0000000000000000e+00 2.2013900999999997e+01
ITEM: ATOMS id type x y z c_pot
189 1 20.4415 4.71726 11.007 -8.94963
2 1 1.57242 1.57242 1.57242 -8.94963
175 1 18.8691 9.43451 9.43453 -8.94964
4 1 4.71726 1.57242 1.57242 -8.94964
174 1 15.7248 9.4342 9.43461 -8.94823
6 1 7.86211 1.57242 1.57242 -8.94963
7 1 9.43453 6.00393e-17 5.75479e-09 -8.94963
8 1 11.007 1.57242 1.57242 -8.94963
173 1 12.5808 9.43075 9.43341 -8.94195
10 1 14.1518 1.57242 1.57242 -8.94963
11 1 15.7242 8.94319e-16 4.50075e-08 -8.94963
12 1 17.2966 1.57242 1.57242 -8.94963
188 1 17.2966 4.71727 11.007 -8.94967
14 1 20.4415 1.57242 1.57242 -8.94963
172 1 9.35866 9.25974 9.43483 -8.10059
16 1 1.57242 4.71726 1.57242 -8.94964
171 1 6.28244 9.43296 9.43406 -8.9653
18 1 4.71726 4.71726 1.57241 -8.94962
19 1 6.28969 3.14484 3.53964e-07 -8.94963
20 1 7.86211 4.71726 1.57242 -8.94964
170 1 3.1443 9.43453 9.43451 -8.95128
22 1 11.007 4.71726 1.57242 -8.94965
169 1 22.0139 9.43453 9.43453 -8.94976
24 1 14.1518 4.71727 1.57243 -8.94969
25 1 15.7242 3.14484 2.76071e-07 -8.94964
26 1 17.2966 4.71726 1.57242 -8.94959
168 1 18.8691 6.28968 9.43453 -8.94962
28 1 20.4415 4.71726 1.57242 -8.94963
167 1 15.7243 6.28959 9.43448 -8.94909
30 1 1.57242 7.86211 1.57242 -8.94963
31 1 3.14484 6.28969 4.0195e-07 -8.94963
32 1 4.71726 7.86211 1.57242 -8.94965
166 1 12.5793 6.28936 9.43447 -8.95107
34 1 7.86207 7.86207 1.57233 -8.94979
35 1 9.43453 6.28969 -2.58027e-06 -8.94964
36 1 11.0069 7.86209 1.57237 -8.94961
37 1 12.5794 6.28969 7.37664e-07 -8.94964
38 1 14.1519 7.86205 1.57231 -8.94969
165 1 9.43401 6.28247 9.43462 -8.98369
40 1 17.2966 7.86211 1.57242 -8.94968
41 1 18.8691 6.28969 1.87513e-07 -8.94964
42 1 20.4415 7.86211 1.57242 -8.94963
43 1 22.0139 9.43453 2.91143e-09 -8.94963
187 1 14.1518 4.71717 11.0069 -8.94989
45 1 6.28969 9.43453 3.38388e-07 -8.94966
164 1 6.28893 6.28886 9.43445 -8.94943
163 1 3.14478 6.28966 9.43454 -8.9496
48 1 15.7242 9.43453 -1.64988e-06 -8.94963
162 1 -2.10335e-06 6.28968 9.43453 -8.94964
50 1 2.92499e-08 3.03511e-16 3.14484 -8.94963
51 1 1.57242 1.57242 4.71726 -8.94964
52 1 3.14484 -1.04825e-16 3.14484 -8.94963
53 1 4.71726 1.57241 4.71726 -8.94962
54 1 6.28969 6.14588e-16 3.14484 -8.94964
55 1 7.86211 1.57242 4.71727 -8.94963
56 1 9.43453 5.79415e-16 3.14484 -8.94963
57 1 11.007 1.57242 4.71726 -8.94963
58 1 12.5794 1.35087e-15 3.14484 -8.94963
59 1 14.1518 1.57241 4.71726 -8.94964
60 1 15.7242 1.45092e-15 3.14484 -8.94963
61 1 17.2966 1.57242 4.71726 -8.94963
62 1 18.8691 5.41154e-16 3.14484 -8.94963
63 1 20.4415 1.57242 4.71726 -8.94963
64 1 22.0139 3.14484 3.14484 -8.94963
65 1 1.57241 4.71726 4.71726 -8.94963
66 1 3.14484 3.14484 3.14484 -8.94959
67 1 4.71717 4.71717 4.71717 -8.94902
68 1 6.28969 3.14485 3.14485 -8.94969
69 1 7.86213 4.71727 4.71727 -8.95
70 1 9.43453 3.14484 3.14484 -8.94965
71 1 11.0069 4.71722 4.71722 -8.94953
72 1 12.5794 3.14484 3.14484 -8.94963
73 1 14.1518 4.71715 4.71721 -8.94967
74 1 15.7242 3.14484 3.14484 -8.94962
75 1 17.2966 4.71727 4.71726 -8.94968
76 1 18.8691 3.14484 3.14484 -8.94964
77 1 20.4415 4.71726 4.71726 -8.94963
78 1 22.0139 6.28969 3.14484 -8.94963
79 1 1.57242 7.86211 4.71726 -8.94963
80 1 3.14484 6.28969 3.14484 -8.94968
81 1 4.71724 7.86209 4.71724 -8.9499
82 1 6.28963 6.28963 3.14473 -8.94966
83 1 7.86162 7.86164 4.71601 -8.95147
84 1 9.43454 6.28964 3.1448 -8.94953
85 1 11.0067 7.86188 4.71666 -8.95137
86 1 12.5794 6.28969 3.14485 -8.95
87 1 14.1531 7.86073 4.71591 -8.94248
88 1 15.7243 6.28959 3.14475 -8.94901
89 1 17.2967 7.86206 4.71722 -8.94974
90 1 18.8691 6.28968 3.14484 -8.94963
91 1 20.4415 7.86211 4.71726 -8.94965
92 1 2.47578e-07 9.43453 3.14484 -8.94963
93 1 3.14484 9.43453 3.14484 -8.94965
94 1 6.28965 9.43456 3.1448 -8.94978
95 1 9.43419 9.4342 3.14426 -8.94893
96 1 12.5798 9.43412 3.14361 -8.95187
97 1 15.7242 9.43453 3.14484 -8.94984
98 1 18.8691 9.43453 3.14484 -8.94963
99 1 22.0139 1.23198e-15 6.28969 -8.94963
100 1 1.57242 1.57242 7.86211 -8.94963
101 1 3.14484 1.00535e-16 6.28969 -8.94963
102 1 4.71726 1.57242 7.86211 -8.94962
103 1 6.28968 1.30808e-15 6.28968 -8.94966
104 1 7.86209 1.57235 7.86209 -8.94987
105 1 9.43453 2.2157e-15 6.28968 -8.94964
106 1 11.007 1.57238 7.86209 -8.94968
107 1 12.5794 6.06296e-16 6.28968 -8.94966
108 1 14.1518 1.57242 7.86211 -8.94964
109 1 15.7242 7.77084e-16 6.28969 -8.94963
110 1 17.2966 1.57242 7.86211 -8.94963
111 1 18.8691 9.96828e-16 6.28969 -8.94963
112 1 20.4415 1.57242 7.86211 -8.94963
113 1 3.53103e-07 3.14484 6.28969 -8.94963
114 1 1.57242 4.71726 7.86211 -8.94963
115 1 3.14485 3.14485 6.28969 -8.94968
116 1 4.71725 4.71725 7.8621 -8.94981
117 1 6.28963 3.14473 6.28963 -8.9497
118 1 7.8617 4.71605 7.8617 -8.95192
119 1 9.43455 3.1448 6.28967 -8.94961
120 1 11.0073 4.71669 7.86177 -8.94897
121 1 12.5794 3.14475 6.28965 -8.94979
122 1 14.1518 4.71721 7.86213 -8.94975
123 1 15.7242 3.14484 6.28969 -8.94965
124 1 17.2966 4.71726 7.8621 -8.94963
125 1 18.8691 3.14484 6.28969 -8.94963
126 1 20.4415 4.71726 7.86211 -8.94963
127 1 22.0139 6.28968 6.28968 -8.94965
128 1 1.57235 7.86209 7.86209 -8.94987
129 1 3.14474 6.28964 6.28964 -8.94971
130 1 4.71607 7.86174 7.86176 -8.95196
131 1 6.28835 6.28834 6.28831 -8.94254
132 1 7.84771 7.84857 7.84819 -8.88001
133 1 9.4348 6.28908 6.28947 -8.95137
134 1 11.0115 7.85931 7.85666 -8.92721
135 1 12.5798 6.28844 6.28923 -8.95155
136 1 14.1526 7.86155 7.86216 -8.94878
137 1 15.7242 6.28967 6.28967 -8.94988
138 1 17.2967 7.86207 7.86211 -8.94967
139 1 18.8691 6.28968 6.28969 -8.94963
140 1 20.4415 7.86211 7.86211 -8.94965
141 1 22.0139 9.43453 6.28968 -8.94965
142 1 3.14476 9.43453 6.28964 -8.94963
143 1 6.28889 9.43466 6.28916 -8.94936
144 1 9.42992 9.42902 6.28683 -8.92719
145 1 12.5939 9.42059 6.27603 -8.87923
146 1 15.7254 9.43423 6.28939 -8.95227
147 1 18.8691 9.43452 6.28967 -8.94987
148 1 -1.38269e-08 6.7686e-16 9.43453 -8.94963
149 1 3.14484 1.71099e-15 9.43453 -8.94964
150 1 6.28968 1.81854e-15 9.43453 -8.94964
151 1 9.43453 3.83541e-16 9.43453 -8.94995
152 1 12.5794 1.12291e-15 9.43453 -8.94963
153 1 15.7242 -1.89634e-16 9.43453 -8.94964
154 1 18.8691 8.91911e-16 9.43453 -8.94963
155 1 22.0139 3.14484 9.43453 -8.94963
156 1 3.14484 3.14485 9.43453 -8.94967
157 1 6.28964 3.14476 9.43452 -8.9495
158 1 9.43455 3.14418 9.43453 -8.95144
159 1 12.5794 3.14481 9.43452 -8.94957
160 1 15.7242 3.14483 9.43453 -8.94962
161 1 18.8691 3.14484 9.43453 -8.94964
177 1 4.71727 1.57242 11.007 -8.94963
180 1 14.1518 1.57242 11.0069 -8.94966
184 1 4.71726 4.71728 11.007 -8.94993
183 1 1.57242 4.71726 11.0069 -8.94962
3 1 3.14484 6.01256e-16 2.74319e-08 -8.94963
176 1 1.57242 1.57242 11.007 -8.94963
343 1 18.8691 9.43453 18.8691 -8.94963
178 1 7.86208 1.57234 11.007 -8.94987
179 1 11.007 1.57236 11.007 -8.94969
342 1 15.7242 9.43455 18.869 -8.94973
341 1 12.5795 9.43437 18.8693 -8.9494
182 1 20.4415 1.57242 11.007 -8.94963
340 1 9.43438 9.43437 18.8693 -8.94895
339 1 6.28966 9.43452 18.8691 -8.94975
185 1 7.86157 4.71591 11.0072 -8.95132
186 1 11.0074 4.71651 11.0071 -8.94839
338 1 3.14484 9.43453 18.8691 -8.94965
337 1 1.51398e-07 9.43453 18.8691 -8.94963
336 1 20.4415 7.86211 20.4415 -8.94963
190 1 1.57236 7.8621 11.007 -8.94987
191 1 4.71613 7.86188 11.0074 -8.95272
192 1 7.84653 7.84806 11.019 -8.91348
193 1 11.0127 7.85858 11.0119 -8.98035
194 1 14.1531 7.86112 11.0065 -8.9486
195 1 17.2968 7.86204 11.0069 -8.94968
196 1 20.4415 7.8621 11.007 -8.94966
197 1 22.0139 -6.6506e-16 12.5794 -8.94963
198 1 1.57242 1.57242 14.1518 -8.94964
199 1 3.14484 -7.18349e-16 12.5794 -8.94964
200 1 4.71726 1.57242 14.1518 -8.94962
201 1 6.28968 1.39208e-15 12.5794 -8.94965
202 1 7.8621 1.57241 14.1518 -8.94964
203 1 9.43453 -5.02938e-16 12.5794 -8.94976
204 1 11.007 1.57241 14.1518 -8.94963
205 1 12.5794 -6.05757e-16 12.5794 -8.94966
206 1 14.1518 1.57241 14.1518 -8.94965
207 1 15.7242 7.76899e-17 12.5794 -8.94963
208 1 17.2966 1.57242 14.1518 -8.94963
209 1 18.8691 2.31604e-17 12.5794 -8.94963
210 1 20.4415 1.57242 14.1518 -8.94963
211 1 2.16233e-07 3.14484 12.5794 -8.94963
212 1 1.57241 4.71726 14.1518 -8.94962
213 1 3.14484 3.14484 12.5794 -8.94968
214 1 4.71718 4.71719 14.1519 -8.94911
215 1 6.28963 3.14475 12.5794 -8.94964
216 1 7.862 4.71713 14.1519 -8.94954
217 1 9.43455 3.14457 12.5794 -8.95068
218 1 11.0071 4.71709 14.152 -8.94881
219 1 12.5794 3.14473 12.5794 -8.94989
220 1 14.1519 4.7171 14.1519 -8.94976
221 1 15.7242 3.14484 12.5794 -8.94964
222 1 17.2966 4.71727 14.1518 -8.9497
223 1 18.8691 3.14484 12.5794 -8.94964
224 1 20.4415 4.71726 14.1518 -8.94963
225 1 22.0139 6.28968 12.5794 -8.94965
226 1 1.57243 7.86211 14.1518 -8.94962
227 1 3.14475 6.28963 12.5794 -8.94967
228 1 4.71727 7.86219 14.1517 -8.95052
229 1 6.28855 6.28859 12.5807 -8.9432
230 1 7.86028 7.8609 14.155 -8.98633
231 1 9.4348 6.28532 12.5796 -8.96165
232 1 11.0078 7.86185 14.1528 -9.00434
233 1 12.5799 6.28808 12.5799 -8.95255
234 1 14.1537 7.86023 14.1535 -8.94084
235 1 15.7243 6.28965 12.5794 -8.94986
236 1 17.2968 7.86204 14.1519 -8.94979
237 1 18.8691 6.28968 12.5794 -8.94962
238 1 20.4415 7.86211 14.1518 -8.94966
239 1 9.41985e-07 9.43453 12.5794 -8.94964
240 1 3.1448 9.43451 12.5794 -8.94926
241 1 6.28952 9.43563 12.5799 -8.99979
242 1 9.41184 9.3901 12.5814 -9.21059
243 1 12.5989 9.41676 12.5932 -8.9193
244 1 15.7259 9.43416 12.5797 -8.95344
245 1 18.8691 9.43453 12.5794 -8.95002
246 1 1.88326e-08 -1.96083e-16 15.7242 -8.94963
247 1 1.57242 1.57242 17.2966 -8.94963
248 1 3.14484 1.08278e-15 15.7242 -8.94963
249 1 4.71726 1.57242 17.2966 -8.94963
250 1 6.28969 7.78849e-16 15.7242 -8.94963
251 1 7.86211 1.57242 17.2966 -8.94964
252 1 9.43453 9.02065e-16 15.7242 -8.94963
253 1 11.0069 1.57242 17.2966 -8.94964
254 1 12.5794 7.91204e-16 15.7242 -8.94963
255 1 14.1518 1.57242 17.2966 -8.94963
256 1 15.7242 1.85304e-15 15.7242 -8.94963
257 1 17.2966 1.57242 17.2966 -8.94963
258 1 18.8691 1.27684e-15 15.7242 -8.94963
259 1 20.4415 1.57242 17.2966 -8.94963
260 1 22.0139 3.14484 15.7242 -8.94963
261 1 1.57242 4.71727 17.2966 -8.94964
262 1 3.14484 3.14484 15.7242 -8.9496
263 1 4.71726 4.71725 17.2966 -8.94959
264 1 6.28968 3.14483 15.7242 -8.94966
265 1 7.86212 4.71727 17.2966 -8.94974
266 1 9.43453 3.14485 15.7242 -8.94964
267 1 11.0069 4.71727 17.2966 -8.94965
268 1 12.5794 3.14483 15.7242 -8.94962
269 1 14.1518 4.71726 17.2966 -8.94969
270 1 15.7242 3.14483 15.7242 -8.94962
271 1 17.2966 4.71726 17.2966 -8.94957
272 1 18.8691 3.14484 15.7242 -8.94964
273 1 20.4415 4.71726 17.2966 -8.94963
274 1 1.70651e-06 6.28969 15.7242 -8.94963
275 1 1.57242 7.8621 17.2966 -8.94963
276 1 3.14485 6.2897 15.7242 -8.94974
277 1 4.71723 7.86207 17.2967 -8.94947
278 1 6.28954 6.28953 15.7244 -8.9491
279 1 7.86202 7.86202 17.2969 -8.95001
280 1 9.4346 6.28969 15.7242 -8.95022
281 1 11.0069 7.86217 17.2966 -8.95031
282 1 12.5794 6.28953 15.7243 -8.95037
283 1 14.1519 7.86195 17.2969 -8.94906
284 1 15.7243 6.28956 15.7244 -8.94882
285 1 17.2966 7.86212 17.2966 -8.94975
286 1 18.8691 6.28968 15.7242 -8.94962
287 1 20.4415 7.86211 17.2966 -8.94963
288 1 22.0139 9.43453 15.7242 -8.94964
289 1 3.14479 9.43451 15.7242 -8.94972
290 1 6.28912 9.43425 15.7247 -8.94858
291 1 9.43298 9.43362 15.725 -9.0015
292 1 12.5813 9.43195 15.7263 -8.98451
293 1 15.7242 9.43462 15.7241 -8.95056
294 1 18.8691 9.43453 15.7242 -8.94963
295 1 22.0139 1.36198e-15 18.8691 -8.94963
296 1 1.57242 1.57242 20.4415 -8.94963
297 1 3.14484 -6.92313e-17 18.8691 -8.94963
298 1 4.71726 1.57242 20.4415 -8.94963
299 1 6.28969 -1.17124e-15 18.8691 -8.94963
300 1 7.86211 1.57242 20.4415 -8.94963
301 1 9.43453 1.54485e-18 18.8691 -8.94963
302 1 11.007 1.57242 20.4415 -8.94963
303 1 12.5794 6.83862e-16 18.8691 -8.94963
304 1 14.1518 1.57242 20.4415 -8.94963
305 1 15.7242 4.27097e-16 18.8691 -8.94963
306 1 17.2966 1.57242 20.4415 -8.94963
307 1 18.8691 -3.03011e-16 18.8691 -8.94963
308 1 20.4415 1.57242 20.4415 -8.94963
309 1 1.11235e-07 3.14484 18.8691 -8.94963
310 1 1.57242 4.71726 20.4415 -8.94963
311 1 3.14484 3.14484 18.8691 -8.94963
312 1 4.71726 4.71726 20.4415 -8.94963
313 1 6.28969 3.14484 18.8691 -8.94964
314 1 7.86211 4.71726 20.4415 -8.94964
315 1 9.43453 3.14484 18.8691 -8.94963
316 1 11.007 4.71726 20.4415 -8.94963
317 1 12.5794 3.14484 18.8691 -8.94964
318 1 14.1518 4.71727 20.4415 -8.94964
319 1 15.7242 3.14484 18.8691 -8.94964
320 1 17.2966 4.71726 20.4415 -8.94963
321 1 18.8691 3.14484 18.8691 -8.94963
322 1 20.4415 4.71726 20.4415 -8.94963
323 1 22.0139 6.28969 18.8691 -8.94963
324 1 1.57242 7.86211 20.4415 -8.94963
325 1 3.14484 6.28968 18.8691 -8.94962
326 1 4.71726 7.86211 20.4415 -8.94964
327 1 6.28968 6.28968 18.8691 -8.94963
328 1 7.86209 7.86209 20.4415 -8.94963
329 1 9.43454 6.28968 18.8691 -8.94965
330 1 11.007 7.86211 20.4415 -8.94963
331 1 12.5794 6.28969 18.869 -8.94974
332 1 14.1518 7.86209 20.4415 -8.94962
333 1 15.7242 6.28968 18.8691 -8.94958
334 1 17.2966 7.86211 20.4415 -8.94964
335 1 18.8691 6.28969 18.8691 -8.94964
49 1 18.8691 9.43453 22.0139 -8.94963
5 1 6.28969 -2.32457e-16 22.0139 -8.94963
9 1 12.5794 -8.63319e-16 22.0139 -8.94963
15 1 22.0139 3.14484 22.0139 -8.94963
17 1 3.14484 3.14484 22.0139 -8.94963
21 1 9.43453 3.14484 22.0139 -8.94963
23 1 12.5794 3.14484 22.0139 -8.94963
27 1 18.8691 3.14484 22.0139 -8.94963
29 1 -8.92979e-09 6.28969 22.0139 -8.94963
33 1 6.28968 6.28968 22.0139 -8.94963
39 1 15.7242 6.28968 22.0139 -8.94962
46 1 9.4345 9.4345 22.0139 -8.94968
47 1 12.5794 9.4345 22.0138 -8.94988
1 1 -1.09991e-08 6.77545e-16 22.0139 -8.94963
13 1 18.8691 3.48407e-16 22.0139 -8.94963
44 1 3.14484 9.43453 22.0139 -8.94963
181 1 17.2966 1.57242 11.007 -8.94963
344 1 1.57242 11.007 1.57242 -8.94964
345 1 4.71726 11.007 1.57242 -8.94962
346 1 7.8621 11.007 1.5724 -8.94961
347 1 11.0069 11.007 1.57176 -8.95151
348 1 14.1518 11.007 1.57235 -8.94952
349 1 17.2966 11.007 1.57242 -8.94967
350 1 20.4415 11.007 1.57242 -8.94963
351 1 22.0139 12.5794 2.91143e-09 -8.94963
352 1 1.57242 14.1518 1.57242 -8.94963
537 1 14.1518 20.4415 11.0069 -8.94966
354 1 4.71726 14.1518 1.57242 -8.94965
355 1 6.28969 12.5794 3.38388e-07 -8.94966
356 1 7.86207 14.1518 1.57233 -8.94979
688 3 10.2099 11.007 9.42346 2.73587
358 1 11.0069 14.1518 1.57237 -8.94961
511 1 18.8691 18.8691 9.43453 -8.94964
360 1 14.1519 14.1519 1.57231 -8.94969
361 1 15.7242 12.5794 -1.64988e-06 -8.94963
362 1 17.2966 14.1518 1.57242 -8.94968
510 1 15.7242 18.8691 9.43453 -8.94962
364 1 20.4415 14.1518 1.57242 -8.94963
509 1 12.5794 18.8691 9.43452 -8.94957
366 1 1.57242 17.2966 1.57242 -8.94964
367 1 3.14484 15.7242 4.0195e-07 -8.94963
368 1 4.71726 17.2966 1.57241 -8.94962
508 1 9.43455 18.8697 9.43453 -8.95144
370 1 7.86211 17.2966 1.57242 -8.94964
371 1 9.43453 15.7242 -2.58027e-06 -8.94964
372 1 11.007 17.2966 1.57242 -8.94965
373 1 12.5794 15.7242 7.37664e-07 -8.94964
374 1 14.1518 17.2966 1.57243 -8.94969
507 1 6.28964 18.8691 9.43452 -8.9495
376 1 17.2966 17.2966 1.57242 -8.94959
377 1 18.8691 15.7242 1.87513e-07 -8.94964
378 1 20.4415 17.2966 1.57242 -8.94963
506 1 3.14484 18.8691 9.43453 -8.94967
380 1 1.57242 20.4415 1.57242 -8.94963
505 1 22.0139 18.8691 9.43453 -8.94963
382 1 4.71726 20.4415 1.57242 -8.94964
383 1 6.28969 18.8691 3.53964e-07 -8.94963
384 1 7.86211 20.4415 1.57242 -8.94963
504 1 18.8691 15.7242 9.43453 -8.94962
386 1 11.007 20.4415 1.57242 -8.94963
503 1 15.7243 15.7243 9.43448 -8.94909
388 1 14.1518 20.4415 1.57242 -8.94963
389 1 15.7242 18.8691 2.76071e-07 -8.94964
390 1 17.2966 20.4415 1.57242 -8.94963
502 1 12.5793 15.7245 9.43447 -8.95107
392 1 20.4415 20.4415 1.57242 -8.94963
393 1 1.57242 11.007 4.71726 -8.94962
394 1 4.71723 11.007 4.7172 -8.94927
395 1 7.86226 11.007 4.71708 -8.95099
396 1 11.0075 11.007 4.70996 -8.98328
397 1 14.1525 11.007 4.71654 -8.94982
398 1 17.2967 11.007 4.71723 -8.94954
399 1 20.4415 11.007 4.71726 -8.94964
400 1 2.47578e-07 12.5794 3.14484 -8.94963
401 1 1.57242 14.1518 4.71726 -8.94963
402 1 3.14484 12.5794 3.14484 -8.94965
403 1 4.71724 14.1518 4.71724 -8.9499
404 1 6.28965 12.5793 3.1448 -8.94978
405 1 7.86162 14.1523 4.71601 -8.95147
406 1 9.43419 12.5797 3.14426 -8.94893
407 1 11.0067 14.152 4.71666 -8.95137
408 1 12.5798 12.5798 3.14361 -8.95187
409 1 14.1531 14.1532 4.71591 -8.94248
410 1 15.7242 12.5794 3.14484 -8.94984
411 1 17.2967 14.1518 4.71722 -8.94974
412 1 18.8691 12.5794 3.14484 -8.94963
413 1 20.4415 14.1518 4.71726 -8.94965
414 1 22.0139 15.7242 3.14484 -8.94963
415 1 1.57241 17.2966 4.71726 -8.94963
416 1 3.14484 15.7242 3.14484 -8.94968
417 1 4.71717 17.2967 4.71717 -8.94902
418 1 6.28963 15.7243 3.14473 -8.94966
419 1 7.86213 17.2966 4.71727 -8.95
420 1 9.43454 15.7243 3.1448 -8.94953
421 1 11.0069 17.2967 4.71722 -8.94953
422 1 12.5794 15.7242 3.14485 -8.95
423 1 14.1518 17.2968 4.71721 -8.94967
424 1 15.7243 15.7243 3.14475 -8.94901
425 1 17.2966 17.2966 4.71726 -8.94968
426 1 18.8691 15.7242 3.14484 -8.94963
427 1 20.4415 17.2966 4.71726 -8.94963
428 1 22.0139 18.8691 3.14484 -8.94963
429 1 1.57242 20.4415 4.71726 -8.94964
430 1 3.14484 18.8691 3.14484 -8.94959
431 1 4.71726 20.4415 4.71726 -8.94962
432 1 6.28969 18.8691 3.14485 -8.94969
433 1 7.86211 20.4415 4.71727 -8.94963
434 1 9.43453 18.8691 3.14484 -8.94965
435 1 11.007 20.4415 4.71726 -8.94963
436 1 12.5794 18.8691 3.14484 -8.94963
437 1 14.1518 20.4415 4.71726 -8.94964
438 1 15.7242 18.8691 3.14484 -8.94962
439 1 17.2966 20.4415 4.71726 -8.94963
440 1 18.8691 18.8691 3.14484 -8.94964
441 1 20.4415 20.4415 4.71726 -8.94963
442 1 1.57236 11.007 7.86208 -8.94963
443 1 4.71664 11.007 7.86171 -8.9477
444 1 7.86154 11.007 7.85999 -8.90161
445 1 11.0837 11.007 7.68722 -8.06545
446 1 14.1583 11.007 7.86124 -8.96741
447 1 17.2971 11.007 7.86213 -8.95116
448 1 20.4415 11.007 7.86211 -8.94975
449 1 22.0139 12.5794 6.28968 -8.94965
450 1 1.57235 14.1518 7.86209 -8.94987
451 1 3.14476 12.5794 6.28964 -8.94963
452 1 4.71607 14.1522 7.86176 -8.95196
453 1 6.28889 12.5792 6.28916 -8.94936
454 1 7.84771 14.1653 7.84819 -8.88001
455 1 9.42992 12.5849 6.28683 -8.92719
456 1 11.0115 14.1546 7.85666 -8.92721
457 1 12.5939 12.5933 6.27603 -8.87923
458 1 14.1526 14.1524 7.86216 -8.94878
459 1 15.7254 12.5797 6.28939 -8.95227
460 1 17.2967 14.1518 7.86211 -8.94967
461 1 18.8691 12.5794 6.28967 -8.94987
462 1 20.4415 14.1518 7.86211 -8.94965
463 1 22.0139 15.7242 6.28968 -8.94965
464 1 1.57242 17.2966 7.86211 -8.94963
465 1 3.14474 15.7243 6.28964 -8.94971
466 1 4.71725 17.2966 7.8621 -8.94981
467 1 6.28835 15.7256 6.28831 -8.94254
468 1 7.8617 17.2979 7.8617 -8.95192
469 1 9.4348 15.7248 6.28947 -8.95137
470 1 11.0073 17.2972 7.86177 -8.94897
471 1 12.5798 15.7255 6.28923 -8.95155
472 1 14.1518 17.2967 7.86213 -8.94975
473 1 15.7242 15.7242 6.28967 -8.94988
474 1 17.2966 17.2966 7.8621 -8.94963
475 1 18.8691 15.7242 6.28969 -8.94963
476 1 20.4415 17.2966 7.86211 -8.94963
477 1 3.53103e-07 18.8691 6.28969 -8.94963
478 1 1.57242 20.4415 7.86211 -8.94963
479 1 3.14485 18.8691 6.28969 -8.94968
480 1 4.71726 20.4415 7.86211 -8.94962
481 1 6.28963 18.8692 6.28963 -8.9497
482 1 7.86209 20.4416 7.86209 -8.94987
483 1 9.43455 18.8691 6.28967 -8.94961
484 1 11.007 20.4415 7.86209 -8.94968
485 1 12.5794 18.8692 6.28965 -8.94979
486 1 14.1518 20.4415 7.86211 -8.94964
487 1 15.7242 18.8691 6.28969 -8.94965
488 1 17.2966 20.4415 7.86211 -8.94963
489 1 18.8691 18.8691 6.28969 -8.94963
490 1 20.4415 20.4415 7.86211 -8.94963
491 1 22.0139 12.5794 9.43453 -8.94976
492 1 3.1443 12.5794 9.43451 -8.95128
493 1 6.28244 12.5809 9.43406 -8.9653
494 1 9.35866 12.7542 9.43483 -8.10059
495 1 12.5808 12.5832 9.43341 -8.94195
496 1 15.7248 12.5797 9.43461 -8.94823
497 1 18.8691 12.5794 9.43453 -8.94964
498 1 -2.10335e-06 15.7242 9.43453 -8.94964
499 1 3.14478 15.7242 9.43454 -8.9496
500 1 6.28893 15.725 9.43445 -8.94943
501 1 9.43401 15.7314 9.43462 -8.98369
526 1 1.57242 17.2966 11.0069 -8.94962
527 1 4.71726 17.2966 11.007 -8.94993
530 1 14.1518 17.2967 11.0069 -8.94989
531 1 17.2966 17.2966 11.007 -8.94967
532 1 20.4415 17.2966 11.007 -8.94963
534 1 4.71727 20.4415 11.007 -8.94963
517 1 17.2971 11.007 11.0069 -8.95087
518 1 20.4415 11.007 11.0069 -8.94975
512 1 1.57233 11.007 11.007 -8.9498
513 1 4.71617 11.007 11.0073 -8.94929
514 1 7.85588 11.007 11.0045 -8.92973
515 1 11.1197 11.007 11.1303 -8.40988
516 1 14.1578 11.007 11.0092 -9.01604
391 1 18.8691 18.8691 22.0139 -8.94963
387 1 12.5794 18.8691 22.0139 -8.94963
519 1 1.57236 14.1518 11.007 -8.94987
520 1 4.71613 14.152 11.0074 -8.95272
521 1 7.84653 14.1658 11.019 -8.91348
522 1 11.0127 14.1553 11.0119 -8.98035
523 1 14.1531 14.1528 11.0065 -8.9486
524 1 17.2968 14.1519 11.0069 -8.94968
525 1 20.4415 14.1518 11.007 -8.94966
687 2 10.2091 11.007 12.5925 1.02626
686 1 20.4415 20.4415 20.4415 -8.94963
528 1 7.86157 17.298 11.0072 -8.95132
529 1 11.0074 17.2974 11.0071 -8.94839
685 1 18.8691 18.8691 18.8691 -8.94963
684 1 17.2966 20.4415 20.4415 -8.94963
683 1 15.7242 18.8691 18.8691 -8.94964
533 1 1.57242 20.4415 11.007 -8.94963
682 1 14.1518 20.4415 20.4415 -8.94963
535 1 7.86208 20.4416 11.007 -8.94987
536 1 11.007 20.4415 11.007 -8.94969
681 1 12.5794 18.8691 18.8691 -8.94964
680 1 11.007 20.4415 20.4415 -8.94963
539 1 20.4415 20.4415 11.007 -8.94963
540 1 1.5724 11.007 14.1518 -8.94977
541 1 4.71678 11.007 14.1519 -8.95062
542 1 7.85728 11.007 14.1557 -8.98325
543 1 11.027 11.007 14.2047 -9.25684
544 1 14.1517 11.007 14.1515 -8.99989
545 1 17.2967 11.007 14.1518 -8.94912
546 1 20.4415 11.007 14.1518 -8.94962
547 1 9.41985e-07 12.5794 12.5794 -8.94964
548 1 1.57243 14.1518 14.1518 -8.94962
549 1 3.1448 12.5794 12.5794 -8.94926
550 1 4.71727 14.1517 14.1517 -8.95052
551 1 6.28952 12.5783 12.5799 -8.99979
552 1 7.86028 14.153 14.155 -8.98633
553 1 9.41184 12.6238 12.5814 -9.21059
554 1 11.0078 14.1521 14.1528 -9.00434
555 1 12.5989 12.5971 12.5932 -8.9193
556 1 14.1537 14.1537 14.1535 -8.94084
557 1 15.7259 12.5797 12.5797 -8.95344
558 1 17.2968 14.1519 14.1519 -8.94979
559 1 18.8691 12.5794 12.5794 -8.95002
560 1 20.4415 14.1518 14.1518 -8.94966
561 1 22.0139 15.7242 12.5794 -8.94965
562 1 1.57241 17.2966 14.1518 -8.94962
563 1 3.14475 15.7243 12.5794 -8.94967
564 1 4.71718 17.2967 14.1519 -8.94911
565 1 6.28855 15.7253 12.5807 -8.9432
566 1 7.862 17.2968 14.1519 -8.94954
567 1 9.4348 15.7286 12.5796 -8.96165
568 1 11.0071 17.2968 14.152 -8.94881
569 1 12.5799 15.7258 12.5799 -8.95255
570 1 14.1519 17.2968 14.1519 -8.94976
571 1 15.7243 15.7242 12.5794 -8.94986
572 1 17.2966 17.2966 14.1518 -8.9497
573 1 18.8691 15.7242 12.5794 -8.94962
574 1 20.4415 17.2966 14.1518 -8.94963
575 1 2.16233e-07 18.8691 12.5794 -8.94963
576 1 1.57242 20.4415 14.1518 -8.94964
577 1 3.14484 18.8691 12.5794 -8.94968
578 1 4.71726 20.4415 14.1518 -8.94962
579 1 6.28963 18.8692 12.5794 -8.94964
580 1 7.8621 20.4415 14.1518 -8.94964
581 1 9.43455 18.8693 12.5794 -8.95068
582 1 11.007 20.4415 14.1518 -8.94963
583 1 12.5794 18.8692 12.5794 -8.94989
584 1 14.1518 20.4415 14.1518 -8.94965
585 1 15.7242 18.8691 12.5794 -8.94964
586 1 17.2966 20.4415 14.1518 -8.94963
587 1 18.8691 18.8691 12.5794 -8.94964
588 1 20.4415 20.4415 14.1518 -8.94963
589 1 1.57242 11.007 17.2966 -8.94962
590 1 4.71725 11.007 17.2966 -8.94954
591 1 7.86206 11.007 17.297 -8.95089
592 1 11.0069 11.007 17.3014 -8.96292
593 1 14.1516 11.007 17.2965 -8.95029
594 1 17.2966 11.007 17.2966 -8.94959
595 1 20.4415 11.007 17.2966 -8.94963
596 1 22.0139 12.5794 15.7242 -8.94964
597 1 1.57242 14.1518 17.2966 -8.94963
598 1 3.14479 12.5794 15.7242 -8.94972
599 1 4.71723 14.1518 17.2967 -8.94947
600 1 6.28912 12.5796 15.7247 -8.94858
601 1 7.86202 14.1519 17.2969 -8.95001
602 1 9.43298 12.5803 15.725 -9.0015
603 1 11.0069 14.1517 17.2966 -8.95031
604 1 12.5813 12.5819 15.7263 -8.98451
605 1 14.1519 14.152 17.2969 -8.94906
606 1 15.7242 12.5793 15.7241 -8.95056
607 1 17.2966 14.1518 17.2966 -8.94975
608 1 18.8691 12.5794 15.7242 -8.94963
609 1 20.4415 14.1518 17.2966 -8.94963
610 1 1.70651e-06 15.7242 15.7242 -8.94963
611 1 1.57242 17.2966 17.2966 -8.94964
612 1 3.14485 15.7242 15.7242 -8.94974
613 1 4.71726 17.2966 17.2966 -8.94959
614 1 6.28954 15.7244 15.7244 -8.9491
615 1 7.86212 17.2966 17.2966 -8.94974
616 1 9.4346 15.7242 15.7242 -8.95022
617 1 11.0069 17.2966 17.2966 -8.94965
618 1 12.5794 15.7244 15.7243 -8.95037
619 1 14.1518 17.2966 17.2966 -8.94969
620 1 15.7243 15.7243 15.7244 -8.94882
621 1 17.2966 17.2966 17.2966 -8.94957
622 1 18.8691 15.7242 15.7242 -8.94962
623 1 20.4415 17.2966 17.2966 -8.94963
624 1 22.0139 18.8691 15.7242 -8.94963
625 1 1.57242 20.4415 17.2966 -8.94963
626 1 3.14484 18.8691 15.7242 -8.9496
627 1 4.71726 20.4415 17.2966 -8.94963
628 1 6.28968 18.8691 15.7242 -8.94966
629 1 7.86211 20.4415 17.2966 -8.94964
630 1 9.43453 18.8691 15.7242 -8.94964
631 1 11.0069 20.4415 17.2966 -8.94964
632 1 12.5794 18.8691 15.7242 -8.94962
633 1 14.1518 20.4415 17.2966 -8.94963
634 1 15.7242 18.8691 15.7242 -8.94962
635 1 17.2966 20.4415 17.2966 -8.94963
636 1 18.8691 18.8691 15.7242 -8.94964
637 1 20.4415 20.4415 17.2966 -8.94963
638 1 1.57242 11.007 20.4415 -8.94963
639 1 4.71726 11.007 20.4415 -8.94962
640 1 7.86211 11.007 20.4415 -8.94973
641 1 11.0069 11.007 20.4417 -8.9511
642 1 14.1518 11.007 20.4415 -8.94958
643 1 17.2966 11.007 20.4415 -8.94963
644 1 20.4415 11.007 20.4415 -8.94963
645 1 1.51398e-07 12.5794 18.8691 -8.94963
646 1 1.57242 14.1518 20.4415 -8.94963
647 1 3.14484 12.5794 18.8691 -8.94965
648 1 4.71726 14.1518 20.4415 -8.94964
649 1 6.28966 12.5794 18.8691 -8.94975
650 1 7.86209 14.1518 20.4415 -8.94963
651 1 9.43438 12.5795 18.8693 -8.94895
652 1 11.007 14.1518 20.4415 -8.94963
653 1 12.5795 12.5795 18.8693 -8.9494
654 1 14.1518 14.1518 20.4415 -8.94962
655 1 15.7242 12.5794 18.869 -8.94973
656 1 17.2966 14.1518 20.4415 -8.94964
657 1 18.8691 12.5794 18.8691 -8.94963
658 1 20.4415 14.1518 20.4415 -8.94963
659 1 22.0139 15.7242 18.8691 -8.94963
660 1 1.57242 17.2966 20.4415 -8.94963
661 1 3.14484 15.7242 18.8691 -8.94962
662 1 4.71726 17.2966 20.4415 -8.94963
663 1 6.28968 15.7242 18.8691 -8.94963
664 1 7.86211 17.2966 20.4415 -8.94964
665 1 9.43454 15.7242 18.8691 -8.94965
666 1 11.007 17.2966 20.4415 -8.94963
667 1 12.5794 15.7242 18.869 -8.94974
668 1 14.1518 17.2966 20.4415 -8.94964
669 1 15.7242 15.7242 18.8691 -8.94958
670 1 17.2966 17.2966 20.4415 -8.94963
671 1 18.8691 15.7242 18.8691 -8.94964
672 1 20.4415 17.2966 20.4415 -8.94963
673 1 1.11235e-07 18.8691 18.8691 -8.94963
674 1 1.57242 20.4415 20.4415 -8.94963
675 1 3.14484 18.8691 18.8691 -8.94963
676 1 4.71726 20.4415 20.4415 -8.94963
677 1 6.28969 18.8691 18.8691 -8.94964
678 1 7.86211 20.4415 20.4415 -8.94963
679 1 9.43453 18.8691 18.8691 -8.94963
357 1 9.4345 12.5794 22.0139 -8.94968
359 1 12.5794 12.5794 22.0138 -8.94988
363 1 18.8691 12.5794 22.0139 -8.94963
365 1 -8.92979e-09 15.7242 22.0139 -8.94963
369 1 6.28968 15.7242 22.0139 -8.94963
375 1 15.7242 15.7242 22.0139 -8.94962
379 1 22.0139 18.8691 22.0139 -8.94963
381 1 3.14484 18.8691 22.0139 -8.94963
385 1 9.43453 18.8691 22.0139 -8.94963
353 1 3.14484 12.5794 22.0139 -8.94963
538 1 17.2966 20.4415 11.007 -8.94963
