ITEM: TIMESTEP
58
ITEM: NUMBER OF ATOMS
688
ITEM: BOX BOUNDS pp pp pp
0.0000000000000000e+00 2.2013900999999997e+01
0.0000000000000000e+00 2.2013900999999997e+01
0.0000000000000000e+00 2.2013900999999997e+01
ITEM: ATOMS id type x y z c_pot
189 1 20.4415 4.7172 11.007 -8.94961
2 1 1.57239 1.5724 1.57239 -8.94951
175 1 18.8696 9.4343 9.43454 -8.94886
4 1 4.71726 1.5724 1.5724 -8.94971
174 1 15.7247 9.43428 9.43492 -8.945
6 1 7.8621 1.57239 1.57239 -8.94963
7 1 9.43453 -2.08128e-16 -6.31725e-06 -8.94964
8 1 11.007 1.57239 1.57238 -8.94964
173 1 12.571 9.43219 9.42481 -8.92898
10 1 14.1518 1.57239 1.57239 -8.94961
11 1 15.7242 6.38901e-16 -3.21248e-06 -8.94964
12 1 17.2967 1.57237 1.57238 -8.94959
188 1 17.2969 4.71697 11.0069 -8.94933
14 1 20.4415 1.57241 1.57242 -8.94964
172 1 9.34908 9.19968 9.43441 -8.13554
16 1 1.5724 4.71726 1.5724 -8.94971
171 1 6.27827 9.42877 9.43339 -8.97109
18 1 4.71703 4.71703 1.57205 -8.94952
19 1 6.28968 3.14481 -2.49511e-05 -8.94962
20 1 7.86208 4.71707 1.57217 -8.9494
170 1 3.14224 9.43484 9.43438 -8.95174
22 1 11.007 4.71705 1.57217 -8.94956
169 1 22.0135 9.43455 9.43452 -8.95
24 1 14.1518 4.7171 1.57224 -8.94983
25 1 15.7242 3.14482 -2.05862e-05 -8.94972
26 1 17.2969 4.71699 1.57217 -8.94888
168 1 18.8694 6.28942 9.43449 -8.94952
28 1 20.4415 4.71723 1.57239 -8.94961
167 1 15.7255 6.28833 9.43433 -8.94692
30 1 1.57239 7.8621 1.57239 -8.94959
31 1 3.14482 6.28969 -8.56492e-06 -8.94966
32 1 4.71716 7.86217 1.57228 -8.94967
166 1 12.579 6.28863 9.43365 -8.94841
34 1 7.86184 7.86188 1.57135 -8.9514
35 1 9.43447 6.28948 -0.000216754 -8.94957
36 1 11.0067 7.86162 1.57126 -8.94984
37 1 12.5794 6.28953 -0.000181593 -8.94955
38 1 14.1525 7.86138 1.57085 -8.95093
165 1 9.43107 6.28875 9.43452 -9.00298
40 1 17.2968 7.86203 1.57222 -8.94962
41 1 18.8691 6.28968 -2.50226e-05 -8.94969
42 1 20.4415 7.8621 1.57239 -8.94961
43 1 22.0139 9.43453 -6.03374e-06 -8.94964
187 1 14.1524 4.71639 11.0065 -8.94962
45 1 6.28956 9.43456 -7.13775e-05 -8.94962
164 1 6.28282 6.2828 9.43367 -8.94264
163 1 3.14308 6.28885 9.43451 -8.94926
48 1 15.7244 9.43448 -0.000248629 -8.94943
162 1 -0.000229519 6.28956 9.43453 -8.94978
50 1 -4.88391e-06 3.60063e-16 3.14484 -8.94965
51 1 1.57239 1.57239 4.71725 -8.94966
52 1 3.14478 -2.38811e-16 3.14478 -8.94958
53 1 4.71707 1.57213 4.71706 -8.94974
54 1 6.28969 1.2759e-15 3.14481 -8.94962
55 1 7.86212 1.57222 4.71712 -8.94955
56 1 9.43453 1.87411e-15 3.14479 -8.94963
57 1 11.007 1.57218 4.71708 -8.94957
58 1 12.5794 7.61653e-16 3.14479 -8.94959
59 1 14.1519 1.57216 4.71715 -8.95
60 1 15.7243 7.84282e-16 3.1448 -8.9497
61 1 17.2967 1.5724 4.71727 -8.94965
62 1 18.8691 6.32339e-16 3.14484 -8.94965
63 1 20.4415 1.57242 4.71726 -8.94963
64 1 22.0139 3.14481 3.14481 -8.9496
65 1 1.57207 4.71706 4.71706 -8.94961
66 1 3.14458 3.14459 3.14458 -8.9489
67 1 4.71557 4.71559 4.71553 -8.94569
68 1 6.28966 3.14466 3.14468 -8.94982
69 1 7.86203 4.71619 4.71643 -8.94952
70 1 9.43452 3.14458 3.14463 -8.94957
71 1 11.0071 4.71601 4.71631 -8.94833
72 1 12.5794 3.14459 3.14465 -8.9494
73 1 14.1528 4.71529 4.71626 -8.95001
74 1 15.7244 3.14447 3.14462 -8.94954
75 1 17.2968 4.71708 4.71721 -8.94987
76 1 18.8691 3.14481 3.14483 -8.9497
77 1 20.4415 4.71723 4.71724 -8.94968
78 1 22.0139 6.28967 3.14481 -8.94967
79 1 1.57224 7.86212 4.71713 -8.94961
80 1 3.14467 6.28967 3.14468 -8.94999
81 1 4.71645 7.8623 4.7166 -8.95083
82 1 6.28865 6.28871 3.14289 -8.95003
83 1 7.8587 7.85884 4.7101 -8.95462
84 1 9.43435 6.28873 3.14357 -8.94827
85 1 11.0063 7.85948 4.71203 -8.95103
86 1 12.5794 6.28886 3.14376 -8.94959
87 1 14.1604 7.85347 4.7086 -8.93134
88 1 15.7259 6.28795 3.14315 -8.94569
89 1 17.2984 7.86133 4.7165 -8.95053
90 1 18.8694 6.2895 3.14465 -8.94965
91 1 20.4417 7.86203 4.71718 -8.94989
92 1 -4.09491e-06 9.43452 3.14479 -8.94962
93 1 3.14462 9.43451 3.14461 -8.94934
94 1 6.28936 9.43501 3.1443 -8.94948
95 1 9.4343 9.43442 3.1432 -8.95024
96 1 12.5808 9.43346 3.13883 -8.95797
97 1 15.7254 9.43414 3.14361 -8.94846
98 1 18.8693 9.43448 3.14466 -8.94947
99 1 22.0139 8.45039e-16 6.28969 -8.94965
100 1 1.57239 1.57239 7.86211 -8.94966
101 1 3.14478 3.51683e-16 6.28966 -8.94956
102 1 4.71703 1.57212 7.86201 -8.94943
103 1 6.28957 1.96296e-15 6.28955 -8.95016
104 1 7.86204 1.57157 7.862 -8.95099
105 1 9.43459 2.15466e-15 6.28956 -8.94987
106 1 11.0071 1.57199 7.86202 -8.9497
107 1 12.5794 5.21845e-16 6.28961 -8.95003
108 1 14.1519 1.57224 7.86209 -8.94955
109 1 15.7243 6.99017e-16 6.28968 -8.9496
110 1 17.2967 1.57237 7.86209 -8.94962
111 1 18.8691 1.05659e-15 6.28968 -8.94963
112 1 20.4415 1.57241 7.86211 -8.94964
113 1 -3.30572e-05 3.14481 6.28968 -8.94961
114 1 1.57211 4.71707 7.86206 -8.94949
115 1 3.14461 3.14461 6.28958 -8.94956
116 1 4.71592 4.71586 7.86155 -8.94819
117 1 6.28903 3.14324 6.28898 -8.95091
118 1 7.86072 4.71133 7.86096 -8.95788
119 1 9.43479 3.14363 6.28919 -8.94979
120 1 11.0071 4.71535 7.86185 -8.95069
121 1 12.5796 3.14369 6.28946 -8.9514
122 1 14.1523 4.71639 7.86237 -8.94934
123 1 15.7243 3.14465 6.28972 -8.94962
124 1 17.2969 4.71699 7.86204 -8.94929
125 1 18.8691 3.1448 6.28967 -8.94958
126 1 20.4415 4.7172 7.86209 -8.94961
127 1 22.0137 6.28959 6.2896 -8.9499
128 1 1.57128 7.86195 7.86194 -8.95108
129 1 3.14304 6.28886 6.28884 -8.95039
130 1 4.71004 7.85991 7.86012 -8.95667
131 1 6.28109 6.28121 6.28101 -8.9311
132 1 7.82538 7.82919 7.82989 -8.85166
133 1 9.43498 6.28452 6.28694 -8.95035
134 1 11.0187 7.85532 7.84369 -8.90705
135 1 12.5829 6.28242 6.28618 -8.95409
136 1 14.1561 7.85948 7.86287 -8.94833
137 1 15.7253 6.28882 6.28961 -8.95013
138 1 17.2977 7.86168 7.86241 -8.94999
139 1 18.8693 6.28956 6.28969 -8.94968
140 1 20.4415 7.86201 7.8621 -8.94987
141 1 22.0138 9.43452 6.28958 -8.94981
142 1 3.14389 9.43483 6.28919 -8.94944
143 1 6.28691 9.43695 6.28841 -8.95125
144 1 9.42321 9.41788 6.28463 -8.91199
145 1 12.6158 9.40291 6.25587 -8.85641
146 1 15.7312 9.43287 6.28775 -8.95689
147 1 18.8701 9.43441 6.28956 -8.95103
148 1 -6.39283e-06 9.07299e-16 9.43453 -8.94964
149 1 3.14478 1.41959e-15 9.43453 -8.94961
150 1 6.28946 2.16082e-15 9.43448 -8.94995
151 1 9.43462 1.60096e-15 9.4345 -8.94965
152 1 12.5795 4.10955e-16 9.43448 -8.9496
153 1 15.7243 -3.76002e-16 9.43452 -8.94969
154 1 18.8691 8.65745e-16 9.43453 -8.94963
155 1 22.0139 3.14481 9.43453 -8.94962
156 1 3.14461 3.14462 9.43454 -8.94969
157 1 6.28871 3.14299 9.43435 -8.94915
158 1 9.43476 3.14334 9.43445 -8.94804
159 1 12.5798 3.14416 9.43434 -8.94887
160 1 15.7245 3.14449 9.4345 -8.94964
161 1 18.8691 3.14479 9.43452 -8.94966
177 1 4.71705 1.57216 11.007 -8.94945
180 1 14.1519 1.57224 11.0069 -8.94961
184 1 4.71598 4.71602 11.0074 -8.94866
183 1 1.57212 4.71707 11.007 -8.94946
3 1 3.14484 4.14773e-16 -3.66965e-06 -8.94967
176 1 1.57238 1.57239 11.007 -8.94965
343 1 18.8691 9.43453 18.8691 -8.94963
178 1 7.86194 1.57138 11.007 -8.95114
179 1 11.0072 1.57179 11.0069 -8.94982
342 1 15.7245 9.43451 18.8693 -8.9496
341 1 12.5803 9.43354 18.8717 -8.95058
182 1 20.4415 1.57241 11.007 -8.94964
340 1 9.4336 9.43366 18.8708 -8.94799
339 1 6.28935 9.43453 18.8695 -8.94987
185 1 7.86 4.71019 11.0073 -8.95678
186 1 11.0077 4.71416 11.0064 -8.94982
338 1 3.14474 9.4345 18.8692 -8.9496
337 1 -1.07321e-05 9.43453 18.8691 -8.94964
336 1 20.4415 7.86211 20.4415 -8.94964
190 1 1.57128 7.86197 11.0071 -8.95117
191 1 4.70982 7.86016 11.0087 -8.95798
192 1 7.82262 7.827 11.0353 -8.883
193 1 11.0231 7.85235 11.0215 -8.95895
194 1 14.1561 7.85987 11.0043 -8.95222
195 1 17.2979 7.8615 11.0066 -8.94964
196 1 20.4416 7.862 11.0069 -8.9499
197 1 22.0139 -4.25363e-16 12.5794 -8.94964
198 1 1.57239 1.5724 14.1518 -8.94967
199 1 3.14479 -1.07721e-16 12.5794 -8.94959
200 1 4.71705 1.57213 14.152 -8.9497
201 1 6.28953 1.40688e-15 12.5795 -8.9501
202 1 7.86202 1.572 14.152 -8.94972
203 1 9.43459 -3.84673e-17 12.5795 -8.95049
204 1 11.0071 1.57198 14.1521 -8.94959
205 1 12.5795 -1.54546e-16 12.5794 -8.95005
206 1 14.1519 1.5721 14.1519 -8.95004
207 1 15.7243 4.14177e-16 12.5794 -8.94962
208 1 17.2967 1.57239 14.1518 -8.94965
209 1 18.8691 3.88317e-16 12.5794 -8.94963
210 1 20.4415 1.57242 14.1518 -8.94963
211 1 -3.32579e-05 3.14481 12.5794 -8.94961
212 1 1.57207 4.71706 14.152 -8.94961
213 1 3.14462 3.14462 12.5795 -8.94962
214 1 4.71551 4.71561 14.1535 -8.94582
215 1 6.28895 3.14314 12.5801 -8.95061
216 1 7.86129 4.71491 14.1533 -8.94904
217 1 9.43479 3.14234 12.5798 -8.95218
218 1 11.0077 4.71501 14.1533 -8.9467
219 1 12.5797 3.14344 12.5796 -8.95141
220 1 14.1531 4.71492 14.1528 -8.95012
221 1 15.7244 3.1446 12.5793 -8.9496
222 1 17.2969 4.71705 14.1518 -8.94998
223 1 18.8691 3.1448 12.5794 -8.9496
224 1 20.4415 4.71722 14.1518 -8.94967
225 1 22.0137 6.28958 12.5794 -8.9499
226 1 1.57217 7.8621 14.1519 -8.94969
227 1 3.14302 6.28885 12.5802 -8.95029
228 1 4.71596 7.86233 14.1524 -8.9521
229 1 6.28107 6.2811 12.5879 -8.93076
230 1 7.85483 7.85519 14.1628 -8.99058
231 1 9.43487 6.27605 12.5818 -8.9633
232 1 11.0084 7.85854 14.1585 -9.00166
233 1 12.5832 6.28139 12.583 -8.95427
234 1 14.1619 7.85225 14.1606 -8.9293
235 1 15.7254 6.28874 12.5792 -8.95018
236 1 17.2987 7.86118 14.1526 -8.9508
237 1 18.8693 6.28951 12.5794 -8.94956
238 1 20.4417 7.86202 14.1519 -8.94998
239 1 -8.54394e-05 9.43451 12.5795 -8.94983
240 1 3.14374 9.43482 12.5798 -8.949
241 1 6.28718 9.43778 12.5803 -9.00238
242 1 9.41005 9.37338 12.5799 -9.19851
243 1 12.6188 9.39968 12.6141 -8.90185
244 1 15.7317 9.43296 12.5811 -8.95887
245 1 18.8702 9.43445 12.5795 -8.95131
246 1 -4.61111e-06 1.60381e-16 15.7242 -8.94965
247 1 1.57239 1.5724 17.2967 -8.94953
248 1 3.14478 1.31838e-15 15.7243 -8.94958
249 1 4.71722 1.57235 17.2967 -8.94966
250 1 6.28964 8.75177e-16 15.7243 -8.94966
251 1 7.8621 1.57237 17.2967 -8.94963
252 1 9.43452 8.18376e-16 15.7243 -8.9496
253 1 11.0069 1.57236 17.2967 -8.94964
254 1 12.5794 1.28741e-15 15.7243 -8.94963
255 1 14.1518 1.57234 17.2967 -8.94961
256 1 15.7243 1.17344e-15 15.7243 -8.94972
257 1 17.2967 1.57236 17.2967 -8.94958
258 1 18.8691 1.33711e-15 15.7242 -8.94965
259 1 20.4415 1.57241 17.2966 -8.94964
260 1 22.0139 3.14481 15.7242 -8.9496
261 1 1.57238 4.71725 17.2967 -8.94975
262 1 3.14457 3.14459 15.7245 -8.94896
263 1 4.71685 4.71684 17.2972 -8.94912
264 1 6.28946 3.14438 15.7246 -8.94971
265 1 7.86209 4.71695 17.297 -8.9497
266 1 9.43453 3.14442 15.7245 -8.94949
267 1 11.0069 4.7169 17.2971 -8.94944
268 1 12.5795 3.1443 15.7246 -8.94942
269 1 14.152 4.7168 17.297 -8.9499
270 1 15.7245 3.14439 15.7245 -8.94951
271 1 17.297 4.71695 17.2969 -8.94883
272 1 18.8691 3.14481 15.7242 -8.94972
273 1 20.4415 4.71722 17.2967 -8.9496
274 1 1.37361e-05 6.28966 15.7243 -8.9497
275 1 1.57232 7.86207 17.2967 -8.94959
276 1 3.14454 6.28964 15.7244 -8.95021
277 1 4.71683 7.86197 17.297 -8.94939
278 1 6.28767 6.28774 15.7271 -8.94821
279 1 7.8611 7.86116 17.299 -8.95125
280 1 9.43454 6.2881 15.7255 -8.94919
281 1 11.0064 7.86149 17.2984 -8.95013
282 1 12.5799 6.28764 15.7258 -8.95096
283 1 14.1538 7.86002 17.2996 -8.94806
284 1 15.7262 6.28769 15.7261 -8.9452
285 1 17.297 7.862 17.2969 -8.94994
286 1 18.8695 6.28945 15.7244 -8.94962
287 1 20.4415 7.8621 17.2967 -8.94965
288 1 22.0139 9.43451 15.7243 -8.94969
289 1 3.14427 9.43445 15.7246 -8.94956
290 1 6.28785 9.4347 15.7258 -8.94907
291 1 9.43077 9.4314 15.7282 -8.99888
292 1 12.5865 9.42707 15.7361 -8.98448
293 1 15.7261 9.4342 15.7254 -8.95049
294 1 18.8694 9.4345 15.7244 -8.94958
295 1 22.0139 1.69662e-15 18.8691 -8.94961
296 1 1.57241 1.57241 20.4415 -8.9496
297 1 3.14483 1.16248e-16 18.8691 -8.94964
298 1 4.71727 1.57241 20.4415 -8.94965
299 1 6.28969 -1.30361e-15 18.8691 -8.94964
300 1 7.86211 1.57241 20.4415 -8.94964
301 1 9.43453 -6.24703e-16 18.8691 -8.94965
302 1 11.007 1.57241 20.4415 -8.94964
303 1 12.5794 9.28857e-16 18.8691 -8.94965
304 1 14.1518 1.57241 20.4415 -8.94964
305 1 15.7242 9.30036e-16 18.8691 -8.94963
306 1 17.2966 1.57241 20.4415 -8.94966
307 1 18.8691 -4.3251e-16 18.8691 -8.94961
308 1 20.4415 1.57242 20.4415 -8.94961
309 1 2.38121e-06 3.14484 18.8691 -8.94964
310 1 1.57241 4.71726 20.4415 -8.94964
311 1 3.14478 3.14477 18.8691 -8.94951
312 1 4.71719 4.71718 20.4415 -8.94966
313 1 6.28968 3.14479 18.8691 -8.94968
314 1 7.86209 4.71717 20.4415 -8.94961
315 1 9.43452 3.14476 18.8691 -8.94962
316 1 11.007 4.71718 20.4415 -8.94963
317 1 12.5794 3.14478 18.8691 -8.94963
318 1 14.1518 4.7172 20.4415 -8.94971
319 1 15.7242 3.14477 18.8691 -8.94969
320 1 17.2967 4.71717 20.4415 -8.94948
321 1 18.8691 3.1448 18.8691 -8.94951
322 1 20.4415 4.71726 20.4415 -8.94966
323 1 22.0139 6.28968 18.8691 -8.94963
324 1 1.5724 7.8621 20.4415 -8.94963
325 1 3.14476 6.28965 18.8691 -8.9496
326 1 4.71718 7.86209 20.4415 -8.94964
327 1 6.2894 6.2894 18.8696 -8.94986
328 1 7.86184 7.86183 20.4418 -8.94991
329 1 9.43447 6.28932 18.8694 -8.94953
330 1 11.0069 7.86189 20.4417 -8.94969
331 1 12.5793 6.28942 18.8694 -8.94987
332 1 14.1522 7.86174 20.4418 -8.95003
333 1 15.7247 6.28925 18.8696 -8.94914
334 1 17.2967 7.86211 20.4415 -8.94965
335 1 18.8691 6.28967 18.8691 -8.94971
49 1 18.8691 9.43453 22.0139 -8.94965
5 1 6.28968 -9.08886e-17 22.0139 -8.94963
9 1 12.5794 -7.22026e-16 22.0139 -8.94964
15 1 22.0139 3.14484 22.0139 -8.94964
17 1 3.1448 3.1448 22.0139 -8.94958
21 1 9.43453 3.1448 22.0139 -8.94964
23 1 12.5794 3.1448 22.0139 -8.94962
27 1 18.8691 3.14481 22.0139 -8.9495
29 1 -1.80017e-06 6.28968 22.0139 -8.94963
33 1 6.28954 6.28954 22.0137 -8.94995
39 1 15.7245 6.28944 22.0137 -8.94968
46 1 9.4343 9.43436 22.0138 -8.9497
47 1 12.5795 9.43434 22.0134 -8.95123
1 1 -5.7212e-06 5.40687e-17 22.0139 -8.9496
13 1 18.8691 8.05347e-16 22.0139 -8.94961
44 1 3.14479 9.43452 22.0139 -8.9496
181 1 17.2967 1.57237 11.007 -8.94961
344 1 1.57239 11.007 1.57238 -8.94965
345 1 4.71706 11.007 1.57214 -8.94963
346 1 7.86187 11.007 1.57216 -8.94876
347 1 11.0067 11.007 1.57124 -8.94871
348 1 14.1526 11.007 1.57083 -8.94921
349 1 17.2969 11.007 1.57221 -8.94965
350 1 20.4415 11.007 1.57239 -8.94963
351 1 22.0139 12.5794 -6.03374e-06 -8.94964
352 1 1.57239 14.1518 1.57239 -8.94959
537 1 14.1519 20.4417 11.0069 -8.94961
354 1 4.71716 14.1517 1.57228 -8.94967
355 1 6.28956 12.5793 -7.13775e-05 -8.94962
356 1 7.86184 14.152 1.57135 -8.9514
688 3 10.1841 11.007 9.40659 2.36639
358 1 11.0067 14.1523 1.57126 -8.94984
511 1 18.8691 18.8691 9.43452 -8.94966
360 1 14.1525 14.1525 1.57085 -8.95093
361 1 15.7244 12.5794 -0.000248629 -8.94943
362 1 17.2968 14.1519 1.57222 -8.94962
510 1 15.7245 18.8694 9.4345 -8.94964
364 1 20.4415 14.1518 1.57239 -8.94961
509 1 12.5798 18.8697 9.43434 -8.94887
366 1 1.5724 17.2966 1.5724 -8.94971
367 1 3.14482 15.7242 -8.56492e-06 -8.94966
368 1 4.71703 17.2969 1.57205 -8.94952
508 1 9.43476 18.8706 9.43445 -8.94804
370 1 7.86208 17.2968 1.57217 -8.9494
371 1 9.43447 15.7244 -0.000216754 -8.94957
372 1 11.007 17.2969 1.57217 -8.94956
373 1 12.5794 15.7244 -0.000181593 -8.94955
374 1 14.1518 17.2968 1.57224 -8.94983
507 1 6.28871 18.8709 9.43435 -8.94915
376 1 17.2969 17.2969 1.57217 -8.94888
377 1 18.8691 15.7242 -2.50226e-05 -8.94969
378 1 20.4415 17.2967 1.57239 -8.94961
506 1 3.14461 18.8693 9.43454 -8.94969
380 1 1.57239 20.4415 1.57239 -8.94951
505 1 22.0139 18.8691 9.43453 -8.94962
382 1 4.71726 20.4415 1.5724 -8.94971
383 1 6.28968 18.8691 -2.49511e-05 -8.94962
384 1 7.8621 20.4415 1.57239 -8.94963
504 1 18.8694 15.7245 9.43449 -8.94952
386 1 11.007 20.4415 1.57238 -8.94964
503 1 15.7255 15.7256 9.43433 -8.94692
388 1 14.1518 20.4415 1.57239 -8.94961
389 1 15.7242 18.8691 -2.05862e-05 -8.94972
390 1 17.2967 20.4415 1.57238 -8.94959
502 1 12.579 15.7253 9.43365 -8.94841
392 1 20.4415 20.4415 1.57242 -8.94964
393 1 1.57216 11.007 4.71703 -8.94955
394 1 4.71628 11.007 4.71609 -8.94724
395 1 7.86335 11.007 4.71809 -8.9475
396 1 11.0104 11.007 4.71647 -9.00053
397 1 14.158 11.007 4.71111 -8.94337
398 1 17.2983 11.007 4.71646 -8.94913
399 1 20.4417 11.007 4.71715 -8.94975
400 1 -4.09491e-06 12.5794 3.14479 -8.94962
401 1 1.57224 14.1518 4.71713 -8.94961
402 1 3.14462 12.5794 3.14461 -8.94934
403 1 4.71645 14.1516 4.7166 -8.95083
404 1 6.28936 12.5789 3.1443 -8.94948
405 1 7.8587 14.1551 4.7101 -8.95462
406 1 9.4343 12.5795 3.1432 -8.95024
407 1 11.0063 14.1544 4.71203 -8.95103
408 1 12.5808 12.5804 3.13883 -8.95797
409 1 14.1604 14.1604 4.7086 -8.93134
410 1 15.7254 12.5798 3.14361 -8.94846
411 1 17.2984 14.1526 4.7165 -8.95053
412 1 18.8693 12.5794 3.14466 -8.94947
413 1 20.4417 14.1519 4.71718 -8.94989
414 1 22.0139 15.7242 3.14481 -8.94967
415 1 1.57207 17.2968 4.71706 -8.94961
416 1 3.14467 15.7242 3.14468 -8.94999
417 1 4.71557 17.2983 4.71553 -8.94569
418 1 6.28865 15.7252 3.14289 -8.95003
419 1 7.86203 17.2977 4.71643 -8.94952
420 1 9.43435 15.7252 3.14357 -8.94827
421 1 11.0071 17.2979 4.71631 -8.94833
422 1 12.5794 15.725 3.14376 -8.94959
423 1 14.1528 17.2986 4.71626 -8.95001
424 1 15.7259 15.726 3.14315 -8.94569
425 1 17.2968 17.2968 4.71721 -8.94987
426 1 18.8694 15.7244 3.14465 -8.94965
427 1 20.4415 17.2967 4.71724 -8.94968
428 1 22.0139 18.8691 3.14481 -8.9496
429 1 1.57239 20.4415 4.71725 -8.94966
430 1 3.14458 18.8693 3.14458 -8.9489
431 1 4.71707 20.4418 4.71706 -8.94974
432 1 6.28966 18.8692 3.14468 -8.94982
433 1 7.86212 20.4417 4.71712 -8.94955
434 1 9.43452 18.8693 3.14463 -8.94957
435 1 11.007 20.4417 4.71708 -8.94957
436 1 12.5794 18.8693 3.14465 -8.9494
437 1 14.1519 20.4417 4.71715 -8.95
438 1 15.7244 18.8694 3.14462 -8.94954
439 1 17.2967 20.4415 4.71727 -8.94965
440 1 18.8691 18.8691 3.14483 -8.9497
441 1 20.4415 20.4415 4.71726 -8.94963
442 1 1.57187 11.007 7.8618 -8.94867
443 1 4.71697 11.007 7.86135 -8.94173
444 1 7.87599 11.007 7.86834 -8.88466
445 1 11.0971 11.007 7.63866 -8.12119
446 1 14.1625 11.007 7.85721 -8.97219
447 1 17.299 11.007 7.86242 -8.95154
448 1 20.4418 11.007 7.86212 -8.94996
449 1 22.0138 12.5794 6.28958 -8.94981
450 1 1.57128 14.1519 7.86194 -8.95108
451 1 3.14389 12.5791 6.28919 -8.94944
452 1 4.71004 14.154 7.86012 -8.95667
453 1 6.28691 12.577 6.28841 -8.95125
454 1 7.82538 14.1847 7.82989 -8.85166
455 1 9.42321 12.596 6.28463 -8.91199
456 1 11.0187 14.1586 7.84369 -8.90705
457 1 12.6158 12.611 6.25587 -8.85641
458 1 14.1561 14.1544 7.86287 -8.94833
459 1 15.7312 12.581 6.28775 -8.95689
460 1 17.2977 14.1522 7.86241 -8.94999
461 1 18.8701 12.5795 6.28956 -8.95103
462 1 20.4415 14.1519 7.8621 -8.94987
463 1 22.0137 15.7243 6.2896 -8.9499
464 1 1.57211 17.2968 7.86206 -8.94949
465 1 3.14304 15.725 6.28884 -8.95039
466 1 4.71592 17.298 7.86155 -8.94819
467 1 6.28109 15.7327 6.28101 -8.9311
468 1 7.86072 17.3026 7.86096 -8.95788
469 1 9.43498 15.7294 6.28694 -8.95035
470 1 11.0071 17.2985 7.86185 -8.95069
471 1 12.5829 15.7315 6.28618 -8.95409
472 1 14.1523 17.2975 7.86237 -8.94934
473 1 15.7253 15.7251 6.28961 -8.95013
474 1 17.2969 17.2969 7.86204 -8.94929
475 1 18.8693 15.7243 6.28969 -8.94968
476 1 20.4415 17.2967 7.86209 -8.94961
477 1 -3.30572e-05 18.8691 6.28968 -8.94961
478 1 1.57239 20.4415 7.86211 -8.94966
479 1 3.14461 18.8693 6.28958 -8.94956
480 1 4.71703 20.4418 7.86201 -8.94943
481 1 6.28903 18.8707 6.28898 -8.95091
482 1 7.86204 20.4423 7.862 -8.95099
483 1 9.43479 18.8703 6.28919 -8.94979
484 1 11.0071 20.4419 7.86202 -8.9497
485 1 12.5796 18.8702 6.28946 -8.9514
486 1 14.1519 20.4417 7.86209 -8.94955
487 1 15.7243 18.8693 6.28972 -8.94962
488 1 17.2967 20.4415 7.86209 -8.94962
489 1 18.8691 18.8691 6.28967 -8.94958
490 1 20.4415 20.4415 7.86211 -8.94964
491 1 22.0135 12.5794 9.43452 -8.95
492 1 3.14224 12.5791 9.43438 -8.95174
493 1 6.27827 12.5851 9.43339 -8.97109
494 1 9.34908 12.8142 9.43441 -8.13554
495 1 12.571 12.5817 9.42481 -8.92898
496 1 15.7247 12.5796 9.43492 -8.945
497 1 18.8696 12.5796 9.43454 -8.94886
498 1 -0.000229519 15.7243 9.43453 -8.94978
499 1 3.14308 15.7251 9.43451 -8.94926
500 1 6.28282 15.7311 9.43367 -8.94264
501 1 9.43107 15.7251 9.43452 -9.00298
526 1 1.57212 17.2968 11.007 -8.94946
527 1 4.71598 17.2979 11.0074 -8.94866
530 1 14.1524 17.2975 11.0065 -8.94962
531 1 17.2969 17.2969 11.0069 -8.94933
532 1 20.4415 17.2967 11.007 -8.94961
534 1 4.71705 20.4417 11.007 -8.94945
517 1 17.2984 11.007 11.0065 -8.94909
518 1 20.4417 11.007 11.0069 -8.94975
512 1 1.57176 11.007 11.0072 -8.94889
513 1 4.71628 11.007 11.0072 -8.94341
514 1 7.87131 11.007 10.9939 -8.90945
515 1 11.1571 11.007 11.1383 -8.46203
516 1 14.1547 11.007 11.0132 -9.02601
391 1 18.8691 18.8691 22.0139 -8.9495
387 1 12.5794 18.8691 22.0139 -8.94962
519 1 1.57128 14.1519 11.0071 -8.95117
520 1 4.70982 14.1537 11.0087 -8.95798
521 1 7.82262 14.1869 11.0353 -8.883
522 1 11.0231 14.1616 11.0215 -8.95895
523 1 14.1561 14.154 11.0043 -8.95222
524 1 17.2979 14.1524 11.0066 -8.94964
525 1 20.4416 14.1519 11.0069 -8.9499
687 2 10.1806 11.007 12.6197 0.885593
686 1 20.4415 20.4415 20.4415 -8.94961
528 1 7.86 17.3037 11.0073 -8.95678
529 1 11.0077 17.2997 11.0064 -8.94982
685 1 18.8691 18.8691 18.8691 -8.94951
684 1 17.2966 20.4415 20.4415 -8.94966
683 1 15.7242 18.8691 18.8691 -8.94969
533 1 1.57238 20.4415 11.007 -8.94965
682 1 14.1518 20.4415 20.4415 -8.94964
535 1 7.86194 20.4425 11.007 -8.95114
536 1 11.0072 20.4421 11.0069 -8.94982
681 1 12.5794 18.8691 18.8691 -8.94963
680 1 11.007 20.4415 20.4415 -8.94964
539 1 20.4415 20.4415 11.007 -8.94964
540 1 1.572 11.007 14.152 -8.9497
541 1 4.71543 11.007 14.1531 -8.94786
542 1 7.86033 11.007 14.1536 -8.9778
543 1 11.0333 11.007 14.2232 -9.25619
544 1 14.1566 11.007 14.1572 -8.9936
545 1 17.2984 11.007 14.1526 -8.94821
546 1 20.4417 11.007 14.1519 -8.94973
547 1 -8.54394e-05 12.5794 12.5795 -8.94983
548 1 1.57217 14.1518 14.1519 -8.94969
549 1 3.14374 12.5791 12.5798 -8.949
550 1 4.71596 14.1516 14.1524 -8.9521
551 1 6.28718 12.5761 12.5803 -9.00238
552 1 7.85483 14.1587 14.1628 -8.99058
553 1 9.41005 12.6405 12.5799 -9.19851
554 1 11.0084 14.1554 14.1585 -9.00166
555 1 12.6188 12.6142 12.6141 -8.90185
556 1 14.1619 14.1616 14.1606 -8.9293
557 1 15.7317 12.5809 12.5811 -8.95887
558 1 17.2987 14.1527 14.1526 -8.9508
559 1 18.8702 12.5795 12.5795 -8.95131
560 1 20.4417 14.1519 14.1519 -8.94998
561 1 22.0137 15.7243 12.5794 -8.9499
562 1 1.57207 17.2968 14.152 -8.94961
563 1 3.14302 15.7251 12.5802 -8.95029
564 1 4.71551 17.2983 14.1535 -8.94582
565 1 6.28107 15.7328 12.5879 -8.93076
566 1 7.86129 17.299 14.1533 -8.94904
567 1 9.43487 15.7378 12.5818 -8.9633
568 1 11.0077 17.2989 14.1533 -8.9467
569 1 12.5832 15.7325 12.583 -8.95427
570 1 14.1531 17.299 14.1528 -8.95012
571 1 15.7254 15.7252 12.5792 -8.95018
572 1 17.2969 17.2968 14.1518 -8.94998
573 1 18.8693 15.7244 12.5794 -8.94956
574 1 20.4415 17.2967 14.1518 -8.94967
575 1 -3.32579e-05 18.8691 12.5794 -8.94961
576 1 1.57239 20.4415 14.1518 -8.94967
577 1 3.14462 18.8693 12.5795 -8.94962
578 1 4.71705 20.4418 14.152 -8.9497
579 1 6.28895 18.8708 12.5801 -8.95061
580 1 7.86202 20.4419 14.152 -8.94972
581 1 9.43479 18.8716 12.5798 -8.95218
582 1 11.0071 20.4419 14.1521 -8.94959
583 1 12.5797 18.8705 12.5796 -8.95141
584 1 14.1519 20.4418 14.1519 -8.95004
585 1 15.7244 18.8693 12.5793 -8.9496
586 1 17.2967 20.4415 14.1518 -8.94965
587 1 18.8691 18.8691 12.5794 -8.9496
588 1 20.4415 20.4415 14.1518 -8.94963
589 1 1.5723 11.007 17.2967 -8.94962
590 1 4.71672 11.007 17.2972 -8.94906
591 1 7.8617 11.007 17.2978 -8.9495
592 1 11.0068 11.007 17.3098 -8.96773
593 1 14.1528 11.007 17.2986 -8.94894
594 1 17.297 11.007 17.2969 -8.94942
595 1 20.4415 11.007 17.2967 -8.94963
596 1 22.0139 12.5794 15.7243 -8.94969
597 1 1.57232 14.1518 17.2967 -8.94959
598 1 3.14427 12.5795 15.7246 -8.94956
599 1 4.71683 14.1519 17.297 -8.94939
600 1 6.28785 12.5792 15.7258 -8.94907
601 1 7.8611 14.1527 17.299 -8.95125
602 1 9.43077 12.5825 15.7282 -8.99888
603 1 11.0064 14.1524 17.2984 -8.95013
604 1 12.5865 12.5868 15.7361 -8.98448
605 1 14.1538 14.1539 17.2996 -8.94806
606 1 15.7261 12.5797 15.7254 -8.95049
607 1 17.297 14.1519 17.2969 -8.94994
608 1 18.8694 12.5794 15.7244 -8.94958
609 1 20.4415 14.1518 17.2967 -8.94965
610 1 1.37361e-05 15.7242 15.7243 -8.9497
611 1 1.57238 17.2967 17.2967 -8.94975
612 1 3.14454 15.7243 15.7244 -8.95021
613 1 4.71685 17.2971 17.2972 -8.94912
614 1 6.28767 15.7262 15.7271 -8.94821
615 1 7.86209 17.2969 17.297 -8.9497
616 1 9.43454 15.7258 15.7255 -8.94919
617 1 11.0069 17.297 17.2971 -8.94944
618 1 12.5799 15.7263 15.7258 -8.95096
619 1 14.152 17.2971 17.297 -8.9499
620 1 15.7262 15.7262 15.7261 -8.9452
621 1 17.297 17.2969 17.2969 -8.94883
622 1 18.8695 15.7245 15.7244 -8.94962
623 1 20.4415 17.2967 17.2967 -8.9496
624 1 22.0139 18.8691 15.7242 -8.9496
625 1 1.57239 20.4415 17.2967 -8.94953
626 1 3.14457 18.8693 15.7245 -8.94896
627 1 4.71722 20.4415 17.2967 -8.94966
628 1 6.28946 18.8695 15.7246 -8.94971
629 1 7.8621 20.4415 17.2967 -8.94963
630 1 9.43453 18.8695 15.7245 -8.94949
631 1 11.0069 20.4415 17.2967 -8.94964
632 1 12.5795 18.8696 15.7246 -8.94942
633 1 14.1518 20.4416 17.2967 -8.94961
634 1 15.7245 18.8695 15.7245 -8.94951
635 1 17.2967 20.4415 17.2967 -8.94958
636 1 18.8691 18.8691 15.7242 -8.94972
637 1 20.4415 20.4415 17.2966 -8.94964
638 1 1.57241 11.007 20.4415 -8.94964
639 1 4.71716 11.007 20.4416 -8.94963
640 1 7.86196 11.007 20.4417 -8.94948
641 1 11.0068 11.007 20.4432 -8.9529
642 1 14.1521 11.007 20.4416 -8.94958
643 1 17.2967 11.007 20.4415 -8.94962
644 1 20.4415 11.007 20.4415 -8.94964
645 1 -1.07321e-05 12.5794 18.8691 -8.94964
646 1 1.5724 14.1518 20.4415 -8.94963
647 1 3.14474 12.5794 18.8692 -8.9496
648 1 4.71718 14.1518 20.4415 -8.94964
649 1 6.28935 12.5794 18.8695 -8.94987
650 1 7.86184 14.1521 20.4418 -8.94991
651 1 9.4336 12.5802 18.8708 -8.94799
652 1 11.0069 14.152 20.4417 -8.94969
653 1 12.5803 12.5804 18.8717 -8.95058
654 1 14.1522 14.1522 20.4418 -8.95003
655 1 15.7245 12.5794 18.8693 -8.9496
656 1 17.2967 14.1518 20.4415 -8.94965
657 1 18.8691 12.5794 18.8691 -8.94963
658 1 20.4415 14.1518 20.4415 -8.94964
659 1 22.0139 15.7242 18.8691 -8.94963
660 1 1.57241 17.2966 20.4415 -8.94964
661 1 3.14476 15.7243 18.8691 -8.9496
662 1 4.71719 17.2967 20.4415 -8.94966
663 1 6.2894 15.7245 18.8696 -8.94986
664 1 7.86209 17.2967 20.4415 -8.94961
665 1 9.43447 15.7246 18.8694 -8.94953
666 1 11.007 17.2967 20.4415 -8.94963
667 1 12.5793 15.7245 18.8694 -8.94987
668 1 14.1518 17.2967 20.4415 -8.94971
669 1 15.7247 15.7246 18.8696 -8.94914
670 1 17.2967 17.2967 20.4415 -8.94948
671 1 18.8691 15.7242 18.8691 -8.94971
672 1 20.4415 17.2966 20.4415 -8.94966
673 1 2.38121e-06 18.8691 18.8691 -8.94964
674 1 1.57241 20.4415 20.4415 -8.9496
675 1 3.14478 18.8691 18.8691 -8.94951
676 1 4.71727 20.4415 20.4415 -8.94965
677 1 6.28968 18.8691 18.8691 -8.94968
678 1 7.86211 20.4415 20.4415 -8.94964
679 1 9.43452 18.8691 18.8691 -8.94962
357 1 9.4343 12.5795 22.0138 -8.9497
359 1 12.5795 12.5796 22.0134 -8.95123
363 1 18.8691 12.5794 22.0139 -8.94965
365 1 -1.80017e-06 15.7242 22.0139 -8.94963
369 1 6.28954 15.7244 22.0137 -8.94995
375 1 15.7245 15.7245 22.0137 -8.94968
379 1 22.0139 18.8691 22.0139 -8.94964
381 1 3.1448 18.8691 22.0139 -8.94958
385 1 9.43453 18.8691 22.0139 -8.94964
353 1 3.14479 12.5794 22.0139 -8.9496
538 1 17.2967 20.4415 11.007 -8.94961
