ITEM: TIMESTEP
117
ITEM: NUMBER OF ATOMS
688
ITEM: BOX BOUNDS pp pp pp
0.0000000000000000e+00 2.2013900999999997e+01
0.0000000000000000e+00 2.2013900999999997e+01
0.0000000000000000e+00 2.2013900999999997e+01
ITEM: ATOMS id type x y z c_pot
189 1 20.4413 4.71646 11.0071 -8.94957
2 1 1.57161 1.57197 1.57168 -8.94906
175 1 18.8691 9.43448 9.43478 -8.94783
4 1 4.71649 1.57182 1.57151 -8.94957
174 1 15.7213 9.43546 9.435 -8.94365
6 1 7.86178 1.57179 1.57158 -8.94943
7 1 9.43444 5.33335e-16 -0.000296765 -8.94951
8 1 11.0071 1.57176 1.57164 -8.94947
173 1 12.5624 9.43177 9.42137 -8.93717
10 1 14.1523 1.5717 1.57174 -8.94947
11 1 15.7247 -6.60216e-16 -0.000234171 -8.94955
12 1 17.2975 1.57166 1.57177 -8.94943
188 1 17.2979 4.71602 11.007 -8.94896
14 1 20.4416 1.57204 1.57206 -8.94946
172 1 9.35678 9.17584 9.43107 -8.13238
16 1 1.57184 4.7168 1.57165 -8.94986
171 1 6.282 9.42487 9.43335 -8.97112
18 1 4.71556 4.7158 1.57037 -8.94953
19 1 6.28907 3.14404 -0.000506623 -8.94947
20 1 7.8613 4.71572 1.5707 -8.94911
170 1 3.14236 9.43471 9.43443 -8.95096
22 1 11.0071 4.71552 1.57075 -8.94933
169 1 22.0132 9.43466 9.43459 -8.94934
24 1 14.1531 4.71523 1.57063 -8.94969
25 1 15.7251 3.14373 -0.000445012 -8.94963
26 1 17.2988 4.71522 1.57091 -8.94814
168 1 18.8699 6.28874 9.43455 -8.94967
28 1 20.4422 4.71655 1.57182 -8.94954
167 1 15.7268 6.28728 9.43415 -8.94634
30 1 1.57218 7.86199 1.57184 -8.94939
31 1 3.14433 6.28956 -0.000351215 -8.94977
32 1 4.71656 7.86224 1.5716 -8.94966
166 1 12.5802 6.28652 9.43167 -8.94504
34 1 7.86145 7.86151 1.57045 -8.95266
35 1 9.43397 6.28843 -0.000740912 -8.94966
36 1 11.0069 7.86057 1.56969 -8.95085
37 1 12.5798 6.28826 -0.000886923 -8.94978
38 1 14.1545 7.85982 1.56845 -8.95171
165 1 9.42889 6.28895 9.43345 -9.00823
40 1 17.2991 7.86084 1.57072 -8.94906
41 1 18.8703 6.28888 -0.000444791 -8.94942
42 1 20.4424 7.86166 1.57173 -8.9494
43 1 22.0142 9.43442 -0.000282723 -8.94952
187 1 14.1533 4.71519 11.0064 -8.94885
45 1 6.2891 9.43465 -9.51988e-06 -8.94932
164 1 6.27678 6.27694 9.4334 -8.94058
163 1 3.13924 6.28661 9.43444 -8.94923
48 1 15.7264 9.43382 -0.00109361 -8.94925
162 1 -0.00146937 6.28885 9.43454 -8.95009
50 1 -0.000480691 2.39204e-16 3.14439 -8.94946
51 1 1.5713 1.57184 4.71648 -8.94939
52 1 3.14369 5.83348e-16 3.14373 -8.94948
53 1 4.71564 1.57093 4.71566 -8.95002
54 1 6.28908 1.30055e-15 3.14375 -8.94954
55 1 7.86161 1.57102 4.7159 -8.94965
56 1 9.43451 1.00671e-15 3.14382 -8.94952
57 1 11.0073 1.57112 4.71605 -8.94961
58 1 12.5798 3.7293e-16 3.14398 -8.9495
59 1 14.1527 1.57107 4.71647 -8.95073
60 1 15.725 3.1645e-16 3.14418 -8.95006
61 1 17.2973 1.57181 4.71696 -8.94964
62 1 18.8694 -2.59815e-17 3.14456 -8.94963
63 1 20.4414 1.57206 4.71696 -8.94948
64 1 22.0133 3.14418 3.14413 -8.94953
65 1 1.57029 4.71596 4.71582 -8.94973
66 1 3.1428 3.1432 3.14289 -8.94804
67 1 4.7118 4.71226 4.71209 -8.944
68 1 6.28843 3.14298 3.14293 -8.94953
69 1 7.86006 4.71269 4.71354 -8.94867
70 1 9.4343 3.143 3.14315 -8.94933
71 1 11.0077 4.71302 4.71369 -8.94756
72 1 12.5801 3.14289 3.14327 -8.94909
73 1 14.1557 4.7115 4.71332 -8.94947
74 1 15.726 3.14248 3.14324 -8.94934
75 1 17.2986 4.71543 4.71631 -8.95007
76 1 18.8698 3.1439 3.1443 -8.94971
77 1 20.4416 4.71652 4.71678 -8.94995
78 1 22.014 6.28927 3.14415 -8.94985
79 1 1.57151 7.86205 4.7165 -8.94986
80 1 3.1433 6.28912 3.14336 -8.9504
81 1 4.71444 7.86172 4.71514 -8.95143
82 1 6.28622 6.28649 3.13968 -8.95035
83 1 7.85598 7.85517 4.70628 -8.95524
84 1 9.43374 6.28642 3.14084 -8.94772
85 1 11.0082 7.85608 4.70694 -8.95204
86 1 12.5813 6.28615 3.14021 -8.94939
87 1 14.166 7.84933 4.70313 -8.93075
88 1 15.7296 6.28469 3.13999 -8.94465
89 1 17.3019 7.85967 4.71464 -8.95074
90 1 18.8712 6.28829 3.14358 -8.94967
91 1 20.4427 7.8616 4.71658 -8.9502
92 1 0.000352954 9.43438 3.14407 -8.94953
93 1 3.14401 9.43454 3.14384 -8.94891
94 1 6.28926 9.43525 3.14417 -8.94912
95 1 9.4354 9.43429 3.14395 -8.951
96 1 12.5834 9.43291 3.13607 -8.95969
97 1 15.7294 9.43279 3.1403 -8.94741
98 1 18.8715 9.43397 3.14339 -8.94925
99 1 22.0133 1.48771e-15 6.28935 -8.94948
100 1 1.57114 1.57179 7.86175 -8.94945
101 1 3.14338 1.7367e-15 6.28884 -8.94929
102 1 4.71519 1.57074 7.86125 -8.9493
103 1 6.28868 8.64996e-16 6.28868 -8.95074
104 1 7.86137 1.57028 7.86153 -8.95154
105 1 9.43459 -2.94639e-16 6.28883 -8.9503
106 1 11.0071 1.57134 7.86177 -8.94965
107 1 12.5798 -4.23614e-16 6.28928 -8.95047
108 1 14.1526 1.57154 7.86181 -8.94943
109 1 15.7249 -1.09873e-15 6.28945 -8.94953
110 1 17.2973 1.57191 7.86199 -8.94951
111 1 18.8693 -9.2363e-16 6.28952 -8.94951
112 1 20.4413 1.57205 7.86197 -8.94952
113 1 -0.000864389 3.14408 6.28921 -8.94943
114 1 1.56998 4.71577 7.8615 -8.94934
115 1 3.14243 3.14292 6.28833 -8.94905
116 1 4.71185 4.71228 7.85998 -8.94709
117 1 6.28693 3.1402 6.28723 -8.95171
118 1 7.85783 4.70724 7.85965 -8.95964
119 1 9.43434 3.14116 6.28778 -8.95046
120 1 11.0064 4.71342 7.86054 -8.95256
121 1 12.5802 3.14169 6.28857 -8.95256
122 1 14.1536 4.71459 7.86144 -8.94839
123 1 15.7254 3.14331 6.28928 -8.94945
124 1 17.298 4.71595 7.86189 -8.94897
125 1 18.8695 3.14409 6.28947 -8.94941
126 1 20.4413 4.71646 7.86193 -8.9496
127 1 22.0127 6.28904 6.28916 -8.95038
128 1 1.56949 7.86159 7.86173 -8.95201
129 1 3.1395 6.28704 6.28707 -8.95103
130 1 4.7057 7.85735 7.85903 -8.95873
131 1 6.2746 6.27508 6.27576 -8.92799
132 1 7.81759 7.82075 7.82416 -8.84416
133 1 9.433 6.27894 6.28257 -8.94897
134 1 11.024 7.84785 7.83266 -8.89588
135 1 12.5873 6.27711 6.28031 -8.95158
136 1 14.1586 7.85801 7.86052 -8.95037
137 1 15.7283 6.28661 6.28805 -8.95065
138 1 17.2988 7.86148 7.86266 -8.95095
139 1 18.8703 6.28888 6.28952 -8.95018
140 1 20.4415 7.86184 7.8622 -8.95013
141 1 22.0139 9.43457 6.28929 -8.94992
142 1 3.14323 9.43517 6.28894 -8.94975
143 1 6.28625 9.43663 6.28838 -8.95136
144 1 9.42239 9.41147 6.28409 -8.91106
145 1 12.6206 9.40121 6.2502 -8.86205
146 1 15.7354 9.4318 6.28487 -8.95732
147 1 18.872 9.43419 6.28907 -8.95168
148 1 -0.000653962 1.62088e-15 9.4345 -8.9495
149 1 3.14327 1.11619e-15 9.43444 -8.94942
150 1 6.28815 7.88693e-16 9.43425 -8.95042
151 1 9.43452 4.34137e-16 9.43424 -8.94859
152 1 12.58 -2.85373e-16 9.43421 -8.9495
153 1 15.725 1.74941e-15 9.43443 -8.94961
154 1 18.8693 6.47006e-16 9.4345 -8.94953
155 1 22.013 3.14404 9.4345 -8.94949
156 1 3.14229 3.14288 9.43444 -8.94943
157 1 6.28597 3.13967 9.43403 -8.94935
158 1 9.43397 3.14256 9.43408 -8.94655
159 1 12.5803 3.143 9.43382 -8.94874
160 1 15.7253 3.14358 9.43437 -8.94956
161 1 18.8694 3.14411 9.4345 -8.94953
177 1 4.71521 1.57078 11.0075 -8.94933
180 1 14.1526 1.57165 11.0068 -8.94934
184 1 4.71201 4.7124 11.0086 -8.94756
183 1 1.57001 4.71578 11.0075 -8.94929
3 1 3.14428 -1.19641e-15 -0.000342272 -8.94955
176 1 1.57115 1.57179 11.0072 -8.94943
343 1 18.8705 9.43422 18.8698 -8.94944
178 1 7.86121 1.56993 11.007 -8.95171
179 1 11.0073 1.57094 11.0066 -8.94994
342 1 15.7266 9.43374 18.8712 -8.94934
341 1 12.5814 9.43281 18.8748 -8.95138
182 1 20.4413 1.57205 11.007 -8.94951
340 1 9.43322 9.43332 18.8724 -8.94745
339 1 6.28901 9.43468 18.8697 -8.94962
185 1 7.85727 4.70577 11.0077 -8.95822
186 1 11.0077 4.71163 11.0062 -8.95187
338 1 3.14434 9.43452 18.8695 -8.94952
337 1 0.000283409 9.43443 18.8694 -8.94954
336 1 20.4422 7.86178 20.4415 -8.94949
190 1 1.56959 7.86163 11.0073 -8.95205
191 1 4.706 7.85749 11.0096 -8.95964
192 1 7.81666 7.81894 11.0395 -8.87665
193 1 11.0304 7.84375 11.0264 -8.9457
194 1 14.1568 7.85961 11.0045 -8.9552
195 1 17.2983 7.86144 11.0065 -8.95039
196 1 20.4414 7.86184 11.007 -8.95007
197 1 22.0133 3.14729e-17 12.5797 -8.94948
198 1 1.57128 1.57185 14.1525 -8.94942
199 1 3.14337 6.88971e-17 12.5801 -8.94934
200 1 4.71551 1.57089 14.1533 -8.94993
201 1 6.28852 -1.61013e-16 12.5802 -8.95065
202 1 7.86139 1.57054 14.1532 -8.9499
203 1 9.43461 1.10239e-15 12.58 -8.95114
204 1 11.0076 1.57064 14.1531 -8.94974
205 1 12.58 1.66881e-15 12.5795 -8.95044
206 1 14.1529 1.57095 14.1525 -8.95071
207 1 15.7249 1.912e-15 12.5794 -8.94949
208 1 17.2973 1.57187 14.152 -8.94966
209 1 18.8693 7.71342e-16 12.5795 -8.9495
210 1 20.4414 1.57207 14.1521 -8.94948
211 1 -0.00086476 3.14409 12.5798 -8.94942
212 1 1.5703 4.71598 14.1532 -8.9497
213 1 3.14246 3.14295 12.5806 -8.94913
214 1 4.71182 4.71226 14.1567 -8.94427
215 1 6.28683 3.1399 12.5815 -8.95133
216 1 7.85942 4.71073 14.156 -8.94841
217 1 9.43447 3.13917 12.5808 -8.95327
218 1 11.0087 4.71116 14.1559 -8.94595
219 1 12.5804 3.14127 12.5801 -8.9524
220 1 14.1561 4.71117 14.1555 -8.94957
221 1 15.7253 3.14352 12.5794 -8.94944
222 1 17.2985 4.71567 14.1524 -8.95035
223 1 18.8695 3.14413 12.5795 -8.9494
224 1 20.4415 4.71656 14.1522 -8.94988
225 1 22.0127 6.28906 12.5799 -8.95032
226 1 1.57154 7.86215 14.1524 -8.94999
227 1 3.13967 6.28706 12.5818 -8.95082
228 1 4.71447 7.86171 14.1535 -8.95295
229 1 6.27531 6.27481 12.5923 -8.92796
230 1 7.85299 7.85039 14.1658 -8.99258
231 1 9.43417 6.26886 12.5846 -8.96331
232 1 11.0112 7.85369 14.1641 -9.0006
233 1 12.5874 6.27622 12.5877 -8.95138
234 1 14.1665 7.8486 14.1655 -8.92974
235 1 15.7276 6.28732 12.5799 -8.95093
236 1 17.3015 7.85998 14.154 -8.9516
237 1 18.8701 6.28894 12.5795 -8.9499
238 1 20.4425 7.86175 14.1523 -8.95034
239 1 -6.53192e-05 9.43465 12.5797 -8.94969
240 1 3.14377 9.43531 12.5799 -8.94938
241 1 6.28829 9.43711 12.5795 -9.00327
242 1 9.41502 9.3621 12.5773 -9.19265
243 1 12.6199 9.39901 12.6179 -8.91299
244 1 15.7329 9.43297 12.583 -8.96055
245 1 18.8711 9.43449 12.5797 -8.95173
246 1 -0.000504462 7.79354e-17 15.7247 -8.94949
247 1 1.57156 1.57198 17.2974 -8.94911
248 1 3.14359 5.32232e-16 15.7253 -8.94947
249 1 4.71628 1.57172 17.2978 -8.94949
250 1 6.28884 -1.28078e-15 15.7255 -8.94959
251 1 7.8617 1.57166 17.2978 -8.94945
252 1 9.43451 -1.71054e-15 15.7254 -8.94953
253 1 11.0071 1.57159 17.2977 -8.94947
254 1 12.5801 -2.91071e-16 15.7253 -8.94961
255 1 14.1526 1.5715 17.2976 -8.94952
256 1 15.7252 5.34632e-16 15.7249 -8.95006
257 1 17.2976 1.57164 17.2974 -8.94942
258 1 18.8694 -6.09111e-16 15.7245 -8.94967
259 1 20.4416 1.57205 17.297 -8.94954
260 1 22.0133 3.14419 15.7249 -8.94954
261 1 1.57174 4.71679 17.2975 -8.94993
262 1 3.14272 3.1432 15.7262 -8.94815
263 1 4.7152 4.71551 17.2992 -8.94903
264 1 6.28803 3.14245 15.7265 -8.94939
265 1 7.86116 4.71526 17.2989 -8.94947
266 1 9.43436 3.14238 15.7261 -8.9493
267 1 11.0072 4.71496 17.2991 -8.94918
268 1 12.5805 3.14217 15.7262 -8.9492
269 1 14.1536 4.71446 17.2991 -8.9498
270 1 15.7262 3.14236 15.7258 -8.94931
271 1 17.2989 4.71519 17.2983 -8.9482
272 1 18.8698 3.14397 15.7247 -8.94983
273 1 20.4422 4.71656 17.2973 -8.94961
274 1 7.56246e-07 6.28933 15.7248 -8.94998
275 1 1.57215 7.86204 17.2972 -8.94949
276 1 3.14312 6.2891 15.7257 -8.9507
277 1 4.71638 7.86223 17.2977 -8.94996
278 1 6.28517 6.28528 15.7305 -8.94817
279 1 7.86046 7.86021 17.3008 -8.95229
280 1 9.43407 6.2849 15.7286 -8.94854
281 1 11.0067 7.85981 17.3019 -8.95067
282 1 12.5823 6.28406 15.7301 -8.95082
283 1 14.1567 7.85751 17.3037 -8.94795
284 1 15.7298 6.28452 15.7292 -8.94431
285 1 17.2994 7.86077 17.2986 -8.9497
286 1 18.8712 6.28838 15.7254 -8.94985
287 1 20.4425 7.8617 17.2973 -8.94955
288 1 22.0142 9.43443 15.7249 -8.94959
289 1 3.14414 9.43466 15.7251 -8.94914
290 1 6.2893 9.43554 15.7249 -8.95039
291 1 9.43235 9.43005 15.7287 -9.00013
292 1 12.5898 9.42502 15.742 -8.98454
293 1 15.7296 9.43294 15.7289 -8.95005
294 1 18.8714 9.43408 15.7255 -8.94949
295 1 22.0136 -8.69254e-16 18.8694 -8.9492
296 1 1.57196 1.5721 20.4416 -8.9493
297 1 3.1442 5.73231e-17 18.8696 -8.94948
298 1 4.71674 1.57204 20.4416 -8.94954
299 1 6.28924 -1.54528e-15 18.8697 -8.9495
300 1 7.86181 1.57196 20.4417 -8.94951
301 1 9.43443 -1.3744e-15 18.8697 -8.94952
302 1 11.007 1.57192 20.4417 -8.9495
303 1 12.5797 -1.01553e-15 18.8697 -8.94951
304 1 14.1522 1.57189 20.4417 -8.9495
305 1 15.7248 -1.25554e-16 18.8696 -8.94954
306 1 17.2973 1.5719 20.4416 -8.94952
307 1 18.8696 5.79562e-16 18.8694 -8.94932
308 1 20.4418 1.57213 20.4415 -8.94919
309 1 -4.46575e-05 3.14446 18.8695 -8.94957
310 1 1.57217 4.71702 20.4416 -8.94973
311 1 3.1439 3.14411 18.8699 -8.94936
312 1 4.71634 4.71655 20.4418 -8.95001
313 1 6.28898 3.14394 18.87 -8.94955
314 1 7.86146 4.7162 20.4418 -8.94956
315 1 9.43429 3.14373 18.87 -8.94947
316 1 11.0069 4.71602 20.4419 -8.94955
317 1 12.5797 3.14364 18.87 -8.94945
318 1 14.1525 4.71588 20.4419 -8.94975
319 1 15.7253 3.14354 18.8699 -8.94959
320 1 17.2981 4.71591 20.4418 -8.94922
321 1 18.87 3.144 18.8696 -8.94913
322 1 20.4421 4.71677 20.4416 -8.94951
323 1 22.0141 6.28942 18.8694 -8.94955
324 1 1.57227 7.862 20.4415 -8.94952
325 1 3.14425 6.28955 18.8696 -8.94984
326 1 4.71664 7.86213 20.4417 -8.94962
327 1 6.2884 6.28868 18.8709 -8.95051
328 1 7.8612 7.86147 20.4425 -8.95022
329 1 9.43388 6.28802 18.871 -8.94956
330 1 11.0066 7.86109 20.4427 -8.95008
331 1 12.5799 6.28786 18.8713 -8.95011
332 1 14.1534 7.86055 20.4428 -8.95055
333 1 15.7266 6.28738 18.8714 -8.94899
334 1 17.2983 7.86126 20.4417 -8.94937
335 1 18.8704 6.28884 18.8697 -8.94953
49 1 18.8704 9.43421 22.0134 -8.94942
5 1 6.2893 -5.30227e-16 22.0136 -8.94949
9 1 12.5796 -9.47501e-16 22.0136 -8.94951
15 1 22.0139 3.14446 22.0136 -8.94954
17 1 3.144 3.14415 22.0133 -8.94945
21 1 9.43431 3.1439 22.0135 -8.94947
23 1 12.5797 3.14382 22.0135 -8.94943
27 1 18.87 3.14398 22.0136 -8.94903
29 1 0.000225433 6.28941 22.0136 -8.94949
33 1 6.2887 6.28897 22.0131 -8.95069
39 1 15.7261 6.28789 22.0129 -8.94991
46 1 9.4341 9.43435 22.0146 -8.94933
47 1 12.5802 9.43399 22.0134 -8.95195
1 1 -0.00023377 -1.85887e-16 22.0137 -8.94914
13 1 18.8696 1.30195e-15 22.0136 -8.94929
44 1 3.14438 9.43451 22.0136 -8.94952
181 1 17.2973 1.57193 11.0069 -8.94949
344 1 1.57224 11.007 1.57182 -8.94953
345 1 4.71659 11.007 1.57174 -8.94959
346 1 7.86195 11.007 1.57299 -8.94801
347 1 11.0073 11.007 1.57251 -8.94683
348 1 14.1553 11.007 1.5684 -8.94952
349 1 17.2992 11.007 1.57067 -8.94936
350 1 20.4425 11.007 1.57169 -8.94947
351 1 22.0142 12.5795 -0.000282723 -8.94952
352 1 1.57218 14.1519 1.57184 -8.94939
537 1 14.1526 20.4422 11.0068 -8.94934
354 1 4.71656 14.1517 1.5716 -8.94966
355 1 6.2891 12.5793 -9.51988e-06 -8.94932
356 1 7.86145 14.1524 1.57045 -8.95266
688 3 10.1366 11.007 9.40081 2.34596
358 1 11.0069 14.1533 1.56969 -8.95085
511 1 18.8694 18.8698 9.4345 -8.94953
360 1 14.1545 14.1541 1.56845 -8.95171
361 1 15.7264 12.5801 -0.00109361 -8.94925
362 1 17.2991 14.1531 1.57072 -8.94906
510 1 15.7253 18.8703 9.43437 -8.94956
364 1 20.4424 14.1522 1.57173 -8.9494
509 1 12.5803 18.8709 9.43382 -8.94874
366 1 1.57184 17.2971 1.57165 -8.94986
367 1 3.14433 15.7243 -0.000351215 -8.94977
368 1 4.71556 17.2981 1.57037 -8.94953
508 1 9.43397 18.8713 9.43408 -8.94655
370 1 7.8613 17.2982 1.5707 -8.94911
371 1 9.43397 15.7255 -0.000740912 -8.94966
372 1 11.0071 17.2984 1.57075 -8.94933
373 1 12.5798 15.7256 -0.000886923 -8.94978
374 1 14.1531 17.2987 1.57063 -8.94969
507 1 6.28597 18.8742 9.43403 -8.94935
376 1 17.2988 17.2987 1.57091 -8.94814
377 1 18.8703 15.725 -0.000444791 -8.94942
378 1 20.4422 17.2974 1.57182 -8.94954
506 1 3.14229 18.871 9.43444 -8.94943
380 1 1.57161 20.4419 1.57168 -8.94906
505 1 22.013 18.8699 9.4345 -8.94949
382 1 4.71649 20.4421 1.57151 -8.94957
383 1 6.28907 18.8699 -0.000506623 -8.94947
384 1 7.86178 20.4421 1.57158 -8.94943
504 1 18.8699 15.7252 9.43455 -8.94967
386 1 11.0071 20.4421 1.57164 -8.94947
503 1 15.7268 15.7266 9.43415 -8.94634
388 1 14.1523 20.4422 1.57174 -8.94947
389 1 15.7251 18.8702 -0.000445012 -8.94963
390 1 17.2975 20.4422 1.57177 -8.94943
502 1 12.5802 15.7274 9.43167 -8.94504
392 1 20.4416 20.4419 1.57206 -8.94946
393 1 1.57185 11.007 4.7163 -8.9495
394 1 4.71574 11.007 4.7155 -8.946
395 1 7.86501 11.007 4.72052 -8.94581
396 1 11.0129 11.007 4.72091 -9
397 1 14.164 11.007 4.70586 -8.94154
398 1 17.3022 11.007 4.71422 -8.94908
399 1 20.443 11.007 4.71638 -8.94997
400 1 0.000352954 12.5795 3.14407 -8.94953
401 1 1.57151 14.1518 4.7165 -8.94986
402 1 3.14401 12.5794 3.14384 -8.94891
403 1 4.71444 14.1522 4.71514 -8.95143
404 1 6.28926 12.5786 3.14417 -8.94912
405 1 7.85598 14.1587 4.70628 -8.95524
406 1 9.4354 12.5796 3.14395 -8.951
407 1 11.0082 14.1578 4.70694 -8.95204
408 1 12.5834 12.581 3.13607 -8.95969
409 1 14.166 14.1646 4.70313 -8.93075
410 1 15.7294 12.5811 3.1403 -8.94741
411 1 17.3019 14.1542 4.71464 -8.95074
412 1 18.8715 12.5799 3.14339 -8.94925
413 1 20.4427 14.1523 4.71658 -8.9502
414 1 22.014 15.7246 3.14415 -8.94985
415 1 1.57029 17.2979 4.71582 -8.94973
416 1 3.1433 15.7248 3.14336 -8.9504
417 1 4.7118 17.3016 4.71209 -8.944
418 1 6.28622 15.7274 3.13968 -8.95035
419 1 7.86006 17.3012 4.71354 -8.94867
420 1 9.43374 15.7275 3.14084 -8.94772
421 1 11.0077 17.3009 4.71369 -8.94756
422 1 12.5813 15.7277 3.14021 -8.94939
423 1 14.1557 17.3024 4.71332 -8.94947
424 1 15.7296 15.7292 3.13999 -8.94465
425 1 17.2986 17.2985 4.71631 -8.95007
426 1 18.8712 15.7256 3.14358 -8.94967
427 1 20.4416 17.2974 4.71678 -8.94995
428 1 22.0133 18.8697 3.14413 -8.94953
429 1 1.5713 20.4421 4.71648 -8.94939
430 1 3.1428 18.8707 3.14289 -8.94804
431 1 4.71564 20.443 4.71566 -8.95002
432 1 6.28843 18.8709 3.14293 -8.94953
433 1 7.86161 20.4429 4.7159 -8.94965
434 1 9.4343 18.8709 3.14315 -8.94933
435 1 11.0073 20.4428 4.71605 -8.94961
436 1 12.5801 18.871 3.14327 -8.94909
437 1 14.1527 20.4428 4.71647 -8.95073
438 1 15.726 18.8714 3.14324 -8.94934
439 1 17.2973 20.4421 4.71696 -8.94964
440 1 18.8698 18.87 3.1443 -8.94971
441 1 20.4414 20.4418 4.71696 -8.94948
442 1 1.57208 11.007 7.86179 -8.94757
443 1 4.71992 11.007 7.86263 -8.94078
444 1 7.88307 11.007 7.87147 -8.87047
445 1 11.0922 11.007 7.64413 -8.16083
446 1 14.1613 11.007 7.8533 -8.97209
447 1 17.2994 11.007 7.8621 -8.95147
448 1 20.4421 11.007 7.86217 -8.94948
449 1 22.0139 12.5793 6.28929 -8.94992
450 1 1.56949 14.1523 7.86173 -8.95201
451 1 3.14323 12.5787 6.28894 -8.94975
452 1 4.7057 14.1566 7.85903 -8.95873
453 1 6.28625 12.5773 6.28838 -8.95136
454 1 7.81759 14.1931 7.82416 -8.84416
455 1 9.42239 12.6024 6.28409 -8.91106
456 1 11.024 14.166 7.83266 -8.89588
457 1 12.6206 12.6127 6.2502 -8.86205
458 1 14.1586 14.1559 7.86052 -8.95037
459 1 15.7354 12.5821 6.28487 -8.95732
460 1 17.2988 14.1524 7.86266 -8.95095
461 1 18.872 12.5797 6.28907 -8.95168
462 1 20.4415 14.1521 7.8622 -8.95013
463 1 22.0127 15.7249 6.28916 -8.95038
464 1 1.56998 17.2981 7.8615 -8.94934
465 1 3.1395 15.7269 6.28707 -8.95103
466 1 4.71185 17.3016 7.85998 -8.94709
467 1 6.2746 15.7388 6.27576 -8.92799
468 1 7.85783 17.3067 7.85965 -8.95964
469 1 9.433 15.735 6.28257 -8.94897
470 1 11.0064 17.3005 7.86054 -8.95256
471 1 12.5873 15.7368 6.28031 -8.95158
472 1 14.1536 17.2993 7.86144 -8.94839
473 1 15.7283 15.7273 6.28805 -8.95065
474 1 17.298 17.2979 7.86189 -8.94897
475 1 18.8703 15.725 6.28952 -8.95018
476 1 20.4413 17.2974 7.86193 -8.9496
477 1 -0.000864389 18.8698 6.28921 -8.94943
478 1 1.57114 20.4421 7.86175 -8.94945
479 1 3.14243 18.871 6.28833 -8.94905
480 1 4.71519 20.4432 7.86125 -8.9493
481 1 6.28693 18.8737 6.28723 -8.95171
482 1 7.86137 20.4436 7.86153 -8.95154
483 1 9.43434 18.8727 6.28778 -8.95046
484 1 11.0071 20.4426 7.86177 -8.94965
485 1 12.5802 18.8722 6.28857 -8.95256
486 1 14.1526 20.4424 7.86181 -8.94943
487 1 15.7254 18.8706 6.28928 -8.94945
488 1 17.2973 20.442 7.86199 -8.94951
489 1 18.8695 18.8698 6.28947 -8.94941
490 1 20.4413 20.4419 7.86197 -8.94952
491 1 22.0132 12.5792 9.43459 -8.94934
492 1 3.14236 12.5792 9.43443 -8.95096
493 1 6.282 12.589 9.43335 -8.97112
494 1 9.35678 12.8381 9.43107 -8.13238
495 1 12.5624 12.5821 9.42137 -8.93717
496 1 15.7213 12.5784 9.435 -8.94365
497 1 18.8691 12.5794 9.43478 -8.94783
498 1 -0.00146937 15.725 9.43454 -8.95009
499 1 3.13924 15.7273 9.43444 -8.94923
500 1 6.27678 15.737 9.4334 -8.94058
501 1 9.42889 15.7249 9.43345 -9.00823
526 1 1.57001 17.2981 11.0075 -8.94929
527 1 4.71201 17.3015 11.0086 -8.94756
530 1 14.1533 17.2987 11.0064 -8.94885
531 1 17.2979 17.2979 11.007 -8.94896
532 1 20.4413 17.2974 11.0071 -8.94957
534 1 4.71521 20.4431 11.0075 -8.94933
517 1 17.2964 11.007 11.0067 -8.94687
518 1 20.4416 11.007 11.0069 -8.94859
512 1 1.5722 11.007 11.0072 -8.94734
513 1 4.7207 11.007 11.0057 -8.94135
514 1 7.88292 11.007 10.9897 -8.90493
515 1 11.1431 11.007 11.1295 -8.49325
516 1 14.1458 11.007 11.0146 -9.02221
391 1 18.87 18.8699 22.0136 -8.94903
387 1 12.5797 18.8701 22.0135 -8.94943
519 1 1.56959 14.1523 11.0073 -8.95205
520 1 4.706 14.1564 11.0096 -8.95964
521 1 7.81666 14.195 11.0395 -8.87665
522 1 11.0304 14.1702 11.0264 -8.9457
523 1 14.1568 14.1543 11.0045 -8.9552
524 1 17.2983 14.1525 11.0065 -8.95039
525 1 20.4414 14.1521 11.007 -8.95007
687 2 10.1506 11.007 12.6472 0.844357
686 1 20.4418 20.4418 20.4415 -8.94919
528 1 7.85727 17.3081 11.0077 -8.95822
529 1 11.0077 17.3023 11.0062 -8.95187
685 1 18.87 18.8699 18.8696 -8.94913
684 1 17.2973 20.442 20.4416 -8.94952
683 1 15.7253 18.8704 18.8699 -8.94959
533 1 1.57115 20.4421 11.0072 -8.94943
682 1 14.1522 20.442 20.4417 -8.9495
535 1 7.86121 20.444 11.007 -8.95171
536 1 11.0073 20.443 11.0066 -8.94994
681 1 12.5797 18.8703 18.87 -8.94945
680 1 11.007 20.442 20.4417 -8.9495
539 1 20.4413 20.4418 11.007 -8.94951
540 1 1.57205 11.007 14.1526 -8.94927
541 1 4.71687 11.007 14.153 -8.9451
542 1 7.869 11.007 14.1468 -8.97748
543 1 11.0391 11.007 14.2237 -9.25946
544 1 14.1597 11.007 14.1626 -8.99156
545 1 17.301 11.007 14.1546 -8.94812
546 1 20.4427 11.007 14.1525 -8.9498
547 1 -6.53192e-05 12.5792 12.5797 -8.94969
548 1 1.57154 14.1518 14.1524 -8.94999
549 1 3.14377 12.5786 12.5799 -8.94938
550 1 4.71447 14.1522 14.1535 -8.95295
551 1 6.28829 12.5768 12.5795 -9.00327
552 1 7.85299 14.1635 14.1658 -8.99258
553 1 9.41502 12.6518 12.5773 -9.19265
554 1 11.0112 14.1602 14.1641 -9.0006
555 1 12.6199 12.6149 12.6179 -8.91299
556 1 14.1665 14.1653 14.1655 -8.92974
557 1 15.7329 12.5809 12.583 -8.96055
558 1 17.3015 14.1539 14.154 -8.9516
559 1 18.8711 12.5794 12.5797 -8.95173
560 1 20.4425 14.1522 14.1523 -8.95034
561 1 22.0127 15.7248 12.5799 -8.95032
562 1 1.5703 17.2979 14.1532 -8.9497
563 1 3.13967 15.7268 12.5818 -8.95082
564 1 4.71182 17.3016 14.1567 -8.94427
565 1 6.27531 15.7391 12.5923 -8.92796
566 1 7.85942 17.3032 14.156 -8.94841
567 1 9.43417 15.745 12.5846 -8.96331
568 1 11.0087 17.3027 14.1559 -8.94595
569 1 12.5874 15.7377 12.5877 -8.95138
570 1 14.1561 17.3027 14.1555 -8.94957
571 1 15.7276 15.7266 12.5799 -8.95093
572 1 17.2985 17.2982 14.1524 -8.95035
573 1 18.8701 15.725 12.5795 -8.9499
574 1 20.4415 17.2973 14.1522 -8.94988
575 1 -0.00086476 18.8698 12.5798 -8.94942
576 1 1.57128 20.4421 14.1525 -8.94942
577 1 3.14246 18.871 12.5806 -8.94913
578 1 4.71551 20.443 14.1533 -8.94993
579 1 6.28683 18.874 12.5815 -8.95133
580 1 7.86139 20.4434 14.1532 -8.9499
581 1 9.43447 18.8747 12.5808 -8.95327
582 1 11.0076 20.4433 14.1531 -8.94974
583 1 12.5804 18.8726 12.5801 -8.9524
584 1 14.1529 20.4429 14.1525 -8.95071
585 1 15.7253 18.8704 12.5794 -8.94944
586 1 17.2973 20.442 14.152 -8.94966
587 1 18.8695 18.8698 12.5795 -8.9494
588 1 20.4414 20.4418 14.1521 -8.94948
589 1 1.57223 11.007 17.2973 -8.94957
590 1 4.71659 11.007 17.2976 -8.94915
591 1 7.86251 11.007 17.2971 -8.94751
592 1 11.0076 11.007 17.3121 -8.96821
593 1 14.1556 11.007 17.303 -8.94871
594 1 17.2993 11.007 17.2987 -8.94922
595 1 20.4425 11.007 17.2974 -8.94952
596 1 22.0142 12.5795 15.7249 -8.94959
597 1 1.57215 14.1519 17.2972 -8.94949
598 1 3.14414 12.5792 15.7251 -8.94914
599 1 4.71638 14.1517 17.2977 -8.94996
600 1 6.2893 12.5784 15.7249 -8.95039
601 1 7.86046 14.1537 17.3008 -8.95229
602 1 9.43235 12.5839 15.7287 -9.00013
603 1 11.0067 14.1541 17.3019 -8.95067
604 1 12.5898 12.5889 15.742 -8.98454
605 1 14.1567 14.1564 17.3037 -8.94795
606 1 15.7296 12.581 15.7289 -8.95005
607 1 17.2994 14.1531 17.2986 -8.9497
608 1 18.8714 12.5798 15.7255 -8.94949
609 1 20.4425 14.1522 17.2973 -8.94955
610 1 7.56246e-07 15.7246 15.7248 -8.94998
611 1 1.57174 17.2971 17.2975 -8.94993
612 1 3.14312 15.7248 15.7257 -8.9507
613 1 4.7152 17.2984 17.2992 -8.94903
614 1 6.28517 15.7286 15.7305 -8.94817
615 1 7.86116 17.2986 17.2989 -8.94947
616 1 9.43407 15.729 15.7286 -8.94854
617 1 11.0072 17.2989 17.2991 -8.94918
618 1 12.5823 15.7298 15.7301 -8.95082
619 1 14.1536 17.2994 17.2991 -8.9498
620 1 15.7298 15.7294 15.7292 -8.94431
621 1 17.2989 17.2987 17.2983 -8.9482
622 1 18.8712 15.7255 15.7254 -8.94985
623 1 20.4422 17.2973 17.2973 -8.94961
624 1 22.0133 18.8697 15.7249 -8.94954
625 1 1.57156 20.4419 17.2974 -8.94911
626 1 3.14272 18.8707 15.7262 -8.94815
627 1 4.71628 20.4422 17.2978 -8.94949
628 1 6.28803 18.8715 15.7265 -8.94939
629 1 7.8617 20.4422 17.2978 -8.94945
630 1 9.43436 18.8715 15.7261 -8.9493
631 1 11.0071 20.4423 17.2977 -8.94947
632 1 12.5805 18.8717 15.7262 -8.9492
633 1 14.1526 20.4424 17.2976 -8.94952
634 1 15.7262 18.8715 15.7258 -8.94931
635 1 17.2976 20.4423 17.2974 -8.94942
636 1 18.8698 18.8699 15.7247 -8.94983
637 1 20.4416 20.4418 17.297 -8.94954
638 1 1.57228 11.007 20.4416 -8.94956
639 1 4.71664 11.007 20.4417 -8.94964
640 1 7.86144 11.007 20.4423 -8.94859
641 1 11.0067 11.007 20.445 -8.95212
642 1 14.1536 11.007 20.4428 -8.94992
643 1 17.2984 11.007 20.4418 -8.94941
644 1 20.4422 11.007 20.4416 -8.9495
645 1 0.000283409 12.5795 18.8694 -8.94954
646 1 1.57227 14.1519 20.4415 -8.94952
647 1 3.14434 12.5794 18.8695 -8.94952
648 1 4.71664 14.1518 20.4417 -8.94962
649 1 6.28901 12.5792 18.8697 -8.94962
650 1 7.8612 14.1524 20.4425 -8.95022
651 1 9.43322 12.5806 18.8724 -8.94745
652 1 11.0066 14.1528 20.4427 -8.95008
653 1 12.5814 12.5811 18.8748 -8.95138
654 1 14.1534 14.1533 20.4428 -8.95055
655 1 15.7266 12.5802 18.8712 -8.94934
656 1 17.2983 14.1526 20.4417 -8.94937
657 1 18.8705 12.5797 18.8698 -8.94944
658 1 20.4422 14.1521 20.4415 -8.94949
659 1 22.0141 15.7245 18.8694 -8.94955
660 1 1.57217 17.2969 20.4416 -8.94973
661 1 3.14425 15.7244 18.8696 -8.94984
662 1 4.71634 17.2974 20.4418 -8.95001
663 1 6.2884 15.7252 18.8709 -8.95051
664 1 7.86146 17.2977 20.4418 -8.94956
665 1 9.43388 15.7259 18.871 -8.94956
666 1 11.0069 17.2979 20.4419 -8.94955
667 1 12.5799 15.726 18.8713 -8.95011
668 1 14.1525 17.298 20.4419 -8.94975
669 1 15.7266 15.7265 18.8714 -8.94899
670 1 17.2981 17.298 20.4418 -8.94922
671 1 18.8704 15.7251 18.8697 -8.94953
672 1 20.4421 17.2971 20.4416 -8.94951
673 1 -4.46575e-05 18.8694 18.8695 -8.94957
674 1 1.57196 20.4418 20.4416 -8.9493
675 1 3.1439 18.8698 18.8699 -8.94936
676 1 4.71674 20.4419 20.4416 -8.94954
677 1 6.28898 18.87 18.87 -8.94955
678 1 7.86181 20.4419 20.4417 -8.94951
679 1 9.43429 18.8702 18.87 -8.94947
357 1 9.4341 12.5796 22.0146 -8.94933
359 1 12.5802 12.5799 22.0134 -8.95195
363 1 18.8704 12.5797 22.0134 -8.94942
365 1 0.000225433 15.7245 22.0136 -8.94949
369 1 6.2887 15.7249 22.0131 -8.95069
375 1 15.7261 15.726 22.0129 -8.94991
379 1 22.0139 18.8694 22.0136 -8.94954
381 1 3.144 18.8698 22.0133 -8.94945
385 1 9.43431 18.87 22.0135 -8.94947
353 1 3.14438 12.5794 22.0136 -8.94952
538 1 17.2973 20.442 11.0069 -8.94949
