ITEM: TIMESTEP
52
ITEM: NUMBER OF ATOMS
688
ITEM: BOX BOUNDS pp pp pp
0.0000000000000000e+00 2.2013900999999997e+01
0.0000000000000000e+00 2.2013900999999997e+01
0.0000000000000000e+00 2.2013900999999997e+01
ITEM: ATOMS id type x y z c_pot
189 1 20.4415 4.71726 11.007 -8.94963
2 1 1.57242 1.57242 1.57242 -8.94963
175 1 18.8692 9.43449 9.43453 -8.94958
4 1 4.71727 1.57242 1.57242 -8.94964
174 1 15.725 9.43406 9.43463 -8.94739
6 1 7.86211 1.57242 1.57242 -8.94963
7 1 9.43453 7.9541e-17 2.47535e-08 -8.94963
8 1 11.007 1.57242 1.57242 -8.94964
173 1 12.5792 9.43104 9.4322 -8.93867
10 1 14.1518 1.57242 1.57242 -8.94963
11 1 15.7242 7.91866e-16 1.11217e-07 -8.94963
12 1 17.2966 1.57242 1.57242 -8.94963
188 1 17.2966 4.71726 11.007 -8.94966
14 1 20.4415 1.57242 1.57242 -8.94963
172 1 9.35451 9.24409 9.43498 -8.10953
16 1 1.57242 4.71726 1.57242 -8.94964
171 1 6.28081 9.43231 9.4339 -8.96692
18 1 4.71725 4.71725 1.5724 -8.94961
19 1 6.28969 3.14484 5.57855e-07 -8.94964
20 1 7.86211 4.71726 1.57242 -8.94963
170 1 3.14398 9.43455 9.43449 -8.95159
22 1 11.007 4.71726 1.57241 -8.94965
169 1 22.0138 9.43453 9.43453 -8.94983
24 1 14.1518 4.71727 1.57242 -8.94973
25 1 15.7242 3.14484 4.58503e-07 -8.94965
26 1 17.2966 4.71725 1.57241 -8.94954
168 1 18.8691 6.28967 9.43452 -8.94961
28 1 20.4415 4.71726 1.57242 -8.94963
167 1 15.7244 6.28947 9.43445 -8.94875
30 1 1.57242 7.86211 1.57242 -8.94963
31 1 3.14484 6.28969 8.35324e-07 -8.94964
32 1 4.71726 7.86211 1.57242 -8.94965
166 1 12.5793 6.28922 9.4344 -8.95072
34 1 7.86204 7.86204 1.57224 -8.94995
35 1 9.43453 6.28968 -9.77379e-06 -8.94963
36 1 11.0069 7.86205 1.5723 -8.94959
37 1 12.5794 6.28969 -2.88217e-06 -8.94963
38 1 14.1519 7.86199 1.57219 -8.9498
165 1 9.43365 6.28268 9.43463 -8.98829
40 1 17.2966 7.86211 1.57242 -8.94971
41 1 18.8691 6.28969 2.02593e-07 -8.94964
42 1 20.4415 7.86211 1.57242 -8.94963
43 1 22.0139 9.43453 2.16241e-08 -8.94963
187 1 14.1519 4.7171 11.0069 -8.94992
45 1 6.28968 9.43453 -1.59702e-06 -8.94967
164 1 6.28822 6.28811 9.43435 -8.948
163 1 3.14469 6.28961 9.43454 -8.94956
48 1 15.7242 9.43453 -8.62306e-06 -8.94962
162 1 -8.15174e-06 6.28968 9.43453 -8.94965
50 1 7.45663e-08 2.90923e-16 3.14484 -8.94963
51 1 1.57242 1.57242 4.71727 -8.94964
52 1 3.14484 -1.71814e-16 3.14484 -8.94962
53 1 4.71725 1.5724 4.71725 -8.94962
54 1 6.28969 8.21904e-16 3.14484 -8.94964
55 1 7.86211 1.57242 4.71726 -8.94963
56 1 9.43453 6.37169e-16 3.14484 -8.94964
57 1 11.007 1.57241 4.71726 -8.94963
58 1 12.5794 1.08383e-15 3.14484 -8.94963
59 1 14.1518 1.5724 4.71726 -8.94965
60 1 15.7242 1.50702e-15 3.14484 -8.94963
61 1 17.2966 1.57242 4.71726 -8.94964
62 1 18.8691 8.43521e-16 3.14484 -8.94963
63 1 20.4415 1.57242 4.71726 -8.94963
64 1 22.0139 3.14484 3.14484 -8.94963
65 1 1.5724 4.71725 4.71725 -8.94962
66 1 3.14483 3.14483 3.14483 -8.94954
67 1 4.71707 4.71707 4.71707 -8.94859
68 1 6.28969 3.14485 3.14485 -8.94973
69 1 7.86214 4.71723 4.71724 -8.95004
70 1 9.43453 3.14484 3.14484 -8.94965
71 1 11.0069 4.71715 4.71715 -8.94939
72 1 12.5794 3.14484 3.14484 -8.94962
73 1 14.1519 4.71702 4.71715 -8.94971
74 1 15.7242 3.14482 3.14483 -8.94961
75 1 17.2966 4.71726 4.71726 -8.94971
76 1 18.8691 3.14484 3.14484 -8.94964
77 1 20.4415 4.71726 4.71726 -8.94964
78 1 22.0139 6.28969 3.14484 -8.94964
79 1 1.57241 7.86211 4.71726 -8.94963
80 1 3.14484 6.28969 3.14484 -8.94971
81 1 4.71719 7.8621 4.71721 -8.95003
82 1 6.28957 6.28957 3.1446 -8.94969
83 1 7.86128 7.86131 4.7152 -8.95212
84 1 9.43453 6.28957 3.14473 -8.94938
85 1 11.0065 7.8616 4.71611 -8.95124
86 1 12.5793 6.28966 3.14481 -8.95003
87 1 14.1541 7.85979 4.71498 -8.93992
88 1 15.7244 6.28949 3.14464 -8.94858
89 1 17.2969 7.86201 4.71717 -8.94983
90 1 18.8691 6.28968 3.14483 -8.94962
91 1 20.4415 7.8621 4.71726 -8.94967
92 1 4.08263e-07 9.43453 3.14484 -8.94963
93 1 3.14484 9.43453 3.14484 -8.94964
94 1 6.28962 9.43459 3.14475 -8.94978
95 1 9.4341 9.43411 3.14399 -8.94904
96 1 12.58 9.43396 3.1429 -8.953
97 1 15.7243 9.43451 3.14478 -8.94976
98 1 18.8691 9.43453 3.14484 -8.94962
99 1 22.0139 1.23204e-15 6.28969 -8.94963
100 1 1.57242 1.57242 7.86211 -8.94964
101 1 3.14484 1.31907e-16 6.28969 -8.94963
102 1 4.71726 1.57241 7.86211 -8.94961
103 1 6.28967 1.59173e-15 6.28967 -8.9497
104 1 7.86208 1.57228 7.86208 -8.95003
105 1 9.43453 2.44146e-15 6.28968 -8.94965
106 1 11.007 1.57234 7.86207 -8.94971
107 1 12.5794 6.0709e-16 6.28968 -8.94969
108 1 14.1518 1.57241 7.86211 -8.94964
109 1 15.7242 7.31222e-16 6.28969 -8.94963
110 1 17.2966 1.57242 7.86211 -8.94963
111 1 18.8691 1.20107e-15 6.28969 -8.94963
112 1 20.4415 1.57242 7.86211 -8.94963
113 1 5.58717e-07 3.14484 6.28969 -8.94963
114 1 1.57242 4.71726 7.86211 -8.94963
115 1 3.14484 3.14484 6.28969 -8.9497
116 1 4.71718 4.71719 7.86208 -8.94969
117 1 6.28957 3.14461 6.28957 -8.94981
118 1 7.86154 4.71534 7.86154 -8.95306
119 1 9.43457 3.14472 6.28963 -8.94959
120 1 11.0074 4.71642 7.86169 -8.94911
121 1 12.5794 3.14466 6.28962 -8.94996
122 1 14.1519 4.71716 7.86215 -8.94974
123 1 15.7242 3.14484 6.28969 -8.94965
124 1 17.2966 4.71726 7.8621 -8.94961
125 1 18.8691 3.14484 6.28969 -8.94963
126 1 20.4415 4.71726 7.86211 -8.94963
127 1 22.0139 6.28968 6.28968 -8.94966
128 1 1.57228 7.86208 7.86208 -8.95002
129 1 3.14462 6.28958 6.28958 -8.94978
130 1 4.71528 7.86151 7.86154 -8.95283
131 1 6.28743 6.28743 6.28737 -8.94
132 1 7.84291 7.84421 7.84386 -8.87261
133 1 9.43493 6.28854 6.2892 -8.95121
134 1 11.0129 7.85853 7.85458 -8.92328
135 1 12.5802 6.28764 6.2889 -8.95221
136 1 14.1531 7.86126 7.86233 -8.94862
137 1 15.7243 6.28963 6.28967 -8.94995
138 1 17.2968 7.86204 7.86213 -8.94967
139 1 18.8691 6.28968 6.28969 -8.94963
140 1 20.4415 7.8621 7.86211 -8.94967
141 1 22.0139 9.43453 6.28968 -8.94967
142 1 3.14468 9.43454 6.2896 -8.9496
143 1 6.28853 9.43495 6.28896 -8.94967
144 1 9.42848 9.42701 6.28613 -8.92365
145 1 12.5987 9.41626 6.27155 -8.872
146 1 15.7261 9.43404 6.28919 -8.95325
147 1 18.8692 9.43451 6.28966 -8.95003
148 1 -2.19895e-08 7.45009e-16 9.43453 -8.94963
149 1 3.14484 1.68811e-15 9.43453 -8.94964
150 1 6.28967 1.87325e-15 9.43453 -8.94966
151 1 9.43453 6.89598e-16 9.43453 -8.95004
152 1 12.5794 1.02791e-15 9.43453 -8.94963
153 1 15.7242 -3.10233e-16 9.43453 -8.94964
154 1 18.8691 1.05635e-15 9.43453 -8.94963
155 1 22.0139 3.14484 9.43453 -8.94963
156 1 3.14484 3.14485 9.43453 -8.9497
157 1 6.28958 3.14464 9.43451 -8.94942
158 1 9.43458 3.14393 9.43453 -8.95123
159 1 12.5794 3.14476 9.43451 -8.94947
160 1 15.7242 3.14482 9.43452 -8.94962
161 1 18.8691 3.14484 9.43453 -8.94964
177 1 4.71726 1.57242 11.007 -8.94962
180 1 14.1518 1.57241 11.0069 -8.94967
184 1 4.71721 4.71723 11.007 -8.94989
183 1 1.57242 4.71726 11.007 -8.94961
3 1 3.14484 7.33708e-16 6.70412e-08 -8.94963
176 1 1.57242 1.57242 11.007 -8.94964
343 1 18.8691 9.43453 18.8691 -8.94963
178 1 7.86206 1.57226 11.007 -8.95005
179 1 11.007 1.57231 11.007 -8.94972
342 1 15.7242 9.43456 18.869 -8.94975
341 1 12.5796 9.43427 18.8695 -8.94952
182 1 20.4415 1.57242 11.007 -8.94963
340 1 9.43428 9.43427 18.8694 -8.94874
339 1 6.28964 9.43452 18.8691 -8.9498
185 1 7.86132 4.71508 11.0073 -8.95235
186 1 11.0076 4.71612 11.0071 -8.9484
338 1 3.14484 9.43453 18.8691 -8.94965
337 1 1.20941e-07 9.43453 18.8691 -8.94963
336 1 20.4415 7.86211 20.4415 -8.94963
190 1 1.57229 7.86209 11.007 -8.95004
191 1 4.71532 7.86168 11.0076 -8.95377
192 1 7.84114 7.84318 11.0226 -8.90486
193 1 11.0146 7.85737 11.0136 -8.97595
194 1 14.1537 7.86078 11.0061 -8.94903
195 1 17.2969 7.86199 11.0069 -8.94966
196 1 20.4415 7.8621 11.007 -8.94969
197 1 22.0139 -6.36838e-16 12.5794 -8.94963
198 1 1.57242 1.57242 14.1518 -8.94964
199 1 3.14484 -7.06489e-16 12.5794 -8.94964
200 1 4.71725 1.57241 14.1518 -8.94962
201 1 6.28967 1.45143e-15 12.5794 -8.94968
202 1 7.8621 1.5724 14.1518 -8.94965
203 1 9.43453 -6.1713e-16 12.5794 -8.94984
204 1 11.007 1.57239 14.1518 -8.94963
205 1 12.5794 -5.537e-16 12.5794 -8.9497
206 1 14.1518 1.5724 14.1518 -8.94967
207 1 15.7242 2.13669e-16 12.5794 -8.94964
208 1 17.2966 1.57242 14.1518 -8.94964
209 1 18.8691 3.04168e-16 12.5794 -8.94963
210 1 20.4415 1.57242 14.1518 -8.94963
211 1 3.12913e-07 3.14484 12.5794 -8.94963
212 1 1.5724 4.71725 14.1518 -8.94962
213 1 3.14484 3.14484 12.5794 -8.9497
214 1 4.71708 4.7171 14.152 -8.94872
215 1 6.28958 3.14464 12.5795 -8.94971
216 1 7.86192 4.71695 14.152 -8.94955
217 1 9.43457 3.14435 12.5794 -8.951
218 1 11.0071 4.71691 14.1521 -8.94845
219 1 12.5794 3.14462 12.5794 -8.95006
220 1 14.152 4.71694 14.1519 -8.94983
221 1 15.7242 3.14483 12.5794 -8.94964
222 1 17.2966 4.71726 14.1518 -8.94973
223 1 18.8691 3.14484 12.5794 -8.94964
224 1 20.4415 4.71726 14.1518 -8.94963
225 1 22.0139 6.28968 12.5794 -8.94967
226 1 1.57242 7.86211 14.1518 -8.94963
227 1 3.14463 6.28958 12.5795 -8.94973
228 1 4.71717 7.8622 14.1518 -8.95081
229 1 6.28765 6.2877 12.5817 -8.94049
230 1 7.85923 7.85989 14.1565 -8.98631
231 1 9.4349 6.28359 12.5799 -8.96243
232 1 11.0079 7.86145 14.1535 -9.00364
233 1 12.5803 6.28714 12.5802 -8.95312
234 1 14.1548 7.85911 14.1545 -8.93808
235 1 15.7243 6.28959 12.5794 -8.9499
236 1 17.297 7.86197 14.1519 -8.9499
237 1 18.8691 6.28968 12.5794 -8.94961
238 1 20.4415 7.8621 14.1518 -8.94969
239 1 -1.83324e-06 9.43452 12.5794 -8.94966
240 1 3.1447 9.43451 12.5795 -8.94922
241 1 6.28895 9.43596 12.58 -9.00055
242 1 9.40994 9.38521 12.5817 -9.20599
243 1 12.6038 9.41229 12.5978 -8.91296
244 1 15.7268 9.43394 12.5799 -8.95442
245 1 18.8692 9.43452 12.5794 -8.95023
246 1 4.77156e-08 -3.30169e-16 15.7242 -8.94963
247 1 1.57242 1.57242 17.2966 -8.94963
248 1 3.14484 1.07149e-15 15.7242 -8.94963
249 1 4.71726 1.57242 17.2966 -8.94964
250 1 6.28968 7.24551e-16 15.7242 -8.94964
251 1 7.86211 1.57242 17.2966 -8.94964
252 1 9.43453 9.99524e-16 15.7242 -8.94963
253 1 11.0069 1.57242 17.2966 -8.94964
254 1 12.5794 1.06835e-15 15.7242 -8.94964
255 1 14.1518 1.57242 17.2966 -8.94963
256 1 15.7242 1.79691e-15 15.7242 -8.94964
257 1 17.2966 1.57242 17.2966 -8.94963
258 1 18.8691 1.65933e-15 15.7242 -8.94963
259 1 20.4415 1.57242 17.2966 -8.94963
260 1 22.0139 3.14484 15.7242 -8.94963
261 1 1.57242 4.71727 17.2966 -8.94965
262 1 3.14483 3.14483 15.7242 -8.94956
263 1 4.71724 4.71724 17.2967 -8.94953
264 1 6.28967 3.14482 15.7242 -8.94968
265 1 7.86212 4.71727 17.2966 -8.94977
266 1 9.43453 3.14484 15.7242 -8.94964
267 1 11.0069 4.71726 17.2967 -8.94964
268 1 12.5794 3.14481 15.7242 -8.94961
269 1 14.1518 4.71725 17.2966 -8.94973
270 1 15.7242 3.14482 15.7242 -8.94961
271 1 17.2967 4.71725 17.2967 -8.94952
272 1 18.8691 3.14484 15.7242 -8.94965
273 1 20.4415 4.71726 17.2966 -8.94963
274 1 3.38162e-06 6.28969 15.7242 -8.94964
275 1 1.57241 7.8621 17.2966 -8.94963
276 1 3.14485 6.2897 15.7242 -8.9498
277 1 4.7172 7.86204 17.2967 -8.94943
278 1 6.28937 6.28936 15.7247 -8.9488
279 1 7.86194 7.86193 17.2971 -8.9502
280 1 9.43463 6.28958 15.7242 -8.95012
281 1 11.0068 7.86215 17.2967 -8.95029
282 1 12.5794 6.28937 15.7243 -8.95058
283 1 14.1521 7.86177 17.2971 -8.94876
284 1 15.7245 6.28943 15.7245 -8.94832
285 1 17.2966 7.86212 17.2966 -8.9498
286 1 18.8691 6.28967 15.7242 -8.94961
287 1 20.4415 7.86211 17.2966 -8.94964
288 1 22.0139 9.43453 15.7242 -8.94965
289 1 3.14476 9.4345 15.7243 -8.94974
290 1 6.28888 9.43424 15.7249 -8.94857
291 1 9.43244 9.43315 15.7256 -9.00069
292 1 12.5823 9.43087 15.7279 -8.98385
293 1 15.7243 9.43462 15.7242 -8.95071
294 1 18.8691 9.43453 15.7242 -8.94963
295 1 22.0139 1.64856e-15 18.8691 -8.94963
296 1 1.57242 1.57242 20.4415 -8.94963
297 1 3.14484 -1.36267e-16 18.8691 -8.94963
298 1 4.71726 1.57242 20.4415 -8.94963
299 1 6.28969 -1.44004e-15 18.8691 -8.94963
300 1 7.86211 1.57242 20.4415 -8.94963
301 1 9.43453 5.53797e-17 18.8691 -8.94963
302 1 11.007 1.57242 20.4415 -8.94963
303 1 12.5794 9.67067e-16 18.8691 -8.94963
304 1 14.1518 1.57242 20.4415 -8.94963
305 1 15.7242 6.84523e-16 18.8691 -8.94963
306 1 17.2966 1.57242 20.4415 -8.94963
307 1 18.8691 -1.04396e-16 18.8691 -8.94963
308 1 20.4415 1.57242 20.4415 -8.94963
309 1 2.74202e-07 3.14484 18.8691 -8.94963
310 1 1.57242 4.71726 20.4415 -8.94963
311 1 3.14484 3.14484 18.8691 -8.94962
312 1 4.71726 4.71726 20.4415 -8.94963
313 1 6.28969 3.14484 18.8691 -8.94965
314 1 7.86211 4.71726 20.4415 -8.94964
315 1 9.43453 3.14484 18.8691 -8.94963
316 1 11.007 4.71726 20.4415 -8.94963
317 1 12.5794 3.14484 18.8691 -8.94964
318 1 14.1518 4.71727 20.4415 -8.94965
319 1 15.7242 3.14484 18.8691 -8.94964
320 1 17.2966 4.71726 20.4415 -8.94962
321 1 18.8691 3.14484 18.8691 -8.94962
322 1 20.4415 4.71726 20.4415 -8.94963
323 1 22.0139 6.28969 18.8691 -8.94963
324 1 1.57242 7.86211 20.4415 -8.94964
325 1 3.14484 6.28968 18.8691 -8.94961
326 1 4.71726 7.8621 20.4415 -8.94964
327 1 6.28967 6.28967 18.8691 -8.94964
328 1 7.86208 7.86208 20.4415 -8.94965
329 1 9.43454 6.28967 18.8691 -8.94964
330 1 11.0069 7.86211 20.4415 -8.94963
331 1 12.5794 6.28969 18.869 -8.94978
332 1 14.1518 7.86207 20.4415 -8.94965
333 1 15.7242 6.28966 18.8691 -8.94952
334 1 17.2966 7.86211 20.4415 -8.94965
335 1 18.8691 6.28969 18.8691 -8.94965
49 1 18.8691 9.43453 22.0139 -8.94963
5 1 6.28969 -1.31895e-16 22.0139 -8.94963
9 1 12.5794 -1.18317e-15 22.0139 -8.94963
15 1 22.0139 3.14484 22.0139 -8.94963
17 1 3.14484 3.14484 22.0139 -8.94963
21 1 9.43453 3.14484 22.0139 -8.94964
23 1 12.5794 3.14484 22.0139 -8.94963
27 1 18.8691 3.14484 22.0139 -8.94963
29 1 -4.09187e-08 6.28969 22.0139 -8.94963
33 1 6.28968 6.28968 22.0139 -8.94965
39 1 15.7242 6.28967 22.0139 -8.94961
46 1 9.43448 9.43448 22.0138 -8.9497
47 1 12.5794 9.43448 22.0138 -8.95005
1 1 -4.90939e-08 5.53904e-16 22.0139 -8.94963
13 1 18.8691 3.60948e-16 22.0139 -8.94963
44 1 3.14484 9.43453 22.0139 -8.94963
181 1 17.2966 1.57242 11.007 -8.94963
344 1 1.57242 11.007 1.57242 -8.94964
345 1 4.71725 11.007 1.5724 -8.94961
346 1 7.86209 11.007 1.57237 -8.94951
347 1 11.0069 11.007 1.57152 -8.95138
348 1 14.1519 11.007 1.57225 -8.94945
349 1 17.2966 11.007 1.57242 -8.94968
350 1 20.4415 11.007 1.57242 -8.94963
351 1 22.0139 12.5794 2.16241e-08 -8.94963
352 1 1.57242 14.1518 1.57242 -8.94963
537 1 14.1518 20.4415 11.0069 -8.94967
354 1 4.71726 14.1518 1.57242 -8.94965
355 1 6.28968 12.5794 -1.59702e-06 -8.94967
356 1 7.86204 14.1519 1.57224 -8.94995
688 3 10.2055 11.007 9.41969 2.61124
358 1 11.0069 14.1518 1.5723 -8.94959
511 1 18.8691 18.8691 9.43453 -8.94964
360 1 14.1519 14.1519 1.57219 -8.9498
361 1 15.7242 12.5794 -8.62306e-06 -8.94962
362 1 17.2966 14.1518 1.57242 -8.94971
510 1 15.7242 18.8691 9.43452 -8.94962
364 1 20.4415 14.1518 1.57242 -8.94963
509 1 12.5794 18.8691 9.43451 -8.94947
366 1 1.57242 17.2966 1.57242 -8.94964
367 1 3.14484 15.7242 8.35324e-07 -8.94964
368 1 4.71725 17.2966 1.5724 -8.94961
508 1 9.43458 18.87 9.43453 -8.95123
370 1 7.86211 17.2966 1.57242 -8.94963
371 1 9.43453 15.7242 -9.77379e-06 -8.94963
372 1 11.007 17.2966 1.57241 -8.94965
373 1 12.5794 15.7242 -2.88217e-06 -8.94963
374 1 14.1518 17.2966 1.57242 -8.94973
507 1 6.28958 18.8693 9.43451 -8.94942
376 1 17.2966 17.2966 1.57241 -8.94954
377 1 18.8691 15.7242 2.02593e-07 -8.94964
378 1 20.4415 17.2966 1.57242 -8.94963
506 1 3.14484 18.8691 9.43453 -8.9497
380 1 1.57242 20.4415 1.57242 -8.94963
505 1 22.0139 18.8691 9.43453 -8.94963
382 1 4.71727 20.4415 1.57242 -8.94964
383 1 6.28969 18.8691 5.57855e-07 -8.94964
384 1 7.86211 20.4415 1.57242 -8.94963
504 1 18.8691 15.7242 9.43452 -8.94961
386 1 11.007 20.4415 1.57242 -8.94964
503 1 15.7244 15.7244 9.43445 -8.94875
388 1 14.1518 20.4415 1.57242 -8.94963
389 1 15.7242 18.8691 4.58503e-07 -8.94965
390 1 17.2966 20.4415 1.57242 -8.94963
502 1 12.5793 15.7247 9.4344 -8.95072
392 1 20.4415 20.4415 1.57242 -8.94963
393 1 1.57241 11.007 4.71725 -8.94962
394 1 4.71715 11.007 4.71711 -8.94898
395 1 7.86233 11.007 4.71708 -8.95053
396 1 11.0079 11.007 4.71014 -8.98778
397 1 14.1531 11.007 4.71591 -8.9486
398 1 17.2968 11.007 4.71718 -8.94948
399 1 20.4415 11.007 4.71726 -8.94964
400 1 4.08263e-07 12.5794 3.14484 -8.94963
401 1 1.57241 14.1518 4.71726 -8.94963
402 1 3.14484 12.5794 3.14484 -8.94964
403 1 4.71719 14.1518 4.71721 -8.95003
404 1 6.28962 12.5793 3.14475 -8.94978
405 1 7.86128 14.1526 4.7152 -8.95212
406 1 9.4341 12.5798 3.14399 -8.94904
407 1 11.0065 14.1523 4.71611 -8.95124
408 1 12.58 12.5799 3.1429 -8.953
409 1 14.1541 14.1541 4.71498 -8.93992
410 1 15.7243 12.5794 3.14478 -8.94976
411 1 17.2969 14.1519 4.71717 -8.94983
412 1 18.8691 12.5794 3.14484 -8.94962
413 1 20.4415 14.1518 4.71726 -8.94967
414 1 22.0139 15.7242 3.14484 -8.94964
415 1 1.5724 17.2966 4.71725 -8.94962
416 1 3.14484 15.7242 3.14484 -8.94971
417 1 4.71707 17.2968 4.71707 -8.94859
418 1 6.28957 15.7243 3.1446 -8.94969
419 1 7.86214 17.2967 4.71724 -8.95004
420 1 9.43453 15.7243 3.14473 -8.94938
421 1 11.0069 17.2967 4.71715 -8.94939
422 1 12.5793 15.7242 3.14481 -8.95003
423 1 14.1519 17.2969 4.71715 -8.94971
424 1 15.7244 15.7244 3.14464 -8.94858
425 1 17.2966 17.2966 4.71726 -8.94971
426 1 18.8691 15.7242 3.14483 -8.94962
427 1 20.4415 17.2966 4.71726 -8.94964
428 1 22.0139 18.8691 3.14484 -8.94963
429 1 1.57242 20.4415 4.71727 -8.94964
430 1 3.14483 18.8691 3.14483 -8.94954
431 1 4.71725 20.4415 4.71725 -8.94962
432 1 6.28969 18.8691 3.14485 -8.94973
433 1 7.86211 20.4415 4.71726 -8.94963
434 1 9.43453 18.8691 3.14484 -8.94965
435 1 11.007 20.4415 4.71726 -8.94963
436 1 12.5794 18.8691 3.14484 -8.94962
437 1 14.1518 20.4415 4.71726 -8.94965
438 1 15.7242 18.8691 3.14483 -8.94961
439 1 17.2966 20.4415 4.71726 -8.94964
440 1 18.8691 18.8691 3.14484 -8.94964
441 1 20.4415 20.4415 4.71726 -8.94963
442 1 1.57231 11.007 7.86206 -8.94956
443 1 4.7165 11.007 7.86153 -8.94648
444 1 7.86391 11.007 7.86132 -8.89805
445 1 11.0885 11.007 7.67249 -8.07819
446 1 14.1598 11.007 7.86077 -8.96907
447 1 17.2974 11.007 7.86216 -8.95143
448 1 20.4415 11.007 7.86211 -8.94981
449 1 22.0139 12.5794 6.28968 -8.94967
450 1 1.57228 14.1518 7.86208 -8.95002
451 1 3.14468 12.5794 6.2896 -8.9496
452 1 4.71528 14.1524 7.86154 -8.95283
453 1 6.28853 12.579 6.28896 -8.94967
454 1 7.84291 14.1697 7.84386 -8.87261
455 1 9.42848 12.5869 6.28613 -8.92365
456 1 11.0129 14.1554 7.85458 -8.92328
457 1 12.5987 12.5976 6.27155 -8.872
458 1 14.1531 14.1526 7.86233 -8.94862
459 1 15.7261 12.5799 6.28919 -8.95325
460 1 17.2968 14.1519 7.86213 -8.94967
461 1 18.8692 12.5794 6.28966 -8.95003
462 1 20.4415 14.1518 7.86211 -8.94967
463 1 22.0139 15.7242 6.28968 -8.94966
464 1 1.57242 17.2966 7.86211 -8.94963
465 1 3.14462 15.7243 6.28958 -8.94978
466 1 4.71718 17.2967 7.86208 -8.94969
467 1 6.28743 15.7265 6.28737 -8.94
468 1 7.86154 17.2986 7.86154 -8.95306
469 1 9.43493 15.7254 6.2892 -8.95121
470 1 11.0074 17.2975 7.86169 -8.94911
471 1 12.5802 15.7263 6.2889 -8.95221
472 1 14.1519 17.2967 7.86215 -8.94974
473 1 15.7243 15.7243 6.28967 -8.94995
474 1 17.2966 17.2966 7.8621 -8.94961
475 1 18.8691 15.7242 6.28969 -8.94963
476 1 20.4415 17.2966 7.86211 -8.94963
477 1 5.58717e-07 18.8691 6.28969 -8.94963
478 1 1.57242 20.4415 7.86211 -8.94964
479 1 3.14484 18.8691 6.28969 -8.9497
480 1 4.71726 20.4415 7.86211 -8.94961
481 1 6.28957 18.8693 6.28957 -8.94981
482 1 7.86208 20.4416 7.86208 -8.95003
483 1 9.43457 18.8692 6.28963 -8.94959
484 1 11.007 20.4416 7.86207 -8.94971
485 1 12.5794 18.8692 6.28962 -8.94996
486 1 14.1518 20.4415 7.86211 -8.94964
487 1 15.7242 18.8691 6.28969 -8.94965
488 1 17.2966 20.4415 7.86211 -8.94963
489 1 18.8691 18.8691 6.28969 -8.94963
490 1 20.4415 20.4415 7.86211 -8.94963
491 1 22.0138 12.5794 9.43453 -8.94983
492 1 3.14398 12.5794 9.43449 -8.95159
493 1 6.28081 12.5816 9.4339 -8.96692
494 1 9.35451 12.7698 9.43498 -8.10953
495 1 12.5792 12.5829 9.4322 -8.93867
496 1 15.725 12.5798 9.43463 -8.94739
497 1 18.8692 12.5794 9.43453 -8.94958
498 1 -8.15174e-06 15.7242 9.43453 -8.94965
499 1 3.14469 15.7243 9.43454 -8.94956
500 1 6.28822 15.7258 9.43435 -8.948
501 1 9.43365 15.7312 9.43463 -8.98829
526 1 1.57242 17.2966 11.007 -8.94961
527 1 4.71721 17.2967 11.007 -8.94989
530 1 14.1519 17.2968 11.0069 -8.94992
531 1 17.2966 17.2966 11.007 -8.94966
532 1 20.4415 17.2966 11.007 -8.94963
534 1 4.71726 20.4415 11.007 -8.94962
517 1 17.2974 11.007 11.0069 -8.95095
518 1 20.4415 11.007 11.0069 -8.94981
512 1 1.57227 11.007 11.007 -8.94977
513 1 4.71588 11.007 11.0074 -8.94818
514 1 7.85801 11.007 11.0026 -8.92468
515 1 11.1311 11.007 11.1356 -8.42649
516 1 14.1587 11.007 11.0099 -9.01867
391 1 18.8691 18.8691 22.0139 -8.94963
387 1 12.5794 18.8691 22.0139 -8.94963
519 1 1.57229 14.1518 11.007 -8.95004
520 1 4.71532 14.1522 11.0076 -8.95377
521 1 7.84114 14.1707 11.0226 -8.90486
522 1 11.0146 14.1565 11.0136 -8.97595
523 1 14.1537 14.1531 11.0061 -8.94903
524 1 17.2969 14.1519 11.0069 -8.94966
525 1 20.4415 14.1518 11.007 -8.94969
687 2 10.2044 11.007 12.5974 0.987017
686 1 20.4415 20.4415 20.4415 -8.94963
528 1 7.86132 17.2988 11.0073 -8.95235
529 1 11.0076 17.2978 11.0071 -8.9484
685 1 18.8691 18.8691 18.8691 -8.94962
684 1 17.2966 20.4415 20.4415 -8.94963
683 1 15.7242 18.8691 18.8691 -8.94964
533 1 1.57242 20.4415 11.007 -8.94964
682 1 14.1518 20.4415 20.4415 -8.94963
535 1 7.86206 20.4416 11.007 -8.95005
536 1 11.007 20.4416 11.007 -8.94972
681 1 12.5794 18.8691 18.8691 -8.94964
680 1 11.007 20.4415 20.4415 -8.94963
539 1 20.4415 20.4415 11.007 -8.94963
540 1 1.57237 11.007 14.1518 -8.94979
541 1 4.71657 11.007 14.152 -8.95026
542 1 7.85733 11.007 14.1558 -8.98203
543 1 11.0286 11.007 14.211 -9.25541
544 1 14.1524 11.007 14.1521 -8.99897
545 1 17.2968 11.007 14.1519 -8.94899
546 1 20.4415 11.007 14.1518 -8.94963
547 1 -1.83324e-06 12.5794 12.5794 -8.94966
548 1 1.57242 14.1518 14.1518 -8.94963
549 1 3.1447 12.5794 12.5795 -8.94922
550 1 4.71717 14.1517 14.1518 -8.95081
551 1 6.28895 12.5779 12.58 -9.00055
552 1 7.85923 14.154 14.1565 -8.98631
553 1 9.40994 12.6287 12.5817 -9.20599
554 1 11.0079 14.1525 14.1535 -9.00364
555 1 12.6038 12.6016 12.5978 -8.91296
556 1 14.1548 14.1548 14.1545 -8.93808
557 1 15.7268 12.58 12.5799 -8.95442
558 1 17.297 14.1519 14.1519 -8.9499
559 1 18.8692 12.5794 12.5794 -8.95023
560 1 20.4415 14.1518 14.1518 -8.94969
561 1 22.0139 15.7242 12.5794 -8.94967
562 1 1.5724 17.2966 14.1518 -8.94962
563 1 3.14463 15.7243 12.5795 -8.94973
564 1 4.71708 17.2968 14.152 -8.94872
565 1 6.28765 15.7262 12.5817 -8.94049
566 1 7.86192 17.2969 14.152 -8.94955
567 1 9.4349 15.7303 12.5799 -8.96243
568 1 11.0071 17.297 14.1521 -8.94845
569 1 12.5803 15.7268 12.5802 -8.95312
570 1 14.152 17.297 14.1519 -8.94983
571 1 15.7243 15.7243 12.5794 -8.9499
572 1 17.2966 17.2966 14.1518 -8.94973
573 1 18.8691 15.7242 12.5794 -8.94961
574 1 20.4415 17.2966 14.1518 -8.94963
575 1 3.12913e-07 18.8691 12.5794 -8.94963
576 1 1.57242 20.4415 14.1518 -8.94964
577 1 3.14484 18.8691 12.5794 -8.9497
578 1 4.71725 20.4415 14.1518 -8.94962
579 1 6.28958 18.8693 12.5795 -8.94971
580 1 7.8621 20.4415 14.1518 -8.94965
581 1 9.43457 18.8695 12.5794 -8.951
582 1 11.007 20.4415 14.1518 -8.94963
583 1 12.5794 18.8693 12.5794 -8.95006
584 1 14.1518 20.4415 14.1518 -8.94967
585 1 15.7242 18.8691 12.5794 -8.94964
586 1 17.2966 20.4415 14.1518 -8.94964
587 1 18.8691 18.8691 12.5794 -8.94964
588 1 20.4415 20.4415 14.1518 -8.94963
589 1 1.57242 11.007 17.2966 -8.94962
590 1 4.71722 11.007 17.2967 -8.94945
591 1 7.86202 11.007 17.2971 -8.95084
592 1 11.0069 11.007 17.3032 -8.9645
593 1 14.1517 11.007 17.2966 -8.95009
594 1 17.2966 11.007 17.2966 -8.94958
595 1 20.4415 11.007 17.2966 -8.94963
596 1 22.0139 12.5794 15.7242 -8.94965
597 1 1.57241 14.1518 17.2966 -8.94963
598 1 3.14476 12.5794 15.7243 -8.94974
599 1 4.7172 14.1519 17.2967 -8.94943
600 1 6.28888 12.5797 15.7249 -8.94857
601 1 7.86194 14.152 17.2971 -8.9502
602 1 9.43244 12.5808 15.7256 -9.00069
603 1 11.0068 14.1518 17.2967 -8.95029
604 1 12.5823 12.583 15.7279 -8.98385
605 1 14.1521 14.1521 17.2971 -8.94876
606 1 15.7243 12.5793 15.7242 -8.95071
607 1 17.2966 14.1518 17.2966 -8.9498
608 1 18.8691 12.5794 15.7242 -8.94963
609 1 20.4415 14.1518 17.2966 -8.94964
610 1 3.38162e-06 15.7242 15.7242 -8.94964
611 1 1.57242 17.2966 17.2966 -8.94965
612 1 3.14485 15.7242 15.7242 -8.9498
613 1 4.71724 17.2967 17.2967 -8.94953
614 1 6.28937 15.7245 15.7247 -8.9488
615 1 7.86212 17.2966 17.2966 -8.94977
616 1 9.43463 15.7243 15.7242 -8.95012
617 1 11.0069 17.2966 17.2967 -8.94964
618 1 12.5794 15.7245 15.7243 -8.95058
619 1 14.1518 17.2967 17.2966 -8.94973
620 1 15.7245 15.7245 15.7245 -8.94832
621 1 17.2967 17.2967 17.2967 -8.94952
622 1 18.8691 15.7242 15.7242 -8.94961
623 1 20.4415 17.2966 17.2966 -8.94963
624 1 22.0139 18.8691 15.7242 -8.94963
625 1 1.57242 20.4415 17.2966 -8.94963
626 1 3.14483 18.8691 15.7242 -8.94956
627 1 4.71726 20.4415 17.2966 -8.94964
628 1 6.28967 18.8691 15.7242 -8.94968
629 1 7.86211 20.4415 17.2966 -8.94964
630 1 9.43453 18.8691 15.7242 -8.94964
631 1 11.0069 20.4415 17.2966 -8.94964
632 1 12.5794 18.8691 15.7242 -8.94961
633 1 14.1518 20.4415 17.2966 -8.94963
634 1 15.7242 18.8691 15.7242 -8.94961
635 1 17.2966 20.4415 17.2966 -8.94963
636 1 18.8691 18.8691 15.7242 -8.94965
637 1 20.4415 20.4415 17.2966 -8.94963
638 1 1.57242 11.007 20.4415 -8.94964
639 1 4.71726 11.007 20.4415 -8.94962
640 1 7.86211 11.007 20.4415 -8.94974
641 1 11.0069 11.007 20.4419 -8.95162
642 1 14.1518 11.007 20.4415 -8.94956
643 1 17.2966 11.007 20.4415 -8.94964
644 1 20.4415 11.007 20.4415 -8.94963
645 1 1.20941e-07 12.5794 18.8691 -8.94963
646 1 1.57242 14.1518 20.4415 -8.94964
647 1 3.14484 12.5794 18.8691 -8.94965
648 1 4.71726 14.1518 20.4415 -8.94964
649 1 6.28964 12.5794 18.8691 -8.9498
650 1 7.86208 14.1518 20.4415 -8.94965
651 1 9.43428 12.5796 18.8694 -8.94874
652 1 11.0069 14.1518 20.4415 -8.94963
653 1 12.5796 12.5796 18.8695 -8.94952
654 1 14.1518 14.1518 20.4415 -8.94965
655 1 15.7242 12.5793 18.869 -8.94975
656 1 17.2966 14.1518 20.4415 -8.94965
657 1 18.8691 12.5794 18.8691 -8.94963
658 1 20.4415 14.1518 20.4415 -8.94963
659 1 22.0139 15.7242 18.8691 -8.94963
660 1 1.57242 17.2966 20.4415 -8.94963
661 1 3.14484 15.7242 18.8691 -8.94961
662 1 4.71726 17.2966 20.4415 -8.94963
663 1 6.28967 15.7242 18.8691 -8.94964
664 1 7.86211 17.2966 20.4415 -8.94964
665 1 9.43454 15.7242 18.8691 -8.94964
666 1 11.007 17.2966 20.4415 -8.94963
667 1 12.5794 15.7242 18.869 -8.94978
668 1 14.1518 17.2966 20.4415 -8.94965
669 1 15.7242 15.7242 18.8691 -8.94952
670 1 17.2966 17.2966 20.4415 -8.94962
671 1 18.8691 15.7242 18.8691 -8.94965
672 1 20.4415 17.2966 20.4415 -8.94963
673 1 2.74202e-07 18.8691 18.8691 -8.94963
674 1 1.57242 20.4415 20.4415 -8.94963
675 1 3.14484 18.8691 18.8691 -8.94962
676 1 4.71726 20.4415 20.4415 -8.94963
677 1 6.28969 18.8691 18.8691 -8.94965
678 1 7.86211 20.4415 20.4415 -8.94963
679 1 9.43453 18.8691 18.8691 -8.94963
357 1 9.43448 12.5794 22.0138 -8.9497
359 1 12.5794 12.5794 22.0138 -8.95005
363 1 18.8691 12.5794 22.0139 -8.94963
365 1 -4.09187e-08 15.7242 22.0139 -8.94963
369 1 6.28968 15.7242 22.0139 -8.94965
375 1 15.7242 15.7242 22.0139 -8.94961
379 1 22.0139 18.8691 22.0139 -8.94963
381 1 3.14484 18.8691 22.0139 -8.94963
385 1 9.43453 18.8691 22.0139 -8.94964
353 1 3.14484 12.5794 22.0139 -8.94963
538 1 17.2966 20.4415 11.007 -8.94963
