ITEM: TIMESTEP
86
ITEM: NUMBER OF ATOMS
688
ITEM: BOX BOUNDS pp pp pp
0.0000000000000000e+00 2.2013900999999997e+01
0.0000000000000000e+00 2.2013900999999997e+01
0.0000000000000000e+00 2.2013900999999997e+01
ITEM: ATOMS id type x y z c_pot
189 1 20.4414 4.71657 11.0071 -8.94956
2 1 1.57185 1.57208 1.5719 -8.94913
175 1 18.8693 9.43442 9.43474 -8.94792
4 1 4.7168 1.57197 1.57179 -8.94962
174 1 15.7219 9.43545 9.43508 -8.94412
6 1 7.86194 1.57194 1.57181 -8.94947
7 1 9.43449 -1.10723e-15 -0.000211462 -8.94955
8 1 11.007 1.57192 1.57184 -8.9495
173 1 12.564 9.43177 9.42075 -8.93512
10 1 14.1521 1.57189 1.57193 -8.94949
11 1 15.7245 -8.99626e-16 -0.000160839 -8.94958
12 1 17.2972 1.57184 1.57193 -8.94948
188 1 17.2978 4.71611 11.0069 -8.94895
14 1 20.4415 1.57216 1.5722 -8.94952
172 1 9.35624 9.18004 9.43142 -8.13414
16 1 1.57198 4.71694 1.57186 -8.94985
171 1 6.28127 9.42547 9.43338 -8.97109
18 1 4.71589 4.71603 1.57067 -8.94951
19 1 6.28931 3.14423 -0.000374573 -8.94949
20 1 7.86154 4.71603 1.57098 -8.94911
170 1 3.14206 9.43483 9.4344 -8.95106
22 1 11.007 4.71586 1.57104 -8.94933
169 1 22.0132 9.43464 9.43454 -8.94943
24 1 14.1527 4.71566 1.57096 -8.94968
25 1 15.7247 3.14405 -0.000337532 -8.94967
26 1 17.2983 4.71559 1.57114 -8.94814
168 1 18.87 6.28876 9.43452 -8.9496
28 1 20.442 4.71676 1.57198 -8.94956
167 1 15.7267 6.28737 9.43423 -8.94623
30 1 1.57216 7.86203 1.57196 -8.94941
31 1 3.14443 6.28961 -0.000246852 -8.94975
32 1 4.71667 7.86229 1.5717 -8.94966
166 1 12.5799 6.28719 9.432 -8.94557
34 1 7.86151 7.86166 1.57049 -8.9526
35 1 9.43404 6.28863 -0.00069622 -8.94961
36 1 11.0067 7.86079 1.56981 -8.95074
37 1 12.5796 6.28855 -0.000799789 -8.94971
38 1 14.154 7.8601 1.56873 -8.95174
165 1 9.42906 6.29026 9.43376 -9.00766
40 1 17.2985 7.86114 1.571 -8.94911
41 1 18.8699 6.28915 -0.000340976 -8.94948
42 1 20.4421 7.8618 1.5719 -8.94944
43 1 22.014 9.43446 -0.000201908 -8.94956
187 1 14.1531 4.71543 11.0063 -8.94893
45 1 6.28912 9.43463 -6.45848e-05 -8.94935
164 1 6.27741 6.27784 9.4335 -8.94074
163 1 3.13976 6.28701 9.43444 -8.94924
48 1 15.7258 9.43398 -0.000996938 -8.94926
162 1 -0.00120726 6.28897 9.43451 -8.95005
50 1 -0.000309135 4.69511e-16 3.14458 -8.94952
51 1 1.57166 1.57198 4.71674 -8.94944
52 1 3.14406 7.23816e-16 3.14405 -8.94953
53 1 4.71609 1.57116 4.71603 -8.95003
54 1 6.28936 4.18308e-16 3.14407 -8.94956
55 1 7.86187 1.57125 4.71623 -8.94963
56 1 9.43457 5.17567e-16 3.14409 -8.94953
57 1 11.0073 1.57133 4.71632 -8.94959
58 1 12.5797 1.02141e-16 3.1442 -8.9495
59 1 14.1524 1.57128 4.71669 -8.95069
60 1 15.7248 3.3881e-16 3.14437 -8.95004
61 1 17.2971 1.57196 4.71709 -8.94966
62 1 18.8693 3.74326e-16 3.14469 -8.94966
63 1 20.4414 1.57217 4.71709 -8.94951
64 1 22.0134 3.14435 3.14434 -8.94954
65 1 1.57066 4.71619 4.71608 -8.9497
66 1 3.14323 3.14346 3.14326 -8.94809
67 1 4.71246 4.71276 4.71258 -8.94412
68 1 6.28883 3.14334 3.14333 -8.94956
69 1 7.86052 4.7133 4.71407 -8.94878
70 1 9.43441 3.14334 3.1435 -8.94935
71 1 11.0075 4.71356 4.71428 -8.94763
72 1 12.5799 3.14325 3.14363 -8.94912
73 1 14.1552 4.71202 4.71389 -8.94965
74 1 15.7256 3.14287 3.14355 -8.9494
75 1 17.2983 4.71575 4.71656 -8.95002
76 1 18.8696 3.14415 3.14447 -8.94972
77 1 20.4415 4.7167 4.71692 -8.9499
78 1 22.0139 6.28939 3.14432 -8.94983
79 1 1.57159 7.86212 4.71659 -8.94982
80 1 3.14358 6.28928 3.14361 -8.95037
81 1 4.71469 7.86196 4.7153 -8.95142
82 1 6.28659 6.28686 3.14005 -8.95031
83 1 7.8561 7.85566 4.70658 -8.95505
84 1 9.43381 6.28689 3.14125 -8.94771
85 1 11.0078 7.85658 4.7075 -8.95182
86 1 12.5808 6.28662 3.14078 -8.94933
87 1 14.1656 7.84946 4.70352 -8.93035
88 1 15.729 6.28507 3.14038 -8.94455
89 1 17.3014 7.85987 4.71496 -8.95077
90 1 18.8708 6.28855 3.1438 -8.94967
91 1 20.4425 7.86169 4.7167 -8.95018
92 1 0.000167212 9.43441 3.1442 -8.94954
93 1 3.14402 9.43456 3.14389 -8.94894
94 1 6.28924 9.43533 3.14409 -8.94914
95 1 9.4352 9.43447 3.14381 -8.95112
96 1 12.5828 9.43303 3.13625 -8.95979
97 1 15.7287 9.43297 3.14075 -8.94739
98 1 18.871 9.43409 3.14365 -8.94927
99 1 22.0135 1.39324e-15 6.28949 -8.94953
100 1 1.57156 1.57193 7.86188 -8.9495
101 1 3.14384 1.81921e-15 6.2891 -8.94933
102 1 4.71572 1.57099 7.86144 -8.9493
103 1 6.28905 1.60943e-15 6.28894 -8.9507
104 1 7.86171 1.57051 7.86171 -8.95146
105 1 9.43472 7.44781e-16 6.28904 -8.95025
106 1 11.0071 1.57151 7.86193 -8.94958
107 1 12.5797 9.92674e-16 6.28943 -8.95043
108 1 14.1525 1.57165 7.86193 -8.94946
109 1 15.7248 3.77237e-16 6.28955 -8.94954
110 1 17.2972 1.57199 7.86203 -8.94954
111 1 18.8693 1.2485e-15 6.28958 -8.94954
112 1 20.4414 1.57214 7.86202 -8.94955
113 1 -0.000604908 3.14426 6.28935 -8.94946
114 1 1.57046 4.71603 7.8616 -8.94933
115 1 3.143 3.14326 6.28863 -8.94909
116 1 4.7126 4.71287 7.86023 -8.94716
117 1 6.28751 3.14071 6.28762 -8.9517
118 1 7.85842 4.70804 7.86003 -8.95965
119 1 9.43455 3.1416 6.28816 -8.95042
120 1 11.0064 4.71408 7.86105 -8.95245
121 1 12.58 3.14206 6.28893 -8.95255
122 1 14.1533 4.71489 7.8618 -8.94858
123 1 15.7251 3.14356 6.28949 -8.94949
124 1 17.2978 4.7161 7.86198 -8.94896
125 1 18.8694 3.14426 6.28955 -8.94942
126 1 20.4414 4.71659 7.86196 -8.94958
127 1 22.0129 6.28915 6.28923 -8.95032
128 1 1.56966 7.8617 7.86172 -8.95195
129 1 3.14002 6.28737 6.2873 -8.95097
130 1 4.70599 7.85781 7.85911 -8.95856
131 1 6.27536 6.27591 6.27634 -8.92835
132 1 7.81816 7.82206 7.82497 -8.84549
133 1 9.4332 6.27985 6.28331 -8.94921
134 1 11.0234 7.84934 7.83373 -8.89701
135 1 12.5867 6.27775 6.28124 -8.95213
136 1 14.1587 7.85802 7.86084 -8.94971
137 1 15.7279 6.28686 6.28842 -8.95048
138 1 17.2988 7.86147 7.86276 -8.95091
139 1 18.8701 6.289 6.28961 -8.9501
140 1 20.4416 7.86183 7.86217 -8.95011
141 1 22.0138 9.43456 6.28929 -8.94991
142 1 3.14315 9.43523 6.2889 -8.94972
143 1 6.2861 9.43685 6.28834 -8.95146
144 1 9.42193 9.41193 6.28391 -8.91015
145 1 12.621 9.40072 6.25011 -8.86018
146 1 15.7353 9.43184 6.28529 -8.95742
147 1 18.8718 9.4342 6.2892 -8.95168
148 1 -0.000384945 1.72206e-15 9.43451 -8.94954
149 1 3.14376 1.33017e-15 9.43447 -8.94945
150 1 6.28857 3.74369e-16 9.4343 -8.95038
151 1 9.43469 1.00037e-15 9.43431 -8.94855
152 1 12.58 8.06474e-17 9.43428 -8.94948
153 1 15.7248 -7.55105e-17 9.43446 -8.94964
154 1 18.8693 1.30825e-15 9.4345 -8.94956
155 1 22.0133 3.14422 9.4345 -8.94951
156 1 3.14288 3.14323 9.43445 -8.94946
157 1 6.28657 3.14017 9.4341 -8.94936
158 1 9.43421 3.14297 9.43419 -8.94641
159 1 12.5802 3.14327 9.43397 -8.94875
160 1 15.7252 3.14369 9.43443 -8.94958
161 1 18.8694 3.14421 9.4345 -8.94955
177 1 4.71573 1.57102 11.0073 -8.94933
180 1 14.1525 1.57175 11.0068 -8.94936
184 1 4.71268 4.71298 11.0084 -8.94763
183 1 1.57046 4.71603 11.0074 -8.94929
3 1 3.14453 4.08866e-16 -0.000215759 -8.94961
176 1 1.57156 1.57193 11.0071 -8.94948
343 1 18.8701 9.43432 18.8696 -8.94947
178 1 7.86154 1.57018 11.0069 -8.95163
179 1 11.0073 1.57112 11.0066 -8.94984
342 1 15.7261 9.4339 18.8709 -8.94936
341 1 12.5811 9.43292 18.8745 -8.95133
182 1 20.4414 1.57213 11.007 -8.94955
340 1 9.43309 9.43337 18.8723 -8.94747
339 1 6.28888 9.43463 18.8698 -8.94965
185 1 7.85777 4.70663 11.0076 -8.95824
186 1 11.0075 4.7124 11.0061 -8.95167
338 1 3.14425 9.43449 18.8696 -8.94952
337 1 7.53169e-05 9.43445 18.8694 -8.94957
336 1 20.4419 7.86191 20.4415 -8.94953
190 1 1.56972 7.86173 11.0073 -8.95198
191 1 4.70617 7.85799 11.0095 -8.95952
192 1 7.81707 7.8204 11.0391 -8.87806
193 1 11.0298 7.8457 11.026 -8.94755
194 1 14.1569 7.85975 11.0044 -8.95486
195 1 17.2985 7.86138 11.0064 -8.9503
196 1 20.4415 7.8618 11.0069 -8.95005
197 1 22.0135 1.46339e-16 12.5795 -8.94953
198 1 1.57163 1.57197 14.1523 -8.94948
199 1 3.14383 7.03562e-16 12.5798 -8.94937
200 1 4.71595 1.5711 14.153 -8.94993
201 1 6.28889 -3.60986e-16 12.58 -8.95061
202 1 7.86164 1.5708 14.1529 -8.94986
203 1 9.43471 1.32132e-15 12.5798 -8.95103
204 1 11.0075 1.57087 14.1528 -8.9497
205 1 12.5799 1.78926e-15 12.5795 -8.9504
206 1 14.1526 1.57114 14.1523 -8.95069
207 1 15.7248 1.76664e-15 12.5793 -8.94951
208 1 17.2971 1.57198 14.1519 -8.94967
209 1 18.8693 8.54295e-16 12.5794 -8.94953
210 1 20.4414 1.57216 14.152 -8.94951
211 1 -0.000604973 3.14425 12.5797 -8.94945
212 1 1.57063 4.71617 14.1529 -8.94968
213 1 3.14299 3.14327 12.5803 -8.94916
214 1 4.71236 4.71273 14.1563 -8.94436
215 1 6.28734 3.14041 12.5812 -8.95132
216 1 7.85975 4.71146 14.1555 -8.94846
217 1 9.43462 3.13973 12.5806 -8.95313
218 1 11.0084 4.71184 14.1553 -8.94601
219 1 12.5802 3.14163 12.5799 -8.95243
220 1 14.1556 4.71161 14.155 -8.94975
221 1 15.7251 3.1437 12.5792 -8.94947
222 1 17.2982 4.71589 14.1522 -8.9503
223 1 18.8694 3.14425 12.5794 -8.94941
224 1 20.4415 4.71669 14.1521 -8.94984
225 1 22.0129 6.28913 12.5798 -8.95027
226 1 1.57153 7.86216 14.1523 -8.94993
227 1 3.14007 6.28737 12.5816 -8.95079
228 1 4.7145 7.86196 14.1534 -8.95287
229 1 6.27585 6.27568 12.592 -8.9283
230 1 7.85302 7.85135 14.1655 -8.99261
231 1 9.4342 6.27024 12.5842 -8.96331
232 1 11.0106 7.85453 14.1636 -9.00063
233 1 12.5869 6.27685 12.587 -8.95208
234 1 14.1664 7.84862 14.1652 -8.92904
235 1 15.7274 6.28747 12.5796 -8.95081
236 1 17.3013 7.86007 14.1537 -8.95162
237 1 18.8701 6.28899 12.5794 -8.94981
238 1 20.4424 7.86176 14.1522 -8.95032
239 1 -0.000149469 9.43462 12.5797 -8.94972
240 1 3.14348 9.43534 12.5799 -8.94928
241 1 6.2879 9.43749 12.5796 -9.00303
242 1 9.41454 9.36417 12.5776 -9.19394
243 1 12.6209 9.39838 12.6187 -8.90932
244 1 15.7332 9.43299 12.5827 -8.96077
245 1 18.8712 9.43446 12.5796 -8.95177
246 1 -0.000322641 1.24638e-16 15.7245 -8.94954
247 1 1.5718 1.57207 17.2972 -8.94917
248 1 3.14397 1.11048e-16 15.725 -8.94951
249 1 4.7166 1.57185 17.2975 -8.94954
250 1 6.28913 6.19645e-16 15.7252 -8.94961
251 1 7.86186 1.57181 17.2975 -8.94948
252 1 9.43456 1.56762e-16 15.7251 -8.94953
253 1 11.0071 1.57176 17.2975 -8.94949
254 1 12.5799 1.37492e-15 15.725 -8.9496
255 1 14.1523 1.57169 17.2974 -8.94953
256 1 15.7249 3.90142e-16 15.7247 -8.95004
257 1 17.2973 1.57181 17.2972 -8.94945
258 1 18.8693 -5.2779e-16 15.7244 -8.94968
259 1 20.4415 1.57216 17.2969 -8.94958
260 1 22.0134 3.14434 15.7247 -8.94955
261 1 1.57187 4.7169 17.2973 -8.94991
262 1 3.14313 3.14344 15.7258 -8.94819
263 1 4.71551 4.71572 17.2989 -8.94904
264 1 6.28841 3.14281 15.7261 -8.94944
265 1 7.86136 4.71559 17.2985 -8.94947
266 1 9.43442 3.14278 15.7257 -8.94931
267 1 11.0071 4.71537 17.2986 -8.9492
268 1 12.5803 3.14257 15.7258 -8.94921
269 1 14.1532 4.71492 17.2987 -8.94983
270 1 15.7259 3.14269 15.7255 -8.94935
271 1 17.2985 4.71552 17.2981 -8.94816
272 1 18.8696 3.14417 15.7246 -8.94983
273 1 20.442 4.71674 17.2971 -8.9496
274 1 -2.23175e-05 6.2894 15.7247 -8.94994
275 1 1.57205 7.86202 17.2972 -8.94949
276 1 3.14332 6.28922 15.7255 -8.95066
277 1 4.71629 7.86218 17.2977 -8.94984
278 1 6.28545 6.28569 15.7301 -8.9483
279 1 7.86037 7.8604 17.3006 -8.95216
280 1 9.43399 6.28551 15.7281 -8.94859
281 1 11.0064 7.86015 17.3015 -8.9506
282 1 12.5818 6.28464 15.7294 -8.95083
283 1 14.1563 7.85783 17.3032 -8.94801
284 1 15.7294 6.28482 15.7288 -8.94414
285 1 17.2989 7.86102 17.2983 -8.9497
286 1 18.8709 6.28855 15.7252 -8.94982
287 1 20.4422 7.8618 17.2972 -8.94956
288 1 22.014 9.43443 15.7248 -8.94961
289 1 3.14388 9.43463 15.7252 -8.94919
290 1 6.28872 9.43549 15.7253 -8.95017
291 1 9.43183 9.43038 15.7288 -8.9998
292 1 12.5893 9.42526 15.7416 -8.98473
293 1 15.7292 9.43307 15.7284 -8.94995
294 1 18.871 9.43415 15.7253 -8.94948
295 1 22.0137 -1.46879e-16 18.8693 -8.94929
296 1 1.57211 1.57217 20.4415 -8.94937
297 1 3.14444 -4.56033e-16 18.8694 -8.94954
298 1 4.71697 1.57214 20.4416 -8.94958
299 1 6.28944 -9.15917e-16 18.8695 -8.94954
300 1 7.86195 1.57208 20.4416 -8.94954
301 1 9.43448 -6.044e-16 18.8695 -8.94956
302 1 11.007 1.57205 20.4416 -8.94954
303 1 12.5795 -1.03332e-15 18.8695 -8.94954
304 1 14.152 1.57205 20.4416 -8.94954
305 1 15.7246 -7.86877e-16 18.8694 -8.94957
306 1 17.297 1.57207 20.4416 -8.94958
307 1 18.8694 -3.97488e-16 18.8693 -8.94939
308 1 20.4417 1.57223 20.4415 -8.94928
309 1 -3.86607e-05 3.14458 18.8693 -8.9496
310 1 1.57221 4.7171 20.4416 -8.94972
311 1 3.14414 3.14424 18.8697 -8.94938
312 1 4.71655 4.71667 20.4417 -8.94996
313 1 6.28922 3.14412 18.8698 -8.94956
314 1 7.86164 4.7164 20.4418 -8.94955
315 1 9.43437 3.14397 18.8698 -8.9495
316 1 11.0069 4.71629 20.4418 -8.94954
317 1 12.5796 3.14393 18.8698 -8.94948
318 1 14.1522 4.71624 20.4418 -8.94973
319 1 15.7249 3.14387 18.8697 -8.94962
320 1 17.2977 4.71625 20.4417 -8.94926
321 1 18.8697 3.14422 18.8694 -8.94917
322 1 20.4419 4.71695 20.4415 -8.94955
323 1 22.014 6.2895 18.8693 -8.94956
324 1 1.5722 7.86202 20.4416 -8.94954
325 1 3.14431 6.28955 18.8696 -8.94978
326 1 4.71668 7.86209 20.4417 -8.94961
327 1 6.28855 6.28878 18.8708 -8.95043
328 1 7.86125 7.8615 20.4424 -8.95017
329 1 9.43393 6.28826 18.8707 -8.94953
330 1 11.0066 7.86124 20.4425 -8.95002
331 1 12.5797 6.28819 18.8709 -8.95005
332 1 14.1531 7.8608 20.4427 -8.95053
333 1 15.7262 6.28775 18.8711 -8.94902
334 1 17.2978 7.86152 20.4417 -8.94941
335 1 18.87 6.28909 18.8696 -8.94957
49 1 18.87 9.43433 22.0135 -8.94947
5 1 6.2895 -1.15124e-15 22.0137 -8.94953
9 1 12.5795 -6.89444e-16 22.0137 -8.94954
15 1 22.0139 3.14459 22.0137 -8.94958
17 1 3.14423 3.14429 22.0135 -8.94947
21 1 9.4344 3.14412 22.0135 -8.9495
23 1 12.5795 3.14409 22.0136 -8.94946
27 1 18.8697 3.14422 22.0136 -8.94908
29 1 9.37865e-05 6.28952 22.0137 -8.94952
33 1 6.28888 6.28908 22.0132 -8.95063
39 1 15.7256 6.28825 22.013 -8.94993
46 1 9.43405 9.43438 22.0144 -8.94937
47 1 12.5799 9.43409 22.0133 -8.95192
1 1 -0.000168454 5.51674e-16 22.0138 -8.94925
13 1 18.8694 1.31023e-16 22.0137 -8.94938
44 1 3.14437 9.4345 22.0137 -8.94953
181 1 17.2972 1.57199 11.0069 -8.94952
344 1 1.57215 11.007 1.57191 -8.94956
345 1 4.71657 11.007 1.57171 -8.94962
346 1 7.86185 11.007 1.57272 -8.9481
347 1 11.0071 11.007 1.57231 -8.94683
348 1 14.1547 11.007 1.56861 -8.9495
349 1 17.2986 11.007 1.57096 -8.94939
350 1 20.4421 11.007 1.57186 -8.9495
351 1 22.014 12.5794 -0.000201908 -8.94956
352 1 1.57216 14.1519 1.57196 -8.94941
537 1 14.1525 20.4422 11.0068 -8.94936
354 1 4.71667 14.1516 1.5717 -8.94966
355 1 6.28912 12.5793 -6.45848e-05 -8.94935
356 1 7.86151 14.1522 1.57049 -8.9526
688 3 10.1457 11.007 9.40136 2.34339
358 1 11.0067 14.1531 1.56981 -8.95074
511 1 18.8694 18.8697 9.4345 -8.94955
360 1 14.154 14.1538 1.56873 -8.95174
361 1 15.7258 12.5799 -0.000996938 -8.94926
362 1 17.2985 14.1528 1.571 -8.94911
510 1 15.7252 18.8702 9.43443 -8.94958
364 1 20.4421 14.1521 1.5719 -8.94944
509 1 12.5802 18.8706 9.43397 -8.94875
366 1 1.57198 17.297 1.57186 -8.94985
367 1 3.14443 15.7243 -0.000246852 -8.94975
368 1 4.71589 17.2979 1.57067 -8.94951
508 1 9.43421 18.8709 9.43419 -8.94641
370 1 7.86154 17.2979 1.57098 -8.94911
371 1 9.43404 15.7253 -0.00069622 -8.94961
372 1 11.007 17.298 1.57104 -8.94933
373 1 12.5796 15.7253 -0.000799789 -8.94971
374 1 14.1527 17.2982 1.57096 -8.94968
507 1 6.28657 18.8737 9.4341 -8.94936
376 1 17.2983 17.2983 1.57114 -8.94814
377 1 18.8699 15.7247 -0.000340976 -8.94948
378 1 20.442 17.2971 1.57198 -8.94956
506 1 3.14288 18.8707 9.43445 -8.94946
380 1 1.57185 20.4418 1.5719 -8.94913
505 1 22.0133 18.8697 9.4345 -8.94951
382 1 4.7168 20.4419 1.57179 -8.94962
383 1 6.28931 18.8697 -0.000374573 -8.94949
384 1 7.86194 20.442 1.57181 -8.94947
504 1 18.87 15.7251 9.43452 -8.9496
386 1 11.007 20.442 1.57184 -8.9495
503 1 15.7267 15.7265 9.43423 -8.94623
388 1 14.1521 20.442 1.57193 -8.94949
389 1 15.7247 18.8698 -0.000337532 -8.94967
390 1 17.2972 20.4421 1.57193 -8.94948
502 1 12.5799 15.7267 9.432 -8.94557
392 1 20.4415 20.4417 1.5722 -8.94952
393 1 1.57174 11.007 4.71633 -8.94949
394 1 4.71565 11.007 4.71543 -8.94608
395 1 7.86473 11.007 4.72016 -8.9458
396 1 11.0126 11.007 4.72089 -9.00093
397 1 14.1635 11.007 4.70626 -8.9415
398 1 17.3016 11.007 4.7146 -8.94908
399 1 20.4427 11.007 4.71652 -8.94995
400 1 0.000167212 12.5795 3.1442 -8.94954
401 1 1.57159 14.1518 4.71659 -8.94982
402 1 3.14402 12.5793 3.14389 -8.94894
403 1 4.71469 14.1519 4.7153 -8.95142
404 1 6.28924 12.5786 3.14409 -8.94914
405 1 7.8561 14.1582 4.70658 -8.95505
406 1 9.4352 12.5794 3.14381 -8.95112
407 1 11.0078 14.1573 4.7075 -8.95182
408 1 12.5828 12.5809 3.13625 -8.95979
409 1 14.1656 14.1644 4.70352 -8.93035
410 1 15.7287 12.5809 3.14075 -8.94739
411 1 17.3014 14.154 4.71496 -8.95077
412 1 18.871 12.5798 3.14365 -8.94927
413 1 20.4425 14.1522 4.7167 -8.95018
414 1 22.0139 15.7245 3.14432 -8.94983
415 1 1.57066 17.2977 4.71608 -8.9497
416 1 3.14358 15.7246 3.14361 -8.95037
417 1 4.71246 17.3011 4.71258 -8.94412
418 1 6.28659 15.727 3.14005 -8.95031
419 1 7.86052 17.3006 4.71407 -8.94878
420 1 9.43381 15.727 3.14125 -8.94771
421 1 11.0075 17.3003 4.71428 -8.94763
422 1 12.5808 15.7273 3.14078 -8.94933
423 1 14.1552 17.3019 4.71389 -8.94965
424 1 15.729 15.7288 3.14038 -8.94455
425 1 17.2983 17.2982 4.71656 -8.95002
426 1 18.8708 15.7254 3.1438 -8.94967
427 1 20.4415 17.2972 4.71692 -8.9499
428 1 22.0134 18.8696 3.14434 -8.94954
429 1 1.57166 20.4419 4.71674 -8.94944
430 1 3.14323 18.8704 3.14326 -8.94809
431 1 4.71609 20.4427 4.71603 -8.95003
432 1 6.28883 18.8706 3.14333 -8.94956
433 1 7.86187 20.4427 4.71623 -8.94963
434 1 9.43441 18.8706 3.1435 -8.94935
435 1 11.0073 20.4426 4.71632 -8.94959
436 1 12.5799 18.8706 3.14363 -8.94912
437 1 14.1524 20.4426 4.71669 -8.95069
438 1 15.7256 18.871 3.14355 -8.9494
439 1 17.2971 20.4419 4.71709 -8.94966
440 1 18.8696 18.8698 3.14447 -8.94972
441 1 20.4414 20.4417 4.71709 -8.94951
442 1 1.57186 11.007 7.86171 -8.94766
443 1 4.71935 11.007 7.86246 -8.9407
444 1 7.8824 11.007 7.8711 -8.8733
445 1 11.0933 11.007 7.64043 -8.15606
446 1 14.1618 11.007 7.85338 -8.97179
447 1 17.2996 11.007 7.86224 -8.95149
448 1 20.4421 11.007 7.86215 -8.94956
449 1 22.0138 12.5793 6.28929 -8.94991
450 1 1.56966 14.1522 7.86172 -8.95195
451 1 3.14315 12.5787 6.2889 -8.94972
452 1 4.70599 14.1561 7.85911 -8.95856
453 1 6.2861 12.577 6.28834 -8.95146
454 1 7.81816 14.1918 7.82497 -8.84549
455 1 9.42193 12.602 6.28391 -8.91015
456 1 11.0234 14.1646 7.83373 -8.89701
457 1 12.621 12.6132 6.25011 -8.86018
458 1 14.1587 14.1559 7.86084 -8.94971
459 1 15.7353 12.5821 6.28529 -8.95742
460 1 17.2988 14.1524 7.86276 -8.95091
461 1 18.8718 12.5797 6.2892 -8.95168
462 1 20.4416 14.1521 7.86217 -8.95011
463 1 22.0129 15.7248 6.28923 -8.95032
464 1 1.57046 17.2979 7.8616 -8.94933
465 1 3.14002 15.7265 6.2873 -8.95097
466 1 4.7126 17.301 7.86023 -8.94716
467 1 6.27536 15.738 6.27634 -8.92835
468 1 7.85842 17.3059 7.86003 -8.95965
469 1 9.4332 15.7341 6.28331 -8.94921
470 1 11.0064 17.2998 7.86105 -8.95245
471 1 12.5867 15.7362 6.28124 -8.95213
472 1 14.1533 17.299 7.8618 -8.94858
473 1 15.7279 15.727 6.28842 -8.95048
474 1 17.2978 17.2978 7.86198 -8.94896
475 1 18.8701 15.7249 6.28961 -8.9501
476 1 20.4414 17.2973 7.86196 -8.94958
477 1 -0.000604908 18.8696 6.28935 -8.94946
478 1 1.57156 20.442 7.86188 -8.9495
479 1 3.143 18.8706 6.28863 -8.94909
480 1 4.71572 20.4429 7.86144 -8.9493
481 1 6.28751 18.8732 6.28762 -8.9517
482 1 7.86171 20.4434 7.86171 -8.95146
483 1 9.43455 18.8723 6.28816 -8.95042
484 1 11.0071 20.4424 7.86193 -8.94958
485 1 12.58 18.8718 6.28893 -8.95255
486 1 14.1525 20.4422 7.86193 -8.94946
487 1 15.7251 18.8703 6.28949 -8.94949
488 1 17.2972 20.4419 7.86203 -8.94954
489 1 18.8694 18.8696 6.28955 -8.94942
490 1 20.4414 20.4418 7.86202 -8.94955
491 1 22.0132 12.5793 9.43454 -8.94943
492 1 3.14206 12.5791 9.4344 -8.95106
493 1 6.28127 12.5884 9.43338 -8.97109
494 1 9.35624 12.8339 9.43142 -8.13414
495 1 12.564 12.5821 9.42075 -8.93512
496 1 15.7219 12.5785 9.43508 -8.94412
497 1 18.8693 12.5795 9.43474 -8.94792
498 1 -0.00120726 15.7249 9.43451 -8.95005
499 1 3.13976 15.7269 9.43444 -8.94924
500 1 6.27741 15.7361 9.4335 -8.94074
501 1 9.42906 15.7236 9.43376 -9.00766
526 1 1.57046 17.2979 11.0074 -8.94929
527 1 4.71268 17.3009 11.0084 -8.94763
530 1 14.1531 17.2985 11.0063 -8.94893
531 1 17.2978 17.2978 11.0069 -8.94895
532 1 20.4414 17.2973 11.0071 -8.94956
534 1 4.71573 20.4429 11.0073 -8.94933
517 1 17.2969 11.007 11.0066 -8.94677
518 1 20.4417 11.007 11.0069 -8.94871
512 1 1.57191 11.007 11.0072 -8.9475
513 1 4.71983 11.007 11.0059 -8.94142
514 1 7.88168 11.007 10.9901 -8.90497
515 1 11.1488 11.007 11.1318 -8.48913
516 1 14.1462 11.007 11.0146 -9.02368
391 1 18.8697 18.8697 22.0136 -8.94908
387 1 12.5795 18.8698 22.0136 -8.94946
519 1 1.56972 14.1522 11.0073 -8.95198
520 1 4.70617 14.1559 11.0095 -8.95952
521 1 7.81707 14.1935 11.0391 -8.87806
522 1 11.0298 14.1682 11.026 -8.94755
523 1 14.1569 14.1542 11.0044 -8.95486
524 1 17.2985 14.1525 11.0064 -8.9503
525 1 20.4415 14.1521 11.0069 -8.95005
687 2 10.1556 11.007 12.642 0.849044
686 1 20.4417 20.4417 20.4415 -8.94928
528 1 7.85777 17.3073 11.0076 -8.95824
529 1 11.0075 17.3015 11.0061 -8.95167
685 1 18.8697 18.8697 18.8694 -8.94917
684 1 17.297 20.4418 20.4416 -8.94958
683 1 15.7249 18.87 18.8697 -8.94962
533 1 1.57156 20.442 11.0071 -8.94948
682 1 14.152 20.4418 20.4416 -8.94954
535 1 7.86154 20.4437 11.0069 -8.95163
536 1 11.0073 20.4428 11.0066 -8.94984
681 1 12.5796 18.87 18.8698 -8.94948
680 1 11.007 20.4418 20.4416 -8.94954
539 1 20.4414 20.4418 11.007 -8.94955
540 1 1.57178 11.007 14.1526 -8.94935
541 1 4.71623 11.007 14.1532 -8.94549
542 1 7.86738 11.007 14.148 -8.97723
543 1 11.0384 11.007 14.224 -9.25882
544 1 14.1597 11.007 14.1623 -8.99138
545 1 17.3008 11.007 14.1542 -8.9481
546 1 20.4425 11.007 14.1524 -8.94982
547 1 -0.000149469 12.5793 12.5797 -8.94972
548 1 1.57153 14.1517 14.1523 -8.94993
549 1 3.14348 12.5786 12.5799 -8.94928
550 1 4.7145 14.1519 14.1534 -8.95287
551 1 6.2879 12.5764 12.5796 -9.00303
552 1 7.85302 14.1626 14.1655 -8.99261
553 1 9.41454 12.6497 12.5776 -9.19394
554 1 11.0106 14.1594 14.1636 -9.00063
555 1 12.6209 12.6155 12.6187 -8.90932
556 1 14.1664 14.1653 14.1652 -8.92904
557 1 15.7332 12.5809 12.5827 -8.96077
558 1 17.3013 14.1538 14.1537 -8.95162
559 1 18.8712 12.5794 12.5796 -8.95177
560 1 20.4424 14.1521 14.1522 -8.95032
561 1 22.0129 15.7248 12.5798 -8.95027
562 1 1.57063 17.2977 14.1529 -8.94968
563 1 3.14007 15.7265 12.5816 -8.95079
564 1 4.71236 17.3012 14.1563 -8.94436
565 1 6.27585 15.7382 12.592 -8.9283
566 1 7.85975 17.3024 14.1555 -8.94846
567 1 9.4342 15.7437 12.5842 -8.96331
568 1 11.0084 17.3021 14.1553 -8.94601
569 1 12.5869 15.737 12.587 -8.95208
570 1 14.1556 17.3023 14.155 -8.94975
571 1 15.7274 15.7264 12.5796 -8.95081
572 1 17.2982 17.298 14.1522 -8.9503
573 1 18.8701 15.7249 12.5794 -8.94981
574 1 20.4415 17.2972 14.1521 -8.94984
575 1 -0.000604973 18.8697 12.5797 -8.94945
576 1 1.57163 20.4419 14.1523 -8.94948
577 1 3.14299 18.8706 12.5803 -8.94916
578 1 4.71595 20.4428 14.153 -8.94993
579 1 6.28734 18.8735 12.5812 -8.95132
580 1 7.86164 20.4431 14.1529 -8.94986
581 1 9.43462 18.8742 12.5806 -8.95313
582 1 11.0075 20.443 14.1528 -8.9497
583 1 12.5802 18.8723 12.5799 -8.95243
584 1 14.1526 20.4428 14.1523 -8.95069
585 1 15.7251 18.8702 12.5792 -8.94947
586 1 17.2971 20.4419 14.1519 -8.94967
587 1 18.8694 18.8696 12.5794 -8.94941
588 1 20.4414 20.4417 14.152 -8.94951
589 1 1.57203 11.007 17.2973 -8.94958
590 1 4.7163 11.007 17.2977 -8.94912
591 1 7.86208 11.007 17.2975 -8.94777
592 1 11.0073 11.007 17.3121 -8.96811
593 1 14.1551 11.007 17.3025 -8.94873
594 1 17.2988 11.007 17.2984 -8.94924
595 1 20.4422 11.007 17.2973 -8.94955
596 1 22.014 12.5795 15.7248 -8.94961
597 1 1.57205 14.1519 17.2972 -8.94949
598 1 3.14388 12.5793 15.7252 -8.94919
599 1 4.71629 14.1517 17.2977 -8.94984
600 1 6.28872 12.5784 15.7253 -8.95017
601 1 7.86037 14.1535 17.3006 -8.95216
602 1 9.43183 12.5835 15.7288 -8.9998
603 1 11.0064 14.1538 17.3015 -8.9506
604 1 12.5893 12.5886 15.7416 -8.98473
605 1 14.1563 14.1561 17.3032 -8.94801
606 1 15.7292 12.5808 15.7284 -8.94995
607 1 17.2989 14.1529 17.2983 -8.9497
608 1 18.871 12.5798 15.7253 -8.94948
609 1 20.4422 14.1521 17.2972 -8.94956
610 1 -2.23175e-05 15.7245 15.7247 -8.94994
611 1 1.57187 17.297 17.2973 -8.94991
612 1 3.14332 15.7247 15.7255 -8.95066
613 1 4.71551 17.2982 17.2989 -8.94904
614 1 6.28545 15.7282 15.7301 -8.9483
615 1 7.86136 17.2983 17.2985 -8.94947
616 1 9.43399 15.7284 15.7281 -8.94859
617 1 11.0071 17.2985 17.2986 -8.9492
618 1 12.5818 15.7293 15.7294 -8.95083
619 1 14.1532 17.299 17.2987 -8.94983
620 1 15.7294 15.7291 15.7288 -8.94414
621 1 17.2985 17.2984 17.2981 -8.94816
622 1 18.8709 15.7253 15.7252 -8.94982
623 1 20.442 17.2972 17.2971 -8.9496
624 1 22.0134 18.8696 15.7247 -8.94955
625 1 1.5718 20.4418 17.2972 -8.94917
626 1 3.14313 18.8705 15.7258 -8.94819
627 1 4.7166 20.4421 17.2975 -8.94954
628 1 6.28841 18.8711 15.7261 -8.94944
629 1 7.86186 20.4421 17.2975 -8.94948
630 1 9.43442 18.8711 15.7257 -8.94931
631 1 11.0071 20.4421 17.2975 -8.94949
632 1 12.5803 18.8713 15.7258 -8.94921
633 1 14.1523 20.4422 17.2974 -8.94953
634 1 15.7259 18.8712 15.7255 -8.94935
635 1 17.2973 20.4421 17.2972 -8.94945
636 1 18.8696 18.8697 15.7246 -8.94983
637 1 20.4415 20.4417 17.2969 -8.94958
638 1 1.57218 11.007 20.4416 -8.94958
639 1 4.71661 11.007 20.4417 -8.94965
640 1 7.8614 11.007 20.4423 -8.94871
641 1 11.0066 11.007 20.4448 -8.95222
642 1 14.1532 11.007 20.4426 -8.9499
643 1 17.2979 11.007 20.4417 -8.94944
644 1 20.4419 11.007 20.4416 -8.94954
645 1 7.53169e-05 12.5794 18.8694 -8.94957
646 1 1.5722 14.1519 20.4416 -8.94954
647 1 3.14425 12.5794 18.8696 -8.94952
648 1 4.71668 14.1518 20.4417 -8.94961
649 1 6.28888 12.5793 18.8698 -8.94965
650 1 7.86125 14.1524 20.4424 -8.95017
651 1 9.43309 12.5805 18.8723 -8.94747
652 1 11.0066 14.1527 20.4425 -8.95002
653 1 12.5811 12.581 18.8745 -8.95133
654 1 14.1531 14.1531 20.4427 -8.95053
655 1 15.7261 12.58 18.8709 -8.94936
656 1 17.2978 14.1524 20.4417 -8.94941
657 1 18.8701 12.5796 18.8696 -8.94947
658 1 20.4419 14.152 20.4415 -8.94953
659 1 22.014 15.7244 18.8693 -8.94956
660 1 1.57221 17.2968 20.4416 -8.94972
661 1 3.14431 15.7243 18.8696 -8.94978
662 1 4.71655 17.2972 20.4417 -8.94996
663 1 6.28855 15.7251 18.8708 -8.95043
664 1 7.86164 17.2975 20.4418 -8.94955
665 1 9.43393 15.7256 18.8707 -8.94953
666 1 11.0069 17.2976 20.4418 -8.94954
667 1 12.5797 15.7257 18.8709 -8.95005
668 1 14.1522 17.2977 20.4418 -8.94973
669 1 15.7262 15.7261 18.8711 -8.94902
670 1 17.2977 17.2977 20.4417 -8.94926
671 1 18.87 15.7248 18.8696 -8.94957
672 1 20.4419 17.2969 20.4415 -8.94955
673 1 -3.86607e-05 18.8693 18.8693 -8.9496
674 1 1.57211 20.4417 20.4415 -8.94937
675 1 3.14414 18.8697 18.8697 -8.94938
676 1 4.71697 20.4418 20.4416 -8.94958
677 1 6.28922 18.8698 18.8698 -8.94956
678 1 7.86195 20.4418 20.4416 -8.94954
679 1 9.43437 18.8699 18.8698 -8.9495
357 1 9.43405 12.5795 22.0144 -8.94937
359 1 12.5799 12.5798 22.0133 -8.95192
363 1 18.87 12.5796 22.0135 -8.94947
365 1 9.37865e-05 15.7244 22.0137 -8.94952
369 1 6.28888 15.7248 22.0132 -8.95063
375 1 15.7256 15.7256 22.013 -8.94993
379 1 22.0139 18.8693 22.0137 -8.94958
381 1 3.14423 18.8696 22.0135 -8.94947
385 1 9.4344 18.8698 22.0135 -8.9495
353 1 3.14437 12.5794 22.0137 -8.94953
538 1 17.2972 20.4419 11.0069 -8.94952
