ITEM: TIMESTEP
87
ITEM: NUMBER OF ATOMS
688
ITEM: BOX BOUNDS pp pp pp
0.0000000000000000e+00 2.2013900999999997e+01
0.0000000000000000e+00 2.2013900999999997e+01
0.0000000000000000e+00 2.2013900999999997e+01
ITEM: ATOMS id type x y z c_pot
189 1 20.4414 4.71657 11.0071 -8.94956
2 1 1.57184 1.57207 1.57189 -8.94913
175 1 18.8693 9.43442 9.43475 -8.94791
4 1 4.71679 1.57196 1.57178 -8.94962
174 1 15.7219 9.43545 9.43508 -8.94411
6 1 7.86193 1.57194 1.5718 -8.94946
7 1 9.43449 -1.22637e-15 -0.000214893 -8.94955
8 1 11.007 1.57191 1.57183 -8.9495
173 1 12.564 9.43175 9.42076 -8.9352
10 1 14.1521 1.57188 1.57192 -8.94949
11 1 15.7245 -8.98423e-16 -0.000163845 -8.94957
12 1 17.2972 1.57183 1.57192 -8.94947
188 1 17.2978 4.71611 11.0069 -8.94895
14 1 20.4415 1.57215 1.57219 -8.94952
172 1 9.35627 9.17986 9.43141 -8.13399
16 1 1.57197 4.71693 1.57185 -8.94985
171 1 6.2813 9.42544 9.43338 -8.97109
18 1 4.71588 4.71602 1.57066 -8.94951
19 1 6.2893 3.14422 -0.00038002 -8.94948
20 1 7.86153 4.71601 1.57097 -8.94911
170 1 3.14207 9.43482 9.4344 -8.95105
22 1 11.007 4.71585 1.57103 -8.94933
169 1 22.0132 9.43464 9.43454 -8.94943
24 1 14.1527 4.71564 1.57095 -8.94968
25 1 15.7247 3.14404 -0.00034221 -8.94966
26 1 17.2983 4.71557 1.57113 -8.94814
168 1 18.87 6.28876 9.43452 -8.9496
28 1 20.442 4.71675 1.57197 -8.94956
167 1 15.7267 6.28736 9.43423 -8.94623
30 1 1.57216 7.86203 1.57195 -8.94941
31 1 3.14442 6.2896 -0.000251102 -8.94975
32 1 4.71666 7.86229 1.5717 -8.94966
166 1 12.5799 6.28716 9.43199 -8.94555
34 1 7.86151 7.86166 1.57049 -8.95261
35 1 9.43404 6.28863 -0.000698806 -8.94961
36 1 11.0067 7.86078 1.5698 -8.95074
37 1 12.5796 6.28854 -0.000804441 -8.94971
38 1 14.154 7.86009 1.56871 -8.95174
165 1 9.42905 6.29021 9.43375 -9.00768
40 1 17.2985 7.86113 1.57098 -8.94911
41 1 18.8699 6.28914 -0.000345522 -8.94948
42 1 20.4421 7.8618 1.57189 -8.94944
43 1 22.014 9.43446 -0.000205253 -8.94955
187 1 14.1531 4.71542 11.0063 -8.94893
45 1 6.28911 9.43463 -6.23875e-05 -8.94935
164 1 6.27738 6.27781 9.4335 -8.94073
163 1 3.13973 6.287 9.43444 -8.94924
48 1 15.7259 9.43397 -0.00100231 -8.94926
162 1 -0.0012183 6.28896 9.43451 -8.95006
50 1 -0.000315911 4.78838e-16 3.14457 -8.94951
51 1 1.57165 1.57197 4.71673 -8.94944
52 1 3.14405 7.5678e-16 3.14404 -8.94953
53 1 4.71607 1.57115 4.71602 -8.95003
54 1 6.28935 4.58907e-16 3.14406 -8.94956
55 1 7.86186 1.57124 4.71622 -8.94963
56 1 9.43457 4.48855e-16 3.14408 -8.94953
57 1 11.0073 1.57132 4.71631 -8.94959
58 1 12.5797 8.57059e-17 3.14419 -8.9495
59 1 14.1525 1.57127 4.71668 -8.95069
60 1 15.7248 3.75441e-16 3.14436 -8.95004
61 1 17.2971 1.57195 4.71708 -8.94966
62 1 18.8693 3.23055e-16 3.14468 -8.94966
63 1 20.4414 1.57216 4.71708 -8.94951
64 1 22.0134 3.14434 3.14433 -8.94954
65 1 1.57064 4.71618 4.71607 -8.9497
66 1 3.14321 3.14345 3.14324 -8.94809
67 1 4.71243 4.71274 4.71255 -8.94411
68 1 6.28882 3.14332 3.14332 -8.94956
69 1 7.8605 4.71328 4.71405 -8.94877
70 1 9.43441 3.14333 3.14349 -8.94935
71 1 11.0075 4.71354 4.71425 -8.94763
72 1 12.5799 3.14324 3.14362 -8.94912
73 1 14.1552 4.71199 4.71387 -8.94964
74 1 15.7256 3.14285 3.14354 -8.94939
75 1 17.2983 4.71573 4.71655 -8.95002
76 1 18.8696 3.14414 3.14446 -8.94972
77 1 20.4415 4.7167 4.71692 -8.94991
78 1 22.0139 6.28939 3.14431 -8.94983
79 1 1.57159 7.86212 4.71659 -8.94982
80 1 3.14356 6.28927 3.1436 -8.95037
81 1 4.71468 7.86195 4.71529 -8.95142
82 1 6.28657 6.28685 3.14003 -8.95031
83 1 7.85609 7.85563 4.70657 -8.95505
84 1 9.4338 6.28687 3.14123 -8.94771
85 1 11.0078 7.85656 4.70747 -8.95183
86 1 12.5809 6.28659 3.14075 -8.94933
87 1 14.1656 7.84945 4.7035 -8.93037
88 1 15.729 6.28506 3.14036 -8.94456
89 1 17.3014 7.85986 4.71495 -8.95077
90 1 18.8708 6.28854 3.14379 -8.94967
91 1 20.4425 7.86168 4.7167 -8.95018
92 1 0.0001733 9.43441 3.1442 -8.94954
93 1 3.14401 9.43456 3.14389 -8.94894
94 1 6.28924 9.43533 3.14409 -8.94913
95 1 9.43521 9.43446 3.14381 -8.95112
96 1 12.5829 9.43303 3.13624 -8.95979
97 1 15.7287 9.43296 3.14072 -8.94739
98 1 18.871 9.43408 3.14364 -8.94927
99 1 22.0135 1.34134e-15 6.28948 -8.94953
100 1 1.57155 1.57192 7.86187 -8.94949
101 1 3.14382 1.81896e-15 6.28909 -8.94933
102 1 4.7157 1.57097 7.86143 -8.9493
103 1 6.28903 1.63899e-15 6.28893 -8.9507
104 1 7.8617 1.5705 7.8617 -8.95147
105 1 9.43471 8.63739e-16 6.28903 -8.95025
106 1 11.0071 1.5715 7.86192 -8.94958
107 1 12.5797 1.02141e-15 6.28943 -8.95043
108 1 14.1525 1.57165 7.86192 -8.94946
109 1 15.7248 3.73082e-16 6.28954 -8.94954
110 1 17.2972 1.57199 7.86202 -8.94953
111 1 18.8693 1.27247e-15 6.28958 -8.94953
112 1 20.4414 1.57213 7.86202 -8.94955
113 1 -0.000614941 3.14425 6.28935 -8.94946
114 1 1.57044 4.71602 7.8616 -8.94933
115 1 3.14297 3.14324 6.28862 -8.94909
116 1 4.71256 4.71284 7.86022 -8.94716
117 1 6.28749 3.14069 6.28761 -8.9517
118 1 7.8584 4.70801 7.86002 -8.95965
119 1 9.43455 3.14158 6.28814 -8.95043
120 1 11.0064 4.71406 7.86103 -8.95246
121 1 12.58 3.14204 6.28891 -8.95255
122 1 14.1533 4.71487 7.86178 -8.94857
123 1 15.7252 3.14355 6.28948 -8.94949
124 1 17.2978 4.71609 7.86198 -8.94896
125 1 18.8694 3.14425 6.28955 -8.94942
126 1 20.4414 4.71658 7.86195 -8.94958
127 1 22.0129 6.28914 6.28923 -8.95032
128 1 1.56965 7.86169 7.86172 -8.95195
129 1 3.13999 6.28736 6.28728 -8.95097
130 1 4.70597 7.85779 7.85911 -8.95856
131 1 6.27533 6.27587 6.27631 -8.92834
132 1 7.81813 7.82201 7.82493 -8.84543
133 1 9.43319 6.27981 6.28328 -8.9492
134 1 11.0234 7.84927 7.83368 -8.89695
135 1 12.5867 6.27772 6.28119 -8.9521
136 1 14.1587 7.85802 7.86082 -8.94973
137 1 15.7279 6.28685 6.2884 -8.95049
138 1 17.2988 7.86147 7.86276 -8.95092
139 1 18.8701 6.28899 6.28961 -8.95011
140 1 20.4416 7.86183 7.86217 -8.95011
141 1 22.0138 9.43456 6.28929 -8.94991
142 1 3.14315 9.43523 6.2889 -8.94972
143 1 6.2861 9.43684 6.28834 -8.95146
144 1 9.42195 9.4119 6.28392 -8.91017
145 1 12.621 9.40074 6.25011 -8.86016
146 1 15.7353 9.43184 6.28527 -8.95741
147 1 18.8718 9.4342 6.2892 -8.95168
148 1 -0.00039429 1.73785e-15 9.43451 -8.94954
149 1 3.14374 1.39064e-15 9.43447 -8.94945
150 1 6.28856 3.83997e-16 9.4343 -8.95038
151 1 9.43468 1.07984e-15 9.4343 -8.94855
152 1 12.58 9.71953e-17 9.43428 -8.94948
153 1 15.7248 -5.20425e-17 9.43446 -8.94964
154 1 18.8693 1.37538e-15 9.4345 -8.94956
155 1 22.0133 3.14421 9.4345 -8.94951
156 1 3.14285 3.14321 9.43445 -8.94946
157 1 6.28655 3.14015 9.43409 -8.94936
158 1 9.4342 3.14296 9.43419 -8.94641
159 1 12.5802 3.14326 9.43396 -8.94875
160 1 15.7252 3.14368 9.43442 -8.94958
161 1 18.8694 3.14421 9.4345 -8.94955
177 1 4.71571 1.571 11.0073 -8.94933
180 1 14.1525 1.57174 11.0068 -8.94936
184 1 4.71265 4.71296 11.0084 -8.94762
183 1 1.57045 4.71602 11.0074 -8.94929
3 1 3.14452 4.3271e-16 -0.000220626 -8.9496
176 1 1.57154 1.57192 11.0071 -8.94948
343 1 18.8701 9.43432 18.8696 -8.94947
178 1 7.86153 1.57017 11.0069 -8.95164
179 1 11.0073 1.57112 11.0066 -8.94984
342 1 15.7262 9.43389 18.8709 -8.94936
341 1 12.5811 9.43291 18.8745 -8.95133
182 1 20.4414 1.57213 11.007 -8.94955
340 1 9.4331 9.43336 18.8723 -8.94747
339 1 6.28888 9.43464 18.8698 -8.94965
185 1 7.85774 4.7066 11.0076 -8.95824
186 1 11.0075 4.71237 11.0061 -8.95168
338 1 3.14425 9.43449 18.8696 -8.94952
337 1 8.12257e-05 9.43445 18.8694 -8.94957
336 1 20.4419 7.86191 20.4415 -8.94953
190 1 1.56971 7.86173 11.0073 -8.95199
191 1 4.70616 7.85797 11.0096 -8.95952
192 1 7.81705 7.82034 11.0392 -8.878
193 1 11.0299 7.84562 11.0261 -8.94747
194 1 14.1569 7.85974 11.0044 -8.95487
195 1 17.2985 7.86139 11.0064 -8.95031
196 1 20.4415 7.8618 11.0069 -8.95005
197 1 22.0135 6.79616e-17 12.5795 -8.94953
198 1 1.57162 1.57196 14.1523 -8.94947
199 1 3.14381 6.98249e-16 12.5798 -8.94937
200 1 4.71593 1.57109 14.153 -8.94993
201 1 6.28887 -3.64596e-16 12.58 -8.95061
202 1 7.86163 1.57079 14.1529 -8.94986
203 1 9.43471 1.40858e-15 12.5799 -8.95103
204 1 11.0075 1.57086 14.1528 -8.9497
205 1 12.5799 1.67252e-15 12.5795 -8.9504
206 1 14.1526 1.57113 14.1523 -8.95069
207 1 15.7248 1.81779e-15 12.5793 -8.94951
208 1 17.2971 1.57198 14.1519 -8.94967
209 1 18.8693 8.42806e-16 12.5794 -8.94953
210 1 20.4414 1.57216 14.152 -8.94951
211 1 -0.000615034 3.14424 12.5797 -8.94944
212 1 1.57061 4.71617 14.1529 -8.94968
213 1 3.14297 3.14325 12.5803 -8.94916
214 1 4.71234 4.71271 14.1563 -8.94435
215 1 6.28732 3.14039 12.5812 -8.95133
216 1 7.85974 4.71143 14.1555 -8.94846
217 1 9.43461 3.13971 12.5806 -8.95314
218 1 11.0084 4.71181 14.1554 -8.94601
219 1 12.5802 3.14162 12.5799 -8.95243
220 1 14.1556 4.71158 14.155 -8.94974
221 1 15.7251 3.14369 12.5793 -8.94947
222 1 17.2982 4.71588 14.1523 -8.9503
223 1 18.8694 3.14425 12.5794 -8.94941
224 1 20.4415 4.71669 14.1521 -8.94984
225 1 22.0129 6.28913 12.5798 -8.95027
226 1 1.57153 7.86216 14.1524 -8.94993
227 1 3.14005 6.28736 12.5816 -8.95079
228 1 4.71449 7.86195 14.1534 -8.95288
229 1 6.27583 6.27564 12.592 -8.92828
230 1 7.85301 7.85131 14.1655 -8.99261
231 1 9.43419 6.27018 12.5842 -8.96331
232 1 11.0107 7.85449 14.1636 -9.00063
233 1 12.5869 6.27682 12.5871 -8.95205
234 1 14.1664 7.84861 14.1653 -8.92907
235 1 15.7274 6.28747 12.5796 -8.95082
236 1 17.3013 7.86007 14.1537 -8.95162
237 1 18.8701 6.28899 12.5794 -8.94982
238 1 20.4424 7.86176 14.1522 -8.95032
239 1 -0.000146878 9.43462 12.5797 -8.94972
240 1 3.14349 9.43534 12.5799 -8.94928
241 1 6.28792 9.43748 12.5796 -9.00304
242 1 9.41456 9.36409 12.5776 -9.19389
243 1 12.6209 9.3984 12.6186 -8.90952
244 1 15.7332 9.43299 12.5827 -8.96077
245 1 18.8712 9.43446 12.5796 -8.95177
246 1 -0.000329803 1.82796e-17 15.7245 -8.94954
247 1 1.57179 1.57206 17.2972 -8.94917
248 1 3.14395 1.04861e-16 15.725 -8.94951
249 1 4.71659 1.57184 17.2975 -8.94954
250 1 6.28912 5.81133e-16 15.7252 -8.9496
251 1 7.86185 1.5718 17.2975 -8.94948
252 1 9.43456 1.41488e-17 15.7251 -8.94953
253 1 11.0071 1.57175 17.2975 -8.94949
254 1 12.5799 1.31233e-15 15.725 -8.9496
255 1 14.1523 1.57169 17.2974 -8.94953
256 1 15.7249 3.18534e-16 15.7247 -8.95004
257 1 17.2973 1.5718 17.2972 -8.94945
258 1 18.8693 -6.16246e-16 15.7244 -8.94968
259 1 20.4415 1.57215 17.2969 -8.94958
260 1 22.0134 3.14433 15.7247 -8.94955
261 1 1.57187 4.71689 17.2973 -8.94991
262 1 3.14311 3.14343 15.7258 -8.94819
263 1 4.7155 4.71571 17.2989 -8.94904
264 1 6.28839 3.14279 15.7261 -8.94944
265 1 7.86135 4.71557 17.2986 -8.94947
266 1 9.43442 3.14276 15.7258 -8.94931
267 1 11.0071 4.71535 17.2986 -8.9492
268 1 12.5803 3.14255 15.7258 -8.94921
269 1 14.1532 4.7149 17.2987 -8.94983
270 1 15.7259 3.14268 15.7256 -8.94935
271 1 17.2985 4.7155 17.2981 -8.94816
272 1 18.8696 3.14416 15.7246 -8.94983
273 1 20.442 4.71673 17.2971 -8.9496
274 1 -2.20637e-05 6.28939 15.7247 -8.94994
275 1 1.57205 7.86202 17.2972 -8.94949
276 1 3.14331 6.28922 15.7255 -8.95066
277 1 4.7163 7.86218 17.2977 -8.94985
278 1 6.28543 6.28567 15.7301 -8.9483
279 1 7.86037 7.86039 17.3006 -8.95216
280 1 9.43399 6.28548 15.7281 -8.94858
281 1 11.0065 7.86013 17.3015 -8.9506
282 1 12.5818 6.28461 15.7294 -8.95083
283 1 14.1563 7.85782 17.3032 -8.94801
284 1 15.7294 6.2848 15.7288 -8.94414
285 1 17.2989 7.86101 17.2983 -8.9497
286 1 18.8709 6.28854 15.7252 -8.94982
287 1 20.4422 7.8618 17.2972 -8.94956
288 1 22.014 9.43443 15.7248 -8.94961
289 1 3.14389 9.43463 15.7252 -8.94918
290 1 6.28874 9.43549 15.7253 -8.95018
291 1 9.43185 9.43037 15.7288 -8.99981
292 1 12.5893 9.42525 15.7416 -8.98472
293 1 15.7292 9.43306 15.7284 -8.94996
294 1 18.8711 9.43415 15.7253 -8.94948
295 1 22.0137 -2.03443e-16 18.8693 -8.94928
296 1 1.57211 1.57217 20.4415 -8.94937
297 1 3.14444 -4.29278e-16 18.8695 -8.94954
298 1 4.71696 1.57213 20.4416 -8.94957
299 1 6.28944 -9.89931e-16 18.8695 -8.94954
300 1 7.86194 1.57207 20.4416 -8.94954
301 1 9.43448 -6.91051e-16 18.8695 -8.94956
302 1 11.007 1.57205 20.4416 -8.94954
303 1 12.5795 -1.0285e-15 18.8695 -8.94954
304 1 14.152 1.57205 20.4416 -8.94954
305 1 15.7246 -7.29712e-16 18.8694 -8.94957
306 1 17.297 1.57206 20.4416 -8.94958
307 1 18.8694 -3.61439e-16 18.8693 -8.94939
308 1 20.4417 1.57222 20.4415 -8.94927
309 1 -3.92942e-05 3.14457 18.8693 -8.9496
310 1 1.57221 4.7171 20.4416 -8.94972
311 1 3.14413 3.14423 18.8697 -8.94938
312 1 4.71654 4.71666 20.4417 -8.94996
313 1 6.28921 3.14411 18.8698 -8.94956
314 1 7.86163 4.71639 20.4418 -8.94955
315 1 9.43437 3.14396 18.8698 -8.9495
316 1 11.0069 4.71628 20.4418 -8.94954
317 1 12.5796 3.14392 18.8698 -8.94948
318 1 14.1522 4.71622 20.4418 -8.94973
319 1 15.7249 3.14385 18.8697 -8.94962
320 1 17.2977 4.71623 20.4417 -8.94926
321 1 18.8697 3.14421 18.8695 -8.94916
322 1 20.4419 4.71695 20.4415 -8.94955
323 1 22.014 6.28949 18.8693 -8.94956
324 1 1.5722 7.86202 20.4416 -8.94954
325 1 3.1443 6.28955 18.8696 -8.94978
326 1 4.71667 7.86209 20.4417 -8.94961
327 1 6.28855 6.28878 18.8708 -8.95043
328 1 7.86125 7.8615 20.4424 -8.95017
329 1 9.43393 6.28825 18.8707 -8.94953
330 1 11.0066 7.86123 20.4425 -8.95003
331 1 12.5797 6.28818 18.8709 -8.95005
332 1 14.1531 7.86079 20.4427 -8.95053
333 1 15.7262 6.28774 18.8711 -8.94902
334 1 17.2978 7.86151 20.4417 -8.94941
335 1 18.87 6.28908 18.8696 -8.94957
49 1 18.87 9.43432 22.0135 -8.94947
5 1 6.28949 -1.19336e-15 22.0137 -8.94953
9 1 12.5795 -7.21036e-16 22.0137 -8.94954
15 1 22.0139 3.14459 22.0137 -8.94958
17 1 3.14422 3.14429 22.0135 -8.94946
21 1 9.43439 3.14411 22.0135 -8.9495
23 1 12.5795 3.14408 22.0136 -8.94946
27 1 18.8697 3.14421 22.0136 -8.94908
29 1 9.77798e-05 6.28951 22.0137 -8.94952
33 1 6.28888 6.28907 22.0132 -8.95063
39 1 15.7257 6.28824 22.013 -8.94992
46 1 9.43405 9.43438 22.0144 -8.94936
47 1 12.5799 9.43408 22.0133 -8.95192
1 1 -0.000171374 5.47612e-16 22.0138 -8.94924
13 1 18.8694 1.15641e-16 22.0137 -8.94937
44 1 3.14437 9.4345 22.0137 -8.94953
181 1 17.2972 1.57199 11.0069 -8.94952
344 1 1.57215 11.007 1.57191 -8.94956
345 1 4.71657 11.007 1.57171 -8.94962
346 1 7.86185 11.007 1.57273 -8.94809
347 1 11.0071 11.007 1.57232 -8.94683
348 1 14.1547 11.007 1.5686 -8.9495
349 1 17.2986 11.007 1.57094 -8.94939
350 1 20.4422 11.007 1.57185 -8.9495
351 1 22.014 12.5794 -0.000205253 -8.94955
352 1 1.57216 14.1519 1.57195 -8.94941
537 1 14.1525 20.4422 11.0068 -8.94936
354 1 4.71666 14.1516 1.5717 -8.94966
355 1 6.28911 12.5793 -6.23875e-05 -8.94935
356 1 7.86151 14.1522 1.57049 -8.95261
688 3 10.1453 11.007 9.40159 2.34336
358 1 11.0067 14.1531 1.5698 -8.95074
511 1 18.8694 18.8697 9.4345 -8.94955
360 1 14.154 14.1538 1.56871 -8.95174
361 1 15.7259 12.5799 -0.00100231 -8.94926
362 1 17.2985 14.1528 1.57098 -8.94911
510 1 15.7252 18.8702 9.43442 -8.94958
364 1 20.4421 14.1521 1.57189 -8.94944
509 1 12.5802 18.8706 9.43396 -8.94875
366 1 1.57197 17.297 1.57185 -8.94985
367 1 3.14442 15.7243 -0.000251102 -8.94975
368 1 4.71588 17.2979 1.57066 -8.94951
508 1 9.4342 18.8709 9.43419 -8.94641
370 1 7.86153 17.2979 1.57097 -8.94911
371 1 9.43404 15.7253 -0.000698806 -8.94961
372 1 11.007 17.2981 1.57103 -8.94933
373 1 12.5796 15.7254 -0.000804441 -8.94971
374 1 14.1527 17.2983 1.57095 -8.94968
507 1 6.28655 18.8738 9.43409 -8.94936
376 1 17.2983 17.2983 1.57113 -8.94814
377 1 18.8699 15.7248 -0.000345522 -8.94948
378 1 20.442 17.2972 1.57197 -8.94956
506 1 3.14285 18.8707 9.43445 -8.94946
380 1 1.57184 20.4418 1.57189 -8.94913
505 1 22.0133 18.8697 9.4345 -8.94951
382 1 4.71679 20.4419 1.57178 -8.94962
383 1 6.2893 18.8697 -0.00038002 -8.94948
384 1 7.86193 20.442 1.5718 -8.94946
504 1 18.87 15.7251 9.43452 -8.9496
386 1 11.007 20.442 1.57183 -8.9495
503 1 15.7267 15.7265 9.43423 -8.94623
388 1 14.1521 20.442 1.57192 -8.94949
389 1 15.7247 18.8699 -0.00034221 -8.94966
390 1 17.2972 20.4421 1.57192 -8.94947
502 1 12.5799 15.7267 9.43199 -8.94555
392 1 20.4415 20.4418 1.57219 -8.94952
393 1 1.57174 11.007 4.71633 -8.94949
394 1 4.71565 11.007 4.71543 -8.94608
395 1 7.86474 11.007 4.72017 -8.9458
396 1 11.0127 11.007 4.7209 -9.00092
397 1 14.1635 11.007 4.70624 -8.9415
398 1 17.3017 11.007 4.71458 -8.94908
399 1 20.4427 11.007 4.71651 -8.94995
400 1 0.0001733 12.5795 3.1442 -8.94954
401 1 1.57159 14.1518 4.71659 -8.94982
402 1 3.14401 12.5793 3.14389 -8.94894
403 1 4.71468 14.152 4.71529 -8.95142
404 1 6.28924 12.5786 3.14409 -8.94913
405 1 7.85609 14.1583 4.70657 -8.95505
406 1 9.43521 12.5794 3.14381 -8.95112
407 1 11.0078 14.1573 4.70747 -8.95183
408 1 12.5829 12.5809 3.13624 -8.95979
409 1 14.1656 14.1645 4.7035 -8.93037
410 1 15.7287 12.5809 3.14072 -8.94739
411 1 17.3014 14.154 4.71495 -8.95077
412 1 18.871 12.5798 3.14364 -8.94927
413 1 20.4425 14.1522 4.7167 -8.95018
414 1 22.0139 15.7245 3.14431 -8.94983
415 1 1.57064 17.2977 4.71607 -8.9497
416 1 3.14356 15.7246 3.1436 -8.95037
417 1 4.71243 17.3012 4.71255 -8.94411
418 1 6.28657 15.7271 3.14003 -8.95031
419 1 7.8605 17.3006 4.71405 -8.94877
420 1 9.4338 15.727 3.14123 -8.94771
421 1 11.0075 17.3004 4.71425 -8.94763
422 1 12.5809 15.7273 3.14075 -8.94933
423 1 14.1552 17.3019 4.71387 -8.94964
424 1 15.729 15.7288 3.14036 -8.94456
425 1 17.2983 17.2982 4.71655 -8.95002
426 1 18.8708 15.7254 3.14379 -8.94967
427 1 20.4415 17.2972 4.71692 -8.94991
428 1 22.0134 18.8696 3.14433 -8.94954
429 1 1.57165 20.4419 4.71673 -8.94944
430 1 3.14321 18.8704 3.14324 -8.94809
431 1 4.71607 20.4428 4.71602 -8.95003
432 1 6.28882 18.8706 3.14332 -8.94956
433 1 7.86186 20.4427 4.71622 -8.94963
434 1 9.43441 18.8706 3.14349 -8.94935
435 1 11.0073 20.4426 4.71631 -8.94959
436 1 12.5799 18.8707 3.14362 -8.94912
437 1 14.1525 20.4426 4.71668 -8.95069
438 1 15.7256 18.8711 3.14354 -8.94939
439 1 17.2971 20.4419 4.71708 -8.94966
440 1 18.8696 18.8698 3.14446 -8.94972
441 1 20.4414 20.4417 4.71708 -8.94951
442 1 1.57187 11.007 7.86171 -8.94765
443 1 4.71937 11.007 7.86247 -8.9407
444 1 7.88244 11.007 7.87113 -8.87318
445 1 11.0933 11.007 7.6404 -8.15675
446 1 14.1618 11.007 7.85337 -8.9718
447 1 17.2996 11.007 7.86224 -8.95149
448 1 20.4421 11.007 7.86215 -8.94955
449 1 22.0138 12.5793 6.28929 -8.94991
450 1 1.56965 14.1522 7.86172 -8.95195
451 1 3.14315 12.5787 6.2889 -8.94972
452 1 4.70597 14.1561 7.85911 -8.95856
453 1 6.2861 12.5771 6.28834 -8.95146
454 1 7.81813 14.1919 7.82493 -8.84543
455 1 9.42195 12.602 6.28392 -8.91017
456 1 11.0234 14.1646 7.83368 -8.89695
457 1 12.621 12.6132 6.25011 -8.86016
458 1 14.1587 14.1559 7.86082 -8.94973
459 1 15.7353 12.5821 6.28527 -8.95741
460 1 17.2988 14.1524 7.86276 -8.95092
461 1 18.8718 12.5797 6.2892 -8.95168
462 1 20.4416 14.1521 7.86217 -8.95011
463 1 22.0129 15.7248 6.28923 -8.95032
464 1 1.57044 17.2979 7.8616 -8.94933
465 1 3.13999 15.7265 6.28728 -8.95097
466 1 4.71256 17.3011 7.86022 -8.94716
467 1 6.27533 15.738 6.27631 -8.92834
468 1 7.8584 17.3059 7.86002 -8.95965
469 1 9.43319 15.7341 6.28328 -8.9492
470 1 11.0064 17.2998 7.86103 -8.95246
471 1 12.5867 15.7362 6.28119 -8.9521
472 1 14.1533 17.299 7.86178 -8.94857
473 1 15.7279 15.7271 6.2884 -8.95049
474 1 17.2978 17.2978 7.86198 -8.94896
475 1 18.8701 15.7249 6.28961 -8.95011
476 1 20.4414 17.2973 7.86195 -8.94958
477 1 -0.000614941 18.8697 6.28935 -8.94946
478 1 1.57155 20.442 7.86187 -8.94949
479 1 3.14297 18.8707 6.28862 -8.94909
480 1 4.7157 20.4429 7.86143 -8.9493
481 1 6.28749 18.8732 6.28761 -8.9517
482 1 7.8617 20.4434 7.8617 -8.95147
483 1 9.43455 18.8723 6.28814 -8.95043
484 1 11.0071 20.4424 7.86192 -8.94958
485 1 12.58 18.8719 6.28891 -8.95255
486 1 14.1525 20.4423 7.86192 -8.94946
487 1 15.7252 18.8704 6.28948 -8.94949
488 1 17.2972 20.4419 7.86202 -8.94953
489 1 18.8694 18.8697 6.28955 -8.94942
490 1 20.4414 20.4418 7.86202 -8.94955
491 1 22.0132 12.5793 9.43454 -8.94943
492 1 3.14207 12.5791 9.4344 -8.95105
493 1 6.2813 12.5885 9.43338 -8.97109
494 1 9.35627 12.834 9.43141 -8.13399
495 1 12.564 12.5821 9.42076 -8.9352
496 1 15.7219 12.5785 9.43508 -8.94411
497 1 18.8693 12.5795 9.43475 -8.94791
498 1 -0.0012183 15.7249 9.43451 -8.95006
499 1 3.13973 15.7269 9.43444 -8.94924
500 1 6.27738 15.7361 9.4335 -8.94073
501 1 9.42905 15.7237 9.43375 -9.00768
526 1 1.57045 17.2979 11.0074 -8.94929
527 1 4.71265 17.3009 11.0084 -8.94762
530 1 14.1531 17.2985 11.0063 -8.94893
531 1 17.2978 17.2978 11.0069 -8.94895
532 1 20.4414 17.2973 11.0071 -8.94956
534 1 4.71571 20.4429 11.0073 -8.94933
517 1 17.2968 11.007 11.0066 -8.94677
518 1 20.4417 11.007 11.0069 -8.9487
512 1 1.57192 11.007 11.0072 -8.9475
513 1 4.71986 11.007 11.0059 -8.94141
514 1 7.88175 11.007 10.99 -8.90493
515 1 11.1485 11.007 11.1316 -8.48891
516 1 14.1462 11.007 11.0146 -9.02361
391 1 18.8697 18.8697 22.0136 -8.94908
387 1 12.5795 18.8698 22.0136 -8.94946
519 1 1.56971 14.1522 11.0073 -8.95199
520 1 4.70616 14.1559 11.0096 -8.95952
521 1 7.81705 14.1936 11.0392 -8.878
522 1 11.0299 14.1683 11.0261 -8.94747
523 1 14.1569 14.1542 11.0044 -8.95487
524 1 17.2985 14.1525 11.0064 -8.95031
525 1 20.4415 14.1521 11.0069 -8.95005
687 2 10.1554 11.007 12.6423 0.848713
686 1 20.4417 20.4417 20.4415 -8.94927
528 1 7.85774 17.3073 11.0076 -8.95824
529 1 11.0075 17.3015 11.0061 -8.95168
685 1 18.8697 18.8697 18.8695 -8.94916
684 1 17.297 20.4418 20.4416 -8.94958
683 1 15.7249 18.87 18.8697 -8.94962
533 1 1.57154 20.442 11.0071 -8.94948
682 1 14.152 20.4419 20.4416 -8.94954
535 1 7.86153 20.4437 11.0069 -8.95164
536 1 11.0073 20.4428 11.0066 -8.94984
681 1 12.5796 18.87 18.8698 -8.94948
680 1 11.007 20.4419 20.4416 -8.94954
539 1 20.4414 20.4418 11.007 -8.94955
540 1 1.57179 11.007 14.1526 -8.94935
541 1 4.71625 11.007 14.1532 -8.94547
542 1 7.86745 11.007 14.1479 -8.97724
543 1 11.0384 11.007 14.224 -9.25883
544 1 14.1597 11.007 14.1623 -8.99138
545 1 17.3008 11.007 14.1543 -8.9481
546 1 20.4426 11.007 14.1524 -8.94982
547 1 -0.000146878 12.5793 12.5797 -8.94972
548 1 1.57153 14.1517 14.1524 -8.94993
549 1 3.14349 12.5786 12.5799 -8.94928
550 1 4.71449 14.152 14.1534 -8.95288
551 1 6.28792 12.5764 12.5796 -9.00304
552 1 7.85301 14.1626 14.1655 -8.99261
553 1 9.41456 12.6498 12.5776 -9.19389
554 1 11.0107 14.1594 14.1636 -9.00063
555 1 12.6209 12.6155 12.6186 -8.90952
556 1 14.1664 14.1653 14.1653 -8.92907
557 1 15.7332 12.5809 12.5827 -8.96077
558 1 17.3013 14.1538 14.1537 -8.95162
559 1 18.8712 12.5794 12.5796 -8.95177
560 1 20.4424 14.1521 14.1522 -8.95032
561 1 22.0129 15.7248 12.5798 -8.95027
562 1 1.57061 17.2977 14.1529 -8.94968
563 1 3.14005 15.7265 12.5816 -8.95079
564 1 4.71234 17.3012 14.1563 -8.94435
565 1 6.27583 15.7383 12.592 -8.92828
566 1 7.85974 17.3025 14.1555 -8.94846
567 1 9.43419 15.7437 12.5842 -8.96331
568 1 11.0084 17.3021 14.1554 -8.94601
569 1 12.5869 15.7371 12.5871 -8.95205
570 1 14.1556 17.3023 14.155 -8.94974
571 1 15.7274 15.7264 12.5796 -8.95082
572 1 17.2982 17.298 14.1523 -8.9503
573 1 18.8701 15.7249 12.5794 -8.94982
574 1 20.4415 17.2972 14.1521 -8.94984
575 1 -0.000615034 18.8697 12.5797 -8.94944
576 1 1.57162 20.4419 14.1523 -8.94947
577 1 3.14297 18.8706 12.5803 -8.94916
578 1 4.71593 20.4428 14.153 -8.94993
579 1 6.28732 18.8735 12.5812 -8.95133
580 1 7.86163 20.4431 14.1529 -8.94986
581 1 9.43461 18.8742 12.5806 -8.95314
582 1 11.0075 20.443 14.1528 -8.9497
583 1 12.5802 18.8723 12.5799 -8.95243
584 1 14.1526 20.4428 14.1523 -8.95069
585 1 15.7251 18.8702 12.5793 -8.94947
586 1 17.2971 20.4419 14.1519 -8.94967
587 1 18.8694 18.8697 12.5794 -8.94941
588 1 20.4414 20.4417 14.152 -8.94951
589 1 1.57204 11.007 17.2973 -8.94958
590 1 4.71631 11.007 17.2977 -8.94912
591 1 7.8621 11.007 17.2975 -8.94775
592 1 11.0073 11.007 17.3121 -8.96812
593 1 14.1551 11.007 17.3025 -8.94873
594 1 17.2988 11.007 17.2984 -8.94924
595 1 20.4422 11.007 17.2973 -8.94955
596 1 22.014 12.5795 15.7248 -8.94961
597 1 1.57205 14.1519 17.2972 -8.94949
598 1 3.14389 12.5793 15.7252 -8.94918
599 1 4.7163 14.1517 17.2977 -8.94985
600 1 6.28874 12.5784 15.7253 -8.95018
601 1 7.86037 14.1535 17.3006 -8.95216
602 1 9.43185 12.5835 15.7288 -8.99981
603 1 11.0065 14.1538 17.3015 -8.9506
604 1 12.5893 12.5887 15.7416 -8.98472
605 1 14.1563 14.1561 17.3032 -8.94801
606 1 15.7292 12.5808 15.7284 -8.94996
607 1 17.2989 14.1529 17.2983 -8.9497
608 1 18.8711 12.5798 15.7253 -8.94948
609 1 20.4422 14.1521 17.2972 -8.94956
610 1 -2.20637e-05 15.7245 15.7247 -8.94994
611 1 1.57187 17.297 17.2973 -8.94991
612 1 3.14331 15.7247 15.7255 -8.95066
613 1 4.7155 17.2982 17.2989 -8.94904
614 1 6.28543 15.7282 15.7301 -8.9483
615 1 7.86135 17.2983 17.2986 -8.94947
616 1 9.43399 15.7284 15.7281 -8.94858
617 1 11.0071 17.2985 17.2986 -8.9492
618 1 12.5818 15.7293 15.7294 -8.95083
619 1 14.1532 17.299 17.2987 -8.94983
620 1 15.7294 15.7291 15.7288 -8.94414
621 1 17.2985 17.2984 17.2981 -8.94816
622 1 18.8709 15.7254 15.7252 -8.94982
623 1 20.442 17.2972 17.2971 -8.9496
624 1 22.0134 18.8696 15.7247 -8.94955
625 1 1.57179 20.4418 17.2972 -8.94917
626 1 3.14311 18.8705 15.7258 -8.94819
627 1 4.71659 20.4421 17.2975 -8.94954
628 1 6.28839 18.8711 15.7261 -8.94944
629 1 7.86185 20.4421 17.2975 -8.94948
630 1 9.43442 18.8711 15.7258 -8.94931
631 1 11.0071 20.4421 17.2975 -8.94949
632 1 12.5803 18.8713 15.7258 -8.94921
633 1 14.1523 20.4422 17.2974 -8.94953
634 1 15.7259 18.8712 15.7256 -8.94935
635 1 17.2973 20.4421 17.2972 -8.94945
636 1 18.8696 18.8697 15.7246 -8.94983
637 1 20.4415 20.4417 17.2969 -8.94958
638 1 1.57218 11.007 20.4416 -8.94958
639 1 4.71661 11.007 20.4417 -8.94965
640 1 7.8614 11.007 20.4423 -8.94871
641 1 11.0066 11.007 20.4448 -8.95221
642 1 14.1532 11.007 20.4426 -8.9499
643 1 17.2979 11.007 20.4417 -8.94944
644 1 20.4419 11.007 20.4416 -8.94954
645 1 8.12257e-05 12.5795 18.8694 -8.94957
646 1 1.5722 14.1519 20.4416 -8.94954
647 1 3.14425 12.5794 18.8696 -8.94952
648 1 4.71667 14.1518 20.4417 -8.94961
649 1 6.28888 12.5793 18.8698 -8.94965
650 1 7.86125 14.1524 20.4424 -8.95017
651 1 9.4331 12.5805 18.8723 -8.94747
652 1 11.0066 14.1527 20.4425 -8.95003
653 1 12.5811 12.581 18.8745 -8.95133
654 1 14.1531 14.1531 20.4427 -8.95053
655 1 15.7262 12.58 18.8709 -8.94936
656 1 17.2978 14.1524 20.4417 -8.94941
657 1 18.8701 12.5796 18.8696 -8.94947
658 1 20.4419 14.152 20.4415 -8.94953
659 1 22.014 15.7244 18.8693 -8.94956
660 1 1.57221 17.2968 20.4416 -8.94972
661 1 3.1443 15.7244 18.8696 -8.94978
662 1 4.71654 17.2972 20.4417 -8.94996
663 1 6.28855 15.7251 18.8708 -8.95043
664 1 7.86163 17.2975 20.4418 -8.94955
665 1 9.43393 15.7257 18.8707 -8.94953
666 1 11.0069 17.2976 20.4418 -8.94954
667 1 12.5797 15.7257 18.8709 -8.95005
668 1 14.1522 17.2977 20.4418 -8.94973
669 1 15.7262 15.7262 18.8711 -8.94902
670 1 17.2977 17.2977 20.4417 -8.94926
671 1 18.87 15.7248 18.8696 -8.94957
672 1 20.4419 17.297 20.4415 -8.94955
673 1 -3.92942e-05 18.8693 18.8693 -8.9496
674 1 1.57211 20.4417 20.4415 -8.94937
675 1 3.14413 18.8697 18.8697 -8.94938
676 1 4.71696 20.4418 20.4416 -8.94957
677 1 6.28921 18.8698 18.8698 -8.94956
678 1 7.86194 20.4418 20.4416 -8.94954
679 1 9.43437 18.8699 18.8698 -8.9495
357 1 9.43405 12.5795 22.0144 -8.94936
359 1 12.5799 12.5798 22.0133 -8.95192
363 1 18.87 12.5796 22.0135 -8.94947
365 1 9.77798e-05 15.7244 22.0137 -8.94952
369 1 6.28888 15.7248 22.0132 -8.95063
375 1 15.7257 15.7257 22.013 -8.94992
379 1 22.0139 18.8693 22.0137 -8.94958
381 1 3.14422 18.8696 22.0135 -8.94946
385 1 9.43439 18.8698 22.0135 -8.9495
353 1 3.14437 12.5794 22.0137 -8.94953
538 1 17.2972 20.4419 11.0069 -8.94952
