ITEM: TIMESTEP
19
ITEM: NUMBER OF ATOMS
688
ITEM: BOX BOUNDS pp pp pp
0.0000000000000000e+00 2.2013900999999997e+01
0.0000000000000000e+00 2.2013900999999997e+01
0.0000000000000000e+00 2.2013900999999997e+01
ITEM: ATOMS id type x y z c_pot
1 1 2.57292e-15 1.24005e-16 -1.90871e-14 -8.94963
2 1 1.57242 1.57242 1.57242 -8.94963
175 1 18.8691 9.43453 9.43453 -8.94963
4 1 4.71726 1.57242 1.57242 -8.94963
174 1 15.7242 9.43453 9.43453 -8.95006
6 1 7.86211 1.57242 1.57242 -8.94963
7 1 9.43453 8.11367e-17 1.03519e-11 -8.94963
8 1 11.007 1.57242 1.57242 -8.94963
173 1 12.5808 9.43347 9.43477 -8.95799
10 1 14.1518 1.57242 1.57242 -8.94963
11 1 15.7242 1.03289e-16 3.98483e-13 -8.94963
12 1 17.2966 1.57242 1.57242 -8.94963
13 1 18.8691 8.66863e-17 -4.8999e-14 -8.94963
14 1 20.4415 1.57242 1.57242 -8.94963
172 1 9.41685 9.39917 9.43458 -7.86721
16 1 1.57242 4.71726 1.57242 -8.94963
171 1 6.28953 9.4345 9.43452 -8.95336
18 1 4.71726 4.71726 1.57242 -8.94963
19 1 6.28969 3.14484 3.18569e-11 -8.94963
20 1 7.86211 4.71726 1.57242 -8.94963
170 1 3.14484 9.43453 9.43453 -8.94967
22 1 11.007 4.71726 1.57242 -8.94963
169 1 22.0139 9.43453 9.43453 -8.94963
24 1 14.1518 4.71726 1.57242 -8.94963
25 1 15.7242 3.14484 1.43698e-11 -8.94963
26 1 17.2966 4.71726 1.57242 -8.94963
168 1 18.8691 6.28969 9.43453 -8.94963
28 1 20.4415 4.71726 1.57242 -8.94963
167 1 15.7242 6.28969 9.43453 -8.94966
30 1 1.57242 7.86211 1.57242 -8.94963
31 1 3.14484 6.28969 2.32331e-11 -8.94963
32 1 4.71726 7.86211 1.57242 -8.94963
166 1 12.5794 6.28968 9.43453 -8.95017
34 1 7.86211 7.86211 1.57242 -8.94963
35 1 9.43453 6.28969 1.26595e-09 -8.94963
36 1 11.007 7.86211 1.57242 -8.94963
37 1 12.5794 6.28969 1.46077e-09 -8.94963
38 1 14.1518 7.86211 1.57242 -8.94963
165 1 9.43452 6.2894 9.43453 -8.95792
40 1 17.2966 7.86211 1.57242 -8.94963
41 1 18.8691 6.28969 1.28345e-11 -8.94963
42 1 20.4415 7.86211 1.57242 -8.94963
43 1 22.0139 9.43453 1.86081e-12 -8.94963
44 1 3.14484 9.43453 -1.5024e-11 -8.94963
45 1 6.28969 9.43453 1.01434e-09 -8.94963
164 1 6.2897 6.2897 9.43453 -8.9505
163 1 3.14484 6.28969 9.43453 -8.94963
48 1 15.7242 9.43453 1.26329e-09 -8.94963
162 1 8.42014e-10 6.28969 9.43453 -8.94963
50 1 22.0139 9.01361e-17 3.14484 -8.94963
51 1 1.57242 1.57242 4.71726 -8.94963
52 1 3.14484 1.21617e-16 3.14484 -8.94963
53 1 4.71726 1.57242 4.71726 -8.94963
54 1 6.28969 1.20642e-16 3.14484 -8.94963
55 1 7.86211 1.57242 4.71726 -8.94963
56 1 9.43453 1.17655e-16 3.14484 -8.94963
57 1 11.007 1.57242 4.71726 -8.94963
58 1 12.5794 1.02215e-16 3.14484 -8.94963
59 1 14.1518 1.57242 4.71726 -8.94963
60 1 15.7242 1.51498e-16 3.14484 -8.94963
61 1 17.2966 1.57242 4.71726 -8.94963
62 1 18.8691 7.13952e-17 3.14484 -8.94963
63 1 20.4415 1.57242 4.71726 -8.94963
64 1 22.0139 3.14484 3.14484 -8.94963
65 1 1.57242 4.71726 4.71726 -8.94963
66 1 3.14484 3.14484 3.14484 -8.94963
67 1 4.71726 4.71726 4.71726 -8.94963
68 1 6.28969 3.14484 3.14484 -8.94963
69 1 7.86211 4.71726 4.71726 -8.94964
70 1 9.43453 3.14484 3.14484 -8.94963
71 1 11.007 4.71726 4.71726 -8.94963
72 1 12.5794 3.14484 3.14484 -8.94963
73 1 14.1518 4.71726 4.71726 -8.94963
74 1 15.7242 3.14484 3.14484 -8.94963
75 1 17.2966 4.71726 4.71726 -8.94963
76 1 18.8691 3.14484 3.14484 -8.94963
77 1 20.4415 4.71726 4.71726 -8.94963
78 1 22.0139 6.28969 3.14484 -8.94963
79 1 1.57242 7.86211 4.71726 -8.94963
80 1 3.14484 6.28969 3.14484 -8.94963
81 1 4.71726 7.86211 4.71726 -8.94964
82 1 6.28969 6.28969 3.14484 -8.94963
83 1 7.86211 7.86211 4.71726 -8.94967
84 1 9.43453 6.28969 3.14484 -8.94963
85 1 11.007 7.86212 4.71727 -8.95017
86 1 12.5794 6.28969 3.14484 -8.94964
87 1 14.1518 7.8621 4.71726 -8.94953
88 1 15.7242 6.28969 3.14484 -8.94963
89 1 17.2966 7.86211 4.71726 -8.94963
90 1 18.8691 6.28969 3.14484 -8.94963
91 1 20.4415 7.86211 4.71726 -8.94963
92 1 7.42196e-11 9.43453 3.14484 -8.94963
93 1 3.14484 9.43453 3.14484 -8.94963
94 1 6.28969 9.43453 3.14484 -8.94964
95 1 9.43453 9.43453 3.14484 -8.9496
96 1 12.5794 9.43453 3.14484 -8.94964
97 1 15.7242 9.43453 3.14484 -8.94964
98 1 18.8691 9.43453 3.14484 -8.94963
99 1 22.0139 1.13309e-16 6.28969 -8.94963
100 1 1.57242 1.57242 7.86211 -8.94963
101 1 3.14484 1.43852e-16 6.28969 -8.94963
102 1 4.71726 1.57242 7.86211 -8.94963
103 1 6.28969 1.00027e-16 6.28969 -8.94963
104 1 7.86211 1.57242 7.86211 -8.94963
105 1 9.43453 1.04883e-16 6.28969 -8.94963
106 1 11.007 1.57242 7.86211 -8.94963
107 1 12.5794 1.48854e-16 6.28969 -8.94963
108 1 14.1518 1.57242 7.86211 -8.94963
109 1 15.7242 1.07106e-16 6.28969 -8.94963
110 1 17.2966 1.57242 7.86211 -8.94963
111 1 18.8691 1.03702e-16 6.28969 -8.94963
112 1 20.4415 1.57242 7.86211 -8.94963
113 1 1.32272e-11 3.14484 6.28969 -8.94963
114 1 1.57242 4.71726 7.86211 -8.94963
115 1 3.14484 3.14484 6.28969 -8.94963
116 1 4.71726 4.71726 7.86211 -8.94964
117 1 6.28969 3.14484 6.28969 -8.94963
118 1 7.86211 4.71726 7.86211 -8.94964
119 1 9.43453 3.14484 6.28969 -8.94963
120 1 11.007 4.71726 7.86211 -8.9496
121 1 12.5794 3.14484 6.28969 -8.94963
122 1 14.1518 4.71726 7.86211 -8.94964
123 1 15.7242 3.14484 6.28969 -8.94963
124 1 17.2966 4.71726 7.86211 -8.94963
125 1 18.8691 3.14484 6.28969 -8.94963
126 1 20.4415 4.71726 7.86211 -8.94963
127 1 22.0139 6.28969 6.28969 -8.94963
128 1 1.57242 7.86211 7.86211 -8.94963
129 1 3.14484 6.28969 6.28969 -8.94963
130 1 4.71726 7.86211 7.86211 -8.94968
131 1 6.28968 6.28968 6.28968 -8.94953
132 1 7.86188 7.86189 7.86188 -8.93961
133 1 9.43453 6.2897 6.2897 -8.95016
134 1 11.007 7.86204 7.86201 -8.9464
135 1 12.5794 6.28968 6.28969 -8.94966
136 1 14.1518 7.8621 7.8621 -8.94952
137 1 15.7242 6.28969 6.28969 -8.94964
138 1 17.2966 7.86211 7.86211 -8.94963
139 1 18.8691 6.28969 6.28969 -8.94963
140 1 20.4415 7.86211 7.86211 -8.94963
141 1 22.0139 9.43453 6.28969 -8.94963
142 1 3.14484 9.43453 6.28969 -8.94963
143 1 6.28968 9.43452 6.28968 -8.94945
144 1 9.43444 9.43443 6.28962 -8.94625
145 1 12.5796 9.4343 6.28947 -8.93952
146 1 15.7242 9.43453 6.28969 -8.94968
147 1 18.8691 9.43453 6.28969 -8.94963
148 1 1.15716e-11 1.37284e-16 9.43453 -8.94963
149 1 3.14484 1.37881e-16 9.43453 -8.94963
150 1 6.28969 1.40937e-16 9.43453 -8.94963
151 1 9.43453 1.01433e-16 9.43453 -8.94963
152 1 12.5794 1.40195e-16 9.43453 -8.94963
153 1 15.7242 1.42513e-16 9.43453 -8.94963
154 1 18.8691 1.38265e-16 9.43453 -8.94963
155 1 22.0139 3.14484 9.43453 -8.94963
156 1 3.14484 3.14484 9.43453 -8.94963
157 1 6.28969 3.14484 9.43453 -8.94963
158 1 9.43453 3.14484 9.43453 -8.94971
159 1 12.5794 3.14484 9.43453 -8.94964
160 1 15.7242 3.14484 9.43453 -8.94963
161 1 18.8691 3.14484 9.43453 -8.94963
177 1 4.71726 1.57242 11.007 -8.94963
180 1 14.1518 1.57242 11.007 -8.94963
181 1 17.2966 1.57242 11.007 -8.94963
183 1 1.57242 4.71726 11.007 -8.94963
184 1 4.71726 4.71726 11.007 -8.94964
187 1 14.1518 4.71726 11.007 -8.94964
188 1 17.2966 4.71726 11.007 -8.94963
189 1 20.4415 4.71726 11.007 -8.94963
176 1 1.57242 1.57242 11.007 -8.94963
343 1 18.8691 9.43453 18.8691 -8.94963
178 1 7.86211 1.57242 11.007 -8.94963
179 1 11.007 1.57242 11.007 -8.94963
342 1 15.7242 9.43453 18.8691 -8.94963
341 1 12.5794 9.43453 18.8691 -8.94955
182 1 20.4415 1.57242 11.007 -8.94963
340 1 9.43453 9.43453 18.8691 -8.9496
339 1 6.28969 9.43453 18.8691 -8.94963
185 1 7.86211 4.71726 11.007 -8.94956
186 1 11.007 4.71726 11.007 -8.94957
338 1 3.14484 9.43453 18.8691 -8.94963
337 1 1.3876e-10 9.43453 18.8691 -8.94963
336 1 20.4415 7.86211 20.4415 -8.94963
190 1 1.57242 7.86211 11.007 -8.94963
191 1 4.71727 7.86211 11.007 -8.94974
192 1 7.86202 7.86213 11.0072 -8.98375
193 1 11.0071 7.8621 11.0071 -9.00281
194 1 14.1518 7.86209 11.007 -8.94923
195 1 17.2966 7.86211 11.007 -8.94963
196 1 20.4415 7.86211 11.007 -8.94963
197 1 22.0139 5.87815e-17 12.5794 -8.94963
198 1 1.57242 1.57242 14.1518 -8.94963
199 1 3.14484 6.17724e-17 12.5794 -8.94963
200 1 4.71726 1.57242 14.1518 -8.94963
201 1 6.28969 1.5395e-16 12.5794 -8.94963
202 1 7.86211 1.57242 14.1518 -8.94963
203 1 9.43453 7.81624e-17 12.5794 -8.94963
204 1 11.007 1.57242 14.1518 -8.94963
205 1 12.5794 4.79074e-17 12.5794 -8.94963
206 1 14.1518 1.57242 14.1518 -8.94963
207 1 15.7242 6.66121e-17 12.5794 -8.94963
208 1 17.2966 1.57242 14.1518 -8.94963
209 1 18.8691 4.41102e-17 12.5794 -8.94963
210 1 20.4415 1.57242 14.1518 -8.94963
211 1 1.28902e-10 3.14484 12.5794 -8.94963
212 1 1.57242 4.71726 14.1518 -8.94963
213 1 3.14484 3.14484 12.5794 -8.94963
214 1 4.71726 4.71726 14.1518 -8.94963
215 1 6.28969 3.14484 12.5794 -8.94963
216 1 7.86211 4.71727 14.1518 -8.94956
217 1 9.43453 3.14484 12.5794 -8.94966
218 1 11.007 4.71726 14.1518 -8.9496
219 1 12.5794 3.14484 12.5794 -8.94964
220 1 14.1518 4.71726 14.1518 -8.94963
221 1 15.7242 3.14484 12.5794 -8.94963
222 1 17.2966 4.71726 14.1518 -8.94963
223 1 18.8691 3.14484 12.5794 -8.94963
224 1 20.4415 4.71726 14.1518 -8.94963
225 1 -5.53157e-10 6.28969 12.5794 -8.94963
226 1 1.57242 7.86211 14.1518 -8.94963
227 1 3.14484 6.28969 12.5794 -8.94963
228 1 4.71727 7.86211 14.1518 -8.94968
229 1 6.28968 6.28969 12.5794 -8.94973
230 1 7.86225 7.86235 14.1517 -8.99385
231 1 9.43454 6.28959 12.5794 -8.95217
232 1 11.007 7.86218 14.1517 -9.00665
233 1 12.5794 6.28967 12.5794 -8.9499
234 1 14.1518 7.86209 14.1518 -8.9493
235 1 15.7242 6.28969 12.5794 -8.94966
236 1 17.2966 7.86211 14.1518 -8.94963
237 1 18.8691 6.28969 12.5794 -8.94963
238 1 20.4415 7.86211 14.1518 -8.94963
239 1 1.73535e-08 9.43453 12.5794 -8.94963
240 1 3.14484 9.43453 12.5794 -8.94955
241 1 6.28997 9.4347 12.5794 -8.99604
242 1 9.43105 9.42769 12.5794 -9.2445
243 1 12.5807 9.4336 12.5796 -8.97592
244 1 15.7242 9.43453 12.5794 -8.95001
245 1 18.8691 9.43453 12.5794 -8.94964
246 1 1.19329e-12 6.63195e-17 15.7242 -8.94963
247 1 1.57242 1.57242 17.2966 -8.94963
248 1 3.14484 1.52271e-16 15.7242 -8.94963
249 1 4.71726 1.57242 17.2966 -8.94963
250 1 6.28969 1.15266e-16 15.7242 -8.94963
251 1 7.86211 1.57242 17.2966 -8.94963
252 1 9.43453 1.32664e-16 15.7242 -8.94963
253 1 11.007 1.57242 17.2966 -8.94963
254 1 12.5794 1.01246e-16 15.7242 -8.94963
255 1 14.1518 1.57242 17.2966 -8.94963
256 1 15.7242 1.6096e-16 15.7242 -8.94963
257 1 17.2966 1.57242 17.2966 -8.94963
258 1 18.8691 1.45048e-16 15.7242 -8.94963
259 1 20.4415 1.57242 17.2966 -8.94963
260 1 22.0139 3.14484 15.7242 -8.94963
261 1 1.57242 4.71726 17.2966 -8.94963
262 1 3.14484 3.14484 15.7242 -8.94963
263 1 4.71726 4.71726 17.2966 -8.94963
264 1 6.28969 3.14484 15.7242 -8.94963
265 1 7.86211 4.71726 17.2966 -8.94963
266 1 9.43453 3.14484 15.7242 -8.94963
267 1 11.007 4.71726 17.2966 -8.94963
268 1 12.5794 3.14484 15.7242 -8.94963
269 1 14.1518 4.71726 17.2966 -8.94963
270 1 15.7242 3.14484 15.7242 -8.94963
271 1 17.2966 4.71726 17.2966 -8.94963
272 1 18.8691 3.14484 15.7242 -8.94963
273 1 20.4415 4.71726 17.2966 -8.94963
274 1 6.75475e-10 6.28969 15.7242 -8.94963
275 1 1.57242 7.86211 17.2966 -8.94963
276 1 3.14484 6.28969 15.7242 -8.94963
277 1 4.71726 7.86211 17.2966 -8.94962
278 1 6.28969 6.28969 15.7242 -8.9497
279 1 7.86211 7.86211 17.2966 -8.94964
280 1 9.43453 6.28968 15.7242 -8.94977
281 1 11.007 7.86211 17.2966 -8.94977
282 1 12.5794 6.28969 15.7242 -8.94965
283 1 14.1518 7.86211 17.2966 -8.9497
284 1 15.7242 6.28969 15.7242 -8.94962
285 1 17.2966 7.86211 17.2966 -8.94963
286 1 18.8691 6.28969 15.7242 -8.94963
287 1 20.4415 7.86211 17.2966 -8.94963
288 1 22.0139 9.43453 15.7242 -8.94963
289 1 3.14484 9.43453 15.7242 -8.94963
290 1 6.28967 9.43452 15.7242 -8.94941
291 1 9.4345 9.43457 15.7242 -9.00612
292 1 12.5792 9.43458 15.724 -8.99381
293 1 15.7242 9.43453 15.7242 -8.94969
294 1 18.8691 9.43453 15.7242 -8.94963
295 1 -9.95721e-14 1.59528e-16 18.8691 -8.94963
296 1 1.57242 1.57242 20.4415 -8.94963
297 1 3.14484 2.56029e-17 18.8691 -8.94963
298 1 4.71726 1.57242 20.4415 -8.94963
299 1 6.28969 2.94318e-17 18.8691 -8.94963
300 1 7.86211 1.57242 20.4415 -8.94963
301 1 9.43453 1.62767e-16 18.8691 -8.94963
302 1 11.007 1.57242 20.4415 -8.94963
303 1 12.5794 1.0884e-16 18.8691 -8.94963
304 1 14.1518 1.57242 20.4415 -8.94963
305 1 15.7242 2.87773e-17 18.8691 -8.94963
306 1 17.2966 1.57242 20.4415 -8.94963
307 1 18.8691 8.10318e-17 18.8691 -8.94963
308 1 20.4415 1.57242 20.4415 -8.94963
309 1 4.8975e-12 3.14484 18.8691 -8.94963
310 1 1.57242 4.71726 20.4415 -8.94963
311 1 3.14484 3.14484 18.8691 -8.94963
312 1 4.71726 4.71726 20.4415 -8.94963
313 1 6.28969 3.14484 18.8691 -8.94963
314 1 7.86211 4.71726 20.4415 -8.94963
315 1 9.43453 3.14484 18.8691 -8.94963
316 1 11.007 4.71726 20.4415 -8.94963
317 1 12.5794 3.14484 18.8691 -8.94963
318 1 14.1518 4.71726 20.4415 -8.94963
319 1 15.7242 3.14484 18.8691 -8.94963
320 1 17.2966 4.71726 20.4415 -8.94963
321 1 18.8691 3.14484 18.8691 -8.94963
322 1 20.4415 4.71726 20.4415 -8.94963
323 1 22.0139 6.28969 18.8691 -8.94963
324 1 1.57242 7.86211 20.4415 -8.94963
325 1 3.14484 6.28969 18.8691 -8.94963
326 1 4.71726 7.86211 20.4415 -8.94963
327 1 6.28969 6.28969 18.8691 -8.94963
328 1 7.86211 7.86211 20.4415 -8.94963
329 1 9.43453 6.28969 18.8691 -8.94963
330 1 11.007 7.86211 20.4415 -8.94963
331 1 12.5794 6.28969 18.8691 -8.94963
332 1 14.1518 7.86211 20.4415 -8.94963
333 1 15.7242 6.28969 18.8691 -8.94963
334 1 17.2966 7.86211 20.4415 -8.94963
335 1 18.8691 6.28969 18.8691 -8.94963
3 1 3.14484 1.46145e-16 22.0139 -8.94963
5 1 6.28969 1.47736e-16 22.0139 -8.94963
9 1 12.5794 1.16796e-16 22.0139 -8.94963
15 1 22.0139 3.14484 22.0139 -8.94963
17 1 3.14484 3.14484 22.0139 -8.94963
21 1 9.43453 3.14484 22.0139 -8.94963
23 1 12.5794 3.14484 22.0139 -8.94963
27 1 18.8691 3.14484 22.0139 -8.94963
29 1 22.0139 6.28969 22.0139 -8.94963
33 1 6.28969 6.28969 22.0139 -8.94963
39 1 15.7242 6.28969 22.0139 -8.94963
46 1 9.43453 9.43453 22.0139 -8.94963
47 1 12.5794 9.43453 22.0139 -8.94963
49 1 18.8691 9.43453 22.0139 -8.94963
344 1 1.57242 11.007 1.57242 -8.94963
345 1 4.71726 11.007 1.57242 -8.94963
346 1 7.86211 11.007 1.57242 -8.94964
347 1 11.007 11.007 1.57242 -8.94971
348 1 14.1518 11.007 1.57242 -8.94963
349 1 17.2966 11.007 1.57242 -8.94963
350 1 20.4415 11.007 1.57242 -8.94963
351 1 22.0139 12.5794 1.86078e-12 -8.94963
352 1 1.57242 14.1518 1.57242 -8.94963
353 1 3.14484 12.5794 -1.5024e-11 -8.94963
354 1 4.71726 14.1518 1.57242 -8.94963
355 1 6.28969 12.5794 1.01434e-09 -8.94963
356 1 7.86211 14.1518 1.57242 -8.94963
688 3 10.2206 11.007 9.43436 4.67057
358 1 11.007 14.1518 1.57242 -8.94963
511 1 18.8691 18.8691 9.43453 -8.94963
360 1 14.1518 14.1518 1.57242 -8.94963
361 1 15.7242 12.5794 1.26329e-09 -8.94963
362 1 17.2966 14.1518 1.57242 -8.94963
510 1 15.7242 18.8691 9.43453 -8.94963
364 1 20.4415 14.1518 1.57242 -8.94963
509 1 12.5794 18.8691 9.43453 -8.94964
366 1 1.57242 17.2966 1.57242 -8.94963
367 1 3.14484 15.7242 2.32331e-11 -8.94963
368 1 4.71726 17.2966 1.57242 -8.94963
508 1 9.43453 18.8691 9.43453 -8.94971
370 1 7.86211 17.2966 1.57242 -8.94963
371 1 9.43453 15.7242 1.26595e-09 -8.94963
372 1 11.007 17.2966 1.57242 -8.94963
373 1 12.5794 15.7242 1.46077e-09 -8.94963
374 1 14.1518 17.2966 1.57242 -8.94963
507 1 6.28969 18.8691 9.43453 -8.94963
376 1 17.2966 17.2966 1.57242 -8.94963
377 1 18.8691 15.7242 1.28346e-11 -8.94963
378 1 20.4415 17.2966 1.57242 -8.94963
506 1 3.14484 18.8691 9.43453 -8.94963
380 1 1.57242 20.4415 1.57242 -8.94963
505 1 22.0139 18.8691 9.43453 -8.94963
382 1 4.71726 20.4415 1.57242 -8.94963
383 1 6.28969 18.8691 3.18569e-11 -8.94963
384 1 7.86211 20.4415 1.57242 -8.94963
504 1 18.8691 15.7242 9.43453 -8.94963
386 1 11.007 20.4415 1.57242 -8.94963
503 1 15.7242 15.7242 9.43453 -8.94966
388 1 14.1518 20.4415 1.57242 -8.94963
389 1 15.7242 18.8691 1.43698e-11 -8.94963
390 1 17.2966 20.4415 1.57242 -8.94963
502 1 12.5794 15.7242 9.43453 -8.95017
392 1 20.4415 20.4415 1.57242 -8.94963
393 1 1.57242 11.007 4.71726 -8.94963
394 1 4.71727 11.007 4.71727 -8.94967
395 1 7.86211 11.007 4.71726 -8.95017
396 1 11.007 11.007 4.71698 -8.95781
397 1 14.1518 11.007 4.71728 -8.95043
398 1 17.2966 11.007 4.71726 -8.94963
399 1 20.4415 11.007 4.71726 -8.94963
400 1 7.42196e-11 12.5794 3.14484 -8.94963
401 1 1.57242 14.1518 4.71726 -8.94963
402 1 3.14484 12.5794 3.14484 -8.94963
403 1 4.71726 14.1518 4.71726 -8.94964
404 1 6.28969 12.5794 3.14484 -8.94964
405 1 7.86211 14.1518 4.71726 -8.94967
406 1 9.43453 12.5794 3.14484 -8.9496
407 1 11.007 14.1518 4.71727 -8.95017
408 1 12.5794 12.5794 3.14484 -8.94964
409 1 14.1518 14.1518 4.71726 -8.94953
410 1 15.7242 12.5794 3.14484 -8.94964
411 1 17.2966 14.1518 4.71726 -8.94963
412 1 18.8691 12.5794 3.14484 -8.94963
413 1 20.4415 14.1518 4.71726 -8.94963
414 1 22.0139 15.7242 3.14484 -8.94963
415 1 1.57242 17.2966 4.71726 -8.94963
416 1 3.14484 15.7242 3.14484 -8.94963
417 1 4.71726 17.2966 4.71726 -8.94963
418 1 6.28969 15.7242 3.14484 -8.94963
419 1 7.86211 17.2966 4.71726 -8.94964
420 1 9.43453 15.7242 3.14484 -8.94963
421 1 11.007 17.2966 4.71726 -8.94963
422 1 12.5794 15.7242 3.14484 -8.94964
423 1 14.1518 17.2966 4.71726 -8.94963
424 1 15.7242 15.7242 3.14484 -8.94963
425 1 17.2966 17.2966 4.71726 -8.94963
426 1 18.8691 15.7242 3.14484 -8.94963
427 1 20.4415 17.2966 4.71726 -8.94963
428 1 22.0139 18.8691 3.14484 -8.94963
429 1 1.57242 20.4415 4.71726 -8.94963
430 1 3.14484 18.8691 3.14484 -8.94963
431 1 4.71726 20.4415 4.71726 -8.94963
432 1 6.28969 18.8691 3.14484 -8.94963
433 1 7.86211 20.4415 4.71726 -8.94963
434 1 9.43453 18.8691 3.14484 -8.94963
435 1 11.007 20.4415 4.71726 -8.94963
436 1 12.5794 18.8691 3.14484 -8.94963
437 1 14.1518 20.4415 4.71726 -8.94963
438 1 15.7242 18.8691 3.14484 -8.94963
439 1 17.2966 20.4415 4.71726 -8.94963
440 1 18.8691 18.8691 3.14484 -8.94963
441 1 20.4415 20.4415 4.71726 -8.94963
442 1 1.57242 11.007 7.86211 -8.94963
443 1 4.71725 11.007 7.86211 -8.95004
444 1 7.86052 11.007 7.86099 -8.91392
445 1 11.0246 11.007 7.82658 -7.81413
446 1 14.1519 11.007 7.86209 -8.95378
447 1 17.2966 11.007 7.86211 -8.94966
448 1 20.4415 11.007 7.86211 -8.94963
449 1 22.0139 12.5794 6.28969 -8.94963
450 1 1.57242 14.1518 7.86211 -8.94963
451 1 3.14484 12.5794 6.28969 -8.94963
452 1 4.71726 14.1518 7.86211 -8.94968
453 1 6.28968 12.5794 6.28968 -8.94945
454 1 7.86188 14.152 7.86188 -8.93961
455 1 9.43444 12.5795 6.28962 -8.94625
456 1 11.007 14.1519 7.86201 -8.9464
457 1 12.5796 12.5796 6.28947 -8.93952
458 1 14.1518 14.1518 7.8621 -8.94952
459 1 15.7242 12.5794 6.28969 -8.94968
460 1 17.2966 14.1518 7.86211 -8.94963
461 1 18.8691 12.5794 6.28969 -8.94963
462 1 20.4415 14.1518 7.86211 -8.94963
463 1 22.0139 15.7242 6.28969 -8.94963
464 1 1.57242 17.2966 7.86211 -8.94963
465 1 3.14484 15.7242 6.28969 -8.94963
466 1 4.71726 17.2966 7.86211 -8.94964
467 1 6.28968 15.7242 6.28968 -8.94953
468 1 7.86211 17.2966 7.86211 -8.94964
469 1 9.43453 15.7242 6.2897 -8.95016
470 1 11.007 17.2966 7.86211 -8.9496
471 1 12.5794 15.7242 6.28969 -8.94966
472 1 14.1518 17.2966 7.86211 -8.94964
473 1 15.7242 15.7242 6.28969 -8.94964
474 1 17.2966 17.2966 7.86211 -8.94963
475 1 18.8691 15.7242 6.28969 -8.94963
476 1 20.4415 17.2966 7.86211 -8.94963
477 1 1.32272e-11 18.8691 6.28969 -8.94963
478 1 1.57242 20.4415 7.86211 -8.94963
479 1 3.14484 18.8691 6.28969 -8.94963
480 1 4.71726 20.4415 7.86211 -8.94963
481 1 6.28969 18.8691 6.28969 -8.94963
482 1 7.86211 20.4415 7.86211 -8.94963
483 1 9.43453 18.8691 6.28969 -8.94963
484 1 11.007 20.4415 7.86211 -8.94963
485 1 12.5794 18.8691 6.28969 -8.94963
486 1 14.1518 20.4415 7.86211 -8.94963
487 1 15.7242 18.8691 6.28969 -8.94963
488 1 17.2966 20.4415 7.86211 -8.94963
489 1 18.8691 18.8691 6.28969 -8.94963
490 1 20.4415 20.4415 7.86211 -8.94963
491 1 22.0139 12.5794 9.43453 -8.94963
492 1 3.14484 12.5794 9.43453 -8.94967
493 1 6.28953 12.5794 9.43452 -8.95336
494 1 9.41685 12.6147 9.43458 -7.86721
495 1 12.5808 12.5804 9.43477 -8.95799
496 1 15.7242 12.5794 9.43453 -8.95006
497 1 18.8691 12.5794 9.43453 -8.94963
498 1 8.42014e-10 15.7242 9.43453 -8.94963
499 1 3.14484 15.7242 9.43453 -8.94963
500 1 6.2897 15.7242 9.43453 -8.9505
501 1 9.43452 15.7245 9.43453 -8.95792
526 1 1.57242 17.2966 11.007 -8.94963
527 1 4.71726 17.2966 11.007 -8.94964
530 1 14.1518 17.2966 11.007 -8.94964
531 1 17.2966 17.2966 11.007 -8.94963
532 1 20.4415 17.2966 11.007 -8.94963
534 1 4.71726 20.4415 11.007 -8.94963
537 1 14.1518 20.4415 11.007 -8.94963
538 1 17.2966 20.4415 11.007 -8.94963
512 1 1.57242 11.007 11.007 -8.94964
513 1 4.71724 11.007 11.007 -8.95034
514 1 7.85945 11.007 11.0074 -8.94979
515 1 11.0283 11.007 11.0356 -8.10834
516 1 14.1517 11.007 11.0071 -9.00012
517 1 17.2966 11.007 11.007 -8.94959
518 1 20.4415 11.007 11.007 -8.94963
519 1 1.57242 14.1518 11.007 -8.94963
520 1 4.71727 14.1518 11.007 -8.94974
521 1 7.86202 14.1518 11.0072 -8.98375
522 1 11.0071 14.1518 11.0071 -9.00281
523 1 14.1518 14.1518 11.007 -8.94923
524 1 17.2966 14.1518 11.007 -8.94963
525 1 20.4415 14.1518 11.007 -8.94963
687 2 10.2206 11.007 12.5796 1.21454
686 1 20.4415 20.4415 20.4415 -8.94963
528 1 7.86211 17.2966 11.007 -8.94956
529 1 11.007 17.2966 11.007 -8.94957
685 1 18.8691 18.8691 18.8691 -8.94963
684 1 17.2966 20.4415 20.4415 -8.94963
683 1 15.7242 18.8691 18.8691 -8.94963
533 1 1.57242 20.4415 11.007 -8.94963
682 1 14.1518 20.4415 20.4415 -8.94963
535 1 7.86211 20.4415 11.007 -8.94963
536 1 11.007 20.4415 11.007 -8.94963
681 1 12.5794 18.8691 18.8691 -8.94963
680 1 11.007 20.4415 20.4415 -8.94963
539 1 20.4415 20.4415 11.007 -8.94963
540 1 1.57242 11.007 14.1518 -8.94963
541 1 4.71726 11.007 14.1518 -8.95
542 1 7.86104 11.007 14.1525 -8.98622
543 1 11.0103 11.007 14.1588 -9.25557
544 1 14.1515 11.007 14.1516 -8.99701
545 1 17.2966 11.007 14.1518 -8.94955
546 1 20.4415 11.007 14.1518 -8.94963
547 1 1.73535e-08 12.5794 12.5794 -8.94963
548 1 1.57242 14.1518 14.1518 -8.94963
549 1 3.14484 12.5794 12.5794 -8.94955
550 1 4.71727 14.1518 14.1518 -8.94968
551 1 6.28997 12.5792 12.5794 -8.99604
552 1 7.86225 14.1516 14.1517 -8.99385
553 1 9.43105 12.5862 12.5794 -9.2445
554 1 11.007 14.1517 14.1517 -9.00665
555 1 12.5807 12.5803 12.5796 -8.97592
556 1 14.1518 14.1518 14.1518 -8.9493
557 1 15.7242 12.5794 12.5794 -8.95001
558 1 17.2966 14.1518 14.1518 -8.94963
559 1 18.8691 12.5794 12.5794 -8.94964
560 1 20.4415 14.1518 14.1518 -8.94963
561 1 -5.53157e-10 15.7242 12.5794 -8.94963
562 1 1.57242 17.2966 14.1518 -8.94963
563 1 3.14484 15.7242 12.5794 -8.94963
564 1 4.71726 17.2966 14.1518 -8.94963
565 1 6.28968 15.7242 12.5794 -8.94973
566 1 7.86211 17.2966 14.1518 -8.94956
567 1 9.43454 15.7243 12.5794 -8.95217
568 1 11.007 17.2966 14.1518 -8.9496
569 1 12.5794 15.7242 12.5794 -8.9499
570 1 14.1518 17.2966 14.1518 -8.94963
571 1 15.7242 15.7242 12.5794 -8.94966
572 1 17.2966 17.2966 14.1518 -8.94963
573 1 18.8691 15.7242 12.5794 -8.94963
574 1 20.4415 17.2966 14.1518 -8.94963
575 1 1.28901e-10 18.8691 12.5794 -8.94963
576 1 1.57242 20.4415 14.1518 -8.94963
577 1 3.14484 18.8691 12.5794 -8.94963
578 1 4.71726 20.4415 14.1518 -8.94963
579 1 6.28969 18.8691 12.5794 -8.94963
580 1 7.86211 20.4415 14.1518 -8.94963
581 1 9.43453 18.8691 12.5794 -8.94966
582 1 11.007 20.4415 14.1518 -8.94963
583 1 12.5794 18.8691 12.5794 -8.94964
584 1 14.1518 20.4415 14.1518 -8.94963
585 1 15.7242 18.8691 12.5794 -8.94963
586 1 17.2966 20.4415 14.1518 -8.94963
587 1 18.8691 18.8691 12.5794 -8.94963
588 1 20.4415 20.4415 14.1518 -8.94963
589 1 1.57242 11.007 17.2966 -8.94963
590 1 4.71727 11.007 17.2966 -8.94965
591 1 7.8621 11.007 17.2966 -8.94987
592 1 11.0069 11.007 17.2967 -8.95172
593 1 14.1518 11.007 17.2966 -8.94983
594 1 17.2966 11.007 17.2966 -8.94963
595 1 20.4415 11.007 17.2966 -8.94963
596 1 22.0139 12.5794 15.7242 -8.94963
597 1 1.57242 14.1518 17.2966 -8.94963
598 1 3.14484 12.5794 15.7242 -8.94963
599 1 4.71726 14.1518 17.2966 -8.94962
600 1 6.28967 12.5794 15.7242 -8.94941
601 1 7.86211 14.1518 17.2966 -8.94964
602 1 9.4345 12.5793 15.7242 -9.00612
603 1 11.007 14.1518 17.2966 -8.94977
604 1 12.5792 12.5793 15.724 -8.99381
605 1 14.1518 14.1518 17.2966 -8.9497
606 1 15.7242 12.5794 15.7242 -8.94969
607 1 17.2966 14.1518 17.2966 -8.94963
608 1 18.8691 12.5794 15.7242 -8.94963
609 1 20.4415 14.1518 17.2966 -8.94963
610 1 6.75475e-10 15.7242 15.7242 -8.94963
611 1 1.57242 17.2966 17.2966 -8.94963
612 1 3.14484 15.7242 15.7242 -8.94963
613 1 4.71726 17.2966 17.2966 -8.94963
614 1 6.28969 15.7242 15.7242 -8.9497
615 1 7.86211 17.2966 17.2966 -8.94963
616 1 9.43453 15.7242 15.7242 -8.94977
617 1 11.007 17.2966 17.2966 -8.94963
618 1 12.5794 15.7242 15.7242 -8.94965
619 1 14.1518 17.2966 17.2966 -8.94963
620 1 15.7242 15.7242 15.7242 -8.94962
621 1 17.2966 17.2966 17.2966 -8.94963
622 1 18.8691 15.7242 15.7242 -8.94963
623 1 20.4415 17.2966 17.2966 -8.94963
624 1 22.0139 18.8691 15.7242 -8.94963
625 1 1.57242 20.4415 17.2966 -8.94963
626 1 3.14484 18.8691 15.7242 -8.94963
627 1 4.71726 20.4415 17.2966 -8.94963
628 1 6.28969 18.8691 15.7242 -8.94963
629 1 7.86211 20.4415 17.2966 -8.94963
630 1 9.43453 18.8691 15.7242 -8.94963
631 1 11.007 20.4415 17.2966 -8.94963
632 1 12.5794 18.8691 15.7242 -8.94963
633 1 14.1518 20.4415 17.2966 -8.94963
634 1 15.7242 18.8691 15.7242 -8.94963
635 1 17.2966 20.4415 17.2966 -8.94963
636 1 18.8691 18.8691 15.7242 -8.94963
637 1 20.4415 20.4415 17.2966 -8.94963
638 1 1.57242 11.007 20.4415 -8.94963
639 1 4.71726 11.007 20.4415 -8.94963
640 1 7.86211 11.007 20.4415 -8.94964
641 1 11.007 11.007 20.4415 -8.94966
642 1 14.1518 11.007 20.4415 -8.94963
643 1 17.2966 11.007 20.4415 -8.94963
644 1 20.4415 11.007 20.4415 -8.94963
645 1 1.3876e-10 12.5794 18.8691 -8.94963
646 1 1.57242 14.1518 20.4415 -8.94963
647 1 3.14484 12.5794 18.8691 -8.94963
648 1 4.71726 14.1518 20.4415 -8.94963
649 1 6.28969 12.5794 18.8691 -8.94963
650 1 7.86211 14.1518 20.4415 -8.94963
651 1 9.43453 12.5794 18.8691 -8.9496
652 1 11.007 14.1518 20.4415 -8.94963
653 1 12.5794 12.5794 18.8691 -8.94955
654 1 14.1518 14.1518 20.4415 -8.94963
655 1 15.7242 12.5794 18.8691 -8.94963
656 1 17.2966 14.1518 20.4415 -8.94963
657 1 18.8691 12.5794 18.8691 -8.94963
658 1 20.4415 14.1518 20.4415 -8.94963
659 1 22.0139 15.7242 18.8691 -8.94963
660 1 1.57242 17.2966 20.4415 -8.94963
661 1 3.14484 15.7242 18.8691 -8.94963
662 1 4.71726 17.2966 20.4415 -8.94963
663 1 6.28969 15.7242 18.8691 -8.94963
664 1 7.86211 17.2966 20.4415 -8.94963
665 1 9.43453 15.7242 18.8691 -8.94963
666 1 11.007 17.2966 20.4415 -8.94963
667 1 12.5794 15.7242 18.8691 -8.94963
668 1 14.1518 17.2966 20.4415 -8.94963
669 1 15.7242 15.7242 18.8691 -8.94963
670 1 17.2966 17.2966 20.4415 -8.94963
671 1 18.8691 15.7242 18.8691 -8.94963
672 1 20.4415 17.2966 20.4415 -8.94963
673 1 4.89752e-12 18.8691 18.8691 -8.94963
674 1 1.57242 20.4415 20.4415 -8.94963
675 1 3.14484 18.8691 18.8691 -8.94963
676 1 4.71726 20.4415 20.4415 -8.94963
677 1 6.28969 18.8691 18.8691 -8.94963
678 1 7.86211 20.4415 20.4415 -8.94963
679 1 9.43453 18.8691 18.8691 -8.94963
357 1 9.43453 12.5794 22.0139 -8.94963
359 1 12.5794 12.5794 22.0139 -8.94963
363 1 18.8691 12.5794 22.0139 -8.94963
365 1 22.0139 15.7242 22.0139 -8.94963
369 1 6.28969 15.7242 22.0139 -8.94963
375 1 15.7242 15.7242 22.0139 -8.94963
379 1 22.0139 18.8691 22.0139 -8.94963
381 1 3.14484 18.8691 22.0139 -8.94963
385 1 9.43453 18.8691 22.0139 -8.94963
387 1 12.5794 18.8691 22.0139 -8.94963
391 1 18.8691 18.8691 22.0139 -8.94963
