ITEM: TIMESTEP
38
ITEM: NUMBER OF ATOMS
688
ITEM: BOX BOUNDS pp pp pp
0.0000000000000000e+00 2.2013900999999997e+01
0.0000000000000000e+00 2.2013900999999997e+01
0.0000000000000000e+00 2.2013900999999997e+01
ITEM: ATOMS id type x y z c_pot
189 1 20.4415 4.71726 11.007 -8.94963
2 1 1.57242 1.57242 1.57242 -8.94963
175 1 18.8691 9.43453 9.43453 -8.94965
4 1 4.71726 1.57242 1.57242 -8.94963
174 1 15.7243 9.43452 9.43455 -8.95028
6 1 7.86211 1.57242 1.57242 -8.94963
7 1 9.43453 1.05232e-16 1.93037e-10 -8.94963
8 1 11.007 1.57242 1.57242 -8.94963
173 1 12.5824 9.43181 9.43497 -8.95334
10 1 14.1518 1.57242 1.57242 -8.94963
11 1 15.7242 5.10273e-16 1.77401e-10 -8.94963
12 1 17.2966 1.57242 1.57242 -8.94963
188 1 17.2966 4.71726 11.007 -8.94964
14 1 20.4415 1.57242 1.57242 -8.94963
172 1 9.39028 9.3437 9.43459 -8.02388
16 1 1.57242 4.71726 1.57242 -8.94963
171 1 6.2883 9.43429 9.43445 -8.95827
18 1 4.71726 4.71726 1.57242 -8.94963
19 1 6.28969 3.14484 4.64919e-09 -8.94963
20 1 7.86211 4.71726 1.57242 -8.94963
170 1 3.14481 9.43453 9.43453 -8.94996
22 1 11.007 4.71726 1.57242 -8.94963
169 1 22.0139 9.43453 9.43453 -8.94964
24 1 14.1518 4.71726 1.57242 -8.94964
25 1 15.7242 3.14484 3.03341e-09 -8.94963
26 1 17.2966 4.71726 1.57242 -8.94963
168 1 18.8691 6.28969 9.43453 -8.94963
28 1 20.4415 4.71726 1.57242 -8.94963
167 1 15.7242 6.28969 9.43453 -8.94965
30 1 1.57242 7.86211 1.57242 -8.94963
31 1 3.14484 6.28969 3.64945e-09 -8.94963
32 1 4.71726 7.86211 1.57242 -8.94963
166 1 12.5793 6.28966 9.43453 -8.95093
34 1 7.86211 7.86211 1.57242 -8.94963
35 1 9.43453 6.28969 6.19699e-08 -8.94963
36 1 11.007 7.86211 1.57242 -8.94964
37 1 12.5794 6.28969 1.11232e-07 -8.94963
38 1 14.1518 7.86211 1.57242 -8.94963
165 1 9.43449 6.28708 9.43454 -8.96701
40 1 17.2966 7.86211 1.57242 -8.94964
41 1 18.8691 6.28969 2.74986e-09 -8.94963
42 1 20.4415 7.86211 1.57242 -8.94963
43 1 22.0139 9.43453 -2.69562e-10 -8.94963
187 1 14.1518 4.71726 11.0069 -8.94968
45 1 6.28969 9.43453 5.99424e-08 -8.94963
164 1 6.28974 6.28974 9.43454 -8.95151
163 1 3.14484 6.28969 9.43453 -8.94963
48 1 15.7242 9.43453 9.36833e-08 -8.94963
162 1 4.42848e-08 6.28969 9.43453 -8.94963
50 1 6.71632e-11 2.52064e-16 3.14484 -8.94963
51 1 1.57242 1.57242 4.71726 -8.94963
52 1 3.14484 3.29681e-16 3.14484 -8.94963
53 1 4.71726 1.57242 4.71726 -8.94963
54 1 6.28969 1.92193e-16 3.14484 -8.94963
55 1 7.86211 1.57242 4.71726 -8.94963
56 1 9.43453 3.02243e-16 3.14484 -8.94963
57 1 11.007 1.57242 4.71726 -8.94963
58 1 12.5794 6.40617e-16 3.14484 -8.94963
59 1 14.1518 1.57242 4.71726 -8.94963
60 1 15.7242 7.17635e-16 3.14484 -8.94963
61 1 17.2966 1.57242 4.71726 -8.94963
62 1 18.8691 2.32622e-16 3.14484 -8.94963
63 1 20.4415 1.57242 4.71726 -8.94963
64 1 22.0139 3.14484 3.14484 -8.94963
65 1 1.57242 4.71726 4.71726 -8.94963
66 1 3.14484 3.14484 3.14484 -8.94963
67 1 4.71726 4.71726 4.71726 -8.9496
68 1 6.28969 3.14484 3.14484 -8.94964
69 1 7.86211 4.71727 4.71727 -8.94971
70 1 9.43453 3.14484 3.14484 -8.94963
71 1 11.0069 4.71727 4.71727 -8.94965
72 1 12.5794 3.14484 3.14484 -8.94963
73 1 14.1518 4.71726 4.71726 -8.94963
74 1 15.7242 3.14484 3.14484 -8.94963
75 1 17.2966 4.71726 4.71726 -8.94963
76 1 18.8691 3.14484 3.14484 -8.94963
77 1 20.4415 4.71726 4.71726 -8.94963
78 1 22.0139 6.28969 3.14484 -8.94963
79 1 1.57242 7.86211 4.71726 -8.94963
80 1 3.14484 6.28969 3.14484 -8.94963
81 1 4.71726 7.86211 4.71726 -8.94967
82 1 6.28969 6.28969 3.14484 -8.94963
83 1 7.86208 7.86209 4.7172 -8.94991
84 1 9.43453 6.28969 3.14484 -8.94965
85 1 11.0069 7.86216 4.7173 -8.95097
86 1 12.5794 6.28969 3.14485 -8.94971
87 1 14.1519 7.86204 4.7172 -8.94861
88 1 15.7242 6.28968 3.14484 -8.9496
89 1 17.2966 7.86211 4.71726 -8.94964
90 1 18.8691 6.28969 3.14484 -8.94963
91 1 20.4415 7.86211 4.71726 -8.94963
92 1 5.04905e-09 9.43453 3.14484 -8.94963
93 1 3.14484 9.43453 3.14484 -8.94964
94 1 6.28969 9.43453 3.14484 -8.94967
95 1 9.4345 9.4345 3.1448 -8.94933
96 1 12.5794 9.43449 3.14477 -8.94975
97 1 15.7242 9.43453 3.14485 -8.94971
98 1 18.8691 9.43453 3.14484 -8.94963
99 1 22.0139 6.29028e-16 6.28969 -8.94963
100 1 1.57242 1.57242 7.86211 -8.94963
101 1 3.14484 9.89531e-17 6.28969 -8.94963
102 1 4.71726 1.57242 7.86211 -8.94963
103 1 6.28969 1.904e-16 6.28969 -8.94963
104 1 7.86211 1.57242 7.86211 -8.94965
105 1 9.43453 4.73369e-16 6.28969 -8.94963
106 1 11.007 1.57242 7.86211 -8.94964
107 1 12.5794 4.18726e-16 6.28969 -8.94963
108 1 14.1518 1.57242 7.86211 -8.94963
109 1 15.7242 4.51313e-16 6.28969 -8.94963
110 1 17.2966 1.57242 7.86211 -8.94963
111 1 18.8691 3.60097e-16 6.28969 -8.94963
112 1 20.4415 1.57242 7.86211 -8.94963
113 1 3.58315e-09 3.14484 6.28969 -8.94963
114 1 1.57242 4.71726 7.86211 -8.94963
115 1 3.14484 3.14484 6.28969 -8.94964
116 1 4.71727 4.71727 7.86211 -8.94972
117 1 6.28968 3.14484 6.28968 -8.94962
118 1 7.86207 4.71719 7.86207 -8.94976
119 1 9.43453 3.14484 6.28969 -8.94964
120 1 11.007 4.71722 7.86207 -8.94933
121 1 12.5794 3.14484 6.28969 -8.94963
122 1 14.1518 4.71726 7.86211 -8.94967
123 1 15.7242 3.14484 6.28969 -8.94963
124 1 17.2966 4.71726 7.86211 -8.94964
125 1 18.8691 3.14484 6.28969 -8.94963
126 1 20.4415 4.71726 7.86211 -8.94963
127 1 22.0139 6.28969 6.28969 -8.94963
128 1 1.57242 7.86211 7.86211 -8.94964
129 1 3.14484 6.28969 6.28969 -8.94963
130 1 4.7172 7.86209 7.86209 -8.94998
131 1 6.28962 6.28962 6.28962 -8.94862
132 1 7.85988 7.85998 7.85987 -8.91869
133 1 9.43454 6.28972 6.28974 -8.95097
134 1 11.0077 7.86159 7.86128 -8.94063
135 1 12.5794 6.28962 6.28967 -8.94992
136 1 14.1519 7.86206 7.86205 -8.9493
137 1 15.7242 6.28969 6.28968 -8.94967
138 1 17.2966 7.86211 7.86211 -8.94965
139 1 18.8691 6.28969 6.28969 -8.94963
140 1 20.4415 7.86211 7.86211 -8.94963
141 1 22.0139 9.43453 6.28969 -8.94963
142 1 3.14484 9.43453 6.28969 -8.94964
143 1 6.28961 9.43446 6.28962 -8.94922
144 1 9.43373 9.43367 6.28915 -8.94031
145 1 12.5816 9.43228 6.28756 -8.91837
146 1 15.7243 9.43451 6.28967 -8.95002
147 1 18.8691 9.43453 6.28969 -8.94964
148 1 5.00743e-10 3.81143e-16 9.43453 -8.94963
149 1 3.14484 7.05601e-16 9.43453 -8.94963
150 1 6.28969 6.30088e-16 9.43453 -8.94963
151 1 9.43453 5.69373e-17 9.43453 -8.94966
152 1 12.5794 5.17234e-16 9.43453 -8.94963
153 1 15.7242 4.1215e-16 9.43453 -8.94963
154 1 18.8691 4.60771e-16 9.43453 -8.94963
155 1 22.0139 3.14484 9.43453 -8.94963
156 1 3.14484 3.14484 9.43453 -8.94963
157 1 6.28969 3.14484 9.43453 -8.94963
158 1 9.43453 3.14479 9.43453 -8.95032
159 1 12.5794 3.14484 9.43453 -8.94966
160 1 15.7242 3.14484 9.43453 -8.94963
161 1 18.8691 3.14484 9.43453 -8.94963
177 1 4.71726 1.57242 11.007 -8.94963
180 1 14.1518 1.57242 11.007 -8.94963
184 1 4.71727 4.71727 11.0069 -8.94972
183 1 1.57242 4.71726 11.007 -8.94963
3 1 3.14484 3.03265e-16 9.15123e-11 -8.94963
176 1 1.57242 1.57242 11.007 -8.94963
343 1 18.8691 9.43453 18.8691 -8.94963
178 1 7.86211 1.57242 11.007 -8.94964
179 1 11.007 1.57242 11.007 -8.94963
342 1 15.7242 9.43453 18.8691 -8.94964
341 1 12.5794 9.43452 18.8691 -8.94942
182 1 20.4415 1.57242 11.007 -8.94963
340 1 9.43452 9.43452 18.8691 -8.94948
339 1 6.28968 9.43453 18.8691 -8.94965
185 1 7.86207 4.71719 11.007 -8.94953
186 1 11.007 4.71721 11.007 -8.94919
338 1 3.14484 9.43453 18.8691 -8.94964
337 1 7.07476e-09 9.43453 18.8691 -8.94963
336 1 20.4415 7.86211 20.4415 -8.94963
190 1 1.57242 7.86211 11.007 -8.94964
191 1 4.71723 7.86211 11.007 -8.95019
192 1 7.86004 7.86043 11.0091 -8.95922
193 1 11.0079 7.86164 11.0078 -8.9959
194 1 14.152 7.86197 11.007 -8.94865
195 1 17.2966 7.8621 11.007 -8.94965
196 1 20.4415 7.86211 11.007 -8.94963
197 1 22.0139 -2.05541e-16 12.5794 -8.94963
198 1 1.57242 1.57242 14.1518 -8.94963
199 1 3.14484 -8.58142e-17 12.5794 -8.94963
200 1 4.71726 1.57242 14.1518 -8.94963
201 1 6.28969 4.73708e-16 12.5794 -8.94963
202 1 7.86211 1.57242 14.1518 -8.94963
203 1 9.43453 -7.15424e-17 12.5794 -8.94964
204 1 11.007 1.57242 14.1518 -8.94963
205 1 12.5794 -1.56313e-16 12.5794 -8.94963
206 1 14.1518 1.57242 14.1518 -8.94963
207 1 15.7242 1.7376e-16 12.5794 -8.94963
208 1 17.2966 1.57242 14.1518 -8.94963
209 1 18.8691 8.39679e-17 12.5794 -8.94963
210 1 20.4415 1.57242 14.1518 -8.94963
211 1 4.03232e-09 3.14484 12.5794 -8.94963
212 1 1.57242 4.71726 14.1518 -8.94963
213 1 3.14484 3.14484 12.5794 -8.94963
214 1 4.71726 4.71726 14.1518 -8.94961
215 1 6.28969 3.14484 12.5794 -8.94962
216 1 7.8621 4.71727 14.1518 -8.94949
217 1 9.43453 3.14483 12.5794 -8.94982
218 1 11.007 4.71726 14.1518 -8.94949
219 1 12.5794 3.14484 12.5794 -8.94966
220 1 14.1518 4.71726 14.1518 -8.94965
221 1 15.7242 3.14484 12.5794 -8.94963
222 1 17.2966 4.71726 14.1518 -8.94964
223 1 18.8691 3.14484 12.5794 -8.94963
224 1 20.4415 4.71726 14.1518 -8.94963
225 1 22.0139 6.28969 12.5794 -8.94963
226 1 1.57242 7.86211 14.1518 -8.94963
227 1 3.14484 6.28968 12.5794 -8.94962
228 1 4.71729 7.86213 14.1518 -8.94984
229 1 6.28966 6.28967 12.5794 -8.94915
230 1 7.86224 7.86253 14.152 -8.99074
231 1 9.43458 6.28907 12.5793 -8.95606
232 1 11.0071 7.86228 14.1517 -9.00632
233 1 12.5794 6.28956 12.5794 -8.95056
234 1 14.1519 7.86197 14.1519 -8.94794
235 1 15.7242 6.28969 12.5794 -8.94971
236 1 17.2966 7.8621 14.1518 -8.94964
237 1 18.8691 6.28969 12.5794 -8.94963
238 1 20.4415 7.86211 14.1518 -8.94963
239 1 2.94435e-07 9.43453 12.5794 -8.94963
240 1 3.14486 9.43453 12.5794 -8.94942
241 1 6.29031 9.43496 12.5794 -8.99715
242 1 9.42425 9.41469 12.5798 -9.23425
243 1 12.5845 9.43033 12.5815 -8.95542
244 1 15.7243 9.43451 12.5794 -8.95085
245 1 18.8691 9.43453 12.5794 -8.94967
246 1 1.70485e-10 2.42784e-16 15.7242 -8.94963
247 1 1.57242 1.57242 17.2966 -8.94963
248 1 3.14484 6.5381e-16 15.7242 -8.94963
249 1 4.71726 1.57242 17.2966 -8.94963
250 1 6.28969 3.3011e-16 15.7242 -8.94963
251 1 7.86211 1.57242 17.2966 -8.94963
252 1 9.43453 3.34832e-16 15.7242 -8.94963
253 1 11.007 1.57242 17.2966 -8.94963
254 1 12.5794 1.31266e-16 15.7242 -8.94963
255 1 14.1518 1.57242 17.2966 -8.94963
256 1 15.7242 7.07663e-16 15.7242 -8.94963
257 1 17.2966 1.57242 17.2966 -8.94963
258 1 18.8691 5.91716e-16 15.7242 -8.94963
259 1 20.4415 1.57242 17.2966 -8.94963
260 1 22.0139 3.14484 15.7242 -8.94963
261 1 1.57242 4.71726 17.2966 -8.94963
262 1 3.14484 3.14484 15.7242 -8.94963
263 1 4.71726 4.71726 17.2966 -8.94964
264 1 6.28969 3.14484 15.7242 -8.94963
265 1 7.86211 4.71726 17.2966 -8.94964
266 1 9.43453 3.14484 15.7242 -8.94964
267 1 11.007 4.71726 17.2966 -8.94963
268 1 12.5794 3.14484 15.7242 -8.94963
269 1 14.1518 4.71727 17.2966 -8.94964
270 1 15.7242 3.14484 15.7242 -8.94963
271 1 17.2966 4.71726 17.2966 -8.94963
272 1 18.8691 3.14484 15.7242 -8.94963
273 1 20.4415 4.71726 17.2966 -8.94963
274 1 3.63888e-08 6.28969 15.7242 -8.94963
275 1 1.57242 7.86211 17.2966 -8.94963
276 1 3.14484 6.28969 15.7242 -8.94964
277 1 4.71726 7.8621 17.2966 -8.9496
278 1 6.2897 6.28969 15.7242 -8.94972
279 1 7.86211 7.86211 17.2966 -8.94967
280 1 9.43453 6.2897 15.7242 -8.95001
281 1 11.0069 7.86212 17.2966 -8.95001
282 1 12.5794 6.28969 15.7242 -8.94975
283 1 14.1518 7.86212 17.2966 -8.94971
284 1 15.7242 6.28968 15.7242 -8.94956
285 1 17.2966 7.86211 17.2966 -8.94964
286 1 18.8691 6.28969 15.7242 -8.94963
287 1 20.4415 7.86211 17.2966 -8.94963
288 1 22.0139 9.43453 15.7242 -8.94963
289 1 3.14484 9.43453 15.7242 -8.94964
290 1 6.28961 9.43447 15.7243 -8.94903
291 1 9.43429 9.43454 15.7241 -9.00483
292 1 12.5792 9.43437 15.7238 -8.99047
293 1 15.7242 9.43455 15.7242 -8.94989
294 1 18.8691 9.43453 15.7242 -8.94963
295 1 22.0139 4.80239e-16 18.8691 -8.94963
296 1 1.57242 1.57242 20.4415 -8.94963
297 1 3.14484 1.72204e-18 18.8691 -8.94963
298 1 4.71726 1.57242 20.4415 -8.94963
299 1 6.28969 -2.83247e-16 18.8691 -8.94963
300 1 7.86211 1.57242 20.4415 -8.94963
301 1 9.43453 3.64712e-18 18.8691 -8.94963
302 1 11.007 1.57242 20.4415 -8.94963
303 1 12.5794 3.02503e-16 18.8691 -8.94963
304 1 14.1518 1.57242 20.4415 -8.94963
305 1 15.7242 1.90351e-16 18.8691 -8.94963
306 1 17.2966 1.57242 20.4415 -8.94963
307 1 18.8691 1.58395e-16 18.8691 -8.94963
308 1 20.4415 1.57242 20.4415 -8.94963
309 1 8.41958e-10 3.14484 18.8691 -8.94963
310 1 1.57242 4.71726 20.4415 -8.94963
311 1 3.14484 3.14484 18.8691 -8.94963
312 1 4.71726 4.71726 20.4415 -8.94963
313 1 6.28969 3.14484 18.8691 -8.94963
314 1 7.86211 4.71726 20.4415 -8.94963
315 1 9.43453 3.14484 18.8691 -8.94963
316 1 11.007 4.71726 20.4415 -8.94963
317 1 12.5794 3.14484 18.8691 -8.94963
318 1 14.1518 4.71726 20.4415 -8.94963
319 1 15.7242 3.14484 18.8691 -8.94963
320 1 17.2966 4.71726 20.4415 -8.94963
321 1 18.8691 3.14484 18.8691 -8.94963
322 1 20.4415 4.71726 20.4415 -8.94963
323 1 22.0139 6.28969 18.8691 -8.94963
324 1 1.57242 7.86211 20.4415 -8.94963
325 1 3.14484 6.28969 18.8691 -8.94963
326 1 4.71726 7.86211 20.4415 -8.94963
327 1 6.28969 6.28969 18.8691 -8.94963
328 1 7.86211 7.86211 20.4415 -8.94963
329 1 9.43453 6.28969 18.8691 -8.94963
330 1 11.007 7.86211 20.4415 -8.94964
331 1 12.5794 6.28969 18.8691 -8.94964
332 1 14.1518 7.86211 20.4415 -8.94963
333 1 15.7242 6.28969 18.8691 -8.94964
334 1 17.2966 7.86211 20.4415 -8.94963
335 1 18.8691 6.28969 18.8691 -8.94963
49 1 18.8691 9.43453 22.0139 -8.94963
5 1 6.28969 5.53003e-17 22.0139 -8.94963
9 1 12.5794 -7.86693e-17 22.0139 -8.94963
15 1 22.0139 3.14484 22.0139 -8.94963
17 1 3.14484 3.14484 22.0139 -8.94963
21 1 9.43453 3.14484 22.0139 -8.94963
23 1 12.5794 3.14484 22.0139 -8.94963
27 1 18.8691 3.14484 22.0139 -8.94963
29 1 1.25424e-10 6.28969 22.0139 -8.94963
33 1 6.28969 6.28969 22.0139 -8.94963
39 1 15.7242 6.28969 22.0139 -8.94963
46 1 9.43453 9.43453 22.0139 -8.94963
47 1 12.5794 9.43453 22.0139 -8.94964
1 1 -5.14417e-12 6.41574e-16 22.0139 -8.94963
13 1 18.8691 2.854e-16 22.0139 -8.94963
44 1 3.14484 9.43453 22.0139 -8.94963
181 1 17.2966 1.57242 11.007 -8.94963
344 1 1.57242 11.007 1.57242 -8.94963
345 1 4.71726 11.007 1.57242 -8.94963
346 1 7.86211 11.007 1.57242 -8.94966
347 1 11.0069 11.007 1.57236 -8.95033
348 1 14.1518 11.007 1.57242 -8.94963
349 1 17.2966 11.007 1.57242 -8.94963
350 1 20.4415 11.007 1.57242 -8.94963
351 1 22.0139 12.5794 -2.69562e-10 -8.94963
352 1 1.57242 14.1518 1.57242 -8.94963
537 1 14.1518 20.4415 11.007 -8.94963
354 1 4.71726 14.1518 1.57242 -8.94963
355 1 6.28969 12.5794 5.99424e-08 -8.94963
356 1 7.86211 14.1518 1.57242 -8.94963
688 3 10.2189 11.007 9.43242 3.7178
358 1 11.007 14.1518 1.57242 -8.94964
511 1 18.8691 18.8691 9.43453 -8.94963
360 1 14.1518 14.1518 1.57242 -8.94963
361 1 15.7242 12.5794 9.36833e-08 -8.94963
362 1 17.2966 14.1518 1.57242 -8.94964
510 1 15.7242 18.8691 9.43453 -8.94963
364 1 20.4415 14.1518 1.57242 -8.94963
509 1 12.5794 18.8691 9.43453 -8.94966
366 1 1.57242 17.2966 1.57242 -8.94963
367 1 3.14484 15.7242 3.64945e-09 -8.94963
368 1 4.71726 17.2966 1.57242 -8.94963
508 1 9.43453 18.8691 9.43453 -8.95032
370 1 7.86211 17.2966 1.57242 -8.94963
371 1 9.43453 15.7242 6.19699e-08 -8.94963
372 1 11.007 17.2966 1.57242 -8.94963
373 1 12.5794 15.7242 1.11232e-07 -8.94963
374 1 14.1518 17.2966 1.57242 -8.94964
507 1 6.28969 18.8691 9.43453 -8.94963
376 1 17.2966 17.2966 1.57242 -8.94963
377 1 18.8691 15.7242 2.74986e-09 -8.94963
378 1 20.4415 17.2966 1.57242 -8.94963
506 1 3.14484 18.8691 9.43453 -8.94963
380 1 1.57242 20.4415 1.57242 -8.94963
505 1 22.0139 18.8691 9.43453 -8.94963
382 1 4.71726 20.4415 1.57242 -8.94963
383 1 6.28969 18.8691 4.64919e-09 -8.94963
384 1 7.86211 20.4415 1.57242 -8.94963
504 1 18.8691 15.7242 9.43453 -8.94963
386 1 11.007 20.4415 1.57242 -8.94963
503 1 15.7242 15.7242 9.43453 -8.94965
388 1 14.1518 20.4415 1.57242 -8.94963
389 1 15.7242 18.8691 3.03341e-09 -8.94963
390 1 17.2966 20.4415 1.57242 -8.94963
502 1 12.5793 15.7242 9.43453 -8.95093
392 1 20.4415 20.4415 1.57242 -8.94963
393 1 1.57242 11.007 4.71726 -8.94963
394 1 4.71727 11.007 4.71727 -8.94969
395 1 7.86214 11.007 4.71724 -8.95093
396 1 11.007 11.007 4.71463 -8.96672
397 1 14.1517 11.007 4.71731 -8.95142
398 1 17.2966 11.007 4.71726 -8.94962
399 1 20.4415 11.007 4.71726 -8.94963
400 1 5.04905e-09 12.5794 3.14484 -8.94963
401 1 1.57242 14.1518 4.71726 -8.94963
402 1 3.14484 12.5794 3.14484 -8.94964
403 1 4.71726 14.1518 4.71726 -8.94967
404 1 6.28969 12.5794 3.14484 -8.94967
405 1 7.86208 14.1518 4.7172 -8.94991
406 1 9.4345 12.5794 3.1448 -8.94933
407 1 11.0069 14.1517 4.7173 -8.95097
408 1 12.5794 12.5794 3.14477 -8.94975
409 1 14.1519 14.1519 4.7172 -8.94861
410 1 15.7242 12.5794 3.14485 -8.94971
411 1 17.2966 14.1518 4.71726 -8.94964
412 1 18.8691 12.5794 3.14484 -8.94963
413 1 20.4415 14.1518 4.71726 -8.94963
414 1 22.0139 15.7242 3.14484 -8.94963
415 1 1.57242 17.2966 4.71726 -8.94963
416 1 3.14484 15.7242 3.14484 -8.94963
417 1 4.71726 17.2966 4.71726 -8.9496
418 1 6.28969 15.7242 3.14484 -8.94963
419 1 7.86211 17.2966 4.71727 -8.94971
420 1 9.43453 15.7242 3.14484 -8.94965
421 1 11.0069 17.2966 4.71727 -8.94965
422 1 12.5794 15.7242 3.14485 -8.94971
423 1 14.1518 17.2966 4.71726 -8.94963
424 1 15.7242 15.7242 3.14484 -8.9496
425 1 17.2966 17.2966 4.71726 -8.94963
426 1 18.8691 15.7242 3.14484 -8.94963
427 1 20.4415 17.2966 4.71726 -8.94963
428 1 22.0139 18.8691 3.14484 -8.94963
429 1 1.57242 20.4415 4.71726 -8.94963
430 1 3.14484 18.8691 3.14484 -8.94963
431 1 4.71726 20.4415 4.71726 -8.94963
432 1 6.28969 18.8691 3.14484 -8.94964
433 1 7.86211 20.4415 4.71726 -8.94963
434 1 9.43453 18.8691 3.14484 -8.94963
435 1 11.007 20.4415 4.71726 -8.94963
436 1 12.5794 18.8691 3.14484 -8.94963
437 1 14.1518 20.4415 4.71726 -8.94963
438 1 15.7242 18.8691 3.14484 -8.94963
439 1 17.2966 20.4415 4.71726 -8.94963
440 1 18.8691 18.8691 3.14484 -8.94963
441 1 20.4415 20.4415 4.71726 -8.94963
442 1 1.57242 11.007 7.86211 -8.94965
443 1 4.71716 11.007 7.86208 -8.95018
444 1 7.85884 11.007 7.85945 -8.91137
445 1 11.0511 11.007 7.77074 -7.97642
446 1 14.1531 11.007 7.86199 -8.9594
447 1 17.2967 11.007 7.86211 -8.94994
448 1 20.4415 11.007 7.86211 -8.94964
449 1 22.0139 12.5794 6.28969 -8.94963
450 1 1.57242 14.1518 7.86211 -8.94964
451 1 3.14484 12.5794 6.28969 -8.94964
452 1 4.7172 14.1518 7.86209 -8.94998
453 1 6.28961 12.5794 6.28962 -8.94922
454 1 7.85988 14.1539 7.85987 -8.91869
455 1 9.43373 12.5802 6.28915 -8.94031
456 1 11.0077 14.1523 7.86128 -8.94063
457 1 12.5816 12.5816 6.28756 -8.91837
458 1 14.1519 14.1518 7.86205 -8.9493
459 1 15.7243 12.5794 6.28967 -8.95002
460 1 17.2966 14.1518 7.86211 -8.94965
461 1 18.8691 12.5794 6.28969 -8.94964
462 1 20.4415 14.1518 7.86211 -8.94963
463 1 22.0139 15.7242 6.28969 -8.94963
464 1 1.57242 17.2966 7.86211 -8.94963
465 1 3.14484 15.7242 6.28969 -8.94963
466 1 4.71727 17.2966 7.86211 -8.94972
467 1 6.28962 15.7243 6.28962 -8.94862
468 1 7.86207 17.2967 7.86207 -8.94976
469 1 9.43454 15.7242 6.28974 -8.95097
470 1 11.007 17.2967 7.86207 -8.94933
471 1 12.5794 15.7243 6.28967 -8.94992
472 1 14.1518 17.2966 7.86211 -8.94967
473 1 15.7242 15.7242 6.28968 -8.94967
474 1 17.2966 17.2966 7.86211 -8.94964
475 1 18.8691 15.7242 6.28969 -8.94963
476 1 20.4415 17.2966 7.86211 -8.94963
477 1 3.58315e-09 18.8691 6.28969 -8.94963
478 1 1.57242 20.4415 7.86211 -8.94963
479 1 3.14484 18.8691 6.28969 -8.94964
480 1 4.71726 20.4415 7.86211 -8.94963
481 1 6.28968 18.8691 6.28968 -8.94962
482 1 7.86211 20.4415 7.86211 -8.94965
483 1 9.43453 18.8691 6.28969 -8.94964
484 1 11.007 20.4415 7.86211 -8.94964
485 1 12.5794 18.8691 6.28969 -8.94963
486 1 14.1518 20.4415 7.86211 -8.94963
487 1 15.7242 18.8691 6.28969 -8.94963
488 1 17.2966 20.4415 7.86211 -8.94963
489 1 18.8691 18.8691 6.28969 -8.94963
490 1 20.4415 20.4415 7.86211 -8.94963
491 1 22.0139 12.5794 9.43453 -8.94964
492 1 3.14481 12.5794 9.43453 -8.94996
493 1 6.2883 12.5796 9.43445 -8.95827
494 1 9.39028 12.6702 9.43459 -8.02388
495 1 12.5824 12.5821 9.43497 -8.95334
496 1 15.7243 12.5794 9.43455 -8.95028
497 1 18.8691 12.5794 9.43453 -8.94965
498 1 4.42848e-08 15.7242 9.43453 -8.94963
499 1 3.14484 15.7242 9.43453 -8.94963
500 1 6.28974 15.7242 9.43454 -8.95151
501 1 9.43449 15.7268 9.43454 -8.96701
526 1 1.57242 17.2966 11.007 -8.94963
527 1 4.71727 17.2966 11.0069 -8.94972
530 1 14.1518 17.2966 11.0069 -8.94968
531 1 17.2966 17.2966 11.007 -8.94964
532 1 20.4415 17.2966 11.007 -8.94963
534 1 4.71726 20.4415 11.007 -8.94963
517 1 17.2967 11.007 11.0069 -8.94979
518 1 20.4415 11.007 11.007 -8.94964
512 1 1.57242 11.007 11.007 -8.94968
513 1 4.71708 11.007 11.007 -8.95101
514 1 7.85587 11.007 11.0076 -8.94553
515 1 11.0637 11.007 11.0789 -8.28765
516 1 14.1526 11.007 11.0076 -9.00632
391 1 18.8691 18.8691 22.0139 -8.94963
387 1 12.5794 18.8691 22.0139 -8.94963
519 1 1.57242 14.1518 11.007 -8.94964
520 1 4.71723 14.1518 11.007 -8.95019
521 1 7.86004 14.1535 11.0091 -8.95922
522 1 11.0079 14.1523 11.0078 -8.9959
523 1 14.152 14.1519 11.007 -8.94865
524 1 17.2966 14.1518 11.007 -8.94965
525 1 20.4415 14.1518 11.007 -8.94963
687 2 10.219 11.007 12.5815 1.16936
686 1 20.4415 20.4415 20.4415 -8.94963
528 1 7.86207 17.2967 11.007 -8.94953
529 1 11.007 17.2967 11.007 -8.94919
685 1 18.8691 18.8691 18.8691 -8.94963
684 1 17.2966 20.4415 20.4415 -8.94963
683 1 15.7242 18.8691 18.8691 -8.94963
533 1 1.57242 20.4415 11.007 -8.94963
682 1 14.1518 20.4415 20.4415 -8.94963
535 1 7.86211 20.4415 11.007 -8.94964
536 1 11.007 20.4415 11.007 -8.94963
681 1 12.5794 18.8691 18.8691 -8.94963
680 1 11.007 20.4415 20.4415 -8.94963
539 1 20.4415 20.4415 11.007 -8.94963
540 1 1.57242 11.007 14.1518 -8.94966
541 1 4.7172 11.007 14.1518 -8.95055
542 1 7.85926 11.007 14.1538 -8.98615
543 1 11.0166 11.007 14.1734 -9.26096
544 1 14.151 11.007 14.1513 -8.99931
545 1 17.2966 11.007 14.1518 -8.94941
546 1 20.4415 11.007 14.1518 -8.94963
547 1 2.94435e-07 12.5794 12.5794 -8.94963
548 1 1.57242 14.1518 14.1518 -8.94963
549 1 3.14486 12.5794 12.5794 -8.94942
550 1 4.71729 14.1518 14.1518 -8.94984
551 1 6.29031 12.5789 12.5794 -8.99715
552 1 7.86224 14.1514 14.152 -8.99074
553 1 9.42425 12.5992 12.5798 -9.23425
554 1 11.0071 14.1516 14.1517 -9.00632
555 1 12.5845 12.5836 12.5815 -8.95542
556 1 14.1519 14.1519 14.1519 -8.94794
557 1 15.7243 12.5794 12.5794 -8.95085
558 1 17.2966 14.1518 14.1518 -8.94964
559 1 18.8691 12.5794 12.5794 -8.94967
560 1 20.4415 14.1518 14.1518 -8.94963
561 1 22.0139 15.7242 12.5794 -8.94963
562 1 1.57242 17.2966 14.1518 -8.94963
563 1 3.14484 15.7242 12.5794 -8.94962
564 1 4.71726 17.2966 14.1518 -8.94961
565 1 6.28966 15.7242 12.5794 -8.94915
566 1 7.8621 17.2966 14.1518 -8.94949
567 1 9.43458 15.7248 12.5793 -8.95606
568 1 11.007 17.2966 14.1518 -8.94949
569 1 12.5794 15.7243 12.5794 -8.95056
570 1 14.1518 17.2966 14.1518 -8.94965
571 1 15.7242 15.7242 12.5794 -8.94971
572 1 17.2966 17.2966 14.1518 -8.94964
573 1 18.8691 15.7242 12.5794 -8.94963
574 1 20.4415 17.2966 14.1518 -8.94963
575 1 4.03232e-09 18.8691 12.5794 -8.94963
576 1 1.57242 20.4415 14.1518 -8.94963
577 1 3.14484 18.8691 12.5794 -8.94963
578 1 4.71726 20.4415 14.1518 -8.94963
579 1 6.28969 18.8691 12.5794 -8.94962
580 1 7.86211 20.4415 14.1518 -8.94963
581 1 9.43453 18.8691 12.5794 -8.94982
582 1 11.007 20.4415 14.1518 -8.94963
583 1 12.5794 18.8691 12.5794 -8.94966
584 1 14.1518 20.4415 14.1518 -8.94963
585 1 15.7242 18.8691 12.5794 -8.94963
586 1 17.2966 20.4415 14.1518 -8.94963
587 1 18.8691 18.8691 12.5794 -8.94963
588 1 20.4415 20.4415 14.1518 -8.94963
589 1 1.57242 11.007 17.2966 -8.94963
590 1 4.71727 11.007 17.2966 -8.94967
591 1 7.8621 11.007 17.2967 -8.95032
592 1 11.0069 11.007 17.2973 -8.95538
593 1 14.1518 11.007 17.2966 -8.95017
594 1 17.2966 11.007 17.2966 -8.94961
595 1 20.4415 11.007 17.2966 -8.94963
596 1 22.0139 12.5794 15.7242 -8.94963
597 1 1.57242 14.1518 17.2966 -8.94963
598 1 3.14484 12.5794 15.7242 -8.94964
599 1 4.71726 14.1518 17.2966 -8.9496
600 1 6.28961 12.5794 15.7243 -8.94903
601 1 7.86211 14.1518 17.2966 -8.94967
602 1 9.43429 12.5794 15.7241 -9.00483
603 1 11.0069 14.1518 17.2966 -8.95001
604 1 12.5792 12.5795 15.7238 -8.99047
605 1 14.1518 14.1518 17.2966 -8.94971
606 1 15.7242 12.5794 15.7242 -8.94989
607 1 17.2966 14.1518 17.2966 -8.94964
608 1 18.8691 12.5794 15.7242 -8.94963
609 1 20.4415 14.1518 17.2966 -8.94963
610 1 3.63888e-08 15.7242 15.7242 -8.94963
611 1 1.57242 17.2966 17.2966 -8.94963
612 1 3.14484 15.7242 15.7242 -8.94964
613 1 4.71726 17.2966 17.2966 -8.94964
614 1 6.2897 15.7242 15.7242 -8.94972
615 1 7.86211 17.2966 17.2966 -8.94964
616 1 9.43453 15.7242 15.7242 -8.95001
617 1 11.007 17.2966 17.2966 -8.94963
618 1 12.5794 15.7242 15.7242 -8.94975
619 1 14.1518 17.2966 17.2966 -8.94964
620 1 15.7242 15.7242 15.7242 -8.94956
621 1 17.2966 17.2966 17.2966 -8.94963
622 1 18.8691 15.7242 15.7242 -8.94963
623 1 20.4415 17.2966 17.2966 -8.94963
624 1 22.0139 18.8691 15.7242 -8.94963
625 1 1.57242 20.4415 17.2966 -8.94963
626 1 3.14484 18.8691 15.7242 -8.94963
627 1 4.71726 20.4415 17.2966 -8.94963
628 1 6.28969 18.8691 15.7242 -8.94963
629 1 7.86211 20.4415 17.2966 -8.94963
630 1 9.43453 18.8691 15.7242 -8.94964
631 1 11.007 20.4415 17.2966 -8.94963
632 1 12.5794 18.8691 15.7242 -8.94963
633 1 14.1518 20.4415 17.2966 -8.94963
634 1 15.7242 18.8691 15.7242 -8.94963
635 1 17.2966 20.4415 17.2966 -8.94963
636 1 18.8691 18.8691 15.7242 -8.94963
637 1 20.4415 20.4415 17.2966 -8.94963
638 1 1.57242 11.007 20.4415 -8.94963
639 1 4.71726 11.007 20.4415 -8.94963
640 1 7.86211 11.007 20.4415 -8.94966
641 1 11.007 11.007 20.4415 -8.94984
642 1 14.1518 11.007 20.4415 -8.94963
643 1 17.2966 11.007 20.4415 -8.94963
644 1 20.4415 11.007 20.4415 -8.94963
645 1 7.07476e-09 12.5794 18.8691 -8.94963
646 1 1.57242 14.1518 20.4415 -8.94963
647 1 3.14484 12.5794 18.8691 -8.94964
648 1 4.71726 14.1518 20.4415 -8.94963
649 1 6.28968 12.5794 18.8691 -8.94965
650 1 7.86211 14.1518 20.4415 -8.94963
651 1 9.43452 12.5794 18.8691 -8.94948
652 1 11.007 14.1518 20.4415 -8.94964
653 1 12.5794 12.5794 18.8691 -8.94942
654 1 14.1518 14.1518 20.4415 -8.94963
655 1 15.7242 12.5794 18.8691 -8.94964
656 1 17.2966 14.1518 20.4415 -8.94963
657 1 18.8691 12.5794 18.8691 -8.94963
658 1 20.4415 14.1518 20.4415 -8.94963
659 1 22.0139 15.7242 18.8691 -8.94963
660 1 1.57242 17.2966 20.4415 -8.94963
661 1 3.14484 15.7242 18.8691 -8.94963
662 1 4.71726 17.2966 20.4415 -8.94963
663 1 6.28969 15.7242 18.8691 -8.94963
664 1 7.86211 17.2966 20.4415 -8.94963
665 1 9.43453 15.7242 18.8691 -8.94963
666 1 11.007 17.2966 20.4415 -8.94963
667 1 12.5794 15.7242 18.8691 -8.94964
668 1 14.1518 17.2966 20.4415 -8.94963
669 1 15.7242 15.7242 18.8691 -8.94964
670 1 17.2966 17.2966 20.4415 -8.94963
671 1 18.8691 15.7242 18.8691 -8.94963
672 1 20.4415 17.2966 20.4415 -8.94963
673 1 8.41958e-10 18.8691 18.8691 -8.94963
674 1 1.57242 20.4415 20.4415 -8.94963
675 1 3.14484 18.8691 18.8691 -8.94963
676 1 4.71726 20.4415 20.4415 -8.94963
677 1 6.28969 18.8691 18.8691 -8.94963
678 1 7.86211 20.4415 20.4415 -8.94963
679 1 9.43453 18.8691 18.8691 -8.94963
357 1 9.43453 12.5794 22.0139 -8.94963
359 1 12.5794 12.5794 22.0139 -8.94964
363 1 18.8691 12.5794 22.0139 -8.94963
365 1 1.25424e-10 15.7242 22.0139 -8.94963
369 1 6.28969 15.7242 22.0139 -8.94963
375 1 15.7242 15.7242 22.0139 -8.94963
379 1 22.0139 18.8691 22.0139 -8.94963
381 1 3.14484 18.8691 22.0139 -8.94963
385 1 9.43453 18.8691 22.0139 -8.94963
353 1 3.14484 12.5794 22.0139 -8.94963
538 1 17.2966 20.4415 11.007 -8.94963
