ITEM: TIMESTEP
70
ITEM: NUMBER OF ATOMS
688
ITEM: BOX BOUNDS pp pp pp
0.0000000000000000e+00 2.2013900999999997e+01
0.0000000000000000e+00 2.2013900999999997e+01
0.0000000000000000e+00 2.2013900999999997e+01
ITEM: ATOMS id type x y z c_pot
190 1 1.56972 7.86162 11.0072 -8.95143
2 1 1.5721 1.57222 1.57212 -8.94924
175 1 18.8695 9.43425 9.43451 -8.94831
4 1 4.71707 1.57216 1.57207 -8.94966
174 1 15.7232 9.43494 9.43487 -8.94419
6 1 7.86205 1.57214 1.57206 -8.94954
7 1 9.43452 1.47032e-15 -0.000127135 -8.9496
8 1 11.007 1.57213 1.57206 -8.94956
173 1 12.5667 9.43183 9.42422 -8.94018
10 1 14.1519 1.57214 1.57213 -8.94953
172 1 9.35489 9.18558 9.42796 -8.12951
12 1 17.2969 1.57211 1.57214 -8.94949
189 1 20.4414 4.7168 11.007 -8.94957
14 1 20.4415 1.5723 1.57232 -8.94959
171 1 6.27522 9.4205 9.42813 -9.00261
16 1 1.57215 4.7171 1.57208 -8.94981
170 1 3.13971 9.43379 9.43322 -8.95064
18 1 4.71636 4.7164 1.57104 -8.94952
19 1 6.28955 3.14452 -0.000263212 -8.94952
20 1 7.86184 4.71645 1.57132 -8.9492
169 1 22.0127 9.43442 9.43431 -8.94985
22 1 11.007 4.71637 1.57141 -8.94938
188 1 17.2975 4.71639 11.0068 -8.94909
24 1 14.1523 4.71633 1.57146 -8.94972
168 1 18.8697 6.28893 9.43445 -8.94947
26 1 17.2976 4.71629 1.57159 -8.94849
167 1 15.7261 6.28783 9.43425 -8.94658
28 1 20.4417 4.71702 1.57218 -8.94959
166 1 12.5789 6.28851 9.43331 -8.94732
30 1 1.5722 7.86207 1.57211 -8.94946
31 1 3.14462 6.28965 -0.000166615 -8.94972
32 1 4.71686 7.86228 1.57176 -8.94973
165 1 9.42943 6.29166 9.43397 -9.00651
34 1 7.8617 7.86181 1.57029 -8.95226
35 1 9.43427 6.28905 -0.000727999 -8.94962
36 1 11.0067 7.86123 1.57002 -8.95053
164 1 6.27906 6.27871 9.43368 -8.94373
38 1 14.1532 7.86077 1.56953 -8.95127
163 1 3.14065 6.28738 9.43448 -8.94937
40 1 17.2977 7.86159 1.57154 -8.9493
162 1 22.0129 6.28908 9.43449 -8.94988
42 1 20.4418 7.86197 1.57213 -8.94951
43 1 22.0139 9.4345 -0.000109288 -8.9496
161 1 18.8693 3.14445 9.4345 -8.9496
45 1 6.28934 9.43462 -0.000275782 -8.94954
160 1 15.7249 3.14399 9.43443 -8.94959
159 1 12.58 3.1437 9.43417 -8.94869
48 1 15.7251 9.43422 -0.000710084 -8.94938
184 1 4.71377 4.71379 11.0081 -8.94757
50 1 -0.000147896 1.71316e-15 3.14473 -8.94961
51 1 1.57201 1.57214 4.717 -8.94955
52 1 3.1444 1.8242e-15 3.14438 -8.94955
53 1 4.71651 1.57146 4.71644 -8.94999
54 1 6.28956 1.5565e-15 3.14441 -8.94957
55 1 7.86204 1.57155 4.71657 -8.94957
56 1 9.43458 5.83138e-16 3.14438 -8.94955
57 1 11.0072 1.57161 4.7166 -8.94954
58 1 12.5796 9.80787e-16 3.14444 -8.9495
59 1 14.1522 1.57163 4.7169 -8.95046
60 1 15.7245 1.73725e-15 3.14457 -8.94992
61 1 17.2969 1.5722 4.71722 -8.94967
62 1 18.8691 1.72745e-15 3.1448 -8.94968
63 1 20.4414 1.5723 4.7172 -8.94958
64 1 22.0136 3.14454 3.14454 -8.94951
65 1 1.57103 4.71639 4.71634 -8.94948
66 1 3.14373 3.14384 3.14371 -8.94821
67 1 4.71333 4.71344 4.71326 -8.94425
68 1 6.28924 3.14381 3.14382 -8.94962
69 1 7.86117 4.71413 4.7147 -8.94885
70 1 9.43454 3.14381 3.14391 -8.94943
71 1 11.0076 4.71445 4.71501 -8.94775
72 1 12.5797 3.1438 3.14404 -8.94917
73 1 14.1544 4.71331 4.7148 -8.94946
74 1 15.7251 3.14355 3.14399 -8.94937
75 1 17.2976 4.71637 4.71689 -8.95002
76 1 18.8693 3.1445 3.14466 -8.94973
77 1 20.4414 4.71692 4.71704 -8.94979
78 1 22.0139 6.28954 3.14452 -8.9498
79 1 1.5717 7.86215 4.71668 -8.94978
80 1 3.14394 6.28943 3.14389 -8.95032
81 1 4.71514 7.86209 4.71529 -8.95167
82 1 6.28726 6.28741 3.14058 -8.95029
83 1 7.85687 7.85657 4.70695 -8.95531
84 1 9.43412 6.28757 3.14183 -8.94805
85 1 11.0076 7.85792 4.70894 -8.95203
86 1 12.5803 6.28756 3.14181 -8.94947
87 1 14.1625 7.85214 4.7065 -8.93396
88 1 15.7276 6.28641 3.14161 -8.9455
89 1 17.3 7.86054 4.71566 -8.95064
90 1 18.8701 6.28901 3.14418 -8.94968
91 1 20.4421 7.86185 4.71687 -8.95004
92 1 -2.21055e-05 9.43446 3.14441 -8.94956
93 1 3.14411 9.43455 3.14397 -8.94901
94 1 6.28925 9.43533 3.14376 -8.9494
95 1 9.43482 9.43446 3.14299 -8.95063
96 1 12.5819 9.43343 3.13756 -8.95808
97 1 15.7271 9.43347 3.14197 -8.9479
98 1 18.8702 9.43428 3.1441 -8.94935
99 1 22.0137 1.28384e-15 6.28962 -8.94961
100 1 1.57196 1.57211 7.86202 -8.94957
101 1 3.14428 1.20509e-15 6.28939 -8.94943
102 1 4.71629 1.57131 7.8617 -8.94939
103 1 6.28932 1.0799e-15 6.28921 -8.95064
104 1 7.86199 1.57077 7.86187 -8.95143
105 1 9.43476 7.34829e-16 6.28923 -8.95017
106 1 11.0071 1.57167 7.86203 -8.94965
107 1 12.5796 1.47091e-15 6.28953 -8.95029
108 1 14.1523 1.57191 7.86203 -8.94942
109 1 15.7245 1.83028e-15 6.28963 -8.94952
110 1 17.2969 1.57215 7.86206 -8.94956
111 1 18.8692 1.69962e-15 6.28964 -8.94958
112 1 20.4415 1.57227 7.86207 -8.9496
113 1 22.0135 3.14448 6.28952 -8.94953
114 1 1.57103 4.71632 7.86179 -8.94942
115 1 3.14362 3.14365 6.28901 -8.94927
116 1 4.71369 4.71347 7.86057 -8.9478
117 1 6.28814 3.14133 6.28805 -8.95162
118 1 7.85938 4.70882 7.86027 -8.95961
119 1 9.4348 3.14213 6.28848 -8.95025
120 1 11.0066 4.71464 7.86149 -8.95274
121 1 12.5799 3.14269 6.28921 -8.95214
122 1 14.1527 4.71576 7.86225 -8.94903
123 1 15.7247 3.1441 6.2897 -8.94959
124 1 17.2974 4.71647 7.86204 -8.94906
125 1 18.8693 3.14452 6.28963 -8.94948
126 1 20.4414 4.71682 7.862 -8.94956
127 1 -0.000956751 6.28918 6.28922 -8.95012
128 1 1.56942 7.86137 7.86134 -8.9516
129 1 3.14043 6.28739 6.28727 -8.95014
130 1 4.70538 7.8568 7.85761 -8.95581
131 1 6.27663 6.27686 6.27696 -8.92832
132 1 7.81954 7.82322 7.82486 -8.84486
133 1 9.43386 6.28109 6.28403 -8.94914
134 1 11.0222 7.85044 7.83655 -8.89778
135 1 12.5856 6.27986 6.28283 -8.95086
136 1 14.1572 7.85926 7.86167 -8.95042
137 1 15.7267 6.28781 6.28904 -8.95058
138 1 17.2983 7.86152 7.86255 -8.95051
139 1 18.8697 6.2892 6.28962 -8.94993
140 1 20.4414 7.86177 7.86201 -8.95006
141 1 22.0136 9.43454 6.28927 -8.94978
142 1 3.14313 9.43518 6.28866 -8.94975
143 1 6.28633 9.43708 6.28749 -8.95304
144 1 9.42295 9.41396 6.2837 -8.91534
145 1 12.6139 9.40709 6.25659 -8.87618
146 1 15.7329 9.43249 6.28648 -8.95653
147 1 18.8711 9.43428 6.28934 -8.95128
148 1 -0.000181266 1.02461e-15 9.43453 -8.94961
149 1 3.14424 1.42707e-15 9.43452 -8.94952
150 1 6.28897 1.53785e-16 9.4344 -8.9503
151 1 9.43477 1.20513e-15 9.43441 -8.94865
152 1 12.5798 1.73571e-15 9.43438 -8.94946
153 1 15.7246 1.80492e-15 9.43449 -8.94966
154 1 18.8692 1.1453e-15 9.43452 -8.94961
155 1 -0.000370495 3.14445 9.43452 -8.94955
156 1 3.14358 3.14367 9.43451 -8.9495
157 1 6.28745 3.1409 9.43423 -8.9495
158 1 9.43452 3.14336 9.43431 -8.94636
177 1 4.71631 1.57137 11.0072 -8.94936
181 1 17.297 1.57214 11.0069 -8.94957
187 1 14.1528 4.71574 11.0061 -8.94881
3 1 3.14474 1.38835e-15 -0.000110203 -8.94967
11 1 15.7243 3.64076e-16 -8.60363e-05 -8.94961
15 1 22.0139 3.14474 -9.83999e-05 -8.94962
41 1 18.8694 6.28946 -0.000181451 -8.94956
37 1 12.5794 6.28906 -0.000677213 -8.9497
176 1 1.57196 1.57211 11.007 -8.94955
343 1 18.8696 9.43443 18.8695 -8.94953
178 1 7.86184 1.57056 11.0069 -8.95141
179 1 11.0073 1.57141 11.0067 -8.9496
180 1 14.1523 1.5719 11.0068 -8.94942
342 1 15.7254 9.43413 18.8705 -8.94929
182 1 20.4415 1.57227 11.007 -8.9496
341 1 12.5799 9.43412 18.8719 -8.95211
340 1 9.4341 9.43439 18.8699 -8.94794
185 1 7.85881 4.70806 11.0074 -8.9578
186 1 11.0072 4.71373 11.006 -8.95049
47 1 12.5795 9.43436 22.0128 -8.95142
339 1 6.28918 9.43457 18.8698 -8.9498
338 1 3.14443 9.43447 18.8695 -8.94955
337 1 -2.36649e-05 9.43449 18.8693 -8.94959
191 1 4.70651 7.85853 11.0094 -8.9583
192 1 7.8196 7.8239 11.0391 -8.90194
193 1 11.0264 7.85123 11.0269 -8.95527
194 1 14.1568 7.85988 11.0049 -8.95324
195 1 17.2986 7.86127 11.0063 -8.9498
196 1 20.4415 7.86174 11.0069 -8.94993
197 1 22.0137 1.36252e-15 12.5794 -8.9496
198 1 1.57201 1.57214 14.152 -8.94957
199 1 3.14429 1.79461e-15 12.5796 -8.94945
200 1 4.71646 1.57145 14.1526 -8.94997
201 1 6.28923 9.15073e-16 12.5798 -8.95053
202 1 7.86187 1.57126 14.1526 -8.94972
203 1 9.43473 1.86798e-15 12.5797 -8.95085
204 1 11.0074 1.57119 14.1526 -8.94981
205 1 12.5797 1.77972e-15 12.5794 -8.95038
206 1 14.1523 1.57145 14.1521 -8.95062
207 1 15.7245 1.50104e-15 12.5793 -8.94954
208 1 17.2969 1.57217 14.1518 -8.94967
209 1 18.8692 1.21424e-15 12.5794 -8.94958
210 1 20.4415 1.57229 14.1518 -8.94957
211 1 -0.000355527 3.14447 12.5795 -8.9495
212 1 1.57111 4.71642 14.1526 -8.94971
213 1 3.14366 3.14371 12.5799 -8.94927
214 1 4.71333 4.71342 14.1555 -8.94485
215 1 6.2881 3.14124 12.5808 -8.95141
216 1 7.86047 4.71296 14.1547 -8.94806
217 1 9.43479 3.14066 12.5803 -8.95271
218 1 11.0081 4.71253 14.1548 -8.94696
219 1 12.5799 3.14211 12.5796 -8.95257
220 1 14.1548 4.7123 14.1544 -8.95042
221 1 15.7248 3.14402 12.5792 -8.94952
222 1 17.2977 4.71628 14.152 -8.95019
223 1 18.8693 3.14448 12.5794 -8.94947
224 1 20.4415 4.71689 14.1519 -8.94977
225 1 22.0131 6.2892 12.5797 -8.95012
226 1 1.57125 7.86179 14.1526 -8.94956
227 1 3.14082 6.28763 12.5812 -8.95087
228 1 4.71411 7.86136 14.154 -8.95118
229 1 6.27722 6.27687 12.5909 -8.93018
230 1 7.85399 7.855 14.1626 -8.98708
231 1 9.43448 6.27312 12.5836 -8.96164
232 1 11.0109 7.85391 14.1635 -8.98032
233 1 12.5858 6.27723 12.5858 -8.9551
234 1 14.1674 7.84762 14.1666 -8.92593
235 1 15.7269 6.28767 12.5794 -8.95066
236 1 17.3011 7.86013 14.1536 -8.9517
237 1 18.8698 6.28911 12.5793 -8.94967
238 1 20.4422 7.86172 14.1522 -8.95029
239 1 22.0132 9.43436 12.5798 -8.94995
240 1 3.14149 9.43425 12.5808 -8.94801
241 1 6.28412 9.43467 12.5824 -8.99909
242 1 9.42861 9.3745 12.5998 -9.18479
243 1 12.6246 9.39238 12.627 -8.88405
244 1 15.7346 9.43225 12.5828 -8.96014
245 1 18.8713 9.43429 12.5796 -8.95186
246 1 -0.000145026 5.68517e-16 15.7243 -8.94962
247 1 1.57208 1.5722 17.2969 -8.94928
248 1 3.14437 1.17677e-15 15.7247 -8.94957
249 1 4.71695 1.57207 17.2971 -8.94962
250 1 6.28942 1.74794e-15 15.7248 -8.94961
251 1 7.862 1.57208 17.2971 -8.94947
252 1 9.43454 2.19088e-15 15.7248 -8.94949
253 1 11.007 1.57205 17.2971 -8.94949
254 1 12.5797 1.74502e-15 15.7248 -8.9496
255 1 14.1521 1.57198 17.2971 -8.94948
256 1 15.7246 8.58843e-16 15.7245 -8.95
257 1 17.297 1.57203 17.297 -8.94953
258 1 18.8692 4.76439e-16 15.7243 -8.94968
259 1 20.4415 1.57229 17.2967 -8.94963
260 1 22.0136 3.14453 15.7245 -8.94958
261 1 1.57207 4.71701 17.2971 -8.94977
262 1 3.14369 3.1438 15.7253 -8.94836
263 1 4.71612 4.71615 17.2982 -8.94926
264 1 6.28894 3.14346 15.7255 -8.94951
265 1 7.86176 4.71636 17.2979 -8.9492
266 1 9.43443 3.14348 15.7253 -8.94908
267 1 11.0069 4.71621 17.2979 -8.94948
268 1 12.58 3.14317 15.7254 -8.94907
269 1 14.1526 4.71577 17.2981 -8.94938
270 1 15.7253 3.14322 15.7252 -8.94955
271 1 17.298 4.71593 17.2978 -8.948
272 1 18.8693 3.14447 15.7244 -8.94982
273 1 20.4418 4.71692 17.297 -8.94957
274 1 -0.000111336 6.28939 15.7246 -8.94977
275 1 1.57207 7.86199 17.2971 -8.94954
276 1 3.14361 6.28918 15.7253 -8.95011
277 1 4.71648 7.86198 17.2978 -8.9493
278 1 6.28648 6.28669 15.729 -8.94947
279 1 7.86176 7.86197 17.2987 -8.95319
280 1 9.43373 6.28723 15.727 -8.94769
281 1 11.0062 7.86115 17.2998 -8.95171
282 1 12.5814 6.28584 15.7287 -8.94828
283 1 14.1543 7.85972 17.3014 -8.95063
284 1 15.729 6.28506 15.7287 -8.94348
285 1 17.2981 7.86137 17.2979 -8.9492
286 1 18.8705 6.28879 15.725 -8.94983
287 1 20.4419 7.86192 17.297 -8.94953
288 1 22.0138 9.43442 15.7247 -8.94963
289 1 3.1437 9.43447 15.7253 -8.94949
290 1 6.28792 9.43479 15.7264 -8.94843
291 1 9.43464 9.43566 15.7234 -8.99627
292 1 12.5849 9.43114 15.7371 -8.95719
293 1 15.7286 9.43302 15.7283 -8.94749
294 1 18.8706 9.43421 15.7251 -8.94938
295 1 22.0138 9.15272e-16 18.8691 -8.94944
296 1 1.57228 1.57229 20.4415 -8.94947
297 1 3.14468 8.17498e-16 18.8692 -8.94962
298 1 4.71718 1.5723 20.4415 -8.94961
299 1 6.28961 1.21076e-15 18.8693 -8.94957
300 1 7.86206 1.57226 20.4415 -8.94959
301 1 9.43451 1.65134e-15 18.8693 -8.9496
302 1 11.007 1.57225 20.4415 -8.94959
303 1 12.5794 1.44397e-15 18.8693 -8.94958
304 1 14.1519 1.57227 20.4415 -8.9496
305 1 15.7244 1.36052e-15 18.8692 -8.94956
306 1 17.2968 1.57227 20.4415 -8.94962
307 1 18.8692 7.17046e-16 18.8692 -8.9495
308 1 20.4416 1.57233 20.4415 -8.94941
309 1 -2.03943e-05 3.14471 18.8692 -8.94961
310 1 1.57231 4.71719 20.4415 -8.94967
311 1 3.14446 3.14447 18.8695 -8.94944
312 1 4.71693 4.71695 20.4416 -8.95
313 1 6.28952 3.14449 18.8694 -8.94954
314 1 7.86191 4.71682 20.4416 -8.94952
315 1 9.43446 3.1444 18.8695 -8.94955
316 1 11.0069 4.71677 20.4416 -8.94955
317 1 12.5794 3.14441 18.8695 -8.94957
318 1 14.152 4.71679 20.4416 -8.94969
319 1 15.7245 3.14435 18.8695 -8.94957
320 1 17.2971 4.71676 20.4416 -8.94948
321 1 18.8694 3.14448 18.8693 -8.94919
322 1 20.4416 4.71715 20.4415 -8.94961
323 1 22.0139 6.28958 18.8692 -8.94957
324 1 1.57227 7.86205 20.4415 -8.94958
325 1 3.14452 6.28956 18.8694 -8.9496
326 1 4.71694 7.86207 20.4417 -8.9496
327 1 6.28925 6.28933 18.87 -8.95074
328 1 7.86185 7.86196 20.4416 -8.95021
329 1 9.43416 6.28893 18.87 -8.94941
330 1 11.0067 7.86169 20.4418 -8.95013
331 1 12.5794 6.28894 18.8703 -8.95
332 1 14.1523 7.86153 20.442 -8.95059
333 1 15.7253 6.28863 18.8704 -8.9497
334 1 17.2972 7.86183 20.4416 -8.94943
335 1 18.8695 6.2894 18.8694 -8.94955
336 1 20.4416 7.86203 20.4415 -8.94959
46 1 9.43429 9.43453 22.0134 -8.94932
5 1 6.28963 8.58427e-16 22.0138 -8.94958
9 1 12.5794 7.04391e-16 22.0138 -8.94959
44 1 3.14452 9.4345 22.0137 -8.94956
39 1 15.725 6.28892 22.0132 -8.94993
17 1 3.14452 3.14453 22.0136 -8.94953
21 1 9.43449 3.14445 22.0136 -8.94956
25 1 15.7244 3.14448 22.0137 -8.94968
27 1 18.8694 3.14455 22.0138 -8.94928
29 1 6.48215e-06 6.28962 22.0138 -8.94957
33 1 6.28927 6.28934 22.0131 -8.95051
1 1 -8.73901e-05 1.22564e-15 22.0138 -8.94939
13 1 18.8692 7.68701e-16 22.0138 -8.94948
23 1 12.5794 3.14447 22.0137 -8.94952
49 1 18.8695 9.43445 22.0137 -8.94956
183 1 1.57104 4.71634 11.0072 -8.94929
344 1 1.57216 11.007 1.57205 -8.9496
345 1 4.71667 11.007 1.57165 -8.94964
346 1 7.86188 11.007 1.57208 -8.94826
347 1 11.0069 11.007 1.57129 -8.94732
348 1 14.1537 11.007 1.56937 -8.9495
349 1 17.2977 11.007 1.57151 -8.94951
350 1 20.4418 11.007 1.57211 -8.94956
351 1 22.0139 12.5794 -0.000109288 -8.9496
352 1 1.5722 14.1518 1.57211 -8.94946
688 3 10.179 11.007 9.46694 2.28221
354 1 4.71686 14.1516 1.57176 -8.94973
355 1 6.28934 12.5793 -0.000275782 -8.94954
356 1 7.8617 14.1521 1.57029 -8.95226
511 1 18.8693 18.8695 9.4345 -8.9496
358 1 11.0067 14.1527 1.57002 -8.95053
510 1 15.7249 18.8699 9.43443 -8.94959
360 1 14.1532 14.1531 1.56953 -8.95127
361 1 15.7251 12.5797 -0.000710084 -8.94938
362 1 17.2977 14.1523 1.57154 -8.9493
538 1 17.297 20.4418 11.0069 -8.94957
364 1 20.4418 14.1519 1.57213 -8.94951
509 1 12.58 18.8702 9.43417 -8.94869
366 1 1.57215 17.2968 1.57208 -8.94981
367 1 3.14462 15.7242 -0.000166615 -8.94972
368 1 4.71636 17.2975 1.57104 -8.94952
508 1 9.43452 18.8705 9.43431 -8.94636
370 1 7.86184 17.2975 1.57132 -8.9492
371 1 9.43427 15.7249 -0.000727999 -8.94962
372 1 11.007 17.2975 1.57141 -8.94938
507 1 6.28745 18.873 9.43423 -8.9495
374 1 14.1523 17.2976 1.57146 -8.94972
506 1 3.14358 18.8702 9.43451 -8.9495
376 1 17.2976 17.2976 1.57159 -8.94849
505 1 -0.000370495 18.8694 9.43452 -8.94955
378 1 20.4417 17.2969 1.57218 -8.94959
504 1 18.8697 15.725 9.43445 -8.94947
380 1 1.5721 20.4417 1.57212 -8.94924
503 1 15.7261 15.7261 9.43425 -8.94658
382 1 4.71707 20.4417 1.57207 -8.94966
383 1 6.28955 18.8694 -0.000263212 -8.94952
384 1 7.86205 20.4418 1.57206 -8.94954
502 1 12.5789 15.7254 9.43331 -8.94732
386 1 11.007 20.4418 1.57206 -8.94956
534 1 4.71631 20.4425 11.0072 -8.94936
388 1 14.1519 20.4418 1.57213 -8.94953
501 1 9.42943 15.7222 9.43397 -9.00651
390 1 17.2969 20.4418 1.57214 -8.94949
500 1 6.27906 15.7352 9.43368 -8.94373
392 1 20.4415 20.4416 1.57232 -8.94959
393 1 1.57168 11.007 4.71643 -8.94947
394 1 4.7156 11.007 4.71523 -8.94611
395 1 7.86442 11.007 4.71913 -8.94611
396 1 11.0108 11.007 4.71859 -8.99422
397 1 14.1607 11.007 4.70862 -8.94248
398 1 17.3001 11.007 4.71545 -8.94919
399 1 20.4422 11.007 4.71675 -8.94986
400 1 -2.21055e-05 12.5794 3.14441 -8.94956
401 1 1.5717 14.1518 4.71668 -8.94978
402 1 3.14411 12.5793 3.14397 -8.94901
403 1 4.71514 14.1518 4.71529 -8.95167
404 1 6.28925 12.5786 3.14376 -8.9494
405 1 7.85687 14.1573 4.70695 -8.95531
406 1 9.43482 12.5794 3.14299 -8.95063
407 1 11.0076 14.156 4.70894 -8.95203
408 1 12.5819 12.5805 3.13756 -8.95808
409 1 14.1625 14.1618 4.7065 -8.93396
410 1 15.7271 12.5804 3.14197 -8.9479
411 1 17.3 14.1534 4.71566 -8.95064
412 1 18.8702 12.5796 3.1441 -8.94935
413 1 20.4421 14.1521 4.71687 -8.95004
414 1 22.0139 15.7244 3.14452 -8.9498
415 1 1.57103 17.2975 4.71634 -8.94948
416 1 3.14394 15.7245 3.14389 -8.95032
417 1 4.71333 17.3005 4.71326 -8.94425
418 1 6.28726 15.7265 3.14058 -8.95029
419 1 7.86117 17.2998 4.7147 -8.94885
420 1 9.43412 15.7263 3.14183 -8.94805
421 1 11.0076 17.2995 4.71501 -8.94775
422 1 12.5803 15.7263 3.14181 -8.94947
423 1 14.1544 17.3006 4.7148 -8.94946
424 1 15.7276 15.7275 3.14161 -8.9455
425 1 17.2976 17.2975 4.71689 -8.95002
426 1 18.8701 15.7249 3.14418 -8.94968
427 1 20.4414 17.297 4.71704 -8.94979
428 1 22.0136 18.8694 3.14454 -8.94951
429 1 1.57201 20.4418 4.717 -8.94955
430 1 3.14373 18.8701 3.14371 -8.94821
431 1 4.71651 20.4424 4.71644 -8.94999
432 1 6.28924 18.8701 3.14382 -8.94962
433 1 7.86204 20.4423 4.71657 -8.94957
434 1 9.43454 18.8701 3.14391 -8.94943
435 1 11.0072 20.4423 4.7166 -8.94954
436 1 12.5797 18.8701 3.14404 -8.94917
437 1 14.1522 20.4423 4.7169 -8.95046
438 1 15.7251 18.8703 3.14399 -8.94937
439 1 17.2969 20.4417 4.71722 -8.94967
440 1 18.8693 18.8694 3.14466 -8.94973
441 1 20.4414 20.4416 4.7172 -8.94958
442 1 1.57133 11.007 7.86145 -8.94744
443 1 4.71817 11.007 7.86185 -8.94019
444 1 7.8831 11.007 7.87042 -8.95431
445 1 11.0771 11.007 7.66896 -8.21636
446 1 14.1602 11.007 7.85581 -8.96864
447 1 17.2992 11.007 7.8623 -8.95115
448 1 20.4418 11.007 7.86203 -8.94956
449 1 22.0136 12.5794 6.28927 -8.94978
450 1 1.56942 14.1525 7.86134 -8.9516
451 1 3.14313 12.5787 6.28866 -8.94975
452 1 4.70538 14.1571 7.85761 -8.95581
453 1 6.28633 12.5768 6.28749 -8.95304
454 1 7.81954 14.1907 7.82486 -8.84486
455 1 9.42295 12.5999 6.2837 -8.91534
456 1 11.0222 14.1635 7.83655 -8.89778
457 1 12.6139 12.6068 6.25659 -8.87618
458 1 14.1572 14.1546 7.86167 -8.95042
459 1 15.7329 12.5814 6.28648 -8.95653
460 1 17.2983 14.1524 7.86255 -8.95051
461 1 18.8711 12.5796 6.28934 -8.95128
462 1 20.4414 14.1521 7.86201 -8.95006
463 1 -0.000956751 15.7247 6.28922 -8.95012
464 1 1.57103 17.2976 7.86179 -8.94942
465 1 3.14043 15.7265 6.28727 -8.95014
466 1 4.71369 17.3004 7.86057 -8.9478
467 1 6.27663 15.737 6.27696 -8.92832
468 1 7.85938 17.3051 7.86027 -8.95961
469 1 9.43386 15.7328 6.28403 -8.94914
470 1 11.0066 17.2993 7.86149 -8.95274
471 1 12.5856 15.734 6.28283 -8.95086
472 1 14.1527 17.2981 7.86225 -8.94903
473 1 15.7267 15.7261 6.28904 -8.95058
474 1 17.2974 17.2974 7.86204 -8.94906
475 1 18.8697 15.7247 6.28962 -8.94993
476 1 20.4414 17.2971 7.862 -8.94956
477 1 22.0135 18.8694 6.28952 -8.94953
478 1 1.57196 20.4418 7.86202 -8.94957
479 1 3.14362 18.8703 6.28901 -8.94927
480 1 4.71629 20.4426 7.8617 -8.94939
481 1 6.28814 18.8726 6.28805 -8.95162
482 1 7.86199 20.4431 7.86187 -8.95143
483 1 9.4348 18.8718 6.28848 -8.95025
484 1 11.0071 20.4422 7.86203 -8.94965
485 1 12.5799 18.8712 6.28921 -8.95214
486 1 14.1523 20.442 7.86203 -8.94942
487 1 15.7247 18.8698 6.2897 -8.94959
488 1 17.2969 20.4417 7.86206 -8.94956
489 1 18.8693 18.8694 6.28963 -8.94948
490 1 20.4415 20.4416 7.86207 -8.9496
491 1 22.0127 12.5795 9.43431 -8.94985
492 1 3.13971 12.5801 9.43322 -8.95064
493 1 6.27522 12.5934 9.42813 -9.00261
494 1 9.35489 12.8283 9.42796 -8.12951
495 1 12.5667 12.5821 9.42422 -8.94018
496 1 15.7232 12.579 9.43487 -8.94419
497 1 18.8695 12.5797 9.43451 -8.94831
498 1 22.0129 15.7248 9.43449 -8.94988
499 1 3.14065 15.7265 9.43448 -8.94937
512 1 1.56952 11.007 11.0072 -8.95122
514 1 7.81823 11.007 10.9713 -9.1334
519 1 1.56972 14.1523 11.0072 -8.95143
532 1 20.4414 17.2971 11.007 -8.94957
527 1 4.71377 17.3001 11.0081 -8.94757
531 1 17.2975 17.2975 11.0068 -8.94909
530 1 14.1528 17.2982 11.0061 -8.94881
373 1 12.5794 15.7248 -0.000677213 -8.9497
377 1 18.8694 15.7244 -0.000181451 -8.94956
379 1 22.0139 18.8692 -9.83999e-05 -8.94962
687 2 9.45065 11.007 11.7465 0.66367
513 1 4.70672 11.007 11.0057 -8.96096
686 1 20.4416 20.4416 20.4415 -8.94941
515 1 11.1838 11.007 11.193 -8.37851
516 1 14.1528 11.007 11.0152 -8.99228
517 1 17.2984 11.007 11.0065 -8.94857
518 1 20.4415 11.007 11.0069 -8.94968
685 1 18.8694 18.8694 18.8693 -8.94919
520 1 4.70651 14.1554 11.0094 -8.9583
521 1 7.8196 14.19 11.0391 -8.90194
522 1 11.0264 14.1627 11.0269 -8.95527
523 1 14.1568 14.154 11.0049 -8.95324
524 1 17.2986 14.1526 11.0063 -8.9498
525 1 20.4415 14.1522 11.0069 -8.94993
684 1 17.2968 20.4416 20.4415 -8.94962
683 1 15.7245 18.8696 18.8695 -8.94957
528 1 7.85881 17.3058 11.0074 -8.9578
529 1 11.0072 17.3002 11.006 -8.95049
391 1 18.8694 18.8693 22.0138 -8.94928
682 1 14.1519 20.4416 20.4415 -8.9496
681 1 12.5794 18.8695 18.8695 -8.94957
533 1 1.57196 20.4418 11.007 -8.94955
680 1 11.007 20.4416 20.4415 -8.94959
535 1 7.86184 20.4433 11.0069 -8.95141
536 1 11.0073 20.4425 11.0067 -8.9496
537 1 14.1523 20.442 11.0068 -8.94942
679 1 9.43446 18.8695 18.8695 -8.94955
539 1 20.4415 20.4416 11.007 -8.9496
540 1 1.57128 11.007 14.1527 -8.9494
541 1 4.71458 11.007 14.1534 -8.94752
542 1 7.85988 11.007 14.1535 -8.98079
543 1 11.0209 11.007 14.1664 -9.03483
544 1 14.1643 11.007 14.1639 -8.94321
545 1 17.3012 11.007 14.154 -8.94939
546 1 20.4423 11.007 14.1523 -8.95
547 1 22.0132 12.5795 12.5798 -8.94995
548 1 1.57125 14.1521 14.1526 -8.94956
549 1 3.14149 12.5796 12.5808 -8.94801
550 1 4.71411 14.1525 14.154 -8.95118
551 1 6.28412 12.5792 12.5824 -8.99909
552 1 7.85399 14.1589 14.1626 -8.98708
553 1 9.42861 12.6394 12.5998 -9.18479
554 1 11.0109 14.16 14.1635 -8.98032
555 1 12.6246 12.6215 12.627 -8.88405
556 1 14.1674 14.1663 14.1666 -8.92593
557 1 15.7346 12.5817 12.5828 -8.96014
558 1 17.3011 14.1538 14.1536 -8.9517
559 1 18.8713 12.5796 12.5796 -8.95186
560 1 20.4422 14.1522 14.1522 -8.95029
561 1 22.0131 15.7247 12.5797 -8.95012
562 1 1.57111 17.2975 14.1526 -8.94971
563 1 3.14082 15.7263 12.5812 -8.95087
564 1 4.71333 17.3005 14.1555 -8.94485
565 1 6.27722 15.737 12.5909 -8.93018
566 1 7.86047 17.3009 14.1547 -8.94806
567 1 9.43448 15.7408 12.5836 -8.96164
568 1 11.0081 17.3014 14.1548 -8.94696
569 1 12.5858 15.7367 12.5858 -8.9551
570 1 14.1548 17.3016 14.1544 -8.95042
571 1 15.7269 15.7262 12.5794 -8.95066
572 1 17.2977 17.2976 14.152 -8.95019
573 1 18.8698 15.7248 12.5793 -8.94967
574 1 20.4415 17.297 14.1519 -8.94977
575 1 -0.000355527 18.8694 12.5795 -8.9495
576 1 1.57201 20.4418 14.152 -8.94957
577 1 3.14366 18.8702 12.5799 -8.94927
578 1 4.71646 20.4425 14.1526 -8.94997
579 1 6.2881 18.8727 12.5808 -8.95141
580 1 7.86187 20.4426 14.1526 -8.94972
581 1 9.43479 18.8732 12.5803 -8.95271
582 1 11.0074 20.4427 14.1526 -8.94981
583 1 12.5799 18.8718 12.5796 -8.95257
584 1 14.1523 20.4425 14.1521 -8.95062
585 1 15.7248 18.8699 12.5792 -8.94952
586 1 17.2969 20.4417 14.1518 -8.94967
587 1 18.8693 18.8694 12.5794 -8.94947
588 1 20.4415 20.4416 14.1518 -8.94957
589 1 1.57201 11.007 17.2972 -8.94956
590 1 4.71632 11.007 17.2978 -8.94901
591 1 7.86186 11.007 17.2975 -8.95001
592 1 11.0069 11.007 17.3009 -8.95196
593 1 14.1546 11.007 17.3015 -8.94875
594 1 17.2982 11.007 17.298 -8.94935
595 1 20.4419 11.007 17.2971 -8.94957
596 1 22.0138 12.5795 15.7247 -8.94963
597 1 1.57207 14.1519 17.2971 -8.94954
598 1 3.1437 12.5794 15.7253 -8.94949
599 1 4.71648 14.1519 17.2978 -8.9493
600 1 6.28792 12.5791 15.7264 -8.94843
601 1 7.86176 14.1519 17.2987 -8.95319
602 1 9.43464 12.5782 15.7234 -8.99627
603 1 11.0062 14.1527 17.2998 -8.95171
604 1 12.5849 12.5828 15.7371 -8.95719
605 1 14.1543 14.1542 17.3014 -8.95063
606 1 15.7286 12.5809 15.7283 -8.94749
607 1 17.2981 14.1525 17.2979 -8.9492
608 1 18.8706 12.5797 15.7251 -8.94938
609 1 20.4419 14.152 17.297 -8.94953
610 1 -0.000111336 15.7245 15.7246 -8.94977
611 1 1.57207 17.2969 17.2971 -8.94977
612 1 3.14361 15.7247 15.7253 -8.95011
613 1 4.71612 17.2977 17.2982 -8.94926
614 1 6.28648 15.7272 15.729 -8.94947
615 1 7.86176 17.2975 17.2979 -8.9492
616 1 9.43373 15.7267 15.727 -8.94769
617 1 11.0069 17.2977 17.2979 -8.94948
618 1 12.5814 15.7281 15.7287 -8.94828
619 1 14.1526 17.2981 17.2981 -8.94938
620 1 15.729 15.7288 15.7287 -8.94348
621 1 17.298 17.298 17.2978 -8.948
622 1 18.8705 15.7251 15.725 -8.94983
623 1 20.4418 17.297 17.297 -8.94957
624 1 22.0136 18.8694 15.7245 -8.94958
625 1 1.57208 20.4417 17.2969 -8.94928
626 1 3.14369 18.8701 15.7253 -8.94836
627 1 4.71695 20.4418 17.2971 -8.94962
628 1 6.28894 18.8704 15.7255 -8.94951
629 1 7.862 20.4418 17.2971 -8.94947
630 1 9.43443 18.8704 15.7253 -8.94908
631 1 11.007 20.4418 17.2971 -8.94949
632 1 12.58 18.8707 15.7254 -8.94907
633 1 14.1521 20.4419 17.2971 -8.94948
634 1 15.7253 18.8707 15.7252 -8.94955
635 1 17.297 20.4419 17.297 -8.94953
636 1 18.8693 18.8694 15.7244 -8.94982
637 1 20.4415 20.4416 17.2967 -8.94963
638 1 1.57225 11.007 20.4416 -8.94961
639 1 4.71686 11.007 20.4417 -8.94965
640 1 7.86179 11.007 20.4417 -8.94937
641 1 11.0066 11.007 20.4422 -8.94962
642 1 14.1526 11.007 20.442 -8.95017
643 1 17.2973 11.007 20.4417 -8.9495
644 1 20.4416 11.007 20.4415 -8.9496
645 1 -2.36649e-05 12.5794 18.8693 -8.94959
646 1 1.57227 14.1519 20.4415 -8.94958
647 1 3.14443 12.5794 18.8695 -8.94955
648 1 4.71694 14.1518 20.4417 -8.9496
649 1 6.28918 12.5793 18.8698 -8.9498
650 1 7.86185 14.1519 20.4416 -8.95021
651 1 9.4341 12.5795 18.8699 -8.94794
652 1 11.0067 14.1522 20.4418 -8.95013
653 1 12.5799 12.5798 18.8719 -8.95211
654 1 14.1523 14.1524 20.442 -8.95059
655 1 15.7254 12.5798 18.8705 -8.94929
656 1 17.2972 14.1521 20.4416 -8.94943
657 1 18.8696 12.5795 18.8695 -8.94953
658 1 20.4416 14.1519 20.4415 -8.94959
659 1 22.0139 15.7243 18.8692 -8.94957
660 1 1.57231 17.2967 20.4415 -8.94967
661 1 3.14452 15.7243 18.8694 -8.9496
662 1 4.71693 17.2969 20.4416 -8.95
663 1 6.28925 15.7246 18.87 -8.95074
664 1 7.86191 17.2971 20.4416 -8.94952
665 1 9.43416 15.725 18.87 -8.94941
666 1 11.0069 17.2971 20.4416 -8.94955
667 1 12.5794 15.725 18.8703 -8.95
668 1 14.152 17.2971 20.4416 -8.94969
669 1 15.7253 15.7253 18.8704 -8.9497
670 1 17.2971 17.2971 20.4416 -8.94948
671 1 18.8695 15.7245 18.8694 -8.94955
672 1 20.4416 17.2968 20.4415 -8.94961
673 1 -2.03943e-05 18.8692 18.8692 -8.94961
674 1 1.57228 20.4416 20.4415 -8.94947
675 1 3.14446 18.8694 18.8695 -8.94944
676 1 4.71718 20.4416 20.4415 -8.94961
677 1 6.28952 18.8694 18.8694 -8.94954
678 1 7.86206 20.4416 20.4415 -8.94959
353 1 3.14452 12.5794 22.0137 -8.94956
357 1 9.43429 12.5794 22.0134 -8.94932
359 1 12.5795 12.5795 22.0128 -8.95142
365 1 6.48215e-06 15.7243 22.0138 -8.94957
369 1 6.28927 15.7246 22.0131 -8.95051
389 1 15.7244 18.8694 22.0137 -8.94968
375 1 15.725 15.725 22.0132 -8.94993
385 1 9.43449 18.8694 22.0136 -8.94956
381 1 3.14452 18.8694 22.0136 -8.94953
363 1 18.8695 12.5795 22.0137 -8.94956
387 1 12.5794 18.8694 22.0137 -8.94952
526 1 1.57104 17.2976 11.0072 -8.94929
