ITEM: TIMESTEP
43
ITEM: NUMBER OF ATOMS
688
ITEM: BOX BOUNDS pp pp pp
0.0000000000000000e+00 2.2013900999999997e+01
0.0000000000000000e+00 2.2013900999999997e+01
0.0000000000000000e+00 2.2013900999999997e+01
ITEM: ATOMS id type x y z c_pot
190 1 1.57242 7.86211 11.007 -8.94968
2 1 1.57242 1.57242 1.57242 -8.94963
175 1 18.8691 9.43453 9.43453 -8.94966
4 1 4.71726 1.57242 1.57242 -8.94963
174 1 15.7244 9.43442 9.4345 -8.94941
6 1 7.86211 1.57242 1.57242 -8.94963
7 1 9.43453 -2.2499e-17 -9.2146e-10 -8.94963
8 1 11.007 1.57242 1.57242 -8.94963
173 1 12.5822 9.43121 9.4346 -8.95127
10 1 14.1518 1.57242 1.57242 -8.94963
172 1 9.37889 9.31309 9.43009 -8.049
12 1 17.2966 1.57242 1.57242 -8.94963
189 1 20.4415 4.71726 11.007 -8.94963
14 1 20.4415 1.57242 1.57242 -8.94963
171 1 6.28747 9.43373 9.4345 -8.99994
16 1 1.57242 4.71726 1.57242 -8.94963
170 1 3.14476 9.43451 9.43451 -8.94995
18 1 4.71726 4.71726 1.57242 -8.94963
19 1 6.28969 3.14484 3.06514e-08 -8.94963
20 1 7.86211 4.71726 1.57242 -8.94963
169 1 22.0139 9.43453 9.43453 -8.94965
22 1 11.007 4.71726 1.57242 -8.94963
188 1 17.2966 4.71727 11.007 -8.94964
24 1 14.1518 4.71726 1.57242 -8.94964
168 1 18.8691 6.28969 9.43453 -8.94963
26 1 17.2966 4.71726 1.57242 -8.94963
167 1 15.7242 6.28969 9.43453 -8.94967
28 1 20.4415 4.71726 1.57242 -8.94963
166 1 12.5793 6.28962 9.43453 -8.95119
30 1 1.57242 7.86211 1.57242 -8.94963
31 1 3.14484 6.28969 3.35457e-08 -8.94963
32 1 4.71726 7.86211 1.57242 -8.94963
165 1 9.43443 6.28517 9.43451 -8.97154
34 1 7.8621 7.8621 1.57241 -8.94964
35 1 9.43453 6.28969 2.66984e-07 -8.94963
36 1 11.0069 7.86211 1.57242 -8.94965
164 1 6.28969 6.28967 9.43453 -8.95158
38 1 14.1518 7.8621 1.57241 -8.94962
163 1 3.14484 6.28969 9.43453 -8.94964
40 1 17.2966 7.86211 1.57242 -8.94964
162 1 22.0139 6.28969 9.43453 -8.94963
42 1 20.4415 7.86211 1.57242 -8.94963
43 1 22.0139 9.43453 -7.67317e-10 -8.94963
161 1 18.8691 3.14484 9.43453 -8.94963
45 1 6.28969 9.43453 3.95417e-07 -8.94964
160 1 15.7242 3.14484 9.43453 -8.94963
159 1 12.5794 3.14484 9.43453 -8.94967
48 1 15.7242 9.43453 3.8066e-07 -8.94963
184 1 4.71727 4.71727 11.0069 -8.94977
50 1 7.48794e-10 1.14044e-15 3.14484 -8.94963
51 1 1.57242 1.57242 4.71726 -8.94963
52 1 3.14484 8.10603e-16 3.14484 -8.94963
53 1 4.71726 1.57242 4.71726 -8.94963
54 1 6.28969 6.64093e-17 3.14484 -8.94963
55 1 7.86211 1.57242 4.71726 -8.94963
56 1 9.43453 4.43951e-16 3.14484 -8.94963
57 1 11.007 1.57242 4.71726 -8.94963
58 1 12.5794 -5.15705e-16 3.14484 -8.94963
59 1 14.1518 1.57242 4.71726 -8.94963
60 1 15.7242 8.28499e-17 3.14484 -8.94963
61 1 17.2966 1.57242 4.71726 -8.94963
62 1 18.8691 6.78973e-16 3.14484 -8.94963
63 1 20.4415 1.57242 4.71726 -8.94963
64 1 22.0139 3.14484 3.14484 -8.94963
65 1 1.57242 4.71726 4.71726 -8.94963
66 1 3.14484 3.14484 3.14484 -8.94963
67 1 4.71726 4.71726 4.71726 -8.94954
68 1 6.28969 3.14484 3.14484 -8.94964
69 1 7.86211 4.71727 4.71727 -8.9498
70 1 9.43453 3.14484 3.14484 -8.94963
71 1 11.0069 4.71727 4.71726 -8.94965
72 1 12.5794 3.14484 3.14484 -8.94963
73 1 14.1518 4.71726 4.71726 -8.94963
74 1 15.7242 3.14484 3.14484 -8.94963
75 1 17.2966 4.71726 4.71726 -8.94964
76 1 18.8691 3.14484 3.14484 -8.94963
77 1 20.4415 4.71726 4.71726 -8.94963
78 1 22.0139 6.28969 3.14484 -8.94963
79 1 1.57242 7.86211 4.71726 -8.94963
80 1 3.14484 6.28969 3.14484 -8.94964
81 1 4.71727 7.8621 4.71727 -8.94973
82 1 6.28968 6.28968 3.14483 -8.94964
83 1 7.86203 7.86204 4.71706 -8.95024
84 1 9.43453 6.28969 3.14485 -8.94965
85 1 11.0069 7.86216 4.71725 -8.95125
86 1 12.5794 6.28969 3.14485 -8.94979
87 1 14.152 7.86191 4.71707 -8.94754
88 1 15.7242 6.28968 3.14484 -8.94954
89 1 17.2966 7.8621 4.71726 -8.94964
90 1 18.8691 6.28969 3.14484 -8.94963
91 1 20.4415 7.86211 4.71726 -8.94963
92 1 1.79377e-08 9.43453 3.14484 -8.94963
93 1 3.14484 9.43453 3.14484 -8.94964
94 1 6.28968 9.43453 3.14484 -8.94969
95 1 9.43444 9.43444 3.14472 -8.94916
96 1 12.5795 9.43443 3.14463 -8.95
97 1 15.7242 9.43453 3.14485 -8.94977
98 1 18.8691 9.43453 3.14484 -8.94963
99 1 22.0139 1.32741e-15 6.28969 -8.94963
100 1 1.57242 1.57242 7.86211 -8.94963
101 1 3.14484 5.44049e-16 6.28969 -8.94963
102 1 4.71726 1.57242 7.86211 -8.94963
103 1 6.28969 3.69377e-16 6.28969 -8.94963
104 1 7.86211 1.57241 7.86211 -8.94967
105 1 9.43453 2.51281e-16 6.28969 -8.94963
106 1 11.007 1.57242 7.86211 -8.94964
107 1 12.5794 4.3202e-16 6.28969 -8.94963
108 1 14.1518 1.57242 7.86211 -8.94964
109 1 15.7242 1.429e-15 6.28969 -8.94963
110 1 17.2966 1.57242 7.86211 -8.94963
111 1 18.8691 8.40201e-16 6.28969 -8.94963
112 1 20.4415 1.57242 7.86211 -8.94963
113 1 22.0139 3.14484 6.28969 -8.94963
114 1 1.57242 4.71726 7.86211 -8.94963
115 1 3.14484 3.14484 6.28969 -8.94964
116 1 4.71727 4.71727 7.86211 -8.94977
117 1 6.28968 3.14483 6.28968 -8.94962
118 1 7.86201 4.71704 7.86201 -8.95008
119 1 9.43453 3.14484 6.28969 -8.94964
120 1 11.007 4.71714 7.86202 -8.94916
121 1 12.5794 3.14483 6.28968 -8.94964
122 1 14.1518 4.71726 7.86211 -8.9497
123 1 15.7242 3.14484 6.28969 -8.94963
124 1 17.2966 4.71727 7.86211 -8.94964
125 1 18.8691 3.14484 6.28969 -8.94963
126 1 20.4415 4.71726 7.86211 -8.94963
127 1 -1.96721e-07 6.28969 6.28969 -8.94963
128 1 1.57242 7.86211 7.86211 -8.94966
129 1 3.14484 6.28968 6.28968 -8.94965
130 1 4.71709 7.86207 7.86206 -8.95044
131 1 6.28948 6.28948 6.28947 -8.94739
132 1 7.85732 7.85752 7.85731 -8.9041
133 1 9.43457 6.28968 6.28973 -8.95133
134 1 11.0087 7.8609 7.86021 -8.93535
135 1 12.5795 6.28948 6.28961 -8.95011
136 1 14.152 7.86199 7.86203 -8.94921
137 1 15.7242 6.28969 6.28968 -8.94971
138 1 17.2966 7.8621 7.8621 -8.94963
139 1 18.8691 6.28969 6.28969 -8.94963
140 1 20.4415 7.86211 7.86211 -8.94963
141 1 22.0139 9.43453 6.28969 -8.94964
142 1 3.14484 9.43453 6.28968 -8.94966
143 1 6.28954 9.43448 6.28959 -8.94941
144 1 9.43299 9.43284 6.28851 -8.93842
145 1 12.5839 9.43004 6.28538 -8.90753
146 1 15.7244 9.43448 6.28964 -8.95042
147 1 18.8691 9.43453 6.28969 -8.94967
148 1 6.58912e-10 7.17061e-16 9.43453 -8.94963
149 1 3.14484 7.58101e-16 9.43453 -8.94963
150 1 6.28969 5.79093e-16 9.43453 -8.94963
151 1 9.43453 5.57471e-16 9.43453 -8.94971
152 1 12.5794 6.21192e-16 9.43453 -8.94963
153 1 15.7242 1.21892e-15 9.43453 -8.94963
154 1 18.8691 1.73558e-16 9.43453 -8.94963
155 1 5.75192e-10 3.14484 9.43453 -8.94963
156 1 3.14484 3.14484 9.43453 -8.94964
157 1 6.28969 3.14484 9.43453 -8.94962
158 1 9.43453 3.14469 9.43453 -8.95082
177 1 4.71726 1.57242 11.007 -8.94963
181 1 17.2966 1.57242 11.007 -8.94963
187 1 14.1518 4.71726 11.0069 -8.94971
3 1 3.14484 1.08657e-15 7.31475e-10 -8.94963
11 1 15.7242 3.80004e-16 1.17094e-09 -8.94963
15 1 22.0139 3.14484 3.18457e-10 -8.94963
41 1 18.8691 6.28969 1.34648e-08 -8.94963
37 1 12.5794 6.28969 2.98118e-07 -8.94963
176 1 1.57242 1.57242 11.007 -8.94963
343 1 18.8691 9.43453 18.8691 -8.94963
178 1 7.8621 1.57241 11.007 -8.94967
179 1 11.007 1.57242 11.007 -8.94964
180 1 14.1518 1.57242 11.007 -8.94964
342 1 15.7242 9.43453 18.8691 -8.94964
182 1 20.4415 1.57242 11.007 -8.94963
341 1 12.5794 9.43452 18.8691 -8.94968
340 1 9.43453 9.43452 18.869 -8.94936
185 1 7.86199 4.71702 11.007 -8.94977
186 1 11.0071 4.71712 11.007 -8.94887
47 1 12.5794 9.43453 22.0139 -8.94967
339 1 6.28968 9.43453 18.8691 -8.94965
338 1 3.14484 9.43453 18.8691 -8.94964
337 1 1.7798e-08 9.43453 18.8691 -8.94963
191 1 4.71712 7.86209 11.007 -8.95089
192 1 7.8575 7.85784 11.0111 -8.96159
193 1 11.0085 7.86114 11.0082 -8.99173
194 1 14.152 7.86198 11.007 -8.94973
195 1 17.2966 7.86211 11.007 -8.94966
196 1 20.4415 7.86211 11.007 -8.94963
197 1 22.0139 5.06992e-16 12.5794 -8.94963
198 1 1.57242 1.57242 14.1518 -8.94963
199 1 3.14484 5.02209e-16 12.5794 -8.94963
200 1 4.71726 1.57242 14.1518 -8.94963
201 1 6.28969 8.03272e-16 12.5794 -8.94963
202 1 7.86211 1.57242 14.1518 -8.94963
203 1 9.43453 5.82324e-16 12.5794 -8.94965
204 1 11.007 1.57242 14.1518 -8.94963
205 1 12.5794 2.66041e-16 12.5794 -8.94963
206 1 14.1518 1.57242 14.1518 -8.94963
207 1 15.7242 7.24025e-16 12.5794 -8.94963
208 1 17.2966 1.57242 14.1518 -8.94963
209 1 18.8691 -1.31445e-16 12.5794 -8.94963
210 1 20.4415 1.57242 14.1518 -8.94963
211 1 1.38363e-08 3.14484 12.5794 -8.94963
212 1 1.57242 4.71726 14.1518 -8.94963
213 1 3.14484 3.14484 12.5794 -8.94964
214 1 4.71726 4.71726 14.1518 -8.94956
215 1 6.28968 3.14484 12.5794 -8.94963
216 1 7.86209 4.71727 14.1518 -8.94947
217 1 9.43453 3.14481 12.5794 -8.95
218 1 11.007 4.71727 14.1518 -8.94933
219 1 12.5794 3.14484 12.5794 -8.94965
220 1 14.1518 4.71726 14.1518 -8.94966
221 1 15.7242 3.14484 12.5794 -8.94963
222 1 17.2966 4.71726 14.1518 -8.94964
223 1 18.8691 3.14484 12.5794 -8.94963
224 1 20.4415 4.71726 14.1518 -8.94963
225 1 22.0139 6.28969 12.5794 -8.94963
226 1 1.57242 7.86211 14.1518 -8.94962
227 1 3.14484 6.28968 12.5794 -8.94965
228 1 4.71725 7.8621 14.1518 -8.94977
229 1 6.28952 6.28952 12.5796 -8.948
230 1 7.86159 7.86242 14.152 -8.98865
231 1 9.43457 6.28843 12.5793 -8.95805
232 1 11.0074 7.86254 14.1518 -8.98962
233 1 12.5794 6.28952 12.5794 -8.95075
234 1 14.152 7.8619 14.152 -8.94747
235 1 15.7242 6.28969 12.5794 -8.94971
236 1 17.2966 7.8621 14.1518 -8.94964
237 1 18.8691 6.28969 12.5794 -8.94963
238 1 20.4415 7.86211 14.1518 -8.94963
239 1 22.0139 9.43453 12.5794 -8.94963
240 1 3.14481 9.4345 12.5794 -8.94938
241 1 6.28958 9.43439 12.5799 -9.00366
242 1 9.43321 9.40697 12.5933 -9.22555
243 1 12.584 9.42972 12.5843 -8.95783
244 1 15.7244 9.43445 12.5794 -8.95016
245 1 18.8691 9.43453 12.5794 -8.94967
246 1 1.09122e-09 6.61691e-16 15.7242 -8.94963
247 1 1.57242 1.57242 17.2966 -8.94963
248 1 3.14484 7.5293e-17 15.7242 -8.94963
249 1 4.71726 1.57242 17.2966 -8.94963
250 1 6.28969 3.24527e-16 15.7242 -8.94963
251 1 7.86211 1.57242 17.2966 -8.94963
252 1 9.43453 4.09886e-16 15.7242 -8.94963
253 1 11.007 1.57242 17.2966 -8.94963
254 1 12.5794 5.77237e-16 15.7242 -8.94963
255 1 14.1518 1.57242 17.2966 -8.94963
256 1 15.7242 2.32446e-16 15.7242 -8.94963
257 1 17.2966 1.57242 17.2966 -8.94963
258 1 18.8691 2.72102e-16 15.7242 -8.94963
259 1 20.4415 1.57242 17.2966 -8.94963
260 1 22.0139 3.14484 15.7242 -8.94963
261 1 1.57242 4.71726 17.2966 -8.94963
262 1 3.14484 3.14484 15.7242 -8.94963
263 1 4.71727 4.71726 17.2966 -8.94964
264 1 6.28969 3.14484 15.7242 -8.94963
265 1 7.86211 4.71727 17.2966 -8.94965
266 1 9.43453 3.14485 15.7242 -8.94962
267 1 11.0069 4.71727 17.2966 -8.94965
268 1 12.5794 3.14484 15.7242 -8.94962
269 1 14.1518 4.71727 17.2966 -8.94965
270 1 15.7242 3.14484 15.7242 -8.94963
271 1 17.2966 4.71726 17.2966 -8.94963
272 1 18.8691 3.14484 15.7242 -8.94963
273 1 20.4415 4.71726 17.2966 -8.94963
274 1 2.47136e-08 6.28969 15.7242 -8.94963
275 1 1.57242 7.86211 17.2966 -8.94963
276 1 3.14484 6.28969 15.7242 -8.94964
277 1 4.71726 7.8621 17.2966 -8.94957
278 1 6.28969 6.28969 15.7242 -8.94965
279 1 7.86214 7.86214 17.2966 -8.94991
280 1 9.43453 6.28978 15.7241 -8.95033
281 1 11.0069 7.86215 17.2966 -8.94993
282 1 12.5794 6.2897 15.7242 -8.94981
283 1 14.1518 7.86209 17.2967 -8.94955
284 1 15.7242 6.28968 15.7242 -8.94954
285 1 17.2966 7.86211 17.2966 -8.94964
286 1 18.8691 6.28969 15.7242 -8.94963
287 1 20.4415 7.86211 17.2966 -8.94963
288 1 22.0139 9.43453 15.7242 -8.94963
289 1 3.14484 9.43453 15.7242 -8.94967
290 1 6.28953 9.43441 15.7244 -8.94884
291 1 9.43444 9.43512 15.7235 -8.99752
292 1 12.5796 9.43431 15.7246 -8.9491
293 1 15.7242 9.43453 15.7242 -8.94979
294 1 18.8691 9.43453 15.7242 -8.94964
295 1 22.0139 6.28508e-17 18.8691 -8.94963
296 1 1.57242 1.57242 20.4415 -8.94963
297 1 3.14484 2.69911e-16 18.8691 -8.94963
298 1 4.71726 1.57242 20.4415 -8.94963
299 1 6.28969 6.87594e-16 18.8691 -8.94963
300 1 7.86211 1.57242 20.4415 -8.94963
301 1 9.43453 5.45938e-16 18.8691 -8.94963
302 1 11.007 1.57242 20.4415 -8.94963
303 1 12.5794 2.08881e-16 18.8691 -8.94963
304 1 14.1518 1.57242 20.4415 -8.94963
305 1 15.7242 1.06832e-15 18.8691 -8.94963
306 1 17.2966 1.57242 20.4415 -8.94963
307 1 18.8691 1.09975e-15 18.8691 -8.94963
308 1 20.4415 1.57242 20.4415 -8.94963
309 1 2.6906e-09 3.14484 18.8691 -8.94963
310 1 1.57242 4.71726 20.4415 -8.94963
311 1 3.14484 3.14484 18.8691 -8.94963
312 1 4.71726 4.71726 20.4415 -8.94963
313 1 6.28969 3.14484 18.8691 -8.94963
314 1 7.86211 4.71726 20.4415 -8.94963
315 1 9.43453 3.14484 18.8691 -8.94963
316 1 11.007 4.71726 20.4415 -8.94963
317 1 12.5794 3.14484 18.8691 -8.94963
318 1 14.1518 4.71726 20.4415 -8.94963
319 1 15.7242 3.14484 18.8691 -8.94963
320 1 17.2966 4.71726 20.4415 -8.94963
321 1 18.8691 3.14484 18.8691 -8.94963
322 1 20.4415 4.71726 20.4415 -8.94963
323 1 22.0139 6.28969 18.8691 -8.94963
324 1 1.57242 7.86211 20.4415 -8.94963
325 1 3.14484 6.28969 18.8691 -8.94963
326 1 4.71726 7.86211 20.4415 -8.94963
327 1 6.28969 6.28969 18.8691 -8.94965
328 1 7.86211 7.86211 20.4415 -8.94963
329 1 9.43453 6.28968 18.8691 -8.94961
330 1 11.0069 7.86211 20.4415 -8.94963
331 1 12.5794 6.28969 18.8691 -8.94965
332 1 14.1518 7.86211 20.4415 -8.94963
333 1 15.7242 6.28969 18.8691 -8.94963
334 1 17.2966 7.86211 20.4415 -8.94963
335 1 18.8691 6.28969 18.8691 -8.94963
336 1 20.4415 7.86211 20.4415 -8.94963
46 1 9.43453 9.43453 22.0139 -8.94963
5 1 6.28969 7.29312e-16 22.0139 -8.94963
9 1 12.5794 2.51877e-16 22.0139 -8.94963
44 1 3.14484 9.43453 22.0139 -8.94963
39 1 15.7242 6.28969 22.0139 -8.94963
17 1 3.14484 3.14484 22.0139 -8.94963
21 1 9.43453 3.14484 22.0139 -8.94963
25 1 15.7242 3.14484 22.0139 -8.94963
27 1 18.8691 3.14484 22.0139 -8.94963
29 1 -3.51276e-10 6.28969 22.0139 -8.94963
33 1 6.28969 6.28969 22.0139 -8.94963
1 1 -9.86773e-11 6.05616e-16 22.0139 -8.94963
13 1 18.8691 8.85441e-16 22.0139 -8.94963
23 1 12.5794 3.14484 22.0139 -8.94963
49 1 18.8691 9.43453 22.0139 -8.94963
183 1 1.57242 4.71726 11.007 -8.94963
344 1 1.57242 11.007 1.57242 -8.94963
345 1 4.71726 11.007 1.57242 -8.94963
346 1 7.86211 11.007 1.57242 -8.94967
347 1 11.0069 11.007 1.57227 -8.9508
348 1 14.1518 11.007 1.57242 -8.94963
349 1 17.2966 11.007 1.57242 -8.94964
350 1 20.4415 11.007 1.57242 -8.94963
351 1 22.0139 12.5794 -7.67317e-10 -8.94963
352 1 1.57242 14.1518 1.57242 -8.94963
688 3 10.2184 11.007 9.43628 3.27555
354 1 4.71726 14.1518 1.57242 -8.94963
355 1 6.28969 12.5794 3.95417e-07 -8.94964
356 1 7.8621 14.1518 1.57241 -8.94964
511 1 18.8691 18.8691 9.43453 -8.94963
358 1 11.0069 14.1518 1.57242 -8.94965
510 1 15.7242 18.8691 9.43453 -8.94963
360 1 14.1518 14.1518 1.57241 -8.94962
361 1 15.7242 12.5794 3.8066e-07 -8.94963
362 1 17.2966 14.1518 1.57242 -8.94964
538 1 17.2966 20.4415 11.007 -8.94963
364 1 20.4415 14.1518 1.57242 -8.94963
509 1 12.5794 18.8691 9.43453 -8.94967
366 1 1.57242 17.2966 1.57242 -8.94963
367 1 3.14484 15.7242 3.35457e-08 -8.94963
368 1 4.71726 17.2966 1.57242 -8.94963
508 1 9.43453 18.8692 9.43453 -8.95082
370 1 7.86211 17.2966 1.57242 -8.94963
371 1 9.43453 15.7242 2.66984e-07 -8.94963
372 1 11.007 17.2966 1.57242 -8.94963
507 1 6.28969 18.8691 9.43453 -8.94962
374 1 14.1518 17.2966 1.57242 -8.94964
506 1 3.14484 18.8691 9.43453 -8.94964
376 1 17.2966 17.2966 1.57242 -8.94963
505 1 5.75192e-10 18.8691 9.43453 -8.94963
378 1 20.4415 17.2966 1.57242 -8.94963
504 1 18.8691 15.7242 9.43453 -8.94963
380 1 1.57242 20.4415 1.57242 -8.94963
503 1 15.7242 15.7242 9.43453 -8.94967
382 1 4.71726 20.4415 1.57242 -8.94963
383 1 6.28969 18.8691 3.06514e-08 -8.94963
384 1 7.86211 20.4415 1.57242 -8.94963
502 1 12.5793 15.7243 9.43453 -8.95119
386 1 11.007 20.4415 1.57242 -8.94963
534 1 4.71726 20.4415 11.007 -8.94963
388 1 14.1518 20.4415 1.57242 -8.94963
501 1 9.43443 15.7287 9.43451 -8.97154
390 1 17.2966 20.4415 1.57242 -8.94963
500 1 6.28969 15.7242 9.43453 -8.95158
392 1 20.4415 20.4415 1.57242 -8.94963
393 1 1.57242 11.007 4.71726 -8.94963
394 1 4.71727 11.007 4.71727 -8.94963
395 1 7.86216 11.007 4.71724 -8.95085
396 1 11.007 11.007 4.71278 -8.97066
397 1 14.1518 11.007 4.71727 -8.95143
398 1 17.2966 11.007 4.71726 -8.94961
399 1 20.4415 11.007 4.71726 -8.94963
400 1 1.79377e-08 12.5794 3.14484 -8.94963
401 1 1.57242 14.1518 4.71726 -8.94963
402 1 3.14484 12.5794 3.14484 -8.94964
403 1 4.71727 14.1518 4.71727 -8.94973
404 1 6.28968 12.5794 3.14484 -8.94969
405 1 7.86203 14.1519 4.71706 -8.95024
406 1 9.43444 12.5795 3.14472 -8.94916
407 1 11.0069 14.1517 4.71725 -8.95125
408 1 12.5795 12.5795 3.14463 -8.95
409 1 14.152 14.152 4.71707 -8.94754
410 1 15.7242 12.5794 3.14485 -8.94977
411 1 17.2966 14.1518 4.71726 -8.94964
412 1 18.8691 12.5794 3.14484 -8.94963
413 1 20.4415 14.1518 4.71726 -8.94963
414 1 22.0139 15.7242 3.14484 -8.94963
415 1 1.57242 17.2966 4.71726 -8.94963
416 1 3.14484 15.7242 3.14484 -8.94964
417 1 4.71726 17.2966 4.71726 -8.94954
418 1 6.28968 15.7242 3.14483 -8.94964
419 1 7.86211 17.2966 4.71727 -8.9498
420 1 9.43453 15.7242 3.14485 -8.94965
421 1 11.0069 17.2966 4.71726 -8.94965
422 1 12.5794 15.7242 3.14485 -8.94979
423 1 14.1518 17.2966 4.71726 -8.94963
424 1 15.7242 15.7242 3.14484 -8.94954
425 1 17.2966 17.2966 4.71726 -8.94964
426 1 18.8691 15.7242 3.14484 -8.94963
427 1 20.4415 17.2966 4.71726 -8.94963
428 1 22.0139 18.8691 3.14484 -8.94963
429 1 1.57242 20.4415 4.71726 -8.94963
430 1 3.14484 18.8691 3.14484 -8.94963
431 1 4.71726 20.4415 4.71726 -8.94963
432 1 6.28969 18.8691 3.14484 -8.94964
433 1 7.86211 20.4415 4.71726 -8.94963
434 1 9.43453 18.8691 3.14484 -8.94963
435 1 11.007 20.4415 4.71726 -8.94963
436 1 12.5794 18.8691 3.14484 -8.94963
437 1 14.1518 20.4415 4.71726 -8.94963
438 1 15.7242 18.8691 3.14484 -8.94963
439 1 17.2966 20.4415 4.71726 -8.94963
440 1 18.8691 18.8691 3.14484 -8.94963
441 1 20.4415 20.4415 4.71726 -8.94963
442 1 1.57242 11.007 7.86211 -8.94966
443 1 4.71715 11.007 7.86211 -8.95049
444 1 7.85941 11.007 7.85996 -8.95882
445 1 11.0618 11.007 7.74605 -8.05572
446 1 14.1543 11.007 7.86185 -8.96193
447 1 17.2967 11.007 7.86211 -8.95026
448 1 20.4415 11.007 7.86211 -8.94965
449 1 22.0139 12.5794 6.28969 -8.94964
450 1 1.57242 14.1518 7.86211 -8.94966
451 1 3.14484 12.5794 6.28968 -8.94966
452 1 4.71709 14.1518 7.86206 -8.95044
453 1 6.28954 12.5794 6.28959 -8.94941
454 1 7.85732 14.1564 7.85731 -8.9041
455 1 9.43299 12.5811 6.28851 -8.93842
456 1 11.0087 14.153 7.86021 -8.93535
457 1 12.5839 12.5839 6.28538 -8.90753
458 1 14.152 14.1519 7.86203 -8.94921
459 1 15.7244 12.5794 6.28964 -8.95042
460 1 17.2966 14.1518 7.8621 -8.94963
461 1 18.8691 12.5794 6.28969 -8.94967
462 1 20.4415 14.1518 7.86211 -8.94963
463 1 -1.96721e-07 15.7242 6.28969 -8.94963
464 1 1.57242 17.2966 7.86211 -8.94963
465 1 3.14484 15.7242 6.28968 -8.94965
466 1 4.71727 17.2966 7.86211 -8.94977
467 1 6.28948 15.7244 6.28947 -8.94739
468 1 7.86201 17.2969 7.86201 -8.95008
469 1 9.43457 15.7242 6.28973 -8.95133
470 1 11.007 17.2968 7.86202 -8.94916
471 1 12.5795 15.7244 6.28961 -8.95011
472 1 14.1518 17.2966 7.86211 -8.9497
473 1 15.7242 15.7242 6.28968 -8.94971
474 1 17.2966 17.2966 7.86211 -8.94964
475 1 18.8691 15.7242 6.28969 -8.94963
476 1 20.4415 17.2966 7.86211 -8.94963
477 1 22.0139 18.8691 6.28969 -8.94963
478 1 1.57242 20.4415 7.86211 -8.94963
479 1 3.14484 18.8691 6.28969 -8.94964
480 1 4.71726 20.4415 7.86211 -8.94963
481 1 6.28968 18.8691 6.28968 -8.94962
482 1 7.86211 20.4415 7.86211 -8.94967
483 1 9.43453 18.8691 6.28969 -8.94964
484 1 11.007 20.4415 7.86211 -8.94964
485 1 12.5794 18.8691 6.28968 -8.94964
486 1 14.1518 20.4415 7.86211 -8.94964
487 1 15.7242 18.8691 6.28969 -8.94963
488 1 17.2966 20.4415 7.86211 -8.94963
489 1 18.8691 18.8691 6.28969 -8.94963
490 1 20.4415 20.4415 7.86211 -8.94963
491 1 22.0139 12.5794 9.43453 -8.94965
492 1 3.14476 12.5794 9.43451 -8.94995
493 1 6.28747 12.5802 9.4345 -8.99994
494 1 9.37889 12.7008 9.43009 -8.049
495 1 12.5822 12.5827 9.4346 -8.95127
496 1 15.7244 12.5795 9.4345 -8.94941
497 1 18.8691 12.5794 9.43453 -8.94966
498 1 22.0139 15.7242 9.43453 -8.94963
499 1 3.14484 15.7242 9.43453 -8.94964
512 1 1.57237 11.007 11.007 -8.95003
514 1 7.83242 11.007 10.9969 -9.19714
519 1 1.57242 14.1518 11.007 -8.94968
532 1 20.4415 17.2966 11.007 -8.94963
527 1 4.71727 17.2966 11.0069 -8.94977
531 1 17.2966 17.2966 11.007 -8.94964
530 1 14.1518 17.2966 11.0069 -8.94971
373 1 12.5794 15.7242 2.98118e-07 -8.94963
377 1 18.8691 15.7242 1.34648e-08 -8.94963
379 1 22.0139 18.8691 3.18457e-10 -8.94963
687 2 9.43477 11.007 11.7904 0.956918
513 1 4.71576 11.007 11.0071 -8.95665
686 1 20.4415 20.4415 20.4415 -8.94963
515 1 11.0906 11.007 11.1125 -8.30481
516 1 14.1558 11.007 11.0073 -8.96592
517 1 17.2968 11.007 11.007 -8.95066
518 1 20.4415 11.007 11.007 -8.94968
685 1 18.8691 18.8691 18.8691 -8.94963
520 1 4.71712 14.1518 11.007 -8.95089
521 1 7.8575 14.1561 11.0111 -8.96159
522 1 11.0085 14.1528 11.0082 -8.99173
523 1 14.152 14.1519 11.007 -8.94973
524 1 17.2966 14.1518 11.007 -8.94966
525 1 20.4415 14.1518 11.007 -8.94963
684 1 17.2966 20.4415 20.4415 -8.94963
683 1 15.7242 18.8691 18.8691 -8.94963
528 1 7.86199 17.2969 11.007 -8.94977
529 1 11.0071 17.2968 11.007 -8.94887
391 1 18.8691 18.8691 22.0139 -8.94963
682 1 14.1518 20.4415 20.4415 -8.94963
681 1 12.5794 18.8691 18.8691 -8.94963
533 1 1.57242 20.4415 11.007 -8.94963
680 1 11.007 20.4415 20.4415 -8.94963
535 1 7.8621 20.4415 11.007 -8.94967
536 1 11.007 20.4415 11.007 -8.94964
537 1 14.1518 20.4415 11.007 -8.94964
679 1 9.43453 18.8691 18.8691 -8.94963
539 1 20.4415 20.4415 11.007 -8.94963
540 1 1.57242 11.007 14.1518 -8.94967
541 1 4.71716 11.007 14.1518 -8.95055
542 1 7.85952 11.007 14.1557 -8.98633
543 1 11.0097 11.007 14.1606 -9.00903
544 1 14.1519 11.007 14.1519 -8.95241
545 1 17.2966 11.007 14.1518 -8.94967
546 1 20.4415 11.007 14.1518 -8.94963
547 1 22.0139 12.5794 12.5794 -8.94963
548 1 1.57242 14.1518 14.1518 -8.94962
549 1 3.14481 12.5794 12.5794 -8.94938
550 1 4.71725 14.1518 14.1518 -8.94977
551 1 6.28958 12.5795 12.5799 -9.00366
552 1 7.86159 14.1515 14.152 -8.98865
553 1 9.43321 12.6069 12.5933 -9.22555
554 1 11.0074 14.1514 14.1518 -8.98962
555 1 12.584 12.5842 12.5843 -8.95783
556 1 14.152 14.152 14.152 -8.94747
557 1 15.7244 12.5795 12.5794 -8.95016
558 1 17.2966 14.1518 14.1518 -8.94964
559 1 18.8691 12.5794 12.5794 -8.94967
560 1 20.4415 14.1518 14.1518 -8.94963
561 1 22.0139 15.7242 12.5794 -8.94963
562 1 1.57242 17.2966 14.1518 -8.94963
563 1 3.14484 15.7242 12.5794 -8.94965
564 1 4.71726 17.2966 14.1518 -8.94956
565 1 6.28952 15.7244 12.5796 -8.948
566 1 7.86209 17.2966 14.1518 -8.94947
567 1 9.43457 15.7255 12.5793 -8.95805
568 1 11.007 17.2966 14.1518 -8.94933
569 1 12.5794 15.7244 12.5794 -8.95075
570 1 14.1518 17.2966 14.1518 -8.94966
571 1 15.7242 15.7242 12.5794 -8.94971
572 1 17.2966 17.2966 14.1518 -8.94964
573 1 18.8691 15.7242 12.5794 -8.94963
574 1 20.4415 17.2966 14.1518 -8.94963
575 1 1.38362e-08 18.8691 12.5794 -8.94963
576 1 1.57242 20.4415 14.1518 -8.94963
577 1 3.14484 18.8691 12.5794 -8.94964
578 1 4.71726 20.4415 14.1518 -8.94963
579 1 6.28968 18.8691 12.5794 -8.94963
580 1 7.86211 20.4415 14.1518 -8.94963
581 1 9.43453 18.8691 12.5794 -8.95
582 1 11.007 20.4415 14.1518 -8.94963
583 1 12.5794 18.8691 12.5794 -8.94965
584 1 14.1518 20.4415 14.1518 -8.94963
585 1 15.7242 18.8691 12.5794 -8.94963
586 1 17.2966 20.4415 14.1518 -8.94963
587 1 18.8691 18.8691 12.5794 -8.94963
588 1 20.4415 20.4415 14.1518 -8.94963
589 1 1.57242 11.007 17.2966 -8.94963
590 1 4.71727 11.007 17.2966 -8.94967
591 1 7.86211 11.007 17.2968 -8.9508
592 1 11.0069 11.007 17.2969 -8.95202
593 1 14.1518 11.007 17.2966 -8.94969
594 1 17.2966 11.007 17.2966 -8.94963
595 1 20.4415 11.007 17.2966 -8.94963
596 1 22.0139 12.5794 15.7242 -8.94963
597 1 1.57242 14.1518 17.2966 -8.94963
598 1 3.14484 12.5794 15.7242 -8.94967
599 1 4.71726 14.1518 17.2966 -8.94957
600 1 6.28953 12.5795 15.7244 -8.94884
601 1 7.86214 14.1518 17.2966 -8.94991
602 1 9.43444 12.5788 15.7235 -8.99752
603 1 11.0069 14.1518 17.2966 -8.94993
604 1 12.5796 12.5796 15.7246 -8.9491
605 1 14.1518 14.1518 17.2967 -8.94955
606 1 15.7242 12.5794 15.7242 -8.94979
607 1 17.2966 14.1518 17.2966 -8.94964
608 1 18.8691 12.5794 15.7242 -8.94964
609 1 20.4415 14.1518 17.2966 -8.94963
610 1 2.47136e-08 15.7242 15.7242 -8.94963
611 1 1.57242 17.2966 17.2966 -8.94963
612 1 3.14484 15.7242 15.7242 -8.94964
613 1 4.71727 17.2966 17.2966 -8.94964
614 1 6.28969 15.7242 15.7242 -8.94965
615 1 7.86211 17.2966 17.2966 -8.94965
616 1 9.43453 15.7241 15.7241 -8.95033
617 1 11.0069 17.2966 17.2966 -8.94965
618 1 12.5794 15.7242 15.7242 -8.94981
619 1 14.1518 17.2966 17.2966 -8.94965
620 1 15.7242 15.7242 15.7242 -8.94954
621 1 17.2966 17.2966 17.2966 -8.94963
622 1 18.8691 15.7242 15.7242 -8.94963
623 1 20.4415 17.2966 17.2966 -8.94963
624 1 22.0139 18.8691 15.7242 -8.94963
625 1 1.57242 20.4415 17.2966 -8.94963
626 1 3.14484 18.8691 15.7242 -8.94963
627 1 4.71726 20.4415 17.2966 -8.94963
628 1 6.28969 18.8691 15.7242 -8.94963
629 1 7.86211 20.4415 17.2966 -8.94963
630 1 9.43453 18.8691 15.7242 -8.94962
631 1 11.007 20.4415 17.2966 -8.94963
632 1 12.5794 18.8691 15.7242 -8.94962
633 1 14.1518 20.4415 17.2966 -8.94963
634 1 15.7242 18.8691 15.7242 -8.94963
635 1 17.2966 20.4415 17.2966 -8.94963
636 1 18.8691 18.8691 15.7242 -8.94963
637 1 20.4415 20.4415 17.2966 -8.94963
638 1 1.57242 11.007 20.4415 -8.94963
639 1 4.71726 11.007 20.4415 -8.94963
640 1 7.86211 11.007 20.4415 -8.94968
641 1 11.0069 11.007 20.4415 -8.94976
642 1 14.1518 11.007 20.4415 -8.94963
643 1 17.2966 11.007 20.4415 -8.94963
644 1 20.4415 11.007 20.4415 -8.94963
645 1 1.7798e-08 12.5794 18.8691 -8.94963
646 1 1.57242 14.1518 20.4415 -8.94963
647 1 3.14484 12.5794 18.8691 -8.94964
648 1 4.71726 14.1518 20.4415 -8.94963
649 1 6.28968 12.5794 18.8691 -8.94965
650 1 7.86211 14.1518 20.4415 -8.94963
651 1 9.43453 12.5794 18.869 -8.94936
652 1 11.0069 14.1518 20.4415 -8.94963
653 1 12.5794 12.5794 18.8691 -8.94968
654 1 14.1518 14.1518 20.4415 -8.94963
655 1 15.7242 12.5794 18.8691 -8.94964
656 1 17.2966 14.1518 20.4415 -8.94963
657 1 18.8691 12.5794 18.8691 -8.94963
658 1 20.4415 14.1518 20.4415 -8.94963
659 1 22.0139 15.7242 18.8691 -8.94963
660 1 1.57242 17.2966 20.4415 -8.94963
661 1 3.14484 15.7242 18.8691 -8.94963
662 1 4.71726 17.2966 20.4415 -8.94963
663 1 6.28969 15.7242 18.8691 -8.94965
664 1 7.86211 17.2966 20.4415 -8.94963
665 1 9.43453 15.7242 18.8691 -8.94961
666 1 11.007 17.2966 20.4415 -8.94963
667 1 12.5794 15.7242 18.8691 -8.94965
668 1 14.1518 17.2966 20.4415 -8.94963
669 1 15.7242 15.7242 18.8691 -8.94963
670 1 17.2966 17.2966 20.4415 -8.94963
671 1 18.8691 15.7242 18.8691 -8.94963
672 1 20.4415 17.2966 20.4415 -8.94963
673 1 2.6906e-09 18.8691 18.8691 -8.94963
674 1 1.57242 20.4415 20.4415 -8.94963
675 1 3.14484 18.8691 18.8691 -8.94963
676 1 4.71726 20.4415 20.4415 -8.94963
677 1 6.28969 18.8691 18.8691 -8.94963
678 1 7.86211 20.4415 20.4415 -8.94963
353 1 3.14484 12.5794 22.0139 -8.94963
357 1 9.43453 12.5794 22.0139 -8.94963
359 1 12.5794 12.5794 22.0139 -8.94967
365 1 -3.51276e-10 15.7242 22.0139 -8.94963
369 1 6.28969 15.7242 22.0139 -8.94963
389 1 15.7242 18.8691 22.0139 -8.94963
375 1 15.7242 15.7242 22.0139 -8.94963
385 1 9.43453 18.8691 22.0139 -8.94963
381 1 3.14484 18.8691 22.0139 -8.94963
363 1 18.8691 12.5794 22.0139 -8.94963
387 1 12.5794 18.8691 22.0139 -8.94963
526 1 1.57242 17.2966 11.007 -8.94963
