ITEM: TIMESTEP
102
ITEM: NUMBER OF ATOMS
688
ITEM: BOX BOUNDS pp pp pp
0.0000000000000000e+00 2.2013900999999997e+01
0.0000000000000000e+00 2.2013900999999997e+01
0.0000000000000000e+00 2.2013900999999997e+01
ITEM: ATOMS id type x y z c_pot
190 1 1.56909 7.86138 11.0072 -8.95156
2 1 1.5718 1.57206 1.57182 -8.94913
175 1 18.8691 9.43434 9.43457 -8.94819
4 1 4.71677 1.57195 1.57169 -8.9496
174 1 15.7223 9.43525 9.43523 -8.94492
6 1 7.86195 1.57194 1.57174 -8.94947
7 1 9.4345 1.61514e-15 -0.000256563 -8.94954
8 1 11.0071 1.57193 1.57179 -8.9495
173 1 12.5667 9.42989 9.42288 -8.94057
10 1 14.1521 1.57192 1.5719 -8.94949
172 1 9.35613 9.18042 9.42826 -8.12658
12 1 17.2972 1.57189 1.57194 -8.94945
189 1 20.4413 4.71649 11.007 -8.94956
14 1 20.4415 1.57215 1.57217 -8.94951
171 1 6.27547 9.41937 9.42787 -9.00237
16 1 1.57191 4.71689 1.57176 -8.94984
170 1 3.13935 9.43349 9.43296 -8.95041
18 1 4.71592 4.71604 1.57048 -8.94955
19 1 6.28933 3.14427 -0.00048757 -8.94948
20 1 7.8616 4.71604 1.57082 -8.94918
169 1 22.0123 9.43437 9.43423 -8.9497
22 1 11.0071 4.71595 1.57096 -8.94934
188 1 17.2977 4.71609 11.0068 -8.94907
24 1 14.1527 4.71582 1.571 -8.9497
168 1 18.8698 6.28873 9.43439 -8.94951
26 1 17.2981 4.71582 1.57128 -8.94847
167 1 15.7263 6.28761 9.43414 -8.9464
28 1 20.4419 4.71678 1.57198 -8.94957
166 1 12.5793 6.28769 9.43312 -8.94724
30 1 1.5721 7.86201 1.57187 -8.94942
31 1 3.14445 6.28958 -0.000339334 -8.94976
32 1 4.71668 7.86225 1.57147 -8.94976
165 1 9.42897 6.29099 9.43403 -9.00745
34 1 7.86161 7.86167 1.57001 -8.95238
35 1 9.43416 6.28881 -0.000955959 -8.94969
36 1 11.0068 7.861 1.56969 -8.95071
164 1 6.27762 6.27732 9.43356 -8.94352
38 1 14.1537 7.86046 1.56909 -8.95134
163 1 3.1395 6.2866 9.43433 -8.94934
40 1 17.2983 7.86125 1.57117 -8.94921
162 1 22.0124 6.28877 9.43443 -8.94995
42 1 20.442 7.86181 1.57191 -8.94946
43 1 22.014 9.43445 -0.000206533 -8.94955
161 1 18.8694 3.1442 9.43445 -8.94955
45 1 6.28929 9.43466 -0.000352424 -8.94951
160 1 15.7251 3.14376 9.43433 -8.94951
159 1 12.58 3.14348 9.43406 -8.94878
48 1 15.7256 9.43404 -0.00084644 -8.94939
184 1 4.7126 4.71279 11.0084 -8.94743
50 1 -0.000376133 1.68571e-15 3.14452 -8.94952
51 1 1.57157 1.57191 4.71665 -8.94946
52 1 3.144 1.39324e-15 3.14396 -8.94952
53 1 4.71603 1.57109 4.71594 -8.95003
54 1 6.28933 1.47033e-15 3.14398 -8.94954
55 1 7.86187 1.5712 4.71614 -8.94962
56 1 9.43461 1.79631e-16 3.14403 -8.94953
57 1 11.0074 1.57135 4.71627 -8.94956
58 1 12.5797 1.85856e-16 3.14417 -8.94949
59 1 14.1525 1.57137 4.71668 -8.95057
60 1 15.7248 1.0827e-15 3.14436 -8.94999
61 1 17.2971 1.572 4.71709 -8.94968
62 1 18.8692 1.79061e-15 3.14467 -8.94967
63 1 20.4414 1.57215 4.71705 -8.94952
64 1 22.0133 3.14429 3.14425 -8.94948
65 1 1.57042 4.71598 4.71585 -8.94948
66 1 3.14316 3.14339 3.14312 -8.94809
67 1 4.71235 4.71257 4.71234 -8.94404
68 1 6.28881 3.14327 3.14319 -8.94954
69 1 7.86055 4.71321 4.71386 -8.94868
70 1 9.43449 3.14335 3.14342 -8.94939
71 1 11.0077 4.71375 4.71426 -8.94763
72 1 12.5799 3.14334 3.1436 -8.94913
73 1 14.155 4.71261 4.71407 -8.94926
74 1 15.7255 3.14306 3.14361 -8.94933
75 1 17.2981 4.7159 4.71656 -8.95003
76 1 18.8695 3.14418 3.14444 -8.94972
77 1 20.4414 4.71665 4.71682 -8.94986
78 1 22.0138 6.28937 3.14423 -8.94983
79 1 1.57139 7.86204 4.71636 -8.94985
80 1 3.14347 6.28917 3.14336 -8.95042
81 1 4.71459 7.86176 4.71478 -8.95179
82 1 6.28668 6.28684 3.13979 -8.95034
83 1 7.8564 7.85578 4.70632 -8.95552
84 1 9.43401 6.28695 3.14111 -8.94804
85 1 11.0079 7.85725 4.7081 -8.95227
86 1 12.5808 6.28697 3.14098 -8.94953
87 1 14.1632 7.85189 4.70581 -8.9347
88 1 15.7283 6.28585 3.14101 -8.94565
89 1 17.3006 7.86025 4.71524 -8.95061
90 1 18.8705 6.28868 3.14388 -8.94968
91 1 20.4422 7.86171 4.71664 -8.95008
92 1 2.94056e-05 9.43441 3.14413 -8.94953
93 1 3.14393 9.43454 3.14368 -8.94895
94 1 6.28921 9.4353 3.14368 -8.94939
95 1 9.43494 9.43424 3.14316 -8.95038
96 1 12.5824 9.43333 3.13724 -8.95804
97 1 15.728 9.43322 3.1413 -8.94782
98 1 18.8707 9.43413 3.14374 -8.94933
99 1 22.0135 1.52678e-15 6.28946 -8.94954
100 1 1.57148 1.57187 7.86186 -8.9495
101 1 3.14377 5.47862e-16 6.28905 -8.94938
102 1 4.71569 1.5709 7.86143 -8.9494
103 1 6.28903 1.15486e-15 6.28889 -8.95073
104 1 7.86174 1.57048 7.86169 -8.95152
105 1 9.43475 1.36494e-15 6.28899 -8.95027
106 1 11.0071 1.57155 7.86191 -8.94968
107 1 12.5797 1.23697e-15 6.28942 -8.95036
108 1 14.1524 1.57177 7.86193 -8.94941
109 1 15.7247 1.74901e-15 6.28955 -8.94953
110 1 17.2971 1.57202 7.862 -8.94951
111 1 18.8692 1.82271e-15 6.28957 -8.94953
112 1 20.4414 1.57212 7.862 -8.94955
113 1 22.0132 3.14417 6.2893 -8.94948
114 1 1.57027 4.7158 7.86152 -8.94939
115 1 3.14287 3.14305 6.28851 -8.94918
116 1 4.71248 4.71244 7.86008 -8.94766
117 1 6.28747 3.14055 6.2875 -8.95171
118 1 7.85854 4.70789 7.85988 -8.9598
119 1 9.4346 3.14155 6.28802 -8.95038
120 1 11.0064 4.71412 7.86104 -8.95307
121 1 12.58 3.1423 6.28888 -8.95222
122 1 14.153 4.71537 7.86187 -8.94894
123 1 15.725 3.14375 6.2895 -8.94959
124 1 17.2976 4.71621 7.86192 -8.94899
125 1 18.8693 3.14428 6.28952 -8.94944
126 1 20.4412 4.71652 7.8619 -8.94955
127 1 -0.00137637 6.28892 6.28898 -8.95022
128 1 1.56877 7.86109 7.8611 -8.9517
129 1 3.1394 6.28672 6.28665 -8.95019
130 1 4.70431 7.85591 7.85714 -8.95601
131 1 6.27525 6.27555 6.27591 -8.9279
132 1 7.81828 7.82152 7.82397 -8.84379
133 1 9.4333 6.27987 6.28303 -8.94868
134 1 11.0228 7.84848 7.835 -8.89555
135 1 12.5863 6.27907 6.2816 -8.94996
136 1 14.1577 7.8587 7.86074 -8.95045
137 1 15.7274 6.2873 6.28845 -8.95056
138 1 17.2983 7.86157 7.86254 -8.95089
139 1 18.8698 6.28901 6.28949 -8.95012
140 1 20.4412 7.86169 7.86195 -8.95012
141 1 22.0135 9.43451 6.28909 -8.94976
142 1 3.14288 9.43511 6.28844 -8.9498
143 1 6.28623 9.43679 6.28743 -8.95305
144 1 9.4232 9.41312 6.28419 -8.91654
145 1 12.6132 9.40791 6.25653 -8.88035
146 1 15.7332 9.43243 6.28597 -8.9562
147 1 18.8712 9.43425 6.28915 -8.9513
148 1 -0.000455676 1.44751e-15 9.43451 -8.94954
149 1 3.1437 1.19237e-15 9.43449 -8.94947
150 1 6.28859 3.06984e-16 9.43434 -8.95041
151 1 9.43471 1.50228e-15 9.43432 -8.94849
152 1 12.5799 1.85457e-15 9.43429 -8.94945
153 1 15.7248 1.55037e-15 9.43442 -8.94962
154 1 18.8693 1.43209e-15 9.43448 -8.94956
155 1 -0.000737889 3.14413 9.4345 -8.94951
156 1 3.14279 3.14307 9.43446 -8.94945
157 1 6.28663 3.14009 9.43416 -8.94958
158 1 9.43423 3.14316 9.43422 -8.94631
177 1 4.71572 1.57096 11.0074 -8.94936
181 1 17.2971 1.57199 11.0069 -8.94953
187 1 14.1531 4.71525 11.0063 -8.94865
3 1 3.14452 8.47965e-16 -0.000274214 -8.9496
11 1 15.7245 6.08481e-16 -0.000171382 -8.94957
15 1 22.0138 3.14458 -0.000214579 -8.94957
41 1 18.8698 6.28917 -0.000274441 -8.94947
37 1 12.5796 6.28874 -0.000887301 -8.94981
176 1 1.57149 1.57188 11.0071 -8.94948
343 1 18.8701 9.43428 18.8698 -8.94944
178 1 7.86159 1.57026 11.0069 -8.95153
179 1 11.0072 1.57126 11.0066 -8.94961
180 1 14.1525 1.57173 11.0067 -8.94941
342 1 15.7261 9.43388 18.8711 -8.94926
182 1 20.4414 1.57211 11.007 -8.94955
341 1 12.5801 9.434 18.8725 -8.95232
340 1 9.43413 9.43441 18.8696 -8.94763
185 1 7.858 4.70712 11.0077 -8.95804
186 1 11.0072 4.71321 11.0063 -8.95068
47 1 12.5797 9.4343 22.0128 -8.9515
339 1 6.28916 9.43463 18.8697 -8.94983
338 1 3.14433 9.43448 18.8696 -8.94954
337 1 9.21529e-05 9.43443 18.8695 -8.94954
191 1 4.7054 7.85768 11.0095 -8.95849
192 1 7.81834 7.82226 11.04 -8.90057
193 1 11.0281 7.84967 11.0283 -8.95356
194 1 14.1574 7.85926 11.0055 -8.95341
195 1 17.2987 7.86117 11.0064 -8.95005
196 1 20.4413 7.86163 11.0069 -8.95
197 1 22.0135 1.85628e-15 12.5796 -8.94953
198 1 1.57159 1.57193 14.1523 -8.94948
199 1 3.14379 1.47791e-15 12.5799 -8.94939
200 1 4.71597 1.57108 14.153 -8.95001
201 1 6.28893 8.67598e-16 12.58 -8.95064
202 1 7.86169 1.57093 14.1529 -8.94971
203 1 9.43471 1.7802e-15 12.5799 -8.95089
204 1 11.0074 1.57087 14.1529 -8.94985
205 1 12.5798 1.39681e-15 12.5794 -8.95052
206 1 14.1526 1.57107 14.1523 -8.95081
207 1 15.7248 1.45059e-15 12.5793 -8.94953
208 1 17.2971 1.57194 14.1519 -8.94967
209 1 18.8693 1.60967e-15 12.5794 -8.94953
210 1 20.4414 1.57213 14.152 -8.94952
211 1 -0.00067629 3.14417 12.5797 -8.94944
212 1 1.57056 4.71601 14.153 -8.94974
213 1 3.14294 3.14315 12.5803 -8.94918
214 1 4.71238 4.71257 14.1564 -8.94463
215 1 6.28744 3.14045 12.5812 -8.95153
216 1 7.86 4.71225 14.1553 -8.94781
217 1 9.43462 3.14013 12.5806 -8.95271
218 1 11.0083 4.71172 14.1555 -8.94681
219 1 12.5801 3.14151 12.5798 -8.95284
220 1 14.1557 4.71118 14.1553 -8.95028
221 1 15.7251 3.1436 12.5793 -8.94947
222 1 17.2983 4.71571 14.1523 -8.95023
223 1 18.8694 3.14421 12.5794 -8.94942
224 1 20.4415 4.71658 14.1521 -8.94983
225 1 22.0128 6.28894 12.5798 -8.95022
226 1 1.57095 7.86165 14.1528 -8.94961
227 1 3.13986 6.28703 12.5817 -8.95095
228 1 4.71359 7.86101 14.1543 -8.95101
229 1 6.27589 6.27556 12.5917 -8.92975
230 1 7.85417 7.85502 14.1622 -8.98758
231 1 9.43434 6.27233 12.5842 -8.96099
232 1 11.0113 7.85322 14.1642 -8.9803
233 1 12.5869 6.27577 12.5872 -8.95477
234 1 14.1689 7.84642 14.1683 -8.92526
235 1 15.7277 6.28707 12.5799 -8.95064
236 1 17.3019 7.8597 14.1542 -8.95193
237 1 18.8701 6.28884 12.5794 -8.94978
238 1 20.4424 7.86155 14.1524 -8.95038
239 1 22.0131 9.43433 12.5799 -8.94996
240 1 3.14104 9.43416 12.5808 -8.94809
241 1 6.28359 9.4343 12.5821 -8.99806
242 1 9.43003 9.37547 12.5981 -9.18663
243 1 12.6259 9.39096 12.6292 -8.88249
244 1 15.735 9.43223 12.5836 -8.96085
245 1 18.8715 9.43426 12.5797 -8.952
246 1 -0.000355358 1.7843e-15 15.7245 -8.94955
247 1 1.57178 1.57204 17.2973 -8.94917
248 1 3.14396 1.35326e-15 15.7251 -8.94955
249 1 4.71664 1.57188 17.2975 -8.94956
250 1 6.28917 1.75751e-15 15.7252 -8.94957
251 1 7.86186 1.57188 17.2975 -8.94939
252 1 9.43453 1.94535e-15 15.7252 -8.94945
253 1 11.007 1.57183 17.2975 -8.94943
254 1 12.5799 1.68942e-15 15.7251 -8.9496
255 1 14.1523 1.5717 17.2974 -8.94945
256 1 15.7249 7.04781e-16 15.7248 -8.95012
257 1 17.2974 1.57174 17.2973 -8.94949
258 1 18.8693 1.83172e-15 15.7244 -8.94968
259 1 20.4415 1.57212 17.2969 -8.94959
260 1 22.0134 3.14426 15.7248 -8.94956
261 1 1.57186 4.71679 17.2974 -8.9498
262 1 3.14312 3.14335 15.7259 -8.94824
263 1 4.71574 4.71586 17.2987 -8.94942
264 1 6.28854 3.143 15.726 -8.94945
265 1 7.8615 4.716 17.2983 -8.94914
266 1 9.43433 3.14299 15.7258 -8.94901
267 1 11.0069 4.71574 17.2984 -8.94946
268 1 12.5803 3.14257 15.7259 -8.94903
269 1 14.1531 4.71507 17.2988 -8.94942
270 1 15.7259 3.1425 15.7257 -8.94953
271 1 17.2987 4.71526 17.2984 -8.94783
272 1 18.8696 3.14409 15.7246 -8.94983
273 1 20.442 4.71661 17.2973 -8.94956
274 1 -0.000129401 6.28918 15.7249 -8.94982
275 1 1.57201 7.86191 17.2974 -8.94951
276 1 3.14319 6.28891 15.7258 -8.95014
277 1 4.71635 7.86195 17.298 -8.94933
278 1 6.28614 6.28636 15.7294 -8.94993
279 1 7.86184 7.86201 17.2986 -8.95329
280 1 9.43359 6.28671 15.7274 -8.94764
281 1 11.0064 7.86089 17.3002 -8.95188
282 1 12.5819 6.285 15.7298 -8.94847
283 1 14.1551 7.85908 17.3025 -8.95066
284 1 15.7302 6.28401 15.7298 -8.94318
285 1 17.299 7.86087 17.2986 -8.94906
286 1 18.8711 6.28833 15.7255 -8.94991
287 1 20.4422 7.8617 17.2974 -8.94946
288 1 22.0139 9.43434 15.7251 -8.94962
289 1 3.14354 9.43444 15.7255 -8.94944
290 1 6.28794 9.43475 15.7262 -8.94839
291 1 9.43522 9.43575 15.7224 -8.99525
292 1 12.5861 9.43064 15.7384 -8.95739
293 1 15.73 9.43256 15.7295 -8.94726
294 1 18.8714 9.434 15.7257 -8.94936
295 1 22.0137 2.15089e-15 18.8693 -8.94929
296 1 1.57211 1.57217 20.4415 -8.94939
297 1 3.14445 2.82505e-16 18.8694 -8.94956
298 1 4.71699 1.57216 20.4415 -8.94956
299 1 6.28945 6.04484e-16 18.8695 -8.94949
300 1 7.86196 1.57212 20.4416 -8.94953
301 1 9.43447 2.23905e-15 18.8695 -8.94953
302 1 11.007 1.57209 20.4416 -8.94953
303 1 12.5795 1.76659e-15 18.8695 -8.94951
304 1 14.152 1.57208 20.4416 -8.94954
305 1 15.7246 7.22831e-16 18.8695 -8.94952
306 1 17.297 1.57208 20.4416 -8.94955
307 1 18.8694 1.84512e-15 18.8694 -8.94938
308 1 20.4417 1.57221 20.4416 -8.94925
309 1 -3.79421e-05 3.14453 18.8694 -8.94957
310 1 1.57222 4.71707 20.4416 -8.94968
311 1 3.14419 3.14425 18.8697 -8.94946
312 1 4.71671 4.7168 20.4415 -8.95012
313 1 6.2893 3.14426 18.8697 -8.94949
314 1 7.86173 4.71658 20.4416 -8.94953
315 1 9.43437 3.14411 18.8697 -8.9495
316 1 11.0069 4.71645 20.4416 -8.94955
317 1 12.5795 3.14406 18.8697 -8.94951
318 1 14.1522 4.71638 20.4418 -8.94972
319 1 15.7249 3.14392 18.8698 -8.94954
320 1 17.2976 4.71634 20.4418 -8.94944
321 1 18.8698 3.14415 18.8696 -8.94906
322 1 20.4418 4.71693 20.4416 -8.94953
323 1 22.014 6.28944 18.8694 -8.94953
324 1 1.57222 7.862 20.4416 -8.94955
325 1 3.14437 6.28949 18.8696 -8.94964
326 1 4.71682 7.8621 20.4416 -8.94964
327 1 6.28911 6.28927 18.8702 -8.95092
328 1 7.86177 7.86198 20.4415 -8.95021
329 1 9.43402 6.28871 18.8702 -8.94948
330 1 11.0066 7.86157 20.4418 -8.9502
331 1 12.5796 6.28857 18.8707 -8.95012
332 1 14.1526 7.86126 20.4423 -8.95069
333 1 15.7258 6.28807 18.871 -8.9497
334 1 17.2977 7.86152 20.4418 -8.94935
335 1 18.87 6.28904 18.8697 -8.94944
336 1 20.4419 7.86189 20.4416 -8.94952
46 1 9.43428 9.43454 22.0134 -8.94917
5 1 6.2895 6.34731e-16 22.0136 -8.94952
9 1 12.5795 8.71288e-16 22.0137 -8.94953
44 1 3.1444 9.4345 22.0136 -8.94954
39 1 15.7254 6.2885 22.0131 -8.94998
17 1 3.14425 3.14431 22.0134 -8.94952
21 1 9.43443 3.14417 22.0135 -8.94951
25 1 15.7247 3.14412 22.0136 -8.94964
27 1 18.8696 3.14427 22.0137 -8.9492
29 1 6.33913e-05 6.2895 22.0137 -8.94952
33 1 6.28907 6.28922 22.0129 -8.95065
1 1 -0.000191751 1.43156e-15 22.0137 -8.94922
13 1 18.8693 9.8653e-16 22.0137 -8.94937
23 1 12.5795 3.14415 22.0135 -8.94946
49 1 18.8699 9.43433 22.0136 -8.94948
183 1 1.57032 4.71586 11.0074 -8.94927
344 1 1.5721 11.007 1.57183 -8.94956
345 1 4.71658 11.007 1.57149 -8.94962
346 1 7.86198 11.007 1.57228 -8.94808
347 1 11.0071 11.007 1.57147 -8.9473
348 1 14.1543 11.007 1.56897 -8.94957
349 1 17.2984 11.007 1.57113 -8.94946
350 1 20.442 11.007 1.57187 -8.94951
351 1 22.014 12.5794 -0.000206533 -8.94955
352 1 1.5721 14.1519 1.57187 -8.94942
688 3 10.1688 11.007 9.47085 2.27845
354 1 4.71668 14.1516 1.57147 -8.94976
355 1 6.28929 12.5792 -0.000352424 -8.94951
356 1 7.86161 14.1522 1.57001 -8.95238
511 1 18.8694 18.8697 9.43445 -8.94955
358 1 11.0068 14.1529 1.56969 -8.95071
510 1 15.7251 18.8701 9.43433 -8.94951
360 1 14.1537 14.1534 1.56909 -8.95134
361 1 15.7256 12.5799 -0.00084644 -8.94939
362 1 17.2983 14.1527 1.57117 -8.94921
538 1 17.2971 20.4419 11.0069 -8.94953
364 1 20.442 14.1521 1.57191 -8.94946
509 1 12.58 18.8704 9.43406 -8.94878
366 1 1.57191 17.297 1.57176 -8.94984
367 1 3.14445 15.7243 -0.000339334 -8.94976
368 1 4.71592 17.2979 1.57048 -8.94955
508 1 9.43423 18.8707 9.43422 -8.94631
370 1 7.8616 17.2979 1.57082 -8.94918
371 1 9.43416 15.7251 -0.000955959 -8.94969
372 1 11.0071 17.298 1.57096 -8.94934
507 1 6.28663 18.8738 9.43416 -8.94958
374 1 14.1527 17.2981 1.571 -8.9497
506 1 3.14279 18.8708 9.43446 -8.94945
376 1 17.2981 17.2981 1.57128 -8.94847
505 1 -0.000737889 18.8698 9.4345 -8.94951
378 1 20.4419 17.2971 1.57198 -8.94957
504 1 18.8698 15.7252 9.43439 -8.94951
380 1 1.5718 20.4418 1.57182 -8.94913
503 1 15.7263 15.7263 9.43414 -8.9464
382 1 4.71677 20.4419 1.57169 -8.9496
383 1 6.28933 18.8696 -0.00048757 -8.94948
384 1 7.86195 20.442 1.57174 -8.94947
502 1 12.5793 15.7262 9.43312 -8.94724
386 1 11.0071 20.442 1.57179 -8.9495
534 1 4.71572 20.4429 11.0074 -8.94936
388 1 14.1521 20.442 1.5719 -8.94949
501 1 9.42897 15.7229 9.43403 -9.00745
390 1 17.2972 20.442 1.57194 -8.94945
500 1 6.27762 15.7366 9.43356 -8.94352
392 1 20.4415 20.4418 1.57217 -8.94951
393 1 1.57156 11.007 4.71615 -8.94946
394 1 4.71551 11.007 4.71504 -8.94595
395 1 7.86471 11.007 4.71977 -8.94601
396 1 11.0107 11.007 4.71859 -8.99263
397 1 14.1614 11.007 4.70793 -8.94237
398 1 17.3008 11.007 4.71492 -8.9492
399 1 20.4424 11.007 4.71647 -8.94989
400 1 2.94056e-05 12.5795 3.14413 -8.94953
401 1 1.57139 14.1519 4.71636 -8.94985
402 1 3.14393 12.5794 3.14368 -8.94895
403 1 4.71459 14.1521 4.71478 -8.95179
404 1 6.28921 12.5786 3.14368 -8.94939
405 1 7.8564 14.1581 4.70632 -8.95552
406 1 9.43494 12.5797 3.14316 -8.95038
407 1 11.0079 14.1567 4.7081 -8.95227
408 1 12.5824 12.5806 3.13724 -8.95804
409 1 14.1632 14.162 4.70581 -8.9347
410 1 15.728 12.5807 3.1413 -8.94782
411 1 17.3006 14.1537 4.71524 -8.95061
412 1 18.8707 12.5798 3.14374 -8.94933
413 1 20.4422 14.1522 4.71664 -8.95008
414 1 22.0138 15.7245 3.14423 -8.94983
415 1 1.57042 17.2979 4.71585 -8.94948
416 1 3.14347 15.7247 3.14336 -8.95042
417 1 4.71235 17.3013 4.71234 -8.94404
418 1 6.28668 15.7271 3.13979 -8.95034
419 1 7.86055 17.3007 4.71386 -8.94868
420 1 9.43401 15.727 3.14111 -8.94804
421 1 11.0077 17.3002 4.71426 -8.94763
422 1 12.5808 15.7269 3.14098 -8.94953
423 1 14.155 17.3013 4.71407 -8.94926
424 1 15.7283 15.728 3.14101 -8.94565
425 1 17.2981 17.298 4.71656 -8.95003
426 1 18.8705 15.7252 3.14388 -8.94968
427 1 20.4414 17.2973 4.71682 -8.94986
428 1 22.0133 18.8696 3.14425 -8.94948
429 1 1.57157 20.442 4.71665 -8.94946
430 1 3.14316 18.8705 3.14312 -8.94809
431 1 4.71603 20.4428 4.71594 -8.95003
432 1 6.28881 18.8706 3.14319 -8.94954
433 1 7.86187 20.4427 4.71614 -8.94962
434 1 9.43449 18.8706 3.14342 -8.94939
435 1 11.0074 20.4426 4.71627 -8.94956
436 1 12.5799 18.8706 3.1436 -8.94913
437 1 14.1525 20.4425 4.71668 -8.95057
438 1 15.7255 18.8708 3.14361 -8.94933
439 1 17.2971 20.4419 4.71709 -8.94968
440 1 18.8695 18.8697 3.14444 -8.94972
441 1 20.4414 20.4417 4.71705 -8.94952
442 1 1.57118 11.007 7.86131 -8.94721
443 1 4.71855 11.007 7.86188 -8.94011
444 1 7.88415 11.007 7.8713 -8.95317
445 1 11.0746 11.007 7.67604 -8.22846
446 1 14.1595 11.007 7.85552 -8.96783
447 1 17.2989 11.007 7.86219 -8.95111
448 1 20.4417 11.007 7.86194 -8.94942
449 1 22.0135 12.5794 6.28909 -8.94976
450 1 1.56877 14.1528 7.8611 -8.9517
451 1 3.14288 12.5788 6.28844 -8.9498
452 1 4.70431 14.158 7.85714 -8.95601
453 1 6.28623 12.5771 6.28743 -8.95305
454 1 7.81828 14.1924 7.82397 -8.84379
455 1 9.4232 12.6008 6.28419 -8.91654
456 1 11.0228 14.1654 7.835 -8.89555
457 1 12.6132 12.606 6.25653 -8.88035
458 1 14.1577 14.1552 7.86074 -8.95045
459 1 15.7332 12.5815 6.28597 -8.9562
460 1 17.2983 14.1523 7.86254 -8.95089
461 1 18.8712 12.5797 6.28915 -8.9513
462 1 20.4412 14.1522 7.86195 -8.95012
463 1 -0.00137637 15.725 6.28898 -8.95022
464 1 1.57027 17.2981 7.86152 -8.94939
465 1 3.1394 15.7272 6.28665 -8.95019
466 1 4.71248 17.3015 7.86008 -8.94766
467 1 6.27525 15.7383 6.27591 -8.9279
468 1 7.85854 17.306 7.85988 -8.9598
469 1 9.4333 15.734 6.28303 -8.94868
470 1 11.0064 17.2998 7.86104 -8.95307
471 1 12.5863 15.7348 6.2816 -8.94996
472 1 14.153 17.2985 7.86187 -8.94894
473 1 15.7274 15.7266 6.28845 -8.95056
474 1 17.2976 17.2977 7.86192 -8.94899
475 1 18.8698 15.7249 6.28949 -8.95012
476 1 20.4412 17.2974 7.8619 -8.94955
477 1 22.0132 18.8697 6.2893 -8.94948
478 1 1.57148 20.442 7.86186 -8.9495
479 1 3.14287 18.8708 6.28851 -8.94918
480 1 4.71569 20.443 7.86143 -8.9494
481 1 6.28747 18.8733 6.2875 -8.95171
482 1 7.86174 20.4434 7.86169 -8.95152
483 1 9.4346 18.8724 6.28802 -8.95038
484 1 11.0071 20.4424 7.86191 -8.94968
485 1 12.58 18.8716 6.28888 -8.95222
486 1 14.1524 20.4421 7.86193 -8.94941
487 1 15.725 18.8701 6.2895 -8.94959
488 1 17.2971 20.4419 7.862 -8.94951
489 1 18.8693 18.8696 6.28952 -8.94944
490 1 20.4414 20.4418 7.862 -8.94955
491 1 22.0123 12.5795 9.43423 -8.9497
492 1 3.13935 12.5804 9.43296 -8.95041
493 1 6.27547 12.5945 9.42787 -9.00237
494 1 9.35613 12.8335 9.42826 -8.12658
495 1 12.5667 12.584 9.42288 -8.94057
496 1 15.7223 12.5787 9.43523 -8.94492
497 1 18.8691 12.5796 9.43457 -8.94819
498 1 22.0124 15.7251 9.43443 -8.94995
499 1 3.1395 15.7273 9.43433 -8.94934
512 1 1.56922 11.007 11.0071 -8.95114
514 1 7.81807 11.007 10.971 -9.12529
519 1 1.56909 14.1525 11.0072 -8.95156
532 1 20.4413 17.2974 11.007 -8.94956
527 1 4.7126 17.3011 11.0084 -8.94743
531 1 17.2977 17.2978 11.0068 -8.94907
530 1 14.1531 17.2987 11.0063 -8.94865
373 1 12.5796 15.7252 -0.000887301 -8.94981
377 1 18.8698 15.7247 -0.000274441 -8.94947
379 1 22.0138 18.8693 -0.000214579 -8.94957
687 2 9.45801 11.007 11.7377 0.650111
513 1 4.7065 11.007 11.0051 -8.96118
686 1 20.4417 20.4417 20.4416 -8.94925
515 1 11.1913 11.007 11.189 -8.38219
516 1 14.149 11.007 11.0161 -8.99437
517 1 17.2975 11.007 11.0068 -8.94743
518 1 20.4412 11.007 11.0069 -8.94936
685 1 18.8698 18.8698 18.8696 -8.94906
520 1 4.7054 14.1562 11.0095 -8.95849
521 1 7.81834 14.1916 11.04 -8.90057
522 1 11.0281 14.1642 11.0283 -8.95356
523 1 14.1574 14.1546 11.0055 -8.95341
524 1 17.2987 14.1527 11.0064 -8.95005
525 1 20.4413 14.1523 11.0069 -8.95
684 1 17.297 20.4418 20.4416 -8.94955
683 1 15.7249 18.87 18.8698 -8.94954
528 1 7.858 17.3068 11.0077 -8.95804
529 1 11.0072 17.3007 11.0063 -8.95068
391 1 18.8696 18.8696 22.0137 -8.9492
682 1 14.152 20.4418 20.4416 -8.94954
681 1 12.5795 18.8698 18.8697 -8.94951
533 1 1.57149 20.442 11.0071 -8.94948
680 1 11.007 20.4418 20.4416 -8.94953
535 1 7.86159 20.4436 11.0069 -8.95153
536 1 11.0072 20.4426 11.0066 -8.94961
537 1 14.1525 20.4422 11.0067 -8.94941
679 1 9.43437 18.8698 18.8697 -8.9495
539 1 20.4414 20.4418 11.007 -8.94955
540 1 1.5711 11.007 14.1529 -8.9494
541 1 4.71435 11.007 14.1532 -8.94733
542 1 7.86004 11.007 14.1527 -8.98182
543 1 11.0227 11.007 14.1668 -9.03405
544 1 14.1659 11.007 14.1657 -8.94307
545 1 17.3022 11.007 14.1548 -8.94949
546 1 20.4426 11.007 14.1526 -8.95008
547 1 22.0131 12.5796 12.5799 -8.94996
548 1 1.57095 14.1522 14.1528 -8.94961
549 1 3.14104 12.5797 12.5808 -8.94809
550 1 4.71359 14.1529 14.1543 -8.95101
551 1 6.28359 12.5796 12.5821 -8.99806
552 1 7.85417 14.1589 14.1622 -8.98758
553 1 9.43003 12.6384 12.5981 -9.18663
554 1 11.0113 14.1607 14.1642 -8.9803
555 1 12.6259 12.6229 12.6292 -8.88249
556 1 14.1689 14.1675 14.1683 -8.92526
557 1 15.735 12.5817 12.5836 -8.96085
558 1 17.3019 14.1542 14.1542 -8.95193
559 1 18.8715 12.5796 12.5797 -8.952
560 1 20.4424 14.1524 14.1524 -8.95038
561 1 22.0128 15.725 12.5798 -8.95022
562 1 1.57056 17.2979 14.153 -8.94974
563 1 3.13986 15.7269 12.5817 -8.95095
564 1 4.71238 17.3013 14.1564 -8.94463
565 1 6.27589 15.7383 12.5917 -8.92975
566 1 7.86 17.3017 14.1553 -8.94781
567 1 9.43434 15.7416 12.5842 -8.96099
568 1 11.0083 17.3022 14.1555 -8.94681
569 1 12.5869 15.7381 12.5872 -8.95477
570 1 14.1557 17.3027 14.1553 -8.95028
571 1 15.7277 15.7268 12.5799 -8.95064
572 1 17.2983 17.2982 14.1523 -8.95023
573 1 18.8701 15.7251 12.5794 -8.94978
574 1 20.4415 17.2973 14.1521 -8.94983
575 1 -0.00067629 18.8697 12.5797 -8.94944
576 1 1.57159 20.442 14.1523 -8.94948
577 1 3.14294 18.8708 12.5803 -8.94918
578 1 4.71597 20.4428 14.153 -8.95001
579 1 6.28744 18.8734 12.5812 -8.95153
580 1 7.86169 20.443 14.1529 -8.94971
581 1 9.43462 18.8738 12.5806 -8.95271
582 1 11.0074 20.443 14.1529 -8.94985
583 1 12.5801 18.8724 12.5798 -8.95284
584 1 14.1526 20.4428 14.1523 -8.95081
585 1 15.7251 18.8703 12.5793 -8.94947
586 1 17.2971 20.442 14.1519 -8.94967
587 1 18.8694 18.8697 12.5794 -8.94942
588 1 20.4414 20.4418 14.152 -8.94952
589 1 1.57199 11.007 17.2974 -8.94953
590 1 4.71629 11.007 17.2978 -8.94898
591 1 7.86213 11.007 17.297 -8.95013
592 1 11.0073 11.007 17.301 -8.95208
593 1 14.1556 11.007 17.3026 -8.94877
594 1 17.2991 11.007 17.2987 -8.94928
595 1 20.4422 11.007 17.2974 -8.94951
596 1 22.0139 12.5796 15.7251 -8.94962
597 1 1.57201 14.152 17.2974 -8.94951
598 1 3.14354 12.5795 15.7255 -8.94944
599 1 4.71635 14.152 17.298 -8.94933
600 1 6.28794 12.5792 15.7262 -8.94839
601 1 7.86184 14.1519 17.2986 -8.95329
602 1 9.43522 12.5781 15.7224 -8.99525
603 1 11.0064 14.153 17.3002 -8.95188
604 1 12.5861 12.5833 15.7384 -8.95739
605 1 14.1551 14.1548 17.3025 -8.95066
606 1 15.73 12.5813 15.7295 -8.94726
607 1 17.299 14.153 17.2986 -8.94906
608 1 18.8714 12.5799 15.7257 -8.94936
609 1 20.4422 14.1522 17.2974 -8.94946
610 1 -0.000129401 15.7247 15.7249 -8.94982
611 1 1.57186 17.2971 17.2974 -8.9498
612 1 3.14319 15.725 15.7258 -8.95014
613 1 4.71574 17.298 17.2987 -8.94942
614 1 6.28614 15.7275 15.7294 -8.94993
615 1 7.8615 17.2979 17.2983 -8.94914
616 1 9.43359 15.7272 15.7274 -8.94764
617 1 11.0069 17.2982 17.2984 -8.94946
618 1 12.5819 15.7289 15.7298 -8.94847
619 1 14.1531 17.2988 17.2988 -8.94942
620 1 15.7302 15.7299 15.7298 -8.94318
621 1 17.2987 17.2986 17.2984 -8.94783
622 1 18.8711 15.7256 15.7255 -8.94991
623 1 20.442 17.2973 17.2973 -8.94956
624 1 22.0134 18.8696 15.7248 -8.94956
625 1 1.57178 20.4419 17.2973 -8.94917
626 1 3.14312 18.8705 15.7259 -8.94824
627 1 4.71664 20.442 17.2975 -8.94956
628 1 6.28854 18.8709 15.726 -8.94945
629 1 7.86186 20.442 17.2975 -8.94939
630 1 9.43433 18.8709 15.7258 -8.94901
631 1 11.007 20.4421 17.2975 -8.94943
632 1 12.5803 18.8713 15.7259 -8.94903
633 1 14.1523 20.4422 17.2974 -8.94945
634 1 15.7259 18.8714 15.7257 -8.94953
635 1 17.2974 20.4422 17.2973 -8.94949
636 1 18.8696 18.8698 15.7246 -8.94983
637 1 20.4415 20.4418 17.2969 -8.94959
638 1 1.5722 11.007 20.4416 -8.94958
639 1 4.71675 11.007 20.4416 -8.94965
640 1 7.86176 11.007 20.4416 -8.94921
641 1 11.0066 11.007 20.4423 -8.94948
642 1 14.1529 11.007 20.4423 -8.95027
643 1 17.2978 11.007 20.4418 -8.94944
644 1 20.4419 11.007 20.4416 -8.94954
645 1 9.21529e-05 12.5795 18.8695 -8.94954
646 1 1.57222 14.1519 20.4416 -8.94955
647 1 3.14433 12.5794 18.8696 -8.94954
648 1 4.71682 14.1518 20.4416 -8.94964
649 1 6.28916 12.5793 18.8697 -8.94983
650 1 7.86177 14.1519 20.4415 -8.95021
651 1 9.43413 12.5795 18.8696 -8.94763
652 1 11.0066 14.1523 20.4418 -8.9502
653 1 12.5801 12.5799 18.8725 -8.95232
654 1 14.1526 14.1526 20.4423 -8.95069
655 1 15.7261 12.58 18.8711 -8.94926
656 1 17.2977 14.1524 20.4418 -8.94935
657 1 18.8701 12.5796 18.8698 -8.94944
658 1 20.4419 14.152 20.4416 -8.94952
659 1 22.014 15.7245 18.8694 -8.94953
660 1 1.57222 17.2968 20.4416 -8.94968
661 1 3.14437 15.7244 18.8696 -8.94964
662 1 4.71671 17.2971 20.4415 -8.95012
663 1 6.28911 15.7246 18.8702 -8.95092
664 1 7.86173 17.2973 20.4416 -8.94953
665 1 9.43402 15.7252 18.8702 -8.94948
666 1 11.0069 17.2975 20.4416 -8.94955
667 1 12.5796 15.7253 18.8707 -8.95012
668 1 14.1522 17.2975 20.4418 -8.94972
669 1 15.7258 15.7258 18.871 -8.9497
670 1 17.2976 17.2976 20.4418 -8.94944
671 1 18.87 15.7249 18.8697 -8.94944
672 1 20.4418 17.297 20.4416 -8.94953
673 1 -3.79421e-05 18.8694 18.8694 -8.94957
674 1 1.57211 20.4417 20.4415 -8.94939
675 1 3.14419 18.8697 18.8697 -8.94946
676 1 4.71699 20.4417 20.4415 -8.94956
677 1 6.2893 18.8696 18.8697 -8.94949
678 1 7.86196 20.4418 20.4416 -8.94953
353 1 3.1444 12.5794 22.0136 -8.94954
357 1 9.43428 12.5794 22.0134 -8.94917
359 1 12.5797 12.5796 22.0128 -8.9515
365 1 6.33913e-05 15.7244 22.0137 -8.94952
369 1 6.28907 15.7247 22.0129 -8.95065
389 1 15.7247 18.8698 22.0136 -8.94964
375 1 15.7254 15.7254 22.0131 -8.94998
385 1 9.43443 18.8697 22.0135 -8.94951
381 1 3.14425 18.8696 22.0134 -8.94952
363 1 18.8699 12.5796 22.0136 -8.94948
387 1 12.5795 18.8697 22.0135 -8.94946
526 1 1.57032 17.298 11.0074 -8.94927
