ITEM: TIMESTEP
75
ITEM: NUMBER OF ATOMS
688
ITEM: BOX BOUNDS pp pp pp
0.0000000000000000e+00 2.2013900999999997e+01
0.0000000000000000e+00 2.2013900999999997e+01
0.0000000000000000e+00 2.2013900999999997e+01
ITEM: ATOMS id type x y z c_pot
190 1 1.5695 7.86155 11.0072 -8.95148
2 1 1.57202 1.57217 1.57203 -8.9492
175 1 18.8694 9.43428 9.43452 -8.94825
4 1 4.71699 1.57209 1.57196 -8.94964
174 1 15.7229 9.43506 9.43498 -8.94432
6 1 7.86203 1.57208 1.57196 -8.94952
7 1 9.43452 1.62668e-15 -0.000166367 -8.94958
8 1 11.007 1.57206 1.57197 -8.94954
173 1 12.5663 9.43143 9.42376 -8.94047
10 1 14.152 1.57207 1.57206 -8.94951
172 1 9.35534 9.18386 9.42811 -8.12877
12 1 17.297 1.57204 1.57208 -8.94948
189 1 20.4414 4.7167 11.007 -8.94956
14 1 20.4415 1.57226 1.57228 -8.94956
171 1 6.27528 9.42008 9.42801 -9.00252
16 1 1.57208 4.71704 1.57198 -8.94982
170 1 3.13957 9.4337 9.43313 -8.95056
18 1 4.71622 4.71628 1.57086 -8.94953
19 1 6.28949 3.14444 -0.000329305 -8.94951
20 1 7.86177 4.71632 1.57115 -8.94919
169 1 22.0125 9.43441 9.43429 -8.9498
22 1 11.007 4.71623 1.57126 -8.94937
188 1 17.2976 4.71629 11.0068 -8.94908
24 1 14.1524 4.71616 1.57131 -8.94971
168 1 18.8698 6.28885 9.43443 -8.94948
26 1 17.2978 4.71614 1.57148 -8.94847
167 1 15.7262 6.28776 9.4342 -8.9465
28 1 20.4418 4.71695 1.57212 -8.94958
166 1 12.579 6.2883 9.43324 -8.94722
30 1 1.57216 7.86206 1.57203 -8.94944
31 1 3.14456 6.28963 -0.00021752 -8.94973
32 1 4.7168 7.86228 1.57166 -8.94974
165 1 9.42926 6.29155 9.43399 -9.00686
34 1 7.86167 7.86177 1.57018 -8.95232
35 1 9.43423 6.28897 -0.000804284 -8.94964
36 1 11.0067 7.86116 1.56989 -8.9506
164 1 6.27854 6.27822 9.43363 -8.94363
38 1 14.1534 7.86067 1.56936 -8.95131
163 1 3.14025 6.28712 9.43444 -8.94936
40 1 17.2979 7.86148 1.57141 -8.94927
162 1 22.0128 6.28898 9.43448 -8.94991
42 1 20.4418 7.86193 1.57206 -8.94949
43 1 22.0139 9.43449 -0.000141258 -8.94959
161 1 18.8693 3.14437 9.43449 -8.94958
45 1 6.28931 9.43463 -0.000301624 -8.94952
160 1 15.725 3.14391 9.4344 -8.94957
159 1 12.58 3.14364 9.43413 -8.94871
48 1 15.7253 9.43416 -0.000769579 -8.94938
184 1 4.71337 4.71345 11.0082 -8.94751
50 1 -0.000210149 1.71698e-15 3.14468 -8.94958
51 1 1.57188 1.57207 4.7169 -8.94952
52 1 3.14429 1.6732e-15 3.14426 -8.94955
53 1 4.71637 1.57134 4.71629 -8.95001
54 1 6.2895 1.54821e-15 3.14428 -8.94956
55 1 7.862 1.57143 4.71644 -8.94959
56 1 9.43459 3.65839e-16 3.14427 -8.94954
57 1 11.0073 1.57152 4.7165 -8.94954
58 1 12.5796 3.66741e-16 3.14436 -8.9495
59 1 14.1523 1.57154 4.71684 -8.95051
60 1 15.7246 1.7429e-15 3.14451 -8.94995
61 1 17.2969 1.57214 4.71719 -8.94968
62 1 18.8692 1.74884e-15 3.14477 -8.94968
63 1 20.4414 1.57226 4.71716 -8.94956
64 1 22.0135 3.14447 3.14446 -8.9495
65 1 1.57083 4.71626 4.71619 -8.94948
66 1 3.14355 3.14369 3.14352 -8.94816
67 1 4.713 4.71314 4.71295 -8.94416
68 1 6.28912 3.14363 3.14362 -8.94959
69 1 7.86097 4.71381 4.71442 -8.94879
70 1 9.43453 3.14366 3.14375 -8.94941
71 1 11.0076 4.71421 4.71476 -8.94771
72 1 12.5798 3.14365 3.1439 -8.94915
73 1 14.1546 4.71305 4.71456 -8.9494
74 1 15.7253 3.14338 3.14387 -8.94935
75 1 17.2977 4.71622 4.71679 -8.95003
76 1 18.8694 3.1444 3.1446 -8.94973
77 1 20.4414 4.71683 4.71698 -8.94981
78 1 22.0138 6.28949 3.14443 -8.94981
79 1 1.5716 7.86212 4.71658 -8.94981
80 1 3.14378 6.28935 3.14372 -8.95036
81 1 4.71494 7.86199 4.7151 -8.95172
82 1 6.28706 6.28721 3.14029 -8.9503
83 1 7.85668 7.85628 4.70669 -8.95536
84 1 9.43408 6.28736 3.14158 -8.94804
85 1 11.0077 7.85768 4.70861 -8.95211
86 1 12.5805 6.28736 3.14152 -8.94948
87 1 14.1628 7.852 4.70621 -8.93413
88 1 15.7278 6.2862 3.14139 -8.94553
89 1 17.3002 7.86043 4.71552 -8.95064
90 1 18.8703 6.2889 3.14408 -8.94968
91 1 20.4421 7.8618 4.7168 -8.95006
92 1 -1.23792e-05 9.43445 3.14432 -8.94955
93 1 3.14404 9.43455 3.14387 -8.94898
94 1 6.28924 9.43533 3.14372 -8.94939
95 1 9.43488 9.4344 3.14305 -8.95059
96 1 12.582 9.43341 3.13743 -8.95812
97 1 15.7274 9.43337 3.14172 -8.94786
98 1 18.8704 9.43423 3.14398 -8.94934
99 1 22.0137 1.37398e-15 6.28958 -8.94959
100 1 1.57182 1.57203 7.86197 -8.94954
101 1 3.14414 1.04007e-15 6.28929 -8.94942
102 1 4.71611 1.57117 7.86162 -8.94939
103 1 6.28925 1.30659e-15 6.28912 -8.95067
104 1 7.86193 1.57067 7.86182 -8.95146
105 1 9.43477 8.88195e-16 6.28916 -8.95021
106 1 11.0071 1.57163 7.862 -8.94965
107 1 12.5796 1.31825e-15 6.28951 -8.95032
108 1 14.1523 1.57186 7.86201 -8.94941
109 1 15.7246 1.80912e-15 6.28961 -8.94952
110 1 17.297 1.57211 7.86204 -8.94955
111 1 18.8692 1.64532e-15 6.28962 -8.94956
112 1 20.4414 1.57222 7.86205 -8.94958
113 1 22.0134 3.14439 6.28946 -8.94951
114 1 1.57079 4.71616 7.86171 -8.94941
115 1 3.14339 3.14345 6.28885 -8.94923
116 1 4.71329 4.71312 7.86041 -8.94775
117 1 6.28794 3.14106 6.28788 -8.95166
118 1 7.85911 4.70851 7.86015 -8.9597
119 1 9.43475 3.14193 6.28834 -8.95031
120 1 11.0065 4.7145 7.86135 -8.95286
121 1 12.5799 3.14256 6.28912 -8.95219
122 1 14.1528 4.71563 7.86214 -8.949
123 1 15.7248 3.14398 6.28965 -8.94959
124 1 17.2975 4.71638 7.86201 -8.94903
125 1 18.8693 3.14444 6.2896 -8.94947
126 1 20.4414 4.71672 7.86197 -8.94955
127 1 -0.00108998 6.2891 6.28915 -8.95015
128 1 1.5692 7.86128 7.86126 -8.95164
129 1 3.14008 6.28717 6.28706 -8.95016
130 1 4.70498 7.8565 7.85743 -8.95588
131 1 6.27613 6.2764 6.27657 -8.92815
132 1 7.81903 7.82262 7.82451 -8.8445
133 1 9.43367 6.28067 6.28368 -8.949
134 1 11.0225 7.84982 7.83595 -8.89698
135 1 12.5859 6.27957 6.2824 -8.95058
136 1 14.1574 7.85909 7.86138 -8.95049
137 1 15.727 6.28763 6.28885 -8.95059
138 1 17.2983 7.86154 7.86255 -8.95065
139 1 18.8697 6.28914 6.28959 -8.94999
140 1 20.4413 7.86174 7.86199 -8.95008
141 1 22.0136 9.43453 6.28921 -8.94977
142 1 3.14303 9.43517 6.28858 -8.94977
143 1 6.28627 9.437 6.28746 -8.9531
144 1 9.42295 9.41357 6.28381 -8.91548
145 1 12.6138 9.40726 6.25645 -8.8772
146 1 15.733 9.43246 6.28629 -8.95645
147 1 18.8711 9.43427 6.28928 -8.9513
148 1 -0.000252903 1.07269e-15 9.43452 -8.94959
149 1 3.14409 1.02018e-15 9.43451 -8.9495
150 1 6.28886 -6.44332e-17 9.43438 -8.95034
151 1 9.43477 1.42027e-15 9.43438 -8.94857
152 1 12.5799 1.99261e-15 9.43435 -8.94944
153 1 15.7247 1.60024e-15 9.43447 -8.94965
154 1 18.8692 7.79292e-16 9.43451 -8.9496
155 1 -0.000472819 3.14435 9.43452 -8.94954
156 1 3.14333 3.14347 9.4345 -8.94948
157 1 6.28719 3.14061 9.43421 -8.94953
158 1 9.43444 3.14332 9.43427 -8.94631
177 1 4.71613 1.57124 11.0073 -8.94936
181 1 17.297 1.57209 11.0069 -8.94956
187 1 14.1529 4.71559 11.0062 -8.94875
3 1 3.14468 1.56254e-15 -0.000154834 -8.94965
11 1 15.7243 3.61965e-16 -0.000112995 -8.9496
15 1 22.0139 3.1447 -0.000132804 -8.94961
41 1 18.8695 6.28938 -0.000215448 -8.94953
37 1 12.5795 6.28896 -0.000753661 -8.94974
176 1 1.57182 1.57204 11.0071 -8.94953
343 1 18.8697 9.43439 18.8696 -8.9495
178 1 7.86178 1.57045 11.0069 -8.95145
179 1 11.0073 1.57136 11.0066 -8.9496
180 1 14.1523 1.57184 11.0068 -8.94941
342 1 15.7256 9.43406 18.8707 -8.94928
182 1 20.4414 1.57222 11.007 -8.94958
341 1 12.5799 9.43409 18.8721 -8.95218
340 1 9.4341 9.4344 18.8698 -8.94784
185 1 7.85855 4.70774 11.0075 -8.95791
186 1 11.0072 4.71358 11.0061 -8.95057
47 1 12.5796 9.43435 22.0128 -8.95145
339 1 6.28916 9.43459 18.8698 -8.9498
338 1 3.14438 9.43447 18.8695 -8.94955
337 1 -3.88242e-06 9.43447 18.8693 -8.94957
191 1 4.7061 7.85824 11.0095 -8.95838
192 1 7.81908 7.8233 11.0394 -8.90145
193 1 11.027 7.85071 11.0274 -8.95459
194 1 14.157 7.85971 11.0051 -8.95336
195 1 17.2986 7.86123 11.0063 -8.94988
196 1 20.4415 7.8617 11.0069 -8.94995
197 1 22.0137 1.68496e-15 12.5795 -8.94958
198 1 1.57189 1.57207 14.1521 -8.94954
199 1 3.14414 1.53465e-15 12.5797 -8.94943
200 1 4.71631 1.57132 14.1527 -8.94999
201 1 6.28915 7.92903e-16 12.5798 -8.95057
202 1 7.86183 1.57114 14.1527 -8.94972
203 1 9.43474 1.74844e-15 12.5798 -8.95087
204 1 11.0074 1.57108 14.1527 -8.94983
205 1 12.5797 1.76313e-15 12.5794 -8.95043
206 1 14.1524 1.57132 14.1522 -8.9507
207 1 15.7246 1.28661e-15 12.5793 -8.94953
208 1 17.297 1.5721 14.1518 -8.94967
209 1 18.8692 1.37552e-15 12.5794 -8.94956
210 1 20.4414 1.57224 14.1519 -8.94955
211 1 -0.00044895 3.14438 12.5796 -8.94948
212 1 1.57093 4.71628 14.1527 -8.94972
213 1 3.14344 3.14353 12.5801 -8.94923
214 1 4.713 4.71312 14.1558 -8.94476
215 1 6.28789 3.14096 12.5809 -8.95146
216 1 7.86031 4.71269 14.1549 -8.94797
217 1 9.43475 3.14047 12.5804 -8.95273
218 1 11.0082 4.71225 14.155 -8.9469
219 1 12.58 3.14191 12.5796 -8.95268
220 1 14.1551 4.71191 14.1547 -8.95037
221 1 15.7249 3.14388 12.5792 -8.9495
222 1 17.2979 4.71609 14.1521 -8.95021
223 1 18.8693 3.1444 12.5794 -8.94945
224 1 20.4415 4.7168 14.152 -8.94979
225 1 22.013 6.28912 12.5797 -8.95016
226 1 1.57114 7.86175 14.1527 -8.94958
227 1 3.14048 6.28743 12.5814 -8.95091
228 1 4.71392 7.86125 14.1541 -8.95114
229 1 6.27673 6.27638 12.5912 -8.93001
230 1 7.854 7.85496 14.1625 -8.98723
231 1 9.43442 6.27281 12.5838 -8.96143
232 1 11.011 7.85366 14.1637 -8.98032
233 1 12.5862 6.27672 12.5863 -8.955
234 1 14.1679 7.84719 14.1672 -8.92562
235 1 15.7271 6.28747 12.5795 -8.95068
236 1 17.3014 7.85998 14.1538 -8.95178
237 1 18.8699 6.28902 12.5793 -8.9497
238 1 20.4422 7.86166 14.1523 -8.95032
239 1 22.0132 9.43435 12.5798 -8.94995
240 1 3.14133 9.43424 12.5808 -8.94804
241 1 6.28392 9.43455 12.5823 -8.99874
242 1 9.42898 9.3747 12.5993 -9.18519
243 1 12.6252 9.3918 12.6278 -8.88288
244 1 15.7348 9.43224 12.5831 -8.96041
245 1 18.8714 9.43428 12.5796 -8.95192
246 1 -0.000203915 1.0362e-15 15.7244 -8.94959
247 1 1.57199 1.57215 17.297 -8.94924
248 1 3.14425 1.33038e-15 15.7248 -8.94957
249 1 4.71686 1.57201 17.2972 -8.9496
250 1 6.28935 1.57644e-15 15.7249 -8.9496
251 1 7.86196 1.57202 17.2972 -8.94944
252 1 9.43454 1.76877e-15 15.7249 -8.94947
253 1 11.007 1.57198 17.2972 -8.94947
254 1 12.5797 1.37067e-15 15.7249 -8.9496
255 1 14.1521 1.57189 17.2972 -8.94947
256 1 15.7247 5.33756e-16 15.7246 -8.95005
257 1 17.2971 1.57194 17.2971 -8.94952
258 1 18.8692 5.19554e-16 15.7243 -8.94969
259 1 20.4415 1.57224 17.2968 -8.94962
260 1 22.0135 3.14445 15.7246 -8.94957
261 1 1.572 4.71694 17.2972 -8.94978
262 1 3.1435 3.14365 15.7255 -8.94831
263 1 4.71599 4.71605 17.2984 -8.94931
264 1 6.28882 3.1433 15.7256 -8.94949
265 1 7.86167 4.71623 17.2981 -8.94917
266 1 9.4344 3.14331 15.7255 -8.94905
267 1 11.0069 4.71605 17.2981 -8.94947
268 1 12.5801 3.14297 15.7255 -8.94905
269 1 14.1528 4.71554 17.2983 -8.94939
270 1 15.7255 3.14298 15.7253 -8.94954
271 1 17.2982 4.71572 17.298 -8.94793
272 1 18.8694 3.14435 15.7244 -8.94982
273 1 20.4419 4.71683 17.2971 -8.94956
274 1 -0.000120807 6.28933 15.7247 -8.94979
275 1 1.57204 7.86197 17.2972 -8.94953
276 1 3.14346 6.2891 15.7255 -8.95012
277 1 4.71643 7.86197 17.2978 -8.94931
278 1 6.28634 6.28656 15.7292 -8.94962
279 1 7.86177 7.86198 17.2987 -8.95324
280 1 9.43367 6.28704 15.7272 -8.94767
281 1 11.0063 7.86107 17.2999 -8.95178
282 1 12.5815 6.28555 15.7291 -8.94834
283 1 14.1545 7.85951 17.3018 -8.95065
284 1 15.7294 6.28469 15.729 -8.94337
285 1 17.2984 7.86122 17.2982 -8.94915
286 1 18.8707 6.28864 15.7252 -8.94986
287 1 20.442 7.86186 17.2971 -8.9495
288 1 22.0139 9.43439 15.7248 -8.94962
289 1 3.14363 9.43447 15.7254 -8.94947
290 1 6.28792 9.43479 15.7264 -8.94842
291 1 9.43482 9.4357 15.7231 -8.99598
292 1 12.5853 9.43097 15.7375 -8.95729
293 1 15.7291 9.43285 15.7287 -8.9474
294 1 18.8709 9.43414 15.7253 -8.94937
295 1 22.0138 1.2682e-15 18.8692 -8.94939
296 1 1.57223 1.57225 20.4415 -8.94944
297 1 3.14462 1.24523e-15 18.8693 -8.9496
298 1 4.71713 1.57226 20.4415 -8.94959
299 1 6.28957 1.04266e-15 18.8693 -8.94954
300 1 7.86204 1.57222 20.4415 -8.94957
301 1 9.4345 1.79693e-15 18.8693 -8.94958
302 1 11.007 1.5722 20.4415 -8.94957
303 1 12.5794 1.70619e-15 18.8693 -8.94956
304 1 14.1519 1.57221 20.4415 -8.94958
305 1 15.7244 1.25e-15 18.8693 -8.94955
306 1 17.2968 1.57222 20.4415 -8.9496
307 1 18.8693 6.48226e-16 18.8692 -8.94946
308 1 20.4416 1.5723 20.4415 -8.94936
309 1 -2.72801e-05 3.14466 18.8693 -8.9496
310 1 1.57228 4.71716 20.4415 -8.94967
311 1 3.14437 3.14439 18.8696 -8.94944
312 1 4.71686 4.7169 20.4416 -8.95004
313 1 6.28946 3.14441 18.8695 -8.94952
314 1 7.86185 4.71674 20.4416 -8.94952
315 1 9.43444 3.1443 18.8695 -8.94953
316 1 11.0069 4.71666 20.4416 -8.94955
317 1 12.5795 3.1443 18.8695 -8.94955
318 1 14.152 4.71666 20.4417 -8.9497
319 1 15.7246 3.14422 18.8696 -8.94956
320 1 17.2973 4.71664 20.4417 -8.94947
321 1 18.8695 3.14438 18.8694 -8.94914
322 1 20.4417 4.71709 20.4415 -8.94958
323 1 22.0139 6.28954 18.8693 -8.94956
324 1 1.57224 7.86204 20.4416 -8.94957
325 1 3.14447 6.28954 18.8695 -8.94961
326 1 4.71689 7.86208 20.4417 -8.94961
327 1 6.2892 6.2893 18.8701 -8.95081
328 1 7.86182 7.86196 20.4416 -8.95022
329 1 9.43411 6.28885 18.8701 -8.94944
330 1 11.0066 7.86165 20.4418 -8.95016
331 1 12.5795 6.28882 18.8704 -8.95004
332 1 14.1524 7.86144 20.4421 -8.95063
333 1 15.7254 6.28846 18.8706 -8.94971
334 1 17.2974 7.86174 20.4417 -8.9494
335 1 18.8697 6.2893 18.8695 -8.94951
336 1 20.4417 7.862 20.4416 -8.94957
46 1 9.43428 9.43454 22.0134 -8.94927
5 1 6.2896 8.03772e-16 22.0137 -8.94957
9 1 12.5794 7.07459e-16 22.0138 -8.94957
44 1 3.14447 9.4345 22.0137 -8.94956
39 1 15.7251 6.28879 22.0132 -8.94995
17 1 3.14444 3.14446 22.0135 -8.94952
21 1 9.43448 3.14436 22.0136 -8.94954
25 1 15.7245 3.14437 22.0137 -8.94967
27 1 18.8694 3.14447 22.0137 -8.94925
29 1 1.7366e-05 6.28959 22.0138 -8.94955
33 1 6.28921 6.2893 22.013 -8.95057
1 1 -0.000118041 1.2754e-15 22.0138 -8.94934
13 1 18.8692 6.88036e-16 22.0138 -8.94944
23 1 12.5795 3.14437 22.0136 -8.9495
49 1 18.8696 9.43442 22.0137 -8.94954
183 1 1.57081 4.71619 11.0073 -8.94928
344 1 1.57213 11.007 1.57198 -8.94958
345 1 4.71663 11.007 1.57159 -8.94963
346 1 7.86191 11.007 1.57213 -8.94819
347 1 11.007 11.007 1.57137 -8.94726
348 1 14.1539 11.007 1.56921 -8.94953
349 1 17.2979 11.007 1.57138 -8.94949
350 1 20.4418 11.007 1.57203 -8.94955
351 1 22.0139 12.5794 -0.000141258 -8.94959
352 1 1.57216 14.1518 1.57203 -8.94944
688 3 10.1759 11.007 9.46791 2.27834
354 1 4.7168 14.1516 1.57166 -8.94974
355 1 6.28931 12.5793 -0.000301624 -8.94952
356 1 7.86167 14.1521 1.57018 -8.95232
511 1 18.8693 18.8695 9.43449 -8.94958
358 1 11.0067 14.1527 1.56989 -8.9506
510 1 15.725 18.87 9.4344 -8.94957
360 1 14.1534 14.1532 1.56936 -8.95131
361 1 15.7253 12.5797 -0.000769579 -8.94938
362 1 17.2979 14.1524 1.57141 -8.94927
538 1 17.297 20.4418 11.0069 -8.94956
364 1 20.4418 14.152 1.57206 -8.94949
509 1 12.58 18.8703 9.43413 -8.94871
366 1 1.57208 17.2969 1.57198 -8.94982
367 1 3.14456 15.7243 -0.00021752 -8.94973
368 1 4.71622 17.2976 1.57086 -8.94953
508 1 9.43444 18.8706 9.43427 -8.94631
370 1 7.86177 17.2976 1.57115 -8.94919
371 1 9.43423 15.7249 -0.000804284 -8.94964
372 1 11.007 17.2977 1.57126 -8.94937
507 1 6.28719 18.8733 9.43421 -8.94953
374 1 14.1524 17.2977 1.57131 -8.94971
506 1 3.14333 18.8704 9.4345 -8.94948
376 1 17.2978 17.2978 1.57148 -8.94847
505 1 -0.000472819 18.8695 9.43452 -8.94954
378 1 20.4418 17.2969 1.57212 -8.94958
504 1 18.8698 15.725 9.43443 -8.94948
380 1 1.57202 20.4417 1.57203 -8.9492
503 1 15.7262 15.7261 9.4342 -8.9465
382 1 4.71699 20.4418 1.57196 -8.94964
383 1 6.28949 18.8695 -0.000329305 -8.94951
384 1 7.86203 20.4418 1.57196 -8.94952
502 1 12.579 15.7256 9.43324 -8.94722
386 1 11.007 20.4418 1.57197 -8.94954
534 1 4.71613 20.4427 11.0073 -8.94936
388 1 14.152 20.4418 1.57206 -8.94951
501 1 9.42926 15.7224 9.43399 -9.00686
390 1 17.297 20.4419 1.57208 -8.94948
500 1 6.27854 15.7357 9.43363 -8.94363
392 1 20.4415 20.4416 1.57228 -8.94956
393 1 1.57163 11.007 4.71633 -8.94946
394 1 4.71556 11.007 4.71515 -8.94604
395 1 7.86453 11.007 4.71935 -8.94602
396 1 11.0108 11.007 4.71875 -8.99388
397 1 14.161 11.007 4.70834 -8.94241
398 1 17.3004 11.007 4.71526 -8.9492
399 1 20.4423 11.007 4.71666 -8.94987
400 1 -1.23792e-05 12.5795 3.14432 -8.94955
401 1 1.5716 14.1518 4.71658 -8.94981
402 1 3.14404 12.5793 3.14387 -8.94898
403 1 4.71494 14.1519 4.7151 -8.95172
404 1 6.28924 12.5786 3.14372 -8.94939
405 1 7.85668 14.1576 4.70669 -8.95536
406 1 9.43488 12.5795 3.14305 -8.95059
407 1 11.0077 14.1562 4.70861 -8.95211
408 1 12.582 12.5805 3.13743 -8.95812
409 1 14.1628 14.1619 4.70621 -8.93413
410 1 15.7274 12.5805 3.14172 -8.94786
411 1 17.3002 14.1535 4.71552 -8.95064
412 1 18.8704 12.5797 3.14398 -8.94934
413 1 20.4421 14.1521 4.7168 -8.95006
414 1 22.0138 15.7244 3.14443 -8.94981
415 1 1.57083 17.2976 4.71619 -8.94948
416 1 3.14378 15.7246 3.14372 -8.95036
417 1 4.713 17.3008 4.71295 -8.94416
418 1 6.28706 15.7267 3.14029 -8.9503
419 1 7.86097 17.3001 4.71442 -8.94879
420 1 9.43408 15.7265 3.14158 -8.94804
421 1 11.0076 17.2997 4.71476 -8.94771
422 1 12.5805 15.7265 3.14152 -8.94948
423 1 14.1546 17.3008 4.71456 -8.9494
424 1 15.7278 15.7277 3.14139 -8.94553
425 1 17.2977 17.2977 4.71679 -8.95003
426 1 18.8703 15.725 3.14408 -8.94968
427 1 20.4414 17.2971 4.71698 -8.94981
428 1 22.0135 18.8694 3.14446 -8.9495
429 1 1.57188 20.4418 4.7169 -8.94952
430 1 3.14355 18.8702 3.14352 -8.94816
431 1 4.71637 20.4426 4.71629 -8.95001
432 1 6.28912 18.8703 3.14362 -8.94959
433 1 7.862 20.4425 4.71644 -8.94959
434 1 9.43453 18.8702 3.14375 -8.94941
435 1 11.0073 20.4424 4.7165 -8.94954
436 1 12.5798 18.8703 3.1439 -8.94915
437 1 14.1523 20.4424 4.71684 -8.95051
438 1 15.7253 18.8705 3.14387 -8.94935
439 1 17.2969 20.4418 4.71719 -8.94968
440 1 18.8694 18.8695 3.1446 -8.94973
441 1 20.4414 20.4416 4.71716 -8.94956
442 1 1.57127 11.007 7.86141 -8.94735
443 1 4.7183 11.007 7.86185 -8.94009
444 1 7.88366 11.007 7.8708 -8.95391
445 1 11.0764 11.007 7.67048 -8.21975
446 1 14.16 11.007 7.85566 -8.96841
447 1 17.2991 11.007 7.86226 -8.95114
448 1 20.4418 11.007 7.862 -8.94951
449 1 22.0136 12.5794 6.28921 -8.94977
450 1 1.5692 14.1526 7.86126 -8.95164
451 1 3.14303 12.5787 6.28858 -8.94977
452 1 4.70498 14.1574 7.85743 -8.95588
453 1 6.28627 12.5769 6.28746 -8.9531
454 1 7.81903 14.1913 7.82451 -8.8445
455 1 9.42295 12.6003 6.28381 -8.91548
456 1 11.0225 14.1641 7.83595 -8.89698
457 1 12.6138 12.6066 6.25645 -8.8772
458 1 14.1574 14.1548 7.86138 -8.95049
459 1 15.733 12.5814 6.28629 -8.95645
460 1 17.2983 14.1524 7.86255 -8.95065
461 1 18.8711 12.5796 6.28928 -8.9513
462 1 20.4413 14.1522 7.86199 -8.95008
463 1 -0.00108998 15.7248 6.28915 -8.95015
464 1 1.57079 17.2977 7.86171 -8.94941
465 1 3.14008 15.7267 6.28706 -8.95016
466 1 4.71329 17.3008 7.86041 -8.94775
467 1 6.27613 15.7375 6.27657 -8.92815
468 1 7.85911 17.3054 7.86015 -8.9597
469 1 9.43367 15.7332 6.28368 -8.949
470 1 11.0065 17.2994 7.86135 -8.95286
471 1 12.5859 15.7343 6.2824 -8.95058
472 1 14.1528 17.2983 7.86214 -8.949
473 1 15.727 15.7263 6.28885 -8.95059
474 1 17.2975 17.2975 7.86201 -8.94903
475 1 18.8697 15.7248 6.28959 -8.94999
476 1 20.4414 17.2972 7.86197 -8.94955
477 1 22.0134 18.8695 6.28946 -8.94951
478 1 1.57182 20.4419 7.86197 -8.94954
479 1 3.14339 18.8704 6.28885 -8.94923
480 1 4.71611 20.4427 7.86162 -8.94939
481 1 6.28794 18.8728 6.28788 -8.95166
482 1 7.86193 20.4432 7.86182 -8.95146
483 1 9.43475 18.872 6.28834 -8.95031
484 1 11.0071 20.4423 7.862 -8.94965
485 1 12.5799 18.8713 6.28912 -8.95219
486 1 14.1523 20.442 7.86201 -8.94941
487 1 15.7248 18.8699 6.28965 -8.94959
488 1 17.297 20.4418 7.86204 -8.94955
489 1 18.8693 18.8695 6.2896 -8.94947
490 1 20.4414 20.4417 7.86205 -8.94958
491 1 22.0125 12.5795 9.43429 -8.9498
492 1 3.13957 12.5802 9.43313 -8.95056
493 1 6.27528 12.5938 9.42801 -9.00252
494 1 9.35534 12.83 9.42811 -8.12877
495 1 12.5663 12.5825 9.42376 -8.94047
496 1 15.7229 12.5788 9.43498 -8.94432
497 1 18.8694 12.5796 9.43452 -8.94825
498 1 22.0128 15.7249 9.43448 -8.94991
499 1 3.14025 15.7268 9.43444 -8.94936
512 1 1.56941 11.007 11.0072 -8.95119
514 1 7.81807 11.007 10.9712 -9.13079
519 1 1.5695 14.1524 11.0072 -8.95148
532 1 20.4414 17.2972 11.007 -8.94956
527 1 4.71337 17.3005 11.0082 -8.94751
531 1 17.2976 17.2976 11.0068 -8.94908
530 1 14.1529 17.2983 11.0062 -8.94875
373 1 12.5795 15.7249 -0.000753661 -8.94974
377 1 18.8695 15.7245 -0.000215448 -8.94953
379 1 22.0139 18.8692 -0.000132804 -8.94961
687 2 9.45275 11.007 11.7437 0.659071
513 1 4.70664 11.007 11.0055 -8.96106
686 1 20.4416 20.4416 20.4415 -8.94936
515 1 11.1865 11.007 11.1928 -8.37998
516 1 14.1516 11.007 11.0155 -8.99301
517 1 17.2981 11.007 11.0066 -8.94821
518 1 20.4414 11.007 11.0069 -8.94958
685 1 18.8695 18.8695 18.8694 -8.94914
520 1 4.7061 14.1557 11.0095 -8.95838
521 1 7.81908 14.1906 11.0394 -8.90145
522 1 11.027 14.1632 11.0274 -8.95459
523 1 14.157 14.1542 11.0051 -8.95336
524 1 17.2986 14.1527 11.0063 -8.94988
525 1 20.4415 14.1522 11.0069 -8.94995
684 1 17.2968 20.4417 20.4415 -8.9496
683 1 15.7246 18.8697 18.8696 -8.94956
528 1 7.85855 17.3062 11.0075 -8.95791
529 1 11.0072 17.3003 11.0061 -8.95057
391 1 18.8694 18.8694 22.0137 -8.94925
682 1 14.1519 20.4417 20.4415 -8.94958
681 1 12.5795 18.8696 18.8695 -8.94955
533 1 1.57182 20.4419 11.0071 -8.94953
680 1 11.007 20.4417 20.4415 -8.94957
535 1 7.86178 20.4434 11.0069 -8.95145
536 1 11.0073 20.4425 11.0066 -8.9496
537 1 14.1523 20.4421 11.0068 -8.94941
679 1 9.43444 18.8696 18.8695 -8.94953
539 1 20.4414 20.4417 11.007 -8.94958
540 1 1.5712 11.007 14.1527 -8.9494
541 1 4.71449 11.007 14.1533 -8.94743
542 1 7.85993 11.007 14.1532 -8.98107
543 1 11.0215 11.007 14.1664 -9.0348
544 1 14.1649 11.007 14.1645 -8.94314
545 1 17.3015 11.007 14.1543 -8.94943
546 1 20.4424 11.007 14.1524 -8.95003
547 1 22.0132 12.5796 12.5798 -8.94995
548 1 1.57114 14.1522 14.1527 -8.94958
549 1 3.14133 12.5797 12.5808 -8.94804
550 1 4.71392 14.1527 14.1541 -8.95114
551 1 6.28392 12.5794 12.5823 -8.99874
552 1 7.854 14.1589 14.1625 -8.98723
553 1 9.42898 12.6392 12.5993 -9.18519
554 1 11.011 14.1602 14.1637 -8.98032
555 1 12.6252 12.6221 12.6278 -8.88288
556 1 14.1679 14.1667 14.1672 -8.92562
557 1 15.7348 12.5817 12.5831 -8.96041
558 1 17.3014 14.1539 14.1538 -8.95178
559 1 18.8714 12.5796 12.5796 -8.95192
560 1 20.4422 14.1522 14.1523 -8.95032
561 1 22.013 15.7248 12.5797 -8.95016
562 1 1.57093 17.2976 14.1527 -8.94972
563 1 3.14048 15.7265 12.5814 -8.95091
564 1 4.713 17.3008 14.1558 -8.94476
565 1 6.27673 15.7375 12.5912 -8.93001
566 1 7.86031 17.3012 14.1549 -8.94797
567 1 9.43442 15.7411 12.5838 -8.96143
568 1 11.0082 17.3017 14.155 -8.9469
569 1 12.5862 15.7372 12.5863 -8.955
570 1 14.1551 17.302 14.1547 -8.95037
571 1 15.7271 15.7264 12.5795 -8.95068
572 1 17.2979 17.2978 14.1521 -8.95021
573 1 18.8699 15.7249 12.5793 -8.9497
574 1 20.4415 17.2971 14.152 -8.94979
575 1 -0.00044895 18.8695 12.5796 -8.94948
576 1 1.57189 20.4418 14.1521 -8.94954
577 1 3.14344 18.8704 12.5801 -8.94923
578 1 4.71631 20.4426 14.1527 -8.94999
579 1 6.28789 18.8729 12.5809 -8.95146
580 1 7.86183 20.4428 14.1527 -8.94972
581 1 9.43475 18.8734 12.5804 -8.95273
582 1 11.0074 20.4428 14.1527 -8.94983
583 1 12.58 18.872 12.5796 -8.95268
584 1 14.1524 20.4426 14.1522 -8.9507
585 1 15.7249 18.87 12.5792 -8.9495
586 1 17.297 20.4418 14.1518 -8.94967
587 1 18.8693 18.8695 12.5794 -8.94945
588 1 20.4414 20.4417 14.1519 -8.94955
589 1 1.57198 11.007 17.2973 -8.94955
590 1 4.71629 11.007 17.2978 -8.949
591 1 7.86193 11.007 17.2974 -8.95003
592 1 11.0071 11.007 17.3009 -8.95196
593 1 14.1549 11.007 17.3019 -8.94877
594 1 17.2985 11.007 17.2982 -8.94933
595 1 20.442 11.007 17.2972 -8.94955
596 1 22.0139 12.5795 15.7248 -8.94962
597 1 1.57204 14.1519 17.2972 -8.94953
598 1 3.14363 12.5794 15.7254 -8.94947
599 1 4.71643 14.1519 17.2978 -8.94931
600 1 6.28792 12.5791 15.7264 -8.94842
601 1 7.86177 14.1519 17.2987 -8.95324
602 1 9.43482 12.5782 15.7231 -8.99598
603 1 11.0063 14.1528 17.2999 -8.95178
604 1 12.5853 12.5829 15.7375 -8.95729
605 1 14.1545 14.1544 17.3018 -8.95065
606 1 15.7291 12.581 15.7287 -8.9474
607 1 17.2984 14.1527 17.2982 -8.94915
608 1 18.8709 12.5798 15.7253 -8.94937
609 1 20.442 14.152 17.2971 -8.9495
610 1 -0.000120807 15.7246 15.7247 -8.94979
611 1 1.572 17.297 17.2972 -8.94978
612 1 3.14346 15.7248 15.7255 -8.95012
613 1 4.71599 17.2979 17.2984 -8.94931
614 1 6.28634 15.7273 15.7292 -8.94962
615 1 7.86167 17.2977 17.2981 -8.94917
616 1 9.43367 15.7269 15.7272 -8.94767
617 1 11.0069 17.2978 17.2981 -8.94947
618 1 12.5815 15.7284 15.7291 -8.94834
619 1 14.1528 17.2984 17.2983 -8.94939
620 1 15.7294 15.7292 15.729 -8.94337
621 1 17.2982 17.2982 17.298 -8.94793
622 1 18.8707 15.7253 15.7252 -8.94986
623 1 20.4419 17.2971 17.2971 -8.94956
624 1 22.0135 18.8695 15.7246 -8.94957
625 1 1.57199 20.4417 17.297 -8.94924
626 1 3.1435 18.8703 15.7255 -8.94831
627 1 4.71686 20.4419 17.2972 -8.9496
628 1 6.28882 18.8706 15.7256 -8.94949
629 1 7.86196 20.4419 17.2972 -8.94944
630 1 9.4344 18.8706 15.7255 -8.94905
631 1 11.007 20.4419 17.2972 -8.94947
632 1 12.5801 18.8709 15.7255 -8.94905
633 1 14.1521 20.442 17.2972 -8.94947
634 1 15.7255 18.8709 15.7253 -8.94954
635 1 17.2971 20.442 17.2971 -8.94952
636 1 18.8694 18.8695 15.7244 -8.94982
637 1 20.4415 20.4417 17.2968 -8.94962
638 1 1.57222 11.007 20.4416 -8.9496
639 1 4.7168 11.007 20.4417 -8.94965
640 1 7.86177 11.007 20.4417 -8.94932
641 1 11.0066 11.007 20.4422 -8.94954
642 1 14.1527 11.007 20.4421 -8.9502
643 1 17.2974 11.007 20.4417 -8.94948
644 1 20.4417 11.007 20.4416 -8.94958
645 1 -3.88242e-06 12.5794 18.8693 -8.94957
646 1 1.57224 14.1519 20.4416 -8.94957
647 1 3.14438 12.5794 18.8695 -8.94955
648 1 4.71689 14.1518 20.4417 -8.94961
649 1 6.28916 12.5793 18.8698 -8.9498
650 1 7.86182 14.1519 20.4416 -8.95022
651 1 9.4341 12.5795 18.8698 -8.94784
652 1 11.0066 14.1523 20.4418 -8.95016
653 1 12.5799 12.5798 18.8721 -8.95218
654 1 14.1524 14.1525 20.4421 -8.95063
655 1 15.7256 12.5798 18.8707 -8.94928
656 1 17.2974 14.1522 20.4417 -8.9494
657 1 18.8697 12.5795 18.8696 -8.9495
658 1 20.4417 14.1519 20.4416 -8.94957
659 1 22.0139 15.7244 18.8693 -8.94956
660 1 1.57228 17.2967 20.4415 -8.94967
661 1 3.14447 15.7244 18.8695 -8.94961
662 1 4.71686 17.297 20.4416 -8.95004
663 1 6.2892 15.7246 18.8701 -8.95081
664 1 7.86185 17.2972 20.4416 -8.94952
665 1 9.43411 15.7251 18.8701 -8.94944
666 1 11.0069 17.2972 20.4416 -8.94955
667 1 12.5795 15.7251 18.8704 -8.95004
668 1 14.152 17.2972 20.4417 -8.9497
669 1 15.7254 15.7254 18.8706 -8.94971
670 1 17.2973 17.2973 20.4417 -8.94947
671 1 18.8697 15.7246 18.8695 -8.94951
672 1 20.4417 17.2968 20.4415 -8.94958
673 1 -2.72801e-05 18.8692 18.8693 -8.9496
674 1 1.57223 20.4417 20.4415 -8.94944
675 1 3.14437 18.8695 18.8696 -8.94944
676 1 4.71713 20.4416 20.4415 -8.94959
677 1 6.28946 18.8695 18.8695 -8.94952
678 1 7.86204 20.4417 20.4415 -8.94957
353 1 3.14447 12.5794 22.0137 -8.94956
357 1 9.43428 12.5794 22.0134 -8.94927
359 1 12.5796 12.5796 22.0128 -8.95145
365 1 1.7366e-05 15.7243 22.0138 -8.94955
369 1 6.28921 15.7246 22.013 -8.95057
389 1 15.7245 18.8695 22.0137 -8.94967
375 1 15.7251 15.7251 22.0132 -8.94995
385 1 9.43448 18.8695 22.0136 -8.94954
381 1 3.14444 18.8694 22.0135 -8.94952
363 1 18.8696 12.5795 22.0137 -8.94954
387 1 12.5795 18.8695 22.0136 -8.9495
526 1 1.57081 17.2977 11.0073 -8.94928
