ITEM: TIMESTEP
64
ITEM: NUMBER OF ATOMS
688
ITEM: BOX BOUNDS pp pp pp
0.0000000000000000e+00 2.2013900999999997e+01
0.0000000000000000e+00 2.2013900999999997e+01
0.0000000000000000e+00 2.2013900999999997e+01
ITEM: ATOMS id type x y z c_pot
190 1 1.57034 7.86177 11.0072 -8.95124
2 1 1.57228 1.57232 1.57228 -8.94936
175 1 18.8697 9.43421 9.43449 -8.94852
4 1 4.7172 1.5723 1.57227 -8.9497
174 1 15.724 9.43452 9.43465 -8.9437
6 1 7.86208 1.57228 1.57225 -8.94959
7 1 9.43452 1.3942e-15 -5.02311e-05 -8.94963
8 1 11.007 1.57227 1.57224 -8.94961
173 1 12.5671 9.4331 9.42547 -8.93997
10 1 14.1518 1.57229 1.57228 -8.94957
172 1 9.35418 9.19204 9.42747 -8.12882
12 1 17.2968 1.57226 1.57228 -8.94953
189 1 20.4415 4.71703 11.007 -8.94959
14 1 20.4415 1.57238 1.57239 -8.94962
171 1 6.27513 9.42175 9.42855 -9.00281
16 1 1.5723 4.7172 1.57227 -8.94978
170 1 3.14019 9.434 9.43346 -8.95082
18 1 4.71669 4.71671 1.57152 -8.94952
19 1 6.28964 3.14469 -0.000129053 -8.94956
20 1 7.86198 4.71676 1.57173 -8.94926
169 1 22.013 9.43444 9.43437 -8.95
22 1 11.007 4.71671 1.57177 -8.94944
188 1 17.2972 4.71667 11.0069 -8.94917
24 1 14.152 4.71673 1.57185 -8.94976
168 1 18.8696 6.28915 9.43449 -8.94948
26 1 17.2972 4.71665 1.57187 -8.94862
167 1 15.7258 6.28806 9.43436 -8.94685
28 1 20.4416 4.71715 1.5723 -8.9496
166 1 12.5788 6.28887 9.43357 -8.94759
30 1 1.5723 7.86209 1.57227 -8.94951
31 1 3.14473 6.28968 -7.02652e-05 -8.94968
32 1 4.71701 7.86225 1.57201 -8.9497
165 1 9.42998 6.29133 9.43395 -9.0051
34 1 7.86175 7.86186 1.57063 -8.95199
35 1 9.43437 6.28926 -0.000515421 -8.94959
36 1 11.0067 7.86141 1.57047 -8.95027
164 1 6.28065 6.28017 9.43383 -8.94411
38 1 14.1529 7.86105 1.57006 -8.95111
163 1 3.14173 6.28803 9.43454 -8.94935
40 1 17.2972 7.86184 1.57188 -8.94944
162 1 22.0133 6.28932 9.43452 -8.94982
42 1 20.4416 7.86206 1.57228 -8.94956
43 1 22.0139 9.43452 -4.35663e-05 -8.94963
161 1 18.8692 3.14464 9.43452 -8.94963
45 1 6.28944 9.43458 -0.000196051 -8.94958
160 1 15.7247 3.14422 9.43448 -8.94962
159 1 12.5799 3.14389 9.43427 -8.94867
48 1 15.7247 9.43435 -0.000507565 -8.9494
184 1 4.71476 4.71473 11.0078 -8.94783
50 1 -4.91687e-05 1.67698e-15 3.14481 -8.94965
51 1 1.57224 1.57229 4.71717 -8.94963
52 1 3.14462 1.42631e-15 3.14461 -8.94956
53 1 4.71679 1.57177 4.71676 -8.9499
54 1 6.28964 1.10881e-15 3.14465 -8.94958
55 1 7.8621 1.57186 4.71686 -8.94954
56 1 9.43454 6.78776e-16 3.14461 -8.94959
57 1 11.0071 1.57186 4.71683 -8.94953
58 1 12.5795 8.49234e-16 3.14463 -8.94953
59 1 14.1521 1.57187 4.71703 -8.95027
60 1 15.7244 1.43237e-15 3.14469 -8.94981
61 1 17.2967 1.57232 4.71726 -8.94967
62 1 18.8691 1.45811e-15 3.14484 -8.94967
63 1 20.4415 1.57238 4.71725 -8.94961
64 1 22.0137 3.1447 3.1447 -8.94954
65 1 1.57152 4.71672 4.7167 -8.9495
66 1 3.14416 3.1442 3.14414 -8.94843
67 1 4.71423 4.71429 4.71416 -8.94457
68 1 6.28948 3.14424 3.14427 -8.94971
69 1 7.86161 4.71501 4.71545 -8.94905
70 1 9.43454 3.14419 3.14427 -8.94949
71 1 11.0074 4.7151 4.7156 -8.9479
72 1 12.5795 3.14418 3.14435 -8.94926
73 1 14.1537 4.71412 4.71544 -8.94959
74 1 15.7248 3.14399 3.1443 -8.94941
75 1 17.2972 4.71675 4.71709 -8.94997
76 1 18.8692 3.14469 3.14477 -8.94972
77 1 20.4414 4.71709 4.71716 -8.94972
78 1 22.0139 6.28963 3.14469 -8.94975
79 1 1.57197 7.86217 4.71691 -8.94972
80 1 3.14432 6.28958 3.1443 -8.95021
81 1 4.71572 7.86228 4.71582 -8.95146
82 1 6.28784 6.28795 3.14147 -8.95022
83 1 7.85752 7.85743 4.70787 -8.95522
84 1 9.43424 6.28809 3.14253 -8.94814
85 1 11.0072 7.85861 4.71002 -8.95179
86 1 12.5799 6.28813 3.14265 -8.94949
87 1 14.1616 7.85274 4.70748 -8.93373
88 1 15.7268 6.28707 3.14228 -8.94556
89 1 17.2993 7.86088 4.71604 -8.9506
90 1 18.8698 6.28926 3.14442 -8.94967
91 1 20.4419 7.86195 4.71704 -8.94999
92 1 -2.28187e-05 9.43449 3.14462 -8.94958
93 1 3.14432 9.43453 3.14426 -8.94911
94 1 6.28926 9.43526 3.1439 -8.94943
95 1 9.4346 9.43451 3.14286 -8.95058
96 1 12.5814 9.43345 3.13804 -8.95777
97 1 15.7263 9.43376 3.14269 -8.9481
98 1 18.8698 9.43439 3.14439 -8.94939
99 1 22.0138 1.59647e-15 6.28967 -8.94964
100 1 1.57222 1.57227 7.86208 -8.94962
101 1 3.14457 1.34558e-15 6.28956 -8.94949
102 1 4.71667 1.57169 7.86187 -8.94939
103 1 6.28945 1.03921e-15 6.28939 -8.95049
104 1 7.86206 1.57107 7.86196 -8.95134
105 1 9.43468 2.51062e-16 6.28939 -8.95006
106 1 11.0071 1.57178 7.86205 -8.9497
107 1 12.5795 1.59345e-15 6.28957 -8.95021
108 1 14.1521 1.57206 7.86207 -8.94945
109 1 15.7244 1.93035e-15 6.28967 -8.94955
110 1 17.2968 1.57227 7.86208 -8.94959
111 1 18.8691 2.14138e-15 6.28967 -8.94961
112 1 20.4415 1.57236 7.8621 -8.94963
113 1 22.0137 3.14468 6.28963 -8.94958
114 1 1.57158 4.71671 7.86195 -8.94946
115 1 3.14415 3.14413 6.28933 -8.94941
116 1 4.71471 4.71446 7.86103 -8.94802
117 1 6.28856 3.14209 6.28846 -8.95143
118 1 7.86004 4.70963 7.86055 -8.9592
119 1 9.43486 3.1427 6.28879 -8.95005
120 1 11.0068 4.71488 7.86175 -8.95229
121 1 12.5798 3.14308 6.28935 -8.9519
122 1 14.1525 4.71607 7.86241 -8.94916
123 1 15.7245 3.14438 6.28975 -8.94961
124 1 17.2972 4.71672 7.86207 -8.94917
125 1 18.8692 3.14469 6.28966 -8.94954
126 1 20.4415 4.71704 7.86206 -8.94958
127 1 -0.0006325 6.28937 6.2894 -8.95002
128 1 1.57008 7.86157 7.86154 -8.95142
129 1 3.14143 6.28794 6.28786 -8.9501
130 1 4.70668 7.85766 7.85818 -8.95556
131 1 6.27811 6.27825 6.27821 -8.92894
132 1 7.82134 7.82501 7.82608 -8.84694
133 1 9.4344 6.2823 6.28505 -8.94945
134 1 11.0214 7.85192 7.83859 -8.90044
135 1 12.5847 6.2808 6.28407 -8.95153
136 1 14.1566 7.85965 7.86242 -8.95039
137 1 15.7261 6.28829 6.28941 -8.95051
138 1 17.2981 7.86152 7.86248 -8.95017
139 1 18.8695 6.28937 6.28966 -8.94977
140 1 20.4415 7.86186 7.86203 -8.95
141 1 22.0137 9.43454 6.28941 -8.94979
142 1 3.14343 9.43512 6.28887 -8.94966
143 1 6.28658 9.43724 6.28767 -8.95289
144 1 9.42325 9.41542 6.28351 -8.91579
145 1 12.6135 9.40698 6.25741 -8.87445
146 1 15.7322 9.43262 6.28701 -8.95658
147 1 18.8707 9.43434 6.28946 -8.95119
148 1 -6.27258e-05 1.22479e-15 9.43453 -8.94963
149 1 3.14455 1.47666e-15 9.43453 -8.94957
150 1 6.28921 -7.33138e-17 9.43445 -8.95017
151 1 9.43472 5.47781e-16 9.43447 -8.94901
152 1 12.5797 1.61313e-15 9.43444 -8.94952
153 1 15.7244 2.2531e-15 9.43452 -8.94968
154 1 18.8691 1.53273e-15 9.43453 -8.94963
155 1 -0.000174392 3.14466 9.43453 -8.94959
156 1 3.14411 3.14414 9.43453 -8.94956
157 1 6.28805 3.14173 9.43431 -8.94938
158 1 9.43469 3.14339 9.4344 -8.94672
177 1 4.71669 1.57173 11.0071 -8.94939
181 1 17.2968 1.57226 11.007 -8.94959
187 1 14.1526 4.71609 11.0062 -8.94899
3 1 3.14482 1.15061e-15 -3.83336e-05 -8.94969
11 1 15.7242 7.42766e-17 -3.34452e-05 -8.94964
15 1 22.0139 3.14481 -3.7323e-05 -8.94964
41 1 18.8692 6.28961 -9.58602e-05 -8.94963
37 1 12.5794 6.28931 -0.000456928 -8.94964
176 1 1.57222 1.57227 11.007 -8.94961
343 1 18.8693 9.43449 18.8692 -8.94959
178 1 7.86192 1.57088 11.0069 -8.95128
179 1 11.0072 1.57156 11.0068 -8.94964
180 1 14.1521 1.57206 11.0069 -8.94947
342 1 15.7249 9.4343 18.87 -8.94935
182 1 20.4415 1.57236 11.007 -8.94963
341 1 12.5798 9.43419 18.8714 -8.95186
340 1 9.43416 9.43436 18.8699 -8.94826
185 1 7.85948 4.70899 11.0073 -8.95732
186 1 11.0074 4.71405 11.006 -8.95011
47 1 12.5795 9.43439 22.0129 -8.95132
339 1 6.28928 9.43453 18.8698 -8.94979
338 1 3.14458 9.43448 18.8693 -8.94957
337 1 -2.92372e-05 9.43451 18.8692 -8.94961
191 1 4.70781 7.85923 11.0093 -8.95795
192 1 7.8216 7.82588 11.0378 -8.90437
193 1 11.0244 7.85262 11.0249 -8.95759
194 1 14.1562 7.86028 11.0046 -8.95299
195 1 17.2983 7.86138 11.0064 -8.94958
196 1 20.4415 7.86185 11.0069 -8.94989
197 1 22.0138 1.87119e-15 12.5794 -8.94963
198 1 1.57224 1.57229 14.1519 -8.94963
199 1 3.14458 1.39714e-15 12.5795 -8.94951
200 1 4.71677 1.57177 14.1523 -8.94987
201 1 6.28939 1.15036e-15 12.5796 -8.95038
202 1 7.86196 1.5716 14.1523 -8.9497
203 1 9.43467 2.27375e-15 12.5796 -8.95074
204 1 11.0072 1.57153 14.1523 -8.94977
205 1 12.5796 2.32696e-15 12.5794 -8.95024
206 1 14.1521 1.57177 14.152 -8.95037
207 1 15.7244 1.65704e-15 12.5794 -8.94957
208 1 17.2967 1.5723 14.1518 -8.94966
209 1 18.8691 1.50661e-15 12.5794 -8.94961
210 1 20.4415 1.57237 14.1518 -8.94961
211 1 -0.000168897 3.14467 12.5794 -8.94955
212 1 1.57157 4.71673 14.1523 -8.94968
213 1 3.14416 3.14416 12.5797 -8.94941
214 1 4.71425 4.71431 14.1547 -8.9452
215 1 6.28853 3.14204 12.5804 -8.9512
216 1 7.86088 4.7138 14.1541 -8.94833
217 1 9.43484 3.14131 12.5801 -8.95256
218 1 11.008 4.71342 14.1542 -8.94718
219 1 12.5798 3.1427 12.5795 -8.95218
220 1 14.154 4.71348 14.1537 -8.95047
221 1 15.7245 3.14434 12.5792 -8.94955
222 1 17.2972 4.71671 14.1519 -8.95012
223 1 18.8692 3.14467 12.5794 -8.94952
224 1 20.4415 4.71708 14.1519 -8.94972
225 1 22.0134 6.28939 12.5796 -8.95002
226 1 1.57156 7.86186 14.1523 -8.94953
227 1 3.14175 6.28813 12.5808 -8.95072
228 1 4.71467 7.86161 14.1535 -8.95122
229 1 6.27875 6.27838 12.5897 -8.93093
230 1 7.85421 7.85535 14.1625 -8.98664
231 1 9.43475 6.27419 12.5829 -8.96217
232 1 11.0106 7.8547 14.1625 -8.98029
233 1 12.5846 6.2788 12.5845 -8.95547
234 1 14.1656 7.84913 14.1648 -8.92669
235 1 15.7261 6.28822 12.5791 -8.95061
236 1 17.3001 7.86058 14.1532 -8.95142
237 1 18.8696 6.28932 12.5793 -8.9496
238 1 20.4419 7.86185 14.1521 -8.95017
239 1 22.0134 9.43438 12.5797 -8.94993
240 1 3.142 9.43424 12.5807 -8.94792
241 1 6.28472 9.43491 12.5825 -8.99984
242 1 9.42799 9.37445 12.601 -9.18427
243 1 12.6229 9.3938 12.6246 -8.88553
244 1 15.7337 9.43237 12.5822 -8.95938
245 1 18.8709 9.43432 12.5795 -8.95165
246 1 -4.87019e-05 7.73214e-16 15.7242 -8.94965
247 1 1.57227 1.57232 17.2968 -8.94939
248 1 3.14461 6.40417e-16 15.7244 -8.94958
249 1 4.71711 1.57222 17.2969 -8.94965
250 1 6.28955 1.50116e-15 15.7245 -8.94964
251 1 7.86207 1.57224 17.2969 -8.94953
252 1 9.43453 1.58489e-15 15.7245 -8.94953
253 1 11.007 1.57223 17.2969 -8.94955
254 1 12.5795 1.69895e-15 15.7245 -8.94961
255 1 14.1519 1.57218 17.2969 -8.94952
256 1 15.7244 8.54512e-16 15.7244 -8.94987
257 1 17.2968 1.57222 17.2968 -8.94956
258 1 18.8691 1.17992e-15 15.7242 -8.94967
259 1 20.4415 1.57237 17.2967 -8.94965
260 1 22.0137 3.14469 15.7243 -8.94959
261 1 1.57223 4.71714 17.2968 -8.94974
262 1 3.14413 3.14418 15.7249 -8.94857
263 1 4.71647 4.71646 17.2978 -8.94918
264 1 6.28922 3.1439 15.725 -8.9496
265 1 7.86195 4.71669 17.2975 -8.9493
266 1 9.43448 3.14394 15.7249 -8.94916
267 1 11.0069 4.71662 17.2975 -8.94954
268 1 12.5798 3.1437 15.725 -8.94915
269 1 14.1523 4.71632 17.2976 -8.9494
270 1 15.7249 3.14381 15.7248 -8.94958
271 1 17.2975 4.71645 17.2974 -8.94827
272 1 18.8692 3.14468 15.7243 -8.94979
273 1 20.4417 4.7171 17.2968 -8.94957
274 1 -7.48723e-05 6.28953 15.7244 -8.94971
275 1 1.57219 7.86203 17.2969 -8.94957
276 1 3.144 6.28936 15.7249 -8.95005
277 1 4.71665 7.86197 17.2975 -8.94928
278 1 6.28697 6.28713 15.7283 -8.94909
279 1 7.86177 7.86193 17.2986 -8.95291
280 1 9.43395 6.28779 15.7264 -8.94784
281 1 11.0063 7.86139 17.2992 -8.95148
282 1 12.5809 6.28667 15.7277 -8.9482
283 1 14.1537 7.86028 17.3003 -8.95049
284 1 15.7279 6.28613 15.7276 -8.94397
285 1 17.2975 7.86171 17.2974 -8.94938
286 1 18.87 6.28913 15.7247 -8.94977
287 1 20.4417 7.86203 17.2968 -8.94958
288 1 22.0138 9.43447 15.7245 -8.94965
289 1 3.14394 9.43448 15.725 -8.94957
290 1 6.28794 9.43474 15.7264 -8.94847
291 1 9.43419 9.43549 15.7243 -8.99683
292 1 12.584 9.43155 15.7358 -8.95672
293 1 15.7275 9.43346 15.7272 -8.94786
294 1 18.87 9.43435 15.7248 -8.94943
295 1 22.0139 1.84864e-16 18.8691 -8.94954
296 1 1.57236 1.57236 20.4415 -8.94954
297 1 3.14478 -7.63344e-17 18.8691 -8.94964
298 1 4.71725 1.57238 20.4415 -8.94964
299 1 6.28967 1.45465e-15 18.8691 -8.94961
300 1 7.8621 1.57236 20.4415 -8.94962
301 1 9.43452 1.76067e-15 18.8691 -8.94963
302 1 11.007 1.57235 20.4415 -8.94963
303 1 12.5794 1.83205e-15 18.8691 -8.94962
304 1 14.1518 1.57237 20.4415 -8.94964
305 1 15.7243 1.42212e-15 18.8691 -8.94959
306 1 17.2967 1.57237 20.4415 -8.94965
307 1 18.8691 1.19187e-15 18.8691 -8.94957
308 1 20.4415 1.57239 20.4415 -8.94952
309 1 -7.26558e-06 3.14479 18.8691 -8.94963
310 1 1.57238 4.71724 20.4415 -8.94965
311 1 3.14464 3.14463 18.8693 -8.94945
312 1 4.71709 4.71709 20.4415 -8.94987
313 1 6.28964 3.14467 18.8693 -8.94959
314 1 7.86202 4.71702 20.4415 -8.94953
315 1 9.43451 3.14462 18.8693 -8.9496
316 1 11.0069 4.71701 20.4415 -8.94958
317 1 12.5794 3.14464 18.8693 -8.94962
318 1 14.1519 4.71704 20.4416 -8.94968
319 1 15.7244 3.14461 18.8693 -8.94961
320 1 17.2969 4.71701 20.4415 -8.94951
321 1 18.8692 3.14468 18.8692 -8.94933
322 1 20.4415 4.71723 20.4415 -8.94965
323 1 22.0139 6.28965 18.8691 -8.94961
324 1 1.57234 7.86208 20.4415 -8.94961
325 1 3.14466 6.28961 18.8693 -8.94958
326 1 4.71707 7.86207 20.4416 -8.9496
327 1 6.28939 6.28941 18.8698 -8.95051
328 1 7.86193 7.86196 20.4416 -8.95017
329 1 9.43431 6.28916 18.8698 -8.94938
330 1 11.0068 7.8618 20.4417 -8.95004
331 1 12.5794 6.28923 18.8699 -8.94992
332 1 14.1522 7.86172 20.4418 -8.95042
333 1 15.7249 6.28903 18.8699 -8.94966
334 1 17.2969 7.86199 20.4416 -8.9495
335 1 18.8693 6.28957 18.8692 -8.94963
336 1 20.4415 7.86209 20.4415 -8.94963
46 1 9.43432 9.43449 22.0134 -8.94948
5 1 6.28967 3.88094e-16 22.0139 -8.94962
9 1 12.5794 6.33259e-16 22.0139 -8.94962
44 1 3.14467 9.43451 22.0138 -8.94958
39 1 15.7247 6.28921 22.0134 -8.94983
17 1 3.14469 3.14468 22.0137 -8.94955
21 1 9.43452 3.14465 22.0138 -8.9496
25 1 15.7243 3.14469 22.0138 -8.94971
27 1 18.8692 3.14471 22.0138 -8.94938
29 1 -2.53222e-06 6.28967 22.0139 -8.94961
33 1 6.28942 6.28944 22.0134 -8.95031
1 1 -3.33301e-05 9.41507e-16 22.0139 -8.94952
13 1 18.8691 4.57042e-16 22.0139 -8.94955
23 1 12.5794 3.14467 22.0138 -8.94957
49 1 18.8692 9.4345 22.0138 -8.94961
183 1 1.57157 4.71671 11.0071 -8.94935
344 1 1.57227 11.007 1.57223 -8.94963
345 1 4.71682 11.007 1.57184 -8.94963
346 1 7.86183 11.007 1.57201 -8.94844
347 1 11.0068 11.007 1.57109 -8.94774
348 1 14.1531 11.007 1.56995 -8.94939
349 1 17.2973 11.007 1.57186 -8.94957
350 1 20.4416 11.007 1.57227 -8.9496
351 1 22.0139 12.5794 -4.35663e-05 -8.94963
352 1 1.5723 14.1518 1.57227 -8.94951
688 3 10.1852 11.007 9.46068 2.29775
354 1 4.71701 14.1516 1.57201 -8.9497
355 1 6.28944 12.5793 -0.000196051 -8.94958
356 1 7.86175 14.152 1.57063 -8.95199
511 1 18.8692 18.8693 9.43452 -8.94963
358 1 11.0067 14.1525 1.57047 -8.95027
510 1 15.7247 18.8697 9.43448 -8.94962
360 1 14.1529 14.1529 1.57006 -8.95111
361 1 15.7247 12.5795 -0.000507565 -8.9494
362 1 17.2972 14.1521 1.57188 -8.94944
538 1 17.2968 20.4416 11.007 -8.94959
364 1 20.4416 14.1518 1.57228 -8.94956
509 1 12.5799 18.87 9.43427 -8.94867
366 1 1.5723 17.2967 1.57227 -8.94978
367 1 3.14473 15.7242 -7.02652e-05 -8.94968
368 1 4.71669 17.2972 1.57152 -8.94952
508 1 9.43469 18.8705 9.4344 -8.94672
370 1 7.86198 17.2971 1.57173 -8.94926
371 1 9.43437 15.7246 -0.000515421 -8.94959
372 1 11.007 17.2972 1.57177 -8.94944
507 1 6.28805 18.8722 9.43431 -8.94938
374 1 14.152 17.2972 1.57185 -8.94976
506 1 3.14411 18.8698 9.43453 -8.94956
376 1 17.2972 17.2972 1.57187 -8.94862
505 1 -0.000174392 18.8692 9.43453 -8.94959
378 1 20.4416 17.2967 1.5723 -8.9496
504 1 18.8696 15.7248 9.43449 -8.94948
380 1 1.57228 20.4416 1.57228 -8.94936
503 1 15.7258 15.7258 9.43436 -8.94685
382 1 4.7172 20.4416 1.57227 -8.9497
383 1 6.28964 18.8692 -0.000129053 -8.94956
384 1 7.86208 20.4416 1.57225 -8.94959
502 1 12.5788 15.725 9.43357 -8.94759
386 1 11.007 20.4416 1.57224 -8.94961
534 1 4.71669 20.4422 11.0071 -8.94939
388 1 14.1518 20.4416 1.57228 -8.94957
501 1 9.42998 15.7226 9.43395 -9.0051
390 1 17.2968 20.4416 1.57228 -8.94953
500 1 6.28065 15.7337 9.43383 -8.94411
392 1 20.4415 20.4415 1.57239 -8.94962
393 1 1.57186 11.007 4.7167 -8.9495
394 1 4.71579 11.007 4.7155 -8.94638
395 1 7.86402 11.007 4.71857 -8.94636
396 1 11.0106 11.007 4.71759 -8.99453
397 1 14.1595 11.007 4.70963 -8.94284
398 1 17.2993 11.007 4.71592 -8.94916
399 1 20.442 11.007 4.71696 -8.94982
400 1 -2.28187e-05 12.5794 3.14462 -8.94958
401 1 1.57197 14.1517 4.71691 -8.94972
402 1 3.14432 12.5794 3.14426 -8.94911
403 1 4.71572 14.1516 4.71582 -8.95146
404 1 6.28926 12.5786 3.1439 -8.94943
405 1 7.85752 14.1565 4.70787 -8.95522
406 1 9.4346 12.5794 3.14286 -8.95058
407 1 11.0072 14.1553 4.71002 -8.95179
408 1 12.5814 12.5804 3.13804 -8.95777
409 1 14.1616 14.1612 4.70748 -8.93373
410 1 15.7263 12.5801 3.14269 -8.9481
411 1 17.2993 14.153 4.71604 -8.9506
412 1 18.8698 12.5795 3.14439 -8.94939
413 1 20.4419 14.152 4.71704 -8.94999
414 1 22.0139 15.7243 3.14469 -8.94975
415 1 1.57152 17.2972 4.7167 -8.9495
416 1 3.14432 15.7243 3.1443 -8.95021
417 1 4.71423 17.2996 4.71416 -8.94457
418 1 6.28784 15.726 3.14147 -8.95022
419 1 7.86161 17.2989 4.71545 -8.94905
420 1 9.43424 15.7258 3.14253 -8.94814
421 1 11.0074 17.2988 4.7156 -8.9479
422 1 12.5799 15.7258 3.14265 -8.94949
423 1 14.1537 17.2998 4.71544 -8.94959
424 1 15.7268 15.7268 3.14228 -8.94556
425 1 17.2972 17.2972 4.71709 -8.94997
426 1 18.8698 15.7246 3.14442 -8.94967
427 1 20.4414 17.2968 4.71716 -8.94972
428 1 22.0137 18.8692 3.1447 -8.94954
429 1 1.57224 20.4416 4.71717 -8.94963
430 1 3.14416 18.8697 3.14414 -8.94843
431 1 4.71679 20.4421 4.71676 -8.9499
432 1 6.28948 18.8697 3.14427 -8.94971
433 1 7.8621 20.442 4.71686 -8.94954
434 1 9.43454 18.8697 3.14427 -8.94949
435 1 11.0071 20.442 4.71683 -8.94953
436 1 12.5795 18.8697 3.14435 -8.94926
437 1 14.1521 20.442 4.71703 -8.95027
438 1 15.7248 18.8699 3.1443 -8.94941
439 1 17.2967 20.4416 4.71726 -8.94967
440 1 18.8692 18.8692 3.14477 -8.94972
441 1 20.4415 20.4415 4.71725 -8.94961
442 1 1.57152 11.007 7.86157 -8.94777
443 1 4.71776 11.007 7.86177 -8.94052
444 1 7.88158 11.007 7.86965 -8.95412
445 1 11.0787 11.007 7.66699 -8.20173
446 1 14.1608 11.007 7.8564 -8.96932
447 1 17.2992 11.007 7.86238 -8.95121
448 1 20.4419 11.007 7.86207 -8.94971
449 1 22.0137 12.5794 6.28941 -8.94979
450 1 1.57008 14.1523 7.86154 -8.95142
451 1 3.14343 12.5788 6.28887 -8.94966
452 1 4.70668 14.1562 7.85818 -8.95556
453 1 6.28658 12.5767 6.28767 -8.95289
454 1 7.82134 14.1889 7.82608 -8.84694
455 1 9.42325 12.5985 6.28351 -8.91579
456 1 11.0214 14.162 7.83859 -8.90044
457 1 12.6135 12.6069 6.25741 -8.87445
458 1 14.1566 14.1542 7.86242 -8.95039
459 1 15.7322 12.5813 6.28701 -8.95658
460 1 17.2981 14.1524 7.86248 -8.95017
461 1 18.8707 12.5796 6.28946 -8.95119
462 1 20.4415 14.152 7.86203 -8.95
463 1 -0.0006325 15.7245 6.2894 -8.95002
464 1 1.57158 17.2972 7.86195 -8.94946
465 1 3.14143 15.726 6.28786 -8.9501
466 1 4.71471 17.2994 7.86103 -8.94802
467 1 6.27811 15.7356 6.27821 -8.92894
468 1 7.86004 17.3043 7.86055 -8.9592
469 1 9.4344 15.7316 6.28505 -8.94945
470 1 11.0068 17.299 7.86175 -8.95229
471 1 12.5847 15.7331 6.28407 -8.95153
472 1 14.1525 17.2978 7.86241 -8.94916
473 1 15.7261 15.7256 6.28941 -8.95051
474 1 17.2972 17.2972 7.86207 -8.94917
475 1 18.8695 15.7245 6.28966 -8.94977
476 1 20.4415 17.2969 7.86206 -8.94958
477 1 22.0137 18.8692 6.28963 -8.94958
478 1 1.57222 20.4416 7.86208 -8.94962
479 1 3.14415 18.8698 6.28933 -8.94941
480 1 4.71667 20.4422 7.86187 -8.94939
481 1 6.28856 18.8718 6.28846 -8.95143
482 1 7.86206 20.4428 7.86196 -8.95134
483 1 9.43486 18.8712 6.28879 -8.95005
484 1 11.0071 20.4421 7.86205 -8.9497
485 1 12.5798 18.8708 6.28935 -8.9519
486 1 14.1521 20.4418 7.86207 -8.94945
487 1 15.7245 18.8695 6.28975 -8.94961
488 1 17.2968 20.4416 7.86208 -8.94959
489 1 18.8692 18.8692 6.28966 -8.94954
490 1 20.4415 20.4415 7.8621 -8.94963
491 1 22.013 12.5795 9.43437 -8.95
492 1 3.14019 12.5799 9.43346 -8.95082
493 1 6.27513 12.5922 9.42855 -9.00281
494 1 9.35418 12.8219 9.42747 -8.12882
495 1 12.5671 12.5808 9.42547 -8.93997
496 1 15.724 12.5794 9.43465 -8.9437
497 1 18.8697 12.5797 9.43449 -8.94852
498 1 22.0133 15.7246 9.43452 -8.94982
499 1 3.14173 15.7259 9.43454 -8.94935
512 1 1.56987 11.007 11.0073 -8.9513
514 1 7.81836 11.007 10.9721 -9.13909
519 1 1.57034 14.1521 11.0072 -8.95124
532 1 20.4415 17.2969 11.007 -8.94959
527 1 4.71476 17.2992 11.0078 -8.94783
531 1 17.2972 17.2972 11.0069 -8.94917
530 1 14.1526 17.2978 11.0062 -8.94899
373 1 12.5794 15.7246 -0.000456928 -8.94964
377 1 18.8692 15.7243 -9.58602e-05 -8.94963
379 1 22.0139 18.8691 -3.7323e-05 -8.94964
687 2 9.44626 11.007 11.7534 0.674399
513 1 4.70693 11.007 11.0063 -8.96066
686 1 20.4415 20.4415 20.4415 -8.94952
515 1 11.1789 11.007 11.1952 -8.38114
516 1 14.1559 11.007 11.0141 -8.99084
517 1 17.2988 11.007 11.0065 -8.94955
518 1 20.4416 11.007 11.0069 -8.94997
685 1 18.8692 18.8692 18.8692 -8.94933
520 1 4.70781 14.1547 11.0093 -8.95795
521 1 7.8216 14.188 11.0378 -8.90437
522 1 11.0244 14.1613 11.0249 -8.95759
523 1 14.1562 14.1536 11.0046 -8.95299
524 1 17.2983 14.1525 11.0064 -8.94958
525 1 20.4415 14.1521 11.0069 -8.94989
684 1 17.2967 20.4415 20.4415 -8.94965
683 1 15.7244 18.8693 18.8693 -8.94961
528 1 7.85948 17.3049 11.0073 -8.95732
529 1 11.0074 17.2999 11.006 -8.95011
391 1 18.8692 18.8692 22.0138 -8.94938
682 1 14.1518 20.4415 20.4415 -8.94964
681 1 12.5794 18.8693 18.8693 -8.94962
533 1 1.57222 20.4416 11.007 -8.94961
680 1 11.007 20.4415 20.4415 -8.94963
535 1 7.86192 20.443 11.0069 -8.95128
536 1 11.0072 20.4423 11.0068 -8.94964
537 1 14.1521 20.4418 11.0069 -8.94947
679 1 9.43451 18.8693 18.8693 -8.9496
539 1 20.4415 20.4415 11.007 -8.94963
540 1 1.57154 11.007 14.1524 -8.94944
541 1 4.71488 11.007 14.1533 -8.94787
542 1 7.85962 11.007 14.1543 -8.98057
543 1 11.0193 11.007 14.167 -9.03505
544 1 14.1626 11.007 14.1621 -8.94358
545 1 17.3001 11.007 14.1534 -8.94931
546 1 20.442 11.007 14.1521 -8.94991
547 1 22.0134 12.5795 12.5797 -8.94993
548 1 1.57156 14.152 14.1523 -8.94953
549 1 3.142 12.5797 12.5807 -8.94792
550 1 4.71467 14.1523 14.1535 -8.95122
551 1 6.28472 12.579 12.5825 -8.99984
552 1 7.85421 14.1586 14.1625 -8.98664
553 1 9.42799 12.6394 12.601 -9.18427
554 1 11.0106 14.1592 14.1625 -8.98029
555 1 12.6229 12.6201 12.6246 -8.88553
556 1 14.1656 14.1648 14.1648 -8.92669
557 1 15.7337 12.5815 12.5822 -8.95938
558 1 17.3001 14.1533 14.1532 -8.95142
559 1 18.8709 12.5796 12.5795 -8.95165
560 1 20.4419 14.152 14.1521 -8.95017
561 1 22.0134 15.7245 12.5796 -8.95002
562 1 1.57157 17.2972 14.1523 -8.94968
563 1 3.14175 15.7258 12.5808 -8.95072
564 1 4.71425 17.2996 14.1547 -8.9452
565 1 6.27875 15.7355 12.5897 -8.93093
566 1 7.86088 17.3001 14.1541 -8.94833
567 1 9.43475 15.7397 12.5829 -8.96217
568 1 11.008 17.3005 14.1542 -8.94718
569 1 12.5846 15.7351 12.5845 -8.95547
570 1 14.154 17.3004 14.1537 -8.95047
571 1 15.7261 15.7257 12.5791 -8.95061
572 1 17.2972 17.2972 14.1519 -8.95012
573 1 18.8696 15.7246 12.5793 -8.9496
574 1 20.4415 17.2968 14.1519 -8.94972
575 1 -0.000168897 18.8692 12.5794 -8.94955
576 1 1.57224 20.4416 14.1519 -8.94963
577 1 3.14416 18.8697 12.5797 -8.94941
578 1 4.71677 20.4421 14.1523 -8.94987
579 1 6.28853 18.8719 12.5804 -8.9512
580 1 7.86196 20.4423 14.1523 -8.9497
581 1 9.43484 18.8726 12.5801 -8.95256
582 1 11.0072 20.4424 14.1523 -8.94977
583 1 12.5798 18.8712 12.5795 -8.95218
584 1 14.1521 20.4421 14.152 -8.95037
585 1 15.7245 18.8696 12.5792 -8.94955
586 1 17.2967 20.4416 14.1518 -8.94966
587 1 18.8692 18.8692 12.5794 -8.94952
588 1 20.4415 20.4415 14.1518 -8.94961
589 1 1.57213 11.007 17.2969 -8.94958
590 1 4.71647 11.007 17.2976 -8.94902
591 1 7.86174 11.007 17.2978 -8.94997
592 1 11.0068 11.007 17.3009 -8.95218
593 1 14.1539 11.007 17.3004 -8.94871
594 1 17.2976 11.007 17.2975 -8.94944
595 1 20.4417 11.007 17.2968 -8.9496
596 1 22.0138 12.5794 15.7245 -8.94965
597 1 1.57219 14.1519 17.2969 -8.94957
598 1 3.14394 12.5794 15.725 -8.94957
599 1 4.71665 14.1519 17.2975 -8.94928
600 1 6.28794 12.5792 15.7264 -8.94847
601 1 7.86177 14.152 17.2986 -8.95291
602 1 9.43419 12.5784 15.7243 -8.99683
603 1 11.0063 14.1525 17.2992 -8.95148
604 1 12.584 12.5824 15.7358 -8.95672
605 1 14.1537 14.1536 17.3003 -8.95049
606 1 15.7275 12.5804 15.7272 -8.94786
607 1 17.2975 14.1522 17.2974 -8.94938
608 1 18.87 12.5796 15.7248 -8.94943
609 1 20.4417 14.1519 17.2968 -8.94958
610 1 -7.48723e-05 15.7244 15.7244 -8.94971
611 1 1.57223 17.2968 17.2968 -8.94974
612 1 3.144 15.7245 15.7249 -8.95005
613 1 4.71647 17.2974 17.2978 -8.94918
614 1 6.28697 15.7268 15.7283 -8.94909
615 1 7.86195 17.2972 17.2975 -8.9493
616 1 9.43395 15.7261 15.7264 -8.94784
617 1 11.0069 17.2973 17.2975 -8.94954
618 1 12.5809 15.7272 15.7277 -8.9482
619 1 14.1523 17.2976 17.2976 -8.9494
620 1 15.7279 15.7278 15.7276 -8.94397
621 1 17.2975 17.2975 17.2974 -8.94827
622 1 18.87 15.7248 15.7247 -8.94977
623 1 20.4417 17.2968 17.2968 -8.94957
624 1 22.0137 18.8692 15.7243 -8.94959
625 1 1.57227 20.4416 17.2968 -8.94939
626 1 3.14413 18.8697 15.7249 -8.94857
627 1 4.71711 20.4417 17.2969 -8.94965
628 1 6.28922 18.87 15.725 -8.9496
629 1 7.86207 20.4417 17.2969 -8.94953
630 1 9.43448 18.87 15.7249 -8.94916
631 1 11.007 20.4417 17.2969 -8.94955
632 1 12.5798 18.8702 15.725 -8.94915
633 1 14.1519 20.4417 17.2969 -8.94952
634 1 15.7249 18.8701 15.7248 -8.94958
635 1 17.2968 20.4417 17.2968 -8.94956
636 1 18.8692 18.8692 15.7243 -8.94979
637 1 20.4415 20.4415 17.2967 -8.94965
638 1 1.57234 11.007 20.4415 -8.94963
639 1 4.71702 11.007 20.4416 -8.94965
640 1 7.86189 11.007 20.4417 -8.94953
641 1 11.0067 11.007 20.442 -8.94993
642 1 14.1523 11.007 20.4418 -8.95004
643 1 17.2969 11.007 20.4416 -8.94955
644 1 20.4415 11.007 20.4415 -8.94963
645 1 -2.92372e-05 12.5794 18.8692 -8.94961
646 1 1.57234 14.1518 20.4415 -8.94961
647 1 3.14458 12.5794 18.8693 -8.94957
648 1 4.71707 14.1518 20.4416 -8.9496
649 1 6.28928 12.5794 18.8698 -8.94979
650 1 7.86193 14.1519 20.4416 -8.95017
651 1 9.43416 12.5795 18.8699 -8.94826
652 1 11.0068 14.1521 20.4417 -8.95004
653 1 12.5798 12.5797 18.8714 -8.95186
654 1 14.1522 14.1522 20.4418 -8.95042
655 1 15.7249 12.5796 18.87 -8.94935
656 1 17.2969 14.1519 20.4416 -8.9495
657 1 18.8693 12.5794 18.8692 -8.94959
658 1 20.4415 14.1518 20.4415 -8.94963
659 1 22.0139 15.7243 18.8691 -8.94961
660 1 1.57238 17.2967 20.4415 -8.94965
661 1 3.14466 15.7243 18.8693 -8.94958
662 1 4.71709 17.2968 20.4415 -8.94987
663 1 6.28939 15.7245 18.8698 -8.95051
664 1 7.86202 17.2969 20.4415 -8.94953
665 1 9.43431 15.7247 18.8698 -8.94938
666 1 11.0069 17.2969 20.4415 -8.94958
667 1 12.5794 15.7247 18.8699 -8.94992
668 1 14.1519 17.2969 20.4416 -8.94968
669 1 15.7249 15.7249 18.8699 -8.94966
670 1 17.2969 17.2969 20.4415 -8.94951
671 1 18.8693 15.7243 18.8692 -8.94963
672 1 20.4415 17.2967 20.4415 -8.94965
673 1 -7.26558e-06 18.8691 18.8691 -8.94963
674 1 1.57236 20.4415 20.4415 -8.94954
675 1 3.14464 18.8693 18.8693 -8.94945
676 1 4.71725 20.4415 20.4415 -8.94964
677 1 6.28964 18.8692 18.8693 -8.94959
678 1 7.8621 20.4415 20.4415 -8.94962
353 1 3.14467 12.5794 22.0138 -8.94958
357 1 9.43432 12.5794 22.0134 -8.94948
359 1 12.5795 12.5795 22.0129 -8.95132
365 1 -2.53222e-06 15.7242 22.0139 -8.94961
369 1 6.28942 15.7245 22.0134 -8.95031
389 1 15.7243 18.8692 22.0138 -8.94971
375 1 15.7247 15.7247 22.0134 -8.94983
385 1 9.43452 18.8692 22.0138 -8.9496
381 1 3.14469 18.8692 22.0137 -8.94955
363 1 18.8692 12.5794 22.0138 -8.94961
387 1 12.5794 18.8692 22.0138 -8.94957
526 1 1.57157 17.2972 11.0071 -8.94935
