ITEM: TIMESTEP
91
ITEM: NUMBER OF ATOMS
688
ITEM: BOX BOUNDS pp pp pp
0.0000000000000000e+00 2.2013900999999997e+01
0.0000000000000000e+00 2.2013900999999997e+01
0.0000000000000000e+00 2.2013900999999997e+01
ITEM: ATOMS id type x y z c_pot
190 1 1.56922 7.86144 11.0072 -8.95153
2 1 1.57188 1.5721 1.5719 -8.94915
175 1 18.8692 9.43432 9.43455 -8.9482
4 1 4.71686 1.572 1.57179 -8.94961
174 1 15.7225 9.4352 9.43514 -8.94469
6 1 7.86199 1.57199 1.57182 -8.94949
7 1 9.43451 1.77624e-15 -0.00022358 -8.94956
8 1 11.0071 1.57198 1.57185 -8.94952
173 1 12.5665 9.43047 9.42319 -8.94063
10 1 14.1521 1.57197 1.57196 -8.9495
172 1 9.35589 9.18167 9.42825 -8.1273
12 1 17.2971 1.57194 1.57199 -8.94946
189 1 20.4413 4.71656 11.007 -8.94956
14 1 20.4415 1.57219 1.57221 -8.94953
171 1 6.2754 9.41961 9.4279 -9.00245
16 1 1.57197 4.71695 1.57184 -8.94984
170 1 3.13942 9.43356 9.43302 -8.95046
18 1 4.71603 4.71612 1.57061 -8.94954
19 1 6.28939 3.14433 -0.000428754 -8.94949
20 1 7.86166 4.71614 1.57093 -8.94918
169 1 22.0124 9.43439 9.43425 -8.94974
22 1 11.0071 4.71604 1.57106 -8.94935
188 1 17.2977 4.71616 11.0068 -8.94907
24 1 14.1525 4.71594 1.5711 -8.9497
168 1 18.8698 6.28877 9.4344 -8.9495
26 1 17.298 4.71593 1.57135 -8.94847
167 1 15.7263 6.28766 9.43416 -8.94643
28 1 20.4419 4.71684 1.57203 -8.94958
166 1 12.5792 6.28794 9.43316 -8.94721
30 1 1.57212 7.86203 1.57192 -8.94942
31 1 3.14449 6.2896 -0.000294386 -8.94975
32 1 4.71672 7.86227 1.57153 -8.94975
165 1 9.42907 6.29123 9.43401 -9.00724
34 1 7.86163 7.86171 1.57006 -8.95237
35 1 9.43418 6.28886 -0.000903175 -8.94967
36 1 11.0068 7.86106 1.56975 -8.95068
164 1 6.27792 6.27762 9.43358 -8.94354
38 1 14.1536 7.86053 1.56917 -8.95134
163 1 3.13976 6.28678 9.43437 -8.94935
40 1 17.2981 7.86133 1.57125 -8.94923
162 1 22.0126 6.28884 9.43445 -8.94994
42 1 20.442 7.86185 1.57196 -8.94947
43 1 22.0139 9.43447 -0.000184388 -8.94956
161 1 18.8694 3.14426 9.43447 -8.94956
45 1 6.28929 9.43465 -0.000334641 -8.94951
160 1 15.7251 3.14381 9.43436 -8.94953
159 1 12.58 3.14354 9.43409 -8.94875
48 1 15.7255 9.43408 -0.000827949 -8.94938
184 1 4.71287 4.71301 11.0083 -8.94745
50 1 -0.000312561 1.73135e-15 3.14458 -8.94954
51 1 1.57168 1.57197 4.71675 -8.94948
52 1 3.14411 1.21779e-15 3.14408 -8.94953
53 1 4.71616 1.57117 4.71607 -8.95002
54 1 6.2894 1.08635e-15 3.1441 -8.94955
55 1 7.86193 1.57128 4.71625 -8.94961
56 1 9.43461 2.95935e-16 3.14412 -8.94953
57 1 11.0073 1.57141 4.71636 -8.94956
58 1 12.5797 1.76655e-16 3.14424 -8.94949
59 1 14.1524 1.57143 4.71674 -8.95055
60 1 15.7247 1.17591e-15 3.14442 -8.94998
61 1 17.297 1.57205 4.71713 -8.94968
62 1 18.8692 1.72141e-15 3.14471 -8.94967
63 1 20.4414 1.57219 4.7171 -8.94954
64 1 22.0134 3.14435 3.14432 -8.94949
65 1 1.57057 4.71608 4.71597 -8.94948
66 1 3.1433 3.14349 3.14326 -8.94811
67 1 4.71258 4.71277 4.71254 -8.94408
68 1 6.28892 3.1434 3.14335 -8.94955
69 1 7.8607 4.71341 4.71405 -8.94872
70 1 9.43451 3.14345 3.14354 -8.94939
71 1 11.0077 4.7139 4.71443 -8.94766
72 1 12.5799 3.14345 3.1437 -8.94914
73 1 14.1549 4.71275 4.71424 -8.94932
74 1 15.7254 3.14317 3.1437 -8.94934
75 1 17.2979 4.71601 4.71665 -8.95003
76 1 18.8695 3.14426 3.1445 -8.94972
77 1 20.4414 4.71671 4.71688 -8.94985
78 1 22.0138 6.28942 3.14431 -8.94983
79 1 1.57146 7.86207 4.71644 -8.94984
80 1 3.14358 6.28923 3.14349 -8.9504
81 1 4.7147 7.86185 4.71489 -8.95178
82 1 6.2868 6.28696 3.13995 -8.95032
83 1 7.85648 7.85594 4.70642 -8.95544
84 1 9.43403 6.28709 3.14127 -8.94804
85 1 11.0078 7.85739 4.70826 -8.9522
86 1 12.5807 6.2871 3.14115 -8.94951
87 1 14.1631 7.8519 4.70592 -8.93447
88 1 15.7281 6.28596 3.14113 -8.94559
89 1 17.3005 7.8603 4.71533 -8.95062
90 1 18.8705 6.28876 3.14395 -8.94968
91 1 20.4422 7.86174 4.7167 -8.95007
92 1 1.11805e-05 9.43442 3.1442 -8.94954
93 1 3.14396 9.43455 3.14374 -8.94896
94 1 6.28922 9.43531 3.14369 -8.94939
95 1 9.43493 9.4343 3.14313 -8.95048
96 1 12.5823 9.43336 3.1373 -8.95809
97 1 15.7278 9.43327 3.14143 -8.94783
98 1 18.8706 9.43417 3.14382 -8.94933
99 1 22.0135 1.55633e-15 6.28951 -8.94955
100 1 1.57161 1.57193 7.8619 -8.94952
101 1 3.14391 7.9024e-16 6.28915 -8.94939
102 1 4.71585 1.57099 7.8615 -8.94939
103 1 6.28912 1.45999e-15 6.28898 -8.95071
104 1 7.86182 1.57055 7.86174 -8.9515
105 1 9.43477 1.16442e-15 6.28906 -8.95025
106 1 11.0071 1.57158 7.86195 -8.94966
107 1 12.5797 1.14925e-15 6.28945 -8.95034
108 1 14.1524 1.5718 7.86196 -8.94941
109 1 15.7247 1.77555e-15 6.28958 -8.94953
110 1 17.2971 1.57205 7.86202 -8.94952
111 1 18.8692 1.80038e-15 6.28959 -8.94954
112 1 20.4414 1.57215 7.86202 -8.94956
113 1 22.0133 3.14425 6.28936 -8.94949
114 1 1.57046 4.71593 7.86159 -8.94939
115 1 3.14306 3.14319 6.28863 -8.9492
116 1 4.71276 4.71267 7.86019 -8.94769
117 1 6.28765 3.14073 6.28764 -8.9517
118 1 7.85874 4.70811 7.85998 -8.95978
119 1 9.43466 3.14168 6.28814 -8.95036
120 1 11.0064 4.71427 7.86115 -8.953
121 1 12.58 3.14239 6.28897 -8.95222
122 1 14.1529 4.71547 7.86197 -8.94896
123 1 15.725 3.14383 6.28956 -8.94959
124 1 17.2976 4.71627 7.86196 -8.949
125 1 18.8693 3.14433 6.28955 -8.94945
126 1 20.4413 4.71659 7.86193 -8.94955
127 1 -0.00127362 6.28898 6.28904 -8.9502
128 1 1.56892 7.86116 7.86116 -8.95169
129 1 3.13963 6.28688 6.28679 -8.95018
130 1 4.70452 7.85611 7.85723 -8.95596
131 1 6.27554 6.27584 6.27613 -8.92798
132 1 7.81852 7.8219 7.82416 -8.84408
133 1 9.43342 6.28013 6.28325 -8.9488
134 1 11.0227 7.84897 7.8353 -8.89606
135 1 12.5862 6.27923 6.28187 -8.95019
136 1 14.1576 7.85886 7.86098 -8.95046
137 1 15.7273 6.28741 6.28859 -8.95058
138 1 17.2983 7.86156 7.86255 -8.95081
139 1 18.8698 6.28905 6.28953 -8.95008
140 1 20.4412 7.8617 7.86196 -8.9501
141 1 22.0135 9.43452 6.28913 -8.94976
142 1 3.14292 9.43514 6.28848 -8.94979
143 1 6.28624 9.43688 6.28744 -8.95314
144 1 9.42307 9.41322 6.28403 -8.91604
145 1 12.6135 9.40763 6.25644 -8.87922
146 1 15.7331 9.43244 6.28607 -8.95631
147 1 18.8712 9.43425 6.2892 -8.95131
148 1 -0.000375041 1.50041e-15 9.43452 -8.94956
149 1 3.14385 7.30241e-16 9.4345 -8.94948
150 1 6.28869 -3.67757e-16 9.43435 -8.95039
151 1 9.43474 1.67525e-15 9.43434 -8.94851
152 1 12.5799 1.80594e-15 9.43431 -8.94944
153 1 15.7248 1.62326e-15 9.43444 -8.94963
154 1 18.8693 9.29522e-16 9.43449 -8.94958
155 1 -0.000636066 3.14421 9.4345 -8.94952
156 1 3.14299 3.14321 9.43447 -8.94946
157 1 6.28683 3.14027 9.43417 -8.94956
158 1 9.43431 3.14323 9.43423 -8.94629
177 1 4.71587 1.57106 11.0073 -8.94936
181 1 17.2971 1.57203 11.0069 -8.94954
187 1 14.153 4.71537 11.0062 -8.94868
3 1 3.14458 8.18334e-16 -0.00022842 -8.94961
11 1 15.7244 -5.70863e-17 -0.000151155 -8.94958
15 1 22.0139 3.14462 -0.000184718 -8.94958
41 1 18.8697 6.28925 -0.000256306 -8.94949
37 1 12.5795 6.28882 -0.000844755 -8.94979
176 1 1.57161 1.57193 11.0071 -8.9495
343 1 18.87 9.43432 18.8697 -8.94946
178 1 7.86167 1.57032 11.0069 -8.9515
179 1 11.0073 1.5713 11.0066 -8.9496
180 1 14.1524 1.57177 11.0068 -8.9494
342 1 15.7259 9.43395 18.871 -8.94927
182 1 20.4414 1.57215 11.007 -8.94956
341 1 12.58 9.43403 18.8724 -8.95228
340 1 9.43411 9.43441 18.8697 -8.9477
185 1 7.85819 4.70734 11.0077 -8.95801
186 1 11.0072 4.71336 11.0062 -8.95065
47 1 12.5797 9.43432 22.0128 -8.95149
339 1 6.28915 9.43461 18.8698 -8.94982
338 1 3.14434 9.43447 18.8696 -8.94955
337 1 4.80967e-05 9.43445 18.8694 -8.94955
191 1 4.70562 7.85787 11.0095 -8.95845
192 1 7.81856 7.82261 11.0398 -8.90089
193 1 11.0277 7.85004 11.028 -8.9539
194 1 14.1573 7.85943 11.0053 -8.95339
195 1 17.2987 7.86119 11.0063 -8.94999
196 1 20.4414 7.86165 11.0069 -8.94998
197 1 22.0135 1.83984e-15 12.5795 -8.94955
198 1 1.5717 1.57198 14.1522 -8.9495
199 1 3.14392 1.10334e-15 12.5798 -8.9494
200 1 4.7161 1.57116 14.1529 -8.95
201 1 6.28902 3.65047e-16 12.5799 -8.95062
202 1 7.86174 1.571 14.1528 -8.94972
203 1 9.43473 1.79412e-15 12.5798 -8.95088
204 1 11.0074 1.57094 14.1528 -8.94984
205 1 12.5798 1.50454e-15 12.5794 -8.95049
206 1 14.1525 1.57116 14.1523 -8.95077
207 1 15.7247 1.37765e-15 12.5793 -8.94952
208 1 17.2971 1.572 14.1518 -8.94967
209 1 18.8692 1.73198e-15 12.5794 -8.94954
210 1 20.4414 1.57217 14.1519 -8.94953
211 1 -0.000590949 3.14424 12.5796 -8.94946
212 1 1.57069 4.7161 14.1529 -8.94974
213 1 3.14312 3.14328 12.5802 -8.94919
214 1 4.71259 4.71275 14.1562 -8.94467
215 1 6.2876 3.14062 12.5811 -8.95151
216 1 7.86011 4.71239 14.1552 -8.94787
217 1 9.43468 3.14024 12.5805 -8.95273
218 1 11.0082 4.7119 14.1553 -8.94684
219 1 12.5801 3.14165 12.5797 -8.9528
220 1 14.1555 4.71143 14.1551 -8.95031
221 1 15.725 3.1437 12.5792 -8.94948
222 1 17.2981 4.71584 14.1523 -8.95023
223 1 18.8694 3.14428 12.5794 -8.94943
224 1 20.4415 4.71666 14.1521 -8.94982
225 1 22.0128 6.28901 12.5798 -8.9502
226 1 1.57101 7.86169 14.1528 -8.9496
227 1 3.14007 6.28717 12.5816 -8.95094
228 1 4.71369 7.86109 14.1542 -8.95106
229 1 6.27616 6.27582 12.5916 -8.92983
230 1 7.85409 7.85497 14.1623 -8.98744
231 1 9.43436 6.27248 12.5841 -8.96115
232 1 11.0112 7.85336 14.164 -8.9803
233 1 12.5867 6.27608 12.5869 -8.95486
234 1 14.1686 7.84666 14.168 -8.92534
235 1 15.7275 6.28721 12.5797 -8.95066
236 1 17.3018 7.85979 14.1541 -8.95188
237 1 18.8701 6.28891 12.5794 -8.94975
238 1 20.4423 7.86159 14.1524 -8.95036
239 1 22.0131 9.43434 12.5799 -8.94996
240 1 3.14113 9.4342 12.5808 -8.94808
241 1 6.28369 9.43438 12.5822 -8.99835
242 1 9.42961 9.37514 12.5986 -9.18601
243 1 12.6257 9.39119 12.6288 -8.88248
244 1 15.7349 9.43223 12.5834 -8.96072
245 1 18.8715 9.43427 12.5797 -8.95198
246 1 -0.000298473 1.70136e-15 15.7245 -8.94956
247 1 1.57186 1.57208 17.2972 -8.9492
248 1 3.14407 1.30586e-15 15.725 -8.94956
249 1 4.71672 1.57192 17.2974 -8.94957
250 1 6.28924 1.81763e-15 15.7251 -8.94958
251 1 7.8619 1.57193 17.2974 -8.94941
252 1 9.43454 1.81313e-15 15.7251 -8.94946
253 1 11.007 1.57188 17.2974 -8.94944
254 1 12.5798 1.75607e-15 15.725 -8.9496
255 1 14.1523 1.57177 17.2974 -8.94946
256 1 15.7248 4.82738e-16 15.7247 -8.9501
257 1 17.2973 1.57181 17.2972 -8.9495
258 1 18.8693 1.4832e-15 15.7243 -8.94968
259 1 20.4415 1.57217 17.2969 -8.9496
260 1 22.0134 3.14433 15.7247 -8.94957
261 1 1.5719 4.71684 17.2973 -8.94979
262 1 3.14325 3.14345 15.7258 -8.94826
263 1 4.71582 4.71592 17.2986 -8.94938
264 1 6.28864 3.1431 15.7259 -8.94946
265 1 7.86156 4.71607 17.2983 -8.94915
266 1 9.43436 3.1431 15.7257 -8.94902
267 1 11.0069 4.71585 17.2983 -8.94946
268 1 12.5802 3.14271 15.7258 -8.94904
269 1 14.153 4.71524 17.2987 -8.9494
270 1 15.7258 3.14267 15.7256 -8.94953
271 1 17.2985 4.71542 17.2983 -8.94786
272 1 18.8696 3.14419 15.7245 -8.94983
273 1 20.442 4.71669 17.2972 -8.94956
274 1 -0.000128579 6.28923 15.7249 -8.94981
275 1 1.57201 7.86193 17.2973 -8.94952
276 1 3.14328 6.28898 15.7257 -8.95013
277 1 4.71637 7.86196 17.2979 -8.94932
278 1 6.2862 6.28642 15.7293 -8.94982
279 1 7.86181 7.862 17.2986 -8.95328
280 1 9.43361 6.28682 15.7274 -8.94764
281 1 11.0063 7.86095 17.3001 -8.95185
282 1 12.5818 6.28519 15.7295 -8.94842
283 1 14.1549 7.85923 17.3022 -8.95067
284 1 15.7299 6.28424 15.7295 -8.94323
285 1 17.2988 7.86099 17.2985 -8.94909
286 1 18.871 6.28844 15.7254 -8.94989
287 1 20.4421 7.86176 17.2973 -8.94948
288 1 22.0139 9.43436 15.725 -8.94962
289 1 3.14357 9.43445 15.7255 -8.94945
290 1 6.28793 9.43477 15.7262 -8.9484
291 1 9.43507 9.43574 15.7226 -8.99554
292 1 12.5858 9.43076 15.7381 -8.95738
293 1 15.7297 9.43265 15.7292 -8.94729
294 1 18.8712 9.43405 15.7255 -8.94936
295 1 22.0137 1.85024e-15 18.8692 -8.94932
296 1 1.57215 1.5722 20.4415 -8.9494
297 1 3.14452 7.16026e-16 18.8694 -8.94958
298 1 4.71705 1.5722 20.4415 -8.94957
299 1 6.2895 9.26678e-16 18.8694 -8.94951
300 1 7.86199 1.57215 20.4416 -8.94954
301 1 9.43448 1.86076e-15 18.8694 -8.94955
302 1 11.007 1.57213 20.4416 -8.94955
303 1 12.5795 1.76919e-15 18.8694 -8.94953
304 1 14.152 1.57213 20.4416 -8.94956
305 1 15.7245 7.78077e-16 18.8694 -8.94953
306 1 17.2969 1.57213 20.4416 -8.94957
307 1 18.8693 1.3317e-15 18.8693 -8.94941
308 1 20.4416 1.57224 20.4415 -8.94929
309 1 -3.53887e-05 3.14458 18.8693 -8.94958
310 1 1.57224 4.71711 20.4416 -8.94968
311 1 3.14425 3.1443 18.8697 -8.94945
312 1 4.71677 4.71683 20.4416 -8.95009
313 1 6.28936 3.14431 18.8696 -8.9495
314 1 7.86177 4.71663 20.4416 -8.94953
315 1 9.43439 3.14417 18.8696 -8.94951
316 1 11.0069 4.71652 20.4416 -8.94955
317 1 12.5795 3.14415 18.8697 -8.94952
318 1 14.1521 4.71648 20.4417 -8.94971
319 1 15.7248 3.14403 18.8697 -8.94955
320 1 17.2974 4.71645 20.4417 -8.94945
321 1 18.8697 3.14423 18.8695 -8.94908
322 1 20.4418 4.71699 20.4416 -8.94955
323 1 22.0139 6.28948 18.8694 -8.94954
324 1 1.57222 7.86201 20.4416 -8.94955
325 1 3.1444 6.28951 18.8696 -8.94963
326 1 4.71684 7.86209 20.4416 -8.94963
327 1 6.28913 6.28928 18.8701 -8.95089
328 1 7.86178 7.86197 20.4415 -8.95021
329 1 9.43404 6.28875 18.8702 -8.94947
330 1 11.0066 7.86159 20.4418 -8.95019
331 1 12.5795 6.28866 18.8706 -8.95009
332 1 14.1525 7.86132 20.4422 -8.95067
333 1 15.7257 6.28821 18.8709 -8.94971
334 1 17.2976 7.8616 20.4418 -8.94937
335 1 18.8699 6.28914 18.8696 -8.94947
336 1 20.4418 7.86193 20.4416 -8.94954
46 1 9.43427 9.43455 22.0134 -8.9492
5 1 6.28954 2.66127e-16 22.0137 -8.94954
9 1 12.5795 7.45807e-16 22.0137 -8.94955
44 1 3.14442 9.4345 22.0136 -8.94955
39 1 15.7253 6.28861 22.0131 -8.94997
17 1 3.14432 3.14436 22.0134 -8.94952
21 1 9.43445 3.14424 22.0135 -8.94952
25 1 15.7246 3.14421 22.0136 -8.94965
27 1 18.8696 3.14434 22.0137 -8.94921
29 1 4.26089e-05 6.28954 22.0137 -8.94953
33 1 6.28912 6.28924 22.0129 -8.95063
1 1 -0.000164683 1.53525e-15 22.0138 -8.94926
13 1 18.8693 8.37326e-16 22.0137 -8.94939
23 1 12.5795 3.14423 22.0136 -8.94948
49 1 18.8698 9.43436 22.0136 -8.9495
183 1 1.5705 4.71597 11.0073 -8.94927
344 1 1.5721 11.007 1.57188 -8.94957
345 1 4.71659 11.007 1.57152 -8.94962
346 1 7.86195 11.007 1.57222 -8.94812
347 1 11.007 11.007 1.57145 -8.94725
348 1 14.1541 11.007 1.56904 -8.94956
349 1 17.2982 11.007 1.57121 -8.94947
350 1 20.442 11.007 1.57193 -8.94952
351 1 22.0139 12.5794 -0.000184388 -8.94956
352 1 1.57212 14.1519 1.57192 -8.94942
688 3 10.1711 11.007 9.46951 2.27835
354 1 4.71672 14.1516 1.57153 -8.94975
355 1 6.28929 12.5792 -0.000334641 -8.94951
356 1 7.86163 14.1522 1.57006 -8.95237
511 1 18.8694 18.8696 9.43447 -8.94956
358 1 11.0068 14.1528 1.56975 -8.95068
510 1 15.7251 18.8701 9.43436 -8.94953
360 1 14.1536 14.1534 1.56917 -8.95134
361 1 15.7255 12.5798 -0.000827949 -8.94938
362 1 17.2981 14.1526 1.57125 -8.94923
538 1 17.2971 20.4419 11.0069 -8.94954
364 1 20.442 14.152 1.57196 -8.94947
509 1 12.58 18.8704 9.43409 -8.94875
366 1 1.57197 17.297 1.57184 -8.94984
367 1 3.14449 15.7243 -0.000294386 -8.94975
368 1 4.71603 17.2978 1.57061 -8.94954
508 1 9.43431 18.8707 9.43423 -8.94629
370 1 7.86166 17.2978 1.57093 -8.94918
371 1 9.43418 15.725 -0.000903175 -8.94967
372 1 11.0071 17.2979 1.57106 -8.94935
507 1 6.28683 18.8736 9.43417 -8.94956
374 1 14.1525 17.298 1.5711 -8.9497
506 1 3.14299 18.8707 9.43447 -8.94946
376 1 17.298 17.298 1.57135 -8.94847
505 1 -0.000636066 18.8697 9.4345 -8.94952
378 1 20.4419 17.2971 1.57203 -8.94958
504 1 18.8698 15.7251 9.4344 -8.9495
380 1 1.57188 20.4418 1.5719 -8.94915
503 1 15.7263 15.7262 9.43416 -8.94643
382 1 4.71686 20.4419 1.57179 -8.94961
383 1 6.28939 18.8696 -0.000428754 -8.94949
384 1 7.86199 20.4419 1.57182 -8.94949
502 1 12.5792 15.726 9.43316 -8.94721
386 1 11.0071 20.4419 1.57185 -8.94952
534 1 4.71587 20.4428 11.0073 -8.94936
388 1 14.1521 20.4419 1.57196 -8.9495
501 1 9.42907 15.7227 9.43401 -9.00724
390 1 17.2971 20.442 1.57199 -8.94946
500 1 6.27792 15.7363 9.43358 -8.94354
392 1 20.4415 20.4417 1.57221 -8.94953
393 1 1.57158 11.007 4.71621 -8.94946
394 1 4.71552 11.007 4.71507 -8.94598
395 1 7.86465 11.007 4.71963 -8.94595
396 1 11.0108 11.007 4.71873 -8.99311
397 1 14.1613 11.007 4.70805 -8.94236
398 1 17.3007 11.007 4.71503 -8.9492
399 1 20.4424 11.007 4.71654 -8.94989
400 1 1.11805e-05 12.5795 3.1442 -8.94954
401 1 1.57146 14.1518 4.71644 -8.94984
402 1 3.14396 12.5794 3.14374 -8.94896
403 1 4.7147 14.1521 4.71489 -8.95178
404 1 6.28922 12.5786 3.14369 -8.94939
405 1 7.85648 14.158 4.70642 -8.95544
406 1 9.43493 12.5796 3.14313 -8.95048
407 1 11.0078 14.1565 4.70826 -8.9522
408 1 12.5823 12.5805 3.1373 -8.95809
409 1 14.1631 14.162 4.70592 -8.93447
410 1 15.7278 12.5806 3.14143 -8.94783
411 1 17.3005 14.1536 4.71533 -8.95062
412 1 18.8706 12.5797 3.14382 -8.94933
413 1 20.4422 14.1522 4.7167 -8.95007
414 1 22.0138 15.7245 3.14431 -8.94983
415 1 1.57057 17.2978 4.71597 -8.94948
416 1 3.14358 15.7247 3.14349 -8.9504
417 1 4.71258 17.3011 4.71254 -8.94408
418 1 6.2868 15.7269 3.13995 -8.95032
419 1 7.8607 17.3005 4.71405 -8.94872
420 1 9.43403 15.7268 3.14127 -8.94804
421 1 11.0077 17.3 4.71443 -8.94766
422 1 12.5807 15.7268 3.14115 -8.94951
423 1 14.1549 17.3012 4.71424 -8.94932
424 1 15.7281 15.7279 3.14113 -8.94559
425 1 17.2979 17.2979 4.71665 -8.95003
426 1 18.8705 15.7251 3.14395 -8.94968
427 1 20.4414 17.2972 4.71688 -8.94985
428 1 22.0134 18.8695 3.14432 -8.94949
429 1 1.57168 20.4419 4.71675 -8.94948
430 1 3.1433 18.8704 3.14326 -8.94811
431 1 4.71616 20.4427 4.71607 -8.95002
432 1 6.28892 18.8705 3.14335 -8.94955
433 1 7.86193 20.4426 4.71625 -8.94961
434 1 9.43451 18.8704 3.14354 -8.94939
435 1 11.0073 20.4425 4.71636 -8.94956
436 1 12.5799 18.8705 3.1437 -8.94914
437 1 14.1524 20.4425 4.71674 -8.95055
438 1 15.7254 18.8707 3.1437 -8.94934
439 1 17.297 20.4419 4.71713 -8.94968
440 1 18.8695 18.8696 3.1445 -8.94972
441 1 20.4414 20.4417 4.7171 -8.94954
442 1 1.57121 11.007 7.86135 -8.94725
443 1 4.71848 11.007 7.86187 -8.94001
444 1 7.88426 11.007 7.87129 -8.95341
445 1 11.0751 11.007 7.67397 -8.22527
446 1 14.1597 11.007 7.85555 -8.96803
447 1 17.299 11.007 7.86221 -8.95112
448 1 20.4417 11.007 7.86196 -8.94945
449 1 22.0135 12.5794 6.28913 -8.94976
450 1 1.56892 14.1527 7.86116 -8.95169
451 1 3.14292 12.5788 6.28848 -8.94979
452 1 4.70452 14.1578 7.85723 -8.95596
453 1 6.28624 12.577 6.28744 -8.95314
454 1 7.81852 14.192 7.82416 -8.84408
455 1 9.42307 12.6007 6.28403 -8.91604
456 1 11.0227 14.1649 7.8353 -8.89606
457 1 12.6135 12.6063 6.25644 -8.87922
458 1 14.1576 14.155 7.86098 -8.95046
459 1 15.7331 12.5815 6.28607 -8.95631
460 1 17.2983 14.1523 7.86255 -8.95081
461 1 18.8712 12.5796 6.2892 -8.95131
462 1 20.4412 14.1522 7.86196 -8.9501
463 1 -0.00127362 15.7249 6.28904 -8.9502
464 1 1.57046 17.298 7.86159 -8.94939
465 1 3.13963 15.727 6.28679 -8.95018
466 1 4.71276 17.3012 7.86019 -8.94769
467 1 6.27554 15.7381 6.27613 -8.92798
468 1 7.85874 17.3058 7.85998 -8.95978
469 1 9.43342 15.7338 6.28325 -8.9488
470 1 11.0064 17.2996 7.86115 -8.953
471 1 12.5862 15.7347 6.28187 -8.95019
472 1 14.1529 17.2984 7.86197 -8.94896
473 1 15.7273 15.7265 6.28859 -8.95058
474 1 17.2976 17.2976 7.86196 -8.949
475 1 18.8698 15.7249 6.28953 -8.95008
476 1 20.4413 17.2973 7.86193 -8.94955
477 1 22.0133 18.8697 6.28936 -8.94949
478 1 1.57161 20.442 7.8619 -8.94952
479 1 3.14306 18.8707 6.28863 -8.9492
480 1 4.71585 20.4429 7.8615 -8.94939
481 1 6.28765 18.8732 6.28764 -8.9517
482 1 7.86182 20.4434 7.86174 -8.9515
483 1 9.43466 18.8722 6.28814 -8.95036
484 1 11.0071 20.4423 7.86195 -8.94966
485 1 12.58 18.8715 6.28897 -8.95222
486 1 14.1524 20.4421 7.86196 -8.94941
487 1 15.725 18.8701 6.28956 -8.94959
488 1 17.2971 20.4419 7.86202 -8.94952
489 1 18.8693 18.8696 6.28955 -8.94945
490 1 20.4414 20.4417 7.86202 -8.94956
491 1 22.0124 12.5795 9.43425 -8.94974
492 1 3.13942 12.5803 9.43302 -8.95046
493 1 6.2754 12.5943 9.4279 -9.00245
494 1 9.35589 12.8322 9.42825 -8.1273
495 1 12.5665 12.5834 9.42319 -8.94063
496 1 15.7225 12.5787 9.43514 -8.94469
497 1 18.8692 12.5796 9.43455 -8.9482
498 1 22.0126 15.7251 9.43445 -8.94994
499 1 3.13976 15.7271 9.43437 -8.94935
512 1 1.56928 11.007 11.0072 -8.95116
514 1 7.81821 11.007 10.9709 -9.12748
519 1 1.56922 14.1525 11.0072 -8.95153
532 1 20.4413 17.2973 11.007 -8.94956
527 1 4.71287 17.3009 11.0083 -8.94745
531 1 17.2977 17.2977 11.0068 -8.94907
530 1 14.153 17.2985 11.0062 -8.94868
373 1 12.5795 15.7251 -0.000844755 -8.94979
377 1 18.8697 15.7247 -0.000256306 -8.94949
379 1 22.0139 18.8693 -0.000184718 -8.94958
687 2 9.45599 11.007 11.7399 0.653592
513 1 4.70654 11.007 11.0052 -8.96112
686 1 20.4416 20.4417 20.4415 -8.94929
515 1 11.1895 11.007 11.1906 -8.38234
516 1 14.1499 11.007 11.0159 -8.99387
517 1 17.2977 11.007 11.0067 -8.9477
518 1 20.4413 11.007 11.0069 -8.94944
685 1 18.8697 18.8697 18.8695 -8.94908
520 1 4.70562 14.156 11.0095 -8.95845
521 1 7.81856 14.1913 11.0398 -8.90089
522 1 11.0277 14.1639 11.028 -8.9539
523 1 14.1573 14.1545 11.0053 -8.95339
524 1 17.2987 14.1527 11.0063 -8.94999
525 1 20.4414 14.1522 11.0069 -8.94998
684 1 17.2969 20.4418 20.4416 -8.94957
683 1 15.7248 18.8699 18.8697 -8.94955
528 1 7.85819 17.3066 11.0077 -8.95801
529 1 11.0072 17.3005 11.0062 -8.95065
391 1 18.8696 18.8696 22.0137 -8.94921
682 1 14.152 20.4418 20.4416 -8.94956
681 1 12.5795 18.8698 18.8697 -8.94952
533 1 1.57161 20.442 11.0071 -8.9495
680 1 11.007 20.4418 20.4416 -8.94955
535 1 7.86167 20.4436 11.0069 -8.9515
536 1 11.0073 20.4426 11.0066 -8.9496
537 1 14.1524 20.4421 11.0068 -8.9494
679 1 9.43439 18.8697 18.8696 -8.94951
539 1 20.4414 20.4418 11.007 -8.94956
540 1 1.57113 11.007 14.1528 -8.9494
541 1 4.71439 11.007 14.1533 -8.94735
542 1 7.86 11.007 14.1529 -8.98149
543 1 11.0223 11.007 14.1666 -9.03439
544 1 14.1656 11.007 14.1653 -8.94308
545 1 17.302 11.007 14.1546 -8.94947
546 1 20.4425 11.007 14.1526 -8.95006
547 1 22.0131 12.5796 12.5799 -8.94996
548 1 1.57101 14.1522 14.1528 -8.9496
549 1 3.14113 12.5797 12.5808 -8.94808
550 1 4.71369 14.1528 14.1542 -8.95106
551 1 6.28369 12.5795 12.5822 -8.99835
552 1 7.85409 14.1589 14.1623 -8.98744
553 1 9.42961 12.6388 12.5986 -9.18601
554 1 11.0112 14.1605 14.164 -8.9803
555 1 12.6257 12.6227 12.6288 -8.88248
556 1 14.1686 14.1672 14.168 -8.92534
557 1 15.7349 12.5817 12.5834 -8.96072
558 1 17.3018 14.1541 14.1541 -8.95188
559 1 18.8715 12.5796 12.5797 -8.95198
560 1 20.4423 14.1523 14.1524 -8.95036
561 1 22.0128 15.7249 12.5798 -8.9502
562 1 1.57069 17.2978 14.1529 -8.94974
563 1 3.14007 15.7267 12.5816 -8.95094
564 1 4.71259 17.3011 14.1562 -8.94467
565 1 6.27616 15.7381 12.5916 -8.92983
566 1 7.86011 17.3015 14.1552 -8.94787
567 1 9.43436 15.7414 12.5841 -8.96115
568 1 11.0082 17.302 14.1553 -8.94684
569 1 12.5867 15.7378 12.5869 -8.95486
570 1 14.1555 17.3025 14.1551 -8.95031
571 1 15.7275 15.7267 12.5797 -8.95066
572 1 17.2981 17.2981 14.1523 -8.95023
573 1 18.8701 15.725 12.5794 -8.94975
574 1 20.4415 17.2972 14.1521 -8.94982
575 1 -0.000590949 18.8697 12.5796 -8.94946
576 1 1.5717 20.4419 14.1522 -8.9495
577 1 3.14312 18.8706 12.5802 -8.94919
578 1 4.7161 20.4427 14.1529 -8.95
579 1 6.2876 18.8733 12.5811 -8.95151
580 1 7.86174 20.4429 14.1528 -8.94972
581 1 9.43468 18.8737 12.5805 -8.95273
582 1 11.0074 20.443 14.1528 -8.94984
583 1 12.5801 18.8723 12.5797 -8.9528
584 1 14.1525 20.4427 14.1523 -8.95077
585 1 15.725 18.8702 12.5792 -8.94948
586 1 17.2971 20.4419 14.1518 -8.94967
587 1 18.8694 18.8696 12.5794 -8.94943
588 1 20.4414 20.4417 14.1519 -8.94953
589 1 1.57198 11.007 17.2974 -8.94954
590 1 4.71628 11.007 17.2978 -8.94899
591 1 7.86205 11.007 17.2971 -8.95009
592 1 11.0072 11.007 17.3009 -8.95201
593 1 14.1553 11.007 17.3024 -8.94878
594 1 17.2988 11.007 17.2986 -8.9493
595 1 20.4421 11.007 17.2974 -8.94952
596 1 22.0139 12.5795 15.725 -8.94962
597 1 1.57201 14.152 17.2973 -8.94952
598 1 3.14357 12.5794 15.7255 -8.94945
599 1 4.71637 14.1519 17.2979 -8.94932
600 1 6.28793 12.5791 15.7262 -8.9484
601 1 7.86181 14.1519 17.2986 -8.95328
602 1 9.43507 12.5782 15.7226 -8.99554
603 1 11.0063 14.1529 17.3001 -8.95185
604 1 12.5858 12.5831 15.7381 -8.95738
605 1 14.1549 14.1547 17.3022 -8.95067
606 1 15.7297 12.5812 15.7292 -8.94729
607 1 17.2988 14.1529 17.2985 -8.94909
608 1 18.8712 12.5799 15.7255 -8.94936
609 1 20.4421 14.1521 17.2973 -8.94948
610 1 -0.000128579 15.7247 15.7249 -8.94981
611 1 1.5719 17.2971 17.2973 -8.94979
612 1 3.14328 15.7249 15.7257 -8.95013
613 1 4.71582 17.298 17.2986 -8.94938
614 1 6.2862 15.7275 15.7293 -8.94982
615 1 7.86156 17.2978 17.2983 -8.94915
616 1 9.43361 15.7271 15.7274 -8.94764
617 1 11.0069 17.2981 17.2983 -8.94946
618 1 12.5818 15.7287 15.7295 -8.94842
619 1 14.153 17.2987 17.2987 -8.9494
620 1 15.7299 15.7297 15.7295 -8.94323
621 1 17.2985 17.2985 17.2983 -8.94786
622 1 18.871 15.7255 15.7254 -8.94989
623 1 20.442 17.2972 17.2972 -8.94956
624 1 22.0134 18.8696 15.7247 -8.94957
625 1 1.57186 20.4418 17.2972 -8.9492
626 1 3.14325 18.8704 15.7258 -8.94826
627 1 4.71672 20.442 17.2974 -8.94957
628 1 6.28864 18.8708 15.7259 -8.94946
629 1 7.8619 20.442 17.2974 -8.94941
630 1 9.43436 18.8708 15.7257 -8.94902
631 1 11.007 20.442 17.2974 -8.94944
632 1 12.5802 18.8712 15.7258 -8.94904
633 1 14.1523 20.4421 17.2974 -8.94946
634 1 15.7258 18.8712 15.7256 -8.94953
635 1 17.2973 20.4421 17.2972 -8.9495
636 1 18.8696 18.8697 15.7245 -8.94983
637 1 20.4415 20.4417 17.2969 -8.9496
638 1 1.5722 11.007 20.4416 -8.94959
639 1 4.71676 11.007 20.4416 -8.94965
640 1 7.86176 11.007 20.4416 -8.94925
641 1 11.0066 11.007 20.4423 -8.94948
642 1 14.1528 11.007 20.4423 -8.95025
643 1 17.2977 11.007 20.4418 -8.94945
644 1 20.4418 11.007 20.4416 -8.94955
645 1 4.80967e-05 12.5795 18.8694 -8.94955
646 1 1.57222 14.1519 20.4416 -8.94955
647 1 3.14434 12.5794 18.8696 -8.94955
648 1 4.71684 14.1518 20.4416 -8.94963
649 1 6.28915 12.5793 18.8698 -8.94982
650 1 7.86178 14.1519 20.4415 -8.95021
651 1 9.43411 12.5795 18.8697 -8.9477
652 1 11.0066 14.1523 20.4418 -8.95019
653 1 12.58 12.5799 18.8724 -8.95228
654 1 14.1525 14.1526 20.4422 -8.95067
655 1 15.7259 12.58 18.871 -8.94927
656 1 17.2976 14.1523 20.4418 -8.94937
657 1 18.87 12.5796 18.8697 -8.94946
658 1 20.4418 14.152 20.4416 -8.94954
659 1 22.0139 15.7244 18.8694 -8.94954
660 1 1.57224 17.2968 20.4416 -8.94968
661 1 3.1444 15.7244 18.8696 -8.94963
662 1 4.71677 17.2971 20.4416 -8.95009
663 1 6.28913 15.7246 18.8701 -8.95089
664 1 7.86177 17.2973 20.4416 -8.94953
665 1 9.43404 15.7252 18.8702 -8.94947
666 1 11.0069 17.2974 20.4416 -8.94955
667 1 12.5795 15.7252 18.8706 -8.95009
668 1 14.1521 17.2974 20.4417 -8.94971
669 1 15.7257 15.7257 18.8709 -8.94971
670 1 17.2974 17.2975 20.4417 -8.94945
671 1 18.8699 15.7248 18.8696 -8.94947
672 1 20.4418 17.2969 20.4416 -8.94955
673 1 -3.53887e-05 18.8693 18.8693 -8.94958
674 1 1.57215 20.4417 20.4415 -8.9494
675 1 3.14425 18.8696 18.8697 -8.94945
676 1 4.71705 20.4417 20.4415 -8.94957
677 1 6.28936 18.8696 18.8696 -8.9495
678 1 7.86199 20.4418 20.4416 -8.94954
353 1 3.14442 12.5794 22.0136 -8.94955
357 1 9.43427 12.5794 22.0134 -8.9492
359 1 12.5797 12.5796 22.0128 -8.95149
365 1 4.26089e-05 15.7244 22.0137 -8.94953
369 1 6.28912 15.7247 22.0129 -8.95063
389 1 15.7246 18.8697 22.0136 -8.94965
375 1 15.7253 15.7253 22.0131 -8.94997
385 1 9.43445 18.8697 22.0135 -8.94952
381 1 3.14432 18.8695 22.0134 -8.94952
363 1 18.8698 12.5795 22.0136 -8.9495
387 1 12.5795 18.8697 22.0136 -8.94948
526 1 1.5705 17.2979 11.0073 -8.94927
