ITEM: TIMESTEP
44
ITEM: NUMBER OF ATOMS
688
ITEM: BOX BOUNDS pp pp pp
0.0000000000000000e+00 2.2013900999999997e+01
0.0000000000000000e+00 2.2013900999999997e+01
0.0000000000000000e+00 2.2013900999999997e+01
ITEM: ATOMS id type x y z c_pot
190 1 1.57242 7.86211 11.007 -8.94969
2 1 1.57242 1.57242 1.57242 -8.94963
175 1 18.8691 9.43453 9.43453 -8.94966
4 1 4.71726 1.57242 1.57242 -8.94963
174 1 15.7245 9.4344 9.4345 -8.94924
6 1 7.86211 1.57242 1.57242 -8.94963
7 1 9.43453 3.97405e-17 -1.38805e-09 -8.94963
8 1 11.007 1.57242 1.57242 -8.94963
173 1 12.5821 9.43111 9.43454 -8.95084
10 1 14.1518 1.57242 1.57242 -8.94963
172 1 9.37651 9.30675 9.42975 -8.0542
12 1 17.2966 1.57242 1.57242 -8.94963
189 1 20.4415 4.71726 11.007 -8.94963
14 1 20.4415 1.57242 1.57242 -8.94963
171 1 6.28705 9.43356 9.43442 -8.99998
16 1 1.57242 4.71726 1.57242 -8.94963
170 1 3.14473 9.4345 9.4345 -8.95002
18 1 4.71726 4.71726 1.57242 -8.94963
19 1 6.28969 3.14484 4.33408e-08 -8.94963
20 1 7.86211 4.71726 1.57242 -8.94963
169 1 22.0139 9.43453 9.43453 -8.94965
22 1 11.007 4.71726 1.57242 -8.94963
188 1 17.2966 4.71727 11.007 -8.94964
24 1 14.1518 4.71727 1.57242 -8.94964
168 1 18.8691 6.28969 9.43453 -8.94963
26 1 17.2966 4.71726 1.57242 -8.94963
167 1 15.7242 6.28969 9.43453 -8.94965
28 1 20.4415 4.71726 1.57242 -8.94963
166 1 12.5793 6.2896 9.43453 -8.95123
30 1 1.57242 7.86211 1.57242 -8.94963
31 1 3.14484 6.28969 4.84859e-08 -8.94963
32 1 4.71726 7.86211 1.57242 -8.94964
165 1 9.43441 6.28474 9.43451 -8.97268
34 1 7.8621 7.8621 1.57241 -8.94965
35 1 9.43453 6.28969 3.12765e-07 -8.94963
36 1 11.0069 7.86211 1.57242 -8.94965
164 1 6.28966 6.28963 9.43453 -8.95153
38 1 14.1518 7.8621 1.57241 -8.94962
163 1 3.14484 6.28968 9.43453 -8.94964
40 1 17.2966 7.86211 1.57242 -8.94964
162 1 22.0139 6.28969 9.43453 -8.94963
42 1 20.4415 7.86211 1.57242 -8.94963
43 1 22.0139 9.43453 -1.08725e-09 -8.94963
161 1 18.8691 3.14484 9.43453 -8.94963
45 1 6.28969 9.43453 5.12918e-07 -8.94964
160 1 15.7242 3.14484 9.43453 -8.94963
159 1 12.5794 3.14484 9.43453 -8.94967
48 1 15.7242 9.43453 4.85894e-07 -8.94963
184 1 4.71727 4.71727 11.0069 -8.94979
50 1 1.20562e-09 1.245e-15 3.14484 -8.94963
51 1 1.57242 1.57242 4.71726 -8.94963
52 1 3.14484 8.54825e-16 3.14484 -8.94963
53 1 4.71726 1.57242 4.71726 -8.94963
54 1 6.28969 5.72052e-17 3.14484 -8.94963
55 1 7.86211 1.57242 4.71726 -8.94963
56 1 9.43453 4.6594e-16 3.14484 -8.94963
57 1 11.007 1.57242 4.71726 -8.94963
58 1 12.5794 -5.54783e-16 3.14484 -8.94963
59 1 14.1518 1.57242 4.71726 -8.94963
60 1 15.7242 6.74934e-17 3.14484 -8.94963
61 1 17.2966 1.57242 4.71726 -8.94963
62 1 18.8691 7.3304e-16 3.14484 -8.94963
63 1 20.4415 1.57242 4.71726 -8.94963
64 1 22.0139 3.14484 3.14484 -8.94963
65 1 1.57242 4.71726 4.71726 -8.94963
66 1 3.14484 3.14484 3.14484 -8.94963
67 1 4.71726 4.71725 4.71726 -8.94951
68 1 6.28969 3.14484 3.14484 -8.94965
69 1 7.86211 4.71727 4.71727 -8.94982
70 1 9.43453 3.14484 3.14484 -8.94963
71 1 11.0069 4.71727 4.71726 -8.94965
72 1 12.5794 3.14484 3.14484 -8.94964
73 1 14.1518 4.71725 4.71726 -8.94963
74 1 15.7242 3.14484 3.14484 -8.94963
75 1 17.2966 4.71726 4.71726 -8.94964
76 1 18.8691 3.14484 3.14484 -8.94963
77 1 20.4415 4.71726 4.71726 -8.94963
78 1 22.0139 6.28969 3.14484 -8.94963
79 1 1.57242 7.86211 4.71726 -8.94963
80 1 3.14484 6.28969 3.14484 -8.94964
81 1 4.71727 7.8621 4.71727 -8.94974
82 1 6.28968 6.28968 3.14483 -8.94964
83 1 7.86201 7.86202 4.717 -8.95034
84 1 9.43453 6.28969 3.14485 -8.94965
85 1 11.0069 7.86215 4.71723 -8.95131
86 1 12.5794 6.28969 3.14485 -8.94981
87 1 14.152 7.86185 4.71701 -8.94719
88 1 15.7242 6.28968 3.14483 -8.94952
89 1 17.2966 7.8621 4.71726 -8.94965
90 1 18.8691 6.28969 3.14484 -8.94963
91 1 20.4415 7.86211 4.71726 -8.94963
92 1 2.28312e-08 9.43453 3.14484 -8.94963
93 1 3.14484 9.43453 3.14484 -8.94964
94 1 6.28968 9.43453 3.14484 -8.9497
95 1 9.43442 9.43442 3.14469 -8.94912
96 1 12.5795 9.43441 3.14457 -8.9501
97 1 15.7242 9.43453 3.14485 -8.94979
98 1 18.8691 9.43453 3.14484 -8.94963
99 1 22.0139 1.46582e-15 6.28969 -8.94963
100 1 1.57242 1.57242 7.86211 -8.94963
101 1 3.14484 6.03994e-16 6.28969 -8.94963
102 1 4.71726 1.57242 7.86211 -8.94963
103 1 6.28969 4.03573e-16 6.28969 -8.94963
104 1 7.8621 1.57241 7.8621 -8.94968
105 1 9.43453 2.69152e-16 6.28969 -8.94963
106 1 11.007 1.57241 7.8621 -8.94965
107 1 12.5794 4.66802e-16 6.28969 -8.94963
108 1 14.1518 1.57242 7.86211 -8.94964
109 1 15.7242 1.50965e-15 6.28969 -8.94963
110 1 17.2966 1.57242 7.86211 -8.94963
111 1 18.8691 9.33299e-16 6.28969 -8.94963
112 1 20.4415 1.57242 7.86211 -8.94963
113 1 22.0139 3.14484 6.28969 -8.94963
114 1 1.57242 4.71726 7.86211 -8.94963
115 1 3.14484 3.14484 6.28969 -8.94964
116 1 4.71727 4.71727 7.86211 -8.94979
117 1 6.28968 3.14483 6.28968 -8.94962
118 1 7.86199 4.71698 7.86199 -8.95019
119 1 9.43453 3.14484 6.28969 -8.94964
120 1 11.0071 4.71711 7.862 -8.94913
121 1 12.5794 3.14483 6.28968 -8.94964
122 1 14.1518 4.71726 7.86211 -8.9497
123 1 15.7242 3.14484 6.28969 -8.94964
124 1 17.2966 4.71727 7.86211 -8.94964
125 1 18.8691 3.14484 6.28969 -8.94963
126 1 20.4415 4.71726 7.86211 -8.94963
127 1 -3.0053e-07 6.28969 6.28969 -8.94963
128 1 1.57241 7.86211 7.86211 -8.94967
129 1 3.14483 6.28968 6.28968 -8.94965
130 1 4.71704 7.86206 7.86205 -8.95053
131 1 6.28942 6.28942 6.28942 -8.94701
132 1 7.85654 7.85679 7.85655 -8.90104
133 1 9.43459 6.28966 6.28973 -8.95137
134 1 11.0089 7.86072 7.85991 -8.93431
135 1 12.5795 6.28943 6.28959 -8.95019
136 1 14.152 7.86197 7.86203 -8.94919
137 1 15.7242 6.28969 6.28968 -8.94973
138 1 17.2966 7.8621 7.8621 -8.94963
139 1 18.8691 6.28969 6.28969 -8.94963
140 1 20.4415 7.86211 7.86211 -8.94963
141 1 22.0139 9.43453 6.28969 -8.94964
142 1 3.14483 9.43453 6.28968 -8.94967
143 1 6.28951 9.43448 6.28957 -8.94942
144 1 9.43276 9.43257 6.28834 -8.93764
145 1 12.5846 9.42933 6.2847 -8.90466
146 1 15.7244 9.43446 6.28963 -8.95055
147 1 18.8691 9.43453 6.28968 -8.94968
148 1 5.18658e-10 7.78585e-16 9.43453 -8.94963
149 1 3.14484 8.56941e-16 9.43453 -8.94963
150 1 6.28969 6.0813e-16 9.43453 -8.94963
151 1 9.43453 6.29183e-16 9.43453 -8.94973
152 1 12.5794 6.94207e-16 9.43453 -8.94963
153 1 15.7242 1.34027e-15 9.43453 -8.94963
154 1 18.8691 1.60472e-16 9.43453 -8.94963
155 1 1.96554e-09 3.14484 9.43453 -8.94963
156 1 3.14484 3.14484 9.43453 -8.94964
157 1 6.28968 3.14484 9.43453 -8.94962
158 1 9.43453 3.14465 9.43453 -8.95094
177 1 4.71726 1.57242 11.007 -8.94964
181 1 17.2966 1.57242 11.007 -8.94963
187 1 14.1518 4.71726 11.0069 -8.94972
3 1 3.14484 1.16026e-15 1.14014e-09 -8.94963
11 1 15.7242 4.09952e-16 1.83324e-09 -8.94963
15 1 22.0139 3.14484 4.83663e-10 -8.94963
41 1 18.8691 6.28969 1.98677e-08 -8.94963
37 1 12.5794 6.28969 3.86196e-07 -8.94963
176 1 1.57242 1.57242 11.007 -8.94963
343 1 18.8691 9.43453 18.8691 -8.94963
178 1 7.8621 1.57241 11.007 -8.94968
179 1 11.007 1.57241 11.007 -8.94964
180 1 14.1518 1.57242 11.007 -8.94964
342 1 15.7242 9.43453 18.8691 -8.94964
182 1 20.4415 1.57242 11.007 -8.94963
341 1 12.5794 9.43452 18.8691 -8.9497
340 1 9.43453 9.43452 18.869 -8.94934
185 1 7.86196 4.71697 11.007 -8.94984
186 1 11.0071 4.71709 11.007 -8.9488
47 1 12.5794 9.43453 22.0139 -8.94968
339 1 6.28968 9.43453 18.8691 -8.94966
338 1 3.14484 9.43453 18.8691 -8.94964
337 1 2.362e-08 9.43453 18.8691 -8.94963
191 1 4.71707 7.86208 11.007 -8.95104
192 1 7.85674 7.85713 11.0118 -8.95867
193 1 11.0088 7.86097 11.0085 -8.99069
194 1 14.152 7.86196 11.007 -8.94977
195 1 17.2966 7.8621 11.007 -8.94966
196 1 20.4415 7.86211 11.007 -8.94963
197 1 22.0139 5.56797e-16 12.5794 -8.94963
198 1 1.57242 1.57242 14.1518 -8.94963
199 1 3.14484 5.10804e-16 12.5794 -8.94963
200 1 4.71726 1.57242 14.1518 -8.94963
201 1 6.28969 8.60043e-16 12.5794 -8.94963
202 1 7.86211 1.57242 14.1518 -8.94963
203 1 9.43453 6.60189e-16 12.5794 -8.94966
204 1 11.007 1.57242 14.1518 -8.94963
205 1 12.5794 3.06666e-16 12.5794 -8.94963
206 1 14.1518 1.57242 14.1518 -8.94963
207 1 15.7242 8.11785e-16 12.5794 -8.94963
208 1 17.2966 1.57242 14.1518 -8.94963
209 1 18.8691 -1.71118e-16 12.5794 -8.94963
210 1 20.4415 1.57242 14.1518 -8.94963
211 1 1.98942e-08 3.14484 12.5794 -8.94963
212 1 1.57242 4.71726 14.1518 -8.94963
213 1 3.14484 3.14484 12.5794 -8.94964
214 1 4.71725 4.71726 14.1518 -8.94954
215 1 6.28968 3.14483 12.5794 -8.94963
216 1 7.86208 4.71727 14.1518 -8.94947
217 1 9.43453 3.1448 12.5794 -8.95005
218 1 11.007 4.71726 14.1518 -8.94931
219 1 12.5794 3.14483 12.5794 -8.94965
220 1 14.1518 4.71725 14.1518 -8.94966
221 1 15.7242 3.14484 12.5794 -8.94963
222 1 17.2966 4.71726 14.1518 -8.94964
223 1 18.8691 3.14484 12.5794 -8.94963
224 1 20.4415 4.71726 14.1518 -8.94963
225 1 22.0139 6.28969 12.5794 -8.94964
226 1 1.57242 7.86211 14.1518 -8.94962
227 1 3.14483 6.28968 12.5794 -8.94965
228 1 4.71725 7.8621 14.1518 -8.9498
229 1 6.28947 6.28947 12.5796 -8.94767
230 1 7.86146 7.86235 14.1521 -8.9882
231 1 9.43459 6.28821 12.5793 -8.9585
232 1 11.0074 7.86248 14.1519 -8.98911
233 1 12.5794 6.28947 12.5794 -8.95088
234 1 14.1521 7.86184 14.1521 -8.9471
235 1 15.7242 6.28969 12.5794 -8.94972
236 1 17.2966 7.8621 14.1518 -8.94964
237 1 18.8691 6.28969 12.5794 -8.94963
238 1 20.4415 7.86211 14.1518 -8.94963
239 1 22.0139 9.43453 12.5794 -8.94963
240 1 3.1448 9.4345 12.5794 -8.94934
241 1 6.28953 9.43436 12.58 -9.00345
242 1 9.43303 9.40509 12.5942 -9.22347
243 1 12.5848 9.42892 12.5851 -8.95412
244 1 15.7245 9.43443 12.5795 -8.95026
245 1 18.8691 9.43453 12.5794 -8.94968
246 1 1.59322e-09 6.99158e-16 15.7242 -8.94963
247 1 1.57242 1.57242 17.2966 -8.94963
248 1 3.14484 8.02084e-17 15.7242 -8.94963
249 1 4.71726 1.57242 17.2966 -8.94963
250 1 6.28969 3.43017e-16 15.7242 -8.94963
251 1 7.86211 1.57242 17.2966 -8.94963
252 1 9.43453 4.64053e-16 15.7242 -8.94963
253 1 11.007 1.57242 17.2966 -8.94963
254 1 12.5794 6.42341e-16 15.7242 -8.94963
255 1 14.1518 1.57242 17.2966 -8.94963
256 1 15.7242 2.60832e-16 15.7242 -8.94963
257 1 17.2966 1.57242 17.2966 -8.94963
258 1 18.8691 2.66894e-16 15.7242 -8.94963
259 1 20.4415 1.57242 17.2966 -8.94963
260 1 22.0139 3.14484 15.7242 -8.94963
261 1 1.57242 4.71726 17.2966 -8.94963
262 1 3.14484 3.14484 15.7242 -8.94963
263 1 4.71727 4.71726 17.2966 -8.94964
264 1 6.28969 3.14484 15.7242 -8.94963
265 1 7.86211 4.71727 17.2966 -8.94966
266 1 9.43453 3.14485 15.7242 -8.94962
267 1 11.0069 4.71727 17.2966 -8.94966
268 1 12.5794 3.14484 15.7242 -8.94962
269 1 14.1518 4.71727 17.2966 -8.94965
270 1 15.7242 3.14484 15.7242 -8.94963
271 1 17.2966 4.71726 17.2966 -8.94963
272 1 18.8691 3.14484 15.7242 -8.94963
273 1 20.4415 4.71726 17.2966 -8.94963
274 1 2.91536e-08 6.28969 15.7242 -8.94963
275 1 1.57242 7.86211 17.2966 -8.94963
276 1 3.14484 6.28969 15.7242 -8.94964
277 1 4.71726 7.8621 17.2966 -8.94956
278 1 6.28969 6.28968 15.7242 -8.94962
279 1 7.86214 7.86215 17.2966 -8.94995
280 1 9.43453 6.2898 15.7241 -8.95035
281 1 11.0069 7.86215 17.2966 -8.94996
282 1 12.5794 6.2897 15.7242 -8.9498
283 1 14.1518 7.86209 17.2967 -8.94954
284 1 15.7242 6.28968 15.7242 -8.94951
285 1 17.2966 7.86211 17.2966 -8.94964
286 1 18.8691 6.28969 15.7242 -8.94963
287 1 20.4415 7.86211 17.2966 -8.94963
288 1 22.0139 9.43453 15.7242 -8.94964
289 1 3.14484 9.43453 15.7242 -8.94968
290 1 6.28951 9.43439 15.7244 -8.94879
291 1 9.43442 9.43514 15.7235 -8.9976
292 1 12.5797 9.43427 15.7247 -8.94913
293 1 15.7242 9.43453 15.7242 -8.94981
294 1 18.8691 9.43453 15.7242 -8.94964
295 1 22.0139 3.02336e-17 18.8691 -8.94963
296 1 1.57242 1.57242 20.4415 -8.94963
297 1 3.14484 3.05507e-16 18.8691 -8.94963
298 1 4.71726 1.57242 20.4415 -8.94963
299 1 6.28969 7.75094e-16 18.8691 -8.94963
300 1 7.86211 1.57242 20.4415 -8.94963
301 1 9.43453 6.3474e-16 18.8691 -8.94963
302 1 11.007 1.57242 20.4415 -8.94963
303 1 12.5794 2.456e-16 18.8691 -8.94963
304 1 14.1518 1.57242 20.4415 -8.94963
305 1 15.7242 1.15165e-15 18.8691 -8.94963
306 1 17.2966 1.57242 20.4415 -8.94963
307 1 18.8691 1.16089e-15 18.8691 -8.94963
308 1 20.4415 1.57242 20.4415 -8.94963
309 1 3.85822e-09 3.14484 18.8691 -8.94963
310 1 1.57242 4.71726 20.4415 -8.94963
311 1 3.14484 3.14484 18.8691 -8.94963
312 1 4.71726 4.71726 20.4415 -8.94963
313 1 6.28969 3.14484 18.8691 -8.94963
314 1 7.86211 4.71726 20.4415 -8.94963
315 1 9.43453 3.14484 18.8691 -8.94963
316 1 11.007 4.71726 20.4415 -8.94963
317 1 12.5794 3.14484 18.8691 -8.94963
318 1 14.1518 4.71726 20.4415 -8.94963
319 1 15.7242 3.14484 18.8691 -8.94963
320 1 17.2966 4.71726 20.4415 -8.94963
321 1 18.8691 3.14484 18.8691 -8.94963
322 1 20.4415 4.71726 20.4415 -8.94963
323 1 22.0139 6.28969 18.8691 -8.94963
324 1 1.57242 7.86211 20.4415 -8.94963
325 1 3.14484 6.28969 18.8691 -8.94963
326 1 4.71726 7.86211 20.4415 -8.94963
327 1 6.28969 6.28969 18.8691 -8.94965
328 1 7.86211 7.86211 20.4415 -8.94963
329 1 9.43453 6.28968 18.8691 -8.9496
330 1 11.0069 7.86211 20.4415 -8.94963
331 1 12.5794 6.28969 18.8691 -8.94966
332 1 14.1518 7.86211 20.4415 -8.94963
333 1 15.7242 6.28969 18.8691 -8.94963
334 1 17.2966 7.86211 20.4415 -8.94963
335 1 18.8691 6.28969 18.8691 -8.94963
336 1 20.4415 7.86211 20.4415 -8.94963
46 1 9.43453 9.43453 22.0139 -8.94963
5 1 6.28969 7.70718e-16 22.0139 -8.94963
9 1 12.5794 2.59835e-16 22.0139 -8.94963
44 1 3.14484 9.43453 22.0139 -8.94963
39 1 15.7242 6.28969 22.0139 -8.94963
17 1 3.14484 3.14484 22.0139 -8.94963
21 1 9.43453 3.14484 22.0139 -8.94963
25 1 15.7242 3.14484 22.0139 -8.94963
27 1 18.8691 3.14484 22.0139 -8.94963
29 1 -6.15442e-10 6.28969 22.0139 -8.94963
33 1 6.28969 6.28969 22.0139 -8.94963
1 1 -1.75413e-10 6.39079e-16 22.0139 -8.94963
13 1 18.8691 9.70028e-16 22.0139 -8.94963
23 1 12.5794 3.14484 22.0139 -8.94963
49 1 18.8691 9.43453 22.0139 -8.94963
183 1 1.57242 4.71726 11.007 -8.94963
344 1 1.57242 11.007 1.57242 -8.94963
345 1 4.71726 11.007 1.57242 -8.94963
346 1 7.86211 11.007 1.57242 -8.94967
347 1 11.0069 11.007 1.57223 -8.95092
348 1 14.1518 11.007 1.57242 -8.94962
349 1 17.2966 11.007 1.57242 -8.94964
350 1 20.4415 11.007 1.57242 -8.94963
351 1 22.0139 12.5794 -1.08725e-09 -8.94963
352 1 1.57242 14.1518 1.57242 -8.94963
688 3 10.2175 11.007 9.43656 3.19388
354 1 4.71726 14.1518 1.57242 -8.94964
355 1 6.28969 12.5794 5.12918e-07 -8.94964
356 1 7.8621 14.1518 1.57241 -8.94965
511 1 18.8691 18.8691 9.43453 -8.94963
358 1 11.0069 14.1518 1.57242 -8.94965
510 1 15.7242 18.8691 9.43453 -8.94963
360 1 14.1518 14.1518 1.57241 -8.94962
361 1 15.7242 12.5794 4.85894e-07 -8.94963
362 1 17.2966 14.1518 1.57242 -8.94964
538 1 17.2966 20.4415 11.007 -8.94963
364 1 20.4415 14.1518 1.57242 -8.94963
509 1 12.5794 18.8691 9.43453 -8.94967
366 1 1.57242 17.2966 1.57242 -8.94963
367 1 3.14484 15.7242 4.84859e-08 -8.94963
368 1 4.71726 17.2966 1.57242 -8.94963
508 1 9.43453 18.8693 9.43453 -8.95094
370 1 7.86211 17.2966 1.57242 -8.94963
371 1 9.43453 15.7242 3.12765e-07 -8.94963
372 1 11.007 17.2966 1.57242 -8.94963
507 1 6.28968 18.8691 9.43453 -8.94962
374 1 14.1518 17.2966 1.57242 -8.94964
506 1 3.14484 18.8691 9.43453 -8.94964
376 1 17.2966 17.2966 1.57242 -8.94963
505 1 1.96554e-09 18.8691 9.43453 -8.94963
378 1 20.4415 17.2966 1.57242 -8.94963
504 1 18.8691 15.7242 9.43453 -8.94963
380 1 1.57242 20.4415 1.57242 -8.94963
503 1 15.7242 15.7242 9.43453 -8.94965
382 1 4.71726 20.4415 1.57242 -8.94963
383 1 6.28969 18.8691 4.33408e-08 -8.94963
384 1 7.86211 20.4415 1.57242 -8.94963
502 1 12.5793 15.7243 9.43453 -8.95123
386 1 11.007 20.4415 1.57242 -8.94963
534 1 4.71726 20.4415 11.007 -8.94964
388 1 14.1518 20.4415 1.57242 -8.94963
501 1 9.43441 15.7292 9.43451 -8.97268
390 1 17.2966 20.4415 1.57242 -8.94963
500 1 6.28966 15.7243 9.43453 -8.95153
392 1 20.4415 20.4415 1.57242 -8.94963
393 1 1.57242 11.007 4.71726 -8.94963
394 1 4.71727 11.007 4.71727 -8.94961
395 1 7.86217 11.007 4.71723 -8.95086
396 1 11.0071 11.007 4.71233 -8.97176
397 1 14.1518 11.007 4.71724 -8.95138
398 1 17.2966 11.007 4.71726 -8.94961
399 1 20.4415 11.007 4.71726 -8.94963
400 1 2.28312e-08 12.5794 3.14484 -8.94963
401 1 1.57242 14.1518 4.71726 -8.94963
402 1 3.14484 12.5794 3.14484 -8.94964
403 1 4.71727 14.1518 4.71727 -8.94974
404 1 6.28968 12.5794 3.14484 -8.9497
405 1 7.86201 14.1519 4.717 -8.95034
406 1 9.43442 12.5795 3.14469 -8.94912
407 1 11.0069 14.1517 4.71723 -8.95131
408 1 12.5795 12.5795 3.14457 -8.9501
409 1 14.152 14.152 4.71701 -8.94719
410 1 15.7242 12.5794 3.14485 -8.94979
411 1 17.2966 14.1518 4.71726 -8.94965
412 1 18.8691 12.5794 3.14484 -8.94963
413 1 20.4415 14.1518 4.71726 -8.94963
414 1 22.0139 15.7242 3.14484 -8.94963
415 1 1.57242 17.2966 4.71726 -8.94963
416 1 3.14484 15.7242 3.14484 -8.94964
417 1 4.71726 17.2966 4.71726 -8.94951
418 1 6.28968 15.7242 3.14483 -8.94964
419 1 7.86211 17.2966 4.71727 -8.94982
420 1 9.43453 15.7242 3.14485 -8.94965
421 1 11.0069 17.2966 4.71726 -8.94965
422 1 12.5794 15.7242 3.14485 -8.94981
423 1 14.1518 17.2966 4.71726 -8.94963
424 1 15.7242 15.7242 3.14483 -8.94952
425 1 17.2966 17.2966 4.71726 -8.94964
426 1 18.8691 15.7242 3.14484 -8.94963
427 1 20.4415 17.2966 4.71726 -8.94963
428 1 22.0139 18.8691 3.14484 -8.94963
429 1 1.57242 20.4415 4.71726 -8.94963
430 1 3.14484 18.8691 3.14484 -8.94963
431 1 4.71726 20.4415 4.71726 -8.94963
432 1 6.28969 18.8691 3.14484 -8.94965
433 1 7.86211 20.4415 4.71726 -8.94963
434 1 9.43453 18.8691 3.14484 -8.94963
435 1 11.007 20.4415 4.71726 -8.94963
436 1 12.5794 18.8691 3.14484 -8.94964
437 1 14.1518 20.4415 4.71726 -8.94963
438 1 15.7242 18.8691 3.14484 -8.94963
439 1 17.2966 20.4415 4.71726 -8.94963
440 1 18.8691 18.8691 3.14484 -8.94963
441 1 20.4415 20.4415 4.71726 -8.94963
442 1 1.57242 11.007 7.86211 -8.94966
443 1 4.71713 11.007 7.8621 -8.95038
444 1 7.85954 11.007 7.85995 -8.95845
445 1 11.0643 11.007 7.73976 -8.06391
446 1 14.1546 11.007 7.86181 -8.96253
447 1 17.2967 11.007 7.86211 -8.95034
448 1 20.4415 11.007 7.86211 -8.94966
449 1 22.0139 12.5794 6.28969 -8.94964
450 1 1.57241 14.1518 7.86211 -8.94967
451 1 3.14483 12.5794 6.28968 -8.94967
452 1 4.71704 14.1518 7.86205 -8.95053
453 1 6.28951 12.5794 6.28957 -8.94942
454 1 7.85654 14.1571 7.85655 -8.90104
455 1 9.43276 12.5813 6.28834 -8.93764
456 1 11.0089 14.1532 7.85991 -8.93431
457 1 12.5846 12.5846 6.2847 -8.90466
458 1 14.152 14.1519 7.86203 -8.94919
459 1 15.7244 12.5794 6.28963 -8.95055
460 1 17.2966 14.1518 7.8621 -8.94963
461 1 18.8691 12.5794 6.28968 -8.94968
462 1 20.4415 14.1518 7.86211 -8.94963
463 1 -3.0053e-07 15.7242 6.28969 -8.94963
464 1 1.57242 17.2966 7.86211 -8.94963
465 1 3.14483 15.7242 6.28968 -8.94965
466 1 4.71727 17.2966 7.86211 -8.94979
467 1 6.28942 15.7245 6.28942 -8.94701
468 1 7.86199 17.2969 7.86199 -8.95019
469 1 9.43459 15.7242 6.28973 -8.95137
470 1 11.0071 17.2968 7.862 -8.94913
471 1 12.5795 15.7245 6.28959 -8.95019
472 1 14.1518 17.2966 7.86211 -8.9497
473 1 15.7242 15.7242 6.28968 -8.94973
474 1 17.2966 17.2966 7.86211 -8.94964
475 1 18.8691 15.7242 6.28969 -8.94963
476 1 20.4415 17.2966 7.86211 -8.94963
477 1 22.0139 18.8691 6.28969 -8.94963
478 1 1.57242 20.4415 7.86211 -8.94963
479 1 3.14484 18.8691 6.28969 -8.94964
480 1 4.71726 20.4415 7.86211 -8.94963
481 1 6.28968 18.8691 6.28968 -8.94962
482 1 7.8621 20.4415 7.8621 -8.94968
483 1 9.43453 18.8691 6.28969 -8.94964
484 1 11.007 20.4415 7.8621 -8.94965
485 1 12.5794 18.8691 6.28968 -8.94964
486 1 14.1518 20.4415 7.86211 -8.94964
487 1 15.7242 18.8691 6.28969 -8.94964
488 1 17.2966 20.4415 7.86211 -8.94963
489 1 18.8691 18.8691 6.28969 -8.94963
490 1 20.4415 20.4415 7.86211 -8.94963
491 1 22.0139 12.5794 9.43453 -8.94965
492 1 3.14473 12.5794 9.4345 -8.95002
493 1 6.28705 12.5803 9.43442 -8.99998
494 1 9.37651 12.7072 9.42975 -8.0542
495 1 12.5821 12.5828 9.43454 -8.95084
496 1 15.7245 12.5795 9.4345 -8.94924
497 1 18.8691 12.5794 9.43453 -8.94966
498 1 22.0139 15.7242 9.43453 -8.94963
499 1 3.14484 15.7242 9.43453 -8.94964
512 1 1.57236 11.007 11.007 -8.95009
514 1 7.83078 11.007 10.996 -9.1948
519 1 1.57242 14.1518 11.007 -8.94969
532 1 20.4415 17.2966 11.007 -8.94963
527 1 4.71727 17.2966 11.0069 -8.94979
531 1 17.2966 17.2966 11.007 -8.94964
530 1 14.1518 17.2966 11.0069 -8.94972
373 1 12.5794 15.7242 3.86196e-07 -8.94963
377 1 18.8691 15.7242 1.98677e-08 -8.94963
379 1 22.0139 18.8691 4.83662e-10 -8.94963
687 2 9.43482 11.007 11.7899 0.940044
513 1 4.71553 11.007 11.0071 -8.95696
686 1 20.4415 20.4415 20.4415 -8.94963
515 1 11.0954 11.007 11.1183 -8.31151
516 1 14.1563 11.007 11.0074 -8.96677
517 1 17.2968 11.007 11.0069 -8.95079
518 1 20.4415 11.007 11.007 -8.94969
685 1 18.8691 18.8691 18.8691 -8.94963
520 1 4.71707 14.1518 11.007 -8.95104
521 1 7.85674 14.1568 11.0118 -8.95867
522 1 11.0088 14.1529 11.0085 -8.99069
523 1 14.152 14.1519 11.007 -8.94977
524 1 17.2966 14.1518 11.007 -8.94966
525 1 20.4415 14.1518 11.007 -8.94963
684 1 17.2966 20.4415 20.4415 -8.94963
683 1 15.7242 18.8691 18.8691 -8.94963
528 1 7.86196 17.2969 11.007 -8.94984
529 1 11.0071 17.2968 11.007 -8.9488
391 1 18.8691 18.8691 22.0139 -8.94963
682 1 14.1518 20.4415 20.4415 -8.94963
681 1 12.5794 18.8691 18.8691 -8.94963
533 1 1.57242 20.4415 11.007 -8.94963
680 1 11.007 20.4415 20.4415 -8.94963
535 1 7.8621 20.4415 11.007 -8.94968
536 1 11.007 20.4415 11.007 -8.94964
537 1 14.1518 20.4415 11.007 -8.94964
679 1 9.43453 18.8691 18.8691 -8.94963
539 1 20.4415 20.4415 11.007 -8.94963
540 1 1.57242 11.007 14.1518 -8.94968
541 1 4.71715 11.007 14.1518 -8.95058
542 1 7.85937 11.007 14.1559 -8.98625
543 1 11.0099 11.007 14.1614 -9.01021
544 1 14.152 11.007 14.1519 -8.95241
545 1 17.2966 11.007 14.1518 -8.94967
546 1 20.4415 11.007 14.1518 -8.94963
547 1 22.0139 12.5794 12.5794 -8.94963
548 1 1.57242 14.1518 14.1518 -8.94962
549 1 3.1448 12.5794 12.5794 -8.94934
550 1 4.71725 14.1518 14.1518 -8.9498
551 1 6.28953 12.5795 12.58 -9.00345
552 1 7.86146 14.1515 14.1521 -8.9882
553 1 9.43303 12.6088 12.5942 -9.22347
554 1 11.0074 14.1514 14.1519 -8.98911
555 1 12.5848 12.585 12.5851 -8.95412
556 1 14.1521 14.1521 14.1521 -8.9471
557 1 15.7245 12.5795 12.5795 -8.95026
558 1 17.2966 14.1518 14.1518 -8.94964
559 1 18.8691 12.5794 12.5794 -8.94968
560 1 20.4415 14.1518 14.1518 -8.94963
561 1 22.0139 15.7242 12.5794 -8.94964
562 1 1.57242 17.2966 14.1518 -8.94963
563 1 3.14483 15.7242 12.5794 -8.94965
564 1 4.71725 17.2966 14.1518 -8.94954
565 1 6.28947 15.7244 12.5796 -8.94767
566 1 7.86208 17.2966 14.1518 -8.94947
567 1 9.43459 15.7257 12.5793 -8.9585
568 1 11.007 17.2966 14.1518 -8.94931
569 1 12.5794 15.7244 12.5794 -8.95088
570 1 14.1518 17.2966 14.1518 -8.94966
571 1 15.7242 15.7242 12.5794 -8.94972
572 1 17.2966 17.2966 14.1518 -8.94964
573 1 18.8691 15.7242 12.5794 -8.94963
574 1 20.4415 17.2966 14.1518 -8.94963
575 1 1.98942e-08 18.8691 12.5794 -8.94963
576 1 1.57242 20.4415 14.1518 -8.94963
577 1 3.14484 18.8691 12.5794 -8.94964
578 1 4.71726 20.4415 14.1518 -8.94963
579 1 6.28968 18.8691 12.5794 -8.94963
580 1 7.86211 20.4415 14.1518 -8.94963
581 1 9.43453 18.8691 12.5794 -8.95005
582 1 11.007 20.4415 14.1518 -8.94963
583 1 12.5794 18.8691 12.5794 -8.94965
584 1 14.1518 20.4415 14.1518 -8.94963
585 1 15.7242 18.8691 12.5794 -8.94963
586 1 17.2966 20.4415 14.1518 -8.94963
587 1 18.8691 18.8691 12.5794 -8.94963
588 1 20.4415 20.4415 14.1518 -8.94963
589 1 1.57242 11.007 17.2966 -8.94963
590 1 4.71727 11.007 17.2966 -8.94966
591 1 7.86211 11.007 17.2968 -8.95086
592 1 11.0069 11.007 17.297 -8.95222
593 1 14.1518 11.007 17.2966 -8.94969
594 1 17.2966 11.007 17.2966 -8.94963
595 1 20.4415 11.007 17.2966 -8.94963
596 1 22.0139 12.5794 15.7242 -8.94964
597 1 1.57242 14.1518 17.2966 -8.94963
598 1 3.14484 12.5794 15.7242 -8.94968
599 1 4.71726 14.1518 17.2966 -8.94956
600 1 6.28951 12.5795 15.7244 -8.94879
601 1 7.86214 14.1518 17.2966 -8.94995
602 1 9.43442 12.5788 15.7235 -8.9976
603 1 11.0069 14.1517 17.2966 -8.94996
604 1 12.5797 12.5796 15.7247 -8.94913
605 1 14.1518 14.1518 17.2967 -8.94954
606 1 15.7242 12.5794 15.7242 -8.94981
607 1 17.2966 14.1518 17.2966 -8.94964
608 1 18.8691 12.5794 15.7242 -8.94964
609 1 20.4415 14.1518 17.2966 -8.94963
610 1 2.91536e-08 15.7242 15.7242 -8.94963
611 1 1.57242 17.2966 17.2966 -8.94963
612 1 3.14484 15.7242 15.7242 -8.94964
613 1 4.71727 17.2966 17.2966 -8.94964
614 1 6.28969 15.7242 15.7242 -8.94962
615 1 7.86211 17.2966 17.2966 -8.94966
616 1 9.43453 15.7241 15.7241 -8.95035
617 1 11.0069 17.2966 17.2966 -8.94966
618 1 12.5794 15.7242 15.7242 -8.9498
619 1 14.1518 17.2966 17.2966 -8.94965
620 1 15.7242 15.7242 15.7242 -8.94951
621 1 17.2966 17.2966 17.2966 -8.94963
622 1 18.8691 15.7242 15.7242 -8.94963
623 1 20.4415 17.2966 17.2966 -8.94963
624 1 22.0139 18.8691 15.7242 -8.94963
625 1 1.57242 20.4415 17.2966 -8.94963
626 1 3.14484 18.8691 15.7242 -8.94963
627 1 4.71726 20.4415 17.2966 -8.94963
628 1 6.28969 18.8691 15.7242 -8.94963
629 1 7.86211 20.4415 17.2966 -8.94963
630 1 9.43453 18.8691 15.7242 -8.94962
631 1 11.007 20.4415 17.2966 -8.94963
632 1 12.5794 18.8691 15.7242 -8.94962
633 1 14.1518 20.4415 17.2966 -8.94963
634 1 15.7242 18.8691 15.7242 -8.94963
635 1 17.2966 20.4415 17.2966 -8.94963
636 1 18.8691 18.8691 15.7242 -8.94963
637 1 20.4415 20.4415 17.2966 -8.94963
638 1 1.57242 11.007 20.4415 -8.94963
639 1 4.71726 11.007 20.4415 -8.94963
640 1 7.86211 11.007 20.4415 -8.94969
641 1 11.0069 11.007 20.4415 -8.94979
642 1 14.1518 11.007 20.4415 -8.94963
643 1 17.2966 11.007 20.4415 -8.94963
644 1 20.4415 11.007 20.4415 -8.94963
645 1 2.362e-08 12.5794 18.8691 -8.94963
646 1 1.57242 14.1518 20.4415 -8.94963
647 1 3.14484 12.5794 18.8691 -8.94964
648 1 4.71726 14.1518 20.4415 -8.94963
649 1 6.28968 12.5794 18.8691 -8.94966
650 1 7.86211 14.1518 20.4415 -8.94963
651 1 9.43453 12.5794 18.869 -8.94934
652 1 11.0069 14.1518 20.4415 -8.94963
653 1 12.5794 12.5794 18.8691 -8.9497
654 1 14.1518 14.1518 20.4415 -8.94963
655 1 15.7242 12.5794 18.8691 -8.94964
656 1 17.2966 14.1518 20.4415 -8.94963
657 1 18.8691 12.5794 18.8691 -8.94963
658 1 20.4415 14.1518 20.4415 -8.94963
659 1 22.0139 15.7242 18.8691 -8.94963
660 1 1.57242 17.2966 20.4415 -8.94963
661 1 3.14484 15.7242 18.8691 -8.94963
662 1 4.71726 17.2966 20.4415 -8.94963
663 1 6.28969 15.7242 18.8691 -8.94965
664 1 7.86211 17.2966 20.4415 -8.94963
665 1 9.43453 15.7242 18.8691 -8.9496
666 1 11.007 17.2966 20.4415 -8.94963
667 1 12.5794 15.7242 18.8691 -8.94966
668 1 14.1518 17.2966 20.4415 -8.94963
669 1 15.7242 15.7242 18.8691 -8.94963
670 1 17.2966 17.2966 20.4415 -8.94963
671 1 18.8691 15.7242 18.8691 -8.94963
672 1 20.4415 17.2966 20.4415 -8.94963
673 1 3.85822e-09 18.8691 18.8691 -8.94963
674 1 1.57242 20.4415 20.4415 -8.94963
675 1 3.14484 18.8691 18.8691 -8.94963
676 1 4.71726 20.4415 20.4415 -8.94963
677 1 6.28969 18.8691 18.8691 -8.94963
678 1 7.86211 20.4415 20.4415 -8.94963
353 1 3.14484 12.5794 22.0139 -8.94963
357 1 9.43453 12.5794 22.0139 -8.94963
359 1 12.5794 12.5794 22.0139 -8.94968
365 1 -6.15443e-10 15.7242 22.0139 -8.94963
369 1 6.28969 15.7242 22.0139 -8.94963
389 1 15.7242 18.8691 22.0139 -8.94963
375 1 15.7242 15.7242 22.0139 -8.94963
385 1 9.43453 18.8691 22.0139 -8.94963
381 1 3.14484 18.8691 22.0139 -8.94963
363 1 18.8691 12.5794 22.0139 -8.94963
387 1 12.5794 18.8691 22.0139 -8.94963
526 1 1.57242 17.2966 11.007 -8.94963
