ITEM: TIMESTEP
80
ITEM: NUMBER OF ATOMS
688
ITEM: BOX BOUNDS pp pp pp
0.0000000000000000e+00 2.2013900999999997e+01
0.0000000000000000e+00 2.2013900999999997e+01
0.0000000000000000e+00 2.2013900999999997e+01
ITEM: ATOMS id type x y z c_pot
190 1 1.5694 7.86151 11.0072 -8.9515
2 1 1.57197 1.57215 1.57199 -8.94919
175 1 18.8694 9.43429 9.43453 -8.94823
4 1 4.71695 1.57206 1.5719 -8.94963
174 1 15.7228 9.43511 9.43503 -8.94442
6 1 7.86202 1.57205 1.57192 -8.94951
7 1 9.43452 1.74894e-15 -0.000185274 -8.94957
8 1 11.007 1.57203 1.57193 -8.94953
173 1 12.5663 9.43115 9.42356 -8.94052
10 1 14.152 1.57204 1.57203 -8.94951
172 1 9.35556 9.18317 9.42818 -8.12847
12 1 17.2971 1.57201 1.57205 -8.94948
189 1 20.4414 4.71665 11.007 -8.94956
14 1 20.4415 1.57223 1.57226 -8.94955
171 1 6.27532 9.41991 9.42797 -9.00249
16 1 1.57204 4.71701 1.57194 -8.94983
170 1 3.13952 9.43365 9.43309 -8.95052
18 1 4.71615 4.71623 1.57077 -8.94953
19 1 6.28946 3.1444 -0.000361751 -8.9495
20 1 7.86173 4.71626 1.57108 -8.94918
169 1 22.0125 9.4344 9.43427 -8.94978
22 1 11.007 4.71617 1.57119 -8.94936
188 1 17.2976 4.71625 11.0068 -8.94908
24 1 14.1524 4.71608 1.57124 -8.94971
168 1 18.8698 6.28882 9.43442 -8.94949
26 1 17.2978 4.71607 1.57144 -8.94847
167 1 15.7262 6.28772 9.43419 -8.94647
28 1 20.4418 4.71692 1.57209 -8.94958
166 1 12.5791 6.28819 9.43321 -8.9472
30 1 1.57215 7.86205 1.57199 -8.94944
31 1 3.14454 6.28962 -0.000242692 -8.94974
32 1 4.71677 7.86228 1.57162 -8.94974
165 1 9.42919 6.29146 9.43399 -9.00699
34 1 7.86166 7.86175 1.57014 -8.95234
35 1 9.43421 6.28893 -0.000838149 -8.94965
36 1 11.0067 7.86112 1.56984 -8.95063
164 1 6.27832 6.27801 9.43362 -8.94359
38 1 14.1534 7.86062 1.56929 -8.95132
163 1 3.14008 6.287 9.43441 -8.94936
40 1 17.2979 7.86143 1.57135 -8.94925
162 1 22.0127 6.28893 9.43447 -8.94992
42 1 20.4419 7.8619 1.57202 -8.94948
43 1 22.0139 9.43448 -0.000156047 -8.94958
161 1 18.8693 3.14433 9.43448 -8.94958
45 1 6.2893 9.43464 -0.000312981 -8.94952
160 1 15.725 3.14388 9.43439 -8.94956
159 1 12.58 3.14361 9.43412 -8.94872
48 1 15.7253 9.43414 -0.000792349 -8.94938
184 1 4.7132 4.7133 11.0082 -8.94749
50 1 -0.000242667 1.84655e-15 3.14465 -8.94957
51 1 1.57182 1.57203 4.71685 -8.94951
52 1 3.14423 1.54113e-15 3.1442 -8.94954
53 1 4.7163 1.57128 4.71621 -8.95001
54 1 6.28947 1.45434e-15 3.14422 -8.94956
55 1 7.86198 1.57138 4.71638 -8.9496
56 1 9.4346 2.84872e-16 3.14422 -8.94954
57 1 11.0073 1.57148 4.71645 -8.94955
58 1 12.5796 2.07753e-16 3.14432 -8.9495
59 1 14.1523 1.57151 4.71681 -8.95053
60 1 15.7246 1.61834e-15 3.14448 -8.94996
61 1 17.2969 1.57211 4.71717 -8.94968
62 1 18.8692 1.7859e-15 3.14475 -8.94968
63 1 20.4414 1.57223 4.71714 -8.94955
64 1 22.0135 3.14443 3.14441 -8.9495
65 1 1.57074 4.7162 4.71611 -8.94948
66 1 3.14347 3.14362 3.14343 -8.94814
67 1 4.71286 4.71301 4.71281 -8.94413
68 1 6.28905 3.14355 3.14353 -8.94958
69 1 7.86088 4.71368 4.71429 -8.94877
70 1 9.43453 3.14359 3.14368 -8.94941
71 1 11.0076 4.7141 4.71465 -8.94769
72 1 12.5798 3.14358 3.14383 -8.94915
73 1 14.1547 4.71294 4.71445 -8.94937
74 1 15.7253 3.14331 3.14381 -8.94935
75 1 17.2978 4.71614 4.71674 -8.95003
76 1 18.8694 3.14436 3.14457 -8.94972
77 1 20.4414 4.71679 4.71695 -8.94982
78 1 22.0138 6.28947 3.14439 -8.94982
79 1 1.57155 7.86211 4.71653 -8.94982
80 1 3.14371 6.28931 3.14364 -8.95037
81 1 4.71486 7.86195 4.71503 -8.95175
82 1 6.28697 6.28713 3.14017 -8.95031
83 1 7.85661 7.85616 4.70659 -8.95538
84 1 9.43407 6.28727 3.14147 -8.94804
85 1 11.0077 7.85758 4.70848 -8.95214
86 1 12.5806 6.28727 3.14139 -8.94949
87 1 14.1629 7.85195 4.7061 -8.93423
88 1 15.7279 6.28611 3.14129 -8.94555
89 1 17.3003 7.86038 4.71545 -8.95064
90 1 18.8703 6.28885 3.14404 -8.94968
91 1 20.4422 7.86178 4.71677 -8.95006
92 1 -5.73923e-06 9.43444 3.14428 -8.94954
93 1 3.14401 9.43455 3.14382 -8.94897
94 1 6.28923 9.43533 3.14371 -8.94939
95 1 9.4349 9.43437 3.14308 -8.95056
96 1 12.5821 9.43339 3.13738 -8.95812
97 1 15.7276 9.43334 3.14162 -8.94784
98 1 18.8704 9.43421 3.14393 -8.94934
99 1 22.0136 1.51346e-15 6.28956 -8.94958
100 1 1.57175 1.572 7.86195 -8.94953
101 1 3.14406 9.0909e-16 6.28925 -8.94941
102 1 4.71602 1.57111 7.86158 -8.94939
103 1 6.28921 1.31409e-15 6.28907 -8.95069
104 1 7.8619 1.57063 7.8618 -8.95148
105 1 9.43477 9.11388e-16 6.28913 -8.95022
106 1 11.0071 1.57162 7.86199 -8.94965
107 1 12.5797 1.19352e-15 6.28949 -8.95033
108 1 14.1523 1.57184 7.862 -8.94941
109 1 15.7246 1.69691e-15 6.2896 -8.94952
110 1 17.297 1.57209 7.86203 -8.94954
111 1 18.8692 1.62851e-15 6.28961 -8.94955
112 1 20.4414 1.5722 7.86204 -8.94958
113 1 22.0134 3.14434 6.28943 -8.9495
114 1 1.57068 4.71608 7.86167 -8.9494
115 1 3.14328 3.14336 6.28878 -8.94922
116 1 4.71311 4.71296 7.86033 -8.94772
117 1 6.28785 3.14095 6.2878 -8.95167
118 1 7.85898 4.70838 7.86009 -8.95973
119 1 9.43472 3.14184 6.28827 -8.95033
120 1 11.0065 4.71443 7.86128 -8.95291
121 1 12.5799 3.1425 6.28907 -8.9522
122 1 14.1528 4.71558 7.86208 -8.94898
123 1 15.7249 3.14393 6.28963 -8.94959
124 1 17.2975 4.71634 7.86199 -8.94902
125 1 18.8693 3.14441 6.28959 -8.94946
126 1 20.4413 4.71668 7.86196 -8.94955
127 1 -0.00115166 6.28906 6.28911 -8.95017
128 1 1.5691 7.86124 7.86123 -8.95166
129 1 3.13992 6.28707 6.28697 -8.95017
130 1 4.70481 7.85636 7.85736 -8.95591
131 1 6.27592 6.2762 6.27641 -8.92809
132 1 7.81885 7.82237 7.82439 -8.84439
133 1 9.43358 6.28048 6.28353 -8.94893
134 1 11.0226 7.84953 7.83571 -8.89667
135 1 12.586 6.27944 6.28221 -8.95045
136 1 14.1574 7.85902 7.86125 -8.9505
137 1 15.7271 6.28755 6.28877 -8.95059
138 1 17.2983 7.86154 7.86255 -8.9507
139 1 18.8698 6.28911 6.28957 -8.95002
140 1 20.4413 7.86173 7.86198 -8.95009
141 1 22.0136 9.43453 6.28918 -8.94977
142 1 3.14299 9.43516 6.28855 -8.94978
143 1 6.28626 9.43696 6.28745 -8.95312
144 1 9.42297 9.41343 6.28388 -8.91562
145 1 12.6137 9.40736 6.25642 -8.87784
146 1 15.7331 9.43245 6.28621 -8.95641
147 1 18.8712 9.43426 6.28925 -8.9513
148 1 -0.0002909 1.1539e-15 9.43452 -8.94958
149 1 3.14401 7.94756e-16 9.43451 -8.9495
150 1 6.28881 -1.87331e-16 9.43437 -8.95036
151 1 9.43476 1.28294e-15 9.43436 -8.94854
152 1 12.5799 1.89282e-15 9.43434 -8.94944
153 1 15.7247 1.61533e-15 9.43446 -8.94964
154 1 18.8692 7.34931e-16 9.4345 -8.94959
155 1 -0.000524864 3.1443 9.43451 -8.94953
156 1 3.14322 3.14338 9.43449 -8.94947
157 1 6.28707 3.14049 9.4342 -8.94954
158 1 9.4344 3.14329 9.43426 -8.9463
177 1 4.71604 1.57117 11.0073 -8.94936
181 1 17.2971 1.57207 11.0069 -8.94955
187 1 14.1529 4.71552 11.0062 -8.94873
3 1 3.14465 1.41989e-15 -0.000178236 -8.94964
11 1 15.7244 2.23489e-16 -0.000125901 -8.94959
15 1 22.0139 3.14467 -0.000149842 -8.9496
41 1 18.8696 6.28934 -0.000230077 -8.94952
37 1 12.5795 6.28891 -0.000786175 -8.94976
176 1 1.57176 1.572 11.0071 -8.94952
343 1 18.8698 9.43437 18.8696 -8.94948
178 1 7.86175 1.57041 11.0069 -8.95147
179 1 11.0073 1.57134 11.0066 -8.9496
180 1 14.1524 1.57182 11.0068 -8.9494
342 1 15.7257 9.43402 18.8708 -8.94928
182 1 20.4414 1.57219 11.007 -8.94958
341 1 12.58 9.43407 18.8722 -8.95221
340 1 9.4341 9.43441 18.8698 -8.94779
185 1 7.85842 4.7076 11.0076 -8.95795
186 1 11.0072 4.71351 11.0061 -8.9506
47 1 12.5796 9.43434 22.0128 -8.95147
339 1 6.28915 9.43459 18.8698 -8.94981
338 1 3.14436 9.43447 18.8696 -8.94955
337 1 1.01476e-05 9.43446 18.8694 -8.94956
191 1 4.70593 7.85811 11.0095 -8.95841
192 1 7.81889 7.82305 11.0396 -8.90128
193 1 11.0272 7.85049 11.0277 -8.95435
194 1 14.1571 7.85962 11.0051 -8.95337
195 1 17.2986 7.86122 11.0063 -8.94992
196 1 20.4414 7.86168 11.0069 -8.94996
197 1 22.0136 1.72983e-15 12.5795 -8.94957
198 1 1.57183 1.57204 14.1522 -8.94953
199 1 3.14407 1.466e-15 12.5797 -8.94942
200 1 4.71624 1.57127 14.1528 -8.94999
201 1 6.28911 7.02337e-16 12.5799 -8.95059
202 1 7.8618 1.57109 14.1527 -8.94972
203 1 9.43474 1.59602e-15 12.5798 -8.95087
204 1 11.0074 1.57103 14.1527 -8.94983
205 1 12.5797 1.62405e-15 12.5794 -8.95045
206 1 14.1525 1.57126 14.1522 -8.95072
207 1 15.7246 1.22294e-15 12.5793 -8.94953
208 1 17.297 1.57206 14.1518 -8.94967
209 1 18.8692 1.36911e-15 12.5794 -8.94956
210 1 20.4414 1.57222 14.1519 -8.94954
211 1 -0.000495072 3.14433 12.5796 -8.94947
212 1 1.57085 4.71622 14.1528 -8.94973
213 1 3.14333 3.14344 12.5801 -8.94921
214 1 4.71286 4.71299 14.156 -8.94473
215 1 6.2878 3.14084 12.581 -8.95148
216 1 7.86024 4.71258 14.155 -8.94794
217 1 9.43473 3.14039 12.5804 -8.95273
218 1 11.0082 4.71212 14.1551 -8.94688
219 1 12.58 3.14182 12.5797 -8.95273
220 1 14.1553 4.71174 14.1548 -8.95035
221 1 15.7249 3.14382 12.5792 -8.9495
222 1 17.298 4.71601 14.1522 -8.95022
223 1 18.8693 3.14436 12.5794 -8.94944
224 1 20.4415 4.71675 14.152 -8.9498
225 1 22.0129 6.28908 12.5797 -8.95017
226 1 1.57109 7.86173 14.1527 -8.94958
227 1 3.14034 6.28734 12.5814 -8.95092
228 1 4.71384 7.86119 14.1541 -8.95111
229 1 6.27652 6.27618 12.5913 -8.92994
230 1 7.85402 7.85496 14.1625 -8.9873
231 1 9.43439 6.27269 12.5839 -8.96133
232 1 11.0111 7.85356 14.1638 -8.98031
233 1 12.5864 6.2765 12.5865 -8.95496
234 1 14.1682 7.847 14.1675 -8.92549
235 1 15.7273 6.28738 12.5796 -8.95068
236 1 17.3015 7.85991 14.1539 -8.95181
237 1 18.87 6.28898 12.5793 -8.94972
238 1 20.4423 7.86164 14.1523 -8.95034
239 1 22.0132 9.43435 12.5798 -8.94995
240 1 3.14126 9.43423 12.5808 -8.94805
241 1 6.28383 9.43449 12.5823 -8.99861
242 1 9.42917 9.37483 12.599 -9.18542
243 1 12.6254 9.39155 12.6282 -8.88275
244 1 15.7348 9.43223 12.5832 -8.96053
245 1 18.8714 9.43427 12.5796 -8.95194
246 1 -0.000234322 1.18764e-15 15.7244 -8.94958
247 1 1.57195 1.57213 17.2971 -8.94923
248 1 3.14419 1.4007e-15 15.7248 -8.94956
249 1 4.71681 1.57198 17.2973 -8.94959
250 1 6.28931 1.71521e-15 15.7249 -8.9496
251 1 7.86194 1.57199 17.2973 -8.94943
252 1 9.43454 2.00618e-15 15.725 -8.94947
253 1 11.007 1.57195 17.2973 -8.94946
254 1 12.5798 1.53293e-15 15.7249 -8.9496
255 1 14.1522 1.57185 17.2973 -8.94947
256 1 15.7247 6.3918e-16 15.7246 -8.95007
257 1 17.2972 1.5719 17.2971 -8.94951
258 1 18.8692 7.96915e-16 15.7243 -8.94969
259 1 20.4415 1.57222 17.2968 -8.94962
260 1 22.0135 3.14441 15.7246 -8.94957
261 1 1.57197 4.71691 17.2972 -8.94978
262 1 3.14342 3.14358 15.7256 -8.94829
263 1 4.71593 4.716 17.2985 -8.94933
264 1 6.28876 3.14323 15.7257 -8.94948
265 1 7.86163 4.71618 17.2981 -8.94917
266 1 9.43439 3.14324 15.7255 -8.94904
267 1 11.0069 4.71598 17.2982 -8.94947
268 1 12.5801 3.14288 15.7256 -8.94905
269 1 14.1528 4.71544 17.2985 -8.94939
270 1 15.7256 3.14288 15.7254 -8.94954
271 1 17.2983 4.71562 17.2981 -8.9479
272 1 18.8695 3.1443 15.7245 -8.94983
273 1 20.4419 4.71679 17.2971 -8.94956
274 1 -0.00012417 6.2893 15.7248 -8.9498
275 1 1.57203 7.86196 17.2972 -8.94952
276 1 3.1434 6.28906 15.7255 -8.95013
277 1 4.71641 7.86197 17.2979 -8.94932
278 1 6.28629 6.28651 15.7292 -8.94969
279 1 7.86178 7.86199 17.2987 -8.95326
280 1 9.43365 6.28696 15.7272 -8.94766
281 1 11.0063 7.86103 17.3 -8.95181
282 1 12.5816 6.28542 15.7292 -8.94837
283 1 14.1547 7.85942 17.3019 -8.95066
284 1 15.7296 6.28453 15.7292 -8.94332
285 1 17.2985 7.86114 17.2983 -8.94912
286 1 18.8708 6.28857 15.7252 -8.94987
287 1 20.442 7.86183 17.2972 -8.94949
288 1 22.0139 9.43438 15.7249 -8.94962
289 1 3.14361 9.43446 15.7254 -8.94947
290 1 6.28792 9.43478 15.7263 -8.94842
291 1 9.4349 9.43571 15.7229 -8.99584
292 1 12.5854 9.4309 15.7377 -8.95734
293 1 15.7293 9.43278 15.7289 -8.94736
294 1 18.871 9.43411 15.7254 -8.94936
295 1 22.0138 1.69587e-15 18.8692 -8.94937
296 1 1.5722 1.57223 20.4415 -8.94943
297 1 3.14459 1.16497e-15 18.8693 -8.94959
298 1 4.71711 1.57224 20.4415 -8.94959
299 1 6.28955 1.08384e-15 18.8694 -8.94953
300 1 7.86202 1.57219 20.4415 -8.94956
301 1 9.4345 1.78716e-15 18.8694 -8.94957
302 1 11.007 1.57218 20.4416 -8.94957
303 1 12.5795 1.73467e-15 18.8694 -8.94955
304 1 14.1519 1.57219 20.4416 -8.94957
305 1 15.7244 1.15886e-15 18.8693 -8.94954
306 1 17.2969 1.57219 20.4416 -8.94959
307 1 18.8693 6.99725e-16 18.8693 -8.94945
308 1 20.4416 1.57228 20.4415 -8.94933
309 1 -3.03517e-05 3.14463 18.8693 -8.94959
310 1 1.57227 4.71714 20.4415 -8.94967
311 1 3.14433 3.14436 18.8696 -8.94945
312 1 4.71683 4.71687 20.4416 -8.95006
313 1 6.28942 3.14438 18.8696 -8.94952
314 1 7.86183 4.7167 20.4416 -8.94952
315 1 9.43442 3.14426 18.8696 -8.94952
316 1 11.0069 4.71661 20.4416 -8.94955
317 1 12.5795 3.14425 18.8696 -8.94954
318 1 14.152 4.7166 20.4417 -8.94971
319 1 15.7247 3.14415 18.8696 -8.94956
320 1 17.2973 4.71658 20.4417 -8.94947
321 1 18.8696 3.14433 18.8694 -8.94912
322 1 20.4417 4.71706 20.4416 -8.94957
323 1 22.0139 6.28952 18.8693 -8.94955
324 1 1.57223 7.86203 20.4416 -8.94956
325 1 3.14444 6.28953 18.8695 -8.94962
326 1 4.71688 7.86208 20.4417 -8.94962
327 1 6.28917 6.2893 18.8701 -8.95084
328 1 7.8618 7.86197 20.4416 -8.95022
329 1 9.43408 6.28881 18.8701 -8.94945
330 1 11.0066 7.86163 20.4418 -8.95017
331 1 12.5795 6.28877 18.8705 -8.95005
332 1 14.1525 7.8614 20.4421 -8.95064
333 1 15.7255 6.28837 18.8707 -8.94971
334 1 17.2974 7.8617 20.4417 -8.94939
335 1 18.8697 6.28925 18.8696 -8.9495
336 1 20.4417 7.86198 20.4416 -8.94956
46 1 9.43427 9.43455 22.0134 -8.94924
5 1 6.28958 6.63455e-16 22.0137 -8.94956
9 1 12.5795 6.5729e-16 22.0137 -8.94956
44 1 3.14445 9.4345 22.0136 -8.94955
39 1 15.7252 6.28873 22.0132 -8.94996
17 1 3.1444 3.14442 22.0135 -8.94952
21 1 9.43447 3.14432 22.0136 -8.94953
25 1 15.7245 3.14432 22.0136 -8.94966
27 1 18.8695 3.14443 22.0137 -8.94924
29 1 2.43785e-05 6.28957 22.0138 -8.94955
33 1 6.28918 6.28928 22.013 -8.95059
1 1 -0.000133295 1.23378e-15 22.0138 -8.94931
13 1 18.8692 8.04093e-16 22.0138 -8.94943
23 1 12.5795 3.14432 22.0136 -8.94949
49 1 18.8697 9.4344 22.0136 -8.94952
183 1 1.5707 4.71612 11.0073 -8.94928
344 1 1.57211 11.007 1.57194 -8.94958
345 1 4.71662 11.007 1.57156 -8.94963
346 1 7.86192 11.007 1.57216 -8.94817
347 1 11.007 11.007 1.5714 -8.94724
348 1 14.154 11.007 1.56914 -8.94954
349 1 17.298 11.007 1.57132 -8.94948
350 1 20.4419 11.007 1.572 -8.94954
351 1 22.0139 12.5794 -0.000156047 -8.94958
352 1 1.57215 14.1519 1.57199 -8.94944
688 3 10.1745 11.007 9.4685 2.27847
354 1 4.71677 14.1516 1.57162 -8.94974
355 1 6.2893 12.5793 -0.000312981 -8.94952
356 1 7.86166 14.1522 1.57014 -8.95234
511 1 18.8693 18.8696 9.43448 -8.94958
358 1 11.0067 14.1528 1.56984 -8.95063
510 1 15.725 18.87 9.43439 -8.94956
360 1 14.1534 14.1533 1.56929 -8.95132
361 1 15.7253 12.5798 -0.000792349 -8.94938
362 1 17.2979 14.1525 1.57135 -8.94925
538 1 17.2971 20.4418 11.0069 -8.94955
364 1 20.4419 14.152 1.57202 -8.94948
509 1 12.58 18.8703 9.43412 -8.94872
366 1 1.57204 17.2969 1.57194 -8.94983
367 1 3.14454 15.7243 -0.000242692 -8.94974
368 1 4.71615 17.2977 1.57077 -8.94953
508 1 9.4344 18.8706 9.43426 -8.9463
370 1 7.86173 17.2976 1.57108 -8.94918
371 1 9.43421 15.725 -0.000838149 -8.94965
372 1 11.007 17.2977 1.57119 -8.94936
507 1 6.28707 18.8734 9.4342 -8.94954
374 1 14.1524 17.2978 1.57124 -8.94971
506 1 3.14322 18.8705 9.43449 -8.94947
376 1 17.2978 17.2978 1.57144 -8.94847
505 1 -0.000524864 18.8696 9.43451 -8.94953
378 1 20.4418 17.297 1.57209 -8.94958
504 1 18.8698 15.7251 9.43442 -8.94949
380 1 1.57197 20.4418 1.57199 -8.94919
503 1 15.7262 15.7262 9.43419 -8.94647
382 1 4.71695 20.4418 1.5719 -8.94963
383 1 6.28946 18.8695 -0.000361751 -8.9495
384 1 7.86202 20.4419 1.57192 -8.94951
502 1 12.5791 15.7257 9.43321 -8.9472
386 1 11.007 20.4419 1.57193 -8.94953
534 1 4.71604 20.4427 11.0073 -8.94936
388 1 14.152 20.4419 1.57203 -8.94951
501 1 9.42919 15.7224 9.43399 -9.00699
390 1 17.2971 20.4419 1.57205 -8.94948
500 1 6.27832 15.7359 9.43362 -8.94359
392 1 20.4415 20.4417 1.57226 -8.94955
393 1 1.57161 11.007 4.71629 -8.94946
394 1 4.71554 11.007 4.71512 -8.94601
395 1 7.86457 11.007 4.71944 -8.94599
396 1 11.0108 11.007 4.71878 -8.99365
397 1 14.1611 11.007 4.70822 -8.94238
398 1 17.3005 11.007 4.71518 -8.9492
399 1 20.4423 11.007 4.71662 -8.94988
400 1 -5.73923e-06 12.5795 3.14428 -8.94954
401 1 1.57155 14.1518 4.71653 -8.94982
402 1 3.14401 12.5793 3.14382 -8.94897
403 1 4.71486 14.152 4.71503 -8.95175
404 1 6.28923 12.5786 3.14371 -8.94939
405 1 7.85661 14.1577 4.70659 -8.95538
406 1 9.4349 12.5795 3.14308 -8.95056
407 1 11.0077 14.1563 4.70848 -8.95214
408 1 12.5821 12.5805 3.13738 -8.95812
409 1 14.1629 14.1619 4.7061 -8.93423
410 1 15.7276 12.5806 3.14162 -8.94784
411 1 17.3003 14.1535 4.71545 -8.95064
412 1 18.8704 12.5797 3.14393 -8.94934
413 1 20.4422 14.1521 4.71677 -8.95006
414 1 22.0138 15.7244 3.14439 -8.94982
415 1 1.57074 17.2977 4.71611 -8.94948
416 1 3.14371 15.7246 3.14364 -8.95037
417 1 4.71286 17.3009 4.71281 -8.94413
418 1 6.28697 15.7268 3.14017 -8.95031
419 1 7.86088 17.3002 4.71429 -8.94877
420 1 9.43407 15.7266 3.14147 -8.94804
421 1 11.0076 17.2998 4.71465 -8.94769
422 1 12.5806 15.7266 3.14139 -8.94949
423 1 14.1547 17.301 4.71445 -8.94937
424 1 15.7279 15.7278 3.14129 -8.94555
425 1 17.2978 17.2978 4.71674 -8.95003
426 1 18.8703 15.725 3.14404 -8.94968
427 1 20.4414 17.2971 4.71695 -8.94982
428 1 22.0135 18.8695 3.14441 -8.9495
429 1 1.57182 20.4419 4.71685 -8.94951
430 1 3.14347 18.8703 3.14343 -8.94814
431 1 4.7163 20.4426 4.71621 -8.95001
432 1 6.28905 18.8703 3.14353 -8.94958
433 1 7.86198 20.4425 4.71638 -8.9496
434 1 9.43453 18.8703 3.14368 -8.94941
435 1 11.0073 20.4424 4.71645 -8.94955
436 1 12.5798 18.8703 3.14383 -8.94915
437 1 14.1523 20.4424 4.71681 -8.95053
438 1 15.7253 18.8706 3.14381 -8.94935
439 1 17.2969 20.4418 4.71717 -8.94968
440 1 18.8694 18.8695 3.14457 -8.94972
441 1 20.4414 20.4417 4.71714 -8.94955
442 1 1.57125 11.007 7.86139 -8.94731
443 1 4.71836 11.007 7.86186 -8.94005
444 1 7.88389 11.007 7.87098 -8.9538
445 1 11.0759 11.007 7.67155 -8.22164
446 1 14.1599 11.007 7.85561 -8.96829
447 1 17.2991 11.007 7.86224 -8.95114
448 1 20.4418 11.007 7.86199 -8.94949
449 1 22.0136 12.5794 6.28918 -8.94977
450 1 1.5691 14.1527 7.86123 -8.95166
451 1 3.14299 12.5787 6.28855 -8.94978
452 1 4.70481 14.1575 7.85736 -8.95591
453 1 6.28626 12.5769 6.28745 -8.95312
454 1 7.81885 14.1915 7.82439 -8.84439
455 1 9.42297 12.6005 6.28388 -8.91562
456 1 11.0226 14.1644 7.83571 -8.89667
457 1 12.6137 12.6065 6.25642 -8.87784
458 1 14.1574 14.1549 7.86125 -8.9505
459 1 15.7331 12.5815 6.28621 -8.95641
460 1 17.2983 14.1524 7.86255 -8.9507
461 1 18.8712 12.5796 6.28925 -8.9513
462 1 20.4413 14.1522 7.86198 -8.95009
463 1 -0.00115166 15.7248 6.28911 -8.95017
464 1 1.57068 17.2978 7.86167 -8.9494
465 1 3.13992 15.7268 6.28697 -8.95017
466 1 4.71311 17.3009 7.86033 -8.94772
467 1 6.27592 15.7377 6.27641 -8.92809
468 1 7.85898 17.3055 7.86009 -8.95973
469 1 9.43358 15.7334 6.28353 -8.94893
470 1 11.0065 17.2995 7.86128 -8.95291
471 1 12.586 15.7345 6.28221 -8.95045
472 1 14.1528 17.2983 7.86208 -8.94898
473 1 15.7271 15.7263 6.28877 -8.95059
474 1 17.2975 17.2976 7.86199 -8.94902
475 1 18.8698 15.7248 6.28957 -8.95002
476 1 20.4413 17.2972 7.86196 -8.94955
477 1 22.0134 18.8696 6.28943 -8.9495
478 1 1.57175 20.4419 7.86195 -8.94953
479 1 3.14328 18.8705 6.28878 -8.94922
480 1 4.71602 20.4428 7.86158 -8.94939
481 1 6.28785 18.873 6.2878 -8.95167
482 1 7.8619 20.4433 7.8618 -8.95148
483 1 9.43472 18.8721 6.28827 -8.95033
484 1 11.0071 20.4423 7.86199 -8.94965
485 1 12.5799 18.8714 6.28907 -8.9522
486 1 14.1523 20.4421 7.862 -8.94941
487 1 15.7249 18.87 6.28963 -8.94959
488 1 17.297 20.4418 7.86203 -8.94954
489 1 18.8693 18.8695 6.28959 -8.94946
490 1 20.4414 20.4417 7.86204 -8.94958
491 1 22.0125 12.5795 9.43427 -8.94978
492 1 3.13952 12.5803 9.43309 -8.95052
493 1 6.27532 12.594 9.42797 -9.00249
494 1 9.35556 12.8307 9.42818 -8.12847
495 1 12.5663 12.5827 9.42356 -8.94052
496 1 15.7228 12.5788 9.43503 -8.94442
497 1 18.8694 12.5796 9.43453 -8.94823
498 1 22.0127 15.725 9.43447 -8.94992
499 1 3.14008 15.7269 9.43441 -8.94936
512 1 1.56937 11.007 11.0072 -8.95118
514 1 7.81809 11.007 10.9711 -9.12975
519 1 1.5694 14.1524 11.0072 -8.9515
532 1 20.4414 17.2972 11.007 -8.94956
527 1 4.7132 17.3006 11.0082 -8.94749
531 1 17.2976 17.2977 11.0068 -8.94908
530 1 14.1529 17.2984 11.0062 -8.94873
373 1 12.5795 15.725 -0.000786175 -8.94976
377 1 18.8696 15.7246 -0.000230077 -8.94952
379 1 22.0139 18.8692 -0.000149842 -8.9496
687 2 9.4538 11.007 11.7424 0.657299
513 1 4.7066 11.007 11.0054 -8.96109
686 1 20.4416 20.4416 20.4415 -8.94933
515 1 11.1874 11.007 11.1921 -8.38071
516 1 14.151 11.007 11.0156 -8.99329
517 1 17.298 11.007 11.0066 -8.94803
518 1 20.4414 11.007 11.0069 -8.94953
685 1 18.8696 18.8696 18.8694 -8.94912
520 1 4.70593 14.1558 11.0095 -8.95841
521 1 7.81889 14.1908 11.0396 -8.90128
522 1 11.0272 14.1634 11.0277 -8.95435
523 1 14.1571 14.1543 11.0051 -8.95337
524 1 17.2986 14.1527 11.0063 -8.94992
525 1 20.4414 14.1522 11.0069 -8.94996
684 1 17.2969 20.4417 20.4416 -8.94959
683 1 15.7247 18.8697 18.8696 -8.94956
528 1 7.85842 17.3063 11.0076 -8.95795
529 1 11.0072 17.3004 11.0061 -8.9506
391 1 18.8695 18.8695 22.0137 -8.94924
682 1 14.1519 20.4417 20.4416 -8.94957
681 1 12.5795 18.8697 18.8696 -8.94954
533 1 1.57176 20.4419 11.0071 -8.94952
680 1 11.007 20.4417 20.4416 -8.94957
535 1 7.86175 20.4435 11.0069 -8.95147
536 1 11.0073 20.4426 11.0066 -8.9496
537 1 14.1524 20.4421 11.0068 -8.9494
679 1 9.43442 18.8696 18.8696 -8.94952
539 1 20.4414 20.4417 11.007 -8.94958
540 1 1.57118 11.007 14.1528 -8.9494
541 1 4.71446 11.007 14.1533 -8.9474
542 1 7.85996 11.007 14.1531 -8.9812
543 1 11.0218 11.007 14.1664 -9.03469
544 1 14.1651 11.007 14.1648 -8.94311
545 1 17.3017 11.007 14.1544 -8.94944
546 1 20.4425 11.007 14.1525 -8.95004
547 1 22.0132 12.5796 12.5798 -8.94995
548 1 1.57109 14.1522 14.1527 -8.94958
549 1 3.14126 12.5797 12.5808 -8.94805
550 1 4.71384 14.1527 14.1541 -8.95111
551 1 6.28383 12.5794 12.5823 -8.99861
552 1 7.85402 14.1589 14.1625 -8.9873
553 1 9.42917 12.6391 12.599 -9.18542
554 1 11.0111 14.1603 14.1638 -8.98031
555 1 12.6254 12.6224 12.6282 -8.88275
556 1 14.1682 14.1669 14.1675 -8.92549
557 1 15.7348 12.5817 12.5832 -8.96053
558 1 17.3015 14.154 14.1539 -8.95181
559 1 18.8714 12.5796 12.5796 -8.95194
560 1 20.4423 14.1523 14.1523 -8.95034
561 1 22.0129 15.7248 12.5797 -8.95017
562 1 1.57085 17.2977 14.1528 -8.94973
563 1 3.14034 15.7266 12.5814 -8.95092
564 1 4.71286 17.3009 14.156 -8.94473
565 1 6.27652 15.7377 12.5913 -8.92994
566 1 7.86024 17.3013 14.155 -8.94794
567 1 9.43439 15.7412 12.5839 -8.96133
568 1 11.0082 17.3018 14.1551 -8.94688
569 1 12.5864 15.7374 12.5865 -8.95496
570 1 14.1553 17.3022 14.1548 -8.95035
571 1 15.7273 15.7265 12.5796 -8.95068
572 1 17.298 17.2979 14.1522 -8.95022
573 1 18.87 15.7249 12.5793 -8.94972
574 1 20.4415 17.2971 14.152 -8.9498
575 1 -0.000495072 18.8696 12.5796 -8.94947
576 1 1.57183 20.4419 14.1522 -8.94953
577 1 3.14333 18.8705 12.5801 -8.94921
578 1 4.71624 20.4426 14.1528 -8.94999
579 1 6.2878 18.8731 12.581 -8.95148
580 1 7.8618 20.4428 14.1527 -8.94972
581 1 9.43473 18.8735 12.5804 -8.95273
582 1 11.0074 20.4429 14.1527 -8.94983
583 1 12.58 18.8721 12.5797 -8.95273
584 1 14.1525 20.4426 14.1522 -8.95072
585 1 15.7249 18.8701 12.5792 -8.9495
586 1 17.297 20.4418 14.1518 -8.94967
587 1 18.8693 18.8695 12.5794 -8.94944
588 1 20.4414 20.4417 14.1519 -8.94954
589 1 1.57198 11.007 17.2973 -8.94955
590 1 4.71628 11.007 17.2978 -8.949
591 1 7.86197 11.007 17.2973 -8.95005
592 1 11.0071 11.007 17.3009 -8.95197
593 1 14.1551 11.007 17.3021 -8.94878
594 1 17.2986 11.007 17.2983 -8.94932
595 1 20.442 11.007 17.2972 -8.94954
596 1 22.0139 12.5795 15.7249 -8.94962
597 1 1.57203 14.1519 17.2972 -8.94952
598 1 3.14361 12.5794 15.7254 -8.94947
599 1 4.71641 14.1519 17.2979 -8.94932
600 1 6.28792 12.5791 15.7263 -8.94842
601 1 7.86178 14.1519 17.2987 -8.95326
602 1 9.4349 12.5782 15.7229 -8.99584
603 1 11.0063 14.1529 17.3 -8.95181
604 1 12.5854 12.583 15.7377 -8.95734
605 1 14.1547 14.1545 17.3019 -8.95066
606 1 15.7293 12.5811 15.7289 -8.94736
607 1 17.2985 14.1528 17.2983 -8.94912
608 1 18.871 12.5798 15.7254 -8.94936
609 1 20.442 14.1521 17.2972 -8.94949
610 1 -0.00012417 15.7246 15.7248 -8.9498
611 1 1.57197 17.297 17.2972 -8.94978
612 1 3.1434 15.7248 15.7255 -8.95013
613 1 4.71593 17.2979 17.2985 -8.94933
614 1 6.28629 15.7274 15.7292 -8.94969
615 1 7.86163 17.2977 17.2981 -8.94917
616 1 9.43365 15.7269 15.7272 -8.94766
617 1 11.0069 17.2979 17.2982 -8.94947
618 1 12.5816 15.7285 15.7292 -8.94837
619 1 14.1528 17.2985 17.2985 -8.94939
620 1 15.7296 15.7294 15.7292 -8.94332
621 1 17.2983 17.2983 17.2981 -8.9479
622 1 18.8708 15.7253 15.7252 -8.94987
623 1 20.4419 17.2971 17.2971 -8.94956
624 1 22.0135 18.8695 15.7246 -8.94957
625 1 1.57195 20.4418 17.2971 -8.94923
626 1 3.14342 18.8703 15.7256 -8.94829
627 1 4.71681 20.4419 17.2973 -8.94959
628 1 6.28876 18.8707 15.7257 -8.94948
629 1 7.86194 20.4419 17.2973 -8.94943
630 1 9.43439 18.8707 15.7255 -8.94904
631 1 11.007 20.442 17.2973 -8.94946
632 1 12.5801 18.871 15.7256 -8.94905
633 1 14.1522 20.4421 17.2973 -8.94947
634 1 15.7256 18.871 15.7254 -8.94954
635 1 17.2972 20.442 17.2971 -8.94951
636 1 18.8695 18.8696 15.7245 -8.94983
637 1 20.4415 20.4417 17.2968 -8.94962
638 1 1.57221 11.007 20.4416 -8.9496
639 1 4.71678 11.007 20.4417 -8.94965
640 1 7.86176 11.007 20.4416 -8.94929
641 1 11.0066 11.007 20.4422 -8.94952
642 1 14.1527 11.007 20.4422 -8.95022
643 1 17.2975 11.007 20.4417 -8.94947
644 1 20.4418 11.007 20.4416 -8.94957
645 1 1.01476e-05 12.5794 18.8694 -8.94956
646 1 1.57223 14.1519 20.4416 -8.94956
647 1 3.14436 12.5794 18.8696 -8.94955
648 1 4.71688 14.1518 20.4417 -8.94962
649 1 6.28915 12.5793 18.8698 -8.94981
650 1 7.8618 14.1519 20.4416 -8.95022
651 1 9.4341 12.5795 18.8698 -8.94779
652 1 11.0066 14.1523 20.4418 -8.95017
653 1 12.58 12.5798 18.8722 -8.95221
654 1 14.1525 14.1525 20.4421 -8.95064
655 1 15.7257 12.5799 18.8708 -8.94928
656 1 17.2974 14.1522 20.4417 -8.94939
657 1 18.8698 12.5795 18.8696 -8.94948
658 1 20.4417 14.1519 20.4416 -8.94956
659 1 22.0139 15.7244 18.8693 -8.94955
660 1 1.57227 17.2968 20.4415 -8.94967
661 1 3.14444 15.7244 18.8695 -8.94962
662 1 4.71683 17.297 20.4416 -8.95006
663 1 6.28917 15.7246 18.8701 -8.95084
664 1 7.86183 17.2972 20.4416 -8.94952
665 1 9.43408 15.7251 18.8701 -8.94945
666 1 11.0069 17.2973 20.4416 -8.94955
667 1 12.5795 15.7251 18.8705 -8.95005
668 1 14.152 17.2973 20.4417 -8.94971
669 1 15.7255 15.7255 18.8707 -8.94971
670 1 17.2973 17.2973 20.4417 -8.94947
671 1 18.8697 15.7247 18.8696 -8.9495
672 1 20.4417 17.2968 20.4416 -8.94957
673 1 -3.03517e-05 18.8693 18.8693 -8.94959
674 1 1.5722 20.4417 20.4415 -8.94943
675 1 3.14433 18.8695 18.8696 -8.94945
676 1 4.71711 20.4417 20.4415 -8.94959
677 1 6.28942 18.8695 18.8696 -8.94952
678 1 7.86202 20.4417 20.4415 -8.94956
353 1 3.14445 12.5794 22.0136 -8.94955
357 1 9.43427 12.5794 22.0134 -8.94924
359 1 12.5796 12.5796 22.0128 -8.95147
365 1 2.43785e-05 15.7243 22.0138 -8.94955
369 1 6.28918 15.7246 22.013 -8.95059
389 1 15.7245 18.8696 22.0136 -8.94966
375 1 15.7252 15.7252 22.0132 -8.94996
385 1 9.43447 18.8696 22.0136 -8.94953
381 1 3.1444 18.8695 22.0135 -8.94952
363 1 18.8697 12.5795 22.0136 -8.94952
387 1 12.5795 18.8696 22.0136 -8.94949
526 1 1.5707 17.2978 11.0073 -8.94928
