ITEM: TIMESTEP
120
ITEM: NUMBER OF ATOMS
688
ITEM: BOX BOUNDS pp pp pp
0.0000000000000000e+00 2.2013900999999997e+01
0.0000000000000000e+00 2.2013900999999997e+01
0.0000000000000000e+00 2.2013900999999997e+01
ITEM: ATOMS id type x y z c_pot
190 1 1.56891 7.86129 11.0072 -8.95158
2 1 1.57169 1.57201 1.57171 -8.9491
175 1 18.869 9.43438 9.4346 -8.94818
4 1 4.71665 1.57189 1.57155 -8.94958
174 1 15.722 9.4353 9.43536 -8.94513
6 1 7.8619 1.57188 1.57162 -8.94946
7 1 9.43449 9.66036e-16 -0.000303742 -8.94952
8 1 11.0071 1.57187 1.57169 -8.94949
173 1 12.5666 9.42921 9.42245 -8.9404
10 1 14.1522 1.57185 1.57182 -8.94948
172 1 9.35641 9.17906 9.42824 -8.12557
12 1 17.2973 1.57182 1.57188 -8.94944
189 1 20.4412 4.7164 11.007 -8.94956
14 1 20.4415 1.5721 1.57211 -8.94948
171 1 6.27555 9.41907 9.42785 -9.00228
16 1 1.57183 4.71682 1.57165 -8.94985
170 1 3.13926 9.43339 9.43288 -8.95033
18 1 4.71579 4.71594 1.57031 -8.94956
19 1 6.28925 3.14419 -0.000572107 -8.94948
20 1 7.86151 4.71592 1.57066 -8.94918
169 1 22.0122 9.43436 9.4342 -8.94967
22 1 11.0071 4.71582 1.57082 -8.94933
188 1 17.2978 4.71601 11.0068 -8.94906
24 1 14.1528 4.71566 1.57087 -8.94971
168 1 18.8697 6.28869 9.43438 -8.94952
26 1 17.2982 4.71569 1.5712 -8.94849
167 1 15.7264 6.28753 9.43412 -8.94639
28 1 20.4419 4.71669 1.57191 -8.94957
166 1 12.5794 6.28732 9.43307 -8.94723
30 1 1.57209 7.86199 1.57179 -8.94941
31 1 3.1444 6.28956 -0.00040283 -8.94977
32 1 4.71663 7.86223 1.57138 -8.94978
165 1 9.42886 6.2906 9.43405 -9.00766
34 1 7.86157 7.8616 1.56994 -8.95237
35 1 9.43413 6.28874 -0.00102583 -8.94971
36 1 11.0069 7.86093 1.56962 -8.95074
164 1 6.27727 6.27693 9.43353 -8.94351
38 1 14.1538 7.86037 1.56901 -8.95132
163 1 3.13918 6.28636 9.43428 -8.94933
40 1 17.2985 7.86114 1.57108 -8.9492
162 1 22.0123 6.28868 9.43441 -8.94997
42 1 20.4421 7.86175 1.57184 -8.94944
43 1 22.014 9.43443 -0.000232884 -8.94954
161 1 18.8693 3.14414 9.43443 -8.94954
45 1 6.2893 9.43468 -0.000378712 -8.94951
160 1 15.7252 3.1437 9.4343 -8.94949
159 1 12.5801 3.14337 9.43403 -8.94883
48 1 15.7258 9.43398 -0.000850807 -8.94939
184 1 4.71225 4.71251 11.0085 -8.9474
50 1 -0.000469861 1.71692e-15 3.14442 -8.94949
51 1 1.57139 1.57184 4.71651 -8.94943
52 1 3.14384 2.02185e-16 3.1438 -8.9495
53 1 4.71584 1.57098 4.71575 -8.95003
54 1 6.28923 9.14102e-16 3.14382 -8.94953
55 1 7.86177 1.5711 4.71598 -8.94962
56 1 9.4346 1.94481e-16 3.1439 -8.94952
57 1 11.0074 1.57127 4.71615 -8.94957
58 1 12.5798 4.30251e-16 3.14407 -8.94949
59 1 14.1525 1.5713 4.71659 -8.95058
60 1 15.7249 1.08163e-15 3.14429 -8.94999
61 1 17.2971 1.57194 4.71703 -8.94968
62 1 18.8693 1.56188e-15 3.14461 -8.94966
63 1 20.4413 1.5721 4.71698 -8.94951
64 1 22.0132 3.1442 3.14413 -8.94947
65 1 1.57022 4.71584 4.71569 -8.94949
66 1 3.14297 3.14326 3.14292 -8.94807
67 1 4.71205 4.71233 4.71208 -8.94399
68 1 6.28865 3.14311 3.14299 -8.94952
69 1 7.86035 4.71296 4.71361 -8.94862
70 1 9.43445 3.14321 3.14325 -8.94938
71 1 11.0077 4.71355 4.71404 -8.94761
72 1 12.58 3.14322 3.14345 -8.94912
73 1 14.1552 4.71244 4.71386 -8.94919
74 1 15.7257 3.14292 3.14349 -8.94931
75 1 17.2982 4.71577 4.71644 -8.95002
76 1 18.8696 3.14407 3.14436 -8.94971
77 1 20.4413 4.71655 4.71674 -8.94988
78 1 22.0138 6.28931 3.14414 -8.94984
79 1 1.5713 7.86199 4.71627 -8.94987
80 1 3.14333 6.28908 3.1432 -8.95044
81 1 4.71444 7.86163 4.71465 -8.95179
82 1 6.28652 6.28668 3.13959 -8.95037
83 1 7.85634 7.8556 4.70623 -8.95564
84 1 9.43396 6.28676 3.14092 -8.94805
85 1 11.0079 7.85707 4.70792 -8.95238
86 1 12.581 6.28681 3.14076 -8.94957
87 1 14.1632 7.85191 4.70571 -8.93501
88 1 15.7284 6.28574 3.14087 -8.94574
89 1 17.3007 7.86019 4.71513 -8.95058
90 1 18.8707 6.28858 3.14379 -8.94968
91 1 20.4422 7.86167 4.71657 -8.95008
92 1 6.10033e-05 9.43439 3.14405 -8.94953
93 1 3.1439 9.43452 3.14361 -8.94895
94 1 6.2892 9.43526 3.14368 -8.94942
95 1 9.43494 9.43414 3.1432 -8.95022
96 1 12.5825 9.43328 3.13718 -8.95793
97 1 15.7282 9.43317 3.14116 -8.94783
98 1 18.8709 9.43409 3.14364 -8.94932
99 1 22.0133 9.92814e-16 6.28938 -8.94952
100 1 1.57128 1.57179 7.86179 -8.94948
101 1 3.14357 5.57028e-16 6.28892 -8.94937
102 1 4.71546 1.57078 7.86134 -8.94941
103 1 6.28888 2.50426e-16 6.28877 -8.95075
104 1 7.8616 1.57039 7.86161 -8.95155
105 1 9.43471 9.80001e-16 6.2889 -8.9503
106 1 11.0071 1.5715 7.86184 -8.94971
107 1 12.5798 1.75724e-15 6.28935 -8.95037
108 1 14.1525 1.57173 7.86188 -8.94942
109 1 15.7248 1.70055e-15 6.28951 -8.94953
110 1 17.2971 1.57198 7.86196 -8.9495
111 1 18.8692 1.88439e-15 6.28953 -8.94951
112 1 20.4413 1.57207 7.86196 -8.94953
113 1 22.013 3.14407 6.28921 -8.94946
114 1 1.57001 4.71564 7.86143 -8.94939
115 1 3.1426 3.14287 6.28834 -8.94916
116 1 4.71212 4.71215 7.85993 -8.94764
117 1 6.28722 3.14033 6.28732 -8.95172
118 1 7.85827 4.70759 7.85975 -8.95981
119 1 9.4345 3.14138 6.28787 -8.95039
120 1 11.0063 4.71387 7.86089 -8.95316
121 1 12.5801 3.14219 6.28874 -8.95222
122 1 14.153 4.71523 7.86173 -8.94891
123 1 15.7251 3.14365 6.28941 -8.94958
124 1 17.2976 4.71614 7.86187 -8.94898
125 1 18.8693 3.1442 6.28947 -8.94944
126 1 20.4412 4.71644 7.86186 -8.94955
127 1 -0.00151898 6.28884 6.2889 -8.95024
128 1 1.56858 7.86099 7.86103 -8.95172
129 1 3.13912 6.28653 6.28647 -8.95021
130 1 4.70406 7.85565 7.85704 -8.95607
131 1 6.27489 6.27519 6.27566 -8.92782
132 1 7.81801 7.82105 7.82376 -8.84353
133 1 9.43314 6.27952 6.28276 -8.9485
134 1 11.0229 7.84779 7.83467 -8.89496
135 1 12.5865 6.27887 6.28127 -8.94966
136 1 14.1578 7.85851 7.86046 -8.95048
137 1 15.7276 6.28717 6.28825 -8.95054
138 1 17.2983 7.86158 7.86252 -8.951
139 1 18.8698 6.28895 6.28944 -8.95017
140 1 20.441 7.86168 7.86193 -8.95014
141 1 22.0135 9.4345 6.28903 -8.94975
142 1 3.14282 9.43506 6.28838 -8.94982
143 1 6.28619 9.43665 6.2874 -8.95297
144 1 9.42341 9.41308 6.28445 -8.91723
145 1 12.6127 9.40827 6.25667 -8.88182
146 1 15.7331 9.43244 6.28587 -8.95606
147 1 18.8712 9.43424 6.28909 -8.95127
148 1 -0.000583831 1.51684e-15 9.4345 -8.94953
149 1 3.14348 1.57072e-15 9.43447 -8.94946
150 1 6.28842 6.97938e-16 9.43432 -8.95044
151 1 9.43464 9.5371e-16 9.43429 -8.9485
152 1 12.58 1.81581e-15 9.43426 -8.94946
153 1 15.7249 1.75776e-15 9.43439 -8.94961
154 1 18.8692 4.09513e-16 9.43447 -8.94955
155 1 -0.000891455 3.14403 9.43448 -8.94949
156 1 3.14251 3.14288 9.43444 -8.94944
157 1 6.28636 3.13987 9.43413 -8.9496
158 1 9.43411 3.14304 9.4342 -8.94635
177 1 4.71549 1.57085 11.0074 -8.94937
181 1 17.2972 1.57195 11.0069 -8.94952
187 1 14.1533 4.71507 11.0063 -8.9486
3 1 3.14442 -1.76108e-16 -0.000342163 -8.94957
11 1 15.7246 1.29614e-16 -0.000196118 -8.94955
15 1 22.0138 3.14452 -0.000255326 -8.94955
41 1 18.87 6.28906 -0.00029118 -8.94944
37 1 12.5796 6.28864 -0.00093458 -8.94984
176 1 1.5713 1.5718 11.0072 -8.94946
343 1 18.8703 9.43422 18.8699 -8.94941
178 1 7.86146 1.57017 11.007 -8.95156
179 1 11.0072 1.57121 11.0066 -8.94963
180 1 14.1525 1.57167 11.0067 -8.94941
342 1 15.7263 9.4338 18.8714 -8.94925
182 1 20.4413 1.57206 11.007 -8.94953
341 1 12.5802 9.43395 18.8727 -8.95238
340 1 9.43418 9.43441 18.8696 -8.94754
185 1 7.85776 4.70685 11.0078 -8.95806
186 1 11.0072 4.713 11.0064 -8.95072
47 1 12.5798 9.43427 22.0128 -8.95152
339 1 6.2892 9.43464 18.8696 -8.94985
338 1 3.14435 9.43448 18.8696 -8.94954
337 1 0.000174889 9.43441 18.8695 -8.94952
191 1 4.70513 7.85743 11.0095 -8.95851
192 1 7.81813 7.82186 11.0401 -8.90027
193 1 11.0286 7.84918 11.0286 -8.9532
194 1 14.1575 7.85904 11.0057 -8.95349
195 1 17.2987 7.86113 11.0065 -8.95011
196 1 20.4412 7.8616 11.0069 -8.95002
197 1 22.0134 1.85076e-15 12.5796 -8.94951
198 1 1.57143 1.57186 14.1525 -8.94946
199 1 3.14359 1.72565e-15 12.58 -8.94938
200 1 4.71579 1.57098 14.1532 -8.95001
201 1 6.28879 6.59905e-16 12.5801 -8.95066
202 1 7.8616 1.57085 14.1531 -8.9497
203 1 9.43467 1.51972e-15 12.5799 -8.95089
204 1 11.0075 1.57078 14.153 -8.94986
205 1 12.5798 1.67592e-15 12.5795 -8.95055
206 1 14.1527 1.57096 14.1524 -8.95084
207 1 15.7248 1.7365e-15 12.5793 -8.94953
208 1 17.2972 1.57187 14.1519 -8.94966
209 1 18.8693 1.79361e-15 12.5794 -8.94952
210 1 20.4414 1.57208 14.152 -8.9495
211 1 -0.000800859 3.14407 12.5798 -8.94943
212 1 1.57039 4.71588 14.1531 -8.94976
213 1 3.14269 3.14298 12.5805 -8.94916
214 1 4.71212 4.71235 14.1566 -8.9446
215 1 6.28721 3.14024 12.5814 -8.95154
216 1 7.85987 4.71209 14.1554 -8.94774
217 1 9.43455 3.14 12.5807 -8.95268
218 1 11.0083 4.7115 14.1557 -8.94678
219 1 12.5802 3.14133 12.5799 -8.95288
220 1 14.156 4.71088 14.1556 -8.95024
221 1 15.7252 3.14347 12.5793 -8.94946
222 1 17.2985 4.71554 14.1525 -8.95022
223 1 18.8694 3.14412 12.5795 -8.94942
224 1 20.4415 4.71647 14.1522 -8.94984
225 1 22.0126 6.28886 12.5799 -8.95024
226 1 1.57087 7.8616 14.1529 -8.94962
227 1 3.1396 6.28685 12.5818 -8.95097
228 1 4.71347 7.8609 14.1543 -8.95092
229 1 6.27559 6.27524 12.5919 -8.92968
230 1 7.85436 7.85513 14.1619 -8.98775
231 1 9.43435 6.27218 12.5843 -8.96078
232 1 11.0114 7.85305 14.1643 -8.98028
233 1 12.5872 6.27537 12.5876 -8.95468
234 1 14.1693 7.84612 14.1688 -8.92514
235 1 15.7279 6.28688 12.5801 -8.95061
236 1 17.3022 7.85959 14.1544 -8.952
237 1 18.8702 6.28876 12.5795 -8.94981
238 1 20.4425 7.8615 14.1525 -8.9504
239 1 22.013 9.43431 12.5799 -8.94996
240 1 3.14093 9.43411 12.5808 -8.94811
241 1 6.28348 9.43416 12.582 -8.99768
242 1 9.4307 9.37601 12.5976 -9.18755
243 1 12.6261 9.39062 12.6298 -8.88219
244 1 15.735 9.43224 12.5838 -8.96103
245 1 18.8715 9.43426 12.5798 -8.95202
246 1 -0.000435937 1.89903e-15 15.7246 -8.94953
247 1 1.57168 1.57199 17.2974 -8.94915
248 1 3.1438 1.46832e-15 15.7252 -8.94953
249 1 4.71652 1.57183 17.2976 -8.94955
250 1 6.28906 1.41379e-15 15.7253 -8.94956
251 1 7.86179 1.57183 17.2976 -8.94937
252 1 9.43451 1.67913e-15 15.7253 -8.94945
253 1 11.0071 1.57177 17.2976 -8.94941
254 1 12.5799 1.59103e-15 15.7252 -8.9496
255 1 14.1524 1.57161 17.2976 -8.94945
256 1 15.725 5.6352e-16 15.7249 -8.95015
257 1 17.2975 1.57165 17.2974 -8.94947
258 1 18.8693 2.04228e-15 15.7244 -8.94968
259 1 20.4416 1.57206 17.297 -8.94957
260 1 22.0133 3.14417 15.7249 -8.94956
261 1 1.5718 4.71672 17.2975 -8.9498
262 1 3.14294 3.14323 15.7261 -8.94822
263 1 4.71565 4.71579 17.2989 -8.94948
264 1 6.2884 3.14288 15.7262 -8.94944
265 1 7.86142 4.71591 17.2984 -8.94914
266 1 9.43428 3.14286 15.7259 -8.949
267 1 11.0069 4.7156 17.2986 -8.94946
268 1 12.5804 3.1424 15.7261 -8.94903
269 1 14.1533 4.71486 17.2991 -8.94943
270 1 15.7261 3.14229 15.7259 -8.94952
271 1 17.2989 4.71505 17.2986 -8.9478
272 1 18.8697 3.14396 15.7247 -8.94983
273 1 20.4421 4.7165 17.2974 -8.94955
274 1 -0.00012434 6.2891 15.725 -8.94983
275 1 1.57203 7.86188 17.2975 -8.94951
276 1 3.14309 6.28883 15.7259 -8.95013
277 1 4.71633 7.86193 17.298 -8.94933
278 1 6.28609 6.2863 15.7294 -8.95009
279 1 7.86189 7.86202 17.2984 -8.95328
280 1 9.43357 6.28658 15.7275 -8.94764
281 1 11.0064 7.86081 17.3002 -8.95191
282 1 12.5821 6.28476 15.7301 -8.94854
283 1 14.1554 7.85887 17.3028 -8.95064
284 1 15.7305 6.28373 15.7301 -8.94312
285 1 17.2993 7.8607 17.2989 -8.94903
286 1 18.8713 6.28819 15.7256 -8.94993
287 1 20.4424 7.86162 17.2975 -8.94945
288 1 22.014 9.43431 15.7251 -8.94962
289 1 3.14353 9.43442 15.7255 -8.94943
290 1 6.28797 9.43472 15.726 -8.9484
291 1 9.43541 9.43577 15.7221 -8.99481
292 1 12.5865 9.43047 15.7388 -8.95738
293 1 15.7304 9.43244 15.7299 -8.94722
294 1 18.8716 9.43393 15.7258 -8.94936
295 1 22.0137 1.74339e-15 18.8694 -8.94924
296 1 1.57204 1.57213 20.4415 -8.94936
297 1 3.14436 1.14839e-15 18.8695 -8.94954
298 1 4.71691 1.57213 20.4415 -8.94954
299 1 6.28938 2.04032e-16 18.8695 -8.94947
300 1 7.86191 1.57207 20.4416 -8.94951
301 1 9.43445 3.01877e-15 18.8696 -8.94951
302 1 11.007 1.57204 20.4416 -8.94951
303 1 12.5796 1.71856e-15 18.8696 -8.94949
304 1 14.1521 1.57202 20.4416 -8.94952
305 1 15.7247 -1.66599e-16 18.8695 -8.9495
306 1 17.2971 1.57201 20.4416 -8.94953
307 1 18.8695 1.76396e-15 18.8695 -8.94934
308 1 20.4417 1.57216 20.4416 -8.9492
309 1 -3.70369e-05 3.14446 18.8695 -8.94955
310 1 1.5722 4.71703 20.4416 -8.94968
311 1 3.1441 3.14419 18.8698 -8.94947
312 1 4.71665 4.71676 20.4415 -8.95015
313 1 6.28921 3.14419 18.8698 -8.94949
314 1 7.86167 4.71652 20.4416 -8.94954
315 1 9.43433 3.14402 18.8698 -8.94948
316 1 11.0068 4.71635 20.4417 -8.94955
317 1 12.5796 3.14395 18.8698 -8.9495
318 1 14.1523 4.71624 20.4418 -8.94973
319 1 15.725 3.14377 18.8699 -8.94953
320 1 17.2977 4.71619 20.4418 -8.94942
321 1 18.8699 3.14403 18.8697 -8.94902
322 1 20.4419 4.71684 20.4416 -8.9495
323 1 22.014 6.28938 18.8695 -8.94951
324 1 1.57224 7.86199 20.4416 -8.94954
325 1 3.14434 6.28947 18.8697 -8.94965
326 1 4.71681 7.86211 20.4416 -8.94966
327 1 6.28908 6.28927 18.8702 -8.95095
328 1 7.86177 7.86199 20.4415 -8.9502
329 1 9.43399 6.28865 18.8703 -8.94951
330 1 11.0066 7.86153 20.4419 -8.95021
331 1 12.5796 6.28845 18.8709 -8.95015
332 1 14.1528 7.86116 20.4424 -8.95071
333 1 15.726 6.28788 18.8712 -8.94969
334 1 17.2979 7.86141 20.4419 -8.94933
335 1 18.8702 6.28891 18.8698 -8.94941
336 1 20.442 7.86182 20.4417 -8.9495
46 1 9.43429 9.43453 22.0135 -8.94913
5 1 6.28943 8.60487e-16 22.0136 -8.9495
9 1 12.5796 3.35421e-16 22.0136 -8.94951
44 1 3.1444 9.4345 22.0135 -8.94953
39 1 15.7256 6.28837 22.0131 -8.94998
17 1 3.14415 3.14424 22.0133 -8.94952
21 1 9.4344 3.14409 22.0134 -8.94949
25 1 15.7248 3.14399 22.0135 -8.94963
27 1 18.8697 3.14417 22.0137 -8.94918
29 1 0.000102373 6.28945 22.0137 -8.94951
33 1 6.28902 6.28918 22.0128 -8.95066
1 1 -0.000228645 6.24063e-16 22.0137 -8.94917
13 1 18.8694 1.55152e-15 22.0137 -8.94933
23 1 12.5796 3.14405 22.0135 -8.94945
49 1 18.8701 9.43428 22.0136 -8.94946
183 1 1.57008 4.7157 11.0074 -8.94927
344 1 1.57211 11.007 1.57177 -8.94955
345 1 4.71658 11.007 1.57146 -8.94961
346 1 7.86202 11.007 1.57234 -8.94803
347 1 11.0071 11.007 1.57148 -8.94741
348 1 14.1545 11.007 1.56891 -8.94958
349 1 17.2986 11.007 1.57104 -8.94945
350 1 20.4422 11.007 1.57181 -8.9495
351 1 22.014 12.5795 -0.000232884 -8.94954
352 1 1.57209 14.1519 1.57179 -8.94941
688 3 10.1657 11.007 9.47242 2.27865
354 1 4.71663 14.1517 1.57138 -8.94978
355 1 6.2893 12.5792 -0.000378712 -8.94951
356 1 7.86157 14.1523 1.56994 -8.95237
511 1 18.8693 18.8698 9.43443 -8.94954
358 1 11.0069 14.153 1.56962 -8.95074
510 1 15.7252 18.8702 9.4343 -8.94949
360 1 14.1538 14.1535 1.56901 -8.95132
361 1 15.7258 12.5799 -0.000850807 -8.94939
362 1 17.2985 14.1528 1.57108 -8.9492
538 1 17.2972 20.4419 11.0069 -8.94952
364 1 20.4421 14.1522 1.57184 -8.94944
509 1 12.5801 18.8705 9.43403 -8.94883
366 1 1.57183 17.2971 1.57165 -8.94985
367 1 3.1444 15.7243 -0.00040283 -8.94977
368 1 4.71579 17.298 1.57031 -8.94956
508 1 9.43411 18.8709 9.4342 -8.94635
370 1 7.86151 17.298 1.57066 -8.94918
371 1 9.43413 15.7252 -0.00102583 -8.94971
372 1 11.0071 17.2981 1.57082 -8.94933
507 1 6.28636 18.874 9.43413 -8.9496
374 1 14.1528 17.2982 1.57087 -8.94971
506 1 3.14251 18.871 9.43444 -8.94944
376 1 17.2982 17.2982 1.5712 -8.94849
505 1 -0.000891455 18.8699 9.43448 -8.94949
378 1 20.4419 17.2972 1.57191 -8.94957
504 1 18.8697 15.7252 9.43438 -8.94952
380 1 1.57169 20.4419 1.57171 -8.9491
503 1 15.7264 15.7264 9.43412 -8.94639
382 1 4.71665 20.442 1.57155 -8.94958
383 1 6.28925 18.8697 -0.000572107 -8.94948
384 1 7.8619 20.442 1.57162 -8.94946
502 1 12.5794 15.7266 9.43307 -8.94723
386 1 11.0071 20.442 1.57169 -8.94949
534 1 4.71549 20.4431 11.0074 -8.94937
388 1 14.1522 20.4421 1.57182 -8.94948
501 1 9.42886 15.7233 9.43405 -9.00766
390 1 17.2973 20.4421 1.57188 -8.94944
500 1 6.27727 15.737 9.43353 -8.94351
392 1 20.4415 20.4418 1.57211 -8.94948
393 1 1.57154 11.007 4.71608 -8.94946
394 1 4.7155 11.007 4.71503 -8.94592
395 1 7.86478 11.007 4.71994 -8.94608
396 1 11.0106 11.007 4.71827 -8.99201
397 1 14.1615 11.007 4.70784 -8.94241
398 1 17.3009 11.007 4.71479 -8.94919
399 1 20.4425 11.007 4.7164 -8.94989
400 1 6.10033e-05 12.5795 3.14405 -8.94953
401 1 1.5713 14.1519 4.71627 -8.94987
402 1 3.1439 12.5794 3.14361 -8.94895
403 1 4.71444 14.1523 4.71465 -8.95179
404 1 6.2892 12.5786 3.14368 -8.94942
405 1 7.85634 14.1583 4.70623 -8.95564
406 1 9.43494 12.5798 3.1432 -8.95022
407 1 11.0079 14.1568 4.70792 -8.95238
408 1 12.5825 12.5806 3.13718 -8.95793
409 1 14.1632 14.162 4.70571 -8.93501
410 1 15.7282 12.5807 3.14116 -8.94783
411 1 17.3007 14.1537 4.71513 -8.95058
412 1 18.8709 12.5798 3.14364 -8.94932
413 1 20.4422 14.1522 4.71657 -8.95008
414 1 22.0138 15.7246 3.14414 -8.94984
415 1 1.57022 17.2981 4.71569 -8.94949
416 1 3.14333 15.7248 3.1432 -8.95044
417 1 4.71205 17.3016 4.71208 -8.94399
418 1 6.28652 15.7272 3.13959 -8.95037
419 1 7.86035 17.3009 4.71361 -8.94862
420 1 9.43396 15.7271 3.14092 -8.94805
421 1 11.0077 17.3004 4.71404 -8.94761
422 1 12.581 15.7271 3.14076 -8.94957
423 1 14.1552 17.3015 4.71386 -8.94919
424 1 15.7284 15.7282 3.14087 -8.94574
425 1 17.2982 17.2981 4.71644 -8.95002
426 1 18.8707 15.7253 3.14379 -8.94968
427 1 20.4413 17.2973 4.71674 -8.94988
428 1 22.0132 18.8697 3.14413 -8.94947
429 1 1.57139 20.4421 4.71651 -8.94943
430 1 3.14297 18.8706 3.14292 -8.94807
431 1 4.71584 20.4429 4.71575 -8.95003
432 1 6.28865 18.8708 3.14299 -8.94952
433 1 7.86177 20.4428 4.71598 -8.94962
434 1 9.43445 18.8707 3.14325 -8.94938
435 1 11.0074 20.4426 4.71615 -8.94957
436 1 12.58 18.8707 3.14345 -8.94912
437 1 14.1525 20.4426 4.71659 -8.95058
438 1 15.7257 18.871 3.14349 -8.94931
439 1 17.2971 20.442 4.71703 -8.94968
440 1 18.8696 18.8698 3.14436 -8.94971
441 1 20.4413 20.4418 4.71698 -8.94951
442 1 1.57113 11.007 7.86127 -8.94717
443 1 4.71862 11.007 7.86189 -8.94022
444 1 7.88414 11.007 7.87148 -8.95281
445 1 11.074 11.007 7.67865 -8.23211
446 1 14.1592 11.007 7.85557 -8.96764
447 1 17.2987 11.007 7.86216 -8.95111
448 1 20.4416 11.007 7.86192 -8.94939
449 1 22.0135 12.5794 6.28903 -8.94975
450 1 1.56858 14.1529 7.86103 -8.95172
451 1 3.14282 12.5788 6.28838 -8.94982
452 1 4.70406 14.1583 7.85704 -8.95607
453 1 6.28619 12.5773 6.2874 -8.95297
454 1 7.81801 14.1928 7.82376 -8.84353
455 1 9.42341 12.6008 6.28445 -8.91723
456 1 11.0229 14.1661 7.83467 -8.89496
457 1 12.6127 12.6056 6.25667 -8.88182
458 1 14.1578 14.1554 7.86046 -8.95048
459 1 15.7331 12.5815 6.28587 -8.95606
460 1 17.2983 14.1523 7.86252 -8.951
461 1 18.8712 12.5797 6.28909 -8.95127
462 1 20.441 14.1522 7.86193 -8.95014
463 1 -0.00151898 15.7251 6.2889 -8.95024
464 1 1.57001 17.2983 7.86143 -8.94939
465 1 3.13912 15.7274 6.28647 -8.95021
466 1 4.71212 17.3018 7.85993 -8.94764
467 1 6.27489 15.7387 6.27566 -8.92782
468 1 7.85827 17.3063 7.85975 -8.95981
469 1 9.43314 15.7344 6.28276 -8.9485
470 1 11.0063 17.3 7.86089 -8.95316
471 1 12.5865 15.735 6.28127 -8.94966
472 1 14.153 17.2987 7.86173 -8.94891
473 1 15.7276 15.7267 6.28825 -8.95054
474 1 17.2976 17.2978 7.86187 -8.94898
475 1 18.8698 15.7249 6.28944 -8.95017
476 1 20.4412 17.2975 7.86186 -8.94955
477 1 22.013 18.8698 6.28921 -8.94946
478 1 1.57128 20.4421 7.86179 -8.94948
479 1 3.1426 18.871 6.28834 -8.94916
480 1 4.71546 20.4431 7.86134 -8.94941
481 1 6.28722 18.8736 6.28732 -8.95172
482 1 7.8616 20.4435 7.86161 -8.95155
483 1 9.4345 18.8725 6.28787 -8.95039
484 1 11.0071 20.4424 7.86184 -8.94971
485 1 12.5801 18.8717 6.28874 -8.95222
486 1 14.1525 20.4422 7.86188 -8.94942
487 1 15.7251 18.8703 6.28941 -8.94958
488 1 17.2971 20.4419 7.86196 -8.9495
489 1 18.8693 18.8697 6.28947 -8.94944
490 1 20.4413 20.4418 7.86196 -8.94953
491 1 22.0122 12.5795 9.4342 -8.94967
492 1 3.13926 12.5805 9.43288 -8.95033
493 1 6.27555 12.5948 9.42785 -9.00228
494 1 9.35641 12.8348 9.42824 -8.12557
495 1 12.5666 12.5847 9.42245 -8.9404
496 1 15.722 12.5786 9.43536 -8.94513
497 1 18.869 12.5795 9.4346 -8.94818
498 1 22.0123 15.7252 9.43441 -8.94997
499 1 3.13918 15.7275 9.43428 -8.94933
512 1 1.56913 11.007 11.0071 -8.95113
514 1 7.81801 11.007 10.971 -9.12233
519 1 1.56891 14.1526 11.0072 -8.95158
532 1 20.4412 17.2975 11.007 -8.94956
527 1 4.71225 17.3014 11.0085 -8.9474
531 1 17.2978 17.2979 11.0068 -8.94906
530 1 14.1533 17.2988 11.0063 -8.9486
373 1 12.5796 15.7253 -0.00093458 -8.94984
377 1 18.87 15.7248 -0.00029118 -8.94944
379 1 22.0138 18.8694 -0.000255326 -8.94955
687 2 9.46104 11.007 11.7346 0.645399
513 1 4.7064 11.007 11.0049 -8.96124
686 1 20.4417 20.4417 20.4416 -8.9492
515 1 11.1941 11.007 11.1871 -8.38199
516 1 14.1478 11.007 11.0164 -8.9952
517 1 17.2972 11.007 11.0069 -8.94707
518 1 20.4411 11.007 11.0069 -8.94928
685 1 18.8699 18.8699 18.8697 -8.94902
520 1 4.70513 14.1565 11.0095 -8.95851
521 1 7.81813 14.192 11.0401 -8.90027
522 1 11.0286 14.1647 11.0286 -8.9532
523 1 14.1575 14.1549 11.0057 -8.95349
524 1 17.2987 14.1528 11.0065 -8.95011
525 1 20.4412 14.1523 11.0069 -8.95002
684 1 17.2971 20.4419 20.4416 -8.94953
683 1 15.725 18.8701 18.8699 -8.94953
528 1 7.85776 17.3071 11.0078 -8.95806
529 1 11.0072 17.3009 11.0064 -8.95072
391 1 18.8697 18.8697 22.0137 -8.94918
682 1 14.1521 20.4419 20.4416 -8.94952
681 1 12.5796 18.87 18.8698 -8.9495
533 1 1.5713 20.4421 11.0072 -8.94946
680 1 11.007 20.4419 20.4416 -8.94951
535 1 7.86146 20.4437 11.007 -8.95156
536 1 11.0072 20.4427 11.0066 -8.94963
537 1 14.1525 20.4422 11.0067 -8.94941
679 1 9.43433 18.8699 18.8698 -8.94948
539 1 20.4413 20.4418 11.007 -8.94953
540 1 1.57108 11.007 14.1529 -8.94941
541 1 4.71431 11.007 14.1532 -8.9473
542 1 7.86009 11.007 14.1524 -8.98233
543 1 11.0232 11.007 14.1673 -9.03362
544 1 14.1663 11.007 14.1661 -8.94308
545 1 17.3024 11.007 14.1551 -8.94953
546 1 20.4427 11.007 14.1527 -8.9501
547 1 22.013 12.5796 12.5799 -8.94996
548 1 1.57087 14.1523 14.1529 -8.94962
549 1 3.14093 12.5798 12.5808 -8.94811
550 1 4.71347 14.153 14.1543 -8.95092
551 1 6.28348 12.5797 12.582 -8.99768
552 1 7.85436 14.1588 14.1619 -8.98775
553 1 9.4307 12.6379 12.5976 -9.18755
554 1 11.0114 14.1609 14.1643 -8.98028
555 1 12.6261 12.6233 12.6298 -8.88219
556 1 14.1693 14.1678 14.1688 -8.92514
557 1 15.735 12.5817 12.5838 -8.96103
558 1 17.3022 14.1543 14.1544 -8.952
559 1 18.8715 12.5796 12.5798 -8.95202
560 1 20.4425 14.1524 14.1525 -8.9504
561 1 22.0126 15.725 12.5799 -8.95024
562 1 1.57039 17.298 14.1531 -8.94976
563 1 3.1396 15.7271 12.5818 -8.95097
564 1 4.71212 17.3016 14.1566 -8.9446
565 1 6.27559 15.7387 12.5919 -8.92968
566 1 7.85987 17.3018 14.1554 -8.94774
567 1 9.43435 15.7417 12.5843 -8.96078
568 1 11.0083 17.3024 14.1557 -8.94678
569 1 12.5872 15.7385 12.5876 -8.95468
570 1 14.156 17.303 14.1556 -8.95024
571 1 15.7279 15.727 12.5801 -8.95061
572 1 17.2985 17.2984 14.1525 -8.95022
573 1 18.8702 15.7251 12.5795 -8.94981
574 1 20.4415 17.2974 14.1522 -8.94984
575 1 -0.000800859 18.8698 12.5798 -8.94943
576 1 1.57143 20.442 14.1525 -8.94946
577 1 3.14269 18.8709 12.5805 -8.94916
578 1 4.71579 20.4429 14.1532 -8.95001
579 1 6.28721 18.8737 12.5814 -8.95154
580 1 7.8616 20.4431 14.1531 -8.9497
581 1 9.43455 18.8739 12.5807 -8.95268
582 1 11.0075 20.4431 14.153 -8.94986
583 1 12.5802 18.8726 12.5799 -8.95288
584 1 14.1527 20.4429 14.1524 -8.95084
585 1 15.7252 18.8704 12.5793 -8.94946
586 1 17.2972 20.442 14.1519 -8.94966
587 1 18.8694 18.8698 12.5795 -8.94942
588 1 20.4414 20.4418 14.152 -8.9495
589 1 1.57204 11.007 17.2975 -8.94952
590 1 4.71633 11.007 17.2977 -8.94897
591 1 7.86225 11.007 17.2968 -8.95018
592 1 11.0075 11.007 17.301 -8.95223
593 1 14.1559 11.007 17.303 -8.94875
594 1 17.2994 11.007 17.299 -8.94926
595 1 20.4424 11.007 17.2976 -8.9495
596 1 22.014 12.5796 15.7251 -8.94962
597 1 1.57203 14.152 17.2975 -8.94951
598 1 3.14353 12.5795 15.7255 -8.94943
599 1 4.71633 14.152 17.298 -8.94933
600 1 6.28797 12.5792 15.726 -8.9484
601 1 7.86189 14.1519 17.2984 -8.95328
602 1 9.43541 12.5781 15.7221 -8.99481
603 1 11.0064 14.1531 17.3002 -8.95191
604 1 12.5865 12.5834 15.7388 -8.95738
605 1 14.1554 14.155 17.3028 -8.95064
606 1 15.7304 12.5815 15.7299 -8.94722
607 1 17.2993 14.1532 17.2989 -8.94903
608 1 18.8716 12.58 15.7258 -8.94936
609 1 20.4424 14.1523 17.2975 -8.94945
610 1 -0.00012434 15.7248 15.725 -8.94983
611 1 1.5718 17.2972 17.2975 -8.9498
612 1 3.14309 15.7251 15.7259 -8.95013
613 1 4.71565 17.2981 17.2989 -8.94948
614 1 6.28609 15.7276 15.7294 -8.95009
615 1 7.86142 17.298 17.2984 -8.94914
616 1 9.43357 15.7273 15.7275 -8.94764
617 1 11.0069 17.2983 17.2986 -8.94946
618 1 12.5821 15.7291 15.7301 -8.94854
619 1 14.1533 17.299 17.2991 -8.94943
620 1 15.7305 15.7302 15.7301 -8.94312
621 1 17.2989 17.2988 17.2986 -8.9478
622 1 18.8713 15.7257 15.7256 -8.94993
623 1 20.4421 17.2974 17.2974 -8.94955
624 1 22.0133 18.8697 15.7249 -8.94956
625 1 1.57168 20.4419 17.2974 -8.94915
626 1 3.14294 18.8707 15.7261 -8.94822
627 1 4.71652 20.4421 17.2976 -8.94955
628 1 6.2884 18.871 15.7262 -8.94944
629 1 7.86179 20.4421 17.2976 -8.94937
630 1 9.43428 18.871 15.7259 -8.949
631 1 11.0071 20.4421 17.2976 -8.94941
632 1 12.5804 18.8715 15.7261 -8.94903
633 1 14.1524 20.4423 17.2976 -8.94945
634 1 15.7261 18.8716 15.7259 -8.94952
635 1 17.2975 20.4423 17.2974 -8.94947
636 1 18.8697 18.8699 15.7247 -8.94983
637 1 20.4416 20.4418 17.297 -8.94957
638 1 1.57223 11.007 20.4416 -8.94957
639 1 4.71676 11.007 20.4416 -8.94965
640 1 7.86179 11.007 20.4415 -8.94917
641 1 11.0066 11.007 20.4423 -8.9495
642 1 14.1531 11.007 20.4425 -8.9503
643 1 17.298 11.007 20.4419 -8.94943
644 1 20.442 11.007 20.4417 -8.94951
645 1 0.000174889 12.5795 18.8695 -8.94952
646 1 1.57224 14.1519 20.4416 -8.94954
647 1 3.14435 12.5794 18.8696 -8.94954
648 1 4.71681 14.1518 20.4416 -8.94966
649 1 6.2892 12.5793 18.8696 -8.94985
650 1 7.86177 14.1519 20.4415 -8.9502
651 1 9.43418 12.5795 18.8696 -8.94754
652 1 11.0066 14.1524 20.4419 -8.95021
653 1 12.5802 12.58 18.8727 -8.95238
654 1 14.1528 14.1527 20.4424 -8.95071
655 1 15.7263 12.5801 18.8714 -8.94925
656 1 17.2979 14.1525 20.4419 -8.94933
657 1 18.8703 12.5797 18.8699 -8.94941
658 1 20.442 14.1521 20.4417 -8.9495
659 1 22.014 15.7245 18.8695 -8.94951
660 1 1.5722 17.2969 20.4416 -8.94968
661 1 3.14434 15.7244 18.8697 -8.94965
662 1 4.71665 17.2971 20.4415 -8.95015
663 1 6.28908 15.7246 18.8702 -8.95095
664 1 7.86167 17.2974 20.4416 -8.94954
665 1 9.43399 15.7253 18.8703 -8.94951
666 1 11.0068 17.2975 20.4417 -8.94955
667 1 12.5796 15.7255 18.8709 -8.95015
668 1 14.1523 17.2977 20.4418 -8.94973
669 1 15.726 15.726 18.8712 -8.94969
670 1 17.2977 17.2977 20.4418 -8.94942
671 1 18.8702 15.725 18.8698 -8.94941
672 1 20.4419 17.2971 20.4416 -8.9495
673 1 -3.70369e-05 18.8694 18.8695 -8.94955
674 1 1.57204 20.4418 20.4415 -8.94936
675 1 3.1441 18.8697 18.8698 -8.94947
676 1 4.71691 20.4418 20.4415 -8.94954
677 1 6.28921 18.8697 18.8698 -8.94949
678 1 7.86191 20.4418 20.4416 -8.94951
353 1 3.1444 12.5794 22.0135 -8.94953
357 1 9.43429 12.5794 22.0135 -8.94913
359 1 12.5798 12.5796 22.0128 -8.95152
365 1 0.000102373 15.7245 22.0137 -8.94951
369 1 6.28902 15.7247 22.0128 -8.95066
389 1 15.7248 18.8699 22.0135 -8.94963
375 1 15.7256 15.7255 22.0131 -8.94998
385 1 9.4344 18.8698 22.0134 -8.94949
381 1 3.14415 18.8697 22.0133 -8.94952
363 1 18.8701 12.5796 22.0136 -8.94946
387 1 12.5796 18.8699 22.0135 -8.94945
526 1 1.57008 17.2982 11.0074 -8.94927
