ITEM: TIMESTEP
57
ITEM: NUMBER OF ATOMS
688
ITEM: BOX BOUNDS pp pp pp
0.0000000000000000e+00 2.2013900999999997e+01
0.0000000000000000e+00 2.2013900999999997e+01
0.0000000000000000e+00 2.2013900999999997e+01
ITEM: ATOMS id type x y z c_pot
190 1 1.57202 7.86204 11.007 -8.95034
2 1 1.57242 1.57242 1.57242 -8.9496
175 1 18.8693 9.43439 9.4345 -8.94939
4 1 4.71727 1.57242 1.57242 -8.94967
174 1 15.7253 9.43361 9.43434 -8.94469
6 1 7.86211 1.57242 1.57242 -8.94964
7 1 9.43453 1.20667e-15 -2.01837e-07 -8.94963
8 1 11.007 1.57242 1.57242 -8.94964
173 1 12.574 9.43287 9.4304 -8.93946
10 1 14.1518 1.57242 1.57242 -8.94964
172 1 9.35066 9.21754 9.42451 -8.1134
12 1 17.2966 1.57241 1.57242 -8.94962
189 1 20.4415 4.71726 11.007 -8.94963
14 1 20.4415 1.57242 1.57242 -8.94963
171 1 6.27728 9.4274 9.43112 -9.00274
16 1 1.57242 4.71726 1.57242 -8.94966
170 1 3.1428 9.43426 9.43411 -8.95117
18 1 4.71721 4.71721 1.57233 -8.94958
19 1 6.28969 3.14484 -1.27848e-06 -8.94963
20 1 7.86211 4.71723 1.57238 -8.94957
169 1 22.0137 9.4345 9.43449 -8.94998
22 1 11.007 4.71723 1.57237 -8.94964
188 1 17.2967 4.71722 11.007 -8.94958
24 1 14.1518 4.71724 1.5724 -8.94978
168 1 18.8691 6.28963 9.43453 -8.94959
26 1 17.2967 4.71721 1.57237 -8.94938
167 1 15.7246 6.2892 9.43452 -8.94845
28 1 20.4415 4.71726 1.57242 -8.94962
166 1 12.5792 6.2891 9.4343 -8.94977
30 1 1.57242 7.86211 1.57242 -8.94963
31 1 3.14484 6.28969 2.58718e-06 -8.94964
32 1 4.71724 7.86212 1.5724 -8.94967
165 1 9.43265 6.285 9.43428 -8.99613
34 1 7.86197 7.86197 1.57194 -8.95044
35 1 9.43452 6.28965 -5.35478e-05 -8.94962
36 1 11.0068 7.86194 1.57201 -8.94967
164 1 6.28655 6.28608 9.43436 -8.94728
38 1 14.1521 7.86183 1.57183 -8.95008
163 1 3.14431 6.2894 9.43456 -8.94953
40 1 17.2967 7.8621 1.5724 -8.94972
162 1 22.0139 6.28966 9.43453 -8.94968
42 1 20.4415 7.86211 1.57242 -8.94963
43 1 22.0139 9.43453 -1.76377e-07 -8.94964
161 1 18.8691 3.14484 9.43453 -8.94965
45 1 6.28966 9.43454 -1.21903e-05 -8.94968
160 1 15.7243 3.14477 9.43453 -8.94963
159 1 12.5795 3.1446 9.43448 -8.94921
48 1 15.7243 9.43452 -4.28879e-05 -8.94957
184 1 4.71689 4.71692 11.0071 -8.94933
50 1 8.23385e-09 1.85577e-15 3.14484 -8.94964
51 1 1.57242 1.57242 4.71726 -8.94966
52 1 3.14483 1.71439e-15 3.14483 -8.94961
53 1 4.71721 1.57234 4.71721 -8.94963
54 1 6.28969 3.85121e-16 3.14484 -8.94964
55 1 7.86211 1.57239 4.71724 -8.9496
56 1 9.43453 3.80115e-16 3.14484 -8.94964
57 1 11.007 1.57237 4.71723 -8.9496
58 1 12.5794 -6.89195e-16 3.14484 -8.94962
59 1 14.1518 1.57235 4.71723 -8.94972
60 1 15.7242 8.2706e-16 3.14483 -8.94964
61 1 17.2966 1.57242 4.71727 -8.94964
62 1 18.8691 1.97283e-15 3.14484 -8.94964
63 1 20.4415 1.57242 4.71726 -8.94963
64 1 22.0139 3.14484 3.14484 -8.94962
65 1 1.57234 4.71721 4.71722 -8.94959
66 1 3.14478 3.14478 3.14478 -8.94936
67 1 4.71666 4.71666 4.71665 -8.9474
68 1 6.28969 3.14482 3.14482 -8.94979
69 1 7.86213 4.71699 4.71704 -8.94993
70 1 9.43452 3.1448 3.14481 -8.94965
71 1 11.007 4.71686 4.71691 -8.94899
72 1 12.5794 3.1448 3.14481 -8.94958
73 1 14.1522 4.71657 4.71691 -8.94967
74 1 15.7243 3.14476 3.14479 -8.94957
75 1 17.2967 4.71724 4.71726 -8.94978
76 1 18.8691 3.14484 3.14484 -8.94966
77 1 20.4415 4.71726 4.71726 -8.94964
78 1 22.0139 6.28968 3.14484 -8.94965
79 1 1.57239 7.86212 4.71724 -8.94965
80 1 3.14482 6.28969 3.14482 -8.94982
81 1 4.71703 7.86218 4.71705 -8.95049
82 1 6.28932 6.28933 3.14411 -8.94982
83 1 7.8604 7.86046 4.7131 -8.95364
84 1 9.43451 6.28933 3.14441 -8.94904
85 1 11.0064 7.86092 4.71461 -8.95129
86 1 12.5794 6.28947 3.14456 -8.94996
87 1 14.1561 7.85778 4.713 -8.93693
88 1 15.7248 6.28912 3.14429 -8.94766
89 1 17.2972 7.86184 4.71699 -8.95004
90 1 18.8691 6.28964 3.1448 -8.94962
91 1 20.4415 7.86209 4.71725 -8.94973
92 1 -4.27696e-07 9.43453 3.14484 -8.94963
93 1 3.1448 9.43452 3.1448 -8.94956
94 1 6.28952 9.43472 3.14461 -8.94971
95 1 9.43402 9.4341 3.14341 -8.9495
96 1 12.5803 9.43371 3.14142 -8.95457
97 1 15.7245 9.43444 3.14454 -8.94943
98 1 18.8691 9.43452 3.14481 -8.94958
99 1 22.0139 1.73349e-15 6.28969 -8.94963
100 1 1.57242 1.57242 7.86211 -8.94965
101 1 3.14484 6.32057e-16 6.28969 -8.94962
102 1 4.71722 1.57236 7.86209 -8.94956
103 1 6.28965 1.04737e-15 6.28965 -8.94984
104 1 7.86205 1.57206 7.86204 -8.95047
105 1 9.43454 2.03653e-17 6.28965 -8.94971
106 1 11.007 1.57222 7.86205 -8.94979
107 1 12.5794 1.27231e-15 6.28966 -8.94979
108 1 14.1518 1.57238 7.86211 -8.94961
109 1 15.7242 2.06231e-15 6.28969 -8.94963
110 1 17.2966 1.57242 7.86211 -8.94963
111 1 18.8691 1.71071e-15 6.28969 -8.94963
112 1 20.4415 1.57242 7.86211 -8.94963
113 1 22.0139 3.14484 6.28969 -8.94964
114 1 1.57237 4.71723 7.8621 -8.94962
115 1 3.14481 3.14481 6.28968 -8.94972
116 1 4.7169 4.71686 7.86198 -8.9494
117 1 6.2894 3.1442 6.28939 -8.95019
118 1 7.86123 4.7136 7.86124 -8.9555
119 1 9.43464 3.14441 6.28949 -8.94959
120 1 11.0074 4.71581 7.86164 -8.95009
121 1 12.5795 3.14437 6.28954 -8.95042
122 1 14.152 4.71699 7.86224 -8.94962
123 1 15.7242 3.14481 6.2897 -8.94966
124 1 17.2967 4.71722 7.8621 -8.94959
125 1 18.8691 3.14484 6.28969 -8.94963
126 1 20.4415 4.71726 7.86211 -8.94963
127 1 -6.63271e-05 6.28966 6.28966 -8.94971
128 1 1.57193 7.86198 7.86199 -8.95036
129 1 3.14414 6.28935 6.28934 -8.94983
130 1 4.71289 7.86054 7.86062 -8.95351
131 1 6.2849 6.28494 6.28482 -8.93473
132 1 7.83364 7.83565 7.83536 -8.85518
133 1 9.43515 6.287 6.28822 -8.95055
134 1 11.0165 7.8559 7.84902 -8.91264
135 1 12.5813 6.28569 6.28785 -8.95206
136 1 14.154 7.86088 7.86282 -8.94947
137 1 15.7245 6.28947 6.28969 -8.95013
138 1 17.2971 7.86187 7.86214 -8.94954
139 1 18.8691 6.28965 6.28968 -8.9496
140 1 20.4415 7.86207 7.86209 -8.94974
141 1 22.0139 9.43453 6.28966 -8.94972
142 1 3.1445 9.43466 6.28949 -8.94967
143 1 6.288 9.43593 6.28857 -8.95124
144 1 9.42662 9.42354 6.2844 -8.92328
145 1 12.6047 9.41178 6.2659 -8.87363
146 1 15.7278 9.43365 6.2887 -8.95463
147 1 18.8694 9.43448 6.28963 -8.95037
148 1 -1.69426e-07 1.53766e-15 9.43453 -8.94963
149 1 3.14484 1.67131e-15 9.43453 -8.94964
150 1 6.28963 4.29076e-16 9.43452 -8.94973
151 1 9.43455 1.38881e-15 9.43453 -8.95005
152 1 12.5794 1.60597e-15 9.43452 -8.94963
153 1 15.7242 2.01457e-15 9.43453 -8.94965
154 1 18.8691 1.36821e-15 9.43453 -8.94963
155 1 -2.72045e-06 3.14484 9.43453 -8.94963
156 1 3.14481 3.14481 9.43453 -8.94971
157 1 6.28935 3.14419 9.43448 -8.94931
158 1 9.43465 3.1436 9.43453 -8.95011
177 1 4.71722 1.57237 11.007 -8.94957
181 1 17.2966 1.57242 11.007 -8.94963
187 1 14.152 4.717 11.0068 -8.94965
3 1 3.14484 1.62568e-15 -1.01403e-07 -8.94964
11 1 15.7242 4.79416e-16 6.55812e-08 -8.94964
15 1 22.0139 3.14484 -3.58133e-07 -8.94963
41 1 18.8691 6.28969 -8.89578e-07 -8.94966
37 1 12.5794 6.28966 -3.44333e-05 -8.94962
176 1 1.57242 1.57242 11.007 -8.94964
343 1 18.8691 9.43453 18.8691 -8.94964
178 1 7.86201 1.57201 11.007 -8.95041
179 1 11.0071 1.57216 11.007 -8.94975
180 1 14.1518 1.57239 11.0069 -8.94964
342 1 15.7243 9.43452 18.8691 -8.94961
182 1 20.4415 1.57242 11.007 -8.94964
341 1 12.5795 9.43438 18.8697 -8.9506
340 1 9.43442 9.4344 18.8693 -8.9491
185 1 7.8609 4.71335 11.0074 -8.95387
186 1 11.0077 4.71546 11.0069 -8.94855
47 1 12.5794 9.43446 22.0136 -8.95043
339 1 6.2896 9.43449 18.8693 -8.94979
338 1 3.14483 9.43452 18.8691 -8.94965
337 1 -8.30911e-07 9.43453 18.8691 -8.94963
191 1 4.71346 7.86117 11.0081 -8.95521
192 1 7.83447 7.83704 11.0295 -8.91568
193 1 11.0167 7.85653 11.0161 -8.97029
194 1 14.1539 7.86109 11.0057 -8.95143
195 1 17.2971 7.86188 11.0069 -8.94945
196 1 20.4415 7.86208 11.007 -8.94971
197 1 22.0139 1.16536e-15 12.5794 -8.94963
198 1 1.57242 1.57242 14.1518 -8.94966
199 1 3.14484 1.03988e-15 12.5794 -8.94963
200 1 4.71722 1.57235 14.1518 -8.94964
201 1 6.28964 1.59245e-15 12.5794 -8.9498
202 1 7.86208 1.57232 14.1519 -8.94966
203 1 9.43454 1.34261e-15 12.5794 -8.95007
204 1 11.007 1.5723 14.1519 -8.94967
205 1 12.5794 1.57858e-15 12.5794 -8.94977
206 1 14.1518 1.57235 14.1518 -8.94974
207 1 15.7242 2.07007e-15 12.5794 -8.94964
208 1 17.2966 1.57242 14.1518 -8.94964
209 1 18.8691 6.85714e-16 12.5794 -8.94963
210 1 20.4415 1.57242 14.1518 -8.94963
211 1 -2.39386e-06 3.14484 12.5794 -8.94963
212 1 1.57234 4.71722 14.1518 -8.94963
213 1 3.14481 3.14481 12.5794 -8.94971
214 1 4.71668 4.71669 14.1524 -8.94777
215 1 6.28941 3.14422 12.5796 -8.9501
216 1 7.86174 4.71642 14.1524 -8.94932
217 1 9.43464 3.14373 12.5795 -8.95154
218 1 11.0074 4.71624 14.1525 -8.94839
219 1 12.5795 3.14435 12.5795 -8.95044
220 1 14.1522 4.71653 14.1521 -8.95007
221 1 15.7242 3.14481 12.5794 -8.94965
222 1 17.2967 4.71724 14.1518 -8.94981
223 1 18.8691 3.14484 12.5794 -8.94963
224 1 20.4415 4.71726 14.1518 -8.94965
225 1 22.0138 6.28966 12.5794 -8.94973
226 1 1.57228 7.86204 14.1519 -8.94956
227 1 3.14421 6.28936 12.5796 -8.95002
228 1 4.71645 7.86192 14.1522 -8.9507
229 1 6.28532 6.28514 12.5837 -8.93671
230 1 7.85694 7.8584 14.1583 -8.98475
231 1 9.43514 6.28042 12.5806 -8.96294
232 1 11.0098 7.85854 14.1572 -8.98145
233 1 12.581 6.28537 12.5809 -8.95445
234 1 14.1573 7.85684 14.1569 -8.93422
235 1 15.7245 6.28944 12.5793 -8.9502
236 1 17.2974 7.86177 14.1521 -8.95018
237 1 18.8691 6.28965 12.5794 -8.9496
238 1 20.4415 7.86208 14.1518 -8.94975
239 1 22.0138 9.43449 12.5794 -8.94974
240 1 3.1439 9.43421 12.58 -8.94825
241 1 6.28714 9.43444 12.5821 -9.00126
242 1 9.4288 9.37989 12.6036 -9.19071
243 1 12.6089 9.40572 12.6097 -8.89986
244 1 15.7285 9.43338 12.5806 -8.95501
245 1 18.8695 9.43446 12.5794 -8.95048
246 1 -1.26314e-09 5.40136e-16 15.7242 -8.94964
247 1 1.57242 1.57242 17.2966 -8.94961
248 1 3.14483 1.06251e-16 15.7242 -8.94962
249 1 4.71726 1.57241 17.2966 -8.94965
250 1 6.28968 1.53437e-15 15.7242 -8.94965
251 1 7.86211 1.57242 17.2966 -8.94963
252 1 9.43453 1.97312e-15 15.7242 -8.9496
253 1 11.0069 1.57243 17.2966 -8.94963
254 1 12.5794 1.48341e-15 15.7242 -8.94964
255 1 14.1518 1.57241 17.2966 -8.94962
256 1 15.7242 1.82669e-15 15.7242 -8.94965
257 1 17.2966 1.57241 17.2966 -8.94962
258 1 18.8691 9.55402e-16 15.7242 -8.94964
259 1 20.4415 1.57242 17.2966 -8.94964
260 1 22.0139 3.14484 15.7242 -8.94963
261 1 1.57241 4.71726 17.2966 -8.94965
262 1 3.14479 3.14479 15.7243 -8.94941
263 1 4.71717 4.71715 17.2968 -8.9494
264 1 6.28963 3.14473 15.7243 -8.94971
265 1 7.86215 4.71727 17.2967 -8.94971
266 1 9.43452 3.14481 15.7243 -8.94948
267 1 11.0069 4.71727 17.2967 -8.94978
268 1 12.5794 3.14471 15.7243 -8.94951
269 1 14.1518 4.71718 17.2967 -8.94961
270 1 15.7243 3.14475 15.7243 -8.94962
271 1 17.2967 4.7172 17.2967 -8.94935
272 1 18.8691 3.14484 15.7242 -8.94966
273 1 20.4415 4.71726 17.2966 -8.94962
274 1 -5.36203e-06 6.28968 15.7242 -8.94963
275 1 1.5724 7.8621 17.2967 -8.94964
276 1 3.14475 6.28964 15.7243 -8.94977
277 1 4.71712 7.86199 17.2968 -8.94934
278 1 6.28888 6.28889 15.7253 -8.94858
279 1 7.86206 7.86207 17.2973 -8.95131
280 1 9.43447 6.28954 15.7244 -8.9493
281 1 11.0067 7.86206 17.2972 -8.95072
282 1 12.5798 6.28897 15.7249 -8.94886
283 1 14.1522 7.86164 17.2975 -8.94967
284 1 15.7249 6.289 15.7249 -8.94728
285 1 17.2967 7.86209 17.2967 -8.94972
286 1 18.8692 6.28963 15.7243 -8.94962
287 1 20.4415 7.86211 17.2966 -8.94964
288 1 22.0139 9.43453 15.7242 -8.94967
289 1 3.14465 9.4345 15.7244 -8.9498
290 1 6.28858 9.43428 15.7255 -8.94847
291 1 9.43372 9.43505 15.725 -8.99784
292 1 12.5816 9.43284 15.7295 -8.95289
293 1 15.7248 9.43437 15.7247 -8.94951
294 1 18.8691 9.43452 15.7243 -8.94962
295 1 22.0139 1.29642e-16 18.8691 -8.94963
296 1 1.57242 1.57242 20.4415 -8.94963
297 1 3.14484 -2.91704e-16 18.8691 -8.94963
298 1 4.71727 1.57242 20.4415 -8.94964
299 1 6.28969 1.16414e-15 18.8691 -8.94963
300 1 7.86211 1.57242 20.4415 -8.94963
301 1 9.43453 1.66056e-15 18.8691 -8.94964
302 1 11.007 1.57242 20.4415 -8.94963
303 1 12.5794 1.87252e-15 18.8691 -8.94964
304 1 14.1518 1.57242 20.4415 -8.94964
305 1 15.7242 1.69487e-15 18.8691 -8.94963
306 1 17.2966 1.57242 20.4415 -8.94964
307 1 18.8691 1.4972e-15 18.8691 -8.94963
308 1 20.4415 1.57242 20.4415 -8.94963
309 1 2.5461e-07 3.14484 18.8691 -8.94963
310 1 1.57242 4.71726 20.4415 -8.94963
311 1 3.14483 3.14483 18.8691 -8.9496
312 1 4.71726 4.71726 20.4415 -8.94966
313 1 6.28969 3.14485 18.8691 -8.94967
314 1 7.86211 4.71726 20.4415 -8.94962
315 1 9.43453 3.14484 18.8691 -8.94964
316 1 11.007 4.71726 20.4415 -8.94963
317 1 12.5794 3.14485 18.8691 -8.94967
318 1 14.1518 4.71726 20.4415 -8.94966
319 1 15.7242 3.14484 18.8691 -8.94964
320 1 17.2966 4.71725 20.4415 -8.9496
321 1 18.8691 3.14484 18.8691 -8.9496
322 1 20.4415 4.71726 20.4415 -8.94964
323 1 22.0139 6.28968 18.8691 -8.94963
324 1 1.57242 7.86211 20.4415 -8.94964
325 1 3.14483 6.28967 18.8691 -8.9496
326 1 4.71725 7.8621 20.4415 -8.94963
327 1 6.28967 6.28966 18.8691 -8.94986
328 1 7.86209 7.86208 20.4415 -8.94979
329 1 9.43452 6.28963 18.8691 -8.94949
330 1 11.0069 7.86208 20.4415 -8.94972
331 1 12.5793 6.28967 18.8691 -8.94978
332 1 14.1519 7.86205 20.4415 -8.94981
333 1 15.7243 6.28961 18.8692 -8.94957
334 1 17.2966 7.86211 20.4415 -8.94964
335 1 18.8691 6.28968 18.8691 -8.94966
336 1 20.4415 7.86211 20.4415 -8.94963
46 1 9.43445 9.43446 22.0137 -8.94972
5 1 6.28969 5.45851e-16 22.0139 -8.94963
9 1 12.5794 7.07692e-16 22.0139 -8.94963
44 1 3.14484 9.43453 22.0139 -8.94962
39 1 15.7243 6.28963 22.0138 -8.94962
17 1 3.14484 3.14484 22.0139 -8.94962
21 1 9.43453 3.14484 22.0139 -8.94964
25 1 15.7242 3.14484 22.0139 -8.94967
27 1 18.8691 3.14484 22.0139 -8.94961
29 1 -2.72042e-07 6.28969 22.0139 -8.94963
33 1 6.28965 6.28965 22.0138 -8.94973
1 1 -5.29217e-07 1.32045e-15 22.0139 -8.94963
13 1 18.8691 1.56981e-15 22.0139 -8.94963
23 1 12.5794 3.14484 22.0139 -8.94963
49 1 18.8691 9.43453 22.0139 -8.94964
183 1 1.57236 4.71723 11.007 -8.94957
344 1 1.57242 11.007 1.57242 -8.94965
345 1 4.71721 11.007 1.57235 -8.9496
346 1 7.86202 11.007 1.57229 -8.94924
347 1 11.0068 11.007 1.5711 -8.95065
348 1 14.1521 11.007 1.5719 -8.94934
349 1 17.2967 11.007 1.57239 -8.94969
350 1 20.4415 11.007 1.57242 -8.94964
351 1 22.0139 12.5794 -1.76377e-07 -8.94964
352 1 1.57242 14.1518 1.57242 -8.94963
688 3 10.2051 11.007 9.44893 2.39756
354 1 4.71724 14.1518 1.5724 -8.94967
355 1 6.28966 12.5794 -1.21903e-05 -8.94968
356 1 7.86197 14.1519 1.57194 -8.95044
511 1 18.8691 18.8691 9.43453 -8.94965
358 1 11.0068 14.152 1.57201 -8.94967
510 1 15.7243 18.8691 9.43453 -8.94963
360 1 14.1521 14.1521 1.57183 -8.95008
361 1 15.7243 12.5794 -4.28879e-05 -8.94957
362 1 17.2967 14.1518 1.5724 -8.94972
538 1 17.2966 20.4415 11.007 -8.94963
364 1 20.4415 14.1518 1.57242 -8.94963
509 1 12.5795 18.8693 9.43448 -8.94921
366 1 1.57242 17.2966 1.57242 -8.94966
367 1 3.14484 15.7242 2.58718e-06 -8.94964
368 1 4.71721 17.2967 1.57233 -8.94958
508 1 9.43465 18.8703 9.43453 -8.95011
370 1 7.86211 17.2967 1.57238 -8.94957
371 1 9.43452 15.7243 -5.35478e-05 -8.94962
372 1 11.007 17.2967 1.57237 -8.94964
507 1 6.28935 18.8697 9.43448 -8.94931
374 1 14.1518 17.2967 1.5724 -8.94978
506 1 3.14481 18.8691 9.43453 -8.94971
376 1 17.2967 17.2967 1.57237 -8.94938
505 1 -2.72045e-06 18.8691 9.43453 -8.94963
378 1 20.4415 17.2966 1.57242 -8.94962
504 1 18.8691 15.7243 9.43453 -8.94959
380 1 1.57242 20.4415 1.57242 -8.9496
503 1 15.7246 15.7247 9.43452 -8.94845
382 1 4.71727 20.4415 1.57242 -8.94967
383 1 6.28969 18.8691 -1.27848e-06 -8.94963
384 1 7.86211 20.4415 1.57242 -8.94964
502 1 12.5792 15.7248 9.4343 -8.94977
386 1 11.007 20.4415 1.57242 -8.94964
534 1 4.71722 20.4415 11.007 -8.94957
388 1 14.1518 20.4415 1.57242 -8.94964
501 1 9.43265 15.7289 9.43428 -8.99613
390 1 17.2966 20.4415 1.57242 -8.94962
500 1 6.28655 15.7278 9.43436 -8.94728
392 1 20.4415 20.4415 1.57242 -8.94963
393 1 1.57236 11.007 4.71721 -8.9496
394 1 4.71687 11.007 4.7168 -8.94814
395 1 7.86256 11.007 4.71729 -8.94879
396 1 11.0087 11.007 4.71117 -8.9904
397 1 14.1545 11.007 4.71442 -8.94642
398 1 17.2971 11.007 4.71701 -8.94931
399 1 20.4415 11.007 4.71724 -8.94967
400 1 -4.27696e-07 12.5794 3.14484 -8.94963
401 1 1.57239 14.1518 4.71724 -8.94965
402 1 3.1448 12.5794 3.1448 -8.94956
403 1 4.71703 14.1517 4.71705 -8.95049
404 1 6.28952 12.5792 3.14461 -8.94971
405 1 7.8604 14.1534 4.7131 -8.95364
406 1 9.43402 12.5798 3.14341 -8.9495
407 1 11.0064 14.153 4.71461 -8.95129
408 1 12.5803 12.5802 3.14142 -8.95457
409 1 14.1561 14.1561 4.713 -8.93693
410 1 15.7245 12.5795 3.14454 -8.94943
411 1 17.2972 14.1521 4.71699 -8.95004
412 1 18.8691 12.5794 3.14481 -8.94958
413 1 20.4415 14.1518 4.71725 -8.94973
414 1 22.0139 15.7242 3.14484 -8.94965
415 1 1.57234 17.2967 4.71722 -8.94959
416 1 3.14482 15.7242 3.14482 -8.94982
417 1 4.71666 17.2972 4.71665 -8.9474
418 1 6.28932 15.7246 3.14411 -8.94982
419 1 7.86213 17.2969 4.71704 -8.94993
420 1 9.43451 15.7246 3.14441 -8.94904
421 1 11.007 17.297 4.71691 -8.94899
422 1 12.5794 15.7244 3.14456 -8.94996
423 1 14.1522 17.2973 4.71691 -8.94967
424 1 15.7248 15.7248 3.14429 -8.94766
425 1 17.2967 17.2967 4.71726 -8.94978
426 1 18.8691 15.7243 3.1448 -8.94962
427 1 20.4415 17.2966 4.71726 -8.94964
428 1 22.0139 18.8691 3.14484 -8.94962
429 1 1.57242 20.4415 4.71726 -8.94966
430 1 3.14478 18.8691 3.14478 -8.94936
431 1 4.71721 20.4416 4.71721 -8.94963
432 1 6.28969 18.8691 3.14482 -8.94979
433 1 7.86211 20.4415 4.71724 -8.9496
434 1 9.43452 18.8691 3.14481 -8.94965
435 1 11.007 20.4415 4.71723 -8.9496
436 1 12.5794 18.8691 3.14481 -8.94958
437 1 14.1518 20.4415 4.71723 -8.94972
438 1 15.7243 18.8691 3.14479 -8.94957
439 1 17.2966 20.4415 4.71727 -8.94964
440 1 18.8691 18.8691 3.14484 -8.94966
441 1 20.4415 20.4415 4.71726 -8.94963
442 1 1.57221 11.007 7.86198 -8.94913
443 1 4.71684 11.007 7.8616 -8.94459
444 1 7.8708 11.007 7.86491 -8.95476
445 1 11.0842 11.007 7.67152 -8.15113
446 1 14.161 11.007 7.8596 -8.97006
447 1 17.298 11.007 7.86225 -8.95156
448 1 20.4416 11.007 7.86211 -8.94987
449 1 22.0139 12.5794 6.28966 -8.94972
450 1 1.57193 14.1519 7.86199 -8.95036
451 1 3.1445 12.5792 6.28949 -8.94967
452 1 4.71289 14.1534 7.86062 -8.95351
453 1 6.288 12.578 6.28857 -8.95124
454 1 7.83364 14.1782 7.83536 -8.85518
455 1 9.42662 12.5904 6.2844 -8.92328
456 1 11.0165 14.158 7.84902 -8.91264
457 1 12.6047 12.6021 6.2659 -8.87363
458 1 14.154 14.153 7.86282 -8.94947
459 1 15.7278 12.5802 6.2887 -8.95463
460 1 17.2971 14.152 7.86214 -8.94954
461 1 18.8694 12.5794 6.28963 -8.95037
462 1 20.4415 14.1518 7.86209 -8.94974
463 1 -6.63271e-05 15.7242 6.28966 -8.94971
464 1 1.57237 17.2967 7.8621 -8.94962
465 1 3.14414 15.7246 6.28934 -8.94983
466 1 4.7169 17.297 7.86198 -8.9494
467 1 6.2849 15.729 6.28482 -8.93473
468 1 7.86123 17.3003 7.86124 -8.9555
469 1 9.43515 15.7269 6.28822 -8.95055
470 1 11.0074 17.2981 7.86164 -8.95009
471 1 12.5813 15.7282 6.28785 -8.95206
472 1 14.152 17.2969 7.86224 -8.94962
473 1 15.7245 15.7244 6.28969 -8.95013
474 1 17.2967 17.2967 7.8621 -8.94959
475 1 18.8691 15.7242 6.28968 -8.9496
476 1 20.4415 17.2966 7.86211 -8.94963
477 1 22.0139 18.8691 6.28969 -8.94964
478 1 1.57242 20.4415 7.86211 -8.94965
479 1 3.14481 18.8691 6.28968 -8.94972
480 1 4.71722 20.4415 7.86209 -8.94956
481 1 6.2894 18.8697 6.28939 -8.95019
482 1 7.86205 20.4418 7.86204 -8.95047
483 1 9.43464 18.8695 6.28949 -8.94959
484 1 11.007 20.4417 7.86205 -8.94979
485 1 12.5795 18.8695 6.28954 -8.95042
486 1 14.1518 20.4415 7.86211 -8.94961
487 1 15.7242 18.8691 6.2897 -8.94966
488 1 17.2966 20.4415 7.86211 -8.94963
489 1 18.8691 18.8691 6.28969 -8.94963
490 1 20.4415 20.4415 7.86211 -8.94963
491 1 22.0137 12.5794 9.43449 -8.94998
492 1 3.1428 12.5796 9.43411 -8.95117
493 1 6.27728 12.5865 9.43112 -9.00274
494 1 9.35066 12.7964 9.42451 -8.1134
495 1 12.574 12.581 9.4304 -8.93946
496 1 15.7253 12.5803 9.43434 -8.94469
497 1 18.8693 12.5795 9.4345 -8.94939
498 1 22.0139 15.7242 9.43453 -8.94968
499 1 3.14431 15.7245 9.43456 -8.94953
512 1 1.57143 11.007 11.0071 -8.95141
514 1 7.81735 11.007 10.9798 -9.15594
519 1 1.57202 14.1519 11.007 -8.95034
532 1 20.4415 17.2966 11.007 -8.94963
527 1 4.71689 17.297 11.0071 -8.94933
531 1 17.2967 17.2967 11.007 -8.94958
530 1 14.152 17.2969 11.0068 -8.94965
373 1 12.5794 15.7242 -3.44333e-05 -8.94962
377 1 18.8691 15.7242 -8.89578e-07 -8.94966
379 1 22.0139 18.8691 -3.58133e-07 -8.94963
687 2 9.43786 11.007 11.7738 0.723622
513 1 4.70924 11.007 11.0075 -8.95975
686 1 20.4415 20.4415 20.4415 -8.94963
515 1 11.1601 11.007 11.1863 -8.35759
516 1 14.1625 11.007 11.01 -8.98331
517 1 17.2983 11.007 11.0068 -8.95203
518 1 20.4416 11.007 11.0069 -8.95018
685 1 18.8691 18.8691 18.8691 -8.9496
520 1 4.71346 14.1527 11.0081 -8.95521
521 1 7.83447 14.1769 11.0295 -8.91568
522 1 11.0167 14.1574 11.0161 -8.97029
523 1 14.1539 14.1528 11.0057 -8.95143
524 1 17.2971 14.152 11.0069 -8.94945
525 1 20.4415 14.1518 11.007 -8.94971
684 1 17.2966 20.4415 20.4415 -8.94964
683 1 15.7242 18.8691 18.8691 -8.94964
528 1 7.8609 17.3005 11.0074 -8.95387
529 1 11.0077 17.2984 11.0069 -8.94855
391 1 18.8691 18.8691 22.0139 -8.94961
682 1 14.1518 20.4415 20.4415 -8.94964
681 1 12.5794 18.8691 18.8691 -8.94967
533 1 1.57242 20.4415 11.007 -8.94964
680 1 11.007 20.4415 20.4415 -8.94963
535 1 7.86201 20.4419 11.007 -8.95041
536 1 11.0071 20.4417 11.007 -8.94975
537 1 14.1518 20.4415 11.0069 -8.94964
679 1 9.43453 18.8691 18.8691 -8.94964
539 1 20.4415 20.4415 11.007 -8.94964
540 1 1.57228 11.007 14.1518 -8.94969
541 1 4.71626 11.007 14.1523 -8.94968
542 1 7.85826 11.007 14.1568 -8.98264
543 1 11.0141 11.007 14.1702 -9.02944
544 1 14.1559 11.007 14.1555 -8.94761
545 1 17.2973 11.007 14.1521 -8.94948
546 1 20.4415 11.007 14.1518 -8.9497
547 1 22.0138 12.5794 12.5794 -8.94974
548 1 1.57228 14.1519 14.1519 -8.94956
549 1 3.1439 12.5797 12.58 -8.94825
550 1 4.71645 14.152 14.1522 -8.9507
551 1 6.28714 12.5795 12.5821 -9.00126
552 1 7.85694 14.1555 14.1583 -8.98475
553 1 9.4288 12.634 12.6036 -9.19071
554 1 11.0098 14.1554 14.1572 -8.98145
555 1 12.6089 12.6082 12.6097 -8.89986
556 1 14.1573 14.1571 14.1569 -8.93422
557 1 15.7285 12.5805 12.5806 -8.95501
558 1 17.2974 14.1521 14.1521 -8.95018
559 1 18.8695 12.5794 12.5794 -8.95048
560 1 20.4415 14.1518 14.1518 -8.94975
561 1 22.0138 15.7242 12.5794 -8.94973
562 1 1.57234 17.2967 14.1518 -8.94963
563 1 3.14421 15.7245 12.5796 -8.95002
564 1 4.71668 17.2972 14.1524 -8.94777
565 1 6.28532 15.7288 12.5837 -8.93671
566 1 7.86174 17.2975 14.1524 -8.94932
567 1 9.43514 15.7335 12.5806 -8.96294
568 1 11.0074 17.2977 14.1525 -8.94839
569 1 12.581 15.7285 12.5809 -8.95445
570 1 14.1522 17.2974 14.1521 -8.95007
571 1 15.7245 15.7245 12.5793 -8.9502
572 1 17.2967 17.2967 14.1518 -8.94981
573 1 18.8691 15.7242 12.5794 -8.9496
574 1 20.4415 17.2966 14.1518 -8.94965
575 1 -2.39386e-06 18.8691 12.5794 -8.94963
576 1 1.57242 20.4415 14.1518 -8.94966
577 1 3.14481 18.8691 12.5794 -8.94971
578 1 4.71722 20.4416 14.1518 -8.94964
579 1 6.28941 18.8697 12.5796 -8.9501
580 1 7.86208 20.4416 14.1519 -8.94966
581 1 9.43464 18.8702 12.5795 -8.95154
582 1 11.007 20.4416 14.1519 -8.94967
583 1 12.5795 18.8696 12.5795 -8.95044
584 1 14.1518 20.4415 14.1518 -8.94974
585 1 15.7242 18.8691 12.5794 -8.94965
586 1 17.2966 20.4415 14.1518 -8.94964
587 1 18.8691 18.8691 12.5794 -8.94963
588 1 20.4415 20.4415 14.1518 -8.94963
589 1 1.5724 11.007 17.2967 -8.94961
590 1 4.71711 11.007 17.2968 -8.94928
591 1 7.86191 11.007 17.2976 -8.95061
592 1 11.0069 11.007 17.2995 -8.95384
593 1 14.1522 11.007 17.2974 -8.94913
594 1 17.2967 11.007 17.2967 -8.94966
595 1 20.4415 11.007 17.2966 -8.94964
596 1 22.0139 12.5794 15.7242 -8.94967
597 1 1.5724 14.1518 17.2967 -8.94964
598 1 3.14465 12.5794 15.7244 -8.9498
599 1 4.71712 14.1519 17.2968 -8.94934
600 1 6.28858 12.5796 15.7255 -8.94847
601 1 7.86206 14.1518 17.2973 -8.95131
602 1 9.43372 12.5789 15.725 -8.99784
603 1 11.0067 14.1518 17.2972 -8.95072
604 1 12.5816 12.5811 15.7295 -8.95289
605 1 14.1522 14.1523 17.2975 -8.94967
606 1 15.7248 12.5795 15.7247 -8.94951
607 1 17.2967 14.1518 17.2967 -8.94972
608 1 18.8691 12.5794 15.7243 -8.94962
609 1 20.4415 14.1518 17.2966 -8.94964
610 1 -5.36203e-06 15.7242 15.7242 -8.94963
611 1 1.57241 17.2966 17.2966 -8.94965
612 1 3.14475 15.7243 15.7243 -8.94977
613 1 4.71717 17.2967 17.2968 -8.9494
614 1 6.28888 15.725 15.7253 -8.94858
615 1 7.86215 17.2966 17.2967 -8.94971
616 1 9.43447 15.7244 15.7244 -8.9493
617 1 11.0069 17.2966 17.2967 -8.94978
618 1 12.5798 15.7249 15.7249 -8.94886
619 1 14.1518 17.2967 17.2967 -8.94961
620 1 15.7249 15.7249 15.7249 -8.94728
621 1 17.2967 17.2967 17.2967 -8.94935
622 1 18.8692 15.7243 15.7243 -8.94962
623 1 20.4415 17.2966 17.2966 -8.94962
624 1 22.0139 18.8691 15.7242 -8.94963
625 1 1.57242 20.4415 17.2966 -8.94961
626 1 3.14479 18.8691 15.7243 -8.94941
627 1 4.71726 20.4415 17.2966 -8.94965
628 1 6.28963 18.8692 15.7243 -8.94971
629 1 7.86211 20.4415 17.2966 -8.94963
630 1 9.43452 18.8691 15.7243 -8.94948
631 1 11.0069 20.4415 17.2966 -8.94963
632 1 12.5794 18.8692 15.7243 -8.94951
633 1 14.1518 20.4415 17.2966 -8.94962
634 1 15.7243 18.8691 15.7243 -8.94962
635 1 17.2966 20.4415 17.2966 -8.94962
636 1 18.8691 18.8691 15.7242 -8.94966
637 1 20.4415 20.4415 17.2966 -8.94964
638 1 1.57242 11.007 20.4415 -8.94964
639 1 4.71725 11.007 20.4415 -8.94962
640 1 7.86211 11.007 20.4416 -8.94983
641 1 11.0069 11.007 20.4416 -8.95054
642 1 14.1518 11.007 20.4415 -8.94969
643 1 17.2966 11.007 20.4415 -8.94964
644 1 20.4415 11.007 20.4415 -8.94963
645 1 -8.30911e-07 12.5794 18.8691 -8.94963
646 1 1.57242 14.1518 20.4415 -8.94964
647 1 3.14483 12.5794 18.8691 -8.94965
648 1 4.71725 14.1518 20.4415 -8.94963
649 1 6.2896 12.5794 18.8693 -8.94979
650 1 7.86209 14.1518 20.4415 -8.94979
651 1 9.43442 12.5795 18.8693 -8.9491
652 1 11.0069 14.1518 20.4415 -8.94972
653 1 12.5795 12.5795 18.8697 -8.9506
654 1 14.1519 14.1519 20.4415 -8.94981
655 1 15.7243 12.5794 18.8691 -8.94961
656 1 17.2966 14.1518 20.4415 -8.94964
657 1 18.8691 12.5794 18.8691 -8.94964
658 1 20.4415 14.1518 20.4415 -8.94963
659 1 22.0139 15.7242 18.8691 -8.94963
660 1 1.57242 17.2966 20.4415 -8.94963
661 1 3.14483 15.7242 18.8691 -8.9496
662 1 4.71726 17.2966 20.4415 -8.94966
663 1 6.28967 15.7242 18.8691 -8.94986
664 1 7.86211 17.2966 20.4415 -8.94962
665 1 9.43452 15.7243 18.8691 -8.94949
666 1 11.007 17.2966 20.4415 -8.94963
667 1 12.5793 15.7242 18.8691 -8.94978
668 1 14.1518 17.2966 20.4415 -8.94966
669 1 15.7243 15.7243 18.8692 -8.94957
670 1 17.2966 17.2966 20.4415 -8.9496
671 1 18.8691 15.7242 18.8691 -8.94966
672 1 20.4415 17.2966 20.4415 -8.94964
673 1 2.5461e-07 18.8691 18.8691 -8.94963
674 1 1.57242 20.4415 20.4415 -8.94963
675 1 3.14483 18.8691 18.8691 -8.9496
676 1 4.71727 20.4415 20.4415 -8.94964
677 1 6.28969 18.8691 18.8691 -8.94967
678 1 7.86211 20.4415 20.4415 -8.94963
353 1 3.14484 12.5794 22.0139 -8.94962
357 1 9.43445 12.5794 22.0137 -8.94972
359 1 12.5794 12.5794 22.0136 -8.95043
365 1 -2.72042e-07 15.7242 22.0139 -8.94963
369 1 6.28965 15.7242 22.0138 -8.94973
389 1 15.7242 18.8691 22.0139 -8.94967
375 1 15.7243 15.7243 22.0138 -8.94962
385 1 9.43453 18.8691 22.0139 -8.94964
381 1 3.14484 18.8691 22.0139 -8.94962
363 1 18.8691 12.5794 22.0139 -8.94964
387 1 12.5794 18.8691 22.0139 -8.94963
526 1 1.57236 17.2967 11.007 -8.94957
