ITEM: TIMESTEP
56
ITEM: NUMBER OF ATOMS
688
ITEM: BOX BOUNDS pp pp pp
0.0000000000000000e+00 2.2013900999999997e+01
0.0000000000000000e+00 2.2013900999999997e+01
0.0000000000000000e+00 2.2013900999999997e+01
ITEM: ATOMS id type x y z c_pot
190 1 1.57213 7.86206 11.007 -8.95022
2 1 1.57242 1.57242 1.57242 -8.94961
175 1 18.8693 9.43442 9.43451 -8.94947
4 1 4.71727 1.57242 1.57242 -8.94966
174 1 15.7252 9.43365 9.43434 -8.94512
6 1 7.86211 1.57242 1.57242 -8.94963
7 1 9.43453 1.21458e-15 -3.4626e-08 -8.94963
8 1 11.007 1.57242 1.57242 -8.94964
173 1 12.5752 9.43252 9.43109 -8.94062
10 1 14.1518 1.57242 1.57242 -8.94964
172 1 9.35177 9.22416 9.42457 -8.10868
12 1 17.2966 1.57242 1.57242 -8.94962
189 1 20.4415 4.71726 11.007 -8.94963
14 1 20.4415 1.57242 1.57242 -8.94963
171 1 6.27809 9.42823 9.43154 -9.00241
16 1 1.57242 4.71726 1.57242 -8.94965
170 1 3.14314 9.43429 9.43418 -8.95113
18 1 4.71723 4.71723 1.57236 -8.94959
19 1 6.28969 3.14484 -3.77521e-08 -8.94963
20 1 7.86211 4.71724 1.5724 -8.9496
169 1 22.0138 9.43451 9.4345 -8.94994
22 1 11.007 4.71724 1.57239 -8.94964
188 1 17.2967 4.71724 11.007 -8.9496
24 1 14.1518 4.71726 1.57241 -8.94977
168 1 18.8691 6.28965 9.43453 -8.94961
26 1 17.2967 4.71723 1.57239 -8.94945
167 1 15.7245 6.28932 9.43452 -8.94867
28 1 20.4415 4.71726 1.57242 -8.94963
166 1 12.5792 6.28915 9.43435 -8.95006
30 1 1.57242 7.86211 1.57242 -8.94963
31 1 3.14484 6.28969 2.33977e-06 -8.94964
32 1 4.71725 7.86212 1.57241 -8.94966
165 1 9.43297 6.28418 9.43433 -8.99394
34 1 7.86199 7.86199 1.57205 -8.95026
35 1 9.43453 6.28966 -3.37864e-05 -8.94962
36 1 11.0069 7.86198 1.57212 -8.94964
164 1 6.28718 6.28677 9.4344 -8.94787
38 1 14.152 7.86189 1.57197 -8.94997
163 1 3.14446 6.28948 9.43455 -8.94957
40 1 17.2966 7.86211 1.57241 -8.94972
162 1 22.0139 6.28967 9.43453 -8.94967
42 1 20.4415 7.86211 1.57242 -8.94963
43 1 22.0139 9.43453 -3.63805e-08 -8.94963
161 1 18.8691 3.14484 9.43453 -8.94965
45 1 6.28967 9.43453 -5.75304e-06 -8.94967
160 1 15.7243 3.14479 9.43453 -8.94963
159 1 12.5795 3.14466 9.43449 -8.9493
48 1 15.7242 9.43453 -2.48553e-05 -8.94959
184 1 4.71701 4.71704 11.007 -8.9495
50 1 1.02239e-07 1.92292e-15 3.14484 -8.94964
51 1 1.57242 1.57242 4.71727 -8.94965
52 1 3.14484 1.69345e-15 3.14484 -8.94962
53 1 4.71723 1.57237 4.71723 -8.94962
54 1 6.28969 3.93516e-16 3.14484 -8.94964
55 1 7.86211 1.5724 4.71725 -8.94961
56 1 9.43453 3.13825e-16 3.14484 -8.94964
57 1 11.007 1.57239 4.71724 -8.94961
58 1 12.5794 -7.86841e-16 3.14484 -8.94963
59 1 14.1518 1.57237 4.71724 -8.94969
60 1 15.7242 6.16336e-16 3.14484 -8.94964
61 1 17.2966 1.57242 4.71727 -8.94964
62 1 18.8691 2.08531e-15 3.14484 -8.94964
63 1 20.4415 1.57242 4.71726 -8.94963
64 1 22.0139 3.14484 3.14484 -8.94962
65 1 1.57236 4.71723 4.71723 -8.9496
66 1 3.1448 3.14481 3.1448 -8.94943
67 1 4.71682 4.71682 4.71681 -8.9478
68 1 6.28969 3.14483 3.14484 -8.94977
69 1 7.86214 4.71709 4.71712 -8.94999
70 1 9.43452 3.14481 3.14482 -8.94966
71 1 11.007 4.71698 4.71701 -8.94913
72 1 12.5794 3.14482 3.14482 -8.9496
73 1 14.1521 4.71674 4.717 -8.94966
74 1 15.7242 3.14479 3.14481 -8.94959
75 1 17.2967 4.71725 4.71726 -8.94975
76 1 18.8691 3.14484 3.14484 -8.94965
77 1 20.4415 4.71726 4.71726 -8.94964
78 1 22.0139 6.28969 3.14484 -8.94964
79 1 1.5724 7.86211 4.71725 -8.94965
80 1 3.14483 6.28969 3.14483 -8.94978
81 1 4.7171 7.86215 4.71712 -8.95037
82 1 6.28942 6.28943 3.1443 -8.94978
83 1 7.86071 7.86076 4.7138 -8.95325
84 1 9.43452 6.28943 3.14454 -8.94917
85 1 11.0065 7.86117 4.71512 -8.95133
86 1 12.5793 6.28955 3.14466 -8.95
87 1 14.1553 7.85851 4.71373 -8.93798
88 1 15.7246 6.28927 3.14443 -8.94799
89 1 17.2971 7.86191 4.71706 -8.94996
90 1 18.8691 6.28966 3.14481 -8.94962
91 1 20.4415 7.8621 4.71725 -8.94971
92 1 -3.88559e-08 9.43453 3.14484 -8.94963
93 1 3.14482 9.43452 3.14482 -8.94959
94 1 6.28955 9.43467 3.14467 -8.94974
95 1 9.43402 9.43408 3.14358 -8.94936
96 1 12.5802 9.43378 3.14194 -8.95398
97 1 15.7244 9.43447 3.14464 -8.94957
98 1 18.8691 9.43453 3.14482 -8.9496
99 1 22.0139 1.64461e-15 6.28969 -8.94963
100 1 1.57242 1.57242 7.86211 -8.94964
101 1 3.14484 7.28798e-16 6.28969 -8.94963
102 1 4.71724 1.57239 7.8621 -8.94958
103 1 6.28966 9.90294e-16 6.28966 -8.94978
104 1 7.86206 1.57214 7.86206 -8.95032
105 1 9.43454 -4.62548e-17 6.28967 -8.94969
106 1 11.007 1.57226 7.86205 -8.94977
107 1 12.5794 1.29827e-15 6.28967 -8.94975
108 1 14.1518 1.5724 7.86211 -8.94962
109 1 15.7242 2.02272e-15 6.28969 -8.94963
110 1 17.2966 1.57242 7.86211 -8.94963
111 1 18.8691 1.71488e-15 6.28969 -8.94963
112 1 20.4415 1.57242 7.86211 -8.94963
113 1 22.0139 3.14484 6.28969 -8.94964
114 1 1.57239 4.71724 7.86211 -8.94962
115 1 3.14483 3.14483 6.28968 -8.94972
116 1 4.71702 4.71699 7.86202 -8.94954
117 1 6.28946 3.14436 6.28946 -8.95005
118 1 7.86133 4.71417 7.86132 -8.95479
119 1 9.43461 3.14453 6.28955 -8.94958
120 1 11.0074 4.71598 7.86164 -8.94985
121 1 12.5795 3.14448 6.28957 -8.95025
122 1 14.1519 4.71706 7.86221 -8.94967
123 1 15.7242 3.14483 6.28969 -8.94966
124 1 17.2967 4.71724 7.8621 -8.94961
125 1 18.8691 3.14484 6.28969 -8.94963
126 1 20.4415 4.71726 7.86211 -8.94964
127 1 -4.41518e-05 6.28967 6.28967 -8.94969
128 1 1.57206 7.86202 7.86202 -8.95023
129 1 3.14432 6.28944 6.28944 -8.94979
130 1 4.71367 7.86084 7.8609 -8.95313
131 1 6.28576 6.28579 6.28569 -8.93614
132 1 7.83619 7.83793 7.83757 -8.85845
133 1 9.4351 6.28753 6.28854 -8.95072
134 1 11.0156 7.85643 7.85052 -8.91483
135 1 12.5809 6.28636 6.2882 -8.9519
136 1 14.1537 7.86104 7.86269 -8.94938
137 1 15.7244 6.28953 6.28968 -8.95008
138 1 17.297 7.86192 7.86212 -8.94953
139 1 18.8691 6.28966 6.28968 -8.94961
140 1 20.4415 7.86208 7.8621 -8.94971
141 1 22.0139 9.43453 6.28967 -8.9497
142 1 3.14459 9.43463 6.28954 -8.94968
143 1 6.28822 9.43565 6.28871 -8.95096
144 1 9.42729 9.42474 6.28473 -8.9246
145 1 12.6026 9.41338 6.26785 -8.87407
146 1 15.7272 9.43379 6.28887 -8.95415
147 1 18.8693 9.4345 6.28964 -8.95025
148 1 -3.49193e-08 1.58968e-15 9.43453 -8.94963
149 1 3.14484 1.86424e-15 9.43453 -8.94964
150 1 6.28965 4.8043e-16 9.43452 -8.9497
151 1 9.43455 1.40333e-15 9.43453 -8.95007
152 1 12.5794 1.7946e-15 9.43452 -8.94963
153 1 15.7242 1.9889e-15 9.43453 -8.94965
154 1 18.8691 1.23168e-15 9.43453 -8.94963
155 1 -9.69599e-07 3.14484 9.43453 -8.94963
156 1 3.14482 3.14483 9.43453 -8.94971
157 1 6.28944 3.14436 9.43449 -8.94935
158 1 9.43462 3.14369 9.43454 -8.95052
177 1 4.71724 1.57239 11.007 -8.94959
181 1 17.2966 1.57242 11.007 -8.94963
187 1 14.152 4.71707 11.0068 -8.94971
3 1 3.14484 1.71801e-15 1.94216e-08 -8.94964
11 1 15.7242 5.16285e-16 1.37065e-07 -8.94964
15 1 22.0139 3.14484 -1.48523e-07 -8.94963
41 1 18.8691 6.28969 -3.32765e-08 -8.94965
37 1 12.5794 6.28967 -1.95793e-05 -8.94962
176 1 1.57242 1.57242 11.007 -8.94964
343 1 18.8691 9.43453 18.8691 -8.94964
178 1 7.86203 1.5721 11.007 -8.95028
179 1 11.007 1.57222 11.007 -8.94974
180 1 14.1518 1.5724 11.0069 -8.94965
342 1 15.7242 9.43452 18.8691 -8.94962
182 1 20.4415 1.57242 11.007 -8.94963
341 1 12.5795 9.43441 18.8695 -8.95043
340 1 9.43445 9.43442 18.8692 -8.94916
185 1 7.86104 4.71396 11.0073 -8.9533
186 1 11.0077 4.71569 11.007 -8.94845
47 1 12.5794 9.43447 22.0136 -8.95029
339 1 6.28962 9.4345 18.8692 -8.94978
338 1 3.14484 9.43453 18.8691 -8.94965
337 1 -2.71494e-07 9.43453 18.8691 -8.94963
191 1 4.71414 7.86136 11.0079 -8.95471
192 1 7.83695 7.83922 11.0277 -8.91902
193 1 11.0157 7.857 11.015 -8.97246
194 1 14.1536 7.8612 11.006 -8.9512
195 1 17.297 7.86193 11.0069 -8.94949
196 1 20.4415 7.86209 11.007 -8.94969
197 1 22.0139 1.08339e-15 12.5794 -8.94963
198 1 1.57242 1.57242 14.1518 -8.94965
199 1 3.14484 9.22375e-16 12.5794 -8.94963
200 1 4.71723 1.57237 14.1518 -8.94963
201 1 6.28966 1.85449e-15 12.5794 -8.94976
202 1 7.86209 1.57235 14.1518 -8.94966
203 1 9.43454 1.37026e-15 12.5794 -8.94999
204 1 11.007 1.57234 14.1518 -8.94966
205 1 12.5794 1.91962e-15 12.5794 -8.94973
206 1 14.1518 1.57238 14.1518 -8.94971
207 1 15.7242 1.74351e-15 12.5794 -8.94964
208 1 17.2966 1.57242 14.1518 -8.94964
209 1 18.8691 5.50828e-16 12.5794 -8.94963
210 1 20.4415 1.57242 14.1518 -8.94963
211 1 -7.78087e-07 3.14484 12.5794 -8.94963
212 1 1.57237 4.71723 14.1518 -8.94963
213 1 3.14483 3.14483 12.5794 -8.94971
214 1 4.71684 4.71685 14.1522 -8.94811
215 1 6.28948 3.14438 12.5796 -8.94998
216 1 7.86181 4.71663 14.1522 -8.94939
217 1 9.43461 3.14396 12.5795 -8.95137
218 1 11.0073 4.71649 14.1524 -8.94855
219 1 12.5795 3.14447 12.5795 -8.95026
220 1 14.1521 4.71673 14.152 -8.95
221 1 15.7242 3.14482 12.5794 -8.94965
222 1 17.2966 4.71725 14.1518 -8.94978
223 1 18.8691 3.14484 12.5794 -8.94963
224 1 20.4415 4.71726 14.1518 -8.94964
225 1 22.0139 6.28967 12.5794 -8.94971
226 1 1.57232 7.86206 14.1519 -8.94957
227 1 3.14438 6.28944 12.5796 -8.94995
228 1 4.71662 7.86194 14.1521 -8.95059
229 1 6.28611 6.28597 12.583 -8.93797
230 1 7.85748 7.85896 14.1575 -8.98459
231 1 9.43508 6.28145 12.5803 -8.96281
232 1 11.0096 7.85914 14.1565 -8.98189
233 1 12.5807 6.28615 12.5806 -8.95405
234 1 14.1563 7.8578 14.156 -8.93579
235 1 15.7244 6.28951 12.5793 -8.95014
236 1 17.2972 7.86186 14.152 -8.95005
237 1 18.8691 6.28967 12.5794 -8.94961
238 1 20.4415 7.86209 14.1518 -8.94972
239 1 22.0138 9.4345 12.5794 -8.94972
240 1 3.14409 9.43424 12.5798 -8.94837
241 1 6.28748 9.43432 12.5819 -9.00139
242 1 9.42916 9.38141 12.6035 -9.19282
243 1 12.6062 9.40825 12.6069 -8.90403
244 1 15.7277 9.43354 12.5804 -8.95433
245 1 18.8694 9.43447 12.5794 -8.95033
246 1 8.793e-08 5.65484e-16 15.7242 -8.94964
247 1 1.57242 1.57242 17.2966 -8.94962
248 1 3.14484 1.97953e-18 15.7242 -8.94962
249 1 4.71726 1.57242 17.2966 -8.94964
250 1 6.28968 1.35003e-15 15.7242 -8.94964
251 1 7.86211 1.57243 17.2966 -8.94963
252 1 9.43453 1.97312e-15 15.7242 -8.94961
253 1 11.0069 1.57243 17.2966 -8.94964
254 1 12.5794 1.78495e-15 15.7242 -8.94964
255 1 14.1518 1.57242 17.2966 -8.94962
256 1 15.7242 1.66999e-15 15.7242 -8.94964
257 1 17.2966 1.57242 17.2966 -8.94963
258 1 18.8691 7.86857e-16 15.7242 -8.94963
259 1 20.4415 1.57242 17.2966 -8.94963
260 1 22.0139 3.14484 15.7242 -8.94963
261 1 1.57242 4.71726 17.2966 -8.94965
262 1 3.14481 3.14481 15.7243 -8.94947
263 1 4.7172 4.71719 17.2967 -8.94945
264 1 6.28965 3.14477 15.7243 -8.9497
265 1 7.86215 4.71729 17.2966 -8.94973
266 1 9.43452 3.14484 15.7242 -8.94951
267 1 11.0069 4.71729 17.2967 -8.94978
268 1 12.5794 3.14475 15.7243 -8.94953
269 1 14.1518 4.71721 17.2967 -8.94963
270 1 15.7242 3.14478 15.7242 -8.94963
271 1 17.2967 4.71722 17.2967 -8.94942
272 1 18.8691 3.14484 15.7242 -8.94966
273 1 20.4415 4.71726 17.2966 -8.94962
274 1 -3.19549e-06 6.28968 15.7242 -8.94963
275 1 1.57241 7.8621 17.2966 -8.94964
276 1 3.14478 6.28966 15.7243 -8.94974
277 1 4.71716 7.86201 17.2968 -8.94936
278 1 6.28907 6.28907 15.7251 -8.94865
279 1 7.86209 7.8621 17.2971 -8.95109
280 1 9.4345 6.28967 15.7243 -8.94954
281 1 11.0067 7.8621 17.297 -8.95063
282 1 12.5797 6.28915 15.7247 -8.949
283 1 14.1521 7.86174 17.2973 -8.94959
284 1 15.7247 6.28919 15.7247 -8.94772
285 1 17.2967 7.86209 17.2967 -8.94972
286 1 18.8691 6.28965 15.7242 -8.94962
287 1 20.4415 7.86211 17.2966 -8.94964
288 1 22.0139 9.43453 15.7242 -8.94967
289 1 3.14469 9.4345 15.7243 -8.9498
290 1 6.28871 9.43425 15.7254 -8.94847
291 1 9.43378 9.43506 15.7249 -8.99792
292 1 12.5813 9.43302 15.7287 -8.95228
293 1 15.7246 9.43441 15.7245 -8.94965
294 1 18.8691 9.43452 15.7242 -8.94963
295 1 22.0139 6.6767e-17 18.8691 -8.94963
296 1 1.57242 1.57242 20.4415 -8.94963
297 1 3.14484 -1.5124e-16 18.8691 -8.94963
298 1 4.71727 1.57242 20.4415 -8.94964
299 1 6.28969 1.16678e-15 18.8691 -8.94963
300 1 7.86211 1.57242 20.4415 -8.94963
301 1 9.43453 1.92392e-15 18.8691 -8.94964
302 1 11.007 1.57242 20.4415 -8.94963
303 1 12.5794 1.67238e-15 18.8691 -8.94964
304 1 14.1518 1.57242 20.4415 -8.94964
305 1 15.7242 1.58558e-15 18.8691 -8.94963
306 1 17.2966 1.57242 20.4415 -8.94964
307 1 18.8691 1.5795e-15 18.8691 -8.94963
308 1 20.4415 1.57242 20.4415 -8.94963
309 1 2.13875e-07 3.14484 18.8691 -8.94963
310 1 1.57242 4.71726 20.4415 -8.94963
311 1 3.14484 3.14484 18.8691 -8.94961
312 1 4.71726 4.71726 20.4415 -8.94965
313 1 6.28969 3.14485 18.8691 -8.94966
314 1 7.86211 4.71726 20.4415 -8.94962
315 1 9.43453 3.14484 18.8691 -8.94964
316 1 11.007 4.71726 20.4415 -8.94963
317 1 12.5794 3.14485 18.8691 -8.94966
318 1 14.1518 4.71727 20.4415 -8.94966
319 1 15.7242 3.14484 18.8691 -8.94964
320 1 17.2966 4.71726 20.4415 -8.94961
321 1 18.8691 3.14484 18.8691 -8.94961
322 1 20.4415 4.71726 20.4415 -8.94964
323 1 22.0139 6.28969 18.8691 -8.94963
324 1 1.57242 7.86211 20.4415 -8.94964
325 1 3.14483 6.28968 18.8691 -8.9496
326 1 4.71725 7.8621 20.4415 -8.94963
327 1 6.28968 6.28968 18.8691 -8.94982
328 1 7.86209 7.86209 20.4415 -8.94975
329 1 9.43452 6.28965 18.8691 -8.94951
330 1 11.0069 7.86209 20.4415 -8.94969
331 1 12.5793 6.28968 18.8691 -8.94976
332 1 14.1518 7.86207 20.4415 -8.94976
333 1 15.7243 6.28964 18.8691 -8.94957
334 1 17.2966 7.86211 20.4415 -8.94964
335 1 18.8691 6.28969 18.8691 -8.94965
336 1 20.4415 7.86211 20.4415 -8.94963
46 1 9.43447 9.43447 22.0137 -8.94971
5 1 6.28969 7.43366e-16 22.0139 -8.94963
9 1 12.5794 7.41064e-16 22.0139 -8.94963
44 1 3.14484 9.43453 22.0139 -8.94963
39 1 15.7242 6.28965 22.0139 -8.94962
17 1 3.14484 3.14484 22.0139 -8.94962
21 1 9.43453 3.14484 22.0139 -8.94964
25 1 15.7242 3.14484 22.0139 -8.94966
27 1 18.8691 3.14484 22.0139 -8.94962
29 1 -1.74386e-07 6.28969 22.0139 -8.94963
33 1 6.28966 6.28966 22.0139 -8.9497
1 1 -2.73459e-07 1.54628e-15 22.0139 -8.94963
13 1 18.8691 1.61747e-15 22.0139 -8.94963
23 1 12.5794 3.14484 22.0139 -8.94963
49 1 18.8691 9.43453 22.0139 -8.94964
183 1 1.57239 4.71724 11.007 -8.94959
344 1 1.57242 11.007 1.57242 -8.94965
345 1 4.71723 11.007 1.57237 -8.94961
346 1 7.86204 11.007 1.57233 -8.94933
347 1 11.0069 11.007 1.5712 -8.95097
348 1 14.152 11.007 1.57204 -8.94937
349 1 17.2967 11.007 1.57241 -8.94969
350 1 20.4415 11.007 1.57242 -8.94964
351 1 22.0139 12.5794 -3.63805e-08 -8.94963
352 1 1.57242 14.1518 1.57242 -8.94963
688 3 10.2059 11.007 9.44915 2.43301
354 1 4.71725 14.1518 1.57241 -8.94966
355 1 6.28967 12.5794 -5.75304e-06 -8.94967
356 1 7.86199 14.1519 1.57205 -8.95026
511 1 18.8691 18.8691 9.43453 -8.94965
358 1 11.0069 14.1519 1.57212 -8.94964
510 1 15.7243 18.8691 9.43453 -8.94963
360 1 14.152 14.152 1.57197 -8.94997
361 1 15.7242 12.5794 -2.48553e-05 -8.94959
362 1 17.2966 14.1518 1.57241 -8.94972
538 1 17.2966 20.4415 11.007 -8.94963
364 1 20.4415 14.1518 1.57242 -8.94963
509 1 12.5795 18.8692 9.43449 -8.9493
366 1 1.57242 17.2966 1.57242 -8.94965
367 1 3.14484 15.7242 2.33977e-06 -8.94964
368 1 4.71723 17.2967 1.57236 -8.94959
508 1 9.43462 18.8702 9.43454 -8.95052
370 1 7.86211 17.2967 1.5724 -8.9496
371 1 9.43453 15.7242 -3.37864e-05 -8.94962
372 1 11.007 17.2967 1.57239 -8.94964
507 1 6.28944 18.8695 9.43449 -8.94935
374 1 14.1518 17.2966 1.57241 -8.94977
506 1 3.14482 18.8691 9.43453 -8.94971
376 1 17.2967 17.2967 1.57239 -8.94945
505 1 -9.69599e-07 18.8691 9.43453 -8.94963
378 1 20.4415 17.2966 1.57242 -8.94963
504 1 18.8691 15.7242 9.43453 -8.94961
380 1 1.57242 20.4415 1.57242 -8.94961
503 1 15.7245 15.7246 9.43452 -8.94867
382 1 4.71727 20.4415 1.57242 -8.94966
383 1 6.28969 18.8691 -3.77521e-08 -8.94963
384 1 7.86211 20.4415 1.57242 -8.94963
502 1 12.5792 15.7248 9.43435 -8.95006
386 1 11.007 20.4415 1.57242 -8.94964
534 1 4.71724 20.4415 11.007 -8.94959
388 1 14.1518 20.4415 1.57242 -8.94964
501 1 9.43297 15.7297 9.43433 -8.99394
390 1 17.2966 20.4415 1.57242 -8.94962
500 1 6.28718 15.7271 9.4344 -8.94787
392 1 20.4415 20.4415 1.57242 -8.94963
393 1 1.57238 11.007 4.71723 -8.9496
394 1 4.71697 11.007 4.71693 -8.9484
395 1 7.86245 11.007 4.71722 -8.94919
396 1 11.0084 11.007 4.71052 -8.9892
397 1 14.154 11.007 4.71498 -8.94715
398 1 17.297 11.007 4.71708 -8.94936
399 1 20.4415 11.007 4.71725 -8.94966
400 1 -3.88559e-08 12.5794 3.14484 -8.94963
401 1 1.5724 14.1518 4.71725 -8.94965
402 1 3.14482 12.5794 3.14482 -8.94959
403 1 4.7171 14.1517 4.71712 -8.95037
404 1 6.28955 12.5792 3.14467 -8.94974
405 1 7.86071 14.1531 4.7138 -8.95325
406 1 9.43402 12.5798 3.14358 -8.94936
407 1 11.0065 14.1527 4.71512 -8.95133
408 1 12.5802 12.5801 3.14194 -8.95398
409 1 14.1553 14.1554 4.71373 -8.93798
410 1 15.7244 12.5794 3.14464 -8.94957
411 1 17.2971 14.152 4.71706 -8.94996
412 1 18.8691 12.5794 3.14482 -8.9496
413 1 20.4415 14.1518 4.71725 -8.94971
414 1 22.0139 15.7242 3.14484 -8.94964
415 1 1.57236 17.2967 4.71723 -8.9496
416 1 3.14483 15.7242 3.14483 -8.94978
417 1 4.71682 17.2971 4.71681 -8.9478
418 1 6.28942 15.7245 3.1443 -8.94978
419 1 7.86214 17.2968 4.71712 -8.94999
420 1 9.43452 15.7245 3.14454 -8.94917
421 1 11.007 17.2969 4.71701 -8.94913
422 1 12.5793 15.7244 3.14466 -8.95
423 1 14.1521 17.2972 4.717 -8.94966
424 1 15.7246 15.7246 3.14443 -8.94799
425 1 17.2967 17.2966 4.71726 -8.94975
426 1 18.8691 15.7242 3.14481 -8.94962
427 1 20.4415 17.2966 4.71726 -8.94964
428 1 22.0139 18.8691 3.14484 -8.94962
429 1 1.57242 20.4415 4.71727 -8.94965
430 1 3.1448 18.8691 3.1448 -8.94943
431 1 4.71723 20.4415 4.71723 -8.94962
432 1 6.28969 18.8691 3.14484 -8.94977
433 1 7.86211 20.4415 4.71725 -8.94961
434 1 9.43452 18.8691 3.14482 -8.94966
435 1 11.007 20.4415 4.71724 -8.94961
436 1 12.5794 18.8691 3.14482 -8.9496
437 1 14.1518 20.4415 4.71724 -8.94969
438 1 15.7242 18.8691 3.14481 -8.94959
439 1 17.2966 20.4415 4.71727 -8.94964
440 1 18.8691 18.8691 3.14484 -8.94965
441 1 20.4415 20.4415 4.71726 -8.94963
442 1 1.57226 11.007 7.86201 -8.94926
443 1 4.71683 11.007 7.86165 -8.94538
444 1 7.86904 11.007 7.86408 -8.95476
445 1 11.0848 11.007 7.67328 -8.14766
446 1 14.1607 11.007 7.85999 -8.96979
447 1 17.2978 11.007 7.86222 -8.95154
448 1 20.4416 11.007 7.86211 -8.94985
449 1 22.0139 12.5794 6.28967 -8.9497
450 1 1.57206 14.1519 7.86202 -8.95023
451 1 3.14459 12.5793 6.28954 -8.94968
452 1 4.71367 14.1531 7.8609 -8.95313
453 1 6.28822 12.5782 6.28871 -8.95096
454 1 7.83619 14.176 7.83757 -8.85845
455 1 9.42729 12.5892 6.28473 -8.9246
456 1 11.0156 14.1575 7.85052 -8.91483
457 1 12.6026 12.6005 6.26785 -8.87407
458 1 14.1537 14.1529 7.86269 -8.94938
459 1 15.7272 12.5801 6.28887 -8.95415
460 1 17.297 14.152 7.86212 -8.94953
461 1 18.8693 12.5794 6.28964 -8.95025
462 1 20.4415 14.1518 7.8621 -8.94971
463 1 -4.41518e-05 15.7242 6.28967 -8.94969
464 1 1.57239 17.2967 7.86211 -8.94962
465 1 3.14432 15.7245 6.28944 -8.94979
466 1 4.71702 17.2969 7.86202 -8.94954
467 1 6.28576 15.7281 6.28569 -8.93614
468 1 7.86133 17.2997 7.86132 -8.95479
469 1 9.4351 15.7264 6.28854 -8.95072
470 1 11.0074 17.2979 7.86164 -8.94985
471 1 12.5809 15.7275 6.2882 -8.9519
472 1 14.1519 17.2968 7.86221 -8.94967
473 1 15.7244 15.7244 6.28968 -8.95008
474 1 17.2967 17.2967 7.8621 -8.94961
475 1 18.8691 15.7242 6.28968 -8.94961
476 1 20.4415 17.2966 7.86211 -8.94964
477 1 22.0139 18.8691 6.28969 -8.94964
478 1 1.57242 20.4415 7.86211 -8.94964
479 1 3.14483 18.8691 6.28968 -8.94972
480 1 4.71724 20.4415 7.8621 -8.94958
481 1 6.28946 18.8695 6.28946 -8.95005
482 1 7.86206 20.4418 7.86206 -8.95032
483 1 9.43461 18.8694 6.28955 -8.94958
484 1 11.007 20.4416 7.86205 -8.94977
485 1 12.5795 18.8694 6.28957 -8.95025
486 1 14.1518 20.4415 7.86211 -8.94962
487 1 15.7242 18.8691 6.28969 -8.94966
488 1 17.2966 20.4415 7.86211 -8.94963
489 1 18.8691 18.8691 6.28969 -8.94963
490 1 20.4415 20.4415 7.86211 -8.94963
491 1 22.0138 12.5794 9.4345 -8.94994
492 1 3.14314 12.5796 9.43418 -8.95113
493 1 6.27809 12.5857 9.43154 -9.00241
494 1 9.35177 12.7897 9.42457 -8.10868
495 1 12.5752 12.5814 9.43109 -8.94062
496 1 15.7252 12.5803 9.43434 -8.94512
497 1 18.8693 12.5795 9.43451 -8.94947
498 1 22.0139 15.7242 9.43453 -8.94967
499 1 3.14446 15.7244 9.43455 -8.94957
512 1 1.57161 11.007 11.007 -8.95132
514 1 7.81748 11.007 10.9813 -9.15861
519 1 1.57213 14.1518 11.007 -8.95022
532 1 20.4415 17.2966 11.007 -8.94963
527 1 4.71701 17.2969 11.007 -8.9495
531 1 17.2967 17.2967 11.007 -8.9496
530 1 14.152 17.2968 11.0068 -8.94971
373 1 12.5794 15.7242 -1.95793e-05 -8.94962
377 1 18.8691 15.7242 -3.32765e-08 -8.94965
379 1 22.0139 18.8691 -1.48523e-07 -8.94963
687 2 9.43721 11.007 11.7761 0.736522
513 1 4.70984 11.007 11.0075 -8.95964
686 1 20.4415 20.4415 20.4415 -8.94963
515 1 11.1555 11.007 11.182 -8.35186
516 1 14.1626 11.007 11.0096 -8.98171
517 1 17.2981 11.007 11.0068 -8.95214
518 1 20.4416 11.007 11.0069 -8.95013
685 1 18.8691 18.8691 18.8691 -8.94961
520 1 4.71414 14.1525 11.0079 -8.95471
521 1 7.83695 14.1747 11.0277 -8.91902
522 1 11.0157 14.1569 11.015 -8.97246
523 1 14.1536 14.1527 11.006 -8.9512
524 1 17.297 14.152 11.0069 -8.94949
525 1 20.4415 14.1518 11.007 -8.94969
684 1 17.2966 20.4415 20.4415 -8.94964
683 1 15.7242 18.8691 18.8691 -8.94964
528 1 7.86104 17.2999 11.0073 -8.9533
529 1 11.0077 17.2982 11.007 -8.94845
391 1 18.8691 18.8691 22.0139 -8.94962
682 1 14.1518 20.4415 20.4415 -8.94964
681 1 12.5794 18.8691 18.8691 -8.94966
533 1 1.57242 20.4415 11.007 -8.94964
680 1 11.007 20.4415 20.4415 -8.94963
535 1 7.86203 20.4418 11.007 -8.95028
536 1 11.007 20.4417 11.007 -8.94974
537 1 14.1518 20.4415 11.0069 -8.94965
679 1 9.43453 18.8691 18.8691 -8.94964
539 1 20.4415 20.4415 11.007 -8.94963
540 1 1.57232 11.007 14.1518 -8.94971
541 1 4.71642 11.007 14.1522 -8.9499
542 1 7.85819 11.007 14.157 -8.98308
543 1 11.0135 11.007 14.1701 -9.02782
544 1 14.1552 11.007 14.1548 -8.94835
545 1 17.2971 11.007 14.152 -8.94953
546 1 20.4415 11.007 14.1518 -8.94969
547 1 22.0138 12.5794 12.5794 -8.94972
548 1 1.57232 14.1518 14.1519 -8.94957
549 1 3.14409 12.5797 12.5798 -8.94837
550 1 4.71662 14.152 14.1521 -8.95059
551 1 6.28748 12.5796 12.5819 -9.00139
552 1 7.85748 14.1549 14.1575 -8.98459
553 1 9.42916 12.6325 12.6035 -9.19282
554 1 11.0096 14.1548 14.1565 -8.98189
555 1 12.6062 12.6056 12.6069 -8.90403
556 1 14.1563 14.1561 14.156 -8.93579
557 1 15.7277 12.5804 12.5804 -8.95433
558 1 17.2972 14.152 14.152 -8.95005
559 1 18.8694 12.5794 12.5794 -8.95033
560 1 20.4415 14.1518 14.1518 -8.94972
561 1 22.0139 15.7242 12.5794 -8.94971
562 1 1.57237 17.2967 14.1518 -8.94963
563 1 3.14438 15.7245 12.5796 -8.94995
564 1 4.71684 17.2971 14.1522 -8.94811
565 1 6.28611 15.7279 12.583 -8.93797
566 1 7.86181 17.2973 14.1522 -8.94939
567 1 9.43508 15.7325 12.5803 -8.96281
568 1 11.0073 17.2974 14.1524 -8.94855
569 1 12.5807 15.7278 12.5806 -8.95405
570 1 14.1521 17.2972 14.152 -8.95
571 1 15.7244 15.7244 12.5793 -8.95014
572 1 17.2966 17.2966 14.1518 -8.94978
573 1 18.8691 15.7242 12.5794 -8.94961
574 1 20.4415 17.2966 14.1518 -8.94964
575 1 -7.78087e-07 18.8691 12.5794 -8.94963
576 1 1.57242 20.4415 14.1518 -8.94965
577 1 3.14483 18.8691 12.5794 -8.94971
578 1 4.71723 20.4415 14.1518 -8.94963
579 1 6.28948 18.8695 12.5796 -8.94998
580 1 7.86209 20.4415 14.1518 -8.94966
581 1 9.43461 18.8699 12.5795 -8.95137
582 1 11.007 20.4416 14.1518 -8.94966
583 1 12.5795 18.8694 12.5795 -8.95026
584 1 14.1518 20.4415 14.1518 -8.94971
585 1 15.7242 18.8691 12.5794 -8.94965
586 1 17.2966 20.4415 14.1518 -8.94964
587 1 18.8691 18.8691 12.5794 -8.94963
588 1 20.4415 20.4415 14.1518 -8.94963
589 1 1.57241 11.007 17.2966 -8.94962
590 1 4.71716 11.007 17.2968 -8.94934
591 1 7.86196 11.007 17.2975 -8.95073
592 1 11.0069 11.007 17.2992 -8.95394
593 1 14.1521 11.007 17.2972 -8.94923
594 1 17.2967 11.007 17.2967 -8.94967
595 1 20.4415 11.007 17.2966 -8.94964
596 1 22.0139 12.5794 15.7242 -8.94967
597 1 1.57241 14.1518 17.2966 -8.94964
598 1 3.14469 12.5794 15.7243 -8.9498
599 1 4.71716 14.1519 17.2968 -8.94936
600 1 6.28871 12.5797 15.7254 -8.94847
601 1 7.86209 14.1518 17.2971 -8.95109
602 1 9.43378 12.5788 15.7249 -8.99792
603 1 11.0067 14.1518 17.297 -8.95063
604 1 12.5813 12.5809 15.7287 -8.95228
605 1 14.1521 14.1522 17.2973 -8.94959
606 1 15.7246 12.5795 15.7245 -8.94965
607 1 17.2967 14.1518 17.2967 -8.94972
608 1 18.8691 12.5794 15.7242 -8.94963
609 1 20.4415 14.1518 17.2966 -8.94964
610 1 -3.19549e-06 15.7242 15.7242 -8.94963
611 1 1.57242 17.2966 17.2966 -8.94965
612 1 3.14478 15.7242 15.7243 -8.94974
613 1 4.7172 17.2967 17.2967 -8.94945
614 1 6.28907 15.7248 15.7251 -8.94865
615 1 7.86215 17.2966 17.2966 -8.94973
616 1 9.4345 15.7242 15.7243 -8.94954
617 1 11.0069 17.2966 17.2967 -8.94978
618 1 12.5797 15.7247 15.7247 -8.949
619 1 14.1518 17.2967 17.2967 -8.94963
620 1 15.7247 15.7247 15.7247 -8.94772
621 1 17.2967 17.2967 17.2967 -8.94942
622 1 18.8691 15.7242 15.7242 -8.94962
623 1 20.4415 17.2966 17.2966 -8.94962
624 1 22.0139 18.8691 15.7242 -8.94963
625 1 1.57242 20.4415 17.2966 -8.94962
626 1 3.14481 18.8691 15.7243 -8.94947
627 1 4.71726 20.4415 17.2966 -8.94964
628 1 6.28965 18.8691 15.7243 -8.9497
629 1 7.86211 20.4415 17.2966 -8.94963
630 1 9.43452 18.8691 15.7242 -8.94951
631 1 11.0069 20.4415 17.2966 -8.94964
632 1 12.5794 18.8691 15.7243 -8.94953
633 1 14.1518 20.4415 17.2966 -8.94962
634 1 15.7242 18.8691 15.7242 -8.94963
635 1 17.2966 20.4415 17.2966 -8.94963
636 1 18.8691 18.8691 15.7242 -8.94966
637 1 20.4415 20.4415 17.2966 -8.94963
638 1 1.57242 11.007 20.4415 -8.94964
639 1 4.71726 11.007 20.4415 -8.94962
640 1 7.86211 11.007 20.4415 -8.94983
641 1 11.0069 11.007 20.4416 -8.9505
642 1 14.1518 11.007 20.4415 -8.94967
643 1 17.2966 11.007 20.4415 -8.94964
644 1 20.4415 11.007 20.4415 -8.94963
645 1 -2.71494e-07 12.5794 18.8691 -8.94963
646 1 1.57242 14.1518 20.4415 -8.94964
647 1 3.14484 12.5794 18.8691 -8.94965
648 1 4.71725 14.1518 20.4415 -8.94963
649 1 6.28962 12.5794 18.8692 -8.94978
650 1 7.86209 14.1518 20.4415 -8.94975
651 1 9.43445 12.5795 18.8692 -8.94916
652 1 11.0069 14.1518 20.4415 -8.94969
653 1 12.5795 12.5795 18.8695 -8.95043
654 1 14.1518 14.1518 20.4415 -8.94976
655 1 15.7242 12.5794 18.8691 -8.94962
656 1 17.2966 14.1518 20.4415 -8.94964
657 1 18.8691 12.5794 18.8691 -8.94964
658 1 20.4415 14.1518 20.4415 -8.94963
659 1 22.0139 15.7242 18.8691 -8.94963
660 1 1.57242 17.2966 20.4415 -8.94963
661 1 3.14483 15.7242 18.8691 -8.9496
662 1 4.71726 17.2966 20.4415 -8.94965
663 1 6.28968 15.7242 18.8691 -8.94982
664 1 7.86211 17.2966 20.4415 -8.94962
665 1 9.43452 15.7243 18.8691 -8.94951
666 1 11.007 17.2966 20.4415 -8.94963
667 1 12.5793 15.7242 18.8691 -8.94976
668 1 14.1518 17.2966 20.4415 -8.94966
669 1 15.7243 15.7243 18.8691 -8.94957
670 1 17.2966 17.2966 20.4415 -8.94961
671 1 18.8691 15.7242 18.8691 -8.94965
672 1 20.4415 17.2966 20.4415 -8.94964
673 1 2.13875e-07 18.8691 18.8691 -8.94963
674 1 1.57242 20.4415 20.4415 -8.94963
675 1 3.14484 18.8691 18.8691 -8.94961
676 1 4.71727 20.4415 20.4415 -8.94964
677 1 6.28969 18.8691 18.8691 -8.94966
678 1 7.86211 20.4415 20.4415 -8.94963
353 1 3.14484 12.5794 22.0139 -8.94963
357 1 9.43447 12.5794 22.0137 -8.94971
359 1 12.5794 12.5794 22.0136 -8.95029
365 1 -1.74386e-07 15.7242 22.0139 -8.94963
369 1 6.28966 15.7242 22.0139 -8.9497
389 1 15.7242 18.8691 22.0139 -8.94966
375 1 15.7242 15.7242 22.0139 -8.94962
385 1 9.43453 18.8691 22.0139 -8.94964
381 1 3.14484 18.8691 22.0139 -8.94962
363 1 18.8691 12.5794 22.0139 -8.94964
387 1 12.5794 18.8691 22.0139 -8.94963
526 1 1.57239 17.2967 11.007 -8.94959
