ITEM: TIMESTEP
53
ITEM: NUMBER OF ATOMS
688
ITEM: BOX BOUNDS pp pp pp
0.0000000000000000e+00 2.2013900999999997e+01
0.0000000000000000e+00 2.2013900999999997e+01
0.0000000000000000e+00 2.2013900999999997e+01
ITEM: ATOMS id type x y z c_pot
190 1 1.57232 7.86209 11.007 -8.94996
2 1 1.57242 1.57242 1.57242 -8.94963
175 1 18.8692 9.43448 9.43452 -8.9496
4 1 4.71727 1.57242 1.57242 -8.94964
174 1 15.7251 9.43388 9.43438 -8.94649
6 1 7.86211 1.57242 1.57242 -8.94963
7 1 9.43453 9.10853e-16 1.10956e-08 -8.94963
8 1 11.007 1.57242 1.57242 -8.94964
173 1 12.5783 9.43158 9.4327 -8.94321
10 1 14.1518 1.57242 1.57242 -8.94963
172 1 9.35577 9.24323 9.42564 -8.09717
12 1 17.2966 1.57242 1.57242 -8.94963
189 1 20.4415 4.71726 11.007 -8.94963
14 1 20.4415 1.57242 1.57242 -8.94963
171 1 6.28078 9.43033 9.43267 -9.00145
16 1 1.57242 4.71726 1.57242 -8.94964
170 1 3.14392 9.43438 9.43433 -8.9509
18 1 4.71725 4.71725 1.5724 -8.94961
19 1 6.28969 3.14484 5.83406e-07 -8.94963
20 1 7.86211 4.71726 1.57242 -8.94963
169 1 22.0138 9.43452 9.43452 -8.94981
22 1 11.007 4.71726 1.57242 -8.94965
188 1 17.2966 4.71726 11.007 -8.94964
24 1 14.1518 4.71727 1.57242 -8.94971
168 1 18.8691 6.28968 9.43453 -8.94962
26 1 17.2966 4.71725 1.57241 -8.94956
167 1 15.7243 6.28955 9.43453 -8.94916
28 1 20.4415 4.71726 1.57242 -8.94963
166 1 12.5793 6.2893 9.43445 -8.95076
30 1 1.57242 7.86211 1.57242 -8.94963
31 1 3.14484 6.28969 1.12563e-06 -8.94963
32 1 4.71726 7.86211 1.57242 -8.94965
165 1 9.43369 6.28277 9.43443 -8.98765
34 1 7.86205 7.86205 1.57226 -8.94991
35 1 9.43453 6.28968 -7.18775e-06 -8.94963
36 1 11.0069 7.86207 1.57232 -8.94962
164 1 6.28848 6.28824 9.43447 -8.94949
38 1 14.1519 7.86201 1.57223 -8.94975
163 1 3.14472 6.28962 9.43454 -8.94963
40 1 17.2966 7.86211 1.57242 -8.9497
162 1 22.0139 6.28968 9.43453 -8.94965
42 1 20.4415 7.86211 1.57242 -8.94963
43 1 22.0139 9.43453 6.72055e-09 -8.94963
161 1 18.8691 3.14484 9.43453 -8.94964
45 1 6.28968 9.43453 1.27673e-06 -8.94966
160 1 15.7242 3.14483 9.43453 -8.94962
159 1 12.5794 3.14477 9.43451 -8.94949
48 1 15.7242 9.43453 -2.71762e-06 -8.94962
184 1 4.7172 4.71722 11.007 -8.94977
50 1 6.50082e-08 2.1131e-15 3.14484 -8.94963
51 1 1.57242 1.57242 4.71726 -8.94964
52 1 3.14484 1.83331e-15 3.14484 -8.94963
53 1 4.71725 1.57241 4.71725 -8.94962
54 1 6.28969 4.06532e-16 3.14484 -8.94964
55 1 7.86211 1.57242 4.71726 -8.94963
56 1 9.43453 2.73021e-16 3.14484 -8.94964
57 1 11.007 1.57242 4.71726 -8.94963
58 1 12.5794 -7.82238e-16 3.14484 -8.94963
59 1 14.1518 1.57241 4.71726 -8.94965
60 1 15.7242 3.7913e-16 3.14484 -8.94963
61 1 17.2966 1.57242 4.71726 -8.94964
62 1 18.8691 1.80219e-15 3.14484 -8.94963
63 1 20.4415 1.57242 4.71726 -8.94963
64 1 22.0139 3.14484 3.14484 -8.94963
65 1 1.57241 4.71726 4.71726 -8.94962
66 1 3.14483 3.14483 3.14483 -8.94955
67 1 4.71709 4.71709 4.71709 -8.94867
68 1 6.28969 3.14485 3.14485 -8.94972
69 1 7.86213 4.71724 4.71724 -8.95003
70 1 9.43453 3.14484 3.14484 -8.94965
71 1 11.007 4.71717 4.71717 -8.94943
72 1 12.5794 3.14484 3.14484 -8.94963
73 1 14.1519 4.71706 4.71716 -8.94964
74 1 15.7242 3.14483 3.14483 -8.94961
75 1 17.2966 4.71726 4.71726 -8.9497
76 1 18.8691 3.14484 3.14484 -8.94964
77 1 20.4415 4.71726 4.71726 -8.94963
78 1 22.0139 6.28969 3.14484 -8.94964
79 1 1.57242 7.86211 4.71726 -8.94964
80 1 3.14484 6.28969 3.14484 -8.94971
81 1 4.71722 7.86212 4.71723 -8.9501
82 1 6.28958 6.28958 3.14463 -8.94969
83 1 7.86137 7.8614 4.71537 -8.95216
84 1 9.43453 6.28959 3.14475 -8.94944
85 1 11.0066 7.86169 4.71622 -8.95139
86 1 12.5794 6.28966 3.14481 -8.95002
87 1 14.1537 7.86015 4.71535 -8.9412
88 1 15.7244 6.28952 3.14468 -8.94875
89 1 17.2968 7.86203 4.71718 -8.94979
90 1 18.8691 6.28968 3.14483 -8.94963
91 1 20.4415 7.8621 4.71726 -8.94966
92 1 1.7874e-07 9.43453 3.14484 -8.94963
93 1 3.14484 9.43453 3.14484 -8.94964
94 1 6.28963 9.43458 3.14477 -8.94977
95 1 9.43411 9.43414 3.14403 -8.94908
96 1 12.5799 9.434 3.14315 -8.9524
97 1 15.7243 9.43452 3.1448 -8.94979
98 1 18.8691 9.43453 3.14484 -8.94962
99 1 22.0139 1.661e-15 6.28969 -8.94963
100 1 1.57242 1.57242 7.86211 -8.94964
101 1 3.14484 9.84383e-16 6.28969 -8.94963
102 1 4.71726 1.57242 7.86211 -8.94961
103 1 6.28968 1.03248e-15 6.28968 -8.94969
104 1 7.86208 1.5723 7.86208 -8.95001
105 1 9.43453 9.1435e-17 6.28968 -8.94965
106 1 11.007 1.57234 7.86208 -8.94972
107 1 12.5794 1.08978e-15 6.28968 -8.94968
108 1 14.1518 1.57242 7.86211 -8.94964
109 1 15.7242 2.05296e-15 6.28969 -8.94963
110 1 17.2966 1.57242 7.86211 -8.94963
111 1 18.8691 1.50474e-15 6.28969 -8.94963
112 1 20.4415 1.57242 7.86211 -8.94963
113 1 22.0139 3.14484 6.28969 -8.94963
114 1 1.57242 4.71726 7.86211 -8.94963
115 1 3.14484 3.14484 6.28969 -8.9497
116 1 4.7172 4.7172 7.86209 -8.94978
117 1 6.28959 3.14464 6.28958 -8.94978
118 1 7.86157 4.71547 7.86157 -8.95293
119 1 9.43456 3.14474 6.28964 -8.94959
120 1 11.0074 4.71644 7.8617 -8.94933
121 1 12.5794 3.14468 6.28963 -8.94991
122 1 14.1519 4.71718 7.86215 -8.94974
123 1 15.7242 3.14484 6.28969 -8.94965
124 1 17.2966 4.71726 7.86211 -8.94965
125 1 18.8691 3.14484 6.28969 -8.94963
126 1 20.4415 4.71726 7.86211 -8.94963
127 1 -1.2709e-05 6.28968 6.28968 -8.94965
128 1 1.57228 7.86207 7.86207 -8.94994
129 1 3.14464 6.28959 6.28959 -8.94972
130 1 4.71536 7.86147 7.86149 -8.95213
131 1 6.2876 6.28761 6.28756 -8.94016
132 1 7.84345 7.84452 7.84409 -8.86827
133 1 9.43489 6.28864 6.28919 -8.95117
134 1 11.0132 7.85789 7.85427 -8.9209
135 1 12.5802 6.28784 6.28892 -8.95136
136 1 14.1529 7.86143 7.86234 -8.94917
137 1 15.7243 6.28964 6.28968 -8.94995
138 1 17.2968 7.86202 7.8621 -8.94955
139 1 18.8691 6.28968 6.28968 -8.94962
140 1 20.4415 7.8621 7.8621 -8.94967
141 1 22.0139 9.43453 6.28968 -8.94967
142 1 3.14474 9.43456 6.28963 -8.94971
143 1 6.28877 9.43501 6.28908 -8.95029
144 1 9.42918 9.4278 6.28583 -8.92865
145 1 12.5964 9.4185 6.2736 -8.88035
146 1 15.7258 9.4341 6.28923 -8.95282
147 1 18.8692 9.43451 6.28967 -8.94997
148 1 -3.39498e-09 1.25837e-15 9.43453 -8.94963
149 1 3.14484 1.77665e-15 9.43453 -8.94964
150 1 6.28968 5.42308e-16 9.43453 -8.94965
151 1 9.43453 1.28564e-15 9.43453 -8.95002
152 1 12.5794 1.59869e-15 9.43453 -8.94963
153 1 15.7242 2.04097e-15 9.43453 -8.94964
154 1 18.8691 7.2047e-16 9.43453 -8.94963
155 1 1.54396e-07 3.14484 9.43453 -8.94963
156 1 3.14484 3.14484 9.43453 -8.94968
157 1 6.2896 3.14467 9.43451 -8.94946
158 1 9.43457 3.144 9.43454 -8.95125
177 1 4.71726 1.57242 11.007 -8.94962
181 1 17.2966 1.57242 11.007 -8.94963
187 1 14.1519 4.71719 11.0069 -8.94979
3 1 3.14484 1.69435e-15 4.2967e-08 -8.94963
11 1 15.7242 6.38484e-16 7.77426e-08 -8.94963
15 1 22.0139 3.14484 -7.55174e-10 -8.94963
41 1 18.8691 6.28969 3.77093e-07 -8.94964
37 1 12.5794 6.28969 -1.7761e-06 -8.94963
176 1 1.57242 1.57242 11.007 -8.94964
343 1 18.8691 9.43453 18.8691 -8.94964
178 1 7.86207 1.57228 11.007 -8.94998
179 1 11.007 1.57233 11.007 -8.9497
180 1 14.1518 1.57242 11.0069 -8.94965
342 1 15.7242 9.43453 18.8691 -8.94965
182 1 20.4415 1.57242 11.007 -8.94963
341 1 12.5794 9.43447 18.8693 -8.95008
340 1 9.43449 9.43447 18.8691 -8.94924
185 1 7.86141 4.71536 11.0073 -8.95184
186 1 11.0075 4.71629 11.0071 -8.94833
47 1 12.5794 9.4345 22.0138 -8.94999
339 1 6.28965 9.43451 18.8691 -8.94974
338 1 3.14484 9.43453 18.8691 -8.94965
337 1 1.48392e-07 9.43453 18.8691 -8.94963
191 1 4.71562 7.86174 11.0075 -8.95339
192 1 7.84397 7.84545 11.0223 -8.92833
193 1 11.0132 7.85833 11.0124 -8.97809
194 1 14.1529 7.86149 11.0066 -8.9506
195 1 17.2968 7.86204 11.0069 -8.94958
196 1 20.4415 7.8621 11.007 -8.94966
197 1 22.0139 6.459e-16 12.5794 -8.94963
198 1 1.57242 1.57242 14.1518 -8.94964
199 1 3.14484 8.41745e-16 12.5794 -8.94964
200 1 4.71726 1.57241 14.1518 -8.94962
201 1 6.28968 1.45771e-15 12.5794 -8.94968
202 1 7.8621 1.5724 14.1518 -8.94964
203 1 9.43453 1.34685e-15 12.5794 -8.94982
204 1 11.007 1.5724 14.1518 -8.94964
205 1 12.5794 1.23583e-15 12.5794 -8.94967
206 1 14.1518 1.57241 14.1518 -8.94966
207 1 15.7242 1.95903e-15 12.5794 -8.94964
208 1 17.2966 1.57242 14.1518 -8.94963
209 1 18.8691 6.81114e-17 12.5794 -8.94963
210 1 20.4415 1.57242 14.1518 -8.94963
211 1 2.81239e-07 3.14484 12.5794 -8.94963
212 1 1.57241 4.71726 14.1518 -8.94963
213 1 3.14484 3.14484 12.5794 -8.94969
214 1 4.7171 4.71711 14.1519 -8.94886
215 1 6.2896 3.14466 12.5795 -8.94976
216 1 7.86195 4.71702 14.152 -8.94949
217 1 9.43456 3.14442 12.5794 -8.95091
218 1 11.0071 4.71695 14.1521 -8.9489
219 1 12.5794 3.14469 12.5794 -8.94991
220 1 14.1519 4.71706 14.1519 -8.94984
221 1 15.7242 3.14484 12.5794 -8.94965
222 1 17.2966 4.71726 14.1518 -8.94971
223 1 18.8691 3.14484 12.5794 -8.94963
224 1 20.4415 4.71726 14.1518 -8.94964
225 1 22.0139 6.28968 12.5794 -8.94967
226 1 1.57239 7.86209 14.1518 -8.9496
227 1 3.14467 6.28959 12.5794 -8.94979
228 1 4.71697 7.86202 14.1519 -8.95028
229 1 6.28783 6.28775 12.5813 -8.94156
230 1 7.85898 7.86041 14.1552 -8.9847
231 1 9.43489 6.28411 12.5797 -8.96215
232 1 11.009 7.86063 14.1545 -8.98359
233 1 12.58 6.28783 12.58 -8.95294
234 1 14.1542 7.85986 14.154 -8.94009
235 1 15.7243 6.28963 12.5794 -8.94998
236 1 17.2969 7.86201 14.1519 -8.94981
237 1 18.8691 6.28968 12.5794 -8.94963
238 1 20.4415 7.8621 14.1518 -8.94966
239 1 22.0139 9.43452 12.5794 -8.94967
240 1 3.14448 9.43434 12.5796 -8.94873
241 1 6.28834 9.43414 12.5813 -9.00175
242 1 9.43036 9.38681 12.6023 -9.20029
243 1 12.5985 9.4155 12.599 -8.91646
244 1 15.7261 9.43393 12.58 -8.95262
245 1 18.8692 9.4345 12.5794 -8.95
246 1 5.65164e-08 8.14903e-16 15.7242 -8.94963
247 1 1.57242 1.57242 17.2966 -8.94963
248 1 3.14484 -3.03435e-17 15.7242 -8.94963
249 1 4.71726 1.57242 17.2966 -8.94964
250 1 6.28969 9.92407e-16 15.7242 -8.94964
251 1 7.86211 1.57242 17.2966 -8.94963
252 1 9.43453 1.53951e-15 15.7242 -8.94962
253 1 11.0069 1.57242 17.2966 -8.94964
254 1 12.5794 1.64693e-15 15.7242 -8.94963
255 1 14.1518 1.57242 17.2966 -8.94963
256 1 15.7242 1.18257e-15 15.7242 -8.94963
257 1 17.2966 1.57242 17.2966 -8.94963
258 1 18.8691 4.29845e-16 15.7242 -8.94963
259 1 20.4415 1.57242 17.2966 -8.94963
260 1 22.0139 3.14484 15.7242 -8.94963
261 1 1.57242 4.71726 17.2966 -8.94964
262 1 3.14483 3.14483 15.7242 -8.94957
263 1 4.71725 4.71724 17.2967 -8.94955
264 1 6.28967 3.14482 15.7242 -8.94967
265 1 7.86213 4.71729 17.2966 -8.94974
266 1 9.43453 3.14486 15.7242 -8.94957
267 1 11.0069 4.71729 17.2966 -8.94976
268 1 12.5794 3.14482 15.7242 -8.94958
269 1 14.1518 4.71725 17.2966 -8.94966
270 1 15.7242 3.14483 15.7242 -8.94963
271 1 17.2966 4.71725 17.2966 -8.94955
272 1 18.8691 3.14484 15.7242 -8.94964
273 1 20.4415 4.71726 17.2966 -8.94963
274 1 -5.62211e-07 6.28968 15.7242 -8.94963
275 1 1.57242 7.8621 17.2966 -8.94964
276 1 3.14483 6.28968 15.7242 -8.94969
277 1 4.71721 7.86205 17.2967 -8.94943
278 1 6.28943 6.28942 15.7246 -8.94897
279 1 7.86215 7.86215 17.2968 -8.95059
280 1 9.43453 6.28986 15.7241 -8.95006
281 1 11.0068 7.86218 17.2967 -8.95039
282 1 12.5795 6.28949 15.7244 -8.94938
283 1 14.1519 7.86194 17.2969 -8.94949
284 1 15.7244 6.2895 15.7244 -8.94864
285 1 17.2966 7.86211 17.2966 -8.9497
286 1 18.8691 6.28968 15.7242 -8.94962
287 1 20.4415 7.86211 17.2966 -8.94964
288 1 22.0139 9.43453 15.7242 -8.94965
289 1 3.14478 9.43451 15.7243 -8.94978
290 1 6.28903 9.43423 15.725 -8.9485
291 1 9.434 9.43513 15.7243 -8.99803
292 1 12.5806 9.43349 15.7268 -8.9508
293 1 15.7244 9.43449 15.7243 -8.94988
294 1 18.8691 9.43453 15.7242 -8.94964
295 1 22.0139 -1.3265e-16 18.8691 -8.94963
296 1 1.57242 1.57242 20.4415 -8.94963
297 1 3.14484 1.26905e-16 18.8691 -8.94963
298 1 4.71726 1.57242 20.4415 -8.94963
299 1 6.28969 1.06651e-15 18.8691 -8.94963
300 1 7.86211 1.57242 20.4415 -8.94963
301 1 9.43453 1.75512e-15 18.8691 -8.94963
302 1 11.007 1.57242 20.4415 -8.94963
303 1 12.5794 1.38937e-15 18.8691 -8.94963
304 1 14.1518 1.57242 20.4415 -8.94963
305 1 15.7242 1.93316e-15 18.8691 -8.94963
306 1 17.2966 1.57242 20.4415 -8.94963
307 1 18.8691 1.62212e-15 18.8691 -8.94963
308 1 20.4415 1.57242 20.4415 -8.94963
309 1 9.05204e-08 3.14484 18.8691 -8.94963
310 1 1.57242 4.71726 20.4415 -8.94963
311 1 3.14484 3.14484 18.8691 -8.94963
312 1 4.71726 4.71726 20.4415 -8.94964
313 1 6.28969 3.14485 18.8691 -8.94965
314 1 7.86211 4.71726 20.4415 -8.94963
315 1 9.43453 3.14484 18.8691 -8.94963
316 1 11.007 4.71726 20.4415 -8.94963
317 1 12.5794 3.14485 18.8691 -8.94965
318 1 14.1518 4.71727 20.4415 -8.94965
319 1 15.7242 3.14484 18.8691 -8.94964
320 1 17.2966 4.71726 20.4415 -8.94962
321 1 18.8691 3.14484 18.8691 -8.94963
322 1 20.4415 4.71726 20.4415 -8.94963
323 1 22.0139 6.28969 18.8691 -8.94963
324 1 1.57242 7.86211 20.4415 -8.94964
325 1 3.14484 6.28968 18.8691 -8.94961
326 1 4.71726 7.8621 20.4415 -8.94963
327 1 6.28969 6.28969 18.8691 -8.94973
328 1 7.86211 7.8621 20.4415 -8.94967
329 1 9.43453 6.28967 18.8691 -8.94955
330 1 11.0069 7.86211 20.4415 -8.94964
331 1 12.5794 6.2897 18.8691 -8.94972
332 1 14.1518 7.86209 20.4415 -8.94968
333 1 15.7242 6.28967 18.8691 -8.94959
334 1 17.2966 7.86211 20.4415 -8.94964
335 1 18.8691 6.28969 18.8691 -8.94964
336 1 20.4415 7.86211 20.4415 -8.94963
46 1 9.4345 9.4345 22.0138 -8.94968
5 1 6.28969 1.13462e-15 22.0139 -8.94963
9 1 12.5794 6.90745e-16 22.0139 -8.94963
44 1 3.14484 9.43453 22.0139 -8.94963
39 1 15.7242 6.28968 22.0139 -8.94962
17 1 3.14484 3.14484 22.0139 -8.94963
21 1 9.43453 3.14484 22.0139 -8.94964
25 1 15.7242 3.14484 22.0139 -8.94964
27 1 18.8691 3.14484 22.0139 -8.94963
29 1 -4.86505e-08 6.28969 22.0139 -8.94963
33 1 6.28968 6.28968 22.0139 -8.94965
1 1 -3.91794e-08 1.61503e-15 22.0139 -8.94963
13 1 18.8691 1.69166e-15 22.0139 -8.94963
23 1 12.5794 3.14484 22.0139 -8.94963
49 1 18.8691 9.43453 22.0139 -8.94964
183 1 1.57242 4.71726 11.007 -8.94962
344 1 1.57242 11.007 1.57242 -8.94964
345 1 4.71725 11.007 1.57241 -8.94961
346 1 7.86209 11.007 1.57239 -8.94952
347 1 11.0069 11.007 1.57155 -8.95147
348 1 14.1519 11.007 1.57229 -8.94948
349 1 17.2966 11.007 1.57242 -8.94968
350 1 20.4415 11.007 1.57242 -8.94963
351 1 22.0139 12.5794 6.72055e-09 -8.94963
352 1 1.57242 14.1518 1.57242 -8.94963
688 3 10.2111 11.007 9.44262 2.56739
354 1 4.71726 14.1518 1.57242 -8.94965
355 1 6.28968 12.5794 1.27673e-06 -8.94966
356 1 7.86205 14.1519 1.57226 -8.94991
511 1 18.8691 18.8691 9.43453 -8.94964
358 1 11.0069 14.1518 1.57232 -8.94962
510 1 15.7242 18.8691 9.43453 -8.94962
360 1 14.1519 14.1519 1.57223 -8.94975
361 1 15.7242 12.5794 -2.71762e-06 -8.94962
362 1 17.2966 14.1518 1.57242 -8.9497
538 1 17.2966 20.4415 11.007 -8.94963
364 1 20.4415 14.1518 1.57242 -8.94963
509 1 12.5794 18.8691 9.43451 -8.94949
366 1 1.57242 17.2966 1.57242 -8.94964
367 1 3.14484 15.7242 1.12563e-06 -8.94963
368 1 4.71725 17.2966 1.5724 -8.94961
508 1 9.43457 18.8699 9.43454 -8.95125
370 1 7.86211 17.2966 1.57242 -8.94963
371 1 9.43453 15.7242 -7.18775e-06 -8.94963
372 1 11.007 17.2966 1.57242 -8.94965
507 1 6.2896 18.8692 9.43451 -8.94946
374 1 14.1518 17.2966 1.57242 -8.94971
506 1 3.14484 18.8691 9.43453 -8.94968
376 1 17.2966 17.2966 1.57241 -8.94956
505 1 1.54396e-07 18.8691 9.43453 -8.94963
378 1 20.4415 17.2966 1.57242 -8.94963
504 1 18.8691 15.7242 9.43453 -8.94962
380 1 1.57242 20.4415 1.57242 -8.94963
503 1 15.7243 15.7243 9.43453 -8.94916
382 1 4.71727 20.4415 1.57242 -8.94964
383 1 6.28969 18.8691 5.83406e-07 -8.94963
384 1 7.86211 20.4415 1.57242 -8.94963
502 1 12.5793 15.7246 9.43445 -8.95076
386 1 11.007 20.4415 1.57242 -8.94964
534 1 4.71726 20.4415 11.007 -8.94962
388 1 14.1518 20.4415 1.57242 -8.94963
501 1 9.43369 15.7311 9.43443 -8.98765
390 1 17.2966 20.4415 1.57242 -8.94963
500 1 6.28848 15.7257 9.43447 -8.94949
392 1 20.4415 20.4415 1.57242 -8.94963
393 1 1.57241 11.007 4.71726 -8.94962
394 1 4.71717 11.007 4.71715 -8.94897
395 1 7.86228 11.007 4.71715 -8.95007
396 1 11.0078 11.007 4.70962 -8.98428
397 1 14.1529 11.007 4.71615 -8.94896
398 1 17.2968 11.007 4.7172 -8.94948
399 1 20.4415 11.007 4.71726 -8.94964
400 1 1.7874e-07 12.5794 3.14484 -8.94963
401 1 1.57242 14.1518 4.71726 -8.94964
402 1 3.14484 12.5794 3.14484 -8.94964
403 1 4.71722 14.1518 4.71723 -8.9501
404 1 6.28963 12.5793 3.14477 -8.94977
405 1 7.86137 14.1525 4.71537 -8.95216
406 1 9.43411 12.5798 3.14403 -8.94908
407 1 11.0066 14.1522 4.71622 -8.95139
408 1 12.5799 12.5799 3.14315 -8.9524
409 1 14.1537 14.1537 4.71535 -8.9412
410 1 15.7243 12.5794 3.1448 -8.94979
411 1 17.2968 14.1519 4.71718 -8.94979
412 1 18.8691 12.5794 3.14484 -8.94962
413 1 20.4415 14.1518 4.71726 -8.94966
414 1 22.0139 15.7242 3.14484 -8.94964
415 1 1.57241 17.2966 4.71726 -8.94962
416 1 3.14484 15.7242 3.14484 -8.94971
417 1 4.71709 17.2968 4.71709 -8.94867
418 1 6.28958 15.7243 3.14463 -8.94969
419 1 7.86213 17.2967 4.71724 -8.95003
420 1 9.43453 15.7243 3.14475 -8.94944
421 1 11.007 17.2967 4.71717 -8.94943
422 1 12.5794 15.7242 3.14481 -8.95002
423 1 14.1519 17.2968 4.71716 -8.94964
424 1 15.7244 15.7244 3.14468 -8.94875
425 1 17.2966 17.2966 4.71726 -8.9497
426 1 18.8691 15.7242 3.14483 -8.94963
427 1 20.4415 17.2966 4.71726 -8.94963
428 1 22.0139 18.8691 3.14484 -8.94963
429 1 1.57242 20.4415 4.71726 -8.94964
430 1 3.14483 18.8691 3.14483 -8.94955
431 1 4.71725 20.4415 4.71725 -8.94962
432 1 6.28969 18.8691 3.14485 -8.94972
433 1 7.86211 20.4415 4.71726 -8.94963
434 1 9.43453 18.8691 3.14484 -8.94965
435 1 11.007 20.4415 4.71726 -8.94963
436 1 12.5794 18.8691 3.14484 -8.94963
437 1 14.1518 20.4415 4.71726 -8.94965
438 1 15.7242 18.8691 3.14483 -8.94961
439 1 17.2966 20.4415 4.71726 -8.94964
440 1 18.8691 18.8691 3.14484 -8.94964
441 1 20.4415 20.4415 4.71726 -8.94963
442 1 1.57235 11.007 7.86207 -8.94951
443 1 4.71687 11.007 7.86184 -8.94742
444 1 7.86484 11.007 7.8621 -8.95594
445 1 11.0818 11.007 7.68727 -8.12038
446 1 14.1591 11.007 7.86084 -8.96814
447 1 17.2973 11.007 7.86215 -8.95133
448 1 20.4415 11.007 7.86211 -8.94978
449 1 22.0139 12.5794 6.28968 -8.94967
450 1 1.57228 14.1518 7.86207 -8.94994
451 1 3.14474 12.5793 6.28963 -8.94971
452 1 4.71536 14.1524 7.86149 -8.95213
453 1 6.28877 12.5789 6.28908 -8.95029
454 1 7.84345 14.1694 7.84409 -8.86827
455 1 9.42918 12.5861 6.28583 -8.92865
456 1 11.0132 14.156 7.85427 -8.9209
457 1 12.5964 12.5954 6.2736 -8.88035
458 1 14.1529 14.1525 7.86234 -8.94917
459 1 15.7258 12.5798 6.28923 -8.95282
460 1 17.2968 14.1519 7.8621 -8.94955
461 1 18.8692 12.5794 6.28967 -8.94997
462 1 20.4415 14.1518 7.8621 -8.94967
463 1 -1.2709e-05 15.7242 6.28968 -8.94965
464 1 1.57242 17.2966 7.86211 -8.94963
465 1 3.14464 15.7243 6.28959 -8.94972
466 1 4.7172 17.2967 7.86209 -8.94978
467 1 6.2876 15.7263 6.28756 -8.94016
468 1 7.86157 17.2984 7.86157 -8.95293
469 1 9.43489 15.7253 6.28919 -8.95117
470 1 11.0074 17.2975 7.8617 -8.94933
471 1 12.5802 15.7261 6.28892 -8.95136
472 1 14.1519 17.2967 7.86215 -8.94974
473 1 15.7243 15.7243 6.28968 -8.94995
474 1 17.2966 17.2966 7.86211 -8.94965
475 1 18.8691 15.7242 6.28968 -8.94962
476 1 20.4415 17.2966 7.86211 -8.94963
477 1 22.0139 18.8691 6.28969 -8.94963
478 1 1.57242 20.4415 7.86211 -8.94964
479 1 3.14484 18.8691 6.28969 -8.9497
480 1 4.71726 20.4415 7.86211 -8.94961
481 1 6.28959 18.8693 6.28958 -8.94978
482 1 7.86208 20.4416 7.86208 -8.95001
483 1 9.43456 18.8692 6.28964 -8.94959
484 1 11.007 20.4416 7.86208 -8.94972
485 1 12.5794 18.8692 6.28963 -8.94991
486 1 14.1518 20.4415 7.86211 -8.94964
487 1 15.7242 18.8691 6.28969 -8.94965
488 1 17.2966 20.4415 7.86211 -8.94963
489 1 18.8691 18.8691 6.28969 -8.94963
490 1 20.4415 20.4415 7.86211 -8.94963
491 1 22.0138 12.5794 9.43452 -8.94981
492 1 3.14392 12.5795 9.43433 -8.9509
493 1 6.28078 12.5836 9.43267 -9.00145
494 1 9.35577 12.7707 9.42564 -8.09717
495 1 12.5783 12.5823 9.4327 -8.94321
496 1 15.7251 12.58 9.43438 -8.94649
497 1 18.8692 12.5794 9.43452 -8.9496
498 1 22.0139 15.7242 9.43453 -8.94965
499 1 3.14472 15.7243 9.43454 -8.94963
512 1 1.57199 11.007 11.007 -8.95097
514 1 7.81868 11.007 10.9859 -9.16864
519 1 1.57232 14.1518 11.007 -8.94996
532 1 20.4415 17.2966 11.007 -8.94963
527 1 4.7172 17.2967 11.007 -8.94977
531 1 17.2966 17.2966 11.007 -8.94964
530 1 14.1519 17.2967 11.0069 -8.94979
373 1 12.5794 15.7242 -1.7761e-06 -8.94963
377 1 18.8691 15.7242 3.77093e-07 -8.94964
379 1 22.0139 18.8691 -7.55175e-10 -8.94963
687 2 9.43595 11.007 11.7817 0.780984
513 1 4.71174 11.007 11.0074 -8.95925
686 1 20.4415 20.4415 20.4415 -8.94963
515 1 11.141 11.007 11.1686 -8.34595
516 1 14.1618 11.007 11.0085 -8.9771
517 1 17.2976 11.007 11.0069 -8.95209
518 1 20.4415 11.007 11.0069 -8.94995
685 1 18.8691 18.8691 18.8691 -8.94963
520 1 4.71562 14.1522 11.0075 -8.95339
521 1 7.84397 14.1685 11.0223 -8.92833
522 1 11.0132 14.1556 11.0124 -8.97809
523 1 14.1529 14.1524 11.0066 -8.9506
524 1 17.2968 14.1519 11.0069 -8.94958
525 1 20.4415 14.1518 11.007 -8.94966
684 1 17.2966 20.4415 20.4415 -8.94963
683 1 15.7242 18.8691 18.8691 -8.94964
528 1 7.86141 17.2985 11.0073 -8.95184
529 1 11.0075 17.2976 11.0071 -8.94833
391 1 18.8691 18.8691 22.0139 -8.94963
682 1 14.1518 20.4415 20.4415 -8.94963
681 1 12.5794 18.8691 18.8691 -8.94965
533 1 1.57242 20.4415 11.007 -8.94964
680 1 11.007 20.4415 20.4415 -8.94963
535 1 7.86207 20.4416 11.007 -8.94998
536 1 11.007 20.4416 11.007 -8.9497
537 1 14.1518 20.4415 11.0069 -8.94965
679 1 9.43453 18.8691 18.8691 -8.94963
539 1 20.4415 20.4415 11.007 -8.94963
540 1 1.57238 11.007 14.1518 -8.94973
541 1 4.71676 11.007 14.152 -8.9504
542 1 7.85821 11.007 14.1572 -8.98435
543 1 11.0122 11.007 14.1689 -9.02298
544 1 14.1536 11.007 14.1533 -8.95027
545 1 17.2968 11.007 14.1519 -8.94964
546 1 20.4415 11.007 14.1518 -8.94966
547 1 22.0139 12.5794 12.5794 -8.94967
548 1 1.57239 14.1518 14.1518 -8.9496
549 1 3.14448 12.5796 12.5796 -8.94873
550 1 4.71697 14.1519 14.1519 -8.95028
551 1 6.28834 12.5798 12.5813 -9.00175
552 1 7.85898 14.1535 14.1552 -8.9847
553 1 9.43036 12.6271 12.6023 -9.20029
554 1 11.009 14.1533 14.1545 -8.98359
555 1 12.5985 12.5984 12.599 -8.91646
556 1 14.1542 14.154 14.154 -8.94009
557 1 15.7261 12.58 12.58 -8.95262
558 1 17.2969 14.1519 14.1519 -8.94981
559 1 18.8692 12.5794 12.5794 -8.95
560 1 20.4415 14.1518 14.1518 -8.94966
561 1 22.0139 15.7242 12.5794 -8.94967
562 1 1.57241 17.2966 14.1518 -8.94963
563 1 3.14467 15.7243 12.5794 -8.94979
564 1 4.7171 17.2968 14.1519 -8.94886
565 1 6.28783 15.7261 12.5813 -8.94156
566 1 7.86195 17.2969 14.152 -8.94949
567 1 9.43489 15.7298 12.5797 -8.96215
568 1 11.0071 17.297 14.1521 -8.9489
569 1 12.58 15.7261 12.58 -8.95294
570 1 14.1519 17.2968 14.1519 -8.94984
571 1 15.7243 15.7243 12.5794 -8.94998
572 1 17.2966 17.2966 14.1518 -8.94971
573 1 18.8691 15.7242 12.5794 -8.94963
574 1 20.4415 17.2966 14.1518 -8.94964
575 1 2.81239e-07 18.8691 12.5794 -8.94963
576 1 1.57242 20.4415 14.1518 -8.94964
577 1 3.14484 18.8691 12.5794 -8.94969
578 1 4.71726 20.4415 14.1518 -8.94962
579 1 6.2896 18.8692 12.5795 -8.94976
580 1 7.8621 20.4415 14.1518 -8.94964
581 1 9.43456 18.8695 12.5794 -8.95091
582 1 11.007 20.4415 14.1518 -8.94964
583 1 12.5794 18.8692 12.5794 -8.94991
584 1 14.1518 20.4415 14.1518 -8.94966
585 1 15.7242 18.8691 12.5794 -8.94965
586 1 17.2966 20.4415 14.1518 -8.94963
587 1 18.8691 18.8691 12.5794 -8.94963
588 1 20.4415 20.4415 14.1518 -8.94963
589 1 1.57242 11.007 17.2966 -8.94962
590 1 4.71724 11.007 17.2967 -8.94948
591 1 7.86205 11.007 17.2972 -8.95098
592 1 11.007 11.007 17.2983 -8.95388
593 1 14.1519 11.007 17.2968 -8.94946
594 1 17.2966 11.007 17.2966 -8.94966
595 1 20.4415 11.007 17.2966 -8.94963
596 1 22.0139 12.5794 15.7242 -8.94965
597 1 1.57242 14.1518 17.2966 -8.94964
598 1 3.14478 12.5794 15.7243 -8.94978
599 1 4.71721 14.1519 17.2967 -8.94943
600 1 6.28903 12.5797 15.725 -8.9485
601 1 7.86215 14.1517 17.2968 -8.95059
602 1 9.434 12.5788 15.7243 -8.99803
603 1 11.0068 14.1517 17.2967 -8.95039
604 1 12.5806 12.5804 15.7268 -8.9508
605 1 14.1519 14.152 17.2969 -8.94949
606 1 15.7244 12.5794 15.7243 -8.94988
607 1 17.2966 14.1518 17.2966 -8.9497
608 1 18.8691 12.5794 15.7242 -8.94964
609 1 20.4415 14.1518 17.2966 -8.94964
610 1 -5.62211e-07 15.7242 15.7242 -8.94963
611 1 1.57242 17.2966 17.2966 -8.94964
612 1 3.14483 15.7242 15.7242 -8.94969
613 1 4.71725 17.2967 17.2967 -8.94955
614 1 6.28943 15.7245 15.7246 -8.94897
615 1 7.86213 17.2966 17.2966 -8.94974
616 1 9.43453 15.724 15.7241 -8.95006
617 1 11.0069 17.2966 17.2966 -8.94976
618 1 12.5795 15.7244 15.7244 -8.94938
619 1 14.1518 17.2966 17.2966 -8.94966
620 1 15.7244 15.7244 15.7244 -8.94864
621 1 17.2966 17.2966 17.2966 -8.94955
622 1 18.8691 15.7242 15.7242 -8.94962
623 1 20.4415 17.2966 17.2966 -8.94963
624 1 22.0139 18.8691 15.7242 -8.94963
625 1 1.57242 20.4415 17.2966 -8.94963
626 1 3.14483 18.8691 15.7242 -8.94957
627 1 4.71726 20.4415 17.2966 -8.94964
628 1 6.28967 18.8691 15.7242 -8.94967
629 1 7.86211 20.4415 17.2966 -8.94963
630 1 9.43453 18.869 15.7242 -8.94957
631 1 11.0069 20.4415 17.2966 -8.94964
632 1 12.5794 18.8691 15.7242 -8.94958
633 1 14.1518 20.4415 17.2966 -8.94963
634 1 15.7242 18.8691 15.7242 -8.94963
635 1 17.2966 20.4415 17.2966 -8.94963
636 1 18.8691 18.8691 15.7242 -8.94964
637 1 20.4415 20.4415 17.2966 -8.94963
638 1 1.57242 11.007 20.4415 -8.94964
639 1 4.71726 11.007 20.4415 -8.94962
640 1 7.86212 11.007 20.4415 -8.9498
641 1 11.0069 11.007 20.4415 -8.95028
642 1 14.1518 11.007 20.4415 -8.94964
643 1 17.2966 11.007 20.4415 -8.94964
644 1 20.4415 11.007 20.4415 -8.94963
645 1 1.48392e-07 12.5794 18.8691 -8.94963
646 1 1.57242 14.1518 20.4415 -8.94964
647 1 3.14484 12.5794 18.8691 -8.94965
648 1 4.71726 14.1518 20.4415 -8.94963
649 1 6.28965 12.5794 18.8691 -8.94974
650 1 7.86211 14.1518 20.4415 -8.94967
651 1 9.43449 12.5794 18.8691 -8.94924
652 1 11.0069 14.1518 20.4415 -8.94964
653 1 12.5794 12.5794 18.8693 -8.95008
654 1 14.1518 14.1518 20.4415 -8.94968
655 1 15.7242 12.5794 18.8691 -8.94965
656 1 17.2966 14.1518 20.4415 -8.94964
657 1 18.8691 12.5794 18.8691 -8.94964
658 1 20.4415 14.1518 20.4415 -8.94963
659 1 22.0139 15.7242 18.8691 -8.94963
660 1 1.57242 17.2966 20.4415 -8.94963
661 1 3.14484 15.7242 18.8691 -8.94961
662 1 4.71726 17.2966 20.4415 -8.94964
663 1 6.28969 15.7242 18.8691 -8.94973
664 1 7.86211 17.2966 20.4415 -8.94963
665 1 9.43453 15.7242 18.8691 -8.94955
666 1 11.007 17.2966 20.4415 -8.94963
667 1 12.5794 15.7242 18.8691 -8.94972
668 1 14.1518 17.2966 20.4415 -8.94965
669 1 15.7242 15.7242 18.8691 -8.94959
670 1 17.2966 17.2966 20.4415 -8.94962
671 1 18.8691 15.7242 18.8691 -8.94964
672 1 20.4415 17.2966 20.4415 -8.94963
673 1 9.05204e-08 18.8691 18.8691 -8.94963
674 1 1.57242 20.4415 20.4415 -8.94963
675 1 3.14484 18.8691 18.8691 -8.94963
676 1 4.71726 20.4415 20.4415 -8.94963
677 1 6.28969 18.8691 18.8691 -8.94965
678 1 7.86211 20.4415 20.4415 -8.94963
353 1 3.14484 12.5794 22.0139 -8.94963
357 1 9.4345 12.5794 22.0138 -8.94968
359 1 12.5794 12.5794 22.0138 -8.94999
365 1 -4.86505e-08 15.7242 22.0139 -8.94963
369 1 6.28968 15.7242 22.0139 -8.94965
389 1 15.7242 18.8691 22.0139 -8.94964
375 1 15.7242 15.7242 22.0139 -8.94962
385 1 9.43453 18.8691 22.0139 -8.94964
381 1 3.14484 18.8691 22.0139 -8.94963
363 1 18.8691 12.5794 22.0139 -8.94964
387 1 12.5794 18.8691 22.0139 -8.94963
526 1 1.57242 17.2966 11.007 -8.94962
