ITEM: TIMESTEP
72
ITEM: NUMBER OF ATOMS
688
ITEM: BOX BOUNDS pp pp pp
0.0000000000000000e+00 2.2013900999999997e+01
0.0000000000000000e+00 2.2013900999999997e+01
0.0000000000000000e+00 2.2013900999999997e+01
ITEM: ATOMS id type x y z c_pot
190 1 1.56963 7.8616 11.0072 -8.95145
2 1 1.57207 1.5722 1.57208 -8.94923
175 1 18.8695 9.43426 9.43451 -8.94829
4 1 4.71704 1.57213 1.57203 -8.94966
174 1 15.7231 9.43499 9.43491 -8.94422
6 1 7.86205 1.57212 1.57202 -8.94953
7 1 9.43452 1.43566e-15 -0.000141977 -8.94959
8 1 11.007 1.5721 1.57203 -8.94955
173 1 12.5665 9.43172 9.42403 -8.94034
10 1 14.152 1.57212 1.57211 -8.94952
172 1 9.35509 9.18494 9.428 -8.12925
12 1 17.297 1.57208 1.57212 -8.94949
189 1 20.4414 4.71676 11.007 -8.94956
14 1 20.4415 1.57228 1.57231 -8.94958
171 1 6.27524 9.42033 9.42808 -9.00257
16 1 1.57212 4.71707 1.57205 -8.94982
170 1 3.13966 9.43376 9.43318 -8.95061
18 1 4.7163 4.71636 1.57097 -8.94952
19 1 6.28952 3.14449 -0.000288107 -8.94951
20 1 7.86181 4.7164 1.57125 -8.94919
169 1 22.0126 9.43441 9.4343 -8.94983
22 1 11.007 4.71632 1.57135 -8.94938
188 1 17.2975 4.71635 11.0068 -8.94909
24 1 14.1523 4.71626 1.5714 -8.94971
168 1 18.8698 6.2889 9.43444 -8.94948
26 1 17.2977 4.71623 1.57155 -8.94848
167 1 15.7261 6.2878 9.43423 -8.94654
28 1 20.4418 4.717 1.57216 -8.94959
166 1 12.5789 6.28843 9.43328 -8.94727
30 1 1.57219 7.86207 1.57208 -8.94945
31 1 3.1446 6.28965 -0.000185661 -8.94972
32 1 4.71684 7.86228 1.57172 -8.94973
165 1 9.42936 6.29163 9.43398 -9.00665
34 1 7.86169 7.86179 1.57025 -8.95229
35 1 9.43425 6.28901 -0.000757928 -8.94963
36 1 11.0067 7.8612 1.56997 -8.95056
164 1 6.27885 6.27852 9.43366 -8.94369
38 1 14.1533 7.86073 1.56946 -8.95129
163 1 3.14049 6.28728 9.43446 -8.94936
40 1 17.2977 7.86155 1.57149 -8.94929
162 1 22.0129 6.28904 9.43449 -8.94989
42 1 20.4418 7.86196 1.5721 -8.9495
43 1 22.0139 9.43449 -0.000121543 -8.9496
161 1 18.8693 3.14442 9.43449 -8.94959
45 1 6.28933 9.43462 -0.00028597 -8.94953
160 1 15.7249 3.14396 9.43442 -8.94958
159 1 12.58 3.14368 9.43416 -8.9487
48 1 15.7252 9.4342 -0.000734456 -8.94938
184 1 4.71361 4.71366 11.0081 -8.94754
50 1 -0.000170693 1.79061e-15 3.14471 -8.9496
51 1 1.57196 1.57211 4.71696 -8.94954
52 1 3.14436 1.85352e-15 3.14434 -8.94955
53 1 4.71646 1.57141 4.71638 -8.94999
54 1 6.28954 1.65317e-15 3.14436 -8.94956
55 1 7.86203 1.57151 4.71652 -8.94958
56 1 9.43459 4.5269e-16 3.14434 -8.94955
57 1 11.0073 1.57158 4.71656 -8.94954
58 1 12.5796 7.9247e-16 3.14441 -8.9495
59 1 14.1522 1.5716 4.71688 -8.95048
60 1 15.7245 1.64598e-15 3.14454 -8.94993
61 1 17.2969 1.57217 4.71721 -8.94968
62 1 18.8691 1.60546e-15 3.14479 -8.94968
63 1 20.4414 1.57228 4.71719 -8.94957
64 1 22.0135 3.14451 3.14451 -8.94951
65 1 1.57096 4.71634 4.71628 -8.94948
66 1 3.14366 3.14378 3.14364 -8.94819
67 1 4.71321 4.71332 4.71314 -8.94421
68 1 6.28919 3.14374 3.14374 -8.94961
69 1 7.86109 4.71401 4.71459 -8.94883
70 1 9.43454 3.14375 3.14385 -8.94942
71 1 11.0076 4.71435 4.71491 -8.94774
72 1 12.5797 3.14374 3.14398 -8.94917
73 1 14.1544 4.71321 4.71471 -8.94944
74 1 15.7252 3.14348 3.14395 -8.94936
75 1 17.2976 4.71631 4.71686 -8.95002
76 1 18.8693 3.14446 3.14464 -8.94973
77 1 20.4414 4.71689 4.71702 -8.9498
78 1 22.0139 6.28952 3.14449 -8.9498
79 1 1.57166 7.86214 4.71664 -8.94979
80 1 3.14388 6.2894 3.14382 -8.95034
81 1 4.71506 7.86206 4.71522 -8.95169
82 1 6.28718 6.28733 3.14047 -8.95029
83 1 7.85679 7.85646 4.70684 -8.95533
84 1 9.43411 6.28749 3.14173 -8.94805
85 1 11.0076 7.85782 4.70881 -8.95206
86 1 12.5804 6.28748 3.1417 -8.94947
87 1 14.1627 7.85208 4.70638 -8.93402
88 1 15.7277 6.28633 3.14152 -8.94551
89 1 17.3001 7.8605 4.7156 -8.95064
90 1 18.8702 6.28897 3.14414 -8.94968
91 1 20.4421 7.86183 4.71685 -8.95005
92 1 -1.90063e-05 9.43445 3.14438 -8.94955
93 1 3.14408 9.43455 3.14393 -8.949
94 1 6.28925 9.43533 3.14374 -8.94939
95 1 9.43485 9.43444 3.14301 -8.95062
96 1 12.5819 9.43342 3.13751 -8.9581
97 1 15.7273 9.43343 3.14187 -8.94788
98 1 18.8703 9.43426 3.14406 -8.94935
99 1 22.0137 1.35324e-15 6.2896 -8.9496
100 1 1.57191 1.57208 7.862 -8.94956
101 1 3.14423 1.05074e-15 6.28935 -8.94943
102 1 4.71622 1.57126 7.86167 -8.94939
103 1 6.2893 1.19678e-15 6.28917 -8.95065
104 1 7.86197 1.57073 7.86185 -8.95144
105 1 9.43476 7.83524e-16 6.28921 -8.95019
106 1 11.0071 1.57166 7.86202 -8.94965
107 1 12.5796 1.40924e-15 6.28952 -8.9503
108 1 14.1523 1.57189 7.86203 -8.94941
109 1 15.7245 1.89561e-15 6.28963 -8.94952
110 1 17.297 1.57214 7.86205 -8.94955
111 1 18.8692 1.74677e-15 6.28963 -8.94957
112 1 20.4415 1.57225 7.86206 -8.94959
113 1 22.0135 3.14445 6.2895 -8.94952
114 1 1.57094 4.71626 7.86176 -8.94942
115 1 3.14353 3.14357 6.28895 -8.94925
116 1 4.71353 4.71333 7.86051 -8.94778
117 1 6.28807 3.14123 6.28799 -8.95163
118 1 7.85928 4.7087 7.86022 -8.95965
119 1 9.43478 3.14205 6.28843 -8.95028
120 1 11.0065 4.71459 7.86144 -8.95279
121 1 12.5799 3.14264 6.28918 -8.95216
122 1 14.1527 4.71571 7.86221 -8.94902
123 1 15.7248 3.14405 6.28968 -8.94959
124 1 17.2974 4.71643 7.86203 -8.94905
125 1 18.8693 3.14449 6.28962 -8.94948
126 1 20.4414 4.71678 7.86199 -8.94956
127 1 -0.00100813 6.28915 6.28919 -8.95013
128 1 1.56933 7.86134 7.86131 -8.95161
129 1 3.14029 6.2873 6.28719 -8.95015
130 1 4.70522 7.85669 7.85754 -8.95584
131 1 6.27643 6.27668 6.2768 -8.92825
132 1 7.81932 7.82297 7.82471 -8.84473
133 1 9.43378 6.28092 6.2839 -8.94908
134 1 11.0223 7.8502 7.8363 -8.89745
135 1 12.5857 6.27974 6.28266 -8.95075
136 1 14.1572 7.85919 7.86156 -8.95046
137 1 15.7268 6.28774 6.28897 -8.95058
138 1 17.2983 7.86153 7.86255 -8.95057
139 1 18.8697 6.28918 6.28961 -8.94996
140 1 20.4414 7.86175 7.862 -8.95007
141 1 22.0136 9.43454 6.28925 -8.94978
142 1 3.14309 9.43518 6.28863 -8.94976
143 1 6.2863 9.43705 6.28748 -8.95306
144 1 9.42294 9.4138 6.28374 -8.91539
145 1 12.6139 9.40715 6.25653 -8.87658
146 1 15.7329 9.43247 6.28641 -8.9565
147 1 18.8711 9.43428 6.28932 -8.95129
148 1 -0.000207436 1.03179e-15 9.43452 -8.9496
149 1 3.14418 1.32181e-15 9.43452 -8.94951
150 1 6.28893 3.79972e-17 9.43439 -8.95032
151 1 9.43477 1.2835e-15 9.4344 -8.94862
152 1 12.5798 1.99376e-15 9.43437 -8.94945
153 1 15.7246 1.71514e-15 9.43448 -8.94966
154 1 18.8692 1.15198e-15 9.43451 -8.9496
155 1 -0.000408537 3.14442 9.43452 -8.94955
156 1 3.14348 3.14359 9.43451 -8.94949
157 1 6.28735 3.14079 9.43422 -8.94951
158 1 9.43449 3.14335 9.43429 -8.94634
177 1 4.71624 1.57132 11.0072 -8.94936
181 1 17.297 1.57212 11.0069 -8.94956
187 1 14.1528 4.71568 11.0061 -8.94879
3 1 3.14472 1.43339e-15 -0.000126534 -8.94966
11 1 15.7243 3.47157e-16 -9.62332e-05 -8.94961
15 1 22.0139 3.14472 -0.000111258 -8.94961
41 1 18.8695 6.28943 -0.000194852 -8.94955
37 1 12.5795 6.28902 -0.000707564 -8.94972
176 1 1.57191 1.57209 11.007 -8.94954
343 1 18.8696 9.43441 18.8695 -8.94952
178 1 7.86182 1.57052 11.0069 -8.95143
179 1 11.0073 1.57139 11.0067 -8.9496
180 1 14.1523 1.57187 11.0068 -8.94941
342 1 15.7255 9.4341 18.8706 -8.94929
182 1 20.4415 1.57225 11.007 -8.94959
341 1 12.5799 9.43411 18.872 -8.95213
340 1 9.4341 9.4344 18.8698 -8.9479
185 1 7.85871 4.70793 11.0075 -8.95785
186 1 11.0072 4.71368 11.006 -8.95052
47 1 12.5796 9.43436 22.0128 -8.95144
339 1 6.28917 9.43457 18.8698 -8.9498
338 1 3.14441 9.43447 18.8695 -8.94955
337 1 -1.74381e-05 9.43448 18.8693 -8.94958
191 1 4.70635 7.85842 11.0095 -8.95833
192 1 7.81938 7.82365 11.0393 -8.90178
193 1 11.0266 7.85103 11.0271 -8.95499
194 1 14.1569 7.85981 11.005 -8.95331
195 1 17.2986 7.86125 11.0063 -8.94983
196 1 20.4415 7.86172 11.0069 -8.94994
197 1 22.0137 1.54281e-15 12.5794 -8.94959
198 1 1.57197 1.57212 14.1521 -8.94956
199 1 3.14423 1.63556e-15 12.5796 -8.94944
200 1 4.7164 1.5714 14.1526 -8.94998
201 1 6.2892 7.30207e-16 12.5798 -8.95055
202 1 7.86186 1.57121 14.1526 -8.94972
203 1 9.43474 1.84567e-15 12.5797 -8.95085
204 1 11.0074 1.57115 14.1526 -8.94982
205 1 12.5797 1.8073e-15 12.5794 -8.9504
206 1 14.1524 1.5714 14.1522 -8.95065
207 1 15.7246 1.40629e-15 12.5793 -8.94953
208 1 17.2969 1.57214 14.1518 -8.94967
209 1 18.8692 1.30031e-15 12.5794 -8.94957
210 1 20.4415 1.57227 14.1519 -8.94956
211 1 -0.000390644 3.14444 12.5795 -8.94949
212 1 1.57104 4.71636 14.1526 -8.94972
213 1 3.14358 3.14364 12.58 -8.94925
214 1 4.7132 4.7133 14.1557 -8.94482
215 1 6.28802 3.14113 12.5808 -8.95143
216 1 7.86041 4.71285 14.1548 -8.94803
217 1 9.43478 3.14058 12.5803 -8.95272
218 1 11.0081 4.71242 14.1549 -8.94694
219 1 12.58 3.14203 12.5796 -8.95262
220 1 14.1549 4.71215 14.1545 -8.9504
221 1 15.7248 3.14396 12.5792 -8.94951
222 1 17.2978 4.71621 14.1521 -8.9502
223 1 18.8693 3.14445 12.5794 -8.94946
224 1 20.4415 4.71686 14.152 -8.94978
225 1 22.013 6.28917 12.5797 -8.95014
226 1 1.57121 7.86177 14.1526 -8.94957
227 1 3.14069 6.28755 12.5813 -8.95089
228 1 4.71403 7.86131 14.154 -8.95117
229 1 6.27702 6.27667 12.591 -8.93011
230 1 7.85399 7.85498 14.1626 -8.98714
231 1 9.43446 6.27299 12.5837 -8.96155
232 1 11.011 7.85381 14.1636 -8.98033
233 1 12.586 6.27703 12.586 -8.95505
234 1 14.1676 7.84745 14.1669 -8.92582
235 1 15.727 6.28759 12.5794 -8.95067
236 1 17.3012 7.86007 14.1537 -8.95173
237 1 18.8699 6.28908 12.5793 -8.94968
238 1 20.4422 7.8617 14.1522 -8.9503
239 1 22.0132 9.43436 12.5798 -8.94995
240 1 3.14142 9.43425 12.5808 -8.94802
241 1 6.28404 9.43462 12.5824 -8.99894
242 1 9.42875 9.37457 12.5996 -9.18494
243 1 12.6248 9.39218 12.6273 -8.88345
244 1 15.7347 9.43224 12.5829 -8.96024
245 1 18.8713 9.43428 12.5796 -8.95189
246 1 -0.000166701 8.87562e-16 15.7243 -8.94961
247 1 1.57205 1.57218 17.297 -8.94927
248 1 3.14433 1.26429e-15 15.7247 -8.94957
249 1 4.71691 1.57205 17.2972 -8.94961
250 1 6.28939 1.77859e-15 15.7248 -8.94961
251 1 7.86199 1.57206 17.2972 -8.94946
252 1 9.43454 2.01306e-15 15.7248 -8.94948
253 1 11.007 1.57203 17.2972 -8.94948
254 1 12.5797 1.5009e-15 15.7248 -8.9496
255 1 14.1521 1.57195 17.2971 -8.94948
256 1 15.7246 7.51529e-16 15.7245 -8.95002
257 1 17.2971 1.572 17.297 -8.94952
258 1 18.8692 5.46613e-16 15.7243 -8.94968
259 1 20.4415 1.57227 17.2968 -8.94963
260 1 22.0136 3.1445 15.7245 -8.94958
261 1 1.57204 4.71698 17.2971 -8.94977
262 1 3.14362 3.14374 15.7254 -8.94834
263 1 4.71606 4.71611 17.2983 -8.94928
264 1 6.28889 3.1434 15.7255 -8.9495
265 1 7.86173 4.71631 17.298 -8.94919
266 1 9.43442 3.14341 15.7254 -8.94907
267 1 11.0069 4.71615 17.298 -8.94948
268 1 12.58 3.14309 15.7255 -8.94906
269 1 14.1527 4.71568 17.2982 -8.94938
270 1 15.7254 3.14313 15.7252 -8.94955
271 1 17.2981 4.71585 17.2979 -8.94797
272 1 18.8694 3.14442 15.7244 -8.94982
273 1 20.4418 4.71689 17.297 -8.94956
274 1 -0.000115285 6.28937 15.7247 -8.94978
275 1 1.57206 7.86198 17.2971 -8.94953
276 1 3.14355 6.28915 15.7254 -8.95012
277 1 4.71646 7.86198 17.2978 -8.94931
278 1 6.28643 6.28663 15.729 -8.94952
279 1 7.86176 7.86197 17.2987 -8.95321
280 1 9.43371 6.28716 15.7271 -8.94768
281 1 11.0062 7.86112 17.2998 -8.95174
282 1 12.5814 6.28572 15.7288 -8.9483
283 1 14.1544 7.85964 17.3015 -8.95064
284 1 15.7292 6.28491 15.7288 -8.94344
285 1 17.2982 7.86131 17.298 -8.94918
286 1 18.8706 6.28873 15.7251 -8.94984
287 1 20.4419 7.8619 17.2971 -8.94952
288 1 22.0138 9.43441 15.7248 -8.94963
289 1 3.14367 9.43447 15.7253 -8.94949
290 1 6.28792 9.43479 15.7264 -8.94843
291 1 9.43471 9.43567 15.7233 -8.99616
292 1 12.585 9.43107 15.7373 -8.95723
293 1 15.7288 9.43295 15.7285 -8.94746
294 1 18.8707 9.43418 15.7252 -8.94937
295 1 22.0138 1.02531e-15 18.8692 -8.94942
296 1 1.57226 1.57227 20.4415 -8.94946
297 1 3.14466 1.01796e-15 18.8693 -8.94961
298 1 4.71716 1.57228 20.4415 -8.9496
299 1 6.2896 1.11193e-15 18.8693 -8.94956
300 1 7.86205 1.57224 20.4415 -8.94958
301 1 9.43451 1.8253e-15 18.8693 -8.94959
302 1 11.007 1.57223 20.4415 -8.94959
303 1 12.5794 1.494e-15 18.8693 -8.94957
304 1 14.1519 1.57225 20.4415 -8.94959
305 1 15.7244 1.32342e-15 18.8693 -8.94955
306 1 17.2968 1.57225 20.4415 -8.94961
307 1 18.8692 7.17708e-16 18.8692 -8.94949
308 1 20.4416 1.57232 20.4415 -8.94939
309 1 -2.30306e-05 3.14469 18.8692 -8.94961
310 1 1.5723 4.71718 20.4415 -8.94967
311 1 3.14442 3.14444 18.8695 -8.94944
312 1 4.71691 4.71693 20.4416 -8.95002
313 1 6.2895 3.14446 18.8695 -8.94953
314 1 7.86189 4.71679 20.4416 -8.94952
315 1 9.43445 3.14436 18.8695 -8.94954
316 1 11.0069 4.71673 20.4416 -8.94955
317 1 12.5794 3.14437 18.8695 -8.94956
318 1 14.152 4.71674 20.4416 -8.9497
319 1 15.7246 3.1443 18.8695 -8.94957
320 1 17.2972 4.71672 20.4416 -8.94948
321 1 18.8695 3.14444 18.8693 -8.94917
322 1 20.4416 4.71713 20.4415 -8.9496
323 1 22.0139 6.28957 18.8693 -8.94957
324 1 1.57225 7.86204 20.4416 -8.94957
325 1 3.1445 6.28956 18.8695 -8.94961
326 1 4.71692 7.86207 20.4417 -8.94961
327 1 6.28923 6.28932 18.8701 -8.95077
328 1 7.86184 7.86196 20.4416 -8.95021
329 1 9.43414 6.2889 18.8701 -8.94942
330 1 11.0066 7.86167 20.4418 -8.95014
331 1 12.5794 6.2889 18.8703 -8.95001
332 1 14.1524 7.8615 20.442 -8.9506
333 1 15.7253 6.28856 18.8705 -8.9497
334 1 17.2973 7.8618 20.4417 -8.94942
335 1 18.8696 6.28936 18.8694 -8.94954
336 1 20.4417 7.86202 20.4415 -8.94958
46 1 9.43428 9.43454 22.0134 -8.9493
5 1 6.28962 8.14461e-16 22.0138 -8.94958
9 1 12.5794 6.48289e-16 22.0138 -8.94958
44 1 3.1445 9.4345 22.0137 -8.94956
39 1 15.725 6.28887 22.0132 -8.94994
17 1 3.14449 3.1445 22.0136 -8.94952
21 1 9.43449 3.14442 22.0136 -8.94955
25 1 15.7245 3.14444 22.0137 -8.94968
27 1 18.8694 3.14452 22.0137 -8.94927
29 1 1.01206e-05 6.28961 22.0138 -8.94956
33 1 6.28924 6.28932 22.0131 -8.95054
1 1 -9.88261e-05 1.3287e-15 22.0138 -8.94937
13 1 18.8692 7.28272e-16 22.0138 -8.94946
23 1 12.5795 3.14443 22.0137 -8.94951
49 1 18.8695 9.43444 22.0137 -8.94955
183 1 1.57095 4.71628 11.0072 -8.94929
344 1 1.57215 11.007 1.57202 -8.94959
345 1 4.71666 11.007 1.57162 -8.94964
346 1 7.86189 11.007 1.5721 -8.94823
347 1 11.0069 11.007 1.57132 -8.94729
348 1 14.1537 11.007 1.5693 -8.94951
349 1 17.2978 11.007 1.57146 -8.9495
350 1 20.4418 11.007 1.57208 -8.94956
351 1 22.0139 12.5794 -0.000121543 -8.9496
352 1 1.57219 14.1518 1.57208 -8.94945
688 3 10.1778 11.007 9.46719 2.28046
354 1 4.71684 14.1516 1.57172 -8.94973
355 1 6.28933 12.5793 -0.00028597 -8.94953
356 1 7.86169 14.1521 1.57025 -8.95229
511 1 18.8693 18.8695 9.43449 -8.94959
358 1 11.0067 14.1527 1.56997 -8.95056
510 1 15.7249 18.8699 9.43442 -8.94958
360 1 14.1533 14.1532 1.56946 -8.95129
361 1 15.7252 12.5797 -0.000734456 -8.94938
362 1 17.2977 14.1523 1.57149 -8.94929
538 1 17.297 20.4418 11.0069 -8.94956
364 1 20.4418 14.1519 1.5721 -8.9495
509 1 12.58 18.8702 9.43416 -8.9487
366 1 1.57212 17.2968 1.57205 -8.94982
367 1 3.1446 15.7243 -0.000185661 -8.94972
368 1 4.7163 17.2975 1.57097 -8.94952
508 1 9.43449 18.8706 9.43429 -8.94634
370 1 7.86181 17.2975 1.57125 -8.94919
371 1 9.43425 15.7249 -0.000757928 -8.94963
372 1 11.007 17.2976 1.57135 -8.94938
507 1 6.28735 18.8731 9.43422 -8.94951
374 1 14.1523 17.2976 1.5714 -8.94971
506 1 3.14348 18.8703 9.43451 -8.94949
376 1 17.2977 17.2977 1.57155 -8.94848
505 1 -0.000408537 18.8695 9.43452 -8.94955
378 1 20.4418 17.2969 1.57216 -8.94959
504 1 18.8698 15.725 9.43444 -8.94948
380 1 1.57207 20.4417 1.57208 -8.94923
503 1 15.7261 15.7261 9.43423 -8.94654
382 1 4.71704 20.4418 1.57203 -8.94966
383 1 6.28952 18.8694 -0.000288107 -8.94951
384 1 7.86205 20.4418 1.57202 -8.94953
502 1 12.5789 15.7255 9.43328 -8.94727
386 1 11.007 20.4418 1.57203 -8.94955
534 1 4.71624 20.4426 11.0072 -8.94936
388 1 14.152 20.4418 1.57211 -8.94952
501 1 9.42936 15.7223 9.43398 -9.00665
390 1 17.297 20.4418 1.57212 -8.94949
500 1 6.27885 15.7354 9.43366 -8.94369
392 1 20.4415 20.4416 1.57231 -8.94958
393 1 1.57166 11.007 4.71639 -8.94947
394 1 4.71558 11.007 4.7152 -8.94608
395 1 7.86446 11.007 4.71922 -8.94607
396 1 11.0108 11.007 4.71867 -8.99409
397 1 14.1608 11.007 4.7085 -8.94245
398 1 17.3002 11.007 4.71538 -8.9492
399 1 20.4422 11.007 4.71672 -8.94987
400 1 -1.90063e-05 12.5794 3.14438 -8.94955
401 1 1.57166 14.1518 4.71664 -8.94979
402 1 3.14408 12.5793 3.14393 -8.949
403 1 4.71506 14.1518 4.71522 -8.95169
404 1 6.28925 12.5786 3.14374 -8.94939
405 1 7.85679 14.1574 4.70684 -8.95533
406 1 9.43485 12.5795 3.14301 -8.95062
407 1 11.0076 14.1561 4.70881 -8.95206
408 1 12.5819 12.5805 3.13751 -8.9581
409 1 14.1627 14.1618 4.70638 -8.93402
410 1 15.7273 12.5805 3.14187 -8.94788
411 1 17.3001 14.1534 4.7156 -8.95064
412 1 18.8703 12.5796 3.14406 -8.94935
413 1 20.4421 14.1521 4.71685 -8.95005
414 1 22.0139 15.7244 3.14449 -8.9498
415 1 1.57096 17.2976 4.71628 -8.94948
416 1 3.14388 15.7245 3.14382 -8.95034
417 1 4.71321 17.3006 4.71314 -8.94421
418 1 6.28718 15.7266 3.14047 -8.95029
419 1 7.86109 17.2999 4.71459 -8.94883
420 1 9.43411 15.7264 3.14173 -8.94805
421 1 11.0076 17.2995 4.71491 -8.94774
422 1 12.5804 15.7264 3.1417 -8.94947
423 1 14.1544 17.3007 4.71471 -8.94944
424 1 15.7277 15.7276 3.14152 -8.94551
425 1 17.2976 17.2976 4.71686 -8.95002
426 1 18.8702 15.7249 3.14414 -8.94968
427 1 20.4414 17.297 4.71702 -8.9498
428 1 22.0135 18.8694 3.14451 -8.94951
429 1 1.57196 20.4418 4.71696 -8.94954
430 1 3.14366 18.8701 3.14364 -8.94819
431 1 4.71646 20.4425 4.71638 -8.94999
432 1 6.28919 18.8702 3.14374 -8.94961
433 1 7.86203 20.4424 4.71652 -8.94958
434 1 9.43454 18.8702 3.14385 -8.94942
435 1 11.0073 20.4423 4.71656 -8.94954
436 1 12.5797 18.8702 3.14398 -8.94917
437 1 14.1522 20.4423 4.71688 -8.95048
438 1 15.7252 18.8704 3.14395 -8.94936
439 1 17.2969 20.4417 4.71721 -8.94968
440 1 18.8693 18.8694 3.14464 -8.94973
441 1 20.4414 20.4416 4.71719 -8.94957
442 1 1.5713 11.007 7.86144 -8.9474
443 1 4.71822 11.007 7.86185 -8.94015
444 1 7.88332 11.007 7.87057 -8.95414
445 1 11.0768 11.007 7.66955 -8.21745
446 1 14.1601 11.007 7.85575 -8.96855
447 1 17.2992 11.007 7.86228 -8.95114
448 1 20.4418 11.007 7.86202 -8.94954
449 1 22.0136 12.5794 6.28925 -8.94978
450 1 1.56933 14.1526 7.86131 -8.95161
451 1 3.14309 12.5787 6.28863 -8.94976
452 1 4.70522 14.1572 7.85754 -8.95584
453 1 6.2863 12.5769 6.28748 -8.95306
454 1 7.81932 14.1909 7.82471 -8.84473
455 1 9.42294 12.6001 6.28374 -8.91539
456 1 11.0223 14.1637 7.8363 -8.89745
457 1 12.6139 12.6068 6.25653 -8.87658
458 1 14.1572 14.1547 7.86156 -8.95046
459 1 15.7329 12.5814 6.28641 -8.9565
460 1 17.2983 14.1524 7.86255 -8.95057
461 1 18.8711 12.5796 6.28932 -8.95129
462 1 20.4414 14.1521 7.862 -8.95007
463 1 -0.00100813 15.7248 6.28919 -8.95013
464 1 1.57094 17.2976 7.86176 -8.94942
465 1 3.14029 15.7266 6.28719 -8.95015
466 1 4.71353 17.3006 7.86051 -8.94778
467 1 6.27643 15.7372 6.2768 -8.92825
468 1 7.85928 17.3052 7.86022 -8.95965
469 1 9.43378 15.733 6.2839 -8.94908
470 1 11.0065 17.2993 7.86144 -8.95279
471 1 12.5857 15.7342 6.28266 -8.95075
472 1 14.1527 17.2982 7.86221 -8.94902
473 1 15.7268 15.7262 6.28897 -8.95058
474 1 17.2974 17.2975 7.86203 -8.94905
475 1 18.8697 15.7247 6.28961 -8.94996
476 1 20.4414 17.2971 7.86199 -8.94956
477 1 22.0135 18.8695 6.2895 -8.94952
478 1 1.57191 20.4418 7.862 -8.94956
479 1 3.14353 18.8703 6.28895 -8.94925
480 1 4.71622 20.4426 7.86167 -8.94939
481 1 6.28807 18.8727 6.28799 -8.95163
482 1 7.86197 20.4432 7.86185 -8.95144
483 1 9.43478 18.8719 6.28843 -8.95028
484 1 11.0071 20.4422 7.86202 -8.94965
485 1 12.5799 18.8713 6.28918 -8.95216
486 1 14.1523 20.442 7.86203 -8.94941
487 1 15.7248 18.8698 6.28968 -8.94959
488 1 17.297 20.4418 7.86205 -8.94955
489 1 18.8693 18.8694 6.28962 -8.94948
490 1 20.4415 20.4416 7.86206 -8.94959
491 1 22.0126 12.5795 9.4343 -8.94983
492 1 3.13966 12.5801 9.43318 -8.95061
493 1 6.27524 12.5936 9.42808 -9.00257
494 1 9.35509 12.829 9.428 -8.12925
495 1 12.5665 12.5822 9.42403 -8.94034
496 1 15.7231 12.5789 9.43491 -8.94422
497 1 18.8695 12.5796 9.43451 -8.94829
498 1 22.0129 15.7249 9.43449 -8.94989
499 1 3.14049 15.7266 9.43446 -8.94936
512 1 1.56948 11.007 11.0072 -8.95121
514 1 7.81814 11.007 10.9712 -9.13233
519 1 1.56963 14.1523 11.0072 -8.95145
532 1 20.4414 17.2971 11.007 -8.94956
527 1 4.71361 17.3002 11.0081 -8.94754
531 1 17.2975 17.2975 11.0068 -8.94909
530 1 14.1528 17.2982 11.0061 -8.94879
373 1 12.5795 15.7249 -0.000707564 -8.94972
377 1 18.8695 15.7245 -0.000194852 -8.94955
379 1 22.0139 18.8692 -0.000111258 -8.94961
687 2 9.45144 11.007 11.7455 0.661726
513 1 4.7067 11.007 11.0056 -8.961
686 1 20.4416 20.4416 20.4415 -8.94939
515 1 11.1849 11.007 11.1932 -8.37912
516 1 14.1523 11.007 11.0153 -8.99258
517 1 17.2983 11.007 11.0066 -8.94843
518 1 20.4415 11.007 11.0069 -8.94964
685 1 18.8695 18.8695 18.8693 -8.94917
520 1 4.70635 14.1555 11.0095 -8.95833
521 1 7.81938 14.1902 11.0393 -8.90178
522 1 11.0266 14.1629 11.0271 -8.95499
523 1 14.1569 14.1541 11.005 -8.95331
524 1 17.2986 14.1526 11.0063 -8.94983
525 1 20.4415 14.1522 11.0069 -8.94994
684 1 17.2968 20.4416 20.4415 -8.94961
683 1 15.7246 18.8696 18.8695 -8.94957
528 1 7.85871 17.306 11.0075 -8.95785
529 1 11.0072 17.3002 11.006 -8.95052
391 1 18.8694 18.8694 22.0137 -8.94927
682 1 14.1519 20.4417 20.4415 -8.94959
681 1 12.5794 18.8695 18.8695 -8.94956
533 1 1.57191 20.4418 11.007 -8.94954
680 1 11.007 20.4417 20.4415 -8.94959
535 1 7.86182 20.4434 11.0069 -8.95143
536 1 11.0073 20.4425 11.0067 -8.9496
537 1 14.1523 20.442 11.0068 -8.94941
679 1 9.43445 18.8695 18.8695 -8.94954
539 1 20.4415 20.4417 11.007 -8.94959
540 1 1.57125 11.007 14.1527 -8.9494
541 1 4.71455 11.007 14.1534 -8.94749
542 1 7.8599 11.007 14.1534 -8.9809
543 1 11.0212 11.007 14.1664 -9.03485
544 1 14.1646 11.007 14.1641 -8.94319
545 1 17.3013 11.007 14.1541 -8.94941
546 1 20.4423 11.007 14.1524 -8.95001
547 1 22.0132 12.5795 12.5798 -8.94995
548 1 1.57121 14.1521 14.1526 -8.94957
549 1 3.14142 12.5797 12.5808 -8.94802
550 1 4.71403 14.1526 14.154 -8.95117
551 1 6.28404 12.5793 12.5824 -8.99894
552 1 7.85399 14.1589 14.1626 -8.98714
553 1 9.42875 12.6393 12.5996 -9.18494
554 1 11.011 14.1601 14.1636 -8.98033
555 1 12.6248 12.6217 12.6273 -8.88345
556 1 14.1676 14.1665 14.1669 -8.92582
557 1 15.7347 12.5817 12.5829 -8.96024
558 1 17.3012 14.1538 14.1537 -8.95173
559 1 18.8713 12.5796 12.5796 -8.95189
560 1 20.4422 14.1522 14.1522 -8.9503
561 1 22.013 15.7247 12.5797 -8.95014
562 1 1.57104 17.2975 14.1526 -8.94972
563 1 3.14069 15.7264 12.5813 -8.95089
564 1 4.7132 17.3006 14.1557 -8.94482
565 1 6.27702 15.7372 12.591 -8.93011
566 1 7.86041 17.301 14.1548 -8.94803
567 1 9.43446 15.7409 12.5837 -8.96155
568 1 11.0081 17.3015 14.1549 -8.94694
569 1 12.586 15.7369 12.586 -8.95505
570 1 14.1549 17.3018 14.1545 -8.9504
571 1 15.727 15.7263 12.5794 -8.95067
572 1 17.2978 17.2977 14.1521 -8.9502
573 1 18.8699 15.7248 12.5793 -8.94968
574 1 20.4415 17.297 14.152 -8.94978
575 1 -0.000390644 18.8695 12.5795 -8.94949
576 1 1.57197 20.4418 14.1521 -8.94956
577 1 3.14358 18.8703 12.58 -8.94925
578 1 4.7164 20.4425 14.1526 -8.94998
579 1 6.28802 18.8728 12.5808 -8.95143
580 1 7.86186 20.4427 14.1526 -8.94972
581 1 9.43478 18.8733 12.5803 -8.95272
582 1 11.0074 20.4428 14.1526 -8.94982
583 1 12.58 18.8719 12.5796 -8.95262
584 1 14.1524 20.4425 14.1522 -8.95065
585 1 15.7248 18.8699 12.5792 -8.94951
586 1 17.2969 20.4418 14.1518 -8.94967
587 1 18.8693 18.8694 12.5794 -8.94946
588 1 20.4415 20.4416 14.1519 -8.94956
589 1 1.572 11.007 17.2972 -8.94956
590 1 4.7163 11.007 17.2978 -8.949
591 1 7.86188 11.007 17.2975 -8.95002
592 1 11.007 11.007 17.3009 -8.95196
593 1 14.1547 11.007 17.3017 -8.94876
594 1 17.2983 11.007 17.2981 -8.94934
595 1 20.4419 11.007 17.2971 -8.94956
596 1 22.0138 12.5795 15.7248 -8.94963
597 1 1.57206 14.1519 17.2971 -8.94953
598 1 3.14367 12.5794 15.7253 -8.94949
599 1 4.71646 14.1519 17.2978 -8.94931
600 1 6.28792 12.5791 15.7264 -8.94843
601 1 7.86176 14.1519 17.2987 -8.95321
602 1 9.43471 12.5782 15.7233 -8.99616
603 1 11.0062 14.1528 17.2998 -8.95174
604 1 12.585 12.5828 15.7373 -8.95723
605 1 14.1544 14.1543 17.3015 -8.95064
606 1 15.7288 12.5809 15.7285 -8.94746
607 1 17.2982 14.1526 17.298 -8.94918
608 1 18.8707 12.5797 15.7252 -8.94937
609 1 20.4419 14.152 17.2971 -8.94952
610 1 -0.000115285 15.7245 15.7247 -8.94978
611 1 1.57204 17.2969 17.2971 -8.94977
612 1 3.14355 15.7248 15.7254 -8.95012
613 1 4.71606 17.2978 17.2983 -8.94928
614 1 6.28643 15.7273 15.729 -8.94952
615 1 7.86173 17.2976 17.298 -8.94919
616 1 9.43371 15.7267 15.7271 -8.94768
617 1 11.0069 17.2977 17.298 -8.94948
618 1 12.5814 15.7282 15.7288 -8.9483
619 1 14.1527 17.2982 17.2982 -8.94938
620 1 15.7292 15.729 15.7288 -8.94344
621 1 17.2981 17.2981 17.2979 -8.94797
622 1 18.8706 15.7252 15.7251 -8.94984
623 1 20.4418 17.297 17.297 -8.94956
624 1 22.0136 18.8694 15.7245 -8.94958
625 1 1.57205 20.4417 17.297 -8.94927
626 1 3.14362 18.8702 15.7254 -8.94834
627 1 4.71691 20.4419 17.2972 -8.94961
628 1 6.28889 18.8705 15.7255 -8.9495
629 1 7.86199 20.4418 17.2972 -8.94946
630 1 9.43442 18.8705 15.7254 -8.94907
631 1 11.007 20.4419 17.2972 -8.94948
632 1 12.58 18.8708 15.7255 -8.94906
633 1 14.1521 20.442 17.2971 -8.94948
634 1 15.7254 18.8708 15.7252 -8.94955
635 1 17.2971 20.4419 17.297 -8.94952
636 1 18.8694 18.8695 15.7244 -8.94982
637 1 20.4415 20.4416 17.2968 -8.94963
638 1 1.57223 11.007 20.4416 -8.94961
639 1 4.71683 11.007 20.4417 -8.94965
640 1 7.86178 11.007 20.4417 -8.94935
641 1 11.0066 11.007 20.4422 -8.94959
642 1 14.1526 11.007 20.4421 -8.95018
643 1 17.2973 11.007 20.4417 -8.94949
644 1 20.4417 11.007 20.4415 -8.94959
645 1 -1.74381e-05 12.5794 18.8693 -8.94958
646 1 1.57225 14.1519 20.4416 -8.94957
647 1 3.14441 12.5794 18.8695 -8.94955
648 1 4.71692 14.1518 20.4417 -8.94961
649 1 6.28917 12.5793 18.8698 -8.9498
650 1 7.86184 14.1519 20.4416 -8.95021
651 1 9.4341 12.5795 18.8698 -8.9479
652 1 11.0066 14.1522 20.4418 -8.95014
653 1 12.5799 12.5798 18.872 -8.95213
654 1 14.1524 14.1524 20.442 -8.9506
655 1 15.7255 12.5798 18.8706 -8.94929
656 1 17.2973 14.1521 20.4417 -8.94942
657 1 18.8696 12.5795 18.8695 -8.94952
658 1 20.4417 14.1519 20.4415 -8.94958
659 1 22.0139 15.7243 18.8693 -8.94957
660 1 1.5723 17.2967 20.4415 -8.94967
661 1 3.1445 15.7243 18.8695 -8.94961
662 1 4.71691 17.297 20.4416 -8.95002
663 1 6.28923 15.7246 18.8701 -8.95077
664 1 7.86189 17.2971 20.4416 -8.94952
665 1 9.43414 15.725 18.8701 -8.94942
666 1 11.0069 17.2972 20.4416 -8.94955
667 1 12.5794 15.725 18.8703 -8.95001
668 1 14.152 17.2972 20.4416 -8.9497
669 1 15.7253 15.7253 18.8705 -8.9497
670 1 17.2972 17.2972 20.4416 -8.94948
671 1 18.8696 15.7245 18.8694 -8.94954
672 1 20.4416 17.2968 20.4415 -8.9496
673 1 -2.30306e-05 18.8692 18.8692 -8.94961
674 1 1.57226 20.4416 20.4415 -8.94946
675 1 3.14442 18.8695 18.8695 -8.94944
676 1 4.71716 20.4416 20.4415 -8.9496
677 1 6.2895 18.8694 18.8695 -8.94953
678 1 7.86205 20.4417 20.4415 -8.94958
353 1 3.1445 12.5794 22.0137 -8.94956
357 1 9.43428 12.5794 22.0134 -8.9493
359 1 12.5796 12.5795 22.0128 -8.95144
365 1 1.01206e-05 15.7243 22.0138 -8.94956
369 1 6.28924 15.7246 22.0131 -8.95054
389 1 15.7245 18.8695 22.0137 -8.94968
375 1 15.725 15.725 22.0132 -8.94994
385 1 9.43449 18.8695 22.0136 -8.94955
381 1 3.14449 18.8694 22.0136 -8.94952
363 1 18.8695 12.5795 22.0137 -8.94955
387 1 12.5795 18.8695 22.0137 -8.94951
526 1 1.57095 17.2976 11.0072 -8.94929
