ITEM: TIMESTEP
71
ITEM: NUMBER OF ATOMS
688
ITEM: BOX BOUNDS pp pp pp
0.0000000000000000e+00 2.2013900999999997e+01
0.0000000000000000e+00 2.2013900999999997e+01
0.0000000000000000e+00 2.2013900999999997e+01
ITEM: ATOMS id type x y z c_pot
190 1 1.56968 7.86161 11.0072 -8.95144
2 1 1.57209 1.57221 1.5721 -8.94923
175 1 18.8695 9.43425 9.43451 -8.9483
4 1 4.71706 1.57215 1.57205 -8.94966
174 1 15.7232 9.43496 9.43489 -8.9442
6 1 7.86205 1.57213 1.57204 -8.94953
7 1 9.43452 1.43942e-15 -0.000133769 -8.9496
8 1 11.007 1.57212 1.57205 -8.94956
173 1 12.5666 9.43178 9.42413 -8.94025
10 1 14.1519 1.57213 1.57212 -8.94952
172 1 9.35497 9.18527 9.42797 -8.12939
12 1 17.2969 1.5721 1.57213 -8.94949
189 1 20.4414 4.71678 11.007 -8.94956
14 1 20.4415 1.57229 1.57232 -8.94958
171 1 6.27523 9.42042 9.42811 -9.00259
16 1 1.57214 4.71709 1.57207 -8.94981
170 1 3.13969 9.43378 9.4332 -8.95062
18 1 4.71633 4.71638 1.57101 -8.94952
19 1 6.28954 3.14451 -0.000274329 -8.94952
20 1 7.86183 4.71643 1.57129 -8.9492
169 1 22.0126 9.43442 9.43431 -8.94984
22 1 11.007 4.71635 1.57138 -8.94938
188 1 17.2975 4.71637 11.0068 -8.94909
24 1 14.1523 4.7163 1.57143 -8.94971
168 1 18.8698 6.28891 9.43444 -8.94948
26 1 17.2976 4.71626 1.57157 -8.94848
167 1 15.7261 6.28782 9.43424 -8.94656
28 1 20.4417 4.71701 1.57217 -8.94959
166 1 12.5789 6.28848 9.4333 -8.9473
30 1 1.5722 7.86207 1.57209 -8.94945
31 1 3.14461 6.28965 -0.000175098 -8.94972
32 1 4.71685 7.86228 1.57175 -8.94973
165 1 9.4294 6.29165 9.43398 -9.00658
34 1 7.86169 7.8618 1.57027 -8.95227
35 1 9.43426 6.28903 -0.000741549 -8.94963
36 1 11.0067 7.86122 1.57 -8.95054
164 1 6.27897 6.27862 9.43367 -8.94371
38 1 14.1532 7.86075 1.5695 -8.95128
163 1 3.14058 6.28733 9.43447 -8.94937
40 1 17.2977 7.86157 1.57151 -8.9493
162 1 22.0129 6.28906 9.43449 -8.94989
42 1 20.4418 7.86197 1.57212 -8.94951
43 1 22.0139 9.4345 -0.000114787 -8.9496
161 1 18.8693 3.14443 9.4345 -8.94959
45 1 6.28934 9.43462 -0.000280404 -8.94953
160 1 15.7249 3.14397 9.43442 -8.94958
159 1 12.58 3.14369 9.43417 -8.9487
48 1 15.7251 9.43421 -0.000721255 -8.94938
184 1 4.7137 4.71373 11.0081 -8.94756
50 1 -0.000157976 1.89405e-15 3.14473 -8.9496
51 1 1.57199 1.57213 4.71698 -8.94955
52 1 3.14438 1.76916e-15 3.14436 -8.94955
53 1 4.71648 1.57144 4.71641 -8.94999
54 1 6.28955 1.63628e-15 3.14438 -8.94957
55 1 7.86204 1.57153 4.71655 -8.94958
56 1 9.43458 5.00089e-16 3.14436 -8.94955
57 1 11.0073 1.5716 4.71658 -8.94954
58 1 12.5796 8.99551e-16 3.14443 -8.9495
59 1 14.1522 1.57162 4.71689 -8.95047
60 1 15.7245 1.80669e-15 3.14456 -8.94992
61 1 17.2969 1.57219 4.71721 -8.94968
62 1 18.8691 1.7789e-15 3.14479 -8.94968
63 1 20.4414 1.57229 4.71719 -8.94958
64 1 22.0136 3.14453 3.14453 -8.94951
65 1 1.571 4.71637 4.71632 -8.94948
66 1 3.1437 3.14381 3.14368 -8.9482
67 1 4.71328 4.71339 4.71321 -8.94423
68 1 6.28922 3.14378 3.14379 -8.94961
69 1 7.86113 4.71408 4.71465 -8.94884
70 1 9.43454 3.14378 3.14388 -8.94943
71 1 11.0076 4.7144 4.71496 -8.94775
72 1 12.5797 3.14377 3.14401 -8.94917
73 1 14.1544 4.71327 4.71476 -8.94945
74 1 15.7251 3.14352 3.14397 -8.94936
75 1 17.2976 4.71634 4.71688 -8.95002
76 1 18.8693 3.14449 3.14465 -8.94973
77 1 20.4414 4.7169 4.71703 -8.94979
78 1 22.0139 6.28953 3.1445 -8.9498
79 1 1.57169 7.86214 4.71666 -8.94979
80 1 3.14391 6.28942 3.14386 -8.95033
81 1 4.71511 7.86208 4.71526 -8.95168
82 1 6.28723 6.28737 3.14053 -8.95029
83 1 7.85684 7.85652 4.7069 -8.95532
84 1 9.43412 6.28754 3.14179 -8.94805
85 1 11.0076 7.85788 4.70888 -8.95204
86 1 12.5804 6.28753 3.14176 -8.94947
87 1 14.1626 7.85211 4.70645 -8.93399
88 1 15.7276 6.28638 3.14157 -8.94551
89 1 17.3 7.86052 4.71563 -8.95064
90 1 18.8702 6.28899 3.14416 -8.94968
91 1 20.4421 7.86184 4.71686 -8.95004
92 1 -2.08042e-05 9.43446 3.1444 -8.94955
93 1 3.14409 9.43455 3.14396 -8.949
94 1 6.28925 9.43533 3.14375 -8.9494
95 1 9.43483 9.43445 3.143 -8.95062
96 1 12.5819 9.43343 3.13754 -8.95809
97 1 15.7272 9.43345 3.14192 -8.9479
98 1 18.8702 9.43427 3.14408 -8.94935
99 1 22.0137 1.33584e-15 6.28961 -8.9496
100 1 1.57194 1.5721 7.86201 -8.94956
101 1 3.14426 1.15521e-15 6.28937 -8.94943
102 1 4.71626 1.57129 7.86168 -8.94939
103 1 6.28931 1.16898e-15 6.28919 -8.95064
104 1 7.86198 1.57075 7.86186 -8.95144
105 1 9.43476 7.27339e-16 6.28922 -8.95018
106 1 11.0071 1.57167 7.86203 -8.94965
107 1 12.5796 1.42969e-15 6.28953 -8.9503
108 1 14.1523 1.5719 7.86203 -8.94941
109 1 15.7245 1.84639e-15 6.28963 -8.94952
110 1 17.297 1.57215 7.86205 -8.94956
111 1 18.8692 1.74899e-15 6.28964 -8.94957
112 1 20.4415 1.57226 7.86207 -8.9496
113 1 22.0135 3.14447 6.28951 -8.94953
114 1 1.57099 4.71629 7.86177 -8.94942
115 1 3.14358 3.14361 6.28898 -8.94926
116 1 4.71362 4.71341 7.86054 -8.94779
117 1 6.28811 3.14128 6.28803 -8.95162
118 1 7.85934 4.70877 7.86025 -8.95963
119 1 9.43479 3.14209 6.28846 -8.95026
120 1 11.0065 4.71462 7.86147 -8.95276
121 1 12.5799 3.14267 6.2892 -8.95215
122 1 14.1527 4.71574 7.86223 -8.94903
123 1 15.7247 3.14408 6.28969 -8.94959
124 1 17.2974 4.71645 7.86203 -8.94905
125 1 18.8693 3.14451 6.28962 -8.94948
126 1 20.4414 4.7168 7.862 -8.94956
127 1 -0.000979874 6.28917 6.28921 -8.95012
128 1 1.56938 7.86135 7.86133 -8.9516
129 1 3.14037 6.28735 6.28724 -8.95015
130 1 4.70531 7.85675 7.85758 -8.95582
131 1 6.27654 6.27678 6.27689 -8.92829
132 1 7.81944 7.82311 7.82479 -8.84478
133 1 9.43382 6.28101 6.28397 -8.94912
134 1 11.0223 7.85033 7.83643 -8.89763
135 1 12.5857 6.27981 6.28276 -8.95081
136 1 14.1572 7.85923 7.86162 -8.95044
137 1 15.7268 6.28777 6.28901 -8.95058
138 1 17.2983 7.86153 7.86255 -8.95054
139 1 18.8697 6.28919 6.28961 -8.94994
140 1 20.4414 7.86176 7.862 -8.95006
141 1 22.0136 9.43454 6.28926 -8.94978
142 1 3.14311 9.43518 6.28865 -8.94975
143 1 6.28632 9.43706 6.28748 -8.95305
144 1 9.42295 9.41389 6.28371 -8.91536
145 1 12.6139 9.40712 6.25656 -8.87634
146 1 15.7329 9.43248 6.28645 -8.95652
147 1 18.8711 9.43428 6.28933 -8.95129
148 1 -0.000192835 1.04214e-15 9.43452 -8.9496
149 1 3.14422 1.36225e-15 9.43452 -8.94952
150 1 6.28895 8.78352e-17 9.4344 -8.95031
151 1 9.43477 1.22567e-15 9.4344 -8.94864
152 1 12.5798 1.88542e-15 9.43437 -8.94945
153 1 15.7246 1.61876e-15 9.43448 -8.94966
154 1 18.8692 1.15075e-15 9.43452 -8.94961
155 1 -0.000387418 3.14444 9.43452 -8.94955
156 1 3.14354 3.14363 9.43451 -8.94949
157 1 6.2874 3.14085 9.43423 -8.94951
158 1 9.43451 3.14335 9.4343 -8.94635
177 1 4.71628 1.57135 11.0072 -8.94936
181 1 17.297 1.57213 11.0069 -8.94957
187 1 14.1528 4.71571 11.0061 -8.9488
3 1 3.14473 1.44702e-15 -0.000117427 -8.94966
11 1 15.7243 3.67845e-16 -9.05911e-05 -8.94961
15 1 22.0139 3.14473 -0.000104124 -8.94962
41 1 18.8694 6.28945 -0.000187518 -8.94956
37 1 12.5794 6.28905 -0.000690999 -8.94971
176 1 1.57194 1.5721 11.007 -8.94955
343 1 18.8696 9.43442 18.8695 -8.94952
178 1 7.86183 1.57054 11.0069 -8.95142
179 1 11.0073 1.5714 11.0067 -8.9496
180 1 14.1523 1.57189 11.0068 -8.94941
342 1 15.7254 9.43412 18.8705 -8.94929
182 1 20.4415 1.57226 11.007 -8.9496
341 1 12.5799 9.43412 18.872 -8.95212
340 1 9.4341 9.43439 18.8698 -8.94792
185 1 7.85877 4.708 11.0075 -8.95782
186 1 11.0072 4.71371 11.006 -8.9505
47 1 12.5796 9.43436 22.0128 -8.95143
339 1 6.28917 9.43457 18.8698 -8.9498
338 1 3.14442 9.43447 18.8695 -8.94955
337 1 -2.1056e-05 9.43448 18.8693 -8.94958
191 1 4.70644 7.85848 11.0095 -8.95831
192 1 7.8195 7.82379 11.0392 -8.90185
193 1 11.0265 7.85114 11.027 -8.95514
194 1 14.1569 7.85985 11.0049 -8.95327
195 1 17.2986 7.86126 11.0063 -8.94981
196 1 20.4415 7.86173 11.0069 -8.94994
197 1 22.0137 1.45184e-15 12.5794 -8.9496
198 1 1.57199 1.57213 14.152 -8.94956
199 1 3.14426 1.59062e-15 12.5796 -8.94944
200 1 4.71643 1.57143 14.1526 -8.94997
201 1 6.28922 8.18598e-16 12.5798 -8.95054
202 1 7.86186 1.57124 14.1526 -8.94972
203 1 9.43473 1.70367e-15 12.5797 -8.95085
204 1 11.0074 1.57117 14.1526 -8.94981
205 1 12.5797 1.6418e-15 12.5794 -8.95039
206 1 14.1523 1.57142 14.1521 -8.95064
207 1 15.7245 1.42416e-15 12.5793 -8.94953
208 1 17.2969 1.57215 14.1518 -8.94967
209 1 18.8692 1.28318e-15 12.5794 -8.94958
210 1 20.4415 1.57228 14.1519 -8.94957
211 1 -0.0003712 3.14446 12.5795 -8.94949
212 1 1.57108 4.71639 14.1526 -8.94971
213 1 3.14363 3.14368 12.58 -8.94926
214 1 4.71327 4.71337 14.1556 -8.94484
215 1 6.28806 3.14119 12.5808 -8.95142
216 1 7.86044 4.71291 14.1547 -8.94805
217 1 9.43479 3.14062 12.5803 -8.95271
218 1 11.0081 4.71248 14.1548 -8.94695
219 1 12.5799 3.14208 12.5796 -8.95259
220 1 14.1549 4.71223 14.1545 -8.95041
221 1 15.7248 3.14399 12.5792 -8.94951
222 1 17.2977 4.71625 14.152 -8.9502
223 1 18.8693 3.14447 12.5794 -8.94946
224 1 20.4415 4.71688 14.152 -8.94978
225 1 22.0131 6.28919 12.5797 -8.95013
226 1 1.57123 7.86178 14.1526 -8.94957
227 1 3.14076 6.28759 12.5812 -8.95088
228 1 4.71407 7.86134 14.154 -8.95118
229 1 6.27713 6.27678 12.5909 -8.93015
230 1 7.85399 7.85499 14.1626 -8.98711
231 1 9.43447 6.27306 12.5836 -8.9616
232 1 11.0109 7.85387 14.1635 -8.98032
233 1 12.5859 6.27714 12.5859 -8.95508
234 1 14.1675 7.84754 14.1667 -8.92588
235 1 15.7269 6.28763 12.5794 -8.95067
236 1 17.3011 7.8601 14.1537 -8.95171
237 1 18.8699 6.2891 12.5793 -8.94968
238 1 20.4422 7.86171 14.1522 -8.9503
239 1 22.0132 9.43436 12.5798 -8.94995
240 1 3.14146 9.43425 12.5808 -8.94801
241 1 6.28408 9.43465 12.5824 -8.99902
242 1 9.42868 9.37453 12.5997 -9.18486
243 1 12.6247 9.39229 12.6271 -8.88377
244 1 15.7346 9.43224 12.5829 -8.96019
245 1 18.8713 9.43428 12.5796 -8.95187
246 1 -0.000154627 7.09837e-16 15.7243 -8.94961
247 1 1.57207 1.5722 17.297 -8.94928
248 1 3.14435 1.21818e-15 15.7247 -8.94957
249 1 4.71693 1.57206 17.2971 -8.94961
250 1 6.2894 1.74191e-15 15.7248 -8.94961
251 1 7.862 1.57207 17.2971 -8.94946
252 1 9.43454 2.14189e-15 15.7248 -8.94949
253 1 11.007 1.57204 17.2971 -8.94949
254 1 12.5797 1.83848e-15 15.7248 -8.9496
255 1 14.1521 1.57197 17.2971 -8.94948
256 1 15.7246 7.98546e-16 15.7245 -8.95001
257 1 17.297 1.57202 17.297 -8.94953
258 1 18.8692 4.89252e-16 15.7243 -8.94968
259 1 20.4415 1.57228 17.2967 -8.94963
260 1 22.0136 3.14452 15.7245 -8.94958
261 1 1.57206 4.71699 17.2971 -8.94977
262 1 3.14365 3.14377 15.7253 -8.94835
263 1 4.71609 4.71613 17.2983 -8.94927
264 1 6.28892 3.14343 15.7255 -8.94951
265 1 7.86174 4.71633 17.2979 -8.94919
266 1 9.43443 3.14345 15.7253 -8.94907
267 1 11.0069 4.71619 17.2979 -8.94948
268 1 12.58 3.14313 15.7254 -8.94906
269 1 14.1526 4.71573 17.2982 -8.94938
270 1 15.7254 3.14318 15.7252 -8.94955
271 1 17.298 4.7159 17.2979 -8.94798
272 1 18.8694 3.14445 15.7244 -8.94982
273 1 20.4418 4.71691 17.297 -8.94957
274 1 -0.000113158 6.28938 15.7246 -8.94977
275 1 1.57207 7.86199 17.2971 -8.94953
276 1 3.14358 6.28917 15.7253 -8.95011
277 1 4.71647 7.86198 17.2978 -8.9493
278 1 6.28646 6.28666 15.729 -8.94949
279 1 7.86176 7.86197 17.2987 -8.9532
280 1 9.43372 6.2872 15.727 -8.94769
281 1 11.0062 7.86114 17.2998 -8.95173
282 1 12.5814 6.28579 15.7288 -8.94829
283 1 14.1543 7.85969 17.3014 -8.95064
284 1 15.7291 6.28499 15.7287 -8.94346
285 1 17.2982 7.86135 17.298 -8.94919
286 1 18.8705 6.28876 15.7251 -8.94984
287 1 20.4419 7.86191 17.2971 -8.94952
288 1 22.0138 9.43441 15.7248 -8.94963
289 1 3.14369 9.43447 15.7253 -8.94949
290 1 6.28792 9.43479 15.7264 -8.94843
291 1 9.43467 9.43566 15.7234 -8.99622
292 1 12.585 9.43111 15.7372 -8.95721
293 1 15.7287 9.43299 15.7284 -8.94748
294 1 18.8707 9.43419 15.7252 -8.94937
295 1 22.0138 9.75004e-16 18.8691 -8.94943
296 1 1.57227 1.57228 20.4415 -8.94947
297 1 3.14467 8.7489e-16 18.8692 -8.94961
298 1 4.71717 1.57229 20.4415 -8.94961
299 1 6.28961 1.158e-15 18.8693 -8.94956
300 1 7.86206 1.57225 20.4415 -8.94959
301 1 9.43451 1.74631e-15 18.8693 -8.94959
302 1 11.007 1.57224 20.4415 -8.94959
303 1 12.5794 1.44322e-15 18.8693 -8.94958
304 1 14.1519 1.57226 20.4415 -8.9496
305 1 15.7244 1.33565e-15 18.8693 -8.94956
306 1 17.2968 1.57226 20.4415 -8.94962
307 1 18.8692 6.88146e-16 18.8692 -8.94949
308 1 20.4416 1.57233 20.4415 -8.9494
309 1 -2.15751e-05 3.1447 18.8692 -8.94961
310 1 1.57231 4.71719 20.4415 -8.94967
311 1 3.14444 3.14445 18.8695 -8.94944
312 1 4.71692 4.71694 20.4416 -8.95001
313 1 6.28951 3.14448 18.8695 -8.94954
314 1 7.8619 4.71681 20.4416 -8.94952
315 1 9.43446 3.14438 18.8695 -8.94955
316 1 11.0069 4.71675 20.4416 -8.94955
317 1 12.5794 3.14439 18.8695 -8.94957
318 1 14.152 4.71677 20.4416 -8.94969
319 1 15.7245 3.14433 18.8695 -8.94957
320 1 17.2971 4.71674 20.4416 -8.94948
321 1 18.8694 3.14447 18.8693 -8.94918
322 1 20.4416 4.71714 20.4415 -8.9496
323 1 22.0139 6.28958 18.8693 -8.94957
324 1 1.57226 7.86205 20.4416 -8.94958
325 1 3.14451 6.28956 18.8695 -8.9496
326 1 4.71693 7.86207 20.4417 -8.94961
327 1 6.28924 6.28932 18.87 -8.95076
328 1 7.86184 7.86196 20.4416 -8.95021
329 1 9.43415 6.28892 18.87 -8.94942
330 1 11.0066 7.86168 20.4418 -8.95014
331 1 12.5794 6.28892 18.8703 -8.95001
332 1 14.1523 7.86151 20.442 -8.95059
333 1 15.7253 6.2886 18.8704 -8.9497
334 1 17.2972 7.86181 20.4417 -8.94942
335 1 18.8696 6.28938 18.8694 -8.94954
336 1 20.4416 7.86203 20.4415 -8.94959
46 1 9.43428 9.43453 22.0134 -8.94931
5 1 6.28963 8.80285e-16 22.0138 -8.94958
9 1 12.5794 7.05003e-16 22.0138 -8.94959
44 1 3.14451 9.4345 22.0137 -8.94956
39 1 15.725 6.28889 22.0132 -8.94993
17 1 3.14451 3.14452 22.0136 -8.94953
21 1 9.43449 3.14444 22.0136 -8.94955
25 1 15.7244 3.14446 22.0137 -8.94968
27 1 18.8694 3.14454 22.0138 -8.94928
29 1 8.04187e-06 6.28962 22.0138 -8.94957
33 1 6.28926 6.28933 22.0131 -8.95052
1 1 -9.24776e-05 1.27086e-15 22.0138 -8.94938
13 1 18.8692 7.53015e-16 22.0138 -8.94947
23 1 12.5794 3.14445 22.0137 -8.94952
49 1 18.8695 9.43444 22.0137 -8.94956
183 1 1.571 4.71632 11.0072 -8.94929
344 1 1.57215 11.007 1.57204 -8.9496
345 1 4.71666 11.007 1.57164 -8.94964
346 1 7.86188 11.007 1.57209 -8.94825
347 1 11.0069 11.007 1.57131 -8.94731
348 1 14.1537 11.007 1.56934 -8.9495
349 1 17.2977 11.007 1.57149 -8.94951
350 1 20.4418 11.007 1.57209 -8.94956
351 1 22.0139 12.5794 -0.000114787 -8.9496
352 1 1.5722 14.1518 1.57209 -8.94945
688 3 10.1785 11.007 9.46709 2.28127
354 1 4.71685 14.1516 1.57175 -8.94973
355 1 6.28934 12.5793 -0.000280404 -8.94953
356 1 7.86169 14.1521 1.57027 -8.95227
511 1 18.8693 18.8695 9.4345 -8.94959
358 1 11.0067 14.1527 1.57 -8.95054
510 1 15.7249 18.8699 9.43442 -8.94958
360 1 14.1532 14.1531 1.5695 -8.95128
361 1 15.7251 12.5797 -0.000721255 -8.94938
362 1 17.2977 14.1523 1.57151 -8.9493
538 1 17.297 20.4418 11.0069 -8.94957
364 1 20.4418 14.1519 1.57212 -8.94951
509 1 12.58 18.8702 9.43417 -8.9487
366 1 1.57214 17.2968 1.57207 -8.94981
367 1 3.14461 15.7243 -0.000175098 -8.94972
368 1 4.71633 17.2975 1.57101 -8.94952
508 1 9.43451 18.8705 9.4343 -8.94635
370 1 7.86183 17.2975 1.57129 -8.9492
371 1 9.43426 15.7249 -0.000741549 -8.94963
372 1 11.007 17.2976 1.57138 -8.94938
507 1 6.2874 18.8731 9.43423 -8.94951
374 1 14.1523 17.2976 1.57143 -8.94971
506 1 3.14354 18.8703 9.43451 -8.94949
376 1 17.2976 17.2976 1.57157 -8.94848
505 1 -0.000387418 18.8695 9.43452 -8.94955
378 1 20.4417 17.2969 1.57217 -8.94959
504 1 18.8698 15.725 9.43444 -8.94948
380 1 1.57209 20.4417 1.5721 -8.94923
503 1 15.7261 15.7261 9.43424 -8.94656
382 1 4.71706 20.4418 1.57205 -8.94966
383 1 6.28954 18.8694 -0.000274329 -8.94952
384 1 7.86205 20.4418 1.57204 -8.94953
502 1 12.5789 15.7254 9.4333 -8.9473
386 1 11.007 20.4418 1.57205 -8.94956
534 1 4.71628 20.4426 11.0072 -8.94936
388 1 14.1519 20.4418 1.57212 -8.94952
501 1 9.4294 15.7223 9.43398 -9.00658
390 1 17.2969 20.4418 1.57213 -8.94949
500 1 6.27897 15.7353 9.43367 -8.94371
392 1 20.4415 20.4416 1.57232 -8.94958
393 1 1.57167 11.007 4.71641 -8.94947
394 1 4.71559 11.007 4.71522 -8.94609
395 1 7.86444 11.007 4.71917 -8.94609
396 1 11.0108 11.007 4.71863 -8.99416
397 1 14.1607 11.007 4.70857 -8.94246
398 1 17.3002 11.007 4.71541 -8.9492
399 1 20.4422 11.007 4.71673 -8.94986
400 1 -2.08042e-05 12.5794 3.1444 -8.94955
401 1 1.57169 14.1518 4.71666 -8.94979
402 1 3.14409 12.5793 3.14396 -8.949
403 1 4.71511 14.1518 4.71526 -8.95168
404 1 6.28925 12.5786 3.14375 -8.9494
405 1 7.85684 14.1574 4.7069 -8.95532
406 1 9.43483 12.5795 3.143 -8.95062
407 1 11.0076 14.156 4.70888 -8.95204
408 1 12.5819 12.5805 3.13754 -8.95809
409 1 14.1626 14.1618 4.70645 -8.93399
410 1 15.7272 12.5805 3.14192 -8.9479
411 1 17.3 14.1534 4.71563 -8.95064
412 1 18.8702 12.5796 3.14408 -8.94935
413 1 20.4421 14.1521 4.71686 -8.95004
414 1 22.0139 15.7244 3.1445 -8.9498
415 1 1.571 17.2975 4.71632 -8.94948
416 1 3.14391 15.7245 3.14386 -8.95033
417 1 4.71328 17.3005 4.71321 -8.94423
418 1 6.28723 15.7265 3.14053 -8.95029
419 1 7.86113 17.2998 4.71465 -8.94884
420 1 9.43412 15.7264 3.14179 -8.94805
421 1 11.0076 17.2995 4.71496 -8.94775
422 1 12.5804 15.7264 3.14176 -8.94947
423 1 14.1544 17.3006 4.71476 -8.94945
424 1 15.7276 15.7275 3.14157 -8.94551
425 1 17.2976 17.2976 4.71688 -8.95002
426 1 18.8702 15.7249 3.14416 -8.94968
427 1 20.4414 17.297 4.71703 -8.94979
428 1 22.0136 18.8694 3.14453 -8.94951
429 1 1.57199 20.4418 4.71698 -8.94955
430 1 3.1437 18.8701 3.14368 -8.9482
431 1 4.71648 20.4425 4.71641 -8.94999
432 1 6.28922 18.8701 3.14379 -8.94961
433 1 7.86204 20.4424 4.71655 -8.94958
434 1 9.43454 18.8701 3.14388 -8.94943
435 1 11.0073 20.4423 4.71658 -8.94954
436 1 12.5797 18.8701 3.14401 -8.94917
437 1 14.1522 20.4423 4.71689 -8.95047
438 1 15.7251 18.8704 3.14397 -8.94936
439 1 17.2969 20.4417 4.71721 -8.94968
440 1 18.8693 18.8694 3.14465 -8.94973
441 1 20.4414 20.4416 4.71719 -8.94958
442 1 1.57132 11.007 7.86144 -8.94742
443 1 4.71819 11.007 7.86185 -8.94017
444 1 7.8832 11.007 7.87049 -8.95423
445 1 11.077 11.007 7.6692 -8.21688
446 1 14.1602 11.007 7.85578 -8.9686
447 1 17.2992 11.007 7.86229 -8.95115
448 1 20.4418 11.007 7.86202 -8.94955
449 1 22.0136 12.5794 6.28926 -8.94978
450 1 1.56938 14.1525 7.86133 -8.9516
451 1 3.14311 12.5787 6.28865 -8.94975
452 1 4.70531 14.1572 7.85758 -8.95582
453 1 6.28632 12.5768 6.28748 -8.95305
454 1 7.81944 14.1908 7.82479 -8.84478
455 1 9.42295 12.6 6.28371 -8.91536
456 1 11.0223 14.1636 7.83643 -8.89763
457 1 12.6139 12.6068 6.25656 -8.87634
458 1 14.1572 14.1547 7.86162 -8.95044
459 1 15.7329 12.5814 6.28645 -8.95652
460 1 17.2983 14.1524 7.86255 -8.95054
461 1 18.8711 12.5796 6.28933 -8.95129
462 1 20.4414 14.1521 7.862 -8.95006
463 1 -0.000979874 15.7247 6.28921 -8.95012
464 1 1.57099 17.2976 7.86177 -8.94942
465 1 3.14037 15.7266 6.28724 -8.95015
466 1 4.71362 17.3005 7.86054 -8.94779
467 1 6.27654 15.7371 6.27689 -8.92829
468 1 7.85934 17.3051 7.86025 -8.95963
469 1 9.43382 15.7329 6.28397 -8.94912
470 1 11.0065 17.2993 7.86147 -8.95276
471 1 12.5857 15.7341 6.28276 -8.95081
472 1 14.1527 17.2982 7.86223 -8.94903
473 1 15.7268 15.7261 6.28901 -8.95058
474 1 17.2974 17.2974 7.86203 -8.94905
475 1 18.8697 15.7247 6.28961 -8.94994
476 1 20.4414 17.2971 7.862 -8.94956
477 1 22.0135 18.8694 6.28951 -8.94953
478 1 1.57194 20.4418 7.86201 -8.94956
479 1 3.14358 18.8703 6.28898 -8.94926
480 1 4.71626 20.4426 7.86168 -8.94939
481 1 6.28811 18.8726 6.28803 -8.95162
482 1 7.86198 20.4431 7.86186 -8.95144
483 1 9.43479 18.8718 6.28846 -8.95026
484 1 11.0071 20.4422 7.86203 -8.94965
485 1 12.5799 18.8712 6.2892 -8.95215
486 1 14.1523 20.442 7.86203 -8.94941
487 1 15.7247 18.8698 6.28969 -8.94959
488 1 17.297 20.4418 7.86205 -8.94956
489 1 18.8693 18.8694 6.28962 -8.94948
490 1 20.4415 20.4416 7.86207 -8.9496
491 1 22.0126 12.5795 9.43431 -8.94984
492 1 3.13969 12.5801 9.4332 -8.95062
493 1 6.27523 12.5935 9.42811 -9.00259
494 1 9.35497 12.8286 9.42797 -8.12939
495 1 12.5666 12.5821 9.42413 -8.94025
496 1 15.7232 12.5789 9.43489 -8.9442
497 1 18.8695 12.5796 9.43451 -8.9483
498 1 22.0129 15.7248 9.43449 -8.94989
499 1 3.14058 15.7266 9.43447 -8.94937
512 1 1.5695 11.007 11.0072 -8.95121
514 1 7.81818 11.007 10.9712 -9.13291
519 1 1.56968 14.1523 11.0072 -8.95144
532 1 20.4414 17.2971 11.007 -8.94956
527 1 4.7137 17.3002 11.0081 -8.94756
531 1 17.2975 17.2975 11.0068 -8.94909
530 1 14.1528 17.2982 11.0061 -8.9488
373 1 12.5794 15.7249 -0.000690999 -8.94971
377 1 18.8694 15.7245 -0.000187518 -8.94956
379 1 22.0139 18.8692 -0.000104124 -8.94962
687 2 9.451 11.007 11.746 0.662779
513 1 4.70671 11.007 11.0056 -8.96098
686 1 20.4416 20.4416 20.4415 -8.9494
515 1 11.1843 11.007 11.1931 -8.37869
516 1 14.1526 11.007 11.0152 -8.99241
517 1 17.2983 11.007 11.0066 -8.94851
518 1 20.4415 11.007 11.0069 -8.94966
685 1 18.8694 18.8694 18.8693 -8.94918
520 1 4.70644 14.1554 11.0095 -8.95831
521 1 7.8195 14.1901 11.0392 -8.90185
522 1 11.0265 14.1628 11.027 -8.95514
523 1 14.1569 14.1541 11.0049 -8.95327
524 1 17.2986 14.1526 11.0063 -8.94981
525 1 20.4415 14.1522 11.0069 -8.94994
684 1 17.2968 20.4416 20.4415 -8.94962
683 1 15.7245 18.8696 18.8695 -8.94957
528 1 7.85877 17.3059 11.0075 -8.95782
529 1 11.0072 17.3002 11.006 -8.9505
391 1 18.8694 18.8694 22.0138 -8.94928
682 1 14.1519 20.4416 20.4415 -8.9496
681 1 12.5794 18.8695 18.8695 -8.94957
533 1 1.57194 20.4418 11.007 -8.94955
680 1 11.007 20.4417 20.4415 -8.94959
535 1 7.86183 20.4434 11.0069 -8.95142
536 1 11.0073 20.4425 11.0067 -8.9496
537 1 14.1523 20.442 11.0068 -8.94941
679 1 9.43446 18.8695 18.8695 -8.94955
539 1 20.4415 20.4416 11.007 -8.9496
540 1 1.57126 11.007 14.1527 -8.9494
541 1 4.71457 11.007 14.1534 -8.94751
542 1 7.85989 11.007 14.1535 -8.98084
543 1 11.021 11.007 14.1664 -9.03484
544 1 14.1645 11.007 14.164 -8.94321
545 1 17.3013 11.007 14.1541 -8.9494
546 1 20.4423 11.007 14.1524 -8.95
547 1 22.0132 12.5795 12.5798 -8.94995
548 1 1.57123 14.1521 14.1526 -8.94957
549 1 3.14146 12.5796 12.5808 -8.94801
550 1 4.71407 14.1526 14.154 -8.95118
551 1 6.28408 12.5793 12.5824 -8.99902
552 1 7.85399 14.1589 14.1626 -8.98711
553 1 9.42868 12.6394 12.5997 -9.18486
554 1 11.0109 14.16 14.1635 -8.98032
555 1 12.6247 12.6216 12.6271 -8.88377
556 1 14.1675 14.1664 14.1667 -8.92588
557 1 15.7346 12.5817 12.5829 -8.96019
558 1 17.3011 14.1538 14.1537 -8.95171
559 1 18.8713 12.5796 12.5796 -8.95187
560 1 20.4422 14.1522 14.1522 -8.9503
561 1 22.0131 15.7247 12.5797 -8.95013
562 1 1.57108 17.2975 14.1526 -8.94971
563 1 3.14076 15.7263 12.5812 -8.95088
564 1 4.71327 17.3005 14.1556 -8.94484
565 1 6.27713 15.7371 12.5909 -8.93015
566 1 7.86044 17.301 14.1547 -8.94805
567 1 9.43447 15.7408 12.5836 -8.9616
568 1 11.0081 17.3014 14.1548 -8.94695
569 1 12.5859 15.7368 12.5859 -8.95508
570 1 14.1549 17.3017 14.1545 -8.95041
571 1 15.7269 15.7263 12.5794 -8.95067
572 1 17.2977 17.2977 14.152 -8.9502
573 1 18.8699 15.7248 12.5793 -8.94968
574 1 20.4415 17.297 14.152 -8.94978
575 1 -0.0003712 18.8694 12.5795 -8.94949
576 1 1.57199 20.4418 14.152 -8.94956
577 1 3.14363 18.8702 12.58 -8.94926
578 1 4.71643 20.4425 14.1526 -8.94997
579 1 6.28806 18.8727 12.5808 -8.95142
580 1 7.86186 20.4427 14.1526 -8.94972
581 1 9.43479 18.8733 12.5803 -8.95271
582 1 11.0074 20.4427 14.1526 -8.94981
583 1 12.5799 18.8718 12.5796 -8.95259
584 1 14.1523 20.4425 14.1521 -8.95064
585 1 15.7248 18.8699 12.5792 -8.94951
586 1 17.2969 20.4417 14.1518 -8.94967
587 1 18.8693 18.8694 12.5794 -8.94946
588 1 20.4415 20.4416 14.1519 -8.94957
589 1 1.57201 11.007 17.2972 -8.94956
590 1 4.71631 11.007 17.2978 -8.94901
591 1 7.86187 11.007 17.2975 -8.95001
592 1 11.007 11.007 17.3009 -8.95196
593 1 14.1547 11.007 17.3016 -8.94875
594 1 17.2982 11.007 17.298 -8.94935
595 1 20.4419 11.007 17.2971 -8.94956
596 1 22.0138 12.5795 15.7248 -8.94963
597 1 1.57207 14.1519 17.2971 -8.94953
598 1 3.14369 12.5794 15.7253 -8.94949
599 1 4.71647 14.1519 17.2978 -8.9493
600 1 6.28792 12.5791 15.7264 -8.94843
601 1 7.86176 14.1519 17.2987 -8.9532
602 1 9.43467 12.5782 15.7234 -8.99622
603 1 11.0062 14.1528 17.2998 -8.95173
604 1 12.585 12.5828 15.7372 -8.95721
605 1 14.1543 14.1542 17.3014 -8.95064
606 1 15.7287 12.5809 15.7284 -8.94748
607 1 17.2982 14.1526 17.298 -8.94919
608 1 18.8707 12.5797 15.7252 -8.94937
609 1 20.4419 14.152 17.2971 -8.94952
610 1 -0.000113158 15.7245 15.7246 -8.94977
611 1 1.57206 17.2969 17.2971 -8.94977
612 1 3.14358 15.7247 15.7253 -8.95011
613 1 4.71609 17.2978 17.2983 -8.94927
614 1 6.28646 15.7272 15.729 -8.94949
615 1 7.86174 17.2976 17.2979 -8.94919
616 1 9.43372 15.7267 15.727 -8.94769
617 1 11.0069 17.2977 17.2979 -8.94948
618 1 12.5814 15.7281 15.7288 -8.94829
619 1 14.1526 17.2982 17.2982 -8.94938
620 1 15.7291 15.7289 15.7287 -8.94346
621 1 17.298 17.298 17.2979 -8.94798
622 1 18.8705 15.7251 15.7251 -8.94984
623 1 20.4418 17.297 17.297 -8.94957
624 1 22.0136 18.8694 15.7245 -8.94958
625 1 1.57207 20.4417 17.297 -8.94928
626 1 3.14365 18.8701 15.7253 -8.94835
627 1 4.71693 20.4418 17.2971 -8.94961
628 1 6.28892 18.8705 15.7255 -8.94951
629 1 7.862 20.4418 17.2971 -8.94946
630 1 9.43443 18.8705 15.7253 -8.94907
631 1 11.007 20.4419 17.2971 -8.94949
632 1 12.58 18.8708 15.7254 -8.94906
633 1 14.1521 20.4419 17.2971 -8.94948
634 1 15.7254 18.8707 15.7252 -8.94955
635 1 17.297 20.4419 17.297 -8.94953
636 1 18.8694 18.8695 15.7244 -8.94982
637 1 20.4415 20.4416 17.2967 -8.94963
638 1 1.57224 11.007 20.4416 -8.94961
639 1 4.71685 11.007 20.4417 -8.94965
640 1 7.86179 11.007 20.4417 -8.94936
641 1 11.0066 11.007 20.4422 -8.94961
642 1 14.1526 11.007 20.4421 -8.95017
643 1 17.2973 11.007 20.4417 -8.94949
644 1 20.4417 11.007 20.4415 -8.94959
645 1 -2.1056e-05 12.5794 18.8693 -8.94958
646 1 1.57226 14.1519 20.4416 -8.94958
647 1 3.14442 12.5794 18.8695 -8.94955
648 1 4.71693 14.1518 20.4417 -8.94961
649 1 6.28917 12.5793 18.8698 -8.9498
650 1 7.86184 14.1519 20.4416 -8.95021
651 1 9.4341 12.5795 18.8698 -8.94792
652 1 11.0066 14.1522 20.4418 -8.95014
653 1 12.5799 12.5798 18.872 -8.95212
654 1 14.1523 14.1524 20.442 -8.95059
655 1 15.7254 12.5798 18.8705 -8.94929
656 1 17.2972 14.1521 20.4417 -8.94942
657 1 18.8696 12.5795 18.8695 -8.94952
658 1 20.4416 14.1519 20.4415 -8.94959
659 1 22.0139 15.7243 18.8693 -8.94957
660 1 1.57231 17.2967 20.4415 -8.94967
661 1 3.14451 15.7243 18.8695 -8.9496
662 1 4.71692 17.297 20.4416 -8.95001
663 1 6.28924 15.7246 18.87 -8.95076
664 1 7.8619 17.2971 20.4416 -8.94952
665 1 9.43415 15.725 18.87 -8.94942
666 1 11.0069 17.2972 20.4416 -8.94955
667 1 12.5794 15.725 18.8703 -8.95001
668 1 14.152 17.2971 20.4416 -8.94969
669 1 15.7253 15.7253 18.8704 -8.9497
670 1 17.2971 17.2972 20.4416 -8.94948
671 1 18.8696 15.7245 18.8694 -8.94954
672 1 20.4416 17.2968 20.4415 -8.9496
673 1 -2.15751e-05 18.8692 18.8692 -8.94961
674 1 1.57227 20.4416 20.4415 -8.94947
675 1 3.14444 18.8694 18.8695 -8.94944
676 1 4.71717 20.4416 20.4415 -8.94961
677 1 6.28951 18.8694 18.8695 -8.94954
678 1 7.86206 20.4416 20.4415 -8.94959
353 1 3.14451 12.5794 22.0137 -8.94956
357 1 9.43428 12.5794 22.0134 -8.94931
359 1 12.5796 12.5795 22.0128 -8.95143
365 1 8.04187e-06 15.7243 22.0138 -8.94957
369 1 6.28926 15.7246 22.0131 -8.95052
389 1 15.7244 18.8694 22.0137 -8.94968
375 1 15.725 15.725 22.0132 -8.94993
385 1 9.43449 18.8695 22.0136 -8.94955
381 1 3.14451 18.8694 22.0136 -8.94953
363 1 18.8695 12.5795 22.0137 -8.94956
387 1 12.5794 18.8695 22.0137 -8.94952
526 1 1.571 17.2976 11.0072 -8.94929
