ITEM: TIMESTEP
100
ITEM: NUMBER OF ATOMS
688
ITEM: BOX BOUNDS pp pp pp
0.0000000000000000e+00 2.2013900999999997e+01
0.0000000000000000e+00 2.2013900999999997e+01
0.0000000000000000e+00 2.2013900999999997e+01
ITEM: ATOMS id type x y z c_pot
190 1 1.56911 7.86139 11.0072 -8.95155
2 1 1.57182 1.57207 1.57184 -8.94913
175 1 18.8692 9.43434 9.43456 -8.94819
4 1 4.71679 1.57196 1.57171 -8.9496
174 1 15.7223 9.43524 9.43521 -8.9449
6 1 7.86196 1.57195 1.57175 -8.94948
7 1 9.4345 1.70641e-15 -0.000250438 -8.94955
8 1 11.0071 1.57194 1.5718 -8.94951
173 1 12.5667 9.42995 9.42293 -8.94059
10 1 14.1521 1.57193 1.57191 -8.94949
172 1 9.35607 9.18061 9.42826 -8.12662
12 1 17.2972 1.5719 1.57195 -8.94946
189 1 20.4413 4.71651 11.007 -8.94956
14 1 20.4415 1.57216 1.57218 -8.94951
171 1 6.27545 9.41942 9.42787 -9.00239
16 1 1.57192 4.7169 1.57177 -8.94984
170 1 3.13936 9.4335 9.43297 -8.95042
18 1 4.71594 4.71605 1.57051 -8.94955
19 1 6.28934 3.14428 -0.000476597 -8.94949
20 1 7.86161 4.71606 1.57084 -8.94918
169 1 22.0123 9.43438 9.43423 -8.94971
22 1 11.0071 4.71596 1.57097 -8.94934
188 1 17.2977 4.71611 11.0068 -8.94907
24 1 14.1526 4.71584 1.57102 -8.9497
168 1 18.8698 6.28873 9.4344 -8.9495
26 1 17.2981 4.71584 1.57129 -8.94847
167 1 15.7263 6.28762 9.43414 -8.94641
28 1 20.4419 4.71679 1.57199 -8.94957
166 1 12.5793 6.28774 9.43313 -8.94724
30 1 1.57211 7.86202 1.57188 -8.94942
31 1 3.14445 6.28959 -0.000330992 -8.94976
32 1 4.71668 7.86226 1.57148 -8.94976
165 1 9.42899 6.29104 9.43402 -9.00742
34 1 7.86161 7.86167 1.57002 -8.95238
35 1 9.43416 6.28882 -0.000946388 -8.94968
36 1 11.0068 7.86101 1.5697 -8.9507
164 1 6.27767 6.27737 9.43356 -8.94352
38 1 14.1537 7.86047 1.56911 -8.95134
163 1 3.13955 6.28663 9.43434 -8.94934
40 1 17.2982 7.86126 1.57118 -8.94921
162 1 22.0125 6.28878 9.43444 -8.94995
42 1 20.442 7.86182 1.57191 -8.94946
43 1 22.014 9.43445 -0.000202619 -8.94955
161 1 18.8694 3.14421 9.43446 -8.94956
45 1 6.28929 9.43466 -0.000349138 -8.94951
160 1 15.7251 3.14377 9.43433 -8.94952
159 1 12.58 3.14349 9.43407 -8.94878
48 1 15.7256 9.43405 -0.00084392 -8.94939
184 1 4.71265 4.71283 11.0084 -8.94743
50 1 -0.000364149 1.72999e-15 3.14453 -8.94953
51 1 1.57159 1.57192 4.71667 -8.94946
52 1 3.14402 1.32505e-15 3.14398 -8.94952
53 1 4.71606 1.5711 4.71596 -8.95003
54 1 6.28935 1.34396e-15 3.14401 -8.94954
55 1 7.86188 1.57122 4.71616 -8.94962
56 1 9.43461 2.66517e-16 3.14405 -8.94953
57 1 11.0074 1.57136 4.71629 -8.94956
58 1 12.5797 1.42972e-16 3.14418 -8.94949
59 1 14.1525 1.57138 4.71669 -8.95057
60 1 15.7248 1.02699e-15 3.14437 -8.94998
61 1 17.297 1.57201 4.7171 -8.94968
62 1 18.8692 1.77422e-15 3.14468 -8.94967
63 1 20.4414 1.57216 4.71706 -8.94953
64 1 22.0133 3.1443 3.14426 -8.94948
65 1 1.57045 4.71599 4.71587 -8.94948
66 1 3.14318 3.14341 3.14314 -8.94809
67 1 4.71239 4.71261 4.71238 -8.94405
68 1 6.28883 3.1433 3.14322 -8.94954
69 1 7.86057 4.71325 4.71389 -8.94868
70 1 9.43449 3.14337 3.14344 -8.94939
71 1 11.0077 4.71377 4.71429 -8.94764
72 1 12.5799 3.14336 3.14362 -8.94913
73 1 14.155 4.71263 4.7141 -8.94927
74 1 15.7255 3.14308 3.14362 -8.94933
75 1 17.298 4.71592 4.71658 -8.95003
76 1 18.8695 3.14419 3.14445 -8.94972
77 1 20.4414 4.71666 4.71684 -8.94986
78 1 22.0138 6.28938 3.14425 -8.94983
79 1 1.57141 7.86205 4.71638 -8.94985
80 1 3.14349 6.28918 3.14339 -8.95042
81 1 4.71461 7.86178 4.7148 -8.95179
82 1 6.2867 6.28686 3.13982 -8.95034
83 1 7.85642 7.85581 4.70634 -8.95551
84 1 9.43401 6.28698 3.14114 -8.94804
85 1 11.0079 7.85727 4.70813 -8.95226
86 1 12.5808 6.28699 3.14101 -8.94953
87 1 14.1632 7.85189 4.70582 -8.93466
88 1 15.7282 6.28587 3.14103 -8.94564
89 1 17.3006 7.86026 4.71526 -8.95061
90 1 18.8705 6.28869 3.14389 -8.94968
91 1 20.4422 7.86171 4.71665 -8.95008
92 1 2.57689e-05 9.43441 3.14414 -8.94953
93 1 3.14393 9.43454 3.14369 -8.94895
94 1 6.28921 9.4353 3.14369 -8.94939
95 1 9.43494 9.43425 3.14316 -8.9504
96 1 12.5824 9.43334 3.13725 -8.95805
97 1 15.728 9.43323 3.14132 -8.94782
98 1 18.8707 9.43414 3.14375 -8.94933
99 1 22.0135 1.37268e-15 6.28947 -8.94954
100 1 1.5715 1.57188 7.86187 -8.9495
101 1 3.1438 5.60262e-16 6.28907 -8.94938
102 1 4.71572 1.57091 7.86144 -8.9494
103 1 6.28905 1.30546e-15 6.28891 -8.95073
104 1 7.86175 1.57049 7.8617 -8.95152
105 1 9.43476 1.4191e-15 6.28901 -8.95027
106 1 11.0071 1.57155 7.86191 -8.94967
107 1 12.5797 1.20848e-15 6.28942 -8.95035
108 1 14.1524 1.57178 7.86194 -8.94941
109 1 15.7247 1.76126e-15 6.28956 -8.94953
110 1 17.2971 1.57202 7.862 -8.94951
111 1 18.8692 1.87365e-15 6.28957 -8.94953
112 1 20.4414 1.57212 7.862 -8.94955
113 1 22.0132 3.14418 6.28931 -8.94948
114 1 1.5703 4.71582 7.86154 -8.94939
115 1 3.1429 3.14308 6.28853 -8.94918
116 1 4.71253 4.71248 7.8601 -8.94767
117 1 6.2875 3.14058 6.28753 -8.95171
118 1 7.85857 4.70793 7.8599 -8.9598
119 1 9.43461 3.14157 6.28805 -8.95037
120 1 11.0064 4.71414 7.86106 -8.95306
121 1 12.58 3.14232 6.2889 -8.95222
122 1 14.1529 4.71539 7.86189 -8.94894
123 1 15.725 3.14377 6.28952 -8.94959
124 1 17.2976 4.71622 7.86193 -8.94899
125 1 18.8693 3.14429 6.28953 -8.94945
126 1 20.4413 4.71654 7.8619 -8.94955
127 1 -0.00135745 6.28893 6.28899 -8.95021
128 1 1.56879 7.8611 7.86111 -8.9517
129 1 3.13945 6.28675 6.28667 -8.95019
130 1 4.70435 7.85594 7.85716 -8.956
131 1 6.2753 6.27561 6.27595 -8.92791
132 1 7.81832 7.82159 7.82401 -8.84382
133 1 9.43332 6.27991 6.28307 -8.9487
134 1 11.0228 7.84857 7.83505 -8.89564
135 1 12.5863 6.2791 6.28165 -8.95
136 1 14.1577 7.85873 7.86078 -8.95043
137 1 15.7274 6.28732 6.28847 -8.95056
138 1 17.2983 7.86156 7.86254 -8.95088
139 1 18.8698 6.28901 6.2895 -8.95011
140 1 20.4412 7.86169 7.86195 -8.95012
141 1 22.0135 9.43451 6.2891 -8.94976
142 1 3.14288 9.43512 6.28845 -8.9498
143 1 6.28623 9.43681 6.28743 -8.95307
144 1 9.42318 9.41314 6.28416 -8.91644
145 1 12.6132 9.40785 6.25651 -8.88017
146 1 15.7332 9.43243 6.28599 -8.95622
147 1 18.8712 9.43425 6.28916 -8.9513
148 1 -0.000440132 1.47216e-15 9.43451 -8.94955
149 1 3.14373 1.01148e-15 9.43449 -8.94948
150 1 6.28861 1.8397e-16 9.43434 -8.95041
151 1 9.43471 1.57578e-15 9.43432 -8.9485
152 1 12.5799 1.8572e-15 9.43429 -8.94944
153 1 15.7248 1.68462e-15 9.43442 -8.94962
154 1 18.8693 1.39413e-15 9.43449 -8.94957
155 1 -0.0007186 3.14414 9.4345 -8.94951
156 1 3.14283 3.14309 9.43446 -8.94945
157 1 6.28667 3.14012 9.43416 -8.94958
158 1 9.43425 3.14317 9.43422 -8.94631
177 1 4.71574 1.57098 11.0074 -8.94936
181 1 17.2971 1.572 11.0069 -8.94953
187 1 14.1531 4.71527 11.0062 -8.94865
3 1 3.14453 7.76745e-16 -0.000265566 -8.9496
11 1 15.7245 5.29958e-16 -0.000167771 -8.94957
15 1 22.0138 3.14459 -0.000209082 -8.94957
41 1 18.8698 6.28919 -0.000271431 -8.94947
37 1 12.5796 6.28876 -0.00087997 -8.94981
176 1 1.57151 1.57189 11.0071 -8.94948
343 1 18.8701 9.43429 18.8698 -8.94944
178 1 7.86161 1.57027 11.0069 -8.95152
179 1 11.0072 1.57127 11.0066 -8.94961
180 1 14.1525 1.57173 11.0068 -8.94941
342 1 15.726 9.4339 18.8711 -8.94927
182 1 20.4414 1.57212 11.007 -8.94955
341 1 12.5801 9.43401 18.8725 -8.95231
340 1 9.43413 9.43441 18.8697 -8.94765
185 1 7.85804 4.70716 11.0077 -8.95803
186 1 11.0072 4.71324 11.0063 -8.95068
47 1 12.5797 9.4343 22.0128 -8.9515
339 1 6.28916 9.43462 18.8697 -8.94983
338 1 3.14433 9.43448 18.8696 -8.94954
337 1 8.31389e-05 9.43443 18.8695 -8.94954
191 1 4.70544 7.85771 11.0095 -8.95848
192 1 7.81837 7.82233 11.0399 -8.9006
193 1 11.0281 7.84974 11.0283 -8.95362
194 1 14.1574 7.85929 11.0054 -8.95339
195 1 17.2987 7.86117 11.0064 -8.95004
196 1 20.4413 7.86163 11.0069 -8.94999
197 1 22.0135 1.70938e-15 12.5796 -8.94953
198 1 1.57161 1.57193 14.1523 -8.94949
199 1 3.14382 1.35593e-15 12.5799 -8.94939
200 1 4.71599 1.5711 14.153 -8.95001
201 1 6.28895 8.37098e-16 12.58 -8.95064
202 1 7.8617 1.57094 14.1529 -8.94971
203 1 9.43471 1.73137e-15 12.5798 -8.95089
204 1 11.0074 1.57088 14.1529 -8.94985
205 1 12.5798 1.35371e-15 12.5794 -8.95051
206 1 14.1526 1.57109 14.1523 -8.9508
207 1 15.7248 1.45143e-15 12.5793 -8.94952
208 1 17.2971 1.57195 14.1519 -8.94967
209 1 18.8693 1.62587e-15 12.5794 -8.94953
210 1 20.4414 1.57214 14.152 -8.94952
211 1 -0.000660284 3.14418 12.5797 -8.94945
212 1 1.57058 4.71603 14.153 -8.94974
213 1 3.14297 3.14317 12.5803 -8.94918
214 1 4.71242 4.7126 14.1563 -8.94464
215 1 6.28747 3.14049 12.5812 -8.95153
216 1 7.86002 4.71227 14.1553 -8.94782
217 1 9.43463 3.14015 12.5806 -8.95272
218 1 11.0083 4.71175 14.1555 -8.94681
219 1 12.5801 3.14153 12.5798 -8.95284
220 1 14.1557 4.71122 14.1553 -8.95029
221 1 15.7251 3.14362 12.5793 -8.94947
222 1 17.2983 4.71573 14.1523 -8.95023
223 1 18.8694 3.14422 12.5794 -8.94942
224 1 20.4415 4.71659 14.1521 -8.94982
225 1 22.0128 6.28896 12.5798 -8.95022
226 1 1.57096 7.86166 14.1528 -8.9496
227 1 3.13989 6.28706 12.5816 -8.95095
228 1 4.71361 7.86103 14.1543 -8.95102
229 1 6.27594 6.2756 12.5917 -8.92976
230 1 7.85416 7.85501 14.1622 -8.98755
231 1 9.43434 6.27236 12.5842 -8.96102
232 1 11.0113 7.85324 14.1642 -8.9803
233 1 12.5869 6.27582 12.5872 -8.95479
234 1 14.1689 7.84646 14.1683 -8.92527
235 1 15.7276 6.28709 12.5798 -8.95064
236 1 17.3019 7.85972 14.1542 -8.95192
237 1 18.8701 6.28886 12.5794 -8.94977
238 1 20.4424 7.86155 14.1524 -8.95038
239 1 22.0131 9.43433 12.5799 -8.94996
240 1 3.14106 9.43417 12.5808 -8.94809
241 1 6.28361 9.43432 12.5821 -8.99812
242 1 9.42995 9.37541 12.5982 -9.18651
243 1 12.6259 9.391 12.6291 -8.88252
244 1 15.735 9.43223 12.5835 -8.96083
245 1 18.8715 9.43426 12.5797 -8.952
246 1 -0.000344755 1.8681e-15 15.7245 -8.94955
247 1 1.57179 1.57204 17.2972 -8.94918
248 1 3.14398 1.24081e-15 15.7251 -8.94955
249 1 4.71666 1.57189 17.2975 -8.94956
250 1 6.28918 1.72704e-15 15.7252 -8.94958
251 1 7.86186 1.57189 17.2975 -8.94939
252 1 9.43453 1.92859e-15 15.7251 -8.94945
253 1 11.007 1.57184 17.2975 -8.94943
254 1 12.5799 1.67478e-15 15.7251 -8.9496
255 1 14.1523 1.57171 17.2974 -8.94945
256 1 15.7249 6.22992e-16 15.7247 -8.95012
257 1 17.2973 1.57176 17.2973 -8.94949
258 1 18.8693 1.85727e-15 15.7244 -8.94968
259 1 20.4415 1.57213 17.2969 -8.94959
260 1 22.0134 3.14427 15.7248 -8.94956
261 1 1.57187 4.7168 17.2974 -8.9498
262 1 3.14314 3.14337 15.7259 -8.94824
263 1 4.71576 4.71587 17.2987 -8.94941
264 1 6.28856 3.14301 15.726 -8.94945
265 1 7.86151 4.71601 17.2983 -8.94915
266 1 9.43433 3.14301 15.7258 -8.94901
267 1 11.0069 4.71576 17.2984 -8.94946
268 1 12.5802 3.1426 15.7259 -8.94904
269 1 14.1531 4.7151 17.2988 -8.94941
270 1 15.7259 3.14253 15.7257 -8.94953
271 1 17.2986 4.71529 17.2984 -8.94783
272 1 18.8696 3.14411 15.7246 -8.94983
273 1 20.442 4.71662 17.2972 -8.94956
274 1 -0.000129481 6.28919 15.7249 -8.94982
275 1 1.57201 7.86192 17.2974 -8.94951
276 1 3.14321 6.28893 15.7258 -8.95014
277 1 4.71635 7.86195 17.2979 -8.94933
278 1 6.28615 6.28637 15.7294 -8.94991
279 1 7.86183 7.86201 17.2986 -8.95329
280 1 9.43359 6.28673 15.7274 -8.94764
281 1 11.0063 7.8609 17.3001 -8.95188
282 1 12.5819 6.28503 15.7297 -8.94846
283 1 14.1551 7.85911 17.3025 -8.95066
284 1 15.7301 6.28405 15.7297 -8.94319
285 1 17.2989 7.86089 17.2986 -8.94906
286 1 18.8711 6.28835 15.7254 -8.9499
287 1 20.4422 7.86171 17.2974 -8.94947
288 1 22.0139 9.43434 15.725 -8.94962
289 1 3.14355 9.43444 15.7255 -8.94944
290 1 6.28794 9.43475 15.7262 -8.9484
291 1 9.43519 9.43575 15.7225 -8.9953
292 1 12.586 9.43066 15.7384 -8.95739
293 1 15.7299 9.43257 15.7295 -8.94726
294 1 18.8713 9.43401 15.7256 -8.94936
295 1 22.0137 2.22817e-15 18.8693 -8.94929
296 1 1.57212 1.57217 20.4415 -8.94939
297 1 3.14446 3.08682e-16 18.8694 -8.94956
298 1 4.717 1.57217 20.4415 -8.94956
299 1 6.28946 6.53869e-16 18.8695 -8.9495
300 1 7.86197 1.57212 20.4416 -8.94953
301 1 9.43447 2.17627e-15 18.8695 -8.94954
302 1 11.007 1.5721 20.4416 -8.94954
303 1 12.5795 1.75623e-15 18.8695 -8.94952
304 1 14.152 1.57209 20.4416 -8.94955
305 1 15.7246 7.16171e-16 18.8695 -8.94952
306 1 17.297 1.57209 20.4416 -8.94956
307 1 18.8694 1.80473e-15 18.8694 -8.94939
308 1 20.4417 1.57222 20.4416 -8.94926
309 1 -3.7631e-05 3.14454 18.8694 -8.94957
310 1 1.57222 4.71708 20.4416 -8.94968
311 1 3.1442 3.14426 18.8697 -8.94946
312 1 4.71672 4.7168 20.4415 -8.95011
313 1 6.28931 3.14426 18.8697 -8.9495
314 1 7.86174 4.71659 20.4416 -8.94953
315 1 9.43437 3.14412 18.8697 -8.9495
316 1 11.0069 4.71646 20.4416 -8.94955
317 1 12.5795 3.14408 18.8697 -8.94952
318 1 14.1522 4.7164 20.4418 -8.94972
319 1 15.7249 3.14394 18.8698 -8.94954
320 1 17.2975 4.71636 20.4418 -8.94944
321 1 18.8697 3.14416 18.8696 -8.94906
322 1 20.4418 4.71695 20.4416 -8.94953
323 1 22.014 6.28945 18.8694 -8.94953
324 1 1.57222 7.862 20.4416 -8.94955
325 1 3.14437 6.28949 18.8696 -8.94964
326 1 4.71683 7.86209 20.4416 -8.94964
327 1 6.28911 6.28927 18.8702 -8.95091
328 1 7.86177 7.86198 20.4415 -8.95021
329 1 9.43402 6.28871 18.8702 -8.94948
330 1 11.0066 7.86157 20.4418 -8.9502
331 1 12.5795 6.28858 18.8707 -8.95011
332 1 14.1526 7.86127 20.4423 -8.95069
333 1 15.7258 6.2881 18.871 -8.9497
334 1 17.2977 7.86154 20.4418 -8.94936
335 1 18.87 6.28906 18.8697 -8.94945
336 1 20.4419 7.86189 20.4416 -8.94953
46 1 9.43428 9.43455 22.0134 -8.94918
5 1 6.28951 5.41377e-16 22.0136 -8.94953
9 1 12.5795 7.84897e-16 22.0137 -8.94953
44 1 3.14441 9.4345 22.0136 -8.94954
39 1 15.7254 6.28852 22.0131 -8.94998
17 1 3.14426 3.14432 22.0134 -8.94952
21 1 9.43443 3.14418 22.0135 -8.94951
25 1 15.7247 3.14413 22.0136 -8.94964
27 1 18.8696 3.14428 22.0137 -8.9492
29 1 5.91488e-05 6.28951 22.0137 -8.94952
33 1 6.28908 6.28922 22.0129 -8.95064
1 1 -0.000186764 1.50731e-15 22.0137 -8.94923
13 1 18.8693 9.34415e-16 22.0137 -8.94937
23 1 12.5795 3.14417 22.0135 -8.94947
49 1 18.8699 9.43433 22.0136 -8.94949
183 1 1.57035 4.71588 11.0074 -8.94927
344 1 1.5721 11.007 1.57183 -8.94956
345 1 4.71658 11.007 1.57149 -8.94962
346 1 7.86198 11.007 1.57227 -8.94808
347 1 11.0071 11.007 1.57147 -8.94729
348 1 14.1543 11.007 1.56898 -8.94957
349 1 17.2983 11.007 1.57115 -8.94946
350 1 20.442 11.007 1.57188 -8.94951
351 1 22.014 12.5794 -0.000202619 -8.94955
352 1 1.57211 14.1519 1.57188 -8.94942
688 3 10.1691 11.007 9.47062 2.27842
354 1 4.71668 14.1516 1.57148 -8.94976
355 1 6.28929 12.5792 -0.000349138 -8.94951
356 1 7.86161 14.1522 1.57002 -8.95238
511 1 18.8694 18.8697 9.43446 -8.94956
358 1 11.0068 14.1529 1.5697 -8.9507
510 1 15.7251 18.8701 9.43433 -8.94952
360 1 14.1537 14.1534 1.56911 -8.95134
361 1 15.7256 12.5799 -0.00084392 -8.94939
362 1 17.2982 14.1526 1.57118 -8.94921
538 1 17.2971 20.4419 11.0069 -8.94953
364 1 20.442 14.1521 1.57191 -8.94946
509 1 12.58 18.8704 9.43407 -8.94878
366 1 1.57192 17.297 1.57177 -8.94984
367 1 3.14445 15.7243 -0.000330992 -8.94976
368 1 4.71594 17.2978 1.57051 -8.94955
508 1 9.43425 18.8707 9.43422 -8.94631
370 1 7.86161 17.2978 1.57084 -8.94918
371 1 9.43416 15.7251 -0.000946388 -8.94968
372 1 11.0071 17.2979 1.57097 -8.94934
507 1 6.28667 18.8738 9.43416 -8.94958
374 1 14.1526 17.2981 1.57102 -8.9497
506 1 3.14283 18.8708 9.43446 -8.94945
376 1 17.2981 17.2981 1.57129 -8.94847
505 1 -0.0007186 18.8698 9.4345 -8.94951
378 1 20.4419 17.2971 1.57199 -8.94957
504 1 18.8698 15.7252 9.4344 -8.9495
380 1 1.57182 20.4418 1.57184 -8.94913
503 1 15.7263 15.7263 9.43414 -8.94641
382 1 4.71679 20.4419 1.57171 -8.9496
383 1 6.28934 18.8696 -0.000476597 -8.94949
384 1 7.86196 20.442 1.57175 -8.94948
502 1 12.5793 15.7262 9.43313 -8.94724
386 1 11.0071 20.442 1.5718 -8.94951
534 1 4.71574 20.4429 11.0074 -8.94936
388 1 14.1521 20.442 1.57191 -8.94949
501 1 9.42899 15.7229 9.43402 -9.00742
390 1 17.2972 20.442 1.57195 -8.94946
500 1 6.27767 15.7365 9.43356 -8.94352
392 1 20.4415 20.4417 1.57218 -8.94951
393 1 1.57156 11.007 4.71616 -8.94946
394 1 4.71551 11.007 4.71505 -8.94596
395 1 7.8647 11.007 4.71974 -8.946
396 1 11.0107 11.007 4.71863 -8.99271
397 1 14.1614 11.007 4.70795 -8.94237
398 1 17.3008 11.007 4.71494 -8.9492
399 1 20.4424 11.007 4.71649 -8.94989
400 1 2.57689e-05 12.5795 3.14414 -8.94953
401 1 1.57141 14.1519 4.71638 -8.94985
402 1 3.14393 12.5794 3.14369 -8.94895
403 1 4.71461 14.1521 4.7148 -8.95179
404 1 6.28921 12.5786 3.14369 -8.94939
405 1 7.85642 14.1581 4.70634 -8.95551
406 1 9.43494 12.5797 3.14316 -8.9504
407 1 11.0079 14.1566 4.70813 -8.95226
408 1 12.5824 12.5806 3.13725 -8.95805
409 1 14.1632 14.162 4.70582 -8.93466
410 1 15.728 12.5807 3.14132 -8.94782
411 1 17.3006 14.1536 4.71526 -8.95061
412 1 18.8707 12.5798 3.14375 -8.94933
413 1 20.4422 14.1522 4.71665 -8.95008
414 1 22.0138 15.7245 3.14425 -8.94983
415 1 1.57045 17.2979 4.71587 -8.94948
416 1 3.14349 15.7247 3.14339 -8.95042
417 1 4.71239 17.3013 4.71238 -8.94405
418 1 6.2867 15.727 3.13982 -8.95034
419 1 7.86057 17.3007 4.71389 -8.94868
420 1 9.43401 15.7269 3.14114 -8.94804
421 1 11.0077 17.3001 4.71429 -8.94764
422 1 12.5808 15.7269 3.14101 -8.94953
423 1 14.155 17.3013 4.7141 -8.94927
424 1 15.7282 15.728 3.14103 -8.94564
425 1 17.298 17.298 4.71658 -8.95003
426 1 18.8705 15.7252 3.14389 -8.94968
427 1 20.4414 17.2972 4.71684 -8.94986
428 1 22.0133 18.8696 3.14426 -8.94948
429 1 1.57159 20.442 4.71667 -8.94946
430 1 3.14318 18.8705 3.14314 -8.94809
431 1 4.71606 20.4428 4.71596 -8.95003
432 1 6.28883 18.8706 3.14322 -8.94954
433 1 7.86188 20.4427 4.71616 -8.94962
434 1 9.43449 18.8705 3.14344 -8.94939
435 1 11.0074 20.4425 4.71629 -8.94956
436 1 12.5799 18.8705 3.14362 -8.94913
437 1 14.1525 20.4425 4.71669 -8.95057
438 1 15.7255 18.8708 3.14362 -8.94933
439 1 17.297 20.4419 4.7171 -8.94968
440 1 18.8695 18.8697 3.14445 -8.94972
441 1 20.4414 20.4417 4.71706 -8.94953
442 1 1.57118 11.007 7.86132 -8.94722
443 1 4.71854 11.007 7.86188 -8.94008
444 1 7.88418 11.007 7.87129 -8.9532
445 1 11.0747 11.007 7.67571 -8.22801
446 1 14.1595 11.007 7.85552 -8.96786
447 1 17.2989 11.007 7.86219 -8.95111
448 1 20.4417 11.007 7.86195 -8.94942
449 1 22.0135 12.5794 6.2891 -8.94976
450 1 1.56879 14.1528 7.86111 -8.9517
451 1 3.14288 12.5788 6.28845 -8.9498
452 1 4.70435 14.158 7.85716 -8.956
453 1 6.28623 12.5771 6.28743 -8.95307
454 1 7.81832 14.1923 7.82401 -8.84382
455 1 9.42318 12.6008 6.28416 -8.91644
456 1 11.0228 14.1653 7.83505 -8.89564
457 1 12.6132 12.606 6.25651 -8.88017
458 1 14.1577 14.1552 7.86078 -8.95043
459 1 15.7332 12.5815 6.28599 -8.95622
460 1 17.2983 14.1523 7.86254 -8.95088
461 1 18.8712 12.5797 6.28916 -8.9513
462 1 20.4412 14.1522 7.86195 -8.95012
463 1 -0.00135745 15.725 6.28899 -8.95021
464 1 1.5703 17.2981 7.86154 -8.94939
465 1 3.13945 15.7271 6.28667 -8.95019
466 1 4.71253 17.3014 7.8601 -8.94767
467 1 6.2753 15.7383 6.27595 -8.92791
468 1 7.85857 17.306 7.8599 -8.9598
469 1 9.43332 15.734 6.28307 -8.9487
470 1 11.0064 17.2998 7.86106 -8.95306
471 1 12.5863 15.7348 6.28165 -8.95
472 1 14.1529 17.2985 7.86189 -8.94894
473 1 15.7274 15.7266 6.28847 -8.95056
474 1 17.2976 17.2977 7.86193 -8.94899
475 1 18.8698 15.7249 6.2895 -8.95011
476 1 20.4413 17.2974 7.8619 -8.94955
477 1 22.0132 18.8697 6.28931 -8.94948
478 1 1.5715 20.442 7.86187 -8.9495
479 1 3.1429 18.8708 6.28853 -8.94918
480 1 4.71572 20.443 7.86144 -8.9494
481 1 6.2875 18.8733 6.28753 -8.95171
482 1 7.86175 20.4434 7.8617 -8.95152
483 1 9.43461 18.8723 6.28805 -8.95037
484 1 11.0071 20.4423 7.86191 -8.94967
485 1 12.58 18.8716 6.2889 -8.95222
486 1 14.1524 20.4421 7.86194 -8.94941
487 1 15.725 18.8701 6.28952 -8.94959
488 1 17.2971 20.4419 7.862 -8.94951
489 1 18.8693 18.8696 6.28953 -8.94945
490 1 20.4414 20.4418 7.862 -8.94955
491 1 22.0123 12.5795 9.43423 -8.94971
492 1 3.13936 12.5804 9.43297 -8.95042
493 1 6.27545 12.5945 9.42787 -9.00239
494 1 9.35607 12.8333 9.42826 -8.12662
495 1 12.5667 12.584 9.42293 -8.94059
496 1 15.7223 12.5787 9.43521 -8.9449
497 1 18.8692 12.5796 9.43456 -8.94819
498 1 22.0125 15.7251 9.43444 -8.94995
499 1 3.13955 15.7273 9.43434 -8.94934
512 1 1.56923 11.007 11.0071 -8.95115
514 1 7.81813 11.007 10.971 -9.1257
519 1 1.56911 14.1525 11.0072 -8.95155
532 1 20.4413 17.2974 11.007 -8.94956
527 1 4.71265 17.3011 11.0084 -8.94743
531 1 17.2977 17.2978 11.0068 -8.94907
530 1 14.1531 17.2986 11.0062 -8.94865
373 1 12.5796 15.7251 -0.00087997 -8.94981
377 1 18.8698 15.7247 -0.000271431 -8.94947
379 1 22.0138 18.8693 -0.000209082 -8.94957
687 2 9.45763 11.007 11.7381 0.650812
513 1 4.70651 11.007 11.0051 -8.96116
686 1 20.4417 20.4417 20.4416 -8.94926
515 1 11.1909 11.007 11.1893 -8.38238
516 1 14.1492 11.007 11.0161 -8.99426
517 1 17.2975 11.007 11.0068 -8.94748
518 1 20.4413 11.007 11.0069 -8.94938
685 1 18.8697 18.8697 18.8696 -8.94906
520 1 4.70544 14.1562 11.0095 -8.95848
521 1 7.81837 14.1916 11.0399 -8.9006
522 1 11.0281 14.1642 11.0283 -8.95362
523 1 14.1574 14.1546 11.0054 -8.95339
524 1 17.2987 14.1527 11.0064 -8.95004
525 1 20.4413 14.1523 11.0069 -8.94999
684 1 17.297 20.4418 20.4416 -8.94956
683 1 15.7249 18.87 18.8698 -8.94954
528 1 7.85804 17.3067 11.0077 -8.95803
529 1 11.0072 17.3007 11.0063 -8.95068
391 1 18.8696 18.8696 22.0137 -8.9492
682 1 14.152 20.4418 20.4416 -8.94955
681 1 12.5795 18.8698 18.8697 -8.94952
533 1 1.57151 20.442 11.0071 -8.94948
680 1 11.007 20.4418 20.4416 -8.94954
535 1 7.86161 20.4436 11.0069 -8.95152
536 1 11.0072 20.4426 11.0066 -8.94961
537 1 14.1525 20.4422 11.0068 -8.94941
679 1 9.43437 18.8698 18.8697 -8.9495
539 1 20.4414 20.4418 11.007 -8.94955
540 1 1.57111 11.007 14.1528 -8.9494
541 1 4.71436 11.007 14.1533 -8.94733
542 1 7.86003 11.007 14.1527 -8.98174
543 1 11.0226 11.007 14.1668 -9.0341
544 1 14.1658 11.007 14.1656 -8.94307
545 1 17.3021 11.007 14.1548 -8.94949
546 1 20.4426 11.007 14.1526 -8.95007
547 1 22.0131 12.5796 12.5799 -8.94996
548 1 1.57096 14.1522 14.1528 -8.9496
549 1 3.14106 12.5797 12.5808 -8.94809
550 1 4.71361 14.1529 14.1543 -8.95102
551 1 6.28361 12.5796 12.5821 -8.99812
552 1 7.85416 14.1589 14.1622 -8.98755
553 1 9.42995 12.6385 12.5982 -9.18651
554 1 11.0113 14.1607 14.1642 -8.9803
555 1 12.6259 12.6229 12.6291 -8.88252
556 1 14.1689 14.1674 14.1683 -8.92527
557 1 15.735 12.5817 12.5835 -8.96083
558 1 17.3019 14.1542 14.1542 -8.95192
559 1 18.8715 12.5796 12.5797 -8.952
560 1 20.4424 14.1523 14.1524 -8.95038
561 1 22.0128 15.7249 12.5798 -8.95022
562 1 1.57058 17.2979 14.153 -8.94974
563 1 3.13989 15.7268 12.5816 -8.95095
564 1 4.71242 17.3013 14.1563 -8.94464
565 1 6.27594 15.7383 12.5917 -8.92976
566 1 7.86002 17.3016 14.1553 -8.94782
567 1 9.43434 15.7415 12.5842 -8.96102
568 1 11.0083 17.3021 14.1555 -8.94681
569 1 12.5869 15.7381 12.5872 -8.95479
570 1 14.1557 17.3027 14.1553 -8.95029
571 1 15.7276 15.7268 12.5798 -8.95064
572 1 17.2983 17.2982 14.1523 -8.95023
573 1 18.8701 15.725 12.5794 -8.94977
574 1 20.4415 17.2973 14.1521 -8.94982
575 1 -0.000660284 18.8697 12.5797 -8.94945
576 1 1.57161 20.442 14.1523 -8.94949
577 1 3.14297 18.8707 12.5803 -8.94918
578 1 4.71599 20.4428 14.153 -8.95001
579 1 6.28747 18.8734 12.5812 -8.95153
580 1 7.8617 20.443 14.1529 -8.94971
581 1 9.43463 18.8737 12.5806 -8.95272
582 1 11.0074 20.443 14.1529 -8.94985
583 1 12.5801 18.8724 12.5798 -8.95284
584 1 14.1526 20.4428 14.1523 -8.9508
585 1 15.7251 18.8703 12.5793 -8.94947
586 1 17.2971 20.4419 14.1519 -8.94967
587 1 18.8694 18.8697 12.5794 -8.94942
588 1 20.4414 20.4418 14.152 -8.94952
589 1 1.57199 11.007 17.2974 -8.94953
590 1 4.71629 11.007 17.2978 -8.94898
591 1 7.86211 11.007 17.297 -8.95012
592 1 11.0073 11.007 17.3009 -8.95207
593 1 14.1555 11.007 17.3026 -8.94877
594 1 17.299 11.007 17.2987 -8.94929
595 1 20.4422 11.007 17.2974 -8.94951
596 1 22.0139 12.5796 15.725 -8.94962
597 1 1.57201 14.152 17.2974 -8.94951
598 1 3.14355 12.5795 15.7255 -8.94944
599 1 4.71635 14.1519 17.2979 -8.94933
600 1 6.28794 12.5792 15.7262 -8.9484
601 1 7.86183 14.1519 17.2986 -8.95329
602 1 9.43519 12.5782 15.7225 -8.9953
603 1 11.0063 14.153 17.3001 -8.95188
604 1 12.586 12.5832 15.7384 -8.95739
605 1 14.1551 14.1548 17.3025 -8.95066
606 1 15.7299 12.5813 15.7295 -8.94726
607 1 17.2989 14.153 17.2986 -8.94906
608 1 18.8713 12.5799 15.7256 -8.94936
609 1 20.4422 14.1522 17.2974 -8.94947
610 1 -0.000129481 15.7247 15.7249 -8.94982
611 1 1.57187 17.2971 17.2974 -8.9498
612 1 3.14321 15.725 15.7258 -8.95014
613 1 4.71576 17.298 17.2987 -8.94941
614 1 6.28615 15.7275 15.7294 -8.94991
615 1 7.86151 17.2979 17.2983 -8.94915
616 1 9.43359 15.7272 15.7274 -8.94764
617 1 11.0069 17.2981 17.2984 -8.94946
618 1 12.5819 15.7289 15.7297 -8.94846
619 1 14.1531 17.2988 17.2988 -8.94941
620 1 15.7301 15.7299 15.7297 -8.94319
621 1 17.2986 17.2986 17.2984 -8.94783
622 1 18.8711 15.7256 15.7254 -8.9499
623 1 20.442 17.2973 17.2972 -8.94956
624 1 22.0134 18.8696 15.7248 -8.94956
625 1 1.57179 20.4419 17.2972 -8.94918
626 1 3.14314 18.8705 15.7259 -8.94824
627 1 4.71666 20.442 17.2975 -8.94956
628 1 6.28856 18.8709 15.726 -8.94945
629 1 7.86186 20.442 17.2975 -8.94939
630 1 9.43433 18.8709 15.7258 -8.94901
631 1 11.007 20.4421 17.2975 -8.94943
632 1 12.5802 18.8713 15.7259 -8.94904
633 1 14.1523 20.4422 17.2974 -8.94945
634 1 15.7259 18.8714 15.7257 -8.94953
635 1 17.2973 20.4421 17.2973 -8.94949
636 1 18.8696 18.8698 15.7246 -8.94983
637 1 20.4415 20.4418 17.2969 -8.94959
638 1 1.5722 11.007 20.4416 -8.94958
639 1 4.71675 11.007 20.4416 -8.94965
640 1 7.86176 11.007 20.4416 -8.94922
641 1 11.0066 11.007 20.4423 -8.94948
642 1 14.1529 11.007 20.4423 -8.95027
643 1 17.2978 11.007 20.4418 -8.94944
644 1 20.4419 11.007 20.4416 -8.94954
645 1 8.31389e-05 12.5795 18.8695 -8.94954
646 1 1.57222 14.1519 20.4416 -8.94955
647 1 3.14433 12.5794 18.8696 -8.94954
648 1 4.71683 14.1518 20.4416 -8.94964
649 1 6.28916 12.5793 18.8697 -8.94983
650 1 7.86177 14.1519 20.4415 -8.95021
651 1 9.43413 12.5795 18.8697 -8.94765
652 1 11.0066 14.1523 20.4418 -8.9502
653 1 12.5801 12.5799 18.8725 -8.95231
654 1 14.1526 14.1526 20.4423 -8.95069
655 1 15.726 12.58 18.8711 -8.94927
656 1 17.2977 14.1524 20.4418 -8.94936
657 1 18.8701 12.5796 18.8698 -8.94944
658 1 20.4419 14.152 20.4416 -8.94953
659 1 22.014 15.7245 18.8694 -8.94953
660 1 1.57222 17.2968 20.4416 -8.94968
661 1 3.14437 15.7244 18.8696 -8.94964
662 1 4.71672 17.2971 20.4415 -8.95011
663 1 6.28911 15.7246 18.8702 -8.95091
664 1 7.86174 17.2973 20.4416 -8.94953
665 1 9.43402 15.7252 18.8702 -8.94948
666 1 11.0069 17.2974 20.4416 -8.94955
667 1 12.5795 15.7253 18.8707 -8.95011
668 1 14.1522 17.2975 20.4418 -8.94972
669 1 15.7258 15.7258 18.871 -8.9497
670 1 17.2975 17.2975 20.4418 -8.94944
671 1 18.87 15.7248 18.8697 -8.94945
672 1 20.4418 17.297 20.4416 -8.94953
673 1 -3.7631e-05 18.8694 18.8694 -8.94957
674 1 1.57212 20.4417 20.4415 -8.94939
675 1 3.1442 18.8696 18.8697 -8.94946
676 1 4.717 20.4417 20.4415 -8.94956
677 1 6.28931 18.8696 18.8697 -8.9495
678 1 7.86197 20.4418 20.4416 -8.94953
353 1 3.14441 12.5794 22.0136 -8.94954
357 1 9.43428 12.5794 22.0134 -8.94918
359 1 12.5797 12.5796 22.0128 -8.9515
365 1 5.91488e-05 15.7244 22.0137 -8.94952
369 1 6.28908 15.7247 22.0129 -8.95064
389 1 15.7247 18.8698 22.0136 -8.94964
375 1 15.7254 15.7254 22.0131 -8.94998
385 1 9.43443 18.8697 22.0135 -8.94951
381 1 3.14426 18.8696 22.0134 -8.94952
363 1 18.8699 12.5796 22.0136 -8.94949
387 1 12.5795 18.8697 22.0135 -8.94947
526 1 1.57035 17.298 11.0074 -8.94927
