ITEM: TIMESTEP
96
ITEM: NUMBER OF ATOMS
688
ITEM: BOX BOUNDS pp pp pp
0.0000000000000000e+00 2.2013900999999997e+01
0.0000000000000000e+00 2.2013900999999997e+01
0.0000000000000000e+00 2.2013900999999997e+01
ITEM: ATOMS id type x y z c_pot
190 1 1.56916 7.86141 11.0072 -8.95154
2 1 1.57185 1.57208 1.57186 -8.94914
175 1 18.8692 9.43433 9.43456 -8.94819
4 1 4.71682 1.57198 1.57175 -8.94961
174 1 15.7224 9.43522 9.43518 -8.94481
6 1 7.86197 1.57197 1.57178 -8.94948
7 1 9.43451 1.80287e-15 -0.000238812 -8.94955
8 1 11.0071 1.57195 1.57182 -8.94951
173 1 12.5667 9.43016 9.42304 -8.94061
10 1 14.1521 1.57195 1.57193 -8.94949
172 1 9.35599 9.18104 9.42826 -8.1269
12 1 17.2972 1.57191 1.57197 -8.94946
189 1 20.4413 4.71653 11.007 -8.94956
14 1 20.4415 1.57217 1.57219 -8.94952
171 1 6.27543 9.4195 9.42788 -9.00242
16 1 1.57194 4.71692 1.5718 -8.94984
170 1 3.13939 9.43353 9.43299 -8.95043
18 1 4.71598 4.71608 1.57055 -8.94955
19 1 6.28936 3.1443 -0.000455823 -8.94949
20 1 7.86163 4.71609 1.57088 -8.94918
169 1 22.0124 9.43438 9.43424 -8.94972
22 1 11.0071 4.716 1.57101 -8.94934
188 1 17.2977 4.71613 11.0068 -8.94907
24 1 14.1526 4.71588 1.57105 -8.9497
168 1 18.8698 6.28875 9.4344 -8.9495
26 1 17.298 4.71588 1.57132 -8.94847
167 1 15.7263 6.28763 9.43415 -8.94641
28 1 20.4419 4.71681 1.57201 -8.94957
166 1 12.5792 6.28783 9.43314 -8.94723
30 1 1.57211 7.86202 1.5719 -8.94942
31 1 3.14447 6.28959 -0.000315138 -8.94976
32 1 4.7167 7.86226 1.5715 -8.94976
165 1 9.42902 6.29113 9.43402 -9.00735
34 1 7.86162 7.86169 1.57004 -8.95238
35 1 9.43417 6.28884 -0.000927925 -8.94968
36 1 11.0068 7.86103 1.56972 -8.95069
164 1 6.27778 6.27748 9.43357 -8.94353
38 1 14.1536 7.8605 1.56913 -8.95134
163 1 3.13964 6.28669 9.43435 -8.94935
40 1 17.2982 7.86129 1.57121 -8.94922
162 1 22.0125 6.28881 9.43444 -8.94994
42 1 20.442 7.86183 1.57193 -8.94946
43 1 22.014 9.43446 -0.000194929 -8.94956
161 1 18.8694 3.14423 9.43446 -8.94956
45 1 6.28929 9.43466 -0.000342898 -8.94951
160 1 15.7251 3.14379 9.43434 -8.94953
159 1 12.58 3.14351 9.43408 -8.94876
48 1 15.7256 9.43406 -0.000837974 -8.94939
184 1 4.71274 4.71291 11.0084 -8.94744
50 1 -0.000341604 1.72689e-15 3.14456 -8.94953
51 1 1.57163 1.57194 4.71671 -8.94947
52 1 3.14406 1.17141e-15 3.14402 -8.94952
53 1 4.7161 1.57113 4.71601 -8.95002
54 1 6.28937 1.20588e-15 3.14404 -8.94955
55 1 7.8619 1.57124 4.7162 -8.94961
56 1 9.43461 3.69104e-16 3.14408 -8.94953
57 1 11.0074 1.57138 4.71632 -8.94956
58 1 12.5797 2.0797e-16 3.14421 -8.94949
59 1 14.1524 1.5714 4.71671 -8.95056
60 1 15.7247 1.06642e-15 3.14439 -8.94998
61 1 17.297 1.57203 4.71711 -8.94968
62 1 18.8692 1.72798e-15 3.14469 -8.94967
63 1 20.4414 1.57217 4.71708 -8.94953
64 1 22.0134 3.14432 3.14429 -8.94949
65 1 1.5705 4.71603 4.71591 -8.94948
66 1 3.14323 3.14345 3.14319 -8.9481
67 1 4.71247 4.71267 4.71245 -8.94406
68 1 6.28887 3.14334 3.14328 -8.94954
69 1 7.86063 4.71332 4.71396 -8.9487
70 1 9.4345 3.1434 3.14348 -8.94939
71 1 11.0077 4.71383 4.71435 -8.94765
72 1 12.5799 3.1434 3.14366 -8.94913
73 1 14.1549 4.71268 4.71416 -8.94929
74 1 15.7255 3.14311 3.14366 -8.94933
75 1 17.298 4.71596 4.71661 -8.95003
76 1 18.8695 3.14422 3.14447 -8.94972
77 1 20.4414 4.71668 4.71686 -8.94985
78 1 22.0138 6.2894 3.14427 -8.94983
79 1 1.57143 7.86206 4.7164 -8.94985
80 1 3.14353 6.2892 3.14343 -8.95041
81 1 4.71465 7.86181 4.71484 -8.95179
82 1 6.28674 6.2869 3.13987 -8.95033
83 1 7.85644 7.85586 4.70637 -8.95548
84 1 9.43402 6.28703 3.14119 -8.94804
85 1 11.0079 7.85732 4.70818 -8.95223
86 1 12.5808 6.28704 3.14107 -8.94952
87 1 14.1631 7.85189 4.70586 -8.93458
88 1 15.7282 6.28591 3.14107 -8.94562
89 1 17.3005 7.86028 4.71529 -8.95062
90 1 18.8705 6.28872 3.14392 -8.94968
91 1 20.4422 7.86172 4.71667 -8.95008
92 1 1.91795e-05 9.43442 3.14417 -8.94954
93 1 3.14394 9.43454 3.14371 -8.94896
94 1 6.28922 9.43531 3.14369 -8.94939
95 1 9.43494 9.43427 3.14315 -8.95044
96 1 12.5823 9.43335 3.13727 -8.95807
97 1 15.7279 9.43325 3.14137 -8.94782
98 1 18.8707 9.43415 3.14378 -8.94933
99 1 22.0135 1.36177e-15 6.28948 -8.94955
100 1 1.57155 1.5719 7.86188 -8.94951
101 1 3.14385 6.9743e-16 6.2891 -8.94939
102 1 4.71577 1.57095 7.86147 -8.9494
103 1 6.28908 1.37301e-15 6.28894 -8.95072
104 1 7.86178 1.57052 7.86172 -8.95151
105 1 9.43476 1.27618e-15 6.28903 -8.95026
106 1 11.0071 1.57157 7.86193 -8.94967
107 1 12.5797 1.16533e-15 6.28944 -8.95035
108 1 14.1524 1.57179 7.86195 -8.94941
109 1 15.7247 1.78716e-15 6.28957 -8.94953
110 1 17.2971 1.57203 7.86201 -8.94952
111 1 18.8692 1.74438e-15 6.28958 -8.94953
112 1 20.4414 1.57214 7.86201 -8.94956
113 1 22.0132 3.14421 6.28933 -8.94948
114 1 1.57037 4.71587 7.86156 -8.94939
115 1 3.14297 3.14313 6.28858 -8.94919
116 1 4.71263 4.71256 7.86014 -8.94767
117 1 6.28757 3.14064 6.28758 -8.9517
118 1 7.85864 4.70801 7.85993 -8.95979
119 1 9.43463 3.14162 6.28809 -8.95037
120 1 11.0064 4.7142 7.8611 -8.95303
121 1 12.58 3.14235 6.28893 -8.95222
122 1 14.1529 4.71542 7.86192 -8.94895
123 1 15.725 3.14379 6.28954 -8.94959
124 1 17.2976 4.71624 7.86194 -8.94899
125 1 18.8693 3.14431 6.28954 -8.94945
126 1 20.4413 4.71656 7.86191 -8.94955
127 1 -0.00132133 6.28895 6.28901 -8.9502
128 1 1.56885 7.86113 7.86113 -8.9517
129 1 3.13952 6.28681 6.28672 -8.95019
130 1 4.70442 7.85601 7.85719 -8.95599
131 1 6.2754 6.27571 6.27603 -8.92794
132 1 7.81841 7.82172 7.82407 -8.84392
133 1 9.43336 6.28001 6.28314 -8.94875
134 1 11.0228 7.84874 7.83515 -8.89582
135 1 12.5863 6.27916 6.28174 -8.95009
136 1 14.1576 7.85879 7.86087 -8.95044
137 1 15.7273 6.28736 6.28852 -8.95057
138 1 17.2983 7.86156 7.86254 -8.95085
139 1 18.8698 6.28903 6.28951 -8.9501
140 1 20.4412 7.8617 7.86196 -8.95011
141 1 22.0135 9.43452 6.28911 -8.94976
142 1 3.1429 9.43513 6.28846 -8.94979
143 1 6.28624 9.43684 6.28744 -8.95311
144 1 9.42313 9.41317 6.2841 -8.91626
145 1 12.6133 9.40775 6.25647 -8.87976
146 1 15.7332 9.43243 6.28603 -8.95626
147 1 18.8712 9.43425 6.28918 -8.9513
148 1 -0.000411334 1.4774e-15 9.43451 -8.94955
149 1 3.14378 8.24438e-16 9.43449 -8.94948
150 1 6.28865 -1.39038e-16 9.43435 -8.9504
151 1 9.43472 1.71727e-15 9.43433 -8.9485
152 1 12.5799 1.84422e-15 9.4343 -8.94944
153 1 15.7248 1.67817e-15 9.43443 -8.94963
154 1 18.8693 1.22332e-15 9.43449 -8.94957
155 1 -0.000682449 3.14417 9.4345 -8.94951
156 1 3.1429 3.14314 9.43447 -8.94946
157 1 6.28674 3.14018 9.43417 -8.94957
158 1 9.43427 3.1432 9.43423 -8.9463
177 1 4.7158 1.57101 11.0074 -8.94936
181 1 17.2971 1.57201 11.0069 -8.94953
187 1 14.1531 4.71532 11.0062 -8.94867
3 1 3.14455 6.85668e-16 -0.000249317 -8.94961
11 1 15.7244 2.47658e-16 -0.000160723 -8.94957
15 1 22.0138 3.1446 -0.000198575 -8.94958
41 1 18.8698 6.28921 -0.000265258 -8.94948
37 1 12.5796 6.28878 -0.000865337 -8.9498
176 1 1.57156 1.57191 11.0071 -8.94949
343 1 18.87 9.4343 18.8697 -8.94945
178 1 7.86163 1.57029 11.0069 -8.95152
179 1 11.0072 1.57128 11.0066 -8.94961
180 1 14.1524 1.57175 11.0068 -8.94941
342 1 15.726 9.43392 18.8711 -8.94927
182 1 20.4414 1.57213 11.007 -8.94955
341 1 12.5801 9.43402 18.8724 -8.9523
340 1 9.43412 9.43441 18.8697 -8.94767
185 1 7.8581 4.70724 11.0077 -8.95802
186 1 11.0072 4.71329 11.0062 -8.95067
47 1 12.5797 9.43431 22.0128 -8.95149
339 1 6.28916 9.43462 18.8697 -8.94983
338 1 3.14434 9.43448 18.8696 -8.94954
337 1 6.70772e-05 9.43444 18.8695 -8.94954
191 1 4.70551 7.85778 11.0095 -8.95847
192 1 7.81845 7.82245 11.0399 -8.90071
193 1 11.0279 7.84987 11.0282 -8.95373
194 1 14.1573 7.85935 11.0054 -8.95338
195 1 17.2987 7.86118 11.0064 -8.95002
196 1 20.4414 7.86164 11.0069 -8.94999
197 1 22.0135 1.79364e-15 12.5795 -8.94954
198 1 1.57165 1.57195 14.1523 -8.94949
199 1 3.14386 1.18393e-15 12.5798 -8.9494
200 1 4.71604 1.57112 14.153 -8.95001
201 1 6.28898 6.52739e-16 12.58 -8.95063
202 1 7.86172 1.57097 14.1529 -8.94972
203 1 9.43472 1.80527e-15 12.5798 -8.95089
204 1 11.0074 1.57091 14.1528 -8.94985
205 1 12.5798 1.37546e-15 12.5794 -8.9505
206 1 14.1526 1.57112 14.1523 -8.95079
207 1 15.7247 1.49702e-15 12.5793 -8.94952
208 1 17.2971 1.57197 14.1519 -8.94967
209 1 18.8693 1.72584e-15 12.5794 -8.94954
210 1 20.4414 1.57215 14.1519 -8.94952
211 1 -0.000630078 3.14421 12.5797 -8.94945
212 1 1.57063 4.71606 14.153 -8.94974
213 1 3.14304 3.14322 12.5803 -8.94918
214 1 4.71249 4.71267 14.1563 -8.94465
215 1 6.28753 3.14054 12.5812 -8.95152
216 1 7.86006 4.71232 14.1552 -8.94784
217 1 9.43465 3.14019 12.5805 -8.95272
218 1 11.0083 4.71181 14.1554 -8.94682
219 1 12.5801 3.14158 12.5798 -8.95282
220 1 14.1556 4.71131 14.1552 -8.9503
221 1 15.7251 3.14365 12.5792 -8.94948
222 1 17.2982 4.71578 14.1523 -8.95023
223 1 18.8694 3.14425 12.5794 -8.94943
224 1 20.4415 4.71662 14.1521 -8.94982
225 1 22.0128 6.28898 12.5798 -8.95021
226 1 1.57098 7.86167 14.1528 -8.9496
227 1 3.13997 6.28711 12.5816 -8.95095
228 1 4.71364 7.86106 14.1542 -8.95104
229 1 6.27603 6.2757 12.5917 -8.92979
230 1 7.85412 7.85499 14.1623 -8.9875
231 1 9.43435 6.27241 12.5841 -8.96108
232 1 11.0112 7.85329 14.1641 -8.9803
233 1 12.5868 6.27593 12.587 -8.95482
234 1 14.1688 7.84654 14.1681 -8.9253
235 1 15.7276 6.28714 12.5798 -8.95065
236 1 17.3018 7.85975 14.1541 -8.9519
237 1 18.8701 6.28888 12.5794 -8.94976
238 1 20.4424 7.86157 14.1524 -8.95037
239 1 22.0131 9.43433 12.5799 -8.94996
240 1 3.14109 9.43418 12.5808 -8.94809
241 1 6.28364 9.43435 12.5822 -8.99824
242 1 9.4298 9.37529 12.5984 -9.18629
243 1 12.6258 9.39108 12.629 -8.88255
244 1 15.735 9.43223 12.5835 -8.96079
245 1 18.8715 9.43426 12.5797 -8.95199
246 1 -0.000324652 1.80075e-15 15.7245 -8.94956
247 1 1.57182 1.57206 17.2972 -8.94919
248 1 3.14402 1.18154e-15 15.725 -8.94955
249 1 4.71668 1.5719 17.2974 -8.94957
250 1 6.28921 1.78993e-15 15.7251 -8.94958
251 1 7.86188 1.57191 17.2974 -8.9494
252 1 9.43453 1.81554e-15 15.7251 -8.94946
253 1 11.007 1.57186 17.2974 -8.94944
254 1 12.5799 1.69549e-15 15.725 -8.9496
255 1 14.1523 1.57174 17.2974 -8.94946
256 1 15.7249 5.035e-16 15.7247 -8.95011
257 1 17.2973 1.57178 17.2972 -8.94949
258 1 18.8693 1.84101e-15 15.7244 -8.94968
259 1 20.4415 1.57215 17.2969 -8.9496
260 1 22.0134 3.1443 15.7247 -8.94956
261 1 1.57188 4.71682 17.2974 -8.94979
262 1 3.14319 3.14341 15.7258 -8.94825
263 1 4.71579 4.71589 17.2987 -8.9494
264 1 6.28859 3.14305 15.726 -8.94946
265 1 7.86153 4.71604 17.2983 -8.94915
266 1 9.43434 3.14305 15.7257 -8.94902
267 1 11.0069 4.71579 17.2984 -8.94946
268 1 12.5802 3.14265 15.7258 -8.94904
269 1 14.153 4.71516 17.2987 -8.94941
270 1 15.7258 3.14259 15.7256 -8.94953
271 1 17.2986 4.71535 17.2983 -8.94784
272 1 18.8696 3.14414 15.7246 -8.94983
273 1 20.442 4.71665 17.2972 -8.94956
274 1 -0.000129333 6.28921 15.7249 -8.94981
275 1 1.57201 7.86192 17.2974 -8.94951
276 1 3.14324 6.28895 15.7257 -8.95014
277 1 4.71636 7.86196 17.2979 -8.94933
278 1 6.28617 6.28639 15.7294 -8.94987
279 1 7.86182 7.862 17.2986 -8.95328
280 1 9.4336 6.28677 15.7274 -8.94764
281 1 11.0063 7.86092 17.3001 -8.95187
282 1 12.5819 6.2851 15.7296 -8.94844
283 1 14.155 7.85916 17.3024 -8.95066
284 1 15.73 6.28413 15.7296 -8.94321
285 1 17.2989 7.86094 17.2986 -8.94907
286 1 18.871 6.28839 15.7254 -8.9499
287 1 20.4422 7.86173 17.2973 -8.94947
288 1 22.0139 9.43435 15.725 -8.94962
289 1 3.14356 9.43445 15.7255 -8.94945
290 1 6.28793 9.43476 15.7262 -8.9484
291 1 9.43514 9.43575 15.7225 -8.99541
292 1 12.5859 9.4307 15.7383 -8.95739
293 1 15.7298 9.43261 15.7294 -8.94727
294 1 18.8713 9.43402 15.7256 -8.94936
295 1 22.0137 2.0356e-15 18.8693 -8.94931
296 1 1.57213 1.57218 20.4415 -8.9494
297 1 3.14449 4.6314e-16 18.8694 -8.94957
298 1 4.71702 1.57218 20.4415 -8.94957
299 1 6.28948 6.97465e-16 18.8694 -8.9495
300 1 7.86198 1.57213 20.4416 -8.94954
301 1 9.43448 1.99765e-15 18.8695 -8.94954
302 1 11.007 1.57211 20.4416 -8.94954
303 1 12.5795 1.75257e-15 18.8695 -8.94952
304 1 14.152 1.57211 20.4416 -8.94955
305 1 15.7245 6.52299e-16 18.8694 -8.94952
306 1 17.297 1.57211 20.4416 -8.94956
307 1 18.8694 1.83033e-15 18.8693 -8.9494
308 1 20.4417 1.57223 20.4415 -8.94927
309 1 -3.68245e-05 3.14455 18.8694 -8.94957
310 1 1.57223 4.71709 20.4416 -8.94968
311 1 3.14422 3.14428 18.8697 -8.94946
312 1 4.71674 4.71681 20.4415 -8.9501
313 1 6.28933 3.14428 18.8697 -8.9495
314 1 7.86175 4.71661 20.4416 -8.94953
315 1 9.43438 3.14414 18.8697 -8.9495
316 1 11.0069 4.71649 20.4416 -8.94955
317 1 12.5795 3.14411 18.8697 -8.94952
318 1 14.1521 4.71643 20.4417 -8.94972
319 1 15.7248 3.14398 18.8697 -8.94954
320 1 17.2975 4.7164 20.4418 -8.94945
321 1 18.8697 3.14419 18.8695 -8.94907
322 1 20.4418 4.71697 20.4416 -8.94954
323 1 22.014 6.28946 18.8694 -8.94953
324 1 1.57222 7.86201 20.4416 -8.94955
325 1 3.14438 6.2895 18.8696 -8.94963
326 1 4.71683 7.86209 20.4416 -8.94963
327 1 6.28912 6.28928 18.8702 -8.9509
328 1 7.86178 7.86198 20.4415 -8.95021
329 1 9.43403 6.28873 18.8702 -8.94947
330 1 11.0066 7.86158 20.4418 -8.95019
331 1 12.5795 6.28862 18.8707 -8.9501
332 1 14.1526 7.86129 20.4422 -8.95068
333 1 15.7257 6.28815 18.8709 -8.94971
334 1 17.2977 7.86157 20.4418 -8.94936
335 1 18.8699 6.28909 18.8697 -8.94945
336 1 20.4419 7.86191 20.4416 -8.94953
46 1 9.43428 9.43455 22.0134 -8.94919
5 1 6.28952 3.39849e-16 22.0137 -8.94953
9 1 12.5795 7.95874e-16 22.0137 -8.94954
44 1 3.14441 9.4345 22.0136 -8.94954
39 1 15.7253 6.28856 22.0131 -8.94998
17 1 3.14429 3.14434 22.0134 -8.94952
21 1 9.43444 3.14421 22.0135 -8.94951
25 1 15.7247 3.14417 22.0136 -8.94965
27 1 18.8696 3.14431 22.0137 -8.94921
29 1 5.1581e-05 6.28952 22.0137 -8.94953
33 1 6.2891 6.28923 22.0129 -8.95064
1 1 -0.000177236 1.58707e-15 22.0138 -8.94924
13 1 18.8693 7.76362e-16 22.0137 -8.94938
23 1 12.5795 3.14419 22.0135 -8.94947
49 1 18.8698 9.43435 22.0136 -8.94949
183 1 1.57041 4.71592 11.0074 -8.94927
344 1 1.5721 11.007 1.57185 -8.94956
345 1 4.71659 11.007 1.5715 -8.94962
346 1 7.86197 11.007 1.57225 -8.9481
347 1 11.0071 11.007 1.57146 -8.94727
348 1 14.1542 11.007 1.569 -8.94956
349 1 17.2983 11.007 1.57118 -8.94946
350 1 20.442 11.007 1.5719 -8.94952
351 1 22.014 12.5794 -0.000194929 -8.94956
352 1 1.57211 14.1519 1.5719 -8.94942
688 3 10.1699 11.007 9.47024 2.27844
354 1 4.7167 14.1516 1.5715 -8.94976
355 1 6.28929 12.5792 -0.000342898 -8.94951
356 1 7.86162 14.1522 1.57004 -8.95238
511 1 18.8694 18.8697 9.43446 -8.94956
358 1 11.0068 14.1529 1.56972 -8.95069
510 1 15.7251 18.8701 9.43434 -8.94953
360 1 14.1536 14.1534 1.56913 -8.95134
361 1 15.7256 12.5798 -0.000837974 -8.94939
362 1 17.2982 14.1526 1.57121 -8.94922
538 1 17.2971 20.4419 11.0069 -8.94953
364 1 20.442 14.1521 1.57193 -8.94946
509 1 12.58 18.8704 9.43408 -8.94876
366 1 1.57194 17.297 1.5718 -8.94984
367 1 3.14447 15.7243 -0.000315138 -8.94976
368 1 4.71598 17.2978 1.57055 -8.94955
508 1 9.43427 18.8707 9.43423 -8.9463
370 1 7.86163 17.2978 1.57088 -8.94918
371 1 9.43417 15.7251 -0.000927925 -8.94968
372 1 11.0071 17.2979 1.57101 -8.94934
507 1 6.28674 18.8737 9.43417 -8.94957
374 1 14.1526 17.298 1.57105 -8.9497
506 1 3.1429 18.8708 9.43447 -8.94946
376 1 17.298 17.298 1.57132 -8.94847
505 1 -0.000682449 18.8697 9.4345 -8.94951
378 1 20.4419 17.2971 1.57201 -8.94957
504 1 18.8698 15.7252 9.4344 -8.9495
380 1 1.57185 20.4418 1.57186 -8.94914
503 1 15.7263 15.7263 9.43415 -8.94641
382 1 4.71682 20.4419 1.57175 -8.94961
383 1 6.28936 18.8696 -0.000455823 -8.94949
384 1 7.86197 20.4419 1.57178 -8.94948
502 1 12.5792 15.7261 9.43314 -8.94723
386 1 11.0071 20.4419 1.57182 -8.94951
534 1 4.7158 20.4429 11.0074 -8.94936
388 1 14.1521 20.442 1.57193 -8.94949
501 1 9.42902 15.7228 9.43402 -9.00735
390 1 17.2972 20.442 1.57197 -8.94946
500 1 6.27778 15.7364 9.43357 -8.94353
392 1 20.4415 20.4417 1.57219 -8.94952
393 1 1.57157 11.007 4.71618 -8.94946
394 1 4.71551 11.007 4.71506 -8.94597
395 1 7.86468 11.007 4.7197 -8.94597
396 1 11.0107 11.007 4.71868 -8.99289
397 1 14.1614 11.007 4.70799 -8.94236
398 1 17.3007 11.007 4.71498 -8.9492
399 1 20.4424 11.007 4.71651 -8.94989
400 1 1.91795e-05 12.5795 3.14417 -8.94954
401 1 1.57143 14.1518 4.7164 -8.94985
402 1 3.14394 12.5794 3.14371 -8.94896
403 1 4.71465 14.1521 4.71484 -8.95179
404 1 6.28922 12.5786 3.14369 -8.94939
405 1 7.85644 14.158 4.70637 -8.95548
406 1 9.43494 12.5796 3.14315 -8.95044
407 1 11.0079 14.1566 4.70818 -8.95223
408 1 12.5823 12.5806 3.13727 -8.95807
409 1 14.1631 14.162 4.70586 -8.93458
410 1 15.7279 12.5807 3.14137 -8.94782
411 1 17.3005 14.1536 4.71529 -8.95062
412 1 18.8707 12.5798 3.14378 -8.94933
413 1 20.4422 14.1522 4.71667 -8.95008
414 1 22.0138 15.7245 3.14427 -8.94983
415 1 1.5705 17.2979 4.71591 -8.94948
416 1 3.14353 15.7247 3.14343 -8.95041
417 1 4.71247 17.3012 4.71245 -8.94406
418 1 6.28674 15.727 3.13987 -8.95033
419 1 7.86063 17.3006 4.71396 -8.9487
420 1 9.43402 15.7269 3.14119 -8.94804
421 1 11.0077 17.3001 4.71435 -8.94765
422 1 12.5808 15.7269 3.14107 -8.94952
423 1 14.1549 17.3012 4.71416 -8.94929
424 1 15.7282 15.728 3.14107 -8.94562
425 1 17.298 17.2979 4.71661 -8.95003
426 1 18.8705 15.7252 3.14392 -8.94968
427 1 20.4414 17.2972 4.71686 -8.94985
428 1 22.0134 18.8696 3.14429 -8.94949
429 1 1.57163 20.442 4.71671 -8.94947
430 1 3.14323 18.8705 3.14319 -8.9481
431 1 4.7161 20.4428 4.71601 -8.95002
432 1 6.28887 18.8706 3.14328 -8.94954
433 1 7.8619 20.4427 4.7162 -8.94961
434 1 9.4345 18.8705 3.14348 -8.94939
435 1 11.0074 20.4425 4.71632 -8.94956
436 1 12.5799 18.8705 3.14366 -8.94913
437 1 14.1524 20.4425 4.71671 -8.95056
438 1 15.7255 18.8708 3.14366 -8.94933
439 1 17.297 20.4419 4.71711 -8.94968
440 1 18.8695 18.8697 3.14447 -8.94972
441 1 20.4414 20.4417 4.71708 -8.94953
442 1 1.57119 11.007 7.86133 -8.94723
443 1 4.71852 11.007 7.86187 -8.94004
444 1 7.88424 11.007 7.8713 -8.9533
445 1 11.0748 11.007 7.67495 -8.22704
446 1 14.1596 11.007 7.85553 -8.96793
447 1 17.2989 11.007 7.8622 -8.95111
448 1 20.4417 11.007 7.86195 -8.94943
449 1 22.0135 12.5794 6.28911 -8.94976
450 1 1.56885 14.1528 7.86113 -8.9517
451 1 3.1429 12.5788 6.28846 -8.94979
452 1 4.70442 14.1579 7.85719 -8.95599
453 1 6.28624 12.5771 6.28744 -8.95311
454 1 7.81841 14.1922 7.82407 -8.84392
455 1 9.42313 12.6007 6.2841 -8.91626
456 1 11.0228 14.1652 7.83515 -8.89582
457 1 12.6133 12.6061 6.25647 -8.87976
458 1 14.1576 14.1551 7.86087 -8.95044
459 1 15.7332 12.5815 6.28603 -8.95626
460 1 17.2983 14.1523 7.86254 -8.95085
461 1 18.8712 12.5797 6.28918 -8.9513
462 1 20.4412 14.1522 7.86196 -8.95011
463 1 -0.00132133 15.7249 6.28901 -8.9502
464 1 1.57037 17.298 7.86156 -8.94939
465 1 3.13952 15.7271 6.28672 -8.95019
466 1 4.71263 17.3013 7.86014 -8.94767
467 1 6.2754 15.7382 6.27603 -8.92794
468 1 7.85864 17.3059 7.85993 -8.95979
469 1 9.43336 15.7339 6.28314 -8.94875
470 1 11.0064 17.2997 7.8611 -8.95303
471 1 12.5863 15.7347 6.28174 -8.95009
472 1 14.1529 17.2985 7.86192 -8.94895
473 1 15.7273 15.7265 6.28852 -8.95057
474 1 17.2976 17.2977 7.86194 -8.94899
475 1 18.8698 15.7249 6.28951 -8.9501
476 1 20.4413 17.2973 7.86191 -8.94955
477 1 22.0132 18.8697 6.28933 -8.94948
478 1 1.57155 20.442 7.86188 -8.94951
479 1 3.14297 18.8708 6.28858 -8.94919
480 1 4.71577 20.443 7.86147 -8.9494
481 1 6.28757 18.8733 6.28758 -8.9517
482 1 7.86178 20.4434 7.86172 -8.95151
483 1 9.43463 18.8723 6.28809 -8.95037
484 1 11.0071 20.4423 7.86193 -8.94967
485 1 12.58 18.8716 6.28893 -8.95222
486 1 14.1524 20.4421 7.86195 -8.94941
487 1 15.725 18.8701 6.28954 -8.94959
488 1 17.2971 20.4419 7.86201 -8.94952
489 1 18.8693 18.8696 6.28954 -8.94945
490 1 20.4414 20.4418 7.86201 -8.94956
491 1 22.0124 12.5795 9.43424 -8.94972
492 1 3.13939 12.5804 9.43299 -8.95043
493 1 6.27543 12.5944 9.42788 -9.00242
494 1 9.35599 12.8329 9.42826 -8.1269
495 1 12.5667 12.5837 9.42304 -8.94061
496 1 15.7224 12.5787 9.43518 -8.94481
497 1 18.8692 12.5796 9.43456 -8.94819
498 1 22.0125 15.7251 9.43444 -8.94994
499 1 3.13964 15.7272 9.43435 -8.94935
512 1 1.56925 11.007 11.0071 -8.95115
514 1 7.81823 11.007 10.9709 -9.12652
519 1 1.56916 14.1525 11.0072 -8.95154
532 1 20.4413 17.2974 11.007 -8.94956
527 1 4.71274 17.301 11.0084 -8.94744
531 1 17.2977 17.2978 11.0068 -8.94907
530 1 14.1531 17.2986 11.0062 -8.94867
373 1 12.5796 15.7251 -0.000865337 -8.9498
377 1 18.8698 15.7247 -0.000265258 -8.94948
379 1 22.0138 18.8693 -0.000198575 -8.94958
687 2 9.45691 11.007 11.7389 0.652148
513 1 4.70653 11.007 11.0051 -8.96113
686 1 20.4417 20.4417 20.4415 -8.94927
515 1 11.1903 11.007 11.1898 -8.38235
516 1 14.1495 11.007 11.016 -8.99408
517 1 17.2976 11.007 11.0068 -8.94757
518 1 20.4413 11.007 11.0069 -8.9494
685 1 18.8697 18.8697 18.8695 -8.94907
520 1 4.70551 14.1561 11.0095 -8.95847
521 1 7.81845 14.1915 11.0399 -8.90071
522 1 11.0279 14.164 11.0282 -8.95373
523 1 14.1573 14.1545 11.0054 -8.95338
524 1 17.2987 14.1527 11.0064 -8.95002
525 1 20.4414 14.1523 11.0069 -8.94999
684 1 17.297 20.4418 20.4416 -8.94956
683 1 15.7248 18.8699 18.8697 -8.94954
528 1 7.8581 17.3067 11.0077 -8.95802
529 1 11.0072 17.3006 11.0062 -8.95067
391 1 18.8696 18.8696 22.0137 -8.94921
682 1 14.152 20.4418 20.4416 -8.94955
681 1 12.5795 18.8698 18.8697 -8.94952
533 1 1.57156 20.442 11.0071 -8.94949
680 1 11.007 20.4418 20.4416 -8.94954
535 1 7.86163 20.4436 11.0069 -8.95152
536 1 11.0072 20.4426 11.0066 -8.94961
537 1 14.1524 20.4422 11.0068 -8.94941
679 1 9.43438 18.8698 18.8697 -8.9495
539 1 20.4414 20.4418 11.007 -8.94955
540 1 1.57112 11.007 14.1528 -8.9494
541 1 4.71437 11.007 14.1533 -8.94734
542 1 7.86002 11.007 14.1528 -8.98161
543 1 11.0224 11.007 14.1667 -9.03422
544 1 14.1657 11.007 14.1655 -8.94307
545 1 17.3021 11.007 14.1547 -8.94948
546 1 20.4426 11.007 14.1526 -8.95007
547 1 22.0131 12.5796 12.5799 -8.94996
548 1 1.57098 14.1522 14.1528 -8.9496
549 1 3.14109 12.5797 12.5808 -8.94809
550 1 4.71364 14.1528 14.1542 -8.95104
551 1 6.28364 12.5796 12.5822 -8.99824
552 1 7.85412 14.1589 14.1623 -8.9875
553 1 9.4298 12.6386 12.5984 -9.18629
554 1 11.0112 14.1606 14.1641 -8.9803
555 1 12.6258 12.6228 12.629 -8.88255
556 1 14.1688 14.1674 14.1681 -8.9253
557 1 15.735 12.5817 12.5835 -8.96079
558 1 17.3018 14.1542 14.1541 -8.9519
559 1 18.8715 12.5796 12.5797 -8.95199
560 1 20.4424 14.1523 14.1524 -8.95037
561 1 22.0128 15.7249 12.5798 -8.95021
562 1 1.57063 17.2978 14.153 -8.94974
563 1 3.13997 15.7268 12.5816 -8.95095
564 1 4.71249 17.3012 14.1563 -8.94465
565 1 6.27603 15.7382 12.5917 -8.92979
566 1 7.86006 17.3016 14.1552 -8.94784
567 1 9.43435 15.7415 12.5841 -8.96108
568 1 11.0083 17.3021 14.1554 -8.94682
569 1 12.5868 15.738 12.587 -8.95482
570 1 14.1556 17.3026 14.1552 -8.9503
571 1 15.7276 15.7268 12.5798 -8.95065
572 1 17.2982 17.2981 14.1523 -8.95023
573 1 18.8701 15.725 12.5794 -8.94976
574 1 20.4415 17.2973 14.1521 -8.94982
575 1 -0.000630078 18.8697 12.5797 -8.94945
576 1 1.57165 20.4419 14.1523 -8.94949
577 1 3.14304 18.8707 12.5803 -8.94918
578 1 4.71604 20.4428 14.153 -8.95001
579 1 6.28753 18.8734 12.5812 -8.95152
580 1 7.86172 20.4429 14.1529 -8.94972
581 1 9.43465 18.8737 12.5805 -8.95272
582 1 11.0074 20.443 14.1528 -8.94985
583 1 12.5801 18.8723 12.5798 -8.95282
584 1 14.1526 20.4428 14.1523 -8.95079
585 1 15.7251 18.8702 12.5792 -8.94948
586 1 17.2971 20.4419 14.1519 -8.94967
587 1 18.8694 18.8697 12.5794 -8.94943
588 1 20.4414 20.4417 14.1519 -8.94952
589 1 1.57198 11.007 17.2974 -8.94953
590 1 4.71629 11.007 17.2978 -8.94898
591 1 7.86209 11.007 17.2971 -8.95011
592 1 11.0073 11.007 17.3009 -8.95204
593 1 14.1555 11.007 17.3025 -8.94877
594 1 17.2989 11.007 17.2986 -8.94929
595 1 20.4422 11.007 17.2974 -8.94952
596 1 22.0139 12.5795 15.725 -8.94962
597 1 1.57201 14.152 17.2974 -8.94951
598 1 3.14356 12.5795 15.7255 -8.94945
599 1 4.71636 14.1519 17.2979 -8.94933
600 1 6.28793 12.5791 15.7262 -8.9484
601 1 7.86182 14.1519 17.2986 -8.95328
602 1 9.43514 12.5782 15.7225 -8.99541
603 1 11.0063 14.153 17.3001 -8.95187
604 1 12.5859 12.5832 15.7383 -8.95739
605 1 14.155 14.1547 17.3024 -8.95066
606 1 15.7298 12.5813 15.7294 -8.94727
607 1 17.2989 14.153 17.2986 -8.94907
608 1 18.8713 12.5799 15.7256 -8.94936
609 1 20.4422 14.1522 17.2973 -8.94947
610 1 -0.000129333 15.7247 15.7249 -8.94981
611 1 1.57188 17.2971 17.2974 -8.94979
612 1 3.14324 15.725 15.7257 -8.95014
613 1 4.71579 17.298 17.2987 -8.9494
614 1 6.28617 15.7275 15.7294 -8.94987
615 1 7.86153 17.2979 17.2983 -8.94915
616 1 9.4336 15.7271 15.7274 -8.94764
617 1 11.0069 17.2981 17.2984 -8.94946
618 1 12.5819 15.7288 15.7296 -8.94844
619 1 14.153 17.2987 17.2987 -8.94941
620 1 15.73 15.7298 15.7296 -8.94321
621 1 17.2986 17.2986 17.2983 -8.94784
622 1 18.871 15.7255 15.7254 -8.9499
623 1 20.442 17.2972 17.2972 -8.94956
624 1 22.0134 18.8696 15.7247 -8.94956
625 1 1.57182 20.4418 17.2972 -8.94919
626 1 3.14319 18.8705 15.7258 -8.94825
627 1 4.71668 20.442 17.2974 -8.94957
628 1 6.28859 18.8709 15.726 -8.94946
629 1 7.86188 20.442 17.2974 -8.9494
630 1 9.43434 18.8709 15.7257 -8.94902
631 1 11.007 20.442 17.2974 -8.94944
632 1 12.5802 18.8713 15.7258 -8.94904
633 1 14.1523 20.4422 17.2974 -8.94946
634 1 15.7258 18.8713 15.7256 -8.94953
635 1 17.2973 20.4421 17.2972 -8.94949
636 1 18.8696 18.8698 15.7246 -8.94983
637 1 20.4415 20.4418 17.2969 -8.9496
638 1 1.5722 11.007 20.4416 -8.94958
639 1 4.71675 11.007 20.4416 -8.94965
640 1 7.86176 11.007 20.4416 -8.94923
641 1 11.0066 11.007 20.4423 -8.94948
642 1 14.1529 11.007 20.4423 -8.95026
643 1 17.2977 11.007 20.4418 -8.94945
644 1 20.4419 11.007 20.4416 -8.94954
645 1 6.70772e-05 12.5795 18.8695 -8.94954
646 1 1.57222 14.1519 20.4416 -8.94955
647 1 3.14434 12.5794 18.8696 -8.94954
648 1 4.71683 14.1518 20.4416 -8.94963
649 1 6.28916 12.5793 18.8697 -8.94983
650 1 7.86178 14.1519 20.4415 -8.95021
651 1 9.43412 12.5795 18.8697 -8.94767
652 1 11.0066 14.1523 20.4418 -8.95019
653 1 12.5801 12.5799 18.8724 -8.9523
654 1 14.1526 14.1526 20.4422 -8.95068
655 1 15.726 12.58 18.8711 -8.94927
656 1 17.2977 14.1523 20.4418 -8.94936
657 1 18.87 12.5796 18.8697 -8.94945
658 1 20.4419 14.152 20.4416 -8.94953
659 1 22.014 15.7244 18.8694 -8.94953
660 1 1.57223 17.2968 20.4416 -8.94968
661 1 3.14438 15.7244 18.8696 -8.94963
662 1 4.71674 17.2971 20.4415 -8.9501
663 1 6.28912 15.7246 18.8702 -8.9509
664 1 7.86175 17.2973 20.4416 -8.94953
665 1 9.43403 15.7252 18.8702 -8.94947
666 1 11.0069 17.2974 20.4416 -8.94955
667 1 12.5795 15.7253 18.8707 -8.9501
668 1 14.1521 17.2975 20.4417 -8.94972
669 1 15.7257 15.7258 18.8709 -8.94971
670 1 17.2975 17.2975 20.4418 -8.94945
671 1 18.8699 15.7248 18.8697 -8.94945
672 1 20.4418 17.2969 20.4416 -8.94954
673 1 -3.68245e-05 18.8693 18.8694 -8.94957
674 1 1.57213 20.4417 20.4415 -8.9494
675 1 3.14422 18.8696 18.8697 -8.94946
676 1 4.71702 20.4417 20.4415 -8.94957
677 1 6.28933 18.8696 18.8697 -8.9495
678 1 7.86198 20.4418 20.4416 -8.94954
353 1 3.14441 12.5794 22.0136 -8.94954
357 1 9.43428 12.5794 22.0134 -8.94919
359 1 12.5797 12.5796 22.0128 -8.95149
365 1 5.1581e-05 15.7244 22.0137 -8.94953
369 1 6.2891 15.7247 22.0129 -8.95064
389 1 15.7247 18.8697 22.0136 -8.94965
375 1 15.7253 15.7253 22.0131 -8.94998
385 1 9.43444 18.8697 22.0135 -8.94951
381 1 3.14429 18.8696 22.0134 -8.94952
363 1 18.8698 12.5796 22.0136 -8.94949
387 1 12.5795 18.8697 22.0135 -8.94947
526 1 1.57041 17.298 11.0074 -8.94927
