ITEM: TIMESTEP
95
ITEM: NUMBER OF ATOMS
688
ITEM: BOX BOUNDS pp pp pp
0.0000000000000000e+00 2.2013900999999997e+01
0.0000000000000000e+00 2.2013900999999997e+01
0.0000000000000000e+00 2.2013900999999997e+01
ITEM: ATOMS id type x y z c_pot
190 1 1.56917 7.86142 11.0072 -8.95154
2 1 1.57185 1.57208 1.57187 -8.94915
175 1 18.8692 9.43433 9.43456 -8.94819
4 1 4.71683 1.57198 1.57175 -8.94961
174 1 15.7224 9.43522 9.43517 -8.94479
6 1 7.86197 1.57197 1.57179 -8.94948
7 1 9.43451 1.74132e-15 -0.000235906 -8.94955
8 1 11.0071 1.57196 1.57183 -8.94951
173 1 12.5666 9.43022 9.42307 -8.94063
10 1 14.1521 1.57195 1.57194 -8.94949
172 1 9.35597 9.18117 9.42826 -8.12692
12 1 17.2972 1.57192 1.57197 -8.94946
189 1 20.4413 4.71654 11.007 -8.94956
14 1 20.4415 1.57217 1.5722 -8.94952
171 1 6.27542 9.41952 9.42789 -9.00243
16 1 1.57195 4.71693 1.57181 -8.94984
170 1 3.13939 9.43353 9.433 -8.95044
18 1 4.71599 4.71609 1.57056 -8.94955
19 1 6.28937 3.14431 -0.000450642 -8.94949
20 1 7.86164 4.7161 1.57089 -8.94918
169 1 22.0124 9.43438 9.43424 -8.94972
22 1 11.0071 4.71601 1.57102 -8.94935
188 1 17.2977 4.71614 11.0068 -8.94907
24 1 14.1526 4.71589 1.57106 -8.9497
168 1 18.8698 6.28875 9.4344 -8.9495
26 1 17.298 4.71589 1.57132 -8.94847
167 1 15.7263 6.28764 9.43415 -8.94642
28 1 20.4419 4.71682 1.57201 -8.94958
166 1 12.5792 6.28785 9.43314 -8.94723
30 1 1.57211 7.86203 1.5719 -8.94942
31 1 3.14447 6.2896 -0.000311174 -8.94975
32 1 4.7167 7.86226 1.57151 -8.94976
165 1 9.42903 6.29115 9.43401 -9.00733
34 1 7.86162 7.86169 1.57004 -8.95238
35 1 9.43417 6.28884 -0.000923251 -8.94968
36 1 11.0068 7.86104 1.56973 -8.95069
164 1 6.2778 6.27751 9.43357 -8.94353
38 1 14.1536 7.86051 1.56914 -8.95134
163 1 3.13966 6.28671 9.43436 -8.94935
40 1 17.2982 7.8613 1.57122 -8.94922
162 1 22.0125 6.28882 9.43444 -8.94994
42 1 20.442 7.86184 1.57194 -8.94946
43 1 22.014 9.43446 -0.000192957 -8.94956
161 1 18.8694 3.14424 9.43446 -8.94956
45 1 6.28929 9.43466 -0.000341332 -8.94951
160 1 15.7251 3.14379 9.43435 -8.94953
159 1 12.58 3.14352 9.43408 -8.94876
48 1 15.7256 9.43407 -0.000836254 -8.94939
184 1 4.71276 4.71293 11.0084 -8.94744
50 1 -0.000336015 1.70558e-15 3.14456 -8.94953
51 1 1.57164 1.57195 4.71671 -8.94947
52 1 3.14407 1.17003e-15 3.14403 -8.94953
53 1 4.71611 1.57114 4.71602 -8.95002
54 1 6.28938 1.19915e-15 3.14405 -8.94955
55 1 7.86191 1.57125 4.71621 -8.94961
56 1 9.43461 3.58438e-16 3.14408 -8.94953
57 1 11.0074 1.57138 4.71632 -8.94956
58 1 12.5797 2.36311e-16 3.14421 -8.94949
59 1 14.1524 1.57141 4.71672 -8.95056
60 1 15.7247 1.08813e-15 3.1444 -8.94998
61 1 17.297 1.57203 4.71711 -8.94968
62 1 18.8692 1.72752e-15 3.1447 -8.94967
63 1 20.4414 1.57218 4.71708 -8.94953
64 1 22.0134 3.14433 3.1443 -8.94949
65 1 1.57051 4.71604 4.71592 -8.94948
66 1 3.14325 3.14345 3.14321 -8.9481
67 1 4.71249 4.71269 4.71247 -8.94406
68 1 6.28888 3.14335 3.14329 -8.94955
69 1 7.86064 4.71334 4.71397 -8.9487
70 1 9.4345 3.14341 3.14349 -8.94939
71 1 11.0077 4.71384 4.71437 -8.94765
72 1 12.5799 3.14341 3.14366 -8.94913
73 1 14.1549 4.71269 4.71418 -8.9493
74 1 15.7255 3.14312 3.14366 -8.94933
75 1 17.298 4.71597 4.71661 -8.95003
76 1 18.8695 3.14423 3.14448 -8.94972
77 1 20.4414 4.71669 4.71686 -8.94985
78 1 22.0138 6.2894 3.14428 -8.94983
79 1 1.57144 7.86206 4.71641 -8.94985
80 1 3.14354 6.28921 3.14344 -8.95041
81 1 4.71466 7.86181 4.71484 -8.95179
82 1 6.28675 6.28691 3.13989 -8.95033
83 1 7.85645 7.85588 4.70638 -8.95547
84 1 9.43402 6.28704 3.14121 -8.94804
85 1 11.0078 7.85733 4.7082 -8.95223
86 1 12.5808 6.28705 3.14108 -8.94952
87 1 14.1631 7.85189 4.70587 -8.93455
88 1 15.7282 6.28592 3.14108 -8.94561
89 1 17.3005 7.86028 4.7153 -8.95062
90 1 18.8705 6.28873 3.14392 -8.94968
91 1 20.4422 7.86173 4.71668 -8.95008
92 1 1.75969e-05 9.43442 3.14417 -8.94954
93 1 3.14395 9.43454 3.14372 -8.94896
94 1 6.28922 9.43531 3.14369 -8.94939
95 1 9.43494 9.43428 3.14314 -8.95044
96 1 12.5823 9.43335 3.13728 -8.95807
97 1 15.7279 9.43325 3.14138 -8.94782
98 1 18.8706 9.43415 3.14379 -8.94933
99 1 22.0135 1.39599e-15 6.28949 -8.94955
100 1 1.57156 1.5719 7.86189 -8.94951
101 1 3.14386 7.31958e-16 6.28911 -8.94939
102 1 4.71579 1.57095 7.86147 -8.9494
103 1 6.28909 1.40645e-15 6.28895 -8.95072
104 1 7.86179 1.57052 7.86172 -8.95151
105 1 9.43477 1.24304e-15 6.28904 -8.95026
106 1 11.0071 1.57157 7.86193 -8.94967
107 1 12.5797 1.17765e-15 6.28944 -8.95035
108 1 14.1524 1.57179 7.86195 -8.94941
109 1 15.7247 1.76719e-15 6.28957 -8.94953
110 1 17.2971 1.57204 7.86201 -8.94952
111 1 18.8692 1.7842e-15 6.28958 -8.94954
112 1 20.4414 1.57214 7.86201 -8.94956
113 1 22.0132 3.14422 6.28934 -8.94948
114 1 1.57039 4.71588 7.86156 -8.94939
115 1 3.14299 3.14314 6.28859 -8.94919
116 1 4.71265 4.71258 7.86015 -8.94768
117 1 6.28758 3.14066 6.28759 -8.9517
118 1 7.85866 4.70803 7.85994 -8.95979
119 1 9.43464 3.14163 6.2881 -8.95037
120 1 11.0064 4.71421 7.86111 -8.95303
121 1 12.58 3.14236 6.28894 -8.95222
122 1 14.1529 4.71543 7.86193 -8.94895
123 1 15.725 3.1438 6.28954 -8.94959
124 1 17.2976 4.71625 7.86195 -8.94899
125 1 18.8693 3.14431 6.28954 -8.94945
126 1 20.4413 4.71657 7.86192 -8.94955
127 1 -0.00131226 6.28896 6.28902 -8.9502
128 1 1.56886 7.86113 7.86114 -8.95169
129 1 3.13954 6.28682 6.28673 -8.95018
130 1 4.70444 7.85603 7.8572 -8.95598
131 1 6.27543 6.27573 6.27604 -8.92795
132 1 7.81843 7.82176 7.82409 -8.84395
133 1 9.43338 6.28003 6.28316 -8.94876
134 1 11.0228 7.84878 7.83518 -8.89587
135 1 12.5863 6.27917 6.28176 -8.95011
136 1 14.1576 7.8588 7.86089 -8.95045
137 1 15.7273 6.28737 6.28854 -8.95057
138 1 17.2983 7.86156 7.86254 -8.95084
139 1 18.8698 6.28903 6.28952 -8.95009
140 1 20.4412 7.8617 7.86196 -8.95011
141 1 22.0135 9.43452 6.28911 -8.94976
142 1 3.14291 9.43513 6.28847 -8.94979
143 1 6.28624 9.43685 6.28744 -8.95312
144 1 9.42311 9.41317 6.28409 -8.91622
145 1 12.6134 9.40773 6.25646 -8.87968
146 1 15.7332 9.43243 6.28603 -8.95627
147 1 18.8712 9.43425 6.28918 -8.9513
148 1 -0.000404281 1.49548e-15 9.43451 -8.94955
149 1 3.14379 8.10213e-16 9.43449 -8.94948
150 1 6.28865 -2.04677e-16 9.43435 -8.9504
151 1 9.43473 1.76768e-15 9.43433 -8.9485
152 1 12.5799 1.84154e-15 9.4343 -8.94944
153 1 15.7248 1.78685e-15 9.43443 -8.94963
154 1 18.8693 1.15363e-15 9.43449 -8.94957
155 1 -0.000673509 3.14418 9.4345 -8.94951
156 1 3.14291 3.14315 9.43447 -8.94946
157 1 6.28676 3.1402 9.43417 -8.94957
158 1 9.43428 3.1432 9.43423 -8.9463
177 1 4.71581 1.57102 11.0074 -8.94936
181 1 17.2971 1.57202 11.0069 -8.94953
187 1 14.1531 4.71533 11.0062 -8.94867
3 1 3.14456 6.85197e-16 -0.000245293 -8.94961
11 1 15.7244 1.91703e-16 -0.000158924 -8.94958
15 1 22.0139 3.14461 -0.000195937 -8.94958
41 1 18.8698 6.28922 -0.000263624 -8.94948
37 1 12.5795 6.28879 -0.000861532 -8.9498
176 1 1.57157 1.57191 11.0071 -8.94949
343 1 18.87 9.43431 18.8697 -8.94945
178 1 7.86164 1.5703 11.0069 -8.95151
179 1 11.0072 1.57128 11.0066 -8.94961
180 1 14.1524 1.57175 11.0068 -8.94941
342 1 15.7259 9.43392 18.871 -8.94927
182 1 20.4414 1.57213 11.007 -8.94956
341 1 12.5801 9.43402 18.8724 -8.95229
340 1 9.43412 9.43441 18.8697 -8.94768
185 1 7.85812 4.70725 11.0077 -8.95802
186 1 11.0072 4.7133 11.0062 -8.95067
47 1 12.5797 9.43431 22.0128 -8.95149
339 1 6.28916 9.43462 18.8697 -8.94982
338 1 3.14434 9.43447 18.8696 -8.94954
337 1 6.3275e-05 9.43444 18.8695 -8.94955
191 1 4.70553 7.85779 11.0095 -8.95847
192 1 7.81847 7.82248 11.0399 -8.90075
193 1 11.0279 7.8499 11.0281 -8.95376
194 1 14.1573 7.85937 11.0054 -8.95338
195 1 17.2987 7.86118 11.0064 -8.95001
196 1 20.4414 7.86164 11.0069 -8.94999
197 1 22.0135 1.85358e-15 12.5795 -8.94954
198 1 1.57166 1.57196 14.1523 -8.94949
199 1 3.14387 1.15335e-15 12.5798 -8.9494
200 1 4.71605 1.57113 14.1529 -8.95001
201 1 6.28899 6.11849e-16 12.58 -8.95063
202 1 7.86173 1.57097 14.1529 -8.94972
203 1 9.43472 1.7506e-15 12.5798 -8.95088
204 1 11.0074 1.57091 14.1528 -8.94985
205 1 12.5798 1.3901e-15 12.5794 -8.9505
206 1 14.1526 1.57112 14.1523 -8.95079
207 1 15.7247 1.47077e-15 12.5793 -8.94952
208 1 17.2971 1.57198 14.1519 -8.94967
209 1 18.8693 1.70419e-15 12.5794 -8.94954
210 1 20.4414 1.57216 14.1519 -8.94952
211 1 -0.000622568 3.14422 12.5797 -8.94945
212 1 1.57064 4.71607 14.1529 -8.94974
213 1 3.14305 3.14323 12.5803 -8.94918
214 1 4.71251 4.71268 14.1563 -8.94466
215 1 6.28754 3.14056 12.5811 -8.95152
216 1 7.86007 4.71233 14.1552 -8.94785
217 1 9.43466 3.1402 12.5805 -8.95272
218 1 11.0083 4.71183 14.1554 -8.94683
219 1 12.5801 3.14159 12.5798 -8.95282
220 1 14.1556 4.71133 14.1552 -8.9503
221 1 15.7251 3.14366 12.5792 -8.94948
222 1 17.2982 4.71579 14.1523 -8.95023
223 1 18.8694 3.14425 12.5794 -8.94943
224 1 20.4415 4.71663 14.1521 -8.94982
225 1 22.0128 6.28898 12.5798 -8.95021
226 1 1.57098 7.86168 14.1528 -8.9496
227 1 3.13999 6.28712 12.5816 -8.95095
228 1 4.71365 7.86106 14.1542 -8.95104
229 1 6.27606 6.27572 12.5916 -8.9298
230 1 7.85412 7.85499 14.1623 -8.98749
231 1 9.43435 6.27242 12.5841 -8.96109
232 1 11.0112 7.85331 14.1641 -8.9803
233 1 12.5868 6.27596 12.587 -8.95483
234 1 14.1687 7.84656 14.1681 -8.92531
235 1 15.7276 6.28716 12.5798 -8.95065
236 1 17.3018 7.85976 14.1541 -8.9519
237 1 18.8701 6.28888 12.5794 -8.94976
238 1 20.4424 7.86157 14.1524 -8.95037
239 1 22.0131 9.43433 12.5799 -8.94996
240 1 3.1411 9.43418 12.5808 -8.94808
241 1 6.28365 9.43435 12.5822 -8.99827
242 1 9.42976 9.37526 12.5984 -9.18623
243 1 12.6258 9.3911 12.6289 -8.88247
244 1 15.735 9.43223 12.5835 -8.96078
245 1 18.8715 9.43427 12.5797 -8.95199
246 1 -0.000319638 1.76885e-15 15.7245 -8.94956
247 1 1.57183 1.57206 17.2972 -8.94919
248 1 3.14403 1.21709e-15 15.725 -8.94955
249 1 4.71669 1.57191 17.2974 -8.94957
250 1 6.28921 1.74861e-15 15.7251 -8.94958
251 1 7.86188 1.57191 17.2974 -8.9494
252 1 9.43453 1.81898e-15 15.7251 -8.94946
253 1 11.007 1.57186 17.2974 -8.94944
254 1 12.5799 1.7226e-15 15.725 -8.9496
255 1 14.1523 1.57174 17.2974 -8.94946
256 1 15.7249 5.12109e-16 15.7247 -8.95011
257 1 17.2973 1.57179 17.2972 -8.94949
258 1 18.8693 1.85048e-15 15.7243 -8.94968
259 1 20.4415 1.57215 17.2969 -8.9496
260 1 22.0134 3.1443 15.7247 -8.94957
261 1 1.57189 4.71682 17.2974 -8.94979
262 1 3.1432 3.14341 15.7258 -8.94825
263 1 4.71579 4.71589 17.2987 -8.94939
264 1 6.2886 3.14306 15.7259 -8.94946
265 1 7.86154 4.71604 17.2983 -8.94915
266 1 9.43435 3.14306 15.7257 -8.94902
267 1 11.0069 4.7158 17.2984 -8.94946
268 1 12.5802 3.14266 15.7258 -8.94904
269 1 14.153 4.71518 17.2987 -8.94941
270 1 15.7258 3.14261 15.7256 -8.94953
271 1 17.2986 4.71536 17.2983 -8.94784
272 1 18.8696 3.14415 15.7246 -8.94983
273 1 20.442 4.71666 17.2972 -8.94956
274 1 -0.000129238 6.28921 15.7249 -8.94981
275 1 1.57201 7.86193 17.2973 -8.94951
276 1 3.14325 6.28895 15.7257 -8.95014
277 1 4.71636 7.86196 17.2979 -8.94933
278 1 6.28617 6.28639 15.7294 -8.94986
279 1 7.86182 7.862 17.2986 -8.95328
280 1 9.4336 6.28678 15.7274 -8.94764
281 1 11.0063 7.86093 17.3001 -8.95186
282 1 12.5818 6.28511 15.7296 -8.94844
283 1 14.155 7.85917 17.3023 -8.95066
284 1 15.73 6.28415 15.7296 -8.94321
285 1 17.2988 7.86095 17.2985 -8.94908
286 1 18.871 6.2884 15.7254 -8.9499
287 1 20.4422 7.86174 17.2973 -8.94947
288 1 22.0139 9.43435 15.725 -8.94962
289 1 3.14356 9.43445 15.7255 -8.94945
290 1 6.28793 9.43476 15.7262 -8.9484
291 1 9.43513 9.43574 15.7226 -8.99543
292 1 12.5859 9.43071 15.7382 -8.95739
293 1 15.7298 9.43262 15.7293 -8.94728
294 1 18.8712 9.43403 15.7256 -8.94936
295 1 22.0137 2.00837e-15 18.8693 -8.94931
296 1 1.57214 1.57218 20.4415 -8.9494
297 1 3.14449 5.17706e-16 18.8694 -8.94957
298 1 4.71703 1.57218 20.4415 -8.94957
299 1 6.28948 7.44812e-16 18.8694 -8.9495
300 1 7.86198 1.57214 20.4416 -8.94954
301 1 9.43448 1.96408e-15 18.8695 -8.94954
302 1 11.007 1.57211 20.4416 -8.94954
303 1 12.5795 1.80293e-15 18.8695 -8.94952
304 1 14.152 1.57211 20.4416 -8.94955
305 1 15.7245 6.85872e-16 18.8694 -8.94952
306 1 17.297 1.57211 20.4416 -8.94957
307 1 18.8694 1.73077e-15 18.8693 -8.9494
308 1 20.4417 1.57223 20.4415 -8.94927
309 1 -3.65818e-05 3.14456 18.8694 -8.94957
310 1 1.57223 4.71709 20.4416 -8.94968
311 1 3.14423 3.14428 18.8697 -8.94946
312 1 4.71675 4.71682 20.4415 -8.9501
313 1 6.28933 3.14429 18.8697 -8.9495
314 1 7.86176 4.71661 20.4416 -8.94953
315 1 9.43438 3.14415 18.8697 -8.9495
316 1 11.0069 4.71649 20.4416 -8.94955
317 1 12.5795 3.14411 18.8697 -8.94952
318 1 14.1521 4.71644 20.4417 -8.94972
319 1 15.7248 3.14399 18.8697 -8.94955
320 1 17.2975 4.71641 20.4418 -8.94945
321 1 18.8697 3.1442 18.8695 -8.94907
322 1 20.4418 4.71697 20.4416 -8.94954
323 1 22.014 6.28946 18.8694 -8.94953
324 1 1.57222 7.86201 20.4416 -8.94955
325 1 3.14439 6.2895 18.8696 -8.94963
326 1 4.71683 7.86209 20.4416 -8.94963
327 1 6.28912 6.28928 18.8702 -8.9509
328 1 7.86178 7.86198 20.4415 -8.95021
329 1 9.43403 6.28873 18.8702 -8.94947
330 1 11.0066 7.86158 20.4418 -8.95019
331 1 12.5795 6.28862 18.8707 -8.9501
332 1 14.1526 7.8613 20.4422 -8.95068
333 1 15.7257 6.28816 18.8709 -8.94971
334 1 17.2977 7.86157 20.4418 -8.94936
335 1 18.8699 6.2891 18.8697 -8.94946
336 1 20.4418 7.86191 20.4416 -8.94953
46 1 9.43428 9.43455 22.0134 -8.94919
5 1 6.28952 2.92502e-16 22.0137 -8.94953
9 1 12.5795 7.93238e-16 22.0137 -8.94954
44 1 3.14441 9.4345 22.0136 -8.94954
39 1 15.7253 6.28857 22.0131 -8.94998
17 1 3.14429 3.14434 22.0134 -8.94952
21 1 9.43444 3.14421 22.0135 -8.94951
25 1 15.7247 3.14418 22.0136 -8.94965
27 1 18.8696 3.14432 22.0137 -8.94921
29 1 4.97869e-05 6.28952 22.0137 -8.94953
33 1 6.2891 6.28923 22.0129 -8.95063
1 1 -0.000174844 1.55565e-15 22.0138 -8.94925
13 1 18.8693 7.95193e-16 22.0137 -8.94938
23 1 12.5795 3.1442 22.0135 -8.94947
49 1 18.8698 9.43435 22.0136 -8.94949
183 1 1.57043 4.71593 11.0074 -8.94927
344 1 1.5721 11.007 1.57186 -8.94956
345 1 4.71659 11.007 1.57151 -8.94962
346 1 7.86196 11.007 1.57224 -8.9481
347 1 11.007 11.007 1.57146 -8.94726
348 1 14.1542 11.007 1.56901 -8.94956
349 1 17.2983 11.007 1.57118 -8.94946
350 1 20.442 11.007 1.57191 -8.94952
351 1 22.014 12.5794 -0.000192957 -8.94956
352 1 1.57211 14.1519 1.5719 -8.94942
688 3 10.1701 11.007 9.46996 2.27836
354 1 4.7167 14.1516 1.57151 -8.94976
355 1 6.28929 12.5792 -0.000341332 -8.94951
356 1 7.86162 14.1522 1.57004 -8.95238
511 1 18.8694 18.8697 9.43446 -8.94956
358 1 11.0068 14.1529 1.56973 -8.95069
510 1 15.7251 18.8701 9.43435 -8.94953
360 1 14.1536 14.1534 1.56914 -8.95134
361 1 15.7256 12.5798 -0.000836254 -8.94939
362 1 17.2982 14.1526 1.57122 -8.94922
538 1 17.2971 20.4419 11.0069 -8.94953
364 1 20.442 14.1521 1.57194 -8.94946
509 1 12.58 18.8704 9.43408 -8.94876
366 1 1.57195 17.297 1.57181 -8.94984
367 1 3.14447 15.7243 -0.000311174 -8.94975
368 1 4.71599 17.2978 1.57056 -8.94955
508 1 9.43428 18.8707 9.43423 -8.9463
370 1 7.86164 17.2978 1.57089 -8.94918
371 1 9.43417 15.7251 -0.000923251 -8.94968
372 1 11.0071 17.2979 1.57102 -8.94935
507 1 6.28676 18.8737 9.43417 -8.94957
374 1 14.1526 17.298 1.57106 -8.9497
506 1 3.14291 18.8707 9.43447 -8.94946
376 1 17.298 17.298 1.57132 -8.94847
505 1 -0.000673509 18.8697 9.4345 -8.94951
378 1 20.4419 17.2971 1.57201 -8.94958
504 1 18.8698 15.7252 9.4344 -8.9495
380 1 1.57185 20.4418 1.57187 -8.94915
503 1 15.7263 15.7263 9.43415 -8.94642
382 1 4.71683 20.4419 1.57175 -8.94961
383 1 6.28937 18.8696 -0.000450642 -8.94949
384 1 7.86197 20.4419 1.57179 -8.94948
502 1 12.5792 15.7261 9.43314 -8.94723
386 1 11.0071 20.4419 1.57183 -8.94951
534 1 4.71581 20.4429 11.0074 -8.94936
388 1 14.1521 20.4419 1.57194 -8.94949
501 1 9.42903 15.7228 9.43401 -9.00733
390 1 17.2972 20.442 1.57197 -8.94946
500 1 6.2778 15.7364 9.43357 -8.94353
392 1 20.4415 20.4417 1.5722 -8.94952
393 1 1.57157 11.007 4.71618 -8.94946
394 1 4.71551 11.007 4.71506 -8.94597
395 1 7.86467 11.007 4.71968 -8.94597
396 1 11.0108 11.007 4.71869 -8.99292
397 1 14.1614 11.007 4.708 -8.94236
398 1 17.3007 11.007 4.71499 -8.9492
399 1 20.4424 11.007 4.71651 -8.94989
400 1 1.75969e-05 12.5795 3.14417 -8.94954
401 1 1.57144 14.1518 4.71641 -8.94985
402 1 3.14395 12.5794 3.14372 -8.94896
403 1 4.71466 14.1521 4.71484 -8.95179
404 1 6.28922 12.5786 3.14369 -8.94939
405 1 7.85645 14.158 4.70638 -8.95547
406 1 9.43494 12.5796 3.14314 -8.95044
407 1 11.0078 14.1566 4.7082 -8.95223
408 1 12.5823 12.5806 3.13728 -8.95807
409 1 14.1631 14.162 4.70587 -8.93455
410 1 15.7279 12.5807 3.14138 -8.94782
411 1 17.3005 14.1536 4.7153 -8.95062
412 1 18.8706 12.5797 3.14379 -8.94933
413 1 20.4422 14.1522 4.71668 -8.95008
414 1 22.0138 15.7245 3.14428 -8.94983
415 1 1.57051 17.2979 4.71592 -8.94948
416 1 3.14354 15.7247 3.14344 -8.95041
417 1 4.71249 17.3012 4.71247 -8.94406
418 1 6.28675 15.727 3.13989 -8.95033
419 1 7.86064 17.3006 4.71397 -8.9487
420 1 9.43402 15.7269 3.14121 -8.94804
421 1 11.0077 17.3001 4.71437 -8.94765
422 1 12.5808 15.7269 3.14108 -8.94952
423 1 14.1549 17.3012 4.71418 -8.9493
424 1 15.7282 15.728 3.14108 -8.94561
425 1 17.298 17.2979 4.71661 -8.95003
426 1 18.8705 15.7252 3.14392 -8.94968
427 1 20.4414 17.2972 4.71686 -8.94985
428 1 22.0134 18.8696 3.1443 -8.94949
429 1 1.57164 20.442 4.71671 -8.94947
430 1 3.14325 18.8704 3.14321 -8.9481
431 1 4.71611 20.4428 4.71602 -8.95002
432 1 6.28888 18.8706 3.14329 -8.94955
433 1 7.86191 20.4427 4.71621 -8.94961
434 1 9.4345 18.8705 3.14349 -8.94939
435 1 11.0074 20.4425 4.71632 -8.94956
436 1 12.5799 18.8705 3.14366 -8.94913
437 1 14.1524 20.4425 4.71672 -8.95056
438 1 15.7255 18.8708 3.14366 -8.94933
439 1 17.297 20.4419 4.71711 -8.94968
440 1 18.8695 18.8697 3.14448 -8.94972
441 1 20.4414 20.4417 4.71708 -8.94953
442 1 1.5712 11.007 7.86134 -8.94723
443 1 4.71851 11.007 7.86187 -8.94003
444 1 7.88426 11.007 7.87131 -8.9533
445 1 11.0749 11.007 7.67481 -8.22652
446 1 14.1596 11.007 7.85553 -8.96794
447 1 17.299 11.007 7.8622 -8.95111
448 1 20.4417 11.007 7.86196 -8.94944
449 1 22.0135 12.5794 6.28911 -8.94976
450 1 1.56886 14.1528 7.86114 -8.95169
451 1 3.14291 12.5788 6.28847 -8.94979
452 1 4.70444 14.1579 7.8572 -8.95598
453 1 6.28624 12.577 6.28744 -8.95312
454 1 7.81843 14.1921 7.82409 -8.84395
455 1 9.42311 12.6007 6.28409 -8.91622
456 1 11.0228 14.1651 7.83518 -8.89587
457 1 12.6134 12.6062 6.25646 -8.87968
458 1 14.1576 14.1551 7.86089 -8.95045
459 1 15.7332 12.5815 6.28603 -8.95627
460 1 17.2983 14.1523 7.86254 -8.95084
461 1 18.8712 12.5797 6.28918 -8.9513
462 1 20.4412 14.1522 7.86196 -8.95011
463 1 -0.00131226 15.7249 6.28902 -8.9502
464 1 1.57039 17.298 7.86156 -8.94939
465 1 3.13954 15.7271 6.28673 -8.95018
466 1 4.71265 17.3013 7.86015 -8.94768
467 1 6.27543 15.7382 6.27604 -8.92795
468 1 7.85866 17.3059 7.85994 -8.95979
469 1 9.43338 15.7339 6.28316 -8.94876
470 1 11.0064 17.2997 7.86111 -8.95303
471 1 12.5863 15.7347 6.28176 -8.95011
472 1 14.1529 17.2985 7.86193 -8.94895
473 1 15.7273 15.7265 6.28854 -8.95057
474 1 17.2976 17.2977 7.86195 -8.94899
475 1 18.8698 15.7249 6.28952 -8.95009
476 1 20.4413 17.2973 7.86192 -8.94955
477 1 22.0132 18.8697 6.28934 -8.94948
478 1 1.57156 20.442 7.86189 -8.94951
479 1 3.14299 18.8708 6.28859 -8.94919
480 1 4.71579 20.4429 7.86147 -8.9494
481 1 6.28758 18.8732 6.28759 -8.9517
482 1 7.86179 20.4434 7.86172 -8.95151
483 1 9.43464 18.8723 6.2881 -8.95037
484 1 11.0071 20.4423 7.86193 -8.94967
485 1 12.58 18.8715 6.28894 -8.95222
486 1 14.1524 20.4421 7.86195 -8.94941
487 1 15.725 18.8701 6.28954 -8.94959
488 1 17.2971 20.4419 7.86201 -8.94952
489 1 18.8693 18.8696 6.28954 -8.94945
490 1 20.4414 20.4418 7.86201 -8.94956
491 1 22.0124 12.5795 9.43424 -8.94972
492 1 3.13939 12.5804 9.433 -8.95044
493 1 6.27542 12.5944 9.42789 -9.00243
494 1 9.35597 12.8327 9.42826 -8.12692
495 1 12.5666 12.5837 9.42307 -8.94063
496 1 15.7224 12.5787 9.43517 -8.94479
497 1 18.8692 12.5796 9.43456 -8.94819
498 1 22.0125 15.7251 9.43444 -8.94994
499 1 3.13966 15.7272 9.43436 -8.94935
512 1 1.56926 11.007 11.0071 -8.95115
514 1 7.81824 11.007 10.9709 -9.1267
519 1 1.56917 14.1525 11.0072 -8.95154
532 1 20.4413 17.2974 11.007 -8.94956
527 1 4.71276 17.301 11.0084 -8.94744
531 1 17.2977 17.2978 11.0068 -8.94907
530 1 14.1531 17.2986 11.0062 -8.94867
373 1 12.5795 15.7251 -0.000861532 -8.9498
377 1 18.8698 15.7247 -0.000263624 -8.94948
379 1 22.0139 18.8693 -0.000195937 -8.94958
687 2 9.45673 11.007 11.7391 0.65239
513 1 4.70653 11.007 11.0052 -8.96112
686 1 20.4417 20.4417 20.4415 -8.94927
515 1 11.1902 11.007 11.1901 -8.38259
516 1 14.1496 11.007 11.016 -8.99405
517 1 17.2976 11.007 11.0068 -8.9476
518 1 20.4413 11.007 11.0069 -8.94941
685 1 18.8697 18.8697 18.8695 -8.94907
520 1 4.70553 14.1561 11.0095 -8.95847
521 1 7.81847 14.1914 11.0399 -8.90075
522 1 11.0279 14.164 11.0281 -8.95376
523 1 14.1573 14.1545 11.0054 -8.95338
524 1 17.2987 14.1527 11.0064 -8.95001
525 1 20.4414 14.1523 11.0069 -8.94999
684 1 17.297 20.4418 20.4416 -8.94957
683 1 15.7248 18.8699 18.8697 -8.94955
528 1 7.85812 17.3066 11.0077 -8.95802
529 1 11.0072 17.3006 11.0062 -8.95067
391 1 18.8696 18.8696 22.0137 -8.94921
682 1 14.152 20.4418 20.4416 -8.94955
681 1 12.5795 18.8698 18.8697 -8.94952
533 1 1.57157 20.442 11.0071 -8.94949
680 1 11.007 20.4418 20.4416 -8.94954
535 1 7.86164 20.4436 11.0069 -8.95151
536 1 11.0072 20.4426 11.0066 -8.94961
537 1 14.1524 20.4421 11.0068 -8.94941
679 1 9.43438 18.8698 18.8697 -8.9495
539 1 20.4414 20.4418 11.007 -8.94956
540 1 1.57112 11.007 14.1528 -8.9494
541 1 4.71438 11.007 14.1533 -8.94734
542 1 7.86001 11.007 14.1528 -8.98159
543 1 11.0224 11.007 14.1667 -9.03427
544 1 14.1657 11.007 14.1654 -8.94307
545 1 17.302 11.007 14.1547 -8.94948
546 1 20.4426 11.007 14.1526 -8.95007
547 1 22.0131 12.5796 12.5799 -8.94996
548 1 1.57098 14.1522 14.1528 -8.9496
549 1 3.1411 12.5797 12.5808 -8.94808
550 1 4.71365 14.1528 14.1542 -8.95104
551 1 6.28365 12.5795 12.5822 -8.99827
552 1 7.85412 14.1589 14.1623 -8.98749
553 1 9.42976 12.6386 12.5984 -9.18623
554 1 11.0112 14.1606 14.1641 -8.9803
555 1 12.6258 12.6228 12.6289 -8.88247
556 1 14.1687 14.1673 14.1681 -8.92531
557 1 15.735 12.5817 12.5835 -8.96078
558 1 17.3018 14.1541 14.1541 -8.9519
559 1 18.8715 12.5796 12.5797 -8.95199
560 1 20.4424 14.1523 14.1524 -8.95037
561 1 22.0128 15.7249 12.5798 -8.95021
562 1 1.57064 17.2978 14.1529 -8.94974
563 1 3.13999 15.7268 12.5816 -8.95095
564 1 4.71251 17.3012 14.1563 -8.94466
565 1 6.27606 15.7382 12.5916 -8.9298
566 1 7.86007 17.3016 14.1552 -8.94785
567 1 9.43435 15.7415 12.5841 -8.96109
568 1 11.0083 17.3021 14.1554 -8.94683
569 1 12.5868 15.7379 12.587 -8.95483
570 1 14.1556 17.3026 14.1552 -8.9503
571 1 15.7276 15.7267 12.5798 -8.95065
572 1 17.2982 17.2981 14.1523 -8.95023
573 1 18.8701 15.725 12.5794 -8.94976
574 1 20.4415 17.2973 14.1521 -8.94982
575 1 -0.000622568 18.8697 12.5797 -8.94945
576 1 1.57166 20.4419 14.1523 -8.94949
577 1 3.14305 18.8707 12.5803 -8.94918
578 1 4.71605 20.4428 14.1529 -8.95001
579 1 6.28754 18.8733 12.5811 -8.95152
580 1 7.86173 20.4429 14.1529 -8.94972
581 1 9.43466 18.8737 12.5805 -8.95272
582 1 11.0074 20.443 14.1528 -8.94985
583 1 12.5801 18.8723 12.5798 -8.95282
584 1 14.1526 20.4428 14.1523 -8.95079
585 1 15.7251 18.8702 12.5792 -8.94948
586 1 17.2971 20.4419 14.1519 -8.94967
587 1 18.8694 18.8696 12.5794 -8.94943
588 1 20.4414 20.4417 14.1519 -8.94952
589 1 1.57198 11.007 17.2974 -8.94953
590 1 4.71628 11.007 17.2978 -8.94899
591 1 7.86208 11.007 17.2971 -8.9501
592 1 11.0073 11.007 17.3009 -8.95203
593 1 14.1554 11.007 17.3025 -8.94877
594 1 17.2989 11.007 17.2986 -8.94929
595 1 20.4422 11.007 17.2974 -8.94952
596 1 22.0139 12.5795 15.725 -8.94962
597 1 1.57201 14.152 17.2973 -8.94951
598 1 3.14356 12.5795 15.7255 -8.94945
599 1 4.71636 14.1519 17.2979 -8.94933
600 1 6.28793 12.5791 15.7262 -8.9484
601 1 7.86182 14.1519 17.2986 -8.95328
602 1 9.43513 12.5782 15.7226 -8.99543
603 1 11.0063 14.153 17.3001 -8.95186
604 1 12.5859 12.5832 15.7382 -8.95739
605 1 14.155 14.1547 17.3023 -8.95066
606 1 15.7298 12.5813 15.7293 -8.94728
607 1 17.2988 14.153 17.2985 -8.94908
608 1 18.8712 12.5799 15.7256 -8.94936
609 1 20.4422 14.1522 17.2973 -8.94947
610 1 -0.000129238 15.7247 15.7249 -8.94981
611 1 1.57189 17.2971 17.2974 -8.94979
612 1 3.14325 15.7249 15.7257 -8.95014
613 1 4.71579 17.298 17.2987 -8.94939
614 1 6.28617 15.7275 15.7294 -8.94986
615 1 7.86154 17.2979 17.2983 -8.94915
616 1 9.4336 15.7271 15.7274 -8.94764
617 1 11.0069 17.2981 17.2984 -8.94946
618 1 12.5818 15.7288 15.7296 -8.94844
619 1 14.153 17.2987 17.2987 -8.94941
620 1 15.73 15.7298 15.7296 -8.94321
621 1 17.2986 17.2985 17.2983 -8.94784
622 1 18.871 15.7255 15.7254 -8.9499
623 1 20.442 17.2972 17.2972 -8.94956
624 1 22.0134 18.8696 15.7247 -8.94957
625 1 1.57183 20.4418 17.2972 -8.94919
626 1 3.1432 18.8705 15.7258 -8.94825
627 1 4.71669 20.442 17.2974 -8.94957
628 1 6.2886 18.8708 15.7259 -8.94946
629 1 7.86188 20.442 17.2974 -8.9494
630 1 9.43435 18.8708 15.7257 -8.94902
631 1 11.007 20.442 17.2974 -8.94944
632 1 12.5802 18.8712 15.7258 -8.94904
633 1 14.1523 20.4422 17.2974 -8.94946
634 1 15.7258 18.8713 15.7256 -8.94953
635 1 17.2973 20.4421 17.2972 -8.94949
636 1 18.8696 18.8698 15.7246 -8.94983
637 1 20.4415 20.4418 17.2969 -8.9496
638 1 1.5722 11.007 20.4416 -8.94958
639 1 4.71675 11.007 20.4416 -8.94965
640 1 7.86176 11.007 20.4416 -8.94923
641 1 11.0066 11.007 20.4423 -8.94948
642 1 14.1529 11.007 20.4423 -8.95026
643 1 17.2977 11.007 20.4418 -8.94945
644 1 20.4419 11.007 20.4416 -8.94955
645 1 6.3275e-05 12.5795 18.8695 -8.94955
646 1 1.57222 14.1519 20.4416 -8.94955
647 1 3.14434 12.5794 18.8696 -8.94954
648 1 4.71683 14.1518 20.4416 -8.94963
649 1 6.28916 12.5793 18.8697 -8.94982
650 1 7.86178 14.1519 20.4415 -8.95021
651 1 9.43412 12.5795 18.8697 -8.94768
652 1 11.0066 14.1523 20.4418 -8.95019
653 1 12.5801 12.5799 18.8724 -8.95229
654 1 14.1526 14.1526 20.4422 -8.95068
655 1 15.7259 12.58 18.871 -8.94927
656 1 17.2977 14.1523 20.4418 -8.94936
657 1 18.87 12.5796 18.8697 -8.94945
658 1 20.4418 14.152 20.4416 -8.94953
659 1 22.014 15.7244 18.8694 -8.94953
660 1 1.57223 17.2968 20.4416 -8.94968
661 1 3.14439 15.7244 18.8696 -8.94963
662 1 4.71675 17.2971 20.4415 -8.9501
663 1 6.28912 15.7246 18.8702 -8.9509
664 1 7.86176 17.2973 20.4416 -8.94953
665 1 9.43403 15.7252 18.8702 -8.94947
666 1 11.0069 17.2974 20.4416 -8.94955
667 1 12.5795 15.7253 18.8707 -8.9501
668 1 14.1521 17.2975 20.4417 -8.94972
669 1 15.7257 15.7257 18.8709 -8.94971
670 1 17.2975 17.2975 20.4418 -8.94945
671 1 18.8699 15.7248 18.8697 -8.94946
672 1 20.4418 17.2969 20.4416 -8.94954
673 1 -3.65818e-05 18.8693 18.8694 -8.94957
674 1 1.57214 20.4417 20.4415 -8.9494
675 1 3.14423 18.8696 18.8697 -8.94946
676 1 4.71703 20.4417 20.4415 -8.94957
677 1 6.28933 18.8696 18.8697 -8.9495
678 1 7.86198 20.4418 20.4416 -8.94954
353 1 3.14441 12.5794 22.0136 -8.94954
357 1 9.43428 12.5794 22.0134 -8.94919
359 1 12.5797 12.5796 22.0128 -8.95149
365 1 4.97869e-05 15.7244 22.0137 -8.94953
369 1 6.2891 15.7247 22.0129 -8.95063
389 1 15.7247 18.8697 22.0136 -8.94965
375 1 15.7253 15.7253 22.0131 -8.94998
385 1 9.43444 18.8697 22.0135 -8.94951
381 1 3.14429 18.8696 22.0134 -8.94952
363 1 18.8698 12.5796 22.0136 -8.94949
387 1 12.5795 18.8697 22.0135 -8.94947
526 1 1.57043 17.298 11.0074 -8.94927
