ITEM: TIMESTEP
29
ITEM: NUMBER OF ATOMS
688
ITEM: BOX BOUNDS pp pp pp
0.0000000000000000e+00 2.2013900999999997e+01
0.0000000000000000e+00 2.2013900999999997e+01
0.0000000000000000e+00 2.2013900999999997e+01
ITEM: ATOMS id type x y z c_pot
192 1 7.86223 7.86251 11.007 -9.04923
2 1 1.57242 1.57242 1.57242 -8.94963
3 1 3.14484 1.89302e-16 1.5741e-12 -8.94963
4 1 4.71726 1.57242 1.57242 -8.94963
175 1 18.8691 9.43453 9.43453 -8.94964
6 1 7.86211 1.57242 1.57242 -8.94963
7 1 9.43453 9.46456e-18 3.06231e-16 -8.94963
8 1 11.007 1.57242 1.57242 -8.94963
191 1 4.71725 7.86209 11.0069 -8.94938
10 1 14.1518 1.57242 1.57242 -8.94963
174 1 15.7242 9.43453 9.43453 -8.9501
12 1 17.2966 1.57242 1.57242 -8.94963
13 1 18.8691 2.30791e-16 2.28866e-13 -8.94963
14 1 20.4415 1.57242 1.57242 -8.94963
173 1 12.5809 9.4335 9.43451 -8.9853
16 1 1.57242 4.71726 1.57242 -8.94963
17 1 3.14484 3.14484 8.12119e-11 -8.94963
18 1 4.71726 4.71726 1.57242 -8.94963
172 1 9.42964 9.42473 9.43461 -9.30265
20 1 7.86211 4.71726 1.57242 -8.94963
21 1 9.43453 3.14484 1.03238e-16 -8.94963
22 1 11.007 4.71726 1.57242 -8.94963
23 1 12.5794 3.14484 4.27163e-10 -8.94963
24 1 14.1518 4.71726 1.57242 -8.94963
171 1 6.29028 9.43483 9.43485 -9.0399
26 1 17.2966 4.71726 1.57242 -8.94963
27 1 18.8691 3.14484 5.04344e-12 -8.94963
28 1 20.4415 4.71726 1.57242 -8.94963
29 1 22.0139 6.28969 4.9018e-11 -8.94963
30 1 1.57242 7.86211 1.57242 -8.94963
170 1 3.14485 9.43453 9.43453 -8.94959
32 1 4.71726 7.86211 1.57242 -8.94963
33 1 6.28969 6.28969 2.52271e-09 -8.94963
34 1 7.86211 7.86211 1.57242 -8.94963
35 1 9.43453 6.28969 1.59735e-16 -8.94963
36 1 11.007 7.86211 1.57242 -8.94963
169 1 1.69885e-07 9.43453 9.43453 -8.94963
38 1 14.1518 7.86211 1.57242 -8.94963
39 1 15.7242 6.28969 1.53197e-09 -8.94963
40 1 17.2966 7.86211 1.57242 -8.94963
168 1 18.8691 6.28969 9.43453 -8.94963
42 1 20.4415 7.86211 1.57242 -8.94963
167 1 15.7242 6.28969 9.43453 -8.94966
166 1 12.5794 6.28967 9.43453 -8.95006
165 1 9.43455 6.2895 9.43453 -8.95263
46 1 9.43453 9.43453 9.62224e-17 -8.94963
47 1 12.5794 9.43453 2.43399e-08 -8.94963
190 1 1.57242 7.86211 11.007 -8.94963
49 1 18.8691 9.43453 3.34325e-10 -8.94963
50 1 22.0139 1.95686e-16 3.14484 -8.94963
51 1 1.57242 1.57242 4.71726 -8.94963
52 1 3.14484 2.13167e-16 3.14484 -8.94963
53 1 4.71726 1.57242 4.71726 -8.94963
54 1 6.28969 1.45405e-16 3.14484 -8.94963
55 1 7.86211 1.57242 4.71726 -8.94963
56 1 9.43453 8.98258e-17 3.14484 -8.94963
57 1 11.007 1.57242 4.71726 -8.94963
58 1 12.5794 1.52106e-16 3.14484 -8.94963
59 1 14.1518 1.57242 4.71726 -8.94963
60 1 15.7242 3.39085e-18 3.14484 -8.94963
61 1 17.2966 1.57242 4.71726 -8.94963
62 1 18.8691 1.73942e-16 3.14484 -8.94963
63 1 20.4415 1.57242 4.71726 -8.94963
64 1 3.78166e-11 3.14484 3.14484 -8.94963
65 1 1.57242 4.71726 4.71726 -8.94963
66 1 3.14484 3.14484 3.14484 -8.94963
67 1 4.71726 4.71726 4.71726 -8.94963
68 1 6.28969 3.14484 3.14484 -8.94963
69 1 7.86211 4.71726 4.71726 -8.94963
70 1 9.43453 3.14484 3.14484 -8.94963
71 1 11.007 4.71726 4.71726 -8.94963
72 1 12.5794 3.14484 3.14484 -8.94963
73 1 14.1518 4.71726 4.71726 -8.94963
74 1 15.7242 3.14484 3.14484 -8.94963
75 1 17.2966 4.71726 4.71726 -8.94963
76 1 18.8691 3.14484 3.14484 -8.94963
77 1 20.4415 4.71726 4.71726 -8.94963
78 1 22.0139 6.28969 3.14484 -8.94963
79 1 1.57242 7.86211 4.71726 -8.94963
80 1 3.14484 6.28969 3.14484 -8.94963
81 1 4.71726 7.86211 4.71726 -8.94962
82 1 6.28969 6.28969 3.14484 -8.94963
83 1 7.86211 7.86211 4.71727 -8.94964
84 1 9.43453 6.28969 3.14484 -8.94963
85 1 11.007 7.86211 4.71727 -8.94982
86 1 12.5794 6.28969 3.14484 -8.94963
87 1 14.1518 7.86211 4.71727 -8.94972
88 1 15.7242 6.28969 3.14484 -8.94963
89 1 17.2966 7.86211 4.71726 -8.94963
90 1 18.8691 6.28969 3.14484 -8.94963
91 1 20.4415 7.86211 4.71726 -8.94963
92 1 9.74729e-10 9.43453 3.14484 -8.94963
93 1 3.14484 9.43453 3.14484 -8.94963
94 1 6.28969 9.43453 3.14484 -8.94963
95 1 9.43453 9.43453 3.14484 -8.94957
96 1 12.5794 9.43453 3.14485 -8.94951
97 1 15.7242 9.43453 3.14484 -8.94963
98 1 18.8691 9.43453 3.14484 -8.94963
99 1 4.57688e-12 2.46839e-16 6.28969 -8.94963
100 1 1.57242 1.57242 7.86211 -8.94963
101 1 3.14484 2.29104e-16 6.28969 -8.94963
102 1 4.71726 1.57242 7.86211 -8.94963
103 1 6.28969 2.77836e-16 6.28969 -8.94963
104 1 7.86211 1.57242 7.86211 -8.94963
105 1 9.43453 5.74529e-17 6.28969 -8.94963
106 1 11.007 1.57242 7.86211 -8.94963
107 1 12.5794 6.82927e-17 6.28969 -8.94963
108 1 14.1518 1.57242 7.86211 -8.94963
109 1 15.7242 2.17844e-16 6.28969 -8.94963
110 1 17.2966 1.57242 7.86211 -8.94963
111 1 18.8691 1.99271e-16 6.28969 -8.94963
112 1 20.4415 1.57242 7.86211 -8.94963
113 1 22.0139 3.14484 6.28969 -8.94963
114 1 1.57242 4.71726 7.86211 -8.94963
115 1 3.14484 3.14484 6.28969 -8.94963
116 1 4.71726 4.71726 7.86211 -8.94963
117 1 6.28969 3.14484 6.28969 -8.94963
118 1 7.86211 4.71727 7.86211 -8.94951
119 1 9.43453 3.14484 6.28969 -8.94963
120 1 11.007 4.71726 7.86211 -8.94957
121 1 12.5794 3.14484 6.28969 -8.94963
122 1 14.1518 4.71726 7.86211 -8.94964
123 1 15.7242 3.14484 6.28969 -8.94963
124 1 17.2966 4.71726 7.86211 -8.94963
125 1 18.8691 3.14484 6.28969 -8.94963
126 1 20.4415 4.71726 7.86211 -8.94963
127 1 5.33036e-09 6.28969 6.28969 -8.94963
128 1 1.57242 7.86211 7.86211 -8.94963
129 1 3.14484 6.28969 6.28969 -8.94964
130 1 4.71727 7.86212 7.86211 -8.94979
131 1 6.28969 6.28969 6.28969 -8.94971
132 1 7.86229 7.86243 7.86215 -8.99317
133 1 9.43453 6.28969 6.28969 -8.94982
134 1 11.007 7.86219 7.86216 -9.00588
135 1 12.5794 6.28969 6.28969 -8.94964
136 1 14.1518 7.86209 7.86209 -8.94929
137 1 15.7242 6.28969 6.28969 -8.94962
138 1 17.2966 7.86211 7.86211 -8.94963
139 1 18.8691 6.28969 6.28969 -8.94963
140 1 20.4415 7.86211 7.86211 -8.94963
141 1 22.0139 9.43453 6.28969 -8.94963
142 1 3.14484 9.43453 6.28969 -8.94963
143 1 6.28966 9.43451 6.28967 -8.94918
144 1 9.43447 9.43458 6.28977 -9.00581
145 1 12.5792 9.43457 6.29001 -8.99298
146 1 15.7242 9.43453 6.28969 -8.94971
147 1 18.8691 9.43453 6.28969 -8.94963
148 1 1.49835e-11 1.21289e-16 9.43453 -8.94963
149 1 3.14484 1.23214e-16 9.43453 -8.94963
150 1 6.28969 9.40712e-17 9.43453 -8.94963
151 1 9.43453 1.20432e-16 9.43453 -8.94963
152 1 12.5794 1.06937e-16 9.43453 -8.94963
153 1 15.7242 1.92333e-16 9.43453 -8.94963
154 1 18.8691 1.54597e-16 9.43453 -8.94963
155 1 8.4441e-10 3.14484 9.43453 -8.94963
156 1 3.14484 3.14484 9.43453 -8.94963
157 1 6.28969 3.14484 9.43453 -8.94963
158 1 9.43453 3.14484 9.43453 -8.94969
159 1 12.5794 3.14484 9.43453 -8.94964
160 1 15.7242 3.14484 9.43453 -8.94963
161 1 18.8691 3.14484 9.43453 -8.94963
162 1 22.0139 6.28969 9.43453 -8.94963
163 1 3.14484 6.28969 9.43453 -8.94961
164 1 6.28969 6.2897 9.43453 -8.94993
177 1 4.71726 1.57242 11.007 -8.94963
178 1 7.86211 1.57242 11.007 -8.94963
181 1 17.2966 1.57242 11.007 -8.94963
184 1 4.71726 4.71726 11.007 -8.94963
185 1 7.8621 4.71727 11.007 -8.94946
188 1 17.2966 4.71726 11.007 -8.94963
5 1 6.28969 5.22826e-17 2.43663e-12 -8.94963
44 1 3.14484 9.43453 6.44482e-10 -8.94963
176 1 1.57242 1.57242 11.007 -8.94963
343 1 18.8691 9.43453 18.8691 -8.94963
342 1 15.7242 9.43453 18.8691 -8.94963
179 1 11.007 1.57242 11.007 -8.94963
180 1 14.1518 1.57242 11.007 -8.94963
341 1 12.5794 9.43453 18.8691 -8.94963
182 1 20.4415 1.57242 11.007 -8.94963
183 1 1.57242 4.71726 11.007 -8.94963
340 1 9.43453 9.43453 18.8691 -8.94957
339 1 6.28968 9.43453 18.8691 -8.94951
186 1 11.007 4.71727 11.007 -8.94946
187 1 14.1518 4.71726 11.007 -8.94963
338 1 3.14484 9.43453 18.8691 -8.94963
189 1 20.4415 4.71726 11.007 -8.94963
337 1 22.0139 9.43453 18.8691 -8.94963
336 1 20.4415 7.86211 20.4415 -8.94963
335 1 18.8691 6.28969 18.8691 -8.94963
193 1 11.0068 7.86251 11.0069 -9.04923
194 1 14.1518 7.86209 11.007 -8.94938
195 1 17.2966 7.86211 11.007 -8.94963
196 1 20.4415 7.86211 11.007 -8.94963
197 1 22.0139 1.51339e-16 12.5794 -8.94963
198 1 1.57242 1.57242 14.1518 -8.94963
199 1 3.14484 1.98517e-16 12.5794 -8.94963
200 1 4.71726 1.57242 14.1518 -8.94963
201 1 6.28969 1.10071e-16 12.5794 -8.94963
202 1 7.86211 1.57242 14.1518 -8.94963
203 1 9.43453 1.30644e-16 12.5794 -8.94963
204 1 11.007 1.57242 14.1518 -8.94963
205 1 12.5794 9.26484e-17 12.5794 -8.94963
206 1 14.1518 1.57242 14.1518 -8.94963
207 1 15.7242 1.20141e-16 12.5794 -8.94963
208 1 17.2966 1.57242 14.1518 -8.94963
209 1 18.8691 1.17206e-16 12.5794 -8.94963
210 1 20.4415 1.57242 14.1518 -8.94963
211 1 22.0139 3.14484 12.5794 -8.94963
212 1 1.57242 4.71726 14.1518 -8.94963
213 1 3.14484 3.14484 12.5794 -8.94963
214 1 4.71726 4.71726 14.1518 -8.94964
215 1 6.28969 3.14484 12.5794 -8.94964
216 1 7.86211 4.71726 14.1518 -8.94957
217 1 9.43453 3.14484 12.5794 -8.94969
218 1 11.007 4.71727 14.1518 -8.94951
219 1 12.5794 3.14484 12.5794 -8.94963
220 1 14.1518 4.71726 14.1518 -8.94963
221 1 15.7242 3.14484 12.5794 -8.94963
222 1 17.2966 4.71726 14.1518 -8.94963
223 1 18.8691 3.14484 12.5794 -8.94963
224 1 20.4415 4.71726 14.1518 -8.94963
225 1 4.09606e-09 6.28969 12.5794 -8.94963
226 1 1.57242 7.86211 14.1518 -8.94963
227 1 3.14484 6.28969 12.5794 -8.94966
228 1 4.71724 7.86209 14.1518 -8.94929
229 1 6.28968 6.28967 12.5794 -8.95006
230 1 7.86205 7.86219 14.1517 -9.00588
231 1 9.43451 6.2895 12.5794 -8.95263
232 1 11.0068 7.86243 14.1517 -8.99317
233 1 12.5794 6.2897 12.5794 -8.94993
234 1 14.1518 7.86212 14.1518 -8.94979
235 1 15.7242 6.28969 12.5794 -8.94961
236 1 17.2966 7.86211 14.1518 -8.94963
237 1 18.8691 6.28969 12.5794 -8.94963
238 1 20.4415 7.86211 14.1518 -8.94963
239 1 22.0139 9.43453 12.5794 -8.94964
240 1 3.14482 9.43453 12.5794 -8.9501
241 1 6.28812 9.4335 12.5794 -8.9853
242 1 9.43942 9.42473 12.5793 -9.30265
243 1 12.5788 9.43483 12.5791 -9.0399
244 1 15.7242 9.43453 12.5794 -8.94959
245 1 18.8691 9.43453 12.5794 -8.94963
246 1 8.75963e-12 2.03661e-16 15.7242 -8.94963
247 1 1.57242 1.57242 17.2966 -8.94963
248 1 3.14484 2.23812e-16 15.7242 -8.94963
249 1 4.71726 1.57242 17.2966 -8.94963
250 1 6.28969 7.15107e-17 15.7242 -8.94963
251 1 7.86211 1.57242 17.2966 -8.94963
252 1 9.43453 5.59762e-17 15.7242 -8.94963
253 1 11.007 1.57242 17.2966 -8.94963
254 1 12.5794 2.80422e-16 15.7242 -8.94963
255 1 14.1518 1.57242 17.2966 -8.94963
256 1 15.7242 2.25495e-16 15.7242 -8.94963
257 1 17.2966 1.57242 17.2966 -8.94963
258 1 18.8691 3.33709e-16 15.7242 -8.94963
259 1 20.4415 1.57242 17.2966 -8.94963
260 1 5.03983e-10 3.14484 15.7242 -8.94963
261 1 1.57242 4.71726 17.2966 -8.94963
262 1 3.14484 3.14484 15.7242 -8.94963
263 1 4.71726 4.71726 17.2966 -8.94963
264 1 6.28969 3.14484 15.7242 -8.94963
265 1 7.86211 4.71726 17.2966 -8.94963
266 1 9.43453 3.14484 15.7242 -8.94963
267 1 11.007 4.71726 17.2966 -8.94963
268 1 12.5794 3.14484 15.7242 -8.94963
269 1 14.1518 4.71726 17.2966 -8.94963
270 1 15.7242 3.14484 15.7242 -8.94963
271 1 17.2966 4.71726 17.2966 -8.94963
272 1 18.8691 3.14484 15.7242 -8.94963
273 1 20.4415 4.71726 17.2966 -8.94963
274 1 22.0139 6.28969 15.7242 -8.94963
275 1 1.57242 7.86211 17.2966 -8.94963
276 1 3.14484 6.28969 15.7242 -8.94962
277 1 4.71727 7.86211 17.2966 -8.94972
278 1 6.28969 6.28969 15.7242 -8.94964
279 1 7.86211 7.86211 17.2966 -8.94982
280 1 9.43453 6.28969 15.7242 -8.94982
281 1 11.0069 7.86211 17.2966 -8.94964
282 1 12.5794 6.28969 15.7242 -8.94971
283 1 14.1518 7.86211 17.2966 -8.94962
284 1 15.7242 6.28969 15.7242 -8.94964
285 1 17.2966 7.86211 17.2966 -8.94963
286 1 18.8691 6.28969 15.7242 -8.94963
287 1 20.4415 7.86211 17.2966 -8.94963
288 1 1.17755e-07 9.43453 15.7242 -8.94963
289 1 3.14485 9.43453 15.7242 -8.94971
290 1 6.28987 9.43457 15.7239 -8.99298
291 1 9.43459 9.43458 15.7241 -9.00581
292 1 12.5794 9.43451 15.7242 -8.94918
293 1 15.7242 9.43453 15.7242 -8.94963
294 1 18.8691 9.43453 15.7242 -8.94963
295 1 22.0139 1.72954e-16 18.8691 -8.94963
296 1 1.57242 1.57242 20.4415 -8.94963
297 1 3.14484 -3.53961e-19 18.8691 -8.94963
298 1 4.71726 1.57242 20.4415 -8.94963
299 1 6.28969 1.5578e-16 18.8691 -8.94963
300 1 7.86211 1.57242 20.4415 -8.94963
301 1 9.43453 7.99646e-17 18.8691 -8.94963
302 1 11.007 1.57242 20.4415 -8.94963
303 1 12.5794 1.23935e-16 18.8691 -8.94963
304 1 14.1518 1.57242 20.4415 -8.94963
305 1 15.7242 2.24976e-16 18.8691 -8.94963
306 1 17.2966 1.57242 20.4415 -8.94963
307 1 18.8691 1.91704e-16 18.8691 -8.94963
308 1 20.4415 1.57242 20.4415 -8.94963
309 1 22.0139 3.14484 18.8691 -8.94963
310 1 1.57242 4.71726 20.4415 -8.94963
311 1 3.14484 3.14484 18.8691 -8.94963
312 1 4.71726 4.71726 20.4415 -8.94963
313 1 6.28969 3.14484 18.8691 -8.94963
314 1 7.86211 4.71726 20.4415 -8.94963
315 1 9.43453 3.14484 18.8691 -8.94963
316 1 11.007 4.71726 20.4415 -8.94963
317 1 12.5794 3.14484 18.8691 -8.94963
318 1 14.1518 4.71726 20.4415 -8.94963
319 1 15.7242 3.14484 18.8691 -8.94963
320 1 17.2966 4.71726 20.4415 -8.94963
321 1 18.8691 3.14484 18.8691 -8.94963
322 1 20.4415 4.71726 20.4415 -8.94963
323 1 2.48969e-09 6.28969 18.8691 -8.94963
324 1 1.57242 7.86211 20.4415 -8.94963
325 1 3.14484 6.28969 18.8691 -8.94963
326 1 4.71726 7.86211 20.4415 -8.94963
327 1 6.28969 6.28969 18.8691 -8.94963
328 1 7.86211 7.86211 20.4415 -8.94963
329 1 9.43453 6.28969 18.8691 -8.94963
330 1 11.007 7.86211 20.4415 -8.94963
331 1 12.5794 6.28969 18.8691 -8.94963
332 1 14.1518 7.86211 20.4415 -8.94963
333 1 15.7242 6.28969 18.8691 -8.94963
334 1 17.2966 7.86211 20.4415 -8.94963
45 1 6.28969 9.43453 22.0139 -8.94963
11 1 15.7242 1.98568e-16 22.0139 -8.94963
15 1 4.57744e-12 3.14484 22.0139 -8.94963
19 1 6.28969 3.14484 22.0139 -8.94963
25 1 15.7242 3.14484 22.0139 -8.94963
31 1 3.14484 6.28969 22.0139 -8.94963
37 1 12.5794 6.28969 22.0139 -8.94963
41 1 18.8691 6.28969 22.0139 -8.94963
43 1 3.36128e-10 9.43453 22.0139 -8.94963
1 1 3.66205e-13 2.28876e-16 22.0139 -8.94963
9 1 12.5794 3.71397e-17 22.0139 -8.94963
48 1 15.7242 9.43453 22.0139 -8.94963
344 1 1.57242 11.007 1.57242 -8.94963
345 1 4.71726 11.007 1.57242 -8.94963
346 1 7.86211 11.007 1.57242 -8.94964
347 1 11.007 11.007 1.57242 -8.94968
348 1 14.1518 11.007 1.57242 -8.94963
349 1 17.2966 11.007 1.57242 -8.94963
350 1 20.4415 11.007 1.57242 -8.94963
688 2 10.2208 11.007 9.4345 1.13444
352 1 1.57242 14.1518 1.57242 -8.94963
511 1 18.8691 18.8691 9.43453 -8.94963
354 1 4.71726 14.1518 1.57242 -8.94963
510 1 15.7242 18.8691 9.43453 -8.94963
356 1 7.86211 14.1518 1.57242 -8.94963
357 1 9.43453 12.5794 9.76958e-17 -8.94963
358 1 11.007 14.1518 1.57242 -8.94963
359 1 12.5794 12.5794 2.43399e-08 -8.94963
360 1 14.1518 14.1518 1.57242 -8.94963
538 1 17.2966 20.4415 11.007 -8.94963
362 1 17.2966 14.1518 1.57242 -8.94963
363 1 18.8691 12.5794 3.34325e-10 -8.94963
364 1 20.4415 14.1518 1.57242 -8.94963
365 1 22.0139 15.7242 4.9018e-11 -8.94963
366 1 1.57242 17.2966 1.57242 -8.94963
509 1 12.5794 18.8691 9.43453 -8.94964
368 1 4.71726 17.2966 1.57242 -8.94963
369 1 6.28969 15.7242 2.52271e-09 -8.94963
370 1 7.86211 17.2966 1.57242 -8.94963
371 1 9.43453 15.7242 1.69836e-16 -8.94963
372 1 11.007 17.2966 1.57242 -8.94963
508 1 9.43453 18.8691 9.43453 -8.94969
374 1 14.1518 17.2966 1.57242 -8.94963
375 1 15.7242 15.7242 1.53197e-09 -8.94963
376 1 17.2966 17.2966 1.57242 -8.94963
507 1 6.28969 18.8691 9.43453 -8.94963
378 1 20.4415 17.2966 1.57242 -8.94963
506 1 3.14484 18.8691 9.43453 -8.94963
380 1 1.57242 20.4415 1.57242 -8.94963
381 1 3.14484 18.8691 8.1212e-11 -8.94963
382 1 4.71726 20.4415 1.57242 -8.94963
505 1 8.4441e-10 18.8691 9.43453 -8.94963
384 1 7.86211 20.4415 1.57242 -8.94963
385 1 9.43453 18.8691 1.04518e-16 -8.94963
386 1 11.007 20.4415 1.57242 -8.94963
387 1 12.5794 18.8691 4.27162e-10 -8.94963
388 1 14.1518 20.4415 1.57242 -8.94963
504 1 18.8691 15.7242 9.43453 -8.94963
390 1 17.2966 20.4415 1.57242 -8.94963
391 1 18.8691 18.8691 5.04338e-12 -8.94963
392 1 20.4415 20.4415 1.57242 -8.94963
393 1 1.57242 11.007 4.71726 -8.94963
394 1 4.71727 11.007 4.71727 -8.94966
395 1 7.8621 11.007 4.71724 -8.95003
396 1 11.0069 11.007 4.71707 -8.95245
397 1 14.1518 11.007 4.71727 -8.94992
398 1 17.2966 11.007 4.71726 -8.94962
399 1 20.4415 11.007 4.71726 -8.94963
400 1 9.74729e-10 12.5794 3.14484 -8.94963
401 1 1.57242 14.1518 4.71726 -8.94963
402 1 3.14484 12.5794 3.14484 -8.94963
403 1 4.71726 14.1518 4.71726 -8.94962
404 1 6.28969 12.5794 3.14484 -8.94963
405 1 7.86211 14.1518 4.71727 -8.94964
406 1 9.43453 12.5794 3.14484 -8.94957
407 1 11.007 14.1518 4.71727 -8.94982
408 1 12.5794 12.5794 3.14485 -8.94951
409 1 14.1518 14.1518 4.71727 -8.94972
410 1 15.7242 12.5794 3.14484 -8.94963
411 1 17.2966 14.1518 4.71726 -8.94963
412 1 18.8691 12.5794 3.14484 -8.94963
413 1 20.4415 14.1518 4.71726 -8.94963
414 1 22.0139 15.7242 3.14484 -8.94963
415 1 1.57242 17.2966 4.71726 -8.94963
416 1 3.14484 15.7242 3.14484 -8.94963
417 1 4.71726 17.2966 4.71726 -8.94963
418 1 6.28969 15.7242 3.14484 -8.94963
419 1 7.86211 17.2966 4.71726 -8.94963
420 1 9.43453 15.7242 3.14484 -8.94963
421 1 11.007 17.2966 4.71726 -8.94963
422 1 12.5794 15.7242 3.14484 -8.94963
423 1 14.1518 17.2966 4.71726 -8.94963
424 1 15.7242 15.7242 3.14484 -8.94963
425 1 17.2966 17.2966 4.71726 -8.94963
426 1 18.8691 15.7242 3.14484 -8.94963
427 1 20.4415 17.2966 4.71726 -8.94963
428 1 3.78167e-11 18.8691 3.14484 -8.94963
429 1 1.57242 20.4415 4.71726 -8.94963
430 1 3.14484 18.8691 3.14484 -8.94963
431 1 4.71726 20.4415 4.71726 -8.94963
432 1 6.28969 18.8691 3.14484 -8.94963
433 1 7.86211 20.4415 4.71726 -8.94963
434 1 9.43453 18.8691 3.14484 -8.94963
435 1 11.007 20.4415 4.71726 -8.94963
436 1 12.5794 18.8691 3.14484 -8.94963
437 1 14.1518 20.4415 4.71726 -8.94963
438 1 15.7242 18.8691 3.14484 -8.94963
439 1 17.2966 20.4415 4.71726 -8.94963
440 1 18.8691 18.8691 3.14484 -8.94963
441 1 20.4415 20.4415 4.71726 -8.94963
442 1 1.57242 11.007 7.86211 -8.94963
443 1 4.71725 11.007 7.86212 -8.95039
444 1 7.86058 11.007 7.8609 -8.98845
445 1 11.0119 11.007 7.85224 -9.24691
446 1 14.1514 11.007 7.86237 -8.99658
447 1 17.2966 11.007 7.86211 -8.94951
448 1 20.4415 11.007 7.86211 -8.94963
449 1 22.0139 12.5794 6.28969 -8.94963
450 1 1.57242 14.1518 7.86211 -8.94963
451 1 3.14484 12.5794 6.28969 -8.94963
452 1 4.71727 14.1518 7.86211 -8.94979
453 1 6.28966 12.5794 6.28967 -8.94918
454 1 7.86229 14.1515 7.86215 -8.99317
455 1 9.43447 12.5793 6.28977 -9.00581
456 1 11.007 14.1517 7.86216 -9.00588
457 1 12.5792 12.5793 6.29001 -8.99298
458 1 14.1518 14.1518 7.86209 -8.94929
459 1 15.7242 12.5794 6.28969 -8.94971
460 1 17.2966 14.1518 7.86211 -8.94963
461 1 18.8691 12.5794 6.28969 -8.94963
462 1 20.4415 14.1518 7.86211 -8.94963
463 1 5.33036e-09 15.7242 6.28969 -8.94963
464 1 1.57242 17.2966 7.86211 -8.94963
465 1 3.14484 15.7242 6.28969 -8.94964
466 1 4.71726 17.2966 7.86211 -8.94963
467 1 6.28969 15.7242 6.28969 -8.94971
468 1 7.86211 17.2966 7.86211 -8.94951
469 1 9.43453 15.7242 6.28969 -8.94982
470 1 11.007 17.2966 7.86211 -8.94957
471 1 12.5794 15.7242 6.28969 -8.94964
472 1 14.1518 17.2966 7.86211 -8.94964
473 1 15.7242 15.7242 6.28969 -8.94962
474 1 17.2966 17.2966 7.86211 -8.94963
475 1 18.8691 15.7242 6.28969 -8.94963
476 1 20.4415 17.2966 7.86211 -8.94963
477 1 22.0139 18.8691 6.28969 -8.94963
478 1 1.57242 20.4415 7.86211 -8.94963
479 1 3.14484 18.8691 6.28969 -8.94963
480 1 4.71726 20.4415 7.86211 -8.94963
481 1 6.28969 18.8691 6.28969 -8.94963
482 1 7.86211 20.4415 7.86211 -8.94963
483 1 9.43453 18.8691 6.28969 -8.94963
484 1 11.007 20.4415 7.86211 -8.94963
485 1 12.5794 18.8691 6.28969 -8.94963
486 1 14.1518 20.4415 7.86211 -8.94963
487 1 15.7242 18.8691 6.28969 -8.94963
488 1 17.2966 20.4415 7.86211 -8.94963
489 1 18.8691 18.8691 6.28969 -8.94963
490 1 20.4415 20.4415 7.86211 -8.94963
491 1 1.69885e-07 12.5794 9.43453 -8.94963
492 1 3.14485 12.5794 9.43453 -8.94959
493 1 6.29028 12.5791 9.43485 -9.0399
494 1 9.42964 12.5892 9.43461 -9.30265
495 1 12.5809 12.5804 9.43451 -8.9853
496 1 15.7242 12.5794 9.43453 -8.9501
497 1 18.8691 12.5794 9.43453 -8.94964
498 1 22.0139 15.7242 9.43453 -8.94963
499 1 3.14484 15.7242 9.43453 -8.94961
500 1 6.28969 15.7242 9.43453 -8.94993
501 1 9.43455 15.7244 9.43453 -8.95263
502 1 12.5794 15.7242 9.43453 -8.95006
503 1 15.7242 15.7242 9.43453 -8.94966
512 1 1.57243 11.007 11.007 -8.94952
514 1 7.85557 11.007 10.9981 -9.28245
516 1 14.1514 11.007 11.0067 -8.99701
519 1 1.57242 14.1518 11.007 -8.94963
520 1 4.71725 14.1518 11.0069 -8.94938
521 1 7.86223 14.1514 11.007 -9.04923
527 1 4.71726 17.2966 11.007 -8.94963
528 1 7.8621 17.2966 11.007 -8.94946
531 1 17.2966 17.2966 11.007 -8.94963
534 1 4.71726 20.4415 11.007 -8.94963
535 1 7.86211 20.4415 11.007 -8.94963
353 1 3.14484 12.5794 6.44482e-10 -8.94963
687 2 8.64829 11.007 12.5794 1.13444
513 1 4.71766 11.007 11.0072 -8.99701
686 1 20.4415 20.4415 20.4415 -8.94963
515 1 11.0135 11.007 11.0158 -9.28245
685 1 18.8691 18.8691 18.8691 -8.94963
517 1 17.2966 11.007 11.007 -8.94952
518 1 20.4415 11.007 11.007 -8.94963
684 1 17.2966 20.4415 20.4415 -8.94963
683 1 15.7242 18.8691 18.8691 -8.94963
682 1 14.1518 20.4415 20.4415 -8.94963
522 1 11.0068 14.1514 11.0069 -9.04923
523 1 14.1518 14.1518 11.007 -8.94938
524 1 17.2966 14.1518 11.007 -8.94963
525 1 20.4415 14.1518 11.007 -8.94963
526 1 1.57242 17.2966 11.007 -8.94963
681 1 12.5794 18.8691 18.8691 -8.94963
680 1 11.007 20.4415 20.4415 -8.94963
529 1 11.007 17.2966 11.007 -8.94946
530 1 14.1518 17.2966 11.007 -8.94963
679 1 9.43453 18.8691 18.8691 -8.94963
532 1 20.4415 17.2966 11.007 -8.94963
533 1 1.57242 20.4415 11.007 -8.94963
678 1 7.86211 20.4415 20.4415 -8.94963
677 1 6.28969 18.8691 18.8691 -8.94963
536 1 11.007 20.4415 11.007 -8.94963
537 1 14.1518 20.4415 11.007 -8.94963
676 1 4.71726 20.4415 20.4415 -8.94963
539 1 20.4415 20.4415 11.007 -8.94963
540 1 1.57243 11.007 14.1518 -8.94951
541 1 4.71768 11.007 14.1515 -8.99658
542 1 7.85715 11.007 14.1617 -9.24691
543 1 11.0085 11.007 14.153 -8.98845
544 1 14.1518 11.007 14.1518 -8.95039
545 1 17.2966 11.007 14.1518 -8.94963
546 1 20.4415 11.007 14.1518 -8.94963
547 1 22.0139 12.5794 12.5794 -8.94964
548 1 1.57242 14.1518 14.1518 -8.94963
549 1 3.14482 12.5794 12.5794 -8.9501
550 1 4.71724 14.1518 14.1518 -8.94929
551 1 6.28812 12.5804 12.5794 -8.9853
552 1 7.86205 14.1517 14.1517 -9.00588
553 1 9.43942 12.5892 12.5793 -9.30265
554 1 11.0068 14.1515 14.1517 -8.99317
555 1 12.5788 12.5791 12.5791 -9.0399
556 1 14.1518 14.1518 14.1518 -8.94979
557 1 15.7242 12.5794 12.5794 -8.94959
558 1 17.2966 14.1518 14.1518 -8.94963
559 1 18.8691 12.5794 12.5794 -8.94963
560 1 20.4415 14.1518 14.1518 -8.94963
561 1 4.09606e-09 15.7242 12.5794 -8.94963
562 1 1.57242 17.2966 14.1518 -8.94963
563 1 3.14484 15.7242 12.5794 -8.94966
564 1 4.71726 17.2966 14.1518 -8.94964
565 1 6.28968 15.7242 12.5794 -8.95006
566 1 7.86211 17.2966 14.1518 -8.94957
567 1 9.43451 15.7244 12.5794 -8.95263
568 1 11.007 17.2966 14.1518 -8.94951
569 1 12.5794 15.7242 12.5794 -8.94993
570 1 14.1518 17.2966 14.1518 -8.94963
571 1 15.7242 15.7242 12.5794 -8.94961
572 1 17.2966 17.2966 14.1518 -8.94963
573 1 18.8691 15.7242 12.5794 -8.94963
574 1 20.4415 17.2966 14.1518 -8.94963
575 1 22.0139 18.8691 12.5794 -8.94963
576 1 1.57242 20.4415 14.1518 -8.94963
577 1 3.14484 18.8691 12.5794 -8.94963
578 1 4.71726 20.4415 14.1518 -8.94963
579 1 6.28969 18.8691 12.5794 -8.94964
580 1 7.86211 20.4415 14.1518 -8.94963
581 1 9.43453 18.8691 12.5794 -8.94969
582 1 11.007 20.4415 14.1518 -8.94963
583 1 12.5794 18.8691 12.5794 -8.94963
584 1 14.1518 20.4415 14.1518 -8.94963
585 1 15.7242 18.8691 12.5794 -8.94963
586 1 17.2966 20.4415 14.1518 -8.94963
587 1 18.8691 18.8691 12.5794 -8.94963
588 1 20.4415 20.4415 14.1518 -8.94963
589 1 1.57242 11.007 17.2966 -8.94962
590 1 4.71727 11.007 17.2966 -8.94992
591 1 7.86213 11.007 17.2968 -8.95245
592 1 11.007 11.007 17.2967 -8.95003
593 1 14.1518 11.007 17.2966 -8.94966
594 1 17.2966 11.007 17.2966 -8.94963
595 1 20.4415 11.007 17.2966 -8.94963
596 1 1.17755e-07 12.5794 15.7242 -8.94963
597 1 1.57242 14.1518 17.2966 -8.94963
598 1 3.14485 12.5794 15.7242 -8.94971
599 1 4.71727 14.1518 17.2966 -8.94972
600 1 6.28987 12.5793 15.7239 -8.99298
601 1 7.86211 14.1518 17.2966 -8.94982
602 1 9.43459 12.5793 15.7241 -9.00581
603 1 11.0069 14.1518 17.2966 -8.94964
604 1 12.5794 12.5794 15.7242 -8.94918
605 1 14.1518 14.1518 17.2966 -8.94962
606 1 15.7242 12.5794 15.7242 -8.94963
607 1 17.2966 14.1518 17.2966 -8.94963
608 1 18.8691 12.5794 15.7242 -8.94963
609 1 20.4415 14.1518 17.2966 -8.94963
610 1 22.0139 15.7242 15.7242 -8.94963
611 1 1.57242 17.2966 17.2966 -8.94963
612 1 3.14484 15.7242 15.7242 -8.94962
613 1 4.71726 17.2966 17.2966 -8.94963
614 1 6.28969 15.7242 15.7242 -8.94964
615 1 7.86211 17.2966 17.2966 -8.94963
616 1 9.43453 15.7242 15.7242 -8.94982
617 1 11.007 17.2966 17.2966 -8.94963
618 1 12.5794 15.7242 15.7242 -8.94971
619 1 14.1518 17.2966 17.2966 -8.94963
620 1 15.7242 15.7242 15.7242 -8.94964
621 1 17.2966 17.2966 17.2966 -8.94963
622 1 18.8691 15.7242 15.7242 -8.94963
623 1 20.4415 17.2966 17.2966 -8.94963
624 1 5.03983e-10 18.8691 15.7242 -8.94963
625 1 1.57242 20.4415 17.2966 -8.94963
626 1 3.14484 18.8691 15.7242 -8.94963
627 1 4.71726 20.4415 17.2966 -8.94963
628 1 6.28969 18.8691 15.7242 -8.94963
629 1 7.86211 20.4415 17.2966 -8.94963
630 1 9.43453 18.8691 15.7242 -8.94963
631 1 11.007 20.4415 17.2966 -8.94963
632 1 12.5794 18.8691 15.7242 -8.94963
633 1 14.1518 20.4415 17.2966 -8.94963
634 1 15.7242 18.8691 15.7242 -8.94963
635 1 17.2966 20.4415 17.2966 -8.94963
636 1 18.8691 18.8691 15.7242 -8.94963
637 1 20.4415 20.4415 17.2966 -8.94963
638 1 1.57242 11.007 20.4415 -8.94963
639 1 4.71726 11.007 20.4415 -8.94963
640 1 7.86211 11.007 20.4415 -8.94968
641 1 11.007 11.007 20.4415 -8.94964
642 1 14.1518 11.007 20.4415 -8.94963
643 1 17.2966 11.007 20.4415 -8.94963
644 1 20.4415 11.007 20.4415 -8.94963
645 1 22.0139 12.5794 18.8691 -8.94963
646 1 1.57242 14.1518 20.4415 -8.94963
647 1 3.14484 12.5794 18.8691 -8.94963
648 1 4.71726 14.1518 20.4415 -8.94963
649 1 6.28968 12.5794 18.8691 -8.94951
650 1 7.86211 14.1518 20.4415 -8.94963
651 1 9.43453 12.5794 18.8691 -8.94957
652 1 11.007 14.1518 20.4415 -8.94963
653 1 12.5794 12.5794 18.8691 -8.94963
654 1 14.1518 14.1518 20.4415 -8.94963
655 1 15.7242 12.5794 18.8691 -8.94963
656 1 17.2966 14.1518 20.4415 -8.94963
657 1 18.8691 12.5794 18.8691 -8.94963
658 1 20.4415 14.1518 20.4415 -8.94963
659 1 2.48969e-09 15.7242 18.8691 -8.94963
660 1 1.57242 17.2966 20.4415 -8.94963
661 1 3.14484 15.7242 18.8691 -8.94963
662 1 4.71726 17.2966 20.4415 -8.94963
663 1 6.28969 15.7242 18.8691 -8.94963
664 1 7.86211 17.2966 20.4415 -8.94963
665 1 9.43453 15.7242 18.8691 -8.94963
666 1 11.007 17.2966 20.4415 -8.94963
667 1 12.5794 15.7242 18.8691 -8.94963
668 1 14.1518 17.2966 20.4415 -8.94963
669 1 15.7242 15.7242 18.8691 -8.94963
670 1 17.2966 17.2966 20.4415 -8.94963
671 1 18.8691 15.7242 18.8691 -8.94963
672 1 20.4415 17.2966 20.4415 -8.94963
673 1 22.0139 18.8691 18.8691 -8.94963
674 1 1.57242 20.4415 20.4415 -8.94963
675 1 3.14484 18.8691 18.8691 -8.94963
351 1 3.36128e-10 12.5794 22.0139 -8.94963
389 1 15.7242 18.8691 22.0139 -8.94963
355 1 6.28969 12.5794 22.0139 -8.94963
367 1 3.14484 15.7242 22.0139 -8.94963
373 1 12.5794 15.7242 22.0139 -8.94963
377 1 18.8691 15.7242 22.0139 -8.94963
379 1 4.57763e-12 18.8691 22.0139 -8.94963
383 1 6.28969 18.8691 22.0139 -8.94963
361 1 15.7242 12.5794 22.0139 -8.94963
