ITEM: TIMESTEP
40
ITEM: NUMBER OF ATOMS
688
ITEM: BOX BOUNDS pp pp pp
0.0000000000000000e+00 2.2013900999999997e+01
0.0000000000000000e+00 2.2013900999999997e+01
0.0000000000000000e+00 2.2013900999999997e+01
ITEM: ATOMS id type x y z c_pot
192 1 7.86202 7.86266 11.0071 -9.04536
2 1 1.57242 1.57242 1.57242 -8.94963
3 1 3.14484 3.54139e-16 4.73706e-11 -8.94963
4 1 4.71726 1.57242 1.57242 -8.94963
175 1 18.8691 9.43453 9.43453 -8.94966
6 1 7.86211 1.57242 1.57242 -8.94963
7 1 9.43453 -1.92271e-16 7.64226e-16 -8.94963
8 1 11.007 1.57242 1.57242 -8.94963
191 1 4.7172 7.86204 11.0069 -8.94915
10 1 14.1518 1.57242 1.57242 -8.94963
174 1 15.7243 9.43453 9.43453 -8.95054
12 1 17.2966 1.57242 1.57242 -8.94963
13 1 18.8691 4.34683e-16 1.82781e-11 -8.94963
14 1 20.4415 1.57242 1.57242 -8.94963
173 1 12.5825 9.43239 9.43444 -8.98449
16 1 1.57242 4.71726 1.57242 -8.94963
17 1 3.14484 3.14484 1.83336e-09 -8.94963
18 1 4.71726 4.71726 1.57242 -8.94963
172 1 9.4246 9.41433 9.43464 -9.29578
20 1 7.86211 4.71726 1.57242 -8.94963
21 1 9.43453 3.14484 3.38149e-16 -8.94963
22 1 11.007 4.71726 1.57242 -8.94963
23 1 12.5794 3.14484 3.39268e-09 -8.94963
24 1 14.1518 4.71726 1.57242 -8.94963
171 1 6.29055 9.43488 9.43496 -9.03802
26 1 17.2966 4.71726 1.57242 -8.94963
27 1 18.8691 3.14484 1.36242e-10 -8.94963
28 1 20.4415 4.71726 1.57242 -8.94963
29 1 22.0139 6.28969 6.63493e-10 -8.94963
30 1 1.57242 7.86211 1.57242 -8.94963
170 1 3.14489 9.43455 9.43455 -8.94959
32 1 4.71726 7.86211 1.57242 -8.94963
33 1 6.28969 6.28969 8.45254e-09 -8.94963
34 1 7.86211 7.86211 1.57242 -8.94963
35 1 9.43453 6.28969 1.18033e-16 -8.94963
36 1 11.007 7.86211 1.57242 -8.94964
169 1 1.35056e-06 9.43453 9.43453 -8.94962
38 1 14.1518 7.86211 1.57242 -8.94963
39 1 15.7242 6.28969 1.55948e-08 -8.94963
40 1 17.2966 7.86211 1.57242 -8.94963
168 1 18.8691 6.28969 9.43453 -8.94963
42 1 20.4415 7.86211 1.57242 -8.94963
167 1 15.7242 6.28969 9.43453 -8.94969
166 1 12.5794 6.28963 9.43454 -8.9504
165 1 9.43456 6.28897 9.43455 -8.95546
46 1 9.43453 9.43453 2.20828e-16 -8.94963
47 1 12.5794 9.43453 4.8552e-08 -8.94963
190 1 1.57242 7.86211 11.0069 -8.94963
49 1 18.8691 9.43453 9.20719e-11 -8.94963
50 1 22.0139 3.15846e-16 3.14484 -8.94963
51 1 1.57242 1.57242 4.71726 -8.94963
52 1 3.14484 5.99577e-16 3.14484 -8.94963
53 1 4.71726 1.57242 4.71726 -8.94963
54 1 6.28969 3.48085e-16 3.14484 -8.94963
55 1 7.86211 1.57242 4.71726 -8.94963
56 1 9.43453 8.0017e-17 3.14484 -8.94963
57 1 11.007 1.57242 4.71726 -8.94963
58 1 12.5794 2.05405e-16 3.14484 -8.94963
59 1 14.1518 1.57242 4.71726 -8.94963
60 1 15.7242 -2.67638e-16 3.14484 -8.94963
61 1 17.2966 1.57242 4.71726 -8.94963
62 1 18.8691 2.13517e-16 3.14484 -8.94963
63 1 20.4415 1.57242 4.71726 -8.94963
64 1 1.30584e-09 3.14484 3.14484 -8.94963
65 1 1.57242 4.71726 4.71726 -8.94963
66 1 3.14484 3.14484 3.14484 -8.94963
67 1 4.71726 4.71726 4.71726 -8.94964
68 1 6.28969 3.14484 3.14484 -8.94963
69 1 7.86211 4.71726 4.71726 -8.94964
70 1 9.43453 3.14484 3.14484 -8.94963
71 1 11.007 4.71726 4.71726 -8.94963
72 1 12.5794 3.14484 3.14484 -8.94963
73 1 14.1518 4.71727 4.71726 -8.94963
74 1 15.7242 3.14484 3.14484 -8.94963
75 1 17.2966 4.71726 4.71726 -8.94963
76 1 18.8691 3.14484 3.14484 -8.94963
77 1 20.4415 4.71726 4.71726 -8.94963
78 1 22.0139 6.28969 3.14484 -8.94963
79 1 1.57242 7.86211 4.71726 -8.94963
80 1 3.14484 6.28969 3.14484 -8.94963
81 1 4.71726 7.8621 4.71726 -8.94958
82 1 6.28969 6.28969 3.14484 -8.94963
83 1 7.86211 7.86211 4.71726 -8.94968
84 1 9.43453 6.28969 3.14484 -8.94963
85 1 11.0069 7.86212 4.71728 -8.95001
86 1 12.5794 6.28969 3.14484 -8.94964
87 1 14.1518 7.86212 4.71727 -8.94971
88 1 15.7242 6.28969 3.14484 -8.94964
89 1 17.2966 7.86211 4.71727 -8.94964
90 1 18.8691 6.28969 3.14484 -8.94963
91 1 20.4415 7.86211 4.71726 -8.94963
92 1 9.97384e-09 9.43453 3.14484 -8.94963
93 1 3.14484 9.43453 3.14484 -8.94964
94 1 6.28968 9.43453 3.14484 -8.94964
95 1 9.43452 9.43452 3.14484 -8.94946
96 1 12.5794 9.43452 3.14485 -8.94939
97 1 15.7242 9.43453 3.14484 -8.94964
98 1 18.8691 9.43453 3.14484 -8.94963
99 1 -2.37457e-11 5.45762e-16 6.28969 -8.94963
100 1 1.57242 1.57242 7.86211 -8.94963
101 1 3.14484 6.796e-16 6.28969 -8.94963
102 1 4.71726 1.57242 7.86211 -8.94963
103 1 6.28969 6.9884e-16 6.28969 -8.94963
104 1 7.86211 1.57242 7.86211 -8.94963
105 1 9.43453 5.53504e-17 6.28969 -8.94963
106 1 11.007 1.57242 7.86211 -8.94963
107 1 12.5794 2.46935e-17 6.28969 -8.94963
108 1 14.1518 1.57242 7.86211 -8.94963
109 1 15.7242 5.39297e-16 6.28969 -8.94963
110 1 17.2966 1.57242 7.86211 -8.94963
111 1 18.8691 5.27164e-16 6.28969 -8.94963
112 1 20.4415 1.57242 7.86211 -8.94963
113 1 22.0139 3.14484 6.28969 -8.94963
114 1 1.57242 4.71726 7.86211 -8.94963
115 1 3.14484 3.14484 6.28969 -8.94963
116 1 4.71726 4.71726 7.86211 -8.94964
117 1 6.28969 3.14484 6.28969 -8.94963
118 1 7.8621 4.71727 7.8621 -8.94939
119 1 9.43453 3.14484 6.28969 -8.94964
120 1 11.007 4.71726 7.8621 -8.94947
121 1 12.5794 3.14484 6.28969 -8.94963
122 1 14.1518 4.71726 7.86211 -8.94965
123 1 15.7242 3.14484 6.28969 -8.94963
124 1 17.2966 4.71726 7.86211 -8.94964
125 1 18.8691 3.14484 6.28969 -8.94963
126 1 20.4415 4.71726 7.86211 -8.94963
127 1 8.48478e-08 6.28969 6.28969 -8.94963
128 1 1.57242 7.86211 7.86211 -8.94964
129 1 3.14484 6.28969 6.28969 -8.94965
130 1 4.7173 7.86214 7.86213 -8.9499
131 1 6.2897 6.28969 6.2897 -8.94972
132 1 7.86225 7.86257 7.86196 -8.99041
133 1 9.43453 6.2897 6.2897 -8.95002
134 1 11.0072 7.86222 7.86214 -9.00499
135 1 12.5794 6.28969 6.28969 -8.94967
136 1 14.1519 7.86202 7.86203 -8.94892
137 1 15.7242 6.28968 6.28968 -8.94959
138 1 17.2966 7.86211 7.86211 -8.94964
139 1 18.8691 6.28969 6.28969 -8.94963
140 1 20.4415 7.86211 7.86211 -8.94963
141 1 22.0139 9.43453 6.28969 -8.94963
142 1 3.14484 9.43453 6.28968 -8.94964
143 1 6.28959 9.43445 6.2896 -8.94871
144 1 9.43431 9.43455 6.28979 -9.00479
145 1 12.5792 9.43436 6.29013 -8.99004
146 1 15.7242 9.43455 6.28971 -8.94982
147 1 18.8691 9.43453 6.28969 -8.94963
148 1 7.79214e-10 2.02952e-16 9.43453 -8.94963
149 1 3.14484 3.02528e-16 9.43453 -8.94963
150 1 6.28969 8.1044e-17 9.43453 -8.94963
151 1 9.43453 2.6415e-16 9.43453 -8.94964
152 1 12.5794 2.19583e-16 9.43453 -8.94963
153 1 15.7242 4.97256e-16 9.43453 -8.94963
154 1 18.8691 4.64611e-16 9.43453 -8.94963
155 1 8.1969e-09 3.14484 9.43453 -8.94963
156 1 3.14484 3.14484 9.43453 -8.94963
157 1 6.28969 3.14484 9.43453 -8.94962
158 1 9.43453 3.14483 9.43453 -8.94984
159 1 12.5794 3.14484 9.43453 -8.94965
160 1 15.7242 3.14484 9.43453 -8.94963
161 1 18.8691 3.14484 9.43453 -8.94963
162 1 22.0139 6.28969 9.43453 -8.94963
163 1 3.14484 6.28968 9.43453 -8.94957
164 1 6.28973 6.28974 9.43453 -8.95023
177 1 4.71726 1.57242 11.007 -8.94963
178 1 7.86211 1.57242 11.007 -8.94963
181 1 17.2966 1.57242 11.007 -8.94963
184 1 4.71726 4.71726 11.0069 -8.94965
185 1 7.86209 4.71726 11.0069 -8.94922
188 1 17.2966 4.71726 11.007 -8.94964
5 1 6.28969 -3.05651e-16 9.05799e-11 -8.94963
44 1 3.14484 9.43453 -1.73785e-08 -8.94963
176 1 1.57242 1.57242 11.007 -8.94963
343 1 18.8691 9.43453 18.8691 -8.94963
342 1 15.7242 9.43453 18.8691 -8.94964
179 1 11.007 1.57242 11.007 -8.94963
180 1 14.1518 1.57242 11.007 -8.94963
341 1 12.5794 9.43453 18.8691 -8.94964
182 1 20.4415 1.57242 11.007 -8.94963
183 1 1.57242 4.71726 11.007 -8.94964
340 1 9.43454 9.43452 18.8691 -8.94946
339 1 6.28968 9.43452 18.8691 -8.94939
186 1 11.007 4.71726 11.007 -8.94922
187 1 14.1518 4.71726 11.007 -8.94965
338 1 3.14484 9.43453 18.8691 -8.94964
189 1 20.4415 4.71726 11.007 -8.94963
337 1 22.0139 9.43453 18.8691 -8.94963
336 1 20.4415 7.86211 20.4415 -8.94963
335 1 18.8691 6.28969 18.8691 -8.94963
193 1 11.007 7.86266 11.0068 -9.04536
194 1 14.1519 7.86204 11.007 -8.94915
195 1 17.2966 7.86211 11.007 -8.94963
196 1 20.4415 7.86211 11.007 -8.94963
197 1 22.0139 4.36305e-16 12.5794 -8.94963
198 1 1.57242 1.57242 14.1518 -8.94963
199 1 3.14484 5.17552e-16 12.5794 -8.94963
200 1 4.71726 1.57242 14.1518 -8.94963
201 1 6.28969 2.25244e-16 12.5794 -8.94963
202 1 7.86211 1.57242 14.1518 -8.94963
203 1 9.43453 2.78206e-16 12.5794 -8.94964
204 1 11.007 1.57242 14.1518 -8.94963
205 1 12.5794 1.85666e-16 12.5794 -8.94963
206 1 14.1518 1.57242 14.1518 -8.94963
207 1 15.7242 3.04095e-16 12.5794 -8.94963
208 1 17.2966 1.57242 14.1518 -8.94963
209 1 18.8691 1.85266e-16 12.5794 -8.94963
210 1 20.4415 1.57242 14.1518 -8.94963
211 1 22.0139 3.14484 12.5794 -8.94963
212 1 1.57242 4.71726 14.1518 -8.94964
213 1 3.14484 3.14484 12.5794 -8.94963
214 1 4.71726 4.71726 14.1518 -8.94965
215 1 6.28969 3.14484 12.5794 -8.94965
216 1 7.8621 4.71726 14.1518 -8.94947
217 1 9.43453 3.14483 12.5794 -8.94984
218 1 11.007 4.71727 14.1518 -8.94939
219 1 12.5794 3.14484 12.5794 -8.94962
220 1 14.1518 4.71726 14.1518 -8.94964
221 1 15.7242 3.14484 12.5794 -8.94963
222 1 17.2966 4.71726 14.1518 -8.94963
223 1 18.8691 3.14484 12.5794 -8.94963
224 1 20.4415 4.71726 14.1518 -8.94963
225 1 7.12653e-08 6.28969 12.5794 -8.94963
226 1 1.57242 7.86211 14.1518 -8.94964
227 1 3.14485 6.28969 12.5794 -8.94969
228 1 4.71717 7.86202 14.1519 -8.94892
229 1 6.28968 6.28963 12.5794 -8.9504
230 1 7.86188 7.86222 14.1518 -9.00499
231 1 9.43449 6.28897 12.5794 -8.95546
232 1 11.0068 7.86257 14.1519 -8.99041
233 1 12.5793 6.28974 12.5794 -8.95023
234 1 14.1518 7.86214 14.1518 -8.9499
235 1 15.7242 6.28968 12.5794 -8.94957
236 1 17.2966 7.86211 14.1518 -8.94964
237 1 18.8691 6.28969 12.5794 -8.94963
238 1 20.4415 7.86211 14.1518 -8.94963
239 1 22.0139 9.43453 12.5794 -8.94966
240 1 3.14476 9.43453 12.5794 -8.95054
241 1 6.28655 9.43239 12.5795 -8.98449
242 1 9.44446 9.41433 12.5793 -9.29578
243 1 12.5785 9.43488 12.5789 -9.03802
244 1 15.7242 9.43455 12.5793 -8.94959
245 1 18.8691 9.43453 12.5794 -8.94962
246 1 2.99261e-10 5.49812e-16 15.7242 -8.94963
247 1 1.57242 1.57242 17.2966 -8.94963
248 1 3.14484 5.67669e-16 15.7242 -8.94963
249 1 4.71726 1.57242 17.2966 -8.94963
250 1 6.28969 5.46394e-17 15.7242 -8.94963
251 1 7.86211 1.57242 17.2966 -8.94963
252 1 9.43453 5.83453e-17 15.7242 -8.94963
253 1 11.007 1.57242 17.2966 -8.94963
254 1 12.5794 7.22968e-16 15.7242 -8.94963
255 1 14.1518 1.57242 17.2966 -8.94963
256 1 15.7242 6.00538e-16 15.7242 -8.94963
257 1 17.2966 1.57242 17.2966 -8.94963
258 1 18.8691 7.30784e-16 15.7242 -8.94963
259 1 20.4415 1.57242 17.2966 -8.94963
260 1 8.41934e-09 3.14484 15.7242 -8.94963
261 1 1.57242 4.71726 17.2966 -8.94963
262 1 3.14484 3.14484 15.7242 -8.94963
263 1 4.71726 4.71727 17.2966 -8.94963
264 1 6.28969 3.14484 15.7242 -8.94963
265 1 7.86211 4.71726 17.2966 -8.94963
266 1 9.43453 3.14484 15.7242 -8.94964
267 1 11.007 4.71726 17.2966 -8.94964
268 1 12.5794 3.14484 15.7242 -8.94963
269 1 14.1518 4.71726 17.2966 -8.94964
270 1 15.7242 3.14484 15.7242 -8.94963
271 1 17.2966 4.71726 17.2966 -8.94963
272 1 18.8691 3.14484 15.7242 -8.94963
273 1 20.4415 4.71726 17.2966 -8.94963
274 1 22.0139 6.28969 15.7242 -8.94963
275 1 1.57242 7.86211 17.2966 -8.94964
276 1 3.14484 6.28968 15.7242 -8.94959
277 1 4.71728 7.86212 17.2966 -8.94971
278 1 6.28969 6.28969 15.7242 -8.94967
279 1 7.86211 7.86212 17.2966 -8.95001
280 1 9.43453 6.2897 15.7242 -8.95002
281 1 11.0069 7.86211 17.2966 -8.94968
282 1 12.5794 6.28969 15.7242 -8.94972
283 1 14.1518 7.8621 17.2966 -8.94958
284 1 15.7242 6.28969 15.7242 -8.94965
285 1 17.2966 7.86211 17.2966 -8.94963
286 1 18.8691 6.28969 15.7242 -8.94963
287 1 20.4415 7.86211 17.2966 -8.94963
288 1 9.4604e-07 9.43453 15.7242 -8.94963
289 1 3.14487 9.43455 15.7242 -8.94982
290 1 6.28983 9.43436 15.7238 -8.99004
291 1 9.43475 9.43455 15.7241 -9.00479
292 1 12.5795 9.43445 15.7243 -8.94871
293 1 15.7242 9.43453 15.7242 -8.94964
294 1 18.8691 9.43453 15.7242 -8.94963
295 1 22.0139 2.24362e-16 18.8691 -8.94963
296 1 1.57242 1.57242 20.4415 -8.94963
297 1 3.14484 -2.51648e-16 18.8691 -8.94963
298 1 4.71726 1.57242 20.4415 -8.94963
299 1 6.28969 2.05577e-16 18.8691 -8.94963
300 1 7.86211 1.57242 20.4415 -8.94963
301 1 9.43453 9.32759e-17 18.8691 -8.94963
302 1 11.007 1.57242 20.4415 -8.94963
303 1 12.5794 2.86578e-16 18.8691 -8.94963
304 1 14.1518 1.57242 20.4415 -8.94963
305 1 15.7242 6.38845e-16 18.8691 -8.94963
306 1 17.2966 1.57242 20.4415 -8.94963
307 1 18.8691 3.6383e-16 18.8691 -8.94963
308 1 20.4415 1.57242 20.4415 -8.94963
309 1 22.0139 3.14484 18.8691 -8.94963
310 1 1.57242 4.71726 20.4415 -8.94963
311 1 3.14484 3.14484 18.8691 -8.94963
312 1 4.71726 4.71726 20.4415 -8.94963
313 1 6.28969 3.14484 18.8691 -8.94963
314 1 7.86211 4.71726 20.4415 -8.94963
315 1 9.43453 3.14484 18.8691 -8.94963
316 1 11.007 4.71726 20.4415 -8.94963
317 1 12.5794 3.14484 18.8691 -8.94963
318 1 14.1518 4.71726 20.4415 -8.94963
319 1 15.7242 3.14484 18.8691 -8.94963
320 1 17.2966 4.71726 20.4415 -8.94963
321 1 18.8691 3.14484 18.8691 -8.94963
322 1 20.4415 4.71726 20.4415 -8.94963
323 1 3.98049e-08 6.28969 18.8691 -8.94963
324 1 1.57242 7.86211 20.4415 -8.94963
325 1 3.14484 6.28969 18.8691 -8.94964
326 1 4.71726 7.86211 20.4415 -8.94963
327 1 6.28969 6.28969 18.8691 -8.94964
328 1 7.86211 7.86211 20.4415 -8.94964
329 1 9.43453 6.28969 18.8691 -8.94963
330 1 11.007 7.86211 20.4415 -8.94963
331 1 12.5794 6.28969 18.8691 -8.94963
332 1 14.1518 7.86211 20.4415 -8.94963
333 1 15.7242 6.28969 18.8691 -8.94963
334 1 17.2966 7.86211 20.4415 -8.94963
45 1 6.28969 9.43453 22.0139 -8.94963
11 1 15.7242 4.05668e-16 22.0139 -8.94963
15 1 1.16286e-10 3.14484 22.0139 -8.94963
19 1 6.28969 3.14484 22.0139 -8.94963
25 1 15.7242 3.14484 22.0139 -8.94963
31 1 3.14484 6.28969 22.0139 -8.94963
37 1 12.5794 6.28969 22.0139 -8.94963
41 1 18.8691 6.28969 22.0139 -8.94963
43 1 3.18637e-10 9.43453 22.0139 -8.94963
1 1 2.31678e-11 3.84634e-16 22.0139 -8.94963
9 1 12.5794 -3.82172e-16 22.0139 -8.94963
48 1 15.7242 9.43453 22.0139 -8.94963
344 1 1.57242 11.007 1.57242 -8.94963
345 1 4.71726 11.007 1.57242 -8.94963
346 1 7.86211 11.007 1.57242 -8.94967
347 1 11.007 11.007 1.57241 -8.94984
348 1 14.1518 11.007 1.57242 -8.94963
349 1 17.2966 11.007 1.57242 -8.94963
350 1 20.4415 11.007 1.57242 -8.94963
688 2 10.2208 11.007 9.43445 1.03838
352 1 1.57242 14.1518 1.57242 -8.94963
511 1 18.8691 18.8691 9.43453 -8.94963
354 1 4.71726 14.1518 1.57242 -8.94963
510 1 15.7242 18.8691 9.43453 -8.94963
356 1 7.86211 14.1518 1.57242 -8.94963
357 1 9.43453 12.5794 2.10125e-16 -8.94963
358 1 11.007 14.1518 1.57242 -8.94964
359 1 12.5794 12.5794 4.8552e-08 -8.94963
360 1 14.1518 14.1518 1.57242 -8.94963
538 1 17.2966 20.4415 11.007 -8.94963
362 1 17.2966 14.1518 1.57242 -8.94963
363 1 18.8691 12.5794 9.20717e-11 -8.94963
364 1 20.4415 14.1518 1.57242 -8.94963
365 1 22.0139 15.7242 6.63493e-10 -8.94963
366 1 1.57242 17.2966 1.57242 -8.94963
509 1 12.5794 18.8691 9.43453 -8.94965
368 1 4.71726 17.2966 1.57242 -8.94963
369 1 6.28969 15.7242 8.45254e-09 -8.94963
370 1 7.86211 17.2966 1.57242 -8.94963
371 1 9.43453 15.7242 1.53578e-16 -8.94963
372 1 11.007 17.2966 1.57242 -8.94963
508 1 9.43453 18.8691 9.43453 -8.94984
374 1 14.1518 17.2966 1.57242 -8.94963
375 1 15.7242 15.7242 1.55948e-08 -8.94963
376 1 17.2966 17.2966 1.57242 -8.94963
507 1 6.28969 18.8691 9.43453 -8.94962
378 1 20.4415 17.2966 1.57242 -8.94963
506 1 3.14484 18.8691 9.43453 -8.94963
380 1 1.57242 20.4415 1.57242 -8.94963
381 1 3.14484 18.8691 1.83336e-09 -8.94963
382 1 4.71726 20.4415 1.57242 -8.94963
505 1 8.1969e-09 18.8691 9.43453 -8.94963
384 1 7.86211 20.4415 1.57242 -8.94963
385 1 9.43453 18.8691 3.49136e-16 -8.94963
386 1 11.007 20.4415 1.57242 -8.94963
387 1 12.5794 18.8691 3.39268e-09 -8.94963
388 1 14.1518 20.4415 1.57242 -8.94963
504 1 18.8691 15.7242 9.43453 -8.94963
390 1 17.2966 20.4415 1.57242 -8.94963
391 1 18.8691 18.8691 1.36241e-10 -8.94963
392 1 20.4415 20.4415 1.57242 -8.94963
393 1 1.57242 11.007 4.71726 -8.94963
394 1 4.71727 11.007 4.71727 -8.94967
395 1 7.86209 11.007 4.71718 -8.95052
396 1 11.0069 11.007 4.71653 -8.9551
397 1 14.1517 11.007 4.71732 -8.95019
398 1 17.2966 11.007 4.71726 -8.94961
399 1 20.4415 11.007 4.71726 -8.94963
400 1 9.97384e-09 12.5794 3.14484 -8.94963
401 1 1.57242 14.1518 4.71726 -8.94963
402 1 3.14484 12.5794 3.14484 -8.94964
403 1 4.71726 14.1518 4.71726 -8.94958
404 1 6.28968 12.5794 3.14484 -8.94964
405 1 7.86211 14.1518 4.71726 -8.94968
406 1 9.43452 12.5794 3.14484 -8.94946
407 1 11.0069 14.1518 4.71728 -8.95001
408 1 12.5794 12.5794 3.14485 -8.94939
409 1 14.1518 14.1518 4.71727 -8.94971
410 1 15.7242 12.5794 3.14484 -8.94964
411 1 17.2966 14.1518 4.71727 -8.94964
412 1 18.8691 12.5794 3.14484 -8.94963
413 1 20.4415 14.1518 4.71726 -8.94963
414 1 22.0139 15.7242 3.14484 -8.94963
415 1 1.57242 17.2966 4.71726 -8.94963
416 1 3.14484 15.7242 3.14484 -8.94963
417 1 4.71726 17.2966 4.71726 -8.94964
418 1 6.28969 15.7242 3.14484 -8.94963
419 1 7.86211 17.2966 4.71726 -8.94964
420 1 9.43453 15.7242 3.14484 -8.94963
421 1 11.007 17.2966 4.71726 -8.94963
422 1 12.5794 15.7242 3.14484 -8.94964
423 1 14.1518 17.2966 4.71726 -8.94963
424 1 15.7242 15.7242 3.14484 -8.94964
425 1 17.2966 17.2966 4.71726 -8.94963
426 1 18.8691 15.7242 3.14484 -8.94963
427 1 20.4415 17.2966 4.71726 -8.94963
428 1 1.30584e-09 18.8691 3.14484 -8.94963
429 1 1.57242 20.4415 4.71726 -8.94963
430 1 3.14484 18.8691 3.14484 -8.94963
431 1 4.71726 20.4415 4.71726 -8.94963
432 1 6.28969 18.8691 3.14484 -8.94963
433 1 7.86211 20.4415 4.71726 -8.94963
434 1 9.43453 18.8691 3.14484 -8.94963
435 1 11.007 20.4415 4.71726 -8.94963
436 1 12.5794 18.8691 3.14484 -8.94963
437 1 14.1518 20.4415 4.71726 -8.94963
438 1 15.7242 18.8691 3.14484 -8.94963
439 1 17.2966 20.4415 4.71726 -8.94963
440 1 18.8691 18.8691 3.14484 -8.94963
441 1 20.4415 20.4415 4.71726 -8.94963
442 1 1.57242 11.007 7.86211 -8.94964
443 1 4.71723 11.007 7.86217 -8.9511
444 1 7.85909 11.007 7.85931 -8.99068
445 1 11.0171 11.007 7.84182 -9.24141
446 1 14.1511 11.007 7.86264 -8.99773
447 1 17.2966 11.007 7.86211 -8.9494
448 1 20.4415 11.007 7.86211 -8.94963
449 1 22.0139 12.5794 6.28969 -8.94963
450 1 1.57242 14.1518 7.86211 -8.94964
451 1 3.14484 12.5794 6.28968 -8.94964
452 1 4.7173 14.1518 7.86213 -8.9499
453 1 6.28959 12.5795 6.2896 -8.94871
454 1 7.86225 14.1513 7.86196 -8.99041
455 1 9.43431 12.5794 6.28979 -9.00479
456 1 11.0072 14.1517 7.86214 -9.00499
457 1 12.5792 12.5795 6.29013 -8.99004
458 1 14.1519 14.1519 7.86203 -8.94892
459 1 15.7242 12.5794 6.28971 -8.94982
460 1 17.2966 14.1518 7.86211 -8.94964
461 1 18.8691 12.5794 6.28969 -8.94963
462 1 20.4415 14.1518 7.86211 -8.94963
463 1 8.48478e-08 15.7242 6.28969 -8.94963
464 1 1.57242 17.2966 7.86211 -8.94963
465 1 3.14484 15.7242 6.28969 -8.94965
466 1 4.71726 17.2966 7.86211 -8.94964
467 1 6.2897 15.7242 6.2897 -8.94972
468 1 7.8621 17.2966 7.8621 -8.94939
469 1 9.43453 15.7242 6.2897 -8.95002
470 1 11.007 17.2966 7.8621 -8.94947
471 1 12.5794 15.7242 6.28969 -8.94967
472 1 14.1518 17.2966 7.86211 -8.94965
473 1 15.7242 15.7242 6.28968 -8.94959
474 1 17.2966 17.2966 7.86211 -8.94964
475 1 18.8691 15.7242 6.28969 -8.94963
476 1 20.4415 17.2966 7.86211 -8.94963
477 1 22.0139 18.8691 6.28969 -8.94963
478 1 1.57242 20.4415 7.86211 -8.94963
479 1 3.14484 18.8691 6.28969 -8.94963
480 1 4.71726 20.4415 7.86211 -8.94963
481 1 6.28969 18.8691 6.28969 -8.94963
482 1 7.86211 20.4415 7.86211 -8.94963
483 1 9.43453 18.8691 6.28969 -8.94964
484 1 11.007 20.4415 7.86211 -8.94963
485 1 12.5794 18.8691 6.28969 -8.94963
486 1 14.1518 20.4415 7.86211 -8.94963
487 1 15.7242 18.8691 6.28969 -8.94963
488 1 17.2966 20.4415 7.86211 -8.94963
489 1 18.8691 18.8691 6.28969 -8.94963
490 1 20.4415 20.4415 7.86211 -8.94963
491 1 1.35056e-06 12.5794 9.43453 -8.94962
492 1 3.14489 12.5794 9.43455 -8.94959
493 1 6.29055 12.579 9.43496 -9.03802
494 1 9.4246 12.5996 9.43464 -9.29578
495 1 12.5825 12.5815 9.43444 -8.98449
496 1 15.7243 12.5794 9.43453 -8.95054
497 1 18.8691 12.5794 9.43453 -8.94966
498 1 22.0139 15.7242 9.43453 -8.94963
499 1 3.14484 15.7242 9.43453 -8.94957
500 1 6.28973 15.7242 9.43453 -8.95023
501 1 9.43456 15.7249 9.43455 -8.95546
502 1 12.5794 15.7243 9.43454 -8.9504
503 1 15.7242 15.7242 9.43453 -8.94969
512 1 1.57244 11.007 11.0069 -8.94944
514 1 7.84881 11.007 10.9888 -9.27651
516 1 14.1512 11.007 11.0064 -8.99856
519 1 1.57242 14.1518 11.0069 -8.94963
520 1 4.7172 14.1519 11.0069 -8.94915
521 1 7.86202 14.1512 11.0071 -9.04536
527 1 4.71726 17.2966 11.0069 -8.94965
528 1 7.86209 17.2966 11.0069 -8.94922
531 1 17.2966 17.2966 11.007 -8.94964
534 1 4.71726 20.4415 11.007 -8.94963
535 1 7.86211 20.4415 11.007 -8.94963
353 1 3.14484 12.5794 -1.73785e-08 -8.94963
687 2 8.64826 11.007 12.5794 1.03838
513 1 4.7179 11.007 11.0075 -8.99856
686 1 20.4415 20.4415 20.4415 -8.94963
515 1 11.0202 11.007 11.0251 -9.27651
685 1 18.8691 18.8691 18.8691 -8.94963
517 1 17.2966 11.007 11.007 -8.94944
518 1 20.4415 11.007 11.007 -8.94962
684 1 17.2966 20.4415 20.4415 -8.94963
683 1 15.7242 18.8691 18.8691 -8.94963
682 1 14.1518 20.4415 20.4415 -8.94963
522 1 11.007 14.1512 11.0068 -9.04536
523 1 14.1519 14.1519 11.007 -8.94915
524 1 17.2966 14.1518 11.007 -8.94963
525 1 20.4415 14.1518 11.007 -8.94963
526 1 1.57242 17.2966 11.007 -8.94964
681 1 12.5794 18.8691 18.8691 -8.94963
680 1 11.007 20.4415 20.4415 -8.94963
529 1 11.007 17.2966 11.007 -8.94922
530 1 14.1518 17.2966 11.007 -8.94965
679 1 9.43453 18.8691 18.8691 -8.94963
532 1 20.4415 17.2966 11.007 -8.94963
533 1 1.57242 20.4415 11.007 -8.94963
678 1 7.86211 20.4415 20.4415 -8.94963
677 1 6.28969 18.8691 18.8691 -8.94963
536 1 11.007 20.4415 11.007 -8.94963
537 1 14.1518 20.4415 11.007 -8.94963
676 1 4.71726 20.4415 20.4415 -8.94963
539 1 20.4415 20.4415 11.007 -8.94963
540 1 1.57244 11.007 14.1518 -8.9494
541 1 4.71799 11.007 14.1513 -8.99773
542 1 7.85194 11.007 14.1721 -9.24141
543 1 11.01 11.007 14.1546 -8.99068
544 1 14.1518 11.007 14.1517 -8.9511
545 1 17.2966 11.007 14.1518 -8.94964
546 1 20.4415 11.007 14.1518 -8.94963
547 1 22.0139 12.5794 12.5794 -8.94966
548 1 1.57242 14.1518 14.1518 -8.94964
549 1 3.14476 12.5794 12.5794 -8.95054
550 1 4.71717 14.1519 14.1519 -8.94892
551 1 6.28655 12.5815 12.5795 -8.98449
552 1 7.86188 14.1517 14.1518 -9.00499
553 1 9.44446 12.5996 12.5793 -9.29578
554 1 11.0068 14.1513 14.1519 -8.99041
555 1 12.5785 12.579 12.5789 -9.03802
556 1 14.1518 14.1518 14.1518 -8.9499
557 1 15.7242 12.5794 12.5793 -8.94959
558 1 17.2966 14.1518 14.1518 -8.94964
559 1 18.8691 12.5794 12.5794 -8.94962
560 1 20.4415 14.1518 14.1518 -8.94963
561 1 7.12653e-08 15.7242 12.5794 -8.94963
562 1 1.57242 17.2966 14.1518 -8.94964
563 1 3.14485 15.7242 12.5794 -8.94969
564 1 4.71726 17.2966 14.1518 -8.94965
565 1 6.28968 15.7243 12.5794 -8.9504
566 1 7.8621 17.2966 14.1518 -8.94947
567 1 9.43449 15.7249 12.5794 -8.95546
568 1 11.007 17.2966 14.1518 -8.94939
569 1 12.5793 15.7242 12.5794 -8.95023
570 1 14.1518 17.2966 14.1518 -8.94964
571 1 15.7242 15.7242 12.5794 -8.94957
572 1 17.2966 17.2966 14.1518 -8.94963
573 1 18.8691 15.7242 12.5794 -8.94963
574 1 20.4415 17.2966 14.1518 -8.94963
575 1 22.0139 18.8691 12.5794 -8.94963
576 1 1.57242 20.4415 14.1518 -8.94963
577 1 3.14484 18.8691 12.5794 -8.94963
578 1 4.71726 20.4415 14.1518 -8.94963
579 1 6.28969 18.8691 12.5794 -8.94965
580 1 7.86211 20.4415 14.1518 -8.94963
581 1 9.43453 18.8691 12.5794 -8.94984
582 1 11.007 20.4415 14.1518 -8.94963
583 1 12.5794 18.8691 12.5794 -8.94962
584 1 14.1518 20.4415 14.1518 -8.94963
585 1 15.7242 18.8691 12.5794 -8.94963
586 1 17.2966 20.4415 14.1518 -8.94963
587 1 18.8691 18.8691 12.5794 -8.94963
588 1 20.4415 20.4415 14.1518 -8.94963
589 1 1.57242 11.007 17.2966 -8.94961
590 1 4.71731 11.007 17.2966 -8.95019
591 1 7.86215 11.007 17.2974 -8.9551
592 1 11.007 11.007 17.2967 -8.95052
593 1 14.1518 11.007 17.2966 -8.94967
594 1 17.2966 11.007 17.2966 -8.94963
595 1 20.4415 11.007 17.2966 -8.94963
596 1 9.4604e-07 12.5794 15.7242 -8.94963
597 1 1.57242 14.1518 17.2966 -8.94964
598 1 3.14487 12.5794 15.7242 -8.94982
599 1 4.71728 14.1518 17.2966 -8.94971
600 1 6.28983 12.5795 15.7238 -8.99004
601 1 7.86211 14.1518 17.2966 -8.95001
602 1 9.43475 12.5794 15.7241 -9.00479
603 1 11.0069 14.1518 17.2966 -8.94968
604 1 12.5795 12.5795 15.7243 -8.94871
605 1 14.1518 14.1518 17.2966 -8.94958
606 1 15.7242 12.5794 15.7242 -8.94964
607 1 17.2966 14.1518 17.2966 -8.94963
608 1 18.8691 12.5794 15.7242 -8.94963
609 1 20.4415 14.1518 17.2966 -8.94963
610 1 22.0139 15.7242 15.7242 -8.94963
611 1 1.57242 17.2966 17.2966 -8.94963
612 1 3.14484 15.7242 15.7242 -8.94959
613 1 4.71726 17.2966 17.2966 -8.94963
614 1 6.28969 15.7242 15.7242 -8.94967
615 1 7.86211 17.2966 17.2966 -8.94963
616 1 9.43453 15.7242 15.7242 -8.95002
617 1 11.007 17.2966 17.2966 -8.94964
618 1 12.5794 15.7242 15.7242 -8.94972
619 1 14.1518 17.2966 17.2966 -8.94964
620 1 15.7242 15.7242 15.7242 -8.94965
621 1 17.2966 17.2966 17.2966 -8.94963
622 1 18.8691 15.7242 15.7242 -8.94963
623 1 20.4415 17.2966 17.2966 -8.94963
624 1 8.41934e-09 18.8691 15.7242 -8.94963
625 1 1.57242 20.4415 17.2966 -8.94963
626 1 3.14484 18.8691 15.7242 -8.94963
627 1 4.71726 20.4415 17.2966 -8.94963
628 1 6.28969 18.8691 15.7242 -8.94963
629 1 7.86211 20.4415 17.2966 -8.94963
630 1 9.43453 18.8691 15.7242 -8.94964
631 1 11.007 20.4415 17.2966 -8.94963
632 1 12.5794 18.8691 15.7242 -8.94963
633 1 14.1518 20.4415 17.2966 -8.94963
634 1 15.7242 18.8691 15.7242 -8.94963
635 1 17.2966 20.4415 17.2966 -8.94963
636 1 18.8691 18.8691 15.7242 -8.94963
637 1 20.4415 20.4415 17.2966 -8.94963
638 1 1.57242 11.007 20.4415 -8.94963
639 1 4.71727 11.007 20.4415 -8.94963
640 1 7.86211 11.007 20.4415 -8.94984
641 1 11.0069 11.007 20.4415 -8.94967
642 1 14.1518 11.007 20.4415 -8.94963
643 1 17.2966 11.007 20.4415 -8.94963
644 1 20.4415 11.007 20.4415 -8.94963
645 1 22.0139 12.5794 18.8691 -8.94963
646 1 1.57242 14.1518 20.4415 -8.94963
647 1 3.14484 12.5794 18.8691 -8.94964
648 1 4.71726 14.1518 20.4415 -8.94963
649 1 6.28968 12.5794 18.8691 -8.94939
650 1 7.86211 14.1518 20.4415 -8.94964
651 1 9.43454 12.5794 18.8691 -8.94946
652 1 11.007 14.1518 20.4415 -8.94963
653 1 12.5794 12.5794 18.8691 -8.94964
654 1 14.1518 14.1518 20.4415 -8.94963
655 1 15.7242 12.5794 18.8691 -8.94964
656 1 17.2966 14.1518 20.4415 -8.94963
657 1 18.8691 12.5794 18.8691 -8.94963
658 1 20.4415 14.1518 20.4415 -8.94963
659 1 3.98049e-08 15.7242 18.8691 -8.94963
660 1 1.57242 17.2966 20.4415 -8.94963
661 1 3.14484 15.7242 18.8691 -8.94964
662 1 4.71726 17.2966 20.4415 -8.94963
663 1 6.28969 15.7242 18.8691 -8.94964
664 1 7.86211 17.2966 20.4415 -8.94963
665 1 9.43453 15.7242 18.8691 -8.94963
666 1 11.007 17.2966 20.4415 -8.94963
667 1 12.5794 15.7242 18.8691 -8.94963
668 1 14.1518 17.2966 20.4415 -8.94963
669 1 15.7242 15.7242 18.8691 -8.94963
670 1 17.2966 17.2966 20.4415 -8.94963
671 1 18.8691 15.7242 18.8691 -8.94963
672 1 20.4415 17.2966 20.4415 -8.94963
673 1 22.0139 18.8691 18.8691 -8.94963
674 1 1.57242 20.4415 20.4415 -8.94963
675 1 3.14484 18.8691 18.8691 -8.94963
351 1 3.18637e-10 12.5794 22.0139 -8.94963
389 1 15.7242 18.8691 22.0139 -8.94963
355 1 6.28969 12.5794 22.0139 -8.94963
367 1 3.14484 15.7242 22.0139 -8.94963
373 1 12.5794 15.7242 22.0139 -8.94963
377 1 18.8691 15.7242 22.0139 -8.94963
379 1 1.16287e-10 18.8691 22.0139 -8.94963
383 1 6.28969 18.8691 22.0139 -8.94963
361 1 15.7242 12.5794 22.0139 -8.94963
