ITEM: TIMESTEP
51
ITEM: NUMBER OF ATOMS
688
ITEM: BOX BOUNDS pp pp pp
0.0000000000000000e+00 2.2013900999999997e+01
0.0000000000000000e+00 2.2013900999999997e+01
0.0000000000000000e+00 2.2013900999999997e+01
ITEM: ATOMS id type x y z c_pot
192 1 7.86047 7.86182 11.008 -9.03866
2 1 1.57242 1.57242 1.57242 -8.94963
3 1 3.14484 3.72896e-16 7.58181e-10 -8.94963
4 1 4.71726 1.57242 1.57242 -8.94963
175 1 18.8691 9.43453 9.43453 -8.94975
6 1 7.86211 1.57242 1.57242 -8.94963
7 1 9.43453 -1.12523e-16 1.30701e-15 -8.94963
8 1 11.007 1.57242 1.57242 -8.94963
191 1 4.71693 7.86184 11.0066 -8.94898
10 1 14.1518 1.57242 1.57242 -8.94963
174 1 15.7246 9.4345 9.43451 -8.95102
12 1 17.2966 1.57242 1.57242 -8.94963
13 1 18.8691 5.34292e-16 1.26846e-09 -8.94963
14 1 20.4415 1.57242 1.57242 -8.94963
173 1 12.5846 9.43069 9.4342 -8.9829
16 1 1.57242 4.71726 1.57242 -8.94963
17 1 3.14484 3.14484 2.01521e-08 -8.94963
18 1 4.71726 4.71726 1.57242 -8.94963
172 1 9.41735 9.39789 9.43448 -9.28001
20 1 7.86211 4.71726 1.57242 -8.94964
21 1 9.43453 3.14484 6.37471e-16 -8.94963
22 1 11.007 4.71726 1.57242 -8.94963
23 1 12.5794 3.14484 -1.04743e-08 -8.94963
24 1 14.1518 4.71726 1.57242 -8.94964
171 1 6.28967 9.43402 9.43426 -9.0347
26 1 17.2966 4.71726 1.57242 -8.94963
27 1 18.8691 3.14484 8.16724e-10 -8.94963
28 1 20.4415 4.71726 1.57242 -8.94963
29 1 22.0139 6.28969 -2.45511e-08 -8.94963
30 1 1.57242 7.86211 1.57242 -8.94963
170 1 3.14494 9.43458 9.43461 -8.94978
32 1 4.71726 7.86211 1.57242 -8.94963
33 1 6.28969 6.28969 -6.82196e-07 -8.94963
34 1 7.8621 7.8621 1.57241 -8.94961
35 1 9.43453 6.28969 -3.3037e-16 -8.94964
36 1 11.007 7.86211 1.57243 -8.94963
169 1 8.12507e-06 9.43453 9.43453 -8.94961
38 1 14.1518 7.8621 1.57242 -8.94961
39 1 15.7242 6.28969 -8.54038e-08 -8.94963
40 1 17.2966 7.86211 1.57242 -8.94964
168 1 18.8691 6.28969 9.43453 -8.94962
42 1 20.4415 7.86211 1.57242 -8.94963
167 1 15.7242 6.2897 9.43454 -8.94966
166 1 12.5794 6.2894 9.43449 -8.95048
165 1 9.43453 6.2869 9.43461 -8.95994
46 1 9.43453 9.43452 6.60325e-16 -8.94963
47 1 12.5794 9.43453 -3.39984e-06 -8.94964
190 1 1.5724 7.8621 11.0069 -8.94967
49 1 18.8691 9.43453 -5.68208e-08 -8.94963
50 1 22.0139 4.2036e-16 3.14484 -8.94963
51 1 1.57242 1.57242 4.71726 -8.94963
52 1 3.14484 1.30139e-15 3.14484 -8.94963
53 1 4.71726 1.57242 4.71726 -8.94963
54 1 6.28969 7.54643e-16 3.14484 -8.94963
55 1 7.86211 1.57242 4.71726 -8.94963
56 1 9.43453 2.30588e-16 3.14484 -8.94963
57 1 11.007 1.57242 4.71726 -8.94963
58 1 12.5794 1.94802e-16 3.14484 -8.94963
59 1 14.1518 1.57242 4.71726 -8.94963
60 1 15.7242 -8.33127e-16 3.14484 -8.94963
61 1 17.2966 1.57242 4.71726 -8.94963
62 1 18.8691 6.20624e-16 3.14484 -8.94963
63 1 20.4415 1.57242 4.71726 -8.94963
64 1 4.34637e-08 3.14484 3.14484 -8.94963
65 1 1.57242 4.71727 4.71726 -8.94964
66 1 3.14484 3.14484 3.14484 -8.94963
67 1 4.71726 4.71726 4.71726 -8.94962
68 1 6.28969 3.14484 3.14484 -8.94964
69 1 7.86211 4.71727 4.71727 -8.9497
70 1 9.43453 3.14484 3.14484 -8.94963
71 1 11.0069 4.71727 4.71726 -8.94965
72 1 12.5794 3.14484 3.14484 -8.94964
73 1 14.1518 4.71726 4.71726 -8.94963
74 1 15.7242 3.14484 3.14484 -8.94963
75 1 17.2966 4.71726 4.71726 -8.94962
76 1 18.8691 3.14484 3.14484 -8.94963
77 1 20.4415 4.71726 4.71726 -8.94963
78 1 22.0139 6.28969 3.14484 -8.94963
79 1 1.57242 7.86211 4.71726 -8.94963
80 1 3.14484 6.28968 3.14484 -8.94962
81 1 4.71724 7.86208 4.71724 -8.94947
82 1 6.28968 6.28969 3.14484 -8.94963
83 1 7.86208 7.86209 4.71719 -8.94983
84 1 9.43453 6.28968 3.14485 -8.94964
85 1 11.0069 7.86218 4.71732 -8.95023
86 1 12.5794 6.28969 3.14485 -8.9497
87 1 14.1518 7.86207 4.71722 -8.94932
88 1 15.7242 6.28969 3.14484 -8.94962
89 1 17.2966 7.86211 4.71727 -8.94968
90 1 18.8691 6.28969 3.14484 -8.94964
91 1 20.4415 7.86211 4.71726 -8.94963
92 1 6.67639e-08 9.43453 3.14484 -8.94963
93 1 3.14485 9.43453 3.14485 -8.94965
94 1 6.28967 9.43452 3.14481 -8.9497
95 1 9.43445 9.43444 3.14475 -8.9491
96 1 12.5795 9.43445 3.14477 -8.94921
97 1 15.7242 9.43454 3.14486 -8.9497
98 1 18.8691 9.43453 3.14484 -8.94963
99 1 -1.18146e-08 1.04392e-15 6.28969 -8.94963
100 1 1.57242 1.57242 7.86211 -8.94963
101 1 3.14484 1.28876e-15 6.28969 -8.94963
102 1 4.71726 1.57242 7.86211 -8.94963
103 1 6.28969 1.36016e-15 6.28969 -8.94963
104 1 7.8621 1.57242 7.8621 -8.94963
105 1 9.43453 1.44384e-16 6.28969 -8.94963
106 1 11.007 1.57242 7.8621 -8.94963
107 1 12.5794 1.68105e-16 6.28969 -8.94963
108 1 14.1518 1.57242 7.86211 -8.94964
109 1 15.7242 9.89225e-16 6.28969 -8.94963
110 1 17.2966 1.57242 7.86211 -8.94963
111 1 18.8691 7.55031e-16 6.28969 -8.94963
112 1 20.4415 1.57242 7.86211 -8.94963
113 1 22.0139 3.14484 6.28969 -8.94963
114 1 1.57242 4.71726 7.86211 -8.94962
115 1 3.14484 3.14484 6.28969 -8.94964
116 1 4.71727 4.71728 7.86212 -8.9497
117 1 6.28968 3.14484 6.28968 -8.94961
118 1 7.86203 4.7172 7.86202 -8.94921
119 1 9.43453 3.14485 6.28969 -8.94963
120 1 11.007 4.71718 7.86202 -8.94917
121 1 12.5794 3.14484 6.28968 -8.94962
122 1 14.1518 4.71724 7.8621 -8.94969
123 1 15.7242 3.14484 6.28968 -8.94963
124 1 17.2966 4.71727 7.86211 -8.94965
125 1 18.8691 3.14484 6.28969 -8.94963
126 1 20.4415 4.71726 7.86211 -8.94963
127 1 1.25428e-06 6.28969 6.28969 -8.94964
128 1 1.57243 7.86212 7.86212 -8.94967
129 1 3.14485 6.28969 6.28969 -8.94966
130 1 4.71728 7.86215 7.86213 -8.94981
131 1 6.28966 6.28964 6.28966 -8.94939
132 1 7.86134 7.86196 7.86076 -8.98551
133 1 9.43456 6.28974 6.28977 -8.95026
134 1 11.0078 7.86202 7.86172 -9.00356
135 1 12.5794 6.2896 6.28966 -8.94982
136 1 14.1522 7.86174 7.86184 -8.94833
137 1 15.7242 6.28967 6.28966 -8.94948
138 1 17.2967 7.86209 7.86209 -8.94967
139 1 18.8691 6.28968 6.28968 -8.94963
140 1 20.4415 7.86211 7.86211 -8.94964
141 1 22.0139 9.43453 6.28969 -8.94964
142 1 3.14482 9.43453 6.28969 -8.94975
143 1 6.28922 9.43419 6.28927 -8.94803
144 1 9.43376 9.43415 6.28954 -9.00288
145 1 12.5802 9.43312 6.28943 -8.98498
146 1 15.7242 9.4346 6.28976 -8.95015
147 1 18.8691 9.43453 6.28969 -8.94963
148 1 1.85052e-08 2.05165e-16 9.43453 -8.94963
149 1 3.14484 7.95911e-16 9.43453 -8.94963
150 1 6.28969 -5.93039e-16 9.43453 -8.94962
151 1 9.43453 1.10435e-16 9.43453 -8.9497
152 1 12.5794 1.03697e-15 9.43453 -8.94964
153 1 15.7242 1.074e-15 9.43453 -8.94963
154 1 18.8691 9.988e-16 9.43453 -8.94963
155 1 7.17187e-08 3.14484 9.43453 -8.94963
156 1 3.14484 3.14484 9.43453 -8.94963
157 1 6.28969 3.14485 9.43452 -8.94958
158 1 9.43453 3.14471 9.43453 -8.95044
159 1 12.5794 3.14483 9.43452 -8.94969
160 1 15.7242 3.14484 9.43453 -8.94963
161 1 18.8691 3.14484 9.43453 -8.94963
162 1 22.0139 6.28968 9.43453 -8.94963
163 1 3.14482 6.28966 9.4345 -8.94944
164 1 6.28984 6.28981 9.43451 -8.95057
177 1 4.71727 1.57242 11.0069 -8.94964
178 1 7.8621 1.57241 11.007 -8.94963
181 1 17.2966 1.57242 11.007 -8.94963
184 1 4.71726 4.71725 11.0069 -8.94978
185 1 7.86195 4.71711 11.0069 -8.94867
188 1 17.2966 4.71727 11.0069 -8.94965
5 1 6.28969 -5.13893e-16 1.93987e-09 -8.94963
44 1 3.14484 9.43453 -9.20037e-07 -8.94963
176 1 1.57242 1.57242 11.007 -8.94963
343 1 18.8691 9.43453 18.8691 -8.94963
342 1 15.7242 9.43453 18.8691 -8.94965
179 1 11.007 1.57241 11.007 -8.94963
180 1 14.1518 1.57242 11.007 -8.94964
341 1 12.5794 9.43452 18.8691 -8.9497
182 1 20.4415 1.57242 11.007 -8.94963
183 1 1.57242 4.71727 11.007 -8.94965
340 1 9.4346 9.43444 18.8692 -8.9491
339 1 6.2896 9.43445 18.8691 -8.94921
186 1 11.0071 4.71711 11.007 -8.94867
187 1 14.1518 4.71725 11.007 -8.94978
338 1 3.14485 9.43454 18.869 -8.9497
189 1 20.4415 4.71726 11.007 -8.94963
337 1 22.0139 9.43453 18.8691 -8.94963
336 1 20.4415 7.86211 20.4415 -8.94963
335 1 18.8691 6.28969 18.8691 -8.94963
193 1 11.0086 7.86182 11.0059 -9.03866
194 1 14.1521 7.86184 11.0073 -8.94898
195 1 17.2967 7.8621 11.007 -8.94967
196 1 20.4415 7.86211 11.007 -8.94965
197 1 22.0139 9.58351e-16 12.5794 -8.94963
198 1 1.57242 1.57242 14.1518 -8.94963
199 1 3.14484 1.11814e-15 12.5794 -8.94963
200 1 4.71726 1.57242 14.1518 -8.94964
201 1 6.28969 7.71515e-16 12.5794 -8.94964
202 1 7.8621 1.57242 14.1518 -8.94963
203 1 9.43453 -2.85162e-17 12.5794 -8.9497
204 1 11.007 1.57242 14.1518 -8.94963
205 1 12.5794 -1.14313e-16 12.5794 -8.94962
206 1 14.1518 1.57242 14.1518 -8.94963
207 1 15.7242 7.27153e-16 12.5794 -8.94963
208 1 17.2966 1.57242 14.1518 -8.94963
209 1 18.8691 5.02458e-17 12.5794 -8.94963
210 1 20.4415 1.57242 14.1518 -8.94963
211 1 22.0139 3.14484 12.5794 -8.94963
212 1 1.57242 4.71727 14.1518 -8.94965
213 1 3.14484 3.14484 12.5794 -8.94963
214 1 4.71725 4.71724 14.1518 -8.94969
215 1 6.28969 3.14483 12.5794 -8.94969
216 1 7.86203 4.71718 14.1519 -8.94917
217 1 9.43453 3.14471 12.5794 -8.95044
218 1 11.007 4.7172 14.1519 -8.94921
219 1 12.5794 3.14485 12.5794 -8.94958
220 1 14.1518 4.71728 14.1518 -8.9497
221 1 15.7242 3.14484 12.5794 -8.94963
222 1 17.2966 4.71726 14.1518 -8.94962
223 1 18.8691 3.14484 12.5794 -8.94963
224 1 20.4415 4.71726 14.1518 -8.94963
225 1 3.01256e-07 6.28969 12.5794 -8.94962
226 1 1.57239 7.86209 14.1518 -8.94967
227 1 3.14485 6.2897 12.5794 -8.94966
228 1 4.71686 7.86174 14.1521 -8.94833
229 1 6.28962 6.2894 12.5794 -8.95048
230 1 7.86124 7.86202 14.1522 -9.00356
231 1 9.43453 6.2869 12.5793 -8.95994
232 1 11.0077 7.86196 14.1531 -8.98551
233 1 12.5792 6.28981 12.5794 -8.95057
234 1 14.1518 7.86215 14.1518 -8.94981
235 1 15.7242 6.28966 12.5794 -8.94944
236 1 17.2966 7.86212 14.1518 -8.94967
237 1 18.8691 6.28968 12.5794 -8.94963
238 1 20.4415 7.86211 14.1518 -8.94964
239 1 22.0139 9.43453 12.5794 -8.94975
240 1 3.14447 9.4345 12.5794 -8.95102
241 1 6.28443 9.43069 12.5797 -8.9829
242 1 9.45171 9.39789 12.5794 -9.28001
243 1 12.5794 9.43402 12.5796 -9.0347
244 1 15.7241 9.43458 12.5793 -8.94978
245 1 18.869 9.43453 12.5794 -8.94961
246 1 1.14272e-08 8.44307e-16 15.7242 -8.94963
247 1 1.57242 1.57242 17.2966 -8.94963
248 1 3.14484 1.19722e-15 15.7242 -8.94963
249 1 4.71726 1.57242 17.2966 -8.94963
250 1 6.28969 4.09798e-16 15.7242 -8.94963
251 1 7.86211 1.57242 17.2966 -8.94963
252 1 9.43453 1.17833e-16 15.7242 -8.94963
253 1 11.007 1.57242 17.2966 -8.94963
254 1 12.5794 1.35393e-15 15.7242 -8.94963
255 1 14.1518 1.57242 17.2966 -8.94963
256 1 15.7242 1.29089e-15 15.7242 -8.94963
257 1 17.2966 1.57242 17.2966 -8.94963
258 1 18.8691 1.31979e-15 15.7242 -8.94963
259 1 20.4415 1.57242 17.2966 -8.94963
260 1 1.44878e-07 3.14484 15.7242 -8.94963
261 1 1.57242 4.71726 17.2966 -8.94962
262 1 3.14484 3.14484 15.7242 -8.94963
263 1 4.71726 4.71726 17.2966 -8.94963
264 1 6.28968 3.14484 15.7242 -8.94962
265 1 7.86211 4.71727 17.2966 -8.94965
266 1 9.43453 3.14485 15.7242 -8.94963
267 1 11.0069 4.71727 17.2966 -8.9497
268 1 12.5794 3.14484 15.7242 -8.94961
269 1 14.1518 4.71726 17.2966 -8.94962
270 1 15.7242 3.14484 15.7242 -8.94964
271 1 17.2966 4.71727 17.2966 -8.94964
272 1 18.8691 3.14484 15.7242 -8.94963
273 1 20.4415 4.71726 17.2966 -8.94963
274 1 22.0139 6.28968 15.7242 -8.94963
275 1 1.57243 7.86211 17.2966 -8.94968
276 1 3.14482 6.28967 15.7242 -8.94948
277 1 4.71723 7.86207 17.2967 -8.94932
278 1 6.28966 6.2896 15.7242 -8.94982
279 1 7.86213 7.86218 17.2966 -8.95023
280 1 9.4345 6.28974 15.7241 -8.95026
281 1 11.007 7.86209 17.2967 -8.94983
282 1 12.5794 6.28964 15.7242 -8.94939
283 1 14.1518 7.86208 17.2967 -8.94947
284 1 15.7242 6.28969 15.7242 -8.94966
285 1 17.2966 7.86211 17.2966 -8.94963
286 1 18.8691 6.28969 15.7242 -8.94964
287 1 20.4415 7.86211 17.2966 -8.94963
288 1 5.71891e-06 9.43453 15.7242 -8.94963
289 1 3.14489 9.4346 15.7241 -8.95015
290 1 6.28888 9.43312 15.7245 -8.98498
291 1 9.4353 9.43415 15.7244 -9.00288
292 1 12.5798 9.43419 15.7246 -8.94803
293 1 15.7242 9.43453 15.7242 -8.94975
294 1 18.8691 9.43453 15.7242 -8.94964
295 1 22.0139 5.2448e-16 18.8691 -8.94963
296 1 1.57242 1.57242 20.4415 -8.94963
297 1 3.14484 -7.6738e-16 18.8691 -8.94963
298 1 4.71726 1.57242 20.4415 -8.94963
299 1 6.28969 8.4156e-17 18.8691 -8.94963
300 1 7.86211 1.57242 20.4415 -8.94963
301 1 9.43453 1.7499e-16 18.8691 -8.94963
302 1 11.007 1.57242 20.4415 -8.94963
303 1 12.5794 5.40531e-16 18.8691 -8.94963
304 1 14.1518 1.57242 20.4415 -8.94963
305 1 15.7242 1.19163e-15 18.8691 -8.94963
306 1 17.2966 1.57242 20.4415 -8.94963
307 1 18.8691 2.91088e-16 18.8691 -8.94963
308 1 20.4415 1.57242 20.4415 -8.94963
309 1 22.0139 3.14484 18.8691 -8.94963
310 1 1.57242 4.71726 20.4415 -8.94963
311 1 3.14484 3.14484 18.8691 -8.94963
312 1 4.71726 4.71726 20.4415 -8.94964
313 1 6.28969 3.14484 18.8691 -8.94964
314 1 7.86211 4.71726 20.4415 -8.94963
315 1 9.43453 3.14484 18.8691 -8.94963
316 1 11.007 4.71726 20.4415 -8.94964
317 1 12.5794 3.14484 18.8691 -8.94964
318 1 14.1518 4.71726 20.4415 -8.94963
319 1 15.7242 3.14484 18.8691 -8.94963
320 1 17.2966 4.71726 20.4415 -8.94963
321 1 18.8691 3.14484 18.8691 -8.94963
322 1 20.4415 4.71726 20.4415 -8.94963
323 1 5.55985e-07 6.28969 18.8691 -8.94964
324 1 1.57242 7.86211 20.4415 -8.94964
325 1 3.14484 6.28969 18.8691 -8.94962
326 1 4.71726 7.8621 20.4415 -8.94961
327 1 6.28969 6.28969 18.8691 -8.9497
328 1 7.86211 7.86211 20.4415 -8.94963
329 1 9.43453 6.28968 18.8691 -8.94964
330 1 11.007 7.8621 20.4415 -8.94961
331 1 12.5794 6.28969 18.8691 -8.94963
332 1 14.1518 7.86211 20.4415 -8.94963
333 1 15.7242 6.28968 18.8691 -8.94962
334 1 17.2966 7.86211 20.4415 -8.94963
45 1 6.28968 9.43453 22.0139 -8.94964
11 1 15.7242 3.3072e-16 22.0139 -8.94963
15 1 1.12004e-10 3.14484 22.0139 -8.94963
19 1 6.28969 3.14484 22.0139 -8.94963
25 1 15.7242 3.14484 22.0139 -8.94963
31 1 3.14484 6.28969 22.0139 -8.94963
37 1 12.5794 6.28969 22.0139 -8.94963
41 1 18.8691 6.28969 22.0139 -8.94963
43 1 -4.93365e-08 9.43453 22.0139 -8.94963
1 1 1.31275e-09 4.26758e-16 22.0139 -8.94963
9 1 12.5794 -6.89401e-16 22.0139 -8.94963
48 1 15.7242 9.43453 22.0139 -8.94963
344 1 1.57242 11.007 1.57242 -8.94963
345 1 4.71726 11.007 1.57242 -8.94962
346 1 7.86211 11.007 1.57241 -8.94979
347 1 11.007 11.007 1.57228 -8.95044
348 1 14.1518 11.007 1.57244 -8.94959
349 1 17.2966 11.007 1.57242 -8.94963
350 1 20.4415 11.007 1.57242 -8.94963
688 2 10.2208 11.007 9.43435 0.896471
352 1 1.57242 14.1518 1.57242 -8.94963
511 1 18.8691 18.8691 9.43453 -8.94963
354 1 4.71726 14.1518 1.57242 -8.94963
510 1 15.7242 18.8691 9.43453 -8.94963
356 1 7.8621 14.1518 1.57241 -8.94961
357 1 9.43453 12.5794 6.3907e-16 -8.94963
358 1 11.007 14.1518 1.57243 -8.94963
359 1 12.5794 12.5794 -3.39984e-06 -8.94964
360 1 14.1518 14.1518 1.57242 -8.94961
538 1 17.2966 20.4415 11.007 -8.94963
362 1 17.2966 14.1518 1.57242 -8.94964
363 1 18.8691 12.5794 -5.68208e-08 -8.94963
364 1 20.4415 14.1518 1.57242 -8.94963
365 1 22.0139 15.7242 -2.45511e-08 -8.94963
366 1 1.57242 17.2966 1.57242 -8.94963
509 1 12.5794 18.8691 9.43452 -8.94969
368 1 4.71726 17.2966 1.57242 -8.94963
369 1 6.28969 15.7242 -6.82196e-07 -8.94963
370 1 7.86211 17.2966 1.57242 -8.94964
371 1 9.43453 15.7242 -2.37863e-16 -8.94964
372 1 11.007 17.2966 1.57242 -8.94963
508 1 9.43453 18.8692 9.43453 -8.95044
374 1 14.1518 17.2966 1.57242 -8.94964
375 1 15.7242 15.7242 -8.54038e-08 -8.94963
376 1 17.2966 17.2966 1.57242 -8.94963
507 1 6.28969 18.869 9.43452 -8.94958
378 1 20.4415 17.2966 1.57242 -8.94963
506 1 3.14484 18.8691 9.43453 -8.94963
380 1 1.57242 20.4415 1.57242 -8.94963
381 1 3.14484 18.8691 2.01521e-08 -8.94963
382 1 4.71726 20.4415 1.57242 -8.94963
505 1 7.17187e-08 18.8691 9.43453 -8.94963
384 1 7.86211 20.4415 1.57242 -8.94963
385 1 9.43453 18.8691 7.07827e-16 -8.94963
386 1 11.007 20.4415 1.57242 -8.94963
387 1 12.5794 18.8691 -1.04743e-08 -8.94963
388 1 14.1518 20.4415 1.57242 -8.94963
504 1 18.8691 15.7242 9.43453 -8.94962
390 1 17.2966 20.4415 1.57242 -8.94963
391 1 18.8691 18.8691 8.16723e-10 -8.94963
392 1 20.4415 20.4415 1.57242 -8.94963
393 1 1.57242 11.007 4.71726 -8.94962
394 1 4.71727 11.007 4.71728 -8.94958
395 1 7.86207 11.007 4.71688 -8.95158
396 1 11.0069 11.007 4.71441 -8.9594
397 1 14.1516 11.007 4.71748 -8.95037
398 1 17.2966 11.007 4.71726 -8.94958
399 1 20.4415 11.007 4.71726 -8.94963
400 1 6.67639e-08 12.5794 3.14484 -8.94963
401 1 1.57242 14.1518 4.71726 -8.94963
402 1 3.14485 12.5794 3.14485 -8.94965
403 1 4.71724 14.1518 4.71724 -8.94947
404 1 6.28967 12.5794 3.14481 -8.9497
405 1 7.86208 14.1518 4.71719 -8.94983
406 1 9.43445 12.5795 3.14475 -8.9491
407 1 11.0069 14.1517 4.71732 -8.95023
408 1 12.5795 12.5795 3.14477 -8.94921
409 1 14.1518 14.1518 4.71722 -8.94932
410 1 15.7242 12.5794 3.14486 -8.9497
411 1 17.2966 14.1518 4.71727 -8.94968
412 1 18.8691 12.5794 3.14484 -8.94963
413 1 20.4415 14.1518 4.71726 -8.94963
414 1 22.0139 15.7242 3.14484 -8.94963
415 1 1.57242 17.2966 4.71726 -8.94964
416 1 3.14484 15.7242 3.14484 -8.94962
417 1 4.71726 17.2966 4.71726 -8.94962
418 1 6.28968 15.7242 3.14484 -8.94963
419 1 7.86211 17.2966 4.71727 -8.9497
420 1 9.43453 15.7242 3.14485 -8.94964
421 1 11.0069 17.2966 4.71726 -8.94965
422 1 12.5794 15.7242 3.14485 -8.9497
423 1 14.1518 17.2966 4.71726 -8.94963
424 1 15.7242 15.7242 3.14484 -8.94962
425 1 17.2966 17.2966 4.71726 -8.94962
426 1 18.8691 15.7242 3.14484 -8.94964
427 1 20.4415 17.2966 4.71726 -8.94963
428 1 4.34637e-08 18.8691 3.14484 -8.94963
429 1 1.57242 20.4415 4.71726 -8.94963
430 1 3.14484 18.8691 3.14484 -8.94963
431 1 4.71726 20.4415 4.71726 -8.94963
432 1 6.28969 18.8691 3.14484 -8.94964
433 1 7.86211 20.4415 4.71726 -8.94963
434 1 9.43453 18.8691 3.14484 -8.94963
435 1 11.007 20.4415 4.71726 -8.94963
436 1 12.5794 18.8691 3.14484 -8.94964
437 1 14.1518 20.4415 4.71726 -8.94963
438 1 15.7242 18.8691 3.14484 -8.94963
439 1 17.2966 20.4415 4.71726 -8.94963
440 1 18.8691 18.8691 3.14484 -8.94963
441 1 20.4415 20.4415 4.71726 -8.94963
442 1 1.57241 11.007 7.86211 -8.94969
443 1 4.7171 11.007 7.8623 -8.95174
444 1 7.85721 11.007 7.8557 -8.99399
445 1 11.025 11.007 7.82559 -9.22775
446 1 14.151 11.007 7.86303 -8.99959
447 1 17.2966 11.007 7.86209 -8.94928
448 1 20.4415 11.007 7.86211 -8.94962
449 1 22.0139 12.5794 6.28969 -8.94964
450 1 1.57243 14.1518 7.86212 -8.94967
451 1 3.14482 12.5794 6.28969 -8.94975
452 1 4.71728 14.1518 7.86213 -8.94981
453 1 6.28922 12.5797 6.28927 -8.94803
454 1 7.86134 14.1519 7.86076 -8.98551
455 1 9.43376 12.5798 6.28954 -9.00288
456 1 11.0078 14.1519 7.86172 -9.00356
457 1 12.5802 12.5808 6.28943 -8.98498
458 1 14.1522 14.1522 7.86184 -8.94833
459 1 15.7242 12.5793 6.28976 -8.95015
460 1 17.2967 14.1518 7.86209 -8.94967
461 1 18.8691 12.5794 6.28969 -8.94963
462 1 20.4415 14.1518 7.86211 -8.94964
463 1 1.25428e-06 15.7242 6.28969 -8.94964
464 1 1.57242 17.2966 7.86211 -8.94962
465 1 3.14485 15.7242 6.28969 -8.94966
466 1 4.71727 17.2966 7.86212 -8.9497
467 1 6.28966 15.7243 6.28966 -8.94939
468 1 7.86203 17.2967 7.86202 -8.94921
469 1 9.43456 15.7242 6.28977 -8.95026
470 1 11.007 17.2967 7.86202 -8.94917
471 1 12.5794 15.7243 6.28966 -8.94982
472 1 14.1518 17.2967 7.8621 -8.94969
473 1 15.7242 15.7242 6.28966 -8.94948
474 1 17.2966 17.2966 7.86211 -8.94965
475 1 18.8691 15.7242 6.28968 -8.94963
476 1 20.4415 17.2966 7.86211 -8.94963
477 1 22.0139 18.8691 6.28969 -8.94963
478 1 1.57242 20.4415 7.86211 -8.94963
479 1 3.14484 18.8691 6.28969 -8.94964
480 1 4.71726 20.4415 7.86211 -8.94963
481 1 6.28968 18.8691 6.28968 -8.94961
482 1 7.8621 20.4415 7.8621 -8.94963
483 1 9.43453 18.8691 6.28969 -8.94963
484 1 11.007 20.4415 7.8621 -8.94963
485 1 12.5794 18.8691 6.28968 -8.94962
486 1 14.1518 20.4415 7.86211 -8.94964
487 1 15.7242 18.8691 6.28968 -8.94963
488 1 17.2966 20.4415 7.86211 -8.94963
489 1 18.8691 18.8691 6.28969 -8.94963
490 1 20.4415 20.4415 7.86211 -8.94963
491 1 8.12507e-06 12.5794 9.43453 -8.94961
492 1 3.14494 12.5793 9.43461 -8.94978
493 1 6.28967 12.5799 9.43426 -9.0347
494 1 9.41735 12.616 9.43448 -9.28001
495 1 12.5846 12.5832 9.4342 -8.9829
496 1 15.7246 12.5794 9.43451 -8.95102
497 1 18.8691 12.5794 9.43453 -8.94975
498 1 22.0139 15.7242 9.43453 -8.94963
499 1 3.14482 15.7242 9.4345 -8.94944
500 1 6.28984 15.7241 9.43451 -8.95057
501 1 9.43453 15.727 9.43461 -8.95994
502 1 12.5794 15.7245 9.43449 -8.95048
503 1 15.7242 15.7242 9.43454 -8.94966
512 1 1.57245 11.007 11.0069 -8.94941
514 1 7.839 11.007 10.9742 -9.2619
516 1 14.1514 11.007 11.006 -9.00087
519 1 1.5724 14.1518 11.0069 -8.94967
520 1 4.71693 14.1521 11.0066 -8.94898
521 1 7.86047 14.1521 11.008 -9.03866
527 1 4.71726 17.2966 11.0069 -8.94978
528 1 7.86195 17.2968 11.0069 -8.94867
531 1 17.2966 17.2966 11.0069 -8.94965
534 1 4.71727 20.4415 11.0069 -8.94964
535 1 7.8621 20.4415 11.007 -8.94963
353 1 3.14484 12.5794 -9.20037e-07 -8.94963
687 2 8.64827 11.007 12.5796 0.896471
513 1 4.71767 11.007 11.0079 -9.00087
686 1 20.4415 20.4415 20.4415 -8.94963
515 1 11.0301 11.007 11.0397 -9.2619
685 1 18.8691 18.8691 18.8691 -8.94963
517 1 17.2966 11.007 11.007 -8.94941
518 1 20.4415 11.007 11.007 -8.94961
684 1 17.2966 20.4415 20.4415 -8.94963
683 1 15.7242 18.8691 18.8691 -8.94963
682 1 14.1518 20.4415 20.4415 -8.94963
522 1 11.0086 14.1521 11.0059 -9.03866
523 1 14.1521 14.1521 11.0073 -8.94898
524 1 17.2967 14.1518 11.007 -8.94967
525 1 20.4415 14.1518 11.007 -8.94965
526 1 1.57242 17.2966 11.007 -8.94965
681 1 12.5794 18.8691 18.8691 -8.94964
680 1 11.007 20.4415 20.4415 -8.94963
529 1 11.0071 17.2968 11.007 -8.94867
530 1 14.1518 17.2966 11.007 -8.94978
679 1 9.43453 18.8691 18.8691 -8.94963
532 1 20.4415 17.2966 11.007 -8.94963
533 1 1.57242 20.4415 11.007 -8.94963
678 1 7.86211 20.4415 20.4415 -8.94963
677 1 6.28969 18.8691 18.8691 -8.94964
536 1 11.007 20.4415 11.007 -8.94963
537 1 14.1518 20.4415 11.007 -8.94964
676 1 4.71726 20.4415 20.4415 -8.94963
539 1 20.4415 20.4415 11.007 -8.94963
540 1 1.57247 11.007 14.1518 -8.94928
541 1 4.71806 11.007 14.1509 -8.99959
542 1 7.84411 11.007 14.1883 -9.22775
543 1 11.0118 11.007 14.1582 -8.99399
544 1 14.152 11.007 14.1516 -8.95174
545 1 17.2966 11.007 14.1518 -8.94969
546 1 20.4415 11.007 14.1518 -8.94962
547 1 22.0139 12.5794 12.5794 -8.94975
548 1 1.57239 14.1518 14.1518 -8.94967
549 1 3.14447 12.5794 12.5794 -8.95102
550 1 4.71686 14.1522 14.1521 -8.94833
551 1 6.28443 12.5832 12.5797 -8.9829
552 1 7.86124 14.1519 14.1522 -9.00356
553 1 9.45171 12.616 12.5794 -9.28001
554 1 11.0077 14.1519 14.1531 -8.98551
555 1 12.5794 12.5799 12.5796 -9.0347
556 1 14.1518 14.1518 14.1518 -8.94981
557 1 15.7241 12.5793 12.5793 -8.94978
558 1 17.2966 14.1518 14.1518 -8.94967
559 1 18.869 12.5794 12.5794 -8.94961
560 1 20.4415 14.1518 14.1518 -8.94964
561 1 3.01256e-07 15.7242 12.5794 -8.94962
562 1 1.57242 17.2966 14.1518 -8.94965
563 1 3.14485 15.7242 12.5794 -8.94966
564 1 4.71725 17.2967 14.1518 -8.94969
565 1 6.28962 15.7245 12.5794 -8.95048
566 1 7.86203 17.2967 14.1519 -8.94917
567 1 9.43453 15.727 12.5793 -8.95994
568 1 11.007 17.2967 14.1519 -8.94921
569 1 12.5792 15.7241 12.5794 -8.95057
570 1 14.1518 17.2966 14.1518 -8.9497
571 1 15.7242 15.7242 12.5794 -8.94944
572 1 17.2966 17.2966 14.1518 -8.94962
573 1 18.8691 15.7242 12.5794 -8.94963
574 1 20.4415 17.2966 14.1518 -8.94963
575 1 22.0139 18.8691 12.5794 -8.94963
576 1 1.57242 20.4415 14.1518 -8.94963
577 1 3.14484 18.8691 12.5794 -8.94963
578 1 4.71726 20.4415 14.1518 -8.94964
579 1 6.28969 18.8691 12.5794 -8.94969
580 1 7.8621 20.4415 14.1518 -8.94963
581 1 9.43453 18.8692 12.5794 -8.95044
582 1 11.007 20.4415 14.1518 -8.94963
583 1 12.5794 18.869 12.5794 -8.94958
584 1 14.1518 20.4415 14.1518 -8.94963
585 1 15.7242 18.8691 12.5794 -8.94963
586 1 17.2966 20.4415 14.1518 -8.94963
587 1 18.8691 18.8691 12.5794 -8.94963
588 1 20.4415 20.4415 14.1518 -8.94963
589 1 1.57243 11.007 17.2966 -8.94958
590 1 4.71744 11.007 17.2964 -8.95037
591 1 7.86214 11.007 17.2995 -8.9594
592 1 11.007 11.007 17.297 -8.95158
593 1 14.1518 11.007 17.2966 -8.94958
594 1 17.2966 11.007 17.2966 -8.94962
595 1 20.4415 11.007 17.2966 -8.94963
596 1 5.71891e-06 12.5794 15.7242 -8.94963
597 1 1.57243 14.1518 17.2966 -8.94968
598 1 3.14489 12.5793 15.7241 -8.95015
599 1 4.71723 14.1518 17.2967 -8.94932
600 1 6.28888 12.5808 15.7245 -8.98498
601 1 7.86213 14.1517 17.2966 -8.95023
602 1 9.4353 12.5798 15.7244 -9.00288
603 1 11.007 14.1518 17.2967 -8.94983
604 1 12.5798 12.5797 15.7246 -8.94803
605 1 14.1518 14.1518 17.2967 -8.94947
606 1 15.7242 12.5794 15.7242 -8.94975
607 1 17.2966 14.1518 17.2966 -8.94963
608 1 18.8691 12.5794 15.7242 -8.94964
609 1 20.4415 14.1518 17.2966 -8.94963
610 1 22.0139 15.7242 15.7242 -8.94963
611 1 1.57242 17.2966 17.2966 -8.94962
612 1 3.14482 15.7242 15.7242 -8.94948
613 1 4.71726 17.2966 17.2966 -8.94963
614 1 6.28966 15.7243 15.7242 -8.94982
615 1 7.86211 17.2966 17.2966 -8.94965
616 1 9.4345 15.7242 15.7241 -8.95026
617 1 11.0069 17.2966 17.2966 -8.9497
618 1 12.5794 15.7243 15.7242 -8.94939
619 1 14.1518 17.2966 17.2966 -8.94962
620 1 15.7242 15.7242 15.7242 -8.94966
621 1 17.2966 17.2966 17.2966 -8.94964
622 1 18.8691 15.7242 15.7242 -8.94964
623 1 20.4415 17.2966 17.2966 -8.94963
624 1 1.44878e-07 18.8691 15.7242 -8.94963
625 1 1.57242 20.4415 17.2966 -8.94963
626 1 3.14484 18.8691 15.7242 -8.94963
627 1 4.71726 20.4415 17.2966 -8.94963
628 1 6.28968 18.8691 15.7242 -8.94962
629 1 7.86211 20.4415 17.2966 -8.94963
630 1 9.43453 18.8691 15.7242 -8.94963
631 1 11.007 20.4415 17.2966 -8.94963
632 1 12.5794 18.8691 15.7242 -8.94961
633 1 14.1518 20.4415 17.2966 -8.94963
634 1 15.7242 18.8691 15.7242 -8.94964
635 1 17.2966 20.4415 17.2966 -8.94963
636 1 18.8691 18.8691 15.7242 -8.94963
637 1 20.4415 20.4415 17.2966 -8.94963
638 1 1.57242 11.007 20.4415 -8.94963
639 1 4.71727 11.007 20.4415 -8.94959
640 1 7.86211 11.007 20.4416 -8.95044
641 1 11.0069 11.007 20.4415 -8.94979
642 1 14.1518 11.007 20.4415 -8.94962
643 1 17.2966 11.007 20.4415 -8.94963
644 1 20.4415 11.007 20.4415 -8.94963
645 1 22.0139 12.5794 18.8691 -8.94963
646 1 1.57242 14.1518 20.4415 -8.94964
647 1 3.14485 12.5794 18.869 -8.9497
648 1 4.71726 14.1518 20.4415 -8.94961
649 1 6.2896 12.5795 18.8691 -8.94921
650 1 7.86211 14.1518 20.4415 -8.94963
651 1 9.4346 12.5795 18.8692 -8.9491
652 1 11.007 14.1518 20.4415 -8.94961
653 1 12.5794 12.5794 18.8691 -8.9497
654 1 14.1518 14.1518 20.4415 -8.94963
655 1 15.7242 12.5794 18.8691 -8.94965
656 1 17.2966 14.1518 20.4415 -8.94963
657 1 18.8691 12.5794 18.8691 -8.94963
658 1 20.4415 14.1518 20.4415 -8.94963
659 1 5.55985e-07 15.7242 18.8691 -8.94964
660 1 1.57242 17.2966 20.4415 -8.94963
661 1 3.14484 15.7242 18.8691 -8.94962
662 1 4.71726 17.2966 20.4415 -8.94964
663 1 6.28969 15.7242 18.8691 -8.9497
664 1 7.86211 17.2966 20.4415 -8.94963
665 1 9.43453 15.7242 18.8691 -8.94964
666 1 11.007 17.2966 20.4415 -8.94964
667 1 12.5794 15.7242 18.8691 -8.94963
668 1 14.1518 17.2966 20.4415 -8.94963
669 1 15.7242 15.7242 18.8691 -8.94962
670 1 17.2966 17.2966 20.4415 -8.94963
671 1 18.8691 15.7242 18.8691 -8.94963
672 1 20.4415 17.2966 20.4415 -8.94963
673 1 22.0139 18.8691 18.8691 -8.94963
674 1 1.57242 20.4415 20.4415 -8.94963
675 1 3.14484 18.8691 18.8691 -8.94963
351 1 -4.93365e-08 12.5794 22.0139 -8.94963
389 1 15.7242 18.8691 22.0139 -8.94963
355 1 6.28968 12.5794 22.0139 -8.94964
367 1 3.14484 15.7242 22.0139 -8.94963
373 1 12.5794 15.7242 22.0139 -8.94963
377 1 18.8691 15.7242 22.0139 -8.94963
379 1 1.12005e-10 18.8691 22.0139 -8.94963
383 1 6.28969 18.8691 22.0139 -8.94963
361 1 15.7242 12.5794 22.0139 -8.94963
