ITEM: TIMESTEP
52
ITEM: NUMBER OF ATOMS
688
ITEM: BOX BOUNDS pp pp pp
0.0000000000000000e+00 2.2013900999999997e+01
0.0000000000000000e+00 2.2013900999999997e+01
0.0000000000000000e+00 2.2013900999999997e+01
ITEM: ATOMS id type x y z c_pot
192 1 7.86018 7.8616 11.0082 -9.03796
2 1 1.57242 1.57242 1.57242 -8.94963
3 1 3.14484 3.35661e-16 8.03779e-10 -8.94963
4 1 4.71726 1.57242 1.57242 -8.94963
175 1 18.8691 9.43453 9.43453 -8.94976
6 1 7.86211 1.57242 1.57242 -8.94963
7 1 9.43453 -1.66525e-16 1.40691e-15 -8.94963
8 1 11.007 1.57242 1.57242 -8.94963
191 1 4.71687 7.8618 11.0066 -8.94899
10 1 14.1518 1.57242 1.57242 -8.94963
174 1 15.7246 9.43449 9.43451 -8.95105
12 1 17.2966 1.57242 1.57242 -8.94963
13 1 18.8691 5.18755e-16 1.83403e-09 -8.94963
14 1 20.4415 1.57242 1.57242 -8.94963
173 1 12.5848 9.43053 9.43416 -8.98274
16 1 1.57242 4.71726 1.57242 -8.94963
17 1 3.14484 3.14484 2.1254e-08 -8.94963
18 1 4.71726 4.71726 1.57242 -8.94963
172 1 9.41672 9.39623 9.43443 -9.27819
20 1 7.86211 4.71726 1.57242 -8.94964
21 1 9.43453 3.14484 6.80301e-16 -8.94963
22 1 11.007 4.71726 1.57242 -8.94963
23 1 12.5794 3.14484 -2.25208e-08 -8.94963
24 1 14.1518 4.71726 1.57242 -8.94964
171 1 6.28943 9.43382 9.43408 -9.03437
26 1 17.2966 4.71726 1.57242 -8.94963
27 1 18.8691 3.14484 -6.61579e-11 -8.94963
28 1 20.4415 4.71726 1.57242 -8.94963
29 1 22.0139 6.28969 -4.10084e-08 -8.94963
30 1 1.57242 7.86211 1.57242 -8.94963
170 1 3.14493 9.43459 9.43461 -8.94982
32 1 4.71726 7.86211 1.57242 -8.94963
33 1 6.28969 6.28969 -1.00072e-06 -8.94963
34 1 7.8621 7.8621 1.57241 -8.94961
35 1 9.43453 6.28969 -3.42474e-16 -8.94964
36 1 11.007 7.86211 1.57243 -8.94963
169 1 9.0871e-06 9.43453 9.43453 -8.94961
38 1 14.1518 7.8621 1.57241 -8.9496
39 1 15.7242 6.28969 -1.86777e-07 -8.94963
40 1 17.2966 7.86211 1.57242 -8.94964
168 1 18.8691 6.28969 9.43453 -8.94962
42 1 20.4415 7.86211 1.57242 -8.94963
167 1 15.7242 6.2897 9.43454 -8.94965
166 1 12.5795 6.28934 9.43448 -8.95043
165 1 9.43452 6.28653 9.43462 -8.96041
46 1 9.43453 9.43452 7.52036e-16 -8.94963
47 1 12.5794 9.43452 -4.9121e-06 -8.94964
190 1 1.57239 7.86209 11.0069 -8.94968
49 1 18.8691 9.43453 -7.50631e-08 -8.94963
50 1 22.0139 4.84604e-16 3.14484 -8.94963
51 1 1.57242 1.57242 4.71726 -8.94963
52 1 3.14484 1.30218e-15 3.14484 -8.94963
53 1 4.71726 1.57242 4.71726 -8.94963
54 1 6.28969 7.70748e-16 3.14484 -8.94963
55 1 7.86211 1.57242 4.71726 -8.94964
56 1 9.43453 2.34734e-16 3.14484 -8.94963
57 1 11.0069 1.57242 4.71727 -8.94964
58 1 12.5794 1.67016e-16 3.14484 -8.94963
59 1 14.1518 1.57242 4.71726 -8.94963
60 1 15.7242 -8.39615e-16 3.14484 -8.94963
61 1 17.2966 1.57242 4.71726 -8.94963
62 1 18.8691 6.7352e-16 3.14484 -8.94963
63 1 20.4415 1.57242 4.71726 -8.94963
64 1 5.89993e-08 3.14484 3.14484 -8.94963
65 1 1.57242 4.71727 4.71726 -8.94964
66 1 3.14484 3.14484 3.14484 -8.94963
67 1 4.71726 4.71726 4.71726 -8.94962
68 1 6.28969 3.14484 3.14484 -8.94964
69 1 7.86211 4.71727 4.71727 -8.94971
70 1 9.43453 3.14484 3.14484 -8.94963
71 1 11.0069 4.71727 4.71726 -8.94965
72 1 12.5794 3.14484 3.14484 -8.94964
73 1 14.1518 4.71726 4.71726 -8.94963
74 1 15.7242 3.14484 3.14484 -8.94963
75 1 17.2966 4.71726 4.71726 -8.94962
76 1 18.8691 3.14484 3.14484 -8.94963
77 1 20.4415 4.71726 4.71726 -8.94963
78 1 22.0139 6.28969 3.14484 -8.94963
79 1 1.57242 7.86211 4.71726 -8.94963
80 1 3.14484 6.28968 3.14484 -8.94962
81 1 4.71723 7.86207 4.71723 -8.94945
82 1 6.28968 6.28968 3.14484 -8.94963
83 1 7.86208 7.86208 4.71716 -8.94985
84 1 9.43453 6.28968 3.14485 -8.94964
85 1 11.0069 7.86219 4.71731 -8.95025
86 1 12.5794 6.28969 3.14485 -8.94971
87 1 14.1518 7.86205 4.7172 -8.94923
88 1 15.7242 6.28969 3.14484 -8.94961
89 1 17.2966 7.86211 4.71727 -8.94969
90 1 18.8691 6.28969 3.14484 -8.94964
91 1 20.4415 7.86211 4.71726 -8.94963
92 1 7.21909e-08 9.43453 3.14484 -8.94963
93 1 3.14485 9.43453 3.14485 -8.94965
94 1 6.28967 9.43452 3.14481 -8.94972
95 1 9.43444 9.43442 3.14473 -8.94904
96 1 12.5795 9.43443 3.14475 -8.94919
97 1 15.7242 9.43454 3.14486 -8.94971
98 1 18.8691 9.43453 3.14484 -8.94963
99 1 -1.80812e-08 1.07231e-15 6.28969 -8.94963
100 1 1.57242 1.57242 7.86211 -8.94963
101 1 3.14484 1.34775e-15 6.28969 -8.94963
102 1 4.71726 1.57242 7.86211 -8.94963
103 1 6.28969 1.36786e-15 6.28969 -8.94963
104 1 7.8621 1.57242 7.8621 -8.94964
105 1 9.43453 1.35597e-16 6.28969 -8.94963
106 1 11.007 1.57241 7.8621 -8.94964
107 1 12.5794 1.65327e-16 6.28969 -8.94963
108 1 14.1518 1.57242 7.86211 -8.94964
109 1 15.7242 1.02507e-15 6.28969 -8.94963
110 1 17.2966 1.57242 7.86211 -8.94963
111 1 18.8691 7.58887e-16 6.28969 -8.94963
112 1 20.4415 1.57242 7.86211 -8.94963
113 1 22.0139 3.14484 6.28969 -8.94963
114 1 1.57242 4.71726 7.86211 -8.94962
115 1 3.14484 3.14484 6.28969 -8.94964
116 1 4.71727 4.71728 7.86212 -8.94971
117 1 6.28968 3.14484 6.28968 -8.94961
118 1 7.86201 4.71718 7.862 -8.94919
119 1 9.43453 3.14485 6.28969 -8.94963
120 1 11.007 4.71716 7.86201 -8.94913
121 1 12.5794 3.14483 6.28968 -8.94962
122 1 14.1518 4.71723 7.8621 -8.94969
123 1 15.7242 3.14484 6.28968 -8.94963
124 1 17.2966 4.71727 7.86211 -8.94965
125 1 18.8691 3.14484 6.28969 -8.94963
126 1 20.4415 4.71726 7.86211 -8.94963
127 1 1.57136e-06 6.28969 6.28969 -8.94964
128 1 1.57243 7.86212 7.86212 -8.94968
129 1 3.14485 6.28969 6.28969 -8.94966
130 1 4.71726 7.86214 7.86212 -8.94977
131 1 6.28964 6.28963 6.28964 -8.94931
132 1 7.86115 7.8618 7.86054 -8.98499
133 1 9.43456 6.28974 6.28978 -8.95027
134 1 11.0079 7.86196 7.86163 -9.00341
135 1 12.5794 6.28957 6.28965 -8.94985
136 1 14.1523 7.86169 7.86181 -8.94827
137 1 15.7242 6.28966 6.28965 -8.94947
138 1 17.2967 7.86209 7.86209 -8.94968
139 1 18.8691 6.28968 6.28968 -8.94963
140 1 20.4415 7.86211 7.86211 -8.94964
141 1 22.0139 9.43453 6.28969 -8.94964
142 1 3.14481 9.43453 6.28969 -8.94977
143 1 6.28915 9.43415 6.2892 -8.94797
144 1 9.43368 9.43406 6.28947 -9.00265
145 1 12.5804 9.43289 6.28926 -8.98446
146 1 15.7242 9.4346 6.28977 -8.9502
147 1 18.8691 9.43453 6.28969 -8.94963
148 1 2.43911e-08 1.75603e-16 9.43453 -8.94963
149 1 3.14484 9.01588e-16 9.43453 -8.94963
150 1 6.28969 -7.09423e-16 9.43453 -8.94962
151 1 9.43453 6.90018e-17 9.43453 -8.94972
152 1 12.5794 1.20759e-15 9.43453 -8.94964
153 1 15.7242 1.14546e-15 9.43453 -8.94963
154 1 18.8691 1.06881e-15 9.43453 -8.94963
155 1 8.74126e-08 3.14484 9.43453 -8.94963
156 1 3.14484 3.14484 9.43453 -8.94963
157 1 6.28969 3.14485 9.43452 -8.94957
158 1 9.43453 3.14468 9.43453 -8.95054
159 1 12.5794 3.14482 9.43452 -8.94969
160 1 15.7242 3.14484 9.43453 -8.94963
161 1 18.8691 3.14484 9.43453 -8.94963
162 1 22.0139 6.28968 9.43453 -8.94963
163 1 3.14482 6.28966 9.4345 -8.94942
164 1 6.28985 6.28981 9.4345 -8.95059
177 1 4.71727 1.57242 11.0069 -8.94965
178 1 7.8621 1.57241 11.0069 -8.94963
181 1 17.2966 1.57242 11.007 -8.94963
184 1 4.71726 4.71725 11.0069 -8.9498
185 1 7.86191 4.71706 11.0069 -8.94859
188 1 17.2966 4.71727 11.0069 -8.94965
5 1 6.28969 -5.47877e-16 2.3532e-09 -8.94963
44 1 3.14484 9.43453 -1.25408e-06 -8.94963
176 1 1.57242 1.57242 11.007 -8.94963
343 1 18.8691 9.43453 18.8691 -8.94963
342 1 15.7242 9.43453 18.8691 -8.94965
179 1 11.007 1.57241 11.007 -8.94963
180 1 14.1518 1.57242 11.007 -8.94965
341 1 12.5794 9.43452 18.8691 -8.94972
182 1 20.4415 1.57242 11.007 -8.94963
183 1 1.57242 4.71727 11.007 -8.94965
340 1 9.43462 9.43442 18.8692 -8.94904
339 1 6.28959 9.43443 18.8692 -8.94919
186 1 11.0071 4.71706 11.007 -8.94859
187 1 14.1518 4.71725 11.007 -8.9498
338 1 3.14485 9.43454 18.869 -8.94971
189 1 20.4415 4.71726 11.007 -8.94963
337 1 22.0139 9.43453 18.8691 -8.94963
336 1 20.4415 7.86211 20.4415 -8.94963
335 1 18.8691 6.28969 18.8691 -8.94963
193 1 11.0089 7.8616 11.0057 -9.03796
194 1 14.1522 7.8618 11.0073 -8.94899
195 1 17.2967 7.86209 11.007 -8.94968
196 1 20.4415 7.86211 11.007 -8.94965
197 1 22.0139 1.08032e-15 12.5794 -8.94963
198 1 1.57242 1.57242 14.1518 -8.94963
199 1 3.14484 1.1999e-15 12.5794 -8.94963
200 1 4.71726 1.57242 14.1518 -8.94964
201 1 6.28969 9.05124e-16 12.5794 -8.94964
202 1 7.8621 1.57241 14.1518 -8.94964
203 1 9.43453 -1.10451e-16 12.5794 -8.94972
204 1 11.007 1.57242 14.1518 -8.94964
205 1 12.5794 -1.76695e-16 12.5794 -8.94962
206 1 14.1518 1.57242 14.1518 -8.94963
207 1 15.7242 8.18398e-16 12.5794 -8.94963
208 1 17.2966 1.57242 14.1518 -8.94963
209 1 18.8691 8.19082e-17 12.5794 -8.94963
210 1 20.4415 1.57242 14.1518 -8.94963
211 1 22.0139 3.14484 12.5794 -8.94963
212 1 1.57242 4.71727 14.1518 -8.94965
213 1 3.14484 3.14484 12.5794 -8.94963
214 1 4.71725 4.71723 14.1518 -8.94969
215 1 6.28969 3.14482 12.5794 -8.94969
216 1 7.86202 4.71716 14.1519 -8.94913
217 1 9.43453 3.14468 12.5794 -8.95054
218 1 11.007 4.71718 14.1519 -8.94919
219 1 12.5794 3.14485 12.5794 -8.94957
220 1 14.1518 4.71728 14.1518 -8.94971
221 1 15.7242 3.14484 12.5794 -8.94963
222 1 17.2966 4.71726 14.1518 -8.94962
223 1 18.8691 3.14484 12.5794 -8.94963
224 1 20.4415 4.71726 14.1518 -8.94963
225 1 2.02548e-07 6.28969 12.5794 -8.94962
226 1 1.57238 7.86209 14.1518 -8.94968
227 1 3.14485 6.2897 12.5794 -8.94965
228 1 4.7168 7.86169 14.1521 -8.94827
229 1 6.28959 6.28934 12.5794 -8.95043
230 1 7.86114 7.86196 14.1523 -9.00341
231 1 9.43454 6.28653 12.5793 -8.96041
232 1 11.0079 7.8618 14.1534 -8.98499
233 1 12.5792 6.28981 12.5794 -8.95059
234 1 14.1518 7.86214 14.1518 -8.94977
235 1 15.7242 6.28966 12.5794 -8.94942
236 1 17.2966 7.86212 14.1518 -8.94968
237 1 18.8691 6.28968 12.5794 -8.94963
238 1 20.4415 7.86211 14.1518 -8.94964
239 1 22.0139 9.43453 12.5794 -8.94976
240 1 3.14442 9.43449 12.5794 -8.95105
241 1 6.28426 9.43053 12.5797 -8.98274
242 1 9.45233 9.39623 12.5795 -9.27819
243 1 12.5796 9.43382 12.5798 -9.03437
244 1 15.7241 9.43459 12.5793 -8.94982
245 1 18.869 9.43453 12.5794 -8.94961
246 1 1.63835e-08 8.59495e-16 15.7242 -8.94963
247 1 1.57242 1.57242 17.2966 -8.94963
248 1 3.14484 1.27914e-15 15.7242 -8.94963
249 1 4.71726 1.57242 17.2966 -8.94963
250 1 6.28969 4.41454e-16 15.7242 -8.94963
251 1 7.86211 1.57242 17.2966 -8.94964
252 1 9.43453 8.38484e-17 15.7242 -8.94963
253 1 11.007 1.57242 17.2966 -8.94964
254 1 12.5794 1.33066e-15 15.7242 -8.94963
255 1 14.1518 1.57242 17.2966 -8.94963
256 1 15.7242 1.36817e-15 15.7242 -8.94963
257 1 17.2966 1.57242 17.2966 -8.94963
258 1 18.8691 1.35236e-15 15.7242 -8.94963
259 1 20.4415 1.57242 17.2966 -8.94963
260 1 1.85884e-07 3.14484 15.7242 -8.94963
261 1 1.57242 4.71726 17.2966 -8.94962
262 1 3.14484 3.14484 15.7242 -8.94963
263 1 4.71726 4.71726 17.2966 -8.94963
264 1 6.28968 3.14483 15.7242 -8.94962
265 1 7.86211 4.71727 17.2966 -8.94965
266 1 9.43453 3.14485 15.7242 -8.94963
267 1 11.0069 4.71727 17.2966 -8.94971
268 1 12.5794 3.14484 15.7242 -8.94961
269 1 14.1518 4.71726 17.2966 -8.94962
270 1 15.7242 3.14484 15.7242 -8.94964
271 1 17.2966 4.71727 17.2966 -8.94964
272 1 18.8691 3.14484 15.7242 -8.94963
273 1 20.4415 4.71726 17.2966 -8.94963
274 1 22.0139 6.28968 15.7242 -8.94963
275 1 1.57243 7.86211 17.2966 -8.94969
276 1 3.14481 6.28966 15.7242 -8.94947
277 1 4.71721 7.86205 17.2967 -8.94923
278 1 6.28965 6.28957 15.7242 -8.94985
279 1 7.86214 7.86219 17.2966 -8.95025
280 1 9.4345 6.28974 15.7241 -8.95027
281 1 11.007 7.86208 17.2967 -8.94985
282 1 12.5794 6.28963 15.7243 -8.94931
283 1 14.1518 7.86207 17.2967 -8.94945
284 1 15.7242 6.28969 15.7242 -8.94966
285 1 17.2966 7.86211 17.2966 -8.94963
286 1 18.8691 6.28969 15.7242 -8.94964
287 1 20.4415 7.86211 17.2966 -8.94963
288 1 6.39221e-06 9.43453 15.7242 -8.94963
289 1 3.14489 9.4346 15.7241 -8.9502
290 1 6.28868 9.43289 15.7246 -8.98446
291 1 9.43538 9.43406 15.7244 -9.00265
292 1 12.5799 9.43415 15.7247 -8.94797
293 1 15.7242 9.43453 15.7242 -8.94977
294 1 18.8691 9.43453 15.7242 -8.94964
295 1 22.0139 5.58231e-16 18.8691 -8.94963
296 1 1.57242 1.57242 20.4415 -8.94963
297 1 3.14484 -8.06383e-16 18.8691 -8.94963
298 1 4.71726 1.57242 20.4415 -8.94963
299 1 6.28969 5.71548e-17 18.8691 -8.94963
300 1 7.86211 1.57242 20.4415 -8.94963
301 1 9.43453 1.60093e-16 18.8691 -8.94963
302 1 11.007 1.57242 20.4415 -8.94963
303 1 12.5794 5.55893e-16 18.8691 -8.94963
304 1 14.1518 1.57242 20.4415 -8.94963
305 1 15.7242 1.19256e-15 18.8691 -8.94963
306 1 17.2966 1.57242 20.4415 -8.94963
307 1 18.8691 2.87385e-16 18.8691 -8.94963
308 1 20.4415 1.57242 20.4415 -8.94963
309 1 22.0139 3.14484 18.8691 -8.94963
310 1 1.57242 4.71726 20.4415 -8.94963
311 1 3.14484 3.14484 18.8691 -8.94963
312 1 4.71726 4.71726 20.4415 -8.94964
313 1 6.28969 3.14484 18.8691 -8.94964
314 1 7.86211 4.71726 20.4415 -8.94963
315 1 9.43453 3.14484 18.8691 -8.94963
316 1 11.007 4.71726 20.4415 -8.94964
317 1 12.5794 3.14484 18.8691 -8.94964
318 1 14.1518 4.71726 20.4415 -8.94963
319 1 15.7242 3.14484 18.8691 -8.94963
320 1 17.2966 4.71726 20.4415 -8.94963
321 1 18.8691 3.14484 18.8691 -8.94963
322 1 20.4415 4.71726 20.4415 -8.94963
323 1 6.84636e-07 6.28969 18.8691 -8.94964
324 1 1.57242 7.86211 20.4415 -8.94964
325 1 3.14484 6.28969 18.8691 -8.94961
326 1 4.71726 7.8621 20.4415 -8.9496
327 1 6.28969 6.28969 18.8691 -8.94971
328 1 7.86211 7.86211 20.4415 -8.94963
329 1 9.43452 6.28968 18.8691 -8.94964
330 1 11.007 7.8621 20.4415 -8.94961
331 1 12.5794 6.28968 18.8691 -8.94963
332 1 14.1518 7.86211 20.4415 -8.94963
333 1 15.7242 6.28968 18.8691 -8.94962
334 1 17.2966 7.86211 20.4415 -8.94963
45 1 6.28968 9.43452 22.0139 -8.94964
11 1 15.7242 2.92255e-16 22.0139 -8.94963
15 1 -1.1545e-09 3.14484 22.0139 -8.94963
19 1 6.28969 3.14484 22.0139 -8.94963
25 1 15.7242 3.14484 22.0139 -8.94963
31 1 3.14484 6.28969 22.0139 -8.94963
37 1 12.5794 6.28969 22.0139 -8.94963
41 1 18.8691 6.28969 22.0139 -8.94963
43 1 -6.46358e-08 9.43453 22.0139 -8.94963
1 1 1.82347e-09 3.9161e-16 22.0139 -8.94963
9 1 12.5794 -7.36886e-16 22.0139 -8.94963
48 1 15.7242 9.43453 22.0139 -8.94963
344 1 1.57242 11.007 1.57242 -8.94963
345 1 4.71726 11.007 1.57242 -8.94961
346 1 7.86211 11.007 1.57241 -8.94981
347 1 11.007 11.007 1.57225 -8.95055
348 1 14.1518 11.007 1.57244 -8.94958
349 1 17.2966 11.007 1.57242 -8.94963
350 1 20.4415 11.007 1.57242 -8.94963
688 2 10.2208 11.007 9.43433 0.88312
352 1 1.57242 14.1518 1.57242 -8.94963
511 1 18.8691 18.8691 9.43453 -8.94963
354 1 4.71726 14.1518 1.57242 -8.94963
510 1 15.7242 18.8691 9.43453 -8.94963
356 1 7.8621 14.1518 1.57241 -8.94961
357 1 9.43453 12.5794 7.16393e-16 -8.94963
358 1 11.007 14.1518 1.57243 -8.94963
359 1 12.5794 12.5794 -4.9121e-06 -8.94964
360 1 14.1518 14.1518 1.57241 -8.9496
538 1 17.2966 20.4415 11.007 -8.94963
362 1 17.2966 14.1518 1.57242 -8.94964
363 1 18.8691 12.5794 -7.50631e-08 -8.94963
364 1 20.4415 14.1518 1.57242 -8.94963
365 1 22.0139 15.7242 -4.10084e-08 -8.94963
366 1 1.57242 17.2966 1.57242 -8.94963
509 1 12.5794 18.8691 9.43452 -8.94969
368 1 4.71726 17.2966 1.57242 -8.94963
369 1 6.28969 15.7242 -1.00072e-06 -8.94963
370 1 7.86211 17.2966 1.57242 -8.94964
371 1 9.43453 15.7242 -2.56485e-16 -8.94964
372 1 11.007 17.2966 1.57242 -8.94963
508 1 9.43453 18.8692 9.43453 -8.95054
374 1 14.1518 17.2966 1.57242 -8.94964
375 1 15.7242 15.7242 -1.86777e-07 -8.94963
376 1 17.2966 17.2966 1.57242 -8.94963
507 1 6.28969 18.869 9.43452 -8.94957
378 1 20.4415 17.2966 1.57242 -8.94963
506 1 3.14484 18.8691 9.43453 -8.94963
380 1 1.57242 20.4415 1.57242 -8.94963
381 1 3.14484 18.8691 2.1254e-08 -8.94963
382 1 4.71726 20.4415 1.57242 -8.94963
505 1 8.74126e-08 18.8691 9.43453 -8.94963
384 1 7.86211 20.4415 1.57242 -8.94963
385 1 9.43453 18.8691 7.45099e-16 -8.94963
386 1 11.007 20.4415 1.57242 -8.94963
387 1 12.5794 18.8691 -2.25208e-08 -8.94963
388 1 14.1518 20.4415 1.57242 -8.94963
504 1 18.8691 15.7242 9.43453 -8.94962
390 1 17.2966 20.4415 1.57242 -8.94963
391 1 18.8691 18.8691 -6.61584e-11 -8.94963
392 1 20.4415 20.4415 1.57242 -8.94963
393 1 1.57242 11.007 4.71726 -8.94962
394 1 4.71727 11.007 4.71728 -8.94956
395 1 7.86207 11.007 4.71681 -8.95171
396 1 11.0069 11.007 4.71404 -8.95986
397 1 14.1516 11.007 4.7175 -8.95035
398 1 17.2966 11.007 4.71726 -8.94957
399 1 20.4415 11.007 4.71726 -8.94963
400 1 7.21909e-08 12.5794 3.14484 -8.94963
401 1 1.57242 14.1518 4.71726 -8.94963
402 1 3.14485 12.5794 3.14485 -8.94965
403 1 4.71723 14.1518 4.71723 -8.94945
404 1 6.28967 12.5794 3.14481 -8.94972
405 1 7.86208 14.1518 4.71716 -8.94985
406 1 9.43444 12.5795 3.14473 -8.94904
407 1 11.0069 14.1517 4.71731 -8.95025
408 1 12.5795 12.5795 3.14475 -8.94919
409 1 14.1518 14.1518 4.7172 -8.94923
410 1 15.7242 12.5794 3.14486 -8.94971
411 1 17.2966 14.1518 4.71727 -8.94969
412 1 18.8691 12.5794 3.14484 -8.94963
413 1 20.4415 14.1518 4.71726 -8.94963
414 1 22.0139 15.7242 3.14484 -8.94963
415 1 1.57242 17.2966 4.71726 -8.94964
416 1 3.14484 15.7242 3.14484 -8.94962
417 1 4.71726 17.2966 4.71726 -8.94962
418 1 6.28968 15.7242 3.14484 -8.94963
419 1 7.86211 17.2966 4.71727 -8.94971
420 1 9.43453 15.7242 3.14485 -8.94964
421 1 11.0069 17.2966 4.71726 -8.94965
422 1 12.5794 15.7242 3.14485 -8.94971
423 1 14.1518 17.2966 4.71726 -8.94963
424 1 15.7242 15.7242 3.14484 -8.94961
425 1 17.2966 17.2966 4.71726 -8.94962
426 1 18.8691 15.7242 3.14484 -8.94964
427 1 20.4415 17.2966 4.71726 -8.94963
428 1 5.89993e-08 18.8691 3.14484 -8.94963
429 1 1.57242 20.4415 4.71726 -8.94963
430 1 3.14484 18.8691 3.14484 -8.94963
431 1 4.71726 20.4415 4.71726 -8.94963
432 1 6.28969 18.8691 3.14484 -8.94964
433 1 7.86211 20.4415 4.71726 -8.94964
434 1 9.43453 18.8691 3.14484 -8.94963
435 1 11.0069 20.4415 4.71727 -8.94964
436 1 12.5794 18.8691 3.14484 -8.94964
437 1 14.1518 20.4415 4.71726 -8.94963
438 1 15.7242 18.8691 3.14484 -8.94963
439 1 17.2966 20.4415 4.71726 -8.94963
440 1 18.8691 18.8691 3.14484 -8.94963
441 1 20.4415 20.4415 4.71726 -8.94963
442 1 1.57241 11.007 7.86211 -8.9497
443 1 4.71707 11.007 7.86232 -8.95175
444 1 7.85707 11.007 7.85521 -8.99434
445 1 11.0257 11.007 7.82398 -9.22614
446 1 14.151 11.007 7.86306 -8.99978
447 1 17.2966 11.007 7.86209 -8.94927
448 1 20.4415 11.007 7.86211 -8.94962
449 1 22.0139 12.5794 6.28969 -8.94964
450 1 1.57243 14.1518 7.86212 -8.94968
451 1 3.14481 12.5794 6.28969 -8.94977
452 1 4.71726 14.1518 7.86212 -8.94977
453 1 6.28915 12.5797 6.2892 -8.94797
454 1 7.86115 14.1521 7.86054 -8.98499
455 1 9.43368 12.5798 6.28947 -9.00265
456 1 11.0079 14.1519 7.86163 -9.00341
457 1 12.5804 12.581 6.28926 -8.98446
458 1 14.1523 14.1522 7.86181 -8.94827
459 1 15.7242 12.5793 6.28977 -8.9502
460 1 17.2967 14.1518 7.86209 -8.94968
461 1 18.8691 12.5794 6.28969 -8.94963
462 1 20.4415 14.1518 7.86211 -8.94964
463 1 1.57136e-06 15.7242 6.28969 -8.94964
464 1 1.57242 17.2966 7.86211 -8.94962
465 1 3.14485 15.7242 6.28969 -8.94966
466 1 4.71727 17.2966 7.86212 -8.94971
467 1 6.28964 15.7243 6.28964 -8.94931
468 1 7.86201 17.2967 7.862 -8.94919
469 1 9.43456 15.7242 6.28978 -8.95027
470 1 11.007 17.2967 7.86201 -8.94913
471 1 12.5794 15.7243 6.28965 -8.94985
472 1 14.1518 17.2967 7.8621 -8.94969
473 1 15.7242 15.7242 6.28965 -8.94947
474 1 17.2966 17.2966 7.86211 -8.94965
475 1 18.8691 15.7242 6.28968 -8.94963
476 1 20.4415 17.2966 7.86211 -8.94963
477 1 22.0139 18.8691 6.28969 -8.94963
478 1 1.57242 20.4415 7.86211 -8.94963
479 1 3.14484 18.8691 6.28969 -8.94964
480 1 4.71726 20.4415 7.86211 -8.94963
481 1 6.28968 18.8691 6.28968 -8.94961
482 1 7.8621 20.4415 7.8621 -8.94964
483 1 9.43453 18.8691 6.28969 -8.94963
484 1 11.007 20.4415 7.8621 -8.94964
485 1 12.5794 18.8691 6.28968 -8.94962
486 1 14.1518 20.4415 7.86211 -8.94964
487 1 15.7242 18.8691 6.28968 -8.94963
488 1 17.2966 20.4415 7.86211 -8.94963
489 1 18.8691 18.8691 6.28969 -8.94963
490 1 20.4415 20.4415 7.86211 -8.94963
491 1 9.0871e-06 12.5794 9.43453 -8.94961
492 1 3.14493 12.5793 9.43461 -8.94982
493 1 6.28943 12.5801 9.43408 -9.03437
494 1 9.41672 12.6177 9.43443 -9.27819
495 1 12.5848 12.5834 9.43416 -8.98274
496 1 15.7246 12.5794 9.43451 -8.95105
497 1 18.8691 12.5794 9.43453 -8.94976
498 1 22.0139 15.7242 9.43453 -8.94963
499 1 3.14482 15.7242 9.4345 -8.94942
500 1 6.28985 15.7241 9.4345 -8.95059
501 1 9.43452 15.7274 9.43462 -8.96041
502 1 12.5795 15.7246 9.43448 -8.95043
503 1 15.7242 15.7242 9.43454 -8.94965
512 1 1.57245 11.007 11.0069 -8.94942
514 1 7.83814 11.007 10.9727 -9.26021
516 1 14.1515 11.007 11.006 -9.00109
519 1 1.57239 14.1518 11.0069 -8.94968
520 1 4.71687 14.1521 11.0066 -8.94899
521 1 7.86018 14.1523 11.0082 -9.03796
527 1 4.71726 17.2967 11.0069 -8.9498
528 1 7.86191 17.2968 11.0069 -8.94859
531 1 17.2966 17.2966 11.0069 -8.94965
534 1 4.71727 20.4415 11.0069 -8.94965
535 1 7.8621 20.4415 11.0069 -8.94963
353 1 3.14484 12.5794 -1.25408e-06 -8.94963
687 2 8.64829 11.007 12.5796 0.88312
513 1 4.71758 11.007 11.0079 -9.00109
686 1 20.4415 20.4415 20.4415 -8.94963
515 1 11.0309 11.007 11.0412 -9.26021
685 1 18.8691 18.8691 18.8691 -8.94963
517 1 17.2966 11.007 11.007 -8.94942
518 1 20.4415 11.007 11.007 -8.94961
684 1 17.2966 20.4415 20.4415 -8.94963
683 1 15.7242 18.8691 18.8691 -8.94963
682 1 14.1518 20.4415 20.4415 -8.94963
522 1 11.0089 14.1523 11.0057 -9.03796
523 1 14.1522 14.1521 11.0073 -8.94899
524 1 17.2967 14.1518 11.007 -8.94968
525 1 20.4415 14.1518 11.007 -8.94965
526 1 1.57242 17.2966 11.007 -8.94965
681 1 12.5794 18.8691 18.8691 -8.94964
680 1 11.007 20.4415 20.4415 -8.94963
529 1 11.0071 17.2968 11.007 -8.94859
530 1 14.1518 17.2967 11.007 -8.9498
679 1 9.43453 18.8691 18.8691 -8.94963
532 1 20.4415 17.2966 11.007 -8.94963
533 1 1.57242 20.4415 11.007 -8.94963
678 1 7.86211 20.4415 20.4415 -8.94963
677 1 6.28969 18.8691 18.8691 -8.94964
536 1 11.007 20.4415 11.007 -8.94963
537 1 14.1518 20.4415 11.007 -8.94965
676 1 4.71726 20.4415 20.4415 -8.94963
539 1 20.4415 20.4415 11.007 -8.94963
540 1 1.57247 11.007 14.1518 -8.94927
541 1 4.71802 11.007 14.1508 -8.99978
542 1 7.84339 11.007 14.1899 -9.22614
543 1 11.012 11.007 14.1587 -8.99434
544 1 14.152 11.007 14.1516 -8.95175
545 1 17.2966 11.007 14.1518 -8.9497
546 1 20.4415 11.007 14.1518 -8.94962
547 1 22.0139 12.5794 12.5794 -8.94976
548 1 1.57238 14.1518 14.1518 -8.94968
549 1 3.14442 12.5794 12.5794 -8.95105
550 1 4.7168 14.1522 14.1521 -8.94827
551 1 6.28426 12.5834 12.5797 -8.98274
552 1 7.86114 14.1519 14.1523 -9.00341
553 1 9.45233 12.6177 12.5795 -9.27819
554 1 11.0079 14.1521 14.1534 -8.98499
555 1 12.5796 12.5801 12.5798 -9.03437
556 1 14.1518 14.1518 14.1518 -8.94977
557 1 15.7241 12.5793 12.5793 -8.94982
558 1 17.2966 14.1518 14.1518 -8.94968
559 1 18.869 12.5794 12.5794 -8.94961
560 1 20.4415 14.1518 14.1518 -8.94964
561 1 2.02548e-07 15.7242 12.5794 -8.94962
562 1 1.57242 17.2966 14.1518 -8.94965
563 1 3.14485 15.7242 12.5794 -8.94965
564 1 4.71725 17.2967 14.1518 -8.94969
565 1 6.28959 15.7246 12.5794 -8.95043
566 1 7.86202 17.2967 14.1519 -8.94913
567 1 9.43454 15.7274 12.5793 -8.96041
568 1 11.007 17.2967 14.1519 -8.94919
569 1 12.5792 15.7241 12.5794 -8.95059
570 1 14.1518 17.2966 14.1518 -8.94971
571 1 15.7242 15.7242 12.5794 -8.94942
572 1 17.2966 17.2966 14.1518 -8.94962
573 1 18.8691 15.7242 12.5794 -8.94963
574 1 20.4415 17.2966 14.1518 -8.94963
575 1 22.0139 18.8691 12.5794 -8.94963
576 1 1.57242 20.4415 14.1518 -8.94963
577 1 3.14484 18.8691 12.5794 -8.94963
578 1 4.71726 20.4415 14.1518 -8.94964
579 1 6.28969 18.8691 12.5794 -8.94969
580 1 7.8621 20.4415 14.1518 -8.94964
581 1 9.43453 18.8692 12.5794 -8.95054
582 1 11.007 20.4415 14.1518 -8.94964
583 1 12.5794 18.869 12.5794 -8.94957
584 1 14.1518 20.4415 14.1518 -8.94963
585 1 15.7242 18.8691 12.5794 -8.94963
586 1 17.2966 20.4415 14.1518 -8.94963
587 1 18.8691 18.8691 12.5794 -8.94963
588 1 20.4415 20.4415 14.1518 -8.94963
589 1 1.57243 11.007 17.2966 -8.94957
590 1 4.71745 11.007 17.2964 -8.95035
591 1 7.86213 11.007 17.2999 -8.95986
592 1 11.007 11.007 17.2971 -8.95171
593 1 14.1518 11.007 17.2966 -8.94956
594 1 17.2966 11.007 17.2966 -8.94962
595 1 20.4415 11.007 17.2966 -8.94963
596 1 6.39221e-06 12.5794 15.7242 -8.94963
597 1 1.57243 14.1518 17.2966 -8.94969
598 1 3.14489 12.5793 15.7241 -8.9502
599 1 4.71721 14.1518 17.2967 -8.94923
600 1 6.28868 12.581 15.7246 -8.98446
601 1 7.86214 14.1517 17.2966 -8.95025
602 1 9.43538 12.5798 15.7244 -9.00265
603 1 11.007 14.1518 17.2967 -8.94985
604 1 12.5799 12.5797 15.7247 -8.94797
605 1 14.1518 14.1518 17.2967 -8.94945
606 1 15.7242 12.5794 15.7242 -8.94977
607 1 17.2966 14.1518 17.2966 -8.94963
608 1 18.8691 12.5794 15.7242 -8.94964
609 1 20.4415 14.1518 17.2966 -8.94963
610 1 22.0139 15.7242 15.7242 -8.94963
611 1 1.57242 17.2966 17.2966 -8.94962
612 1 3.14481 15.7242 15.7242 -8.94947
613 1 4.71726 17.2966 17.2966 -8.94963
614 1 6.28965 15.7243 15.7242 -8.94985
615 1 7.86211 17.2966 17.2966 -8.94965
616 1 9.4345 15.7242 15.7241 -8.95027
617 1 11.0069 17.2966 17.2966 -8.94971
618 1 12.5794 15.7243 15.7243 -8.94931
619 1 14.1518 17.2966 17.2966 -8.94962
620 1 15.7242 15.7242 15.7242 -8.94966
621 1 17.2966 17.2966 17.2966 -8.94964
622 1 18.8691 15.7242 15.7242 -8.94964
623 1 20.4415 17.2966 17.2966 -8.94963
624 1 1.85884e-07 18.8691 15.7242 -8.94963
625 1 1.57242 20.4415 17.2966 -8.94963
626 1 3.14484 18.8691 15.7242 -8.94963
627 1 4.71726 20.4415 17.2966 -8.94963
628 1 6.28968 18.8691 15.7242 -8.94962
629 1 7.86211 20.4415 17.2966 -8.94964
630 1 9.43453 18.8691 15.7242 -8.94963
631 1 11.007 20.4415 17.2966 -8.94964
632 1 12.5794 18.8691 15.7242 -8.94961
633 1 14.1518 20.4415 17.2966 -8.94963
634 1 15.7242 18.8691 15.7242 -8.94964
635 1 17.2966 20.4415 17.2966 -8.94963
636 1 18.8691 18.8691 15.7242 -8.94963
637 1 20.4415 20.4415 17.2966 -8.94963
638 1 1.57242 11.007 20.4415 -8.94963
639 1 4.71727 11.007 20.4415 -8.94958
640 1 7.86211 11.007 20.4416 -8.95055
641 1 11.0069 11.007 20.4415 -8.94981
642 1 14.1518 11.007 20.4415 -8.94961
643 1 17.2966 11.007 20.4415 -8.94963
644 1 20.4415 11.007 20.4415 -8.94963
645 1 22.0139 12.5794 18.8691 -8.94963
646 1 1.57242 14.1518 20.4415 -8.94964
647 1 3.14485 12.5794 18.869 -8.94971
648 1 4.71726 14.1518 20.4415 -8.9496
649 1 6.28959 12.5795 18.8692 -8.94919
650 1 7.86211 14.1518 20.4415 -8.94963
651 1 9.43462 12.5795 18.8692 -8.94904
652 1 11.007 14.1518 20.4415 -8.94961
653 1 12.5794 12.5794 18.8691 -8.94972
654 1 14.1518 14.1518 20.4415 -8.94963
655 1 15.7242 12.5794 18.8691 -8.94965
656 1 17.2966 14.1518 20.4415 -8.94963
657 1 18.8691 12.5794 18.8691 -8.94963
658 1 20.4415 14.1518 20.4415 -8.94963
659 1 6.84636e-07 15.7242 18.8691 -8.94964
660 1 1.57242 17.2966 20.4415 -8.94963
661 1 3.14484 15.7242 18.8691 -8.94961
662 1 4.71726 17.2966 20.4415 -8.94964
663 1 6.28969 15.7242 18.8691 -8.94971
664 1 7.86211 17.2966 20.4415 -8.94963
665 1 9.43452 15.7242 18.8691 -8.94964
666 1 11.007 17.2966 20.4415 -8.94964
667 1 12.5794 15.7242 18.8691 -8.94963
668 1 14.1518 17.2966 20.4415 -8.94963
669 1 15.7242 15.7242 18.8691 -8.94962
670 1 17.2966 17.2966 20.4415 -8.94963
671 1 18.8691 15.7242 18.8691 -8.94963
672 1 20.4415 17.2966 20.4415 -8.94963
673 1 22.0139 18.8691 18.8691 -8.94963
674 1 1.57242 20.4415 20.4415 -8.94963
675 1 3.14484 18.8691 18.8691 -8.94963
351 1 -6.46358e-08 12.5794 22.0139 -8.94963
389 1 15.7242 18.8691 22.0139 -8.94963
355 1 6.28968 12.5794 22.0139 -8.94964
367 1 3.14484 15.7242 22.0139 -8.94963
373 1 12.5794 15.7242 22.0139 -8.94963
377 1 18.8691 15.7242 22.0139 -8.94963
379 1 -1.1545e-09 18.8691 22.0139 -8.94963
383 1 6.28969 18.8691 22.0139 -8.94963
361 1 15.7242 12.5794 22.0139 -8.94963
