ITEM: TIMESTEP
76
ITEM: NUMBER OF ATOMS
688
ITEM: BOX BOUNDS pp pp pp
0.0000000000000000e+00 2.2013900999999997e+01
0.0000000000000000e+00 2.2013900999999997e+01
0.0000000000000000e+00 2.2013900999999997e+01
ITEM: ATOMS id type x y z c_pot
192 1 7.85514 7.85318 11.0094 -9.03143
2 1 1.57213 1.57226 1.57228 -8.94953
3 1 3.14458 3.4999e-14 -3.18055e-07 -8.94962
4 1 4.71698 1.5722 1.57221 -8.94964
175 1 18.8693 9.4345 9.43447 -8.94982
6 1 7.862 1.57219 1.57221 -8.94962
7 1 9.43453 -4.83773e-15 1.92562e-14 -8.94962
8 1 11.0071 1.57219 1.57221 -8.94961
191 1 4.71493 7.86017 11.0064 -8.95037
10 1 14.1521 1.5722 1.57222 -8.94963
174 1 15.7253 9.43418 9.4343 -8.95095
12 1 17.2969 1.57225 1.57227 -8.94954
13 1 18.8692 2.36339e-14 -9.29728e-06 -8.94952
14 1 20.4415 1.57231 1.57234 -8.94953
173 1 12.5846 9.42919 9.43327 -8.9833
16 1 1.57197 4.71689 1.57227 -8.94952
17 1 3.14446 3.14449 5.18137e-08 -8.9496
18 1 4.71672 4.71667 1.57206 -8.94957
172 1 9.41492 9.37864 9.43197 -9.262
20 1 7.8619 4.71659 1.57204 -8.94963
21 1 9.43453 3.14442 -1.84173e-14 -8.9496
22 1 11.0071 4.7166 1.57203 -8.9496
23 1 12.5796 3.14443 1.34408e-06 -8.94963
24 1 14.1523 4.71664 1.57209 -8.94968
171 1 6.28631 9.42961 9.42892 -9.03256
26 1 17.2971 4.71686 1.57218 -8.94944
27 1 18.8693 3.14462 -9.35327e-06 -8.94951
28 1 20.4415 4.71706 1.57232 -8.94962
29 1 22.0137 6.28949 1.03361e-05 -8.94962
30 1 1.57195 7.86189 1.57227 -8.94958
170 1 3.144 9.43434 9.43419 -8.95064
32 1 4.71643 7.86154 1.57205 -8.94975
33 1 6.28915 6.28896 -1.5724e-05 -8.94959
34 1 7.86156 7.8612 1.57154 -8.94955
35 1 9.43453 6.28892 5.07308e-15 -8.94956
36 1 11.0073 7.86131 1.57156 -8.94952
169 1 -0.000240495 9.43449 9.43446 -8.94967
38 1 14.1528 7.86132 1.57153 -8.94949
39 1 15.7249 6.28915 -0.000137906 -8.94954
40 1 17.2971 7.86189 1.57222 -8.94966
168 1 18.8694 6.28942 9.43446 -8.94968
42 1 20.4415 7.86199 1.57233 -8.94961
167 1 15.7253 6.28881 9.43432 -8.94948
166 1 12.5814 6.28579 9.43269 -8.94842
165 1 9.4339 6.27622 9.43387 -8.96528
46 1 9.43453 9.4339 8.97935e-15 -8.94987
47 1 12.5801 9.43409 -0.00040065 -8.94998
190 1 1.5717 7.86177 11.0069 -8.95001
49 1 18.8693 9.43446 -7.10051e-06 -8.9496
50 1 22.0137 -1.42875e-14 3.14468 -8.94958
51 1 1.57203 1.57223 4.71698 -8.94959
52 1 3.14444 -1.64705e-14 3.1445 -8.94953
53 1 4.71666 1.57202 4.71666 -8.94954
54 1 6.28944 3.12419e-15 3.14445 -8.94962
55 1 7.8619 1.572 4.71666 -8.94959
56 1 9.43453 3.11059e-14 3.14446 -8.94961
57 1 11.0072 1.572 4.71665 -8.94958
58 1 12.5796 -1.1487e-15 3.14446 -8.94962
59 1 14.1524 1.57202 4.71669 -8.94962
60 1 15.7246 -2.66119e-14 3.14452 -8.94958
61 1 17.297 1.57223 4.71698 -8.94953
62 1 18.8692 -1.15475e-14 3.14468 -8.94955
63 1 20.4415 1.5723 4.71711 -8.94959
64 1 -0.000238564 3.1446 3.14465 -8.94954
65 1 1.57178 4.71679 4.71684 -8.94951
66 1 3.14429 3.14438 3.14441 -8.94946
67 1 4.71623 4.71617 4.71624 -8.94909
68 1 6.28932 3.14428 3.1443 -8.9497
69 1 7.86176 4.7161 4.7162 -8.9499
70 1 9.43452 3.14424 3.14431 -8.94959
71 1 11.0073 4.71612 4.71619 -8.94953
72 1 12.5797 3.14427 3.14431 -8.94964
73 1 14.1528 4.7161 4.71627 -8.94954
74 1 15.7248 3.14435 3.14441 -8.94953
75 1 17.2972 4.71685 4.7169 -8.94956
76 1 18.8693 3.14462 3.14466 -8.94958
77 1 20.4415 4.71703 4.71706 -8.94965
78 1 22.0136 6.28946 3.14464 -8.94965
79 1 1.57176 7.86185 4.71686 -8.9497
80 1 3.144 6.28907 3.14426 -8.94948
81 1 4.71578 7.86099 4.71567 -8.94917
82 1 6.28888 6.28868 3.14369 -8.94959
83 1 7.86107 7.86034 4.71434 -8.95013
84 1 9.43451 6.28862 3.14382 -8.9495
85 1 11.0074 7.8608 4.71475 -8.95004
86 1 12.58 6.28871 3.14382 -8.94992
87 1 14.1539 7.86018 4.71499 -8.94763
88 1 15.7252 6.2889 3.14407 -8.94903
89 1 17.2973 7.86183 4.71689 -8.94999
90 1 18.8694 6.28945 3.14462 -8.94969
91 1 20.4415 7.86198 4.71708 -8.94971
92 1 -0.000272861 9.43445 3.14464 -8.9496
93 1 3.14408 9.43433 3.14433 -8.9495
94 1 6.28874 9.43401 3.14327 -8.95026
95 1 9.43393 9.43314 3.14188 -8.9483
96 1 12.581 9.43321 3.14187 -8.94915
97 1 15.725 9.43434 3.1443 -8.94971
98 1 18.8693 9.43446 3.14464 -8.9496
99 1 -0.000203214 2.01589e-14 6.28952 -8.9496
100 1 1.57198 1.57223 7.86191 -8.9496
101 1 3.14429 1.62311e-15 6.2893 -8.94955
102 1 4.71647 1.57191 7.86162 -8.9495
103 1 6.2891 -1.14893e-14 6.28902 -8.94972
104 1 7.86159 1.57141 7.86139 -8.94992
105 1 9.43453 -2.00977e-14 6.28904 -8.94961
106 1 11.0074 1.57145 7.86139 -8.94974
107 1 12.5799 9.78687e-16 6.28904 -8.94969
108 1 14.1526 1.57188 7.86158 -8.94955
109 1 15.7248 2.08135e-14 6.28929 -8.94954
110 1 17.2971 1.57223 7.86192 -8.9496
111 1 18.8693 1.30542e-14 6.28952 -8.9496
112 1 20.4415 1.57231 7.862 -8.94961
113 1 22.0136 3.1446 6.28949 -8.9496
114 1 1.57178 4.7168 7.86183 -8.94955
115 1 3.1441 3.14428 6.2892 -8.94961
116 1 4.71604 4.71589 7.86129 -8.94969
117 1 6.28876 3.14352 6.28862 -8.9495
118 1 7.86063 4.71361 7.86018 -8.94904
119 1 9.43454 3.14354 6.28882 -8.94945
120 1 11.0082 4.71407 7.86036 -8.94848
121 1 12.5802 3.14359 6.2887 -8.94964
122 1 14.1531 4.71573 7.86124 -8.94928
123 1 15.725 3.14424 6.28918 -8.94946
124 1 17.2973 4.71682 7.86186 -8.94968
125 1 18.8693 3.1446 6.28949 -8.94963
126 1 20.4415 4.71702 7.86198 -8.94965
127 1 -0.000371622 6.28943 6.28945 -8.94979
128 1 1.57166 7.86182 7.86183 -8.95011
129 1 3.14353 6.28874 6.28875 -8.94939
130 1 4.7147 7.85996 7.85994 -8.94927
131 1 6.28752 6.287 6.28708 -8.94776
132 1 7.85751 7.85566 7.85505 -8.98076
133 1 9.43477 6.28719 6.28818 -8.94987
134 1 11.0103 7.85759 7.85734 -9.00126
135 1 12.581 6.28702 6.28754 -8.95013
136 1 14.154 7.8601 7.86095 -8.94839
137 1 15.7254 6.28885 6.28895 -8.94929
138 1 17.2974 7.86175 7.86185 -8.94989
139 1 18.8694 6.28942 6.28947 -8.94968
140 1 20.4415 7.86198 7.86199 -8.94979
141 1 22.0136 9.43446 6.28946 -8.94969
142 1 3.14376 9.43429 6.28892 -8.94997
143 1 6.2868 9.43264 6.28524 -8.94818
144 1 9.43308 9.43077 6.28461 -8.99977
145 1 12.5841 9.42917 6.28375 -8.98075
146 1 15.7252 9.43439 6.28917 -8.95127
147 1 18.8693 9.43449 6.28951 -8.94974
148 1 -0.000209191 -1.57492e-14 9.43446 -8.9496
149 1 3.14424 -4.71775e-15 9.43439 -8.94959
150 1 6.28891 1.92853e-14 9.43417 -8.94964
151 1 9.43453 -7.24369e-15 9.43417 -8.95053
152 1 12.5801 -7.13826e-15 9.43414 -8.94971
153 1 15.7248 1.2941e-14 9.43439 -8.94957
154 1 18.8693 8.64445e-15 9.43447 -8.94959
155 1 -0.000256377 3.1446 9.43445 -8.94962
156 1 3.14407 3.14425 9.43433 -8.94962
157 1 6.2886 3.14306 9.43393 -8.9492
158 1 9.43447 3.14127 9.43406 -8.95252
159 1 12.5805 3.14299 9.43384 -8.94941
160 1 15.725 3.14426 9.43437 -8.9496
161 1 18.8693 3.14461 9.43446 -8.94962
162 1 22.0136 6.2894 9.43442 -8.94968
163 1 3.14369 6.28876 9.43406 -8.94913
164 1 6.28818 6.28638 9.43315 -8.94986
177 1 4.71647 1.57191 11.007 -8.94954
178 1 7.86143 1.57096 11.007 -8.95013
181 1 17.2971 1.57223 11.007 -8.94958
184 1 4.71609 4.71592 11.0069 -8.95003
185 1 7.85989 4.7119 11.0071 -8.94771
188 1 17.2972 4.71683 11.007 -8.9496
5 1 6.28953 2.37766e-14 5.94453e-08 -8.94962
44 1 3.14418 9.43435 8.82663e-05 -8.9495
176 1 1.57198 1.57223 11.0069 -8.94958
343 1 18.8693 9.43445 18.8693 -8.9496
342 1 15.725 9.43433 18.8696 -8.9495
179 1 11.0076 1.57096 11.0069 -8.95013
180 1 14.1526 1.57191 11.0069 -8.94954
341 1 12.5803 9.43401 18.8706 -8.95026
182 1 20.4415 1.57231 11.007 -8.94961
183 1 1.57183 4.71683 11.0069 -8.9496
340 1 9.43513 9.43314 18.872 -8.9483
339 1 6.28807 9.43321 18.872 -8.94915
186 1 11.0092 4.7119 11.0068 -8.94771
187 1 14.153 4.71592 11.007 -8.95003
338 1 3.14408 9.43434 18.8696 -8.94971
189 1 20.4415 4.71702 11.007 -8.94962
337 1 22.0136 9.43446 18.8693 -8.9496
336 1 20.4415 7.86199 20.4416 -8.94961
335 1 18.8693 6.28946 18.8693 -8.94965
193 1 11.0139 7.85318 11.0045 -9.03143
194 1 14.1541 7.86017 11.0075 -8.95037
195 1 17.2974 7.86177 11.007 -8.95001
196 1 20.4415 7.86198 11.007 -8.94978
197 1 22.0137 -2.15541e-14 12.5794 -8.94959
198 1 1.57197 1.57223 14.152 -8.9496
199 1 3.14424 2.10952e-14 12.5795 -8.94957
200 1 4.71646 1.57188 14.1523 -8.94955
201 1 6.28893 -2.68952e-14 12.5798 -8.94971
202 1 7.86165 1.57145 14.1525 -8.94974
203 1 9.43453 -1.39544e-14 12.5797 -8.95053
204 1 11.0075 1.57141 14.1525 -8.94992
205 1 12.5801 4.31318e-14 12.5797 -8.94964
206 1 14.1526 1.57191 14.1523 -8.9495
207 1 15.7248 -2.64391e-14 12.5795 -8.94959
208 1 17.2971 1.57223 14.152 -8.9496
209 1 18.8693 4.90934e-16 12.5794 -8.9496
210 1 20.4415 1.57231 14.1519 -8.94961
211 1 22.0136 3.14461 12.5794 -8.94962
212 1 1.57179 4.71682 14.152 -8.94968
213 1 3.14408 3.14426 12.5795 -8.9496
214 1 4.71593 4.71573 14.1527 -8.94928
215 1 6.28859 3.14299 12.5801 -8.94941
216 1 7.8609 4.71407 14.1535 -8.94848
217 1 9.43459 3.14127 12.5798 -8.95252
218 1 11.0084 4.71361 14.1537 -8.94904
219 1 12.5805 3.14306 12.58 -8.9492
220 1 14.153 4.71589 14.1526 -8.94969
221 1 15.725 3.14425 12.5796 -8.94962
222 1 17.2973 4.7168 14.1521 -8.94955
223 1 18.8693 3.1446 12.5794 -8.94962
224 1 20.4415 4.71702 14.1519 -8.94965
225 1 -0.000340749 6.28942 12.5794 -8.94968
226 1 1.57164 7.86175 14.1521 -8.94989
227 1 3.14374 6.28881 12.5796 -8.94948
228 1 4.71507 7.8601 14.1529 -8.94839
229 1 6.28762 6.28579 12.5812 -8.94842
230 1 7.85873 7.85759 14.1566 -9.00126
231 1 9.43516 6.27622 12.58 -8.96528
232 1 11.0115 7.85566 14.1589 -8.98076
233 1 12.5809 6.28638 12.5807 -8.94986
234 1 14.1544 7.85996 14.154 -8.94927
235 1 15.7254 6.28876 12.5798 -8.94913
236 1 17.2974 7.86182 14.1521 -8.95011
237 1 18.8694 6.2894 12.5795 -8.94968
238 1 20.4415 7.86198 14.1519 -8.94979
239 1 22.0136 9.4345 12.5794 -8.94982
240 1 3.14376 9.43418 12.5796 -8.95095
241 1 6.28443 9.42919 12.5806 -8.9833
242 1 9.45414 9.37864 12.5819 -9.262
243 1 12.5827 9.42961 12.585 -9.03256
244 1 15.7251 9.43434 12.5797 -8.95064
245 1 18.8693 9.43449 12.5794 -8.94967
246 1 -0.000212007 -7.87712e-15 15.7244 -8.9496
247 1 1.57202 1.57223 17.2969 -8.94953
248 1 3.14426 4.27237e-14 15.7246 -8.94954
249 1 4.7167 1.57202 17.2972 -8.94962
250 1 6.28915 4.03597e-14 15.7249 -8.94969
251 1 7.8619 1.572 17.2972 -8.94958
252 1 9.43453 3.39075e-14 15.7249 -8.94961
253 1 11.0072 1.572 17.2972 -8.94959
254 1 12.58 2.46852e-14 15.7249 -8.94972
255 1 14.1524 1.57202 17.2972 -8.94954
256 1 15.7248 -2.42042e-14 15.7246 -8.94955
257 1 17.297 1.57223 17.2969 -8.94959
258 1 18.8693 3.30426e-15 15.7244 -8.9496
259 1 20.4415 1.5723 17.2968 -8.94959
260 1 -0.000259271 3.1446 15.7244 -8.94963
261 1 1.57186 4.71685 17.297 -8.94956
262 1 3.14406 3.14424 15.7247 -8.94946
263 1 4.71625 4.7161 17.2976 -8.94954
264 1 6.28888 3.14359 15.7252 -8.94964
265 1 7.86178 4.71612 17.2977 -8.94953
266 1 9.43452 3.14354 15.7251 -8.94945
267 1 11.0073 4.7161 17.2977 -8.9499
268 1 12.5803 3.14352 15.7253 -8.9495
269 1 14.1528 4.71617 17.2977 -8.94909
270 1 15.725 3.14428 15.7247 -8.94961
271 1 17.2973 4.71679 17.2971 -8.94951
272 1 18.8693 3.1446 15.7244 -8.9496
273 1 20.4415 4.71703 17.2968 -8.94965
274 1 22.0136 6.28942 15.7244 -8.94968
275 1 1.57173 7.86183 17.297 -8.94999
276 1 3.1437 6.28885 15.7249 -8.94929
277 1 4.71514 7.86018 17.2989 -8.94763
278 1 6.28805 6.28702 15.7264 -8.95013
279 1 7.8617 7.8608 17.2991 -8.95004
280 1 9.43429 6.28719 15.7257 -8.94987
281 1 11.008 7.86034 17.2996 -8.95013
282 1 12.5815 6.287 15.7268 -8.94776
283 1 14.1533 7.86099 17.2982 -8.94917
284 1 15.7255 6.28874 15.7251 -8.94939
285 1 17.2973 7.86185 17.297 -8.9497
286 1 18.8694 6.28943 15.7245 -8.94979
287 1 20.4415 7.86198 17.2968 -8.94971
288 1 -0.000245643 9.43449 15.7244 -8.94974
289 1 3.14383 9.43439 15.7247 -8.95127
290 1 6.28493 9.42917 15.7302 -8.98075
291 1 9.43598 9.43077 15.7293 -8.99977
292 1 12.5823 9.43264 15.7287 -8.94818
293 1 15.7253 9.43429 15.725 -8.94997
294 1 18.8694 9.43446 15.7244 -8.94969
295 1 22.0137 1.21342e-15 18.8692 -8.94955
296 1 1.57212 1.57225 20.4416 -8.94954
297 1 3.14445 -2.08419e-15 18.8694 -8.94958
298 1 4.71698 1.5722 20.4417 -8.94963
299 1 6.28944 -4.27069e-14 18.8694 -8.94962
300 1 7.86201 1.57219 20.4417 -8.94961
301 1 9.43453 -1.43629e-14 18.8694 -8.94961
302 1 11.0071 1.57219 20.4417 -8.94962
303 1 12.5796 3.51159e-14 18.8694 -8.94962
304 1 14.1521 1.5722 20.4417 -8.94964
305 1 15.7246 -4.45315e-14 18.8694 -8.94953
306 1 17.2969 1.57226 20.4416 -8.94953
307 1 18.8692 -2.74147e-15 18.8692 -8.94958
308 1 20.4415 1.57231 20.4416 -8.94953
309 1 22.0137 3.14462 18.8692 -8.94958
310 1 1.57194 4.71686 20.4417 -8.94944
311 1 3.14429 3.14435 18.8695 -8.94953
312 1 4.71674 4.71664 20.4418 -8.94968
313 1 6.28934 3.14427 18.8696 -8.94964
314 1 7.86191 4.7166 20.4419 -8.9496
315 1 9.43453 3.14424 18.8696 -8.94959
316 1 11.0072 4.71659 20.4419 -8.94963
317 1 12.5797 3.14428 18.8696 -8.9497
318 1 14.1523 4.71667 20.4418 -8.94957
319 1 15.7248 3.14438 18.8695 -8.94946
320 1 17.2971 4.71689 20.4416 -8.94952
321 1 18.8693 3.1446 18.8692 -8.94954
322 1 20.4415 4.71706 20.4416 -8.94962
323 1 -0.000306308 6.28945 18.8693 -8.94969
324 1 1.57192 7.86189 20.4417 -8.94966
325 1 3.14387 6.2889 18.8698 -8.94903
326 1 4.71626 7.86132 20.4424 -8.94949
327 1 6.28903 6.28871 18.8701 -8.94992
328 1 7.86174 7.86131 20.4423 -8.94952
329 1 9.43455 6.28862 18.8701 -8.9495
330 1 11.0075 7.8612 20.4424 -8.94955
331 1 12.5802 6.28868 18.8702 -8.94959
332 1 14.1526 7.86154 20.4418 -8.94975
333 1 15.7251 6.28907 18.8696 -8.94948
334 1 17.2971 7.86189 20.4416 -8.94958
45 1 6.28895 9.43409 22.0143 -8.94998
11 1 15.7245 6.40282e-15 22.0139 -8.94962
15 1 -0.00019607 3.14462 22.0139 -8.94951
19 1 6.28944 3.14443 22.0139 -8.94963
25 1 15.7246 3.14449 22.0139 -8.9496
31 1 3.14416 6.28915 22.014 -8.94954
37 1 12.5799 6.28896 22.0139 -8.94959
41 1 18.8693 6.28949 22.0139 -8.94962
43 1 -0.000230191 9.43446 22.0139 -8.9496
1 1 -0.000151612 7.31685e-16 22.0139 -8.94952
9 1 12.5795 1.08998e-15 22.0139 -8.94962
48 1 15.7249 9.43435 22.0138 -8.9495
344 1 1.57196 11.007 1.57227 -8.94958
345 1 4.71647 11.007 1.57203 -8.9495
346 1 7.86176 11.007 1.57154 -8.9505
347 1 11.0073 11.007 1.56988 -8.95254
348 1 14.1526 11.007 1.57166 -8.94924
349 1 17.2971 11.007 1.57221 -8.94959
350 1 20.4415 11.007 1.57233 -8.9496
688 2 10.2159 11.007 9.43413 0.775102
352 1 1.57195 14.152 1.57227 -8.94958
511 1 18.8693 18.8693 9.43446 -8.94962
354 1 4.71643 14.1524 1.57205 -8.94975
510 1 15.725 18.8696 9.43437 -8.9496
356 1 7.86156 14.1527 1.57154 -8.94955
357 1 9.43453 12.58 9.8607e-15 -8.94987
358 1 11.0073 14.1526 1.57156 -8.94952
359 1 12.5801 12.5798 -0.00040065 -8.94998
360 1 14.1528 14.1526 1.57153 -8.94949
538 1 17.2971 20.4417 11.007 -8.94958
362 1 17.2971 14.152 1.57222 -8.94966
363 1 18.8693 12.5794 -7.10051e-06 -8.9496
364 1 20.4415 14.1519 1.57233 -8.94961
365 1 22.0137 15.7244 1.03361e-05 -8.94962
366 1 1.57197 17.297 1.57227 -8.94952
509 1 12.5805 18.8709 9.43384 -8.94941
368 1 4.71672 17.2972 1.57206 -8.94957
369 1 6.28915 15.7249 -1.5724e-05 -8.94959
370 1 7.8619 17.2973 1.57204 -8.94963
371 1 9.43453 15.725 -3.16785e-14 -8.94956
372 1 11.0071 17.2973 1.57203 -8.9496
508 1 9.43447 18.8726 9.43406 -8.95252
374 1 14.1523 17.2973 1.57209 -8.94968
375 1 15.7249 15.7247 -0.000137906 -8.94954
376 1 17.2971 17.297 1.57218 -8.94944
507 1 6.2886 18.8708 9.43393 -8.9492
378 1 20.4415 17.2968 1.57232 -8.94962
506 1 3.14407 18.8696 9.43433 -8.94962
380 1 1.57213 20.4416 1.57228 -8.94953
381 1 3.14446 18.8694 5.18136e-08 -8.9496
382 1 4.71698 20.4417 1.57221 -8.94964
505 1 -0.000256377 18.8693 9.43445 -8.94962
384 1 7.862 20.4417 1.57221 -8.94962
385 1 9.43453 18.8695 -4.08911e-14 -8.9496
386 1 11.0071 20.4417 1.57221 -8.94961
387 1 12.5796 18.8695 1.34408e-06 -8.94963
388 1 14.1521 20.4417 1.57222 -8.94963
504 1 18.8694 15.7245 9.43446 -8.94968
390 1 17.2969 20.4417 1.57227 -8.94954
391 1 18.8693 18.8693 -9.35327e-06 -8.94951
392 1 20.4415 20.4416 1.57234 -8.94953
393 1 1.57182 11.007 4.71685 -8.94956
394 1 4.71615 11.007 4.71581 -8.94871
395 1 7.86185 11.007 4.71287 -8.95354
396 1 11.0077 11.007 4.70542 -8.96448
397 1 14.1526 11.007 4.71588 -8.94934
398 1 17.2971 11.007 4.71688 -8.94943
399 1 20.4415 11.007 4.71706 -8.94963
400 1 -0.000272861 12.5794 3.14464 -8.9496
401 1 1.57176 14.1521 4.71686 -8.9497
402 1 3.14408 12.5796 3.14433 -8.9495
403 1 4.71578 14.1529 4.71567 -8.94917
404 1 6.28874 12.5799 3.14327 -8.95026
405 1 7.86107 14.1536 4.71434 -8.95013
406 1 9.43393 12.5808 3.14188 -8.9483
407 1 11.0074 14.1531 4.71475 -8.95004
408 1 12.581 12.5807 3.14187 -8.94915
409 1 14.1539 14.1537 4.71499 -8.94763
410 1 15.725 12.5796 3.1443 -8.94971
411 1 17.2973 14.1521 4.71689 -8.94999
412 1 18.8693 12.5794 3.14464 -8.9496
413 1 20.4415 14.1519 4.71708 -8.94971
414 1 22.0136 15.7244 3.14464 -8.94965
415 1 1.57178 17.2971 4.71684 -8.94951
416 1 3.144 15.7248 3.14426 -8.94948
417 1 4.71623 17.2977 4.71624 -8.94909
418 1 6.28888 15.7252 3.14369 -8.94959
419 1 7.86176 17.2978 4.7162 -8.9499
420 1 9.43451 15.7253 3.14382 -8.9495
421 1 11.0073 17.2978 4.71619 -8.94953
422 1 12.58 15.7252 3.14382 -8.94992
423 1 14.1528 17.2978 4.71627 -8.94954
424 1 15.7252 15.725 3.14407 -8.94903
425 1 17.2972 17.2971 4.7169 -8.94956
426 1 18.8694 15.7245 3.14462 -8.94969
427 1 20.4415 17.2969 4.71706 -8.94965
428 1 -0.000238564 18.8693 3.14465 -8.94954
429 1 1.57203 20.4417 4.71698 -8.94959
430 1 3.14429 18.8695 3.14441 -8.94946
431 1 4.71666 20.4419 4.71666 -8.94954
432 1 6.28932 18.8696 3.1443 -8.9497
433 1 7.8619 20.4419 4.71666 -8.94959
434 1 9.43452 18.8697 3.14431 -8.94959
435 1 11.0072 20.4419 4.71665 -8.94958
436 1 12.5797 18.8696 3.14431 -8.94964
437 1 14.1524 20.4419 4.71669 -8.94962
438 1 15.7248 18.8696 3.14441 -8.94953
439 1 17.297 20.4417 4.71698 -8.94953
440 1 18.8693 18.8693 3.14466 -8.94958
441 1 20.4415 20.4416 4.71711 -8.94959
442 1 1.57188 11.007 7.86181 -8.94957
443 1 4.71611 11.007 7.86067 -8.9506
444 1 7.8575 11.007 7.84648 -8.99927
445 1 11.0284 11.007 7.8093 -9.21214
446 1 14.1511 11.007 7.86225 -9.00085
447 1 17.2969 11.007 7.86188 -8.94893
448 1 20.4414 11.007 7.86198 -8.94955
449 1 22.0136 12.5794 6.28946 -8.94969
450 1 1.57166 14.1521 7.86183 -8.95011
451 1 3.14376 12.5796 6.28892 -8.94997
452 1 4.7147 14.1539 7.85994 -8.94927
453 1 6.2868 12.5813 6.28524 -8.94818
454 1 7.85751 14.1582 7.85505 -8.98076
455 1 9.43308 12.5831 6.28461 -8.99977
456 1 11.0103 14.1563 7.85734 -9.00126
457 1 12.5841 12.5847 6.28375 -8.98075
458 1 14.154 14.1538 7.86095 -8.94839
459 1 15.7252 12.5795 6.28917 -8.95127
460 1 17.2974 14.1522 7.86185 -8.94989
461 1 18.8693 12.5794 6.28951 -8.94974
462 1 20.4415 14.1519 7.86199 -8.94979
463 1 -0.000371622 15.7245 6.28945 -8.94979
464 1 1.57178 17.2971 7.86183 -8.94955
465 1 3.14353 15.7252 6.28875 -8.94939
466 1 4.71604 17.298 7.86129 -8.94969
467 1 6.28752 15.7269 6.28708 -8.94776
468 1 7.86063 17.3003 7.86018 -8.94904
469 1 9.43477 15.7267 6.28818 -8.94987
470 1 11.0082 17.2998 7.86036 -8.94848
471 1 12.581 15.7269 6.28754 -8.95013
472 1 14.1531 17.2982 7.86124 -8.94928
473 1 15.7254 15.725 6.28895 -8.94929
474 1 17.2973 17.2971 7.86186 -8.94968
475 1 18.8694 15.7245 6.28947 -8.94968
476 1 20.4415 17.2969 7.86198 -8.94965
477 1 22.0136 18.8693 6.28949 -8.9496
478 1 1.57198 20.4417 7.86191 -8.9496
479 1 3.1441 18.8696 6.2892 -8.94961
480 1 4.71647 20.442 7.86162 -8.9495
481 1 6.28876 18.8704 6.28862 -8.9495
482 1 7.86159 20.4425 7.86139 -8.94992
483 1 9.43454 18.8704 6.28882 -8.94945
484 1 11.0074 20.4425 7.86139 -8.94974
485 1 12.5802 18.8703 6.2887 -8.94964
486 1 14.1526 20.442 7.86158 -8.94955
487 1 15.725 18.8697 6.28918 -8.94946
488 1 17.2971 20.4417 7.86192 -8.9496
489 1 18.8693 18.8693 6.28949 -8.94963
490 1 20.4415 20.4416 7.862 -8.94961
491 1 -0.000240495 12.5794 9.43446 -8.94967
492 1 3.144 12.5796 9.43419 -8.95064
493 1 6.28631 12.5843 9.42892 -9.03256
494 1 9.41492 12.6353 9.43197 -9.262
495 1 12.5846 12.5847 9.43327 -8.9833
496 1 15.7253 12.5797 9.4343 -8.95095
497 1 18.8693 12.5794 9.43447 -8.94982
498 1 22.0136 15.7245 9.43442 -8.94968
499 1 3.14369 15.7251 9.43406 -8.94913
500 1 6.28818 15.7275 9.43315 -8.94986
501 1 9.4339 15.7377 9.43387 -8.96528
502 1 12.5814 15.7281 9.43269 -8.94842
503 1 15.7253 15.7251 9.43432 -8.94948
512 1 1.57217 11.007 11.0069 -8.94914
514 1 7.83688 11.007 10.9586 -9.24721
516 1 14.1514 11.007 11.0062 -9.00243
519 1 1.5717 14.1521 11.0069 -8.95001
520 1 4.71493 14.1537 11.0064 -8.95037
521 1 7.85514 14.1607 11.0094 -9.03143
527 1 4.71609 17.298 11.0069 -8.95003
528 1 7.85989 17.302 11.0071 -8.94771
531 1 17.2972 17.2971 11.007 -8.9496
534 1 4.71647 20.442 11.007 -8.94954
535 1 7.86143 20.4429 11.007 -8.95013
353 1 3.14418 12.5795 8.82663e-05 -8.9495
687 2 8.65312 11.007 12.5798 0.775102
513 1 4.71764 11.007 11.0077 -9.00243
686 1 20.4415 20.4416 20.4416 -8.94953
515 1 11.0322 11.007 11.0553 -9.24721
685 1 18.8693 18.8693 18.8692 -8.94954
517 1 17.2969 11.007 11.007 -8.94914
518 1 20.4415 11.007 11.007 -8.94946
684 1 17.2969 20.4416 20.4416 -8.94953
683 1 15.7248 18.8695 18.8695 -8.94946
682 1 14.1521 20.4417 20.4417 -8.94964
522 1 11.0139 14.1607 11.0045 -9.03143
523 1 14.1541 14.1537 11.0075 -8.95037
524 1 17.2974 14.1521 11.007 -8.95001
525 1 20.4415 14.1519 11.007 -8.94978
526 1 1.57183 17.2971 11.0069 -8.9496
681 1 12.5797 18.8696 18.8696 -8.9497
680 1 11.0071 20.4417 20.4417 -8.94962
529 1 11.0092 17.302 11.0068 -8.94771
530 1 14.153 17.298 11.007 -8.95003
679 1 9.43453 18.8697 18.8696 -8.94959
532 1 20.4415 17.2969 11.007 -8.94962
533 1 1.57198 20.4417 11.0069 -8.94958
678 1 7.86201 20.4417 20.4417 -8.94961
677 1 6.28934 18.8696 18.8696 -8.94964
536 1 11.0076 20.4429 11.0069 -8.95013
537 1 14.1526 20.442 11.0069 -8.94954
676 1 4.71698 20.4417 20.4417 -8.94963
539 1 20.4415 20.4416 11.007 -8.94961
540 1 1.57214 11.007 14.152 -8.94893
541 1 4.71791 11.007 14.1516 -9.00085
542 1 7.84065 11.007 14.2046 -9.21214
543 1 11.0116 11.007 14.1674 -8.99927
544 1 14.1529 11.007 14.1532 -8.9506
545 1 17.2972 11.007 14.1521 -8.94957
546 1 20.4415 11.007 14.1519 -8.94955
547 1 22.0136 12.5794 12.5794 -8.94982
548 1 1.57164 14.1522 14.1521 -8.94989
549 1 3.14376 12.5797 12.5796 -8.95095
550 1 4.71507 14.1538 14.1529 -8.94839
551 1 6.28443 12.5847 12.5806 -8.9833
552 1 7.85873 14.1563 14.1566 -9.00126
553 1 9.45414 12.6353 12.5819 -9.262
554 1 11.0115 14.1582 14.1589 -8.98076
555 1 12.5827 12.5843 12.585 -9.03256
556 1 14.1544 14.1539 14.154 -8.94927
557 1 15.7251 12.5796 12.5797 -8.95064
558 1 17.2974 14.1521 14.1521 -8.95011
559 1 18.8693 12.5794 12.5794 -8.94967
560 1 20.4415 14.1519 14.1519 -8.94979
561 1 -0.000340749 15.7245 12.5794 -8.94968
562 1 1.57179 17.2971 14.152 -8.94968
563 1 3.14374 15.7251 12.5796 -8.94948
564 1 4.71593 17.2982 14.1527 -8.94928
565 1 6.28762 15.7281 12.5812 -8.94842
566 1 7.8609 17.2998 14.1535 -8.94848
567 1 9.43516 15.7377 12.58 -8.96528
568 1 11.0084 17.3003 14.1537 -8.94904
569 1 12.5809 15.7275 12.5807 -8.94986
570 1 14.153 17.298 14.1526 -8.94969
571 1 15.7254 15.7251 12.5798 -8.94913
572 1 17.2973 17.2971 14.1521 -8.94955
573 1 18.8694 15.7245 12.5795 -8.94968
574 1 20.4415 17.2969 14.1519 -8.94965
575 1 22.0136 18.8693 12.5794 -8.94962
576 1 1.57197 20.4417 14.152 -8.9496
577 1 3.14408 18.8696 12.5795 -8.9496
578 1 4.71646 20.442 14.1523 -8.94955
579 1 6.28859 18.8709 12.5801 -8.94941
580 1 7.86165 20.4425 14.1525 -8.94974
581 1 9.43459 18.8726 12.5798 -8.95252
582 1 11.0075 20.4425 14.1525 -8.94992
583 1 12.5805 18.8708 12.58 -8.9492
584 1 14.1526 20.442 14.1523 -8.9495
585 1 15.725 18.8696 12.5796 -8.94962
586 1 17.2971 20.4417 14.152 -8.9496
587 1 18.8693 18.8693 12.5794 -8.94962
588 1 20.4415 20.4416 14.1519 -8.94961
589 1 1.57193 11.007 17.297 -8.94943
590 1 4.7165 11.007 17.298 -8.94934
591 1 7.86131 11.007 17.3085 -8.96448
592 1 11.0072 11.007 17.301 -8.95354
593 1 14.1529 11.007 17.2981 -8.94871
594 1 17.2972 11.007 17.297 -8.94956
595 1 20.4415 11.007 17.2968 -8.94963
596 1 -0.000245643 12.5794 15.7244 -8.94974
597 1 1.57173 14.1521 17.297 -8.94999
598 1 3.14383 12.5795 15.7247 -8.95127
599 1 4.71514 14.1537 17.2989 -8.94763
600 1 6.28493 12.5847 15.7302 -8.98075
601 1 7.8617 14.1531 17.2991 -8.95004
602 1 9.43598 12.5831 15.7293 -8.99977
603 1 11.008 14.1536 17.2996 -8.95013
604 1 12.5823 12.5813 15.7287 -8.94818
605 1 14.1533 14.1529 17.2982 -8.94917
606 1 15.7253 12.5796 15.725 -8.94997
607 1 17.2973 14.1521 17.297 -8.9497
608 1 18.8694 12.5794 15.7244 -8.94969
609 1 20.4415 14.1519 17.2968 -8.94971
610 1 22.0136 15.7245 15.7244 -8.94968
611 1 1.57186 17.2971 17.297 -8.94956
612 1 3.1437 15.725 15.7249 -8.94929
613 1 4.71625 17.2978 17.2976 -8.94954
614 1 6.28805 15.7269 15.7264 -8.95013
615 1 7.86178 17.2978 17.2977 -8.94953
616 1 9.43429 15.7267 15.7257 -8.94987
617 1 11.0073 17.2978 17.2977 -8.9499
618 1 12.5815 15.7269 15.7268 -8.94776
619 1 14.1528 17.2977 17.2977 -8.94909
620 1 15.7255 15.7252 15.7251 -8.94939
621 1 17.2973 17.2971 17.2971 -8.94951
622 1 18.8694 15.7245 15.7245 -8.94979
623 1 20.4415 17.2969 17.2968 -8.94965
624 1 -0.000259271 18.8693 15.7244 -8.94963
625 1 1.57202 20.4417 17.2969 -8.94953
626 1 3.14406 18.8697 15.7247 -8.94946
627 1 4.7167 20.4419 17.2972 -8.94962
628 1 6.28888 18.8703 15.7252 -8.94964
629 1 7.8619 20.4419 17.2972 -8.94958
630 1 9.43452 18.8704 15.7251 -8.94945
631 1 11.0072 20.4419 17.2972 -8.94959
632 1 12.5803 18.8704 15.7253 -8.9495
633 1 14.1524 20.4419 17.2972 -8.94954
634 1 15.725 18.8696 15.7247 -8.94961
635 1 17.297 20.4417 17.2969 -8.94959
636 1 18.8693 18.8693 15.7244 -8.9496
637 1 20.4415 20.4416 17.2968 -8.94959
638 1 1.57194 11.007 20.4417 -8.94959
639 1 4.71645 11.007 20.4422 -8.94924
640 1 7.86173 11.007 20.444 -8.95254
641 1 11.0073 11.007 20.4424 -8.9505
642 1 14.1526 11.007 20.4419 -8.9495
643 1 17.2971 11.007 20.4416 -8.94958
644 1 20.4415 11.007 20.4416 -8.9496
645 1 22.0136 12.5794 18.8693 -8.9496
646 1 1.57192 14.152 20.4417 -8.94966
647 1 3.14408 12.5796 18.8696 -8.94971
648 1 4.71626 14.1526 20.4424 -8.94949
649 1 6.28807 12.5807 18.872 -8.94915
650 1 7.86174 14.1526 20.4423 -8.94952
651 1 9.43513 12.5808 18.872 -8.9483
652 1 11.0075 14.1527 20.4424 -8.94955
653 1 12.5803 12.5799 18.8706 -8.95026
654 1 14.1526 14.1524 20.4418 -8.94975
655 1 15.725 12.5796 18.8696 -8.9495
656 1 17.2971 14.152 20.4416 -8.94958
657 1 18.8693 12.5794 18.8693 -8.9496
658 1 20.4415 14.1519 20.4416 -8.94961
659 1 -0.000306308 15.7245 18.8693 -8.94969
660 1 1.57194 17.297 20.4417 -8.94944
661 1 3.14387 15.725 18.8698 -8.94903
662 1 4.71674 17.2973 20.4418 -8.94968
663 1 6.28903 15.7252 18.8701 -8.94992
664 1 7.86191 17.2973 20.4419 -8.9496
665 1 9.43455 15.7253 18.8701 -8.9495
666 1 11.0072 17.2973 20.4419 -8.94963
667 1 12.5802 15.7252 18.8702 -8.94959
668 1 14.1523 17.2972 20.4418 -8.94957
669 1 15.7251 15.7248 18.8696 -8.94948
670 1 17.2971 17.297 20.4416 -8.94952
671 1 18.8693 15.7244 18.8693 -8.94965
672 1 20.4415 17.2968 20.4416 -8.94962
673 1 22.0137 18.8693 18.8692 -8.94958
674 1 1.57212 20.4417 20.4416 -8.94954
675 1 3.14429 18.8696 18.8695 -8.94953
351 1 -0.000230191 12.5794 22.0139 -8.9496
389 1 15.7246 18.8694 22.0139 -8.9496
355 1 6.28895 12.5798 22.0143 -8.94998
367 1 3.14416 15.7247 22.014 -8.94954
373 1 12.5799 15.7249 22.0139 -8.94959
377 1 18.8693 15.7244 22.0139 -8.94962
379 1 -0.00019607 18.8693 22.0139 -8.94951
383 1 6.28944 18.8695 22.0139 -8.94963
361 1 15.7249 12.5795 22.0138 -8.9495
