ITEM: TIMESTEP
56
ITEM: NUMBER OF ATOMS
688
ITEM: BOX BOUNDS pp pp pp
0.0000000000000000e+00 2.2013900999999997e+01
0.0000000000000000e+00 2.2013900999999997e+01
0.0000000000000000e+00 2.2013900999999997e+01
ITEM: ATOMS id type x y z c_pot
192 1 7.8586 7.86025 11.009 -9.03519
2 1 1.57242 1.57242 1.57242 -8.94963
3 1 3.14484 2.70099e-16 -2.85242e-09 -8.94963
4 1 4.71726 1.57242 1.57242 -8.94963
175 1 18.8691 9.43454 9.43453 -8.94984
6 1 7.86211 1.57242 1.57242 -8.94963
7 1 9.43453 -1.00963e-16 1.81961e-15 -8.94963
8 1 11.007 1.57242 1.57242 -8.94963
191 1 4.71648 7.86156 11.0065 -8.94915
10 1 14.1518 1.57242 1.57242 -8.94963
174 1 15.7249 9.43442 9.43449 -8.95105
12 1 17.2966 1.57242 1.57242 -8.94963
13 1 18.8691 1.7457e-16 6.70087e-09 -8.94963
14 1 20.4415 1.57242 1.57242 -8.94963
173 1 12.5854 9.42997 9.43392 -8.98216
16 1 1.57242 4.71726 1.57242 -8.94963
17 1 3.14484 3.14484 -3.86749e-08 -8.94963
18 1 4.71726 4.71726 1.57242 -8.94963
172 1 9.4147 9.38975 9.43416 -9.27108
20 1 7.86211 4.71726 1.57242 -8.94964
21 1 9.43453 3.14484 9.52775e-16 -8.94963
22 1 11.007 4.71726 1.57242 -8.94963
23 1 12.5794 3.14484 -1.82475e-07 -8.94963
24 1 14.1518 4.71726 1.57242 -8.94965
171 1 6.28809 9.43274 9.43299 -9.03319
26 1 17.2966 4.71726 1.57242 -8.94963
27 1 18.8691 3.14484 -3.38166e-08 -8.94963
28 1 20.4415 4.71726 1.57242 -8.94963
29 1 22.0139 6.28969 -2.69044e-07 -8.94963
30 1 1.57242 7.86211 1.57242 -8.94964
170 1 3.14483 9.43459 9.43463 -8.95005
32 1 4.71726 7.8621 1.57241 -8.94964
33 1 6.28969 6.28968 -4.38578e-06 -8.94963
34 1 7.86209 7.86208 1.57238 -8.94959
35 1 9.43453 6.28969 -7.43622e-17 -8.94964
36 1 11.007 7.86211 1.57243 -8.94961
169 1 9.38802e-06 9.43453 9.43453 -8.94963
38 1 14.1518 7.86208 1.57239 -8.94958
39 1 15.7242 6.28968 -1.89027e-06 -8.94962
40 1 17.2966 7.86211 1.57243 -8.94965
168 1 18.8691 6.28968 9.43453 -8.94962
42 1 20.4415 7.86211 1.57242 -8.94963
167 1 15.7242 6.28967 9.43454 -8.94958
166 1 12.5797 6.28899 9.43431 -8.95004
165 1 9.43441 6.28456 9.43464 -8.96233
46 1 9.43453 9.4345 9.91196e-16 -8.94965
47 1 12.5794 9.43452 -2.06765e-05 -8.94968
190 1 1.57234 7.86207 11.0069 -8.94973
49 1 18.8691 9.43453 -1.92937e-07 -8.94963
50 1 22.0139 8.36206e-16 3.14484 -8.94963
51 1 1.57242 1.57242 4.71726 -8.94963
52 1 3.14484 1.35168e-15 3.14484 -8.94963
53 1 4.71726 1.57242 4.71726 -8.94962
54 1 6.28969 8.86208e-16 3.14484 -8.94963
55 1 7.86211 1.57242 4.71727 -8.94964
56 1 9.43453 2.88955e-16 3.14484 -8.94963
57 1 11.0069 1.57242 4.71727 -8.94964
58 1 12.5794 1.07839e-16 3.14484 -8.94963
59 1 14.1518 1.57242 4.71726 -8.94963
60 1 15.7242 -8.97981e-16 3.14484 -8.94963
61 1 17.2966 1.57242 4.71726 -8.94963
62 1 18.8691 5.81569e-16 3.14484 -8.94963
63 1 20.4415 1.57242 4.71726 -8.94963
64 1 1.7406e-07 3.14484 3.14484 -8.94963
65 1 1.57242 4.71727 4.71726 -8.94964
66 1 3.14484 3.14484 3.14484 -8.94963
67 1 4.71725 4.71725 4.71725 -8.94956
68 1 6.28969 3.14484 3.14484 -8.94965
69 1 7.86212 4.71727 4.71726 -8.94978
70 1 9.43453 3.14484 3.14484 -8.94963
71 1 11.0069 4.71727 4.71725 -8.94964
72 1 12.5794 3.14484 3.14484 -8.94964
73 1 14.1518 4.71724 4.71725 -8.94962
74 1 15.7242 3.14484 3.14484 -8.94963
75 1 17.2966 4.71726 4.71726 -8.9496
76 1 18.8691 3.14484 3.14484 -8.94963
77 1 20.4415 4.71726 4.71726 -8.94963
78 1 22.0139 6.28969 3.14484 -8.94963
79 1 1.57241 7.8621 4.71726 -8.94964
80 1 3.14484 6.28968 3.14484 -8.9496
81 1 4.71717 7.86201 4.71718 -8.94934
82 1 6.28968 6.28967 3.14482 -8.94962
83 1 7.86201 7.86201 4.71697 -8.94999
84 1 9.43454 6.28967 3.14485 -8.94964
85 1 11.0069 7.86219 4.71725 -8.95025
86 1 12.5794 6.28969 3.14485 -8.94978
87 1 14.152 7.86188 4.71703 -8.94873
88 1 15.7242 6.28967 3.14482 -8.94954
89 1 17.2966 7.86212 4.71728 -8.94973
90 1 18.8691 6.28969 3.14484 -8.94964
91 1 20.4415 7.86211 4.71727 -8.94963
92 1 -4.79257e-08 9.43453 3.14484 -8.94963
93 1 3.14485 9.43453 3.14485 -8.94966
94 1 6.28963 9.4345 3.14474 -8.9498
95 1 9.43433 9.43429 3.14454 -8.94874
96 1 12.5796 9.4343 3.14454 -8.94915
97 1 15.7242 9.43456 3.14488 -8.94976
98 1 18.8691 9.43453 3.14484 -8.94963
99 1 -1.01423e-07 1.03495e-15 6.28969 -8.94963
100 1 1.57242 1.57242 7.86211 -8.94963
101 1 3.14484 1.34436e-15 6.28969 -8.94963
102 1 4.71726 1.57242 7.86211 -8.94963
103 1 6.28968 1.43362e-15 6.28968 -8.94964
104 1 7.86209 1.5724 7.86209 -8.94966
105 1 9.43453 -6.60451e-17 6.28969 -8.94962
106 1 11.007 1.5724 7.86209 -8.94964
107 1 12.5794 -2.75313e-18 6.28968 -8.94964
108 1 14.1518 1.57241 7.86211 -8.94965
109 1 15.7242 1.24524e-15 6.28969 -8.94963
110 1 17.2966 1.57242 7.86211 -8.94963
111 1 18.8691 5.72009e-16 6.28969 -8.94963
112 1 20.4415 1.57242 7.86211 -8.94963
113 1 22.0139 3.14484 6.28969 -8.94963
114 1 1.57242 4.71726 7.8621 -8.9496
115 1 3.14484 3.14485 6.28969 -8.94965
116 1 4.71727 4.71728 7.86212 -8.94976
117 1 6.28966 3.14481 6.28966 -8.94959
118 1 7.86189 4.71697 7.86187 -8.94913
119 1 9.43453 3.14485 6.28969 -8.9496
120 1 11.0071 4.717 7.86189 -8.94889
121 1 12.5794 3.14481 6.28966 -8.94962
122 1 14.1518 4.71717 7.86208 -8.94968
123 1 15.7242 3.14484 6.28968 -8.94963
124 1 17.2966 4.71727 7.86211 -8.94967
125 1 18.8691 3.14484 6.28969 -8.94964
126 1 20.4415 4.71726 7.86211 -8.94963
127 1 3.33197e-06 6.28969 6.28969 -8.94964
128 1 1.57243 7.86212 7.86212 -8.94973
129 1 3.14483 6.28968 6.28968 -8.94963
130 1 4.71702 7.86199 7.86197 -8.94955
131 1 6.28949 6.28946 6.28948 -8.94888
132 1 7.8601 7.86077 7.85933 -8.98297
133 1 9.43461 6.28969 6.28979 -8.95027
134 1 11.0085 7.86158 7.86105 -9.00281
135 1 12.5795 6.28937 6.28956 -8.95
136 1 14.1526 7.86139 7.86168 -8.94807
137 1 15.7243 6.28962 6.28961 -8.94937
138 1 17.2967 7.86206 7.86207 -8.94972
139 1 18.8691 6.28968 6.28968 -8.94962
140 1 20.4415 7.86211 7.86211 -8.94965
141 1 22.0139 9.43453 6.28969 -8.94965
142 1 3.14477 9.43453 6.28969 -8.94986
143 1 6.28871 9.43393 6.28874 -8.94779
144 1 9.4333 9.43356 6.289 -9.00162
145 1 12.5815 9.43171 6.28816 -8.9825
146 1 15.7242 9.43463 6.28979 -8.95048
147 1 18.8691 9.43453 6.28969 -8.94964
148 1 7.36489e-08 -1.53513e-17 9.43453 -8.94963
149 1 3.14484 1.40691e-15 9.43453 -8.94964
150 1 6.28968 -1.05015e-15 9.43453 -8.94961
151 1 9.43453 -8.01939e-17 9.43453 -8.94983
152 1 12.5794 1.79283e-15 9.43453 -8.94964
153 1 15.7242 1.69335e-15 9.43453 -8.94963
154 1 18.8691 1.25577e-15 9.43453 -8.94963
155 1 1.43146e-07 3.14484 9.43453 -8.94964
156 1 3.14484 3.14483 9.43452 -8.94964
157 1 6.28967 3.14483 9.43451 -8.9495
158 1 9.43453 3.14446 9.43453 -8.95107
159 1 12.5794 3.14478 9.43451 -8.94969
160 1 15.7242 3.14484 9.43453 -8.94963
161 1 18.8691 3.14484 9.43453 -8.94963
162 1 22.0139 6.28968 9.43452 -8.94962
163 1 3.14479 6.28962 9.43446 -8.9493
164 1 6.28982 6.28967 9.43442 -8.95056
177 1 4.71727 1.57242 11.0069 -8.94966
178 1 7.86208 1.57237 11.0069 -8.94966
181 1 17.2966 1.57242 11.007 -8.94963
184 1 4.71724 4.71722 11.0069 -8.94991
185 1 7.86168 4.7167 11.007 -8.94823
188 1 17.2966 4.71727 11.007 -8.94965
5 1 6.28969 -4.87382e-16 1.52537e-09 -8.94963
44 1 3.14484 9.43453 -4.06653e-06 -8.94963
176 1 1.57242 1.57242 11.007 -8.94963
343 1 18.8691 9.43453 18.8691 -8.94963
342 1 15.7242 9.43453 18.8691 -8.94966
179 1 11.007 1.57237 11.007 -8.94966
180 1 14.1518 1.57242 11.007 -8.94966
341 1 12.5794 9.4345 18.8692 -8.9498
182 1 20.4415 1.57242 11.007 -8.94963
183 1 1.57242 4.71727 11.007 -8.94965
340 1 9.43472 9.43429 18.8694 -8.94874
339 1 6.28946 9.4343 18.8694 -8.94915
186 1 11.0074 4.7167 11.0069 -8.94823
187 1 14.1518 4.71722 11.007 -8.94991
338 1 3.14486 9.43456 18.869 -8.94976
189 1 20.4415 4.71726 11.007 -8.94963
337 1 22.0139 9.43453 18.8691 -8.94963
336 1 20.4415 7.86211 20.4415 -8.94963
335 1 18.8691 6.28969 18.8691 -8.94963
193 1 11.0105 7.86025 11.0049 -9.03519
194 1 14.1526 7.86156 11.0074 -8.94915
195 1 17.2967 7.86207 11.007 -8.94973
196 1 20.4415 7.86211 11.007 -8.94967
197 1 22.0139 1.30474e-15 12.5794 -8.94963
198 1 1.57242 1.57242 14.1518 -8.94963
199 1 3.14484 1.77748e-15 12.5794 -8.94963
200 1 4.71726 1.57241 14.1518 -8.94965
201 1 6.28968 1.49156e-15 12.5794 -8.94964
202 1 7.8621 1.5724 14.1518 -8.94964
203 1 9.43453 -2.62279e-16 12.5794 -8.94983
204 1 11.007 1.5724 14.1518 -8.94966
205 1 12.5794 -1.63944e-16 12.5794 -8.94961
206 1 14.1518 1.57242 14.1518 -8.94963
207 1 15.7242 1.33373e-15 12.5794 -8.94964
208 1 17.2966 1.57242 14.1518 -8.94963
209 1 18.8691 9.22085e-17 12.5794 -8.94963
210 1 20.4415 1.57242 14.1518 -8.94963
211 1 22.0139 3.14484 12.5794 -8.94963
212 1 1.57242 4.71727 14.1518 -8.94967
213 1 3.14484 3.14484 12.5794 -8.94963
214 1 4.71721 4.71717 14.1518 -8.94968
215 1 6.28967 3.14478 12.5794 -8.94969
216 1 7.86191 4.717 14.152 -8.94889
217 1 9.43453 3.14446 12.5794 -8.95107
218 1 11.0072 4.71697 14.152 -8.94913
219 1 12.5794 3.14483 12.5794 -8.9495
220 1 14.1518 4.71728 14.1518 -8.94976
221 1 15.7242 3.14483 12.5794 -8.94964
222 1 17.2966 4.71726 14.1518 -8.9496
223 1 18.8691 3.14484 12.5794 -8.94964
224 1 20.4415 4.71726 14.1518 -8.94963
225 1 -2.65609e-06 6.28968 12.5794 -8.94962
226 1 1.57232 7.86206 14.1518 -8.94972
227 1 3.14481 6.28967 12.5794 -8.94958
228 1 4.71645 7.86139 14.1522 -8.94807
229 1 6.2894 6.28899 12.5796 -8.95004
230 1 7.86058 7.86158 14.1529 -9.00281
231 1 9.43465 6.28456 12.5793 -8.96233
232 1 11.009 7.86077 14.1546 -8.98297
233 1 12.5792 6.28967 12.5795 -8.95056
234 1 14.152 7.86199 14.1519 -8.94955
235 1 15.7243 6.28962 12.5794 -8.9493
236 1 17.2966 7.86212 14.1518 -8.94973
237 1 18.8691 6.28968 12.5794 -8.94962
238 1 20.4415 7.86211 14.1518 -8.94965
239 1 22.0139 9.43454 12.5794 -8.94984
240 1 3.14413 9.43442 12.5794 -8.95105
241 1 6.28367 9.42997 12.58 -8.98216
242 1 9.45436 9.38975 12.5797 -9.27108
243 1 12.581 9.43274 12.5809 -9.03319
244 1 15.7242 9.43459 12.5793 -8.95005
245 1 18.869 9.43453 12.5794 -8.94963
246 1 7.26362e-08 7.51315e-16 15.7242 -8.94963
247 1 1.57242 1.57242 17.2966 -8.94963
248 1 3.14484 1.72775e-15 15.7242 -8.94963
249 1 4.71726 1.57242 17.2966 -8.94963
250 1 6.28968 4.54046e-16 15.7242 -8.94964
251 1 7.86211 1.57242 17.2966 -8.94964
252 1 9.43453 -1.18471e-16 15.7242 -8.94962
253 1 11.0069 1.57242 17.2966 -8.94964
254 1 12.5794 1.24443e-15 15.7242 -8.94964
255 1 14.1518 1.57242 17.2966 -8.94962
256 1 15.7242 1.36501e-15 15.7242 -8.94963
257 1 17.2966 1.57242 17.2966 -8.94963
258 1 18.8691 1.13836e-15 15.7242 -8.94963
259 1 20.4415 1.57242 17.2966 -8.94963
260 1 4.32752e-07 3.14484 15.7242 -8.94964
261 1 1.57242 4.71726 17.2966 -8.9496
262 1 3.14484 3.14484 15.7242 -8.94963
263 1 4.71725 4.71724 17.2966 -8.94962
264 1 6.28967 3.14481 15.7242 -8.94962
265 1 7.86212 4.71727 17.2966 -8.94964
266 1 9.43453 3.14485 15.7242 -8.9496
267 1 11.0069 4.71727 17.2966 -8.94978
268 1 12.5794 3.14481 15.7242 -8.94959
269 1 14.1518 4.71725 17.2966 -8.94956
270 1 15.7242 3.14485 15.7242 -8.94965
271 1 17.2966 4.71727 17.2966 -8.94964
272 1 18.8691 3.14484 15.7242 -8.94963
273 1 20.4415 4.71726 17.2966 -8.94963
274 1 22.0139 6.28968 15.7242 -8.94962
275 1 1.57243 7.86212 17.2966 -8.94973
276 1 3.14477 6.28962 15.7243 -8.94937
277 1 4.71705 7.86188 17.2969 -8.94873
278 1 6.28957 6.28937 15.7243 -8.95
279 1 7.86218 7.86219 17.2967 -8.95025
280 1 9.43445 6.28969 15.7241 -8.95027
281 1 11.0071 7.86201 17.2969 -8.94999
282 1 12.5796 6.28946 15.7244 -8.94888
283 1 14.1519 7.86201 17.2967 -8.94934
284 1 15.7242 6.28968 15.7242 -8.94963
285 1 17.2966 7.8621 17.2966 -8.94964
286 1 18.8691 6.28969 15.7242 -8.94964
287 1 20.4415 7.86211 17.2966 -8.94963
288 1 6.3299e-06 9.43453 15.7242 -8.94964
289 1 3.14481 9.43463 15.7241 -8.95048
290 1 6.28755 9.43171 15.7257 -8.9825
291 1 9.43575 9.43356 15.7249 -9.00162
292 1 12.5803 9.43393 15.7252 -8.94779
293 1 15.7243 9.43453 15.7242 -8.94986
294 1 18.8691 9.43453 15.7242 -8.94965
295 1 22.0139 7.90027e-16 18.8691 -8.94963
296 1 1.57242 1.57242 20.4415 -8.94963
297 1 3.14484 -1.02059e-15 18.8691 -8.94963
298 1 4.71726 1.57242 20.4415 -8.94963
299 1 6.28969 -2.67097e-18 18.8691 -8.94963
300 1 7.86211 1.57242 20.4415 -8.94963
301 1 9.43453 1.13247e-16 18.8691 -8.94963
302 1 11.007 1.57242 20.4415 -8.94963
303 1 12.5794 7.37671e-16 18.8691 -8.94963
304 1 14.1518 1.57242 20.4415 -8.94963
305 1 15.7242 1.4505e-15 18.8691 -8.94963
306 1 17.2966 1.57242 20.4415 -8.94963
307 1 18.8691 3.61202e-16 18.8691 -8.94963
308 1 20.4415 1.57242 20.4415 -8.94963
309 1 22.0139 3.14484 18.8691 -8.94963
310 1 1.57242 4.71726 20.4415 -8.94963
311 1 3.14484 3.14484 18.8691 -8.94963
312 1 4.71727 4.71726 20.4415 -8.94965
313 1 6.28969 3.14484 18.8691 -8.94964
314 1 7.86211 4.71726 20.4415 -8.94963
315 1 9.43453 3.14484 18.8691 -8.94963
316 1 11.0069 4.71726 20.4415 -8.94964
317 1 12.5794 3.14484 18.8691 -8.94965
318 1 14.1518 4.71726 20.4415 -8.94963
319 1 15.7242 3.14484 18.8691 -8.94963
320 1 17.2966 4.71726 20.4415 -8.94963
321 1 18.8691 3.14484 18.8691 -8.94963
322 1 20.4415 4.71726 20.4415 -8.94963
323 1 1.18666e-06 6.28969 18.8691 -8.94964
324 1 1.57242 7.86211 20.4415 -8.94965
325 1 3.14483 6.28967 18.8691 -8.94954
326 1 4.71724 7.86208 20.4415 -8.94958
327 1 6.2897 6.28969 18.8691 -8.94978
328 1 7.8621 7.86211 20.4415 -8.94961
329 1 9.43452 6.28967 18.8691 -8.94964
330 1 11.007 7.86208 20.4415 -8.94959
331 1 12.5794 6.28967 18.8691 -8.94962
332 1 14.1518 7.8621 20.4415 -8.94964
333 1 15.7242 6.28968 18.8691 -8.9496
334 1 17.2966 7.86211 20.4415 -8.94964
45 1 6.28967 9.43452 22.0139 -8.94968
11 1 15.7242 1.80545e-16 22.0139 -8.94963
15 1 -4.56865e-08 3.14484 22.0139 -8.94963
19 1 6.28969 3.14484 22.0139 -8.94963
25 1 15.7242 3.14484 22.0139 -8.94963
31 1 3.14484 6.28968 22.0139 -8.94962
37 1 12.5794 6.28968 22.0139 -8.94963
41 1 18.8691 6.28969 22.0139 -8.94963
43 1 -1.53066e-07 9.43453 22.0139 -8.94963
1 1 3.45583e-09 5.70189e-16 22.0139 -8.94963
9 1 12.5794 -5.51391e-16 22.0139 -8.94963
48 1 15.7242 9.43453 22.0139 -8.94963
344 1 1.57242 11.007 1.57242 -8.94964
345 1 4.71726 11.007 1.57242 -8.94959
346 1 7.86211 11.007 1.57239 -8.94995
347 1 11.0069 11.007 1.57203 -8.95111
348 1 14.1518 11.007 1.57245 -8.94953
349 1 17.2966 11.007 1.57242 -8.94963
350 1 20.4415 11.007 1.57242 -8.94963
688 2 10.2207 11.007 9.43425 0.833733
352 1 1.57242 14.1518 1.57242 -8.94964
511 1 18.8691 18.8691 9.43453 -8.94963
354 1 4.71726 14.1518 1.57241 -8.94964
510 1 15.7242 18.8691 9.43453 -8.94963
356 1 7.86209 14.1518 1.57238 -8.94959
357 1 9.43453 12.5794 1.0042e-15 -8.94965
358 1 11.007 14.1518 1.57243 -8.94961
359 1 12.5794 12.5794 -2.06765e-05 -8.94968
360 1 14.1518 14.1518 1.57239 -8.94958
538 1 17.2966 20.4415 11.007 -8.94963
362 1 17.2966 14.1518 1.57243 -8.94965
363 1 18.8691 12.5794 -1.92937e-07 -8.94963
364 1 20.4415 14.1518 1.57242 -8.94963
365 1 22.0139 15.7242 -2.69044e-07 -8.94963
366 1 1.57242 17.2966 1.57242 -8.94963
509 1 12.5794 18.8691 9.43451 -8.94969
368 1 4.71726 17.2966 1.57242 -8.94963
369 1 6.28969 15.7242 -4.38578e-06 -8.94963
370 1 7.86211 17.2966 1.57242 -8.94964
371 1 9.43453 15.7242 -1.02062e-16 -8.94964
372 1 11.007 17.2966 1.57242 -8.94963
508 1 9.43453 18.8694 9.43453 -8.95107
374 1 14.1518 17.2966 1.57242 -8.94965
375 1 15.7242 15.7242 -1.89027e-06 -8.94962
376 1 17.2966 17.2966 1.57242 -8.94963
507 1 6.28967 18.8691 9.43451 -8.9495
378 1 20.4415 17.2966 1.57242 -8.94963
506 1 3.14484 18.8691 9.43452 -8.94964
380 1 1.57242 20.4415 1.57242 -8.94963
381 1 3.14484 18.8691 -3.86749e-08 -8.94963
382 1 4.71726 20.4415 1.57242 -8.94963
505 1 1.43146e-07 18.8691 9.43453 -8.94964
384 1 7.86211 20.4415 1.57242 -8.94963
385 1 9.43453 18.8691 9.5909e-16 -8.94963
386 1 11.007 20.4415 1.57242 -8.94963
387 1 12.5794 18.8691 -1.82475e-07 -8.94963
388 1 14.1518 20.4415 1.57242 -8.94963
504 1 18.8691 15.7242 9.43453 -8.94962
390 1 17.2966 20.4415 1.57242 -8.94963
391 1 18.8691 18.8691 -3.38166e-08 -8.94963
392 1 20.4415 20.4415 1.57242 -8.94963
393 1 1.57242 11.007 4.71726 -8.94962
394 1 4.71723 11.007 4.71726 -8.94938
395 1 7.86204 11.007 4.71641 -8.95234
396 1 11.007 11.007 4.7121 -8.96179
397 1 14.1516 11.007 4.71755 -8.95015
398 1 17.2966 11.007 4.71726 -8.94954
399 1 20.4415 11.007 4.71726 -8.94963
400 1 -4.79257e-08 12.5794 3.14484 -8.94963
401 1 1.57241 14.1518 4.71726 -8.94964
402 1 3.14485 12.5794 3.14485 -8.94966
403 1 4.71717 14.1519 4.71718 -8.94934
404 1 6.28963 12.5794 3.14474 -8.9498
405 1 7.86201 14.1519 4.71697 -8.94999
406 1 9.43433 12.5796 3.14454 -8.94874
407 1 11.0069 14.1517 4.71725 -8.95025
408 1 12.5796 12.5796 3.14454 -8.94915
409 1 14.152 14.152 4.71703 -8.94873
410 1 15.7242 12.5793 3.14488 -8.94976
411 1 17.2966 14.1518 4.71728 -8.94973
412 1 18.8691 12.5794 3.14484 -8.94963
413 1 20.4415 14.1518 4.71727 -8.94963
414 1 22.0139 15.7242 3.14484 -8.94963
415 1 1.57242 17.2966 4.71726 -8.94964
416 1 3.14484 15.7242 3.14484 -8.9496
417 1 4.71725 17.2967 4.71725 -8.94956
418 1 6.28968 15.7242 3.14482 -8.94962
419 1 7.86212 17.2966 4.71726 -8.94978
420 1 9.43454 15.7242 3.14485 -8.94964
421 1 11.0069 17.2966 4.71725 -8.94964
422 1 12.5794 15.7242 3.14485 -8.94978
423 1 14.1518 17.2967 4.71725 -8.94962
424 1 15.7242 15.7242 3.14482 -8.94954
425 1 17.2966 17.2966 4.71726 -8.9496
426 1 18.8691 15.7242 3.14484 -8.94964
427 1 20.4415 17.2966 4.71726 -8.94963
428 1 1.7406e-07 18.8691 3.14484 -8.94963
429 1 1.57242 20.4415 4.71726 -8.94963
430 1 3.14484 18.8691 3.14484 -8.94963
431 1 4.71726 20.4415 4.71726 -8.94962
432 1 6.28969 18.8691 3.14484 -8.94965
433 1 7.86211 20.4415 4.71727 -8.94964
434 1 9.43453 18.8691 3.14484 -8.94963
435 1 11.0069 20.4415 4.71727 -8.94964
436 1 12.5794 18.8691 3.14484 -8.94964
437 1 14.1518 20.4415 4.71726 -8.94963
438 1 15.7242 18.8691 3.14484 -8.94963
439 1 17.2966 20.4415 4.71726 -8.94963
440 1 18.8691 18.8691 3.14484 -8.94963
441 1 20.4415 20.4415 4.71726 -8.94963
442 1 1.57239 11.007 7.86211 -8.94973
443 1 4.71687 11.007 7.86232 -8.95156
444 1 7.85666 11.007 7.85286 -8.99584
445 1 11.0281 11.007 7.81781 -9.21988
446 1 14.1513 11.007 7.86315 -9.00051
447 1 17.2966 11.007 7.86208 -8.94923
448 1 20.4415 11.007 7.8621 -8.94962
449 1 22.0139 12.5794 6.28969 -8.94965
450 1 1.57243 14.1518 7.86212 -8.94973
451 1 3.14477 12.5794 6.28969 -8.94986
452 1 4.71702 14.1519 7.86197 -8.94955
453 1 6.28871 12.58 6.28874 -8.94779
454 1 7.8601 14.1531 7.85933 -8.98297
455 1 9.4333 12.5803 6.289 -9.00162
456 1 11.0085 14.1523 7.86105 -9.00281
457 1 12.5815 12.5822 6.28816 -8.9825
458 1 14.1526 14.1525 7.86168 -8.94807
459 1 15.7242 12.5793 6.28979 -8.95048
460 1 17.2967 14.1518 7.86207 -8.94972
461 1 18.8691 12.5794 6.28969 -8.94964
462 1 20.4415 14.1518 7.86211 -8.94965
463 1 3.33197e-06 15.7242 6.28969 -8.94964
464 1 1.57242 17.2966 7.8621 -8.9496
465 1 3.14483 15.7242 6.28968 -8.94963
466 1 4.71727 17.2966 7.86212 -8.94976
467 1 6.28949 15.7244 6.28948 -8.94888
468 1 7.86189 17.2969 7.86187 -8.94913
469 1 9.43461 15.7242 6.28979 -8.95027
470 1 11.0071 17.2969 7.86189 -8.94889
471 1 12.5795 15.7245 6.28956 -8.95
472 1 14.1518 17.2967 7.86208 -8.94968
473 1 15.7243 15.7243 6.28961 -8.94937
474 1 17.2966 17.2966 7.86211 -8.94967
475 1 18.8691 15.7242 6.28968 -8.94962
476 1 20.4415 17.2966 7.86211 -8.94963
477 1 22.0139 18.8691 6.28969 -8.94963
478 1 1.57242 20.4415 7.86211 -8.94963
479 1 3.14484 18.8691 6.28969 -8.94965
480 1 4.71726 20.4415 7.86211 -8.94963
481 1 6.28966 18.8691 6.28966 -8.94959
482 1 7.86209 20.4415 7.86209 -8.94966
483 1 9.43453 18.8691 6.28969 -8.9496
484 1 11.007 20.4415 7.86209 -8.94964
485 1 12.5794 18.8691 6.28966 -8.94962
486 1 14.1518 20.4415 7.86211 -8.94965
487 1 15.7242 18.8691 6.28968 -8.94963
488 1 17.2966 20.4415 7.86211 -8.94963
489 1 18.8691 18.8691 6.28969 -8.94964
490 1 20.4415 20.4415 7.86211 -8.94963
491 1 9.38802e-06 12.5794 9.43453 -8.94963
492 1 3.14483 12.5793 9.43463 -8.95005
493 1 6.28809 12.5812 9.43299 -9.03319
494 1 9.4147 12.6242 9.43416 -9.27108
495 1 12.5854 12.5839 9.43392 -8.98216
496 1 15.7249 12.5795 9.43449 -8.95105
497 1 18.8691 12.5794 9.43453 -8.94984
498 1 22.0139 15.7242 9.43452 -8.94962
499 1 3.14479 15.7243 9.43446 -8.9493
500 1 6.28982 15.7242 9.43442 -8.95056
501 1 9.43441 15.7293 9.43464 -8.96233
502 1 12.5797 15.7249 9.43431 -8.95004
503 1 15.7242 15.7242 9.43454 -8.94958
512 1 1.5724 11.007 11.0069 -8.94946
514 1 7.83531 11.007 10.9671 -9.2537
516 1 14.152 11.007 11.0058 -9.00193
519 1 1.57234 14.1518 11.0069 -8.94973
520 1 4.71648 14.1523 11.0065 -8.94915
521 1 7.8586 14.1537 11.009 -9.03519
527 1 4.71724 17.2967 11.0069 -8.94991
528 1 7.86168 17.2972 11.007 -8.94823
531 1 17.2966 17.2966 11.007 -8.94965
534 1 4.71727 20.4415 11.0069 -8.94966
535 1 7.86208 20.4415 11.0069 -8.94966
353 1 3.14484 12.5794 -4.06653e-06 -8.94963
687 2 8.6484 11.007 12.5796 0.833733
513 1 4.71703 11.007 11.0081 -9.00193
686 1 20.4415 20.4415 20.4415 -8.94963
515 1 11.0338 11.007 11.0468 -9.2537
685 1 18.8691 18.8691 18.8691 -8.94963
517 1 17.2967 11.007 11.007 -8.94946
518 1 20.4415 11.007 11.007 -8.94961
684 1 17.2966 20.4415 20.4415 -8.94963
683 1 15.7242 18.8691 18.8691 -8.94963
682 1 14.1518 20.4415 20.4415 -8.94963
522 1 11.0105 14.1537 11.0049 -9.03519
523 1 14.1526 14.1523 11.0074 -8.94915
524 1 17.2967 14.1518 11.007 -8.94973
525 1 20.4415 14.1518 11.007 -8.94967
526 1 1.57242 17.2966 11.007 -8.94965
681 1 12.5794 18.8691 18.8691 -8.94965
680 1 11.007 20.4415 20.4415 -8.94963
529 1 11.0074 17.2972 11.0069 -8.94823
530 1 14.1518 17.2967 11.007 -8.94991
679 1 9.43453 18.8691 18.8691 -8.94963
532 1 20.4415 17.2966 11.007 -8.94963
533 1 1.57242 20.4415 11.007 -8.94963
678 1 7.86211 20.4415 20.4415 -8.94963
677 1 6.28969 18.8691 18.8691 -8.94964
536 1 11.007 20.4415 11.007 -8.94966
537 1 14.1518 20.4415 11.007 -8.94966
676 1 4.71726 20.4415 20.4415 -8.94963
539 1 20.4415 20.4415 11.007 -8.94963
540 1 1.57244 11.007 14.1518 -8.94923
541 1 4.71772 11.007 14.1508 -9.00051
542 1 7.84091 11.007 14.1961 -9.21988
543 1 11.0124 11.007 14.161 -8.99584
544 1 14.1522 11.007 14.1516 -8.95156
545 1 17.2967 11.007 14.1518 -8.94973
546 1 20.4415 11.007 14.1518 -8.94962
547 1 22.0139 12.5794 12.5794 -8.94984
548 1 1.57232 14.1518 14.1518 -8.94972
549 1 3.14413 12.5795 12.5794 -8.95105
550 1 4.71645 14.1525 14.1522 -8.94807
551 1 6.28367 12.5839 12.58 -8.98216
552 1 7.86058 14.1523 14.1529 -9.00281
553 1 9.45436 12.6242 12.5797 -9.27108
554 1 11.009 14.1531 14.1546 -8.98297
555 1 12.581 12.5812 12.5809 -9.03319
556 1 14.152 14.1519 14.1519 -8.94955
557 1 15.7242 12.5793 12.5793 -8.95005
558 1 17.2966 14.1518 14.1518 -8.94973
559 1 18.869 12.5794 12.5794 -8.94963
560 1 20.4415 14.1518 14.1518 -8.94965
561 1 -2.65609e-06 15.7242 12.5794 -8.94962
562 1 1.57242 17.2966 14.1518 -8.94967
563 1 3.14481 15.7242 12.5794 -8.94958
564 1 4.71721 17.2967 14.1518 -8.94968
565 1 6.2894 15.7249 12.5796 -8.95004
566 1 7.86191 17.2969 14.152 -8.94889
567 1 9.43465 15.7293 12.5793 -8.96233
568 1 11.0072 17.2969 14.152 -8.94913
569 1 12.5792 15.7242 12.5795 -8.95056
570 1 14.1518 17.2966 14.1518 -8.94976
571 1 15.7243 15.7243 12.5794 -8.9493
572 1 17.2966 17.2966 14.1518 -8.9496
573 1 18.8691 15.7242 12.5794 -8.94962
574 1 20.4415 17.2966 14.1518 -8.94963
575 1 22.0139 18.8691 12.5794 -8.94963
576 1 1.57242 20.4415 14.1518 -8.94963
577 1 3.14484 18.8691 12.5794 -8.94963
578 1 4.71726 20.4415 14.1518 -8.94965
579 1 6.28967 18.8691 12.5794 -8.94969
580 1 7.8621 20.4415 14.1518 -8.94964
581 1 9.43453 18.8694 12.5794 -8.95107
582 1 11.007 20.4415 14.1518 -8.94966
583 1 12.5794 18.8691 12.5794 -8.9495
584 1 14.1518 20.4415 14.1518 -8.94963
585 1 15.7242 18.8691 12.5794 -8.94964
586 1 17.2966 20.4415 14.1518 -8.94963
587 1 18.8691 18.8691 12.5794 -8.94964
588 1 20.4415 20.4415 14.1518 -8.94963
589 1 1.57243 11.007 17.2966 -8.94954
590 1 4.7175 11.007 17.2964 -8.95015
591 1 7.86208 11.007 17.3018 -8.96179
592 1 11.007 11.007 17.2975 -8.95234
593 1 14.1518 11.007 17.2966 -8.94938
594 1 17.2966 11.007 17.2966 -8.94962
595 1 20.4415 11.007 17.2966 -8.94963
596 1 6.3299e-06 12.5794 15.7242 -8.94964
597 1 1.57243 14.1518 17.2966 -8.94973
598 1 3.14481 12.5793 15.7241 -8.95048
599 1 4.71705 14.152 17.2969 -8.94873
600 1 6.28755 12.5822 15.7257 -8.9825
601 1 7.86218 14.1517 17.2967 -8.95025
602 1 9.43575 12.5803 15.7249 -9.00162
603 1 11.0071 14.1519 17.2969 -8.94999
604 1 12.5803 12.58 15.7252 -8.94779
605 1 14.1519 14.1519 17.2967 -8.94934
606 1 15.7243 12.5794 15.7242 -8.94986
607 1 17.2966 14.1518 17.2966 -8.94964
608 1 18.8691 12.5794 15.7242 -8.94965
609 1 20.4415 14.1518 17.2966 -8.94963
610 1 22.0139 15.7242 15.7242 -8.94962
611 1 1.57242 17.2966 17.2966 -8.9496
612 1 3.14477 15.7243 15.7243 -8.94937
613 1 4.71725 17.2967 17.2966 -8.94962
614 1 6.28957 15.7245 15.7243 -8.95
615 1 7.86212 17.2966 17.2966 -8.94964
616 1 9.43445 15.7242 15.7241 -8.95027
617 1 11.0069 17.2966 17.2966 -8.94978
618 1 12.5796 15.7244 15.7244 -8.94888
619 1 14.1518 17.2967 17.2966 -8.94956
620 1 15.7242 15.7242 15.7242 -8.94963
621 1 17.2966 17.2966 17.2966 -8.94964
622 1 18.8691 15.7242 15.7242 -8.94964
623 1 20.4415 17.2966 17.2966 -8.94963
624 1 4.32752e-07 18.8691 15.7242 -8.94964
625 1 1.57242 20.4415 17.2966 -8.94963
626 1 3.14484 18.8691 15.7242 -8.94963
627 1 4.71726 20.4415 17.2966 -8.94963
628 1 6.28967 18.8691 15.7242 -8.94962
629 1 7.86211 20.4415 17.2966 -8.94964
630 1 9.43453 18.8691 15.7242 -8.9496
631 1 11.0069 20.4415 17.2966 -8.94964
632 1 12.5794 18.8691 15.7242 -8.94959
633 1 14.1518 20.4415 17.2966 -8.94962
634 1 15.7242 18.8691 15.7242 -8.94965
635 1 17.2966 20.4415 17.2966 -8.94963
636 1 18.8691 18.8691 15.7242 -8.94963
637 1 20.4415 20.4415 17.2966 -8.94963
638 1 1.57242 11.007 20.4415 -8.94963
639 1 4.71727 11.007 20.4415 -8.94953
640 1 7.86211 11.007 20.4419 -8.95111
641 1 11.0069 11.007 20.4415 -8.94995
642 1 14.1518 11.007 20.4415 -8.94959
643 1 17.2966 11.007 20.4415 -8.94964
644 1 20.4415 11.007 20.4415 -8.94963
645 1 22.0139 12.5794 18.8691 -8.94963
646 1 1.57242 14.1518 20.4415 -8.94965
647 1 3.14486 12.5793 18.869 -8.94976
648 1 4.71724 14.1518 20.4415 -8.94958
649 1 6.28946 12.5796 18.8694 -8.94915
650 1 7.8621 14.1518 20.4415 -8.94961
651 1 9.43472 12.5796 18.8694 -8.94874
652 1 11.007 14.1518 20.4415 -8.94959
653 1 12.5794 12.5794 18.8692 -8.9498
654 1 14.1518 14.1518 20.4415 -8.94964
655 1 15.7242 12.5794 18.8691 -8.94966
656 1 17.2966 14.1518 20.4415 -8.94964
657 1 18.8691 12.5794 18.8691 -8.94963
658 1 20.4415 14.1518 20.4415 -8.94963
659 1 1.18666e-06 15.7242 18.8691 -8.94964
660 1 1.57242 17.2966 20.4415 -8.94963
661 1 3.14483 15.7242 18.8691 -8.94954
662 1 4.71727 17.2966 20.4415 -8.94965
663 1 6.2897 15.7242 18.8691 -8.94978
664 1 7.86211 17.2966 20.4415 -8.94963
665 1 9.43452 15.7242 18.8691 -8.94964
666 1 11.0069 17.2966 20.4415 -8.94964
667 1 12.5794 15.7242 18.8691 -8.94962
668 1 14.1518 17.2966 20.4415 -8.94963
669 1 15.7242 15.7242 18.8691 -8.9496
670 1 17.2966 17.2966 20.4415 -8.94963
671 1 18.8691 15.7242 18.8691 -8.94963
672 1 20.4415 17.2966 20.4415 -8.94963
673 1 22.0139 18.8691 18.8691 -8.94963
674 1 1.57242 20.4415 20.4415 -8.94963
675 1 3.14484 18.8691 18.8691 -8.94963
351 1 -1.53066e-07 12.5794 22.0139 -8.94963
389 1 15.7242 18.8691 22.0139 -8.94963
355 1 6.28967 12.5794 22.0139 -8.94968
367 1 3.14484 15.7242 22.0139 -8.94962
373 1 12.5794 15.7242 22.0139 -8.94963
377 1 18.8691 15.7242 22.0139 -8.94963
379 1 -4.56864e-08 18.8691 22.0139 -8.94963
383 1 6.28969 18.8691 22.0139 -8.94963
361 1 15.7242 12.5794 22.0139 -8.94963
