ITEM: TIMESTEP
60
ITEM: NUMBER OF ATOMS
688
ITEM: BOX BOUNDS pp pp pp
0.0000000000000000e+00 2.2013900999999997e+01
0.0000000000000000e+00 2.2013900999999997e+01
0.0000000000000000e+00 2.2013900999999997e+01
ITEM: ATOMS id type x y z c_pot
192 1 7.85653 7.85796 11.0098 -9.03298
2 1 1.57242 1.57242 1.57242 -8.94963
3 1 3.14484 5.10052e-16 -5.40266e-08 -8.94963
4 1 4.71726 1.57242 1.57242 -8.94964
175 1 18.8692 9.43454 9.43452 -8.94991
6 1 7.86211 1.57242 1.57242 -8.94963
7 1 9.43453 5.42079e-16 1.57697e-15 -8.94963
8 1 11.007 1.57242 1.57242 -8.94963
191 1 4.71573 7.86118 11.0064 -8.94959
10 1 14.1518 1.57242 1.57242 -8.94964
174 1 15.7254 9.43429 9.43443 -8.9509
12 1 17.2966 1.57242 1.57242 -8.94963
13 1 18.8691 2.34697e-16 -3.14611e-08 -8.94963
14 1 20.4415 1.57242 1.57242 -8.94963
173 1 12.5856 9.42974 9.43359 -8.98204
16 1 1.57242 4.71726 1.57242 -8.94962
17 1 3.14484 3.14484 -7.2723e-07 -8.94964
18 1 4.71726 4.71726 1.57241 -8.94963
172 1 9.41404 9.38443 9.43365 -9.266
20 1 7.86211 4.71726 1.57242 -8.94965
21 1 9.43453 3.14484 1.23313e-15 -8.94963
22 1 11.007 4.71726 1.57241 -8.94963
23 1 12.5794 3.14484 -9.85498e-07 -8.94963
24 1 14.1518 4.71726 1.57242 -8.94967
171 1 6.28633 9.43129 9.43129 -9.03251
26 1 17.2966 4.71726 1.57241 -8.9496
27 1 18.8691 3.14484 -5.15309e-07 -8.94963
28 1 20.4415 4.71726 1.57242 -8.94964
29 1 22.0139 6.28969 -1.3065e-06 -8.94964
30 1 1.57242 7.86211 1.57242 -8.94964
170 1 3.14445 9.43456 9.43461 -8.95036
32 1 4.71722 7.86208 1.57239 -8.94966
33 1 6.28968 6.28967 -1.81524e-05 -8.94962
34 1 7.86203 7.86201 1.57227 -8.94957
35 1 9.43453 6.28968 -1.7188e-18 -8.94964
36 1 11.007 7.86207 1.57238 -8.94957
169 1 -2.7254e-05 9.43453 9.43452 -8.94968
38 1 14.1519 7.86201 1.57228 -8.94956
39 1 15.7242 6.28967 -1.3956e-05 -8.94961
40 1 17.2966 7.86212 1.57243 -8.94968
168 1 18.8691 6.28967 9.43453 -8.94962
42 1 20.4415 7.86211 1.57242 -8.94963
167 1 15.7244 6.28953 9.43454 -8.94945
166 1 12.5802 6.28826 9.43387 -8.94928
165 1 9.43418 6.28169 9.4346 -8.96405
46 1 9.43453 9.43442 1.36941e-15 -8.94969
47 1 12.5794 9.43448 -8.42005e-05 -8.94978
190 1 1.57217 7.86201 11.0069 -8.94982
49 1 18.8691 9.43453 -3.8059e-07 -8.94963
50 1 22.0139 1.29216e-15 3.14484 -8.94963
51 1 1.57242 1.57242 4.71727 -8.94964
52 1 3.14484 1.41954e-15 3.14484 -8.94962
53 1 4.71725 1.5724 4.71725 -8.94961
54 1 6.28969 9.84911e-16 3.14484 -8.94964
55 1 7.86211 1.57242 4.71726 -8.94963
56 1 9.43453 9.77416e-17 3.14484 -8.94964
57 1 11.0069 1.57242 4.71726 -8.94963
58 1 12.5794 3.48322e-16 3.14484 -8.94964
59 1 14.1518 1.5724 4.71725 -8.94962
60 1 15.7242 -7.60113e-16 3.14484 -8.94963
61 1 17.2966 1.57242 4.71726 -8.94963
62 1 18.8691 4.64755e-16 3.14484 -8.94963
63 1 20.4415 1.57242 4.71726 -8.94963
64 1 -2.9478e-07 3.14484 3.14484 -8.94963
65 1 1.57241 4.71726 4.71726 -8.94962
66 1 3.14484 3.14483 3.14484 -8.9496
67 1 4.71719 4.71716 4.71718 -8.9494
68 1 6.28969 3.14484 3.14484 -8.94968
69 1 7.86213 4.71724 4.71722 -8.94987
70 1 9.43453 3.14483 3.14483 -8.94963
71 1 11.0069 4.71723 4.71719 -8.94961
72 1 12.5794 3.14484 3.14484 -8.94965
73 1 14.1519 4.71714 4.71719 -8.94961
74 1 15.7242 3.14483 3.14483 -8.94962
75 1 17.2967 4.71725 4.71724 -8.94958
76 1 18.8691 3.14484 3.14484 -8.94963
77 1 20.4415 4.71726 4.71726 -8.94963
78 1 22.0139 6.28969 3.14484 -8.94964
79 1 1.57239 7.8621 4.71726 -8.94967
80 1 3.14481 6.28965 3.14481 -8.94956
81 1 4.71698 7.86186 4.71697 -8.94921
82 1 6.28963 6.28962 3.14473 -8.94962
83 1 7.8618 7.86177 4.71648 -8.95014
84 1 9.43454 6.28961 3.14481 -8.9496
85 1 11.0068 7.86207 4.71691 -8.95016
86 1 12.5794 6.28964 3.14481 -8.94986
87 1 14.1525 7.86143 4.71658 -8.94803
88 1 15.7243 6.2896 3.14474 -8.94936
89 1 17.2967 7.86211 4.71726 -8.94982
90 1 18.8691 6.28969 3.14484 -8.94966
91 1 20.4415 7.86211 4.71726 -8.94965
92 1 -2.64382e-06 9.43453 3.14484 -8.94963
93 1 3.14482 9.43453 3.14484 -8.94964
94 1 6.28951 9.43445 3.14454 -8.94996
95 1 9.43414 9.43402 3.14405 -8.94837
96 1 12.5799 9.43403 3.14398 -8.94917
97 1 15.7242 9.43458 3.14489 -8.94979
98 1 18.8691 9.43453 3.14484 -8.94962
99 1 -7.08792e-07 6.25054e-16 6.28969 -8.94963
100 1 1.57242 1.57242 7.8621 -8.94963
101 1 3.14484 1.13844e-15 6.28969 -8.94963
102 1 4.71725 1.57241 7.8621 -8.9496
103 1 6.28967 1.43295e-15 6.28967 -8.94966
104 1 7.86206 1.57231 7.86206 -8.94974
105 1 9.43453 -3.1256e-16 6.28968 -8.94961
106 1 11.007 1.57232 7.86205 -8.94966
107 1 12.5794 2.54426e-16 6.28967 -8.94966
108 1 14.1518 1.57238 7.86209 -8.94965
109 1 15.7242 1.58192e-15 6.28968 -8.94963
110 1 17.2966 1.57242 7.86211 -8.94964
111 1 18.8691 5.56219e-16 6.28969 -8.94963
112 1 20.4415 1.57242 7.86211 -8.94963
113 1 22.0139 3.14484 6.28968 -8.94963
114 1 1.5724 4.71725 7.86209 -8.94957
115 1 3.14484 3.14484 6.28969 -8.94967
116 1 4.7172 4.7172 7.8621 -8.94979
117 1 6.28959 3.1447 6.28958 -8.94956
118 1 7.86162 4.71639 7.86153 -8.9491
119 1 9.43454 3.14479 6.28966 -8.94954
120 1 11.0074 4.71656 7.86162 -8.94859
121 1 12.5794 3.1447 6.2896 -8.94964
122 1 14.152 4.71697 7.862 -8.94958
123 1 15.7242 3.1448 6.28966 -8.94961
124 1 17.2967 4.71725 7.8621 -8.94967
125 1 18.8691 3.14484 6.28969 -8.94964
126 1 20.4415 4.71726 7.8621 -8.94963
127 1 -1.18443e-06 6.28969 6.28969 -8.94967
128 1 1.57235 7.86211 7.86212 -8.94986
129 1 3.14471 6.2896 6.28959 -8.94953
130 1 4.71632 7.86152 7.86152 -8.94925
131 1 6.28907 6.289 6.28901 -8.94826
132 1 7.85866 7.85904 7.85767 -8.98147
133 1 9.43468 6.2894 6.2897 -8.95015
134 1 11.0092 7.86074 7.85999 -9.00225
135 1 12.5797 6.28887 6.28925 -8.9502
136 1 14.1532 7.86094 7.86155 -8.948
137 1 15.7244 6.28952 6.28952 -8.94925
138 1 17.2969 7.86199 7.86203 -8.94976
139 1 18.8691 6.28966 6.28966 -8.94962
140 1 20.4415 7.8621 7.8621 -8.94969
141 1 22.0139 9.43453 6.28968 -8.94967
142 1 3.14461 9.43453 6.28964 -8.94994
143 1 6.28794 9.43361 6.28781 -8.94781
144 1 9.43296 9.43272 6.288 -9.00052
145 1 12.5831 9.43028 6.2864 -8.98118
146 1 15.7245 9.4346 6.28976 -8.95087
147 1 18.8691 9.43454 6.28968 -8.94968
148 1 3.20388e-08 -2.70214e-16 9.43453 -8.94963
149 1 3.14484 1.16135e-15 9.43453 -8.94965
150 1 6.28966 -8.98558e-16 9.43451 -8.9496
151 1 9.43453 -2.50893e-16 9.43452 -8.95006
152 1 12.5794 1.65894e-15 9.43451 -8.94967
153 1 15.7242 1.95431e-15 9.43453 -8.94964
154 1 18.8691 1.19237e-15 9.43453 -8.94963
155 1 -1.36251e-06 3.14484 9.43453 -8.94964
156 1 3.14482 3.14481 9.43451 -8.94965
157 1 6.28959 3.14469 9.43444 -8.94937
158 1 9.43453 3.14389 9.43451 -8.95177
159 1 12.5795 3.14458 9.43443 -8.94964
160 1 15.7242 3.14482 9.43454 -8.94964
161 1 18.8691 3.14484 9.43453 -8.94964
162 1 22.0139 6.28966 9.43451 -8.94962
163 1 3.14465 6.28951 9.43438 -8.94913
164 1 6.28953 6.28911 9.43421 -8.95033
177 1 4.71726 1.57241 11.0069 -8.94967
178 1 7.86201 1.57221 11.0069 -8.94976
181 1 17.2966 1.57242 11.007 -8.94963
184 1 4.71713 4.71712 11.0069 -8.95003
185 1 7.86116 4.71573 11.007 -8.94783
188 1 17.2967 4.71725 11.007 -8.94964
5 1 6.28969 -5.06411e-17 -2.1041e-08 -8.94963
44 1 3.14484 9.43454 -9.91679e-06 -8.94962
176 1 1.57242 1.57242 11.007 -8.94963
343 1 18.8691 9.43453 18.8691 -8.94963
342 1 15.7242 9.43453 18.8691 -8.94964
179 1 11.007 1.57221 11.007 -8.94976
180 1 14.1518 1.57241 11.007 -8.94967
341 1 12.5795 9.43445 18.8694 -8.94996
182 1 20.4415 1.57242 11.007 -8.94963
183 1 1.57241 4.71725 11.0069 -8.94964
340 1 9.43492 9.43402 18.8699 -8.94837
339 1 6.28917 9.43403 18.8699 -8.94917
186 1 11.0079 4.71573 11.0069 -8.94783
187 1 14.1519 4.71712 11.007 -8.95003
338 1 3.14484 9.43458 18.869 -8.94979
189 1 20.4415 4.71726 11.007 -8.94963
337 1 22.0139 9.43453 18.8691 -8.94962
336 1 20.4415 7.86211 20.4415 -8.94963
335 1 18.8691 6.28969 18.8691 -8.94964
193 1 11.0125 7.85796 11.0042 -9.03298
194 1 14.1533 7.86118 11.0075 -8.94959
195 1 17.2969 7.86201 11.007 -8.94982
196 1 20.4415 7.8621 11.007 -8.94973
197 1 22.0139 1.08801e-15 12.5794 -8.94963
198 1 1.57242 1.57242 14.1518 -8.94964
199 1 3.14484 2.06029e-15 12.5794 -8.94964
200 1 4.71724 1.57238 14.1518 -8.94965
201 1 6.28966 1.73845e-15 12.5794 -8.94967
202 1 7.86207 1.57232 14.1518 -8.94966
203 1 9.43453 -6.07298e-16 12.5794 -8.95006
204 1 11.007 1.57231 14.1518 -8.94974
205 1 12.5794 9.35393e-17 12.5794 -8.9496
206 1 14.1518 1.57241 14.1518 -8.9496
207 1 15.7242 1.95174e-15 12.5794 -8.94965
208 1 17.2966 1.57242 14.1518 -8.94963
209 1 18.8691 6.8946e-16 12.5794 -8.94963
210 1 20.4415 1.57242 14.1518 -8.94963
211 1 22.0139 3.14484 12.5794 -8.94964
212 1 1.5724 4.71725 14.1518 -8.94967
213 1 3.14483 3.14482 12.5794 -8.94964
214 1 4.71705 4.71697 14.1519 -8.94958
215 1 6.28958 3.14458 12.5795 -8.94964
216 1 7.8617 4.71656 14.1523 -8.94859
217 1 9.43453 3.14389 12.5794 -8.95177
218 1 11.0074 4.71639 14.1524 -8.9491
219 1 12.5795 3.14469 12.5795 -8.94937
220 1 14.1519 4.7172 14.1518 -8.94979
221 1 15.7242 3.14481 12.5794 -8.94965
222 1 17.2967 4.71725 14.1518 -8.94957
223 1 18.8691 3.14484 12.5794 -8.94964
224 1 20.4415 4.71726 14.1518 -8.94963
225 1 -2.83857e-05 6.28967 12.5794 -8.94962
226 1 1.57216 7.86199 14.1519 -8.94976
227 1 3.14463 6.28953 12.5794 -8.94945
228 1 4.71585 7.86094 14.1523 -8.948
229 1 6.28891 6.28826 12.58 -8.94928
230 1 7.85981 7.86074 14.1539 -9.00225
231 1 9.43488 6.28169 12.5793 -8.96405
232 1 11.0104 7.85904 14.1562 -8.98147
233 1 12.5795 6.28911 12.5797 -8.95033
234 1 14.1527 7.86152 14.1524 -8.94925
235 1 15.7244 6.28951 12.5795 -8.94913
236 1 17.2967 7.86211 14.1518 -8.94986
237 1 18.8691 6.28966 12.5794 -8.94962
238 1 20.4415 7.8621 14.1518 -8.94969
239 1 22.0138 9.43454 12.5794 -8.94991
240 1 3.14369 9.43429 12.5795 -8.9509
241 1 6.28347 9.42974 12.5803 -8.98204
242 1 9.45502 9.38443 12.5803 -9.266
243 1 12.5827 9.43129 12.5826 -9.03251
244 1 15.7246 9.43456 12.5793 -8.95036
245 1 18.8691 9.43453 12.5794 -8.94968
246 1 1.39407e-07 9.67562e-16 15.7242 -8.94963
247 1 1.57242 1.57242 17.2966 -8.94963
248 1 3.14484 1.49025e-15 15.7242 -8.94963
249 1 4.71725 1.5724 17.2966 -8.94962
250 1 6.28967 7.60242e-16 15.7242 -8.94966
251 1 7.86211 1.57242 17.2966 -8.94963
252 1 9.43453 -2.3654e-16 15.7242 -8.94961
253 1 11.0069 1.57242 17.2966 -8.94963
254 1 12.5794 1.8124e-15 15.7242 -8.94966
255 1 14.1518 1.5724 17.2967 -8.94961
256 1 15.7242 1.43832e-15 15.7242 -8.94963
257 1 17.2966 1.57242 17.2966 -8.94964
258 1 18.8691 7.6715e-16 15.7242 -8.94963
259 1 20.4415 1.57242 17.2966 -8.94963
260 1 -9.55097e-07 3.14484 15.7242 -8.94964
261 1 1.5724 4.71725 17.2967 -8.94958
262 1 3.14481 3.1448 15.7242 -8.94961
263 1 4.71719 4.71714 17.2967 -8.94961
264 1 6.28962 3.1447 15.7243 -8.94964
265 1 7.86213 4.71723 17.2967 -8.94961
266 1 9.43452 3.14479 15.7242 -8.94954
267 1 11.0069 4.71724 17.2967 -8.94987
268 1 12.5795 3.1447 15.7243 -8.94956
269 1 14.1519 4.71716 17.2967 -8.9494
270 1 15.7242 3.14484 15.7242 -8.94967
271 1 17.2966 4.71726 17.2966 -8.94962
272 1 18.8691 3.14484 15.7242 -8.94963
273 1 20.4415 4.71726 17.2966 -8.94963
274 1 22.0139 6.28966 15.7242 -8.94962
275 1 1.57237 7.86211 17.2966 -8.94982
276 1 3.14463 6.28952 15.7244 -8.94925
277 1 4.71659 7.86143 17.2973 -8.94803
278 1 6.28931 6.28887 15.7246 -8.9502
279 1 7.86221 7.86207 17.297 -8.95016
280 1 9.43437 6.2894 15.7242 -8.95015
281 1 11.0073 7.86177 17.2974 -8.95014
282 1 12.58 6.289 15.7249 -8.94826
283 1 14.1521 7.86186 17.2969 -8.94921
284 1 15.7243 6.2896 15.7243 -8.94953
285 1 17.2967 7.8621 17.2966 -8.94967
286 1 18.8691 6.28969 15.7242 -8.94967
287 1 20.4415 7.86211 17.2966 -8.94965
288 1 -2.30734e-05 9.43454 15.7242 -8.94968
289 1 3.14453 9.4346 15.7241 -8.95087
290 1 6.28597 9.43028 15.7275 -8.98118
291 1 9.43609 9.43272 15.7259 -9.00052
292 1 12.5811 9.43361 15.7261 -8.94781
293 1 15.7244 9.43453 15.7243 -8.94994
294 1 18.8691 9.43453 15.7242 -8.94967
295 1 22.0139 4.67071e-16 18.8691 -8.94963
296 1 1.57242 1.57242 20.4415 -8.94963
297 1 3.14484 -8.63093e-16 18.8691 -8.94963
298 1 4.71727 1.57242 20.4415 -8.94964
299 1 6.28969 3.13964e-16 18.8691 -8.94964
300 1 7.86211 1.57242 20.4415 -8.94963
301 1 9.43453 -1.06285e-16 18.8691 -8.94964
302 1 11.007 1.57242 20.4415 -8.94963
303 1 12.5794 1.27096e-15 18.8691 -8.94964
304 1 14.1518 1.57242 20.4415 -8.94964
305 1 15.7242 1.82173e-15 18.8691 -8.94962
306 1 17.2966 1.57242 20.4415 -8.94963
307 1 18.8691 6.61409e-16 18.8691 -8.94963
308 1 20.4415 1.57242 20.4415 -8.94963
309 1 22.0139 3.14484 18.8691 -8.94963
310 1 1.57241 4.71726 20.4415 -8.9496
311 1 3.14483 3.14483 18.8691 -8.94962
312 1 4.71727 4.71726 20.4415 -8.94967
313 1 6.28969 3.14484 18.8691 -8.94965
314 1 7.86211 4.71726 20.4415 -8.94963
315 1 9.43453 3.14483 18.8691 -8.94963
316 1 11.0069 4.71726 20.4415 -8.94965
317 1 12.5794 3.14484 18.8691 -8.94968
318 1 14.1518 4.71726 20.4415 -8.94963
319 1 15.7242 3.14483 18.8691 -8.9496
320 1 17.2966 4.71726 20.4415 -8.94962
321 1 18.8691 3.14484 18.8691 -8.94963
322 1 20.4415 4.71726 20.4415 -8.94964
323 1 -3.73856e-06 6.28969 18.8691 -8.94966
324 1 1.57242 7.86212 20.4415 -8.94968
325 1 3.14476 6.2896 18.8692 -8.94936
326 1 4.71716 7.86201 20.4416 -8.94956
327 1 6.2897 6.28964 18.8691 -8.94986
328 1 7.8621 7.86207 20.4415 -8.94957
329 1 9.43451 6.28961 18.8691 -8.9496
330 1 11.007 7.86201 20.4416 -8.94957
331 1 12.5794 6.28962 18.8692 -8.94962
332 1 14.1518 7.86208 20.4415 -8.94966
333 1 15.7243 6.28965 18.8691 -8.94956
334 1 17.2966 7.86211 20.4415 -8.94964
45 1 6.28963 9.43448 22.014 -8.94978
11 1 15.7242 3.25839e-16 22.0139 -8.94963
15 1 -8.11327e-07 3.14484 22.0139 -8.94963
19 1 6.28969 3.14484 22.0139 -8.94963
25 1 15.7242 3.14484 22.0139 -8.94964
31 1 3.14483 6.28967 22.0139 -8.94961
37 1 12.5794 6.28967 22.0139 -8.94962
41 1 18.8691 6.28969 22.0139 -8.94964
43 1 -4.50604e-07 9.43453 22.0139 -8.94963
1 1 -1.28688e-07 2.34405e-16 22.0139 -8.94963
9 1 12.5794 -4.86921e-17 22.0139 -8.94963
48 1 15.7242 9.43454 22.0139 -8.94962
344 1 1.57242 11.007 1.57242 -8.94965
345 1 4.71724 11.007 1.57239 -8.94955
346 1 7.8621 11.007 1.5723 -8.95018
347 1 11.0069 11.007 1.57152 -8.95185
348 1 14.1518 11.007 1.57242 -8.94941
349 1 17.2966 11.007 1.57242 -8.94964
350 1 20.4415 11.007 1.57242 -8.94963
688 2 10.2203 11.007 9.43418 0.799271
352 1 1.57242 14.1518 1.57242 -8.94964
511 1 18.8691 18.8691 9.43453 -8.94964
354 1 4.71722 14.1518 1.57239 -8.94966
510 1 15.7242 18.8691 9.43454 -8.94964
356 1 7.86203 14.1519 1.57227 -8.94957
357 1 9.43453 12.5795 1.33148e-15 -8.94969
358 1 11.007 14.1518 1.57238 -8.94957
359 1 12.5794 12.5794 -8.42005e-05 -8.94978
360 1 14.1519 14.1519 1.57228 -8.94956
538 1 17.2966 20.4415 11.007 -8.94963
362 1 17.2966 14.1518 1.57243 -8.94968
363 1 18.8691 12.5794 -3.8059e-07 -8.94963
364 1 20.4415 14.1518 1.57242 -8.94963
365 1 22.0139 15.7242 -1.3065e-06 -8.94964
366 1 1.57242 17.2966 1.57242 -8.94962
509 1 12.5795 18.8693 9.43443 -8.94964
368 1 4.71726 17.2966 1.57241 -8.94963
369 1 6.28968 15.7242 -1.81524e-05 -8.94962
370 1 7.86211 17.2966 1.57242 -8.94965
371 1 9.43453 15.7242 7.92675e-17 -8.94964
372 1 11.007 17.2966 1.57241 -8.94963
508 1 9.43453 18.87 9.43451 -8.95177
374 1 14.1518 17.2966 1.57242 -8.94967
375 1 15.7242 15.7242 -1.3956e-05 -8.94961
376 1 17.2966 17.2966 1.57241 -8.9496
507 1 6.28959 18.8692 9.43444 -8.94937
378 1 20.4415 17.2966 1.57242 -8.94964
506 1 3.14482 18.8691 9.43451 -8.94965
380 1 1.57242 20.4415 1.57242 -8.94963
381 1 3.14484 18.8691 -7.2723e-07 -8.94964
382 1 4.71726 20.4415 1.57242 -8.94964
505 1 -1.36251e-06 18.8691 9.43453 -8.94964
384 1 7.86211 20.4415 1.57242 -8.94963
385 1 9.43453 18.8691 1.09499e-15 -8.94963
386 1 11.007 20.4415 1.57242 -8.94963
387 1 12.5794 18.8691 -9.85498e-07 -8.94963
388 1 14.1518 20.4415 1.57242 -8.94964
504 1 18.8691 15.7242 9.43453 -8.94962
390 1 17.2966 20.4415 1.57242 -8.94963
391 1 18.8691 18.8691 -5.15309e-07 -8.94963
392 1 20.4415 20.4415 1.57242 -8.94963
393 1 1.57239 11.007 4.71725 -8.94961
394 1 4.71707 11.007 4.7171 -8.94905
395 1 7.86198 11.007 4.71559 -8.95301
396 1 11.0071 11.007 4.70942 -8.96354
397 1 14.1517 11.007 4.7174 -8.9497
398 1 17.2966 11.007 4.71724 -8.94947
399 1 20.4415 11.007 4.71726 -8.94963
400 1 -2.64382e-06 12.5794 3.14484 -8.94963
401 1 1.57239 14.1518 4.71726 -8.94967
402 1 3.14482 12.5794 3.14484 -8.94964
403 1 4.71698 14.152 4.71697 -8.94921
404 1 6.28951 12.5794 3.14454 -8.94996
405 1 7.8618 14.1521 4.71648 -8.95014
406 1 9.43414 12.5799 3.14405 -8.94837
407 1 11.0068 14.1518 4.71691 -8.95016
408 1 12.5799 12.5799 3.14398 -8.94917
409 1 14.1525 14.1525 4.71658 -8.94803
410 1 15.7242 12.5793 3.14489 -8.94979
411 1 17.2967 14.1518 4.71726 -8.94982
412 1 18.8691 12.5794 3.14484 -8.94962
413 1 20.4415 14.1518 4.71726 -8.94965
414 1 22.0139 15.7242 3.14484 -8.94964
415 1 1.57241 17.2966 4.71726 -8.94962
416 1 3.14481 15.7243 3.14481 -8.94956
417 1 4.71719 17.2967 4.71718 -8.9494
418 1 6.28963 15.7243 3.14473 -8.94962
419 1 7.86213 17.2967 4.71722 -8.94987
420 1 9.43454 15.7243 3.14481 -8.9496
421 1 11.0069 17.2967 4.71719 -8.94961
422 1 12.5794 15.7243 3.14481 -8.94986
423 1 14.1519 17.2968 4.71719 -8.94961
424 1 15.7243 15.7243 3.14474 -8.94936
425 1 17.2967 17.2967 4.71724 -8.94958
426 1 18.8691 15.7242 3.14484 -8.94966
427 1 20.4415 17.2966 4.71726 -8.94963
428 1 -2.9478e-07 18.8691 3.14484 -8.94963
429 1 1.57242 20.4415 4.71727 -8.94964
430 1 3.14484 18.8691 3.14484 -8.9496
431 1 4.71725 20.4415 4.71725 -8.94961
432 1 6.28969 18.8691 3.14484 -8.94968
433 1 7.86211 20.4415 4.71726 -8.94963
434 1 9.43453 18.8691 3.14483 -8.94963
435 1 11.0069 20.4415 4.71726 -8.94963
436 1 12.5794 18.8691 3.14484 -8.94965
437 1 14.1518 20.4415 4.71725 -8.94962
438 1 15.7242 18.8691 3.14483 -8.94962
439 1 17.2966 20.4415 4.71726 -8.94963
440 1 18.8691 18.8691 3.14484 -8.94963
441 1 20.4415 20.4415 4.71726 -8.94963
442 1 1.5723 11.007 7.86209 -8.94971
443 1 4.71646 11.007 7.86209 -8.95098
444 1 7.85665 11.007 7.85006 -8.9974
445 1 11.0293 11.007 7.81303 -9.21548
446 1 14.1518 11.007 7.86302 -9.00098
447 1 17.2968 11.007 7.86206 -8.94915
448 1 20.4415 11.007 7.8621 -8.94963
449 1 22.0139 12.5794 6.28968 -8.94967
450 1 1.57235 14.1518 7.86212 -8.94986
451 1 3.14461 12.5794 6.28964 -8.94994
452 1 4.71632 14.1524 7.86152 -8.94925
453 1 6.28794 12.5803 6.28781 -8.94781
454 1 7.85866 14.1549 7.85767 -8.98147
455 1 9.43296 12.5812 6.288 -9.00052
456 1 11.0092 14.1532 7.85999 -9.00225
457 1 12.5831 12.5836 6.2864 -8.98118
458 1 14.1532 14.153 7.86155 -8.948
459 1 15.7245 12.5793 6.28976 -8.95087
460 1 17.2969 14.1519 7.86203 -8.94976
461 1 18.8691 12.5794 6.28968 -8.94968
462 1 20.4415 14.1518 7.8621 -8.94969
463 1 -1.18443e-06 15.7242 6.28969 -8.94967
464 1 1.5724 17.2967 7.86209 -8.94957
465 1 3.14471 15.7243 6.28959 -8.94953
466 1 4.7172 17.2967 7.8621 -8.94979
467 1 6.28907 15.7249 6.28901 -8.94826
468 1 7.86162 17.2975 7.86153 -8.9491
469 1 9.43468 15.7245 6.2897 -8.95015
470 1 11.0074 17.2973 7.86162 -8.94859
471 1 12.5797 15.725 6.28925 -8.9502
472 1 14.152 17.2969 7.862 -8.94958
473 1 15.7244 15.7244 6.28952 -8.94925
474 1 17.2967 17.2967 7.8621 -8.94967
475 1 18.8691 15.7242 6.28966 -8.94962
476 1 20.4415 17.2966 7.8621 -8.94963
477 1 22.0139 18.8691 6.28968 -8.94963
478 1 1.57242 20.4415 7.8621 -8.94963
479 1 3.14484 18.8691 6.28969 -8.94967
480 1 4.71725 20.4415 7.8621 -8.9496
481 1 6.28959 18.8692 6.28958 -8.94956
482 1 7.86206 20.4416 7.86206 -8.94974
483 1 9.43454 18.8691 6.28966 -8.94954
484 1 11.007 20.4416 7.86205 -8.94966
485 1 12.5794 18.8692 6.2896 -8.94964
486 1 14.1518 20.4415 7.86209 -8.94965
487 1 15.7242 18.8691 6.28966 -8.94961
488 1 17.2966 20.4415 7.86211 -8.94964
489 1 18.8691 18.8691 6.28969 -8.94964
490 1 20.4415 20.4415 7.86211 -8.94963
491 1 -2.7254e-05 12.5794 9.43452 -8.94968
492 1 3.14445 12.5793 9.43461 -8.95036
493 1 6.28633 12.5826 9.43129 -9.03251
494 1 9.41404 12.6295 9.43365 -9.266
495 1 12.5856 12.5842 9.43359 -8.98204
496 1 15.7254 12.5796 9.43443 -8.9509
497 1 18.8692 12.5794 9.43452 -8.94991
498 1 22.0139 15.7242 9.43451 -8.94962
499 1 3.14465 15.7244 9.43438 -8.94913
500 1 6.28953 15.7248 9.43421 -8.95033
501 1 9.43418 15.7322 9.4346 -8.96405
502 1 12.5802 15.7256 9.43387 -8.94928
503 1 15.7244 15.7244 9.43454 -8.94945
512 1 1.57221 11.007 11.0069 -8.94947
514 1 7.83435 11.007 10.9625 -9.24942
516 1 14.1527 11.007 11.0057 -9.00248
519 1 1.57217 14.1519 11.0069 -8.94982
520 1 4.71573 14.1527 11.0064 -8.94959
521 1 7.85653 14.1559 11.0098 -9.03298
527 1 4.71713 17.2968 11.0069 -8.95003
528 1 7.86116 17.2982 11.007 -8.94783
531 1 17.2967 17.2967 11.007 -8.94964
534 1 4.71726 20.4415 11.0069 -8.94967
535 1 7.86201 20.4417 11.0069 -8.94976
353 1 3.14484 12.5794 -9.91679e-06 -8.94962
687 2 8.64881 11.007 12.5797 0.799271
513 1 4.71636 11.007 11.0082 -9.00248
686 1 20.4415 20.4415 20.4415 -8.94963
515 1 11.0347 11.007 11.0514 -9.24942
685 1 18.8691 18.8691 18.8691 -8.94963
517 1 17.2969 11.007 11.007 -8.94947
518 1 20.4415 11.007 11.007 -8.94965
684 1 17.2966 20.4415 20.4415 -8.94963
683 1 15.7242 18.8691 18.8691 -8.9496
682 1 14.1518 20.4415 20.4415 -8.94964
522 1 11.0125 14.1559 11.0042 -9.03298
523 1 14.1533 14.1527 11.0075 -8.94959
524 1 17.2969 14.1519 11.007 -8.94982
525 1 20.4415 14.1518 11.007 -8.94973
526 1 1.57241 17.2967 11.0069 -8.94964
681 1 12.5794 18.8691 18.8691 -8.94968
680 1 11.007 20.4415 20.4415 -8.94963
529 1 11.0079 17.2982 11.0069 -8.94783
530 1 14.1519 17.2968 11.007 -8.95003
679 1 9.43453 18.8691 18.8691 -8.94963
532 1 20.4415 17.2966 11.007 -8.94963
533 1 1.57242 20.4415 11.007 -8.94963
678 1 7.86211 20.4415 20.4415 -8.94963
677 1 6.28969 18.8691 18.8691 -8.94965
536 1 11.007 20.4417 11.007 -8.94976
537 1 14.1518 20.4415 11.007 -8.94967
676 1 4.71727 20.4415 20.4415 -8.94964
539 1 20.4415 20.4415 11.007 -8.94963
540 1 1.5723 11.007 14.1518 -8.94915
541 1 4.71729 11.007 14.1509 -9.00098
542 1 7.83973 11.007 14.2009 -9.21548
543 1 11.0124 11.007 14.1638 -8.9974
544 1 14.1526 11.007 14.1518 -8.95098
545 1 17.2968 11.007 14.1518 -8.94971
546 1 20.4415 11.007 14.1518 -8.94963
547 1 22.0138 12.5794 12.5794 -8.94991
548 1 1.57216 14.1519 14.1519 -8.94976
549 1 3.14369 12.5796 12.5795 -8.9509
550 1 4.71585 14.153 14.1523 -8.948
551 1 6.28347 12.5842 12.5803 -8.98204
552 1 7.85981 14.1532 14.1539 -9.00225
553 1 9.45502 12.6295 12.5803 -9.266
554 1 11.0104 14.1549 14.1562 -8.98147
555 1 12.5827 12.5826 12.5826 -9.03251
556 1 14.1527 14.1524 14.1524 -8.94925
557 1 15.7246 12.5793 12.5793 -8.95036
558 1 17.2967 14.1518 14.1518 -8.94986
559 1 18.8691 12.5794 12.5794 -8.94968
560 1 20.4415 14.1518 14.1518 -8.94969
561 1 -2.83857e-05 15.7242 12.5794 -8.94962
562 1 1.5724 17.2967 14.1518 -8.94967
563 1 3.14463 15.7244 12.5794 -8.94945
564 1 4.71705 17.2969 14.1519 -8.94958
565 1 6.28891 15.7256 12.58 -8.94928
566 1 7.8617 17.2973 14.1523 -8.94859
567 1 9.43488 15.7322 12.5793 -8.96405
568 1 11.0074 17.2975 14.1524 -8.9491
569 1 12.5795 15.7248 12.5797 -8.95033
570 1 14.1519 17.2967 14.1518 -8.94979
571 1 15.7244 15.7244 12.5795 -8.94913
572 1 17.2967 17.2967 14.1518 -8.94957
573 1 18.8691 15.7242 12.5794 -8.94962
574 1 20.4415 17.2966 14.1518 -8.94963
575 1 22.0139 18.8691 12.5794 -8.94964
576 1 1.57242 20.4415 14.1518 -8.94964
577 1 3.14483 18.8691 12.5794 -8.94964
578 1 4.71724 20.4415 14.1518 -8.94965
579 1 6.28958 18.8693 12.5795 -8.94964
580 1 7.86207 20.4416 14.1518 -8.94966
581 1 9.43453 18.87 12.5794 -8.95177
582 1 11.007 20.4416 14.1518 -8.94974
583 1 12.5795 18.8692 12.5795 -8.94937
584 1 14.1518 20.4415 14.1518 -8.9496
585 1 15.7242 18.8691 12.5794 -8.94965
586 1 17.2966 20.4415 14.1518 -8.94963
587 1 18.8691 18.8691 12.5794 -8.94964
588 1 20.4415 20.4415 14.1518 -8.94963
589 1 1.57241 11.007 17.2967 -8.94947
590 1 4.71738 11.007 17.2965 -8.9497
591 1 7.86191 11.007 17.3045 -8.96354
592 1 11.0071 11.007 17.2983 -8.95301
593 1 14.152 11.007 17.2968 -8.94905
594 1 17.2967 11.007 17.2967 -8.94961
595 1 20.4415 11.007 17.2966 -8.94963
596 1 -2.30734e-05 12.5794 15.7242 -8.94968
597 1 1.57237 14.1518 17.2966 -8.94982
598 1 3.14453 12.5793 15.7241 -8.95087
599 1 4.71659 14.1525 17.2973 -8.94803
600 1 6.28597 12.5836 15.7275 -8.98118
601 1 7.86221 14.1518 17.297 -8.95016
602 1 9.43609 12.5812 15.7259 -9.00052
603 1 11.0073 14.1521 17.2974 -8.95014
604 1 12.5811 12.5803 15.7261 -8.94781
605 1 14.1521 14.152 17.2969 -8.94921
606 1 15.7244 12.5794 15.7243 -8.94994
607 1 17.2967 14.1518 17.2966 -8.94967
608 1 18.8691 12.5794 15.7242 -8.94967
609 1 20.4415 14.1518 17.2966 -8.94965
610 1 22.0139 15.7242 15.7242 -8.94962
611 1 1.5724 17.2967 17.2967 -8.94958
612 1 3.14463 15.7244 15.7244 -8.94925
613 1 4.71719 17.2968 17.2967 -8.94961
614 1 6.28931 15.725 15.7246 -8.9502
615 1 7.86213 17.2967 17.2967 -8.94961
616 1 9.43437 15.7245 15.7242 -8.95015
617 1 11.0069 17.2967 17.2967 -8.94987
618 1 12.58 15.7249 15.7249 -8.94826
619 1 14.1519 17.2967 17.2967 -8.9494
620 1 15.7243 15.7243 15.7243 -8.94953
621 1 17.2966 17.2966 17.2966 -8.94962
622 1 18.8691 15.7242 15.7242 -8.94967
623 1 20.4415 17.2966 17.2966 -8.94963
624 1 -9.55097e-07 18.8691 15.7242 -8.94964
625 1 1.57242 20.4415 17.2966 -8.94963
626 1 3.14481 18.8691 15.7242 -8.94961
627 1 4.71725 20.4415 17.2966 -8.94962
628 1 6.28962 18.8692 15.7243 -8.94964
629 1 7.86211 20.4415 17.2966 -8.94963
630 1 9.43452 18.8691 15.7242 -8.94954
631 1 11.0069 20.4415 17.2966 -8.94963
632 1 12.5795 18.8692 15.7243 -8.94956
633 1 14.1518 20.4415 17.2967 -8.94961
634 1 15.7242 18.8691 15.7242 -8.94967
635 1 17.2966 20.4415 17.2966 -8.94964
636 1 18.8691 18.8691 15.7242 -8.94963
637 1 20.4415 20.4415 17.2966 -8.94963
638 1 1.57242 11.007 20.4415 -8.94964
639 1 4.71724 11.007 20.4415 -8.94941
640 1 7.86211 11.007 20.4424 -8.95185
641 1 11.007 11.007 20.4416 -8.95018
642 1 14.1518 11.007 20.4415 -8.94955
643 1 17.2966 11.007 20.4415 -8.94965
644 1 20.4415 11.007 20.4415 -8.94963
645 1 22.0139 12.5794 18.8691 -8.94962
646 1 1.57242 14.1518 20.4415 -8.94968
647 1 3.14484 12.5793 18.869 -8.94979
648 1 4.71716 14.1519 20.4416 -8.94956
649 1 6.28917 12.5799 18.8699 -8.94917
650 1 7.8621 14.1518 20.4415 -8.94957
651 1 9.43492 12.5799 18.8699 -8.94837
652 1 11.007 14.1519 20.4416 -8.94957
653 1 12.5795 12.5794 18.8694 -8.94996
654 1 14.1518 14.1518 20.4415 -8.94966
655 1 15.7242 12.5794 18.8691 -8.94964
656 1 17.2966 14.1518 20.4415 -8.94964
657 1 18.8691 12.5794 18.8691 -8.94963
658 1 20.4415 14.1518 20.4415 -8.94963
659 1 -3.73856e-06 15.7242 18.8691 -8.94966
660 1 1.57241 17.2966 20.4415 -8.9496
661 1 3.14476 15.7243 18.8692 -8.94936
662 1 4.71727 17.2966 20.4415 -8.94967
663 1 6.2897 15.7243 18.8691 -8.94986
664 1 7.86211 17.2966 20.4415 -8.94963
665 1 9.43451 15.7243 18.8691 -8.9496
666 1 11.0069 17.2966 20.4415 -8.94965
667 1 12.5794 15.7243 18.8692 -8.94962
668 1 14.1518 17.2966 20.4415 -8.94963
669 1 15.7243 15.7243 18.8691 -8.94956
670 1 17.2966 17.2966 20.4415 -8.94962
671 1 18.8691 15.7242 18.8691 -8.94964
672 1 20.4415 17.2966 20.4415 -8.94964
673 1 22.0139 18.8691 18.8691 -8.94963
674 1 1.57242 20.4415 20.4415 -8.94963
675 1 3.14483 18.8691 18.8691 -8.94962
351 1 -4.50604e-07 12.5794 22.0139 -8.94963
389 1 15.7242 18.8691 22.0139 -8.94964
355 1 6.28963 12.5794 22.014 -8.94978
367 1 3.14483 15.7242 22.0139 -8.94961
373 1 12.5794 15.7242 22.0139 -8.94962
377 1 18.8691 15.7242 22.0139 -8.94964
379 1 -8.11327e-07 18.8691 22.0139 -8.94963
383 1 6.28969 18.8691 22.0139 -8.94963
361 1 15.7242 12.5794 22.0139 -8.94962
