ITEM: TIMESTEP
67
ITEM: NUMBER OF ATOMS
688
ITEM: BOX BOUNDS pp pp pp
0.0000000000000000e+00 2.2013900999999997e+01
0.0000000000000000e+00 2.2013900999999997e+01
0.0000000000000000e+00 2.2013900999999997e+01
ITEM: ATOMS id type x y z c_pot
192 1 7.85502 7.85385 11.0096 -9.03161
2 1 1.57232 1.57234 1.57235 -8.94957
3 1 3.14478 1.83538e-15 2.44859e-06 -8.94964
4 1 4.71718 1.57231 1.57232 -8.94965
175 1 18.8694 9.43448 9.43446 -8.94984
6 1 7.86208 1.5723 1.57231 -8.94963
7 1 9.43453 2.43463e-16 3.36376e-15 -8.94962
8 1 11.007 1.5723 1.57231 -8.94962
191 1 4.71478 7.86043 11.0064 -8.95031
10 1 14.1519 1.57231 1.57232 -8.94964
174 1 15.7257 9.43422 9.43428 -8.95087
12 1 17.2968 1.57233 1.57234 -8.94957
13 1 18.8691 6.94858e-16 -1.01473e-05 -8.94956
14 1 20.4415 1.57237 1.57239 -8.94957
173 1 12.5848 9.42944 9.4333 -8.98312
16 1 1.57219 4.71706 1.57234 -8.94953
17 1 3.1447 3.14466 1.70671e-06 -8.94962
18 1 4.71699 4.71692 1.57217 -8.94958
172 1 9.41508 9.37951 9.4322 -9.26275
20 1 7.86202 4.71688 1.57218 -8.94964
21 1 9.43453 3.14462 3.57958e-16 -8.94961
22 1 11.007 4.71689 1.57218 -8.94961
23 1 12.5794 3.14463 7.76272e-07 -8.94964
24 1 14.152 4.71689 1.57221 -8.94969
171 1 6.2858 9.42972 9.42908 -9.03251
26 1 17.2969 4.71703 1.57225 -8.94945
27 1 18.8691 3.14475 -1.1741e-05 -8.94954
28 1 20.4415 4.71718 1.57236 -8.94964
29 1 22.0138 6.28962 1.18115e-05 -8.94964
30 1 1.57217 7.86202 1.57232 -8.9496
170 1 3.14378 9.43439 9.4343 -8.95062
32 1 4.71671 7.86173 1.57213 -8.94976
33 1 6.28939 6.28924 -3.95323e-05 -8.94958
34 1 7.86168 7.86143 1.57167 -8.94954
35 1 9.43453 6.28922 8.32758e-16 -8.94955
36 1 11.0072 7.86154 1.57174 -8.94951
169 1 -0.000304921 9.43449 9.43448 -8.94969
38 1 14.1525 7.86149 1.57164 -8.94951
39 1 15.7246 6.28936 -0.00012141 -8.94955
40 1 17.2969 7.86201 1.57228 -8.94967
168 1 18.8694 6.28944 9.43448 -8.94967
42 1 20.4415 7.86207 1.57236 -8.94962
167 1 15.7253 6.28893 9.43436 -8.94947
166 1 12.5814 6.2863 9.43285 -8.94843
165 1 9.43392 6.27696 9.43405 -8.9652
46 1 9.43453 9.43401 1.82589e-15 -8.94986
47 1 12.5799 9.4342 -0.000378803 -8.94997
190 1 1.57159 7.86179 11.0069 -8.94998
49 1 18.8692 9.43451 -5.47069e-06 -8.94962
50 1 22.0138 9.86322e-16 3.14479 -8.94961
51 1 1.57225 1.57231 4.71714 -8.94962
52 1 3.14468 1.20537e-15 3.14467 -8.94956
53 1 4.71695 1.57214 4.7169 -8.94956
54 1 6.28961 9.74415e-16 3.14466 -8.94963
55 1 7.86202 1.57216 4.71693 -8.94959
56 1 9.43453 1.83246e-15 3.14465 -8.94962
57 1 11.007 1.57215 4.71692 -8.94959
58 1 12.5794 3.88702e-16 3.14465 -8.94962
59 1 14.1521 1.57214 4.71693 -8.94963
60 1 15.7244 -1.04959e-15 3.14467 -8.94961
61 1 17.2968 1.5723 4.71713 -8.94956
62 1 18.8691 -1.94784e-16 3.14478 -8.94958
63 1 20.4415 1.57236 4.71721 -8.94961
64 1 -0.000110934 3.14471 3.14475 -8.94956
65 1 1.57202 4.71694 4.71698 -8.94951
66 1 3.14457 3.14456 3.14458 -8.94947
67 1 4.71652 4.71643 4.71647 -8.94911
68 1 6.28953 3.14451 3.14452 -8.94971
69 1 7.8619 4.71648 4.71653 -8.9499
70 1 9.43452 3.14449 3.14454 -8.9496
71 1 11.0071 4.71647 4.7165 -8.94954
72 1 12.5795 3.1445 3.14452 -8.94965
73 1 14.1525 4.71633 4.71653 -8.94956
74 1 15.7245 3.14451 3.14457 -8.94955
75 1 17.297 4.71697 4.71702 -8.94956
76 1 18.8692 3.14473 3.14475 -8.9496
77 1 20.4415 4.71713 4.71714 -8.94964
78 1 22.0138 6.28958 3.14471 -8.94966
79 1 1.57193 7.86195 4.71697 -8.94969
80 1 3.14428 6.28926 3.1444 -8.94948
81 1 4.71597 7.86119 4.7159 -8.94915
82 1 6.28911 6.28898 3.14392 -8.94959
83 1 7.86114 7.86068 4.71478 -8.95012
84 1 9.4345 6.28894 3.1441 -8.9495
85 1 11.0073 7.86112 4.71514 -8.95002
86 1 12.5798 6.28898 3.14408 -8.94992
87 1 14.1537 7.86035 4.71526 -8.94756
88 1 15.7249 6.28906 3.14419 -8.94903
89 1 17.2972 7.8619 4.71698 -8.94998
90 1 18.8693 6.28956 3.14469 -8.94969
91 1 20.4415 7.86204 4.71713 -8.94971
92 1 -0.00015854 9.4345 3.1447 -8.94961
93 1 3.1443 9.43441 3.14445 -8.94951
94 1 6.28888 9.43415 3.14352 -8.95025
95 1 9.43394 9.43333 3.14223 -8.94826
96 1 12.5808 9.43336 3.14218 -8.94917
97 1 15.7248 9.43441 3.14443 -8.94971
98 1 18.8692 9.4345 3.1447 -8.94961
99 1 -7.9715e-05 1.68607e-15 6.28963 -8.94962
100 1 1.57221 1.57229 7.86203 -8.94962
101 1 3.14458 1.69606e-15 6.28951 -8.94957
102 1 4.7168 1.57205 7.86181 -8.94951
103 1 6.28936 2.96102e-17 6.28928 -8.94973
104 1 7.86175 1.57162 7.86161 -8.94991
105 1 9.43453 -3.13464e-16 6.28932 -8.94959
106 1 11.0073 1.57167 7.86162 -8.94972
107 1 12.5797 6.29134e-16 6.2893 -8.94969
108 1 14.1523 1.572 7.86178 -8.94957
109 1 15.7245 1.38702e-15 6.28948 -8.94956
110 1 17.2969 1.57228 7.86204 -8.94962
111 1 18.8692 9.61616e-16 6.28963 -8.94962
112 1 20.4415 1.57235 7.86207 -8.94962
113 1 22.0138 3.14469 6.28959 -8.94961
114 1 1.57196 4.71692 7.86192 -8.94955
115 1 3.1444 3.14445 6.2894 -8.94963
116 1 4.71629 4.71619 7.86152 -8.9497
117 1 6.28901 3.1438 6.28889 -8.94951
118 1 7.86077 4.71419 7.86047 -8.94906
119 1 9.43455 3.1439 6.28912 -8.94945
120 1 11.008 4.71461 7.86067 -8.94847
121 1 12.5799 3.14387 6.28897 -8.94966
122 1 14.1529 4.71598 7.86141 -8.94929
123 1 15.7247 3.14438 6.28937 -8.94947
124 1 17.2971 4.7169 7.86195 -8.94967
125 1 18.8692 3.14468 6.28959 -8.94963
126 1 20.4415 4.71708 7.86202 -8.94964
127 1 -0.000259339 6.28951 6.28952 -8.94977
128 1 1.57168 7.86188 7.86189 -8.9501
129 1 3.14372 6.28892 6.28892 -8.94938
130 1 4.71472 7.86023 7.86022 -8.9492
131 1 6.28775 6.28741 6.28744 -8.94776
132 1 7.85743 7.85615 7.85535 -8.98082
133 1 9.4347 6.28771 6.28859 -8.9499
134 1 11.0103 7.85821 7.85776 -9.00141
135 1 12.5809 6.2874 6.28785 -8.95018
136 1 14.1541 7.8603 7.86104 -8.94834
137 1 15.7252 6.28899 6.28912 -8.94927
138 1 17.2975 7.86176 7.86189 -8.94985
139 1 18.8694 6.28948 6.28952 -8.94966
140 1 20.4415 7.86199 7.86201 -8.94979
141 1 22.0136 9.43449 6.28951 -8.94969
142 1 3.14378 9.43436 6.28907 -8.94996
143 1 6.28678 9.43282 6.28561 -8.94812
144 1 9.43297 9.43106 6.28509 -8.99972
145 1 12.5844 9.42921 6.28389 -8.9808
146 1 15.7253 9.43441 6.28928 -8.95125
147 1 18.8694 9.4345 6.28954 -8.94974
148 1 -9.54522e-05 5.42231e-16 9.4345 -8.94961
149 1 3.14455 7.42641e-16 9.43446 -8.94962
150 1 6.28921 1.43917e-15 9.43428 -8.94962
151 1 9.43453 4.68691e-17 9.4343 -8.9505
152 1 12.5798 8.56267e-16 9.43427 -8.9497
153 1 15.7245 2.09087e-15 9.43448 -8.94961
154 1 18.8692 9.03389e-16 9.43452 -8.94961
155 1 -0.000150692 3.14467 9.43449 -8.94962
156 1 3.14435 3.14441 9.43441 -8.94963
157 1 6.28883 3.14342 9.43407 -8.94919
158 1 9.43449 3.14178 9.43421 -8.95249
159 1 12.5802 3.14333 9.43397 -8.94941
160 1 15.7247 3.14439 9.43445 -8.94961
161 1 18.8692 3.14467 9.43451 -8.94962
162 1 22.0136 6.28944 9.43444 -8.94967
163 1 3.14377 6.28891 9.43416 -8.94912
164 1 6.28821 6.28689 9.43337 -8.9499
177 1 4.7168 1.57206 11.0069 -8.94956
178 1 7.86158 1.57122 11.007 -8.95009
181 1 17.2969 1.57228 11.007 -8.9496
184 1 4.71627 4.71622 11.0069 -8.95002
185 1 7.86001 4.71255 11.0071 -8.94769
188 1 17.2971 4.71691 11.007 -8.94959
5 1 6.28966 1.51025e-15 3.96392e-06 -8.94963
44 1 3.14446 9.43444 5.56549e-05 -8.94951
176 1 1.57219 1.57228 11.0069 -8.9496
343 1 18.8692 9.4345 18.8692 -8.94961
342 1 15.7248 9.43441 18.8695 -8.94951
179 1 11.0075 1.57122 11.0069 -8.95009
180 1 14.1523 1.57206 11.007 -8.94956
341 1 12.5802 9.43415 18.8704 -8.95025
182 1 20.4415 1.57234 11.007 -8.94962
183 1 1.57195 4.71691 11.0069 -8.94959
340 1 9.43512 9.43333 18.8717 -8.94826
339 1 6.28826 9.43336 18.8717 -8.94917
186 1 11.009 4.71255 11.0068 -8.94769
187 1 14.1528 4.71622 11.007 -8.95002
338 1 3.14425 9.43441 18.8695 -8.94971
189 1 20.4415 4.71706 11.007 -8.94961
337 1 22.0137 9.4345 18.8692 -8.94961
336 1 20.4415 7.86207 20.4415 -8.94962
335 1 18.8692 6.28958 18.8692 -8.94966
193 1 11.014 7.85385 11.0043 -9.03161
194 1 14.1543 7.86043 11.0075 -8.95031
195 1 17.2975 7.86179 11.007 -8.94998
196 1 20.4415 7.86197 11.007 -8.94979
197 1 22.0138 3.16074e-16 12.5794 -8.94961
198 1 1.57219 1.57228 14.1519 -8.94962
199 1 3.14454 2.53168e-15 12.5794 -8.94961
200 1 4.71677 1.572 14.1521 -8.94957
201 1 6.28921 -1.1808e-15 12.5796 -8.9497
202 1 7.86179 1.57167 14.1523 -8.94972
203 1 9.43453 1.23681e-15 12.5796 -8.9505
204 1 11.0073 1.57162 14.1523 -8.94991
205 1 12.5799 3.6832e-15 12.5796 -8.94962
206 1 14.1523 1.57205 14.1521 -8.94951
207 1 15.7245 -8.30211e-16 12.5794 -8.94962
208 1 17.2969 1.57229 14.1519 -8.94962
209 1 18.8692 5.78958e-16 12.5794 -8.94961
210 1 20.4415 1.57235 14.1518 -8.94962
211 1 22.0137 3.14467 12.5794 -8.94962
212 1 1.57193 4.7169 14.152 -8.94967
213 1 3.14433 3.14439 12.5794 -8.94961
214 1 4.71613 4.71598 14.1525 -8.94929
215 1 6.28883 3.14333 12.5799 -8.94941
216 1 7.86106 4.71461 14.1532 -8.94847
217 1 9.43457 3.14178 12.5797 -8.95249
218 1 11.0083 4.71419 14.1534 -8.94906
219 1 12.5802 3.14342 12.5798 -8.94919
220 1 14.1528 4.71619 14.1524 -8.9497
221 1 15.7247 3.14441 12.5795 -8.94963
222 1 17.2971 4.71692 14.152 -8.94955
223 1 18.8692 3.14467 12.5794 -8.94962
224 1 20.4415 4.71708 14.1519 -8.94964
225 1 -0.000333526 6.28944 12.5794 -8.94967
226 1 1.57158 7.86176 14.152 -8.94985
227 1 3.14375 6.28893 12.5795 -8.94947
228 1 4.71498 7.8603 14.1529 -8.94834
229 1 6.2877 6.2863 12.5811 -8.94843
230 1 7.85874 7.85821 14.1561 -9.00141
231 1 9.43514 6.27696 12.5798 -8.9652
232 1 11.0116 7.85615 14.1585 -8.98082
233 1 12.5808 6.28689 12.5805 -8.9499
234 1 14.1543 7.86023 14.1537 -8.9492
235 1 15.7253 6.28891 12.5797 -8.94912
236 1 17.2974 7.86188 14.152 -8.9501
237 1 18.8694 6.28944 12.5795 -8.94967
238 1 20.4414 7.86199 14.1519 -8.94979
239 1 22.0135 9.43448 12.5794 -8.94984
240 1 3.1434 9.43422 12.5796 -8.95087
241 1 6.28424 9.42944 12.5806 -8.98312
242 1 9.45398 9.37951 12.5817 -9.26275
243 1 12.5833 9.42972 12.5848 -9.03251
244 1 15.7253 9.43439 12.5796 -8.95062
245 1 18.8694 9.43449 12.5794 -8.94969
246 1 -9.29252e-05 1.08664e-16 15.7243 -8.94962
247 1 1.57223 1.5723 17.2968 -8.94956
248 1 3.14455 2.34826e-15 15.7244 -8.94956
249 1 4.71698 1.57214 17.297 -8.94963
250 1 6.2894 2.4903e-15 15.7246 -8.94969
251 1 7.86202 1.57215 17.297 -8.94959
252 1 9.43453 2.38221e-15 15.7246 -8.94959
253 1 11.007 1.57216 17.297 -8.94959
254 1 12.5797 2.6094e-15 15.7246 -8.94973
255 1 14.1521 1.57214 17.297 -8.94956
256 1 15.7245 -1.40152e-15 15.7244 -8.94957
257 1 17.2968 1.57231 17.2968 -8.94962
258 1 18.8691 4.38659e-16 15.7243 -8.94962
259 1 20.4415 1.57236 17.2967 -8.94961
260 1 -0.000155591 3.14468 15.7243 -8.94963
261 1 1.57205 4.71697 17.2969 -8.94956
262 1 3.14435 3.14438 15.7245 -8.94947
263 1 4.71655 4.71633 17.2974 -8.94956
264 1 6.28912 3.14387 15.7249 -8.94966
265 1 7.86192 4.71647 17.2974 -8.94954
266 1 9.43451 3.1439 15.7248 -8.94945
267 1 11.0072 4.71648 17.2974 -8.9499
268 1 12.58 3.1438 15.725 -8.94951
269 1 14.1525 4.71643 17.2974 -8.94911
270 1 15.7247 3.14445 15.7245 -8.94963
271 1 17.297 4.71694 17.2969 -8.94951
272 1 18.8692 3.14469 15.7243 -8.94961
273 1 20.4415 4.71713 17.2968 -8.94964
274 1 22.0136 6.28948 15.7244 -8.94966
275 1 1.57182 7.8619 17.2969 -8.94998
276 1 3.14387 6.28899 15.7248 -8.94927
277 1 4.71531 7.86035 17.2986 -8.94756
278 1 6.28819 6.2874 15.7261 -8.95018
279 1 7.86177 7.86112 17.2988 -8.95002
280 1 9.43436 6.28771 15.7253 -8.9499
281 1 11.0079 7.86068 17.2991 -8.95012
282 1 12.5813 6.28741 15.7265 -8.94776
283 1 14.1531 7.86119 17.298 -8.94915
284 1 15.7253 6.28892 15.725 -8.94938
285 1 17.2971 7.86195 17.2969 -8.94969
286 1 18.8693 6.28951 15.7244 -8.94977
287 1 20.4415 7.86204 17.2968 -8.94971
288 1 -0.00029496 9.4345 15.7244 -8.94974
289 1 3.14377 9.43441 15.7246 -8.95125
290 1 6.2847 9.42921 15.73 -8.9808
291 1 9.43609 9.43106 15.7288 -8.99972
292 1 12.5823 9.43282 15.7283 -8.94812
293 1 15.7253 9.43436 15.7248 -8.94996
294 1 18.8693 9.43449 15.7244 -8.94969
295 1 22.0138 1.60067e-15 18.8691 -8.94958
296 1 1.57231 1.57233 20.4416 -8.94957
297 1 3.14468 1.1961e-15 18.8692 -8.94961
298 1 4.71719 1.57231 20.4416 -8.94964
299 1 6.28962 -1.20655e-15 18.8693 -8.94962
300 1 7.86209 1.5723 20.4416 -8.94962
301 1 9.43453 -1.20466e-15 18.8693 -8.94962
302 1 11.007 1.5723 20.4416 -8.94963
303 1 12.5794 1.9047e-15 18.8692 -8.94963
304 1 14.1519 1.57231 20.4416 -8.94965
305 1 15.7244 -2.65741e-15 18.8692 -8.94956
306 1 17.2967 1.57234 20.4415 -8.94957
307 1 18.8691 8.59265e-16 18.8691 -8.94961
308 1 20.4415 1.57237 20.4415 -8.94957
309 1 22.0138 3.14473 18.8692 -8.9496
310 1 1.57216 4.71703 20.4417 -8.94945
311 1 3.14455 3.14451 18.8693 -8.94955
312 1 4.71701 4.71689 20.4417 -8.94969
313 1 6.28955 3.1445 18.8694 -8.94965
314 1 7.86204 4.71689 20.4417 -8.94961
315 1 9.43454 3.14449 18.8694 -8.9496
316 1 11.007 4.71688 20.4417 -8.94964
317 1 12.5795 3.14451 18.8694 -8.94971
318 1 14.1521 4.71692 20.4417 -8.94958
319 1 15.7245 3.14456 18.8693 -8.94947
320 1 17.2969 4.71706 20.4416 -8.94953
321 1 18.8692 3.14471 18.8692 -8.94956
322 1 20.4415 4.71718 20.4415 -8.94964
323 1 -0.000209544 6.28956 18.8692 -8.94969
324 1 1.57213 7.86201 20.4416 -8.94967
325 1 3.14411 6.28906 18.8697 -8.94903
326 1 4.71652 7.86149 20.4423 -8.94951
327 1 6.28928 6.28898 18.8698 -8.94992
328 1 7.86189 7.86154 20.4422 -8.94951
329 1 9.43456 6.28894 18.8698 -8.9495
330 1 11.0074 7.86143 20.4422 -8.94954
331 1 12.5799 6.28898 18.87 -8.94959
332 1 14.1523 7.86173 20.4418 -8.94976
333 1 15.7248 6.28926 18.8695 -8.94948
334 1 17.2969 7.86202 20.4416 -8.9496
45 1 6.28917 9.4342 22.0143 -8.94997
11 1 15.7243 -4.02118e-16 22.0139 -8.94964
15 1 -8.44833e-05 3.14475 22.0139 -8.94954
19 1 6.28962 3.14463 22.0139 -8.94964
25 1 15.7244 3.14466 22.0139 -8.94962
31 1 3.14445 6.28936 22.014 -8.94955
37 1 12.5797 6.28924 22.0139 -8.94958
41 1 18.8692 6.28962 22.0139 -8.94964
43 1 -0.000116837 9.43451 22.0139 -8.94962
1 1 -5.07001e-05 1.40278e-15 22.0139 -8.94956
9 1 12.5794 -5.69112e-17 22.0139 -8.94963
48 1 15.7246 9.43444 22.0138 -8.94951
344 1 1.57216 11.007 1.57231 -8.9496
345 1 4.71673 11.007 1.5721 -8.9495
346 1 7.86185 11.007 1.57171 -8.95047
347 1 11.0072 11.007 1.57012 -8.95255
348 1 14.1524 11.007 1.57179 -8.94926
349 1 17.2969 11.007 1.57228 -8.9496
350 1 20.4415 11.007 1.57235 -8.94961
688 2 10.2174 11.007 9.43417 0.77912
352 1 1.57217 14.1519 1.57232 -8.9496
511 1 18.8692 18.8692 9.43451 -8.94962
354 1 4.71671 14.1522 1.57213 -8.94976
510 1 15.7247 18.8695 9.43445 -8.94961
356 1 7.86168 14.1525 1.57167 -8.94954
357 1 9.43453 12.5799 1.72773e-15 -8.94986
358 1 11.0072 14.1524 1.57174 -8.94951
359 1 12.5799 12.5797 -0.000378803 -8.94997
360 1 14.1525 14.1524 1.57164 -8.94951
538 1 17.2969 20.4416 11.007 -8.9496
362 1 17.2969 14.1519 1.57228 -8.94967
363 1 18.8692 12.5794 -5.47069e-06 -8.94962
364 1 20.4415 14.1518 1.57236 -8.94962
365 1 22.0138 15.7243 1.18115e-05 -8.94964
366 1 1.57219 17.2968 1.57234 -8.94953
509 1 12.5802 18.8706 9.43397 -8.94941
368 1 4.71699 17.297 1.57217 -8.94958
369 1 6.28939 15.7247 -3.95323e-05 -8.94958
370 1 7.86202 17.297 1.57218 -8.94964
371 1 9.43453 15.7247 -7.90963e-16 -8.94955
372 1 11.007 17.297 1.57218 -8.94961
508 1 9.43449 18.8721 9.43421 -8.95249
374 1 14.152 17.297 1.57221 -8.94969
375 1 15.7246 15.7245 -0.00012141 -8.94955
376 1 17.2969 17.2969 1.57225 -8.94945
507 1 6.28883 18.8705 9.43407 -8.94919
378 1 20.4415 17.2967 1.57236 -8.94964
506 1 3.14435 18.8695 9.43441 -8.94963
380 1 1.57232 20.4416 1.57235 -8.94957
381 1 3.1447 18.8692 1.70671e-06 -8.94962
382 1 4.71718 20.4416 1.57232 -8.94965
505 1 -0.000150692 18.8692 9.43449 -8.94962
384 1 7.86208 20.4416 1.57231 -8.94963
385 1 9.43453 18.8693 -2.01304e-15 -8.94961
386 1 11.007 20.4416 1.57231 -8.94962
387 1 12.5794 18.8693 7.76272e-07 -8.94964
388 1 14.1519 20.4416 1.57232 -8.94964
504 1 18.8694 15.7245 9.43448 -8.94967
390 1 17.2968 20.4416 1.57234 -8.94957
391 1 18.8691 18.8692 -1.1741e-05 -8.94954
392 1 20.4415 20.4415 1.57239 -8.94957
393 1 1.57194 11.007 4.71694 -8.94956
394 1 4.71623 11.007 4.71603 -8.94868
395 1 7.86186 11.007 4.71333 -8.95355
396 1 11.0077 11.007 4.70567 -8.96448
397 1 14.1525 11.007 4.71609 -8.94929
398 1 17.2971 11.007 4.71695 -8.94943
399 1 20.4415 11.007 4.71711 -8.94964
400 1 -0.00015854 12.5794 3.1447 -8.94961
401 1 1.57193 14.152 4.71697 -8.94969
402 1 3.1443 12.5795 3.14445 -8.94951
403 1 4.71597 14.1527 4.7159 -8.94915
404 1 6.28888 12.5798 3.14352 -8.95025
405 1 7.86114 14.1532 4.71478 -8.95012
406 1 9.43394 12.5806 3.14223 -8.94826
407 1 11.0073 14.1528 4.71514 -8.95002
408 1 12.5808 12.5805 3.14218 -8.94917
409 1 14.1537 14.1536 4.71526 -8.94756
410 1 15.7248 12.5795 3.14443 -8.94971
411 1 17.2972 14.152 4.71698 -8.94998
412 1 18.8692 12.5794 3.1447 -8.94961
413 1 20.4415 14.1519 4.71713 -8.94971
414 1 22.0138 15.7243 3.14471 -8.94966
415 1 1.57202 17.297 4.71698 -8.94951
416 1 3.14428 15.7246 3.1444 -8.94948
417 1 4.71652 17.2975 4.71647 -8.94911
418 1 6.28911 15.7249 3.14392 -8.94959
419 1 7.8619 17.2974 4.71653 -8.9499
420 1 9.4345 15.725 3.1441 -8.9495
421 1 11.0071 17.2974 4.7165 -8.94954
422 1 12.5798 15.7249 3.14408 -8.94992
423 1 14.1525 17.2976 4.71653 -8.94956
424 1 15.7249 15.7248 3.14419 -8.94903
425 1 17.297 17.2969 4.71702 -8.94956
426 1 18.8693 15.7243 3.14469 -8.94969
427 1 20.4415 17.2968 4.71714 -8.94964
428 1 -0.000110934 18.8692 3.14475 -8.94956
429 1 1.57225 20.4416 4.71714 -8.94962
430 1 3.14457 18.8693 3.14458 -8.94947
431 1 4.71695 20.4418 4.7169 -8.94956
432 1 6.28953 18.8694 3.14452 -8.94971
433 1 7.86202 20.4417 4.71693 -8.94959
434 1 9.43452 18.8694 3.14454 -8.9496
435 1 11.007 20.4417 4.71692 -8.94959
436 1 12.5795 18.8694 3.14452 -8.94965
437 1 14.1521 20.4418 4.71693 -8.94963
438 1 15.7245 18.8694 3.14457 -8.94955
439 1 17.2968 20.4416 4.71713 -8.94956
440 1 18.8692 18.8692 3.14475 -8.9496
441 1 20.4415 20.4415 4.71721 -8.94961
442 1 1.57178 11.007 7.86187 -8.94958
443 1 4.71587 11.007 7.86095 -8.95055
444 1 7.85728 11.007 7.8466 -8.9992
445 1 11.0285 11.007 7.8097 -9.21287
446 1 14.1516 11.007 7.86227 -9.00093
447 1 17.2971 11.007 7.86191 -8.94895
448 1 20.4415 11.007 7.86199 -8.94958
449 1 22.0136 12.5794 6.28951 -8.94969
450 1 1.57168 14.152 7.86189 -8.9501
451 1 3.14378 12.5795 6.28907 -8.94996
452 1 4.71472 14.1537 7.86022 -8.9492
453 1 6.28678 12.5811 6.28561 -8.94812
454 1 7.85743 14.1577 7.85535 -8.98082
455 1 9.43297 12.5828 6.28509 -8.99972
456 1 11.0103 14.1557 7.85776 -9.00141
457 1 12.5844 12.5847 6.28389 -8.9808
458 1 14.1541 14.1536 7.86104 -8.94834
459 1 15.7253 12.5795 6.28928 -8.95125
460 1 17.2975 14.1521 7.86189 -8.94985
461 1 18.8694 12.5794 6.28954 -8.94974
462 1 20.4415 14.1519 7.86201 -8.94979
463 1 -0.000259339 15.7244 6.28952 -8.94977
464 1 1.57196 17.297 7.86192 -8.94955
465 1 3.14372 15.725 6.28892 -8.94938
466 1 4.71629 17.2977 7.86152 -8.9497
467 1 6.28775 15.7265 6.28744 -8.94776
468 1 7.86077 17.2997 7.86047 -8.94906
469 1 9.4347 15.7262 6.28859 -8.9499
470 1 11.008 17.2993 7.86067 -8.94847
471 1 12.5809 15.7265 6.28785 -8.95018
472 1 14.1529 17.2979 7.86141 -8.94929
473 1 15.7252 15.7249 6.28912 -8.94927
474 1 17.2971 17.297 7.86195 -8.94967
475 1 18.8694 15.7244 6.28952 -8.94966
476 1 20.4415 17.2968 7.86202 -8.94964
477 1 22.0138 18.8692 6.28959 -8.94961
478 1 1.57221 20.4416 7.86203 -8.94962
479 1 3.1444 18.8695 6.2894 -8.94963
480 1 4.7168 20.4419 7.86181 -8.94951
481 1 6.28901 18.8701 6.28889 -8.94951
482 1 7.86175 20.4423 7.86161 -8.94991
483 1 9.43455 18.87 6.28912 -8.94945
484 1 11.0073 20.4422 7.86162 -8.94972
485 1 12.5799 18.87 6.28897 -8.94966
486 1 14.1523 20.4419 7.86178 -8.94957
487 1 15.7247 18.8695 6.28937 -8.94947
488 1 17.2969 20.4416 7.86204 -8.94962
489 1 18.8692 18.8692 6.28959 -8.94963
490 1 20.4415 20.4416 7.86207 -8.94962
491 1 -0.000304921 12.5794 9.43448 -8.94969
492 1 3.14378 12.5795 9.4343 -8.95062
493 1 6.2858 12.5842 9.42908 -9.03251
494 1 9.41508 12.6344 9.4322 -9.26275
495 1 12.5848 12.5845 9.4333 -8.98312
496 1 15.7257 12.5797 9.43428 -8.95087
497 1 18.8694 12.5794 9.43446 -8.94984
498 1 22.0136 15.7245 9.43444 -8.94967
499 1 3.14377 15.725 9.43416 -8.94912
500 1 6.28821 15.727 9.43337 -8.9499
501 1 9.43392 15.7369 9.43405 -8.9652
502 1 12.5814 15.7276 9.43285 -8.94843
503 1 15.7253 15.725 9.43436 -8.94947
512 1 1.57191 11.007 11.0069 -8.94919
514 1 7.83656 11.007 10.9591 -9.24792
516 1 14.1521 11.007 11.0062 -9.00251
519 1 1.57159 14.1521 11.0069 -8.94998
520 1 4.71478 14.1535 11.0064 -8.95031
521 1 7.85502 14.1601 11.0096 -9.03161
527 1 4.71627 17.2977 11.0069 -8.95002
528 1 7.86001 17.3013 11.0071 -8.94769
531 1 17.2971 17.297 11.007 -8.94959
534 1 4.7168 20.4418 11.0069 -8.94956
535 1 7.86158 20.4427 11.007 -8.95009
353 1 3.14446 12.5795 5.56549e-05 -8.94951
687 2 8.65163 11.007 12.5797 0.77912
513 1 4.717 11.007 11.0077 -9.00251
686 1 20.4415 20.4415 20.4415 -8.94957
515 1 11.0325 11.007 11.0548 -9.24792
685 1 18.8692 18.8692 18.8692 -8.94956
517 1 17.2972 11.007 11.007 -8.94919
518 1 20.4415 11.007 11.007 -8.94951
684 1 17.2967 20.4416 20.4415 -8.94957
683 1 15.7245 18.8693 18.8693 -8.94947
682 1 14.1519 20.4416 20.4416 -8.94965
522 1 11.014 14.1601 11.0043 -9.03161
523 1 14.1543 14.1535 11.0075 -8.95031
524 1 17.2975 14.1521 11.007 -8.94998
525 1 20.4415 14.1519 11.007 -8.94979
526 1 1.57195 17.297 11.0069 -8.94959
681 1 12.5795 18.8694 18.8694 -8.94971
680 1 11.007 20.4416 20.4416 -8.94963
529 1 11.009 17.3013 11.0068 -8.94769
530 1 14.1528 17.2977 11.007 -8.95002
679 1 9.43454 18.8694 18.8694 -8.9496
532 1 20.4415 17.2968 11.007 -8.94961
533 1 1.57219 20.4416 11.0069 -8.9496
678 1 7.86209 20.4416 20.4416 -8.94962
677 1 6.28955 18.8694 18.8694 -8.94965
536 1 11.0075 20.4427 11.0069 -8.95009
537 1 14.1523 20.4418 11.007 -8.94956
676 1 4.71719 20.4416 20.4416 -8.94964
539 1 20.4415 20.4416 11.007 -8.94962
540 1 1.57194 11.007 14.152 -8.94895
541 1 4.71746 11.007 14.1516 -9.00093
542 1 7.84053 11.007 14.2042 -9.21287
543 1 11.0118 11.007 14.1673 -8.9992
544 1 14.1532 11.007 14.1529 -8.95055
545 1 17.2973 11.007 14.152 -8.94958
546 1 20.4415 11.007 14.1519 -8.94958
547 1 22.0135 12.5794 12.5794 -8.94984
548 1 1.57158 14.1521 14.152 -8.94985
549 1 3.1434 12.5797 12.5796 -8.95087
550 1 4.71498 14.1536 14.1529 -8.94834
551 1 6.28424 12.5845 12.5806 -8.98312
552 1 7.85874 14.1557 14.1561 -9.00141
553 1 9.45398 12.6344 12.5817 -9.26275
554 1 11.0116 14.1577 14.1585 -8.98082
555 1 12.5833 12.5842 12.5848 -9.03251
556 1 14.1543 14.1537 14.1537 -8.9492
557 1 15.7253 12.5795 12.5796 -8.95062
558 1 17.2974 14.152 14.152 -8.9501
559 1 18.8694 12.5794 12.5794 -8.94969
560 1 20.4414 14.1519 14.1519 -8.94979
561 1 -0.000333526 15.7245 12.5794 -8.94967
562 1 1.57193 17.297 14.152 -8.94967
563 1 3.14375 15.725 12.5795 -8.94947
564 1 4.71613 17.2979 14.1525 -8.94929
565 1 6.2877 15.7276 12.5811 -8.94843
566 1 7.86106 17.2993 14.1532 -8.94847
567 1 9.43514 15.7369 12.5798 -8.9652
568 1 11.0083 17.2997 14.1534 -8.94906
569 1 12.5808 15.727 12.5805 -8.9499
570 1 14.1528 17.2977 14.1524 -8.9497
571 1 15.7253 15.725 12.5797 -8.94912
572 1 17.2971 17.297 14.152 -8.94955
573 1 18.8694 15.7245 12.5795 -8.94967
574 1 20.4415 17.2968 14.1519 -8.94964
575 1 22.0137 18.8692 12.5794 -8.94962
576 1 1.57219 20.4416 14.1519 -8.94962
577 1 3.14433 18.8695 12.5794 -8.94961
578 1 4.71677 20.4419 14.1521 -8.94957
579 1 6.28883 18.8706 12.5799 -8.94941
580 1 7.86179 20.4422 14.1523 -8.94972
581 1 9.43457 18.8721 12.5797 -8.95249
582 1 11.0073 20.4423 14.1523 -8.94991
583 1 12.5802 18.8705 12.5798 -8.94919
584 1 14.1523 20.4419 14.1521 -8.94951
585 1 15.7247 18.8695 12.5795 -8.94963
586 1 17.2969 20.4416 14.1519 -8.94962
587 1 18.8692 18.8692 12.5794 -8.94962
588 1 20.4415 20.4416 14.1518 -8.94962
589 1 1.57195 11.007 17.297 -8.94943
590 1 4.71654 11.007 17.2978 -8.94929
591 1 7.86135 11.007 17.3082 -8.96448
592 1 11.0072 11.007 17.3006 -8.95355
593 1 14.1528 11.007 17.2979 -8.94868
594 1 17.2971 11.007 17.297 -8.94956
595 1 20.4415 11.007 17.2968 -8.94964
596 1 -0.00029496 12.5794 15.7244 -8.94974
597 1 1.57182 14.152 17.2969 -8.94998
598 1 3.14377 12.5795 15.7246 -8.95125
599 1 4.71531 14.1536 17.2986 -8.94756
600 1 6.2847 12.5847 15.73 -8.9808
601 1 7.86177 14.1528 17.2988 -8.95002
602 1 9.43609 12.5828 15.7288 -8.99972
603 1 11.0079 14.1532 17.2991 -8.95012
604 1 12.5823 12.5811 15.7283 -8.94812
605 1 14.1531 14.1527 17.298 -8.94915
606 1 15.7253 12.5795 15.7248 -8.94996
607 1 17.2971 14.152 17.2969 -8.94969
608 1 18.8693 12.5794 15.7244 -8.94969
609 1 20.4415 14.1519 17.2968 -8.94971
610 1 22.0136 15.7244 15.7244 -8.94966
611 1 1.57205 17.2969 17.2969 -8.94956
612 1 3.14387 15.7249 15.7248 -8.94927
613 1 4.71655 17.2976 17.2974 -8.94956
614 1 6.28819 15.7265 15.7261 -8.95018
615 1 7.86192 17.2974 17.2974 -8.94954
616 1 9.43436 15.7262 15.7253 -8.9499
617 1 11.0072 17.2974 17.2974 -8.9499
618 1 12.5813 15.7265 15.7265 -8.94776
619 1 14.1525 17.2975 17.2974 -8.94911
620 1 15.7253 15.725 15.725 -8.94938
621 1 17.297 17.297 17.2969 -8.94951
622 1 18.8693 15.7244 15.7244 -8.94977
623 1 20.4415 17.2968 17.2968 -8.94964
624 1 -0.000155591 18.8692 15.7243 -8.94963
625 1 1.57223 20.4416 17.2968 -8.94956
626 1 3.14435 18.8695 15.7245 -8.94947
627 1 4.71698 20.4418 17.297 -8.94963
628 1 6.28912 18.87 15.7249 -8.94966
629 1 7.86202 20.4417 17.297 -8.94959
630 1 9.43451 18.87 15.7248 -8.94945
631 1 11.007 20.4417 17.297 -8.94959
632 1 12.58 18.8701 15.725 -8.94951
633 1 14.1521 20.4418 17.297 -8.94956
634 1 15.7247 18.8695 15.7245 -8.94963
635 1 17.2968 20.4416 17.2968 -8.94962
636 1 18.8692 18.8692 15.7243 -8.94961
637 1 20.4415 20.4415 17.2967 -8.94961
638 1 1.57214 11.007 20.4416 -8.9496
639 1 4.71669 11.007 20.4421 -8.94926
640 1 7.86187 11.007 20.4438 -8.95255
641 1 11.0072 11.007 20.4422 -8.95047
642 1 14.1523 11.007 20.4418 -8.9495
643 1 17.2969 11.007 20.4416 -8.9496
644 1 20.4415 11.007 20.4415 -8.94961
645 1 22.0137 12.5794 18.8692 -8.94961
646 1 1.57213 14.1519 20.4416 -8.94967
647 1 3.14425 12.5795 18.8695 -8.94971
648 1 4.71652 14.1524 20.4423 -8.94951
649 1 6.28826 12.5805 18.8717 -8.94917
650 1 7.86189 14.1524 20.4422 -8.94951
651 1 9.43512 12.5806 18.8717 -8.94826
652 1 11.0074 14.1525 20.4422 -8.94954
653 1 12.5802 12.5798 18.8704 -8.95025
654 1 14.1523 14.1522 20.4418 -8.94976
655 1 15.7248 12.5795 18.8695 -8.94951
656 1 17.2969 14.1519 20.4416 -8.9496
657 1 18.8692 12.5794 18.8692 -8.94961
658 1 20.4415 14.1518 20.4415 -8.94962
659 1 -0.000209544 15.7243 18.8692 -8.94969
660 1 1.57216 17.2969 20.4417 -8.94945
661 1 3.14411 15.7248 18.8697 -8.94903
662 1 4.71701 17.297 20.4417 -8.94969
663 1 6.28928 15.7249 18.8698 -8.94992
664 1 7.86204 17.297 20.4417 -8.94961
665 1 9.43456 15.725 18.8698 -8.9495
666 1 11.007 17.297 20.4417 -8.94964
667 1 12.5799 15.7249 18.87 -8.94959
668 1 14.1521 17.297 20.4417 -8.94958
669 1 15.7248 15.7246 18.8695 -8.94948
670 1 17.2969 17.2968 20.4416 -8.94953
671 1 18.8692 15.7243 18.8692 -8.94966
672 1 20.4415 17.2967 20.4415 -8.94964
673 1 22.0138 18.8692 18.8692 -8.9496
674 1 1.57231 20.4416 20.4416 -8.94957
675 1 3.14455 18.8694 18.8693 -8.94955
351 1 -0.000116837 12.5794 22.0139 -8.94962
389 1 15.7244 18.8692 22.0139 -8.94962
355 1 6.28917 12.5797 22.0143 -8.94997
367 1 3.14445 15.7245 22.014 -8.94955
373 1 12.5797 15.7247 22.0139 -8.94958
377 1 18.8692 15.7243 22.0139 -8.94964
379 1 -8.44833e-05 18.8692 22.0139 -8.94954
383 1 6.28962 18.8693 22.0139 -8.94964
361 1 15.7246 12.5795 22.0138 -8.94951
