ITEM: TIMESTEP
41
ITEM: NUMBER OF ATOMS
688
ITEM: BOX BOUNDS pp pp pp
0.0000000000000000e+00 2.2013900999999997e+01
0.0000000000000000e+00 2.2013900999999997e+01
0.0000000000000000e+00 2.2013900999999997e+01
ITEM: ATOMS id type x y z c_pot
192 1 7.86196 7.86265 11.0072 -9.04485
2 1 1.57242 1.57242 1.57242 -8.94963
3 1 3.14484 3.67996e-16 6.4155e-11 -8.94963
4 1 4.71726 1.57242 1.57242 -8.94963
175 1 18.8691 9.43453 9.43453 -8.94967
6 1 7.86211 1.57242 1.57242 -8.94963
7 1 9.43453 -2.17809e-16 8.01652e-16 -8.94963
8 1 11.007 1.57242 1.57242 -8.94963
191 1 4.71719 7.86204 11.0068 -8.94913
10 1 14.1518 1.57242 1.57242 -8.94963
174 1 15.7243 9.43453 9.43453 -8.95059
12 1 17.2966 1.57242 1.57242 -8.94963
13 1 18.8691 4.56756e-16 2.72017e-11 -8.94963
14 1 20.4415 1.57242 1.57242 -8.94963
173 1 12.5827 9.43226 9.43443 -8.98438
16 1 1.57242 4.71726 1.57242 -8.94963
17 1 3.14484 3.14484 2.40032e-09 -8.94963
18 1 4.71726 4.71726 1.57242 -8.94963
172 1 9.42399 9.41304 9.43464 -9.29475
20 1 7.86211 4.71726 1.57242 -8.94963
21 1 9.43453 3.14484 3.78947e-16 -8.94963
22 1 11.007 4.71726 1.57242 -8.94963
23 1 12.5794 3.14484 3.93978e-09 -8.94963
24 1 14.1518 4.71726 1.57242 -8.94963
171 1 6.29055 9.43486 9.43496 -9.03777
26 1 17.2966 4.71726 1.57242 -8.94963
27 1 18.8691 3.14484 1.82215e-10 -8.94963
28 1 20.4415 4.71726 1.57242 -8.94963
29 1 22.0139 6.28969 7.65237e-10 -8.94963
30 1 1.57242 7.86211 1.57242 -8.94963
170 1 3.14489 9.43455 9.43455 -8.9496
32 1 4.71726 7.86211 1.57242 -8.94963
33 1 6.28969 6.28969 5.9205e-09 -8.94963
34 1 7.86211 7.86211 1.57242 -8.94963
35 1 9.43453 6.28969 9.17169e-17 -8.94963
36 1 11.007 7.86211 1.57242 -8.94964
169 1 1.62621e-06 9.43453 9.43453 -8.94962
38 1 14.1518 7.86211 1.57242 -8.94963
39 1 15.7242 6.28969 1.86737e-08 -8.94963
40 1 17.2966 7.86211 1.57242 -8.94963
168 1 18.8691 6.28969 9.43453 -8.94963
42 1 20.4415 7.86211 1.57242 -8.94963
167 1 15.7242 6.28969 9.43453 -8.94969
166 1 12.5794 6.28962 9.43454 -8.95043
165 1 9.43457 6.28888 9.43455 -8.95581
46 1 9.43453 9.43453 2.11485e-16 -8.94963
47 1 12.5794 9.43453 3.07568e-08 -8.94963
190 1 1.57242 7.86211 11.0069 -8.94963
49 1 18.8691 9.43453 -4.74568e-10 -8.94963
50 1 22.0139 3.55827e-16 3.14484 -8.94963
51 1 1.57242 1.57242 4.71726 -8.94963
52 1 3.14484 6.61506e-16 3.14484 -8.94963
53 1 4.71726 1.57242 4.71726 -8.94963
54 1 6.28969 3.69447e-16 3.14484 -8.94963
55 1 7.86211 1.57242 4.71726 -8.94963
56 1 9.43453 6.66057e-17 3.14484 -8.94963
57 1 11.007 1.57242 4.71726 -8.94963
58 1 12.5794 2.18389e-16 3.14484 -8.94963
59 1 14.1518 1.57242 4.71726 -8.94963
60 1 15.7242 -3.28807e-16 3.14484 -8.94963
61 1 17.2966 1.57242 4.71726 -8.94963
62 1 18.8691 2.26451e-16 3.14484 -8.94963
63 1 20.4415 1.57242 4.71726 -8.94963
64 1 1.81065e-09 3.14484 3.14484 -8.94963
65 1 1.57242 4.71726 4.71726 -8.94963
66 1 3.14484 3.14484 3.14484 -8.94963
67 1 4.71726 4.71726 4.71726 -8.94964
68 1 6.28969 3.14484 3.14484 -8.94963
69 1 7.86211 4.71726 4.71726 -8.94964
70 1 9.43453 3.14484 3.14484 -8.94963
71 1 11.007 4.71726 4.71726 -8.94963
72 1 12.5794 3.14484 3.14484 -8.94963
73 1 14.1518 4.71727 4.71726 -8.94963
74 1 15.7242 3.14484 3.14484 -8.94963
75 1 17.2966 4.71726 4.71726 -8.94963
76 1 18.8691 3.14484 3.14484 -8.94963
77 1 20.4415 4.71726 4.71726 -8.94963
78 1 22.0139 6.28969 3.14484 -8.94963
79 1 1.57242 7.86211 4.71726 -8.94963
80 1 3.14484 6.28969 3.14484 -8.94963
81 1 4.71726 7.8621 4.71726 -8.94958
82 1 6.28969 6.28969 3.14484 -8.94963
83 1 7.86211 7.86211 4.71726 -8.94968
84 1 9.43453 6.28969 3.14484 -8.94964
85 1 11.0069 7.86213 4.71729 -8.95003
86 1 12.5794 6.28969 3.14484 -8.94964
87 1 14.1518 7.86212 4.71727 -8.9497
88 1 15.7242 6.28969 3.14484 -8.94964
89 1 17.2966 7.86211 4.71727 -8.94964
90 1 18.8691 6.28969 3.14484 -8.94963
91 1 20.4415 7.86211 4.71726 -8.94963
92 1 1.21793e-08 9.43453 3.14484 -8.94963
93 1 3.14484 9.43453 3.14484 -8.94964
94 1 6.28968 9.43453 3.14484 -8.94965
95 1 9.43452 9.43452 3.14483 -8.94944
96 1 12.5794 9.43452 3.14485 -8.94937
97 1 15.7242 9.43453 3.14484 -8.94964
98 1 18.8691 9.43453 3.14484 -8.94963
99 1 -6.67891e-11 5.87728e-16 6.28969 -8.94963
100 1 1.57242 1.57242 7.86211 -8.94963
101 1 3.14484 7.38899e-16 6.28969 -8.94963
102 1 4.71726 1.57242 7.86211 -8.94963
103 1 6.28969 7.48991e-16 6.28969 -8.94963
104 1 7.86211 1.57242 7.86211 -8.94963
105 1 9.43453 5.34088e-17 6.28969 -8.94963
106 1 11.007 1.57242 7.86211 -8.94963
107 1 12.5794 2.51217e-17 6.28969 -8.94963
108 1 14.1518 1.57242 7.86211 -8.94963
109 1 15.7242 5.6866e-16 6.28969 -8.94963
110 1 17.2966 1.57242 7.86211 -8.94963
111 1 18.8691 5.79826e-16 6.28969 -8.94963
112 1 20.4415 1.57242 7.86211 -8.94963
113 1 22.0139 3.14484 6.28969 -8.94963
114 1 1.57242 4.71726 7.86211 -8.94963
115 1 3.14484 3.14484 6.28969 -8.94963
116 1 4.71726 4.71727 7.86211 -8.94964
117 1 6.28969 3.14484 6.28969 -8.94963
118 1 7.8621 4.71727 7.8621 -8.94938
119 1 9.43453 3.14484 6.28969 -8.94964
120 1 11.007 4.71725 7.86209 -8.94945
121 1 12.5794 3.14484 6.28969 -8.94963
122 1 14.1518 4.71726 7.86211 -8.94965
123 1 15.7242 3.14484 6.28969 -8.94963
124 1 17.2966 4.71726 7.86211 -8.94964
125 1 18.8691 3.14484 6.28969 -8.94963
126 1 20.4415 4.71726 7.86211 -8.94963
127 1 1.09491e-07 6.28969 6.28969 -8.94963
128 1 1.57242 7.86211 7.86211 -8.94964
129 1 3.14484 6.28969 6.28969 -8.94965
130 1 4.7173 7.86214 7.86214 -8.9499
131 1 6.2897 6.28969 6.2897 -8.94971
132 1 7.86222 7.86257 7.86191 -8.99005
133 1 9.43453 6.28971 6.28971 -8.95004
134 1 11.0072 7.86222 7.86212 -9.00488
135 1 12.5794 6.28968 6.28969 -8.94968
136 1 14.1519 7.86201 7.86202 -8.94887
137 1 15.7242 6.28968 6.28968 -8.94958
138 1 17.2966 7.8621 7.86211 -8.94964
139 1 18.8691 6.28969 6.28969 -8.94963
140 1 20.4415 7.86211 7.86211 -8.94963
141 1 22.0139 9.43453 6.28969 -8.94963
142 1 3.14484 9.43453 6.28968 -8.94965
143 1 6.28957 9.43443 6.28959 -8.94866
144 1 9.43428 9.43453 6.28978 -9.00466
145 1 12.5793 9.43431 6.29012 -8.98966
146 1 15.7242 9.43455 6.28971 -8.94984
147 1 18.8691 9.43453 6.28969 -8.94963
148 1 1.06383e-09 2.12879e-16 9.43453 -8.94963
149 1 3.14484 3.31726e-16 9.43453 -8.94963
150 1 6.28969 4.227e-17 9.43453 -8.94963
151 1 9.43453 2.67342e-16 9.43453 -8.94964
152 1 12.5794 2.45038e-16 9.43453 -8.94963
153 1 15.7242 5.57285e-16 9.43453 -8.94963
154 1 18.8691 5.14899e-16 9.43453 -8.94963
155 1 9.97384e-09 3.14484 9.43453 -8.94963
156 1 3.14484 3.14484 9.43453 -8.94963
157 1 6.28969 3.14485 9.43453 -8.94962
158 1 9.43453 3.14482 9.43453 -8.94987
159 1 12.5794 3.14484 9.43453 -8.94965
160 1 15.7242 3.14484 9.43453 -8.94963
161 1 18.8691 3.14484 9.43453 -8.94963
162 1 22.0139 6.28969 9.43453 -8.94963
163 1 3.14484 6.28968 9.43453 -8.94956
164 1 6.28974 6.28975 9.43453 -8.95027
177 1 4.71726 1.57242 11.007 -8.94963
178 1 7.86211 1.57242 11.007 -8.94963
181 1 17.2966 1.57242 11.007 -8.94963
184 1 4.71726 4.71726 11.0069 -8.94966
185 1 7.86208 4.71726 11.0069 -8.94919
188 1 17.2966 4.71726 11.007 -8.94964
5 1 6.28969 -3.50966e-16 1.2404e-10 -8.94963
44 1 3.14484 9.43453 -2.69118e-08 -8.94963
176 1 1.57242 1.57242 11.007 -8.94963
343 1 18.8691 9.43453 18.8691 -8.94963
342 1 15.7242 9.43453 18.8691 -8.94964
179 1 11.007 1.57242 11.007 -8.94963
180 1 14.1518 1.57242 11.007 -8.94963
341 1 12.5794 9.43453 18.8691 -8.94965
182 1 20.4415 1.57242 11.007 -8.94963
183 1 1.57242 4.71726 11.007 -8.94964
340 1 9.43454 9.43452 18.8691 -8.94944
339 1 6.28967 9.43452 18.8691 -8.94937
186 1 11.007 4.71726 11.007 -8.94919
187 1 14.1518 4.71726 11.007 -8.94966
338 1 3.14484 9.43453 18.8691 -8.94964
189 1 20.4415 4.71726 11.007 -8.94963
337 1 22.0139 9.43453 18.8691 -8.94963
336 1 20.4415 7.86211 20.4415 -8.94963
335 1 18.8691 6.28969 18.8691 -8.94963
193 1 11.0071 7.86265 11.0067 -9.04485
194 1 14.1519 7.86204 11.0071 -8.94913
195 1 17.2966 7.86211 11.007 -8.94963
196 1 20.4415 7.86211 11.007 -8.94963
197 1 22.0139 4.74767e-16 12.5794 -8.94963
198 1 1.57242 1.57242 14.1518 -8.94963
199 1 3.14484 5.77226e-16 12.5794 -8.94963
200 1 4.71726 1.57242 14.1518 -8.94963
201 1 6.28969 2.48135e-16 12.5794 -8.94963
202 1 7.86211 1.57242 14.1518 -8.94963
203 1 9.43453 2.81631e-16 12.5794 -8.94964
204 1 11.007 1.57242 14.1518 -8.94963
205 1 12.5794 1.71807e-16 12.5794 -8.94963
206 1 14.1518 1.57242 14.1518 -8.94963
207 1 15.7242 3.32903e-16 12.5794 -8.94963
208 1 17.2966 1.57242 14.1518 -8.94963
209 1 18.8691 1.81217e-16 12.5794 -8.94963
210 1 20.4415 1.57242 14.1518 -8.94963
211 1 22.0139 3.14484 12.5794 -8.94963
212 1 1.57242 4.71726 14.1518 -8.94964
213 1 3.14484 3.14484 12.5794 -8.94963
214 1 4.71726 4.71726 14.1518 -8.94965
215 1 6.28969 3.14484 12.5794 -8.94965
216 1 7.8621 4.71725 14.1518 -8.94945
217 1 9.43453 3.14482 12.5794 -8.94987
218 1 11.007 4.71727 14.1518 -8.94938
219 1 12.5794 3.14485 12.5794 -8.94962
220 1 14.1518 4.71727 14.1518 -8.94964
221 1 15.7242 3.14484 12.5794 -8.94963
222 1 17.2966 4.71726 14.1518 -8.94963
223 1 18.8691 3.14484 12.5794 -8.94963
224 1 20.4415 4.71726 14.1518 -8.94963
225 1 8.82071e-08 6.28969 12.5794 -8.94963
226 1 1.57242 7.8621 14.1518 -8.94964
227 1 3.14485 6.28969 12.5794 -8.94969
228 1 4.71716 7.86201 14.1519 -8.94887
229 1 6.28968 6.28962 12.5794 -8.95043
230 1 7.86185 7.86222 14.1518 -9.00488
231 1 9.43449 6.28888 12.5794 -8.95581
232 1 11.0068 7.86257 14.152 -8.99005
233 1 12.5793 6.28975 12.5794 -8.95027
234 1 14.1518 7.86214 14.1518 -8.9499
235 1 15.7242 6.28968 12.5794 -8.94956
236 1 17.2966 7.86211 14.1518 -8.94964
237 1 18.8691 6.28969 12.5794 -8.94963
238 1 20.4415 7.86211 14.1518 -8.94963
239 1 22.0139 9.43453 12.5794 -8.94967
240 1 3.14475 9.43453 12.5794 -8.95059
241 1 6.28637 9.43226 12.5795 -8.98438
242 1 9.44507 9.41304 12.5793 -9.29475
243 1 12.5785 9.43486 12.5789 -9.03777
244 1 15.7242 9.43455 12.5793 -8.9496
245 1 18.8691 9.43453 12.5794 -8.94962
246 1 4.12786e-10 5.97851e-16 15.7242 -8.94963
247 1 1.57242 1.57242 17.2966 -8.94963
248 1 3.14484 6.03016e-16 15.7242 -8.94963
249 1 4.71726 1.57242 17.2966 -8.94963
250 1 6.28969 6.18024e-17 15.7242 -8.94963
251 1 7.86211 1.57242 17.2966 -8.94963
252 1 9.43453 4.8535e-17 15.7242 -8.94963
253 1 11.007 1.57242 17.2966 -8.94963
254 1 12.5794 7.82764e-16 15.7242 -8.94963
255 1 14.1518 1.57242 17.2966 -8.94963
256 1 15.7242 6.57687e-16 15.7242 -8.94963
257 1 17.2966 1.57242 17.2966 -8.94963
258 1 18.8691 7.70799e-16 15.7242 -8.94963
259 1 20.4415 1.57242 17.2966 -8.94963
260 1 1.09353e-08 3.14484 15.7242 -8.94963
261 1 1.57242 4.71726 17.2966 -8.94963
262 1 3.14484 3.14484 15.7242 -8.94963
263 1 4.71726 4.71727 17.2966 -8.94963
264 1 6.28969 3.14484 15.7242 -8.94963
265 1 7.86211 4.71726 17.2966 -8.94963
266 1 9.43453 3.14484 15.7242 -8.94964
267 1 11.007 4.71726 17.2966 -8.94964
268 1 12.5794 3.14484 15.7242 -8.94963
269 1 14.1518 4.71726 17.2966 -8.94964
270 1 15.7242 3.14484 15.7242 -8.94963
271 1 17.2966 4.71726 17.2966 -8.94963
272 1 18.8691 3.14484 15.7242 -8.94963
273 1 20.4415 4.71726 17.2966 -8.94963
274 1 22.0139 6.28969 15.7242 -8.94963
275 1 1.57242 7.86211 17.2966 -8.94964
276 1 3.14484 6.28968 15.7242 -8.94958
277 1 4.71728 7.86212 17.2966 -8.9497
278 1 6.28969 6.28968 15.7242 -8.94968
279 1 7.86211 7.86213 17.2966 -8.95003
280 1 9.43453 6.28971 15.7242 -8.95004
281 1 11.0069 7.86211 17.2966 -8.94968
282 1 12.5794 6.28969 15.7242 -8.94971
283 1 14.1518 7.8621 17.2966 -8.94958
284 1 15.7242 6.28969 15.7242 -8.94965
285 1 17.2966 7.86211 17.2966 -8.94963
286 1 18.8691 6.28969 15.7242 -8.94963
287 1 20.4415 7.86211 17.2966 -8.94963
288 1 1.13996e-06 9.43453 15.7242 -8.94963
289 1 3.14487 9.43455 15.7242 -8.94984
290 1 6.2898 9.43431 15.7238 -8.98966
291 1 9.43478 9.43453 15.7241 -9.00466
292 1 12.5795 9.43443 15.7243 -8.94866
293 1 15.7242 9.43453 15.7242 -8.94965
294 1 18.8691 9.43453 15.7242 -8.94963
295 1 22.0139 2.36508e-16 18.8691 -8.94963
296 1 1.57242 1.57242 20.4415 -8.94963
297 1 3.14484 -3.02773e-16 18.8691 -8.94963
298 1 4.71726 1.57242 20.4415 -8.94963
299 1 6.28969 2.10871e-16 18.8691 -8.94963
300 1 7.86211 1.57242 20.4415 -8.94963
301 1 9.43453 8.70472e-17 18.8691 -8.94963
302 1 11.007 1.57242 20.4415 -8.94963
303 1 12.5794 3.11181e-16 18.8691 -8.94963
304 1 14.1518 1.57242 20.4415 -8.94963
305 1 15.7242 6.90388e-16 18.8691 -8.94963
306 1 17.2966 1.57242 20.4415 -8.94963
307 1 18.8691 3.99025e-16 18.8691 -8.94963
308 1 20.4415 1.57242 20.4415 -8.94963
309 1 22.0139 3.14484 18.8691 -8.94963
310 1 1.57242 4.71726 20.4415 -8.94963
311 1 3.14484 3.14484 18.8691 -8.94963
312 1 4.71726 4.71726 20.4415 -8.94963
313 1 6.28969 3.14484 18.8691 -8.94963
314 1 7.86211 4.71726 20.4415 -8.94963
315 1 9.43453 3.14484 18.8691 -8.94963
316 1 11.007 4.71726 20.4415 -8.94963
317 1 12.5794 3.14484 18.8691 -8.94963
318 1 14.1518 4.71726 20.4415 -8.94963
319 1 15.7242 3.14484 18.8691 -8.94963
320 1 17.2966 4.71726 20.4415 -8.94963
321 1 18.8691 3.14484 18.8691 -8.94963
322 1 20.4415 4.71726 20.4415 -8.94963
323 1 5.13279e-08 6.28969 18.8691 -8.94963
324 1 1.57242 7.86211 20.4415 -8.94963
325 1 3.14484 6.28969 18.8691 -8.94964
326 1 4.71726 7.86211 20.4415 -8.94963
327 1 6.28969 6.28969 18.8691 -8.94964
328 1 7.86211 7.86211 20.4415 -8.94964
329 1 9.43453 6.28969 18.8691 -8.94964
330 1 11.007 7.86211 20.4415 -8.94963
331 1 12.5794 6.28969 18.8691 -8.94963
332 1 14.1518 7.86211 20.4415 -8.94963
333 1 15.7242 6.28969 18.8691 -8.94963
334 1 17.2966 7.86211 20.4415 -8.94963
45 1 6.28969 9.43453 22.0139 -8.94963
11 1 15.7242 4.13707e-16 22.0139 -8.94963
15 1 1.5469e-10 3.14484 22.0139 -8.94963
19 1 6.28969 3.14484 22.0139 -8.94963
25 1 15.7242 3.14484 22.0139 -8.94963
31 1 3.14484 6.28969 22.0139 -8.94963
37 1 12.5794 6.28969 22.0139 -8.94963
41 1 18.8691 6.28969 22.0139 -8.94963
43 1 -1.56017e-10 9.43453 22.0139 -8.94963
1 1 3.39412e-11 4.04372e-16 22.0139 -8.94963
9 1 12.5794 -4.21569e-16 22.0139 -8.94963
48 1 15.7242 9.43453 22.0139 -8.94963
344 1 1.57242 11.007 1.57242 -8.94963
345 1 4.71726 11.007 1.57242 -8.94963
346 1 7.86211 11.007 1.57242 -8.94967
347 1 11.007 11.007 1.5724 -8.94986
348 1 14.1518 11.007 1.57242 -8.94963
349 1 17.2966 11.007 1.57242 -8.94963
350 1 20.4415 11.007 1.57242 -8.94963
688 2 10.2208 11.007 9.43445 1.02677
352 1 1.57242 14.1518 1.57242 -8.94963
511 1 18.8691 18.8691 9.43453 -8.94963
354 1 4.71726 14.1518 1.57242 -8.94963
510 1 15.7242 18.8691 9.43453 -8.94963
356 1 7.86211 14.1518 1.57242 -8.94963
357 1 9.43453 12.5794 1.98538e-16 -8.94963
358 1 11.007 14.1518 1.57242 -8.94964
359 1 12.5794 12.5794 3.07568e-08 -8.94963
360 1 14.1518 14.1518 1.57242 -8.94963
538 1 17.2966 20.4415 11.007 -8.94963
362 1 17.2966 14.1518 1.57242 -8.94963
363 1 18.8691 12.5794 -4.74568e-10 -8.94963
364 1 20.4415 14.1518 1.57242 -8.94963
365 1 22.0139 15.7242 7.65236e-10 -8.94963
366 1 1.57242 17.2966 1.57242 -8.94963
509 1 12.5794 18.8691 9.43453 -8.94965
368 1 4.71726 17.2966 1.57242 -8.94963
369 1 6.28969 15.7242 5.9205e-09 -8.94963
370 1 7.86211 17.2966 1.57242 -8.94963
371 1 9.43453 15.7242 1.35359e-16 -8.94963
372 1 11.007 17.2966 1.57242 -8.94963
508 1 9.43453 18.8691 9.43453 -8.94987
374 1 14.1518 17.2966 1.57242 -8.94963
375 1 15.7242 15.7242 1.86737e-08 -8.94963
376 1 17.2966 17.2966 1.57242 -8.94963
507 1 6.28969 18.8691 9.43453 -8.94962
378 1 20.4415 17.2966 1.57242 -8.94963
506 1 3.14484 18.8691 9.43453 -8.94963
380 1 1.57242 20.4415 1.57242 -8.94963
381 1 3.14484 18.8691 2.40032e-09 -8.94963
382 1 4.71726 20.4415 1.57242 -8.94963
505 1 9.97384e-09 18.8691 9.43453 -8.94963
384 1 7.86211 20.4415 1.57242 -8.94963
385 1 9.43453 18.8691 3.89087e-16 -8.94963
386 1 11.007 20.4415 1.57242 -8.94963
387 1 12.5794 18.8691 3.93978e-09 -8.94963
388 1 14.1518 20.4415 1.57242 -8.94963
504 1 18.8691 15.7242 9.43453 -8.94963
390 1 17.2966 20.4415 1.57242 -8.94963
391 1 18.8691 18.8691 1.82214e-10 -8.94963
392 1 20.4415 20.4415 1.57242 -8.94963
393 1 1.57242 11.007 4.71726 -8.94963
394 1 4.71727 11.007 4.71727 -8.94967
395 1 7.86209 11.007 4.71717 -8.95059
396 1 11.0069 11.007 4.71643 -8.95543
397 1 14.1517 11.007 4.71733 -8.95022
398 1 17.2966 11.007 4.71726 -8.94961
399 1 20.4415 11.007 4.71726 -8.94963
400 1 1.21793e-08 12.5794 3.14484 -8.94963
401 1 1.57242 14.1518 4.71726 -8.94963
402 1 3.14484 12.5794 3.14484 -8.94964
403 1 4.71726 14.1518 4.71726 -8.94958
404 1 6.28968 12.5794 3.14484 -8.94965
405 1 7.86211 14.1518 4.71726 -8.94968
406 1 9.43452 12.5794 3.14483 -8.94944
407 1 11.0069 14.1518 4.71729 -8.95003
408 1 12.5794 12.5794 3.14485 -8.94937
409 1 14.1518 14.1518 4.71727 -8.9497
410 1 15.7242 12.5794 3.14484 -8.94964
411 1 17.2966 14.1518 4.71727 -8.94964
412 1 18.8691 12.5794 3.14484 -8.94963
413 1 20.4415 14.1518 4.71726 -8.94963
414 1 22.0139 15.7242 3.14484 -8.94963
415 1 1.57242 17.2966 4.71726 -8.94963
416 1 3.14484 15.7242 3.14484 -8.94963
417 1 4.71726 17.2966 4.71726 -8.94964
418 1 6.28969 15.7242 3.14484 -8.94963
419 1 7.86211 17.2966 4.71726 -8.94964
420 1 9.43453 15.7242 3.14484 -8.94964
421 1 11.007 17.2966 4.71726 -8.94963
422 1 12.5794 15.7242 3.14484 -8.94964
423 1 14.1518 17.2966 4.71726 -8.94963
424 1 15.7242 15.7242 3.14484 -8.94964
425 1 17.2966 17.2966 4.71726 -8.94963
426 1 18.8691 15.7242 3.14484 -8.94963
427 1 20.4415 17.2966 4.71726 -8.94963
428 1 1.81065e-09 18.8691 3.14484 -8.94963
429 1 1.57242 20.4415 4.71726 -8.94963
430 1 3.14484 18.8691 3.14484 -8.94963
431 1 4.71726 20.4415 4.71726 -8.94963
432 1 6.28969 18.8691 3.14484 -8.94963
433 1 7.86211 20.4415 4.71726 -8.94963
434 1 9.43453 18.8691 3.14484 -8.94963
435 1 11.007 20.4415 4.71726 -8.94963
436 1 12.5794 18.8691 3.14484 -8.94963
437 1 14.1518 20.4415 4.71726 -8.94963
438 1 15.7242 18.8691 3.14484 -8.94963
439 1 17.2966 20.4415 4.71726 -8.94963
440 1 18.8691 18.8691 3.14484 -8.94963
441 1 20.4415 20.4415 4.71726 -8.94963
442 1 1.57242 11.007 7.86211 -8.94964
443 1 4.71722 11.007 7.86218 -8.95117
444 1 7.85892 11.007 7.85909 -8.99095
445 1 11.0178 11.007 7.84054 -9.24054
446 1 14.151 11.007 7.86267 -8.99787
447 1 17.2966 11.007 7.86211 -8.94939
448 1 20.4415 11.007 7.86211 -8.94963
449 1 22.0139 12.5794 6.28969 -8.94963
450 1 1.57242 14.1518 7.86211 -8.94964
451 1 3.14484 12.5794 6.28968 -8.94965
452 1 4.7173 14.1518 7.86214 -8.9499
453 1 6.28957 12.5795 6.28959 -8.94866
454 1 7.86222 14.1513 7.86191 -8.99005
455 1 9.43428 12.5794 6.28978 -9.00466
456 1 11.0072 14.1517 7.86212 -9.00488
457 1 12.5793 12.5796 6.29012 -8.98966
458 1 14.1519 14.1519 7.86202 -8.94887
459 1 15.7242 12.5793 6.28971 -8.94984
460 1 17.2966 14.1518 7.86211 -8.94964
461 1 18.8691 12.5794 6.28969 -8.94963
462 1 20.4415 14.1518 7.86211 -8.94963
463 1 1.09491e-07 15.7242 6.28969 -8.94963
464 1 1.57242 17.2966 7.86211 -8.94963
465 1 3.14484 15.7242 6.28969 -8.94965
466 1 4.71726 17.2966 7.86211 -8.94964
467 1 6.2897 15.7242 6.2897 -8.94971
468 1 7.8621 17.2966 7.8621 -8.94938
469 1 9.43453 15.7242 6.28971 -8.95004
470 1 11.007 17.2966 7.86209 -8.94945
471 1 12.5794 15.7242 6.28969 -8.94968
472 1 14.1518 17.2966 7.86211 -8.94965
473 1 15.7242 15.7242 6.28968 -8.94958
474 1 17.2966 17.2966 7.86211 -8.94964
475 1 18.8691 15.7242 6.28969 -8.94963
476 1 20.4415 17.2966 7.86211 -8.94963
477 1 22.0139 18.8691 6.28969 -8.94963
478 1 1.57242 20.4415 7.86211 -8.94963
479 1 3.14484 18.8691 6.28969 -8.94963
480 1 4.71726 20.4415 7.86211 -8.94963
481 1 6.28969 18.8691 6.28969 -8.94963
482 1 7.86211 20.4415 7.86211 -8.94963
483 1 9.43453 18.8691 6.28969 -8.94964
484 1 11.007 20.4415 7.86211 -8.94963
485 1 12.5794 18.8691 6.28969 -8.94963
486 1 14.1518 20.4415 7.86211 -8.94963
487 1 15.7242 18.8691 6.28969 -8.94963
488 1 17.2966 20.4415 7.86211 -8.94963
489 1 18.8691 18.8691 6.28969 -8.94963
490 1 20.4415 20.4415 7.86211 -8.94963
491 1 1.62621e-06 12.5794 9.43453 -8.94962
492 1 3.14489 12.5794 9.43455 -8.9496
493 1 6.29055 12.579 9.43496 -9.03777
494 1 9.42399 12.6009 9.43464 -9.29475
495 1 12.5827 12.5816 9.43443 -8.98438
496 1 15.7243 12.5794 9.43453 -8.95059
497 1 18.8691 12.5794 9.43453 -8.94967
498 1 22.0139 15.7242 9.43453 -8.94963
499 1 3.14484 15.7242 9.43453 -8.94956
500 1 6.28974 15.7242 9.43453 -8.95027
501 1 9.43457 15.725 9.43455 -8.95581
502 1 12.5794 15.7243 9.43454 -8.95043
503 1 15.7242 15.7242 9.43453 -8.94969
512 1 1.57244 11.007 11.0069 -8.94943
514 1 7.84799 11.007 10.9876 -9.27557
516 1 14.1511 11.007 11.0064 -8.99874
519 1 1.57242 14.1518 11.0069 -8.94963
520 1 4.71719 14.1519 11.0068 -8.94913
521 1 7.86196 14.1512 11.0072 -9.04485
527 1 4.71726 17.2966 11.0069 -8.94966
528 1 7.86208 17.2966 11.0069 -8.94919
531 1 17.2966 17.2966 11.007 -8.94964
534 1 4.71726 20.4415 11.007 -8.94963
535 1 7.86211 20.4415 11.007 -8.94963
353 1 3.14484 12.5794 -2.69118e-08 -8.94963
687 2 8.64826 11.007 12.5795 1.02677
513 1 4.71792 11.007 11.0075 -8.99874
686 1 20.4415 20.4415 20.4415 -8.94963
515 1 11.0211 11.007 11.0263 -9.27557
685 1 18.8691 18.8691 18.8691 -8.94963
517 1 17.2966 11.007 11.007 -8.94943
518 1 20.4415 11.007 11.007 -8.94962
684 1 17.2966 20.4415 20.4415 -8.94963
683 1 15.7242 18.8691 18.8691 -8.94963
682 1 14.1518 20.4415 20.4415 -8.94963
522 1 11.0071 14.1512 11.0067 -9.04485
523 1 14.1519 14.1519 11.0071 -8.94913
524 1 17.2966 14.1518 11.007 -8.94963
525 1 20.4415 14.1518 11.007 -8.94963
526 1 1.57242 17.2966 11.007 -8.94964
681 1 12.5794 18.8691 18.8691 -8.94963
680 1 11.007 20.4415 20.4415 -8.94963
529 1 11.007 17.2966 11.007 -8.94919
530 1 14.1518 17.2966 11.007 -8.94966
679 1 9.43453 18.8691 18.8691 -8.94963
532 1 20.4415 17.2966 11.007 -8.94963
533 1 1.57242 20.4415 11.007 -8.94963
678 1 7.86211 20.4415 20.4415 -8.94963
677 1 6.28969 18.8691 18.8691 -8.94963
536 1 11.007 20.4415 11.007 -8.94963
537 1 14.1518 20.4415 11.007 -8.94963
676 1 4.71726 20.4415 20.4415 -8.94963
539 1 20.4415 20.4415 11.007 -8.94963
540 1 1.57244 11.007 14.1518 -8.94939
541 1 4.71802 11.007 14.1512 -8.99787
542 1 7.8513 11.007 14.1734 -9.24054
543 1 11.0101 11.007 14.1548 -8.99095
544 1 14.1518 11.007 14.1517 -8.95117
545 1 17.2966 11.007 14.1518 -8.94964
546 1 20.4415 11.007 14.1518 -8.94963
547 1 22.0139 12.5794 12.5794 -8.94967
548 1 1.57242 14.1518 14.1518 -8.94964
549 1 3.14475 12.5794 12.5794 -8.95059
550 1 4.71716 14.1519 14.1519 -8.94887
551 1 6.28637 12.5816 12.5795 -8.98438
552 1 7.86185 14.1517 14.1518 -9.00488
553 1 9.44507 12.6009 12.5793 -9.29475
554 1 11.0068 14.1513 14.152 -8.99005
555 1 12.5785 12.579 12.5789 -9.03777
556 1 14.1518 14.1518 14.1518 -8.9499
557 1 15.7242 12.5794 12.5793 -8.9496
558 1 17.2966 14.1518 14.1518 -8.94964
559 1 18.8691 12.5794 12.5794 -8.94962
560 1 20.4415 14.1518 14.1518 -8.94963
561 1 8.82071e-08 15.7242 12.5794 -8.94963
562 1 1.57242 17.2966 14.1518 -8.94964
563 1 3.14485 15.7242 12.5794 -8.94969
564 1 4.71726 17.2966 14.1518 -8.94965
565 1 6.28968 15.7243 12.5794 -8.95043
566 1 7.8621 17.2966 14.1518 -8.94945
567 1 9.43449 15.725 12.5794 -8.95581
568 1 11.007 17.2966 14.1518 -8.94938
569 1 12.5793 15.7242 12.5794 -8.95027
570 1 14.1518 17.2966 14.1518 -8.94964
571 1 15.7242 15.7242 12.5794 -8.94956
572 1 17.2966 17.2966 14.1518 -8.94963
573 1 18.8691 15.7242 12.5794 -8.94963
574 1 20.4415 17.2966 14.1518 -8.94963
575 1 22.0139 18.8691 12.5794 -8.94963
576 1 1.57242 20.4415 14.1518 -8.94963
577 1 3.14484 18.8691 12.5794 -8.94963
578 1 4.71726 20.4415 14.1518 -8.94963
579 1 6.28969 18.8691 12.5794 -8.94965
580 1 7.86211 20.4415 14.1518 -8.94963
581 1 9.43453 18.8691 12.5794 -8.94987
582 1 11.007 20.4415 14.1518 -8.94963
583 1 12.5794 18.8691 12.5794 -8.94962
584 1 14.1518 20.4415 14.1518 -8.94963
585 1 15.7242 18.8691 12.5794 -8.94963
586 1 17.2966 20.4415 14.1518 -8.94963
587 1 18.8691 18.8691 12.5794 -8.94963
588 1 20.4415 20.4415 14.1518 -8.94963
589 1 1.57242 11.007 17.2966 -8.94961
590 1 4.71732 11.007 17.2966 -8.95022
591 1 7.86215 11.007 17.2975 -8.95543
592 1 11.007 11.007 17.2967 -8.95059
593 1 14.1518 11.007 17.2966 -8.94967
594 1 17.2966 11.007 17.2966 -8.94963
595 1 20.4415 11.007 17.2966 -8.94963
596 1 1.13996e-06 12.5794 15.7242 -8.94963
597 1 1.57242 14.1518 17.2966 -8.94964
598 1 3.14487 12.5793 15.7242 -8.94984
599 1 4.71728 14.1518 17.2966 -8.9497
600 1 6.2898 12.5796 15.7238 -8.98966
601 1 7.86211 14.1518 17.2966 -8.95003
602 1 9.43478 12.5794 15.7241 -9.00466
603 1 11.0069 14.1518 17.2966 -8.94968
604 1 12.5795 12.5795 15.7243 -8.94866
605 1 14.1518 14.1518 17.2966 -8.94958
606 1 15.7242 12.5794 15.7242 -8.94965
607 1 17.2966 14.1518 17.2966 -8.94963
608 1 18.8691 12.5794 15.7242 -8.94963
609 1 20.4415 14.1518 17.2966 -8.94963
610 1 22.0139 15.7242 15.7242 -8.94963
611 1 1.57242 17.2966 17.2966 -8.94963
612 1 3.14484 15.7242 15.7242 -8.94958
613 1 4.71726 17.2966 17.2966 -8.94963
614 1 6.28969 15.7242 15.7242 -8.94968
615 1 7.86211 17.2966 17.2966 -8.94963
616 1 9.43453 15.7242 15.7242 -8.95004
617 1 11.007 17.2966 17.2966 -8.94964
618 1 12.5794 15.7242 15.7242 -8.94971
619 1 14.1518 17.2966 17.2966 -8.94964
620 1 15.7242 15.7242 15.7242 -8.94965
621 1 17.2966 17.2966 17.2966 -8.94963
622 1 18.8691 15.7242 15.7242 -8.94963
623 1 20.4415 17.2966 17.2966 -8.94963
624 1 1.09353e-08 18.8691 15.7242 -8.94963
625 1 1.57242 20.4415 17.2966 -8.94963
626 1 3.14484 18.8691 15.7242 -8.94963
627 1 4.71726 20.4415 17.2966 -8.94963
628 1 6.28969 18.8691 15.7242 -8.94963
629 1 7.86211 20.4415 17.2966 -8.94963
630 1 9.43453 18.8691 15.7242 -8.94964
631 1 11.007 20.4415 17.2966 -8.94963
632 1 12.5794 18.8691 15.7242 -8.94963
633 1 14.1518 20.4415 17.2966 -8.94963
634 1 15.7242 18.8691 15.7242 -8.94963
635 1 17.2966 20.4415 17.2966 -8.94963
636 1 18.8691 18.8691 15.7242 -8.94963
637 1 20.4415 20.4415 17.2966 -8.94963
638 1 1.57242 11.007 20.4415 -8.94963
639 1 4.71727 11.007 20.4415 -8.94963
640 1 7.86211 11.007 20.4415 -8.94986
641 1 11.0069 11.007 20.4415 -8.94967
642 1 14.1518 11.007 20.4415 -8.94963
643 1 17.2966 11.007 20.4415 -8.94963
644 1 20.4415 11.007 20.4415 -8.94963
645 1 22.0139 12.5794 18.8691 -8.94963
646 1 1.57242 14.1518 20.4415 -8.94963
647 1 3.14484 12.5794 18.8691 -8.94964
648 1 4.71726 14.1518 20.4415 -8.94963
649 1 6.28967 12.5794 18.8691 -8.94937
650 1 7.86211 14.1518 20.4415 -8.94964
651 1 9.43454 12.5794 18.8691 -8.94944
652 1 11.007 14.1518 20.4415 -8.94963
653 1 12.5794 12.5794 18.8691 -8.94965
654 1 14.1518 14.1518 20.4415 -8.94963
655 1 15.7242 12.5794 18.8691 -8.94964
656 1 17.2966 14.1518 20.4415 -8.94963
657 1 18.8691 12.5794 18.8691 -8.94963
658 1 20.4415 14.1518 20.4415 -8.94963
659 1 5.13279e-08 15.7242 18.8691 -8.94963
660 1 1.57242 17.2966 20.4415 -8.94963
661 1 3.14484 15.7242 18.8691 -8.94964
662 1 4.71726 17.2966 20.4415 -8.94963
663 1 6.28969 15.7242 18.8691 -8.94964
664 1 7.86211 17.2966 20.4415 -8.94963
665 1 9.43453 15.7242 18.8691 -8.94964
666 1 11.007 17.2966 20.4415 -8.94963
667 1 12.5794 15.7242 18.8691 -8.94963
668 1 14.1518 17.2966 20.4415 -8.94963
669 1 15.7242 15.7242 18.8691 -8.94963
670 1 17.2966 17.2966 20.4415 -8.94963
671 1 18.8691 15.7242 18.8691 -8.94963
672 1 20.4415 17.2966 20.4415 -8.94963
673 1 22.0139 18.8691 18.8691 -8.94963
674 1 1.57242 20.4415 20.4415 -8.94963
675 1 3.14484 18.8691 18.8691 -8.94963
351 1 -1.56017e-10 12.5794 22.0139 -8.94963
389 1 15.7242 18.8691 22.0139 -8.94963
355 1 6.28969 12.5794 22.0139 -8.94963
367 1 3.14484 15.7242 22.0139 -8.94963
373 1 12.5794 15.7242 22.0139 -8.94963
377 1 18.8691 15.7242 22.0139 -8.94963
379 1 1.5469e-10 18.8691 22.0139 -8.94963
383 1 6.28969 18.8691 22.0139 -8.94963
361 1 15.7242 12.5794 22.0139 -8.94963
