ITEM: TIMESTEP
68
ITEM: NUMBER OF ATOMS
688
ITEM: BOX BOUNDS pp pp pp
0.0000000000000000e+00 2.2013900999999997e+01
0.0000000000000000e+00 2.2013900999999997e+01
0.0000000000000000e+00 2.2013900999999997e+01
ITEM: ATOMS id type x y z c_pot
192 1 7.85503 7.85345 11.0096 -9.03155
2 1 1.57223 1.5723 1.57231 -8.94955
3 1 3.1447 -7.37929e-15 2.34161e-06 -8.94963
4 1 4.7171 1.57225 1.57226 -8.94965
175 1 18.8694 9.43449 9.43446 -8.94983
6 1 7.86205 1.57224 1.57226 -8.94962
7 1 9.43453 1.6692e-15 -3.9175e-15 -8.94962
8 1 11.007 1.57224 1.57225 -8.94962
191 1 4.71486 7.8603 11.0064 -8.95034
10 1 14.152 1.57224 1.57226 -8.94964
174 1 15.7255 9.43421 9.43428 -8.9509
12 1 17.2968 1.57228 1.5723 -8.94956
13 1 18.8692 -3.37219e-15 -1.13485e-05 -8.94953
14 1 20.4415 1.57234 1.57236 -8.94955
173 1 12.5846 9.4293 9.43329 -8.98324
16 1 1.57208 4.71697 1.5723 -8.94952
17 1 3.14459 3.14456 2.14799e-06 -8.94961
18 1 4.71686 4.71678 1.57211 -8.94958
172 1 9.41524 9.37914 9.43206 -9.26266
20 1 7.86196 4.71673 1.57211 -8.94963
21 1 9.43453 3.14451 4.62172e-15 -8.94961
22 1 11.0071 4.71674 1.57211 -8.9496
23 1 12.5795 3.14452 1.93433e-06 -8.94964
24 1 14.1522 4.71675 1.57214 -8.94968
171 1 6.28594 9.42956 9.42893 -9.03259
26 1 17.297 4.71694 1.57221 -8.94944
27 1 18.8692 3.14468 -1.22591e-05 -8.94953
28 1 20.4415 4.71712 1.57233 -8.94963
29 1 22.0137 6.28955 1.24413e-05 -8.94963
30 1 1.57205 7.86195 1.57229 -8.94959
170 1 3.1439 9.43437 9.43425 -8.95064
32 1 4.71656 7.86163 1.57208 -8.94975
33 1 6.28927 6.28909 -2.75749e-05 -8.94958
34 1 7.86161 7.8613 1.57158 -8.94955
35 1 9.43453 6.28907 -9.53151e-17 -8.94955
36 1 11.0073 7.8614 1.57162 -8.94953
169 1 -0.000286501 9.43449 9.43446 -8.94967
38 1 14.1527 7.86139 1.57155 -8.9495
39 1 15.7248 6.28925 -0.000126668 -8.94954
40 1 17.297 7.86194 1.57225 -8.94966
168 1 18.8694 6.28941 9.43447 -8.94968
42 1 20.4415 7.86203 1.57233 -8.94961
167 1 15.7254 6.28886 9.43433 -8.94949
166 1 12.5814 6.28603 9.43279 -8.94841
165 1 9.43394 6.27648 9.43394 -8.96523
46 1 9.43453 9.43393 -2.65307e-15 -8.94987
47 1 12.58 9.43414 -0.000405346 -8.94997
190 1 1.57162 7.86177 11.0069 -8.94999
49 1 18.8692 9.43448 -7.54262e-06 -8.94961
50 1 22.0138 2.02536e-15 3.14474 -8.94959
51 1 1.57215 1.57226 4.71706 -8.9496
52 1 3.14457 2.30684e-15 3.14458 -8.94955
53 1 4.71681 1.57207 4.71677 -8.94955
54 1 6.28954 -4.83265e-16 3.14455 -8.94963
55 1 7.86196 1.57208 4.71679 -8.94959
56 1 9.43453 -6.65008e-15 3.14455 -8.94961
57 1 11.0071 1.57207 4.71678 -8.94958
58 1 12.5795 1.49538e-16 3.14455 -8.94962
59 1 14.1522 1.57207 4.7168 -8.94962
60 1 15.7245 5.11781e-15 3.14459 -8.94959
61 1 17.2969 1.57226 4.71705 -8.94954
62 1 18.8692 9.04782e-16 3.14473 -8.94956
63 1 20.4415 1.57233 4.71716 -8.9496
64 1 -0.000173753 3.14465 3.14469 -8.94955
65 1 1.57189 4.71685 4.7169 -8.94951
66 1 3.14444 3.14446 3.14449 -8.94946
67 1 4.71635 4.71628 4.71633 -8.9491
68 1 6.28943 3.14439 3.1444 -8.94971
69 1 7.86182 4.71627 4.71635 -8.94989
70 1 9.43452 3.14436 3.14442 -8.9496
71 1 11.0072 4.71627 4.71632 -8.94953
72 1 12.5796 3.14438 3.14441 -8.94965
73 1 14.1527 4.71619 4.71639 -8.94954
74 1 15.7246 3.14442 3.14448 -8.94954
75 1 17.2971 4.7169 4.71695 -8.94956
76 1 18.8692 3.14467 3.1447 -8.94959
77 1 20.4415 4.71707 4.71709 -8.94965
78 1 22.0137 6.28952 3.14466 -8.94966
79 1 1.57183 7.86189 4.7169 -8.94969
80 1 3.14413 6.28915 3.14432 -8.94948
81 1 4.71584 7.86108 4.71576 -8.94917
82 1 6.28898 6.28881 3.14379 -8.94959
83 1 7.86108 7.86048 4.71456 -8.95013
84 1 9.4345 6.28875 3.14394 -8.9495
85 1 11.0074 7.86095 4.71488 -8.95002
86 1 12.5799 6.28881 3.14393 -8.94992
87 1 14.1538 7.86027 4.71514 -8.94757
88 1 15.7251 6.28895 3.1441 -8.94904
89 1 17.2973 7.86186 4.71692 -8.94998
90 1 18.8693 6.2895 3.14465 -8.94969
91 1 20.4415 7.86201 4.71709 -8.94971
92 1 -0.000219885 9.43448 3.14465 -8.9496
93 1 3.14417 9.43437 3.14437 -8.9495
94 1 6.28878 9.43408 3.14337 -8.95026
95 1 9.43396 9.43325 3.14202 -8.94828
96 1 12.5809 9.43329 3.14201 -8.94915
97 1 15.7249 9.43438 3.14434 -8.94971
98 1 18.8693 9.43448 3.14465 -8.9496
99 1 -0.000137368 -2.15737e-15 6.28958 -8.94961
100 1 1.57209 1.57225 7.86197 -8.94961
101 1 3.14443 -1.24779e-16 6.2894 -8.94956
102 1 4.71663 1.57197 7.8617 -8.94951
103 1 6.28924 2.13963e-15 6.28914 -8.94972
104 1 7.86166 1.5715 7.86149 -8.94992
105 1 9.43453 3.572e-15 6.28917 -8.9496
106 1 11.0073 1.57155 7.8615 -8.94974
107 1 12.5798 6.47628e-16 6.28916 -8.94969
108 1 14.1525 1.57193 7.86167 -8.94956
109 1 15.7247 -3.606e-15 6.28938 -8.94955
110 1 17.297 1.57225 7.86198 -8.94961
111 1 18.8692 -1.84026e-15 6.28958 -8.94961
112 1 20.4415 1.57232 7.86204 -8.94962
113 1 22.0137 3.14463 6.28954 -8.94961
114 1 1.57185 4.71684 7.86187 -8.94955
115 1 3.14424 3.14435 6.28929 -8.94961
116 1 4.71613 4.71601 7.8614 -8.9497
117 1 6.28887 3.14364 6.28874 -8.9495
118 1 7.86069 4.71388 7.86031 -8.94905
119 1 9.43455 3.1437 6.28895 -8.94946
120 1 11.0081 4.71429 7.86051 -8.94847
121 1 12.5801 3.14371 6.28882 -8.94964
122 1 14.1531 4.71583 7.8613 -8.94929
123 1 15.7249 3.1443 6.28927 -8.94946
124 1 17.2972 4.71684 7.8619 -8.94967
125 1 18.8693 3.14463 6.28954 -8.94963
126 1 20.4415 4.71703 7.862 -8.94965
127 1 -0.000321524 6.28945 6.28947 -8.94978
128 1 1.57164 7.86184 7.86185 -8.95011
129 1 3.14358 6.28881 6.28882 -8.9494
130 1 4.7147 7.8601 7.8601 -8.94921
131 1 6.28763 6.28719 6.28725 -8.94775
132 1 7.85743 7.85584 7.8551 -8.98083
133 1 9.43469 6.2874 6.28836 -8.94988
134 1 11.0103 7.85788 7.85757 -9.00132
135 1 12.581 6.2872 6.28764 -8.95016
136 1 14.1541 7.8602 7.86094 -8.94838
137 1 15.7253 6.28891 6.28903 -8.94929
138 1 17.2975 7.86175 7.86186 -8.94987
139 1 18.8694 6.28943 6.28948 -8.94967
140 1 20.4415 7.86198 7.86199 -8.94979
141 1 22.0136 9.43447 6.28947 -8.94969
142 1 3.14373 9.43432 6.28897 -8.94997
143 1 6.28679 9.43272 6.2854 -8.94814
144 1 9.43297 9.4309 6.28481 -8.99973
145 1 12.5843 9.42912 6.28374 -8.98082
146 1 15.7253 9.43439 6.28921 -8.95126
147 1 18.8693 9.43449 6.28951 -8.94974
148 1 -0.000154125 3.51476e-15 9.43448 -8.9496
149 1 3.14439 2.32306e-15 9.43442 -8.94961
150 1 6.28905 -2.51523e-15 9.43422 -8.94963
151 1 9.43453 1.56676e-15 9.43423 -8.95052
152 1 12.58 2.32235e-15 9.4342 -8.9497
153 1 15.7247 -2.71762e-15 9.43443 -8.94959
154 1 18.8692 -1.36678e-15 9.4345 -8.9496
155 1 -0.000209075 3.14462 9.43447 -8.94962
156 1 3.1442 3.14432 9.43437 -8.94962
157 1 6.28868 3.14322 9.434 -8.94919
158 1 9.43448 3.1415 9.43413 -8.95252
159 1 12.5804 3.14313 9.4339 -8.94941
160 1 15.7249 3.14431 9.4344 -8.9496
161 1 18.8693 3.14462 9.43448 -8.94962
162 1 22.0136 6.28941 9.43443 -8.94967
163 1 3.14371 6.28882 9.43411 -8.94913
164 1 6.28815 6.28661 9.43325 -8.94989
177 1 4.71663 1.57198 11.007 -8.94954
178 1 7.86149 1.57107 11.007 -8.95012
181 1 17.297 1.57225 11.007 -8.94958
184 1 4.71615 4.71605 11.0069 -8.95002
185 1 7.85994 4.71218 11.0071 -8.94769
188 1 17.2972 4.71685 11.007 -8.94959
5 1 6.28961 -3.77573e-15 1.74987e-06 -8.94962
44 1 3.14431 9.43439 7.095e-05 -8.9495
176 1 1.57207 1.57225 11.0069 -8.94958
343 1 18.8693 9.43448 18.8692 -8.9496
342 1 15.7249 9.43437 18.8695 -8.9495
179 1 11.0076 1.57107 11.0069 -8.95012
180 1 14.1524 1.57198 11.0069 -8.94954
341 1 12.5803 9.43408 18.8705 -8.95026
182 1 20.4415 1.57231 11.007 -8.94961
183 1 1.57187 4.71685 11.0069 -8.94959
340 1 9.4351 9.43325 18.8719 -8.94828
339 1 6.28816 9.43329 18.8719 -8.94915
186 1 11.0091 4.71218 11.0068 -8.94769
187 1 14.1529 4.71605 11.007 -8.95002
338 1 3.14412 9.43438 18.8696 -8.94971
189 1 20.4415 4.71702 11.007 -8.94962
337 1 22.0137 9.43448 18.8692 -8.9496
336 1 20.4415 7.86203 20.4416 -8.94961
335 1 18.8693 6.28952 18.8692 -8.94966
193 1 11.014 7.85345 11.0043 -9.03155
194 1 14.1542 7.8603 11.0075 -8.95034
195 1 17.2974 7.86177 11.007 -8.94999
196 1 20.4415 7.86196 11.007 -8.94979
197 1 22.0137 4.99679e-15 12.5794 -8.9496
198 1 1.57207 1.57225 14.1519 -8.94961
199 1 3.14438 -4.67897e-15 12.5795 -8.94959
200 1 4.7166 1.57193 14.1522 -8.94956
201 1 6.28906 5.71922e-15 12.5797 -8.9497
202 1 7.86171 1.57155 14.1524 -8.94974
203 1 9.43453 2.48769e-15 12.5797 -8.95052
204 1 11.0074 1.5715 14.1524 -8.94992
205 1 12.58 -7.92445e-15 12.5797 -8.94963
206 1 14.1524 1.57197 14.1522 -8.94951
207 1 15.7247 5.78736e-15 12.5795 -8.94961
208 1 17.297 1.57225 14.1519 -8.94961
209 1 18.8692 1.68185e-15 12.5794 -8.9496
210 1 20.4415 1.57232 14.1519 -8.94962
211 1 22.0137 3.14462 12.5794 -8.94962
212 1 1.57185 4.71684 14.152 -8.94967
213 1 3.14419 3.14431 12.5795 -8.9496
214 1 4.71599 4.71583 14.1526 -8.94929
215 1 6.28869 3.14313 12.58 -8.94941
216 1 7.86098 4.71429 14.1534 -8.94847
217 1 9.43457 3.1415 12.5798 -8.95252
218 1 11.0084 4.71388 14.1536 -8.94905
219 1 12.5804 3.14322 12.5799 -8.94919
220 1 14.1529 4.71601 14.1525 -8.9497
221 1 15.7249 3.14432 12.5795 -8.94962
222 1 17.2972 4.71684 14.152 -8.94955
223 1 18.8693 3.14462 12.5794 -8.94962
224 1 20.4415 4.71703 14.1519 -8.94965
225 1 -0.000349595 6.28941 12.5794 -8.94968
226 1 1.57159 7.86175 14.152 -8.94987
227 1 3.1437 6.28886 12.5796 -8.94949
228 1 4.71499 7.8602 14.153 -8.94838
229 1 6.28766 6.28603 12.5811 -8.94841
230 1 7.85872 7.85788 14.1563 -9.00132
231 1 9.43512 6.27648 12.58 -8.96523
232 1 11.0116 7.85584 14.1588 -8.98083
233 1 12.5809 6.28661 12.5806 -8.94989
234 1 14.1544 7.8601 14.1538 -8.94921
235 1 15.7254 6.28882 12.5798 -8.94913
236 1 17.2974 7.86184 14.1521 -8.95011
237 1 18.8694 6.28941 12.5795 -8.94967
238 1 20.4415 7.86198 14.1519 -8.94979
239 1 22.0136 9.43449 12.5794 -8.94983
240 1 3.14354 9.43421 12.5796 -8.9509
241 1 6.28446 9.4293 12.5806 -8.98324
242 1 9.45382 9.37914 12.5818 -9.26266
243 1 12.5831 9.42956 12.585 -9.03259
244 1 15.7252 9.43437 12.5797 -8.95064
245 1 18.8693 9.43449 12.5794 -8.94967
246 1 -0.00015472 2.16152e-15 15.7243 -8.94961
247 1 1.57212 1.57226 17.2969 -8.94954
248 1 3.1444 -7.82243e-15 15.7245 -8.94955
249 1 4.71684 1.57207 17.2971 -8.94962
250 1 6.28928 -8.09512e-15 15.7247 -8.94969
251 1 7.86197 1.57207 17.2971 -8.94958
252 1 9.43453 -6.91198e-15 15.7247 -8.9496
253 1 11.0071 1.57208 17.2971 -8.94959
254 1 12.5798 -4.70759e-15 15.7248 -8.94972
255 1 14.1522 1.57207 17.2971 -8.94955
256 1 15.7246 6.07687e-15 15.7245 -8.94956
257 1 17.2969 1.57226 17.2968 -8.9496
258 1 18.8692 1.48148e-15 15.7243 -8.94961
259 1 20.4415 1.57233 17.2967 -8.9496
260 1 -0.00021358 3.14463 15.7244 -8.94963
261 1 1.57194 4.7169 17.297 -8.94956
262 1 3.1442 3.1443 15.7246 -8.94946
263 1 4.71639 4.71619 17.2975 -8.94954
264 1 6.28898 3.14371 15.7251 -8.94964
265 1 7.86184 4.71627 17.2976 -8.94953
266 1 9.43451 3.1437 15.7249 -8.94946
267 1 11.0072 4.71627 17.2976 -8.94989
268 1 12.5802 3.14364 15.7252 -8.9495
269 1 14.1527 4.71628 17.2976 -8.9491
270 1 15.7248 3.14435 15.7246 -8.94961
271 1 17.2972 4.71685 17.297 -8.94951
272 1 18.8693 3.14463 15.7244 -8.94961
273 1 20.4415 4.71707 17.2968 -8.94965
274 1 22.0136 6.28943 15.7244 -8.94967
275 1 1.57175 7.86186 17.297 -8.94998
276 1 3.14376 6.28891 15.7249 -8.94929
277 1 4.71521 7.86027 17.2988 -8.94757
278 1 6.28806 6.2872 15.7263 -8.95016
279 1 7.86169 7.86095 17.299 -8.95002
280 1 9.43436 6.2874 15.7255 -8.94988
281 1 11.008 7.86048 17.2993 -8.95013
282 1 12.5814 6.28719 15.7267 -8.94775
283 1 14.1532 7.86108 17.2981 -8.94917
284 1 15.7255 6.28881 15.7251 -8.9494
285 1 17.2972 7.86189 17.297 -8.94969
286 1 18.8694 6.28945 15.7244 -8.94978
287 1 20.4415 7.86201 17.2968 -8.94971
288 1 -0.000288055 9.43449 15.7244 -8.94974
289 1 3.14379 9.43439 15.7247 -8.95126
290 1 6.28474 9.42912 15.7302 -8.98082
291 1 9.43608 9.4309 15.7291 -8.99973
292 1 12.5823 9.43272 15.7285 -8.94814
293 1 15.7253 9.43432 15.7249 -8.94997
294 1 18.8694 9.43447 15.7244 -8.94969
295 1 22.0138 -3.36181e-16 18.8692 -8.94956
296 1 1.57222 1.57228 20.4416 -8.94956
297 1 3.14457 8.41767e-16 18.8693 -8.94959
298 1 4.7171 1.57224 20.4416 -8.94964
299 1 6.28954 7.10576e-15 18.8694 -8.94962
300 1 7.86206 1.57224 20.4416 -8.94962
301 1 9.43453 2.65559e-15 18.8694 -8.94961
302 1 11.007 1.57224 20.4416 -8.94962
303 1 12.5795 -6.93217e-15 18.8694 -8.94963
304 1 14.152 1.57225 20.4416 -8.94965
305 1 15.7245 1.08871e-14 18.8693 -8.94955
306 1 17.2968 1.5723 20.4416 -8.94955
307 1 18.8692 1.1678e-15 18.8692 -8.94959
308 1 20.4415 1.57234 20.4415 -8.94955
309 1 22.0137 3.14467 18.8692 -8.94959
310 1 1.57205 4.71694 20.4417 -8.94944
311 1 3.14442 3.14442 18.8694 -8.94954
312 1 4.71687 4.71675 20.4418 -8.94968
313 1 6.28945 3.14438 18.8695 -8.94965
314 1 7.86198 4.71674 20.4418 -8.9496
315 1 9.43454 3.14436 18.8695 -8.9496
316 1 11.0071 4.71673 20.4418 -8.94963
317 1 12.5796 3.14439 18.8695 -8.94971
318 1 14.1522 4.71678 20.4418 -8.94958
319 1 15.7246 3.14446 18.8694 -8.94946
320 1 17.297 4.71697 20.4416 -8.94952
321 1 18.8692 3.14465 18.8692 -8.94955
322 1 20.4415 4.71712 20.4416 -8.94963
323 1 -0.000264767 6.2895 18.8693 -8.94969
324 1 1.57201 7.86194 20.4417 -8.94966
325 1 3.14397 6.28895 18.8698 -8.94904
326 1 4.71636 7.86139 20.4423 -8.9495
327 1 6.28915 6.28881 18.87 -8.94992
328 1 7.86181 7.8614 20.4423 -8.94953
329 1 9.43455 6.28875 18.87 -8.9495
330 1 11.0074 7.8613 20.4423 -8.94955
331 1 12.5801 6.28881 18.8701 -8.94959
332 1 14.1525 7.86163 20.4418 -8.94975
333 1 15.7249 6.28915 18.8696 -8.94948
334 1 17.297 7.86195 20.4416 -8.94959
45 1 6.28904 9.43414 22.0143 -8.94997
11 1 15.7244 -1.88594e-16 22.0139 -8.94963
15 1 -0.000138151 3.14468 22.0139 -8.94953
19 1 6.28954 3.14452 22.0139 -8.94964
25 1 15.7245 3.14456 22.0139 -8.94961
31 1 3.1443 6.28925 22.014 -8.94954
37 1 12.5798 6.28909 22.0139 -8.94958
41 1 18.8692 6.28955 22.0139 -8.94963
43 1 -0.000181349 9.43448 22.0139 -8.94961
1 1 -9.52362e-05 1.78796e-16 22.0139 -8.94953
9 1 12.5794 6.02156e-16 22.0139 -8.94962
48 1 15.7248 9.43439 22.0138 -8.9495
344 1 1.57205 11.007 1.57228 -8.94958
345 1 4.71659 11.007 1.57206 -8.9495
346 1 7.86179 11.007 1.57162 -8.95048
347 1 11.0073 11.007 1.57001 -8.95256
348 1 14.1525 11.007 1.5717 -8.94926
349 1 17.297 11.007 1.57224 -8.94959
350 1 20.4415 11.007 1.57233 -8.94961
688 2 10.2167 11.007 9.43417 0.778806
352 1 1.57205 14.1519 1.57229 -8.94959
511 1 18.8693 18.8693 9.43448 -8.94962
354 1 4.71656 14.1523 1.57208 -8.94975
510 1 15.7249 18.8696 9.4344 -8.9496
356 1 7.86161 14.1526 1.57158 -8.94955
357 1 9.43453 12.58 -1.38351e-15 -8.94987
358 1 11.0073 14.1525 1.57162 -8.94953
359 1 12.58 12.5798 -0.000405346 -8.94997
360 1 14.1527 14.1525 1.57155 -8.9495
538 1 17.297 20.4417 11.007 -8.94958
362 1 17.297 14.152 1.57225 -8.94966
363 1 18.8692 12.5794 -7.54262e-06 -8.94961
364 1 20.4415 14.1519 1.57233 -8.94961
365 1 22.0137 15.7243 1.24413e-05 -8.94963
366 1 1.57208 17.2969 1.5723 -8.94952
509 1 12.5804 18.8708 9.4339 -8.94941
368 1 4.71686 17.2971 1.57211 -8.94958
369 1 6.28927 15.7248 -2.75749e-05 -8.94958
370 1 7.86196 17.2972 1.57211 -8.94963
371 1 9.43453 15.7248 5.43655e-15 -8.94955
372 1 11.0071 17.2972 1.57211 -8.9496
508 1 9.43448 18.8724 9.43413 -8.95252
374 1 14.1522 17.2971 1.57214 -8.94968
375 1 15.7248 15.7247 -0.000126668 -8.94954
376 1 17.297 17.297 1.57221 -8.94944
507 1 6.28868 18.8707 9.434 -8.94919
378 1 20.4415 17.2968 1.57233 -8.94963
506 1 3.1442 18.8696 9.43437 -8.94962
380 1 1.57223 20.4416 1.57231 -8.94955
381 1 3.14459 18.8693 2.14799e-06 -8.94961
382 1 4.7171 20.4416 1.57226 -8.94965
505 1 -0.000209075 18.8693 9.43447 -8.94962
384 1 7.86205 20.4417 1.57226 -8.94962
385 1 9.43453 18.8694 1.07652e-14 -8.94961
386 1 11.007 20.4417 1.57225 -8.94962
387 1 12.5795 18.8694 1.93433e-06 -8.94964
388 1 14.152 20.4417 1.57226 -8.94964
504 1 18.8694 15.7245 9.43447 -8.94968
390 1 17.2968 20.4416 1.5723 -8.94956
391 1 18.8692 18.8692 -1.22591e-05 -8.94953
392 1 20.4415 20.4416 1.57236 -8.94955
393 1 1.57186 11.007 4.71688 -8.94956
394 1 4.71616 11.007 4.71589 -8.9487
395 1 7.86185 11.007 4.71308 -8.95357
396 1 11.0077 11.007 4.70538 -8.96447
397 1 14.1525 11.007 4.71596 -8.94931
398 1 17.2971 11.007 4.71688 -8.94943
399 1 20.4415 11.007 4.71707 -8.94964
400 1 -0.000219885 12.5794 3.14465 -8.9496
401 1 1.57183 14.152 4.7169 -8.94969
402 1 3.14417 12.5795 3.14437 -8.9495
403 1 4.71584 14.1528 4.71576 -8.94917
404 1 6.28878 12.5798 3.14337 -8.95026
405 1 7.86108 14.1534 4.71456 -8.95013
406 1 9.43396 12.5807 3.14202 -8.94828
407 1 11.0074 14.153 4.71488 -8.95002
408 1 12.5809 12.5806 3.14201 -8.94915
409 1 14.1538 14.1536 4.71514 -8.94757
410 1 15.7249 12.5795 3.14434 -8.94971
411 1 17.2973 14.152 4.71692 -8.94998
412 1 18.8693 12.5794 3.14465 -8.9496
413 1 20.4415 14.1519 4.71709 -8.94971
414 1 22.0137 15.7244 3.14466 -8.94966
415 1 1.57189 17.297 4.7169 -8.94951
416 1 3.14413 15.7247 3.14432 -8.94948
417 1 4.71635 17.2976 4.71633 -8.9491
418 1 6.28898 15.7251 3.14379 -8.94959
419 1 7.86182 17.2976 4.71635 -8.94989
420 1 9.4345 15.7252 3.14394 -8.9495
421 1 11.0072 17.2976 4.71632 -8.94953
422 1 12.5799 15.7251 3.14393 -8.94992
423 1 14.1527 17.2977 4.71639 -8.94954
424 1 15.7251 15.7249 3.1441 -8.94904
425 1 17.2971 17.297 4.71695 -8.94956
426 1 18.8693 15.7244 3.14465 -8.94969
427 1 20.4415 17.2968 4.71709 -8.94965
428 1 -0.000173753 18.8693 3.14469 -8.94955
429 1 1.57215 20.4416 4.71706 -8.9496
430 1 3.14444 18.8694 3.14449 -8.94946
431 1 4.71681 20.4418 4.71677 -8.94955
432 1 6.28943 18.8695 3.1444 -8.94971
433 1 7.86196 20.4418 4.71679 -8.94959
434 1 9.43452 18.8695 3.14442 -8.9496
435 1 11.0071 20.4418 4.71678 -8.94958
436 1 12.5796 18.8695 3.14441 -8.94965
437 1 14.1522 20.4418 4.7168 -8.94962
438 1 15.7246 18.8695 3.14448 -8.94954
439 1 17.2969 20.4416 4.71705 -8.94954
440 1 18.8692 18.8692 3.1447 -8.94959
441 1 20.4415 20.4416 4.71716 -8.9496
442 1 1.5718 11.007 7.86183 -8.94958
443 1 4.71598 11.007 7.86082 -8.95055
444 1 7.85743 11.007 7.84633 -8.99925
445 1 11.0283 11.007 7.80968 -9.2129
446 1 14.1514 11.007 7.86222 -9.00092
447 1 17.297 11.007 7.86189 -8.94894
448 1 20.4415 11.007 7.86198 -8.94956
449 1 22.0136 12.5794 6.28947 -8.94969
450 1 1.57164 14.1521 7.86185 -8.95011
451 1 3.14373 12.5796 6.28897 -8.94997
452 1 4.7147 14.1538 7.8601 -8.94921
453 1 6.28679 12.5812 6.2854 -8.94814
454 1 7.85743 14.1581 7.8551 -8.98083
455 1 9.43297 12.583 6.28481 -8.99973
456 1 11.0103 14.156 7.85757 -9.00132
457 1 12.5843 12.5848 6.28374 -8.98082
458 1 14.1541 14.1537 7.86094 -8.94838
459 1 15.7253 12.5795 6.28921 -8.95126
460 1 17.2975 14.1522 7.86186 -8.94987
461 1 18.8693 12.5794 6.28951 -8.94974
462 1 20.4415 14.1519 7.86199 -8.94979
463 1 -0.000321524 15.7244 6.28947 -8.94978
464 1 1.57185 17.2971 7.86187 -8.94955
465 1 3.14358 15.7251 6.28882 -8.9494
466 1 4.71613 17.2979 7.8614 -8.9497
467 1 6.28763 15.7267 6.28725 -8.94775
468 1 7.86069 17.3 7.86031 -8.94905
469 1 9.43469 15.7265 6.28836 -8.94988
470 1 11.0081 17.2996 7.86051 -8.94847
471 1 12.581 15.7267 6.28764 -8.95016
472 1 14.1531 17.2981 7.8613 -8.94929
473 1 15.7253 15.725 6.28903 -8.94929
474 1 17.2972 17.2971 7.8619 -8.94967
475 1 18.8694 15.7245 6.28948 -8.94967
476 1 20.4415 17.2969 7.862 -8.94965
477 1 22.0137 18.8693 6.28954 -8.94961
478 1 1.57209 20.4417 7.86197 -8.94961
479 1 3.14424 18.8696 6.28929 -8.94961
480 1 4.71663 20.4419 7.8617 -8.94951
481 1 6.28887 18.8703 6.28874 -8.9495
482 1 7.86166 20.4424 7.86149 -8.94992
483 1 9.43455 18.8702 6.28895 -8.94946
484 1 11.0073 20.4424 7.8615 -8.94974
485 1 12.5801 18.8702 6.28882 -8.94964
486 1 14.1525 20.442 7.86167 -8.94956
487 1 15.7249 18.8696 6.28927 -8.94946
488 1 17.297 20.4417 7.86198 -8.94961
489 1 18.8693 18.8693 6.28954 -8.94963
490 1 20.4415 20.4416 7.86204 -8.94962
491 1 -0.000286501 12.5794 9.43446 -8.94967
492 1 3.1439 12.5795 9.43425 -8.95064
493 1 6.28594 12.5843 9.42893 -9.03259
494 1 9.41524 12.6348 9.43206 -9.26266
495 1 12.5846 12.5846 9.43329 -8.98324
496 1 15.7255 12.5797 9.43428 -8.9509
497 1 18.8694 12.5794 9.43446 -8.94983
498 1 22.0136 15.7245 9.43443 -8.94967
499 1 3.14371 15.7251 9.43411 -8.94913
500 1 6.28815 15.7273 9.43325 -8.94989
501 1 9.43394 15.7374 9.43394 -8.96523
502 1 12.5814 15.7279 9.43279 -8.94841
503 1 15.7254 15.725 9.43433 -8.94949
512 1 1.57204 11.007 11.0069 -8.94917
514 1 7.83691 11.007 10.9591 -9.24813
516 1 14.1518 11.007 11.0063 -9.00248
519 1 1.57162 14.1521 11.0069 -8.94999
520 1 4.71486 14.1536 11.0064 -8.95034
521 1 7.85503 14.1604 11.0096 -9.03155
527 1 4.71615 17.2978 11.0069 -8.95002
528 1 7.85994 17.3017 11.0071 -8.94769
531 1 17.2972 17.297 11.007 -8.94959
534 1 4.71663 20.4419 11.007 -8.94954
535 1 7.86149 20.4428 11.007 -8.95012
353 1 3.14431 12.5795 7.095e-05 -8.9495
687 2 8.65238 11.007 12.5797 0.778806
513 1 4.71728 11.007 11.0076 -9.00248
686 1 20.4415 20.4416 20.4415 -8.94955
515 1 11.0321 11.007 11.0548 -9.24813
685 1 18.8692 18.8693 18.8692 -8.94955
517 1 17.297 11.007 11.007 -8.94917
518 1 20.4415 11.007 11.007 -8.94947
684 1 17.2968 20.4416 20.4416 -8.94955
683 1 15.7246 18.8694 18.8694 -8.94946
682 1 14.152 20.4416 20.4416 -8.94965
522 1 11.014 14.1604 11.0043 -9.03155
523 1 14.1542 14.1536 11.0075 -8.95034
524 1 17.2974 14.1521 11.007 -8.94999
525 1 20.4415 14.1519 11.007 -8.94979
526 1 1.57187 17.297 11.0069 -8.94959
681 1 12.5796 18.8695 18.8695 -8.94971
680 1 11.007 20.4417 20.4416 -8.94962
529 1 11.0091 17.3017 11.0068 -8.94769
530 1 14.1529 17.2978 11.007 -8.95002
679 1 9.43454 18.8695 18.8695 -8.9496
532 1 20.4415 17.2969 11.007 -8.94962
533 1 1.57207 20.4417 11.0069 -8.94958
678 1 7.86206 20.4417 20.4416 -8.94962
677 1 6.28945 18.8695 18.8695 -8.94965
536 1 11.0076 20.4428 11.0069 -8.95012
537 1 14.1524 20.4419 11.0069 -8.94954
676 1 4.7171 20.4417 20.4416 -8.94964
539 1 20.4415 20.4416 11.007 -8.94961
540 1 1.57203 11.007 14.152 -8.94894
541 1 4.71764 11.007 14.1517 -9.00092
542 1 7.84072 11.007 14.2042 -9.2129
543 1 11.0116 11.007 14.1676 -8.99925
544 1 14.1531 11.007 14.1531 -8.95055
545 1 17.2973 11.007 14.1521 -8.94958
546 1 20.4415 11.007 14.1519 -8.94956
547 1 22.0136 12.5794 12.5794 -8.94983
548 1 1.57159 14.1522 14.152 -8.94987
549 1 3.14354 12.5797 12.5796 -8.9509
550 1 4.71499 14.1537 14.153 -8.94838
551 1 6.28446 12.5846 12.5806 -8.98324
552 1 7.85872 14.156 14.1563 -9.00132
553 1 9.45382 12.6348 12.5818 -9.26266
554 1 11.0116 14.1581 14.1588 -8.98083
555 1 12.5831 12.5843 12.585 -9.03259
556 1 14.1544 14.1538 14.1538 -8.94921
557 1 15.7252 12.5795 12.5797 -8.95064
558 1 17.2974 14.1521 14.1521 -8.95011
559 1 18.8693 12.5794 12.5794 -8.94967
560 1 20.4415 14.1519 14.1519 -8.94979
561 1 -0.000349595 15.7245 12.5794 -8.94968
562 1 1.57185 17.2971 14.152 -8.94967
563 1 3.1437 15.725 12.5796 -8.94949
564 1 4.71599 17.2981 14.1526 -8.94929
565 1 6.28766 15.7279 12.5811 -8.94841
566 1 7.86098 17.2996 14.1534 -8.94847
567 1 9.43512 15.7374 12.58 -8.96523
568 1 11.0084 17.3 14.1536 -8.94905
569 1 12.5809 15.7273 12.5806 -8.94989
570 1 14.1529 17.2979 14.1525 -8.9497
571 1 15.7254 15.7251 12.5798 -8.94913
572 1 17.2972 17.2971 14.152 -8.94955
573 1 18.8694 15.7245 12.5795 -8.94967
574 1 20.4415 17.2969 14.1519 -8.94965
575 1 22.0137 18.8693 12.5794 -8.94962
576 1 1.57207 20.4417 14.1519 -8.94961
577 1 3.14419 18.8696 12.5795 -8.9496
578 1 4.7166 20.442 14.1522 -8.94956
579 1 6.28869 18.8708 12.58 -8.94941
580 1 7.86171 20.4424 14.1524 -8.94974
581 1 9.43457 18.8724 12.5798 -8.95252
582 1 11.0074 20.4424 14.1524 -8.94992
583 1 12.5804 18.8707 12.5799 -8.94919
584 1 14.1524 20.4419 14.1522 -8.94951
585 1 15.7249 18.8696 12.5795 -8.94962
586 1 17.297 20.4417 14.1519 -8.94961
587 1 18.8693 18.8693 12.5794 -8.94962
588 1 20.4415 20.4416 14.1519 -8.94962
589 1 1.57191 11.007 17.297 -8.94943
590 1 4.71651 11.007 17.2979 -8.94931
591 1 7.86131 11.007 17.3085 -8.96447
592 1 11.0072 11.007 17.3008 -8.95357
593 1 14.1529 11.007 17.298 -8.9487
594 1 17.2972 11.007 17.297 -8.94956
595 1 20.4415 11.007 17.2968 -8.94964
596 1 -0.000288055 12.5794 15.7244 -8.94974
597 1 1.57175 14.152 17.297 -8.94998
598 1 3.14379 12.5795 15.7247 -8.95126
599 1 4.71521 14.1536 17.2988 -8.94757
600 1 6.28474 12.5848 15.7302 -8.98082
601 1 7.86169 14.153 17.299 -8.95002
602 1 9.43608 12.583 15.7291 -8.99973
603 1 11.008 14.1534 17.2993 -8.95013
604 1 12.5823 12.5812 15.7285 -8.94814
605 1 14.1532 14.1528 17.2981 -8.94917
606 1 15.7253 12.5796 15.7249 -8.94997
607 1 17.2972 14.152 17.297 -8.94969
608 1 18.8694 12.5794 15.7244 -8.94969
609 1 20.4415 14.1519 17.2968 -8.94971
610 1 22.0136 15.7245 15.7244 -8.94967
611 1 1.57194 17.297 17.297 -8.94956
612 1 3.14376 15.725 15.7249 -8.94929
613 1 4.71639 17.2977 17.2975 -8.94954
614 1 6.28806 15.7267 15.7263 -8.95016
615 1 7.86184 17.2976 17.2976 -8.94953
616 1 9.43436 15.7265 15.7255 -8.94988
617 1 11.0072 17.2976 17.2976 -8.94989
618 1 12.5814 15.7267 15.7267 -8.94775
619 1 14.1527 17.2976 17.2976 -8.9491
620 1 15.7255 15.7251 15.7251 -8.9494
621 1 17.2972 17.297 17.297 -8.94951
622 1 18.8694 15.7244 15.7244 -8.94978
623 1 20.4415 17.2968 17.2968 -8.94965
624 1 -0.00021358 18.8693 15.7244 -8.94963
625 1 1.57212 20.4416 17.2969 -8.94954
626 1 3.1442 18.8696 15.7246 -8.94946
627 1 4.71684 20.4418 17.2971 -8.94962
628 1 6.28898 18.8702 15.7251 -8.94964
629 1 7.86197 20.4418 17.2971 -8.94958
630 1 9.43451 18.8702 15.7249 -8.94946
631 1 11.0071 20.4418 17.2971 -8.94959
632 1 12.5802 18.8703 15.7252 -8.9495
633 1 14.1522 20.4418 17.2971 -8.94955
634 1 15.7248 18.8696 15.7246 -8.94961
635 1 17.2969 20.4416 17.2968 -8.9496
636 1 18.8693 18.8693 15.7244 -8.94961
637 1 20.4415 20.4416 17.2967 -8.9496
638 1 1.57203 11.007 20.4417 -8.94959
639 1 4.71653 11.007 20.4422 -8.94926
640 1 7.86179 11.007 20.4439 -8.95256
641 1 11.0073 11.007 20.4423 -8.95048
642 1 14.1525 11.007 20.4418 -8.9495
643 1 17.297 11.007 20.4416 -8.94958
644 1 20.4415 11.007 20.4416 -8.94961
645 1 22.0137 12.5794 18.8692 -8.9496
646 1 1.57201 14.152 20.4417 -8.94966
647 1 3.14412 12.5795 18.8696 -8.94971
648 1 4.71636 14.1525 20.4423 -8.9495
649 1 6.28816 12.5806 18.8719 -8.94915
650 1 7.86181 14.1525 20.4423 -8.94953
651 1 9.4351 12.5807 18.8719 -8.94828
652 1 11.0074 14.1526 20.4423 -8.94955
653 1 12.5803 12.5798 18.8705 -8.95026
654 1 14.1525 14.1523 20.4418 -8.94975
655 1 15.7249 12.5795 18.8695 -8.9495
656 1 17.297 14.1519 20.4416 -8.94959
657 1 18.8693 12.5794 18.8692 -8.9496
658 1 20.4415 14.1519 20.4416 -8.94961
659 1 -0.000264767 15.7244 18.8693 -8.94969
660 1 1.57205 17.297 20.4417 -8.94944
661 1 3.14397 15.7249 18.8698 -8.94904
662 1 4.71687 17.2971 20.4418 -8.94968
663 1 6.28915 15.7251 18.87 -8.94992
664 1 7.86198 17.2972 20.4418 -8.9496
665 1 9.43455 15.7252 18.87 -8.9495
666 1 11.0071 17.2972 20.4418 -8.94963
667 1 12.5801 15.7251 18.8701 -8.94959
668 1 14.1522 17.2971 20.4418 -8.94958
669 1 15.7249 15.7247 18.8696 -8.94948
670 1 17.297 17.2969 20.4416 -8.94952
671 1 18.8693 15.7244 18.8692 -8.94966
672 1 20.4415 17.2968 20.4416 -8.94963
673 1 22.0137 18.8692 18.8692 -8.94959
674 1 1.57222 20.4416 20.4416 -8.94956
675 1 3.14442 18.8695 18.8694 -8.94954
351 1 -0.000181349 12.5794 22.0139 -8.94961
389 1 15.7245 18.8693 22.0139 -8.94961
355 1 6.28904 12.5798 22.0143 -8.94997
367 1 3.1443 15.7247 22.014 -8.94954
373 1 12.5798 15.7248 22.0139 -8.94958
377 1 18.8692 15.7243 22.0139 -8.94963
379 1 -0.000138151 18.8692 22.0139 -8.94953
383 1 6.28954 18.8694 22.0139 -8.94964
361 1 15.7248 12.5795 22.0138 -8.9495
