ITEM: TIMESTEP
95
ITEM: NUMBER OF ATOMS
688
ITEM: BOX BOUNDS pp pp pp
0.0000000000000000e+00 2.2013900999999997e+01
0.0000000000000000e+00 2.2013900999999997e+01
0.0000000000000000e+00 2.2013900999999997e+01
ITEM: ATOMS id type x y z c_pot
7 1 9.43449 0.000190267 -0.000175002 -8.94953
2 1 1.57194 1.57236 1.57194 -8.94923
448 1 20.4438 11.0068 7.86207 -8.95097
4 1 4.71693 1.57228 1.57191 -8.94971
447 1 17.3061 11.0053 7.85964 -8.95922
6 1 7.86197 1.57223 1.5719 -8.94944
175 1 18.8715 9.43344 9.43479 -8.94803
8 1 11.007 1.57216 1.57189 -8.94952
174 1 15.7274 9.43157 9.43459 -8.94179
10 1 14.152 1.57209 1.57196 -8.94946
446 1 14.1916 10.9753 7.81657 -8.88589
12 1 17.2971 1.57202 1.57201 -8.9496
445 1 11.0835 11.0126 7.64517 -8.08919
14 1 20.4417 1.5723 1.57214 -8.94949
444 1 7.86373 10.985 7.84672 -8.86644
16 1 1.57208 4.71683 1.57181 -8.94954
443 1 4.71727 11.0072 7.86179 -8.94877
18 1 4.7163 4.71628 1.57119 -8.94957
442 1 1.57214 11.0069 7.86196 -8.94885
20 1 7.8617 4.71632 1.57147 -8.94919
149 1 3.14367 0.00057688 9.43448 -8.94942
22 1 11.0069 4.71607 1.57138 -8.94953
154 1 18.8696 0.00025678 9.43448 -8.94952
24 1 14.1523 4.71588 1.57127 -8.94951
188 1 17.2985 4.71525 11.0067 -8.9487
26 1 17.298 4.71567 1.57119 -8.94852
183 1 1.57107 4.71624 11.0071 -8.9494
28 1 20.4421 4.71657 1.57176 -8.94918
397 1 14.164 11.0048 4.69943 -8.95177
30 1 1.57214 7.86179 1.57178 -8.94937
396 1 11.0121 11.0083 4.72154 -8.99922
32 1 4.71647 7.86166 1.57125 -8.94975
395 1 7.86237 11.0056 4.71349 -8.95123
34 1 7.86175 7.86152 1.57074 -8.95161
35 1 9.43409 6.28872 -0.000416035 -8.94947
36 1 11.0067 7.86053 1.56982 -8.95
37 1 12.5795 6.28859 -0.000603839 -8.94957
38 1 14.1533 7.86019 1.56864 -8.95146
181 1 17.2975 1.57199 11.0069 -8.9495
40 1 17.2987 7.86059 1.57002 -8.94938
346 1 7.86184 11.0067 1.57092 -8.9498
42 1 20.4423 7.8616 1.57158 -8.94939
164 1 6.28175 6.28107 9.43377 -8.9419
44 1 3.14428 9.43429 -0.000473619 -8.9494
350 1 20.4423 11.0068 1.57148 -8.94945
348 1 14.1541 11.0068 1.56686 -8.95136
347 1 11.007 11.0067 1.57114 -8.94549
48 1 15.7255 9.43397 -0.00180985 -8.94991
163 1 3.14135 6.28758 9.43417 -8.94916
344 1 1.57202 11.0067 1.5716 -8.94947
51 1 1.57183 1.57232 4.71684 -8.94947
52 1 3.1439 0.000699682 3.14386 -8.94937
53 1 4.71622 1.57212 4.71614 -8.95008
54 1 6.28948 0.000503727 3.14403 -8.94972
55 1 7.86204 1.57201 4.7164 -8.9497
173 1 12.5733 9.44841 9.42917 -8.90424
57 1 11.0072 1.57185 4.71635 -8.94972
172 1 9.38713 9.29008 9.44579 -8.25993
59 1 14.1522 1.57162 4.71667 -8.95031
60 1 15.7246 0.000188162 3.14434 -8.95003
61 1 17.2971 1.57223 4.71691 -8.95003
62 1 18.8695 0.000400612 3.14441 -8.9496
63 1 20.4416 1.57231 4.71705 -8.94949
64 1 22.0137 3.14448 3.14444 -8.94963
65 1 1.57136 4.71646 4.71648 -8.94973
66 1 3.1437 3.144 3.14369 -8.94885
67 1 4.71422 4.71418 4.71423 -8.94711
68 1 6.28915 3.14389 3.14377 -8.94981
69 1 7.86136 4.71458 4.7154 -8.94997
70 1 9.43439 3.14378 3.14379 -8.94934
71 1 11.0072 4.71431 4.71505 -8.94855
72 1 12.5797 3.14358 3.14379 -8.94927
73 1 14.1539 4.71293 4.71486 -8.95039
74 1 15.7252 3.14321 3.1438 -8.94963
75 1 17.2982 4.71515 4.71622 -8.95049
76 1 18.8697 3.14411 3.14433 -8.9498
77 1 20.4418 4.71657 4.7169 -8.94981
78 1 22.0142 6.28906 3.14412 -8.94981
79 1 1.57173 7.8616 4.71649 -8.95028
80 1 3.14354 6.28872 3.14346 -8.9495
81 1 4.71391 7.8598 4.71432 -8.94888
82 1 6.28748 6.28727 3.14144 -8.94978
83 1 7.85766 7.85613 4.70985 -8.9502
84 1 9.43394 6.28744 3.14242 -8.94767
85 1 11.0078 7.85682 4.70981 -8.94633
86 1 12.5802 6.28687 3.14159 -8.94865
87 1 14.1636 7.84979 4.70436 -8.93241
88 1 15.7282 6.28515 3.14053 -8.94537
89 1 17.304 7.85656 4.71179 -8.94598
90 1 18.8715 6.28764 3.14292 -8.94834
91 1 20.4435 7.86098 4.71617 -8.95042
92 1 0.000331162 9.43409 3.1439 -8.94937
93 1 3.1437 9.43389 3.14347 -8.94871
94 1 6.28863 9.43375 3.14238 -8.94998
95 1 9.43564 9.43399 3.14273 -8.95241
96 1 12.5814 9.43267 3.13621 -8.95853
97 1 15.7292 9.43153 3.13798 -8.94905
98 1 18.8716 9.43351 3.14273 -8.94897
99 1 22.0136 0.000250646 6.28949 -8.9495
100 1 1.57173 1.57226 7.8619 -8.94948
166 1 12.5773 6.29179 9.43542 -8.94418
102 1 4.71589 1.57196 7.8615 -8.94933
103 1 6.28878 0.00156348 6.28859 -8.95114
104 1 7.8617 1.57166 7.86155 -8.95134
105 1 9.43494 0.000676495 6.28894 -8.94988
106 1 11.0073 1.57191 7.8617 -8.94886
107 1 12.5796 0.000239111 6.28925 -8.94988
108 1 14.1522 1.57218 7.86191 -8.94988
109 1 15.7248 0.000805777 6.28927 -8.95031
110 1 17.2974 1.5721 7.86182 -8.94947
165 1 9.43337 6.28249 9.43631 -8.98394
112 1 20.4416 1.57225 7.86198 -8.94953
113 1 -0.000293678 3.14439 6.2894 -8.94943
114 1 1.57116 4.71629 7.86169 -8.94932
115 1 3.14353 3.14391 6.28893 -8.94921
116 1 4.71416 4.7143 7.86073 -8.94795
117 1 6.28813 3.14227 6.28812 -8.95103
118 1 7.85968 4.71043 7.86076 -8.95577
119 1 9.4348 3.14283 6.28873 -8.95025
120 1 11.0075 4.71556 7.86153 -8.94766
121 1 12.5798 3.14269 6.28898 -8.95149
122 1 14.1523 4.71525 7.86253 -8.95149
123 1 15.7249 3.14362 6.28948 -8.95047
124 1 17.2982 4.71543 7.86164 -8.94843
125 1 18.8696 3.14417 6.28942 -8.9493
126 1 20.4419 4.71643 7.86188 -8.94944
127 1 22.0136 6.28903 6.28935 -8.94988
128 1 1.57088 7.86155 7.86189 -8.95064
129 1 3.14192 6.28805 6.28826 -8.9505
130 1 4.71091 7.85913 7.86061 -8.9544
131 1 6.28144 6.28055 6.28192 -8.94064
132 1 7.8389 7.83516 7.84443 -8.90971
133 1 9.43495 6.28327 6.28728 -8.95237
134 1 11.0173 7.86178 7.84938 -8.92167
135 1 12.5832 6.28079 6.28485 -8.95519
136 1 14.1572 7.85482 7.86153 -8.96017
137 1 15.7276 6.28508 6.28792 -8.95286
138 1 17.3001 7.85975 7.86208 -8.94911
139 1 18.8706 6.28833 6.28933 -8.94978
140 1 20.4425 7.86132 7.8621 -8.94957
141 1 22.0146 9.43418 6.28927 -8.95056
142 1 3.14288 9.43428 6.28888 -8.95145
143 1 6.28255 9.42926 6.28358 -8.94572
144 1 9.42573 9.41418 6.28053 -8.9018
145 1 12.6155 9.40207 6.25301 -8.86249
146 1 15.7442 9.42121 6.27474 -8.94007
147 1 18.8746 9.43273 6.28786 -8.95302
171 1 6.28433 9.4295 9.43542 -8.96038
170 1 3.14291 9.43443 9.4345 -8.95035
169 1 22.014 9.4343 9.43465 -8.94959
151 1 9.43479 0.000936197 9.43418 -8.94927
152 1 12.5798 0.000509533 9.43419 -8.94886
168 1 18.8708 6.28808 9.43432 -8.94931
167 1 15.7279 6.28532 9.43352 -8.94429
155 1 22.0136 3.14433 9.43446 -8.94951
156 1 3.14333 3.14377 9.43435 -8.94945
157 1 6.2873 3.14162 9.43404 -8.94931
158 1 9.43452 3.14243 9.4342 -8.94977
159 1 12.5796 3.14417 9.43418 -8.94741
160 1 15.7255 3.14323 9.43405 -8.94957
161 1 18.8698 3.14406 9.43437 -8.94949
162 1 -0.000450451 6.28883 9.43445 -8.94982
177 1 4.7158 1.5718 11.0072 -8.94937
184 1 4.71369 4.71391 11.0076 -8.94824
41 1 18.8699 6.28904 -0.000617816 -8.94949
19 1 6.28939 3.14442 -0.000175175 -8.94948
25 1 15.7246 3.14421 -0.000182626 -8.94958
176 1 1.57172 1.57224 11.0071 -8.94949
199 1 3.14372 0.000483773 12.5798 -8.9493
178 1 7.86142 1.57114 11.0069 -8.95144
179 1 11.0073 1.57149 11.0067 -8.94927
180 1 14.1525 1.57175 11.0065 -8.94988
644 1 20.4419 11.0069 20.4414 -8.94953
182 1 20.4417 1.57223 11.007 -8.94953
642 1 14.1526 11.0072 20.4411 -8.95047
209 1 18.8696 0.000196237 12.5795 -8.94944
185 1 7.85838 4.70817 11.0079 -8.95499
186 1 11.0077 4.71265 11.0079 -8.94764
187 1 14.1535 4.71356 11.0057 -8.95016
641 1 11.0068 11.0071 20.4415 -8.94831
189 1 20.4419 4.7164 11.007 -8.9495
190 1 1.57046 7.86148 11.0071 -8.95098
191 1 4.70897 7.85824 11.008 -8.95381
192 1 7.83361 7.83002 11.0266 -8.89548
193 1 11.019 7.85392 11.0346 -8.96757
194 1 14.1597 7.85232 11.0038 -8.9509
195 1 17.3009 7.85939 11.0064 -8.94809
196 1 20.4426 7.86131 11.007 -8.94977
197 1 22.0136 0.000203236 12.5796 -8.94951
198 1 1.57176 1.57221 14.1522 -8.94947
343 1 18.8699 9.43451 18.8695 -8.94938
200 1 4.71591 1.57169 14.1528 -8.94983
342 1 15.7256 9.43449 18.8706 -8.94968
202 1 7.86142 1.57131 14.153 -8.95061
203 1 9.43458 0.00128434 12.5801 -8.95144
204 1 11.0072 1.5711 14.1532 -8.9501
205 1 12.5799 0.000762062 12.5798 -8.95134
206 1 14.1529 1.57086 14.1527 -8.95114
341 1 12.5797 9.43422 18.8724 -8.95339
208 1 17.2974 1.57192 14.152 -8.94972
340 1 9.4343 9.43438 18.8716 -8.95178
210 1 20.4416 1.57223 14.152 -8.94948
211 1 -0.000299453 3.14434 12.5796 -8.94946
212 1 1.57108 4.71632 14.1526 -8.94965
213 1 3.14331 3.14372 12.5799 -8.94925
214 1 4.7131 4.71336 14.1551 -8.94673
215 1 6.28743 3.14125 12.5807 -8.95052
216 1 7.85894 4.71014 14.1558 -8.95159
217 1 9.43442 3.14038 12.5804 -8.95244
218 1 11.0073 4.71011 14.1564 -8.94767
219 1 12.5803 3.14016 12.5802 -8.95382
220 1 14.1566 4.70856 14.1563 -8.95157
221 1 15.7255 3.14293 12.5792 -8.94976
222 1 17.2991 4.71488 14.1527 -8.95029
223 1 18.8698 3.14408 12.5794 -8.94931
224 1 20.442 4.71653 14.1521 -8.94971
225 1 22.0135 6.28899 12.5797 -8.94995
226 1 1.57102 7.86183 14.1525 -8.95101
227 1 3.14098 6.28772 12.5807 -8.95024
228 1 4.71052 7.85906 14.1557 -8.95169
229 1 6.27864 6.27821 12.5876 -8.93834
230 1 7.84261 7.84149 14.1739 -8.92409
231 1 9.43161 6.27223 12.5863 -8.96043
232 1 11.0076 7.84684 14.1687 -8.9437
233 1 12.5872 6.26946 12.5885 -8.96154
234 1 14.1782 7.83588 14.178 -8.901
235 1 15.7295 6.28424 12.5802 -8.95104
236 1 17.3055 7.85757 14.1565 -8.95128
237 1 18.8712 6.28834 12.5795 -8.94947
238 1 20.4434 7.86151 14.1526 -8.95126
239 1 22.0141 9.4346 12.5796 -8.95079
240 1 3.14169 9.4349 12.5797 -8.95347
241 1 6.27528 9.42925 12.5856 -8.96051
242 1 9.37841 9.37193 12.6297 -8.78805
243 1 12.6561 9.36021 12.6518 -8.72129
244 1 15.7447 9.42576 12.5883 -8.962
245 1 18.8735 9.4341 12.58 -8.95473
47 1 12.5794 9.43422 22.0123 -8.95153
247 1 1.57187 1.57223 17.2972 -8.94933
46 1 9.4344 9.43441 22.0135 -8.94981
249 1 4.71639 1.572 17.2977 -8.94952
250 1 6.28869 0.000730703 15.7256 -8.94983
251 1 7.86167 1.57194 17.2978 -8.9493
339 1 6.28888 9.43464 18.8703 -8.94952
253 1 11.007 1.57184 17.2978 -8.94942
338 1 3.14418 9.43447 18.8696 -8.94936
255 1 14.1524 1.57177 17.2977 -8.94932
256 1 15.7253 0.000298647 15.7253 -8.95008
257 1 17.2976 1.57172 17.2976 -8.94937
45 1 6.28915 9.43438 22.0134 -8.94974
259 1 20.4417 1.5722 17.297 -8.94961
260 1 22.0137 3.1444 15.7246 -8.94958
261 1 1.57172 4.71666 17.2975 -8.94964
262 1 3.14335 3.1437 15.7255 -8.94882
263 1 4.71488 4.71513 17.2994 -8.94765
264 1 6.28802 3.14249 15.7262 -8.94996
265 1 7.86093 4.71511 17.2992 -8.94886
266 1 9.434 3.14238 15.7263 -8.94904
267 1 11.0069 4.71482 17.2994 -8.94909
268 1 12.5801 3.14216 15.7263 -8.94901
269 1 14.1532 4.71467 17.2994 -8.94916
270 1 15.7264 3.14183 15.7263 -8.94966
271 1 17.2995 4.71463 17.2993 -8.94643
272 1 18.87 3.14397 15.7248 -8.94983
273 1 20.4424 4.71649 17.2974 -8.94944
274 1 22.014 6.28917 15.7249 -8.95028
275 1 1.57194 7.86203 17.2972 -8.94949
276 1 3.14225 6.28832 15.7261 -8.95001
277 1 4.71571 7.86181 17.2984 -8.95003
278 1 6.28264 6.2829 15.7323 -8.94271
279 1 7.85967 7.85976 17.3027 -8.95327
280 1 9.43262 6.28363 15.7306 -8.94609
281 1 11.0068 7.85875 17.303 -8.94932
282 1 12.5818 6.28303 15.7314 -8.94718
283 1 14.1555 7.85863 17.3043 -8.953
284 1 15.7331 6.28112 15.7329 -8.93745
285 1 17.299 7.86129 17.2989 -8.94999
286 1 18.8723 6.28775 15.7262 -8.94957
287 1 20.4422 7.86197 17.2973 -8.94958
288 1 6.69258e-05 9.43453 15.7249 -8.9495
289 1 3.1433 9.43456 15.7254 -8.94894
290 1 6.28688 9.43445 15.7277 -8.94989
291 1 9.43227 9.43003 15.7356 -8.96086
292 1 12.5845 9.42898 15.7408 -8.96523
293 1 15.7293 9.43379 15.7295 -8.94981
294 1 18.8711 9.43461 15.7254 -8.94943
295 1 22.0138 0.000140198 18.8693 -8.94922
296 1 1.57216 1.57228 20.4416 -8.94922
297 1 3.14431 0.000190072 18.8696 -8.94933
298 1 4.71698 1.57227 20.4417 -8.94955
301 1 9.43442 0.000186427 18.8698 -8.94949
300 1 7.86192 1.57222 20.4417 -8.94951
337 1 22.0139 9.43448 18.8694 -8.94951
302 1 11.007 1.57218 20.4418 -8.94953
336 1 20.4419 7.86194 20.4414 -8.94949
304 1 14.152 1.57217 20.4417 -8.9495
39 1 15.7252 6.28847 22.0131 -8.95016
306 1 17.297 1.57216 20.4417 -8.94957
307 1 18.8695 5.80157e-05 18.8695 -8.94923
308 1 20.4417 1.57226 20.4416 -8.9491
309 1 22.0139 3.14451 18.8694 -8.94941
310 1 1.5722 4.71708 20.4416 -8.94968
311 1 3.14406 3.14422 18.8699 -8.94901
312 1 4.71656 4.71666 20.442 -8.94984
313 1 6.28913 3.14413 18.87 -8.94944
314 1 7.86166 4.71647 20.4421 -8.94938
315 1 9.43429 3.14398 18.8701 -8.94938
316 1 11.0068 4.71632 20.4421 -8.9495
317 1 12.5796 3.14394 18.8701 -8.94937
318 1 14.1522 4.71632 20.4421 -8.94945
319 1 15.7249 3.14392 18.87 -8.9495
320 1 17.2976 4.71632 20.442 -8.94949
321 1 18.8699 3.14408 18.8698 -8.9487
322 1 20.4419 4.71695 20.4415 -8.94957
323 1 22.014 6.28954 18.8693 -8.94961
324 1 1.57219 7.86198 20.4415 -8.94947
325 1 3.14416 6.28944 18.8697 -8.94982
326 1 4.71669 7.86199 20.4417 -8.94967
327 1 6.28832 6.28852 18.8714 -8.95048
328 1 7.86161 7.86175 20.4425 -8.95077
329 1 9.4339 6.28816 18.8714 -8.94923
330 1 11.0067 7.86127 20.4425 -8.95037
331 1 12.5798 6.28805 18.8716 -8.94939
332 1 14.1525 7.86135 20.4424 -8.95119
333 1 15.7261 6.28793 18.8717 -8.95012
334 1 17.2976 7.86167 20.4415 -8.94965
335 1 18.8701 6.28918 18.8697 -8.94974
512 1 1.57207 11.0071 11.007 -8.94811
513 1 4.71829 11.0083 11.0056 -8.94681
514 1 7.86841 10.99 11.0191 -8.88273
515 1 11.0585 10.8033 11.3125 -7.30504
516 1 14.1611 10.9844 11.0294 -8.92083
517 1 17.2994 11.0069 11.0061 -8.95128
518 1 20.4425 11.0071 11.0069 -8.94913
540 1 1.57137 11.007 14.1527 -8.94944
541 1 4.71422 11.0072 14.1541 -8.94603
542 1 7.85981 11.0081 14.1565 -8.94704
543 1 11.0104 10.9944 14.1505 -9.01934
544 1 14.16 11.0097 14.1619 -8.94783
545 1 17.3006 11.0081 14.1539 -8.94827
546 1 20.4426 11.0072 14.1526 -8.94968
591 1 7.86125 11.0075 17.2987 -8.94929
592 1 11.0072 11.007 17.298 -8.94671
593 1 14.1539 11.0079 17.3003 -8.94992
638 1 1.57213 11.0069 20.4415 -8.94954
640 1 7.86166 11.007 20.4417 -8.94961
3 1 3.14452 0.000220195 22.0137 -8.94961
5 1 6.28951 0.000188428 22.0137 -8.94948
11 1 15.7244 0.000109356 22.0138 -8.94949
13 1 18.8693 0.00012244 22.0137 -8.94949
15 1 22.0139 3.14462 22.0137 -8.94937
17 1 3.14438 3.14443 22.0136 -8.94948
303 1 12.5796 0.000158222 18.8697 -8.94948
33 1 6.2891 6.28914 22.0135 -8.95052
27 1 18.8696 3.14428 22.0137 -8.94922
29 1 22.014 6.28946 22.0136 -8.94951
31 1 3.14442 6.28943 22.0136 -8.94968
1 1 22.0138 0.000157759 22.0137 -8.9491
21 1 9.43438 3.14428 22.0137 -8.94951
9 1 12.5795 0.00016775 22.0137 -8.94953
23 1 12.5795 3.14424 22.0137 -8.9495
43 1 22.014 9.43437 22.0135 -8.94951
49 1 18.87 9.43424 22.0131 -8.9494
687 3 10.9618 12.4682 10.1725 2.22283
345 1 4.71616 11.0064 1.57085 -8.94929
511 1 18.8701 18.8703 9.43462 -8.94953
510 1 15.7264 18.872 9.43426 -8.94855
509 1 12.58 18.8708 9.43401 -8.94766
349 1 17.2988 11.0066 1.56986 -8.94921
508 1 9.43363 18.8737 9.43382 -8.94764
351 1 22.014 12.5794 -0.00041255 -8.94953
352 1 1.57195 14.1518 1.57156 -8.94938
353 1 3.1442 12.5793 -0.0006023 -8.9495
354 1 4.71603 14.1517 1.57036 -8.94943
538 1 17.2977 20.4425 11.0071 -8.94934
356 1 7.86152 14.1522 1.56795 -8.95473
153 1 15.7251 22.0145 9.43427 -8.94972
358 1 11.0067 14.1529 1.57002 -8.94803
150 1 6.28831 22.0152 9.43425 -8.9501
360 1 14.1536 14.1536 1.56692 -8.95302
361 1 15.7256 12.5798 -0.00210414 -8.94965
362 1 17.2987 14.1528 1.56985 -8.94897
111 1 18.8695 22.0142 6.28945 -8.94946
364 1 20.4422 14.1521 1.57149 -8.9494
537 1 14.1527 20.4435 11.0067 -8.95025
366 1 1.57173 17.2971 1.57143 -8.94974
148 1 -0.000277931 22.0141 9.43453 -8.94953
368 1 4.71526 17.2986 1.56919 -8.94957
58 1 12.5797 22.0142 3.14409 -8.94947
370 1 7.86194 17.298 1.57031 -8.94947
56 1 9.43461 22.0143 3.144 -8.9495
372 1 11.0072 17.2982 1.57063 -8.94931
536 1 11.0073 20.4439 11.007 -8.94977
374 1 14.1521 17.298 1.57085 -8.94978
534 1 4.71519 20.4439 11.0075 -8.94904
376 1 17.2986 17.2987 1.56998 -8.94834
493 1 6.29102 12.592 9.43107 -9.01934
378 1 20.4421 17.2973 1.57157 -8.94949
492 1 3.14344 12.5793 9.43426 -8.94671
380 1 1.57168 20.4422 1.57154 -8.9487
491 1 22.0138 12.5792 9.43469 -8.94831
382 1 4.71673 20.4424 1.57149 -8.94983
490 1 20.4417 20.4421 7.86202 -8.9495
384 1 7.86204 20.4422 1.57167 -8.94931
385 1 9.43449 18.8699 -0.000443835 -8.9495
386 1 11.0071 20.4423 1.57169 -8.94949
387 1 12.5796 18.8699 -0.000380297 -8.94944
388 1 14.1521 20.4422 1.57185 -8.9493
489 1 18.8702 18.8704 6.28915 -8.94951
390 1 17.2971 20.4422 1.57178 -8.9498
488 1 17.2977 20.4427 7.86182 -8.94927
392 1 20.4417 20.442 1.57186 -8.94922
507 1 6.28506 18.8762 9.43417 -8.94767
506 1 3.14212 18.8715 9.43458 -8.94909
505 1 22.0133 18.87 9.43464 -8.9495
504 1 18.8717 15.7258 9.43481 -8.95
503 1 15.7317 15.7295 9.43372 -8.94633
502 1 12.5921 15.7245 9.42415 -8.92167
501 1 9.40685 15.7324 9.42249 -8.96757
400 1 0.000212265 12.5793 3.14379 -8.94947
401 1 1.57088 14.1518 4.71591 -8.94968
402 1 3.14332 12.5789 3.14304 -8.94903
403 1 4.71194 14.1525 4.71223 -8.94981
404 1 6.28756 12.5783 3.14084 -8.94827
405 1 7.85321 14.1606 4.69682 -8.962
406 1 9.4354 12.5794 3.14203 -8.95128
407 1 11.0069 14.1548 4.71405 -8.94179
408 1 12.5818 12.581 3.13533 -8.95922
409 1 14.1667 14.1651 4.69726 -8.94007
410 1 15.7295 12.5806 3.13786 -8.94733
411 1 17.3035 14.1548 4.71227 -8.94905
412 1 18.8716 12.5797 3.14268 -8.94921
413 1 20.4433 14.1524 4.71596 -8.94991
414 1 22.0139 15.7246 3.14385 -8.94965
415 1 1.56979 17.2984 4.71542 -8.95012
416 1 3.14263 15.725 3.1425 -8.94999
417 1 4.70862 17.3052 4.7084 -8.93745
418 1 6.28501 15.7288 3.13597 -8.95128
419 1 7.86126 17.3021 4.71197 -8.95104
420 1 9.43512 15.7269 3.14056 -8.94809
421 1 11.008 17.301 4.7136 -8.94429
422 1 12.5794 15.7266 3.14136 -8.94911
423 1 14.1536 17.3012 4.7139 -8.95286
424 1 15.7297 15.7298 3.13749 -8.94598
425 1 17.301 17.3012 4.71328 -8.94537
426 1 18.8715 15.7257 3.1428 -8.94938
427 1 20.4423 17.2979 4.71624 -8.95016
428 1 22.0134 18.87 3.1439 -8.94949
429 1 1.57146 20.4424 4.7166 -8.9495
430 1 3.14219 18.8717 3.14202 -8.94643
431 1 4.71522 20.4445 4.71508 -8.94966
432 1 6.28876 18.8714 3.14239 -8.95029
433 1 7.86224 20.4434 4.71598 -8.94976
434 1 9.43476 18.8711 3.14298 -8.9487
435 1 11.0074 20.4431 4.71601 -8.94957
436 1 12.5798 18.8709 3.14332 -8.94843
437 1 14.152 20.4427 4.71663 -8.95047
438 1 15.7253 18.8712 3.14324 -8.95049
439 1 17.2977 20.4431 4.71631 -8.94963
440 1 18.8703 18.8706 3.14346 -8.94852
441 1 20.4417 20.4421 4.71689 -8.94958
500 1 6.27282 15.7395 9.43384 -8.9437
499 1 3.13851 15.7276 9.43468 -8.94932
498 1 -0.000998264 15.7251 9.43477 -8.95037
497 1 18.8703 12.5796 9.43445 -8.94549
496 1 15.7199 12.578 9.42941 -8.99922
495 1 12.7963 12.5738 9.35794 -8.08919
494 1 9.12895 12.783 9.383 -7.30503
449 1 22.0142 12.5792 6.28893 -8.95047
450 1 1.56908 14.1521 7.86176 -8.95339
451 1 3.14123 12.5784 6.28754 -8.94992
452 1 4.70069 14.1573 7.85699 -8.96523
453 1 6.27961 12.5767 6.28146 -8.94783
454 1 7.78971 14.2261 7.78543 -8.72129
455 1 9.41213 12.6019 6.28038 -8.92083
456 1 11.0123 14.1379 7.86823 -8.90424
457 1 12.6249 12.6111 6.24987 -8.88589
458 1 14.1885 14.1842 7.82602 -8.86249
459 1 15.742 12.5816 6.2775 -8.95177
460 1 17.3053 14.1537 7.86003 -8.95853
461 1 18.8746 12.5795 6.28741 -8.95136
462 1 20.443 14.1521 7.86204 -8.95153
463 1 22.013 15.725 6.289 -8.95119
464 1 1.5699 17.2983 7.86169 -8.94939
465 1 3.1372 15.7277 6.28599 -8.953
466 1 4.71004 17.3033 7.85969 -8.94718
467 1 6.26343 15.7504 6.26326 -8.901
468 1 7.85294 17.3169 7.85431 -8.96154
469 1 9.43771 15.734 6.28181 -8.9509
470 1 11.0061 17.2945 7.86414 -8.94418
471 1 12.5799 15.7315 6.28428 -8.96017
472 1 14.1566 17.3055 7.85825 -8.95519
473 1 15.7371 15.7365 6.27787 -8.93241
474 1 17.2999 17.2995 7.86125 -8.94865
475 1 18.8728 15.7261 6.28816 -8.95146
476 1 20.4421 17.2977 7.86198 -8.94957
477 1 -0.000573487 18.87 6.28931 -8.94945
478 1 1.57142 20.4424 7.86191 -8.94937
479 1 3.14205 18.8717 6.28827 -8.94916
480 1 4.71518 20.4442 7.86135 -8.94901
481 1 6.28514 18.8778 6.28493 -8.95157
482 1 7.86129 20.4462 7.86115 -8.95382
483 1 9.43581 18.8728 6.28793 -8.95016
484 1 11.0073 20.4422 7.86184 -8.94741
485 1 12.579 18.8711 6.2892 -8.95149
486 1 14.1525 20.4436 7.86168 -8.95149
487 1 15.7266 18.8734 6.28761 -8.95039
530 1 14.1542 17.3031 11.0065 -8.95237
531 1 17.2991 17.2989 11.0075 -8.94767
399 1 20.4436 11.0065 4.71585 -8.94965
398 1 17.3036 11.0057 4.71194 -8.94733
394 1 4.71429 11.0053 4.71392 -8.94523
393 1 1.5715 11.0064 4.71596 -8.94933
50 1 -0.000236536 22.0142 3.1445 -8.94957
688 3 10.269 11.1181 9.47969 2.22283
101 1 3.14377 22.0145 6.28913 -8.94932
526 1 1.57005 17.2982 11.0076 -8.94923
527 1 4.71084 17.3027 11.0089 -8.94609
532 1 20.4419 17.2976 11.0074 -8.94947
383 1 6.28936 18.8698 -0.000544659 -8.94971
377 1 18.8699 15.7247 -0.00079905 -8.94939
686 1 20.4417 20.4417 20.4414 -8.94937
685 1 18.8697 18.8695 18.8694 -8.94954
684 1 17.297 20.4418 20.4417 -8.94963
683 1 15.725 18.8699 18.8701 -8.94973
682 1 14.1521 20.4419 20.4418 -8.94943
681 1 12.5798 18.87 18.8703 -8.94932
680 1 11.007 20.442 20.4418 -8.94951
519 1 1.56987 14.1519 11.0072 -8.95178
520 1 4.70593 14.1563 11.0092 -8.96086
521 1 7.81174 14.2144 11.0631 -8.78805
522 1 10.9957 14.2962 11.0543 -8.25992
523 1 14.1609 14.1721 11.0157 -8.9018
524 1 17.2988 14.1523 11.0058 -8.95241
525 1 20.4419 14.1519 11.0071 -8.94981
305 1 15.7246 22.014 18.8697 -8.94947
299 1 6.28931 22.0141 18.8697 -8.94947
528 1 7.85515 17.3141 11.0099 -8.96043
529 1 11.0052 17.3038 11.0081 -8.98394
391 1 18.8697 18.8697 22.0132 -8.94918
389 1 15.7246 18.8698 22.0135 -8.94981
258 1 18.8696 22.014 15.7246 -8.94971
533 1 1.57143 20.4423 11.0072 -8.94938
254 1 12.58 22.0144 15.7256 -8.94933
535 1 7.86104 20.4459 11.0071 -8.95244
252 1 9.43431 22.0145 15.7257 -8.94937
248 1 3.14381 22.0143 15.7251 -8.94952
207 1 15.7251 22.0143 12.5794 -8.9497
539 1 20.4417 20.442 11.0071 -8.94951
679 1 9.43435 18.8701 18.8704 -8.9494
678 1 7.86191 20.442 20.4418 -8.94946
677 1 6.28892 18.87 18.8704 -8.94965
676 1 4.71686 20.4419 20.4417 -8.94958
675 1 3.14401 18.8697 18.8698 -8.94964
674 1 1.57204 20.4418 20.4415 -8.94941
673 1 22.0138 18.8692 18.8693 -8.94968
547 1 22.0137 12.5793 12.5798 -8.94961
548 1 1.5712 14.1517 14.1526 -8.94952
549 1 3.14276 12.5789 12.5802 -8.94929
550 1 4.71376 14.1519 14.1546 -8.94989
551 1 6.28494 12.5782 12.5817 -8.94704
552 1 7.85584 14.1571 14.1662 -8.96051
553 1 9.42234 12.5963 12.5731 -8.88273
554 1 11.0061 14.1568 14.1571 -8.96038
555 1 12.5948 12.6013 12.5777 -8.86644
556 1 14.1579 14.1571 14.1589 -8.94572
557 1 15.728 12.5808 12.5791 -8.95123
558 1 17.2991 14.1526 14.1528 -8.94998
559 1 18.8706 12.5796 12.5796 -8.9498
560 1 20.442 14.1519 14.1523 -8.94974
561 1 22.0129 15.7246 12.5799 -8.95077
562 1 1.57008 17.2978 14.1532 -8.95048
563 1 3.13877 15.7266 12.5818 -8.95327
564 1 4.70922 17.3034 14.1588 -8.94271
565 1 6.26759 15.7448 12.5989 -8.92409
566 1 7.8539 17.3081 14.1628 -8.93834
567 1 9.41492 15.7563 12.6079 -8.89548
568 1 11.0077 17.3053 14.1597 -8.9419
569 1 12.597 15.7512 12.6026 -8.90971
570 1 14.1596 17.3058 14.16 -8.94064
571 1 15.7316 15.7302 12.5838 -8.9502
572 1 17.3 17.299 14.154 -8.94978
573 1 18.8707 15.7248 12.5797 -8.95161
574 1 20.4419 17.2972 14.1524 -8.95052
575 1 -0.000570772 18.8698 12.5798 -8.94938
576 1 1.5715 20.4422 14.1524 -8.94944
577 1 3.14228 18.8712 12.5805 -8.94886
578 1 4.71523 20.4438 14.1535 -8.94996
579 1 6.28566 18.8762 12.5825 -8.95159
580 1 7.86078 20.4451 14.1541 -8.95052
581 1 9.43362 18.8782 12.5831 -8.95499
582 1 11.0074 20.4447 14.1542 -8.94931
583 1 12.5807 18.8759 12.5818 -8.95577
584 1 14.1534 20.4441 14.1533 -8.95103
585 1 15.7261 18.8717 12.5801 -8.94997
586 1 17.2977 20.4424 14.1523 -8.94981
587 1 18.87 18.87 12.5798 -8.94919
588 1 20.4417 20.4419 14.1521 -8.94948
589 1 1.5719 11.0069 17.2973 -8.9495
590 1 4.7159 11.007 17.2981 -8.94902
672 1 20.4418 17.2969 20.4414 -8.94951
671 1 18.8697 15.7245 18.8693 -8.94937
670 1 17.2974 17.2973 20.4412 -8.94981
594 1 17.2984 11.0074 17.2982 -8.94903
595 1 20.4421 11.0071 17.2973 -8.9495
596 1 -5.95745e-05 12.5795 15.725 -8.94956
597 1 1.5719 14.1519 17.2973 -8.94936
598 1 3.14334 12.5794 15.7256 -8.94902
599 1 4.71609 14.1518 17.2982 -8.94894
600 1 6.28735 12.5791 15.7273 -8.94603
601 1 7.86177 14.1514 17.2998 -8.95347
602 1 9.43591 12.578 15.7232 -8.94681
603 1 11.007 14.1519 17.2986 -8.95035
604 1 12.5797 12.5791 15.7242 -8.94877
605 1 14.1526 14.152 17.2986 -8.95145
606 1 15.7276 12.581 15.7272 -8.94523
607 1 17.298 14.1524 17.2978 -8.94871
608 1 18.8706 12.5799 15.7253 -8.94929
609 1 20.442 14.152 17.2972 -8.9494
610 1 22.0137 15.7243 15.7248 -8.94967
611 1 1.57176 17.2969 17.2973 -8.94982
612 1 3.14306 15.7245 15.7258 -8.95003
613 1 4.71537 17.298 17.2992 -8.95001
614 1 6.28579 15.7273 15.731 -8.95169
615 1 7.86082 17.2986 17.3005 -8.95024
616 1 9.43352 15.7281 15.7325 -8.95381
617 1 11.0073 17.2987 17.3001 -8.94916
618 1 12.5809 15.7272 15.7306 -8.9544
619 1 14.1532 17.2983 17.2996 -8.9505
620 1 15.7272 15.7265 15.7276 -8.94888
621 1 17.298 17.2976 17.2979 -8.9495
622 1 18.8702 15.7247 15.725 -8.94975
623 1 20.4418 17.2969 17.2971 -8.94968
624 1 22.0134 18.8697 15.7249 -8.94984
625 1 1.5716 20.4421 17.2974 -8.94901
626 1 3.14213 18.8712 15.7266 -8.94765
627 1 4.71601 20.4426 17.2981 -8.94882
628 1 6.28643 18.873 15.7284 -8.94673
629 1 7.86155 20.4426 17.2982 -8.94925
630 1 9.43391 18.8724 15.7278 -8.94824
631 1 11.0071 20.4425 17.2981 -8.94945
632 1 12.5808 18.872 15.7273 -8.94795
633 1 14.1526 20.4424 17.298 -8.94921
634 1 15.7272 18.8721 15.7273 -8.94711
635 1 17.2978 20.4423 17.2978 -8.94885
636 1 18.8703 18.87 15.7252 -8.94957
637 1 20.4417 20.4419 17.2971 -8.94948
669 1 15.725 15.7247 18.8698 -8.95028
639 1 4.71653 11.0068 20.4415 -8.94956
668 1 14.1521 17.2973 20.4418 -8.94988
667 1 12.5796 15.7248 18.8706 -8.95064
666 1 11.007 17.2975 20.4419 -8.94982
643 1 17.2977 11.007 20.4413 -8.94947
665 1 9.43441 15.7248 18.871 -8.95098
645 1 22.0139 12.5794 18.8693 -8.94954
646 1 1.57213 14.1518 20.4414 -8.94951
647 1 3.14415 12.5794 18.8696 -8.9495
648 1 4.71657 14.1518 20.4414 -8.9495
649 1 6.28876 12.5793 18.8701 -8.94944
650 1 7.86187 14.1517 20.4413 -8.95079
651 1 9.43451 12.5792 18.8694 -8.94811
652 1 11.0068 14.152 20.4413 -8.94959
653 1 12.5795 12.5794 18.8693 -8.94885
654 1 14.1522 14.1521 20.4408 -8.95056
655 1 15.7255 12.5799 18.87 -8.94933
656 1 17.2976 14.1522 20.4411 -8.94937
657 1 18.8699 12.5796 18.8695 -8.94947
658 1 20.4419 14.152 20.4414 -8.94951
659 1 22.0139 15.7243 18.8693 -8.94947
660 1 1.57214 17.2968 20.4414 -8.94961
661 1 3.14424 15.7243 18.8695 -8.94949
662 1 4.71655 17.2972 20.4413 -8.95028
663 1 6.28898 15.7245 18.8705 -8.95101
664 1 7.86179 17.2973 20.4419 -8.94995
381 1 3.14405 18.8698 22.013 -8.94944
201 1 6.28852 22.015 12.5801 -8.95061
355 1 6.28893 12.5791 22.0128 -8.94968
357 1 9.43458 12.5792 22.0129 -8.94913
359 1 12.5794 12.5796 22.0116 -8.95097
365 1 22.0139 15.7244 22.0135 -8.94949
367 1 3.14421 15.7244 22.0132 -8.94958
369 1 6.2889 15.7248 22.012 -8.95126
371 1 9.43445 15.725 22.0128 -8.94977
373 1 12.5794 15.725 22.0128 -8.94957
375 1 15.7253 15.7253 22.0119 -8.95042
246 1 -0.000231645 22.014 15.7245 -8.94955
379 1 22.0138 18.8694 22.0135 -8.94957
363 1 18.87 12.5795 22.0131 -8.94945
