ITEM: TIMESTEP
8
ITEM: NUMBER OF ATOMS
688
ITEM: BOX BOUNDS pp pp pp
0.0000000000000000e+00 2.2013900999999997e+01
0.0000000000000000e+00 2.2013900999999997e+01
0.0000000000000000e+00 2.2013900999999997e+01
ITEM: ATOMS id type x y z c_pot
1 1 2.20931e-17 5.1388e-17 7.84781e-18 -8.94963
2 1 1.57242 1.57242 1.57242 -8.94963
3 1 3.14484 4.26686e-16 -7.51449e-16 -8.94963
4 1 4.71726 1.57242 1.57242 -8.94963
5 1 6.28969 9.52533e-15 -1.84896e-14 -8.94963
6 1 7.86211 1.57242 1.57242 -8.94963
7 1 9.43453 -7.03042e-14 1.84513e-13 -8.94963
8 1 11.007 1.57242 1.57242 -8.94963
9 1 12.5794 -7.43729e-14 7.49732e-14 -8.94963
10 1 14.1518 1.57242 1.57242 -8.94963
11 1 15.7242 9.55168e-15 -8.99422e-15 -8.94963
12 1 17.2966 1.57242 1.57242 -8.94963
13 1 18.8691 4.18184e-16 -3.57462e-16 -8.94963
14 1 20.4415 1.57242 1.57242 -8.94963
15 1 -3.06796e-16 3.14484 -3.65653e-16 -8.94963
16 1 1.57242 4.71726 1.57242 -8.94963
17 1 3.14484 3.14484 -1.92924e-14 -8.94963
18 1 4.71726 4.71726 1.57242 -8.94963
19 1 6.28969 3.14484 -7.56733e-14 -8.94963
20 1 7.86211 4.71726 1.57242 -8.94963
21 1 9.43453 3.14484 1.10214e-12 -8.94963
22 1 11.007 4.71726 1.57242 -8.94963
23 1 12.5794 3.14484 6.0112e-13 -8.94963
24 1 14.1518 4.71726 1.57242 -8.94963
25 1 15.7242 3.14484 -9.86292e-14 -8.94963
26 1 17.2966 4.71726 1.57242 -8.94963
27 1 18.8691 3.14484 -4.51577e-15 -8.94963
28 1 20.4415 4.71726 1.57242 -8.94963
29 1 -7.67577e-15 6.28969 -9.92973e-15 -8.94963
30 1 1.57242 7.86211 1.57242 -8.94963
31 1 3.14484 6.28969 -2.10338e-13 -8.94963
32 1 4.71726 7.86211 1.57242 -8.94963
33 1 6.28969 6.28969 -2.56035e-12 -8.94963
34 1 7.86211 7.86211 1.57242 -8.94963
35 1 9.43453 6.28969 1.28497e-11 -8.94963
36 1 11.007 7.86211 1.57242 -8.94963
37 1 12.5794 6.28969 7.76299e-12 -8.94963
38 1 14.1518 7.86211 1.57242 -8.94963
39 1 15.7242 6.28969 -2.88254e-12 -8.94963
40 1 17.2966 7.86211 1.57242 -8.94963
41 1 18.8691 6.28969 -1.15424e-13 -8.94963
42 1 20.4415 7.86211 1.57242 -8.94963
43 1 8.4755e-14 9.43453 6.27793e-14 -8.94963
44 1 3.14484 9.43453 1.41598e-12 -8.94963
45 1 6.28969 9.43453 -2.27994e-11 -8.94963
46 1 9.43453 9.43453 -5.56317e-10 -8.94963
47 1 12.5794 9.43453 -7.57446e-10 -8.94963
48 1 15.7242 9.43453 8.03932e-12 -8.94963
49 1 18.8691 9.43453 7.20174e-13 -8.94963
50 1 -4.03878e-16 4.77092e-16 3.14484 -8.94963
51 1 1.57242 1.57242 4.71726 -8.94963
52 1 3.14484 1.89431e-14 3.14484 -8.94963
53 1 4.71726 1.57242 4.71726 -8.94963
54 1 6.28969 2.0178e-13 3.14484 -8.94963
55 1 7.86211 1.57242 4.71726 -8.94963
56 1 9.43453 -1.41853e-12 3.14484 -8.94963
57 1 11.007 1.57242 4.71726 -8.94963
58 1 12.5794 -1.44621e-12 3.14484 -8.94963
59 1 14.1518 1.57242 4.71726 -8.94963
60 1 15.7242 1.9264e-13 3.14484 -8.94963
61 1 17.2966 1.57242 4.71726 -8.94963
62 1 18.8691 1.90232e-14 3.14484 -8.94963
63 1 20.4415 1.57242 4.71726 -8.94963
64 1 -1.8474e-14 3.14484 3.14484 -8.94963
65 1 1.57242 4.71726 4.71726 -8.94963
66 1 3.14484 3.14484 3.14484 -8.94963
67 1 4.71726 4.71726 4.71726 -8.94963
68 1 6.28969 3.14484 3.14484 -8.94963
69 1 7.86211 4.71726 4.71726 -8.94963
70 1 9.43453 3.14484 3.14484 -8.94963
71 1 11.007 4.71726 4.71726 -8.94963
72 1 12.5794 3.14484 3.14484 -8.94963
73 1 14.1518 4.71726 4.71726 -8.94963
74 1 15.7242 3.14484 3.14484 -8.94963
75 1 17.2966 4.71726 4.71726 -8.94963
76 1 18.8691 3.14484 3.14484 -8.94963
77 1 20.4415 4.71726 4.71726 -8.94963
78 1 -1.56831e-13 6.28969 3.14484 -8.94963
79 1 1.57242 7.86211 4.71726 -8.94963
80 1 3.14484 6.28969 3.14484 -8.94963
81 1 4.71726 7.86211 4.71726 -8.94963
82 1 6.28969 6.28969 3.14484 -8.94963
83 1 7.86211 7.86211 4.71726 -8.94964
84 1 9.43453 6.28969 3.14484 -8.94963
85 1 11.007 7.86211 4.71727 -8.94984
86 1 12.5794 6.28969 3.14484 -8.94963
87 1 14.1518 7.86211 4.71726 -8.94962
88 1 15.7242 6.28969 3.14484 -8.94963
89 1 17.2966 7.86211 4.71726 -8.94963
90 1 18.8691 6.28969 3.14484 -8.94963
91 1 20.4415 7.86211 4.71726 -8.94963
92 1 1.49071e-12 9.43453 3.14484 -8.94963
93 1 3.14484 9.43453 3.14484 -8.94963
94 1 6.28969 9.43453 3.14484 -8.94963
95 1 9.43453 9.43453 3.14484 -8.94963
96 1 12.5794 9.43453 3.14484 -8.94963
97 1 15.7242 9.43453 3.14484 -8.94963
98 1 18.8691 9.43453 3.14484 -8.94963
99 1 -1.19638e-14 1.08834e-14 6.28969 -8.94963
100 1 1.57242 1.57242 7.86211 -8.94963
101 1 3.14484 7.95373e-14 6.28969 -8.94963
102 1 4.71726 1.57242 7.86211 -8.94963
103 1 6.28969 2.40717e-12 6.28969 -8.94963
104 1 7.86211 1.57242 7.86211 -8.94963
105 1 9.43453 2.18005e-11 6.28969 -8.94963
106 1 11.007 1.57242 7.86211 -8.94963
107 1 12.5794 2.10472e-11 6.28969 -8.94963
108 1 14.1518 1.57242 7.86211 -8.94963
109 1 15.7242 2.40332e-12 6.28969 -8.94963
110 1 17.2966 1.57242 7.86211 -8.94963
111 1 18.8691 6.91331e-14 6.28969 -8.94963
112 1 20.4415 1.57242 7.86211 -8.94963
113 1 -3.17068e-14 3.14484 6.28969 -8.94963
114 1 1.57242 4.71726 7.86211 -8.94963
115 1 3.14484 3.14484 6.28969 -8.94963
116 1 4.71726 4.71726 7.86211 -8.94963
117 1 6.28969 3.14484 6.28969 -8.94963
118 1 7.86211 4.71726 7.86211 -8.94963
119 1 9.43453 3.14484 6.28969 -8.94963
120 1 11.007 4.71726 7.86211 -8.94963
121 1 12.5794 3.14484 6.28969 -8.94963
122 1 14.1518 4.71726 7.86211 -8.94963
123 1 15.7242 3.14484 6.28969 -8.94963
124 1 17.2966 4.71726 7.86211 -8.94963
125 1 18.8691 3.14484 6.28969 -8.94963
126 1 20.4415 4.71726 7.86211 -8.94963
127 1 -1.54148e-12 6.28969 6.28969 -8.94963
128 1 1.57242 7.86211 7.86211 -8.94963
129 1 3.14484 6.28969 6.28969 -8.94963
130 1 4.71726 7.86211 7.86211 -8.94965
131 1 6.28969 6.28969 6.28969 -8.94962
132 1 7.86208 7.86208 7.86208 -8.94622
133 1 9.43453 6.28969 6.28969 -8.94983
134 1 11.007 7.8621 7.8621 -8.9486
135 1 12.5794 6.28969 6.28969 -8.94964
136 1 14.1518 7.86211 7.86211 -8.94957
137 1 15.7242 6.28969 6.28969 -8.94963
138 1 17.2966 7.86211 7.86211 -8.94963
139 1 18.8691 6.28969 6.28969 -8.94963
140 1 20.4415 7.86211 7.86211 -8.94963
141 1 -3.53564e-11 9.43453 6.28969 -8.94963
142 1 3.14484 9.43453 6.28969 -8.94963
143 1 6.28969 9.43453 6.28969 -8.94955
144 1 9.43452 9.43452 6.28968 -8.94833
145 1 12.5794 9.4345 6.28966 -8.94613
146 1 15.7242 9.43453 6.28969 -8.94963
147 1 18.8691 9.43453 6.28969 -8.94963
148 1 1.46079e-13 -9.93925e-14 9.43453 -8.94963
149 1 3.14484 -9.75242e-13 9.43453 -8.94963
150 1 6.28969 -1.05929e-11 9.43453 -8.94963
151 1 9.43453 5.17161e-10 9.43453 -8.94963
152 1 12.5794 5.20456e-10 9.43453 -8.94963
153 1 15.7242 -1.14951e-11 9.43453 -8.94963
154 1 18.8691 -1.01439e-12 9.43453 -8.94963
155 1 8.74092e-13 3.14484 9.43453 -8.94963
156 1 3.14484 3.14484 9.43453 -8.94963
157 1 6.28969 3.14484 9.43453 -8.94963
158 1 9.43453 3.14484 9.43453 -8.94964
159 1 12.5794 3.14484 9.43453 -8.94963
160 1 15.7242 3.14484 9.43453 -8.94963
161 1 18.8691 3.14484 9.43453 -8.94963
162 1 -4.17526e-13 6.28969 9.43453 -8.94963
163 1 3.14484 6.28969 9.43453 -8.94963
164 1 6.28969 6.28969 9.43453 -8.94992
165 1 9.43453 6.28966 9.43453 -8.95293
166 1 12.5794 6.28969 9.43453 -8.94983
167 1 15.7242 6.28969 9.43453 -8.94965
168 1 18.8691 6.28969 9.43453 -8.94963
169 1 -2.00376e-10 9.43453 9.43453 -8.94963
170 1 3.14484 9.43453 9.43453 -8.94964
171 1 6.28967 9.43453 9.43453 -8.95135
172 1 9.42791 9.4213 9.43452 -7.70671
173 1 12.58 9.4341 9.43452 -8.91286
174 1 15.7242 9.43453 9.43453 -8.94999
175 1 18.8691 9.43453 9.43453 -8.94963
176 1 1.57242 1.57242 11.007 -8.94963
177 1 4.71726 1.57242 11.007 -8.94963
178 1 7.86211 1.57242 11.007 -8.94963
179 1 11.007 1.57242 11.007 -8.94963
180 1 14.1518 1.57242 11.007 -8.94963
181 1 17.2966 1.57242 11.007 -8.94963
182 1 20.4415 1.57242 11.007 -8.94963
183 1 1.57242 4.71726 11.007 -8.94963
184 1 4.71726 4.71726 11.007 -8.94963
185 1 7.86211 4.71726 11.007 -8.94963
186 1 11.007 4.71726 11.007 -8.94964
187 1 14.1518 4.71726 11.007 -8.94963
188 1 17.2966 4.71726 11.007 -8.94963
189 1 20.4415 4.71726 11.007 -8.94963
190 1 1.57242 7.86211 11.007 -8.94963
191 1 4.71726 7.86211 11.007 -8.94964
192 1 7.86208 7.86208 11.007 -8.9464
193 1 11.007 7.86207 11.007 -8.95168
194 1 14.1518 7.86211 11.007 -8.94976
195 1 17.2966 7.86211 11.007 -8.94963
196 1 20.4415 7.86211 11.007 -8.94963
197 1 -1.20113e-14 9.46578e-15 12.5794 -8.94963
198 1 1.57242 1.57242 14.1518 -8.94963
199 1 3.14484 -5.11448e-13 12.5794 -8.94963
200 1 4.71726 1.57242 14.1518 -8.94963
201 1 6.28969 -6.57587e-12 12.5794 -8.94963
202 1 7.86211 1.57242 14.1518 -8.94963
203 1 9.43453 7.21153e-10 12.5794 -8.94963
204 1 11.007 1.57242 14.1518 -8.94963
205 1 12.5794 7.21732e-10 12.5794 -8.94963
206 1 14.1518 1.57242 14.1518 -8.94963
207 1 15.7242 -6.54685e-12 12.5794 -8.94963
208 1 17.2966 1.57242 14.1518 -8.94963
209 1 18.8691 -5.19703e-13 12.5794 -8.94963
210 1 20.4415 1.57242 14.1518 -8.94963
211 1 -3.17876e-14 3.14484 12.5794 -8.94963
212 1 1.57242 4.71726 14.1518 -8.94963
213 1 3.14484 3.14484 12.5794 -8.94963
214 1 4.71726 4.71726 14.1518 -8.94963
215 1 6.28969 3.14484 12.5794 -8.94963
216 1 7.86211 4.71726 14.1518 -8.94963
217 1 9.43453 3.14484 12.5794 -8.94963
218 1 11.007 4.71726 14.1518 -8.94963
219 1 12.5794 3.14484 12.5794 -8.94963
220 1 14.1518 4.71726 14.1518 -8.94963
221 1 15.7242 3.14484 12.5794 -8.94963
222 1 17.2966 4.71726 14.1518 -8.94963
223 1 18.8691 3.14484 12.5794 -8.94963
224 1 20.4415 4.71726 14.1518 -8.94963
225 1 -1.53629e-12 6.28969 12.5794 -8.94963
226 1 1.57242 7.86211 14.1518 -8.94963
227 1 3.14484 6.28969 12.5794 -8.94963
228 1 4.71726 7.86211 14.1518 -8.94963
229 1 6.28969 6.28969 12.5794 -8.94962
230 1 7.86211 7.86211 14.1518 -8.94963
231 1 9.43453 6.28969 12.5794 -8.94983
232 1 11.007 7.86211 14.1518 -8.95013
233 1 12.5794 6.28969 12.5794 -8.94964
234 1 14.1518 7.86211 14.1518 -8.94961
235 1 15.7242 6.28969 12.5794 -8.94963
236 1 17.2966 7.86211 14.1518 -8.94963
237 1 18.8691 6.28969 12.5794 -8.94963
238 1 20.4415 7.86211 14.1518 -8.94963
239 1 -3.53833e-11 9.43453 12.5794 -8.94963
240 1 3.14484 9.43453 12.5794 -8.94963
241 1 6.28969 9.43453 12.5794 -8.94957
242 1 9.43449 9.43449 12.5794 -8.94492
243 1 12.5794 9.43448 12.5794 -8.94246
244 1 15.7242 9.43453 12.5794 -8.94965
245 1 18.8691 9.43453 12.5794 -8.94963
246 1 -4.04666e-16 1.34443e-15 15.7242 -8.94963
247 1 1.57242 1.57242 17.2966 -8.94963
248 1 3.14484 9.05828e-14 15.7242 -8.94963
249 1 4.71726 1.57242 17.2966 -8.94963
250 1 6.28969 2.71208e-12 15.7242 -8.94963
251 1 7.86211 1.57242 17.2966 -8.94963
252 1 9.43453 -9.99251e-12 15.7242 -8.94963
253 1 11.007 1.57242 17.2966 -8.94963
254 1 12.5794 -9.97135e-12 15.7242 -8.94963
255 1 14.1518 1.57242 17.2966 -8.94963
256 1 15.7242 2.71616e-12 15.7242 -8.94963
257 1 17.2966 1.57242 17.2966 -8.94963
258 1 18.8691 9.06723e-14 15.7242 -8.94963
259 1 20.4415 1.57242 17.2966 -8.94963
260 1 -1.84337e-14 3.14484 15.7242 -8.94963
261 1 1.57242 4.71726 17.2966 -8.94963
262 1 3.14484 3.14484 15.7242 -8.94963
263 1 4.71726 4.71726 17.2966 -8.94963
264 1 6.28969 3.14484 15.7242 -8.94963
265 1 7.86211 4.71726 17.2966 -8.94963
266 1 9.43453 3.14484 15.7242 -8.94963
267 1 11.007 4.71726 17.2966 -8.94963
268 1 12.5794 3.14484 15.7242 -8.94963
269 1 14.1518 4.71726 17.2966 -8.94963
270 1 15.7242 3.14484 15.7242 -8.94963
271 1 17.2966 4.71726 17.2966 -8.94963
272 1 18.8691 3.14484 15.7242 -8.94963
273 1 20.4415 4.71726 17.2966 -8.94963
274 1 -1.56797e-13 6.28969 15.7242 -8.94963
275 1 1.57242 7.86211 17.2966 -8.94963
276 1 3.14484 6.28969 15.7242 -8.94963
277 1 4.71726 7.86211 17.2966 -8.94963
278 1 6.28969 6.28969 15.7242 -8.94963
279 1 7.86211 7.86211 17.2966 -8.94963
280 1 9.43453 6.28969 15.7242 -8.94963
281 1 11.007 7.86211 17.2966 -8.94963
282 1 12.5794 6.28969 15.7242 -8.94963
283 1 14.1518 7.86211 17.2966 -8.94963
284 1 15.7242 6.28969 15.7242 -8.94963
285 1 17.2966 7.86211 17.2966 -8.94963
286 1 18.8691 6.28969 15.7242 -8.94963
287 1 20.4415 7.86211 17.2966 -8.94963
288 1 1.48666e-12 9.43453 15.7242 -8.94963
289 1 3.14484 9.43453 15.7242 -8.94963
290 1 6.28969 9.43453 15.7242 -8.94963
291 1 9.43453 9.43453 15.7242 -8.94964
292 1 12.5794 9.43453 15.7242 -8.94965
293 1 15.7242 9.43453 15.7242 -8.94963
294 1 18.8691 9.43453 15.7242 -8.94963
295 1 1.97695e-17 7.50762e-17 18.8691 -8.94963
296 1 1.57242 1.57242 20.4415 -8.94963
297 1 3.14484 4.23364e-15 18.8691 -8.94963
298 1 4.71726 1.57242 20.4415 -8.94963
299 1 6.28969 9.66153e-14 18.8691 -8.94963
300 1 7.86211 1.57242 20.4415 -8.94963
301 1 9.43453 -7.64382e-13 18.8691 -8.94963
302 1 11.007 1.57242 20.4415 -8.94963
303 1 12.5794 -7.62941e-13 18.8691 -8.94963
304 1 14.1518 1.57242 20.4415 -8.94963
305 1 15.7242 9.66755e-14 18.8691 -8.94963
306 1 17.2966 1.57242 20.4415 -8.94963
307 1 18.8691 4.25429e-15 18.8691 -8.94963
308 1 20.4415 1.57242 20.4415 -8.94963
309 1 -3.03009e-16 3.14484 18.8691 -8.94963
310 1 1.57242 4.71726 20.4415 -8.94963
311 1 3.14484 3.14484 18.8691 -8.94963
312 1 4.71726 4.71726 20.4415 -8.94963
313 1 6.28969 3.14484 18.8691 -8.94963
314 1 7.86211 4.71726 20.4415 -8.94963
315 1 9.43453 3.14484 18.8691 -8.94963
316 1 11.007 4.71726 20.4415 -8.94963
317 1 12.5794 3.14484 18.8691 -8.94963
318 1 14.1518 4.71726 20.4415 -8.94963
319 1 15.7242 3.14484 18.8691 -8.94963
320 1 17.2966 4.71726 20.4415 -8.94963
321 1 18.8691 3.14484 18.8691 -8.94963
322 1 20.4415 4.71726 20.4415 -8.94963
323 1 -7.68579e-15 6.28969 18.8691 -8.94963
324 1 1.57242 7.86211 20.4415 -8.94963
325 1 3.14484 6.28969 18.8691 -8.94963
326 1 4.71726 7.86211 20.4415 -8.94963
327 1 6.28969 6.28969 18.8691 -8.94963
328 1 7.86211 7.86211 20.4415 -8.94963
329 1 9.43453 6.28969 18.8691 -8.94963
330 1 11.007 7.86211 20.4415 -8.94963
331 1 12.5794 6.28969 18.8691 -8.94963
332 1 14.1518 7.86211 20.4415 -8.94963
333 1 15.7242 6.28969 18.8691 -8.94963
334 1 17.2966 7.86211 20.4415 -8.94963
335 1 18.8691 6.28969 18.8691 -8.94963
336 1 20.4415 7.86211 20.4415 -8.94963
337 1 8.47804e-14 9.43453 18.8691 -8.94963
338 1 3.14484 9.43453 18.8691 -8.94963
339 1 6.28969 9.43453 18.8691 -8.94963
340 1 9.43453 9.43453 18.8691 -8.94963
341 1 12.5794 9.43453 18.8691 -8.94963
342 1 15.7242 9.43453 18.8691 -8.94963
343 1 18.8691 9.43453 18.8691 -8.94963
344 1 1.57242 11.007 1.57242 -8.94963
345 1 4.71726 11.007 1.57242 -8.94963
346 1 7.86211 11.007 1.57242 -8.94963
347 1 11.007 11.007 1.57242 -8.94964
348 1 14.1518 11.007 1.57242 -8.94963
349 1 17.2966 11.007 1.57242 -8.94963
350 1 20.4415 11.007 1.57242 -8.94963
351 1 8.30434e-14 12.5794 2.21471e-13 -8.94963
352 1 1.57242 14.1518 1.57242 -8.94963
353 1 3.14484 12.5794 2.29429e-12 -8.94963
354 1 4.71726 14.1518 1.57242 -8.94963
355 1 6.28969 12.5794 -2.22494e-11 -8.94963
356 1 7.86211 14.1518 1.57242 -8.94963
357 1 9.43453 12.5794 -7.19379e-10 -8.94963
358 1 11.007 14.1518 1.57242 -8.94963
359 1 12.5794 12.5794 -9.22242e-10 -8.94963
360 1 14.1518 14.1518 1.57242 -8.94963
361 1 15.7242 12.5794 8.97495e-12 -8.94963
362 1 17.2966 14.1518 1.57242 -8.94963
363 1 18.8691 12.5794 1.61586e-12 -8.94963
364 1 20.4415 14.1518 1.57242 -8.94963
365 1 -7.6425e-15 15.7242 -2.14689e-14 -8.94963
366 1 1.57242 17.2966 1.57242 -8.94963
367 1 3.14484 15.7242 -2.30144e-13 -8.94963
368 1 4.71726 17.2966 1.57242 -8.94963
369 1 6.28969 15.7242 -3.95717e-12 -8.94963
370 1 7.86211 17.2966 1.57242 -8.94963
371 1 9.43453 15.7242 -2.46886e-11 -8.94963
372 1 11.007 17.2966 1.57242 -8.94963
373 1 12.5794 15.7242 -2.90121e-11 -8.94963
374 1 14.1518 17.2966 1.57242 -8.94963
375 1 15.7242 15.7242 -4.27732e-12 -8.94963
376 1 17.2966 17.2966 1.57242 -8.94963
377 1 18.8691 15.7242 -1.3024e-13 -8.94963
378 1 20.4415 17.2966 1.57242 -8.94963
379 1 -3.08106e-16 18.8691 -7.99332e-16 -8.94963
380 1 1.57242 20.4415 1.57242 -8.94963
381 1 3.14484 18.8691 -3.73716e-14 -8.94963
382 1 4.71726 20.4415 1.57242 -8.94963
383 1 6.28969 18.8691 -2.34185e-13 -8.94963
384 1 7.86211 20.4415 1.57242 -8.94963
385 1 9.43453 18.8691 2.47315e-12 -8.94963
386 1 11.007 20.4415 1.57242 -8.94963
387 1 12.5794 18.8691 1.99755e-12 -8.94963
388 1 14.1518 20.4415 1.57242 -8.94963
389 1 15.7242 18.8691 -2.48518e-13 -8.94963
390 1 17.2966 20.4415 1.57242 -8.94963
391 1 18.8691 18.8691 -2.2671e-14 -8.94963
392 1 20.4415 20.4415 1.57242 -8.94963
393 1 1.57242 11.007 4.71726 -8.94963
394 1 4.71726 11.007 4.71726 -8.94965
395 1 7.86211 11.007 4.71726 -8.94985
396 1 11.007 11.007 4.71723 -8.95308
397 1 14.1518 11.007 4.71727 -8.94994
398 1 17.2966 11.007 4.71726 -8.94963
399 1 20.4415 11.007 4.71726 -8.94963
400 1 1.46731e-12 12.5794 3.14484 -8.94963
401 1 1.57242 14.1518 4.71726 -8.94963
402 1 3.14484 12.5794 3.14484 -8.94963
403 1 4.71726 14.1518 4.71726 -8.94963
404 1 6.28969 12.5794 3.14484 -8.94963
405 1 7.86211 14.1518 4.71726 -8.94965
406 1 9.43453 12.5794 3.14484 -8.94963
407 1 11.007 14.1518 4.71726 -8.94999
408 1 12.5794 12.5794 3.14484 -8.94964
409 1 14.1518 14.1518 4.71726 -8.94963
410 1 15.7242 12.5794 3.14484 -8.94963
411 1 17.2966 14.1518 4.71726 -8.94963
412 1 18.8691 12.5794 3.14484 -8.94963
413 1 20.4415 14.1518 4.71726 -8.94963
414 1 -1.61163e-13 15.7242 3.14484 -8.94963
415 1 1.57242 17.2966 4.71726 -8.94963
416 1 3.14484 15.7242 3.14484 -8.94963
417 1 4.71726 17.2966 4.71726 -8.94963
418 1 6.28969 15.7242 3.14484 -8.94963
419 1 7.86211 17.2966 4.71726 -8.94963
420 1 9.43453 15.7242 3.14484 -8.94963
421 1 11.007 17.2966 4.71726 -8.94965
422 1 12.5794 15.7242 3.14484 -8.94963
423 1 14.1518 17.2966 4.71726 -8.94963
424 1 15.7242 15.7242 3.14484 -8.94963
425 1 17.2966 17.2966 4.71726 -8.94963
426 1 18.8691 15.7242 3.14484 -8.94963
427 1 20.4415 17.2966 4.71726 -8.94963
428 1 -1.84223e-14 18.8691 3.14484 -8.94963
429 1 1.57242 20.4415 4.71726 -8.94963
430 1 3.14484 18.8691 3.14484 -8.94963
431 1 4.71726 20.4415 4.71726 -8.94963
432 1 6.28969 18.8691 3.14484 -8.94963
433 1 7.86211 20.4415 4.71726 -8.94963
434 1 9.43453 18.8691 3.14484 -8.94963
435 1 11.007 20.4415 4.71726 -8.94963
436 1 12.5794 18.8691 3.14484 -8.94963
437 1 14.1518 20.4415 4.71726 -8.94963
438 1 15.7242 18.8691 3.14484 -8.94963
439 1 17.2966 20.4415 4.71726 -8.94963
440 1 18.8691 18.8691 3.14484 -8.94963
441 1 20.4415 20.4415 4.71726 -8.94963
442 1 1.57242 11.007 7.86211 -8.94963
443 1 4.71726 11.007 7.86211 -8.94979
444 1 7.86146 11.0069 7.86166 -8.91075
445 1 11.0135 11.0065 7.84829 -7.67771
446 1 14.1518 11.0069 7.86208 -8.94775
447 1 17.2966 11.007 7.86211 -8.94964
448 1 20.4415 11.007 7.86211 -8.94963
449 1 -3.59002e-11 12.5794 6.28969 -8.94963
450 1 1.57242 14.1518 7.86211 -8.94963
451 1 3.14484 12.5794 6.28969 -8.94963
452 1 4.71726 14.1518 7.86211 -8.94965
453 1 6.28969 12.5794 6.28969 -8.94986
454 1 7.86206 14.1518 7.86206 -8.94246
455 1 9.43452 12.5794 6.28966 -8.94992
456 1 11.007 14.1522 7.86147 -8.91286
457 1 12.5794 12.5794 6.28965 -8.94775
458 1 14.1518 14.1518 7.86208 -8.94613
459 1 15.7242 12.5794 6.28969 -8.94994
460 1 17.2966 14.1518 7.86211 -8.94963
461 1 18.8691 12.5794 6.28969 -8.94963
462 1 20.4415 14.1518 7.86211 -8.94963
463 1 -1.55533e-12 15.7242 6.28969 -8.94963
464 1 1.57242 17.2966 7.86211 -8.94963
465 1 3.14484 15.7242 6.28969 -8.94963
466 1 4.71726 17.2966 7.86211 -8.94963
467 1 6.28969 15.7242 6.28969 -8.94961
468 1 7.86211 17.2966 7.86211 -8.94964
469 1 9.43453 15.7242 6.28969 -8.94976
470 1 11.007 17.2966 7.86211 -8.94983
471 1 12.5794 15.7242 6.28969 -8.94957
472 1 14.1518 17.2966 7.86211 -8.94964
473 1 15.7242 15.7242 6.28969 -8.94962
474 1 17.2966 17.2966 7.86211 -8.94963
475 1 18.8691 15.7242 6.28969 -8.94963
476 1 20.4415 17.2966 7.86211 -8.94963
477 1 -4.08819e-14 18.8691 6.28969 -8.94963
478 1 1.57242 20.4415 7.86211 -8.94963
479 1 3.14484 18.8691 6.28969 -8.94963
480 1 4.71726 20.4415 7.86211 -8.94963
481 1 6.28969 18.8691 6.28969 -8.94963
482 1 7.86211 20.4415 7.86211 -8.94963
483 1 9.43453 18.8691 6.28969 -8.94963
484 1 11.007 20.4415 7.86211 -8.94963
485 1 12.5794 18.8691 6.28969 -8.94963
486 1 14.1518 20.4415 7.86211 -8.94963
487 1 15.7242 18.8691 6.28969 -8.94963
488 1 17.2966 20.4415 7.86211 -8.94963
489 1 18.8691 18.8691 6.28969 -8.94963
490 1 20.4415 20.4415 7.86211 -8.94963
491 1 -2.00177e-10 12.5794 9.43453 -8.94963
492 1 3.14484 12.5794 9.43453 -8.94964
493 1 6.28964 12.5794 9.43453 -8.95426
494 1 9.41487 12.5925 9.42798 -6.52109
495 1 12.5932 12.5798 9.42793 -7.67771
496 1 15.7242 12.5794 9.43453 -8.95308
497 1 18.8691 12.5794 9.43453 -8.94964
498 1 -1.53193e-12 15.7242 9.43453 -8.94963
499 1 3.14484 15.7242 9.43453 -8.94963
500 1 6.28969 15.7242 9.43453 -8.95013
501 1 9.43452 15.7243 9.43452 -8.95168
502 1 12.5794 15.7242 9.43452 -8.9486
503 1 15.7242 15.7242 9.43453 -8.94984
504 1 18.8691 15.7242 9.43453 -8.94963
505 1 8.24494e-13 18.8691 9.43453 -8.94963
506 1 3.14484 18.8691 9.43453 -8.94963
507 1 6.28969 18.8691 9.43453 -8.94963
508 1 9.43453 18.8691 9.43453 -8.94964
509 1 12.5794 18.8691 9.43453 -8.94963
510 1 15.7242 18.8691 9.43453 -8.94963
511 1 18.8691 18.8691 9.43453 -8.94963
687 3 11.007 12.5795 10.2209 5.0771
688 3 10.2206 11.0068 9.43449 5.0771
512 1 1.57242 11.007 11.007 -8.94963
513 1 4.71726 11.007 11.007 -8.94979
514 1 7.86148 11.0069 11.0074 -8.91282
515 1 11.0135 10.9938 11.0266 -6.52109
516 1 14.1518 11.0069 11.007 -8.94992
517 1 17.2966 11.007 11.007 -8.94963
518 1 20.4415 11.007 11.007 -8.94963
519 1 1.57242 14.1518 11.007 -8.94963
520 1 4.71726 14.1518 11.007 -8.94964
521 1 7.86208 14.1518 11.007 -8.94492
522 1 11.007 14.165 11.0136 -7.70671
523 1 14.1518 14.1518 11.007 -8.94833
524 1 17.2966 14.1518 11.007 -8.94963
525 1 20.4415 14.1518 11.007 -8.94963
526 1 1.57242 17.2966 11.007 -8.94963
527 1 4.71726 17.2966 11.007 -8.94963
528 1 7.86211 17.2966 11.007 -8.94983
529 1 11.007 17.2967 11.007 -8.95293
530 1 14.1518 17.2966 11.007 -8.94983
531 1 17.2966 17.2966 11.007 -8.94963
532 1 20.4415 17.2966 11.007 -8.94963
533 1 1.57242 20.4415 11.007 -8.94963
534 1 4.71726 20.4415 11.007 -8.94963
535 1 7.86211 20.4415 11.007 -8.94963
536 1 11.007 20.4415 11.007 -8.94964
537 1 14.1518 20.4415 11.007 -8.94963
538 1 17.2966 20.4415 11.007 -8.94963
539 1 20.4415 20.4415 11.007 -8.94963
540 1 1.57242 11.007 14.1518 -8.94963
541 1 4.71726 11.007 14.1518 -8.94965
542 1 7.86211 11.0069 14.1518 -8.94977
543 1 11.007 11.0069 14.1518 -8.95426
544 1 14.1518 11.0069 14.1518 -8.94986
545 1 17.2966 11.007 14.1518 -8.94963
546 1 20.4415 11.007 14.1518 -8.94963
547 1 -3.62438e-11 12.5794 12.5794 -8.94963
548 1 1.57242 14.1518 14.1518 -8.94963
549 1 3.14484 12.5794 12.5794 -8.94963
550 1 4.71726 14.1518 14.1518 -8.94963
551 1 6.28969 12.5794 12.5794 -8.94977
552 1 7.86211 14.1518 14.1518 -8.94957
553 1 9.4341 12.5794 12.58 -8.91282
554 1 11.007 14.1518 14.1518 -8.95135
555 1 12.5798 12.5794 12.58 -8.91075
556 1 14.1518 14.1518 14.1518 -8.94955
557 1 15.7242 12.5794 12.5794 -8.94985
558 1 17.2966 14.1518 14.1518 -8.94963
559 1 18.8691 12.5794 12.5794 -8.94963
560 1 20.4415 14.1518 14.1518 -8.94963
561 1 -1.57235e-12 15.7242 12.5794 -8.94963
562 1 1.57242 17.2966 14.1518 -8.94963
563 1 3.14484 15.7242 12.5794 -8.94963
564 1 4.71726 17.2966 14.1518 -8.94963
565 1 6.28969 15.7242 12.5794 -8.94963
566 1 7.86211 17.2966 14.1518 -8.94962
567 1 9.4345 15.7242 12.5794 -8.9464
568 1 11.007 17.2966 14.1518 -8.94992
569 1 12.5794 15.7242 12.5794 -8.94622
570 1 14.1518 17.2966 14.1518 -8.94962
571 1 15.7242 15.7242 12.5794 -8.94964
572 1 17.2966 17.2966 14.1518 -8.94963
573 1 18.8691 15.7242 12.5794 -8.94963
574 1 20.4415 17.2966 14.1518 -8.94963
575 1 -4.23069e-14 18.8691 12.5794 -8.94963
576 1 1.57242 20.4415 14.1518 -8.94963
577 1 3.14484 18.8691 12.5794 -8.94963
578 1 4.71726 20.4415 14.1518 -8.94963
579 1 6.28969 18.8691 12.5794 -8.94963
580 1 7.86211 20.4415 14.1518 -8.94963
581 1 9.43453 18.8691 12.5794 -8.94963
582 1 11.007 20.4415 14.1518 -8.94963
583 1 12.5794 18.8691 12.5794 -8.94963
584 1 14.1518 20.4415 14.1518 -8.94963
585 1 15.7242 18.8691 12.5794 -8.94963
586 1 17.2966 20.4415 14.1518 -8.94963
587 1 18.8691 18.8691 12.5794 -8.94963
588 1 20.4415 20.4415 14.1518 -8.94963
589 1 1.57242 11.007 17.2966 -8.94963
590 1 4.71726 11.007 17.2966 -8.94963
591 1 7.86211 11.007 17.2966 -8.94963
592 1 11.007 11.007 17.2966 -8.94964
593 1 14.1518 11.007 17.2966 -8.94963
594 1 17.2966 11.007 17.2966 -8.94963
595 1 20.4415 11.007 17.2966 -8.94963
596 1 1.44206e-12 12.5794 15.7242 -8.94963
597 1 1.57242 14.1518 17.2966 -8.94963
598 1 3.14484 12.5794 15.7242 -8.94963
599 1 4.71726 14.1518 17.2966 -8.94963
600 1 6.28969 12.5794 15.7242 -8.94965
601 1 7.86211 14.1518 17.2966 -8.94963
602 1 9.43453 12.5794 15.7242 -8.94979
603 1 11.007 14.1518 17.2966 -8.94964
604 1 12.5794 12.5794 15.7242 -8.94979
605 1 14.1518 14.1518 17.2966 -8.94963
606 1 15.7242 12.5794 15.7242 -8.94965
607 1 17.2966 14.1518 17.2966 -8.94963
608 1 18.8691 12.5794 15.7242 -8.94963
609 1 20.4415 14.1518 17.2966 -8.94963
610 1 -1.64477e-13 15.7242 15.7242 -8.94963
611 1 1.57242 17.2966 17.2966 -8.94963
612 1 3.14484 15.7242 15.7242 -8.94963
613 1 4.71726 17.2966 17.2966 -8.94963
614 1 6.28969 15.7242 15.7242 -8.94963
615 1 7.86211 17.2966 17.2966 -8.94963
616 1 9.43453 15.7242 15.7242 -8.94964
617 1 11.007 17.2966 17.2966 -8.94963
618 1 12.5794 15.7242 15.7242 -8.94965
619 1 14.1518 17.2966 17.2966 -8.94963
620 1 15.7242 15.7242 15.7242 -8.94963
621 1 17.2966 17.2966 17.2966 -8.94963
622 1 18.8691 15.7242 15.7242 -8.94963
623 1 20.4415 17.2966 17.2966 -8.94963
624 1 -1.84258e-14 18.8691 15.7242 -8.94963
625 1 1.57242 20.4415 17.2966 -8.94963
626 1 3.14484 18.8691 15.7242 -8.94963
627 1 4.71726 20.4415 17.2966 -8.94963
628 1 6.28969 18.8691 15.7242 -8.94963
629 1 7.86211 20.4415 17.2966 -8.94963
630 1 9.43453 18.8691 15.7242 -8.94963
631 1 11.007 20.4415 17.2966 -8.94963
632 1 12.5794 18.8691 15.7242 -8.94963
633 1 14.1518 20.4415 17.2966 -8.94963
634 1 15.7242 18.8691 15.7242 -8.94963
635 1 17.2966 20.4415 17.2966 -8.94963
636 1 18.8691 18.8691 15.7242 -8.94963
637 1 20.4415 20.4415 17.2966 -8.94963
638 1 1.57242 11.007 20.4415 -8.94963
639 1 4.71726 11.007 20.4415 -8.94963
640 1 7.86211 11.007 20.4415 -8.94963
641 1 11.007 11.007 20.4415 -8.94963
642 1 14.1518 11.007 20.4415 -8.94963
643 1 17.2966 11.007 20.4415 -8.94963
644 1 20.4415 11.007 20.4415 -8.94963
645 1 8.12717e-14 12.5794 18.8691 -8.94963
646 1 1.57242 14.1518 20.4415 -8.94963
647 1 3.14484 12.5794 18.8691 -8.94963
648 1 4.71726 14.1518 20.4415 -8.94963
649 1 6.28969 12.5794 18.8691 -8.94963
650 1 7.86211 14.1518 20.4415 -8.94963
651 1 9.43453 12.5794 18.8691 -8.94963
652 1 11.007 14.1518 20.4415 -8.94963
653 1 12.5794 12.5794 18.8691 -8.94963
654 1 14.1518 14.1518 20.4415 -8.94963
655 1 15.7242 12.5794 18.8691 -8.94963
656 1 17.2966 14.1518 20.4415 -8.94963
657 1 18.8691 12.5794 18.8691 -8.94963
658 1 20.4415 14.1518 20.4415 -8.94963
659 1 -7.65379e-15 15.7242 18.8691 -8.94963
660 1 1.57242 17.2966 20.4415 -8.94963
661 1 3.14484 15.7242 18.8691 -8.94963
662 1 4.71726 17.2966 20.4415 -8.94963
663 1 6.28969 15.7242 18.8691 -8.94963
664 1 7.86211 17.2966 20.4415 -8.94963
665 1 9.43453 15.7242 18.8691 -8.94963
666 1 11.007 17.2966 20.4415 -8.94963
667 1 12.5794 15.7242 18.8691 -8.94963
668 1 14.1518 17.2966 20.4415 -8.94963
669 1 15.7242 15.7242 18.8691 -8.94963
670 1 17.2966 17.2966 20.4415 -8.94963
671 1 18.8691 15.7242 18.8691 -8.94963
672 1 20.4415 17.2966 20.4415 -8.94963
673 1 -3.16569e-16 18.8691 18.8691 -8.94963
674 1 1.57242 20.4415 20.4415 -8.94963
675 1 3.14484 18.8691 18.8691 -8.94963
676 1 4.71726 20.4415 20.4415 -8.94963
677 1 6.28969 18.8691 18.8691 -8.94963
678 1 7.86211 20.4415 20.4415 -8.94963
679 1 9.43453 18.8691 18.8691 -8.94963
680 1 11.007 20.4415 20.4415 -8.94963
681 1 12.5794 18.8691 18.8691 -8.94963
682 1 14.1518 20.4415 20.4415 -8.94963
683 1 15.7242 18.8691 18.8691 -8.94963
684 1 17.2966 20.4415 20.4415 -8.94963
685 1 18.8691 18.8691 18.8691 -8.94963
686 1 20.4415 20.4415 20.4415 -8.94963
