ITEM: TIMESTEP
65
ITEM: NUMBER OF ATOMS
688
ITEM: BOX BOUNDS pp pp pp
0.0000000000000000e+00 2.2013900999999997e+01
0.0000000000000000e+00 2.2013900999999997e+01
0.0000000000000000e+00 2.2013900999999997e+01
ITEM: ATOMS id type x y z c_pot
7 1 9.43451 0.000113774 -0.000120165 -8.94959
2 1 1.57212 1.57236 1.57213 -8.9493
448 1 20.4435 11.0068 7.86216 -8.95101
4 1 4.7171 1.57229 1.57211 -8.94972
447 1 17.3058 11.0055 7.8602 -8.95915
6 1 7.86203 1.57226 1.57207 -8.9495
175 1 18.8713 9.43358 9.43488 -8.94809
8 1 11.007 1.57223 1.57205 -8.94956
174 1 15.7273 9.43196 9.43487 -8.94166
10 1 14.1519 1.57221 1.57211 -8.9495
446 1 14.1912 10.9756 7.81812 -8.8867
12 1 17.2969 1.57215 1.57215 -8.94959
445 1 11.0842 11.0127 7.64719 -8.08978
14 1 20.4416 1.57235 1.57228 -8.94955
444 1 7.86268 10.9834 7.84598 -8.86434
16 1 1.57218 4.717 1.57203 -8.94955
443 1 4.7168 11.007 7.86182 -8.94895
18 1 4.71654 4.71651 1.5714 -8.94957
442 1 1.57194 11.0069 7.86199 -8.94896
20 1 7.86184 4.71654 1.57161 -8.94922
149 1 3.1441 0.000347981 9.43452 -8.94948
22 1 11.0069 4.71637 1.57156 -8.94954
154 1 18.8694 0.000187401 9.43451 -8.94956
24 1 14.1521 4.7163 1.57155 -8.94959
188 1 17.2981 4.7157 11.0067 -8.94878
26 1 17.2976 4.71615 1.5715 -8.94858
183 1 1.57139 4.71651 11.0071 -8.94941
28 1 20.4419 4.71684 1.572 -8.94926
397 1 14.1627 11.0049 4.70075 -8.95175
30 1 1.57218 7.86194 1.57201 -8.94943
396 1 11.0116 11.0079 4.72058 -8.99857
32 1 4.71662 7.86182 1.57142 -8.94973
395 1 7.86244 11.0054 4.71345 -8.95167
34 1 7.86176 7.86163 1.57072 -8.95151
35 1 9.4342 6.28895 -0.000474247 -8.94947
36 1 11.0066 7.86078 1.56998 -8.94992
37 1 12.5794 6.28891 -0.000555418 -8.94954
38 1 14.153 7.86052 1.56914 -8.95131
181 1 17.2972 1.57214 11.0069 -8.94953
40 1 17.2981 7.86105 1.57062 -8.94944
346 1 7.86179 11.0068 1.57091 -8.94978
42 1 20.442 7.86184 1.57191 -8.94947
164 1 6.28192 6.28145 9.43373 -8.94199
44 1 3.14444 9.43439 -0.000353559 -8.94945
350 1 20.442 11.0069 1.57184 -8.94951
348 1 14.1536 11.0068 1.56758 -8.95119
347 1 11.0069 11.0067 1.57089 -8.94583
48 1 15.7251 9.43412 -0.00140338 -8.94985
163 1 3.14169 6.28792 9.43427 -8.94919
344 1 1.57208 11.0068 1.57187 -8.94953
51 1 1.57207 1.57231 4.71706 -8.94955
52 1 3.14423 0.000430177 3.14422 -8.94941
53 1 4.7165 1.57204 4.71646 -8.95002
54 1 6.28961 0.000278776 3.14435 -8.9497
55 1 7.86209 1.572 4.71663 -8.94963
173 1 12.5725 9.44794 9.42972 -8.90359
57 1 11.0072 1.5719 4.71655 -8.94969
172 1 9.38412 9.28326 9.44428 -8.25453
59 1 14.1521 1.57175 4.71681 -8.95023
60 1 15.7244 0.000114798 3.1445 -8.94995
61 1 17.297 1.57231 4.71705 -8.94995
62 1 18.8693 0.000266915 3.14459 -8.94959
63 1 20.4415 1.57235 4.71717 -8.94955
64 1 22.0137 3.14461 3.14462 -8.94964
65 1 1.57154 4.71666 4.7167 -8.94972
66 1 3.14397 3.14413 3.14397 -8.94879
67 1 4.71448 4.7144 4.71448 -8.94682
68 1 6.28935 3.14408 3.14405 -8.94978
69 1 7.86153 4.71491 4.71559 -8.94984
70 1 9.43444 3.14398 3.14402 -8.94938
71 1 11.0072 4.71462 4.71533 -8.9485
72 1 12.5796 3.14386 3.14404 -8.94928
73 1 14.1536 4.71343 4.71521 -8.95029
74 1 15.7249 3.14359 3.14405 -8.94958
75 1 17.2978 4.71567 4.71654 -8.9504
76 1 18.8695 3.14438 3.14453 -8.94977
77 1 20.4417 4.71684 4.71707 -8.94981
78 1 22.0141 6.28929 3.14437 -8.94976
79 1 1.57174 7.86177 4.71667 -8.95017
80 1 3.14379 6.28897 3.14376 -8.94943
81 1 4.71411 7.86014 4.71453 -8.94866
82 1 6.28776 6.28763 3.14169 -8.94988
83 1 7.85781 7.85666 4.70987 -8.95095
84 1 9.43399 6.28775 3.14259 -8.94781
85 1 11.0074 7.85722 4.71011 -8.94682
86 1 12.58 6.28735 3.14207 -8.9488
87 1 14.1627 7.85054 4.70536 -8.93255
88 1 15.7275 6.28588 3.14121 -8.94545
89 1 17.303 7.85732 4.71262 -8.94604
90 1 18.8709 6.28817 3.14339 -8.94842
91 1 20.443 7.86128 4.71646 -8.95034
92 1 0.000146812 9.43427 3.14421 -8.94941
93 1 3.14384 9.43411 3.14376 -8.94881
94 1 6.28863 9.43396 3.14246 -8.95006
95 1 9.43534 9.43401 3.14251 -8.952
96 1 12.581 9.43277 3.13662 -8.95821
97 1 15.7283 9.43202 3.13905 -8.94915
98 1 18.8709 9.43386 3.14334 -8.94906
99 1 22.0138 0.000121707 6.28961 -8.94957
100 1 1.57201 1.57228 7.86202 -8.94955
166 1 12.5774 6.29132 9.43493 -8.94404
102 1 4.71628 1.57193 7.86171 -8.94933
103 1 6.28902 0.00114183 6.28889 -8.95105
104 1 7.8618 1.57155 7.86167 -8.95133
105 1 9.43488 0.000504442 6.28908 -8.94985
106 1 11.0072 1.57189 7.86177 -8.94902
107 1 12.5795 0.000221549 6.28932 -8.94988
108 1 14.1522 1.5722 7.86195 -8.94988
109 1 15.7247 0.000670535 6.28937 -8.95023
110 1 17.2972 1.57219 7.86192 -8.94948
165 1 9.43283 6.28354 9.43554 -8.98504
112 1 20.4416 1.57231 7.86205 -8.94958
113 1 -0.000199042 3.14455 6.28954 -8.94949
114 1 1.57143 4.71653 7.86183 -8.94936
115 1 3.14388 3.14408 6.28919 -8.94927
116 1 4.71458 4.71464 7.86095 -8.94794
117 1 6.28836 3.14236 6.28832 -8.95101
118 1 7.85983 4.71046 7.8607 -8.9561
119 1 9.43481 3.14291 6.28883 -8.95016
120 1 11.0073 4.71543 7.86155 -8.94808
121 1 12.5797 3.14283 6.28911 -8.9515
122 1 14.1522 4.71535 7.86252 -8.95127
123 1 15.7247 3.14387 6.28958 -8.95034
124 1 17.2979 4.7158 7.86178 -8.94851
125 1 18.8694 3.14439 6.28954 -8.94935
126 1 20.4417 4.7167 7.86197 -8.94949
127 1 22.0136 6.28923 6.28946 -8.94988
128 1 1.57083 7.86168 7.86193 -8.95069
129 1 3.14211 6.28828 6.28843 -8.95052
130 1 4.71064 7.85935 7.86055 -8.9547
131 1 6.28128 6.28055 6.28166 -8.93976
132 1 7.83722 7.83425 7.84263 -8.90672
133 1 9.43491 6.28345 6.28716 -8.95219
134 1 11.0175 7.86109 7.84877 -8.92028
135 1 12.583 6.281 6.28509 -8.95501
136 1 14.1567 7.85523 7.86195 -8.96041
137 1 15.727 6.28568 6.28837 -8.9528
138 1 17.2996 7.86013 7.86237 -8.94914
139 1 18.8702 6.2887 6.28954 -8.94979
140 1 20.4423 7.8615 7.86216 -8.9496
141 1 22.0143 9.43429 6.28936 -8.95052
142 1 3.14276 9.43443 6.28894 -8.95137
143 1 6.2822 9.42949 6.28337 -8.94476
144 1 9.42601 9.41454 6.28089 -8.90317
145 1 12.6145 9.40258 6.25395 -8.86265
146 1 15.743 9.42189 6.27593 -8.94009
147 1 18.8738 9.43302 6.28827 -8.9529
171 1 6.28337 9.4293 9.43513 -8.9612
170 1 3.14258 9.4345 9.43455 -8.9505
169 1 22.0139 9.43436 9.43466 -8.9497
151 1 9.43479 0.000832822 9.43425 -8.94941
152 1 12.5797 0.000531151 9.43424 -8.94902
168 1 18.8705 6.2884 9.43439 -8.94934
167 1 15.7275 6.28577 9.4336 -8.94448
155 1 22.0137 3.14451 9.4345 -8.94956
156 1 3.14377 3.14401 9.43444 -8.9495
157 1 6.28773 3.14188 9.43415 -8.9493
158 1 9.43452 3.14252 9.43416 -8.94942
159 1 12.5797 3.14409 9.43416 -8.94761
160 1 15.7252 3.14349 9.43415 -8.94957
161 1 18.8696 3.1443 9.43444 -8.94954
162 1 -0.000424405 6.28906 9.43449 -8.94981
177 1 4.71624 1.57186 11.0071 -8.94937
184 1 4.71432 4.71444 11.0075 -8.94824
41 1 18.8696 6.28932 -0.000420115 -8.94955
19 1 6.28955 3.14457 -0.000160774 -8.94952
25 1 15.7244 3.14449 -0.00014695 -8.94964
176 1 1.57201 1.57228 11.007 -8.94956
199 1 3.14415 0.000288563 12.5796 -8.94937
178 1 7.86159 1.57121 11.0069 -8.95136
179 1 11.0072 1.57159 11.0067 -8.94941
180 1 14.1524 1.57192 11.0066 -8.94985
644 1 20.4417 11.0069 20.4415 -8.94959
182 1 20.4416 1.57231 11.007 -8.94959
642 1 14.1524 11.0071 20.4413 -8.95038
209 1 18.8694 0.000158414 12.5794 -8.9495
185 1 7.85884 4.70875 11.0076 -8.95533
186 1 11.0075 4.71277 11.0073 -8.94839
187 1 14.1532 4.71403 11.0055 -8.95001
641 1 11.0068 11.0071 20.4415 -8.94852
189 1 20.4418 4.71667 11.007 -8.94953
190 1 1.57055 7.86162 11.0071 -8.95097
191 1 4.7091 7.85869 11.008 -8.95408
192 1 7.83265 7.83001 11.027 -8.8927
193 1 11.0189 7.85291 11.033 -8.96518
194 1 14.1591 7.85315 11.0032 -8.95071
195 1 17.3004 7.85981 11.0063 -8.94814
196 1 20.4424 7.86146 11.007 -8.94977
197 1 22.0138 0.000115906 12.5795 -8.94957
198 1 1.57205 1.57227 14.152 -8.94954
343 1 18.8696 9.43453 18.8694 -8.94944
200 1 4.71635 1.57181 14.1525 -8.94982
342 1 15.7252 9.43456 18.8703 -8.94961
202 1 7.86164 1.57159 14.1526 -8.95048
203 1 9.43458 0.00121103 12.5799 -8.95136
204 1 11.0071 1.57145 14.1528 -8.95002
205 1 12.5798 0.000873323 12.5797 -8.95133
206 1 14.1526 1.57128 14.1525 -8.95105
341 1 12.5796 9.43441 18.872 -8.9532
208 1 17.2971 1.57214 14.1519 -8.9497
340 1 9.43435 9.43454 18.8712 -8.9516
210 1 20.4416 1.57232 14.1519 -8.94954
211 1 -0.000195209 3.14452 12.5795 -8.94951
212 1 1.5714 4.71658 14.1523 -8.94964
213 1 3.14378 3.144 12.5798 -8.94932
214 1 4.71382 4.71397 14.1546 -8.9466
215 1 6.28794 3.14175 12.5805 -8.95056
216 1 7.85961 4.71132 14.1551 -8.95137
217 1 9.43452 3.14094 12.5802 -8.95225
218 1 11.0072 4.71127 14.1555 -8.94763
219 1 12.5801 3.14078 12.5799 -8.95373
220 1 14.1558 4.70977 14.1555 -8.95151
221 1 15.7251 3.14343 12.5792 -8.94971
222 1 17.2984 4.71558 14.1523 -8.95027
223 1 18.8695 3.14435 12.5794 -8.94938
224 1 20.4418 4.7168 14.152 -8.94969
225 1 22.0135 6.28918 12.5796 -8.94991
226 1 1.5713 7.86195 14.1523 -8.9508
227 1 3.1415 6.28809 12.5805 -8.95025
228 1 4.71146 7.85978 14.1551 -8.95149
229 1 6.27923 6.27899 12.5874 -8.93776
230 1 7.84405 7.84349 14.1723 -8.92557
231 1 9.43194 6.2735 12.5853 -8.95991
232 1 11.0074 7.84859 14.1669 -8.9439
233 1 12.5866 6.27064 12.5874 -8.96129
234 1 14.1766 7.83761 14.1763 -8.90167
235 1 15.7286 6.28523 12.5797 -8.95101
236 1 17.3043 7.85835 14.1557 -8.95131
237 1 18.8707 6.28869 12.5794 -8.94944
238 1 20.443 7.86165 14.1524 -8.95105
239 1 22.014 9.43458 12.5796 -8.95069
240 1 3.14193 9.43502 12.5797 -8.95322
241 1 6.27596 9.43014 12.5851 -8.95974
242 1 9.38019 9.37398 12.627 -8.78993
243 1 12.6548 9.36181 12.6497 -8.72179
244 1 15.7435 9.42684 12.5873 -8.96208
245 1 18.8731 9.43422 12.5798 -8.95444
47 1 12.5794 9.43427 22.0124 -8.95144
247 1 1.57211 1.5723 17.2969 -8.9494
46 1 9.43437 9.43441 22.0134 -8.9498
249 1 4.71675 1.57216 17.2973 -8.94957
250 1 6.28901 0.000610321 15.7251 -8.94982
251 1 7.86187 1.57213 17.2973 -8.94937
339 1 6.28909 9.43469 18.87 -8.9495
253 1 11.007 1.57207 17.2974 -8.94948
338 1 3.1444 9.43449 18.8694 -8.94941
255 1 14.1521 1.57206 17.2973 -8.94938
256 1 15.725 0.00038239 15.725 -8.95002
257 1 17.2973 1.57199 17.2972 -8.94941
45 1 6.28925 9.43442 22.0133 -8.94974
259 1 20.4416 1.57231 17.2968 -8.94966
260 1 22.0137 3.14458 15.7244 -8.9496
261 1 1.57197 4.7169 17.2971 -8.94965
262 1 3.1438 3.14399 15.7251 -8.94883
263 1 4.71552 4.71567 17.2987 -8.94786
264 1 6.28856 3.1431 15.7257 -8.94993
265 1 7.86138 4.71576 17.2985 -8.94897
266 1 9.43418 3.14303 15.7257 -8.94909
267 1 11.0069 4.71553 17.2986 -8.94916
268 1 12.5798 3.14287 15.7257 -8.94904
269 1 14.1527 4.71546 17.2986 -8.94929
270 1 15.7258 3.14255 15.7257 -8.94966
271 1 17.2987 4.71529 17.2986 -8.94668
272 1 18.8696 3.14432 15.7245 -8.94984
273 1 20.4421 4.71678 17.2971 -8.94947
274 1 22.014 6.28935 15.7247 -8.95014
275 1 1.57211 7.86209 17.297 -8.94951
276 1 3.1429 6.28873 15.7256 -8.94996
277 1 4.7162 7.86205 17.2979 -8.95002
278 1 6.28373 6.28403 15.7312 -8.94326
279 1 7.86017 7.86038 17.3018 -8.95324
280 1 9.43301 6.28487 15.7294 -8.94629
281 1 11.0067 7.85953 17.3019 -8.9493
282 1 12.5811 6.28433 15.7301 -8.94737
283 1 14.1547 7.85937 17.3032 -8.95297
284 1 15.7318 6.28233 15.7317 -8.93787
285 1 17.2983 7.86163 17.2982 -8.94998
286 1 18.8715 6.28825 15.7257 -8.94957
287 1 20.4419 7.86205 17.297 -8.94959
288 1 3.31303e-05 9.43453 15.7247 -8.9495
289 1 3.14367 9.43465 15.7251 -8.949
290 1 6.28747 9.43489 15.7271 -8.94999
291 1 9.43261 9.43109 15.7344 -8.96052
292 1 12.5838 9.43 15.7396 -8.96514
293 1 15.7283 9.43425 15.7286 -8.94983
294 1 18.8706 9.43467 15.7251 -8.94943
295 1 22.0138 8.56273e-05 18.8692 -8.94936
296 1 1.57229 1.57234 20.4415 -8.94936
297 1 3.14456 0.000123621 18.8694 -8.9494
298 1 4.71715 1.57234 20.4416 -8.94961
301 1 9.43447 0.000146161 18.8695 -8.94956
300 1 7.86203 1.57231 20.4416 -8.94957
337 1 22.0139 9.4345 18.8692 -8.94956
302 1 11.007 1.57229 20.4416 -8.94959
336 1 20.4417 7.86204 20.4415 -8.94956
304 1 14.1519 1.5723 20.4416 -8.94957
39 1 15.7249 6.28884 22.0132 -8.95008
306 1 17.2968 1.5723 20.4416 -8.94965
307 1 18.8693 6.48313e-05 18.8694 -8.9493
308 1 20.4416 1.57234 20.4416 -8.94928
309 1 22.0139 3.14467 18.8693 -8.9495
310 1 1.5723 4.71719 20.4415 -8.94969
311 1 3.14436 3.14444 18.8696 -8.94913
312 1 4.71683 4.71687 20.4418 -8.94981
313 1 6.2894 3.14441 18.8696 -8.94952
314 1 7.86185 4.71674 20.4418 -8.94942
315 1 9.4344 3.1443 18.8697 -8.94946
316 1 11.0069 4.71665 20.4418 -8.94953
317 1 12.5795 3.14429 18.8697 -8.94946
318 1 14.152 4.71669 20.4418 -8.94949
319 1 15.7246 3.14431 18.8696 -8.94961
320 1 17.2972 4.71668 20.4418 -8.94952
321 1 18.8696 3.14438 18.8695 -8.94886
322 1 20.4417 4.71713 20.4415 -8.94963
323 1 22.0139 6.28964 18.8692 -8.94963
324 1 1.57227 7.86205 20.4415 -8.94952
325 1 3.14445 6.28958 18.8694 -8.94981
326 1 4.71689 7.86205 20.4416 -8.94966
327 1 6.28873 6.28886 18.8708 -8.95044
328 1 7.86175 7.86185 20.4421 -8.95068
329 1 9.43409 6.28859 18.8708 -8.94925
330 1 11.0067 7.86148 20.4422 -8.95028
331 1 12.5796 6.28855 18.8709 -8.94939
332 1 14.1523 7.86157 20.4421 -8.95106
333 1 15.7255 6.28843 18.8711 -8.95011
334 1 17.2972 7.86187 20.4415 -8.94963
335 1 18.8696 6.28942 18.8695 -8.94977
512 1 1.57197 11.0071 11.007 -8.94822
513 1 4.71802 11.0081 11.0056 -8.9468
514 1 7.86846 10.9894 11.0184 -8.88127
515 1 11.0604 10.8081 11.3127 -7.3015
516 1 14.1611 10.986 11.0282 -8.92245
517 1 17.2996 11.0071 11.0062 -8.95122
518 1 20.4425 11.0071 11.007 -8.94926
540 1 1.57153 11.007 14.1526 -8.94941
541 1 4.71464 11.0074 14.1538 -8.94614
542 1 7.86048 11.0085 14.1558 -8.9477
543 1 11.0105 10.9958 14.1502 -9.0194
544 1 14.1593 11.0101 14.161 -8.94802
545 1 17.3001 11.0081 14.1536 -8.94835
546 1 20.4424 11.0071 14.1524 -8.94965
591 1 7.86136 11.0075 17.2985 -8.94923
592 1 11.0071 11.0073 17.298 -8.94669
593 1 14.1536 11.0079 17.2999 -8.94975
638 1 1.57223 11.0069 20.4415 -8.94959
640 1 7.86172 11.007 20.4416 -8.94962
3 1 3.1447 0.000110005 22.0138 -8.94966
5 1 6.28961 9.72589e-05 22.0138 -8.94954
11 1 15.7243 7.22881e-05 22.0138 -8.94955
13 1 18.8692 7.0948e-05 22.0138 -8.94955
15 1 22.0139 3.14473 22.0138 -8.94947
17 1 3.14457 3.14457 22.0137 -8.94952
303 1 12.5795 0.000138968 18.8695 -8.94955
33 1 6.28928 6.28929 22.0135 -8.95041
27 1 18.8694 3.14452 22.0138 -8.94931
29 1 22.0139 6.28959 22.0137 -8.94957
31 1 3.14456 6.28955 22.0136 -8.94966
1 1 22.0138 7.6675e-05 22.0138 -8.94928
21 1 9.43446 3.14448 22.0137 -8.94956
9 1 12.5794 0.000106825 22.0138 -8.94958
23 1 12.5794 3.14447 22.0137 -8.94955
43 1 22.0139 9.43446 22.0137 -8.94958
49 1 18.8696 9.43437 22.0134 -8.94947
687 3 10.9612 12.4751 10.1757 2.21794
345 1 4.71633 11.0066 1.5711 -8.94931
511 1 18.8699 18.8699 9.4346 -8.94954
510 1 15.7262 18.8717 9.43432 -8.9485
509 1 12.5799 18.8709 9.43414 -8.94808
349 1 17.2982 11.0067 1.57056 -8.94926
508 1 9.4342 18.8736 9.43402 -8.94839
351 1 22.0139 12.5794 -0.000225507 -8.94959
352 1 1.57208 14.1518 1.57189 -8.94944
353 1 3.14439 12.5793 -0.000420104 -8.94953
354 1 4.71635 14.1517 1.57088 -8.94943
538 1 17.2975 20.4423 11.007 -8.94938
356 1 7.86163 14.1521 1.56843 -8.95444
153 1 15.7249 22.0144 9.43433 -8.94969
358 1 11.0066 14.1527 1.57022 -8.94809
150 1 6.28865 22.0149 9.43434 -8.95002
360 1 14.1532 14.1533 1.56764 -8.9529
361 1 15.7252 12.5796 -0.00157141 -8.94961
362 1 17.2981 14.1525 1.57056 -8.94906
111 1 18.8694 22.0141 6.28956 -8.9495
364 1 20.442 14.1519 1.57186 -8.94947
537 1 14.1526 20.4434 11.0067 -8.95016
366 1 1.572 17.2969 1.57185 -8.94977
148 1 -0.000136778 22.014 9.43453 -8.94959
368 1 4.71578 17.2981 1.56995 -8.94957
58 1 12.5796 22.0141 3.14431 -8.94948
370 1 7.86206 17.2976 1.57082 -8.94944
56 1 9.43457 22.0142 3.14426 -8.94953
372 1 11.0071 17.2979 1.57097 -8.94934
536 1 11.0073 20.4438 11.007 -8.94942
374 1 14.1519 17.2976 1.57128 -8.94979
534 1 4.71578 20.4433 11.0073 -8.94909
376 1 17.2981 17.2982 1.57057 -8.94842
493 1 6.2913 12.5905 9.43102 -9.0194
378 1 20.4419 17.297 1.57192 -8.94955
492 1 3.14347 12.5791 9.43439 -8.94669
380 1 1.57196 20.4419 1.57188 -8.94886
491 1 22.0139 12.5792 9.43472 -8.94852
382 1 4.71699 20.442 1.57188 -8.94984
490 1 20.4416 20.4419 7.86207 -8.94955
384 1 7.86208 20.442 1.57193 -8.94938
385 1 9.4345 18.8697 -0.000311567 -8.94953
386 1 11.007 20.442 1.5719 -8.94954
387 1 12.5795 18.8696 -0.00026351 -8.94949
388 1 14.1519 20.4419 1.57203 -8.94935
489 1 18.8699 18.87 6.28936 -8.94959
390 1 17.2969 20.4419 1.57203 -8.94977
488 1 17.2974 20.4425 7.86192 -8.94928
392 1 20.4416 20.4418 1.5721 -8.94931
507 1 6.286 18.8751 9.43427 -8.94763
506 1 3.14289 18.8708 9.43461 -8.94916
505 1 22.0136 18.8697 9.4346 -8.94953
504 1 18.8715 15.7255 9.43488 -8.94992
503 1 15.7314 15.7291 9.43407 -8.94682
502 1 12.5927 15.7252 9.424 -8.92028
501 1 9.40845 15.7334 9.42262 -8.96518
400 1 8.01948e-05 12.5794 3.14415 -8.94949
401 1 1.57119 14.1518 4.71631 -8.94961
402 1 3.14359 12.579 3.14347 -8.94906
403 1 4.71284 14.1521 4.71316 -8.94983
404 1 6.28788 12.5782 3.14135 -8.94835
405 1 7.85421 14.1595 4.69799 -8.96208
406 1 9.43529 12.5792 3.14187 -8.95122
407 1 11.0066 14.1544 4.71421 -8.94166
408 1 12.5813 12.5808 3.13566 -8.95915
409 1 14.1655 14.1644 4.69843 -8.94009
410 1 15.7285 12.5804 3.13902 -8.94743
411 1 17.3024 14.1543 4.71321 -8.94915
412 1 18.8709 12.5796 3.14331 -8.94926
413 1 20.4429 14.1522 4.71633 -8.94985
414 1 22.0139 15.7245 3.14424 -8.94963
415 1 1.5704 17.2979 4.71597 -8.95011
416 1 3.14323 15.7247 3.14322 -8.94998
417 1 4.70983 17.304 4.70968 -8.93787
418 1 6.2858 15.728 3.13717 -8.95131
419 1 7.86178 17.3011 4.71289 -8.95101
420 1 9.43515 15.7265 3.14108 -8.94814
421 1 11.0079 17.3005 4.71401 -8.94448
422 1 12.5791 15.7262 3.14187 -8.94914
423 1 14.1531 17.3006 4.71447 -8.9528
424 1 15.7289 15.729 3.1385 -8.94604
425 1 17.3003 17.3004 4.71394 -8.94545
426 1 18.8709 15.7253 3.14339 -8.94944
427 1 20.4422 17.2975 4.71656 -8.95008
428 1 22.0136 18.8696 3.14427 -8.94952
429 1 1.57185 20.442 4.71693 -8.94961
430 1 3.14285 18.871 3.14276 -8.94668
431 1 4.71576 20.4438 4.71568 -8.94966
432 1 6.28915 18.8707 3.14311 -8.95027
433 1 7.86232 20.4429 4.71635 -8.94971
434 1 9.43474 18.8706 3.14339 -8.94878
435 1 11.0073 20.4428 4.71624 -8.94957
436 1 12.5797 18.8705 3.14363 -8.94851
437 1 14.1519 20.4425 4.71678 -8.95034
438 1 15.7249 18.8707 3.14366 -8.9504
439 1 17.2974 20.4427 4.71656 -8.94958
440 1 18.87 18.8702 3.14387 -8.94858
441 1 20.4416 20.4418 4.71709 -8.94964
500 1 6.2746 15.7377 9.43408 -8.9439
499 1 3.13954 15.7268 9.43479 -8.9493
498 1 -0.000688011 15.7248 9.43475 -8.95028
497 1 18.8706 12.5796 9.43463 -8.94583
496 1 15.7209 12.5785 9.42987 -8.99857
495 1 12.7943 12.5736 9.35724 -8.08978
494 1 9.12881 12.7782 9.38108 -7.3015
449 1 22.0141 12.5792 6.2891 -8.95038
450 1 1.56951 14.1519 7.86192 -8.9532
451 1 3.14155 12.5784 6.28791 -8.94975
452 1 4.70192 14.1563 7.85769 -8.96514
453 1 6.28049 12.5762 6.28217 -8.94802
454 1 7.79178 14.2245 7.78664 -8.72179
455 1 9.41332 12.6003 6.28034 -8.92245
456 1 11.0118 14.1384 7.86899 -8.90359
457 1 12.6234 12.6107 6.25027 -8.8867
458 1 14.1875 14.1837 7.82694 -8.86265
459 1 15.7407 12.5814 6.27877 -8.95175
460 1 17.3049 14.1536 7.86044 -8.95821
461 1 18.8739 12.5795 6.28792 -8.95119
462 1 20.443 14.1521 7.86211 -8.95144
463 1 22.0132 15.7248 6.28922 -8.95106
464 1 1.57056 17.2978 7.86189 -8.94939
465 1 3.13828 15.727 6.28675 -8.95297
466 1 4.71137 17.302 7.86036 -8.94737
467 1 6.26514 15.7487 6.26485 -8.90167
468 1 7.85411 17.3157 7.8549 -8.96129
469 1 9.43829 15.7332 6.2824 -8.95071
470 1 11.0065 17.295 7.86409 -8.94404
471 1 12.5795 15.7311 6.28478 -8.96041
472 1 14.1564 17.3053 7.85847 -8.95501
473 1 15.7361 15.7358 6.27881 -8.93255
474 1 17.2994 17.299 7.86153 -8.9488
475 1 18.8723 15.7258 6.2885 -8.95131
476 1 20.442 17.2974 7.86206 -8.94954
477 1 -0.000339656 18.8696 6.28951 -8.94949
478 1 1.57181 20.442 7.86202 -8.94946
479 1 3.14287 18.8709 6.28882 -8.94929
480 1 4.71578 20.4435 7.86165 -8.94904
481 1 6.28595 18.8765 6.28572 -8.95151
482 1 7.86157 20.4455 7.86137 -8.95373
483 1 9.43593 18.8723 6.28824 -8.95001
484 1 11.0073 20.4422 7.86183 -8.94761
485 1 12.579 18.871 6.28925 -8.95127
486 1 14.1524 20.4435 7.86174 -8.9515
487 1 15.7263 18.8729 6.2879 -8.95029
530 1 14.1543 17.3029 11.0066 -8.95219
531 1 17.2989 17.2986 11.0075 -8.94781
399 1 20.4431 11.0067 4.71624 -8.94961
398 1 17.3025 11.006 4.71298 -8.94743
394 1 4.71448 11.0056 4.71427 -8.94533
393 1 1.5715 11.0066 4.71623 -8.94931
50 1 -0.000117184 22.014 3.1447 -8.94965
688 3 10.2658 11.1112 9.48024 2.21794
101 1 3.14417 22.0143 6.2894 -8.94938
526 1 1.57068 17.2977 11.0074 -8.94925
527 1 4.71204 17.3015 11.0085 -8.94629
532 1 20.442 17.2974 11.0073 -8.94947
383 1 6.28951 18.8695 -0.000322412 -8.94969
377 1 18.8696 15.7245 -0.000475281 -8.94947
686 1 20.4416 20.4416 20.4415 -8.94947
685 1 18.8695 18.8693 18.8693 -8.94955
684 1 17.2969 20.4417 20.4417 -8.94964
683 1 15.7248 18.8697 18.8699 -8.94972
682 1 14.1519 20.4418 20.4417 -8.94949
681 1 12.5796 18.8698 18.8701 -8.94936
680 1 11.007 20.4418 20.4417 -8.94956
519 1 1.5703 14.1518 11.0071 -8.9516
520 1 4.70711 14.1552 11.0089 -8.96052
521 1 7.8145 14.2123 11.0613 -8.78993
522 1 10.9972 14.3031 11.0574 -8.25453
523 1 14.1606 14.1718 11.0155 -8.90317
524 1 17.299 14.1523 11.0061 -8.952
525 1 20.442 14.1519 11.0071 -8.9498
305 1 15.7244 22.014 18.8694 -8.94955
299 1 6.2895 22.014 18.8694 -8.94954
528 1 7.85617 17.3128 11.0095 -8.95991
529 1 11.0059 17.3028 11.0086 -8.98504
391 1 18.8695 18.8695 22.0135 -8.94926
389 1 15.7244 18.8695 22.0137 -8.94981
258 1 18.8694 22.014 15.7244 -8.94972
533 1 1.57181 20.442 11.0071 -8.94946
254 1 12.5798 22.0144 15.7252 -8.94933
535 1 7.86129 20.4454 11.007 -8.95225
252 1 9.43435 22.0145 15.7252 -8.94937
248 1 3.14422 22.0142 15.7247 -8.94957
207 1 15.7249 22.0143 12.5794 -8.94963
539 1 20.4416 20.4418 11.007 -8.94956
679 1 9.43438 18.8698 18.8701 -8.94941
678 1 7.862 20.4418 20.4417 -8.94951
677 1 6.28913 18.8697 18.8701 -8.94964
676 1 4.71705 20.4417 20.4417 -8.9496
675 1 3.14434 18.8694 18.8695 -8.94965
674 1 1.57222 20.4417 20.4415 -8.9495
673 1 22.0139 18.8691 18.8692 -8.94969
547 1 22.0138 12.5793 12.5798 -8.94962
548 1 1.5715 14.1516 14.1524 -8.9495
549 1 3.14303 12.5788 12.5801 -8.94923
550 1 4.71442 14.1514 14.154 -8.94999
551 1 6.28572 12.5778 12.581 -8.9477
552 1 7.85638 14.1562 14.1655 -8.95974
553 1 9.42307 12.597 12.573 -8.88127
554 1 11.0063 14.157 14.1581 -8.9612
555 1 12.5955 12.603 12.5788 -8.86434
556 1 14.1581 14.1568 14.1593 -8.94476
557 1 15.728 12.5809 12.579 -8.95167
558 1 17.299 14.1524 14.1529 -8.95006
559 1 18.8706 12.5796 12.5797 -8.94978
560 1 20.442 14.1519 14.1522 -8.94974
561 1 22.0132 15.7245 12.5797 -8.95068
562 1 1.57067 17.2975 14.1528 -8.95044
563 1 3.13972 15.7259 12.5813 -8.95324
564 1 4.71033 17.3023 14.1577 -8.94326
565 1 6.26915 15.7428 12.5974 -8.92557
566 1 7.85411 17.3073 14.1622 -8.93776
567 1 9.41443 15.7563 12.6088 -8.8927
568 1 11.0078 17.3049 14.1596 -8.94199
569 1 12.5989 15.7521 12.6043 -8.90672
570 1 14.1598 17.3058 14.1602 -8.93976
571 1 15.7316 15.7297 12.5837 -8.95095
572 1 17.2998 17.2987 14.1537 -8.94988
573 1 18.8708 15.7247 12.5797 -8.95151
574 1 20.4419 17.297 14.1522 -8.95041
575 1 -0.000316378 18.8696 12.5796 -8.94942
576 1 1.57188 20.4419 14.1521 -8.94952
577 1 3.14302 18.8706 12.5801 -8.94897
578 1 4.71581 20.4432 14.1529 -8.94993
579 1 6.28642 18.875 12.5819 -8.95137
580 1 7.861 20.4446 14.1535 -8.95056
581 1 9.43386 18.8776 12.5826 -8.95533
582 1 11.0073 20.4444 14.1538 -8.9493
583 1 12.5808 18.8759 12.5817 -8.9561
584 1 14.1532 20.444 14.1531 -8.95101
585 1 15.7259 18.8714 12.5799 -8.94984
586 1 17.2974 20.4422 14.1521 -8.94978
587 1 18.8699 18.8698 12.5796 -8.94922
588 1 20.4416 20.4418 14.1519 -8.94952
589 1 1.57204 11.0069 17.2971 -8.94955
590 1 4.71617 11.007 17.2979 -8.94907
672 1 20.4416 17.2967 20.4414 -8.94957
671 1 18.8695 15.7244 18.8693 -8.94943
670 1 17.2971 17.297 20.4413 -8.94976
594 1 17.298 11.0073 17.2979 -8.94906
595 1 20.4419 11.007 17.2971 -8.94953
596 1 -3.33079e-05 12.5795 15.7247 -8.94959
597 1 1.57207 14.1518 17.2971 -8.94941
598 1 3.14363 12.5793 15.7253 -8.94907
599 1 4.71638 14.1517 17.2978 -8.949
600 1 6.28769 12.579 15.7268 -8.94614
601 1 7.86179 14.1513 17.2996 -8.95322
602 1 9.43588 12.5782 15.7235 -8.9468
603 1 11.0069 14.1518 17.2989 -8.9505
604 1 12.5797 12.5793 15.7247 -8.94895
605 1 14.1525 14.1519 17.2987 -8.95137
606 1 15.7272 12.5807 15.727 -8.94533
607 1 17.2977 14.1522 17.2976 -8.94881
608 1 18.8704 12.5798 15.7252 -8.94931
609 1 20.4418 14.1519 17.297 -8.94945
610 1 22.0138 15.7243 15.7246 -8.94966
611 1 1.57204 17.2967 17.297 -8.94981
612 1 3.14357 15.7243 15.7253 -8.95002
613 1 4.71588 17.2976 17.2986 -8.94996
614 1 6.28639 15.7265 15.73 -8.95149
615 1 7.86097 17.2982 17.3 -8.95025
616 1 9.4335 15.7276 15.7324 -8.95408
617 1 11.0072 17.2984 17.2998 -8.94919
618 1 12.5809 15.727 15.7308 -8.9547
619 1 14.1531 17.298 17.2994 -8.95052
620 1 15.727 15.7262 15.7274 -8.94866
621 1 17.2977 17.2973 17.2977 -8.94943
622 1 18.8701 15.7245 15.7249 -8.94973
623 1 20.4417 17.2968 17.2969 -8.94966
624 1 22.0136 18.8695 15.7246 -8.94981
625 1 1.57191 20.4419 17.2971 -8.94913
626 1 3.1428 18.8706 15.726 -8.94786
627 1 4.71638 20.4423 17.2977 -8.94883
628 1 6.28687 18.8724 15.7277 -8.9466
629 1 7.86172 20.4423 17.2977 -8.94932
630 1 9.43394 18.8719 15.7272 -8.94824
631 1 11.007 20.4423 17.2977 -8.9495
632 1 12.5805 18.8717 15.7269 -8.94794
633 1 14.1523 20.4422 17.2976 -8.94927
634 1 15.727 18.8719 15.727 -8.94682
635 1 17.2975 20.4422 17.2975 -8.94879
636 1 18.8701 18.8698 15.7249 -8.94957
637 1 20.4417 20.4418 17.2969 -8.94952
669 1 15.7248 15.7245 18.8697 -8.95017
639 1 4.71674 11.0069 20.4415 -8.94959
668 1 14.152 17.2971 20.4418 -8.94988
667 1 12.5795 15.7246 18.8706 -8.95069
666 1 11.007 17.2973 20.4419 -8.94981
643 1 17.2973 11.007 20.4414 -8.94949
665 1 9.43439 15.7247 18.8709 -8.95097
645 1 22.0139 12.5794 18.8692 -8.94959
646 1 1.57224 14.1518 20.4415 -8.94956
647 1 3.14436 12.5794 18.8694 -8.94955
648 1 4.71679 14.1518 20.4414 -8.9495
649 1 6.28892 12.5793 18.87 -8.94941
650 1 7.86188 14.1517 20.4414 -8.95069
651 1 9.43444 12.5792 18.8695 -8.94822
652 1 11.0068 14.152 20.4415 -8.9497
653 1 12.5795 12.5794 18.8695 -8.94896
654 1 14.1521 14.152 20.441 -8.95052
655 1 15.7252 12.5797 18.87 -8.94931
656 1 17.2973 14.152 20.4413 -8.94941
657 1 18.8696 12.5795 18.8694 -8.94953
658 1 20.4417 14.1519 20.4415 -8.94958
659 1 22.0139 15.7243 18.8692 -8.94952
660 1 1.57228 17.2967 20.4414 -8.94963
661 1 3.14447 15.7242 18.8694 -8.94951
662 1 4.71681 17.297 20.4414 -8.95014
663 1 6.28915 15.7244 18.8702 -8.9508
664 1 7.86186 17.2971 20.4418 -8.94991
381 1 3.14434 18.8695 22.0133 -8.94947
201 1 6.28885 22.0147 12.5798 -8.95048
355 1 6.28908 12.5792 22.013 -8.94965
357 1 9.43452 12.5793 22.0129 -8.94926
359 1 12.5793 12.5795 22.0118 -8.95101
365 1 22.0139 15.7243 22.0137 -8.94956
367 1 3.14445 15.7243 22.0135 -8.94959
369 1 6.2891 15.7247 22.0124 -8.95105
371 1 9.43446 15.7249 22.013 -8.94977
373 1 12.5793 15.7248 22.0131 -8.9496
375 1 15.725 15.725 22.0124 -8.95034
246 1 -0.000106061 22.014 15.7243 -8.94961
379 1 22.0139 18.8692 22.0137 -8.94963
363 1 18.8696 12.5794 22.0134 -8.94951
