ITEM: TIMESTEP
114
ITEM: NUMBER OF ATOMS
688
ITEM: BOX BOUNDS pp pp pp
0.0000000000000000e+00 2.2013900999999997e+01
0.0000000000000000e+00 2.2013900999999997e+01
0.0000000000000000e+00 2.2013900999999997e+01
ITEM: ATOMS id type x y z c_pot
7 1 9.43448 0.00022391 -0.000186912 -8.94951
2 1 1.57186 1.57238 1.57185 -8.9492
448 1 20.4439 11.0067 7.862 -8.95095
4 1 4.71683 1.57229 1.57182 -8.9497
447 1 17.3063 11.0052 7.85935 -8.95922
6 1 7.86193 1.57222 1.57184 -8.94942
175 1 18.8715 9.43337 9.43473 -8.94803
8 1 11.007 1.57214 1.57183 -8.9495
174 1 15.7276 9.43138 9.43447 -8.94191
10 1 14.1521 1.57204 1.57191 -8.94945
446 1 14.1918 10.9751 7.81599 -8.88557
12 1 17.2972 1.57196 1.57194 -8.9496
445 1 11.0834 11.0124 7.64424 -8.08863
14 1 20.4417 1.57228 1.57207 -8.94946
444 1 7.86424 10.986 7.84714 -8.86732
16 1 1.57204 4.71676 1.57171 -8.94953
443 1 4.7175 11.0073 7.8618 -8.94867
18 1 4.7162 4.71619 1.57113 -8.94956
442 1 1.57226 11.0069 7.86193 -8.94881
20 1 7.86163 4.71623 1.57145 -8.94918
149 1 3.14345 0.000708405 9.43445 -8.9494
22 1 11.0069 4.71595 1.57134 -8.94952
154 1 18.8696 0.000283265 9.43447 -8.9495
24 1 14.1524 4.7157 1.57117 -8.94949
188 1 17.2987 4.71505 11.0067 -8.94868
26 1 17.2982 4.71546 1.57105 -8.94851
183 1 1.57095 4.71613 11.0071 -8.9494
28 1 20.4423 4.71644 1.57165 -8.94916
397 1 14.1645 11.0047 4.69892 -8.95178
30 1 1.57215 7.86171 1.57169 -8.94935
396 1 11.0123 11.0086 4.72182 -8.9995
32 1 4.71643 7.86159 1.57122 -8.94976
395 1 7.86234 11.0057 4.71356 -8.95104
34 1 7.86176 7.86147 1.5708 -8.95164
35 1 9.43404 6.28861 -0.000339024 -8.94947
36 1 11.0067 7.86044 1.56982 -8.95001
37 1 12.5795 6.28844 -0.000584984 -8.94958
38 1 14.1535 7.86004 1.56845 -8.95151
181 1 17.2976 1.57192 11.0069 -8.94949
40 1 17.299 7.86038 1.56976 -8.94936
346 1 7.86186 11.0068 1.57096 -8.9498
42 1 20.4424 7.86147 1.57142 -8.94935
164 1 6.28181 6.281 9.43385 -8.9419
44 1 3.14423 9.43424 -0.000514365 -8.94938
350 1 20.4425 11.0068 1.5713 -8.94942
348 1 14.1543 11.0068 1.56659 -8.95141
347 1 11.0071 11.0068 1.57125 -8.9454
48 1 15.7257 9.4339 -0.00198253 -8.94994
163 1 3.14127 6.28746 9.43413 -8.94914
344 1 1.57202 11.0067 1.57147 -8.94945
51 1 1.57171 1.57235 4.71672 -8.94945
52 1 3.14374 0.000846025 3.14367 -8.94935
53 1 4.7161 1.5722 4.716 -8.9501
54 1 6.2894 0.000631297 3.14388 -8.94973
55 1 7.86201 1.57205 4.7163 -8.94973
173 1 12.5737 9.44851 9.42886 -8.90439
57 1 11.0072 1.57185 4.71627 -8.94974
172 1 9.38824 9.29283 9.4464 -8.26172
59 1 14.1523 1.57157 4.71661 -8.95033
60 1 15.7246 0.000223125 3.14426 -8.95006
61 1 17.2972 1.5722 4.71684 -8.95006
62 1 18.8695 0.000463328 3.14431 -8.9496
63 1 20.4416 1.5723 4.71697 -8.94947
64 1 22.0137 3.14443 3.14435 -8.94962
65 1 1.57132 4.71639 4.71639 -8.94973
66 1 3.1436 3.14398 3.14358 -8.94889
67 1 4.71416 4.71415 4.71419 -8.94725
68 1 6.28907 3.14384 3.14368 -8.94983
69 1 7.8613 4.7145 4.71537 -8.95004
70 1 9.43437 3.14372 3.14372 -8.94933
71 1 11.0073 4.71422 4.71496 -8.94858
72 1 12.5797 3.14347 3.14369 -8.94927
73 1 14.154 4.71275 4.71473 -8.95043
74 1 15.7253 3.14305 3.14369 -8.94965
75 1 17.2984 4.71494 4.71606 -8.95051
76 1 18.8698 3.14398 3.14423 -8.9498
77 1 20.4419 4.71645 4.7168 -8.94981
78 1 22.0143 6.28894 3.144 -8.94982
79 1 1.57178 7.86151 4.71641 -8.95032
80 1 3.14348 6.28862 3.14336 -8.94954
81 1 4.71391 7.8597 4.7143 -8.949
82 1 6.2874 6.28715 3.1414 -8.94973
83 1 7.85764 7.85597 4.70993 -8.94989
84 1 9.43394 6.28733 3.1424 -8.94762
85 1 11.0079 7.8567 4.70976 -8.94613
86 1 12.5804 6.28669 3.14143 -8.94861
87 1 14.164 7.84951 4.70397 -8.93234
88 1 15.7285 6.28486 3.14025 -8.94534
89 1 17.3044 7.85627 4.71144 -8.94596
90 1 18.8718 6.28741 3.14271 -8.94832
91 1 20.4437 7.86084 4.71602 -8.95044
92 1 0.000448689 9.434 3.14375 -8.94936
93 1 3.14368 9.43379 3.14337 -8.94868
94 1 6.28866 9.43368 3.1424 -8.94993
95 1 9.43576 9.434 3.14285 -8.95255
96 1 12.5817 9.43263 3.13606 -8.95865
97 1 15.7296 9.43134 3.13753 -8.94901
98 1 18.872 9.43335 3.14245 -8.94894
99 1 22.0136 0.000326653 6.28941 -8.94947
100 1 1.57159 1.57228 7.86184 -8.94945
166 1 12.5774 6.29195 9.43568 -8.94429
102 1 4.71571 1.57202 7.8614 -8.94933
103 1 6.28865 0.00177257 6.28845 -8.95116
104 1 7.86164 1.57174 7.8615 -8.95134
105 1 9.43495 0.000764829 6.28887 -8.94989
106 1 11.0073 1.57193 7.86168 -8.9488
107 1 12.5796 0.000241925 6.28923 -8.94989
108 1 14.1522 1.57218 7.86189 -8.94989
109 1 15.7249 0.000856245 6.28922 -8.95033
110 1 17.2975 1.57207 7.86178 -8.94947
165 1 9.43364 6.28184 9.4367 -8.98351
112 1 20.4416 1.57223 7.86194 -8.9495
113 1 -0.00033194 3.14433 6.28933 -8.94941
114 1 1.57108 4.7162 7.86162 -8.94931
115 1 3.14338 3.14387 6.28881 -8.94921
116 1 4.71404 4.71422 7.86066 -8.94798
117 1 6.28804 3.14229 6.28805 -8.951
118 1 7.85966 4.71046 7.86081 -8.95557
119 1 9.4348 3.14285 6.28871 -8.95026
120 1 11.0076 4.71559 7.86153 -8.94744
121 1 12.5798 3.14265 6.28892 -8.95146
122 1 14.1523 4.71521 7.86254 -8.95159
123 1 15.7249 3.14353 6.28942 -8.95052
124 1 17.2983 4.71528 7.86156 -8.94841
125 1 18.8697 3.14407 6.28935 -8.94929
126 1 20.4419 4.71632 7.86183 -8.94942
127 1 22.0137 6.28893 6.28929 -8.94988
128 1 1.57097 7.86149 7.86187 -8.95061
129 1 3.14191 6.28798 6.28822 -8.95049
130 1 4.71114 7.8591 7.86069 -8.95428
131 1 6.28162 6.28067 6.28213 -8.94097
132 1 7.83971 7.83567 7.84527 -8.91078
133 1 9.435 6.28327 6.2874 -8.95246
134 1 11.0172 7.86206 7.84974 -8.92238
135 1 12.5833 6.28075 6.2848 -8.95528
136 1 14.1574 7.85463 7.86135 -8.96
137 1 15.7278 6.28484 6.28771 -8.95285
138 1 17.3004 7.85958 7.86193 -8.94908
139 1 18.8708 6.28816 6.28922 -8.94978
140 1 20.4427 7.86124 7.86205 -8.94956
141 1 22.0148 9.43412 6.28921 -8.95057
142 1 3.14301 9.43423 6.28887 -8.95147
143 1 6.28283 9.42931 6.28381 -8.94621
144 1 9.4256 9.41415 6.28043 -8.90128
145 1 12.6159 9.40183 6.25262 -8.86237
146 1 15.7447 9.42097 6.27427 -8.94007
147 1 18.8749 9.4326 6.28766 -8.95305
171 1 6.28476 9.42974 9.43556 -8.96012
170 1 3.14311 9.43442 9.43448 -8.95029
169 1 22.0141 9.43428 9.43463 -8.94955
151 1 9.43475 0.000984594 9.43415 -8.94925
152 1 12.5798 0.000494759 9.43417 -8.9488
168 1 18.871 6.28794 9.43428 -8.9493
167 1 15.7281 6.28514 9.43351 -8.94423
155 1 22.0135 3.14426 9.43444 -8.94949
156 1 3.14314 3.1437 9.4343 -8.94943
157 1 6.28714 3.14156 9.43401 -8.94931
158 1 9.43452 3.14237 9.43426 -8.94999
159 1 12.5796 3.1442 9.43423 -8.94733
160 1 15.7256 3.14312 9.43402 -8.94957
161 1 18.8699 3.14396 9.43434 -8.94947
162 1 -0.000435238 6.28874 9.43443 -8.94982
177 1 4.71559 1.57181 11.0072 -8.94937
184 1 4.71346 4.71373 11.0076 -8.94827
41 1 18.8701 6.28889 -0.000704833 -8.94946
19 1 6.28931 3.14435 -0.00015493 -8.94947
25 1 15.7247 3.14407 -0.000181529 -8.94955
176 1 1.57157 1.57223 11.0071 -8.94946
199 1 3.1435 0.000590955 12.5799 -8.94927
178 1 7.86132 1.57112 11.0069 -8.95146
179 1 11.0073 1.57144 11.0067 -8.94925
180 1 14.1526 1.57166 11.0065 -8.94989
644 1 20.442 11.0069 20.4414 -8.9495
182 1 20.4417 1.5722 11.007 -8.94951
642 1 14.1526 11.0072 20.4411 -8.95051
209 1 18.8696 0.000199659 12.5796 -8.94942
185 1 7.85821 4.70796 11.008 -8.95477
186 1 11.0078 4.71256 11.0082 -8.94728
187 1 14.1537 4.71336 11.0058 -8.95023
641 1 11.0068 11.0071 20.4416 -8.94825
189 1 20.442 4.71629 11.007 -8.94949
190 1 1.57047 7.86143 11.0071 -8.95097
191 1 4.70903 7.8581 11.008 -8.95368
192 1 7.83414 7.83015 11.0264 -8.89655
193 1 11.019 7.85437 11.0352 -8.96873
194 1 14.1599 7.85197 11.0041 -8.95098
195 1 17.3011 7.85918 11.0064 -8.94807
196 1 20.4427 7.86124 11.007 -8.94977
197 1 22.0135 0.000247098 12.5796 -8.94947
198 1 1.57162 1.57219 14.1523 -8.94944
343 1 18.8701 9.43449 18.8696 -8.94936
200 1 4.71569 1.57165 14.1529 -8.94983
342 1 15.7258 9.43443 18.8707 -8.94971
202 1 7.8613 1.57118 14.1531 -8.95066
203 1 9.43456 0.00130454 12.5802 -8.95146
204 1 11.0073 1.57092 14.1533 -8.95013
205 1 12.58 0.00068044 12.5798 -8.95134
206 1 14.153 1.57065 14.1528 -8.95116
341 1 12.5798 9.43411 18.8726 -8.95345
208 1 17.2976 1.57179 14.1521 -8.94973
340 1 9.43428 9.43427 18.8718 -8.95185
210 1 20.4417 1.57218 14.152 -8.94946
211 1 -0.000349336 3.14426 12.5796 -8.94944
212 1 1.57094 4.71621 14.1527 -8.94965
213 1 3.14309 3.14362 12.58 -8.94924
214 1 4.71282 4.71312 14.1552 -8.94681
215 1 6.2872 3.14105 12.5808 -8.95048
216 1 7.85866 4.70966 14.1562 -8.95169
217 1 9.43438 3.14015 12.5806 -8.9525
218 1 11.0074 4.70961 14.1569 -8.94771
219 1 12.5804 3.13989 12.5804 -8.95381
220 1 14.1569 4.70806 14.1567 -8.95159
221 1 15.7257 3.14269 12.5793 -8.94979
222 1 17.2994 4.71456 14.1529 -8.95029
223 1 18.8699 3.14395 12.5795 -8.94929
224 1 20.4421 4.7164 14.1522 -8.94972
225 1 22.0135 6.28891 12.5797 -8.94997
226 1 1.57092 7.86176 14.1526 -8.95109
227 1 3.1408 6.28757 12.5807 -8.95023
228 1 4.71017 7.85875 14.1559 -8.95176
229 1 6.2785 6.27795 12.5876 -8.9386
230 1 7.84208 7.8407 14.1745 -8.92351
231 1 9.43151 6.27176 12.5868 -8.96066
232 1 11.0077 7.84612 14.1694 -8.94365
233 1 12.5874 6.26903 12.589 -8.96165
234 1 14.1788 7.83521 14.1787 -8.90081
235 1 15.7299 6.28381 12.5805 -8.95103
236 1 17.306 7.85722 14.1568 -8.95126
237 1 18.8714 6.28817 12.5796 -8.94947
238 1 20.4435 7.86144 14.1527 -8.95134
239 1 22.0141 9.4346 12.5796 -8.95083
240 1 3.14163 9.43483 12.5797 -8.95355
241 1 6.27506 9.42892 12.5859 -8.9608
242 1 9.3777 9.37123 12.6309 -8.78733
243 1 12.6564 9.35962 12.6525 -8.72125
244 1 15.7451 9.42531 12.5887 -8.96195
245 1 18.8737 9.43402 12.58 -8.95481
47 1 12.5795 9.4342 22.0123 -8.95158
247 1 1.57175 1.5722 17.2973 -8.94931
46 1 9.43443 9.4344 22.0136 -8.94983
249 1 4.7162 1.57192 17.2979 -8.94949
250 1 6.28853 0.000773753 15.7258 -8.94983
251 1 7.86156 1.57183 17.298 -8.94927
339 1 6.28879 9.4346 18.8704 -8.94952
253 1 11.007 1.57171 17.298 -8.9494
338 1 3.14409 9.43445 18.8697 -8.94933
255 1 14.1525 1.57161 17.2979 -8.9493
256 1 15.7255 0.00022074 15.7254 -8.9501
257 1 17.2978 1.57158 17.2977 -8.94935
45 1 6.28912 9.43435 22.0134 -8.94974
259 1 20.4418 1.57214 17.2971 -8.94959
260 1 22.0136 3.14431 15.7247 -8.94958
261 1 1.5716 4.71654 17.2976 -8.94964
262 1 3.14313 3.14357 15.7257 -8.94884
263 1 4.71458 4.71489 17.2997 -8.94757
264 1 6.28775 3.14223 15.7265 -8.94998
265 1 7.86072 4.7148 17.2996 -8.94882
266 1 9.43392 3.14207 15.7266 -8.94903
267 1 11.0069 4.71447 17.2997 -8.94906
268 1 12.5803 3.14182 15.7266 -8.949
269 1 14.1535 4.71429 17.2998 -8.94911
270 1 15.7267 3.1415 15.7265 -8.94966
271 1 17.2998 4.71431 17.2996 -8.94635
272 1 18.8702 3.14379 15.7249 -8.94982
273 1 20.4425 4.71634 17.2976 -8.94943
274 1 22.0141 6.28907 15.725 -8.95033
275 1 1.57186 7.86199 17.2974 -8.94948
276 1 3.14198 6.28813 15.7263 -8.95004
277 1 4.71548 7.86166 17.2987 -8.95002
278 1 6.28219 6.28241 15.7327 -8.9425
279 1 7.85944 7.85945 17.3031 -8.95326
280 1 9.43246 6.28307 15.7312 -8.94603
281 1 11.0069 7.85836 17.3034 -8.94931
282 1 12.5821 6.28245 15.732 -8.94712
283 1 14.1558 7.85829 17.3047 -8.953
284 1 15.7336 6.28061 15.7334 -8.93733
285 1 17.2993 7.86111 17.2991 -8.94999
286 1 18.8726 6.28751 15.7265 -8.94956
287 1 20.4423 7.86191 17.2974 -8.94958
288 1 8.77909e-05 9.43452 15.725 -8.94951
289 1 3.14314 9.43449 15.7255 -8.94892
290 1 6.28662 9.43419 15.728 -8.94981
291 1 9.43211 9.42953 15.7361 -8.961
292 1 12.5847 9.42849 15.7413 -8.96525
293 1 15.7296 9.43355 15.7299 -8.9498
294 1 18.8714 9.43456 15.7256 -8.94943
295 1 22.0137 0.000163638 18.8694 -8.94915
296 1 1.57208 1.57226 20.4417 -8.94915
297 1 3.14417 0.0002208 18.8697 -8.94931
298 1 4.71688 1.57224 20.4418 -8.94952
301 1 9.4344 0.000191941 18.8699 -8.94946
300 1 7.86186 1.57217 20.4418 -8.94947
337 1 22.014 9.43447 18.8694 -8.94949
302 1 11.007 1.57212 20.4418 -8.9495
336 1 20.442 7.86188 20.4414 -8.94947
304 1 14.1521 1.57209 20.4418 -8.94947
39 1 15.7254 6.28829 22.013 -8.95018
306 1 17.2971 1.57208 20.4418 -8.94953
307 1 18.8696 4.07269e-05 18.8696 -8.9492
308 1 20.4418 1.57222 20.4417 -8.94902
309 1 22.0139 3.14443 18.8695 -8.94936
310 1 1.57216 4.71701 20.4416 -8.94967
311 1 3.14391 3.14412 18.87 -8.94896
312 1 4.71643 4.71656 20.4421 -8.94984
313 1 6.28897 3.14399 18.8702 -8.9494
314 1 7.86156 4.71634 20.4422 -8.94936
315 1 9.43423 3.14382 18.8703 -8.94934
316 1 11.0068 4.71616 20.4422 -8.94949
317 1 12.5796 3.14375 18.8703 -8.94933
318 1 14.1523 4.71613 20.4422 -8.94944
319 1 15.7251 3.14372 18.8702 -8.94946
320 1 17.2978 4.71614 20.4421 -8.94947
321 1 18.8701 3.14392 18.8699 -8.94863
322 1 20.442 4.71685 20.4416 -8.94954
323 1 22.014 6.28948 18.8694 -8.9496
324 1 1.57216 7.86194 20.4415 -8.94945
325 1 3.14402 6.28936 18.8699 -8.94982
326 1 4.7166 7.86195 20.4418 -8.94968
327 1 6.28812 6.28835 18.8717 -8.95049
328 1 7.86154 7.86168 20.4427 -8.95081
329 1 9.43381 6.28794 18.8717 -8.94922
330 1 11.0067 7.86115 20.4426 -8.95041
331 1 12.5799 6.2878 18.8719 -8.94939
332 1 14.1526 7.86123 20.4425 -8.95124
333 1 15.7263 6.28768 18.872 -8.95012
334 1 17.2978 7.86157 20.4415 -8.94965
335 1 18.8703 6.28904 18.8699 -8.94972
512 1 1.57212 11.0072 11.0069 -8.94809
513 1 4.71835 11.0084 11.0056 -8.94687
514 1 7.86817 10.9904 11.0195 -8.88353
515 1 11.0576 10.801 11.312 -7.30631
516 1 14.1611 10.9838 11.0297 -8.92019
517 1 17.2994 11.0068 11.0061 -8.95127
518 1 20.4425 11.0071 11.0069 -8.94909
540 1 1.57132 11.007 14.1528 -8.94945
541 1 4.71403 11.0071 14.1543 -8.946
542 1 7.85944 11.0079 14.157 -8.94673
543 1 11.0103 10.9937 14.1506 -9.0192
544 1 14.1603 11.0094 14.1622 -8.94774
545 1 17.3008 11.008 14.1541 -8.94824
546 1 20.4426 11.0072 14.1526 -8.94969
591 1 7.86118 11.0074 17.2989 -8.94933
592 1 11.0073 11.0068 17.2981 -8.94668
593 1 14.1541 11.0079 17.3004 -8.95
638 1 1.5721 11.0069 20.4414 -8.94951
640 1 7.86165 11.007 20.4418 -8.94962
3 1 3.14441 0.000281271 22.0136 -8.94959
5 1 6.28945 0.000237295 22.0137 -8.94946
11 1 15.7245 0.000118842 22.0138 -8.94947
13 1 18.8694 0.000144874 22.0137 -8.94946
15 1 22.014 3.14456 22.0136 -8.94933
17 1 3.14429 3.14438 22.0136 -8.94946
303 1 12.5796 0.000146008 18.8699 -8.94945
33 1 6.28902 6.28907 22.0136 -8.95055
27 1 18.8698 3.14416 22.0137 -8.94918
29 1 22.0141 6.28939 22.0135 -8.94948
31 1 3.14435 6.28937 22.0135 -8.94968
1 1 22.0137 0.000205135 22.0136 -8.94902
21 1 9.43434 3.1442 22.0138 -8.94949
9 1 12.5795 0.000188179 22.0137 -8.9495
23 1 12.5795 3.14412 22.0137 -8.94948
43 1 22.0141 9.43432 22.0134 -8.94948
49 1 18.8702 9.43417 22.013 -8.94937
687 3 10.9623 12.4654 10.1713 2.22478
345 1 4.71611 11.0064 1.57076 -8.94928
511 1 18.8701 18.8704 9.43462 -8.94952
510 1 15.7265 18.8721 9.43423 -8.94858
509 1 12.5799 18.8707 9.4339 -8.94744
349 1 17.2991 11.0066 1.56953 -8.94919
508 1 9.43328 18.8738 9.43369 -8.94728
351 1 22.014 12.5794 -0.000511619 -8.9495
352 1 1.5719 14.1518 1.57139 -8.94936
353 1 3.14413 12.5792 -0.000685247 -8.94948
354 1 4.71589 14.1518 1.57012 -8.94943
538 1 17.2978 20.4426 11.0071 -8.94933
356 1 7.86147 14.1523 1.56777 -8.95481
153 1 15.7252 22.0145 9.43424 -8.94974
358 1 11.0068 14.153 1.56993 -8.94803
150 1 6.28813 22.0154 9.43421 -8.95013
360 1 14.1538 14.1537 1.56662 -8.95305
361 1 15.7258 12.5799 -0.00235025 -8.94967
362 1 17.299 14.153 1.56951 -8.94894
111 1 18.8696 22.0143 6.28938 -8.94945
364 1 20.4424 14.1521 1.57129 -8.94937
537 1 14.1528 20.4435 11.0067 -8.95026
366 1 1.5716 17.2973 1.57121 -8.94972
148 1 -0.000362838 22.0142 9.43452 -8.9495
368 1 4.71503 17.2988 1.56885 -8.94956
58 1 12.5797 22.0143 3.14401 -8.94947
370 1 7.86187 17.2982 1.57008 -8.94947
56 1 9.43462 22.0144 3.14389 -8.94949
372 1 11.0072 17.2984 1.57048 -8.9493
536 1 11.0072 20.444 11.007 -8.94999
374 1 14.1523 17.2982 1.57065 -8.94978
534 1 4.71489 20.4443 11.0076 -8.94903
376 1 17.2988 17.2989 1.56971 -8.94832
493 1 6.29093 12.5926 9.43113 -9.0192
378 1 20.4422 17.2974 1.57138 -8.94946
492 1 3.14342 12.5795 9.4342 -8.94668
380 1 1.57154 20.4424 1.57136 -8.94863
491 1 22.0138 12.5792 9.43466 -8.94825
382 1 4.71659 20.4425 1.5713 -8.94982
490 1 20.4416 20.4422 7.86198 -8.94948
384 1 7.86201 20.4424 1.57154 -8.94929
385 1 9.43449 18.87 -0.000505194 -8.94949
386 1 11.0071 20.4424 1.5716 -8.94947
387 1 12.5796 18.87 -0.000437657 -8.94942
388 1 14.1521 20.4422 1.57176 -8.94929
489 1 18.8703 18.8706 6.28904 -8.94949
390 1 17.2972 20.4423 1.57167 -8.9498
488 1 17.2978 20.4429 7.86177 -8.94927
392 1 20.4417 20.4422 1.57173 -8.94918
507 1 6.28462 18.8767 9.43411 -8.94771
506 1 3.14174 18.8719 9.43456 -8.94906
505 1 22.0132 18.8702 9.43465 -8.94949
504 1 18.8717 15.7259 9.43476 -8.95001
503 1 15.7317 15.7296 9.43358 -8.94613
502 1 12.5917 15.7243 9.42424 -8.92238
501 1 9.40627 15.732 9.42248 -8.96873
400 1 0.000296763 12.5793 3.14361 -8.94947
401 1 1.57075 14.1519 4.71571 -8.94971
402 1 3.14322 12.5789 3.14285 -8.94902
403 1 4.71158 14.1528 4.71183 -8.9498
404 1 6.28742 12.5783 3.14065 -8.94824
405 1 7.85281 14.161 4.69642 -8.96195
406 1 9.43543 12.5796 3.14209 -8.95127
407 1 11.007 14.1549 4.71393 -8.94191
408 1 12.5821 12.5811 3.13518 -8.95922
409 1 14.1672 14.1654 4.6968 -8.94007
410 1 15.73 12.5807 3.13739 -8.94731
411 1 17.3039 14.155 4.71186 -8.94901
412 1 18.8719 12.5797 3.14237 -8.94919
413 1 20.4435 14.1524 4.71576 -8.94994
414 1 22.0139 15.7248 3.14365 -8.94965
415 1 1.56951 17.2986 4.71515 -8.95012
416 1 3.14236 15.7252 3.14216 -8.94999
417 1 4.70812 17.3057 4.70788 -8.93733
418 1 6.28468 15.7291 3.1355 -8.95126
419 1 7.86099 17.3025 4.7116 -8.95103
420 1 9.43508 15.7271 3.14036 -8.94807
421 1 11.008 17.3012 4.71342 -8.94423
422 1 12.5796 15.7267 3.14113 -8.94908
423 1 14.1538 17.3015 4.71365 -8.95285
424 1 15.73 15.7301 3.13708 -8.94596
425 1 17.3012 17.3015 4.71299 -8.94534
426 1 18.8717 15.7259 3.14252 -8.94936
427 1 20.4424 17.298 4.71607 -8.95018
428 1 22.0133 18.8702 3.1437 -8.94947
429 1 1.57126 20.4426 4.71641 -8.94946
430 1 3.14189 18.872 3.14168 -8.94635
431 1 4.71497 20.4448 4.7148 -8.94966
432 1 6.28857 18.8718 3.14205 -8.95029
433 1 7.86218 20.4436 4.71579 -8.94979
434 1 9.43475 18.8713 3.14279 -8.94868
435 1 11.0075 20.4432 4.71592 -8.94957
436 1 12.5799 18.871 3.14319 -8.94841
437 1 14.1521 20.4428 4.71656 -8.95052
438 1 15.7254 18.8714 3.14305 -8.95051
439 1 17.2978 20.4433 4.7162 -8.94965
440 1 18.8704 18.8709 3.14326 -8.94851
441 1 20.4417 20.4422 4.71678 -8.94955
500 1 6.27209 15.7402 9.43376 -8.94365
499 1 3.13806 15.728 9.43463 -8.94931
498 1 -0.0011673 15.7252 9.43477 -8.95041
497 1 18.8702 12.5795 9.43435 -8.9454
496 1 15.7197 12.5778 9.42923 -8.9995
495 1 12.7972 12.5739 9.3581 -8.08863
494 1 9.12944 12.7854 9.38391 -7.30639
449 1 22.0143 12.5791 6.28883 -8.95051
450 1 1.56889 14.1522 7.86167 -8.95345
451 1 3.14112 12.5784 6.28738 -8.95
452 1 4.70021 14.1578 7.85674 -8.96525
453 1 6.27928 12.5769 6.28122 -8.94774
454 1 7.78893 14.2267 7.78505 -8.72122
455 1 9.41175 12.6026 6.2804 -8.92019
456 1 11.0126 14.1378 7.86773 -8.90439
457 1 12.6255 12.6112 6.24967 -8.88557
458 1 14.1889 14.1845 7.82562 -8.86237
459 1 15.7426 12.5816 6.27698 -8.95178
460 1 17.3054 14.1537 7.85983 -8.95865
461 1 18.8749 12.5795 6.28716 -8.95141
462 1 20.443 14.1521 7.86197 -8.95158
463 1 22.0129 15.7251 6.28888 -8.95124
464 1 1.56958 17.2985 7.86157 -8.94939
465 1 3.13674 15.728 6.28565 -8.953
466 1 4.70946 17.3039 7.8594 -8.94712
467 1 6.26276 15.7511 6.26269 -8.90081
468 1 7.85243 17.3173 7.85411 -8.96165
469 1 9.43742 15.7344 6.28156 -8.95098
470 1 11.0058 17.2944 7.8641 -8.94429
471 1 12.5801 15.7317 6.28403 -8.96
472 1 14.1567 17.3056 7.85817 -8.95528
473 1 15.7375 15.7368 6.27748 -8.93234
474 1 17.3001 17.2996 7.86112 -8.94861
475 1 18.873 15.7263 6.28798 -8.95151
476 1 20.4421 17.2979 7.86193 -8.94958
477 1 -0.00070514 18.8702 6.28919 -8.94944
478 1 1.57121 20.4426 7.86184 -8.94933
479 1 3.14166 18.872 6.288 -8.94911
480 1 4.71488 20.4445 7.8612 -8.949
481 1 6.28478 18.8783 6.28459 -8.95159
482 1 7.86112 20.4464 7.86103 -8.95381
483 1 9.43569 18.873 6.28778 -8.95023
484 1 11.0073 20.4421 7.86183 -8.94733
485 1 12.5789 18.8711 6.28914 -8.95159
486 1 14.1526 20.4437 7.86164 -8.95146
487 1 15.7267 18.8736 6.28748 -8.95043
530 1 14.1541 17.3031 11.0065 -8.95246
531 1 17.2991 17.299 11.0075 -8.94762
399 1 20.4438 11.0065 4.71566 -8.94967
398 1 17.3041 11.0056 4.71149 -8.94731
394 1 4.71425 11.0053 4.7138 -8.94522
393 1 1.57154 11.0063 4.71584 -8.94935
50 1 -0.000301618 22.0142 3.14438 -8.94953
688 3 10.2702 11.1209 9.47916 2.22478
101 1 3.14356 22.0147 6.28898 -8.9493
526 1 1.56974 17.2984 11.0077 -8.94922
527 1 4.71031 17.3032 11.009 -8.94603
532 1 20.4418 17.2977 11.0074 -8.94947
383 1 6.28928 18.8699 -0.000655415 -8.94972
377 1 18.8701 15.7248 -0.000970091 -8.94935
686 1 20.4417 20.4418 20.4414 -8.94933
685 1 18.8698 18.8696 18.8694 -8.94953
684 1 17.2971 20.4419 20.4417 -8.94962
683 1 15.7251 18.8699 18.8702 -8.94973
682 1 14.1522 20.442 20.4418 -8.94941
681 1 12.5799 18.8701 18.8704 -8.94931
680 1 11.007 20.4421 20.4418 -8.94949
519 1 1.56967 14.152 11.0072 -8.95185
520 1 4.7054 14.1568 11.0094 -8.961
521 1 7.81057 14.2151 11.0638 -8.78731
522 1 10.9951 14.2935 11.0532 -8.26174
523 1 14.1611 14.1722 11.0159 -8.90128
524 1 17.2986 14.1523 11.0057 -8.95255
525 1 20.4417 14.1519 11.007 -8.94983
305 1 15.7248 22.014 18.8698 -8.94945
299 1 6.28921 22.0141 18.8699 -8.94944
528 1 7.8547 17.3146 11.01 -8.96066
529 1 11.0048 17.3045 11.0078 -8.98351
391 1 18.8698 18.8699 22.0131 -8.94916
389 1 15.7247 18.8699 22.0134 -8.94981
258 1 18.8697 22.014 15.7247 -8.9497
533 1 1.57122 20.4425 11.0073 -8.94934
254 1 12.5801 22.0143 15.7258 -8.94933
535 1 7.86088 20.4462 11.0071 -8.9525
252 1 9.43428 22.0145 15.7259 -8.94937
248 1 3.1436 22.0144 15.7253 -8.94949
207 1 15.7252 22.0143 12.5795 -8.94973
539 1 20.4416 20.4421 11.0071 -8.94949
679 1 9.43435 18.8702 18.8705 -8.9494
678 1 7.86187 20.4421 20.4418 -8.94944
677 1 6.28882 18.8701 18.8705 -8.94965
676 1 4.71675 20.442 20.4417 -8.94958
675 1 3.14385 18.8698 18.8699 -8.94964
674 1 1.57194 20.4419 20.4414 -8.94936
673 1 22.0138 18.8693 18.8693 -8.94967
547 1 22.0136 12.5793 12.5798 -8.94962
548 1 1.57104 14.1517 14.1527 -8.94952
549 1 3.14262 12.5789 12.5803 -8.94933
550 1 4.71345 14.1521 14.1549 -8.94981
551 1 6.28451 12.5784 12.582 -8.94673
552 1 7.85562 14.1574 14.1664 -8.9608
553 1 9.42193 12.5959 12.5733 -8.88353
554 1 11.0059 14.1566 14.1567 -8.96012
555 1 12.5943 12.6003 12.5772 -8.86732
556 1 14.1577 14.157 14.1586 -8.94621
557 1 15.7279 12.5806 12.5791 -8.95104
558 1 17.2991 14.1526 14.1528 -8.94993
559 1 18.8705 12.5796 12.5796 -8.9498
560 1 20.442 14.152 14.1524 -8.94974
561 1 22.0127 15.7246 12.5799 -8.95081
562 1 1.5698 17.298 14.1534 -8.95049
563 1 3.13836 15.7269 12.582 -8.95326
564 1 4.70876 17.3039 14.1593 -8.9425
565 1 6.26697 15.7456 12.5994 -8.92351
566 1 7.85384 17.3084 14.163 -8.9386
567 1 9.4151 15.7562 12.6073 -8.89655
568 1 11.0076 17.3053 14.1597 -8.9419
569 1 12.5962 15.7507 12.6018 -8.91078
570 1 14.1593 17.3057 14.1599 -8.94097
571 1 15.7315 15.7303 12.5838 -8.94989
572 1 17.3001 17.2992 14.1541 -8.94973
573 1 18.8707 15.7248 12.5797 -8.95164
574 1 20.4418 17.2973 14.1525 -8.95055
575 1 -0.000721343 18.87 12.5799 -8.94936
576 1 1.57129 20.4423 14.1525 -8.9494
577 1 3.14192 18.8715 12.5808 -8.94882
578 1 4.71495 20.4441 14.1537 -8.94998
579 1 6.28531 18.8767 12.5828 -8.95169
580 1 7.86066 20.4453 14.1543 -8.95048
581 1 9.43344 18.8784 12.5833 -8.95477
582 1 11.0075 20.4448 14.1543 -8.94931
583 1 12.5807 18.8759 12.5818 -8.95557
584 1 14.1534 20.444 14.1534 -8.951
585 1 15.7261 18.8718 12.5802 -8.95004
586 1 17.2978 20.4425 14.1524 -8.94983
587 1 18.87 18.8701 12.5798 -8.94918
588 1 20.4416 20.442 14.1522 -8.94947
589 1 1.57185 11.007 17.2974 -8.94948
590 1 4.71578 11.0069 17.2983 -8.94901
672 1 20.4418 17.2969 20.4413 -8.94948
671 1 18.8698 15.7246 18.8693 -8.94935
670 1 17.2975 17.2974 20.4411 -8.94982
594 1 17.2986 11.0074 17.2983 -8.94902
595 1 20.4422 11.0071 17.2974 -8.94948
596 1 -7.73937e-05 12.5795 15.725 -8.94955
597 1 1.57182 14.1519 17.2974 -8.94933
598 1 3.14322 12.5794 15.7257 -8.94901
599 1 4.71596 14.1518 17.2983 -8.94892
600 1 6.28719 12.5792 15.7275 -8.946
601 1 7.86175 14.1515 17.2998 -8.95355
602 1 9.43589 12.5779 15.7231 -8.94687
603 1 11.007 14.1519 17.2984 -8.95029
604 1 12.5797 12.579 15.724 -8.94867
605 1 14.1526 14.1521 17.2985 -8.95147
606 1 15.7277 12.5811 15.7272 -8.94522
607 1 17.2981 14.1525 17.2978 -8.94868
608 1 18.8707 12.58 15.7254 -8.94928
609 1 20.442 14.1521 17.2972 -8.94938
610 1 22.0136 15.7244 15.7249 -8.94968
611 1 1.57162 17.297 17.2975 -8.94982
612 1 3.14283 15.7247 15.726 -8.95002
613 1 4.71515 17.2982 17.2995 -8.95004
614 1 6.28555 15.7276 15.7313 -8.95176
615 1 7.86077 17.2988 17.3007 -8.95023
616 1 9.43352 15.7282 15.7325 -8.95368
617 1 11.0073 17.2989 17.3002 -8.94914
618 1 12.5808 15.7272 15.7303 -8.95428
619 1 14.1533 17.2983 17.2996 -8.95049
620 1 15.7272 15.7266 15.7276 -8.949
621 1 17.2981 17.2977 17.298 -8.94954
622 1 18.8703 15.7247 15.725 -8.94976
623 1 20.4418 17.297 17.2971 -8.94968
624 1 22.0133 18.8698 15.725 -8.94984
625 1 1.57144 20.4422 17.2976 -8.94896
626 1 3.14182 18.8714 15.7269 -8.94757
627 1 4.71583 20.4428 17.2983 -8.94884
628 1 6.28625 18.8732 15.7287 -8.94681
629 1 7.86147 20.4427 17.2984 -8.94924
630 1 9.43389 18.8726 15.728 -8.94827
631 1 11.0072 20.4426 17.2983 -8.94943
632 1 12.5808 18.8721 15.7274 -8.94798
633 1 14.1527 20.4424 17.2981 -8.94921
634 1 15.7273 18.8722 15.7273 -8.94725
635 1 17.2979 20.4423 17.2979 -8.94889
636 1 18.8704 18.8701 15.7253 -8.94956
637 1 20.4418 20.4419 17.2972 -8.94946
669 1 15.7251 15.7248 18.8697 -8.95032
639 1 4.71645 11.0068 20.4416 -8.94955
668 1 14.1522 17.2974 20.4417 -8.94988
667 1 12.5796 15.7248 18.8705 -8.95061
666 1 11.0071 17.2976 20.4419 -8.94982
643 1 17.2979 11.007 20.4412 -8.94947
665 1 9.43443 15.7249 18.871 -8.95097
645 1 22.0139 12.5795 18.8694 -8.94951
646 1 1.57208 14.1519 20.4414 -8.94949
647 1 3.14406 12.5794 18.8696 -8.94948
648 1 4.71649 14.1518 20.4414 -8.94951
649 1 6.28871 12.5793 18.8702 -8.94945
650 1 7.86187 14.1517 20.4413 -8.95083
651 1 9.43455 12.5792 18.8694 -8.94809
652 1 11.0069 14.152 20.4412 -8.94955
653 1 12.5795 12.5795 18.8692 -8.94881
654 1 14.1523 14.1522 20.4406 -8.95057
655 1 15.7256 12.58 18.8699 -8.94935
656 1 17.2977 14.1523 20.441 -8.94936
657 1 18.87 12.5797 18.8695 -8.94945
658 1 20.4419 14.152 20.4413 -8.94948
659 1 22.0139 15.7244 18.8693 -8.94945
660 1 1.57206 17.2968 20.4414 -8.9496
661 1 3.14412 15.7243 18.8696 -8.94948
662 1 4.71643 17.2973 20.4413 -8.95033
663 1 6.28891 15.7246 18.8706 -8.95109
664 1 7.86176 17.2974 20.4419 -8.94997
381 1 3.14389 18.87 22.0129 -8.94943
201 1 6.28836 22.0151 12.5802 -8.95066
355 1 6.28888 12.5791 22.0127 -8.94969
357 1 9.43462 12.5792 22.0129 -8.94909
359 1 12.5795 12.5796 22.0115 -8.95095
365 1 22.014 15.7244 22.0134 -8.94947
367 1 3.1441 15.7244 22.013 -8.94958
369 1 6.28882 15.7249 22.0118 -8.95134
371 1 9.43446 15.7251 22.0127 -8.94977
373 1 12.5794 15.7251 22.0127 -8.94956
375 1 15.7255 15.7255 22.0117 -8.95044
246 1 -0.00030659 22.0141 15.7246 -8.94952
379 1 22.0138 18.8695 22.0134 -8.94954
363 1 18.8702 12.5796 22.0129 -8.94942
