ITEM: TIMESTEP
108
ITEM: NUMBER OF ATOMS
688
ITEM: BOX BOUNDS pp pp pp
0.0000000000000000e+00 2.2013900999999997e+01
0.0000000000000000e+00 2.2013900999999997e+01
0.0000000000000000e+00 2.2013900999999997e+01
ITEM: ATOMS id type x y z c_pot
7 1 9.43449 0.000215352 -0.000184875 -8.94951
2 1 1.57188 1.57238 1.57187 -8.94921
448 1 20.4439 11.0067 7.86202 -8.95096
4 1 4.71685 1.57228 1.57184 -8.9497
447 1 17.3063 11.0052 7.85943 -8.95922
6 1 7.86194 1.57222 1.57186 -8.94943
175 1 18.8715 9.43339 9.43475 -8.94803
8 1 11.007 1.57214 1.57185 -8.9495
174 1 15.7275 9.43143 9.43451 -8.94188
10 1 14.1521 1.57205 1.57192 -8.94945
446 1 14.1918 10.9752 7.81613 -8.88566
12 1 17.2971 1.57197 1.57196 -8.9496
445 1 11.0834 11.0124 7.64447 -8.08881
14 1 20.4417 1.57228 1.57209 -8.94947
444 1 7.86411 10.9858 7.84703 -8.86711
16 1 1.57205 4.71678 1.57174 -8.94953
443 1 4.71744 11.0073 7.86179 -8.94869
18 1 4.71622 4.71622 1.57114 -8.94956
442 1 1.57223 11.0069 7.86194 -8.94882
20 1 7.86165 4.71625 1.57146 -8.94918
149 1 3.14351 0.00067224 9.43446 -8.94941
22 1 11.0069 4.71598 1.57135 -8.94952
154 1 18.8696 0.000276804 9.43447 -8.9495
24 1 14.1524 4.71575 1.5712 -8.9495
188 1 17.2986 4.7151 11.0067 -8.94868
26 1 17.2982 4.71551 1.57109 -8.94851
183 1 1.57098 4.71616 11.0071 -8.9494
28 1 20.4422 4.71648 1.57168 -8.94916
397 1 14.1644 11.0047 4.69905 -8.95178
30 1 1.57215 7.86173 1.57171 -8.94935
396 1 11.0122 11.0085 4.72176 -8.99943
32 1 4.71644 7.86161 1.57123 -8.94976
395 1 7.86235 11.0057 4.71354 -8.95108
34 1 7.86175 7.86149 1.57078 -8.95164
35 1 9.43405 6.28864 -0.000362553 -8.94947
36 1 11.0067 7.86047 1.56981 -8.95001
37 1 12.5795 6.28848 -0.000592704 -8.94958
38 1 14.1534 7.86008 1.5685 -8.9515
181 1 17.2976 1.57194 11.0069 -8.94949
40 1 17.2989 7.86043 1.56983 -8.94936
346 1 7.86186 11.0068 1.57095 -8.9498
42 1 20.4424 7.86151 1.57146 -8.94936
164 1 6.28178 6.28101 9.43382 -8.9419
44 1 3.14424 9.43425 -0.000504962 -8.94939
350 1 20.4424 11.0068 1.57135 -8.94942
348 1 14.1543 11.0068 1.56666 -8.9514
347 1 11.0071 11.0068 1.57122 -8.94542
48 1 15.7257 9.43392 -0.00193861 -8.94993
163 1 3.14129 6.28749 9.43414 -8.94915
344 1 1.57201 11.0067 1.57151 -8.94946
51 1 1.57174 1.57234 4.71675 -8.94945
52 1 3.14378 0.000806538 3.14372 -8.94935
53 1 4.71613 1.57218 4.71603 -8.9501
54 1 6.28942 0.000596481 3.14392 -8.94973
55 1 7.86202 1.57204 4.71633 -8.94972
173 1 12.5736 9.44849 9.42894 -8.90435
57 1 11.0072 1.57185 4.71629 -8.94973
172 1 9.38795 9.29211 9.44625 -8.26127
59 1 14.1522 1.57158 4.71662 -8.95032
60 1 15.7246 0.000214105 3.14428 -8.95006
61 1 17.2972 1.57221 4.71686 -8.95006
62 1 18.8695 0.000447059 3.14434 -8.9496
63 1 20.4416 1.5723 4.71699 -8.94948
64 1 22.0137 3.14444 3.14438 -8.94962
65 1 1.57133 4.71641 4.71641 -8.94973
66 1 3.14363 3.14398 3.14361 -8.94888
67 1 4.71417 4.71415 4.71419 -8.94721
68 1 6.28909 3.14385 3.1437 -8.94983
69 1 7.86131 4.71452 4.71537 -8.95002
70 1 9.43437 3.14373 3.14374 -8.94933
71 1 11.0072 4.71424 4.71498 -8.94857
72 1 12.5797 3.1435 3.14372 -8.94927
73 1 14.154 4.71279 4.71476 -8.95042
74 1 15.7253 3.14309 3.14372 -8.94965
75 1 17.2984 4.71499 4.7161 -8.95051
76 1 18.8698 3.14402 3.14426 -8.9498
77 1 20.4419 4.71648 4.71683 -8.94981
78 1 22.0143 6.28897 3.14403 -8.94982
79 1 1.57176 7.86154 4.71643 -8.95031
80 1 3.14349 6.28865 3.14339 -8.94953
81 1 4.71391 7.85972 4.7143 -8.94897
82 1 6.28742 6.28718 3.14141 -8.94974
83 1 7.85764 7.85601 4.7099 -8.94997
84 1 9.43394 6.28736 3.1424 -8.94764
85 1 11.0079 7.85673 4.70977 -8.94618
86 1 12.5803 6.28673 3.14147 -8.94862
87 1 14.1639 7.84958 4.70407 -8.93235
88 1 15.7284 6.28493 3.14032 -8.94534
89 1 17.3043 7.85634 4.71153 -8.94596
90 1 18.8717 6.28747 3.14276 -8.94833
91 1 20.4436 7.86087 4.71606 -8.95044
92 1 0.00041578 9.43402 3.14379 -8.94936
93 1 3.14368 9.43382 3.14339 -8.94868
94 1 6.28865 9.43369 3.14239 -8.94994
95 1 9.43573 9.434 3.14281 -8.95252
96 1 12.5816 9.43264 3.1361 -8.95862
97 1 15.7295 9.43139 3.13765 -8.94902
98 1 18.8719 9.43339 3.14252 -8.94895
99 1 22.0136 0.000305784 6.28943 -8.94948
100 1 1.57163 1.57227 7.86186 -8.94946
166 1 12.5774 6.29191 9.43561 -8.94425
102 1 4.71576 1.572 7.86142 -8.94933
103 1 6.28868 0.00171702 6.28848 -8.95116
104 1 7.86166 1.57172 7.86151 -8.95134
105 1 9.43495 0.000741125 6.28889 -8.94989
106 1 11.0073 1.57192 7.86169 -8.94881
107 1 12.5796 0.00024141 6.28924 -8.94989
108 1 14.1522 1.57218 7.86189 -8.94989
109 1 15.7249 0.000843841 6.28923 -8.95032
110 1 17.2974 1.57208 7.86179 -8.94947
165 1 9.43357 6.28202 9.43659 -8.98362
112 1 20.4416 1.57224 7.86195 -8.94951
113 1 -0.000322539 3.14435 6.28935 -8.94941
114 1 1.5711 4.71622 7.86164 -8.94931
115 1 3.14342 3.14388 6.28884 -8.94921
116 1 4.71406 4.71423 7.86068 -8.94797
117 1 6.28807 3.14228 6.28806 -8.95101
118 1 7.85966 4.71045 7.8608 -8.95563
119 1 9.4348 3.14284 6.28871 -8.95026
120 1 11.0076 4.71558 7.86153 -8.9475
121 1 12.5798 3.14266 6.28894 -8.95147
122 1 14.1523 4.71522 7.86253 -8.95156
123 1 15.7249 3.14355 6.28944 -8.95051
124 1 17.2983 4.71532 7.86158 -8.94841
125 1 18.8697 3.1441 6.28937 -8.94929
126 1 20.4419 4.71635 7.86185 -8.94942
127 1 22.0137 6.28896 6.2893 -8.94988
128 1 1.57094 7.86151 7.86188 -8.95062
129 1 3.14191 6.28799 6.28823 -8.95049
130 1 4.71108 7.8591 7.86066 -8.95431
131 1 6.28157 6.28063 6.28207 -8.94089
132 1 7.8395 7.83553 7.84506 -8.91051
133 1 9.43498 6.28326 6.28737 -8.95244
134 1 11.0173 7.86199 7.84964 -8.9222
135 1 12.5833 6.28076 6.28481 -8.95525
136 1 14.1574 7.85468 7.86139 -8.96004
137 1 15.7278 6.2849 6.28777 -8.95286
138 1 17.3003 7.85962 7.86197 -8.94909
139 1 18.8708 6.2882 6.28925 -8.94978
140 1 20.4426 7.86126 7.86206 -8.94956
141 1 22.0147 9.43414 6.28923 -8.95056
142 1 3.14297 9.43424 6.28887 -8.95147
143 1 6.28276 9.42929 6.28375 -8.94608
144 1 9.42563 9.41415 6.28045 -8.90139
145 1 12.6158 9.40189 6.25271 -8.86239
146 1 15.7446 9.42103 6.27439 -8.94007
147 1 18.8748 9.43263 6.28771 -8.95304
171 1 6.28465 9.42967 9.43552 -8.96018
170 1 3.14306 9.43442 9.43449 -8.95031
169 1 22.0141 9.43428 9.43463 -8.94956
151 1 9.43476 0.000971655 9.43416 -8.94925
152 1 12.5798 0.000498698 9.43418 -8.94881
168 1 18.871 6.28798 9.43429 -8.9493
167 1 15.728 6.28518 9.43351 -8.94425
155 1 22.0136 3.14427 9.43445 -8.94949
156 1 3.14319 3.14372 9.43431 -8.94943
157 1 6.28718 3.14157 9.43401 -8.94931
158 1 9.43452 3.14239 9.43424 -8.94993
159 1 12.5796 3.14419 9.43421 -8.94735
160 1 15.7255 3.14315 9.43403 -8.94957
161 1 18.8699 3.14399 9.43435 -8.94947
162 1 -0.000441283 6.28876 9.43443 -8.94982
177 1 4.71564 1.5718 11.0072 -8.94937
184 1 4.71352 4.71377 11.0076 -8.94826
41 1 18.8701 6.28893 -0.000682692 -8.94947
19 1 6.28933 3.14437 -0.000162274 -8.94947
25 1 15.7247 3.14411 -0.000183117 -8.94956
176 1 1.57161 1.57223 11.0071 -8.94947
199 1 3.14356 0.000561991 12.5799 -8.94927
178 1 7.86135 1.57112 11.0069 -8.95146
179 1 11.0073 1.57145 11.0067 -8.94925
180 1 14.1526 1.57168 11.0065 -8.94989
644 1 20.442 11.0069 20.4414 -8.94951
182 1 20.4417 1.57221 11.007 -8.94951
642 1 14.1526 11.0072 20.4411 -8.9505
209 1 18.8696 0.000199855 12.5795 -8.94943
185 1 7.85825 4.70801 11.008 -8.95483
186 1 11.0078 4.71259 11.0081 -8.94737
187 1 14.1537 4.71341 11.0058 -8.95022
641 1 11.0068 11.0071 20.4416 -8.94826
189 1 20.442 4.71632 11.007 -8.94949
190 1 1.57046 7.86144 11.0071 -8.95097
191 1 4.70901 7.85813 11.008 -8.95371
192 1 7.834 7.83011 11.0264 -8.89628
193 1 11.019 7.85425 11.0351 -8.96842
194 1 14.1599 7.85206 11.004 -8.95096
195 1 17.3011 7.85923 11.0064 -8.94807
196 1 20.4427 7.86126 11.007 -8.94977
197 1 22.0136 0.000235515 12.5796 -8.94948
198 1 1.57165 1.5722 14.1522 -8.94944
343 1 18.87 9.4345 18.8696 -8.94936
200 1 4.71574 1.57166 14.1529 -8.94983
342 1 15.7257 9.43444 18.8707 -8.9497
202 1 7.86133 1.57122 14.1531 -8.95065
203 1 9.43457 0.00129993 12.5801 -8.95146
204 1 11.0073 1.57097 14.1533 -8.95013
205 1 12.58 0.000703468 12.5798 -8.95134
206 1 14.153 1.5707 14.1528 -8.95116
341 1 12.5798 9.43414 18.8725 -8.95344
208 1 17.2976 1.57183 14.1521 -8.94973
340 1 9.43429 9.4343 18.8718 -8.95183
210 1 20.4417 1.5722 14.152 -8.94947
211 1 -0.000336335 3.14428 12.5796 -8.94945
212 1 1.57097 4.71624 14.1526 -8.94965
213 1 3.14315 3.14364 12.58 -8.94924
214 1 4.71289 4.71318 14.1552 -8.94679
215 1 6.28726 3.1411 12.5808 -8.95049
216 1 7.85873 4.70978 14.1561 -8.95166
217 1 9.43439 3.14021 12.5806 -8.95248
218 1 11.0074 4.70974 14.1567 -8.9477
219 1 12.5804 3.13996 12.5803 -8.95382
220 1 14.1568 4.70819 14.1566 -8.95159
221 1 15.7256 3.14275 12.5793 -8.94978
222 1 17.2993 4.71464 14.1529 -8.95029
223 1 18.8699 3.14399 12.5795 -8.94929
224 1 20.4421 4.71644 14.1522 -8.94972
225 1 22.0135 6.28893 12.5797 -8.94996
226 1 1.57094 7.86178 14.1525 -8.95107
227 1 3.14084 6.28761 12.5807 -8.95023
228 1 4.71026 7.85883 14.1559 -8.95175
229 1 6.27853 6.27801 12.5876 -8.93853
230 1 7.84221 7.8409 14.1744 -8.92365
231 1 9.43153 6.27187 12.5867 -8.96061
232 1 11.0077 7.8463 14.1692 -8.94366
233 1 12.5873 6.26913 12.5889 -8.96162
234 1 14.1786 7.83538 14.1785 -8.90086
235 1 15.7298 6.28392 12.5804 -8.95104
236 1 17.3059 7.85731 14.1567 -8.95127
237 1 18.8713 6.28821 12.5796 -8.94947
238 1 20.4435 7.86146 14.1526 -8.95132
239 1 22.0141 9.4346 12.5796 -8.95082
240 1 3.14164 9.43485 12.5797 -8.95354
241 1 6.27511 9.429 12.5858 -8.96073
242 1 9.37788 9.3714 12.6306 -8.78753
243 1 12.6563 9.35977 12.6524 -8.7213
244 1 15.745 9.42542 12.5886 -8.96196
245 1 18.8737 9.43404 12.58 -8.95479
47 1 12.5795 9.4342 22.0123 -8.95156
247 1 1.57178 1.57221 17.2973 -8.94931
46 1 9.43442 9.4344 22.0136 -8.94983
249 1 4.71625 1.57194 17.2978 -8.9495
250 1 6.28857 0.000763391 15.7257 -8.94983
251 1 7.86159 1.57186 17.2979 -8.94927
339 1 6.28881 9.43461 18.8704 -8.94952
253 1 11.007 1.57175 17.298 -8.94941
338 1 3.14412 9.43445 18.8696 -8.94934
255 1 14.1525 1.57166 17.2979 -8.9493
256 1 15.7254 0.000243709 15.7254 -8.9501
257 1 17.2978 1.57161 17.2977 -8.94935
45 1 6.28913 9.43436 22.0134 -8.94974
259 1 20.4418 1.57216 17.297 -8.94959
260 1 22.0136 3.14433 15.7247 -8.94958
261 1 1.57163 4.71657 17.2976 -8.94964
262 1 3.14319 3.1436 15.7256 -8.94884
263 1 4.71466 4.71495 17.2996 -8.94759
264 1 6.28782 3.14229 15.7265 -8.94997
265 1 7.86077 4.71488 17.2995 -8.94883
266 1 9.43394 3.14215 15.7265 -8.94903
267 1 11.0069 4.71456 17.2996 -8.94907
268 1 12.5802 3.1419 15.7265 -8.94901
269 1 14.1534 4.71439 17.2997 -8.94912
270 1 15.7266 3.14159 15.7264 -8.94966
271 1 17.2997 4.71439 17.2995 -8.94637
272 1 18.8701 3.14383 15.7249 -8.94982
273 1 20.4425 4.71638 17.2975 -8.94943
274 1 22.014 6.2891 15.725 -8.95032
275 1 1.57188 7.862 17.2973 -8.94948
276 1 3.14205 6.28818 15.7263 -8.95003
277 1 4.71554 7.8617 17.2986 -8.95002
278 1 6.28231 6.28253 15.7326 -8.94255
279 1 7.8595 7.85953 17.303 -8.95326
280 1 9.4325 6.28322 15.731 -8.94604
281 1 11.0068 7.85847 17.3033 -8.94931
282 1 12.582 6.2826 15.7319 -8.94714
283 1 14.1557 7.85838 17.3046 -8.953
284 1 15.7335 6.28074 15.7332 -8.93736
285 1 17.2992 7.86116 17.2991 -8.94999
286 1 18.8725 6.28757 15.7264 -8.94956
287 1 20.4423 7.86193 17.2974 -8.94958
288 1 8.19425e-05 9.43453 15.725 -8.94951
289 1 3.14318 9.43451 15.7255 -8.94892
290 1 6.28669 9.43426 15.7279 -8.94983
291 1 9.43215 9.42966 15.7359 -8.96097
292 1 12.5847 9.42862 15.7412 -8.96525
293 1 15.7295 9.43361 15.7298 -8.94981
294 1 18.8713 9.43458 15.7256 -8.94943
295 1 22.0137 0.000157848 18.8694 -8.94917
296 1 1.5721 1.57226 20.4416 -8.94917
297 1 3.14421 0.000212908 18.8697 -8.94931
298 1 4.7169 1.57225 20.4418 -8.94953
301 1 9.43441 0.000191636 18.8699 -8.94947
300 1 7.86188 1.57219 20.4418 -8.94948
337 1 22.014 9.43447 18.8694 -8.94949
302 1 11.007 1.57214 20.4418 -8.94951
336 1 20.442 7.8619 20.4414 -8.94947
304 1 14.152 1.57212 20.4418 -8.94948
39 1 15.7254 6.28834 22.013 -8.95017
306 1 17.2971 1.5721 20.4418 -8.94954
307 1 18.8696 4.6309e-05 18.8696 -8.94921
308 1 20.4418 1.57223 20.4416 -8.94904
309 1 22.0139 3.14445 18.8695 -8.94937
310 1 1.57217 4.71703 20.4416 -8.94967
311 1 3.14395 3.14414 18.87 -8.94897
312 1 4.71646 4.71659 20.4421 -8.94984
313 1 6.28901 3.14403 18.8701 -8.94941
314 1 7.86158 4.71638 20.4422 -8.94936
315 1 9.43424 3.14386 18.8702 -8.94935
316 1 11.0068 4.7162 20.4422 -8.94949
317 1 12.5796 3.1438 18.8702 -8.94934
318 1 14.1523 4.71618 20.4421 -8.94944
319 1 15.725 3.14377 18.8702 -8.94947
320 1 17.2977 4.71619 20.442 -8.94948
321 1 18.8701 3.14396 18.8699 -8.94865
322 1 20.442 4.71688 20.4416 -8.94954
323 1 22.014 6.2895 18.8694 -8.9496
324 1 1.57217 7.86196 20.4415 -8.94945
325 1 3.14406 6.28938 18.8698 -8.94982
326 1 4.71662 7.86196 20.4418 -8.94967
327 1 6.28817 6.2884 18.8716 -8.95049
328 1 7.86156 7.8617 20.4426 -8.9508
329 1 9.43384 6.288 18.8717 -8.94923
330 1 11.0067 7.86118 20.4426 -8.9504
331 1 12.5799 6.28787 18.8718 -8.94939
332 1 14.1526 7.86127 20.4424 -8.95123
333 1 15.7263 6.28775 18.8719 -8.95012
334 1 17.2978 7.86159 20.4415 -8.94965
335 1 18.8702 6.28907 18.8698 -8.94973
512 1 1.57211 11.0072 11.0069 -8.94809
513 1 4.71834 11.0084 11.0056 -8.94686
514 1 7.86824 10.9903 11.0194 -8.88333
515 1 11.0578 10.8016 11.3121 -7.30593
516 1 14.1611 10.9839 11.0296 -8.92035
517 1 17.2994 11.0068 11.0061 -8.95127
518 1 20.4425 11.0071 11.0069 -8.9491
540 1 1.57133 11.007 14.1528 -8.94945
541 1 4.71408 11.0071 14.1542 -8.94601
542 1 7.85954 11.008 14.1569 -8.94681
543 1 11.0104 10.9939 14.1505 -9.01924
544 1 14.1602 11.0095 14.1621 -8.94776
545 1 17.3008 11.008 14.154 -8.94825
546 1 20.4426 11.0072 14.1526 -8.94969
591 1 7.8612 11.0074 17.2988 -8.94932
592 1 11.0073 11.0069 17.2981 -8.94669
593 1 14.1541 11.0079 17.3003 -8.94998
638 1 1.57211 11.0069 20.4415 -8.94952
640 1 7.86165 11.007 20.4417 -8.94962
3 1 3.14444 0.000264768 22.0136 -8.94959
5 1 6.28947 0.000224345 22.0137 -8.94947
11 1 15.7245 0.000117084 22.0138 -8.94948
13 1 18.8694 0.000139312 22.0137 -8.94947
15 1 22.0139 3.14458 22.0136 -8.94934
17 1 3.14431 3.14439 22.0136 -8.94947
303 1 12.5796 0.000150884 18.8698 -8.94946
33 1 6.28904 6.28908 22.0135 -8.95054
27 1 18.8697 3.14419 22.0137 -8.94919
29 1 22.0141 6.28941 22.0136 -8.94949
31 1 3.14437 6.28939 22.0135 -8.94968
1 1 22.0137 0.000192271 22.0136 -8.94904
21 1 9.43435 3.14422 22.0137 -8.9495
9 1 12.5795 0.000183565 22.0137 -8.94951
23 1 12.5795 3.14415 22.0137 -8.94949
43 1 22.014 9.43433 22.0135 -8.94949
49 1 18.8701 9.43419 22.013 -8.94938
687 3 10.9622 12.4661 10.1716 2.22431
345 1 4.71612 11.0064 1.57078 -8.94928
511 1 18.8701 18.8703 9.43462 -8.94952
510 1 15.7265 18.8721 9.43424 -8.94857
509 1 12.5799 18.8707 9.43393 -8.9475
349 1 17.299 11.0066 1.56962 -8.94919
508 1 9.43338 18.8737 9.43372 -8.94737
351 1 22.014 12.5794 -0.000485069 -8.94951
352 1 1.57191 14.1518 1.57143 -8.94936
353 1 3.14414 12.5792 -0.00066381 -8.94948
354 1 4.71593 14.1517 1.57018 -8.94943
538 1 17.2977 20.4426 11.0071 -8.94933
356 1 7.86148 14.1523 1.56782 -8.95479
153 1 15.7252 22.0145 9.43425 -8.94973
358 1 11.0067 14.1529 1.56995 -8.94803
150 1 6.28818 22.0154 9.43422 -8.95013
360 1 14.1538 14.1537 1.5667 -8.95304
361 1 15.7258 12.5798 -0.00228623 -8.94966
362 1 17.299 14.1529 1.5696 -8.94895
111 1 18.8696 22.0143 6.2894 -8.94945
364 1 20.4423 14.1521 1.57134 -8.94938
537 1 14.1528 20.4435 11.0067 -8.95026
366 1 1.57164 17.2972 1.57127 -8.94973
148 1 -0.000339385 22.0142 9.43452 -8.94951
368 1 4.71509 17.2988 1.56894 -8.94956
58 1 12.5797 22.0142 3.14403 -8.94947
370 1 7.86189 17.2981 1.57014 -8.94947
56 1 9.43462 22.0144 3.14392 -8.94949
372 1 11.0072 17.2983 1.57052 -8.9493
536 1 11.0072 20.4439 11.007 -8.94993
374 1 14.1522 17.2981 1.5707 -8.94978
534 1 4.71497 20.4442 11.0075 -8.94903
376 1 17.2987 17.2989 1.56978 -8.94833
493 1 6.29095 12.5924 9.43111 -9.01924
378 1 20.4422 17.2974 1.57143 -8.94947
492 1 3.14343 12.5795 9.43422 -8.94669
380 1 1.57158 20.4424 1.57141 -8.94865
491 1 22.0138 12.5792 9.43467 -8.94826
382 1 4.71663 20.4425 1.57135 -8.94982
490 1 20.4416 20.4422 7.86199 -8.94949
384 1 7.86201 20.4423 1.57157 -8.94929
385 1 9.43449 18.87 -0.000489162 -8.94949
386 1 11.0071 20.4423 1.57162 -8.94947
387 1 12.5796 18.87 -0.000422394 -8.94942
388 1 14.1521 20.4422 1.57179 -8.94929
489 1 18.8703 18.8706 6.28907 -8.9495
390 1 17.2972 20.4423 1.5717 -8.9498
488 1 17.2978 20.4428 7.86178 -8.94927
392 1 20.4417 20.4421 1.57176 -8.94919
507 1 6.28474 18.8766 9.43412 -8.9477
506 1 3.14184 18.8718 9.43457 -8.94907
505 1 22.0132 18.8701 9.43464 -8.94949
504 1 18.8717 15.7259 9.43478 -8.95001
503 1 15.7317 15.7296 9.43361 -8.94618
502 1 12.5918 15.7243 9.42422 -8.9222
501 1 9.40641 15.7321 9.42248 -8.96843
400 1 0.000273264 12.5793 3.14366 -8.94947
401 1 1.57078 14.1519 4.71577 -8.9497
402 1 3.14324 12.5789 3.1429 -8.94902
403 1 4.71167 14.1527 4.71193 -8.94981
404 1 6.28746 12.5783 3.1407 -8.94825
405 1 7.85291 14.1609 4.69651 -8.96196
406 1 9.43542 12.5795 3.14208 -8.95127
407 1 11.007 14.1549 4.71396 -8.94188
408 1 12.5821 12.5811 3.13522 -8.95922
409 1 14.1671 14.1653 4.69692 -8.94007
410 1 15.7299 12.5807 3.13751 -8.94731
411 1 17.3038 14.1549 4.71196 -8.94902
412 1 18.8719 12.5797 3.14245 -8.94919
413 1 20.4434 14.1524 4.71581 -8.94993
414 1 22.0139 15.7247 3.1437 -8.94965
415 1 1.56958 17.2986 4.71522 -8.95012
416 1 3.14243 15.7252 3.14225 -8.94999
417 1 4.70825 17.3056 4.70801 -8.93736
418 1 6.28477 15.729 3.13561 -8.95127
419 1 7.86106 17.3024 4.71169 -8.95104
420 1 9.43509 15.7271 3.14041 -8.94807
421 1 11.008 17.3011 4.71347 -8.94425
422 1 12.5795 15.7267 3.14119 -8.94909
423 1 14.1537 17.3014 4.71372 -8.95286
424 1 15.73 15.73 3.13718 -8.94596
425 1 17.3012 17.3014 4.71307 -8.94534
426 1 18.8717 15.7259 3.14259 -8.94936
427 1 20.4424 17.298 4.71611 -8.95017
428 1 22.0133 18.8701 3.14375 -8.94948
429 1 1.57132 20.4426 4.71646 -8.94947
430 1 3.14196 18.8719 3.14177 -8.94637
431 1 4.71504 20.4447 4.71487 -8.94966
432 1 6.28862 18.8717 3.14214 -8.95029
433 1 7.8622 20.4436 4.71584 -8.94978
434 1 9.43475 18.8712 3.14284 -8.94868
435 1 11.0075 20.4432 4.71594 -8.94957
436 1 12.5799 18.871 3.14322 -8.94841
437 1 14.152 20.4428 4.71658 -8.95051
438 1 15.7254 18.8713 3.1431 -8.95051
439 1 17.2978 20.4432 4.71623 -8.94965
440 1 18.8704 18.8708 3.14331 -8.94851
441 1 20.4417 20.4422 4.71681 -8.94956
500 1 6.27228 15.74 9.43378 -8.94366
499 1 3.13817 15.7279 9.43464 -8.94931
498 1 -0.00112161 15.7251 9.43477 -8.9504
497 1 18.8703 12.5796 9.43437 -8.94542
496 1 15.7197 12.5778 9.42928 -8.99943
495 1 12.797 12.5739 9.35808 -8.08879
494 1 9.1293 12.7848 9.38368 -7.30609
449 1 22.0143 12.5792 6.28886 -8.9505
450 1 1.56894 14.1522 7.86169 -8.95344
451 1 3.14114 12.5784 6.28742 -8.94998
452 1 4.70033 14.1577 7.8568 -8.96525
453 1 6.27937 12.5769 6.28128 -8.94776
454 1 7.78913 14.2266 7.78514 -8.72124
455 1 9.41184 12.6024 6.28039 -8.92035
456 1 11.0125 14.1378 7.86787 -8.90436
457 1 12.6253 12.6112 6.24972 -8.88565
458 1 14.1888 14.1844 7.82573 -8.86239
459 1 15.7424 12.5816 6.27711 -8.95178
460 1 17.3054 14.1537 7.85988 -8.95862
461 1 18.8748 12.5795 6.28723 -8.9514
462 1 20.443 14.1521 7.86199 -8.95156
463 1 22.0129 15.7251 6.28891 -8.95123
464 1 1.56966 17.2985 7.8616 -8.94939
465 1 3.13686 15.7279 6.28573 -8.953
466 1 4.70961 17.3037 7.85947 -8.94714
467 1 6.26293 15.7509 6.26283 -8.90086
468 1 7.85256 17.3172 7.85415 -8.96162
469 1 9.4375 15.7343 6.28163 -8.95096
470 1 11.0059 17.2944 7.86411 -8.94425
471 1 12.5801 15.7316 6.2841 -8.96004
472 1 14.1567 17.3056 7.85819 -8.95525
473 1 15.7374 15.7367 6.27758 -8.93235
474 1 17.3 17.2996 7.86115 -8.94862
475 1 18.873 15.7262 6.28803 -8.9515
476 1 20.4421 17.2978 7.86195 -8.94958
477 1 -0.000669242 18.8701 6.28922 -8.94944
478 1 1.57126 20.4425 7.86186 -8.94934
479 1 3.14176 18.8719 6.28807 -8.94912
480 1 4.71496 20.4444 7.86124 -8.94901
481 1 6.28487 18.8781 6.28468 -8.95159
482 1 7.86116 20.4464 7.86107 -8.95382
483 1 9.43573 18.8729 6.28782 -8.95022
484 1 11.0073 20.4421 7.86184 -8.94735
485 1 12.5789 18.8711 6.28916 -8.95156
486 1 14.1525 20.4437 7.86165 -8.95147
487 1 15.7267 18.8735 6.28751 -8.95042
530 1 14.1541 17.3031 11.0065 -8.95244
531 1 17.2991 17.299 11.0075 -8.94764
399 1 20.4438 11.0065 4.71571 -8.94966
398 1 17.304 11.0056 4.7116 -8.94731
394 1 4.71425 11.0053 4.71383 -8.94522
393 1 1.57153 11.0064 4.71587 -8.94935
50 1 -0.00028424 22.0142 3.14441 -8.94954
688 3 10.2699 11.1201 9.47931 2.22432
101 1 3.14362 22.0147 6.28902 -8.9493
526 1 1.56983 17.2983 11.0076 -8.94923
527 1 4.71045 17.3031 11.009 -8.94604
532 1 20.4418 17.2977 11.0074 -8.94947
383 1 6.2893 18.8699 -0.000626188 -8.94972
377 1 18.87 15.7248 -0.000924379 -8.94936
686 1 20.4417 20.4417 20.4414 -8.94934
685 1 18.8697 18.8695 18.8694 -8.94953
684 1 17.2971 20.4419 20.4417 -8.94962
683 1 15.7251 18.8699 18.8701 -8.94973
682 1 14.1521 20.442 20.4418 -8.94941
681 1 12.5798 18.8701 18.8704 -8.94931
680 1 11.007 20.442 20.4418 -8.94949
519 1 1.56972 14.152 11.0072 -8.95183
520 1 4.70554 14.1567 11.0093 -8.96097
521 1 7.81087 14.2149 11.0636 -8.7875
522 1 10.9952 14.2942 11.0535 -8.26132
523 1 14.161 14.1722 11.0158 -8.9014
524 1 17.2987 14.1523 11.0058 -8.95252
525 1 20.4418 14.1519 11.0071 -8.94983
305 1 15.7247 22.014 18.8697 -8.94945
299 1 6.28924 22.0141 18.8698 -8.94944
528 1 7.85481 17.3144 11.0099 -8.96061
529 1 11.0049 17.3043 11.0079 -8.98362
391 1 18.8698 18.8698 22.0131 -8.94916
389 1 15.7246 18.8698 22.0135 -8.94981
258 1 18.8696 22.014 15.7246 -8.9497
533 1 1.57127 20.4425 11.0072 -8.94935
254 1 12.5801 22.0143 15.7257 -8.94933
535 1 7.86092 20.4461 11.0071 -8.95248
252 1 9.43429 22.0145 15.7258 -8.94937
248 1 3.14365 22.0144 15.7252 -8.9495
207 1 15.7252 22.0143 12.5795 -8.94972
539 1 20.4416 20.4421 11.0071 -8.9495
679 1 9.43435 18.8702 18.8705 -8.9494
678 1 7.86188 20.442 20.4418 -8.94945
677 1 6.28885 18.8701 18.8705 -8.94965
676 1 4.71678 20.442 20.4417 -8.94958
675 1 3.14389 18.8698 18.8698 -8.94964
674 1 1.57197 20.4419 20.4414 -8.94937
673 1 22.0138 18.8693 18.8693 -8.94967
547 1 22.0136 12.5793 12.5798 -8.94962
548 1 1.57109 14.1517 14.1527 -8.94952
549 1 3.14266 12.5789 12.5803 -8.94932
550 1 4.71353 14.1521 14.1548 -8.94983
551 1 6.28462 12.5783 12.5819 -8.94681
552 1 7.85568 14.1573 14.1664 -8.96073
553 1 9.42204 12.596 12.5732 -8.88332
554 1 11.006 14.1567 14.1568 -8.96018
555 1 12.5944 12.6006 12.5774 -8.8671
556 1 14.1577 14.157 14.1587 -8.94608
557 1 15.7279 12.5806 12.5791 -8.95108
558 1 17.2991 14.1526 14.1528 -8.94994
559 1 18.8705 12.5796 12.5796 -8.9498
560 1 20.442 14.152 14.1524 -8.94974
561 1 22.0128 15.7246 12.5799 -8.9508
562 1 1.56987 17.2979 14.1533 -8.95049
563 1 3.13847 15.7268 12.582 -8.95326
564 1 4.70888 17.3038 14.1592 -8.94255
565 1 6.26713 15.7454 12.5993 -8.92365
566 1 7.85386 17.3083 14.163 -8.93853
567 1 9.41506 15.7562 12.6075 -8.89627
568 1 11.0077 17.3053 14.1597 -8.9419
569 1 12.5964 15.7508 12.602 -8.91051
570 1 14.1594 17.3057 14.1599 -8.94089
571 1 15.7316 15.7303 12.5838 -8.94997
572 1 17.3001 17.2991 14.1541 -8.94974
573 1 18.8707 15.7248 12.5797 -8.95164
574 1 20.4418 17.2972 14.1524 -8.95054
575 1 -0.000679935 18.8699 12.5799 -8.94936
576 1 1.57135 20.4423 14.1525 -8.94941
577 1 3.14202 18.8714 12.5807 -8.94883
578 1 4.71502 20.444 14.1537 -8.94997
579 1 6.2854 18.8765 12.5827 -8.95166
580 1 7.8607 20.4452 14.1542 -8.95049
581 1 9.43349 18.8783 12.5832 -8.95483
582 1 11.0075 20.4448 14.1543 -8.94931
583 1 12.5807 18.8759 12.5818 -8.95563
584 1 14.1534 20.444 14.1534 -8.95101
585 1 15.7261 18.8718 12.5802 -8.95002
586 1 17.2978 20.4425 14.1524 -8.94983
587 1 18.87 18.8701 12.5798 -8.94918
588 1 20.4416 20.442 14.1521 -8.94947
589 1 1.57186 11.007 17.2974 -8.94949
590 1 4.71581 11.0069 17.2982 -8.94901
672 1 20.4418 17.2969 20.4413 -8.94949
671 1 18.8698 15.7246 18.8693 -8.94935
670 1 17.2974 17.2974 20.4411 -8.94982
594 1 17.2986 11.0074 17.2982 -8.94902
595 1 20.4421 11.0071 17.2973 -8.94948
596 1 -7.22932e-05 12.5795 15.725 -8.94956
597 1 1.57184 14.1519 17.2974 -8.94934
598 1 3.14325 12.5794 15.7257 -8.94901
599 1 4.716 14.1518 17.2983 -8.94892
600 1 6.28723 12.5792 15.7274 -8.94601
601 1 7.86176 14.1515 17.2998 -8.95354
602 1 9.43589 12.578 15.7231 -8.94686
603 1 11.007 14.1519 17.2984 -8.95031
604 1 12.5797 12.579 15.724 -8.94869
605 1 14.1526 14.1521 17.2985 -8.95147
606 1 15.7277 12.5811 15.7272 -8.94522
607 1 17.2981 14.1525 17.2978 -8.94868
608 1 18.8707 12.58 15.7254 -8.94928
609 1 20.442 14.1521 17.2972 -8.94939
610 1 22.0136 15.7244 15.7249 -8.94967
611 1 1.57165 17.2969 17.2974 -8.94982
612 1 3.14289 15.7246 15.7259 -8.95002
613 1 4.71521 17.2981 17.2994 -8.95003
614 1 6.28561 15.7275 15.7312 -8.95175
615 1 7.86078 17.2987 17.3006 -8.95023
616 1 9.43352 15.7282 15.7325 -8.95371
617 1 11.0073 17.2988 17.3002 -8.94915
618 1 12.5808 15.7272 15.7304 -8.95431
619 1 14.1533 17.2983 17.2996 -8.95049
620 1 15.7272 15.7266 15.7276 -8.94897
621 1 17.2981 17.2977 17.298 -8.94953
622 1 18.8703 15.7247 15.725 -8.94976
623 1 20.4418 17.2969 17.2971 -8.94968
624 1 22.0133 18.8697 15.725 -8.94984
625 1 1.57148 20.4422 17.2975 -8.94897
626 1 3.1419 18.8714 15.7268 -8.94759
627 1 4.71588 20.4427 17.2983 -8.94884
628 1 6.28629 18.8731 15.7286 -8.94679
629 1 7.86149 20.4427 17.2983 -8.94924
630 1 9.43389 18.8725 15.728 -8.94826
631 1 11.0072 20.4426 17.2983 -8.94943
632 1 12.5808 18.8721 15.7274 -8.94797
633 1 14.1526 20.4424 17.2981 -8.94921
634 1 15.7273 18.8722 15.7273 -8.94721
635 1 17.2979 20.4423 17.2979 -8.94888
636 1 18.8703 18.8701 15.7253 -8.94956
637 1 20.4417 20.4419 17.2972 -8.94947
669 1 15.725 15.7248 18.8697 -8.95031
639 1 4.71647 11.0068 20.4416 -8.94956
668 1 14.1522 17.2974 20.4417 -8.94988
667 1 12.5796 15.7248 18.8705 -8.95062
666 1 11.007 17.2976 20.4419 -8.94982
643 1 17.2978 11.007 20.4412 -8.94947
665 1 9.43442 15.7249 18.871 -8.95097
645 1 22.0139 12.5794 18.8694 -8.94952
646 1 1.57209 14.1519 20.4414 -8.94949
647 1 3.14409 12.5794 18.8696 -8.94949
648 1 4.71651 14.1518 20.4414 -8.94951
649 1 6.28872 12.5793 18.8702 -8.94945
650 1 7.86187 14.1517 20.4413 -8.95082
651 1 9.43454 12.5792 18.8694 -8.94809
652 1 11.0068 14.152 20.4413 -8.94956
653 1 12.5795 12.5795 18.8693 -8.94882
654 1 14.1523 14.1522 20.4407 -8.95056
655 1 15.7256 12.58 18.87 -8.94935
656 1 17.2977 14.1523 20.4411 -8.94936
657 1 18.87 12.5797 18.8695 -8.94946
658 1 20.4419 14.152 20.4413 -8.94949
659 1 22.0139 15.7244 18.8693 -8.94945
660 1 1.57208 17.2968 20.4414 -8.9496
661 1 3.14415 15.7243 18.8696 -8.94948
662 1 4.71646 17.2972 20.4413 -8.95032
663 1 6.28893 15.7245 18.8705 -8.95107
664 1 7.86176 17.2974 20.4419 -8.94996
381 1 3.14393 18.8699 22.0129 -8.94943
201 1 6.2884 22.0151 12.5801 -8.95065
355 1 6.28889 12.5791 22.0128 -8.94969
357 1 9.43461 12.5792 22.0129 -8.9491
359 1 12.5795 12.5796 22.0115 -8.95096
365 1 22.014 15.7244 22.0134 -8.94947
367 1 3.14412 15.7244 22.0131 -8.94958
369 1 6.28884 15.7249 22.0119 -8.95132
371 1 9.43446 15.7251 22.0127 -8.94977
373 1 12.5794 15.7251 22.0127 -8.94956
375 1 15.7254 15.7254 22.0117 -8.95044
246 1 -0.000285985 22.0141 15.7246 -8.94953
379 1 22.0138 18.8694 22.0134 -8.94954
363 1 18.8701 12.5795 22.013 -8.94942
