ITEM: TIMESTEP
109
ITEM: NUMBER OF ATOMS
688
ITEM: BOX BOUNDS pp pp pp
0.0000000000000000e+00 2.2013900999999997e+01
0.0000000000000000e+00 2.2013900999999997e+01
0.0000000000000000e+00 2.2013900999999997e+01
ITEM: ATOMS id type x y z c_pot
7 1 9.43449 0.000217205 -0.000185381 -8.94951
2 1 1.57187 1.57238 1.57187 -8.94921
448 1 20.4439 11.0067 7.86202 -8.95096
4 1 4.71685 1.57228 1.57184 -8.9497
447 1 17.3063 11.0052 7.85941 -8.95922
6 1 7.86193 1.57222 1.57185 -8.94942
175 1 18.8715 9.43338 9.43474 -8.94803
8 1 11.007 1.57214 1.57184 -8.9495
174 1 15.7275 9.43142 9.4345 -8.94188
10 1 14.1521 1.57205 1.57192 -8.94945
446 1 14.1918 10.9751 7.8161 -8.88564
12 1 17.2971 1.57197 1.57195 -8.9496
445 1 11.0834 11.0124 7.64443 -8.08873
14 1 20.4417 1.57228 1.57208 -8.94947
444 1 7.86414 10.9858 7.84706 -8.86715
16 1 1.57205 4.71677 1.57173 -8.94953
443 1 4.71745 11.0073 7.8618 -8.94869
18 1 4.71622 4.71621 1.57114 -8.94956
442 1 1.57223 11.0069 7.86194 -8.94882
20 1 7.86165 4.71624 1.57146 -8.94918
149 1 3.1435 0.000679891 9.43445 -8.94941
22 1 11.0069 4.71597 1.57134 -8.94952
154 1 18.8696 0.000278221 9.43447 -8.9495
24 1 14.1524 4.71574 1.57119 -8.9495
188 1 17.2987 4.71509 11.0067 -8.94868
26 1 17.2982 4.7155 1.57108 -8.94851
183 1 1.57097 4.71615 11.0071 -8.9494
28 1 20.4422 4.71647 1.57167 -8.94916
397 1 14.1644 11.0047 4.69902 -8.95178
30 1 1.57215 7.86172 1.57171 -8.94935
396 1 11.0122 11.0085 4.72177 -8.99944
32 1 4.71644 7.86161 1.57122 -8.94976
395 1 7.86235 11.0057 4.71354 -8.95107
34 1 7.86175 7.86148 1.57078 -8.95164
35 1 9.43405 6.28863 -0.000357716 -8.94947
36 1 11.0067 7.86046 1.56981 -8.95001
37 1 12.5795 6.28847 -0.000591222 -8.94958
38 1 14.1535 7.86007 1.56849 -8.9515
181 1 17.2976 1.57193 11.0069 -8.94949
40 1 17.2989 7.86042 1.56981 -8.94936
346 1 7.86186 11.0068 1.57095 -8.9498
42 1 20.4424 7.8615 1.57146 -8.94936
164 1 6.28179 6.28101 9.43383 -8.9419
44 1 3.14424 9.43425 -0.000507064 -8.94938
350 1 20.4424 11.0068 1.57133 -8.94942
348 1 14.1543 11.0068 1.56664 -8.9514
347 1 11.0071 11.0068 1.57123 -8.94541
48 1 15.7257 9.43391 -0.00194811 -8.94993
163 1 3.14128 6.28748 9.43414 -8.94915
344 1 1.57201 11.0067 1.5715 -8.94946
51 1 1.57173 1.57235 4.71675 -8.94945
52 1 3.14377 0.000814941 3.14371 -8.94935
53 1 4.71612 1.57218 4.71603 -8.9501
54 1 6.28941 0.000603865 3.14391 -8.94973
55 1 7.86201 1.57204 4.71632 -8.94972
173 1 12.5736 9.44849 9.42893 -8.90437
57 1 11.0072 1.57185 4.71629 -8.94973
172 1 9.38801 9.29226 9.44628 -8.2614
59 1 14.1523 1.57157 4.71662 -8.95032
60 1 15.7246 0.000216053 3.14428 -8.95006
61 1 17.2972 1.57221 4.71686 -8.95006
62 1 18.8695 0.000450561 3.14433 -8.9496
63 1 20.4416 1.5723 4.71699 -8.94948
64 1 22.0137 3.14444 3.14437 -8.94962
65 1 1.57133 4.71641 4.71641 -8.94973
66 1 3.14362 3.14398 3.14361 -8.94888
67 1 4.71417 4.71415 4.71419 -8.94722
68 1 6.28908 3.14385 3.1437 -8.94983
69 1 7.86131 4.71451 4.71537 -8.95003
70 1 9.43437 3.14373 3.14373 -8.94933
71 1 11.0072 4.71423 4.71498 -8.94858
72 1 12.5797 3.14349 3.14371 -8.94927
73 1 14.154 4.71278 4.71476 -8.95042
74 1 15.7253 3.14309 3.14371 -8.94965
75 1 17.2984 4.71498 4.7161 -8.95051
76 1 18.8698 3.14401 3.14425 -8.9498
77 1 20.4419 4.71647 4.71682 -8.94981
78 1 22.0143 6.28896 3.14403 -8.94982
79 1 1.57176 7.86153 4.71643 -8.95031
80 1 3.14349 6.28864 3.14338 -8.94953
81 1 4.71391 7.85972 4.7143 -8.94898
82 1 6.28741 6.28718 3.14141 -8.94974
83 1 7.85764 7.856 4.70991 -8.94995
84 1 9.43394 6.28735 3.1424 -8.94763
85 1 11.0079 7.85672 4.70977 -8.94617
86 1 12.5803 6.28672 3.14146 -8.94862
87 1 14.1639 7.84957 4.70404 -8.93235
88 1 15.7284 6.28492 3.1403 -8.94534
89 1 17.3043 7.85633 4.71151 -8.94596
90 1 18.8717 6.28746 3.14275 -8.94833
91 1 20.4436 7.86086 4.71605 -8.95044
92 1 0.000422707 9.43402 3.14378 -8.94936
93 1 3.14368 9.43381 3.14339 -8.94868
94 1 6.28865 9.43369 3.14239 -8.94994
95 1 9.43573 9.434 3.14282 -8.95253
96 1 12.5816 9.43264 3.13609 -8.95863
97 1 15.7295 9.43138 3.13762 -8.94902
98 1 18.8719 9.43338 3.1425 -8.94894
99 1 22.0136 0.000310196 6.28943 -8.94948
100 1 1.57162 1.57227 7.86185 -8.94946
166 1 12.5774 6.29192 9.43563 -8.94426
102 1 4.71575 1.57201 7.86142 -8.94933
103 1 6.28868 0.00172889 6.28848 -8.95116
104 1 7.86165 1.57172 7.86151 -8.95134
105 1 9.43495 0.000746175 6.28888 -8.94989
106 1 11.0073 1.57192 7.86169 -8.94881
107 1 12.5796 0.00024153 6.28923 -8.94989
108 1 14.1522 1.57218 7.86189 -8.94989
109 1 15.7249 0.000846554 6.28923 -8.95032
110 1 17.2975 1.57207 7.86179 -8.94947
165 1 9.43359 6.28198 9.43662 -8.9836
112 1 20.4416 1.57224 7.86195 -8.94951
113 1 -0.0003246 3.14434 6.28934 -8.94941
114 1 1.57109 4.71621 7.86163 -8.94931
115 1 3.14341 3.14388 6.28883 -8.94921
116 1 4.71406 4.71423 7.86067 -8.94797
117 1 6.28806 3.14228 6.28806 -8.95101
118 1 7.85966 4.71045 7.8608 -8.95561
119 1 9.4348 3.14284 6.28871 -8.95026
120 1 11.0076 4.71559 7.86153 -8.94749
121 1 12.5798 3.14265 6.28894 -8.95147
122 1 14.1523 4.71522 7.86253 -8.95157
123 1 15.7249 3.14354 6.28943 -8.95051
124 1 17.2983 4.71531 7.86158 -8.94841
125 1 18.8697 3.14409 6.28936 -8.94929
126 1 20.4419 4.71634 7.86185 -8.94942
127 1 22.0137 6.28895 6.2893 -8.94988
128 1 1.57095 7.8615 7.86188 -8.95062
129 1 3.14191 6.28799 6.28823 -8.95049
130 1 4.71109 7.8591 7.86067 -8.9543
131 1 6.28158 6.28064 6.28208 -8.94091
132 1 7.83954 7.83556 7.8451 -8.91057
133 1 9.43499 6.28326 6.28738 -8.95244
134 1 11.0173 7.862 7.84966 -8.92224
135 1 12.5833 6.28076 6.28481 -8.95526
136 1 14.1574 7.85467 7.86138 -8.96003
137 1 15.7278 6.28489 6.28776 -8.95286
138 1 17.3003 7.85961 7.86196 -8.94909
139 1 18.8708 6.28819 6.28924 -8.94978
140 1 20.4427 7.86125 7.86206 -8.94956
141 1 22.0147 9.43413 6.28923 -8.95056
142 1 3.14298 9.43424 6.28887 -8.95147
143 1 6.28277 9.42929 6.28376 -8.94611
144 1 9.42563 9.41415 6.28044 -8.90137
145 1 12.6158 9.40188 6.25269 -8.86239
146 1 15.7446 9.42102 6.27437 -8.94007
147 1 18.8748 9.43262 6.2877 -8.95304
171 1 6.28467 9.42969 9.43553 -8.96017
170 1 3.14307 9.43442 9.43449 -8.9503
169 1 22.0141 9.43428 9.43463 -8.94956
151 1 9.43476 0.000974412 9.43416 -8.94925
152 1 12.5798 0.000497855 9.43417 -8.94881
168 1 18.871 6.28797 9.43429 -8.9493
167 1 15.728 6.28517 9.43351 -8.94424
155 1 22.0136 3.14427 9.43444 -8.94949
156 1 3.14318 3.14371 9.43431 -8.94943
157 1 6.28717 3.14157 9.43401 -8.94931
158 1 9.43452 3.14238 9.43424 -8.94995
159 1 12.5796 3.1442 9.43422 -8.94735
160 1 15.7255 3.14314 9.43403 -8.94957
161 1 18.8699 3.14398 9.43434 -8.94947
162 1 -0.000440121 6.28876 9.43443 -8.94982
177 1 4.71563 1.5718 11.0072 -8.94937
184 1 4.71351 4.71377 11.0076 -8.94826
41 1 18.8701 6.28892 -0.000687489 -8.94947
19 1 6.28933 3.14436 -0.00016083 -8.94947
25 1 15.7247 3.1441 -0.000182859 -8.94956
176 1 1.5716 1.57223 11.0071 -8.94947
199 1 3.14354 0.000568153 12.5799 -8.94927
178 1 7.86134 1.57112 11.0069 -8.95146
179 1 11.0073 1.57145 11.0067 -8.94925
180 1 14.1526 1.57168 11.0065 -8.94989
644 1 20.442 11.0069 20.4414 -8.94951
182 1 20.4417 1.5722 11.007 -8.94951
642 1 14.1526 11.0072 20.4411 -8.95051
209 1 18.8696 0.000199884 12.5795 -8.94942
185 1 7.85824 4.708 11.008 -8.95482
186 1 11.0078 4.71258 11.0081 -8.94735
187 1 14.1537 4.7134 11.0058 -8.95022
641 1 11.0068 11.0071 20.4416 -8.94826
189 1 20.442 4.71631 11.007 -8.94949
190 1 1.57046 7.86144 11.0071 -8.95097
191 1 4.70901 7.85812 11.008 -8.95371
192 1 7.83403 7.83012 11.0264 -8.89633
193 1 11.019 7.85428 11.0351 -8.9685
194 1 14.1599 7.85204 11.004 -8.95096
195 1 17.3011 7.85922 11.0064 -8.94807
196 1 20.4427 7.86125 11.007 -8.94977
197 1 22.0136 0.000237996 12.5796 -8.94948
198 1 1.57165 1.5722 14.1523 -8.94944
343 1 18.8701 9.4345 18.8696 -8.94936
200 1 4.71573 1.57166 14.1529 -8.94983
342 1 15.7257 9.43444 18.8707 -8.94971
202 1 7.86133 1.57121 14.1531 -8.95065
203 1 9.43456 0.00130096 12.5801 -8.95146
204 1 11.0073 1.57096 14.1533 -8.95013
205 1 12.58 0.000698624 12.5798 -8.95134
206 1 14.153 1.57069 14.1528 -8.95116
341 1 12.5798 9.43413 18.8726 -8.95344
208 1 17.2976 1.57182 14.1521 -8.94973
340 1 9.43429 9.4343 18.8718 -8.95184
210 1 20.4417 1.57219 14.152 -8.94946
211 1 -0.00033913 3.14428 12.5796 -8.94944
212 1 1.57097 4.71623 14.1526 -8.94965
213 1 3.14314 3.14364 12.58 -8.94924
214 1 4.71287 4.71316 14.1552 -8.94679
215 1 6.28724 3.14109 12.5808 -8.95049
216 1 7.85872 4.70975 14.1561 -8.95167
217 1 9.43439 3.1402 12.5806 -8.95249
218 1 11.0074 4.70971 14.1568 -8.94771
219 1 12.5804 3.13995 12.5803 -8.95382
220 1 14.1568 4.70816 14.1566 -8.95159
221 1 15.7257 3.14274 12.5793 -8.94978
222 1 17.2994 4.71462 14.1529 -8.95029
223 1 18.8699 3.14398 12.5795 -8.94929
224 1 20.4421 4.71643 14.1522 -8.94972
225 1 22.0135 6.28892 12.5797 -8.94996
226 1 1.57094 7.86178 14.1526 -8.95108
227 1 3.14083 6.2876 12.5807 -8.95023
228 1 4.71024 7.85881 14.1559 -8.95175
229 1 6.27852 6.278 12.5876 -8.93854
230 1 7.84218 7.84086 14.1744 -8.92362
231 1 9.43153 6.27185 12.5867 -8.96062
232 1 11.0077 7.84626 14.1692 -8.94366
233 1 12.5873 6.26911 12.5889 -8.96163
234 1 14.1787 7.83534 14.1786 -8.90085
235 1 15.7298 6.28389 12.5804 -8.95103
236 1 17.3059 7.85729 14.1567 -8.95127
237 1 18.8714 6.2882 12.5796 -8.94947
238 1 20.4435 7.86145 14.1526 -8.95133
239 1 22.0141 9.4346 12.5796 -8.95082
240 1 3.14164 9.43484 12.5797 -8.95354
241 1 6.2751 9.42899 12.5858 -8.96074
242 1 9.37784 9.37136 12.6307 -8.78744
243 1 12.6564 9.35974 12.6524 -8.7212
244 1 15.745 9.4254 12.5886 -8.96196
245 1 18.8737 9.43404 12.58 -8.95479
47 1 12.5795 9.4342 22.0123 -8.95157
247 1 1.57177 1.57221 17.2973 -8.94931
46 1 9.43443 9.4344 22.0136 -8.94983
249 1 4.71624 1.57194 17.2978 -8.9495
250 1 6.28857 0.000765672 15.7257 -8.94983
251 1 7.86158 1.57185 17.2979 -8.94927
339 1 6.28881 9.43461 18.8704 -8.94952
253 1 11.007 1.57174 17.298 -8.94941
338 1 3.14411 9.43445 18.8696 -8.94934
255 1 14.1525 1.57165 17.2979 -8.9493
256 1 15.7255 0.000238942 15.7254 -8.9501
257 1 17.2978 1.57161 17.2977 -8.94935
45 1 6.28913 9.43436 22.0134 -8.94974
259 1 20.4418 1.57215 17.297 -8.94959
260 1 22.0136 3.14433 15.7247 -8.94958
261 1 1.57162 4.71656 17.2976 -8.94964
262 1 3.14317 3.1436 15.7256 -8.94884
263 1 4.71464 4.71494 17.2996 -8.94758
264 1 6.28781 3.14228 15.7265 -8.94997
265 1 7.86076 4.71486 17.2995 -8.94882
266 1 9.43393 3.14213 15.7265 -8.94903
267 1 11.0069 4.71454 17.2997 -8.94907
268 1 12.5803 3.14189 15.7265 -8.94901
269 1 14.1534 4.71437 17.2997 -8.94912
270 1 15.7266 3.14157 15.7265 -8.94966
271 1 17.2997 4.71438 17.2995 -8.94637
272 1 18.8701 3.14382 15.7249 -8.94982
273 1 20.4425 4.71638 17.2976 -8.94943
274 1 22.014 6.28909 15.725 -8.95032
275 1 1.57188 7.862 17.2973 -8.94948
276 1 3.14203 6.28817 15.7263 -8.95003
277 1 4.71553 7.86169 17.2986 -8.95002
278 1 6.28228 6.28251 15.7326 -8.94254
279 1 7.85948 7.85951 17.303 -8.95326
280 1 9.43249 6.28319 15.7311 -8.94604
281 1 11.0068 7.85844 17.3033 -8.94931
282 1 12.582 6.28257 15.7319 -8.94713
283 1 14.1558 7.85836 17.3046 -8.953
284 1 15.7335 6.28071 15.7333 -8.93735
285 1 17.2992 7.86115 17.2991 -8.94999
286 1 18.8726 6.28756 15.7264 -8.94956
287 1 20.4423 7.86192 17.2974 -8.94958
288 1 8.31707e-05 9.43453 15.725 -8.94951
289 1 3.14317 9.43451 15.7255 -8.94892
290 1 6.28667 9.43425 15.728 -8.94982
291 1 9.43215 9.42963 15.736 -8.96097
292 1 12.5847 9.42859 15.7412 -8.96525
293 1 15.7296 9.4336 15.7298 -8.9498
294 1 18.8713 9.43457 15.7256 -8.94943
295 1 22.0137 0.000159116 18.8694 -8.94917
296 1 1.5721 1.57226 20.4416 -8.94917
297 1 3.1442 0.000214615 18.8697 -8.94931
298 1 4.7169 1.57225 20.4418 -8.94953
301 1 9.43441 0.000191778 18.8699 -8.94947
300 1 7.86188 1.57218 20.4418 -8.94948
337 1 22.014 9.43447 18.8694 -8.94949
302 1 11.007 1.57213 20.4418 -8.94951
336 1 20.442 7.8619 20.4414 -8.94947
304 1 14.1521 1.57211 20.4418 -8.94948
39 1 15.7254 6.28833 22.013 -8.95018
306 1 17.2971 1.57209 20.4418 -8.94954
307 1 18.8696 4.51801e-05 18.8696 -8.94921
308 1 20.4418 1.57223 20.4416 -8.94904
309 1 22.0139 3.14445 18.8695 -8.94937
310 1 1.57216 4.71703 20.4416 -8.94967
311 1 3.14394 3.14414 18.87 -8.94897
312 1 4.71646 4.71658 20.4421 -8.94984
313 1 6.289 3.14402 18.8701 -8.94941
314 1 7.86158 4.71637 20.4422 -8.94936
315 1 9.43424 3.14386 18.8702 -8.94935
316 1 11.0068 4.71619 20.4422 -8.94949
317 1 12.5796 3.14379 18.8702 -8.94934
318 1 14.1523 4.71617 20.4422 -8.94944
319 1 15.725 3.14376 18.8702 -8.94947
320 1 17.2977 4.71618 20.442 -8.94948
321 1 18.8701 3.14396 18.8699 -8.94864
322 1 20.442 4.71687 20.4416 -8.94954
323 1 22.014 6.28949 18.8694 -8.9496
324 1 1.57217 7.86195 20.4415 -8.94945
325 1 3.14405 6.28938 18.8698 -8.94982
326 1 4.71662 7.86196 20.4418 -8.94968
327 1 6.28816 6.28839 18.8716 -8.95049
328 1 7.86156 7.8617 20.4426 -8.9508
329 1 9.43383 6.28799 18.8717 -8.94923
330 1 11.0067 7.86118 20.4426 -8.9504
331 1 12.5799 6.28785 18.8718 -8.94939
332 1 14.1526 7.86126 20.4424 -8.95123
333 1 15.7263 6.28774 18.8719 -8.95012
334 1 17.2978 7.86159 20.4415 -8.94965
335 1 18.8702 6.28907 18.8699 -8.94973
512 1 1.57211 11.0072 11.0069 -8.94809
513 1 4.71834 11.0084 11.0056 -8.94686
514 1 7.86822 10.9903 11.0195 -8.88336
515 1 11.0578 10.8014 11.3122 -7.30623
516 1 14.1611 10.9839 11.0297 -8.92032
517 1 17.2994 11.0068 11.0061 -8.95127
518 1 20.4425 11.0071 11.0069 -8.9491
540 1 1.57133 11.007 14.1528 -8.94945
541 1 4.71407 11.0071 14.1543 -8.94601
542 1 7.85952 11.008 14.1569 -8.94679
543 1 11.0104 10.9938 14.1505 -9.01924
544 1 14.1602 11.0095 14.1621 -8.94776
545 1 17.3008 11.008 14.154 -8.94825
546 1 20.4426 11.0072 14.1526 -8.94969
591 1 7.86119 11.0074 17.2988 -8.94932
592 1 11.0073 11.0069 17.2981 -8.94669
593 1 14.1541 11.0079 17.3003 -8.94998
638 1 1.57211 11.0069 20.4415 -8.94952
640 1 7.86165 11.007 20.4417 -8.94962
3 1 3.14443 0.000268276 22.0136 -8.94959
5 1 6.28947 0.000227117 22.0137 -8.94946
11 1 15.7245 0.000117509 22.0138 -8.94948
13 1 18.8694 0.000140527 22.0137 -8.94947
15 1 22.0139 3.14458 22.0136 -8.94933
17 1 3.14431 3.14439 22.0136 -8.94947
303 1 12.5796 0.000149949 18.8699 -8.94946
33 1 6.28904 6.28908 22.0136 -8.95055
27 1 18.8697 3.14418 22.0137 -8.94919
29 1 22.0141 6.2894 22.0136 -8.94949
31 1 3.14437 6.28938 22.0135 -8.94968
1 1 22.0137 0.000195006 22.0136 -8.94904
21 1 9.43435 3.14421 22.0137 -8.94949
9 1 12.5795 0.000184605 22.0137 -8.94951
23 1 12.5795 3.14415 22.0137 -8.94949
43 1 22.014 9.43433 22.0135 -8.94949
49 1 18.8701 9.43419 22.013 -8.94937
687 3 10.9622 12.466 10.1715 2.22438
345 1 4.71611 11.0064 1.57078 -8.94928
511 1 18.8701 18.8703 9.43462 -8.94952
510 1 15.7265 18.8721 9.43424 -8.94858
509 1 12.5799 18.8707 9.43392 -8.94749
349 1 17.299 11.0066 1.5696 -8.94919
508 1 9.43336 18.8737 9.43372 -8.94735
351 1 22.014 12.5794 -0.00049073 -8.94951
352 1 1.57191 14.1518 1.57142 -8.94936
353 1 3.14414 12.5792 -0.00066843 -8.94948
354 1 4.71592 14.1517 1.57017 -8.94943
538 1 17.2977 20.4426 11.0071 -8.94933
356 1 7.86148 14.1523 1.56781 -8.95479
153 1 15.7252 22.0145 9.43425 -8.94973
358 1 11.0067 14.1529 1.56995 -8.94803
150 1 6.28817 22.0154 9.43422 -8.95013
360 1 14.1538 14.1537 1.56668 -8.95304
361 1 15.7258 12.5798 -0.0023 -8.94966
362 1 17.299 14.1529 1.56958 -8.94894
111 1 18.8696 22.0143 6.2894 -8.94945
364 1 20.4424 14.1521 1.57133 -8.94937
537 1 14.1528 20.4435 11.0067 -8.95026
366 1 1.57163 17.2973 1.57125 -8.94973
148 1 -0.000344341 22.0142 9.43452 -8.94951
368 1 4.71508 17.2988 1.56892 -8.94956
58 1 12.5797 22.0142 3.14403 -8.94947
370 1 7.86189 17.2981 1.57013 -8.94947
56 1 9.43462 22.0144 3.14391 -8.94949
372 1 11.0072 17.2984 1.57051 -8.9493
536 1 11.0072 20.4439 11.007 -8.94995
374 1 14.1522 17.2981 1.57069 -8.94978
534 1 4.71495 20.4442 11.0075 -8.94903
376 1 17.2987 17.2989 1.56977 -8.94833
493 1 6.29095 12.5925 9.43112 -9.01923
378 1 20.4422 17.2974 1.57142 -8.94947
492 1 3.14343 12.5795 9.43422 -8.94669
380 1 1.57157 20.4424 1.5714 -8.94864
491 1 22.0138 12.5792 9.43467 -8.94826
382 1 4.71662 20.4425 1.57134 -8.94982
490 1 20.4416 20.4422 7.86199 -8.94949
384 1 7.86201 20.4423 1.57157 -8.94929
385 1 9.43449 18.87 -0.000492604 -8.94949
386 1 11.0071 20.4423 1.57162 -8.94947
387 1 12.5796 18.87 -0.000425652 -8.94942
388 1 14.1521 20.4422 1.57178 -8.94929
489 1 18.8703 18.8706 6.28906 -8.9495
390 1 17.2972 20.4423 1.57169 -8.9498
488 1 17.2978 20.4428 7.86178 -8.94927
392 1 20.4417 20.4421 1.57175 -8.94919
507 1 6.28471 18.8766 9.43412 -8.94771
506 1 3.14182 18.8718 9.43457 -8.94907
505 1 22.0132 18.8701 9.43464 -8.94949
504 1 18.8717 15.7259 9.43477 -8.95001
503 1 15.7317 15.7296 9.4336 -8.94617
502 1 12.5918 15.7243 9.42422 -8.92224
501 1 9.40638 15.732 9.42248 -8.96849
400 1 0.000278223 12.5793 3.14365 -8.94947
401 1 1.57078 14.1519 4.71575 -8.94971
402 1 3.14324 12.5789 3.14289 -8.94902
403 1 4.71165 14.1527 4.71191 -8.9498
404 1 6.28745 12.5783 3.14069 -8.94825
405 1 7.85289 14.1609 4.69649 -8.96196
406 1 9.43542 12.5795 3.14208 -8.95127
407 1 11.007 14.1549 4.71396 -8.94188
408 1 12.5821 12.5811 3.13521 -8.95922
409 1 14.1671 14.1653 4.69689 -8.94007
410 1 15.7299 12.5807 3.13748 -8.94731
411 1 17.3039 14.1549 4.71194 -8.94902
412 1 18.8719 12.5797 3.14243 -8.94919
413 1 20.4434 14.1524 4.7158 -8.94993
414 1 22.0139 15.7247 3.14369 -8.94965
415 1 1.56957 17.2986 4.7152 -8.95012
416 1 3.14241 15.7252 3.14223 -8.94999
417 1 4.70822 17.3056 4.70798 -8.93735
418 1 6.28475 15.729 3.13559 -8.95127
419 1 7.86104 17.3024 4.71167 -8.95103
420 1 9.43509 15.7271 3.1404 -8.94807
421 1 11.008 17.3011 4.71346 -8.94424
422 1 12.5795 15.7267 3.14117 -8.94909
423 1 14.1537 17.3014 4.7137 -8.95286
424 1 15.73 15.73 3.13716 -8.94596
425 1 17.3012 17.3014 4.71305 -8.94534
426 1 18.8717 15.7259 3.14258 -8.94936
427 1 20.4424 17.298 4.7161 -8.95018
428 1 22.0133 18.8701 3.14374 -8.94948
429 1 1.57131 20.4426 4.71645 -8.94947
430 1 3.14195 18.8719 3.14175 -8.94637
431 1 4.71502 20.4448 4.71486 -8.94966
432 1 6.28861 18.8717 3.14212 -8.95029
433 1 7.86219 20.4436 4.71583 -8.94978
434 1 9.43475 18.8712 3.14283 -8.94868
435 1 11.0075 20.4432 4.71594 -8.94957
436 1 12.5799 18.871 3.14321 -8.94841
437 1 14.152 20.4428 4.71657 -8.95051
438 1 15.7254 18.8713 3.14309 -8.95051
439 1 17.2978 20.4432 4.71622 -8.94965
440 1 18.8704 18.8708 3.1433 -8.94851
441 1 20.4417 20.4422 4.7168 -8.94956
500 1 6.27224 15.7401 9.43377 -8.94366
499 1 3.13815 15.7279 9.43464 -8.94931
498 1 -0.00113133 15.7251 9.43477 -8.9504
497 1 18.8703 12.5795 9.43437 -8.94541
496 1 15.7197 12.5778 9.42927 -8.99944
495 1 12.7971 12.5739 9.35809 -8.08876
494 1 9.12937 12.7849 9.38374 -7.30598
449 1 22.0143 12.5792 6.28885 -8.95051
450 1 1.56893 14.1522 7.86168 -8.95344
451 1 3.14114 12.5784 6.28741 -8.94998
452 1 4.7003 14.1577 7.85678 -8.96525
453 1 6.27935 12.5769 6.28127 -8.94776
454 1 7.78908 14.2266 7.78512 -8.72129
455 1 9.41182 12.6024 6.28039 -8.92032
456 1 11.0126 14.1378 7.86784 -8.90435
457 1 12.6254 12.6112 6.24971 -8.88564
458 1 14.1888 14.1844 7.8257 -8.86239
459 1 15.7425 12.5816 6.27708 -8.95178
460 1 17.3054 14.1537 7.85987 -8.95863
461 1 18.8748 12.5795 6.28721 -8.9514
462 1 20.443 14.1521 7.86198 -8.95157
463 1 22.0129 15.7251 6.28891 -8.95123
464 1 1.56965 17.2985 7.8616 -8.94939
465 1 3.13683 15.728 6.28572 -8.953
466 1 4.70957 17.3038 7.85946 -8.94713
467 1 6.26289 15.751 6.2628 -8.90085
468 1 7.85254 17.3172 7.85414 -8.96163
469 1 9.43748 15.7343 6.28161 -8.95096
470 1 11.0059 17.2944 7.86411 -8.94426
471 1 12.5801 15.7316 6.28408 -8.96003
472 1 14.1567 17.3056 7.85818 -8.95526
473 1 15.7374 15.7368 6.27756 -8.93235
474 1 17.3 17.2996 7.86114 -8.94862
475 1 18.873 15.7263 6.28802 -8.9515
476 1 20.4421 17.2978 7.86194 -8.94958
477 1 -0.000676858 18.8701 6.28922 -8.94944
478 1 1.57125 20.4425 7.86186 -8.94934
479 1 3.14174 18.872 6.28805 -8.94912
480 1 4.71494 20.4444 7.86123 -8.94901
481 1 6.28485 18.8782 6.28466 -8.95159
482 1 7.86115 20.4464 7.86106 -8.95382
483 1 9.43572 18.8729 6.28782 -8.95022
484 1 11.0073 20.4421 7.86184 -8.94735
485 1 12.5789 18.8711 6.28916 -8.95157
486 1 14.1525 20.4437 7.86165 -8.95147
487 1 15.7267 18.8735 6.28751 -8.95042
530 1 14.1541 17.3031 11.0065 -8.95244
531 1 17.2991 17.299 11.0075 -8.94763
399 1 20.4438 11.0065 4.7157 -8.94966
398 1 17.304 11.0056 4.71158 -8.94731
394 1 4.71425 11.0053 4.71382 -8.94522
393 1 1.57153 11.0064 4.71586 -8.94935
50 1 -0.000287953 22.0142 3.14441 -8.94954
688 3 10.2699 11.1203 9.47924 2.22437
101 1 3.14361 22.0147 6.28901 -8.9493
526 1 1.56981 17.2983 11.0076 -8.94923
527 1 4.71042 17.3031 11.009 -8.94604
532 1 20.4418 17.2977 11.0074 -8.94947
383 1 6.2893 18.8699 -0.000632449 -8.94972
377 1 18.87 15.7248 -0.000934133 -8.94936
686 1 20.4417 20.4417 20.4414 -8.94933
685 1 18.8697 18.8696 18.8694 -8.94953
684 1 17.2971 20.4419 20.4417 -8.94962
683 1 15.7251 18.8699 18.8702 -8.94973
682 1 14.1521 20.442 20.4418 -8.94941
681 1 12.5798 18.8701 18.8704 -8.94931
680 1 11.007 20.4421 20.4418 -8.94949
519 1 1.56971 14.152 11.0072 -8.95184
520 1 4.70551 14.1567 11.0093 -8.96097
521 1 7.8108 14.215 11.0636 -8.78749
522 1 10.9952 14.294 11.0535 -8.26133
523 1 14.161 14.1722 11.0159 -8.90137
524 1 17.2987 14.1523 11.0057 -8.95253
525 1 20.4418 14.1519 11.0071 -8.94983
305 1 15.7247 22.014 18.8697 -8.94945
299 1 6.28923 22.0141 18.8698 -8.94944
528 1 7.85479 17.3145 11.01 -8.96062
529 1 11.0049 17.3043 11.0079 -8.98359
391 1 18.8698 18.8699 22.0131 -8.94916
389 1 15.7247 18.8699 22.0135 -8.94981
258 1 18.8696 22.014 15.7246 -8.9497
533 1 1.57126 20.4425 11.0072 -8.94935
254 1 12.5801 22.0143 15.7257 -8.94933
535 1 7.86091 20.4461 11.0071 -8.95249
252 1 9.43429 22.0145 15.7258 -8.94937
248 1 3.14364 22.0144 15.7252 -8.9495
207 1 15.7252 22.0143 12.5795 -8.94972
539 1 20.4416 20.4421 11.0071 -8.94949
679 1 9.43435 18.8702 18.8705 -8.9494
678 1 7.86188 20.442 20.4418 -8.94944
677 1 6.28884 18.8701 18.8705 -8.94965
676 1 4.71677 20.442 20.4417 -8.94958
675 1 3.14388 18.8698 18.8699 -8.94964
674 1 1.57196 20.4419 20.4414 -8.94937
673 1 22.0138 18.8693 18.8693 -8.94967
547 1 22.0136 12.5793 12.5798 -8.94962
548 1 1.57108 14.1517 14.1527 -8.94952
549 1 3.14265 12.5789 12.5803 -8.94932
550 1 4.71351 14.1521 14.1548 -8.94982
551 1 6.2846 12.5783 12.582 -8.94679
552 1 7.85567 14.1573 14.1664 -8.96074
553 1 9.42202 12.596 12.5733 -8.88338
554 1 11.0059 14.1566 14.1568 -8.96016
555 1 12.5944 12.6005 12.5773 -8.86716
556 1 14.1577 14.157 14.1587 -8.94611
557 1 15.7279 12.5806 12.5791 -8.95107
558 1 17.2991 14.1526 14.1528 -8.94994
559 1 18.8705 12.5796 12.5796 -8.9498
560 1 20.442 14.152 14.1524 -8.94974
561 1 22.0128 15.7246 12.5799 -8.9508
562 1 1.56986 17.2979 14.1533 -8.95049
563 1 3.13844 15.7268 12.582 -8.95326
564 1 4.70885 17.3038 14.1592 -8.94254
565 1 6.26709 15.7455 12.5993 -8.92362
566 1 7.85385 17.3083 14.163 -8.93854
567 1 9.41507 15.7562 12.6074 -8.89634
568 1 11.0077 17.3053 14.1597 -8.9419
569 1 12.5964 15.7508 12.6019 -8.91057
570 1 14.1594 17.3057 14.1599 -8.94091
571 1 15.7316 15.7303 12.5838 -8.94995
572 1 17.3001 17.2991 14.1541 -8.94974
573 1 18.8707 15.7248 12.5797 -8.95164
574 1 20.4418 17.2972 14.1524 -8.95055
575 1 -0.000688696 18.87 12.5799 -8.94936
576 1 1.57134 20.4423 14.1525 -8.94941
577 1 3.142 18.8715 12.5807 -8.94882
578 1 4.71501 20.444 14.1537 -8.94997
579 1 6.28538 18.8766 12.5828 -8.95167
580 1 7.86069 20.4452 14.1542 -8.95049
581 1 9.43348 18.8783 12.5832 -8.95482
582 1 11.0075 20.4448 14.1543 -8.94931
583 1 12.5807 18.8759 12.5818 -8.95561
584 1 14.1534 20.444 14.1534 -8.95101
585 1 15.7261 18.8718 12.5802 -8.95003
586 1 17.2978 20.4425 14.1524 -8.94983
587 1 18.87 18.8701 12.5798 -8.94918
588 1 20.4416 20.442 14.1522 -8.94947
589 1 1.57186 11.007 17.2974 -8.94949
590 1 4.7158 11.0069 17.2982 -8.94901
672 1 20.4418 17.2969 20.4413 -8.94949
671 1 18.8698 15.7246 18.8693 -8.94935
670 1 17.2975 17.2974 20.4411 -8.94982
594 1 17.2986 11.0074 17.2982 -8.94902
595 1 20.4421 11.0071 17.2973 -8.94948
596 1 -7.3358e-05 12.5795 15.725 -8.94956
597 1 1.57184 14.1519 17.2974 -8.94934
598 1 3.14324 12.5794 15.7257 -8.94901
599 1 4.71599 14.1518 17.2983 -8.94892
600 1 6.28722 12.5792 15.7274 -8.94601
601 1 7.86176 14.1515 17.2998 -8.95354
602 1 9.43589 12.578 15.7231 -8.94686
603 1 11.007 14.1519 17.2984 -8.9503
604 1 12.5797 12.579 15.724 -8.94869
605 1 14.1526 14.1521 17.2985 -8.95147
606 1 15.7277 12.5811 15.7272 -8.94522
607 1 17.2981 14.1525 17.2978 -8.94868
608 1 18.8707 12.58 15.7254 -8.94928
609 1 20.442 14.1521 17.2972 -8.94938
610 1 22.0136 15.7244 15.7249 -8.94968
611 1 1.57165 17.2969 17.2974 -8.94982
612 1 3.14288 15.7246 15.726 -8.95002
613 1 4.7152 17.2982 17.2994 -8.95003
614 1 6.2856 15.7275 15.7312 -8.95175
615 1 7.86078 17.2987 17.3006 -8.95023
616 1 9.43352 15.7282 15.7325 -8.95371
617 1 11.0073 17.2988 17.3002 -8.94915
618 1 12.5808 15.7272 15.7304 -8.9543
619 1 14.1533 17.2983 17.2996 -8.95049
620 1 15.7272 15.7266 15.7276 -8.94898
621 1 17.2981 17.2977 17.298 -8.94953
622 1 18.8703 15.7247 15.725 -8.94976
623 1 20.4418 17.2969 17.2971 -8.94968
624 1 22.0133 18.8697 15.725 -8.94984
625 1 1.57147 20.4422 17.2975 -8.94897
626 1 3.14188 18.8714 15.7268 -8.94758
627 1 4.71587 20.4427 17.2983 -8.94884
628 1 6.28628 18.8732 15.7286 -8.94679
629 1 7.86149 20.4427 17.2983 -8.94924
630 1 9.43389 18.8726 15.728 -8.94826
631 1 11.0072 20.4426 17.2983 -8.94943
632 1 12.5808 18.8721 15.7274 -8.94797
633 1 14.1526 20.4424 17.2981 -8.94921
634 1 15.7273 18.8722 15.7273 -8.94722
635 1 17.2979 20.4423 17.2979 -8.94888
636 1 18.8703 18.8701 15.7253 -8.94956
637 1 20.4417 20.4419 17.2972 -8.94947
669 1 15.7251 15.7248 18.8697 -8.95031
639 1 4.71647 11.0068 20.4416 -8.94956
668 1 14.1522 17.2974 20.4417 -8.94988
667 1 12.5796 15.7248 18.8705 -8.95062
666 1 11.007 17.2976 20.4419 -8.94982
643 1 17.2978 11.007 20.4412 -8.94947
665 1 9.43442 15.7249 18.871 -8.95097
645 1 22.0139 12.5794 18.8694 -8.94952
646 1 1.57209 14.1519 20.4414 -8.94949
647 1 3.14408 12.5794 18.8696 -8.94949
648 1 4.7165 14.1518 20.4414 -8.94951
649 1 6.28872 12.5793 18.8702 -8.94945
650 1 7.86187 14.1517 20.4413 -8.95082
651 1 9.43454 12.5792 18.8694 -8.94809
652 1 11.0068 14.152 20.4413 -8.94956
653 1 12.5795 12.5795 18.8692 -8.94882
654 1 14.1523 14.1522 20.4407 -8.95056
655 1 15.7256 12.58 18.8699 -8.94935
656 1 17.2977 14.1523 20.4411 -8.94936
657 1 18.87 12.5797 18.8695 -8.94946
658 1 20.4419 14.152 20.4413 -8.94949
659 1 22.0139 15.7244 18.8693 -8.94945
660 1 1.57208 17.2968 20.4414 -8.9496
661 1 3.14415 15.7243 18.8696 -8.94948
662 1 4.71646 17.2972 20.4413 -8.95032
663 1 6.28893 15.7245 18.8705 -8.95108
664 1 7.86176 17.2974 20.4419 -8.94996
381 1 3.14393 18.8699 22.0129 -8.94943
201 1 6.28839 22.0151 12.5802 -8.95065
355 1 6.28889 12.5791 22.0128 -8.94969
357 1 9.43461 12.5792 22.0129 -8.9491
359 1 12.5795 12.5796 22.0115 -8.95096
365 1 22.014 15.7244 22.0134 -8.94947
367 1 3.14412 15.7244 22.0131 -8.94958
369 1 6.28883 15.7249 22.0119 -8.95133
371 1 9.43446 15.7251 22.0127 -8.94977
373 1 12.5794 15.7251 22.0127 -8.94956
375 1 15.7254 15.7255 22.0117 -8.95044
246 1 -0.000290347 22.0141 15.7246 -8.94953
379 1 22.0138 18.8694 22.0134 -8.94954
363 1 18.8701 12.5795 22.013 -8.94942
