ITEM: TIMESTEP
44
ITEM: NUMBER OF ATOMS
688
ITEM: BOX BOUNDS pp pp pp
0.0000000000000000e+00 2.2013900999999997e+01
0.0000000000000000e+00 2.2013900999999997e+01
0.0000000000000000e+00 2.2013900999999997e+01
ITEM: ATOMS id type x y z c_pot
7 1 9.43453 5.56198e-09 -2.99003e-09 -8.94963
2 1 1.57242 1.57242 1.57242 -8.94963
448 1 20.4415 11.0069 7.8621 -8.94975
4 1 4.71726 1.57242 1.57242 -8.94963
447 1 17.2972 11.0068 7.86194 -8.95132
6 1 7.86211 1.57242 1.57242 -8.94963
175 1 18.8691 9.43452 9.43453 -8.94967
8 1 11.007 1.57242 1.57242 -8.94963
174 1 15.7246 9.43441 9.43463 -8.95083
10 1 14.1518 1.57242 1.57242 -8.94963
446 1 14.1624 10.9998 7.8543 -8.91287
12 1 17.2966 1.57242 1.57242 -8.94963
445 1 11.0702 11.0035 7.72022 -8.02536
14 1 20.4415 1.57242 1.57242 -8.94963
444 1 7.85434 11.001 7.85358 -8.87856
16 1 1.57242 4.71726 1.57242 -8.94963
443 1 4.71661 11.0068 7.86185 -8.95032
18 1 4.71726 4.71726 1.57242 -8.94963
442 1 1.57239 11.0069 7.8621 -8.94974
20 1 7.86211 4.71726 1.57242 -8.94964
149 1 3.14484 -9.38543e-09 9.43453 -8.94963
22 1 11.007 4.71726 1.57242 -8.94964
154 1 18.8691 1.09925e-08 9.43453 -8.94963
24 1 14.1518 4.71727 1.57242 -8.94965
188 1 17.2966 4.71727 11.007 -8.94965
26 1 17.2966 4.71726 1.57242 -8.94962
183 1 1.57242 4.71726 11.007 -8.94963
28 1 20.4415 4.71726 1.57242 -8.94963
397 1 14.152 11.0068 4.71676 -8.95245
30 1 1.57242 7.86211 1.57242 -8.94963
396 1 11.0071 11.0068 4.71127 -8.97431
32 1 4.71726 7.86211 1.57242 -8.94964
395 1 7.8621 11.0068 4.71684 -8.95204
34 1 7.8621 7.8621 1.5724 -8.94966
35 1 9.43453 6.28969 4.82666e-07 -8.94963
36 1 11.0069 7.86211 1.57242 -8.94964
37 1 12.5794 6.28969 1.01431e-06 -8.94964
38 1 14.1518 7.86209 1.5724 -8.94963
181 1 17.2966 1.57242 11.007 -8.94963
40 1 17.2966 7.86211 1.57242 -8.94965
346 1 7.86211 11.0069 1.57241 -8.94974
42 1 20.4415 7.86211 1.57242 -8.94963
164 1 6.28957 6.28956 9.43454 -8.95107
44 1 3.14484 9.43453 7.35822e-08 -8.94963
350 1 20.4415 11.007 1.57242 -8.94963
348 1 14.1518 11.0069 1.5724 -8.94969
347 1 11.0069 11.0069 1.57211 -8.95114
48 1 15.7242 9.43453 9.79896e-08 -8.94964
163 1 3.14484 6.28968 9.43453 -8.9496
344 1 1.57242 11.007 1.57242 -8.94963
51 1 1.57242 1.57242 4.71726 -8.94963
52 1 3.14484 3.75392e-08 3.14484 -8.94963
53 1 4.71726 1.57242 4.71726 -8.94963
54 1 6.28969 -2.00663e-08 3.14484 -8.94963
55 1 7.86211 1.57242 4.71727 -8.94964
173 1 12.5839 9.43081 9.43279 -8.90278
57 1 11.007 1.57242 4.71726 -8.94964
172 1 9.37237 9.29995 9.43322 -8.09687
59 1 14.1518 1.57242 4.71726 -8.94963
60 1 15.7242 -2.9622e-08 3.14484 -8.94963
61 1 17.2966 1.57242 4.71726 -8.94963
62 1 18.8691 3.49995e-08 3.14484 -8.94963
63 1 20.4415 1.57242 4.71726 -8.94963
64 1 22.0139 3.14484 3.14484 -8.94963
65 1 1.57242 4.71726 4.71726 -8.94963
66 1 3.14484 3.14484 3.14484 -8.94962
67 1 4.71725 4.71724 4.71725 -8.94944
68 1 6.28969 3.14484 3.14484 -8.94965
69 1 7.86211 4.71728 4.71728 -8.94987
70 1 9.43453 3.14484 3.14484 -8.94964
71 1 11.0069 4.71726 4.71726 -8.94963
72 1 12.5794 3.14484 3.14484 -8.94964
73 1 14.1518 4.71724 4.71725 -8.94965
74 1 15.7242 3.14484 3.14484 -8.94963
75 1 17.2966 4.71726 4.71726 -8.94964
76 1 18.8691 3.14484 3.14484 -8.94963
77 1 20.4415 4.71726 4.71726 -8.94963
78 1 22.0139 6.28969 3.14484 -8.94963
79 1 1.57242 7.86211 4.71726 -8.94963
80 1 3.14484 6.28969 3.14484 -8.94964
81 1 4.71725 7.86208 4.71725 -8.94959
82 1 6.28967 6.28968 3.14482 -8.94965
83 1 7.86195 7.86196 4.71685 -8.95062
84 1 9.43453 6.28968 3.14484 -8.94965
85 1 11.0069 7.86212 4.71716 -8.95138
86 1 12.5794 6.2897 3.14486 -8.94988
87 1 14.1522 7.86167 4.71683 -8.94622
88 1 15.7242 6.28967 3.14482 -8.94945
89 1 17.2967 7.86208 4.71724 -8.94947
90 1 18.8691 6.28968 3.14484 -8.94962
91 1 20.4415 7.86211 4.71726 -8.94963
92 1 3.62566e-08 9.43453 3.14484 -8.94963
93 1 3.14484 9.43453 3.14484 -8.94966
94 1 6.28967 9.43453 3.14481 -8.94975
95 1 9.43437 9.43436 3.14459 -8.94901
96 1 12.5795 9.43435 3.14438 -8.95048
97 1 15.7242 9.43452 3.14483 -8.94985
98 1 18.8691 9.43453 3.14484 -8.94965
99 1 22.0139 4.37269e-09 6.28969 -8.94963
100 1 1.57242 1.57242 7.86211 -8.94963
166 1 12.5794 6.28938 9.43437 -8.95029
102 1 4.71727 1.57242 7.86211 -8.94963
103 1 6.28968 1.10391e-06 6.28968 -8.94964
104 1 7.8621 1.5724 7.8621 -8.94971
105 1 9.43453 1.037e-07 6.28969 -8.94964
106 1 11.007 1.57241 7.8621 -8.94965
107 1 12.5794 -1.45716e-07 6.28969 -8.94964
108 1 14.1518 1.57242 7.86211 -8.94964
109 1 15.7242 1.06612e-06 6.28969 -8.94963
110 1 17.2966 1.57242 7.86211 -8.94963
165 1 9.43419 6.28352 9.43438 -8.97331
112 1 20.4415 1.57242 7.86211 -8.94963
113 1 5.5273e-08 3.14484 6.28969 -8.94963
114 1 1.57242 4.71726 7.86211 -8.94963
115 1 3.14484 3.14484 6.28969 -8.94965
116 1 4.71727 4.71728 7.86211 -8.94982
117 1 6.28967 3.14482 6.28967 -8.94962
118 1 7.86192 4.7168 7.86192 -8.95043
119 1 9.43453 3.14484 6.28969 -8.94965
120 1 11.0071 4.71703 7.86195 -8.94899
121 1 12.5794 3.14482 6.28968 -8.94967
122 1 14.1518 4.71723 7.8621 -8.94975
123 1 15.7242 3.14484 6.28969 -8.94964
124 1 17.2966 4.71727 7.86211 -8.94965
125 1 18.8691 3.14484 6.28969 -8.94963
126 1 20.4415 4.71726 7.86211 -8.94963
127 1 22.0139 6.28969 6.28969 -8.94964
128 1 1.57241 7.86211 7.86211 -8.94971
129 1 3.14482 6.28968 6.28968 -8.94968
130 1 4.7169 7.86202 7.86201 -8.95108
131 1 6.28925 6.28924 6.28924 -8.94617
132 1 7.8547 7.85483 7.85481 -8.90028
133 1 9.43463 6.28957 6.28969 -8.95139
134 1 11.0094 7.86051 7.85946 -8.93527
135 1 12.5795 6.28926 6.28953 -8.95066
136 1 14.1522 7.86151 7.86192 -8.95042
137 1 15.7242 6.28966 6.28967 -8.94978
138 1 17.2966 7.86211 7.86211 -8.94988
139 1 18.8691 6.28969 6.28969 -8.94965
140 1 20.4415 7.86211 7.86211 -8.94964
141 1 22.0139 9.43453 6.28968 -8.94964
142 1 3.1448 9.43451 6.28967 -8.94966
143 1 6.28901 9.4341 6.28911 -8.94643
144 1 9.432 9.43158 6.28782 -8.93199
145 1 12.5869 9.42701 6.28238 -8.89489
146 1 15.725 9.43399 6.28916 -8.94739
147 1 18.8691 9.43451 6.28967 -8.94971
171 1 6.28586 9.43416 9.4346 -8.96377
170 1 3.14467 9.43453 9.43453 -8.9505
169 1 22.0139 9.43453 9.43453 -8.94968
151 1 9.43452 1.18663e-05 9.43452 -8.9498
152 1 12.5794 1.2039e-05 9.43452 -8.94965
168 1 18.8691 6.28969 9.43453 -8.94963
167 1 15.7242 6.28968 9.43453 -8.94951
155 1 22.0139 3.14484 9.43453 -8.94963
156 1 3.14484 3.14484 9.43453 -8.94964
157 1 6.28968 3.14484 9.43453 -8.94961
158 1 9.43453 3.14454 9.43452 -8.95119
159 1 12.5794 3.14483 9.43452 -8.94968
160 1 15.7242 3.14484 9.43453 -8.94963
161 1 18.8691 3.14484 9.43453 -8.94963
162 1 -1.93869e-07 6.28969 9.43453 -8.94963
177 1 4.71726 1.57242 11.007 -8.94963
184 1 4.71727 4.71728 11.0069 -8.94982
41 1 18.8691 6.28969 1.11501e-08 -8.94963
19 1 6.28969 3.14484 6.4084e-08 -8.94963
25 1 15.7242 3.14484 4.40476e-08 -8.94963
176 1 1.57242 1.57242 11.007 -8.94963
199 1 3.14484 6.36128e-08 12.5794 -8.94963
178 1 7.8621 1.5724 11.007 -8.94971
179 1 11.007 1.57241 11.007 -8.9498
180 1 14.1518 1.57242 11.0069 -8.94964
644 1 20.4415 11.007 20.4415 -8.94963
182 1 20.4415 1.57242 11.007 -8.94963
642 1 14.1518 11.007 20.4415 -8.94964
209 1 18.8691 3.92152e-08 12.5794 -8.94963
185 1 7.86193 4.71683 11.0071 -8.95039
186 1 11.0071 4.71674 11.0071 -8.95049
187 1 14.1518 4.71725 11.0069 -8.94977
641 1 11.007 11.007 20.4415 -8.94979
189 1 20.4415 4.71726 11.007 -8.94963
190 1 1.57241 7.86211 11.007 -8.94971
191 1 4.7169 7.862 11.007 -8.95086
192 1 7.85499 7.85523 11.014 -8.90043
193 1 11.0093 7.85459 11.0097 -8.95909
194 1 14.1522 7.86165 11.0069 -8.95039
195 1 17.2967 7.86209 11.0069 -8.94967
196 1 20.4415 7.86211 11.007 -8.94964
197 1 22.0139 1.84788e-09 12.5794 -8.94963
198 1 1.57242 1.57242 14.1518 -8.94963
343 1 18.8691 9.43453 18.8691 -8.94963
200 1 4.71726 1.57242 14.1518 -8.94963
342 1 15.7242 9.43453 18.8691 -8.94963
202 1 7.86211 1.57242 14.1518 -8.94964
203 1 9.43452 1.77208e-05 12.5794 -8.94971
204 1 11.007 1.57242 14.1518 -8.94964
205 1 12.5794 1.77989e-05 12.5794 -8.94971
206 1 14.1518 1.57242 14.1518 -8.94964
341 1 12.5794 9.43452 18.8691 -8.9498
208 1 17.2966 1.57242 14.1518 -8.94963
340 1 9.43452 9.43452 18.8691 -8.94973
210 1 20.4415 1.57242 14.1518 -8.94963
211 1 5.36392e-08 3.14484 12.5794 -8.94963
212 1 1.57242 4.71726 14.1518 -8.94963
213 1 3.14484 3.14484 12.5794 -8.94965
214 1 4.71725 4.71725 14.1518 -8.94946
215 1 6.28967 3.14482 12.5794 -8.94963
216 1 7.8621 4.71725 14.1518 -8.94986
217 1 9.43453 3.14482 12.5794 -8.94972
218 1 11.0069 4.71725 14.1518 -8.94968
219 1 12.5794 3.1448 12.5794 -8.94975
220 1 14.1518 4.71721 14.1518 -8.94966
221 1 15.7242 3.14484 12.5794 -8.94964
222 1 17.2966 4.71727 14.1518 -8.94967
223 1 18.8691 3.14484 12.5794 -8.94963
224 1 20.4415 4.71726 14.1518 -8.94963
225 1 22.0139 6.28969 12.5794 -8.94964
226 1 1.57242 7.86211 14.1518 -8.94963
227 1 3.14482 6.28968 12.5794 -8.94967
228 1 4.71724 7.86209 14.1518 -8.94977
229 1 6.28928 6.28928 12.5798 -8.94648
230 1 7.86151 7.86153 14.1526 -8.9469
231 1 9.43445 6.28914 12.5795 -8.9521
232 1 11.0068 7.86175 14.1522 -8.95231
233 1 12.5797 6.28878 12.5797 -8.95179
234 1 14.1528 7.86113 14.1528 -8.94103
235 1 15.7242 6.28969 12.5794 -8.95003
236 1 17.2967 7.86209 14.1518 -8.94969
237 1 18.8691 6.28969 12.5794 -8.94964
238 1 20.4415 7.86211 14.1518 -8.94964
239 1 22.0139 9.43453 12.5794 -8.94964
240 1 3.1448 9.43452 12.5794 -8.9497
241 1 6.28896 9.43433 12.5797 -8.95028
242 1 9.42438 9.42467 12.5879 -8.87276
243 1 12.5963 9.41821 12.5953 -8.80564
244 1 15.7251 9.43428 12.5796 -8.95235
245 1 18.8691 9.43452 12.5794 -8.94976
47 1 12.5794 9.43452 22.0139 -8.94971
247 1 1.57242 1.57242 17.2966 -8.94963
46 1 9.43452 9.43452 22.0139 -8.94965
249 1 4.71726 1.57242 17.2966 -8.94963
250 1 6.28969 1.15683e-06 15.7242 -8.94963
251 1 7.86211 1.57242 17.2966 -8.94963
339 1 6.28969 9.43453 18.8691 -8.94964
253 1 11.007 1.57242 17.2966 -8.94963
338 1 3.14484 9.43453 18.8691 -8.94963
255 1 14.1518 1.57242 17.2966 -8.94963
256 1 15.7242 1.15773e-06 15.7242 -8.94963
257 1 17.2966 1.57242 17.2966 -8.94963
45 1 6.28969 9.43453 22.0139 -8.94964
259 1 20.4415 1.57242 17.2966 -8.94963
260 1 22.0139 3.14484 15.7242 -8.94963
261 1 1.57242 4.71726 17.2966 -8.94963
262 1 3.14484 3.14484 15.7242 -8.94963
263 1 4.71726 4.71726 17.2966 -8.94962
264 1 6.28969 3.14484 15.7242 -8.94965
265 1 7.86211 4.71727 17.2966 -8.94965
266 1 9.43453 3.14484 15.7242 -8.94964
267 1 11.007 4.71727 17.2966 -8.94965
268 1 12.5794 3.14484 15.7242 -8.94964
269 1 14.1518 4.71727 17.2966 -8.94967
270 1 15.7242 3.14484 15.7242 -8.94963
271 1 17.2966 4.71726 17.2966 -8.94961
272 1 18.8691 3.14484 15.7242 -8.94963
273 1 20.4415 4.71726 17.2966 -8.94963
274 1 22.0139 6.28969 15.7242 -8.94963
275 1 1.57242 7.86211 17.2966 -8.94963
276 1 3.14484 6.28969 15.7242 -8.94964
277 1 4.71727 7.86211 17.2966 -8.94965
278 1 6.28966 6.28966 15.7243 -8.94944
279 1 7.86209 7.86209 17.2967 -8.94973
280 1 9.43453 6.28968 15.7242 -8.94972
281 1 11.0069 7.8621 17.2967 -8.94962
282 1 12.5794 6.2897 15.7242 -8.95002
283 1 14.1518 7.86209 17.2967 -8.94971
284 1 15.7243 6.28964 15.7243 -8.94919
285 1 17.2966 7.86211 17.2966 -8.94967
286 1 18.8691 6.28968 15.7242 -8.94963
287 1 20.4415 7.86211 17.2966 -8.94963
288 1 5.16952e-08 9.43453 15.7242 -8.94963
289 1 3.14484 9.43453 15.7242 -8.94965
290 1 6.28968 9.43452 15.7242 -8.94982
291 1 9.43434 9.43435 15.7247 -8.9509
292 1 12.5796 9.43432 15.725 -8.95277
293 1 15.7242 9.43452 15.7242 -8.94996
294 1 18.8691 9.43453 15.7242 -8.94964
295 1 22.0139 1.54681e-09 18.8691 -8.94963
296 1 1.57242 1.57242 20.4415 -8.94963
297 1 3.14484 1.32006e-08 18.8691 -8.94963
298 1 4.71726 1.57242 20.4415 -8.94963
301 1 9.43453 3.68207e-08 18.8691 -8.94963
300 1 7.86211 1.57242 20.4415 -8.94963
337 1 22.0139 9.43453 18.8691 -8.94963
302 1 11.007 1.57242 20.4415 -8.94963
336 1 20.4415 7.86211 20.4415 -8.94963
304 1 14.1518 1.57242 20.4415 -8.94963
39 1 15.7242 6.28969 22.0139 -8.94963
306 1 17.2966 1.57242 20.4415 -8.94963
307 1 18.8691 1.31835e-08 18.8691 -8.94963
308 1 20.4415 1.57242 20.4415 -8.94963
309 1 22.0139 3.14484 18.8691 -8.94963
310 1 1.57242 4.71726 20.4415 -8.94963
311 1 3.14484 3.14484 18.8691 -8.94963
312 1 4.71726 4.71726 20.4415 -8.94963
313 1 6.28969 3.14484 18.8691 -8.94963
314 1 7.86211 4.71726 20.4415 -8.94963
315 1 9.43453 3.14484 18.8691 -8.94963
316 1 11.007 4.71726 20.4415 -8.94963
317 1 12.5794 3.14484 18.8691 -8.94963
318 1 14.1518 4.71726 20.4415 -8.94963
319 1 15.7242 3.14484 18.8691 -8.94963
320 1 17.2966 4.71726 20.4415 -8.94963
321 1 18.8691 3.14484 18.8691 -8.94963
322 1 20.4415 4.71726 20.4415 -8.94963
323 1 22.0139 6.28969 18.8691 -8.94963
324 1 1.57242 7.86211 20.4415 -8.94963
325 1 3.14484 6.28969 18.8691 -8.94963
326 1 4.71726 7.86211 20.4415 -8.94963
327 1 6.28969 6.28969 18.8691 -8.94963
328 1 7.86211 7.86211 20.4415 -8.94964
329 1 9.43453 6.28969 18.8691 -8.94963
330 1 11.007 7.86211 20.4415 -8.94964
331 1 12.5794 6.28969 18.8691 -8.94963
332 1 14.1518 7.86211 20.4415 -8.94964
333 1 15.7242 6.28968 18.8691 -8.94963
334 1 17.2966 7.86211 20.4415 -8.94963
335 1 18.8691 6.28969 18.8691 -8.94963
512 1 1.57239 11.0069 11.007 -8.94969
513 1 4.71677 11.0069 11.0072 -8.94932
514 1 7.8581 11.0046 11.0119 -8.89569
515 1 11.0687 10.8769 11.2037 -7.2471
516 1 14.1568 11.0043 11.0099 -8.94756
517 1 17.297 11.0068 11.0071 -8.94983
518 1 20.4415 11.0069 11.007 -8.94969
540 1 1.57242 11.007 14.1518 -8.94963
541 1 4.71726 11.007 14.1518 -8.94965
542 1 7.86191 11.0069 14.1523 -8.95067
543 1 11.0072 11.0063 14.1567 -8.98422
544 1 14.1523 11.0069 14.1524 -8.95062
545 1 17.2967 11.007 14.1518 -8.94972
546 1 20.4415 11.007 14.1518 -8.94964
591 1 7.8621 11.0069 17.2967 -8.94964
592 1 11.0069 11.007 17.297 -8.95079
593 1 14.1518 11.0069 17.2967 -8.9496
638 1 1.57242 11.007 20.4415 -8.94963
640 1 7.86211 11.007 20.4415 -8.94964
3 1 3.14484 -2.0114e-10 22.0139 -8.94963
5 1 6.28969 -2.14605e-09 22.0139 -8.94963
11 1 15.7242 -1.76401e-09 22.0139 -8.94963
13 1 18.8691 -5.3248e-11 22.0139 -8.94963
15 1 22.0139 3.14484 22.0139 -8.94963
17 1 3.14484 3.14484 22.0139 -8.94963
303 1 12.5794 3.64986e-08 18.8691 -8.94963
33 1 6.28969 6.28969 22.0139 -8.94963
27 1 18.8691 3.14484 22.0139 -8.94963
29 1 22.0139 6.28969 22.0139 -8.94963
31 1 3.14484 6.28969 22.0139 -8.94963
1 1 22.0139 5.16451e-10 22.0139 -8.94963
21 1 9.43453 3.14484 22.0139 -8.94963
9 1 12.5794 4.17396e-09 22.0139 -8.94963
23 1 12.5794 3.14484 22.0139 -8.94963
43 1 22.0139 9.43453 22.0139 -8.94963
49 1 18.8691 9.43453 22.0139 -8.94963
687 3 10.9892 12.5556 10.2145 2.76881
345 1 4.71726 11.007 1.57242 -8.94962
511 1 18.8691 18.8691 9.43453 -8.94964
510 1 15.7242 18.8691 9.43453 -8.94963
509 1 12.5795 18.8693 9.43437 -8.94899
349 1 17.2966 11.007 1.57242 -8.94964
508 1 9.43438 18.8696 9.43437 -8.95049
351 1 22.0139 12.5794 -5.3456e-09 -8.94963
352 1 1.57242 14.1518 1.57242 -8.94963
353 1 3.14484 12.5794 6.22012e-08 -8.94963
354 1 4.71726 14.1518 1.57242 -8.94964
538 1 17.2966 20.4415 11.007 -8.94964
356 1 7.8621 14.1518 1.57239 -8.94976
153 1 15.7242 22.0139 9.43453 -8.94964
358 1 11.0069 14.1518 1.5724 -8.94967
150 1 6.28969 22.0139 9.43453 -8.94964
360 1 14.1518 14.1518 1.57238 -8.94971
361 1 15.7242 12.5794 5.36388e-07 -8.94963
362 1 17.2966 14.1518 1.57242 -8.94965
111 1 18.8691 22.0139 6.28969 -8.94963
364 1 20.4415 14.1518 1.57242 -8.94963
537 1 14.1518 20.4415 11.0069 -8.94965
366 1 1.57242 17.2966 1.57242 -8.94963
148 1 -1.44363e-09 22.0139 9.43453 -8.94963
368 1 4.71726 17.2966 1.57242 -8.94963
58 1 12.5794 22.0139 3.14484 -8.94963
370 1 7.86211 17.2966 1.57242 -8.94964
56 1 9.43453 22.0139 3.14484 -8.94963
372 1 11.007 17.2966 1.57242 -8.94963
536 1 11.007 20.4418 11.0069 -8.95119
374 1 14.1518 17.2966 1.57242 -8.94965
534 1 4.71726 20.4415 11.007 -8.94964
376 1 17.2966 17.2966 1.57242 -8.94962
493 1 6.28483 12.58 9.4343 -8.98422
378 1 20.4415 17.2966 1.57242 -8.94963
492 1 3.14452 12.5794 9.43454 -8.95079
380 1 1.57242 20.4415 1.57242 -8.94963
491 1 22.0139 12.5794 9.43453 -8.94979
382 1 4.71726 20.4415 1.57242 -8.94963
490 1 20.4415 20.4415 7.86211 -8.94963
384 1 7.86211 20.4415 1.57242 -8.94963
385 1 9.43453 18.8691 5.83247e-08 -8.94963
386 1 11.007 20.4415 1.57242 -8.94963
387 1 12.5794 18.8691 1.0418e-08 -8.94963
388 1 14.1518 20.4415 1.57242 -8.94963
489 1 18.8691 18.8691 6.28969 -8.94965
390 1 17.2966 20.4415 1.57242 -8.94963
488 1 17.2966 20.4415 7.86211 -8.94964
392 1 20.4415 20.4415 1.57242 -8.94963
507 1 6.28968 18.8691 9.43454 -8.94968
506 1 3.14484 18.8691 9.43453 -8.94965
505 1 22.0139 18.8691 9.43453 -8.94963
504 1 18.8691 15.7242 9.43453 -8.94964
503 1 15.7243 15.7242 9.43462 -8.95138
502 1 12.582 15.7258 9.43211 -8.93527
501 1 9.43177 15.7317 9.43221 -8.95909
400 1 8.03021e-08 12.5794 3.14484 -8.94963
401 1 1.57242 14.1518 4.71726 -8.94963
402 1 3.14484 12.5794 3.14484 -8.94966
403 1 4.71727 14.1518 4.71727 -8.94996
404 1 6.28967 12.5794 3.14482 -8.94972
405 1 7.86186 14.152 4.71641 -8.95235
406 1 9.43438 12.5795 3.14446 -8.94983
407 1 11.0069 14.1519 4.71686 -8.95083
408 1 12.5795 12.5795 3.14424 -8.95132
409 1 14.1523 14.1523 4.71646 -8.94739
410 1 15.7242 12.5794 3.14484 -8.94979
411 1 17.2966 14.1518 4.71726 -8.94985
412 1 18.8691 12.5794 3.14484 -8.94964
413 1 20.4415 14.1518 4.71726 -8.94964
414 1 22.0139 15.7242 3.14484 -8.94963
415 1 1.57242 17.2966 4.71726 -8.94963
416 1 3.14484 15.7242 3.14484 -8.94967
417 1 4.71722 17.2967 4.71722 -8.94919
418 1 6.28966 15.7242 3.14479 -8.94969
419 1 7.8621 17.2966 4.71727 -8.95003
420 1 9.43453 15.7242 3.14482 -8.94967
421 1 11.007 17.2966 4.71726 -8.94951
422 1 12.5794 15.7242 3.14483 -8.94988
423 1 14.1518 17.2967 4.71725 -8.94978
424 1 15.7242 15.7242 3.1448 -8.94947
425 1 17.2967 17.2967 4.71725 -8.94945
426 1 18.8691 15.7242 3.14484 -8.94965
427 1 20.4415 17.2966 4.71726 -8.94963
428 1 22.0139 18.8691 3.14484 -8.94963
429 1 1.57242 20.4415 4.71726 -8.94963
430 1 3.14484 18.8691 3.14484 -8.94961
431 1 4.71726 20.4415 4.71726 -8.94963
432 1 6.28969 18.8691 3.14484 -8.94967
433 1 7.86211 20.4415 4.71727 -8.94964
434 1 9.43453 18.8691 3.14484 -8.94965
435 1 11.007 20.4415 4.71726 -8.94963
436 1 12.5794 18.8691 3.14484 -8.94965
437 1 14.1518 20.4415 4.71726 -8.94964
438 1 15.7242 18.8691 3.14484 -8.94964
439 1 17.2966 20.4415 4.71726 -8.94963
440 1 18.8691 18.8691 3.14484 -8.94962
441 1 20.4415 20.4415 4.71726 -8.94963
500 1 6.28924 15.7246 9.43466 -8.95231
499 1 3.14482 15.7242 9.43453 -8.94962
498 1 -6.7981e-07 15.7242 9.43453 -8.94964
497 1 18.8694 12.5794 9.43454 -8.95114
496 1 15.7302 12.5795 9.43435 -8.97431
495 1 12.7213 12.5829 9.3713 -8.02536
494 1 9.23781 12.7094 9.37279 -7.2471
449 1 22.0139 12.5794 6.28969 -8.94964
450 1 1.57239 14.1518 7.8621 -8.9498
451 1 3.1448 12.5794 6.28967 -8.9496
452 1 4.71646 14.152 7.86189 -8.95277
453 1 6.28912 12.5794 6.28923 -8.95062
454 1 7.84618 14.1681 7.84521 -8.80564
455 1 9.43158 12.582 6.28469 -8.94756
456 1 11.0087 14.1555 7.85754 -8.90278
457 1 12.5872 12.5866 6.27905 -8.91287
458 1 14.1591 14.1593 7.85461 -8.89489
459 1 15.7247 12.5795 6.28948 -8.95245
460 1 17.2971 14.152 7.86193 -8.95048
461 1 18.8691 12.5794 6.28968 -8.94969
462 1 20.4415 14.1518 7.8621 -8.94971
463 1 22.0139 15.7242 6.28969 -8.94964
464 1 1.57242 17.2966 7.86211 -8.94963
465 1 3.14479 15.7242 6.28966 -8.94971
466 1 4.71728 17.2966 7.86211 -8.95002
467 1 6.28872 15.7252 6.28871 -8.94103
468 1 7.8618 17.2975 7.86178 -8.95179
469 1 9.43461 15.7247 6.28925 -8.95039
470 1 11.0071 17.2969 7.86204 -8.95029
471 1 12.5796 15.7248 6.28925 -8.95042
472 1 14.1519 17.2971 7.86196 -8.95066
473 1 15.7246 15.7247 6.28925 -8.94622
474 1 17.2966 17.2966 7.86211 -8.94988
475 1 18.8691 15.7242 6.28967 -8.94963
476 1 20.4415 17.2966 7.86211 -8.94964
477 1 3.15644e-08 18.8691 6.28969 -8.94963
478 1 1.57242 20.4415 7.86211 -8.94963
479 1 3.14484 18.8691 6.28969 -8.94967
480 1 4.71727 20.4415 7.86211 -8.94964
481 1 6.28966 18.8691 6.28966 -8.94966
482 1 7.86209 20.4415 7.86209 -8.94975
483 1 9.43454 18.8691 6.28968 -8.94977
484 1 11.007 20.4415 7.86211 -8.94968
485 1 12.5794 18.8691 6.28967 -8.94975
486 1 14.1518 20.4415 7.8621 -8.94967
487 1 15.7242 18.8691 6.28967 -8.94965
530 1 14.1518 17.2968 11.0069 -8.95139
531 1 17.2966 17.2966 11.0069 -8.94965
399 1 20.4415 11.007 4.71726 -8.94963
398 1 17.2966 11.007 4.71727 -8.94979
394 1 4.71727 11.0069 4.71727 -8.94966
393 1 1.57242 11.007 4.71726 -8.94963
50 1 2.78522e-09 22.0139 3.14484 -8.94963
688 3 10.227 11.0307 9.45225 2.76881
101 1 3.14484 22.0139 6.28969 -8.94963
526 1 1.57242 17.2966 11.007 -8.94963
527 1 4.71726 17.2966 11.007 -8.94972
532 1 20.4415 17.2966 11.007 -8.94963
383 1 6.28969 18.8691 1.07172e-07 -8.94963
377 1 18.8691 15.7242 1.00402e-07 -8.94963
686 1 20.4415 20.4415 20.4415 -8.94963
685 1 18.8691 18.8691 18.8691 -8.94963
684 1 17.2966 20.4415 20.4415 -8.94963
683 1 15.7242 18.8691 18.8691 -8.94963
682 1 14.1518 20.4415 20.4415 -8.94963
681 1 12.5794 18.8691 18.8691 -8.94963
680 1 11.007 20.4415 20.4415 -8.94963
519 1 1.5724 14.1518 11.007 -8.94973
520 1 4.71673 14.152 11.0071 -8.9509
521 1 7.85355 14.1617 11.0171 -8.87276
522 1 11.0083 14.2864 11.0691 -8.09687
523 1 14.1537 14.1547 11.0095 -8.93199
524 1 17.2969 14.152 11.0071 -8.94901
525 1 20.4415 14.1518 11.007 -8.94965
305 1 15.7242 22.0139 18.8691 -8.94963
299 1 6.28969 22.0139 18.8691 -8.94963
528 1 7.86196 17.2972 11.007 -8.9521
529 1 11.0071 17.3028 11.0073 -8.97331
391 1 18.8691 18.8691 22.0139 -8.94963
389 1 15.7242 18.8691 22.0139 -8.94963
258 1 18.8691 22.0139 15.7242 -8.94963
533 1 1.57242 20.4415 11.007 -8.94963
254 1 12.5794 22.0139 15.7242 -8.94963
535 1 7.8621 20.4415 11.007 -8.94972
252 1 9.43453 22.0139 15.7242 -8.94963
248 1 3.14484 22.0139 15.7242 -8.94963
207 1 15.7242 22.0139 12.5794 -8.94964
539 1 20.4415 20.4415 11.007 -8.94963
679 1 9.43453 18.8691 18.8691 -8.94963
678 1 7.86211 20.4415 20.4415 -8.94963
677 1 6.28969 18.8691 18.8691 -8.94963
676 1 4.71726 20.4415 20.4415 -8.94963
675 1 3.14484 18.8691 18.8691 -8.94963
674 1 1.57242 20.4415 20.4415 -8.94963
673 1 22.0139 18.8691 18.8691 -8.94963
547 1 22.0139 12.5794 12.5794 -8.94964
548 1 1.57242 14.1518 14.1518 -8.94964
549 1 3.14481 12.5794 12.5794 -8.94964
550 1 4.71725 14.1518 14.1518 -8.94982
551 1 6.28923 12.5794 12.5796 -8.95067
552 1 7.86175 14.152 14.1525 -8.95028
553 1 9.42956 12.5817 12.5834 -8.89569
554 1 11.0069 14.1522 14.1556 -8.96377
555 1 12.5879 12.5853 12.5871 -8.87856
556 1 14.1524 14.1522 14.1525 -8.94643
557 1 15.7246 12.5795 12.5794 -8.95204
558 1 17.2967 14.1518 14.1518 -8.94975
559 1 18.8691 12.5794 12.5794 -8.94974
560 1 20.4415 14.1518 14.1518 -8.94964
561 1 22.0139 15.7242 12.5794 -8.94964
562 1 1.57242 17.2966 14.1518 -8.94963
563 1 3.1448 15.7242 12.5794 -8.94973
564 1 4.71722 17.2967 14.1518 -8.94944
565 1 6.28884 15.7248 12.58 -8.9469
566 1 7.86169 17.297 14.1522 -8.94648
567 1 9.42748 15.7311 12.5865 -8.90043
568 1 11.0069 17.2968 14.1519 -8.95107
569 1 12.5867 15.7315 12.5868 -8.90028
570 1 14.1522 17.2971 14.1522 -8.94617
571 1 15.7246 15.7244 12.5795 -8.95062
572 1 17.2967 17.2966 14.1518 -8.94965
573 1 18.8691 15.7242 12.5794 -8.94966
574 1 20.4415 17.2966 14.1518 -8.94963
575 1 2.4002e-08 18.8691 12.5794 -8.94963
576 1 1.57242 20.4415 14.1518 -8.94963
577 1 3.14484 18.8691 12.5794 -8.94965
578 1 4.71726 20.4415 14.1518 -8.94965
579 1 6.28968 18.8691 12.5794 -8.94986
580 1 7.86209 20.4415 14.1518 -8.94963
581 1 9.43436 18.8695 12.5795 -8.95039
582 1 11.007 20.4415 14.1518 -8.94961
583 1 12.5796 18.8695 12.5796 -8.95043
584 1 14.1518 20.4415 14.1518 -8.94962
585 1 15.7242 18.869 12.5794 -8.94987
586 1 17.2966 20.4415 14.1518 -8.94965
587 1 18.8691 18.8691 12.5794 -8.94964
588 1 20.4415 20.4415 14.1518 -8.94963
589 1 1.57242 11.007 17.2966 -8.94963
590 1 4.71727 11.007 17.2966 -8.94964
672 1 20.4415 17.2966 20.4415 -8.94963
671 1 18.8691 15.7242 18.8691 -8.94963
670 1 17.2966 17.2966 20.4415 -8.94963
594 1 17.2966 11.007 17.2966 -8.94966
595 1 20.4415 11.007 17.2966 -8.94963
596 1 8.34494e-08 12.5794 15.7242 -8.94963
597 1 1.57242 14.1518 17.2966 -8.94963
598 1 3.14484 12.5794 15.7242 -8.94964
599 1 4.71727 14.1518 17.2966 -8.94965
600 1 6.28968 12.5794 15.7242 -8.94965
601 1 7.86209 14.1518 17.2967 -8.9497
602 1 9.43429 12.5795 15.7247 -8.94932
603 1 11.0069 14.1518 17.2968 -8.9505
604 1 12.5796 12.5795 15.7249 -8.95032
605 1 14.1518 14.1518 17.2967 -8.94966
606 1 15.7242 12.5794 15.7242 -8.94966
607 1 17.2966 14.1518 17.2966 -8.94966
608 1 18.8691 12.5794 15.7242 -8.94962
609 1 20.4415 14.1518 17.2966 -8.94963
610 1 22.0139 15.7242 15.7242 -8.94963
611 1 1.57242 17.2966 17.2966 -8.94963
612 1 3.14484 15.7242 15.7242 -8.94965
613 1 4.71726 17.2966 17.2966 -8.94964
614 1 6.28967 15.7242 15.7242 -8.94977
615 1 7.8621 17.2966 17.2967 -8.94967
616 1 9.43443 15.7243 15.7246 -8.95086
617 1 11.007 17.2966 17.2966 -8.9496
618 1 12.5795 15.7243 15.7246 -8.95108
619 1 14.1518 17.2966 17.2967 -8.94968
620 1 15.7242 15.7242 15.7242 -8.94959
621 1 17.2966 17.2966 17.2966 -8.94964
622 1 18.8691 15.7242 15.7242 -8.94964
623 1 20.4415 17.2966 17.2966 -8.94963
624 1 22.0139 18.8691 15.7242 -8.94963
625 1 1.57242 20.4415 17.2966 -8.94963
626 1 3.14484 18.8691 15.7242 -8.94962
627 1 4.71726 20.4415 17.2966 -8.94963
628 1 6.28967 18.8691 15.7242 -8.94946
629 1 7.86211 20.4415 17.2966 -8.94965
630 1 9.43453 18.869 15.7242 -8.94982
631 1 11.007 20.4415 17.2966 -8.94964
632 1 12.5794 18.869 15.7242 -8.94982
633 1 14.1518 20.4415 17.2966 -8.94965
634 1 15.7242 18.8691 15.7242 -8.94944
635 1 17.2966 20.4415 17.2966 -8.94962
636 1 18.8691 18.8691 15.7242 -8.94963
637 1 20.4415 20.4415 17.2966 -8.94963
669 1 15.7242 15.7242 18.8691 -8.94963
639 1 4.71726 11.007 20.4415 -8.94963
668 1 14.1518 17.2966 20.4415 -8.94964
667 1 12.5794 15.7242 18.8691 -8.94971
666 1 11.007 17.2966 20.4415 -8.94963
643 1 17.2966 11.007 20.4415 -8.94963
665 1 9.43453 15.7242 18.8691 -8.94971
645 1 22.0139 12.5794 18.8691 -8.94963
646 1 1.57242 14.1518 20.4415 -8.94963
647 1 3.14484 12.5794 18.8691 -8.94963
648 1 4.71726 14.1518 20.4415 -8.94963
649 1 6.28969 12.5794 18.8691 -8.94963
650 1 7.86211 14.1518 20.4415 -8.94964
651 1 9.43452 12.5794 18.8691 -8.94969
652 1 11.007 14.1518 20.4415 -8.94968
653 1 12.5794 12.5794 18.8691 -8.94974
654 1 14.1518 14.1518 20.4415 -8.94964
655 1 15.7242 12.5794 18.8691 -8.94963
656 1 17.2966 14.1518 20.4415 -8.94963
657 1 18.8691 12.5794 18.8691 -8.94963
658 1 20.4415 14.1518 20.4415 -8.94963
659 1 22.0139 15.7242 18.8691 -8.94963
660 1 1.57242 17.2966 20.4415 -8.94963
661 1 3.14484 15.7242 18.8691 -8.94963
662 1 4.71726 17.2966 20.4415 -8.94963
663 1 6.28969 15.7242 18.8691 -8.94963
664 1 7.86211 17.2966 20.4415 -8.94964
381 1 3.14484 18.8691 22.0139 -8.94963
201 1 6.28969 22.0139 12.5794 -8.94964
355 1 6.28969 12.5794 22.0139 -8.94964
357 1 9.43452 12.5794 22.0139 -8.94969
359 1 12.5794 12.5794 22.0139 -8.94975
365 1 22.0139 15.7242 22.0139 -8.94963
367 1 3.14484 15.7242 22.0139 -8.94963
369 1 6.28969 15.7242 22.0139 -8.94964
371 1 9.43453 15.7242 22.0139 -8.94964
373 1 12.5794 15.7242 22.0139 -8.94964
375 1 15.7242 15.7242 22.0139 -8.94963
246 1 2.52921e-09 22.0139 15.7242 -8.94963
379 1 22.0139 18.8691 22.0139 -8.94963
363 1 18.8691 12.5794 22.0139 -8.94963
