ITEM: TIMESTEP
27
ITEM: NUMBER OF ATOMS
688
ITEM: BOX BOUNDS pp pp pp
0.0000000000000000e+00 2.2013900999999997e+01
0.0000000000000000e+00 2.2013900999999997e+01
0.0000000000000000e+00 2.2013900999999997e+01
ITEM: ATOMS id type x y z c_pot
7 1 9.43453 1.24618e-11 1.43457e-11 -8.94963
2 1 1.57242 1.57242 1.57242 -8.94963
448 1 20.4415 11.007 7.86211 -8.94963
4 1 4.71726 1.57242 1.57242 -8.94963
447 1 17.2966 11.0069 7.8621 -8.94972
6 1 7.86211 1.57242 1.57242 -8.94963
175 1 18.8691 9.43453 9.43453 -8.94964
8 1 11.007 1.57242 1.57242 -8.94963
174 1 15.7242 9.43454 9.43453 -8.9508
10 1 14.1518 1.57242 1.57242 -8.94963
446 1 14.1525 11.0065 7.86163 -8.94099
12 1 17.2966 1.57242 1.57242 -8.94963
445 1 11.0302 11.0056 7.8134 -7.83281
14 1 20.4415 1.57242 1.57242 -8.94963
444 1 7.85971 11.0065 7.86026 -8.90251
16 1 1.57242 4.71726 1.57242 -8.94963
443 1 4.71723 11.0069 7.8621 -8.9501
18 1 4.71726 4.71726 1.57242 -8.94963
442 1 1.57242 11.007 7.86211 -8.94964
20 1 7.86211 4.71726 1.57242 -8.94963
149 1 3.14484 1.3506e-10 9.43453 -8.94963
22 1 11.007 4.71726 1.57242 -8.94963
154 1 18.8691 1.46838e-10 9.43453 -8.94963
24 1 14.1518 4.71726 1.57242 -8.94963
188 1 17.2966 4.71726 11.007 -8.94963
26 1 17.2966 4.71726 1.57242 -8.94963
183 1 1.57242 4.71726 11.007 -8.94963
28 1 20.4415 4.71726 1.57242 -8.94963
397 1 14.1518 11.0069 4.71728 -8.95078
30 1 1.57242 7.86211 1.57242 -8.94963
396 1 11.007 11.0069 4.71668 -8.96018
32 1 4.71726 7.86211 1.57242 -8.94963
395 1 7.86212 11.0069 4.71725 -8.95042
34 1 7.86211 7.86211 1.57242 -8.94963
35 1 9.43453 6.28969 3.6815e-09 -8.94963
36 1 11.007 7.86211 1.57242 -8.94963
37 1 12.5794 6.28969 4.17632e-09 -8.94963
38 1 14.1518 7.86211 1.57242 -8.94963
181 1 17.2966 1.57242 11.007 -8.94963
40 1 17.2966 7.86211 1.57242 -8.94963
346 1 7.86211 11.007 1.57242 -8.94964
42 1 20.4415 7.86211 1.57242 -8.94963
164 1 6.28971 6.28971 9.43453 -8.95069
44 1 3.14484 9.43453 2.12452e-10 -8.94963
350 1 20.4415 11.007 1.57242 -8.94963
348 1 14.1518 11.007 1.57242 -8.94963
347 1 11.007 11.007 1.57242 -8.94978
48 1 15.7242 9.43453 3.40386e-09 -8.94963
163 1 3.14484 6.28969 9.43453 -8.94963
344 1 1.57242 11.007 1.57242 -8.94963
51 1 1.57242 1.57242 4.71726 -8.94963
52 1 3.14484 1.30496e-11 3.14484 -8.94963
53 1 4.71726 1.57242 4.71726 -8.94963
54 1 6.28969 2.95132e-11 3.14484 -8.94963
55 1 7.86211 1.57242 4.71726 -8.94963
173 1 12.5816 9.43298 9.43437 -8.91019
57 1 11.007 1.57242 4.71726 -8.94963
172 1 9.41107 9.38756 9.43436 -7.8608
59 1 14.1518 1.57242 4.71726 -8.94963
60 1 15.7242 2.35649e-11 3.14484 -8.94963
61 1 17.2966 1.57242 4.71726 -8.94963
62 1 18.8691 1.2934e-11 3.14484 -8.94963
63 1 20.4415 1.57242 4.71726 -8.94963
64 1 22.0139 3.14484 3.14484 -8.94963
65 1 1.57242 4.71726 4.71726 -8.94963
66 1 3.14484 3.14484 3.14484 -8.94963
67 1 4.71726 4.71726 4.71726 -8.94963
68 1 6.28969 3.14484 3.14484 -8.94963
69 1 7.86211 4.71726 4.71726 -8.94965
70 1 9.43453 3.14484 3.14484 -8.94963
71 1 11.007 4.71726 4.71726 -8.94964
72 1 12.5794 3.14484 3.14484 -8.94963
73 1 14.1518 4.71726 4.71726 -8.94963
74 1 15.7242 3.14484 3.14484 -8.94963
75 1 17.2966 4.71726 4.71726 -8.94963
76 1 18.8691 3.14484 3.14484 -8.94963
77 1 20.4415 4.71726 4.71726 -8.94963
78 1 22.0139 6.28969 3.14484 -8.94963
79 1 1.57242 7.86211 4.71726 -8.94963
80 1 3.14484 6.28969 3.14484 -8.94963
81 1 4.71726 7.86211 4.71726 -8.94964
82 1 6.28969 6.28969 3.14484 -8.94963
83 1 7.8621 7.86211 4.71726 -8.9497
84 1 9.43453 6.28969 3.14484 -8.94964
85 1 11.0069 7.86213 4.71728 -8.95039
86 1 12.5794 6.28969 3.14484 -8.94965
87 1 14.1518 7.8621 4.71726 -8.94944
88 1 15.7242 6.28969 3.14484 -8.94963
89 1 17.2966 7.86211 4.71726 -8.94963
90 1 18.8691 6.28969 3.14484 -8.94963
91 1 20.4415 7.86211 4.71726 -8.94963
92 1 2.4792e-10 9.43453 3.14484 -8.94963
93 1 3.14484 9.43453 3.14484 -8.94963
94 1 6.28969 9.43453 3.14484 -8.94964
95 1 9.43453 9.43453 3.14484 -8.94957
96 1 12.5794 9.43453 3.14483 -8.94965
97 1 15.7242 9.43453 3.14484 -8.94965
98 1 18.8691 9.43453 3.14484 -8.94963
99 1 22.0139 4.54052e-12 6.28969 -8.94963
100 1 1.57242 1.57242 7.86211 -8.94963
166 1 12.5794 6.28968 9.43453 -8.95027
102 1 4.71726 1.57242 7.86211 -8.94963
103 1 6.28969 1.43216e-09 6.28969 -8.94963
104 1 7.86211 1.57242 7.86211 -8.94963
105 1 9.43453 9.09673e-10 6.28969 -8.94963
106 1 11.007 1.57242 7.86211 -8.94963
107 1 12.5794 6.39545e-10 6.28969 -8.94963
108 1 14.1518 1.57242 7.86211 -8.94963
109 1 15.7242 1.42897e-09 6.28969 -8.94963
110 1 17.2966 1.57242 7.86211 -8.94963
165 1 9.43452 6.28913 9.43453 -8.95987
112 1 20.4415 1.57242 7.86211 -8.94963
113 1 4.79568e-11 3.14484 6.28969 -8.94963
114 1 1.57242 4.71726 7.86211 -8.94963
115 1 3.14484 3.14484 6.28969 -8.94963
116 1 4.71726 4.71726 7.86211 -8.94965
117 1 6.28969 3.14484 6.28969 -8.94963
118 1 7.8621 4.71726 7.8621 -8.94965
119 1 9.43453 3.14484 6.28969 -8.94963
120 1 11.007 4.71726 7.8621 -8.94958
121 1 12.5794 3.14484 6.28969 -8.94963
122 1 14.1518 4.71726 7.86211 -8.94964
123 1 15.7242 3.14484 6.28969 -8.94963
124 1 17.2966 4.71726 7.86211 -8.94963
125 1 18.8691 3.14484 6.28969 -8.94963
126 1 20.4415 4.71726 7.86211 -8.94963
127 1 22.0139 6.28969 6.28969 -8.94963
128 1 1.57242 7.86211 7.86211 -8.94963
129 1 3.14484 6.28969 6.28969 -8.94963
130 1 4.71726 7.86211 7.86211 -8.94974
131 1 6.28968 6.28968 6.28968 -8.94944
132 1 7.86167 7.86168 7.86166 -8.9358
133 1 9.43453 6.2897 6.2897 -8.95035
134 1 11.0071 7.86199 7.86194 -8.94573
135 1 12.5794 6.28968 6.28968 -8.9497
136 1 14.1518 7.86209 7.86209 -8.94946
137 1 15.7242 6.28969 6.28969 -8.94964
138 1 17.2966 7.86211 7.86211 -8.94965
139 1 18.8691 6.28969 6.28969 -8.94963
140 1 20.4415 7.86211 7.86211 -8.94963
141 1 22.0139 9.43453 6.28969 -8.94963
142 1 3.14484 9.43453 6.28969 -8.94963
143 1 6.28967 9.4345 6.28967 -8.94921
144 1 9.43434 9.43434 6.28956 -8.9448
145 1 12.5798 9.43407 6.28925 -8.93537
146 1 15.7242 9.43452 6.28968 -8.94953
147 1 18.8691 9.43453 6.28969 -8.94963
171 1 6.28943 9.43451 9.43453 -8.95537
170 1 3.14484 9.43453 9.43453 -8.9497
169 1 22.0139 9.43453 9.43453 -8.94963
151 1 9.43453 6.65412e-08 9.43453 -8.94964
152 1 12.5794 6.72659e-08 9.43453 -8.94963
168 1 18.8691 6.28969 9.43453 -8.94963
167 1 15.7242 6.28969 9.43453 -8.94968
155 1 22.0139 3.14484 9.43453 -8.94963
156 1 3.14484 3.14484 9.43453 -8.94963
157 1 6.28969 3.14484 9.43453 -8.94963
158 1 9.43453 3.14484 9.43453 -8.94978
159 1 12.5794 3.14484 9.43453 -8.94964
160 1 15.7242 3.14484 9.43453 -8.94963
161 1 18.8691 3.14484 9.43453 -8.94963
162 1 6.54351e-10 6.28969 9.43453 -8.94963
177 1 4.71726 1.57242 11.007 -8.94963
184 1 4.71726 4.71726 11.007 -8.94965
41 1 18.8691 6.28969 1.69507e-11 -8.94963
19 1 6.28969 3.14484 5.0489e-11 -8.94963
25 1 15.7242 3.14484 2.59451e-11 -8.94963
176 1 1.57242 1.57242 11.007 -8.94963
199 1 3.14484 2.14607e-10 12.5794 -8.94963
178 1 7.86211 1.57242 11.007 -8.94963
179 1 11.007 1.57242 11.007 -8.94964
180 1 14.1518 1.57242 11.007 -8.94963
644 1 20.4415 11.007 20.4415 -8.94963
182 1 20.4415 1.57242 11.007 -8.94963
642 1 14.1518 11.007 20.4415 -8.94963
209 1 18.8691 2.02407e-10 12.5794 -8.94963
185 1 7.8621 4.71726 11.007 -8.94965
186 1 11.007 4.71725 11.007 -8.94971
187 1 14.1518 4.71726 11.007 -8.94964
641 1 11.007 11.007 20.4415 -8.94964
189 1 20.4415 4.71726 11.007 -8.94963
190 1 1.57242 7.86211 11.007 -8.94963
191 1 4.71726 7.86211 11.007 -8.94973
192 1 7.86169 7.86171 11.0074 -8.93636
193 1 11.0071 7.86145 11.0071 -8.95524
194 1 14.1518 7.86211 11.007 -8.95012
195 1 17.2966 7.86211 11.007 -8.94964
196 1 20.4415 7.86211 11.007 -8.94963
197 1 22.0139 3.71109e-12 12.5794 -8.94963
198 1 1.57242 1.57242 14.1518 -8.94963
343 1 18.8691 9.43453 18.8691 -8.94963
200 1 4.71726 1.57242 14.1518 -8.94963
342 1 15.7242 9.43453 18.8691 -8.94963
202 1 7.86211 1.57242 14.1518 -8.94963
203 1 9.43453 9.43568e-08 12.5794 -8.94963
204 1 11.007 1.57242 14.1518 -8.94963
205 1 12.5794 9.44735e-08 12.5794 -8.94963
206 1 14.1518 1.57242 14.1518 -8.94963
341 1 12.5794 9.43453 18.8691 -8.94963
208 1 17.2966 1.57242 14.1518 -8.94963
340 1 9.43453 9.43453 18.8691 -8.94963
210 1 20.4415 1.57242 14.1518 -8.94963
211 1 4.76681e-11 3.14484 12.5794 -8.94963
212 1 1.57242 4.71726 14.1518 -8.94963
213 1 3.14484 3.14484 12.5794 -8.94963
214 1 4.71726 4.71726 14.1518 -8.94963
215 1 6.28969 3.14484 12.5794 -8.94963
216 1 7.86211 4.71726 14.1518 -8.94965
217 1 9.43453 3.14484 12.5794 -8.94964
218 1 11.007 4.71726 14.1518 -8.94964
219 1 12.5794 3.14484 12.5794 -8.94963
220 1 14.1518 4.71726 14.1518 -8.94963
221 1 15.7242 3.14484 12.5794 -8.94963
222 1 17.2966 4.71726 14.1518 -8.94963
223 1 18.8691 3.14484 12.5794 -8.94963
224 1 20.4415 4.71726 14.1518 -8.94963
225 1 22.0139 6.28969 12.5794 -8.94963
226 1 1.57242 7.86211 14.1518 -8.94963
227 1 3.14484 6.28969 12.5794 -8.94963
228 1 4.71726 7.86211 14.1518 -8.94964
229 1 6.28968 6.28968 12.5794 -8.94946
230 1 7.8621 7.8621 14.1518 -8.9495
231 1 9.43453 6.28969 12.5794 -8.95036
232 1 11.0069 7.86214 14.1518 -8.95146
233 1 12.5794 6.28967 12.5794 -8.94973
234 1 14.1518 7.86209 14.1518 -8.94922
235 1 15.7242 6.28969 12.5794 -8.94966
236 1 17.2966 7.86211 14.1518 -8.94963
237 1 18.8691 6.28969 12.5794 -8.94963
238 1 20.4415 7.86211 14.1518 -8.94963
239 1 22.0139 9.43453 12.5794 -8.94963
240 1 3.14484 9.43453 12.5794 -8.94963
241 1 6.28967 9.43451 12.5794 -8.94946
242 1 9.43391 9.43393 12.5799 -8.93048
243 1 12.5803 9.43362 12.5803 -8.9176
244 1 15.7242 9.43453 12.5794 -8.9498
245 1 18.8691 9.43453 12.5794 -8.94963
47 1 12.5794 9.43453 22.0139 -8.94963
247 1 1.57242 1.57242 17.2966 -8.94963
46 1 9.43453 9.43453 22.0139 -8.94963
249 1 4.71726 1.57242 17.2966 -8.94963
250 1 6.28969 1.6991e-09 15.7242 -8.94963
251 1 7.86211 1.57242 17.2966 -8.94963
339 1 6.28969 9.43453 18.8691 -8.94963
253 1 11.007 1.57242 17.2966 -8.94963
338 1 3.14484 9.43453 18.8691 -8.94963
255 1 14.1518 1.57242 17.2966 -8.94963
256 1 15.7242 1.70011e-09 15.7242 -8.94963
257 1 17.2966 1.57242 17.2966 -8.94963
45 1 6.28969 9.43453 22.0139 -8.94963
259 1 20.4415 1.57242 17.2966 -8.94963
260 1 22.0139 3.14484 15.7242 -8.94963
261 1 1.57242 4.71726 17.2966 -8.94963
262 1 3.14484 3.14484 15.7242 -8.94963
263 1 4.71726 4.71726 17.2966 -8.94963
264 1 6.28969 3.14484 15.7242 -8.94963
265 1 7.86211 4.71726 17.2966 -8.94963
266 1 9.43453 3.14484 15.7242 -8.94963
267 1 11.007 4.71726 17.2966 -8.94963
268 1 12.5794 3.14484 15.7242 -8.94963
269 1 14.1518 4.71726 17.2966 -8.94963
270 1 15.7242 3.14484 15.7242 -8.94963
271 1 17.2966 4.71726 17.2966 -8.94963
272 1 18.8691 3.14484 15.7242 -8.94963
273 1 20.4415 4.71726 17.2966 -8.94963
274 1 22.0139 6.28969 15.7242 -8.94963
275 1 1.57242 7.86211 17.2966 -8.94963
276 1 3.14484 6.28969 15.7242 -8.94963
277 1 4.71726 7.86211 17.2966 -8.94963
278 1 6.28969 6.28969 15.7242 -8.94963
279 1 7.86211 7.86211 17.2966 -8.94963
280 1 9.43453 6.28969 15.7242 -8.94965
281 1 11.007 7.86211 17.2966 -8.94963
282 1 12.5794 6.28969 15.7242 -8.94967
283 1 14.1518 7.86211 17.2966 -8.94963
284 1 15.7242 6.28969 15.7242 -8.94963
285 1 17.2966 7.86211 17.2966 -8.94963
286 1 18.8691 6.28969 15.7242 -8.94963
287 1 20.4415 7.86211 17.2966 -8.94963
288 1 2.59086e-10 9.43453 15.7242 -8.94963
289 1 3.14484 9.43453 15.7242 -8.94963
290 1 6.28969 9.43453 15.7242 -8.94965
291 1 9.43452 9.43452 15.7242 -8.94966
292 1 12.5794 9.43452 15.7242 -8.94975
293 1 15.7242 9.43453 15.7242 -8.94966
294 1 18.8691 9.43453 15.7242 -8.94963
295 1 22.0139 1.46941e-13 18.8691 -8.94963
296 1 1.57242 1.57242 20.4415 -8.94963
297 1 3.14484 4.73824e-12 18.8691 -8.94963
298 1 4.71726 1.57242 20.4415 -8.94963
301 1 9.43453 2.4935e-10 18.8691 -8.94963
300 1 7.86211 1.57242 20.4415 -8.94963
337 1 22.0139 9.43453 18.8691 -8.94963
302 1 11.007 1.57242 20.4415 -8.94963
336 1 20.4415 7.86211 20.4415 -8.94963
304 1 14.1518 1.57242 20.4415 -8.94963
39 1 15.7242 6.28969 22.0139 -8.94963
306 1 17.2966 1.57242 20.4415 -8.94963
307 1 18.8691 4.74687e-12 18.8691 -8.94963
308 1 20.4415 1.57242 20.4415 -8.94963
309 1 22.0139 3.14484 18.8691 -8.94963
310 1 1.57242 4.71726 20.4415 -8.94963
311 1 3.14484 3.14484 18.8691 -8.94963
312 1 4.71726 4.71726 20.4415 -8.94963
313 1 6.28969 3.14484 18.8691 -8.94963
314 1 7.86211 4.71726 20.4415 -8.94963
315 1 9.43453 3.14484 18.8691 -8.94963
316 1 11.007 4.71726 20.4415 -8.94963
317 1 12.5794 3.14484 18.8691 -8.94963
318 1 14.1518 4.71726 20.4415 -8.94963
319 1 15.7242 3.14484 18.8691 -8.94963
320 1 17.2966 4.71726 20.4415 -8.94963
321 1 18.8691 3.14484 18.8691 -8.94963
322 1 20.4415 4.71726 20.4415 -8.94963
323 1 22.0139 6.28969 18.8691 -8.94963
324 1 1.57242 7.86211 20.4415 -8.94963
325 1 3.14484 6.28969 18.8691 -8.94963
326 1 4.71726 7.86211 20.4415 -8.94963
327 1 6.28969 6.28969 18.8691 -8.94963
328 1 7.86211 7.86211 20.4415 -8.94963
329 1 9.43453 6.28969 18.8691 -8.94963
330 1 11.007 7.86211 20.4415 -8.94963
331 1 12.5794 6.28969 18.8691 -8.94963
332 1 14.1518 7.86211 20.4415 -8.94963
333 1 15.7242 6.28969 18.8691 -8.94963
334 1 17.2966 7.86211 20.4415 -8.94963
335 1 18.8691 6.28969 18.8691 -8.94963
512 1 1.57242 11.007 11.007 -8.94964
513 1 4.71724 11.0069 11.007 -8.95003
514 1 7.85998 11.0068 11.0086 -8.90972
515 1 11.0296 10.9615 11.0752 -6.88767
516 1 14.1522 11.0068 11.0072 -8.95011
517 1 17.2966 11.0069 11.007 -8.94963
518 1 20.4415 11.007 11.007 -8.94963
540 1 1.57242 11.007 14.1518 -8.94963
541 1 4.71727 11.007 14.1518 -8.94969
542 1 7.8621 11.0069 14.1518 -8.95011
543 1 11.007 11.0069 14.1526 -8.96257
544 1 14.1518 11.0069 14.1518 -8.95048
545 1 17.2966 11.007 14.1518 -8.94964
546 1 20.4415 11.007 14.1518 -8.94963
591 1 7.86211 11.007 17.2966 -8.94964
592 1 11.007 11.007 17.2966 -8.94985
593 1 14.1518 11.007 17.2966 -8.94963
638 1 1.57242 11.007 20.4415 -8.94963
640 1 7.86211 11.007 20.4415 -8.94963
3 1 3.14484 1.78981e-13 22.0139 -8.94963
5 1 6.28969 -2.52689e-13 22.0139 -8.94963
11 1 15.7242 -1.81492e-13 22.0139 -8.94963
13 1 18.8691 1.70946e-13 22.0139 -8.94963
15 1 22.0139 3.14484 22.0139 -8.94963
17 1 3.14484 3.14484 22.0139 -8.94963
303 1 12.5794 2.49685e-10 18.8691 -8.94963
33 1 6.28969 6.28969 22.0139 -8.94963
27 1 18.8691 3.14484 22.0139 -8.94963
29 1 22.0139 6.28969 22.0139 -8.94963
31 1 3.14484 6.28969 22.0139 -8.94963
1 1 22.0139 6.69564e-14 22.0139 -8.94963
21 1 9.43453 3.14484 22.0139 -8.94963
9 1 12.5794 1.09308e-11 22.0139 -8.94963
23 1 12.5794 3.14484 22.0139 -8.94963
43 1 22.0139 9.43453 22.0139 -8.94963
49 1 18.8691 9.43453 22.0139 -8.94963
687 3 11.0058 12.578 10.2205 4.28507
345 1 4.71726 11.007 1.57242 -8.94963
511 1 18.8691 18.8691 9.43453 -8.94963
510 1 15.7242 18.8691 9.43453 -8.94964
509 1 12.5794 18.8691 9.43453 -8.94958
349 1 17.2966 11.007 1.57242 -8.94963
508 1 9.43453 18.8691 9.43453 -8.94971
351 1 22.0139 12.5794 2.10167e-11 -8.94963
352 1 1.57242 14.1518 1.57242 -8.94963
353 1 3.14484 12.5794 1.1032e-10 -8.94963
354 1 4.71726 14.1518 1.57242 -8.94963
538 1 17.2966 20.4415 11.007 -8.94963
356 1 7.86211 14.1518 1.57242 -8.94963
153 1 15.7242 22.0139 9.43453 -8.94963
358 1 11.007 14.1518 1.57242 -8.94964
150 1 6.28969 22.0139 9.43453 -8.94963
360 1 14.1518 14.1518 1.57242 -8.94963
361 1 15.7242 12.5794 4.89632e-09 -8.94963
362 1 17.2966 14.1518 1.57242 -8.94963
111 1 18.8691 22.0139 6.28969 -8.94963
364 1 20.4415 14.1518 1.57242 -8.94963
537 1 14.1518 20.4415 11.007 -8.94963
366 1 1.57242 17.2966 1.57242 -8.94963
148 1 3.08263e-11 22.0139 9.43453 -8.94963
368 1 4.71726 17.2966 1.57242 -8.94963
58 1 12.5794 22.0139 3.14484 -8.94963
370 1 7.86211 17.2966 1.57242 -8.94963
56 1 9.43453 22.0139 3.14484 -8.94963
372 1 11.007 17.2966 1.57242 -8.94963
536 1 11.007 20.4415 11.007 -8.94978
374 1 14.1518 17.2966 1.57242 -8.94963
534 1 4.71726 20.4415 11.007 -8.94963
376 1 17.2966 17.2966 1.57242 -8.94963
493 1 6.28883 12.5794 9.43452 -8.96257
378 1 20.4415 17.2966 1.57242 -8.94963
492 1 3.14483 12.5794 9.43453 -8.94985
380 1 1.57242 20.4415 1.57242 -8.94963
491 1 22.0139 12.5794 9.43453 -8.94964
382 1 4.71726 20.4415 1.57242 -8.94963
490 1 20.4415 20.4415 7.86211 -8.94963
384 1 7.86211 20.4415 1.57242 -8.94963
385 1 9.43453 18.8691 1.16818e-10 -8.94963
386 1 11.007 20.4415 1.57242 -8.94963
387 1 12.5794 18.8691 5.4641e-11 -8.94963
388 1 14.1518 20.4415 1.57242 -8.94963
489 1 18.8691 18.8691 6.28969 -8.94963
390 1 17.2966 20.4415 1.57242 -8.94963
488 1 17.2966 20.4415 7.86211 -8.94963
392 1 20.4415 20.4415 1.57242 -8.94963
507 1 6.28969 18.8691 9.43453 -8.94964
506 1 3.14484 18.8691 9.43453 -8.94963
505 1 22.0139 18.8691 9.43453 -8.94963
504 1 18.8691 15.7242 9.43453 -8.94963
503 1 15.7242 15.7242 9.43453 -8.95039
502 1 12.5795 15.7243 9.43436 -8.94573
501 1 9.43435 15.7249 9.43436 -8.95524
400 1 2.52872e-10 12.5794 3.14484 -8.94963
401 1 1.57242 14.1518 4.71726 -8.94963
402 1 3.14484 12.5794 3.14484 -8.94963
403 1 4.71726 14.1518 4.71726 -8.94966
404 1 6.28969 12.5794 3.14484 -8.94964
405 1 7.8621 14.1518 4.71725 -8.9498
406 1 9.43453 12.5794 3.14483 -8.94963
407 1 11.0069 14.1518 4.71726 -8.9508
408 1 12.5794 12.5794 3.14483 -8.94972
409 1 14.1518 14.1518 4.71725 -8.94953
410 1 15.7242 12.5794 3.14484 -8.94965
411 1 17.2966 14.1518 4.71726 -8.94965
412 1 18.8691 12.5794 3.14484 -8.94963
413 1 20.4415 14.1518 4.71726 -8.94963
414 1 22.0139 15.7242 3.14484 -8.94963
415 1 1.57242 17.2966 4.71726 -8.94963
416 1 3.14484 15.7242 3.14484 -8.94963
417 1 4.71726 17.2966 4.71726 -8.94963
418 1 6.28969 15.7242 3.14484 -8.94963
419 1 7.86211 17.2966 4.71726 -8.94966
420 1 9.43453 15.7242 3.14484 -8.94964
421 1 11.007 17.2966 4.71727 -8.94968
422 1 12.5794 15.7242 3.14484 -8.94965
423 1 14.1518 17.2966 4.71726 -8.94964
424 1 15.7242 15.7242 3.14484 -8.94963
425 1 17.2966 17.2966 4.71726 -8.94963
426 1 18.8691 15.7242 3.14484 -8.94963
427 1 20.4415 17.2966 4.71726 -8.94963
428 1 22.0139 18.8691 3.14484 -8.94963
429 1 1.57242 20.4415 4.71726 -8.94963
430 1 3.14484 18.8691 3.14484 -8.94963
431 1 4.71726 20.4415 4.71726 -8.94963
432 1 6.28969 18.8691 3.14484 -8.94963
433 1 7.86211 20.4415 4.71726 -8.94963
434 1 9.43453 18.8691 3.14484 -8.94963
435 1 11.007 20.4415 4.71726 -8.94963
436 1 12.5794 18.8691 3.14484 -8.94963
437 1 14.1518 20.4415 4.71726 -8.94963
438 1 15.7242 18.8691 3.14484 -8.94963
439 1 17.2966 20.4415 4.71726 -8.94963
440 1 18.8691 18.8691 3.14484 -8.94963
441 1 20.4415 20.4415 4.71726 -8.94963
500 1 6.28971 15.7242 9.43453 -8.95146
499 1 3.14484 15.7242 9.43453 -8.94963
498 1 9.78235e-11 15.7242 9.43453 -8.94963
497 1 18.8691 12.5794 9.43453 -8.94978
496 1 15.7248 12.5794 9.43452 -8.96018
495 1 12.6281 12.5807 9.41131 -7.83281
494 1 9.36629 12.6249 9.4119 -6.88767
449 1 22.0139 12.5794 6.28969 -8.94963
450 1 1.57242 14.1518 7.86211 -8.94963
451 1 3.14484 12.5794 6.28969 -8.94963
452 1 4.71725 14.1518 7.8621 -8.94975
453 1 6.28969 12.5794 6.28969 -8.95048
454 1 7.86121 14.1527 7.86118 -8.9176
455 1 9.43433 12.5795 6.28931 -8.95011
456 1 11.0071 14.1533 7.85993 -8.91019
457 1 12.5798 12.5798 6.289 -8.94099
458 1 14.1522 14.1522 7.86165 -8.93537
459 1 15.7242 12.5794 6.28971 -8.95078
460 1 17.2966 14.1518 7.8621 -8.94965
461 1 18.8691 12.5794 6.28969 -8.94963
462 1 20.4415 14.1518 7.86211 -8.94963
463 1 22.0139 15.7242 6.28969 -8.94963
464 1 1.57242 17.2966 7.86211 -8.94963
465 1 3.14484 15.7242 6.28969 -8.94963
466 1 4.71727 17.2966 7.86211 -8.94967
467 1 6.28967 15.7242 6.28967 -8.94922
468 1 7.8621 17.2967 7.8621 -8.94973
469 1 9.43451 15.7242 6.28969 -8.95012
470 1 11.007 17.2966 7.86211 -8.95027
471 1 12.5794 15.7242 6.28967 -8.94946
472 1 14.1518 17.2966 7.86211 -8.9497
473 1 15.7242 15.7242 6.28968 -8.94944
474 1 17.2966 17.2966 7.86211 -8.94965
475 1 18.8691 15.7242 6.28969 -8.94963
476 1 20.4415 17.2966 7.86211 -8.94963
477 1 3.64505e-11 18.8691 6.28969 -8.94963
478 1 1.57242 20.4415 7.86211 -8.94963
479 1 3.14484 18.8691 6.28969 -8.94963
480 1 4.71726 20.4415 7.86211 -8.94963
481 1 6.28969 18.8691 6.28969 -8.94963
482 1 7.86211 20.4415 7.86211 -8.94963
483 1 9.43453 18.8691 6.28969 -8.94964
484 1 11.007 20.4415 7.86211 -8.94964
485 1 12.5794 18.8691 6.28969 -8.94964
486 1 14.1518 20.4415 7.86211 -8.94963
487 1 15.7242 18.8691 6.28969 -8.94963
530 1 14.1518 17.2966 11.0069 -8.95035
531 1 17.2966 17.2966 11.007 -8.94964
399 1 20.4415 11.007 4.71726 -8.94963
398 1 17.2966 11.007 4.71726 -8.94965
394 1 4.71727 11.007 4.71727 -8.9497
393 1 1.57242 11.007 4.71726 -8.94963
50 1 2.56569e-13 22.0139 3.14484 -8.94963
688 3 10.2209 11.0083 9.43571 4.28507
101 1 3.14484 22.0139 6.28969 -8.94963
526 1 1.57242 17.2966 11.007 -8.94963
527 1 4.71726 17.2966 11.007 -8.94965
532 1 20.4415 17.2966 11.007 -8.94963
383 1 6.28969 18.8691 2.56544e-11 -8.94963
377 1 18.8691 15.7242 7.6708e-11 -8.94963
686 1 20.4415 20.4415 20.4415 -8.94963
685 1 18.8691 18.8691 18.8691 -8.94963
684 1 17.2966 20.4415 20.4415 -8.94963
683 1 15.7242 18.8691 18.8691 -8.94963
682 1 14.1518 20.4415 20.4415 -8.94963
681 1 12.5794 18.8691 18.8691 -8.94963
680 1 11.007 20.4415 20.4415 -8.94963
519 1 1.57242 14.1518 11.007 -8.94963
520 1 4.71725 14.1518 11.007 -8.94966
521 1 7.86156 14.1524 11.0076 -8.93048
522 1 11.0071 14.1988 11.0304 -7.8608
523 1 14.1519 14.152 11.0071 -8.9448
524 1 17.2966 14.1518 11.007 -8.94957
525 1 20.4415 14.1518 11.007 -8.94963
305 1 15.7242 22.0139 18.8691 -8.94963
299 1 6.28969 22.0139 18.8691 -8.94963
528 1 7.86212 17.2966 11.007 -8.95036
529 1 11.007 17.2972 11.007 -8.95987
391 1 18.8691 18.8691 22.0139 -8.94963
389 1 15.7242 18.8691 22.0139 -8.94963
258 1 18.8691 22.0139 15.7242 -8.94963
533 1 1.57242 20.4415 11.007 -8.94963
254 1 12.5794 22.0139 15.7242 -8.94963
535 1 7.86211 20.4415 11.007 -8.94964
252 1 9.43453 22.0139 15.7242 -8.94963
248 1 3.14484 22.0139 15.7242 -8.94963
207 1 15.7242 22.0139 12.5794 -8.94963
539 1 20.4415 20.4415 11.007 -8.94963
679 1 9.43453 18.8691 18.8691 -8.94963
678 1 7.86211 20.4415 20.4415 -8.94963
677 1 6.28969 18.8691 18.8691 -8.94963
676 1 4.71726 20.4415 20.4415 -8.94963
675 1 3.14484 18.8691 18.8691 -8.94963
674 1 1.57242 20.4415 20.4415 -8.94963
673 1 22.0139 18.8691 18.8691 -8.94963
547 1 22.0139 12.5794 12.5794 -8.94963
548 1 1.57242 14.1518 14.1518 -8.94963
549 1 3.14484 12.5794 12.5794 -8.94964
550 1 4.71726 14.1518 14.1518 -8.94965
551 1 6.28967 12.5794 12.5794 -8.95011
552 1 7.86209 14.1518 14.1518 -8.94946
553 1 9.43293 12.5795 12.5815 -8.90972
554 1 11.0069 14.1518 14.152 -8.95537
555 1 12.5812 12.5798 12.5818 -8.90251
556 1 14.1518 14.1518 14.1518 -8.94921
557 1 15.7242 12.5794 12.5794 -8.95042
558 1 17.2966 14.1518 14.1518 -8.94964
559 1 18.8691 12.5794 12.5794 -8.94964
560 1 20.4415 14.1518 14.1518 -8.94963
561 1 22.0139 15.7242 12.5794 -8.94963
562 1 1.57242 17.2966 14.1518 -8.94963
563 1 3.14484 15.7242 12.5794 -8.94963
564 1 4.71726 17.2966 14.1518 -8.94963
565 1 6.28967 15.7242 12.5794 -8.9495
566 1 7.8621 17.2966 14.1518 -8.94946
567 1 9.43409 15.7246 12.5798 -8.93636
568 1 11.007 17.2966 14.1518 -8.95069
569 1 12.5798 15.7246 12.5798 -8.9358
570 1 14.1518 17.2966 14.1518 -8.94944
571 1 15.7242 15.7242 12.5794 -8.9497
572 1 17.2966 17.2966 14.1518 -8.94963
573 1 18.8691 15.7242 12.5794 -8.94963
574 1 20.4415 17.2966 14.1518 -8.94963
575 1 3.60429e-11 18.8691 12.5794 -8.94963
576 1 1.57242 20.4415 14.1518 -8.94963
577 1 3.14484 18.8691 12.5794 -8.94963
578 1 4.71726 20.4415 14.1518 -8.94963
579 1 6.28969 18.8691 12.5794 -8.94965
580 1 7.86211 20.4415 14.1518 -8.94963
581 1 9.43453 18.8691 12.5794 -8.94965
582 1 11.007 20.4415 14.1518 -8.94963
583 1 12.5794 18.8691 12.5794 -8.94965
584 1 14.1518 20.4415 14.1518 -8.94963
585 1 15.7242 18.8691 12.5794 -8.94965
586 1 17.2966 20.4415 14.1518 -8.94963
587 1 18.8691 18.8691 12.5794 -8.94963
588 1 20.4415 20.4415 14.1518 -8.94963
589 1 1.57242 11.007 17.2966 -8.94963
590 1 4.71726 11.007 17.2966 -8.94963
672 1 20.4415 17.2966 20.4415 -8.94963
671 1 18.8691 15.7242 18.8691 -8.94963
670 1 17.2966 17.2966 20.4415 -8.94963
594 1 17.2966 11.007 17.2966 -8.94963
595 1 20.4415 11.007 17.2966 -8.94963
596 1 2.58941e-10 12.5794 15.7242 -8.94963
597 1 1.57242 14.1518 17.2966 -8.94963
598 1 3.14484 12.5794 15.7242 -8.94963
599 1 4.71726 14.1518 17.2966 -8.94963
600 1 6.28969 12.5794 15.7242 -8.94969
601 1 7.86211 14.1518 17.2966 -8.94963
602 1 9.43452 12.5794 15.7242 -8.95003
603 1 11.007 14.1518 17.2966 -8.9497
604 1 12.5794 12.5794 15.7242 -8.9501
605 1 14.1518 14.1518 17.2966 -8.94963
606 1 15.7242 12.5794 15.7242 -8.9497
607 1 17.2966 14.1518 17.2966 -8.94963
608 1 18.8691 12.5794 15.7242 -8.94963
609 1 20.4415 14.1518 17.2966 -8.94963
610 1 22.0139 15.7242 15.7242 -8.94963
611 1 1.57242 17.2966 17.2966 -8.94963
612 1 3.14484 15.7242 15.7242 -8.94963
613 1 4.71726 17.2966 17.2966 -8.94963
614 1 6.28969 15.7242 15.7242 -8.94964
615 1 7.86211 17.2966 17.2966 -8.94963
616 1 9.43453 15.7242 15.7242 -8.94973
617 1 11.007 17.2966 17.2966 -8.94963
618 1 12.5794 15.7242 15.7242 -8.94974
619 1 14.1518 17.2966 17.2966 -8.94963
620 1 15.7242 15.7242 15.7242 -8.94964
621 1 17.2966 17.2966 17.2966 -8.94963
622 1 18.8691 15.7242 15.7242 -8.94963
623 1 20.4415 17.2966 17.2966 -8.94963
624 1 22.0139 18.8691 15.7242 -8.94963
625 1 1.57242 20.4415 17.2966 -8.94963
626 1 3.14484 18.8691 15.7242 -8.94963
627 1 4.71726 20.4415 17.2966 -8.94963
628 1 6.28969 18.8691 15.7242 -8.94963
629 1 7.86211 20.4415 17.2966 -8.94963
630 1 9.43453 18.8691 15.7242 -8.94965
631 1 11.007 20.4415 17.2966 -8.94963
632 1 12.5794 18.8691 15.7242 -8.94965
633 1 14.1518 20.4415 17.2966 -8.94963
634 1 15.7242 18.8691 15.7242 -8.94963
635 1 17.2966 20.4415 17.2966 -8.94963
636 1 18.8691 18.8691 15.7242 -8.94963
637 1 20.4415 20.4415 17.2966 -8.94963
669 1 15.7242 15.7242 18.8691 -8.94963
639 1 4.71726 11.007 20.4415 -8.94963
668 1 14.1518 17.2966 20.4415 -8.94963
667 1 12.5794 15.7242 18.8691 -8.94963
666 1 11.007 17.2966 20.4415 -8.94963
643 1 17.2966 11.007 20.4415 -8.94963
665 1 9.43453 15.7242 18.8691 -8.94963
645 1 22.0139 12.5794 18.8691 -8.94963
646 1 1.57242 14.1518 20.4415 -8.94963
647 1 3.14484 12.5794 18.8691 -8.94963
648 1 4.71726 14.1518 20.4415 -8.94963
649 1 6.28969 12.5794 18.8691 -8.94963
650 1 7.86211 14.1518 20.4415 -8.94963
651 1 9.43453 12.5794 18.8691 -8.94964
652 1 11.007 14.1518 20.4415 -8.94963
653 1 12.5794 12.5794 18.8691 -8.94964
654 1 14.1518 14.1518 20.4415 -8.94963
655 1 15.7242 12.5794 18.8691 -8.94963
656 1 17.2966 14.1518 20.4415 -8.94963
657 1 18.8691 12.5794 18.8691 -8.94963
658 1 20.4415 14.1518 20.4415 -8.94963
659 1 22.0139 15.7242 18.8691 -8.94963
660 1 1.57242 17.2966 20.4415 -8.94963
661 1 3.14484 15.7242 18.8691 -8.94963
662 1 4.71726 17.2966 20.4415 -8.94963
663 1 6.28969 15.7242 18.8691 -8.94963
664 1 7.86211 17.2966 20.4415 -8.94963
381 1 3.14484 18.8691 22.0139 -8.94963
201 1 6.28969 22.0139 12.5794 -8.94963
355 1 6.28969 12.5794 22.0139 -8.94963
357 1 9.43453 12.5794 22.0139 -8.94963
359 1 12.5794 12.5794 22.0139 -8.94963
365 1 22.0139 15.7242 22.0139 -8.94963
367 1 3.14484 15.7242 22.0139 -8.94963
369 1 6.28969 15.7242 22.0139 -8.94963
371 1 9.43453 15.7242 22.0139 -8.94963
373 1 12.5794 15.7242 22.0139 -8.94963
375 1 15.7242 15.7242 22.0139 -8.94963
246 1 2.48135e-13 22.0139 15.7242 -8.94963
379 1 22.0139 18.8691 22.0139 -8.94963
363 1 18.8691 12.5794 22.0139 -8.94963
