ITEM: TIMESTEP
110
ITEM: NUMBER OF ATOMS
688
ITEM: BOX BOUNDS pp pp pp
0.0000000000000000e+00 2.2013900999999997e+01
0.0000000000000000e+00 2.2013900999999997e+01
0.0000000000000000e+00 2.2013900999999997e+01
ITEM: ATOMS id type x y z c_pot
7 1 9.43448 0.000218887 -0.000185811 -8.94951
2 1 1.57187 1.57238 1.57186 -8.94921
448 1 20.4439 11.0067 7.86201 -8.95096
4 1 4.71684 1.57228 1.57183 -8.9497
447 1 17.3063 11.0052 7.8594 -8.95922
6 1 7.86193 1.57222 1.57185 -8.94942
175 1 18.8715 9.43338 9.43474 -8.94803
8 1 11.007 1.57214 1.57184 -8.9495
174 1 15.7275 9.43141 9.43449 -8.94189
10 1 14.1521 1.57204 1.57192 -8.94945
446 1 14.1918 10.9751 7.81607 -8.88562
12 1 17.2972 1.57197 1.57195 -8.9496
445 1 11.0834 11.0124 7.64437 -8.08874
14 1 20.4417 1.57228 1.57208 -8.94946
444 1 7.86417 10.9859 7.84708 -8.8672
16 1 1.57204 4.71677 1.57173 -8.94953
443 1 4.71746 11.0073 7.8618 -8.94868
18 1 4.71621 4.71621 1.57113 -8.94956
442 1 1.57224 11.0069 7.86194 -8.94881
20 1 7.86164 4.71624 1.57146 -8.94918
149 1 3.14349 0.00068692 9.43445 -8.94941
22 1 11.0069 4.71597 1.57134 -8.94952
154 1 18.8696 0.0002795 9.43447 -8.9495
24 1 14.1524 4.71573 1.57119 -8.94949
188 1 17.2987 4.71508 11.0067 -8.94868
26 1 17.2982 4.71549 1.57107 -8.94851
183 1 1.57096 4.71615 11.0071 -8.9494
28 1 20.4422 4.71646 1.57166 -8.94916
397 1 14.1644 11.0047 4.69899 -8.95178
30 1 1.57215 7.86172 1.5717 -8.94935
396 1 11.0122 11.0085 4.72178 -8.99946
32 1 4.71644 7.8616 1.57122 -8.94976
395 1 7.86235 11.0057 4.71354 -8.95106
34 1 7.86176 7.86148 1.57078 -8.95164
35 1 9.43405 6.28863 -0.000353205 -8.94947
36 1 11.0067 7.86046 1.56981 -8.95001
37 1 12.5795 6.28847 -0.000589789 -8.94958
38 1 14.1535 7.86006 1.56848 -8.9515
181 1 17.2976 1.57193 11.0069 -8.94949
40 1 17.2989 7.86041 1.5698 -8.94936
346 1 7.86186 11.0068 1.57095 -8.9498
42 1 20.4424 7.86149 1.57145 -8.94936
164 1 6.28179 6.28101 9.43383 -8.9419
44 1 3.14424 9.43425 -0.000508942 -8.94938
350 1 20.4424 11.0068 1.57133 -8.94942
348 1 14.1543 11.0068 1.56663 -8.95141
347 1 11.0071 11.0068 1.57123 -8.94541
48 1 15.7257 9.43391 -0.00195675 -8.94994
163 1 3.14128 6.28748 9.43414 -8.94915
344 1 1.57201 11.0067 1.57149 -8.94945
51 1 1.57173 1.57235 4.71674 -8.94945
52 1 3.14377 0.000822638 3.1437 -8.94935
53 1 4.71611 1.57219 4.71602 -8.9501
54 1 6.28941 0.000610639 3.1439 -8.94973
55 1 7.86201 1.57204 4.71632 -8.94973
173 1 12.5737 9.4485 9.42891 -8.90436
57 1 11.0072 1.57185 4.71628 -8.94973
172 1 9.38807 9.29241 9.44631 -8.26143
59 1 14.1523 1.57157 4.71662 -8.95032
60 1 15.7246 0.000217823 3.14427 -8.95006
61 1 17.2972 1.5722 4.71685 -8.95006
62 1 18.8695 0.00045375 3.14432 -8.9496
63 1 20.4416 1.5723 4.71698 -8.94948
64 1 22.0137 3.14444 3.14436 -8.94962
65 1 1.57133 4.7164 4.7164 -8.94973
66 1 3.14361 3.14398 3.1436 -8.94888
67 1 4.71416 4.71415 4.71419 -8.94723
68 1 6.28908 3.14385 3.14369 -8.94983
69 1 7.86131 4.71451 4.71537 -8.95003
70 1 9.43437 3.14373 3.14373 -8.94933
71 1 11.0072 4.71423 4.71497 -8.94858
72 1 12.5797 3.14349 3.14371 -8.94927
73 1 14.154 4.71278 4.71475 -8.95042
74 1 15.7253 3.14308 3.14371 -8.94965
75 1 17.2984 4.71497 4.71609 -8.95051
76 1 18.8698 3.144 3.14424 -8.9498
77 1 20.4419 4.71647 4.71682 -8.94981
78 1 22.0143 6.28896 3.14402 -8.94982
79 1 1.57177 7.86153 4.71642 -8.95031
80 1 3.14349 6.28864 3.14338 -8.94953
81 1 4.71391 7.85971 4.7143 -8.94898
82 1 6.28741 6.28717 3.1414 -8.94973
83 1 7.85764 7.85599 4.70991 -8.94994
84 1 9.43394 6.28735 3.1424 -8.94763
85 1 11.0079 7.85671 4.70977 -8.94616
86 1 12.5803 6.28671 3.14145 -8.94861
87 1 14.1639 7.84955 4.70403 -8.93235
88 1 15.7284 6.2849 3.14029 -8.94534
89 1 17.3043 7.85631 4.71149 -8.94596
90 1 18.8717 6.28745 3.14274 -8.94833
91 1 20.4437 7.86086 4.71605 -8.95044
92 1 0.000429088 9.43401 3.14378 -8.94936
93 1 3.14368 9.4338 3.14338 -8.94868
94 1 6.28866 9.43369 3.1424 -8.94994
95 1 9.43574 9.434 3.14283 -8.95253
96 1 12.5816 9.43264 3.13608 -8.95864
97 1 15.7296 9.43137 3.1376 -8.94902
98 1 18.8719 9.43337 3.14249 -8.94894
99 1 22.0136 0.00031425 6.28942 -8.94947
100 1 1.57162 1.57227 7.86185 -8.94946
166 1 12.5774 6.29193 9.43564 -8.94427
102 1 4.71574 1.57201 7.86141 -8.94933
103 1 6.28867 0.00173974 6.28847 -8.95116
104 1 7.86165 1.57173 7.86151 -8.95134
105 1 9.43495 0.000750797 6.28888 -8.94989
106 1 11.0073 1.57192 7.86168 -8.94881
107 1 12.5796 0.000241635 6.28923 -8.94989
108 1 14.1522 1.57218 7.86189 -8.94989
109 1 15.7249 0.000849004 6.28923 -8.95032
110 1 17.2975 1.57207 7.86178 -8.94947
165 1 9.4336 6.28194 9.43664 -8.98357
112 1 20.4416 1.57224 7.86194 -8.9495
113 1 -0.000326459 3.14434 6.28934 -8.94941
114 1 1.57109 4.71621 7.86163 -8.94931
115 1 3.1434 3.14388 6.28883 -8.94921
116 1 4.71405 4.71423 7.86067 -8.94798
117 1 6.28806 3.14228 6.28806 -8.951
118 1 7.85966 4.71045 7.8608 -8.9556
119 1 9.4348 3.14284 6.28871 -8.95026
120 1 11.0076 4.71559 7.86153 -8.94748
121 1 12.5798 3.14265 6.28893 -8.95147
122 1 14.1523 4.71522 7.86253 -8.95157
123 1 15.7249 3.14354 6.28943 -8.95052
124 1 17.2983 4.71531 7.86157 -8.94841
125 1 18.8697 3.14409 6.28936 -8.94929
126 1 20.4419 4.71633 7.86184 -8.94942
127 1 22.0137 6.28895 6.2893 -8.94988
128 1 1.57095 7.8615 7.86188 -8.95061
129 1 3.14191 6.28799 6.28822 -8.95049
130 1 4.7111 7.8591 7.86067 -8.95429
131 1 6.28159 6.28064 6.28209 -8.94092
132 1 7.83958 7.83559 7.84515 -8.91062
133 1 9.43499 6.28326 6.28738 -8.95245
134 1 11.0173 7.86202 7.84968 -8.92227
135 1 12.5833 6.28076 6.28481 -8.95526
136 1 14.1574 7.85466 7.86137 -8.96002
137 1 15.7278 6.28488 6.28775 -8.95286
138 1 17.3003 7.8596 7.86195 -8.94909
139 1 18.8708 6.28818 6.28924 -8.94978
140 1 20.4427 7.86125 7.86206 -8.94956
141 1 22.0147 9.43413 6.28922 -8.95056
142 1 3.14299 9.43424 6.28887 -8.95147
143 1 6.28279 9.4293 6.28377 -8.94613
144 1 9.42562 9.41415 6.28044 -8.90135
145 1 12.6158 9.40186 6.25267 -8.86238
146 1 15.7446 9.42101 6.27434 -8.94007
147 1 18.8748 9.43262 6.28769 -8.95304
171 1 6.2847 9.4297 9.43554 -8.96015
170 1 3.14308 9.43442 9.43449 -8.9503
169 1 22.0141 9.43428 9.43463 -8.94956
151 1 9.43476 0.000976935 9.43415 -8.94925
152 1 12.5798 0.000497085 9.43417 -8.94881
168 1 18.871 6.28796 9.43429 -8.9493
167 1 15.728 6.28517 9.43351 -8.94424
155 1 22.0136 3.14427 9.43444 -8.94949
156 1 3.14317 3.14371 9.43431 -8.94943
157 1 6.28717 3.14157 9.43401 -8.94931
158 1 9.43452 3.14238 9.43425 -8.94996
159 1 12.5796 3.1442 9.43422 -8.94734
160 1 15.7255 3.14314 9.43402 -8.94957
161 1 18.8699 3.14397 9.43434 -8.94947
162 1 -0.000438999 6.28875 9.43443 -8.94982
177 1 4.71562 1.57181 11.0072 -8.94937
184 1 4.71349 4.71376 11.0076 -8.94826
41 1 18.8701 6.28891 -0.000691842 -8.94947
19 1 6.28932 3.14436 -0.000159452 -8.94947
25 1 15.7247 3.1441 -0.000182585 -8.94956
176 1 1.57159 1.57223 11.0071 -8.94946
199 1 3.14353 0.000573798 12.5799 -8.94927
178 1 7.86133 1.57112 11.0069 -8.95146
179 1 11.0073 1.57144 11.0067 -8.94925
180 1 14.1526 1.57167 11.0065 -8.94989
644 1 20.442 11.0069 20.4414 -8.94951
182 1 20.4417 1.5722 11.007 -8.94951
642 1 14.1526 11.0072 20.4411 -8.95051
209 1 18.8696 0.000199878 12.5795 -8.94942
185 1 7.85824 4.70799 11.008 -8.95481
186 1 11.0078 4.71258 11.0081 -8.94733
187 1 14.1537 4.71339 11.0058 -8.95022
641 1 11.0068 11.0071 20.4416 -8.94825
189 1 20.442 4.7163 11.007 -8.94949
190 1 1.57047 7.86143 11.0071 -8.95097
191 1 4.70901 7.85811 11.008 -8.9537
192 1 7.83406 7.83013 11.0264 -8.89639
193 1 11.019 7.8543 11.0351 -8.96855
194 1 14.1599 7.85202 11.004 -8.95097
195 1 17.3011 7.85921 11.0064 -8.94807
196 1 20.4427 7.86125 11.007 -8.94977
197 1 22.0136 0.000240261 12.5796 -8.94948
198 1 1.57164 1.57219 14.1523 -8.94944
343 1 18.8701 9.4345 18.8696 -8.94936
200 1 4.71572 1.57165 14.1529 -8.94983
342 1 15.7257 9.43444 18.8707 -8.94971
202 1 7.86132 1.5712 14.1531 -8.95065
203 1 9.43456 0.00130188 12.5801 -8.95146
204 1 11.0073 1.57095 14.1533 -8.95013
205 1 12.58 0.000694161 12.5798 -8.95134
206 1 14.153 1.57068 14.1528 -8.95116
341 1 12.5798 9.43413 18.8726 -8.95344
208 1 17.2976 1.57181 14.1521 -8.94973
340 1 9.43429 9.43429 18.8718 -8.95184
210 1 20.4417 1.57219 14.152 -8.94946
211 1 -0.000341677 3.14427 12.5796 -8.94944
212 1 1.57096 4.71623 14.1526 -8.94965
213 1 3.14312 3.14363 12.58 -8.94924
214 1 4.71286 4.71315 14.1552 -8.9468
215 1 6.28723 3.14108 12.5808 -8.95049
216 1 7.8587 4.70973 14.1561 -8.95167
217 1 9.43439 3.14019 12.5806 -8.95249
218 1 11.0074 4.70969 14.1568 -8.94771
219 1 12.5804 3.13994 12.5803 -8.95382
220 1 14.1568 4.70814 14.1566 -8.95159
221 1 15.7257 3.14272 12.5793 -8.94979
222 1 17.2994 4.71461 14.1529 -8.95029
223 1 18.8699 3.14397 12.5795 -8.94929
224 1 20.4421 4.71642 14.1522 -8.94972
225 1 22.0135 6.28892 12.5797 -8.94997
226 1 1.57093 7.86178 14.1526 -8.95108
227 1 3.14082 6.28759 12.5807 -8.95023
228 1 4.71022 7.8588 14.1559 -8.95175
229 1 6.27851 6.27799 12.5876 -8.93856
230 1 7.84215 7.84082 14.1744 -8.92359
231 1 9.43152 6.27183 12.5867 -8.96063
232 1 11.0077 7.84622 14.1693 -8.94366
233 1 12.5873 6.26909 12.589 -8.96163
234 1 14.1787 7.83531 14.1786 -8.90084
235 1 15.7298 6.28387 12.5805 -8.95103
236 1 17.3059 7.85728 14.1567 -8.95127
237 1 18.8714 6.28819 12.5796 -8.94947
238 1 20.4435 7.86145 14.1527 -8.95133
239 1 22.0141 9.4346 12.5796 -8.95082
240 1 3.14164 9.43484 12.5797 -8.95354
241 1 6.27509 9.42897 12.5858 -8.96076
242 1 9.3778 9.37133 12.6307 -8.78746
243 1 12.6564 9.35971 12.6524 -8.72131
244 1 15.745 9.42538 12.5886 -8.96196
245 1 18.8737 9.43403 12.58 -8.9548
47 1 12.5795 9.4342 22.0123 -8.95157
247 1 1.57177 1.57221 17.2973 -8.94931
46 1 9.43443 9.4344 22.0136 -8.94983
249 1 4.71623 1.57193 17.2978 -8.9495
250 1 6.28856 0.000767725 15.7258 -8.94983
251 1 7.86158 1.57185 17.2979 -8.94927
339 1 6.2888 9.4346 18.8704 -8.94952
253 1 11.007 1.57173 17.298 -8.94941
338 1 3.14411 9.43445 18.8696 -8.94934
255 1 14.1525 1.57164 17.2979 -8.9493
256 1 15.7255 0.000234519 15.7254 -8.9501
257 1 17.2978 1.5716 17.2977 -8.94935
45 1 6.28912 9.43436 22.0134 -8.94974
259 1 20.4418 1.57215 17.2971 -8.94959
260 1 22.0136 3.14432 15.7247 -8.94958
261 1 1.57162 4.71656 17.2976 -8.94964
262 1 3.14316 3.14359 15.7256 -8.94884
263 1 4.71463 4.71493 17.2996 -8.94758
264 1 6.28779 3.14227 15.7265 -8.94997
265 1 7.86075 4.71485 17.2995 -8.94882
266 1 9.43393 3.14212 15.7265 -8.94903
267 1 11.0069 4.71453 17.2997 -8.94907
268 1 12.5803 3.14187 15.7266 -8.94901
269 1 14.1534 4.71435 17.2998 -8.94911
270 1 15.7266 3.14155 15.7265 -8.94966
271 1 17.2998 4.71436 17.2995 -8.94636
272 1 18.8701 3.14382 15.7249 -8.94982
273 1 20.4425 4.71637 17.2976 -8.94943
274 1 22.014 6.28909 15.725 -8.95032
275 1 1.57187 7.862 17.2973 -8.94948
276 1 3.14202 6.28816 15.7263 -8.95003
277 1 4.71552 7.86169 17.2986 -8.95002
278 1 6.28226 6.28248 15.7326 -8.94253
279 1 7.85947 7.8595 17.3031 -8.95326
280 1 9.43248 6.28316 15.7311 -8.94603
281 1 11.0068 7.85842 17.3034 -8.94931
282 1 12.582 6.28254 15.7319 -8.94713
283 1 14.1558 7.85835 17.3047 -8.953
284 1 15.7335 6.28068 15.7333 -8.93735
285 1 17.2993 7.86114 17.2991 -8.94999
286 1 18.8726 6.28755 15.7264 -8.94956
287 1 20.4423 7.86192 17.2974 -8.94958
288 1 8.43033e-05 9.43453 15.725 -8.94951
289 1 3.14316 9.43451 15.7255 -8.94892
290 1 6.28666 9.43423 15.728 -8.94982
291 1 9.43214 9.42961 15.736 -8.96098
292 1 12.5847 9.42857 15.7412 -8.96525
293 1 15.7296 9.43359 15.7298 -8.9498
294 1 18.8713 9.43457 15.7256 -8.94943
295 1 22.0137 0.00016026 18.8694 -8.94916
296 1 1.5721 1.57226 20.4417 -8.94916
297 1 3.14419 0.000216166 18.8697 -8.94931
298 1 4.71689 1.57225 20.4418 -8.94953
301 1 9.43441 0.000191872 18.8699 -8.94946
300 1 7.86187 1.57218 20.4418 -8.94948
337 1 22.014 9.43447 18.8694 -8.94949
302 1 11.007 1.57213 20.4418 -8.9495
336 1 20.442 7.86189 20.4414 -8.94947
304 1 14.1521 1.57211 20.4418 -8.94947
39 1 15.7254 6.28832 22.013 -8.95018
306 1 17.2971 1.57209 20.4418 -8.94954
307 1 18.8696 4.41183e-05 18.8696 -8.94921
308 1 20.4418 1.57222 20.4416 -8.94903
309 1 22.0139 3.14444 18.8695 -8.94937
310 1 1.57216 4.71702 20.4416 -8.94967
311 1 3.14393 3.14413 18.87 -8.94896
312 1 4.71645 4.71658 20.4421 -8.94984
313 1 6.289 3.14401 18.8702 -8.94941
314 1 7.86157 4.71636 20.4422 -8.94936
315 1 9.43424 3.14385 18.8702 -8.94935
316 1 11.0068 4.71619 20.4422 -8.94949
317 1 12.5796 3.14378 18.8702 -8.94933
318 1 14.1523 4.71616 20.4422 -8.94944
319 1 15.725 3.14375 18.8702 -8.94946
320 1 17.2977 4.71617 20.442 -8.94947
321 1 18.8701 3.14395 18.8699 -8.94864
322 1 20.442 4.71687 20.4416 -8.94954
323 1 22.014 6.28949 18.8694 -8.9496
324 1 1.57217 7.86195 20.4415 -8.94945
325 1 3.14405 6.28937 18.8698 -8.94982
326 1 4.71661 7.86196 20.4418 -8.94968
327 1 6.28815 6.28838 18.8716 -8.95049
328 1 7.86155 7.8617 20.4426 -8.9508
329 1 9.43383 6.28797 18.8717 -8.94923
330 1 11.0067 7.86117 20.4426 -8.9504
331 1 12.5799 6.28784 18.8718 -8.94939
332 1 14.1526 7.86125 20.4424 -8.95124
333 1 15.7263 6.28772 18.8719 -8.95012
334 1 17.2978 7.86158 20.4415 -8.94965
335 1 18.8702 6.28906 18.8699 -8.94972
512 1 1.57211 11.0072 11.0069 -8.94809
513 1 4.71835 11.0084 11.0056 -8.94686
514 1 7.86821 10.9904 11.0195 -8.88342
515 1 11.0577 10.8013 11.3121 -7.306
516 1 14.1611 10.9839 11.0297 -8.92028
517 1 17.2994 11.0068 11.0061 -8.95127
518 1 20.4425 11.0071 11.0069 -8.9491
540 1 1.57132 11.007 14.1528 -8.94945
541 1 4.71406 11.0071 14.1543 -8.94601
542 1 7.8595 11.008 14.1569 -8.94678
543 1 11.0104 10.9938 14.1505 -9.01922
544 1 14.1602 11.0094 14.1621 -8.94775
545 1 17.3008 11.008 14.154 -8.94825
546 1 20.4426 11.0072 14.1526 -8.94969
591 1 7.86119 11.0074 17.2988 -8.94932
592 1 11.0073 11.0068 17.2981 -8.94669
593 1 14.1541 11.0079 17.3003 -8.94999
638 1 1.5721 11.0069 20.4415 -8.94952
640 1 7.86165 11.007 20.4417 -8.94962
3 1 3.14443 0.00027149 22.0136 -8.94959
5 1 6.28946 0.000229648 22.0137 -8.94946
11 1 15.7245 0.000117874 22.0138 -8.94948
13 1 18.8694 0.000141625 22.0137 -8.94946
15 1 22.0139 3.14457 22.0136 -8.94933
17 1 3.1443 3.14438 22.0136 -8.94947
303 1 12.5796 0.000149045 18.8699 -8.94946
33 1 6.28903 6.28908 22.0136 -8.95055
27 1 18.8697 3.14418 22.0137 -8.94919
29 1 22.0141 6.2894 22.0136 -8.94948
31 1 3.14436 6.28938 22.0135 -8.94968
1 1 22.0137 0.000197512 22.0136 -8.94903
21 1 9.43435 3.14421 22.0137 -8.94949
9 1 12.5795 0.000185531 22.0137 -8.9495
23 1 12.5795 3.14414 22.0137 -8.94949
43 1 22.014 9.43433 22.0135 -8.94949
49 1 18.8702 9.43418 22.013 -8.94937
687 3 10.9623 12.4658 10.1715 2.2245
345 1 4.71611 11.0064 1.57077 -8.94928
511 1 18.8701 18.8704 9.43462 -8.94952
510 1 15.7265 18.8721 9.43423 -8.94858
509 1 12.5799 18.8707 9.43392 -8.94748
349 1 17.2991 11.0066 1.56958 -8.94919
508 1 9.43334 18.8737 9.43371 -8.94733
351 1 22.014 12.5794 -0.00049591 -8.94951
352 1 1.5719 14.1518 1.57141 -8.94936
353 1 3.14414 12.5792 -0.000672634 -8.94948
354 1 4.71591 14.1518 1.57016 -8.94943
538 1 17.2978 20.4426 11.0071 -8.94933
356 1 7.86148 14.1523 1.5678 -8.9548
153 1 15.7252 22.0145 9.43425 -8.94973
358 1 11.0067 14.1529 1.56994 -8.94803
150 1 6.28816 22.0154 9.43422 -8.95013
360 1 14.1538 14.1537 1.56667 -8.95304
361 1 15.7258 12.5798 -0.00231254 -8.94966
362 1 17.299 14.1529 1.56956 -8.94894
111 1 18.8696 22.0143 6.28939 -8.94945
364 1 20.4424 14.1521 1.57132 -8.94937
537 1 14.1528 20.4435 11.0067 -8.95026
366 1 1.57162 17.2973 1.57124 -8.94972
148 1 -0.000348896 22.0142 9.43452 -8.9495
368 1 4.71506 17.2988 1.5689 -8.94956
58 1 12.5797 22.0143 3.14402 -8.94947
370 1 7.86188 17.2981 1.57012 -8.94947
56 1 9.43462 22.0144 3.14391 -8.94949
372 1 11.0072 17.2984 1.57051 -8.9493
536 1 11.0072 20.4439 11.007 -8.94996
374 1 14.1522 17.2981 1.57068 -8.94978
534 1 4.71494 20.4442 11.0075 -8.94903
376 1 17.2987 17.2989 1.56975 -8.94833
493 1 6.29094 12.5925 9.43112 -9.01923
378 1 20.4422 17.2974 1.57141 -8.94947
492 1 3.14343 12.5795 9.43421 -8.94669
380 1 1.57156 20.4424 1.57139 -8.94864
491 1 22.0138 12.5792 9.43467 -8.94825
382 1 4.71661 20.4425 1.57133 -8.94982
490 1 20.4416 20.4422 7.86199 -8.94949
384 1 7.86201 20.4423 1.57156 -8.94929
385 1 9.43449 18.87 -0.000495742 -8.94949
386 1 11.0071 20.4423 1.57161 -8.94947
387 1 12.5796 18.87 -0.000428632 -8.94942
388 1 14.1521 20.4422 1.57178 -8.94929
489 1 18.8703 18.8706 6.28905 -8.94949
390 1 17.2972 20.4423 1.57168 -8.9498
488 1 17.2978 20.4428 7.86178 -8.94927
392 1 20.4417 20.4421 1.57175 -8.94919
507 1 6.28469 18.8766 9.43412 -8.94771
506 1 3.1418 18.8718 9.43457 -8.94907
505 1 22.0132 18.8701 9.43465 -8.94949
504 1 18.8717 15.7259 9.43477 -8.95001
503 1 15.7317 15.7296 9.4336 -8.94616
502 1 12.5918 15.7243 9.42422 -8.92227
501 1 9.40636 15.732 9.42248 -8.96855
400 1 0.000282784 12.5793 3.14364 -8.94947
401 1 1.57077 14.1519 4.71574 -8.94971
402 1 3.14323 12.5789 3.14288 -8.94902
403 1 4.71163 14.1527 4.71189 -8.9498
404 1 6.28744 12.5783 3.14068 -8.94825
405 1 7.85287 14.1609 4.69647 -8.96196
406 1 9.43542 12.5795 3.14208 -8.95127
407 1 11.007 14.1549 4.71395 -8.94189
408 1 12.5821 12.5811 3.13521 -8.95922
409 1 14.1671 14.1653 4.69687 -8.94007
410 1 15.7299 12.5807 3.13746 -8.94731
411 1 17.3039 14.155 4.71192 -8.94902
412 1 18.8719 12.5797 3.14242 -8.94919
413 1 20.4434 14.1524 4.71579 -8.94994
414 1 22.0139 15.7247 3.14368 -8.94965
415 1 1.56955 17.2986 4.71519 -8.95012
416 1 3.1424 15.7252 3.14222 -8.94999
417 1 4.7082 17.3056 4.70796 -8.93735
418 1 6.28473 15.729 3.13557 -8.95127
419 1 7.86103 17.3025 4.71165 -8.95103
420 1 9.43508 15.7271 3.14039 -8.94807
421 1 11.008 17.3012 4.71345 -8.94424
422 1 12.5795 15.7267 3.14116 -8.94909
423 1 14.1537 17.3014 4.71369 -8.95286
424 1 15.73 15.73 3.13714 -8.94596
425 1 17.3012 17.3014 4.71304 -8.94534
426 1 18.8717 15.7259 3.14256 -8.94936
427 1 20.4424 17.298 4.7161 -8.95018
428 1 22.0133 18.8702 3.14373 -8.94947
429 1 1.57129 20.4426 4.71644 -8.94946
430 1 3.14193 18.872 3.14173 -8.94636
431 1 4.71501 20.4448 4.71484 -8.94966
432 1 6.2886 18.8717 3.1421 -8.95029
433 1 7.86219 20.4436 4.71582 -8.94979
434 1 9.43475 18.8712 3.14282 -8.94868
435 1 11.0075 20.4432 4.71593 -8.94957
436 1 12.5799 18.871 3.14321 -8.94841
437 1 14.152 20.4428 4.71657 -8.95052
438 1 15.7254 18.8714 3.14308 -8.95051
439 1 17.2978 20.4432 4.71621 -8.94965
440 1 18.8704 18.8708 3.14329 -8.94851
441 1 20.4417 20.4422 4.71679 -8.94956
500 1 6.2722 15.7401 9.43377 -8.94366
499 1 3.13813 15.7279 9.43464 -8.94931
498 1 -0.00114024 15.7251 9.43477 -8.9504
497 1 18.8702 12.5795 9.43436 -8.94541
496 1 15.7197 12.5778 9.42926 -8.99946
495 1 12.7971 12.5739 9.35809 -8.08871
494 1 9.12933 12.785 9.38377 -7.3063
449 1 22.0143 12.5792 6.28885 -8.95051
450 1 1.56892 14.1522 7.86168 -8.95344
451 1 3.14113 12.5784 6.2874 -8.94999
452 1 4.70028 14.1578 7.85677 -8.96525
453 1 6.27933 12.5769 6.28126 -8.94775
454 1 7.78905 14.2266 7.7851 -8.7212
455 1 9.4118 12.6025 6.28039 -8.92029
456 1 11.0126 14.1378 7.86781 -8.90438
457 1 12.6254 12.6112 6.2497 -8.88562
458 1 14.1888 14.1845 7.82568 -8.86239
459 1 15.7425 12.5816 6.27706 -8.95178
460 1 17.3054 14.1537 7.85986 -8.95864
461 1 18.8749 12.5795 6.2872 -8.95141
462 1 20.443 14.1521 7.86198 -8.95157
463 1 22.0129 15.7251 6.2889 -8.95124
464 1 1.56963 17.2985 7.86159 -8.94939
465 1 3.13681 15.728 6.2857 -8.953
466 1 4.70954 17.3038 7.85944 -8.94713
467 1 6.26286 15.751 6.26277 -8.90084
468 1 7.85251 17.3172 7.85413 -8.96163
469 1 9.43747 15.7343 6.2816 -8.95097
470 1 11.0058 17.2944 7.86411 -8.94427
471 1 12.5801 15.7317 6.28407 -8.96002
472 1 14.1567 17.3056 7.85818 -8.95526
473 1 15.7375 15.7368 6.27754 -8.93235
474 1 17.3 17.2996 7.86114 -8.94861
475 1 18.873 15.7263 6.28801 -8.9515
476 1 20.4421 17.2979 7.86194 -8.94958
477 1 -0.000683845 18.8702 6.28921 -8.94944
478 1 1.57124 20.4425 7.86185 -8.94933
479 1 3.14172 18.872 6.28804 -8.94911
480 1 4.71492 20.4445 7.86122 -8.94901
481 1 6.28483 18.8782 6.28464 -8.95159
482 1 7.86115 20.4464 7.86105 -8.95382
483 1 9.43571 18.8729 6.28781 -8.95022
484 1 11.0073 20.4421 7.86183 -8.94734
485 1 12.5789 18.8711 6.28915 -8.95157
486 1 14.1525 20.4437 7.86165 -8.95147
487 1 15.7267 18.8735 6.2875 -8.95042
530 1 14.1541 17.3031 11.0065 -8.95245
531 1 17.2991 17.299 11.0075 -8.94763
399 1 20.4438 11.0065 4.71569 -8.94966
398 1 17.304 11.0056 4.71156 -8.94731
394 1 4.71425 11.0053 4.71382 -8.94522
393 1 1.57153 11.0064 4.71586 -8.94935
50 1 -0.000291346 22.0142 3.1444 -8.94954
688 3 10.27 11.1204 9.47927 2.22452
101 1 3.14359 22.0147 6.289 -8.9493
526 1 1.56979 17.2983 11.0077 -8.94923
527 1 4.71039 17.3032 11.009 -8.94603
532 1 20.4418 17.2977 11.0074 -8.94947
383 1 6.2893 18.8699 -0.000638164 -8.94972
377 1 18.87 15.7248 -0.000943055 -8.94936
686 1 20.4417 20.4417 20.4414 -8.94933
685 1 18.8698 18.8696 18.8694 -8.94953
684 1 17.2971 20.4419 20.4417 -8.94962
683 1 15.7251 18.8699 18.8702 -8.94973
682 1 14.1521 20.442 20.4418 -8.94941
681 1 12.5798 18.8701 18.8704 -8.94931
680 1 11.007 20.4421 20.4418 -8.94949
519 1 1.5697 14.152 11.0072 -8.95184
520 1 4.70548 14.1567 11.0093 -8.96098
521 1 7.81074 14.215 11.0637 -8.7874
522 1 10.9952 14.2939 11.0534 -8.26152
523 1 14.161 14.1722 11.0159 -8.90135
524 1 17.2987 14.1523 11.0057 -8.95253
525 1 20.4418 14.1519 11.0071 -8.94983
305 1 15.7247 22.014 18.8698 -8.94945
299 1 6.28922 22.0141 18.8698 -8.94944
528 1 7.85477 17.3145 11.01 -8.96063
529 1 11.0048 17.3044 11.0079 -8.98358
391 1 18.8698 18.8699 22.0131 -8.94916
389 1 15.7247 18.8699 22.0134 -8.94981
258 1 18.8696 22.014 15.7246 -8.9497
533 1 1.57125 20.4425 11.0072 -8.94935
254 1 12.5801 22.0143 15.7257 -8.94933
535 1 7.8609 20.4461 11.0071 -8.95249
252 1 9.43429 22.0145 15.7259 -8.94937
248 1 3.14363 22.0144 15.7253 -8.9495
207 1 15.7252 22.0143 12.5795 -8.94973
539 1 20.4416 20.4421 11.0071 -8.94949
679 1 9.43435 18.8702 18.8705 -8.9494
678 1 7.86188 20.442 20.4418 -8.94944
677 1 6.28884 18.8701 18.8705 -8.94965
676 1 4.71677 20.442 20.4417 -8.94958
675 1 3.14387 18.8698 18.8699 -8.94964
674 1 1.57196 20.4419 20.4414 -8.94937
673 1 22.0138 18.8693 18.8693 -8.94967
547 1 22.0136 12.5793 12.5798 -8.94962
548 1 1.57107 14.1517 14.1527 -8.94952
549 1 3.14264 12.5789 12.5803 -8.94932
550 1 4.7135 14.1521 14.1548 -8.94982
551 1 6.28458 12.5784 12.582 -8.94678
552 1 7.85565 14.1574 14.1664 -8.96076
553 1 9.422 12.596 12.5733 -8.8834
554 1 11.0059 14.1566 14.1568 -8.96015
555 1 12.5944 12.6004 12.5773 -8.86719
556 1 14.1577 14.157 14.1587 -8.94613
557 1 15.7279 12.5806 12.5791 -8.95106
558 1 17.2991 14.1526 14.1528 -8.94994
559 1 18.8705 12.5796 12.5796 -8.9498
560 1 20.442 14.152 14.1524 -8.94974
561 1 22.0128 15.7246 12.5799 -8.9508
562 1 1.56984 17.2979 14.1533 -8.95049
563 1 3.13842 15.7268 12.582 -8.95326
564 1 4.70883 17.3038 14.1592 -8.94253
565 1 6.26706 15.7455 12.5993 -8.92359
566 1 7.85385 17.3083 14.163 -8.93856
567 1 9.41508 15.7562 12.6074 -8.89639
568 1 11.0076 17.3053 14.1597 -8.9419
569 1 12.5963 15.7507 12.6019 -8.91062
570 1 14.1594 17.3057 14.1599 -8.94092
571 1 15.7316 15.7303 12.5838 -8.94994
572 1 17.3001 17.2992 14.1541 -8.94973
573 1 18.8707 15.7248 12.5797 -8.95164
574 1 20.4418 17.2972 14.1524 -8.95055
575 1 -0.000696744 18.87 12.5799 -8.94936
576 1 1.57133 20.4423 14.1525 -8.94941
577 1 3.14198 18.8715 12.5807 -8.94882
578 1 4.71499 20.4441 14.1537 -8.94997
579 1 6.28537 18.8766 12.5828 -8.95167
580 1 7.86068 20.4452 14.1542 -8.95049
581 1 9.43347 18.8783 12.5832 -8.95481
582 1 11.0075 20.4448 14.1543 -8.94931
583 1 12.5807 18.8759 12.5818 -8.9556
584 1 14.1534 20.444 14.1534 -8.951
585 1 15.7261 18.8718 12.5802 -8.95003
586 1 17.2978 20.4425 14.1524 -8.94983
587 1 18.87 18.8701 12.5798 -8.94918
588 1 20.4416 20.442 14.1522 -8.94947
589 1 1.57186 11.007 17.2974 -8.94948
590 1 4.7158 11.0069 17.2982 -8.94901
672 1 20.4418 17.2969 20.4413 -8.94948
671 1 18.8698 15.7246 18.8693 -8.94935
670 1 17.2975 17.2974 20.4411 -8.94982
594 1 17.2986 11.0074 17.2982 -8.94902
595 1 20.4422 11.0071 17.2973 -8.94948
596 1 -7.43425e-05 12.5795 15.725 -8.94956
597 1 1.57183 14.1519 17.2974 -8.94934
598 1 3.14324 12.5794 15.7257 -8.94901
599 1 4.71598 14.1518 17.2983 -8.94892
600 1 6.28722 12.5792 15.7274 -8.94601
601 1 7.86176 14.1515 17.2998 -8.95354
602 1 9.43589 12.578 15.7231 -8.94686
603 1 11.007 14.1519 17.2984 -8.9503
604 1 12.5797 12.579 15.724 -8.94868
605 1 14.1526 14.1521 17.2985 -8.95147
606 1 15.7277 12.5811 15.7272 -8.94522
607 1 17.2981 14.1525 17.2978 -8.94868
608 1 18.8707 12.58 15.7254 -8.94928
609 1 20.442 14.1521 17.2972 -8.94938
610 1 22.0136 15.7244 15.7249 -8.94968
611 1 1.57164 17.2969 17.2974 -8.94982
612 1 3.14286 15.7246 15.726 -8.95002
613 1 4.71518 17.2982 17.2995 -8.95003
614 1 6.28559 15.7275 15.7313 -8.95175
615 1 7.86077 17.2987 17.3007 -8.95023
616 1 9.43352 15.7282 15.7325 -8.9537
617 1 11.0073 17.2988 17.3002 -8.94915
618 1 12.5808 15.7272 15.7304 -8.95429
619 1 14.1533 17.2983 17.2996 -8.95049
620 1 15.7272 15.7266 15.7276 -8.94898
621 1 17.2981 17.2977 17.298 -8.94953
622 1 18.8703 15.7247 15.725 -8.94976
623 1 20.4418 17.2969 17.2971 -8.94968
624 1 22.0133 18.8697 15.725 -8.94984
625 1 1.57146 20.4422 17.2975 -8.94896
626 1 3.14187 18.8714 15.7269 -8.94758
627 1 4.71586 20.4427 17.2983 -8.94884
628 1 6.28628 18.8732 15.7286 -8.9468
629 1 7.86148 20.4427 17.2984 -8.94924
630 1 9.43389 18.8726 15.728 -8.94826
631 1 11.0072 20.4426 17.2983 -8.94943
632 1 12.5808 18.8721 15.7274 -8.94798
633 1 14.1527 20.4424 17.2981 -8.94921
634 1 15.7273 18.8722 15.7273 -8.94723
635 1 17.2979 20.4423 17.2979 -8.94888
636 1 18.8703 18.8701 15.7253 -8.94956
637 1 20.4417 20.4419 17.2972 -8.94947
669 1 15.7251 15.7248 18.8697 -8.95031
639 1 4.71646 11.0068 20.4416 -8.94956
668 1 14.1522 17.2974 20.4417 -8.94988
667 1 12.5796 15.7248 18.8705 -8.95061
666 1 11.007 17.2976 20.4419 -8.94982
643 1 17.2978 11.007 20.4412 -8.94947
665 1 9.43443 15.7249 18.871 -8.95097
645 1 22.0139 12.5795 18.8694 -8.94952
646 1 1.57209 14.1519 20.4414 -8.94949
647 1 3.14408 12.5794 18.8696 -8.94948
648 1 4.7165 14.1518 20.4414 -8.94951
649 1 6.28871 12.5793 18.8702 -8.94945
650 1 7.86187 14.1517 20.4413 -8.95082
651 1 9.43454 12.5792 18.8694 -8.94809
652 1 11.0069 14.152 20.4413 -8.94956
653 1 12.5795 12.5795 18.8692 -8.94881
654 1 14.1523 14.1522 20.4406 -8.95056
655 1 15.7256 12.58 18.8699 -8.94935
656 1 17.2977 14.1523 20.4411 -8.94936
657 1 18.87 12.5797 18.8695 -8.94945
658 1 20.4419 14.152 20.4413 -8.94949
659 1 22.0139 15.7244 18.8693 -8.94945
660 1 1.57207 17.2968 20.4414 -8.9496
661 1 3.14414 15.7243 18.8696 -8.94948
662 1 4.71645 17.2972 20.4413 -8.95032
663 1 6.28892 15.7245 18.8705 -8.95108
664 1 7.86176 17.2974 20.4419 -8.94997
381 1 3.14392 18.87 22.0129 -8.94943
201 1 6.28838 22.0151 12.5802 -8.95065
355 1 6.28889 12.5791 22.0128 -8.94969
357 1 9.43461 12.5792 22.0129 -8.9491
359 1 12.5795 12.5796 22.0115 -8.95096
365 1 22.014 15.7244 22.0134 -8.94947
367 1 3.14411 15.7244 22.0131 -8.94958
369 1 6.28883 15.7249 22.0119 -8.95133
371 1 9.43446 15.7251 22.0127 -8.94977
373 1 12.5794 15.7251 22.0127 -8.94956
375 1 15.7254 15.7255 22.0117 -8.95044
246 1 -0.000294353 22.0141 15.7246 -8.94953
379 1 22.0138 18.8695 22.0134 -8.94954
363 1 18.8702 12.5795 22.013 -8.94942
