ITEM: TIMESTEP
102
ITEM: NUMBER OF ATOMS
688
ITEM: BOX BOUNDS pp pp pp
0.0000000000000000e+00 2.2013900999999997e+01
0.0000000000000000e+00 2.2013900999999997e+01
0.0000000000000000e+00 2.2013900999999997e+01
ITEM: ATOMS id type x y z c_pot
7 1 9.43449 0.000205444 -0.000181631 -8.94952
2 1 1.5719 1.57237 1.5719 -8.94922
448 1 20.4438 11.0067 7.86204 -8.95096
4 1 4.71688 1.57228 1.57187 -8.9497
447 1 17.3062 11.0053 7.85951 -8.95922
6 1 7.86195 1.57222 1.57187 -8.94943
175 1 18.8715 9.43341 9.43477 -8.94803
8 1 11.007 1.57215 1.57186 -8.94951
174 1 15.7275 9.43149 9.43454 -8.94184
10 1 14.1521 1.57207 1.57194 -8.94946
446 1 14.1917 10.9752 7.81631 -8.88575
12 1 17.2971 1.57199 1.57198 -8.9496
445 1 11.0834 11.0125 7.64473 -8.08904
14 1 20.4417 1.57229 1.57211 -8.94948
444 1 7.86397 10.9855 7.84691 -8.86685
16 1 1.57206 4.7168 1.57177 -8.94953
443 1 4.71737 11.0072 7.86179 -8.94872
18 1 4.71625 4.71624 1.57116 -8.94957
442 1 1.57219 11.0069 7.86195 -8.94883
20 1 7.86167 4.71627 1.57146 -8.94918
149 1 3.14357 0.000632764 9.43446 -8.94941
22 1 11.0069 4.71602 1.57136 -8.94952
154 1 18.8696 0.000269067 9.43448 -8.94951
24 1 14.1524 4.7158 1.57123 -8.9495
188 1 17.2986 4.71516 11.0067 -8.94869
26 1 17.2981 4.71558 1.57113 -8.94851
183 1 1.57101 4.71619 11.0071 -8.9494
28 1 20.4422 4.71652 1.57171 -8.94917
397 1 14.1642 11.0047 4.6992 -8.95177
30 1 1.57214 7.86175 1.57174 -8.94936
396 1 11.0121 11.0084 4.72168 -8.99935
32 1 4.71645 7.86163 1.57123 -8.94975
395 1 7.86236 11.0056 4.71351 -8.95114
34 1 7.86175 7.8615 1.57076 -8.95163
35 1 9.43407 6.28867 -0.000386314 -8.94947
36 1 11.0067 7.86049 1.56981 -8.95
37 1 12.5795 6.28852 -0.000599058 -8.94957
38 1 14.1534 7.86012 1.56855 -8.95148
181 1 17.2975 1.57196 11.0069 -8.9495
40 1 17.2988 7.8605 1.5699 -8.94937
346 1 7.86185 11.0067 1.57093 -8.9498
42 1 20.4424 7.86154 1.57151 -8.94937
164 1 6.28177 6.28103 9.4338 -8.9419
44 1 3.14426 9.43427 -0.000493186 -8.94939
350 1 20.4424 11.0068 1.5714 -8.94943
348 1 14.1542 11.0068 1.56674 -8.95139
347 1 11.0071 11.0068 1.57119 -8.94544
48 1 15.7256 9.43394 -0.00188772 -8.94992
163 1 3.14131 6.28752 9.43415 -8.94915
344 1 1.57201 11.0067 1.57154 -8.94946
51 1 1.57178 1.57233 4.71679 -8.94946
52 1 3.14383 0.000762781 3.14378 -8.94936
53 1 4.71617 1.57215 4.71608 -8.95009
54 1 6.28944 0.000558247 3.14396 -8.94973
55 1 7.86202 1.57202 4.71635 -8.94971
173 1 12.5735 9.44846 9.42904 -8.90431
57 1 11.0072 1.57185 4.71631 -8.94973
172 1 9.38762 9.29128 9.44606 -8.26082
59 1 14.1522 1.57159 4.71664 -8.95032
60 1 15.7246 0.000203744 3.1443 -8.95005
61 1 17.2972 1.57222 4.71688 -8.95005
62 1 18.8695 0.000428486 3.14436 -8.9496
63 1 20.4416 1.57231 4.71702 -8.94949
64 1 22.0137 3.14446 3.1444 -8.94963
65 1 1.57134 4.71643 4.71644 -8.94973
66 1 3.14366 3.14399 3.14364 -8.94887
67 1 4.71418 4.71416 4.71421 -8.94717
68 1 6.28911 3.14387 3.14373 -8.94982
69 1 7.86133 4.71454 4.71538 -8.95
70 1 9.43438 3.14375 3.14376 -8.94934
71 1 11.0072 4.71427 4.71501 -8.94856
72 1 12.5797 3.14353 3.14374 -8.94927
73 1 14.1539 4.71284 4.7148 -8.95041
74 1 15.7252 3.14314 3.14375 -8.94964
75 1 17.2983 4.71506 4.71615 -8.9505
76 1 18.8697 3.14405 3.14429 -8.9498
77 1 20.4419 4.71651 4.71686 -8.94981
78 1 22.0142 6.28901 3.14407 -8.94981
79 1 1.57175 7.86156 4.71645 -8.9503
80 1 3.14351 6.28868 3.14341 -8.94952
81 1 4.7139 7.85975 4.7143 -8.94893
82 1 6.28744 6.28722 3.14142 -8.94975
83 1 7.85764 7.85605 4.70988 -8.95006
84 1 9.43394 6.28739 3.1424 -8.94765
85 1 11.0078 7.85676 4.70978 -8.94624
86 1 12.5803 6.28678 3.14151 -8.94863
87 1 14.1638 7.84966 4.70418 -8.93238
88 1 15.7283 6.28502 3.1404 -8.94535
89 1 17.3042 7.85643 4.71163 -8.94597
90 1 18.8716 6.28754 3.14282 -8.94833
91 1 20.4436 7.86091 4.7161 -8.95043
92 1 0.000380333 9.43405 3.14384 -8.94937
93 1 3.14369 9.43385 3.14342 -8.94869
94 1 6.28864 9.43371 3.14238 -8.94996
95 1 9.43569 9.43399 3.14278 -8.95248
96 1 12.5815 9.43265 3.13614 -8.95859
97 1 15.7294 9.43144 3.13778 -8.94903
98 1 18.8718 9.43344 3.14261 -8.94896
99 1 22.0136 0.000283007 6.28945 -8.94949
100 1 1.57167 1.57227 7.86188 -8.94947
166 1 12.5774 6.29187 9.43553 -8.94422
102 1 4.71581 1.57198 7.86145 -8.94933
103 1 6.28872 0.00165477 6.28853 -8.95115
104 1 7.86168 1.57169 7.86153 -8.95134
105 1 9.43495 0.000714771 6.28891 -8.94988
106 1 11.0073 1.57192 7.86169 -8.94883
107 1 12.5796 0.000240665 6.28924 -8.94989
108 1 14.1522 1.57218 7.8619 -8.94989
109 1 15.7248 0.000829091 6.28925 -8.95032
110 1 17.2974 1.57209 7.8618 -8.94947
165 1 9.43349 6.28221 9.43648 -8.98375
112 1 20.4416 1.57224 7.86196 -8.94951
113 1 -0.000311321 3.14436 6.28937 -8.94942
114 1 1.57112 4.71624 7.86166 -8.94932
115 1 3.14346 3.14389 6.28887 -8.94921
116 1 4.7141 4.71426 7.86069 -8.94796
117 1 6.28809 3.14227 6.28808 -8.95102
118 1 7.85967 4.71044 7.86078 -8.95569
119 1 9.4348 3.14284 6.28872 -8.95026
120 1 11.0075 4.71558 7.86153 -8.94756
121 1 12.5798 3.14267 6.28896 -8.95148
122 1 14.1523 4.71523 7.86253 -8.95153
123 1 15.7249 3.14358 6.28945 -8.95049
124 1 17.2982 4.71537 7.8616 -8.94842
125 1 18.8697 3.14413 6.28939 -8.94929
126 1 20.4419 4.71638 7.86186 -8.94943
127 1 22.0136 6.28898 6.28932 -8.94988
128 1 1.57091 7.86152 7.86188 -8.95063
129 1 3.14191 6.28801 6.28824 -8.9505
130 1 4.71101 7.85911 7.86064 -8.95435
131 1 6.28151 6.28059 6.28201 -8.94079
132 1 7.83926 7.83538 7.84481 -8.91019
133 1 9.43497 6.28326 6.28733 -8.95241
134 1 11.0173 7.86191 7.84953 -8.92199
135 1 12.5833 6.28077 6.28482 -8.95523
136 1 14.1573 7.85474 7.86145 -8.9601
137 1 15.7277 6.28497 6.28783 -8.95286
138 1 17.3002 7.85967 7.86201 -8.9491
139 1 18.8707 6.28825 6.28928 -8.94978
140 1 20.4426 7.86128 7.86208 -8.94957
141 1 22.0147 9.43416 6.28924 -8.95056
142 1 3.14293 9.43426 6.28887 -8.95146
143 1 6.28267 9.42927 6.28368 -8.94594
144 1 9.42567 9.41415 6.28048 -8.90154
145 1 12.6156 9.40196 6.25283 -8.86242
146 1 15.7444 9.4211 6.27453 -8.94007
147 1 18.8747 9.43267 6.28777 -8.95303
171 1 6.28452 9.4296 9.43548 -8.96026
170 1 3.143 9.43442 9.43449 -8.95032
169 1 22.0141 9.43429 9.43464 -8.94957
151 1 9.43477 0.000957251 9.43417 -8.94926
152 1 12.5798 0.000503125 9.43418 -8.94883
168 1 18.8709 6.28802 9.4343 -8.94931
167 1 15.728 6.28524 9.43351 -8.94426
155 1 22.0136 3.14429 9.43445 -8.9495
156 1 3.14325 3.14374 9.43433 -8.94944
157 1 6.28723 3.14159 9.43402 -8.94931
158 1 9.43452 3.14241 9.43422 -8.94986
159 1 12.5796 3.14418 9.4342 -8.94737
160 1 15.7255 3.14318 9.43404 -8.94957
161 1 18.8698 3.14401 9.43436 -8.94948
162 1 -0.000446315 6.28879 9.43444 -8.94982
177 1 4.7157 1.5718 11.0072 -8.94937
184 1 4.71358 4.71383 11.0076 -8.94825
41 1 18.87 6.28897 -0.000657017 -8.94948
19 1 6.28936 3.14439 -0.000168811 -8.94948
25 1 15.7246 3.14415 -0.000183791 -8.94957
176 1 1.57165 1.57223 11.0071 -8.94948
199 1 3.14362 0.000529926 12.5799 -8.94928
178 1 7.86137 1.57113 11.0069 -8.95145
179 1 11.0073 1.57146 11.0067 -8.94926
180 1 14.1526 1.57171 11.0065 -8.94988
644 1 20.4419 11.0069 20.4414 -8.94952
182 1 20.4417 1.57222 11.007 -8.94952
642 1 14.1526 11.0072 20.4411 -8.95049
209 1 18.8696 0.000199115 12.5795 -8.94943
185 1 7.8583 4.70807 11.0079 -8.95489
186 1 11.0077 4.71261 11.008 -8.94748
187 1 14.1536 4.71347 11.0057 -8.9502
641 1 11.0068 11.0071 20.4416 -8.94828
189 1 20.442 4.71635 11.007 -8.9495
190 1 1.57046 7.86146 11.0071 -8.95097
191 1 4.70899 7.85817 11.008 -8.95375
192 1 7.83384 7.83007 11.0265 -8.89595
193 1 11.019 7.85412 11.0349 -8.96807
194 1 14.1598 7.85216 11.0039 -8.95093
195 1 17.301 7.85929 11.0064 -8.94808
196 1 20.4427 7.86128 11.007 -8.94977
197 1 22.0136 0.000222466 12.5796 -8.94949
198 1 1.5717 1.5722 14.1522 -8.94945
343 1 18.87 9.4345 18.8696 -8.94937
200 1 4.71581 1.57167 14.1529 -8.94983
342 1 15.7257 9.43446 18.8707 -8.9497
202 1 7.86137 1.57125 14.153 -8.95063
203 1 9.43457 0.00129413 12.5801 -8.95145
204 1 11.0072 1.57102 14.1532 -8.95012
205 1 12.5799 0.000728178 12.5798 -8.95134
206 1 14.153 1.57077 14.1528 -8.95115
341 1 12.5798 9.43417 18.8725 -8.95342
208 1 17.2975 1.57186 14.152 -8.94973
340 1 9.43429 9.43434 18.8717 -8.95181
210 1 20.4417 1.57221 14.152 -8.94947
211 1 -0.000321535 3.14431 12.5796 -8.94945
212 1 1.57101 4.71627 14.1526 -8.94965
213 1 3.14321 3.14367 12.58 -8.94925
214 1 4.71297 4.71325 14.1551 -8.94677
215 1 6.28732 3.14116 12.5807 -8.9505
216 1 7.85881 4.70992 14.156 -8.95163
217 1 9.4344 3.14028 12.5805 -8.95247
218 1 11.0073 4.70989 14.1566 -8.94769
219 1 12.5804 3.14004 12.5803 -8.95382
220 1 14.1567 4.70834 14.1565 -8.95158
221 1 15.7256 3.14282 12.5793 -8.94978
222 1 17.2992 4.71474 14.1528 -8.95029
223 1 18.8699 3.14403 12.5795 -8.9493
224 1 20.4421 4.71648 14.1522 -8.94972
225 1 22.0135 6.28895 12.5797 -8.94996
226 1 1.57097 7.8618 14.1525 -8.95105
227 1 3.14089 6.28765 12.5807 -8.95023
228 1 4.71036 7.85892 14.1558 -8.95172
229 1 6.27857 6.27809 12.5876 -8.93845
230 1 7.84236 7.84113 14.1742 -8.92382
231 1 9.43156 6.27201 12.5865 -8.96054
232 1 11.0077 7.84651 14.169 -8.94368
233 1 12.5873 6.26926 12.5888 -8.96159
234 1 14.1785 7.83558 14.1784 -8.90091
235 1 15.7297 6.28404 12.5803 -8.95104
236 1 17.3057 7.85741 14.1566 -8.95127
237 1 18.8713 6.28826 12.5796 -8.94947
238 1 20.4434 7.86148 14.1526 -8.9513
239 1 22.0141 9.4346 12.5796 -8.95081
240 1 3.14166 9.43487 12.5797 -8.95351
241 1 6.27518 9.4291 12.5857 -8.96064
242 1 9.37809 9.3716 12.6303 -8.78778
243 1 12.6562 9.35994 12.6521 -8.72137
244 1 15.7448 9.42556 12.5885 -8.96198
245 1 18.8736 9.43407 12.58 -8.95477
47 1 12.5795 9.43421 22.0123 -8.95155
247 1 1.57182 1.57222 17.2972 -8.94932
46 1 9.43441 9.43441 22.0136 -8.94982
249 1 4.7163 1.57196 17.2978 -8.94951
250 1 6.28862 0.000750869 15.7257 -8.94983
251 1 7.86162 1.57189 17.2979 -8.94928
339 1 6.28884 9.43463 18.8703 -8.94952
253 1 11.007 1.57179 17.2979 -8.94941
338 1 3.14414 9.43446 18.8696 -8.94935
255 1 14.1524 1.57171 17.2978 -8.94931
256 1 15.7254 0.000267516 15.7253 -8.95009
257 1 17.2977 1.57166 17.2976 -8.94936
45 1 6.28914 9.43437 22.0134 -8.94974
259 1 20.4417 1.57217 17.297 -8.9496
260 1 22.0137 3.14436 15.7247 -8.94958
261 1 1.57166 4.71661 17.2975 -8.94964
262 1 3.14325 3.14364 15.7256 -8.94883
263 1 4.71475 4.71502 17.2995 -8.94761
264 1 6.2879 3.14237 15.7264 -8.94997
265 1 7.86084 4.71497 17.2994 -8.94884
266 1 9.43396 3.14224 15.7264 -8.94904
267 1 11.0069 4.71467 17.2995 -8.94908
268 1 12.5802 3.14201 15.7264 -8.94901
269 1 14.1533 4.7145 17.2996 -8.94914
270 1 15.7265 3.14168 15.7264 -8.94966
271 1 17.2996 4.71449 17.2994 -8.9464
272 1 18.8701 3.14389 15.7248 -8.94983
273 1 20.4424 4.71643 17.2975 -8.94943
274 1 22.014 6.28912 15.725 -8.9503
275 1 1.5719 7.86202 17.2973 -8.94949
276 1 3.14213 6.28824 15.7262 -8.95002
277 1 4.71561 7.86174 17.2985 -8.95002
278 1 6.28244 6.28268 15.7325 -8.94261
279 1 7.85956 7.85962 17.3029 -8.95327
280 1 9.43254 6.28338 15.7309 -8.94606
281 1 11.0068 7.85858 17.3032 -8.94931
282 1 12.5819 6.28277 15.7317 -8.94715
283 1 14.1556 7.85848 17.3045 -8.953
284 1 15.7333 6.28089 15.7331 -8.93739
285 1 17.2991 7.86121 17.299 -8.94999
286 1 18.8724 6.28764 15.7263 -8.94956
287 1 20.4423 7.86194 17.2973 -8.94958
288 1 7.5662e-05 9.43453 15.7249 -8.9495
289 1 3.14323 9.43454 15.7254 -8.94893
290 1 6.28677 9.43434 15.7279 -8.94985
291 1 9.4322 9.42981 15.7358 -8.96093
292 1 12.5846 9.42876 15.741 -8.96524
293 1 15.7294 9.43369 15.7297 -8.94981
294 1 18.8712 9.43459 15.7255 -8.94943
295 1 22.0137 0.000150957 18.8694 -8.94919
296 1 1.57213 1.57227 20.4416 -8.94919
297 1 3.14425 0.000203806 18.8697 -8.94932
298 1 4.71694 1.57226 20.4417 -8.94954
301 1 9.43441 0.00019027 18.8698 -8.94948
300 1 7.8619 1.5722 20.4418 -8.94949
337 1 22.014 9.43447 18.8694 -8.9495
302 1 11.007 1.57216 20.4418 -8.94952
336 1 20.4419 7.86192 20.4414 -8.94948
304 1 14.152 1.57214 20.4418 -8.94949
39 1 15.7253 6.28839 22.013 -8.95017
306 1 17.297 1.57212 20.4417 -8.94955
307 1 18.8696 5.17062e-05 18.8696 -8.94922
308 1 20.4417 1.57224 20.4416 -8.94907
309 1 22.0139 3.14448 18.8695 -8.94939
310 1 1.57218 4.71705 20.4416 -8.94967
311 1 3.14399 3.14418 18.87 -8.94898
312 1 4.7165 4.71662 20.442 -8.94984
313 1 6.28906 3.14407 18.8701 -8.94942
314 1 7.86161 4.71642 20.4421 -8.94937
315 1 9.43426 3.14391 18.8701 -8.94936
316 1 11.0068 4.71625 20.4421 -8.94949
317 1 12.5796 3.14386 18.8702 -8.94935
318 1 14.1522 4.71624 20.4421 -8.94945
319 1 15.725 3.14383 18.8701 -8.94948
320 1 17.2977 4.71624 20.442 -8.94948
321 1 18.87 3.14401 18.8699 -8.94867
322 1 20.4419 4.71691 20.4415 -8.94955
323 1 22.014 6.28951 18.8694 -8.94961
324 1 1.57218 7.86197 20.4415 -8.94946
325 1 3.1441 6.28941 18.8698 -8.94982
326 1 4.71665 7.86197 20.4417 -8.94967
327 1 6.28823 6.28845 18.8715 -8.95049
328 1 7.86158 7.86172 20.4426 -8.95079
329 1 9.43386 6.28806 18.8716 -8.94923
330 1 11.0067 7.86122 20.4426 -8.95039
331 1 12.5798 6.28794 18.8717 -8.94939
332 1 14.1525 7.8613 20.4424 -8.95122
333 1 15.7262 6.28782 18.8718 -8.95012
334 1 17.2977 7.86163 20.4415 -8.94965
335 1 18.8701 6.28912 18.8698 -8.94973
512 1 1.57209 11.0071 11.007 -8.9481
513 1 4.71832 11.0083 11.0056 -8.94684
514 1 7.86831 10.9902 11.0193 -8.88309
515 1 11.058 10.8023 11.3122 -7.30549
516 1 14.1611 10.9841 11.0295 -8.92054
517 1 17.2994 11.0068 11.0061 -8.95128
518 1 20.4425 11.0071 11.0069 -8.94911
540 1 1.57135 11.007 14.1527 -8.94944
541 1 4.71413 11.0072 14.1542 -8.94602
542 1 7.85965 11.008 14.1567 -8.9469
543 1 11.0104 10.9941 14.1505 -9.01928
544 1 14.1601 11.0096 14.162 -8.94779
545 1 17.3007 11.008 14.154 -8.94826
546 1 20.4426 11.0072 14.1526 -8.94968
591 1 7.86122 11.0074 17.2988 -8.94931
592 1 11.0072 11.0069 17.298 -8.9467
593 1 14.154 11.0079 17.3003 -8.94996
638 1 1.57212 11.0069 20.4415 -8.94953
640 1 7.86166 11.007 20.4417 -8.94961
3 1 3.14447 0.000246516 22.0136 -8.9496
5 1 6.28949 0.000209778 22.0137 -8.94947
11 1 15.7245 0.000114461 22.0138 -8.94949
13 1 18.8694 0.000132723 22.0137 -8.94948
15 1 22.0139 3.1446 22.0137 -8.94935
17 1 3.14434 3.14441 22.0136 -8.94948
303 1 12.5796 0.000154918 18.8698 -8.94947
33 1 6.28906 6.2891 22.0135 -8.95054
27 1 18.8697 3.14422 22.0137 -8.94921
29 1 22.014 6.28943 22.0136 -8.9495
31 1 3.14439 6.2894 22.0135 -8.94968
1 1 22.0137 0.00017807 22.0136 -8.94907
21 1 9.43436 3.14424 22.0137 -8.9495
9 1 12.5795 0.00017768 22.0137 -8.94951
23 1 12.5795 3.14419 22.0137 -8.94949
43 1 22.014 9.43435 22.0135 -8.9495
49 1 18.8701 9.43421 22.0131 -8.94939
687 3 10.962 12.4669 10.172 2.22386
345 1 4.71613 11.0064 1.57081 -8.94928
511 1 18.8701 18.8703 9.43462 -8.94952
510 1 15.7265 18.8721 9.43425 -8.94856
509 1 12.58 18.8707 9.43396 -8.94756
349 1 17.2989 11.0066 1.56971 -8.9492
508 1 9.43348 18.8737 9.43376 -8.94748
351 1 22.014 12.5794 -0.000455499 -8.94952
352 1 1.57192 14.1518 1.57148 -8.94937
353 1 3.14416 12.5792 -0.000639267 -8.94949
354 1 4.71597 14.1517 1.57025 -8.94943
538 1 17.2977 20.4426 11.0071 -8.94934
356 1 7.8615 14.1523 1.56787 -8.95477
153 1 15.7252 22.0145 9.43426 -8.94973
358 1 11.0067 14.1529 1.56998 -8.94803
150 1 6.28823 22.0153 9.43423 -8.95012
360 1 14.1537 14.1537 1.56678 -8.95303
361 1 15.7257 12.5798 -0.00221333 -8.94966
362 1 17.2989 14.1529 1.5697 -8.94896
111 1 18.8695 22.0143 6.28942 -8.94946
364 1 20.4423 14.1521 1.5714 -8.94939
537 1 14.1528 20.4435 11.0067 -8.95026
366 1 1.57167 17.2972 1.57133 -8.94973
148 1 -0.000313868 22.0142 9.43452 -8.94952
368 1 4.71516 17.2987 1.56904 -8.94956
58 1 12.5797 22.0142 3.14406 -8.94947
370 1 7.86191 17.2981 1.57021 -8.94947
56 1 9.43462 22.0144 3.14395 -8.9495
372 1 11.0072 17.2983 1.57056 -8.94931
536 1 11.0073 20.4439 11.007 -8.94986
374 1 14.1522 17.2981 1.57076 -8.94978
534 1 4.71506 20.4441 11.0075 -8.94904
376 1 17.2987 17.2988 1.56986 -8.94833
493 1 6.29098 12.5922 9.43109 -9.01928
378 1 20.4421 17.2973 1.57148 -8.94948
492 1 3.14343 12.5794 9.43424 -8.9467
380 1 1.57162 20.4423 1.57146 -8.94867
491 1 22.0138 12.5792 9.43468 -8.94828
382 1 4.71667 20.4424 1.57141 -8.94983
490 1 20.4417 20.4421 7.862 -8.94949
384 1 7.86202 20.4423 1.57161 -8.9493
385 1 9.43449 18.87 -0.000470973 -8.9495
386 1 11.0071 20.4423 1.57165 -8.94948
387 1 12.5796 18.8699 -0.000405322 -8.94943
388 1 14.1521 20.4422 1.57181 -8.94929
489 1 18.8703 18.8705 6.2891 -8.9495
390 1 17.2972 20.4423 1.57173 -8.9498
488 1 17.2977 20.4428 7.8618 -8.94927
392 1 20.4417 20.4421 1.5718 -8.94921
507 1 6.28487 18.8764 9.43414 -8.94769
506 1 3.14195 18.8717 9.43457 -8.94908
505 1 22.0132 18.8701 9.43464 -8.94949
504 1 18.8717 15.7258 9.43479 -8.95
503 1 15.7317 15.7296 9.43365 -8.94624
502 1 12.5919 15.7244 9.42419 -8.92199
501 1 9.40658 15.7322 9.42248 -8.96807
400 1 0.000247805 12.5793 3.14371 -8.94947
401 1 1.57082 14.1519 4.71582 -8.9497
402 1 3.14327 12.5789 3.14295 -8.94902
403 1 4.71178 14.1526 4.71205 -8.94981
404 1 6.2875 12.5783 3.14076 -8.94826
405 1 7.85303 14.1608 4.69663 -8.96198
406 1 9.43541 12.5795 3.14206 -8.95128
407 1 11.0069 14.1548 4.714 -8.94184
408 1 12.582 12.5811 3.13527 -8.95922
409 1 14.1669 14.1652 4.69705 -8.94007
410 1 15.7297 12.5807 3.13765 -8.94732
411 1 17.3037 14.1549 4.71208 -8.94903
412 1 18.8718 12.5797 3.14254 -8.9492
413 1 20.4434 14.1524 4.71587 -8.94992
414 1 22.0139 15.7247 3.14376 -8.94965
415 1 1.56966 17.2985 4.7153 -8.95012
416 1 3.14251 15.7251 3.14235 -8.94999
417 1 4.70839 17.3054 4.70817 -8.93739
418 1 6.28487 15.7289 3.13575 -8.95127
419 1 7.86114 17.3023 4.7118 -8.95104
420 1 9.4351 15.727 3.14047 -8.94808
421 1 11.008 17.3011 4.71352 -8.94426
422 1 12.5795 15.7266 3.14125 -8.9491
423 1 14.1537 17.3014 4.71379 -8.95286
424 1 15.7298 15.7299 3.1373 -8.94597
425 1 17.3011 17.3013 4.71315 -8.94535
426 1 18.8716 15.7258 3.14268 -8.94937
427 1 20.4423 17.2979 4.71616 -8.95017
428 1 22.0134 18.8701 3.14381 -8.94948
429 1 1.57138 20.4425 4.71652 -8.94948
430 1 3.14205 18.8718 3.14187 -8.9464
431 1 4.71511 20.4446 4.71496 -8.94966
432 1 6.28868 18.8716 3.14224 -8.95029
433 1 7.86222 20.4435 4.71589 -8.94978
434 1 9.43475 18.8712 3.14289 -8.94869
435 1 11.0074 20.4431 4.71597 -8.94957
436 1 12.5799 18.871 3.14326 -8.94842
437 1 14.152 20.4427 4.7166 -8.95049
438 1 15.7253 18.8713 3.14316 -8.9505
439 1 17.2977 20.4432 4.71626 -8.94964
440 1 18.8704 18.8707 3.14337 -8.94851
441 1 20.4417 20.4422 4.71684 -8.94957
500 1 6.27249 15.7398 9.4338 -8.94368
499 1 3.13831 15.7277 9.43466 -8.94931
498 1 -0.00107105 15.7251 9.43477 -8.95039
497 1 18.8703 12.5796 9.4344 -8.94544
496 1 15.7198 12.5779 9.42933 -8.99935
495 1 12.7967 12.5739 9.35804 -8.08903
494 1 9.12921 12.784 9.38343 -7.30561
449 1 22.0143 12.5792 6.28888 -8.95049
450 1 1.56899 14.1521 7.86172 -8.95342
451 1 3.14118 12.5784 6.28747 -8.94996
452 1 4.70047 14.1576 7.85687 -8.96524
453 1 6.27946 12.5768 6.28135 -8.94779
454 1 7.78935 14.2264 7.78525 -8.72133
455 1 9.41195 12.6022 6.28039 -8.92054
456 1 11.0124 14.1379 7.86802 -8.90432
457 1 12.6252 12.6111 6.24978 -8.88575
458 1 14.1887 14.1844 7.82584 -8.86242
459 1 15.7423 12.5816 6.27726 -8.95177
460 1 17.3053 14.1537 7.85994 -8.95859
461 1 18.8747 12.5795 6.2873 -8.95139
462 1 20.443 14.1521 7.86201 -8.95155
463 1 22.013 15.725 6.28895 -8.95122
464 1 1.56976 17.2984 7.86164 -8.94939
465 1 3.13699 15.7278 6.28583 -8.953
466 1 4.70978 17.3036 7.85956 -8.94715
467 1 6.26313 15.7507 6.263 -8.90091
468 1 7.85271 17.3171 7.85421 -8.96159
469 1 9.43759 15.7342 6.2817 -8.95094
470 1 11.0059 17.2945 7.86413 -8.94422
471 1 12.58 15.7316 6.28417 -8.9601
472 1 14.1567 17.3056 7.85821 -8.95523
473 1 15.7373 15.7367 6.2777 -8.93238
474 1 17.3 17.2995 7.86119 -8.94863
475 1 18.8729 15.7262 6.28809 -8.95148
476 1 20.4421 17.2978 7.86196 -8.94957
477 1 -0.000629784 18.8701 6.28926 -8.94945
478 1 1.57133 20.4425 7.86188 -8.94935
479 1 3.14188 18.8718 6.28815 -8.94914
480 1 4.71505 20.4443 7.86128 -8.94901
481 1 6.28498 18.878 6.28478 -8.95158
482 1 7.86122 20.4463 7.8611 -8.95382
483 1 9.43576 18.8729 6.28787 -8.9502
484 1 11.0073 20.4421 7.86184 -8.94737
485 1 12.5789 18.8711 6.28917 -8.95153
486 1 14.1525 20.4437 7.86167 -8.95148
487 1 15.7267 18.8735 6.28755 -8.95041
530 1 14.1541 17.3031 11.0065 -8.95241
531 1 17.2991 17.2989 11.0075 -8.94765
399 1 20.4437 11.0065 4.71577 -8.94966
398 1 17.3038 11.0057 4.71174 -8.94732
394 1 4.71427 11.0053 4.71386 -8.94522
393 1 1.57151 11.0064 4.71591 -8.94934
50 1 -0.000264802 22.0142 3.14445 -8.94955
688 3 10.2695 11.1194 9.47949 2.22387
101 1 3.14368 22.0146 6.28906 -8.94931
526 1 1.56992 17.2983 11.0076 -8.94923
527 1 4.7106 17.3029 11.0089 -8.94606
532 1 20.4419 17.2977 11.0074 -8.94947
383 1 6.28933 18.8698 -0.000593249 -8.94972
377 1 18.87 15.7248 -0.00087336 -8.94937
686 1 20.4417 20.4417 20.4414 -8.94935
685 1 18.8697 18.8695 18.8694 -8.94953
684 1 17.2971 20.4419 20.4417 -8.94963
683 1 15.725 18.8699 18.8701 -8.94973
682 1 14.1521 20.442 20.4418 -8.94942
681 1 12.5798 18.8701 18.8704 -8.94932
680 1 11.007 20.442 20.4418 -8.9495
519 1 1.56978 14.152 11.0072 -8.95181
520 1 4.70569 14.1565 11.0093 -8.96093
521 1 7.81121 14.2147 11.0634 -8.78776
522 1 10.9954 14.2951 11.0539 -8.26085
523 1 14.161 14.1722 11.0158 -8.90154
524 1 17.2987 14.1523 11.0058 -8.95248
525 1 20.4418 14.1519 11.0071 -8.94982
305 1 15.7247 22.014 18.8697 -8.94946
299 1 6.28927 22.0141 18.8698 -8.94945
528 1 7.85495 17.3143 11.0099 -8.96054
529 1 11.005 17.3041 11.008 -8.98375
391 1 18.8698 18.8698 22.0132 -8.94917
389 1 15.7246 18.8698 22.0135 -8.94981
258 1 18.8696 22.014 15.7246 -8.9497
533 1 1.57134 20.4424 11.0072 -8.94936
254 1 12.58 22.0143 15.7257 -8.94933
535 1 7.86097 20.446 11.0071 -8.95247
252 1 9.4343 22.0145 15.7258 -8.94937
248 1 3.14372 22.0144 15.7252 -8.94951
207 1 15.7251 22.0143 12.5795 -8.94971
539 1 20.4416 20.4421 11.0071 -8.9495
679 1 9.43435 18.8701 18.8705 -8.9494
678 1 7.86189 20.442 20.4418 -8.94945
677 1 6.28888 18.8701 18.8705 -8.94965
676 1 4.71681 20.442 20.4417 -8.94958
675 1 3.14394 18.8697 18.8698 -8.94964
674 1 1.572 20.4418 20.4415 -8.94939
673 1 22.0138 18.8693 18.8693 -8.94967
547 1 22.0137 12.5793 12.5798 -8.94961
548 1 1.57113 14.1517 14.1526 -8.94952
549 1 3.1427 12.5789 12.5803 -8.94931
550 1 4.71362 14.152 14.1547 -8.94985
551 1 6.28475 12.5783 12.5818 -8.9469
552 1 7.85574 14.1572 14.1663 -8.96064
553 1 9.42216 12.5962 12.5732 -8.88308
554 1 11.006 14.1567 14.157 -8.96026
555 1 12.5946 12.6009 12.5775 -8.86685
556 1 14.1578 14.1571 14.1588 -8.94594
557 1 15.728 12.5807 12.5791 -8.95114
558 1 17.2991 14.1526 14.1528 -8.94996
559 1 18.8705 12.5796 12.5796 -8.9498
560 1 20.442 14.152 14.1523 -8.94974
561 1 22.0128 15.7246 12.5799 -8.95079
562 1 1.56996 17.2979 14.1533 -8.95049
563 1 3.13859 15.7267 12.5819 -8.95327
564 1 4.70901 17.3036 14.159 -8.94261
565 1 6.26731 15.7452 12.5991 -8.92382
566 1 7.85387 17.3082 14.1629 -8.93845
567 1 9.415 15.7563 12.6076 -8.89594
568 1 11.0077 17.3053 14.1597 -8.9419
569 1 12.5967 15.7509 12.6022 -8.91019
570 1 14.1595 17.3057 14.16 -8.94079
571 1 15.7316 15.7303 12.5838 -8.95006
572 1 17.3001 17.2991 14.154 -8.94975
573 1 18.8707 15.7248 12.5797 -8.95163
574 1 20.4419 17.2972 14.1524 -8.95054
575 1 -0.000634724 18.8699 12.5799 -8.94937
576 1 1.57141 20.4423 14.1524 -8.94942
577 1 3.14212 18.8713 12.5806 -8.94884
578 1 4.71511 20.4439 14.1536 -8.94997
579 1 6.28551 18.8764 12.5827 -8.95163
580 1 7.86073 20.4452 14.1542 -8.9505
581 1 9.43354 18.8782 12.5832 -8.95489
582 1 11.0075 20.4447 14.1542 -8.94931
583 1 12.5807 18.8759 12.5818 -8.95569
584 1 14.1534 20.444 14.1534 -8.95102
585 1 15.7261 18.8718 12.5802 -8.95
586 1 17.2978 20.4425 14.1524 -8.94982
587 1 18.87 18.87 12.5798 -8.94918
588 1 20.4416 20.4419 14.1521 -8.94948
589 1 1.57188 11.007 17.2974 -8.94949
590 1 4.71584 11.007 17.2982 -8.94901
672 1 20.4418 17.2969 20.4413 -8.9495
671 1 18.8697 15.7246 18.8693 -8.94936
670 1 17.2974 17.2973 20.4411 -8.94981
594 1 17.2985 11.0074 17.2982 -8.94902
595 1 20.4421 11.0071 17.2973 -8.94949
596 1 -6.69046e-05 12.5795 15.725 -8.94956
597 1 1.57187 14.1519 17.2973 -8.94935
598 1 3.14329 12.5794 15.7256 -8.94901
599 1 4.71604 14.1518 17.2983 -8.94893
600 1 6.28728 12.5792 15.7273 -8.94602
601 1 7.86176 14.1515 17.2998 -8.95351
602 1 9.4359 12.578 15.7232 -8.94684
603 1 11.007 14.1519 17.2985 -8.95032
604 1 12.5797 12.5791 15.7241 -8.94872
605 1 14.1526 14.1521 17.2985 -8.95146
606 1 15.7276 12.581 15.7272 -8.94522
607 1 17.2981 14.1525 17.2978 -8.94869
608 1 18.8707 12.5799 15.7253 -8.94928
609 1 20.442 14.1521 17.2972 -8.94939
610 1 22.0136 15.7244 15.7248 -8.94967
611 1 1.5717 17.2969 17.2974 -8.94982
612 1 3.14296 15.7246 15.7259 -8.95002
613 1 4.71527 17.2981 17.2994 -8.95002
614 1 6.28568 15.7274 15.7311 -8.95172
615 1 7.8608 17.2987 17.3006 -8.95023
616 1 9.43352 15.7282 15.7325 -8.95375
617 1 11.0073 17.2988 17.3002 -8.94915
618 1 12.5808 15.7272 15.7305 -8.95435
619 1 14.1532 17.2983 17.2996 -8.9505
620 1 15.7272 15.7266 15.7276 -8.94893
621 1 17.2981 17.2976 17.298 -8.94952
622 1 18.8702 15.7247 15.725 -8.94975
623 1 20.4418 17.2969 17.2971 -8.94968
624 1 22.0133 18.8697 15.725 -8.94984
625 1 1.57153 20.4421 17.2975 -8.94898
626 1 3.14199 18.8713 15.7267 -8.94761
627 1 4.71593 20.4427 17.2982 -8.94883
628 1 6.28635 18.8731 15.7285 -8.94677
629 1 7.86151 20.4426 17.2983 -8.94925
630 1 9.4339 18.8725 15.7279 -8.94825
631 1 11.0072 20.4426 17.2982 -8.94944
632 1 12.5808 18.8721 15.7274 -8.94796
633 1 14.1526 20.4424 17.298 -8.94921
634 1 15.7273 18.8722 15.7273 -8.94717
635 1 17.2978 20.4423 17.2978 -8.94887
636 1 18.8703 18.8701 15.7252 -8.94957
637 1 20.4417 20.4419 17.2971 -8.94948
669 1 15.725 15.7248 18.8697 -8.9503
639 1 4.71649 11.0068 20.4415 -8.94956
668 1 14.1522 17.2973 20.4417 -8.94988
667 1 12.5796 15.7248 18.8706 -8.95063
666 1 11.007 17.2975 20.4419 -8.94982
643 1 17.2978 11.007 20.4412 -8.94947
665 1 9.43442 15.7249 18.871 -8.95097
645 1 22.0139 12.5794 18.8694 -8.94953
646 1 1.57211 14.1518 20.4414 -8.9495
647 1 3.14411 12.5794 18.8696 -8.94949
648 1 4.71653 14.1518 20.4414 -8.9495
649 1 6.28874 12.5793 18.8701 -8.94944
650 1 7.86187 14.1517 20.4413 -8.95081
651 1 9.43453 12.5792 18.8694 -8.9481
652 1 11.0068 14.152 20.4413 -8.94957
653 1 12.5795 12.5794 18.8693 -8.94883
654 1 14.1522 14.1522 20.4407 -8.95056
655 1 15.7256 12.5799 18.87 -8.94934
656 1 17.2976 14.1523 20.4411 -8.94937
657 1 18.8699 12.5796 18.8695 -8.94946
658 1 20.4419 14.152 20.4414 -8.9495
659 1 22.0139 15.7244 18.8693 -8.94946
660 1 1.5721 17.2968 20.4414 -8.94961
661 1 3.14419 15.7243 18.8696 -8.94949
662 1 4.7165 17.2972 20.4413 -8.9503
663 1 6.28895 15.7245 18.8705 -8.95105
664 1 7.86177 17.2974 20.4419 -8.94996
381 1 3.14398 18.8699 22.0129 -8.94943
201 1 6.28845 22.0151 12.5801 -8.95063
355 1 6.2889 12.5791 22.0128 -8.94968
357 1 9.43459 12.5792 22.0129 -8.94911
359 1 12.5794 12.5796 22.0115 -8.95096
365 1 22.014 15.7244 22.0134 -8.94948
367 1 3.14416 15.7244 22.0131 -8.94958
369 1 6.28886 15.7248 22.0119 -8.9513
371 1 9.43446 15.725 22.0127 -8.94977
373 1 12.5794 15.725 22.0128 -8.94957
375 1 15.7254 15.7254 22.0118 -8.95043
246 1 -0.000263478 22.0141 15.7245 -8.94954
379 1 22.0138 18.8694 22.0134 -8.94955
363 1 18.8701 12.5795 22.013 -8.94943
