ITEM: TIMESTEP
116
ITEM: NUMBER OF ATOMS
688
ITEM: BOX BOUNDS pp pp pp
0.0000000000000000e+00 2.2013900999999997e+01
0.0000000000000000e+00 2.2013900999999997e+01
0.0000000000000000e+00 2.2013900999999997e+01
ITEM: ATOMS id type x y z c_pot
7 1 9.43448 0.000227019 -0.000187463 -8.94951
2 1 1.57185 1.57238 1.57184 -8.9492
448 1 20.4439 11.0067 7.86199 -8.95095
4 1 4.71682 1.57229 1.57181 -8.9497
447 1 17.3063 11.0052 7.85932 -8.95922
6 1 7.86192 1.57222 1.57184 -8.94942
175 1 18.8716 9.43336 9.43472 -8.94803
8 1 11.007 1.57214 1.57183 -8.9495
174 1 15.7276 9.43136 9.43446 -8.94192
10 1 14.1521 1.57203 1.5719 -8.94945
446 1 14.1918 10.9751 7.81593 -8.88553
12 1 17.2972 1.57195 1.57194 -8.9496
445 1 11.0834 11.0124 7.64416 -8.08857
14 1 20.4417 1.57227 1.57206 -8.94946
444 1 7.86429 10.9861 7.84718 -8.8674
16 1 1.57204 4.71675 1.57171 -8.94953
443 1 4.71752 11.0073 7.8618 -8.94866
18 1 4.71619 4.71619 1.57112 -8.94956
442 1 1.57227 11.0069 7.86193 -8.94881
20 1 7.86163 4.71622 1.57145 -8.94918
149 1 3.14343 0.000722061 9.43445 -8.9494
22 1 11.0069 4.71594 1.57134 -8.94952
154 1 18.8697 0.000285558 9.43447 -8.9495
24 1 14.1525 4.71568 1.57117 -8.94949
188 1 17.2987 4.71503 11.0067 -8.94868
26 1 17.2982 4.71544 1.57104 -8.9485
183 1 1.57094 4.71612 11.0071 -8.9494
28 1 20.4423 4.71643 1.57164 -8.94915
397 1 14.1645 11.0047 4.69887 -8.95178
30 1 1.57215 7.8617 1.57168 -8.94934
396 1 11.0123 11.0086 4.72184 -8.99952
32 1 4.71643 7.86159 1.57122 -8.94976
395 1 7.86234 11.0057 4.71356 -8.95102
34 1 7.86176 7.86147 1.5708 -8.95164
35 1 9.43404 6.2886 -0.000329745 -8.94947
36 1 11.0067 7.86044 1.56982 -8.95001
37 1 12.5796 6.28843 -0.000581642 -8.94958
38 1 14.1535 7.86003 1.56843 -8.95151
181 1 17.2976 1.57191 11.0069 -8.94949
40 1 17.299 7.86036 1.56974 -8.94935
346 1 7.86187 11.0068 1.57097 -8.9498
42 1 20.4425 7.86146 1.57141 -8.94935
164 1 6.28182 6.281 9.43386 -8.9419
44 1 3.14423 9.43424 -0.000517589 -8.94938
350 1 20.4425 11.0068 1.57128 -8.94941
348 1 14.1543 11.0068 1.56656 -8.95142
347 1 11.0071 11.0068 1.57126 -8.94539
48 1 15.7257 9.43389 -0.00199849 -8.94994
163 1 3.14127 6.28745 9.43413 -8.94914
344 1 1.57202 11.0066 1.57146 -8.94945
51 1 1.5717 1.57236 4.71671 -8.94945
52 1 3.14373 0.000860786 3.14366 -8.94935
53 1 4.71608 1.57221 4.71598 -8.9501
54 1 6.28939 0.000644387 3.14386 -8.94974
55 1 7.862 1.57206 4.7163 -8.94973
173 1 12.5738 9.44851 9.42883 -8.9044
57 1 11.0072 1.57185 4.71627 -8.94974
172 1 9.38834 9.29309 9.44646 -8.26187
59 1 14.1523 1.57156 4.7166 -8.95033
60 1 15.7246 0.000226415 3.14425 -8.95007
61 1 17.2972 1.5722 4.71684 -8.95007
62 1 18.8695 0.000469295 3.1443 -8.9496
63 1 20.4416 1.5723 4.71696 -8.94947
64 1 22.0137 3.14443 3.14434 -8.94962
65 1 1.57132 4.71639 4.71638 -8.94973
66 1 3.14359 3.14398 3.14357 -8.94889
67 1 4.71415 4.71415 4.71418 -8.94726
68 1 6.28906 3.14384 3.14367 -8.94984
69 1 7.8613 4.71449 4.71537 -8.95005
70 1 9.43437 3.14371 3.14371 -8.94933
71 1 11.0073 4.71421 4.71496 -8.94858
72 1 12.5797 3.14346 3.14369 -8.94927
73 1 14.154 4.71274 4.71472 -8.95043
74 1 15.7253 3.14304 3.14368 -8.94966
75 1 17.2984 4.71492 4.71605 -8.95051
76 1 18.8698 3.14397 3.14422 -8.9498
77 1 20.442 4.71643 4.7168 -8.94981
78 1 22.0143 6.28893 3.14399 -8.94982
79 1 1.57178 7.86151 4.71641 -8.95032
80 1 3.14348 6.28861 3.14336 -8.94955
81 1 4.71392 7.85969 4.7143 -8.94902
82 1 6.28739 6.28714 3.1414 -8.94972
83 1 7.85764 7.85596 4.70994 -8.94986
84 1 9.43394 6.28732 3.1424 -8.94762
85 1 11.0079 7.85669 4.70976 -8.94611
86 1 12.5804 6.28667 3.14142 -8.9486
87 1 14.164 7.84949 4.70393 -8.93233
88 1 15.7285 6.28483 3.14022 -8.94533
89 1 17.3044 7.85624 4.71141 -8.94596
90 1 18.8718 6.28739 3.14269 -8.94832
91 1 20.4437 7.86082 4.71601 -8.95045
92 1 0.00046121 9.43399 3.14374 -8.94936
93 1 3.14368 9.43378 3.14336 -8.94867
94 1 6.28867 9.43367 3.14241 -8.94992
95 1 9.43577 9.43401 3.14286 -8.95256
96 1 12.5817 9.43263 3.13605 -8.95866
97 1 15.7297 9.43133 3.13749 -8.94901
98 1 18.872 9.43334 3.14242 -8.94893
99 1 22.0135 0.000334546 6.2894 -8.94947
100 1 1.57158 1.57228 7.86183 -8.94945
166 1 12.5774 6.29196 9.43571 -8.9443
102 1 4.71569 1.57203 7.86139 -8.94933
103 1 6.28863 0.00179321 6.28843 -8.95117
104 1 7.86163 1.57175 7.8615 -8.95134
105 1 9.43495 0.000773683 6.28886 -8.94989
106 1 11.0073 1.57193 7.86168 -8.9488
107 1 12.5796 0.000242093 6.28923 -8.94989
108 1 14.1523 1.57218 7.86189 -8.94989
109 1 15.7249 0.000860675 6.28921 -8.95033
110 1 17.2975 1.57206 7.86177 -8.94947
165 1 9.43367 6.28178 9.43673 -8.98347
112 1 20.4416 1.57223 7.86193 -8.9495
113 1 -0.00033528 3.14433 6.28932 -8.9494
114 1 1.57107 4.71619 7.86161 -8.94931
115 1 3.14337 3.14387 6.2888 -8.94921
116 1 4.71403 4.71421 7.86066 -8.94799
117 1 6.28803 3.14229 6.28804 -8.95099
118 1 7.85965 4.71046 7.86082 -8.95555
119 1 9.4348 3.14285 6.28871 -8.95027
120 1 11.0076 4.71559 7.86154 -8.94742
121 1 12.5798 3.14264 6.28892 -8.95146
122 1 14.1523 4.71521 7.86254 -8.9516
123 1 15.7249 3.14352 6.28942 -8.95053
124 1 17.2983 4.71527 7.86155 -8.94841
125 1 18.8697 3.14407 6.28934 -8.94928
126 1 20.4419 4.71631 7.86183 -8.94942
127 1 22.0137 6.28893 6.28928 -8.94988
128 1 1.57098 7.86149 7.86187 -8.95061
129 1 3.14191 6.28797 6.28822 -8.95049
130 1 4.71117 7.8591 7.8607 -8.95426
131 1 6.28164 6.28068 6.28215 -8.941
132 1 7.83978 7.83572 7.84535 -8.91088
133 1 9.43501 6.28327 6.28742 -8.95247
134 1 11.0172 7.86208 7.84978 -8.92245
135 1 12.5833 6.28075 6.2848 -8.95529
136 1 14.1575 7.85462 7.86133 -8.95998
137 1 15.7279 6.28482 6.28769 -8.95285
138 1 17.3004 7.85956 7.86191 -8.94908
139 1 18.8708 6.28814 6.28921 -8.94978
140 1 20.4427 7.86123 7.86204 -8.94956
141 1 22.0148 9.43412 6.28921 -8.95057
142 1 3.14302 9.43423 6.28887 -8.95147
143 1 6.28286 9.42933 6.28384 -8.94625
144 1 9.42559 9.41415 6.28042 -8.90124
145 1 12.6159 9.40181 6.25258 -8.86236
146 1 15.7447 9.42095 6.27423 -8.94007
147 1 18.8749 9.43258 6.28764 -8.95305
171 1 6.2848 9.42977 9.43558 -8.96009
170 1 3.14313 9.43442 9.43448 -8.95029
169 1 22.0141 9.43427 9.43462 -8.94955
151 1 9.43474 0.000989427 9.43415 -8.94925
152 1 12.5798 0.0004933 9.43417 -8.9488
168 1 18.871 6.28793 9.43428 -8.9493
167 1 15.7281 6.28512 9.43351 -8.94423
155 1 22.0135 3.14425 9.43444 -8.94948
156 1 3.14313 3.14369 9.4343 -8.94943
157 1 6.28713 3.14156 9.43401 -8.94931
158 1 9.43452 3.14236 9.43426 -8.95002
159 1 12.5796 3.14421 9.43423 -8.94733
160 1 15.7256 3.14311 9.43402 -8.94957
161 1 18.8699 3.14395 9.43433 -8.94946
162 1 -0.000432622 6.28873 9.43442 -8.94982
177 1 4.71557 1.57181 11.0072 -8.94937
184 1 4.71344 4.71372 11.0076 -8.94827
41 1 18.8701 6.28887 -0.00071287 -8.94946
19 1 6.2893 3.14435 -0.000151843 -8.94947
25 1 15.7247 3.14406 -0.000180709 -8.94955
176 1 1.57155 1.57223 11.0071 -8.94946
199 1 3.14348 0.000601789 12.5799 -8.94927
178 1 7.86131 1.57112 11.0069 -8.95146
179 1 11.0073 1.57143 11.0067 -8.94925
180 1 14.1526 1.57165 11.0065 -8.94989
644 1 20.442 11.0069 20.4414 -8.9495
182 1 20.4417 1.57219 11.007 -8.94951
642 1 14.1527 11.0072 20.4411 -8.95052
209 1 18.8696 0.000199382 12.5796 -8.94942
185 1 7.8582 4.70794 11.0081 -8.95475
186 1 11.0078 4.71255 11.0082 -8.94724
187 1 14.1537 4.71335 11.0058 -8.95024
641 1 11.0068 11.0071 20.4416 -8.94824
189 1 20.442 4.71628 11.007 -8.94949
190 1 1.57047 7.86142 11.007 -8.95097
191 1 4.70904 7.85808 11.008 -8.95367
192 1 7.8342 7.83016 11.0264 -8.89666
193 1 11.019 7.85441 11.0353 -8.96884
194 1 14.1599 7.85193 11.0041 -8.95098
195 1 17.3011 7.85915 11.0064 -8.94807
196 1 20.4427 7.86123 11.007 -8.94977
197 1 22.0135 0.000251384 12.5796 -8.94947
198 1 1.5716 1.57219 14.1523 -8.94943
343 1 18.8701 9.43449 18.8696 -8.94936
200 1 4.71567 1.57164 14.153 -8.94983
342 1 15.7258 9.43442 18.8707 -8.94971
202 1 7.86129 1.57117 14.1531 -8.95067
203 1 9.43455 0.00130612 12.5802 -8.95146
204 1 11.0073 1.5709 14.1534 -8.95014
205 1 12.58 0.000671672 12.5798 -8.95134
206 1 14.153 1.57063 14.1528 -8.95117
341 1 12.5798 9.43409 18.8726 -8.95345
208 1 17.2976 1.57178 14.1521 -8.94974
340 1 9.43428 9.43426 18.8718 -8.95186
210 1 20.4417 1.57218 14.152 -8.94946
211 1 -0.000354114 3.14426 12.5796 -8.94944
212 1 1.57093 4.7162 14.1527 -8.94965
213 1 3.14307 3.14361 12.58 -8.94924
214 1 4.71279 4.71309 14.1552 -8.94682
215 1 6.28717 3.14104 12.5808 -8.95047
216 1 7.85864 4.70962 14.1562 -8.9517
217 1 9.43438 3.14013 12.5806 -8.9525
218 1 11.0074 4.70957 14.1569 -8.94772
219 1 12.5805 3.13987 12.5804 -8.95381
220 1 14.1569 4.70802 14.1567 -8.9516
221 1 15.7257 3.14266 12.5793 -8.94979
222 1 17.2995 4.71453 14.1529 -8.95029
223 1 18.87 3.14394 12.5795 -8.94929
224 1 20.4421 4.71639 14.1522 -8.94973
225 1 22.0135 6.2889 12.5797 -8.94997
226 1 1.57091 7.86176 14.1526 -8.9511
227 1 3.14079 6.28755 12.5807 -8.95023
228 1 4.71014 7.85872 14.1559 -8.95177
229 1 6.27848 6.27793 12.5876 -8.93862
230 1 7.84203 7.84063 14.1746 -8.92345
231 1 9.4315 6.27172 12.5868 -8.96069
232 1 11.0077 7.84605 14.1695 -8.94365
233 1 12.5874 6.26899 12.5891 -8.96166
234 1 14.1788 7.83515 14.1788 -8.9008
235 1 15.7299 6.28377 12.5805 -8.95103
236 1 17.306 7.85719 14.1568 -8.95126
237 1 18.8714 6.28815 12.5796 -8.94947
238 1 20.4436 7.86143 14.1527 -8.95135
239 1 22.0141 9.4346 12.5796 -8.95083
240 1 3.14163 9.43482 12.5797 -8.95356
241 1 6.27504 9.4289 12.5859 -8.96083
242 1 9.37763 9.37116 12.631 -8.78726
243 1 12.6565 9.35956 12.6526 -8.72125
244 1 15.7451 9.42527 12.5887 -8.96195
245 1 18.8737 9.43401 12.58 -8.95481
47 1 12.5795 9.43419 22.0123 -8.95158
247 1 1.57173 1.5722 17.2973 -8.9493
46 1 9.43444 9.4344 22.0137 -8.94983
249 1 4.71618 1.57191 17.2979 -8.94949
250 1 6.28852 0.000777413 15.7258 -8.94983
251 1 7.86155 1.57182 17.298 -8.94927
339 1 6.28878 9.43459 18.8705 -8.94952
253 1 11.007 1.5717 17.298 -8.9494
338 1 3.14408 9.43444 18.8697 -8.94933
255 1 14.1525 1.5716 17.2979 -8.9493
256 1 15.7255 0.000211806 15.7254 -8.9501
257 1 17.2978 1.57156 17.2978 -8.94935
45 1 6.28912 9.43435 22.0134 -8.94974
259 1 20.4418 1.57213 17.2971 -8.94958
260 1 22.0136 3.1443 15.7247 -8.94957
261 1 1.57159 4.71653 17.2976 -8.94964
262 1 3.14311 3.14356 15.7257 -8.94884
263 1 4.71456 4.71487 17.2997 -8.94756
264 1 6.28773 3.1422 15.7266 -8.94998
265 1 7.8607 4.71477 17.2996 -8.94881
266 1 9.43391 3.14204 15.7266 -8.94903
267 1 11.0069 4.71444 17.2998 -8.94906
268 1 12.5803 3.14178 15.7266 -8.949
269 1 14.1535 4.71425 17.2999 -8.9491
270 1 15.7267 3.14147 15.7265 -8.94966
271 1 17.2998 4.71428 17.2996 -8.94634
272 1 18.8702 3.14377 15.7249 -8.94982
273 1 20.4425 4.71633 17.2976 -8.94942
274 1 22.0141 6.28906 15.7251 -8.95033
275 1 1.57185 7.86199 17.2974 -8.94948
276 1 3.14196 6.28811 15.7263 -8.95004
277 1 4.71546 7.86165 17.2987 -8.95002
278 1 6.28215 6.28237 15.7328 -8.94248
279 1 7.85942 7.85941 17.3032 -8.95326
280 1 9.43244 6.28302 15.7312 -8.94602
281 1 11.0069 7.85833 17.3035 -8.9493
282 1 12.5821 6.2824 15.7321 -8.94712
283 1 14.1559 7.85826 17.3048 -8.953
284 1 15.7337 6.28056 15.7334 -8.93733
285 1 17.2993 7.86109 17.2991 -8.94999
286 1 18.8727 6.28749 15.7265 -8.94956
287 1 20.4424 7.86191 17.2974 -8.94958
288 1 9.00253e-05 9.43452 15.725 -8.94951
289 1 3.14312 9.43449 15.7255 -8.94892
290 1 6.28659 9.43417 15.7281 -8.9498
291 1 9.4321 9.42949 15.7361 -8.96101
292 1 12.5848 9.42845 15.7413 -8.96525
293 1 15.7297 9.43353 15.7299 -8.9498
294 1 18.8714 9.43456 15.7256 -8.94943
295 1 22.0137 0.0001657 18.8694 -8.94915
296 1 1.57208 1.57226 20.4417 -8.94915
297 1 3.14416 0.000223668 18.8697 -8.9493
298 1 4.71687 1.57224 20.4418 -8.94952
301 1 9.4344 0.000191833 18.8699 -8.94946
300 1 7.86186 1.57217 20.4418 -8.94947
337 1 22.014 9.43447 18.8694 -8.94948
302 1 11.007 1.57212 20.4419 -8.9495
336 1 20.442 7.86188 20.4414 -8.94946
304 1 14.1521 1.57209 20.4418 -8.94947
39 1 15.7254 6.28827 22.013 -8.95018
306 1 17.2971 1.57207 20.4418 -8.94953
307 1 18.8696 3.84722e-05 18.8696 -8.9492
308 1 20.4418 1.57221 20.4417 -8.94902
309 1 22.0139 3.14442 18.8696 -8.94936
310 1 1.57215 4.71701 20.4416 -8.94966
311 1 3.14389 3.14411 18.8701 -8.94895
312 1 4.71642 4.71655 20.4421 -8.94984
313 1 6.28896 3.14398 18.8702 -8.9494
314 1 7.86155 4.71633 20.4422 -8.94936
315 1 9.43422 3.1438 18.8703 -8.94934
316 1 11.0068 4.71615 20.4422 -8.94948
317 1 12.5796 3.14373 18.8703 -8.94932
318 1 14.1523 4.71612 20.4422 -8.94944
319 1 15.7251 3.1437 18.8702 -8.94945
320 1 17.2978 4.71612 20.4421 -8.94947
321 1 18.8701 3.14391 18.87 -8.94862
322 1 20.442 4.71684 20.4416 -8.94953
323 1 22.014 6.28947 18.8694 -8.9496
324 1 1.57216 7.86194 20.4415 -8.94944
325 1 3.14401 6.28935 18.8699 -8.94982
326 1 4.71659 7.86194 20.4418 -8.94968
327 1 6.2881 6.28834 18.8717 -8.95049
328 1 7.86154 7.86168 20.4427 -8.95081
329 1 9.4338 6.28792 18.8718 -8.94922
330 1 11.0067 7.86114 20.4427 -8.95041
331 1 12.5799 6.28777 18.8719 -8.94939
332 1 14.1526 7.86122 20.4425 -8.95125
333 1 15.7264 6.28766 18.872 -8.95012
334 1 17.2979 7.86155 20.4415 -8.94965
335 1 18.8703 6.28902 18.8699 -8.94972
512 1 1.57213 11.0072 11.0069 -8.94809
513 1 4.71836 11.0084 11.0056 -8.94688
514 1 7.86814 10.9905 11.0196 -8.88361
515 1 11.0575 10.8007 11.312 -7.30641
516 1 14.1611 10.9837 11.0298 -8.92014
517 1 17.2994 11.0067 11.006 -8.95127
518 1 20.4425 11.0071 11.0069 -8.94909
540 1 1.57131 11.007 14.1528 -8.94946
541 1 4.71401 11.0071 14.1543 -8.946
542 1 7.8594 11.0079 14.157 -8.9467
543 1 11.0103 10.9936 14.1506 -9.01919
544 1 14.1603 11.0094 14.1622 -8.94773
545 1 17.3008 11.008 14.1541 -8.94824
546 1 20.4426 11.0072 14.1526 -8.9497
591 1 7.86117 11.0074 17.2989 -8.94933
592 1 11.0073 11.0068 17.2981 -8.94668
593 1 14.1541 11.0079 17.3004 -8.95
638 1 1.5721 11.0069 20.4414 -8.94951
640 1 7.86165 11.007 20.4418 -8.94962
3 1 3.1444 0.000287455 22.0136 -8.94958
5 1 6.28945 0.000242095 22.0137 -8.94946
11 1 15.7245 0.00011935 22.0138 -8.94947
13 1 18.8694 0.00014686 22.0137 -8.94946
15 1 22.014 3.14456 22.0136 -8.94932
17 1 3.14428 3.14437 22.0136 -8.94946
303 1 12.5796 0.000143887 18.8699 -8.94945
33 1 6.28901 6.28906 22.0136 -8.95055
27 1 18.8698 3.14414 22.0137 -8.94918
29 1 22.0141 6.28938 22.0135 -8.94948
31 1 3.14435 6.28936 22.0135 -8.94968
1 1 22.0137 0.000209949 22.0136 -8.94902
21 1 9.43434 3.14419 22.0138 -8.94949
9 1 12.5795 0.000189734 22.0137 -8.9495
23 1 12.5795 3.14411 22.0137 -8.94948
43 1 22.0141 9.43431 22.0134 -8.94948
49 1 18.8702 9.43417 22.013 -8.94937
687 3 10.9624 12.4652 10.1712 2.22496
345 1 4.7161 11.0063 1.57075 -8.94928
511 1 18.8701 18.8704 9.43462 -8.94952
510 1 15.7265 18.8721 9.43423 -8.94858
509 1 12.5799 18.8707 9.43388 -8.94742
349 1 17.2991 11.0066 1.5695 -8.94919
508 1 9.43325 18.8738 9.43367 -8.94724
351 1 22.014 12.5794 -0.000521517 -8.9495
352 1 1.57189 14.1518 1.57137 -8.94936
353 1 3.14412 12.5792 -0.000693098 -8.94948
354 1 4.71588 14.1518 1.5701 -8.94943
538 1 17.2978 20.4426 11.0071 -8.94933
356 1 7.86147 14.1523 1.56776 -8.95481
153 1 15.7252 22.0145 9.43424 -8.94974
358 1 11.0068 14.153 1.56992 -8.94803
150 1 6.28811 22.0154 9.43421 -8.95014
360 1 14.1538 14.1537 1.56659 -8.95305
361 1 15.7258 12.5799 -0.00237379 -8.94967
362 1 17.2991 14.153 1.56948 -8.94893
111 1 18.8696 22.0143 6.28938 -8.94945
364 1 20.4424 14.1522 1.57127 -8.94937
537 1 14.1528 20.4435 11.0067 -8.95027
366 1 1.57159 17.2973 1.57119 -8.94972
148 1 -0.000371715 22.0142 9.43452 -8.9495
368 1 4.71501 17.2988 1.56882 -8.94956
58 1 12.5797 22.0143 3.14401 -8.94947
370 1 7.86187 17.2982 1.57006 -8.94947
56 1 9.43462 22.0144 3.14388 -8.94949
372 1 11.0072 17.2984 1.57047 -8.9493
536 1 11.0072 20.444 11.007 -8.95002
374 1 14.1523 17.2982 1.57063 -8.94978
534 1 4.71486 20.4443 11.0076 -8.94903
376 1 17.2988 17.2989 1.56969 -8.94832
493 1 6.29092 12.5927 9.43114 -9.01919
378 1 20.4422 17.2974 1.57136 -8.94946
492 1 3.14342 12.5795 9.4342 -8.94668
380 1 1.57153 20.4424 1.57134 -8.94862
491 1 22.0138 12.5792 9.43466 -8.94824
382 1 4.71658 20.4426 1.57129 -8.94982
490 1 20.4416 20.4422 7.86198 -8.94948
384 1 7.862 20.4424 1.57153 -8.94929
385 1 9.43449 18.87 -0.000511105 -8.94949
386 1 11.0071 20.4424 1.57159 -8.94946
387 1 12.5796 18.87 -0.000443337 -8.94942
388 1 14.1521 20.4423 1.57176 -8.94928
489 1 18.8703 18.8706 6.28902 -8.94949
390 1 17.2973 20.4423 1.57165 -8.9498
488 1 17.2978 20.4429 7.86176 -8.94927
392 1 20.4417 20.4422 1.57171 -8.94918
507 1 6.28458 18.8768 9.4341 -8.94772
506 1 3.1417 18.8719 9.43456 -8.94906
505 1 22.0131 18.8702 9.43465 -8.94948
504 1 18.8717 15.7259 9.43476 -8.95001
503 1 15.7317 15.7296 9.43356 -8.94611
502 1 12.5917 15.7242 9.42424 -8.92244
501 1 9.40622 15.7319 9.42248 -8.96885
400 1 0.000305668 12.5793 3.1436 -8.94947
401 1 1.57074 14.1519 4.71569 -8.94971
402 1 3.14321 12.5789 3.14283 -8.94902
403 1 4.71154 14.1528 4.7118 -8.9498
404 1 6.28741 12.5783 3.14064 -8.94824
405 1 7.85278 14.1611 4.69638 -8.96195
406 1 9.43543 12.5796 3.1421 -8.95127
407 1 11.007 14.155 4.71392 -8.94192
408 1 12.5822 12.5811 3.13517 -8.95922
409 1 14.1673 14.1654 4.69676 -8.94007
410 1 15.73 12.5807 3.13734 -8.94731
411 1 17.304 14.155 4.71182 -8.94901
412 1 18.872 12.5797 3.14234 -8.94919
413 1 20.4435 14.1524 4.71574 -8.94994
414 1 22.0139 15.7248 3.14363 -8.94965
415 1 1.56949 17.2987 4.71512 -8.95012
416 1 3.14233 15.7252 3.14213 -8.94999
417 1 4.70808 17.3058 4.70783 -8.93733
418 1 6.28465 15.7291 3.13545 -8.95126
419 1 7.86096 17.3026 4.71156 -8.95103
420 1 9.43507 15.7272 3.14034 -8.94807
421 1 11.008 17.3012 4.7134 -8.94423
422 1 12.5796 15.7268 3.14111 -8.94908
423 1 14.1538 17.3015 4.71363 -8.95285
424 1 15.7301 15.7301 3.13704 -8.94596
425 1 17.3013 17.3015 4.71297 -8.94533
426 1 18.8717 15.726 3.14249 -8.94935
427 1 20.4424 17.298 4.71605 -8.95018
428 1 22.0133 18.8702 3.14368 -8.94947
429 1 1.57125 20.4426 4.71639 -8.94945
430 1 3.14186 18.872 3.14164 -8.94634
431 1 4.71495 20.4449 4.71477 -8.94966
432 1 6.28855 18.8718 3.14202 -8.95029
433 1 7.86217 20.4437 4.71577 -8.94979
434 1 9.43475 18.8713 3.14277 -8.94868
435 1 11.0075 20.4432 4.71591 -8.94957
436 1 12.5799 18.8711 3.14318 -8.94841
437 1 14.1521 20.4428 4.71655 -8.95053
438 1 15.7254 18.8714 3.14303 -8.95051
439 1 17.2978 20.4433 4.71619 -8.94966
440 1 18.8704 18.8709 3.14324 -8.9485
441 1 20.4417 20.4423 4.71676 -8.94955
500 1 6.27203 15.7403 9.43375 -8.94365
499 1 3.13801 15.728 9.43462 -8.9493
498 1 -0.0011844 15.7252 9.43477 -8.95041
497 1 18.8702 12.5795 9.43434 -8.94539
496 1 15.7196 12.5777 9.42921 -8.99952
495 1 12.7973 12.5739 9.35811 -8.08856
494 1 9.12948 12.7856 9.38399 -7.30652
449 1 22.0143 12.5791 6.28882 -8.95052
450 1 1.56887 14.1522 7.86166 -8.95345
451 1 3.14111 12.5784 6.28736 -8.95
452 1 4.70016 14.1579 7.85671 -8.96525
453 1 6.27925 12.577 6.2812 -8.94773
454 1 7.78886 14.2268 7.78502 -8.7212
455 1 9.41173 12.6026 6.2804 -8.92014
456 1 11.0127 14.1378 7.86768 -8.90441
457 1 12.6255 12.6112 6.24965 -8.88553
458 1 14.1889 14.1845 7.82559 -8.86236
459 1 15.7426 12.5816 6.27694 -8.95178
460 1 17.3054 14.1537 7.8598 -8.95866
461 1 18.8749 12.5795 6.28714 -8.95142
462 1 20.443 14.1521 7.86196 -8.95158
463 1 22.0129 15.7251 6.28887 -8.95125
464 1 1.56955 17.2986 7.86156 -8.94939
465 1 3.1367 15.7281 6.28562 -8.953
466 1 4.7094 17.3039 7.85937 -8.94712
467 1 6.2627 15.7512 6.26264 -8.9008
468 1 7.85239 17.3173 7.85409 -8.96166
469 1 9.4374 15.7344 6.28154 -8.95098
470 1 11.0058 17.2944 7.8641 -8.9443
471 1 12.5802 15.7317 6.28401 -8.95998
472 1 14.1567 17.3056 7.85816 -8.95529
473 1 15.7375 15.7368 6.27744 -8.93233
474 1 17.3001 17.2996 7.8611 -8.9486
475 1 18.873 15.7263 6.28797 -8.95151
476 1 20.4421 17.2979 7.86192 -8.94958
477 1 -0.000718628 18.8702 6.28918 -8.94944
478 1 1.57119 20.4426 7.86183 -8.94932
479 1 3.14163 18.8721 6.28797 -8.9491
480 1 4.71485 20.4445 7.86118 -8.949
481 1 6.28474 18.8783 6.28456 -8.9516
482 1 7.8611 20.4465 7.86102 -8.95381
483 1 9.43568 18.873 6.28777 -8.95024
484 1 11.0072 20.4421 7.86183 -8.94733
485 1 12.5789 18.8711 6.28914 -8.9516
486 1 14.1526 20.4437 7.86164 -8.95146
487 1 15.7268 18.8736 6.28747 -8.95043
530 1 14.1541 17.3031 11.0065 -8.95247
531 1 17.2991 17.299 11.0075 -8.94762
399 1 20.4439 11.0065 4.71565 -8.94967
398 1 17.3041 11.0056 4.71145 -8.94731
394 1 4.71424 11.0052 4.71379 -8.94522
393 1 1.57155 11.0063 4.71583 -8.94935
50 1 -0.000308074 22.0143 3.14437 -8.94953
688 3 10.2703 11.1211 9.47911 2.22496
101 1 3.14354 22.0147 6.28897 -8.9493
526 1 1.56972 17.2984 11.0077 -8.94922
527 1 4.71026 17.3033 11.009 -8.94602
532 1 20.4418 17.2977 11.0074 -8.94947
383 1 6.28927 18.8699 -0.000666223 -8.94973
377 1 18.8701 15.7249 -0.000987109 -8.94935
686 1 20.4417 20.4418 20.4414 -8.94932
685 1 18.8698 18.8696 18.8694 -8.94953
684 1 17.2971 20.4419 20.4417 -8.94962
683 1 15.7251 18.8699 18.8702 -8.94973
682 1 14.1522 20.442 20.4418 -8.9494
681 1 12.5799 18.8701 18.8704 -8.94931
680 1 11.007 20.4421 20.4418 -8.94948
519 1 1.56965 14.1521 11.0072 -8.95186
520 1 4.70535 14.1568 11.0094 -8.96101
521 1 7.81046 14.2152 11.0638 -8.78724
522 1 10.995 14.2932 11.0531 -8.26191
523 1 14.1611 14.1722 11.0159 -8.90124
524 1 17.2986 14.1523 11.0057 -8.95257
525 1 20.4417 14.1519 11.007 -8.94983
305 1 15.7248 22.014 18.8698 -8.94945
299 1 6.2892 22.0141 18.8699 -8.94943
528 1 7.85466 17.3146 11.01 -8.96069
529 1 11.0047 17.3045 11.0078 -8.98347
391 1 18.8698 18.8699 22.0131 -8.94915
389 1 15.7247 18.8699 22.0134 -8.94981
258 1 18.8697 22.014 15.7247 -8.9497
533 1 1.5712 20.4425 11.0073 -8.94934
254 1 12.5801 22.0143 15.7258 -8.94933
535 1 7.86086 20.4462 11.0071 -8.9525
252 1 9.43428 22.0145 15.7259 -8.94937
248 1 3.14358 22.0144 15.7253 -8.94949
207 1 15.7252 22.0143 12.5795 -8.94973
539 1 20.4416 20.4421 11.0071 -8.94949
679 1 9.43435 18.8702 18.8705 -8.9494
678 1 7.86186 20.4421 20.4418 -8.94944
677 1 6.28881 18.8701 18.8706 -8.94965
676 1 4.71674 20.442 20.4417 -8.94957
675 1 3.14383 18.8698 18.8699 -8.94964
674 1 1.57193 20.4419 20.4414 -8.94936
673 1 22.0138 18.8693 18.8693 -8.94966
547 1 22.0136 12.5793 12.5798 -8.94962
548 1 1.57103 14.1517 14.1527 -8.94952
549 1 3.1426 12.5789 12.5803 -8.94933
550 1 4.71342 14.1522 14.1549 -8.9498
551 1 6.28446 12.5784 12.5821 -8.9467
552 1 7.8556 14.1574 14.1664 -8.96083
553 1 9.42189 12.5958 12.5733 -8.8836
554 1 11.0059 14.1566 14.1567 -8.96009
555 1 12.5943 12.6002 12.5772 -8.8674
556 1 14.1576 14.157 14.1586 -8.94625
557 1 15.7279 12.5806 12.5791 -8.95102
558 1 17.2991 14.1526 14.1528 -8.94992
559 1 18.8705 12.5796 12.5796 -8.9498
560 1 20.442 14.152 14.1524 -8.94974
561 1 22.0127 15.7246 12.5799 -8.95081
562 1 1.56977 17.298 14.1534 -8.95049
563 1 3.13832 15.7269 12.5821 -8.95326
564 1 4.70872 17.304 14.1593 -8.94248
565 1 6.26691 15.7457 12.5994 -8.92345
566 1 7.85383 17.3084 14.163 -8.93862
567 1 9.41512 15.7562 12.6073 -8.89665
568 1 11.0076 17.3053 14.1597 -8.9419
569 1 12.5961 15.7506 12.6017 -8.91087
570 1 14.1593 17.3056 14.1598 -8.941
571 1 15.7315 15.7304 12.5838 -8.94986
572 1 17.3001 17.2992 14.1541 -8.94972
573 1 18.8707 15.7249 12.5797 -8.95164
574 1 20.4418 17.2973 14.1525 -8.95055
575 1 -0.000736974 18.87 12.5799 -8.94936
576 1 1.57127 20.4423 14.1525 -8.9494
577 1 3.14189 18.8716 12.5808 -8.94881
578 1 4.71493 20.4441 14.1538 -8.94998
579 1 6.28528 18.8767 12.5828 -8.9517
580 1 7.86065 20.4453 14.1543 -8.95047
581 1 9.43342 18.8784 12.5833 -8.95475
582 1 11.0075 20.4448 14.1543 -8.94931
583 1 12.5807 18.8759 12.5818 -8.95555
584 1 14.1534 20.444 14.1534 -8.95099
585 1 15.7261 18.8718 12.5802 -8.95005
586 1 17.2978 20.4425 14.1524 -8.94984
587 1 18.87 18.8701 12.5799 -8.94918
588 1 20.4416 20.442 14.1522 -8.94947
589 1 1.57185 11.007 17.2974 -8.94948
590 1 4.71577 11.0069 17.2983 -8.94901
672 1 20.4418 17.2969 20.4413 -8.94948
671 1 18.8698 15.7246 18.8693 -8.94934
670 1 17.2975 17.2974 20.4411 -8.94982
594 1 17.2986 11.0074 17.2983 -8.94902
595 1 20.4422 11.0071 17.2974 -8.94948
596 1 -7.9365e-05 12.5795 15.725 -8.94955
597 1 1.57182 14.1519 17.2974 -8.94933
598 1 3.14321 12.5794 15.7257 -8.94901
599 1 4.71595 14.1518 17.2984 -8.94892
600 1 6.28717 12.5792 15.7275 -8.946
601 1 7.86175 14.1515 17.2999 -8.95356
602 1 9.43588 12.5779 15.7231 -8.94688
603 1 11.007 14.1519 17.2983 -8.95029
604 1 12.5797 12.579 15.724 -8.94866
605 1 14.1526 14.1521 17.2985 -8.95147
606 1 15.7277 12.5811 15.7272 -8.94522
607 1 17.2981 14.1525 17.2978 -8.94867
608 1 18.8707 12.58 15.7254 -8.94928
609 1 20.442 14.1521 17.2973 -8.94938
610 1 22.0136 15.7244 15.7249 -8.94968
611 1 1.5716 17.297 17.2975 -8.94982
612 1 3.14281 15.7247 15.726 -8.95002
613 1 4.71513 17.2982 17.2995 -8.95004
614 1 6.28553 15.7276 15.7313 -8.95177
615 1 7.86076 17.2988 17.3007 -8.95023
616 1 9.43352 15.7282 15.7324 -8.95367
617 1 11.0074 17.2989 17.3002 -8.94914
618 1 12.5808 15.7272 15.7303 -8.95426
619 1 14.1533 17.2983 17.2996 -8.95049
620 1 15.7272 15.7266 15.7276 -8.94902
621 1 17.2981 17.2977 17.298 -8.94955
622 1 18.8703 15.7247 15.7251 -8.94976
623 1 20.4418 17.297 17.2971 -8.94968
624 1 22.0133 18.8698 15.7251 -8.94984
625 1 1.57142 20.4422 17.2976 -8.94895
626 1 3.14179 18.8715 15.7269 -8.94756
627 1 4.71581 20.4428 17.2984 -8.94884
628 1 6.28623 18.8732 15.7287 -8.94682
629 1 7.86146 20.4427 17.2984 -8.94924
630 1 9.43389 18.8726 15.728 -8.94827
631 1 11.0072 20.4426 17.2984 -8.94943
632 1 12.5808 18.8721 15.7275 -8.94799
633 1 14.1527 20.4424 17.2981 -8.94921
634 1 15.7273 18.8722 15.7273 -8.94726
635 1 17.2979 20.4423 17.2979 -8.94889
636 1 18.8704 18.8701 15.7253 -8.94956
637 1 20.4418 20.442 17.2972 -8.94946
669 1 15.7251 15.7248 18.8697 -8.95032
639 1 4.71645 11.0068 20.4416 -8.94955
668 1 14.1522 17.2974 20.4417 -8.94988
667 1 12.5796 15.7248 18.8705 -8.95061
666 1 11.0071 17.2976 20.4419 -8.94982
643 1 17.2979 11.007 20.4412 -8.94947
665 1 9.43443 15.7249 18.871 -8.95097
645 1 22.0139 12.5795 18.8694 -8.94951
646 1 1.57208 14.1519 20.4414 -8.94948
647 1 3.14406 12.5794 18.8696 -8.94948
648 1 4.71648 14.1518 20.4414 -8.94951
649 1 6.2887 12.5793 18.8702 -8.94946
650 1 7.86187 14.1517 20.4413 -8.95083
651 1 9.43455 12.5792 18.8694 -8.94809
652 1 11.0069 14.152 20.4412 -8.94955
653 1 12.5796 12.5795 18.8692 -8.94881
654 1 14.1523 14.1522 20.4406 -8.95057
655 1 15.7256 12.58 18.8699 -8.94935
656 1 17.2977 14.1523 20.441 -8.94936
657 1 18.87 12.5797 18.8695 -8.94945
658 1 20.4419 14.152 20.4413 -8.94948
659 1 22.0139 15.7244 18.8693 -8.94944
660 1 1.57206 17.2969 20.4414 -8.9496
661 1 3.14411 15.7243 18.8696 -8.94948
662 1 4.71642 17.2973 20.4413 -8.95033
663 1 6.28891 15.7246 18.8706 -8.9511
664 1 7.86176 17.2974 20.4419 -8.94997
381 1 3.14388 18.87 22.0128 -8.94942
201 1 6.28834 22.0151 12.5802 -8.95067
355 1 6.28888 12.5791 22.0127 -8.9497
357 1 9.43462 12.5792 22.0129 -8.94909
359 1 12.5795 12.5796 22.0115 -8.95095
365 1 22.014 15.7244 22.0134 -8.94946
367 1 3.14408 15.7244 22.013 -8.94958
369 1 6.28881 15.7249 22.0118 -8.95135
371 1 9.43446 15.7251 22.0126 -8.94977
373 1 12.5794 15.7251 22.0127 -8.94956
375 1 15.7255 15.7255 22.0117 -8.95045
246 1 -0.000314359 22.0141 15.7246 -8.94952
379 1 22.0138 18.8695 22.0134 -8.94953
363 1 18.8702 12.5796 22.0129 -8.94941
