ITEM: TIMESTEP
77
ITEM: NUMBER OF ATOMS
688
ITEM: BOX BOUNDS pp pp pp
0.0000000000000000e+00 2.2013900999999997e+01
0.0000000000000000e+00 2.2013900999999997e+01
0.0000000000000000e+00 2.2013900999999997e+01
ITEM: ATOMS id type x y z c_pot
7 1 9.4345 0.000147487 -0.000147897 -8.94956
2 1 1.57205 1.57236 1.57205 -8.94926
448 1 20.4437 11.0068 7.86213 -8.95099
4 1 4.71703 1.57228 1.57202 -8.94971
447 1 17.306 11.0054 7.85996 -8.95919
6 1 7.86201 1.57224 1.572 -8.94947
175 1 18.8714 9.43353 9.43485 -8.94806
8 1 11.007 1.5722 1.57198 -8.94954
174 1 15.7273 9.4318 9.43474 -8.94169
10 1 14.152 1.57216 1.57204 -8.94949
446 1 14.1914 10.9754 7.81739 -8.88633
12 1 17.297 1.5721 1.57209 -8.94959
445 1 11.0839 11.0127 7.64636 -8.08956
14 1 20.4416 1.57233 1.57222 -8.94952
444 1 7.863 10.984 7.84619 -8.8653
16 1 1.57213 4.71693 1.57193 -8.94954
443 1 4.71699 11.0071 7.86181 -8.94892
18 1 4.71643 4.71641 1.57129 -8.94957
442 1 1.57202 11.0069 7.86198 -8.94891
20 1 7.86178 4.71644 1.57154 -8.9492
149 1 3.14392 0.000440862 9.4345 -8.94945
22 1 11.0069 4.71624 1.57147 -8.94953
154 1 18.8695 0.000219601 9.4345 -8.94954
24 1 14.1522 4.71611 1.57142 -8.94955
188 1 17.2983 4.7155 11.0067 -8.94874
26 1 17.2978 4.71594 1.57136 -8.94855
183 1 1.57124 4.71639 11.0071 -8.94941
28 1 20.442 4.71673 1.57189 -8.94922
397 1 14.1633 11.0048 4.70013 -8.95176
30 1 1.57216 7.86188 1.57191 -8.9494
396 1 11.0118 11.0081 4.72106 -8.99886
32 1 4.71655 7.86175 1.57134 -8.94974
395 1 7.86241 11.0054 4.71344 -8.95149
34 1 7.86176 7.86159 1.57071 -8.95156
35 1 9.43415 6.28885 -0.000465138 -8.94947
36 1 11.0066 7.86066 1.56989 -8.94996
37 1 12.5794 6.28877 -0.000590317 -8.94955
38 1 14.1531 7.86037 1.56891 -8.95138
181 1 17.2973 1.57208 11.0069 -8.94952
40 1 17.2983 7.86085 1.57035 -8.94941
346 1 7.86181 11.0067 1.5709 -8.9498
42 1 20.4421 7.86174 1.57177 -8.94944
164 1 6.2818 6.28124 9.43373 -8.94193
44 1 3.14436 9.43435 -0.000410617 -8.94943
350 1 20.4421 11.0069 1.57169 -8.94948
348 1 14.1538 11.0068 1.56724 -8.95128
347 1 11.0069 11.0067 1.571 -8.94565
48 1 15.7253 9.43405 -0.0015875 -8.94988
163 1 3.14151 6.28776 9.43422 -8.94918
344 1 1.57204 11.0068 1.57175 -8.94951
51 1 1.57197 1.57231 4.71697 -8.94951
52 1 3.14409 0.000541144 3.14407 -8.94939
53 1 4.71638 1.57206 4.71632 -8.95005
54 1 6.28956 0.000369334 3.14421 -8.94971
55 1 7.86207 1.57199 4.71652 -8.94966
173 1 12.5728 9.4482 9.42949 -8.90394
57 1 11.0072 1.57187 4.71646 -8.9497
172 1 9.38556 9.28642 9.44497 -8.25732
59 1 14.1522 1.57169 4.71675 -8.95027
60 1 15.7245 0.000146223 3.14443 -8.94999
61 1 17.297 1.57228 4.71699 -8.94999
62 1 18.8694 0.000325006 3.14451 -8.94959
63 1 20.4416 1.57233 4.71713 -8.94952
64 1 22.0137 3.14455 3.14455 -8.94964
65 1 1.57145 4.71657 4.7166 -8.94972
66 1 3.14385 3.14406 3.14384 -8.94881
67 1 4.71434 4.71428 4.71435 -8.94694
68 1 6.28927 3.14399 3.14392 -8.94979
69 1 7.86145 4.71475 4.71549 -8.9499
70 1 9.43442 3.14388 3.14391 -8.94936
71 1 11.0072 4.71447 4.71519 -8.94852
72 1 12.5796 3.14373 3.14392 -8.94927
73 1 14.1537 4.71319 4.71505 -8.95033
74 1 15.725 3.14342 3.14393 -8.9496
75 1 17.298 4.71544 4.7164 -8.95045
76 1 18.8696 3.14426 3.14445 -8.94978
77 1 20.4417 4.71672 4.717 -8.94981
78 1 22.0141 6.28919 3.14426 -8.94978
79 1 1.57172 7.8617 4.71659 -8.95022
80 1 3.14367 6.28886 3.14362 -8.94946
81 1 4.71399 7.85997 4.71441 -8.94874
82 1 6.28762 6.28746 3.14156 -8.94984
83 1 7.85772 7.8564 4.70983 -8.95062
84 1 9.43397 6.28761 3.14249 -8.94775
85 1 11.0076 7.85701 4.70994 -8.9466
86 1 12.5801 6.28712 3.14184 -8.94873
87 1 14.1631 7.85018 4.70489 -8.93249
88 1 15.7278 6.28554 3.1409 -8.94541
89 1 17.3034 7.85697 4.71224 -8.946
90 1 18.8712 6.28794 3.14318 -8.94838
91 1 20.4432 7.86115 4.71633 -8.95038
92 1 0.000217572 9.4342 3.14408 -8.94939
93 1 3.14376 9.43402 3.14362 -8.94876
94 1 6.28862 9.43386 3.1424 -8.95003
95 1 9.43548 9.434 3.1426 -8.95219
96 1 12.5812 9.43273 3.13642 -8.95836
97 1 15.7287 9.43179 3.13856 -8.9491
98 1 18.8712 9.43371 3.14308 -8.94902
99 1 22.0137 0.000172375 6.28956 -8.94954
100 1 1.57189 1.57227 7.86197 -8.94952
166 1 12.5773 6.29155 9.43514 -8.94408
102 1 4.71611 1.57193 7.86162 -8.94933
103 1 6.28892 0.0013231 6.28876 -8.9511
104 1 7.86176 1.57159 7.86162 -8.95134
105 1 9.43491 0.000577688 6.28902 -8.94986
106 1 11.0073 1.5719 7.86174 -8.94894
107 1 12.5795 0.000231587 6.28929 -8.94988
108 1 14.1522 1.57219 7.86193 -8.94988
109 1 15.7247 0.000734486 6.28932 -8.95027
110 1 17.2973 1.57215 7.86188 -8.94947
165 1 9.43306 6.28316 9.43587 -8.98454
112 1 20.4416 1.57229 7.86202 -8.94956
113 1 -0.000241882 3.14448 6.28948 -8.94946
114 1 1.5713 4.71642 7.86177 -8.94934
115 1 3.14372 3.14399 6.28907 -8.94924
116 1 4.71437 4.71446 7.86084 -8.94793
117 1 6.28826 3.1423 6.28822 -8.95103
118 1 7.85975 4.71043 7.86072 -8.95598
119 1 9.4348 3.14286 6.28878 -8.95021
120 1 11.0074 4.71549 7.86153 -8.94791
121 1 12.5798 3.14276 6.28905 -8.95151
122 1 14.1522 4.7153 7.86253 -8.95137
123 1 15.7248 3.14375 6.28954 -8.9504
124 1 17.298 4.71563 7.86172 -8.94847
125 1 18.8695 3.14429 6.28949 -8.94932
126 1 20.4418 4.71658 7.86194 -8.94946
127 1 22.0136 6.28914 6.28941 -8.94988
128 1 1.57083 7.86162 7.86192 -8.95067
129 1 3.14199 6.28817 6.28834 -8.95051
130 1 4.71072 7.85923 7.86056 -8.95457
131 1 6.28131 6.2805 6.28173 -8.94016
132 1 7.83792 7.83461 7.8434 -8.90815
133 1 9.43492 6.28334 6.28719 -8.95227
134 1 11.0174 7.8614 7.84899 -8.92083
135 1 12.5831 6.28088 6.28496 -8.95508
136 1 14.1569 7.85505 7.86176 -8.96034
137 1 15.7273 6.2854 6.28817 -8.95284
138 1 17.2998 7.85996 7.86225 -8.94913
139 1 18.8704 6.28854 6.28946 -8.94979
140 1 20.4424 7.86142 7.86214 -8.94959
141 1 22.0144 9.43425 6.28932 -8.95054
142 1 3.14279 9.43437 6.28891 -8.95142
143 1 6.28231 9.42933 6.28341 -8.94512
144 1 9.42588 9.41431 6.28071 -8.90255
145 1 12.615 9.40235 6.25351 -8.86263
146 1 15.7436 9.42157 6.27538 -8.94008
147 1 18.8742 9.43289 6.28809 -8.95297
171 1 6.2838 9.42933 9.43526 -8.96079
170 1 3.14271 9.43446 9.43452 -8.95043
169 1 22.0139 9.43433 9.43466 -8.94965
151 1 9.4348 0.000879399 9.43422 -8.94933
152 1 12.5797 0.000524105 9.43422 -8.94894
168 1 18.8707 6.28826 9.43436 -8.94933
167 1 15.7276 6.28556 9.43356 -8.94438
155 1 22.0137 3.14443 9.43449 -8.94954
156 1 3.14358 3.1439 9.4344 -8.94947
157 1 6.28753 3.14174 9.4341 -8.94931
158 1 9.43452 3.14249 9.43416 -8.94954
159 1 12.5796 3.14412 9.43416 -8.94751
160 1 15.7253 3.14337 9.4341 -8.94957
161 1 18.8697 3.14419 9.43441 -8.94952
162 1 -0.000444199 6.28896 9.43447 -8.94981
177 1 4.71605 1.57182 11.0071 -8.94937
184 1 4.71402 4.71418 11.0076 -8.94823
41 1 18.8697 6.28921 -0.000507531 -8.94953
19 1 6.28949 3.1445 -0.00017517 -8.9495
25 1 15.7245 3.14437 -0.000167726 -8.94961
176 1 1.57188 1.57225 11.007 -8.94953
199 1 3.14397 0.000368379 12.5797 -8.94933
178 1 7.86152 1.57117 11.0069 -8.9514
179 1 11.0073 1.57154 11.0067 -8.94933
180 1 14.1525 1.57184 11.0066 -8.94986
644 1 20.4418 11.0069 20.4414 -8.94956
182 1 20.4416 1.57227 11.007 -8.94956
642 1 14.1525 11.0071 20.4412 -8.95042
209 1 18.8695 0.000179314 12.5795 -8.94947
185 1 7.85863 4.70847 11.0077 -8.9552
186 1 11.0075 4.71272 11.0075 -8.94807
187 1 14.1534 4.71382 11.0056 -8.95008
641 1 11.0068 11.0071 20.4415 -8.94841
189 1 20.4418 4.71655 11.007 -8.94952
190 1 1.57049 7.86156 11.0071 -8.95098
191 1 4.709 7.85847 11.008 -8.95396
192 1 7.83302 7.82995 11.0268 -8.894
193 1 11.0189 7.85336 11.0338 -8.96619
194 1 14.1594 7.85277 11.0034 -8.9508
195 1 17.3006 7.85963 11.0063 -8.94812
196 1 20.4425 7.86139 11.007 -8.94977
197 1 22.0137 0.00015289 12.5795 -8.94954
198 1 1.57193 1.57224 14.1521 -8.94951
343 1 18.8697 9.43452 18.8695 -8.94941
200 1 4.71616 1.57175 14.1526 -8.94983
342 1 15.7253 9.43454 18.8704 -8.94964
202 1 7.86155 1.57146 14.1528 -8.95054
203 1 9.43459 0.00124921 12.58 -8.9514
204 1 11.0072 1.5713 14.153 -8.95005
205 1 12.5799 0.000835585 12.5797 -8.95134
206 1 14.1527 1.5711 14.1526 -8.9511
341 1 12.5796 9.43434 18.8722 -8.95329
208 1 17.2973 1.57205 14.1519 -8.94971
340 1 9.43433 9.43449 18.8714 -8.95168
210 1 20.4416 1.57229 14.1519 -8.94952
211 1 -0.000240195 3.14444 12.5795 -8.94949
212 1 1.57125 4.71647 14.1524 -8.94964
213 1 3.14357 3.14387 12.5798 -8.94928
214 1 4.71349 4.71369 14.1548 -8.94665
215 1 6.28772 3.14151 12.5806 -8.95055
216 1 7.85931 4.71078 14.1554 -8.95146
217 1 9.43448 3.14068 12.5803 -8.95235
218 1 11.0073 4.71074 14.1559 -8.94764
219 1 12.5802 3.1405 12.58 -8.95379
220 1 14.1561 4.70922 14.1559 -8.95155
221 1 15.7253 3.14321 12.5792 -8.94973
222 1 17.2987 4.71528 14.1525 -8.95028
223 1 18.8697 3.14424 12.5794 -8.94935
224 1 20.4419 4.71669 14.152 -8.9497
225 1 22.0135 6.2891 12.5797 -8.94993
226 1 1.57117 7.8619 14.1524 -8.9509
227 1 3.14125 6.28793 12.5806 -8.95025
228 1 4.71101 7.85946 14.1554 -8.95157
229 1 6.27893 6.2786 12.5875 -8.93801
230 1 7.84337 7.84256 14.1731 -8.92488
231 1 9.43178 6.27289 12.5858 -8.96014
232 1 11.0075 7.84779 14.1677 -8.9438
233 1 12.5869 6.27008 12.5879 -8.96141
234 1 14.1774 7.83679 14.1771 -8.90132
235 1 15.729 6.28479 12.5799 -8.95103
236 1 17.3049 7.858 14.156 -8.9513
237 1 18.8709 6.28854 12.5795 -8.94945
238 1 20.4432 7.86159 14.1525 -8.95115
239 1 22.014 9.4346 12.5796 -8.95074
240 1 3.1418 9.43497 12.5797 -8.95334
241 1 6.27562 9.42972 12.5854 -8.96011
242 1 9.37936 9.37298 12.6282 -8.78907
243 1 12.6555 9.36105 12.6507 -8.7215
244 1 15.7441 9.42635 12.5877 -8.96205
245 1 18.8733 9.43417 12.5799 -8.95459
47 1 12.5794 9.43425 22.0124 -8.95148
247 1 1.57201 1.57227 17.297 -8.94937
46 1 9.43438 9.43441 22.0134 -8.9498
249 1 4.7166 1.57209 17.2974 -8.94954
250 1 6.28887 0.00066726 15.7253 -8.94983
251 1 7.86179 1.57205 17.2975 -8.94933
339 1 6.289 9.43468 18.8701 -8.94951
253 1 11.007 1.57198 17.2976 -8.94945
338 1 3.1443 9.43449 18.8695 -8.94938
255 1 14.1522 1.57194 17.2975 -8.94935
256 1 15.7252 0.000358761 15.7251 -8.95005
257 1 17.2974 1.57188 17.2974 -8.94939
45 1 6.2892 9.4344 22.0133 -8.94974
259 1 20.4416 1.57227 17.2969 -8.94964
260 1 22.0137 3.1445 15.7245 -8.94959
261 1 1.57186 4.71679 17.2973 -8.94965
262 1 3.14361 3.14386 15.7253 -8.94882
263 1 4.71524 4.71543 17.299 -8.94776
264 1 6.28833 3.14283 15.7259 -8.94995
265 1 7.86119 4.71548 17.2988 -8.94892
266 1 9.43411 3.14275 15.726 -8.94907
267 1 11.0069 4.71523 17.2989 -8.94912
268 1 12.58 3.14256 15.726 -8.94903
269 1 14.1529 4.71512 17.299 -8.94923
270 1 15.7261 3.14223 15.726 -8.94966
271 1 17.299 4.715 17.2989 -8.94656
272 1 18.8698 3.14417 15.7246 -8.94984
273 1 20.4422 4.71666 17.2973 -8.94946
274 1 22.014 6.28927 15.7248 -8.9502
275 1 1.57203 7.86207 17.2971 -8.9495
276 1 3.14261 6.28856 15.7258 -8.94998
277 1 4.71598 7.86195 17.2981 -8.95003
278 1 6.28322 6.28352 15.7317 -8.943
279 1 7.85995 7.86012 17.3022 -8.95326
280 1 9.43283 6.28432 15.73 -8.94619
281 1 11.0067 7.8592 17.3024 -8.94931
282 1 12.5814 6.28375 15.7307 -8.94727
283 1 14.1551 7.85905 17.3037 -8.95299
284 1 15.7324 6.28177 15.7322 -8.93765
285 1 17.2986 7.86149 17.2985 -8.94998
286 1 18.8719 6.28803 15.7259 -8.94957
287 1 20.442 7.86202 17.2971 -8.94958
288 1 4.64686e-05 9.43453 15.7248 -8.94949
289 1 3.14351 9.43463 15.7252 -8.94897
290 1 6.28721 9.43471 15.7274 -8.94996
291 1 9.43246 9.43062 15.7349 -8.96068
292 1 12.5841 9.42955 15.7401 -8.96519
293 1 15.7287 9.43406 15.729 -8.94982
294 1 18.8708 9.43465 15.7253 -8.94943
295 1 22.0138 0.0001095 18.8692 -8.9493
296 1 1.57223 1.57231 20.4416 -8.9493
297 1 3.14445 0.000152575 18.8695 -8.94937
298 1 4.71708 1.57231 20.4416 -8.94959
301 1 9.43445 0.00016734 18.8696 -8.94953
300 1 7.86199 1.57227 20.4417 -8.94954
337 1 22.0139 9.43449 18.8693 -8.94954
302 1 11.007 1.57225 20.4417 -8.94956
336 1 20.4418 7.862 20.4414 -8.94953
304 1 14.1519 1.57225 20.4417 -8.94954
39 1 15.7251 6.28868 22.0131 -8.95012
306 1 17.2969 1.57225 20.4416 -8.94962
307 1 18.8694 6.61009e-05 18.8694 -8.94926
308 1 20.4416 1.57231 20.4416 -8.9492
309 1 22.0139 3.14461 18.8693 -8.94946
310 1 1.57226 4.71715 20.4415 -8.94969
311 1 3.14424 3.14435 18.8697 -8.94907
312 1 4.71672 4.71678 20.4419 -8.94983
313 1 6.28929 3.14429 18.8698 -8.94948
314 1 7.86177 4.71663 20.4419 -8.9494
315 1 9.43435 3.14417 18.8698 -8.94943
316 1 11.0069 4.71651 20.4419 -8.94951
317 1 12.5795 3.14415 18.8698 -8.94942
318 1 14.1521 4.71653 20.4419 -8.94947
319 1 15.7247 3.14415 18.8698 -8.94956
320 1 17.2974 4.71653 20.4419 -8.94951
321 1 18.8697 3.14425 18.8696 -8.94878
322 1 20.4418 4.71706 20.4415 -8.94961
323 1 22.014 6.2896 18.8693 -8.94962
324 1 1.57224 7.86202 20.4415 -8.9495
325 1 3.14433 6.28953 18.8696 -8.94982
326 1 4.71681 7.86203 20.4416 -8.94966
327 1 6.28855 6.28871 18.8711 -8.95046
328 1 7.86169 7.86181 20.4423 -8.95072
329 1 9.43401 6.28841 18.8711 -8.94924
330 1 11.0067 7.86139 20.4423 -8.95032
331 1 12.5797 6.28834 18.8712 -8.94939
332 1 14.1523 7.86148 20.4422 -8.95112
333 1 15.7257 6.28822 18.8714 -8.95012
334 1 17.2974 7.86179 20.4415 -8.94964
335 1 18.8698 6.28932 18.8696 -8.94976
512 1 1.57201 11.0071 11.007 -8.94816
513 1 4.71815 11.0082 11.0056 -8.94678
514 1 7.86857 10.9896 11.0187 -8.88182
515 1 11.0596 10.8061 11.3128 -7.30326
516 1 14.1611 10.9853 11.0288 -8.92171
517 1 17.2995 11.007 11.0061 -8.95126
518 1 20.4425 11.0071 11.0069 -8.94919
540 1 1.57145 11.007 14.1526 -8.94942
541 1 4.71445 11.0073 14.1539 -8.94608
542 1 7.86021 11.0083 14.1561 -8.94741
543 1 11.0105 10.9952 14.1503 -9.01941
544 1 14.1597 11.01 14.1614 -8.94791
545 1 17.3004 11.0081 14.1537 -8.94831
546 1 20.4425 11.0072 14.1525 -8.94966
591 1 7.86132 11.0075 17.2986 -8.94926
592 1 11.0071 11.0071 17.298 -8.9467
593 1 14.1537 11.008 17.3001 -8.94983
638 1 1.57219 11.0069 20.4415 -8.94957
640 1 7.86169 11.007 20.4417 -8.94961
3 1 3.14463 0.000154474 22.0137 -8.94964
5 1 6.28958 0.000134198 22.0138 -8.94952
11 1 15.7244 9.02901e-05 22.0138 -8.94952
13 1 18.8693 9.32504e-05 22.0138 -8.94952
15 1 22.0139 3.14469 22.0137 -8.94943
17 1 3.14449 3.14451 22.0137 -8.94951
303 1 12.5795 0.00015357 18.8696 -8.94952
33 1 6.2892 6.28922 22.0135 -8.95046
27 1 18.8695 3.14442 22.0138 -8.94927
29 1 22.014 6.28954 22.0137 -8.94954
31 1 3.1445 6.2895 22.0136 -8.94967
1 1 22.0138 0.000108599 22.0137 -8.9492
21 1 9.43443 3.14439 22.0137 -8.94954
9 1 12.5795 0.000135329 22.0138 -8.94956
23 1 12.5794 3.14437 22.0137 -8.94953
43 1 22.014 9.43442 22.0136 -8.94955
49 1 18.8698 9.43432 22.0133 -8.94944
687 3 10.9614 12.4719 10.1741 2.22033
345 1 4.71624 11.0065 1.57098 -8.9493
511 1 18.87 18.8701 9.43461 -8.94953
510 1 15.7263 18.8719 9.4343 -8.94852
509 1 12.5799 18.8708 9.4341 -8.94791
349 1 17.2984 11.0067 1.57025 -8.94923
508 1 9.43398 18.8736 9.43395 -8.94807
351 1 22.0139 12.5794 -0.000303112 -8.94956
352 1 1.57202 14.1518 1.57175 -8.94941
353 1 3.1443 12.5793 -0.000500464 -8.94952
354 1 4.71621 14.1517 1.57065 -8.94943
538 1 17.2976 20.4424 11.0071 -8.94936
356 1 7.86159 14.1521 1.5682 -8.95459
153 1 15.725 22.0145 9.4343 -8.9497
358 1 11.0066 14.1528 1.57013 -8.94806
150 1 6.2885 22.015 9.4343 -8.95005
360 1 14.1534 14.1534 1.56731 -8.95297
361 1 15.7254 12.5797 -0.00180551 -8.94963
362 1 17.2984 14.1526 1.57025 -8.94902
111 1 18.8694 22.0142 6.28952 -8.94949
364 1 20.4421 14.152 1.5717 -8.94944
537 1 14.1527 20.4435 11.0067 -8.95021
366 1 1.57189 17.297 1.57167 -8.94976
148 1 -0.000192188 22.0141 9.43453 -8.94956
368 1 4.71555 17.2983 1.56961 -8.94957
58 1 12.5796 22.0142 3.14421 -8.94947
370 1 7.86201 17.2978 1.57059 -8.94945
56 1 9.43459 22.0142 3.14414 -8.94952
372 1 11.0071 17.2981 1.57081 -8.94933
536 1 11.0073 20.4438 11.007 -8.94954
374 1 14.152 17.2978 1.57109 -8.94979
534 1 4.71553 20.4436 11.0074 -8.94907
376 1 17.2983 17.2984 1.57031 -8.94838
493 1 6.29118 12.5912 9.43102 -9.01941
378 1 20.442 17.2971 1.57177 -8.94953
492 1 3.14345 12.5792 9.43433 -8.9467
380 1 1.57184 20.4421 1.57174 -8.94878
491 1 22.0139 12.5792 9.43471 -8.94841
382 1 4.71688 20.4422 1.57172 -8.94984
490 1 20.4417 20.442 7.86205 -8.94953
384 1 7.86206 20.4421 1.57182 -8.94935
385 1 9.43449 18.8698 -0.000369842 -8.94952
386 1 11.0071 20.4421 1.57181 -8.94952
387 1 12.5795 18.8697 -0.000314082 -8.94946
388 1 14.152 20.442 1.57195 -8.94932
489 1 18.8701 18.8702 6.28928 -8.94955
390 1 17.297 20.4421 1.57192 -8.94978
488 1 17.2976 20.4426 7.86188 -8.94927
392 1 20.4416 20.4419 1.572 -8.94927
507 1 6.28559 18.8756 9.43423 -8.94764
506 1 3.14256 18.8711 9.4346 -8.94912
505 1 22.0135 18.8698 9.43462 -8.94951
504 1 18.8716 15.7257 9.43486 -8.94996
503 1 15.7315 15.7293 9.43391 -8.9466
502 1 12.5925 15.7249 9.42405 -8.92083
501 1 9.40767 15.733 9.42254 -8.96619
400 1 0.000130208 12.5793 3.14399 -8.94948
401 1 1.57105 14.1518 4.71614 -8.94964
402 1 3.14346 12.579 3.14328 -8.94904
403 1 4.71243 14.1523 4.71274 -8.94982
404 1 6.28774 12.5782 3.14111 -8.94831
405 1 7.85375 14.16 4.69743 -8.96205
406 1 9.43535 12.5793 3.14194 -8.95126
407 1 11.0067 14.1545 4.71416 -8.94169
408 1 12.5815 12.5809 3.13551 -8.95919
409 1 14.1661 14.1648 4.69788 -8.94008
410 1 15.729 12.5805 3.13849 -8.94738
411 1 17.3029 14.1545 4.71278 -8.9491
412 1 18.8712 12.5796 3.14304 -8.94923
413 1 20.4431 14.1523 4.71617 -8.94988
414 1 22.0139 15.7245 3.14408 -8.94964
415 1 1.57013 17.2981 4.71574 -8.95012
416 1 3.14297 15.7248 3.14291 -8.94998
417 1 4.70927 17.3045 4.7091 -8.93765
418 1 6.28544 15.7283 3.13662 -8.9513
419 1 7.86156 17.3015 4.71247 -8.95103
420 1 9.43515 15.7267 3.14084 -8.94812
421 1 11.0079 17.3008 4.71383 -8.94438
422 1 12.5792 15.7264 3.14164 -8.94913
423 1 14.1533 17.3009 4.71421 -8.95284
424 1 15.7292 15.7294 3.13804 -8.946
425 1 17.3006 17.3008 4.71364 -8.94541
426 1 18.8711 15.7255 3.14313 -8.94941
427 1 20.4422 17.2976 4.71642 -8.95012
428 1 22.0135 18.8698 3.14411 -8.94951
429 1 1.57169 20.4422 4.7168 -8.94956
430 1 3.14256 18.8713 3.14244 -8.94656
431 1 4.71553 20.4441 4.71542 -8.94966
432 1 6.28898 18.871 3.14279 -8.95028
433 1 7.8623 20.4431 4.71619 -8.94973
434 1 9.43475 18.8708 3.14321 -8.94874
435 1 11.0074 20.443 4.71613 -8.94957
436 1 12.5798 18.8707 3.14349 -8.94847
437 1 14.1519 20.4426 4.71671 -8.9504
438 1 15.7251 18.8709 3.14347 -8.95045
439 1 17.2975 20.4429 4.71645 -8.9496
440 1 18.8701 18.8704 3.14369 -8.94855
441 1 20.4416 20.4419 4.71701 -8.94961
500 1 6.27379 15.7385 9.43396 -8.9438
499 1 3.13908 15.7271 9.43474 -8.94931
498 1 -0.000815986 15.7249 9.43477 -8.95032
497 1 18.8705 12.5796 9.43455 -8.94565
496 1 15.7204 12.5782 9.42965 -8.99886
495 1 12.7951 12.5736 9.35761 -8.08956
494 1 9.12869 12.7802 9.38189 -7.30326
449 1 22.0142 12.5792 6.28903 -8.95042
450 1 1.56931 14.152 7.86185 -8.95329
451 1 3.1414 12.5784 6.28775 -8.94983
452 1 4.70135 14.1568 7.85736 -8.96519
453 1 6.28008 12.5764 6.28183 -8.94791
454 1 7.7908 14.2253 7.78603 -8.7215
455 1 9.41273 12.601 6.28036 -8.92171
456 1 11.012 14.1381 7.86873 -8.90394
457 1 12.6241 12.6109 6.2501 -8.88633
458 1 14.188 14.184 7.82651 -8.86263
459 1 15.7413 12.5815 6.27818 -8.95176
460 1 17.3051 14.1536 7.86027 -8.95836
461 1 18.8742 12.5795 6.2877 -8.95128
462 1 20.443 14.1521 7.86209 -8.95148
463 1 22.0131 15.7248 6.28913 -8.95112
464 1 1.57027 17.298 7.86181 -8.94939
465 1 3.13779 15.7273 6.28641 -8.95299
466 1 4.71077 17.3026 7.86006 -8.94727
467 1 6.26433 15.7495 6.26408 -8.90132
468 1 7.85359 17.3162 7.85462 -8.96141
469 1 9.43806 15.7336 6.28212 -8.9508
470 1 11.0063 17.2948 7.86414 -8.94408
471 1 12.5797 15.7313 6.28456 -8.96034
472 1 14.1565 17.3054 7.85837 -8.95508
473 1 15.7366 15.7361 6.27838 -8.93249
474 1 17.2996 17.2992 7.8614 -8.94873
475 1 18.8726 15.7259 6.28836 -8.95138
476 1 20.4421 17.2976 7.86203 -8.94955
477 1 -0.000434682 18.8698 6.28943 -8.94947
478 1 1.57165 20.4422 7.86198 -8.94942
479 1 3.14251 18.8712 6.28858 -8.94923
480 1 4.71553 20.4438 7.86152 -8.94903
481 1 6.28559 18.8771 6.28536 -8.95155
482 1 7.86146 20.4458 7.86128 -8.95379
483 1 9.4359 18.8725 6.28811 -8.95008
484 1 11.0073 20.4422 7.86184 -8.94751
485 1 12.579 18.871 6.28924 -8.95137
486 1 14.1524 20.4436 7.86172 -8.95151
487 1 15.7264 18.8731 6.28777 -8.95033
530 1 14.1543 17.303 11.0066 -8.95227
531 1 17.299 17.2987 11.0075 -8.94775
399 1 20.4433 11.0066 4.71607 -8.94963
398 1 17.303 11.0058 4.71251 -8.94738
394 1 4.71438 11.0055 4.7141 -8.94527
393 1 1.57148 11.0065 4.71611 -8.94932
50 1 -0.000165546 22.0141 3.14462 -8.94962
688 3 10.2674 11.1144 9.48012 2.22033
101 1 3.144 22.0144 6.28929 -8.94935
526 1 1.57041 17.2979 11.0075 -8.94924
527 1 4.7115 17.302 11.0086 -8.94619
532 1 20.4419 17.2975 11.0073 -8.94947
383 1 6.28945 18.8696 -0.000416317 -8.9497
377 1 18.8697 15.7246 -0.000609296 -8.94944
686 1 20.4417 20.4416 20.4415 -8.94943
685 1 18.8695 18.8694 18.8693 -8.94954
684 1 17.2969 20.4418 20.4417 -8.94964
683 1 15.7249 18.8698 18.87 -8.94972
682 1 14.152 20.4418 20.4417 -8.94946
681 1 12.5797 18.8699 18.8702 -8.94934
680 1 11.007 20.4419 20.4417 -8.94954
519 1 1.57011 14.1518 11.0071 -8.95168
520 1 4.70659 14.1557 11.009 -8.96068
521 1 7.81324 14.2133 11.0621 -8.78907
522 1 10.9965 14.2999 11.0559 -8.25732
523 1 14.1608 14.172 11.0156 -8.90255
524 1 17.2989 14.1523 11.006 -8.95219
525 1 20.442 14.1519 11.0071 -8.9498
305 1 15.7245 22.014 18.8695 -8.94951
299 1 6.28942 22.0141 18.8695 -8.94951
528 1 7.85571 17.3134 11.0097 -8.96014
529 1 11.0056 17.3032 11.0084 -8.98454
391 1 18.8696 18.8696 22.0134 -8.94922
389 1 15.7245 18.8696 22.0136 -8.94981
258 1 18.8695 22.014 15.7244 -8.94971
533 1 1.57165 20.4422 11.0071 -8.94943
254 1 12.5799 22.0144 15.7254 -8.94933
535 1 7.86119 20.4456 11.007 -8.95235
252 1 9.43433 22.0145 15.7254 -8.94937
248 1 3.14405 22.0142 15.7249 -8.94954
207 1 15.725 22.0143 12.5794 -8.94966
539 1 20.4417 20.4419 11.0071 -8.94954
679 1 9.43437 18.8699 18.8702 -8.94941
678 1 7.86196 20.4419 20.4417 -8.94949
677 1 6.28904 18.8699 18.8702 -8.94964
676 1 4.71697 20.4418 20.4417 -8.94959
675 1 3.1442 18.8695 18.8696 -8.94965
674 1 1.57215 20.4417 20.4415 -8.94946
673 1 22.0138 18.8692 18.8692 -8.94969
547 1 22.0137 12.5793 12.5798 -8.94961
548 1 1.57137 14.1516 14.1525 -8.94951
549 1 3.14291 12.5788 12.5802 -8.94926
550 1 4.71412 14.1516 14.1543 -8.94996
551 1 6.28539 12.578 12.5813 -8.94741
552 1 7.85613 14.1566 14.1659 -8.96011
553 1 9.4228 12.5968 12.5729 -8.88182
554 1 11.0062 14.157 14.1577 -8.96079
555 1 12.5953 12.6023 12.5785 -8.8653
556 1 14.1581 14.157 14.1592 -8.94512
557 1 15.728 12.5809 12.5791 -8.95149
558 1 17.2991 14.1525 14.1529 -8.95003
559 1 18.8706 12.5796 12.5797 -8.9498
560 1 20.442 14.1519 14.1523 -8.94974
561 1 22.0131 15.7245 12.5798 -8.95072
562 1 1.57041 17.2976 14.1529 -8.95046
563 1 3.13929 15.7262 12.5815 -8.95326
564 1 4.70982 17.3028 14.1583 -8.943
565 1 6.26843 15.7438 12.5981 -8.92488
566 1 7.854 17.3077 14.1626 -8.93801
567 1 9.41464 15.7564 12.6085 -8.894
568 1 11.0078 17.3051 14.1597 -8.94193
569 1 12.5981 15.7517 12.6036 -8.90815
570 1 14.1597 17.3058 14.1602 -8.94016
571 1 15.7317 15.7299 12.5838 -8.95062
572 1 17.2999 17.2989 14.1539 -8.94984
573 1 18.8708 15.7247 12.5797 -8.95156
574 1 20.4419 17.2971 14.1523 -8.95046
575 1 -0.000416903 18.8697 12.5797 -8.9494
576 1 1.57172 20.442 14.1522 -8.94948
577 1 3.1427 18.8708 12.5803 -8.94892
578 1 4.71556 20.4435 14.1532 -8.94995
579 1 6.28608 18.8755 12.5822 -8.95146
580 1 7.86091 20.4448 14.1538 -8.95055
581 1 9.43378 18.8779 12.5829 -8.9552
582 1 11.0074 20.4446 14.1539 -8.94931
583 1 12.5808 18.8759 12.5817 -8.95598
584 1 14.1533 20.444 14.1532 -8.95103
585 1 15.726 18.8716 12.58 -8.9499
586 1 17.2976 20.4423 14.1522 -8.94979
587 1 18.8699 18.8699 12.5797 -8.9492
588 1 20.4417 20.4418 14.152 -8.9495
589 1 1.57198 11.0069 17.2972 -8.94953
590 1 4.71605 11.007 17.298 -8.94905
672 1 20.4417 17.2968 20.4414 -8.94954
671 1 18.8696 15.7244 18.8693 -8.9494
670 1 17.2972 17.2971 20.4413 -8.94978
594 1 17.2982 11.0073 17.298 -8.94904
595 1 20.442 11.007 17.2972 -8.94952
596 1 -4.32375e-05 12.5795 15.7248 -8.94957
597 1 1.57199 14.1518 17.2972 -8.94938
598 1 3.1435 12.5793 15.7254 -8.94905
599 1 4.71626 14.1517 17.298 -8.94897
600 1 6.28755 12.579 15.727 -8.94608
601 1 7.86178 14.1514 17.2997 -8.95334
602 1 9.43591 12.5781 15.7233 -8.94678
603 1 11.007 14.1519 17.2988 -8.95043
604 1 12.5797 12.5792 15.7245 -8.94892
605 1 14.1526 14.152 17.2987 -8.95142
606 1 15.7274 12.5809 15.7271 -8.94527
607 1 17.2979 14.1523 17.2977 -8.94876
608 1 18.8705 12.5798 15.7252 -8.9493
609 1 20.4419 14.152 17.2971 -8.94943
610 1 22.0138 15.7243 15.7247 -8.94966
611 1 1.57193 17.2968 17.2971 -8.94982
612 1 3.14335 15.7244 15.7255 -8.95003
613 1 4.71566 17.2978 17.2989 -8.94998
614 1 6.28611 15.7269 15.7305 -8.95157
615 1 7.8609 17.2984 17.3002 -8.95025
616 1 9.43352 15.7279 15.7325 -8.95396
617 1 11.0073 17.2986 17.3 -8.94918
618 1 12.5809 15.7271 15.7308 -8.95457
619 1 14.1531 17.2982 17.2995 -8.95051
620 1 15.7271 15.7264 15.7275 -8.94874
621 1 17.2979 17.2975 17.2978 -8.94946
622 1 18.8701 15.7246 15.7249 -8.94974
623 1 20.4418 17.2968 17.297 -8.94967
624 1 22.0135 18.8695 15.7248 -8.94983
625 1 1.57178 20.442 17.2972 -8.94907
626 1 3.1425 18.8709 15.7262 -8.94776
627 1 4.71622 20.4425 17.2979 -8.94882
628 1 6.28666 18.8726 15.728 -8.94665
629 1 7.86165 20.4425 17.2979 -8.94928
630 1 9.43392 18.8721 15.7275 -8.94823
631 1 11.0071 20.4424 17.2979 -8.94947
632 1 12.5806 18.8719 15.7271 -8.94793
633 1 14.1524 20.4423 17.2978 -8.94924
634 1 15.7271 18.872 15.7271 -8.94694
635 1 17.2976 20.4423 17.2976 -8.94881
636 1 18.8702 18.8699 15.725 -8.94957
637 1 20.4417 20.4418 17.297 -8.94951
669 1 15.7249 15.7246 18.8698 -8.95022
639 1 4.71664 11.0069 20.4415 -8.94957
668 1 14.1521 17.2972 20.4418 -8.94988
667 1 12.5796 15.7247 18.8706 -8.95067
666 1 11.007 17.2974 20.4419 -8.94981
643 1 17.2975 11.007 20.4413 -8.94948
665 1 9.43439 15.7248 18.871 -8.95098
645 1 22.0139 12.5794 18.8693 -8.94957
646 1 1.57219 14.1518 20.4415 -8.94954
647 1 3.14426 12.5794 18.8695 -8.94953
648 1 4.71669 14.1518 20.4414 -8.94949
649 1 6.28884 12.5793 18.87 -8.94942
650 1 7.86187 14.1517 20.4413 -8.95074
651 1 9.43447 12.5792 18.8695 -8.94816
652 1 11.0068 14.152 20.4414 -8.94965
653 1 12.5795 12.5794 18.8695 -8.94891
654 1 14.1522 14.1521 20.4409 -8.95054
655 1 15.7254 12.5798 18.87 -8.94932
656 1 17.2974 14.1521 20.4413 -8.94939
657 1 18.8697 12.5795 18.8694 -8.94951
658 1 20.4418 14.1519 20.4414 -8.94955
659 1 22.0139 15.7243 18.8692 -8.9495
660 1 1.57222 17.2967 20.4414 -8.94962
661 1 3.14437 15.7242 18.8694 -8.9495
662 1 4.7167 17.297 20.4414 -8.9502
663 1 6.28908 15.7244 18.8703 -8.9509
664 1 7.86183 17.2972 20.4419 -8.94993
381 1 3.14422 18.8697 22.0132 -8.94946
201 1 6.28871 22.0149 12.5799 -8.95054
355 1 6.28901 12.5792 22.0129 -8.94966
357 1 9.43454 12.5792 22.0129 -8.94919
359 1 12.5793 12.5795 22.0117 -8.95099
365 1 22.0139 15.7243 22.0136 -8.94953
367 1 3.14434 15.7243 22.0133 -8.94958
369 1 6.28901 15.7247 22.0122 -8.95115
371 1 9.43445 15.7249 22.0129 -8.94977
373 1 12.5793 15.7249 22.013 -8.94959
375 1 15.7251 15.7252 22.0122 -8.95038
246 1 -0.000155099 22.014 15.7244 -8.94959
379 1 22.0139 18.8693 22.0136 -8.94961
363 1 18.8698 12.5795 22.0133 -8.94948
