ITEM: TIMESTEP
85
ITEM: NUMBER OF ATOMS
688
ITEM: BOX BOUNDS pp pp pp
0.0000000000000000e+00 2.2013900999999997e+01
0.0000000000000000e+00 2.2013900999999997e+01
0.0000000000000000e+00 2.2013900999999997e+01
ITEM: ATOMS id type x y z c_pot
7 1 9.4345 0.00016783 -0.000162136 -8.94955
2 1 1.572 1.57236 1.572 -8.94925
448 1 20.4437 11.0068 7.86211 -8.95098
4 1 4.71698 1.57227 1.57197 -8.94971
447 1 17.3061 11.0054 7.85981 -8.95921
6 1 7.86199 1.57223 1.57195 -8.94946
175 1 18.8714 9.43349 9.43482 -8.94804
8 1 11.007 1.57218 1.57193 -8.94953
174 1 15.7274 9.43169 9.43467 -8.94173
10 1 14.152 1.57213 1.572 -8.94948
446 1 14.1915 10.9753 7.81699 -8.88611
12 1 17.297 1.57206 1.57205 -8.9496
445 1 11.0837 11.0127 7.64584 -8.0894
14 1 20.4416 1.57231 1.57219 -8.94951
444 1 7.86335 10.9844 7.84644 -8.86583
16 1 1.5721 4.71688 1.57187 -8.94954
443 1 4.71712 11.0071 7.8618 -8.94885
18 1 4.71637 4.71634 1.57124 -8.94957
442 1 1.57207 11.0069 7.86197 -8.94888
20 1 7.86174 4.71638 1.5715 -8.94919
149 1 3.1438 0.000502304 9.43449 -8.94944
22 1 11.0069 4.71616 1.57142 -8.94953
154 1 18.8695 0.000237755 9.43449 -8.94953
24 1 14.1523 4.716 1.57135 -8.94953
188 1 17.2984 4.71538 11.0067 -8.94872
26 1 17.2979 4.71581 1.57128 -8.94853
183 1 1.57116 4.71632 11.0071 -8.9494
28 1 20.4421 4.71666 1.57183 -8.9492
397 1 14.1636 11.0048 4.69979 -8.95177
30 1 1.57215 7.86184 1.57185 -8.94939
396 1 11.0119 11.0082 4.72131 -8.99903
32 1 4.71651 7.86171 1.57129 -8.94975
395 1 7.86239 11.0055 4.71346 -8.95136
34 1 7.86175 7.86156 1.57072 -8.95159
35 1 9.43412 6.28878 -0.000447536 -8.94947
36 1 11.0066 7.8606 1.56985 -8.94998
37 1 12.5795 6.28868 -0.000601359 -8.94956
38 1 14.1532 7.86029 1.56878 -8.95142
181 1 17.2974 1.57204 11.0069 -8.94951
40 1 17.2985 7.86072 1.57019 -8.94939
346 1 7.86182 11.0067 1.5709 -8.9498
42 1 20.4422 7.86167 1.57168 -8.94941
164 1 6.28176 6.28114 9.43374 -8.94191
44 1 3.14432 9.43432 -0.000441917 -8.94941
350 1 20.4422 11.0068 1.57159 -8.94947
348 1 14.1539 11.0068 1.56706 -8.95132
347 1 11.007 11.0067 1.57106 -8.94556
48 1 15.7254 9.43401 -0.00169418 -8.94989
163 1 3.14142 6.28767 9.4342 -8.94917
344 1 1.57203 11.0067 1.57168 -8.94949
51 1 1.5719 1.57231 4.71691 -8.94949
52 1 3.144 0.00061352 3.14397 -8.94938
53 1 4.71631 1.57209 4.71623 -8.95007
54 1 6.28952 0.000430211 3.14413 -8.94972
55 1 7.86205 1.572 4.71646 -8.94967
173 1 12.573 9.44831 9.42935 -8.90412
57 1 11.0072 1.57186 4.7164 -8.94971
172 1 9.38635 9.28824 9.44536 -8.25865
59 1 14.1522 1.57165 4.71671 -8.95029
60 1 15.7245 0.000165821 3.14439 -8.95001
61 1 17.2971 1.57226 4.71696 -8.95001
62 1 18.8694 0.000360534 3.14446 -8.9496
63 1 20.4416 1.57232 4.71709 -8.94951
64 1 22.0137 3.14452 3.1445 -8.94964
65 1 1.57141 4.71652 4.71655 -8.94972
66 1 3.14378 3.14403 3.14377 -8.94883
67 1 4.71427 4.71422 4.71429 -8.94702
68 1 6.28921 3.14394 3.14385 -8.9498
69 1 7.8614 4.71466 4.71544 -8.94993
70 1 9.4344 3.14383 3.14385 -8.94935
71 1 11.0072 4.71439 4.71512 -8.94854
72 1 12.5796 3.14366 3.14386 -8.94927
73 1 14.1538 4.71306 4.71496 -8.95036
74 1 15.7251 3.14332 3.14387 -8.94961
75 1 17.2981 4.7153 4.71632 -8.95047
76 1 18.8696 3.14419 3.14439 -8.94979
77 1 20.4418 4.71665 4.71695 -8.94981
78 1 22.0142 6.28913 3.1442 -8.94979
79 1 1.57172 7.86165 4.71654 -8.95025
80 1 3.1436 6.28879 3.14354 -8.94947
81 1 4.71394 7.85988 4.71435 -8.9488
82 1 6.28755 6.28737 3.14149 -8.94981
83 1 7.85768 7.85626 4.70983 -8.95042
84 1 9.43395 6.28752 3.14245 -8.94771
85 1 11.0077 7.85691 4.70987 -8.94647
86 1 12.5802 6.287 3.14171 -8.94869
87 1 14.1633 7.84999 4.70463 -8.93245
88 1 15.728 6.28535 3.14072 -8.94539
89 1 17.3037 7.85677 4.71202 -8.94599
90 1 18.8713 6.2878 3.14305 -8.94836
91 1 20.4433 7.86107 4.71625 -8.9504
92 1 0.000267667 9.43415 3.14399 -8.94938
93 1 3.14373 9.43396 3.14355 -8.94873
94 1 6.28862 9.4338 3.14238 -8.95001
95 1 9.43556 9.43399 3.14266 -8.9523
96 1 12.5813 9.4327 3.13632 -8.95845
97 1 15.7289 9.43166 3.13828 -8.94908
98 1 18.8714 9.43362 3.14292 -8.949
99 1 22.0137 0.000207448 6.28953 -8.94952
100 1 1.57182 1.57226 7.86194 -8.9495
166 1 12.5773 6.29167 9.43527 -8.94412
102 1 4.716 1.57194 7.86156 -8.94933
103 1 6.28886 0.00143516 6.28868 -8.95112
104 1 7.86174 1.57162 7.86159 -8.95134
105 1 9.43493 0.000623398 6.28898 -8.94987
106 1 11.0073 1.5719 7.86172 -8.9489
107 1 12.5796 0.000235792 6.28927 -8.94988
108 1 14.1522 1.57219 7.86192 -8.94988
109 1 15.7248 0.000769554 6.2893 -8.95029
110 1 17.2973 1.57213 7.86185 -8.94947
165 1 9.4332 6.28286 9.43608 -8.98424
112 1 20.4416 1.57227 7.862 -8.94954
113 1 -0.00026687 3.14444 6.28945 -8.94945
114 1 1.57123 4.71635 7.86173 -8.94933
115 1 3.14363 3.14395 6.289 -8.94922
116 1 4.71426 4.71438 7.86078 -8.94794
117 1 6.2882 3.14228 6.28817 -8.95103
118 1 7.85972 4.71043 7.86074 -8.95589
119 1 9.4348 3.14284 6.28876 -8.95023
120 1 11.0074 4.71552 7.86153 -8.94779
121 1 12.5798 3.14272 6.28902 -8.9515
122 1 14.1523 4.71528 7.86253 -8.95142
123 1 15.7248 3.14369 6.28951 -8.95044
124 1 17.2981 4.71554 7.86168 -8.94845
125 1 18.8696 3.14424 6.28946 -8.94931
126 1 20.4418 4.71651 7.86191 -8.94945
127 1 22.0136 6.28909 6.28938 -8.94988
128 1 1.57085 7.86159 7.8619 -8.95066
129 1 3.14195 6.28811 6.2883 -8.95051
130 1 4.7108 7.85917 7.86058 -8.95449
131 1 6.28136 6.28051 6.28181 -8.9404
132 1 7.83838 7.83486 7.84388 -8.90894
133 1 9.43493 6.2833 6.28722 -8.95232
134 1 11.0174 7.86159 7.84916 -8.92121
135 1 12.5832 6.28083 6.2849 -8.95513
136 1 14.157 7.85494 7.86165 -8.96026
137 1 15.7274 6.28524 6.28805 -8.95286
138 1 17.3 7.85986 7.86217 -8.94912
139 1 18.8705 6.28844 6.2894 -8.94979
140 1 20.4425 7.86137 7.86212 -8.94958
141 1 22.0145 9.43422 6.2893 -8.95055
142 1 3.14282 9.43433 6.28889 -8.95144
143 1 6.28241 9.42927 6.28347 -8.9454
144 1 9.42581 9.41423 6.28062 -8.90221
145 1 12.6152 9.40222 6.25327 -8.86259
146 1 15.7439 9.42139 6.27507 -8.94008
147 1 18.8744 9.43281 6.28799 -8.953
171 1 6.28405 9.42939 9.43533 -8.96058
170 1 3.1428 9.43444 9.43451 -8.95039
169 1 22.014 9.43432 9.43465 -8.94962
151 1 9.4348 0.000906309 9.4342 -8.9493
152 1 12.5798 0.000517898 9.43421 -8.9489
168 1 18.8708 6.28817 9.43434 -8.94932
167 1 15.7278 6.28545 9.43354 -8.94433
155 1 22.0136 3.14438 9.43448 -8.94952
156 1 3.14346 3.14383 9.43438 -8.94946
157 1 6.28742 3.14167 9.43406 -8.94931
158 1 9.43451 3.14247 9.43417 -8.94964
159 1 12.5796 3.14414 9.43417 -8.94746
160 1 15.7254 3.1433 9.43407 -8.94957
161 1 18.8697 3.14413 9.43439 -8.9495
162 1 -0.000450107 6.2889 9.43446 -8.94981
177 1 4.71593 1.57181 11.0072 -8.94937
184 1 4.71386 4.71405 11.0076 -8.94823
41 1 18.8698 6.28913 -0.000560032 -8.94951
19 1 6.28944 3.14446 -0.000178073 -8.94949
25 1 15.7245 3.1443 -0.00017674 -8.9496
176 1 1.57181 1.57224 11.007 -8.94951
199 1 3.14385 0.000420937 12.5797 -8.94932
178 1 7.86147 1.57115 11.0069 -8.95142
179 1 11.0073 1.57152 11.0067 -8.9493
180 1 14.1525 1.5718 11.0065 -8.94987
644 1 20.4418 11.0069 20.4414 -8.94955
182 1 20.4416 1.57225 11.007 -8.94955
642 1 14.1525 11.0071 20.4412 -8.95044
209 1 18.8695 0.000188818 12.5795 -8.94946
185 1 7.85851 4.70832 11.0078 -8.95511
186 1 11.0076 4.71269 11.0077 -8.94787
187 1 14.1535 4.71369 11.0056 -8.95012
641 1 11.0068 11.0071 20.4415 -8.94836
189 1 20.4419 4.71648 11.007 -8.94951
190 1 1.57047 7.86152 11.0071 -8.95098
191 1 4.70897 7.85836 11.008 -8.95389
192 1 7.83329 7.82997 11.0267 -8.89474
193 1 11.019 7.85363 11.0342 -8.96684
194 1 14.1595 7.85255 11.0036 -8.95085
195 1 17.3008 7.85952 11.0063 -8.9481
196 1 20.4426 7.86135 11.007 -8.94977
197 1 22.0137 0.000176216 12.5795 -8.94953
198 1 1.57185 1.57223 14.1521 -8.94949
343 1 18.8698 9.43452 18.8695 -8.9494
200 1 4.71604 1.57172 14.1527 -8.94983
342 1 15.7254 9.43452 18.8705 -8.94966
202 1 7.86149 1.57139 14.1529 -8.95058
203 1 9.43459 0.0012675 12.58 -8.95142
204 1 11.0072 1.57121 14.1531 -8.95008
205 1 12.5799 0.000804387 12.5797 -8.95134
206 1 14.1528 1.57099 14.1526 -8.95112
341 1 12.5797 9.43429 18.8723 -8.95334
208 1 17.2974 1.57199 14.152 -8.94972
340 1 9.43432 9.43444 18.8715 -8.95173
210 1 20.4416 1.57226 14.1519 -8.9495
211 1 -0.000267944 3.14439 12.5795 -8.94948
212 1 1.57117 4.7164 14.1525 -8.94964
213 1 3.14345 3.1438 12.5799 -8.94927
214 1 4.7133 4.71353 14.1549 -8.94668
215 1 6.28758 3.14138 12.5806 -8.95054
216 1 7.85913 4.71047 14.1556 -8.95152
217 1 9.43445 3.14053 12.5804 -8.9524
218 1 11.0073 4.71044 14.1561 -8.94765
219 1 12.5803 3.14034 12.5801 -8.95381
220 1 14.1563 4.7089 14.1561 -8.95156
221 1 15.7254 3.14308 12.5792 -8.94975
222 1 17.2989 4.71509 14.1526 -8.95029
223 1 18.8697 3.14416 12.5794 -8.94933
224 1 20.442 4.71662 14.1521 -8.94971
225 1 22.0135 6.28904 12.5797 -8.94994
226 1 1.5711 7.86187 14.1524 -8.95096
227 1 3.14112 6.28783 12.5806 -8.95025
228 1 4.71077 7.85927 14.1555 -8.95163
229 1 6.27878 6.2784 12.5875 -8.93817
230 1 7.84299 7.84204 14.1735 -8.92449
231 1 9.43169 6.27257 12.586 -8.96028
232 1 11.0076 7.84733 14.1682 -8.94375
233 1 12.587 6.26977 12.5882 -8.96147
234 1 14.1778 7.83635 14.1776 -8.90115
235 1 15.7292 6.28452 12.5801 -8.95103
236 1 17.3052 7.85779 14.1562 -8.95129
237 1 18.871 6.28845 12.5795 -8.94946
238 1 20.4433 7.86156 14.1525 -8.95121
239 1 22.0141 9.4346 12.5796 -8.95077
240 1 3.14174 9.43494 12.5797 -8.95341
241 1 6.27545 9.42949 12.5855 -8.96031
242 1 9.3789 9.37246 12.629 -8.78856
243 1 12.6558 9.36064 12.6512 -8.72135
244 1 15.7444 9.42606 12.588 -8.96202
245 1 18.8734 9.43414 12.5799 -8.95466
47 1 12.5794 9.43424 22.0124 -8.9515
247 1 1.57194 1.57225 17.2971 -8.94935
46 1 9.43439 9.43441 22.0135 -8.94981
249 1 4.7165 1.57205 17.2975 -8.94953
250 1 6.28879 0.000698667 15.7254 -8.94983
251 1 7.86173 1.572 17.2976 -8.94932
339 1 6.28895 9.43467 18.8702 -8.94952
253 1 11.007 1.57192 17.2977 -8.94944
338 1 3.14425 9.43448 18.8695 -8.94937
255 1 14.1523 1.57187 17.2976 -8.94933
256 1 15.7252 0.000334771 15.7252 -8.95007
257 1 17.2975 1.57181 17.2975 -8.94938
45 1 6.28918 9.43439 22.0133 -8.94974
259 1 20.4417 1.57224 17.2969 -8.94963
260 1 22.0137 3.14445 15.7246 -8.94959
261 1 1.57179 4.71673 17.2974 -8.94964
262 1 3.14348 3.14378 15.7254 -8.94882
263 1 4.71507 4.71529 17.2992 -8.9477
264 1 6.28818 3.14267 15.7261 -8.94995
265 1 7.86107 4.71531 17.299 -8.94889
266 1 9.43406 3.14257 15.7261 -8.94906
267 1 11.0069 4.71504 17.2991 -8.94911
268 1 12.58 3.14237 15.7261 -8.94902
269 1 14.153 4.71491 17.2992 -8.9492
270 1 15.7262 3.14204 15.7261 -8.94966
271 1 17.2992 4.71482 17.2991 -8.94649
272 1 18.8699 3.14408 15.7247 -8.94983
273 1 20.4423 4.71658 17.2973 -8.94945
274 1 22.014 6.28922 15.7249 -8.95024
275 1 1.57199 7.86206 17.2972 -8.9495
276 1 3.14244 6.28845 15.726 -8.95
277 1 4.71585 7.86189 17.2983 -8.95003
278 1 6.28294 6.28322 15.732 -8.94286
279 1 7.85981 7.85995 17.3024 -8.95327
280 1 9.43273 6.28399 15.7303 -8.94614
281 1 11.0068 7.85899 17.3027 -8.94932
282 1 12.5816 6.28341 15.7311 -8.94722
283 1 14.1553 7.85885 17.304 -8.953
284 1 15.7327 6.28146 15.7325 -8.93754
285 1 17.2988 7.8614 17.2987 -8.94999
286 1 18.8721 6.2879 15.7261 -8.94957
287 1 20.4421 7.862 17.2972 -8.94958
288 1 5.55537e-05 9.43453 15.7248 -8.94949
289 1 3.14341 9.4346 15.7253 -8.94895
290 1 6.28706 9.43459 15.7275 -8.94993
291 1 9.43237 9.43034 15.7352 -8.96077
292 1 12.5843 9.42928 15.7404 -8.96521
293 1 15.729 9.43394 15.7293 -8.94982
294 1 18.871 9.43464 15.7254 -8.94943
295 1 22.0138 0.000124108 18.8693 -8.94926
296 1 1.5722 1.5723 20.4416 -8.94926
297 1 3.14439 0.000170248 18.8695 -8.94935
298 1 4.71704 1.57229 20.4417 -8.94957
301 1 9.43444 0.000177705 18.8697 -8.94951
300 1 7.86196 1.57225 20.4417 -8.94953
337 1 22.0139 9.43448 18.8693 -8.94952
302 1 11.007 1.57222 20.4417 -8.94955
336 1 20.4418 7.86198 20.4414 -8.94951
304 1 14.1519 1.57221 20.4417 -8.94952
39 1 15.7251 6.28858 22.0131 -8.95014
306 1 17.2969 1.57221 20.4417 -8.94959
307 1 18.8695 6.38098e-05 18.8695 -8.94925
308 1 20.4417 1.57229 20.4416 -8.94915
309 1 22.0139 3.14456 18.8694 -8.94943
310 1 1.57223 4.71712 20.4415 -8.94969
311 1 3.14416 3.14429 18.8698 -8.94904
312 1 4.71665 4.71672 20.4419 -8.94983
313 1 6.28922 3.14422 18.8699 -8.94946
314 1 7.86172 4.71655 20.442 -8.94939
315 1 9.43432 3.14408 18.8699 -8.9494
316 1 11.0069 4.71642 20.442 -8.9495
317 1 12.5795 3.14405 18.8699 -8.94939
318 1 14.1521 4.71644 20.442 -8.94946
319 1 15.7248 3.14405 18.8699 -8.94953
320 1 17.2975 4.71644 20.4419 -8.9495
321 1 18.8698 3.14417 18.8697 -8.94874
322 1 20.4418 4.71701 20.4415 -8.94959
323 1 22.014 6.28957 18.8693 -8.94962
324 1 1.57221 7.862 20.4415 -8.94949
325 1 3.14425 6.28949 18.8696 -8.94982
326 1 4.71675 7.86201 20.4417 -8.94967
327 1 6.28844 6.28863 18.8712 -8.95048
328 1 7.86165 7.86178 20.4424 -8.95075
329 1 9.43396 6.2883 18.8712 -8.94924
330 1 11.0067 7.86133 20.4424 -8.95034
331 1 12.5797 6.28821 18.8714 -8.94939
332 1 14.1524 7.86142 20.4423 -8.95116
333 1 15.7259 6.28809 18.8715 -8.95012
334 1 17.2975 7.86174 20.4415 -8.94964
335 1 18.8699 6.28926 18.8697 -8.94975
512 1 1.57204 11.0071 11.007 -8.94813
513 1 4.71822 11.0082 11.0056 -8.94679
514 1 7.86852 10.9897 11.0189 -8.88223
515 1 11.0591 10.8048 11.3128 -7.30415
516 1 14.1611 10.9849 11.0291 -8.92129
517 1 17.2995 11.007 11.0061 -8.95127
518 1 20.4425 11.0071 11.0069 -8.94916
540 1 1.57141 11.007 14.1527 -8.94943
541 1 4.71434 11.0072 14.154 -8.94606
542 1 7.86003 11.0082 14.1563 -8.94723
543 1 11.0104 10.9948 14.1504 -9.01939
544 1 14.1598 11.0098 14.1616 -8.94788
545 1 17.3005 11.0081 14.1538 -8.94829
546 1 20.4425 11.0072 14.1525 -8.94967
591 1 7.86129 11.0075 17.2986 -8.94927
592 1 11.0072 11.0071 17.298 -8.94671
593 1 14.1538 11.008 17.3002 -8.94988
638 1 1.57216 11.0069 20.4415 -8.94955
640 1 7.86168 11.007 20.4417 -8.94961
3 1 3.14458 0.000184315 22.0137 -8.94963
5 1 6.28955 0.000158914 22.0138 -8.9495
11 1 15.7244 0.000100036 22.0138 -8.94951
13 1 18.8693 0.000107086 22.0138 -8.94951
15 1 22.0139 3.14466 22.0137 -8.9494
17 1 3.14444 3.14447 22.0137 -8.9495
303 1 12.5795 0.000158051 18.8697 -8.9495
33 1 6.28915 6.28918 22.0135 -8.95049
27 1 18.8695 3.14435 22.0137 -8.94925
29 1 22.014 6.2895 22.0136 -8.94953
31 1 3.14446 6.28947 22.0136 -8.94967
1 1 22.0138 0.000130615 22.0137 -8.94915
21 1 9.4344 3.14434 22.0137 -8.94953
9 1 12.5795 0.000151423 22.0138 -8.94954
23 1 12.5794 3.14431 22.0137 -8.94952
43 1 22.014 9.4344 22.0136 -8.94953
49 1 18.8699 9.43429 22.0132 -8.94942
687 3 10.9615 12.4701 10.1733 2.22157
345 1 4.7162 11.0065 1.57091 -8.94929
511 1 18.8701 18.8702 9.43462 -8.94953
510 1 15.7264 18.8719 9.43428 -8.94854
509 1 12.58 18.8708 9.43406 -8.94779
349 1 17.2986 11.0067 1.57007 -8.94922
508 1 9.43382 18.8736 9.43389 -8.94787
351 1 22.014 12.5794 -0.000353309 -8.94955
352 1 1.57198 14.1518 1.57166 -8.9494
353 1 3.14425 12.5793 -0.000548661 -8.94951
354 1 4.71613 14.1517 1.57051 -8.94943
538 1 17.2976 20.4425 11.0071 -8.94935
356 1 7.86156 14.1522 1.56808 -8.95466
153 1 15.7251 22.0145 9.43429 -8.94971
358 1 11.0067 14.1528 1.57007 -8.94804
150 1 6.28841 22.0151 9.43428 -8.95008
360 1 14.1535 14.1535 1.56712 -8.953
361 1 15.7255 12.5797 -0.00194648 -8.94964
362 1 17.2986 14.1527 1.57006 -8.949
111 1 18.8695 22.0142 6.28948 -8.94948
364 1 20.4422 14.152 1.5716 -8.94942
537 1 14.1527 20.4435 11.0067 -8.95023
366 1 1.57181 17.2971 1.57156 -8.94975
148 1 -0.000230468 22.0141 9.43453 -8.94955
368 1 4.71542 17.2984 1.56941 -8.94957
58 1 12.5796 22.0142 3.14415 -8.94947
370 1 7.86198 17.2979 1.57046 -8.94946
56 1 9.4346 22.0143 3.14407 -8.94951
372 1 11.0071 17.2982 1.57073 -8.94932
536 1 11.0073 20.4439 11.007 -8.94964
374 1 14.1521 17.2979 1.57098 -8.94979
534 1 4.71537 20.4437 11.0074 -8.94906
376 1 17.2984 17.2985 1.57015 -8.94836
493 1 6.2911 12.5915 9.43104 -9.01939
378 1 20.442 17.2972 1.57168 -8.94951
492 1 3.14345 12.5792 9.4343 -8.94671
380 1 1.57177 20.4421 1.57164 -8.94874
491 1 22.0138 12.5792 9.43471 -8.94836
382 1 4.71681 20.4422 1.57161 -8.94983
490 1 20.4417 20.442 7.86203 -8.94952
384 1 7.86205 20.4422 1.57175 -8.94933
385 1 9.43449 18.8698 -0.000404782 -8.94951
386 1 11.0071 20.4422 1.57175 -8.9495
387 1 12.5796 18.8698 -0.000345036 -8.94945
388 1 14.152 20.4421 1.5719 -8.94931
489 1 18.8701 18.8703 6.28922 -8.94953
390 1 17.2971 20.4421 1.57186 -8.94979
488 1 17.2976 20.4427 7.86185 -8.94927
392 1 20.4416 20.442 1.57193 -8.94925
507 1 6.28534 18.8759 9.4342 -8.94765
506 1 3.14235 18.8713 9.43459 -8.94911
505 1 22.0134 18.8699 9.43463 -8.9495
504 1 18.8716 15.7257 9.43484 -8.94998
503 1 15.7316 15.7294 9.43381 -8.94647
502 1 12.5923 15.7247 9.42409 -8.92121
501 1 9.40726 15.7327 9.42251 -8.96684
400 1 0.000166264 12.5793 3.1439 -8.94948
401 1 1.57096 14.1518 4.71604 -8.94966
402 1 3.14339 12.579 3.14316 -8.94903
403 1 4.71219 14.1524 4.71249 -8.94982
404 1 6.28765 12.5782 3.14098 -8.94829
405 1 7.85349 14.1603 4.69713 -8.96202
406 1 9.43538 12.5794 3.14199 -8.95127
407 1 11.0068 14.1546 4.71411 -8.94173
408 1 12.5817 12.581 3.13542 -8.95921
409 1 14.1664 14.1649 4.69757 -8.94008
410 1 15.7292 12.5805 3.13819 -8.94735
411 1 17.3032 14.1547 4.71254 -8.94908
412 1 18.8714 12.5797 3.14287 -8.94922
413 1 20.4432 14.1523 4.71607 -8.94989
414 1 22.0139 15.7246 3.14397 -8.94964
415 1 1.56996 17.2982 4.71559 -8.95012
416 1 3.14281 15.7249 3.14272 -8.94999
417 1 4.70895 17.3049 4.70876 -8.93754
418 1 6.28524 15.7285 3.1363 -8.95129
419 1 7.86142 17.3018 4.71223 -8.95103
420 1 9.43514 15.7268 3.14071 -8.9481
421 1 11.0079 17.3009 4.71372 -8.94433
422 1 12.5793 15.7265 3.1415 -8.94912
423 1 14.1534 17.3011 4.71406 -8.95286
424 1 15.7295 15.7296 3.13777 -8.94599
425 1 17.3008 17.301 4.71347 -8.94539
426 1 18.8713 15.7256 3.14298 -8.94939
427 1 20.4423 17.2977 4.71634 -8.95014
428 1 22.0135 18.8699 3.14401 -8.9495
429 1 1.57158 20.4423 4.71671 -8.94953
430 1 3.14238 18.8715 3.14224 -8.94649
431 1 4.71538 20.4443 4.71526 -8.94966
432 1 6.28888 18.8712 3.1426 -8.95029
433 1 7.86228 20.4432 4.71609 -8.94975
434 1 9.43476 18.8709 3.1431 -8.94872
435 1 11.0074 20.443 4.71608 -8.94957
436 1 12.5798 18.8708 3.14341 -8.94845
437 1 14.152 20.4426 4.71667 -8.95044
438 1 15.7252 18.871 3.14336 -8.95047
439 1 17.2976 20.443 4.71638 -8.94961
440 1 18.8702 18.8705 3.14358 -8.94853
441 1 20.4417 20.442 4.71696 -8.9496
500 1 6.27332 15.739 9.4339 -8.94375
499 1 3.13881 15.7273 9.43472 -8.94932
498 1 -0.000899142 15.725 9.43477 -8.95034
497 1 18.8704 12.5796 9.43451 -8.94556
496 1 15.7202 12.5781 9.42954 -8.99903
495 1 12.7956 12.5736 9.35777 -8.0894
494 1 9.12872 12.7815 9.3824 -7.30415
449 1 22.0142 12.5792 6.28898 -8.95044
450 1 1.5692 14.152 7.86181 -8.95334
451 1 3.14131 12.5784 6.28765 -8.94988
452 1 4.70103 14.157 7.85718 -8.96521
453 1 6.27985 12.5765 6.28165 -8.94788
454 1 7.79026 14.2257 7.78572 -8.72135
455 1 9.41242 12.6015 6.28037 -8.92129
456 1 11.0121 14.138 7.86851 -8.90412
457 1 12.6245 12.611 6.24999 -8.88611
458 1 14.1882 14.1841 7.82628 -8.86259
459 1 15.7417 12.5815 6.27785 -8.95177
460 1 17.3052 14.1536 7.86016 -8.95845
461 1 18.8744 12.5795 6.28757 -8.95132
462 1 20.443 14.1521 7.86207 -8.9515
463 1 22.0131 15.7249 6.28907 -8.95116
464 1 1.57009 17.2981 7.86175 -8.94939
465 1 3.1375 15.7275 6.28621 -8.953
466 1 4.71042 17.3029 7.85988 -8.94722
467 1 6.26389 15.75 6.26367 -8.90115
468 1 7.85328 17.3166 7.85446 -8.96147
469 1 9.4379 15.7338 6.28197 -8.95085
470 1 11.0062 17.2946 7.86415 -8.94412
471 1 12.5798 15.7314 6.28443 -8.96026
472 1 14.1566 17.3055 7.85831 -8.95513
473 1 15.7368 15.7363 6.27814 -8.93245
474 1 17.2998 17.2993 7.86133 -8.94869
475 1 18.8727 15.726 6.28827 -8.95142
476 1 20.4421 17.2976 7.86201 -8.94956
477 1 -0.00049761 18.8699 6.28938 -8.94946
478 1 1.57154 20.4423 7.86195 -8.94939
479 1 3.14229 18.8714 6.28844 -8.9492
480 1 4.71537 20.444 7.86144 -8.94902
481 1 6.28537 18.8774 6.28515 -8.95156
482 1 7.86139 20.446 7.86122 -8.95381
483 1 9.43586 18.8726 6.28803 -8.95012
484 1 11.0073 20.4422 7.86184 -8.94746
485 1 12.579 18.871 6.28922 -8.95142
486 1 14.1525 20.4436 7.8617 -8.9515
487 1 15.7265 18.8733 6.28769 -8.95036
530 1 14.1543 17.303 11.0066 -8.95232
531 1 17.299 17.2988 11.0075 -8.94771
399 1 20.4434 11.0066 4.71597 -8.94964
398 1 17.3033 11.0058 4.71224 -8.94735
394 1 4.71433 11.0054 4.71401 -8.94525
393 1 1.57148 11.0065 4.71604 -8.94932
50 1 -0.000197829 22.0141 3.14457 -8.94959
688 3 10.2682 11.1162 9.47995 2.22157
101 1 3.14389 22.0145 6.28922 -8.94933
526 1 1.57024 17.298 11.0075 -8.94924
527 1 4.71119 17.3023 11.0088 -8.94614
532 1 20.4419 17.2975 11.0074 -8.94947
383 1 6.28941 18.8697 -0.000476012 -8.94971
377 1 18.8698 15.7246 -0.000696332 -8.94941
686 1 20.4417 20.4417 20.4414 -8.9494
685 1 18.8696 18.8694 18.8694 -8.94954
684 1 17.297 20.4418 20.4417 -8.94964
683 1 15.7249 18.8698 18.8701 -8.94972
682 1 14.152 20.4419 20.4417 -8.94945
681 1 12.5797 18.87 18.8702 -8.94933
680 1 11.007 20.4419 20.4417 -8.94952
519 1 1.57 14.1519 11.0072 -8.95173
520 1 4.70627 14.156 11.0091 -8.96077
521 1 7.81252 14.2139 11.0626 -8.78856
522 1 10.9961 14.2981 11.0551 -8.25865
523 1 14.1609 14.1721 11.0157 -8.90221
524 1 17.2988 14.1523 11.0059 -8.9523
525 1 20.4419 14.1519 11.0071 -8.94981
305 1 15.7246 22.014 18.8696 -8.94949
299 1 6.28937 22.0141 18.8696 -8.94949
528 1 7.85544 17.3138 11.0098 -8.96028
529 1 11.0054 17.3035 11.0083 -8.98424
391 1 18.8696 18.8697 22.0133 -8.9492
389 1 15.7245 18.8697 22.0136 -8.94981
258 1 18.8695 22.014 15.7245 -8.94971
533 1 1.57155 20.4422 11.0072 -8.9494
254 1 12.5799 22.0144 15.7255 -8.94933
535 1 7.86112 20.4458 11.007 -8.9524
252 1 9.43432 22.0145 15.7256 -8.94937
248 1 3.14394 22.0143 15.725 -8.94953
207 1 15.725 22.0143 12.5794 -8.94967
539 1 20.4417 20.442 11.0071 -8.94953
679 1 9.43436 18.87 18.8703 -8.9494
678 1 7.86194 20.4419 20.4417 -8.94948
677 1 6.28898 18.8699 18.8703 -8.94964
676 1 4.71692 20.4419 20.4417 -8.94959
675 1 3.14411 18.8696 18.8697 -8.94964
674 1 1.5721 20.4418 20.4415 -8.94943
673 1 22.0138 18.8692 18.8692 -8.94969
547 1 22.0137 12.5793 12.5798 -8.94961
548 1 1.57129 14.1517 14.1525 -8.94952
549 1 3.14284 12.5788 12.5802 -8.94927
550 1 4.71395 14.1517 14.1544 -8.94993
551 1 6.28519 12.5781 12.5815 -8.94723
552 1 7.85599 14.1568 14.166 -8.96031
553 1 9.4226 12.5966 12.573 -8.88223
554 1 11.0061 14.1569 14.1574 -8.96058
555 1 12.595 12.6019 12.5781 -8.86583
556 1 14.158 14.1571 14.1591 -8.9454
557 1 15.728 12.5808 12.5791 -8.95136
558 1 17.2991 14.1525 14.1529 -8.95001
559 1 18.8706 12.5796 12.5797 -8.9498
560 1 20.442 14.1519 14.1523 -8.94974
561 1 22.013 15.7245 12.5798 -8.95075
562 1 1.57026 17.2977 14.153 -8.95048
563 1 3.13905 15.7264 12.5817 -8.95327
564 1 4.70953 17.3031 14.1585 -8.94286
565 1 6.26802 15.7443 12.5985 -8.92449
566 1 7.85395 17.3079 14.1627 -8.93817
567 1 9.41478 15.7563 12.6082 -8.89474
568 1 11.0077 17.3052 14.1597 -8.94191
569 1 12.5976 15.7515 12.6031 -8.90894
570 1 14.1597 17.3058 14.1601 -8.9404
571 1 15.7317 15.7301 12.5838 -8.95042
572 1 17.3 17.299 14.1539 -8.94981
573 1 18.8708 15.7248 12.5797 -8.95159
574 1 20.4419 17.2971 14.1523 -8.95049
575 1 -0.000485851 18.8698 12.5798 -8.94939
576 1 1.57162 20.4421 14.1523 -8.94946
577 1 3.1425 18.871 12.5804 -8.94889
578 1 4.7154 20.4437 14.1533 -8.94995
579 1 6.28588 18.8759 12.5824 -8.95152
580 1 7.86085 20.4449 14.1539 -8.95054
581 1 9.43371 18.878 12.583 -8.95511
582 1 11.0074 20.4446 14.1541 -8.94931
583 1 12.5807 18.8759 12.5818 -8.95589
584 1 14.1533 20.444 14.1533 -8.95103
585 1 15.726 18.8717 12.5801 -8.94993
586 1 17.2976 20.4424 14.1523 -8.9498
587 1 18.87 18.8699 12.5797 -8.94919
588 1 20.4417 20.4419 14.152 -8.94949
589 1 1.57194 11.0069 17.2973 -8.94952
590 1 4.71597 11.007 17.2981 -8.94903
672 1 20.4417 17.2968 20.4414 -8.94953
671 1 18.8696 15.7245 18.8693 -8.94939
670 1 17.2973 17.2972 20.4412 -8.94979
594 1 17.2983 11.0074 17.2981 -8.94903
595 1 20.442 11.007 17.2972 -8.94951
596 1 -5.03315e-05 12.5795 15.7249 -8.94957
597 1 1.57195 14.1518 17.2972 -8.94937
598 1 3.14342 12.5794 15.7255 -8.94903
599 1 4.71618 14.1517 17.2981 -8.94895
600 1 6.28746 12.5791 15.7271 -8.94606
601 1 7.86177 14.1514 17.2997 -8.95341
602 1 9.43591 12.5781 15.7233 -8.94679
603 1 11.007 14.1519 17.2987 -8.95039
604 1 12.5797 12.5792 15.7244 -8.94885
605 1 14.1526 14.152 17.2987 -8.95144
606 1 15.7275 12.5809 15.7271 -8.94525
607 1 17.2979 14.1524 17.2978 -8.94873
608 1 18.8706 12.5799 15.7253 -8.94929
609 1 20.4419 14.152 17.2972 -8.94941
610 1 22.0137 15.7243 15.7247 -8.94967
611 1 1.57185 17.2968 17.2972 -8.94982
612 1 3.14321 15.7244 15.7256 -8.95003
613 1 4.71552 17.2979 17.299 -8.95
614 1 6.28596 15.7271 15.7307 -8.95163
615 1 7.86086 17.2985 17.3004 -8.95025
616 1 9.43352 15.728 15.7325 -8.95389
617 1 11.0073 17.2987 17.3001 -8.94917
618 1 12.5809 15.7271 15.7307 -8.95449
619 1 14.1532 17.2982 17.2995 -8.95051
620 1 15.7271 15.7264 15.7275 -8.9488
621 1 17.2979 17.2975 17.2979 -8.94947
622 1 18.8702 15.7246 15.725 -8.94975
623 1 20.4418 17.2969 17.297 -8.94967
624 1 22.0135 18.8696 15.7248 -8.94983
625 1 1.5717 20.442 17.2973 -8.94904
626 1 3.14232 18.871 15.7264 -8.9477
627 1 4.71612 20.4425 17.298 -8.94882
628 1 6.28655 18.8728 15.7282 -8.94668
629 1 7.8616 20.4425 17.298 -8.94927
630 1 9.43392 18.8723 15.7276 -8.94823
631 1 11.0071 20.4425 17.298 -8.94946
632 1 12.5807 18.8719 15.7272 -8.94794
633 1 14.1525 20.4424 17.2979 -8.94922
634 1 15.7272 18.8721 15.7272 -8.94702
635 1 17.2977 20.4423 17.2977 -8.94883
636 1 18.8702 18.87 15.7251 -8.94957
637 1 20.4417 20.4418 17.297 -8.9495
669 1 15.7249 15.7247 18.8698 -8.95025
639 1 4.71659 11.0068 20.4415 -8.94957
668 1 14.1521 17.2972 20.4418 -8.94988
667 1 12.5796 15.7247 18.8706 -8.95066
666 1 11.007 17.2974 20.4419 -8.94981
643 1 17.2976 11.007 20.4413 -8.94948
665 1 9.4344 15.7248 18.871 -8.95098
645 1 22.0139 12.5794 18.8693 -8.94955
646 1 1.57216 14.1518 20.4414 -8.94952
647 1 3.14421 12.5794 18.8695 -8.94952
648 1 4.71663 14.1518 20.4414 -8.94949
649 1 6.2888 12.5793 18.8701 -8.94943
650 1 7.86187 14.1517 20.4413 -8.95077
651 1 9.43449 12.5792 18.8694 -8.94813
652 1 11.0068 14.152 20.4414 -8.94962
653 1 12.5795 12.5794 18.8694 -8.94888
654 1 14.1522 14.1521 20.4409 -8.95055
655 1 15.7254 12.5799 18.87 -8.94932
656 1 17.2975 14.1522 20.4412 -8.94938
657 1 18.8698 12.5796 18.8695 -8.94949
658 1 20.4418 14.1519 20.4414 -8.94953
659 1 22.0139 15.7243 18.8693 -8.94949
660 1 1.57218 17.2967 20.4414 -8.94962
661 1 3.14431 15.7243 18.8695 -8.9495
662 1 4.71663 17.2971 20.4414 -8.95024
663 1 6.28903 15.7245 18.8704 -8.95096
664 1 7.86181 17.2973 20.4419 -8.94994
381 1 3.14414 18.8697 22.0131 -8.94945
201 1 6.28863 22.0149 12.58 -8.95058
355 1 6.28897 12.5791 22.0129 -8.94967
357 1 9.43456 12.5792 22.0129 -8.94916
359 1 12.5794 12.5795 22.0117 -8.95098
365 1 22.0139 15.7243 22.0136 -8.94951
367 1 3.14428 15.7243 22.0133 -8.94958
369 1 6.28896 15.7248 22.0121 -8.95121
371 1 9.43445 15.725 22.0128 -8.94977
373 1 12.5794 15.7249 22.0129 -8.94958
375 1 15.7252 15.7253 22.012 -8.9504
246 1 -0.000189316 22.014 15.7244 -8.94957
379 1 22.0139 18.8693 22.0136 -8.94959
363 1 18.8699 12.5795 22.0132 -8.94947
