ITEM: TIMESTEP
90
ITEM: NUMBER OF ATOMS
688
ITEM: BOX BOUNDS pp pp pp
0.0000000000000000e+00 2.2013900999999997e+01
0.0000000000000000e+00 2.2013900999999997e+01
0.0000000000000000e+00 2.2013900999999997e+01
ITEM: ATOMS id type x y z c_pot
7 1 9.43449 0.000178738 -0.000168803 -8.94954
2 1 1.57197 1.57236 1.57197 -8.94924
448 1 20.4437 11.0068 7.86209 -8.95097
4 1 4.71696 1.57227 1.57194 -8.94971
447 1 17.3061 11.0053 7.85973 -8.95922
6 1 7.86198 1.57223 1.57193 -8.94945
175 1 18.8714 9.43347 9.43481 -8.94804
8 1 11.007 1.57217 1.57191 -8.94952
174 1 15.7274 9.43163 9.43463 -8.94176
10 1 14.152 1.57211 1.57198 -8.94947
446 1 14.1915 10.9753 7.81678 -8.886
12 1 17.297 1.57204 1.57203 -8.9496
445 1 11.0836 11.0127 7.64552 -8.08941
14 1 20.4416 1.57231 1.57216 -8.9495
444 1 7.86354 10.9847 7.84658 -8.86613
16 1 1.57209 4.71686 1.57184 -8.94954
443 1 4.71719 11.0071 7.86179 -8.94881
18 1 4.71633 4.71631 1.57121 -8.94957
442 1 1.5721 11.0069 7.86196 -8.94886
20 1 7.86172 4.71635 1.57149 -8.94919
149 1 3.14374 0.000537534 9.43448 -8.94943
22 1 11.0069 4.71612 1.5714 -8.94953
154 1 18.8696 0.000247133 9.43449 -8.94952
24 1 14.1523 4.71594 1.57131 -8.94952
188 1 17.2984 4.71532 11.0067 -8.94871
26 1 17.298 4.71575 1.57123 -8.94853
183 1 1.57111 4.71628 11.0071 -8.9494
28 1 20.4421 4.71662 1.5718 -8.94919
397 1 14.1638 11.0048 4.69961 -8.95177
30 1 1.57215 7.86181 1.57182 -8.94938
396 1 11.012 11.0083 4.72143 -8.99912
32 1 4.71649 7.86169 1.57127 -8.94975
395 1 7.86238 11.0055 4.71347 -8.95129
34 1 7.86175 7.86154 1.57072 -8.9516
35 1 9.4341 6.28875 -0.000433906 -8.94947
36 1 11.0067 7.86057 1.56983 -8.94999
37 1 12.5795 6.28864 -0.000603897 -8.94956
38 1 14.1533 7.86024 1.56871 -8.95144
181 1 17.2974 1.57202 11.0069 -8.9495
40 1 17.2986 7.86066 1.57011 -8.94938
346 1 7.86183 11.0067 1.57091 -8.9498
42 1 20.4422 7.86164 1.57163 -8.9494
164 1 6.28175 6.2811 9.43375 -8.94191
44 1 3.1443 9.43431 -0.000457712 -8.94941
350 1 20.4422 11.0068 1.57154 -8.94946
348 1 14.154 11.0068 1.56696 -8.95134
347 1 11.007 11.0067 1.5711 -8.94552
48 1 15.7255 9.43399 -0.00175058 -8.9499
163 1 3.14138 6.28762 9.43418 -8.94917
344 1 1.57202 11.0067 1.57164 -8.94948
51 1 1.57187 1.57232 4.71688 -8.94948
52 1 3.14396 0.000654489 3.14391 -8.94937
53 1 4.71627 1.5721 4.71619 -8.95008
54 1 6.2895 0.000465047 3.14408 -8.94972
55 1 7.86205 1.572 4.71643 -8.94969
173 1 12.5731 9.44836 9.42926 -8.9042
57 1 11.0072 1.57185 4.71637 -8.94972
172 1 9.38673 9.28913 9.44557 -8.25938
59 1 14.1522 1.57163 4.71669 -8.9503
60 1 15.7245 0.000176583 3.14436 -8.95002
61 1 17.2971 1.57224 4.71693 -8.95002
62 1 18.8695 0.000379876 3.14444 -8.9496
63 1 20.4416 1.57232 4.71707 -8.9495
64 1 22.0137 3.1445 3.14447 -8.94963
65 1 1.57138 4.71649 4.71652 -8.94972
66 1 3.14374 3.14401 3.14373 -8.94884
67 1 4.71424 4.7142 4.71426 -8.94706
68 1 6.28918 3.14391 3.14381 -8.94981
69 1 7.86138 4.71462 4.71542 -8.94995
70 1 9.4344 3.14381 3.14382 -8.94935
71 1 11.0072 4.71435 4.71508 -8.94854
72 1 12.5796 3.14362 3.14382 -8.94927
73 1 14.1538 4.71299 4.71491 -8.95037
74 1 15.7251 3.14327 3.14383 -8.94962
75 1 17.2982 4.71523 4.71627 -8.95048
76 1 18.8697 3.14415 3.14436 -8.94979
77 1 20.4418 4.71661 4.71693 -8.94981
78 1 22.0142 6.28909 3.14416 -8.9498
79 1 1.57172 7.86163 4.71651 -8.95027
80 1 3.14357 6.28876 3.1435 -8.94948
81 1 4.71392 7.85984 4.71433 -8.94884
82 1 6.28752 6.28732 3.14147 -8.94979
83 1 7.85767 7.85619 4.70983 -8.95031
84 1 9.43395 6.28748 3.14243 -8.94769
85 1 11.0077 7.85686 4.70984 -8.9464
86 1 12.5802 6.28693 3.14165 -8.94867
87 1 14.1635 7.84989 4.7045 -8.93243
88 1 15.7281 6.28525 3.14062 -8.94538
89 1 17.3038 7.85667 4.71191 -8.94598
90 1 18.8714 6.28772 3.14299 -8.94835
91 1 20.4434 7.86102 4.71621 -8.95041
92 1 0.000297338 9.43412 3.14395 -8.94937
93 1 3.14371 9.43393 3.14351 -8.94872
94 1 6.28863 9.43378 3.14238 -8.94999
95 1 9.4356 9.43399 3.14269 -8.95235
96 1 12.5814 9.43269 3.13626 -8.95849
97 1 15.7291 9.4316 3.13813 -8.94906
98 1 18.8715 9.43357 3.14283 -8.94898
99 1 22.0137 0.000227828 6.28951 -8.94951
100 1 1.57178 1.57226 7.86192 -8.94949
166 1 12.5773 6.29173 9.43534 -8.94414
102 1 4.71595 1.57195 7.86153 -8.94933
103 1 6.28882 0.00149676 6.28864 -8.95113
104 1 7.86172 1.57164 7.86157 -8.95134
105 1 9.43494 0.000648786 6.28896 -8.94987
106 1 11.0073 1.57191 7.86171 -8.94888
107 1 12.5796 0.000237563 6.28926 -8.94988
108 1 14.1522 1.57218 7.86191 -8.94988
109 1 15.7248 0.000787451 6.28928 -8.9503
110 1 17.2974 1.57212 7.86184 -8.94947
165 1 9.43328 6.28269 9.43619 -8.98409
112 1 20.4416 1.57226 7.86199 -8.94953
113 1 -0.000280004 3.14441 6.28943 -8.94944
114 1 1.5712 4.71632 7.86171 -8.94933
115 1 3.14358 3.14393 6.28897 -8.94922
116 1 4.71421 4.71434 7.86075 -8.94794
117 1 6.28817 3.14227 6.28814 -8.95103
118 1 7.8597 4.71043 7.86075 -8.95583
119 1 9.4348 3.14284 6.28874 -8.95024
120 1 11.0074 4.71554 7.86153 -8.94773
121 1 12.5798 3.14271 6.289 -8.9515
122 1 14.1523 4.71526 7.86253 -8.95145
123 1 15.7248 3.14366 6.2895 -8.95045
124 1 17.2981 4.71549 7.86166 -8.94844
125 1 18.8696 3.1442 6.28944 -8.9493
126 1 20.4418 4.71647 7.8619 -8.94944
127 1 22.0136 6.28906 6.28937 -8.94988
128 1 1.57086 7.86157 7.8619 -8.95065
129 1 3.14193 6.28808 6.28828 -8.9505
130 1 4.71085 7.85915 7.86059 -8.95445
131 1 6.28139 6.28052 6.28186 -8.94052
132 1 7.83863 7.83501 7.84415 -8.90932
133 1 9.43494 6.28328 6.28725 -8.95234
134 1 11.0174 7.86168 7.84926 -8.92143
135 1 12.5832 6.28081 6.28488 -8.95516
136 1 14.1571 7.85489 7.86159 -8.96022
137 1 15.7275 6.28516 6.28799 -8.95286
138 1 17.3 7.85981 7.86213 -8.94911
139 1 18.8706 6.28838 6.28937 -8.94978
140 1 20.4425 7.86135 7.86211 -8.94958
141 1 22.0146 9.4342 6.28928 -8.95056
142 1 3.14285 9.4343 6.28888 -8.95145
143 1 6.28247 9.42926 6.28352 -8.94556
144 1 9.42577 9.4142 6.28058 -8.90201
145 1 12.6153 9.40215 6.25314 -8.86255
146 1 15.7441 9.4213 6.27491 -8.94008
147 1 18.8745 9.43277 6.28793 -8.95301
171 1 6.28419 9.42944 9.43537 -8.96048
170 1 3.14286 9.43443 9.43451 -8.95037
169 1 22.014 9.43431 9.43465 -8.9496
151 1 9.43479 0.000920737 9.43419 -8.94929
152 1 12.5798 0.000514013 9.4342 -8.94888
168 1 18.8708 6.28813 9.43433 -8.94932
167 1 15.7278 6.28538 9.43353 -8.94431
155 1 22.0136 3.14435 9.43447 -8.94952
156 1 3.1434 3.1438 9.43436 -8.94945
157 1 6.28736 3.14164 9.43405 -8.94931
158 1 9.43451 3.14245 9.43418 -8.9497
159 1 12.5796 3.14415 9.43417 -8.94743
160 1 15.7254 3.14326 9.43406 -8.94957
161 1 18.8698 3.1441 9.43438 -8.94949
162 1 -0.000451142 6.28887 9.43446 -8.94982
177 1 4.71586 1.57181 11.0072 -8.94937
184 1 4.71378 4.71398 11.0076 -8.94823
41 1 18.8699 6.28909 -0.000588128 -8.9495
19 1 6.28942 3.14444 -0.00017753 -8.94949
25 1 15.7246 3.14426 -0.000180182 -8.94959
176 1 1.57176 1.57224 11.007 -8.9495
199 1 3.14379 0.00045079 12.5798 -8.94931
178 1 7.86145 1.57115 11.0069 -8.95143
179 1 11.0073 1.5715 11.0067 -8.94929
180 1 14.1525 1.57177 11.0065 -8.94987
644 1 20.4419 11.0069 20.4414 -8.94954
182 1 20.4416 1.57224 11.007 -8.94954
642 1 14.1525 11.0072 20.4412 -8.95046
209 1 18.8696 0.000192853 12.5795 -8.94945
185 1 7.85845 4.70825 11.0078 -8.95505
186 1 11.0076 4.71267 11.0078 -8.94776
187 1 14.1535 4.71363 11.0056 -8.95014
641 1 11.0068 11.0071 20.4415 -8.94833
189 1 20.4419 4.71644 11.007 -8.94951
190 1 1.57046 7.8615 11.0071 -8.95098
191 1 4.70897 7.8583 11.008 -8.95385
192 1 7.83344 7.82999 11.0266 -8.8951
193 1 11.019 7.85377 11.0344 -8.96718
194 1 14.1596 7.85244 11.0037 -8.95087
195 1 17.3008 7.85945 11.0063 -8.9481
196 1 20.4426 7.86133 11.007 -8.94977
197 1 22.0137 0.000189168 12.5795 -8.94952
198 1 1.57181 1.57222 14.1521 -8.94948
343 1 18.8699 9.43452 18.8695 -8.94939
200 1 4.71598 1.57171 14.1527 -8.94983
342 1 15.7255 9.4345 18.8706 -8.94967
202 1 7.86145 1.57135 14.1529 -8.95059
203 1 9.43459 0.00127608 12.58 -8.95143
204 1 11.0072 1.57115 14.1531 -8.95009
205 1 12.5799 0.000784884 12.5798 -8.95134
206 1 14.1528 1.57092 14.1527 -8.95113
341 1 12.5797 9.43426 18.8723 -8.95337
208 1 17.2974 1.57196 14.152 -8.94972
340 1 9.43431 9.43441 18.8715 -8.95175
210 1 20.4416 1.57225 14.1519 -8.94949
211 1 -0.000283117 3.14437 12.5796 -8.94947
212 1 1.57112 4.71636 14.1525 -8.94964
213 1 3.14338 3.14376 12.5799 -8.94926
214 1 4.71321 4.71344 14.155 -8.94671
215 1 6.28751 3.14132 12.5807 -8.95053
216 1 7.85904 4.71031 14.1557 -8.95155
217 1 9.43444 3.14046 12.5804 -8.95242
218 1 11.0073 4.71028 14.1563 -8.94766
219 1 12.5803 3.14025 12.5801 -8.95382
220 1 14.1564 4.70874 14.1562 -8.95157
221 1 15.7254 3.143 12.5792 -8.94976
222 1 17.299 4.71499 14.1527 -8.95029
223 1 18.8698 3.14413 12.5794 -8.94932
224 1 20.442 4.71658 14.1521 -8.94971
225 1 22.0135 6.28902 12.5797 -8.94995
226 1 1.57106 7.86185 14.1525 -8.95098
227 1 3.14105 6.28778 12.5806 -8.95024
228 1 4.71065 7.85917 14.1556 -8.95166
229 1 6.27871 6.27831 12.5876 -8.93825
230 1 7.8428 7.84177 14.1737 -8.92429
231 1 9.43165 6.2724 12.5862 -8.96036
232 1 11.0076 7.84709 14.1684 -8.94373
233 1 12.5871 6.26962 12.5884 -8.96151
234 1 14.178 7.83612 14.1778 -8.90107
235 1 15.7294 6.28438 12.5801 -8.95104
236 1 17.3053 7.85768 14.1564 -8.95129
237 1 18.8711 6.28839 12.5795 -8.94946
238 1 20.4433 7.86153 14.1525 -8.95124
239 1 22.0141 9.4346 12.5796 -8.95078
240 1 3.14171 9.43492 12.5797 -8.95344
241 1 6.27536 9.42937 12.5856 -8.96041
242 1 9.37866 9.3722 12.6293 -8.78835
243 1 12.6559 9.36043 12.6515 -8.72139
244 1 15.7445 9.42592 12.5881 -8.96201
245 1 18.8735 9.43412 12.5799 -8.95469
47 1 12.5794 9.43423 22.0123 -8.95151
247 1 1.57191 1.57224 17.2971 -8.94934
46 1 9.43439 9.43441 22.0135 -8.94981
249 1 4.71645 1.57202 17.2976 -8.94953
250 1 6.28874 0.000714575 15.7255 -8.94983
251 1 7.8617 1.57197 17.2977 -8.94931
339 1 6.28892 9.43466 18.8702 -8.94952
253 1 11.007 1.57188 17.2977 -8.94943
338 1 3.14421 9.43447 18.8696 -8.94936
255 1 14.1523 1.57182 17.2976 -8.94933
256 1 15.7253 0.000318544 15.7252 -8.95008
257 1 17.2976 1.57177 17.2975 -8.94937
45 1 6.28916 9.43438 22.0133 -8.94974
259 1 20.4417 1.57222 17.2969 -8.94962
260 1 22.0137 3.14442 15.7246 -8.94959
261 1 1.57176 4.7167 17.2974 -8.94964
262 1 3.14342 3.14374 15.7254 -8.94882
263 1 4.71498 4.71521 17.2993 -8.94768
264 1 6.2881 3.14259 15.7262 -8.94996
265 1 7.861 4.71521 17.2991 -8.94887
266 1 9.43403 3.14248 15.7262 -8.94905
267 1 11.0069 4.71494 17.2992 -8.9491
268 1 12.5801 3.14227 15.7262 -8.94902
269 1 14.1531 4.71479 17.2993 -8.94918
270 1 15.7263 3.14194 15.7262 -8.94966
271 1 17.2993 4.71473 17.2992 -8.94646
272 1 18.8699 3.14402 15.7247 -8.94983
273 1 20.4423 4.71654 17.2974 -8.94944
274 1 22.014 6.2892 15.7249 -8.95026
275 1 1.57196 7.86205 17.2972 -8.94949
276 1 3.14235 6.28839 15.726 -8.95
277 1 4.71578 7.86185 17.2983 -8.95003
278 1 6.28279 6.28306 15.7321 -8.94278
279 1 7.85974 7.85986 17.3026 -8.95327
280 1 9.43267 6.28381 15.7305 -8.94611
281 1 11.0068 7.85888 17.3028 -8.94932
282 1 12.5817 6.28323 15.7312 -8.9472
283 1 14.1554 7.85875 17.3041 -8.953
284 1 15.7329 6.28129 15.7327 -8.93749
285 1 17.2989 7.86135 17.2988 -8.94999
286 1 18.8722 6.28782 15.7261 -8.94957
287 1 20.4422 7.86198 17.2972 -8.94958
288 1 6.08804e-05 9.43453 15.7249 -8.9495
289 1 3.14335 9.43458 15.7253 -8.94894
290 1 6.28697 9.43452 15.7276 -8.94991
291 1 9.43232 9.43019 15.7354 -8.96081
292 1 12.5844 9.42913 15.7406 -8.96522
293 1 15.7291 9.43387 15.7294 -8.94982
294 1 18.871 9.43463 15.7254 -8.94943
295 1 22.0138 0.000131944 18.8693 -8.94924
296 1 1.57218 1.57229 20.4416 -8.94924
297 1 3.14435 0.000179831 18.8696 -8.94934
298 1 4.71701 1.57228 20.4417 -8.94956
301 1 9.43443 0.000182349 18.8697 -8.9495
300 1 7.86194 1.57223 20.4417 -8.94952
337 1 22.0139 9.43448 18.8693 -8.94952
302 1 11.007 1.5722 20.4417 -8.94954
336 1 20.4418 7.86196 20.4414 -8.9495
304 1 14.152 1.57219 20.4417 -8.94951
39 1 15.7252 6.28853 22.0131 -8.95015
306 1 17.2969 1.57218 20.4417 -8.94958
307 1 18.8695 6.14661e-05 18.8695 -8.94924
308 1 20.4417 1.57228 20.4416 -8.94913
309 1 22.0139 3.14454 18.8694 -8.94942
310 1 1.57222 4.7171 20.4416 -8.94968
311 1 3.14411 3.14426 18.8698 -8.94902
312 1 4.71661 4.71669 20.442 -8.94984
313 1 6.28917 3.14418 18.8699 -8.94945
314 1 7.86169 4.71652 20.442 -8.94938
315 1 9.43431 3.14404 18.87 -8.94939
316 1 11.0068 4.71637 20.442 -8.9495
317 1 12.5795 3.144 18.87 -8.94938
318 1 14.1521 4.71638 20.442 -8.94946
319 1 15.7248 3.14399 18.87 -8.94952
320 1 17.2975 4.71638 20.4419 -8.9495
321 1 18.8699 3.14413 18.8698 -8.94872
322 1 20.4419 4.71698 20.4415 -8.94958
323 1 22.014 6.28956 18.8693 -8.94962
324 1 1.5722 7.86199 20.4415 -8.94948
325 1 3.14421 6.28947 18.8697 -8.94982
326 1 4.71672 7.862 20.4417 -8.94967
327 1 6.28838 6.28858 18.8713 -8.95048
328 1 7.86163 7.86177 20.4424 -8.95076
329 1 9.43393 6.28823 18.8713 -8.94924
330 1 11.0067 7.8613 20.4424 -8.95036
331 1 12.5798 6.28814 18.8715 -8.94939
332 1 14.1524 7.86139 20.4423 -8.95117
333 1 15.726 6.28801 18.8716 -8.95012
334 1 17.2976 7.86171 20.4415 -8.94965
335 1 18.87 6.28922 18.8697 -8.94974
512 1 1.57205 11.0071 11.007 -8.94812
513 1 4.71826 11.0082 11.0056 -8.9468
514 1 7.86847 10.9898 11.019 -8.88247
515 1 11.0588 10.8041 11.3126 -7.3045
516 1 14.1611 10.9846 11.0292 -8.92106
517 1 17.2995 11.0069 11.0061 -8.95128
518 1 20.4425 11.0071 11.0069 -8.94915
540 1 1.57139 11.007 14.1527 -8.94943
541 1 4.71428 11.0072 14.1541 -8.94604
542 1 7.85992 11.0082 14.1564 -8.94714
543 1 11.0104 10.9946 14.1504 -9.01937
544 1 14.1599 11.0098 14.1617 -8.94785
545 1 17.3006 11.0081 14.1539 -8.94828
546 1 20.4425 11.0072 14.1525 -8.94967
591 1 7.86127 11.0075 17.2987 -8.94928
592 1 11.0072 11.007 17.298 -8.94671
593 1 14.1539 11.008 17.3002 -8.9499
638 1 1.57215 11.0069 20.4415 -8.94955
640 1 7.86167 11.007 20.4417 -8.94961
3 1 3.14455 0.00020135 22.0137 -8.94962
5 1 6.28953 0.000172972 22.0137 -8.94949
11 1 15.7244 0.000104788 22.0138 -8.9495
13 1 18.8693 0.000114558 22.0137 -8.9495
15 1 22.0139 3.14464 22.0137 -8.94939
17 1 3.14441 3.14445 22.0137 -8.94949
303 1 12.5796 0.000158808 18.8697 -8.94949
33 1 6.28913 6.28916 22.0135 -8.95051
27 1 18.8696 3.14432 22.0137 -8.94924
29 1 22.014 6.28948 22.0136 -8.94952
31 1 3.14444 6.28945 22.0136 -8.94968
1 1 22.0138 0.000143413 22.0137 -8.94913
21 1 9.43439 3.14431 22.0137 -8.94952
9 1 12.5795 0.000159575 22.0137 -8.94953
23 1 12.5795 3.14427 22.0137 -8.94951
43 1 22.014 9.43439 22.0136 -8.94952
49 1 18.8699 9.43427 22.0132 -8.94941
687 3 10.9616 12.4691 10.1729 2.22239
345 1 4.71618 11.0064 1.57088 -8.94929
511 1 18.8701 18.8702 9.43462 -8.94953
510 1 15.7264 18.872 9.43427 -8.94854
509 1 12.58 18.8708 9.43404 -8.94773
349 1 17.2987 11.0067 1.56997 -8.94921
508 1 9.43373 18.8737 9.43386 -8.94776
351 1 22.014 12.5794 -0.000381556 -8.94954
352 1 1.57197 14.1518 1.57161 -8.94939
353 1 3.14422 12.5793 -0.000574632 -8.9495
354 1 4.71608 14.1517 1.57044 -8.94943
538 1 17.2977 20.4425 11.0071 -8.94935
356 1 7.86154 14.1522 1.56801 -8.95469
153 1 15.7251 22.0145 9.43428 -8.94972
358 1 11.0067 14.1529 1.57005 -8.94804
150 1 6.28836 22.0152 9.43426 -8.95009
360 1 14.1536 14.1536 1.56702 -8.95301
361 1 15.7256 12.5798 -0.00202272 -8.94964
362 1 17.2987 14.1528 1.56996 -8.94898
111 1 18.8695 22.0142 6.28947 -8.94947
364 1 20.4422 14.1521 1.57155 -8.94941
537 1 14.1527 20.4435 11.0067 -8.95024
366 1 1.57177 17.2971 1.5715 -8.94974
148 1 -0.000252799 22.0141 9.43453 -8.94954
368 1 4.71534 17.2985 1.5693 -8.94957
58 1 12.5796 22.0142 3.14412 -8.94947
370 1 7.86196 17.2979 1.57038 -8.94946
56 1 9.43461 22.0143 3.14404 -8.9495
372 1 11.0071 17.2982 1.57068 -8.94932
536 1 11.0073 20.4439 11.007 -8.9497
374 1 14.1521 17.2979 1.57092 -8.94978
534 1 4.71528 20.4438 11.0074 -8.94905
376 1 17.2985 17.2986 1.57007 -8.94835
493 1 6.29106 12.5917 9.43105 -9.01937
378 1 20.4421 17.2972 1.57162 -8.9495
492 1 3.14344 12.5793 9.43428 -8.94671
380 1 1.57173 20.4422 1.57159 -8.94872
491 1 22.0138 12.5792 9.4347 -8.94833
382 1 4.71677 20.4423 1.57155 -8.94983
490 1 20.4417 20.442 7.86203 -8.94951
384 1 7.86204 20.4422 1.57171 -8.94932
385 1 9.43449 18.8699 -0.000423658 -8.94951
386 1 11.0071 20.4422 1.57172 -8.94949
387 1 12.5796 18.8699 -0.000361985 -8.94944
388 1 14.152 20.4421 1.57187 -8.9493
489 1 18.8702 18.8704 6.28919 -8.94952
390 1 17.2971 20.4422 1.57182 -8.94979
488 1 17.2977 20.4427 7.86184 -8.94927
392 1 20.4417 20.442 1.5719 -8.94924
507 1 6.28521 18.876 9.43418 -8.94766
506 1 3.14224 18.8714 9.43458 -8.9491
505 1 22.0134 18.8699 9.43463 -8.9495
504 1 18.8716 15.7258 9.43483 -8.94999
503 1 15.7316 15.7295 9.43377 -8.9464
502 1 12.5922 15.7246 9.42412 -8.92143
501 1 9.40706 15.7325 9.4225 -8.96718
400 1 0.000187744 12.5793 3.14384 -8.94947
401 1 1.57092 14.1518 4.71598 -8.94967
402 1 3.14335 12.5789 3.1431 -8.94903
403 1 4.71207 14.1525 4.71236 -8.94982
404 1 6.28761 12.5782 3.14091 -8.94828
405 1 7.85335 14.1604 4.69698 -8.96201
406 1 9.43539 12.5794 3.14201 -8.95128
407 1 11.0068 14.1547 4.71409 -8.94176
408 1 12.5818 12.581 3.13538 -8.95922
409 1 14.1666 14.165 4.69742 -8.94008
410 1 15.7294 12.5806 3.13803 -8.94734
411 1 17.3034 14.1547 4.7124 -8.94906
412 1 18.8715 12.5797 3.14278 -8.94921
413 1 20.4432 14.1523 4.71602 -8.9499
414 1 22.0139 15.7246 3.14392 -8.94965
415 1 1.56988 17.2983 4.71551 -8.95012
416 1 3.14272 15.725 3.14261 -8.94999
417 1 4.70879 17.305 4.70859 -8.93749
418 1 6.28513 15.7286 3.13614 -8.95129
419 1 7.86134 17.3019 4.71211 -8.95104
420 1 9.43513 15.7269 3.14064 -8.9481
421 1 11.0079 17.3009 4.71366 -8.94431
422 1 12.5793 15.7265 3.14143 -8.94911
423 1 14.1535 17.3012 4.71398 -8.95286
424 1 15.7296 15.7297 3.13763 -8.94598
425 1 17.3009 17.3011 4.71338 -8.94538
426 1 18.8714 15.7257 3.14289 -8.94938
427 1 20.4423 17.2978 4.71629 -8.95015
428 1 22.0134 18.8699 3.14396 -8.9495
429 1 1.57153 20.4423 4.71665 -8.94952
430 1 3.14229 18.8716 3.14214 -8.94646
431 1 4.71531 20.4444 4.71517 -8.94966
432 1 6.28882 18.8713 3.1425 -8.95029
433 1 7.86226 20.4433 4.71604 -8.94976
434 1 9.43476 18.871 3.14304 -8.94871
435 1 11.0074 20.4431 4.71604 -8.94957
436 1 12.5798 18.8708 3.14337 -8.94844
437 1 14.152 20.4427 4.71665 -8.95045
438 1 15.7252 18.8711 3.1433 -8.95048
439 1 17.2976 20.4431 4.71635 -8.94962
440 1 18.8702 18.8706 3.14352 -8.94853
441 1 20.4417 20.4421 4.71693 -8.94959
500 1 6.27308 15.7392 9.43387 -8.94373
499 1 3.13867 15.7274 9.4347 -8.94932
498 1 -0.000946234 15.725 9.43477 -8.95036
497 1 18.8704 12.5796 9.43448 -8.94552
496 1 15.7201 12.578 9.42948 -8.99912
495 1 12.796 12.5737 9.35785 -8.08941
494 1 9.12887 12.7822 9.3827 -7.3045
449 1 22.0142 12.5792 6.28896 -8.95046
450 1 1.56914 14.1521 7.86178 -8.95337
451 1 3.14127 12.5784 6.2876 -8.9499
452 1 4.70086 14.1572 7.85709 -8.96522
453 1 6.27973 12.5766 6.28155 -8.94785
454 1 7.78999 14.2259 7.78557 -8.72139
455 1 9.41227 12.6017 6.28037 -8.92106
456 1 11.0122 14.138 7.86838 -8.9042
457 1 12.6247 12.611 6.24993 -8.886
458 1 14.1883 14.1842 7.82615 -8.86255
459 1 15.7419 12.5816 6.27768 -8.95177
460 1 17.3052 14.1536 7.8601 -8.95849
461 1 18.8745 12.5795 6.28749 -8.95134
462 1 20.443 14.1521 7.86205 -8.95151
463 1 22.0131 15.7249 6.28904 -8.95117
464 1 1.57 17.2982 7.86172 -8.94939
465 1 3.13735 15.7276 6.2861 -8.953
466 1 4.71024 17.3031 7.85979 -8.9472
467 1 6.26366 15.7502 6.26347 -8.90107
468 1 7.85312 17.3167 7.85439 -8.96151
469 1 9.43781 15.7339 6.28189 -8.95087
470 1 11.0061 17.2946 7.86415 -8.94414
471 1 12.5799 15.7314 6.28436 -8.96022
472 1 14.1566 17.3055 7.85828 -8.95516
473 1 15.737 15.7364 6.27801 -8.93243
474 1 17.2998 17.2994 7.86129 -8.94867
475 1 18.8728 15.7261 6.28822 -8.95144
476 1 20.4421 17.2977 7.862 -8.94956
477 1 -0.000533558 18.8699 6.28934 -8.94946
478 1 1.57148 20.4423 7.86193 -8.94938
479 1 3.14218 18.8715 6.28835 -8.94918
480 1 4.71528 20.4441 7.86139 -8.94902
481 1 6.28526 18.8776 6.28504 -8.95157
482 1 7.86134 20.4461 7.86119 -8.95382
483 1 9.43584 18.8727 6.28798 -8.95014
484 1 11.0073 20.4422 7.86184 -8.94743
485 1 12.579 18.8711 6.28921 -8.95145
486 1 14.1525 20.4436 7.86169 -8.9515
487 1 15.7266 18.8733 6.28765 -8.95037
530 1 14.1542 17.303 11.0065 -8.95234
531 1 17.299 17.2988 11.0075 -8.94769
399 1 20.4435 11.0066 4.71592 -8.94964
398 1 17.3035 11.0057 4.71209 -8.94734
394 1 4.71431 11.0054 4.71397 -8.94524
393 1 1.57149 11.0064 4.716 -8.94933
50 1 -0.00021622 22.0141 3.14454 -8.94958
688 3 10.2686 11.1172 9.47988 2.22239
101 1 3.14383 22.0145 6.28917 -8.94933
526 1 1.57015 17.2981 11.0075 -8.94924
527 1 4.71102 17.3025 11.0088 -8.94611
532 1 20.4419 17.2976 11.0074 -8.94947
383 1 6.28939 18.8697 -0.000508997 -8.94971
377 1 18.8698 15.7247 -0.000745325 -8.9494
686 1 20.4417 20.4417 20.4414 -8.94939
685 1 18.8696 18.8695 18.8694 -8.94954
684 1 17.297 20.4418 20.4417 -8.94963
683 1 15.725 18.8698 18.8701 -8.94972
682 1 14.1521 20.4419 20.4418 -8.94944
681 1 12.5798 18.87 18.8703 -8.94933
680 1 11.007 20.442 20.4418 -8.94952
519 1 1.56994 14.1519 11.0072 -8.95175
520 1 4.70611 14.1561 11.0092 -8.96081
521 1 7.81214 14.2141 11.0628 -8.78835
522 1 10.9959 14.2972 11.0547 -8.25938
523 1 14.1609 14.1721 11.0157 -8.90201
524 1 17.2988 14.1523 11.0059 -8.95235
525 1 20.4419 14.1519 11.0071 -8.94981
305 1 15.7246 22.014 18.8696 -8.94948
299 1 6.28934 22.0141 18.8697 -8.94948
528 1 7.8553 17.3139 11.0098 -8.96036
529 1 11.0053 17.3036 11.0082 -8.98409
391 1 18.8697 18.8697 22.0133 -8.94919
389 1 15.7246 18.8697 22.0136 -8.94981
258 1 18.8695 22.014 15.7245 -8.94971
533 1 1.57149 20.4423 11.0072 -8.94939
254 1 12.5799 22.0144 15.7255 -8.94933
535 1 7.86108 20.4459 11.007 -8.95242
252 1 9.43431 22.0145 15.7256 -8.94937
248 1 3.14388 22.0143 15.725 -8.94953
207 1 15.725 22.0143 12.5794 -8.94969
539 1 20.4417 20.442 11.0071 -8.94952
679 1 9.43436 18.87 18.8704 -8.9494
678 1 7.86193 20.442 20.4418 -8.94947
677 1 6.28895 18.87 18.8704 -8.94964
676 1 4.71689 20.4419 20.4417 -8.94959
675 1 3.14406 18.8696 18.8697 -8.94964
674 1 1.57207 20.4418 20.4415 -8.94942
673 1 22.0138 18.8692 18.8693 -8.94968
547 1 22.0137 12.5793 12.5798 -8.94961
548 1 1.57125 14.1517 14.1526 -8.94952
549 1 3.1428 12.5788 12.5802 -8.94928
550 1 4.71386 14.1518 14.1545 -8.94991
551 1 6.28507 12.5781 12.5816 -8.94714
552 1 7.85592 14.157 14.1661 -8.96041
553 1 9.42248 12.5965 12.573 -8.88247
554 1 11.0061 14.1569 14.1573 -8.96048
555 1 12.5949 12.6016 12.5779 -8.86613
556 1 14.158 14.1571 14.159 -8.94556
557 1 15.728 12.5808 12.5791 -8.95129
558 1 17.2991 14.1525 14.1529 -8.94999
559 1 18.8706 12.5796 12.5796 -8.9498
560 1 20.442 14.1519 14.1523 -8.94974
561 1 22.013 15.7246 12.5799 -8.95076
562 1 1.57017 17.2977 14.1531 -8.95048
563 1 3.13891 15.7265 12.5817 -8.95327
564 1 4.70938 17.3033 14.1587 -8.94278
565 1 6.26781 15.7446 12.5987 -8.92429
566 1 7.85393 17.308 14.1628 -8.93825
567 1 9.41485 15.7563 12.608 -8.8951
568 1 11.0077 17.3052 14.1597 -8.94191
569 1 12.5973 15.7513 12.6028 -8.90932
570 1 14.1596 17.3058 14.1601 -8.94052
571 1 15.7316 15.7301 12.5838 -8.95031
572 1 17.3 17.299 14.154 -8.94979
573 1 18.8708 15.7248 12.5797 -8.9516
574 1 20.4419 17.2972 14.1524 -8.95051
575 1 -0.000525871 18.8698 12.5798 -8.94938
576 1 1.57156 20.4421 14.1523 -8.94945
577 1 3.14239 18.8711 12.5805 -8.94887
578 1 4.71532 20.4437 14.1534 -8.94996
579 1 6.28577 18.876 12.5824 -8.95155
580 1 7.86082 20.445 14.154 -8.95053
581 1 9.43367 18.8781 12.583 -8.95505
582 1 11.0074 20.4447 14.1541 -8.94931
583 1 12.5807 18.8759 12.5818 -8.95583
584 1 14.1533 20.4441 14.1533 -8.95103
585 1 15.7261 18.8717 12.5801 -8.94995
586 1 17.2977 20.4424 14.1523 -8.94981
587 1 18.87 18.87 12.5798 -8.94919
588 1 20.4417 20.4419 14.1521 -8.94949
589 1 1.57192 11.0069 17.2973 -8.94951
590 1 4.71594 11.007 17.2981 -8.94903
672 1 20.4418 17.2968 20.4414 -8.94952
671 1 18.8697 15.7245 18.8693 -8.94938
670 1 17.2973 17.2972 20.4412 -8.9498
594 1 17.2984 11.0074 17.2981 -8.94903
595 1 20.4421 11.0071 17.2973 -8.9495
596 1 -5.46183e-05 12.5795 15.7249 -8.94956
597 1 1.57193 14.1518 17.2973 -8.94936
598 1 3.14338 12.5794 15.7255 -8.94903
599 1 4.71614 14.1517 17.2981 -8.94894
600 1 6.28741 12.5791 15.7272 -8.94604
601 1 7.86177 14.1514 17.2998 -8.95344
602 1 9.43591 12.5781 15.7232 -8.9468
603 1 11.007 14.1519 17.2986 -8.95037
604 1 12.5797 12.5792 15.7243 -8.94881
605 1 14.1526 14.152 17.2986 -8.95145
606 1 15.7275 12.581 15.7272 -8.94524
607 1 17.298 14.1524 17.2978 -8.94872
608 1 18.8706 12.5799 15.7253 -8.94929
609 1 20.4419 14.152 17.2972 -8.94941
610 1 22.0137 15.7243 15.7248 -8.94967
611 1 1.57181 17.2969 17.2973 -8.94982
612 1 3.14314 15.7245 15.7257 -8.95003
613 1 4.71545 17.2979 17.2991 -8.95
614 1 6.28588 15.7272 15.7308 -8.95166
615 1 7.86084 17.2985 17.3004 -8.95024
616 1 9.43352 15.728 15.7325 -8.95385
617 1 11.0073 17.2987 17.3001 -8.94917
618 1 12.5809 15.7272 15.7306 -8.95445
619 1 14.1532 17.2982 17.2996 -8.9505
620 1 15.7271 15.7265 15.7276 -8.94884
621 1 17.298 17.2976 17.2979 -8.94948
622 1 18.8702 15.7246 15.725 -8.94975
623 1 20.4418 17.2969 17.297 -8.94968
624 1 22.0134 18.8696 15.7249 -8.94984
625 1 1.57165 20.4421 17.2974 -8.94902
626 1 3.14223 18.8711 15.7265 -8.94768
627 1 4.71607 20.4426 17.2981 -8.94882
628 1 6.28649 18.8729 15.7283 -8.94671
629 1 7.86158 20.4426 17.2981 -8.94926
630 1 9.43391 18.8723 15.7277 -8.94823
631 1 11.0071 20.4425 17.2981 -8.94945
632 1 12.5807 18.872 15.7273 -8.94794
633 1 14.1525 20.4424 17.2979 -8.94922
634 1 15.7272 18.8721 15.7272 -8.94706
635 1 17.2977 20.4423 17.2977 -8.94884
636 1 18.8703 18.87 15.7251 -8.94957
637 1 20.4417 20.4419 17.2971 -8.94949
669 1 15.725 15.7247 18.8698 -8.95027
639 1 4.71656 11.0068 20.4415 -8.94956
668 1 14.1521 17.2973 20.4418 -8.94988
667 1 12.5796 15.7248 18.8706 -8.95065
666 1 11.007 17.2975 20.4419 -8.94982
643 1 17.2976 11.007 20.4413 -8.94947
665 1 9.43441 15.7248 18.871 -8.95098
645 1 22.0139 12.5794 18.8693 -8.94955
646 1 1.57214 14.1518 20.4414 -8.94952
647 1 3.14418 12.5794 18.8696 -8.94951
648 1 4.7166 14.1518 20.4414 -8.9495
649 1 6.28878 12.5793 18.8701 -8.94943
650 1 7.86187 14.1517 20.4413 -8.95078
651 1 9.4345 12.5792 18.8694 -8.94812
652 1 11.0068 14.152 20.4414 -8.9496
653 1 12.5795 12.5794 18.8694 -8.94886
654 1 14.1522 14.1521 20.4408 -8.95056
655 1 15.7255 12.5799 18.87 -8.94933
656 1 17.2975 14.1522 20.4412 -8.94937
657 1 18.8698 12.5796 18.8695 -8.94948
658 1 20.4418 14.1519 20.4414 -8.94952
659 1 22.0139 15.7243 18.8693 -8.94948
660 1 1.57216 17.2968 20.4414 -8.94962
661 1 3.14427 15.7243 18.8695 -8.94949
662 1 4.71659 17.2971 20.4414 -8.95026
663 1 6.28901 15.7245 18.8704 -8.95098
664 1 7.8618 17.2973 20.4419 -8.94995
381 1 3.14409 18.8698 22.0131 -8.94944
201 1 6.28858 22.015 12.58 -8.95059
355 1 6.28895 12.5791 22.0128 -8.94967
357 1 9.43457 12.5792 22.0129 -8.94915
359 1 12.5794 12.5796 22.0116 -8.95097
365 1 22.0139 15.7244 22.0135 -8.9495
367 1 3.14425 15.7243 22.0132 -8.94958
369 1 6.28893 15.7248 22.0121 -8.95124
371 1 9.43445 15.725 22.0128 -8.94977
373 1 12.5794 15.725 22.0129 -8.94958
375 1 15.7253 15.7253 22.012 -8.95041
246 1 -0.000209265 22.014 15.7245 -8.94956
379 1 22.0139 18.8693 22.0135 -8.94958
363 1 18.8699 12.5795 22.0132 -8.94946
