ITEM: TIMESTEP
30
ITEM: NUMBER OF ATOMS
688
ITEM: BOX BOUNDS pp pp pp
0.0000000000000000e+00 2.2013900999999997e+01
0.0000000000000000e+00 2.2013900999999997e+01
0.0000000000000000e+00 2.2013900999999997e+01
ITEM: ATOMS id type x y z c_pot
7 1 9.43453 3.40282e-11 2.19459e-11 -8.94963
2 1 1.57242 1.57242 1.57242 -8.94963
448 1 20.4415 11.007 7.86211 -8.94964
4 1 4.71726 1.57242 1.57242 -8.94963
447 1 17.2967 11.0069 7.8621 -8.94976
6 1 7.86211 1.57242 1.57242 -8.94963
175 1 18.8691 9.43453 9.43453 -8.94964
8 1 11.007 1.57242 1.57242 -8.94963
174 1 15.7242 9.43455 9.43453 -8.95098
10 1 14.1518 1.57242 1.57242 -8.94963
446 1 14.1528 11.0063 7.8614 -8.9388
12 1 17.2966 1.57242 1.57242 -8.94963
445 1 11.0344 11.0054 7.80438 -7.86357
14 1 20.4415 1.57242 1.57242 -8.94963
444 1 7.85921 11.0063 7.85981 -8.90033
16 1 1.57242 4.71726 1.57242 -8.94963
443 1 4.71722 11.0069 7.8621 -8.95015
18 1 4.71726 4.71726 1.57242 -8.94963
442 1 1.57242 11.007 7.86211 -8.94964
20 1 7.86211 4.71726 1.57242 -8.94963
149 1 3.14484 3.1736e-10 9.43453 -8.94963
22 1 11.007 4.71726 1.57242 -8.94963
154 1 18.8691 3.64821e-10 9.43453 -8.94963
24 1 14.1518 4.71726 1.57242 -8.94963
188 1 17.2966 4.71726 11.007 -8.94963
26 1 17.2966 4.71726 1.57242 -8.94963
183 1 1.57242 4.71726 11.007 -8.94963
28 1 20.4415 4.71726 1.57242 -8.94963
397 1 14.1518 11.0069 4.71728 -8.951
30 1 1.57242 7.86211 1.57242 -8.94963
396 1 11.007 11.0069 4.71639 -8.96163
32 1 4.71726 7.86211 1.57242 -8.94963
395 1 7.86212 11.0069 4.71725 -8.95057
34 1 7.86211 7.86211 1.57242 -8.94963
35 1 9.43453 6.28969 8.09181e-09 -8.94963
36 1 11.007 7.86211 1.57242 -8.94963
37 1 12.5794 6.28969 9.65563e-09 -8.94963
38 1 14.1518 7.86211 1.57242 -8.94963
181 1 17.2966 1.57242 11.007 -8.94963
40 1 17.2966 7.86211 1.57242 -8.94963
346 1 7.86211 11.007 1.57242 -8.94965
42 1 20.4415 7.86211 1.57242 -8.94963
164 1 6.28972 6.28972 9.43453 -8.95088
44 1 3.14484 9.43453 4.57263e-10 -8.94963
350 1 20.4415 11.007 1.57242 -8.94963
348 1 14.1518 11.007 1.57242 -8.94963
347 1 11.007 11.007 1.57241 -8.94986
48 1 15.7242 9.43453 7.55792e-09 -8.94963
163 1 3.14484 6.28969 9.43453 -8.94963
344 1 1.57242 11.007 1.57242 -8.94963
51 1 1.57242 1.57242 4.71726 -8.94963
52 1 3.14484 3.75347e-11 3.14484 -8.94963
53 1 4.71726 1.57242 4.71726 -8.94963
54 1 6.28969 4.85467e-11 3.14484 -8.94963
55 1 7.86211 1.57242 4.71726 -8.94963
173 1 12.5819 9.43268 9.4343 -8.90947
57 1 11.007 1.57242 4.71726 -8.94963
172 1 9.40674 9.37878 9.43428 -7.8943
59 1 14.1518 1.57242 4.71726 -8.94963
60 1 15.7242 3.23993e-11 3.14484 -8.94963
61 1 17.2966 1.57242 4.71726 -8.94963
62 1 18.8691 3.70669e-11 3.14484 -8.94963
63 1 20.4415 1.57242 4.71726 -8.94963
64 1 22.0139 3.14484 3.14484 -8.94963
65 1 1.57242 4.71726 4.71726 -8.94963
66 1 3.14484 3.14484 3.14484 -8.94963
67 1 4.71726 4.71726 4.71726 -8.94963
68 1 6.28969 3.14484 3.14484 -8.94963
69 1 7.86211 4.71727 4.71727 -8.94966
70 1 9.43453 3.14484 3.14484 -8.94963
71 1 11.007 4.71726 4.71726 -8.94964
72 1 12.5794 3.14484 3.14484 -8.94963
73 1 14.1518 4.71726 4.71726 -8.94963
74 1 15.7242 3.14484 3.14484 -8.94963
75 1 17.2966 4.71726 4.71726 -8.94963
76 1 18.8691 3.14484 3.14484 -8.94963
77 1 20.4415 4.71726 4.71726 -8.94963
78 1 22.0139 6.28969 3.14484 -8.94963
79 1 1.57242 7.86211 4.71726 -8.94963
80 1 3.14484 6.28969 3.14484 -8.94963
81 1 4.71726 7.86211 4.71726 -8.94964
82 1 6.28969 6.28969 3.14484 -8.94963
83 1 7.8621 7.8621 4.71725 -8.94973
84 1 9.43453 6.28969 3.14484 -8.94964
85 1 11.0069 7.86213 4.71729 -8.95054
86 1 12.5794 6.28969 3.14484 -8.94966
87 1 14.1518 7.8621 4.71725 -8.94935
88 1 15.7242 6.28969 3.14484 -8.94963
89 1 17.2966 7.86211 4.71726 -8.94963
90 1 18.8691 6.28969 3.14484 -8.94963
91 1 20.4415 7.86211 4.71726 -8.94963
92 1 5.10819e-10 9.43453 3.14484 -8.94963
93 1 3.14484 9.43453 3.14484 -8.94963
94 1 6.28969 9.43453 3.14484 -8.94964
95 1 9.43452 9.43452 3.14483 -8.94954
96 1 12.5794 9.43452 3.14483 -8.94966
97 1 15.7242 9.43453 3.14484 -8.94966
98 1 18.8691 9.43453 3.14484 -8.94963
99 1 22.0139 1.27052e-11 6.28969 -8.94963
100 1 1.57242 1.57242 7.86211 -8.94963
166 1 12.5794 6.28967 9.43452 -8.95036
102 1 4.71726 1.57242 7.86211 -8.94963
103 1 6.28969 3.49181e-09 6.28969 -8.94963
104 1 7.86211 1.57242 7.86211 -8.94963
105 1 9.43453 1.09414e-09 6.28969 -8.94963
106 1 11.007 1.57242 7.86211 -8.94963
107 1 12.5794 4.08744e-10 6.28969 -8.94963
108 1 14.1518 1.57242 7.86211 -8.94963
109 1 15.7242 3.48962e-09 6.28969 -8.94963
110 1 17.2966 1.57242 7.86211 -8.94963
165 1 9.43451 6.28884 9.43452 -8.9613
112 1 20.4415 1.57242 7.86211 -8.94963
113 1 1.34583e-10 3.14484 6.28969 -8.94963
114 1 1.57242 4.71726 7.86211 -8.94963
115 1 3.14484 3.14484 6.28969 -8.94963
116 1 4.71727 4.71727 7.86211 -8.94966
117 1 6.28969 3.14484 6.28969 -8.94963
118 1 7.8621 4.71725 7.8621 -8.94966
119 1 9.43453 3.14484 6.28969 -8.94964
120 1 11.007 4.71726 7.8621 -8.94955
121 1 12.5794 3.14484 6.28969 -8.94963
122 1 14.1518 4.71726 7.86211 -8.94964
123 1 15.7242 3.14484 6.28969 -8.94963
124 1 17.2966 4.71726 7.86211 -8.94963
125 1 18.8691 3.14484 6.28969 -8.94963
126 1 20.4415 4.71726 7.86211 -8.94963
127 1 22.0139 6.28969 6.28969 -8.94963
128 1 1.57242 7.86211 7.86211 -8.94963
129 1 3.14484 6.28969 6.28969 -8.94963
130 1 4.71725 7.86211 7.8621 -8.94979
131 1 6.28968 6.28967 6.28967 -8.94934
132 1 7.86145 7.86147 7.86144 -8.93269
133 1 9.43453 6.28971 6.28971 -8.95049
134 1 11.0072 7.86194 7.86186 -8.94492
135 1 12.5794 6.28967 6.28968 -8.94973
136 1 14.1518 7.86208 7.86208 -8.94945
137 1 15.7242 6.28969 6.28969 -8.94964
138 1 17.2966 7.86211 7.86211 -8.94966
139 1 18.8691 6.28969 6.28969 -8.94963
140 1 20.4415 7.86211 7.86211 -8.94963
141 1 22.0139 9.43453 6.28969 -8.94963
142 1 3.14484 9.43453 6.28969 -8.94963
143 1 6.28966 9.43449 6.28966 -8.94909
144 1 9.43426 9.43425 6.2895 -8.94383
145 1 12.5801 9.43385 6.28904 -8.93215
146 1 15.7242 9.43451 6.28967 -8.94947
147 1 18.8691 9.43453 6.28969 -8.94963
171 1 6.28931 9.4345 9.43453 -8.95633
170 1 3.14484 9.43453 9.43453 -8.94973
169 1 22.0139 9.43453 9.43453 -8.94963
151 1 9.43453 1.34168e-07 9.43453 -8.94964
152 1 12.5794 1.36052e-07 9.43453 -8.94963
168 1 18.8691 6.28969 9.43453 -8.94963
167 1 15.7242 6.28969 9.43453 -8.94969
155 1 22.0139 3.14484 9.43453 -8.94963
156 1 3.14484 3.14484 9.43453 -8.94963
157 1 6.28969 3.14484 9.43453 -8.94963
158 1 9.43453 3.14483 9.43453 -8.94985
159 1 12.5794 3.14484 9.43453 -8.94964
160 1 15.7242 3.14484 9.43453 -8.94963
161 1 18.8691 3.14484 9.43453 -8.94963
162 1 1.44505e-09 6.28969 9.43453 -8.94963
177 1 4.71726 1.57242 11.007 -8.94963
184 1 4.71727 4.71727 11.007 -8.94966
41 1 18.8691 6.28969 5.48788e-11 -8.94963
19 1 6.28969 3.14484 1.45023e-10 -8.94963
25 1 15.7242 3.14484 8.13954e-11 -8.94963
176 1 1.57242 1.57242 11.007 -8.94963
199 1 3.14484 5.24137e-10 12.5794 -8.94963
178 1 7.86211 1.57242 11.007 -8.94963
179 1 11.007 1.57242 11.007 -8.94964
180 1 14.1518 1.57242 11.007 -8.94963
644 1 20.4415 11.007 20.4415 -8.94963
182 1 20.4415 1.57242 11.007 -8.94963
642 1 14.1518 11.007 20.4415 -8.94963
209 1 18.8691 4.88567e-10 12.5794 -8.94963
185 1 7.8621 4.71725 11.007 -8.94966
186 1 11.007 4.71725 11.007 -8.94975
187 1 14.1518 4.71726 11.007 -8.94965
641 1 11.007 11.007 20.4415 -8.94964
189 1 20.4415 4.71726 11.007 -8.94963
190 1 1.57242 7.86211 11.007 -8.94963
191 1 4.71725 7.86211 11.007 -8.94977
192 1 7.86148 7.86151 11.0076 -8.93334
193 1 11.0072 7.86113 11.0072 -8.95582
194 1 14.1518 7.8621 11.007 -8.95021
195 1 17.2966 7.86211 11.007 -8.94964
196 1 20.4415 7.86211 11.007 -8.94963
197 1 22.0139 1.03574e-11 12.5794 -8.94963
198 1 1.57242 1.57242 14.1518 -8.94963
343 1 18.8691 9.43453 18.8691 -8.94963
200 1 4.71726 1.57242 14.1518 -8.94963
342 1 15.7242 9.43453 18.8691 -8.94963
202 1 7.86211 1.57242 14.1518 -8.94963
203 1 9.43453 1.9123e-07 12.5794 -8.94963
204 1 11.007 1.57242 14.1518 -8.94963
205 1 12.5794 1.91513e-07 12.5794 -8.94963
206 1 14.1518 1.57242 14.1518 -8.94963
341 1 12.5794 9.43453 18.8691 -8.94964
208 1 17.2966 1.57242 14.1518 -8.94963
340 1 9.43453 9.43453 18.8691 -8.94963
210 1 20.4415 1.57242 14.1518 -8.94963
211 1 1.33418e-10 3.14484 12.5794 -8.94963
212 1 1.57242 4.71726 14.1518 -8.94963
213 1 3.14484 3.14484 12.5794 -8.94963
214 1 4.71726 4.71726 14.1518 -8.94963
215 1 6.28969 3.14484 12.5794 -8.94963
216 1 7.86211 4.71726 14.1518 -8.94966
217 1 9.43453 3.14484 12.5794 -8.94964
218 1 11.007 4.71726 14.1518 -8.94964
219 1 12.5794 3.14484 12.5794 -8.94963
220 1 14.1518 4.71726 14.1518 -8.94963
221 1 15.7242 3.14484 12.5794 -8.94963
222 1 17.2966 4.71726 14.1518 -8.94963
223 1 18.8691 3.14484 12.5794 -8.94963
224 1 20.4415 4.71726 14.1518 -8.94963
225 1 22.0139 6.28969 12.5794 -8.94963
226 1 1.57242 7.86211 14.1518 -8.94963
227 1 3.14484 6.28969 12.5794 -8.94963
228 1 4.71726 7.86211 14.1518 -8.94964
229 1 6.28968 6.28968 12.5794 -8.94937
230 1 7.86209 7.86209 14.1518 -8.94942
231 1 9.43452 6.28969 12.5794 -8.95051
232 1 11.0069 7.86214 14.1518 -8.95177
233 1 12.5794 6.28966 12.5794 -8.94977
234 1 14.1518 7.86208 14.1518 -8.949
235 1 15.7242 6.28969 12.5794 -8.94967
236 1 17.2966 7.86211 14.1518 -8.94963
237 1 18.8691 6.28969 12.5794 -8.94963
238 1 20.4415 7.86211 14.1518 -8.94963
239 1 22.0139 9.43453 12.5794 -8.94963
240 1 3.14484 9.43453 12.5794 -8.94963
241 1 6.28966 9.4345 12.5794 -8.94946
242 1 9.4336 9.43363 12.5802 -8.92616
243 1 12.5808 9.43316 12.5807 -8.90954
244 1 15.7242 9.43452 12.5794 -8.94988
245 1 18.8691 9.43453 12.5794 -8.94963
47 1 12.5794 9.43453 22.0139 -8.94963
247 1 1.57242 1.57242 17.2966 -8.94963
46 1 9.43453 9.43453 22.0139 -8.94963
249 1 4.71726 1.57242 17.2966 -8.94963
250 1 6.28969 4.12542e-09 15.7242 -8.94963
251 1 7.86211 1.57242 17.2966 -8.94963
339 1 6.28969 9.43453 18.8691 -8.94963
253 1 11.007 1.57242 17.2966 -8.94963
338 1 3.14484 9.43453 18.8691 -8.94963
255 1 14.1518 1.57242 17.2966 -8.94963
256 1 15.7242 4.12831e-09 15.7242 -8.94963
257 1 17.2966 1.57242 17.2966 -8.94963
45 1 6.28969 9.43453 22.0139 -8.94963
259 1 20.4415 1.57242 17.2966 -8.94963
260 1 22.0139 3.14484 15.7242 -8.94963
261 1 1.57242 4.71726 17.2966 -8.94963
262 1 3.14484 3.14484 15.7242 -8.94963
263 1 4.71726 4.71726 17.2966 -8.94963
264 1 6.28969 3.14484 15.7242 -8.94963
265 1 7.86211 4.71726 17.2966 -8.94963
266 1 9.43453 3.14484 15.7242 -8.94963
267 1 11.007 4.71726 17.2966 -8.94963
268 1 12.5794 3.14484 15.7242 -8.94963
269 1 14.1518 4.71726 17.2966 -8.94963
270 1 15.7242 3.14484 15.7242 -8.94963
271 1 17.2966 4.71726 17.2966 -8.94963
272 1 18.8691 3.14484 15.7242 -8.94963
273 1 20.4415 4.71726 17.2966 -8.94963
274 1 22.0139 6.28969 15.7242 -8.94963
275 1 1.57242 7.86211 17.2966 -8.94963
276 1 3.14484 6.28969 15.7242 -8.94963
277 1 4.71726 7.86211 17.2966 -8.94963
278 1 6.28969 6.28969 15.7242 -8.94963
279 1 7.86211 7.86211 17.2966 -8.94963
280 1 9.43453 6.28969 15.7242 -8.94966
281 1 11.007 7.86211 17.2966 -8.94964
282 1 12.5794 6.28969 15.7242 -8.94968
283 1 14.1518 7.86211 17.2966 -8.94963
284 1 15.7242 6.28969 15.7242 -8.94962
285 1 17.2966 7.86211 17.2966 -8.94963
286 1 18.8691 6.28969 15.7242 -8.94963
287 1 20.4415 7.86211 17.2966 -8.94963
288 1 5.43604e-10 9.43453 15.7242 -8.94963
289 1 3.14484 9.43453 15.7242 -8.94963
290 1 6.28969 9.43453 15.7242 -8.94965
291 1 9.43452 9.43452 15.7242 -8.94967
292 1 12.5794 9.43452 15.7242 -8.94981
293 1 15.7242 9.43453 15.7242 -8.94967
294 1 18.8691 9.43453 15.7242 -8.94963
295 1 22.0139 5.02568e-13 18.8691 -8.94963
296 1 1.57242 1.57242 20.4415 -8.94963
297 1 3.14484 1.33892e-11 18.8691 -8.94963
298 1 4.71726 1.57242 20.4415 -8.94963
301 1 9.43453 6.01793e-10 18.8691 -8.94963
300 1 7.86211 1.57242 20.4415 -8.94963
337 1 22.0139 9.43453 18.8691 -8.94963
302 1 11.007 1.57242 20.4415 -8.94963
336 1 20.4415 7.86211 20.4415 -8.94963
304 1 14.1518 1.57242 20.4415 -8.94963
39 1 15.7242 6.28969 22.0139 -8.94963
306 1 17.2966 1.57242 20.4415 -8.94963
307 1 18.8691 1.34199e-11 18.8691 -8.94963
308 1 20.4415 1.57242 20.4415 -8.94963
309 1 22.0139 3.14484 18.8691 -8.94963
310 1 1.57242 4.71726 20.4415 -8.94963
311 1 3.14484 3.14484 18.8691 -8.94963
312 1 4.71726 4.71726 20.4415 -8.94963
313 1 6.28969 3.14484 18.8691 -8.94963
314 1 7.86211 4.71726 20.4415 -8.94963
315 1 9.43453 3.14484 18.8691 -8.94963
316 1 11.007 4.71726 20.4415 -8.94963
317 1 12.5794 3.14484 18.8691 -8.94963
318 1 14.1518 4.71726 20.4415 -8.94963
319 1 15.7242 3.14484 18.8691 -8.94963
320 1 17.2966 4.71726 20.4415 -8.94963
321 1 18.8691 3.14484 18.8691 -8.94963
322 1 20.4415 4.71726 20.4415 -8.94963
323 1 22.0139 6.28969 18.8691 -8.94963
324 1 1.57242 7.86211 20.4415 -8.94963
325 1 3.14484 6.28969 18.8691 -8.94963
326 1 4.71726 7.86211 20.4415 -8.94963
327 1 6.28969 6.28969 18.8691 -8.94963
328 1 7.86211 7.86211 20.4415 -8.94963
329 1 9.43453 6.28969 18.8691 -8.94963
330 1 11.007 7.86211 20.4415 -8.94963
331 1 12.5794 6.28969 18.8691 -8.94963
332 1 14.1518 7.86211 20.4415 -8.94963
333 1 15.7242 6.28969 18.8691 -8.94963
334 1 17.2966 7.86211 20.4415 -8.94963
335 1 18.8691 6.28969 18.8691 -8.94963
512 1 1.57242 11.007 11.007 -8.94964
513 1 4.71722 11.0069 11.007 -8.95004
514 1 7.85962 11.0067 11.0089 -8.90881
515 1 11.0337 10.9532 11.0876 -6.955
516 1 14.1523 11.0067 11.0072 -8.95006
517 1 17.2967 11.0069 11.007 -8.94963
518 1 20.4415 11.007 11.007 -8.94963
540 1 1.57242 11.007 14.1518 -8.94963
541 1 4.71727 11.007 14.1518 -8.9497
542 1 7.8621 11.0069 14.1518 -8.95019
543 1 11.007 11.0069 14.153 -8.96414
544 1 14.1518 11.0069 14.1518 -8.95062
545 1 17.2966 11.007 14.1518 -8.94964
546 1 20.4415 11.007 14.1518 -8.94963
591 1 7.86211 11.007 17.2966 -8.94965
592 1 11.007 11.007 17.2967 -8.94995
593 1 14.1518 11.007 17.2966 -8.94964
638 1 1.57242 11.007 20.4415 -8.94963
640 1 7.86211 11.007 20.4415 -8.94963
3 1 3.14484 3.3764e-13 22.0139 -8.94963
5 1 6.28969 -1.14263e-12 22.0139 -8.94963
11 1 15.7242 -9.58585e-13 22.0139 -8.94963
13 1 18.8691 3.27183e-13 22.0139 -8.94963
15 1 22.0139 3.14484 22.0139 -8.94963
17 1 3.14484 3.14484 22.0139 -8.94963
303 1 12.5794 6.02489e-10 18.8691 -8.94963
33 1 6.28969 6.28969 22.0139 -8.94963
27 1 18.8691 3.14484 22.0139 -8.94963
29 1 22.0139 6.28969 22.0139 -8.94963
31 1 3.14484 6.28969 22.0139 -8.94963
1 1 22.0139 2.13929e-13 22.0139 -8.94963
21 1 9.43453 3.14484 22.0139 -8.94963
9 1 12.5794 2.9985e-11 22.0139 -8.94963
23 1 12.5794 3.14484 22.0139 -8.94963
43 1 22.0139 9.43453 22.0139 -8.94963
49 1 18.8691 9.43453 22.0139 -8.94963
687 3 11.0051 12.5772 10.2203 4.10082
345 1 4.71726 11.007 1.57242 -8.94963
511 1 18.8691 18.8691 9.43453 -8.94963
510 1 15.7242 18.8691 9.43453 -8.94964
509 1 12.5794 18.8691 9.43452 -8.94955
349 1 17.2966 11.007 1.57242 -8.94963
508 1 9.43452 18.8691 9.43452 -8.94975
351 1 22.0139 12.5794 3.28973e-11 -8.94963
352 1 1.57242 14.1518 1.57242 -8.94963
353 1 3.14484 12.5794 1.95706e-10 -8.94963
354 1 4.71726 14.1518 1.57242 -8.94963
538 1 17.2966 20.4415 11.007 -8.94963
356 1 7.86211 14.1518 1.57242 -8.94963
153 1 15.7242 22.0139 9.43453 -8.94963
358 1 11.007 14.1518 1.57242 -8.94964
150 1 6.28969 22.0139 9.43453 -8.94963
360 1 14.1518 14.1518 1.57242 -8.94963
361 1 15.7242 12.5794 1.10684e-08 -8.94963
362 1 17.2966 14.1518 1.57242 -8.94963
111 1 18.8691 22.0139 6.28969 -8.94963
364 1 20.4415 14.1518 1.57242 -8.94963
537 1 14.1518 20.4415 11.007 -8.94964
366 1 1.57242 17.2966 1.57242 -8.94963
148 1 5.96784e-11 22.0139 9.43453 -8.94963
368 1 4.71726 17.2966 1.57242 -8.94963
58 1 12.5794 22.0139 3.14484 -8.94963
370 1 7.86211 17.2966 1.57242 -8.94963
56 1 9.43453 22.0139 3.14484 -8.94963
372 1 11.007 17.2966 1.57242 -8.94963
536 1 11.007 20.4415 11.007 -8.94985
374 1 14.1518 17.2966 1.57242 -8.94963
534 1 4.71726 20.4415 11.007 -8.94963
376 1 17.2966 17.2966 1.57242 -8.94963
493 1 6.28845 12.5794 9.43452 -8.96414
378 1 20.4415 17.2966 1.57242 -8.94963
492 1 3.14483 12.5794 9.43453 -8.94995
380 1 1.57242 20.4415 1.57242 -8.94963
491 1 22.0139 12.5794 9.43453 -8.94964
382 1 4.71726 20.4415 1.57242 -8.94963
490 1 20.4415 20.4415 7.86211 -8.94963
384 1 7.86211 20.4415 1.57242 -8.94963
385 1 9.43453 18.8691 1.9598e-10 -8.94963
386 1 11.007 20.4415 1.57242 -8.94963
387 1 12.5794 18.8691 4.81887e-11 -8.94963
388 1 14.1518 20.4415 1.57242 -8.94963
489 1 18.8691 18.8691 6.28969 -8.94963
390 1 17.2966 20.4415 1.57242 -8.94963
488 1 17.2966 20.4415 7.86211 -8.94963
392 1 20.4415 20.4415 1.57242 -8.94963
507 1 6.28969 18.8691 9.43453 -8.94964
506 1 3.14484 18.8691 9.43453 -8.94963
505 1 22.0139 18.8691 9.43453 -8.94963
504 1 18.8691 15.7242 9.43453 -8.94963
503 1 15.7242 15.7242 9.43453 -8.95054
502 1 12.5796 15.7244 9.43428 -8.94492
501 1 9.43427 15.7252 9.43429 -8.95582
400 1 5.36411e-10 12.5794 3.14484 -8.94963
401 1 1.57242 14.1518 4.71726 -8.94963
402 1 3.14484 12.5794 3.14484 -8.94963
403 1 4.71727 14.1518 4.71727 -8.94967
404 1 6.28969 12.5794 3.14484 -8.94964
405 1 7.8621 14.1518 4.71724 -8.94988
406 1 9.43452 12.5794 3.14483 -8.94963
407 1 11.0069 14.1518 4.71725 -8.95098
408 1 12.5794 12.5794 3.14482 -8.94976
409 1 14.1518 14.1518 4.71724 -8.94947
410 1 15.7242 12.5794 3.14484 -8.94966
411 1 17.2966 14.1518 4.71726 -8.94966
412 1 18.8691 12.5794 3.14484 -8.94963
413 1 20.4415 14.1518 4.71726 -8.94963
414 1 22.0139 15.7242 3.14484 -8.94963
415 1 1.57242 17.2966 4.71726 -8.94963
416 1 3.14484 15.7242 3.14484 -8.94963
417 1 4.71726 17.2966 4.71726 -8.94962
418 1 6.28969 15.7242 3.14484 -8.94963
419 1 7.86211 17.2966 4.71726 -8.94967
420 1 9.43453 15.7242 3.14484 -8.94964
421 1 11.007 17.2966 4.71727 -8.94969
422 1 12.5794 15.7242 3.14484 -8.94966
423 1 14.1518 17.2966 4.71726 -8.94964
424 1 15.7242 15.7242 3.14484 -8.94963
425 1 17.2966 17.2966 4.71726 -8.94963
426 1 18.8691 15.7242 3.14484 -8.94963
427 1 20.4415 17.2966 4.71726 -8.94963
428 1 22.0139 18.8691 3.14484 -8.94963
429 1 1.57242 20.4415 4.71726 -8.94963
430 1 3.14484 18.8691 3.14484 -8.94963
431 1 4.71726 20.4415 4.71726 -8.94963
432 1 6.28969 18.8691 3.14484 -8.94963
433 1 7.86211 20.4415 4.71726 -8.94963
434 1 9.43453 18.8691 3.14484 -8.94963
435 1 11.007 20.4415 4.71726 -8.94963
436 1 12.5794 18.8691 3.14484 -8.94963
437 1 14.1518 20.4415 4.71726 -8.94963
438 1 15.7242 18.8691 3.14484 -8.94963
439 1 17.2966 20.4415 4.71726 -8.94963
440 1 18.8691 18.8691 3.14484 -8.94963
441 1 20.4415 20.4415 4.71726 -8.94963
500 1 6.28972 15.7242 9.43453 -8.95177
499 1 3.14484 15.7242 9.43453 -8.94964
498 1 1.34722e-10 15.7242 9.43453 -8.94963
497 1 18.8691 12.5794 9.43453 -8.94986
496 1 15.7251 12.5794 9.43452 -8.96163
495 1 12.6371 12.5809 9.40708 -7.86357
494 1 9.35391 12.6331 9.40781 -6.955
449 1 22.0139 12.5794 6.28969 -8.94963
450 1 1.57242 14.1518 7.86211 -8.94964
451 1 3.14484 12.5794 6.28969 -8.94964
452 1 4.71724 14.1518 7.8621 -8.94981
453 1 6.28969 12.5794 6.28969 -8.95062
454 1 7.86076 14.1532 7.8607 -8.90954
455 1 9.43423 12.5796 6.28913 -8.95006
456 1 11.0072 14.1536 7.85955 -8.90947
457 1 12.5801 12.58 6.28866 -8.9388
458 1 14.1524 14.1525 7.86142 -8.93215
459 1 15.7242 12.5794 6.28971 -8.951
460 1 17.2967 14.1518 7.8621 -8.94966
461 1 18.8691 12.5794 6.28969 -8.94963
462 1 20.4415 14.1518 7.86211 -8.94963
463 1 22.0139 15.7242 6.28969 -8.94963
464 1 1.57242 17.2966 7.86211 -8.94963
465 1 3.14484 15.7242 6.28969 -8.94963
466 1 4.71727 17.2966 7.86211 -8.94968
467 1 6.28966 15.7242 6.28966 -8.949
468 1 7.8621 17.2967 7.8621 -8.94977
469 1 9.43451 15.7242 6.28968 -8.95021
470 1 11.007 17.2967 7.86211 -8.95036
471 1 12.5794 15.7242 6.28967 -8.94945
472 1 14.1518 17.2966 7.8621 -8.94973
473 1 15.7242 15.7242 6.28967 -8.94935
474 1 17.2966 17.2966 7.86211 -8.94966
475 1 18.8691 15.7242 6.28969 -8.94963
476 1 20.4415 17.2966 7.86211 -8.94963
477 1 1.02123e-10 18.8691 6.28969 -8.94963
478 1 1.57242 20.4415 7.86211 -8.94963
479 1 3.14484 18.8691 6.28969 -8.94963
480 1 4.71726 20.4415 7.86211 -8.94963
481 1 6.28969 18.8691 6.28969 -8.94963
482 1 7.86211 20.4415 7.86211 -8.94963
483 1 9.43453 18.8691 6.28969 -8.94965
484 1 11.007 20.4415 7.86211 -8.94964
485 1 12.5794 18.8691 6.28969 -8.94964
486 1 14.1518 20.4415 7.86211 -8.94963
487 1 15.7242 18.8691 6.28969 -8.94963
530 1 14.1518 17.2966 11.0069 -8.95049
531 1 17.2966 17.2966 11.007 -8.94964
399 1 20.4415 11.007 4.71726 -8.94963
398 1 17.2966 11.007 4.71727 -8.94966
394 1 4.71727 11.007 4.71727 -8.94971
393 1 1.57242 11.007 4.71726 -8.94963
50 1 1.15235e-12 22.0139 3.14484 -8.94963
688 3 10.2212 11.0092 9.43635 4.10082
101 1 3.14484 22.0139 6.28969 -8.94963
526 1 1.57242 17.2966 11.007 -8.94963
527 1 4.71727 17.2966 11.007 -8.94966
532 1 20.4415 17.2966 11.007 -8.94963
383 1 6.28969 18.8691 1.09725e-10 -8.94963
377 1 18.8691 15.7242 2.2373e-10 -8.94963
686 1 20.4415 20.4415 20.4415 -8.94963
685 1 18.8691 18.8691 18.8691 -8.94963
684 1 17.2966 20.4415 20.4415 -8.94963
683 1 15.7242 18.8691 18.8691 -8.94963
682 1 14.1518 20.4415 20.4415 -8.94963
681 1 12.5794 18.8691 18.8691 -8.94963
680 1 11.007 20.4415 20.4415 -8.94963
519 1 1.57242 14.1518 11.007 -8.94963
520 1 4.71725 14.1518 11.007 -8.94967
521 1 7.86129 14.1527 11.0079 -8.92616
522 1 11.0072 14.2075 11.0347 -7.8943
523 1 14.152 14.1521 11.0072 -8.94383
524 1 17.2966 14.1518 11.007 -8.94954
525 1 20.4415 14.1518 11.007 -8.94963
305 1 15.7242 22.0139 18.8691 -8.94963
299 1 6.28969 22.0139 18.8691 -8.94963
528 1 7.86213 17.2966 11.007 -8.95051
529 1 11.007 17.2975 11.007 -8.9613
391 1 18.8691 18.8691 22.0139 -8.94963
389 1 15.7242 18.8691 22.0139 -8.94963
258 1 18.8691 22.0139 15.7242 -8.94963
533 1 1.57242 20.4415 11.007 -8.94963
254 1 12.5794 22.0139 15.7242 -8.94963
535 1 7.86211 20.4415 11.007 -8.94964
252 1 9.43453 22.0139 15.7242 -8.94963
248 1 3.14484 22.0139 15.7242 -8.94963
207 1 15.7242 22.0139 12.5794 -8.94963
539 1 20.4415 20.4415 11.007 -8.94963
679 1 9.43453 18.8691 18.8691 -8.94963
678 1 7.86211 20.4415 20.4415 -8.94963
677 1 6.28969 18.8691 18.8691 -8.94963
676 1 4.71726 20.4415 20.4415 -8.94963
675 1 3.14484 18.8691 18.8691 -8.94963
674 1 1.57242 20.4415 20.4415 -8.94963
673 1 22.0139 18.8691 18.8691 -8.94963
547 1 22.0139 12.5794 12.5794 -8.94963
548 1 1.57242 14.1518 14.1518 -8.94963
549 1 3.14484 12.5794 12.5794 -8.94965
550 1 4.71726 14.1518 14.1518 -8.94965
551 1 6.28966 12.5794 12.5794 -8.95019
552 1 7.86209 14.1518 14.1518 -8.94946
553 1 9.4326 12.5796 12.5819 -8.90881
554 1 11.0069 14.1518 14.1522 -8.95633
555 1 12.5817 12.58 12.5823 -8.90033
556 1 14.1518 14.1518 14.1518 -8.94909
557 1 15.7242 12.5794 12.5794 -8.95057
558 1 17.2966 14.1518 14.1518 -8.94964
559 1 18.8691 12.5794 12.5794 -8.94965
560 1 20.4415 14.1518 14.1518 -8.94963
561 1 22.0139 15.7242 12.5794 -8.94963
562 1 1.57242 17.2966 14.1518 -8.94963
563 1 3.14484 15.7242 12.5794 -8.94963
564 1 4.71726 17.2966 14.1518 -8.94963
565 1 6.28966 15.7242 12.5794 -8.94942
566 1 7.8621 17.2966 14.1518 -8.94937
567 1 9.43387 15.7248 12.58 -8.93334
568 1 11.007 17.2966 14.1518 -8.95088
569 1 12.58 15.7249 12.58 -8.93269
570 1 14.1518 17.2966 14.1518 -8.94934
571 1 15.7242 15.7242 12.5794 -8.94973
572 1 17.2966 17.2966 14.1518 -8.94963
573 1 18.8691 15.7242 12.5794 -8.94963
574 1 20.4415 17.2966 14.1518 -8.94963
575 1 1.00209e-10 18.8691 12.5794 -8.94963
576 1 1.57242 20.4415 14.1518 -8.94963
577 1 3.14484 18.8691 12.5794 -8.94963
578 1 4.71726 20.4415 14.1518 -8.94963
579 1 6.28969 18.8691 12.5794 -8.94966
580 1 7.86211 20.4415 14.1518 -8.94963
581 1 9.43452 18.8691 12.5794 -8.94966
582 1 11.007 20.4415 14.1518 -8.94963
583 1 12.5794 18.8691 12.5794 -8.94966
584 1 14.1518 20.4415 14.1518 -8.94963
585 1 15.7242 18.8691 12.5794 -8.94966
586 1 17.2966 20.4415 14.1518 -8.94963
587 1 18.8691 18.8691 12.5794 -8.94963
588 1 20.4415 20.4415 14.1518 -8.94963
589 1 1.57242 11.007 17.2966 -8.94963
590 1 4.71726 11.007 17.2966 -8.94963
672 1 20.4415 17.2966 20.4415 -8.94963
671 1 18.8691 15.7242 18.8691 -8.94963
670 1 17.2966 17.2966 20.4415 -8.94963
594 1 17.2966 11.007 17.2966 -8.94963
595 1 20.4415 11.007 17.2966 -8.94963
596 1 5.50018e-10 12.5794 15.7242 -8.94963
597 1 1.57242 14.1518 17.2966 -8.94963
598 1 3.14484 12.5794 15.7242 -8.94963
599 1 4.71726 14.1518 17.2966 -8.94963
600 1 6.28969 12.5794 15.7242 -8.9497
601 1 7.86211 14.1518 17.2966 -8.94963
602 1 9.43452 12.5794 15.7243 -8.95004
603 1 11.007 14.1518 17.2966 -8.94973
604 1 12.5794 12.5794 15.7243 -8.95015
605 1 14.1518 14.1518 17.2966 -8.94963
606 1 15.7242 12.5794 15.7242 -8.94971
607 1 17.2966 14.1518 17.2966 -8.94963
608 1 18.8691 12.5794 15.7242 -8.94963
609 1 20.4415 14.1518 17.2966 -8.94963
610 1 22.0139 15.7242 15.7242 -8.94963
611 1 1.57242 17.2966 17.2966 -8.94963
612 1 3.14484 15.7242 15.7242 -8.94963
613 1 4.71726 17.2966 17.2966 -8.94963
614 1 6.28969 15.7242 15.7242 -8.94964
615 1 7.86211 17.2966 17.2966 -8.94963
616 1 9.43453 15.7242 15.7242 -8.94977
617 1 11.007 17.2966 17.2966 -8.94963
618 1 12.5794 15.7242 15.7242 -8.94979
619 1 14.1518 17.2966 17.2966 -8.94963
620 1 15.7242 15.7242 15.7242 -8.94964
621 1 17.2966 17.2966 17.2966 -8.94963
622 1 18.8691 15.7242 15.7242 -8.94963
623 1 20.4415 17.2966 17.2966 -8.94963
624 1 22.0139 18.8691 15.7242 -8.94963
625 1 1.57242 20.4415 17.2966 -8.94963
626 1 3.14484 18.8691 15.7242 -8.94963
627 1 4.71726 20.4415 17.2966 -8.94963
628 1 6.28969 18.8691 15.7242 -8.94963
629 1 7.86211 20.4415 17.2966 -8.94963
630 1 9.43453 18.8691 15.7242 -8.94966
631 1 11.007 20.4415 17.2966 -8.94963
632 1 12.5794 18.8691 15.7242 -8.94966
633 1 14.1518 20.4415 17.2966 -8.94963
634 1 15.7242 18.8691 15.7242 -8.94963
635 1 17.2966 20.4415 17.2966 -8.94963
636 1 18.8691 18.8691 15.7242 -8.94963
637 1 20.4415 20.4415 17.2966 -8.94963
669 1 15.7242 15.7242 18.8691 -8.94963
639 1 4.71726 11.007 20.4415 -8.94963
668 1 14.1518 17.2966 20.4415 -8.94963
667 1 12.5794 15.7242 18.8691 -8.94963
666 1 11.007 17.2966 20.4415 -8.94963
643 1 17.2966 11.007 20.4415 -8.94963
665 1 9.43453 15.7242 18.8691 -8.94963
645 1 22.0139 12.5794 18.8691 -8.94963
646 1 1.57242 14.1518 20.4415 -8.94963
647 1 3.14484 12.5794 18.8691 -8.94963
648 1 4.71726 14.1518 20.4415 -8.94963
649 1 6.28969 12.5794 18.8691 -8.94963
650 1 7.86211 14.1518 20.4415 -8.94963
651 1 9.43453 12.5794 18.8691 -8.94964
652 1 11.007 14.1518 20.4415 -8.94963
653 1 12.5794 12.5794 18.8691 -8.94964
654 1 14.1518 14.1518 20.4415 -8.94963
655 1 15.7242 12.5794 18.8691 -8.94963
656 1 17.2966 14.1518 20.4415 -8.94963
657 1 18.8691 12.5794 18.8691 -8.94963
658 1 20.4415 14.1518 20.4415 -8.94963
659 1 22.0139 15.7242 18.8691 -8.94963
660 1 1.57242 17.2966 20.4415 -8.94963
661 1 3.14484 15.7242 18.8691 -8.94963
662 1 4.71726 17.2966 20.4415 -8.94963
663 1 6.28969 15.7242 18.8691 -8.94963
664 1 7.86211 17.2966 20.4415 -8.94963
381 1 3.14484 18.8691 22.0139 -8.94963
201 1 6.28969 22.0139 12.5794 -8.94963
355 1 6.28969 12.5794 22.0139 -8.94963
357 1 9.43453 12.5794 22.0139 -8.94963
359 1 12.5794 12.5794 22.0139 -8.94964
365 1 22.0139 15.7242 22.0139 -8.94963
367 1 3.14484 15.7242 22.0139 -8.94963
369 1 6.28969 15.7242 22.0139 -8.94963
371 1 9.43453 15.7242 22.0139 -8.94963
373 1 12.5794 15.7242 22.0139 -8.94963
375 1 15.7242 15.7242 22.0139 -8.94963
246 1 1.11818e-12 22.0139 15.7242 -8.94963
379 1 22.0139 18.8691 22.0139 -8.94963
363 1 18.8691 12.5794 22.0139 -8.94963
