ITEM: TIMESTEP
79
ITEM: NUMBER OF ATOMS
688
ITEM: BOX BOUNDS pp pp pp
0.0000000000000000e+00 2.2013900999999997e+01
0.0000000000000000e+00 2.2013900999999997e+01
0.0000000000000000e+00 2.2013900999999997e+01
ITEM: ATOMS id type x y z c_pot
7 1 9.4345 0.0001518 -0.000151088 -8.94956
2 1 1.57203 1.57236 1.57204 -8.94926
448 1 20.4437 11.0068 7.86213 -8.95099
4 1 4.71702 1.57228 1.57201 -8.94971
447 1 17.306 11.0054 7.85993 -8.9592
6 1 7.862 1.57224 1.57199 -8.94947
175 1 18.8714 9.43352 9.43484 -8.94805
8 1 11.007 1.5722 1.57197 -8.94954
174 1 15.7273 9.43178 9.43473 -8.94169
10 1 14.152 1.57215 1.57203 -8.94948
446 1 14.1914 10.9754 7.8173 -8.88628
12 1 17.297 1.57209 1.57208 -8.94959
445 1 11.0838 11.0127 7.64626 -8.08956
14 1 20.4416 1.57233 1.57221 -8.94952
444 1 7.86307 10.9841 7.84624 -8.86541
16 1 1.57213 4.71692 1.57192 -8.94954
443 1 4.71702 11.0071 7.86181 -8.9489
18 1 4.71642 4.71639 1.57128 -8.94957
442 1 1.57203 11.0069 7.86198 -8.9489
20 1 7.86177 4.71642 1.57153 -8.9492
149 1 3.14389 0.000453506 9.4345 -8.94945
22 1 11.0069 4.71622 1.57146 -8.94953
154 1 18.8695 0.000223521 9.4345 -8.94954
24 1 14.1522 4.71609 1.5714 -8.94955
188 1 17.2983 4.71547 11.0067 -8.94874
26 1 17.2978 4.71591 1.57134 -8.94855
183 1 1.57122 4.71637 11.0071 -8.94941
28 1 20.442 4.71671 1.57188 -8.94922
397 1 14.1634 11.0048 4.70006 -8.95176
30 1 1.57216 7.86187 1.5719 -8.9494
396 1 11.0119 11.0081 4.72112 -8.9989
32 1 4.71654 7.86174 1.57133 -8.94974
395 1 7.86241 11.0055 4.71345 -8.95146
34 1 7.86176 7.86158 1.57071 -8.95157
35 1 9.43414 6.28883 -0.00046218 -8.94947
36 1 11.0066 7.86065 1.56988 -8.94997
37 1 12.5795 6.28875 -0.000593289 -8.94956
38 1 14.1531 7.86036 1.56888 -8.95139
181 1 17.2974 1.57207 11.0069 -8.94951
40 1 17.2984 7.86082 1.57032 -8.9494
346 1 7.86181 11.0067 1.5709 -8.9498
42 1 20.4421 7.86172 1.57175 -8.94943
164 1 6.28179 6.28122 9.43373 -8.94193
44 1 3.14435 9.43434 -0.000417444 -8.94942
350 1 20.4421 11.0068 1.57167 -8.94948
348 1 14.1538 11.0068 1.5672 -8.95129
347 1 11.0069 11.0067 1.57101 -8.94563
48 1 15.7253 9.43404 -0.00161032 -8.94988
163 1 3.14149 6.28774 9.43422 -8.94918
344 1 1.57204 11.0068 1.57174 -8.9495
51 1 1.57195 1.57231 4.71696 -8.94951
52 1 3.14407 0.000556108 3.14405 -8.94939
53 1 4.71637 1.57207 4.7163 -8.95006
54 1 6.28955 0.000381839 3.14419 -8.94971
55 1 7.86207 1.57199 4.71651 -8.94966
173 1 12.5728 9.44823 9.42946 -8.90399
57 1 11.0072 1.57187 4.71644 -8.94971
172 1 9.38573 9.28681 9.44506 -8.25765
59 1 14.1522 1.57168 4.71674 -8.95027
60 1 15.7245 0.000150333 3.14442 -8.94999
61 1 17.2971 1.57227 4.71698 -8.94999
62 1 18.8694 0.000332495 3.1445 -8.94959
63 1 20.4416 1.57233 4.71712 -8.94952
64 1 22.0137 3.14455 3.14454 -8.94964
65 1 1.57144 4.71656 4.71659 -8.94972
66 1 3.14383 3.14405 3.14383 -8.94881
67 1 4.71433 4.71427 4.71433 -8.94696
68 1 6.28925 3.14397 3.1439 -8.94979
69 1 7.86144 4.71473 4.71548 -8.9499
70 1 9.43441 3.14387 3.1439 -8.94936
71 1 11.0072 4.71445 4.71518 -8.94852
72 1 12.5796 3.14371 3.14391 -8.94927
73 1 14.1537 4.71316 4.71503 -8.95034
74 1 15.725 3.1434 3.14392 -8.9496
75 1 17.298 4.71541 4.71638 -8.95045
76 1 18.8696 3.14424 3.14444 -8.94979
77 1 20.4418 4.71671 4.71699 -8.94981
78 1 22.0141 6.28918 3.14425 -8.94979
79 1 1.57172 7.86169 4.71658 -8.95023
80 1 3.14365 6.28885 3.1436 -8.94946
81 1 4.71397 7.85995 4.7144 -8.94875
82 1 6.28761 6.28744 3.14154 -8.94983
83 1 7.85771 7.85637 4.70983 -8.95057
84 1 9.43396 6.28759 3.14248 -8.94774
85 1 11.0076 7.85699 4.70992 -8.94657
86 1 12.5801 6.28709 3.14181 -8.94872
87 1 14.1631 7.85014 4.70484 -8.93248
88 1 15.7279 6.2855 3.14086 -8.94541
89 1 17.3035 7.85692 4.7122 -8.946
90 1 18.8712 6.28791 3.14315 -8.94837
91 1 20.4432 7.86113 4.71632 -8.95039
92 1 0.000227692 9.43419 3.14406 -8.94939
93 1 3.14375 9.434 3.14361 -8.94875
94 1 6.28862 9.43385 3.1424 -8.95002
95 1 9.4355 9.434 3.14261 -8.95222
96 1 12.5812 9.43272 3.1364 -8.95838
97 1 15.7287 9.43176 3.1385 -8.9491
98 1 18.8713 9.43369 3.14304 -8.94901
99 1 22.0137 0.00017952 6.28956 -8.94954
100 1 1.57188 1.57227 7.86197 -8.94952
166 1 12.5773 6.29158 9.43517 -8.94408
102 1 4.71609 1.57193 7.86161 -8.94933
103 1 6.28891 0.00134662 6.28874 -8.95111
104 1 7.86176 1.57159 7.86161 -8.95134
105 1 9.43492 0.000587242 6.28901 -8.94986
106 1 11.0073 1.5719 7.86173 -8.94893
107 1 12.5796 0.000232579 6.28928 -8.94988
108 1 14.1522 1.57219 7.86193 -8.94988
109 1 15.7247 0.000742112 6.28932 -8.95027
110 1 17.2973 1.57215 7.86187 -8.94947
165 1 9.43309 6.2831 9.43591 -8.98447
112 1 20.4416 1.57228 7.86202 -8.94955
113 1 -0.000247228 3.14447 6.28948 -8.94946
114 1 1.57129 4.71641 7.86176 -8.94934
115 1 3.1437 3.14398 6.28906 -8.94923
116 1 4.71435 4.71444 7.86083 -8.94793
117 1 6.28824 3.14229 6.28821 -8.95103
118 1 7.85974 4.71043 7.86072 -8.95596
119 1 9.4348 3.14285 6.28878 -8.95021
120 1 11.0074 4.7155 7.86153 -8.94788
121 1 12.5798 3.14275 6.28905 -8.95151
122 1 14.1522 4.7153 7.86253 -8.95138
123 1 15.7248 3.14374 6.28953 -8.95041
124 1 17.298 4.71561 7.86171 -8.94846
125 1 18.8695 3.14428 6.28948 -8.94932
126 1 20.4418 4.71656 7.86193 -8.94946
127 1 22.0136 6.28913 6.28941 -8.94988
128 1 1.57083 7.86162 7.86191 -8.95067
129 1 3.14198 6.28815 6.28834 -8.95051
130 1 4.71073 7.85922 7.86056 -8.95455
131 1 6.28132 6.2805 6.28175 -8.94021
132 1 7.83802 7.83466 7.8435 -8.90833
133 1 9.43492 6.28333 6.28719 -8.95228
134 1 11.0174 7.86144 7.84902 -8.92091
135 1 12.5831 6.28087 6.28495 -8.95509
136 1 14.1569 7.85503 7.86174 -8.96032
137 1 15.7273 6.28536 6.28815 -8.95284
138 1 17.2999 7.85994 7.86224 -8.94913
139 1 18.8704 6.28852 6.28945 -8.94979
140 1 20.4424 7.86141 7.86213 -8.94958
141 1 22.0145 9.43424 6.28932 -8.95055
142 1 3.14279 9.43436 6.2889 -8.95142
143 1 6.28232 9.42931 6.28342 -8.94518
144 1 9.42587 9.41429 6.28069 -8.90248
145 1 12.615 9.40233 6.25345 -8.86263
146 1 15.7437 9.42153 6.27531 -8.94008
147 1 18.8742 9.43287 6.28807 -8.95297
171 1 6.28385 9.42934 9.43527 -8.96074
170 1 3.14273 9.43446 9.43452 -8.95042
169 1 22.0139 9.43433 9.43466 -8.94964
151 1 9.4348 0.000885137 9.43421 -8.94933
152 1 12.5797 0.0005229 9.43422 -8.94893
168 1 18.8707 6.28824 9.43436 -8.94932
167 1 15.7277 6.28554 9.43356 -8.94437
155 1 22.0137 3.14442 9.43448 -8.94953
156 1 3.14355 3.14388 9.4344 -8.94947
157 1 6.28751 3.14173 9.43409 -8.94931
158 1 9.43452 3.14249 9.43417 -8.94956
159 1 12.5796 3.14412 9.43416 -8.9475
160 1 15.7254 3.14335 9.4341 -8.94957
161 1 18.8697 3.14418 9.43441 -8.94951
162 1 -0.00044584 6.28894 9.43447 -8.94981
177 1 4.71602 1.57182 11.0072 -8.94937
184 1 4.71399 4.71415 11.0076 -8.94823
41 1 18.8697 6.28919 -0.000518669 -8.94952
19 1 6.28948 3.14449 -0.000176167 -8.9495
25 1 15.7245 3.14436 -0.00016988 -8.94961
176 1 1.57187 1.57225 11.007 -8.94952
199 1 3.14394 0.000379222 12.5797 -8.94933
178 1 7.86151 1.57117 11.0069 -8.95141
179 1 11.0073 1.57154 11.0067 -8.94933
180 1 14.1525 1.57183 11.0066 -8.94986
644 1 20.4418 11.0069 20.4414 -8.94956
182 1 20.4416 1.57227 11.007 -8.94956
642 1 14.1525 11.0071 20.4412 -8.95042
209 1 18.8695 0.000181526 12.5795 -8.94947
185 1 7.8586 4.70844 11.0077 -8.95519
186 1 11.0075 4.71272 11.0075 -8.94803
187 1 14.1534 4.71379 11.0056 -8.95009
641 1 11.0068 11.0071 20.4415 -8.9484
189 1 20.4419 4.71653 11.007 -8.94952
190 1 1.57048 7.86155 11.0071 -8.95098
191 1 4.70899 7.85845 11.008 -8.95395
192 1 7.83307 7.82995 11.0268 -8.89416
193 1 11.019 7.85342 11.0339 -8.96632
194 1 14.1594 7.85272 11.0035 -8.95081
195 1 17.3007 7.85961 11.0063 -8.94811
196 1 20.4425 7.86138 11.007 -8.94977
197 1 22.0137 0.000157764 12.5795 -8.94954
198 1 1.57192 1.57224 14.1521 -8.94951
343 1 18.8698 9.43452 18.8695 -8.94941
200 1 4.71614 1.57175 14.1526 -8.94983
342 1 15.7254 9.43453 18.8705 -8.94965
202 1 7.86153 1.57145 14.1528 -8.95055
203 1 9.43459 0.00125335 12.58 -8.95141
204 1 11.0072 1.57128 14.153 -8.95006
205 1 12.5799 0.000829495 12.5797 -8.95134
206 1 14.1527 1.57107 14.1526 -8.95111
341 1 12.5796 9.43433 18.8722 -8.9533
208 1 17.2973 1.57204 14.1519 -8.94971
340 1 9.43433 9.43448 18.8714 -8.95169
210 1 20.4416 1.57228 14.1519 -8.94951
211 1 -0.00024603 3.14443 12.5795 -8.94949
212 1 1.57124 4.71646 14.1525 -8.94964
213 1 3.14355 3.14386 12.5798 -8.94928
214 1 4.71345 4.71365 14.1548 -8.94665
215 1 6.28769 3.14149 12.5806 -8.95055
216 1 7.85927 4.71071 14.1554 -8.95147
217 1 9.43447 3.14065 12.5803 -8.95236
218 1 11.0073 4.71068 14.1559 -8.94764
219 1 12.5802 3.14046 12.58 -8.9538
220 1 14.1562 4.70915 14.1559 -8.95155
221 1 15.7253 3.14318 12.5792 -8.94974
222 1 17.2987 4.71524 14.1525 -8.95028
223 1 18.8697 3.14422 12.5794 -8.94934
224 1 20.4419 4.71667 14.152 -8.9497
225 1 22.0135 6.28908 12.5797 -8.94993
226 1 1.57115 7.86189 14.1524 -8.95091
227 1 3.14122 6.28791 12.5806 -8.95025
228 1 4.71096 7.85942 14.1554 -8.95158
229 1 6.27889 6.27856 12.5875 -8.93804
230 1 7.84329 7.84245 14.1731 -8.92479
231 1 9.43176 6.27282 12.5858 -8.96017
232 1 11.0075 7.84769 14.1678 -8.94379
233 1 12.5869 6.27001 12.588 -8.96142
234 1 14.1775 7.8367 14.1772 -8.90128
235 1 15.7291 6.28473 12.5799 -8.95103
236 1 17.3049 7.85795 14.1561 -8.9513
237 1 18.8709 6.28852 12.5795 -8.94945
238 1 20.4432 7.86159 14.1525 -8.95117
239 1 22.014 9.4346 12.5796 -8.95075
240 1 3.14179 9.43496 12.5797 -8.95336
241 1 6.27558 9.42967 12.5854 -8.96015
242 1 9.37926 9.37287 12.6284 -8.78898
243 1 12.6555 9.36096 12.6508 -8.72149
244 1 15.7441 9.42629 12.5878 -8.96204
245 1 18.8733 9.43417 12.5799 -8.9546
47 1 12.5794 9.43425 22.0124 -8.95148
247 1 1.57199 1.57227 17.297 -8.94937
46 1 9.43438 9.43441 22.0134 -8.9498
249 1 4.71658 1.57208 17.2975 -8.94954
250 1 6.28886 0.0006741 15.7253 -8.94983
251 1 7.86178 1.57204 17.2975 -8.94933
339 1 6.28899 9.43468 18.8701 -8.94951
253 1 11.007 1.57197 17.2976 -8.94945
338 1 3.14429 9.43448 18.8695 -8.94938
255 1 14.1522 1.57193 17.2975 -8.94935
256 1 15.7252 0.000354303 15.7251 -8.95006
257 1 17.2974 1.57187 17.2974 -8.94939
45 1 6.2892 9.4344 22.0133 -8.94974
259 1 20.4417 1.57226 17.2969 -8.94964
260 1 22.0137 3.14449 15.7245 -8.94959
261 1 1.57185 4.71678 17.2973 -8.94965
262 1 3.14358 3.14384 15.7253 -8.94882
263 1 4.7152 4.7154 17.299 -8.94775
264 1 6.2883 3.1428 15.726 -8.94995
265 1 7.86116 4.71545 17.2988 -8.94891
266 1 9.4341 3.14271 15.726 -8.94906
267 1 11.0069 4.71519 17.299 -8.94912
268 1 12.58 3.14252 15.726 -8.94903
269 1 14.1529 4.71507 17.299 -8.94922
270 1 15.7261 3.14219 15.726 -8.94966
271 1 17.2991 4.71496 17.299 -8.94654
272 1 18.8698 3.14415 15.7246 -8.94984
273 1 20.4422 4.71664 17.2973 -8.94946
274 1 22.014 6.28926 15.7248 -8.95021
275 1 1.57202 7.86207 17.2971 -8.9495
276 1 3.14257 6.28854 15.7259 -8.94999
277 1 4.71596 7.86194 17.2982 -8.95003
278 1 6.28316 6.28345 15.7317 -8.94297
279 1 7.85992 7.86009 17.3022 -8.95327
280 1 9.43281 6.28425 15.73 -8.94618
281 1 11.0067 7.85916 17.3025 -8.94931
282 1 12.5815 6.28368 15.7308 -8.94726
283 1 14.1551 7.85901 17.3038 -8.95299
284 1 15.7325 6.28171 15.7323 -8.93762
285 1 17.2986 7.86147 17.2985 -8.94998
286 1 18.8719 6.288 15.726 -8.94957
287 1 20.4421 7.86202 17.2971 -8.94958
288 1 4.83176e-05 9.43453 15.7248 -8.94949
289 1 3.14348 9.43462 15.7252 -8.94896
290 1 6.28718 9.43469 15.7274 -8.94995
291 1 9.43244 9.43057 15.735 -8.9607
292 1 12.5842 9.42949 15.7402 -8.9652
293 1 15.7288 9.43403 15.7291 -8.94982
294 1 18.8709 9.43465 15.7253 -8.94943
295 1 22.0138 0.000112588 18.8693 -8.94929
296 1 1.57223 1.57231 20.4416 -8.94929
297 1 3.14444 0.000156304 18.8695 -8.94937
298 1 4.71707 1.57231 20.4416 -8.94958
301 1 9.43445 0.000169696 18.8696 -8.94952
300 1 7.86198 1.57226 20.4417 -8.94954
337 1 22.0139 9.43449 18.8693 -8.94953
302 1 11.007 1.57224 20.4417 -8.94956
336 1 20.4418 7.862 20.4414 -8.94953
304 1 14.1519 1.57224 20.4417 -8.94954
39 1 15.7251 6.28866 22.0131 -8.95012
306 1 17.2969 1.57224 20.4417 -8.94961
307 1 18.8694 6.58165e-05 18.8694 -8.94926
308 1 20.4417 1.57231 20.4416 -8.94919
309 1 22.0139 3.1446 18.8693 -8.94945
310 1 1.57225 4.71714 20.4415 -8.94969
311 1 3.14422 3.14434 18.8697 -8.94907
312 1 4.7167 4.71677 20.4419 -8.94983
313 1 6.28928 3.14428 18.8698 -8.94948
314 1 7.86176 4.71661 20.4419 -8.9494
315 1 9.43435 3.14415 18.8699 -8.94942
316 1 11.0069 4.71649 20.4419 -8.94951
317 1 12.5795 3.14413 18.8699 -8.94941
318 1 14.1521 4.71651 20.4419 -8.94947
319 1 15.7247 3.14413 18.8698 -8.94956
320 1 17.2974 4.71651 20.4419 -8.94951
321 1 18.8698 3.14424 18.8697 -8.94877
322 1 20.4418 4.71705 20.4415 -8.9496
323 1 22.014 6.2896 18.8693 -8.94962
324 1 1.57223 7.86202 20.4415 -8.9495
325 1 3.14431 6.28952 18.8696 -8.94982
326 1 4.71679 7.86202 20.4416 -8.94966
327 1 6.28853 6.2887 18.8711 -8.95047
328 1 7.86168 7.86181 20.4423 -8.95073
329 1 9.434 6.28839 18.8711 -8.94924
330 1 11.0067 7.86138 20.4423 -8.95032
331 1 12.5797 6.28832 18.8712 -8.94939
332 1 14.1524 7.86147 20.4422 -8.95113
333 1 15.7258 6.28819 18.8714 -8.95012
334 1 17.2974 7.86178 20.4415 -8.94964
335 1 18.8698 6.28931 18.8696 -8.94975
512 1 1.57201 11.0071 11.007 -8.94815
513 1 4.71817 11.0082 11.0056 -8.94678
514 1 7.86856 10.9896 11.0187 -8.88191
515 1 11.0595 10.8058 11.3128 -7.30344
516 1 14.1611 10.9852 11.0288 -8.92162
517 1 17.2995 11.007 11.0061 -8.95126
518 1 20.4425 11.0071 11.0069 -8.94919
540 1 1.57144 11.007 14.1526 -8.94942
541 1 4.71443 11.0073 14.154 -8.94608
542 1 7.86017 11.0083 14.1561 -8.94737
543 1 11.0105 10.9951 14.1503 -9.01941
544 1 14.1597 11.0099 14.1615 -8.9479
545 1 17.3004 11.0081 14.1538 -8.94831
546 1 20.4425 11.0072 14.1525 -8.94966
591 1 7.86131 11.0075 17.2986 -8.94926
592 1 11.0072 11.0071 17.298 -8.9467
593 1 14.1538 11.008 17.3001 -8.94984
638 1 1.57218 11.0069 20.4415 -8.94956
640 1 7.86169 11.007 20.4417 -8.94961
3 1 3.14462 0.00016061 22.0137 -8.94964
5 1 6.28957 0.000139279 22.0138 -8.94951
11 1 15.7244 9.24359e-05 22.0138 -8.94952
13 1 18.8693 9.61648e-05 22.0138 -8.94952
15 1 22.0139 3.14468 22.0137 -8.94942
17 1 3.14448 3.1445 22.0137 -8.94951
303 1 12.5795 0.000154816 18.8696 -8.94952
33 1 6.28919 6.28921 22.0135 -8.95047
27 1 18.8695 3.1444 22.0138 -8.94927
29 1 22.014 6.28953 22.0137 -8.94954
31 1 3.14449 6.28949 22.0136 -8.94967
1 1 22.0138 0.000113086 22.0137 -8.94919
21 1 9.43442 3.14438 22.0137 -8.94954
9 1 12.5795 0.000138823 22.0138 -8.94955
23 1 12.5794 3.14436 22.0137 -8.94953
43 1 22.014 9.43442 22.0136 -8.94955
49 1 18.8698 9.43431 22.0133 -8.94943
687 3 10.9614 12.4715 10.1739 2.22069
345 1 4.71623 11.0065 1.57096 -8.9493
511 1 18.87 18.8701 9.43461 -8.94953
510 1 15.7263 18.8719 9.4343 -8.94852
509 1 12.5799 18.8708 9.43409 -8.94788
349 1 17.2985 11.0067 1.57021 -8.94923
508 1 9.43394 18.8736 9.43394 -8.94803
351 1 22.0139 12.5794 -0.00031352 -8.94956
352 1 1.57201 14.1518 1.57173 -8.94941
353 1 3.14429 12.5793 -0.000510676 -8.94951
354 1 4.71619 14.1517 1.57062 -8.94943
538 1 17.2976 20.4425 11.0071 -8.94936
356 1 7.86158 14.1522 1.56817 -8.9546
153 1 15.725 22.0145 9.4343 -8.94971
358 1 11.0066 14.1528 1.57011 -8.94805
150 1 6.28849 22.015 9.4343 -8.95006
360 1 14.1534 14.1534 1.56727 -8.95297
361 1 15.7254 12.5797 -0.00183532 -8.94963
362 1 17.2984 14.1526 1.57021 -8.94901
111 1 18.8694 22.0142 6.28951 -8.94948
364 1 20.4421 14.152 1.57168 -8.94943
537 1 14.1527 20.4435 11.0067 -8.95021
366 1 1.57187 17.297 1.57165 -8.94975
148 1 -0.000199976 22.0141 9.43453 -8.94956
368 1 4.71552 17.2983 1.56956 -8.94957
58 1 12.5796 22.0142 3.1442 -8.94947
370 1 7.86201 17.2978 1.57056 -8.94945
56 1 9.43459 22.0143 3.14413 -8.94951
372 1 11.0071 17.2981 1.5708 -8.94932
536 1 11.0073 20.4438 11.007 -8.94956
374 1 14.152 17.2978 1.57107 -8.94979
534 1 4.71549 20.4436 11.0074 -8.94906
376 1 17.2983 17.2984 1.57027 -8.94837
493 1 6.29116 12.5912 9.43103 -9.01941
378 1 20.442 17.2971 1.57175 -8.94952
492 1 3.14345 12.5792 9.43432 -8.9467
380 1 1.57183 20.4421 1.57172 -8.94877
491 1 22.0139 12.5792 9.43471 -8.9484
382 1 4.71687 20.4422 1.57169 -8.94984
490 1 20.4417 20.442 7.86204 -8.94953
384 1 7.86206 20.4421 1.5718 -8.94934
385 1 9.43449 18.8698 -0.000377242 -8.94952
386 1 11.0071 20.4421 1.57179 -8.94951
387 1 12.5795 18.8698 -0.000320595 -8.94946
388 1 14.152 20.442 1.57194 -8.94932
489 1 18.8701 18.8702 6.28926 -8.94955
390 1 17.297 20.4421 1.57191 -8.94979
488 1 17.2976 20.4426 7.86188 -8.94927
392 1 20.4416 20.4419 1.57199 -8.94927
507 1 6.28554 18.8756 9.43422 -8.94764
506 1 3.14251 18.8711 9.4346 -8.94912
505 1 22.0134 18.8698 9.43462 -8.94951
504 1 18.8716 15.7257 9.43486 -8.94997
503 1 15.7316 15.7293 9.43389 -8.94657
502 1 12.5925 15.7249 9.42406 -8.92091
501 1 9.40758 15.7329 9.42253 -8.96632
400 1 0.000137464 12.5793 3.14397 -8.94948
401 1 1.57103 14.1518 4.71612 -8.94965
402 1 3.14344 12.579 3.14325 -8.94904
403 1 4.71238 14.1523 4.71268 -8.94982
404 1 6.28772 12.5782 3.14109 -8.94831
405 1 7.85369 14.16 4.69736 -8.96204
406 1 9.43536 12.5793 3.14195 -8.95126
407 1 11.0068 14.1545 4.71415 -8.94169
408 1 12.5816 12.5809 3.13549 -8.9592
409 1 14.1662 14.1648 4.69781 -8.94008
410 1 15.729 12.5805 3.13843 -8.94737
411 1 17.303 14.1546 4.71273 -8.9491
412 1 18.8713 12.5796 3.143 -8.94923
413 1 20.4431 14.1523 4.71615 -8.94988
414 1 22.0139 15.7245 3.14406 -8.94964
415 1 1.57009 17.2981 4.71571 -8.95012
416 1 3.14293 15.7249 3.14287 -8.94998
417 1 4.7092 17.3046 4.70902 -8.93762
418 1 6.2854 15.7284 3.13655 -8.9513
419 1 7.86153 17.3016 4.71242 -8.95103
420 1 9.43515 15.7267 3.14081 -8.94811
421 1 11.0079 17.3008 4.71381 -8.94437
422 1 12.5792 15.7264 3.14161 -8.94913
423 1 14.1533 17.301 4.71418 -8.95284
424 1 15.7293 15.7294 3.13798 -8.946
425 1 17.3006 17.3008 4.7136 -8.94541
426 1 18.8712 15.7255 3.1431 -8.9494
427 1 20.4422 17.2977 4.71641 -8.95012
428 1 22.0135 18.8698 3.14409 -8.94951
429 1 1.57167 20.4422 4.71678 -8.94956
430 1 3.14252 18.8714 3.1424 -8.94654
431 1 4.7155 20.4441 4.71539 -8.94966
432 1 6.28896 18.8711 3.14275 -8.95028
433 1 7.86229 20.4431 4.71617 -8.94974
434 1 9.43475 18.8709 3.14318 -8.94874
435 1 11.0074 20.443 4.71612 -8.94957
436 1 12.5798 18.8707 3.14347 -8.94846
437 1 14.1519 20.4426 4.7167 -8.95041
438 1 15.7251 18.8709 3.14345 -8.95045
439 1 17.2976 20.4429 4.71643 -8.9496
440 1 18.8701 18.8704 3.14367 -8.94855
441 1 20.4416 20.442 4.717 -8.94961
500 1 6.27369 15.7386 9.43395 -8.94379
499 1 3.13902 15.7272 9.43474 -8.94931
498 1 -0.000833186 15.7249 9.43477 -8.95032
497 1 18.8705 12.5796 9.43454 -8.94563
496 1 15.7204 12.5782 9.42962 -8.9989
495 1 12.7952 12.5736 9.35765 -8.08956
494 1 9.12871 12.7805 9.38201 -7.30344
449 1 22.0142 12.5792 6.28902 -8.95042
450 1 1.56929 14.152 7.86184 -8.9533
451 1 3.14138 12.5784 6.28773 -8.94984
452 1 4.70128 14.1568 7.85732 -8.9652
453 1 6.28003 12.5764 6.28179 -8.9479
454 1 7.79068 14.2254 7.78596 -8.72149
455 1 9.41266 12.6011 6.28037 -8.92162
456 1 11.012 14.1381 7.86868 -8.90399
457 1 12.6242 12.6109 6.25008 -8.88628
458 1 14.188 14.184 7.82646 -8.86263
459 1 15.7414 12.5815 6.27811 -8.95176
460 1 17.3051 14.1536 7.86025 -8.95838
461 1 18.8743 12.5795 6.28767 -8.95129
462 1 20.443 14.1521 7.86208 -8.95148
463 1 22.0131 15.7249 6.28912 -8.95113
464 1 1.57023 17.298 7.8618 -8.94939
465 1 3.13772 15.7273 6.28637 -8.95299
466 1 4.7107 17.3026 7.86002 -8.94726
467 1 6.26424 15.7496 6.26399 -8.90128
468 1 7.85352 17.3163 7.85458 -8.96142
469 1 9.43802 15.7336 6.28209 -8.95081
470 1 11.0063 17.2947 7.86414 -8.94408
471 1 12.5797 15.7313 6.28453 -8.96032
472 1 14.1565 17.3055 7.85835 -8.95509
473 1 15.7366 15.7362 6.27833 -8.93248
474 1 17.2997 17.2992 7.86139 -8.94872
475 1 18.8726 15.726 6.28834 -8.95139
476 1 20.4421 17.2976 7.86203 -8.94956
477 1 -0.00044763 18.8698 6.28942 -8.94947
478 1 1.57163 20.4422 7.86198 -8.94941
479 1 3.14247 18.8712 6.28855 -8.94922
480 1 4.71549 20.4438 7.8615 -8.94903
481 1 6.28554 18.8772 6.28532 -8.95155
482 1 7.86145 20.4459 7.86127 -8.9538
483 1 9.43589 18.8725 6.28809 -8.95009
484 1 11.0073 20.4422 7.86184 -8.9475
485 1 12.579 18.871 6.28923 -8.95138
486 1 14.1524 20.4436 7.86172 -8.95151
487 1 15.7265 18.8732 6.28775 -8.95034
530 1 14.1543 17.303 11.0066 -8.95228
531 1 17.299 17.2987 11.0075 -8.94774
399 1 20.4433 11.0066 4.71605 -8.94963
398 1 17.3031 11.0058 4.71246 -8.94737
394 1 4.71437 11.0055 4.71409 -8.94527
393 1 1.57148 11.0065 4.71609 -8.94932
50 1 -0.00017219 22.0141 3.14461 -8.94961
688 3 10.2676 11.1148 9.4801 2.22069
101 1 3.14398 22.0144 6.28927 -8.94935
526 1 1.57037 17.2979 11.0075 -8.94924
527 1 4.71144 17.3021 11.0087 -8.94618
532 1 20.4419 17.2975 11.0073 -8.94947
383 1 6.28944 18.8697 -0.000428788 -8.9497
377 1 18.8697 15.7246 -0.000627327 -8.94943
686 1 20.4417 20.4416 20.4415 -8.94942
685 1 18.8696 18.8694 18.8694 -8.94954
684 1 17.2969 20.4418 20.4417 -8.94964
683 1 15.7249 18.8698 18.87 -8.94972
682 1 14.152 20.4419 20.4417 -8.94946
681 1 12.5797 18.8699 18.8702 -8.94934
680 1 11.007 20.4419 20.4417 -8.94953
519 1 1.57009 14.1518 11.0072 -8.95169
520 1 4.70652 14.1558 11.009 -8.9607
521 1 7.81309 14.2135 11.0622 -8.78898
522 1 10.9964 14.2995 11.0557 -8.25765
523 1 14.1608 14.172 11.0156 -8.90248
524 1 17.2989 14.1523 11.006 -8.95222
525 1 20.4419 14.1519 11.0071 -8.9498
305 1 15.7245 22.014 18.8695 -8.94951
299 1 6.28941 22.0141 18.8696 -8.94951
528 1 7.85566 17.3135 11.0097 -8.96017
529 1 11.0056 17.3032 11.0084 -8.98447
391 1 18.8696 18.8696 22.0134 -8.94922
389 1 15.7245 18.8696 22.0136 -8.94981
258 1 18.8695 22.014 15.7245 -8.94971
533 1 1.57163 20.4422 11.0071 -8.94942
254 1 12.5799 22.0144 15.7254 -8.94933
535 1 7.86118 20.4457 11.007 -8.95236
252 1 9.43433 22.0145 15.7255 -8.94937
248 1 3.14402 22.0142 15.7249 -8.94954
207 1 15.725 22.0143 12.5794 -8.94966
539 1 20.4417 20.4419 11.0071 -8.94954
679 1 9.43437 18.8699 18.8703 -8.94941
678 1 7.86196 20.4419 20.4417 -8.94949
677 1 6.28903 18.8699 18.8702 -8.94964
676 1 4.71696 20.4418 20.4417 -8.94959
675 1 3.14418 18.8695 18.8696 -8.94965
674 1 1.57214 20.4417 20.4415 -8.94945
673 1 22.0138 18.8692 18.8692 -8.94969
547 1 22.0137 12.5793 12.5798 -8.94961
548 1 1.57135 14.1516 14.1525 -8.94951
549 1 3.1429 12.5788 12.5802 -8.94926
550 1 4.71409 14.1516 14.1543 -8.94995
551 1 6.28535 12.578 12.5813 -8.94737
552 1 7.8561 14.1567 14.1659 -8.96015
553 1 9.42276 12.5967 12.5729 -8.88191
554 1 11.0062 14.157 14.1576 -8.96074
555 1 12.5952 12.6022 12.5784 -8.86541
556 1 14.1581 14.157 14.1592 -8.94518
557 1 15.728 12.5809 12.5791 -8.95146
558 1 17.2991 14.1525 14.1529 -8.95002
559 1 18.8706 12.5796 12.5797 -8.9498
560 1 20.442 14.1519 14.1523 -8.94974
561 1 22.0131 15.7245 12.5798 -8.95073
562 1 1.57038 17.2976 14.153 -8.95047
563 1 3.13924 15.7262 12.5816 -8.95327
564 1 4.70975 17.3029 14.1583 -8.94297
565 1 6.26834 15.7439 12.5982 -8.92479
566 1 7.85399 17.3078 14.1626 -8.93804
567 1 9.41467 15.7564 12.6084 -8.89416
568 1 11.0078 17.3051 14.1597 -8.94193
569 1 12.598 15.7517 12.6035 -8.90833
570 1 14.1597 17.3058 14.1602 -8.94021
571 1 15.7317 15.73 12.5838 -8.95057
572 1 17.2999 17.2989 14.1539 -8.94983
573 1 18.8708 15.7247 12.5797 -8.95157
574 1 20.4419 17.2971 14.1523 -8.95047
575 1 -0.000430968 18.8697 12.5797 -8.9494
576 1 1.5717 20.442 14.1522 -8.94948
577 1 3.14265 18.8709 12.5803 -8.94891
578 1 4.71553 20.4435 14.1532 -8.94995
579 1 6.28604 18.8756 12.5822 -8.95147
580 1 7.8609 20.4448 14.1538 -8.95055
581 1 9.43376 18.8779 12.5829 -8.95519
582 1 11.0074 20.4446 14.154 -8.94931
583 1 12.5808 18.8759 12.5817 -8.95596
584 1 14.1533 20.444 14.1532 -8.95103
585 1 15.726 18.8716 12.58 -8.9499
586 1 17.2976 20.4423 14.1522 -8.94979
587 1 18.87 18.8699 12.5797 -8.9492
588 1 20.4417 20.4418 14.152 -8.9495
589 1 1.57197 11.0069 17.2972 -8.94953
590 1 4.71603 11.007 17.298 -8.94904
672 1 20.4417 17.2968 20.4414 -8.94954
671 1 18.8696 15.7245 18.8693 -8.9494
670 1 17.2972 17.2971 20.4412 -8.94979
594 1 17.2982 11.0073 17.298 -8.94904
595 1 20.442 11.007 17.2972 -8.94951
596 1 -4.46583e-05 12.5795 15.7249 -8.94957
597 1 1.57198 14.1518 17.2972 -8.94938
598 1 3.14348 12.5793 15.7254 -8.94904
599 1 4.71624 14.1517 17.298 -8.94896
600 1 6.28753 12.579 15.7271 -8.94608
601 1 7.86178 14.1514 17.2997 -8.95336
602 1 9.43591 12.5781 15.7233 -8.94678
603 1 11.007 14.1519 17.2987 -8.95042
604 1 12.5797 12.5792 15.7245 -8.9489
605 1 14.1526 14.152 17.2987 -8.95142
606 1 15.7274 12.5809 15.7271 -8.94527
607 1 17.2979 14.1523 17.2977 -8.94875
608 1 18.8705 12.5798 15.7252 -8.9493
609 1 20.4419 14.152 17.2971 -8.94942
610 1 22.0137 15.7243 15.7247 -8.94966
611 1 1.57191 17.2968 17.2972 -8.94982
612 1 3.14332 15.7244 15.7255 -8.95003
613 1 4.71563 17.2978 17.2989 -8.94999
614 1 6.28608 15.7269 15.7305 -8.95158
615 1 7.86089 17.2984 17.3003 -8.95025
616 1 9.43352 15.7279 15.7325 -8.95395
617 1 11.0073 17.2986 17.3 -8.94918
618 1 12.5809 15.7271 15.7307 -8.95455
619 1 14.1531 17.2982 17.2995 -8.95051
620 1 15.7271 15.7264 15.7275 -8.94875
621 1 17.2979 17.2975 17.2978 -8.94946
622 1 18.8702 15.7246 15.7249 -8.94974
623 1 20.4418 17.2968 17.297 -8.94967
624 1 22.0135 18.8696 15.7248 -8.94983
625 1 1.57176 20.442 17.2973 -8.94907
626 1 3.14247 18.8709 15.7263 -8.94775
627 1 4.7162 20.4425 17.2979 -8.94882
628 1 6.28664 18.8727 15.728 -8.94665
629 1 7.86164 20.4425 17.2979 -8.94928
630 1 9.43392 18.8722 15.7275 -8.94823
631 1 11.0071 20.4424 17.2979 -8.94947
632 1 12.5807 18.8719 15.7271 -8.94793
633 1 14.1524 20.4423 17.2978 -8.94923
634 1 15.7271 18.8721 15.7272 -8.94696
635 1 17.2977 20.4423 17.2976 -8.94881
636 1 18.8702 18.8699 15.7251 -8.94957
637 1 20.4417 20.4418 17.297 -8.94951
669 1 15.7249 15.7246 18.8698 -8.95023
639 1 4.71663 11.0068 20.4415 -8.94957
668 1 14.1521 17.2972 20.4418 -8.94988
667 1 12.5796 15.7247 18.8706 -8.95067
666 1 11.007 17.2974 20.4419 -8.94981
643 1 17.2975 11.007 20.4413 -8.94948
665 1 9.4344 15.7248 18.871 -8.95098
645 1 22.0139 12.5794 18.8693 -8.94956
646 1 1.57218 14.1518 20.4415 -8.94953
647 1 3.14425 12.5794 18.8695 -8.94953
648 1 4.71668 14.1518 20.4414 -8.94949
649 1 6.28883 12.5793 18.87 -8.94942
650 1 7.86187 14.1517 20.4413 -8.95075
651 1 9.43447 12.5792 18.8695 -8.94815
652 1 11.0068 14.152 20.4414 -8.94964
653 1 12.5795 12.5794 18.8695 -8.9489
654 1 14.1522 14.1521 20.4409 -8.95055
655 1 15.7254 12.5798 18.87 -8.94932
656 1 17.2974 14.1521 20.4413 -8.94939
657 1 18.8697 12.5796 18.8694 -8.9495
658 1 20.4418 14.1519 20.4414 -8.94955
659 1 22.0139 15.7243 18.8692 -8.9495
660 1 1.57221 17.2967 20.4414 -8.94962
661 1 3.14436 15.7243 18.8695 -8.9495
662 1 4.71668 17.2971 20.4414 -8.95021
663 1 6.28907 15.7244 18.8703 -8.95091
664 1 7.86182 17.2972 20.4419 -8.94993
381 1 3.1442 18.8697 22.0132 -8.94946
201 1 6.28869 22.0149 12.5799 -8.95055
355 1 6.289 12.5792 22.0129 -8.94966
357 1 9.43454 12.5792 22.0129 -8.94919
359 1 12.5794 12.5795 22.0117 -8.95099
365 1 22.0139 15.7243 22.0136 -8.94953
367 1 3.14433 15.7243 22.0133 -8.94958
369 1 6.289 15.7247 22.0122 -8.95117
371 1 9.43445 15.7249 22.0129 -8.94977
373 1 12.5793 15.7249 22.013 -8.94958
375 1 15.7252 15.7252 22.0121 -8.95039
246 1 -0.000162056 22.014 15.7244 -8.94958
379 1 22.0139 18.8693 22.0136 -8.9496
363 1 18.8698 12.5795 22.0133 -8.94948
