ITEM: TIMESTEP
59
ITEM: NUMBER OF ATOMS
688
ITEM: BOX BOUNDS pp pp pp
0.0000000000000000e+00 2.2013900999999997e+01
0.0000000000000000e+00 2.2013900999999997e+01
0.0000000000000000e+00 2.2013900999999997e+01
ITEM: ATOMS id type x y z c_pot
7 1 9.43451 8.45474e-05 -9.27455e-05 -8.94961
2 1 1.57219 1.57236 1.5722 -8.94933
448 1 20.4434 11.0068 7.86217 -8.95103
4 1 4.71716 1.57231 1.57219 -8.94972
447 1 17.3057 11.0056 7.86041 -8.95907
6 1 7.86205 1.57229 1.57215 -8.94952
175 1 18.8712 9.43363 9.4349 -8.94814
8 1 11.007 1.57226 1.57213 -8.94958
174 1 15.7273 9.43209 9.435 -8.9417
10 1 14.1519 1.57226 1.57218 -8.94952
446 1 14.191 10.9759 7.81892 -8.88694
12 1 17.2968 1.57221 1.57221 -8.94959
445 1 11.0849 11.0125 7.64767 -8.08822
14 1 20.4415 1.57237 1.57232 -8.94957
444 1 7.86242 10.983 7.84587 -8.86303
16 1 1.57223 4.71706 1.57211 -8.94956
443 1 4.71661 11.007 7.86183 -8.94899
18 1 4.71664 4.71661 1.57151 -8.94957
442 1 1.57188 11.0069 7.86199 -8.94902
20 1 7.8619 4.71664 1.57169 -8.94924
149 1 3.14425 0.000273688 9.43453 -8.9495
22 1 11.0069 4.7165 1.57166 -8.94955
154 1 18.8694 0.000156769 9.43451 -8.94958
24 1 14.152 4.71646 1.57168 -8.94962
188 1 17.2979 4.71588 11.0068 -8.94883
26 1 17.2975 4.71633 1.57163 -8.94862
183 1 1.57153 4.71662 11.0071 -8.94942
28 1 20.4418 4.71693 1.57209 -8.94929
397 1 14.1621 11.0049 4.70138 -8.95175
30 1 1.57221 7.86198 1.5721 -8.94946
396 1 11.0114 11.0077 4.72006 -8.9983
32 1 4.71669 7.86187 1.57152 -8.94971
395 1 7.86245 11.0054 4.71347 -8.95183
34 1 7.86177 7.86167 1.57076 -8.95144
35 1 9.43425 6.28905 -0.000462146 -8.94948
36 1 11.0066 7.86089 1.57009 -8.94987
37 1 12.5794 6.28903 -0.000508008 -8.94954
38 1 14.1529 7.86065 1.56938 -8.95123
181 1 17.2971 1.57219 11.0069 -8.94954
40 1 17.2979 7.86122 1.57086 -8.94947
346 1 7.86178 11.0068 1.57094 -8.94977
42 1 20.4418 7.86191 1.57202 -8.94951
164 1 6.28211 6.28171 9.43376 -8.9421
44 1 3.14451 9.43442 -0.000298245 -8.94947
350 1 20.4419 11.0069 1.57197 -8.94954
348 1 14.1534 11.0068 1.56791 -8.95109
347 1 11.0068 11.0067 1.57079 -8.94603
48 1 15.725 9.43418 -0.00123103 -8.94983
163 1 3.1419 6.28808 9.43432 -8.94919
344 1 1.57213 11.0069 1.57198 -8.94956
51 1 1.57216 1.57232 4.71712 -8.94958
52 1 3.14435 0.000340209 3.14434 -8.94943
53 1 4.71661 1.57203 4.71658 -8.94998
54 1 6.28964 0.000209917 3.14446 -8.94969
55 1 7.8621 1.57202 4.71672 -8.94961
173 1 12.5724 9.44756 9.42988 -8.90338
57 1 11.0071 1.57194 4.71664 -8.94968
172 1 9.38249 9.28001 9.44355 -8.25095
59 1 14.1521 1.57181 4.71687 -8.95019
60 1 15.7244 8.80839e-05 3.14457 -8.94991
61 1 17.2969 1.57233 4.7171 -8.94991
62 1 18.8693 0.000216489 3.14465 -8.94959
63 1 20.4415 1.57237 4.71721 -8.94957
64 1 22.0137 3.14466 3.14468 -8.94965
65 1 1.57163 4.71674 4.71678 -8.94972
66 1 3.14409 3.1442 3.14409 -8.94878
67 1 4.71463 4.71455 4.71462 -8.94672
68 1 6.28943 3.14418 3.14417 -8.94978
69 1 7.86162 4.71509 4.71571 -8.9498
70 1 9.43445 3.14407 3.14412 -8.9494
71 1 11.0071 4.71479 4.71546 -8.94848
72 1 12.5795 3.14399 3.14416 -8.94929
73 1 14.1535 4.71369 4.71537 -8.95025
74 1 15.7248 3.14375 3.14416 -8.94957
75 1 17.2977 4.71589 4.71666 -8.95036
76 1 18.8694 3.14448 3.1446 -8.94976
77 1 20.4416 4.71693 4.71713 -8.94981
78 1 22.014 6.28937 3.14447 -8.94974
79 1 1.57178 7.86183 4.71674 -8.95012
80 1 3.14391 6.28908 3.1439 -8.94941
81 1 4.71427 7.8603 4.71467 -8.9486
82 1 6.2879 6.2878 3.14185 -8.94991
83 1 7.85793 7.85694 4.70996 -8.95124
84 1 9.43403 6.2879 3.14271 -8.94788
85 1 11.0073 7.85743 4.71031 -8.94705
86 1 12.5798 6.28757 3.14231 -8.94887
87 1 14.1623 7.8509 4.70582 -8.93266
88 1 15.7273 6.2862 3.14152 -8.9455
89 1 17.3025 7.85766 4.71297 -8.94609
90 1 18.8707 6.28838 3.14359 -8.94846
91 1 20.4428 7.86139 4.71656 -8.95029
92 1 9.55623e-05 9.43433 3.14433 -8.94943
93 1 3.14392 9.43418 3.14389 -8.94886
94 1 6.28864 9.43404 3.14254 -8.95008
95 1 9.43521 9.43401 3.14244 -8.9518
96 1 12.5809 9.4328 3.13682 -8.95804
97 1 15.7279 9.43224 3.13953 -8.94919
98 1 18.8706 9.43399 3.14358 -8.94911
99 1 22.0138 8.40932e-05 6.28964 -8.94959
100 1 1.57211 1.5723 7.86205 -8.94958
166 1 12.5775 6.29107 9.43475 -8.94406
102 1 4.71644 1.57196 7.86179 -8.94934
103 1 6.2891 0.000984797 6.289 -8.95098
104 1 7.86183 1.57153 7.86172 -8.95131
105 1 9.43484 0.000440645 6.28915 -8.94983
106 1 11.0072 1.57189 7.8618 -8.94909
107 1 12.5795 0.000208488 6.28934 -8.94988
108 1 14.1521 1.57221 7.86197 -8.94988
109 1 15.7246 0.000607076 6.28941 -8.95019
110 1 17.2971 1.57222 7.86196 -8.94949
165 1 9.43265 6.28375 9.43526 -8.98552
112 1 20.4416 1.57234 7.86207 -8.9496
113 1 -0.000160111 3.14461 6.28958 -8.94952
114 1 1.57155 4.71664 7.86188 -8.94938
115 1 3.14403 3.14417 6.28929 -8.94931
116 1 4.7148 4.71483 7.86107 -8.94797
117 1 6.28846 3.14245 6.28841 -8.95098
118 1 7.85991 4.71053 7.86069 -8.95615
119 1 9.43481 3.14298 6.28889 -8.95012
120 1 11.0073 4.71537 7.86156 -8.9482
121 1 12.5797 3.14292 6.28916 -8.95148
122 1 14.1522 4.71541 7.86251 -8.95118
123 1 15.7246 3.14397 6.28961 -8.95028
124 1 17.2977 4.71597 7.86183 -8.94856
125 1 18.8694 3.14448 6.28958 -8.94937
126 1 20.4417 4.7168 7.862 -8.94951
127 1 22.0136 6.28931 6.2895 -8.94988
128 1 1.57087 7.86174 7.86195 -8.95071
129 1 3.14224 6.28839 6.28851 -8.95052
130 1 4.71062 7.85948 7.86055 -8.95479
131 1 6.28133 6.28065 6.28165 -8.93943
132 1 7.8367 7.83406 7.84203 -8.90515
133 1 9.43492 6.28359 6.28716 -8.95212
134 1 11.0175 7.8608 7.84867 -8.91985
135 1 12.5829 6.28114 6.28524 -8.95495
136 1 14.1565 7.85539 7.86212 -8.96041
137 1 15.7268 6.28596 6.28855 -8.95273
138 1 17.2994 7.86028 7.86246 -8.94916
139 1 18.87 6.28886 6.2896 -8.94979
140 1 20.4422 7.86158 7.86216 -8.94961
141 1 22.0142 9.43433 6.28939 -8.9505
142 1 3.14277 9.43448 6.28896 -8.95131
143 1 6.28217 9.4297 6.28339 -8.94449
144 1 9.42613 9.41485 6.28108 -8.90383
145 1 12.6141 9.40287 6.25444 -8.86247
146 1 15.7425 9.42223 6.27649 -8.94011
147 1 18.8735 9.43314 6.28841 -8.95282
171 1 6.28301 9.42934 9.43504 -8.96167
170 1 3.14249 9.43453 9.43457 -8.95057
169 1 22.0138 9.43438 9.43465 -8.94976
151 1 9.43476 0.000788069 9.43427 -8.94949
152 1 12.5797 0.000532574 9.43426 -8.94909
168 1 18.8704 6.28854 9.43441 -8.94936
167 1 15.7273 6.28598 9.43365 -8.94459
155 1 22.0137 3.14458 9.43451 -8.94957
156 1 3.14395 3.14412 9.43447 -8.94952
157 1 6.28792 3.14204 9.43421 -8.94929
158 1 9.43453 3.14254 9.43417 -8.94937
159 1 12.5797 3.14407 9.43417 -8.94772
160 1 15.7251 3.14361 9.4342 -8.94956
161 1 18.8695 3.1444 9.43446 -8.94956
162 1 -0.000396893 6.28916 9.4345 -8.9498
177 1 4.71641 1.5719 11.0071 -8.94938
184 1 4.71461 4.71469 11.0075 -8.94826
41 1 18.8694 6.28941 -0.000342781 -8.94957
19 1 6.28959 3.14463 -0.000139458 -8.94953
25 1 15.7243 3.14458 -0.000124035 -8.94966
176 1 1.57211 1.5723 11.007 -8.94958
199 1 3.1443 0.000224675 12.5795 -8.9494
178 1 7.86165 1.57125 11.0069 -8.95132
179 1 11.0072 1.57163 11.0067 -8.94949
180 1 14.1523 1.57198 11.0066 -8.94983
644 1 20.4416 11.0069 20.4415 -8.94961
182 1 20.4416 1.57234 11.007 -8.94961
642 1 14.1523 11.0071 20.4413 -8.95034
209 1 18.8693 0.000135307 12.5794 -8.94952
185 1 7.85906 4.70903 11.0076 -8.95539
186 1 11.0074 4.71282 11.0071 -8.94867
187 1 14.1531 4.71424 11.0055 -8.94996
641 1 11.0068 11.0071 20.4415 -8.94863
189 1 20.4417 4.71678 11.007 -8.94954
190 1 1.57063 7.86167 11.0071 -8.95095
191 1 4.70926 7.8589 11.008 -8.95417
192 1 7.83247 7.8302 11.0272 -8.89139
193 1 11.0187 7.8525 11.0322 -8.9644
194 1 14.1588 7.85352 11.003 -8.95067
195 1 17.3002 7.85997 11.0063 -8.94816
196 1 20.4423 7.86152 11.007 -8.94977
197 1 22.0138 8.52828e-05 12.5794 -8.94959
198 1 1.57214 1.5723 14.1519 -8.94957
343 1 18.8695 9.43453 18.8693 -8.94946
200 1 4.71651 1.57187 14.1524 -8.9498
342 1 15.725 9.43458 18.8702 -8.94957
202 1 7.86171 1.5717 14.1525 -8.95042
203 1 9.43457 0.00116732 12.5798 -8.95132
204 1 11.0071 1.57158 14.1527 -8.94998
205 1 12.5798 0.000891473 12.5796 -8.95131
206 1 14.1525 1.57144 14.1524 -8.95098
341 1 12.5795 9.43446 18.8718 -8.9531
208 1 17.297 1.57221 14.1518 -8.94969
340 1 9.43437 9.43458 18.871 -8.95153
210 1 20.4416 1.57235 14.1518 -8.94956
211 1 -0.000156388 3.14459 12.5795 -8.94953
212 1 1.57153 4.71669 14.1523 -8.94964
213 1 3.14397 3.14412 12.5797 -8.94936
214 1 4.71412 4.71424 14.1544 -8.94657
215 1 6.28813 3.14197 12.5804 -8.95056
216 1 7.8599 4.71183 14.1548 -8.95128
217 1 9.43455 3.1412 12.5801 -8.95215
218 1 11.0072 4.71176 14.1551 -8.94762
219 1 12.58 3.14105 12.5798 -8.95365
220 1 14.1554 4.71031 14.1552 -8.95147
221 1 15.725 3.14363 12.5792 -8.94969
222 1 17.2981 4.71584 14.1522 -8.95025
223 1 18.8694 3.14445 12.5794 -8.94941
224 1 20.4417 4.7169 14.1519 -8.94969
225 1 22.0136 6.28926 12.5796 -8.9499
226 1 1.57143 7.86198 14.1523 -8.95069
227 1 3.14175 6.28824 12.5804 -8.95025
228 1 4.71191 7.86006 14.1548 -8.95143
229 1 6.27957 6.27939 12.5872 -8.93757
230 1 7.84472 7.84437 14.1716 -8.92633
231 1 9.43212 6.2741 12.5849 -8.95968
232 1 11.0073 7.84934 14.1661 -8.94407
233 1 12.5863 6.27122 12.5869 -8.96115
234 1 14.1759 7.83842 14.1755 -8.9023
235 1 15.7282 6.28565 12.5795 -8.95097
236 1 17.3038 7.85868 14.1554 -8.95131
237 1 18.8705 6.28883 12.5794 -8.94943
238 1 20.4428 7.86171 14.1523 -8.95095
239 1 22.014 9.43457 12.5796 -8.95064
240 1 3.14207 9.43504 12.5797 -8.95308
241 1 6.27634 9.43059 12.5848 -8.9594
242 1 9.3812 9.37515 12.6257 -8.79006
243 1 12.6539 9.36282 12.6485 -8.72016
244 1 15.7429 9.42732 12.5868 -8.96207
245 1 18.8728 9.43425 12.5798 -8.95428
47 1 12.5794 9.43429 22.0125 -8.9514
247 1 1.57219 1.57232 17.2968 -8.94943
46 1 9.43436 9.43441 22.0133 -8.9498
249 1 4.71687 1.57221 17.2971 -8.94958
250 1 6.28912 0.000555747 15.725 -8.9498
251 1 7.86193 1.5722 17.2972 -8.9494
339 1 6.28917 9.43468 18.8699 -8.94949
253 1 11.007 1.57215 17.2972 -8.9495
338 1 3.14449 9.4345 18.8693 -8.94944
255 1 14.152 1.57214 17.2972 -8.94941
256 1 15.7249 0.000387133 15.7249 -8.94998
257 1 17.2971 1.57208 17.2971 -8.94943
45 1 6.2893 9.43444 22.0134 -8.94974
259 1 20.4416 1.57235 17.2967 -8.94968
260 1 22.0138 3.14464 15.7244 -8.9496
261 1 1.57206 4.71698 17.297 -8.94965
262 1 3.14398 3.14411 15.725 -8.94884
263 1 4.71577 4.71589 17.2984 -8.94797
264 1 6.28876 3.14335 15.7254 -8.94992
265 1 7.86153 4.716 17.2982 -8.94902
266 1 9.43424 3.14329 15.7255 -8.94912
267 1 11.0069 4.71579 17.2983 -8.94919
268 1 12.5797 3.14315 15.7255 -8.94907
269 1 14.1525 4.71575 17.2983 -8.94935
270 1 15.7256 3.14284 15.7255 -8.94966
271 1 17.2984 4.71555 17.2984 -8.94681
272 1 18.8695 3.14444 15.7244 -8.94984
273 1 20.442 4.71688 17.297 -8.94949
274 1 22.014 6.28942 15.7246 -8.95007
275 1 1.57217 7.8621 17.2969 -8.94952
276 1 3.14317 6.28889 15.7254 -8.94994
277 1 4.71639 7.86211 17.2977 -8.95001
278 1 6.28423 6.28451 15.7307 -8.94349
279 1 7.86038 7.86061 17.3014 -8.9532
280 1 9.43318 6.28537 15.729 -8.94638
281 1 11.0067 7.85982 17.3015 -8.94929
282 1 12.5809 6.28487 15.7295 -8.94745
283 1 14.1544 7.85965 17.3027 -8.95294
284 1 15.7312 6.28287 15.7311 -8.93812
285 1 17.298 7.86175 17.298 -8.94998
286 1 18.8712 6.28845 15.7255 -8.94957
287 1 20.4418 7.86208 17.2969 -8.94959
288 1 2.27601e-05 9.43452 15.7246 -8.94951
289 1 3.14383 9.43466 15.725 -8.94903
290 1 6.2877 9.43503 15.7268 -8.95001
291 1 9.43275 9.43151 15.7339 -8.96036
292 1 12.5835 9.43042 15.739 -8.96506
293 1 15.7279 9.4344 15.7283 -8.94981
294 1 18.8704 9.43468 15.725 -8.94943
295 1 22.0139 6.52114e-05 18.8692 -8.94941
296 1 1.57233 1.57236 20.4415 -8.94941
297 1 3.14463 9.83166e-05 18.8693 -8.94943
298 1 4.71719 1.57236 20.4416 -8.94963
301 1 9.43449 0.000123675 18.8694 -8.94958
300 1 7.86206 1.57234 20.4416 -8.94959
337 1 22.0139 9.4345 18.8692 -8.94958
302 1 11.007 1.57233 20.4416 -8.94961
336 1 20.4416 7.86206 20.4415 -8.94958
304 1 14.1518 1.57234 20.4416 -8.94959
39 1 15.7248 6.28897 22.0133 -8.95003
306 1 17.2967 1.57234 20.4416 -8.94967
307 1 18.8693 5.92434e-05 18.8693 -8.94933
308 1 20.4416 1.57237 20.4415 -8.94935
309 1 22.0139 3.14472 18.8692 -8.94953
310 1 1.57234 4.71722 20.4415 -8.94969
311 1 3.14447 3.14452 18.8695 -8.94918
312 1 4.71692 4.71694 20.4417 -8.9498
313 1 6.28949 3.14451 18.8695 -8.94955
314 1 7.86192 4.71684 20.4417 -8.94944
315 1 9.43443 3.14441 18.8695 -8.9495
316 1 11.0069 4.71678 20.4417 -8.94955
317 1 12.5794 3.14441 18.8695 -8.94949
318 1 14.1519 4.71682 20.4417 -8.94951
319 1 15.7244 3.14444 18.8695 -8.94965
320 1 17.2971 4.7168 20.4417 -8.94953
321 1 18.8695 3.14448 18.8694 -8.94893
322 1 20.4416 4.71718 20.4415 -8.94965
323 1 22.0139 6.28966 18.8692 -8.94964
324 1 1.57231 7.86206 20.4415 -8.94955
325 1 3.14455 6.28962 18.8693 -8.9498
326 1 4.71697 7.86207 20.4415 -8.94965
327 1 6.28888 6.28898 18.8706 -8.9504
328 1 7.86181 7.86189 20.442 -8.95063
329 1 9.43416 6.28875 18.8706 -8.94926
330 1 11.0068 7.86156 20.4421 -8.95024
331 1 12.5795 6.28873 18.8707 -8.94938
332 1 14.1522 7.86165 20.4421 -8.95099
333 1 15.7253 6.28861 18.8708 -8.95009
334 1 17.2971 7.86193 20.4415 -8.94963
335 1 18.8695 6.2895 18.8694 -8.94978
512 1 1.57194 11.0071 11.0071 -8.94829
513 1 4.71789 11.0081 11.0056 -8.94684
514 1 7.86834 10.9893 11.0181 -8.88058
515 1 11.0618 10.8092 11.3141 -7.29835
516 1 14.1612 10.9867 11.0275 -8.92331
517 1 17.2997 11.0071 11.0062 -8.95116
518 1 20.4424 11.007 11.007 -8.94932
540 1 1.5716 11.007 14.1525 -8.94941
541 1 4.71482 11.0074 14.1537 -8.94621
542 1 7.86072 11.0086 14.1555 -8.94799
543 1 11.0104 10.9964 14.15 -9.01934
544 1 14.159 11.0103 14.1606 -8.94819
545 1 17.2999 11.0081 14.1535 -8.94839
546 1 20.4423 11.0071 14.1523 -8.94964
591 1 7.86139 11.0075 17.2983 -8.94919
592 1 11.007 11.0073 17.298 -8.94664
593 1 14.1534 11.0079 17.2998 -8.94967
638 1 1.57228 11.0069 20.4415 -8.94961
640 1 7.86176 11.007 20.4416 -8.94964
3 1 3.14475 7.62802e-05 22.0138 -8.94968
5 1 6.28964 6.87923e-05 22.0138 -8.94956
11 1 15.7243 5.54117e-05 22.0138 -8.94957
13 1 18.8692 5.24078e-05 22.0138 -8.94957
15 1 22.0139 3.14477 22.0138 -8.94951
17 1 3.14463 3.14463 22.0137 -8.94954
303 1 12.5794 0.000120165 18.8694 -8.94958
33 1 6.28934 6.28934 22.0135 -8.95035
27 1 18.8693 3.1446 22.0138 -8.94935
29 1 22.0139 6.28962 22.0138 -8.94959
31 1 3.14462 6.28958 22.0137 -8.94966
1 1 22.0138 5.30877e-05 22.0138 -8.94935
21 1 9.43448 3.14455 22.0138 -8.94958
9 1 12.5794 8.08966e-05 22.0138 -8.9496
23 1 12.5794 3.14456 22.0138 -8.94957
43 1 22.0139 9.43448 22.0137 -8.9496
49 1 18.8695 9.43442 22.0135 -8.9495
687 3 10.9619 12.4779 10.1776 2.20975
345 1 4.71641 11.0066 1.57122 -8.94932
511 1 18.8698 18.8698 9.43459 -8.94955
510 1 15.726 18.8715 9.43434 -8.94848
509 1 12.5799 18.871 9.43416 -8.9482
349 1 17.2979 11.0068 1.57083 -8.94928
508 1 9.43437 18.8735 9.43406 -8.94867
351 1 22.0139 12.5794 -0.000162756 -8.94961
352 1 1.57214 14.1518 1.572 -8.94946
353 1 3.14447 12.5793 -0.00034818 -8.94955
354 1 4.71648 14.1516 1.57109 -8.94943
538 1 17.2974 20.4422 11.007 -8.9494
356 1 7.86168 14.1521 1.56866 -8.95428
153 1 15.7248 22.0144 9.43436 -8.94968
358 1 11.0066 14.1527 1.57032 -8.94814
150 1 6.28877 22.0147 9.43437 -8.94998
360 1 14.1531 14.1532 1.56796 -8.95282
361 1 15.7251 12.5796 -0.00136079 -8.9496
362 1 17.2979 14.1523 1.57084 -8.94911
111 1 18.8693 22.0141 6.2896 -8.94952
364 1 20.4419 14.1519 1.57199 -8.9495
537 1 14.1526 20.4433 11.0067 -8.95012
366 1 1.5721 17.2968 1.57199 -8.94978
148 1 -9.49159e-05 22.014 9.43453 -8.94961
368 1 4.71598 17.2979 1.57026 -8.94957
58 1 12.5795 22.0141 3.1444 -8.94949
370 1 7.86209 17.2975 1.57102 -8.94943
56 1 9.43456 22.0141 3.14436 -8.94954
372 1 11.0071 17.2978 1.57111 -8.94936
536 1 11.0073 20.4438 11.0069 -8.94937
374 1 14.1519 17.2975 1.57145 -8.94979
534 1 4.71599 20.443 11.0072 -8.94912
376 1 17.2979 17.2979 1.57081 -8.94846
493 1 6.29153 12.59 9.43104 -9.01934
378 1 20.4418 17.2969 1.57204 -8.94957
492 1 3.14348 12.579 9.43445 -8.94664
380 1 1.57206 20.4418 1.572 -8.94893
491 1 22.0139 12.5792 9.43471 -8.94863
382 1 4.71707 20.4419 1.57201 -8.94984
490 1 20.4416 20.4418 7.86208 -8.94957
384 1 7.86208 20.4419 1.57203 -8.94941
385 1 9.4345 18.8695 -0.000258996 -8.94954
386 1 11.007 20.4419 1.57199 -8.94956
387 1 12.5795 18.8695 -0.000218868 -8.94951
388 1 14.1519 20.4418 1.5721 -8.94937
489 1 18.8698 18.8699 6.28944 -8.94962
390 1 17.2969 20.4418 1.57211 -8.94976
488 1 17.2973 20.4423 7.86196 -8.94929
392 1 20.4416 20.4417 1.57218 -8.94935
507 1 6.28636 18.8746 9.43431 -8.94762
506 1 3.14317 18.8705 9.43462 -8.94919
505 1 22.0136 18.8695 9.43458 -8.94955
504 1 18.8714 15.7254 9.4349 -8.94987
503 1 15.7312 15.7289 9.43423 -8.94705
502 1 12.5928 15.7255 9.42402 -8.91985
501 1 9.40928 15.7338 9.42276 -8.9644
400 1 4.54436e-05 12.5794 3.14428 -8.94951
401 1 1.57132 14.1517 4.71645 -8.94957
402 1 3.14371 12.5791 3.14364 -8.94908
403 1 4.71322 14.1519 4.71356 -8.94981
404 1 6.288 12.5782 3.14159 -8.94839
405 1 7.85466 14.159 4.69858 -8.96207
406 1 9.43523 12.5792 3.14181 -8.95116
407 1 11.0065 14.1542 4.71423 -8.9417
408 1 12.5811 12.5807 3.13582 -8.95907
409 1 14.165 14.1641 4.699 -8.94011
410 1 15.7281 12.5803 3.13951 -8.94749
411 1 17.302 14.1541 4.7136 -8.94919
412 1 18.8706 12.5796 3.14355 -8.94928
413 1 20.4427 14.1521 4.71647 -8.94983
414 1 22.0139 15.7244 3.14437 -8.94963
415 1 1.57065 17.2977 4.71616 -8.95009
416 1 3.14347 15.7246 3.14349 -8.94998
417 1 4.71037 17.3035 4.71025 -8.93812
418 1 6.28613 15.7276 3.13772 -8.95131
419 1 7.86196 17.3007 4.71328 -8.95097
420 1 9.43514 15.7264 3.14131 -8.94816
421 1 11.0078 17.3003 4.71419 -8.94459
422 1 12.579 15.726 3.14209 -8.94916
423 1 14.1529 17.3004 4.71471 -8.95273
424 1 15.7285 15.7287 3.13896 -8.94609
425 1 17.3 17.3001 4.71421 -8.9455
426 1 18.8706 15.7251 3.14361 -8.94947
427 1 20.4421 17.2974 4.71667 -8.95003
428 1 22.0136 18.8695 3.14439 -8.94953
429 1 1.57199 20.4419 4.71703 -8.94965
430 1 3.14311 18.8708 3.14305 -8.94681
431 1 4.71597 20.4435 4.71591 -8.94966
432 1 6.28928 18.8705 3.14338 -8.95025
433 1 7.86232 20.4427 4.71649 -8.94969
434 1 9.43471 18.8704 3.14357 -8.94883
435 1 11.0073 20.4427 4.71634 -8.94956
436 1 12.5796 18.8704 3.14376 -8.94856
437 1 14.1519 20.4423 4.71683 -8.95028
438 1 15.7248 18.8704 3.14383 -8.95036
439 1 17.2973 20.4426 4.71665 -8.94957
440 1 18.8698 18.87 3.14402 -8.94862
441 1 20.4416 20.4417 4.71715 -8.94966
500 1 6.27538 15.737 9.43419 -8.94407
499 1 3.13997 15.7265 9.43482 -8.94929
498 1 -0.000582857 15.7248 9.43473 -8.95024
497 1 18.8707 12.5797 9.43469 -8.94603
496 1 15.7214 12.5787 9.43008 -8.9983
495 1 12.7938 12.5738 9.35657 -8.08822
494 1 9.12735 12.7772 9.37967 -7.29835
449 1 22.0141 12.5792 6.28917 -8.95034
450 1 1.5697 14.1519 7.86197 -8.9531
451 1 3.14171 12.5784 6.28804 -8.94967
452 1 4.70246 14.1559 7.85801 -8.96506
453 1 6.28087 12.576 6.28249 -8.94819
454 1 7.79296 14.2235 7.78758 -8.72016
455 1 9.41393 12.5996 6.28033 -8.92331
456 1 11.0116 14.1388 7.86908 -8.90338
457 1 12.6226 12.6104 6.25049 -8.88694
458 1 14.187 14.1835 7.82743 -8.86247
459 1 15.7401 12.5814 6.27933 -8.95175
460 1 17.3047 14.1535 7.86057 -8.95804
461 1 18.8736 12.5795 6.2881 -8.95109
462 1 20.4429 14.152 7.86212 -8.9514
463 1 22.0133 15.7247 6.28929 -8.95099
464 1 1.57081 17.2976 7.86196 -8.94938
465 1 3.13876 15.7267 6.28705 -8.95294
466 1 4.71193 17.3015 7.86063 -8.94745
467 1 6.26594 15.7479 6.26563 -8.9023
468 1 7.85461 17.3151 7.85519 -8.96115
469 1 9.43848 15.7328 6.28268 -8.95067
470 1 11.0067 17.2953 7.86402 -8.94406
471 1 12.5794 15.7309 6.28498 -8.96041
472 1 14.1562 17.3052 7.85857 -8.95495
473 1 15.7357 15.7354 6.27922 -8.93266
474 1 17.2992 17.2988 7.86163 -8.94887
475 1 18.8721 15.7257 6.28861 -8.95123
476 1 20.442 17.2973 7.86208 -8.94954
477 1 -0.00026355 18.8695 6.28956 -8.94951
478 1 1.57195 20.4419 7.86205 -8.94949
479 1 3.14318 18.8706 6.28901 -8.94935
480 1 4.71601 20.4432 7.86175 -8.94907
481 1 6.28628 18.876 6.28606 -8.95147
482 1 7.86164 20.4453 7.86144 -8.95365
483 1 9.43593 18.8721 6.28835 -8.94996
484 1 11.0073 20.4423 7.86181 -8.94772
485 1 12.579 18.8709 6.28925 -8.95118
486 1 14.1523 20.4434 7.86176 -8.95148
487 1 15.7261 18.8726 6.28803 -8.95025
530 1 14.1543 17.3027 11.0066 -8.95212
531 1 17.2988 17.2984 11.0074 -8.94788
399 1 20.4428 11.0067 4.71638 -8.9496
398 1 17.302 11.0061 4.7134 -8.94749
394 1 4.71459 11.0057 4.71443 -8.94541
393 1 1.57154 11.0066 4.71635 -8.94931
50 1 -8.00721e-05 22.014 3.14475 -8.94967
688 3 10.2638 11.1084 9.47959 2.20975
101 1 3.14432 22.0142 6.28948 -8.94941
526 1 1.57092 17.2976 11.0073 -8.94926
527 1 4.71253 17.301 11.0083 -8.94638
532 1 20.4419 17.2973 11.0072 -8.94948
383 1 6.28956 18.8694 -0.000245954 -8.94969
377 1 18.8695 15.7244 -0.000366622 -8.94951
686 1 20.4416 20.4416 20.4415 -8.94951
685 1 18.8694 18.8693 18.8693 -8.94956
684 1 17.2968 20.4417 20.4416 -8.94965
683 1 15.7247 18.8696 18.8699 -8.94972
682 1 14.1519 20.4417 20.4416 -8.94952
681 1 12.5796 18.8697 18.8699 -8.94938
680 1 11.007 20.4417 20.4416 -8.94957
519 1 1.57047 14.1517 11.0071 -8.95153
520 1 4.70759 14.1548 11.0087 -8.96036
521 1 7.81581 14.2112 11.0603 -8.79006
522 1 10.9979 14.3063 11.059 -8.25095
523 1 14.1604 14.1715 11.0154 -8.90383
524 1 17.299 14.1523 11.0063 -8.9518
525 1 20.4421 14.1519 11.0071 -8.9498
305 1 15.7244 22.014 18.8693 -8.94958
299 1 6.28956 22.014 18.8693 -8.94957
528 1 7.85657 17.3122 11.0094 -8.95968
529 1 11.0062 17.3026 11.0088 -8.98552
391 1 18.8694 18.8694 22.0136 -8.94929
389 1 15.7244 18.8694 22.0138 -8.94981
258 1 18.8693 22.014 15.7243 -8.94972
533 1 1.57194 20.4419 11.007 -8.9495
254 1 12.5797 22.0144 15.725 -8.94934
535 1 7.86136 20.4451 11.0069 -8.95215
252 1 9.43437 22.0144 15.7251 -8.94938
248 1 3.14436 22.0141 15.7246 -8.94958
207 1 15.7248 22.0143 12.5794 -8.94961
539 1 20.4416 20.4418 11.007 -8.94958
679 1 9.4344 18.8697 18.87 -8.94942
678 1 7.86203 20.4417 20.4416 -8.94953
677 1 6.28921 18.8696 18.87 -8.94964
676 1 4.7171 20.4417 20.4416 -8.9496
675 1 3.14445 18.8693 18.8694 -8.94965
674 1 1.57228 20.4416 20.4415 -8.94953
673 1 22.0139 18.8691 18.8691 -8.94969
547 1 22.0138 12.5793 12.5797 -8.94964
548 1 1.57162 14.1516 14.1523 -8.94949
549 1 3.14313 12.5788 12.5801 -8.94919
550 1 4.71468 14.1513 14.1538 -8.95001
551 1 6.28603 12.5777 12.5808 -8.94799
552 1 7.85665 14.1557 14.1651 -8.9594
553 1 9.42335 12.597 12.5731 -8.88058
554 1 11.0064 14.157 14.1585 -8.96167
555 1 12.5956 12.6033 12.5791 -8.86303
556 1 14.1581 14.1566 14.1593 -8.94449
557 1 15.728 12.5809 12.579 -8.95183
558 1 17.2989 14.1523 14.1528 -8.95008
559 1 18.8705 12.5795 12.5797 -8.94977
560 1 20.442 14.1519 14.1522 -8.94974
561 1 22.0134 15.7244 12.5797 -8.95063
562 1 1.57091 17.2973 14.1526 -8.9504
563 1 3.14012 15.7257 12.5811 -8.9532
564 1 4.71083 17.3018 14.1573 -8.94349
565 1 6.26984 15.742 12.5968 -8.92633
566 1 7.85423 17.3069 14.1619 -8.93757
567 1 9.41432 15.7561 12.609 -8.89139
568 1 11.0077 17.3046 14.1594 -8.9421
569 1 12.5995 15.7523 12.6048 -8.90515
570 1 14.1598 17.3057 14.1602 -8.93943
571 1 15.7315 15.7294 12.5836 -8.95124
572 1 17.2996 17.2985 14.1536 -8.94991
573 1 18.8707 15.7246 12.5797 -8.95144
574 1 20.4419 17.297 14.1521 -8.95035
575 1 -0.000240047 18.8695 12.5796 -8.94944
576 1 1.57201 20.4418 14.152 -8.94955
577 1 3.14329 18.8703 12.5799 -8.94902
578 1 4.71603 20.443 14.1527 -8.94992
579 1 6.28672 18.8745 12.5816 -8.95128
580 1 7.86108 20.4443 14.1533 -8.95056
581 1 9.4339 18.8773 12.5824 -8.95539
582 1 11.0073 20.4443 14.1536 -8.94929
583 1 12.5808 18.8758 12.5816 -8.95615
584 1 14.1531 20.4439 14.153 -8.95098
585 1 15.7258 18.8712 12.5799 -8.9498
586 1 17.2973 20.4421 14.1521 -8.94978
587 1 18.8698 18.8697 12.5796 -8.94924
588 1 20.4416 20.4417 14.1519 -8.94953
589 1 1.5721 11.0069 17.297 -8.94957
590 1 4.71629 11.007 17.2977 -8.9491
672 1 20.4416 17.2967 20.4415 -8.94959
671 1 18.8694 15.7243 18.8693 -8.94946
670 1 17.297 17.2969 20.4413 -8.94974
594 1 17.2978 11.0072 17.2978 -8.94908
595 1 20.4418 11.007 17.297 -8.94955
596 1 -2.56948e-05 12.5794 15.7247 -8.9496
597 1 1.57213 14.1518 17.297 -8.94944
598 1 3.14374 12.5793 15.7252 -8.9491
599 1 4.7165 14.1517 17.2977 -8.94903
600 1 6.28781 12.5789 15.7267 -8.94621
601 1 7.86179 14.1513 17.2994 -8.95308
602 1 9.43584 12.5782 15.7236 -8.94684
603 1 11.0069 14.1518 17.299 -8.95057
604 1 12.5796 12.5793 15.7249 -8.94899
605 1 14.1525 14.1518 17.2987 -8.95131
606 1 15.727 12.5806 15.7269 -8.94541
607 1 17.2976 14.1521 17.2976 -8.94886
608 1 18.8703 12.5797 15.7251 -8.94932
609 1 20.4418 14.1519 17.297 -8.94947
610 1 22.0138 15.7243 15.7245 -8.94965
611 1 1.57214 17.2967 17.2969 -8.9498
612 1 3.14378 15.7242 15.7251 -8.95001
613 1 4.71608 17.2974 17.2983 -8.94994
614 1 6.28666 15.7263 15.7296 -8.95143
615 1 7.86104 17.2981 17.2997 -8.95025
616 1 9.43348 15.7274 15.7322 -8.95417
617 1 11.0072 17.2982 17.2996 -8.94919
618 1 12.5809 15.7268 15.7309 -8.95479
619 1 14.153 17.2979 17.2992 -8.95052
620 1 15.7268 15.726 15.7272 -8.9486
621 1 17.2976 17.2972 17.2976 -8.94941
622 1 18.87 15.7245 15.7248 -8.94971
623 1 20.4417 17.2967 17.2969 -8.94966
624 1 22.0137 18.8694 15.7246 -8.9498
625 1 1.57202 20.4418 17.297 -8.94918
626 1 3.14308 18.8704 15.7257 -8.94797
627 1 4.71652 20.4422 17.2975 -8.94884
628 1 6.28707 18.8721 15.7274 -8.94657
629 1 7.86179 20.4422 17.2975 -8.94936
630 1 9.43396 18.8716 15.7269 -8.94826
631 1 11.007 20.4422 17.2975 -8.94952
632 1 12.5804 18.8715 15.7267 -8.94797
633 1 14.1522 20.4422 17.2974 -8.94931
634 1 15.7269 18.8718 15.7268 -8.94672
635 1 17.2974 20.4421 17.2974 -8.94878
636 1 18.87 18.8697 15.7248 -8.94957
637 1 20.4416 20.4417 17.2968 -8.94954
669 1 15.7247 15.7245 18.8697 -8.95012
639 1 4.71683 11.0069 20.4415 -8.9496
668 1 14.152 17.297 20.4418 -8.94988
667 1 12.5795 15.7246 18.8706 -8.95071
666 1 11.007 17.2972 20.4419 -8.9498
643 1 17.2972 11.007 20.4414 -8.94951
665 1 9.43438 15.7246 18.8708 -8.95095
645 1 22.0139 12.5794 18.8692 -8.94961
646 1 1.57228 14.1518 20.4415 -8.94958
647 1 3.14445 12.5794 18.8694 -8.94957
648 1 4.71687 14.1518 20.4415 -8.94951
649 1 6.28899 12.5793 18.8699 -8.94941
650 1 7.86189 14.1518 20.4414 -8.95064
651 1 9.43441 12.5792 18.8695 -8.94829
652 1 11.0068 14.1519 20.4416 -8.94976
653 1 12.5795 12.5794 18.8696 -8.94902
654 1 14.1521 14.152 20.4411 -8.9505
655 1 15.7251 12.5797 18.8699 -8.94931
656 1 17.2971 14.152 20.4414 -8.94943
657 1 18.8695 12.5795 18.8694 -8.94956
658 1 20.4416 14.1518 20.4415 -8.9496
659 1 22.0139 15.7243 18.8692 -8.94955
660 1 1.57232 17.2967 20.4415 -8.94964
661 1 3.14455 15.7242 18.8693 -8.94952
662 1 4.7169 17.2969 20.4414 -8.95007
663 1 6.28922 15.7243 18.87 -8.95069
664 1 7.86189 17.2971 20.4418 -8.9499
381 1 3.14445 18.8694 22.0134 -8.94949
201 1 6.28896 22.0146 12.5798 -8.95042
355 1 6.28915 12.5792 22.0131 -8.94964
357 1 9.4345 12.5793 22.0129 -8.94932
359 1 12.5793 12.5795 22.012 -8.95103
365 1 22.0139 15.7243 22.0138 -8.94958
367 1 3.14453 15.7242 22.0136 -8.94959
369 1 6.28918 15.7246 22.0126 -8.95095
371 1 9.43446 15.7248 22.0131 -8.94977
373 1 12.5793 15.7247 22.0132 -8.94961
375 1 15.7249 15.7249 22.0126 -8.95029
246 1 -7.05004e-05 22.014 15.7243 -8.94963
379 1 22.0139 18.8691 22.0138 -8.94965
363 1 18.8695 12.5794 22.0135 -8.94954
