ITEM: TIMESTEP
34
ITEM: NUMBER OF ATOMS
688
ITEM: BOX BOUNDS pp pp pp
0.0000000000000000e+00 2.2013900999999997e+01
0.0000000000000000e+00 2.2013900999999997e+01
0.0000000000000000e+00 2.2013900999999997e+01
ITEM: ATOMS id type x y z c_pot
7 1 9.43453 1.46664e-10 2.5711e-11 -8.94963
2 1 1.57242 1.57242 1.57242 -8.94963
448 1 20.4415 11.007 7.86211 -8.94964
4 1 4.71726 1.57242 1.57242 -8.94963
447 1 17.2967 11.0069 7.86209 -8.94987
6 1 7.86211 1.57242 1.57242 -8.94963
175 1 18.8691 9.43453 9.43453 -8.94965
8 1 11.007 1.57242 1.57242 -8.94963
174 1 15.7242 9.43455 9.43454 -8.95126
10 1 14.1518 1.57242 1.57242 -8.94963
446 1 14.1537 11.0057 7.86077 -8.93418
12 1 17.2966 1.57242 1.57242 -8.94963
445 1 11.0423 11.005 7.78722 -7.91278
14 1 20.4415 1.57242 1.57242 -8.94963
444 1 7.85827 11.0058 7.85888 -8.89608
16 1 1.57242 4.71726 1.57242 -8.94963
443 1 4.71717 11.0069 7.86208 -8.95021
18 1 4.71726 4.71726 1.57242 -8.94963
442 1 1.57242 11.007 7.86211 -8.94965
20 1 7.86211 4.71726 1.57242 -8.94963
149 1 3.14484 1.04132e-09 9.43453 -8.94963
22 1 11.007 4.71726 1.57242 -8.94963
154 1 18.8691 1.31784e-09 9.43453 -8.94963
24 1 14.1518 4.71726 1.57242 -8.94963
188 1 17.2966 4.71726 11.007 -8.94963
26 1 17.2966 4.71726 1.57242 -8.94963
183 1 1.57242 4.71726 11.007 -8.94963
28 1 20.4415 4.71726 1.57242 -8.94963
397 1 14.1518 11.0069 4.71728 -8.95141
30 1 1.57242 7.86211 1.57242 -8.94963
396 1 11.007 11.0069 4.71563 -8.9641
32 1 4.71726 7.86211 1.57242 -8.94963
395 1 7.86212 11.0069 4.71723 -8.95087
34 1 7.86211 7.86211 1.57242 -8.94963
35 1 9.43453 6.28969 2.74928e-08 -8.94963
36 1 11.007 7.86211 1.57242 -8.94964
37 1 12.5794 6.28969 3.54507e-08 -8.94963
38 1 14.1518 7.86211 1.57242 -8.94963
181 1 17.2966 1.57242 11.007 -8.94963
40 1 17.2966 7.86211 1.57242 -8.94963
346 1 7.86211 11.007 1.57242 -8.94966
42 1 20.4415 7.86211 1.57242 -8.94963
164 1 6.28973 6.28973 9.43453 -8.95119
44 1 3.14484 9.43453 1.62541e-09 -8.94963
350 1 20.4415 11.007 1.57242 -8.94963
348 1 14.1518 11.007 1.57242 -8.94964
347 1 11.007 11.007 1.5724 -8.95006
48 1 15.7242 9.43453 2.55962e-08 -8.94963
163 1 3.14484 6.28969 9.43453 -8.94962
344 1 1.57242 11.007 1.57242 -8.94963
51 1 1.57242 1.57242 4.71726 -8.94963
52 1 3.14484 2.0225e-10 3.14484 -8.94963
53 1 4.71726 1.57242 4.71726 -8.94963
54 1 6.28969 6.69388e-11 3.14484 -8.94963
55 1 7.86211 1.57242 4.71726 -8.94963
173 1 12.5826 9.43211 9.43413 -8.90809
57 1 11.007 1.57242 4.71726 -8.94963
172 1 9.39861 9.36204 9.43407 -7.951
59 1 14.1518 1.57242 4.71726 -8.94963
60 1 15.7242 -2.8375e-11 3.14484 -8.94963
61 1 17.2966 1.57242 4.71726 -8.94963
62 1 18.8691 1.99697e-10 3.14484 -8.94963
63 1 20.4415 1.57242 4.71726 -8.94963
64 1 22.0139 3.14484 3.14484 -8.94963
65 1 1.57242 4.71726 4.71726 -8.94963
66 1 3.14484 3.14484 3.14484 -8.94963
67 1 4.71726 4.71726 4.71726 -8.94962
68 1 6.28969 3.14484 3.14484 -8.94963
69 1 7.86211 4.71727 4.71727 -8.94968
70 1 9.43453 3.14484 3.14484 -8.94963
71 1 11.007 4.71727 4.71726 -8.94964
72 1 12.5794 3.14484 3.14484 -8.94963
73 1 14.1518 4.71726 4.71726 -8.94963
74 1 15.7242 3.14484 3.14484 -8.94963
75 1 17.2966 4.71726 4.71726 -8.94963
76 1 18.8691 3.14484 3.14484 -8.94963
77 1 20.4415 4.71726 4.71726 -8.94963
78 1 22.0139 6.28969 3.14484 -8.94963
79 1 1.57242 7.86211 4.71726 -8.94963
80 1 3.14484 6.28969 3.14484 -8.94963
81 1 4.71726 7.86211 4.71726 -8.94964
82 1 6.28969 6.28969 3.14484 -8.94963
83 1 7.8621 7.8621 4.71724 -8.94981
84 1 9.43453 6.28969 3.14484 -8.94964
85 1 11.0069 7.86215 4.7173 -8.95079
86 1 12.5794 6.28969 3.14484 -8.94968
87 1 14.1518 7.86208 4.71724 -8.94909
88 1 15.7242 6.28969 3.14484 -8.94962
89 1 17.2966 7.86211 4.71726 -8.94962
90 1 18.8691 6.28969 3.14484 -8.94963
91 1 20.4415 7.86211 4.71726 -8.94963
92 1 1.61271e-09 9.43453 3.14484 -8.94963
93 1 3.14484 9.43453 3.14484 -8.94964
94 1 6.28969 9.43453 3.14484 -8.94965
95 1 9.43451 9.43451 3.14482 -8.94945
96 1 12.5794 9.43451 3.14481 -8.94969
97 1 15.7242 9.43453 3.14484 -8.94968
98 1 18.8691 9.43453 3.14484 -8.94963
99 1 22.0139 6.23886e-11 6.28969 -8.94963
100 1 1.57242 1.57242 7.86211 -8.94963
166 1 12.5794 6.28965 9.43452 -8.95049
102 1 4.71726 1.57242 7.86211 -8.94963
103 1 6.28969 1.43887e-08 6.28969 -8.94963
104 1 7.86211 1.57242 7.86211 -8.94964
105 1 9.43453 7.51988e-11 6.28969 -8.94963
106 1 11.007 1.57242 7.86211 -8.94963
107 1 12.5794 -2.96044e-09 6.28969 -8.94963
108 1 14.1518 1.57242 7.86211 -8.94963
109 1 15.7242 1.44072e-08 6.28969 -8.94963
110 1 17.2966 1.57242 7.86211 -8.94963
165 1 9.43449 6.2881 9.43452 -8.96374
112 1 20.4415 1.57242 7.86211 -8.94963
113 1 6.60472e-10 3.14484 6.28969 -8.94963
114 1 1.57242 4.71726 7.86211 -8.94963
115 1 3.14484 3.14484 6.28969 -8.94963
116 1 4.71727 4.71727 7.86211 -8.94968
117 1 6.28969 3.14484 6.28969 -8.94963
118 1 7.86209 4.71723 7.86209 -8.94969
119 1 9.43453 3.14484 6.28969 -8.94964
120 1 11.007 4.71725 7.86209 -8.94947
121 1 12.5794 3.14484 6.28969 -8.94963
122 1 14.1518 4.71726 7.86211 -8.94965
123 1 15.7242 3.14484 6.28969 -8.94963
124 1 17.2966 4.71726 7.86211 -8.94964
125 1 18.8691 3.14484 6.28969 -8.94963
126 1 20.4415 4.71726 7.86211 -8.94963
127 1 22.0139 6.28969 6.28969 -8.94963
128 1 1.57242 7.86211 7.86211 -8.94964
129 1 3.14484 6.28969 6.28969 -8.94964
130 1 4.71724 7.8621 7.8621 -8.94991
131 1 6.28966 6.28966 6.28966 -8.94907
132 1 7.86085 7.86089 7.86084 -8.92635
133 1 9.43453 6.28971 6.28972 -8.95074
134 1 11.0074 7.86179 7.86165 -8.94328
135 1 12.5794 6.28966 6.28968 -8.94981
136 1 14.1518 7.86205 7.86205 -8.94946
137 1 15.7242 6.28969 6.28968 -8.94965
138 1 17.2966 7.86211 7.86211 -8.94968
139 1 18.8691 6.28969 6.28969 -8.94963
140 1 20.4415 7.86211 7.86211 -8.94963
141 1 22.0139 9.43453 6.28969 -8.94963
142 1 3.14484 9.43453 6.28969 -8.94963
143 1 6.28962 9.43446 6.28963 -8.94879
144 1 9.43403 9.43402 6.28934 -8.94188
145 1 12.5807 9.43324 6.28846 -8.92556
146 1 15.7243 9.43449 6.28965 -8.9493
147 1 18.8691 9.43453 6.28969 -8.94963
171 1 6.28898 9.43448 9.43453 -8.95807
170 1 3.14483 9.43453 9.43453 -8.94982
169 1 22.0139 9.43453 9.43453 -8.94964
151 1 9.43453 4.13983e-07 9.43453 -8.94965
152 1 12.5794 4.22272e-07 9.43453 -8.94963
168 1 18.8691 6.28969 9.43453 -8.94963
167 1 15.7242 6.28969 9.43453 -8.9497
155 1 22.0139 3.14484 9.43453 -8.94963
156 1 3.14484 3.14484 9.43453 -8.94963
157 1 6.28969 3.14484 9.43453 -8.94963
158 1 9.43453 3.14482 9.43453 -8.95004
159 1 12.5794 3.14484 9.43453 -8.94965
160 1 15.7242 3.14484 9.43453 -8.94963
161 1 18.8691 3.14484 9.43453 -8.94963
162 1 4.41373e-09 6.28969 9.43453 -8.94963
177 1 4.71726 1.57242 11.007 -8.94963
184 1 4.71727 4.71727 11.0069 -8.94968
41 1 18.8691 6.28969 2.9045e-10 -8.94963
19 1 6.28969 3.14484 7.256e-10 -8.94963
25 1 15.7242 3.14484 4.42491e-10 -8.94963
176 1 1.57242 1.57242 11.007 -8.94963
199 1 3.14484 1.99732e-09 12.5794 -8.94963
178 1 7.86211 1.57242 11.007 -8.94964
179 1 11.007 1.57242 11.007 -8.94965
180 1 14.1518 1.57242 11.007 -8.94963
644 1 20.4415 11.007 20.4415 -8.94963
182 1 20.4415 1.57242 11.007 -8.94963
642 1 14.1518 11.007 20.4415 -8.94963
209 1 18.8691 1.80745e-09 12.5794 -8.94963
185 1 7.86209 4.71723 11.007 -8.94969
186 1 11.007 4.71722 11.007 -8.94984
187 1 14.1518 4.71726 11.007 -8.94966
641 1 11.007 11.007 20.4415 -8.94965
189 1 20.4415 4.71726 11.007 -8.94963
190 1 1.57242 7.86211 11.007 -8.94964
191 1 4.71724 7.8621 11.007 -8.94987
192 1 7.86091 7.86096 11.0082 -8.92715
193 1 11.0074 7.8603 11.0074 -8.95665
194 1 14.1518 7.86209 11.007 -8.95036
195 1 17.2966 7.86211 11.007 -8.94965
196 1 20.4415 7.86211 11.007 -8.94963
197 1 22.0139 4.97007e-11 12.5794 -8.94963
198 1 1.57242 1.57242 14.1518 -8.94963
343 1 18.8691 9.43453 18.8691 -8.94963
200 1 4.71726 1.57242 14.1518 -8.94963
342 1 15.7242 9.43453 18.8691 -8.94963
202 1 7.86211 1.57242 14.1518 -8.94963
203 1 9.43453 5.95427e-07 12.5794 -8.94964
204 1 11.007 1.57242 14.1518 -8.94963
205 1 12.5794 5.96526e-07 12.5794 -8.94964
206 1 14.1518 1.57242 14.1518 -8.94963
341 1 12.5794 9.43453 18.8691 -8.94964
208 1 17.2966 1.57242 14.1518 -8.94963
340 1 9.43453 9.43453 18.8691 -8.94964
210 1 20.4415 1.57242 14.1518 -8.94963
211 1 6.50913e-10 3.14484 12.5794 -8.94963
212 1 1.57242 4.71726 14.1518 -8.94963
213 1 3.14484 3.14484 12.5794 -8.94963
214 1 4.71726 4.71726 14.1518 -8.94962
215 1 6.28969 3.14484 12.5794 -8.94963
216 1 7.86211 4.71727 14.1518 -8.94968
217 1 9.43453 3.14484 12.5794 -8.94964
218 1 11.007 4.71727 14.1518 -8.94965
219 1 12.5794 3.14484 12.5794 -8.94964
220 1 14.1518 4.71726 14.1518 -8.94963
221 1 15.7242 3.14484 12.5794 -8.94963
222 1 17.2966 4.71726 14.1518 -8.94963
223 1 18.8691 3.14484 12.5794 -8.94963
224 1 20.4415 4.71726 14.1518 -8.94963
225 1 22.0139 6.28969 12.5794 -8.94963
226 1 1.57242 7.86211 14.1518 -8.94963
227 1 3.14484 6.28969 12.5794 -8.94963
228 1 4.71726 7.86211 14.1518 -8.94965
229 1 6.28966 6.28966 12.5794 -8.94912
230 1 7.86207 7.86207 14.1518 -8.94922
231 1 9.43452 6.28968 12.5793 -8.95078
232 1 11.0069 7.86215 14.1518 -8.95228
233 1 12.5794 6.28962 12.5794 -8.9499
234 1 14.1519 7.86205 14.1519 -8.94841
235 1 15.7242 6.28969 12.5794 -8.9497
236 1 17.2966 7.86211 14.1518 -8.94964
237 1 18.8691 6.28969 12.5794 -8.94963
238 1 20.4415 7.86211 14.1518 -8.94963
239 1 22.0139 9.43453 12.5794 -8.94963
240 1 3.14484 9.43453 12.5794 -8.94964
241 1 6.28962 9.43448 12.5794 -8.94946
242 1 9.43278 9.43285 12.5809 -8.91725
243 1 12.5821 9.43191 12.582 -8.89225
244 1 15.7243 9.43451 12.5794 -8.95007
245 1 18.8691 9.43453 12.5794 -8.94964
47 1 12.5794 9.43453 22.0139 -8.94964
247 1 1.57242 1.57242 17.2966 -8.94963
46 1 9.43453 9.43453 22.0139 -8.94963
249 1 4.71726 1.57242 17.2966 -8.94963
250 1 6.28969 1.68029e-08 15.7242 -8.94963
251 1 7.86211 1.57242 17.2966 -8.94963
339 1 6.28969 9.43453 18.8691 -8.94963
253 1 11.007 1.57242 17.2966 -8.94963
338 1 3.14484 9.43453 18.8691 -8.94963
255 1 14.1518 1.57242 17.2966 -8.94963
256 1 15.7242 1.68157e-08 15.7242 -8.94963
257 1 17.2966 1.57242 17.2966 -8.94963
45 1 6.28969 9.43453 22.0139 -8.94963
259 1 20.4415 1.57242 17.2966 -8.94963
260 1 22.0139 3.14484 15.7242 -8.94963
261 1 1.57242 4.71726 17.2966 -8.94963
262 1 3.14484 3.14484 15.7242 -8.94963
263 1 4.71726 4.71726 17.2966 -8.94963
264 1 6.28969 3.14484 15.7242 -8.94963
265 1 7.86211 4.71726 17.2966 -8.94963
266 1 9.43453 3.14484 15.7242 -8.94963
267 1 11.007 4.71726 17.2966 -8.94963
268 1 12.5794 3.14484 15.7242 -8.94963
269 1 14.1518 4.71726 17.2966 -8.94963
270 1 15.7242 3.14484 15.7242 -8.94963
271 1 17.2966 4.71726 17.2966 -8.94963
272 1 18.8691 3.14484 15.7242 -8.94963
273 1 20.4415 4.71726 17.2966 -8.94963
274 1 22.0139 6.28969 15.7242 -8.94963
275 1 1.57242 7.86211 17.2966 -8.94963
276 1 3.14484 6.28969 15.7242 -8.94963
277 1 4.71726 7.86211 17.2966 -8.94963
278 1 6.28969 6.28969 15.7242 -8.94962
279 1 7.86211 7.86211 17.2966 -8.94963
280 1 9.43453 6.28969 15.7242 -8.94968
281 1 11.007 7.86211 17.2966 -8.94964
282 1 12.5794 6.28969 15.7242 -8.94972
283 1 14.1518 7.86211 17.2966 -8.94963
284 1 15.7242 6.28969 15.7242 -8.94961
285 1 17.2966 7.86211 17.2966 -8.94963
286 1 18.8691 6.28969 15.7242 -8.94963
287 1 20.4415 7.86211 17.2966 -8.94963
288 1 1.77461e-09 9.43453 15.7242 -8.94963
289 1 3.14484 9.43453 15.7242 -8.94964
290 1 6.28969 9.43453 15.7242 -8.94967
291 1 9.43451 9.43451 15.7243 -8.94971
292 1 12.5794 9.43451 15.7243 -8.94999
293 1 15.7242 9.43453 15.7242 -8.9497
294 1 18.8691 9.43453 15.7242 -8.94963
295 1 22.0139 3.5819e-12 18.8691 -8.94963
296 1 1.57242 1.57242 20.4415 -8.94963
297 1 3.14484 7.08047e-11 18.8691 -8.94963
298 1 4.71726 1.57242 20.4415 -8.94963
301 1 9.43453 2.2008e-09 18.8691 -8.94963
300 1 7.86211 1.57242 20.4415 -8.94963
337 1 22.0139 9.43453 18.8691 -8.94963
302 1 11.007 1.57242 20.4415 -8.94963
336 1 20.4415 7.86211 20.4415 -8.94963
304 1 14.1518 1.57242 20.4415 -8.94963
39 1 15.7242 6.28969 22.0139 -8.94963
306 1 17.2966 1.57242 20.4415 -8.94963
307 1 18.8691 7.10179e-11 18.8691 -8.94963
308 1 20.4415 1.57242 20.4415 -8.94963
309 1 22.0139 3.14484 18.8691 -8.94963
310 1 1.57242 4.71726 20.4415 -8.94963
311 1 3.14484 3.14484 18.8691 -8.94963
312 1 4.71726 4.71726 20.4415 -8.94963
313 1 6.28969 3.14484 18.8691 -8.94963
314 1 7.86211 4.71726 20.4415 -8.94963
315 1 9.43453 3.14484 18.8691 -8.94963
316 1 11.007 4.71726 20.4415 -8.94963
317 1 12.5794 3.14484 18.8691 -8.94963
318 1 14.1518 4.71726 20.4415 -8.94963
319 1 15.7242 3.14484 18.8691 -8.94963
320 1 17.2966 4.71726 20.4415 -8.94963
321 1 18.8691 3.14484 18.8691 -8.94963
322 1 20.4415 4.71726 20.4415 -8.94963
323 1 22.0139 6.28969 18.8691 -8.94963
324 1 1.57242 7.86211 20.4415 -8.94963
325 1 3.14484 6.28969 18.8691 -8.94963
326 1 4.71726 7.86211 20.4415 -8.94963
327 1 6.28969 6.28969 18.8691 -8.94963
328 1 7.86211 7.86211 20.4415 -8.94963
329 1 9.43453 6.28969 18.8691 -8.94963
330 1 11.007 7.86211 20.4415 -8.94963
331 1 12.5794 6.28969 18.8691 -8.94963
332 1 14.1518 7.86211 20.4415 -8.94963
333 1 15.7242 6.28969 18.8691 -8.94963
334 1 17.2966 7.86211 20.4415 -8.94963
335 1 18.8691 6.28969 18.8691 -8.94963
512 1 1.57242 11.007 11.007 -8.94965
513 1 4.71718 11.0069 11.007 -8.95003
514 1 7.85898 11.0065 11.0095 -8.90688
515 1 11.0414 10.9376 11.1111 -7.05869
516 1 14.1528 11.0065 11.0075 -8.94986
517 1 17.2967 11.0069 11.007 -8.94963
518 1 20.4415 11.007 11.007 -8.94964
540 1 1.57242 11.007 14.1518 -8.94963
541 1 4.71727 11.007 14.1518 -8.94971
542 1 7.86209 11.0069 14.1519 -8.95034
543 1 11.007 11.0069 14.1539 -8.9671
544 1 14.1518 11.0069 14.1518 -8.95086
545 1 17.2966 11.007 14.1518 -8.94965
546 1 20.4415 11.007 14.1518 -8.94963
591 1 7.86211 11.0069 17.2966 -8.94966
592 1 11.007 11.007 17.2967 -8.95017
593 1 14.1518 11.0069 17.2966 -8.94964
638 1 1.57242 11.007 20.4415 -8.94963
640 1 7.86211 11.007 20.4415 -8.94963
3 1 3.14484 5.46307e-13 22.0139 -8.94963
5 1 6.28969 -8.1049e-12 22.0139 -8.94963
11 1 15.7242 -6.55234e-12 22.0139 -8.94963
13 1 18.8691 5.82806e-13 22.0139 -8.94963
15 1 22.0139 3.14484 22.0139 -8.94963
17 1 3.14484 3.14484 22.0139 -8.94963
303 1 12.5794 2.20178e-09 18.8691 -8.94963
33 1 6.28969 6.28969 22.0139 -8.94963
27 1 18.8691 3.14484 22.0139 -8.94963
29 1 22.0139 6.28969 22.0139 -8.94963
31 1 3.14484 6.28969 22.0139 -8.94963
1 1 22.0139 1.36646e-12 22.0139 -8.94963
21 1 9.43453 3.14484 22.0139 -8.94963
9 1 12.5794 1.28444e-10 22.0139 -8.94963
23 1 12.5794 3.14484 22.0139 -8.94963
43 1 22.0139 9.43453 22.0139 -8.94963
49 1 18.8691 9.43453 22.0139 -8.94963
687 3 11.0034 12.5749 10.2197 3.7723
345 1 4.71726 11.007 1.57242 -8.94963
511 1 18.8691 18.8691 9.43453 -8.94963
510 1 15.7242 18.8691 9.43453 -8.94964
509 1 12.5794 18.8691 9.43451 -8.94947
349 1 17.2966 11.007 1.57242 -8.94963
508 1 9.43451 18.8691 9.43451 -8.94984
351 1 22.0139 12.5794 3.73547e-11 -8.94963
352 1 1.57242 14.1518 1.57242 -8.94963
353 1 3.14484 12.5794 6.25914e-10 -8.94963
354 1 4.71726 14.1518 1.57242 -8.94963
538 1 17.2966 20.4415 11.007 -8.94963
356 1 7.86211 14.1518 1.57242 -8.94964
153 1 15.7242 22.0139 9.43453 -8.94963
358 1 11.007 14.1518 1.57242 -8.94965
150 1 6.28969 22.0139 9.43453 -8.94963
360 1 14.1518 14.1518 1.57242 -8.94963
361 1 15.7242 12.5794 3.83699e-08 -8.94963
362 1 17.2966 14.1518 1.57242 -8.94963
111 1 18.8691 22.0139 6.28969 -8.94963
364 1 20.4415 14.1518 1.57242 -8.94963
537 1 14.1518 20.4415 11.007 -8.94964
366 1 1.57242 17.2966 1.57242 -8.94963
148 1 1.50906e-10 22.0139 9.43453 -8.94963
368 1 4.71726 17.2966 1.57242 -8.94963
58 1 12.5794 22.0139 3.14484 -8.94963
370 1 7.86211 17.2966 1.57242 -8.94963
56 1 9.43453 22.0139 3.14484 -8.94963
372 1 11.007 17.2966 1.57242 -8.94963
536 1 11.007 20.4415 11.007 -8.95004
374 1 14.1518 17.2966 1.57242 -8.94963
534 1 4.71726 20.4415 11.007 -8.94963
376 1 17.2966 17.2966 1.57242 -8.94963
493 1 6.28759 12.5795 9.43451 -8.9671
378 1 20.4415 17.2966 1.57242 -8.94963
492 1 3.14481 12.5794 9.43453 -8.95017
380 1 1.57242 20.4415 1.57242 -8.94963
491 1 22.0139 12.5794 9.43453 -8.94965
382 1 4.71726 20.4415 1.57242 -8.94963
490 1 20.4415 20.4415 7.86211 -8.94963
384 1 7.86211 20.4415 1.57242 -8.94963
385 1 9.43453 18.8691 5.4209e-10 -8.94963
386 1 11.007 20.4415 1.57242 -8.94963
387 1 12.5794 18.8691 -5.7869e-11 -8.94963
388 1 14.1518 20.4415 1.57242 -8.94963
489 1 18.8691 18.8691 6.28969 -8.94963
390 1 17.2966 20.4415 1.57242 -8.94963
488 1 17.2966 20.4415 7.86211 -8.94963
392 1 20.4415 20.4415 1.57242 -8.94963
507 1 6.28969 18.8691 9.43453 -8.94965
506 1 3.14484 18.8691 9.43453 -8.94963
505 1 22.0139 18.8691 9.43453 -8.94963
504 1 18.8691 15.7242 9.43453 -8.94964
503 1 15.7242 15.7242 9.43453 -8.95079
502 1 12.5798 15.7245 9.43407 -8.94328
501 1 9.43405 15.726 9.43409 -8.95665
400 1 1.81587e-09 12.5794 3.14484 -8.94963
401 1 1.57242 14.1518 4.71726 -8.94963
402 1 3.14484 12.5794 3.14484 -8.94963
403 1 4.71727 14.1518 4.71727 -8.9497
404 1 6.28969 12.5794 3.14484 -8.94965
405 1 7.86209 14.1518 4.71721 -8.95007
406 1 9.43451 12.5794 3.14481 -8.94963
407 1 11.0069 14.1518 4.71723 -8.95126
408 1 12.5794 12.5794 3.1448 -8.94987
409 1 14.1518 14.1518 4.71721 -8.9493
410 1 15.7242 12.5794 3.14484 -8.94968
411 1 17.2966 14.1518 4.71727 -8.94968
412 1 18.8691 12.5794 3.14484 -8.94963
413 1 20.4415 14.1518 4.71726 -8.94963
414 1 22.0139 15.7242 3.14484 -8.94963
415 1 1.57242 17.2966 4.71726 -8.94963
416 1 3.14484 15.7242 3.14484 -8.94963
417 1 4.71726 17.2966 4.71726 -8.94961
418 1 6.28969 15.7242 3.14484 -8.94964
419 1 7.86211 17.2966 4.71727 -8.9497
420 1 9.43453 15.7242 3.14484 -8.94965
421 1 11.007 17.2966 4.71727 -8.9497
422 1 12.5794 15.7242 3.14484 -8.94968
423 1 14.1518 17.2966 4.71726 -8.94965
424 1 15.7242 15.7242 3.14484 -8.94962
425 1 17.2966 17.2966 4.71726 -8.94962
426 1 18.8691 15.7242 3.14484 -8.94963
427 1 20.4415 17.2966 4.71726 -8.94963
428 1 22.0139 18.8691 3.14484 -8.94963
429 1 1.57242 20.4415 4.71726 -8.94963
430 1 3.14484 18.8691 3.14484 -8.94963
431 1 4.71726 20.4415 4.71726 -8.94963
432 1 6.28969 18.8691 3.14484 -8.94963
433 1 7.86211 20.4415 4.71726 -8.94963
434 1 9.43453 18.8691 3.14484 -8.94963
435 1 11.007 20.4415 4.71726 -8.94963
436 1 12.5794 18.8691 3.14484 -8.94964
437 1 14.1518 20.4415 4.71726 -8.94963
438 1 15.7242 18.8691 3.14484 -8.94963
439 1 17.2966 20.4415 4.71726 -8.94963
440 1 18.8691 18.8691 3.14484 -8.94963
441 1 20.4415 20.4415 4.71726 -8.94963
500 1 6.28972 15.7242 9.43454 -8.95228
499 1 3.14484 15.7242 9.43453 -8.94964
498 1 -8.62997e-10 15.7242 9.43453 -8.94963
497 1 18.8691 12.5794 9.43453 -8.95006
496 1 15.7258 12.5794 9.43451 -8.9641
495 1 12.6543 12.5813 9.3992 -7.91278
494 1 9.33038 12.6488 9.40005 -7.05869
449 1 22.0139 12.5794 6.28969 -8.94963
450 1 1.57242 14.1518 7.86211 -8.94964
451 1 3.14484 12.5794 6.28969 -8.94964
452 1 4.7172 14.1518 7.86208 -8.94999
453 1 6.28967 12.5794 6.28968 -8.95086
454 1 7.85952 14.1544 7.85941 -8.89225
455 1 9.43398 12.5798 6.28867 -8.94986
456 1 11.0074 14.1542 7.85885 -8.90809
457 1 12.5807 12.5806 6.28776 -8.93418
458 1 14.153 14.1531 7.86081 -8.92556
459 1 15.7242 12.5794 6.28972 -8.95141
460 1 17.2967 14.1518 7.86209 -8.94969
461 1 18.8691 12.5794 6.28969 -8.94964
462 1 20.4415 14.1518 7.86211 -8.94964
463 1 22.0139 15.7242 6.28969 -8.94963
464 1 1.57242 17.2966 7.86211 -8.94963
465 1 3.14484 15.7242 6.28969 -8.94963
466 1 4.71727 17.2966 7.86211 -8.94972
467 1 6.28963 15.7243 6.28963 -8.94841
468 1 7.86209 17.2967 7.86208 -8.9499
469 1 9.43449 15.7242 6.28967 -8.95036
470 1 11.007 17.2967 7.86212 -8.95049
471 1 12.5794 15.7243 6.28964 -8.94946
472 1 14.1518 17.2967 7.8621 -8.94981
473 1 15.7242 15.7242 6.28966 -8.94909
474 1 17.2966 17.2966 7.86211 -8.94968
475 1 18.8691 15.7242 6.28969 -8.94963
476 1 20.4415 17.2966 7.86211 -8.94963
477 1 4.79152e-10 18.8691 6.28969 -8.94963
478 1 1.57242 20.4415 7.86211 -8.94963
479 1 3.14484 18.8691 6.28969 -8.94963
480 1 4.71726 20.4415 7.86211 -8.94963
481 1 6.28969 18.8691 6.28969 -8.94963
482 1 7.86211 20.4415 7.86211 -8.94964
483 1 9.43453 18.8691 6.28969 -8.94966
484 1 11.007 20.4415 7.86211 -8.94965
485 1 12.5794 18.8691 6.28969 -8.94965
486 1 14.1518 20.4415 7.86211 -8.94963
487 1 15.7242 18.8691 6.28969 -8.94963
530 1 14.1518 17.2966 11.0069 -8.95074
531 1 17.2966 17.2966 11.0069 -8.94964
399 1 20.4415 11.007 4.71726 -8.94963
398 1 17.2966 11.007 4.71727 -8.94968
394 1 4.71727 11.007 4.71727 -8.94973
393 1 1.57242 11.007 4.71726 -8.94963
50 1 9.45043e-12 22.0139 3.14484 -8.94963
688 3 10.2218 11.0115 9.43804 3.7723
101 1 3.14484 22.0139 6.28969 -8.94963
526 1 1.57242 17.2966 11.007 -8.94963
527 1 4.71727 17.2966 11.0069 -8.94968
532 1 20.4415 17.2966 11.007 -8.94963
383 1 6.28969 18.8691 7.40114e-10 -8.94963
377 1 18.8691 15.7242 1.13764e-09 -8.94963
686 1 20.4415 20.4415 20.4415 -8.94963
685 1 18.8691 18.8691 18.8691 -8.94963
684 1 17.2966 20.4415 20.4415 -8.94963
683 1 15.7242 18.8691 18.8691 -8.94963
682 1 14.1518 20.4415 20.4415 -8.94963
681 1 12.5794 18.8691 18.8691 -8.94963
680 1 11.007 20.4415 20.4415 -8.94963
519 1 1.57242 14.1518 11.007 -8.94964
520 1 4.71722 14.1518 11.007 -8.94971
521 1 7.86057 14.1535 11.0087 -8.91725
522 1 11.0074 14.2243 11.0429 -7.951
523 1 14.1521 14.1523 11.0074 -8.94188
524 1 17.2967 14.1518 11.007 -8.94945
525 1 20.4415 14.1518 11.007 -8.94963
305 1 15.7242 22.0139 18.8691 -8.94963
299 1 6.28969 22.0139 18.8691 -8.94963
528 1 7.86213 17.2966 11.007 -8.95078
529 1 11.007 17.2982 11.007 -8.96374
391 1 18.8691 18.8691 22.0139 -8.94963
389 1 15.7242 18.8691 22.0139 -8.94963
258 1 18.8691 22.0139 15.7242 -8.94963
533 1 1.57242 20.4415 11.007 -8.94963
254 1 12.5794 22.0139 15.7242 -8.94963
535 1 7.86211 20.4415 11.007 -8.94964
252 1 9.43453 22.0139 15.7242 -8.94963
248 1 3.14484 22.0139 15.7242 -8.94963
207 1 15.7242 22.0139 12.5794 -8.94963
539 1 20.4415 20.4415 11.007 -8.94963
679 1 9.43453 18.8691 18.8691 -8.94963
678 1 7.86211 20.4415 20.4415 -8.94963
677 1 6.28969 18.8691 18.8691 -8.94963
676 1 4.71726 20.4415 20.4415 -8.94963
675 1 3.14484 18.8691 18.8691 -8.94963
674 1 1.57242 20.4415 20.4415 -8.94963
673 1 22.0139 18.8691 18.8691 -8.94963
547 1 22.0139 12.5794 12.5794 -8.94963
548 1 1.57242 14.1518 14.1518 -8.94963
549 1 3.14484 12.5794 12.5794 -8.94966
550 1 4.71726 14.1518 14.1518 -8.94967
551 1 6.28963 12.5794 12.5794 -8.95034
552 1 7.86207 14.1518 14.1519 -8.94946
553 1 9.43197 12.5798 12.5825 -8.90688
554 1 11.0069 14.1518 14.1525 -8.95807
555 1 12.5826 12.5805 12.5832 -8.89608
556 1 14.1518 14.1519 14.1519 -8.94879
557 1 15.7243 12.5794 12.5794 -8.95087
558 1 17.2966 14.1518 14.1518 -8.94965
559 1 18.8691 12.5794 12.5794 -8.94966
560 1 20.4415 14.1518 14.1518 -8.94963
561 1 22.0139 15.7242 12.5794 -8.94963
562 1 1.57242 17.2966 14.1518 -8.94963
563 1 3.14484 15.7242 12.5794 -8.94963
564 1 4.71726 17.2966 14.1518 -8.94962
565 1 6.28963 15.7243 12.5794 -8.94922
566 1 7.86208 17.2967 14.1518 -8.94912
567 1 9.43328 15.7254 12.5806 -8.92715
568 1 11.0069 17.2966 14.1518 -8.95119
569 1 12.5806 15.7254 12.5806 -8.92635
570 1 14.1518 17.2967 14.1518 -8.94907
571 1 15.7242 15.7242 12.5794 -8.94981
572 1 17.2966 17.2966 14.1518 -8.94963
573 1 18.8691 15.7242 12.5794 -8.94963
574 1 20.4415 17.2966 14.1518 -8.94963
575 1 4.76531e-10 18.8691 12.5794 -8.94963
576 1 1.57242 20.4415 14.1518 -8.94963
577 1 3.14484 18.8691 12.5794 -8.94963
578 1 4.71726 20.4415 14.1518 -8.94963
579 1 6.28969 18.8691 12.5794 -8.94968
580 1 7.86211 20.4415 14.1518 -8.94963
581 1 9.43451 18.8691 12.5794 -8.94969
582 1 11.007 20.4415 14.1518 -8.94963
583 1 12.5794 18.8691 12.5794 -8.94969
584 1 14.1518 20.4415 14.1518 -8.94963
585 1 15.7242 18.8691 12.5794 -8.94968
586 1 17.2966 20.4415 14.1518 -8.94963
587 1 18.8691 18.8691 12.5794 -8.94963
588 1 20.4415 20.4415 14.1518 -8.94963
589 1 1.57242 11.007 17.2966 -8.94963
590 1 4.71726 11.007 17.2966 -8.94963
672 1 20.4415 17.2966 20.4415 -8.94963
671 1 18.8691 15.7242 18.8691 -8.94963
670 1 17.2966 17.2966 20.4415 -8.94963
594 1 17.2966 11.007 17.2966 -8.94963
595 1 20.4415 11.007 17.2966 -8.94963
596 1 1.86361e-09 12.5794 15.7242 -8.94963
597 1 1.57242 14.1518 17.2966 -8.94963
598 1 3.14484 12.5794 15.7242 -8.94963
599 1 4.71726 14.1518 17.2966 -8.94964
600 1 6.28969 12.5794 15.7242 -8.94971
601 1 7.86211 14.1518 17.2966 -8.94964
602 1 9.4345 12.5794 15.7243 -8.95003
603 1 11.007 14.1518 17.2966 -8.94982
604 1 12.5794 12.5794 15.7243 -8.95021
605 1 14.1518 14.1518 17.2966 -8.94963
606 1 15.7242 12.5794 15.7242 -8.94973
607 1 17.2966 14.1518 17.2966 -8.94964
608 1 18.8691 12.5794 15.7242 -8.94963
609 1 20.4415 14.1518 17.2966 -8.94963
610 1 22.0139 15.7242 15.7242 -8.94963
611 1 1.57242 17.2966 17.2966 -8.94963
612 1 3.14484 15.7242 15.7242 -8.94963
613 1 4.71726 17.2966 17.2966 -8.94963
614 1 6.28969 15.7242 15.7242 -8.94965
615 1 7.86211 17.2966 17.2966 -8.94963
616 1 9.43452 15.7242 15.7242 -8.94987
617 1 11.007 17.2966 17.2966 -8.94962
618 1 12.5794 15.7242 15.7242 -8.94991
619 1 14.1518 17.2966 17.2966 -8.94964
620 1 15.7242 15.7242 15.7242 -8.94964
621 1 17.2966 17.2966 17.2966 -8.94963
622 1 18.8691 15.7242 15.7242 -8.94963
623 1 20.4415 17.2966 17.2966 -8.94963
624 1 22.0139 18.8691 15.7242 -8.94963
625 1 1.57242 20.4415 17.2966 -8.94963
626 1 3.14484 18.8691 15.7242 -8.94963
627 1 4.71726 20.4415 17.2966 -8.94963
628 1 6.28969 18.8691 15.7242 -8.94962
629 1 7.86211 20.4415 17.2966 -8.94963
630 1 9.43453 18.8691 15.7242 -8.94968
631 1 11.007 20.4415 17.2966 -8.94963
632 1 12.5794 18.8691 15.7242 -8.94968
633 1 14.1518 20.4415 17.2966 -8.94963
634 1 15.7242 18.8691 15.7242 -8.94962
635 1 17.2966 20.4415 17.2966 -8.94963
636 1 18.8691 18.8691 15.7242 -8.94963
637 1 20.4415 20.4415 17.2966 -8.94963
669 1 15.7242 15.7242 18.8691 -8.94963
639 1 4.71726 11.007 20.4415 -8.94963
668 1 14.1518 17.2966 20.4415 -8.94963
667 1 12.5794 15.7242 18.8691 -8.94964
666 1 11.007 17.2966 20.4415 -8.94963
643 1 17.2966 11.007 20.4415 -8.94963
665 1 9.43453 15.7242 18.8691 -8.94964
645 1 22.0139 12.5794 18.8691 -8.94963
646 1 1.57242 14.1518 20.4415 -8.94963
647 1 3.14484 12.5794 18.8691 -8.94963
648 1 4.71726 14.1518 20.4415 -8.94963
649 1 6.28969 12.5794 18.8691 -8.94963
650 1 7.86211 14.1518 20.4415 -8.94963
651 1 9.43453 12.5794 18.8691 -8.94965
652 1 11.007 14.1518 20.4415 -8.94964
653 1 12.5794 12.5794 18.8691 -8.94965
654 1 14.1518 14.1518 20.4415 -8.94963
655 1 15.7242 12.5794 18.8691 -8.94963
656 1 17.2966 14.1518 20.4415 -8.94963
657 1 18.8691 12.5794 18.8691 -8.94963
658 1 20.4415 14.1518 20.4415 -8.94963
659 1 22.0139 15.7242 18.8691 -8.94963
660 1 1.57242 17.2966 20.4415 -8.94963
661 1 3.14484 15.7242 18.8691 -8.94963
662 1 4.71726 17.2966 20.4415 -8.94963
663 1 6.28969 15.7242 18.8691 -8.94963
664 1 7.86211 17.2966 20.4415 -8.94963
381 1 3.14484 18.8691 22.0139 -8.94963
201 1 6.28969 22.0139 12.5794 -8.94963
355 1 6.28969 12.5794 22.0139 -8.94963
357 1 9.43453 12.5794 22.0139 -8.94964
359 1 12.5794 12.5794 22.0139 -8.94964
365 1 22.0139 15.7242 22.0139 -8.94963
367 1 3.14484 15.7242 22.0139 -8.94963
369 1 6.28969 15.7242 22.0139 -8.94963
371 1 9.43453 15.7242 22.0139 -8.94963
373 1 12.5794 15.7242 22.0139 -8.94963
375 1 15.7242 15.7242 22.0139 -8.94963
246 1 9.14594e-12 22.0139 15.7242 -8.94963
379 1 22.0139 18.8691 22.0139 -8.94963
363 1 18.8691 12.5794 22.0139 -8.94963
