ITEM: TIMESTEP
75
ITEM: NUMBER OF ATOMS
688
ITEM: BOX BOUNDS pp pp pp
0.0000000000000000e+00 2.2013900999999997e+01
0.0000000000000000e+00 2.2013900999999997e+01
0.0000000000000000e+00 2.2013900999999997e+01
ITEM: ATOMS id type x y z c_pot
7 1 9.4345 0.000143236 -0.000144667 -8.94957
2 1 1.57206 1.57236 1.57206 -8.94927
448 1 20.4436 11.0068 7.86214 -8.95099
4 1 4.71704 1.57228 1.57203 -8.94971
447 1 17.306 11.0054 7.85999 -8.95919
6 1 7.86201 1.57224 1.572 -8.94948
175 1 18.8713 9.43354 9.43485 -8.94806
8 1 11.007 1.57221 1.57199 -8.94954
174 1 15.7273 9.43182 9.43476 -8.94168
10 1 14.152 1.57217 1.57205 -8.94949
446 1 14.1914 10.9755 7.81747 -8.88638
12 1 17.297 1.5721 1.5721 -8.94959
445 1 11.0839 11.0127 7.64647 -8.0895
14 1 20.4416 1.57233 1.57223 -8.94953
444 1 7.86294 10.9839 7.84615 -8.86517
16 1 1.57214 4.71694 1.57194 -8.94954
443 1 4.71697 11.0071 7.86181 -8.94893
18 1 4.71645 4.71642 1.57131 -8.94957
442 1 1.57201 11.0069 7.86198 -8.94891
20 1 7.86179 4.71645 1.57154 -8.9492
149 1 3.14394 0.000428582 9.43451 -8.94945
22 1 11.0069 4.71625 1.57148 -8.94953
154 1 18.8695 0.000215697 9.4345 -8.94954
24 1 14.1522 4.71614 1.57144 -8.94955
188 1 17.2982 4.71552 11.0067 -8.94875
26 1 17.2978 4.71597 1.57138 -8.94855
183 1 1.57126 4.7164 11.0071 -8.94941
28 1 20.442 4.71674 1.57191 -8.94923
397 1 14.1632 11.0048 4.7002 -8.95176
30 1 1.57216 7.86189 1.57192 -8.94941
396 1 11.0118 11.0081 4.72101 -8.99883
32 1 4.71656 7.86176 1.57135 -8.94974
395 1 7.86241 11.0054 4.71344 -8.95152
34 1 7.86176 7.86159 1.57071 -8.95156
35 1 9.43415 6.28886 -0.000467654 -8.94947
36 1 11.0066 7.86068 1.5699 -8.94996
37 1 12.5794 6.28878 -0.000587058 -8.94955
38 1 14.1531 7.86039 1.56894 -8.95137
181 1 17.2973 1.57208 11.0069 -8.94952
40 1 17.2983 7.86087 1.57038 -8.94941
346 1 7.86181 11.0067 1.5709 -8.94979
42 1 20.4421 7.86175 1.57179 -8.94944
164 1 6.28181 6.28126 9.43372 -8.94193
44 1 3.14437 9.43435 -0.000403783 -8.94943
350 1 20.4421 11.0069 1.57171 -8.94949
348 1 14.1537 11.0068 1.56728 -8.95127
347 1 11.0069 11.0067 1.57098 -8.94567
48 1 15.7253 9.43406 -0.00156488 -8.94988
163 1 3.14153 6.28778 9.43423 -8.94918
344 1 1.57205 11.0068 1.57177 -8.94951
51 1 1.57198 1.57231 4.71698 -8.94952
52 1 3.14411 0.000526579 3.14409 -8.94939
53 1 4.7164 1.57206 4.71634 -8.95005
54 1 6.28956 0.000357212 3.14423 -8.94971
55 1 7.86207 1.57199 4.71653 -8.94965
173 1 12.5727 9.44817 9.42952 -8.9039
57 1 11.0072 1.57187 4.71647 -8.9497
172 1 9.3854 9.28605 9.44489 -8.25693
59 1 14.1522 1.57169 4.71675 -8.95026
60 1 15.7245 0.000142194 3.14444 -8.94998
61 1 17.297 1.57228 4.717 -8.94998
62 1 18.8694 0.00031764 3.14452 -8.94959
63 1 20.4416 1.57233 4.71713 -8.94953
64 1 22.0137 3.14456 3.14456 -8.94964
65 1 1.57146 4.71658 4.71661 -8.94972
66 1 3.14386 3.14407 3.14386 -8.94881
67 1 4.71436 4.71429 4.71436 -8.94692
68 1 6.28928 3.144 3.14393 -8.94979
69 1 7.86146 4.71476 4.7155 -8.94989
70 1 9.43442 3.14389 3.14392 -8.94936
71 1 11.0072 4.71449 4.71521 -8.94852
72 1 12.5796 3.14375 3.14394 -8.94927
73 1 14.1537 4.71322 4.71507 -8.95033
74 1 15.725 3.14344 3.14395 -8.9496
75 1 17.298 4.71547 4.71642 -8.95044
76 1 18.8695 3.14427 3.14446 -8.94978
77 1 20.4417 4.71674 4.71701 -8.94981
78 1 22.0141 6.2892 3.14428 -8.94978
79 1 1.57172 7.86171 4.7166 -8.95022
80 1 3.14368 6.28887 3.14364 -8.94945
81 1 4.714 7.85999 4.71442 -8.94873
82 1 6.28764 6.28748 3.14157 -8.94984
83 1 7.85773 7.85643 4.70983 -8.95066
84 1 9.43397 6.28762 3.1425 -8.94775
85 1 11.0076 7.85704 4.70996 -8.94662
86 1 12.5801 6.28715 3.14186 -8.94873
87 1 14.163 7.85023 4.70495 -8.93249
88 1 15.7278 6.28558 3.14094 -8.94542
89 1 17.3034 7.85701 4.71229 -8.94601
90 1 18.8711 6.28797 3.14321 -8.94838
91 1 20.4432 7.86117 4.71635 -8.95038
92 1 0.000207849 9.43421 3.1441 -8.94939
93 1 3.14377 9.43403 3.14364 -8.94877
94 1 6.28862 9.43387 3.14241 -8.95003
95 1 9.43547 9.434 3.14259 -8.95217
96 1 12.5812 9.43273 3.13645 -8.95835
97 1 15.7286 9.43182 3.13862 -8.94911
98 1 18.8712 9.43373 3.14311 -8.94902
99 1 22.0137 0.000165483 6.28957 -8.94955
100 1 1.57191 1.57227 7.86198 -8.94953
166 1 12.5773 6.29152 9.43511 -8.94407
102 1 4.71613 1.57193 7.86163 -8.94933
103 1 6.28893 0.00130001 6.28878 -8.95109
104 1 7.86177 1.57158 7.86163 -8.95133
105 1 9.43491 0.00056833 6.28902 -8.94986
106 1 11.0073 1.5719 7.86174 -8.94895
107 1 12.5795 0.000230551 6.28929 -8.94988
108 1 14.1522 1.57219 7.86193 -8.94988
109 1 15.7247 0.000726858 6.28933 -8.95026
110 1 17.2973 1.57215 7.86188 -8.94948
165 1 9.43303 6.28321 9.43583 -8.9846
112 1 20.4416 1.57229 7.86203 -8.94956
113 1 -0.000236583 3.14449 6.28949 -8.94947
114 1 1.57132 4.71643 7.86178 -8.94934
115 1 3.14374 3.144 6.28909 -8.94924
116 1 4.71439 4.71448 7.86085 -8.94793
117 1 6.28827 3.1423 6.28824 -8.95103
118 1 7.85976 4.71043 7.86072 -8.956
119 1 9.4348 3.14286 6.28879 -8.9502
120 1 11.0074 4.71548 7.86153 -8.94793
121 1 12.5798 3.14277 6.28906 -8.95151
122 1 14.1522 4.71531 7.86253 -8.95136
123 1 15.7248 3.14377 6.28954 -8.95039
124 1 17.298 4.71565 7.86173 -8.94847
125 1 18.8695 3.14431 6.2895 -8.94932
126 1 20.4418 4.71659 7.86194 -8.94947
127 1 22.0136 6.28915 6.28942 -8.94988
128 1 1.57083 7.86163 7.86192 -8.95068
129 1 3.14201 6.28818 6.28835 -8.95051
130 1 4.7107 7.85924 7.86056 -8.95459
131 1 6.2813 6.2805 6.28172 -8.94011
132 1 7.83783 7.83456 7.8433 -8.90799
133 1 9.43491 6.28335 6.28718 -8.95226
134 1 11.0174 7.86136 7.84896 -8.92076
135 1 12.5831 6.2809 6.28498 -8.95507
136 1 14.1569 7.85507 7.86179 -8.96035
137 1 15.7272 6.28543 6.2882 -8.95284
138 1 17.2998 7.85998 7.86227 -8.94913
139 1 18.8704 6.28856 6.28947 -8.94979
140 1 20.4424 7.86143 7.86214 -8.94959
141 1 22.0144 9.43425 6.28933 -8.95054
142 1 3.14278 9.43437 6.28891 -8.95141
143 1 6.28229 9.42934 6.2834 -8.94507
144 1 9.4259 9.41433 6.28073 -8.90263
145 1 12.6149 9.40238 6.25356 -8.86264
146 1 15.7435 9.4216 6.27544 -8.94008
147 1 18.8741 9.43291 6.28812 -8.95296
171 1 6.28374 9.42932 9.43524 -8.96083
170 1 3.14269 9.43446 9.43453 -8.95044
169 1 22.0139 9.43434 9.43466 -8.94965
151 1 9.4348 0.000873712 9.43422 -8.94934
152 1 12.5797 0.000525231 9.43422 -8.94895
168 1 18.8706 6.28827 9.43436 -8.94933
167 1 15.7276 6.28559 9.43357 -8.94439
155 1 22.0137 3.14444 9.43449 -8.94954
156 1 3.1436 3.14391 9.43441 -8.94948
157 1 6.28756 3.14176 9.4341 -8.94931
158 1 9.43452 3.1425 9.43416 -8.94953
159 1 12.5796 3.14411 9.43416 -8.94752
160 1 15.7253 3.14338 9.43411 -8.94957
161 1 18.8697 3.1442 9.43441 -8.94952
162 1 -0.000442382 6.28897 9.43448 -8.94981
177 1 4.71607 1.57183 11.0071 -8.94937
184 1 4.71406 4.71421 11.0076 -8.94823
41 1 18.8697 6.28922 -0.000496549 -8.94953
19 1 6.28949 3.14451 -0.000173993 -8.9495
25 1 15.7245 3.14439 -0.000165482 -8.94961
176 1 1.5719 1.57226 11.007 -8.94953
199 1 3.14399 0.000357839 12.5797 -8.94934
178 1 7.86153 1.57118 11.0069 -8.9514
179 1 11.0073 1.57155 11.0067 -8.94934
180 1 14.1525 1.57185 11.0066 -8.94986
644 1 20.4418 11.0069 20.4414 -8.94957
182 1 20.4416 1.57228 11.007 -8.94957
642 1 14.1524 11.0071 20.4412 -8.95041
209 1 18.8695 0.00017703 12.5795 -8.94948
185 1 7.85865 4.7085 11.0077 -8.95522
186 1 11.0075 4.71273 11.0075 -8.94811
187 1 14.1534 4.71384 11.0056 -8.95007
641 1 11.0068 11.0071 20.4415 -8.94842
189 1 20.4418 4.71656 11.007 -8.94952
190 1 1.5705 7.86157 11.0071 -8.95098
191 1 4.70901 7.8585 11.008 -8.95398
192 1 7.83296 7.82995 11.0269 -8.89385
193 1 11.0189 7.85331 11.0337 -8.96606
194 1 14.1593 7.85282 11.0034 -8.95079
195 1 17.3006 7.85965 11.0063 -8.94812
196 1 20.4425 7.8614 11.007 -8.94977
197 1 22.0137 0.000148119 12.5795 -8.94955
198 1 1.57195 1.57225 14.152 -8.94951
343 1 18.8697 9.43452 18.8695 -8.94941
200 1 4.71619 1.57176 14.1526 -8.94983
342 1 15.7253 9.43454 18.8704 -8.94964
202 1 7.86156 1.57148 14.1528 -8.95053
203 1 9.43459 0.00124498 12.58 -8.9514
204 1 11.0072 1.57132 14.153 -8.95005
205 1 12.5799 0.000841311 12.5797 -8.95133
206 1 14.1527 1.57112 14.1525 -8.95109
341 1 12.5796 9.43435 18.8721 -8.95328
208 1 17.2972 1.57206 14.1519 -8.94971
340 1 9.43433 9.43449 18.8713 -8.95167
210 1 20.4416 1.57229 14.1519 -8.94952
211 1 -0.000234464 3.14445 12.5795 -8.94949
212 1 1.57127 4.71648 14.1524 -8.94964
213 1 3.1436 3.14389 12.5798 -8.94929
214 1 4.71353 4.71372 14.1548 -8.94664
215 1 6.28774 3.14154 12.5806 -8.95056
216 1 7.85934 4.71084 14.1554 -8.95145
217 1 9.43448 3.14071 12.5803 -8.95234
218 1 11.0072 4.71081 14.1558 -8.94764
219 1 12.5802 3.14053 12.58 -8.95379
220 1 14.1561 4.70929 14.1558 -8.95154
221 1 15.7253 3.14324 12.5792 -8.94973
222 1 17.2986 4.71531 14.1525 -8.95028
223 1 18.8696 3.14425 12.5794 -8.94935
224 1 20.4419 4.7167 14.152 -8.9497
225 1 22.0135 6.28911 12.5796 -8.94993
226 1 1.57118 7.86191 14.1524 -8.95089
227 1 3.14128 6.28795 12.5806 -8.95025
228 1 4.71107 7.8595 14.1553 -8.95156
229 1 6.27896 6.27865 12.5875 -8.93798
230 1 7.84345 7.84268 14.173 -8.92496
231 1 9.4318 6.27297 12.5857 -8.96011
232 1 11.0075 7.84789 14.1676 -8.94381
233 1 12.5868 6.27014 12.5878 -8.96139
234 1 14.1773 7.83689 14.1771 -8.90136
235 1 15.729 6.28484 12.5799 -8.95103
236 1 17.3048 7.85804 14.156 -8.9513
237 1 18.8709 6.28856 12.5795 -8.94945
238 1 20.4431 7.8616 14.1525 -8.95114
239 1 22.014 9.43459 12.5796 -8.95073
240 1 3.14182 9.43498 12.5797 -8.95333
241 1 6.27566 9.42977 12.5853 -8.96007
242 1 9.37946 9.3731 12.6281 -8.78914
243 1 12.6554 9.36114 12.6506 -8.72146
244 1 15.744 9.42641 12.5877 -8.96205
245 1 18.8733 9.43418 12.5799 -8.95457
47 1 12.5794 9.43425 22.0124 -8.95147
247 1 1.57202 1.57227 17.297 -8.94937
46 1 9.43438 9.43441 22.0134 -8.9498
249 1 4.71662 1.5721 17.2974 -8.94955
250 1 6.28889 0.000660419 15.7253 -8.94983
251 1 7.8618 1.57206 17.2975 -8.94934
339 1 6.28901 9.43468 18.8701 -8.94951
253 1 11.007 1.57199 17.2975 -8.94945
338 1 3.14431 9.43449 18.8695 -8.94939
255 1 14.1522 1.57196 17.2975 -8.94935
256 1 15.7251 0.000362831 15.7251 -8.95005
257 1 17.2974 1.57189 17.2974 -8.94939
45 1 6.28921 9.43441 22.0133 -8.94974
259 1 20.4416 1.57227 17.2968 -8.94965
260 1 22.0137 3.14451 15.7245 -8.94959
261 1 1.57187 4.71681 17.2973 -8.94965
262 1 3.14363 3.14388 15.7252 -8.94882
263 1 4.71527 4.71546 17.2989 -8.94777
264 1 6.28836 3.14287 15.7259 -8.94995
265 1 7.86121 4.71552 17.2987 -8.94892
266 1 9.43412 3.14278 15.7259 -8.94907
267 1 11.0069 4.71527 17.2989 -8.94913
268 1 12.5799 3.1426 15.7259 -8.94903
269 1 14.1529 4.71516 17.2989 -8.94924
270 1 15.726 3.14227 15.7259 -8.94966
271 1 17.299 4.71504 17.2989 -8.94657
272 1 18.8697 3.14419 15.7246 -8.94984
273 1 20.4422 4.71668 17.2972 -8.94946
274 1 22.014 6.28928 15.7248 -8.95019
275 1 1.57204 7.86208 17.2971 -8.9495
276 1 3.14265 6.28858 15.7258 -8.94998
277 1 4.71601 7.86197 17.2981 -8.95003
278 1 6.28329 6.28358 15.7316 -8.94303
279 1 7.85998 7.86015 17.3021 -8.95326
280 1 9.43286 6.28439 15.7299 -8.9462
281 1 11.0067 7.85924 17.3023 -8.94931
282 1 12.5814 6.28383 15.7306 -8.94728
283 1 14.155 7.85909 17.3036 -8.95299
284 1 15.7323 6.28184 15.7321 -8.93767
285 1 17.2985 7.86151 17.2985 -8.94998
286 1 18.8718 6.28806 15.7259 -8.94957
287 1 20.442 7.86203 17.2971 -8.94958
288 1 4.46824e-05 9.43453 15.7248 -8.94949
289 1 3.14353 9.43463 15.7252 -8.94897
290 1 6.28724 9.43474 15.7273 -8.94996
291 1 9.43248 9.43068 15.7348 -8.96066
292 1 12.5841 9.42961 15.7401 -8.96519
293 1 15.7287 9.43408 15.729 -8.94982
294 1 18.8708 9.43466 15.7252 -8.94943
295 1 22.0138 0.000106462 18.8692 -8.9493
296 1 1.57224 1.57232 20.4416 -8.9493
297 1 3.14447 0.000148907 18.8695 -8.94937
298 1 4.71709 1.57231 20.4416 -8.94959
301 1 9.43445 0.000164938 18.8696 -8.94953
300 1 7.86199 1.57227 20.4417 -8.94955
337 1 22.0139 9.43449 18.8693 -8.94954
302 1 11.007 1.57225 20.4417 -8.94957
336 1 20.4418 7.86201 20.4415 -8.94953
304 1 14.1519 1.57226 20.4417 -8.94955
39 1 15.725 6.2887 22.0132 -8.95011
306 1 17.2968 1.57225 20.4416 -8.94962
307 1 18.8694 6.628e-05 18.8694 -8.94927
308 1 20.4416 1.57232 20.4416 -8.94921
309 1 22.0139 3.14461 18.8693 -8.94946
310 1 1.57226 4.71715 20.4415 -8.94969
311 1 3.14425 3.14436 18.8697 -8.94908
312 1 4.71673 4.71679 20.4419 -8.94983
313 1 6.28931 3.14431 18.8697 -8.94948
314 1 7.86178 4.71664 20.4419 -8.9494
315 1 9.43436 3.14418 18.8698 -8.94943
316 1 11.0069 4.71653 20.4419 -8.94952
317 1 12.5795 3.14417 18.8698 -8.94942
318 1 14.152 4.71656 20.4419 -8.94948
319 1 15.7247 3.14417 18.8698 -8.94957
320 1 17.2973 4.71655 20.4419 -8.94951
321 1 18.8697 3.14427 18.8696 -8.94879
322 1 20.4418 4.71707 20.4415 -8.94961
323 1 22.0139 6.28961 18.8693 -8.94962
324 1 1.57224 7.86202 20.4415 -8.9495
325 1 3.14435 6.28953 18.8695 -8.94982
326 1 4.71682 7.86203 20.4416 -8.94966
327 1 6.28857 6.28873 18.871 -8.95046
328 1 7.8617 7.86182 20.4423 -8.95072
329 1 9.43402 6.28843 18.871 -8.94924
330 1 11.0067 7.8614 20.4423 -8.95031
331 1 12.5797 6.28837 18.8712 -8.94939
332 1 14.1523 7.86149 20.4422 -8.95111
333 1 15.7257 6.28825 18.8713 -8.95012
334 1 17.2974 7.8618 20.4415 -8.94964
335 1 18.8698 6.28934 18.8696 -8.94976
512 1 1.572 11.0071 11.007 -8.94817
513 1 4.71814 11.0082 11.0056 -8.94678
514 1 7.86857 10.9895 11.0186 -8.88174
515 1 11.0597 10.8063 11.3129 -7.30314
516 1 14.1611 10.9854 11.0287 -8.9218
517 1 17.2995 11.007 11.0061 -8.95125
518 1 20.4425 11.0071 11.0069 -8.9492
540 1 1.57146 11.007 14.1526 -8.94942
541 1 4.71447 11.0073 14.1539 -8.94609
542 1 7.86024 11.0083 14.156 -8.94745
543 1 11.0105 10.9952 14.1503 -9.01942
544 1 14.1596 11.01 14.1614 -8.94792
545 1 17.3003 11.0081 14.1537 -8.94832
546 1 20.4425 11.0072 14.1525 -8.94966
591 1 7.86132 11.0075 17.2986 -8.94925
592 1 11.0071 11.0072 17.298 -8.9467
593 1 14.1537 11.008 17.3001 -8.94982
638 1 1.57219 11.0069 20.4415 -8.94957
640 1 7.86169 11.007 20.4417 -8.94962
3 1 3.14464 0.000148524 22.0137 -8.94965
5 1 6.28958 0.000129275 22.0138 -8.94952
11 1 15.7243 8.81347e-05 22.0138 -8.94953
13 1 18.8692 9.0389e-05 22.0138 -8.94953
15 1 22.0139 3.1447 22.0137 -8.94943
17 1 3.1445 3.14452 22.0137 -8.94951
303 1 12.5795 0.000152195 18.8696 -8.94953
33 1 6.28921 6.28923 22.0135 -8.95046
27 1 18.8695 3.14443 22.0138 -8.94928
29 1 22.014 6.28955 22.0137 -8.94955
31 1 3.14451 6.2895 22.0136 -8.94967
1 1 22.0138 0.000104268 22.0137 -8.94921
21 1 9.43443 3.1444 22.0137 -8.94954
9 1 12.5795 0.000131847 22.0138 -8.94956
23 1 12.5794 3.14438 22.0137 -8.94953
43 1 22.0139 9.43443 22.0136 -8.94955
49 1 18.8698 9.43433 22.0133 -8.94944
687 3 10.9614 12.4723 10.1743 2.21986
345 1 4.71625 11.0065 1.57099 -8.9493
511 1 18.87 18.8701 9.43461 -8.94953
510 1 15.7263 18.8718 9.4343 -8.94852
509 1 12.5799 18.8708 9.43411 -8.94793
349 1 17.2984 11.0067 1.57029 -8.94924
508 1 9.43401 18.8736 9.43396 -8.94811
351 1 22.0139 12.5794 -0.000292966 -8.94957
352 1 1.57203 14.1518 1.57177 -8.94941
353 1 3.14431 12.5793 -0.000490391 -8.94952
354 1 4.71623 14.1517 1.57068 -8.94943
538 1 17.2976 20.4424 11.0071 -8.94936
356 1 7.86159 14.1521 1.56823 -8.95457
153 1 15.725 22.0144 9.4343 -8.9497
358 1 11.0066 14.1528 1.57014 -8.94806
150 1 6.28852 22.015 9.43431 -8.95005
360 1 14.1534 14.1534 1.56735 -8.95296
361 1 15.7254 12.5797 -0.00177613 -8.94963
362 1 17.2984 14.1526 1.57029 -8.94902
111 1 18.8694 22.0142 6.28952 -8.94949
364 1 20.4421 14.152 1.57172 -8.94944
537 1 14.1527 20.4435 11.0067 -8.9502
366 1 1.5719 17.297 1.5717 -8.94976
148 1 -0.000184677 22.0141 9.43453 -8.94957
368 1 4.71558 17.2983 1.56965 -8.94957
58 1 12.5796 22.0142 3.14422 -8.94948
370 1 7.86202 17.2978 1.57062 -8.94945
56 1 9.43459 22.0142 3.14416 -8.94952
372 1 11.0071 17.298 1.57083 -8.94933
536 1 11.0073 20.4438 11.007 -8.94953
374 1 14.152 17.2978 1.57112 -8.94979
534 1 4.71556 20.4435 11.0074 -8.94907
376 1 17.2983 17.2984 1.57034 -8.94838
493 1 6.29119 12.5911 9.43102 -9.01942
378 1 20.442 17.2971 1.57179 -8.94953
492 1 3.14345 12.5792 9.43434 -8.9467
380 1 1.57186 20.4421 1.57175 -8.94879
491 1 22.0139 12.5792 9.43471 -8.94842
382 1 4.71689 20.4421 1.57174 -8.94984
490 1 20.4417 20.4419 7.86205 -8.94953
384 1 7.86206 20.4421 1.57183 -8.94935
385 1 9.43449 18.8698 -0.000362545 -8.94952
386 1 11.0071 20.4421 1.57182 -8.94952
387 1 12.5795 18.8697 -0.00030768 -8.94947
388 1 14.152 20.442 1.57196 -8.94932
489 1 18.87 18.8702 6.28929 -8.94955
390 1 17.297 20.442 1.57194 -8.94978
488 1 17.2975 20.4426 7.86189 -8.94927
392 1 20.4416 20.4419 1.57201 -8.94928
507 1 6.28564 18.8755 9.43423 -8.94764
506 1 3.1426 18.8711 9.4346 -8.94913
505 1 22.0135 18.8698 9.43461 -8.94952
504 1 18.8716 15.7256 9.43486 -8.94996
503 1 15.7315 15.7293 9.43393 -8.94662
502 1 12.5925 15.725 9.42404 -8.92076
501 1 9.40776 15.733 9.42254 -8.96606
400 1 0.000123254 12.5793 3.14401 -8.94948
401 1 1.57106 14.1518 4.71616 -8.94964
402 1 3.14347 12.579 3.1433 -8.94904
403 1 4.71248 14.1522 4.71279 -8.94982
404 1 6.28775 12.5782 3.14114 -8.94832
405 1 7.8538 14.1599 4.69749 -8.96205
406 1 9.43534 12.5793 3.14193 -8.95125
407 1 11.0067 14.1545 4.71416 -8.94168
408 1 12.5815 12.5809 3.13553 -8.95919
409 1 14.166 14.1647 4.69794 -8.94008
410 1 15.7289 12.5805 3.13855 -8.94738
411 1 17.3029 14.1545 4.71284 -8.94911
412 1 18.8712 12.5796 3.14307 -8.94924
413 1 20.443 14.1523 4.71619 -8.94988
414 1 22.0139 15.7245 3.1441 -8.94964
415 1 1.57016 17.2981 4.71577 -8.95012
416 1 3.143 15.7248 3.14295 -8.94998
417 1 4.70934 17.3045 4.70917 -8.93767
418 1 6.28549 15.7283 3.13668 -8.9513
419 1 7.86159 17.3015 4.71252 -8.95103
420 1 9.43515 15.7267 3.14087 -8.94812
421 1 11.0079 17.3007 4.71385 -8.94439
422 1 12.5792 15.7263 3.14167 -8.94913
423 1 14.1533 17.3009 4.71424 -8.95284
424 1 15.7292 15.7293 3.13809 -8.94601
425 1 17.3005 17.3007 4.71368 -8.94542
426 1 18.8711 15.7255 3.14317 -8.94941
427 1 20.4422 17.2976 4.71644 -8.95011
428 1 22.0135 18.8698 3.14413 -8.94951
429 1 1.57171 20.4421 4.71681 -8.94957
430 1 3.14259 18.8713 3.14248 -8.94657
431 1 4.71556 20.444 4.71545 -8.94966
432 1 6.289 18.871 3.14283 -8.95028
433 1 7.8623 20.4431 4.71621 -8.94973
434 1 9.43475 18.8708 3.14323 -8.94875
435 1 11.0074 20.4429 4.71615 -8.94957
436 1 12.5798 18.8707 3.14351 -8.94847
437 1 14.1519 20.4426 4.71672 -8.95039
438 1 15.7251 18.8709 3.1435 -8.95044
439 1 17.2975 20.4429 4.71646 -8.9496
440 1 18.8701 18.8704 3.14372 -8.94855
441 1 20.4416 20.4419 4.71702 -8.94961
500 1 6.27389 15.7384 9.43398 -8.94381
499 1 3.13914 15.7271 9.43475 -8.94931
498 1 -0.000799239 15.7249 9.43476 -8.95031
497 1 18.8705 12.5796 9.43456 -8.94567
496 1 15.7205 12.5783 9.42968 -8.99883
495 1 12.795 12.5736 9.35758 -8.0895
494 1 9.12863 12.78 9.38177 -7.30314
449 1 22.0142 12.5792 6.28904 -8.95041
450 1 1.56934 14.152 7.86186 -8.95328
451 1 3.14142 12.5784 6.28777 -8.94982
452 1 4.70142 14.1567 7.8574 -8.96519
453 1 6.28013 12.5763 6.28187 -8.94792
454 1 7.79092 14.2252 7.7861 -8.72146
455 1 9.4128 12.601 6.28036 -8.9218
456 1 11.012 14.1381 7.86877 -8.9039
457 1 12.624 12.6109 6.25012 -8.88638
458 1 14.1879 14.1839 7.82656 -8.86264
459 1 15.7413 12.5815 6.27825 -8.95176
460 1 17.305 14.1536 7.86029 -8.95835
461 1 18.8742 12.5795 6.28773 -8.95127
462 1 20.443 14.1521 7.86209 -8.95147
463 1 22.0132 15.7248 6.28914 -8.95111
464 1 1.57031 17.298 7.86182 -8.94939
465 1 3.13785 15.7272 6.28645 -8.95299
466 1 4.71085 17.3025 7.8601 -8.94728
467 1 6.26443 15.7494 6.26417 -8.90136
468 1 7.85365 17.3162 7.85465 -8.96139
469 1 9.43809 15.7335 6.28216 -8.95079
470 1 11.0064 17.2948 7.86413 -8.94407
471 1 12.5797 15.7313 6.28459 -8.96035
472 1 14.1565 17.3054 7.85838 -8.95507
473 1 15.7365 15.7361 6.27844 -8.93249
474 1 17.2996 17.2992 7.86142 -8.94873
475 1 18.8725 15.7259 6.28838 -8.95137
476 1 20.4421 17.2975 7.86204 -8.94955
477 1 -0.000422112 18.8698 6.28944 -8.94948
478 1 1.57167 20.4422 7.86199 -8.94942
479 1 3.14256 18.8712 6.28861 -8.94924
480 1 4.71556 20.4437 7.86153 -8.94903
481 1 6.28563 18.877 6.28541 -8.95154
482 1 7.86148 20.4458 7.86129 -8.95379
483 1 9.43591 18.8725 6.28812 -8.95007
484 1 11.0073 20.4422 7.86184 -8.94752
485 1 12.579 18.871 6.28924 -8.95136
486 1 14.1524 20.4436 7.86172 -8.95151
487 1 15.7264 18.8731 6.28778 -8.95033
530 1 14.1543 17.303 11.0066 -8.95226
531 1 17.299 17.2987 11.0075 -8.94775
399 1 20.4433 11.0066 4.7161 -8.94963
398 1 17.3029 11.0059 4.71257 -8.94738
394 1 4.71439 11.0055 4.71412 -8.94528
393 1 1.57148 11.0065 4.71612 -8.94932
50 1 -0.000159099 22.0141 3.14463 -8.94962
688 3 10.2672 11.114 9.4801 2.21986
101 1 3.14402 22.0144 6.2893 -8.94935
526 1 1.57044 17.2979 11.0075 -8.94924
527 1 4.71157 17.3019 11.0086 -8.9462
532 1 20.4419 17.2975 11.0073 -8.94947
383 1 6.28946 18.8696 -0.000404122 -8.9497
377 1 18.8697 15.7246 -0.000591733 -8.94944
686 1 20.4416 20.4416 20.4415 -8.94943
685 1 18.8695 18.8694 18.8693 -8.94954
684 1 17.2969 20.4418 20.4417 -8.94964
683 1 15.7249 18.8697 18.87 -8.94972
682 1 14.152 20.4418 20.4417 -8.94947
681 1 12.5797 18.8699 18.8702 -8.94934
680 1 11.007 20.4419 20.4417 -8.94954
519 1 1.57013 14.1518 11.0071 -8.95167
520 1 4.70665 14.1556 11.009 -8.96066
521 1 7.81339 14.2132 11.062 -8.78914
522 1 10.9966 14.3003 11.0561 -8.25693
523 1 14.1607 14.172 11.0156 -8.90263
524 1 17.2989 14.1523 11.006 -8.95217
525 1 20.442 14.1519 11.0071 -8.9498
305 1 15.7245 22.014 18.8695 -8.94952
299 1 6.28944 22.0141 18.8695 -8.94951
528 1 7.85577 17.3134 11.0097 -8.96011
529 1 11.0057 17.3031 11.0085 -8.9846
391 1 18.8696 18.8696 22.0134 -8.94923
389 1 15.7245 18.8696 22.0136 -8.94981
258 1 18.8694 22.014 15.7244 -8.94971
533 1 1.57167 20.4421 11.0071 -8.94943
254 1 12.5798 22.0144 15.7253 -8.94933
535 1 7.86121 20.4456 11.007 -8.95234
252 1 9.43433 22.0145 15.7254 -8.94937
248 1 3.14407 22.0142 15.7249 -8.94955
207 1 15.7249 22.0143 12.5794 -8.94965
539 1 20.4417 20.4419 11.0071 -8.94954
679 1 9.43437 18.8699 18.8702 -8.94941
678 1 7.86197 20.4419 20.4417 -8.94949
677 1 6.28905 18.8698 18.8702 -8.94964
676 1 4.71698 20.4418 20.4417 -8.94959
675 1 3.14422 18.8695 18.8696 -8.94965
674 1 1.57216 20.4417 20.4415 -8.94946
673 1 22.0139 18.8692 18.8692 -8.94969
547 1 22.0137 12.5793 12.5798 -8.94962
548 1 1.57139 14.1516 14.1525 -8.94951
549 1 3.14292 12.5788 12.5802 -8.94925
550 1 4.71416 14.1516 14.1542 -8.94996
551 1 6.28544 12.578 12.5812 -8.94745
552 1 7.85616 14.1566 14.1658 -8.96007
553 1 9.42284 12.5968 12.5729 -8.88174
554 1 11.0062 14.157 14.1577 -8.96083
555 1 12.5953 12.6024 12.5785 -8.86517
556 1 14.1581 14.157 14.1592 -8.94507
557 1 15.728 12.5809 12.5791 -8.95152
558 1 17.2991 14.1525 14.1529 -8.95003
559 1 18.8706 12.5796 12.5797 -8.94979
560 1 20.442 14.1519 14.1523 -8.94974
561 1 22.0131 15.7245 12.5798 -8.95072
562 1 1.57045 17.2976 14.1529 -8.95046
563 1 3.13935 15.7262 12.5815 -8.95326
564 1 4.70988 17.3027 14.1582 -8.94303
565 1 6.26852 15.7436 12.598 -8.92496
566 1 7.85401 17.3077 14.1625 -8.93798
567 1 9.41461 15.7564 12.6085 -8.89385
568 1 11.0078 17.3051 14.1597 -8.94193
569 1 12.5982 15.7518 12.6036 -8.90799
570 1 14.1598 17.3058 14.1602 -8.94011
571 1 15.7316 15.7299 12.5837 -8.95066
572 1 17.2999 17.2988 14.1538 -8.94984
573 1 18.8708 15.7247 12.5797 -8.95156
574 1 20.4419 17.2971 14.1523 -8.95046
575 1 -0.000403321 18.8697 12.5797 -8.9494
576 1 1.57174 20.442 14.1522 -8.94948
577 1 3.14274 18.8708 12.5803 -8.94892
578 1 4.71559 20.4435 14.1531 -8.94995
579 1 6.28612 18.8755 12.5821 -8.95145
580 1 7.86092 20.4448 14.1537 -8.95056
581 1 9.43379 18.8778 12.5828 -8.95522
582 1 11.0074 20.4446 14.1539 -8.94931
583 1 12.5808 18.8759 12.5817 -8.956
584 1 14.1532 20.444 14.1532 -8.95103
585 1 15.726 18.8716 12.58 -8.94989
586 1 17.2975 20.4423 14.1522 -8.94979
587 1 18.8699 18.8699 12.5797 -8.9492
588 1 20.4417 20.4418 14.152 -8.9495
589 1 1.57199 11.0069 17.2972 -8.94953
590 1 4.71606 11.007 17.298 -8.94905
672 1 20.4417 17.2968 20.4414 -8.94955
671 1 18.8696 15.7244 18.8693 -8.94941
670 1 17.2972 17.2971 20.4413 -8.94978
594 1 17.2982 11.0073 17.298 -8.94904
595 1 20.442 11.007 17.2972 -8.94952
596 1 -4.18752e-05 12.5795 15.7248 -8.94957
597 1 1.572 14.1518 17.2972 -8.94939
598 1 3.14351 12.5793 15.7254 -8.94905
599 1 4.71627 14.1517 17.298 -8.94897
600 1 6.28756 12.579 15.727 -8.94609
601 1 7.86178 14.1513 17.2997 -8.95333
602 1 9.4359 12.5781 15.7233 -8.94678
603 1 11.007 14.1519 17.2988 -8.95044
604 1 12.5797 12.5793 15.7245 -8.94893
605 1 14.1526 14.1519 17.2987 -8.95141
606 1 15.7274 12.5808 15.7271 -8.94528
607 1 17.2978 14.1523 17.2977 -8.94877
608 1 18.8705 12.5798 15.7252 -8.9493
609 1 20.4419 14.152 17.2971 -8.94943
610 1 22.0138 15.7243 15.7247 -8.94966
611 1 1.57194 17.2968 17.2971 -8.94982
612 1 3.14338 15.7244 15.7255 -8.95003
613 1 4.71568 17.2977 17.2988 -8.94998
614 1 6.28615 15.7268 15.7304 -8.95156
615 1 7.86091 17.2984 17.3002 -8.95025
616 1 9.43352 15.7278 15.7325 -8.95398
617 1 11.0073 17.2985 17.2999 -8.94918
618 1 12.5809 15.7271 15.7308 -8.95459
619 1 14.1531 17.2981 17.2995 -8.95051
620 1 15.7271 15.7263 15.7275 -8.94873
621 1 17.2978 17.2974 17.2978 -8.94945
622 1 18.8701 15.7246 15.7249 -8.94974
623 1 20.4418 17.2968 17.297 -8.94967
624 1 22.0135 18.8695 15.7247 -8.94983
625 1 1.5718 20.442 17.2972 -8.94908
626 1 3.14254 18.8709 15.7262 -8.94777
627 1 4.71624 20.4424 17.2978 -8.94882
628 1 6.28669 18.8726 15.728 -8.94664
629 1 7.86166 20.4424 17.2979 -8.94929
630 1 9.43393 18.8721 15.7274 -8.94823
631 1 11.0071 20.4424 17.2979 -8.94948
632 1 12.5806 18.8718 15.7271 -8.94793
633 1 14.1524 20.4423 17.2977 -8.94924
634 1 15.7271 18.872 15.7271 -8.94692
635 1 17.2976 20.4423 17.2976 -8.94881
636 1 18.8702 18.8699 15.725 -8.94957
637 1 20.4417 20.4418 17.297 -8.94951
669 1 15.7249 15.7246 18.8698 -8.95022
639 1 4.71665 11.0069 20.4415 -8.94957
668 1 14.1521 17.2972 20.4418 -8.94988
667 1 12.5796 15.7247 18.8706 -8.95068
666 1 11.007 17.2974 20.4419 -8.94981
643 1 17.2975 11.007 20.4414 -8.94948
665 1 9.43439 15.7248 18.871 -8.95098
645 1 22.0139 12.5794 18.8693 -8.94957
646 1 1.57219 14.1518 20.4415 -8.94954
647 1 3.14427 12.5794 18.8695 -8.94953
648 1 4.7167 14.1518 20.4414 -8.94949
649 1 6.28885 12.5793 18.87 -8.94942
650 1 7.86187 14.1517 20.4413 -8.95073
651 1 9.43447 12.5792 18.8695 -8.94817
652 1 11.0068 14.152 20.4414 -8.94965
653 1 12.5795 12.5794 18.8695 -8.94891
654 1 14.1522 14.1521 20.441 -8.95054
655 1 15.7254 12.5798 18.87 -8.94932
656 1 17.2974 14.1521 20.4413 -8.94939
657 1 18.8697 12.5795 18.8694 -8.94951
658 1 20.4417 14.1519 20.4414 -8.94955
659 1 22.0139 15.7243 18.8692 -8.9495
660 1 1.57223 17.2967 20.4414 -8.94962
661 1 3.14438 15.7242 18.8694 -8.9495
662 1 4.71671 17.297 20.4414 -8.95019
663 1 6.28909 15.7244 18.8703 -8.95089
664 1 7.86183 17.2972 20.4419 -8.94993
381 1 3.14423 18.8696 22.0132 -8.94946
201 1 6.28873 22.0148 12.5799 -8.95053
355 1 6.28901 12.5792 22.0129 -8.94966
357 1 9.43454 12.5792 22.0129 -8.9492
359 1 12.5793 12.5795 22.0117 -8.95099
365 1 22.0139 15.7243 22.0136 -8.94953
367 1 3.14436 15.7243 22.0134 -8.94958
369 1 6.28902 15.7247 22.0122 -8.95114
371 1 9.43445 15.7249 22.0129 -8.94977
373 1 12.5793 15.7249 22.013 -8.94959
375 1 15.7251 15.7252 22.0122 -8.95038
246 1 -0.000148398 22.014 15.7244 -8.94959
379 1 22.0139 18.8693 22.0136 -8.94961
363 1 18.8698 12.5795 22.0133 -8.94949
