ITEM: TIMESTEP
112
ITEM: NUMBER OF ATOMS
688
ITEM: BOX BOUNDS pp pp pp
0.0000000000000000e+00 2.2013900999999997e+01
0.0000000000000000e+00 2.2013900999999997e+01
0.0000000000000000e+00 2.2013900999999997e+01
ITEM: ATOMS id type x y z c_pot
7 1 9.43448 0.000221378 -0.00018639 -8.94951
2 1 1.57186 1.57238 1.57185 -8.94921
448 1 20.4439 11.0067 7.86201 -8.95095
4 1 4.71683 1.57229 1.57183 -8.9497
447 1 17.3063 11.0052 7.85937 -8.95922
6 1 7.86193 1.57222 1.57185 -8.94942
175 1 18.8715 9.43337 9.43473 -8.94803
8 1 11.007 1.57214 1.57184 -8.9495
174 1 15.7275 9.43139 9.43448 -8.9419
10 1 14.1521 1.57204 1.57191 -8.94945
446 1 14.1918 10.9751 7.81603 -8.88559
12 1 17.2972 1.57196 1.57195 -8.9496
445 1 11.0834 11.0124 7.64431 -8.08868
14 1 20.4417 1.57228 1.57207 -8.94946
444 1 7.8642 10.986 7.84711 -8.86726
16 1 1.57204 4.71676 1.57172 -8.94953
443 1 4.71748 11.0073 7.8618 -8.94867
18 1 4.7162 4.7162 1.57113 -8.94956
442 1 1.57225 11.0069 7.86193 -8.94881
20 1 7.86164 4.71623 1.57145 -8.94918
149 1 3.14347 0.000697485 9.43445 -8.94941
22 1 11.0069 4.71596 1.57134 -8.94952
154 1 18.8696 0.000281376 9.43447 -8.9495
24 1 14.1524 4.71571 1.57118 -8.94949
188 1 17.2987 4.71507 11.0067 -8.94868
26 1 17.2982 4.71547 1.57106 -8.94851
183 1 1.57096 4.71614 11.0071 -8.9494
28 1 20.4423 4.71645 1.57166 -8.94916
397 1 14.1645 11.0047 4.69896 -8.95178
30 1 1.57215 7.86171 1.57169 -8.94935
396 1 11.0122 11.0085 4.7218 -8.99948
32 1 4.71643 7.8616 1.57122 -8.94976
395 1 7.86235 11.0057 4.71355 -8.95105
34 1 7.86176 7.86148 1.57079 -8.95164
35 1 9.43405 6.28862 -0.000346299 -8.94947
36 1 11.0067 7.86045 1.56982 -8.95001
37 1 12.5795 6.28845 -0.000587499 -8.94958
38 1 14.1535 7.86005 1.56846 -8.95151
181 1 17.2976 1.57193 11.0069 -8.94949
40 1 17.2989 7.8604 1.56978 -8.94936
346 1 7.86186 11.0068 1.57096 -8.9498
42 1 20.4424 7.86148 1.57144 -8.94935
164 1 6.2818 6.28101 9.43384 -8.9419
44 1 3.14423 9.43425 -0.000511665 -8.94938
350 1 20.4424 11.0068 1.57131 -8.94942
348 1 14.1543 11.0068 1.56661 -8.95141
347 1 11.0071 11.0068 1.57124 -8.9454
48 1 15.7257 9.4339 -0.00196953 -8.94994
163 1 3.14128 6.28747 9.43413 -8.94915
344 1 1.57202 11.0067 1.57148 -8.94945
51 1 1.57172 1.57235 4.71673 -8.94945
52 1 3.14375 0.000834164 3.14369 -8.94935
53 1 4.7161 1.57219 4.71601 -8.9501
54 1 6.2894 0.000620806 3.14389 -8.94973
55 1 7.86201 1.57205 4.71631 -8.94973
173 1 12.5737 9.4485 9.42888 -8.90437
57 1 11.0072 1.57185 4.71628 -8.94974
172 1 9.38815 9.29262 9.44635 -8.26158
59 1 14.1523 1.57157 4.71661 -8.95032
60 1 15.7246 0.00022045 3.14427 -8.95006
61 1 17.2972 1.5722 4.71685 -8.95006
62 1 18.8695 0.00045849 3.14432 -8.9496
63 1 20.4416 1.5723 4.71698 -8.94948
64 1 22.0137 3.14443 3.14436 -8.94962
65 1 1.57132 4.7164 4.7164 -8.94973
66 1 3.14361 3.14398 3.14359 -8.94889
67 1 4.71416 4.71415 4.71419 -8.94724
68 1 6.28907 3.14384 3.14369 -8.94983
69 1 7.8613 4.7145 4.71537 -8.95004
70 1 9.43437 3.14372 3.14372 -8.94933
71 1 11.0072 4.71422 4.71497 -8.94858
72 1 12.5797 3.14348 3.1437 -8.94927
73 1 14.154 4.71276 4.71474 -8.95043
74 1 15.7253 3.14307 3.1437 -8.94965
75 1 17.2984 4.71495 4.71608 -8.95051
76 1 18.8698 3.14399 3.14424 -8.9498
77 1 20.4419 4.71646 4.71681 -8.94981
78 1 22.0143 6.28895 3.14401 -8.94982
79 1 1.57177 7.86152 4.71642 -8.95031
80 1 3.14348 6.28863 3.14337 -8.94954
81 1 4.71391 7.85971 4.7143 -8.94899
82 1 6.28741 6.28716 3.1414 -8.94973
83 1 7.85764 7.85598 4.70992 -8.94991
84 1 9.43394 6.28734 3.1424 -8.94763
85 1 11.0079 7.85671 4.70977 -8.94615
86 1 12.5804 6.2867 3.14144 -8.94861
87 1 14.164 7.84953 4.704 -8.93234
88 1 15.7285 6.28488 3.14027 -8.94534
89 1 17.3044 7.85629 4.71147 -8.94596
90 1 18.8717 6.28743 3.14272 -8.94833
91 1 20.4437 7.86085 4.71604 -8.95044
92 1 0.00043871 9.434 3.14377 -8.94936
93 1 3.14368 9.4338 3.14338 -8.94868
94 1 6.28866 9.43368 3.1424 -8.94993
95 1 9.43575 9.434 3.14284 -8.95254
96 1 12.5816 9.43263 3.13607 -8.95864
97 1 15.7296 9.43136 3.13757 -8.94901
98 1 18.8719 9.43336 3.14247 -8.94894
99 1 22.0136 0.000320346 6.28942 -8.94947
100 1 1.57161 1.57227 7.86184 -8.94946
166 1 12.5774 6.29194 9.43566 -8.94428
102 1 4.71572 1.57201 7.8614 -8.94933
103 1 6.28866 0.00175594 6.28846 -8.95116
104 1 7.86165 1.57173 7.86151 -8.95134
105 1 9.43495 0.000757714 6.28887 -8.94989
106 1 11.0073 1.57193 7.86168 -8.9488
107 1 12.5796 0.000241782 6.28923 -8.94989
108 1 14.1522 1.57218 7.86189 -8.94989
109 1 15.7249 0.000852608 6.28922 -8.95032
110 1 17.2975 1.57207 7.86178 -8.94947
165 1 9.43362 6.28189 9.43667 -8.98354
112 1 20.4416 1.57223 7.86194 -8.9495
113 1 -0.00032919 3.14434 6.28933 -8.94941
114 1 1.57108 4.7162 7.86163 -8.94931
115 1 3.14339 3.14388 6.28882 -8.94921
116 1 4.71404 4.71422 7.86067 -8.94798
117 1 6.28805 3.14229 6.28805 -8.951
118 1 7.85966 4.71046 7.86081 -8.95559
119 1 9.4348 3.14285 6.28871 -8.95026
120 1 11.0076 4.71559 7.86153 -8.94746
121 1 12.5798 3.14265 6.28893 -8.95147
122 1 14.1523 4.71521 7.86253 -8.95158
123 1 15.7249 3.14353 6.28943 -8.95052
124 1 17.2983 4.71529 7.86157 -8.94841
125 1 18.8697 3.14408 6.28936 -8.94929
126 1 20.4419 4.71633 7.86184 -8.94942
127 1 22.0137 6.28894 6.28929 -8.94988
128 1 1.57096 7.8615 7.86187 -8.95061
129 1 3.14191 6.28798 6.28822 -8.95049
130 1 4.71112 7.8591 7.86068 -8.95429
131 1 6.28161 6.28066 6.28211 -8.94095
132 1 7.83964 7.83563 7.84521 -8.9107
133 1 9.435 6.28326 6.28739 -8.95245
134 1 11.0172 7.86204 7.84971 -8.92233
135 1 12.5833 6.28075 6.28481 -8.95527
136 1 14.1574 7.85465 7.86136 -8.96001
137 1 15.7278 6.28486 6.28773 -8.95285
138 1 17.3003 7.85959 7.86194 -8.94909
139 1 18.8708 6.28817 6.28923 -8.94978
140 1 20.4427 7.86124 7.86205 -8.94956
141 1 22.0147 9.43413 6.28922 -8.95056
142 1 3.143 9.43423 6.28887 -8.95147
143 1 6.28281 9.42931 6.28379 -8.94617
144 1 9.42561 9.41415 6.28043 -8.90131
145 1 12.6158 9.40185 6.25264 -8.86238
146 1 15.7446 9.42099 6.27431 -8.94007
147 1 18.8748 9.43261 6.28767 -8.95305
171 1 6.28473 9.42972 9.43555 -8.96013
170 1 3.1431 9.43442 9.43448 -8.9503
169 1 22.0141 9.43428 9.43463 -8.94955
151 1 9.43475 0.000980711 9.43415 -8.94925
152 1 12.5798 0.000495937 9.43417 -8.9488
168 1 18.871 6.28795 9.43429 -8.9493
167 1 15.728 6.28515 9.43351 -8.94424
155 1 22.0136 3.14426 9.43444 -8.94949
156 1 3.14316 3.1437 9.4343 -8.94943
157 1 6.28716 3.14157 9.43401 -8.94931
158 1 9.43452 3.14237 9.43425 -8.94998
159 1 12.5796 3.1442 9.43422 -8.94734
160 1 15.7256 3.14313 9.43402 -8.94957
161 1 18.8699 3.14397 9.43434 -8.94947
162 1 -0.000437207 6.28875 9.43443 -8.94982
177 1 4.7156 1.57181 11.0072 -8.94937
184 1 4.71348 4.71375 11.0076 -8.94826
41 1 18.8701 6.2889 -0.000698285 -8.94947
19 1 6.28932 3.14436 -0.000157282 -8.94947
25 1 15.7247 3.14409 -0.000182104 -8.94956
176 1 1.57158 1.57223 11.0071 -8.94946
199 1 3.14352 0.000582252 12.5799 -8.94927
178 1 7.86133 1.57112 11.0069 -8.95146
179 1 11.0073 1.57144 11.0067 -8.94925
180 1 14.1526 1.57166 11.0065 -8.94989
644 1 20.442 11.0069 20.4414 -8.94951
182 1 20.4417 1.5722 11.007 -8.94951
642 1 14.1526 11.0072 20.4411 -8.95051
209 1 18.8696 0.000199805 12.5795 -8.94942
185 1 7.85822 4.70797 11.008 -8.95479
186 1 11.0078 4.71257 11.0082 -8.9473
187 1 14.1537 4.71338 11.0058 -8.95023
641 1 11.0068 11.0071 20.4416 -8.94825
189 1 20.442 4.71629 11.007 -8.94949
190 1 1.57047 7.86143 11.0071 -8.95097
191 1 4.70902 7.85811 11.008 -8.95369
192 1 7.8341 7.83014 11.0264 -8.89647
193 1 11.019 7.85433 11.0352 -8.96864
194 1 14.1599 7.85199 11.004 -8.95097
195 1 17.3011 7.85919 11.0064 -8.94807
196 1 20.4427 7.86125 11.007 -8.94977
197 1 22.0136 0.000243639 12.5796 -8.94948
198 1 1.57163 1.57219 14.1523 -8.94944
343 1 18.8701 9.4345 18.8696 -8.94936
200 1 4.7157 1.57165 14.1529 -8.94983
342 1 15.7258 9.43443 18.8707 -8.94971
202 1 7.86131 1.57119 14.1531 -8.95066
203 1 9.43456 0.00130321 12.5802 -8.95146
204 1 11.0073 1.57093 14.1533 -8.95013
205 1 12.58 0.000687426 12.5798 -8.95134
206 1 14.153 1.57067 14.1528 -8.95116
341 1 12.5798 9.43412 18.8726 -8.95345
208 1 17.2976 1.5718 14.1521 -8.94973
340 1 9.43428 9.43428 18.8718 -8.95184
210 1 20.4417 1.57219 14.152 -8.94946
211 1 -0.000345466 3.14427 12.5796 -8.94944
212 1 1.57095 4.71622 14.1527 -8.94965
213 1 3.14311 3.14362 12.58 -8.94924
214 1 4.71284 4.71313 14.1552 -8.9468
215 1 6.28721 3.14107 12.5808 -8.95048
216 1 7.85868 4.7097 14.1561 -8.95168
217 1 9.43438 3.14017 12.5806 -8.95249
218 1 11.0074 4.70965 14.1568 -8.94771
219 1 12.5804 3.13992 12.5803 -8.95381
220 1 14.1569 4.7081 14.1567 -8.95159
221 1 15.7257 3.1427 12.5793 -8.94979
222 1 17.2994 4.71458 14.1529 -8.95029
223 1 18.8699 3.14396 12.5795 -8.94929
224 1 20.4421 4.71641 14.1522 -8.94972
225 1 22.0135 6.28891 12.5797 -8.94997
226 1 1.57093 7.86177 14.1526 -8.95109
227 1 3.14081 6.28758 12.5807 -8.95023
228 1 4.7102 7.85877 14.1559 -8.95176
229 1 6.2785 6.27797 12.5876 -8.93858
230 1 7.84212 7.84076 14.1745 -8.92355
231 1 9.43152 6.27179 12.5867 -8.96065
232 1 11.0077 7.84617 14.1693 -8.94366
233 1 12.5874 6.26906 12.589 -8.96164
234 1 14.1787 7.83526 14.1787 -8.90083
235 1 15.7299 6.28384 12.5805 -8.95103
236 1 17.3059 7.85725 14.1568 -8.95126
237 1 18.8714 6.28818 12.5796 -8.94947
238 1 20.4435 7.86144 14.1527 -8.95134
239 1 22.0141 9.4346 12.5796 -8.95083
240 1 3.14163 9.43484 12.5797 -8.95355
241 1 6.27507 9.42895 12.5858 -8.96078
242 1 9.37775 9.37128 12.6308 -8.78739
243 1 12.6564 9.35966 12.6525 -8.72126
244 1 15.745 9.42534 12.5886 -8.96196
245 1 18.8737 9.43403 12.58 -8.9548
47 1 12.5795 9.4342 22.0123 -8.95157
247 1 1.57176 1.5722 17.2973 -8.94931
46 1 9.43443 9.4344 22.0136 -8.94983
249 1 4.71621 1.57193 17.2979 -8.9495
250 1 6.28855 0.000770732 15.7258 -8.94983
251 1 7.86157 1.57184 17.298 -8.94927
339 1 6.28879 9.4346 18.8704 -8.94952
253 1 11.007 1.57172 17.298 -8.94941
338 1 3.1441 9.43445 18.8697 -8.94934
255 1 14.1525 1.57163 17.2979 -8.9493
256 1 15.7255 0.000227788 15.7254 -8.9501
257 1 17.2978 1.57159 17.2977 -8.94935
45 1 6.28912 9.43435 22.0134 -8.94974
259 1 20.4418 1.57215 17.2971 -8.94959
260 1 22.0136 3.14431 15.7247 -8.94958
261 1 1.57161 4.71655 17.2976 -8.94964
262 1 3.14315 3.14358 15.7256 -8.94884
263 1 4.71461 4.71491 17.2996 -8.94757
264 1 6.28777 3.14225 15.7265 -8.94997
265 1 7.86073 4.71482 17.2995 -8.94882
266 1 9.43392 3.14209 15.7266 -8.94903
267 1 11.0069 4.7145 17.2997 -8.94906
268 1 12.5803 3.14184 15.7266 -8.949
269 1 14.1535 4.71432 17.2998 -8.94911
270 1 15.7267 3.14153 15.7265 -8.94966
271 1 17.2998 4.71434 17.2996 -8.94636
272 1 18.8702 3.1438 15.7249 -8.94982
273 1 20.4425 4.71636 17.2976 -8.94943
274 1 22.0141 6.28908 15.725 -8.95033
275 1 1.57187 7.86199 17.2973 -8.94948
276 1 3.142 6.28814 15.7263 -8.95004
277 1 4.7155 7.86167 17.2986 -8.95002
278 1 6.28223 6.28245 15.7327 -8.94252
279 1 7.85945 7.85947 17.3031 -8.95326
280 1 9.43247 6.28312 15.7311 -8.94603
281 1 11.0068 7.85839 17.3034 -8.94931
282 1 12.5821 6.2825 15.732 -8.94713
283 1 14.1558 7.85832 17.3047 -8.953
284 1 15.7336 6.28065 15.7333 -8.93734
285 1 17.2993 7.86113 17.2991 -8.94999
286 1 18.8726 6.28753 15.7264 -8.94956
287 1 20.4423 7.86192 17.2974 -8.94958
288 1 8.60138e-05 9.43452 15.725 -8.94951
289 1 3.14315 9.4345 15.7255 -8.94892
290 1 6.28664 9.43421 15.728 -8.94981
291 1 9.43213 9.42957 15.736 -8.96099
292 1 12.5847 9.42853 15.7412 -8.96525
293 1 15.7296 9.43357 15.7299 -8.9498
294 1 18.8713 9.43457 15.7256 -8.94943
295 1 22.0137 0.000161942 18.8694 -8.94916
296 1 1.57209 1.57226 20.4417 -8.94916
297 1 3.14418 0.000218464 18.8697 -8.94931
298 1 4.71688 1.57224 20.4418 -8.94953
301 1 9.4344 0.000191944 18.8699 -8.94946
300 1 7.86187 1.57218 20.4418 -8.94948
337 1 22.014 9.43447 18.8694 -8.94949
302 1 11.007 1.57213 20.4418 -8.9495
336 1 20.442 7.86189 20.4414 -8.94947
304 1 14.1521 1.5721 20.4418 -8.94947
39 1 15.7254 6.2883 22.013 -8.95018
306 1 17.2971 1.57208 20.4418 -8.94953
307 1 18.8696 4.2476e-05 18.8696 -8.94921
308 1 20.4418 1.57222 20.4416 -8.94903
309 1 22.0139 3.14444 18.8695 -8.94936
310 1 1.57216 4.71702 20.4416 -8.94967
311 1 3.14392 3.14413 18.87 -8.94896
312 1 4.71644 4.71657 20.4421 -8.94984
313 1 6.28898 3.144 18.8702 -8.9494
314 1 7.86156 4.71635 20.4422 -8.94936
315 1 9.43423 3.14383 18.8702 -8.94935
316 1 11.0068 4.71617 20.4422 -8.94949
317 1 12.5796 3.14377 18.8703 -8.94933
318 1 14.1523 4.71615 20.4422 -8.94944
319 1 15.7251 3.14373 18.8702 -8.94946
320 1 17.2978 4.71616 20.4421 -8.94947
321 1 18.8701 3.14393 18.8699 -8.94863
322 1 20.442 4.71686 20.4416 -8.94954
323 1 22.014 6.28948 18.8694 -8.9496
324 1 1.57217 7.86195 20.4415 -8.94945
325 1 3.14403 6.28937 18.8699 -8.94982
326 1 4.7166 7.86195 20.4418 -8.94968
327 1 6.28813 6.28837 18.8717 -8.95049
328 1 7.86155 7.86169 20.4426 -8.9508
329 1 9.43382 6.28796 18.8717 -8.94922
330 1 11.0067 7.86116 20.4426 -8.95041
331 1 12.5799 6.28782 18.8719 -8.94939
332 1 14.1526 7.86124 20.4425 -8.95124
333 1 15.7263 6.2877 18.8719 -8.95012
334 1 17.2978 7.86157 20.4415 -8.94965
335 1 18.8703 6.28905 18.8699 -8.94972
512 1 1.57212 11.0072 11.0069 -8.94809
513 1 4.71835 11.0084 11.0056 -8.94687
514 1 7.86819 10.9904 11.0195 -8.88347
515 1 11.0576 10.8011 11.3121 -7.30619
516 1 14.1611 10.9838 11.0297 -8.92024
517 1 17.2994 11.0068 11.0061 -8.95127
518 1 20.4425 11.0071 11.0069 -8.9491
540 1 1.57132 11.007 14.1528 -8.94945
541 1 4.71404 11.0071 14.1543 -8.94601
542 1 7.85947 11.008 14.1569 -8.94675
543 1 11.0104 10.9938 14.1505 -9.01921
544 1 14.1602 11.0094 14.1622 -8.94775
545 1 17.3008 11.008 14.154 -8.94824
546 1 20.4426 11.0072 14.1526 -8.94969
591 1 7.86119 11.0074 17.2989 -8.94933
592 1 11.0073 11.0068 17.2981 -8.94669
593 1 14.1541 11.0079 17.3004 -8.94999
638 1 1.5721 11.0069 20.4415 -8.94952
640 1 7.86165 11.007 20.4418 -8.94962
3 1 3.14442 0.000276308 22.0136 -8.94959
5 1 6.28946 0.000233424 22.0137 -8.94946
11 1 15.7245 0.000118376 22.0138 -8.94948
13 1 18.8694 0.000143242 22.0137 -8.94946
15 1 22.014 3.14457 22.0136 -8.94933
17 1 3.1443 3.14438 22.0136 -8.94947
303 1 12.5796 0.000147599 18.8699 -8.94946
33 1 6.28903 6.28907 22.0136 -8.95055
27 1 18.8697 3.14417 22.0137 -8.94919
29 1 22.0141 6.28939 22.0135 -8.94948
31 1 3.14436 6.28937 22.0135 -8.94968
1 1 22.0137 0.000201268 22.0136 -8.94903
21 1 9.43434 3.1442 22.0137 -8.94949
9 1 12.5795 0.000186865 22.0137 -8.9495
23 1 12.5795 3.14413 22.0137 -8.94948
43 1 22.0141 9.43432 22.0134 -8.94949
49 1 18.8702 9.43418 22.013 -8.94937
687 3 10.9623 12.4656 10.1714 2.22463
345 1 4.71611 11.0064 1.57077 -8.94928
511 1 18.8701 18.8704 9.43462 -8.94952
510 1 15.7265 18.8721 9.43423 -8.94858
509 1 12.5799 18.8707 9.43391 -8.94746
349 1 17.2991 11.0066 1.56956 -8.94919
508 1 9.43331 18.8738 9.4337 -8.9473
351 1 22.014 12.5794 -0.000503656 -8.94951
352 1 1.5719 14.1518 1.5714 -8.94936
353 1 3.14413 12.5792 -0.000678878 -8.94948
354 1 4.7159 14.1518 1.57014 -8.94943
538 1 17.2978 20.4426 11.0071 -8.94933
356 1 7.86147 14.1523 1.56779 -8.9548
153 1 15.7252 22.0145 9.43425 -8.94974
358 1 11.0067 14.153 1.56994 -8.94803
150 1 6.28815 22.0154 9.43421 -8.95013
360 1 14.1538 14.1537 1.56664 -8.95305
361 1 15.7258 12.5798 -0.00233119 -8.94966
362 1 17.299 14.153 1.56954 -8.94894
111 1 18.8696 22.0143 6.28939 -8.94945
364 1 20.4424 14.1521 1.57131 -8.94937
537 1 14.1528 20.4435 11.0067 -8.95026
366 1 1.57161 17.2973 1.57123 -8.94972
148 1 -0.000355748 22.0142 9.43452 -8.9495
368 1 4.71505 17.2988 1.56888 -8.94956
58 1 12.5797 22.0143 3.14402 -8.94947
370 1 7.86188 17.2981 1.5701 -8.94947
56 1 9.43462 22.0144 3.1439 -8.94949
372 1 11.0072 17.2984 1.5705 -8.9493
536 1 11.0072 20.4439 11.007 -8.94998
374 1 14.1523 17.2982 1.57067 -8.94978
534 1 4.71492 20.4442 11.0076 -8.94903
376 1 17.2988 17.2989 1.56973 -8.94833
493 1 6.29094 12.5926 9.43113 -9.01922
378 1 20.4422 17.2974 1.57139 -8.94947
492 1 3.14342 12.5795 9.43421 -8.94669
380 1 1.57155 20.4424 1.57137 -8.94863
491 1 22.0138 12.5792 9.43467 -8.94825
382 1 4.7166 20.4425 1.57132 -8.94982
490 1 20.4416 20.4422 7.86198 -8.94948
384 1 7.86201 20.4424 1.57155 -8.94929
385 1 9.43449 18.87 -0.000500415 -8.94949
386 1 11.0071 20.4424 1.57161 -8.94947
387 1 12.5796 18.87 -0.000433084 -8.94942
388 1 14.1521 20.4422 1.57177 -8.94929
489 1 18.8703 18.8706 6.28904 -8.94949
390 1 17.2972 20.4423 1.57167 -8.9498
488 1 17.2978 20.4428 7.86177 -8.94927
392 1 20.4417 20.4422 1.57174 -8.94919
507 1 6.28465 18.8767 9.43411 -8.94771
506 1 3.14177 18.8718 9.43457 -8.94906
505 1 22.0132 18.8701 9.43465 -8.94949
504 1 18.8717 15.7259 9.43477 -8.95001
503 1 15.7317 15.7296 9.43359 -8.94615
502 1 12.5918 15.7243 9.42423 -8.92233
501 1 9.40631 15.732 9.42248 -8.96864
400 1 0.000289653 12.5793 3.14363 -8.94947
401 1 1.57076 14.1519 4.71573 -8.94971
402 1 3.14323 12.5789 3.14287 -8.94902
403 1 4.7116 14.1528 4.71186 -8.9498
404 1 6.28743 12.5783 3.14067 -8.94824
405 1 7.85284 14.161 4.69644 -8.96196
406 1 9.43543 12.5796 3.14209 -8.95127
407 1 11.007 14.1549 4.71394 -8.9419
408 1 12.5821 12.5811 3.1352 -8.95922
409 1 14.1672 14.1653 4.69684 -8.94007
410 1 15.73 12.5807 3.13742 -8.94731
411 1 17.3039 14.155 4.71189 -8.94901
412 1 18.8719 12.5797 3.14239 -8.94919
413 1 20.4434 14.1524 4.71578 -8.94994
414 1 22.0139 15.7247 3.14366 -8.94965
415 1 1.56953 17.2986 4.71517 -8.95012
416 1 3.14238 15.7252 3.14219 -8.94999
417 1 4.70816 17.3057 4.70792 -8.93734
418 1 6.28471 15.7291 3.13553 -8.95126
419 1 7.86101 17.3025 4.71163 -8.95103
420 1 9.43508 15.7271 3.14037 -8.94807
421 1 11.008 17.3012 4.71343 -8.94424
422 1 12.5795 15.7267 3.14114 -8.94909
423 1 14.1537 17.3015 4.71367 -8.95285
424 1 15.73 15.73 3.13711 -8.94596
425 1 17.3012 17.3014 4.71302 -8.94534
426 1 18.8717 15.7259 3.14254 -8.94936
427 1 20.4424 17.298 4.71608 -8.95018
428 1 22.0133 18.8702 3.14372 -8.94947
429 1 1.57128 20.4426 4.71642 -8.94946
430 1 3.14191 18.872 3.1417 -8.94636
431 1 4.71499 20.4448 4.71482 -8.94966
432 1 6.28858 18.8717 3.14208 -8.95029
433 1 7.86218 20.4436 4.71581 -8.94979
434 1 9.43475 18.8713 3.14281 -8.94868
435 1 11.0075 20.4432 4.71593 -8.94957
436 1 12.5799 18.871 3.1432 -8.94841
437 1 14.1521 20.4428 4.71656 -8.95052
438 1 15.7254 18.8714 3.14306 -8.95051
439 1 17.2978 20.4433 4.7162 -8.94965
440 1 18.8704 18.8708 3.14328 -8.94851
441 1 20.4417 20.4422 4.71679 -8.94956
500 1 6.27215 15.7402 9.43376 -8.94366
499 1 3.13809 15.7279 9.43463 -8.94931
498 1 -0.00115357 15.7252 9.43477 -8.95041
497 1 18.8702 12.5795 9.43435 -8.9454
496 1 15.7197 12.5778 9.42924 -8.99948
495 1 12.7972 12.5739 9.3581 -8.08867
494 1 9.12939 12.7852 9.38384 -7.30632
449 1 22.0143 12.5791 6.28884 -8.95051
450 1 1.5689 14.1522 7.86167 -8.95345
451 1 3.14112 12.5784 6.28739 -8.94999
452 1 4.70024 14.1578 7.85675 -8.96525
453 1 6.27931 12.5769 6.28124 -8.94775
454 1 7.78899 14.2267 7.78508 -8.72122
455 1 9.41178 12.6025 6.2804 -8.92024
456 1 11.0126 14.1378 7.86777 -8.90438
457 1 12.6254 12.6112 6.24968 -8.88559
458 1 14.1888 14.1845 7.82565 -8.86238
459 1 15.7425 12.5816 6.27702 -8.95178
460 1 17.3054 14.1537 7.85984 -8.95864
461 1 18.8749 12.5795 6.28718 -8.95141
462 1 20.443 14.1521 7.86198 -8.95157
463 1 22.0129 15.7251 6.28889 -8.95124
464 1 1.56961 17.2985 7.86158 -8.94939
465 1 3.13678 15.728 6.28567 -8.953
466 1 4.7095 17.3038 7.85942 -8.94713
467 1 6.26281 15.7511 6.26273 -8.90083
468 1 7.85247 17.3173 7.85412 -8.96164
469 1 9.43745 15.7343 6.28158 -8.95097
470 1 11.0058 17.2944 7.86411 -8.94428
471 1 12.5801 15.7317 6.28405 -8.96001
472 1 14.1567 17.3056 7.85817 -8.95527
473 1 15.7375 15.7368 6.27751 -8.93234
474 1 17.3 17.2996 7.86113 -8.94861
475 1 18.873 15.7263 6.288 -8.95151
476 1 20.4421 17.2979 7.86193 -8.94958
477 1 -0.000694328 18.8702 6.2892 -8.94944
478 1 1.57123 20.4426 7.86185 -8.94933
479 1 3.14169 18.872 6.28802 -8.94911
480 1 4.7149 20.4445 7.86121 -8.949
481 1 6.28481 18.8782 6.28462 -8.95159
482 1 7.86113 20.4464 7.86104 -8.95381
483 1 9.4357 18.8729 6.2878 -8.95023
484 1 11.0073 20.4421 7.86183 -8.94734
485 1 12.5789 18.8711 6.28915 -8.95158
486 1 14.1526 20.4437 7.86165 -8.95147
487 1 15.7267 18.8736 6.28749 -8.95043
530 1 14.1541 17.3031 11.0065 -8.95245
531 1 17.2991 17.299 11.0075 -8.94763
399 1 20.4438 11.0065 4.71568 -8.94966
398 1 17.3041 11.0056 4.71152 -8.94731
394 1 4.71425 11.0053 4.71381 -8.94522
393 1 1.57154 11.0063 4.71585 -8.94935
50 1 -0.000296415 22.0142 3.14439 -8.94953
688 3 10.2701 11.1206 9.47921 2.22464
101 1 3.14358 22.0147 6.28899 -8.9493
526 1 1.56977 17.2984 11.0077 -8.94922
527 1 4.71035 17.3032 11.009 -8.94603
532 1 20.4418 17.2977 11.0074 -8.94947
383 1 6.28929 18.8699 -0.000646685 -8.94972
377 1 18.87 15.7248 -0.000956391 -8.94935
686 1 20.4417 20.4418 20.4414 -8.94933
685 1 18.8698 18.8696 18.8694 -8.94953
684 1 17.2971 20.4419 20.4417 -8.94962
683 1 15.7251 18.8699 18.8702 -8.94973
682 1 14.1521 20.442 20.4418 -8.94941
681 1 12.5799 18.8701 18.8704 -8.94931
680 1 11.007 20.4421 20.4418 -8.94949
519 1 1.56969 14.152 11.0072 -8.95184
520 1 4.70544 14.1568 11.0094 -8.96099
521 1 7.81066 14.215 11.0637 -8.78736
522 1 10.9951 14.2937 11.0533 -8.26162
523 1 14.161 14.1722 11.0159 -8.90131
524 1 17.2986 14.1523 11.0057 -8.95254
525 1 20.4417 14.1519 11.0071 -8.94983
305 1 15.7247 22.014 18.8698 -8.94945
299 1 6.28922 22.0141 18.8699 -8.94944
528 1 7.85473 17.3145 11.01 -8.96065
529 1 11.0048 17.3044 11.0079 -8.98354
391 1 18.8698 18.8699 22.0131 -8.94916
389 1 15.7247 18.8699 22.0134 -8.94981
258 1 18.8697 22.014 15.7246 -8.9497
533 1 1.57124 20.4425 11.0072 -8.94935
254 1 12.5801 22.0143 15.7258 -8.94933
535 1 7.86089 20.4462 11.0071 -8.95249
252 1 9.43428 22.0145 15.7259 -8.94937
248 1 3.14362 22.0144 15.7253 -8.9495
207 1 15.7252 22.0143 12.5795 -8.94973
539 1 20.4416 20.4421 11.0071 -8.94949
679 1 9.43435 18.8702 18.8705 -8.9494
678 1 7.86187 20.4421 20.4418 -8.94944
677 1 6.28883 18.8701 18.8705 -8.94965
676 1 4.71676 20.442 20.4417 -8.94958
675 1 3.14386 18.8698 18.8699 -8.94964
674 1 1.57195 20.4419 20.4414 -8.94936
673 1 22.0138 18.8693 18.8693 -8.94967
547 1 22.0136 12.5793 12.5798 -8.94962
548 1 1.57106 14.1517 14.1527 -8.94952
549 1 3.14263 12.5789 12.5803 -8.94933
550 1 4.71347 14.1521 14.1548 -8.94981
551 1 6.28454 12.5784 12.582 -8.94676
552 1 7.85564 14.1574 14.1664 -8.96078
553 1 9.42197 12.5959 12.5733 -8.88346
554 1 11.0059 14.1566 14.1568 -8.96013
555 1 12.5944 12.6004 12.5773 -8.86726
556 1 14.1577 14.157 14.1587 -8.94617
557 1 15.7279 12.5806 12.5791 -8.95105
558 1 17.2991 14.1526 14.1528 -8.94993
559 1 18.8705 12.5796 12.5796 -8.9498
560 1 20.442 14.152 14.1524 -8.94974
561 1 22.0127 15.7246 12.5799 -8.9508
562 1 1.56982 17.298 14.1533 -8.95049
563 1 3.13839 15.7269 12.582 -8.95326
564 1 4.7088 17.3039 14.1593 -8.94252
565 1 6.26701 15.7456 12.5994 -8.92355
566 1 7.85384 17.3084 14.163 -8.93858
567 1 9.41509 15.7562 12.6074 -8.89647
568 1 11.0076 17.3053 14.1597 -8.9419
569 1 12.5963 15.7507 12.6018 -8.9107
570 1 14.1594 17.3057 14.1599 -8.94095
571 1 15.7316 15.7303 12.5838 -8.94991
572 1 17.3001 17.2992 14.1541 -8.94973
573 1 18.8707 15.7248 12.5797 -8.95164
574 1 20.4418 17.2973 14.1525 -8.95055
575 1 -0.000708841 18.87 12.5799 -8.94936
576 1 1.57131 20.4423 14.1525 -8.9494
577 1 3.14195 18.8715 12.5807 -8.94882
578 1 4.71497 20.4441 14.1537 -8.94997
579 1 6.28534 18.8766 12.5828 -8.95168
580 1 7.86067 20.4453 14.1543 -8.95048
581 1 9.43345 18.8783 12.5833 -8.95479
582 1 11.0075 20.4448 14.1543 -8.94931
583 1 12.5807 18.8759 12.5818 -8.95559
584 1 14.1534 20.444 14.1534 -8.951
585 1 15.7261 18.8718 12.5802 -8.95004
586 1 17.2978 20.4425 14.1524 -8.94983
587 1 18.87 18.8701 12.5798 -8.94918
588 1 20.4416 20.442 14.1522 -8.94947
589 1 1.57185 11.007 17.2974 -8.94948
590 1 4.71579 11.0069 17.2983 -8.94901
672 1 20.4418 17.2969 20.4413 -8.94948
671 1 18.8698 15.7246 18.8693 -8.94935
670 1 17.2975 17.2974 20.4411 -8.94982
594 1 17.2986 11.0074 17.2983 -8.94902
595 1 20.4422 11.0071 17.2973 -8.94948
596 1 -7.5835e-05 12.5795 15.725 -8.94955
597 1 1.57183 14.1519 17.2974 -8.94934
598 1 3.14323 12.5794 15.7257 -8.94901
599 1 4.71597 14.1518 17.2983 -8.94892
600 1 6.2872 12.5792 15.7274 -8.94601
601 1 7.86175 14.1515 17.2998 -8.95355
602 1 9.43589 12.5779 15.7231 -8.94687
603 1 11.007 14.1519 17.2984 -8.9503
604 1 12.5797 12.579 15.724 -8.94867
605 1 14.1526 14.1521 17.2985 -8.95147
606 1 15.7277 12.5811 15.7272 -8.94522
607 1 17.2981 14.1525 17.2978 -8.94868
608 1 18.8707 12.58 15.7254 -8.94928
609 1 20.442 14.1521 17.2972 -8.94938
610 1 22.0136 15.7244 15.7249 -8.94968
611 1 1.57163 17.297 17.2974 -8.94982
612 1 3.14285 15.7246 15.726 -8.95002
613 1 4.71517 17.2982 17.2995 -8.95004
614 1 6.28557 15.7275 15.7313 -8.95176
615 1 7.86077 17.2987 17.3007 -8.95023
616 1 9.43352 15.7282 15.7325 -8.95369
617 1 11.0073 17.2989 17.3002 -8.94915
618 1 12.5808 15.7272 15.7304 -8.95429
619 1 14.1533 17.2983 17.2996 -8.95049
620 1 15.7272 15.7266 15.7276 -8.94899
621 1 17.2981 17.2977 17.298 -8.94954
622 1 18.8703 15.7247 15.725 -8.94976
623 1 20.4418 17.2969 17.2971 -8.94968
624 1 22.0133 18.8698 15.725 -8.94984
625 1 1.57145 20.4422 17.2976 -8.94896
626 1 3.14185 18.8714 15.7269 -8.94757
627 1 4.71584 20.4427 17.2983 -8.94884
628 1 6.28626 18.8732 15.7286 -8.9468
629 1 7.86148 20.4427 17.2984 -8.94924
630 1 9.43389 18.8726 15.728 -8.94826
631 1 11.0072 20.4426 17.2983 -8.94943
632 1 12.5808 18.8721 15.7274 -8.94798
633 1 14.1527 20.4424 17.2981 -8.94921
634 1 15.7273 18.8722 15.7273 -8.94724
635 1 17.2979 20.4423 17.2979 -8.94889
636 1 18.8703 18.8701 15.7253 -8.94956
637 1 20.4417 20.4419 17.2972 -8.94947
669 1 15.7251 15.7248 18.8697 -8.95031
639 1 4.71646 11.0068 20.4416 -8.94955
668 1 14.1522 17.2974 20.4417 -8.94988
667 1 12.5796 15.7248 18.8705 -8.95061
666 1 11.0071 17.2976 20.4419 -8.94982
643 1 17.2979 11.007 20.4412 -8.94947
665 1 9.43443 15.7249 18.871 -8.95097
645 1 22.0139 12.5795 18.8694 -8.94952
646 1 1.57209 14.1519 20.4414 -8.94949
647 1 3.14407 12.5794 18.8696 -8.94948
648 1 4.71649 14.1518 20.4414 -8.94951
649 1 6.28871 12.5793 18.8702 -8.94945
650 1 7.86187 14.1517 20.4413 -8.95083
651 1 9.43454 12.5792 18.8694 -8.94809
652 1 11.0069 14.152 20.4413 -8.94955
653 1 12.5795 12.5795 18.8692 -8.94881
654 1 14.1523 14.1522 20.4406 -8.95056
655 1 15.7256 12.58 18.8699 -8.94935
656 1 17.2977 14.1523 20.441 -8.94936
657 1 18.87 12.5797 18.8695 -8.94945
658 1 20.4419 14.152 20.4413 -8.94949
659 1 22.0139 15.7244 18.8693 -8.94945
660 1 1.57207 17.2968 20.4414 -8.9496
661 1 3.14413 15.7243 18.8696 -8.94948
662 1 4.71644 17.2972 20.4413 -8.95033
663 1 6.28892 15.7246 18.8706 -8.95109
664 1 7.86176 17.2974 20.4419 -8.94997
381 1 3.14391 18.87 22.0129 -8.94943
201 1 6.28837 22.0151 12.5802 -8.95066
355 1 6.28888 12.5791 22.0128 -8.94969
357 1 9.43461 12.5792 22.0129 -8.9491
359 1 12.5795 12.5796 22.0115 -8.95095
365 1 22.014 15.7244 22.0134 -8.94947
367 1 3.1441 15.7244 22.0131 -8.94958
369 1 6.28882 15.7249 22.0119 -8.95134
371 1 9.43446 15.7251 22.0127 -8.94977
373 1 12.5794 15.7251 22.0127 -8.94956
375 1 15.7254 15.7255 22.0117 -8.95044
246 1 -0.000300372 22.0141 15.7246 -8.94953
379 1 22.0138 18.8695 22.0134 -8.94954
363 1 18.8702 12.5796 22.0129 -8.94942
