ITEM: TIMESTEP
64
ITEM: NUMBER OF ATOMS
688
ITEM: BOX BOUNDS pp pp pp
0.0000000000000000e+00 2.2013900999999997e+01
0.0000000000000000e+00 2.2013900999999997e+01
0.0000000000000000e+00 2.2013900999999997e+01
ITEM: ATOMS id type x y z c_pot
7 1 9.43451 0.000109647 -0.000116469 -8.94959
2 1 1.57213 1.57236 1.57214 -8.9493
448 1 20.4435 11.0068 7.86216 -8.95101
4 1 4.71711 1.57229 1.57212 -8.94972
447 1 17.3058 11.0055 7.86023 -8.95914
6 1 7.86204 1.57227 1.57208 -8.9495
175 1 18.8712 9.43359 9.43488 -8.9481
8 1 11.007 1.57224 1.57206 -8.94956
174 1 15.7273 9.43198 9.43489 -8.94166
10 1 14.1519 1.57222 1.57212 -8.94951
446 1 14.1912 10.9757 7.81822 -8.88675
12 1 17.2969 1.57216 1.57216 -8.94959
445 1 11.0843 11.0127 7.6473 -8.08988
14 1 20.4416 1.57235 1.57228 -8.94955
444 1 7.86265 10.9833 7.84597 -8.86422
16 1 1.57219 4.71701 1.57204 -8.94955
443 1 4.71677 11.007 7.86182 -8.94895
18 1 4.71656 4.71653 1.57141 -8.94957
442 1 1.57193 11.0069 7.86199 -8.94897
20 1 7.86185 4.71656 1.57162 -8.94922
149 1 3.14412 0.000337209 9.43452 -8.94948
22 1 11.0069 4.71639 1.57157 -8.94954
154 1 18.8694 0.00018325 9.43451 -8.94956
24 1 14.1521 4.71632 1.57157 -8.94959
188 1 17.2981 4.71572 11.0067 -8.94879
26 1 17.2976 4.71617 1.57152 -8.94859
183 1 1.57141 4.71653 11.0071 -8.94941
28 1 20.4419 4.71685 1.57201 -8.94926
397 1 14.1626 11.0049 4.70084 -8.95175
30 1 1.57219 7.86194 1.57202 -8.94944
396 1 11.0116 11.0078 4.72052 -8.99853
32 1 4.71663 7.86182 1.57144 -8.94972
395 1 7.86244 11.0054 4.71345 -8.95169
34 1 7.86176 7.86164 1.57072 -8.9515
35 1 9.43421 6.28897 -0.000473691 -8.94948
36 1 11.0066 7.86079 1.56999 -8.94992
37 1 12.5794 6.28892 -0.000549727 -8.94954
38 1 14.153 7.86054 1.56917 -8.9513
181 1 17.2972 1.57214 11.0069 -8.94953
40 1 17.2981 7.86107 1.57065 -8.94944
346 1 7.86179 11.0068 1.57091 -8.94978
42 1 20.4419 7.86185 1.57192 -8.94948
164 1 6.28195 6.28148 9.43373 -8.942
44 1 3.14445 9.43439 -0.000346112 -8.94945
350 1 20.4419 11.0069 1.57186 -8.94952
348 1 14.1535 11.0068 1.56762 -8.95118
347 1 11.0068 11.0067 1.57087 -8.94585
48 1 15.7251 9.43413 -0.00137994 -8.94985
163 1 3.14172 6.28794 9.43428 -8.94919
344 1 1.57209 11.0068 1.57189 -8.94954
51 1 1.57208 1.57231 4.71707 -8.94955
52 1 3.14425 0.000417201 3.14424 -8.94941
53 1 4.71652 1.57204 4.71647 -8.95001
54 1 6.28961 0.000268545 3.14436 -8.9497
55 1 7.86209 1.572 4.71664 -8.94963
173 1 12.5725 9.4479 9.42974 -8.90355
57 1 11.0071 1.57191 4.71656 -8.94969
172 1 9.38391 9.28283 9.44419 -8.25428
59 1 14.1521 1.57176 4.71682 -8.95023
60 1 15.7244 0.000111014 3.14451 -8.94994
61 1 17.297 1.57231 4.71706 -8.94994
62 1 18.8693 0.000259827 3.1446 -8.94959
63 1 20.4415 1.57235 4.71718 -8.94955
64 1 22.0137 3.14462 3.14463 -8.94964
65 1 1.57155 4.71667 4.71671 -8.94972
66 1 3.14399 3.14414 3.14399 -8.94879
67 1 4.7145 4.71442 4.71449 -8.9468
68 1 6.28936 3.14409 3.14406 -8.94978
69 1 7.86155 4.71493 4.71561 -8.94984
70 1 9.43444 3.14399 3.14403 -8.94938
71 1 11.0072 4.71464 4.71535 -8.9485
72 1 12.5796 3.14388 3.14406 -8.94928
73 1 14.1536 4.71347 4.71523 -8.95028
74 1 15.7249 3.14361 3.14406 -8.94958
75 1 17.2978 4.7157 4.71656 -8.9504
76 1 18.8694 3.14439 3.14454 -8.94977
77 1 20.4417 4.71685 4.71708 -8.94981
78 1 22.0141 6.2893 3.14439 -8.94976
79 1 1.57174 7.86178 4.71668 -8.95016
80 1 3.1438 6.28899 3.14378 -8.94943
81 1 4.71413 7.86016 4.71455 -8.94865
82 1 6.28778 6.28765 3.14171 -8.94988
83 1 7.85783 7.8567 4.70988 -8.95099
84 1 9.434 6.28777 3.14261 -8.94782
85 1 11.0074 7.85725 4.71013 -8.94685
86 1 12.5799 6.28737 3.1421 -8.94881
87 1 14.1626 7.85059 4.70542 -8.93256
88 1 15.7275 6.28592 3.14125 -8.94546
89 1 17.3029 7.85736 4.71267 -8.94605
90 1 18.8709 6.2882 3.14342 -8.94842
91 1 20.443 7.8613 4.71647 -8.95033
92 1 0.000139051 9.43428 3.14423 -8.94941
93 1 3.14385 9.43412 3.14377 -8.94882
94 1 6.28863 9.43397 3.14247 -8.95006
95 1 9.43533 9.43401 3.1425 -8.95197
96 1 12.581 9.43277 3.13664 -8.95819
97 1 15.7282 9.43205 3.13912 -8.94916
98 1 18.8709 9.43388 3.14338 -8.94907
99 1 22.0138 0.000116077 6.28961 -8.94957
100 1 1.57203 1.57228 7.86202 -8.94956
166 1 12.5774 6.29128 9.43491 -8.94404
102 1 4.7163 1.57194 7.86172 -8.94933
103 1 6.28903 0.00111978 6.2889 -8.95104
104 1 7.86181 1.57154 7.86168 -8.95132
105 1 9.43487 0.000495531 6.28909 -8.94984
106 1 11.0072 1.57189 7.86178 -8.94903
107 1 12.5795 0.000219998 6.28932 -8.94988
108 1 14.1522 1.5722 7.86195 -8.94988
109 1 15.7247 0.000662099 6.28937 -8.95023
110 1 17.2972 1.57219 7.86193 -8.94948
165 1 9.43281 6.28358 9.4355 -8.98511
112 1 20.4416 1.57232 7.86205 -8.94958
113 1 -0.000193663 3.14456 6.28955 -8.94949
114 1 1.57144 4.71655 7.86184 -8.94936
115 1 3.1439 3.14409 6.2892 -8.94927
116 1 4.71461 4.71467 7.86097 -8.94795
117 1 6.28838 3.14237 6.28833 -8.95101
118 1 7.85984 4.71047 7.8607 -8.95611
119 1 9.43481 3.14291 6.28884 -8.95016
120 1 11.0073 4.71542 7.86155 -8.9481
121 1 12.5797 3.14284 6.28912 -8.9515
122 1 14.1522 4.71536 7.86252 -8.95126
123 1 15.7247 3.14388 6.28958 -8.95033
124 1 17.2978 4.71583 7.86179 -8.94852
125 1 18.8694 3.1444 6.28954 -8.94935
126 1 20.4417 4.71671 7.86197 -8.94949
127 1 22.0136 6.28924 6.28946 -8.94988
128 1 1.57084 7.86169 7.86194 -8.9507
129 1 3.14212 6.28829 6.28844 -8.95052
130 1 4.71063 7.85936 7.86055 -8.95471
131 1 6.28129 6.28056 6.28165 -8.93971
132 1 7.83714 7.83422 7.84253 -8.90651
133 1 9.43491 6.28346 6.28716 -8.95218
134 1 11.0175 7.86105 7.84875 -8.92021
135 1 12.583 6.28102 6.28511 -8.955
136 1 14.1567 7.85525 7.86197 -8.96041
137 1 15.727 6.28572 6.2884 -8.95279
138 1 17.2996 7.86015 7.86239 -8.94915
139 1 18.8702 6.28873 6.28955 -8.94979
140 1 20.4422 7.86151 7.86216 -8.9496
141 1 22.0143 9.4343 6.28937 -8.95052
142 1 3.14276 9.43444 6.28894 -8.95136
143 1 6.2822 9.42952 6.28337 -8.94472
144 1 9.42602 9.41457 6.28091 -8.90326
145 1 12.6145 9.40261 6.25401 -8.86265
146 1 15.743 9.42194 6.27601 -8.94009
147 1 18.8738 9.43304 6.28829 -8.95289
171 1 6.28332 9.4293 9.43512 -8.96125
170 1 3.14257 9.4345 9.43455 -8.95051
169 1 22.0139 9.43436 9.43466 -8.94971
151 1 9.43478 0.000826815 9.43425 -8.94942
152 1 12.5797 0.000531672 9.43425 -8.94903
168 1 18.8705 6.28842 9.43439 -8.94934
167 1 15.7274 6.2858 9.43361 -8.94449
155 1 22.0137 3.14452 9.4345 -8.94956
156 1 3.1438 3.14402 9.43444 -8.9495
157 1 6.28775 3.1419 9.43416 -8.9493
158 1 9.43452 3.14252 9.43416 -8.94941
159 1 12.5797 3.14408 9.43416 -8.94763
160 1 15.7252 3.14351 9.43416 -8.94957
161 1 18.8696 3.14431 9.43444 -8.94954
162 1 -0.000421143 6.28907 9.43449 -8.9498
177 1 4.71626 1.57187 11.0071 -8.94937
184 1 4.71436 4.71447 11.0075 -8.94824
41 1 18.8695 6.28933 -0.00040933 -8.94955
19 1 6.28955 3.14458 -0.000158261 -8.94952
25 1 15.7244 3.1445 -0.000143975 -8.94964
176 1 1.57202 1.57228 11.007 -8.94956
199 1 3.14417 0.000279318 12.5796 -8.94937
178 1 7.8616 1.57122 11.0069 -8.95136
179 1 11.0072 1.57159 11.0067 -8.94942
180 1 14.1524 1.57193 11.0066 -8.94984
644 1 20.4417 11.0069 20.4415 -8.94959
182 1 20.4416 1.57231 11.007 -8.94959
642 1 14.1524 11.0071 20.4413 -8.95037
209 1 18.8694 0.00015543 12.5794 -8.9495
185 1 7.85887 4.70878 11.0076 -8.95534
186 1 11.0075 4.71278 11.0073 -8.94843
187 1 14.1532 4.71406 11.0055 -8.95001
641 1 11.0068 11.0071 20.4415 -8.94853
189 1 20.4418 4.71669 11.007 -8.94953
190 1 1.57056 7.86163 11.0071 -8.95096
191 1 4.70912 7.85872 11.008 -8.9541
192 1 7.83262 7.83002 11.0271 -8.89252
193 1 11.0188 7.85285 11.0329 -8.96505
194 1 14.159 7.8532 11.0032 -8.95069
195 1 17.3004 7.85983 11.0063 -8.94814
196 1 20.4424 7.86146 11.007 -8.94977
197 1 22.0138 0.000111505 12.5794 -8.94957
198 1 1.57206 1.57228 14.152 -8.94955
343 1 18.8696 9.43453 18.8694 -8.94944
200 1 4.71637 1.57182 14.1525 -8.94981
342 1 15.7252 9.43456 18.8703 -8.9496
202 1 7.86165 1.5716 14.1526 -8.95047
203 1 9.43458 0.00120556 12.5799 -8.95136
204 1 11.0071 1.57147 14.1528 -8.95001
205 1 12.5798 0.00087674 12.5797 -8.95132
206 1 14.1526 1.5713 14.1524 -8.95104
341 1 12.5796 9.43441 18.8719 -8.95318
208 1 17.2971 1.57215 14.1519 -8.9497
340 1 9.43436 9.43455 18.8712 -8.95159
210 1 20.4416 1.57233 14.1519 -8.94954
211 1 -0.00018975 3.14453 12.5795 -8.94952
212 1 1.57142 4.7166 14.1523 -8.94964
213 1 3.14381 3.14402 12.5797 -8.94932
214 1 4.71386 4.71401 14.1546 -8.9466
215 1 6.28797 3.14178 12.5805 -8.95056
216 1 7.85965 4.71139 14.155 -8.95135
217 1 9.43452 3.14097 12.5802 -8.95224
218 1 11.0072 4.71133 14.1554 -8.94763
219 1 12.5801 3.14082 12.5799 -8.95372
220 1 14.1557 4.70985 14.1555 -8.95151
221 1 15.7251 3.14346 12.5792 -8.94971
222 1 17.2983 4.71561 14.1523 -8.95027
223 1 18.8695 3.14436 12.5794 -8.94938
224 1 20.4418 4.71682 14.152 -8.94969
225 1 22.0135 6.28919 12.5796 -8.94991
226 1 1.57132 7.86195 14.1523 -8.95078
227 1 3.14154 6.28811 12.5805 -8.95025
228 1 4.71152 7.85981 14.1551 -8.95148
229 1 6.27928 6.27904 12.5874 -8.93773
230 1 7.84414 7.84361 14.1722 -8.92566
231 1 9.43197 6.27358 12.5853 -8.95988
232 1 11.0074 7.84869 14.1668 -8.94391
233 1 12.5865 6.27072 12.5873 -8.96127
234 1 14.1765 7.83772 14.1762 -8.90173
235 1 15.7285 6.28529 12.5797 -8.951
236 1 17.3042 7.85839 14.1556 -8.95131
237 1 18.8706 6.28871 12.5794 -8.94944
238 1 20.443 7.86166 14.1524 -8.95104
239 1 22.014 9.43458 12.5796 -8.95068
240 1 3.14195 9.43502 12.5797 -8.9532
241 1 6.27601 9.4302 12.5851 -8.95969
242 1 9.38031 9.37412 12.6268 -8.79009
243 1 12.6548 9.36191 12.6496 -8.72191
244 1 15.7434 9.42691 12.5872 -8.96208
245 1 18.873 9.43422 12.5798 -8.95442
47 1 12.5794 9.43427 22.0124 -8.95143
247 1 1.57212 1.5723 17.2969 -8.9494
46 1 9.43437 9.43441 22.0134 -8.9498
249 1 4.71677 1.57216 17.2972 -8.94957
250 1 6.28902 0.000602931 15.7251 -8.94981
251 1 7.86188 1.57214 17.2973 -8.94937
339 1 6.2891 9.43469 18.87 -8.9495
253 1 11.007 1.57208 17.2974 -8.94948
338 1 3.14441 9.43449 18.8694 -8.94941
255 1 14.1521 1.57207 17.2973 -8.94938
256 1 15.725 0.000383964 15.725 -8.95001
257 1 17.2972 1.572 17.2972 -8.94941
45 1 6.28926 9.43442 22.0133 -8.94974
259 1 20.4416 1.57232 17.2968 -8.94967
260 1 22.0137 3.14458 15.7244 -8.9496
261 1 1.57198 4.71691 17.2971 -8.94965
262 1 3.14383 3.144 15.7251 -8.94883
263 1 4.71556 4.7157 17.2986 -8.94787
264 1 6.28859 3.14313 15.7256 -8.94993
265 1 7.8614 4.7158 17.2984 -8.94898
266 1 9.43419 3.14307 15.7257 -8.94909
267 1 11.0069 4.71556 17.2986 -8.94916
268 1 12.5798 3.14291 15.7257 -8.94905
269 1 14.1526 4.7155 17.2986 -8.9493
270 1 15.7258 3.14259 15.7257 -8.94966
271 1 17.2987 4.71533 17.2986 -8.94669
272 1 18.8696 3.14434 15.7245 -8.94984
273 1 20.4421 4.7168 17.2971 -8.94948
274 1 22.014 6.28936 15.7247 -8.95013
275 1 1.57212 7.8621 17.297 -8.94952
276 1 3.14294 6.28876 15.7256 -8.94996
277 1 4.71623 7.86206 17.2979 -8.95002
278 1 6.2838 6.28409 15.7311 -8.94329
279 1 7.8602 7.86042 17.3017 -8.95324
280 1 9.43304 6.28494 15.7294 -8.9463
281 1 11.0067 7.85957 17.3019 -8.9493
282 1 12.5811 6.28441 15.73 -8.94738
283 1 14.1547 7.85941 17.3031 -8.95297
284 1 15.7317 6.2824 15.7316 -8.9379
285 1 17.2982 7.86165 17.2982 -8.94998
286 1 18.8715 6.28828 15.7257 -8.94957
287 1 20.4419 7.86206 17.297 -8.94959
288 1 3.16041e-05 9.43453 15.7247 -8.9495
289 1 3.1437 9.43466 15.7251 -8.949
290 1 6.2875 9.43491 15.727 -8.95
291 1 9.43263 9.43115 15.7343 -8.96049
292 1 12.5837 9.43006 15.7395 -8.96513
293 1 15.7283 9.43427 15.7286 -8.94983
294 1 18.8706 9.43467 15.7251 -8.94943
295 1 22.0138 8.27342e-05 18.8692 -8.94937
296 1 1.57229 1.57234 20.4415 -8.94937
297 1 3.14457 0.000120075 18.8694 -8.9494
298 1 4.71715 1.57234 20.4416 -8.94961
301 1 9.43447 0.000143232 18.8695 -8.94956
300 1 7.86203 1.57231 20.4416 -8.94957
337 1 22.0139 9.4345 18.8692 -8.94956
302 1 11.007 1.5723 20.4416 -8.94959
336 1 20.4417 7.86204 20.4415 -8.94956
304 1 14.1519 1.57231 20.4416 -8.94957
39 1 15.7249 6.28885 22.0132 -8.95007
306 1 17.2968 1.57231 20.4416 -8.94965
307 1 18.8693 6.428e-05 18.8693 -8.9493
308 1 20.4416 1.57235 20.4415 -8.94929
309 1 22.0139 3.14468 18.8692 -8.9495
310 1 1.57231 4.71719 20.4415 -8.94969
311 1 3.14438 3.14446 18.8696 -8.94914
312 1 4.71684 4.71688 20.4418 -8.94981
313 1 6.28942 3.14442 18.8696 -8.94952
314 1 7.86186 4.71676 20.4418 -8.94942
315 1 9.4344 3.14432 18.8697 -8.94947
316 1 11.0069 4.71667 20.4418 -8.94953
317 1 12.5795 3.14431 18.8696 -8.94946
318 1 14.152 4.71671 20.4418 -8.94949
319 1 15.7245 3.14433 18.8696 -8.94961
320 1 17.2972 4.7167 20.4418 -8.94953
321 1 18.8696 3.14439 18.8695 -8.94887
322 1 20.4417 4.71713 20.4415 -8.94964
323 1 22.0139 6.28964 18.8692 -8.94963
324 1 1.57228 7.86205 20.4415 -8.94953
325 1 3.14446 6.28959 18.8694 -8.94981
326 1 4.7169 7.86205 20.4416 -8.94965
327 1 6.28875 6.28887 18.8708 -8.95043
328 1 7.86176 7.86186 20.4421 -8.95067
329 1 9.4341 6.28862 18.8708 -8.94925
330 1 11.0067 7.86149 20.4422 -8.95027
331 1 12.5796 6.28858 18.8709 -8.94939
332 1 14.1522 7.86158 20.4421 -8.95105
333 1 15.7255 6.28846 18.871 -8.95011
334 1 17.2972 7.86188 20.4415 -8.94963
335 1 18.8696 6.28944 18.8695 -8.94977
512 1 1.57197 11.0071 11.007 -8.94823
513 1 4.718 11.0081 11.0056 -8.94681
514 1 7.86842 10.9893 11.0184 -8.88121
515 1 11.0605 10.8084 11.3126 -7.30114
516 1 14.1611 10.9861 11.0281 -8.92255
517 1 17.2996 11.0071 11.0062 -8.95121
518 1 20.4425 11.0071 11.007 -8.94927
540 1 1.57154 11.007 14.1526 -8.94941
541 1 4.71466 11.0074 14.1538 -8.94615
542 1 7.86052 11.0085 14.1557 -8.94773
543 1 11.0105 10.9959 14.1502 -9.01939
544 1 14.1593 11.0102 14.1609 -8.94804
545 1 17.3001 11.0081 14.1536 -8.94836
546 1 20.4424 11.0071 14.1524 -8.94965
591 1 7.86136 11.0075 17.2984 -8.94922
592 1 11.0071 11.0073 17.298 -8.94669
593 1 14.1536 11.0079 17.2999 -8.94974
638 1 1.57224 11.0069 20.4415 -8.94959
640 1 7.86173 11.007 20.4416 -8.94963
3 1 3.14471 0.000104987 22.0138 -8.94967
5 1 6.28962 9.30504e-05 22.0138 -8.94954
11 1 15.7243 6.99656e-05 22.0138 -8.94955
13 1 18.8692 6.82858e-05 22.0138 -8.94955
15 1 22.0139 3.14474 22.0138 -8.94948
17 1 3.14458 3.14458 22.0137 -8.94953
303 1 12.5795 0.000136644 18.8695 -8.94956
33 1 6.28928 6.28929 22.0135 -8.9504
27 1 18.8694 3.14453 22.0138 -8.94932
29 1 22.0139 6.28959 22.0137 -8.94957
31 1 3.14457 6.28955 22.0136 -8.94966
1 1 22.0138 7.31255e-05 22.0138 -8.94929
21 1 9.43446 3.14449 22.0137 -8.94957
9 1 12.5794 0.000103219 22.0138 -8.94958
23 1 12.5794 3.14448 22.0137 -8.94955
43 1 22.0139 9.43446 22.0137 -8.94958
49 1 18.8696 9.43438 22.0134 -8.94947
687 3 10.9612 12.4754 10.1759 2.21785
345 1 4.71634 11.0066 1.57112 -8.94931
511 1 18.8699 18.8699 9.4346 -8.94954
510 1 15.7261 18.8717 9.43433 -8.9485
509 1 12.5799 18.8709 9.43414 -8.9481
349 1 17.2981 11.0067 1.5706 -8.94926
508 1 9.43423 18.8735 9.43403 -8.94843
351 1 22.0139 12.5794 -0.000216416 -8.94959
352 1 1.57209 14.1518 1.5719 -8.94944
353 1 3.1444 12.5793 -0.000410139 -8.94953
354 1 4.71637 14.1517 1.57091 -8.94943
538 1 17.2974 20.4423 11.007 -8.94938
356 1 7.86164 14.1521 1.56846 -8.95442
153 1 15.7249 22.0144 9.43433 -8.94969
358 1 11.0066 14.1527 1.57023 -8.9481
150 1 6.28867 22.0149 9.43434 -8.95001
360 1 14.1532 14.1533 1.56768 -8.95289
361 1 15.7252 12.5796 -0.00154235 -8.94961
362 1 17.2981 14.1524 1.5706 -8.94907
111 1 18.8694 22.0141 6.28957 -8.94951
364 1 20.4419 14.1519 1.57188 -8.94947
537 1 14.1526 20.4434 11.0067 -8.95016
366 1 1.57201 17.2969 1.57187 -8.94977
148 1 -0.000130563 22.014 9.43453 -8.94959
368 1 4.71581 17.298 1.56999 -8.94957
58 1 12.5796 22.0141 3.14432 -8.94948
370 1 7.86206 17.2976 1.57085 -8.94944
56 1 9.43457 22.0142 3.14427 -8.94953
372 1 11.0071 17.2979 1.57099 -8.94934
536 1 11.0073 20.4438 11.007 -8.94941
374 1 14.1519 17.2976 1.57131 -8.94979
534 1 4.71581 20.4433 11.0073 -8.94909
376 1 17.2981 17.2981 1.5706 -8.94842
493 1 6.29131 12.5904 9.43102 -9.01939
378 1 20.4419 17.297 1.57194 -8.94955
492 1 3.14347 12.5791 9.4344 -8.94669
380 1 1.57197 20.4419 1.5719 -8.94887
491 1 22.0139 12.5792 9.43472 -8.94853
382 1 4.717 20.442 1.5719 -8.94984
490 1 20.4416 20.4418 7.86207 -8.94955
384 1 7.86208 20.442 1.57194 -8.94938
385 1 9.4345 18.8696 -0.000304319 -8.94953
386 1 11.007 20.442 1.57192 -8.94954
387 1 12.5795 18.8696 -0.000257303 -8.94949
388 1 14.1519 20.4419 1.57204 -8.94935
489 1 18.8699 18.87 6.28937 -8.94959
390 1 17.2969 20.4419 1.57204 -8.94977
488 1 17.2974 20.4424 7.86193 -8.94928
392 1 20.4416 20.4418 1.57211 -8.94932
507 1 6.28605 18.875 9.43427 -8.94763
506 1 3.14293 18.8708 9.43461 -8.94916
505 1 22.0136 18.8697 9.43459 -8.94953
504 1 18.8715 15.7255 9.43489 -8.94992
503 1 15.7313 15.7291 9.43409 -8.94685
502 1 12.5927 15.7253 9.424 -8.92021
501 1 9.40856 15.7335 9.42263 -8.96505
400 1 7.48262e-05 12.5794 3.14417 -8.9495
401 1 1.5712 14.1518 4.71633 -8.9496
402 1 3.1436 12.579 3.14349 -8.94906
403 1 4.71289 14.152 4.71322 -8.94983
404 1 6.28789 12.5782 3.14138 -8.94836
405 1 7.85427 14.1594 4.69807 -8.96208
406 1 9.43529 12.5792 3.14186 -8.95121
407 1 11.0066 14.1543 4.71421 -8.94166
408 1 12.5812 12.5808 3.13569 -8.95914
409 1 14.1655 14.1644 4.69851 -8.94009
410 1 15.7284 12.5804 3.13908 -8.94744
411 1 17.3024 14.1543 4.71326 -8.94916
412 1 18.8709 12.5796 3.14335 -8.94926
413 1 20.4429 14.1522 4.71635 -8.94985
414 1 22.0139 15.7244 3.14426 -8.94963
415 1 1.57043 17.2979 4.71599 -8.95011
416 1 3.14327 15.7247 3.14326 -8.94998
417 1 4.7099 17.3039 4.70976 -8.9379
418 1 6.28584 15.7279 3.13724 -8.95131
419 1 7.8618 17.301 4.71294 -8.951
420 1 9.43515 15.7265 3.14111 -8.94814
421 1 11.0079 17.3005 4.71404 -8.94449
422 1 12.5791 15.7262 3.1419 -8.94915
423 1 14.1531 17.3006 4.7145 -8.95279
424 1 15.7288 15.729 3.13856 -8.94605
425 1 17.3002 17.3004 4.71397 -8.94546
426 1 18.8708 15.7253 3.14342 -8.94944
427 1 20.4422 17.2975 4.71657 -8.95007
428 1 22.0136 18.8696 3.14428 -8.94953
429 1 1.57187 20.442 4.71694 -8.94961
430 1 3.14289 18.871 3.1428 -8.94669
431 1 4.71579 20.4437 4.71571 -8.94966
432 1 6.28916 18.8707 3.14315 -8.95027
433 1 7.86232 20.4429 4.71637 -8.94971
434 1 9.43473 18.8706 3.14342 -8.94879
435 1 11.0073 20.4428 4.71625 -8.94957
436 1 12.5797 18.8705 3.14365 -8.94852
437 1 14.1519 20.4424 4.71678 -8.95033
438 1 15.7249 18.8706 3.14368 -8.9504
439 1 17.2974 20.4427 4.71657 -8.94958
440 1 18.87 18.8702 3.14389 -8.94859
441 1 20.4416 20.4418 4.7171 -8.94964
500 1 6.27471 15.7376 9.4341 -8.94391
499 1 3.1396 15.7267 9.43479 -8.9493
498 1 -0.000672961 15.7248 9.43475 -8.95027
497 1 18.8706 12.5796 9.43464 -8.94585
496 1 15.721 12.5785 9.42989 -8.99853
495 1 12.7942 12.5737 9.35718 -8.08988
494 1 9.12891 12.7779 9.38099 -7.30114
449 1 22.0141 12.5792 6.28911 -8.95037
450 1 1.56954 14.1519 7.86193 -8.95318
451 1 3.14157 12.5784 6.28793 -8.94974
452 1 4.70199 14.1563 7.85773 -8.96513
453 1 6.28054 12.5762 6.28221 -8.94804
454 1 7.79191 14.2244 7.78673 -8.72191
455 1 9.4134 12.6002 6.28034 -8.92255
456 1 11.0117 14.1384 7.86902 -8.90355
457 1 12.6233 12.6106 6.2503 -8.88675
458 1 14.1875 14.1837 7.82699 -8.86265
459 1 15.7406 12.5814 6.27884 -8.95175
460 1 17.3048 14.1536 7.86046 -8.95819
461 1 18.8739 12.5795 6.28795 -8.95118
462 1 20.443 14.1521 7.86211 -8.95143
463 1 22.0133 15.7247 6.28923 -8.95105
464 1 1.57059 17.2977 7.8619 -8.94939
465 1 3.13835 15.7269 6.28679 -8.95297
466 1 4.71145 17.3019 7.86039 -8.94738
467 1 6.26525 15.7486 6.26495 -8.90173
468 1 7.85418 17.3156 7.85494 -8.96127
469 1 9.43832 15.7331 6.28244 -8.95069
470 1 11.0066 17.295 7.86408 -8.94404
471 1 12.5795 15.7311 6.28481 -8.96041
472 1 14.1564 17.3053 7.85848 -8.955
473 1 15.7361 15.7357 6.27887 -8.93256
474 1 17.2994 17.2989 7.86154 -8.94881
475 1 18.8723 15.7258 6.28851 -8.9513
476 1 20.442 17.2974 7.86206 -8.94954
477 1 -0.000328643 18.8696 6.28951 -8.94949
478 1 1.57183 20.442 7.86203 -8.94946
479 1 3.14291 18.8708 6.28885 -8.9493
480 1 4.71582 20.4434 7.86166 -8.94905
481 1 6.28599 18.8765 6.28577 -8.95151
482 1 7.86158 20.4455 7.86138 -8.95372
483 1 9.43594 18.8723 6.28825 -8.95001
484 1 11.0073 20.4422 7.86182 -8.94763
485 1 12.579 18.871 6.28925 -8.95126
486 1 14.1524 20.4435 7.86175 -8.9515
487 1 15.7263 18.8729 6.28792 -8.95028
530 1 14.1543 17.3029 11.0066 -8.95218
531 1 17.2989 17.2986 11.0075 -8.94782
399 1 20.443 11.0067 4.71626 -8.94961
398 1 17.3024 11.006 4.71303 -8.94744
394 1 4.7145 11.0056 4.71429 -8.94534
393 1 1.5715 11.0066 4.71625 -8.94931
50 1 -0.00011169 22.014 3.14471 -8.94965
688 3 10.2656 11.1109 9.48028 2.21785
101 1 3.1442 22.0143 6.28941 -8.94938
526 1 1.57071 17.2977 11.0074 -8.94925
527 1 4.71211 17.3014 11.0084 -8.9463
532 1 20.442 17.2974 11.0073 -8.94948
383 1 6.28952 18.8695 -0.00031137 -8.94969
377 1 18.8696 15.7245 -0.000459596 -8.94948
686 1 20.4416 20.4416 20.4415 -8.94948
685 1 18.8694 18.8693 18.8693 -8.94955
684 1 17.2968 20.4417 20.4417 -8.94964
683 1 15.7248 18.8697 18.8699 -8.94972
682 1 14.1519 20.4418 20.4417 -8.94949
681 1 12.5796 18.8698 18.87 -8.94936
680 1 11.007 20.4418 20.4417 -8.94956
519 1 1.57032 14.1518 11.0071 -8.95159
520 1 4.70718 14.1552 11.0088 -8.96049
521 1 7.81467 14.2122 11.0612 -8.79009
522 1 10.9973 14.3035 11.0576 -8.25428
523 1 14.1606 14.1717 11.0155 -8.90326
524 1 17.299 14.1523 11.0062 -8.95197
525 1 20.442 14.1519 11.0071 -8.9498
305 1 15.7244 22.014 18.8694 -8.94955
299 1 6.28951 22.014 18.8694 -8.94955
528 1 7.85622 17.3127 11.0095 -8.95988
529 1 11.006 17.3027 11.0087 -8.98511
391 1 18.8695 18.8695 22.0135 -8.94926
389 1 15.7244 18.8695 22.0137 -8.94981
258 1 18.8694 22.014 15.7244 -8.94972
533 1 1.57183 20.442 11.0071 -8.94947
254 1 12.5798 22.0144 15.7252 -8.94933
535 1 7.8613 20.4454 11.007 -8.95224
252 1 9.43435 22.0145 15.7252 -8.94937
248 1 3.14424 22.0142 15.7247 -8.94957
207 1 15.7248 22.0143 12.5794 -8.94963
539 1 20.4416 20.4418 11.007 -8.94957
679 1 9.43439 18.8698 18.8701 -8.94941
678 1 7.862 20.4418 20.4417 -8.94952
677 1 6.28914 18.8697 18.8701 -8.94964
676 1 4.71706 20.4417 20.4417 -8.9496
675 1 3.14435 18.8694 18.8695 -8.94965
674 1 1.57223 20.4416 20.4415 -8.9495
673 1 22.0139 18.8691 18.8692 -8.94969
547 1 22.0138 12.5793 12.5798 -8.94963
548 1 1.57152 14.1516 14.1524 -8.9495
549 1 3.14304 12.5788 12.5801 -8.94922
550 1 4.71445 14.1514 14.154 -8.95
551 1 6.28576 12.5778 12.581 -8.94773
552 1 7.85642 14.1561 14.1655 -8.95969
553 1 9.42309 12.597 12.5731 -8.88121
554 1 11.0064 14.157 14.1582 -8.96125
555 1 12.5955 12.603 12.5788 -8.86422
556 1 14.1581 14.1568 14.1593 -8.94472
557 1 15.728 12.5809 12.579 -8.95169
558 1 17.299 14.1524 14.1529 -8.95006
559 1 18.8706 12.5796 12.5797 -8.94978
560 1 20.442 14.1519 14.1522 -8.94974
561 1 22.0133 15.7245 12.5797 -8.95067
562 1 1.57071 17.2975 14.1527 -8.95043
563 1 3.13977 15.7259 12.5813 -8.95324
564 1 4.71039 17.3022 14.1577 -8.94329
565 1 6.26924 15.7427 12.5973 -8.92566
566 1 7.85412 17.3073 14.1622 -8.93773
567 1 9.41441 15.7563 12.6089 -8.89252
568 1 11.0077 17.3048 14.1595 -8.942
569 1 12.5989 15.7521 12.6043 -8.90651
570 1 14.1598 17.3058 14.1602 -8.93971
571 1 15.7316 15.7296 12.5837 -8.95099
572 1 17.2998 17.2987 14.1537 -8.94988
573 1 18.8708 15.7247 12.5797 -8.9515
574 1 20.4419 17.297 14.1522 -8.9504
575 1 -0.00030509 18.8696 12.5796 -8.94942
576 1 1.5719 20.4419 14.1521 -8.94952
577 1 3.14305 18.8705 12.5801 -8.94898
578 1 4.71584 20.4432 14.1529 -8.94993
579 1 6.28646 18.8749 12.5818 -8.95135
580 1 7.86102 20.4445 14.1535 -8.95056
581 1 9.43387 18.8775 12.5826 -8.95534
582 1 11.0073 20.4444 14.1537 -8.9493
583 1 12.5808 18.8759 12.5816 -8.95611
584 1 14.1531 20.444 14.1531 -8.95101
585 1 15.7259 18.8714 12.5799 -8.94984
586 1 17.2974 20.4422 14.1521 -8.94978
587 1 18.8699 18.8698 12.5796 -8.94922
588 1 20.4416 20.4417 14.1519 -8.94952
589 1 1.57205 11.0069 17.2971 -8.94955
590 1 4.71619 11.007 17.2978 -8.94908
672 1 20.4416 17.2967 20.4414 -8.94957
671 1 18.8695 15.7244 18.8693 -8.94944
670 1 17.2971 17.297 20.4413 -8.94976
594 1 17.298 11.0073 17.2979 -8.94906
595 1 20.4419 11.007 17.2971 -8.94953
596 1 -3.22012e-05 12.5795 15.7247 -8.94959
597 1 1.57208 14.1518 17.2971 -8.94941
598 1 3.14364 12.5793 15.7253 -8.94908
599 1 4.7164 14.1517 17.2978 -8.949
600 1 6.28771 12.579 15.7268 -8.94615
601 1 7.86179 14.1513 17.2995 -8.9532
602 1 9.43588 12.5782 15.7235 -8.94681
603 1 11.0069 14.1518 17.2989 -8.95051
604 1 12.5797 12.5793 15.7247 -8.94895
605 1 14.1525 14.1519 17.2987 -8.95136
606 1 15.7272 12.5807 15.727 -8.94534
607 1 17.2977 14.1522 17.2976 -8.94882
608 1 18.8704 12.5797 15.7251 -8.94931
609 1 20.4418 14.1519 17.297 -8.94945
610 1 22.0138 15.7243 15.7246 -8.94965
611 1 1.57206 17.2967 17.297 -8.94981
612 1 3.1436 15.7243 15.7253 -8.95002
613 1 4.71591 17.2976 17.2985 -8.94996
614 1 6.28643 15.7265 15.73 -8.95148
615 1 7.86098 17.2982 17.2999 -8.95025
616 1 9.4335 15.7276 15.7324 -8.9541
617 1 11.0072 17.2984 17.2998 -8.94919
618 1 12.5809 15.727 15.7308 -8.95471
619 1 14.153 17.298 17.2994 -8.95052
620 1 15.7269 15.7262 15.7273 -8.94865
621 1 17.2977 17.2973 17.2977 -8.94943
622 1 18.87 15.7245 15.7249 -8.94972
623 1 20.4417 17.2968 17.2969 -8.94966
624 1 22.0136 18.8694 15.7246 -8.94981
625 1 1.57193 20.4419 17.2971 -8.94914
626 1 3.14284 18.8706 15.7259 -8.94787
627 1 4.7164 20.4423 17.2977 -8.94883
628 1 6.2869 18.8723 15.7276 -8.9466
629 1 7.86173 20.4423 17.2977 -8.94932
630 1 9.43394 18.8719 15.7271 -8.94824
631 1 11.007 20.4423 17.2977 -8.9495
632 1 12.5805 18.8717 15.7269 -8.94795
633 1 14.1523 20.4422 17.2976 -8.94927
634 1 15.727 18.8719 15.727 -8.9468
635 1 17.2975 20.4422 17.2975 -8.94879
636 1 18.8701 18.8698 15.7249 -8.94957
637 1 20.4417 20.4417 17.2969 -8.94953
669 1 15.7248 15.7245 18.8697 -8.95016
639 1 4.71675 11.0069 20.4415 -8.94959
668 1 14.152 17.2971 20.4418 -8.94988
667 1 12.5795 15.7246 18.8706 -8.9507
666 1 11.007 17.2972 20.4419 -8.9498
643 1 17.2973 11.007 20.4414 -8.9495
665 1 9.43438 15.7247 18.8709 -8.95096
645 1 22.0139 12.5794 18.8692 -8.94959
646 1 1.57224 14.1518 20.4415 -8.94956
647 1 3.14437 12.5794 18.8694 -8.94955
648 1 4.7168 14.1518 20.4414 -8.9495
649 1 6.28893 12.5793 18.8699 -8.94941
650 1 7.86188 14.1517 20.4414 -8.95068
651 1 9.43443 12.5792 18.8695 -8.94823
652 1 11.0068 14.152 20.4415 -8.94971
653 1 12.5795 12.5794 18.8695 -8.94897
654 1 14.1521 14.152 20.4411 -8.95052
655 1 15.7252 12.5797 18.87 -8.94931
656 1 17.2972 14.152 20.4413 -8.94941
657 1 18.8696 12.5795 18.8694 -8.94954
658 1 20.4417 14.1519 20.4415 -8.94958
659 1 22.0139 15.7243 18.8692 -8.94953
660 1 1.57228 17.2967 20.4414 -8.94963
661 1 3.14448 15.7242 18.8694 -8.94952
662 1 4.71682 17.297 20.4414 -8.95013
663 1 6.28916 15.7244 18.8702 -8.95078
664 1 7.86187 17.2971 20.4418 -8.94991
381 1 3.14436 18.8695 22.0133 -8.94948
201 1 6.28886 22.0147 12.5798 -8.95047
355 1 6.28909 12.5792 22.013 -8.94965
357 1 9.43451 12.5793 22.0129 -8.94927
359 1 12.5793 12.5795 22.0119 -8.95101
365 1 22.0139 15.7243 22.0137 -8.94956
367 1 3.14446 15.7243 22.0135 -8.94959
369 1 6.28911 15.7247 22.0124 -8.95104
371 1 9.43446 15.7249 22.013 -8.94977
373 1 12.5793 15.7248 22.0131 -8.9496
375 1 15.725 15.725 22.0124 -8.95033
246 1 -0.000100662 22.014 15.7243 -8.94961
379 1 22.0139 18.8692 22.0137 -8.94964
363 1 18.8696 12.5794 22.0134 -8.94952
