ITEM: TIMESTEP
105
ITEM: NUMBER OF ATOMS
688
ITEM: BOX BOUNDS pp pp pp
0.0000000000000000e+00 2.2013900999999997e+01
0.0000000000000000e+00 2.2013900999999997e+01
0.0000000000000000e+00 2.2013900999999997e+01
ITEM: ATOMS id type x y z c_pot
7 1 9.43449 0.000210211 -0.000183303 -8.94952
2 1 1.57189 1.57237 1.57189 -8.94921
448 1 20.4438 11.0067 7.86203 -8.95096
4 1 4.71687 1.57228 1.57186 -8.9497
447 1 17.3062 11.0053 7.85947 -8.95922
6 1 7.86194 1.57222 1.57186 -8.94943
175 1 18.8715 9.4334 9.43476 -8.94803
8 1 11.007 1.57215 1.57185 -8.94951
174 1 15.7275 9.43146 9.43452 -8.94186
10 1 14.1521 1.57206 1.57193 -8.94946
446 1 14.1917 10.9752 7.81622 -8.88571
12 1 17.2971 1.57198 1.57197 -8.9496
445 1 11.0834 11.0124 7.64461 -8.08886
14 1 20.4417 1.57229 1.5721 -8.94947
444 1 7.86404 10.9856 7.84697 -8.86697
16 1 1.57205 4.71679 1.57175 -8.94953
443 1 4.7174 11.0073 7.86179 -8.94871
18 1 4.71624 4.71623 1.57115 -8.94956
442 1 1.57221 11.0069 7.86194 -8.94882
20 1 7.86166 4.71626 1.57146 -8.94918
149 1 3.14354 0.000651454 9.43446 -8.94941
22 1 11.0069 4.716 1.57135 -8.94952
154 1 18.8696 0.00027282 9.43448 -8.94951
24 1 14.1524 4.71577 1.57121 -8.9495
188 1 17.2986 4.71513 11.0067 -8.94869
26 1 17.2981 4.71555 1.57111 -8.94851
183 1 1.571 4.71618 11.0071 -8.9494
28 1 20.4422 4.7165 1.57169 -8.94917
397 1 14.1643 11.0047 4.69912 -8.95177
30 1 1.57215 7.86174 1.57173 -8.94936
396 1 11.0122 11.0085 4.72171 -8.99939
32 1 4.71645 7.86162 1.57123 -8.94976
395 1 7.86235 11.0057 4.71352 -8.95111
34 1 7.86175 7.86149 1.57077 -8.95163
35 1 9.43406 6.28865 -0.000375322 -8.94947
36 1 11.0067 7.86048 1.56981 -8.95001
37 1 12.5795 6.2885 -0.000596327 -8.94957
38 1 14.1534 7.8601 1.56852 -8.95149
181 1 17.2975 1.57195 11.0069 -8.9495
40 1 17.2988 7.86047 1.56987 -8.94936
346 1 7.86185 11.0067 1.57094 -8.9498
42 1 20.4424 7.86153 1.57149 -8.94937
164 1 6.28177 6.28102 9.43381 -8.9419
44 1 3.14425 9.43426 -0.000498959 -8.94939
350 1 20.4424 11.0068 1.57137 -8.94943
348 1 14.1542 11.0068 1.5667 -8.95139
347 1 11.0071 11.0068 1.5712 -8.94543
48 1 15.7256 9.43393 -0.0019122 -8.94993
163 1 3.1413 6.28751 9.43414 -8.94915
344 1 1.57201 11.0067 1.57152 -8.94946
51 1 1.57176 1.57234 4.71677 -8.94946
52 1 3.14381 0.00078358 3.14375 -8.94936
53 1 4.71615 1.57217 4.71606 -8.95009
54 1 6.28943 0.000576377 3.14394 -8.94973
55 1 7.86202 1.57203 4.71634 -8.94972
173 1 12.5735 9.44847 9.42899 -8.90433
57 1 11.0072 1.57185 4.7163 -8.94973
172 1 9.38778 9.29168 9.44615 -8.261
59 1 14.1522 1.57159 4.71663 -8.95032
60 1 15.7246 0.000208714 3.14429 -8.95005
61 1 17.2972 1.57221 4.71687 -8.95005
62 1 18.8695 0.000437387 3.14435 -8.9496
63 1 20.4416 1.57231 4.717 -8.94948
64 1 22.0137 3.14445 3.14439 -8.94962
65 1 1.57134 4.71642 4.71643 -8.94973
66 1 3.14364 3.14398 3.14363 -8.94887
67 1 4.71418 4.71416 4.7142 -8.94719
68 1 6.2891 3.14386 3.14372 -8.94982
69 1 7.86132 4.71453 4.71538 -8.95001
70 1 9.43438 3.14374 3.14375 -8.94933
71 1 11.0072 4.71425 4.71499 -8.94857
72 1 12.5797 3.14351 3.14373 -8.94927
73 1 14.1539 4.71282 4.71478 -8.95041
74 1 15.7252 3.14312 3.14373 -8.94964
75 1 17.2984 4.71502 4.71613 -8.95051
76 1 18.8698 3.14403 3.14427 -8.9498
77 1 20.4419 4.7165 4.71684 -8.94981
78 1 22.0142 6.28899 3.14405 -8.94981
79 1 1.57175 7.86155 4.71644 -8.9503
80 1 3.1435 6.28866 3.1434 -8.94952
81 1 4.7139 7.85974 4.7143 -8.94895
82 1 6.28743 6.2872 3.14141 -8.94975
83 1 7.85764 7.85603 4.70989 -8.95002
84 1 9.43394 6.28738 3.1424 -8.94764
85 1 11.0078 7.85674 4.70978 -8.94621
86 1 12.5803 6.28676 3.14149 -8.94863
87 1 14.1638 7.84962 4.70413 -8.93237
88 1 15.7284 6.28498 3.14036 -8.94535
89 1 17.3042 7.85639 4.71158 -8.94597
90 1 18.8717 6.28751 3.14279 -8.94833
91 1 20.4436 7.86089 4.71608 -8.95044
92 1 0.00039705 9.43404 3.14381 -8.94936
93 1 3.14369 9.43383 3.14341 -8.94869
94 1 6.28865 9.4337 3.14239 -8.94995
95 1 9.43571 9.434 3.14279 -8.9525
96 1 12.5816 9.43265 3.13612 -8.95861
97 1 15.7295 9.43142 3.13771 -8.94903
98 1 18.8718 9.43342 3.14257 -8.94895
99 1 22.0136 0.000293796 6.28944 -8.94948
100 1 1.57165 1.57227 7.86187 -8.94947
166 1 12.5774 6.29189 9.43557 -8.94424
102 1 4.71578 1.57199 7.86144 -8.94933
103 1 6.2887 0.00168445 6.28851 -8.95116
104 1 7.86167 1.5717 7.86152 -8.95134
105 1 9.43495 0.000727313 6.2889 -8.94988
106 1 11.0073 1.57192 7.86169 -8.94882
107 1 12.5796 0.000241046 6.28924 -8.94989
108 1 14.1522 1.57218 7.8619 -8.94989
109 1 15.7248 0.000836234 6.28924 -8.95032
110 1 17.2974 1.57208 7.8618 -8.94947
165 1 9.43353 6.28212 9.43654 -8.98368
112 1 20.4416 1.57224 7.86196 -8.94951
113 1 -0.000316754 3.14436 6.28936 -8.94942
114 1 1.57111 4.71623 7.86165 -8.94931
115 1 3.14344 3.14388 6.28886 -8.94921
116 1 4.71408 4.71424 7.86069 -8.94797
117 1 6.28808 3.14228 6.28807 -8.95101
118 1 7.85966 4.71045 7.86079 -8.95566
119 1 9.4348 3.14284 6.28872 -8.95026
120 1 11.0075 4.71558 7.86153 -8.94753
121 1 12.5798 3.14266 6.28895 -8.95148
122 1 14.1523 4.71523 7.86253 -8.95154
123 1 15.7249 3.14356 6.28945 -8.9505
124 1 17.2982 4.71534 7.86159 -8.94842
125 1 18.8697 3.14411 6.28938 -8.94929
126 1 20.4419 4.71636 7.86186 -8.94943
127 1 22.0136 6.28897 6.28931 -8.94988
128 1 1.57093 7.86151 7.86188 -8.95062
129 1 3.14191 6.288 6.28823 -8.9505
130 1 4.71104 7.8591 7.86065 -8.95433
131 1 6.28154 6.28061 6.28204 -8.94084
132 1 7.83937 7.83545 7.84493 -8.91035
133 1 9.43498 6.28326 6.28735 -8.95242
134 1 11.0173 7.86195 7.84958 -8.92209
135 1 12.5833 6.28076 6.28482 -8.95524
136 1 14.1573 7.85471 7.86142 -8.96007
137 1 15.7277 6.28494 6.2878 -8.95286
138 1 17.3003 7.85965 7.86199 -8.94909
139 1 18.8707 6.28823 6.28927 -8.94978
140 1 20.4426 7.86127 7.86207 -8.94957
141 1 22.0147 9.43415 6.28924 -8.95056
142 1 3.14295 9.43425 6.28887 -8.95147
143 1 6.28271 9.42928 6.28371 -8.94601
144 1 9.42565 9.41415 6.28046 -8.90147
145 1 12.6157 9.40193 6.25277 -8.86241
146 1 15.7445 9.42107 6.27446 -8.94007
147 1 18.8747 9.43265 6.28774 -8.95304
171 1 6.28458 9.42963 9.4355 -8.96022
170 1 3.14303 9.43442 9.43449 -8.95032
169 1 22.0141 9.43429 9.43464 -8.94957
151 1 9.43477 0.00096411 9.43416 -8.94926
152 1 12.5798 0.000501014 9.43418 -8.94882
168 1 18.8709 6.288 9.4343 -8.94931
167 1 15.728 6.28521 9.43351 -8.94425
155 1 22.0136 3.14428 9.43445 -8.9495
156 1 3.14322 3.14373 9.43432 -8.94944
157 1 6.28721 3.14158 9.43402 -8.94931
158 1 9.43452 3.1424 9.43423 -8.9499
159 1 12.5796 3.14419 9.43421 -8.94736
160 1 15.7255 3.14316 9.43403 -8.94957
161 1 18.8698 3.144 9.43435 -8.94947
162 1 -0.000444136 6.28878 9.43444 -8.94982
177 1 4.71567 1.5718 11.0072 -8.94937
184 1 4.71355 4.7138 11.0076 -8.94825
41 1 18.87 6.28895 -0.000669369 -8.94948
19 1 6.28935 3.14438 -0.000165911 -8.94947
25 1 15.7247 3.14413 -0.000183612 -8.94956
176 1 1.57163 1.57223 11.0071 -8.94947
199 1 3.14359 0.000545163 12.5799 -8.94928
178 1 7.86136 1.57112 11.0069 -8.95145
179 1 11.0073 1.57146 11.0067 -8.94926
180 1 14.1526 1.57169 11.0065 -8.94988
644 1 20.4419 11.0069 20.4414 -8.94952
182 1 20.4417 1.57221 11.007 -8.94952
642 1 14.1526 11.0072 20.4411 -8.9505
209 1 18.8696 0.00019959 12.5795 -8.94943
185 1 7.85828 4.70804 11.008 -8.95486
186 1 11.0077 4.7126 11.008 -8.94743
187 1 14.1536 4.71344 11.0057 -8.95021
641 1 11.0068 11.0071 20.4416 -8.94827
189 1 20.442 4.71633 11.007 -8.94949
190 1 1.57046 7.86145 11.0071 -8.95097
191 1 4.70899 7.85815 11.008 -8.95373
192 1 7.83392 7.83009 11.0264 -8.89611
193 1 11.019 7.85418 11.035 -8.96825
194 1 14.1598 7.85211 11.0039 -8.95095
195 1 17.301 7.85926 11.0064 -8.94808
196 1 20.4427 7.86127 11.007 -8.94977
197 1 22.0136 0.000228697 12.5796 -8.94949
198 1 1.57168 1.5722 14.1522 -8.94945
343 1 18.87 9.4345 18.8696 -8.94937
200 1 4.71578 1.57166 14.1529 -8.94983
342 1 15.7257 9.43445 18.8707 -8.9497
202 1 7.86135 1.57124 14.1531 -8.95064
203 1 9.43457 0.00129698 12.5801 -8.95145
204 1 11.0073 1.57099 14.1533 -8.95012
205 1 12.58 0.000716542 12.5798 -8.95134
206 1 14.153 1.57074 14.1528 -8.95116
341 1 12.5798 9.43416 18.8725 -8.95343
208 1 17.2975 1.57185 14.152 -8.94973
340 1 9.43429 9.43432 18.8717 -8.95182
210 1 20.4417 1.5722 14.152 -8.94947
211 1 -0.000328622 3.14429 12.5796 -8.94945
212 1 1.571 4.71626 14.1526 -8.94965
213 1 3.14318 3.14366 12.58 -8.94925
214 1 4.71293 4.71321 14.1552 -8.94678
215 1 6.28729 3.14113 12.5808 -8.9505
216 1 7.85877 4.70985 14.156 -8.95165
217 1 9.4344 3.14024 12.5805 -8.95248
218 1 11.0073 4.70982 14.1567 -8.9477
219 1 12.5804 3.14 12.5803 -8.95382
220 1 14.1568 4.70827 14.1566 -8.95158
221 1 15.7256 3.14279 12.5793 -8.94978
222 1 17.2993 4.71469 14.1528 -8.95029
223 1 18.8699 3.14401 12.5795 -8.9493
224 1 20.4421 4.71646 14.1522 -8.94972
225 1 22.0135 6.28894 12.5797 -8.94996
226 1 1.57096 7.86179 14.1525 -8.95106
227 1 3.14087 6.28763 12.5807 -8.95023
228 1 4.71031 7.85888 14.1558 -8.95173
229 1 6.27855 6.27805 12.5876 -8.93849
230 1 7.84229 7.84102 14.1743 -8.92374
231 1 9.43155 6.27195 12.5866 -8.96057
232 1 11.0077 7.84641 14.1691 -8.94367
233 1 12.5873 6.2692 12.5888 -8.96161
234 1 14.1786 7.83548 14.1784 -8.90088
235 1 15.7297 6.28398 12.5804 -8.95104
236 1 17.3058 7.85736 14.1567 -8.95127
237 1 18.8713 6.28824 12.5796 -8.94947
238 1 20.4435 7.86147 14.1526 -8.95131
239 1 22.0141 9.4346 12.5796 -8.95082
240 1 3.14165 9.43486 12.5797 -8.95352
241 1 6.27514 9.42905 12.5858 -8.96068
242 1 9.37799 9.3715 12.6304 -8.78761
243 1 12.6563 9.35986 12.6522 -8.72125
244 1 15.7449 9.42549 12.5885 -8.96197
245 1 18.8736 9.43405 12.58 -8.95478
47 1 12.5795 9.43421 22.0123 -8.95156
247 1 1.5718 1.57221 17.2973 -8.94932
46 1 9.43442 9.4344 22.0136 -8.94982
249 1 4.71628 1.57195 17.2978 -8.9495
250 1 6.2886 0.000756958 15.7257 -8.94983
251 1 7.86161 1.57188 17.2979 -8.94928
339 1 6.28883 9.43462 18.8704 -8.94952
253 1 11.007 1.57177 17.2979 -8.94941
338 1 3.14413 9.43446 18.8696 -8.94934
255 1 14.1524 1.57168 17.2978 -8.94931
256 1 15.7254 0.000256414 15.7253 -8.95009
257 1 17.2977 1.57164 17.2977 -8.94936
45 1 6.28913 9.43436 22.0134 -8.94974
259 1 20.4417 1.57217 17.297 -8.9496
260 1 22.0136 3.14434 15.7247 -8.94958
261 1 1.57165 4.71659 17.2976 -8.94964
262 1 3.14322 3.14362 15.7256 -8.94883
263 1 4.7147 4.71499 17.2995 -8.9476
264 1 6.28786 3.14234 15.7264 -8.94997
265 1 7.86081 4.71493 17.2994 -8.94883
266 1 9.43395 3.1422 15.7265 -8.94904
267 1 11.0069 4.71462 17.2996 -8.94907
268 1 12.5802 3.14196 15.7265 -8.94901
269 1 14.1534 4.71445 17.2997 -8.94913
270 1 15.7266 3.14164 15.7264 -8.94966
271 1 17.2997 4.71444 17.2995 -8.94638
272 1 18.8701 3.14386 15.7248 -8.94982
273 1 20.4425 4.71641 17.2975 -8.94943
274 1 22.014 6.28911 15.725 -8.95031
275 1 1.57189 7.86201 17.2973 -8.94949
276 1 3.14209 6.28821 15.7262 -8.95003
277 1 4.71558 7.86172 17.2986 -8.95002
278 1 6.28237 6.28261 15.7325 -8.94258
279 1 7.85953 7.85958 17.303 -8.95327
280 1 9.43252 6.2833 15.731 -8.94605
281 1 11.0068 7.85853 17.3032 -8.94931
282 1 12.582 6.28269 15.7318 -8.94714
283 1 14.1557 7.85843 17.3046 -8.953
284 1 15.7334 6.28081 15.7332 -8.93737
285 1 17.2992 7.86119 17.299 -8.94999
286 1 18.8725 6.28761 15.7264 -8.94956
287 1 20.4423 7.86194 17.2973 -8.94958
288 1 7.86243e-05 9.43453 15.725 -8.9495
289 1 3.1432 9.43453 15.7255 -8.94893
290 1 6.28673 9.4343 15.7279 -8.94984
291 1 9.43218 9.42974 15.7359 -8.96095
292 1 12.5846 9.42869 15.7411 -8.96525
293 1 15.7295 9.43365 15.7298 -8.94981
294 1 18.8713 9.43459 15.7255 -8.94943
295 1 22.0137 0.000154293 18.8694 -8.94918
296 1 1.57211 1.57227 20.4416 -8.94918
297 1 3.14423 0.000208176 18.8697 -8.94932
298 1 4.71692 1.57225 20.4418 -8.94954
301 1 9.43441 0.00019105 18.8698 -8.94947
300 1 7.86189 1.57219 20.4418 -8.94949
337 1 22.014 9.43447 18.8694 -8.94949
302 1 11.007 1.57215 20.4418 -8.94951
336 1 20.4419 7.86191 20.4414 -8.94948
304 1 14.152 1.57213 20.4418 -8.94948
39 1 15.7253 6.28836 22.013 -8.95017
306 1 17.297 1.57211 20.4418 -8.94955
307 1 18.8696 4.92418e-05 18.8696 -8.94921
308 1 20.4417 1.57224 20.4416 -8.94905
309 1 22.0139 3.14447 18.8695 -8.94938
310 1 1.57217 4.71704 20.4416 -8.94967
311 1 3.14397 3.14416 18.87 -8.94898
312 1 4.71649 4.7166 20.4421 -8.94984
313 1 6.28904 3.14405 18.8701 -8.94942
314 1 7.8616 4.7164 20.4421 -8.94937
315 1 9.43425 3.14389 18.8702 -8.94936
316 1 11.0068 4.71623 20.4422 -8.94949
317 1 12.5796 3.14383 18.8702 -8.94934
318 1 14.1522 4.71621 20.4421 -8.94945
319 1 15.725 3.1438 18.8701 -8.94948
320 1 17.2977 4.71622 20.442 -8.94948
321 1 18.87 3.14399 18.8699 -8.94866
322 1 20.442 4.71689 20.4415 -8.94955
323 1 22.014 6.28951 18.8694 -8.94961
324 1 1.57217 7.86196 20.4415 -8.94946
325 1 3.14408 6.2894 18.8698 -8.94982
326 1 4.71663 7.86197 20.4418 -8.94967
327 1 6.2882 6.28842 18.8716 -8.95049
328 1 7.86157 7.86171 20.4426 -8.95079
329 1 9.43385 6.28803 18.8716 -8.94923
330 1 11.0067 7.8612 20.4426 -8.95039
331 1 12.5799 6.28791 18.8718 -8.94939
332 1 14.1525 7.86128 20.4424 -8.95122
333 1 15.7262 6.28779 18.8719 -8.95012
334 1 17.2977 7.86161 20.4415 -8.94965
335 1 18.8702 6.2891 18.8698 -8.94973
512 1 1.5721 11.0071 11.0069 -8.9481
513 1 4.71833 11.0083 11.0056 -8.94684
514 1 7.86827 10.9902 11.0194 -8.8832
515 1 11.0579 10.8019 11.3123 -7.30588
516 1 14.1611 10.984 11.0296 -8.92045
517 1 17.2994 11.0068 11.0061 -8.95127
518 1 20.4425 11.0071 11.0069 -8.94911
540 1 1.57134 11.007 14.1528 -8.94945
541 1 4.71411 11.0071 14.1542 -8.94602
542 1 7.8596 11.008 14.1568 -8.94686
543 1 11.0104 10.994 14.1505 -9.01926
544 1 14.1602 11.0095 14.1621 -8.94778
545 1 17.3008 11.008 14.154 -8.94825
546 1 20.4426 11.0072 14.1526 -8.94969
591 1 7.86121 11.0074 17.2988 -8.94932
592 1 11.0073 11.0069 17.298 -8.9467
593 1 14.154 11.0079 17.3003 -8.94997
638 1 1.57211 11.0069 20.4415 -8.94952
640 1 7.86166 11.007 20.4417 -8.94961
3 1 3.14446 0.00025519 22.0136 -8.9496
5 1 6.28948 0.000216729 22.0137 -8.94947
11 1 15.7245 0.000115798 22.0138 -8.94948
13 1 18.8694 0.00013591 22.0137 -8.94947
15 1 22.0139 3.14459 22.0137 -8.94934
17 1 3.14433 3.1444 22.0136 -8.94947
303 1 12.5796 0.000153176 18.8698 -8.94947
33 1 6.28905 6.28909 22.0135 -8.95054
27 1 18.8697 3.14421 22.0137 -8.9492
29 1 22.0141 6.28942 22.0136 -8.94949
31 1 3.14438 6.28939 22.0135 -8.94968
1 1 22.0137 0.000184812 22.0136 -8.94905
21 1 9.43436 3.14423 22.0137 -8.9495
9 1 12.5795 0.000180575 22.0137 -8.94951
23 1 12.5795 3.14417 22.0137 -8.94949
43 1 22.014 9.43434 22.0135 -8.9495
49 1 18.8701 9.4342 22.0131 -8.94938
687 3 10.9621 12.4666 10.1718 2.22396
345 1 4.71612 11.0064 1.57079 -8.94928
511 1 18.8701 18.8703 9.43462 -8.94952
510 1 15.7265 18.8721 9.43424 -8.94857
509 1 12.58 18.8707 9.43395 -8.94753
349 1 17.299 11.0066 1.56967 -8.9492
508 1 9.43343 18.8737 9.43374 -8.94743
351 1 22.014 12.5794 -0.000469574 -8.94952
352 1 1.57192 14.1518 1.57146 -8.94937
353 1 3.14415 12.5792 -0.000651037 -8.94949
354 1 4.71595 14.1517 1.57022 -8.94943
538 1 17.2977 20.4426 11.0071 -8.94933
356 1 7.86149 14.1523 1.56784 -8.95478
153 1 15.7252 22.0145 9.43425 -8.94973
358 1 11.0067 14.1529 1.56997 -8.94803
150 1 6.28821 22.0153 9.43423 -8.95012
360 1 14.1537 14.1537 1.56674 -8.95304
361 1 15.7257 12.5798 -0.00224824 -8.94966
362 1 17.2989 14.1529 1.56965 -8.94895
111 1 18.8696 22.0143 6.28941 -8.94946
364 1 20.4423 14.1521 1.57137 -8.94938
537 1 14.1528 20.4435 11.0067 -8.95026
366 1 1.57166 17.2972 1.5713 -8.94973
148 1 -0.000325937 22.0142 9.43452 -8.94951
368 1 4.71513 17.2987 1.56899 -8.94956
58 1 12.5797 22.0142 3.14404 -8.94947
370 1 7.8619 17.2981 1.57017 -8.94947
56 1 9.43462 22.0144 3.14394 -8.9495
372 1 11.0072 17.2983 1.57054 -8.94931
536 1 11.0073 20.4439 11.007 -8.9499
374 1 14.1522 17.2981 1.57074 -8.94978
534 1 4.71502 20.4441 11.0075 -8.94904
376 1 17.2987 17.2988 1.56982 -8.94833
493 1 6.29096 12.5923 9.4311 -9.01926
378 1 20.4421 17.2974 1.57146 -8.94948
492 1 3.14343 12.5794 9.43423 -8.9467
380 1 1.5716 20.4423 1.57143 -8.94866
491 1 22.0138 12.5792 9.43468 -8.94827
382 1 4.71665 20.4425 1.57138 -8.94982
490 1 20.4416 20.4422 7.862 -8.94949
384 1 7.86202 20.4423 1.57159 -8.9493
385 1 9.43449 18.87 -0.000479676 -8.94949
386 1 11.0071 20.4423 1.57164 -8.94947
387 1 12.5796 18.87 -0.00041346 -8.94943
388 1 14.1521 20.4422 1.5718 -8.94929
489 1 18.8703 18.8705 6.28908 -8.9495
390 1 17.2972 20.4423 1.57171 -8.9498
488 1 17.2977 20.4428 7.86179 -8.94927
392 1 20.4417 20.4421 1.57178 -8.9492
507 1 6.28481 18.8765 9.43413 -8.9477
506 1 3.1419 18.8717 9.43457 -8.94907
505 1 22.0132 18.8701 9.43464 -8.94949
504 1 18.8717 15.7258 9.43479 -8.95001
503 1 15.7317 15.7296 9.43363 -8.94621
502 1 12.5919 15.7244 9.4242 -8.92209
501 1 9.4065 15.7321 9.42248 -8.96824
400 1 0.00025983 12.5793 3.14369 -8.94947
401 1 1.5708 14.1519 4.7158 -8.9497
402 1 3.14326 12.5789 3.14293 -8.94902
403 1 4.71172 14.1527 4.71199 -8.94981
404 1 6.28748 12.5783 3.14073 -8.94825
405 1 7.85297 14.1608 4.69658 -8.96197
406 1 9.43542 12.5795 3.14207 -8.95127
407 1 11.007 14.1549 4.71398 -8.94186
408 1 12.582 12.5811 3.13524 -8.95922
409 1 14.167 14.1653 4.69699 -8.94007
410 1 15.7298 12.5807 3.13758 -8.94732
411 1 17.3038 14.1549 4.71202 -8.94903
412 1 18.8718 12.5797 3.1425 -8.9492
413 1 20.4434 14.1524 4.71584 -8.94993
414 1 22.0139 15.7247 3.14373 -8.94965
415 1 1.56963 17.2985 4.71526 -8.95012
416 1 3.14247 15.7251 3.14231 -8.94999
417 1 4.70832 17.3055 4.70809 -8.93737
418 1 6.28482 15.729 3.13569 -8.95127
419 1 7.8611 17.3023 4.71175 -8.95104
420 1 9.4351 15.7271 3.14044 -8.94808
421 1 11.008 17.3011 4.7135 -8.94425
422 1 12.5795 15.7267 3.14122 -8.94909
423 1 14.1537 17.3014 4.71375 -8.95286
424 1 15.7299 15.7299 3.13724 -8.94597
425 1 17.3011 17.3013 4.71311 -8.94535
426 1 18.8716 15.7259 3.14264 -8.94936
427 1 20.4423 17.298 4.71614 -8.95017
428 1 22.0134 18.8701 3.14378 -8.94948
429 1 1.57135 20.4425 4.71649 -8.94948
430 1 3.14201 18.8719 3.14182 -8.94638
431 1 4.71508 20.4447 4.71492 -8.94966
432 1 6.28865 18.8716 3.14219 -8.95029
433 1 7.86221 20.4435 4.71587 -8.94978
434 1 9.43475 18.8712 3.14287 -8.94869
435 1 11.0074 20.4432 4.71596 -8.94957
436 1 12.5799 18.871 3.14324 -8.94842
437 1 14.152 20.4428 4.71659 -8.9505
438 1 15.7254 18.8713 3.14313 -8.95051
439 1 17.2977 20.4432 4.71624 -8.94964
440 1 18.8704 18.8708 3.14334 -8.94851
441 1 20.4417 20.4422 4.71683 -8.94956
500 1 6.27239 15.7399 9.43379 -8.94367
499 1 3.13824 15.7278 9.43465 -8.94931
498 1 -0.00109507 15.7251 9.43477 -8.95039
497 1 18.8703 12.5796 9.43439 -8.94543
496 1 15.7198 12.5778 9.42931 -8.99939
495 1 12.7969 12.5739 9.35806 -8.08887
494 1 9.12925 12.7844 9.38355 -7.30579
449 1 22.0143 12.5792 6.28887 -8.9505
450 1 1.56897 14.1522 7.8617 -8.95343
451 1 3.14116 12.5784 6.28744 -8.94997
452 1 4.7004 14.1576 7.85684 -8.96525
453 1 6.27942 12.5768 6.28132 -8.94778
454 1 7.78924 14.2265 7.7852 -8.72128
455 1 9.41189 12.6023 6.28039 -8.92045
456 1 11.0125 14.1378 7.86794 -8.90432
457 1 12.6253 12.6111 6.24976 -8.88571
458 1 14.1887 14.1844 7.82579 -8.86241
459 1 15.7424 12.5816 6.27719 -8.95177
460 1 17.3054 14.1537 7.85991 -8.95861
461 1 18.8748 12.5795 6.28727 -8.95139
462 1 20.443 14.1521 7.862 -8.95156
463 1 22.013 15.725 6.28893 -8.95122
464 1 1.56971 17.2984 7.86162 -8.94939
465 1 3.13693 15.7279 6.28579 -8.953
466 1 4.7097 17.3036 7.85952 -8.94714
467 1 6.26303 15.7508 6.26292 -8.90088
468 1 7.85264 17.3171 7.85419 -8.96161
469 1 9.43754 15.7342 6.28166 -8.95095
470 1 11.0059 17.2944 7.86412 -8.94424
471 1 12.5801 15.7316 6.28414 -8.96007
472 1 14.1567 17.3056 7.8582 -8.95524
473 1 15.7374 15.7367 6.27764 -8.93237
474 1 17.3 17.2996 7.86117 -8.94863
475 1 18.873 15.7262 6.28806 -8.95149
476 1 20.4421 17.2978 7.86195 -8.94957
477 1 -0.000648498 18.8701 6.28924 -8.94945
478 1 1.5713 20.4425 7.86187 -8.94934
479 1 3.14182 18.8719 6.28811 -8.94913
480 1 4.715 20.4444 7.86126 -8.94901
481 1 6.28493 18.8781 6.28473 -8.95158
482 1 7.86119 20.4463 7.86108 -8.95382
483 1 9.43575 18.8729 6.28785 -8.95021
484 1 11.0073 20.4421 7.86184 -8.94736
485 1 12.5789 18.8711 6.28917 -8.95154
486 1 14.1525 20.4437 7.86166 -8.95148
487 1 15.7267 18.8735 6.28753 -8.95041
530 1 14.1541 17.3031 11.0065 -8.95242
531 1 17.2991 17.2989 11.0075 -8.94764
399 1 20.4437 11.0065 4.71574 -8.94966
398 1 17.3039 11.0056 4.71167 -8.94732
394 1 4.71426 11.0053 4.71385 -8.94522
393 1 1.57152 11.0064 4.71589 -8.94934
50 1 -0.000274062 22.0142 3.14443 -8.94955
688 3 10.2697 11.1197 9.47937 2.22395
101 1 3.14365 22.0146 6.28904 -8.94931
526 1 1.56987 17.2983 11.0076 -8.94923
527 1 4.71053 17.303 11.009 -8.94605
532 1 20.4419 17.2977 11.0074 -8.94947
383 1 6.28932 18.8699 -0.000608978 -8.94972
377 1 18.87 15.7248 -0.00089766 -8.94937
686 1 20.4417 20.4417 20.4414 -8.94934
685 1 18.8697 18.8695 18.8694 -8.94953
684 1 17.2971 20.4419 20.4417 -8.94962
683 1 15.7251 18.8699 18.8701 -8.94973
682 1 14.1521 20.442 20.4418 -8.94942
681 1 12.5798 18.8701 18.8704 -8.94931
680 1 11.007 20.442 20.4418 -8.9495
519 1 1.56976 14.152 11.0072 -8.95182
520 1 4.70562 14.1566 11.0093 -8.96095
521 1 7.81105 14.2148 11.0635 -8.78762
522 1 10.9953 14.2946 11.0537 -8.26098
523 1 14.161 14.1722 11.0158 -8.90147
524 1 17.2987 14.1523 11.0058 -8.9525
525 1 20.4418 14.1519 11.0071 -8.94982
305 1 15.7247 22.014 18.8697 -8.94946
299 1 6.28925 22.0141 18.8698 -8.94945
528 1 7.85488 17.3144 11.0099 -8.96057
529 1 11.0049 17.3042 11.008 -8.98368
391 1 18.8698 18.8698 22.0132 -8.94917
389 1 15.7246 18.8698 22.0135 -8.94981
258 1 18.8696 22.014 15.7246 -8.9497
533 1 1.57131 20.4424 11.0072 -8.94936
254 1 12.58 22.0143 15.7257 -8.94933
535 1 7.86095 20.4461 11.0071 -8.95248
252 1 9.43429 22.0145 15.7258 -8.94937
248 1 3.14369 22.0144 15.7252 -8.9495
207 1 15.7251 22.0143 12.5795 -8.94972
539 1 20.4416 20.4421 11.0071 -8.9495
679 1 9.43435 18.8701 18.8705 -8.9494
678 1 7.86189 20.442 20.4418 -8.94945
677 1 6.28886 18.8701 18.8705 -8.94965
676 1 4.7168 20.442 20.4417 -8.94958
675 1 3.14391 18.8697 18.8698 -8.94964
674 1 1.57198 20.4419 20.4415 -8.94938
673 1 22.0138 18.8693 18.8693 -8.94967
547 1 22.0136 12.5793 12.5798 -8.94961
548 1 1.57111 14.1517 14.1527 -8.94952
549 1 3.14268 12.5789 12.5803 -8.94932
550 1 4.71358 14.152 14.1548 -8.94984
551 1 6.28469 12.5783 12.5819 -8.94686
552 1 7.85571 14.1573 14.1663 -8.96068
553 1 9.4221 12.5961 12.5732 -8.8832
554 1 11.006 14.1567 14.1569 -8.96022
555 1 12.5945 12.6007 12.5774 -8.86697
556 1 14.1578 14.157 14.1588 -8.94601
557 1 15.728 12.5807 12.5791 -8.95111
558 1 17.2991 14.1526 14.1528 -8.94995
559 1 18.8705 12.5796 12.5796 -8.9498
560 1 20.442 14.152 14.1523 -8.94974
561 1 22.0128 15.7246 12.5799 -8.95079
562 1 1.56992 17.2979 14.1533 -8.95049
563 1 3.13853 15.7267 12.5819 -8.95327
564 1 4.70895 17.3037 14.1591 -8.94258
565 1 6.26722 15.7453 12.5992 -8.92374
566 1 7.85387 17.3083 14.1629 -8.93849
567 1 9.41503 15.7562 12.6076 -8.89611
568 1 11.0077 17.3053 14.1597 -8.9419
569 1 12.5966 15.7509 12.6021 -8.91035
570 1 14.1594 17.3057 14.1599 -8.94084
571 1 15.7316 15.7303 12.5838 -8.95002
572 1 17.3001 17.2991 14.154 -8.94975
573 1 18.8707 15.7248 12.5797 -8.95163
574 1 20.4418 17.2972 14.1524 -8.95054
575 1 -0.00065613 18.8699 12.5799 -8.94937
576 1 1.57138 20.4423 14.1524 -8.94942
577 1 3.14207 18.8714 12.5807 -8.94883
578 1 4.71507 20.444 14.1536 -8.94997
579 1 6.28546 18.8765 12.5827 -8.95165
580 1 7.86071 20.4452 14.1542 -8.9505
581 1 9.43352 18.8783 12.5832 -8.95486
582 1 11.0075 20.4447 14.1543 -8.94931
583 1 12.5807 18.8759 12.5818 -8.95566
584 1 14.1534 20.444 14.1534 -8.95101
585 1 15.7261 18.8718 12.5802 -8.95001
586 1 17.2978 20.4425 14.1524 -8.94982
587 1 18.87 18.8701 12.5798 -8.94918
588 1 20.4416 20.4419 14.1521 -8.94947
589 1 1.57187 11.007 17.2974 -8.94949
590 1 4.71583 11.0069 17.2982 -8.94901
672 1 20.4418 17.2969 20.4413 -8.94949
671 1 18.8698 15.7246 18.8693 -8.94936
670 1 17.2974 17.2973 20.4411 -8.94981
594 1 17.2986 11.0074 17.2982 -8.94902
595 1 20.4421 11.0071 17.2973 -8.94949
596 1 -6.94341e-05 12.5795 15.725 -8.94956
597 1 1.57185 14.1519 17.2974 -8.94934
598 1 3.14327 12.5794 15.7257 -8.94901
599 1 4.71602 14.1518 17.2983 -8.94893
600 1 6.28726 12.5792 15.7274 -8.94602
601 1 7.86176 14.1515 17.2998 -8.95352
602 1 9.4359 12.578 15.7231 -8.94684
603 1 11.007 14.1519 17.2985 -8.95032
604 1 12.5797 12.5791 15.7241 -8.94871
605 1 14.1526 14.1521 17.2985 -8.95147
606 1 15.7276 12.581 15.7272 -8.94522
607 1 17.2981 14.1525 17.2978 -8.94869
608 1 18.8707 12.5799 15.7254 -8.94928
609 1 20.442 14.1521 17.2972 -8.94939
610 1 22.0136 15.7244 15.7248 -8.94967
611 1 1.57168 17.2969 17.2974 -8.94982
612 1 3.14293 15.7246 15.7259 -8.95002
613 1 4.71524 17.2981 17.2994 -8.95003
614 1 6.28565 15.7274 15.7312 -8.95173
615 1 7.86079 17.2987 17.3006 -8.95023
616 1 9.43352 15.7282 15.7325 -8.95373
617 1 11.0073 17.2988 17.3002 -8.94915
618 1 12.5808 15.7272 15.7304 -8.95433
619 1 14.1532 17.2983 17.2996 -8.9505
620 1 15.7272 15.7266 15.7276 -8.94895
621 1 17.2981 17.2977 17.298 -8.94952
622 1 18.8702 15.7247 15.725 -8.94976
623 1 20.4418 17.2969 17.2971 -8.94968
624 1 22.0133 18.8697 15.725 -8.94984
625 1 1.57151 20.4422 17.2975 -8.94898
626 1 3.14195 18.8713 15.7268 -8.9476
627 1 4.7159 20.4427 17.2983 -8.94883
628 1 6.28632 18.8731 15.7285 -8.94678
629 1 7.8615 20.4427 17.2983 -8.94925
630 1 9.4339 18.8725 15.7279 -8.94825
631 1 11.0072 20.4426 17.2983 -8.94944
632 1 12.5808 18.8721 15.7274 -8.94797
633 1 14.1526 20.4424 17.298 -8.94921
634 1 15.7273 18.8722 15.7273 -8.94719
635 1 17.2979 20.4423 17.2978 -8.94887
636 1 18.8703 18.8701 15.7252 -8.94956
637 1 20.4417 20.4419 17.2972 -8.94947
669 1 15.725 15.7248 18.8697 -8.9503
639 1 4.71648 11.0068 20.4415 -8.94956
668 1 14.1522 17.2974 20.4417 -8.94988
667 1 12.5796 15.7248 18.8706 -8.95062
666 1 11.007 17.2975 20.4419 -8.94982
643 1 17.2978 11.007 20.4412 -8.94947
665 1 9.43442 15.7249 18.871 -8.95097
645 1 22.0139 12.5794 18.8694 -8.94952
646 1 1.5721 14.1518 20.4414 -8.94949
647 1 3.1441 12.5794 18.8696 -8.94949
648 1 4.71652 14.1518 20.4414 -8.9495
649 1 6.28873 12.5793 18.8701 -8.94945
650 1 7.86187 14.1517 20.4413 -8.95082
651 1 9.43453 12.5792 18.8694 -8.9481
652 1 11.0068 14.152 20.4413 -8.94957
653 1 12.5795 12.5794 18.8693 -8.94882
654 1 14.1522 14.1522 20.4407 -8.95056
655 1 15.7256 12.58 18.87 -8.94934
656 1 17.2977 14.1523 20.4411 -8.94936
657 1 18.87 12.5796 18.8695 -8.94946
658 1 20.4419 14.152 20.4413 -8.9495
659 1 22.0139 15.7244 18.8693 -8.94946
660 1 1.57209 17.2968 20.4414 -8.94961
661 1 3.14417 15.7243 18.8696 -8.94949
662 1 4.71648 17.2972 20.4413 -8.95031
663 1 6.28894 15.7245 18.8705 -8.95106
664 1 7.86177 17.2974 20.4419 -8.94996
381 1 3.14396 18.8699 22.0129 -8.94943
201 1 6.28843 22.0151 12.5801 -8.95064
355 1 6.2889 12.5791 22.0128 -8.94969
357 1 9.4346 12.5792 22.0129 -8.94911
359 1 12.5794 12.5796 22.0115 -8.95096
365 1 22.014 15.7244 22.0134 -8.94948
367 1 3.14414 15.7244 22.0131 -8.94958
369 1 6.28885 15.7249 22.0119 -8.95131
371 1 9.43446 15.7251 22.0127 -8.94977
373 1 12.5794 15.7251 22.0128 -8.94957
375 1 15.7254 15.7254 22.0118 -8.95044
246 1 -0.000274133 22.0141 15.7246 -8.94954
379 1 22.0138 18.8694 22.0134 -8.94955
363 1 18.8701 12.5795 22.013 -8.94943
