ITEM: TIMESTEP
63
ITEM: NUMBER OF ATOMS
688
ITEM: BOX BOUNDS pp pp pp
0.0000000000000000e+00 2.2013900999999997e+01
0.0000000000000000e+00 2.2013900999999997e+01
0.0000000000000000e+00 2.2013900999999997e+01
ITEM: ATOMS id type x y z c_pot
7 1 9.43451 0.000105861 -0.000113032 -8.94959
2 1 1.57214 1.57236 1.57215 -8.94931
448 1 20.4435 11.0068 7.86216 -8.95102
4 1 4.71712 1.57229 1.57213 -8.94972
447 1 17.3058 11.0055 7.86026 -8.95913
6 1 7.86204 1.57227 1.57209 -8.94951
175 1 18.8712 9.4336 9.43489 -8.9481
8 1 11.007 1.57224 1.57207 -8.94957
174 1 15.7273 9.43199 9.4349 -8.94166
10 1 14.1519 1.57222 1.57213 -8.94951
446 1 14.1912 10.9757 7.81832 -8.88681
12 1 17.2969 1.57217 1.57217 -8.94959
445 1 11.0843 11.0127 7.64743 -8.08984
14 1 20.4416 1.57236 1.57229 -8.94955
444 1 7.86262 10.9832 7.84595 -8.8641
16 1 1.5722 4.71702 1.57205 -8.94955
443 1 4.71675 11.007 7.86183 -8.94895
18 1 4.71657 4.71654 1.57143 -8.94957
442 1 1.57192 11.0069 7.86199 -8.94897
20 1 7.86186 4.71657 1.57163 -8.94922
149 1 3.14414 0.000327413 9.43452 -8.94948
22 1 11.0069 4.71641 1.57159 -8.94954
154 1 18.8694 0.000179401 9.43451 -8.94957
24 1 14.1521 4.71634 1.57158 -8.94959
188 1 17.298 4.71574 11.0067 -8.9488
26 1 17.2976 4.71619 1.57154 -8.94859
183 1 1.57142 4.71654 11.0071 -8.94941
28 1 20.4419 4.71687 1.57202 -8.94926
397 1 14.1626 11.0049 4.70091 -8.95174
30 1 1.57219 7.86195 1.57203 -8.94944
396 1 11.0116 11.0078 4.72045 -8.99849
32 1 4.71664 7.86183 1.57145 -8.94972
395 1 7.86244 11.0054 4.71345 -8.95171
34 1 7.86177 7.86164 1.57073 -8.95149
35 1 9.43421 6.28898 -0.000472887 -8.94948
36 1 11.0066 7.86081 1.57001 -8.94991
37 1 12.5794 6.28894 -0.000544251 -8.94954
38 1 14.153 7.86056 1.5692 -8.95129
181 1 17.2972 1.57215 11.0069 -8.94953
40 1 17.298 7.86109 1.57068 -8.94945
346 1 7.86179 11.0068 1.57091 -8.94978
42 1 20.4419 7.86186 1.57194 -8.94948
164 1 6.28197 6.28152 9.43373 -8.94201
44 1 3.14446 9.43439 -0.000339194 -8.94945
350 1 20.4419 11.0069 1.57188 -8.94952
348 1 14.1535 11.0068 1.56766 -8.95116
347 1 11.0068 11.0067 1.57086 -8.94588
48 1 15.7251 9.43413 -0.00135825 -8.94985
163 1 3.14174 6.28796 9.43428 -8.94919
344 1 1.57209 11.0068 1.5719 -8.94954
51 1 1.57209 1.57231 4.71708 -8.94955
52 1 3.14427 0.00040539 3.14425 -8.94942
53 1 4.71653 1.57204 4.71649 -8.95001
54 1 6.28962 0.000259307 3.14438 -8.9497
55 1 7.86209 1.572 4.71665 -8.94962
173 1 12.5724 9.44786 9.42977 -8.9035
57 1 11.0071 1.57191 4.71657 -8.94968
172 1 9.38375 9.28249 9.4441 -8.25387
59 1 14.1521 1.57177 4.71683 -8.95022
60 1 15.7244 0.000107549 3.14452 -8.94994
61 1 17.297 1.57231 4.71706 -8.94994
62 1 18.8693 0.000253324 3.1446 -8.94959
63 1 20.4415 1.57235 4.71718 -8.94955
64 1 22.0137 3.14463 3.14464 -8.94965
65 1 1.57156 4.71668 4.71672 -8.94972
66 1 3.144 3.14414 3.144 -8.94879
67 1 4.71452 4.71444 4.71451 -8.94679
68 1 6.28937 3.14411 3.14408 -8.94978
69 1 7.86156 4.71496 4.71562 -8.94983
70 1 9.43444 3.144 3.14404 -8.94938
71 1 11.0071 4.71466 4.71536 -8.94849
72 1 12.5795 3.14389 3.14407 -8.94928
73 1 14.1535 4.7135 4.71525 -8.95028
74 1 15.7249 3.14363 3.14408 -8.94958
75 1 17.2978 4.71573 4.71657 -8.95039
76 1 18.8694 3.1444 3.14455 -8.94977
77 1 20.4417 4.71686 4.71709 -8.94981
78 1 22.0141 6.28931 3.1444 -8.94976
79 1 1.57175 7.86179 4.71669 -8.95016
80 1 3.14382 6.289 3.1438 -8.94943
81 1 4.71415 7.86018 4.71456 -8.94864
82 1 6.2878 6.28767 3.14173 -8.94989
83 1 7.85784 7.85673 4.70989 -8.95103
84 1 9.434 6.28779 3.14262 -8.94783
85 1 11.0074 7.85727 4.71015 -8.94688
86 1 12.5799 6.2874 3.14213 -8.94882
87 1 14.1626 7.85063 4.70548 -8.93257
88 1 15.7275 6.28596 3.14129 -8.94546
89 1 17.3029 7.85741 4.71271 -8.94605
90 1 18.8708 6.28823 3.14344 -8.94843
91 1 20.4429 7.86131 4.71649 -8.95033
92 1 0.000132078 9.43429 3.14425 -8.94941
93 1 3.14386 9.43413 3.14379 -8.94882
94 1 6.28863 9.43398 3.14248 -8.95006
95 1 9.43531 9.43401 3.14249 -8.95195
96 1 12.581 9.43278 3.13667 -8.95817
97 1 15.7282 9.43207 3.13918 -8.94916
98 1 18.8708 9.4339 3.14341 -8.94908
99 1 22.0138 0.000111004 6.28962 -8.94958
100 1 1.57204 1.57229 7.86203 -8.94956
166 1 12.5774 6.29125 9.43488 -8.94403
102 1 4.71632 1.57194 7.86173 -8.94933
103 1 6.28904 0.00109955 6.28892 -8.95103
104 1 7.86181 1.57154 7.86169 -8.95132
105 1 9.43487 0.000487347 6.2891 -8.94984
106 1 11.0072 1.57189 7.86178 -8.94904
107 1 12.5795 0.000218508 6.28932 -8.94988
108 1 14.1522 1.5722 7.86196 -8.94988
109 1 15.7247 0.000654238 6.28938 -8.95022
110 1 17.2972 1.5722 7.86193 -8.94949
165 1 9.43278 6.28361 9.43546 -8.98516
112 1 20.4416 1.57232 7.86205 -8.94958
113 1 -0.000188701 3.14456 6.28955 -8.9495
114 1 1.57146 4.71656 7.86185 -8.94936
115 1 3.14392 3.1441 6.28921 -8.94928
116 1 4.71464 4.71469 7.86098 -8.94795
117 1 6.28839 3.14238 6.28835 -8.95101
118 1 7.85985 4.71048 7.8607 -8.95612
119 1 9.43481 3.14292 6.28885 -8.95015
120 1 11.0073 4.71541 7.86155 -8.94811
121 1 12.5797 3.14285 6.28913 -8.9515
122 1 14.1522 4.71537 7.86252 -8.95125
123 1 15.7247 3.14389 6.28959 -8.95032
124 1 17.2978 4.71585 7.86179 -8.94852
125 1 18.8694 3.14442 6.28955 -8.94935
126 1 20.4417 4.71672 7.86198 -8.94949
127 1 22.0136 6.28925 6.28947 -8.94988
128 1 1.57084 7.8617 7.86194 -8.9507
129 1 3.14214 6.2883 6.28845 -8.95052
130 1 4.71063 7.85938 7.86055 -8.95473
131 1 6.28129 6.28057 6.28165 -8.93967
132 1 7.83706 7.83418 7.84245 -8.90636
133 1 9.43491 6.28348 6.28716 -8.95217
134 1 11.0175 7.86101 7.84873 -8.92016
135 1 12.583 6.28103 6.28513 -8.95499
136 1 14.1566 7.85527 7.86199 -8.96042
137 1 15.7269 6.28575 6.28842 -8.95278
138 1 17.2996 7.86017 7.8624 -8.94915
139 1 18.8702 6.28875 6.28956 -8.94979
140 1 20.4422 7.86152 7.86216 -8.9496
141 1 22.0143 9.43431 6.28937 -8.95052
142 1 3.14276 9.43445 6.28894 -8.95136
143 1 6.28219 9.42954 6.28337 -8.94468
144 1 9.42604 9.41461 6.28093 -8.90334
145 1 12.6144 9.40264 6.25406 -8.86266
146 1 15.7429 9.42198 6.27608 -8.94009
147 1 18.8738 9.43305 6.28831 -8.95288
171 1 6.28327 9.4293 9.43511 -8.9613
170 1 3.14256 9.4345 9.43455 -8.95052
169 1 22.0139 9.43437 9.43466 -8.94972
151 1 9.43478 0.000821234 9.43425 -8.94943
152 1 12.5797 0.000532076 9.43425 -8.94904
168 1 18.8705 6.28844 9.43439 -8.94935
167 1 15.7274 6.28583 9.43361 -8.9445
155 1 22.0137 3.14453 9.4345 -8.94956
156 1 3.14382 3.14404 9.43445 -8.9495
157 1 6.28778 3.14192 9.43417 -8.9493
158 1 9.43452 3.14253 9.43416 -8.9494
159 1 12.5797 3.14408 9.43416 -8.94764
160 1 15.7252 3.14352 9.43416 -8.94956
161 1 18.8696 3.14432 9.43445 -8.94955
162 1 -0.000418 6.28909 9.43449 -8.9498
177 1 4.71629 1.57187 11.0071 -8.94937
184 1 4.71439 4.7145 11.0075 -8.94824
41 1 18.8695 6.28935 -0.000399415 -8.94956
19 1 6.28956 3.14458 -0.000155827 -8.94952
25 1 15.7244 3.14451 -0.000141175 -8.94964
176 1 1.57203 1.57228 11.007 -8.94956
199 1 3.14419 0.000270917 12.5796 -8.94938
178 1 7.86161 1.57122 11.0069 -8.95135
179 1 11.0072 1.5716 11.0067 -8.94943
180 1 14.1524 1.57193 11.0066 -8.94984
644 1 20.4417 11.0069 20.4415 -8.94959
182 1 20.4416 1.57232 11.007 -8.94959
642 1 14.1524 11.0071 20.4413 -8.95037
209 1 18.8694 0.000152621 12.5794 -8.94951
185 1 7.8589 4.70882 11.0076 -8.95535
186 1 11.0074 4.71278 11.0072 -8.94847
187 1 14.1532 4.71409 11.0055 -8.95
641 1 11.0068 11.0071 20.4415 -8.94855
189 1 20.4418 4.7167 11.007 -8.94953
190 1 1.57057 7.86163 11.0071 -8.95096
191 1 4.70914 7.85874 11.008 -8.95411
192 1 7.83259 7.83004 11.0271 -8.89239
193 1 11.0188 7.8528 11.0328 -8.96495
194 1 14.159 7.85325 11.0031 -8.95068
195 1 17.3003 7.85985 11.0063 -8.94815
196 1 20.4424 7.86147 11.007 -8.94977
197 1 22.0138 0.00010749 12.5794 -8.94958
198 1 1.57208 1.57228 14.152 -8.94955
343 1 18.8696 9.43453 18.8694 -8.94945
200 1 4.71639 1.57183 14.1524 -8.94981
342 1 15.7251 9.43457 18.8703 -8.9496
202 1 7.86166 1.57162 14.1526 -8.95046
203 1 9.43458 0.00120037 12.5799 -8.95135
204 1 11.0071 1.57149 14.1528 -8.95001
205 1 12.5798 0.00087966 12.5797 -8.95132
206 1 14.1526 1.57132 14.1524 -8.95103
341 1 12.5795 9.43442 18.8719 -8.95317
208 1 17.2971 1.57216 14.1519 -8.9497
340 1 9.43436 9.43455 18.8711 -8.95158
210 1 20.4416 1.57233 14.1519 -8.94955
211 1 -0.000184743 3.14454 12.5795 -8.94952
212 1 1.57143 4.71661 14.1523 -8.94964
213 1 3.14383 3.14403 12.5797 -8.94933
214 1 4.7139 4.71404 14.1546 -8.94659
215 1 6.28799 3.14181 12.5805 -8.95056
216 1 7.85969 4.71145 14.155 -8.95134
217 1 9.43453 3.141 12.5802 -8.95223
218 1 11.0072 4.71139 14.1554 -8.94763
219 1 12.5801 3.14085 12.5799 -8.95371
220 1 14.1557 4.70991 14.1554 -8.9515
221 1 15.7251 3.14349 12.5792 -8.9497
222 1 17.2983 4.71565 14.1523 -8.95027
223 1 18.8695 3.14438 12.5794 -8.94939
224 1 20.4418 4.71683 14.152 -8.94969
225 1 22.0135 6.2892 12.5796 -8.94991
226 1 1.57134 7.86195 14.1523 -8.95077
227 1 3.14157 6.28813 12.5805 -8.95025
228 1 4.71158 7.85985 14.155 -8.95147
229 1 6.27932 6.27909 12.5873 -8.9377
230 1 7.84423 7.84372 14.1722 -8.92575
231 1 9.43199 6.27365 12.5852 -8.95985
232 1 11.0074 7.84878 14.1667 -8.94392
233 1 12.5865 6.27079 12.5872 -8.96126
234 1 14.1764 7.83782 14.1761 -8.90178
235 1 15.7285 6.28534 12.5797 -8.951
236 1 17.3042 7.85844 14.1556 -8.95131
237 1 18.8706 6.28873 12.5794 -8.94943
238 1 20.4429 7.86167 14.1524 -8.95103
239 1 22.014 9.43458 12.5796 -8.95068
240 1 3.14196 9.43503 12.5797 -8.95318
241 1 6.27606 9.43025 12.585 -8.95965
242 1 9.38041 9.37425 12.6267 -8.79019
243 1 12.6547 9.36201 12.6494 -8.72192
244 1 15.7433 9.42697 12.5872 -8.96209
245 1 18.873 9.43423 12.5798 -8.9544
47 1 12.5794 9.43427 22.0124 -8.95143
247 1 1.57213 1.5723 17.2969 -8.94941
46 1 9.43437 9.43441 22.0133 -8.9498
249 1 4.71679 1.57217 17.2972 -8.94957
250 1 6.28904 0.000596076 15.7251 -8.94981
251 1 7.86188 1.57215 17.2973 -8.94938
339 1 6.28911 9.43469 18.8699 -8.9495
253 1 11.007 1.57209 17.2973 -8.94948
338 1 3.14442 9.43449 18.8694 -8.94942
255 1 14.1521 1.57208 17.2973 -8.94939
256 1 15.725 0.000385177 15.7249 -8.95001
257 1 17.2972 1.57202 17.2972 -8.94942
45 1 6.28926 9.43443 22.0133 -8.94974
259 1 20.4416 1.57232 17.2968 -8.94967
260 1 22.0137 3.14459 15.7244 -8.9496
261 1 1.57199 4.71692 17.2971 -8.94965
262 1 3.14385 3.14402 15.7251 -8.94883
263 1 4.71559 4.71573 17.2986 -8.94789
264 1 6.28861 3.14317 15.7256 -8.94993
265 1 7.86142 4.71583 17.2984 -8.94898
266 1 9.4342 3.1431 15.7256 -8.9491
267 1 11.0069 4.7156 17.2985 -8.94917
268 1 12.5798 3.14295 15.7256 -8.94905
269 1 14.1526 4.71554 17.2985 -8.94931
270 1 15.7257 3.14263 15.7257 -8.94966
271 1 17.2986 4.71536 17.2986 -8.94671
272 1 18.8696 3.14435 15.7245 -8.94984
273 1 20.4421 4.71681 17.2971 -8.94948
274 1 22.014 6.28937 15.7246 -8.95012
275 1 1.57213 7.8621 17.297 -8.94952
276 1 3.14297 6.28878 15.7255 -8.94995
277 1 4.71625 7.86206 17.2979 -8.95002
278 1 6.28386 6.28415 15.731 -8.94332
279 1 7.86023 7.86044 17.3017 -8.95323
280 1 9.43306 6.285 15.7293 -8.94631
281 1 11.0067 7.85961 17.3018 -8.9493
282 1 12.5811 6.28447 15.73 -8.94739
283 1 14.1546 7.85944 17.3031 -8.95297
284 1 15.7316 6.28247 15.7315 -8.93793
285 1 17.2982 7.86167 17.2982 -8.94998
286 1 18.8715 6.2883 15.7256 -8.94957
287 1 20.4419 7.86206 17.297 -8.94959
288 1 3.02198e-05 9.43453 15.7247 -8.9495
289 1 3.14371 9.43466 15.7251 -8.94901
290 1 6.28753 9.43493 15.727 -8.95
291 1 9.43265 9.4312 15.7342 -8.96047
292 1 12.5837 9.43011 15.7394 -8.96512
293 1 15.7282 9.43429 15.7285 -8.94983
294 1 18.8705 9.43467 15.7251 -8.94943
295 1 22.0138 8.00852e-05 18.8692 -8.94937
296 1 1.5723 1.57234 20.4415 -8.94937
297 1 3.14458 0.000116819 18.8694 -8.94941
298 1 4.71716 1.57235 20.4416 -8.94962
301 1 9.43447 0.000140483 18.8694 -8.94956
300 1 7.86204 1.57231 20.4416 -8.94958
337 1 22.0139 9.4345 18.8692 -8.94957
302 1 11.007 1.5723 20.4416 -8.94959
336 1 20.4417 7.86204 20.4415 -8.94956
304 1 14.1519 1.57231 20.4416 -8.94958
39 1 15.7249 6.28887 22.0132 -8.95006
306 1 17.2968 1.57231 20.4416 -8.94966
307 1 18.8693 6.3709e-05 18.8693 -8.94931
308 1 20.4416 1.57235 20.4415 -8.9493
309 1 22.0139 3.14468 18.8692 -8.94951
310 1 1.57231 4.7172 20.4415 -8.94969
311 1 3.14439 3.14447 18.8695 -8.94914
312 1 4.71686 4.71689 20.4418 -8.94981
313 1 6.28943 3.14444 18.8696 -8.94952
314 1 7.86187 4.71677 20.4418 -8.94943
315 1 9.43441 3.14433 18.8696 -8.94947
316 1 11.0069 4.71669 20.4418 -8.94954
317 1 12.5794 3.14433 18.8696 -8.94946
318 1 14.152 4.71673 20.4418 -8.9495
319 1 15.7245 3.14435 18.8696 -8.94962
320 1 17.2972 4.71671 20.4418 -8.94953
321 1 18.8696 3.1444 18.8695 -8.94888
322 1 20.4417 4.71714 20.4415 -8.94964
323 1 22.0139 6.28964 18.8692 -8.94963
324 1 1.57228 7.86205 20.4415 -8.94953
325 1 3.14448 6.28959 18.8694 -8.94981
326 1 4.71691 7.86205 20.4416 -8.94965
327 1 6.28877 6.28889 18.8707 -8.95043
328 1 7.86177 7.86186 20.4421 -8.95067
329 1 9.43411 6.28864 18.8707 -8.94925
330 1 11.0067 7.8615 20.4421 -8.95027
331 1 12.5796 6.2886 18.8709 -8.94939
332 1 14.1522 7.86159 20.4421 -8.95104
333 1 15.7255 6.28848 18.871 -8.9501
334 1 17.2972 7.86188 20.4415 -8.94963
335 1 18.8696 6.28945 18.8695 -8.94977
512 1 1.57196 11.0071 11.0071 -8.94824
513 1 4.71798 11.0081 11.0056 -8.94682
514 1 7.86839 10.9893 11.0184 -8.88115
515 1 11.0606 10.8086 11.3126 -7.30101
516 1 14.1611 10.9862 11.028 -8.92265
517 1 17.2996 11.0071 11.0062 -8.95121
518 1 20.4425 11.0071 11.007 -8.94927
540 1 1.57155 11.007 14.1525 -8.94941
541 1 4.71469 11.0074 14.1538 -8.94616
542 1 7.86055 11.0085 14.1557 -8.94777
543 1 11.0105 10.996 14.1502 -9.01938
544 1 14.1592 11.0102 14.1609 -8.94805
545 1 17.3001 11.0081 14.1536 -8.94836
546 1 20.4424 11.0071 14.1524 -8.94965
591 1 7.86137 11.0075 17.2984 -8.94922
592 1 11.0071 11.0073 17.298 -8.94668
593 1 14.1535 11.0079 17.2999 -8.94973
638 1 1.57225 11.0069 20.4415 -8.94959
640 1 7.86173 11.007 20.4416 -8.94963
3 1 3.14471 0.000100458 22.0138 -8.94967
5 1 6.28962 8.92429e-05 22.0138 -8.94955
11 1 15.7243 6.78183e-05 22.0138 -8.94955
13 1 18.8692 6.58576e-05 22.0138 -8.94955
15 1 22.0139 3.14474 22.0138 -8.94948
17 1 3.14459 3.14459 22.0137 -8.94953
303 1 12.5795 0.000134425 18.8694 -8.94956
33 1 6.28929 6.2893 22.0135 -8.95039
27 1 18.8694 3.14454 22.0138 -8.94932
29 1 22.0139 6.2896 22.0138 -8.94958
31 1 3.14458 6.28956 22.0136 -8.94966
1 1 22.0138 6.99299e-05 22.0138 -8.9493
21 1 9.43446 3.1445 22.0137 -8.94957
9 1 12.5794 9.98953e-05 22.0138 -8.94958
23 1 12.5794 3.14449 22.0137 -8.94956
43 1 22.0139 9.43446 22.0137 -8.94958
49 1 18.8696 9.43439 22.0135 -8.94948
687 3 10.9612 12.4758 10.1761 2.21759
345 1 4.71635 11.0066 1.57113 -8.94931
511 1 18.8699 18.8699 9.4346 -8.94954
510 1 15.7261 18.8717 9.43433 -8.94849
509 1 12.5799 18.8709 9.43415 -8.94811
349 1 17.2981 11.0067 1.57063 -8.94926
508 1 9.43425 18.8735 9.43403 -8.94847
351 1 22.0139 12.5794 -0.000208143 -8.94959
352 1 1.57209 14.1518 1.57192 -8.94945
353 1 3.14441 12.5793 -0.000400963 -8.94954
354 1 4.71639 14.1516 1.57094 -8.94943
538 1 17.2974 20.4423 11.007 -8.94938
356 1 7.86165 14.1521 1.56849 -8.9544
153 1 15.7249 22.0144 9.43434 -8.94968
358 1 11.0066 14.1527 1.57025 -8.9481
150 1 6.28868 22.0148 9.43435 -8.95001
360 1 14.1532 14.1533 1.56772 -8.95288
361 1 15.7252 12.5796 -0.00151556 -8.94961
362 1 17.2981 14.1524 1.57063 -8.94908
111 1 18.8694 22.0141 6.28957 -8.94951
364 1 20.4419 14.1519 1.57189 -8.94948
537 1 14.1526 20.4434 11.0067 -8.95015
366 1 1.57203 17.2969 1.57189 -8.94977
148 1 -0.000124949 22.014 9.43453 -8.94959
368 1 4.71583 17.298 1.57003 -8.94957
58 1 12.5795 22.0141 3.14433 -8.94949
370 1 7.86207 17.2976 1.57087 -8.94943
56 1 9.43457 22.0142 3.14429 -8.94953
372 1 11.0071 17.2979 1.571 -8.94935
536 1 11.0073 20.4438 11.007 -8.9494
374 1 14.1519 17.2976 1.57133 -8.94979
534 1 4.71583 20.4432 11.0073 -8.9491
376 1 17.298 17.2981 1.57063 -8.94843
493 1 6.29133 12.5904 9.43102 -9.01938
378 1 20.4419 17.297 1.57195 -8.94956
492 1 3.14347 12.579 9.4344 -8.94668
380 1 1.57199 20.4419 1.57191 -8.94888
491 1 22.0139 12.5792 9.43472 -8.94855
382 1 4.71701 20.442 1.57191 -8.94984
490 1 20.4416 20.4418 7.86207 -8.94956
384 1 7.86208 20.4419 1.57196 -8.94939
385 1 9.4345 18.8696 -0.000297635 -8.94953
386 1 11.007 20.442 1.57193 -8.94955
387 1 12.5795 18.8696 -0.000251597 -8.94949
388 1 14.1519 20.4419 1.57205 -8.94935
489 1 18.8699 18.87 6.28938 -8.94959
390 1 17.2969 20.4419 1.57205 -8.94977
488 1 17.2974 20.4424 7.86193 -8.94928
392 1 20.4416 20.4418 1.57212 -8.94932
507 1 6.2861 18.8749 9.43428 -8.94763
506 1 3.14296 18.8707 9.43461 -8.94917
505 1 22.0136 18.8696 9.43459 -8.94954
504 1 18.8715 15.7255 9.43489 -8.94991
503 1 15.7313 15.7291 9.43411 -8.94688
502 1 12.5927 15.7253 9.424 -8.92016
501 1 9.40866 15.7335 9.42265 -8.96495
400 1 7.00272e-05 12.5794 3.14418 -8.9495
401 1 1.57122 14.1518 4.71635 -8.9496
402 1 3.14362 12.579 3.14351 -8.94906
403 1 4.71294 14.152 4.71326 -8.94983
404 1 6.28791 12.5782 3.14141 -8.94836
405 1 7.85432 14.1594 4.69814 -8.96209
406 1 9.43528 12.5792 3.14185 -8.95121
407 1 11.0066 14.1543 4.71421 -8.94166
408 1 12.5812 12.5808 3.1357 -8.95913
409 1 14.1654 14.1643 4.69858 -8.94009
410 1 15.7284 12.5803 3.13915 -8.94745
411 1 17.3023 14.1542 4.71331 -8.94916
412 1 18.8708 12.5796 3.14338 -8.94926
413 1 20.4428 14.1522 4.71637 -8.94985
414 1 22.0139 15.7244 3.14427 -8.94963
415 1 1.57047 17.2978 4.71602 -8.9501
416 1 3.1433 15.7247 3.1433 -8.94998
417 1 4.70997 17.3039 4.70983 -8.93793
418 1 6.28588 15.7279 3.13731 -8.95131
419 1 7.86183 17.301 4.71299 -8.951
420 1 9.43515 15.7265 3.14114 -8.94815
421 1 11.0079 17.3005 4.71406 -8.9445
422 1 12.5791 15.7262 3.14193 -8.94915
423 1 14.1531 17.3006 4.71453 -8.95278
424 1 15.7288 15.7289 3.13862 -8.94605
425 1 17.3002 17.3004 4.71401 -8.94546
426 1 18.8708 15.7252 3.14345 -8.94945
427 1 20.4421 17.2975 4.71659 -8.95006
428 1 22.0136 18.8696 3.1443 -8.94953
429 1 1.57189 20.442 4.71696 -8.94962
430 1 3.14292 18.871 3.14284 -8.94671
431 1 4.71581 20.4437 4.71574 -8.94966
432 1 6.28918 18.8707 3.14318 -8.95027
433 1 7.86232 20.4428 4.71639 -8.9497
434 1 9.43473 18.8706 3.14344 -8.9488
435 1 11.0073 20.4428 4.71627 -8.94956
436 1 12.5797 18.8705 3.14366 -8.94852
437 1 14.1519 20.4424 4.71679 -8.95032
438 1 15.7249 18.8706 3.1437 -8.95039
439 1 17.2974 20.4427 4.71658 -8.94958
440 1 18.8699 18.8701 3.14391 -8.94859
441 1 20.4416 20.4418 4.7171 -8.94964
500 1 6.27481 15.7375 9.43411 -8.94392
499 1 3.13965 15.7267 9.4348 -8.9493
498 1 -0.000659235 15.7248 9.43474 -8.95027
497 1 18.8706 12.5796 9.43464 -8.94588
496 1 15.721 12.5785 9.42992 -8.99849
495 1 12.794 12.5737 9.35714 -8.08984
494 1 9.12892 12.7777 9.38089 -7.30101
449 1 22.0141 12.5792 6.28912 -8.95037
450 1 1.56956 14.1519 7.86194 -8.95317
451 1 3.14159 12.5784 6.28794 -8.94973
452 1 4.70206 14.1562 7.85777 -8.96512
453 1 6.28059 12.5761 6.28225 -8.94805
454 1 7.79204 14.2243 7.78681 -8.72192
455 1 9.41347 12.6001 6.28033 -8.92265
456 1 11.0117 14.1385 7.86904 -8.9035
457 1 12.6232 12.6106 6.25032 -8.88681
458 1 14.1874 14.1837 7.82705 -8.86266
459 1 15.7406 12.5814 6.27891 -8.95174
460 1 17.3048 14.1535 7.86047 -8.95817
461 1 18.8738 12.5795 6.28797 -8.95116
462 1 20.4429 14.152 7.86211 -8.95143
463 1 22.0133 15.7247 6.28924 -8.95104
464 1 1.57062 17.2977 7.86191 -8.94939
465 1 3.13841 15.7269 6.28683 -8.95297
466 1 4.71152 17.3018 7.86043 -8.94739
467 1 6.26535 15.7485 6.26505 -8.90178
468 1 7.85424 17.3155 7.85497 -8.96126
469 1 9.43834 15.7331 6.28248 -8.95068
470 1 11.0066 17.2951 7.86408 -8.94403
471 1 12.5795 15.7311 6.28484 -8.96042
472 1 14.1564 17.3053 7.8585 -8.95499
473 1 15.736 15.7357 6.27892 -8.93257
474 1 17.2993 17.2989 7.86155 -8.94882
475 1 18.8723 15.7258 6.28853 -8.95129
476 1 20.442 17.2974 7.86207 -8.94954
477 1 -0.000318624 18.8696 6.28952 -8.9495
478 1 1.57185 20.442 7.86203 -8.94946
479 1 3.14295 18.8708 6.28887 -8.94931
480 1 4.71584 20.4434 7.86167 -8.94905
481 1 6.28603 18.8764 6.28581 -8.9515
482 1 7.86159 20.4455 7.86139 -8.95371
483 1 9.43594 18.8722 6.28827 -8.95
484 1 11.0073 20.4422 7.86182 -8.94764
485 1 12.579 18.871 6.28925 -8.95125
486 1 14.1524 20.4435 7.86175 -8.9515
487 1 15.7262 18.8728 6.28793 -8.95028
530 1 14.1543 17.3028 11.0066 -8.95217
531 1 17.2989 17.2985 11.0075 -8.94783
399 1 20.443 11.0067 4.71628 -8.94961
398 1 17.3023 11.006 4.71309 -8.94745
394 1 4.71451 11.0056 4.71431 -8.94535
393 1 1.57151 11.0066 4.71626 -8.94931
50 1 -0.000106722 22.014 3.14471 -8.94966
688 3 10.2654 11.1105 9.48026 2.21759
101 1 3.14421 22.0142 6.28942 -8.94939
526 1 1.57075 17.2977 11.0074 -8.94925
527 1 4.71217 17.3013 11.0084 -8.94631
532 1 20.442 17.2973 11.0073 -8.94948
383 1 6.28953 18.8695 -0.000301318 -8.94969
377 1 18.8695 15.7245 -0.000445317 -8.94948
686 1 20.4416 20.4416 20.4415 -8.94948
685 1 18.8694 18.8693 18.8693 -8.94955
684 1 17.2968 20.4417 20.4417 -8.94965
683 1 15.7248 18.8696 18.8699 -8.94972
682 1 14.1519 20.4418 20.4417 -8.9495
681 1 12.5796 18.8698 18.87 -8.94936
680 1 11.007 20.4418 20.4417 -8.94956
519 1 1.57034 14.1518 11.0071 -8.95158
520 1 4.70724 14.1551 11.0088 -8.96047
521 1 7.81482 14.2121 11.0611 -8.79019
522 1 10.9974 14.3038 11.0577 -8.25387
523 1 14.1605 14.1717 11.0154 -8.90334
524 1 17.299 14.1523 11.0062 -8.95195
525 1 20.442 14.1519 11.0071 -8.9498
305 1 15.7244 22.014 18.8694 -8.94955
299 1 6.28952 22.014 18.8694 -8.94955
528 1 7.85627 17.3127 11.0095 -8.95985
529 1 11.006 17.3027 11.0087 -8.98516
391 1 18.8695 18.8695 22.0135 -8.94926
389 1 15.7244 18.8695 22.0137 -8.94981
258 1 18.8693 22.014 15.7244 -8.94972
533 1 1.57185 20.442 11.0071 -8.94947
254 1 12.5797 22.0144 15.7252 -8.94933
535 1 7.86131 20.4453 11.007 -8.95223
252 1 9.43435 22.0145 15.7252 -8.94937
248 1 3.14426 22.0142 15.7247 -8.94957
207 1 15.7248 22.0143 12.5794 -8.94962
539 1 20.4416 20.4418 11.007 -8.94957
679 1 9.43439 18.8698 18.8701 -8.94941
678 1 7.86201 20.4418 20.4417 -8.94952
677 1 6.28915 18.8697 18.87 -8.94964
676 1 4.71706 20.4417 20.4416 -8.9496
675 1 3.14437 18.8694 18.8695 -8.94965
674 1 1.57224 20.4416 20.4415 -8.94951
673 1 22.0139 18.8691 18.8692 -8.94969
547 1 22.0138 12.5793 12.5797 -8.94963
548 1 1.57153 14.1516 14.1524 -8.9495
549 1 3.14306 12.5788 12.5801 -8.94922
550 1 4.71449 14.1514 14.154 -8.95
551 1 6.2858 12.5778 12.5809 -8.94777
552 1 7.85645 14.1561 14.1654 -8.95965
553 1 9.42311 12.597 12.5731 -8.88115
554 1 11.0064 14.157 14.1582 -8.9613
555 1 12.5955 12.6031 12.5789 -8.8641
556 1 14.1581 14.1568 14.1593 -8.94468
557 1 15.728 12.5809 12.579 -8.95171
558 1 17.299 14.1523 14.1528 -8.95006
559 1 18.8706 12.5796 12.5797 -8.94978
560 1 20.442 14.1519 14.1522 -8.94974
561 1 22.0133 15.7245 12.5797 -8.95067
562 1 1.57073 17.2974 14.1527 -8.95043
563 1 3.13982 15.7259 12.5813 -8.95323
564 1 4.71045 17.3022 14.1576 -8.94332
565 1 6.26933 15.7426 12.5973 -8.92575
566 1 7.85414 17.3072 14.1622 -8.9377
567 1 9.41439 15.7563 12.6089 -8.89239
568 1 11.0077 17.3048 14.1595 -8.94201
569 1 12.599 15.7521 12.6044 -8.90636
570 1 14.1598 17.3058 14.1602 -8.93967
571 1 15.7316 15.7296 12.5836 -8.95103
572 1 17.2997 17.2986 14.1537 -8.94989
573 1 18.8708 15.7247 12.5797 -8.95149
574 1 20.4419 17.297 14.1522 -8.95039
575 1 -0.000294891 18.8696 12.5796 -8.94943
576 1 1.57192 20.4419 14.1521 -8.94952
577 1 3.14309 18.8705 12.5801 -8.94898
578 1 4.71587 20.4432 14.1529 -8.94993
579 1 6.2865 18.8749 12.5818 -8.95134
580 1 7.86103 20.4445 14.1535 -8.95056
581 1 9.43387 18.8775 12.5826 -8.95535
582 1 11.0073 20.4444 14.1537 -8.9493
583 1 12.5808 18.8758 12.5816 -8.95612
584 1 14.1531 20.4439 14.1531 -8.95101
585 1 15.7259 18.8714 12.5799 -8.94983
586 1 17.2974 20.4422 14.1521 -8.94978
587 1 18.8698 18.8698 12.5796 -8.94922
588 1 20.4416 20.4417 14.1519 -8.94952
589 1 1.57206 11.0069 17.2971 -8.94955
590 1 4.7162 11.007 17.2978 -8.94908
672 1 20.4416 17.2967 20.4414 -8.94958
671 1 18.8694 15.7244 18.8693 -8.94944
670 1 17.2971 17.297 20.4413 -8.94976
594 1 17.298 11.0073 17.2979 -8.94906
595 1 20.4419 11.007 17.2971 -8.94954
596 1 -3.11997e-05 12.5794 15.7247 -8.94959
597 1 1.57208 14.1518 17.2971 -8.94942
598 1 3.14366 12.5793 15.7253 -8.94908
599 1 4.71641 14.1517 17.2978 -8.94901
600 1 6.28772 12.579 15.7268 -8.94616
601 1 7.86179 14.1513 17.2995 -8.95318
602 1 9.43587 12.5782 15.7235 -8.94682
603 1 11.0069 14.1518 17.2989 -8.95052
604 1 12.5797 12.5793 15.7247 -8.94895
605 1 14.1525 14.1519 17.2987 -8.95136
606 1 15.7272 12.5807 15.727 -8.94535
607 1 17.2977 14.1522 17.2976 -8.94882
608 1 18.8703 12.5797 15.7251 -8.94931
609 1 20.4418 14.1519 17.297 -8.94945
610 1 22.0138 15.7243 15.7246 -8.94965
611 1 1.57207 17.2967 17.297 -8.94981
612 1 3.14363 15.7243 15.7252 -8.95002
613 1 4.71593 17.2975 17.2985 -8.94995
614 1 6.28646 15.7265 15.7299 -8.95147
615 1 7.86099 17.2982 17.2999 -8.95025
616 1 9.4335 15.7276 15.7323 -8.95411
617 1 11.0072 17.2984 17.2997 -8.94919
618 1 12.5809 15.7269 15.7309 -8.95473
619 1 14.153 17.298 17.2993 -8.95052
620 1 15.7269 15.7261 15.7273 -8.94864
621 1 17.2977 17.2973 17.2977 -8.94943
622 1 18.87 15.7245 15.7248 -8.94972
623 1 20.4417 17.2968 17.2969 -8.94966
624 1 22.0136 18.8694 15.7246 -8.94981
625 1 1.57194 20.4419 17.2971 -8.94914
626 1 3.14288 18.8706 15.7259 -8.94789
627 1 4.71642 20.4423 17.2976 -8.94883
628 1 6.28692 18.8723 15.7276 -8.94659
629 1 7.86174 20.4423 17.2976 -8.94933
630 1 9.43394 18.8718 15.7271 -8.94824
631 1 11.007 20.4423 17.2977 -8.9495
632 1 12.5805 18.8716 15.7268 -8.94795
633 1 14.1523 20.4422 17.2976 -8.94928
634 1 15.727 18.8719 15.727 -8.94679
635 1 17.2975 20.4422 17.2975 -8.94879
636 1 18.8701 18.8698 15.7249 -8.94957
637 1 20.4417 20.4417 17.2969 -8.94953
669 1 15.7248 15.7245 18.8697 -8.95016
639 1 4.71676 11.0069 20.4415 -8.94959
668 1 14.152 17.2971 20.4418 -8.94988
667 1 12.5795 15.7246 18.8706 -8.9507
666 1 11.007 17.2972 20.4419 -8.9498
643 1 17.2973 11.007 20.4414 -8.9495
665 1 9.43438 15.7247 18.8709 -8.95096
645 1 22.0139 12.5794 18.8692 -8.94959
646 1 1.57225 14.1518 20.4415 -8.94957
647 1 3.14438 12.5794 18.8694 -8.94955
648 1 4.71681 14.1518 20.4414 -8.9495
649 1 6.28894 12.5793 18.8699 -8.94941
650 1 7.86188 14.1517 20.4414 -8.95068
651 1 9.43443 12.5792 18.8695 -8.94824
652 1 11.0068 14.152 20.4415 -8.94972
653 1 12.5795 12.5794 18.8696 -8.94897
654 1 14.1521 14.152 20.4411 -8.95052
655 1 15.7252 12.5797 18.87 -8.94931
656 1 17.2972 14.152 20.4413 -8.94941
657 1 18.8696 12.5795 18.8694 -8.94954
658 1 20.4417 14.1519 20.4415 -8.94958
659 1 22.0139 15.7243 18.8692 -8.94953
660 1 1.57229 17.2967 20.4414 -8.94963
661 1 3.14449 15.7242 18.8694 -8.94952
662 1 4.71683 17.297 20.4414 -8.95012
663 1 6.28917 15.7244 18.8701 -8.95077
664 1 7.86187 17.2971 20.4418 -8.94991
381 1 3.14437 18.8695 22.0133 -8.94948
201 1 6.28888 22.0147 12.5798 -8.95046
355 1 6.2891 12.5792 22.013 -8.94965
357 1 9.43451 12.5793 22.0129 -8.94927
359 1 12.5793 12.5795 22.0119 -8.95102
365 1 22.0139 15.7243 22.0137 -8.94956
367 1 3.14447 15.7243 22.0135 -8.94959
369 1 6.28912 15.7247 22.0124 -8.95103
371 1 9.43446 15.7249 22.013 -8.94977
373 1 12.5793 15.7248 22.0131 -8.9496
375 1 15.725 15.725 22.0124 -8.95033
246 1 -9.58113e-05 22.014 15.7243 -8.94962
379 1 22.0139 18.8692 22.0137 -8.94964
363 1 18.8696 12.5794 22.0134 -8.94952
