ITEM: TIMESTEP
56
ITEM: NUMBER OF ATOMS
688
ITEM: BOX BOUNDS pp pp pp
0.0000000000000000e+00 2.2013900999999997e+01
0.0000000000000000e+00 2.2013900999999997e+01
0.0000000000000000e+00 2.2013900999999997e+01
ITEM: ATOMS id type x y z c_pot
7 1 9.43453 1.91043e-05 -2.2453e-05 -8.94964
2 1 1.57235 1.57239 1.57235 -8.94946
448 1 20.4429 11.0069 7.86212 -8.95108
4 1 4.71725 1.57238 1.57236 -8.94972
447 1 17.3047 11.0058 7.86097 -8.95854
6 1 7.86209 1.57237 1.57234 -8.94959
175 1 18.8707 9.43381 9.43486 -8.9484
8 1 11.007 1.57236 1.57233 -8.94963
174 1 15.7272 9.43243 9.43535 -8.94224
10 1 14.1518 1.57237 1.57235 -8.94959
446 1 14.19 10.9773 7.82279 -8.88923
12 1 17.2967 1.57234 1.57235 -8.94959
445 1 11.0862 11.0113 7.65243 -8.09242
14 1 20.4415 1.57241 1.5724 -8.94961
444 1 7.86089 10.9832 7.8459 -8.86195
16 1 1.57235 4.7172 1.57232 -8.9496
443 1 4.71576 11.0071 7.86179 -8.94918
18 1 4.71695 4.71694 1.57192 -8.94957
442 1 1.57182 11.007 7.86198 -8.94936
20 1 7.86203 4.71695 1.57204 -8.94935
149 1 3.14464 9.64365e-05 9.43453 -8.94959
22 1 11.0069 4.7169 1.57202 -8.94959
154 1 18.8692 6.02784e-05 9.43453 -8.94963
24 1 14.1519 4.71694 1.57209 -8.94974
188 1 17.2973 4.71651 11.0069 -8.94908
26 1 17.297 4.71683 1.57203 -8.94887
183 1 1.57198 4.71697 11.007 -8.94948
28 1 20.4416 4.71715 1.5723 -8.94944
397 1 14.1598 11.0053 4.70431 -8.95165
30 1 1.57234 7.86207 1.57231 -8.94957
396 1 11.0105 11.007 4.71726 -8.99651
32 1 4.71695 7.862 1.57191 -8.94967
395 1 7.86233 11.0056 4.71358 -8.95239
34 1 7.86182 7.86178 1.57111 -8.9511
35 1 9.4344 6.28936 -0.000299047 -8.94952
36 1 11.0066 7.8613 1.57077 -8.94969
37 1 12.5794 6.28939 -0.000278572 -8.94954
38 1 14.1525 7.86113 1.57032 -8.95087
181 1 17.2968 1.57233 11.007 -8.94959
40 1 17.2972 7.86171 1.57164 -8.94959
346 1 7.8618 11.0068 1.57124 -8.94976
42 1 20.4416 7.86206 1.5723 -8.94962
164 1 6.2834 6.28317 9.43401 -8.94272
44 1 3.14472 9.43449 -0.000122851 -8.94955
350 1 20.4416 11.0069 1.57228 -8.94962
348 1 14.1528 11.0068 1.56932 -8.95068
347 1 11.0067 11.0067 1.57061 -8.94718
48 1 15.7246 9.43435 -0.000655715 -8.94975
163 1 3.14285 6.28865 9.43444 -8.94918
344 1 1.5723 11.0069 1.57227 -8.94963
51 1 1.57235 1.57238 4.71724 -8.94965
52 1 3.14466 0.000123211 3.14466 -8.9495
53 1 4.71693 1.57213 4.71692 -8.94981
54 1 6.28969 6.41672e-05 3.14472 -8.94967
55 1 7.86212 1.57218 4.71701 -8.94958
173 1 12.573 9.44555 9.43051 -8.90193
57 1 11.007 1.57213 4.71695 -8.94964
172 1 9.37818 9.27337 9.44096 -8.23669
59 1 14.1519 1.57206 4.71706 -8.95001
60 1 15.7243 2.4123e-05 3.14474 -8.94977
61 1 17.2967 1.5724 4.7172 -8.94977
62 1 18.8691 8.41333e-05 3.14478 -8.94959
63 1 20.4415 1.57241 4.71726 -8.94962
64 1 22.0138 3.14478 3.14479 -8.94964
65 1 1.57198 4.717 4.71702 -8.9497
66 1 3.14446 3.14449 3.14446 -8.94891
67 1 4.71538 4.7153 4.71535 -8.9466
68 1 6.28961 3.14454 3.14455 -8.94979
69 1 7.86193 4.71587 4.71622 -8.94973
70 1 9.43449 3.14443 3.14448 -8.94948
71 1 11.0071 4.71556 4.71601 -8.94851
72 1 12.5794 3.14442 3.14451 -8.94937
73 1 14.1529 4.71478 4.71599 -8.95009
74 1 15.7245 3.14428 3.1445 -8.94955
75 1 17.2971 4.71657 4.71698 -8.95013
76 1 18.8692 3.14472 3.14477 -8.9497
77 1 20.4415 4.71716 4.71723 -8.94977
78 1 22.014 6.28957 3.1447 -8.94967
79 1 1.57201 7.86197 4.71698 -8.9499
80 1 3.14436 6.28939 3.14437 -8.94943
81 1 4.7151 7.86092 4.71538 -8.94842
82 1 6.28849 6.28845 3.14267 -8.94996
83 1 7.85866 7.85817 4.71071 -8.95215
84 1 9.43421 6.28846 3.14333 -8.94819
85 1 11.0067 7.85848 4.71151 -8.94795
86 1 12.5795 6.2884 3.14328 -8.94924
87 1 14.1604 7.85273 4.7079 -8.93313
88 1 15.7263 6.28741 3.14265 -8.94594
89 1 17.3007 7.85908 4.71434 -8.94648
90 1 18.8699 6.28903 3.1442 -8.94875
91 1 20.4422 7.86173 4.71689 -8.95007
92 1 9.71191e-06 9.43447 3.14465 -8.94951
93 1 3.14431 9.43437 3.14433 -8.94911
94 1 6.2888 9.4343 3.14305 -8.9501
95 1 9.43469 9.43401 3.14242 -8.95086
96 1 12.5806 9.43299 3.13791 -8.95718
97 1 15.7265 9.43309 3.14134 -8.9494
98 1 18.8698 9.43433 3.14425 -8.94935
99 1 22.0139 1.74803e-05 6.28968 -8.94964
100 1 1.57233 1.57238 7.8621 -8.94964
166 1 12.578 6.29006 9.43423 -8.94447
102 1 4.71689 1.57213 7.86199 -8.94941
103 1 6.28934 0.000513465 6.28931 -8.95063
104 1 7.8619 1.57162 7.86185 -8.95117
105 1 9.43469 0.000241138 6.28937 -8.94979
106 1 11.0071 1.57195 7.8619 -8.94939
107 1 12.5794 0.000132064 6.28947 -8.94988
108 1 14.152 1.57229 7.86203 -8.94988
109 1 15.7244 0.000362244 6.28953 -8.95001
110 1 17.2968 1.57234 7.86205 -8.94955
165 1 9.43221 6.28363 9.43448 -8.98636
112 1 20.4415 1.5724 7.8621 -8.94964
113 1 -5.43719e-05 3.14477 6.28966 -8.94959
114 1 1.57199 4.71697 7.86202 -8.94945
115 1 3.14449 3.14452 6.28954 -8.9495
116 1 4.71571 4.7157 7.86154 -8.9483
117 1 6.28882 3.143 6.28879 -8.95074
118 1 7.86028 4.71111 7.86074 -8.95597
119 1 9.4348 3.14346 6.28911 -8.94991
120 1 11.0074 4.71527 7.8616 -8.94851
121 1 12.5797 3.14339 6.28932 -8.95124
122 1 14.1523 4.71575 7.86241 -8.95082
123 1 15.7245 3.14435 6.28965 -8.95004
124 1 17.2972 4.71656 7.86196 -8.94885
125 1 18.8692 3.14471 6.28965 -8.94949
126 1 20.4416 4.7171 7.86206 -8.94957
127 1 22.0137 6.28952 6.2896 -8.94985
128 1 1.57123 7.86189 7.862 -8.95066
129 1 3.14296 6.28881 6.28888 -8.95048
130 1 4.71116 7.86007 7.86074 -8.95501
131 1 6.28208 6.28159 6.28219 -8.93825
132 1 7.83546 7.83396 7.84018 -8.90083
133 1 9.43507 6.28451 6.28744 -8.95172
134 1 11.0171 7.85961 7.84896 -8.91982
135 1 12.5823 6.28218 6.28604 -8.95468
136 1 14.1558 7.85617 7.86256 -8.95985
137 1 15.7259 6.2871 6.28905 -8.95222
138 1 17.2985 7.86085 7.86254 -8.9493
139 1 18.8695 6.2893 6.2897 -8.94979
140 1 20.4418 7.86182 7.86215 -8.94965
141 1 22.014 9.43442 6.2895 -8.95034
142 1 3.14309 9.43456 6.28909 -8.95098
143 1 6.28246 9.43064 6.28378 -8.94369
144 1 9.42641 9.41677 6.28189 -8.90717
145 1 12.6121 9.40396 6.25651 -8.86337
146 1 15.7396 9.42412 6.27897 -8.94027
147 1 18.8722 9.43357 6.2888 -8.95229
171 1 6.28161 9.42996 9.4349 -8.96333
170 1 3.14246 9.4346 9.43464 -8.95081
169 1 22.0137 9.43444 9.4346 -8.94994
151 1 9.43462 0.000587263 9.43435 -8.9499
152 1 12.5796 0.000466693 9.43434 -8.94939
168 1 18.8698 6.28905 9.43446 -8.94944
167 1 15.7265 6.28691 9.43391 -8.94528
155 1 22.0138 3.14477 9.43453 -8.94962
156 1 3.14446 3.1445 9.43452 -8.94961
157 1 6.28857 3.14288 9.4344 -8.94921
158 1 9.43458 3.14265 9.43427 -8.94957
159 1 12.5797 3.14414 9.43427 -8.94821
160 1 15.7248 3.1441 9.43437 -8.94956
161 1 18.8692 3.14468 9.43451 -8.94963
162 1 -0.000247942 6.28945 9.43451 -8.94976
177 1 4.71689 1.57212 11.007 -8.94945
184 1 4.71565 4.71566 11.0074 -8.94854
41 1 18.8692 6.28961 -0.00012691 -8.94963
19 1 6.28967 3.14478 -5.10151e-05 -8.94959
25 1 15.7242 3.14478 -4.38263e-05 -8.9497
176 1 1.57233 1.57238 11.007 -8.94964
199 1 3.14466 7.89362e-05 12.5794 -8.94952
178 1 7.86182 1.57151 11.007 -8.95109
179 1 11.0071 1.57183 11.0069 -8.9499
180 1 14.1521 1.57218 11.0068 -8.94979
644 1 20.4415 11.0069 20.4415 -8.94964
182 1 20.4415 1.5724 11.007 -8.94964
642 1 14.1521 11.007 20.4415 -8.95016
209 1 18.8691 5.46618e-05 12.5794 -8.94959
185 1 7.85984 4.71035 11.0076 -8.95528
186 1 11.0074 4.71306 11.0069 -8.94955
187 1 14.1528 4.7151 11.0058 -8.94978
641 1 11.0068 11.007 20.4414 -8.9492
189 1 20.4416 4.71708 11.007 -8.9496
190 1 1.57113 7.86184 11.0071 -8.9508
191 1 4.71036 7.85973 11.008 -8.95434
192 1 7.83267 7.83162 11.0278 -8.88854
193 1 11.0179 7.85096 11.0285 -8.96224
194 1 14.1577 7.85505 11.0028 -8.95022
195 1 17.2992 7.86054 11.0065 -8.94829
196 1 20.4419 7.86175 11.007 -8.94975
197 1 22.0139 2.00865e-05 12.5794 -8.94964
198 1 1.57235 1.57238 14.1518 -8.94965
343 1 18.8692 9.43452 18.8692 -8.94957
200 1 4.71692 1.57208 14.1521 -8.94972
342 1 15.7246 9.43456 18.8697 -8.94949
202 1 7.86191 1.57208 14.1522 -8.95017
203 1 9.4345 0.000908875 12.5797 -8.95109
204 1 11.007 1.57199 14.1523 -8.94984
205 1 12.5796 0.000797584 12.5796 -8.95117
206 1 14.1522 1.57191 14.1521 -8.95063
341 1 12.5794 9.43452 18.871 -8.95265
208 1 17.2968 1.57236 14.1518 -8.94967
340 1 9.43444 9.43457 18.8704 -8.95123
210 1 20.4415 1.57241 14.1518 -8.94962
211 1 -5.43349e-05 3.14477 12.5794 -8.9496
212 1 1.57196 4.71698 14.152 -8.94964
213 1 3.14447 3.14451 12.5795 -8.94953
214 1 4.71525 4.71529 14.1536 -8.94669
215 1 6.28872 3.14288 12.5801 -8.95045
216 1 7.86085 4.71376 14.1537 -8.95095
217 1 9.43461 3.14229 12.5799 -8.95159
218 1 11.007 4.71359 14.154 -8.9478
219 1 12.5798 3.14211 12.5797 -8.95307
220 1 14.1542 4.7124 14.1541 -8.95125
221 1 15.7246 3.14424 12.5792 -8.94964
222 1 17.2973 4.71662 14.1519 -8.95017
223 1 18.8692 3.1447 12.5794 -8.94953
224 1 20.4415 4.71714 14.1518 -8.94966
225 1 22.0137 6.28949 12.5795 -8.94984
226 1 1.57189 7.86204 14.152 -8.95028
227 1 3.14277 6.28875 12.5801 -8.95022
228 1 4.71372 7.86096 14.1538 -8.95111
229 1 6.28128 6.28124 12.5865 -8.9371
230 1 7.84801 7.84818 14.1684 -8.92933
231 1 9.43288 6.27695 12.5835 -8.95857
232 1 11.0068 7.85229 14.163 -8.9447
233 1 12.585 6.27404 12.585 -8.96045
234 1 14.1721 7.84211 14.1719 -8.90513
235 1 15.7268 6.28716 12.5791 -8.95081
236 1 17.3016 7.85985 14.1541 -8.95119
237 1 18.8698 6.28923 12.5794 -8.94943
238 1 20.4422 7.86187 14.1521 -8.95051
239 1 22.0139 9.43452 12.5795 -8.95041
240 1 3.14277 9.43495 12.5797 -8.95236
241 1 6.27839 9.43225 12.5837 -8.95817
242 1 9.38532 9.38054 12.6209 -8.79677
243 1 12.6497 9.36728 12.6438 -8.72806
244 1 15.74 9.42912 12.585 -8.96181
245 1 18.8718 9.43428 12.5797 -8.95343
47 1 12.5794 9.43435 22.0128 -8.95121
247 1 1.57235 1.57238 17.2967 -8.94953
46 1 9.43438 9.4344 22.0134 -8.94983
249 1 4.71714 1.57236 17.2968 -8.94963
250 1 6.28941 0.000342041 15.7246 -8.94972
251 1 7.86206 1.57234 17.2968 -8.94952
339 1 6.28941 9.43461 18.8695 -8.94949
253 1 11.0069 1.57233 17.2968 -8.94959
338 1 3.14471 9.43451 18.8692 -8.94953
255 1 14.1518 1.57234 17.2968 -8.94952
256 1 15.7246 0.000291011 15.7245 -8.94981
257 1 17.2968 1.5723 17.2968 -8.9495
45 1 6.28947 9.43448 22.0136 -8.94974
259 1 20.4415 1.57241 17.2967 -8.94968
260 1 22.0138 3.14478 15.7243 -8.94961
261 1 1.5723 4.71717 17.2968 -8.94966
262 1 3.14445 3.14448 15.7246 -8.94901
263 1 4.71653 4.71657 17.2975 -8.94846
264 1 6.28929 3.14411 15.7248 -8.94989
265 1 7.8619 4.71668 17.2974 -8.94926
266 1 9.4344 3.14406 15.7249 -8.94927
267 1 11.0069 4.71655 17.2974 -8.94938
268 1 12.5795 3.144 15.7248 -8.9492
269 1 14.152 4.7166 17.2974 -8.94961
270 1 15.7249 3.14376 15.7249 -8.94964
271 1 17.2976 4.71637 17.2975 -8.94753
272 1 18.8692 3.14472 15.7243 -8.94981
273 1 20.4417 4.71713 17.2968 -8.94954
274 1 22.014 6.28958 15.7244 -8.94985
275 1 1.57234 7.86211 17.2967 -8.94958
276 1 3.14403 6.28932 15.7248 -8.94986
277 1 4.7169 7.86218 17.2971 -8.94995
278 1 6.28609 6.28627 15.7286 -8.94469
279 1 7.86106 7.86121 17.2999 -8.95275
280 1 9.43373 6.28701 15.7273 -8.94692
281 1 11.0066 7.86064 17.2999 -8.94919
282 1 12.58 6.28672 15.7276 -8.94796
283 1 14.1535 7.86051 17.3009 -8.9526
284 1 15.7291 6.28493 15.729 -8.9396
285 1 17.2972 7.86201 17.2973 -8.94996
286 1 18.8702 6.28904 15.7249 -8.94958
287 1 20.4416 7.86211 17.2967 -8.94962
288 1 3.60275e-06 9.43452 15.7244 -8.94956
289 1 3.14433 9.43461 15.7246 -8.9492
290 1 6.28847 9.43519 15.7259 -8.95002
291 1 9.43321 9.43276 15.732 -8.95947
292 1 12.5823 9.43173 15.7367 -8.96444
293 1 15.7266 9.4347 15.7268 -8.94973
294 1 18.8697 9.43463 15.7246 -8.94947
295 1 22.0139 1.8406e-05 18.8691 -8.94955
296 1 1.5724 1.5724 20.4415 -8.94955
297 1 3.14478 3.7016e-05 18.8691 -8.94953
298 1 4.71726 1.57241 20.4415 -8.94966
301 1 9.43452 4.59167e-05 18.8691 -8.94964
300 1 7.8621 1.5724 20.4415 -8.94964
337 1 22.0139 9.43452 18.8691 -8.94963
302 1 11.007 1.5724 20.4415 -8.94965
336 1 20.4415 7.8621 20.4415 -8.94963
304 1 14.1518 1.5724 20.4415 -8.94964
39 1 15.7245 6.28934 22.0135 -8.94985
306 1 17.2966 1.57241 20.4415 -8.94969
307 1 18.8691 2.9324e-05 18.8691 -8.94946
308 1 20.4415 1.57241 20.4415 -8.94953
309 1 22.0139 3.14481 18.8691 -8.9496
310 1 1.5724 4.71726 20.4415 -8.94967
311 1 3.14471 3.14473 18.8692 -8.94938
312 1 4.71714 4.71714 20.4416 -8.94971
313 1 6.28964 3.14474 18.8692 -8.94963
314 1 7.86205 4.71711 20.4416 -8.94952
315 1 9.4345 3.1447 18.8692 -8.9496
316 1 11.0069 4.71709 20.4416 -8.9496
317 1 12.5794 3.1447 18.8692 -8.9496
318 1 14.1518 4.71712 20.4416 -8.94957
319 1 15.7243 3.14473 18.8692 -8.94973
320 1 17.2968 4.71709 20.4416 -8.94956
321 1 18.8692 3.14471 18.8692 -8.94923
322 1 20.4415 4.71725 20.4415 -8.94967
323 1 22.0139 6.28969 18.8691 -8.94965
324 1 1.57239 7.8621 20.4415 -8.94961
325 1 3.14476 6.28968 18.8691 -8.94976
326 1 4.71716 7.8621 20.4415 -8.94963
327 1 6.28929 6.28932 18.8699 -8.95018
328 1 7.86196 7.86197 20.4417 -8.9504
329 1 9.43436 6.2892 18.8698 -8.94934
330 1 11.0068 7.86181 20.4418 -8.95006
331 1 12.5794 6.28922 18.8699 -8.9494
332 1 14.152 7.86186 20.4418 -8.95067
333 1 15.7248 6.28913 18.87 -8.94996
334 1 17.2968 7.86205 20.4415 -8.94962
335 1 18.8692 6.28965 18.8692 -8.94978
512 1 1.57195 11.007 11.0071 -8.94866
513 1 4.71724 11.008 11.0061 -8.94683
514 1 7.86786 10.9903 11.0164 -8.87995
515 1 11.0629 10.8171 11.3059 -7.29268
516 1 14.1611 10.9899 11.0246 -8.92674
517 1 17.2998 11.0071 11.0066 -8.95077
518 1 20.4422 11.007 11.007 -8.94961
540 1 1.57192 11.007 14.1522 -8.94945
541 1 4.71547 11.0074 14.1532 -8.94668
542 1 7.86124 11.0089 14.1547 -8.94887
543 1 11.0101 10.9984 14.1499 -9.01783
544 1 14.1578 11.0103 14.1592 -8.94837
545 1 17.299 11.0078 14.153 -8.94861
546 1 20.442 11.007 14.1521 -8.94965
591 1 7.86148 11.0074 17.2979 -8.94912
592 1 11.0069 11.0074 17.2979 -8.94669
593 1 14.153 11.0076 17.299 -8.94938
638 1 1.57239 11.0069 20.4415 -8.94964
640 1 7.8619 11.007 20.4415 -8.94971
3 1 3.14483 1.59208e-05 22.0139 -8.94968
5 1 6.28968 1.48867e-05 22.0139 -8.94962
11 1 15.7242 1.39285e-05 22.0139 -8.94962
13 1 18.8691 1.27595e-05 22.0139 -8.94961
15 1 22.0139 3.14483 22.0139 -8.9496
17 1 3.14477 3.14477 22.0138 -8.94958
303 1 12.5794 4.6178e-05 18.8691 -8.94964
33 1 6.28951 6.28951 22.0136 -8.95009
27 1 18.8691 3.14477 22.0139 -8.94948
29 1 22.0139 6.28968 22.0139 -8.94964
31 1 3.14477 6.28965 22.0138 -8.94964
1 1 22.0139 1.17965e-05 22.0139 -8.94953
21 1 9.43452 3.14475 22.0138 -8.94963
9 1 12.5794 1.92439e-05 22.0139 -8.94964
23 1 12.5794 3.14476 22.0138 -8.94962
43 1 22.0139 9.43452 22.0139 -8.94964
49 1 18.8692 9.4345 22.0138 -8.94959
687 3 10.9604 12.4912 10.1841 2.22804
345 1 4.71676 11.0068 1.57172 -8.94937
511 1 18.8695 18.8694 9.43454 -8.94959
510 1 15.7255 18.8708 9.43441 -8.94851
509 1 12.5799 18.8711 9.4341 -8.94851
349 1 17.2972 11.0069 1.57166 -8.94941
508 1 9.43459 18.8733 9.43408 -8.94955
351 1 22.0139 12.5794 -3.47334e-05 -8.94964
352 1 1.57231 14.1518 1.57229 -8.94957
353 1 3.14471 12.5794 -0.000137736 -8.94959
354 1 4.71686 14.1517 1.57175 -8.94947
538 1 17.297 20.4419 11.007 -8.94948
356 1 7.86177 14.152 1.56968 -8.95343
153 1 15.7245 22.0142 9.43445 -8.94964
358 1 11.0066 14.1525 1.57082 -8.9484
150 1 6.28918 22.0143 9.43446 -8.94984
360 1 14.1527 14.1528 1.56928 -8.95229
361 1 15.7247 12.5795 -0.000696022 -8.94958
362 1 17.2972 14.152 1.57167 -8.94935
111 1 18.8691 22.014 6.28967 -8.94959
364 1 20.4416 14.1518 1.57229 -8.94959
537 1 14.1524 20.4429 11.0067 -8.94991
366 1 1.57232 17.2967 1.5723 -8.94978
148 1 -1.8649e-05 22.0139 9.43453 -8.94965
368 1 4.71661 17.2973 1.57127 -8.94958
58 1 12.5794 22.014 3.14467 -8.94955
370 1 7.86213 17.2971 1.5717 -8.94943
56 1 9.43453 22.014 3.14466 -8.94959
372 1 11.007 17.2973 1.57166 -8.94944
536 1 11.0072 20.4437 11.0069 -8.94957
374 1 14.1518 17.297 1.57196 -8.94979
534 1 4.71663 20.4423 11.0071 -8.94927
376 1 17.2973 17.2973 1.57158 -8.94875
493 1 6.29162 12.5879 9.43135 -9.01783
378 1 20.4416 17.2967 1.5723 -8.94963
492 1 3.14354 12.5789 9.43462 -8.94669
380 1 1.57229 20.4416 1.57228 -8.94923
491 1 22.0139 12.5793 9.43465 -8.9492
382 1 4.71722 20.4416 1.5723 -8.94981
490 1 20.4415 20.4416 7.8621 -8.94962
384 1 7.86209 20.4416 1.57228 -8.94953
385 1 9.43452 18.8692 -0.000100322 -8.9496
386 1 11.007 20.4416 1.57226 -8.94963
387 1 12.5794 18.8692 -8.80608e-05 -8.94957
388 1 14.1518 20.4416 1.5723 -8.94949
489 1 18.8694 18.8694 6.28961 -8.94974
390 1 17.2967 20.4416 1.57232 -8.9497
488 1 17.297 20.4419 7.86205 -8.94937
392 1 20.4415 20.4416 1.57235 -8.94948
507 1 6.2875 18.8727 9.43445 -8.9478
506 1 3.14403 18.8698 9.43459 -8.94938
505 1 22.0138 18.8692 9.43454 -8.9496
504 1 18.8707 15.725 9.43486 -8.94969
503 1 15.73 15.7278 9.43478 -8.94795
502 1 12.5925 15.7267 9.42441 -8.91982
501 1 9.413 15.7354 9.42354 -8.96224
400 1 -2.65324e-06 12.5794 3.14464 -8.94957
401 1 1.5718 14.1518 4.71685 -8.94949
402 1 3.14421 12.5793 3.14421 -8.94924
403 1 4.71464 14.1516 4.71492 -8.94973
404 1 6.28845 12.5785 3.14252 -8.94861
405 1 7.85645 14.1572 4.70145 -8.96181
406 1 9.43491 12.5793 3.14173 -8.95077
407 1 11.0061 14.1539 4.71428 -8.94224
408 1 12.5805 12.5806 3.13679 -8.95854
409 1 14.1625 14.1622 4.70187 -8.94027
410 1 15.7266 12.5799 3.14141 -8.94787
411 1 17.3001 14.1532 4.71494 -8.9494
412 1 18.8698 12.5794 3.14423 -8.94941
413 1 20.4421 14.152 4.71687 -8.94975
414 1 22.0139 15.7243 3.14468 -8.94962
415 1 1.57146 17.2972 4.71671 -8.94996
416 1 3.14421 15.7243 3.14426 -8.94996
417 1 4.71248 17.3014 4.71242 -8.9396
418 1 6.28734 15.7265 3.1399 -8.95119
419 1 7.86235 17.2992 4.71472 -8.95081
420 1 9.435 15.7258 3.14227 -8.94829
421 1 11.0076 17.2994 4.71494 -8.94528
422 1 12.5789 15.7255 3.14295 -8.9493
423 1 14.1524 17.2992 4.71558 -8.95222
424 1 15.7271 15.7272 3.14079 -8.94648
425 1 17.2988 17.2989 4.71522 -8.94594
426 1 18.8698 15.7246 3.14426 -8.94959
427 1 20.4418 17.297 4.71697 -8.94985
428 1 22.0138 18.8692 3.14468 -8.94956
429 1 1.57229 20.4416 4.71722 -8.94973
430 1 3.14395 18.8699 3.14393 -8.94753
431 1 4.71659 20.4426 4.71658 -8.94964
432 1 6.28958 18.8697 3.14419 -8.95017
433 1 7.86226 20.4421 4.71688 -8.94964
434 1 9.4346 18.8698 3.14415 -8.94908
435 1 11.0071 20.4422 4.71672 -8.94956
436 1 12.5795 18.8698 3.14423 -8.94885
437 1 14.1518 20.442 4.71701 -8.95004
438 1 15.7245 18.8697 3.14435 -8.95013
439 1 17.297 20.442 4.71695 -8.94955
440 1 18.8694 18.8695 3.14445 -8.94887
441 1 20.4415 20.4415 4.71724 -8.9497
500 1 6.27848 15.734 9.43473 -8.9447
499 1 3.14157 15.7257 9.43485 -8.94919
498 1 -0.000294336 15.7245 9.43463 -8.95006
497 1 18.8709 12.5796 9.43478 -8.94718
496 1 15.7242 12.5794 9.431 -8.99651
495 1 12.789 12.5751 9.35529 -8.09242
494 1 9.13554 12.7693 9.37862 -7.29268
449 1 22.0139 12.5793 6.28937 -8.95016
450 1 1.57047 14.1518 7.86208 -8.95265
451 1 3.14245 12.5787 6.28849 -8.94938
452 1 4.7048 14.1546 7.85919 -8.96444
453 1 6.2823 12.576 6.28367 -8.94837
454 1 7.79771 14.219 7.79178 -8.72806
455 1 9.41683 12.5965 6.28036 -8.92674
456 1 11.011 14.1408 7.86853 -8.90193
457 1 12.6187 12.609 6.2515 -8.88923
458 1 14.185 14.1824 7.82937 -8.86337
459 1 15.7372 12.5811 6.28168 -8.95165
460 1 17.3036 14.1533 7.86093 -8.95718
461 1 18.8722 12.5795 6.28864 -8.95068
462 1 20.4426 14.152 7.86208 -8.95121
463 1 22.0136 15.7245 6.28947 -8.95067
464 1 1.57161 17.2971 7.86208 -8.9494
465 1 3.1406 15.7258 6.28803 -8.9526
466 1 4.71393 17.2996 7.86149 -8.94796
467 1 6.26963 15.7442 6.26935 -8.90513
468 1 7.85647 17.3123 7.85653 -8.96045
469 1 9.43872 15.7313 6.28377 -8.95022
470 1 11.0073 17.2963 7.86344 -8.94447
471 1 12.5789 15.7301 6.28573 -8.95985
472 1 14.1554 17.3041 7.85914 -8.95468
473 1 15.7336 15.7336 6.28104 -8.93313
474 1 17.2982 17.2979 7.86195 -8.94924
475 1 18.8712 15.7252 6.28894 -8.95087
476 1 20.4418 17.2969 7.86211 -8.94954
477 1 -9.02292e-05 18.8692 6.28966 -8.94957
478 1 1.57227 20.4416 7.86209 -8.9496
479 1 3.1441 18.8697 6.28947 -8.94961
480 1 4.71664 20.4423 7.86199 -8.9492
481 1 6.28742 18.8739 6.28731 -8.95125
482 1 7.86175 20.4442 7.86163 -8.95307
483 1 9.43565 18.8712 6.2887 -8.94978
484 1 11.0072 20.4422 7.86178 -8.94821
485 1 12.5791 18.8706 6.28922 -8.95082
486 1 14.1522 20.4429 7.86182 -8.95124
487 1 15.7255 18.8715 6.28854 -8.95009
530 1 14.154 17.3018 11.0064 -8.95172
531 1 17.2982 17.2979 11.0073 -8.94819
399 1 20.4422 11.0069 4.71682 -8.94958
398 1 17.3001 11.0065 4.71485 -8.94787
394 1 4.7152 11.0062 4.71516 -8.94588
393 1 1.57183 11.0068 4.71675 -8.94935
50 1 -1.44046e-05 22.0139 3.14483 -8.94969
688 3 10.2574 11.0951 9.48106 2.22804
101 1 3.14467 22.014 6.28964 -8.94952
526 1 1.57164 17.2971 11.0071 -8.94934
527 1 4.71421 17.2993 11.0077 -8.94692
532 1 20.4418 17.297 11.0071 -8.94952
383 1 6.28965 18.8692 -6.76449e-05 -8.94966
377 1 18.8692 15.7243 -0.000113954 -8.94962
686 1 20.4415 20.4415 20.4415 -8.9496
685 1 18.8692 18.8691 18.8691 -8.9496
684 1 17.2967 20.4415 20.4416 -8.94964
683 1 15.7245 18.8693 18.8695 -8.9497
682 1 14.1518 20.4415 20.4415 -8.94959
681 1 12.5795 18.8694 18.8695 -8.94945
680 1 11.007 20.4416 20.4415 -8.94962
519 1 1.5711 14.1518 11.007 -8.95123
520 1 4.70943 14.1536 11.0083 -8.95947
521 1 7.8206 14.2058 11.0562 -8.79677
522 1 11.0005 14.313 11.0633 -8.23669
523 1 14.1596 14.1695 11.0151 -8.90717
524 1 17.2991 14.1523 11.0068 -8.95086
525 1 20.442 14.1519 11.0071 -8.94983
305 1 15.7242 22.0139 18.8691 -8.94965
299 1 6.28966 22.0139 18.8691 -8.94965
528 1 7.858 17.3094 11.0086 -8.95857
529 1 11.007 17.3027 11.0093 -8.98636
391 1 18.8692 18.8692 22.0138 -8.94944
389 1 15.7242 18.8692 22.0139 -8.94977
258 1 18.8691 22.0139 15.7242 -8.94972
533 1 1.57226 20.4416 11.007 -8.9496
254 1 12.5795 22.0142 15.7246 -8.94941
535 1 7.86154 20.444 11.0069 -8.95159
252 1 9.43445 22.0142 15.7246 -8.94945
248 1 3.14468 22.014 15.7243 -8.94963
207 1 15.7245 22.0141 12.5794 -8.94958
539 1 20.4415 20.4416 11.007 -8.94963
679 1 9.43447 18.8694 18.8695 -8.94948
678 1 7.86209 20.4416 20.4415 -8.9496
677 1 6.28945 18.8693 18.8695 -8.94964
676 1 4.71721 20.4415 20.4415 -8.94961
675 1 3.14472 18.8691 18.8692 -8.94966
674 1 1.57239 20.4415 20.4415 -8.9496
673 1 22.0139 18.8691 18.8691 -8.94967
547 1 22.0138 12.5794 12.5796 -8.94971
548 1 1.57199 14.1517 14.1521 -8.94949
549 1 3.14354 12.579 12.58 -8.94912
550 1 4.71559 14.1511 14.153 -8.95002
551 1 6.28682 12.5774 12.5802 -8.94887
552 1 7.85773 14.1541 14.1631 -8.95817
553 1 9.42508 12.596 12.5736 -8.87995
554 1 11.0066 14.1564 14.1599 -8.96333
555 1 12.5956 12.6031 12.5806 -8.86195
556 1 14.1577 14.1557 14.159 -8.94369
557 1 15.7279 12.5808 12.5791 -8.95239
558 1 17.2984 14.152 14.1527 -8.9501
559 1 18.8702 12.5795 12.5797 -8.94976
560 1 20.4418 14.1518 14.152 -8.94974
561 1 22.0137 15.7243 12.5795 -8.9504
562 1 1.57163 17.297 14.1522 -8.95018
563 1 3.14162 15.7251 12.5804 -8.95275
564 1 4.71285 17.3001 14.1554 -8.94469
565 1 6.27313 15.7381 12.5935 -8.92933
566 1 7.85503 17.3051 14.1602 -8.9371
567 1 9.41366 15.7547 12.6088 -8.88854
568 1 11.0075 17.3031 14.1581 -8.94272
569 1 12.6013 15.7524 12.606 -8.90083
570 1 14.1593 17.3047 14.1594 -8.93825
571 1 15.7308 15.7282 12.5828 -8.95215
572 1 17.2988 17.2979 14.153 -8.94996
573 1 18.8704 15.7245 12.5797 -8.9511
574 1 20.4418 17.2968 14.152 -8.95009
575 1 -7.76099e-05 18.8692 12.5794 -8.94952
576 1 1.5723 20.4416 14.1518 -8.94963
577 1 3.14412 18.8696 12.5796 -8.94926
578 1 4.71669 20.4422 14.1522 -8.94989
579 1 6.28778 18.8726 12.5806 -8.95095
580 1 7.86137 20.4434 14.1528 -8.95045
581 1 9.43386 18.876 12.5816 -8.95528
582 1 11.0071 20.4434 14.1529 -8.94921
583 1 12.5807 18.8752 12.5812 -8.95597
584 1 14.1527 20.4433 14.1527 -8.95074
585 1 15.7253 18.8705 12.5795 -8.94973
586 1 17.2969 20.4418 14.1519 -8.94979
587 1 18.8694 18.8694 12.5794 -8.94935
588 1 20.4415 20.4415 14.1518 -8.94959
589 1 1.57229 11.0069 17.2968 -8.94962
590 1 4.71671 11.0069 17.2973 -8.94926
672 1 20.4415 17.2966 20.4415 -8.94964
671 1 18.8692 15.7243 18.8691 -8.94957
670 1 17.2968 17.2968 20.4414 -8.94967
594 1 17.2973 11.0071 17.2973 -8.94924
595 1 20.4416 11.007 17.2968 -8.94959
596 1 -6.98354e-06 12.5794 15.7244 -8.94963
597 1 1.57231 14.1518 17.2968 -8.94953
598 1 3.14421 12.5794 15.7248 -8.94926
599 1 4.71686 14.1517 17.2972 -8.9492
600 1 6.28824 12.5789 15.726 -8.94668
601 1 7.86179 14.1514 17.2987 -8.95236
602 1 9.43537 12.5783 15.7242 -8.94683
603 1 11.0068 14.1517 17.299 -8.95081
604 1 12.5797 12.5793 15.7257 -8.94918
605 1 14.1524 14.1518 17.2984 -8.95098
606 1 15.7263 12.5801 15.7263 -8.94588
607 1 17.2972 14.152 17.2972 -8.94911
608 1 18.8698 12.5795 15.7247 -8.94937
609 1 20.4416 14.1518 17.2968 -8.94955
610 1 22.0139 15.7242 15.7243 -8.94963
611 1 1.57234 17.2966 17.2967 -8.94976
612 1 3.14437 15.7241 15.7246 -8.94995
613 1 4.7167 17.297 17.2975 -8.94986
614 1 6.28772 15.7254 15.7278 -8.95111
615 1 7.86134 17.2976 17.2987 -8.95022
616 1 9.43346 15.7266 15.7311 -8.95434
617 1 11.007 17.2977 17.2986 -8.94918
618 1 12.5807 15.7262 15.7303 -8.95501
619 1 14.1526 17.2975 17.2985 -8.95048
620 1 15.7261 15.7254 15.7264 -8.94842
621 1 17.2971 17.2969 17.2971 -8.94943
622 1 18.8696 15.7243 15.7245 -8.94967
623 1 20.4416 17.2967 17.2967 -8.94964
624 1 22.0138 18.8692 15.7243 -8.94971
625 1 1.57228 20.4416 17.2968 -8.94938
626 1 3.14394 18.8698 15.7249 -8.94846
627 1 4.71691 20.4418 17.297 -8.94901
628 1 6.28789 18.871 15.7262 -8.94669
629 1 7.86198 20.4418 17.297 -8.94953
630 1 9.43412 18.8707 15.7258 -8.94854
631 1 11.007 20.4418 17.297 -8.94961
632 1 12.5799 18.8706 15.7258 -8.9483
633 1 14.1519 20.4418 17.297 -8.9495
634 1 15.7261 18.871 15.7261 -8.9466
635 1 17.297 20.4418 17.297 -8.94891
636 1 18.8696 18.8694 15.7245 -8.94957
637 1 20.4415 20.4416 17.2967 -8.94958
669 1 15.7245 15.7243 18.8695 -8.9499
639 1 4.71709 11.0069 20.4415 -8.94963
668 1 14.1519 17.2968 20.4417 -8.94985
667 1 12.5795 15.7244 18.8702 -8.95066
666 1 11.007 17.2969 20.4417 -8.94976
643 1 17.2968 11.0069 20.4415 -8.94957
665 1 9.4344 15.7245 18.8704 -8.9508
645 1 22.0139 12.5794 18.8691 -8.94964
646 1 1.57239 14.1518 20.4415 -8.94963
647 1 3.1447 12.5794 18.8692 -8.94962
648 1 4.71712 14.1518 20.4415 -8.94956
649 1 6.28928 12.5793 18.8696 -8.94945
650 1 7.86196 14.1518 20.4414 -8.95041
651 1 9.43435 12.5793 18.8695 -8.94866
652 1 11.0069 14.1519 20.4416 -8.94994
653 1 12.5795 12.5793 18.8697 -8.94936
654 1 14.152 14.1519 20.4413 -8.95034
655 1 15.7247 12.5795 18.8697 -8.94935
656 1 17.2968 14.1519 20.4415 -8.94951
657 1 18.8692 12.5794 18.8692 -8.94963
658 1 20.4415 14.1518 20.4415 -8.94964
659 1 22.0139 15.7242 18.8691 -8.94961
660 1 1.5724 17.2966 20.4415 -8.94965
661 1 3.14475 15.7242 18.8691 -8.94958
662 1 4.71713 17.2967 20.4414 -8.94985
663 1 6.28944 15.7243 18.8696 -8.95028
664 1 7.862 17.2968 20.4417 -8.94984
381 1 3.1447 18.8692 22.0137 -8.94954
201 1 6.28931 22.0142 12.5796 -8.95017
355 1 6.28939 12.5793 22.0134 -8.94965
357 1 9.43446 12.5794 22.0131 -8.94961
359 1 12.5794 12.5795 22.0125 -8.95108
365 1 22.0139 15.7242 22.0139 -8.94963
367 1 3.14474 15.7242 22.0138 -8.94962
369 1 6.28941 15.7245 22.0131 -8.95051
371 1 9.43449 15.7246 22.0134 -8.94975
373 1 12.5793 15.7245 22.0136 -8.94965
375 1 15.7246 15.7246 22.0132 -8.95007
246 1 -1.26929e-05 22.0139 15.7242 -8.94966
379 1 22.0139 18.8691 22.0139 -8.94967
363 1 18.8692 12.5794 22.0138 -8.94962
