ITEM: TIMESTEP
45
ITEM: NUMBER OF ATOMS
688
ITEM: BOX BOUNDS pp pp pp
0.0000000000000000e+00 2.2013900999999997e+01
0.0000000000000000e+00 2.2013900999999997e+01
0.0000000000000000e+00 2.2013900999999997e+01
ITEM: ATOMS id type x y z c_pot
7 1 9.43453 7.36046e-09 -4.29412e-09 -8.94963
2 1 1.57242 1.57242 1.57242 -8.94963
448 1 20.4415 11.0069 7.8621 -8.94979
4 1 4.71726 1.57242 1.57242 -8.94963
447 1 17.2974 11.0067 7.86189 -8.95171
6 1 7.86211 1.57242 1.57242 -8.94963
175 1 18.8691 9.43452 9.43454 -8.94966
8 1 11.007 1.57242 1.57242 -8.94963
174 1 15.7247 9.43434 9.43466 -8.95049
10 1 14.1518 1.57242 1.57242 -8.94963
446 1 14.1644 10.9984 7.85272 -8.91011
12 1 17.2966 1.57242 1.57242 -8.94963
445 1 11.0734 11.0032 7.71176 -8.03471
14 1 20.4415 1.57242 1.57242 -8.94963
444 1 7.85398 10.9999 7.85273 -8.87608
16 1 1.57242 4.71726 1.57242 -8.94963
443 1 4.71646 11.0068 7.8618 -8.95031
18 1 4.71726 4.71726 1.57242 -8.94963
442 1 1.57238 11.0069 7.8621 -8.94976
20 1 7.86211 4.71727 1.57242 -8.94964
149 1 3.14484 -2.36423e-08 9.43453 -8.94963
22 1 11.007 4.71726 1.57242 -8.94964
154 1 18.8691 4.86195e-09 9.43453 -8.94963
24 1 14.1518 4.71727 1.57242 -8.94966
188 1 17.2966 4.71727 11.007 -8.94966
26 1 17.2966 4.71726 1.57242 -8.94962
183 1 1.57242 4.71726 11.007 -8.94963
28 1 20.4415 4.71726 1.57242 -8.94963
397 1 14.1521 11.0068 4.71654 -8.95247
30 1 1.57242 7.86211 1.57242 -8.94963
396 1 11.0072 11.0068 4.71074 -8.97601
32 1 4.71726 7.86211 1.57242 -8.94964
395 1 7.86208 11.0068 4.71672 -8.95217
34 1 7.86209 7.86209 1.57239 -8.94968
35 1 9.43453 6.28969 4.98719e-07 -8.94964
36 1 11.0069 7.86211 1.57241 -8.94963
37 1 12.5794 6.28969 1.36747e-06 -8.94964
38 1 14.1518 7.86209 1.57238 -8.94963
181 1 17.2966 1.57242 11.007 -8.94963
40 1 17.2966 7.86211 1.57242 -8.94966
346 1 7.86211 11.0069 1.5724 -8.94975
42 1 20.4415 7.86211 1.57242 -8.94963
164 1 6.28948 6.28947 9.43454 -8.95078
44 1 3.14484 9.43453 1.06395e-07 -8.94963
350 1 20.4415 11.007 1.57242 -8.94963
348 1 14.1518 11.0069 1.57239 -8.9497
347 1 11.0069 11.0069 1.57203 -8.95125
48 1 15.7242 9.43453 -1.81888e-07 -8.94964
163 1 3.14483 6.28968 9.43453 -8.94959
344 1 1.57242 11.007 1.57242 -8.94963
51 1 1.57242 1.57242 4.71726 -8.94963
52 1 3.14484 7.12109e-08 3.14484 -8.94963
53 1 4.71726 1.57242 4.71726 -8.94963
54 1 6.28969 -3.66824e-08 3.14484 -8.94963
55 1 7.86211 1.57242 4.71727 -8.94964
173 1 12.5838 9.43094 9.43254 -8.90227
57 1 11.007 1.57242 4.71726 -8.94964
172 1 9.37035 9.29337 9.43325 -8.10834
59 1 14.1518 1.57242 4.71726 -8.94963
60 1 15.7242 -5.21144e-08 3.14484 -8.94963
61 1 17.2966 1.57242 4.71726 -8.94963
62 1 18.8691 6.51038e-08 3.14484 -8.94963
63 1 20.4415 1.57242 4.71726 -8.94963
64 1 22.0139 3.14484 3.14484 -8.94963
65 1 1.57242 4.71726 4.71726 -8.94963
66 1 3.14484 3.14484 3.14484 -8.94962
67 1 4.71724 4.71723 4.71724 -8.94937
68 1 6.28969 3.14484 3.14484 -8.94966
69 1 7.86212 4.71728 4.71728 -8.9499
70 1 9.43453 3.14484 3.14484 -8.94964
71 1 11.0069 4.71726 4.71725 -8.94961
72 1 12.5794 3.14484 3.14484 -8.94964
73 1 14.1518 4.71723 4.71725 -8.94965
74 1 15.7242 3.14484 3.14484 -8.94963
75 1 17.2966 4.71726 4.71726 -8.94965
76 1 18.8691 3.14484 3.14484 -8.94963
77 1 20.4415 4.71726 4.71726 -8.94963
78 1 22.0139 6.28969 3.14484 -8.94963
79 1 1.57242 7.86211 4.71726 -8.94963
80 1 3.14484 6.28969 3.14484 -8.94964
81 1 4.71724 7.86207 4.71724 -8.94957
82 1 6.28967 6.28967 3.14481 -8.94966
83 1 7.86189 7.8619 4.7167 -8.95081
84 1 9.43454 6.28968 3.14484 -8.94964
85 1 11.0068 7.86208 4.71708 -8.95136
86 1 12.5794 6.2897 3.14486 -8.94992
87 1 14.1524 7.86151 4.71667 -8.94548
88 1 15.7242 6.28966 3.14481 -8.94938
89 1 17.2967 7.86206 4.71722 -8.94941
90 1 18.8691 6.28968 3.14484 -8.94962
91 1 20.4415 7.86211 4.71726 -8.94963
92 1 4.4985e-08 9.43453 3.14484 -8.94963
93 1 3.14485 9.43453 3.14485 -8.94966
94 1 6.28966 9.43452 3.1448 -8.94977
95 1 9.43433 9.43432 3.14452 -8.94897
96 1 12.5796 9.43429 3.14423 -8.95075
97 1 15.7242 9.43452 3.14482 -8.94988
98 1 18.8691 9.43453 3.14484 -8.94966
99 1 22.0139 6.76398e-09 6.28969 -8.94963
100 1 1.57242 1.57242 7.86211 -8.94963
166 1 12.5795 6.28931 9.43433 -8.95013
102 1 4.71727 1.57242 7.86211 -8.94963
103 1 6.28968 1.85831e-06 6.28968 -8.94964
104 1 7.8621 1.5724 7.8621 -8.94974
105 1 9.43453 2.72017e-07 6.28969 -8.94964
106 1 11.007 1.5724 7.8621 -8.94965
107 1 12.5794 -1.25493e-07 6.28969 -8.94965
108 1 14.1518 1.57242 7.86211 -8.94965
109 1 15.7242 1.76738e-06 6.28969 -8.94963
110 1 17.2966 1.57242 7.86211 -8.94963
165 1 9.4341 6.28288 9.43433 -8.97474
112 1 20.4415 1.57242 7.86211 -8.94963
113 1 8.84232e-08 3.14484 6.28969 -8.94963
114 1 1.57242 4.71726 7.86211 -8.94963
115 1 3.14484 3.14484 6.28969 -8.94966
116 1 4.71727 4.71728 7.86211 -8.94984
117 1 6.28966 3.1448 6.28966 -8.94963
118 1 7.86187 4.71665 7.86187 -8.95067
119 1 9.43454 3.14484 6.28968 -8.94965
120 1 11.0071 4.71696 7.86191 -8.94893
121 1 12.5794 3.14481 6.28967 -8.94969
122 1 14.1518 4.71722 7.8621 -8.94978
123 1 15.7242 3.14484 6.28969 -8.94964
124 1 17.2966 4.71727 7.86211 -8.94965
125 1 18.8691 3.14484 6.28969 -8.94963
126 1 20.4415 4.71726 7.86211 -8.94963
127 1 22.0139 6.28969 6.28969 -8.94964
128 1 1.5724 7.8621 7.8621 -8.94974
129 1 3.14481 6.28967 6.28967 -8.9497
130 1 4.71677 7.86198 7.86198 -8.95136
131 1 6.2891 6.28907 6.28908 -8.94546
132 1 7.85324 7.85339 7.85343 -8.89774
133 1 9.43466 6.28949 6.28966 -8.95139
134 1 11.0098 7.86024 7.85892 -8.93406
135 1 12.5796 6.28911 6.28948 -8.95087
136 1 14.1523 7.86133 7.8619 -8.95075
137 1 15.7242 6.28965 6.28966 -8.94983
138 1 17.2967 7.86211 7.86212 -8.94991
139 1 18.8691 6.28969 6.28969 -8.94966
140 1 20.4415 7.86211 7.86211 -8.94964
141 1 22.0139 9.43453 6.28968 -8.94965
142 1 3.14478 9.43451 6.28966 -8.94967
143 1 6.2888 9.434 6.28894 -8.94597
144 1 9.43156 9.43097 6.28747 -8.93031
145 1 12.5884 9.42552 6.28088 -8.89055
146 1 15.7253 9.43379 6.28897 -8.94691
147 1 18.8691 9.43451 6.28966 -8.94974
171 1 6.28522 9.43406 9.43463 -8.96438
170 1 3.14461 9.43453 9.43453 -8.95063
169 1 22.0139 9.43453 9.43453 -8.94969
151 1 9.43452 1.73079e-05 9.43452 -8.94984
152 1 12.5794 1.74667e-05 9.43452 -8.94965
168 1 18.8691 6.28969 9.43453 -8.94963
167 1 15.7242 6.28967 9.43453 -8.94943
155 1 22.0139 3.14484 9.43453 -8.94963
156 1 3.14484 3.14484 9.43453 -8.94965
157 1 6.28968 3.14483 9.43453 -8.9496
158 1 9.43453 3.14445 9.43452 -8.95133
159 1 12.5794 3.14482 9.43452 -8.94968
160 1 15.7242 3.14484 9.43453 -8.94962
161 1 18.8691 3.14484 9.43453 -8.94963
162 1 -4.37144e-07 6.28969 9.43453 -8.94963
177 1 4.71727 1.57242 11.007 -8.94963
184 1 4.71727 4.71728 11.0069 -8.94983
41 1 18.8691 6.28969 9.7757e-09 -8.94963
19 1 6.28969 3.14484 1.03548e-07 -8.94963
25 1 15.7242 3.14484 7.22419e-08 -8.94963
176 1 1.57242 1.57242 11.007 -8.94963
199 1 3.14484 9.34914e-08 12.5794 -8.94963
178 1 7.8621 1.5724 11.007 -8.94973
179 1 11.007 1.5724 11.007 -8.94984
180 1 14.1518 1.57242 11.0069 -8.94964
644 1 20.4415 11.007 20.4415 -8.94963
182 1 20.4415 1.57242 11.007 -8.94963
642 1 14.1518 11.007 20.4415 -8.94964
209 1 18.8691 5.28339e-08 12.5794 -8.94963
185 1 7.86188 4.71668 11.0072 -8.95061
186 1 11.0071 4.71659 11.0071 -8.95058
187 1 14.1518 4.71723 11.0069 -8.94978
641 1 11.0069 11.007 20.4415 -8.94982
189 1 20.4415 4.71726 11.007 -8.94963
190 1 1.5724 7.8621 11.007 -8.94973
191 1 4.71676 7.86197 11.0071 -8.95109
192 1 7.85357 7.85386 11.0153 -8.89746
193 1 11.0097 7.85369 11.0103 -8.95943
194 1 14.1524 7.86149 11.0068 -8.95026
195 1 17.2967 7.86208 11.0069 -8.94966
196 1 20.4415 7.86211 11.007 -8.94964
197 1 22.0139 2.03656e-09 12.5794 -8.94963
198 1 1.57242 1.57242 14.1518 -8.94963
343 1 18.8691 9.43453 18.8691 -8.94963
200 1 4.71726 1.57242 14.1518 -8.94963
342 1 15.7242 9.43453 18.8691 -8.94963
202 1 7.86211 1.57242 14.1518 -8.94964
203 1 9.43452 2.60276e-05 12.5794 -8.94973
204 1 11.007 1.57242 14.1518 -8.94964
205 1 12.5794 2.61416e-05 12.5794 -8.94974
206 1 14.1518 1.57242 14.1518 -8.94964
341 1 12.5794 9.43452 18.8691 -8.94987
208 1 17.2966 1.57242 14.1518 -8.94963
340 1 9.43452 9.43452 18.8691 -8.94976
210 1 20.4415 1.57242 14.1518 -8.94963
211 1 8.53021e-08 3.14484 12.5794 -8.94963
212 1 1.57242 4.71726 14.1518 -8.94963
213 1 3.14484 3.14484 12.5794 -8.94966
214 1 4.71724 4.71724 14.1518 -8.9494
215 1 6.28967 3.14481 12.5794 -8.94963
216 1 7.8621 4.71724 14.1518 -8.9499
217 1 9.43453 3.14481 12.5794 -8.94974
218 1 11.0069 4.71723 14.1518 -8.94966
219 1 12.5794 3.14478 12.5794 -8.9498
220 1 14.1518 4.71718 14.1518 -8.94968
221 1 15.7242 3.14484 12.5794 -8.94964
222 1 17.2966 4.71727 14.1518 -8.94968
223 1 18.8691 3.14484 12.5794 -8.94963
224 1 20.4415 4.71726 14.1518 -8.94963
225 1 22.0139 6.28969 12.5794 -8.94964
226 1 1.57242 7.86211 14.1518 -8.94963
227 1 3.14481 6.28967 12.5794 -8.94968
228 1 4.71722 7.86208 14.1518 -8.9498
229 1 6.28913 6.28913 12.5799 -8.94582
230 1 7.86129 7.86131 14.1529 -8.94625
231 1 9.43443 6.28892 12.5796 -8.95234
232 1 11.0068 7.86158 14.1524 -8.95196
233 1 12.5798 6.28846 12.5798 -8.95231
234 1 14.1531 7.86076 14.1531 -8.93898
235 1 15.7242 6.28969 12.5794 -8.9501
236 1 17.2967 7.86207 14.1518 -8.94972
237 1 18.8691 6.28969 12.5794 -8.94964
238 1 20.4415 7.86211 14.1518 -8.94964
239 1 22.0139 9.43453 12.5794 -8.94965
240 1 3.14478 9.43452 12.5794 -8.94973
241 1 6.28873 9.43431 12.5798 -8.95056
242 1 9.42235 9.42263 12.5896 -8.86579
243 1 12.5998 9.41483 12.5985 -8.79487
244 1 15.7254 9.4342 12.5797 -8.95292
245 1 18.8691 9.43451 12.5794 -8.94981
47 1 12.5794 9.43452 22.0139 -8.94974
247 1 1.57242 1.57242 17.2966 -8.94963
46 1 9.43452 9.43452 22.0139 -8.94966
249 1 4.71726 1.57242 17.2966 -8.94963
250 1 6.28968 1.90521e-06 15.7242 -8.94963
251 1 7.86211 1.57242 17.2966 -8.94963
339 1 6.28969 9.43453 18.8691 -8.94963
253 1 11.007 1.57242 17.2966 -8.94963
338 1 3.14484 9.43453 18.8691 -8.94963
255 1 14.1518 1.57242 17.2966 -8.94963
256 1 15.7242 1.90712e-06 15.7242 -8.94963
257 1 17.2966 1.57242 17.2966 -8.94963
45 1 6.28969 9.43453 22.0139 -8.94965
259 1 20.4415 1.57242 17.2966 -8.94963
260 1 22.0139 3.14484 15.7242 -8.94963
261 1 1.57242 4.71726 17.2966 -8.94963
262 1 3.14484 3.14484 15.7242 -8.94962
263 1 4.71726 4.71726 17.2966 -8.94962
264 1 6.28969 3.14484 15.7242 -8.94966
265 1 7.86211 4.71727 17.2966 -8.94965
266 1 9.43453 3.14484 15.7242 -8.94964
267 1 11.007 4.71727 17.2966 -8.94966
268 1 12.5794 3.14484 15.7242 -8.94964
269 1 14.1518 4.71727 17.2966 -8.94968
270 1 15.7242 3.14484 15.7242 -8.94962
271 1 17.2966 4.71726 17.2966 -8.9496
272 1 18.8691 3.14484 15.7242 -8.94964
273 1 20.4415 4.71726 17.2966 -8.94963
274 1 22.0139 6.28969 15.7242 -8.94963
275 1 1.57242 7.86211 17.2966 -8.94963
276 1 3.14484 6.28969 15.7242 -8.94965
277 1 4.71727 7.86211 17.2966 -8.94966
278 1 6.28964 6.28964 15.7243 -8.94937
279 1 7.86208 7.86208 17.2967 -8.94978
280 1 9.43452 6.28967 15.7242 -8.9497
281 1 11.0069 7.86209 17.2967 -8.94961
282 1 12.5794 6.2897 15.7242 -8.95006
283 1 14.1518 7.86208 17.2967 -8.94975
284 1 15.7243 6.28962 15.7243 -8.94902
285 1 17.2966 7.86211 17.2966 -8.94968
286 1 18.8691 6.28968 15.7242 -8.94963
287 1 20.4415 7.86211 17.2966 -8.94963
288 1 7.2377e-08 9.43453 15.7242 -8.94963
289 1 3.14484 9.43453 15.7242 -8.94965
290 1 6.28967 9.43453 15.7242 -8.94985
291 1 9.43429 9.4343 15.7249 -8.95128
292 1 12.5796 9.43427 15.7253 -8.95352
293 1 15.7242 9.43452 15.7242 -8.95001
294 1 18.8691 9.43453 15.7242 -8.94964
295 1 22.0139 3.20879e-09 18.8691 -8.94963
296 1 1.57242 1.57242 20.4415 -8.94963
297 1 3.14484 2.49005e-08 18.8691 -8.94963
298 1 4.71726 1.57242 20.4415 -8.94963
301 1 9.43453 4.21411e-08 18.8691 -8.94963
300 1 7.86211 1.57242 20.4415 -8.94963
337 1 22.0139 9.43453 18.8691 -8.94963
302 1 11.007 1.57242 20.4415 -8.94963
336 1 20.4415 7.86211 20.4415 -8.94963
304 1 14.1518 1.57242 20.4415 -8.94963
39 1 15.7242 6.28968 22.0139 -8.94963
306 1 17.2966 1.57242 20.4415 -8.94963
307 1 18.8691 2.48426e-08 18.8691 -8.94963
308 1 20.4415 1.57242 20.4415 -8.94963
309 1 22.0139 3.14484 18.8691 -8.94963
310 1 1.57242 4.71726 20.4415 -8.94963
311 1 3.14484 3.14484 18.8691 -8.94963
312 1 4.71726 4.71726 20.4415 -8.94963
313 1 6.28969 3.14484 18.8691 -8.94963
314 1 7.86211 4.71726 20.4415 -8.94963
315 1 9.43453 3.14484 18.8691 -8.94963
316 1 11.007 4.71726 20.4415 -8.94963
317 1 12.5794 3.14484 18.8691 -8.94963
318 1 14.1518 4.71726 20.4415 -8.94963
319 1 15.7242 3.14484 18.8691 -8.94964
320 1 17.2966 4.71726 20.4415 -8.94963
321 1 18.8691 3.14484 18.8691 -8.94963
322 1 20.4415 4.71726 20.4415 -8.94963
323 1 22.0139 6.28969 18.8691 -8.94963
324 1 1.57242 7.86211 20.4415 -8.94963
325 1 3.14484 6.28969 18.8691 -8.94963
326 1 4.71726 7.86211 20.4415 -8.94963
327 1 6.28968 6.28968 18.8691 -8.94963
328 1 7.86211 7.86211 20.4415 -8.94965
329 1 9.43453 6.28969 18.8691 -8.94963
330 1 11.007 7.86211 20.4415 -8.94964
331 1 12.5794 6.28969 18.8691 -8.94963
332 1 14.1518 7.86211 20.4415 -8.94965
333 1 15.7242 6.28968 18.8691 -8.94963
334 1 17.2966 7.86211 20.4415 -8.94963
335 1 18.8691 6.28969 18.8691 -8.94964
512 1 1.57238 11.0069 11.007 -8.9497
513 1 4.71668 11.0069 11.0072 -8.94914
514 1 7.85836 11.0041 11.0122 -8.89387
515 1 11.0706 10.8698 11.2153 -7.25276
516 1 14.1576 11.0038 11.0105 -8.9469
517 1 17.2971 11.0068 11.0071 -8.9499
518 1 20.4415 11.0069 11.007 -8.94971
540 1 1.57242 11.007 14.1518 -8.94963
541 1 4.71725 11.007 14.1518 -8.9496
542 1 7.86186 11.0069 14.1524 -8.95068
543 1 11.0073 11.0061 14.1567 -8.9873
544 1 14.1524 11.007 14.1526 -8.95041
545 1 17.2967 11.007 14.1518 -8.94973
546 1 20.4415 11.007 14.1518 -8.94964
591 1 7.86209 11.0069 17.2967 -8.94963
592 1 11.0069 11.007 17.297 -8.95075
593 1 14.1518 11.0069 17.2967 -8.94958
638 1 1.57242 11.007 20.4415 -8.94963
640 1 7.86211 11.007 20.4415 -8.94964
3 1 3.14484 -3.59647e-10 22.0139 -8.94963
5 1 6.28969 -3.95034e-09 22.0139 -8.94963
11 1 15.7242 -3.2926e-09 22.0139 -8.94963
13 1 18.8691 6.77629e-12 22.0139 -8.94963
15 1 22.0139 3.14484 22.0139 -8.94963
17 1 3.14484 3.14484 22.0139 -8.94963
303 1 12.5794 4.18982e-08 18.8691 -8.94963
33 1 6.28969 6.28969 22.0139 -8.94963
27 1 18.8691 3.14484 22.0139 -8.94963
29 1 22.0139 6.28969 22.0139 -8.94963
31 1 3.14484 6.28969 22.0139 -8.94963
1 1 22.0139 1.08596e-09 22.0139 -8.94963
21 1 9.43453 3.14484 22.0139 -8.94963
9 1 12.5794 5.11605e-09 22.0139 -8.94963
23 1 12.5794 3.14484 22.0139 -8.94963
43 1 22.0139 9.43453 22.0139 -8.94963
49 1 18.8691 9.43453 22.0139 -8.94963
687 3 10.9867 12.5522 10.2137 2.67716
345 1 4.71726 11.007 1.57242 -8.94962
511 1 18.8691 18.8691 9.43453 -8.94964
510 1 15.7242 18.8691 9.43454 -8.94961
509 1 12.5796 18.8694 9.43433 -8.94893
349 1 17.2966 11.007 1.57242 -8.94965
508 1 9.43434 18.8697 9.43433 -8.95058
351 1 22.0139 12.5794 -7.71927e-09 -8.94963
352 1 1.57242 14.1518 1.57242 -8.94963
353 1 3.14484 12.5794 9.73475e-08 -8.94963
354 1 4.71726 14.1518 1.57242 -8.94964
538 1 17.2966 20.4415 11.007 -8.94964
356 1 7.86209 14.1518 1.57237 -8.94981
153 1 15.7242 22.0139 9.43453 -8.94964
358 1 11.0069 14.1518 1.57239 -8.94966
150 1 6.28969 22.0139 9.43453 -8.94964
360 1 14.1518 14.1518 1.57236 -8.94974
361 1 15.7242 12.5794 4.46682e-07 -8.94963
362 1 17.2966 14.1518 1.57242 -8.94966
111 1 18.8691 22.0139 6.28969 -8.94963
364 1 20.4415 14.1518 1.57242 -8.94963
537 1 14.1518 20.4415 11.0069 -8.94965
366 1 1.57242 17.2966 1.57242 -8.94964
148 1 -2.826e-09 22.0139 9.43453 -8.94963
368 1 4.71726 17.2966 1.57242 -8.94963
58 1 12.5794 22.0139 3.14484 -8.94963
370 1 7.86211 17.2966 1.57242 -8.94964
56 1 9.43453 22.0139 3.14484 -8.94963
372 1 11.007 17.2966 1.57242 -8.94963
536 1 11.007 20.4419 11.0069 -8.95133
374 1 14.1518 17.2966 1.57242 -8.94966
534 1 4.71726 20.4415 11.007 -8.94964
376 1 17.2966 17.2966 1.57242 -8.94962
493 1 6.28481 12.5802 9.43422 -8.9873
378 1 20.4415 17.2966 1.57242 -8.94963
492 1 3.14445 12.5794 9.43454 -8.95075
380 1 1.57242 20.4415 1.57242 -8.94963
491 1 22.0139 12.5794 9.43453 -8.94982
382 1 4.71726 20.4415 1.57242 -8.94964
490 1 20.4415 20.4415 7.86211 -8.94963
384 1 7.86211 20.4415 1.57242 -8.94963
385 1 9.43453 18.8691 9.67475e-08 -8.94963
386 1 11.007 20.4415 1.57242 -8.94963
387 1 12.5794 18.8691 1.53999e-08 -8.94963
388 1 14.1518 20.4415 1.57242 -8.94963
489 1 18.8691 18.8691 6.28969 -8.94966
390 1 17.2966 20.4415 1.57242 -8.94963
488 1 17.2966 20.4415 7.86211 -8.94964
392 1 20.4415 20.4415 1.57242 -8.94963
507 1 6.28967 18.8691 9.43454 -8.94966
506 1 3.14484 18.8691 9.43453 -8.94966
505 1 22.0139 18.8691 9.43453 -8.94963
504 1 18.8691 15.7242 9.43454 -8.94963
503 1 15.7244 15.7242 9.43465 -8.95136
502 1 12.5826 15.7261 9.43166 -8.93406
501 1 9.43117 15.7326 9.43176 -8.95943
400 1 1.18694e-07 12.5794 3.14484 -8.94963
401 1 1.57242 14.1518 4.71726 -8.94963
402 1 3.14485 12.5794 3.14484 -8.94967
403 1 4.71727 14.1518 4.71727 -8.95001
404 1 6.28967 12.5794 3.1448 -8.94973
405 1 7.86177 14.1521 4.7161 -8.95292
406 1 9.43434 12.5796 3.14434 -8.9499
407 1 11.0068 14.152 4.71674 -8.95049
408 1 12.5796 12.5796 3.14404 -8.95171
409 1 14.1525 14.1525 4.71617 -8.94691
410 1 15.7242 12.5794 3.14484 -8.94979
411 1 17.2967 14.1518 4.71726 -8.94988
412 1 18.8691 12.5794 3.14484 -8.94965
413 1 20.4415 14.1518 4.71726 -8.94964
414 1 22.0139 15.7242 3.14484 -8.94963
415 1 1.57242 17.2966 4.71726 -8.94963
416 1 3.14485 15.7242 3.14485 -8.94968
417 1 4.7172 17.2967 4.7172 -8.94902
418 1 6.28965 15.7242 3.14477 -8.94972
419 1 7.86211 17.2966 4.71727 -8.9501
420 1 9.43453 15.7242 3.1448 -8.94966
421 1 11.007 17.2967 4.71725 -8.94943
422 1 12.5794 15.7242 3.14483 -8.94991
423 1 14.1518 17.2967 4.71725 -8.94983
424 1 15.7243 15.7243 3.14478 -8.94941
425 1 17.2967 17.2967 4.71724 -8.94938
426 1 18.8691 15.7242 3.14484 -8.94966
427 1 20.4415 17.2966 4.71726 -8.94963
428 1 22.0139 18.8691 3.14484 -8.94963
429 1 1.57242 20.4415 4.71726 -8.94964
430 1 3.14484 18.8691 3.14484 -8.9496
431 1 4.71726 20.4415 4.71726 -8.94962
432 1 6.28969 18.8691 3.14485 -8.94968
433 1 7.86211 20.4415 4.71727 -8.94964
434 1 9.43453 18.8691 3.14484 -8.94966
435 1 11.007 20.4415 4.71726 -8.94962
436 1 12.5794 18.8691 3.14484 -8.94965
437 1 14.1518 20.4415 4.71726 -8.94964
438 1 15.7242 18.8691 3.14484 -8.94965
439 1 17.2966 20.4415 4.71726 -8.94963
440 1 18.8691 18.8691 3.14484 -8.94962
441 1 20.4415 20.4415 4.71726 -8.94963
500 1 6.28904 15.7247 9.43471 -8.95196
499 1 3.1448 15.7242 9.43454 -8.94961
498 1 -1.20789e-06 15.7242 9.43453 -8.94964
497 1 18.8694 12.5794 9.43454 -8.95125
496 1 15.7307 12.5796 9.43428 -8.97601
495 1 12.7297 12.5831 9.3681 -8.03471
494 1 9.22618 12.7165 9.37092 -7.25276
449 1 22.0139 12.5794 6.28968 -8.94964
450 1 1.57238 14.1518 7.8621 -8.94987
451 1 3.14478 12.5794 6.28966 -8.94958
452 1 4.71619 14.1521 7.86184 -8.95352
453 1 6.28893 12.5793 6.28907 -8.95041
454 1 7.84293 14.1715 7.8417 -8.79487
455 1 9.43101 12.5825 6.2839 -8.9469
456 1 11.0089 14.1554 7.85768 -8.90227
457 1 12.5888 12.588 6.27706 -8.91011
458 1 14.1606 14.1608 7.85311 -8.89055
459 1 15.7249 12.5795 6.28935 -8.95247
460 1 17.2972 14.152 7.86188 -8.95075
461 1 18.8691 12.5794 6.28968 -8.9497
462 1 20.4415 14.1518 7.8621 -8.94974
463 1 22.0139 15.7242 6.28968 -8.94965
464 1 1.57242 17.2966 7.86211 -8.94963
465 1 3.14477 15.7242 6.28965 -8.94975
466 1 4.71727 17.2966 7.86211 -8.95006
467 1 6.28835 15.7256 6.28834 -8.93898
468 1 7.86169 17.2979 7.86168 -8.95231
469 1 9.43469 15.7248 6.2891 -8.95026
470 1 11.0071 17.297 7.86201 -8.95013
471 1 12.5796 15.725 6.28913 -8.95075
472 1 14.152 17.2972 7.86191 -8.95087
473 1 15.7248 15.7248 6.28909 -8.94548
474 1 17.2966 17.2966 7.86212 -8.94992
475 1 18.8691 15.7242 6.28967 -8.94963
476 1 20.4415 17.2966 7.86211 -8.94964
477 1 4.71163e-08 18.8691 6.28969 -8.94963
478 1 1.57242 20.4415 7.86211 -8.94963
479 1 3.14485 18.8691 6.28969 -8.94968
480 1 4.71727 20.4415 7.86211 -8.94964
481 1 6.28965 18.8691 6.28965 -8.94968
482 1 7.86209 20.4415 7.86209 -8.9498
483 1 9.43455 18.8691 6.28967 -8.94978
484 1 11.007 20.4415 7.8621 -8.94968
485 1 12.5794 18.8691 6.28966 -8.94978
486 1 14.1518 20.4415 7.86209 -8.94969
487 1 15.7242 18.8691 6.28967 -8.94965
530 1 14.1518 17.2968 11.0068 -8.95139
531 1 17.2966 17.2966 11.0069 -8.94964
399 1 20.4415 11.007 4.71726 -8.94963
398 1 17.2966 11.007 4.71726 -8.94979
394 1 4.71727 11.0069 4.71726 -8.94959
393 1 1.57242 11.007 4.71726 -8.94963
50 1 5.26428e-09 22.0139 3.14484 -8.94963
688 3 10.2278 11.0341 9.45476 2.67716
101 1 3.14484 22.0139 6.28969 -8.94963
526 1 1.57242 17.2966 11.007 -8.94963
527 1 4.71725 17.2966 11.007 -8.9497
532 1 20.4415 17.2966 11.007 -8.94964
383 1 6.28969 18.8691 1.8393e-07 -8.94963
377 1 18.8691 15.7242 1.62204e-07 -8.94963
686 1 20.4415 20.4415 20.4415 -8.94963
685 1 18.8691 18.8691 18.8691 -8.94963
684 1 17.2966 20.4415 20.4415 -8.94963
683 1 15.7242 18.8691 18.8691 -8.94963
682 1 14.1518 20.4415 20.4415 -8.94963
681 1 12.5794 18.8691 18.8691 -8.94963
680 1 11.007 20.4415 20.4415 -8.94963
519 1 1.57239 14.1518 11.007 -8.94976
520 1 4.71657 14.152 11.0072 -8.95128
521 1 7.85188 14.1637 11.0191 -8.86579
522 1 11.0082 14.293 11.0711 -8.10834
523 1 14.154 14.1553 11.0099 -8.93031
524 1 17.297 14.152 11.0071 -8.94897
525 1 20.4415 14.1518 11.007 -8.94966
305 1 15.7242 22.0139 18.8691 -8.94963
299 1 6.28969 22.0139 18.8691 -8.94963
528 1 7.86188 17.2974 11.0071 -8.95234
529 1 11.0071 17.3034 11.0074 -8.97474
391 1 18.8691 18.8691 22.0139 -8.94963
389 1 15.7242 18.8691 22.0139 -8.94963
258 1 18.8691 22.0139 15.7242 -8.94963
533 1 1.57242 20.4415 11.007 -8.94963
254 1 12.5794 22.0139 15.7242 -8.94963
535 1 7.8621 20.4415 11.007 -8.94974
252 1 9.43453 22.0139 15.7242 -8.94963
248 1 3.14484 22.0139 15.7242 -8.94963
207 1 15.7242 22.0139 12.5794 -8.94964
539 1 20.4415 20.4415 11.007 -8.94963
679 1 9.43453 18.8691 18.8691 -8.94963
678 1 7.86211 20.4415 20.4415 -8.94963
677 1 6.28969 18.8691 18.8691 -8.94963
676 1 4.71726 20.4415 20.4415 -8.94963
675 1 3.14484 18.8691 18.8691 -8.94963
674 1 1.57242 20.4415 20.4415 -8.94963
673 1 22.0139 18.8691 18.8691 -8.94963
547 1 22.0139 12.5794 12.5794 -8.94964
548 1 1.57242 14.1518 14.1518 -8.94963
549 1 3.1448 12.5794 12.5794 -8.94963
550 1 4.71724 14.1518 14.1518 -8.94985
551 1 6.28912 12.5794 12.5796 -8.95068
552 1 7.86165 14.152 14.1528 -8.95056
553 1 9.42933 12.5822 12.5831 -8.89387
554 1 11.0069 14.1523 14.1563 -8.96438
555 1 12.5888 12.5864 12.5875 -8.87608
556 1 14.1525 14.1523 14.1527 -8.94597
557 1 15.7248 12.5795 12.5794 -8.95217
558 1 17.2967 14.1518 14.1518 -8.94977
559 1 18.8691 12.5794 12.5794 -8.94975
560 1 20.4415 14.1518 14.1518 -8.94965
561 1 22.0139 15.7242 12.5794 -8.94965
562 1 1.57242 17.2966 14.1518 -8.94963
563 1 3.14478 15.7242 12.5794 -8.94978
564 1 4.7172 17.2967 14.1518 -8.94937
565 1 6.28854 15.725 12.5802 -8.94625
566 1 7.86154 17.2972 14.1523 -8.94582
567 1 9.42618 15.7325 12.5879 -8.89746
568 1 11.0069 17.2969 14.152 -8.95078
569 1 12.5881 15.7329 12.5882 -8.89774
570 1 14.1524 17.2972 14.1524 -8.94546
571 1 15.7248 15.7244 12.5796 -8.95081
572 1 17.2967 17.2967 14.1518 -8.94966
573 1 18.8691 15.7242 12.5794 -8.94968
574 1 20.4415 17.2966 14.1518 -8.94963
575 1 3.25582e-08 18.8691 12.5794 -8.94963
576 1 1.57242 20.4415 14.1518 -8.94963
577 1 3.14484 18.8691 12.5794 -8.94965
578 1 4.71726 20.4415 14.1518 -8.94966
579 1 6.28968 18.8691 12.5794 -8.9499
580 1 7.86209 20.4415 14.1518 -8.94963
581 1 9.43431 18.8696 12.5796 -8.95061
582 1 11.0069 20.4415 14.1518 -8.9496
583 1 12.5796 18.8697 12.5796 -8.95067
584 1 14.1518 20.4415 14.1518 -8.94963
585 1 15.7242 18.869 12.5794 -8.9499
586 1 17.2966 20.4415 14.1518 -8.94966
587 1 18.8691 18.8691 12.5794 -8.94964
588 1 20.4415 20.4415 14.1518 -8.94963
589 1 1.57242 11.007 17.2966 -8.94963
590 1 4.71726 11.007 17.2966 -8.94964
672 1 20.4415 17.2966 20.4415 -8.94963
671 1 18.8691 15.7242 18.8691 -8.94963
670 1 17.2966 17.2966 20.4415 -8.94963
594 1 17.2966 11.007 17.2966 -8.94967
595 1 20.4415 11.007 17.2966 -8.94963
596 1 1.26699e-07 12.5794 15.7242 -8.94963
597 1 1.57242 14.1518 17.2966 -8.94963
598 1 3.14484 12.5794 15.7242 -8.94964
599 1 4.71727 14.1518 17.2966 -8.94965
600 1 6.28967 12.5794 15.7242 -8.9496
601 1 7.86208 14.1518 17.2967 -8.94973
602 1 9.43424 12.5795 15.7248 -8.94914
603 1 11.0069 14.1518 17.2969 -8.95063
604 1 12.5797 12.5795 15.725 -8.95031
605 1 14.1518 14.1518 17.2967 -8.94967
606 1 15.7242 12.5794 15.7242 -8.94959
607 1 17.2966 14.1518 17.2966 -8.94966
608 1 18.8691 12.5794 15.7242 -8.94962
609 1 20.4415 14.1518 17.2966 -8.94963
610 1 22.0139 15.7242 15.7242 -8.94963
611 1 1.57242 17.2966 17.2966 -8.94963
612 1 3.14484 15.7242 15.7242 -8.94966
613 1 4.71726 17.2966 17.2966 -8.94965
614 1 6.28967 15.7242 15.7243 -8.9498
615 1 7.86209 17.2967 17.2967 -8.94968
616 1 9.4344 15.7244 15.7247 -8.95109
617 1 11.007 17.2966 17.2967 -8.94959
618 1 12.5795 15.7243 15.7247 -8.95136
619 1 14.1518 17.2966 17.2967 -8.9497
620 1 15.7242 15.7242 15.7242 -8.94957
621 1 17.2966 17.2966 17.2966 -8.94964
622 1 18.8691 15.7242 15.7242 -8.94964
623 1 20.4415 17.2966 17.2966 -8.94963
624 1 22.0139 18.8691 15.7242 -8.94963
625 1 1.57242 20.4415 17.2966 -8.94963
626 1 3.14484 18.8691 15.7242 -8.94962
627 1 4.71726 20.4415 17.2966 -8.94962
628 1 6.28966 18.8691 15.7242 -8.9494
629 1 7.86211 20.4415 17.2966 -8.94966
630 1 9.43453 18.869 15.7242 -8.94983
631 1 11.007 20.4415 17.2966 -8.94965
632 1 12.5794 18.869 15.7242 -8.94984
633 1 14.1518 20.4415 17.2966 -8.94966
634 1 15.7242 18.8691 15.7242 -8.94937
635 1 17.2966 20.4415 17.2966 -8.94962
636 1 18.8691 18.8691 15.7242 -8.94963
637 1 20.4415 20.4415 17.2966 -8.94963
669 1 15.7242 15.7242 18.8691 -8.94963
639 1 4.71726 11.007 20.4415 -8.94963
668 1 14.1518 17.2966 20.4415 -8.94964
667 1 12.5794 15.7242 18.8691 -8.94974
666 1 11.007 17.2966 20.4415 -8.94963
643 1 17.2966 11.007 20.4415 -8.94963
665 1 9.43453 15.7242 18.8691 -8.94973
645 1 22.0139 12.5794 18.8691 -8.94963
646 1 1.57242 14.1518 20.4415 -8.94963
647 1 3.14484 12.5794 18.8691 -8.94963
648 1 4.71726 14.1518 20.4415 -8.94963
649 1 6.28969 12.5794 18.8691 -8.94963
650 1 7.86211 14.1518 20.4415 -8.94965
651 1 9.43452 12.5794 18.8691 -8.9497
652 1 11.007 14.1518 20.4415 -8.94969
653 1 12.5794 12.5794 18.8691 -8.94976
654 1 14.1518 14.1518 20.4415 -8.94965
655 1 15.7242 12.5794 18.8691 -8.94963
656 1 17.2966 14.1518 20.4415 -8.94963
657 1 18.8691 12.5794 18.8691 -8.94963
658 1 20.4415 14.1518 20.4415 -8.94963
659 1 22.0139 15.7242 18.8691 -8.94963
660 1 1.57242 17.2966 20.4415 -8.94963
661 1 3.14484 15.7242 18.8691 -8.94963
662 1 4.71726 17.2966 20.4415 -8.94963
663 1 6.28968 15.7242 18.8691 -8.94963
664 1 7.86211 17.2966 20.4415 -8.94964
381 1 3.14484 18.8691 22.0139 -8.94963
201 1 6.28969 22.0139 12.5794 -8.94964
355 1 6.28969 12.5794 22.0139 -8.94964
357 1 9.43452 12.5794 22.0139 -8.94971
359 1 12.5794 12.5794 22.0139 -8.94979
365 1 22.0139 15.7242 22.0139 -8.94963
367 1 3.14484 15.7242 22.0139 -8.94963
369 1 6.28968 15.7242 22.0139 -8.94964
371 1 9.43453 15.7242 22.0139 -8.94964
373 1 12.5794 15.7242 22.0139 -8.94964
375 1 15.7242 15.7242 22.0139 -8.94963
246 1 4.69772e-09 22.0139 15.7242 -8.94963
379 1 22.0139 18.8691 22.0139 -8.94963
363 1 18.8691 12.5794 22.0139 -8.94963
