ITEM: TIMESTEP
85
ITEM: NUMBER OF ATOMS
687
ITEM: BOX BOUNDS pp pp pp
0.0000000000000000e+00 2.2013900999999997e+01
0.0000000000000000e+00 2.2013900999999997e+01
0.0000000000000000e+00 2.2013900999999997e+01
ITEM: ATOMS id type x y z c_pot
1 1 22.0137 8.25579e-16 0.000209424 -8.94941
2 1 1.57216 1.57216 1.57242 -8.94961
196 1 20.4415 7.8618 11.007 -8.9499
4 1 4.71712 1.57216 1.57242 -8.94953
5 1 6.28958 8.49666e-16 0.000244017 -8.94954
6 1 7.86208 1.57216 1.57242 -8.94955
175 1 18.8691 9.43458 9.43422 -8.9499
8 1 11.0071 1.57218 1.57242 -8.94954
9 1 12.5795 3.72557e-15 0.000260582 -8.94953
10 1 14.152 1.57222 1.57242 -8.94957
195 1 17.2991 7.86174 11.0067 -8.95179
12 1 17.2969 1.57221 1.57242 -8.94941
13 1 18.8692 1.19775e-15 0.00015966 -8.9493
14 1 20.4413 1.57226 1.57242 -8.9493
15 1 22.0134 3.14433 0.000304082 -8.94919
16 1 1.57171 4.71653 1.57242 -8.94953
194 1 14.162 7.85819 11.0045 -8.95826
18 1 4.71699 4.71657 1.57242 -8.9496
174 1 15.7256 9.43524 9.43397 -8.94977
20 1 7.86217 4.71659 1.57242 -8.94955
173 1 12.5825 9.43695 9.43403 -8.95293
22 1 11.0073 4.71671 1.57242 -8.94952
193 1 11.0477 7.82504 10.9737 -8.85419
24 1 14.1523 4.71688 1.57242 -8.95005
25 1 15.7247 3.14438 0.000509312 -8.94948
26 1 17.2968 4.71717 1.57242 -8.94971
27 1 18.8691 3.14463 0.000226931 -8.9496
28 1 20.4412 4.71702 1.57242 -8.94955
192 1 7.84746 7.85429 10.9831 -8.90446
30 1 1.57156 7.86165 1.57242 -8.9494
31 1 3.14379 6.2886 0.00115196 -8.95
32 1 4.71675 7.86154 1.57242 -8.95065
172 1 9.44918 9.41064 9.42672 -8.90446
34 1 7.86237 7.86168 1.57242 -8.95025
171 1 6.24899 9.40125 9.39746 -8.85419
36 1 11.0072 7.86208 1.57242 -8.9504
37 1 12.5799 6.2893 0.000983242 -8.95067
38 1 14.1521 7.86218 1.57242 -8.94954
39 1 15.7245 6.28967 0.000326312 -8.94973
40 1 17.2968 7.86206 1.57242 -8.94955
41 1 18.869 6.28955 0.000210233 -8.94953
42 1 20.4411 7.86195 1.57242 -8.94955
170 1 3.1346 9.43205 9.43061 -8.95826
169 1 22.0114 9.43424 9.43416 -8.95179
45 1 6.28945 9.43438 0.00164604 -8.95143
46 1 9.43467 9.43466 0.000519964 -8.94943
47 1 12.5797 9.43468 0.00033693 -8.94936
168 1 18.87 6.2892 9.43414 -8.95022
167 1 15.7286 6.28758 9.43241 -8.9509
50 1 22.0137 6.17578e-16 3.14463 -8.94941
51 1 1.5719 1.57191 4.7168 -8.94948
52 1 3.14464 -4.57045e-16 3.14464 -8.94957
53 1 4.71697 1.57196 4.71679 -8.94949
54 1 6.28958 8.44352e-16 3.1446 -8.94954
55 1 7.86201 1.57198 4.71669 -8.94952
56 1 9.43455 3.30656e-15 3.14458 -8.94955
57 1 11.0071 1.57201 4.71667 -8.94948
58 1 12.5795 3.58664e-15 3.14458 -8.94953
59 1 14.1522 1.57201 4.71664 -8.94963
60 1 15.7245 3.41644e-16 3.14458 -8.94961
61 1 17.2972 1.57212 4.71675 -8.94919
62 1 18.8692 1.64495e-15 3.14468 -8.9493
63 1 20.4415 1.57219 4.71705 -8.9496
64 1 22.0134 3.14433 3.14454 -8.94919
65 1 1.57095 4.71579 4.71602 -8.94822
66 1 3.14443 3.14421 3.14443 -8.94963
67 1 4.7165 4.71588 4.71587 -8.94965
68 1 6.28955 3.14425 3.14443 -8.94948
69 1 7.86204 4.71605 4.71591 -8.94936
70 1 9.43462 3.14427 3.1444 -8.94952
71 1 11.0074 4.71619 4.71584 -8.94914
72 1 12.5797 3.14437 3.14438 -8.94949
73 1 14.153 4.71614 4.71549 -8.94944
74 1 15.7247 3.14438 3.14433 -8.94948
75 1 17.297 4.71698 4.7167 -8.94986
76 1 18.8691 3.14463 3.14462 -8.9496
77 1 20.441 4.7168 4.71682 -8.94956
78 1 -0.000686716 6.28923 3.14444 -8.94949
79 1 1.5708 7.86123 4.71586 -8.9492
80 1 3.14379 6.2886 3.14369 -8.95
81 1 4.71536 7.86038 4.71351 -8.95155
82 1 6.28953 6.28883 3.14378 -8.9497
83 1 7.86228 7.86098 4.71448 -8.95059
84 1 9.43488 6.28892 3.14388 -8.94963
85 1 11.0074 7.86177 4.71504 -8.95252
86 1 12.5799 6.2893 3.14386 -8.95067
87 1 14.1523 7.86233 4.71652 -8.94964
88 1 15.7245 6.28967 3.14452 -8.94973
89 1 17.2968 7.86205 4.7168 -8.94943
90 1 18.869 6.28955 3.14463 -8.94953
91 1 20.4409 7.86183 4.71674 -8.94946
92 1 22.0131 9.43435 3.14441 -8.9495
93 1 3.14357 9.43408 3.1436 -8.94939
94 1 6.28945 9.43438 3.1432 -8.95143
95 1 9.43467 9.43466 3.14432 -8.94943
96 1 12.5797 9.43468 3.14451 -8.94936
97 1 15.7245 9.43453 3.14453 -8.94956
98 1 18.8689 9.43447 3.1446 -8.94956
99 1 22.0138 1.67378e-15 6.28959 -8.94971
100 1 1.57214 1.5721 7.86209 -8.94973
101 1 3.14437 3.35258e-15 6.2893 -8.95005
102 1 4.71672 1.57144 7.86173 -8.95067
103 1 6.28938 -9.03844e-15 6.28913 -8.94952
104 1 7.86176 1.57145 7.86134 -8.94963
105 1 9.43447 -4.34433e-14 6.28902 -8.94955
106 1 11.0071 1.57136 7.86125 -8.9497
107 1 12.5797 -5.70758e-14 6.28899 -8.9496
108 1 14.1528 1.57127 7.86102 -8.95
109 1 15.7249 3.1938e-15 6.28896 -8.94953
110 1 17.2973 1.57202 7.86165 -8.94949
111 1 18.8694 2.31569e-15 6.28945 -8.94955
112 1 20.4416 1.57221 7.86197 -8.94953
113 1 22.0135 3.14428 6.28941 -8.94986
114 1 1.57127 4.71613 7.86176 -8.95041
115 1 3.14359 3.14307 6.28856 -8.94944
116 1 4.71425 4.71257 7.85932 -8.94988
117 1 6.28922 3.14342 6.28861 -8.94914
118 1 7.86151 4.71394 7.85955 -8.94775
119 1 9.4346 3.14349 6.28847 -8.94936
120 1 11.0083 4.71359 7.85932 -8.94917
121 1 12.5801 3.14345 6.2883 -8.94965
122 1 14.1562 4.71314 7.85785 -8.94454
123 1 15.7257 3.1436 6.28821 -8.94822
124 1 17.2983 4.71628 7.86104 -8.94968
125 1 18.8695 3.1444 6.28922 -8.94956
126 1 20.4415 4.71679 7.86185 -8.94986
127 1 22.0123 6.28862 6.2887 -8.94968
128 1 1.56802 7.85999 7.86 -8.9509
129 1 3.14046 6.28543 6.28556 -8.94454
130 1 4.70417 7.85007 7.84946 -8.92996
131 1 6.28831 6.2869 6.28601 -8.94917
132 1 7.86117 7.85688 7.85322 -8.95092
133 1 9.43512 6.28713 6.28636 -8.94775
134 1 11.0133 7.85531 7.85162 -8.95323
135 1 12.5824 6.2869 6.28499 -8.94988
136 1 14.1541 7.86203 7.86046 -8.95166
137 1 15.7254 6.28934 6.28855 -8.95041
138 1 17.2974 7.86215 7.86154 -8.94984
139 1 18.869 6.28942 6.28921 -8.94986
140 1 20.4405 7.86172 7.86162 -8.95022
141 1 -0.00178181 9.43411 6.28856 -8.94929
142 1 3.1408 9.43308 6.28583 -8.94762
143 1 6.28647 9.43312 6.2815 -8.95926
144 1 9.43391 9.4344 6.28816 -8.95183
145 1 12.5797 9.43527 6.28898 -8.94891
146 1 15.7249 9.43457 6.28882 -8.94898
147 1 18.8689 9.43442 6.2891 -8.94956
148 1 -0.000116893 2.8587e-15 9.43448 -8.94955
149 1 3.14454 -2.63751e-14 9.4346 -8.94954
150 1 6.28944 -4.9821e-14 9.4345 -8.9504
151 1 9.43426 4.56598e-13 9.4341 -8.95025
152 1 12.5799 -1.61749e-14 9.43396 -8.95065
153 1 15.7251 -4.79322e-14 9.43407 -8.9494
154 1 18.8694 3.84052e-15 9.43437 -8.94955
155 1 -0.000201613 3.14438 9.43448 -8.94943
156 1 3.14438 3.1441 9.43475 -8.94964
157 1 6.28923 3.14262 9.43419 -8.95252
158 1 9.43435 3.14206 9.4334 -8.95059
159 1 12.5813 3.14109 9.4328 -8.95155
160 1 15.7258 3.14344 9.43365 -8.9492
161 1 18.8696 3.14432 9.43425 -8.94946
162 1 22.0132 6.28912 9.43457 -8.94984
163 1 3.14251 6.28804 9.43446 -8.95166
164 1 6.28334 6.2792 9.42774 -8.95323
165 1 9.43547 6.2808 9.4293 -8.95092
166 1 12.5925 6.27704 9.42249 -8.92996
177 1 4.71692 1.57208 11.0071 -8.94936
178 1 7.86196 1.5719 11.0071 -8.94943
179 1 11.0072 1.57078 11.0068 -8.95143
191 1 4.71412 7.86161 11.0094 -8.95293
181 1 17.2974 1.57198 11.0068 -8.9495
182 1 20.4416 1.57218 11.0069 -8.94956
184 1 4.71689 4.71656 11.0077 -8.94891
185 1 7.86273 4.71574 11.0068 -8.95183
186 1 11.0102 4.70908 11.0055 -8.95926
190 1 1.57101 7.86155 11.0077 -8.94977
19 1 6.28955 3.14425 0.000416447 -8.94948
49 1 18.8689 9.43447 0.000239731 -8.94956
21 1 9.43462 3.14427 0.000440167 -8.94952
43 1 22.0131 9.43435 0.00043767 -8.9495
176 1 1.5721 1.57211 11.007 -8.94956
343 1 18.8689 9.43442 18.8696 -8.94956
342 1 15.7249 9.43457 18.8699 -8.94898
341 1 12.5797 9.43527 18.8698 -8.94891
340 1 9.43391 9.4344 18.8706 -8.95183
339 1 6.28647 9.43312 18.8772 -8.95926
338 1 3.1408 9.43308 18.8729 -8.94762
183 1 1.57171 4.7164 11.007 -8.94898
337 1 -0.00178181 9.43411 18.8702 -8.94929
336 1 20.4409 7.86183 20.442 -8.94946
335 1 18.869 6.28942 18.8695 -8.94986
334 1 17.2968 7.86205 20.4419 -8.94943
188 1 17.2984 4.71614 11.0065 -8.94929
189 1 20.4417 4.71667 11.0068 -8.94956
333 1 15.7254 6.28934 18.8702 -8.95041
332 1 14.1523 7.86233 20.4422 -8.94964
331 1 12.5824 6.2869 18.8738 -8.94988
330 1 11.0074 7.86177 20.4437 -8.95252
329 1 9.43512 6.28713 18.8724 -8.94775
328 1 7.86228 7.86098 20.4443 -8.95059
327 1 6.28831 6.2869 18.8727 -8.94917
197 1 -0.000133931 -8.90012e-15 12.5794 -8.94958
198 1 1.5721 1.57211 14.1518 -8.94956
199 1 3.14447 3.67084e-14 12.5794 -8.94966
200 1 4.71692 1.57208 14.1516 -8.94936
201 1 6.28935 4.25902e-13 12.5794 -8.94915
202 1 7.86196 1.5719 14.1517 -8.94943
203 1 9.43429 1.05887e-12 12.5794 -8.94851
204 1 11.0072 1.57078 14.1519 -8.95143
205 1 12.5802 5.54939e-13 12.5794 -8.95034
206 1 14.1531 1.57118 14.1522 -8.94939
207 1 15.7251 -4.98129e-14 12.5794 -8.94947
208 1 17.2974 1.57198 14.152 -8.9495
209 1 18.8694 4.04228e-15 12.5794 -8.94956
210 1 20.4416 1.57218 14.1519 -8.94956
211 1 22.0137 3.14434 12.5794 -8.94957
212 1 1.57171 4.7164 14.1518 -8.94898
213 1 3.14431 3.14411 12.5794 -8.94965
214 1 4.71689 4.71656 14.1511 -8.94891
215 1 6.28953 3.14475 12.5794 -8.94822
216 1 7.86273 4.71574 14.1519 -8.95183
217 1 9.43472 3.14402 12.5794 -8.94636
218 1 11.0102 4.70908 14.1532 -8.95926
219 1 12.5819 3.14091 12.5794 -8.94957
220 1 14.1558 4.71341 14.1532 -8.94762
221 1 15.7259 3.14339 12.5794 -8.94946
222 1 17.2984 4.71614 14.1522 -8.94929
223 1 18.8697 3.14429 12.5794 -8.94952
224 1 20.4417 4.71667 14.1519 -8.94956
225 1 -0.000574869 6.28887 12.5794 -8.94954
226 1 1.57101 7.86155 14.1511 -8.94977
227 1 3.14341 6.28809 12.5794 -8.94648
228 1 4.71412 7.86161 14.1494 -8.95293
229 1 6.29186 6.29217 12.5794 -8.94512
230 1 7.84746 7.85429 14.1757 -8.90446
231 1 9.43975 6.29328 12.5794 -9.00331
232 1 11.0477 7.82504 14.1851 -8.85419
233 1 12.5902 6.27946 12.5794 -8.94208
234 1 14.162 7.85819 14.1543 -8.95826
235 1 15.7288 6.28721 12.5794 -8.94906
236 1 17.2991 7.86174 14.1521 -8.95179
237 1 18.8702 6.28902 12.5794 -8.94997
238 1 20.4415 7.8618 14.1517 -8.9499
239 1 22.0136 9.43425 12.5794 -8.94766
240 1 3.14737 9.43512 12.5794 -8.93976
241 1 6.31257 9.4445 12.5794 -8.90214
242 1 9.51202 9.20278 12.5794 -8.121
243 1 12.5871 9.42687 12.5794 -8.97291
244 1 15.7266 9.43488 12.5794 -8.9511
245 1 18.8696 9.43461 12.5794 -8.94941
246 1 -0.000116893 2.9679e-15 15.7243 -8.94955
247 1 1.57214 1.5721 17.2967 -8.94973
248 1 3.14454 -2.63789e-14 15.7241 -8.94954
249 1 4.71672 1.57144 17.297 -8.95067
250 1 6.28944 -5.01905e-14 15.7242 -8.9504
251 1 7.86176 1.57145 17.2974 -8.94963
252 1 9.43426 4.5674e-13 15.7246 -8.95025
253 1 11.0071 1.57136 17.2975 -8.9497
254 1 12.5799 -1.65068e-14 15.7248 -8.95065
255 1 14.1528 1.57127 17.2977 -8.95
256 1 15.7251 -4.79751e-14 15.7247 -8.9494
257 1 17.2973 1.57202 17.2971 -8.94949
258 1 18.8694 4.75154e-15 15.7244 -8.94955
259 1 20.4416 1.57221 17.2968 -8.94953
260 1 -0.000201613 3.14438 15.7243 -8.94943
261 1 1.57127 4.71613 17.297 -8.95041
262 1 3.14438 3.1441 15.724 -8.94964
263 1 4.71425 4.71257 17.2994 -8.94988
264 1 6.28923 3.14262 15.7245 -8.95252
265 1 7.86151 4.71394 17.2992 -8.94775
266 1 9.43435 3.14206 15.7253 -8.95059
267 1 11.0083 4.71359 17.2994 -8.94917
268 1 12.5813 3.14109 15.7259 -8.95155
269 1 14.1562 4.71314 17.3009 -8.94454
270 1 15.7258 3.14344 15.7251 -8.9492
271 1 17.2983 4.71628 17.2977 -8.94968
272 1 18.8696 3.14432 15.7245 -8.94946
273 1 20.4415 4.71679 17.2969 -8.94986
274 1 22.0132 6.28912 15.7242 -8.94984
275 1 1.56802 7.85999 17.2987 -8.9509
276 1 3.14251 6.28804 15.7243 -8.95166
277 1 4.70417 7.85007 17.3093 -8.92996
278 1 6.28334 6.2792 15.731 -8.95323
279 1 7.86117 7.85688 17.3055 -8.95092
280 1 9.43547 6.2808 15.7294 -8.95092
281 1 11.0133 7.85531 17.3071 -8.95323
282 1 12.5925 6.27704 15.7363 -8.92996
283 1 14.1541 7.86203 17.2983 -8.95166
284 1 15.7286 6.28758 15.7263 -8.9509
285 1 17.2974 7.86215 17.2972 -8.94984
286 1 18.87 6.2892 15.7246 -8.95022
287 1 20.4405 7.86172 17.2971 -8.95022
288 1 22.0114 9.43424 15.7246 -8.95179
289 1 3.1346 9.43205 15.7281 -8.95826
290 1 6.24899 9.40125 15.7613 -8.85419
291 1 9.44918 9.41064 15.732 -8.90446
292 1 12.5825 9.43695 15.7247 -8.95293
293 1 15.7256 9.43524 15.7248 -8.94977
294 1 18.8691 9.43458 15.7245 -8.9499
295 1 22.0138 1.74313e-15 18.8692 -8.94971
296 1 1.5719 1.57191 20.4419 -8.94948
297 1 3.14437 3.44357e-15 18.8694 -8.95005
298 1 4.71697 1.57196 20.442 -8.94949
299 1 6.28938 -9.4251e-15 18.8696 -8.94952
300 1 7.86201 1.57198 20.4421 -8.94952
301 1 9.43447 -4.33816e-14 18.8697 -8.94955
302 1 11.0071 1.57201 20.4421 -8.94948
303 1 12.5797 -5.64348e-14 18.8698 -8.9496
304 1 14.1522 1.57201 20.4421 -8.94963
305 1 15.7249 3.35336e-15 18.8698 -8.94953
306 1 17.2972 1.57212 20.442 -8.94919
307 1 18.8694 2.47252e-15 18.8693 -8.94955
308 1 20.4415 1.57219 20.4417 -8.9496
309 1 22.0135 3.14428 18.8693 -8.94986
310 1 1.57095 4.71579 20.4427 -8.94822
311 1 3.14359 3.14307 18.8702 -8.94944
312 1 4.7165 4.71588 20.4429 -8.94965
313 1 6.28922 3.14342 18.8701 -8.94914
314 1 7.86204 4.71605 20.4428 -8.94936
315 1 9.4346 3.14349 18.8703 -8.94936
316 1 11.0074 4.71619 20.4429 -8.94914
317 1 12.5801 3.14345 18.8704 -8.94965
318 1 14.153 4.71614 20.4433 -8.94944
319 1 15.7257 3.1436 18.8705 -8.94822
320 1 17.297 4.71698 20.442 -8.94986
321 1 18.8695 3.1444 18.8695 -8.94956
322 1 20.441 4.7168 20.4419 -8.94956
323 1 22.0123 6.28862 18.87 -8.94968
324 1 1.5708 7.86123 20.4429 -8.9492
325 1 3.14046 6.28543 18.8732 -8.94454
326 1 4.71536 7.86038 20.4452 -8.95155
7 1 9.43455 3.60357e-15 22.0142 -8.94955
48 1 15.7245 9.43453 22.0142 -8.94956
44 1 3.14357 9.43408 22.0151 -8.94939
33 1 6.28953 6.28883 22.015 -8.9497
35 1 9.43488 6.28892 22.0149 -8.94963
3 1 3.14464 -5.70582e-16 22.0141 -8.94957
11 1 15.7245 5.88863e-16 22.0142 -8.94961
17 1 3.14443 3.14421 22.0143 -8.94963
23 1 12.5797 3.14437 22.0144 -8.94949
29 1 -0.000686716 6.28923 22.0143 -8.94949
180 1 14.1531 1.57118 11.0065 -8.94939
187 1 14.1558 4.71341 11.0055 -8.94762
344 1 1.5715 11.007 1.57242 -8.94947
345 1 4.71644 11.007 1.57242 -8.95034
346 1 7.86235 11.007 1.57242 -8.94851
347 1 11.0073 11.007 1.57242 -8.94915
348 1 14.1522 11.007 1.57242 -8.94966
349 1 17.2968 11.007 1.57242 -8.94958
350 1 20.4411 11.007 1.57242 -8.94956
511 1 18.8696 18.8696 9.43425 -8.94946
352 1 1.57156 14.1523 1.57242 -8.9494
510 1 15.7258 18.8705 9.43365 -8.9492
354 1 4.71675 14.1524 1.57242 -8.95065
355 1 6.28945 12.5795 0.00164604 -8.95143
356 1 7.86237 14.1522 1.57242 -8.95025
357 1 9.43467 12.5792 0.000519964 -8.94943
358 1 11.0072 14.1518 1.57242 -8.9504
359 1 12.5797 12.5792 0.00033693 -8.94936
360 1 14.1521 14.1517 1.57242 -8.94954
509 1 12.5813 18.8728 9.4328 -8.95155
362 1 17.2968 14.1518 1.57242 -8.94955
508 1 9.43435 18.8718 9.4334 -8.95059
364 1 20.4411 14.152 1.57242 -8.94955
539 1 20.4416 20.4417 11.0069 -8.94956
366 1 1.57171 17.2974 1.57242 -8.94953
367 1 3.14379 15.7253 0.00115196 -8.95
368 1 4.71699 17.2973 1.57242 -8.9496
507 1 6.28923 18.8713 9.43419 -8.95252
370 1 7.86217 17.2973 1.57242 -8.94955
506 1 3.14438 18.8698 9.43475 -8.94964
372 1 11.0073 17.2972 1.57242 -8.94952
373 1 12.5799 15.7246 0.000983242 -8.95067
374 1 14.1523 17.297 1.57242 -8.95005
375 1 15.7245 15.7242 0.000326312 -8.94973
376 1 17.2968 17.2967 1.57242 -8.94971
377 1 18.869 15.7244 0.000210233 -8.94953
378 1 20.4412 17.2969 1.57242 -8.94955
379 1 22.0134 18.8696 0.000304082 -8.94919
380 1 1.57216 20.4417 1.57242 -8.94961
538 1 17.2974 20.4419 11.0068 -8.9495
382 1 4.71712 20.4417 1.57242 -8.94953
505 1 -0.000201613 18.8695 9.43448 -8.94943
384 1 7.86208 20.4417 1.57242 -8.94955
504 1 18.87 15.7247 9.43414 -8.95022
386 1 11.0071 20.4417 1.57242 -8.94954
536 1 11.0072 20.4431 11.0068 -8.95143
388 1 14.152 20.4417 1.57242 -8.94957
389 1 15.7247 18.8695 0.000509312 -8.94948
390 1 17.2969 20.4417 1.57242 -8.94941
391 1 18.8691 18.8693 0.000226931 -8.9496
392 1 20.4413 20.4416 1.57242 -8.9493
393 1 1.57071 11.007 4.71581 -8.94946
394 1 4.71473 11.007 4.71334 -8.94957
395 1 7.86192 11.007 4.71644 -8.94636
396 1 11.0071 11.007 4.71718 -8.94822
397 1 14.1523 11.007 4.71653 -8.94965
398 1 17.2968 11.007 4.71676 -8.94957
399 1 20.4409 11.007 4.71671 -8.94952
400 1 22.0131 12.5795 3.14441 -8.9495
401 1 1.5708 14.1527 4.71586 -8.9492
402 1 3.14357 12.5798 3.1436 -8.94939
403 1 4.71536 14.1535 4.71351 -8.95155
404 1 6.28945 12.5795 3.1432 -8.95143
405 1 7.86228 14.1529 4.71448 -8.95059
406 1 9.43467 12.5792 3.14432 -8.94943
407 1 11.0074 14.1521 4.71504 -8.95252
408 1 12.5797 12.5792 3.14451 -8.94936
409 1 14.1523 14.1516 4.71652 -8.94964
410 1 15.7245 12.5794 3.14453 -8.94956
411 1 17.2968 14.1518 4.7168 -8.94943
412 1 18.8689 12.5794 3.1446 -8.94956
413 1 20.4409 14.1521 4.71674 -8.94946
414 1 -0.000686716 15.7247 3.14444 -8.94949
415 1 1.57095 17.2981 4.71602 -8.94822
416 1 3.14379 15.7253 3.14369 -8.95
417 1 4.7165 17.298 4.71587 -8.94965
418 1 6.28953 15.7251 3.14378 -8.9497
419 1 7.86204 17.2978 4.71591 -8.94936
420 1 9.43488 15.725 3.14388 -8.94963
421 1 11.0074 17.2977 4.71584 -8.94914
422 1 12.5799 15.7246 3.14386 -8.95067
423 1 14.153 17.2978 4.71549 -8.94944
424 1 15.7245 15.7242 3.14452 -8.94973
425 1 17.297 17.2969 4.7167 -8.94986
426 1 18.869 15.7244 3.14463 -8.94953
427 1 20.441 17.2971 4.71682 -8.94956
428 1 22.0134 18.8696 3.14454 -8.94919
429 1 1.5719 20.442 4.7168 -8.94948
430 1 3.14443 18.8697 3.14443 -8.94963
431 1 4.71697 20.4419 4.71679 -8.94949
432 1 6.28955 18.8697 3.14443 -8.94948
433 1 7.86201 20.4419 4.71669 -8.94952
434 1 9.43462 18.8696 3.1444 -8.94952
435 1 11.0071 20.4419 4.71667 -8.94948
436 1 12.5797 18.8695 3.14438 -8.94949
437 1 14.1522 20.4419 4.71664 -8.94963
438 1 15.7247 18.8695 3.14433 -8.94948
439 1 17.2972 20.4418 4.71675 -8.94919
440 1 18.8691 18.8693 3.14462 -8.9496
441 1 20.4415 20.4417 4.71705 -8.9496
442 1 1.56781 11.007 7.85963 -8.94906
443 1 4.70646 11.007 7.85188 -8.94208
444 1 7.85689 11.007 7.8657 -9.00331
445 1 11.0048 11.007 7.86459 -8.94512
446 1 14.1532 11.007 7.86051 -8.94648
447 1 17.2972 11.007 7.86129 -8.94954
448 1 20.4403 11.007 7.86144 -8.94997
449 1 -0.00178181 12.5798 6.28856 -8.94929
450 1 1.56802 14.1539 7.86 -8.9509
451 1 3.1408 12.5808 6.28583 -8.94762
452 1 4.70417 14.1638 7.84946 -8.92996
453 1 6.28647 12.5808 6.2815 -8.95926
454 1 7.86117 14.157 7.85322 -8.95092
455 1 9.43391 12.5795 6.28816 -8.95183
456 1 11.0133 14.1586 7.85162 -8.95323
457 1 12.5797 12.5786 6.28898 -8.94891
458 1 14.1541 14.1519 7.86046 -8.95166
459 1 15.7249 12.5793 6.28882 -8.94898
460 1 17.2974 14.1517 7.86154 -8.94984
461 1 18.8689 12.5795 6.2891 -8.94956
462 1 20.4405 14.1522 7.86162 -8.95022
463 1 22.0123 15.7253 6.2887 -8.94968
464 1 1.57127 17.2978 7.86176 -8.95041
465 1 3.14046 15.7285 6.28556 -8.94454
466 1 4.71425 17.3013 7.85932 -8.94988
467 1 6.28831 15.727 6.28601 -8.94917
468 1 7.86151 17.3 7.85955 -8.94775
469 1 9.43512 15.7268 6.28636 -8.94775
470 1 11.0083 17.3003 7.85932 -8.94917
471 1 12.5824 15.727 6.28499 -8.94988
472 1 14.1562 17.3008 7.85785 -8.94454
473 1 15.7254 15.7246 6.28855 -8.95041
474 1 17.2983 17.2976 7.86104 -8.94968
475 1 18.869 15.7245 6.28921 -8.94986
476 1 20.4415 17.2971 7.86185 -8.94986
477 1 22.0135 18.8696 6.28941 -8.94986
478 1 1.57214 20.4418 7.86209 -8.94973
479 1 3.14359 18.8708 6.28856 -8.94944
480 1 4.71672 20.4425 7.86173 -8.95067
481 1 6.28922 18.8705 6.28861 -8.94914
482 1 7.86176 20.4424 7.86134 -8.94963
483 1 9.4346 18.8704 6.28847 -8.94936
484 1 11.0071 20.4425 7.86125 -8.9497
485 1 12.5801 18.8705 6.2883 -8.94965
486 1 14.1528 20.4426 7.86102 -8.95
487 1 15.7257 18.8703 6.28821 -8.94822
488 1 17.2973 20.4419 7.86165 -8.94949
489 1 18.8695 18.8695 6.28922 -8.94956
490 1 20.4416 20.4417 7.86197 -8.94953
491 1 22.0114 12.5797 9.43416 -8.95179
492 1 3.1346 12.5819 9.43061 -8.95826
493 1 6.24899 12.6126 9.39746 -8.85419
494 1 9.44918 12.6033 9.42672 -8.90446
495 1 12.5825 12.577 9.43403 -8.95293
496 1 15.7256 12.5787 9.43397 -8.94977
497 1 18.8691 12.5793 9.43422 -8.9499
498 1 22.0132 15.7248 9.43457 -8.94984
499 1 3.14251 15.7259 9.43446 -8.95166
500 1 6.28334 15.7347 9.42774 -8.95323
501 1 9.43547 15.7331 9.4293 -8.95092
502 1 12.5925 15.7369 9.42249 -8.92996
503 1 15.7286 15.7263 9.43241 -8.9509
512 1 1.57008 11.007 11.0073 -8.9511
513 1 4.70958 11.007 10.9993 -8.97291
514 1 7.78461 11.007 10.7752 -8.12101
515 1 10.9841 11.007 11.0169 -8.90214
516 1 14.1493 11.007 11.0075 -8.93976
517 1 17.297 11.007 11.0067 -8.94766
518 1 20.4409 11.007 11.007 -8.94941
519 1 1.57101 14.1524 11.0077 -8.94977
520 1 4.71412 14.1523 11.0094 -8.95293
521 1 7.84746 14.1596 10.9831 -8.90446
522 1 11.0477 14.1889 10.9737 -8.85419
523 1 14.162 14.1557 11.0045 -8.95826
524 1 17.2991 14.1522 11.0067 -8.95179
525 1 20.4415 14.1521 11.007 -8.9499
527 1 4.71689 17.2973 11.0077 -8.94891
528 1 7.86273 17.2982 11.0068 -8.95183
529 1 11.0102 17.3048 11.0055 -8.95926
535 1 7.86196 20.442 11.0071 -8.94943
534 1 4.71692 20.4418 11.0071 -8.94936
351 1 22.0131 12.5795 0.00043767 -8.9495
385 1 9.43462 18.8696 0.000440167 -8.94952
383 1 6.28955 18.8697 0.000416447 -8.94948
363 1 18.8689 12.5794 0.000239731 -8.94956
687 3 8.64832 11.0069 12.5794 2.30879
686 1 20.4415 20.4417 20.4417 -8.9496
685 1 18.8695 18.8695 18.8695 -8.94956
684 1 17.2972 20.4418 20.442 -8.94919
683 1 15.7257 18.8703 18.8705 -8.94822
682 1 14.1522 20.4419 20.4421 -8.94963
681 1 12.5801 18.8705 18.8704 -8.94965
680 1 11.0071 20.4419 20.4421 -8.94948
679 1 9.4346 18.8704 18.8703 -8.94936
678 1 7.86201 20.4419 20.4421 -8.94952
677 1 6.28922 18.8705 18.8701 -8.94914
676 1 4.71697 20.4419 20.442 -8.94949
675 1 3.14359 18.8708 18.8702 -8.94944
674 1 1.5719 20.442 20.4419 -8.94948
526 1 1.57171 17.2975 11.007 -8.94898
673 1 22.0135 18.8696 18.8693 -8.94986
672 1 20.441 17.2971 20.4419 -8.94956
671 1 18.869 15.7245 18.8695 -8.94986
670 1 17.297 17.2969 20.442 -8.94986
531 1 17.2984 17.2978 11.0065 -8.94929
532 1 20.4417 17.2972 11.0068 -8.94956
533 1 1.5721 20.4418 11.007 -8.94956
669 1 15.7254 15.7246 18.8702 -8.95041
668 1 14.153 17.2978 20.4433 -8.94944
667 1 12.5824 15.727 18.8738 -8.94988
666 1 11.0074 17.2977 20.4429 -8.94914
665 1 9.43512 15.7268 18.8724 -8.94775
664 1 7.86204 17.2978 20.4428 -8.94936
540 1 1.57008 11.007 14.1514 -8.9511
541 1 4.70958 11.007 14.1595 -8.97291
542 1 7.78461 11.007 14.3835 -8.12101
543 1 10.9841 11.007 14.1418 -8.90214
544 1 14.1493 11.007 14.1512 -8.93976
545 1 17.297 11.007 14.1521 -8.94766
546 1 20.4409 11.007 14.1517 -8.94941
547 1 22.0136 12.5797 12.5794 -8.94766
548 1 1.57101 14.1524 14.1511 -8.94977
549 1 3.14737 12.5788 12.5794 -8.93976
550 1 4.71412 14.1523 14.1494 -8.95293
551 1 6.31256 12.5694 12.5794 -8.90214
552 1 7.84746 14.1596 14.1757 -8.90446
553 1 9.51203 12.8111 12.5794 -8.12102
554 1 11.0477 14.1889 14.1851 -8.85419
555 1 12.5871 12.587 12.5794 -8.97291
556 1 14.162 14.1557 14.1543 -8.95826
557 1 15.7266 12.579 12.5794 -8.9511
558 1 17.2991 14.1522 14.1521 -8.95179
559 1 18.8696 12.5793 12.5794 -8.94941
560 1 20.4415 14.1521 14.1517 -8.9499
561 1 -0.000574869 15.725 12.5794 -8.94954
562 1 1.57171 17.2975 14.1518 -8.94898
563 1 3.14341 15.7258 12.5794 -8.94648
564 1 4.71689 17.2973 14.1511 -8.94891
565 1 6.29186 15.7217 12.5794 -8.94512
566 1 7.86273 17.2982 14.1519 -8.95183
567 1 9.43975 15.7206 12.5794 -9.00331
568 1 11.0102 17.3048 14.1532 -8.95926
569 1 12.5902 15.7344 12.5794 -8.94208
570 1 14.1558 17.3005 14.1532 -8.94762
571 1 15.7288 15.7267 12.5794 -8.94906
572 1 17.2984 17.2978 14.1522 -8.94929
573 1 18.8702 15.7249 12.5794 -8.94997
574 1 20.4417 17.2972 14.1519 -8.94956
575 1 22.0137 18.8696 12.5794 -8.94957
576 1 1.5721 20.4418 14.1518 -8.94956
577 1 3.14431 18.8698 12.5794 -8.94965
578 1 4.71692 20.4418 14.1516 -8.94936
579 1 6.28953 18.8691 12.5794 -8.94822
580 1 7.86196 20.442 14.1517 -8.94943
581 1 9.43472 18.8699 12.5794 -8.94636
582 1 11.0072 20.4431 14.1519 -8.95143
583 1 12.5819 18.873 12.5794 -8.94957
584 1 14.1531 20.4427 14.1522 -8.94939
585 1 15.7259 18.8705 12.5794 -8.94946
586 1 17.2974 20.4419 14.152 -8.9495
587 1 18.8697 18.8696 12.5794 -8.94952
588 1 20.4416 20.4417 14.1519 -8.94956
589 1 1.56781 11.007 17.2991 -8.94906
590 1 4.70646 11.007 17.3069 -8.94208
591 1 7.85689 11.007 17.293 -9.00331
592 1 11.0048 11.007 17.2942 -8.94512
593 1 14.1532 11.007 17.2982 -8.94648
594 1 17.2972 11.007 17.2974 -8.94954
595 1 20.4403 11.007 17.2973 -8.94997
596 1 22.0114 12.5797 15.7246 -8.95179
597 1 1.56802 14.1539 17.2987 -8.9509
598 1 3.1346 12.5819 15.7281 -8.95826
599 1 4.70417 14.1638 17.3093 -8.92996
600 1 6.24899 12.6126 15.7613 -8.85419
601 1 7.86117 14.157 17.3055 -8.95092
602 1 9.44918 12.6033 15.732 -8.90446
603 1 11.0133 14.1586 17.3071 -8.95323
604 1 12.5825 12.577 15.7247 -8.95293
605 1 14.1541 14.1519 17.2983 -8.95166
606 1 15.7256 12.5787 15.7248 -8.94977
607 1 17.2974 14.1517 17.2972 -8.94984
608 1 18.8691 12.5793 15.7245 -8.9499
609 1 20.4405 14.1522 17.2971 -8.95022
610 1 22.0132 15.7248 15.7242 -8.94984
611 1 1.57127 17.2978 17.297 -8.95041
612 1 3.14251 15.7259 15.7243 -8.95166
613 1 4.71425 17.3013 17.2994 -8.94988
614 1 6.28334 15.7347 15.731 -8.95323
615 1 7.86151 17.3 17.2992 -8.94775
616 1 9.43547 15.7331 15.7294 -8.95092
617 1 11.0083 17.3003 17.2994 -8.94917
618 1 12.5925 15.7369 15.7363 -8.92996
619 1 14.1562 17.3008 17.3009 -8.94454
620 1 15.7286 15.7263 15.7263 -8.9509
621 1 17.2983 17.2976 17.2977 -8.94968
622 1 18.87 15.7247 15.7246 -8.95022
623 1 20.4415 17.2971 17.2969 -8.94986
624 1 -0.000201613 18.8695 15.7243 -8.94943
625 1 1.57214 20.4418 17.2967 -8.94973
626 1 3.14438 18.8698 15.724 -8.94964
627 1 4.71672 20.4425 17.297 -8.95067
628 1 6.28923 18.8713 15.7245 -8.95252
629 1 7.86176 20.4424 17.2974 -8.94963
630 1 9.43435 18.8718 15.7253 -8.95059
631 1 11.0071 20.4425 17.2975 -8.9497
632 1 12.5813 18.8728 15.7259 -8.95155
633 1 14.1528 20.4426 17.2977 -8.95
634 1 15.7258 18.8705 15.7251 -8.9492
635 1 17.2973 20.4419 17.2971 -8.94949
636 1 18.8696 18.8696 15.7245 -8.94946
637 1 20.4416 20.4417 17.2968 -8.94953
638 1 1.57071 11.007 20.4429 -8.94946
639 1 4.71473 11.007 20.4454 -8.94957
640 1 7.86192 11.007 20.4423 -8.94636
641 1 11.0071 11.007 20.4416 -8.94822
642 1 14.1523 11.007 20.4422 -8.94965
643 1 17.2968 11.007 20.442 -8.94957
644 1 20.4409 11.007 20.442 -8.94952
645 1 -0.00178181 12.5798 18.8702 -8.94929
646 1 1.5708 14.1527 20.4429 -8.9492
647 1 3.1408 12.5808 18.8729 -8.94762
648 1 4.71536 14.1535 20.4452 -8.95155
649 1 6.28647 12.5808 18.8772 -8.95926
650 1 7.86228 14.1529 20.4443 -8.95059
651 1 9.43391 12.5795 18.8706 -8.95183
652 1 11.0074 14.1521 20.4437 -8.95252
653 1 12.5797 12.5786 18.8698 -8.94891
654 1 14.1523 14.1516 20.4422 -8.94964
655 1 15.7249 12.5793 18.8699 -8.94898
656 1 17.2968 14.1518 20.4419 -8.94943
657 1 18.8689 12.5795 18.8696 -8.94956
658 1 20.4409 14.1521 20.442 -8.94946
659 1 22.0123 15.7253 18.87 -8.94968
660 1 1.57095 17.2981 20.4427 -8.94822
661 1 3.14046 15.7285 18.8732 -8.94454
662 1 4.7165 17.298 20.4429 -8.94965
663 1 6.28831 15.727 18.8727 -8.94917
371 1 9.43488 15.725 22.0149 -8.94963
353 1 3.14357 12.5798 22.0151 -8.94939
361 1 15.7245 12.5794 22.0142 -8.94956
369 1 6.28953 15.7251 22.015 -8.9497
365 1 -0.000686716 15.7247 22.0143 -8.94949
381 1 3.14443 18.8697 22.0143 -8.94963
387 1 12.5797 18.8695 22.0144 -8.94949
537 1 14.1531 20.4427 11.0065 -8.94939
530 1 14.1558 17.3005 11.0055 -8.94762
