ITEM: TIMESTEP
53
ITEM: NUMBER OF ATOMS
687
ITEM: BOX BOUNDS pp pp pp
0.0000000000000000e+00 2.2013900999999997e+01
0.0000000000000000e+00 2.2013900999999997e+01
0.0000000000000000e+00 2.2013900999999997e+01
ITEM: ATOMS id type x y z c_pot
1 1 22.0139 -1.67929e-15 6.72126e-08 -8.94963
2 1 1.57242 1.57242 1.57242 -8.94963
196 1 20.4415 7.8621 11.0069 -8.94966
4 1 4.71726 1.57242 1.57242 -8.94963
5 1 6.28969 -1.71151e-15 -1.64604e-09 -8.94963
6 1 7.86211 1.57242 1.57242 -8.94963
175 1 18.8691 9.43453 9.43452 -8.94966
8 1 11.007 1.57242 1.57242 -8.94963
9 1 12.5794 6.4663e-16 3.61924e-08 -8.94963
10 1 14.1518 1.57242 1.57242 -8.94963
195 1 17.2967 7.86209 11.0069 -8.94996
12 1 17.2966 1.57242 1.57242 -8.94963
13 1 18.8691 3.56503e-16 2.13502e-08 -8.94963
14 1 20.4415 1.57242 1.57242 -8.94963
15 1 22.0139 3.14484 3.56723e-07 -8.94963
16 1 1.57242 4.71726 1.57242 -8.94963
194 1 14.1534 7.86167 11.0065 -8.95266
18 1 4.71727 4.71727 1.57242 -8.94964
174 1 15.7243 9.43453 9.43446 -8.94959
20 1 7.86211 4.71726 1.57242 -8.94964
173 1 12.5803 9.43483 9.43396 -8.94954
22 1 11.007 4.71726 1.57242 -8.94963
193 1 11.024 7.84619 10.9908 -8.8755
24 1 14.1518 4.71726 1.57242 -8.94963
25 1 15.7242 3.14484 8.32882e-07 -8.94963
26 1 17.2966 4.71726 1.57242 -8.94963
27 1 18.8691 3.14484 1.7141e-08 -8.94963
28 1 20.4415 4.71726 1.57242 -8.94963
192 1 7.85673 7.85888 11.0004 -8.9252
30 1 1.57242 7.86211 1.57242 -8.94963
31 1 3.14483 6.28968 1.40062e-05 -8.94962
32 1 4.71726 7.8621 1.57242 -8.94968
172 1 9.4399 9.42795 9.4313 -8.9252
34 1 7.86211 7.8621 1.57242 -8.94964
171 1 6.27269 9.41839 9.41861 -8.8755
36 1 11.007 7.8621 1.57242 -8.94967
37 1 12.5794 6.28968 1.2961e-05 -8.94965
38 1 14.1518 7.86211 1.57242 -8.94964
39 1 15.7242 6.28969 -2.69608e-07 -8.94964
40 1 17.2966 7.86211 1.57242 -8.94963
41 1 18.8691 6.28969 -3.8907e-08 -8.94963
42 1 20.4415 7.86211 1.57242 -8.94963
170 1 3.14327 9.4341 9.43409 -8.95266
169 1 22.0138 9.43451 9.43451 -8.94996
45 1 6.28966 9.4345 0.000112289 -8.94996
46 1 9.43456 9.4345 6.9095e-05 -8.94969
47 1 12.5794 9.43453 3.30543e-06 -8.94965
168 1 18.8691 6.28968 9.43453 -8.94966
167 1 15.7244 6.28961 9.43445 -8.94977
50 1 22.0139 -1.33757e-15 3.14484 -8.94963
51 1 1.57242 1.57242 4.71726 -8.94963
52 1 3.14484 -6.99467e-16 3.14484 -8.94963
53 1 4.71726 1.57242 4.71726 -8.94963
54 1 6.28969 -1.60444e-15 3.14484 -8.94963
55 1 7.86211 1.57242 4.71726 -8.94963
56 1 9.43453 -7.101e-16 3.14484 -8.94963
57 1 11.007 1.57242 4.71726 -8.94963
58 1 12.5794 4.07349e-16 3.14484 -8.94963
59 1 14.1518 1.57242 4.71726 -8.94964
60 1 15.7242 4.96985e-16 3.14484 -8.94963
61 1 17.2966 1.57242 4.71726 -8.94963
62 1 18.8691 -7.48344e-17 3.14484 -8.94963
63 1 20.4415 1.57242 4.71726 -8.94963
64 1 22.0139 3.14484 3.14484 -8.94963
65 1 1.57241 4.71726 4.71726 -8.94957
66 1 3.14484 3.14484 3.14484 -8.94964
67 1 4.71727 4.71727 4.71727 -8.94971
68 1 6.28969 3.14484 3.14484 -8.94963
69 1 7.86211 4.71726 4.71726 -8.94965
70 1 9.43453 3.14484 3.14484 -8.94963
71 1 11.0069 4.71726 4.71726 -8.94963
72 1 12.5794 3.14484 3.14484 -8.94963
73 1 14.1518 4.71726 4.71725 -8.94962
74 1 15.7242 3.14484 3.14484 -8.94963
75 1 17.2966 4.71726 4.71726 -8.94964
76 1 18.8691 3.14484 3.14484 -8.94963
77 1 20.4415 4.71726 4.71726 -8.94963
78 1 4.252e-07 6.28969 3.14484 -8.94964
79 1 1.57242 7.86211 4.71727 -8.94969
80 1 3.14483 6.28968 3.14483 -8.94962
81 1 4.71718 7.86202 4.71709 -8.94975
82 1 6.28969 6.28969 3.14484 -8.94963
83 1 7.86214 7.86207 4.71718 -8.9496
84 1 9.43453 6.28968 3.14484 -8.94963
85 1 11.007 7.86205 4.71712 -8.94987
86 1 12.5794 6.28968 3.14483 -8.94965
87 1 14.1518 7.86211 4.71726 -8.94965
88 1 15.7242 6.28969 3.14484 -8.94964
89 1 17.2966 7.86211 4.71726 -8.94963
90 1 18.8691 6.28969 3.14484 -8.94963
91 1 20.4415 7.86211 4.71726 -8.94963
92 1 22.0139 9.43453 3.14484 -8.94963
93 1 3.14484 9.43453 3.14484 -8.94962
94 1 6.28966 9.4345 3.14473 -8.94996
95 1 9.43456 9.4345 3.14477 -8.94969
96 1 12.5794 9.43453 3.14484 -8.94965
97 1 15.7242 9.43453 3.14484 -8.94963
98 1 18.8691 9.43453 3.14484 -8.94963
99 1 22.0139 1.76713e-15 6.28969 -8.94963
100 1 1.57242 1.57242 7.86211 -8.94964
101 1 3.14484 6.60951e-16 6.28968 -8.94963
102 1 4.71726 1.57241 7.8621 -8.94965
103 1 6.28969 6.76664e-16 6.28969 -8.94963
104 1 7.86211 1.57242 7.8621 -8.94963
105 1 9.43453 -1.49023e-15 6.28969 -8.94964
106 1 11.0069 1.57242 7.86211 -8.94963
107 1 12.5794 -1.12161e-16 6.28969 -8.94964
108 1 14.1518 1.57241 7.8621 -8.94962
109 1 15.7242 1.86304e-15 6.28968 -8.94963
110 1 17.2966 1.57242 7.86211 -8.94964
111 1 18.8691 8.27991e-16 6.28969 -8.94963
112 1 20.4415 1.57242 7.86211 -8.94963
113 1 22.0139 3.14484 6.28969 -8.94964
114 1 1.57242 4.71726 7.86211 -8.94969
115 1 3.14483 3.14483 6.28968 -8.94962
116 1 4.71718 4.71708 7.86202 -8.94968
117 1 6.28969 3.14484 6.28968 -8.94963
118 1 7.86211 4.71719 7.86203 -8.94946
119 1 9.43453 3.14484 6.28968 -8.94965
120 1 11.0069 4.71725 7.86209 -8.95002
121 1 12.5794 3.14485 6.28969 -8.94971
122 1 14.1519 4.71712 7.86196 -8.94879
123 1 15.7242 3.14483 6.28968 -8.94957
124 1 17.2966 4.71726 7.8621 -8.94962
125 1 18.8691 3.14484 6.28969 -8.94963
126 1 20.4415 4.71726 7.86211 -8.94963
127 1 22.0139 6.28968 6.28968 -8.94962
128 1 1.57226 7.86203 7.86203 -8.94977
129 1 3.1447 6.28954 6.28954 -8.94879
130 1 4.71544 7.86024 7.86027 -8.94115
131 1 6.28971 6.28967 6.28967 -8.95002
132 1 7.86245 7.86174 7.86122 -8.95133
133 1 9.43452 6.2896 6.28961 -8.94946
134 1 11.0076 7.86147 7.86043 -8.9518
135 1 12.5795 6.2896 6.2895 -8.94968
136 1 14.1518 7.8621 7.86207 -8.94998
137 1 15.7242 6.28969 6.28969 -8.94969
138 1 17.2966 7.86211 7.8621 -8.94962
139 1 18.8691 6.28969 6.28969 -8.94963
140 1 20.4415 7.8621 7.8621 -8.94966
141 1 -2.83196e-06 9.43453 6.28968 -8.94962
142 1 3.1448 9.43452 6.28965 -8.9498
143 1 6.28918 9.43403 6.28807 -8.95243
144 1 9.43492 9.43415 6.28896 -8.94898
145 1 12.5794 9.43457 6.28962 -8.94977
146 1 15.7242 9.43453 6.28968 -8.94965
147 1 18.8691 9.43453 6.28969 -8.94963
148 1 1.44299e-08 1.7728e-15 9.43453 -8.94963
149 1 3.14484 2.06218e-15 9.43453 -8.94964
150 1 6.28968 1.99988e-15 9.43452 -8.94967
151 1 9.43453 -2.15272e-16 9.43453 -8.94964
152 1 12.5794 -7.35119e-16 9.43452 -8.94968
153 1 15.7242 6.32162e-16 9.43453 -8.94963
154 1 18.8691 1.28738e-15 9.43453 -8.94963
155 1 1.1934e-07 3.14484 9.43453 -8.94963
156 1 3.14484 3.14484 9.43453 -8.94965
157 1 6.28964 3.1447 9.43448 -8.94987
158 1 9.4345 3.14476 9.43449 -8.9496
159 1 12.5795 3.14466 9.43444 -8.94975
160 1 15.7242 3.14485 9.43453 -8.94969
161 1 18.8691 3.14484 9.43453 -8.94963
162 1 22.0139 6.28968 9.43453 -8.94962
163 1 3.1448 6.28965 9.43452 -8.94998
164 1 6.28902 6.28801 9.43389 -8.9518
165 1 9.43419 6.28879 9.43416 -8.95133
166 1 12.5812 6.28785 9.43266 -8.94115
177 1 4.71726 1.57242 11.007 -8.94965
178 1 7.86208 1.57235 11.0069 -8.94969
179 1 11.007 1.57231 11.0069 -8.94996
191 1 4.7163 7.86154 11.0073 -8.94954
181 1 17.2966 1.57242 11.007 -8.94963
182 1 20.4415 1.57242 11.007 -8.94963
184 1 4.71721 4.7172 11.007 -8.94977
185 1 7.86171 4.71653 11.0066 -8.94898
186 1 11.0075 4.71565 11.0065 -8.95243
190 1 1.5723 7.86204 11.007 -8.94959
19 1 6.28969 3.14484 2.53754e-07 -8.94963
49 1 18.8691 9.43453 -1.51195e-09 -8.94963
21 1 9.43453 3.14484 -6.68449e-08 -8.94963
43 1 22.0139 9.43453 -6.67217e-09 -8.94963
176 1 1.57242 1.57242 11.007 -8.94963
343 1 18.8691 9.43453 18.8691 -8.94963
342 1 15.7242 9.43453 18.8691 -8.94965
341 1 12.5794 9.43457 18.8691 -8.94977
340 1 9.43492 9.43415 18.8698 -8.94898
339 1 6.28918 9.43403 18.8707 -8.95243
338 1 3.1448 9.43452 18.8691 -8.9498
183 1 1.57242 4.71726 11.0069 -8.94965
337 1 -2.83196e-06 9.43453 18.8691 -8.94962
336 1 20.4415 7.86211 20.4415 -8.94963
335 1 18.8691 6.28969 18.8691 -8.94963
334 1 17.2966 7.86211 20.4415 -8.94963
188 1 17.2966 4.71726 11.007 -8.94962
189 1 20.4415 4.71726 11.007 -8.94963
333 1 15.7242 6.28969 18.8691 -8.94969
332 1 14.1518 7.86211 20.4415 -8.94965
331 1 12.5795 6.2896 18.8692 -8.94968
330 1 11.007 7.86205 20.4416 -8.94987
329 1 9.43452 6.2896 18.8691 -8.94946
328 1 7.86214 7.86207 20.4416 -8.9496
327 1 6.28971 6.28967 18.8691 -8.95002
197 1 6.74977e-08 1.27786e-15 12.5794 -8.94963
198 1 1.57242 1.57242 14.1518 -8.94963
199 1 3.14484 2.29428e-15 12.5794 -8.94964
200 1 4.71726 1.57242 14.1518 -8.94965
201 1 6.28968 1.47792e-15 12.5794 -8.94963
202 1 7.86208 1.57235 14.1518 -8.94969
203 1 9.43452 3.8582e-16 12.5794 -8.95001
204 1 11.007 1.57231 14.1518 -8.94996
205 1 12.5794 -4.53716e-16 12.5794 -8.94965
206 1 14.1518 1.57242 14.1518 -8.94962
207 1 15.7242 5.23009e-16 12.5794 -8.94964
208 1 17.2966 1.57242 14.1518 -8.94963
209 1 18.8691 1.14848e-15 12.5794 -8.94963
210 1 20.4415 1.57242 14.1518 -8.94963
211 1 22.0139 3.14484 12.5794 -8.94964
212 1 1.57242 4.71726 14.1518 -8.94965
213 1 3.14483 3.14483 12.5794 -8.94961
214 1 4.71721 4.7172 14.1517 -8.94977
215 1 6.28967 3.14481 12.5794 -8.94954
216 1 7.86171 4.71653 14.1522 -8.94898
217 1 9.43449 3.14403 12.5794 -8.95138
218 1 11.0075 4.71565 14.1523 -8.95243
219 1 12.5794 3.14472 12.5794 -8.9495
220 1 14.1518 4.71723 14.1518 -8.9498
221 1 15.7242 3.14484 12.5794 -8.94967
222 1 17.2966 4.71726 14.1518 -8.94962
223 1 18.8691 3.14484 12.5794 -8.94963
224 1 20.4415 4.71726 14.1518 -8.94963
225 1 -6.28257e-06 6.28968 12.5794 -8.94962
226 1 1.5723 7.86204 14.1518 -8.94959
227 1 3.14477 6.28958 12.5794 -8.94913
228 1 4.7163 7.86154 14.1515 -8.94954
229 1 6.28987 6.28953 12.5794 -8.95063
230 1 7.85673 7.85888 14.1584 -8.9252
231 1 9.43529 6.28243 12.5794 -8.98564
232 1 11.024 7.84619 14.1679 -8.8755
233 1 12.5804 6.28861 12.5794 -8.94931
234 1 14.1534 7.86167 14.1522 -8.95266
235 1 15.7243 6.28963 12.5794 -8.9495
236 1 17.2967 7.86209 14.1518 -8.94996
237 1 18.8691 6.28968 12.5794 -8.94964
238 1 20.4415 7.8621 14.1518 -8.94966
239 1 22.0138 9.43449 12.5794 -8.94961
240 1 3.14416 9.43404 12.5794 -8.947
241 1 6.2908 9.43367 12.5794 -8.90383
242 1 9.51249 9.25193 12.5794 -8.06313
243 1 12.5869 9.43298 12.5794 -8.96788
244 1 15.7249 9.43457 12.5794 -8.9514
245 1 18.8691 9.43453 12.5794 -8.94979
246 1 1.44299e-08 1.6783e-15 15.7242 -8.94963
247 1 1.57242 1.57242 17.2966 -8.94964
248 1 3.14484 2.02068e-15 15.7242 -8.94964
249 1 4.71726 1.57241 17.2966 -8.94965
250 1 6.28968 1.77509e-15 15.7242 -8.94967
251 1 7.86211 1.57242 17.2966 -8.94963
252 1 9.43453 -5.44625e-16 15.7242 -8.94964
253 1 11.0069 1.57242 17.2966 -8.94963
254 1 12.5794 -1.07108e-15 15.7242 -8.94968
255 1 14.1518 1.57241 17.2966 -8.94962
256 1 15.7242 7.04657e-16 15.7242 -8.94963
257 1 17.2966 1.57242 17.2966 -8.94964
258 1 18.8691 1.41721e-15 15.7242 -8.94963
259 1 20.4415 1.57242 17.2966 -8.94963
260 1 1.1934e-07 3.14484 15.7242 -8.94963
261 1 1.57242 4.71726 17.2966 -8.94969
262 1 3.14484 3.14484 15.7242 -8.94965
263 1 4.71718 4.71708 17.2967 -8.94968
264 1 6.28964 3.1447 15.7243 -8.94987
265 1 7.86211 4.71719 17.2967 -8.94946
266 1 9.4345 3.14476 15.7243 -8.9496
267 1 11.0069 4.71725 17.2966 -8.95002
268 1 12.5795 3.14466 15.7243 -8.94975
269 1 14.1519 4.71712 17.2968 -8.94879
270 1 15.7242 3.14485 15.7242 -8.94969
271 1 17.2966 4.71726 17.2966 -8.94962
272 1 18.8691 3.14484 15.7242 -8.94963
273 1 20.4415 4.71726 17.2966 -8.94963
274 1 22.0139 6.28968 15.7242 -8.94962
275 1 1.57226 7.86203 17.2967 -8.94977
276 1 3.1448 6.28965 15.7242 -8.94998
277 1 4.71544 7.86024 17.2985 -8.94115
278 1 6.28902 6.28801 15.7249 -8.9518
279 1 7.86245 7.86174 17.2975 -8.95133
280 1 9.43419 6.28879 15.7246 -8.95133
281 1 11.0076 7.86147 17.2983 -8.9518
282 1 12.5812 6.28785 15.7261 -8.94115
283 1 14.1518 7.8621 17.2967 -8.94998
284 1 15.7244 6.28961 15.7243 -8.94977
285 1 17.2966 7.86211 17.2966 -8.94962
286 1 18.8691 6.28968 15.7242 -8.94966
287 1 20.4415 7.8621 17.2966 -8.94966
288 1 22.0138 9.43451 15.7242 -8.94996
289 1 3.14327 9.4341 15.7247 -8.95266
290 1 6.27269 9.41839 15.7401 -8.8755
291 1 9.4399 9.42795 15.7274 -8.9252
292 1 12.5803 9.43483 15.7248 -8.94954
293 1 15.7243 9.43453 15.7243 -8.94959
294 1 18.8691 9.43453 15.7242 -8.94966
295 1 22.0139 1.45137e-15 18.8691 -8.94963
296 1 1.57242 1.57242 20.4415 -8.94963
297 1 3.14484 6.65396e-16 18.8691 -8.94963
298 1 4.71726 1.57242 20.4415 -8.94963
299 1 6.28969 1.27923e-15 18.8691 -8.94963
300 1 7.86211 1.57242 20.4415 -8.94963
301 1 9.43453 -1.7456e-15 18.8691 -8.94964
302 1 11.007 1.57242 20.4415 -8.94963
303 1 12.5794 -2.632e-16 18.8691 -8.94964
304 1 14.1518 1.57242 20.4415 -8.94964
305 1 15.7242 1.88966e-15 18.8691 -8.94963
306 1 17.2966 1.57242 20.4415 -8.94963
307 1 18.8691 6.34057e-16 18.8691 -8.94963
308 1 20.4415 1.57242 20.4415 -8.94963
309 1 22.0139 3.14484 18.8691 -8.94964
310 1 1.57241 4.71726 20.4415 -8.94957
311 1 3.14483 3.14483 18.8691 -8.94962
312 1 4.71727 4.71727 20.4415 -8.94971
313 1 6.28969 3.14484 18.8691 -8.94963
314 1 7.86211 4.71726 20.4415 -8.94965
315 1 9.43453 3.14484 18.8691 -8.94965
316 1 11.0069 4.71726 20.4415 -8.94963
317 1 12.5794 3.14485 18.8691 -8.94971
318 1 14.1518 4.71726 20.4415 -8.94962
319 1 15.7242 3.14483 18.8691 -8.94957
320 1 17.2966 4.71726 20.4415 -8.94964
321 1 18.8691 3.14484 18.8691 -8.94963
322 1 20.4415 4.71726 20.4415 -8.94963
323 1 22.0139 6.28968 18.8691 -8.94962
324 1 1.57242 7.86211 20.4415 -8.94969
325 1 3.1447 6.28954 18.8692 -8.94879
326 1 4.71718 7.86202 20.4417 -8.94975
7 1 9.43453 -6.3625e-16 22.0139 -8.94963
48 1 15.7242 9.43453 22.0139 -8.94963
44 1 3.14484 9.43453 22.0139 -8.94962
33 1 6.28969 6.28969 22.0139 -8.94963
35 1 9.43453 6.28968 22.0139 -8.94963
3 1 3.14484 -1.08857e-15 22.0139 -8.94963
11 1 15.7242 5.12014e-16 22.0139 -8.94963
17 1 3.14484 3.14484 22.0139 -8.94964
23 1 12.5794 3.14484 22.0139 -8.94963
29 1 4.252e-07 6.28969 22.0139 -8.94964
180 1 14.1518 1.57242 11.007 -8.94962
187 1 14.1518 4.71723 11.0069 -8.9498
344 1 1.57242 11.007 1.57242 -8.94964
345 1 4.71726 11.007 1.57242 -8.94965
346 1 7.86211 11.007 1.57242 -8.95001
347 1 11.007 11.007 1.57242 -8.94963
348 1 14.1518 11.007 1.57242 -8.94964
349 1 17.2966 11.007 1.57242 -8.94963
350 1 20.4415 11.007 1.57242 -8.94963
511 1 18.8691 18.8691 9.43453 -8.94963
352 1 1.57242 14.1518 1.57242 -8.94963
510 1 15.7242 18.8691 9.43453 -8.94969
354 1 4.71726 14.1518 1.57242 -8.94968
355 1 6.28966 12.5794 0.000112289 -8.94996
356 1 7.86211 14.1518 1.57242 -8.94964
357 1 9.43456 12.5794 6.9095e-05 -8.94969
358 1 11.007 14.1518 1.57242 -8.94967
359 1 12.5794 12.5794 3.30543e-06 -8.94965
360 1 14.1518 14.1518 1.57242 -8.94964
509 1 12.5795 18.8692 9.43444 -8.94975
362 1 17.2966 14.1518 1.57242 -8.94963
508 1 9.4345 18.8691 9.43449 -8.9496
364 1 20.4415 14.1518 1.57242 -8.94963
539 1 20.4415 20.4415 11.007 -8.94963
366 1 1.57242 17.2966 1.57242 -8.94963
367 1 3.14483 15.7242 1.40062e-05 -8.94962
368 1 4.71727 17.2966 1.57242 -8.94964
507 1 6.28964 18.8692 9.43448 -8.94987
370 1 7.86211 17.2966 1.57242 -8.94964
506 1 3.14484 18.8691 9.43453 -8.94965
372 1 11.007 17.2966 1.57242 -8.94963
373 1 12.5794 15.7242 1.2961e-05 -8.94965
374 1 14.1518 17.2966 1.57242 -8.94963
375 1 15.7242 15.7242 -2.69608e-07 -8.94964
376 1 17.2966 17.2966 1.57242 -8.94963
377 1 18.8691 15.7242 -3.8907e-08 -8.94963
378 1 20.4415 17.2966 1.57242 -8.94963
379 1 22.0139 18.8691 3.56723e-07 -8.94963
380 1 1.57242 20.4415 1.57242 -8.94963
538 1 17.2966 20.4415 11.007 -8.94963
382 1 4.71726 20.4415 1.57242 -8.94963
505 1 1.1934e-07 18.8691 9.43453 -8.94963
384 1 7.86211 20.4415 1.57242 -8.94963
504 1 18.8691 15.7242 9.43453 -8.94966
386 1 11.007 20.4415 1.57242 -8.94963
536 1 11.007 20.4416 11.0069 -8.94996
388 1 14.1518 20.4415 1.57242 -8.94963
389 1 15.7242 18.8691 8.32882e-07 -8.94963
390 1 17.2966 20.4415 1.57242 -8.94963
391 1 18.8691 18.8691 1.7141e-08 -8.94963
392 1 20.4415 20.4415 1.57242 -8.94963
393 1 1.57242 11.007 4.71726 -8.94967
394 1 4.7172 11.007 4.71714 -8.9495
395 1 7.86215 11.007 4.71645 -8.95138
396 1 11.007 11.007 4.71723 -8.94954
397 1 14.1518 11.007 4.71725 -8.94961
398 1 17.2966 11.007 4.71726 -8.94964
399 1 20.4415 11.007 4.71726 -8.94963
400 1 22.0139 12.5794 3.14484 -8.94963
401 1 1.57242 14.1518 4.71727 -8.94969
402 1 3.14484 12.5794 3.14484 -8.94962
403 1 4.71718 14.1519 4.71709 -8.94975
404 1 6.28966 12.5794 3.14473 -8.94996
405 1 7.86214 14.1518 4.71718 -8.9496
406 1 9.43456 12.5794 3.14477 -8.94969
407 1 11.007 14.1518 4.71712 -8.94987
408 1 12.5794 12.5794 3.14484 -8.94965
409 1 14.1518 14.1518 4.71726 -8.94965
410 1 15.7242 12.5794 3.14484 -8.94963
411 1 17.2966 14.1518 4.71726 -8.94963
412 1 18.8691 12.5794 3.14484 -8.94963
413 1 20.4415 14.1518 4.71726 -8.94963
414 1 4.252e-07 15.7242 3.14484 -8.94964
415 1 1.57241 17.2966 4.71726 -8.94957
416 1 3.14483 15.7242 3.14483 -8.94962
417 1 4.71727 17.2966 4.71727 -8.94971
418 1 6.28969 15.7242 3.14484 -8.94963
419 1 7.86211 17.2966 4.71726 -8.94965
420 1 9.43453 15.7242 3.14484 -8.94963
421 1 11.0069 17.2966 4.71726 -8.94963
422 1 12.5794 15.7242 3.14483 -8.94965
423 1 14.1518 17.2966 4.71725 -8.94962
424 1 15.7242 15.7242 3.14484 -8.94964
425 1 17.2966 17.2966 4.71726 -8.94964
426 1 18.8691 15.7242 3.14484 -8.94963
427 1 20.4415 17.2966 4.71726 -8.94963
428 1 22.0139 18.8691 3.14484 -8.94963
429 1 1.57242 20.4415 4.71726 -8.94963
430 1 3.14484 18.8691 3.14484 -8.94964
431 1 4.71726 20.4415 4.71726 -8.94963
432 1 6.28969 18.8691 3.14484 -8.94963
433 1 7.86211 20.4415 4.71726 -8.94963
434 1 9.43453 18.8691 3.14484 -8.94963
435 1 11.007 20.4415 4.71726 -8.94963
436 1 12.5794 18.8691 3.14484 -8.94963
437 1 14.1518 20.4415 4.71726 -8.94964
438 1 15.7242 18.8691 3.14484 -8.94963
439 1 17.2966 20.4415 4.71726 -8.94963
440 1 18.8691 18.8691 3.14484 -8.94963
441 1 20.4415 20.4415 4.71726 -8.94963
442 1 1.57231 11.007 7.86205 -8.9495
443 1 4.71626 11.007 7.86103 -8.94931
444 1 7.86135 11.007 7.85485 -8.98564
445 1 11.0068 11.007 7.86195 -8.95063
446 1 14.1519 11.007 7.862 -8.94913
447 1 17.2966 11.007 7.8621 -8.94962
448 1 20.4415 11.007 7.8621 -8.94964
449 1 -2.83196e-06 12.5794 6.28968 -8.94962
450 1 1.57226 14.1519 7.86203 -8.94977
451 1 3.1448 12.5794 6.28965 -8.9498
452 1 4.71544 14.1537 7.86027 -8.94115
453 1 6.28918 12.5799 6.28807 -8.95243
454 1 7.86245 14.1522 7.86122 -8.95133
455 1 9.43492 12.5798 6.28896 -8.94898
456 1 11.0076 14.1524 7.86043 -8.9518
457 1 12.5794 12.5793 6.28962 -8.94977
458 1 14.1518 14.1518 7.86207 -8.94998
459 1 15.7242 12.5794 6.28968 -8.94965
460 1 17.2966 14.1518 7.8621 -8.94962
461 1 18.8691 12.5794 6.28969 -8.94963
462 1 20.4415 14.1518 7.8621 -8.94966
463 1 22.0139 15.7242 6.28968 -8.94962
464 1 1.57242 17.2966 7.86211 -8.94969
465 1 3.1447 15.7244 6.28954 -8.94879
466 1 4.71718 17.2968 7.86202 -8.94968
467 1 6.28971 15.7242 6.28967 -8.95002
468 1 7.86211 17.2967 7.86203 -8.94946
469 1 9.43452 15.7243 6.28961 -8.94946
470 1 11.0069 17.2967 7.86209 -8.95002
471 1 12.5795 15.7243 6.2895 -8.94968
472 1 14.1519 17.2968 7.86196 -8.94879
473 1 15.7242 15.7242 6.28969 -8.94969
474 1 17.2966 17.2966 7.8621 -8.94962
475 1 18.8691 15.7242 6.28969 -8.94963
476 1 20.4415 17.2966 7.86211 -8.94963
477 1 22.0139 18.8691 6.28969 -8.94964
478 1 1.57242 20.4415 7.86211 -8.94964
479 1 3.14483 18.8691 6.28968 -8.94962
480 1 4.71726 20.4415 7.8621 -8.94965
481 1 6.28969 18.8691 6.28968 -8.94963
482 1 7.86211 20.4415 7.8621 -8.94963
483 1 9.43453 18.8691 6.28968 -8.94965
484 1 11.0069 20.4415 7.86211 -8.94963
485 1 12.5794 18.8691 6.28969 -8.94971
486 1 14.1518 20.4415 7.8621 -8.94962
487 1 15.7242 18.8691 6.28968 -8.94957
488 1 17.2966 20.4415 7.86211 -8.94964
489 1 18.8691 18.8691 6.28969 -8.94963
490 1 20.4415 20.4415 7.86211 -8.94963
491 1 22.0138 12.5794 9.43451 -8.94996
492 1 3.14327 12.5798 9.43409 -8.95266
493 1 6.27269 12.5955 9.41861 -8.8755
494 1 9.4399 12.586 9.4313 -8.9252
495 1 12.5803 12.5791 9.43396 -8.94954
496 1 15.7243 12.5794 9.43446 -8.94959
497 1 18.8691 12.5794 9.43452 -8.94966
498 1 22.0139 15.7242 9.43453 -8.94962
499 1 3.1448 15.7243 9.43452 -8.94998
500 1 6.28902 15.7259 9.43389 -8.9518
501 1 9.43419 15.7251 9.43416 -8.95133
502 1 12.5812 15.726 9.43266 -8.94115
503 1 15.7244 15.7243 9.43445 -8.94977
512 1 1.57177 11.007 11.007 -8.9514
513 1 4.70969 11.007 11.0054 -8.96788
514 1 7.78414 11.007 10.8244 -8.06313
515 1 11.0058 11.007 11.0061 -8.90383
516 1 14.1525 11.007 11.0065 -8.947
517 1 17.2967 11.007 11.0069 -8.94961
518 1 20.4414 11.007 11.007 -8.94979
519 1 1.5723 14.1519 11.007 -8.94959
520 1 4.7163 14.1524 11.0073 -8.94954
521 1 7.85673 14.155 11.0004 -8.9252
522 1 11.024 14.1677 10.9908 -8.8755
523 1 14.1534 14.1522 11.0065 -8.95266
524 1 17.2967 14.1518 11.0069 -8.94996
525 1 20.4415 14.1518 11.0069 -8.94966
527 1 4.71721 17.2967 11.007 -8.94977
528 1 7.86171 17.2974 11.0066 -8.94898
529 1 11.0075 17.2982 11.0065 -8.95243
535 1 7.86208 20.4415 11.0069 -8.94969
534 1 4.71726 20.4415 11.007 -8.94965
351 1 22.0139 12.5794 -6.67217e-09 -8.94963
385 1 9.43453 18.8691 -6.68449e-08 -8.94963
383 1 6.28969 18.8691 2.53754e-07 -8.94963
363 1 18.8691 12.5794 -1.51195e-09 -8.94963
687 3 8.64832 11.007 12.5794 2.60679
686 1 20.4415 20.4415 20.4415 -8.94963
685 1 18.8691 18.8691 18.8691 -8.94963
684 1 17.2966 20.4415 20.4415 -8.94963
683 1 15.7242 18.8691 18.8691 -8.94957
682 1 14.1518 20.4415 20.4415 -8.94964
681 1 12.5794 18.8691 18.8691 -8.94971
680 1 11.007 20.4415 20.4415 -8.94963
679 1 9.43453 18.8691 18.8691 -8.94965
678 1 7.86211 20.4415 20.4415 -8.94963
677 1 6.28969 18.8691 18.8691 -8.94963
676 1 4.71726 20.4415 20.4415 -8.94963
675 1 3.14483 18.8691 18.8691 -8.94962
674 1 1.57242 20.4415 20.4415 -8.94963
526 1 1.57242 17.2966 11.0069 -8.94965
673 1 22.0139 18.8691 18.8691 -8.94964
672 1 20.4415 17.2966 20.4415 -8.94963
671 1 18.8691 15.7242 18.8691 -8.94963
670 1 17.2966 17.2966 20.4415 -8.94964
531 1 17.2966 17.2966 11.007 -8.94962
532 1 20.4415 17.2966 11.007 -8.94963
533 1 1.57242 20.4415 11.007 -8.94963
669 1 15.7242 15.7242 18.8691 -8.94969
668 1 14.1518 17.2966 20.4415 -8.94962
667 1 12.5795 15.7243 18.8692 -8.94968
666 1 11.0069 17.2966 20.4415 -8.94963
665 1 9.43452 15.7243 18.8691 -8.94946
664 1 7.86211 17.2966 20.4415 -8.94965
540 1 1.57177 11.007 14.1518 -8.9514
541 1 4.70969 11.007 14.1533 -8.96788
542 1 7.78414 11.007 14.3344 -8.06313
543 1 11.0058 11.007 14.1526 -8.90383
544 1 14.1525 11.007 14.1523 -8.947
545 1 17.2967 11.007 14.1518 -8.94961
546 1 20.4414 11.007 14.1518 -8.94979
547 1 22.0138 12.5794 12.5794 -8.94961
548 1 1.5723 14.1519 14.1518 -8.94959
549 1 3.14416 12.5799 12.5794 -8.947
550 1 4.7163 14.1524 14.1515 -8.94954
551 1 6.2908 12.5802 12.5794 -8.90383
552 1 7.85673 14.155 14.1584 -8.9252
553 1 9.51249 12.762 12.5794 -8.06313
554 1 11.024 14.1677 14.1679 -8.8755
555 1 12.5869 12.5809 12.5794 -8.96788
556 1 14.1534 14.1522 14.1522 -8.95266
557 1 15.7249 12.5793 12.5794 -8.9514
558 1 17.2967 14.1518 14.1518 -8.94996
559 1 18.8691 12.5794 12.5794 -8.94979
560 1 20.4415 14.1518 14.1518 -8.94966
561 1 -6.28257e-06 15.7242 12.5794 -8.94962
562 1 1.57242 17.2966 14.1518 -8.94965
563 1 3.14477 15.7243 12.5794 -8.94913
564 1 4.71721 17.2967 14.1517 -8.94977
565 1 6.28987 15.7244 12.5794 -8.95063
566 1 7.86171 17.2974 14.1522 -8.94898
567 1 9.43529 15.7315 12.5794 -8.98564
568 1 11.0075 17.2982 14.1523 -8.95243
569 1 12.5804 15.7253 12.5794 -8.94931
570 1 14.1518 17.2967 14.1518 -8.9498
571 1 15.7243 15.7243 12.5794 -8.9495
572 1 17.2966 17.2966 14.1518 -8.94962
573 1 18.8691 15.7242 12.5794 -8.94964
574 1 20.4415 17.2966 14.1518 -8.94963
575 1 22.0139 18.8691 12.5794 -8.94964
576 1 1.57242 20.4415 14.1518 -8.94963
577 1 3.14483 18.8691 12.5794 -8.94961
578 1 4.71726 20.4415 14.1518 -8.94965
579 1 6.28967 18.8691 12.5794 -8.94954
580 1 7.86208 20.4415 14.1518 -8.94969
581 1 9.43449 18.8699 12.5794 -8.95138
582 1 11.007 20.4416 14.1518 -8.94996
583 1 12.5794 18.8692 12.5794 -8.9495
584 1 14.1518 20.4415 14.1518 -8.94962
585 1 15.7242 18.8691 12.5794 -8.94967
586 1 17.2966 20.4415 14.1518 -8.94963
587 1 18.8691 18.8691 12.5794 -8.94963
588 1 20.4415 20.4415 14.1518 -8.94963
589 1 1.57231 11.007 17.2967 -8.9495
590 1 4.71626 11.007 17.2977 -8.94931
591 1 7.86135 11.007 17.3039 -8.98564
592 1 11.0068 11.007 17.2968 -8.95063
593 1 14.1519 11.007 17.2967 -8.94913
594 1 17.2966 11.007 17.2966 -8.94962
595 1 20.4415 11.007 17.2966 -8.94964
596 1 22.0138 12.5794 15.7242 -8.94996
597 1 1.57226 14.1519 17.2967 -8.94977
598 1 3.14327 12.5798 15.7247 -8.95266
599 1 4.71544 14.1537 17.2985 -8.94115
600 1 6.27269 12.5955 15.7401 -8.8755
601 1 7.86245 14.1522 17.2975 -8.95133
602 1 9.4399 12.586 15.7274 -8.9252
603 1 11.0076 14.1524 17.2983 -8.9518
604 1 12.5803 12.5791 15.7248 -8.94954
605 1 14.1518 14.1518 17.2967 -8.94998
606 1 15.7243 12.5794 15.7243 -8.94959
607 1 17.2966 14.1518 17.2966 -8.94962
608 1 18.8691 12.5794 15.7242 -8.94966
609 1 20.4415 14.1518 17.2966 -8.94966
610 1 22.0139 15.7242 15.7242 -8.94962
611 1 1.57242 17.2966 17.2966 -8.94969
612 1 3.1448 15.7243 15.7242 -8.94998
613 1 4.71718 17.2968 17.2967 -8.94968
614 1 6.28902 15.7259 15.7249 -8.9518
615 1 7.86211 17.2967 17.2967 -8.94946
616 1 9.43419 15.7251 15.7246 -8.95133
617 1 11.0069 17.2967 17.2966 -8.95002
618 1 12.5812 15.726 15.7261 -8.94115
619 1 14.1519 17.2968 17.2968 -8.94879
620 1 15.7244 15.7243 15.7243 -8.94977
621 1 17.2966 17.2966 17.2966 -8.94962
622 1 18.8691 15.7242 15.7242 -8.94966
623 1 20.4415 17.2966 17.2966 -8.94963
624 1 1.1934e-07 18.8691 15.7242 -8.94963
625 1 1.57242 20.4415 17.2966 -8.94964
626 1 3.14484 18.8691 15.7242 -8.94965
627 1 4.71726 20.4415 17.2966 -8.94965
628 1 6.28964 18.8692 15.7243 -8.94987
629 1 7.86211 20.4415 17.2966 -8.94963
630 1 9.4345 18.8691 15.7243 -8.9496
631 1 11.0069 20.4415 17.2966 -8.94963
632 1 12.5795 18.8692 15.7243 -8.94975
633 1 14.1518 20.4415 17.2966 -8.94962
634 1 15.7242 18.8691 15.7242 -8.94969
635 1 17.2966 20.4415 17.2966 -8.94964
636 1 18.8691 18.8691 15.7242 -8.94963
637 1 20.4415 20.4415 17.2966 -8.94963
638 1 1.57242 11.007 20.4415 -8.94967
639 1 4.7172 11.007 20.4416 -8.9495
640 1 7.86215 11.007 20.4423 -8.95138
641 1 11.007 11.007 20.4415 -8.94954
642 1 14.1518 11.007 20.4415 -8.94961
643 1 17.2966 11.007 20.4415 -8.94964
644 1 20.4415 11.007 20.4415 -8.94963
645 1 -2.83196e-06 12.5794 18.8691 -8.94962
646 1 1.57242 14.1518 20.4415 -8.94969
647 1 3.1448 12.5794 18.8691 -8.9498
648 1 4.71718 14.1519 20.4417 -8.94975
649 1 6.28918 12.5799 18.8707 -8.95243
650 1 7.86214 14.1518 20.4416 -8.9496
651 1 9.43492 12.5798 18.8698 -8.94898
652 1 11.007 14.1518 20.4416 -8.94987
653 1 12.5794 12.5793 18.8691 -8.94977
654 1 14.1518 14.1518 20.4415 -8.94965
655 1 15.7242 12.5794 18.8691 -8.94965
656 1 17.2966 14.1518 20.4415 -8.94963
657 1 18.8691 12.5794 18.8691 -8.94963
658 1 20.4415 14.1518 20.4415 -8.94963
659 1 22.0139 15.7242 18.8691 -8.94962
660 1 1.57241 17.2966 20.4415 -8.94957
661 1 3.1447 15.7244 18.8692 -8.94879
662 1 4.71727 17.2966 20.4415 -8.94971
663 1 6.28971 15.7242 18.8691 -8.95002
371 1 9.43453 15.7242 22.0139 -8.94963
353 1 3.14484 12.5794 22.0139 -8.94962
361 1 15.7242 12.5794 22.0139 -8.94963
369 1 6.28969 15.7242 22.0139 -8.94963
365 1 4.252e-07 15.7242 22.0139 -8.94964
381 1 3.14484 18.8691 22.0139 -8.94964
387 1 12.5794 18.8691 22.0139 -8.94963
537 1 14.1518 20.4415 11.007 -8.94962
530 1 14.1518 17.2967 11.0069 -8.9498
