ITEM: TIMESTEP
73
ITEM: NUMBER OF ATOMS
687
ITEM: BOX BOUNDS pp pp pp
0.0000000000000000e+00 2.2013900999999997e+01
0.0000000000000000e+00 2.2013900999999997e+01
0.0000000000000000e+00 2.2013900999999997e+01
ITEM: ATOMS id type x y z c_pot
1 1 22.0138 5.91486e-16 9.88075e-05 -8.94951
2 1 1.57234 1.57232 1.57242 -8.94967
196 1 20.4414 7.86186 11.007 -8.94989
4 1 4.71722 1.57231 1.57242 -8.94959
5 1 6.28965 -1.0861e-15 0.000115824 -8.9496
6 1 7.8621 1.5723 1.57242 -8.94961
175 1 18.8691 9.43456 9.43428 -8.94989
8 1 11.007 1.57231 1.57242 -8.9496
9 1 12.5794 2.11124e-16 0.000108935 -8.94959
10 1 14.1518 1.57233 1.57242 -8.94961
195 1 17.2987 7.86188 11.0067 -8.95165
12 1 17.2967 1.57232 1.57242 -8.94951
13 1 18.8691 1.89398e-15 6.09191e-05 -8.94945
14 1 20.4414 1.57236 1.57242 -8.94945
15 1 22.0136 3.14459 0.000162779 -8.94929
16 1 1.57205 4.71688 1.57242 -8.94956
194 1 14.1613 7.85886 11.0046 -8.9581
18 1 4.71717 4.71692 1.57242 -8.9496
174 1 15.7256 9.4352 9.43397 -8.94965
20 1 7.86214 4.71689 1.57242 -8.94957
173 1 12.5824 9.43726 9.43394 -8.95265
22 1 11.0071 4.71693 1.57242 -8.94952
193 1 11.047 7.82609 10.9739 -8.85384
24 1 14.1521 4.71703 1.57242 -8.94993
25 1 15.7245 3.14459 0.000286012 -8.94951
26 1 17.2967 4.71725 1.57242 -8.9497
27 1 18.8691 3.14477 9.64663e-05 -8.94963
28 1 20.4414 4.71719 1.57242 -8.94962
192 1 7.84792 7.85507 10.9847 -8.9054
30 1 1.57199 7.8619 1.57242 -8.94946
31 1 3.14419 6.289 0.000822799 -8.94995
32 1 4.71696 7.86174 1.57242 -8.95054
172 1 9.44871 9.41224 9.42749 -8.9054
34 1 7.86233 7.86179 1.57242 -8.95013
171 1 6.24967 9.40149 9.39851 -8.85384
36 1 11.0071 7.86205 1.57242 -8.9503
37 1 12.5797 6.28941 0.00072526 -8.95048
38 1 14.152 7.86214 1.57242 -8.94955
39 1 15.7244 6.2897 0.000167372 -8.9497
40 1 17.2967 7.86208 1.57242 -8.94958
41 1 18.869 6.28964 9.1631e-05 -8.94958
42 1 20.4414 7.86206 1.57242 -8.94961
170 1 3.13533 9.43219 9.43128 -8.9581
169 1 22.0118 9.43429 9.4343 -8.95165
45 1 6.28961 9.43443 0.00143291 -8.95134
46 1 9.43471 9.43461 0.000536301 -8.94948
47 1 12.5796 9.43463 0.000302715 -8.94941
168 1 18.8697 6.28937 9.43427 -8.95013
167 1 15.7278 6.28806 9.43283 -8.95082
50 1 22.0138 5.87085e-16 3.14474 -8.94951
51 1 1.57216 1.57214 4.71701 -8.94951
52 1 3.14479 -6.42637e-16 3.14476 -8.94961
53 1 4.71716 1.57218 4.71701 -8.94953
54 1 6.28965 -1.20332e-15 3.14473 -8.9496
55 1 7.86207 1.57217 4.71695 -8.94957
56 1 9.43454 -1.38005e-15 3.14472 -8.94961
57 1 11.007 1.57219 4.71696 -8.94954
58 1 12.5794 2.70897e-16 3.14473 -8.94959
59 1 14.152 1.57221 4.71697 -8.94968
60 1 15.7243 1.32854e-16 3.14474 -8.94967
61 1 17.2969 1.57226 4.71701 -8.94929
62 1 18.8691 1.71665e-15 3.14478 -8.94945
63 1 20.4415 1.57233 4.71719 -8.94963
64 1 22.0136 3.14459 3.14468 -8.94929
65 1 1.57147 4.71631 4.71641 -8.94833
66 1 3.14469 3.14455 3.14463 -8.94968
67 1 4.71689 4.71642 4.71639 -8.9497
68 1 6.28964 3.14454 3.14461 -8.94954
69 1 7.86209 4.71648 4.71636 -8.94942
70 1 9.43456 3.14453 3.14459 -8.94957
71 1 11.0072 4.71658 4.71631 -8.94919
72 1 12.5795 3.14459 3.1446 -8.94953
73 1 14.1526 4.7165 4.71603 -8.94946
74 1 15.7245 3.14459 3.14456 -8.94951
75 1 17.2968 4.71715 4.71699 -8.94982
76 1 18.8691 3.14477 3.14475 -8.94963
77 1 20.4412 4.71704 4.71703 -8.94957
78 1 -0.000317681 6.2895 3.14463 -8.94959
79 1 1.57146 7.86162 4.71636 -8.94932
80 1 3.14419 6.289 3.14402 -8.94995
81 1 4.71591 7.86077 4.7142 -8.95145
82 1 6.28965 6.28915 3.14411 -8.94961
83 1 7.86242 7.86125 4.71495 -8.95037
84 1 9.43477 6.28915 3.14412 -8.94958
85 1 11.0073 7.86189 4.71533 -8.95229
86 1 12.5797 6.28941 3.14412 -8.95048
87 1 14.1521 7.86232 4.71676 -8.94963
88 1 15.7244 6.2897 3.14468 -8.9497
89 1 17.2968 7.86208 4.71701 -8.94947
90 1 18.869 6.28964 3.14475 -8.94958
91 1 20.4412 7.86199 4.71699 -8.94951
92 1 22.0135 9.43446 3.14461 -8.94957
93 1 3.14408 9.43426 3.14397 -8.94939
94 1 6.28961 9.43443 3.14341 -8.95134
95 1 9.43471 9.43461 3.14431 -8.94948
96 1 12.5796 9.43463 3.14454 -8.94941
97 1 15.7244 9.43452 3.14463 -8.94958
98 1 18.869 9.43451 3.14473 -8.94961
99 1 22.0138 1.82535e-15 6.28967 -8.9497
100 1 1.57227 1.57225 7.86212 -8.9497
101 1 3.14458 1.53004e-15 6.28946 -8.94993
102 1 4.71691 1.5717 7.86184 -8.95048
103 1 6.28953 9.14908e-16 6.28935 -8.94952
104 1 7.86186 1.5717 7.86157 -8.94958
105 1 9.4345 1.34654e-16 6.28931 -8.94957
106 1 11.007 1.57169 7.86157 -8.94961
107 1 12.5795 -9.46052e-17 6.28934 -8.9496
108 1 14.1524 1.5716 7.86142 -8.94995
109 1 15.7246 7.75802e-16 6.28931 -8.94956
110 1 17.297 1.57221 7.86192 -8.94959
111 1 18.8692 1.75046e-15 6.28961 -8.94962
112 1 20.4415 1.57233 7.86206 -8.94958
113 1 22.0137 3.14457 6.28957 -8.94982
114 1 1.5717 4.71656 7.86196 -8.95029
115 1 3.14402 3.14361 6.28892 -8.94946
116 1 4.71493 4.71339 7.85996 -8.94996
117 1 6.28945 3.14389 6.289 -8.94919
118 1 7.86165 4.71465 7.86019 -8.94785
119 1 9.43454 3.14394 6.2889 -8.94942
120 1 11.0077 4.71452 7.86005 -8.94924
121 1 12.5797 3.14397 6.28884 -8.9497
122 1 14.1553 4.71391 7.85862 -8.94466
123 1 15.7252 3.14399 6.28873 -8.94833
124 1 17.2978 4.71661 7.86142 -8.94966
125 1 18.8693 3.14461 6.28946 -8.94957
126 1 20.4415 4.71701 7.86198 -8.94979
127 1 22.0128 6.28899 6.28903 -8.94966
128 1 1.56887 7.8604 7.86048 -8.95082
129 1 3.14135 6.2862 6.28633 -8.94466
130 1 4.70535 7.85082 7.85055 -8.93001
131 1 6.2889 6.28762 6.28694 -8.94924
132 1 7.8617 7.85777 7.85434 -8.95096
133 1 9.43499 6.28777 6.28707 -8.94785
134 1 11.0125 7.85642 7.85242 -8.95363
135 1 12.5817 6.28754 6.28581 -8.94996
136 1 14.1536 7.8623 7.8608 -8.95149
137 1 15.7249 6.28954 6.28898 -8.95029
138 1 17.2972 7.86218 7.86172 -8.94973
139 1 18.869 6.28956 6.28943 -8.94979
140 1 20.4408 7.86185 7.8618 -8.95013
141 1 -0.00113994 9.43428 6.28897 -8.94932
142 1 3.14188 9.43343 6.28674 -8.94778
143 1 6.2872 9.4333 6.28212 -8.95905
144 1 9.43415 9.4346 6.28811 -8.95156
145 1 12.5797 9.43532 6.28899 -8.94905
146 1 15.7248 9.43456 6.28902 -8.94906
147 1 18.869 9.43447 6.28934 -8.94957
148 1 -8.72885e-05 1.91493e-15 9.4345 -8.94958
149 1 3.14465 1.84726e-15 9.43456 -8.94955
150 1 6.2895 1.77862e-15 9.43447 -8.9503
151 1 9.43431 3.17709e-16 9.43421 -8.95013
152 1 12.5797 1.76217e-17 9.43417 -8.95054
153 1 15.7246 6.3705e-16 9.43432 -8.94946
154 1 18.8692 1.61129e-15 9.43448 -8.94961
155 1 -0.000149737 3.14459 9.4345 -8.94947
156 1 3.14454 3.14433 9.43474 -8.94963
157 1 6.28932 3.14291 9.43432 -8.95229
158 1 9.43421 3.14253 9.43367 -8.95037
159 1 12.5807 3.14177 9.43319 -8.95145
160 1 15.7252 3.14394 9.43404 -8.94932
161 1 18.8693 3.14457 9.43441 -8.94951
162 1 22.0134 6.2893 9.4346 -8.94973
163 1 3.14304 6.28838 9.43472 -8.95149
164 1 6.2841 6.27999 9.42884 -8.95363
165 1 9.43493 6.28192 9.4302 -8.95096
166 1 12.5913 6.27813 9.42324 -8.93001
177 1 4.71699 1.57212 11.0071 -8.94941
178 1 7.86193 1.57189 11.007 -8.94948
179 1 11.007 1.57099 11.0069 -8.95134
191 1 4.71419 7.86152 11.0097 -8.95265
181 1 17.297 1.57219 11.0069 -8.94957
182 1 20.4415 1.57231 11.0069 -8.94961
184 1 4.71691 4.71657 11.0077 -8.94905
185 1 7.86248 4.71569 11.007 -8.95156
186 1 11.0094 4.7097 11.0057 -8.95905
190 1 1.57106 7.86154 11.0076 -8.94965
19 1 6.28964 3.14454 0.000232388 -8.94954
49 1 18.869 9.43451 0.000114062 -8.94961
21 1 9.43456 3.14453 0.000250419 -8.94957
43 1 22.0135 9.43446 0.000235952 -8.94957
176 1 1.57219 1.57221 11.0069 -8.94958
343 1 18.869 9.43447 18.8694 -8.94957
342 1 15.7248 9.43456 18.8697 -8.94906
341 1 12.5797 9.43532 18.8698 -8.94905
340 1 9.43415 9.4346 18.8706 -8.95156
339 1 6.2872 9.4333 18.8766 -8.95905
338 1 3.14188 9.43343 18.872 -8.94778
183 1 1.57183 4.7166 11.007 -8.94906
337 1 -0.00113994 9.43428 18.8698 -8.94932
336 1 20.4412 7.86199 20.4418 -8.94951
335 1 18.869 6.28956 18.8693 -8.94979
334 1 17.2968 7.86208 20.4417 -8.94947
188 1 17.2978 4.71655 11.0067 -8.94932
189 1 20.4415 4.71692 11.0069 -8.94957
333 1 15.7249 6.28954 18.8698 -8.95029
332 1 14.1521 7.86232 20.442 -8.94963
331 1 12.5817 6.28754 18.8729 -8.94996
330 1 11.0073 7.86189 20.4434 -8.95229
329 1 9.43499 6.28777 18.8717 -8.94785
328 1 7.86242 7.86125 20.4438 -8.95037
327 1 6.2889 6.28762 18.8718 -8.94924
197 1 -9.75048e-05 1.97373e-15 12.5794 -8.94961
198 1 1.57219 1.57221 14.1518 -8.94958
199 1 3.14459 2.00603e-15 12.5794 -8.94968
200 1 4.71699 1.57212 14.1517 -8.94941
201 1 6.28941 1.64065e-15 12.5794 -8.94928
202 1 7.86193 1.57189 14.1517 -8.94948
203 1 9.43428 8.76758e-16 12.5794 -8.9488
204 1 11.007 1.57099 14.1519 -8.95134
205 1 12.5799 -9.70917e-16 12.5794 -8.95021
206 1 14.1526 1.57155 14.1521 -8.94939
207 1 15.7247 2.3312e-16 12.5794 -8.94952
208 1 17.297 1.57219 14.1519 -8.94957
209 1 18.8692 1.69475e-15 12.5794 -8.94961
210 1 20.4415 1.57231 14.1518 -8.94961
211 1 22.0137 3.14454 12.5794 -8.94961
212 1 1.57183 4.7166 14.1518 -8.94906
213 1 3.14437 3.1442 12.5794 -8.94966
214 1 4.71691 4.71657 14.151 -8.94905
215 1 6.28944 3.14458 12.5794 -8.94832
216 1 7.86248 4.71569 14.1517 -8.95156
217 1 9.43445 3.14384 12.5794 -8.94664
218 1 11.0094 4.7097 14.153 -8.95905
219 1 12.5812 3.14162 12.5794 -8.94948
220 1 14.1548 4.71432 14.1529 -8.94778
221 1 15.7252 3.14391 12.5794 -8.94951
222 1 17.2978 4.71655 14.152 -8.94932
223 1 18.8693 3.14455 12.5794 -8.94956
224 1 20.4415 4.71692 14.1519 -8.94957
225 1 -0.000564591 6.28905 12.5794 -8.94952
226 1 1.57106 7.86154 14.1511 -8.94965
227 1 3.14344 6.28812 12.5794 -8.94661
228 1 4.71419 7.86152 14.1491 -8.95265
229 1 6.29168 6.29183 12.5794 -8.9455
230 1 7.84792 7.85507 14.1741 -8.9054
231 1 9.4393 6.29278 12.5794 -9.00321
232 1 11.047 7.82609 14.1848 -8.85384
233 1 12.5889 6.2806 12.5794 -8.94236
234 1 14.1613 7.85886 14.1541 -8.9581
235 1 15.7278 6.28786 12.5794 -8.94905
236 1 17.2987 7.86188 14.152 -8.95165
237 1 18.8698 6.28925 12.5794 -8.94989
238 1 20.4414 7.86186 14.1518 -8.94989
239 1 22.0134 9.4342 12.5794 -8.94791
240 1 3.14655 9.43483 12.5794 -8.94004
241 1 6.31102 9.44423 12.5794 -8.90133
242 1 9.5136 9.20376 12.5794 -8.11817
243 1 12.5879 9.42754 12.5794 -8.97298
244 1 15.7267 9.435 12.5794 -8.95126
245 1 18.8696 9.43461 12.5794 -8.9496
246 1 -8.72885e-05 1.93024e-15 15.7242 -8.94958
247 1 1.57227 1.57225 17.2966 -8.9497
248 1 3.14465 1.8323e-15 15.7242 -8.94955
249 1 4.71691 1.5717 17.2969 -8.95048
250 1 6.2895 1.91239e-15 15.7243 -8.9503
251 1 7.86186 1.5717 17.2972 -8.94958
252 1 9.43431 9.10978e-16 15.7245 -8.95013
253 1 11.007 1.57169 17.2972 -8.94961
254 1 12.5797 -3.53208e-17 15.7246 -8.95054
255 1 14.1524 1.5716 17.2973 -8.94995
256 1 15.7246 9.12657e-16 15.7244 -8.94946
257 1 17.297 1.57221 17.2968 -8.94959
258 1 18.8692 1.49544e-15 15.7243 -8.94961
259 1 20.4415 1.57233 17.2967 -8.94958
260 1 -0.000149737 3.14459 15.7242 -8.94947
261 1 1.5717 4.71656 17.2968 -8.95029
262 1 3.14454 3.14433 15.724 -8.94963
263 1 4.71493 4.71339 17.2988 -8.94996
264 1 6.28932 3.14291 15.7244 -8.95229
265 1 7.86165 4.71465 17.2986 -8.94785
266 1 9.43421 3.14253 15.7251 -8.95037
267 1 11.0077 4.71452 17.2987 -8.94924
268 1 12.5807 3.14177 15.7256 -8.95145
269 1 14.1553 4.71391 17.3001 -8.94466
270 1 15.7252 3.14394 15.7247 -8.94932
271 1 17.2978 4.71661 17.2973 -8.94966
272 1 18.8693 3.14457 15.7243 -8.94951
273 1 20.4415 4.71701 17.2968 -8.94979
274 1 22.0134 6.2893 15.7241 -8.94973
275 1 1.56887 7.8604 17.2983 -8.95082
276 1 3.14304 6.28838 15.724 -8.95149
277 1 4.70535 7.85082 17.3082 -8.93001
278 1 6.2841 6.27999 15.7299 -8.95363
279 1 7.8617 7.85777 17.3044 -8.95096
280 1 9.43493 6.28192 15.7285 -8.95096
281 1 11.0125 7.85642 17.3063 -8.95363
282 1 12.5913 6.27813 15.7355 -8.93001
283 1 14.1536 7.8623 17.2979 -8.95149
284 1 15.7278 6.28806 15.7259 -8.95082
285 1 17.2972 7.86218 17.297 -8.94973
286 1 18.8697 6.28937 15.7245 -8.95013
287 1 20.4408 7.86185 17.2969 -8.95013
288 1 22.0118 9.43429 15.7244 -8.95165
289 1 3.13533 9.43219 15.7275 -8.9581
290 1 6.24967 9.40149 15.7602 -8.85384
291 1 9.44871 9.41224 15.7312 -8.9054
292 1 12.5824 9.43726 15.7248 -8.95265
293 1 15.7256 9.4352 15.7248 -8.94965
294 1 18.8691 9.43456 15.7245 -8.94989
295 1 22.0138 1.28037e-15 18.8691 -8.9497
296 1 1.57216 1.57214 20.4417 -8.94951
297 1 3.14458 1.19978e-15 18.8693 -8.94993
298 1 4.71716 1.57218 20.4417 -8.94953
299 1 6.28953 1.40604e-15 18.8694 -8.94952
300 1 7.86207 1.57217 20.4418 -8.94957
301 1 9.4345 9.41269e-16 18.8694 -8.94957
302 1 11.007 1.57219 20.4418 -8.94954
303 1 12.5795 5.1378e-16 18.8694 -8.9496
304 1 14.152 1.57221 20.4418 -8.94968
305 1 15.7246 1.44738e-15 18.8694 -8.94956
306 1 17.2969 1.57226 20.4417 -8.94929
307 1 18.8692 1.76436e-15 18.8691 -8.94962
308 1 20.4415 1.57233 20.4416 -8.94963
309 1 22.0137 3.14457 18.8692 -8.94982
310 1 1.57147 4.71631 20.4423 -8.94833
311 1 3.14402 3.14361 18.8698 -8.94946
312 1 4.71689 4.71642 20.4424 -8.9497
313 1 6.28945 3.14389 18.8697 -8.94919
314 1 7.86209 4.71648 20.4424 -8.94942
315 1 9.43454 3.14394 18.8698 -8.94942
316 1 11.0072 4.71658 20.4424 -8.94919
317 1 12.5797 3.14397 18.8699 -8.9497
318 1 14.1526 4.7165 20.4427 -8.94946
319 1 15.7252 3.14399 18.87 -8.94833
320 1 17.2968 4.71715 20.4418 -8.94982
321 1 18.8693 3.14461 18.8693 -8.94957
322 1 20.4412 4.71704 20.4417 -8.94957
323 1 22.0128 6.28899 18.8697 -8.94966
324 1 1.57146 7.86162 20.4424 -8.94932
325 1 3.14135 6.2862 18.8724 -8.94466
326 1 4.71591 7.86077 20.4445 -8.95145
7 1 9.43454 -9.98814e-16 22.014 -8.94961
48 1 15.7244 9.43452 22.0141 -8.94958
44 1 3.14408 9.43426 22.0148 -8.94939
33 1 6.28965 6.28915 22.0146 -8.94961
35 1 9.43477 6.28915 22.0146 -8.94958
3 1 3.14479 -4.35032e-16 22.014 -8.94961
11 1 15.7243 1.83904e-16 22.014 -8.94967
17 1 3.14469 3.14455 22.0141 -8.94968
23 1 12.5795 3.14459 22.0141 -8.94953
29 1 -0.000317681 6.2895 22.0141 -8.94959
180 1 14.1526 1.57155 11.0067 -8.94939
187 1 14.1548 4.71432 11.0058 -8.94778
344 1 1.57196 11.007 1.57242 -8.94952
345 1 4.71674 11.007 1.57242 -8.95021
346 1 7.86236 11.007 1.57242 -8.9488
347 1 11.0072 11.007 1.57242 -8.94928
348 1 14.1521 11.007 1.57242 -8.94968
349 1 17.2967 11.007 1.57242 -8.94961
350 1 20.4413 11.007 1.57242 -8.94961
511 1 18.8693 18.8693 9.43441 -8.94951
352 1 1.57199 14.152 1.57242 -8.94946
510 1 15.7252 18.87 9.43404 -8.94932
354 1 4.71696 14.1522 1.57242 -8.95054
355 1 6.28961 12.5795 0.00143291 -8.95134
356 1 7.86233 14.1521 1.57242 -8.95013
357 1 9.43471 12.5793 0.000536301 -8.94948
358 1 11.0071 14.1519 1.57242 -8.9503
359 1 12.5796 12.5793 0.000302715 -8.94941
360 1 14.152 14.1518 1.57242 -8.94955
509 1 12.5807 18.8721 9.43319 -8.95145
362 1 17.2967 14.1518 1.57242 -8.94958
508 1 9.43421 18.8714 9.43367 -8.95037
364 1 20.4414 14.1518 1.57242 -8.94961
539 1 20.4415 20.4416 11.0069 -8.94961
366 1 1.57205 17.297 1.57242 -8.94956
367 1 3.14419 15.7249 0.000822799 -8.94995
368 1 4.71717 17.297 1.57242 -8.9496
507 1 6.28932 18.871 9.43432 -8.95229
370 1 7.86214 17.297 1.57242 -8.94957
506 1 3.14454 18.8696 9.43474 -8.94963
372 1 11.0071 17.297 1.57242 -8.94952
373 1 12.5797 15.7245 0.00072526 -8.95048
374 1 14.1521 17.2969 1.57242 -8.94993
375 1 15.7244 15.7242 0.000167372 -8.9497
376 1 17.2967 17.2967 1.57242 -8.9497
377 1 18.869 15.7243 9.1631e-05 -8.94958
378 1 20.4414 17.2967 1.57242 -8.94962
379 1 22.0136 18.8693 0.000162779 -8.94929
380 1 1.57234 20.4416 1.57242 -8.94967
538 1 17.297 20.4417 11.0069 -8.94957
382 1 4.71722 20.4416 1.57242 -8.94959
505 1 -0.000149737 18.8693 9.4345 -8.94947
384 1 7.8621 20.4416 1.57242 -8.94961
504 1 18.8697 15.7245 9.43427 -8.95013
386 1 11.007 20.4416 1.57242 -8.9496
536 1 11.007 20.4429 11.0069 -8.95134
388 1 14.1518 20.4416 1.57242 -8.94961
389 1 15.7245 18.8693 0.000286012 -8.94951
390 1 17.2967 20.4416 1.57242 -8.94951
391 1 18.8691 18.8691 9.64663e-05 -8.94963
392 1 20.4414 20.4415 1.57242 -8.94945
393 1 1.57141 11.007 4.71634 -8.94951
394 1 4.71547 11.007 4.71405 -8.94948
395 1 7.86218 11.007 4.71627 -8.94664
396 1 11.0072 11.007 4.717 -8.94832
397 1 14.1523 11.007 4.71662 -8.94966
398 1 17.2968 11.007 4.71696 -8.94961
399 1 20.4412 11.007 4.71697 -8.94956
400 1 22.0135 12.5794 3.14461 -8.94957
401 1 1.57146 14.1523 4.71636 -8.94932
402 1 3.14408 12.5796 3.14397 -8.94939
403 1 4.71591 14.1531 4.7142 -8.95145
404 1 6.28961 12.5795 3.14341 -8.95134
405 1 7.86242 14.1527 4.71495 -8.95037
406 1 9.43471 12.5793 3.14431 -8.94948
407 1 11.0073 14.152 4.71533 -8.95229
408 1 12.5796 12.5793 3.14454 -8.94941
409 1 14.1521 14.1516 4.71676 -8.94963
410 1 15.7244 12.5794 3.14463 -8.94958
411 1 17.2968 14.1518 4.71701 -8.94947
412 1 18.869 12.5794 3.14473 -8.94961
413 1 20.4412 14.1519 4.71699 -8.94951
414 1 -0.000317681 15.7244 3.14463 -8.94959
415 1 1.57147 17.2976 4.71641 -8.94833
416 1 3.14419 15.7249 3.14402 -8.94995
417 1 4.71689 17.2975 4.71639 -8.9497
418 1 6.28965 15.7247 3.14411 -8.94961
419 1 7.86209 17.2974 4.71636 -8.94942
420 1 9.43477 15.7248 3.14412 -8.94958
421 1 11.0072 17.2973 4.71631 -8.94919
422 1 12.5797 15.7245 3.14412 -8.95048
423 1 14.1526 17.2974 4.71603 -8.94946
424 1 15.7244 15.7242 3.14468 -8.9497
425 1 17.2968 17.2968 4.71699 -8.94982
426 1 18.869 15.7243 3.14475 -8.94958
427 1 20.4412 17.2969 4.71703 -8.94957
428 1 22.0136 18.8693 3.14468 -8.94929
429 1 1.57216 20.4418 4.71701 -8.94951
430 1 3.14469 18.8694 3.14463 -8.94968
431 1 4.71716 20.4417 4.71701 -8.94953
432 1 6.28964 18.8694 3.14461 -8.94954
433 1 7.86207 20.4417 4.71695 -8.94957
434 1 9.43456 18.8694 3.14459 -8.94957
435 1 11.007 20.4417 4.71696 -8.94954
436 1 12.5795 18.8693 3.1446 -8.94953
437 1 14.152 20.4417 4.71697 -8.94968
438 1 15.7245 18.8693 3.14456 -8.94951
439 1 17.2969 20.4416 4.71701 -8.94929
440 1 18.8691 18.8691 3.14475 -8.94963
441 1 20.4415 20.4416 4.71719 -8.94963
442 1 1.5688 11.007 7.86028 -8.94905
443 1 4.70776 11.007 7.85303 -8.94236
444 1 7.85733 11.007 7.8652 -9.00321
445 1 11.005 11.007 7.86425 -8.9455
446 1 14.1532 11.007 7.86054 -8.94661
447 1 17.2972 11.007 7.86147 -8.94952
448 1 20.4407 11.007 7.86167 -8.94989
449 1 -0.00113994 12.5796 6.28897 -8.94932
450 1 1.56887 14.1535 7.86048 -8.95082
451 1 3.14188 12.5805 6.28674 -8.94778
452 1 4.70535 14.1631 7.85055 -8.93001
453 1 6.2872 12.5806 6.28212 -8.95905
454 1 7.8617 14.1561 7.85434 -8.95096
455 1 9.43415 12.5793 6.28811 -8.95156
456 1 11.0125 14.1575 7.85242 -8.95363
457 1 12.5797 12.5786 6.28899 -8.94905
458 1 14.1536 14.1516 7.8608 -8.95149
459 1 15.7248 12.5793 6.28902 -8.94906
460 1 17.2972 14.1517 7.86172 -8.94973
461 1 18.869 12.5794 6.28934 -8.94957
462 1 20.4408 14.152 7.8618 -8.95013
463 1 22.0128 15.7249 6.28903 -8.94966
464 1 1.5717 17.2973 7.86196 -8.95029
465 1 3.14135 15.7277 6.28633 -8.94466
466 1 4.71493 17.3005 7.85996 -8.94996
467 1 6.2889 15.7263 6.28694 -8.94924
468 1 7.86165 17.2993 7.86019 -8.94785
469 1 9.43499 15.7261 6.28707 -8.94785
470 1 11.0077 17.2994 7.86005 -8.94924
471 1 12.5817 15.7264 6.28581 -8.94996
472 1 14.1553 17.3 7.85862 -8.94466
473 1 15.7249 15.7244 6.28898 -8.95029
474 1 17.2978 17.2973 7.86142 -8.94966
475 1 18.869 15.7243 6.28943 -8.94979
476 1 20.4415 17.2969 7.86198 -8.94979
477 1 22.0137 18.8693 6.28957 -8.94982
478 1 1.57227 20.4416 7.86212 -8.9497
479 1 3.14402 18.8703 6.28892 -8.94946
480 1 4.71691 20.4422 7.86184 -8.95048
481 1 6.28945 18.87 6.289 -8.94919
482 1 7.86186 20.4422 7.86157 -8.94958
483 1 9.43454 18.87 6.2889 -8.94942
484 1 11.007 20.4422 7.86157 -8.94961
485 1 12.5797 18.8699 6.28884 -8.9497
486 1 14.1524 20.4423 7.86142 -8.94995
487 1 15.7252 18.8699 6.28873 -8.94833
488 1 17.297 20.4417 7.86192 -8.94959
489 1 18.8693 18.8693 6.28946 -8.94957
490 1 20.4415 20.4416 7.86206 -8.94958
491 1 22.0118 12.5796 9.4343 -8.95165
492 1 3.13533 12.5817 9.43128 -8.9581
493 1 6.24967 12.6124 9.39851 -8.85384
494 1 9.44871 12.6017 9.42749 -8.9054
495 1 12.5824 12.5766 9.43394 -8.95265
496 1 15.7256 12.5787 9.43397 -8.94965
497 1 18.8691 12.5793 9.43428 -8.94989
498 1 22.0134 15.7246 9.4346 -8.94973
499 1 3.14304 15.7255 9.43472 -8.95149
500 1 6.2841 15.7339 9.42884 -8.95363
501 1 9.43493 15.732 9.4302 -8.95096
502 1 12.5913 15.7358 9.42324 -8.93001
503 1 15.7278 15.7258 9.43283 -8.95082
512 1 1.5699 11.007 11.0074 -8.95126
513 1 4.70877 11.007 11 -8.97298
514 1 7.78304 11.007 10.7762 -8.11817
515 1 10.9856 11.007 11.0167 -8.90133
516 1 14.1501 11.007 11.0073 -8.94004
517 1 17.2971 11.007 11.0066 -8.94791
518 1 20.441 11.007 11.007 -8.9496
519 1 1.57106 14.1524 11.0076 -8.94965
520 1 4.71419 14.1524 11.0097 -8.95265
521 1 7.84792 14.1588 10.9847 -8.9054
522 1 11.047 14.1878 10.9739 -8.85384
523 1 14.1613 14.155 11.0046 -8.9581
524 1 17.2987 14.152 11.0067 -8.95165
525 1 20.4414 14.152 11.007 -8.94989
527 1 4.71691 17.2973 11.0077 -8.94905
528 1 7.86248 17.2982 11.007 -8.95156
529 1 11.0094 17.3042 11.0057 -8.95905
535 1 7.86193 20.442 11.007 -8.94948
534 1 4.71699 20.4418 11.0071 -8.94941
351 1 22.0135 12.5794 0.000235952 -8.94957
385 1 9.43456 18.8694 0.000250419 -8.94957
383 1 6.28964 18.8694 0.000232388 -8.94954
363 1 18.869 12.5794 0.000114062 -8.94961
687 3 8.64832 11.007 12.5794 2.30843
686 1 20.4415 20.4416 20.4416 -8.94963
685 1 18.8693 18.8693 18.8693 -8.94957
684 1 17.2969 20.4416 20.4417 -8.94929
683 1 15.7252 18.8699 18.87 -8.94833
682 1 14.152 20.4417 20.4418 -8.94968
681 1 12.5797 18.8699 18.8699 -8.9497
680 1 11.007 20.4417 20.4418 -8.94954
679 1 9.43454 18.87 18.8698 -8.94942
678 1 7.86207 20.4417 20.4418 -8.94957
677 1 6.28945 18.87 18.8697 -8.94919
676 1 4.71716 20.4417 20.4417 -8.94953
675 1 3.14402 18.8703 18.8698 -8.94946
674 1 1.57216 20.4418 20.4417 -8.94951
526 1 1.57183 17.2973 11.007 -8.94906
673 1 22.0137 18.8693 18.8692 -8.94982
672 1 20.4412 17.2969 20.4417 -8.94957
671 1 18.869 15.7243 18.8693 -8.94979
670 1 17.2968 17.2968 20.4418 -8.94982
531 1 17.2978 17.2973 11.0067 -8.94932
532 1 20.4415 17.297 11.0069 -8.94957
533 1 1.57219 20.4417 11.0069 -8.94958
669 1 15.7249 15.7244 18.8698 -8.95029
668 1 14.1526 17.2974 20.4427 -8.94946
667 1 12.5817 15.7264 18.8729 -8.94996
666 1 11.0072 17.2973 20.4424 -8.94919
665 1 9.43499 15.7261 18.8717 -8.94785
664 1 7.86209 17.2974 20.4424 -8.94942
540 1 1.5699 11.007 14.1513 -8.95126
541 1 4.70877 11.007 14.1588 -8.97298
542 1 7.78304 11.007 14.3826 -8.11817
543 1 10.9856 11.007 14.1421 -8.90133
544 1 14.1501 11.007 14.1515 -8.94004
545 1 17.2971 11.007 14.1521 -8.94791
546 1 20.441 11.007 14.1517 -8.9496
547 1 22.0134 12.5797 12.5794 -8.94791
548 1 1.57106 14.1524 14.1511 -8.94965
549 1 3.14655 12.5791 12.5794 -8.94004
550 1 4.71419 14.1524 14.1491 -8.95265
551 1 6.31102 12.5697 12.5794 -8.90133
552 1 7.84792 14.1588 14.1741 -8.9054
553 1 9.5136 12.8101 12.5794 -8.11817
554 1 11.047 14.1878 14.1848 -8.85384
555 1 12.5879 12.5864 12.5794 -8.97298
556 1 14.1613 14.155 14.1541 -8.9581
557 1 15.7267 12.5789 12.5794 -8.95126
558 1 17.2987 14.152 14.152 -8.95165
559 1 18.8696 12.5793 12.5794 -8.9496
560 1 20.4414 14.152 14.1518 -8.94989
561 1 -0.000564591 15.7249 12.5794 -8.94952
562 1 1.57183 17.2973 14.1518 -8.94906
563 1 3.14344 15.7258 12.5794 -8.94661
564 1 4.71691 17.2973 14.151 -8.94905
565 1 6.29168 15.7221 12.5794 -8.9455
566 1 7.86248 17.2982 14.1517 -8.95156
567 1 9.4393 15.7211 12.5794 -9.00321
568 1 11.0094 17.3042 14.153 -8.95905
569 1 12.5889 15.7333 12.5794 -8.94236
570 1 14.1548 17.2996 14.1529 -8.94778
571 1 15.7278 15.726 12.5794 -8.94905
572 1 17.2978 17.2973 14.152 -8.94932
573 1 18.8698 15.7246 12.5794 -8.94989
574 1 20.4415 17.297 14.1519 -8.94957
575 1 22.0137 18.8694 12.5794 -8.94961
576 1 1.57219 20.4417 14.1518 -8.94958
577 1 3.14437 18.8697 12.5794 -8.94966
578 1 4.71699 20.4418 14.1517 -8.94941
579 1 6.28944 18.8693 12.5794 -8.94832
580 1 7.86193 20.442 14.1517 -8.94948
581 1 9.43445 18.8701 12.5794 -8.94664
582 1 11.007 20.4429 14.1519 -8.95134
583 1 12.5812 18.8723 12.5794 -8.94948
584 1 14.1526 20.4424 14.1521 -8.94939
585 1 15.7252 18.87 12.5794 -8.94951
586 1 17.297 20.4417 14.1519 -8.94957
587 1 18.8693 18.8693 12.5794 -8.94956
588 1 20.4415 20.4416 14.1518 -8.94961
589 1 1.5688 11.007 17.2985 -8.94905
590 1 4.70776 11.007 17.3057 -8.94236
591 1 7.85733 11.007 17.2935 -9.00321
592 1 11.005 11.007 17.2945 -8.9455
593 1 14.1532 11.007 17.2982 -8.94661
594 1 17.2972 11.007 17.2973 -8.94952
595 1 20.4407 11.007 17.2971 -8.94989
596 1 22.0118 12.5796 15.7244 -8.95165
597 1 1.56887 14.1535 17.2983 -8.95082
598 1 3.13533 12.5817 15.7275 -8.9581
599 1 4.70535 14.1631 17.3082 -8.93001
600 1 6.24967 12.6124 15.7602 -8.85384
601 1 7.8617 14.1561 17.3044 -8.95096
602 1 9.44871 12.6017 15.7312 -8.9054
603 1 11.0125 14.1575 17.3063 -8.95363
604 1 12.5824 12.5766 15.7248 -8.95265
605 1 14.1536 14.1516 17.2979 -8.95149
606 1 15.7256 12.5787 15.7248 -8.94965
607 1 17.2972 14.1517 17.297 -8.94973
608 1 18.8691 12.5793 15.7245 -8.94989
609 1 20.4408 14.152 17.2969 -8.95013
610 1 22.0134 15.7246 15.7241 -8.94973
611 1 1.5717 17.2973 17.2968 -8.95029
612 1 3.14304 15.7255 15.724 -8.95149
613 1 4.71493 17.3005 17.2988 -8.94996
614 1 6.2841 15.7339 15.7299 -8.95363
615 1 7.86165 17.2993 17.2986 -8.94785
616 1 9.43493 15.732 15.7285 -8.95096
617 1 11.0077 17.2994 17.2987 -8.94924
618 1 12.5913 15.7358 15.7355 -8.93001
619 1 14.1553 17.3 17.3001 -8.94466
620 1 15.7278 15.7258 15.7259 -8.95082
621 1 17.2978 17.2973 17.2973 -8.94966
622 1 18.8697 15.7245 15.7245 -8.95013
623 1 20.4415 17.2969 17.2968 -8.94979
624 1 -0.000149737 18.8693 15.7242 -8.94947
625 1 1.57227 20.4416 17.2966 -8.9497
626 1 3.14454 18.8696 15.724 -8.94963
627 1 4.71691 20.4422 17.2969 -8.95048
628 1 6.28932 18.871 15.7244 -8.95229
629 1 7.86186 20.4422 17.2972 -8.94958
630 1 9.43421 18.8714 15.7251 -8.95037
631 1 11.007 20.4422 17.2972 -8.94961
632 1 12.5807 18.8721 15.7256 -8.95145
633 1 14.1524 20.4423 17.2973 -8.94995
634 1 15.7252 18.87 15.7247 -8.94932
635 1 17.297 20.4417 17.2968 -8.94959
636 1 18.8693 18.8693 15.7243 -8.94951
637 1 20.4415 20.4416 17.2967 -8.94958
638 1 1.57141 11.007 20.4424 -8.94951
639 1 4.71547 11.007 20.4447 -8.94948
640 1 7.86218 11.007 20.4425 -8.94664
641 1 11.0072 11.007 20.4417 -8.94832
642 1 14.1523 11.007 20.4421 -8.94966
643 1 17.2968 11.007 20.4418 -8.94961
644 1 20.4412 11.007 20.4418 -8.94956
645 1 -0.00113994 12.5796 18.8698 -8.94932
646 1 1.57146 14.1523 20.4424 -8.94932
647 1 3.14188 12.5805 18.872 -8.94778
648 1 4.71591 14.1531 20.4445 -8.95145
649 1 6.2872 12.5806 18.8766 -8.95905
650 1 7.86242 14.1527 20.4438 -8.95037
651 1 9.43415 12.5793 18.8706 -8.95156
652 1 11.0073 14.152 20.4434 -8.95229
653 1 12.5797 12.5786 18.8698 -8.94905
654 1 14.1521 14.1516 20.442 -8.94963
655 1 15.7248 12.5793 18.8697 -8.94906
656 1 17.2968 14.1518 20.4417 -8.94947
657 1 18.869 12.5794 18.8694 -8.94957
658 1 20.4412 14.1519 20.4418 -8.94951
659 1 22.0128 15.7249 18.8697 -8.94966
660 1 1.57147 17.2976 20.4423 -8.94833
661 1 3.14135 15.7277 18.8724 -8.94466
662 1 4.71689 17.2975 20.4424 -8.9497
663 1 6.2889 15.7263 18.8718 -8.94924
371 1 9.43477 15.7248 22.0146 -8.94958
353 1 3.14408 12.5796 22.0148 -8.94939
361 1 15.7244 12.5794 22.0141 -8.94958
369 1 6.28965 15.7247 22.0146 -8.94961
365 1 -0.000317681 15.7244 22.0141 -8.94959
381 1 3.14469 18.8694 22.0141 -8.94968
387 1 12.5795 18.8693 22.0141 -8.94953
537 1 14.1526 20.4424 11.0067 -8.94939
530 1 14.1548 17.2996 11.0058 -8.94778
