ITEM: TIMESTEP
97
ITEM: NUMBER OF ATOMS
687
ITEM: BOX BOUNDS pp pp pp
0.0000000000000000e+00 2.2013900999999997e+01
0.0000000000000000e+00 2.2013900999999997e+01
0.0000000000000000e+00 2.2013900999999997e+01
ITEM: ATOMS id type x y z c_pot
1 1 22.0136 -1.58524e-14 0.000253528 -8.94938
2 1 1.57205 1.57209 1.57242 -8.94958
196 1 20.4415 7.86179 11.007 -8.9499
4 1 4.71705 1.57209 1.57242 -8.94951
5 1 6.28954 -8.10278e-13 0.000295352 -8.94952
6 1 7.86207 1.5721 1.57242 -8.94953
175 1 18.869 9.43457 9.43421 -8.9499
8 1 11.0071 1.57213 1.57242 -8.94952
9 1 12.5796 -9.07531e-13 0.000330899 -8.94951
10 1 14.1521 1.57217 1.57242 -8.94955
195 1 17.2992 7.86167 11.0067 -8.95181
12 1 17.297 1.57217 1.57242 -8.94938
13 1 18.8693 -3.08955e-14 0.000208436 -8.94925
14 1 20.4413 1.57221 1.57242 -8.94925
15 1 22.0133 3.14422 0.000358642 -8.94916
16 1 1.57154 4.71638 1.57242 -8.94952
194 1 14.1622 7.85796 11.0044 -8.95827
18 1 4.71688 4.71642 1.57242 -8.9496
174 1 15.7256 9.4352 9.43398 -8.94979
20 1 7.86217 4.71648 1.57242 -8.94955
173 1 12.5825 9.43679 9.43401 -8.95295
22 1 11.0073 4.71663 1.57242 -8.94953
193 1 11.0477 7.82474 10.9736 -8.85432
24 1 14.1524 4.71682 1.57242 -8.95007
25 1 15.7248 3.1443 0.000594607 -8.94947
26 1 17.2968 4.71713 1.57242 -8.94971
27 1 18.8691 3.14457 0.00028388 -8.94958
28 1 20.4411 4.71694 1.57242 -8.94953
192 1 7.84741 7.85407 10.9827 -8.90434
30 1 1.57136 7.86153 1.57242 -8.94938
31 1 3.14361 6.28844 0.00126272 -8.95
32 1 4.71662 7.86145 1.57242 -8.95067
172 1 9.44923 9.41029 9.42649 -8.90434
34 1 7.86235 7.86164 1.57242 -8.95029
171 1 6.24889 9.40119 9.39717 -8.85433
36 1 11.0072 7.86208 1.57242 -8.95043
37 1 12.58 6.28926 0.00106237 -8.95071
38 1 14.1521 7.86219 1.57242 -8.94954
39 1 15.7245 6.28965 0.000387218 -8.94974
40 1 17.2967 7.86205 1.57242 -8.94953
41 1 18.8689 6.2895 0.000260997 -8.94951
42 1 20.441 7.86188 1.57242 -8.94952
170 1 3.13445 9.43202 9.43038 -8.95827
169 1 22.0113 9.43423 9.43409 -8.95181
45 1 6.28933 9.43435 0.00170659 -8.95145
46 1 9.43464 9.43465 0.000510309 -8.94943
47 1 12.5797 9.43469 0.000335013 -8.94935
168 1 18.8701 6.28913 9.4341 -8.95025
167 1 15.7289 6.28741 9.4323 -8.9509
50 1 22.0136 -1.60072e-14 3.14459 -8.94938
51 1 1.5718 1.57183 4.71672 -8.94947
52 1 3.14456 2.94067e-13 3.14459 -8.94955
53 1 4.71688 1.57187 4.7167 -8.94948
54 1 6.28954 -8.10652e-13 3.14455 -8.94952
55 1 7.86199 1.57191 4.71659 -8.9495
56 1 9.43456 -1.83181e-13 3.14452 -8.94953
57 1 11.0071 1.57193 4.71655 -8.94946
58 1 12.5796 -9.07707e-13 3.14451 -8.94951
59 1 14.1523 1.57194 4.71649 -8.94961
60 1 15.7246 3.63797e-13 3.14451 -8.94958
61 1 17.2973 1.57206 4.71664 -8.94916
62 1 18.8693 -3.02016e-14 3.14463 -8.94925
63 1 20.4415 1.57214 4.71699 -8.94958
64 1 22.0133 3.14422 3.14448 -8.94916
65 1 1.57076 4.71561 4.71588 -8.94821
66 1 3.1443 3.14407 3.14436 -8.94961
67 1 4.71633 4.71567 4.71569 -8.94964
68 1 6.2895 3.14413 3.14436 -8.94946
69 1 7.862 4.71589 4.71575 -8.94935
70 1 9.43465 3.14417 3.14433 -8.9495
71 1 11.0075 4.71604 4.71568 -8.94914
72 1 12.5798 3.14428 3.14429 -8.94948
73 1 14.1532 4.71602 4.71531 -8.94943
74 1 15.7248 3.1443 3.14425 -8.94947
75 1 17.2971 4.71691 4.71659 -8.94987
76 1 18.8691 3.14457 3.14456 -8.94958
77 1 20.4409 4.7167 4.71674 -8.94955
78 1 -0.000860377 6.2891 3.14437 -8.94946
79 1 1.57054 7.86108 4.71568 -8.94918
80 1 3.14361 6.28844 3.14358 -8.95
81 1 4.71512 7.86023 4.7133 -8.95156
82 1 6.28945 6.28871 3.14368 -8.94973
83 1 7.86219 7.86087 4.71434 -8.95063
84 1 9.4349 6.28883 3.1438 -8.94966
85 1 11.0074 7.8617 4.71496 -8.95255
86 1 12.58 6.28926 3.14378 -8.95071
87 1 14.1523 7.8623 4.71645 -8.94964
88 1 15.7245 6.28965 3.14446 -8.94974
89 1 17.2968 7.86203 4.71673 -8.94942
90 1 18.8689 6.2895 3.14458 -8.94951
91 1 20.4408 7.86176 4.71665 -8.94944
92 1 22.0129 9.4343 3.14433 -8.94948
93 1 3.14335 9.43401 3.14348 -8.9494
94 1 6.28933 9.43435 3.14314 -8.95145
95 1 9.43464 9.43465 3.14433 -8.94943
96 1 12.5797 9.43469 3.14451 -8.94935
97 1 15.7245 9.43453 3.1445 -8.94955
98 1 18.8689 9.43445 3.14456 -8.94955
99 1 22.0138 8.06456e-13 6.28955 -8.94971
100 1 1.57209 1.57203 7.86207 -8.94974
101 1 3.14428 -5.48567e-12 6.28924 -8.95007
102 1 4.71665 1.57136 7.86168 -8.95071
103 1 6.28931 8.99276e-12 6.28905 -8.94953
104 1 7.86173 1.57138 7.86126 -8.94966
105 1 9.43447 2.6456e-13 6.2889 -8.94955
106 1 11.0072 1.57125 7.86113 -8.94973
107 1 12.5798 1.89533e-11 6.28884 -8.9496
108 1 14.153 1.57116 7.86086 -8.95
109 1 15.7251 -1.09719e-11 6.2888 -8.94952
110 1 17.2975 1.57195 7.86152 -8.94946
111 1 18.8695 1.9748e-13 6.28936 -8.94953
112 1 20.4416 1.57216 7.86192 -8.94951
113 1 22.0134 3.14417 6.28933 -8.94987
114 1 1.57113 4.71599 7.86167 -8.95044
115 1 3.14343 3.14289 6.28844 -8.94943
116 1 4.71404 4.71235 7.8591 -8.94985
117 1 6.28912 3.14325 6.28847 -8.94914
118 1 7.86148 4.71371 7.85932 -8.94772
119 1 9.43463 3.14333 6.28831 -8.94935
120 1 11.0085 4.71329 7.85908 -8.94916
121 1 12.5803 3.14327 6.2881 -8.94964
122 1 14.1565 4.71291 7.85763 -8.94453
123 1 15.7259 3.14346 6.28803 -8.94821
124 1 17.2984 4.71617 7.8609 -8.94969
125 1 18.8696 3.14432 6.28912 -8.94955
126 1 20.4415 4.71669 7.86178 -8.94988
127 1 22.0121 6.28848 6.28859 -8.94969
128 1 1.56777 7.85988 7.85983 -8.9509
129 1 3.14017 6.28521 6.28533 -8.94453
130 1 4.70387 7.8499 7.84915 -8.92997
131 1 6.28809 6.28666 6.28571 -8.94916
132 1 7.86102 7.8566 7.85289 -8.9509
133 1 9.43516 6.2869 6.28613 -8.94772
134 1 11.0135 7.85499 7.85142 -8.95314
135 1 12.5826 6.28668 6.28478 -8.94985
136 1 14.1543 7.8619 7.86036 -8.95169
137 1 15.7255 6.28925 6.28841 -8.95044
138 1 17.2974 7.86212 7.86148 -8.94987
139 1 18.869 6.28936 6.28912 -8.94988
140 1 20.4404 7.86167 7.86155 -8.95025
141 1 -0.00202533 9.43405 6.28841 -8.94928
142 1 3.14044 9.43298 6.28555 -8.9476
143 1 6.28621 9.43304 6.2813 -8.95927
144 1 9.43383 9.4343 6.28813 -8.95185
145 1 12.5798 9.43521 6.28898 -8.94888
146 1 15.7249 9.43456 6.28877 -8.94898
147 1 18.8688 9.43441 6.28902 -8.94956
148 1 -9.69712e-05 -4.11331e-12 9.43447 -8.94953
149 1 3.14451 3.5514e-11 9.43461 -8.94954
150 1 6.28943 -1.18679e-10 9.4345 -8.95043
151 1 9.43429 -3.71551e-11 9.43406 -8.95029
152 1 12.58 -2.64392e-10 9.43387 -8.95067
153 1 15.7253 1.10616e-11 9.43395 -8.94938
154 1 18.8695 -2.85714e-13 9.4343 -8.94952
155 1 -0.000195889 3.14431 9.43446 -8.94942
156 1 3.14433 3.14403 9.43472 -8.94964
157 1 6.2892 3.14254 9.43412 -8.95255
158 1 9.43444 3.14192 9.43329 -8.95063
159 1 12.5815 3.14088 9.43266 -8.95156
160 1 15.7261 3.14326 9.43351 -8.94918
161 1 18.8698 3.14423 9.43418 -8.94944
162 1 22.0131 6.28906 9.43454 -8.94987
163 1 3.14236 6.28794 9.43432 -8.95169
164 1 6.28318 6.279 9.42741 -8.95314
165 1 9.43561 6.28047 9.42902 -8.9509
166 1 12.5928 6.27673 9.42232 -8.92997
177 1 4.71692 1.57209 11.0071 -8.94935
178 1 7.862 1.57191 11.0071 -8.94943
179 1 11.0073 1.57071 11.0068 -8.95145
191 1 4.71413 7.86159 11.0092 -8.95295
181 1 17.2976 1.5719 11.0067 -8.94948
182 1 20.4417 1.57214 11.0069 -8.94955
184 1 4.71688 4.71656 11.0076 -8.94888
185 1 7.8628 4.71571 11.0067 -8.95185
186 1 11.0104 4.70888 11.0055 -8.95927
190 1 1.57103 7.86156 11.0076 -8.94979
19 1 6.2895 3.14413 0.00048763 -8.94946
49 1 18.8689 9.43445 0.000285837 -8.94955
21 1 9.43465 3.14417 0.00051103 -8.9495
43 1 22.0129 9.4343 0.000516942 -8.94948
176 1 1.5721 1.57208 11.007 -8.94955
343 1 18.8688 9.43441 18.8697 -8.94956
342 1 15.7249 9.43456 18.87 -8.94898
341 1 12.5798 9.43521 18.8698 -8.94888
340 1 9.43383 9.4343 18.8706 -8.95185
339 1 6.28621 9.43304 18.8774 -8.95927
338 1 3.14044 9.43298 18.8732 -8.9476
183 1 1.5717 4.71635 11.007 -8.94898
337 1 -0.00202533 9.43405 18.8703 -8.94928
336 1 20.4408 7.86176 20.4421 -8.94944
335 1 18.869 6.28936 18.8696 -8.94988
334 1 17.2968 7.86203 20.442 -8.94942
188 1 17.2987 4.71599 11.0065 -8.94928
189 1 20.4417 4.7166 11.0068 -8.94956
333 1 15.7255 6.28925 18.8703 -8.95044
332 1 14.1523 7.8623 20.4423 -8.94964
331 1 12.5826 6.28668 18.874 -8.94985
330 1 11.0074 7.8617 20.4438 -8.95255
329 1 9.43516 6.2869 18.8726 -8.94772
328 1 7.86219 7.86087 20.4444 -8.95063
327 1 6.28809 6.28666 18.873 -8.94916
197 1 -0.000105487 3.54871e-12 12.5794 -8.94957
198 1 1.5721 1.57208 14.1518 -8.94955
199 1 3.14446 -5.53322e-11 12.5794 -8.94965
200 1 4.71692 1.57209 14.1516 -8.94935
201 1 6.28936 3.33859e-10 12.5794 -8.94913
202 1 7.862 1.57191 14.1517 -8.94943
203 1 9.43435 -1.25645e-09 12.5794 -8.94848
204 1 11.0073 1.57071 14.152 -8.95145
205 1 12.5804 -1.72132e-10 12.5794 -8.95037
206 1 14.1533 1.57106 14.1523 -8.9494
207 1 15.7254 1.56099e-13 12.5794 -8.94946
208 1 17.2976 1.5719 14.152 -8.94948
209 1 18.8696 -2.39447e-13 12.5794 -8.94953
210 1 20.4417 1.57214 14.1519 -8.94955
211 1 22.0137 3.14428 12.5794 -8.94956
212 1 1.5717 4.71635 14.1518 -8.94898
213 1 3.14431 3.1441 12.5794 -8.94964
214 1 4.71688 4.71656 14.1511 -8.94888
215 1 6.28958 3.14481 12.5794 -8.9482
216 1 7.8628 4.71571 14.152 -8.95185
217 1 9.43484 3.14403 12.5794 -8.94633
218 1 11.0104 4.70888 14.1533 -8.95927
219 1 12.5822 3.14071 12.5794 -8.94959
220 1 14.1562 4.71313 14.1533 -8.9476
221 1 15.7262 3.14321 12.5794 -8.94945
222 1 17.2987 4.71599 14.1523 -8.94928
223 1 18.8698 3.14419 12.5794 -8.9495
224 1 20.4417 4.7166 14.1519 -8.94956
225 1 -0.000526052 6.28885 12.5794 -8.94955
226 1 1.57103 7.86156 14.1511 -8.94979
227 1 3.14344 6.2881 12.5794 -8.94648
228 1 4.71413 7.86159 14.1495 -8.95295
229 1 6.2919 6.2922 12.5794 -8.94509
230 1 7.84741 7.85407 14.176 -8.90434
231 1 9.43986 6.29323 12.5794 -9.00329
232 1 11.0477 7.82474 14.1851 -8.85432
233 1 12.5905 6.27914 12.5794 -8.94205
234 1 14.1622 7.85796 14.1543 -8.95827
235 1 15.7291 6.28699 12.5794 -8.94906
236 1 17.2992 7.86167 14.1521 -8.95181
237 1 18.8704 6.28894 12.5794 -8.94999
238 1 20.4415 7.86179 14.1517 -8.9499
239 1 22.0136 9.43427 12.5794 -8.94761
240 1 3.14758 9.43516 12.5794 -8.93978
241 1 6.31273 9.44442 12.5794 -8.90228
242 1 9.51174 9.20259 12.5794 -8.1215
243 1 12.5868 9.42667 12.5794 -8.97289
244 1 15.7265 9.43481 12.5794 -8.95107
245 1 18.8696 9.43461 12.5794 -8.94936
246 1 -9.69712e-05 -4.1133e-12 15.7243 -8.94953
247 1 1.57209 1.57203 17.2967 -8.94974
248 1 3.14451 3.55138e-11 15.7241 -8.94954
249 1 4.71665 1.57136 17.2971 -8.95071
250 1 6.28943 -1.18679e-10 15.7242 -8.95043
251 1 7.86173 1.57138 17.2975 -8.94966
252 1 9.43429 -3.71554e-11 15.7247 -8.95029
253 1 11.0072 1.57125 17.2976 -8.94973
254 1 12.58 -2.64392e-10 15.7249 -8.95067
255 1 14.153 1.57116 17.2979 -8.95
256 1 15.7253 1.10615e-11 15.7248 -8.94938
257 1 17.2975 1.57195 17.2972 -8.94946
258 1 18.8695 -2.85035e-13 15.7244 -8.94952
259 1 20.4416 1.57216 17.2968 -8.94951
260 1 -0.000195889 3.14431 15.7243 -8.94942
261 1 1.57113 4.71599 17.2971 -8.95044
262 1 3.14433 3.14403 15.724 -8.94964
263 1 4.71404 4.71235 17.2996 -8.94985
264 1 6.2892 3.14254 15.7246 -8.95255
265 1 7.86148 4.71371 17.2994 -8.94772
266 1 9.43444 3.14192 15.7255 -8.95063
267 1 11.0085 4.71329 17.2997 -8.94916
268 1 12.5815 3.14088 15.7261 -8.95156
269 1 14.1565 4.71291 17.3011 -8.94453
270 1 15.7261 3.14326 15.7252 -8.94918
271 1 17.2984 4.71617 17.2978 -8.94969
272 1 18.8698 3.14423 15.7246 -8.94944
273 1 20.4415 4.71669 17.297 -8.94988
274 1 22.0131 6.28906 15.7242 -8.94987
275 1 1.56777 7.85988 17.2989 -8.9509
276 1 3.14236 6.28794 15.7244 -8.95169
277 1 4.70387 7.8499 17.3096 -8.92997
278 1 6.28318 6.279 15.7313 -8.95314
279 1 7.86102 7.8566 17.3059 -8.9509
280 1 9.43561 6.28047 15.7297 -8.9509
281 1 11.0135 7.85499 17.3073 -8.95314
282 1 12.5928 6.27673 15.7364 -8.92997
283 1 14.1543 7.8619 17.2984 -8.95169
284 1 15.7289 6.28741 15.7264 -8.9509
285 1 17.2974 7.86212 17.2973 -8.94987
286 1 18.8701 6.28913 15.7246 -8.95025
287 1 20.4404 7.86167 17.2972 -8.95025
288 1 22.0113 9.43423 15.7246 -8.95181
289 1 3.13445 9.43202 15.7284 -8.95827
290 1 6.24889 9.40119 15.7616 -8.85433
291 1 9.44923 9.41029 15.7323 -8.90434
292 1 12.5825 9.43679 15.7247 -8.95295
293 1 15.7256 9.4352 15.7248 -8.94979
294 1 18.869 9.43457 15.7245 -8.9499
295 1 22.0138 8.06588e-13 18.8692 -8.94971
296 1 1.5718 1.57183 20.442 -8.94947
297 1 3.14428 -5.48453e-12 18.8695 -8.95007
298 1 4.71688 1.57187 20.442 -8.94948
299 1 6.28931 8.99282e-12 18.8697 -8.94953
300 1 7.86199 1.57191 20.4422 -8.9495
301 1 9.43447 2.6488e-13 18.8698 -8.94955
302 1 11.0071 1.57193 20.4422 -8.94946
303 1 12.5798 1.89535e-11 18.8699 -8.9496
304 1 14.1523 1.57194 20.4423 -8.94961
305 1 15.7251 -1.09726e-11 18.8699 -8.94952
306 1 17.2973 1.57206 20.4421 -8.94916
307 1 18.8695 1.97308e-13 18.8694 -8.94953
308 1 20.4415 1.57214 20.4418 -8.94958
309 1 22.0134 3.14417 18.8694 -8.94987
310 1 1.57076 4.71561 20.4429 -8.94821
311 1 3.14343 3.14289 18.8703 -8.94943
312 1 4.71633 4.71567 20.4431 -8.94964
313 1 6.28912 3.14325 18.8703 -8.94914
314 1 7.862 4.71589 20.443 -8.94935
315 1 9.43463 3.14333 18.8704 -8.94935
316 1 11.0075 4.71604 20.4431 -8.94914
317 1 12.5803 3.14327 18.8706 -8.94964
318 1 14.1532 4.71602 20.4434 -8.94943
319 1 15.7259 3.14346 18.8707 -8.94821
320 1 17.2971 4.71691 20.4422 -8.94987
321 1 18.8696 3.14432 18.8696 -8.94955
322 1 20.4409 4.7167 20.442 -8.94955
323 1 22.0121 6.28848 18.8702 -8.94969
324 1 1.57054 7.86108 20.4431 -8.94918
325 1 3.14017 6.28521 18.8734 -8.94453
326 1 4.71512 7.86023 20.4454 -8.95156
7 1 9.43456 -1.82906e-13 22.0142 -8.94953
48 1 15.7245 9.43453 22.0142 -8.94955
44 1 3.14335 9.43401 22.0153 -8.9494
33 1 6.28945 6.28871 22.0151 -8.94973
35 1 9.4349 6.28883 22.0149 -8.94966
3 1 3.14456 2.9424e-13 22.0142 -8.94955
11 1 15.7246 3.63462e-13 22.0142 -8.94958
17 1 3.1443 3.14407 22.0144 -8.94961
23 1 12.5798 3.14428 22.0144 -8.94948
29 1 -0.000860377 6.2891 22.0144 -8.94946
180 1 14.1533 1.57106 11.0064 -8.9494
187 1 14.1562 4.71313 11.0054 -8.9476
344 1 1.57128 11.007 1.57242 -8.94946
345 1 4.71628 11.007 1.57242 -8.95037
346 1 7.86229 11.007 1.57242 -8.94848
347 1 11.0073 11.007 1.57242 -8.94913
348 1 14.1522 11.007 1.57242 -8.94965
349 1 17.2967 11.007 1.57242 -8.94957
350 1 20.441 11.007 1.57242 -8.94953
511 1 18.8698 18.8697 9.43418 -8.94944
352 1 1.57136 14.1524 1.57242 -8.94938
510 1 15.7261 18.8706 9.43351 -8.94918
354 1 4.71662 14.1525 1.57242 -8.95067
355 1 6.28933 12.5796 0.00170659 -8.95145
356 1 7.86235 14.1523 1.57242 -8.95029
357 1 9.43464 12.5792 0.000510309 -8.94943
358 1 11.0072 14.1518 1.57242 -8.95043
359 1 12.5797 12.5792 0.000335012 -8.94935
360 1 14.1521 14.1517 1.57242 -8.94954
509 1 12.5815 18.873 9.43266 -8.95156
362 1 17.2967 14.1519 1.57242 -8.94953
508 1 9.43444 18.872 9.43329 -8.95063
364 1 20.441 14.152 1.57242 -8.94952
539 1 20.4417 20.4418 11.0069 -8.94955
366 1 1.57154 17.2975 1.57242 -8.94952
367 1 3.14361 15.7255 0.00126272 -8.95
368 1 4.71688 17.2975 1.57242 -8.9496
507 1 6.2892 18.8714 9.43412 -8.95255
370 1 7.86217 17.2974 1.57242 -8.94955
506 1 3.14433 18.8699 9.43472 -8.94964
372 1 11.0073 17.2973 1.57242 -8.94953
373 1 12.58 15.7246 0.00106237 -8.95071
374 1 14.1524 17.2971 1.57242 -8.95007
375 1 15.7245 15.7243 0.000387218 -8.94974
376 1 17.2968 17.2968 1.57242 -8.94971
377 1 18.8689 15.7244 0.000260997 -8.94951
378 1 20.4411 17.297 1.57242 -8.94953
379 1 22.0133 18.8697 0.000358642 -8.94916
380 1 1.57205 20.4418 1.57242 -8.94958
538 1 17.2976 20.442 11.0067 -8.94948
382 1 4.71705 20.4418 1.57242 -8.94951
505 1 -0.000195889 18.8696 9.43446 -8.94942
384 1 7.86207 20.4418 1.57242 -8.94953
504 1 18.8701 15.7248 9.4341 -8.95025
386 1 11.0071 20.4418 1.57242 -8.94952
536 1 11.0073 20.4432 11.0068 -8.95145
388 1 14.1521 20.4417 1.57242 -8.94955
389 1 15.7248 18.8696 0.000594607 -8.94947
390 1 17.297 20.4417 1.57242 -8.94938
391 1 18.8691 18.8693 0.00028388 -8.94958
392 1 20.4413 20.4417 1.57242 -8.94925
393 1 1.57042 11.007 4.71563 -8.94945
394 1 4.71445 11.007 4.71314 -8.94959
395 1 7.86179 11.007 4.71645 -8.94633
396 1 11.0071 11.007 4.71724 -8.9482
397 1 14.1523 11.007 4.71652 -8.94964
398 1 17.2968 11.007 4.7167 -8.94956
399 1 20.4407 11.007 4.71661 -8.9495
400 1 22.0129 12.5796 3.14433 -8.94948
401 1 1.57054 14.1528 4.71568 -8.94918
402 1 3.14335 12.5799 3.14348 -8.9494
403 1 4.71512 14.1537 4.7133 -8.95156
404 1 6.28933 12.5796 3.14314 -8.95145
405 1 7.86219 14.153 4.71434 -8.95063
406 1 9.43464 12.5792 3.14433 -8.94943
407 1 11.0074 14.1522 4.71496 -8.95255
408 1 12.5797 12.5792 3.14451 -8.94935
409 1 14.1523 14.1516 4.71645 -8.94964
410 1 15.7245 12.5794 3.1445 -8.94955
411 1 17.2968 14.1519 4.71673 -8.94942
412 1 18.8689 12.5794 3.14456 -8.94955
413 1 20.4408 14.1521 4.71665 -8.94944
414 1 -0.000860377 15.7248 3.14437 -8.94946
415 1 1.57076 17.2983 4.71588 -8.94821
416 1 3.14361 15.7255 3.14358 -8.95
417 1 4.71633 17.2982 4.71569 -8.94964
418 1 6.28945 15.7252 3.14368 -8.94973
419 1 7.862 17.298 4.71575 -8.94935
420 1 9.4349 15.7251 3.1438 -8.94966
421 1 11.0075 17.2979 4.71568 -8.94914
422 1 12.58 15.7246 3.14378 -8.95071
423 1 14.1532 17.2979 4.71531 -8.94943
424 1 15.7245 15.7243 3.14446 -8.94974
425 1 17.2971 17.297 4.71659 -8.94987
426 1 18.8689 15.7244 3.14458 -8.94951
427 1 20.4409 17.2972 4.71674 -8.94955
428 1 22.0133 18.8697 3.14448 -8.94916
429 1 1.5718 20.4421 4.71672 -8.94947
430 1 3.1443 18.8698 3.14436 -8.94961
431 1 4.71688 20.442 4.7167 -8.94948
432 1 6.2895 18.8698 3.14436 -8.94946
433 1 7.86199 20.442 4.71659 -8.9495
434 1 9.43465 18.8697 3.14433 -8.9495
435 1 11.0071 20.442 4.71655 -8.94946
436 1 12.5798 18.8696 3.14429 -8.94948
437 1 14.1523 20.442 4.71649 -8.94961
438 1 15.7248 18.8696 3.14425 -8.94947
439 1 17.2973 20.4418 4.71664 -8.94916
440 1 18.8691 18.8693 3.14456 -8.94958
441 1 20.4415 20.4418 4.71699 -8.94958
442 1 1.56752 11.007 7.85941 -8.94906
443 1 4.70613 11.007 7.85156 -8.94205
444 1 7.85678 11.007 7.86565 -9.00328
445 1 11.0047 11.007 7.86462 -8.94509
446 1 14.1532 11.007 7.86052 -8.94648
447 1 17.2972 11.007 7.86127 -8.94955
448 1 20.4402 11.007 7.86136 -8.94999
449 1 -0.00202533 12.5799 6.28841 -8.94928
450 1 1.56777 14.154 7.85983 -8.9509
451 1 3.14044 12.5809 6.28555 -8.9476
452 1 4.70387 14.164 7.84915 -8.92997
453 1 6.28621 12.5809 6.2813 -8.95927
454 1 7.86102 14.1573 7.85289 -8.9509
455 1 9.43383 12.5796 6.28813 -8.95185
456 1 11.0135 14.1589 7.85142 -8.95314
457 1 12.5798 12.5787 6.28898 -8.94888
458 1 14.1543 14.152 7.86036 -8.95169
459 1 15.7249 12.5793 6.28877 -8.94898
460 1 17.2974 14.1518 7.86148 -8.94987
461 1 18.8688 12.5795 6.28902 -8.94956
462 1 20.4404 14.1522 7.86155 -8.95025
463 1 22.0121 15.7254 6.28859 -8.94969
464 1 1.57113 17.2979 7.86167 -8.95044
465 1 3.14017 15.7287 6.28533 -8.94453
466 1 4.71404 17.3015 7.8591 -8.94985
467 1 6.28809 15.7272 6.28571 -8.94916
468 1 7.86148 17.3002 7.85932 -8.94772
469 1 9.43516 15.727 6.28613 -8.94772
470 1 11.0085 17.3006 7.85908 -8.94916
471 1 12.5826 15.7272 6.28478 -8.94985
472 1 14.1565 17.301 7.85763 -8.94453
473 1 15.7255 15.7246 6.28841 -8.95044
474 1 17.2984 17.2977 7.8609 -8.94969
475 1 18.869 15.7245 6.28912 -8.94988
476 1 20.4415 17.2972 7.86178 -8.94988
477 1 22.0134 18.8697 6.28933 -8.94987
478 1 1.57209 20.4419 7.86207 -8.94974
479 1 3.14343 18.871 6.28844 -8.94943
480 1 4.71665 20.4425 7.86168 -8.95071
481 1 6.28912 18.8706 6.28847 -8.94914
482 1 7.86173 20.4425 7.86126 -8.94966
483 1 9.43463 18.8706 6.28831 -8.94935
484 1 11.0072 20.4426 7.86113 -8.94973
485 1 12.5803 18.8706 6.2881 -8.94964
486 1 14.153 20.4427 7.86086 -8.95
487 1 15.7259 18.8704 6.28803 -8.94821
488 1 17.2975 20.4419 7.86152 -8.94946
489 1 18.8696 18.8696 6.28912 -8.94955
490 1 20.4416 20.4417 7.86192 -8.94951
491 1 22.0113 12.5797 9.43409 -8.95181
492 1 3.13445 12.5819 9.43038 -8.95827
493 1 6.24889 12.6127 9.39717 -8.85433
494 1 9.44923 12.6036 9.42649 -8.90434
495 1 12.5825 12.5771 9.43401 -8.95295
496 1 15.7256 12.5787 9.43398 -8.94979
497 1 18.869 12.5793 9.43421 -8.9499
498 1 22.0131 15.7248 9.43454 -8.94987
499 1 3.14236 15.726 9.43432 -8.95169
500 1 6.28318 15.7349 9.42741 -8.95314
501 1 9.43561 15.7334 9.42902 -8.9509
502 1 12.5928 15.7372 9.42232 -8.92997
503 1 15.7289 15.7265 9.4323 -8.9509
512 1 1.57017 11.007 11.0072 -8.95107
513 1 4.70979 11.007 10.9991 -8.97289
514 1 7.7849 11.007 10.775 -8.1215
515 1 10.9839 11.007 11.0168 -8.90228
516 1 14.1491 11.007 11.0076 -8.93978
517 1 17.2969 11.007 11.0067 -8.94761
518 1 20.4409 11.007 11.007 -8.94936
519 1 1.57103 14.1523 11.0076 -8.94979
520 1 4.71413 14.1523 11.0092 -8.95295
521 1 7.84741 14.1598 10.9827 -8.90434
522 1 11.0477 14.1892 10.9736 -8.85432
523 1 14.1622 14.1559 11.0044 -8.95827
524 1 17.2992 14.1522 11.0067 -8.95181
525 1 20.4415 14.1521 11.007 -8.9499
527 1 4.71688 17.2973 11.0076 -8.94888
528 1 7.8628 17.2982 11.0067 -8.95185
529 1 11.0104 17.305 11.0055 -8.95927
535 1 7.862 20.442 11.0071 -8.94943
534 1 4.71692 20.4418 11.0071 -8.94935
351 1 22.0129 12.5796 0.000516942 -8.94948
385 1 9.43465 18.8697 0.00051103 -8.9495
383 1 6.2895 18.8698 0.00048763 -8.94946
363 1 18.8689 12.5794 0.000285837 -8.94955
687 3 8.64832 11.007 12.5794 2.30863
686 1 20.4415 20.4418 20.4418 -8.94958
685 1 18.8696 18.8696 18.8696 -8.94955
684 1 17.2973 20.4418 20.4421 -8.94916
683 1 15.7259 18.8704 18.8707 -8.94821
682 1 14.1523 20.442 20.4423 -8.94961
681 1 12.5803 18.8706 18.8706 -8.94964
680 1 11.0071 20.442 20.4422 -8.94946
679 1 9.43463 18.8706 18.8704 -8.94935
678 1 7.86199 20.442 20.4422 -8.9495
677 1 6.28912 18.8706 18.8703 -8.94914
676 1 4.71688 20.442 20.442 -8.94948
675 1 3.14343 18.871 18.8703 -8.94943
674 1 1.5718 20.4421 20.442 -8.94947
526 1 1.5717 17.2975 11.007 -8.94898
673 1 22.0134 18.8697 18.8694 -8.94987
672 1 20.4409 17.2972 20.442 -8.94955
671 1 18.869 15.7245 18.8696 -8.94988
670 1 17.2971 17.297 20.4422 -8.94987
531 1 17.2987 17.2979 11.0065 -8.94928
532 1 20.4417 17.2973 11.0068 -8.94956
533 1 1.5721 20.4418 11.007 -8.94955
669 1 15.7255 15.7246 18.8703 -8.95044
668 1 14.1532 17.2979 20.4434 -8.94943
667 1 12.5826 15.7272 18.874 -8.94985
666 1 11.0075 17.2979 20.4431 -8.94914
665 1 9.43516 15.727 18.8726 -8.94772
664 1 7.862 17.298 20.443 -8.94935
540 1 1.57017 11.007 14.1515 -8.95107
541 1 4.70979 11.007 14.1596 -8.97289
542 1 7.7849 11.007 14.3837 -8.1215
543 1 10.9839 11.007 14.1419 -8.90228
544 1 14.1491 11.007 14.1512 -8.93978
545 1 17.2969 11.007 14.1521 -8.94761
546 1 20.4409 11.007 14.1517 -8.94936
547 1 22.0136 12.5796 12.5794 -8.94761
548 1 1.57103 14.1523 14.1511 -8.94979
549 1 3.14758 12.5787 12.5794 -8.93978
550 1 4.71413 14.1523 14.1495 -8.95295
551 1 6.31272 12.5695 12.5794 -8.90228
552 1 7.84741 14.1598 14.176 -8.90434
553 1 9.51174 12.8113 12.5794 -8.1215
554 1 11.0477 14.1892 14.1851 -8.85432
555 1 12.5868 12.5872 12.5794 -8.97289
556 1 14.1622 14.1559 14.1543 -8.95827
557 1 15.7265 12.5791 12.5794 -8.95107
558 1 17.2992 14.1522 14.1521 -8.95181
559 1 18.8696 12.5793 12.5794 -8.94936
560 1 20.4415 14.1521 14.1517 -8.9499
561 1 -0.000526051 15.7251 12.5794 -8.94955
562 1 1.5717 17.2975 14.1518 -8.94898
563 1 3.14344 15.7258 12.5794 -8.94648
564 1 4.71688 17.2973 14.1511 -8.94888
565 1 6.2919 15.7217 12.5794 -8.94509
566 1 7.8628 17.2982 14.152 -8.95185
567 1 9.43986 15.7207 12.5794 -9.00328
568 1 11.0104 17.305 14.1533 -8.95927
569 1 12.5905 15.7348 12.5794 -8.94205
570 1 14.1562 17.3008 14.1533 -8.9476
571 1 15.7291 15.7269 12.5794 -8.94906
572 1 17.2987 17.2979 14.1523 -8.94928
573 1 18.8704 15.725 12.5794 -8.94999
574 1 20.4417 17.2973 14.1519 -8.94956
575 1 22.0137 18.8696 12.5794 -8.94956
576 1 1.5721 20.4418 14.1518 -8.94955
577 1 3.14431 18.8698 12.5794 -8.94964
578 1 4.71692 20.4418 14.1516 -8.94935
579 1 6.28958 18.8691 12.5794 -8.9482
580 1 7.862 20.442 14.1517 -8.94943
581 1 9.43484 18.8699 12.5794 -8.94633
582 1 11.0073 20.4432 14.152 -8.95145
583 1 12.5822 18.8732 12.5794 -8.94959
584 1 14.1533 20.4428 14.1523 -8.9494
585 1 15.7262 18.8707 12.5794 -8.94945
586 1 17.2976 20.442 14.152 -8.94948
587 1 18.8698 18.8697 12.5794 -8.9495
588 1 20.4417 20.4418 14.1519 -8.94955
589 1 1.56752 11.007 17.2993 -8.94906
590 1 4.70613 11.007 17.3072 -8.94205
591 1 7.85678 11.007 17.2931 -9.00328
592 1 11.0047 11.007 17.2941 -8.94509
593 1 14.1532 11.007 17.2982 -8.94648
594 1 17.2972 11.007 17.2975 -8.94955
595 1 20.4402 11.007 17.2974 -8.94999
596 1 22.0113 12.5797 15.7246 -8.95181
597 1 1.56777 14.154 17.2989 -8.9509
598 1 3.13445 12.5819 15.7284 -8.95827
599 1 4.70387 14.164 17.3096 -8.92997
600 1 6.24889 12.6127 15.7616 -8.85433
601 1 7.86102 14.1573 17.3059 -8.9509
602 1 9.44923 12.6036 15.7323 -8.90434
603 1 11.0135 14.1589 17.3073 -8.95314
604 1 12.5825 12.5771 15.7247 -8.95295
605 1 14.1543 14.152 17.2984 -8.95169
606 1 15.7256 12.5787 15.7248 -8.94979
607 1 17.2974 14.1518 17.2973 -8.94987
608 1 18.869 12.5793 15.7245 -8.9499
609 1 20.4404 14.1522 17.2972 -8.95025
610 1 22.0131 15.7248 15.7242 -8.94987
611 1 1.57113 17.2979 17.2971 -8.95044
612 1 3.14236 15.726 15.7244 -8.95169
613 1 4.71404 17.3015 17.2996 -8.94985
614 1 6.28318 15.7349 15.7313 -8.95314
615 1 7.86148 17.3002 17.2994 -8.94772
616 1 9.43561 15.7334 15.7297 -8.9509
617 1 11.0085 17.3006 17.2997 -8.94916
618 1 12.5928 15.7372 15.7364 -8.92997
619 1 14.1565 17.301 17.3011 -8.94453
620 1 15.7289 15.7265 15.7264 -8.9509
621 1 17.2984 17.2977 17.2978 -8.94969
622 1 18.8701 15.7248 15.7246 -8.95025
623 1 20.4415 17.2972 17.297 -8.94988
624 1 -0.000195889 18.8696 15.7243 -8.94942
625 1 1.57209 20.4419 17.2967 -8.94974
626 1 3.14433 18.8699 15.724 -8.94964
627 1 4.71665 20.4425 17.2971 -8.95071
628 1 6.2892 18.8714 15.7246 -8.95255
629 1 7.86173 20.4425 17.2975 -8.94966
630 1 9.43444 18.872 15.7255 -8.95063
631 1 11.0072 20.4426 17.2976 -8.94973
632 1 12.5815 18.873 15.7261 -8.95156
633 1 14.153 20.4427 17.2979 -8.95
634 1 15.7261 18.8706 15.7252 -8.94918
635 1 17.2975 20.4419 17.2972 -8.94946
636 1 18.8698 18.8697 15.7246 -8.94944
637 1 20.4416 20.4417 17.2968 -8.94951
638 1 1.57042 11.007 20.4431 -8.94945
639 1 4.71445 11.007 20.4456 -8.94959
640 1 7.86179 11.007 20.4423 -8.94633
641 1 11.0071 11.007 20.4415 -8.9482
642 1 14.1523 11.007 20.4422 -8.94964
643 1 17.2968 11.007 20.442 -8.94956
644 1 20.4407 11.007 20.4421 -8.9495
645 1 -0.00202533 12.5799 18.8703 -8.94928
646 1 1.57054 14.1528 20.4431 -8.94918
647 1 3.14044 12.5809 18.8732 -8.9476
648 1 4.71512 14.1537 20.4454 -8.95156
649 1 6.28621 12.5809 18.8774 -8.95927
650 1 7.86219 14.153 20.4444 -8.95063
651 1 9.43383 12.5796 18.8706 -8.95185
652 1 11.0074 14.1522 20.4438 -8.95255
653 1 12.5798 12.5787 18.8698 -8.94888
654 1 14.1523 14.1516 20.4423 -8.94964
655 1 15.7249 12.5793 18.87 -8.94898
656 1 17.2968 14.1519 20.442 -8.94942
657 1 18.8688 12.5795 18.8697 -8.94956
658 1 20.4408 14.1521 20.4421 -8.94944
659 1 22.0121 15.7254 18.8702 -8.94969
660 1 1.57076 17.2983 20.4429 -8.94821
661 1 3.14017 15.7287 18.8734 -8.94453
662 1 4.71633 17.2982 20.4431 -8.94964
663 1 6.28809 15.7272 18.873 -8.94916
371 1 9.4349 15.7251 22.0149 -8.94966
353 1 3.14335 12.5799 22.0153 -8.9494
361 1 15.7245 12.5794 22.0142 -8.94955
369 1 6.28945 15.7252 22.0151 -8.94973
365 1 -0.000860377 15.7248 22.0144 -8.94946
381 1 3.1443 18.8698 22.0144 -8.94961
387 1 12.5798 18.8696 22.0144 -8.94948
537 1 14.1533 20.4428 11.0064 -8.9494
530 1 14.1562 17.3008 11.0054 -8.9476
