ITEM: TIMESTEP
51
ITEM: NUMBER OF ATOMS
687
ITEM: BOX BOUNDS pp pp pp
0.0000000000000000e+00 2.2013900999999997e+01
0.0000000000000000e+00 2.2013900999999997e+01
0.0000000000000000e+00 2.2013900999999997e+01
ITEM: ATOMS id type x y z c_pot
1 1 22.0139 -1.6302e-15 2.18469e-08 -8.94963
2 1 1.57242 1.57242 1.57242 -8.94963
196 1 20.4415 7.86211 11.0069 -8.94965
4 1 4.71726 1.57242 1.57242 -8.94963
5 1 6.28969 -1.35529e-15 4.13643e-09 -8.94963
6 1 7.86211 1.57242 1.57242 -8.94963
175 1 18.8691 9.43453 9.43453 -8.94965
8 1 11.007 1.57242 1.57242 -8.94963
9 1 12.5794 6.24049e-16 2.18316e-08 -8.94963
10 1 14.1518 1.57242 1.57242 -8.94963
195 1 17.2967 7.8621 11.0069 -8.94985
12 1 17.2966 1.57242 1.57242 -8.94963
13 1 18.8691 3.73069e-16 6.67262e-09 -8.94963
14 1 20.4415 1.57242 1.57242 -8.94963
15 1 22.0139 3.14484 1.34499e-07 -8.94963
16 1 1.57242 4.71726 1.57242 -8.94963
194 1 14.1528 7.86181 11.0067 -8.95198
18 1 4.71726 4.71726 1.57242 -8.94963
174 1 15.7243 9.43453 9.43449 -8.94961
20 1 7.86211 4.71726 1.57242 -8.94963
173 1 12.5801 9.43463 9.43408 -8.9493
22 1 11.007 4.71726 1.57242 -8.94963
193 1 11.0204 7.8494 10.994 -8.88174
24 1 14.1518 4.71726 1.57242 -8.94963
25 1 15.7242 3.14484 3.25331e-07 -8.94963
26 1 17.2966 4.71726 1.57242 -8.94963
27 1 18.8691 3.14484 3.49158e-09 -8.94963
28 1 20.4415 4.71726 1.57242 -8.94963
192 1 7.8578 7.85943 11.0018 -8.92806
30 1 1.57242 7.86211 1.57242 -8.94963
31 1 3.14484 6.28968 6.747e-06 -8.94962
32 1 4.71726 7.8621 1.57242 -8.94966
172 1 9.43883 9.42942 9.43185 -8.92806
34 1 7.86211 7.86211 1.57242 -8.94964
171 1 6.27619 9.42154 9.42182 -8.88174
36 1 11.007 7.8621 1.57242 -8.94965
37 1 12.5794 6.28968 6.22176e-06 -8.94964
38 1 14.1518 7.86211 1.57242 -8.94963
39 1 15.7242 6.28969 -1.575e-07 -8.94963
40 1 17.2966 7.86211 1.57242 -8.94963
41 1 18.8691 6.28969 -1.79267e-08 -8.94963
42 1 20.4415 7.86211 1.57242 -8.94963
170 1 3.14379 9.43424 9.43424 -8.95198
169 1 22.0138 9.43452 9.43452 -8.94985
45 1 6.28967 9.43451 6.61571e-05 -8.94985
46 1 9.43455 9.43451 4.2206e-05 -8.94967
47 1 12.5794 9.43453 1.01891e-06 -8.94965
168 1 18.8691 6.28968 9.43453 -8.94965
167 1 15.7243 6.28964 9.43449 -8.94972
50 1 22.0139 -1.2829e-15 3.14484 -8.94963
51 1 1.57242 1.57242 4.71726 -8.94963
52 1 3.14484 -5.03367e-16 3.14484 -8.94963
53 1 4.71726 1.57242 4.71726 -8.94963
54 1 6.28969 -1.23595e-15 3.14484 -8.94963
55 1 7.86211 1.57242 4.71726 -8.94963
56 1 9.43453 -4.14612e-16 3.14484 -8.94963
57 1 11.007 1.57242 4.71726 -8.94963
58 1 12.5794 4.33531e-16 3.14484 -8.94963
59 1 14.1518 1.57242 4.71726 -8.94964
60 1 15.7242 4.58231e-16 3.14484 -8.94963
61 1 17.2966 1.57242 4.71726 -8.94963
62 1 18.8691 -3.51476e-17 3.14484 -8.94963
63 1 20.4415 1.57242 4.71726 -8.94963
64 1 22.0139 3.14484 3.14484 -8.94963
65 1 1.57242 4.71726 4.71726 -8.9496
66 1 3.14484 3.14484 3.14484 -8.94964
67 1 4.71727 4.71727 4.71727 -8.94969
68 1 6.28969 3.14484 3.14484 -8.94963
69 1 7.86211 4.71726 4.71726 -8.94964
70 1 9.43453 3.14484 3.14484 -8.94963
71 1 11.0069 4.71726 4.71727 -8.94964
72 1 12.5794 3.14484 3.14484 -8.94963
73 1 14.1518 4.71726 4.71726 -8.94962
74 1 15.7242 3.14484 3.14484 -8.94963
75 1 17.2966 4.71726 4.71726 -8.94964
76 1 18.8691 3.14484 3.14484 -8.94963
77 1 20.4415 4.71726 4.71726 -8.94963
78 1 2.54923e-07 6.28969 3.14484 -8.94964
79 1 1.57242 7.86211 4.71727 -8.94968
80 1 3.14484 6.28968 3.14484 -8.94962
81 1 4.71721 7.86206 4.71716 -8.94968
82 1 6.28969 6.28969 3.14484 -8.94963
83 1 7.86212 7.86209 4.71723 -8.94962
84 1 9.43453 6.28968 3.14484 -8.94963
85 1 11.007 7.86207 4.71718 -8.94977
86 1 12.5794 6.28968 3.14484 -8.94964
87 1 14.1518 7.86211 4.71726 -8.94964
88 1 15.7242 6.28969 3.14484 -8.94963
89 1 17.2966 7.86211 4.71726 -8.94963
90 1 18.8691 6.28969 3.14484 -8.94963
91 1 20.4415 7.86211 4.71726 -8.94963
92 1 22.0139 9.43453 3.14484 -8.94963
93 1 3.14484 9.43453 3.14484 -8.94963
94 1 6.28967 9.43451 3.14478 -8.94985
95 1 9.43455 9.43451 3.1448 -8.94967
96 1 12.5794 9.43453 3.14484 -8.94965
97 1 15.7242 9.43453 3.14484 -8.94963
98 1 18.8691 9.43453 3.14484 -8.94963
99 1 22.0139 1.53815e-15 6.28969 -8.94963
100 1 1.57242 1.57242 7.86211 -8.94963
101 1 3.14484 4.40042e-16 6.28969 -8.94963
102 1 4.71726 1.57242 7.8621 -8.94964
103 1 6.28969 5.44706e-16 6.28969 -8.94963
104 1 7.86211 1.57242 7.86211 -8.94963
105 1 9.43453 -1.38234e-15 6.28969 -8.94963
106 1 11.0069 1.57242 7.86211 -8.94963
107 1 12.5794 -2.35926e-16 6.28969 -8.94963
108 1 14.1518 1.57241 7.8621 -8.94962
109 1 15.7242 1.87453e-15 6.28969 -8.94963
110 1 17.2966 1.57242 7.86211 -8.94964
111 1 18.8691 8.17313e-16 6.28969 -8.94963
112 1 20.4415 1.57242 7.86211 -8.94963
113 1 22.0139 3.14484 6.28969 -8.94964
114 1 1.57242 4.71727 7.86211 -8.94967
115 1 3.14484 3.14484 6.28968 -8.94962
116 1 4.71722 4.71716 7.86206 -8.94966
117 1 6.28969 3.14484 6.28969 -8.94964
118 1 7.86211 4.71723 7.86207 -8.94955
119 1 9.43453 3.14484 6.28969 -8.94964
120 1 11.0069 4.71727 7.86211 -8.94999
121 1 12.5794 3.14485 6.28969 -8.94969
122 1 14.1519 4.71718 7.86203 -8.94908
123 1 15.7242 3.14484 6.28968 -8.9496
124 1 17.2966 4.71726 7.8621 -8.94963
125 1 18.8691 3.14484 6.28969 -8.94963
126 1 20.4415 4.71726 7.86211 -8.94963
127 1 22.0139 6.28968 6.28968 -8.94963
128 1 1.57233 7.86207 7.86207 -8.94972
129 1 3.14476 6.2896 6.2896 -8.94908
130 1 4.71606 7.86087 7.8609 -8.94301
131 1 6.2897 6.28969 6.28969 -8.94999
132 1 7.86235 7.86193 7.86158 -8.9514
133 1 9.43452 6.28965 6.28965 -8.94955
134 1 11.0074 7.86169 7.86098 -8.95134
135 1 12.5794 6.28964 6.28958 -8.94966
136 1 14.1518 7.8621 7.86209 -8.94988
137 1 15.7242 6.28969 6.28969 -8.94967
138 1 17.2966 7.86211 7.86211 -8.94963
139 1 18.8691 6.28969 6.28969 -8.94963
140 1 20.4415 7.86211 7.86211 -8.94965
141 1 -5.69459e-08 9.43453 6.28969 -8.94963
142 1 3.14483 9.43453 6.28968 -8.94984
143 1 6.2893 9.43415 6.28857 -8.95164
144 1 9.43485 9.43422 6.28915 -8.94892
145 1 12.5794 9.43455 6.28965 -8.94977
146 1 15.7242 9.43453 6.28969 -8.94965
147 1 18.8691 9.43453 6.28969 -8.94963
148 1 1.20728e-08 1.6935e-15 9.43453 -8.94963
149 1 3.14484 1.95039e-15 9.43453 -8.94963
150 1 6.28968 2.03795e-15 9.43453 -8.94965
151 1 9.43453 -2.66935e-16 9.43453 -8.94964
152 1 12.5794 -7.87181e-16 9.43452 -8.94966
153 1 15.7242 5.63503e-16 9.43453 -8.94963
154 1 18.8691 1.0646e-15 9.43453 -8.94963
155 1 1.31435e-07 3.14484 9.43453 -8.94963
156 1 3.14484 3.14484 9.43453 -8.94964
157 1 6.28965 3.14476 9.4345 -8.94977
158 1 9.43451 3.1448 9.43451 -8.94962
159 1 12.5794 3.14474 9.43448 -8.94968
160 1 15.7242 3.14485 9.43453 -8.94968
161 1 18.8691 3.14484 9.43453 -8.94963
162 1 22.0139 6.28968 9.43453 -8.94963
163 1 3.14482 6.28967 9.43452 -8.94988
164 1 6.28925 6.28856 9.43411 -8.95134
165 1 9.43429 6.28916 9.43435 -8.9514
166 1 12.5806 6.28848 9.4333 -8.94301
177 1 4.71726 1.57242 11.007 -8.94965
178 1 7.86209 1.57238 11.0069 -8.94967
179 1 11.007 1.57236 11.0069 -8.94985
191 1 4.71655 7.86166 11.0071 -8.9493
181 1 17.2966 1.57242 11.007 -8.94963
182 1 20.4415 1.57242 11.007 -8.94963
184 1 4.71724 4.71722 11.007 -8.94977
185 1 7.86179 4.71673 11.0066 -8.94892
186 1 11.0073 4.71615 11.0066 -8.95164
190 1 1.57235 7.86207 11.0069 -8.94961
19 1 6.28969 3.14484 1.14967e-07 -8.94963
49 1 18.8691 9.43453 6.81375e-09 -8.94963
21 1 9.43453 3.14484 -4.75315e-08 -8.94963
43 1 22.0139 9.43453 1.6324e-08 -8.94963
176 1 1.57242 1.57242 11.007 -8.94963
343 1 18.8691 9.43453 18.8691 -8.94963
342 1 15.7242 9.43453 18.8691 -8.94965
341 1 12.5794 9.43455 18.8691 -8.94977
340 1 9.43485 9.43422 18.8696 -8.94892
339 1 6.2893 9.43415 18.8702 -8.95164
338 1 3.14483 9.43453 18.8691 -8.94984
183 1 1.57242 4.71727 11.007 -8.94965
337 1 -5.69459e-08 9.43453 18.8691 -8.94963
336 1 20.4415 7.86211 20.4415 -8.94963
335 1 18.8691 6.28969 18.8691 -8.94963
334 1 17.2966 7.86211 20.4415 -8.94963
188 1 17.2966 4.71726 11.007 -8.94963
189 1 20.4415 4.71726 11.007 -8.94963
333 1 15.7242 6.28969 18.8691 -8.94967
332 1 14.1518 7.86211 20.4415 -8.94964
331 1 12.5794 6.28964 18.8692 -8.94966
330 1 11.007 7.86207 20.4416 -8.94977
329 1 9.43452 6.28965 18.8691 -8.94955
328 1 7.86212 7.86209 20.4415 -8.94962
327 1 6.2897 6.28969 18.8691 -8.94999
197 1 3.13121e-08 1.16081e-15 12.5794 -8.94963
198 1 1.57242 1.57242 14.1518 -8.94963
199 1 3.14484 2.15151e-15 12.5794 -8.94963
200 1 4.71726 1.57242 14.1518 -8.94965
201 1 6.28969 1.34762e-15 12.5794 -8.94963
202 1 7.86209 1.57238 14.1518 -8.94967
203 1 9.43453 4.60523e-16 12.5794 -8.94994
204 1 11.007 1.57236 14.1518 -8.94985
205 1 12.5794 -2.95226e-16 12.5794 -8.94964
206 1 14.1518 1.57242 14.1518 -8.94963
207 1 15.7242 3.93604e-16 12.5794 -8.94963
208 1 17.2966 1.57242 14.1518 -8.94963
209 1 18.8691 1.07672e-15 12.5794 -8.94963
210 1 20.4415 1.57242 14.1518 -8.94963
211 1 22.0139 3.14484 12.5794 -8.94964
212 1 1.57242 4.71727 14.1518 -8.94965
213 1 3.14484 3.14484 12.5794 -8.94962
214 1 4.71724 4.71722 14.1518 -8.94977
215 1 6.28968 3.14483 12.5794 -8.94961
216 1 7.86179 4.71673 14.1521 -8.94892
217 1 9.43451 3.14421 12.5794 -8.95145
218 1 11.0073 4.71615 14.1522 -8.95164
219 1 12.5794 3.14478 12.5794 -8.94955
220 1 14.1518 4.71726 14.1518 -8.94984
221 1 15.7242 3.14484 12.5794 -8.94966
222 1 17.2966 4.71726 14.1518 -8.94963
223 1 18.8691 3.14484 12.5794 -8.94963
224 1 20.4415 4.71726 14.1518 -8.94963
225 1 -1.52049e-06 6.28968 12.5794 -8.94962
226 1 1.57235 7.86207 14.1518 -8.94961
227 1 3.14482 6.28964 12.5794 -8.94933
228 1 4.71655 7.86166 14.1517 -8.9493
229 1 6.28983 6.28953 12.5794 -8.95097
230 1 7.8578 7.85943 14.1569 -8.92806
231 1 9.43503 6.28245 12.5794 -8.98209
232 1 11.0204 7.8494 14.1648 -8.88174
233 1 12.58 6.28904 12.5794 -8.95011
234 1 14.1528 7.86181 14.1521 -8.95198
235 1 15.7243 6.28966 12.5794 -8.94955
236 1 17.2967 7.8621 14.1518 -8.94985
237 1 18.8691 6.28968 12.5794 -8.94964
238 1 20.4415 7.86211 14.1518 -8.94965
239 1 22.0138 9.43451 12.5794 -8.94965
240 1 3.14426 9.43416 12.5794 -8.9479
241 1 6.28896 9.4326 12.5794 -8.90524
242 1 9.50879 9.26449 12.5794 -8.05387
243 1 12.5858 9.43338 12.5794 -8.96644
244 1 15.7247 9.43455 12.5794 -8.95116
245 1 18.8691 9.43453 12.5794 -8.94974
246 1 1.20728e-08 1.80064e-15 15.7242 -8.94963
247 1 1.57242 1.57242 17.2966 -8.94963
248 1 3.14484 1.94419e-15 15.7242 -8.94963
249 1 4.71726 1.57242 17.2966 -8.94964
250 1 6.28968 1.8767e-15 15.7242 -8.94965
251 1 7.86211 1.57242 17.2966 -8.94963
252 1 9.43453 -5.57756e-16 15.7242 -8.94964
253 1 11.0069 1.57242 17.2966 -8.94963
254 1 12.5794 -1.01359e-15 15.7242 -8.94966
255 1 14.1518 1.57241 17.2966 -8.94962
256 1 15.7242 6.00103e-16 15.7242 -8.94963
257 1 17.2966 1.57242 17.2966 -8.94964
258 1 18.8691 1.16892e-15 15.7242 -8.94963
259 1 20.4415 1.57242 17.2966 -8.94963
260 1 1.31435e-07 3.14484 15.7242 -8.94963
261 1 1.57242 4.71727 17.2966 -8.94967
262 1 3.14484 3.14484 15.7242 -8.94964
263 1 4.71722 4.71716 17.2967 -8.94966
264 1 6.28965 3.14476 15.7242 -8.94977
265 1 7.86211 4.71723 17.2967 -8.94955
266 1 9.43451 3.1448 15.7242 -8.94962
267 1 11.0069 4.71727 17.2966 -8.94999
268 1 12.5794 3.14474 15.7243 -8.94968
269 1 14.1519 4.71718 17.2967 -8.94908
270 1 15.7242 3.14485 15.7242 -8.94968
271 1 17.2966 4.71726 17.2966 -8.94963
272 1 18.8691 3.14484 15.7242 -8.94963
273 1 20.4415 4.71726 17.2966 -8.94963
274 1 22.0139 6.28968 15.7242 -8.94963
275 1 1.57233 7.86207 17.2967 -8.94972
276 1 3.14482 6.28967 15.7242 -8.94988
277 1 4.71606 7.86087 17.2978 -8.94301
278 1 6.28925 6.28856 15.7246 -8.95134
279 1 7.86235 7.86193 17.2972 -8.9514
280 1 9.43429 6.28916 15.7244 -8.9514
281 1 11.0074 7.86169 17.2978 -8.95134
282 1 12.5806 6.28848 15.7254 -8.94301
283 1 14.1518 7.8621 17.2967 -8.94988
284 1 15.7243 6.28964 15.7243 -8.94972
285 1 17.2966 7.86211 17.2966 -8.94963
286 1 18.8691 6.28968 15.7242 -8.94965
287 1 20.4415 7.86211 17.2966 -8.94965
288 1 22.0138 9.43452 15.7242 -8.94985
289 1 3.14379 9.43424 15.7245 -8.95198
290 1 6.27619 9.42154 15.7369 -8.88174
291 1 9.43883 9.42942 15.7269 -8.92806
292 1 12.5801 9.43463 15.7247 -8.9493
293 1 15.7243 9.43453 15.7243 -8.94961
294 1 18.8691 9.43453 15.7242 -8.94965
295 1 22.0139 1.30407e-15 18.8691 -8.94963
296 1 1.57242 1.57242 20.4415 -8.94963
297 1 3.14484 6.14131e-16 18.8691 -8.94963
298 1 4.71726 1.57242 20.4415 -8.94963
299 1 6.28969 1.11439e-15 18.8691 -8.94963
300 1 7.86211 1.57242 20.4415 -8.94963
301 1 9.43453 -1.57656e-15 18.8691 -8.94963
302 1 11.007 1.57242 20.4415 -8.94963
303 1 12.5794 -2.5191e-16 18.8691 -8.94963
304 1 14.1518 1.57242 20.4415 -8.94964
305 1 15.7242 1.80134e-15 18.8691 -8.94963
306 1 17.2966 1.57242 20.4415 -8.94963
307 1 18.8691 6.62081e-16 18.8691 -8.94963
308 1 20.4415 1.57242 20.4415 -8.94963
309 1 22.0139 3.14484 18.8691 -8.94964
310 1 1.57242 4.71726 20.4415 -8.9496
311 1 3.14484 3.14484 18.8691 -8.94962
312 1 4.71727 4.71727 20.4415 -8.94969
313 1 6.28969 3.14484 18.8691 -8.94964
314 1 7.86211 4.71726 20.4415 -8.94964
315 1 9.43453 3.14484 18.8691 -8.94964
316 1 11.0069 4.71726 20.4415 -8.94964
317 1 12.5794 3.14485 18.8691 -8.94969
318 1 14.1518 4.71726 20.4415 -8.94962
319 1 15.7242 3.14484 18.8691 -8.9496
320 1 17.2966 4.71726 20.4415 -8.94964
321 1 18.8691 3.14484 18.8691 -8.94963
322 1 20.4415 4.71726 20.4415 -8.94963
323 1 22.0139 6.28968 18.8691 -8.94963
324 1 1.57242 7.86211 20.4415 -8.94968
325 1 3.14476 6.2896 18.8691 -8.94908
326 1 4.71721 7.86206 20.4416 -8.94968
7 1 9.43453 -3.22248e-16 22.0139 -8.94963
48 1 15.7242 9.43453 22.0139 -8.94963
44 1 3.14484 9.43453 22.0139 -8.94963
33 1 6.28969 6.28969 22.0139 -8.94963
35 1 9.43453 6.28968 22.0139 -8.94963
3 1 3.14484 -8.74155e-16 22.0139 -8.94963
11 1 15.7242 4.8655e-16 22.0139 -8.94963
17 1 3.14484 3.14484 22.0139 -8.94964
23 1 12.5794 3.14484 22.0139 -8.94963
29 1 2.54923e-07 6.28969 22.0139 -8.94964
180 1 14.1518 1.57242 11.007 -8.94963
187 1 14.1518 4.71726 11.007 -8.94984
344 1 1.57242 11.007 1.57242 -8.94963
345 1 4.71726 11.007 1.57242 -8.94964
346 1 7.86211 11.007 1.57242 -8.94994
347 1 11.007 11.007 1.57242 -8.94963
348 1 14.1518 11.007 1.57242 -8.94963
349 1 17.2966 11.007 1.57242 -8.94963
350 1 20.4415 11.007 1.57242 -8.94963
511 1 18.8691 18.8691 9.43453 -8.94963
352 1 1.57242 14.1518 1.57242 -8.94963
510 1 15.7242 18.8691 9.43453 -8.94968
354 1 4.71726 14.1518 1.57242 -8.94966
355 1 6.28967 12.5794 6.61571e-05 -8.94985
356 1 7.86211 14.1518 1.57242 -8.94964
357 1 9.43455 12.5794 4.2206e-05 -8.94967
358 1 11.007 14.1518 1.57242 -8.94965
359 1 12.5794 12.5794 1.01891e-06 -8.94965
360 1 14.1518 14.1518 1.57242 -8.94963
509 1 12.5794 18.8692 9.43448 -8.94968
362 1 17.2966 14.1518 1.57242 -8.94963
508 1 9.43451 18.8691 9.43451 -8.94962
364 1 20.4415 14.1518 1.57242 -8.94963
539 1 20.4415 20.4415 11.007 -8.94963
366 1 1.57242 17.2966 1.57242 -8.94963
367 1 3.14484 15.7242 6.747e-06 -8.94962
368 1 4.71726 17.2966 1.57242 -8.94963
507 1 6.28965 18.8691 9.4345 -8.94977
370 1 7.86211 17.2966 1.57242 -8.94963
506 1 3.14484 18.8691 9.43453 -8.94964
372 1 11.007 17.2966 1.57242 -8.94963
373 1 12.5794 15.7242 6.22176e-06 -8.94964
374 1 14.1518 17.2966 1.57242 -8.94963
375 1 15.7242 15.7242 -1.575e-07 -8.94963
376 1 17.2966 17.2966 1.57242 -8.94963
377 1 18.8691 15.7242 -1.79267e-08 -8.94963
378 1 20.4415 17.2966 1.57242 -8.94963
379 1 22.0139 18.8691 1.34499e-07 -8.94963
380 1 1.57242 20.4415 1.57242 -8.94963
538 1 17.2966 20.4415 11.007 -8.94963
382 1 4.71726 20.4415 1.57242 -8.94963
505 1 1.31435e-07 18.8691 9.43453 -8.94963
384 1 7.86211 20.4415 1.57242 -8.94963
504 1 18.8691 15.7242 9.43453 -8.94965
386 1 11.007 20.4415 1.57242 -8.94963
536 1 11.007 20.4415 11.0069 -8.94985
388 1 14.1518 20.4415 1.57242 -8.94963
389 1 15.7242 18.8691 3.25331e-07 -8.94963
390 1 17.2966 20.4415 1.57242 -8.94963
391 1 18.8691 18.8691 3.49158e-09 -8.94963
392 1 20.4415 20.4415 1.57242 -8.94963
393 1 1.57242 11.007 4.71727 -8.94966
394 1 4.71723 11.007 4.7172 -8.94955
395 1 7.86213 11.007 4.71664 -8.95145
396 1 11.007 11.007 4.71725 -8.94961
397 1 14.1518 11.007 4.71726 -8.94962
398 1 17.2966 11.007 4.71726 -8.94964
399 1 20.4415 11.007 4.71726 -8.94963
400 1 22.0139 12.5794 3.14484 -8.94963
401 1 1.57242 14.1518 4.71727 -8.94968
402 1 3.14484 12.5794 3.14484 -8.94963
403 1 4.71721 14.1518 4.71716 -8.94968
404 1 6.28967 12.5794 3.14478 -8.94985
405 1 7.86212 14.1518 4.71723 -8.94962
406 1 9.43455 12.5794 3.1448 -8.94967
407 1 11.007 14.1518 4.71718 -8.94977
408 1 12.5794 12.5794 3.14484 -8.94965
409 1 14.1518 14.1518 4.71726 -8.94964
410 1 15.7242 12.5794 3.14484 -8.94963
411 1 17.2966 14.1518 4.71726 -8.94963
412 1 18.8691 12.5794 3.14484 -8.94963
413 1 20.4415 14.1518 4.71726 -8.94963
414 1 2.54923e-07 15.7242 3.14484 -8.94964
415 1 1.57242 17.2966 4.71726 -8.9496
416 1 3.14484 15.7242 3.14484 -8.94962
417 1 4.71727 17.2966 4.71727 -8.94969
418 1 6.28969 15.7242 3.14484 -8.94963
419 1 7.86211 17.2966 4.71726 -8.94964
420 1 9.43453 15.7242 3.14484 -8.94963
421 1 11.0069 17.2966 4.71727 -8.94964
422 1 12.5794 15.7242 3.14484 -8.94964
423 1 14.1518 17.2966 4.71726 -8.94962
424 1 15.7242 15.7242 3.14484 -8.94963
425 1 17.2966 17.2966 4.71726 -8.94964
426 1 18.8691 15.7242 3.14484 -8.94963
427 1 20.4415 17.2966 4.71726 -8.94963
428 1 22.0139 18.8691 3.14484 -8.94963
429 1 1.57242 20.4415 4.71726 -8.94963
430 1 3.14484 18.8691 3.14484 -8.94964
431 1 4.71726 20.4415 4.71726 -8.94963
432 1 6.28969 18.8691 3.14484 -8.94963
433 1 7.86211 20.4415 4.71726 -8.94963
434 1 9.43453 18.8691 3.14484 -8.94963
435 1 11.007 20.4415 4.71726 -8.94963
436 1 12.5794 18.8691 3.14484 -8.94963
437 1 14.1518 20.4415 4.71726 -8.94964
438 1 15.7242 18.8691 3.14484 -8.94963
439 1 17.2966 20.4415 4.71726 -8.94963
440 1 18.8691 18.8691 3.14484 -8.94963
441 1 20.4415 20.4415 4.71726 -8.94963
442 1 1.57237 11.007 7.86208 -8.94955
443 1 4.71667 11.007 7.86146 -8.95011
444 1 7.8616 11.007 7.85487 -8.98209
445 1 11.0068 11.007 7.86195 -8.95097
446 1 14.1518 11.007 7.86206 -8.94933
447 1 17.2966 11.007 7.86211 -8.94962
448 1 20.4415 11.007 7.86211 -8.94964
449 1 -5.69459e-08 12.5794 6.28969 -8.94963
450 1 1.57233 14.1518 7.86207 -8.94972
451 1 3.14483 12.5794 6.28968 -8.94984
452 1 4.71606 14.153 7.8609 -8.94301
453 1 6.2893 12.5798 6.28857 -8.95164
454 1 7.86235 14.152 7.86158 -8.9514
455 1 9.43485 12.5797 6.28915 -8.94892
456 1 11.0074 14.1522 7.86098 -8.95134
457 1 12.5794 12.5793 6.28965 -8.94977
458 1 14.1518 14.1518 7.86209 -8.94988
459 1 15.7242 12.5794 6.28969 -8.94965
460 1 17.2966 14.1518 7.86211 -8.94963
461 1 18.8691 12.5794 6.28969 -8.94963
462 1 20.4415 14.1518 7.86211 -8.94965
463 1 22.0139 15.7242 6.28968 -8.94963
464 1 1.57242 17.2966 7.86211 -8.94967
465 1 3.14476 15.7243 6.2896 -8.94908
466 1 4.71722 17.2967 7.86206 -8.94966
467 1 6.2897 15.7242 6.28969 -8.94999
468 1 7.86211 17.2967 7.86207 -8.94955
469 1 9.43452 15.7243 6.28965 -8.94955
470 1 11.0069 17.2966 7.86211 -8.94999
471 1 12.5794 15.7243 6.28958 -8.94966
472 1 14.1519 17.2967 7.86203 -8.94908
473 1 15.7242 15.7242 6.28969 -8.94967
474 1 17.2966 17.2966 7.8621 -8.94963
475 1 18.8691 15.7242 6.28969 -8.94963
476 1 20.4415 17.2966 7.86211 -8.94963
477 1 22.0139 18.8691 6.28969 -8.94964
478 1 1.57242 20.4415 7.86211 -8.94963
479 1 3.14484 18.8691 6.28968 -8.94962
480 1 4.71726 20.4415 7.8621 -8.94964
481 1 6.28969 18.8691 6.28969 -8.94964
482 1 7.86211 20.4415 7.86211 -8.94963
483 1 9.43453 18.8691 6.28969 -8.94964
484 1 11.0069 20.4415 7.86211 -8.94963
485 1 12.5794 18.8691 6.28969 -8.94969
486 1 14.1518 20.4415 7.8621 -8.94962
487 1 15.7242 18.8691 6.28968 -8.9496
488 1 17.2966 20.4415 7.86211 -8.94964
489 1 18.8691 18.8691 6.28969 -8.94963
490 1 20.4415 20.4415 7.86211 -8.94963
491 1 22.0138 12.5794 9.43452 -8.94985
492 1 3.14379 12.5797 9.43424 -8.95198
493 1 6.27619 12.5924 9.42182 -8.88174
494 1 9.43883 12.5845 9.43185 -8.92806
495 1 12.5801 12.5793 9.43408 -8.9493
496 1 15.7243 12.5794 9.43449 -8.94961
497 1 18.8691 12.5794 9.43453 -8.94965
498 1 22.0139 15.7242 9.43453 -8.94963
499 1 3.14482 15.7242 9.43452 -8.94988
500 1 6.28925 15.7253 9.43411 -8.95134
501 1 9.43429 15.7247 9.43435 -8.9514
502 1 12.5806 15.7254 9.4333 -8.94301
503 1 15.7243 15.7243 9.43449 -8.94972
512 1 1.57197 11.007 11.007 -8.95116
513 1 4.71083 11.007 11.0058 -8.96644
514 1 7.78785 11.007 10.8369 -8.05387
515 1 11.0077 11.007 11.005 -8.90524
516 1 14.1524 11.007 11.0066 -8.9479
517 1 17.2967 11.007 11.0069 -8.94965
518 1 20.4415 11.007 11.007 -8.94974
519 1 1.57235 14.1518 11.0069 -8.94961
520 1 4.71655 14.1522 11.0071 -8.9493
521 1 7.8578 14.1545 11.0018 -8.92806
522 1 11.0204 14.1645 10.994 -8.88174
523 1 14.1528 14.1521 11.0067 -8.95198
524 1 17.2967 14.1518 11.0069 -8.94985
525 1 20.4415 14.1518 11.0069 -8.94965
527 1 4.71724 17.2967 11.007 -8.94977
528 1 7.86179 17.2972 11.0066 -8.94892
529 1 11.0073 17.2978 11.0066 -8.95164
535 1 7.86209 20.4415 11.0069 -8.94967
534 1 4.71726 20.4415 11.007 -8.94965
351 1 22.0139 12.5794 1.6324e-08 -8.94963
385 1 9.43453 18.8691 -4.75315e-08 -8.94963
383 1 6.28969 18.8691 1.14967e-07 -8.94963
363 1 18.8691 12.5794 6.81375e-09 -8.94963
687 3 8.64832 11.007 12.5794 2.71741
686 1 20.4415 20.4415 20.4415 -8.94963
685 1 18.8691 18.8691 18.8691 -8.94963
684 1 17.2966 20.4415 20.4415 -8.94963
683 1 15.7242 18.8691 18.8691 -8.9496
682 1 14.1518 20.4415 20.4415 -8.94964
681 1 12.5794 18.8691 18.8691 -8.94969
680 1 11.007 20.4415 20.4415 -8.94963
679 1 9.43453 18.8691 18.8691 -8.94964
678 1 7.86211 20.4415 20.4415 -8.94963
677 1 6.28969 18.8691 18.8691 -8.94964
676 1 4.71726 20.4415 20.4415 -8.94963
675 1 3.14484 18.8691 18.8691 -8.94962
674 1 1.57242 20.4415 20.4415 -8.94963
526 1 1.57242 17.2966 11.007 -8.94965
673 1 22.0139 18.8691 18.8691 -8.94964
672 1 20.4415 17.2966 20.4415 -8.94963
671 1 18.8691 15.7242 18.8691 -8.94963
670 1 17.2966 17.2966 20.4415 -8.94964
531 1 17.2966 17.2966 11.007 -8.94963
532 1 20.4415 17.2966 11.007 -8.94963
533 1 1.57242 20.4415 11.007 -8.94963
669 1 15.7242 15.7242 18.8691 -8.94967
668 1 14.1518 17.2966 20.4415 -8.94962
667 1 12.5794 15.7243 18.8692 -8.94966
666 1 11.0069 17.2966 20.4415 -8.94964
665 1 9.43452 15.7243 18.8691 -8.94955
664 1 7.86211 17.2966 20.4415 -8.94964
540 1 1.57197 11.007 14.1518 -8.95116
541 1 4.71083 11.007 14.1529 -8.96644
542 1 7.78785 11.007 14.3218 -8.05387
543 1 11.0077 11.007 14.1537 -8.90524
544 1 14.1524 11.007 14.1522 -8.9479
545 1 17.2967 11.007 14.1518 -8.94965
546 1 20.4415 11.007 14.1518 -8.94974
547 1 22.0138 12.5794 12.5794 -8.94965
548 1 1.57235 14.1518 14.1518 -8.94961
549 1 3.14426 12.5797 12.5794 -8.9479
550 1 4.71655 14.1522 14.1517 -8.9493
551 1 6.28896 12.5813 12.5794 -8.90524
552 1 7.8578 14.1545 14.1569 -8.92806
553 1 9.50879 12.7494 12.5794 -8.05387
554 1 11.0204 14.1645 14.1648 -8.88174
555 1 12.5858 12.5805 12.5794 -8.96644
556 1 14.1528 14.1521 14.1521 -8.95198
557 1 15.7247 12.5794 12.5794 -8.95116
558 1 17.2967 14.1518 14.1518 -8.94985
559 1 18.8691 12.5794 12.5794 -8.94974
560 1 20.4415 14.1518 14.1518 -8.94965
561 1 -1.52049e-06 15.7242 12.5794 -8.94962
562 1 1.57242 17.2966 14.1518 -8.94965
563 1 3.14482 15.7243 12.5794 -8.94933
564 1 4.71724 17.2967 14.1518 -8.94977
565 1 6.28983 15.7244 12.5794 -8.95097
566 1 7.86179 17.2972 14.1521 -8.94892
567 1 9.43503 15.7314 12.5794 -8.98209
568 1 11.0073 17.2978 14.1522 -8.95164
569 1 12.58 15.7249 12.5794 -8.95011
570 1 14.1518 17.2966 14.1518 -8.94984
571 1 15.7243 15.7242 12.5794 -8.94955
572 1 17.2966 17.2966 14.1518 -8.94963
573 1 18.8691 15.7242 12.5794 -8.94964
574 1 20.4415 17.2966 14.1518 -8.94963
575 1 22.0139 18.8691 12.5794 -8.94964
576 1 1.57242 20.4415 14.1518 -8.94963
577 1 3.14484 18.8691 12.5794 -8.94962
578 1 4.71726 20.4415 14.1518 -8.94965
579 1 6.28968 18.8691 12.5794 -8.94961
580 1 7.86209 20.4415 14.1518 -8.94967
581 1 9.43451 18.8697 12.5794 -8.95145
582 1 11.007 20.4415 14.1518 -8.94985
583 1 12.5794 18.8691 12.5794 -8.94955
584 1 14.1518 20.4415 14.1518 -8.94963
585 1 15.7242 18.8691 12.5794 -8.94966
586 1 17.2966 20.4415 14.1518 -8.94963
587 1 18.8691 18.8691 12.5794 -8.94963
588 1 20.4415 20.4415 14.1518 -8.94963
589 1 1.57237 11.007 17.2967 -8.94955
590 1 4.71667 11.007 17.2973 -8.95011
591 1 7.8616 11.007 17.3039 -8.98209
592 1 11.0068 11.007 17.2968 -8.95097
593 1 14.1518 11.007 17.2967 -8.94933
594 1 17.2966 11.007 17.2966 -8.94962
595 1 20.4415 11.007 17.2966 -8.94964
596 1 22.0138 12.5794 15.7242 -8.94985
597 1 1.57233 14.1518 17.2967 -8.94972
598 1 3.14379 12.5797 15.7245 -8.95198
599 1 4.71606 14.153 17.2978 -8.94301
600 1 6.27619 12.5924 15.7369 -8.88174
601 1 7.86235 14.152 17.2972 -8.9514
602 1 9.43883 12.5845 15.7269 -8.92806
603 1 11.0074 14.1522 17.2978 -8.95134
604 1 12.5801 12.5793 15.7247 -8.9493
605 1 14.1518 14.1518 17.2967 -8.94988
606 1 15.7243 12.5794 15.7243 -8.94961
607 1 17.2966 14.1518 17.2966 -8.94963
608 1 18.8691 12.5794 15.7242 -8.94965
609 1 20.4415 14.1518 17.2966 -8.94965
610 1 22.0139 15.7242 15.7242 -8.94963
611 1 1.57242 17.2966 17.2966 -8.94967
612 1 3.14482 15.7242 15.7242 -8.94988
613 1 4.71722 17.2967 17.2967 -8.94966
614 1 6.28925 15.7253 15.7246 -8.95134
615 1 7.86211 17.2967 17.2967 -8.94955
616 1 9.43429 15.7247 15.7244 -8.9514
617 1 11.0069 17.2966 17.2966 -8.94999
618 1 12.5806 15.7254 15.7254 -8.94301
619 1 14.1519 17.2967 17.2967 -8.94908
620 1 15.7243 15.7243 15.7243 -8.94972
621 1 17.2966 17.2966 17.2966 -8.94963
622 1 18.8691 15.7242 15.7242 -8.94965
623 1 20.4415 17.2966 17.2966 -8.94963
624 1 1.31435e-07 18.8691 15.7242 -8.94963
625 1 1.57242 20.4415 17.2966 -8.94963
626 1 3.14484 18.8691 15.7242 -8.94964
627 1 4.71726 20.4415 17.2966 -8.94964
628 1 6.28965 18.8691 15.7242 -8.94977
629 1 7.86211 20.4415 17.2966 -8.94963
630 1 9.43451 18.8691 15.7242 -8.94962
631 1 11.0069 20.4415 17.2966 -8.94963
632 1 12.5794 18.8692 15.7243 -8.94968
633 1 14.1518 20.4415 17.2966 -8.94962
634 1 15.7242 18.8691 15.7242 -8.94968
635 1 17.2966 20.4415 17.2966 -8.94964
636 1 18.8691 18.8691 15.7242 -8.94963
637 1 20.4415 20.4415 17.2966 -8.94963
638 1 1.57242 11.007 20.4415 -8.94966
639 1 4.71723 11.007 20.4415 -8.94955
640 1 7.86213 11.007 20.4421 -8.95145
641 1 11.007 11.007 20.4415 -8.94961
642 1 14.1518 11.007 20.4415 -8.94962
643 1 17.2966 11.007 20.4415 -8.94964
644 1 20.4415 11.007 20.4415 -8.94963
645 1 -5.69459e-08 12.5794 18.8691 -8.94963
646 1 1.57242 14.1518 20.4415 -8.94968
647 1 3.14483 12.5794 18.8691 -8.94984
648 1 4.71721 14.1518 20.4416 -8.94968
649 1 6.2893 12.5798 18.8702 -8.95164
650 1 7.86212 14.1518 20.4415 -8.94962
651 1 9.43485 12.5797 18.8696 -8.94892
652 1 11.007 14.1518 20.4416 -8.94977
653 1 12.5794 12.5793 18.8691 -8.94977
654 1 14.1518 14.1518 20.4415 -8.94964
655 1 15.7242 12.5794 18.8691 -8.94965
656 1 17.2966 14.1518 20.4415 -8.94963
657 1 18.8691 12.5794 18.8691 -8.94963
658 1 20.4415 14.1518 20.4415 -8.94963
659 1 22.0139 15.7242 18.8691 -8.94963
660 1 1.57242 17.2966 20.4415 -8.9496
661 1 3.14476 15.7243 18.8691 -8.94908
662 1 4.71727 17.2966 20.4415 -8.94969
663 1 6.2897 15.7242 18.8691 -8.94999
371 1 9.43453 15.7242 22.0139 -8.94963
353 1 3.14484 12.5794 22.0139 -8.94963
361 1 15.7242 12.5794 22.0139 -8.94963
369 1 6.28969 15.7242 22.0139 -8.94963
365 1 2.54923e-07 15.7242 22.0139 -8.94964
381 1 3.14484 18.8691 22.0139 -8.94964
387 1 12.5794 18.8691 22.0139 -8.94963
537 1 14.1518 20.4415 11.007 -8.94963
530 1 14.1518 17.2966 11.007 -8.94984
