ITEM: TIMESTEP
58
ITEM: NUMBER OF ATOMS
687
ITEM: BOX BOUNDS pp pp pp
0.0000000000000000e+00 2.2013900999999997e+01
0.0000000000000000e+00 2.2013900999999997e+01
0.0000000000000000e+00 2.2013900999999997e+01
ITEM: ATOMS id type x y z c_pot
1 1 22.0139 -1.49357e-15 1.15068e-06 -8.94963
2 1 1.57242 1.57242 1.57242 -8.94964
196 1 20.4415 7.86208 11.0069 -8.94973
4 1 4.71726 1.57242 1.57242 -8.94963
5 1 6.28969 -1.78401e-15 3.15288e-07 -8.94964
6 1 7.86211 1.57242 1.57242 -8.94963
175 1 18.8691 9.43452 9.4345 -8.94973
8 1 11.007 1.57242 1.57242 -8.94964
9 1 12.5794 8.58062e-16 4.21466e-07 -8.94963
10 1 14.1518 1.57242 1.57242 -8.94964
195 1 17.297 7.86205 11.0069 -8.95045
12 1 17.2966 1.57242 1.57242 -8.94963
13 1 18.8691 1.5667e-16 4.29592e-07 -8.94963
14 1 20.4415 1.57242 1.57242 -8.94963
15 1 22.0139 3.14484 4.09442e-06 -8.9496
16 1 1.57241 4.71725 1.57242 -8.94961
194 1 14.1557 7.86102 11.006 -8.95492
18 1 4.71727 4.71726 1.57242 -8.94964
174 1 15.7246 9.43462 9.43431 -8.94949
20 1 7.86211 4.71726 1.57242 -8.94964
173 1 12.5812 9.43588 9.43371 -8.95061
22 1 11.007 4.71726 1.57242 -8.94962
193 1 11.0344 7.83689 10.982 -8.86176
24 1 14.1518 4.71726 1.57242 -8.94964
25 1 15.7242 3.14484 8.73756e-06 -8.94962
26 1 17.2966 4.71727 1.57242 -8.94964
27 1 18.8691 3.14484 6.24666e-07 -8.94963
28 1 20.4415 4.71726 1.57242 -8.94964
192 1 7.85338 7.85748 10.9953 -8.91702
30 1 1.57242 7.86211 1.57242 -8.94963
31 1 3.14479 6.28963 8.1696e-05 -8.94963
32 1 4.71722 7.86206 1.57242 -8.94984
172 1 9.44326 9.42284 9.4299 -8.91702
34 1 7.86212 7.86207 1.57242 -8.94971
171 1 6.26221 9.40961 9.40931 -8.86176
36 1 11.007 7.86208 1.57242 -8.94979
37 1 12.5794 6.28965 7.58089e-05 -8.94973
38 1 14.1518 7.86211 1.57242 -8.94964
39 1 15.7242 6.28969 1.0671e-06 -8.94964
40 1 17.2966 7.86211 1.57242 -8.94963
41 1 18.8691 6.28969 1.15862e-07 -8.94963
42 1 20.4415 7.86211 1.57242 -8.94963
170 1 3.14093 9.43353 9.43344 -8.95492
169 1 22.0135 9.43448 9.43447 -8.95045
45 1 6.28962 9.43446 0.000375042 -8.95044
46 1 9.4346 9.43447 0.00020561 -8.94973
47 1 12.5794 9.43454 3.13923e-05 -8.94963
168 1 18.8691 6.28966 9.43451 -8.94974
167 1 15.7249 6.28938 9.43422 -8.95005
50 1 22.0139 -1.4796e-15 3.14484 -8.94963
51 1 1.57241 1.57241 4.71726 -8.94962
52 1 3.14484 -1.11473e-15 3.14484 -8.94964
53 1 4.71727 1.57242 4.71726 -8.94963
54 1 6.28969 -1.9027e-15 3.14484 -8.94964
55 1 7.86211 1.57242 4.71726 -8.94964
56 1 9.43453 -9.15487e-16 3.14484 -8.94963
57 1 11.007 1.57242 4.71726 -8.94963
58 1 12.5794 4.13192e-16 3.14484 -8.94963
59 1 14.1518 1.57242 4.71726 -8.94967
60 1 15.7242 6.79699e-18 3.14484 -8.94964
61 1 17.2966 1.57242 4.71726 -8.9496
62 1 18.8691 -3.39692e-16 3.14484 -8.94963
63 1 20.4415 1.57242 4.71726 -8.94963
64 1 22.0139 3.14484 3.14484 -8.9496
65 1 1.57236 4.7172 4.7172 -8.94935
66 1 3.14484 3.14484 3.14484 -8.94967
67 1 4.71727 4.71724 4.71724 -8.94979
68 1 6.28968 3.14484 3.14484 -8.94963
69 1 7.8621 4.71722 4.71721 -8.94964
70 1 9.43453 3.14484 3.14484 -8.94964
71 1 11.007 4.71722 4.71722 -8.94957
72 1 12.5794 3.14484 3.14484 -8.94963
73 1 14.1519 4.71721 4.71717 -8.94958
74 1 15.7242 3.14484 3.14483 -8.94962
75 1 17.2966 4.71726 4.71726 -8.94966
76 1 18.8691 3.14484 3.14484 -8.94963
77 1 20.4415 4.71726 4.71726 -8.94962
78 1 -1.46507e-06 6.28969 3.14484 -8.94966
79 1 1.57239 7.8621 4.71723 -8.94972
80 1 3.14479 6.28963 3.14476 -8.94963
81 1 4.71697 7.86181 4.71661 -8.95016
82 1 6.28969 6.28966 3.14481 -8.9496
83 1 7.86223 7.86192 4.71683 -8.94962
84 1 9.43454 6.28964 3.14479 -8.94961
85 1 11.0071 7.86197 4.71677 -8.95045
86 1 12.5794 6.28965 3.14477 -8.94973
87 1 14.1518 7.86212 4.71723 -8.94966
88 1 15.7242 6.28969 3.14484 -8.94964
89 1 17.2966 7.86211 4.71726 -8.94963
90 1 18.8691 6.28969 3.14484 -8.94963
91 1 20.4415 7.86211 4.71726 -8.94963
92 1 22.0139 9.43453 3.14484 -8.94964
93 1 3.1448 9.43452 3.14479 -8.94957
94 1 6.28962 9.43446 3.14447 -8.95044
95 1 9.4346 9.43447 3.14464 -8.94973
96 1 12.5794 9.43454 3.14481 -8.94963
97 1 15.7242 9.43453 3.14484 -8.94963
98 1 18.8691 9.43453 3.14484 -8.94964
99 1 22.0139 1.66619e-15 6.28969 -8.94964
100 1 1.57242 1.57242 7.86211 -8.94964
101 1 3.14483 8.11557e-16 6.28968 -8.94964
102 1 4.71723 1.57235 7.86207 -8.94973
103 1 6.28969 1.06265e-15 6.28968 -8.94962
104 1 7.8621 1.57236 7.86206 -8.94961
105 1 9.43453 -1.38062e-15 6.28968 -8.94964
106 1 11.0069 1.57238 7.86208 -8.9496
107 1 12.5794 4.51351e-17 6.28968 -8.94964
108 1 14.1518 1.57234 7.86205 -8.94963
109 1 15.7242 1.87764e-15 6.28967 -8.94961
110 1 17.2966 1.57242 7.86211 -8.94966
111 1 18.8691 1.06747e-15 6.28969 -8.94964
112 1 20.4415 1.57242 7.86211 -8.94963
113 1 22.0139 3.14484 6.28969 -8.94966
114 1 1.57239 4.71724 7.86211 -8.94981
115 1 3.14479 3.14475 6.28963 -8.94958
116 1 4.71689 4.71651 7.86174 -8.94979
117 1 6.28969 3.1448 6.28964 -8.94957
118 1 7.86207 4.71683 7.86174 -8.94897
119 1 9.43454 3.14479 6.28964 -8.94964
120 1 11.0069 4.71698 7.86188 -8.94994
121 1 12.5794 3.14482 6.28966 -8.94979
122 1 14.1524 4.71664 7.86148 -8.94744
123 1 15.7243 3.14478 6.28962 -8.94935
124 1 17.2967 4.71721 7.86206 -8.94962
125 1 18.8691 3.14484 6.28968 -8.94962
126 1 20.4415 4.71726 7.8621 -8.94964
127 1 22.0138 6.28964 6.28964 -8.94962
128 1 1.57175 7.8618 7.8618 -8.95005
129 1 3.14422 6.28905 6.28906 -8.94744
130 1 4.71258 7.85735 7.85746 -8.93557
131 1 6.28972 6.28946 6.2894 -8.94994
132 1 7.86272 7.86085 7.85949 -8.95108
133 1 9.43457 6.28932 6.28925 -8.94897
134 1 11.0087 7.8604 7.85801 -8.95316
135 1 12.5797 6.28932 6.28894 -8.94979
136 1 14.1521 7.86217 7.86191 -8.95037
137 1 15.7242 6.28969 6.28966 -8.94981
138 1 17.2967 7.86211 7.86208 -8.94961
139 1 18.8691 6.28968 6.28968 -8.94964
140 1 20.4414 7.86209 7.86208 -8.94974
141 1 -5.7806e-05 9.43452 6.28965 -8.94957
142 1 3.14449 9.43442 6.28933 -8.94937
143 1 6.28877 9.4337 6.28608 -8.95513
144 1 9.43501 9.43413 6.28834 -8.94955
145 1 12.5795 9.43472 6.28946 -8.94966
146 1 15.7243 9.43452 6.28964 -8.94956
147 1 18.8691 9.43453 6.28968 -8.94963
148 1 -6.37597e-07 1.98548e-15 9.43453 -8.94963
149 1 3.14484 2.34294e-15 9.43453 -8.94964
150 1 6.28966 1.81257e-15 9.4345 -8.94979
151 1 9.43451 1.07424e-16 9.4345 -8.94971
152 1 12.5794 -7.37879e-16 9.43449 -8.94984
153 1 15.7242 1.16844e-15 9.43453 -8.94963
154 1 18.8691 1.81787e-15 9.43453 -8.94963
155 1 -3.48894e-06 3.14484 9.43453 -8.94963
156 1 3.14482 3.14481 9.43455 -8.94966
157 1 6.28954 3.14435 9.43439 -8.95045
158 1 9.43441 3.14441 9.43434 -8.94962
159 1 12.5797 3.14419 9.43423 -8.95016
160 1 15.7242 3.14481 9.43452 -8.94972
161 1 18.8691 3.14484 9.43453 -8.94963
162 1 22.0139 6.28965 9.43453 -8.94961
163 1 3.14458 6.28949 9.43459 -8.95037
164 1 6.2879 6.28559 9.43282 -8.95316
165 1 9.43391 6.28707 9.43327 -8.95108
166 1 12.5841 6.28504 9.42977 -8.93557
177 1 4.71724 1.57239 11.007 -8.94963
178 1 7.86203 1.57222 11.0069 -8.94973
179 1 11.007 1.57205 11.0069 -8.95044
191 1 4.71548 7.86129 11.0083 -8.95061
181 1 17.2966 1.57242 11.007 -8.94964
182 1 20.4415 1.57242 11.007 -8.94964
184 1 4.7171 4.71704 11.0071 -8.94966
185 1 7.86163 4.71592 11.0066 -8.94955
186 1 11.0079 4.71365 11.0061 -8.95513
190 1 1.57201 7.86189 11.007 -8.94949
19 1 6.28968 3.14484 4.50256e-06 -8.94963
49 1 18.8691 9.43453 2.84437e-07 -8.94964
21 1 9.43453 3.14484 3.37953e-06 -8.94964
43 1 22.0139 9.43453 2.65869e-06 -8.94964
176 1 1.57242 1.57242 11.0069 -8.94963
343 1 18.8691 9.43453 18.8691 -8.94963
342 1 15.7243 9.43452 18.8691 -8.94956
341 1 12.5795 9.43472 18.8693 -8.94966
340 1 9.43501 9.43413 18.8704 -8.94955
339 1 6.28877 9.4337 18.8727 -8.95513
338 1 3.14449 9.43442 18.8694 -8.94937
183 1 1.57237 4.71721 11.0069 -8.94956
337 1 -5.7806e-05 9.43452 18.8691 -8.94957
336 1 20.4415 7.86211 20.4415 -8.94963
335 1 18.8691 6.28968 18.8691 -8.94964
334 1 17.2966 7.86211 20.4415 -8.94963
188 1 17.2967 4.71723 11.0069 -8.94957
189 1 20.4415 4.71726 11.0069 -8.94963
333 1 15.7242 6.28969 18.8691 -8.94981
332 1 14.1518 7.86212 20.4415 -8.94966
331 1 12.5797 6.28932 18.8698 -8.94979
330 1 11.0071 7.86197 20.442 -8.95045
329 1 9.43457 6.28932 18.8695 -8.94897
328 1 7.86223 7.86192 20.4419 -8.94962
327 1 6.28972 6.28946 18.8693 -8.94994
197 1 -2.06329e-07 1.99017e-15 12.5794 -8.94963
198 1 1.57242 1.57242 14.1518 -8.94963
199 1 3.14484 2.39279e-15 12.5794 -8.94965
200 1 4.71724 1.57239 14.1518 -8.94963
201 1 6.28967 1.74439e-15 12.5794 -8.9496
202 1 7.86203 1.57222 14.1519 -8.94973
203 1 9.4345 5.02528e-16 12.5794 -8.95008
204 1 11.007 1.57205 14.1519 -8.95044
205 1 12.5794 -7.86135e-16 12.5794 -8.94973
206 1 14.1518 1.57237 14.1518 -8.94957
207 1 15.7242 1.10624e-15 12.5794 -8.94963
208 1 17.2966 1.57242 14.1518 -8.94964
209 1 18.8691 1.19234e-15 12.5794 -8.94963
210 1 20.4415 1.57242 14.1518 -8.94964
211 1 22.0139 3.14484 12.5794 -8.94965
212 1 1.57237 4.71721 14.1518 -8.94956
213 1 3.14479 3.14476 12.5794 -8.94961
214 1 4.7171 4.71704 14.1516 -8.94966
215 1 6.28959 3.14471 12.5794 -8.9492
216 1 7.86163 4.71592 14.1522 -8.94955
217 1 9.4344 3.14357 12.5794 -8.95025
218 1 11.0079 4.71365 14.1526 -8.95513
219 1 12.5797 3.14425 12.5794 -8.94934
220 1 14.1521 4.71691 14.1519 -8.94937
221 1 15.7243 3.14481 12.5794 -8.94969
222 1 17.2967 4.71723 14.1518 -8.94957
223 1 18.8691 3.14484 12.5794 -8.94964
224 1 20.4415 4.71726 14.1518 -8.94963
225 1 -6.54324e-05 6.28963 12.5794 -8.94959
226 1 1.57201 7.86189 14.1517 -8.94949
227 1 3.14445 6.2892 12.5794 -8.94829
228 1 4.71548 7.86129 14.1504 -8.95061
229 1 6.2902 6.28983 12.5794 -8.94905
230 1 7.85338 7.85748 14.1635 -8.91702
231 1 9.43642 6.28479 12.5794 -8.9949
232 1 11.0344 7.83689 14.1767 -8.86176
233 1 12.5824 6.28655 12.5794 -8.9465
234 1 14.1557 7.86102 14.1528 -8.95492
235 1 15.7248 6.2894 12.5794 -8.94928
236 1 17.297 7.86205 14.1518 -8.95045
237 1 18.8691 6.28966 12.5794 -8.94967
238 1 20.4415 7.86208 14.1518 -8.94973
239 1 22.0137 9.4344 12.5794 -8.94929
240 1 3.14419 9.4338 12.5794 -8.94405
241 1 6.29794 9.43793 12.5794 -8.90057
242 1 9.51841 9.22453 12.5794 -8.08696
243 1 12.5892 9.4314 12.5794 -8.97127
244 1 15.7256 9.4347 12.5794 -8.95178
245 1 18.8692 9.43454 12.5794 -8.94992
246 1 -6.37597e-07 2.09102e-15 15.7242 -8.94963
247 1 1.57242 1.57242 17.2966 -8.94964
248 1 3.14484 2.31891e-15 15.7242 -8.94964
249 1 4.71723 1.57235 17.2967 -8.94973
250 1 6.28966 1.81001e-15 15.7242 -8.94979
251 1 7.8621 1.57236 17.2967 -8.94961
252 1 9.43451 -7.16686e-17 15.7242 -8.94971
253 1 11.0069 1.57238 17.2967 -8.9496
254 1 12.5794 -1.48074e-15 15.7243 -8.94984
255 1 14.1518 1.57234 17.2967 -8.94963
256 1 15.7242 1.32791e-15 15.7242 -8.94963
257 1 17.2966 1.57242 17.2966 -8.94966
258 1 18.8691 1.87666e-15 15.7242 -8.94963
259 1 20.4415 1.57242 17.2966 -8.94963
260 1 -3.48894e-06 3.14484 15.7242 -8.94963
261 1 1.57239 4.71724 17.2966 -8.94981
262 1 3.14482 3.14481 15.7242 -8.94966
263 1 4.71689 4.71651 17.297 -8.94979
264 1 6.28954 3.14435 15.7244 -8.95045
265 1 7.86207 4.71683 17.297 -8.94897
266 1 9.43441 3.14441 15.7244 -8.94962
267 1 11.0069 4.71698 17.2969 -8.94994
268 1 12.5797 3.14419 15.7245 -8.95016
269 1 14.1524 4.71664 17.2973 -8.94744
270 1 15.7242 3.14481 15.7242 -8.94972
271 1 17.2967 4.71721 17.2967 -8.94962
272 1 18.8691 3.14484 15.7242 -8.94963
273 1 20.4415 4.71726 17.2966 -8.94964
274 1 22.0139 6.28965 15.7242 -8.94961
275 1 1.57175 7.8618 17.2969 -8.95005
276 1 3.14458 6.28949 15.7242 -8.95037
277 1 4.71258 7.85735 17.3013 -8.93557
278 1 6.2879 6.28559 15.7259 -8.95316
279 1 7.86272 7.86085 17.2993 -8.95108
280 1 9.43391 6.28707 15.7255 -8.95108
281 1 11.0087 7.8604 17.3007 -8.95316
282 1 12.5841 6.28504 15.729 -8.93557
283 1 14.1521 7.86217 17.2968 -8.95037
284 1 15.7249 6.28938 15.7245 -8.95005
285 1 17.2967 7.86211 17.2967 -8.94961
286 1 18.8691 6.28966 15.7242 -8.94974
287 1 20.4414 7.86209 17.2967 -8.94974
288 1 22.0135 9.43448 15.7243 -8.95045
289 1 3.14093 9.43353 15.7253 -8.95492
290 1 6.26221 9.40961 15.7494 -8.86176
291 1 9.44326 9.42284 15.7288 -8.91702
292 1 12.5812 9.43588 15.725 -8.95061
293 1 15.7246 9.43462 15.7244 -8.94949
294 1 18.8691 9.43452 15.7242 -8.94973
295 1 22.0139 1.58105e-15 18.8691 -8.94964
296 1 1.57241 1.57241 20.4415 -8.94962
297 1 3.14483 6.75712e-16 18.8691 -8.94964
298 1 4.71727 1.57242 20.4415 -8.94963
299 1 6.28969 1.39055e-15 18.8691 -8.94962
300 1 7.86211 1.57242 20.4415 -8.94964
301 1 9.43453 -1.51531e-15 18.8691 -8.94964
302 1 11.007 1.57242 20.4415 -8.94963
303 1 12.5794 -3.90683e-16 18.8691 -8.94964
304 1 14.1518 1.57242 20.4415 -8.94967
305 1 15.7242 1.9617e-15 18.8691 -8.94961
306 1 17.2966 1.57242 20.4415 -8.9496
307 1 18.8691 3.98477e-16 18.8691 -8.94964
308 1 20.4415 1.57242 20.4415 -8.94963
309 1 22.0139 3.14484 18.8691 -8.94966
310 1 1.57236 4.7172 20.4415 -8.94935
311 1 3.14479 3.14475 18.8691 -8.94958
312 1 4.71727 4.71724 20.4415 -8.94979
313 1 6.28969 3.1448 18.8691 -8.94957
314 1 7.8621 4.71722 20.4415 -8.94964
315 1 9.43454 3.14479 18.8691 -8.94964
316 1 11.007 4.71722 20.4415 -8.94957
317 1 12.5794 3.14482 18.8691 -8.94979
318 1 14.1519 4.71721 20.4416 -8.94958
319 1 15.7243 3.14478 18.8691 -8.94935
320 1 17.2966 4.71726 20.4415 -8.94966
321 1 18.8691 3.14484 18.8691 -8.94962
322 1 20.4415 4.71726 20.4415 -8.94962
323 1 22.0138 6.28964 18.8691 -8.94962
324 1 1.57239 7.8621 20.4415 -8.94972
325 1 3.14422 6.28905 18.8697 -8.94744
326 1 4.71697 7.86181 20.4421 -8.95016
7 1 9.43453 -8.33793e-16 22.0139 -8.94963
48 1 15.7242 9.43453 22.0139 -8.94963
44 1 3.1448 9.43452 22.014 -8.94957
33 1 6.28969 6.28966 22.0139 -8.9496
35 1 9.43454 6.28964 22.014 -8.94961
3 1 3.14484 -1.33528e-15 22.0139 -8.94964
11 1 15.7242 2.90783e-16 22.0139 -8.94964
17 1 3.14484 3.14484 22.0139 -8.94967
23 1 12.5794 3.14484 22.0139 -8.94963
29 1 -1.46507e-06 6.28969 22.0139 -8.94966
180 1 14.1518 1.57237 11.0069 -8.94957
187 1 14.1521 4.71691 11.0068 -8.94937
344 1 1.57242 11.007 1.57242 -8.94963
345 1 4.71722 11.007 1.57242 -8.94973
346 1 7.86213 11.007 1.57242 -8.95008
347 1 11.007 11.007 1.57242 -8.9496
348 1 14.1518 11.007 1.57242 -8.94965
349 1 17.2966 11.007 1.57242 -8.94963
350 1 20.4415 11.007 1.57242 -8.94963
511 1 18.8691 18.8691 9.43453 -8.94963
352 1 1.57242 14.1518 1.57242 -8.94963
510 1 15.7242 18.8691 9.43452 -8.94972
354 1 4.71722 14.1518 1.57242 -8.94984
355 1 6.28962 12.5794 0.000375042 -8.95044
356 1 7.86212 14.1518 1.57242 -8.94971
357 1 9.4346 12.5794 0.00020561 -8.94973
358 1 11.007 14.1518 1.57242 -8.94979
359 1 12.5794 12.5794 3.13923e-05 -8.94963
360 1 14.1518 14.1518 1.57242 -8.94964
509 1 12.5797 18.8697 9.43423 -8.95016
362 1 17.2966 14.1518 1.57242 -8.94963
508 1 9.43441 18.8695 9.43434 -8.94962
364 1 20.4415 14.1518 1.57242 -8.94963
539 1 20.4415 20.4415 11.007 -8.94964
366 1 1.57241 17.2966 1.57242 -8.94961
367 1 3.14479 15.7243 8.1696e-05 -8.94963
368 1 4.71727 17.2966 1.57242 -8.94964
507 1 6.28954 18.8695 9.43439 -8.95045
370 1 7.86211 17.2966 1.57242 -8.94964
506 1 3.14482 18.8691 9.43455 -8.94966
372 1 11.007 17.2966 1.57242 -8.94962
373 1 12.5794 15.7242 7.58089e-05 -8.94973
374 1 14.1518 17.2966 1.57242 -8.94964
375 1 15.7242 15.7242 1.0671e-06 -8.94964
376 1 17.2966 17.2966 1.57242 -8.94964
377 1 18.8691 15.7242 1.15862e-07 -8.94963
378 1 20.4415 17.2966 1.57242 -8.94964
379 1 22.0139 18.8691 4.09442e-06 -8.9496
380 1 1.57242 20.4415 1.57242 -8.94964
538 1 17.2966 20.4415 11.007 -8.94964
382 1 4.71726 20.4415 1.57242 -8.94963
505 1 -3.48894e-06 18.8691 9.43453 -8.94963
384 1 7.86211 20.4415 1.57242 -8.94963
504 1 18.8691 15.7242 9.43451 -8.94974
386 1 11.007 20.4415 1.57242 -8.94964
536 1 11.007 20.4419 11.0069 -8.95044
388 1 14.1518 20.4415 1.57242 -8.94964
389 1 15.7242 18.8691 8.73756e-06 -8.94962
390 1 17.2966 20.4415 1.57242 -8.94963
391 1 18.8691 18.8691 6.24666e-07 -8.94963
392 1 20.4415 20.4415 1.57242 -8.94963
393 1 1.57238 11.007 4.71723 -8.94969
394 1 4.71697 11.007 4.71667 -8.94934
395 1 7.86224 11.007 4.71599 -8.95025
396 1 11.007 11.007 4.71713 -8.9492
397 1 14.1518 11.007 4.71718 -8.94961
398 1 17.2966 11.007 4.71726 -8.94965
399 1 20.4415 11.007 4.71726 -8.94964
400 1 22.0139 12.5794 3.14484 -8.94964
401 1 1.57239 14.1518 4.71723 -8.94972
402 1 3.1448 12.5794 3.14479 -8.94957
403 1 4.71697 14.1521 4.71661 -8.95016
404 1 6.28962 12.5794 3.14447 -8.95044
405 1 7.86223 14.152 4.71683 -8.94962
406 1 9.4346 12.5794 3.14464 -8.94973
407 1 11.0071 14.1519 4.71677 -8.95045
408 1 12.5794 12.5794 3.14481 -8.94963
409 1 14.1518 14.1518 4.71723 -8.94966
410 1 15.7242 12.5794 3.14484 -8.94963
411 1 17.2966 14.1518 4.71726 -8.94963
412 1 18.8691 12.5794 3.14484 -8.94964
413 1 20.4415 14.1518 4.71726 -8.94963
414 1 -1.46507e-06 15.7242 3.14484 -8.94966
415 1 1.57236 17.2967 4.7172 -8.94935
416 1 3.14479 15.7243 3.14476 -8.94963
417 1 4.71727 17.2967 4.71724 -8.94979
418 1 6.28969 15.7242 3.14481 -8.9496
419 1 7.8621 17.2967 4.71721 -8.94964
420 1 9.43454 15.7243 3.14479 -8.94961
421 1 11.007 17.2967 4.71722 -8.94957
422 1 12.5794 15.7242 3.14477 -8.94973
423 1 14.1519 17.2967 4.71717 -8.94958
424 1 15.7242 15.7242 3.14484 -8.94964
425 1 17.2966 17.2966 4.71726 -8.94966
426 1 18.8691 15.7242 3.14484 -8.94963
427 1 20.4415 17.2966 4.71726 -8.94962
428 1 22.0139 18.8691 3.14484 -8.9496
429 1 1.57241 20.4415 4.71726 -8.94962
430 1 3.14484 18.8691 3.14484 -8.94967
431 1 4.71727 20.4415 4.71726 -8.94963
432 1 6.28968 18.8691 3.14484 -8.94963
433 1 7.86211 20.4415 4.71726 -8.94964
434 1 9.43453 18.8691 3.14484 -8.94964
435 1 11.007 20.4415 4.71726 -8.94963
436 1 12.5794 18.8691 3.14484 -8.94963
437 1 14.1518 20.4415 4.71726 -8.94967
438 1 15.7242 18.8691 3.14483 -8.94962
439 1 17.2966 20.4415 4.71726 -8.9496
440 1 18.8691 18.8691 3.14484 -8.94963
441 1 20.4415 20.4415 4.71726 -8.94963
442 1 1.57185 11.007 7.86182 -8.94928
443 1 4.71425 11.007 7.85897 -8.9465
444 1 7.86021 11.007 7.85721 -8.9949
445 1 11.0064 11.007 7.86225 -8.94905
446 1 14.1522 11.007 7.86162 -8.94829
447 1 17.2967 11.007 7.86205 -8.94959
448 1 20.4414 11.007 7.86208 -8.94967
449 1 -5.7806e-05 12.5794 6.28965 -8.94957
450 1 1.57175 14.1521 7.8618 -8.95005
451 1 3.14449 12.5795 6.28933 -8.94937
452 1 4.71258 14.1565 7.85746 -8.93557
453 1 6.28877 12.5802 6.28608 -8.95513
454 1 7.86272 14.1531 7.85949 -8.95108
455 1 9.43501 12.5798 6.28834 -8.94955
456 1 11.0087 14.1535 7.85801 -8.95316
457 1 12.5795 12.5792 6.28946 -8.94966
458 1 14.1521 14.1517 7.86191 -8.95037
459 1 15.7243 12.5794 6.28964 -8.94956
460 1 17.2967 14.1518 7.86208 -8.94961
461 1 18.8691 12.5794 6.28968 -8.94963
462 1 20.4414 14.1518 7.86208 -8.94974
463 1 22.0138 15.7243 6.28964 -8.94962
464 1 1.57239 17.2967 7.86211 -8.94981
465 1 3.14422 15.7248 6.28906 -8.94744
466 1 4.71689 17.2974 7.86174 -8.94979
467 1 6.28972 15.7244 6.2894 -8.94994
468 1 7.86207 17.2971 7.86174 -8.94897
469 1 9.43457 15.7246 6.28925 -8.94897
470 1 11.0069 17.2969 7.86188 -8.94994
471 1 12.5797 15.7246 6.28894 -8.94979
472 1 14.1524 17.2973 7.86148 -8.94744
473 1 15.7242 15.7242 6.28966 -8.94981
474 1 17.2967 17.2967 7.86206 -8.94962
475 1 18.8691 15.7242 6.28968 -8.94964
476 1 20.4415 17.2966 7.8621 -8.94964
477 1 22.0139 18.8691 6.28969 -8.94966
478 1 1.57242 20.4415 7.86211 -8.94964
479 1 3.14479 18.8692 6.28963 -8.94958
480 1 4.71723 20.4416 7.86207 -8.94973
481 1 6.28969 18.8691 6.28964 -8.94957
482 1 7.8621 20.4415 7.86206 -8.94961
483 1 9.43454 18.8691 6.28964 -8.94964
484 1 11.0069 20.4415 7.86208 -8.9496
485 1 12.5794 18.8691 6.28966 -8.94979
486 1 14.1518 20.4416 7.86205 -8.94963
487 1 15.7243 18.8691 6.28962 -8.94935
488 1 17.2966 20.4415 7.86211 -8.94966
489 1 18.8691 18.8691 6.28968 -8.94962
490 1 20.4415 20.4415 7.86211 -8.94963
491 1 22.0135 12.5794 9.43447 -8.95045
492 1 3.14093 12.5804 9.43344 -8.95492
493 1 6.26221 12.6043 9.40931 -8.86176
494 1 9.44326 12.5911 9.4299 -8.91702
495 1 12.5812 12.578 9.43371 -8.95061
496 1 15.7246 12.5793 9.43431 -8.94949
497 1 18.8691 12.5794 9.4345 -8.94973
498 1 22.0139 15.7242 9.43453 -8.94961
499 1 3.14458 15.7244 9.43459 -8.95037
500 1 6.2879 15.7283 9.43282 -8.95316
501 1 9.43391 15.7268 9.43327 -8.95108
502 1 12.5841 15.7289 9.42977 -8.93557
503 1 15.7249 15.7245 9.43422 -8.95005
512 1 1.57099 11.007 11.0071 -8.95178
513 1 4.70745 11.007 11.0038 -8.97127
514 1 7.77823 11.007 10.797 -8.08696
515 1 10.9987 11.007 11.0104 -8.90057
516 1 14.1524 11.007 11.0062 -8.94405
517 1 17.2969 11.007 11.0068 -8.94929
518 1 20.4414 11.007 11.007 -8.94992
519 1 1.57201 14.152 11.007 -8.94949
520 1 4.71548 14.1526 11.0083 -8.95061
521 1 7.85338 14.1564 10.9953 -8.91702
522 1 11.0344 14.177 10.982 -8.86176
523 1 14.1557 14.1529 11.006 -8.95492
524 1 17.297 14.1519 11.0069 -8.95045
525 1 20.4415 14.1518 11.0069 -8.94973
527 1 4.7171 17.2969 11.0071 -8.94966
528 1 7.86163 17.298 11.0066 -8.94955
529 1 11.0079 17.3002 11.0061 -8.95513
535 1 7.86203 20.4417 11.0069 -8.94973
534 1 4.71724 20.4415 11.007 -8.94963
351 1 22.0139 12.5794 2.65869e-06 -8.94964
385 1 9.43453 18.8691 3.37953e-06 -8.94964
383 1 6.28968 18.8691 4.50256e-06 -8.94963
363 1 18.8691 12.5794 2.84437e-07 -8.94964
687 3 8.64832 11.007 12.5794 2.40476
686 1 20.4415 20.4415 20.4415 -8.94963
685 1 18.8691 18.8691 18.8691 -8.94962
684 1 17.2966 20.4415 20.4415 -8.9496
683 1 15.7243 18.8691 18.8691 -8.94935
682 1 14.1518 20.4415 20.4415 -8.94967
681 1 12.5794 18.8691 18.8691 -8.94979
680 1 11.007 20.4415 20.4415 -8.94963
679 1 9.43454 18.8691 18.8691 -8.94964
678 1 7.86211 20.4415 20.4415 -8.94964
677 1 6.28969 18.8691 18.8691 -8.94957
676 1 4.71727 20.4415 20.4415 -8.94963
675 1 3.14479 18.8692 18.8691 -8.94958
674 1 1.57241 20.4415 20.4415 -8.94962
526 1 1.57237 17.2967 11.0069 -8.94956
673 1 22.0139 18.8691 18.8691 -8.94966
672 1 20.4415 17.2966 20.4415 -8.94962
671 1 18.8691 15.7242 18.8691 -8.94964
670 1 17.2966 17.2966 20.4415 -8.94966
531 1 17.2967 17.2967 11.0069 -8.94957
532 1 20.4415 17.2966 11.0069 -8.94963
533 1 1.57242 20.4415 11.0069 -8.94963
669 1 15.7242 15.7242 18.8691 -8.94981
668 1 14.1519 17.2967 20.4416 -8.94958
667 1 12.5797 15.7246 18.8698 -8.94979
666 1 11.007 17.2967 20.4415 -8.94957
665 1 9.43457 15.7246 18.8695 -8.94897
664 1 7.8621 17.2967 20.4415 -8.94964
540 1 1.57099 11.007 14.1516 -8.95178
541 1 4.70745 11.007 14.1549 -8.97127
542 1 7.77823 11.007 14.3618 -8.08696
543 1 10.9987 11.007 14.1484 -8.90057
544 1 14.1524 11.007 14.1525 -8.94405
545 1 17.2969 11.007 14.1519 -8.94929
546 1 20.4414 11.007 14.1518 -8.94992
547 1 22.0137 12.5795 12.5794 -8.94929
548 1 1.57201 14.152 14.1517 -8.94949
549 1 3.14419 12.5801 12.5794 -8.94405
550 1 4.71548 14.1526 14.1504 -8.95061
551 1 6.29794 12.576 12.5794 -8.90057
552 1 7.85338 14.1564 14.1635 -8.91702
553 1 9.51841 12.7894 12.5794 -8.08696
554 1 11.0344 14.177 14.1767 -8.86176
555 1 12.5892 12.5825 12.5794 -8.97127
556 1 14.1557 14.1529 14.1528 -8.95492
557 1 15.7256 12.5792 12.5794 -8.95178
558 1 17.297 14.1519 14.1518 -8.95045
559 1 18.8692 12.5794 12.5794 -8.94992
560 1 20.4415 14.1518 14.1518 -8.94973
561 1 -6.54324e-05 15.7243 12.5794 -8.94959
562 1 1.57237 17.2967 14.1518 -8.94956
563 1 3.14445 15.7247 12.5794 -8.94829
564 1 4.7171 17.2969 14.1516 -8.94966
565 1 6.2902 15.7241 12.5794 -8.94905
566 1 7.86163 17.298 14.1522 -8.94955
567 1 9.43642 15.7291 12.5794 -8.9949
568 1 11.0079 17.3002 14.1526 -8.95513
569 1 12.5824 15.7274 12.5794 -8.9465
570 1 14.1521 17.297 14.1519 -8.94937
571 1 15.7248 15.7245 12.5794 -8.94928
572 1 17.2967 17.2967 14.1518 -8.94957
573 1 18.8691 15.7242 12.5794 -8.94967
574 1 20.4415 17.2966 14.1518 -8.94963
575 1 22.0139 18.8691 12.5794 -8.94965
576 1 1.57242 20.4415 14.1518 -8.94963
577 1 3.14479 18.8691 12.5794 -8.94961
578 1 4.71724 20.4415 14.1518 -8.94963
579 1 6.28959 18.8692 12.5794 -8.9492
580 1 7.86203 20.4417 14.1519 -8.94973
581 1 9.4344 18.8703 12.5794 -8.95025
582 1 11.007 20.4419 14.1519 -8.95044
583 1 12.5797 18.8697 12.5794 -8.94934
584 1 14.1518 20.4415 14.1518 -8.94957
585 1 15.7243 18.8691 12.5794 -8.94969
586 1 17.2966 20.4415 14.1518 -8.94964
587 1 18.8691 18.8691 12.5794 -8.94964
588 1 20.4415 20.4415 14.1518 -8.94964
589 1 1.57185 11.007 17.2969 -8.94928
590 1 4.71425 11.007 17.2998 -8.9465
591 1 7.86021 11.007 17.3015 -8.9949
592 1 11.0064 11.007 17.2965 -8.94905
593 1 14.1522 11.007 17.2971 -8.94829
594 1 17.2967 11.007 17.2967 -8.94959
595 1 20.4414 11.007 17.2967 -8.94967
596 1 22.0135 12.5794 15.7243 -8.95045
597 1 1.57175 14.1521 17.2969 -8.95005
598 1 3.14093 12.5804 15.7253 -8.95492
599 1 4.71258 14.1565 17.3013 -8.93557
600 1 6.26221 12.6043 15.7494 -8.86176
601 1 7.86272 14.1531 17.2993 -8.95108
602 1 9.44326 12.5911 15.7288 -8.91702
603 1 11.0087 14.1535 17.3007 -8.95316
604 1 12.5812 12.578 15.725 -8.95061
605 1 14.1521 14.1517 17.2968 -8.95037
606 1 15.7246 12.5793 15.7244 -8.94949
607 1 17.2967 14.1518 17.2967 -8.94961
608 1 18.8691 12.5794 15.7242 -8.94973
609 1 20.4414 14.1518 17.2967 -8.94974
610 1 22.0139 15.7242 15.7242 -8.94961
611 1 1.57239 17.2967 17.2966 -8.94981
612 1 3.14458 15.7244 15.7242 -8.95037
613 1 4.71689 17.2974 17.297 -8.94979
614 1 6.2879 15.7283 15.7259 -8.95316
615 1 7.86207 17.2971 17.297 -8.94897
616 1 9.43391 15.7268 15.7255 -8.95108
617 1 11.0069 17.2969 17.2969 -8.94994
618 1 12.5841 15.7289 15.729 -8.93557
619 1 14.1524 17.2973 17.2973 -8.94744
620 1 15.7249 15.7245 15.7245 -8.95005
621 1 17.2967 17.2967 17.2967 -8.94962
622 1 18.8691 15.7242 15.7242 -8.94974
623 1 20.4415 17.2966 17.2966 -8.94964
624 1 -3.48894e-06 18.8691 15.7242 -8.94963
625 1 1.57242 20.4415 17.2966 -8.94964
626 1 3.14482 18.8691 15.7242 -8.94966
627 1 4.71723 20.4416 17.2967 -8.94973
628 1 6.28954 18.8695 15.7244 -8.95045
629 1 7.8621 20.4415 17.2967 -8.94961
630 1 9.43441 18.8695 15.7244 -8.94962
631 1 11.0069 20.4415 17.2967 -8.9496
632 1 12.5797 18.8697 15.7245 -8.95016
633 1 14.1518 20.4416 17.2967 -8.94963
634 1 15.7242 18.8691 15.7242 -8.94972
635 1 17.2966 20.4415 17.2966 -8.94966
636 1 18.8691 18.8691 15.7242 -8.94963
637 1 20.4415 20.4415 17.2966 -8.94963
638 1 1.57238 11.007 20.4415 -8.94969
639 1 4.71697 11.007 20.4421 -8.94934
640 1 7.86224 11.007 20.4428 -8.95025
641 1 11.007 11.007 20.4416 -8.9492
642 1 14.1518 11.007 20.4416 -8.94961
643 1 17.2966 11.007 20.4415 -8.94965
644 1 20.4415 11.007 20.4415 -8.94964
645 1 -5.7806e-05 12.5794 18.8691 -8.94957
646 1 1.57239 14.1518 20.4415 -8.94972
647 1 3.14449 12.5795 18.8694 -8.94937
648 1 4.71697 14.1521 20.4421 -8.95016
649 1 6.28877 12.5802 18.8727 -8.95513
650 1 7.86223 14.152 20.4419 -8.94962
651 1 9.43501 12.5798 18.8704 -8.94955
652 1 11.0071 14.1519 20.442 -8.95045
653 1 12.5795 12.5792 18.8693 -8.94966
654 1 14.1518 14.1518 20.4415 -8.94966
655 1 15.7243 12.5794 18.8691 -8.94956
656 1 17.2966 14.1518 20.4415 -8.94963
657 1 18.8691 12.5794 18.8691 -8.94963
658 1 20.4415 14.1518 20.4415 -8.94963
659 1 22.0138 15.7243 18.8691 -8.94962
660 1 1.57236 17.2967 20.4415 -8.94935
661 1 3.14422 15.7248 18.8697 -8.94744
662 1 4.71727 17.2967 20.4415 -8.94979
663 1 6.28972 15.7244 18.8693 -8.94994
371 1 9.43454 15.7243 22.014 -8.94961
353 1 3.1448 12.5794 22.014 -8.94957
361 1 15.7242 12.5794 22.0139 -8.94963
369 1 6.28969 15.7242 22.0139 -8.9496
365 1 -1.46507e-06 15.7242 22.0139 -8.94966
381 1 3.14484 18.8691 22.0139 -8.94967
387 1 12.5794 18.8691 22.0139 -8.94963
537 1 14.1518 20.4415 11.0069 -8.94957
530 1 14.1521 17.297 11.0068 -8.94937
