ITEM: TIMESTEP
46
ITEM: NUMBER OF ATOMS
687
ITEM: BOX BOUNDS pp pp pp
0.0000000000000000e+00 2.2013900999999997e+01
0.0000000000000000e+00 2.2013900999999997e+01
0.0000000000000000e+00 2.2013900999999997e+01
ITEM: ATOMS id type x y z c_pot
1 1 22.0139 -1.02623e-15 1.39815e-09 -8.94963
2 1 1.57242 1.57242 1.57242 -8.94963
196 1 20.4415 7.86211 11.007 -8.94964
4 1 4.71726 1.57242 1.57242 -8.94963
5 1 6.28969 -5.78497e-16 3.05606e-09 -8.94963
6 1 7.86211 1.57242 1.57242 -8.94963
175 1 18.8691 9.43453 9.43453 -8.94964
8 1 11.007 1.57242 1.57242 -8.94963
9 1 12.5794 4.81586e-16 4.89472e-09 -8.94963
10 1 14.1518 1.57242 1.57242 -8.94963
195 1 17.2966 7.86211 11.0069 -8.94971
12 1 17.2966 1.57242 1.57242 -8.94963
13 1 18.8691 3.46758e-16 4.08894e-10 -8.94963
14 1 20.4415 1.57242 1.57242 -8.94963
15 1 22.0139 3.14484 1.22777e-08 -8.94963
16 1 1.57242 4.71726 1.57242 -8.94963
194 1 14.1521 7.86201 11.0068 -8.95082
18 1 4.71726 4.71726 1.57242 -8.94963
174 1 15.7242 9.43453 9.43452 -8.94964
20 1 7.86211 4.71726 1.57242 -8.94963
173 1 12.5797 9.43445 9.43431 -8.94907
22 1 11.007 4.71726 1.57242 -8.94963
193 1 11.014 7.85541 11 -8.89764
24 1 14.1518 4.71726 1.57242 -8.94963
25 1 15.7242 3.14484 3.20192e-08 -8.94963
26 1 17.2966 4.71726 1.57242 -8.94963
27 1 18.8691 3.14484 -3.55439e-11 -8.94963
28 1 20.4415 4.71726 1.57242 -8.94963
192 1 7.85978 7.86058 11.0043 -8.93407
30 1 1.57242 7.86211 1.57242 -8.94963
31 1 3.14484 6.28969 1.06734e-06 -8.94963
32 1 4.71726 7.86211 1.57242 -8.94964
172 1 9.43686 9.43191 9.433 -8.93407
34 1 7.86211 7.86211 1.57242 -8.94963
171 1 6.28264 9.42758 9.42783 -8.89764
36 1 11.007 7.86211 1.57242 -8.94964
37 1 12.5794 6.28969 9.73152e-07 -8.94963
38 1 14.1518 7.86211 1.57242 -8.94963
39 1 15.7242 6.28969 -2.45815e-08 -8.94963
40 1 17.2966 7.86211 1.57242 -8.94963
41 1 18.8691 6.28969 -1.88126e-09 -8.94963
42 1 20.4415 7.86211 1.57242 -8.94963
170 1 3.14449 9.43443 9.43443 -8.95082
169 1 22.0139 9.43453 9.43453 -8.94971
45 1 6.28968 9.43452 1.65264e-05 -8.9497
46 1 9.43453 9.43452 1.12087e-05 -8.94965
47 1 12.5794 9.43453 -9.14258e-08 -8.94964
168 1 18.8691 6.28969 9.43453 -8.94964
167 1 15.7242 6.28968 9.43452 -8.94966
50 1 22.0139 -9.0136e-16 3.14484 -8.94963
51 1 1.57242 1.57242 4.71726 -8.94963
52 1 3.14484 -1.49992e-16 3.14484 -8.94963
53 1 4.71726 1.57242 4.71726 -8.94963
54 1 6.28969 -5.19199e-16 3.14484 -8.94963
55 1 7.86211 1.57242 4.71726 -8.94963
56 1 9.43453 3.60402e-17 3.14484 -8.94963
57 1 11.007 1.57242 4.71726 -8.94963
58 1 12.5794 2.96971e-16 3.14484 -8.94963
59 1 14.1518 1.57242 4.71726 -8.94963
60 1 15.7242 4.30999e-16 3.14484 -8.94963
61 1 17.2966 1.57242 4.71726 -8.94963
62 1 18.8691 1.83553e-16 3.14484 -8.94963
63 1 20.4415 1.57242 4.71726 -8.94963
64 1 22.0139 3.14484 3.14484 -8.94963
65 1 1.57242 4.71726 4.71726 -8.94962
66 1 3.14484 3.14484 3.14484 -8.94963
67 1 4.71727 4.71727 4.71727 -8.94965
68 1 6.28969 3.14484 3.14484 -8.94963
69 1 7.86211 4.71726 4.71726 -8.94964
70 1 9.43453 3.14484 3.14484 -8.94963
71 1 11.007 4.71726 4.71727 -8.94964
72 1 12.5794 3.14484 3.14484 -8.94963
73 1 14.1518 4.71726 4.71726 -8.94963
74 1 15.7242 3.14484 3.14484 -8.94963
75 1 17.2966 4.71726 4.71726 -8.94963
76 1 18.8691 3.14484 3.14484 -8.94963
77 1 20.4415 4.71726 4.71726 -8.94963
78 1 4.55618e-08 6.28969 3.14484 -8.94963
79 1 1.57242 7.86211 4.71727 -8.94965
80 1 3.14484 6.28969 3.14484 -8.94963
81 1 4.71725 7.86209 4.71724 -8.94962
82 1 6.28969 6.28969 3.14484 -8.94963
83 1 7.86211 7.86211 4.71726 -8.94964
84 1 9.43453 6.28969 3.14484 -8.94963
85 1 11.007 7.8621 4.71724 -8.94966
86 1 12.5794 6.28969 3.14484 -8.94963
87 1 14.1518 7.86211 4.71726 -8.94964
88 1 15.7242 6.28969 3.14484 -8.94963
89 1 17.2966 7.86211 4.71726 -8.94963
90 1 18.8691 6.28969 3.14484 -8.94963
91 1 20.4415 7.86211 4.71726 -8.94963
92 1 22.0139 9.43453 3.14484 -8.94963
93 1 3.14484 9.43453 3.14484 -8.94963
94 1 6.28968 9.43452 3.14483 -8.9497
95 1 9.43453 9.43452 3.14483 -8.94965
96 1 12.5794 9.43453 3.14484 -8.94964
97 1 15.7242 9.43453 3.14484 -8.94963
98 1 18.8691 9.43453 3.14484 -8.94963
99 1 22.0139 9.5522e-16 6.28969 -8.94963
100 1 1.57242 1.57242 7.86211 -8.94963
101 1 3.14484 5.08203e-18 6.28969 -8.94963
102 1 4.71726 1.57242 7.86211 -8.94963
103 1 6.28969 3.5344e-16 6.28969 -8.94963
104 1 7.86211 1.57242 7.86211 -8.94963
105 1 9.43453 -8.33301e-16 6.28969 -8.94963
106 1 11.007 1.57242 7.86211 -8.94963
107 1 12.5794 -1.67442e-16 6.28969 -8.94963
108 1 14.1518 1.57242 7.86211 -8.94963
109 1 15.7242 1.45497e-15 6.28969 -8.94963
110 1 17.2966 1.57242 7.86211 -8.94963
111 1 18.8691 6.03557e-16 6.28969 -8.94963
112 1 20.4415 1.57242 7.86211 -8.94963
113 1 22.0139 3.14484 6.28969 -8.94963
114 1 1.57242 4.71726 7.86211 -8.94964
115 1 3.14484 3.14484 6.28969 -8.94963
116 1 4.71725 4.71724 7.8621 -8.94964
117 1 6.28969 3.14484 6.28969 -8.94964
118 1 7.86211 4.71727 7.8621 -8.94964
119 1 9.43453 3.14484 6.28969 -8.94964
120 1 11.0069 4.71728 7.86212 -8.94986
121 1 12.5794 3.14484 6.28969 -8.94965
122 1 14.1518 4.71725 7.86209 -8.94945
123 1 15.7242 3.14484 6.28969 -8.94962
124 1 17.2966 4.71726 7.86211 -8.94963
125 1 18.8691 3.14484 6.28969 -8.94963
126 1 20.4415 4.71726 7.86211 -8.94963
127 1 22.0139 6.28969 6.28969 -8.94963
128 1 1.5724 7.8621 7.8621 -8.94966
129 1 3.14483 6.28967 6.28967 -8.94945
130 1 4.71687 7.8617 7.86171 -8.9463
131 1 6.28969 6.2897 6.2897 -8.94986
132 1 7.86219 7.86213 7.86202 -8.95138
133 1 9.43452 6.28968 6.28969 -8.94964
134 1 11.0071 7.86197 7.86172 -8.95052
135 1 12.5794 6.28968 6.28966 -8.94964
136 1 14.1518 7.8621 7.86211 -8.94975
137 1 15.7242 6.28969 6.28969 -8.94964
138 1 17.2966 7.86211 7.86211 -8.94963
139 1 18.8691 6.28969 6.28969 -8.94963
140 1 20.4415 7.86211 7.86211 -8.94964
141 1 5.1642e-07 9.43453 6.28969 -8.94963
142 1 3.14485 9.43453 6.2897 -8.94982
143 1 6.28952 9.43436 6.28927 -8.95039
144 1 9.43468 9.43438 6.28947 -8.94899
145 1 12.5794 9.43453 6.28968 -8.94972
146 1 15.7242 9.43453 6.28969 -8.94965
147 1 18.8691 9.43453 6.28969 -8.94963
148 1 1.92143e-09 1.31154e-15 9.43453 -8.94963
149 1 3.14484 1.63859e-15 9.43453 -8.94963
150 1 6.28969 1.63177e-15 9.43453 -8.94964
151 1 9.43453 -2.45381e-16 9.43453 -8.94963
152 1 12.5794 -7.06571e-16 9.43453 -8.94964
153 1 15.7242 4.3103e-16 9.43453 -8.94963
154 1 18.8691 8.27553e-16 9.43453 -8.94963
155 1 3.62126e-08 3.14484 9.43453 -8.94963
156 1 3.14484 3.14484 9.43453 -8.94964
157 1 6.28968 3.14482 9.43452 -8.94966
158 1 9.43453 3.14484 9.43453 -8.94964
159 1 12.5794 3.14482 9.43452 -8.94962
160 1 15.7242 3.14484 9.43453 -8.94965
161 1 18.8691 3.14484 9.43453 -8.94963
162 1 22.0139 6.28969 9.43453 -8.94963
163 1 3.14484 6.28969 9.43452 -8.94975
164 1 6.28954 6.2893 9.43439 -8.95052
165 1 9.43444 6.2896 9.43455 -8.95138
166 1 12.5798 6.28929 9.43412 -8.9463
177 1 4.71726 1.57242 11.007 -8.94964
178 1 7.8621 1.57241 11.0069 -8.94965
179 1 11.007 1.5724 11.0069 -8.9497
191 1 4.71696 7.86189 11.0069 -8.94907
181 1 17.2966 1.57242 11.007 -8.94963
182 1 20.4415 1.57242 11.007 -8.94963
184 1 4.71726 4.71725 11.007 -8.94972
185 1 7.86196 4.71704 11.0068 -8.94899
186 1 11.0071 4.71685 11.0068 -8.95039
190 1 1.5724 7.8621 11.0069 -8.94964
19 1 6.28969 3.14484 3.56472e-08 -8.94963
49 1 18.8691 9.43453 4.7726e-09 -8.94963
21 1 9.43453 3.14484 1.10361e-08 -8.94963
43 1 22.0139 9.43453 3.30889e-08 -8.94963
176 1 1.57242 1.57242 11.007 -8.94963
343 1 18.8691 9.43453 18.8691 -8.94963
342 1 15.7242 9.43453 18.8691 -8.94965
341 1 12.5794 9.43453 18.8691 -8.94972
340 1 9.43468 9.43438 18.8693 -8.94899
339 1 6.28952 9.43436 18.8695 -8.95039
338 1 3.14485 9.43453 18.869 -8.94982
183 1 1.57242 4.71727 11.007 -8.94965
337 1 5.1642e-07 9.43453 18.8691 -8.94963
336 1 20.4415 7.86211 20.4415 -8.94963
335 1 18.8691 6.28969 18.8691 -8.94963
334 1 17.2966 7.86211 20.4415 -8.94963
188 1 17.2966 4.71726 11.007 -8.94963
189 1 20.4415 4.71726 11.007 -8.94963
333 1 15.7242 6.28969 18.8691 -8.94964
332 1 14.1518 7.86211 20.4415 -8.94964
331 1 12.5794 6.28968 18.8691 -8.94964
330 1 11.007 7.8621 20.4415 -8.94966
329 1 9.43452 6.28968 18.8691 -8.94964
328 1 7.86211 7.86211 20.4415 -8.94964
327 1 6.28969 6.2897 18.869 -8.94986
197 1 3.21232e-09 9.03023e-16 12.5794 -8.94963
198 1 1.57242 1.57242 14.1518 -8.94963
199 1 3.14484 1.75404e-15 12.5794 -8.94963
200 1 4.71726 1.57242 14.1518 -8.94964
201 1 6.28969 9.27575e-16 12.5794 -8.94963
202 1 7.8621 1.57241 14.1518 -8.94965
203 1 9.43453 6.24018e-16 12.5794 -8.94977
204 1 11.007 1.5724 14.1518 -8.9497
205 1 12.5794 4.2117e-17 12.5794 -8.94963
206 1 14.1518 1.57242 14.1518 -8.94963
207 1 15.7242 6.11073e-16 12.5794 -8.94963
208 1 17.2966 1.57242 14.1518 -8.94963
209 1 18.8691 1.04393e-15 12.5794 -8.94963
210 1 20.4415 1.57242 14.1518 -8.94963
211 1 22.0139 3.14484 12.5794 -8.94963
212 1 1.57242 4.71727 14.1518 -8.94965
213 1 3.14484 3.14484 12.5794 -8.94962
214 1 4.71726 4.71725 14.1518 -8.94972
215 1 6.28969 3.14484 12.5794 -8.94967
216 1 7.86196 4.71704 14.1519 -8.94899
217 1 9.43452 3.14457 12.5794 -8.95113
218 1 11.0071 4.71685 14.152 -8.95039
219 1 12.5794 3.14484 12.5794 -8.94961
220 1 14.1518 4.71728 14.1518 -8.94982
221 1 15.7242 3.14484 12.5794 -8.94964
222 1 17.2966 4.71726 14.1518 -8.94963
223 1 18.8691 3.14484 12.5794 -8.94963
224 1 20.4415 4.71726 14.1518 -8.94963
225 1 6.40635e-07 6.28969 12.5794 -8.94963
226 1 1.5724 7.8621 14.1518 -8.94964
227 1 3.14485 6.28969 12.5794 -8.9496
228 1 4.71696 7.86189 14.1519 -8.94907
229 1 6.28977 6.28959 12.5794 -8.95124
230 1 7.85978 7.86058 14.1544 -8.93407
231 1 9.4347 6.28393 12.5794 -8.97451
232 1 11.014 7.85541 14.1587 -8.89764
233 1 12.5795 6.28957 12.5794 -8.95126
234 1 14.1521 7.86201 14.1519 -8.95082
235 1 15.7242 6.28968 12.5794 -8.9496
236 1 17.2966 7.86211 14.1518 -8.94971
237 1 18.8691 6.28969 12.5794 -8.94963
238 1 20.4415 7.86211 14.1518 -8.94964
239 1 22.0139 9.43452 12.5794 -8.94968
240 1 3.14451 9.43438 12.5794 -8.94936
241 1 6.2866 9.43145 12.5794 -8.90834
242 1 9.4976 9.29727 12.5794 -8.02921
243 1 12.5832 9.43398 12.5794 -8.96312
244 1 15.7244 9.43453 12.5794 -8.95056
245 1 18.8691 9.43453 12.5794 -8.94967
246 1 1.92143e-09 1.40225e-15 15.7242 -8.94963
247 1 1.57242 1.57242 17.2966 -8.94963
248 1 3.14484 1.7332e-15 15.7242 -8.94963
249 1 4.71726 1.57242 17.2966 -8.94963
250 1 6.28969 1.58433e-15 15.7242 -8.94964
251 1 7.86211 1.57242 17.2966 -8.94963
252 1 9.43453 -4.44086e-16 15.7242 -8.94963
253 1 11.007 1.57242 17.2966 -8.94963
254 1 12.5794 -7.34508e-16 15.7242 -8.94964
255 1 14.1518 1.57242 17.2966 -8.94963
256 1 15.7242 4.15353e-16 15.7242 -8.94963
257 1 17.2966 1.57242 17.2966 -8.94963
258 1 18.8691 8.33515e-16 15.7242 -8.94963
259 1 20.4415 1.57242 17.2966 -8.94963
260 1 3.62126e-08 3.14484 15.7242 -8.94963
261 1 1.57242 4.71726 17.2966 -8.94964
262 1 3.14484 3.14484 15.7242 -8.94964
263 1 4.71725 4.71724 17.2966 -8.94964
264 1 6.28968 3.14482 15.7242 -8.94966
265 1 7.86211 4.71727 17.2966 -8.94964
266 1 9.43453 3.14484 15.7242 -8.94964
267 1 11.0069 4.71728 17.2966 -8.94986
268 1 12.5794 3.14482 15.7242 -8.94962
269 1 14.1518 4.71725 17.2967 -8.94945
270 1 15.7242 3.14484 15.7242 -8.94965
271 1 17.2966 4.71726 17.2966 -8.94963
272 1 18.8691 3.14484 15.7242 -8.94963
273 1 20.4415 4.71726 17.2966 -8.94963
274 1 22.0139 6.28969 15.7242 -8.94963
275 1 1.5724 7.8621 17.2966 -8.94966
276 1 3.14484 6.28969 15.7242 -8.94975
277 1 4.71687 7.8617 17.297 -8.9463
278 1 6.28954 6.2893 15.7243 -8.95052
279 1 7.86219 7.86213 17.2967 -8.95138
280 1 9.43444 6.2896 15.7242 -8.95138
281 1 11.0071 7.86197 17.297 -8.95052
282 1 12.5798 6.28929 15.7246 -8.9463
283 1 14.1518 7.8621 17.2966 -8.94975
284 1 15.7242 6.28968 15.7242 -8.94966
285 1 17.2966 7.86211 17.2966 -8.94963
286 1 18.8691 6.28969 15.7242 -8.94964
287 1 20.4415 7.86211 17.2966 -8.94964
288 1 22.0139 9.43453 15.7242 -8.94971
289 1 3.14449 9.43443 15.7243 -8.95082
290 1 6.28264 9.42758 15.7309 -8.89764
291 1 9.43686 9.43191 15.7257 -8.93407
292 1 12.5797 9.43445 15.7244 -8.94907
293 1 15.7242 9.43453 15.7242 -8.94964
294 1 18.8691 9.43453 15.7242 -8.94964
295 1 22.0139 9.14941e-16 18.8691 -8.94963
296 1 1.57242 1.57242 20.4415 -8.94963
297 1 3.14484 2.99068e-16 18.8691 -8.94963
298 1 4.71726 1.57242 20.4415 -8.94963
299 1 6.28969 7.06927e-16 18.8691 -8.94963
300 1 7.86211 1.57242 20.4415 -8.94963
301 1 9.43453 -9.54968e-16 18.8691 -8.94963
302 1 11.007 1.57242 20.4415 -8.94963
303 1 12.5794 -6.74587e-17 18.8691 -8.94963
304 1 14.1518 1.57242 20.4415 -8.94963
305 1 15.7242 1.34247e-15 18.8691 -8.94963
306 1 17.2966 1.57242 20.4415 -8.94963
307 1 18.8691 4.36136e-16 18.8691 -8.94963
308 1 20.4415 1.57242 20.4415 -8.94963
309 1 22.0139 3.14484 18.8691 -8.94963
310 1 1.57242 4.71726 20.4415 -8.94962
311 1 3.14484 3.14484 18.8691 -8.94963
312 1 4.71727 4.71727 20.4415 -8.94965
313 1 6.28969 3.14484 18.8691 -8.94964
314 1 7.86211 4.71726 20.4415 -8.94964
315 1 9.43453 3.14484 18.8691 -8.94964
316 1 11.007 4.71726 20.4415 -8.94964
317 1 12.5794 3.14484 18.8691 -8.94965
318 1 14.1518 4.71726 20.4415 -8.94963
319 1 15.7242 3.14484 18.8691 -8.94962
320 1 17.2966 4.71726 20.4415 -8.94963
321 1 18.8691 3.14484 18.8691 -8.94963
322 1 20.4415 4.71726 20.4415 -8.94963
323 1 22.0139 6.28969 18.8691 -8.94963
324 1 1.57242 7.86211 20.4415 -8.94965
325 1 3.14483 6.28967 18.8691 -8.94945
326 1 4.71725 7.86209 20.4415 -8.94962
7 1 9.43453 3.59985e-17 22.0139 -8.94963
48 1 15.7242 9.43453 22.0139 -8.94963
44 1 3.14484 9.43453 22.0139 -8.94963
33 1 6.28969 6.28969 22.0139 -8.94963
35 1 9.43453 6.28969 22.0139 -8.94963
3 1 3.14484 -3.81556e-16 22.0139 -8.94963
11 1 15.7242 4.31233e-16 22.0139 -8.94963
17 1 3.14484 3.14484 22.0139 -8.94963
23 1 12.5794 3.14484 22.0139 -8.94963
29 1 4.55618e-08 6.28969 22.0139 -8.94963
180 1 14.1518 1.57242 11.007 -8.94963
187 1 14.1518 4.71728 11.007 -8.94982
344 1 1.57242 11.007 1.57242 -8.94963
345 1 4.71726 11.007 1.57242 -8.94963
346 1 7.86211 11.007 1.57242 -8.94977
347 1 11.007 11.007 1.57242 -8.94963
348 1 14.1518 11.007 1.57242 -8.94963
349 1 17.2966 11.007 1.57242 -8.94963
350 1 20.4415 11.007 1.57242 -8.94963
511 1 18.8691 18.8691 9.43453 -8.94963
352 1 1.57242 14.1518 1.57242 -8.94963
510 1 15.7242 18.8691 9.43453 -8.94965
354 1 4.71726 14.1518 1.57242 -8.94964
355 1 6.28968 12.5794 1.65264e-05 -8.9497
356 1 7.86211 14.1518 1.57242 -8.94963
357 1 9.43453 12.5794 1.12087e-05 -8.94965
358 1 11.007 14.1518 1.57242 -8.94964
359 1 12.5794 12.5794 -9.14258e-08 -8.94964
360 1 14.1518 14.1518 1.57242 -8.94963
509 1 12.5794 18.8691 9.43452 -8.94962
362 1 17.2966 14.1518 1.57242 -8.94963
508 1 9.43453 18.8691 9.43453 -8.94964
364 1 20.4415 14.1518 1.57242 -8.94963
539 1 20.4415 20.4415 11.007 -8.94963
366 1 1.57242 17.2966 1.57242 -8.94963
367 1 3.14484 15.7242 1.06734e-06 -8.94963
368 1 4.71726 17.2966 1.57242 -8.94963
507 1 6.28968 18.8691 9.43452 -8.94966
370 1 7.86211 17.2966 1.57242 -8.94963
506 1 3.14484 18.8691 9.43453 -8.94964
372 1 11.007 17.2966 1.57242 -8.94963
373 1 12.5794 15.7242 9.73152e-07 -8.94963
374 1 14.1518 17.2966 1.57242 -8.94963
375 1 15.7242 15.7242 -2.45815e-08 -8.94963
376 1 17.2966 17.2966 1.57242 -8.94963
377 1 18.8691 15.7242 -1.88126e-09 -8.94963
378 1 20.4415 17.2966 1.57242 -8.94963
379 1 22.0139 18.8691 1.22777e-08 -8.94963
380 1 1.57242 20.4415 1.57242 -8.94963
538 1 17.2966 20.4415 11.007 -8.94963
382 1 4.71726 20.4415 1.57242 -8.94963
505 1 3.62126e-08 18.8691 9.43453 -8.94963
384 1 7.86211 20.4415 1.57242 -8.94963
504 1 18.8691 15.7242 9.43453 -8.94964
386 1 11.007 20.4415 1.57242 -8.94963
536 1 11.007 20.4415 11.0069 -8.9497
388 1 14.1518 20.4415 1.57242 -8.94963
389 1 15.7242 18.8691 3.20192e-08 -8.94963
390 1 17.2966 20.4415 1.57242 -8.94963
391 1 18.8691 18.8691 -3.55436e-11 -8.94963
392 1 20.4415 20.4415 1.57242 -8.94963
393 1 1.57242 11.007 4.71726 -8.94964
394 1 4.71726 11.007 4.71726 -8.94961
395 1 7.86211 11.007 4.71699 -8.95113
396 1 11.0069 11.007 4.71726 -8.94967
397 1 14.1518 11.007 4.71726 -8.94962
398 1 17.2966 11.007 4.71726 -8.94963
399 1 20.4415 11.007 4.71726 -8.94963
400 1 22.0139 12.5794 3.14484 -8.94963
401 1 1.57242 14.1518 4.71727 -8.94965
402 1 3.14484 12.5794 3.14484 -8.94963
403 1 4.71725 14.1518 4.71724 -8.94962
404 1 6.28968 12.5794 3.14483 -8.9497
405 1 7.86211 14.1518 4.71726 -8.94964
406 1 9.43453 12.5794 3.14483 -8.94965
407 1 11.007 14.1518 4.71724 -8.94966
408 1 12.5794 12.5794 3.14484 -8.94964
409 1 14.1518 14.1518 4.71726 -8.94964
410 1 15.7242 12.5794 3.14484 -8.94963
411 1 17.2966 14.1518 4.71726 -8.94963
412 1 18.8691 12.5794 3.14484 -8.94963
413 1 20.4415 14.1518 4.71726 -8.94963
414 1 4.55618e-08 15.7242 3.14484 -8.94963
415 1 1.57242 17.2966 4.71726 -8.94962
416 1 3.14484 15.7242 3.14484 -8.94963
417 1 4.71727 17.2966 4.71727 -8.94965
418 1 6.28969 15.7242 3.14484 -8.94963
419 1 7.86211 17.2966 4.71726 -8.94964
420 1 9.43453 15.7242 3.14484 -8.94963
421 1 11.007 17.2966 4.71727 -8.94964
422 1 12.5794 15.7242 3.14484 -8.94963
423 1 14.1518 17.2966 4.71726 -8.94963
424 1 15.7242 15.7242 3.14484 -8.94963
425 1 17.2966 17.2966 4.71726 -8.94963
426 1 18.8691 15.7242 3.14484 -8.94963
427 1 20.4415 17.2966 4.71726 -8.94963
428 1 22.0139 18.8691 3.14484 -8.94963
429 1 1.57242 20.4415 4.71726 -8.94963
430 1 3.14484 18.8691 3.14484 -8.94963
431 1 4.71726 20.4415 4.71726 -8.94963
432 1 6.28969 18.8691 3.14484 -8.94963
433 1 7.86211 20.4415 4.71726 -8.94963
434 1 9.43453 18.8691 3.14484 -8.94963
435 1 11.007 20.4415 4.71726 -8.94963
436 1 12.5794 18.8691 3.14484 -8.94963
437 1 14.1518 20.4415 4.71726 -8.94963
438 1 15.7242 18.8691 3.14484 -8.94963
439 1 17.2966 20.4415 4.71726 -8.94963
440 1 18.8691 18.8691 3.14484 -8.94963
441 1 20.4415 20.4415 4.71726 -8.94963
442 1 1.57242 11.007 7.8621 -8.9496
443 1 4.71717 11.007 7.862 -8.95126
444 1 7.86193 11.007 7.85635 -8.97451
445 1 11.0069 11.007 7.86201 -8.95124
446 1 14.1518 11.007 7.86211 -8.9496
447 1 17.2966 11.007 7.86211 -8.94963
448 1 20.4415 11.007 7.86211 -8.94963
449 1 5.1642e-07 12.5794 6.28969 -8.94963
450 1 1.5724 14.1518 7.8621 -8.94966
451 1 3.14485 12.5794 6.2897 -8.94982
452 1 4.71687 14.1522 7.86171 -8.9463
453 1 6.28952 12.5795 6.28927 -8.95039
454 1 7.86219 14.1518 7.86202 -8.95138
455 1 9.43468 12.5795 6.28947 -8.94899
456 1 11.0071 14.1519 7.86172 -8.95052
457 1 12.5794 12.5794 6.28968 -8.94972
458 1 14.1518 14.1518 7.86211 -8.94975
459 1 15.7242 12.5794 6.28969 -8.94965
460 1 17.2966 14.1518 7.86211 -8.94963
461 1 18.8691 12.5794 6.28969 -8.94963
462 1 20.4415 14.1518 7.86211 -8.94964
463 1 22.0139 15.7242 6.28969 -8.94963
464 1 1.57242 17.2966 7.86211 -8.94964
465 1 3.14483 15.7242 6.28967 -8.94945
466 1 4.71725 17.2967 7.8621 -8.94964
467 1 6.28969 15.7242 6.2897 -8.94986
468 1 7.86211 17.2966 7.8621 -8.94964
469 1 9.43452 15.7242 6.28969 -8.94964
470 1 11.0069 17.2966 7.86212 -8.94986
471 1 12.5794 15.7242 6.28966 -8.94964
472 1 14.1518 17.2967 7.86209 -8.94945
473 1 15.7242 15.7242 6.28969 -8.94964
474 1 17.2966 17.2966 7.86211 -8.94963
475 1 18.8691 15.7242 6.28969 -8.94963
476 1 20.4415 17.2966 7.86211 -8.94963
477 1 22.0139 18.8691 6.28969 -8.94963
478 1 1.57242 20.4415 7.86211 -8.94963
479 1 3.14484 18.8691 6.28969 -8.94963
480 1 4.71726 20.4415 7.86211 -8.94963
481 1 6.28969 18.8691 6.28969 -8.94964
482 1 7.86211 20.4415 7.86211 -8.94963
483 1 9.43453 18.8691 6.28969 -8.94964
484 1 11.007 20.4415 7.86211 -8.94963
485 1 12.5794 18.8691 6.28969 -8.94965
486 1 14.1518 20.4415 7.86211 -8.94963
487 1 15.7242 18.8691 6.28969 -8.94962
488 1 17.2966 20.4415 7.86211 -8.94963
489 1 18.8691 18.8691 6.28969 -8.94963
490 1 20.4415 20.4415 7.86211 -8.94963
491 1 22.0139 12.5794 9.43453 -8.94971
492 1 3.14449 12.5795 9.43443 -8.95082
493 1 6.28264 12.5863 9.42783 -8.89764
494 1 9.43686 12.582 9.433 -8.93407
495 1 12.5797 12.5795 9.43431 -8.94907
496 1 15.7242 12.5794 9.43452 -8.94964
497 1 18.8691 12.5794 9.43453 -8.94964
498 1 22.0139 15.7242 9.43453 -8.94963
499 1 3.14484 15.7242 9.43452 -8.94975
500 1 6.28954 15.7246 9.43439 -8.95052
501 1 9.43444 15.7243 9.43455 -8.95138
502 1 12.5798 15.7246 9.43412 -8.9463
503 1 15.7242 15.7242 9.43452 -8.94966
512 1 1.57226 11.007 11.007 -8.95056
513 1 4.71347 11.007 11.0064 -8.96312
514 1 7.79904 11.007 10.8697 -8.02921
515 1 11.01 11.007 11.0039 -8.90834
516 1 14.1521 11.007 11.0068 -8.94936
517 1 17.2967 11.007 11.0069 -8.94968
518 1 20.4415 11.007 11.007 -8.94967
519 1 1.5724 14.1518 11.0069 -8.94964
520 1 4.71696 14.152 11.0069 -8.94907
521 1 7.85978 14.1533 11.0043 -8.93407
522 1 11.014 14.1585 11 -8.89764
523 1 14.1521 14.1519 11.0068 -8.95082
524 1 17.2966 14.1518 11.0069 -8.94971
525 1 20.4415 14.1518 11.007 -8.94964
527 1 4.71726 17.2966 11.007 -8.94972
528 1 7.86196 17.2969 11.0068 -8.94899
529 1 11.0071 17.2971 11.0068 -8.95039
535 1 7.8621 20.4415 11.0069 -8.94965
534 1 4.71726 20.4415 11.007 -8.94964
351 1 22.0139 12.5794 3.30889e-08 -8.94963
385 1 9.43453 18.8691 1.10361e-08 -8.94963
383 1 6.28969 18.8691 3.56472e-08 -8.94963
363 1 18.8691 12.5794 4.7726e-09 -8.94963
687 3 8.64832 11.007 12.5794 3.05863
686 1 20.4415 20.4415 20.4415 -8.94963
685 1 18.8691 18.8691 18.8691 -8.94963
684 1 17.2966 20.4415 20.4415 -8.94963
683 1 15.7242 18.8691 18.8691 -8.94962
682 1 14.1518 20.4415 20.4415 -8.94963
681 1 12.5794 18.8691 18.8691 -8.94965
680 1 11.007 20.4415 20.4415 -8.94963
679 1 9.43453 18.8691 18.8691 -8.94964
678 1 7.86211 20.4415 20.4415 -8.94963
677 1 6.28969 18.8691 18.8691 -8.94964
676 1 4.71726 20.4415 20.4415 -8.94963
675 1 3.14484 18.8691 18.8691 -8.94963
674 1 1.57242 20.4415 20.4415 -8.94963
526 1 1.57242 17.2966 11.007 -8.94965
673 1 22.0139 18.8691 18.8691 -8.94963
672 1 20.4415 17.2966 20.4415 -8.94963
671 1 18.8691 15.7242 18.8691 -8.94963
670 1 17.2966 17.2966 20.4415 -8.94963
531 1 17.2966 17.2966 11.007 -8.94963
532 1 20.4415 17.2966 11.007 -8.94963
533 1 1.57242 20.4415 11.007 -8.94963
669 1 15.7242 15.7242 18.8691 -8.94964
668 1 14.1518 17.2966 20.4415 -8.94963
667 1 12.5794 15.7242 18.8691 -8.94964
666 1 11.007 17.2966 20.4415 -8.94964
665 1 9.43452 15.7242 18.8691 -8.94964
664 1 7.86211 17.2966 20.4415 -8.94964
540 1 1.57226 11.007 14.1518 -8.95056
541 1 4.71347 11.007 14.1523 -8.96312
542 1 7.79904 11.007 14.2891 -8.02921
543 1 11.01 11.007 14.1549 -8.90834
544 1 14.1521 11.007 14.1519 -8.94936
545 1 17.2967 11.007 14.1518 -8.94968
546 1 20.4415 11.007 14.1518 -8.94967
547 1 22.0139 12.5794 12.5794 -8.94968
548 1 1.5724 14.1518 14.1518 -8.94964
549 1 3.14451 12.5795 12.5794 -8.94936
550 1 4.71696 14.152 14.1519 -8.94907
551 1 6.2866 12.5824 12.5794 -8.90834
552 1 7.85978 14.1533 14.1544 -8.93407
553 1 9.4976 12.7166 12.5794 -8.02921
554 1 11.014 14.1585 14.1587 -8.89764
555 1 12.5832 12.5799 12.5794 -8.96312
556 1 14.1521 14.1519 14.1519 -8.95082
557 1 15.7244 12.5794 12.5794 -8.95056
558 1 17.2966 14.1518 14.1518 -8.94971
559 1 18.8691 12.5794 12.5794 -8.94967
560 1 20.4415 14.1518 14.1518 -8.94964
561 1 6.40635e-07 15.7242 12.5794 -8.94963
562 1 1.57242 17.2966 14.1518 -8.94965
563 1 3.14485 15.7242 12.5794 -8.9496
564 1 4.71726 17.2966 14.1518 -8.94972
565 1 6.28977 15.7243 12.5794 -8.95124
566 1 7.86196 17.2969 14.1519 -8.94899
567 1 9.4347 15.73 12.5794 -8.97451
568 1 11.0071 17.2971 14.152 -8.95039
569 1 12.5795 15.7243 12.5794 -8.95126
570 1 14.1518 17.2966 14.1518 -8.94982
571 1 15.7242 15.7242 12.5794 -8.9496
572 1 17.2966 17.2966 14.1518 -8.94963
573 1 18.8691 15.7242 12.5794 -8.94963
574 1 20.4415 17.2966 14.1518 -8.94963
575 1 22.0139 18.8691 12.5794 -8.94963
576 1 1.57242 20.4415 14.1518 -8.94963
577 1 3.14484 18.8691 12.5794 -8.94962
578 1 4.71726 20.4415 14.1518 -8.94964
579 1 6.28969 18.8691 12.5794 -8.94967
580 1 7.8621 20.4415 14.1518 -8.94965
581 1 9.43452 18.8693 12.5794 -8.95113
582 1 11.007 20.4415 14.1518 -8.9497
583 1 12.5794 18.8691 12.5794 -8.94961
584 1 14.1518 20.4415 14.1518 -8.94963
585 1 15.7242 18.8691 12.5794 -8.94964
586 1 17.2966 20.4415 14.1518 -8.94963
587 1 18.8691 18.8691 12.5794 -8.94963
588 1 20.4415 20.4415 14.1518 -8.94963
589 1 1.57242 11.007 17.2966 -8.9496
590 1 4.71717 11.007 17.2967 -8.95126
591 1 7.86193 11.007 17.3024 -8.97451
592 1 11.0069 11.007 17.2967 -8.95124
593 1 14.1518 11.007 17.2966 -8.9496
594 1 17.2966 11.007 17.2966 -8.94963
595 1 20.4415 11.007 17.2966 -8.94963
596 1 22.0139 12.5794 15.7242 -8.94971
597 1 1.5724 14.1518 17.2966 -8.94966
598 1 3.14449 12.5795 15.7243 -8.95082
599 1 4.71687 14.1522 17.297 -8.9463
600 1 6.28264 12.5863 15.7309 -8.89764
601 1 7.86219 14.1518 17.2967 -8.95138
602 1 9.43686 12.582 15.7257 -8.93407
603 1 11.0071 14.1519 17.297 -8.95052
604 1 12.5797 12.5795 15.7244 -8.94907
605 1 14.1518 14.1518 17.2966 -8.94975
606 1 15.7242 12.5794 15.7242 -8.94964
607 1 17.2966 14.1518 17.2966 -8.94963
608 1 18.8691 12.5794 15.7242 -8.94964
609 1 20.4415 14.1518 17.2966 -8.94964
610 1 22.0139 15.7242 15.7242 -8.94963
611 1 1.57242 17.2966 17.2966 -8.94964
612 1 3.14484 15.7242 15.7242 -8.94975
613 1 4.71725 17.2967 17.2966 -8.94964
614 1 6.28954 15.7246 15.7243 -8.95052
615 1 7.86211 17.2966 17.2966 -8.94964
616 1 9.43444 15.7243 15.7242 -8.95138
617 1 11.0069 17.2966 17.2966 -8.94986
618 1 12.5798 15.7246 15.7246 -8.9463
619 1 14.1518 17.2967 17.2967 -8.94945
620 1 15.7242 15.7242 15.7242 -8.94966
621 1 17.2966 17.2966 17.2966 -8.94963
622 1 18.8691 15.7242 15.7242 -8.94964
623 1 20.4415 17.2966 17.2966 -8.94963
624 1 3.62126e-08 18.8691 15.7242 -8.94963
625 1 1.57242 20.4415 17.2966 -8.94963
626 1 3.14484 18.8691 15.7242 -8.94964
627 1 4.71726 20.4415 17.2966 -8.94963
628 1 6.28968 18.8691 15.7242 -8.94966
629 1 7.86211 20.4415 17.2966 -8.94963
630 1 9.43453 18.8691 15.7242 -8.94964
631 1 11.007 20.4415 17.2966 -8.94963
632 1 12.5794 18.8691 15.7242 -8.94962
633 1 14.1518 20.4415 17.2966 -8.94963
634 1 15.7242 18.8691 15.7242 -8.94965
635 1 17.2966 20.4415 17.2966 -8.94963
636 1 18.8691 18.8691 15.7242 -8.94963
637 1 20.4415 20.4415 17.2966 -8.94963
638 1 1.57242 11.007 20.4415 -8.94964
639 1 4.71726 11.007 20.4415 -8.94961
640 1 7.86211 11.007 20.4418 -8.95113
641 1 11.0069 11.007 20.4415 -8.94967
642 1 14.1518 11.007 20.4415 -8.94962
643 1 17.2966 11.007 20.4415 -8.94963
644 1 20.4415 11.007 20.4415 -8.94963
645 1 5.1642e-07 12.5794 18.8691 -8.94963
646 1 1.57242 14.1518 20.4415 -8.94965
647 1 3.14485 12.5794 18.869 -8.94982
648 1 4.71725 14.1518 20.4415 -8.94962
649 1 6.28952 12.5795 18.8695 -8.95039
650 1 7.86211 14.1518 20.4415 -8.94964
651 1 9.43468 12.5795 18.8693 -8.94899
652 1 11.007 14.1518 20.4415 -8.94966
653 1 12.5794 12.5794 18.8691 -8.94972
654 1 14.1518 14.1518 20.4415 -8.94964
655 1 15.7242 12.5794 18.8691 -8.94965
656 1 17.2966 14.1518 20.4415 -8.94963
657 1 18.8691 12.5794 18.8691 -8.94963
658 1 20.4415 14.1518 20.4415 -8.94963
659 1 22.0139 15.7242 18.8691 -8.94963
660 1 1.57242 17.2966 20.4415 -8.94962
661 1 3.14483 15.7242 18.8691 -8.94945
662 1 4.71727 17.2966 20.4415 -8.94965
663 1 6.28969 15.7242 18.869 -8.94986
371 1 9.43453 15.7242 22.0139 -8.94963
353 1 3.14484 12.5794 22.0139 -8.94963
361 1 15.7242 12.5794 22.0139 -8.94963
369 1 6.28969 15.7242 22.0139 -8.94963
365 1 4.55618e-08 15.7242 22.0139 -8.94963
381 1 3.14484 18.8691 22.0139 -8.94963
387 1 12.5794 18.8691 22.0139 -8.94963
537 1 14.1518 20.4415 11.007 -8.94963
530 1 14.1518 17.2966 11.007 -8.94982
