ITEM: TIMESTEP
96
ITEM: NUMBER OF ATOMS
687
ITEM: BOX BOUNDS pp pp pp
0.0000000000000000e+00 2.2013900999999997e+01
0.0000000000000000e+00 2.2013900999999997e+01
0.0000000000000000e+00 2.2013900999999997e+01
ITEM: ATOMS id type x y z c_pot
1 1 22.0136 3.45632e-15 0.000251351 -8.94938
2 1 1.57206 1.57209 1.57242 -8.94959
196 1 20.4415 7.86179 11.007 -8.9499
4 1 4.71705 1.57209 1.57242 -8.94951
5 1 6.28954 -5.76715e-13 0.000292799 -8.94952
6 1 7.86207 1.5721 1.57242 -8.94953
175 1 18.869 9.43457 9.43421 -8.9499
8 1 11.0071 1.57213 1.57242 -8.94952
9 1 12.5796 -6.071e-13 0.000327232 -8.94951
10 1 14.1521 1.57217 1.57242 -8.94955
195 1 17.2992 7.86168 11.0067 -8.95181
12 1 17.2969 1.57217 1.57242 -8.94938
13 1 18.8693 7.21697e-15 0.000205862 -8.94925
14 1 20.4413 1.57222 1.57242 -8.94925
15 1 22.0133 3.14422 0.000355956 -8.94916
16 1 1.57155 4.71639 1.57242 -8.94952
194 1 14.1622 7.85797 11.0044 -8.95827
18 1 4.71689 4.71643 1.57242 -8.9496
174 1 15.7256 9.4352 9.43398 -8.94979
20 1 7.86217 4.71649 1.57242 -8.94955
173 1 12.5825 9.4368 9.43401 -8.95295
22 1 11.0073 4.71663 1.57242 -8.94953
193 1 11.0477 7.82476 10.9736 -8.85432
24 1 14.1524 4.71682 1.57242 -8.95007
25 1 15.7248 3.1443 0.000590398 -8.94948
26 1 17.2968 4.71713 1.57242 -8.94971
27 1 18.8691 3.14457 0.000280992 -8.94958
28 1 20.4411 4.71694 1.57242 -8.94953
192 1 7.84741 7.85408 10.9827 -8.90434
30 1 1.57137 7.86154 1.57242 -8.94938
31 1 3.14362 6.28845 0.00125737 -8.95
32 1 4.71663 7.86145 1.57242 -8.95067
172 1 9.44922 9.4103 9.4265 -8.90435
34 1 7.86235 7.86164 1.57242 -8.95028
171 1 6.2489 9.4012 9.39718 -8.85432
36 1 11.0072 7.86208 1.57242 -8.95043
37 1 12.58 6.28926 0.00105867 -8.95071
38 1 14.1521 7.86219 1.57242 -8.94954
39 1 15.7245 6.28965 0.000384251 -8.94974
40 1 17.2967 7.86205 1.57242 -8.94953
41 1 18.8689 6.2895 0.000258446 -8.94951
42 1 20.441 7.86189 1.57242 -8.94952
170 1 3.13446 9.43202 9.43039 -8.95827
169 1 22.0113 9.43423 9.4341 -8.95181
45 1 6.28934 9.43435 0.0017036 -8.95145
46 1 9.43464 9.43465 0.000510647 -8.94943
47 1 12.5797 9.43469 0.000335225 -8.94935
168 1 18.8701 6.28913 9.4341 -8.95025
167 1 15.7289 6.28742 9.4323 -8.9509
50 1 22.0136 3.38383e-15 3.14459 -8.94938
51 1 1.5718 1.57183 4.71673 -8.94948
52 1 3.14456 1.54247e-13 3.14459 -8.94955
53 1 4.71689 1.57188 4.7167 -8.94948
54 1 6.28954 -5.76967e-13 3.14455 -8.94952
55 1 7.86199 1.57191 4.7166 -8.9495
56 1 9.43456 -3.6352e-15 3.14452 -8.94953
57 1 11.0071 1.57194 4.71656 -8.94946
58 1 12.5796 -6.07191e-13 3.14452 -8.94951
59 1 14.1523 1.57194 4.7165 -8.94961
60 1 15.7246 1.42569e-13 3.14451 -8.94959
61 1 17.2973 1.57207 4.71664 -8.94916
62 1 18.8693 7.88116e-15 3.14464 -8.94925
63 1 20.4415 1.57214 4.71699 -8.94958
64 1 22.0133 3.14422 3.14449 -8.94916
65 1 1.57077 4.71562 4.71589 -8.94821
66 1 3.1443 3.14408 3.14436 -8.94961
67 1 4.71634 4.71568 4.7157 -8.94964
68 1 6.2895 3.14413 3.14436 -8.94946
69 1 7.862 4.7159 4.71576 -8.94935
70 1 9.43465 3.14418 3.14434 -8.9495
71 1 11.0075 4.71605 4.71568 -8.94914
72 1 12.5798 3.14428 3.1443 -8.94948
73 1 14.1532 4.71602 4.71532 -8.94943
74 1 15.7248 3.1443 3.14425 -8.94948
75 1 17.2971 4.71691 4.71659 -8.94987
76 1 18.8691 3.14457 3.14456 -8.94958
77 1 20.4409 4.7167 4.71674 -8.94955
78 1 -0.000851043 6.2891 3.14438 -8.94946
79 1 1.57055 7.86109 4.71569 -8.94918
80 1 3.14362 6.28845 3.14359 -8.95
81 1 4.71513 7.86024 4.71331 -8.95156
82 1 6.28945 6.28871 3.14368 -8.94973
83 1 7.8622 7.86087 4.71435 -8.95063
84 1 9.4349 6.28884 3.1438 -8.94965
85 1 11.0074 7.8617 4.71497 -8.95255
86 1 12.58 6.28926 3.14378 -8.95071
87 1 14.1523 7.8623 4.71645 -8.94964
88 1 15.7245 6.28965 3.14446 -8.94974
89 1 17.2968 7.86204 4.71673 -8.94942
90 1 18.8689 6.2895 3.14458 -8.94951
91 1 20.4408 7.86176 4.71665 -8.94944
92 1 22.013 9.4343 3.14433 -8.94948
93 1 3.14336 9.43401 3.14349 -8.9494
94 1 6.28934 9.43435 3.14314 -8.95145
95 1 9.43464 9.43465 3.14433 -8.94943
96 1 12.5797 9.43469 3.14451 -8.94935
97 1 15.7245 9.43453 3.1445 -8.94955
98 1 18.8689 9.43445 3.14456 -8.94955
99 1 22.0138 1.63512e-13 6.28955 -8.94971
100 1 1.57209 1.57204 7.86207 -8.94974
101 1 3.14428 -2.00397e-12 6.28924 -8.95007
102 1 4.71665 1.57136 7.86168 -8.95071
103 1 6.28932 6.8798e-12 6.28905 -8.94953
104 1 7.86173 1.57138 7.86126 -8.94965
105 1 9.43447 -1.41924e-12 6.28891 -8.94955
106 1 11.0072 1.57126 7.86113 -8.94973
107 1 12.5797 1.10036e-11 6.28885 -8.9496
108 1 14.153 1.57116 7.86087 -8.95
109 1 15.7251 -3.89682e-12 6.28881 -8.94952
110 1 17.2975 1.57196 7.86153 -8.94946
111 1 18.8695 8.66587e-14 6.28936 -8.94953
112 1 20.4416 1.57216 7.86192 -8.94951
113 1 22.0134 3.14417 6.28934 -8.94987
114 1 1.57114 4.716 7.86168 -8.95044
115 1 3.14344 3.1429 6.28844 -8.94943
116 1 4.71405 4.71236 7.85911 -8.94985
117 1 6.28913 3.14326 6.28847 -8.94914
118 1 7.86148 4.71372 7.85933 -8.94772
119 1 9.43463 3.14334 6.28832 -8.94935
120 1 11.0085 4.7133 7.85909 -8.94916
121 1 12.5803 3.14328 6.28811 -8.94964
122 1 14.1565 4.71292 7.85764 -8.94453
123 1 15.7259 3.14347 6.28804 -8.94821
124 1 17.2984 4.71617 7.86091 -8.94969
125 1 18.8696 3.14432 6.28912 -8.94955
126 1 20.4415 4.7167 7.86179 -8.94987
127 1 22.0121 6.28849 6.28859 -8.94969
128 1 1.56778 7.85988 7.85984 -8.9509
129 1 3.14019 6.28522 6.28534 -8.94453
130 1 4.70388 7.8499 7.84917 -8.92997
131 1 6.2881 6.28667 6.28573 -8.94916
132 1 7.86103 7.85661 7.85291 -8.9509
133 1 9.43516 6.28691 6.28614 -8.94772
134 1 11.0134 7.85501 7.85143 -8.95314
135 1 12.5826 6.28669 6.28479 -8.94985
136 1 14.1543 7.86191 7.86037 -8.95169
137 1 15.7255 6.28926 6.28842 -8.95044
138 1 17.2974 7.86212 7.86148 -8.94987
139 1 18.869 6.28936 6.28912 -8.94987
140 1 20.4404 7.86168 7.86155 -8.95025
141 1 -0.00201299 9.43405 6.28842 -8.94928
142 1 3.14046 9.43298 6.28557 -8.9476
143 1 6.28623 9.43304 6.28131 -8.95927
144 1 9.43384 9.43431 6.28814 -8.95185
145 1 12.5798 9.43522 6.28898 -8.94888
146 1 15.7249 9.43456 6.28878 -8.94898
147 1 18.8688 9.43441 6.28902 -8.94956
148 1 -9.8746e-05 -1.32652e-12 9.43447 -8.94953
149 1 3.14451 1.37322e-11 9.43461 -8.94954
150 1 6.28943 -6.29141e-11 9.4345 -8.95043
151 1 9.43429 5.31996e-12 9.43406 -8.95028
152 1 12.58 -1.35792e-10 9.43388 -8.95067
153 1 15.7253 6.82497e-12 9.43396 -8.94938
154 1 18.8695 -2.67179e-13 9.43431 -8.94952
155 1 -0.000196771 3.14431 9.43446 -8.94942
156 1 3.14433 3.14403 9.43472 -8.94964
157 1 6.28921 3.14254 9.43412 -8.95255
158 1 9.43444 3.14193 9.43329 -8.95063
159 1 12.5815 3.14089 9.43266 -8.95156
160 1 15.7261 3.14327 9.43351 -8.94918
161 1 18.8698 3.14423 9.43418 -8.94944
162 1 22.0131 6.28906 9.43454 -8.94987
163 1 3.14237 6.28795 9.43433 -8.95169
164 1 6.28319 6.27901 9.42743 -8.95314
165 1 9.43561 6.28049 9.42904 -8.9509
166 1 12.5928 6.27674 9.42233 -8.92997
177 1 4.71692 1.57209 11.0071 -8.94935
178 1 7.862 1.57191 11.0071 -8.94943
179 1 11.0073 1.57072 11.0068 -8.95145
191 1 4.71413 7.86159 11.0092 -8.95295
181 1 17.2976 1.57191 11.0067 -8.94948
182 1 20.4417 1.57214 11.0069 -8.94955
184 1 4.71688 4.71656 11.0076 -8.94888
185 1 7.8628 4.71571 11.0067 -8.95185
186 1 11.0104 4.70889 11.0055 -8.95927
190 1 1.57102 7.86156 11.0076 -8.94979
19 1 6.2895 3.14413 0.00048405 -8.94946
49 1 18.8689 9.43445 0.000283644 -8.94955
21 1 9.43465 3.14418 0.000507522 -8.9495
43 1 22.013 9.4343 0.000513026 -8.94948
176 1 1.5721 1.57208 11.007 -8.94955
343 1 18.8688 9.43441 18.8697 -8.94956
342 1 15.7249 9.43456 18.87 -8.94898
341 1 12.5798 9.43522 18.8698 -8.94888
340 1 9.43384 9.43431 18.8706 -8.95185
339 1 6.28623 9.43304 18.8774 -8.95927
338 1 3.14046 9.43298 18.8732 -8.9476
183 1 1.5717 4.71635 11.007 -8.94898
337 1 -0.00201299 9.43405 18.8703 -8.94928
336 1 20.4408 7.86176 20.4421 -8.94944
335 1 18.869 6.28936 18.8696 -8.94987
334 1 17.2968 7.86204 20.442 -8.94942
188 1 17.2986 4.716 11.0065 -8.94928
189 1 20.4417 4.7166 11.0068 -8.94956
333 1 15.7255 6.28926 18.8703 -8.95044
332 1 14.1523 7.8623 20.4423 -8.94964
331 1 12.5826 6.28669 18.874 -8.94985
330 1 11.0074 7.8617 20.4438 -8.95255
329 1 9.43516 6.28691 18.8726 -8.94772
328 1 7.8622 7.86087 20.4444 -8.95063
327 1 6.2881 6.28667 18.873 -8.94916
197 1 -0.000108005 1.86775e-12 12.5794 -8.94957
198 1 1.5721 1.57208 14.1518 -8.94955
199 1 3.14446 -2.82815e-11 12.5794 -8.94965
200 1 4.71692 1.57209 14.1516 -8.94935
201 1 6.28936 1.81123e-10 12.5794 -8.94913
202 1 7.862 1.57191 14.1517 -8.94943
203 1 9.43434 -8.68076e-10 12.5794 -8.94848
204 1 11.0073 1.57072 14.152 -8.95145
205 1 12.5803 -7.43717e-11 12.5794 -8.95036
206 1 14.1533 1.57106 14.1523 -8.9494
207 1 15.7253 -7.26496e-13 12.5794 -8.94946
208 1 17.2976 1.57191 14.152 -8.94948
209 1 18.8695 -4.91357e-14 12.5794 -8.94954
210 1 20.4417 1.57214 14.1519 -8.94955
211 1 22.0137 3.14428 12.5794 -8.94956
212 1 1.5717 4.71635 14.1518 -8.94898
213 1 3.14431 3.1441 12.5794 -8.94964
214 1 4.71688 4.71656 14.1511 -8.94888
215 1 6.28957 3.14481 12.5794 -8.94821
216 1 7.8628 4.71571 14.152 -8.95185
217 1 9.43484 3.14403 12.5794 -8.94633
218 1 11.0104 4.70889 14.1533 -8.95927
219 1 12.5822 3.14072 12.5794 -8.94958
220 1 14.1562 4.71315 14.1533 -8.9476
221 1 15.7262 3.14322 12.5794 -8.94945
222 1 17.2986 4.716 14.1523 -8.94928
223 1 18.8698 3.14419 12.5794 -8.9495
224 1 20.4417 4.7166 14.1519 -8.94956
225 1 -0.000529239 6.28885 12.5794 -8.94955
226 1 1.57102 7.86156 14.1511 -8.94979
227 1 3.14343 6.2881 12.5794 -8.94648
228 1 4.71413 7.86159 14.1495 -8.95295
229 1 6.29189 6.2922 12.5794 -8.94509
230 1 7.84741 7.85408 14.176 -8.90434
231 1 9.43986 6.29323 12.5794 -9.00329
232 1 11.0477 7.82476 14.1851 -8.85432
233 1 12.5905 6.27915 12.5794 -8.94205
234 1 14.1622 7.85797 14.1543 -8.95827
235 1 15.7291 6.287 12.5794 -8.94906
236 1 17.2992 7.86168 14.1521 -8.95181
237 1 18.8703 6.28894 12.5794 -8.94999
238 1 20.4415 7.86179 14.1517 -8.9499
239 1 22.0136 9.43427 12.5794 -8.94762
240 1 3.14757 9.43516 12.5794 -8.93978
241 1 6.31272 9.44443 12.5794 -8.90228
242 1 9.51175 9.2026 12.5794 -8.12148
243 1 12.5869 9.42668 12.5794 -8.97289
244 1 15.7265 9.43481 12.5794 -8.95107
245 1 18.8696 9.43461 12.5794 -8.94936
246 1 -9.8746e-05 -1.32649e-12 15.7243 -8.94953
247 1 1.57209 1.57204 17.2967 -8.94974
248 1 3.14451 1.3732e-11 15.7241 -8.94954
249 1 4.71665 1.57136 17.2971 -8.95071
250 1 6.28943 -6.29144e-11 15.7242 -8.95043
251 1 7.86173 1.57138 17.2975 -8.94965
252 1 9.43429 5.31967e-12 15.7247 -8.95028
253 1 11.0072 1.57126 17.2976 -8.94973
254 1 12.58 -1.35793e-10 15.7249 -8.95067
255 1 14.153 1.57116 17.2979 -8.95
256 1 15.7253 6.82485e-12 15.7248 -8.94938
257 1 17.2975 1.57196 17.2972 -8.94946
258 1 18.8695 -2.66526e-13 15.7244 -8.94952
259 1 20.4416 1.57216 17.2968 -8.94951
260 1 -0.000196771 3.14431 15.7243 -8.94942
261 1 1.57114 4.716 17.2971 -8.95044
262 1 3.14433 3.14403 15.724 -8.94964
263 1 4.71405 4.71236 17.2996 -8.94985
264 1 6.28921 3.14254 15.7246 -8.95255
265 1 7.86148 4.71372 17.2994 -8.94772
266 1 9.43444 3.14193 15.7255 -8.95063
267 1 11.0085 4.7133 17.2996 -8.94916
268 1 12.5815 3.14089 15.7261 -8.95156
269 1 14.1565 4.71292 17.3011 -8.94453
270 1 15.7261 3.14327 15.7252 -8.94918
271 1 17.2984 4.71617 17.2978 -8.94969
272 1 18.8698 3.14423 15.7246 -8.94944
273 1 20.4415 4.7167 17.297 -8.94987
274 1 22.0131 6.28906 15.7242 -8.94987
275 1 1.56778 7.85988 17.2989 -8.9509
276 1 3.14237 6.28795 15.7244 -8.95169
277 1 4.70388 7.8499 17.3096 -8.92997
278 1 6.28319 6.27901 15.7313 -8.95314
279 1 7.86103 7.85661 17.3058 -8.9509
280 1 9.43561 6.28049 15.7297 -8.9509
281 1 11.0134 7.85501 17.3073 -8.95314
282 1 12.5928 6.27674 15.7364 -8.92997
283 1 14.1543 7.86191 17.2984 -8.95169
284 1 15.7289 6.28742 15.7264 -8.9509
285 1 17.2974 7.86212 17.2973 -8.94987
286 1 18.8701 6.28913 15.7246 -8.95025
287 1 20.4404 7.86168 17.2972 -8.95025
288 1 22.0113 9.43423 15.7246 -8.95181
289 1 3.13446 9.43202 15.7284 -8.95827
290 1 6.2489 9.4012 15.7616 -8.85432
291 1 9.44922 9.4103 15.7322 -8.90435
292 1 12.5825 9.4368 15.7247 -8.95295
293 1 15.7256 9.4352 15.7248 -8.94979
294 1 18.869 9.43457 15.7245 -8.9499
295 1 22.0138 1.63658e-13 18.8692 -8.94971
296 1 1.5718 1.57183 20.442 -8.94948
297 1 3.14428 -2.00285e-12 18.8695 -8.95007
298 1 4.71689 1.57188 20.442 -8.94948
299 1 6.28932 6.88001e-12 18.8697 -8.94953
300 1 7.86199 1.57191 20.4421 -8.9495
301 1 9.43447 -1.41884e-12 18.8698 -8.94955
302 1 11.0071 1.57194 20.4422 -8.94946
303 1 12.5797 1.1004e-11 18.8699 -8.9496
304 1 14.1523 1.57194 20.4422 -8.94961
305 1 15.7251 -3.89745e-12 18.8699 -8.94952
306 1 17.2973 1.57207 20.4421 -8.94916
307 1 18.8695 8.64737e-14 18.8694 -8.94953
308 1 20.4415 1.57214 20.4418 -8.94958
309 1 22.0134 3.14417 18.8694 -8.94987
310 1 1.57077 4.71562 20.4429 -8.94821
311 1 3.14344 3.1429 18.8703 -8.94943
312 1 4.71634 4.71568 20.443 -8.94964
313 1 6.28913 3.14326 18.8703 -8.94914
314 1 7.862 4.7159 20.443 -8.94935
315 1 9.43463 3.14334 18.8704 -8.94935
316 1 11.0075 4.71605 20.4431 -8.94914
317 1 12.5803 3.14328 18.8706 -8.94964
318 1 14.1532 4.71602 20.4434 -8.94943
319 1 15.7259 3.14347 18.8707 -8.94821
320 1 17.2971 4.71691 20.4422 -8.94987
321 1 18.8696 3.14432 18.8696 -8.94955
322 1 20.4409 4.7167 20.442 -8.94955
323 1 22.0121 6.28849 18.8702 -8.94969
324 1 1.57055 7.86109 20.4431 -8.94918
325 1 3.14019 6.28522 18.8734 -8.94453
326 1 4.71513 7.86024 20.4454 -8.95156
7 1 9.43456 -3.41089e-15 22.0142 -8.94953
48 1 15.7245 9.43453 22.0142 -8.94955
44 1 3.14336 9.43401 22.0153 -8.9494
33 1 6.28945 6.28871 22.0151 -8.94973
35 1 9.4349 6.28884 22.0149 -8.94965
3 1 3.14456 1.54324e-13 22.0142 -8.94955
11 1 15.7246 1.42306e-13 22.0142 -8.94959
17 1 3.1443 3.14408 22.0144 -8.94961
23 1 12.5798 3.14428 22.0144 -8.94948
29 1 -0.000851043 6.2891 22.0144 -8.94946
180 1 14.1533 1.57106 11.0064 -8.9494
187 1 14.1562 4.71315 11.0054 -8.9476
344 1 1.5713 11.007 1.57242 -8.94946
345 1 4.71629 11.007 1.57242 -8.95036
346 1 7.86229 11.007 1.57242 -8.94848
347 1 11.0073 11.007 1.57242 -8.94913
348 1 14.1522 11.007 1.57242 -8.94965
349 1 17.2967 11.007 1.57242 -8.94957
350 1 20.441 11.007 1.57242 -8.94954
511 1 18.8698 18.8697 9.43418 -8.94944
352 1 1.57137 14.1524 1.57242 -8.94938
510 1 15.7261 18.8706 9.43351 -8.94918
354 1 4.71663 14.1524 1.57242 -8.95067
355 1 6.28934 12.5795 0.0017036 -8.95145
356 1 7.86235 14.1523 1.57242 -8.95028
357 1 9.43464 12.5792 0.000510647 -8.94943
358 1 11.0072 14.1518 1.57242 -8.95043
359 1 12.5797 12.5792 0.000335225 -8.94935
360 1 14.1521 14.1517 1.57242 -8.94954
509 1 12.5815 18.873 9.43266 -8.95156
362 1 17.2967 14.1519 1.57242 -8.94953
508 1 9.43444 18.872 9.43329 -8.95063
364 1 20.441 14.152 1.57242 -8.94952
539 1 20.4417 20.4418 11.0069 -8.94955
366 1 1.57155 17.2975 1.57242 -8.94952
367 1 3.14362 15.7255 0.00125737 -8.95
368 1 4.71689 17.2975 1.57242 -8.9496
507 1 6.28921 18.8714 9.43412 -8.95255
370 1 7.86217 17.2974 1.57242 -8.94955
506 1 3.14433 18.8699 9.43472 -8.94964
372 1 11.0073 17.2973 1.57242 -8.94953
373 1 12.58 15.7246 0.00105867 -8.95071
374 1 14.1524 17.2971 1.57242 -8.95007
375 1 15.7245 15.7243 0.000384251 -8.94974
376 1 17.2968 17.2968 1.57242 -8.94971
377 1 18.8689 15.7244 0.000258446 -8.94951
378 1 20.4411 17.297 1.57242 -8.94953
379 1 22.0133 18.8697 0.000355956 -8.94916
380 1 1.57206 20.4418 1.57242 -8.94959
538 1 17.2976 20.442 11.0067 -8.94948
382 1 4.71705 20.4418 1.57242 -8.94951
505 1 -0.000196771 18.8696 9.43446 -8.94942
384 1 7.86207 20.4418 1.57242 -8.94953
504 1 18.8701 15.7248 9.4341 -8.95025
386 1 11.0071 20.4418 1.57242 -8.94952
536 1 11.0073 20.4432 11.0068 -8.95145
388 1 14.1521 20.4417 1.57242 -8.94955
389 1 15.7248 18.8696 0.000590398 -8.94948
390 1 17.2969 20.4417 1.57242 -8.94938
391 1 18.8691 18.8693 0.000280992 -8.94958
392 1 20.4413 20.4417 1.57242 -8.94925
393 1 1.57044 11.007 4.71564 -8.94945
394 1 4.71447 11.007 4.71314 -8.94958
395 1 7.8618 11.007 4.71645 -8.94633
396 1 11.0071 11.007 4.71723 -8.9482
397 1 14.1523 11.007 4.71652 -8.94964
398 1 17.2968 11.007 4.71671 -8.94956
399 1 20.4407 11.007 4.71661 -8.9495
400 1 22.013 12.5796 3.14433 -8.94948
401 1 1.57055 14.1528 4.71569 -8.94918
402 1 3.14336 12.5799 3.14349 -8.9494
403 1 4.71513 14.1537 4.71331 -8.95156
404 1 6.28934 12.5795 3.14314 -8.95145
405 1 7.8622 14.153 4.71435 -8.95063
406 1 9.43464 12.5792 3.14433 -8.94943
407 1 11.0074 14.1522 4.71497 -8.95255
408 1 12.5797 12.5792 3.14451 -8.94935
409 1 14.1523 14.1516 4.71645 -8.94964
410 1 15.7245 12.5794 3.1445 -8.94955
411 1 17.2968 14.1519 4.71673 -8.94942
412 1 18.8689 12.5794 3.14456 -8.94955
413 1 20.4408 14.1521 4.71665 -8.94944
414 1 -0.000851043 15.7248 3.14438 -8.94946
415 1 1.57077 17.2983 4.71589 -8.94821
416 1 3.14362 15.7255 3.14359 -8.95
417 1 4.71634 17.2982 4.7157 -8.94964
418 1 6.28945 15.7252 3.14368 -8.94973
419 1 7.862 17.298 4.71576 -8.94935
420 1 9.4349 15.7251 3.1438 -8.94965
421 1 11.0075 17.2978 4.71568 -8.94914
422 1 12.58 15.7246 3.14378 -8.95071
423 1 14.1532 17.2979 4.71532 -8.94943
424 1 15.7245 15.7243 3.14446 -8.94974
425 1 17.2971 17.297 4.71659 -8.94987
426 1 18.8689 15.7244 3.14458 -8.94951
427 1 20.4409 17.2972 4.71674 -8.94955
428 1 22.0133 18.8697 3.14449 -8.94916
429 1 1.5718 20.4421 4.71673 -8.94948
430 1 3.1443 18.8698 3.14436 -8.94961
431 1 4.71689 20.442 4.7167 -8.94948
432 1 6.2895 18.8698 3.14436 -8.94946
433 1 7.86199 20.442 4.7166 -8.9495
434 1 9.43465 18.8697 3.14434 -8.9495
435 1 11.0071 20.442 4.71656 -8.94946
436 1 12.5798 18.8696 3.1443 -8.94948
437 1 14.1523 20.442 4.7165 -8.94961
438 1 15.7248 18.8696 3.14425 -8.94948
439 1 17.2973 20.4418 4.71664 -8.94916
440 1 18.8691 18.8693 3.14456 -8.94958
441 1 20.4415 20.4418 4.71699 -8.94958
442 1 1.56754 11.007 7.85942 -8.94906
443 1 4.70615 11.007 7.85157 -8.94205
444 1 7.85678 11.007 7.86565 -9.00328
445 1 11.0047 11.007 7.86462 -8.94509
446 1 14.1532 11.007 7.86052 -8.94648
447 1 17.2972 11.007 7.86127 -8.94955
448 1 20.4402 11.007 7.86136 -8.94999
449 1 -0.00201299 12.5798 6.28842 -8.94928
450 1 1.56778 14.154 7.85984 -8.9509
451 1 3.14046 12.5809 6.28557 -8.9476
452 1 4.70388 14.164 7.84917 -8.92997
453 1 6.28623 12.5809 6.28131 -8.95927
454 1 7.86103 14.1573 7.85291 -8.9509
455 1 9.43384 12.5796 6.28814 -8.95185
456 1 11.0134 14.1589 7.85143 -8.95314
457 1 12.5798 12.5787 6.28898 -8.94888
458 1 14.1543 14.152 7.86037 -8.95169
459 1 15.7249 12.5793 6.28878 -8.94898
460 1 17.2974 14.1518 7.86148 -8.94987
461 1 18.8688 12.5795 6.28902 -8.94956
462 1 20.4404 14.1522 7.86155 -8.95025
463 1 22.0121 15.7254 6.28859 -8.94969
464 1 1.57114 17.2979 7.86168 -8.95044
465 1 3.14019 15.7287 6.28534 -8.94453
466 1 4.71405 17.3015 7.85911 -8.94985
467 1 6.2881 15.7272 6.28573 -8.94916
468 1 7.86148 17.3002 7.85933 -8.94772
469 1 9.43516 15.727 6.28614 -8.94772
470 1 11.0085 17.3006 7.85909 -8.94916
471 1 12.5826 15.7272 6.28479 -8.94985
472 1 14.1565 17.301 7.85764 -8.94453
473 1 15.7255 15.7246 6.28842 -8.95044
474 1 17.2984 17.2977 7.86091 -8.94969
475 1 18.869 15.7245 6.28912 -8.94987
476 1 20.4415 17.2972 7.86179 -8.94987
477 1 22.0134 18.8697 6.28934 -8.94987
478 1 1.57209 20.4419 7.86207 -8.94974
479 1 3.14344 18.871 6.28844 -8.94943
480 1 4.71665 20.4425 7.86168 -8.95071
481 1 6.28913 18.8706 6.28847 -8.94914
482 1 7.86173 20.4425 7.86126 -8.94965
483 1 9.43463 18.8706 6.28832 -8.94935
484 1 11.0072 20.4426 7.86113 -8.94973
485 1 12.5803 18.8706 6.28811 -8.94964
486 1 14.153 20.4427 7.86087 -8.95
487 1 15.7259 18.8704 6.28804 -8.94821
488 1 17.2975 20.4419 7.86153 -8.94946
489 1 18.8696 18.8696 6.28912 -8.94955
490 1 20.4416 20.4417 7.86192 -8.94951
491 1 22.0113 12.5797 9.4341 -8.95181
492 1 3.13446 12.5819 9.43039 -8.95827
493 1 6.2489 12.6127 9.39718 -8.85432
494 1 9.44922 12.6036 9.4265 -8.90435
495 1 12.5825 12.5771 9.43401 -8.95295
496 1 15.7256 12.5787 9.43398 -8.94979
497 1 18.869 12.5793 9.43421 -8.9499
498 1 22.0131 15.7248 9.43454 -8.94987
499 1 3.14237 15.726 9.43433 -8.95169
500 1 6.28319 15.7349 9.42743 -8.95314
501 1 9.43561 15.7334 9.42904 -8.9509
502 1 12.5928 15.7372 9.42233 -8.92997
503 1 15.7289 15.7265 9.4323 -8.9509
512 1 1.57016 11.007 11.0072 -8.95107
513 1 4.70978 11.007 10.9991 -8.97289
514 1 7.78489 11.007 10.775 -8.12148
515 1 10.9839 11.007 11.0169 -8.90228
516 1 14.1491 11.007 11.0076 -8.93978
517 1 17.2969 11.007 11.0067 -8.94762
518 1 20.4409 11.007 11.007 -8.94936
519 1 1.57102 14.1523 11.0076 -8.94979
520 1 4.71412 14.1523 11.0092 -8.95295
521 1 7.84741 14.1598 10.9827 -8.90434
522 1 11.0477 14.1891 10.9736 -8.85432
523 1 14.1622 14.1559 11.0044 -8.95827
524 1 17.2992 14.1522 11.0067 -8.95181
525 1 20.4415 14.1521 11.007 -8.9499
527 1 4.71688 17.2973 11.0076 -8.94888
528 1 7.8628 17.2982 11.0067 -8.95185
529 1 11.0104 17.305 11.0055 -8.95927
535 1 7.862 20.442 11.0071 -8.94943
534 1 4.71692 20.4418 11.0071 -8.94935
351 1 22.013 12.5796 0.000513026 -8.94948
385 1 9.43465 18.8697 0.000507522 -8.9495
383 1 6.2895 18.8698 0.00048405 -8.94946
363 1 18.8689 12.5794 0.000283644 -8.94955
687 3 8.64832 11.007 12.5794 2.30863
686 1 20.4415 20.4418 20.4418 -8.94958
685 1 18.8696 18.8696 18.8696 -8.94955
684 1 17.2973 20.4418 20.4421 -8.94916
683 1 15.7259 18.8704 18.8707 -8.94821
682 1 14.1523 20.442 20.4422 -8.94961
681 1 12.5803 18.8706 18.8706 -8.94964
680 1 11.0071 20.442 20.4422 -8.94946
679 1 9.43463 18.8706 18.8704 -8.94935
678 1 7.86199 20.442 20.4421 -8.9495
677 1 6.28913 18.8706 18.8703 -8.94914
676 1 4.71689 20.442 20.442 -8.94948
675 1 3.14344 18.871 18.8703 -8.94943
674 1 1.5718 20.4421 20.442 -8.94948
526 1 1.5717 17.2975 11.007 -8.94898
673 1 22.0134 18.8697 18.8694 -8.94987
672 1 20.4409 17.2972 20.442 -8.94955
671 1 18.869 15.7245 18.8696 -8.94987
670 1 17.2971 17.297 20.4422 -8.94987
531 1 17.2986 17.2979 11.0065 -8.94928
532 1 20.4417 17.2973 11.0068 -8.94956
533 1 1.5721 20.4418 11.007 -8.94955
669 1 15.7255 15.7246 18.8703 -8.95044
668 1 14.1532 17.2979 20.4434 -8.94943
667 1 12.5826 15.7272 18.874 -8.94985
666 1 11.0075 17.2978 20.4431 -8.94914
665 1 9.43516 15.727 18.8726 -8.94772
664 1 7.862 17.298 20.443 -8.94935
540 1 1.57016 11.007 14.1515 -8.95107
541 1 4.70978 11.007 14.1596 -8.97289
542 1 7.78489 11.007 14.3837 -8.12148
543 1 10.9839 11.007 14.1419 -8.90228
544 1 14.1491 11.007 14.1512 -8.93978
545 1 17.2969 11.007 14.1521 -8.94762
546 1 20.4409 11.007 14.1517 -8.94936
547 1 22.0136 12.5796 12.5794 -8.94762
548 1 1.57102 14.1523 14.1511 -8.94979
549 1 3.14757 12.5787 12.5794 -8.93978
550 1 4.71412 14.1523 14.1495 -8.95295
551 1 6.31272 12.5695 12.5794 -8.90228
552 1 7.84741 14.1598 14.176 -8.90434
553 1 9.51175 12.8113 12.5794 -8.12148
554 1 11.0477 14.1891 14.1851 -8.85432
555 1 12.5869 12.5872 12.5794 -8.97289
556 1 14.1622 14.1559 14.1543 -8.95827
557 1 15.7265 12.5791 12.5794 -8.95107
558 1 17.2992 14.1522 14.1521 -8.95181
559 1 18.8696 12.5793 12.5794 -8.94936
560 1 20.4415 14.1521 14.1517 -8.9499
561 1 -0.000529238 15.7251 12.5794 -8.94955
562 1 1.5717 17.2975 14.1518 -8.94898
563 1 3.14343 15.7258 12.5794 -8.94648
564 1 4.71688 17.2973 14.1511 -8.94888
565 1 6.29189 15.7217 12.5794 -8.94509
566 1 7.8628 17.2982 14.152 -8.95185
567 1 9.43986 15.7207 12.5794 -9.00329
568 1 11.0104 17.305 14.1533 -8.95927
569 1 12.5905 15.7347 12.5794 -8.94205
570 1 14.1562 17.3008 14.1533 -8.9476
571 1 15.7291 15.7269 12.5794 -8.94906
572 1 17.2986 17.2979 14.1523 -8.94928
573 1 18.8703 15.725 12.5794 -8.94999
574 1 20.4417 17.2973 14.1519 -8.94956
575 1 22.0137 18.8696 12.5794 -8.94956
576 1 1.5721 20.4418 14.1518 -8.94955
577 1 3.14431 18.8698 12.5794 -8.94964
578 1 4.71692 20.4418 14.1516 -8.94935
579 1 6.28957 18.8691 12.5794 -8.94821
580 1 7.862 20.442 14.1517 -8.94943
581 1 9.43484 18.8699 12.5794 -8.94633
582 1 11.0073 20.4432 14.152 -8.95145
583 1 12.5822 18.8732 12.5794 -8.94958
584 1 14.1533 20.4428 14.1523 -8.9494
585 1 15.7262 18.8707 12.5794 -8.94945
586 1 17.2976 20.442 14.152 -8.94948
587 1 18.8698 18.8697 12.5794 -8.9495
588 1 20.4417 20.4418 14.1519 -8.94955
589 1 1.56754 11.007 17.2993 -8.94906
590 1 4.70615 11.007 17.3072 -8.94205
591 1 7.85678 11.007 17.2931 -9.00328
592 1 11.0047 11.007 17.2941 -8.94509
593 1 14.1532 11.007 17.2982 -8.94648
594 1 17.2972 11.007 17.2975 -8.94955
595 1 20.4402 11.007 17.2974 -8.94999
596 1 22.0113 12.5797 15.7246 -8.95181
597 1 1.56778 14.154 17.2989 -8.9509
598 1 3.13446 12.5819 15.7284 -8.95827
599 1 4.70388 14.164 17.3096 -8.92997
600 1 6.2489 12.6127 15.7616 -8.85432
601 1 7.86103 14.1573 17.3058 -8.9509
602 1 9.44922 12.6036 15.7322 -8.90435
603 1 11.0134 14.1589 17.3073 -8.95314
604 1 12.5825 12.5771 15.7247 -8.95295
605 1 14.1543 14.152 17.2984 -8.95169
606 1 15.7256 12.5787 15.7248 -8.94979
607 1 17.2974 14.1518 17.2973 -8.94987
608 1 18.869 12.5793 15.7245 -8.9499
609 1 20.4404 14.1522 17.2972 -8.95025
610 1 22.0131 15.7248 15.7242 -8.94987
611 1 1.57114 17.2979 17.2971 -8.95044
612 1 3.14237 15.726 15.7244 -8.95169
613 1 4.71405 17.3015 17.2996 -8.94985
614 1 6.28319 15.7349 15.7313 -8.95314
615 1 7.86148 17.3002 17.2994 -8.94772
616 1 9.43561 15.7334 15.7297 -8.9509
617 1 11.0085 17.3006 17.2996 -8.94916
618 1 12.5928 15.7372 15.7364 -8.92997
619 1 14.1565 17.301 17.3011 -8.94453
620 1 15.7289 15.7265 15.7264 -8.9509
621 1 17.2984 17.2977 17.2978 -8.94969
622 1 18.8701 15.7248 15.7246 -8.95025
623 1 20.4415 17.2972 17.297 -8.94987
624 1 -0.000196771 18.8696 15.7243 -8.94942
625 1 1.57209 20.4419 17.2967 -8.94974
626 1 3.14433 18.8699 15.724 -8.94964
627 1 4.71665 20.4425 17.2971 -8.95071
628 1 6.28921 18.8714 15.7246 -8.95255
629 1 7.86173 20.4425 17.2975 -8.94965
630 1 9.43444 18.872 15.7255 -8.95063
631 1 11.0072 20.4426 17.2976 -8.94973
632 1 12.5815 18.873 15.7261 -8.95156
633 1 14.153 20.4427 17.2979 -8.95
634 1 15.7261 18.8706 15.7252 -8.94918
635 1 17.2975 20.4419 17.2972 -8.94946
636 1 18.8698 18.8697 15.7246 -8.94944
637 1 20.4416 20.4417 17.2968 -8.94951
638 1 1.57044 11.007 20.4431 -8.94945
639 1 4.71447 11.007 20.4456 -8.94958
640 1 7.8618 11.007 20.4423 -8.94633
641 1 11.0071 11.007 20.4415 -8.9482
642 1 14.1523 11.007 20.4422 -8.94964
643 1 17.2968 11.007 20.442 -8.94956
644 1 20.4407 11.007 20.4421 -8.9495
645 1 -0.00201299 12.5798 18.8703 -8.94928
646 1 1.57055 14.1528 20.4431 -8.94918
647 1 3.14046 12.5809 18.8732 -8.9476
648 1 4.71513 14.1537 20.4454 -8.95156
649 1 6.28623 12.5809 18.8774 -8.95927
650 1 7.8622 14.153 20.4444 -8.95063
651 1 9.43384 12.5796 18.8706 -8.95185
652 1 11.0074 14.1522 20.4438 -8.95255
653 1 12.5798 12.5787 18.8698 -8.94888
654 1 14.1523 14.1516 20.4423 -8.94964
655 1 15.7249 12.5793 18.87 -8.94898
656 1 17.2968 14.1519 20.442 -8.94942
657 1 18.8688 12.5795 18.8697 -8.94956
658 1 20.4408 14.1521 20.4421 -8.94944
659 1 22.0121 15.7254 18.8702 -8.94969
660 1 1.57077 17.2983 20.4429 -8.94821
661 1 3.14019 15.7287 18.8734 -8.94453
662 1 4.71634 17.2982 20.443 -8.94964
663 1 6.2881 15.7272 18.873 -8.94916
371 1 9.4349 15.7251 22.0149 -8.94965
353 1 3.14336 12.5799 22.0153 -8.9494
361 1 15.7245 12.5794 22.0142 -8.94955
369 1 6.28945 15.7252 22.0151 -8.94973
365 1 -0.000851043 15.7248 22.0144 -8.94946
381 1 3.1443 18.8698 22.0144 -8.94961
387 1 12.5798 18.8696 22.0144 -8.94948
537 1 14.1533 20.4428 11.0064 -8.9494
530 1 14.1562 17.3008 11.0054 -8.9476
