ITEM: TIMESTEP
78
ITEM: NUMBER OF ATOMS
687
ITEM: BOX BOUNDS pp pp pp
0.0000000000000000e+00 2.2013900999999997e+01
0.0000000000000000e+00 2.2013900999999997e+01
0.0000000000000000e+00 2.2013900999999997e+01
ITEM: ATOMS id type x y z c_pot
1 1 22.0138 7.55057e-16 0.000137664 -8.94948
2 1 1.57229 1.57227 1.57242 -8.94965
196 1 20.4414 7.86184 11.007 -8.94989
4 1 4.71719 1.57226 1.57242 -8.94957
5 1 6.28963 -1.19848e-15 0.000161111 -8.94958
6 1 7.86209 1.57225 1.57242 -8.94959
175 1 18.8691 9.43457 9.43426 -8.94989
8 1 11.007 1.57226 1.57242 -8.94958
9 1 12.5794 -5.073e-16 0.000158704 -8.94957
10 1 14.1519 1.57229 1.57242 -8.94959
195 1 17.2989 7.86183 11.0067 -8.95172
12 1 17.2968 1.57228 1.57242 -8.94948
13 1 18.8692 1.78059e-15 9.20928e-05 -8.94939
14 1 20.4414 1.57233 1.57242 -8.94939
15 1 22.0135 3.1445 0.000213462 -8.94924
16 1 1.57194 4.71676 1.57242 -8.94955
194 1 14.1616 7.8586 11.0045 -8.95819
18 1 4.71711 4.7168 1.57242 -8.94959
174 1 15.7256 9.43524 9.43396 -8.94971
20 1 7.86215 4.71678 1.57242 -8.94956
173 1 12.5825 9.43716 9.43398 -8.95279
22 1 11.0072 4.71685 1.57242 -8.94952
193 1 11.0473 7.82563 10.9738 -8.85397
24 1 14.1521 4.71698 1.57242 -8.94998
25 1 15.7246 3.14451 0.000367012 -8.9495
26 1 17.2967 4.71722 1.57242 -8.9497
27 1 18.8691 3.14472 0.000140135 -8.94962
28 1 20.4413 4.71714 1.57242 -8.9496
192 1 7.84768 7.85476 10.9839 -8.90492
30 1 1.57185 7.86182 1.57242 -8.94943
31 1 3.14405 6.28886 0.000950546 -8.94998
32 1 4.71689 7.86167 1.57242 -8.9506
172 1 9.44896 9.41152 9.42718 -8.90492
34 1 7.86236 7.86175 1.57242 -8.95018
171 1 6.24932 9.40137 9.39805 -8.85397
36 1 11.0072 7.86206 1.57242 -8.95034
37 1 12.5798 6.28937 0.000828554 -8.95057
38 1 14.152 7.86216 1.57242 -8.94954
39 1 15.7244 6.2897 0.000223493 -8.94971
40 1 17.2967 7.86207 1.57242 -8.94957
41 1 18.869 6.28961 0.000131822 -8.94956
42 1 20.4413 7.86203 1.57242 -8.94959
170 1 3.135 9.43213 9.43102 -8.95819
169 1 22.0116 9.43427 9.43425 -8.95172
45 1 6.28957 9.43442 0.00152544 -8.95138
46 1 9.4347 9.43464 0.000535039 -8.94945
47 1 12.5797 9.43465 0.000323318 -8.94939
168 1 18.8698 6.28931 9.43422 -8.95017
167 1 15.7281 6.28787 9.43265 -8.95086
50 1 22.0138 6.76269e-16 3.14471 -8.94948
51 1 1.57207 1.57205 4.71693 -8.9495
52 1 3.14475 -4.75183e-16 3.14472 -8.94959
53 1 4.7171 1.5721 4.71693 -8.94951
54 1 6.28963 -1.16415e-15 3.14468 -8.94958
55 1 7.86205 1.5721 4.71686 -8.94955
56 1 9.43454 -1.43304e-15 3.14467 -8.94959
57 1 11.007 1.57212 4.71686 -8.94952
58 1 12.5794 -4.98519e-16 3.14468 -8.94957
59 1 14.152 1.57214 4.71686 -8.94967
60 1 15.7243 -3.79493e-16 3.14469 -8.94965
61 1 17.297 1.57221 4.71692 -8.94924
62 1 18.8692 1.71913e-15 3.14475 -8.94939
63 1 20.4415 1.57228 4.71715 -8.94962
64 1 22.0135 3.1445 3.14463 -8.94924
65 1 1.57128 4.71611 4.71626 -8.94827
66 1 3.1446 3.14444 3.14456 -8.94967
67 1 4.71676 4.71622 4.71619 -8.94968
68 1 6.28961 3.14443 3.14454 -8.94952
69 1 7.86208 4.71632 4.71619 -8.94939
70 1 9.43458 3.14444 3.14452 -8.94955
71 1 11.0073 4.71644 4.71613 -8.94916
72 1 12.5795 3.14451 3.14452 -8.94951
73 1 14.1528 4.71636 4.71582 -8.94945
74 1 15.7246 3.14451 3.14448 -8.9495
75 1 17.2969 4.71709 4.71689 -8.94983
76 1 18.8691 3.14472 3.1447 -8.94962
77 1 20.4411 4.71696 4.71696 -8.94956
78 1 -0.00044078 6.28941 3.14456 -8.94955
79 1 1.57122 7.86148 4.71617 -8.94927
80 1 3.14405 6.28886 3.14389 -8.94998
81 1 4.71572 7.86062 4.71391 -8.9515
82 1 6.28962 6.28903 3.14398 -8.94964
83 1 7.86238 7.86115 4.71475 -8.95047
84 1 9.43482 6.28906 3.14402 -8.9496
85 1 11.0074 7.86186 4.7152 -8.9524
86 1 12.5798 6.28937 3.14401 -8.95057
87 1 14.1522 7.86233 4.71666 -8.94963
88 1 15.7244 6.2897 3.14462 -8.94971
89 1 17.2968 7.86208 4.71693 -8.94945
90 1 18.869 6.28961 3.14471 -8.94956
91 1 20.4411 7.86194 4.7169 -8.94949
92 1 22.0134 9.43443 3.14454 -8.94955
93 1 3.1439 9.4342 3.14382 -8.94939
94 1 6.28957 9.43442 3.14332 -8.95138
95 1 9.4347 9.43464 3.14431 -8.94945
96 1 12.5797 9.43465 3.14452 -8.94939
97 1 15.7245 9.43452 3.14459 -8.94958
98 1 18.869 9.4345 3.14468 -8.94959
99 1 22.0138 1.80516e-15 6.28965 -8.9497
100 1 1.57223 1.5722 7.86212 -8.94971
101 1 3.14451 1.54906e-15 6.2894 -8.94998
102 1 4.71684 1.57159 7.8618 -8.95057
103 1 6.28948 1.08671e-15 6.28927 -8.94952
104 1 7.86182 1.5716 7.86148 -8.9496
105 1 9.43448 1.41914e-16 6.2892 -8.94956
106 1 11.007 1.57156 7.86146 -8.94964
107 1 12.5795 -6.85319e-16 6.28922 -8.94959
108 1 14.1526 1.57147 7.86128 -8.94998
109 1 15.7247 4.13586e-16 6.28919 -8.94955
110 1 17.2971 1.57214 7.86183 -8.94955
111 1 18.8692 1.70139e-15 6.28956 -8.9496
112 1 20.4415 1.57229 7.86204 -8.94956
113 1 22.0136 3.14447 6.28951 -8.94983
114 1 1.57153 4.7164 7.86189 -8.95034
115 1 3.14386 3.14339 6.28879 -8.94945
116 1 4.71466 4.71304 7.85971 -8.94993
117 1 6.28937 3.14371 6.28886 -8.94916
118 1 7.86159 4.71437 7.85995 -8.9478
119 1 9.43456 3.14377 6.28874 -8.94939
120 1 11.008 4.71415 7.85976 -8.9492
121 1 12.5799 3.14377 6.28864 -8.94968
122 1 14.1556 4.71359 7.8583 -8.94459
123 1 15.7254 3.14384 6.28853 -8.94827
124 1 17.2979 4.71649 7.86127 -8.94967
125 1 18.8694 3.14454 6.28938 -8.94956
126 1 20.4415 4.71693 7.86194 -8.94982
127 1 22.0126 6.28885 6.28891 -8.94967
128 1 1.56852 7.86023 7.86029 -8.95086
129 1 3.14099 6.28587 6.28601 -8.94459
130 1 4.70484 7.85047 7.85008 -8.92997
131 1 6.28868 6.28734 6.28657 -8.9492
132 1 7.86149 7.85741 7.85388 -8.95095
133 1 9.43505 6.28753 6.28679 -8.9478
134 1 11.0129 7.85596 7.85206 -8.95346
135 1 12.582 6.28729 6.28546 -8.94993
136 1 14.1538 7.86221 7.86066 -8.95157
137 1 15.7251 6.28947 6.28882 -8.95034
138 1 17.2973 7.86218 7.86165 -8.94978
139 1 18.869 6.28952 6.28935 -8.94982
140 1 20.4407 7.8618 7.86173 -8.95017
141 1 -0.00137901 9.43422 6.28882 -8.94931
142 1 3.14146 9.43328 6.28637 -8.94769
143 1 6.28692 9.43324 6.28187 -8.95917
144 1 9.43405 9.43454 6.28814 -8.95169
145 1 12.5797 9.43532 6.28898 -8.94899
146 1 15.7249 9.43457 6.28893 -8.94902
147 1 18.869 9.43445 6.28925 -8.94956
148 1 -0.000106618 1.77399e-15 9.43449 -8.94957
149 1 3.14461 1.70959e-15 9.43458 -8.94954
150 1 6.28948 1.73557e-15 9.43448 -8.95034
151 1 9.43428 -2.12651e-16 9.43417 -8.95018
152 1 12.5797 -7.20987e-16 9.43409 -8.9506
153 1 15.7248 5.76508e-16 9.43424 -8.94943
154 1 18.8693 1.59522e-15 9.43445 -8.94959
155 1 -0.000176398 3.14451 9.4345 -8.94945
156 1 3.14448 3.14424 9.43476 -8.94963
157 1 6.28929 3.14278 9.43428 -8.9524
158 1 9.43425 3.14233 9.43357 -8.95047
159 1 12.5809 3.14149 9.43304 -8.9515
160 1 15.7254 3.14375 9.4339 -8.94927
161 1 18.8694 3.14448 9.43436 -8.94949
162 1 22.0133 6.28923 9.4346 -8.94978
163 1 3.14282 6.28824 9.43464 -8.95157
164 1 6.28376 6.27964 9.42838 -8.95346
165 1 9.43515 6.28145 9.42984 -8.95095
166 1 12.5918 6.27766 9.42289 -8.92997
177 1 4.71696 1.5721 11.0071 -8.94939
178 1 7.86193 1.57189 11.0071 -8.94945
179 1 11.0071 1.5709 11.0068 -8.95138
191 1 4.71415 7.86156 11.0096 -8.95279
181 1 17.2971 1.57211 11.0068 -8.94955
182 1 20.4415 1.57226 11.0069 -8.94959
184 1 4.71691 4.71656 11.0077 -8.94899
185 1 7.86258 4.71572 11.007 -8.95169
186 1 11.0097 4.70945 11.0057 -8.95917
190 1 1.57102 7.86154 11.0077 -8.94971
19 1 6.28961 3.14443 0.000299538 -8.94952
49 1 18.869 9.4345 0.000159269 -8.94959
21 1 9.43458 3.14444 0.0003202 -8.94955
43 1 22.0134 9.43443 0.000307688 -8.94955
176 1 1.57215 1.57217 11.0069 -8.94958
343 1 18.869 9.43445 18.8695 -8.94956
342 1 15.7249 9.43457 18.8698 -8.94902
341 1 12.5797 9.43532 18.8698 -8.94899
340 1 9.43405 9.43454 18.8706 -8.95169
339 1 6.28692 9.43324 18.8769 -8.95917
338 1 3.14146 9.43328 18.8724 -8.94769
183 1 1.57177 4.71651 11.007 -8.94902
337 1 -0.00137901 9.43422 18.8699 -8.94931
336 1 20.4411 7.86194 20.4418 -8.94949
335 1 18.869 6.28952 18.8694 -8.94982
334 1 17.2968 7.86208 20.4418 -8.94945
188 1 17.298 4.7164 11.0066 -8.94931
189 1 20.4416 4.71683 11.0069 -8.94956
333 1 15.7251 6.28947 18.8699 -8.95034
332 1 14.1522 7.86233 20.4421 -8.94963
331 1 12.582 6.28729 18.8733 -8.94993
330 1 11.0074 7.86186 20.4435 -8.9524
329 1 9.43505 6.28753 18.872 -8.9478
328 1 7.86238 7.86115 20.444 -8.95047
327 1 6.28868 6.28734 18.8722 -8.9492
197 1 -0.000121663 1.6451e-15 12.5794 -8.9496
198 1 1.57215 1.57217 14.1518 -8.94958
199 1 3.14453 1.56954e-15 12.5794 -8.94968
200 1 4.71696 1.5721 14.1517 -8.94939
201 1 6.28937 1.71924e-15 12.5794 -8.94923
202 1 7.86193 1.57189 14.1517 -8.94945
203 1 9.43427 2.38444e-16 12.5794 -8.94866
204 1 11.0071 1.5709 14.1519 -8.95138
205 1 12.58 -1.50033e-15 12.5794 -8.95027
206 1 14.1527 1.5714 14.1521 -8.94939
207 1 15.7248 2.28886e-17 12.5794 -8.9495
208 1 17.2971 1.57211 14.1519 -8.94955
209 1 18.8693 1.84367e-15 12.5794 -8.9496
210 1 20.4415 1.57226 14.1518 -8.94959
211 1 22.0137 3.14446 12.5794 -8.9496
212 1 1.57177 4.71651 14.1518 -8.94902
213 1 3.14433 3.14415 12.5794 -8.94966
214 1 4.71691 4.71656 14.151 -8.94899
215 1 6.28947 3.14464 12.5794 -8.94827
216 1 7.86258 4.71572 14.1518 -8.95169
217 1 9.43454 3.14392 12.5794 -8.94649
218 1 11.0097 4.70945 14.1531 -8.95917
219 1 12.5814 3.14132 12.5794 -8.94952
220 1 14.1552 4.71395 14.153 -8.94769
221 1 15.7255 3.14372 12.5794 -8.94949
222 1 17.298 4.7164 14.1521 -8.94931
223 1 18.8695 3.14446 12.5794 -8.94955
224 1 20.4416 4.71683 14.1519 -8.94956
225 1 -0.000590354 6.28897 12.5794 -8.94953
226 1 1.57102 7.86154 14.1511 -8.94971
227 1 3.1434 6.28809 12.5794 -8.94653
228 1 4.71415 7.86156 14.1492 -8.95279
229 1 6.29177 6.292 12.5794 -8.9453
230 1 7.84768 7.85476 14.1748 -8.90492
231 1 9.4395 6.29311 12.5794 -9.0033
232 1 11.0473 7.82563 14.185 -8.85397
233 1 12.5894 6.28011 12.5794 -8.94221
234 1 14.1616 7.8586 14.1542 -8.95819
235 1 15.7282 6.28761 12.5794 -8.94906
236 1 17.2989 7.86183 14.1521 -8.95172
237 1 18.87 6.28916 12.5794 -8.94992
238 1 20.4414 7.86184 14.1518 -8.94989
239 1 22.0134 9.43422 12.5794 -8.94779
240 1 3.1469 9.43497 12.5794 -8.93989
241 1 6.31176 9.44441 12.5794 -8.90171
242 1 9.51286 9.20331 12.5794 -8.11955
243 1 12.5875 9.42725 12.5794 -8.97293
244 1 15.7267 9.43496 12.5794 -8.95119
245 1 18.8696 9.43461 12.5794 -8.94952
246 1 -0.000106618 1.69945e-15 15.7242 -8.94957
247 1 1.57223 1.5722 17.2966 -8.94971
248 1 3.14461 1.64839e-15 15.7242 -8.94954
249 1 4.71684 1.57159 17.2969 -8.95057
250 1 6.28948 1.48329e-15 15.7243 -8.95034
251 1 7.86182 1.5716 17.2973 -8.9496
252 1 9.43428 2.96226e-16 15.7246 -8.95018
253 1 11.007 1.57156 17.2973 -8.94964
254 1 12.5797 -5.1769e-16 15.7246 -8.9506
255 1 14.1526 1.57147 17.2975 -8.94998
256 1 15.7248 7.62561e-16 15.7245 -8.94943
257 1 17.2971 1.57214 17.2969 -8.94955
258 1 18.8693 1.6128e-15 15.7243 -8.94959
259 1 20.4415 1.57229 17.2967 -8.94956
260 1 -0.000176398 3.14451 15.7242 -8.94945
261 1 1.57153 4.7164 17.2969 -8.95034
262 1 3.14448 3.14424 15.724 -8.94963
263 1 4.71466 4.71304 17.299 -8.94993
264 1 6.28929 3.14278 15.7245 -8.9524
265 1 7.86159 4.71437 17.2988 -8.9478
266 1 9.43425 3.14233 15.7252 -8.95047
267 1 11.008 4.71415 17.299 -8.9492
268 1 12.5809 3.14149 15.7257 -8.9515
269 1 14.1556 4.71359 17.3004 -8.94459
270 1 15.7254 3.14375 15.7248 -8.94927
271 1 17.2979 4.71649 17.2975 -8.94967
272 1 18.8694 3.14448 15.7244 -8.94949
273 1 20.4415 4.71693 17.2968 -8.94982
274 1 22.0133 6.28923 15.7241 -8.94978
275 1 1.56852 7.86023 17.2985 -8.95086
276 1 3.14282 6.28824 15.7241 -8.95157
277 1 4.70484 7.85047 17.3087 -8.92997
278 1 6.28376 6.27964 15.7304 -8.95346
279 1 7.86149 7.85741 17.3049 -8.95095
280 1 9.43515 6.28145 15.7289 -8.95095
281 1 11.0129 7.85596 17.3067 -8.95346
282 1 12.5918 6.27766 15.7359 -8.92997
283 1 14.1538 7.86221 17.2981 -8.95157
284 1 15.7281 6.28787 15.7261 -8.95086
285 1 17.2973 7.86218 17.2971 -8.94978
286 1 18.8698 6.28931 15.7245 -8.95017
287 1 20.4407 7.8618 17.297 -8.95017
288 1 22.0116 9.43427 15.7245 -8.95172
289 1 3.135 9.43213 15.7277 -8.95819
290 1 6.24932 9.40137 15.7607 -8.85397
291 1 9.44896 9.41152 15.7316 -8.90492
292 1 12.5825 9.43716 15.7248 -8.95279
293 1 15.7256 9.43524 15.7248 -8.94971
294 1 18.8691 9.43457 15.7245 -8.94989
295 1 22.0138 1.73817e-15 18.8691 -8.9497
296 1 1.57207 1.57205 20.4418 -8.9495
297 1 3.14451 1.51729e-15 18.8693 -8.94998
298 1 4.7171 1.5721 20.4418 -8.94951
299 1 6.28948 1.55371e-15 18.8695 -8.94952
300 1 7.86205 1.5721 20.4419 -8.94955
301 1 9.43448 1.22201e-15 18.8695 -8.94956
302 1 11.007 1.57212 20.4419 -8.94952
303 1 12.5795 3.64516e-16 18.8695 -8.94959
304 1 14.152 1.57214 20.4419 -8.94967
305 1 15.7247 1.00759e-15 18.8696 -8.94955
306 1 17.297 1.57221 20.4418 -8.94924
307 1 18.8692 1.80036e-15 18.8692 -8.9496
308 1 20.4415 1.57228 20.4416 -8.94962
309 1 22.0136 3.14447 18.8692 -8.94983
310 1 1.57128 4.71611 20.4425 -8.94827
311 1 3.14386 3.14339 18.87 -8.94945
312 1 4.71676 4.71622 20.4426 -8.94968
313 1 6.28937 3.14371 18.8699 -8.94916
314 1 7.86208 4.71632 20.4426 -8.94939
315 1 9.43456 3.14377 18.87 -8.94939
316 1 11.0073 4.71644 20.4426 -8.94916
317 1 12.5799 3.14377 18.8701 -8.94968
318 1 14.1528 4.71636 20.4429 -8.94945
319 1 15.7254 3.14384 18.8702 -8.94827
320 1 17.2969 4.71709 20.4419 -8.94983
321 1 18.8694 3.14454 18.8694 -8.94956
322 1 20.4411 4.71696 20.4418 -8.94956
323 1 22.0126 6.28885 18.8698 -8.94967
324 1 1.57122 7.86148 20.4426 -8.94927
325 1 3.14099 6.28587 18.8727 -8.94459
326 1 4.71572 7.86062 20.4448 -8.9515
7 1 9.43454 -1.24519e-15 22.0141 -8.94959
48 1 15.7245 9.43452 22.0142 -8.94958
44 1 3.1439 9.4342 22.0149 -8.94939
33 1 6.28962 6.28903 22.0148 -8.94964
35 1 9.43482 6.28906 22.0147 -8.9496
3 1 3.14475 -5.2902e-16 22.014 -8.94959
11 1 15.7243 -2.03958e-16 22.0141 -8.94965
17 1 3.1446 3.14444 22.0142 -8.94967
23 1 12.5795 3.14451 22.0142 -8.94951
29 1 -0.00044078 6.28941 22.0142 -8.94955
180 1 14.1527 1.5714 11.0066 -8.94939
187 1 14.1552 4.71395 11.0057 -8.94769
344 1 1.5718 11.007 1.57242 -8.9495
345 1 4.71664 11.007 1.57242 -8.95027
346 1 7.86237 11.007 1.57242 -8.94866
347 1 11.0073 11.007 1.57242 -8.94923
348 1 14.1521 11.007 1.57242 -8.94968
349 1 17.2968 11.007 1.57242 -8.9496
350 1 20.4413 11.007 1.57242 -8.9496
511 1 18.8694 18.8694 9.43436 -8.94949
352 1 1.57185 14.1521 1.57242 -8.94943
510 1 15.7254 18.8702 9.4339 -8.94927
354 1 4.71689 14.1522 1.57242 -8.9506
355 1 6.28957 12.5795 0.00152544 -8.95138
356 1 7.86236 14.1522 1.57242 -8.95018
357 1 9.4347 12.5793 0.000535039 -8.94945
358 1 11.0072 14.1518 1.57242 -8.95034
359 1 12.5797 12.5793 0.000323318 -8.94939
360 1 14.152 14.1517 1.57242 -8.94954
509 1 12.5809 18.8724 9.43304 -8.9515
362 1 17.2967 14.1518 1.57242 -8.94957
508 1 9.43425 18.8716 9.43357 -8.95047
364 1 20.4413 14.1519 1.57242 -8.94959
539 1 20.4415 20.4416 11.0069 -8.94959
366 1 1.57194 17.2971 1.57242 -8.94955
367 1 3.14405 15.725 0.000950546 -8.94998
368 1 4.71711 17.2971 1.57242 -8.94959
507 1 6.28929 18.8711 9.43428 -8.9524
370 1 7.86215 17.2971 1.57242 -8.94956
506 1 3.14448 18.8697 9.43476 -8.94963
372 1 11.0072 17.2971 1.57242 -8.94952
373 1 12.5798 15.7245 0.000828554 -8.95057
374 1 14.1521 17.2969 1.57242 -8.94998
375 1 15.7244 15.7242 0.000223493 -8.94971
376 1 17.2967 17.2967 1.57242 -8.9497
377 1 18.869 15.7243 0.000131822 -8.94956
378 1 20.4413 17.2968 1.57242 -8.9496
379 1 22.0135 18.8694 0.000213462 -8.94924
380 1 1.57229 20.4416 1.57242 -8.94965
538 1 17.2971 20.4418 11.0068 -8.94955
382 1 4.71719 20.4416 1.57242 -8.94957
505 1 -0.000176398 18.8694 9.4345 -8.94945
384 1 7.86209 20.4417 1.57242 -8.94959
504 1 18.8698 15.7246 9.43422 -8.95017
386 1 11.007 20.4416 1.57242 -8.94958
536 1 11.0071 20.443 11.0068 -8.95138
388 1 14.1519 20.4416 1.57242 -8.94959
389 1 15.7246 18.8694 0.000367012 -8.9495
390 1 17.2968 20.4416 1.57242 -8.94948
391 1 18.8691 18.8692 0.000140135 -8.94962
392 1 20.4414 20.4416 1.57242 -8.94939
393 1 1.57116 11.007 4.71614 -8.94949
394 1 4.7152 11.007 4.71375 -8.94952
395 1 7.86209 11.007 4.71635 -8.94649
396 1 11.0072 11.007 4.71706 -8.94827
397 1 14.1523 11.007 4.71657 -8.94966
398 1 17.2968 11.007 4.71688 -8.9496
399 1 20.4411 11.007 4.71688 -8.94955
400 1 22.0134 12.5795 3.14454 -8.94955
401 1 1.57122 14.1524 4.71617 -8.94927
402 1 3.1439 12.5797 3.14382 -8.94939
403 1 4.71572 14.1533 4.71391 -8.9515
404 1 6.28957 12.5795 3.14332 -8.95138
405 1 7.86238 14.1528 4.71475 -8.95047
406 1 9.4347 12.5793 3.14431 -8.94945
407 1 11.0074 14.152 4.7152 -8.9524
408 1 12.5797 12.5793 3.14452 -8.94939
409 1 14.1522 14.1516 4.71666 -8.94963
410 1 15.7245 12.5794 3.14459 -8.94958
411 1 17.2968 14.1518 4.71693 -8.94945
412 1 18.869 12.5794 3.14468 -8.94959
413 1 20.4411 14.152 4.7169 -8.94949
414 1 -0.00044078 15.7245 3.14456 -8.94955
415 1 1.57128 17.2978 4.71626 -8.94827
416 1 3.14405 15.725 3.14389 -8.94998
417 1 4.71676 17.2977 4.71619 -8.94968
418 1 6.28962 15.7249 3.14398 -8.94964
419 1 7.86208 17.2976 4.71619 -8.94939
420 1 9.43482 15.7248 3.14402 -8.9496
421 1 11.0073 17.2975 4.71613 -8.94916
422 1 12.5798 15.7245 3.14401 -8.95057
423 1 14.1528 17.2975 4.71582 -8.94945
424 1 15.7244 15.7242 3.14462 -8.94971
425 1 17.2969 17.2968 4.71689 -8.94983
426 1 18.869 15.7243 3.14471 -8.94956
427 1 20.4411 17.2969 4.71696 -8.94956
428 1 22.0135 18.8694 3.14463 -8.94924
429 1 1.57207 20.4418 4.71693 -8.9495
430 1 3.1446 18.8695 3.14456 -8.94967
431 1 4.7171 20.4418 4.71693 -8.94951
432 1 6.28961 18.8695 3.14454 -8.94952
433 1 7.86205 20.4418 4.71686 -8.94955
434 1 9.43458 18.8695 3.14452 -8.94955
435 1 11.007 20.4418 4.71686 -8.94952
436 1 12.5795 18.8694 3.14452 -8.94951
437 1 14.152 20.4418 4.71686 -8.94967
438 1 15.7246 18.8694 3.14448 -8.9495
439 1 17.297 20.4417 4.71692 -8.94924
440 1 18.8691 18.8692 3.1447 -8.94962
441 1 20.4415 20.4416 4.71715 -8.94962
442 1 1.5684 11.007 7.86003 -8.94906
443 1 4.70719 11.007 7.85254 -8.94221
444 1 7.85714 11.007 7.86553 -9.0033
445 1 11.0049 11.007 7.86442 -8.9453
446 1 14.1532 11.007 7.86051 -8.94653
447 1 17.2972 11.007 7.86139 -8.94953
448 1 20.4406 11.007 7.86158 -8.94992
449 1 -0.00137901 12.5797 6.28882 -8.94931
450 1 1.56852 14.1537 7.86029 -8.95086
451 1 3.14146 12.5806 6.28637 -8.94769
452 1 4.70484 14.1634 7.85008 -8.92997
453 1 6.28692 12.5807 6.28187 -8.95917
454 1 7.86149 14.1565 7.85388 -8.95095
455 1 9.43405 12.5794 6.28814 -8.95169
456 1 11.0129 14.1579 7.85206 -8.95346
457 1 12.5797 12.5786 6.28898 -8.94899
458 1 14.1538 14.1517 7.86066 -8.95157
459 1 15.7249 12.5793 6.28893 -8.94902
460 1 17.2973 14.1517 7.86165 -8.94978
461 1 18.869 12.5795 6.28925 -8.94956
462 1 20.4407 14.1521 7.86173 -8.95017
463 1 22.0126 15.725 6.28891 -8.94967
464 1 1.57153 17.2975 7.86189 -8.95034
465 1 3.14099 15.728 6.28601 -8.94459
466 1 4.71466 17.3009 7.85971 -8.94993
467 1 6.28868 15.7266 6.28657 -8.9492
468 1 7.86159 17.2995 7.85995 -8.9478
469 1 9.43505 15.7264 6.28679 -8.9478
470 1 11.008 17.2998 7.85976 -8.9492
471 1 12.582 15.7266 6.28546 -8.94993
472 1 14.1556 17.3003 7.8583 -8.94459
473 1 15.7251 15.7244 6.28882 -8.95034
474 1 17.2979 17.2974 7.86127 -8.94967
475 1 18.869 15.7244 6.28935 -8.94982
476 1 20.4415 17.297 7.86194 -8.94982
477 1 22.0136 18.8694 6.28951 -8.94983
478 1 1.57223 20.4417 7.86212 -8.94971
479 1 3.14386 18.8705 6.28879 -8.94945
480 1 4.71684 20.4423 7.8618 -8.95057
481 1 6.28937 18.8702 6.28886 -8.94916
482 1 7.86182 20.4423 7.86148 -8.9496
483 1 9.43456 18.8701 6.28874 -8.94939
484 1 11.007 20.4423 7.86146 -8.94964
485 1 12.5799 18.8701 6.28864 -8.94968
486 1 14.1526 20.4424 7.86128 -8.94998
487 1 15.7254 18.8701 6.28853 -8.94827
488 1 17.2971 20.4418 7.86183 -8.94955
489 1 18.8694 18.8694 6.28938 -8.94956
490 1 20.4415 20.4416 7.86204 -8.94956
491 1 22.0116 12.5796 9.43425 -8.95172
492 1 3.135 12.5818 9.43102 -8.95819
493 1 6.24932 12.6125 9.39805 -8.85397
494 1 9.44896 12.6024 9.42718 -8.90492
495 1 12.5825 12.5767 9.43398 -8.95279
496 1 15.7256 12.5787 9.43396 -8.94971
497 1 18.8691 12.5793 9.43426 -8.94989
498 1 22.0133 15.7247 9.4346 -8.94978
499 1 3.14282 15.7257 9.43464 -8.95157
500 1 6.28376 15.7343 9.42838 -8.95346
501 1 9.43515 15.7324 9.42984 -8.95095
502 1 12.5918 15.7362 9.42289 -8.92997
503 1 15.7281 15.726 9.43265 -8.95086
512 1 1.56995 11.007 11.0074 -8.95119
513 1 4.70911 11.007 10.9997 -8.97293
514 1 7.78377 11.007 10.7757 -8.11955
515 1 10.9849 11.007 11.0168 -8.90171
516 1 14.1497 11.007 11.0074 -8.93989
517 1 17.2971 11.007 11.0066 -8.94779
518 1 20.4409 11.007 11.007 -8.94952
519 1 1.57102 14.1524 11.0077 -8.94971
520 1 4.71415 14.1523 11.0096 -8.95279
521 1 7.84768 14.1591 10.9839 -8.90492
522 1 11.0473 14.1883 10.9738 -8.85397
523 1 14.1616 14.1553 11.0045 -8.95819
524 1 17.2989 14.1521 11.0067 -8.95172
525 1 20.4414 14.1521 11.007 -8.94989
527 1 4.71691 17.2973 11.0077 -8.94899
528 1 7.86258 17.2982 11.007 -8.95169
529 1 11.0097 17.3045 11.0057 -8.95917
535 1 7.86193 20.442 11.0071 -8.94945
534 1 4.71696 20.4418 11.0071 -8.94939
351 1 22.0134 12.5795 0.000307688 -8.94955
385 1 9.43458 18.8695 0.0003202 -8.94955
383 1 6.28961 18.8695 0.000299538 -8.94952
363 1 18.869 12.5794 0.000159269 -8.94959
687 3 8.64832 11.007 12.5794 2.30868
686 1 20.4415 20.4416 20.4416 -8.94962
685 1 18.8694 18.8694 18.8694 -8.94956
684 1 17.297 20.4417 20.4418 -8.94924
683 1 15.7254 18.8701 18.8702 -8.94827
682 1 14.152 20.4418 20.4419 -8.94967
681 1 12.5799 18.8701 18.8701 -8.94968
680 1 11.007 20.4418 20.4419 -8.94952
679 1 9.43456 18.8701 18.87 -8.94939
678 1 7.86205 20.4418 20.4419 -8.94955
677 1 6.28937 18.8702 18.8699 -8.94916
676 1 4.7171 20.4418 20.4418 -8.94951
675 1 3.14386 18.8705 18.87 -8.94945
674 1 1.57207 20.4418 20.4418 -8.9495
526 1 1.57177 17.2974 11.007 -8.94902
673 1 22.0136 18.8694 18.8692 -8.94983
672 1 20.4411 17.2969 20.4418 -8.94956
671 1 18.869 15.7244 18.8694 -8.94982
670 1 17.2969 17.2968 20.4419 -8.94983
531 1 17.298 17.2975 11.0066 -8.94931
532 1 20.4416 17.2971 11.0069 -8.94956
533 1 1.57215 20.4417 11.0069 -8.94958
669 1 15.7251 15.7244 18.8699 -8.95034
668 1 14.1528 17.2975 20.4429 -8.94945
667 1 12.582 15.7266 18.8733 -8.94993
666 1 11.0073 17.2975 20.4426 -8.94916
665 1 9.43505 15.7264 18.872 -8.9478
664 1 7.86208 17.2976 20.4426 -8.94939
540 1 1.56995 11.007 14.1514 -8.95119
541 1 4.70911 11.007 14.1591 -8.97293
542 1 7.78377 11.007 14.383 -8.11955
543 1 10.9849 11.007 14.1419 -8.90171
544 1 14.1497 11.007 14.1514 -8.93989
545 1 17.2971 11.007 14.1521 -8.94779
546 1 20.4409 11.007 14.1517 -8.94952
547 1 22.0134 12.5797 12.5794 -8.94779
548 1 1.57102 14.1524 14.1511 -8.94971
549 1 3.1469 12.5789 12.5794 -8.93989
550 1 4.71415 14.1523 14.1492 -8.95279
551 1 6.31176 12.5695 12.5794 -8.90171
552 1 7.84768 14.1591 14.1748 -8.90492
553 1 9.51286 12.8106 12.5794 -8.11955
554 1 11.0473 14.1883 14.185 -8.85397
555 1 12.5875 12.5867 12.5794 -8.97293
556 1 14.1616 14.1553 14.1542 -8.95819
557 1 15.7267 12.5789 12.5794 -8.95119
558 1 17.2989 14.1521 14.1521 -8.95172
559 1 18.8696 12.5793 12.5794 -8.94952
560 1 20.4414 14.1521 14.1518 -8.94989
561 1 -0.000590354 15.7249 12.5794 -8.94953
562 1 1.57177 17.2974 14.1518 -8.94902
563 1 3.1434 15.7258 12.5794 -8.94653
564 1 4.71691 17.2973 14.151 -8.94899
565 1 6.29177 15.7219 12.5794 -8.9453
566 1 7.86258 17.2982 14.1518 -8.95169
567 1 9.4395 15.7208 12.5794 -9.0033
568 1 11.0097 17.3045 14.1531 -8.95917
569 1 12.5894 15.7338 12.5794 -8.94221
570 1 14.1552 17.3 14.153 -8.94769
571 1 15.7282 15.7263 12.5794 -8.94906
572 1 17.298 17.2975 14.1521 -8.94931
573 1 18.87 15.7247 12.5794 -8.94992
574 1 20.4416 17.2971 14.1519 -8.94956
575 1 22.0137 18.8694 12.5794 -8.9496
576 1 1.57215 20.4417 14.1518 -8.94958
577 1 3.14433 18.8698 12.5794 -8.94966
578 1 4.71696 20.4418 14.1517 -8.94939
579 1 6.28947 18.8693 12.5794 -8.94827
580 1 7.86193 20.442 14.1517 -8.94945
581 1 9.43454 18.87 12.5794 -8.94649
582 1 11.0071 20.443 14.1519 -8.95138
583 1 12.5814 18.8726 12.5794 -8.94952
584 1 14.1527 20.4425 14.1521 -8.94939
585 1 15.7255 18.8702 12.5794 -8.94949
586 1 17.2971 20.4418 14.1519 -8.94955
587 1 18.8695 18.8694 12.5794 -8.94955
588 1 20.4415 20.4416 14.1518 -8.94959
589 1 1.5684 11.007 17.2987 -8.94906
590 1 4.70719 11.007 17.3062 -8.94221
591 1 7.85714 11.007 17.2932 -9.0033
592 1 11.0049 11.007 17.2943 -8.9453
593 1 14.1532 11.007 17.2982 -8.94653
594 1 17.2972 11.007 17.2974 -8.94953
595 1 20.4406 11.007 17.2972 -8.94992
596 1 22.0116 12.5796 15.7245 -8.95172
597 1 1.56852 14.1537 17.2985 -8.95086
598 1 3.135 12.5818 15.7277 -8.95819
599 1 4.70484 14.1634 17.3087 -8.92997
600 1 6.24932 12.6125 15.7607 -8.85397
601 1 7.86149 14.1565 17.3049 -8.95095
602 1 9.44896 12.6024 15.7316 -8.90492
603 1 11.0129 14.1579 17.3067 -8.95346
604 1 12.5825 12.5767 15.7248 -8.95279
605 1 14.1538 14.1517 17.2981 -8.95157
606 1 15.7256 12.5787 15.7248 -8.94971
607 1 17.2973 14.1517 17.2971 -8.94978
608 1 18.8691 12.5793 15.7245 -8.94989
609 1 20.4407 14.1521 17.297 -8.95017
610 1 22.0133 15.7247 15.7241 -8.94978
611 1 1.57153 17.2975 17.2969 -8.95034
612 1 3.14282 15.7257 15.7241 -8.95157
613 1 4.71466 17.3009 17.299 -8.94993
614 1 6.28376 15.7343 15.7304 -8.95346
615 1 7.86159 17.2995 17.2988 -8.9478
616 1 9.43515 15.7324 15.7289 -8.95095
617 1 11.008 17.2998 17.299 -8.9492
618 1 12.5918 15.7362 15.7359 -8.92997
619 1 14.1556 17.3003 17.3004 -8.94459
620 1 15.7281 15.726 15.7261 -8.95086
621 1 17.2979 17.2974 17.2975 -8.94967
622 1 18.8698 15.7246 15.7245 -8.95017
623 1 20.4415 17.297 17.2968 -8.94982
624 1 -0.000176398 18.8694 15.7242 -8.94945
625 1 1.57223 20.4417 17.2966 -8.94971
626 1 3.14448 18.8697 15.724 -8.94963
627 1 4.71684 20.4423 17.2969 -8.95057
628 1 6.28929 18.8711 15.7245 -8.9524
629 1 7.86182 20.4423 17.2973 -8.9496
630 1 9.43425 18.8716 15.7252 -8.95047
631 1 11.007 20.4423 17.2973 -8.94964
632 1 12.5809 18.8724 15.7257 -8.9515
633 1 14.1526 20.4424 17.2975 -8.94998
634 1 15.7254 18.8702 15.7248 -8.94927
635 1 17.2971 20.4418 17.2969 -8.94955
636 1 18.8694 18.8694 15.7244 -8.94949
637 1 20.4415 20.4416 17.2967 -8.94956
638 1 1.57116 11.007 20.4426 -8.94949
639 1 4.7152 11.007 20.445 -8.94952
640 1 7.86209 11.007 20.4424 -8.94649
641 1 11.0072 11.007 20.4417 -8.94827
642 1 14.1523 11.007 20.4422 -8.94966
643 1 17.2968 11.007 20.4419 -8.9496
644 1 20.4411 11.007 20.4419 -8.94955
645 1 -0.00137901 12.5797 18.8699 -8.94931
646 1 1.57122 14.1524 20.4426 -8.94927
647 1 3.14146 12.5806 18.8724 -8.94769
648 1 4.71572 14.1533 20.4448 -8.9515
649 1 6.28692 12.5807 18.8769 -8.95917
650 1 7.86238 14.1528 20.444 -8.95047
651 1 9.43405 12.5794 18.8706 -8.95169
652 1 11.0074 14.152 20.4435 -8.9524
653 1 12.5797 12.5786 18.8698 -8.94899
654 1 14.1522 14.1516 20.4421 -8.94963
655 1 15.7249 12.5793 18.8698 -8.94902
656 1 17.2968 14.1518 20.4418 -8.94945
657 1 18.869 12.5795 18.8695 -8.94956
658 1 20.4411 14.152 20.4418 -8.94949
659 1 22.0126 15.725 18.8698 -8.94967
660 1 1.57128 17.2978 20.4425 -8.94827
661 1 3.14099 15.728 18.8727 -8.94459
662 1 4.71676 17.2977 20.4426 -8.94968
663 1 6.28868 15.7266 18.8722 -8.9492
371 1 9.43482 15.7248 22.0147 -8.9496
353 1 3.1439 12.5797 22.0149 -8.94939
361 1 15.7245 12.5794 22.0142 -8.94958
369 1 6.28962 15.7249 22.0148 -8.94964
365 1 -0.00044078 15.7245 22.0142 -8.94955
381 1 3.1446 18.8695 22.0142 -8.94967
387 1 12.5795 18.8694 22.0142 -8.94951
537 1 14.1527 20.4425 11.0066 -8.94939
530 1 14.1552 17.3 11.0057 -8.94769
