ITEM: TIMESTEP
70
ITEM: NUMBER OF ATOMS
687
ITEM: BOX BOUNDS pp pp pp
0.0000000000000000e+00 2.2013900999999997e+01
0.0000000000000000e+00 2.2013900999999997e+01
0.0000000000000000e+00 2.2013900999999997e+01
ITEM: ATOMS id type x y z c_pot
1 1 22.0138 3.33276e-16 8.02601e-05 -8.94953
2 1 1.57236 1.57234 1.57242 -8.94968
196 1 20.4414 7.86188 11.007 -8.94988
4 1 4.71723 1.57234 1.57242 -8.9496
5 1 6.28966 -1.17206e-15 9.37372e-05 -8.94961
6 1 7.8621 1.57232 1.57242 -8.94961
175 1 18.8691 9.43456 9.4343 -8.94988
8 1 11.007 1.57233 1.57242 -8.94961
9 1 12.5794 5.06654e-16 8.62105e-05 -8.9496
10 1 14.1518 1.57235 1.57242 -8.94961
195 1 17.2986 7.8619 11.0067 -8.95161
12 1 17.2967 1.57234 1.57242 -8.94953
13 1 18.8691 1.40783e-15 4.72404e-05 -8.94948
14 1 20.4414 1.57237 1.57242 -8.94948
15 1 22.0137 3.14463 0.00013777 -8.94931
16 1 1.57211 4.71694 1.57242 -8.94956
194 1 14.1611 7.859 11.0047 -8.95804
18 1 4.71719 4.71698 1.57242 -8.9496
174 1 15.7256 9.43518 9.43397 -8.94962
20 1 7.86213 4.71694 1.57242 -8.94958
173 1 12.5824 9.43729 9.43391 -8.95257
22 1 11.0071 4.71698 1.57242 -8.94952
193 1 11.0467 7.82637 10.974 -8.85377
24 1 14.152 4.71706 1.57242 -8.9499
25 1 15.7244 3.14462 0.000245349 -8.94952
26 1 17.2967 4.71725 1.57242 -8.94969
27 1 18.8691 3.14478 7.64914e-05 -8.94963
28 1 20.4414 4.71721 1.57242 -8.94963
192 1 7.84809 7.85524 10.9851 -8.90572
30 1 1.57206 7.86194 1.57242 -8.94947
31 1 3.14426 6.28908 0.000754021 -8.94993
32 1 4.71699 7.86178 1.57242 -8.95051
172 1 9.44854 9.4127 9.42766 -8.90572
34 1 7.86231 7.86181 1.57242 -8.9501
171 1 6.24992 9.40159 9.39879 -8.85377
36 1 11.0071 7.86204 1.57242 -8.95028
37 1 12.5797 6.28943 0.000668303 -8.95043
38 1 14.152 7.86214 1.57242 -8.94955
39 1 15.7243 6.2897 0.000140292 -8.94969
40 1 17.2967 7.86209 1.57242 -8.94959
41 1 18.869 6.28965 7.2881e-05 -8.94959
42 1 20.4414 7.86207 1.57242 -8.94962
170 1 3.13555 9.43224 9.43142 -8.95804
169 1 22.0119 9.4343 9.43432 -8.95161
45 1 6.28962 9.43444 0.00137682 -8.95132
46 1 9.43471 9.43459 0.000533421 -8.9495
47 1 12.5796 9.43462 0.000287746 -8.94942
168 1 18.8697 6.28941 9.4343 -8.9501
167 1 15.7276 6.28816 9.43293 -8.95079
50 1 22.0138 3.93404e-16 3.14476 -8.94953
51 1 1.5722 1.57218 4.71705 -8.94952
52 1 3.1448 -6.34052e-16 3.14477 -8.94961
53 1 4.71718 1.57222 4.71705 -8.94954
54 1 6.28966 -1.29701e-15 3.14475 -8.94961
55 1 7.86208 1.57221 4.717 -8.94958
56 1 9.43454 -1.40406e-15 3.14474 -8.94961
57 1 11.007 1.57222 4.71701 -8.94955
58 1 12.5794 5.01837e-16 3.14476 -8.9496
59 1 14.1519 1.57224 4.71703 -8.94969
60 1 15.7243 4.0467e-16 3.14477 -8.94968
61 1 17.2969 1.57228 4.71705 -8.94931
62 1 18.8691 1.49916e-15 3.1448 -8.94948
63 1 20.4415 1.57235 4.71721 -8.94963
64 1 22.0137 3.14463 3.14471 -8.94931
65 1 1.57157 4.71641 4.7165 -8.94838
66 1 3.14472 3.1446 3.14466 -8.94969
67 1 4.71696 4.71653 4.71649 -8.94972
68 1 6.28965 3.14459 3.14464 -8.94955
69 1 7.8621 4.71656 4.71645 -8.94943
70 1 9.43456 3.14458 3.14463 -8.94958
71 1 11.0071 4.71665 4.71641 -8.9492
72 1 12.5795 3.14463 3.14464 -8.94954
73 1 14.1525 4.71658 4.71614 -8.94946
74 1 15.7244 3.14462 3.1446 -8.94952
75 1 17.2968 4.71717 4.71704 -8.94981
76 1 18.8691 3.14478 3.14477 -8.94963
77 1 20.4412 4.71708 4.71707 -8.94957
78 1 -0.000260398 6.28954 3.14466 -8.9496
79 1 1.57157 7.86168 4.71646 -8.94935
80 1 3.14426 6.28908 3.14409 -8.94993
81 1 4.71601 7.86085 4.71436 -8.9514
82 1 6.28967 6.28921 3.14418 -8.9496
83 1 7.86244 7.8613 4.71506 -8.95031
84 1 9.43475 6.2892 3.14418 -8.94957
85 1 11.0073 7.86191 4.71541 -8.95222
86 1 12.5797 6.28943 3.14417 -8.95043
87 1 14.1521 7.86231 4.71681 -8.94963
88 1 15.7243 6.2897 3.1447 -8.94969
89 1 17.2968 7.86209 4.71705 -8.94948
90 1 18.869 6.28965 3.14477 -8.94959
91 1 20.4412 7.86201 4.71704 -8.94952
92 1 22.0136 9.43448 3.14464 -8.94958
93 1 3.14417 9.43429 3.14405 -8.9494
94 1 6.28962 9.43444 3.14347 -8.95132
95 1 9.43471 9.43459 3.14431 -8.9495
96 1 12.5796 9.43462 3.14456 -8.94942
97 1 15.7244 9.43451 3.14466 -8.94959
98 1 18.869 9.43451 3.14475 -8.94962
99 1 22.0139 1.5834e-15 6.28967 -8.94969
100 1 1.5723 1.57228 7.86213 -8.94969
101 1 3.14462 1.26196e-15 6.28948 -8.9499
102 1 4.71694 1.57175 7.86186 -8.95043
103 1 6.28956 7.64068e-16 6.2894 -8.94952
104 1 7.86189 1.57176 7.86162 -8.94957
105 1 9.4345 -2.628e-16 6.28936 -8.94958
106 1 11.007 1.57176 7.86163 -8.9496
107 1 12.5794 1.36984e-16 6.2894 -8.9496
108 1 14.1524 1.57167 7.8615 -8.94993
109 1 15.7245 8.73089e-16 6.28936 -8.94956
110 1 17.2969 1.57224 7.86196 -8.9496
111 1 18.8691 1.76259e-15 6.28963 -8.94963
112 1 20.4415 1.57235 7.86208 -8.94959
113 1 22.0137 3.14462 6.28959 -8.94981
114 1 1.57178 4.71665 7.86199 -8.95026
115 1 3.14411 3.14372 6.289 -8.94946
116 1 4.71508 4.71359 7.8601 -8.94997
117 1 6.28949 3.14399 6.28907 -8.9492
118 1 7.86169 4.71481 7.86032 -8.94788
119 1 9.43454 3.14403 6.28898 -8.94943
120 1 11.0076 4.71472 7.8602 -8.94927
121 1 12.5797 3.14407 6.28895 -8.94972
122 1 14.1551 4.7141 7.85882 -8.94472
123 1 15.7251 3.14407 6.28883 -8.94838
124 1 17.2976 4.71667 7.86149 -8.94966
125 1 18.8693 3.14465 6.2895 -8.94957
126 1 20.4415 4.71705 7.86201 -8.94977
127 1 22.0129 6.28907 6.28909 -8.94966
128 1 1.56907 7.8605 7.86058 -8.95079
129 1 3.14156 6.28639 6.28652 -8.94472
130 1 4.70567 7.85105 7.85084 -8.93006
131 1 6.28901 6.28778 6.28714 -8.94927
132 1 7.86182 7.85798 7.85461 -8.95096
133 1 9.43495 6.2879 6.28723 -8.94788
134 1 11.0123 7.85667 7.85264 -8.95371
135 1 12.5816 6.28768 6.28601 -8.94997
136 1 14.1535 7.86233 7.86089 -8.95144
137 1 15.7249 6.28957 6.28907 -8.95026
138 1 17.2971 7.86218 7.86176 -8.94971
139 1 18.869 6.28958 6.28947 -8.94977
140 1 20.4409 7.86188 7.86183 -8.9501
141 1 -0.0010154 9.43432 6.28905 -8.94933
142 1 3.14211 9.43351 6.28694 -8.94784
143 1 6.28735 9.43333 6.28228 -8.95896
144 1 9.43421 9.43462 6.28808 -8.95147
145 1 12.5797 9.43531 6.289 -8.94908
146 1 15.7248 9.43455 6.28907 -8.94908
147 1 18.869 9.43447 6.28939 -8.94958
148 1 -7.50226e-05 1.73872e-15 9.43451 -8.94959
149 1 3.14468 1.76018e-15 9.43456 -8.94955
150 1 6.28952 1.86146e-15 9.43446 -8.95028
151 1 9.43433 2.78016e-16 9.43423 -8.9501
152 1 12.5797 1.55241e-16 9.4342 -8.95051
153 1 15.7246 7.55672e-16 9.43436 -8.94947
154 1 18.8692 1.31366e-15 9.43449 -8.94962
155 1 -0.000133643 3.14463 9.43451 -8.94948
156 1 3.14457 3.14438 9.43473 -8.94963
157 1 6.28933 3.14298 9.43433 -8.95222
158 1 9.4342 3.14264 9.43372 -8.95031
159 1 12.5806 3.14194 9.43327 -8.9514
160 1 15.7251 3.14404 9.43411 -8.94935
161 1 18.8693 3.14461 9.43443 -8.94952
162 1 22.0134 6.28934 9.4346 -8.94971
163 1 3.14317 6.28847 9.43476 -8.95144
164 1 6.2843 6.28022 9.4291 -8.95371
165 1 9.43482 6.28219 9.4304 -8.95096
166 1 12.591 6.27842 9.42347 -8.93006
177 1 4.71701 1.57213 11.007 -8.94942
178 1 7.86193 1.57189 11.007 -8.9495
179 1 11.007 1.57104 11.0069 -8.95132
191 1 4.71423 7.86149 11.0097 -8.95257
181 1 17.2969 1.57222 11.0069 -8.94958
182 1 20.4415 1.57233 11.0069 -8.94962
184 1 4.71692 4.71658 11.0077 -8.94908
185 1 7.86242 4.71566 11.007 -8.95147
186 1 11.0093 4.70986 11.0058 -8.95896
190 1 1.57109 7.86155 11.0076 -8.94962
19 1 6.28965 3.14459 0.000198437 -8.94955
49 1 18.869 9.43451 9.1973e-05 -8.94962
21 1 9.43456 3.14458 0.000214894 -8.94958
43 1 22.0136 9.43448 0.000199934 -8.94958
176 1 1.57222 1.57223 11.0069 -8.94959
343 1 18.869 9.43447 18.8694 -8.94958
342 1 15.7248 9.43455 18.8697 -8.94908
341 1 12.5797 9.43531 18.8697 -8.94908
340 1 9.43421 9.43462 18.8707 -8.95147
339 1 6.28735 9.43333 18.8765 -8.95896
338 1 3.14211 9.43351 18.8718 -8.94784
183 1 1.57187 4.71665 11.007 -8.94908
337 1 -0.0010154 9.43432 18.8697 -8.94933
336 1 20.4412 7.86201 20.4417 -8.94952
335 1 18.869 6.28958 18.8693 -8.94977
334 1 17.2968 7.86209 20.4417 -8.94948
188 1 17.2977 4.71663 11.0067 -8.94933
189 1 20.4415 4.71697 11.0069 -8.94958
333 1 15.7249 6.28957 18.8697 -8.95026
332 1 14.1521 7.86231 20.4419 -8.94963
331 1 12.5816 6.28768 18.8727 -8.94997
330 1 11.0073 7.86191 20.4433 -8.95222
329 1 9.43495 6.2879 18.8715 -8.94788
328 1 7.86244 7.8613 20.4437 -8.95031
327 1 6.28901 6.28778 18.8716 -8.94927
197 1 -8.25407e-05 1.78895e-15 12.5794 -8.94962
198 1 1.57222 1.57223 14.1518 -8.94959
199 1 3.14462 1.70657e-15 12.5794 -8.94969
200 1 4.71701 1.57213 14.1517 -8.94942
201 1 6.28943 1.67524e-15 12.5794 -8.94931
202 1 7.86193 1.57189 14.1517 -8.9495
203 1 9.43429 9.69639e-16 12.5794 -8.94889
204 1 11.007 1.57104 14.1519 -8.95132
205 1 12.5798 -9.1521e-16 12.5794 -8.95018
206 1 14.1525 1.57163 14.152 -8.9494
207 1 15.7246 4.57458e-16 12.5794 -8.94953
208 1 17.2969 1.57222 14.1518 -8.94958
209 1 18.8692 1.51146e-15 12.5794 -8.94962
210 1 20.4415 1.57233 14.1518 -8.94962
211 1 22.0137 3.14458 12.5794 -8.94962
212 1 1.57187 4.71665 14.1518 -8.94908
213 1 3.14439 3.14423 12.5794 -8.94966
214 1 4.71692 4.71658 14.151 -8.94908
215 1 6.28942 3.14455 12.5794 -8.94835
216 1 7.86242 4.71566 14.1517 -8.95147
217 1 9.43441 3.1438 12.5794 -8.94675
218 1 11.0093 4.70986 14.153 -8.95896
219 1 12.581 3.1418 12.5794 -8.94946
220 1 14.1545 4.71452 14.1528 -8.94784
221 1 15.7251 3.14402 12.5794 -8.94953
222 1 17.2977 4.71663 14.152 -8.94933
223 1 18.8693 3.1446 12.5794 -8.94957
224 1 20.4415 4.71697 14.1518 -8.94958
225 1 -0.000543467 6.28909 12.5794 -8.94952
226 1 1.57109 7.86155 14.1511 -8.94962
227 1 3.14346 6.28815 12.5794 -8.94666
228 1 4.71423 7.86149 14.149 -8.95257
229 1 6.29162 6.29171 12.5794 -8.94563
230 1 7.84809 7.85524 14.1736 -8.90572
231 1 9.43919 6.29254 12.5794 -9.00313
232 1 11.0467 7.82637 14.1847 -8.85377
233 1 12.5885 6.28089 12.5794 -8.94247
234 1 14.1611 7.859 14.1541 -8.95804
235 1 15.7276 6.28799 12.5794 -8.94905
236 1 17.2986 7.8619 14.152 -8.95161
237 1 18.8697 6.2893 12.5794 -8.94988
238 1 20.4414 7.86188 14.1518 -8.94988
239 1 22.0134 9.4342 12.5794 -8.94799
240 1 3.14635 9.43475 12.5794 -8.94014
241 1 6.31053 9.44409 12.5794 -8.9011
242 1 9.51407 9.20405 12.5794 -8.11724
243 1 12.5881 9.42772 12.5794 -8.97301
244 1 15.7267 9.43501 12.5794 -8.95131
245 1 18.8696 9.4346 12.5794 -8.94965
246 1 -7.50226e-05 2.01864e-15 15.7242 -8.94959
247 1 1.5723 1.57228 17.2966 -8.94969
248 1 3.14468 1.85839e-15 15.7242 -8.94955
249 1 4.71694 1.57175 17.2969 -8.95043
250 1 6.28952 1.69527e-15 15.7243 -8.95028
251 1 7.86189 1.57176 17.2971 -8.94957
252 1 9.43433 1.02076e-15 15.7245 -8.9501
253 1 11.007 1.57176 17.2971 -8.9496
254 1 12.5797 1.67716e-17 15.7245 -8.95051
255 1 14.1524 1.57167 17.2972 -8.94993
256 1 15.7246 9.56561e-16 15.7244 -8.94947
257 1 17.2969 1.57224 17.2968 -8.9496
258 1 18.8692 1.38226e-15 15.7242 -8.94962
259 1 20.4415 1.57235 17.2967 -8.94959
260 1 -0.000133643 3.14463 15.7242 -8.94948
261 1 1.57178 4.71665 17.2968 -8.95026
262 1 3.14457 3.14438 15.724 -8.94963
263 1 4.71508 4.71359 17.2986 -8.94997
264 1 6.28933 3.14298 15.7244 -8.95222
265 1 7.86169 4.71481 17.2984 -8.94788
266 1 9.4342 3.14264 15.725 -8.95031
267 1 11.0076 4.71472 17.2985 -8.94927
268 1 12.5806 3.14194 15.7255 -8.9514
269 1 14.1551 4.7141 17.2999 -8.94472
270 1 15.7251 3.14404 15.7246 -8.94935
271 1 17.2976 4.71667 17.2973 -8.94966
272 1 18.8693 3.14461 15.7243 -8.94952
273 1 20.4415 4.71705 17.2967 -8.94977
274 1 22.0134 6.28934 15.7241 -8.94971
275 1 1.56907 7.8605 17.2982 -8.95079
276 1 3.14317 6.28847 15.724 -8.95144
277 1 4.70567 7.85105 17.3079 -8.93006
278 1 6.2843 6.28022 15.7296 -8.95371
279 1 7.86182 7.85798 17.3041 -8.95096
280 1 9.43482 6.28219 15.7283 -8.95096
281 1 11.0123 7.85667 17.3061 -8.95371
282 1 12.591 6.27842 15.7353 -8.93006
283 1 14.1535 7.86233 17.2979 -8.95144
284 1 15.7276 6.28816 15.7258 -8.95079
285 1 17.2971 7.86218 17.297 -8.94971
286 1 18.8697 6.28941 15.7244 -8.9501
287 1 20.4409 7.86188 17.2969 -8.9501
288 1 22.0119 9.4343 15.7244 -8.95161
289 1 3.13555 9.43224 15.7273 -8.95804
290 1 6.24992 9.40159 15.76 -8.85377
291 1 9.44854 9.4127 15.7311 -8.90572
292 1 12.5824 9.43729 15.7248 -8.95257
293 1 15.7256 9.43518 15.7248 -8.94962
294 1 18.8691 9.43456 15.7244 -8.94988
295 1 22.0139 1.07804e-15 18.8691 -8.94969
296 1 1.5722 1.57218 20.4417 -8.94952
297 1 3.14462 1.17015e-15 18.8693 -8.9499
298 1 4.71718 1.57222 20.4417 -8.94954
299 1 6.28956 1.26093e-15 18.8693 -8.94952
300 1 7.86208 1.57221 20.4417 -8.94958
301 1 9.4345 3.64208e-16 18.8694 -8.94958
302 1 11.007 1.57222 20.4417 -8.94955
303 1 12.5794 6.31642e-16 18.8693 -8.9496
304 1 14.1519 1.57224 20.4417 -8.94969
305 1 15.7245 1.55685e-15 18.8694 -8.94956
306 1 17.2969 1.57228 20.4417 -8.94931
307 1 18.8691 1.77786e-15 18.8691 -8.94963
308 1 20.4415 1.57235 20.4415 -8.94963
309 1 22.0137 3.14462 18.8692 -8.94981
310 1 1.57157 4.71641 20.4422 -8.94838
311 1 3.14411 3.14372 18.8697 -8.94946
312 1 4.71696 4.71653 20.4423 -8.94972
313 1 6.28949 3.14399 18.8697 -8.9492
314 1 7.8621 4.71656 20.4423 -8.94943
315 1 9.43454 3.14403 18.8698 -8.94943
316 1 11.0071 4.71665 20.4423 -8.9492
317 1 12.5797 3.14407 18.8698 -8.94972
318 1 14.1525 4.71658 20.4426 -8.94946
319 1 15.7251 3.14407 18.8699 -8.94838
320 1 17.2968 4.71717 20.4417 -8.94981
321 1 18.8693 3.14465 18.8692 -8.94957
322 1 20.4412 4.71708 20.4417 -8.94957
323 1 22.0129 6.28907 18.8696 -8.94966
324 1 1.57157 7.86168 20.4423 -8.94935
325 1 3.14156 6.28639 18.8722 -8.94472
326 1 4.71601 7.86085 20.4444 -8.9514
7 1 9.43454 -9.35363e-16 22.014 -8.94961
48 1 15.7244 9.43451 22.0141 -8.94959
44 1 3.14417 9.43429 22.0147 -8.9494
33 1 6.28967 6.28921 22.0146 -8.9496
35 1 9.43475 6.2892 22.0146 -8.94957
3 1 3.1448 -5.11128e-16 22.014 -8.94961
11 1 15.7243 5.1145e-16 22.014 -8.94968
17 1 3.14472 3.1446 22.0141 -8.94969
23 1 12.5795 3.14463 22.0141 -8.94954
29 1 -0.000260398 6.28954 22.0141 -8.9496
180 1 14.1525 1.57163 11.0067 -8.9494
187 1 14.1545 4.71452 11.0059 -8.94784
344 1 1.57203 11.007 1.57242 -8.94953
345 1 4.71679 11.007 1.57242 -8.95018
346 1 7.86234 11.007 1.57242 -8.94889
347 1 11.0072 11.007 1.57242 -8.94931
348 1 14.152 11.007 1.57242 -8.94969
349 1 17.2967 11.007 1.57242 -8.94962
350 1 20.4414 11.007 1.57242 -8.94962
511 1 18.8693 18.8693 9.43443 -8.94952
352 1 1.57206 14.152 1.57242 -8.94947
510 1 15.7251 18.8699 9.43411 -8.94935
354 1 4.71699 14.1521 1.57242 -8.95051
355 1 6.28962 12.5795 0.00137682 -8.95132
356 1 7.86231 14.1521 1.57242 -8.9501
357 1 9.43471 12.5793 0.000533421 -8.9495
358 1 11.0071 14.1519 1.57242 -8.95028
359 1 12.5796 12.5793 0.000287746 -8.94942
360 1 14.152 14.1518 1.57242 -8.94955
509 1 12.5806 18.872 9.43327 -8.9514
362 1 17.2967 14.1518 1.57242 -8.94959
508 1 9.4342 18.8713 9.43372 -8.95031
364 1 20.4414 14.1518 1.57242 -8.94962
539 1 20.4415 20.4416 11.0069 -8.94962
366 1 1.57211 17.297 1.57242 -8.94956
367 1 3.14426 15.7248 0.000754021 -8.94993
368 1 4.71719 17.2969 1.57242 -8.9496
507 1 6.28933 18.8709 9.43433 -8.95222
370 1 7.86213 17.297 1.57242 -8.94958
506 1 3.14457 18.8695 9.43473 -8.94963
372 1 11.0071 17.2969 1.57242 -8.94952
373 1 12.5797 15.7245 0.000668303 -8.95043
374 1 14.152 17.2968 1.57242 -8.9499
375 1 15.7243 15.7242 0.000140292 -8.94969
376 1 17.2967 17.2966 1.57242 -8.94969
377 1 18.869 15.7242 7.2881e-05 -8.94959
378 1 20.4414 17.2967 1.57242 -8.94963
379 1 22.0137 18.8693 0.00013777 -8.94931
380 1 1.57236 20.4416 1.57242 -8.94968
538 1 17.2969 20.4417 11.0069 -8.94958
382 1 4.71723 20.4416 1.57242 -8.9496
505 1 -0.000133643 18.8693 9.43451 -8.94948
384 1 7.8621 20.4416 1.57242 -8.94961
504 1 18.8697 15.7245 9.4343 -8.9501
386 1 11.007 20.4416 1.57242 -8.94961
536 1 11.007 20.4429 11.0069 -8.95132
388 1 14.1518 20.4415 1.57242 -8.94961
389 1 15.7244 18.8693 0.000245349 -8.94952
390 1 17.2967 20.4416 1.57242 -8.94953
391 1 18.8691 18.8691 7.64914e-05 -8.94963
392 1 20.4414 20.4415 1.57242 -8.94948
393 1 1.57153 11.007 4.71644 -8.94953
394 1 4.71561 11.007 4.71422 -8.94946
395 1 7.86222 11.007 4.71622 -8.94675
396 1 11.0072 11.007 4.71698 -8.94835
397 1 14.1522 11.007 4.71665 -8.94966
398 1 17.2968 11.007 4.717 -8.94962
399 1 20.4412 11.007 4.71702 -8.94957
400 1 22.0136 12.5794 3.14464 -8.94958
401 1 1.57157 14.1522 4.71646 -8.94935
402 1 3.14417 12.5796 3.14405 -8.9494
403 1 4.71601 14.1531 4.71436 -8.9514
404 1 6.28962 12.5795 3.14347 -8.95132
405 1 7.86244 14.1526 4.71506 -8.95031
406 1 9.43471 12.5793 3.14431 -8.9495
407 1 11.0073 14.152 4.71541 -8.95222
408 1 12.5796 12.5793 3.14456 -8.94942
409 1 14.1521 14.1516 4.71681 -8.94963
410 1 15.7244 12.5794 3.14466 -8.94959
411 1 17.2968 14.1518 4.71705 -8.94948
412 1 18.869 12.5794 3.14475 -8.94962
413 1 20.4412 14.1519 4.71704 -8.94952
414 1 -0.000260398 15.7244 3.14466 -8.9496
415 1 1.57157 17.2975 4.7165 -8.94838
416 1 3.14426 15.7248 3.14409 -8.94993
417 1 4.71696 17.2974 4.71649 -8.94972
418 1 6.28967 15.7247 3.14418 -8.9496
419 1 7.8621 17.2973 4.71645 -8.94943
420 1 9.43475 15.7247 3.14418 -8.94957
421 1 11.0071 17.2972 4.71641 -8.9492
422 1 12.5797 15.7245 3.14417 -8.95043
423 1 14.1525 17.2973 4.71614 -8.94946
424 1 15.7243 15.7242 3.1447 -8.94969
425 1 17.2968 17.2967 4.71704 -8.94981
426 1 18.869 15.7242 3.14477 -8.94959
427 1 20.4412 17.2968 4.71707 -8.94957
428 1 22.0137 18.8693 3.14471 -8.94931
429 1 1.5722 20.4417 4.71705 -8.94952
430 1 3.14472 18.8693 3.14466 -8.94969
431 1 4.71718 20.4417 4.71705 -8.94954
432 1 6.28965 18.8693 3.14464 -8.94955
433 1 7.86208 20.4417 4.717 -8.94958
434 1 9.43456 18.8693 3.14463 -8.94958
435 1 11.007 20.4417 4.71701 -8.94955
436 1 12.5795 18.8693 3.14464 -8.94954
437 1 14.1519 20.4417 4.71703 -8.94969
438 1 15.7244 18.8693 3.1446 -8.94952
439 1 17.2969 20.4416 4.71705 -8.94931
440 1 18.8691 18.8691 3.14477 -8.94963
441 1 20.4415 20.4416 4.71721 -8.94963
442 1 1.56903 11.007 7.86041 -8.94905
443 1 4.70811 11.007 7.85332 -8.94247
444 1 7.85745 11.007 7.86496 -9.00313
445 1 11.005 11.007 7.86413 -8.94563
446 1 14.1532 11.007 7.86057 -8.94666
447 1 17.2972 11.007 7.86151 -8.94952
448 1 20.4408 11.007 7.86172 -8.94988
449 1 -0.0010154 12.5796 6.28905 -8.94933
450 1 1.56907 14.1534 7.86058 -8.95079
451 1 3.14211 12.5804 6.28694 -8.94784
452 1 4.70567 14.1629 7.85084 -8.93006
453 1 6.28735 12.5806 6.28228 -8.95896
454 1 7.86182 14.1559 7.85461 -8.95096
455 1 9.43421 12.5793 6.28808 -8.95147
456 1 11.0123 14.1572 7.85264 -8.95371
457 1 12.5797 12.5786 6.289 -8.94908
458 1 14.1535 14.1516 7.86089 -8.95144
459 1 15.7248 12.5794 6.28907 -8.94908
460 1 17.2971 14.1517 7.86176 -8.94971
461 1 18.869 12.5794 6.28939 -8.94958
462 1 20.4409 14.152 7.86183 -8.9501
463 1 22.0129 15.7248 6.28909 -8.94966
464 1 1.57178 17.2973 7.86199 -8.95026
465 1 3.14156 15.7275 6.28652 -8.94472
466 1 4.71508 17.3003 7.8601 -8.94997
467 1 6.28901 15.7261 6.28714 -8.94927
468 1 7.86169 17.2991 7.86032 -8.94788
469 1 9.43495 15.726 6.28723 -8.94788
470 1 11.0076 17.2992 7.8602 -8.94927
471 1 12.5816 15.7262 6.28601 -8.94997
472 1 14.1551 17.2998 7.85882 -8.94472
473 1 15.7249 15.7243 6.28907 -8.95026
474 1 17.2976 17.2972 7.86149 -8.94966
475 1 18.869 15.7243 6.28947 -8.94977
476 1 20.4415 17.2969 7.86201 -8.94977
477 1 22.0137 18.8693 6.28959 -8.94981
478 1 1.5723 20.4416 7.86213 -8.94969
479 1 3.14411 18.8702 6.289 -8.94946
480 1 4.71694 20.4421 7.86186 -8.95043
481 1 6.28949 18.8699 6.28907 -8.9492
482 1 7.86189 20.4421 7.86162 -8.94957
483 1 9.43454 18.8699 6.28898 -8.94943
484 1 11.007 20.4421 7.86163 -8.9496
485 1 12.5797 18.8698 6.28895 -8.94972
486 1 14.1524 20.4422 7.8615 -8.94993
487 1 15.7251 18.8698 6.28883 -8.94838
488 1 17.2969 20.4417 7.86196 -8.9496
489 1 18.8693 18.8693 6.2895 -8.94957
490 1 20.4415 20.4416 7.86208 -8.94959
491 1 22.0119 12.5796 9.43432 -8.95161
492 1 3.13555 12.5817 9.43142 -8.95804
493 1 6.24992 12.6123 9.39879 -8.85377
494 1 9.44854 12.6012 9.42766 -8.90572
495 1 12.5824 12.5766 9.43391 -8.95257
496 1 15.7256 12.5787 9.43397 -8.94962
497 1 18.8691 12.5793 9.4343 -8.94988
498 1 22.0134 15.7246 9.4346 -8.94971
499 1 3.14317 15.7254 9.43476 -8.95144
500 1 6.2843 15.7337 9.4291 -8.95371
501 1 9.43482 15.7317 9.4304 -8.95096
502 1 12.591 15.7355 9.42347 -8.93006
503 1 15.7276 15.7257 9.43293 -8.95079
512 1 1.56989 11.007 11.0074 -8.95131
513 1 4.70857 11.007 11.0001 -8.97301
514 1 7.78257 11.007 10.7765 -8.11724
515 1 10.9861 11.007 11.0165 -8.9011
516 1 14.1503 11.007 11.0072 -8.94014
517 1 17.2972 11.007 11.0066 -8.94799
518 1 20.441 11.007 11.007 -8.94965
519 1 1.57109 14.1524 11.0076 -8.94962
520 1 4.71423 14.1524 11.0097 -8.95257
521 1 7.84809 14.1587 10.9851 -8.90572
522 1 11.0467 14.1875 10.974 -8.85377
523 1 14.1611 14.1549 11.0047 -8.95804
524 1 17.2986 14.152 11.0067 -8.95161
525 1 20.4414 14.152 11.007 -8.94988
527 1 4.71692 17.2973 11.0077 -8.94908
528 1 7.86242 17.2982 11.007 -8.95147
529 1 11.0093 17.304 11.0058 -8.95896
535 1 7.86193 20.442 11.007 -8.9495
534 1 4.71701 20.4418 11.007 -8.94942
351 1 22.0136 12.5794 0.000199934 -8.94958
385 1 9.43456 18.8693 0.000214894 -8.94958
383 1 6.28965 18.8693 0.000198437 -8.94955
363 1 18.869 12.5794 9.1973e-05 -8.94962
687 3 8.64832 11.007 12.5794 2.30824
686 1 20.4415 20.4416 20.4415 -8.94963
685 1 18.8693 18.8693 18.8692 -8.94957
684 1 17.2969 20.4416 20.4417 -8.94931
683 1 15.7251 18.8698 18.8699 -8.94838
682 1 14.1519 20.4417 20.4417 -8.94969
681 1 12.5797 18.8698 18.8698 -8.94972
680 1 11.007 20.4417 20.4417 -8.94955
679 1 9.43454 18.8699 18.8698 -8.94943
678 1 7.86208 20.4417 20.4417 -8.94958
677 1 6.28949 18.8699 18.8697 -8.9492
676 1 4.71718 20.4417 20.4417 -8.94954
675 1 3.14411 18.8702 18.8697 -8.94946
674 1 1.5722 20.4417 20.4417 -8.94952
526 1 1.57187 17.2973 11.007 -8.94908
673 1 22.0137 18.8693 18.8692 -8.94981
672 1 20.4412 17.2968 20.4417 -8.94957
671 1 18.869 15.7243 18.8693 -8.94977
670 1 17.2968 17.2967 20.4417 -8.94981
531 1 17.2977 17.2973 11.0067 -8.94933
532 1 20.4415 17.2969 11.0069 -8.94958
533 1 1.57222 20.4417 11.0069 -8.94959
669 1 15.7249 15.7243 18.8697 -8.95026
668 1 14.1525 17.2973 20.4426 -8.94946
667 1 12.5816 15.7262 18.8727 -8.94997
666 1 11.0071 17.2972 20.4423 -8.9492
665 1 9.43495 15.726 18.8715 -8.94788
664 1 7.8621 17.2973 20.4423 -8.94943
540 1 1.56989 11.007 14.1513 -8.95131
541 1 4.70857 11.007 14.1586 -8.97301
542 1 7.78257 11.007 14.3823 -8.11724
543 1 10.9861 11.007 14.1422 -8.9011
544 1 14.1503 11.007 14.1516 -8.94014
545 1 17.2972 11.007 14.1521 -8.94799
546 1 20.441 11.007 14.1517 -8.94965
547 1 22.0134 12.5797 12.5794 -8.94799
548 1 1.57109 14.1524 14.1511 -8.94962
549 1 3.14635 12.5792 12.5794 -8.94014
550 1 4.71423 14.1524 14.149 -8.95257
551 1 6.31053 12.5698 12.5794 -8.9011
552 1 7.84809 14.1587 14.1736 -8.90572
553 1 9.51407 12.8099 12.5794 -8.11724
554 1 11.0467 14.1875 14.1847 -8.85377
555 1 12.5881 12.5862 12.5794 -8.97301
556 1 14.1611 14.1549 14.1541 -8.95804
557 1 15.7267 12.5789 12.5794 -8.95131
558 1 17.2986 14.152 14.152 -8.95161
559 1 18.8696 12.5793 12.5794 -8.94965
560 1 20.4414 14.152 14.1518 -8.94988
561 1 -0.000543467 15.7248 12.5794 -8.94952
562 1 1.57187 17.2973 14.1518 -8.94908
563 1 3.14346 15.7258 12.5794 -8.94666
564 1 4.71692 17.2973 14.151 -8.94908
565 1 6.29162 15.7222 12.5794 -8.94563
566 1 7.86242 17.2982 14.1517 -8.95147
567 1 9.43919 15.7214 12.5794 -9.00313
568 1 11.0093 17.304 14.153 -8.95896
569 1 12.5885 15.733 12.5794 -8.94247
570 1 14.1545 17.2994 14.1528 -8.94784
571 1 15.7276 15.7259 12.5794 -8.94905
572 1 17.2977 17.2973 14.152 -8.94933
573 1 18.8697 15.7246 12.5794 -8.94988
574 1 20.4415 17.2969 14.1518 -8.94958
575 1 22.0137 18.8693 12.5794 -8.94962
576 1 1.57222 20.4417 14.1518 -8.94959
577 1 3.14439 18.8697 12.5794 -8.94966
578 1 4.71701 20.4418 14.1517 -8.94942
579 1 6.28942 18.8693 12.5794 -8.94835
580 1 7.86193 20.442 14.1517 -8.9495
581 1 9.43441 18.8701 12.5794 -8.94675
582 1 11.007 20.4429 14.1519 -8.95132
583 1 12.581 18.8721 12.5794 -8.94946
584 1 14.1525 20.4423 14.152 -8.9494
585 1 15.7251 18.8699 12.5794 -8.94953
586 1 17.2969 20.4417 14.1518 -8.94958
587 1 18.8693 18.8693 12.5794 -8.94957
588 1 20.4415 20.4416 14.1518 -8.94962
589 1 1.56903 11.007 17.2983 -8.94905
590 1 4.70811 11.007 17.3054 -8.94247
591 1 7.85745 11.007 17.2938 -9.00313
592 1 11.005 11.007 17.2946 -8.94563
593 1 14.1532 11.007 17.2982 -8.94666
594 1 17.2972 11.007 17.2972 -8.94952
595 1 20.4408 11.007 17.297 -8.94988
596 1 22.0119 12.5796 15.7244 -8.95161
597 1 1.56907 14.1534 17.2982 -8.95079
598 1 3.13555 12.5817 15.7273 -8.95804
599 1 4.70567 14.1629 17.3079 -8.93006
600 1 6.24992 12.6123 15.76 -8.85377
601 1 7.86182 14.1559 17.3041 -8.95096
602 1 9.44854 12.6012 15.7311 -8.90572
603 1 11.0123 14.1572 17.3061 -8.95371
604 1 12.5824 12.5766 15.7248 -8.95257
605 1 14.1535 14.1516 17.2979 -8.95144
606 1 15.7256 12.5787 15.7248 -8.94962
607 1 17.2971 14.1517 17.297 -8.94971
608 1 18.8691 12.5793 15.7244 -8.94988
609 1 20.4409 14.152 17.2969 -8.9501
610 1 22.0134 15.7246 15.7241 -8.94971
611 1 1.57178 17.2973 17.2968 -8.95026
612 1 3.14317 15.7254 15.724 -8.95144
613 1 4.71508 17.3003 17.2986 -8.94997
614 1 6.2843 15.7337 15.7296 -8.95371
615 1 7.86169 17.2991 17.2984 -8.94788
616 1 9.43482 15.7317 15.7283 -8.95096
617 1 11.0076 17.2992 17.2985 -8.94927
618 1 12.591 15.7355 15.7353 -8.93006
619 1 14.1551 17.2998 17.2999 -8.94472
620 1 15.7276 15.7257 15.7258 -8.95079
621 1 17.2976 17.2972 17.2973 -8.94966
622 1 18.8697 15.7245 15.7244 -8.9501
623 1 20.4415 17.2969 17.2967 -8.94977
624 1 -0.000133643 18.8693 15.7242 -8.94948
625 1 1.5723 20.4416 17.2966 -8.94969
626 1 3.14457 18.8695 15.724 -8.94963
627 1 4.71694 20.4421 17.2969 -8.95043
628 1 6.28933 18.8709 15.7244 -8.95222
629 1 7.86189 20.4421 17.2971 -8.94957
630 1 9.4342 18.8713 15.725 -8.95031
631 1 11.007 20.4421 17.2971 -8.9496
632 1 12.5806 18.872 15.7255 -8.9514
633 1 14.1524 20.4422 17.2972 -8.94993
634 1 15.7251 18.8699 15.7246 -8.94935
635 1 17.2969 20.4417 17.2968 -8.9496
636 1 18.8693 18.8693 15.7243 -8.94952
637 1 20.4415 20.4416 17.2967 -8.94959
638 1 1.57153 11.007 20.4423 -8.94953
639 1 4.71561 11.007 20.4445 -8.94946
640 1 7.86222 11.007 20.4425 -8.94675
641 1 11.0072 11.007 20.4418 -8.94835
642 1 14.1522 11.007 20.4421 -8.94966
643 1 17.2968 11.007 20.4417 -8.94962
644 1 20.4412 11.007 20.4417 -8.94957
645 1 -0.0010154 12.5796 18.8697 -8.94933
646 1 1.57157 14.1522 20.4423 -8.94935
647 1 3.14211 12.5804 18.8718 -8.94784
648 1 4.71601 14.1531 20.4444 -8.9514
649 1 6.28735 12.5806 18.8765 -8.95896
650 1 7.86244 14.1526 20.4437 -8.95031
651 1 9.43421 12.5793 18.8707 -8.95147
652 1 11.0073 14.152 20.4433 -8.95222
653 1 12.5797 12.5786 18.8697 -8.94908
654 1 14.1521 14.1516 20.4419 -8.94963
655 1 15.7248 12.5794 18.8697 -8.94908
656 1 17.2968 14.1518 20.4417 -8.94948
657 1 18.869 12.5794 18.8694 -8.94958
658 1 20.4412 14.1519 20.4417 -8.94952
659 1 22.0129 15.7248 18.8696 -8.94966
660 1 1.57157 17.2975 20.4422 -8.94838
661 1 3.14156 15.7275 18.8722 -8.94472
662 1 4.71696 17.2974 20.4423 -8.94972
663 1 6.28901 15.7261 18.8716 -8.94927
371 1 9.43475 15.7247 22.0146 -8.94957
353 1 3.14417 12.5796 22.0147 -8.9494
361 1 15.7244 12.5794 22.0141 -8.94959
369 1 6.28967 15.7247 22.0146 -8.9496
365 1 -0.000260398 15.7244 22.0141 -8.9496
381 1 3.14472 18.8693 22.0141 -8.94969
387 1 12.5795 18.8693 22.0141 -8.94954
537 1 14.1525 20.4423 11.0067 -8.9494
530 1 14.1545 17.2994 11.0059 -8.94784
