ITEM: TIMESTEP
94
ITEM: NUMBER OF ATOMS
687
ITEM: BOX BOUNDS pp pp pp
0.0000000000000000e+00 2.2013900999999997e+01
0.0000000000000000e+00 2.2013900999999997e+01
0.0000000000000000e+00 2.2013900999999997e+01
ITEM: ATOMS id type x y z c_pot
1 1 22.0136 1.93785e-15 0.000247066 -8.94938
2 1 1.57207 1.5721 1.57242 -8.94959
196 1 20.4415 7.86179 11.007 -8.9499
4 1 4.71706 1.5721 1.57242 -8.94951
5 1 6.28954 -2.03755e-13 0.000287784 -8.94952
6 1 7.86207 1.57211 1.57242 -8.94954
175 1 18.869 9.43457 9.43421 -8.9499
8 1 11.0071 1.57213 1.57242 -8.94952
9 1 12.5796 -1.71629e-13 0.000320076 -8.94951
10 1 14.1521 1.57217 1.57242 -8.94955
195 1 17.2992 7.86168 11.0067 -8.95181
12 1 17.2969 1.57217 1.57242 -8.94938
13 1 18.8693 6.43321e-15 0.000200844 -8.94926
14 1 20.4413 1.57222 1.57242 -8.94926
15 1 22.0133 3.14423 0.00035067 -8.94916
16 1 1.57157 4.7164 1.57242 -8.94952
194 1 14.1622 7.85799 11.0044 -8.95827
18 1 4.7169 4.71644 1.57242 -8.9496
174 1 15.7256 9.43521 9.43398 -8.94979
20 1 7.86217 4.7165 1.57242 -8.94955
173 1 12.5825 9.43682 9.43402 -8.95295
22 1 11.0073 4.71664 1.57242 -8.94953
193 1 11.0477 7.82478 10.9736 -8.8543
24 1 14.1523 4.71682 1.57242 -8.95007
25 1 15.7248 3.14431 0.000582119 -8.94948
26 1 17.2968 4.71713 1.57242 -8.94971
27 1 18.8691 3.14458 0.00027533 -8.94958
28 1 20.4411 4.71695 1.57242 -8.94953
192 1 7.84741 7.8541 10.9828 -8.90435
30 1 1.57139 7.86155 1.57242 -8.94938
31 1 3.14364 6.28846 0.00124683 -8.95
32 1 4.71664 7.86146 1.57242 -8.95067
172 1 9.44922 9.41033 9.42652 -8.90435
34 1 7.86235 7.86165 1.57242 -8.95028
171 1 6.2489 9.4012 9.39721 -8.85431
36 1 11.0072 7.86208 1.57242 -8.95042
37 1 12.58 6.28926 0.00105134 -8.95071
38 1 14.1521 7.86219 1.57242 -8.94954
39 1 15.7245 6.28965 0.000378401 -8.94974
40 1 17.2967 7.86205 1.57242 -8.94954
41 1 18.8689 6.28951 0.000253434 -8.94951
42 1 20.441 7.86189 1.57242 -8.94952
170 1 3.13447 9.43202 9.43042 -8.95827
169 1 22.0113 9.43423 9.43411 -8.95181
45 1 6.28935 9.43435 0.00169774 -8.95145
46 1 9.43464 9.43465 0.000511371 -8.94943
47 1 12.5797 9.43469 0.00033562 -8.94935
168 1 18.8701 6.28914 9.4341 -8.95024
167 1 15.7288 6.28743 9.43231 -8.9509
50 1 22.0136 1.92845e-15 3.1446 -8.94938
51 1 1.57181 1.57184 4.71673 -8.94948
52 1 3.14457 3.81523e-14 3.14459 -8.94955
53 1 4.7169 1.57189 4.71671 -8.94949
54 1 6.28954 -2.0384e-13 3.14456 -8.94952
55 1 7.86199 1.57192 4.71661 -8.9495
56 1 9.43456 1.44043e-13 3.14453 -8.94954
57 1 11.0071 1.57194 4.71657 -8.94946
58 1 12.5796 -1.71608e-13 3.14452 -8.94951
59 1 14.1523 1.57195 4.71651 -8.94962
60 1 15.7246 3.15771e-14 3.14452 -8.94959
61 1 17.2973 1.57207 4.71665 -8.94916
62 1 18.8693 7.02459e-15 3.14464 -8.94926
63 1 20.4415 1.57215 4.717 -8.94958
64 1 22.0133 3.14423 3.14449 -8.94916
65 1 1.57079 4.71563 4.7159 -8.94821
66 1 3.14432 3.14409 3.14437 -8.94962
67 1 4.71635 4.7157 4.71572 -8.94964
68 1 6.2895 3.14415 3.14437 -8.94946
69 1 7.86201 4.71592 4.71577 -8.94935
70 1 9.43465 3.14419 3.14434 -8.9495
71 1 11.0075 4.71607 4.7157 -8.94914
72 1 12.5797 3.14429 3.14431 -8.94949
73 1 14.1532 4.71603 4.71534 -8.94944
74 1 15.7248 3.14431 3.14426 -8.94948
75 1 17.2971 4.71692 4.7166 -8.94987
76 1 18.8691 3.14458 3.14457 -8.94958
77 1 20.4409 4.71671 4.71675 -8.94956
78 1 -0.000832929 6.28912 3.14438 -8.94947
79 1 1.57058 7.86111 4.71571 -8.94918
80 1 3.14364 6.28846 3.1436 -8.95
81 1 4.71516 7.86026 4.71333 -8.95156
82 1 6.28946 6.28872 3.14369 -8.94973
83 1 7.86221 7.86088 4.71436 -8.95063
84 1 9.4349 6.28885 3.14381 -8.94965
85 1 11.0074 7.86171 4.71497 -8.95255
86 1 12.58 6.28926 3.14379 -8.95071
87 1 14.1523 7.8623 4.71646 -8.94964
88 1 15.7245 6.28965 3.14446 -8.94974
89 1 17.2968 7.86204 4.71674 -8.94942
90 1 18.8689 6.28951 3.14459 -8.94951
91 1 20.4408 7.86177 4.71666 -8.94944
92 1 22.013 9.4343 3.14434 -8.94948
93 1 3.14338 9.43402 3.1435 -8.9494
94 1 6.28935 9.43435 3.14315 -8.95145
95 1 9.43464 9.43465 3.14433 -8.94943
96 1 12.5797 9.43469 3.14451 -8.94935
97 1 15.7245 9.43453 3.14451 -8.94955
98 1 18.8689 9.43446 3.14456 -8.94955
99 1 22.0138 -7.87771e-15 6.28955 -8.94971
100 1 1.5721 1.57204 7.86207 -8.94974
101 1 3.14429 -1.37029e-13 6.28925 -8.95007
102 1 4.71666 1.57137 7.86169 -8.95071
103 1 6.28932 2.79485e-12 6.28906 -8.94953
104 1 7.86174 1.57139 7.86127 -8.94965
105 1 9.43447 -2.45517e-12 6.28892 -8.94955
106 1 11.0072 1.57127 7.86115 -8.94973
107 1 12.5797 2.68658e-12 6.28887 -8.9496
108 1 14.153 1.57117 7.86089 -8.95
109 1 15.7251 -1.51757e-13 6.28882 -8.94952
110 1 17.2975 1.57196 7.86154 -8.94947
111 1 18.8694 4.94139e-14 6.28937 -8.94953
112 1 20.4416 1.57217 7.86193 -8.94951
113 1 22.0134 3.14418 6.28934 -8.94987
114 1 1.57115 4.71601 7.86169 -8.95044
115 1 3.14345 3.14292 6.28846 -8.94944
116 1 4.71407 4.71238 7.85913 -8.94985
117 1 6.28913 3.14328 6.28849 -8.94914
118 1 7.86148 4.71374 7.85935 -8.94772
119 1 9.43463 3.14335 6.28834 -8.94935
120 1 11.0085 4.71333 7.85912 -8.94916
121 1 12.5803 3.14329 6.28813 -8.94964
122 1 14.1564 4.71294 7.85766 -8.94453
123 1 15.7259 3.14348 6.28806 -8.94821
124 1 17.2984 4.71618 7.86092 -8.94969
125 1 18.8696 3.14433 6.28913 -8.94956
126 1 20.4415 4.71671 7.86179 -8.94987
127 1 22.0121 6.2885 6.2886 -8.94969
128 1 1.56781 7.85989 7.85985 -8.9509
129 1 3.14021 6.28524 6.28536 -8.94453
130 1 4.70391 7.84992 7.8492 -8.92997
131 1 6.28812 6.2867 6.28575 -8.94916
132 1 7.86104 7.85664 7.85294 -8.9509
133 1 9.43515 6.28693 6.28616 -8.94772
134 1 11.0134 7.85504 7.85145 -8.95315
135 1 12.5826 6.28671 6.28481 -8.94985
136 1 14.1543 7.86192 7.86038 -8.95168
137 1 15.7255 6.28927 6.28843 -8.95044
138 1 17.2974 7.86212 7.86149 -8.94987
139 1 18.869 6.28937 6.28913 -8.94987
140 1 20.4405 7.86168 7.86156 -8.95024
141 1 -0.00198884 9.43406 6.28843 -8.94928
142 1 3.1405 9.43299 6.28559 -8.9476
143 1 6.28625 9.43305 6.28133 -8.95927
144 1 9.43384 9.43432 6.28814 -8.95185
145 1 12.5798 9.43522 6.28898 -8.94889
146 1 15.7249 9.43456 6.28878 -8.94898
147 1 18.8688 9.43441 6.28903 -8.94956
148 1 -0.000101982 2.34718e-14 9.43447 -8.94954
149 1 3.14452 -7.66922e-14 9.43461 -8.94954
150 1 6.28943 -6.92508e-12 9.4345 -8.95042
151 1 9.43428 2.62328e-11 9.43407 -8.95028
152 1 12.58 -1.34835e-11 9.43389 -8.95067
153 1 15.7252 1.79836e-12 9.43397 -8.94938
154 1 18.8695 -2.75304e-14 9.43431 -8.94952
155 1 -0.000198313 3.14432 9.43446 -8.94942
156 1 3.14433 3.14404 9.43473 -8.94964
157 1 6.28921 3.14255 9.43413 -8.95255
158 1 9.43443 3.14194 9.4333 -8.95063
159 1 12.5815 3.14091 9.43268 -8.95156
160 1 15.7261 3.14329 9.43353 -8.94918
161 1 18.8698 3.14424 9.43419 -8.94944
162 1 22.0131 6.28907 9.43455 -8.94987
163 1 3.14238 6.28796 9.43434 -8.95168
164 1 6.2832 6.27903 9.42746 -8.95315
165 1 9.43559 6.28052 9.42906 -8.9509
166 1 12.5927 6.27677 9.42234 -8.92997
177 1 4.71692 1.57209 11.0071 -8.94935
178 1 7.86199 1.57191 11.0071 -8.94943
179 1 11.0073 1.57072 11.0068 -8.95145
191 1 4.71412 7.8616 11.0092 -8.95295
181 1 17.2976 1.57192 11.0067 -8.94948
182 1 20.4417 1.57214 11.0069 -8.94955
184 1 4.71688 4.71656 11.0076 -8.94889
185 1 7.86279 4.71572 11.0067 -8.95185
186 1 11.0104 4.70891 11.0055 -8.95927
190 1 1.57102 7.86156 11.0076 -8.94979
19 1 6.2895 3.14415 0.000477033 -8.94946
49 1 18.8689 9.43446 0.000279304 -8.94955
21 1 9.43465 3.14419 0.000500631 -8.9495
43 1 22.013 9.4343 0.000505325 -8.94948
176 1 1.5721 1.57209 11.007 -8.94955
343 1 18.8688 9.43441 18.8697 -8.94956
342 1 15.7249 9.43456 18.87 -8.94898
341 1 12.5798 9.43522 18.8698 -8.94889
340 1 9.43384 9.43432 18.8706 -8.95185
339 1 6.28625 9.43305 18.8774 -8.95927
338 1 3.1405 9.43299 18.8731 -8.9476
183 1 1.5717 4.71636 11.007 -8.94898
337 1 -0.00198884 9.43406 18.8703 -8.94928
336 1 20.4408 7.86177 20.4421 -8.94944
335 1 18.869 6.28937 18.8696 -8.94987
334 1 17.2968 7.86204 20.442 -8.94942
188 1 17.2986 4.71601 11.0065 -8.94928
189 1 20.4417 4.71661 11.0068 -8.94956
333 1 15.7255 6.28927 18.8703 -8.95044
332 1 14.1523 7.8623 20.4423 -8.94964
331 1 12.5826 6.28671 18.8739 -8.94985
330 1 11.0074 7.86171 20.4438 -8.95255
329 1 9.43515 6.28693 18.8726 -8.94772
328 1 7.86221 7.86088 20.4444 -8.95063
327 1 6.28812 6.2867 18.873 -8.94916
197 1 -0.000112596 -4.30953e-14 12.5794 -8.94957
198 1 1.5721 1.57209 14.1518 -8.94955
199 1 3.14446 -1.06297e-12 12.5794 -8.94965
200 1 4.71692 1.57209 14.1516 -8.94935
201 1 6.28935 1.71364e-11 12.5794 -8.94913
202 1 7.86199 1.57191 14.1517 -8.94943
203 1 9.43434 -2.58553e-10 12.5794 -8.94848
204 1 11.0073 1.57072 14.152 -8.95145
205 1 12.5803 8.22651e-12 12.5794 -8.95036
206 1 14.1533 1.57107 14.1523 -8.9494
207 1 15.7253 -1.95076e-12 12.5794 -8.94946
208 1 17.2976 1.57192 14.152 -8.94948
209 1 18.8695 2.07436e-13 12.5794 -8.94954
210 1 20.4417 1.57214 14.1519 -8.94955
211 1 22.0137 3.14429 12.5794 -8.94956
212 1 1.5717 4.71636 14.1518 -8.94898
213 1 3.14431 3.1441 12.5794 -8.94964
214 1 4.71688 4.71656 14.1511 -8.94889
215 1 6.28957 3.14481 12.5794 -8.94821
216 1 7.86279 4.71572 14.152 -8.95185
217 1 9.43482 3.14403 12.5794 -8.94633
218 1 11.0104 4.70891 14.1533 -8.95927
219 1 12.5821 3.14074 12.5794 -8.94958
220 1 14.1561 4.71317 14.1533 -8.9476
221 1 15.7262 3.14323 12.5794 -8.94945
222 1 17.2986 4.71601 14.1523 -8.94928
223 1 18.8698 3.1442 12.5794 -8.9495
224 1 20.4417 4.71661 14.1519 -8.94956
225 1 -0.00053529 6.28885 12.5794 -8.94955
226 1 1.57102 7.86156 14.1511 -8.94979
227 1 3.14343 6.2881 12.5794 -8.94648
228 1 4.71412 7.8616 14.1495 -8.95295
229 1 6.29189 6.2922 12.5794 -8.94509
230 1 7.84741 7.8541 14.176 -8.90435
231 1 9.43984 6.29324 12.5794 -9.00329
232 1 11.0477 7.82478 14.1851 -8.8543
233 1 12.5905 6.27918 12.5794 -8.94205
234 1 14.1622 7.85799 14.1543 -8.95827
235 1 15.7291 6.28702 12.5794 -8.94906
236 1 17.2992 7.86168 14.1521 -8.95181
237 1 18.8703 6.28895 12.5794 -8.94999
238 1 20.4415 7.86179 14.1517 -8.9499
239 1 22.0136 9.43427 12.5794 -8.94762
240 1 3.14755 9.43516 12.5794 -8.93978
241 1 6.31271 9.44443 12.5794 -8.90227
242 1 9.51178 9.20261 12.5794 -8.12144
243 1 12.5869 9.4267 12.5794 -8.97289
244 1 15.7265 9.43482 12.5794 -8.95107
245 1 18.8696 9.43461 12.5794 -8.94937
246 1 -0.000101982 2.34188e-14 15.7243 -8.94954
247 1 1.5721 1.57204 17.2967 -8.94974
248 1 3.14452 -7.68137e-14 15.7241 -8.94954
249 1 4.71666 1.57137 17.2971 -8.95071
250 1 6.28943 -6.92542e-12 15.7242 -8.95042
251 1 7.86174 1.57139 17.2975 -8.94965
252 1 9.43428 2.62325e-11 15.7247 -8.95028
253 1 11.0072 1.57127 17.2976 -8.94973
254 1 12.58 -1.3484e-11 15.7249 -8.95067
255 1 14.153 1.57117 17.2979 -8.95
256 1 15.7252 1.7983e-12 15.7248 -8.94938
257 1 17.2975 1.57196 17.2972 -8.94947
258 1 18.8695 -2.67919e-14 15.7244 -8.94952
259 1 20.4416 1.57217 17.2968 -8.94951
260 1 -0.000198313 3.14432 15.7243 -8.94942
261 1 1.57115 4.71601 17.2971 -8.95044
262 1 3.14433 3.14404 15.724 -8.94964
263 1 4.71407 4.71238 17.2996 -8.94985
264 1 6.28921 3.14255 15.7246 -8.95255
265 1 7.86148 4.71374 17.2994 -8.94772
266 1 9.43443 3.14194 15.7254 -8.95063
267 1 11.0085 4.71333 17.2996 -8.94916
268 1 12.5815 3.14091 15.7261 -8.95156
269 1 14.1564 4.71294 17.3011 -8.94453
270 1 15.7261 3.14329 15.7252 -8.94918
271 1 17.2984 4.71618 17.2978 -8.94969
272 1 18.8698 3.14424 15.7246 -8.94944
273 1 20.4415 4.71671 17.297 -8.94987
274 1 22.0131 6.28907 15.7242 -8.94987
275 1 1.56781 7.85989 17.2989 -8.9509
276 1 3.14238 6.28796 15.7244 -8.95168
277 1 4.70391 7.84992 17.3095 -8.92997
278 1 6.2832 6.27903 15.7313 -8.95315
279 1 7.86104 7.85664 17.3058 -8.9509
280 1 9.43559 6.28052 15.7297 -8.9509
281 1 11.0134 7.85504 17.3073 -8.95315
282 1 12.5927 6.27677 15.7364 -8.92997
283 1 14.1543 7.86192 17.2984 -8.95168
284 1 15.7288 6.28743 15.7264 -8.9509
285 1 17.2974 7.86212 17.2973 -8.94987
286 1 18.8701 6.28914 15.7246 -8.95024
287 1 20.4405 7.86168 17.2972 -8.95024
288 1 22.0113 9.43423 15.7246 -8.95181
289 1 3.13447 9.43202 15.7283 -8.95827
290 1 6.2489 9.4012 15.7615 -8.85431
291 1 9.44922 9.41033 15.7322 -8.90435
292 1 12.5825 9.43682 15.7247 -8.95295
293 1 15.7256 9.43521 15.7248 -8.94979
294 1 18.869 9.43457 15.7245 -8.9499
295 1 22.0138 -7.61019e-15 18.8692 -8.94971
296 1 1.57181 1.57184 20.442 -8.94948
297 1 3.14429 -1.3586e-13 18.8695 -8.95007
298 1 4.7169 1.57189 20.442 -8.94949
299 1 6.28932 2.79502e-12 18.8697 -8.94953
300 1 7.86199 1.57192 20.4421 -8.9495
301 1 9.43447 -2.45474e-12 18.8698 -8.94955
302 1 11.0071 1.57194 20.4422 -8.94946
303 1 12.5797 2.68702e-12 18.8699 -8.9496
304 1 14.1523 1.57195 20.4422 -8.94962
305 1 15.7251 -1.52284e-13 18.8699 -8.94952
306 1 17.2973 1.57207 20.4421 -8.94916
307 1 18.8694 4.92369e-14 18.8694 -8.94953
308 1 20.4415 1.57215 20.4417 -8.94958
309 1 22.0134 3.14418 18.8694 -8.94987
310 1 1.57079 4.71563 20.4428 -8.94821
311 1 3.14345 3.14292 18.8703 -8.94944
312 1 4.71635 4.7157 20.443 -8.94964
313 1 6.28913 3.14328 18.8703 -8.94914
314 1 7.86201 4.71592 20.443 -8.94935
315 1 9.43463 3.14335 18.8704 -8.94935
316 1 11.0075 4.71607 20.443 -8.94914
317 1 12.5803 3.14329 18.8706 -8.94964
318 1 14.1532 4.71603 20.4434 -8.94944
319 1 15.7259 3.14348 18.8707 -8.94821
320 1 17.2971 4.71692 20.4421 -8.94987
321 1 18.8696 3.14433 18.8696 -8.94956
322 1 20.4409 4.71671 20.442 -8.94956
323 1 22.0121 6.2885 18.8701 -8.94969
324 1 1.57058 7.86111 20.443 -8.94918
325 1 3.14021 6.28524 18.8734 -8.94453
326 1 4.71516 7.86026 20.4454 -8.95156
7 1 9.43456 1.44155e-13 22.0142 -8.94954
48 1 15.7245 9.43453 22.0142 -8.94955
44 1 3.14338 9.43402 22.0152 -8.9494
33 1 6.28946 6.28872 22.0151 -8.94973
35 1 9.4349 6.28885 22.0149 -8.94965
3 1 3.14457 3.81555e-14 22.0141 -8.94955
11 1 15.7246 3.13835e-14 22.0142 -8.94959
17 1 3.14432 3.14409 22.0144 -8.94962
23 1 12.5797 3.14429 22.0144 -8.94949
29 1 -0.000832929 6.28912 22.0144 -8.94947
180 1 14.1533 1.57107 11.0064 -8.9494
187 1 14.1561 4.71317 11.0054 -8.9476
344 1 1.57132 11.007 1.57242 -8.94946
345 1 4.7163 11.007 1.57242 -8.95036
346 1 7.8623 11.007 1.57242 -8.94848
347 1 11.0073 11.007 1.57242 -8.94913
348 1 14.1522 11.007 1.57242 -8.94965
349 1 17.2967 11.007 1.57242 -8.94957
350 1 20.441 11.007 1.57242 -8.94954
511 1 18.8698 18.8697 9.43419 -8.94944
352 1 1.57139 14.1524 1.57242 -8.94938
510 1 15.7261 18.8706 9.43353 -8.94918
354 1 4.71664 14.1524 1.57242 -8.95067
355 1 6.28935 12.5795 0.00169774 -8.95145
356 1 7.86235 14.1523 1.57242 -8.95028
357 1 9.43464 12.5792 0.000511371 -8.94943
358 1 11.0072 14.1518 1.57242 -8.95042
359 1 12.5797 12.5792 0.00033562 -8.94935
360 1 14.1521 14.1517 1.57242 -8.94954
509 1 12.5815 18.873 9.43268 -8.95156
362 1 17.2967 14.1519 1.57242 -8.94954
508 1 9.43443 18.872 9.4333 -8.95063
364 1 20.441 14.152 1.57242 -8.94952
539 1 20.4417 20.4418 11.0069 -8.94955
366 1 1.57157 17.2975 1.57242 -8.94952
367 1 3.14364 15.7254 0.00124683 -8.95
368 1 4.7169 17.2975 1.57242 -8.9496
507 1 6.28921 18.8713 9.43413 -8.95255
370 1 7.86217 17.2974 1.57242 -8.94955
506 1 3.14433 18.8699 9.43473 -8.94964
372 1 11.0073 17.2973 1.57242 -8.94953
373 1 12.58 15.7246 0.00105134 -8.95071
374 1 14.1523 17.2971 1.57242 -8.95007
375 1 15.7245 15.7243 0.000378401 -8.94974
376 1 17.2968 17.2968 1.57242 -8.94971
377 1 18.8689 15.7244 0.000253434 -8.94951
378 1 20.4411 17.297 1.57242 -8.94953
379 1 22.0133 18.8697 0.00035067 -8.94916
380 1 1.57207 20.4418 1.57242 -8.94959
538 1 17.2976 20.442 11.0067 -8.94948
382 1 4.71706 20.4418 1.57242 -8.94951
505 1 -0.000198313 18.8696 9.43446 -8.94942
384 1 7.86207 20.4418 1.57242 -8.94954
504 1 18.8701 15.7248 9.4341 -8.95024
386 1 11.0071 20.4418 1.57242 -8.94952
536 1 11.0073 20.4432 11.0068 -8.95145
388 1 14.1521 20.4417 1.57242 -8.94955
389 1 15.7248 18.8696 0.000582119 -8.94948
390 1 17.2969 20.4417 1.57242 -8.94938
391 1 18.8691 18.8693 0.00027533 -8.94958
392 1 20.4413 20.4417 1.57242 -8.94926
393 1 1.57047 11.007 4.71566 -8.94945
394 1 4.7145 11.007 4.71316 -8.94958
395 1 7.86181 11.007 4.71645 -8.94633
396 1 11.0071 11.007 4.71723 -8.94821
397 1 14.1523 11.007 4.71652 -8.94964
398 1 17.2968 11.007 4.71671 -8.94956
399 1 20.4407 11.007 4.71662 -8.9495
400 1 22.013 12.5796 3.14434 -8.94948
401 1 1.57058 14.1528 4.71571 -8.94918
402 1 3.14338 12.5799 3.1435 -8.9494
403 1 4.71516 14.1536 4.71333 -8.95156
404 1 6.28935 12.5795 3.14315 -8.95145
405 1 7.86221 14.153 4.71436 -8.95063
406 1 9.43464 12.5792 3.14433 -8.94943
407 1 11.0074 14.1522 4.71497 -8.95255
408 1 12.5797 12.5792 3.14451 -8.94935
409 1 14.1523 14.1516 4.71646 -8.94964
410 1 15.7245 12.5794 3.14451 -8.94955
411 1 17.2968 14.1519 4.71674 -8.94942
412 1 18.8689 12.5794 3.14456 -8.94955
413 1 20.4408 14.1521 4.71666 -8.94944
414 1 -0.000832929 15.7248 3.14438 -8.94947
415 1 1.57079 17.2983 4.7159 -8.94821
416 1 3.14364 15.7254 3.1436 -8.95
417 1 4.71635 17.2982 4.71572 -8.94964
418 1 6.28946 15.7252 3.14369 -8.94973
419 1 7.86201 17.298 4.71577 -8.94935
420 1 9.4349 15.7251 3.14381 -8.94965
421 1 11.0075 17.2978 4.7157 -8.94914
422 1 12.58 15.7246 3.14379 -8.95071
423 1 14.1532 17.2979 4.71534 -8.94944
424 1 15.7245 15.7243 3.14446 -8.94974
425 1 17.2971 17.297 4.7166 -8.94987
426 1 18.8689 15.7244 3.14459 -8.94951
427 1 20.4409 17.2972 4.71675 -8.94956
428 1 22.0133 18.8697 3.14449 -8.94916
429 1 1.57181 20.4421 4.71673 -8.94948
430 1 3.14432 18.8698 3.14437 -8.94962
431 1 4.7169 20.442 4.71671 -8.94949
432 1 6.2895 18.8698 3.14437 -8.94946
433 1 7.86199 20.442 4.71661 -8.9495
434 1 9.43465 18.8697 3.14434 -8.9495
435 1 11.0071 20.442 4.71657 -8.94946
436 1 12.5797 18.8696 3.14431 -8.94949
437 1 14.1523 20.442 4.71651 -8.94962
438 1 15.7248 18.8696 3.14426 -8.94948
439 1 17.2973 20.4418 4.71665 -8.94916
440 1 18.8691 18.8693 3.14457 -8.94958
441 1 20.4415 20.4418 4.717 -8.94958
442 1 1.56756 11.007 7.85945 -8.94906
443 1 4.70618 11.007 7.8516 -8.94205
444 1 7.85679 11.007 7.86566 -9.00329
445 1 11.0047 11.007 7.86462 -8.94509
446 1 14.1532 11.007 7.86052 -8.94648
447 1 17.2972 11.007 7.86127 -8.94955
448 1 20.4402 11.007 7.86137 -8.94999
449 1 -0.00198884 12.5798 6.28843 -8.94928
450 1 1.56781 14.154 7.85985 -8.9509
451 1 3.1405 12.5809 6.28559 -8.9476
452 1 4.70391 14.164 7.8492 -8.92997
453 1 6.28625 12.5809 6.28133 -8.95927
454 1 7.86104 14.1573 7.85294 -8.9509
455 1 9.43384 12.5796 6.28814 -8.95185
456 1 11.0134 14.1589 7.85145 -8.95315
457 1 12.5798 12.5787 6.28898 -8.94889
458 1 14.1543 14.152 7.86038 -8.95168
459 1 15.7249 12.5793 6.28878 -8.94898
460 1 17.2974 14.1518 7.86149 -8.94987
461 1 18.8688 12.5795 6.28903 -8.94956
462 1 20.4405 14.1522 7.86156 -8.95024
463 1 22.0121 15.7254 6.2886 -8.94969
464 1 1.57115 17.2979 7.86169 -8.95044
465 1 3.14021 15.7287 6.28536 -8.94453
466 1 4.71407 17.3015 7.85913 -8.94985
467 1 6.28812 15.7272 6.28575 -8.94916
468 1 7.86148 17.3002 7.85935 -8.94772
469 1 9.43515 15.727 6.28616 -8.94772
470 1 11.0085 17.3006 7.85912 -8.94916
471 1 12.5826 15.7272 6.28481 -8.94985
472 1 14.1564 17.301 7.85766 -8.94453
473 1 15.7255 15.7246 6.28843 -8.95044
474 1 17.2984 17.2977 7.86092 -8.94969
475 1 18.869 15.7245 6.28913 -8.94987
476 1 20.4415 17.2972 7.86179 -8.94987
477 1 22.0134 18.8697 6.28934 -8.94987
478 1 1.5721 20.4419 7.86207 -8.94974
479 1 3.14345 18.871 6.28846 -8.94944
480 1 4.71666 20.4425 7.86169 -8.95071
481 1 6.28913 18.8706 6.28849 -8.94914
482 1 7.86174 20.4425 7.86127 -8.94965
483 1 9.43463 18.8706 6.28834 -8.94935
484 1 11.0072 20.4426 7.86115 -8.94973
485 1 12.5803 18.8706 6.28813 -8.94964
486 1 14.153 20.4427 7.86089 -8.95
487 1 15.7259 18.8704 6.28806 -8.94821
488 1 17.2975 20.4419 7.86154 -8.94947
489 1 18.8696 18.8696 6.28913 -8.94956
490 1 20.4416 20.4417 7.86193 -8.94951
491 1 22.0113 12.5797 9.43411 -8.95181
492 1 3.13447 12.5819 9.43042 -8.95827
493 1 6.2489 12.6127 9.39721 -8.85431
494 1 9.44922 12.6036 9.42652 -8.90435
495 1 12.5825 12.5771 9.43402 -8.95295
496 1 15.7256 12.5787 9.43398 -8.94979
497 1 18.869 12.5793 9.43421 -8.9499
498 1 22.0131 15.7248 9.43455 -8.94987
499 1 3.14238 15.7259 9.43434 -8.95168
500 1 6.2832 15.7349 9.42746 -8.95315
501 1 9.43559 15.7334 9.42906 -8.9509
502 1 12.5927 15.7371 9.42234 -8.92997
503 1 15.7288 15.7265 9.43231 -8.9509
512 1 1.57015 11.007 11.0072 -8.95107
513 1 4.70976 11.007 10.9991 -8.97289
514 1 7.78486 11.0069 10.775 -8.12144
515 1 10.9839 11.007 11.0169 -8.90226
516 1 14.1491 11.007 11.0076 -8.93978
517 1 17.2969 11.007 11.0067 -8.94762
518 1 20.4409 11.007 11.007 -8.94937
519 1 1.57102 14.1523 11.0076 -8.94979
520 1 4.71412 14.1523 11.0092 -8.95295
521 1 7.84741 14.1598 10.9828 -8.90435
522 1 11.0477 14.1891 10.9736 -8.8543
523 1 14.1622 14.1559 11.0044 -8.95827
524 1 17.2992 14.1522 11.0067 -8.95181
525 1 20.4415 14.1521 11.007 -8.9499
527 1 4.71688 17.2973 11.0076 -8.94889
528 1 7.86279 17.2982 11.0067 -8.95185
529 1 11.0104 17.305 11.0055 -8.95927
535 1 7.86199 20.442 11.0071 -8.94943
534 1 4.71692 20.4418 11.0071 -8.94935
351 1 22.013 12.5796 0.000505325 -8.94948
385 1 9.43465 18.8697 0.000500631 -8.9495
383 1 6.2895 18.8698 0.000477033 -8.94946
363 1 18.8689 12.5794 0.000279304 -8.94955
687 3 8.64833 11.007 12.5794 2.30861
686 1 20.4415 20.4418 20.4417 -8.94958
685 1 18.8696 18.8696 18.8696 -8.94956
684 1 17.2973 20.4418 20.4421 -8.94916
683 1 15.7259 18.8704 18.8707 -8.94821
682 1 14.1523 20.442 20.4422 -8.94962
681 1 12.5803 18.8706 18.8706 -8.94964
680 1 11.0071 20.442 20.4422 -8.94946
679 1 9.43463 18.8706 18.8704 -8.94935
678 1 7.86199 20.442 20.4421 -8.9495
677 1 6.28913 18.8706 18.8703 -8.94914
676 1 4.7169 20.442 20.442 -8.94949
675 1 3.14345 18.871 18.8703 -8.94944
674 1 1.57181 20.4421 20.442 -8.94948
526 1 1.5717 17.2975 11.007 -8.94898
673 1 22.0134 18.8697 18.8694 -8.94987
672 1 20.4409 17.2972 20.442 -8.94956
671 1 18.869 15.7245 18.8696 -8.94987
670 1 17.2971 17.297 20.4421 -8.94987
531 1 17.2986 17.2979 11.0065 -8.94928
532 1 20.4417 17.2973 11.0068 -8.94956
533 1 1.5721 20.4418 11.007 -8.94955
669 1 15.7255 15.7246 18.8703 -8.95044
668 1 14.1532 17.2979 20.4434 -8.94944
667 1 12.5826 15.7272 18.8739 -8.94985
666 1 11.0075 17.2978 20.443 -8.94914
665 1 9.43515 15.727 18.8726 -8.94772
664 1 7.86201 17.298 20.443 -8.94935
540 1 1.57015 11.007 14.1515 -8.95107
541 1 4.70976 11.007 14.1596 -8.97289
542 1 7.78486 11.0069 14.3837 -8.12144
543 1 10.9839 11.007 14.1419 -8.90226
544 1 14.1491 11.007 14.1512 -8.93978
545 1 17.2969 11.007 14.1521 -8.94762
546 1 20.4409 11.007 14.1517 -8.94937
547 1 22.0136 12.5796 12.5794 -8.94762
548 1 1.57102 14.1523 14.1511 -8.94979
549 1 3.14755 12.5787 12.5794 -8.93978
550 1 4.71412 14.1523 14.1495 -8.95295
551 1 6.3127 12.5695 12.5794 -8.90227
552 1 7.84741 14.1598 14.176 -8.90435
553 1 9.51178 12.8113 12.5794 -8.12143
554 1 11.0477 14.1891 14.1851 -8.8543
555 1 12.5869 12.5872 12.5794 -8.97289
556 1 14.1622 14.1559 14.1543 -8.95827
557 1 15.7265 12.5791 12.5794 -8.95107
558 1 17.2992 14.1522 14.1521 -8.95181
559 1 18.8696 12.5793 12.5794 -8.94937
560 1 20.4415 14.1521 14.1517 -8.9499
561 1 -0.00053529 15.7251 12.5794 -8.94955
562 1 1.5717 17.2975 14.1518 -8.94898
563 1 3.14343 15.7258 12.5794 -8.94648
564 1 4.71688 17.2973 14.1511 -8.94889
565 1 6.29189 15.7217 12.5794 -8.94509
566 1 7.86279 17.2982 14.152 -8.95185
567 1 9.43984 15.7207 12.5794 -9.00329
568 1 11.0104 17.305 14.1533 -8.95927
569 1 12.5905 15.7347 12.5794 -8.94205
570 1 14.1561 17.3007 14.1533 -8.9476
571 1 15.7291 15.7269 12.5794 -8.94906
572 1 17.2986 17.2979 14.1523 -8.94928
573 1 18.8703 15.725 12.5794 -8.94999
574 1 20.4417 17.2973 14.1519 -8.94956
575 1 22.0137 18.8696 12.5794 -8.94956
576 1 1.5721 20.4418 14.1518 -8.94955
577 1 3.14431 18.8698 12.5794 -8.94964
578 1 4.71692 20.4418 14.1516 -8.94935
579 1 6.28957 18.8691 12.5794 -8.94821
580 1 7.86199 20.442 14.1517 -8.94943
581 1 9.43482 18.8699 12.5794 -8.94633
582 1 11.0073 20.4432 14.152 -8.95145
583 1 12.5821 18.8732 12.5794 -8.94958
584 1 14.1533 20.4428 14.1523 -8.9494
585 1 15.7262 18.8707 12.5794 -8.94945
586 1 17.2976 20.442 14.152 -8.94948
587 1 18.8698 18.8697 12.5794 -8.9495
588 1 20.4417 20.4418 14.1519 -8.94955
589 1 1.56756 11.007 17.2993 -8.94906
590 1 4.70618 11.007 17.3071 -8.94205
591 1 7.85679 11.007 17.2931 -9.00329
592 1 11.0047 11.007 17.2941 -8.94509
593 1 14.1532 11.007 17.2982 -8.94648
594 1 17.2972 11.007 17.2975 -8.94955
595 1 20.4402 11.007 17.2974 -8.94999
596 1 22.0113 12.5797 15.7246 -8.95181
597 1 1.56781 14.154 17.2989 -8.9509
598 1 3.13447 12.5819 15.7283 -8.95827
599 1 4.70391 14.164 17.3095 -8.92997
600 1 6.2489 12.6127 15.7615 -8.85431
601 1 7.86104 14.1573 17.3058 -8.9509
602 1 9.44922 12.6036 15.7322 -8.90435
603 1 11.0134 14.1589 17.3073 -8.95315
604 1 12.5825 12.5771 15.7247 -8.95295
605 1 14.1543 14.152 17.2984 -8.95168
606 1 15.7256 12.5787 15.7248 -8.94979
607 1 17.2974 14.1518 17.2973 -8.94987
608 1 18.869 12.5793 15.7245 -8.9499
609 1 20.4405 14.1522 17.2972 -8.95024
610 1 22.0131 15.7248 15.7242 -8.94987
611 1 1.57115 17.2979 17.2971 -8.95044
612 1 3.14238 15.7259 15.7244 -8.95168
613 1 4.71407 17.3015 17.2996 -8.94985
614 1 6.2832 15.7349 15.7313 -8.95315
615 1 7.86148 17.3002 17.2994 -8.94772
616 1 9.43559 15.7334 15.7297 -8.9509
617 1 11.0085 17.3006 17.2996 -8.94916
618 1 12.5927 15.7371 15.7364 -8.92997
619 1 14.1564 17.301 17.3011 -8.94453
620 1 15.7288 15.7265 15.7264 -8.9509
621 1 17.2984 17.2977 17.2978 -8.94969
622 1 18.8701 15.7248 15.7246 -8.95024
623 1 20.4415 17.2972 17.297 -8.94987
624 1 -0.000198313 18.8696 15.7243 -8.94942
625 1 1.5721 20.4419 17.2967 -8.94974
626 1 3.14433 18.8699 15.724 -8.94964
627 1 4.71666 20.4425 17.2971 -8.95071
628 1 6.28921 18.8713 15.7246 -8.95255
629 1 7.86174 20.4425 17.2975 -8.94965
630 1 9.43443 18.872 15.7254 -8.95063
631 1 11.0072 20.4426 17.2976 -8.94973
632 1 12.5815 18.873 15.7261 -8.95156
633 1 14.153 20.4427 17.2979 -8.95
634 1 15.7261 18.8706 15.7252 -8.94918
635 1 17.2975 20.4419 17.2972 -8.94947
636 1 18.8698 18.8697 15.7246 -8.94944
637 1 20.4416 20.4417 17.2968 -8.94951
638 1 1.57047 11.007 20.4431 -8.94945
639 1 4.7145 11.007 20.4456 -8.94958
640 1 7.86181 11.007 20.4423 -8.94633
641 1 11.0071 11.007 20.4415 -8.94821
642 1 14.1523 11.007 20.4422 -8.94964
643 1 17.2968 11.007 20.442 -8.94956
644 1 20.4407 11.007 20.4421 -8.9495
645 1 -0.00198884 12.5798 18.8703 -8.94928
646 1 1.57058 14.1528 20.443 -8.94918
647 1 3.1405 12.5809 18.8731 -8.9476
648 1 4.71516 14.1536 20.4454 -8.95156
649 1 6.28625 12.5809 18.8774 -8.95927
650 1 7.86221 14.153 20.4444 -8.95063
651 1 9.43384 12.5796 18.8706 -8.95185
652 1 11.0074 14.1522 20.4438 -8.95255
653 1 12.5798 12.5787 18.8698 -8.94889
654 1 14.1523 14.1516 20.4423 -8.94964
655 1 15.7249 12.5793 18.87 -8.94898
656 1 17.2968 14.1519 20.442 -8.94942
657 1 18.8688 12.5795 18.8697 -8.94956
658 1 20.4408 14.1521 20.4421 -8.94944
659 1 22.0121 15.7254 18.8701 -8.94969
660 1 1.57079 17.2983 20.4428 -8.94821
661 1 3.14021 15.7287 18.8734 -8.94453
662 1 4.71635 17.2982 20.443 -8.94964
663 1 6.28812 15.7272 18.873 -8.94916
371 1 9.4349 15.7251 22.0149 -8.94965
353 1 3.14338 12.5799 22.0152 -8.9494
361 1 15.7245 12.5794 22.0142 -8.94955
369 1 6.28946 15.7252 22.0151 -8.94973
365 1 -0.000832929 15.7248 22.0144 -8.94947
381 1 3.14432 18.8698 22.0144 -8.94962
387 1 12.5797 18.8696 22.0144 -8.94949
537 1 14.1533 20.4428 11.0064 -8.9494
530 1 14.1561 17.3007 11.0054 -8.9476
