ITEM: TIMESTEP
114
ITEM: NUMBER OF ATOMS
687
ITEM: BOX BOUNDS pp pp pp
0.0000000000000000e+00 2.2013900999999997e+01
0.0000000000000000e+00 2.2013900999999997e+01
0.0000000000000000e+00 2.2013900999999997e+01
ITEM: ATOMS id type x y z c_pot
1 1 22.0135 -8.23088e-11 0.000292756 -8.94934
2 1 1.57193 1.57201 1.57242 -8.94956
196 1 20.4415 7.86178 11.007 -8.94991
4 1 4.71696 1.57202 1.57242 -8.94949
5 1 6.28948 -1.48245e-10 0.000342411 -8.9495
6 1 7.86206 1.57204 1.57242 -8.94951
175 1 18.869 9.43457 9.4342 -8.94991
8 1 11.0072 1.57208 1.57242 -8.9495
9 1 12.5797 -2.34449e-10 0.00040143 -8.94949
10 1 14.1522 1.57212 1.57242 -8.94953
195 1 17.2993 7.8616 11.0066 -8.95182
12 1 17.297 1.57213 1.57242 -8.94934
13 1 18.8693 -1.81186e-10 0.000257939 -8.94921
14 1 20.4412 1.57216 1.57242 -8.94921
15 1 22.0131 3.14411 0.000407102 -8.94914
16 1 1.57137 4.71623 1.57242 -8.9495
194 1 14.1623 7.85775 11.0044 -8.95827
18 1 4.71675 4.71627 1.57242 -8.9496
174 1 15.7256 9.43515 9.43399 -8.94981
20 1 7.86214 4.71637 1.57242 -8.94955
173 1 12.5825 9.43664 9.43398 -8.95296
22 1 11.0074 4.71655 1.57242 -8.94954
193 1 11.0478 7.8245 10.9736 -8.85444
24 1 14.1524 4.71676 1.57242 -8.95008
25 1 15.7249 3.14423 0.000671094 -8.94946
26 1 17.2968 4.71708 1.57242 -8.94971
27 1 18.8691 3.1445 0.00033731 -8.94956
28 1 20.441 4.71684 1.57242 -8.9495
192 1 7.84741 7.85389 10.9825 -8.90431
30 1 1.57113 7.86141 1.57242 -8.94936
31 1 3.1434 6.28828 0.00135889 -8.95
32 1 4.71645 7.86136 1.57242 -8.95069
172 1 9.44923 9.41006 9.42631 -8.90431
34 1 7.86228 7.86159 1.57242 -8.95031
171 1 6.24885 9.40114 9.39692 -8.85444
36 1 11.0072 7.86206 1.57242 -8.95045
37 1 12.58 6.28921 0.00112689 -8.95073
38 1 14.1521 7.8622 1.57242 -8.94955
39 1 15.7246 6.28962 0.000439894 -8.94974
40 1 17.2967 7.86203 1.57242 -8.94952
41 1 18.8688 6.28944 0.00030748 -8.9495
42 1 20.4408 7.86182 1.57242 -8.9495
170 1 3.13435 9.43199 9.43017 -8.95827
169 1 22.0113 9.43422 9.43402 -8.95182
45 1 6.28918 9.43431 0.00176438 -8.95147
46 1 9.43457 9.43463 0.000509239 -8.94943
47 1 12.5797 9.43469 0.000330238 -8.94935
168 1 18.8702 6.28906 9.43406 -8.95026
167 1 15.7291 6.28725 9.43221 -8.95091
50 1 22.0135 -8.23088e-11 3.14455 -8.94934
51 1 1.57169 1.57175 4.71665 -8.94946
52 1 3.14445 -9.06958e-11 3.14454 -8.94953
53 1 4.71678 1.57179 4.71661 -8.94948
54 1 6.28948 -1.48246e-10 3.1445 -8.9495
55 1 7.86196 1.57185 4.7165 -8.94949
56 1 9.43458 -2.42363e-10 3.14446 -8.94951
57 1 11.0072 1.57187 4.71643 -8.94944
58 1 12.5797 -2.34449e-10 3.14444 -8.94949
59 1 14.1525 1.57187 4.71635 -8.9496
60 1 15.7247 -2.37624e-10 3.14444 -8.94956
61 1 17.2974 1.57201 4.71653 -8.94914
62 1 18.8693 -1.81186e-10 3.14459 -8.94921
63 1 20.4415 1.57208 4.71692 -8.94956
64 1 22.0131 3.14411 3.14444 -8.94914
65 1 1.57057 4.71544 4.71577 -8.94821
66 1 3.14415 3.14393 3.1443 -8.9496
67 1 4.71615 4.71549 4.71553 -8.94963
68 1 6.28943 3.14401 3.14429 -8.94944
69 1 7.86195 4.71575 4.7156 -8.94935
70 1 9.43467 3.14408 3.14427 -8.94949
71 1 11.0076 4.7159 4.71553 -8.94913
72 1 12.5799 3.14419 3.14421 -8.94948
73 1 14.1533 4.71591 4.71517 -8.94943
74 1 15.7249 3.14423 3.14417 -8.94946
75 1 17.2972 4.71684 4.71648 -8.94987
76 1 18.8691 3.1445 3.14451 -8.94956
77 1 20.4409 4.7166 4.71666 -8.94955
78 1 -0.00104918 6.28897 3.14431 -8.94944
79 1 1.57027 7.86095 4.71553 -8.94917
80 1 3.1434 6.28828 3.14348 -8.95
81 1 4.71488 7.8601 4.71311 -8.95156
82 1 6.28934 6.28858 3.14358 -8.94975
83 1 7.86208 7.86076 4.71422 -8.95066
84 1 9.4349 6.28875 3.14373 -8.94968
85 1 11.0074 7.86161 4.7149 -8.95256
86 1 12.58 6.28921 3.14372 -8.95073
87 1 14.1523 7.86226 4.71639 -8.94964
88 1 15.7246 6.28962 3.1444 -8.94974
89 1 17.2968 7.86201 4.71667 -8.94941
90 1 18.8688 6.28944 3.14454 -8.9495
91 1 20.4406 7.86169 4.71657 -8.94943
92 1 22.0127 9.43424 3.14425 -8.94946
93 1 3.1431 9.43394 3.14338 -8.9494
94 1 6.28918 9.43431 3.14308 -8.95147
95 1 9.43457 9.43463 3.14433 -8.94943
96 1 12.5797 9.43469 3.14451 -8.94935
97 1 15.7245 9.43454 3.14449 -8.94954
98 1 18.8688 9.43443 3.14452 -8.94953
99 1 22.0137 6.82685e-10 6.2895 -8.94971
100 1 1.57206 1.57198 7.86204 -8.94974
101 1 3.1442 -4.36944e-10 6.28918 -8.95008
102 1 4.71659 1.57129 7.86163 -8.95073
103 1 6.28926 -7.62463e-10 6.28897 -8.94954
104 1 7.86173 1.57131 7.86117 -8.94968
105 1 9.43449 -1.08595e-09 6.2888 -8.94955
106 1 11.0073 1.57116 7.861 -8.94975
107 1 12.5799 -1.34374e-09 6.2887 -8.9496
108 1 14.1532 1.57106 7.86071 -8.95
109 1 15.7253 -1.92074e-09 6.28865 -8.9495
110 1 17.2977 1.57189 7.86139 -8.94944
111 1 18.8696 -2.21073e-10 6.28926 -8.9495
112 1 20.4417 1.57211 7.86186 -8.9495
113 1 22.0134 3.14406 6.28926 -8.94987
114 1 1.57101 4.71587 7.86158 -8.95045
115 1 3.14329 3.14275 6.28833 -8.94943
116 1 4.71388 4.71219 7.85891 -8.94983
117 1 6.28903 3.14311 6.28832 -8.94913
118 1 7.86145 4.71351 7.8591 -8.9477
119 1 9.43468 3.14318 6.28817 -8.94935
120 1 11.0087 4.71304 7.85888 -8.94914
121 1 12.5805 3.14311 6.28792 -8.94963
122 1 14.1567 4.71271 7.85746 -8.94453
123 1 15.7261 3.14335 6.28786 -8.94821
124 1 17.2986 4.71606 7.86079 -8.9497
125 1 18.8697 3.14424 6.28902 -8.94955
126 1 20.4415 4.71661 7.86172 -8.94989
127 1 22.0119 6.28837 6.28848 -8.9497
128 1 1.56757 7.85979 7.85967 -8.95091
129 1 3.13992 6.28504 6.28513 -8.94453
130 1 4.70364 7.84977 7.84889 -8.92998
131 1 6.2879 6.28646 6.28546 -8.94914
132 1 7.86093 7.85638 7.85262 -8.95089
133 1 9.43519 6.28668 6.28594 -8.9477
134 1 11.0135 7.85473 7.85127 -8.95309
135 1 12.5828 6.28649 6.28461 -8.94983
136 1 14.1544 7.86176 7.86029 -8.95169
137 1 15.7256 6.28916 6.2883 -8.95045
138 1 17.2974 7.86207 7.86144 -8.94989
139 1 18.869 6.2893 6.28903 -8.94989
140 1 20.4404 7.86163 7.86149 -8.95026
141 1 -0.0022601 9.434 6.28827 -8.94928
142 1 3.14013 9.4329 6.28531 -8.94759
143 1 6.28598 9.43296 6.2811 -8.95928
144 1 9.43376 9.4342 6.28808 -8.95185
145 1 12.5798 9.43515 6.28897 -8.94887
146 1 15.7249 9.43454 6.28875 -8.94898
147 1 18.8687 9.43439 6.28896 -8.94956
148 1 -4.44569e-05 1.30435e-10 9.43446 -8.94952
149 1 3.14451 2.7499e-09 9.43462 -8.94955
150 1 6.28943 -9.10273e-10 9.43448 -8.95045
151 1 9.43436 -3.87608e-09 9.43401 -8.95031
152 1 12.5802 -5.71201e-09 9.43378 -8.95069
153 1 15.7255 -1.75756e-09 9.43383 -8.94936
154 1 18.8697 -2.67677e-10 9.43424 -8.9495
155 1 -0.000164455 3.14425 9.43443 -8.94941
156 1 3.1443 3.14397 9.43468 -8.94964
157 1 6.2892 3.14248 9.43403 -8.95256
158 1 9.43455 3.1418 9.43318 -8.95066
159 1 12.5818 3.14069 9.43252 -8.95156
160 1 15.7264 3.14311 9.43338 -8.94917
161 1 18.8699 3.14414 9.43411 -8.94943
162 1 22.0131 6.28901 9.43449 -8.94989
163 1 3.14226 6.28787 9.43418 -8.95169
164 1 6.28309 6.27885 9.42715 -8.95309
165 1 9.43571 6.2802 9.4288 -8.95089
166 1 12.593 6.27646 9.42219 -8.92998
177 1 4.71695 1.57209 11.0071 -8.94935
178 1 7.86206 1.57191 11.0071 -8.94943
179 1 11.0075 1.57066 11.0067 -8.95147
191 1 4.71414 7.86155 11.0091 -8.95296
181 1 17.2978 1.57183 11.0067 -8.94946
182 1 20.4418 1.5721 11.0069 -8.94953
184 1 4.71688 4.71655 11.0076 -8.94887
185 1 7.86288 4.71565 11.0066 -8.95185
186 1 11.0107 4.70868 11.0054 -8.95928
190 1 1.57106 7.86157 11.0076 -8.94981
19 1 6.28943 3.14401 0.000554488 -8.94944
49 1 18.8688 9.43443 0.000323648 -8.94953
21 1 9.43467 3.14408 0.000575989 -8.94949
43 1 22.0127 9.43424 0.00058817 -8.94946
176 1 1.57214 1.57207 11.007 -8.94954
343 1 18.8687 9.43439 18.8698 -8.94956
342 1 15.7249 9.43454 18.87 -8.94898
341 1 12.5798 9.43515 18.8698 -8.94887
340 1 9.43376 9.4342 18.8707 -8.95185
339 1 6.28598 9.43296 18.8776 -8.95928
338 1 3.14013 9.4329 18.8734 -8.94759
183 1 1.57172 4.71633 11.007 -8.94898
337 1 -0.0022601 9.434 18.8705 -8.94928
336 1 20.4406 7.86169 20.4422 -8.94943
335 1 18.869 6.2893 18.8697 -8.94989
334 1 17.2968 7.86201 20.4421 -8.94941
188 1 17.2989 4.71585 11.0064 -8.94928
189 1 20.4418 4.71654 11.0068 -8.94956
333 1 15.7256 6.28916 18.8704 -8.95045
332 1 14.1523 7.86226 20.4424 -8.94964
331 1 12.5828 6.28649 18.8741 -8.94983
330 1 11.0074 7.86161 20.4438 -8.95256
329 1 9.43519 6.28668 18.8728 -8.9477
328 1 7.86208 7.86076 20.4445 -8.95066
327 1 6.2879 6.28646 18.8733 -8.94914
197 1 -3.10264e-05 2.5724e-10 12.5794 -8.94956
198 1 1.57214 1.57207 14.1518 -8.94954
199 1 3.1445 1.73543e-09 12.5794 -8.94965
200 1 4.71695 1.57209 14.1516 -8.94935
201 1 6.28941 3.3678e-09 12.5794 -8.94911
202 1 7.86206 1.57191 14.1517 -8.94943
203 1 9.43444 -5.83676e-09 12.5794 -8.94848
204 1 11.0075 1.57066 14.152 -8.95147
205 1 12.5806 -6.32061e-09 12.5794 -8.95039
206 1 14.1535 1.57096 14.1524 -8.9494
207 1 15.7256 -1.93131e-09 12.5794 -8.94945
208 1 17.2978 1.57183 14.1521 -8.94946
209 1 18.8697 -3.33442e-10 12.5794 -8.94951
210 1 20.4418 1.5721 14.1519 -8.94953
211 1 22.0138 3.14425 12.5794 -8.94955
212 1 1.57172 4.71633 14.1518 -8.94898
213 1 3.14435 3.14411 12.5794 -8.94963
214 1 4.71688 4.71655 14.1512 -8.94887
215 1 6.28964 3.14485 12.5794 -8.94819
216 1 7.86288 4.71565 14.1521 -8.95185
217 1 9.43498 3.144 12.5794 -8.94632
218 1 11.0107 4.70868 14.1534 -8.95928
219 1 12.5825 3.14054 12.5794 -8.94959
220 1 14.1565 4.71289 14.1534 -8.94759
221 1 15.7265 3.14304 12.5794 -8.94944
222 1 17.2989 4.71585 14.1523 -8.94928
223 1 18.87 3.1441 12.5794 -8.94949
224 1 20.4418 4.71654 14.1519 -8.94956
225 1 -0.000452628 6.28884 12.5794 -8.94956
226 1 1.57106 7.86157 14.1512 -8.94981
227 1 3.14348 6.28811 12.5794 -8.94647
228 1 4.71414 7.86155 14.1497 -8.95296
229 1 6.29194 6.29218 12.5794 -8.94507
230 1 7.84741 7.85389 14.1763 -8.90431
231 1 9.43997 6.2931 12.5794 -9.00325
232 1 11.0478 7.8245 14.1852 -8.85444
233 1 12.5907 6.27886 12.5794 -8.94205
234 1 14.1623 7.85775 14.1543 -8.95827
235 1 15.7293 6.2868 12.5794 -8.94905
236 1 17.2993 7.8616 14.1521 -8.95182
237 1 18.8705 6.28886 12.5794 -8.94999
238 1 20.4415 7.86178 14.1518 -8.94991
239 1 22.0137 9.43429 12.5794 -8.94759
240 1 3.14775 9.43518 12.5794 -8.93982
241 1 6.31282 9.44436 12.5794 -8.90235
242 1 9.51159 9.20249 12.5794 -8.12181
243 1 12.5867 9.4265 12.5794 -8.97287
244 1 15.7264 9.43474 12.5794 -8.95105
245 1 18.8696 9.4346 12.5794 -8.94933
246 1 -4.44569e-05 1.30435e-10 15.7243 -8.94952
247 1 1.57206 1.57198 17.2967 -8.94974
248 1 3.14451 2.7499e-09 15.7241 -8.94955
249 1 4.71659 1.57129 17.2971 -8.95073
250 1 6.28943 -9.10272e-10 15.7243 -8.95045
251 1 7.86173 1.57131 17.2976 -8.94968
252 1 9.43436 -3.87607e-09 15.7247 -8.95031
253 1 11.0073 1.57116 17.2977 -8.94975
254 1 12.5802 -5.71201e-09 15.725 -8.95069
255 1 14.1532 1.57106 17.298 -8.95
256 1 15.7255 -1.75756e-09 15.7249 -8.94936
257 1 17.2977 1.57189 17.2974 -8.94944
258 1 18.8697 -2.67677e-10 15.7245 -8.9495
259 1 20.4417 1.57211 17.2969 -8.9495
260 1 -0.000164455 3.14425 15.7243 -8.94941
261 1 1.57101 4.71587 17.2972 -8.95045
262 1 3.1443 3.14397 15.7241 -8.94964
263 1 4.71388 4.71219 17.2998 -8.94983
264 1 6.2892 3.14248 15.7247 -8.95256
265 1 7.86145 4.71351 17.2996 -8.9477
266 1 9.43455 3.1418 15.7256 -8.95066
267 1 11.0087 4.71304 17.2999 -8.94914
268 1 12.5818 3.14069 15.7262 -8.95156
269 1 14.1567 4.71271 17.3013 -8.94453
270 1 15.7264 3.14311 15.7254 -8.94917
271 1 17.2986 4.71606 17.298 -8.9497
272 1 18.8699 3.14414 15.7246 -8.94943
273 1 20.4415 4.71661 17.297 -8.94989
274 1 22.0131 6.28901 15.7243 -8.94989
275 1 1.56757 7.85979 17.2991 -8.95091
276 1 3.14226 6.28787 15.7246 -8.95169
277 1 4.70364 7.84977 17.3099 -8.92998
278 1 6.28309 6.27885 15.7316 -8.95309
279 1 7.86093 7.85638 17.3061 -8.95089
280 1 9.43571 6.2802 15.7299 -8.95089
281 1 11.0135 7.85473 17.3075 -8.95309
282 1 12.593 6.27646 15.7366 -8.92998
283 1 14.1544 7.86176 17.2985 -8.95169
284 1 15.7291 6.28725 15.7265 -8.95091
285 1 17.2974 7.86207 17.2973 -8.94989
286 1 18.8702 6.28906 15.7247 -8.95026
287 1 20.4404 7.86163 17.2973 -8.95026
288 1 22.0113 9.43422 15.7247 -8.95182
289 1 3.13435 9.43199 15.7286 -8.95827
290 1 6.24885 9.40114 15.7618 -8.85444
291 1 9.44923 9.41006 15.7324 -8.90431
292 1 12.5825 9.43664 15.7248 -8.95296
293 1 15.7256 9.43515 15.7248 -8.94981
294 1 18.869 9.43457 15.7245 -8.94991
295 1 22.0137 6.82685e-10 18.8692 -8.94971
296 1 1.57169 1.57175 20.4421 -8.94946
297 1 3.1442 -4.36944e-10 18.8696 -8.95008
298 1 4.71678 1.57179 20.4421 -8.94948
299 1 6.28926 -7.62462e-10 18.8698 -8.94954
300 1 7.86196 1.57185 20.4422 -8.94949
301 1 9.43449 -1.08595e-09 18.8699 -8.94955
302 1 11.0072 1.57187 20.4423 -8.94944
303 1 12.5799 -1.34374e-09 18.87 -8.9496
304 1 14.1525 1.57187 20.4424 -8.9496
305 1 15.7253 -1.92074e-09 18.8701 -8.9495
306 1 17.2974 1.57201 20.4422 -8.94914
307 1 18.8696 -2.21072e-10 18.8695 -8.9495
308 1 20.4415 1.57208 20.4418 -8.94956
309 1 22.0134 3.14406 18.8695 -8.94987
310 1 1.57057 4.71544 20.443 -8.94821
311 1 3.14329 3.14275 18.8704 -8.94943
312 1 4.71615 4.71549 20.4432 -8.94963
313 1 6.28903 3.14311 18.8704 -8.94913
314 1 7.86195 4.71575 20.4431 -8.94935
315 1 9.43468 3.14318 18.8706 -8.94935
316 1 11.0076 4.7159 20.4432 -8.94913
317 1 12.5805 3.14311 18.8708 -8.94963
318 1 14.1533 4.71591 20.4436 -8.94943
319 1 15.7261 3.14335 18.8709 -8.94821
320 1 17.2972 4.71684 20.4423 -8.94987
321 1 18.8697 3.14424 18.8697 -8.94955
322 1 20.4409 4.7166 20.4421 -8.94955
323 1 22.0119 6.28837 18.8703 -8.9497
324 1 1.57027 7.86095 20.4432 -8.94917
325 1 3.13992 6.28504 18.8736 -8.94453
326 1 4.71488 7.8601 20.4456 -8.95156
7 1 9.43458 -2.42363e-10 22.0143 -8.94951
48 1 15.7245 9.43454 22.0143 -8.94954
44 1 3.1431 9.43394 22.0154 -8.9494
33 1 6.28934 6.28858 22.0152 -8.94975
35 1 9.4349 6.28875 22.015 -8.94968
3 1 3.14445 -9.0695e-11 22.0142 -8.94953
11 1 15.7247 -2.37625e-10 22.0143 -8.94956
17 1 3.14415 3.14393 22.0144 -8.9496
23 1 12.5799 3.14419 22.0145 -8.94948
29 1 -0.00104918 6.28897 22.0144 -8.94944
180 1 14.1535 1.57096 11.0064 -8.9494
187 1 14.1565 4.71289 11.0053 -8.94759
344 1 1.57104 11.007 1.57242 -8.94945
345 1 4.71608 11.007 1.57242 -8.95039
346 1 7.86219 11.007 1.57242 -8.94848
347 1 11.0072 11.007 1.57242 -8.94911
348 1 14.1521 11.007 1.57242 -8.94965
349 1 17.2967 11.007 1.57242 -8.94956
350 1 20.4408 11.007 1.57242 -8.94951
511 1 18.8699 18.8698 9.43411 -8.94943
352 1 1.57113 14.1525 1.57242 -8.94936
510 1 15.7264 18.8708 9.43338 -8.94917
354 1 4.71645 14.1525 1.57242 -8.95069
355 1 6.28918 12.5796 0.00176438 -8.95147
356 1 7.86228 14.1523 1.57242 -8.95031
357 1 9.43457 12.5793 0.000509237 -8.94943
358 1 11.0072 14.1518 1.57242 -8.95045
359 1 12.5797 12.5792 0.000330235 -8.94935
360 1 14.1521 14.1517 1.57242 -8.94955
509 1 12.5818 18.8732 9.43252 -8.95156
362 1 17.2967 14.1519 1.57242 -8.94952
508 1 9.43455 18.8721 9.43318 -8.95066
364 1 20.4408 14.1521 1.57242 -8.9495
539 1 20.4418 20.4418 11.0069 -8.94953
366 1 1.57137 17.2977 1.57242 -8.9495
367 1 3.1434 15.7256 0.00135889 -8.95
368 1 4.71675 17.2976 1.57242 -8.9496
507 1 6.2892 18.8714 9.43403 -8.95256
370 1 7.86214 17.2975 1.57242 -8.94955
506 1 3.1443 18.8699 9.43468 -8.94964
372 1 11.0074 17.2973 1.57242 -8.94954
373 1 12.58 15.7247 0.00112689 -8.95073
374 1 14.1524 17.2971 1.57242 -8.95008
375 1 15.7246 15.7243 0.000439893 -8.94974
376 1 17.2968 17.2968 1.57242 -8.94971
377 1 18.8688 15.7245 0.00030748 -8.9495
378 1 20.441 17.2971 1.57242 -8.9495
379 1 22.0131 18.8698 0.000407102 -8.94914
380 1 1.57193 20.4419 1.57242 -8.94956
538 1 17.2978 20.4421 11.0067 -8.94946
382 1 4.71696 20.4419 1.57242 -8.94949
505 1 -0.000164457 18.8697 9.43443 -8.94941
384 1 7.86206 20.4419 1.57242 -8.94951
504 1 18.8702 15.7248 9.43406 -8.95026
386 1 11.0072 20.4418 1.57242 -8.9495
536 1 11.0075 20.4432 11.0067 -8.95147
388 1 14.1522 20.4418 1.57242 -8.94953
389 1 15.7249 18.8697 0.000671093 -8.94946
390 1 17.297 20.4418 1.57242 -8.94934
391 1 18.8691 18.8694 0.00033731 -8.94956
392 1 20.4412 20.4417 1.57242 -8.94921
393 1 1.57013 11.007 4.71546 -8.94944
394 1 4.71418 11.007 4.71296 -8.94959
395 1 7.86166 11.007 4.71642 -8.94632
396 1 11.007 11.007 4.71727 -8.94819
397 1 14.1523 11.007 4.71653 -8.94963
398 1 17.2967 11.007 4.71667 -8.94955
399 1 20.4405 11.007 4.71652 -8.94949
400 1 22.0127 12.5797 3.14425 -8.94946
401 1 1.57027 14.1529 4.71553 -8.94917
402 1 3.1431 12.58 3.14338 -8.9494
403 1 4.71488 14.1538 4.71311 -8.95156
404 1 6.28918 12.5796 3.14308 -8.95147
405 1 7.86208 14.1531 4.71422 -8.95066
406 1 9.43457 12.5793 3.14433 -8.94943
407 1 11.0074 14.1523 4.7149 -8.95256
408 1 12.5797 12.5792 3.14451 -8.94935
409 1 14.1523 14.1516 4.71639 -8.94964
410 1 15.7245 12.5794 3.14449 -8.94954
411 1 17.2968 14.1519 4.71667 -8.94941
412 1 18.8688 12.5795 3.14452 -8.94953
413 1 20.4406 14.1522 4.71657 -8.94943
414 1 -0.00104918 15.7249 3.14431 -8.94944
415 1 1.57057 17.2985 4.71577 -8.94821
416 1 3.1434 15.7256 3.14348 -8.95
417 1 4.71615 17.2984 4.71553 -8.94963
418 1 6.28934 15.7253 3.14358 -8.94975
419 1 7.86195 17.2982 4.7156 -8.94935
420 1 9.4349 15.7252 3.14373 -8.94968
421 1 11.0076 17.298 4.71553 -8.94913
422 1 12.58 15.7247 3.14372 -8.95073
423 1 14.1533 17.298 4.71517 -8.94943
424 1 15.7246 15.7243 3.1444 -8.94974
425 1 17.2972 17.2971 4.71648 -8.94987
426 1 18.8688 15.7245 3.14454 -8.9495
427 1 20.4409 17.2973 4.71666 -8.94955
428 1 22.0131 18.8698 3.14444 -8.94914
429 1 1.57169 20.4422 4.71665 -8.94946
430 1 3.14415 18.87 3.1443 -8.9496
431 1 4.71678 20.4421 4.71661 -8.94948
432 1 6.28943 18.8699 3.14429 -8.94944
433 1 7.86196 20.4421 4.7165 -8.94949
434 1 9.43467 18.8698 3.14427 -8.94949
435 1 11.0072 20.442 4.71643 -8.94944
436 1 12.5799 18.8697 3.14421 -8.94948
437 1 14.1525 20.442 4.71635 -8.9496
438 1 15.7249 18.8697 3.14417 -8.94946
439 1 17.2974 20.4419 4.71653 -8.94914
440 1 18.8691 18.8694 3.14451 -8.94956
441 1 20.4415 20.4418 4.71692 -8.94956
442 1 1.56729 11.007 7.85922 -8.94905
443 1 4.7059 11.007 7.85128 -8.94205
444 1 7.85667 11.007 7.86552 -9.00325
445 1 11.0047 11.007 7.8646 -8.94507
446 1 14.1532 11.007 7.86053 -8.94647
447 1 17.2971 11.007 7.86126 -8.94956
448 1 20.44 11.007 7.86129 -8.94999
449 1 -0.0022601 12.5799 6.28827 -8.94928
450 1 1.56757 14.1541 7.85967 -8.95091
451 1 3.14013 12.581 6.28531 -8.94759
452 1 4.70364 14.1641 7.84889 -8.92998
453 1 6.28598 12.5809 6.2811 -8.95928
454 1 7.86093 14.1575 7.85262 -8.95089
455 1 9.43376 12.5797 6.28808 -8.95185
456 1 11.0135 14.1592 7.85127 -8.95309
457 1 12.5798 12.5788 6.28897 -8.94887
458 1 14.1544 14.1521 7.86029 -8.95169
459 1 15.7249 12.5794 6.28875 -8.94898
460 1 17.2974 14.1518 7.86144 -8.94989
461 1 18.8687 12.5795 6.28896 -8.94956
462 1 20.4404 14.1523 7.86149 -8.95026
463 1 22.0119 15.7255 6.28848 -8.9497
464 1 1.57101 17.298 7.86158 -8.95045
465 1 3.13992 15.7289 6.28513 -8.94453
466 1 4.71388 17.3017 7.85891 -8.94983
467 1 6.2879 15.7274 6.28546 -8.94914
468 1 7.86145 17.3004 7.8591 -8.9477
469 1 9.43519 15.7272 6.28594 -8.9477
470 1 11.0087 17.3009 7.85888 -8.94914
471 1 12.5828 15.7274 6.28461 -8.94983
472 1 14.1567 17.3012 7.85746 -8.94453
473 1 15.7256 15.7247 6.2883 -8.95045
474 1 17.2986 17.2978 7.86079 -8.9497
475 1 18.869 15.7246 6.28903 -8.94989
476 1 20.4415 17.2973 7.86172 -8.94989
477 1 22.0134 18.8698 6.28926 -8.94987
478 1 1.57206 20.4419 7.86204 -8.94974
479 1 3.14329 18.8712 6.28833 -8.94943
480 1 4.71659 20.4426 7.86163 -8.95073
481 1 6.28903 18.8708 6.28832 -8.94913
482 1 7.86173 20.4426 7.86117 -8.94968
483 1 9.43468 18.8707 6.28817 -8.94935
484 1 11.0073 20.4427 7.861 -8.94975
485 1 12.5805 18.8708 6.28792 -8.94963
486 1 14.1532 20.4428 7.86071 -8.95
487 1 15.7261 18.8706 6.28786 -8.94821
488 1 17.2977 20.442 7.86139 -8.94944
489 1 18.8697 18.8697 6.28902 -8.94955
490 1 20.4417 20.4418 7.86186 -8.9495
491 1 22.0113 12.5797 9.43402 -8.95182
492 1 3.13435 12.5819 9.43017 -8.95827
493 1 6.24885 12.6128 9.39692 -8.85444
494 1 9.44923 12.6038 9.42631 -8.90431
495 1 12.5825 12.5773 9.43398 -8.95296
496 1 15.7256 12.5788 9.43399 -8.94981
497 1 18.869 12.5793 9.4342 -8.94991
498 1 22.0131 15.7249 9.43449 -8.94989
499 1 3.14226 15.726 9.43418 -8.95169
500 1 6.28309 15.7351 9.42715 -8.95309
501 1 9.43571 15.7337 9.4288 -8.95089
502 1 12.593 15.7374 9.42219 -8.92998
503 1 15.7291 15.7267 9.43221 -8.95091
512 1 1.57025 11.007 11.0072 -8.95105
513 1 4.70993 11.007 10.9989 -8.97287
514 1 7.78505 11.007 10.7749 -8.12181
515 1 10.9838 11.007 11.0168 -8.90235
516 1 14.1489 11.007 11.0076 -8.93982
517 1 17.2968 11.007 11.0067 -8.94759
518 1 20.4409 11.007 11.007 -8.94933
519 1 1.57106 14.1523 11.0076 -8.94981
520 1 4.71414 14.1523 11.0091 -8.95296
521 1 7.84741 14.16 10.9825 -8.90431
522 1 11.0478 14.1894 10.9736 -8.85444
523 1 14.1623 14.1561 11.0044 -8.95827
524 1 17.2993 14.1523 11.0066 -8.95182
525 1 20.4415 14.1521 11.007 -8.94991
527 1 4.71688 17.2974 11.0076 -8.94887
528 1 7.86288 17.2982 11.0066 -8.95185
529 1 11.0107 17.3052 11.0054 -8.95928
535 1 7.86206 20.442 11.0071 -8.94943
534 1 4.71695 20.4418 11.0071 -8.94935
351 1 22.0127 12.5797 0.00058817 -8.94946
385 1 9.43467 18.8698 0.000575988 -8.94949
383 1 6.28943 18.8699 0.000554488 -8.94944
363 1 18.8688 12.5795 0.000323648 -8.94953
687 3 8.64832 11.007 12.5794 2.30847
686 1 20.4415 20.4418 20.4418 -8.94956
685 1 18.8697 18.8697 18.8697 -8.94955
684 1 17.2974 20.4419 20.4422 -8.94914
683 1 15.7261 18.8706 18.8709 -8.94821
682 1 14.1525 20.442 20.4424 -8.9496
681 1 12.5805 18.8708 18.8708 -8.94963
680 1 11.0072 20.442 20.4423 -8.94944
679 1 9.43468 18.8707 18.8706 -8.94935
678 1 7.86196 20.4421 20.4422 -8.94949
677 1 6.28903 18.8708 18.8704 -8.94913
676 1 4.71678 20.4421 20.4421 -8.94948
675 1 3.14329 18.8712 18.8704 -8.94943
674 1 1.57169 20.4422 20.4421 -8.94946
526 1 1.57172 17.2976 11.007 -8.94898
673 1 22.0134 18.8698 18.8695 -8.94987
672 1 20.4409 17.2973 20.4421 -8.94955
671 1 18.869 15.7246 18.8697 -8.94989
670 1 17.2972 17.2971 20.4423 -8.94987
531 1 17.2989 17.298 11.0064 -8.94928
532 1 20.4418 17.2974 11.0068 -8.94956
533 1 1.57214 20.4418 11.007 -8.94954
669 1 15.7256 15.7247 18.8704 -8.95045
668 1 14.1533 17.298 20.4436 -8.94943
667 1 12.5828 15.7274 18.8741 -8.94983
666 1 11.0076 17.298 20.4432 -8.94913
665 1 9.43519 15.7272 18.8728 -8.9477
664 1 7.86195 17.2982 20.4431 -8.94935
540 1 1.57025 11.007 14.1516 -8.95105
541 1 4.70993 11.007 14.1598 -8.97287
542 1 7.78505 11.007 14.3838 -8.12181
543 1 10.9838 11.007 14.142 -8.90235
544 1 14.1489 11.007 14.1511 -8.93982
545 1 17.2968 11.007 14.152 -8.94759
546 1 20.4409 11.007 14.1517 -8.94933
547 1 22.0137 12.5796 12.5794 -8.94759
548 1 1.57106 14.1523 14.1512 -8.94981
549 1 3.14775 12.5787 12.5794 -8.93982
550 1 4.71414 14.1523 14.1497 -8.95296
551 1 6.31282 12.5695 12.5794 -8.90235
552 1 7.84741 14.16 14.1763 -8.90431
553 1 9.51159 12.8114 12.5794 -8.12181
554 1 11.0478 14.1894 14.1852 -8.85444
555 1 12.5867 12.5874 12.5794 -8.97287
556 1 14.1623 14.1561 14.1543 -8.95827
557 1 15.7264 12.5792 12.5794 -8.95105
558 1 17.2993 14.1523 14.1521 -8.95182
559 1 18.8696 12.5793 12.5794 -8.94933
560 1 20.4415 14.1521 14.1518 -8.94991
561 1 -0.000452644 15.7251 12.5794 -8.94956
562 1 1.57172 17.2976 14.1518 -8.94898
563 1 3.14348 15.7258 12.5794 -8.94647
564 1 4.71688 17.2974 14.1512 -8.94887
565 1 6.29194 15.7217 12.5794 -8.94507
566 1 7.86288 17.2982 14.1521 -8.95185
567 1 9.43997 15.7208 12.5794 -9.00325
568 1 11.0107 17.3052 14.1534 -8.95928
569 1 12.5907 15.735 12.5794 -8.94205
570 1 14.1565 17.301 14.1534 -8.94759
571 1 15.7293 15.7271 12.5794 -8.94905
572 1 17.2989 17.298 14.1523 -8.94928
573 1 18.8705 15.725 12.5794 -8.94999
574 1 20.4418 17.2974 14.1519 -8.94956
575 1 22.0138 18.8697 12.5794 -8.94955
576 1 1.57214 20.4418 14.1518 -8.94954
577 1 3.14435 18.8698 12.5794 -8.94963
578 1 4.71695 20.4418 14.1516 -8.94935
579 1 6.28964 18.869 12.5794 -8.94819
580 1 7.86206 20.442 14.1517 -8.94943
581 1 9.43498 18.8699 12.5794 -8.94632
582 1 11.0075 20.4432 14.152 -8.95147
583 1 12.5825 18.8734 12.5794 -8.94959
584 1 14.1535 20.4429 14.1524 -8.9494
585 1 15.7265 18.8709 12.5794 -8.94944
586 1 17.2978 20.4421 14.1521 -8.94946
587 1 18.87 18.8698 12.5794 -8.94949
588 1 20.4418 20.4418 14.1519 -8.94953
589 1 1.56729 11.007 17.2995 -8.94905
590 1 4.7059 11.007 17.3075 -8.94205
591 1 7.85667 11.007 17.2932 -9.00325
592 1 11.0047 11.007 17.2941 -8.94507
593 1 14.1532 11.007 17.2982 -8.94647
594 1 17.2971 11.007 17.2975 -8.94956
595 1 20.44 11.007 17.2975 -8.94999
596 1 22.0113 12.5797 15.7247 -8.95182
597 1 1.56757 14.1541 17.2991 -8.95091
598 1 3.13435 12.5819 15.7286 -8.95827
599 1 4.70364 14.1641 17.3099 -8.92998
600 1 6.24885 12.6128 15.7618 -8.85444
601 1 7.86093 14.1575 17.3061 -8.95089
602 1 9.44923 12.6038 15.7324 -8.90431
603 1 11.0135 14.1592 17.3075 -8.95309
604 1 12.5825 12.5773 15.7248 -8.95296
605 1 14.1544 14.1521 17.2985 -8.95169
606 1 15.7256 12.5788 15.7248 -8.94981
607 1 17.2974 14.1518 17.2973 -8.94989
608 1 18.869 12.5793 15.7245 -8.94991
609 1 20.4404 14.1523 17.2973 -8.95026
610 1 22.0131 15.7249 15.7243 -8.94989
611 1 1.57101 17.298 17.2972 -8.95045
612 1 3.14226 15.726 15.7246 -8.95169
613 1 4.71388 17.3017 17.2998 -8.94983
614 1 6.28309 15.7351 15.7316 -8.95309
615 1 7.86145 17.3004 17.2996 -8.9477
616 1 9.43571 15.7337 15.7299 -8.95089
617 1 11.0087 17.3009 17.2999 -8.94914
618 1 12.593 15.7374 15.7366 -8.92998
619 1 14.1567 17.3012 17.3013 -8.94453
620 1 15.7291 15.7267 15.7265 -8.95091
621 1 17.2986 17.2978 17.298 -8.9497
622 1 18.8702 15.7248 15.7247 -8.95026
623 1 20.4415 17.2973 17.297 -8.94989
624 1 -0.000164457 18.8697 15.7243 -8.94941
625 1 1.57206 20.4419 17.2967 -8.94974
626 1 3.1443 18.8699 15.7241 -8.94964
627 1 4.71659 20.4426 17.2971 -8.95073
628 1 6.2892 18.8714 15.7247 -8.95256
629 1 7.86173 20.4426 17.2976 -8.94968
630 1 9.43455 18.8721 15.7256 -8.95066
631 1 11.0073 20.4427 17.2977 -8.94975
632 1 12.5818 18.8732 15.7262 -8.95156
633 1 14.1532 20.4428 17.298 -8.95
634 1 15.7264 18.8708 15.7254 -8.94917
635 1 17.2977 20.442 17.2974 -8.94944
636 1 18.8699 18.8698 15.7246 -8.94943
637 1 20.4417 20.4418 17.2969 -8.9495
638 1 1.57013 11.007 20.4433 -8.94944
639 1 4.71418 11.007 20.4458 -8.94959
640 1 7.86166 11.007 20.4423 -8.94632
641 1 11.007 11.007 20.4415 -8.94819
642 1 14.1523 11.007 20.4422 -8.94963
643 1 17.2967 11.007 20.4421 -8.94955
644 1 20.4405 11.007 20.4422 -8.94949
645 1 -0.0022601 12.5799 18.8705 -8.94928
646 1 1.57027 14.1529 20.4432 -8.94917
647 1 3.14013 12.581 18.8734 -8.94759
648 1 4.71488 14.1538 20.4456 -8.95156
649 1 6.28598 12.5809 18.8776 -8.95928
650 1 7.86208 14.1531 20.4445 -8.95066
651 1 9.43376 12.5797 18.8707 -8.95185
652 1 11.0074 14.1523 20.4438 -8.95256
653 1 12.5798 12.5788 18.8698 -8.94887
654 1 14.1523 14.1516 20.4424 -8.94964
655 1 15.7249 12.5794 18.87 -8.94898
656 1 17.2968 14.1519 20.4421 -8.94941
657 1 18.8687 12.5795 18.8698 -8.94956
658 1 20.4406 14.1522 20.4422 -8.94943
659 1 22.0119 15.7255 18.8703 -8.9497
660 1 1.57057 17.2985 20.443 -8.94821
661 1 3.13992 15.7289 18.8736 -8.94453
662 1 4.71615 17.2984 20.4432 -8.94963
663 1 6.2879 15.7274 18.8733 -8.94914
371 1 9.4349 15.7252 22.015 -8.94968
353 1 3.1431 12.58 22.0154 -8.9494
361 1 15.7245 12.5794 22.0143 -8.94954
369 1 6.28934 15.7253 22.0152 -8.94975
365 1 -0.00104918 15.7249 22.0144 -8.94944
381 1 3.14415 18.87 22.0144 -8.9496
387 1 12.5799 18.8697 22.0145 -8.94948
537 1 14.1535 20.4429 11.0064 -8.9494
530 1 14.1565 17.301 11.0053 -8.94759
