ITEM: TIMESTEP
44
ITEM: NUMBER OF ATOMS
687
ITEM: BOX BOUNDS pp pp pp
0.0000000000000000e+00 2.2013900999999997e+01
0.0000000000000000e+00 2.2013900999999997e+01
0.0000000000000000e+00 2.2013900999999997e+01
ITEM: ATOMS id type x y z c_pot
1 1 22.0139 -8.25341e-16 4.63161e-10 -8.94963
2 1 1.57242 1.57242 1.57242 -8.94963
196 1 20.4415 7.86211 11.007 -8.94964
4 1 4.71726 1.57242 1.57242 -8.94963
5 1 6.28969 -3.17312e-16 1.71947e-09 -8.94963
6 1 7.86211 1.57242 1.57242 -8.94963
175 1 18.8691 9.43453 9.43453 -8.94964
8 1 11.007 1.57242 1.57242 -8.94963
9 1 12.5794 4.28375e-16 2.44659e-09 -8.94963
10 1 14.1518 1.57242 1.57242 -8.94963
195 1 17.2966 7.86211 11.0069 -8.94968
12 1 17.2966 1.57242 1.57242 -8.94963
13 1 18.8691 3.08408e-16 1.36121e-10 -8.94963
14 1 20.4415 1.57242 1.57242 -8.94963
15 1 22.0139 3.14484 4.68934e-09 -8.94963
16 1 1.57242 4.71726 1.57242 -8.94963
194 1 14.152 7.86205 11.0069 -8.95052
18 1 4.71726 4.71726 1.57242 -8.94963
174 1 15.7242 9.43453 9.43452 -8.94964
20 1 7.86211 4.71726 1.57242 -8.94963
173 1 12.5796 9.43444 9.43437 -8.94909
22 1 11.007 4.71726 1.57242 -8.94963
193 1 11.0122 7.8571 11.0017 -8.90368
24 1 14.1518 4.71726 1.57242 -8.94963
25 1 15.7242 3.14484 1.2551e-08 -8.94963
26 1 17.2966 4.71726 1.57242 -8.94963
27 1 18.8691 3.14484 -3.40122e-11 -8.94963
28 1 20.4415 4.71726 1.57242 -8.94963
192 1 7.86034 7.86094 11.005 -8.93606
30 1 1.57242 7.86211 1.57242 -8.94963
31 1 3.14484 6.28969 4.99584e-07 -8.94963
32 1 4.71726 7.86211 1.57242 -8.94963
172 1 9.4363 9.43257 9.43336 -8.93606
34 1 7.86211 7.86211 1.57242 -8.94963
171 1 6.28443 9.42931 9.42952 -8.90368
36 1 11.007 7.86211 1.57242 -8.94963
37 1 12.5794 6.28969 4.51798e-07 -8.94963
38 1 14.1518 7.86211 1.57242 -8.94963
39 1 15.7242 6.28969 -1.02283e-08 -8.94963
40 1 17.2966 7.86211 1.57242 -8.94963
41 1 18.8691 6.28969 -6.87118e-10 -8.94963
42 1 20.4415 7.86211 1.57242 -8.94963
170 1 3.14462 9.43446 9.43447 -8.95052
169 1 22.0139 9.43453 9.43453 -8.94968
45 1 6.28968 9.43453 9.15088e-06 -8.94968
46 1 9.43453 9.43453 6.30214e-06 -8.94964
47 1 12.5794 9.43453 -8.79096e-08 -8.94964
168 1 18.8691 6.28969 9.43453 -8.94963
167 1 15.7242 6.28968 9.43452 -8.94965
50 1 22.0139 -7.62945e-16 3.14484 -8.94963
51 1 1.57242 1.57242 4.71726 -8.94963
52 1 3.14484 -3.79224e-17 3.14484 -8.94963
53 1 4.71726 1.57242 4.71726 -8.94963
54 1 6.28969 -2.78579e-16 3.14484 -8.94963
55 1 7.86211 1.57242 4.71726 -8.94963
56 1 9.43453 1.12404e-16 3.14484 -8.94963
57 1 11.007 1.57242 4.71726 -8.94963
58 1 12.5794 2.99699e-16 3.14484 -8.94963
59 1 14.1518 1.57242 4.71726 -8.94963
60 1 15.7242 4.07179e-16 3.14484 -8.94963
61 1 17.2966 1.57242 4.71726 -8.94963
62 1 18.8691 2.31043e-16 3.14484 -8.94963
63 1 20.4415 1.57242 4.71726 -8.94963
64 1 22.0139 3.14484 3.14484 -8.94963
65 1 1.57242 4.71726 4.71726 -8.94963
66 1 3.14484 3.14484 3.14484 -8.94963
67 1 4.71726 4.71727 4.71727 -8.94964
68 1 6.28969 3.14484 3.14484 -8.94963
69 1 7.86211 4.71726 4.71726 -8.94963
70 1 9.43453 3.14484 3.14484 -8.94963
71 1 11.007 4.71726 4.71727 -8.94963
72 1 12.5794 3.14484 3.14484 -8.94963
73 1 14.1518 4.71726 4.71726 -8.94963
74 1 15.7242 3.14484 3.14484 -8.94963
75 1 17.2966 4.71726 4.71726 -8.94963
76 1 18.8691 3.14484 3.14484 -8.94963
77 1 20.4415 4.71726 4.71726 -8.94963
78 1 2.0974e-08 6.28969 3.14484 -8.94963
79 1 1.57242 7.86211 4.71727 -8.94964
80 1 3.14484 6.28969 3.14484 -8.94963
81 1 4.71726 7.8621 4.71725 -8.94962
82 1 6.28969 6.28969 3.14484 -8.94963
83 1 7.86211 7.86211 4.71727 -8.94964
84 1 9.43453 6.28969 3.14484 -8.94963
85 1 11.007 7.8621 4.71725 -8.94964
86 1 12.5794 6.28969 3.14484 -8.94963
87 1 14.1518 7.86211 4.71726 -8.94964
88 1 15.7242 6.28969 3.14484 -8.94963
89 1 17.2966 7.86211 4.71726 -8.94963
90 1 18.8691 6.28969 3.14484 -8.94963
91 1 20.4415 7.86211 4.71726 -8.94963
92 1 22.0139 9.43453 3.14484 -8.94963
93 1 3.14484 9.43453 3.14484 -8.94963
94 1 6.28968 9.43453 3.14483 -8.94968
95 1 9.43453 9.43453 3.14484 -8.94964
96 1 12.5794 9.43453 3.14484 -8.94964
97 1 15.7242 9.43453 3.14484 -8.94963
98 1 18.8691 9.43453 3.14484 -8.94963
99 1 22.0139 7.73466e-16 6.28969 -8.94963
100 1 1.57242 1.57242 7.86211 -8.94963
101 1 3.14484 4.74581e-18 6.28969 -8.94963
102 1 4.71726 1.57242 7.86211 -8.94963
103 1 6.28969 2.82175e-16 6.28969 -8.94963
104 1 7.86211 1.57242 7.86211 -8.94963
105 1 9.43453 -6.37987e-16 6.28969 -8.94963
106 1 11.007 1.57242 7.86211 -8.94963
107 1 12.5794 -1.41026e-16 6.28969 -8.94963
108 1 14.1518 1.57242 7.86211 -8.94963
109 1 15.7242 1.23477e-15 6.28969 -8.94963
110 1 17.2966 1.57242 7.86211 -8.94963
111 1 18.8691 5.28106e-16 6.28969 -8.94963
112 1 20.4415 1.57242 7.86211 -8.94963
113 1 22.0139 3.14484 6.28969 -8.94963
114 1 1.57242 4.71726 7.86211 -8.94964
115 1 3.14484 3.14484 6.28969 -8.94963
116 1 4.71726 4.71725 7.8621 -8.94964
117 1 6.28969 3.14484 6.28969 -8.94963
118 1 7.86211 4.71727 7.86211 -8.94965
119 1 9.43453 3.14484 6.28969 -8.94963
120 1 11.0069 4.71727 7.86212 -8.94981
121 1 12.5794 3.14484 6.28969 -8.94964
122 1 14.1518 4.71726 7.8621 -8.94952
123 1 15.7242 3.14484 6.28969 -8.94963
124 1 17.2966 4.71726 7.86211 -8.94963
125 1 18.8691 3.14484 6.28969 -8.94963
126 1 20.4415 4.71726 7.86211 -8.94963
127 1 22.0139 6.28969 6.28969 -8.94963
128 1 1.57241 7.8621 7.8621 -8.94965
129 1 3.14483 6.28968 6.28968 -8.94952
130 1 4.71702 7.86186 7.86186 -8.94718
131 1 6.28969 6.28969 6.2897 -8.94981
132 1 7.86216 7.86216 7.86208 -8.95131
133 1 9.43453 6.28969 6.28969 -8.94965
134 1 11.007 7.86202 7.86187 -8.95029
135 1 12.5794 6.28968 6.28967 -8.94964
136 1 14.1518 7.8621 7.86211 -8.94972
137 1 15.7242 6.28969 6.28969 -8.94964
138 1 17.2966 7.86211 7.86211 -8.94963
139 1 18.8691 6.28969 6.28969 -8.94963
140 1 20.4415 7.86211 7.86211 -8.94963
141 1 3.39577e-07 9.43453 6.28969 -8.94963
142 1 3.14485 9.43453 6.28969 -8.94979
143 1 6.28957 9.43442 6.28942 -8.95011
144 1 9.43463 9.43443 6.28954 -8.94908
145 1 12.5794 9.43453 6.28968 -8.9497
146 1 15.7242 9.43453 6.28969 -8.94964
147 1 18.8691 9.43453 6.28969 -8.94963
148 1 8.16358e-10 1.13835e-15 9.43453 -8.94963
149 1 3.14484 1.33389e-15 9.43453 -8.94963
150 1 6.28969 1.33153e-15 9.43453 -8.94963
151 1 9.43453 -1.76441e-16 9.43453 -8.94963
152 1 12.5794 -6.1609e-16 9.43453 -8.94963
153 1 15.7242 4.0341e-16 9.43453 -8.94963
154 1 18.8691 7.85601e-16 9.43453 -8.94963
155 1 1.8147e-08 3.14484 9.43453 -8.94963
156 1 3.14484 3.14484 9.43453 -8.94964
157 1 6.28968 3.14483 9.43452 -8.94964
158 1 9.43453 3.14484 9.43453 -8.94964
159 1 12.5794 3.14483 9.43452 -8.94962
160 1 15.7242 3.14484 9.43453 -8.94964
161 1 18.8691 3.14484 9.43453 -8.94963
162 1 22.0139 6.28969 9.43453 -8.94963
163 1 3.14484 6.28969 9.43452 -8.94972
164 1 6.2896 6.28944 9.43445 -8.95029
165 1 9.43447 6.28966 9.43458 -8.95131
166 1 12.5796 6.28944 9.43428 -8.94718
177 1 4.71726 1.57242 11.007 -8.94964
178 1 7.8621 1.57242 11.0069 -8.94964
179 1 11.007 1.57241 11.0069 -8.94968
191 1 4.71705 7.86195 11.0069 -8.94909
181 1 17.2966 1.57242 11.007 -8.94963
182 1 20.4415 1.57242 11.007 -8.94963
184 1 4.71726 4.71726 11.007 -8.9497
185 1 7.86201 4.71712 11.0068 -8.94908
186 1 11.0071 4.717 11.0068 -8.95011
190 1 1.57241 7.8621 11.0069 -8.94964
19 1 6.28969 3.14484 2.24683e-08 -8.94963
49 1 18.8691 9.43453 2.81277e-09 -8.94963
21 1 9.43453 3.14484 1.15427e-08 -8.94963
43 1 22.0139 9.43453 2.39019e-08 -8.94963
176 1 1.57242 1.57242 11.007 -8.94963
343 1 18.8691 9.43453 18.8691 -8.94963
342 1 15.7242 9.43453 18.8691 -8.94964
341 1 12.5794 9.43453 18.8691 -8.9497
340 1 9.43463 9.43443 18.8692 -8.94908
339 1 6.28957 9.43442 18.8693 -8.95011
338 1 3.14485 9.43453 18.869 -8.94979
183 1 1.57242 4.71727 11.007 -8.94964
337 1 3.39577e-07 9.43453 18.8691 -8.94963
336 1 20.4415 7.86211 20.4415 -8.94963
335 1 18.8691 6.28969 18.8691 -8.94963
334 1 17.2966 7.86211 20.4415 -8.94963
188 1 17.2966 4.71726 11.007 -8.94963
189 1 20.4415 4.71726 11.007 -8.94963
333 1 15.7242 6.28969 18.8691 -8.94964
332 1 14.1518 7.86211 20.4415 -8.94964
331 1 12.5794 6.28968 18.8691 -8.94964
330 1 11.007 7.8621 20.4415 -8.94964
329 1 9.43453 6.28969 18.8691 -8.94965
328 1 7.86211 7.86211 20.4415 -8.94964
327 1 6.28969 6.28969 18.869 -8.94981
197 1 1.29224e-09 8.0608e-16 12.5794 -8.94963
198 1 1.57242 1.57242 14.1518 -8.94963
199 1 3.14484 1.41311e-15 12.5794 -8.94963
200 1 4.71726 1.57242 14.1518 -8.94964
201 1 6.28969 7.55778e-16 12.5794 -8.94963
202 1 7.8621 1.57242 14.1518 -8.94964
203 1 9.43453 5.54961e-16 12.5794 -8.94973
204 1 11.007 1.57241 14.1518 -8.94968
205 1 12.5794 9.03171e-17 12.5794 -8.94963
206 1 14.1518 1.57242 14.1518 -8.94963
207 1 15.7242 6.70717e-16 12.5794 -8.94963
208 1 17.2966 1.57242 14.1518 -8.94963
209 1 18.8691 9.95916e-16 12.5794 -8.94963
210 1 20.4415 1.57242 14.1518 -8.94963
211 1 22.0139 3.14484 12.5794 -8.94963
212 1 1.57242 4.71727 14.1518 -8.94964
213 1 3.14484 3.14484 12.5794 -8.94963
214 1 4.71726 4.71726 14.1518 -8.9497
215 1 6.28969 3.14484 12.5794 -8.94968
216 1 7.86201 4.71712 14.1519 -8.94908
217 1 9.43453 3.14466 12.5794 -8.95091
218 1 11.0071 4.717 14.1519 -8.95011
219 1 12.5794 3.14484 12.5794 -8.94962
220 1 14.1518 4.71727 14.1518 -8.94979
221 1 15.7242 3.14484 12.5794 -8.94964
222 1 17.2966 4.71726 14.1518 -8.94963
223 1 18.8691 3.14484 12.5794 -8.94963
224 1 20.4415 4.71726 14.1518 -8.94963
225 1 5.29687e-07 6.28969 12.5794 -8.94963
226 1 1.57241 7.8621 14.1518 -8.94964
227 1 3.14485 6.28969 12.5794 -8.94965
228 1 4.71705 7.86195 14.1519 -8.94909
229 1 6.28975 6.28962 12.5794 -8.9512
230 1 7.86034 7.86094 14.1537 -8.93606
231 1 9.43464 6.2848 12.5794 -8.97204
232 1 11.0122 7.8571 14.157 -8.90368
233 1 12.5794 6.28966 12.5794 -8.95146
234 1 14.152 7.86205 14.1519 -8.95052
235 1 15.7242 6.28969 12.5794 -8.94961
236 1 17.2966 7.86211 14.1518 -8.94968
237 1 18.8691 6.28969 12.5794 -8.94963
238 1 20.4415 7.86211 14.1518 -8.94964
239 1 22.0139 9.43453 12.5794 -8.94967
240 1 3.14459 9.43443 12.5794 -8.94971
241 1 6.28629 9.43143 12.5794 -8.90934
242 1 9.49271 9.31018 12.5794 -8.01694
243 1 12.5823 9.43413 12.5794 -8.96192
244 1 15.7243 9.43453 12.5794 -8.95035
245 1 18.8691 9.43453 12.5794 -8.94966
246 1 8.16358e-10 1.1897e-15 15.7242 -8.94963
247 1 1.57242 1.57242 17.2966 -8.94963
248 1 3.14484 1.39912e-15 15.7242 -8.94963
249 1 4.71726 1.57242 17.2966 -8.94963
250 1 6.28969 1.30602e-15 15.7242 -8.94963
251 1 7.86211 1.57242 17.2966 -8.94963
252 1 9.43453 -3.02719e-16 15.7242 -8.94963
253 1 11.007 1.57242 17.2966 -8.94963
254 1 12.5794 -6.19184e-16 15.7242 -8.94963
255 1 14.1518 1.57242 17.2966 -8.94963
256 1 15.7242 3.87603e-16 15.7242 -8.94963
257 1 17.2966 1.57242 17.2966 -8.94963
258 1 18.8691 7.7601e-16 15.7242 -8.94963
259 1 20.4415 1.57242 17.2966 -8.94963
260 1 1.8147e-08 3.14484 15.7242 -8.94963
261 1 1.57242 4.71726 17.2966 -8.94964
262 1 3.14484 3.14484 15.7242 -8.94964
263 1 4.71726 4.71725 17.2966 -8.94964
264 1 6.28968 3.14483 15.7242 -8.94964
265 1 7.86211 4.71727 17.2966 -8.94965
266 1 9.43453 3.14484 15.7242 -8.94964
267 1 11.0069 4.71727 17.2966 -8.94981
268 1 12.5794 3.14483 15.7242 -8.94962
269 1 14.1518 4.71726 17.2966 -8.94952
270 1 15.7242 3.14484 15.7242 -8.94964
271 1 17.2966 4.71726 17.2966 -8.94963
272 1 18.8691 3.14484 15.7242 -8.94963
273 1 20.4415 4.71726 17.2966 -8.94963
274 1 22.0139 6.28969 15.7242 -8.94963
275 1 1.57241 7.8621 17.2966 -8.94965
276 1 3.14484 6.28969 15.7242 -8.94972
277 1 4.71702 7.86186 17.2969 -8.94718
278 1 6.2896 6.28944 15.7243 -8.95029
279 1 7.86216 7.86216 17.2967 -8.95131
280 1 9.43447 6.28966 15.7242 -8.95131
281 1 11.007 7.86202 17.2969 -8.95029
282 1 12.5796 6.28944 15.7245 -8.94718
283 1 14.1518 7.8621 17.2966 -8.94972
284 1 15.7242 6.28968 15.7242 -8.94965
285 1 17.2966 7.86211 17.2966 -8.94963
286 1 18.8691 6.28969 15.7242 -8.94963
287 1 20.4415 7.86211 17.2966 -8.94963
288 1 22.0139 9.43453 15.7242 -8.94968
289 1 3.14462 9.43446 15.7243 -8.95052
290 1 6.28443 9.42931 15.7292 -8.90368
291 1 9.4363 9.43257 15.7254 -8.93606
292 1 12.5796 9.43444 15.7244 -8.94909
293 1 15.7242 9.43453 15.7242 -8.94964
294 1 18.8691 9.43453 15.7242 -8.94964
295 1 22.0139 7.69841e-16 18.8691 -8.94963
296 1 1.57242 1.57242 20.4415 -8.94963
297 1 3.14484 2.28263e-16 18.8691 -8.94963
298 1 4.71726 1.57242 20.4415 -8.94963
299 1 6.28969 5.58577e-16 18.8691 -8.94963
300 1 7.86211 1.57242 20.4415 -8.94963
301 1 9.43453 -7.39625e-16 18.8691 -8.94963
302 1 11.007 1.57242 20.4415 -8.94963
303 1 12.5794 -6.66909e-17 18.8691 -8.94963
304 1 14.1518 1.57242 20.4415 -8.94963
305 1 15.7242 1.15294e-15 18.8691 -8.94963
306 1 17.2966 1.57242 20.4415 -8.94963
307 1 18.8691 3.81809e-16 18.8691 -8.94963
308 1 20.4415 1.57242 20.4415 -8.94963
309 1 22.0139 3.14484 18.8691 -8.94963
310 1 1.57242 4.71726 20.4415 -8.94963
311 1 3.14484 3.14484 18.8691 -8.94963
312 1 4.71726 4.71727 20.4415 -8.94964
313 1 6.28969 3.14484 18.8691 -8.94963
314 1 7.86211 4.71726 20.4415 -8.94963
315 1 9.43453 3.14484 18.8691 -8.94963
316 1 11.007 4.71726 20.4415 -8.94963
317 1 12.5794 3.14484 18.8691 -8.94964
318 1 14.1518 4.71726 20.4415 -8.94963
319 1 15.7242 3.14484 18.8691 -8.94963
320 1 17.2966 4.71726 20.4415 -8.94963
321 1 18.8691 3.14484 18.8691 -8.94963
322 1 20.4415 4.71726 20.4415 -8.94963
323 1 22.0139 6.28969 18.8691 -8.94963
324 1 1.57242 7.86211 20.4415 -8.94964
325 1 3.14483 6.28968 18.8691 -8.94952
326 1 4.71726 7.8621 20.4415 -8.94962
7 1 9.43453 1.08397e-16 22.0139 -8.94963
48 1 15.7242 9.43453 22.0139 -8.94963
44 1 3.14484 9.43453 22.0139 -8.94963
33 1 6.28969 6.28969 22.0139 -8.94963
35 1 9.43453 6.28969 22.0139 -8.94963
3 1 3.14484 -2.25327e-16 22.0139 -8.94963
11 1 15.7242 4.20892e-16 22.0139 -8.94963
17 1 3.14484 3.14484 22.0139 -8.94963
23 1 12.5794 3.14484 22.0139 -8.94963
29 1 2.0974e-08 6.28969 22.0139 -8.94963
180 1 14.1518 1.57242 11.007 -8.94963
187 1 14.1518 4.71727 11.007 -8.94979
344 1 1.57242 11.007 1.57242 -8.94963
345 1 4.71726 11.007 1.57242 -8.94963
346 1 7.86211 11.007 1.57242 -8.94973
347 1 11.007 11.007 1.57242 -8.94963
348 1 14.1518 11.007 1.57242 -8.94963
349 1 17.2966 11.007 1.57242 -8.94963
350 1 20.4415 11.007 1.57242 -8.94963
511 1 18.8691 18.8691 9.43453 -8.94963
352 1 1.57242 14.1518 1.57242 -8.94963
510 1 15.7242 18.8691 9.43453 -8.94964
354 1 4.71726 14.1518 1.57242 -8.94963
355 1 6.28968 12.5794 9.15088e-06 -8.94968
356 1 7.86211 14.1518 1.57242 -8.94963
357 1 9.43453 12.5794 6.30214e-06 -8.94964
358 1 11.007 14.1518 1.57242 -8.94963
359 1 12.5794 12.5794 -8.79096e-08 -8.94964
360 1 14.1518 14.1518 1.57242 -8.94963
509 1 12.5794 18.8691 9.43452 -8.94962
362 1 17.2966 14.1518 1.57242 -8.94963
508 1 9.43453 18.8691 9.43453 -8.94964
364 1 20.4415 14.1518 1.57242 -8.94963
539 1 20.4415 20.4415 11.007 -8.94963
366 1 1.57242 17.2966 1.57242 -8.94963
367 1 3.14484 15.7242 4.99584e-07 -8.94963
368 1 4.71726 17.2966 1.57242 -8.94963
507 1 6.28968 18.8691 9.43452 -8.94964
370 1 7.86211 17.2966 1.57242 -8.94963
506 1 3.14484 18.8691 9.43453 -8.94964
372 1 11.007 17.2966 1.57242 -8.94963
373 1 12.5794 15.7242 4.51798e-07 -8.94963
374 1 14.1518 17.2966 1.57242 -8.94963
375 1 15.7242 15.7242 -1.02283e-08 -8.94963
376 1 17.2966 17.2966 1.57242 -8.94963
377 1 18.8691 15.7242 -6.87119e-10 -8.94963
378 1 20.4415 17.2966 1.57242 -8.94963
379 1 22.0139 18.8691 4.68934e-09 -8.94963
380 1 1.57242 20.4415 1.57242 -8.94963
538 1 17.2966 20.4415 11.007 -8.94963
382 1 4.71726 20.4415 1.57242 -8.94963
505 1 1.8147e-08 18.8691 9.43453 -8.94963
384 1 7.86211 20.4415 1.57242 -8.94963
504 1 18.8691 15.7242 9.43453 -8.94963
386 1 11.007 20.4415 1.57242 -8.94963
536 1 11.007 20.4415 11.0069 -8.94968
388 1 14.1518 20.4415 1.57242 -8.94963
389 1 15.7242 18.8691 1.2551e-08 -8.94963
390 1 17.2966 20.4415 1.57242 -8.94963
391 1 18.8691 18.8691 -3.40117e-11 -8.94963
392 1 20.4415 20.4415 1.57242 -8.94963
393 1 1.57242 11.007 4.71726 -8.94964
394 1 4.71726 11.007 4.71726 -8.94962
395 1 7.86211 11.007 4.71708 -8.95091
396 1 11.0069 11.007 4.71726 -8.94968
397 1 14.1518 11.007 4.71726 -8.94963
398 1 17.2966 11.007 4.71726 -8.94963
399 1 20.4415 11.007 4.71726 -8.94963
400 1 22.0139 12.5794 3.14484 -8.94963
401 1 1.57242 14.1518 4.71727 -8.94964
402 1 3.14484 12.5794 3.14484 -8.94963
403 1 4.71726 14.1518 4.71725 -8.94962
404 1 6.28968 12.5794 3.14483 -8.94968
405 1 7.86211 14.1518 4.71727 -8.94964
406 1 9.43453 12.5794 3.14484 -8.94964
407 1 11.007 14.1518 4.71725 -8.94964
408 1 12.5794 12.5794 3.14484 -8.94964
409 1 14.1518 14.1518 4.71726 -8.94964
410 1 15.7242 12.5794 3.14484 -8.94963
411 1 17.2966 14.1518 4.71726 -8.94963
412 1 18.8691 12.5794 3.14484 -8.94963
413 1 20.4415 14.1518 4.71726 -8.94963
414 1 2.0974e-08 15.7242 3.14484 -8.94963
415 1 1.57242 17.2966 4.71726 -8.94963
416 1 3.14484 15.7242 3.14484 -8.94963
417 1 4.71726 17.2966 4.71727 -8.94964
418 1 6.28969 15.7242 3.14484 -8.94963
419 1 7.86211 17.2966 4.71726 -8.94963
420 1 9.43453 15.7242 3.14484 -8.94963
421 1 11.007 17.2966 4.71727 -8.94963
422 1 12.5794 15.7242 3.14484 -8.94963
423 1 14.1518 17.2966 4.71726 -8.94963
424 1 15.7242 15.7242 3.14484 -8.94963
425 1 17.2966 17.2966 4.71726 -8.94963
426 1 18.8691 15.7242 3.14484 -8.94963
427 1 20.4415 17.2966 4.71726 -8.94963
428 1 22.0139 18.8691 3.14484 -8.94963
429 1 1.57242 20.4415 4.71726 -8.94963
430 1 3.14484 18.8691 3.14484 -8.94963
431 1 4.71726 20.4415 4.71726 -8.94963
432 1 6.28969 18.8691 3.14484 -8.94963
433 1 7.86211 20.4415 4.71726 -8.94963
434 1 9.43453 18.8691 3.14484 -8.94963
435 1 11.007 20.4415 4.71726 -8.94963
436 1 12.5794 18.8691 3.14484 -8.94963
437 1 14.1518 20.4415 4.71726 -8.94963
438 1 15.7242 18.8691 3.14484 -8.94963
439 1 17.2966 20.4415 4.71726 -8.94963
440 1 18.8691 18.8691 3.14484 -8.94963
441 1 20.4415 20.4415 4.71726 -8.94963
442 1 1.57242 11.007 7.86211 -8.94961
443 1 4.71725 11.007 7.86208 -8.95146
444 1 7.86199 11.007 7.85722 -8.97204
445 1 11.0069 11.007 7.86204 -8.9512
446 1 14.1518 11.007 7.86212 -8.94965
447 1 17.2966 11.007 7.86211 -8.94963
448 1 20.4415 11.007 7.86211 -8.94963
449 1 3.39577e-07 12.5794 6.28969 -8.94963
450 1 1.57241 14.1518 7.8621 -8.94965
451 1 3.14485 12.5794 6.28969 -8.94979
452 1 4.71702 14.152 7.86186 -8.94718
453 1 6.28957 12.5795 6.28942 -8.95011
454 1 7.86216 14.1517 7.86208 -8.95131
455 1 9.43463 12.5795 6.28954 -8.94908
456 1 11.007 14.1519 7.86187 -8.95029
457 1 12.5794 12.5794 6.28968 -8.9497
458 1 14.1518 14.1518 7.86211 -8.94972
459 1 15.7242 12.5794 6.28969 -8.94964
460 1 17.2966 14.1518 7.86211 -8.94963
461 1 18.8691 12.5794 6.28969 -8.94963
462 1 20.4415 14.1518 7.86211 -8.94963
463 1 22.0139 15.7242 6.28969 -8.94963
464 1 1.57242 17.2966 7.86211 -8.94964
465 1 3.14483 15.7242 6.28968 -8.94952
466 1 4.71726 17.2966 7.8621 -8.94964
467 1 6.28969 15.7242 6.2897 -8.94981
468 1 7.86211 17.2966 7.86211 -8.94965
469 1 9.43453 15.7242 6.28969 -8.94965
470 1 11.0069 17.2966 7.86212 -8.94981
471 1 12.5794 15.7242 6.28967 -8.94964
472 1 14.1518 17.2966 7.8621 -8.94952
473 1 15.7242 15.7242 6.28969 -8.94964
474 1 17.2966 17.2966 7.86211 -8.94963
475 1 18.8691 15.7242 6.28969 -8.94963
476 1 20.4415 17.2966 7.86211 -8.94963
477 1 22.0139 18.8691 6.28969 -8.94963
478 1 1.57242 20.4415 7.86211 -8.94963
479 1 3.14484 18.8691 6.28969 -8.94963
480 1 4.71726 20.4415 7.86211 -8.94963
481 1 6.28969 18.8691 6.28969 -8.94963
482 1 7.86211 20.4415 7.86211 -8.94963
483 1 9.43453 18.8691 6.28969 -8.94963
484 1 11.007 20.4415 7.86211 -8.94963
485 1 12.5794 18.8691 6.28969 -8.94964
486 1 14.1518 20.4415 7.86211 -8.94963
487 1 15.7242 18.8691 6.28969 -8.94963
488 1 17.2966 20.4415 7.86211 -8.94963
489 1 18.8691 18.8691 6.28969 -8.94963
490 1 20.4415 20.4415 7.86211 -8.94963
491 1 22.0139 12.5794 9.43453 -8.94968
492 1 3.14462 12.5794 9.43447 -8.95052
493 1 6.28443 12.5846 9.42952 -8.90368
494 1 9.4363 12.5813 9.43336 -8.93606
495 1 12.5796 12.5795 9.43437 -8.94909
496 1 15.7242 12.5794 9.43452 -8.94964
497 1 18.8691 12.5794 9.43453 -8.94964
498 1 22.0139 15.7242 9.43453 -8.94963
499 1 3.14484 15.7242 9.43452 -8.94972
500 1 6.2896 15.7245 9.43445 -8.95029
501 1 9.43447 15.7242 9.43458 -8.95131
502 1 12.5796 15.7245 9.43428 -8.94718
503 1 15.7242 15.7242 9.43452 -8.94965
512 1 1.57232 11.007 11.007 -8.95035
513 1 4.71434 11.007 11.0065 -8.96192
514 1 7.80392 11.007 10.8826 -8.01694
515 1 11.0103 11.007 11.0038 -8.90934
516 1 14.152 11.007 11.0069 -8.94971
517 1 17.2966 11.007 11.0069 -8.94967
518 1 20.4415 11.007 11.007 -8.94966
519 1 1.57241 14.1518 11.0069 -8.94964
520 1 4.71705 14.1519 11.0069 -8.94909
521 1 7.86034 14.153 11.005 -8.93606
522 1 11.0122 14.1568 11.0017 -8.90368
523 1 14.152 14.1519 11.0069 -8.95052
524 1 17.2966 14.1518 11.0069 -8.94968
525 1 20.4415 14.1518 11.007 -8.94964
527 1 4.71726 17.2966 11.007 -8.9497
528 1 7.86201 17.2968 11.0068 -8.94908
529 1 11.0071 17.2969 11.0068 -8.95011
535 1 7.8621 20.4415 11.0069 -8.94964
534 1 4.71726 20.4415 11.007 -8.94964
351 1 22.0139 12.5794 2.39019e-08 -8.94963
385 1 9.43453 18.8691 1.15427e-08 -8.94963
383 1 6.28969 18.8691 2.24683e-08 -8.94963
363 1 18.8691 12.5794 2.81277e-09 -8.94963
687 3 8.64832 11.007 12.5794 3.21517
686 1 20.4415 20.4415 20.4415 -8.94963
685 1 18.8691 18.8691 18.8691 -8.94963
684 1 17.2966 20.4415 20.4415 -8.94963
683 1 15.7242 18.8691 18.8691 -8.94963
682 1 14.1518 20.4415 20.4415 -8.94963
681 1 12.5794 18.8691 18.8691 -8.94964
680 1 11.007 20.4415 20.4415 -8.94963
679 1 9.43453 18.8691 18.8691 -8.94963
678 1 7.86211 20.4415 20.4415 -8.94963
677 1 6.28969 18.8691 18.8691 -8.94963
676 1 4.71726 20.4415 20.4415 -8.94963
675 1 3.14484 18.8691 18.8691 -8.94963
674 1 1.57242 20.4415 20.4415 -8.94963
526 1 1.57242 17.2966 11.007 -8.94964
673 1 22.0139 18.8691 18.8691 -8.94963
672 1 20.4415 17.2966 20.4415 -8.94963
671 1 18.8691 15.7242 18.8691 -8.94963
670 1 17.2966 17.2966 20.4415 -8.94963
531 1 17.2966 17.2966 11.007 -8.94963
532 1 20.4415 17.2966 11.007 -8.94963
533 1 1.57242 20.4415 11.007 -8.94963
669 1 15.7242 15.7242 18.8691 -8.94964
668 1 14.1518 17.2966 20.4415 -8.94963
667 1 12.5794 15.7242 18.8691 -8.94964
666 1 11.007 17.2966 20.4415 -8.94963
665 1 9.43453 15.7242 18.8691 -8.94965
664 1 7.86211 17.2966 20.4415 -8.94963
540 1 1.57232 11.007 14.1518 -8.95035
541 1 4.71434 11.007 14.1522 -8.96192
542 1 7.80392 11.007 14.2761 -8.01694
543 1 11.0103 11.007 14.1549 -8.90934
544 1 14.152 11.007 14.1519 -8.94971
545 1 17.2966 11.007 14.1518 -8.94967
546 1 20.4415 11.007 14.1518 -8.94966
547 1 22.0139 12.5794 12.5794 -8.94967
548 1 1.57241 14.1518 14.1518 -8.94964
549 1 3.14459 12.5795 12.5794 -8.94971
550 1 4.71705 14.1519 14.1519 -8.94909
551 1 6.28629 12.5825 12.5794 -8.90934
552 1 7.86034 14.153 14.1537 -8.93606
553 1 9.49271 12.7037 12.5794 -8.01694
554 1 11.0122 14.1568 14.157 -8.90368
555 1 12.5823 12.5798 12.5794 -8.96192
556 1 14.152 14.1519 14.1519 -8.95052
557 1 15.7243 12.5794 12.5794 -8.95035
558 1 17.2966 14.1518 14.1518 -8.94968
559 1 18.8691 12.5794 12.5794 -8.94966
560 1 20.4415 14.1518 14.1518 -8.94964
561 1 5.29687e-07 15.7242 12.5794 -8.94963
562 1 1.57242 17.2966 14.1518 -8.94964
563 1 3.14485 15.7242 12.5794 -8.94965
564 1 4.71726 17.2966 14.1518 -8.9497
565 1 6.28975 15.7243 12.5794 -8.9512
566 1 7.86201 17.2968 14.1519 -8.94908
567 1 9.43464 15.7291 12.5794 -8.97204
568 1 11.0071 17.2969 14.1519 -8.95011
569 1 12.5794 15.7242 12.5794 -8.95146
570 1 14.1518 17.2966 14.1518 -8.94979
571 1 15.7242 15.7242 12.5794 -8.94961
572 1 17.2966 17.2966 14.1518 -8.94963
573 1 18.8691 15.7242 12.5794 -8.94963
574 1 20.4415 17.2966 14.1518 -8.94963
575 1 22.0139 18.8691 12.5794 -8.94963
576 1 1.57242 20.4415 14.1518 -8.94963
577 1 3.14484 18.8691 12.5794 -8.94963
578 1 4.71726 20.4415 14.1518 -8.94964
579 1 6.28969 18.8691 12.5794 -8.94968
580 1 7.8621 20.4415 14.1518 -8.94964
581 1 9.43453 18.8692 12.5794 -8.95091
582 1 11.007 20.4415 14.1518 -8.94968
583 1 12.5794 18.8691 12.5794 -8.94962
584 1 14.1518 20.4415 14.1518 -8.94963
585 1 15.7242 18.8691 12.5794 -8.94964
586 1 17.2966 20.4415 14.1518 -8.94963
587 1 18.8691 18.8691 12.5794 -8.94963
588 1 20.4415 20.4415 14.1518 -8.94963
589 1 1.57242 11.007 17.2966 -8.94961
590 1 4.71725 11.007 17.2967 -8.95146
591 1 7.86199 11.007 17.3015 -8.97204
592 1 11.0069 11.007 17.2967 -8.9512
593 1 14.1518 11.007 17.2966 -8.94965
594 1 17.2966 11.007 17.2966 -8.94963
595 1 20.4415 11.007 17.2966 -8.94963
596 1 22.0139 12.5794 15.7242 -8.94968
597 1 1.57241 14.1518 17.2966 -8.94965
598 1 3.14462 12.5794 15.7243 -8.95052
599 1 4.71702 14.152 17.2969 -8.94718
600 1 6.28443 12.5846 15.7292 -8.90368
601 1 7.86216 14.1517 17.2967 -8.95131
602 1 9.4363 12.5813 15.7254 -8.93606
603 1 11.007 14.1519 17.2969 -8.95029
604 1 12.5796 12.5795 15.7244 -8.94909
605 1 14.1518 14.1518 17.2966 -8.94972
606 1 15.7242 12.5794 15.7242 -8.94964
607 1 17.2966 14.1518 17.2966 -8.94963
608 1 18.8691 12.5794 15.7242 -8.94964
609 1 20.4415 14.1518 17.2966 -8.94963
610 1 22.0139 15.7242 15.7242 -8.94963
611 1 1.57242 17.2966 17.2966 -8.94964
612 1 3.14484 15.7242 15.7242 -8.94972
613 1 4.71726 17.2966 17.2966 -8.94964
614 1 6.2896 15.7245 15.7243 -8.95029
615 1 7.86211 17.2966 17.2966 -8.94965
616 1 9.43447 15.7242 15.7242 -8.95131
617 1 11.0069 17.2966 17.2966 -8.94981
618 1 12.5796 15.7245 15.7245 -8.94718
619 1 14.1518 17.2966 17.2966 -8.94952
620 1 15.7242 15.7242 15.7242 -8.94965
621 1 17.2966 17.2966 17.2966 -8.94963
622 1 18.8691 15.7242 15.7242 -8.94963
623 1 20.4415 17.2966 17.2966 -8.94963
624 1 1.8147e-08 18.8691 15.7242 -8.94963
625 1 1.57242 20.4415 17.2966 -8.94963
626 1 3.14484 18.8691 15.7242 -8.94964
627 1 4.71726 20.4415 17.2966 -8.94963
628 1 6.28968 18.8691 15.7242 -8.94964
629 1 7.86211 20.4415 17.2966 -8.94963
630 1 9.43453 18.8691 15.7242 -8.94964
631 1 11.007 20.4415 17.2966 -8.94963
632 1 12.5794 18.8691 15.7242 -8.94962
633 1 14.1518 20.4415 17.2966 -8.94963
634 1 15.7242 18.8691 15.7242 -8.94964
635 1 17.2966 20.4415 17.2966 -8.94963
636 1 18.8691 18.8691 15.7242 -8.94963
637 1 20.4415 20.4415 17.2966 -8.94963
638 1 1.57242 11.007 20.4415 -8.94964
639 1 4.71726 11.007 20.4415 -8.94962
640 1 7.86211 11.007 20.4417 -8.95091
641 1 11.0069 11.007 20.4415 -8.94968
642 1 14.1518 11.007 20.4415 -8.94963
643 1 17.2966 11.007 20.4415 -8.94963
644 1 20.4415 11.007 20.4415 -8.94963
645 1 3.39577e-07 12.5794 18.8691 -8.94963
646 1 1.57242 14.1518 20.4415 -8.94964
647 1 3.14485 12.5794 18.869 -8.94979
648 1 4.71726 14.1518 20.4415 -8.94962
649 1 6.28957 12.5795 18.8693 -8.95011
650 1 7.86211 14.1518 20.4415 -8.94964
651 1 9.43463 12.5795 18.8692 -8.94908
652 1 11.007 14.1518 20.4415 -8.94964
653 1 12.5794 12.5794 18.8691 -8.9497
654 1 14.1518 14.1518 20.4415 -8.94964
655 1 15.7242 12.5794 18.8691 -8.94964
656 1 17.2966 14.1518 20.4415 -8.94963
657 1 18.8691 12.5794 18.8691 -8.94963
658 1 20.4415 14.1518 20.4415 -8.94963
659 1 22.0139 15.7242 18.8691 -8.94963
660 1 1.57242 17.2966 20.4415 -8.94963
661 1 3.14483 15.7242 18.8691 -8.94952
662 1 4.71726 17.2966 20.4415 -8.94964
663 1 6.28969 15.7242 18.869 -8.94981
371 1 9.43453 15.7242 22.0139 -8.94963
353 1 3.14484 12.5794 22.0139 -8.94963
361 1 15.7242 12.5794 22.0139 -8.94963
369 1 6.28969 15.7242 22.0139 -8.94963
365 1 2.0974e-08 15.7242 22.0139 -8.94963
381 1 3.14484 18.8691 22.0139 -8.94963
387 1 12.5794 18.8691 22.0139 -8.94963
537 1 14.1518 20.4415 11.007 -8.94963
530 1 14.1518 17.2966 11.007 -8.94979
