ITEM: TIMESTEP
112
ITEM: NUMBER OF ATOMS
687
ITEM: BOX BOUNDS pp pp pp
0.0000000000000000e+00 2.2013900999999997e+01
0.0000000000000000e+00 2.2013900999999997e+01
0.0000000000000000e+00 2.2013900999999997e+01
ITEM: ATOMS id type x y z c_pot
1 1 22.0135 -6.15751e-11 0.000288061 -8.94935
2 1 1.57195 1.57202 1.57242 -8.94956
196 1 20.4415 7.86178 11.007 -8.94991
4 1 4.71698 1.57203 1.57242 -8.94949
5 1 6.28949 -9.60094e-11 0.000336598 -8.9495
6 1 7.86206 1.57205 1.57242 -8.94952
175 1 18.869 9.43457 9.4342 -8.94991
8 1 11.0071 1.57208 1.57242 -8.9495
9 1 12.5797 -1.41991e-10 0.000392437 -8.94949
10 1 14.1522 1.57213 1.57242 -8.94954
195 1 17.2993 7.86161 11.0066 -8.95182
12 1 17.297 1.57213 1.57242 -8.94935
13 1 18.8693 -1.25611e-10 0.000251675 -8.94922
14 1 20.4412 1.57217 1.57242 -8.94922
15 1 22.0132 3.14412 0.000401273 -8.94914
16 1 1.57139 4.71624 1.57242 -8.94951
194 1 14.1623 7.85778 11.0044 -8.95827
18 1 4.71677 4.71629 1.57242 -8.9496
174 1 15.7256 9.43516 9.43399 -8.94981
20 1 7.86215 4.71639 1.57242 -8.94955
173 1 12.5825 9.43666 9.43398 -8.95296
22 1 11.0074 4.71656 1.57242 -8.94954
193 1 11.0478 7.82453 10.9736 -8.85443
24 1 14.1524 4.71677 1.57242 -8.95008
25 1 15.7249 3.14424 0.000661809 -8.94947
26 1 17.2968 4.71708 1.57242 -8.94971
27 1 18.8691 3.14451 0.00033075 -8.94956
28 1 20.441 4.71685 1.57242 -8.9495
192 1 7.84741 7.85391 10.9825 -8.90431
30 1 1.57116 7.86143 1.57242 -8.94936
31 1 3.14343 6.2883 0.00134729 -8.95
32 1 4.71648 7.86137 1.57242 -8.95068
172 1 9.44923 9.41009 9.42633 -8.90431
34 1 7.86229 7.8616 1.57242 -8.95031
171 1 6.24885 9.40115 9.39695 -8.85443
36 1 11.0072 7.86207 1.57242 -8.95044
37 1 12.58 6.28921 0.00111934 -8.95073
38 1 14.1521 7.8622 1.57242 -8.94954
39 1 15.7246 6.28962 0.000433676 -8.94974
40 1 17.2967 7.86204 1.57242 -8.94952
41 1 18.8688 6.28945 0.000301863 -8.9495
42 1 20.4409 7.86182 1.57242 -8.9495
170 1 3.13436 9.432 9.4302 -8.95827
169 1 22.0113 9.43422 9.43403 -8.95182
45 1 6.2892 9.43431 0.00175684 -8.95147
46 1 9.43458 9.43464 0.000508689 -8.94943
47 1 12.5797 9.43469 0.000330872 -8.94935
168 1 18.8702 6.28907 9.43406 -8.95026
167 1 15.729 6.28727 9.43222 -8.95091
50 1 22.0135 -6.15751e-11 3.14455 -8.94935
51 1 1.57171 1.57176 4.71666 -8.94947
52 1 3.14447 -5.75472e-11 3.14455 -8.94954
53 1 4.71679 1.5718 4.71662 -8.94948
54 1 6.28949 -9.60101e-11 3.14451 -8.9495
55 1 7.86196 1.57185 4.71651 -8.94949
56 1 9.43458 -1.56519e-10 3.14447 -8.94952
57 1 11.0072 1.57188 4.71645 -8.94945
58 1 12.5797 -1.41991e-10 3.14445 -8.94949
59 1 14.1525 1.57188 4.71637 -8.9496
60 1 15.7247 -1.39791e-10 3.14444 -8.94956
61 1 17.2974 1.57202 4.71654 -8.94914
62 1 18.8693 -1.25611e-10 3.14459 -8.94922
63 1 20.4415 1.57209 4.71693 -8.94956
64 1 22.0132 3.14412 3.14444 -8.94914
65 1 1.57059 4.71546 4.71578 -8.94821
66 1 3.14417 3.14395 3.1443 -8.9496
67 1 4.71617 4.71552 4.71555 -8.94963
68 1 6.28944 3.14403 3.1443 -8.94945
69 1 7.86196 4.71576 4.71562 -8.94935
70 1 9.43467 3.14409 3.14428 -8.94949
71 1 11.0076 4.71592 4.71555 -8.94913
72 1 12.5798 3.1442 3.14422 -8.94948
73 1 14.1533 4.71592 4.71519 -8.94943
74 1 15.7249 3.14424 3.14418 -8.94947
75 1 17.2972 4.71685 4.7165 -8.94987
76 1 18.8691 3.14451 3.14451 -8.94956
77 1 20.4409 4.71661 4.71667 -8.94955
78 1 -0.00102382 6.28899 3.14432 -8.94944
79 1 1.57031 7.86097 4.71555 -8.94917
80 1 3.14343 6.2883 3.1435 -8.95
81 1 4.71491 7.86012 4.71313 -8.95156
82 1 6.28935 6.2886 3.14359 -8.94975
83 1 7.8621 7.86077 4.71424 -8.95066
84 1 9.4349 6.28876 3.14374 -8.94967
85 1 11.0074 7.86162 4.7149 -8.95256
86 1 12.58 6.28921 3.14372 -8.95073
87 1 14.1523 7.86227 4.7164 -8.94964
88 1 15.7246 6.28962 3.14441 -8.94974
89 1 17.2968 7.86201 4.71668 -8.94942
90 1 18.8688 6.28945 3.14454 -8.9495
91 1 20.4406 7.86169 4.71658 -8.94943
92 1 22.0127 9.43425 3.14426 -8.94946
93 1 3.14313 9.43395 3.14339 -8.9494
94 1 6.2892 9.43431 3.14309 -8.95147
95 1 9.43458 9.43464 3.14433 -8.94943
96 1 12.5797 9.43469 3.14451 -8.94935
97 1 15.7245 9.43454 3.14449 -8.94954
98 1 18.8688 9.43444 3.14452 -8.94953
99 1 22.0137 5.19697e-10 6.28951 -8.94971
100 1 1.57206 1.57199 7.86204 -8.94974
101 1 3.14421 -4.30407e-10 6.28919 -8.95008
102 1 4.71659 1.5713 7.86163 -8.95073
103 1 6.28926 -6.10022e-10 6.28898 -8.94954
104 1 7.86173 1.57132 7.86118 -8.94967
105 1 9.43449 -8.26886e-10 6.28881 -8.94955
106 1 11.0073 1.57117 7.86102 -8.94975
107 1 12.5799 -9.5922e-10 6.28871 -8.9496
108 1 14.1532 1.57107 7.86073 -8.95
109 1 15.7252 -1.57789e-09 6.28867 -8.94951
110 1 17.2977 1.5719 7.86141 -8.94944
111 1 18.8696 -1.46346e-10 6.28928 -8.9495
112 1 20.4417 1.57212 7.86187 -8.9495
113 1 22.0134 3.14407 6.28927 -8.94987
114 1 1.57103 4.71589 7.86159 -8.95045
115 1 3.14331 3.14276 6.28834 -8.94943
116 1 4.7139 4.71221 7.85894 -8.94983
117 1 6.28904 3.14313 6.28834 -8.94913
118 1 7.86145 4.71354 7.85913 -8.9477
119 1 9.43468 3.1432 6.28819 -8.94935
120 1 11.0087 4.71307 7.85891 -8.94915
121 1 12.5805 3.14313 6.28794 -8.94963
122 1 14.1567 4.71273 7.85748 -8.94453
123 1 15.726 3.14336 6.28788 -8.94821
124 1 17.2986 4.71607 7.8608 -8.9497
125 1 18.8697 3.14425 6.28903 -8.94955
126 1 20.4415 4.71662 7.86173 -8.94989
127 1 22.012 6.28838 6.28849 -8.9497
128 1 1.56759 7.8598 7.85969 -8.95091
129 1 3.13995 6.28506 6.28516 -8.94453
130 1 4.70367 7.84978 7.84892 -8.92998
131 1 6.28792 6.28649 6.28549 -8.94915
132 1 7.86094 7.8564 7.85266 -8.95089
133 1 9.43518 6.28671 6.28596 -8.9477
134 1 11.0135 7.85476 7.85129 -8.9531
135 1 12.5827 6.28651 6.28463 -8.94983
136 1 14.1544 7.86178 7.8603 -8.95169
137 1 15.7256 6.28917 6.28831 -8.95045
138 1 17.2974 7.86208 7.86144 -8.94989
139 1 18.869 6.2893 6.28904 -8.94989
140 1 20.4404 7.86164 7.86149 -8.95026
141 1 -0.00223019 9.43401 6.28829 -8.94928
142 1 3.14017 9.43291 6.28534 -8.94759
143 1 6.28601 9.43297 6.28113 -8.95928
144 1 9.43377 9.43421 6.28809 -8.95185
145 1 12.5798 9.43515 6.28897 -8.94887
146 1 15.7249 9.43454 6.28875 -8.94898
147 1 18.8687 9.43439 6.28896 -8.94956
148 1 -5.34369e-05 2.40857e-12 9.43446 -8.94952
149 1 3.14451 2.37104e-09 9.43462 -8.94954
150 1 6.28943 -1.04959e-09 9.43449 -8.95044
151 1 9.43435 -3.4416e-09 9.43402 -8.95031
152 1 12.5802 -5.29004e-09 9.43379 -8.95068
153 1 15.7255 -1.3183e-09 9.43385 -8.94936
154 1 18.8697 -1.76494e-10 9.43425 -8.9495
155 1 -0.000170256 3.14426 9.43443 -8.94942
156 1 3.1443 3.14398 9.43469 -8.94964
157 1 6.2892 3.14248 9.43404 -8.95256
158 1 9.43454 3.14181 9.43319 -8.95066
159 1 12.5817 3.14071 9.43254 -8.95156
160 1 15.7263 3.14313 9.43339 -8.94917
161 1 18.8699 3.14415 9.43412 -8.94943
162 1 22.0131 6.28902 9.4345 -8.94989
163 1 3.14227 6.28788 9.4342 -8.95169
164 1 6.2831 6.27886 9.42718 -8.9531
165 1 9.4357 6.28023 9.42882 -8.95089
166 1 12.593 6.2765 9.4222 -8.92998
177 1 4.71695 1.57209 11.0071 -8.94935
178 1 7.86205 1.57191 11.0071 -8.94943
179 1 11.0074 1.57066 11.0067 -8.95147
191 1 4.71414 7.86156 11.0091 -8.95296
181 1 17.2978 1.57184 11.0067 -8.94946
182 1 20.4418 1.5721 11.0069 -8.94953
184 1 4.71688 4.71655 11.0076 -8.94887
185 1 7.86287 4.71566 11.0066 -8.95185
186 1 11.0106 4.70871 11.0054 -8.95928
190 1 1.57105 7.86156 11.0076 -8.94981
19 1 6.28944 3.14403 0.000546157 -8.94945
49 1 18.8688 9.43444 0.000319315 -8.94953
21 1 9.43467 3.14409 0.000567921 -8.94949
43 1 22.0127 9.43425 0.000579536 -8.94946
176 1 1.57213 1.57207 11.007 -8.94954
343 1 18.8687 9.43439 18.8698 -8.94956
342 1 15.7249 9.43454 18.87 -8.94898
341 1 12.5798 9.43515 18.8698 -8.94887
340 1 9.43377 9.43421 18.8707 -8.95185
339 1 6.28601 9.43297 18.8776 -8.95928
338 1 3.14017 9.43291 18.8734 -8.94759
183 1 1.57172 4.71633 11.007 -8.94898
337 1 -0.00223019 9.43401 18.8705 -8.94928
336 1 20.4406 7.86169 20.4422 -8.94943
335 1 18.869 6.2893 18.8697 -8.94989
334 1 17.2968 7.86201 20.4421 -8.94942
188 1 17.2989 4.71587 11.0064 -8.94928
189 1 20.4418 4.71654 11.0068 -8.94956
333 1 15.7256 6.28917 18.8704 -8.95045
332 1 14.1523 7.86227 20.4423 -8.94964
331 1 12.5827 6.28651 18.8741 -8.94983
330 1 11.0074 7.86162 20.4438 -8.95256
329 1 9.43518 6.28671 18.8728 -8.9477
328 1 7.8621 7.86077 20.4445 -8.95066
327 1 6.28792 6.28649 18.8733 -8.94915
197 1 -4.37441e-05 1.49915e-10 12.5794 -8.94956
198 1 1.57213 1.57207 14.1518 -8.94954
199 1 3.14449 1.22061e-09 12.5794 -8.94965
200 1 4.71695 1.57209 14.1516 -8.94935
201 1 6.2894 3.34999e-09 12.5794 -8.94912
202 1 7.86205 1.57191 14.1517 -8.94943
203 1 9.43443 -5.83979e-09 12.5794 -8.94848
204 1 11.0074 1.57066 14.152 -8.95147
205 1 12.5805 -5.6689e-09 12.5794 -8.95038
206 1 14.1535 1.57097 14.1524 -8.9494
207 1 15.7256 -1.49823e-09 12.5794 -8.94945
208 1 17.2978 1.57184 14.1521 -8.94946
209 1 18.8697 -2.30472e-10 12.5794 -8.94952
210 1 20.4418 1.5721 14.1519 -8.94953
211 1 22.0138 3.14425 12.5794 -8.94955
212 1 1.57172 4.71633 14.1518 -8.94898
213 1 3.14434 3.14411 12.5794 -8.94963
214 1 4.71688 4.71655 14.1512 -8.94887
215 1 6.28963 3.14485 12.5794 -8.94819
216 1 7.86287 4.71566 14.1521 -8.95185
217 1 9.43496 3.14401 12.5794 -8.94632
218 1 11.0106 4.70871 14.1534 -8.95928
219 1 12.5824 3.14056 12.5794 -8.94959
220 1 14.1565 4.71292 14.1534 -8.94759
221 1 15.7265 3.14306 12.5794 -8.94944
222 1 17.2989 4.71587 14.1523 -8.94928
223 1 18.87 3.14411 12.5794 -8.94949
224 1 20.4418 4.71654 14.1519 -8.94956
225 1 -0.000463415 6.28884 12.5794 -8.94956
226 1 1.57105 7.86156 14.1512 -8.94981
227 1 3.14348 6.28811 12.5794 -8.94647
228 1 4.71414 7.86156 14.1497 -8.95296
229 1 6.29194 6.29218 12.5794 -8.94507
230 1 7.84741 7.85391 14.1762 -8.90431
231 1 9.43995 6.29312 12.5794 -9.00326
232 1 11.0478 7.82453 14.1852 -8.85443
233 1 12.5907 6.2789 12.5794 -8.94205
234 1 14.1623 7.85778 14.1543 -8.95827
235 1 15.7293 6.28682 12.5794 -8.94905
236 1 17.2993 7.86161 14.1521 -8.95182
237 1 18.8705 6.28887 12.5794 -8.94999
238 1 20.4415 7.86178 14.1518 -8.94991
239 1 22.0137 9.43429 12.5794 -8.94759
240 1 3.14773 9.43518 12.5794 -8.93981
241 1 6.31281 9.44436 12.5794 -8.90234
242 1 9.5116 9.2025 12.5794 -8.12177
243 1 12.5867 9.42652 12.5794 -8.97287
244 1 15.7264 9.43474 12.5794 -8.95105
245 1 18.8696 9.4346 12.5794 -8.94933
246 1 -5.34369e-05 2.40869e-12 15.7243 -8.94952
247 1 1.57206 1.57199 17.2967 -8.94974
248 1 3.14451 2.37104e-09 15.7241 -8.94954
249 1 4.71659 1.5713 17.2971 -8.95073
250 1 6.28943 -1.04959e-09 15.7243 -8.95044
251 1 7.86173 1.57132 17.2976 -8.94967
252 1 9.43435 -3.4416e-09 15.7247 -8.95031
253 1 11.0073 1.57117 17.2977 -8.94975
254 1 12.5802 -5.29004e-09 15.725 -8.95068
255 1 14.1532 1.57107 17.298 -8.95
256 1 15.7255 -1.3183e-09 15.7249 -8.94936
257 1 17.2977 1.5719 17.2973 -8.94944
258 1 18.8697 -1.76493e-10 15.7245 -8.9495
259 1 20.4417 1.57212 17.2969 -8.9495
260 1 -0.000170256 3.14426 15.7243 -8.94942
261 1 1.57103 4.71589 17.2971 -8.95045
262 1 3.1443 3.14398 15.7241 -8.94964
263 1 4.7139 4.71221 17.2998 -8.94983
264 1 6.2892 3.14248 15.7247 -8.95256
265 1 7.86145 4.71354 17.2996 -8.9477
266 1 9.43454 3.14181 15.7256 -8.95066
267 1 11.0087 4.71307 17.2998 -8.94915
268 1 12.5817 3.14071 15.7262 -8.95156
269 1 14.1567 4.71273 17.3013 -8.94453
270 1 15.7263 3.14313 15.7254 -8.94917
271 1 17.2986 4.71607 17.2979 -8.9497
272 1 18.8699 3.14415 15.7246 -8.94943
273 1 20.4415 4.71662 17.297 -8.94989
274 1 22.0131 6.28902 15.7242 -8.94989
275 1 1.56759 7.8598 17.2991 -8.95091
276 1 3.14227 6.28788 15.7245 -8.95169
277 1 4.70367 7.84978 17.3098 -8.92998
278 1 6.2831 6.27886 15.7316 -8.9531
279 1 7.86094 7.8564 17.3061 -8.95089
280 1 9.4357 6.28023 15.7299 -8.95089
281 1 11.0135 7.85476 17.3075 -8.9531
282 1 12.593 6.2765 15.7365 -8.92998
283 1 14.1544 7.86178 17.2984 -8.95169
284 1 15.729 6.28727 15.7265 -8.95091
285 1 17.2974 7.86208 17.2973 -8.94989
286 1 18.8702 6.28907 15.7247 -8.95026
287 1 20.4404 7.86164 17.2972 -8.95026
288 1 22.0113 9.43422 15.7247 -8.95182
289 1 3.13436 9.432 15.7285 -8.95827
290 1 6.24885 9.40115 15.7618 -8.85443
291 1 9.44923 9.41009 15.7324 -8.90431
292 1 12.5825 9.43666 15.7248 -8.95296
293 1 15.7256 9.43516 15.7248 -8.94981
294 1 18.869 9.43457 15.7245 -8.94991
295 1 22.0137 5.19697e-10 18.8692 -8.94971
296 1 1.57171 1.57176 20.4421 -8.94947
297 1 3.14421 -4.30406e-10 18.8696 -8.95008
298 1 4.71679 1.5718 20.4421 -8.94948
299 1 6.28926 -6.10021e-10 18.8698 -8.94954
300 1 7.86196 1.57185 20.4422 -8.94949
301 1 9.43449 -8.26887e-10 18.8699 -8.94955
302 1 11.0072 1.57188 20.4423 -8.94945
303 1 12.5799 -9.5922e-10 18.87 -8.9496
304 1 14.1525 1.57188 20.4424 -8.9496
305 1 15.7252 -1.57789e-09 18.8701 -8.94951
306 1 17.2974 1.57202 20.4422 -8.94914
307 1 18.8696 -1.46346e-10 18.8695 -8.9495
308 1 20.4415 1.57209 20.4418 -8.94956
309 1 22.0134 3.14407 18.8695 -8.94987
310 1 1.57059 4.71546 20.443 -8.94821
311 1 3.14331 3.14276 18.8704 -8.94943
312 1 4.71617 4.71552 20.4432 -8.94963
313 1 6.28904 3.14313 18.8704 -8.94913
314 1 7.86196 4.71576 20.4431 -8.94935
315 1 9.43468 3.1432 18.8706 -8.94935
316 1 11.0076 4.71592 20.4432 -8.94913
317 1 12.5805 3.14313 18.8708 -8.94963
318 1 14.1533 4.71592 20.4436 -8.94943
319 1 15.726 3.14336 18.8709 -8.94821
320 1 17.2972 4.71685 20.4422 -8.94987
321 1 18.8697 3.14425 18.8697 -8.94955
322 1 20.4409 4.71661 20.4421 -8.94955
323 1 22.012 6.28838 18.8703 -8.9497
324 1 1.57031 7.86097 20.4432 -8.94917
325 1 3.13995 6.28506 18.8736 -8.94453
326 1 4.71491 7.86012 20.4456 -8.95156
7 1 9.43458 -1.56518e-10 22.0143 -8.94952
48 1 15.7245 9.43454 22.0143 -8.94954
44 1 3.14313 9.43395 22.0154 -8.9494
33 1 6.28935 6.2886 22.0152 -8.94975
35 1 9.4349 6.28876 22.015 -8.94967
3 1 3.14447 -5.75465e-11 22.0142 -8.94954
11 1 15.7247 -1.39792e-10 22.0143 -8.94956
17 1 3.14417 3.14395 22.0144 -8.9496
23 1 12.5798 3.1442 22.0145 -8.94948
29 1 -0.00102382 6.28899 22.0144 -8.94944
180 1 14.1535 1.57097 11.0064 -8.9494
187 1 14.1565 4.71292 11.0053 -8.94759
344 1 1.57107 11.007 1.57242 -8.94945
345 1 4.71611 11.007 1.57242 -8.95038
346 1 7.86221 11.007 1.57242 -8.94848
347 1 11.0072 11.007 1.57242 -8.94912
348 1 14.1521 11.007 1.57242 -8.94965
349 1 17.2967 11.007 1.57242 -8.94956
350 1 20.4408 11.007 1.57242 -8.94952
511 1 18.8699 18.8697 9.43412 -8.94943
352 1 1.57116 14.1525 1.57242 -8.94936
510 1 15.7263 18.8708 9.43339 -8.94917
354 1 4.71648 14.1525 1.57242 -8.95068
355 1 6.2892 12.5796 0.00175684 -8.95147
356 1 7.86229 14.1523 1.57242 -8.95031
357 1 9.43458 12.5793 0.000508688 -8.94943
358 1 11.0072 14.1518 1.57242 -8.95044
359 1 12.5797 12.5792 0.000330869 -8.94935
360 1 14.1521 14.1517 1.57242 -8.94954
509 1 12.5817 18.8732 9.43254 -8.95156
362 1 17.2967 14.1519 1.57242 -8.94952
508 1 9.43454 18.8721 9.43319 -8.95066
364 1 20.4409 14.1521 1.57242 -8.9495
539 1 20.4418 20.4418 11.0069 -8.94953
366 1 1.57139 17.2977 1.57242 -8.94951
367 1 3.14343 15.7256 0.00134729 -8.95
368 1 4.71677 17.2976 1.57242 -8.9496
507 1 6.2892 18.8714 9.43404 -8.95256
370 1 7.86215 17.2975 1.57242 -8.94955
506 1 3.1443 18.8699 9.43469 -8.94964
372 1 11.0074 17.2973 1.57242 -8.94954
373 1 12.58 15.7247 0.00111934 -8.95073
374 1 14.1524 17.2971 1.57242 -8.95008
375 1 15.7246 15.7243 0.000433675 -8.94974
376 1 17.2968 17.2968 1.57242 -8.94971
377 1 18.8688 15.7245 0.000301863 -8.9495
378 1 20.441 17.297 1.57242 -8.9495
379 1 22.0132 18.8698 0.000401273 -8.94914
380 1 1.57195 20.4419 1.57242 -8.94956
538 1 17.2978 20.4421 11.0067 -8.94946
382 1 4.71698 20.4419 1.57242 -8.94949
505 1 -0.000170258 18.8696 9.43443 -8.94942
384 1 7.86206 20.4419 1.57242 -8.94952
504 1 18.8702 15.7248 9.43406 -8.95026
386 1 11.0071 20.4418 1.57242 -8.9495
536 1 11.0074 20.4432 11.0067 -8.95147
388 1 14.1522 20.4418 1.57242 -8.94954
389 1 15.7249 18.8697 0.000661807 -8.94947
390 1 17.297 20.4418 1.57242 -8.94935
391 1 18.8691 18.8694 0.00033075 -8.94956
392 1 20.4412 20.4417 1.57242 -8.94922
393 1 1.57017 11.007 4.71548 -8.94944
394 1 4.71422 11.007 4.71298 -8.94959
395 1 7.86167 11.007 4.71643 -8.94632
396 1 11.007 11.007 4.71727 -8.94819
397 1 14.1523 11.007 4.71653 -8.94963
398 1 17.2967 11.007 4.71667 -8.94955
399 1 20.4406 11.007 4.71653 -8.94949
400 1 22.0127 12.5797 3.14426 -8.94946
401 1 1.57031 14.1529 4.71555 -8.94917
402 1 3.14313 12.5799 3.14339 -8.9494
403 1 4.71491 14.1538 4.71313 -8.95156
404 1 6.2892 12.5796 3.14309 -8.95147
405 1 7.8621 14.1531 4.71424 -8.95066
406 1 9.43458 12.5793 3.14433 -8.94943
407 1 11.0074 14.1523 4.7149 -8.95256
408 1 12.5797 12.5792 3.14451 -8.94935
409 1 14.1523 14.1516 4.7164 -8.94964
410 1 15.7245 12.5794 3.14449 -8.94954
411 1 17.2968 14.1519 4.71668 -8.94942
412 1 18.8688 12.5795 3.14452 -8.94953
413 1 20.4406 14.1522 4.71658 -8.94943
414 1 -0.00102382 15.7249 3.14432 -8.94944
415 1 1.57059 17.2984 4.71578 -8.94821
416 1 3.14343 15.7256 3.1435 -8.95
417 1 4.71617 17.2984 4.71555 -8.94963
418 1 6.28935 15.7253 3.14359 -8.94975
419 1 7.86196 17.2981 4.71562 -8.94935
420 1 9.4349 15.7251 3.14374 -8.94967
421 1 11.0076 17.298 4.71555 -8.94913
422 1 12.58 15.7247 3.14372 -8.95073
423 1 14.1533 17.298 4.71519 -8.94943
424 1 15.7246 15.7243 3.14441 -8.94974
425 1 17.2972 17.2971 4.7165 -8.94987
426 1 18.8688 15.7245 3.14454 -8.9495
427 1 20.4409 17.2973 4.71667 -8.94955
428 1 22.0132 18.8698 3.14444 -8.94914
429 1 1.57171 20.4421 4.71666 -8.94947
430 1 3.14417 18.87 3.1443 -8.9496
431 1 4.71679 20.4421 4.71662 -8.94948
432 1 6.28944 18.8699 3.1443 -8.94945
433 1 7.86196 20.442 4.71651 -8.94949
434 1 9.43467 18.8698 3.14428 -8.94949
435 1 11.0072 20.442 4.71645 -8.94945
436 1 12.5798 18.8697 3.14422 -8.94948
437 1 14.1525 20.442 4.71637 -8.9496
438 1 15.7249 18.8697 3.14418 -8.94947
439 1 17.2974 20.4419 4.71654 -8.94914
440 1 18.8691 18.8694 3.14451 -8.94956
441 1 20.4415 20.4418 4.71693 -8.94956
442 1 1.56731 11.007 7.85924 -8.94905
443 1 4.70592 11.007 7.85132 -8.94205
444 1 7.85668 11.007 7.86554 -9.00326
445 1 11.0047 11.007 7.86461 -8.94507
446 1 14.1532 11.007 7.86053 -8.94647
447 1 17.2971 11.007 7.86126 -8.94956
448 1 20.4401 11.007 7.86129 -8.94999
449 1 -0.00223019 12.5799 6.28829 -8.94928
450 1 1.56759 14.1541 7.85969 -8.95091
451 1 3.14017 12.581 6.28534 -8.94759
452 1 4.70367 14.1641 7.84892 -8.92998
453 1 6.28601 12.5809 6.28113 -8.95928
454 1 7.86094 14.1575 7.85266 -8.95089
455 1 9.43377 12.5797 6.28809 -8.95185
456 1 11.0135 14.1591 7.85129 -8.9531
457 1 12.5798 12.5787 6.28897 -8.94887
458 1 14.1544 14.1521 7.8603 -8.95169
459 1 15.7249 12.5794 6.28875 -8.94898
460 1 17.2974 14.1518 7.86144 -8.94989
461 1 18.8687 12.5795 6.28896 -8.94956
462 1 20.4404 14.1523 7.86149 -8.95026
463 1 22.012 15.7255 6.28849 -8.9497
464 1 1.57103 17.298 7.86159 -8.95045
465 1 3.13995 15.7288 6.28516 -8.94453
466 1 4.7139 17.3017 7.85894 -8.94983
467 1 6.28792 15.7274 6.28549 -8.94915
468 1 7.86145 17.3004 7.85913 -8.9477
469 1 9.43518 15.7272 6.28596 -8.9477
470 1 11.0087 17.3008 7.85891 -8.94915
471 1 12.5827 15.7274 6.28463 -8.94983
472 1 14.1567 17.3012 7.85748 -8.94453
473 1 15.7256 15.7247 6.28831 -8.95045
474 1 17.2986 17.2978 7.8608 -8.9497
475 1 18.869 15.7246 6.28904 -8.94989
476 1 20.4415 17.2973 7.86173 -8.94989
477 1 22.0134 18.8698 6.28927 -8.94987
478 1 1.57206 20.4419 7.86204 -8.94974
479 1 3.14331 18.8711 6.28834 -8.94943
480 1 4.71659 20.4426 7.86163 -8.95073
481 1 6.28904 18.8708 6.28834 -8.94913
482 1 7.86173 20.4426 7.86118 -8.94967
483 1 9.43468 18.8707 6.28819 -8.94935
484 1 11.0073 20.4427 7.86102 -8.94975
485 1 12.5805 18.8708 6.28794 -8.94963
486 1 14.1532 20.4428 7.86073 -8.95
487 1 15.726 18.8705 6.28788 -8.94821
488 1 17.2977 20.442 7.86141 -8.94944
489 1 18.8697 18.8697 6.28903 -8.94955
490 1 20.4417 20.4418 7.86187 -8.9495
491 1 22.0113 12.5797 9.43403 -8.95182
492 1 3.13436 12.5819 9.4302 -8.95827
493 1 6.24885 12.6128 9.39695 -8.85443
494 1 9.44923 12.6038 9.42633 -8.90431
495 1 12.5825 12.5772 9.43398 -8.95296
496 1 15.7256 12.5787 9.43399 -8.94981
497 1 18.869 12.5793 9.4342 -8.94991
498 1 22.0131 15.7249 9.4345 -8.94989
499 1 3.14227 15.726 9.4342 -8.95169
500 1 6.2831 15.735 9.42718 -8.9531
501 1 9.4357 15.7337 9.42882 -8.95089
502 1 12.593 15.7374 9.4222 -8.92998
503 1 15.729 15.7266 9.43222 -8.95091
512 1 1.57024 11.007 11.0072 -8.95105
513 1 4.70992 11.007 10.9989 -8.97287
514 1 7.78503 11.007 10.7749 -8.12177
515 1 10.9838 11.007 11.0168 -8.90234
516 1 14.1489 11.007 11.0076 -8.93981
517 1 17.2968 11.007 11.0067 -8.94759
518 1 20.4409 11.007 11.007 -8.94933
519 1 1.57105 14.1523 11.0076 -8.94981
520 1 4.71414 14.1523 11.0091 -8.95296
521 1 7.84741 14.16 10.9825 -8.90431
522 1 11.0478 14.1894 10.9736 -8.85443
523 1 14.1623 14.1561 11.0044 -8.95827
524 1 17.2993 14.1523 11.0066 -8.95182
525 1 20.4415 14.1521 11.007 -8.94991
527 1 4.71688 17.2974 11.0076 -8.94887
528 1 7.86287 17.2982 11.0066 -8.95185
529 1 11.0106 17.3052 11.0054 -8.95928
535 1 7.86205 20.442 11.0071 -8.94943
534 1 4.71695 20.4418 11.0071 -8.94935
351 1 22.0127 12.5797 0.000579536 -8.94946
385 1 9.43467 18.8698 0.00056792 -8.94949
383 1 6.28944 18.8699 0.000546156 -8.94945
363 1 18.8688 12.5795 0.000319315 -8.94953
687 3 8.64832 11.007 12.5794 2.30849
686 1 20.4415 20.4418 20.4418 -8.94956
685 1 18.8697 18.8697 18.8697 -8.94955
684 1 17.2974 20.4419 20.4422 -8.94914
683 1 15.726 18.8705 18.8709 -8.94821
682 1 14.1525 20.442 20.4424 -8.9496
681 1 12.5805 18.8708 18.8708 -8.94963
680 1 11.0072 20.442 20.4423 -8.94945
679 1 9.43468 18.8707 18.8706 -8.94935
678 1 7.86196 20.442 20.4422 -8.94949
677 1 6.28904 18.8708 18.8704 -8.94913
676 1 4.71679 20.4421 20.4421 -8.94948
675 1 3.14331 18.8711 18.8704 -8.94943
674 1 1.57171 20.4421 20.4421 -8.94947
526 1 1.57172 17.2976 11.007 -8.94898
673 1 22.0134 18.8698 18.8695 -8.94987
672 1 20.4409 17.2973 20.4421 -8.94955
671 1 18.869 15.7246 18.8697 -8.94989
670 1 17.2972 17.2971 20.4422 -8.94987
531 1 17.2989 17.298 11.0064 -8.94928
532 1 20.4418 17.2974 11.0068 -8.94956
533 1 1.57213 20.4418 11.007 -8.94954
669 1 15.7256 15.7247 18.8704 -8.95045
668 1 14.1533 17.298 20.4436 -8.94943
667 1 12.5827 15.7274 18.8741 -8.94983
666 1 11.0076 17.298 20.4432 -8.94913
665 1 9.43518 15.7272 18.8728 -8.9477
664 1 7.86196 17.2981 20.4431 -8.94935
540 1 1.57024 11.007 14.1516 -8.95105
541 1 4.70992 11.007 14.1598 -8.97287
542 1 7.78503 11.007 14.3838 -8.12177
543 1 10.9838 11.007 14.142 -8.90234
544 1 14.1489 11.007 14.1511 -8.93981
545 1 17.2968 11.007 14.152 -8.94759
546 1 20.4409 11.007 14.1517 -8.94933
547 1 22.0137 12.5796 12.5794 -8.94759
548 1 1.57105 14.1523 14.1512 -8.94981
549 1 3.14773 12.5787 12.5794 -8.93981
550 1 4.71414 14.1523 14.1497 -8.95296
551 1 6.31281 12.5695 12.5794 -8.90234
552 1 7.84741 14.16 14.1762 -8.90431
553 1 9.5116 12.8114 12.5794 -8.12177
554 1 11.0478 14.1894 14.1852 -8.85443
555 1 12.5867 12.5874 12.5794 -8.97287
556 1 14.1623 14.1561 14.1543 -8.95827
557 1 15.7264 12.5792 12.5794 -8.95105
558 1 17.2993 14.1523 14.1521 -8.95182
559 1 18.8696 12.5793 12.5794 -8.94933
560 1 20.4415 14.1521 14.1518 -8.94991
561 1 -0.000463429 15.7251 12.5794 -8.94956
562 1 1.57172 17.2976 14.1518 -8.94898
563 1 3.14348 15.7258 12.5794 -8.94647
564 1 4.71688 17.2974 14.1512 -8.94887
565 1 6.29194 15.7217 12.5794 -8.94507
566 1 7.86287 17.2982 14.1521 -8.95185
567 1 9.43995 15.7208 12.5794 -9.00326
568 1 11.0106 17.3052 14.1534 -8.95928
569 1 12.5907 15.735 12.5794 -8.94205
570 1 14.1565 17.301 14.1534 -8.94759
571 1 15.7293 15.7271 12.5794 -8.94905
572 1 17.2989 17.298 14.1523 -8.94928
573 1 18.8705 15.725 12.5794 -8.94999
574 1 20.4418 17.2974 14.1519 -8.94956
575 1 22.0138 18.8697 12.5794 -8.94955
576 1 1.57213 20.4418 14.1518 -8.94954
577 1 3.14434 18.8698 12.5794 -8.94963
578 1 4.71695 20.4418 14.1516 -8.94935
579 1 6.28963 18.8691 12.5794 -8.94819
580 1 7.86205 20.442 14.1517 -8.94943
581 1 9.43496 18.8699 12.5794 -8.94632
582 1 11.0074 20.4432 14.152 -8.95147
583 1 12.5824 18.8733 12.5794 -8.94959
584 1 14.1535 20.4429 14.1524 -8.9494
585 1 15.7265 18.8708 12.5794 -8.94944
586 1 17.2978 20.4421 14.1521 -8.94946
587 1 18.87 18.8698 12.5794 -8.94949
588 1 20.4418 20.4418 14.1519 -8.94953
589 1 1.56731 11.007 17.2995 -8.94905
590 1 4.70592 11.007 17.3074 -8.94205
591 1 7.85668 11.007 17.2932 -9.00326
592 1 11.0047 11.007 17.2941 -8.94507
593 1 14.1532 11.007 17.2982 -8.94647
594 1 17.2971 11.007 17.2975 -8.94956
595 1 20.4401 11.007 17.2974 -8.94999
596 1 22.0113 12.5797 15.7247 -8.95182
597 1 1.56759 14.1541 17.2991 -8.95091
598 1 3.13436 12.5819 15.7285 -8.95827
599 1 4.70367 14.1641 17.3098 -8.92998
600 1 6.24885 12.6128 15.7618 -8.85443
601 1 7.86094 14.1575 17.3061 -8.95089
602 1 9.44923 12.6038 15.7324 -8.90431
603 1 11.0135 14.1591 17.3075 -8.9531
604 1 12.5825 12.5772 15.7248 -8.95296
605 1 14.1544 14.1521 17.2984 -8.95169
606 1 15.7256 12.5787 15.7248 -8.94981
607 1 17.2974 14.1518 17.2973 -8.94989
608 1 18.869 12.5793 15.7245 -8.94991
609 1 20.4404 14.1523 17.2972 -8.95026
610 1 22.0131 15.7249 15.7242 -8.94989
611 1 1.57103 17.298 17.2971 -8.95045
612 1 3.14227 15.726 15.7245 -8.95169
613 1 4.7139 17.3017 17.2998 -8.94983
614 1 6.2831 15.735 15.7316 -8.9531
615 1 7.86145 17.3004 17.2996 -8.9477
616 1 9.4357 15.7337 15.7299 -8.95089
617 1 11.0087 17.3008 17.2998 -8.94915
618 1 12.593 15.7374 15.7365 -8.92998
619 1 14.1567 17.3012 17.3013 -8.94453
620 1 15.729 15.7266 15.7265 -8.95091
621 1 17.2986 17.2978 17.2979 -8.9497
622 1 18.8702 15.7248 15.7247 -8.95026
623 1 20.4415 17.2973 17.297 -8.94989
624 1 -0.000170258 18.8696 15.7243 -8.94942
625 1 1.57206 20.4419 17.2967 -8.94974
626 1 3.1443 18.8699 15.7241 -8.94964
627 1 4.71659 20.4426 17.2971 -8.95073
628 1 6.2892 18.8714 15.7247 -8.95256
629 1 7.86173 20.4426 17.2976 -8.94967
630 1 9.43454 18.8721 15.7256 -8.95066
631 1 11.0073 20.4427 17.2977 -8.94975
632 1 12.5817 18.8732 15.7262 -8.95156
633 1 14.1532 20.4428 17.298 -8.95
634 1 15.7263 18.8708 15.7254 -8.94917
635 1 17.2977 20.442 17.2973 -8.94944
636 1 18.8699 18.8697 15.7246 -8.94943
637 1 20.4417 20.4418 17.2969 -8.9495
638 1 1.57017 11.007 20.4433 -8.94944
639 1 4.71422 11.007 20.4458 -8.94959
640 1 7.86167 11.007 20.4423 -8.94632
641 1 11.007 11.007 20.4415 -8.94819
642 1 14.1523 11.007 20.4422 -8.94963
643 1 17.2967 11.007 20.4421 -8.94955
644 1 20.4406 11.007 20.4422 -8.94949
645 1 -0.00223019 12.5799 18.8705 -8.94928
646 1 1.57031 14.1529 20.4432 -8.94917
647 1 3.14017 12.581 18.8734 -8.94759
648 1 4.71491 14.1538 20.4456 -8.95156
649 1 6.28601 12.5809 18.8776 -8.95928
650 1 7.8621 14.1531 20.4445 -8.95066
651 1 9.43377 12.5797 18.8707 -8.95185
652 1 11.0074 14.1523 20.4438 -8.95256
653 1 12.5798 12.5787 18.8698 -8.94887
654 1 14.1523 14.1516 20.4423 -8.94964
655 1 15.7249 12.5794 18.87 -8.94898
656 1 17.2968 14.1519 20.4421 -8.94942
657 1 18.8687 12.5795 18.8698 -8.94956
658 1 20.4406 14.1522 20.4422 -8.94943
659 1 22.012 15.7255 18.8703 -8.9497
660 1 1.57059 17.2984 20.443 -8.94821
661 1 3.13995 15.7288 18.8736 -8.94453
662 1 4.71617 17.2984 20.4432 -8.94963
663 1 6.28792 15.7274 18.8733 -8.94915
371 1 9.4349 15.7251 22.015 -8.94967
353 1 3.14313 12.5799 22.0154 -8.9494
361 1 15.7245 12.5794 22.0143 -8.94954
369 1 6.28935 15.7253 22.0152 -8.94975
365 1 -0.00102382 15.7249 22.0144 -8.94944
381 1 3.14417 18.87 22.0144 -8.9496
387 1 12.5798 18.8697 22.0145 -8.94948
537 1 14.1535 20.4429 11.0064 -8.9494
530 1 14.1565 17.301 11.0053 -8.94759
