ITEM: TIMESTEP
62
ITEM: NUMBER OF ATOMS
687
ITEM: BOX BOUNDS pp pp pp
0.0000000000000000e+00 2.2013900999999997e+01
0.0000000000000000e+00 2.2013900999999997e+01
0.0000000000000000e+00 2.2013900999999997e+01
ITEM: ATOMS id type x y z c_pot
1 1 22.0139 -2.27952e-16 1.14598e-05 -8.94961
2 1 1.57242 1.57242 1.57242 -8.94967
196 1 20.4414 7.86201 11.0069 -8.94982
4 1 4.71726 1.57241 1.57242 -8.94963
5 1 6.28968 -1.77304e-15 9.73646e-06 -8.94964
6 1 7.86211 1.57241 1.57242 -8.94964
175 1 18.8691 9.43453 9.43443 -8.94982
8 1 11.007 1.57241 1.57242 -8.94964
9 1 12.5794 9.15217e-16 8.51989e-06 -8.94963
10 1 14.1518 1.57242 1.57242 -8.94964
195 1 17.2977 7.86199 11.0068 -8.95109
12 1 17.2966 1.57241 1.57242 -8.94961
13 1 18.8691 4.236e-16 5.1458e-06 -8.9496
14 1 20.4415 1.57242 1.57242 -8.9496
15 1 22.0139 3.1448 2.84321e-05 -8.94951
16 1 1.57235 4.71719 1.57242 -8.94958
194 1 14.1587 7.8601 11.0052 -8.95691
18 1 4.71726 4.71722 1.57242 -8.94962
174 1 15.7251 9.43486 9.4341 -8.94945
20 1 7.86211 4.7172 1.57242 -8.94963
173 1 12.5819 9.43704 9.43374 -8.95171
22 1 11.007 4.7172 1.57242 -8.94958
193 1 11.0423 7.83021 10.9765 -8.85735
24 1 14.1518 4.71721 1.57242 -8.9497
25 1 15.7243 3.1448 5.58372e-05 -8.94958
26 1 17.2966 4.71727 1.57242 -8.94965
27 1 18.8691 3.14484 8.6765e-06 -8.94964
28 1 20.4415 4.71726 1.57242 -8.94965
192 1 7.85033 7.85643 10.9898 -8.91062
30 1 1.57236 7.86209 1.57242 -8.94958
31 1 3.14463 6.28947 0.000301108 -8.94973
32 1 4.71714 7.86197 1.57242 -8.95016
172 1 9.44631 9.41738 9.42885 -8.91062
34 1 7.86217 7.86198 1.57242 -8.94987
171 1 6.25432 9.40406 9.40263 -8.85735
36 1 11.007 7.86204 1.57242 -8.95003
37 1 12.5795 6.28957 0.000275621 -8.95
38 1 14.1518 7.86212 1.57242 -8.94961
39 1 15.7242 6.28969 2.18308e-05 -8.94966
40 1 17.2966 7.8621 1.57242 -8.94962
41 1 18.8691 6.28968 6.92478e-06 -8.94963
42 1 20.4415 7.86211 1.57242 -8.94964
170 1 3.13796 9.43279 9.43252 -8.95691
169 1 22.0128 9.4344 9.43441 -8.95109
45 1 6.28962 9.43444 0.000845375 -8.95099
46 1 9.43466 9.43448 0.000399781 -8.94968
47 1 12.5795 9.43456 0.000127408 -8.94955
168 1 18.8693 6.28959 9.43445 -8.9499
167 1 15.726 6.28889 9.4337 -8.95045
50 1 22.0139 -8.40826e-16 3.14483 -8.94961
51 1 1.57238 1.57237 4.71722 -8.94958
52 1 3.14484 -1.36756e-15 3.14484 -8.94964
53 1 4.71726 1.57239 4.71723 -8.94961
54 1 6.28968 -1.61977e-15 3.14483 -8.94964
55 1 7.86211 1.57238 4.71722 -8.94963
56 1 9.43453 -1.29441e-15 3.14483 -8.94964
57 1 11.007 1.57238 4.71722 -8.94962
58 1 12.5794 7.14429e-16 3.14483 -8.94963
59 1 14.1518 1.57239 4.71723 -8.9497
60 1 15.7242 4.34192e-17 3.14484 -8.94967
61 1 17.2967 1.57239 4.71722 -8.94951
62 1 18.8691 4.97029e-16 3.14484 -8.9496
63 1 20.4415 1.57241 4.71726 -8.94964
64 1 22.0139 3.1448 3.14481 -8.94951
65 1 1.57214 4.71698 4.717 -8.94889
66 1 3.14484 3.14481 3.14481 -8.9497
67 1 4.71722 4.71708 4.71706 -8.94981
68 1 6.28968 3.1448 3.1448 -8.94962
69 1 7.8621 4.71704 4.71699 -8.94956
70 1 9.43453 3.1448 3.1448 -8.94963
71 1 11.007 4.71706 4.717 -8.9494
72 1 12.5794 3.14481 3.14481 -8.94961
73 1 14.152 4.71702 4.71686 -8.94952
74 1 15.7243 3.1448 3.14479 -8.94958
75 1 17.2967 4.71725 4.71723 -8.94972
76 1 18.8691 3.14484 3.14483 -8.94964
77 1 20.4414 4.71723 4.71722 -8.9496
78 1 -3.59596e-05 6.28967 3.14481 -8.94967
79 1 1.57219 7.86202 4.71704 -8.94962
80 1 3.14463 6.28947 3.14454 -8.94973
81 1 4.7166 7.86141 4.71565 -8.95084
82 1 6.2897 6.28954 3.14463 -8.94956
83 1 7.86238 7.86164 4.71607 -8.94985
84 1 9.43459 6.2895 3.14459 -8.94957
85 1 11.0072 7.86191 4.71613 -8.95138
86 1 12.5795 6.28957 3.14457 -8.95
87 1 14.1519 7.86219 4.71711 -8.94965
88 1 15.7242 6.28969 3.14482 -8.94966
89 1 17.2967 7.8621 4.71722 -8.94959
90 1 18.8691 6.28968 3.14484 -8.94963
91 1 20.4414 7.8621 4.71723 -8.9496
92 1 22.0139 9.43452 3.14481 -8.94965
93 1 3.14463 9.43447 3.14457 -8.94947
94 1 6.28962 9.43444 3.144 -8.95099
95 1 9.43466 9.43448 3.14444 -8.94968
96 1 12.5795 9.43456 3.14472 -8.94955
97 1 15.7243 9.43452 3.1448 -8.94961
98 1 18.8691 9.43453 3.14483 -8.94964
99 1 22.0139 1.72229e-15 6.28969 -8.94965
100 1 1.5724 1.5724 7.86212 -8.94966
101 1 3.14479 5.1845e-16 6.28963 -8.9497
102 1 4.71714 1.57215 7.86199 -8.95
103 1 6.28967 1.0859e-15 6.28962 -8.94958
104 1 7.86204 1.57217 7.86192 -8.94957
105 1 9.43453 -6.82048e-16 6.28962 -8.94963
106 1 11.0069 1.57221 7.86196 -8.94956
107 1 12.5794 2.85401e-16 6.28964 -8.94962
108 1 14.152 1.57212 7.86189 -8.94973
109 1 15.7243 1.10428e-15 6.28961 -8.94958
110 1 17.2967 1.57239 7.86209 -8.94967
111 1 18.8691 1.34786e-15 6.28968 -8.94965
112 1 20.4415 1.57241 7.86211 -8.94963
113 1 22.0139 3.14481 6.28968 -8.94972
114 1 1.57225 4.7171 7.8621 -8.95001
115 1 3.1446 3.14444 6.28945 -8.94952
116 1 4.7162 4.71527 7.8611 -8.94994
117 1 6.28965 3.14457 6.28948 -8.9494
118 1 7.86193 4.716 7.86116 -8.94832
119 1 9.43454 3.14457 6.28946 -8.94956
120 1 11.0071 4.71616 7.86127 -8.94958
121 1 12.5794 3.14464 6.2895 -8.94981
122 1 14.1535 4.71559 7.86037 -8.94576
123 1 15.7245 3.14457 6.2894 -8.94889
124 1 17.297 4.71705 7.8619 -8.94962
125 1 18.8691 3.1448 6.28965 -8.9496
126 1 20.4415 4.71722 7.86209 -8.94968
127 1 22.0135 6.28948 6.28948 -8.94962
128 1 1.57064 7.86128 7.86131 -8.95045
129 1 3.14314 6.28795 6.28801 -8.94576
130 1 4.70885 7.85373 7.85383 -8.93172
131 1 6.28959 6.28884 6.28858 -8.94958
132 1 7.86259 7.85954 7.85704 -8.95092
133 1 9.43471 6.28874 6.28842 -8.94832
134 1 11.0105 7.85873 7.85502 -8.95394
135 1 12.5804 6.28868 6.2877 -8.94994
136 1 14.1526 7.86234 7.86152 -8.95091
137 1 15.7244 6.28968 6.28952 -8.95001
138 1 17.2968 7.86213 7.86198 -8.94961
139 1 18.869 6.28967 6.28964 -8.94968
140 1 20.4412 7.86203 7.86201 -8.9499
141 1 -0.000313728 9.43448 6.28949 -8.94946
142 1 3.14363 9.43411 6.28843 -8.94855
143 1 6.28826 9.43349 6.28386 -8.95754
144 1 9.43473 9.43444 6.288 -8.95051
145 1 12.5797 9.43502 6.2892 -8.94938
146 1 15.7244 9.43451 6.28945 -8.94934
147 1 18.8691 9.43452 6.28962 -8.94961
148 1 -1.10317e-05 2.32673e-15 9.43452 -8.94962
149 1 3.14481 2.07442e-15 9.43454 -8.94961
150 1 6.2896 1.46875e-15 9.43446 -8.95003
151 1 9.43446 5.56815e-17 9.4344 -8.94987
152 1 12.5795 -3.6473e-16 9.43439 -8.95016
153 1 15.7243 1.69755e-15 9.43451 -8.94958
154 1 18.8691 1.50846e-15 9.43453 -8.94964
155 1 -3.25384e-05 3.1448 9.43452 -8.94959
156 1 3.14475 3.14469 9.43461 -8.94965
157 1 6.28943 3.14371 9.43434 -8.95138
158 1 9.43425 3.14364 9.43406 -8.94985
159 1 12.58 3.14322 9.43383 -8.95084
160 1 15.7244 3.14462 9.43444 -8.94962
161 1 18.8691 3.14481 9.43452 -8.9496
162 1 22.0137 6.28956 9.43455 -8.94961
163 1 3.14406 6.2891 9.43476 -8.95091
164 1 6.28616 6.2826 9.43115 -8.95394
165 1 9.43405 6.28462 9.43196 -8.95092
166 1 12.5878 6.28141 9.42615 -8.93172
177 1 4.71716 1.57229 11.007 -8.94955
178 1 7.86197 1.57202 11.0069 -8.94968
179 1 11.007 1.57158 11.0069 -8.95099
191 1 4.71476 7.86131 11.0095 -8.95171
181 1 17.2967 1.57239 11.0069 -8.94965
182 1 20.4415 1.57241 11.0069 -8.94964
184 1 4.71696 4.71678 11.0074 -8.94938
185 1 7.8619 4.71558 11.0069 -8.95051
186 1 11.0084 4.71144 11.0059 -8.95754
190 1 1.57153 7.86167 11.0073 -8.94945
19 1 6.28968 3.1448 3.93498e-05 -8.94962
49 1 18.8691 9.43453 9.41643e-06 -8.94964
21 1 9.43453 3.1448 4.13545e-05 -8.94963
43 1 22.0139 9.43452 3.42159e-05 -8.94965
176 1 1.57237 1.57237 11.0069 -8.94961
343 1 18.8691 9.43452 18.8691 -8.94961
342 1 15.7244 9.43451 18.8693 -8.94934
341 1 12.5797 9.43502 18.8695 -8.94938
340 1 9.43473 9.43444 18.8707 -8.95051
339 1 6.28826 9.43349 18.8749 -8.95754
338 1 3.14363 9.43411 18.8703 -8.94855
183 1 1.5722 4.71703 11.0069 -8.94934
337 1 -0.000313728 9.43448 18.8693 -8.94946
336 1 20.4414 7.8621 20.4415 -8.9496
335 1 18.869 6.28967 18.8691 -8.94968
334 1 17.2967 7.8621 20.4415 -8.94959
188 1 17.297 4.71707 11.0069 -8.94946
189 1 20.4415 4.7172 11.0069 -8.94961
333 1 15.7244 6.28968 18.8692 -8.95001
332 1 14.1519 7.86219 20.4416 -8.94965
331 1 12.5804 6.28868 18.871 -8.94994
330 1 11.0072 7.86191 20.4426 -8.95138
329 1 9.43471 6.28874 18.8703 -8.94832
328 1 7.86238 7.86164 20.4427 -8.94985
327 1 6.28959 6.28884 18.8702 -8.94958
197 1 -1.02981e-05 1.78721e-15 12.5794 -8.94963
198 1 1.57237 1.57237 14.1518 -8.94961
199 1 3.14479 2.144e-15 12.5794 -8.94968
200 1 4.71716 1.57229 14.1518 -8.94955
201 1 6.28959 1.7947e-15 12.5794 -8.94951
202 1 7.86197 1.57202 14.1518 -8.94968
203 1 9.43443 5.73314e-16 12.5794 -8.94968
204 1 11.007 1.57158 14.1519 -8.95099
205 1 12.5796 -1.14356e-15 12.5794 -8.94992
206 1 14.152 1.57215 14.1519 -8.94947
207 1 15.7243 1.13368e-15 12.5794 -8.94961
208 1 17.2967 1.57239 14.1518 -8.94965
209 1 18.8691 5.5281e-16 12.5794 -8.94964
210 1 20.4415 1.57241 14.1518 -8.94964
211 1 22.0139 3.14479 12.5794 -8.94965
212 1 1.5722 4.71703 14.1518 -8.94934
213 1 3.14464 3.14455 12.5794 -8.94963
214 1 4.71696 4.71678 14.1513 -8.94938
215 1 6.28946 3.14456 12.5794 -8.94872
216 1 7.8619 4.71558 14.1519 -8.95051
217 1 9.4343 3.1435 12.5794 -8.94827
218 1 11.0084 4.71144 14.1528 -8.95754
219 1 12.5802 3.14321 12.5794 -8.94929
220 1 14.153 4.71601 14.1522 -8.94855
221 1 15.7245 3.14461 12.5794 -8.94964
222 1 17.297 4.71707 14.1518 -8.94946
223 1 18.8691 3.1448 12.5794 -8.94962
224 1 20.4415 4.7172 14.1518 -8.94961
225 1 -0.00026069 6.28945 12.5794 -8.94955
226 1 1.57153 7.86167 14.1515 -8.94945
227 1 3.1439 6.28858 12.5794 -8.94735
228 1 4.71476 7.86131 14.1493 -8.95171
229 1 6.29091 6.29067 12.5794 -8.94713
230 1 7.85033 7.85643 14.1689 -8.91062
231 1 9.43792 6.28914 12.5794 -9.00013
232 1 11.0423 7.83021 14.1823 -8.85735
233 1 12.5854 6.28366 12.5794 -8.94393
234 1 14.1587 7.8601 14.1535 -8.95691
235 1 15.7259 6.28886 12.5794 -8.94908
236 1 17.2977 7.86199 14.1519 -8.95109
237 1 18.8693 6.28956 12.5794 -8.94976
238 1 20.4414 7.86201 14.1518 -8.94982
239 1 22.0134 9.43426 12.5794 -8.94866
240 1 3.14499 9.43404 12.5794 -8.94156
241 1 6.30517 9.44181 12.5794 -8.90038
242 1 9.51611 9.21358 12.5794 -8.10668
243 1 12.5893 9.42946 12.5794 -8.97266
244 1 15.7264 9.43492 12.5794 -8.95166
245 1 18.8694 9.43456 12.5794 -8.94992
246 1 -1.10317e-05 1.93871e-15 15.7242 -8.94962
247 1 1.5724 1.5724 17.2966 -8.94966
248 1 3.14481 2.47443e-15 15.7242 -8.94961
249 1 4.71714 1.57215 17.2968 -8.95
250 1 6.2896 1.32423e-15 15.7243 -8.95003
251 1 7.86204 1.57217 17.2968 -8.94957
252 1 9.43446 4.21335e-16 15.7243 -8.94987
253 1 11.0069 1.57221 17.2968 -8.94956
254 1 12.5795 -8.32074e-16 15.7244 -8.95016
255 1 14.152 1.57212 17.2969 -8.94973
256 1 15.7243 1.84423e-15 15.7242 -8.94958
257 1 17.2967 1.57239 17.2967 -8.94967
258 1 18.8691 1.42088e-15 15.7242 -8.94964
259 1 20.4415 1.57241 17.2966 -8.94963
260 1 -3.25384e-05 3.1448 15.7242 -8.94959
261 1 1.57225 4.7171 17.2966 -8.95001
262 1 3.14475 3.14469 15.7241 -8.94965
263 1 4.7162 4.71527 17.2976 -8.94994
264 1 6.28943 3.14371 15.7244 -8.95138
265 1 7.86193 4.716 17.2976 -8.94832
266 1 9.43425 3.14364 15.7247 -8.94985
267 1 11.0071 4.71616 17.2975 -8.94958
268 1 12.58 3.14322 15.7249 -8.95084
269 1 14.1535 4.71559 17.2984 -8.94576
270 1 15.7244 3.14462 15.7243 -8.94962
271 1 17.297 4.71705 17.2968 -8.94962
272 1 18.8691 3.14481 15.7242 -8.9496
273 1 20.4415 4.71722 17.2967 -8.94968
274 1 22.0137 6.28956 15.7242 -8.94961
275 1 1.57064 7.86128 17.2974 -8.95045
276 1 3.14406 6.2891 15.724 -8.95091
277 1 4.70885 7.85373 17.3049 -8.93172
278 1 6.28616 6.2826 15.7276 -8.95394
279 1 7.86259 7.85954 17.3017 -8.95092
280 1 9.43405 6.28462 15.7268 -8.95092
281 1 11.0105 7.85873 17.3037 -8.95394
282 1 12.5878 6.28141 15.7326 -8.93172
283 1 14.1526 7.86234 17.2972 -8.95091
284 1 15.726 6.28889 15.725 -8.95045
285 1 17.2968 7.86213 17.2968 -8.94961
286 1 18.8693 6.28959 15.7243 -8.9499
287 1 20.4412 7.86203 17.2967 -8.9499
288 1 22.0128 9.4344 15.7243 -8.95109
289 1 3.13796 9.43279 15.7262 -8.95691
290 1 6.25432 9.40406 15.7561 -8.85735
291 1 9.44631 9.41738 15.7299 -8.91062
292 1 12.5819 9.43704 15.725 -8.95171
293 1 15.7251 9.43486 15.7246 -8.94945
294 1 18.8691 9.43453 15.7243 -8.94982
295 1 22.0139 1.51455e-15 18.8691 -8.94965
296 1 1.57238 1.57237 20.4415 -8.94958
297 1 3.14479 6.62264e-16 18.8691 -8.9497
298 1 4.71726 1.57239 20.4415 -8.94961
299 1 6.28967 1.40823e-15 18.8691 -8.94958
300 1 7.86211 1.57238 20.4415 -8.94963
301 1 9.43453 -5.11971e-16 18.8691 -8.94963
302 1 11.007 1.57238 20.4415 -8.94962
303 1 12.5794 2.44277e-16 18.8691 -8.94962
304 1 14.1518 1.57239 20.4415 -8.9497
305 1 15.7243 9.37791e-16 18.8691 -8.94958
306 1 17.2967 1.57239 20.4415 -8.94951
307 1 18.8691 6.36684e-16 18.8691 -8.94965
308 1 20.4415 1.57241 20.4415 -8.94964
309 1 22.0139 3.14481 18.8691 -8.94972
310 1 1.57214 4.71698 20.4417 -8.94889
311 1 3.1446 3.14444 18.8693 -8.94952
312 1 4.71722 4.71708 20.4417 -8.94981
313 1 6.28965 3.14457 18.8693 -8.9494
314 1 7.8621 4.71704 20.4418 -8.94956
315 1 9.43454 3.14457 18.8693 -8.94956
316 1 11.007 4.71706 20.4417 -8.9494
317 1 12.5794 3.14464 18.8692 -8.94981
318 1 14.152 4.71702 20.4419 -8.94952
319 1 15.7245 3.14457 18.8693 -8.94889
320 1 17.2967 4.71725 20.4415 -8.94972
321 1 18.8691 3.1448 18.8691 -8.9496
322 1 20.4414 4.71723 20.4415 -8.9496
323 1 22.0135 6.28948 18.8693 -8.94962
324 1 1.57219 7.86202 20.4417 -8.94962
325 1 3.14314 6.28795 18.8707 -8.94576
326 1 4.7166 7.86141 20.4431 -8.95084
7 1 9.43453 -9.74063e-16 22.0139 -8.94964
48 1 15.7243 9.43452 22.0139 -8.94961
44 1 3.14463 9.43447 22.0142 -8.94947
33 1 6.2897 6.28954 22.0141 -8.94956
35 1 9.43459 6.2895 22.0142 -8.94957
3 1 3.14484 -1.59346e-15 22.0139 -8.94964
11 1 15.7242 4.77308e-16 22.0139 -8.94967
17 1 3.14484 3.14481 22.0139 -8.9497
23 1 12.5794 3.14481 22.0139 -8.94961
29 1 -3.59596e-05 6.28967 22.0139 -8.94967
180 1 14.152 1.57215 11.0069 -8.94947
187 1 14.153 4.71601 11.0065 -8.94855
344 1 1.57235 11.007 1.57242 -8.94961
345 1 4.71708 11.007 1.57242 -8.94992
346 1 7.86221 11.007 1.57242 -8.94968
347 1 11.007 11.007 1.57242 -8.94951
348 1 14.1518 11.007 1.57242 -8.94968
349 1 17.2966 11.007 1.57242 -8.94963
350 1 20.4415 11.007 1.57242 -8.94964
511 1 18.8691 18.8691 9.43452 -8.9496
352 1 1.57236 14.1518 1.57242 -8.94958
510 1 15.7244 18.8693 9.43444 -8.94962
354 1 4.71714 14.1519 1.57242 -8.95016
355 1 6.28962 12.5795 0.000845375 -8.95099
356 1 7.86217 14.1519 1.57242 -8.94987
357 1 9.43466 12.5794 0.000399781 -8.94968
358 1 11.007 14.1519 1.57242 -8.95003
359 1 12.5795 12.5793 0.000127408 -8.94955
360 1 14.1518 14.1518 1.57242 -8.94961
509 1 12.58 18.8707 9.43383 -8.95084
362 1 17.2966 14.1518 1.57242 -8.94962
508 1 9.43425 18.8703 9.43406 -8.94985
364 1 20.4415 14.1518 1.57242 -8.94964
539 1 20.4415 20.4415 11.0069 -8.94964
366 1 1.57235 17.2967 1.57242 -8.94958
367 1 3.14463 15.7244 0.000301108 -8.94973
368 1 4.71726 17.2967 1.57242 -8.94962
507 1 6.28943 18.8702 9.43434 -8.95138
370 1 7.86211 17.2967 1.57242 -8.94963
506 1 3.14475 18.8692 9.43461 -8.94965
372 1 11.007 17.2967 1.57242 -8.94958
373 1 12.5795 15.7243 0.000275621 -8.95
374 1 14.1518 17.2967 1.57242 -8.9497
375 1 15.7242 15.7242 2.18308e-05 -8.94966
376 1 17.2966 17.2966 1.57242 -8.94965
377 1 18.8691 15.7242 6.92478e-06 -8.94963
378 1 20.4415 17.2966 1.57242 -8.94965
379 1 22.0139 18.8691 2.84321e-05 -8.94951
380 1 1.57242 20.4415 1.57242 -8.94967
538 1 17.2967 20.4415 11.0069 -8.94965
382 1 4.71726 20.4415 1.57242 -8.94963
505 1 -3.25384e-05 18.8691 9.43452 -8.94959
384 1 7.86211 20.4415 1.57242 -8.94964
504 1 18.8693 15.7243 9.43445 -8.9499
386 1 11.007 20.4415 1.57242 -8.94964
536 1 11.007 20.4423 11.0069 -8.95099
388 1 14.1518 20.4415 1.57242 -8.94964
389 1 15.7243 18.8691 5.58372e-05 -8.94958
390 1 17.2966 20.4415 1.57242 -8.94961
391 1 18.8691 18.8691 8.6765e-06 -8.94964
392 1 20.4415 20.4415 1.57242 -8.9496
393 1 1.57218 11.007 4.71703 -8.94964
394 1 4.71645 11.007 4.71563 -8.94929
395 1 7.86234 11.007 4.71592 -8.94827
396 1 11.0072 11.007 4.71698 -8.94872
397 1 14.152 11.007 4.71697 -8.94963
398 1 17.2967 11.007 4.71721 -8.94965
399 1 20.4414 11.007 4.71723 -8.94962
400 1 22.0139 12.5794 3.14481 -8.94965
401 1 1.57219 14.1519 4.71704 -8.94962
402 1 3.14463 12.5794 3.14457 -8.94947
403 1 4.7166 14.1525 4.71565 -8.95084
404 1 6.28962 12.5795 3.144 -8.95099
405 1 7.86238 14.1523 4.71607 -8.94985
406 1 9.43466 12.5794 3.14444 -8.94968
407 1 11.0072 14.152 4.71613 -8.95138
408 1 12.5795 12.5793 3.14472 -8.94955
409 1 14.1519 14.1517 4.71711 -8.94965
410 1 15.7243 12.5794 3.1448 -8.94961
411 1 17.2967 14.1518 4.71722 -8.94959
412 1 18.8691 12.5794 3.14483 -8.94964
413 1 20.4414 14.1518 4.71723 -8.9496
414 1 -3.59596e-05 15.7242 3.14481 -8.94967
415 1 1.57214 17.2969 4.717 -8.94889
416 1 3.14463 15.7244 3.14454 -8.94973
417 1 4.71722 17.2968 4.71706 -8.94981
418 1 6.2897 15.7244 3.14463 -8.94956
419 1 7.8621 17.2969 4.71699 -8.94956
420 1 9.43459 15.7244 3.14459 -8.94957
421 1 11.007 17.2968 4.717 -8.9494
422 1 12.5795 15.7243 3.14457 -8.95
423 1 14.152 17.2969 4.71686 -8.94952
424 1 15.7242 15.7242 3.14482 -8.94966
425 1 17.2967 17.2966 4.71723 -8.94972
426 1 18.8691 15.7242 3.14484 -8.94963
427 1 20.4414 17.2967 4.71722 -8.9496
428 1 22.0139 18.8691 3.14481 -8.94951
429 1 1.57238 20.4415 4.71722 -8.94958
430 1 3.14484 18.8691 3.14481 -8.9497
431 1 4.71726 20.4415 4.71723 -8.94961
432 1 6.28968 18.8691 3.1448 -8.94962
433 1 7.86211 20.4415 4.71722 -8.94963
434 1 9.43453 18.8691 3.1448 -8.94963
435 1 11.007 20.4415 4.71722 -8.94962
436 1 12.5794 18.8691 3.14481 -8.94961
437 1 14.1518 20.4415 4.71723 -8.9497
438 1 15.7243 18.8691 3.14479 -8.94958
439 1 17.2967 20.4415 4.71722 -8.94951
440 1 18.8691 18.8691 3.14483 -8.94964
441 1 20.4415 20.4415 4.71726 -8.94964
442 1 1.57075 11.007 7.86129 -8.94908
443 1 4.71124 11.007 7.85608 -8.94393
444 1 7.85872 11.007 7.86156 -9.00013
445 1 11.0057 11.007 7.86309 -8.94713
446 1 14.1527 11.007 7.861 -8.94735
447 1 17.2969 11.007 7.86187 -8.94955
448 1 20.4412 11.007 7.86198 -8.94976
449 1 -0.000313728 12.5794 6.28949 -8.94946
450 1 1.57064 14.1526 7.86131 -8.95045
451 1 3.14363 12.5798 6.28843 -8.94855
452 1 4.70885 14.1602 7.85383 -8.93172
453 1 6.28826 12.5804 6.28386 -8.95754
454 1 7.86259 14.1544 7.85704 -8.95092
455 1 9.43473 12.5795 6.288 -8.95051
456 1 11.0105 14.1552 7.85502 -8.95394
457 1 12.5797 12.5789 6.2892 -8.94938
458 1 14.1526 14.1516 7.86152 -8.95091
459 1 15.7244 12.5794 6.28945 -8.94934
460 1 17.2968 14.1518 7.86198 -8.94961
461 1 18.8691 12.5794 6.28962 -8.94961
462 1 20.4412 14.1519 7.86201 -8.9499
463 1 22.0135 15.7244 6.28948 -8.94962
464 1 1.57225 17.2968 7.8621 -8.95001
465 1 3.14314 15.726 6.28801 -8.94576
466 1 4.7162 17.2986 7.8611 -8.94994
467 1 6.28959 15.7251 6.28858 -8.94958
468 1 7.86193 17.2979 7.86116 -8.94832
469 1 9.43471 15.7252 6.28842 -8.94832
470 1 11.0071 17.2977 7.86127 -8.94958
471 1 12.5804 15.7252 6.2877 -8.94994
472 1 14.1535 17.2983 7.86037 -8.94576
473 1 15.7244 15.7242 6.28952 -8.95001
474 1 17.297 17.2968 7.8619 -8.94962
475 1 18.869 15.7242 6.28964 -8.94968
476 1 20.4415 17.2967 7.86209 -8.94968
477 1 22.0139 18.8691 6.28968 -8.94972
478 1 1.5724 20.4415 7.86212 -8.94966
479 1 3.1446 18.8695 6.28945 -8.94952
480 1 4.71714 20.4418 7.86199 -8.95
481 1 6.28965 18.8693 6.28948 -8.9494
482 1 7.86204 20.4417 7.86192 -8.94957
483 1 9.43454 18.8693 6.28946 -8.94956
484 1 11.0069 20.4417 7.86196 -8.94956
485 1 12.5794 18.8693 6.2895 -8.94981
486 1 14.152 20.4418 7.86189 -8.94973
487 1 15.7245 18.8693 6.2894 -8.94889
488 1 17.2967 20.4415 7.86209 -8.94967
489 1 18.8691 18.8691 6.28965 -8.9496
490 1 20.4415 20.4415 7.86211 -8.94963
491 1 22.0128 12.5795 9.43441 -8.95109
492 1 3.13796 12.5811 9.43252 -8.95691
493 1 6.25432 12.6098 9.40263 -8.85735
494 1 9.44631 12.5965 9.42885 -8.91062
495 1 12.5819 12.5769 9.43374 -8.95171
496 1 15.7251 12.579 9.4341 -8.94945
497 1 18.8691 12.5794 9.43443 -8.94982
498 1 22.0137 15.7243 9.43455 -8.94961
499 1 3.14406 15.7248 9.43476 -8.95091
500 1 6.28616 15.7313 9.43115 -8.95394
501 1 9.43405 15.7293 9.43196 -8.95092
502 1 12.5878 15.7325 9.42615 -8.93172
503 1 15.726 15.725 9.4337 -8.95045
512 1 1.57021 11.007 11.0073 -8.95166
513 1 4.70735 11.007 11.0019 -8.97266
514 1 7.78053 11.007 10.786 -8.10668
515 1 10.9915 11.007 11.0142 -8.90038
516 1 14.1516 11.007 11.0065 -8.94156
517 1 17.2971 11.007 11.0067 -8.94866
518 1 20.4412 11.007 11.007 -8.94992
519 1 1.57153 14.1522 11.0073 -8.94945
520 1 4.71476 14.1526 11.0095 -8.95171
521 1 7.85033 14.1575 10.9898 -8.91062
522 1 11.0423 14.1837 10.9765 -8.85735
523 1 14.1587 14.1538 11.0052 -8.95691
524 1 17.2977 14.1519 11.0068 -8.95109
525 1 20.4414 14.1519 11.0069 -8.94982
527 1 4.71696 17.2971 11.0074 -8.94938
528 1 7.8619 17.2983 11.0069 -8.95051
529 1 11.0084 17.3025 11.0059 -8.95754
535 1 7.86197 20.4419 11.0069 -8.94968
534 1 4.71716 20.4416 11.007 -8.94955
351 1 22.0139 12.5794 3.42159e-05 -8.94965
385 1 9.43453 18.8691 4.13545e-05 -8.94963
383 1 6.28968 18.8691 3.93498e-05 -8.94962
363 1 18.8691 12.5794 9.41643e-06 -8.94964
687 3 8.64832 11.007 12.5794 2.35254
686 1 20.4415 20.4415 20.4415 -8.94964
685 1 18.8691 18.8691 18.8691 -8.9496
684 1 17.2967 20.4415 20.4415 -8.94951
683 1 15.7245 18.8693 18.8693 -8.94889
682 1 14.1518 20.4415 20.4415 -8.9497
681 1 12.5794 18.8693 18.8692 -8.94981
680 1 11.007 20.4415 20.4415 -8.94962
679 1 9.43454 18.8693 18.8693 -8.94956
678 1 7.86211 20.4415 20.4415 -8.94963
677 1 6.28965 18.8693 18.8693 -8.9494
676 1 4.71726 20.4415 20.4415 -8.94961
675 1 3.1446 18.8695 18.8693 -8.94952
674 1 1.57238 20.4415 20.4415 -8.94958
526 1 1.5722 17.2969 11.0069 -8.94934
673 1 22.0139 18.8691 18.8691 -8.94972
672 1 20.4414 17.2967 20.4415 -8.9496
671 1 18.869 15.7242 18.8691 -8.94968
670 1 17.2967 17.2966 20.4415 -8.94972
531 1 17.297 17.2968 11.0069 -8.94946
532 1 20.4415 17.2967 11.0069 -8.94961
533 1 1.57237 20.4415 11.0069 -8.94961
669 1 15.7244 15.7242 18.8692 -8.95001
668 1 14.152 17.2969 20.4419 -8.94952
667 1 12.5804 15.7252 18.871 -8.94994
666 1 11.007 17.2968 20.4417 -8.9494
665 1 9.43471 15.7252 18.8703 -8.94832
664 1 7.8621 17.2969 20.4418 -8.94956
540 1 1.57021 11.007 14.1514 -8.95166
541 1 4.70735 11.007 14.1569 -8.97266
542 1 7.78053 11.007 14.3727 -8.10668
543 1 10.9915 11.007 14.1445 -8.90038
544 1 14.1516 11.007 14.1523 -8.94156
545 1 17.2971 11.007 14.1521 -8.94866
546 1 20.4412 11.007 14.1518 -8.94992
547 1 22.0134 12.5796 12.5794 -8.94866
548 1 1.57153 14.1522 14.1515 -8.94945
549 1 3.14499 12.5799 12.5794 -8.94156
550 1 4.71476 14.1526 14.1493 -8.95171
551 1 6.30517 12.5721 12.5794 -8.90038
552 1 7.85033 14.1575 14.1689 -8.91062
553 1 9.51611 12.8003 12.5794 -8.10668
554 1 11.0423 14.1837 14.1823 -8.85735
555 1 12.5893 12.5844 12.5794 -8.97266
556 1 14.1587 14.1538 14.1535 -8.95691
557 1 15.7264 12.579 12.5794 -8.95166
558 1 17.2977 14.1519 14.1519 -8.95109
559 1 18.8694 12.5793 12.5794 -8.94992
560 1 20.4414 14.1519 14.1518 -8.94982
561 1 -0.00026069 15.7245 12.5794 -8.94955
562 1 1.5722 17.2969 14.1518 -8.94934
563 1 3.1439 15.7253 12.5794 -8.94735
564 1 4.71696 17.2971 14.1513 -8.94938
565 1 6.29091 15.7232 12.5794 -8.94713
566 1 7.8619 17.2983 14.1519 -8.95051
567 1 9.43792 15.7248 12.5794 -9.00013
568 1 11.0084 17.3025 14.1528 -8.95754
569 1 12.5854 15.7302 12.5794 -8.94393
570 1 14.153 17.2979 14.1522 -8.94855
571 1 15.7259 15.725 12.5794 -8.94908
572 1 17.297 17.2968 14.1518 -8.94946
573 1 18.8693 15.7243 12.5794 -8.94976
574 1 20.4415 17.2967 14.1518 -8.94961
575 1 22.0139 18.8691 12.5794 -8.94965
576 1 1.57237 20.4415 14.1518 -8.94961
577 1 3.14464 18.8693 12.5794 -8.94963
578 1 4.71716 20.4416 14.1518 -8.94955
579 1 6.28946 18.8693 12.5794 -8.94872
580 1 7.86197 20.4419 14.1518 -8.94968
581 1 9.4343 18.8704 12.5794 -8.94827
582 1 11.007 20.4423 14.1519 -8.95099
583 1 12.5802 18.8707 12.5794 -8.94929
584 1 14.152 20.4418 14.1519 -8.94947
585 1 15.7245 18.8693 12.5794 -8.94964
586 1 17.2967 20.4415 14.1518 -8.94965
587 1 18.8691 18.8691 12.5794 -8.94962
588 1 20.4415 20.4415 14.1518 -8.94964
589 1 1.57075 11.007 17.2975 -8.94908
590 1 4.71124 11.007 17.3027 -8.94393
591 1 7.85872 11.007 17.2972 -9.00013
592 1 11.0057 11.007 17.2957 -8.94713
593 1 14.1527 11.007 17.2977 -8.94735
594 1 17.2969 11.007 17.2969 -8.94955
595 1 20.4412 11.007 17.2968 -8.94976
596 1 22.0128 12.5795 15.7243 -8.95109
597 1 1.57064 14.1526 17.2974 -8.95045
598 1 3.13796 12.5811 15.7262 -8.95691
599 1 4.70885 14.1602 17.3049 -8.93172
600 1 6.25432 12.6098 15.7561 -8.85735
601 1 7.86259 14.1544 17.3017 -8.95092
602 1 9.44631 12.5965 15.7299 -8.91062
603 1 11.0105 14.1552 17.3037 -8.95394
604 1 12.5819 12.5769 15.725 -8.95171
605 1 14.1526 14.1516 17.2972 -8.95091
606 1 15.7251 12.579 15.7246 -8.94945
607 1 17.2968 14.1518 17.2968 -8.94961
608 1 18.8691 12.5794 15.7243 -8.94982
609 1 20.4412 14.1519 17.2967 -8.9499
610 1 22.0137 15.7243 15.7242 -8.94961
611 1 1.57225 17.2968 17.2966 -8.95001
612 1 3.14406 15.7248 15.724 -8.95091
613 1 4.7162 17.2986 17.2976 -8.94994
614 1 6.28616 15.7313 15.7276 -8.95394
615 1 7.86193 17.2979 17.2976 -8.94832
616 1 9.43405 15.7293 15.7268 -8.95092
617 1 11.0071 17.2977 17.2975 -8.94958
618 1 12.5878 15.7325 15.7326 -8.93172
619 1 14.1535 17.2983 17.2984 -8.94576
620 1 15.726 15.725 15.725 -8.95045
621 1 17.297 17.2968 17.2968 -8.94962
622 1 18.8693 15.7243 15.7243 -8.9499
623 1 20.4415 17.2967 17.2967 -8.94968
624 1 -3.25384e-05 18.8691 15.7242 -8.94959
625 1 1.5724 20.4415 17.2966 -8.94966
626 1 3.14475 18.8692 15.7241 -8.94965
627 1 4.71714 20.4418 17.2968 -8.95
628 1 6.28943 18.8702 15.7244 -8.95138
629 1 7.86204 20.4417 17.2968 -8.94957
630 1 9.43425 18.8703 15.7247 -8.94985
631 1 11.0069 20.4417 17.2968 -8.94956
632 1 12.58 18.8707 15.7249 -8.95084
633 1 14.152 20.4418 17.2969 -8.94973
634 1 15.7244 18.8693 15.7243 -8.94962
635 1 17.2967 20.4415 17.2967 -8.94967
636 1 18.8691 18.8691 15.7242 -8.9496
637 1 20.4415 20.4415 17.2966 -8.94963
638 1 1.57218 11.007 20.4417 -8.94964
639 1 4.71645 11.007 20.4431 -8.94929
640 1 7.86234 11.007 20.4428 -8.94827
641 1 11.0072 11.007 20.4418 -8.94872
642 1 14.152 11.007 20.4418 -8.94963
643 1 17.2967 11.007 20.4415 -8.94965
644 1 20.4414 11.007 20.4415 -8.94962
645 1 -0.000313728 12.5794 18.8693 -8.94946
646 1 1.57219 14.1519 20.4417 -8.94962
647 1 3.14363 12.5798 18.8703 -8.94855
648 1 4.7166 14.1525 20.4431 -8.95084
649 1 6.28826 12.5804 18.8749 -8.95754
650 1 7.86238 14.1523 20.4427 -8.94985
651 1 9.43473 12.5795 18.8707 -8.95051
652 1 11.0072 14.152 20.4426 -8.95138
653 1 12.5797 12.5789 18.8695 -8.94938
654 1 14.1519 14.1517 20.4416 -8.94965
655 1 15.7244 12.5794 18.8693 -8.94934
656 1 17.2967 14.1518 20.4415 -8.94959
657 1 18.8691 12.5794 18.8691 -8.94961
658 1 20.4414 14.1518 20.4415 -8.9496
659 1 22.0135 15.7244 18.8693 -8.94962
660 1 1.57214 17.2969 20.4417 -8.94889
661 1 3.14314 15.726 18.8707 -8.94576
662 1 4.71722 17.2968 20.4417 -8.94981
663 1 6.28959 15.7251 18.8702 -8.94958
371 1 9.43459 15.7244 22.0142 -8.94957
353 1 3.14463 12.5794 22.0142 -8.94947
361 1 15.7243 12.5794 22.0139 -8.94961
369 1 6.2897 15.7244 22.0141 -8.94956
365 1 -3.59596e-05 15.7242 22.0139 -8.94967
381 1 3.14484 18.8691 22.0139 -8.9497
387 1 12.5794 18.8691 22.0139 -8.94961
537 1 14.152 20.4418 11.0069 -8.94947
530 1 14.153 17.2979 11.0065 -8.94855
