ITEM: TIMESTEP
89
ITEM: NUMBER OF ATOMS
687
ITEM: BOX BOUNDS pp pp pp
0.0000000000000000e+00 2.2013900999999997e+01
0.0000000000000000e+00 2.2013900999999997e+01
0.0000000000000000e+00 2.2013900999999997e+01
ITEM: ATOMS id type x y z c_pot
1 1 22.0136 -3.2031e-15 0.000238794 -8.94939
2 1 1.57209 1.57211 1.57242 -8.94959
196 1 20.4415 7.86179 11.007 -8.9499
4 1 4.71708 1.57212 1.57242 -8.94952
5 1 6.28955 -2.09377e-13 0.000278133 -8.94953
6 1 7.86208 1.57212 1.57242 -8.94954
175 1 18.8691 9.43458 9.43421 -8.9499
8 1 11.0071 1.57214 1.57242 -8.94953
9 1 12.5796 -4.27279e-13 0.000306481 -8.94952
10 1 14.152 1.57218 1.57242 -8.94956
195 1 17.2992 7.8617 11.0067 -8.9518
12 1 17.2969 1.57218 1.57242 -8.94939
13 1 18.8692 -4.85846e-15 0.000191328 -8.94927
14 1 20.4413 1.57223 1.57242 -8.94927
15 1 22.0133 3.14425 0.000340466 -8.94917
16 1 1.5716 4.71643 1.57242 -8.94952
194 1 14.1621 7.85804 11.0045 -8.95827
18 1 4.71692 4.71647 1.57242 -8.9496
174 1 15.7256 9.43522 9.43398 -8.94978
20 1 7.86217 4.71652 1.57242 -8.94955
173 1 12.5825 9.43685 9.43402 -8.95295
22 1 11.0073 4.71666 1.57242 -8.94953
193 1 11.0477 7.82484 10.9736 -8.85414
24 1 14.1523 4.71684 1.57242 -8.95006
25 1 15.7248 3.14433 0.000566151 -8.94948
26 1 17.2968 4.71714 1.57242 -8.94971
27 1 18.8691 3.14459 0.000264482 -8.94958
28 1 20.4411 4.71697 1.57242 -8.94953
192 1 7.84742 7.85414 10.9828 -8.90435
30 1 1.57143 7.86157 1.57242 -8.94938
31 1 3.14367 6.2885 0.0012264 -8.95
32 1 4.71667 7.86148 1.57242 -8.95067
172 1 9.44922 9.41039 9.42656 -8.90436
34 1 7.86236 7.86165 1.57242 -8.95027
171 1 6.24892 9.40121 9.39726 -8.85428
36 1 11.0072 7.86208 1.57242 -8.95042
37 1 12.58 6.28927 0.00103704 -8.9507
38 1 14.1521 7.86219 1.57242 -8.94954
39 1 15.7245 6.28966 0.000367078 -8.94974
40 1 17.2967 7.86205 1.57242 -8.94954
41 1 18.8689 6.28952 0.000243801 -8.94951
42 1 20.441 7.86191 1.57242 -8.94953
170 1 3.13449 9.43203 9.43046 -8.95827
169 1 22.0114 9.43423 9.43412 -8.9518
45 1 6.28937 9.43436 0.00168652 -8.95145
46 1 9.43465 9.43466 0.000512952 -8.94943
47 1 12.5797 9.43469 0.00033629 -8.94936
168 1 18.8701 6.28915 9.43411 -8.95024
167 1 15.7288 6.28746 9.43233 -8.9509
50 1 22.0136 -3.21267e-15 3.1446 -8.94939
51 1 1.57183 1.57186 4.71675 -8.94948
52 1 3.14459 -3.82106e-14 3.1446 -8.94956
53 1 4.71691 1.5719 4.71673 -8.94949
54 1 6.28955 -2.09177e-13 3.14456 -8.94953
55 1 7.862 1.57193 4.71663 -8.94951
56 1 9.43456 -4.80503e-13 3.14454 -8.94954
57 1 11.0071 1.57196 4.71659 -8.94946
58 1 12.5796 -4.26962e-13 3.14454 -8.94952
59 1 14.1523 1.57196 4.71654 -8.94962
60 1 15.7245 -1.23017e-13 3.14454 -8.94959
61 1 17.2972 1.57208 4.71668 -8.94917
62 1 18.8692 -4.20569e-15 3.14465 -8.94927
63 1 20.4415 1.57216 4.71701 -8.94958
64 1 22.0133 3.14425 3.1445 -8.94917
65 1 1.57082 4.71567 4.71593 -8.94821
66 1 3.14434 3.14412 3.14438 -8.94962
67 1 4.71639 4.71574 4.71575 -8.94964
68 1 6.28952 3.14417 3.14438 -8.94946
69 1 7.86202 4.71595 4.7158 -8.94936
70 1 9.43464 3.1442 3.14436 -8.94951
71 1 11.0075 4.71609 4.71573 -8.94914
72 1 12.5797 3.14431 3.14432 -8.94949
73 1 14.1532 4.71606 4.71537 -8.94944
74 1 15.7248 3.14433 3.14428 -8.94948
75 1 17.2971 4.71694 4.71663 -8.94986
76 1 18.8691 3.14459 3.14458 -8.94958
77 1 20.441 4.71673 4.71677 -8.94956
78 1 -0.000798841 6.28914 3.1444 -8.94947
79 1 1.57063 7.86113 4.71574 -8.94919
80 1 3.14367 6.2885 3.14362 -8.95
81 1 4.7152 7.86028 4.71337 -8.95155
82 1 6.28948 6.28875 3.14371 -8.94972
83 1 7.86223 7.8609 4.71439 -8.95062
84 1 9.4349 6.28886 3.14382 -8.94965
85 1 11.0074 7.86172 4.71499 -8.95254
86 1 12.58 6.28927 3.14381 -8.9507
87 1 14.1523 7.86231 4.71647 -8.94964
88 1 15.7245 6.28966 3.14448 -8.94974
89 1 17.2968 7.86204 4.71675 -8.94942
90 1 18.8689 6.28952 3.1446 -8.94951
91 1 20.4408 7.86178 4.71668 -8.94945
92 1 22.013 9.43432 3.14435 -8.94948
93 1 3.14343 9.43403 3.14352 -8.9494
94 1 6.28937 9.43436 3.14316 -8.95145
95 1 9.43465 9.43466 3.14433 -8.94943
96 1 12.5797 9.43469 3.14451 -8.94936
97 1 15.7245 9.43453 3.14451 -8.94955
98 1 18.8689 9.43446 3.14457 -8.94955
99 1 22.0138 -8.1556e-14 6.28956 -8.94971
100 1 1.57211 1.57205 7.86208 -8.94974
101 1 3.14431 -7.15379e-14 6.28926 -8.95006
102 1 4.71667 1.57138 7.8617 -8.9507
103 1 6.28933 1.47913e-12 6.28908 -8.94953
104 1 7.86174 1.5714 7.86128 -8.94965
105 1 9.43447 6.14942e-12 6.28894 -8.94955
106 1 11.0072 1.57129 7.86117 -8.94972
107 1 12.5797 5.50683e-12 6.28889 -8.9496
108 1 14.153 1.5712 7.86092 -8.95
109 1 15.725 -4.24049e-13 6.28885 -8.94952
110 1 17.2974 1.57198 7.86156 -8.94947
111 1 18.8694 -1.21671e-13 6.28939 -8.94953
112 1 20.4416 1.57218 7.86194 -8.94951
113 1 22.0135 3.1442 6.28936 -8.94986
114 1 1.57118 4.71604 7.8617 -8.95043
115 1 3.14348 3.14295 6.28848 -8.94944
116 1 4.71411 4.71242 7.85917 -8.94986
117 1 6.28915 3.14331 6.28852 -8.94914
118 1 7.86149 4.71378 7.8594 -8.94773
119 1 9.43462 3.14338 6.28837 -8.94936
120 1 11.0085 4.71339 7.85916 -8.94916
121 1 12.5802 3.14333 6.28816 -8.94964
122 1 14.1564 4.71298 7.8577 -8.94453
123 1 15.7258 3.14351 6.28809 -8.94821
124 1 17.2984 4.7162 7.86095 -8.94969
125 1 18.8696 3.14435 6.28915 -8.94956
126 1 20.4415 4.71673 7.8618 -8.94987
127 1 22.0122 6.28853 6.28863 -8.94969
128 1 1.56785 7.85991 7.85989 -8.9509
129 1 3.14027 6.28528 6.28541 -8.94453
130 1 4.70396 7.84995 7.84925 -8.92997
131 1 6.28816 6.28674 6.28581 -8.94916
132 1 7.86107 7.85669 7.853 -8.95091
133 1 9.43515 6.28698 6.28621 -8.94773
134 1 11.0134 7.85509 7.85149 -8.95316
135 1 12.5825 6.28675 6.28484 -8.94986
136 1 14.1542 7.86195 7.86039 -8.95168
137 1 15.7255 6.28928 6.28846 -8.95043
138 1 17.2974 7.86213 7.8615 -8.94986
139 1 18.869 6.28938 6.28915 -8.94987
140 1 20.4405 7.86169 7.86157 -8.95024
141 1 -0.00194269 9.43407 6.28846 -8.94928
142 1 3.14056 9.43301 6.28565 -8.9476
143 1 6.2863 9.43306 6.28137 -8.95927
144 1 9.43386 9.43434 6.28815 -8.95185
145 1 12.5798 9.43523 6.28898 -8.94889
146 1 15.7249 9.43456 6.28879 -8.94898
147 1 18.8688 9.43441 6.28904 -8.94956
148 1 -0.000107348 1.43584e-13 9.43447 -8.94954
149 1 3.14452 3.16803e-12 9.43461 -8.94954
150 1 6.28943 2.2308e-12 9.4345 -8.95042
151 1 9.43428 -5.0286e-11 9.43408 -8.95027
152 1 12.58 1.13904e-12 9.4339 -8.95067
153 1 15.7252 6.98288e-12 9.43399 -8.94938
154 1 18.8695 -5.32298e-13 9.43433 -8.94953
155 1 -0.000200626 3.14433 9.43446 -8.94942
156 1 3.14434 3.14405 9.43473 -8.94964
157 1 6.28921 3.14257 9.43415 -8.95254
158 1 9.43441 3.14196 9.43333 -8.95062
159 1 12.5814 3.14094 9.4327 -8.95155
160 1 15.726 3.14332 9.43356 -8.94919
161 1 18.8697 3.14426 9.4342 -8.94945
162 1 22.0131 6.28908 9.43455 -8.94986
163 1 3.14241 6.28797 9.43437 -8.95168
164 1 6.28323 6.27907 9.42752 -8.95317
165 1 9.43557 6.28058 9.42911 -8.95091
166 1 12.5927 6.27683 9.42237 -8.92997
177 1 4.71692 1.57209 11.0071 -8.94936
178 1 7.86198 1.57191 11.0071 -8.94943
179 1 11.0073 1.57073 11.0068 -8.95145
191 1 4.71412 7.8616 11.0093 -8.95294
181 1 17.2975 1.57193 11.0067 -8.94948
182 1 20.4416 1.57215 11.0069 -8.94955
184 1 4.71688 4.71656 11.0077 -8.94889
185 1 7.86278 4.71573 11.0068 -8.95185
186 1 11.0103 4.70895 11.0055 -8.95927
190 1 1.57102 7.86155 11.0076 -8.94978
19 1 6.28952 3.14417 0.000463582 -8.94946
49 1 18.8689 9.43446 0.000270844 -8.94955
21 1 9.43464 3.1442 0.000487369 -8.94951
43 1 22.013 9.43432 0.000490485 -8.94948
176 1 1.57209 1.57209 11.007 -8.94955
343 1 18.8688 9.43441 18.8697 -8.94956
342 1 15.7249 9.43456 18.87 -8.94898
341 1 12.5798 9.43523 18.8698 -8.94889
340 1 9.43386 9.43434 18.8706 -8.95185
339 1 6.2863 9.43306 18.8774 -8.95927
338 1 3.14056 9.43301 18.8731 -8.9476
183 1 1.5717 4.71636 11.007 -8.94898
337 1 -0.00194269 9.43407 18.8703 -8.94928
336 1 20.4408 7.86178 20.4421 -8.94945
335 1 18.869 6.28938 18.8696 -8.94987
334 1 17.2968 7.86204 20.442 -8.94942
188 1 17.2986 4.71604 11.0065 -8.94928
189 1 20.4417 4.71662 11.0068 -8.94956
333 1 15.7255 6.28928 18.8703 -8.95043
332 1 14.1523 7.86231 20.4423 -8.94964
331 1 12.5825 6.28675 18.8739 -8.94986
330 1 11.0074 7.86172 20.4438 -8.95254
329 1 9.43515 6.28698 18.8725 -8.94773
328 1 7.86223 7.8609 20.4444 -8.95062
327 1 6.28816 6.28674 18.8729 -8.94916
197 1 -0.000120213 1.89271e-12 12.5794 -8.94958
198 1 1.57209 1.57209 14.1518 -8.94955
199 1 3.14446 -8.34146e-12 12.5794 -8.94966
200 1 4.71692 1.57209 14.1516 -8.94936
201 1 6.28935 -3.17984e-11 12.5794 -8.94913
202 1 7.86198 1.57191 14.1517 -8.94943
203 1 9.43432 -6.25777e-11 12.5794 -8.94849
204 1 11.0073 1.57073 14.152 -8.95145
205 1 12.5803 -7.16016e-11 12.5794 -8.95036
206 1 14.1532 1.5711 14.1523 -8.9494
207 1 15.7253 7.19223e-12 12.5794 -8.94946
208 1 17.2975 1.57193 14.152 -8.94948
209 1 18.8695 -6.50267e-13 12.5794 -8.94954
210 1 20.4416 1.57215 14.1519 -8.94955
211 1 22.0137 3.1443 12.5794 -8.94957
212 1 1.5717 4.71636 14.1518 -8.94898
213 1 3.14431 3.1441 12.5794 -8.94964
214 1 4.71688 4.71656 14.1511 -8.94889
215 1 6.28956 3.1448 12.5794 -8.94821
216 1 7.86278 4.71573 14.152 -8.95185
217 1 9.4348 3.14403 12.5794 -8.94634
218 1 11.0103 4.70895 14.1533 -8.95927
219 1 12.5821 3.14078 12.5794 -8.94958
220 1 14.1561 4.71322 14.1533 -8.9476
221 1 15.7261 3.14327 12.5794 -8.94945
222 1 17.2986 4.71604 14.1523 -8.94928
223 1 18.8698 3.14422 12.5794 -8.94951
224 1 20.4417 4.71662 14.1519 -8.94956
225 1 -0.00054619 6.28885 12.5794 -8.94955
226 1 1.57102 7.86155 14.1511 -8.94978
227 1 3.14342 6.28809 12.5794 -8.94648
228 1 4.71412 7.8616 14.1495 -8.95294
229 1 6.29188 6.29219 12.5794 -8.9451
230 1 7.84742 7.85414 14.1759 -8.90435
231 1 9.43982 6.29326 12.5794 -9.00333
232 1 11.0477 7.82484 14.1851 -8.85414
233 1 12.5904 6.27924 12.5794 -8.94206
234 1 14.1621 7.85804 14.1543 -8.95827
235 1 15.729 6.28706 12.5794 -8.94906
236 1 17.2992 7.8617 14.1521 -8.9518
237 1 18.8703 6.28896 12.5794 -8.94998
238 1 20.4415 7.86179 14.1517 -8.9499
239 1 22.0136 9.43426 12.5794 -8.94763
240 1 3.14752 9.43515 12.5794 -8.93978
241 1 6.31266 9.44444 12.5794 -8.90224
242 1 9.51194 9.2024 12.5794 -8.12194
243 1 12.5869 9.42674 12.5794 -8.97291
244 1 15.7265 9.43483 12.5794 -8.95108
245 1 18.8696 9.43461 12.5794 -8.94937
246 1 -0.000107348 1.43519e-13 15.7243 -8.94954
247 1 1.57211 1.57205 17.2967 -8.94974
248 1 3.14452 3.16797e-12 15.7241 -8.94954
249 1 4.71667 1.57138 17.297 -8.9507
250 1 6.28943 2.23024e-12 15.7242 -8.95042
251 1 7.86174 1.5714 17.2975 -8.94965
252 1 9.43428 -5.02864e-11 15.7247 -8.95027
253 1 11.0072 1.57129 17.2976 -8.94972
254 1 12.58 1.13876e-12 15.7248 -8.95067
255 1 14.153 1.5712 17.2978 -8.95
256 1 15.7252 6.98283e-12 15.7248 -8.94938
257 1 17.2974 1.57198 17.2972 -8.94947
258 1 18.8695 -5.31568e-13 15.7244 -8.94953
259 1 20.4416 1.57218 17.2968 -8.94951
260 1 -0.000200626 3.14433 15.7243 -8.94942
261 1 1.57118 4.71604 17.297 -8.95043
262 1 3.14434 3.14405 15.724 -8.94964
263 1 4.71411 4.71242 17.2996 -8.94986
264 1 6.28921 3.14257 15.7246 -8.95254
265 1 7.86149 4.71378 17.2993 -8.94773
266 1 9.43441 3.14196 15.7254 -8.95062
267 1 11.0085 4.71339 17.2996 -8.94916
268 1 12.5814 3.14094 15.726 -8.95155
269 1 14.1564 4.71298 17.301 -8.94453
270 1 15.726 3.14332 15.7252 -8.94919
271 1 17.2984 4.7162 17.2978 -8.94969
272 1 18.8697 3.14426 15.7245 -8.94945
273 1 20.4415 4.71673 17.2969 -8.94987
274 1 22.0131 6.28908 15.7242 -8.94986
275 1 1.56785 7.85991 17.2989 -8.9509
276 1 3.14241 6.28797 15.7244 -8.95168
277 1 4.70396 7.84995 17.3095 -8.92997
278 1 6.28323 6.27907 15.7312 -8.95317
279 1 7.86107 7.85669 17.3057 -8.95091
280 1 9.43557 6.28058 15.7296 -8.95091
281 1 11.0134 7.85509 17.3073 -8.95316
282 1 12.5927 6.27683 15.7364 -8.92997
283 1 14.1542 7.86195 17.2983 -8.95168
284 1 15.7288 6.28746 15.7264 -8.9509
285 1 17.2974 7.86213 17.2972 -8.94986
286 1 18.8701 6.28915 15.7246 -8.95024
287 1 20.4405 7.86169 17.2972 -8.95024
288 1 22.0114 9.43423 15.7246 -8.9518
289 1 3.13449 9.43203 15.7283 -8.95827
290 1 6.24892 9.40121 15.7615 -8.85428
291 1 9.44922 9.41039 15.7322 -8.90436
292 1 12.5825 9.43685 15.7247 -8.95295
293 1 15.7256 9.43522 15.7248 -8.94978
294 1 18.8691 9.43458 15.7245 -8.9499
295 1 22.0138 -8.10009e-14 18.8692 -8.94971
296 1 1.57183 1.57186 20.442 -8.94948
297 1 3.14431 -7.05693e-14 18.8695 -8.95006
298 1 4.71691 1.5719 20.442 -8.94949
299 1 6.28933 1.47906e-12 18.8697 -8.94953
300 1 7.862 1.57193 20.4421 -8.94951
301 1 9.43447 6.14979e-12 18.8698 -8.94955
302 1 11.0071 1.57196 20.4422 -8.94946
303 1 12.5797 5.50763e-12 18.8699 -8.9496
304 1 14.1523 1.57196 20.4422 -8.94962
305 1 15.725 -4.2432e-13 18.8699 -8.94952
306 1 17.2972 1.57208 20.4421 -8.94917
307 1 18.8694 -1.22091e-13 18.8694 -8.94953
308 1 20.4415 1.57216 20.4417 -8.94958
309 1 22.0135 3.1442 18.8694 -8.94986
310 1 1.57082 4.71567 20.4428 -8.94821
311 1 3.14348 3.14295 18.8703 -8.94944
312 1 4.71639 4.71574 20.443 -8.94964
313 1 6.28915 3.14331 18.8702 -8.94914
314 1 7.86202 4.71595 20.4429 -8.94936
315 1 9.43462 3.14338 18.8704 -8.94936
316 1 11.0075 4.71609 20.443 -8.94914
317 1 12.5802 3.14333 18.8706 -8.94964
318 1 14.1532 4.71606 20.4434 -8.94944
319 1 15.7258 3.14351 18.8707 -8.94821
320 1 17.2971 4.71694 20.4421 -8.94986
321 1 18.8696 3.14435 18.8696 -8.94956
322 1 20.441 4.71673 20.442 -8.94956
323 1 22.0122 6.28853 18.8701 -8.94969
324 1 1.57063 7.86113 20.443 -8.94919
325 1 3.14027 6.28528 18.8733 -8.94453
326 1 4.7152 7.86028 20.4454 -8.95155
7 1 9.43456 -4.80507e-13 22.0142 -8.94954
48 1 15.7245 9.43453 22.0142 -8.94955
44 1 3.14343 9.43403 22.0152 -8.9494
33 1 6.28948 6.28875 22.015 -8.94972
35 1 9.4349 6.28886 22.0149 -8.94965
3 1 3.14459 -3.82312e-14 22.0141 -8.94956
11 1 15.7245 -1.23135e-13 22.0142 -8.94959
17 1 3.14434 3.14412 22.0144 -8.94962
23 1 12.5797 3.14431 22.0144 -8.94949
29 1 -0.000798841 6.28914 22.0143 -8.94947
180 1 14.1532 1.5711 11.0065 -8.9494
187 1 14.1561 4.71322 11.0054 -8.9476
344 1 1.57136 11.007 1.57242 -8.94946
345 1 4.71634 11.007 1.57242 -8.95036
346 1 7.86231 11.007 1.57242 -8.94849
347 1 11.0073 11.007 1.57242 -8.94913
348 1 14.1522 11.007 1.57242 -8.94966
349 1 17.2968 11.007 1.57242 -8.94958
350 1 20.441 11.007 1.57242 -8.94954
511 1 18.8697 18.8696 9.4342 -8.94945
352 1 1.57143 14.1523 1.57242 -8.94938
510 1 15.726 18.8706 9.43356 -8.94919
354 1 4.71667 14.1524 1.57242 -8.95067
355 1 6.28937 12.5795 0.00168652 -8.95145
356 1 7.86236 14.1522 1.57242 -8.95027
357 1 9.43465 12.5792 0.000512952 -8.94943
358 1 11.0072 14.1518 1.57242 -8.95042
359 1 12.5797 12.5792 0.00033629 -8.94936
360 1 14.1521 14.1517 1.57242 -8.94954
509 1 12.5814 18.873 9.4327 -8.95155
362 1 17.2967 14.1519 1.57242 -8.94954
508 1 9.43441 18.8719 9.43333 -8.95062
364 1 20.441 14.152 1.57242 -8.94953
539 1 20.4416 20.4418 11.0069 -8.94955
366 1 1.5716 17.2975 1.57242 -8.94952
367 1 3.14367 15.7254 0.0012264 -8.95
368 1 4.71692 17.2974 1.57242 -8.9496
507 1 6.28921 18.8713 9.43415 -8.95254
370 1 7.86217 17.2974 1.57242 -8.94955
506 1 3.14434 18.8699 9.43473 -8.94964
372 1 11.0073 17.2972 1.57242 -8.94953
373 1 12.58 15.7246 0.00103704 -8.9507
374 1 14.1523 17.2971 1.57242 -8.95006
375 1 15.7245 15.7242 0.000367078 -8.94974
376 1 17.2968 17.2968 1.57242 -8.94971
377 1 18.8689 15.7244 0.000243801 -8.94951
378 1 20.4411 17.2969 1.57242 -8.94953
379 1 22.0133 18.8696 0.000340466 -8.94917
380 1 1.57209 20.4418 1.57242 -8.94959
538 1 17.2975 20.442 11.0067 -8.94948
382 1 4.71708 20.4418 1.57242 -8.94952
505 1 -0.000200626 18.8696 9.43446 -8.94942
384 1 7.86208 20.4418 1.57242 -8.94954
504 1 18.8701 15.7247 9.43411 -8.95024
386 1 11.0071 20.4418 1.57242 -8.94953
536 1 11.0073 20.4432 11.0068 -8.95145
388 1 14.152 20.4417 1.57242 -8.94956
389 1 15.7248 18.8696 0.000566151 -8.94948
390 1 17.2969 20.4417 1.57242 -8.94939
391 1 18.8691 18.8693 0.000264482 -8.94958
392 1 20.4413 20.4417 1.57242 -8.94927
393 1 1.57052 11.007 4.71569 -8.94945
394 1 4.71455 11.007 4.7132 -8.94958
395 1 7.86184 11.007 4.71645 -8.94634
396 1 11.0071 11.007 4.71722 -8.94821
397 1 14.1523 11.007 4.71652 -8.94964
398 1 17.2968 11.007 4.71672 -8.94957
399 1 20.4408 11.007 4.71664 -8.94951
400 1 22.013 12.5796 3.14435 -8.94948
401 1 1.57063 14.1528 4.71574 -8.94919
402 1 3.14343 12.5799 3.14352 -8.9494
403 1 4.7152 14.1536 4.71337 -8.95155
404 1 6.28937 12.5795 3.14316 -8.95145
405 1 7.86223 14.153 4.71439 -8.95062
406 1 9.43465 12.5792 3.14433 -8.94943
407 1 11.0074 14.1522 4.71499 -8.95254
408 1 12.5797 12.5792 3.14451 -8.94936
409 1 14.1523 14.1516 4.71647 -8.94964
410 1 15.7245 12.5794 3.14451 -8.94955
411 1 17.2968 14.1519 4.71675 -8.94942
412 1 18.8689 12.5794 3.14457 -8.94955
413 1 20.4408 14.1521 4.71668 -8.94945
414 1 -0.000798841 15.7248 3.1444 -8.94947
415 1 1.57082 17.2982 4.71593 -8.94821
416 1 3.14367 15.7254 3.14362 -8.95
417 1 4.71639 17.2982 4.71575 -8.94964
418 1 6.28948 15.7252 3.14371 -8.94972
419 1 7.86202 17.298 4.7158 -8.94936
420 1 9.4349 15.725 3.14382 -8.94965
421 1 11.0075 17.2978 4.71573 -8.94914
422 1 12.58 15.7246 3.14381 -8.9507
423 1 14.1532 17.2978 4.71537 -8.94944
424 1 15.7245 15.7242 3.14448 -8.94974
425 1 17.2971 17.297 4.71663 -8.94986
426 1 18.8689 15.7244 3.1446 -8.94951
427 1 20.441 17.2972 4.71677 -8.94956
428 1 22.0133 18.8696 3.1445 -8.94917
429 1 1.57183 20.442 4.71675 -8.94948
430 1 3.14434 18.8698 3.14438 -8.94962
431 1 4.71691 20.442 4.71673 -8.94949
432 1 6.28952 18.8697 3.14438 -8.94946
433 1 7.862 20.442 4.71663 -8.94951
434 1 9.43464 18.8697 3.14436 -8.94951
435 1 11.0071 20.4419 4.71659 -8.94946
436 1 12.5797 18.8696 3.14432 -8.94949
437 1 14.1523 20.4419 4.71654 -8.94962
438 1 15.7248 18.8696 3.14428 -8.94948
439 1 17.2972 20.4418 4.71668 -8.94917
440 1 18.8691 18.8693 3.14458 -8.94958
441 1 20.4415 20.4417 4.71701 -8.94958
442 1 1.56761 11.007 7.85949 -8.94906
443 1 4.70623 11.007 7.85166 -8.94205
444 1 7.85681 11.007 7.86568 -9.00329
445 1 11.0048 11.007 7.86462 -8.94509
446 1 14.1532 11.007 7.86051 -8.94648
447 1 17.2972 11.007 7.86127 -8.94955
448 1 20.4402 11.007 7.86138 -8.94998
449 1 -0.00194269 12.5798 6.28846 -8.94928
450 1 1.56785 14.154 7.85989 -8.9509
451 1 3.14056 12.5809 6.28565 -8.9476
452 1 4.70396 14.164 7.84925 -8.92997
453 1 6.2863 12.5808 6.28137 -8.95927
454 1 7.86107 14.1572 7.853 -8.95091
455 1 9.43386 12.5796 6.28815 -8.95185
456 1 11.0134 14.1588 7.85149 -8.95317
457 1 12.5798 12.5787 6.28898 -8.94889
458 1 14.1542 14.152 7.86039 -8.95168
459 1 15.7249 12.5793 6.28879 -8.94898
460 1 17.2974 14.1518 7.8615 -8.94986
461 1 18.8688 12.5795 6.28904 -8.94956
462 1 20.4405 14.1522 7.86157 -8.95024
463 1 22.0122 15.7254 6.28863 -8.94969
464 1 1.57118 17.2979 7.8617 -8.95043
465 1 3.14027 15.7286 6.28541 -8.94453
466 1 4.71411 17.3015 7.85917 -8.94986
467 1 6.28816 15.7272 6.28581 -8.94916
468 1 7.86149 17.3001 7.8594 -8.94773
469 1 9.43515 15.7269 6.28621 -8.94773
470 1 11.0085 17.3005 7.85916 -8.94916
471 1 12.5825 15.7271 6.28484 -8.94986
472 1 14.1564 17.3009 7.8577 -8.94453
473 1 15.7255 15.7246 6.28846 -8.95043
474 1 17.2984 17.2977 7.86095 -8.94969
475 1 18.869 15.7245 6.28915 -8.94987
476 1 20.4415 17.2972 7.8618 -8.94987
477 1 22.0135 18.8697 6.28936 -8.94986
478 1 1.57211 20.4418 7.86208 -8.94974
479 1 3.14348 18.871 6.28848 -8.94944
480 1 4.71667 20.4425 7.8617 -8.9507
481 1 6.28915 18.8706 6.28852 -8.94914
482 1 7.86174 20.4425 7.86128 -8.94965
483 1 9.43462 18.8705 6.28837 -8.94936
484 1 11.0072 20.4426 7.86117 -8.94972
485 1 12.5802 18.8706 6.28816 -8.94964
486 1 14.153 20.4427 7.86092 -8.95
487 1 15.7258 18.8704 6.28809 -8.94821
488 1 17.2974 20.4419 7.86156 -8.94947
489 1 18.8696 18.8696 6.28915 -8.94956
490 1 20.4416 20.4417 7.86194 -8.94951
491 1 22.0114 12.5797 9.43412 -8.9518
492 1 3.13449 12.5819 9.43046 -8.95827
493 1 6.24892 12.6127 9.39726 -8.85428
494 1 9.44922 12.6035 9.42656 -8.90437
495 1 12.5825 12.5771 9.43402 -8.95294
496 1 15.7256 12.5787 9.43398 -8.94978
497 1 18.8691 12.5793 9.43421 -8.9499
498 1 22.0131 15.7248 9.43455 -8.94986
499 1 3.14241 15.7259 9.43437 -8.95168
500 1 6.28323 15.7348 9.42752 -8.95316
501 1 9.43557 15.7333 9.42911 -8.9509
502 1 12.5927 15.7371 9.42237 -8.92996
503 1 15.7288 15.7264 9.43233 -8.9509
512 1 1.57014 11.007 11.0073 -8.95108
513 1 4.70973 11.007 10.9992 -8.9729
514 1 7.78482 11.007 10.7751 -8.12131
515 1 10.984 11.007 11.0169 -8.90226
516 1 14.1491 11.007 11.0076 -8.93977
517 1 17.2969 11.007 11.0067 -8.94763
518 1 20.4409 11.007 11.007 -8.94937
519 1 1.57102 14.1523 11.0076 -8.94978
520 1 4.71412 14.1523 11.0093 -8.95295
521 1 7.84742 14.1598 10.9828 -8.90438
522 1 11.0477 14.1891 10.9736 -8.85435
523 1 14.1621 14.1559 11.0045 -8.95827
524 1 17.2992 14.1522 11.0067 -8.9518
525 1 20.4415 14.1521 11.007 -8.9499
527 1 4.71688 17.2973 11.0077 -8.94889
528 1 7.86278 17.2982 11.0068 -8.95185
529 1 11.0103 17.305 11.0055 -8.95927
535 1 7.86198 20.442 11.0071 -8.94943
534 1 4.71692 20.4418 11.0071 -8.94936
351 1 22.013 12.5796 0.000490485 -8.94948
385 1 9.43464 18.8697 0.000487369 -8.94951
383 1 6.28952 18.8697 0.000463582 -8.94946
363 1 18.8689 12.5794 0.000270844 -8.94955
687 3 8.64827 11.0073 12.5794 2.30849
686 1 20.4415 20.4417 20.4417 -8.94958
685 1 18.8696 18.8696 18.8696 -8.94956
684 1 17.2972 20.4418 20.4421 -8.94917
683 1 15.7258 18.8704 18.8707 -8.94821
682 1 14.1523 20.4419 20.4422 -8.94962
681 1 12.5802 18.8706 18.8706 -8.94964
680 1 11.0071 20.4419 20.4422 -8.94946
679 1 9.43462 18.8705 18.8704 -8.94936
678 1 7.862 20.442 20.4421 -8.94951
677 1 6.28915 18.8706 18.8702 -8.94914
676 1 4.71691 20.442 20.442 -8.94949
675 1 3.14348 18.871 18.8703 -8.94944
674 1 1.57183 20.442 20.442 -8.94948
526 1 1.5717 17.2975 11.007 -8.94898
673 1 22.0135 18.8697 18.8694 -8.94986
672 1 20.441 17.2972 20.442 -8.94956
671 1 18.869 15.7245 18.8696 -8.94987
670 1 17.2971 17.297 20.4421 -8.94986
531 1 17.2986 17.2979 11.0065 -8.94928
532 1 20.4417 17.2973 11.0068 -8.94956
533 1 1.57209 20.4418 11.007 -8.94955
669 1 15.7255 15.7246 18.8703 -8.95043
668 1 14.1532 17.2978 20.4434 -8.94944
667 1 12.5825 15.7271 18.8739 -8.94986
666 1 11.0075 17.2978 20.443 -8.94914
665 1 9.43515 15.7269 18.8725 -8.94773
664 1 7.86202 17.298 20.4429 -8.94936
540 1 1.57014 11.007 14.1515 -8.95108
541 1 4.70973 11.007 14.1596 -8.9729
542 1 7.78482 11.007 14.3837 -8.12131
543 1 10.984 11.007 14.1419 -8.90226
544 1 14.1491 11.007 14.1512 -8.93977
545 1 17.2969 11.007 14.1521 -8.94763
546 1 20.4409 11.007 14.1517 -8.94937
547 1 22.0136 12.5796 12.5794 -8.94763
548 1 1.57102 14.1523 14.1511 -8.94978
549 1 3.14752 12.5788 12.5794 -8.93977
550 1 4.71412 14.1523 14.1495 -8.95295
551 1 6.3127 12.5694 12.5794 -8.9022
552 1 7.84742 14.1598 14.1759 -8.90438
553 1 9.51176 12.8111 12.5794 -8.1208
554 1 11.0477 14.1891 14.1851 -8.85435
555 1 12.5869 12.5872 12.5794 -8.97289
556 1 14.1621 14.1559 14.1543 -8.95827
557 1 15.7265 12.5791 12.5794 -8.95108
558 1 17.2992 14.1522 14.1521 -8.9518
559 1 18.8696 12.5793 12.5794 -8.94937
560 1 20.4415 14.1521 14.1517 -8.9499
561 1 -0.000546191 15.725 12.5794 -8.94955
562 1 1.5717 17.2975 14.1518 -8.94898
563 1 3.14342 15.7258 12.5794 -8.94648
564 1 4.71688 17.2973 14.1511 -8.94889
565 1 6.29188 15.7217 12.5794 -8.94509
566 1 7.86278 17.2982 14.152 -8.95185
567 1 9.43982 15.7206 12.5794 -9.00328
568 1 11.0103 17.305 14.1533 -8.95927
569 1 12.5904 15.7347 12.5794 -8.94205
570 1 14.1561 17.3007 14.1533 -8.9476
571 1 15.729 15.7268 12.5794 -8.94906
572 1 17.2986 17.2979 14.1523 -8.94928
573 1 18.8703 15.7249 12.5794 -8.94998
574 1 20.4417 17.2973 14.1519 -8.94956
575 1 22.0137 18.8696 12.5794 -8.94957
576 1 1.57209 20.4418 14.1518 -8.94955
577 1 3.14431 18.8698 12.5794 -8.94964
578 1 4.71692 20.4418 14.1516 -8.94936
579 1 6.28956 18.8691 12.5794 -8.94821
580 1 7.86198 20.442 14.1517 -8.94943
581 1 9.4348 18.8699 12.5794 -8.94634
582 1 11.0073 20.4432 14.152 -8.95145
583 1 12.5821 18.8731 12.5794 -8.94958
584 1 14.1532 20.4428 14.1523 -8.9494
585 1 15.7261 18.8706 12.5794 -8.94945
586 1 17.2975 20.442 14.152 -8.94948
587 1 18.8698 18.8697 12.5794 -8.94951
588 1 20.4416 20.4418 14.1519 -8.94955
589 1 1.56761 11.007 17.2993 -8.94906
590 1 4.70623 11.007 17.3071 -8.94205
591 1 7.85681 11.007 17.2931 -9.00329
592 1 11.0048 11.007 17.2941 -8.94509
593 1 14.1532 11.007 17.2982 -8.94648
594 1 17.2972 11.007 17.2975 -8.94955
595 1 20.4402 11.007 17.2974 -8.94998
596 1 22.0114 12.5797 15.7246 -8.9518
597 1 1.56785 14.154 17.2989 -8.9509
598 1 3.13449 12.5819 15.7283 -8.95827
599 1 4.70396 14.164 17.3095 -8.92997
600 1 6.24892 12.6127 15.7615 -8.85428
601 1 7.86107 14.1572 17.3057 -8.95091
602 1 9.44922 12.6035 15.7322 -8.90437
603 1 11.0134 14.1588 17.3073 -8.95317
604 1 12.5825 12.5771 15.7247 -8.95294
605 1 14.1542 14.152 17.2983 -8.95168
606 1 15.7256 12.5787 15.7248 -8.94978
607 1 17.2974 14.1518 17.2972 -8.94986
608 1 18.8691 12.5793 15.7245 -8.9499
609 1 20.4405 14.1522 17.2972 -8.95024
610 1 22.0131 15.7248 15.7242 -8.94986
611 1 1.57118 17.2979 17.297 -8.95043
612 1 3.14241 15.7259 15.7244 -8.95168
613 1 4.71411 17.3015 17.2996 -8.94986
614 1 6.28323 15.7348 15.7312 -8.95316
615 1 7.86149 17.3001 17.2993 -8.94773
616 1 9.43557 15.7333 15.7296 -8.9509
617 1 11.0085 17.3005 17.2996 -8.94916
618 1 12.5927 15.7371 15.7364 -8.92996
619 1 14.1564 17.3009 17.301 -8.94453
620 1 15.7288 15.7264 15.7264 -8.9509
621 1 17.2984 17.2977 17.2978 -8.94969
622 1 18.8701 15.7247 15.7246 -8.95024
623 1 20.4415 17.2972 17.2969 -8.94987
624 1 -0.000200626 18.8696 15.7243 -8.94942
625 1 1.57211 20.4418 17.2967 -8.94974
626 1 3.14434 18.8699 15.724 -8.94964
627 1 4.71667 20.4425 17.297 -8.9507
628 1 6.28921 18.8713 15.7246 -8.95254
629 1 7.86174 20.4425 17.2975 -8.94965
630 1 9.43441 18.8719 15.7254 -8.95062
631 1 11.0072 20.4426 17.2976 -8.94972
632 1 12.5814 18.873 15.726 -8.95155
633 1 14.153 20.4427 17.2978 -8.95
634 1 15.726 18.8706 15.7252 -8.94919
635 1 17.2974 20.4419 17.2972 -8.94947
636 1 18.8697 18.8696 15.7245 -8.94945
637 1 20.4416 20.4417 17.2968 -8.94951
638 1 1.57052 11.007 20.4431 -8.94945
639 1 4.71455 11.007 20.4455 -8.94958
640 1 7.86184 11.007 20.4423 -8.94634
641 1 11.0071 11.007 20.4415 -8.94821
642 1 14.1523 11.007 20.4422 -8.94964
643 1 17.2968 11.007 20.442 -8.94957
644 1 20.4408 11.007 20.4421 -8.94951
645 1 -0.00194269 12.5798 18.8703 -8.94928
646 1 1.57063 14.1528 20.443 -8.94919
647 1 3.14056 12.5809 18.8731 -8.9476
648 1 4.7152 14.1536 20.4454 -8.95155
649 1 6.2863 12.5808 18.8774 -8.95927
650 1 7.86223 14.153 20.4444 -8.95062
651 1 9.43386 12.5796 18.8706 -8.95185
652 1 11.0074 14.1522 20.4438 -8.95254
653 1 12.5798 12.5787 18.8698 -8.94889
654 1 14.1523 14.1516 20.4423 -8.94964
655 1 15.7249 12.5793 18.87 -8.94898
656 1 17.2968 14.1519 20.442 -8.94942
657 1 18.8688 12.5795 18.8697 -8.94956
658 1 20.4408 14.1521 20.4421 -8.94945
659 1 22.0122 15.7254 18.8701 -8.94969
660 1 1.57082 17.2982 20.4428 -8.94821
661 1 3.14027 15.7286 18.8733 -8.94453
662 1 4.71639 17.2982 20.443 -8.94964
663 1 6.28816 15.7272 18.8729 -8.94916
371 1 9.4349 15.725 22.0149 -8.94965
353 1 3.14343 12.5799 22.0152 -8.9494
361 1 15.7245 12.5794 22.0142 -8.94955
369 1 6.28948 15.7252 22.015 -8.94972
365 1 -0.000798841 15.7248 22.0143 -8.94947
381 1 3.14434 18.8698 22.0144 -8.94962
387 1 12.5797 18.8696 22.0144 -8.94949
537 1 14.1532 20.4428 11.0065 -8.9494
530 1 14.1561 17.3007 11.0054 -8.9476
