ITEM: TIMESTEP
120
ITEM: NUMBER OF ATOMS
687
ITEM: BOX BOUNDS pp pp pp
0.0000000000000000e+00 2.2013900999999997e+01
0.0000000000000000e+00 2.2013900999999997e+01
0.0000000000000000e+00 2.2013900999999997e+01
ITEM: ATOMS id type x y z c_pot
1 1 22.0135 -1.31055e-10 0.000306542 -8.94933
2 1 1.57188 1.57199 1.57242 -8.94955
196 1 20.4416 7.86178 11.007 -8.94991
4 1 4.71692 1.57199 1.57242 -8.94948
5 1 6.28946 -3.65077e-10 0.000360075 -8.9495
6 1 7.86205 1.57202 1.57242 -8.94951
175 1 18.869 9.43456 9.4342 -8.94991
8 1 11.0072 1.57206 1.57242 -8.9495
9 1 12.5797 -6.8066e-10 0.000429106 -8.94948
10 1 14.1522 1.5721 1.57242 -8.94953
195 1 17.2993 7.86156 11.0066 -8.95182
12 1 17.2971 1.57211 1.57242 -8.94933
13 1 18.8693 -3.92134e-10 0.000276993 -8.9492
14 1 20.4412 1.57214 1.57242 -8.9492
15 1 22.0131 3.14406 0.000424361 -8.94913
16 1 1.57129 4.71617 1.57242 -8.9495
194 1 14.1623 7.85767 11.0044 -8.95826
18 1 4.71669 4.71622 1.57242 -8.9496
174 1 15.7256 9.43513 9.43399 -8.94982
20 1 7.86213 4.71633 1.57242 -8.94955
173 1 12.5825 9.43659 9.43396 -8.95297
22 1 11.0074 4.71652 1.57242 -8.94955
193 1 11.0478 7.82441 10.9735 -8.85448
24 1 14.1525 4.71674 1.57242 -8.95009
25 1 15.725 3.14421 0.000698742 -8.94946
26 1 17.2968 4.71706 1.57242 -8.94971
27 1 18.8691 3.14447 0.000356918 -8.94955
28 1 20.4409 4.71681 1.57242 -8.94949
192 1 7.84741 7.85383 10.9824 -8.9043
30 1 1.57103 7.86137 1.57242 -8.94936
31 1 3.14331 6.28822 0.00139352 -8.95
32 1 4.71637 7.86132 1.57242 -8.95069
172 1 9.44922 9.41 9.42625 -8.9043
34 1 7.86224 7.86157 1.57242 -8.95032
171 1 6.24884 9.40112 9.39683 -8.85448
36 1 11.0072 7.86205 1.57242 -8.95045
37 1 12.5801 6.28918 0.00114895 -8.95074
38 1 14.1521 7.8622 1.57242 -8.94955
39 1 15.7246 6.28961 0.000457966 -8.94975
40 1 17.2966 7.86203 1.57242 -8.94952
41 1 18.8688 6.28942 0.000324051 -8.94949
42 1 20.4408 7.86179 1.57242 -8.94949
170 1 3.13433 9.43198 9.4301 -8.95826
169 1 22.0112 9.43422 9.43399 -8.95182
45 1 6.2891 9.43429 0.00178829 -8.95148
46 1 9.43454 9.43462 0.000512544 -8.94944
47 1 12.5797 9.43469 0.000328387 -8.94935
168 1 18.8702 6.28904 9.43404 -8.95027
167 1 15.7291 6.28718 9.43219 -8.95091
50 1 22.0135 -1.31055e-10 3.14454 -8.94933
51 1 1.57165 1.57172 4.71663 -8.94946
52 1 3.14441 -2.19674e-10 3.14453 -8.94953
53 1 4.71674 1.57176 4.71658 -8.94947
54 1 6.28946 -3.65078e-10 3.14448 -8.9495
55 1 7.86195 1.57182 4.71647 -8.94948
56 1 9.43459 -6.05385e-10 3.14444 -8.94951
57 1 11.0072 1.57184 4.71639 -8.94944
58 1 12.5797 -6.8066e-10 3.14441 -8.94948
59 1 14.1525 1.57185 4.7163 -8.94959
60 1 15.7248 -6.97883e-10 3.14441 -8.94955
61 1 17.2974 1.572 4.71649 -8.94913
62 1 18.8693 -3.92135e-10 3.14457 -8.9492
63 1 20.4415 1.57206 4.71689 -8.94955
64 1 22.0131 3.14406 3.14442 -8.94913
65 1 1.5705 4.71538 4.71573 -8.94821
66 1 3.14409 3.14388 3.14427 -8.94959
67 1 4.71608 4.71543 4.71547 -8.94963
68 1 6.28939 3.14397 3.14426 -8.94944
69 1 7.86193 4.71569 4.71555 -8.94935
70 1 9.43468 3.14405 3.14424 -8.94948
71 1 11.0076 4.71585 4.71548 -8.94913
72 1 12.5799 3.14416 3.14418 -8.94947
73 1 14.1534 4.71587 4.71512 -8.94943
74 1 15.725 3.14421 3.14414 -8.94946
75 1 17.2972 4.71681 4.71645 -8.94987
76 1 18.8691 3.14447 3.14449 -8.94955
77 1 20.4408 4.71656 4.71663 -8.94955
78 1 -0.00113081 6.28892 3.14429 -8.94943
79 1 1.57017 7.86091 4.71547 -8.94917
80 1 3.14331 6.28822 3.14345 -8.95
81 1 4.71478 7.86005 4.71304 -8.95156
82 1 6.28928 6.28853 3.14355 -8.94976
83 1 7.86204 7.86071 4.71417 -8.95067
84 1 9.43489 6.28872 3.1437 -8.94968
85 1 11.0074 7.86157 4.71487 -8.95257
86 1 12.5801 6.28918 3.14369 -8.95074
87 1 14.1523 7.86224 4.71638 -8.94964
88 1 15.7246 6.28961 3.14439 -8.94975
89 1 17.2968 7.862 4.71665 -8.94941
90 1 18.8688 6.28942 3.14452 -8.94949
91 1 20.4405 7.86166 4.71654 -8.94943
92 1 22.0126 9.43422 3.14423 -8.94945
93 1 3.14299 9.43392 3.14334 -8.9494
94 1 6.2891 9.43429 3.14305 -8.95148
95 1 9.43454 9.43462 3.14433 -8.94944
96 1 12.5797 9.43469 3.14451 -8.94935
97 1 15.7245 9.43454 3.14449 -8.94954
98 1 18.8687 9.43443 3.14451 -8.94952
99 1 22.0137 1.14018e-09 6.28948 -8.94971
100 1 1.57206 1.57196 7.86203 -8.94975
101 1 3.14417 -1.76919e-10 6.28916 -8.95009
102 1 4.71657 1.57127 7.86161 -8.95074
103 1 6.28924 -1.05997e-09 6.28894 -8.94955
104 1 7.86174 1.57128 7.86114 -8.94968
105 1 9.43451 -1.83333e-09 6.28875 -8.94955
106 1 11.0074 1.57112 7.86096 -8.94976
107 1 12.5799 -2.50957e-09 6.28864 -8.9496
108 1 14.1533 1.57103 7.86065 -8.95
109 1 15.7253 -2.67565e-09 6.28859 -8.9495
110 1 17.2978 1.57187 7.86134 -8.94943
111 1 18.8696 -4.91527e-10 6.28923 -8.94949
112 1 20.4417 1.5721 7.86184 -8.94949
113 1 22.0134 3.14402 6.28923 -8.94987
114 1 1.57098 4.71583 7.86155 -8.95045
115 1 3.14324 3.1427 6.28829 -8.94943
116 1 4.71383 4.71214 7.85884 -8.94982
117 1 6.289 3.14306 6.28827 -8.94913
118 1 7.86144 4.71344 7.85902 -8.9477
119 1 9.4347 3.14313 6.28811 -8.94935
120 1 11.0088 4.71295 7.85881 -8.94914
121 1 12.5806 3.14305 6.28785 -8.94963
122 1 14.1568 4.71264 7.8574 -8.94453
123 1 15.7261 3.14331 6.2878 -8.94821
124 1 17.2987 4.71602 7.86075 -8.9497
125 1 18.8697 3.14421 6.28898 -8.94955
126 1 20.4415 4.71658 7.86169 -8.94989
127 1 22.0119 6.28833 6.28844 -8.9497
128 1 1.56749 7.85976 7.85961 -8.95091
129 1 3.13983 6.28498 6.28506 -8.94453
130 1 4.70357 7.84973 7.84879 -8.92999
131 1 6.28783 6.28639 6.28538 -8.94914
132 1 7.86089 7.8563 7.85253 -8.95088
133 1 9.43519 6.2866 6.28587 -8.9477
134 1 11.0136 7.85464 7.85121 -8.95308
135 1 12.5828 6.28642 6.28456 -8.94982
136 1 14.1544 7.8617 7.86027 -8.95169
137 1 15.7257 6.28912 6.28826 -8.95045
138 1 17.2974 7.86205 7.86142 -8.9499
139 1 18.869 6.28927 6.289 -8.94989
140 1 20.4403 7.86162 7.86146 -8.95027
141 1 -0.0023531 9.43398 6.28822 -8.94928
142 1 3.14002 9.43287 6.28523 -8.94759
143 1 6.2859 9.43293 6.28102 -8.95927
144 1 9.43372 9.43416 6.28805 -8.95185
145 1 12.5797 9.43512 6.28897 -8.94887
146 1 15.7249 9.43453 6.28875 -8.94898
147 1 18.8686 9.43438 6.28894 -8.94957
148 1 -1.11615e-05 7.44136e-10 9.43445 -8.94952
149 1 3.14452 3.53336e-09 9.43462 -8.94955
150 1 6.28945 -2.37171e-10 9.43447 -8.95045
151 1 9.4344 -4.48044e-09 9.43399 -8.95032
152 1 12.5803 -6.10959e-09 9.43374 -8.95069
153 1 15.7256 -2.98677e-09 9.43379 -8.94936
154 1 18.8698 -5.85488e-10 9.43421 -8.94949
155 1 -0.000142146 3.14423 9.43442 -8.94941
156 1 3.14429 3.14395 9.43466 -8.94964
157 1 6.2892 3.14245 9.43399 -8.95257
158 1 9.4346 3.14175 9.43313 -8.95067
159 1 12.5819 3.14062 9.43247 -8.95156
160 1 15.7265 3.14305 9.43333 -8.94917
161 1 18.87 3.14411 9.43408 -8.94943
162 1 22.0131 6.289 9.43447 -8.9499
163 1 3.14223 6.28784 9.43413 -8.95169
164 1 6.28306 6.27879 9.42706 -8.95308
165 1 9.43574 6.28011 9.42872 -8.95088
166 1 12.5931 6.27637 9.42215 -8.92999
177 1 4.71697 1.57209 11.0071 -8.94935
178 1 7.8621 1.57191 11.007 -8.94944
179 1 11.0075 1.57063 11.0067 -8.95148
191 1 4.71415 7.86154 11.009 -8.95297
181 1 17.2979 1.57181 11.0066 -8.94945
182 1 20.4418 1.57209 11.0068 -8.94952
184 1 4.71689 4.71654 11.0075 -8.94887
185 1 7.86291 4.71562 11.0066 -8.95185
186 1 11.0107 4.7086 11.0054 -8.95927
190 1 1.57108 7.86157 11.0075 -8.94982
19 1 6.28939 3.14397 0.000579802 -8.94944
49 1 18.8687 9.43443 0.000335983 -8.94952
21 1 9.43468 3.14405 0.000600561 -8.94948
43 1 22.0126 9.43422 0.000613874 -8.94945
176 1 1.57216 1.57206 11.007 -8.94954
343 1 18.8686 9.43438 18.8698 -8.94957
342 1 15.7249 9.43453 18.87 -8.94898
341 1 12.5797 9.43512 18.8698 -8.94887
340 1 9.43372 9.43416 18.8707 -8.95185
339 1 6.2859 9.43293 18.8777 -8.95927
338 1 3.14002 9.43287 18.8735 -8.94759
183 1 1.57174 4.71632 11.0069 -8.94898
337 1 -0.0023531 9.43398 18.8705 -8.94928
336 1 20.4405 7.86166 20.4422 -8.94943
335 1 18.869 6.28927 18.8697 -8.94989
334 1 17.2968 7.862 20.4421 -8.94941
188 1 17.299 4.7158 11.0064 -8.94928
189 1 20.4419 4.71652 11.0068 -8.94957
333 1 15.7257 6.28912 18.8705 -8.95045
332 1 14.1523 7.86224 20.4424 -8.94964
331 1 12.5828 6.28642 18.8742 -8.94982
330 1 11.0074 7.86157 20.4439 -8.95257
329 1 9.43519 6.2866 18.8729 -8.9477
328 1 7.86204 7.86071 20.4446 -8.95067
327 1 6.28783 6.28639 18.8734 -8.94914
197 1 1.59991e-05 7.42292e-10 12.5794 -8.94955
198 1 1.57216 1.57206 14.1518 -8.94954
199 1 3.14452 3.24446e-09 12.5794 -8.94964
200 1 4.71697 1.57209 14.1516 -8.94935
201 1 6.28944 3.11197e-09 12.5794 -8.94911
202 1 7.8621 1.57191 14.1517 -8.94944
203 1 9.4345 -5.20408e-09 12.5794 -8.94848
204 1 11.0075 1.57063 14.152 -8.95148
205 1 12.5806 -7.21685e-09 12.5794 -8.95039
206 1 14.1536 1.57092 14.1524 -8.9494
207 1 15.7257 -3.10657e-09 12.5794 -8.94945
208 1 17.2979 1.57181 14.1521 -8.94945
209 1 18.8698 -6.62866e-10 12.5794 -8.94951
210 1 20.4418 1.57209 14.1519 -8.94952
211 1 22.0139 3.14424 12.5794 -8.94955
212 1 1.57174 4.71632 14.1518 -8.94898
213 1 3.14438 3.14411 12.5794 -8.94962
214 1 4.71689 4.71654 14.1512 -8.94887
215 1 6.28967 3.14486 12.5794 -8.94819
216 1 7.86291 4.71562 14.1522 -8.95185
217 1 9.43504 3.14398 12.5794 -8.94633
218 1 11.0107 4.7086 14.1534 -8.95927
219 1 12.5826 3.14048 12.5794 -8.94958
220 1 14.1566 4.71281 14.1535 -8.94759
221 1 15.7266 3.14298 12.5794 -8.94943
222 1 17.299 4.7158 14.1523 -8.94928
223 1 18.8701 3.14407 12.5794 -8.94949
224 1 20.4419 4.71652 14.1519 -8.94957
225 1 -0.00041611 6.28884 12.5794 -8.94956
226 1 1.57108 7.86157 14.1512 -8.94982
227 1 3.14351 6.28812 12.5794 -8.94647
228 1 4.71415 7.86154 14.1497 -8.95297
229 1 6.29197 6.29217 12.5794 -8.94507
230 1 7.84741 7.85383 14.1763 -8.9043
231 1 9.44001 6.29304 12.5794 -9.00324
232 1 11.0478 7.82441 14.1852 -8.85448
233 1 12.5908 6.27877 12.5794 -8.94205
234 1 14.1623 7.85767 14.1543 -8.95826
235 1 15.7294 6.28672 12.5794 -8.94905
236 1 17.2993 7.86156 14.1521 -8.95182
237 1 18.8706 6.28884 12.5794 -8.95
238 1 20.4416 7.86178 14.1518 -8.94991
239 1 22.0138 9.4343 12.5794 -8.94758
240 1 3.14781 9.43519 12.5794 -8.93983
241 1 6.31285 9.44433 12.5794 -8.90236
242 1 9.51155 9.20246 12.5794 -8.1219
243 1 12.5867 9.42644 12.5794 -8.97287
244 1 15.7264 9.43471 12.5794 -8.95105
245 1 18.8696 9.43459 12.5794 -8.94932
246 1 -1.11615e-05 7.44137e-10 15.7243 -8.94952
247 1 1.57206 1.57196 17.2967 -8.94975
248 1 3.14452 3.53336e-09 15.7241 -8.94955
249 1 4.71657 1.57127 17.2971 -8.95074
250 1 6.28945 -2.3717e-10 15.7243 -8.95045
251 1 7.86174 1.57128 17.2976 -8.94968
252 1 9.4344 -4.48044e-09 15.7248 -8.95032
253 1 11.0074 1.57112 17.2978 -8.94976
254 1 12.5803 -6.10959e-09 15.725 -8.95069
255 1 14.1533 1.57103 17.2981 -8.95
256 1 15.7256 -2.98677e-09 15.725 -8.94936
257 1 17.2978 1.57187 17.2974 -8.94943
258 1 18.8698 -5.85487e-10 15.7245 -8.94949
259 1 20.4417 1.5721 17.2969 -8.94949
260 1 -0.000142146 3.14423 15.7243 -8.94941
261 1 1.57098 4.71583 17.2972 -8.95045
262 1 3.14429 3.14395 15.7241 -8.94964
263 1 4.71383 4.71214 17.2999 -8.94982
264 1 6.2892 3.14245 15.7248 -8.95257
265 1 7.86144 4.71344 17.2997 -8.9477
266 1 9.4346 3.14175 15.7256 -8.95067
267 1 11.0088 4.71295 17.2999 -8.94914
268 1 12.5819 3.14062 15.7263 -8.95156
269 1 14.1568 4.71264 17.3013 -8.94453
270 1 15.7265 3.14305 15.7254 -8.94917
271 1 17.2987 4.71602 17.298 -8.9497
272 1 18.87 3.14411 15.7247 -8.94943
273 1 20.4415 4.71658 17.2971 -8.94989
274 1 22.0131 6.289 15.7243 -8.9499
275 1 1.56749 7.85976 17.2991 -8.95091
276 1 3.14223 6.28784 15.7246 -8.95169
277 1 4.70357 7.84973 17.31 -8.92999
278 1 6.28306 6.27879 15.7317 -8.95308
279 1 7.86089 7.8563 17.3062 -8.95088
280 1 9.43574 6.28011 15.73 -8.95088
281 1 11.0136 7.85464 17.3075 -8.95308
282 1 12.5931 6.27637 15.7366 -8.92999
283 1 14.1544 7.8617 17.2985 -8.95169
284 1 15.7291 6.28718 15.7266 -8.95091
285 1 17.2974 7.86205 17.2973 -8.9499
286 1 18.8702 6.28904 15.7247 -8.95027
287 1 20.4403 7.86162 17.2973 -8.95027
288 1 22.0112 9.43422 15.7248 -8.95182
289 1 3.13433 9.43198 15.7286 -8.95826
290 1 6.24884 9.40112 15.7619 -8.85448
291 1 9.44922 9.41 15.7325 -8.9043
292 1 12.5825 9.43659 15.7248 -8.95297
293 1 15.7256 9.43513 15.7248 -8.94982
294 1 18.869 9.43456 15.7245 -8.94991
295 1 22.0137 1.14018e-09 18.8693 -8.94971
296 1 1.57165 1.57172 20.4421 -8.94946
297 1 3.14417 -1.76919e-10 18.8696 -8.95009
298 1 4.71674 1.57176 20.4422 -8.94947
299 1 6.28924 -1.05997e-09 18.8698 -8.94955
300 1 7.86195 1.57182 20.4423 -8.94948
301 1 9.43451 -1.83333e-09 18.87 -8.94955
302 1 11.0072 1.57184 20.4424 -8.94944
303 1 12.5799 -2.50957e-09 18.8701 -8.9496
304 1 14.1525 1.57185 20.4424 -8.94959
305 1 15.7253 -2.67565e-09 18.8702 -8.9495
306 1 17.2974 1.572 20.4423 -8.94913
307 1 18.8696 -4.91526e-10 18.8695 -8.94949
308 1 20.4415 1.57206 20.4418 -8.94955
309 1 22.0134 3.14402 18.8695 -8.94987
310 1 1.5705 4.71538 20.443 -8.94821
311 1 3.14324 3.1427 18.8705 -8.94943
312 1 4.71608 4.71543 20.4433 -8.94963
313 1 6.289 3.14306 18.8705 -8.94913
314 1 7.86193 4.71569 20.4432 -8.94935
315 1 9.4347 3.14313 18.8706 -8.94935
316 1 11.0076 4.71585 20.4433 -8.94913
317 1 12.5806 3.14305 18.8709 -8.94963
318 1 14.1534 4.71587 20.4436 -8.94943
319 1 15.7261 3.14331 18.8709 -8.94821
320 1 17.2972 4.71681 20.4423 -8.94987
321 1 18.8697 3.14421 18.8698 -8.94955
322 1 20.4408 4.71656 20.4421 -8.94955
323 1 22.0119 6.28833 18.8703 -8.9497
324 1 1.57017 7.86091 20.4433 -8.94917
325 1 3.13983 6.28498 18.8737 -8.94453
326 1 4.71478 7.86005 20.4457 -8.95156
7 1 9.43459 -6.05384e-10 22.0143 -8.94951
48 1 15.7245 9.43454 22.0143 -8.94954
44 1 3.14299 9.43392 22.0154 -8.9494
33 1 6.28928 6.28853 22.0152 -8.94976
35 1 9.43489 6.28872 22.015 -8.94968
3 1 3.14441 -2.19674e-10 22.0142 -8.94953
11 1 15.7248 -6.97883e-10 22.0143 -8.94955
17 1 3.14409 3.14388 22.0145 -8.94959
23 1 12.5799 3.14416 22.0146 -8.94947
29 1 -0.00113081 6.28892 22.0145 -8.94943
180 1 14.1536 1.57092 11.0063 -8.9494
187 1 14.1566 4.71281 11.0053 -8.94759
344 1 1.57093 11.007 1.57242 -8.94945
345 1 4.71599 11.007 1.57242 -8.95039
346 1 7.86214 11.007 1.57242 -8.94848
347 1 11.0072 11.007 1.57242 -8.94911
348 1 14.1521 11.007 1.57242 -8.94964
349 1 17.2966 11.007 1.57242 -8.94955
350 1 20.4407 11.007 1.57242 -8.94951
511 1 18.87 18.8698 9.43408 -8.94943
352 1 1.57103 14.1525 1.57242 -8.94936
510 1 15.7265 18.8708 9.43333 -8.94917
354 1 4.71637 14.1526 1.57242 -8.95069
355 1 6.2891 12.5796 0.00178828 -8.95148
356 1 7.86224 14.1523 1.57242 -8.95032
357 1 9.43454 12.5793 0.000512542 -8.94944
358 1 11.0072 14.1518 1.57242 -8.95045
359 1 12.5797 12.5792 0.000328385 -8.94935
360 1 14.1521 14.1517 1.57242 -8.94955
509 1 12.5819 18.8733 9.43247 -8.95156
362 1 17.2966 14.1519 1.57242 -8.94952
508 1 9.4346 18.8721 9.43313 -8.95067
364 1 20.4408 14.1521 1.57242 -8.94949
539 1 20.4418 20.4418 11.0068 -8.94952
366 1 1.57129 17.2977 1.57242 -8.9495
367 1 3.14331 15.7257 0.00139352 -8.95
368 1 4.71669 17.2977 1.57242 -8.9496
507 1 6.2892 18.8715 9.43399 -8.95257
370 1 7.86213 17.2976 1.57242 -8.94955
506 1 3.14429 18.8699 9.43466 -8.94964
372 1 11.0074 17.2974 1.57242 -8.94955
373 1 12.5801 15.7247 0.00114895 -8.95074
374 1 14.1525 17.2972 1.57242 -8.95009
375 1 15.7246 15.7243 0.000457964 -8.94975
376 1 17.2968 17.2968 1.57242 -8.94971
377 1 18.8688 15.7245 0.000324051 -8.94949
378 1 20.4409 17.2971 1.57242 -8.94949
379 1 22.0131 18.8698 0.000424361 -8.94913
380 1 1.57188 20.4419 1.57242 -8.94955
538 1 17.2979 20.4421 11.0066 -8.94945
382 1 4.71692 20.4419 1.57242 -8.94948
505 1 -0.00014215 18.8697 9.43442 -8.94941
384 1 7.86205 20.4419 1.57242 -8.94951
504 1 18.8702 15.7249 9.43404 -8.95027
386 1 11.0072 20.4418 1.57242 -8.9495
536 1 11.0075 20.4433 11.0067 -8.95148
388 1 14.1522 20.4418 1.57242 -8.94953
389 1 15.725 18.8697 0.000698741 -8.94946
390 1 17.2971 20.4418 1.57242 -8.94933
391 1 18.8691 18.8694 0.000356917 -8.94955
392 1 20.4412 20.4418 1.57242 -8.9492
393 1 1.57002 11.007 4.7154 -8.94943
394 1 4.71407 11.007 4.7129 -8.94958
395 1 7.86159 11.007 4.7164 -8.94633
396 1 11.007 11.007 4.71728 -8.94819
397 1 14.1523 11.007 4.71654 -8.94962
398 1 17.2967 11.007 4.71666 -8.94955
399 1 20.4404 11.007 4.71649 -8.94949
400 1 22.0126 12.5797 3.14423 -8.94945
401 1 1.57017 14.153 4.71547 -8.94917
402 1 3.14299 12.58 3.14334 -8.9494
403 1 4.71478 14.1538 4.71304 -8.95156
404 1 6.2891 12.5796 3.14305 -8.95148
405 1 7.86204 14.1532 4.71417 -8.95067
406 1 9.43454 12.5793 3.14433 -8.94944
407 1 11.0074 14.1523 4.71487 -8.95257
408 1 12.5797 12.5792 3.14451 -8.94935
409 1 14.1523 14.1517 4.71638 -8.94964
410 1 15.7245 12.5794 3.14449 -8.94954
411 1 17.2968 14.1519 4.71665 -8.94941
412 1 18.8687 12.5795 3.14451 -8.94952
413 1 20.4405 14.1522 4.71654 -8.94943
414 1 -0.00113081 15.725 3.14429 -8.94943
415 1 1.5705 17.2985 4.71573 -8.94821
416 1 3.14331 15.7257 3.14345 -8.95
417 1 4.71608 17.2985 4.71547 -8.94963
418 1 6.28928 15.7254 3.14355 -8.94976
419 1 7.86193 17.2982 4.71555 -8.94935
420 1 9.43489 15.7252 3.1437 -8.94968
421 1 11.0076 17.2981 4.71548 -8.94913
422 1 12.5801 15.7247 3.14369 -8.95074
423 1 14.1534 17.298 4.71512 -8.94943
424 1 15.7246 15.7243 3.14439 -8.94975
425 1 17.2972 17.2971 4.71645 -8.94987
426 1 18.8688 15.7245 3.14452 -8.94949
427 1 20.4408 17.2973 4.71663 -8.94955
428 1 22.0131 18.8698 3.14442 -8.94913
429 1 1.57165 20.4422 4.71663 -8.94946
430 1 3.14409 18.87 3.14427 -8.94959
431 1 4.71674 20.4421 4.71658 -8.94947
432 1 6.28939 18.8699 3.14426 -8.94944
433 1 7.86195 20.4421 4.71647 -8.94948
434 1 9.43468 18.8699 3.14424 -8.94948
435 1 11.0072 20.4421 4.71639 -8.94944
436 1 12.5799 18.8697 3.14418 -8.94947
437 1 14.1525 20.4421 4.7163 -8.94959
438 1 15.725 18.8697 3.14414 -8.94946
439 1 17.2974 20.4419 4.71649 -8.94913
440 1 18.8691 18.8694 3.14449 -8.94955
441 1 20.4415 20.4418 4.71689 -8.94955
442 1 1.5672 11.007 7.85914 -8.94905
443 1 4.70582 11.007 7.85119 -8.94205
444 1 7.85663 11.007 7.86546 -9.00324
445 1 11.0047 11.007 7.86459 -8.94507
446 1 14.1531 11.007 7.86054 -8.94647
447 1 17.2971 11.007 7.86126 -8.94956
448 1 20.44 11.007 7.86126 -8.95
449 1 -0.0023531 12.5799 6.28822 -8.94928
450 1 1.56749 14.1541 7.85961 -8.95091
451 1 3.14002 12.581 6.28523 -8.94759
452 1 4.70357 14.1642 7.84879 -8.92999
453 1 6.2859 12.581 6.28102 -8.95927
454 1 7.86089 14.1576 7.85253 -8.95088
455 1 9.43372 12.5797 6.28805 -8.95185
456 1 11.0136 14.1593 7.85121 -8.95308
457 1 12.5797 12.5788 6.28897 -8.94887
458 1 14.1544 14.1522 7.86027 -8.95169
459 1 15.7249 12.5794 6.28875 -8.94898
460 1 17.2974 14.1519 7.86142 -8.9499
461 1 18.8686 12.5795 6.28894 -8.94957
462 1 20.4403 14.1523 7.86146 -8.95027
463 1 22.0119 15.7256 6.28844 -8.9497
464 1 1.57098 17.2981 7.86155 -8.95045
465 1 3.13983 15.7289 6.28506 -8.94453
466 1 4.71383 17.3018 7.85884 -8.94982
467 1 6.28783 15.7275 6.28538 -8.94914
468 1 7.86144 17.3005 7.85902 -8.9477
469 1 9.43519 15.7273 6.28587 -8.9477
470 1 11.0088 17.3009 7.85881 -8.94914
471 1 12.5828 15.7275 6.28456 -8.94982
472 1 14.1568 17.3013 7.8574 -8.94453
473 1 15.7257 15.7248 6.28826 -8.95045
474 1 17.2987 17.2979 7.86075 -8.9497
475 1 18.869 15.7246 6.289 -8.94989
476 1 20.4415 17.2973 7.86169 -8.94989
477 1 22.0134 18.8699 6.28923 -8.94987
478 1 1.57206 20.4419 7.86203 -8.94975
479 1 3.14324 18.8712 6.28829 -8.94943
480 1 4.71657 20.4426 7.86161 -8.95074
481 1 6.289 18.8708 6.28827 -8.94913
482 1 7.86174 20.4426 7.86114 -8.94968
483 1 9.4347 18.8708 6.28811 -8.94935
484 1 11.0074 20.4428 7.86096 -8.94976
485 1 12.5806 18.8709 6.28785 -8.94963
486 1 14.1533 20.4429 7.86065 -8.95
487 1 15.7261 18.8706 6.2878 -8.94821
488 1 17.2978 20.442 7.86134 -8.94943
489 1 18.8697 18.8697 6.28898 -8.94955
490 1 20.4417 20.4418 7.86184 -8.94949
491 1 22.0112 12.5797 9.43399 -8.95182
492 1 3.13433 12.5819 9.4301 -8.95826
493 1 6.24884 12.6128 9.39683 -8.85448
494 1 9.44922 12.6039 9.42625 -8.9043
495 1 12.5825 12.5773 9.43396 -8.95297
496 1 15.7256 12.5788 9.43399 -8.94982
497 1 18.869 12.5793 9.4342 -8.94991
498 1 22.0131 15.7249 9.43447 -8.9499
499 1 3.14223 15.7261 9.43413 -8.95169
500 1 6.28306 15.7351 9.42706 -8.95308
501 1 9.43574 15.7338 9.42872 -8.95088
502 1 12.5931 15.7375 9.42215 -8.92999
503 1 15.7291 15.7267 9.43219 -8.95091
512 1 1.57028 11.007 11.0071 -8.95105
513 1 4.70998 11.007 10.9989 -8.97287
514 1 7.78508 11.007 10.7749 -8.1219
515 1 10.9838 11.007 11.0168 -8.90236
516 1 14.1488 11.007 11.0076 -8.93983
517 1 17.2968 11.007 11.0067 -8.94758
518 1 20.4409 11.007 11.007 -8.94932
519 1 1.57108 14.1523 11.0075 -8.94982
520 1 4.71415 14.1524 11.009 -8.95297
521 1 7.84741 14.1601 10.9824 -8.9043
522 1 11.0478 14.1895 10.9735 -8.85448
523 1 14.1623 14.1562 11.0044 -8.95826
524 1 17.2993 14.1523 11.0066 -8.95182
525 1 20.4416 14.1521 11.007 -8.94991
527 1 4.71689 17.2974 11.0075 -8.94887
528 1 7.86291 17.2983 11.0066 -8.95185
529 1 11.0107 17.3053 11.0054 -8.95927
535 1 7.8621 20.442 11.007 -8.94944
534 1 4.71697 20.4418 11.0071 -8.94935
351 1 22.0126 12.5797 0.000613874 -8.94945
385 1 9.43468 18.8699 0.00060056 -8.94948
383 1 6.28939 18.8699 0.000579802 -8.94944
363 1 18.8687 12.5795 0.000335983 -8.94952
687 3 8.64832 11.007 12.5794 2.30841
686 1 20.4415 20.4418 20.4418 -8.94955
685 1 18.8697 18.8697 18.8698 -8.94955
684 1 17.2974 20.4419 20.4423 -8.94913
683 1 15.7261 18.8706 18.8709 -8.94821
682 1 14.1525 20.4421 20.4424 -8.94959
681 1 12.5806 18.8709 18.8709 -8.94963
680 1 11.0072 20.4421 20.4424 -8.94944
679 1 9.4347 18.8708 18.8706 -8.94935
678 1 7.86195 20.4421 20.4423 -8.94948
677 1 6.289 18.8708 18.8705 -8.94913
676 1 4.71674 20.4421 20.4422 -8.94947
675 1 3.14324 18.8712 18.8705 -8.94943
674 1 1.57165 20.4422 20.4421 -8.94946
526 1 1.57174 17.2976 11.0069 -8.94898
673 1 22.0134 18.8699 18.8695 -8.94987
672 1 20.4408 17.2973 20.4421 -8.94955
671 1 18.869 15.7246 18.8697 -8.94989
670 1 17.2972 17.2971 20.4423 -8.94987
531 1 17.299 17.2981 11.0064 -8.94928
532 1 20.4419 17.2974 11.0068 -8.94957
533 1 1.57216 20.4418 11.007 -8.94954
669 1 15.7257 15.7248 18.8705 -8.95045
668 1 14.1534 17.298 20.4436 -8.94943
667 1 12.5828 15.7275 18.8742 -8.94982
666 1 11.0076 17.2981 20.4433 -8.94913
665 1 9.43519 15.7273 18.8729 -8.9477
664 1 7.86193 17.2982 20.4432 -8.94935
540 1 1.57028 11.007 14.1516 -8.95105
541 1 4.70998 11.007 14.1599 -8.97287
542 1 7.78508 11.007 14.3839 -8.1219
543 1 10.9838 11.007 14.142 -8.90236
544 1 14.1488 11.007 14.1511 -8.93983
545 1 17.2968 11.007 14.152 -8.94758
546 1 20.4409 11.007 14.1517 -8.94932
547 1 22.0138 12.5796 12.5794 -8.94758
548 1 1.57108 14.1523 14.1512 -8.94982
549 1 3.14781 12.5787 12.5794 -8.93983
550 1 4.71415 14.1524 14.1497 -8.95297
551 1 6.31285 12.5696 12.5794 -8.90236
552 1 7.84741 14.1601 14.1763 -8.9043
553 1 9.51155 12.8114 12.5794 -8.1219
554 1 11.0478 14.1895 14.1852 -8.85448
555 1 12.5867 12.5875 12.5794 -8.97287
556 1 14.1623 14.1562 14.1543 -8.95826
557 1 15.7264 12.5792 12.5794 -8.95105
558 1 17.2993 14.1523 14.1521 -8.95182
559 1 18.8696 12.5793 12.5794 -8.94932
560 1 20.4416 14.1521 14.1518 -8.94991
561 1 -0.00041613 15.7251 12.5794 -8.94956
562 1 1.57174 17.2976 14.1518 -8.94898
563 1 3.14351 15.7258 12.5794 -8.94647
564 1 4.71689 17.2974 14.1512 -8.94887
565 1 6.29197 15.7217 12.5794 -8.94507
566 1 7.86291 17.2983 14.1522 -8.95185
567 1 9.44001 15.7209 12.5794 -9.00324
568 1 11.0107 17.3053 14.1534 -8.95927
569 1 12.5908 15.7351 12.5794 -8.94205
570 1 14.1566 17.3011 14.1535 -8.94759
571 1 15.7294 15.7272 12.5794 -8.94905
572 1 17.299 17.2981 14.1523 -8.94928
573 1 18.8706 15.7251 12.5794 -8.95
574 1 20.4419 17.2974 14.1519 -8.94957
575 1 22.0139 18.8697 12.5794 -8.94955
576 1 1.57216 20.4418 14.1518 -8.94954
577 1 3.14438 18.8698 12.5794 -8.94962
578 1 4.71697 20.4418 14.1516 -8.94935
579 1 6.28967 18.869 12.5794 -8.94819
580 1 7.8621 20.442 14.1517 -8.94944
581 1 9.43504 18.8699 12.5794 -8.94633
582 1 11.0075 20.4433 14.152 -8.95148
583 1 12.5826 18.8734 12.5794 -8.94958
584 1 14.1536 20.443 14.1524 -8.9494
585 1 15.7266 18.8709 12.5794 -8.94943
586 1 17.2979 20.4421 14.1521 -8.94945
587 1 18.8701 18.8698 12.5794 -8.94949
588 1 20.4418 20.4418 14.1519 -8.94952
589 1 1.5672 11.007 17.2996 -8.94905
590 1 4.70582 11.007 17.3076 -8.94205
591 1 7.85663 11.007 17.2933 -9.00324
592 1 11.0047 11.007 17.2942 -8.94507
593 1 14.1531 11.007 17.2982 -8.94647
594 1 17.2971 11.007 17.2975 -8.94956
595 1 20.44 11.007 17.2975 -8.95
596 1 22.0112 12.5797 15.7248 -8.95182
597 1 1.56749 14.1541 17.2991 -8.95091
598 1 3.13433 12.5819 15.7286 -8.95826
599 1 4.70357 14.1642 17.31 -8.92999
600 1 6.24884 12.6128 15.7619 -8.85448
601 1 7.86089 14.1576 17.3062 -8.95088
602 1 9.44922 12.6039 15.7325 -8.9043
603 1 11.0136 14.1593 17.3075 -8.95308
604 1 12.5825 12.5773 15.7248 -8.95297
605 1 14.1544 14.1522 17.2985 -8.95169
606 1 15.7256 12.5788 15.7248 -8.94982
607 1 17.2974 14.1519 17.2973 -8.9499
608 1 18.869 12.5793 15.7245 -8.94991
609 1 20.4403 14.1523 17.2973 -8.95027
610 1 22.0131 15.7249 15.7243 -8.9499
611 1 1.57098 17.2981 17.2972 -8.95045
612 1 3.14223 15.7261 15.7246 -8.95169
613 1 4.71383 17.3018 17.2999 -8.94982
614 1 6.28306 15.7351 15.7317 -8.95308
615 1 7.86144 17.3005 17.2997 -8.9477
616 1 9.43574 15.7338 15.73 -8.95088
617 1 11.0088 17.3009 17.2999 -8.94914
618 1 12.5931 15.7375 15.7366 -8.92999
619 1 14.1568 17.3013 17.3013 -8.94453
620 1 15.7291 15.7267 15.7266 -8.95091
621 1 17.2987 17.2979 17.298 -8.9497
622 1 18.8702 15.7249 15.7247 -8.95027
623 1 20.4415 17.2973 17.2971 -8.94989
624 1 -0.00014215 18.8697 15.7243 -8.94941
625 1 1.57206 20.4419 17.2967 -8.94975
626 1 3.14429 18.8699 15.7241 -8.94964
627 1 4.71657 20.4426 17.2971 -8.95074
628 1 6.2892 18.8715 15.7248 -8.95257
629 1 7.86174 20.4426 17.2976 -8.94968
630 1 9.4346 18.8721 15.7256 -8.95067
631 1 11.0074 20.4428 17.2978 -8.94976
632 1 12.5819 18.8733 15.7263 -8.95156
633 1 14.1533 20.4429 17.2981 -8.95
634 1 15.7265 18.8708 15.7254 -8.94917
635 1 17.2978 20.442 17.2974 -8.94943
636 1 18.87 18.8698 15.7247 -8.94943
637 1 20.4417 20.4418 17.2969 -8.94949
638 1 1.57002 11.007 20.4433 -8.94943
639 1 4.71407 11.007 20.4458 -8.94958
640 1 7.86159 11.007 20.4423 -8.94633
641 1 11.007 11.007 20.4415 -8.94819
642 1 14.1523 11.007 20.4422 -8.94962
643 1 17.2967 11.007 20.4421 -8.94955
644 1 20.4404 11.007 20.4423 -8.94949
645 1 -0.0023531 12.5799 18.8705 -8.94928
646 1 1.57017 14.153 20.4433 -8.94917
647 1 3.14002 12.581 18.8735 -8.94759
648 1 4.71478 14.1538 20.4457 -8.95156
649 1 6.2859 12.581 18.8777 -8.95927
650 1 7.86204 14.1532 20.4446 -8.95067
651 1 9.43372 12.5797 18.8707 -8.95185
652 1 11.0074 14.1523 20.4439 -8.95257
653 1 12.5797 12.5788 18.8698 -8.94887
654 1 14.1523 14.1517 20.4424 -8.94964
655 1 15.7249 12.5794 18.87 -8.94898
656 1 17.2968 14.1519 20.4421 -8.94941
657 1 18.8686 12.5795 18.8698 -8.94957
658 1 20.4405 14.1522 20.4422 -8.94943
659 1 22.0119 15.7256 18.8703 -8.9497
660 1 1.5705 17.2985 20.443 -8.94821
661 1 3.13983 15.7289 18.8737 -8.94453
662 1 4.71608 17.2985 20.4433 -8.94963
663 1 6.28783 15.7275 18.8734 -8.94914
371 1 9.43489 15.7252 22.015 -8.94968
353 1 3.14299 12.58 22.0154 -8.9494
361 1 15.7245 12.5794 22.0143 -8.94954
369 1 6.28928 15.7254 22.0152 -8.94976
365 1 -0.00113081 15.725 22.0145 -8.94943
381 1 3.14409 18.87 22.0145 -8.94959
387 1 12.5799 18.8697 22.0146 -8.94947
537 1 14.1536 20.443 11.0063 -8.9494
530 1 14.1566 17.3011 11.0053 -8.94759
