ITEM: TIMESTEP
82
ITEM: NUMBER OF ATOMS
687
ITEM: BOX BOUNDS pp pp pp
0.0000000000000000e+00 2.2013900999999997e+01
0.0000000000000000e+00 2.2013900999999997e+01
0.0000000000000000e+00 2.2013900999999997e+01
ITEM: ATOMS id type x y z c_pot
1 1 22.0137 8.62687e-16 0.000176215 -8.94944
2 1 1.57222 1.57221 1.57242 -8.94963
196 1 20.4414 7.86181 11.007 -8.9499
4 1 4.71716 1.57221 1.57242 -8.94955
5 1 6.28961 -1.13192e-15 0.000205531 -8.94956
6 1 7.86209 1.5722 1.57242 -8.94957
175 1 18.8691 9.43457 9.43424 -8.9499
8 1 11.007 1.57222 1.57242 -8.94956
9 1 12.5795 -9.84434e-16 0.000211602 -8.94955
10 1 14.1519 1.57225 1.57242 -8.94958
195 1 17.299 7.86179 11.0067 -8.95176
12 1 17.2968 1.57225 1.57242 -8.94944
13 1 18.8692 1.62996e-15 0.000126694 -8.94934
14 1 20.4413 1.57229 1.57242 -8.94934
15 1 22.0135 3.14441 0.000262476 -8.94921
16 1 1.57182 4.71664 1.57242 -8.94954
194 1 14.1619 7.85838 11.0045 -8.95823
18 1 4.71705 4.71668 1.57242 -8.9496
174 1 15.7256 9.43525 9.43397 -8.94974
20 1 7.86217 4.71668 1.57242 -8.94955
173 1 12.5825 9.43705 9.43402 -8.95289
22 1 11.0072 4.71677 1.57242 -8.94952
193 1 11.0475 7.82529 10.9737 -8.85409
24 1 14.1522 4.71692 1.57242 -8.95002
25 1 15.7247 3.14444 0.000444112 -8.94949
26 1 17.2967 4.7172 1.57242 -8.94971
27 1 18.8691 3.14468 0.000185815 -8.94961
28 1 20.4412 4.71708 1.57242 -8.94958
192 1 7.84753 7.85449 10.9834 -8.90462
30 1 1.5717 7.86173 1.57242 -8.94941
31 1 3.14392 6.28872 0.00106277 -8.94999
32 1 4.71682 7.8616 1.57242 -8.95063
172 1 9.44911 9.41099 9.42692 -8.90462
34 1 7.86237 7.86171 1.57242 -8.95022
171 1 6.2491 9.4013 9.39771 -8.85409
36 1 11.0072 7.86207 1.57242 -8.95038
37 1 12.5799 6.28934 0.000916208 -8.95063
38 1 14.1521 7.86217 1.57242 -8.94954
39 1 15.7245 6.28968 0.000279068 -8.94972
40 1 17.2968 7.86206 1.57242 -8.94956
41 1 18.869 6.28958 0.000173222 -8.94954
42 1 20.4412 7.86199 1.57242 -8.94957
170 1 3.13476 9.43208 9.4308 -8.95823
169 1 22.0115 9.43425 9.43421 -8.95176
45 1 6.28951 9.4344 0.00159559 -8.95141
46 1 9.43469 9.43465 0.00052807 -8.94944
47 1 12.5797 9.43467 0.000333766 -8.94937
168 1 18.8699 6.28925 9.43418 -8.9502
167 1 15.7284 6.28771 9.43251 -8.95088
50 1 22.0137 4.98524e-16 3.14467 -8.94944
51 1 1.57198 1.57198 4.71686 -8.94949
52 1 3.1447 -7.76905e-16 3.14467 -8.94958
53 1 4.71704 1.57203 4.71686 -8.9495
54 1 6.28961 -1.13846e-15 3.14464 -8.94956
55 1 7.86203 1.57204 4.71677 -8.94953
56 1 9.43455 -1.34464e-15 3.14462 -8.94957
57 1 11.0071 1.57206 4.71676 -8.94949
58 1 12.5795 -1.12061e-15 3.14463 -8.94955
59 1 14.1521 1.57207 4.71674 -8.94965
60 1 15.7244 -7.03195e-16 3.14464 -8.94963
61 1 17.2971 1.57216 4.71683 -8.94921
62 1 18.8692 1.57163e-15 3.14472 -8.94934
63 1 20.4415 1.57224 4.7171 -8.94961
64 1 22.0135 3.14441 3.14458 -8.94921
65 1 1.5711 4.71594 4.71612 -8.94824
66 1 3.14451 3.14432 3.14449 -8.94965
67 1 4.71663 4.71603 4.71602 -8.94966
68 1 6.28958 3.14433 3.14448 -8.94949
69 1 7.86206 4.71617 4.71603 -8.94938
70 1 9.4346 3.14435 3.14446 -8.94953
71 1 11.0073 4.7163 4.71597 -8.94915
72 1 12.5796 3.14443 3.14445 -8.9495
73 1 14.1529 4.71624 4.71563 -8.94944
74 1 15.7247 3.14444 3.1444 -8.94949
75 1 17.297 4.71704 4.71679 -8.94985
76 1 18.8691 3.14468 3.14466 -8.94961
77 1 20.4411 4.71688 4.71689 -8.94956
78 1 -0.000569015 6.28931 3.1445 -8.94952
79 1 1.571 7.86134 4.716 -8.94923
80 1 3.14392 6.28872 3.14378 -8.94999
81 1 4.71553 7.86049 4.71368 -8.95153
82 1 6.28958 6.28892 3.14387 -8.94968
83 1 7.86234 7.86106 4.71459 -8.95054
84 1 9.43485 6.28898 3.14394 -8.94962
85 1 11.0074 7.86182 4.71511 -8.95247
86 1 12.5799 6.28934 3.14393 -8.95063
87 1 14.1522 7.86233 4.71658 -8.94963
88 1 15.7245 6.28968 3.14456 -8.94972
89 1 17.2968 7.86207 4.71686 -8.94944
90 1 18.869 6.28958 3.14467 -8.94954
91 1 20.441 7.86188 4.71682 -8.94947
92 1 22.0133 9.43439 3.14447 -8.94952
93 1 3.14373 9.43414 3.1437 -8.94939
94 1 6.28951 9.4344 3.14325 -8.95141
95 1 9.43469 9.43465 3.14431 -8.94944
96 1 12.5797 9.43467 3.14451 -8.94937
97 1 15.7245 9.43452 3.14455 -8.94957
98 1 18.869 9.43448 3.14464 -8.94958
99 1 22.0138 1.4183e-15 6.28962 -8.94971
100 1 1.57218 1.57214 7.86211 -8.94972
101 1 3.14443 1.76247e-15 6.28934 -8.95002
102 1 4.71677 1.57151 7.86176 -8.95063
103 1 6.28942 1.35669e-15 6.28919 -8.94952
104 1 7.86178 1.57152 7.86141 -8.94962
105 1 9.43447 5.2832e-16 6.2891 -8.94955
106 1 11.0071 1.57145 7.86135 -8.94968
107 1 12.5796 -4.80755e-16 6.2891 -8.9496
108 1 14.1527 1.57136 7.86114 -8.94999
109 1 15.7248 -1.51081e-16 6.28906 -8.94954
110 1 17.2972 1.57208 7.86174 -8.94952
111 1 18.8693 1.54079e-15 6.2895 -8.94958
112 1 20.4416 1.57225 7.862 -8.94954
113 1 22.0136 3.14437 6.28946 -8.94985
114 1 1.57139 4.71625 7.86182 -8.95038
115 1 3.14371 3.14321 6.28866 -8.94944
116 1 4.71442 4.71277 7.8595 -8.9499
117 1 6.28929 3.14355 6.28872 -8.94915
118 1 7.86155 4.71412 7.85973 -8.94777
119 1 9.43458 3.14361 6.2886 -8.94938
120 1 11.0082 4.71383 7.85952 -8.94918
121 1 12.58 3.14359 6.28845 -8.94966
122 1 14.1559 4.71333 7.85804 -8.94455
123 1 15.7255 3.1437 6.28836 -8.94824
124 1 17.2981 4.71637 7.86115 -8.94968
125 1 18.8695 3.14447 6.2893 -8.94956
126 1 20.4415 4.71685 7.86189 -8.94984
127 1 22.0124 6.28872 6.2888 -8.94968
128 1 1.56824 7.86009 7.86013 -8.95088
129 1 3.14069 6.28562 6.28575 -8.94455
130 1 4.70444 7.85023 7.84972 -8.92995
131 1 6.28848 6.2871 6.28625 -8.94918
132 1 7.8613 7.85711 7.8535 -8.95093
133 1 9.43509 6.28731 6.28655 -8.94777
134 1 11.0131 7.85559 7.8518 -8.95332
135 1 12.5822 6.28707 6.28519 -8.9499
136 1 14.154 7.86212 7.86054 -8.95163
137 1 15.7252 6.2894 6.28867 -8.95038
138 1 17.2973 7.86217 7.86159 -8.94981
139 1 18.869 6.28947 6.28927 -8.94984
140 1 20.4406 7.86176 7.86167 -8.9502
141 1 -0.00159882 9.43416 6.28868 -8.94929
142 1 3.14109 9.43317 6.28607 -8.94764
143 1 6.28667 9.43318 6.28166 -8.95923
144 1 9.43397 9.43447 6.28816 -8.95178
145 1 12.5797 9.4353 6.28898 -8.94895
146 1 15.7249 9.43457 6.28886 -8.949
147 1 18.8689 9.43444 6.28916 -8.94956
148 1 -0.00011683 1.72769e-15 9.43449 -8.94956
149 1 3.14457 1.54675e-15 9.43459 -8.94954
150 1 6.28945 2.42631e-15 9.43449 -8.95038
151 1 9.43426 -2.97403e-15 9.43413 -8.95022
152 1 12.5798 -1.45773e-15 9.43402 -8.95063
153 1 15.7249 1.07887e-15 9.43415 -8.94941
154 1 18.8693 1.77282e-15 9.43441 -8.94957
155 1 -0.000194105 3.14444 9.43449 -8.94944
156 1 3.14442 3.14416 9.43476 -8.94963
157 1 6.28926 3.14269 9.43424 -8.95247
158 1 9.4343 3.14217 9.43348 -8.95054
159 1 12.5811 3.14126 9.43291 -8.95153
160 1 15.7256 3.14358 9.43377 -8.94923
161 1 18.8695 3.14439 9.4343 -8.94947
162 1 22.0132 6.28917 9.43459 -8.94981
163 1 3.14264 6.28812 9.43454 -8.95163
164 1 6.28351 6.27938 9.42801 -8.95332
165 1 9.43533 6.28108 9.42953 -8.95093
166 1 12.5922 6.2773 9.42265 -8.92995
177 1 4.71693 1.57209 11.0071 -8.94937
178 1 7.86195 1.57189 11.0071 -8.94944
179 1 11.0071 1.57083 11.0068 -8.95141
191 1 4.71413 7.86159 11.0095 -8.95289
181 1 17.2973 1.57204 11.0068 -8.94952
182 1 20.4415 1.57222 11.0069 -8.94958
184 1 4.7169 4.71656 11.0077 -8.94895
185 1 7.86267 4.71574 11.0069 -8.95178
186 1 11.01 4.70924 11.0056 -8.95923
190 1 1.571 7.86155 11.0077 -8.94974
19 1 6.28958 3.14433 0.000362988 -8.94949
49 1 18.869 9.43448 0.000203014 -8.94958
21 1 9.4346 3.14435 0.000385599 -8.94953
43 1 22.0133 9.43439 0.000377459 -8.94952
176 1 1.57212 1.57213 11.0069 -8.94957
343 1 18.8689 9.43444 18.8696 -8.94956
342 1 15.7249 9.43457 18.8699 -8.949
341 1 12.5797 9.4353 18.8698 -8.94895
340 1 9.43397 9.43447 18.8706 -8.95178
339 1 6.28667 9.43318 18.8771 -8.95923
338 1 3.14109 9.43317 18.8727 -8.94764
183 1 1.57173 4.71644 11.007 -8.949
337 1 -0.00159882 9.43416 18.8701 -8.94929
336 1 20.441 7.86188 20.4419 -8.94947
335 1 18.869 6.28947 18.8695 -8.94984
334 1 17.2968 7.86207 20.4419 -8.94944
188 1 17.2982 4.71626 11.0066 -8.94929
189 1 20.4416 4.71674 11.0069 -8.94956
333 1 15.7252 6.2894 18.8701 -8.95038
332 1 14.1522 7.86233 20.4422 -8.94963
331 1 12.5822 6.28707 18.8736 -8.9499
330 1 11.0074 7.86182 20.4436 -8.95247
329 1 9.43509 6.28731 18.8722 -8.94777
328 1 7.86234 7.86106 20.4442 -8.95054
327 1 6.28848 6.2871 18.8725 -8.94918
197 1 -0.000134504 1.25724e-15 12.5794 -8.94959
198 1 1.57212 1.57213 14.1518 -8.94957
199 1 3.14449 2.18852e-15 12.5794 -8.94967
200 1 4.71693 1.57209 14.1517 -8.94937
201 1 6.28935 -5.13423e-15 12.5794 -8.94918
202 1 7.86195 1.57189 14.1517 -8.94944
203 1 9.43427 -1.20471e-14 12.5794 -8.94856
204 1 11.0071 1.57083 14.1519 -8.95141
205 1 12.5801 -1.99094e-15 12.5794 -8.95031
206 1 14.1529 1.57128 14.1522 -8.94939
207 1 15.725 -6.61011e-16 12.5794 -8.94949
208 1 17.2973 1.57204 14.1519 -8.94952
209 1 18.8693 1.84716e-15 12.5794 -8.94958
210 1 20.4415 1.57222 14.1518 -8.94958
211 1 22.0137 3.14439 12.5794 -8.94959
212 1 1.57173 4.71644 14.1518 -8.949
213 1 3.14431 3.14412 12.5794 -8.94966
214 1 4.7169 4.71656 14.151 -8.94895
215 1 6.2895 3.1447 12.5794 -8.94824
216 1 7.86267 4.71574 14.1519 -8.95178
217 1 9.43463 3.14398 12.5794 -8.9464
218 1 11.01 4.70924 14.1531 -8.95923
219 1 12.5817 3.14109 12.5794 -8.94955
220 1 14.1555 4.71365 14.1532 -8.94764
221 1 15.7257 3.14354 12.5794 -8.94947
222 1 17.2982 4.71626 14.1522 -8.94929
223 1 18.8696 3.14436 12.5794 -8.94953
224 1 20.4416 4.71674 14.1519 -8.94956
225 1 -0.000591747 6.28891 12.5794 -8.94954
226 1 1.571 7.86155 14.1511 -8.94974
227 1 3.1434 6.28808 12.5794 -8.9465
228 1 4.71413 7.86159 14.1493 -8.95289
229 1 6.29182 6.29211 12.5794 -8.94517
230 1 7.84753 7.85449 14.1753 -8.90462
231 1 9.43964 6.29325 12.5794 -9.00332
232 1 11.0475 7.82529 14.185 -8.85409
233 1 12.5899 6.27974 12.5794 -8.94213
234 1 14.1619 7.85838 14.1542 -8.95823
235 1 15.7286 6.28739 12.5794 -8.94906
236 1 17.299 7.86179 14.1521 -8.95176
237 1 18.8701 6.28908 12.5794 -8.94995
238 1 20.4414 7.86181 14.1517 -8.9499
239 1 22.0135 9.43423 12.5794 -8.94771
240 1 3.14717 9.43506 12.5794 -8.93979
241 1 6.31231 9.44452 12.5794 -8.90198
242 1 9.51235 9.20298 12.5794 -8.12047
243 1 12.5873 9.42703 12.5794 -8.97292
244 1 15.7266 9.43492 12.5794 -8.95114
245 1 18.8696 9.43461 12.5794 -8.94946
246 1 -0.00011683 1.82926e-15 15.7243 -8.94956
247 1 1.57218 1.57214 17.2966 -8.94972
248 1 3.14457 1.71225e-15 15.7242 -8.94954
249 1 4.71677 1.57151 17.297 -8.95063
250 1 6.28945 2.06646e-15 15.7243 -8.95038
251 1 7.86178 1.57152 17.2973 -8.94962
252 1 9.43426 -2.96579e-15 15.7246 -8.95022
253 1 11.0071 1.57145 17.2974 -8.94968
254 1 12.5798 -1.41666e-15 15.7247 -8.95063
255 1 14.1527 1.57136 17.2976 -8.94999
256 1 15.7249 1.1565e-15 15.7246 -8.94941
257 1 17.2972 1.57208 17.297 -8.94952
258 1 18.8693 1.90984e-15 15.7243 -8.94957
259 1 20.4416 1.57225 17.2967 -8.94954
260 1 -0.000194105 3.14444 15.7243 -8.94944
261 1 1.57139 4.71625 17.2969 -8.95038
262 1 3.14442 3.14416 15.724 -8.94963
263 1 4.71442 4.71277 17.2992 -8.9499
264 1 6.28926 3.14269 15.7245 -8.95247
265 1 7.86155 4.71412 17.299 -8.94777
266 1 9.4343 3.14217 15.7253 -8.95054
267 1 11.0082 4.71383 17.2992 -8.94918
268 1 12.5811 3.14126 15.7258 -8.95153
269 1 14.1559 4.71333 17.3007 -8.94455
270 1 15.7256 3.14358 15.725 -8.94923
271 1 17.2981 4.71637 17.2976 -8.94968
272 1 18.8695 3.14439 15.7244 -8.94947
273 1 20.4415 4.71685 17.2969 -8.94984
274 1 22.0132 6.28917 15.7242 -8.94981
275 1 1.56824 7.86009 17.2986 -8.95088
276 1 3.14264 6.28812 15.7242 -8.95163
277 1 4.70444 7.85023 17.309 -8.92995
278 1 6.28351 6.27938 15.7307 -8.95332
279 1 7.8613 7.85711 17.3052 -8.95093
280 1 9.43533 6.28108 15.7292 -8.95093
281 1 11.0131 7.85559 17.3069 -8.95332
282 1 12.5922 6.2773 15.7361 -8.92995
283 1 14.154 7.86212 17.2982 -8.95163
284 1 15.7284 6.28771 15.7262 -8.95088
285 1 17.2973 7.86217 17.2972 -8.94981
286 1 18.8699 6.28925 15.7246 -8.9502
287 1 20.4406 7.86176 17.2971 -8.9502
288 1 22.0115 9.43425 15.7245 -8.95176
289 1 3.13476 9.43208 15.7279 -8.95823
290 1 6.2491 9.4013 15.761 -8.85409
291 1 9.44911 9.41099 15.7318 -8.90462
292 1 12.5825 9.43705 15.7247 -8.95289
293 1 15.7256 9.43525 15.7248 -8.94974
294 1 18.8691 9.43457 15.7245 -8.9499
295 1 22.0138 1.71888e-15 18.8691 -8.94971
296 1 1.57198 1.57198 20.4419 -8.94949
297 1 3.14443 1.69443e-15 18.8694 -8.95002
298 1 4.71704 1.57203 20.4419 -8.9495
299 1 6.28942 1.09281e-15 18.8695 -8.94952
300 1 7.86203 1.57204 20.442 -8.94953
301 1 9.43447 1.14255e-15 18.8696 -8.94955
302 1 11.0071 1.57206 20.442 -8.94949
303 1 12.5796 6.80794e-16 18.8696 -8.9496
304 1 14.1521 1.57207 20.442 -8.94965
305 1 15.7248 1.71245e-16 18.8697 -8.94954
306 1 17.2971 1.57216 20.4419 -8.94921
307 1 18.8693 1.86423e-15 18.8692 -8.94958
308 1 20.4415 1.57224 20.4416 -8.94961
309 1 22.0136 3.14437 18.8693 -8.94985
310 1 1.5711 4.71594 20.4426 -8.94824
311 1 3.14371 3.14321 18.8701 -8.94944
312 1 4.71663 4.71603 20.4427 -8.94966
313 1 6.28929 3.14355 18.87 -8.94915
314 1 7.86206 4.71617 20.4427 -8.94938
315 1 9.43458 3.14361 18.8701 -8.94938
316 1 11.0073 4.7163 20.4428 -8.94915
317 1 12.58 3.14359 18.8703 -8.94966
318 1 14.1529 4.71624 20.4431 -8.94944
319 1 15.7255 3.1437 18.8704 -8.94824
320 1 17.297 4.71704 20.442 -8.94985
321 1 18.8695 3.14447 18.8694 -8.94956
322 1 20.4411 4.71688 20.4419 -8.94956
323 1 22.0124 6.28872 18.8699 -8.94968
324 1 1.571 7.86134 20.4427 -8.94923
325 1 3.14069 6.28562 18.873 -8.94455
326 1 4.71553 7.86049 20.4451 -8.95153
7 1 9.43455 -1.15844e-15 22.0141 -8.94957
48 1 15.7245 9.43452 22.0142 -8.94957
44 1 3.14373 9.43414 22.015 -8.94939
33 1 6.28958 6.28892 22.0149 -8.94968
35 1 9.43485 6.28898 22.0148 -8.94962
3 1 3.1447 -7.87238e-16 22.0141 -8.94958
11 1 15.7244 -6.46726e-16 22.0141 -8.94963
17 1 3.14451 3.14432 22.0143 -8.94965
23 1 12.5796 3.14443 22.0143 -8.9495
29 1 -0.000569015 6.28931 22.0142 -8.94952
180 1 14.1529 1.57128 11.0066 -8.94939
187 1 14.1555 4.71365 11.0056 -8.94764
344 1 1.57165 11.007 1.57242 -8.94949
345 1 4.71653 11.007 1.57242 -8.95031
346 1 7.86236 11.007 1.57242 -8.94856
347 1 11.0073 11.007 1.57242 -8.94918
348 1 14.1521 11.007 1.57242 -8.94967
349 1 17.2968 11.007 1.57242 -8.94959
350 1 20.4412 11.007 1.57242 -8.94958
511 1 18.8695 18.8695 9.4343 -8.94947
352 1 1.5717 14.1522 1.57242 -8.94941
510 1 15.7256 18.8703 9.43377 -8.94923
354 1 4.71682 14.1523 1.57242 -8.95063
355 1 6.28951 12.5795 0.00159559 -8.95141
356 1 7.86237 14.1522 1.57242 -8.95022
357 1 9.43469 12.5792 0.00052807 -8.94944
358 1 11.0072 14.1518 1.57242 -8.95038
359 1 12.5797 12.5792 0.000333766 -8.94937
360 1 14.1521 14.1517 1.57242 -8.94954
509 1 12.5811 18.8726 9.43291 -8.95153
362 1 17.2968 14.1518 1.57242 -8.94956
508 1 9.4343 18.8717 9.43348 -8.95054
364 1 20.4412 14.1519 1.57242 -8.94957
539 1 20.4415 20.4417 11.0069 -8.94958
366 1 1.57182 17.2973 1.57242 -8.94954
367 1 3.14392 15.7252 0.00106277 -8.94999
368 1 4.71705 17.2972 1.57242 -8.9496
507 1 6.28926 18.8712 9.43424 -8.95247
370 1 7.86217 17.2972 1.57242 -8.94955
506 1 3.14442 18.8697 9.43476 -8.94963
372 1 11.0072 17.2971 1.57242 -8.94952
373 1 12.5799 15.7246 0.000916208 -8.95063
374 1 14.1522 17.297 1.57242 -8.95002
375 1 15.7245 15.7242 0.000279068 -8.94972
376 1 17.2967 17.2967 1.57242 -8.94971
377 1 18.869 15.7243 0.000173222 -8.94954
378 1 20.4412 17.2968 1.57242 -8.94958
379 1 22.0135 18.8695 0.000262476 -8.94921
380 1 1.57222 20.4417 1.57242 -8.94963
538 1 17.2973 20.4419 11.0068 -8.94952
382 1 4.71716 20.4417 1.57242 -8.94955
505 1 -0.000194105 18.8695 9.43449 -8.94944
384 1 7.86209 20.4417 1.57242 -8.94957
504 1 18.8699 15.7247 9.43418 -8.9502
386 1 11.007 20.4417 1.57242 -8.94956
536 1 11.0071 20.4431 11.0068 -8.95141
388 1 14.1519 20.4416 1.57242 -8.94958
389 1 15.7247 18.8695 0.000444112 -8.94949
390 1 17.2968 20.4417 1.57242 -8.94944
391 1 18.8691 18.8692 0.000185815 -8.94961
392 1 20.4413 20.4416 1.57242 -8.94934
393 1 1.57092 11.007 4.71596 -8.94947
394 1 4.71494 11.007 4.71351 -8.94955
395 1 7.862 11.007 4.7164 -8.9464
396 1 11.0071 11.007 4.71712 -8.94824
397 1 14.1523 11.007 4.71654 -8.94966
398 1 17.2968 11.007 4.71681 -8.94959
399 1 20.441 11.007 4.71679 -8.94953
400 1 22.0133 12.5795 3.14447 -8.94952
401 1 1.571 14.1526 4.716 -8.94923
402 1 3.14373 12.5798 3.1437 -8.94939
403 1 4.71553 14.1534 4.71368 -8.95153
404 1 6.28951 12.5795 3.14325 -8.95141
405 1 7.86234 14.1528 4.71459 -8.95054
406 1 9.43469 12.5792 3.14431 -8.94944
407 1 11.0074 14.1521 4.71511 -8.95247
408 1 12.5797 12.5792 3.14451 -8.94937
409 1 14.1522 14.1516 4.71658 -8.94963
410 1 15.7245 12.5794 3.14455 -8.94957
411 1 17.2968 14.1518 4.71686 -8.94944
412 1 18.869 12.5794 3.14464 -8.94958
413 1 20.441 14.152 4.71682 -8.94947
414 1 -0.000569015 15.7246 3.1445 -8.94952
415 1 1.5711 17.298 4.71612 -8.94824
416 1 3.14392 15.7252 3.14378 -8.94999
417 1 4.71663 17.2979 4.71602 -8.94966
418 1 6.28958 15.725 3.14387 -8.94968
419 1 7.86206 17.2977 4.71603 -8.94938
420 1 9.43485 15.7249 3.14394 -8.94962
421 1 11.0073 17.2976 4.71597 -8.94915
422 1 12.5799 15.7246 3.14393 -8.95063
423 1 14.1529 17.2977 4.71563 -8.94944
424 1 15.7245 15.7242 3.14456 -8.94972
425 1 17.297 17.2969 4.71679 -8.94985
426 1 18.869 15.7243 3.14467 -8.94954
427 1 20.4411 17.297 4.71689 -8.94956
428 1 22.0135 18.8695 3.14458 -8.94921
429 1 1.57198 20.4419 4.71686 -8.94949
430 1 3.14451 18.8696 3.14449 -8.94965
431 1 4.71704 20.4419 4.71686 -8.9495
432 1 6.28958 18.8696 3.14448 -8.94949
433 1 7.86203 20.4419 4.71677 -8.94953
434 1 9.4346 18.8696 3.14446 -8.94953
435 1 11.0071 20.4418 4.71676 -8.94949
436 1 12.5796 18.8695 3.14445 -8.9495
437 1 14.1521 20.4418 4.71674 -8.94965
438 1 15.7247 18.8695 3.1444 -8.94949
439 1 17.2971 20.4417 4.71683 -8.94921
440 1 18.8691 18.8692 3.14466 -8.94961
441 1 20.4415 20.4417 4.7171 -8.94961
442 1 1.56806 11.007 7.85981 -8.94906
443 1 4.70676 11.007 7.85216 -8.94213
444 1 7.85699 11.007 7.86567 -9.00332
445 1 11.0048 11.007 7.86453 -8.94517
446 1 14.1532 11.007 7.86051 -8.9465
447 1 17.2972 11.007 7.86133 -8.94954
448 1 20.4404 11.007 7.8615 -8.94995
449 1 -0.00159882 12.5797 6.28868 -8.94929
450 1 1.56824 14.1538 7.86013 -8.95088
451 1 3.14109 12.5807 6.28607 -8.94764
452 1 4.70444 14.1637 7.84972 -8.92995
453 1 6.28667 12.5807 6.28166 -8.95923
454 1 7.8613 14.1568 7.8535 -8.95093
455 1 9.43397 12.5794 6.28816 -8.95178
456 1 11.0131 14.1583 7.8518 -8.95332
457 1 12.5797 12.5786 6.28898 -8.94895
458 1 14.154 14.1518 7.86054 -8.95163
459 1 15.7249 12.5793 6.28886 -8.949
460 1 17.2973 14.1517 7.86159 -8.94981
461 1 18.8689 12.5795 6.28916 -8.94956
462 1 20.4406 14.1521 7.86167 -8.9502
463 1 22.0124 15.7252 6.2888 -8.94968
464 1 1.57139 17.2977 7.86182 -8.95038
465 1 3.14069 15.7283 6.28575 -8.94455
466 1 4.71442 17.3011 7.8595 -8.9499
467 1 6.28848 15.7268 6.28625 -8.94918
468 1 7.86155 17.2998 7.85973 -8.94777
469 1 9.43509 15.7266 6.28655 -8.94777
470 1 11.0082 17.3001 7.85952 -8.94918
471 1 12.5822 15.7268 6.28519 -8.9499
472 1 14.1559 17.3006 7.85804 -8.94455
473 1 15.7252 15.7245 6.28867 -8.95038
474 1 17.2981 17.2975 7.86115 -8.94968
475 1 18.869 15.7244 6.28927 -8.94984
476 1 20.4415 17.297 7.86189 -8.94984
477 1 22.0136 18.8695 6.28946 -8.94985
478 1 1.57218 20.4418 7.86211 -8.94972
479 1 3.14371 18.8707 6.28866 -8.94944
480 1 4.71677 20.4424 7.86176 -8.95063
481 1 6.28929 18.8704 6.28872 -8.94915
482 1 7.86178 20.4424 7.86141 -8.94962
483 1 9.43458 18.8703 6.2886 -8.94938
484 1 11.0071 20.4425 7.86135 -8.94968
485 1 12.58 18.8703 6.28845 -8.94966
486 1 14.1527 20.4425 7.86114 -8.94999
487 1 15.7255 18.8702 6.28836 -8.94824
488 1 17.2972 20.4418 7.86174 -8.94952
489 1 18.8695 18.8694 6.2893 -8.94956
490 1 20.4416 20.4417 7.862 -8.94954
491 1 22.0115 12.5796 9.43421 -8.95176
492 1 3.13476 12.5818 9.4308 -8.95823
493 1 6.2491 12.6126 9.39771 -8.85409
494 1 9.44911 12.6029 9.42692 -8.90462
495 1 12.5825 12.5768 9.43402 -8.95289
496 1 15.7256 12.5787 9.43397 -8.94974
497 1 18.8691 12.5793 9.43424 -8.9499
498 1 22.0132 15.7247 9.43459 -8.94981
499 1 3.14264 15.7258 9.43454 -8.95163
500 1 6.28351 15.7345 9.42801 -8.95332
501 1 9.43533 15.7328 9.42953 -8.95093
502 1 12.5922 15.7366 9.42265 -8.92995
503 1 15.7284 15.7262 9.43251 -8.95088
512 1 1.57001 11.007 11.0073 -8.95114
513 1 4.70939 11.007 10.9995 -8.97292
514 1 7.78429 11.007 10.7754 -8.12047
515 1 10.9843 11.007 11.0169 -8.90198
516 1 14.1495 11.007 11.0075 -8.93979
517 1 17.297 11.007 11.0067 -8.94771
518 1 20.4409 11.007 11.007 -8.94946
519 1 1.571 14.1524 11.0077 -8.94974
520 1 4.71413 14.1523 11.0095 -8.95289
521 1 7.84753 14.1594 10.9834 -8.90462
522 1 11.0475 14.1886 10.9737 -8.85409
523 1 14.1619 14.1555 11.0045 -8.95823
524 1 17.299 14.1521 11.0067 -8.95176
525 1 20.4414 14.1521 11.007 -8.9499
527 1 4.7169 17.2973 11.0077 -8.94895
528 1 7.86267 17.2982 11.0069 -8.95178
529 1 11.01 17.3047 11.0056 -8.95923
535 1 7.86195 20.442 11.0071 -8.94944
534 1 4.71693 20.4418 11.0071 -8.94937
351 1 22.0133 12.5795 0.000377459 -8.94952
385 1 9.4346 18.8696 0.000385599 -8.94953
383 1 6.28958 18.8696 0.000362988 -8.94949
363 1 18.869 12.5794 0.000203014 -8.94958
687 3 8.64832 11.007 12.5794 2.30883
686 1 20.4415 20.4417 20.4416 -8.94961
685 1 18.8695 18.8694 18.8694 -8.94956
684 1 17.2971 20.4417 20.4419 -8.94921
683 1 15.7255 18.8702 18.8704 -8.94824
682 1 14.1521 20.4418 20.442 -8.94965
681 1 12.58 18.8703 18.8703 -8.94966
680 1 11.0071 20.4418 20.442 -8.94949
679 1 9.43458 18.8703 18.8701 -8.94938
678 1 7.86203 20.4419 20.442 -8.94953
677 1 6.28929 18.8704 18.87 -8.94915
676 1 4.71704 20.4419 20.4419 -8.9495
675 1 3.14371 18.8707 18.8701 -8.94944
674 1 1.57198 20.4419 20.4419 -8.94949
526 1 1.57173 17.2975 11.007 -8.949
673 1 22.0136 18.8695 18.8693 -8.94985
672 1 20.4411 17.297 20.4419 -8.94956
671 1 18.869 15.7244 18.8695 -8.94984
670 1 17.297 17.2969 20.442 -8.94985
531 1 17.2982 17.2976 11.0066 -8.94929
532 1 20.4416 17.2972 11.0069 -8.94956
533 1 1.57212 20.4418 11.0069 -8.94957
669 1 15.7252 15.7245 18.8701 -8.95038
668 1 14.1529 17.2977 20.4431 -8.94944
667 1 12.5822 15.7268 18.8736 -8.9499
666 1 11.0073 17.2976 20.4428 -8.94915
665 1 9.43509 15.7266 18.8722 -8.94777
664 1 7.86206 17.2977 20.4427 -8.94938
540 1 1.57001 11.007 14.1514 -8.95114
541 1 4.70939 11.007 14.1593 -8.97292
542 1 7.78429 11.007 14.3833 -8.12047
543 1 10.9843 11.007 14.1418 -8.90198
544 1 14.1495 11.007 14.1513 -8.93979
545 1 17.297 11.007 14.1521 -8.94771
546 1 20.4409 11.007 14.1517 -8.94946
547 1 22.0135 12.5797 12.5794 -8.94771
548 1 1.571 14.1524 14.1511 -8.94974
549 1 3.14717 12.5788 12.5794 -8.93979
550 1 4.71413 14.1523 14.1493 -8.95289
551 1 6.31231 12.5694 12.5794 -8.90198
552 1 7.84753 14.1594 14.1753 -8.90462
553 1 9.51235 12.8109 12.5794 -8.12047
554 1 11.0475 14.1886 14.185 -8.85409
555 1 12.5873 12.5869 12.5794 -8.97292
556 1 14.1619 14.1555 14.1542 -8.95823
557 1 15.7266 12.579 12.5794 -8.95114
558 1 17.299 14.1521 14.1521 -8.95176
559 1 18.8696 12.5793 12.5794 -8.94946
560 1 20.4414 14.1521 14.1517 -8.9499
561 1 -0.000591747 15.725 12.5794 -8.94954
562 1 1.57173 17.2975 14.1518 -8.949
563 1 3.1434 15.7258 12.5794 -8.9465
564 1 4.7169 17.2973 14.151 -8.94895
565 1 6.29182 15.7218 12.5794 -8.94517
566 1 7.86267 17.2982 14.1519 -8.95178
567 1 9.43964 15.7206 12.5794 -9.00332
568 1 11.01 17.3047 14.1531 -8.95923
569 1 12.5899 15.7342 12.5794 -8.94213
570 1 14.1555 17.3003 14.1532 -8.94764
571 1 15.7286 15.7265 12.5794 -8.94906
572 1 17.2982 17.2976 14.1522 -8.94929
573 1 18.8701 15.7248 12.5794 -8.94995
574 1 20.4416 17.2972 14.1519 -8.94956
575 1 22.0137 18.8695 12.5794 -8.94959
576 1 1.57212 20.4418 14.1518 -8.94957
577 1 3.14431 18.8698 12.5794 -8.94966
578 1 4.71693 20.4418 14.1517 -8.94937
579 1 6.2895 18.8692 12.5794 -8.94824
580 1 7.86195 20.442 14.1517 -8.94944
581 1 9.43463 18.8699 12.5794 -8.9464
582 1 11.0071 20.4431 14.1519 -8.95141
583 1 12.5817 18.8728 12.5794 -8.94955
584 1 14.1529 20.4426 14.1522 -8.94939
585 1 15.7257 18.8704 12.5794 -8.94947
586 1 17.2973 20.4419 14.1519 -8.94952
587 1 18.8696 18.8695 12.5794 -8.94953
588 1 20.4415 20.4417 14.1518 -8.94958
589 1 1.56806 11.007 17.2989 -8.94906
590 1 4.70676 11.007 17.3066 -8.94213
591 1 7.85699 11.007 17.2931 -9.00332
592 1 11.0048 11.007 17.2942 -8.94517
593 1 14.1532 11.007 17.2982 -8.9465
594 1 17.2972 11.007 17.2974 -8.94954
595 1 20.4404 11.007 17.2972 -8.94995
596 1 22.0115 12.5796 15.7245 -8.95176
597 1 1.56824 14.1538 17.2986 -8.95088
598 1 3.13476 12.5818 15.7279 -8.95823
599 1 4.70444 14.1637 17.309 -8.92995
600 1 6.2491 12.6126 15.761 -8.85409
601 1 7.8613 14.1568 17.3052 -8.95093
602 1 9.44911 12.6029 15.7318 -8.90462
603 1 11.0131 14.1583 17.3069 -8.95332
604 1 12.5825 12.5768 15.7247 -8.95289
605 1 14.154 14.1518 17.2982 -8.95163
606 1 15.7256 12.5787 15.7248 -8.94974
607 1 17.2973 14.1517 17.2972 -8.94981
608 1 18.8691 12.5793 15.7245 -8.9499
609 1 20.4406 14.1521 17.2971 -8.9502
610 1 22.0132 15.7247 15.7242 -8.94981
611 1 1.57139 17.2977 17.2969 -8.95038
612 1 3.14264 15.7258 15.7242 -8.95163
613 1 4.71442 17.3011 17.2992 -8.9499
614 1 6.28351 15.7345 15.7307 -8.95332
615 1 7.86155 17.2998 17.299 -8.94777
616 1 9.43533 15.7328 15.7292 -8.95093
617 1 11.0082 17.3001 17.2992 -8.94918
618 1 12.5922 15.7366 15.7361 -8.92995
619 1 14.1559 17.3006 17.3007 -8.94455
620 1 15.7284 15.7262 15.7262 -8.95088
621 1 17.2981 17.2975 17.2976 -8.94968
622 1 18.8699 15.7247 15.7246 -8.9502
623 1 20.4415 17.297 17.2969 -8.94984
624 1 -0.000194105 18.8695 15.7243 -8.94944
625 1 1.57218 20.4418 17.2966 -8.94972
626 1 3.14442 18.8697 15.724 -8.94963
627 1 4.71677 20.4424 17.297 -8.95063
628 1 6.28926 18.8712 15.7245 -8.95247
629 1 7.86178 20.4424 17.2973 -8.94962
630 1 9.4343 18.8717 15.7253 -8.95054
631 1 11.0071 20.4425 17.2974 -8.94968
632 1 12.5811 18.8726 15.7258 -8.95153
633 1 14.1527 20.4425 17.2976 -8.94999
634 1 15.7256 18.8703 15.725 -8.94923
635 1 17.2972 20.4418 17.297 -8.94952
636 1 18.8695 18.8695 15.7244 -8.94947
637 1 20.4416 20.4417 17.2967 -8.94954
638 1 1.57092 11.007 20.4428 -8.94947
639 1 4.71494 11.007 20.4452 -8.94955
640 1 7.862 11.007 20.4423 -8.9464
641 1 11.0071 11.007 20.4416 -8.94824
642 1 14.1523 11.007 20.4422 -8.94966
643 1 17.2968 11.007 20.4419 -8.94959
644 1 20.441 11.007 20.442 -8.94953
645 1 -0.00159882 12.5797 18.8701 -8.94929
646 1 1.571 14.1526 20.4427 -8.94923
647 1 3.14109 12.5807 18.8727 -8.94764
648 1 4.71553 14.1534 20.4451 -8.95153
649 1 6.28667 12.5807 18.8771 -8.95923
650 1 7.86234 14.1528 20.4442 -8.95054
651 1 9.43397 12.5794 18.8706 -8.95178
652 1 11.0074 14.1521 20.4436 -8.95247
653 1 12.5797 12.5786 18.8698 -8.94895
654 1 14.1522 14.1516 20.4422 -8.94963
655 1 15.7249 12.5793 18.8699 -8.949
656 1 17.2968 14.1518 20.4419 -8.94944
657 1 18.8689 12.5795 18.8696 -8.94956
658 1 20.441 14.152 20.4419 -8.94947
659 1 22.0124 15.7252 18.8699 -8.94968
660 1 1.5711 17.298 20.4426 -8.94824
661 1 3.14069 15.7283 18.873 -8.94455
662 1 4.71663 17.2979 20.4427 -8.94966
663 1 6.28848 15.7268 18.8725 -8.94918
371 1 9.43485 15.7249 22.0148 -8.94962
353 1 3.14373 12.5798 22.015 -8.94939
361 1 15.7245 12.5794 22.0142 -8.94957
369 1 6.28958 15.725 22.0149 -8.94968
365 1 -0.000569015 15.7246 22.0142 -8.94952
381 1 3.14451 18.8696 22.0143 -8.94965
387 1 12.5796 18.8695 22.0143 -8.9495
537 1 14.1529 20.4426 11.0066 -8.94939
530 1 14.1555 17.3003 11.0056 -8.94764
