ITEM: TIMESTEP
48
ITEM: NUMBER OF ATOMS
687
ITEM: BOX BOUNDS pp pp pp
0.0000000000000000e+00 2.2013900999999997e+01
0.0000000000000000e+00 2.2013900999999997e+01
0.0000000000000000e+00 2.2013900999999997e+01
ITEM: ATOMS id type x y z c_pot
1 1 22.0139 -1.26036e-15 4.12044e-09 -8.94963
2 1 1.57242 1.57242 1.57242 -8.94963
196 1 20.4415 7.86211 11.007 -8.94964
4 1 4.71726 1.57242 1.57242 -8.94963
5 1 6.28969 -8.62496e-16 4.5904e-09 -8.94963
6 1 7.86211 1.57242 1.57242 -8.94963
175 1 18.8691 9.43453 9.43453 -8.94964
8 1 11.007 1.57242 1.57242 -8.94963
9 1 12.5794 5.52778e-16 9.17056e-09 -8.94963
10 1 14.1518 1.57242 1.57242 -8.94963
195 1 17.2967 7.8621 11.0069 -8.94975
12 1 17.2966 1.57242 1.57242 -8.94963
13 1 18.8691 3.72933e-16 1.21495e-09 -8.94963
14 1 20.4415 1.57242 1.57242 -8.94963
15 1 22.0139 3.14484 3.14699e-08 -8.94963
16 1 1.57242 4.71726 1.57242 -8.94963
194 1 14.1523 7.86196 11.0068 -8.9512
18 1 4.71726 4.71726 1.57242 -8.94963
174 1 15.7242 9.43452 9.43451 -8.94963
20 1 7.86211 4.71726 1.57242 -8.94963
173 1 12.5798 9.43448 9.43423 -8.94911
22 1 11.007 4.71726 1.57242 -8.94963
193 1 11.0162 7.85337 10.9979 -8.89131
24 1 14.1518 4.71726 1.57242 -8.94963
25 1 15.7242 3.14484 7.98202e-08 -8.94963
26 1 17.2966 4.71726 1.57242 -8.94963
27 1 18.8691 3.14484 1.58468e-10 -8.94963
28 1 20.4415 4.71726 1.57242 -8.94963
192 1 7.85911 7.86017 11.0035 -8.93186
30 1 1.57242 7.86211 1.57242 -8.94963
31 1 3.14484 6.28968 2.21996e-06 -8.94963
32 1 4.71726 7.86211 1.57242 -8.94964
172 1 9.43753 9.4311 9.4326 -8.93186
34 1 7.86211 7.86211 1.57242 -8.94963
171 1 6.28047 9.42551 9.42579 -8.89131
36 1 11.007 7.86211 1.57242 -8.94964
37 1 12.5794 6.28968 2.03575e-06 -8.94963
38 1 14.1518 7.86211 1.57242 -8.94963
39 1 15.7242 6.28969 -5.41779e-08 -8.94963
40 1 17.2966 7.86211 1.57242 -8.94963
41 1 18.8691 6.28969 -4.78781e-09 -8.94963
42 1 20.4415 7.86211 1.57242 -8.94963
170 1 3.14429 9.43437 9.43438 -8.9512
169 1 22.0139 9.43453 9.43452 -8.94975
45 1 6.28968 9.43452 2.89135e-05 -8.94974
46 1 9.43454 9.43452 1.92222e-05 -8.94966
47 1 12.5794 9.43453 2.06887e-08 -8.94964
168 1 18.8691 6.28969 9.43453 -8.94964
167 1 15.7243 6.28967 9.43451 -8.94968
50 1 22.0139 -1.07709e-15 3.14484 -8.94963
51 1 1.57242 1.57242 4.71726 -8.94963
52 1 3.14484 -2.68653e-16 3.14484 -8.94963
53 1 4.71726 1.57242 4.71726 -8.94963
54 1 6.28969 -7.75445e-16 3.14484 -8.94963
55 1 7.86211 1.57242 4.71726 -8.94963
56 1 9.43453 -9.83134e-17 3.14484 -8.94963
57 1 11.007 1.57242 4.71726 -8.94963
58 1 12.5794 3.49991e-16 3.14484 -8.94963
59 1 14.1518 1.57242 4.71726 -8.94963
60 1 15.7242 4.54526e-16 3.14484 -8.94963
61 1 17.2966 1.57242 4.71726 -8.94963
62 1 18.8691 1.32676e-16 3.14484 -8.94963
63 1 20.4415 1.57242 4.71726 -8.94963
64 1 22.0139 3.14484 3.14484 -8.94963
65 1 1.57242 4.71726 4.71726 -8.94962
66 1 3.14484 3.14484 3.14484 -8.94963
67 1 4.71727 4.71727 4.71727 -8.94966
68 1 6.28969 3.14484 3.14484 -8.94963
69 1 7.86211 4.71726 4.71726 -8.94964
70 1 9.43453 3.14484 3.14484 -8.94963
71 1 11.0069 4.71726 4.71727 -8.94964
72 1 12.5794 3.14484 3.14484 -8.94963
73 1 14.1518 4.71726 4.71726 -8.94963
74 1 15.7242 3.14484 3.14484 -8.94963
75 1 17.2966 4.71726 4.71726 -8.94963
76 1 18.8691 3.14484 3.14484 -8.94963
77 1 20.4415 4.71726 4.71726 -8.94963
78 1 9.36205e-08 6.28969 3.14484 -8.94963
79 1 1.57242 7.86211 4.71727 -8.94966
80 1 3.14484 6.28968 3.14484 -8.94963
81 1 4.71724 7.86208 4.71722 -8.94964
82 1 6.28969 6.28969 3.14484 -8.94964
83 1 7.86211 7.86211 4.71726 -8.94963
84 1 9.43453 6.28969 3.14484 -8.94964
85 1 11.007 7.86209 4.71723 -8.94968
86 1 12.5794 6.28968 3.14484 -8.94963
87 1 14.1518 7.86211 4.71726 -8.94964
88 1 15.7242 6.28969 3.14484 -8.94963
89 1 17.2966 7.86211 4.71726 -8.94963
90 1 18.8691 6.28969 3.14484 -8.94963
91 1 20.4415 7.86211 4.71726 -8.94963
92 1 22.0139 9.43453 3.14484 -8.94963
93 1 3.14484 9.43453 3.14484 -8.94963
94 1 6.28968 9.43452 3.14481 -8.94974
95 1 9.43454 9.43452 3.14482 -8.94966
96 1 12.5794 9.43453 3.14484 -8.94964
97 1 15.7242 9.43453 3.14484 -8.94963
98 1 18.8691 9.43453 3.14484 -8.94963
99 1 22.0139 1.10923e-15 6.28969 -8.94963
100 1 1.57242 1.57242 7.86211 -8.94963
101 1 3.14484 7.41114e-17 6.28969 -8.94963
102 1 4.71726 1.57242 7.86211 -8.94963
103 1 6.28969 4.05923e-16 6.28969 -8.94963
104 1 7.86211 1.57242 7.86211 -8.94964
105 1 9.43453 -1.05147e-15 6.28969 -8.94963
106 1 11.0069 1.57242 7.86211 -8.94964
107 1 12.5794 -1.99159e-16 6.28969 -8.94963
108 1 14.1518 1.57242 7.86211 -8.94963
109 1 15.7242 1.68931e-15 6.28969 -8.94963
110 1 17.2966 1.57242 7.86211 -8.94963
111 1 18.8691 6.82494e-16 6.28969 -8.94963
112 1 20.4415 1.57242 7.86211 -8.94963
113 1 22.0139 3.14484 6.28969 -8.94963
114 1 1.57242 4.71727 7.86211 -8.94965
115 1 3.14484 3.14484 6.28968 -8.94963
116 1 4.71725 4.71722 7.86209 -8.94965
117 1 6.28969 3.14484 6.28969 -8.94964
118 1 7.86211 4.71726 7.8621 -8.94962
119 1 9.43453 3.14484 6.28969 -8.94964
120 1 11.0069 4.71728 7.86212 -8.94991
121 1 12.5794 3.14484 6.28969 -8.94966
122 1 14.1518 4.71723 7.86208 -8.94935
123 1 15.7242 3.14484 6.28968 -8.94962
124 1 17.2966 4.71726 7.86211 -8.94963
125 1 18.8691 3.14484 6.28969 -8.94963
126 1 20.4415 4.71726 7.86211 -8.94963
127 1 22.0139 6.28968 6.28968 -8.94963
128 1 1.57238 7.86209 7.86209 -8.94968
129 1 3.14481 6.28965 6.28965 -8.94935
130 1 4.71664 7.86147 7.86148 -8.94521
131 1 6.2897 6.2897 6.2897 -8.94991
132 1 7.86224 7.86208 7.8619 -8.95142
133 1 9.43452 6.28967 6.28968 -8.94962
134 1 11.0072 7.8619 7.86151 -8.95079
135 1 12.5794 6.28967 6.28965 -8.94965
136 1 14.1518 7.8621 7.8621 -8.94979
137 1 15.7242 6.28969 6.28969 -8.94965
138 1 17.2966 7.86211 7.86211 -8.94963
139 1 18.8691 6.28969 6.28969 -8.94963
140 1 20.4415 7.86211 7.86211 -8.94964
141 1 6.39142e-07 9.43453 6.28969 -8.94963
142 1 3.14485 9.43453 6.2897 -8.94984
143 1 6.28945 9.43429 6.28906 -8.95078
144 1 9.43474 9.43432 6.28937 -8.94893
145 1 12.5794 9.43454 6.28967 -8.94974
146 1 15.7242 9.43453 6.28969 -8.94965
147 1 18.8691 9.43453 6.28969 -8.94963
148 1 4.2876e-09 1.50855e-15 9.43453 -8.94963
149 1 3.14484 1.87486e-15 9.43453 -8.94963
150 1 6.28968 1.94745e-15 9.43453 -8.94964
151 1 9.43453 -2.99502e-16 9.43453 -8.94963
152 1 12.5794 -7.85084e-16 9.43453 -8.94964
153 1 15.7242 4.73851e-16 9.43453 -8.94963
154 1 18.8691 8.82116e-16 9.43453 -8.94963
155 1 6.61219e-08 3.14484 9.43453 -8.94963
156 1 3.14484 3.14484 9.43453 -8.94964
157 1 6.28967 3.14481 9.43451 -8.94968
158 1 9.43452 3.14483 9.43453 -8.94963
159 1 12.5794 3.1448 9.43451 -8.94964
160 1 15.7242 3.14484 9.43453 -8.94966
161 1 18.8691 3.14484 9.43453 -8.94963
162 1 22.0139 6.28969 9.43453 -8.94963
163 1 3.14484 6.28968 9.43452 -8.94979
164 1 6.28946 6.28909 9.43432 -8.95079
165 1 9.4344 6.28948 9.4345 -8.95142
166 1 12.58 6.28906 9.43389 -8.94521
177 1 4.71726 1.57242 11.007 -8.94964
178 1 7.8621 1.5724 11.0069 -8.94966
179 1 11.007 1.57239 11.0069 -8.94974
191 1 4.71683 7.86181 11.0069 -8.94911
181 1 17.2966 1.57242 11.007 -8.94963
182 1 20.4415 1.57242 11.007 -8.94963
184 1 4.71725 4.71725 11.007 -8.94974
185 1 7.8619 4.71695 11.0067 -8.94893
186 1 11.0072 4.71664 11.0067 -8.95078
190 1 1.57239 7.86209 11.0069 -8.94963
19 1 6.28969 3.14484 5.45258e-08 -8.94963
49 1 18.8691 9.43453 6.9962e-09 -8.94963
21 1 9.43453 3.14484 5.68471e-10 -8.94963
43 1 22.0139 9.43453 3.7825e-08 -8.94963
176 1 1.57242 1.57242 11.007 -8.94963
343 1 18.8691 9.43453 18.8691 -8.94963
342 1 15.7242 9.43453 18.8691 -8.94965
341 1 12.5794 9.43454 18.8691 -8.94974
340 1 9.43474 9.43432 18.8694 -8.94893
339 1 6.28945 9.43429 18.8697 -8.95078
338 1 3.14485 9.43453 18.869 -8.94984
183 1 1.57242 4.71727 11.007 -8.94965
337 1 6.39142e-07 9.43453 18.8691 -8.94963
336 1 20.4415 7.86211 20.4415 -8.94963
335 1 18.8691 6.28969 18.8691 -8.94963
334 1 17.2966 7.86211 20.4415 -8.94963
188 1 17.2966 4.71726 11.007 -8.94963
189 1 20.4415 4.71726 11.007 -8.94963
333 1 15.7242 6.28969 18.8691 -8.94965
332 1 14.1518 7.86211 20.4415 -8.94964
331 1 12.5794 6.28967 18.8691 -8.94965
330 1 11.007 7.86209 20.4415 -8.94968
329 1 9.43452 6.28967 18.8691 -8.94962
328 1 7.86211 7.86211 20.4415 -8.94963
327 1 6.2897 6.2897 18.869 -8.94991
197 1 8.09058e-09 1.02579e-15 12.5794 -8.94963
198 1 1.57242 1.57242 14.1518 -8.94963
199 1 3.14484 2.01741e-15 12.5794 -8.94963
200 1 4.71726 1.57242 14.1518 -8.94964
201 1 6.28969 1.08491e-15 12.5794 -8.94963
202 1 7.8621 1.5724 14.1518 -8.94966
203 1 9.43453 6.07789e-16 12.5794 -8.94983
204 1 11.007 1.57239 14.1518 -8.94974
205 1 12.5794 -6.91957e-17 12.5794 -8.94963
206 1 14.1518 1.57242 14.1518 -8.94963
207 1 15.7242 4.75869e-16 12.5794 -8.94963
208 1 17.2966 1.57242 14.1518 -8.94963
209 1 18.8691 1.10747e-15 12.5794 -8.94963
210 1 20.4415 1.57242 14.1518 -8.94963
211 1 22.0139 3.14484 12.5794 -8.94963
212 1 1.57242 4.71727 14.1518 -8.94965
213 1 3.14484 3.14484 12.5794 -8.94962
214 1 4.71725 4.71725 14.1518 -8.94974
215 1 6.28969 3.14484 12.5794 -8.94966
216 1 7.8619 4.71695 14.152 -8.94893
217 1 9.43452 3.14445 12.5794 -8.95131
218 1 11.0072 4.71664 14.152 -8.95078
219 1 12.5794 3.14483 12.5794 -8.94959
220 1 14.1518 4.71727 14.1518 -8.94984
221 1 15.7242 3.14484 12.5794 -8.94965
222 1 17.2966 4.71726 14.1518 -8.94963
223 1 18.8691 3.14484 12.5794 -8.94963
224 1 20.4415 4.71726 14.1518 -8.94963
225 1 4.96331e-07 6.28969 12.5794 -8.94963
226 1 1.57239 7.86209 14.1518 -8.94963
227 1 3.14485 6.28968 12.5794 -8.94952
228 1 4.71683 7.86181 14.1518 -8.94911
229 1 6.28979 6.28957 12.5794 -8.95121
230 1 7.85911 7.86017 14.1552 -8.93186
231 1 9.43479 6.28318 12.5794 -8.97729
232 1 11.0162 7.85337 14.1608 -8.89131
233 1 12.5796 6.28943 12.5794 -8.95094
234 1 14.1523 7.86196 14.152 -8.9512
235 1 15.7242 6.28968 12.5794 -8.94959
236 1 17.2967 7.8621 14.1518 -8.94975
237 1 18.8691 6.28969 12.5794 -8.94963
238 1 20.4415 7.86211 14.1518 -8.94964
239 1 22.0139 9.43452 12.5794 -8.94968
240 1 3.14442 9.43431 12.5794 -8.9489
241 1 6.28721 9.43169 12.5794 -8.90719
242 1 9.50235 9.28408 12.5794 -8.03959
243 1 12.5841 9.4338 12.5794 -8.96439
244 1 15.7245 9.43453 12.5794 -8.95079
245 1 18.8691 9.43453 12.5794 -8.94969
246 1 4.28761e-09 1.60101e-15 15.7242 -8.94963
247 1 1.57242 1.57242 17.2966 -8.94963
248 1 3.14484 1.93472e-15 15.7242 -8.94963
249 1 4.71726 1.57242 17.2966 -8.94963
250 1 6.28968 1.85281e-15 15.7242 -8.94964
251 1 7.86211 1.57242 17.2966 -8.94964
252 1 9.43453 -5.34254e-16 15.7242 -8.94963
253 1 11.0069 1.57242 17.2966 -8.94964
254 1 12.5794 -8.5979e-16 15.7242 -8.94964
255 1 14.1518 1.57242 17.2966 -8.94963
256 1 15.7242 4.70899e-16 15.7242 -8.94963
257 1 17.2966 1.57242 17.2966 -8.94963
258 1 18.8691 9.37437e-16 15.7242 -8.94963
259 1 20.4415 1.57242 17.2966 -8.94963
260 1 6.61219e-08 3.14484 15.7242 -8.94963
261 1 1.57242 4.71727 17.2966 -8.94965
262 1 3.14484 3.14484 15.7242 -8.94964
263 1 4.71725 4.71722 17.2967 -8.94965
264 1 6.28967 3.14481 15.7242 -8.94968
265 1 7.86211 4.71726 17.2966 -8.94962
266 1 9.43452 3.14483 15.7242 -8.94963
267 1 11.0069 4.71728 17.2966 -8.94991
268 1 12.5794 3.1448 15.7242 -8.94964
269 1 14.1518 4.71723 17.2967 -8.94935
270 1 15.7242 3.14484 15.7242 -8.94966
271 1 17.2966 4.71726 17.2966 -8.94963
272 1 18.8691 3.14484 15.7242 -8.94963
273 1 20.4415 4.71726 17.2966 -8.94963
274 1 22.0139 6.28969 15.7242 -8.94963
275 1 1.57238 7.86209 17.2967 -8.94968
276 1 3.14484 6.28968 15.7242 -8.94979
277 1 4.71664 7.86147 17.2973 -8.94521
278 1 6.28946 6.28909 15.7244 -8.95079
279 1 7.86224 7.86208 17.2968 -8.95142
280 1 9.4344 6.28948 15.7242 -8.95142
281 1 11.0072 7.8619 17.2972 -8.95079
282 1 12.58 6.28906 15.7249 -8.94521
283 1 14.1518 7.8621 17.2966 -8.94979
284 1 15.7243 6.28967 15.7242 -8.94968
285 1 17.2966 7.86211 17.2966 -8.94963
286 1 18.8691 6.28969 15.7242 -8.94964
287 1 20.4415 7.86211 17.2966 -8.94964
288 1 22.0139 9.43453 15.7242 -8.94975
289 1 3.14429 9.43437 15.7244 -8.9512
290 1 6.28047 9.42551 15.7329 -8.89131
291 1 9.43753 9.4311 15.7261 -8.93186
292 1 12.5798 9.43448 15.7245 -8.94911
293 1 15.7242 9.43452 15.7242 -8.94963
294 1 18.8691 9.43453 15.7242 -8.94964
295 1 22.0139 1.01673e-15 18.8691 -8.94963
296 1 1.57242 1.57242 20.4415 -8.94963
297 1 3.14484 4.06808e-16 18.8691 -8.94963
298 1 4.71726 1.57242 20.4415 -8.94963
299 1 6.28969 8.61537e-16 18.8691 -8.94963
300 1 7.86211 1.57242 20.4415 -8.94963
301 1 9.43453 -1.18562e-15 18.8691 -8.94963
302 1 11.007 1.57242 20.4415 -8.94963
303 1 12.5794 -1.37084e-16 18.8691 -8.94963
304 1 14.1518 1.57242 20.4415 -8.94963
305 1 15.7242 1.56456e-15 18.8691 -8.94963
306 1 17.2966 1.57242 20.4415 -8.94963
307 1 18.8691 4.95473e-16 18.8691 -8.94963
308 1 20.4415 1.57242 20.4415 -8.94963
309 1 22.0139 3.14484 18.8691 -8.94963
310 1 1.57242 4.71726 20.4415 -8.94962
311 1 3.14484 3.14484 18.8691 -8.94963
312 1 4.71727 4.71727 20.4415 -8.94966
313 1 6.28969 3.14484 18.8691 -8.94964
314 1 7.86211 4.71726 20.4415 -8.94964
315 1 9.43453 3.14484 18.8691 -8.94964
316 1 11.0069 4.71726 20.4415 -8.94964
317 1 12.5794 3.14484 18.8691 -8.94966
318 1 14.1518 4.71726 20.4415 -8.94963
319 1 15.7242 3.14484 18.8691 -8.94962
320 1 17.2966 4.71726 20.4415 -8.94963
321 1 18.8691 3.14484 18.8691 -8.94963
322 1 20.4415 4.71726 20.4415 -8.94963
323 1 22.0139 6.28968 18.8691 -8.94963
324 1 1.57242 7.86211 20.4415 -8.94966
325 1 3.14481 6.28965 18.8691 -8.94935
326 1 4.71724 7.86208 20.4415 -8.94964
7 1 9.43453 -8.74412e-17 22.0139 -8.94963
48 1 15.7242 9.43453 22.0139 -8.94963
44 1 3.14484 9.43453 22.0139 -8.94963
33 1 6.28969 6.28969 22.0139 -8.94964
35 1 9.43453 6.28969 22.0139 -8.94964
3 1 3.14484 -5.5859e-16 22.0139 -8.94963
11 1 15.7242 4.73173e-16 22.0139 -8.94963
17 1 3.14484 3.14484 22.0139 -8.94963
23 1 12.5794 3.14484 22.0139 -8.94963
29 1 9.36205e-08 6.28969 22.0139 -8.94963
180 1 14.1518 1.57242 11.007 -8.94963
187 1 14.1518 4.71727 11.007 -8.94984
344 1 1.57242 11.007 1.57242 -8.94963
345 1 4.71726 11.007 1.57242 -8.94963
346 1 7.86211 11.007 1.57242 -8.94983
347 1 11.007 11.007 1.57242 -8.94963
348 1 14.1518 11.007 1.57242 -8.94963
349 1 17.2966 11.007 1.57242 -8.94963
350 1 20.4415 11.007 1.57242 -8.94963
511 1 18.8691 18.8691 9.43453 -8.94963
352 1 1.57242 14.1518 1.57242 -8.94963
510 1 15.7242 18.8691 9.43453 -8.94966
354 1 4.71726 14.1518 1.57242 -8.94964
355 1 6.28968 12.5794 2.89135e-05 -8.94974
356 1 7.86211 14.1518 1.57242 -8.94963
357 1 9.43454 12.5794 1.92222e-05 -8.94966
358 1 11.007 14.1518 1.57242 -8.94964
359 1 12.5794 12.5794 2.06887e-08 -8.94964
360 1 14.1518 14.1518 1.57242 -8.94963
509 1 12.5794 18.8691 9.43451 -8.94964
362 1 17.2966 14.1518 1.57242 -8.94963
508 1 9.43452 18.8691 9.43453 -8.94963
364 1 20.4415 14.1518 1.57242 -8.94963
539 1 20.4415 20.4415 11.007 -8.94963
366 1 1.57242 17.2966 1.57242 -8.94963
367 1 3.14484 15.7242 2.21996e-06 -8.94963
368 1 4.71726 17.2966 1.57242 -8.94963
507 1 6.28967 18.8691 9.43451 -8.94968
370 1 7.86211 17.2966 1.57242 -8.94963
506 1 3.14484 18.8691 9.43453 -8.94964
372 1 11.007 17.2966 1.57242 -8.94963
373 1 12.5794 15.7242 2.03575e-06 -8.94963
374 1 14.1518 17.2966 1.57242 -8.94963
375 1 15.7242 15.7242 -5.41779e-08 -8.94963
376 1 17.2966 17.2966 1.57242 -8.94963
377 1 18.8691 15.7242 -4.78781e-09 -8.94963
378 1 20.4415 17.2966 1.57242 -8.94963
379 1 22.0139 18.8691 3.14699e-08 -8.94963
380 1 1.57242 20.4415 1.57242 -8.94963
538 1 17.2966 20.4415 11.007 -8.94963
382 1 4.71726 20.4415 1.57242 -8.94963
505 1 6.61219e-08 18.8691 9.43453 -8.94963
384 1 7.86211 20.4415 1.57242 -8.94963
504 1 18.8691 15.7242 9.43453 -8.94964
386 1 11.007 20.4415 1.57242 -8.94963
536 1 11.007 20.4415 11.0069 -8.94974
388 1 14.1518 20.4415 1.57242 -8.94963
389 1 15.7242 18.8691 7.98202e-08 -8.94963
390 1 17.2966 20.4415 1.57242 -8.94963
391 1 18.8691 18.8691 1.58468e-10 -8.94963
392 1 20.4415 20.4415 1.57242 -8.94963
393 1 1.57242 11.007 4.71726 -8.94965
394 1 4.71726 11.007 4.71725 -8.94959
395 1 7.86212 11.007 4.71687 -8.95131
396 1 11.0069 11.007 4.71726 -8.94966
397 1 14.1518 11.007 4.71726 -8.94962
398 1 17.2966 11.007 4.71726 -8.94963
399 1 20.4415 11.007 4.71726 -8.94963
400 1 22.0139 12.5794 3.14484 -8.94963
401 1 1.57242 14.1518 4.71727 -8.94966
402 1 3.14484 12.5794 3.14484 -8.94963
403 1 4.71724 14.1518 4.71722 -8.94964
404 1 6.28968 12.5794 3.14481 -8.94974
405 1 7.86211 14.1518 4.71726 -8.94963
406 1 9.43454 12.5794 3.14482 -8.94966
407 1 11.007 14.1518 4.71723 -8.94968
408 1 12.5794 12.5794 3.14484 -8.94964
409 1 14.1518 14.1518 4.71726 -8.94964
410 1 15.7242 12.5794 3.14484 -8.94963
411 1 17.2966 14.1518 4.71726 -8.94963
412 1 18.8691 12.5794 3.14484 -8.94963
413 1 20.4415 14.1518 4.71726 -8.94963
414 1 9.36205e-08 15.7242 3.14484 -8.94963
415 1 1.57242 17.2966 4.71726 -8.94962
416 1 3.14484 15.7242 3.14484 -8.94963
417 1 4.71727 17.2966 4.71727 -8.94966
418 1 6.28969 15.7242 3.14484 -8.94964
419 1 7.86211 17.2966 4.71726 -8.94964
420 1 9.43453 15.7242 3.14484 -8.94964
421 1 11.0069 17.2966 4.71727 -8.94964
422 1 12.5794 15.7242 3.14484 -8.94963
423 1 14.1518 17.2966 4.71726 -8.94963
424 1 15.7242 15.7242 3.14484 -8.94963
425 1 17.2966 17.2966 4.71726 -8.94963
426 1 18.8691 15.7242 3.14484 -8.94963
427 1 20.4415 17.2966 4.71726 -8.94963
428 1 22.0139 18.8691 3.14484 -8.94963
429 1 1.57242 20.4415 4.71726 -8.94963
430 1 3.14484 18.8691 3.14484 -8.94963
431 1 4.71726 20.4415 4.71726 -8.94963
432 1 6.28969 18.8691 3.14484 -8.94963
433 1 7.86211 20.4415 4.71726 -8.94963
434 1 9.43453 18.8691 3.14484 -8.94963
435 1 11.007 20.4415 4.71726 -8.94963
436 1 12.5794 18.8691 3.14484 -8.94963
437 1 14.1518 20.4415 4.71726 -8.94963
438 1 15.7242 18.8691 3.14484 -8.94963
439 1 17.2966 20.4415 4.71726 -8.94963
440 1 18.8691 18.8691 3.14484 -8.94963
441 1 20.4415 20.4415 4.71726 -8.94963
442 1 1.57241 11.007 7.8621 -8.94959
443 1 4.71704 11.007 7.86186 -8.95094
444 1 7.86184 11.007 7.8556 -8.97729
445 1 11.0069 11.007 7.86199 -8.95121
446 1 14.1518 11.007 7.8621 -8.94952
447 1 17.2966 11.007 7.86211 -8.94963
448 1 20.4415 11.007 7.86211 -8.94963
449 1 6.39142e-07 12.5794 6.28969 -8.94963
450 1 1.57238 14.1518 7.86209 -8.94968
451 1 3.14485 12.5794 6.2897 -8.94984
452 1 4.71664 14.1524 7.86148 -8.94521
453 1 6.28945 12.5796 6.28906 -8.95078
454 1 7.86224 14.1518 7.8619 -8.95142
455 1 9.43474 12.5796 6.28937 -8.94893
456 1 11.0072 14.152 7.86151 -8.95079
457 1 12.5794 12.5794 6.28967 -8.94974
458 1 14.1518 14.1518 7.8621 -8.94979
459 1 15.7242 12.5794 6.28969 -8.94965
460 1 17.2966 14.1518 7.86211 -8.94963
461 1 18.8691 12.5794 6.28969 -8.94963
462 1 20.4415 14.1518 7.86211 -8.94964
463 1 22.0139 15.7242 6.28968 -8.94963
464 1 1.57242 17.2966 7.86211 -8.94965
465 1 3.14481 15.7242 6.28965 -8.94935
466 1 4.71725 17.2967 7.86209 -8.94965
467 1 6.2897 15.7242 6.2897 -8.94991
468 1 7.86211 17.2966 7.8621 -8.94962
469 1 9.43452 15.7242 6.28968 -8.94962
470 1 11.0069 17.2966 7.86212 -8.94991
471 1 12.5794 15.7242 6.28965 -8.94965
472 1 14.1518 17.2967 7.86208 -8.94935
473 1 15.7242 15.7242 6.28969 -8.94965
474 1 17.2966 17.2966 7.86211 -8.94963
475 1 18.8691 15.7242 6.28969 -8.94963
476 1 20.4415 17.2966 7.86211 -8.94963
477 1 22.0139 18.8691 6.28969 -8.94963
478 1 1.57242 20.4415 7.86211 -8.94963
479 1 3.14484 18.8691 6.28968 -8.94963
480 1 4.71726 20.4415 7.86211 -8.94963
481 1 6.28969 18.8691 6.28969 -8.94964
482 1 7.86211 20.4415 7.86211 -8.94964
483 1 9.43453 18.8691 6.28969 -8.94964
484 1 11.0069 20.4415 7.86211 -8.94964
485 1 12.5794 18.8691 6.28969 -8.94966
486 1 14.1518 20.4415 7.86211 -8.94963
487 1 15.7242 18.8691 6.28968 -8.94962
488 1 17.2966 20.4415 7.86211 -8.94963
489 1 18.8691 18.8691 6.28969 -8.94963
490 1 20.4415 20.4415 7.86211 -8.94963
491 1 22.0139 12.5794 9.43452 -8.94975
492 1 3.14429 12.5795 9.43438 -8.9512
493 1 6.28047 12.5884 9.42579 -8.89131
494 1 9.43753 12.5828 9.4326 -8.93186
495 1 12.5798 12.5794 9.43423 -8.94911
496 1 15.7242 12.5794 9.43451 -8.94963
497 1 18.8691 12.5794 9.43453 -8.94964
498 1 22.0139 15.7242 9.43453 -8.94963
499 1 3.14484 15.7242 9.43452 -8.94979
500 1 6.28946 15.7248 9.43432 -8.95079
501 1 9.4344 15.7244 9.4345 -8.95142
502 1 12.58 15.7248 9.43389 -8.94521
503 1 15.7243 15.7242 9.43451 -8.94968
512 1 1.57218 11.007 11.007 -8.95079
513 1 4.7125 11.007 11.0062 -8.96439
514 1 7.79428 11.007 10.8565 -8.03959
515 1 11.0094 11.007 11.0041 -8.90719
516 1 14.1522 11.007 11.0067 -8.9489
517 1 17.2967 11.007 11.0069 -8.94968
518 1 20.4415 11.007 11.007 -8.94969
519 1 1.57239 14.1518 11.0069 -8.94963
520 1 4.71683 14.1521 11.0069 -8.94911
521 1 7.85911 14.1537 11.0035 -8.93186
522 1 11.0162 14.1605 10.9979 -8.89131
523 1 14.1523 14.1519 11.0068 -8.9512
524 1 17.2967 14.1518 11.0069 -8.94975
525 1 20.4415 14.1518 11.007 -8.94964
527 1 4.71725 17.2967 11.007 -8.94974
528 1 7.8619 17.297 11.0067 -8.94893
529 1 11.0072 17.2973 11.0067 -8.95078
535 1 7.8621 20.4415 11.0069 -8.94966
534 1 4.71726 20.4415 11.007 -8.94964
351 1 22.0139 12.5794 3.7825e-08 -8.94963
385 1 9.43453 18.8691 5.68471e-10 -8.94963
383 1 6.28969 18.8691 5.45258e-08 -8.94963
363 1 18.8691 12.5794 6.9962e-09 -8.94963
687 3 8.64832 11.007 12.5794 2.91216
686 1 20.4415 20.4415 20.4415 -8.94963
685 1 18.8691 18.8691 18.8691 -8.94963
684 1 17.2966 20.4415 20.4415 -8.94963
683 1 15.7242 18.8691 18.8691 -8.94962
682 1 14.1518 20.4415 20.4415 -8.94963
681 1 12.5794 18.8691 18.8691 -8.94966
680 1 11.007 20.4415 20.4415 -8.94963
679 1 9.43453 18.8691 18.8691 -8.94964
678 1 7.86211 20.4415 20.4415 -8.94963
677 1 6.28969 18.8691 18.8691 -8.94964
676 1 4.71726 20.4415 20.4415 -8.94963
675 1 3.14484 18.8691 18.8691 -8.94963
674 1 1.57242 20.4415 20.4415 -8.94963
526 1 1.57242 17.2966 11.007 -8.94965
673 1 22.0139 18.8691 18.8691 -8.94963
672 1 20.4415 17.2966 20.4415 -8.94963
671 1 18.8691 15.7242 18.8691 -8.94963
670 1 17.2966 17.2966 20.4415 -8.94963
531 1 17.2966 17.2966 11.007 -8.94963
532 1 20.4415 17.2966 11.007 -8.94963
533 1 1.57242 20.4415 11.007 -8.94963
669 1 15.7242 15.7242 18.8691 -8.94965
668 1 14.1518 17.2966 20.4415 -8.94963
667 1 12.5794 15.7242 18.8691 -8.94965
666 1 11.0069 17.2966 20.4415 -8.94964
665 1 9.43452 15.7242 18.8691 -8.94962
664 1 7.86211 17.2966 20.4415 -8.94964
540 1 1.57218 11.007 14.1518 -8.95079
541 1 4.7125 11.007 14.1525 -8.96439
542 1 7.79428 11.007 14.3022 -8.03959
543 1 11.0094 11.007 14.1546 -8.90719
544 1 14.1522 11.007 14.152 -8.9489
545 1 17.2967 11.007 14.1518 -8.94968
546 1 20.4415 11.007 14.1518 -8.94969
547 1 22.0139 12.5794 12.5794 -8.94968
548 1 1.57239 14.1518 14.1518 -8.94963
549 1 3.14442 12.5796 12.5794 -8.9489
550 1 4.71683 14.1521 14.1518 -8.94911
551 1 6.28721 12.5822 12.5794 -8.90719
552 1 7.85911 14.1537 14.1552 -8.93186
553 1 9.50235 12.7298 12.5794 -8.03959
554 1 11.0162 14.1605 14.1608 -8.89131
555 1 12.5841 12.5801 12.5794 -8.96439
556 1 14.1523 14.1519 14.152 -8.9512
557 1 15.7245 12.5794 12.5794 -8.95079
558 1 17.2967 14.1518 14.1518 -8.94975
559 1 18.8691 12.5794 12.5794 -8.94969
560 1 20.4415 14.1518 14.1518 -8.94964
561 1 4.96331e-07 15.7242 12.5794 -8.94963
562 1 1.57242 17.2966 14.1518 -8.94965
563 1 3.14485 15.7242 12.5794 -8.94952
564 1 4.71725 17.2967 14.1518 -8.94974
565 1 6.28979 15.7243 12.5794 -8.95121
566 1 7.8619 17.297 14.152 -8.94893
567 1 9.43479 15.7307 12.5794 -8.97729
568 1 11.0072 17.2973 14.152 -8.95078
569 1 12.5796 15.7245 12.5794 -8.95094
570 1 14.1518 17.2966 14.1518 -8.94984
571 1 15.7242 15.7242 12.5794 -8.94959
572 1 17.2966 17.2966 14.1518 -8.94963
573 1 18.8691 15.7242 12.5794 -8.94963
574 1 20.4415 17.2966 14.1518 -8.94963
575 1 22.0139 18.8691 12.5794 -8.94963
576 1 1.57242 20.4415 14.1518 -8.94963
577 1 3.14484 18.8691 12.5794 -8.94962
578 1 4.71726 20.4415 14.1518 -8.94964
579 1 6.28969 18.8691 12.5794 -8.94966
580 1 7.8621 20.4415 14.1518 -8.94966
581 1 9.43452 18.8695 12.5794 -8.95131
582 1 11.007 20.4415 14.1518 -8.94974
583 1 12.5794 18.8691 12.5794 -8.94959
584 1 14.1518 20.4415 14.1518 -8.94963
585 1 15.7242 18.8691 12.5794 -8.94965
586 1 17.2966 20.4415 14.1518 -8.94963
587 1 18.8691 18.8691 12.5794 -8.94963
588 1 20.4415 20.4415 14.1518 -8.94963
589 1 1.57241 11.007 17.2966 -8.94959
590 1 4.71704 11.007 17.2969 -8.95094
591 1 7.86184 11.007 17.3031 -8.97729
592 1 11.0069 11.007 17.2968 -8.95121
593 1 14.1518 11.007 17.2966 -8.94952
594 1 17.2966 11.007 17.2966 -8.94963
595 1 20.4415 11.007 17.2966 -8.94963
596 1 22.0139 12.5794 15.7242 -8.94975
597 1 1.57238 14.1518 17.2967 -8.94968
598 1 3.14429 12.5795 15.7244 -8.9512
599 1 4.71664 14.1524 17.2973 -8.94521
600 1 6.28047 12.5884 15.7329 -8.89131
601 1 7.86224 14.1518 17.2968 -8.95142
602 1 9.43753 12.5828 15.7261 -8.93186
603 1 11.0072 14.152 17.2972 -8.95079
604 1 12.5798 12.5794 15.7245 -8.94911
605 1 14.1518 14.1518 17.2966 -8.94979
606 1 15.7242 12.5794 15.7242 -8.94963
607 1 17.2966 14.1518 17.2966 -8.94963
608 1 18.8691 12.5794 15.7242 -8.94964
609 1 20.4415 14.1518 17.2966 -8.94964
610 1 22.0139 15.7242 15.7242 -8.94963
611 1 1.57242 17.2966 17.2966 -8.94965
612 1 3.14484 15.7242 15.7242 -8.94979
613 1 4.71725 17.2967 17.2967 -8.94965
614 1 6.28946 15.7248 15.7244 -8.95079
615 1 7.86211 17.2966 17.2966 -8.94962
616 1 9.4344 15.7244 15.7242 -8.95142
617 1 11.0069 17.2966 17.2966 -8.94991
618 1 12.58 15.7248 15.7249 -8.94521
619 1 14.1518 17.2967 17.2967 -8.94935
620 1 15.7243 15.7242 15.7242 -8.94968
621 1 17.2966 17.2966 17.2966 -8.94963
622 1 18.8691 15.7242 15.7242 -8.94964
623 1 20.4415 17.2966 17.2966 -8.94963
624 1 6.61219e-08 18.8691 15.7242 -8.94963
625 1 1.57242 20.4415 17.2966 -8.94963
626 1 3.14484 18.8691 15.7242 -8.94964
627 1 4.71726 20.4415 17.2966 -8.94963
628 1 6.28967 18.8691 15.7242 -8.94968
629 1 7.86211 20.4415 17.2966 -8.94964
630 1 9.43452 18.8691 15.7242 -8.94963
631 1 11.0069 20.4415 17.2966 -8.94964
632 1 12.5794 18.8691 15.7242 -8.94964
633 1 14.1518 20.4415 17.2966 -8.94963
634 1 15.7242 18.8691 15.7242 -8.94966
635 1 17.2966 20.4415 17.2966 -8.94963
636 1 18.8691 18.8691 15.7242 -8.94963
637 1 20.4415 20.4415 17.2966 -8.94963
638 1 1.57242 11.007 20.4415 -8.94965
639 1 4.71726 11.007 20.4415 -8.94959
640 1 7.86212 11.007 20.4419 -8.95131
641 1 11.0069 11.007 20.4415 -8.94966
642 1 14.1518 11.007 20.4415 -8.94962
643 1 17.2966 11.007 20.4415 -8.94963
644 1 20.4415 11.007 20.4415 -8.94963
645 1 6.39142e-07 12.5794 18.8691 -8.94963
646 1 1.57242 14.1518 20.4415 -8.94966
647 1 3.14485 12.5794 18.869 -8.94984
648 1 4.71724 14.1518 20.4415 -8.94964
649 1 6.28945 12.5796 18.8697 -8.95078
650 1 7.86211 14.1518 20.4415 -8.94963
651 1 9.43474 12.5796 18.8694 -8.94893
652 1 11.007 14.1518 20.4415 -8.94968
653 1 12.5794 12.5794 18.8691 -8.94974
654 1 14.1518 14.1518 20.4415 -8.94964
655 1 15.7242 12.5794 18.8691 -8.94965
656 1 17.2966 14.1518 20.4415 -8.94963
657 1 18.8691 12.5794 18.8691 -8.94963
658 1 20.4415 14.1518 20.4415 -8.94963
659 1 22.0139 15.7242 18.8691 -8.94963
660 1 1.57242 17.2966 20.4415 -8.94962
661 1 3.14481 15.7242 18.8691 -8.94935
662 1 4.71727 17.2966 20.4415 -8.94966
663 1 6.2897 15.7242 18.869 -8.94991
371 1 9.43453 15.7242 22.0139 -8.94964
353 1 3.14484 12.5794 22.0139 -8.94963
361 1 15.7242 12.5794 22.0139 -8.94963
369 1 6.28969 15.7242 22.0139 -8.94964
365 1 9.36205e-08 15.7242 22.0139 -8.94963
381 1 3.14484 18.8691 22.0139 -8.94963
387 1 12.5794 18.8691 22.0139 -8.94963
537 1 14.1518 20.4415 11.007 -8.94963
530 1 14.1518 17.2966 11.007 -8.94984
