ITEM: TIMESTEP
103
ITEM: NUMBER OF ATOMS
687
ITEM: BOX BOUNDS pp pp pp
0.0000000000000000e+00 2.2013900999999997e+01
0.0000000000000000e+00 2.2013900999999997e+01
0.0000000000000000e+00 2.2013900999999997e+01
ITEM: ATOMS id type x y z c_pot
1 1 22.0136 -4.48703e-12 0.000267007 -8.94937
2 1 1.57202 1.57206 1.57242 -8.94958
196 1 20.4415 7.86178 11.007 -8.94991
4 1 4.71702 1.57207 1.57242 -8.9495
5 1 6.28952 -3.80044e-12 0.000311247 -8.94951
6 1 7.86207 1.57208 1.57242 -8.94953
175 1 18.869 9.43457 9.43421 -8.94991
8 1 11.0071 1.57211 1.57242 -8.94951
9 1 12.5796 -3.13209e-12 0.00035411 -8.9495
10 1 14.1521 1.57215 1.57242 -8.94954
195 1 17.2992 7.86165 11.0066 -8.95181
12 1 17.297 1.57215 1.57242 -8.94937
13 1 18.8693 -7.34684e-12 0.000224754 -8.94924
14 1 20.4413 1.5722 1.57242 -8.94924
15 1 22.0132 3.14418 0.000375268 -8.94915
16 1 1.57149 4.71633 1.57242 -8.94951
194 1 14.1622 7.85789 11.0044 -8.95827
18 1 4.71684 4.71637 1.57242 -8.9496
174 1 15.7256 9.43519 9.43398 -8.9498
20 1 7.86216 4.71645 1.57242 -8.94955
173 1 12.5825 9.43674 9.434 -8.95296
22 1 11.0073 4.7166 1.57242 -8.94954
193 1 11.0478 7.82466 10.9736 -8.85437
24 1 14.1524 4.7168 1.57242 -8.95008
25 1 15.7249 3.14428 0.000620707 -8.94947
26 1 17.2968 4.71711 1.57242 -8.94971
27 1 18.8691 3.14454 0.000301929 -8.94957
28 1 20.441 4.71691 1.57242 -8.94952
192 1 7.84741 7.854 10.9826 -8.90432
30 1 1.57129 7.86149 1.57242 -8.94937
31 1 3.14354 6.28839 0.00129575 -8.95
32 1 4.71657 7.86142 1.57242 -8.95068
172 1 9.44923 9.41021 9.42643 -8.90433
34 1 7.86233 7.86162 1.57242 -8.9503
171 1 6.24888 9.40118 9.39708 -8.85437
36 1 11.0072 7.86207 1.57242 -8.95043
37 1 12.58 6.28924 0.00108498 -8.95072
38 1 14.1521 7.86219 1.57242 -8.94954
39 1 15.7246 6.28964 0.000405499 -8.94974
40 1 17.2967 7.86204 1.57242 -8.94953
41 1 18.8689 6.28948 0.000276864 -8.9495
42 1 20.441 7.86186 1.57242 -8.94951
170 1 3.13441 9.43201 9.43031 -8.95827
169 1 22.0113 9.43423 9.43407 -8.95181
45 1 6.28928 9.43434 0.00172544 -8.95146
46 1 9.43462 9.43465 0.000508728 -8.94943
47 1 12.5797 9.43469 0.000333547 -8.94935
168 1 18.8701 6.28911 9.43408 -8.95025
167 1 15.7289 6.28735 9.43227 -8.95091
50 1 22.0136 -4.4873e-12 3.14458 -8.94937
51 1 1.57176 1.5718 4.7167 -8.94947
52 1 3.14452 8.25494e-13 3.14457 -8.94954
53 1 4.71685 1.57185 4.71667 -8.94948
54 1 6.28952 -3.80137e-12 3.14453 -8.94951
55 1 7.86198 1.57189 4.71656 -8.9495
56 1 9.43457 -5.1223e-12 3.1445 -8.94953
57 1 11.0072 1.57191 4.71651 -8.94945
58 1 12.5796 -3.13257e-12 3.14449 -8.9495
59 1 14.1524 1.57192 4.71644 -8.94961
60 1 15.7246 3.48692e-12 3.14448 -8.94958
61 1 17.2973 1.57205 4.7166 -8.94915
62 1 18.8693 -7.34603e-12 3.14462 -8.94924
63 1 20.4415 1.57212 4.71697 -8.94957
64 1 22.0132 3.14418 3.14447 -8.94915
65 1 1.5707 4.71555 4.71584 -8.94821
66 1 3.14425 3.14402 3.14434 -8.94961
67 1 4.71627 4.71561 4.71563 -8.94964
68 1 6.28947 3.14409 3.14433 -8.94945
69 1 7.86199 4.71584 4.7157 -8.94935
70 1 9.43466 3.14414 3.14431 -8.9495
71 1 11.0075 4.716 4.71563 -8.94914
72 1 12.5798 3.14425 3.14427 -8.94948
73 1 14.1533 4.71598 4.71526 -8.94943
74 1 15.7249 3.14428 3.14422 -8.94947
75 1 17.2971 4.71689 4.71655 -8.94987
76 1 18.8691 3.14454 3.14454 -8.94957
77 1 20.4409 4.71666 4.71671 -8.94955
78 1 -0.000920345 6.28906 3.14435 -8.94945
79 1 1.57045 7.86104 4.71563 -8.94918
80 1 3.14354 6.28839 3.14355 -8.95
81 1 4.71504 7.86019 4.71323 -8.95156
82 1 6.28941 6.28866 3.14364 -8.94974
83 1 7.86216 7.86083 4.7143 -8.95064
84 1 9.43491 6.28881 3.14377 -8.94966
85 1 11.0074 7.86167 4.71494 -8.95256
86 1 12.58 6.28924 3.14376 -8.95072
87 1 14.1523 7.86229 4.71643 -8.94964
88 1 15.7246 6.28964 3.14444 -8.94974
89 1 17.2968 7.86203 4.71671 -8.94942
90 1 18.8689 6.28948 3.14457 -8.9495
91 1 20.4407 7.86173 4.71662 -8.94944
92 1 22.0129 9.43428 3.1443 -8.94947
93 1 3.14327 9.43399 3.14344 -8.9494
94 1 6.28928 9.43434 3.14312 -8.95146
95 1 9.43462 9.43465 3.14433 -8.94943
96 1 12.5797 9.43469 3.14451 -8.94935
97 1 15.7245 9.43454 3.1445 -8.94955
98 1 18.8688 9.43445 3.14454 -8.94954
99 1 22.0138 5.20473e-11 6.28953 -8.94971
100 1 1.57208 1.57202 7.86206 -8.94974
101 1 3.14425 -1.15639e-10 6.28922 -8.95008
102 1 4.71662 1.57134 7.86166 -8.95072
103 1 6.28929 -5.39424e-11 6.28902 -8.94954
104 1 7.86173 1.57135 7.86123 -8.94966
105 1 9.43447 -6.46025e-11 6.28887 -8.94955
106 1 11.0072 1.57122 7.86109 -8.94974
107 1 12.5798 8.02534e-12 6.28879 -8.9496
108 1 14.1531 1.57113 7.86081 -8.95
109 1 15.7251 -2.66665e-10 6.28875 -8.94951
110 1 17.2976 1.57193 7.86148 -8.94945
111 1 18.8695 -2.54027e-12 6.28933 -8.94952
112 1 20.4417 1.57214 7.8619 -8.9495
113 1 22.0134 3.14413 6.28931 -8.94987
114 1 1.57109 4.71595 7.86164 -8.95044
115 1 3.14338 3.14284 6.2884 -8.94943
116 1 4.71398 4.7123 7.85904 -8.94984
117 1 6.28909 3.14321 6.28842 -8.94914
118 1 7.86147 4.71364 7.85925 -8.94771
119 1 9.43465 3.14328 6.28826 -8.94935
120 1 11.0086 4.7132 7.85901 -8.94915
121 1 12.5804 3.14321 6.28803 -8.94964
122 1 14.1566 4.71284 7.85757 -8.94453
123 1 15.7259 3.14342 6.28797 -8.94821
124 1 17.2985 4.71613 7.86086 -8.94969
125 1 18.8696 3.14429 6.28908 -8.94955
126 1 20.4415 4.71667 7.86176 -8.94988
127 1 22.012 6.28844 6.28855 -8.94969
128 1 1.5677 7.85985 7.85977 -8.95091
129 1 3.14009 6.28515 6.28526 -8.94453
130 1 4.70379 7.84985 7.84906 -8.92997
131 1 6.28802 6.28659 6.28563 -8.94915
132 1 7.86099 7.85652 7.8528 -8.9509
133 1 9.43517 6.28682 6.28607 -8.94771
134 1 11.0135 7.8549 7.85137 -8.95312
135 1 12.5827 6.28662 6.28472 -8.94984
136 1 14.1543 7.86186 7.86034 -8.95169
137 1 15.7255 6.28922 6.28837 -8.95044
138 1 17.2974 7.8621 7.86147 -8.94988
139 1 18.869 6.28934 6.28909 -8.94988
140 1 20.4404 7.86166 7.86153 -8.95025
141 1 -0.00210294 9.43403 6.28836 -8.94928
142 1 3.14034 9.43295 6.28547 -8.94759
143 1 6.28614 9.43301 6.28123 -8.95927
144 1 9.43381 9.43427 6.28812 -8.95186
145 1 12.5798 9.43519 6.28898 -8.94888
146 1 15.7249 9.43455 6.28876 -8.94898
147 1 18.8688 9.4344 6.289 -8.94956
148 1 -8.37843e-05 -7.39903e-11 9.43446 -8.94953
149 1 3.14451 5.63896e-10 9.43462 -8.94954
150 1 6.28943 -7.20664e-10 9.4345 -8.95043
151 1 9.43431 -9.46015e-10 9.43404 -8.9503
152 1 12.5801 -2.00758e-09 9.43384 -8.95068
153 1 15.7253 -7.5374e-11 9.43391 -8.94937
154 1 18.8696 -1.72872e-12 9.43428 -8.94951
155 1 -0.000188767 3.14429 9.43445 -8.94942
156 1 3.14431 3.14401 9.43471 -8.94964
157 1 6.2892 3.14252 9.43409 -8.95256
158 1 9.43448 3.14188 9.43325 -8.95064
159 1 12.5816 3.14081 9.43261 -8.95156
160 1 15.7262 3.14321 9.43346 -8.94918
161 1 18.8698 3.1442 9.43415 -8.94944
162 1 22.0131 6.28904 9.43453 -8.94988
163 1 3.14233 6.28792 9.43428 -8.95169
164 1 6.28315 6.27895 9.42732 -8.95312
165 1 9.43565 6.28038 9.42894 -8.9509
166 1 12.5928 6.27664 9.42227 -8.92997
177 1 4.71693 1.57209 11.0071 -8.94935
178 1 7.86202 1.57191 11.0071 -8.94943
179 1 11.0074 1.5707 11.0068 -8.95146
191 1 4.71413 7.86158 11.0092 -8.95296
181 1 17.2977 1.57188 11.0067 -8.94947
182 1 20.4417 1.57212 11.0069 -8.94954
184 1 4.71688 4.71656 11.0076 -8.94888
185 1 7.86283 4.7157 11.0067 -8.95186
186 1 11.0105 4.70881 11.0054 -8.95928
190 1 1.57104 7.86156 11.0076 -8.9498
19 1 6.28947 3.14409 0.000510037 -8.94945
49 1 18.8688 9.43445 0.000299216 -8.94954
21 1 9.43466 3.14414 0.000532896 -8.9495
43 1 22.0129 9.43428 0.00054125 -8.94947
176 1 1.57211 1.57208 11.007 -8.94955
343 1 18.8688 9.4344 18.8697 -8.94956
342 1 15.7249 9.43455 18.87 -8.94898
341 1 12.5798 9.43519 18.8698 -8.94888
340 1 9.43381 9.43427 18.8706 -8.95186
339 1 6.28614 9.43301 18.8775 -8.95927
338 1 3.14034 9.43295 18.8733 -8.94759
183 1 1.57171 4.71634 11.007 -8.94898
337 1 -0.00210294 9.43403 18.8704 -8.94928
336 1 20.4407 7.86173 20.4421 -8.94944
335 1 18.869 6.28934 18.8697 -8.94988
334 1 17.2968 7.86203 20.442 -8.94942
188 1 17.2987 4.71594 11.0065 -8.94928
189 1 20.4418 4.71657 11.0068 -8.94956
333 1 15.7255 6.28922 18.8704 -8.95044
332 1 14.1523 7.86229 20.4423 -8.94964
331 1 12.5827 6.28662 18.874 -8.94984
330 1 11.0074 7.86167 20.4438 -8.95256
329 1 9.43517 6.28682 18.8727 -8.94771
328 1 7.86216 7.86083 20.4444 -8.95064
327 1 6.28802 6.28659 18.8731 -8.94915
197 1 -8.67784e-05 2.48854e-12 12.5794 -8.94957
198 1 1.57211 1.57208 14.1518 -8.94955
199 1 3.14447 -1.4419e-10 12.5794 -8.94965
200 1 4.71693 1.57209 14.1516 -8.94935
201 1 6.28937 1.87684e-09 12.5794 -8.94912
202 1 7.86202 1.57191 14.1517 -8.94943
203 1 9.43437 -3.85934e-09 12.5794 -8.94848
204 1 11.0074 1.5707 14.152 -8.95146
205 1 12.5804 -1.76669e-09 12.5794 -8.95037
206 1 14.1534 1.57102 14.1523 -8.9494
207 1 15.7254 -1.48553e-10 12.5794 -8.94946
208 1 17.2977 1.57188 14.152 -8.94947
209 1 18.8696 -8.13511e-12 12.5794 -8.94953
210 1 20.4417 1.57212 14.1519 -8.94954
211 1 22.0138 3.14427 12.5794 -8.94956
212 1 1.57171 4.71634 14.1518 -8.94898
213 1 3.14432 3.1441 12.5794 -8.94963
214 1 4.71688 4.71656 14.1511 -8.94888
215 1 6.28959 3.14483 12.5794 -8.9482
216 1 7.86283 4.7157 14.1521 -8.95186
217 1 9.43489 3.14402 12.5794 -8.94633
218 1 11.0105 4.70881 14.1533 -8.95928
219 1 12.5823 3.14066 12.5794 -8.94959
220 1 14.1563 4.71305 14.1534 -8.94759
221 1 15.7263 3.14315 12.5794 -8.94944
222 1 17.2987 4.71594 14.1523 -8.94928
223 1 18.8699 3.14416 12.5794 -8.9495
224 1 20.4418 4.71657 14.1519 -8.94956
225 1 -0.000504523 6.28884 12.5794 -8.94956
226 1 1.57104 7.86156 14.1511 -8.9498
227 1 3.14345 6.2881 12.5794 -8.94647
228 1 4.71413 7.86158 14.1496 -8.95296
229 1 6.29191 6.29219 12.5794 -8.94508
230 1 7.84741 7.854 14.1761 -8.90432
231 1 9.4399 6.29319 12.5794 -9.00327
232 1 11.0478 7.82466 14.1851 -8.85437
233 1 12.5906 6.27904 12.5794 -8.94205
234 1 14.1622 7.85789 14.1543 -8.95827
235 1 15.7292 6.28692 12.5794 -8.94906
236 1 17.2992 7.86165 14.1521 -8.95181
237 1 18.8704 6.28891 12.5794 -8.94999
238 1 20.4415 7.86178 14.1518 -8.94991
239 1 22.0137 9.43428 12.5794 -8.9476
240 1 3.14764 9.43517 12.5794 -8.93979
241 1 6.31276 9.4444 12.5794 -8.90231
242 1 9.51168 9.20256 12.5794 -8.12162
243 1 12.5868 9.42661 12.5794 -8.97288
244 1 15.7264 9.43479 12.5794 -8.95106
245 1 18.8696 9.4346 12.5794 -8.94935
246 1 -8.37843e-05 -7.39903e-11 15.7243 -8.94953
247 1 1.57208 1.57202 17.2967 -8.94974
248 1 3.14451 5.63896e-10 15.7241 -8.94954
249 1 4.71662 1.57134 17.2971 -8.95072
250 1 6.28943 -7.20664e-10 15.7242 -8.95043
251 1 7.86173 1.57135 17.2975 -8.94966
252 1 9.43431 -9.46015e-10 15.7247 -8.9503
253 1 11.0072 1.57122 17.2977 -8.94974
254 1 12.5801 -2.00758e-09 15.7249 -8.95068
255 1 14.1531 1.57113 17.2979 -8.95
256 1 15.7253 -7.53741e-11 15.7248 -8.94937
257 1 17.2976 1.57193 17.2973 -8.94945
258 1 18.8696 -1.72816e-12 15.7245 -8.94951
259 1 20.4417 1.57214 17.2968 -8.9495
260 1 -0.000188767 3.14429 15.7243 -8.94942
261 1 1.57109 4.71595 17.2971 -8.95044
262 1 3.14431 3.14401 15.724 -8.94964
263 1 4.71398 4.7123 17.2997 -8.94984
264 1 6.2892 3.14252 15.7247 -8.95256
265 1 7.86147 4.71364 17.2995 -8.94771
266 1 9.43448 3.14188 15.7255 -8.95064
267 1 11.0086 4.7132 17.2997 -8.94915
268 1 12.5816 3.14081 15.7261 -8.95156
269 1 14.1566 4.71284 17.3012 -8.94453
270 1 15.7262 3.14321 15.7253 -8.94918
271 1 17.2985 4.71613 17.2979 -8.94969
272 1 18.8698 3.1442 15.7246 -8.94944
273 1 20.4415 4.71667 17.297 -8.94988
274 1 22.0131 6.28904 15.7242 -8.94988
275 1 1.5677 7.85985 17.299 -8.95091
276 1 3.14233 6.28792 15.7245 -8.95169
277 1 4.70379 7.84985 17.3097 -8.92997
278 1 6.28315 6.27895 15.7314 -8.95312
279 1 7.86099 7.85652 17.3059 -8.9509
280 1 9.43565 6.28038 15.7298 -8.9509
281 1 11.0135 7.8549 17.3074 -8.95312
282 1 12.5928 6.27664 15.7365 -8.92997
283 1 14.1543 7.86186 17.2984 -8.95169
284 1 15.7289 6.28735 15.7265 -8.95091
285 1 17.2974 7.8621 17.2973 -8.94988
286 1 18.8701 6.28911 15.7247 -8.95025
287 1 20.4404 7.86166 17.2972 -8.95025
288 1 22.0113 9.43423 15.7247 -8.95181
289 1 3.13441 9.43201 15.7284 -8.95827
290 1 6.24888 9.40118 15.7617 -8.85437
291 1 9.44923 9.41021 15.7323 -8.90433
292 1 12.5825 9.43674 15.7247 -8.95296
293 1 15.7256 9.43519 15.7248 -8.9498
294 1 18.869 9.43457 15.7245 -8.94991
295 1 22.0138 5.20471e-11 18.8692 -8.94971
296 1 1.57176 1.5718 20.442 -8.94947
297 1 3.14425 -1.15638e-10 18.8695 -8.95008
298 1 4.71685 1.57185 20.4421 -8.94948
299 1 6.28929 -5.39423e-11 18.8697 -8.94954
300 1 7.86198 1.57189 20.4422 -8.9495
301 1 9.43447 -6.46028e-11 18.8699 -8.94955
302 1 11.0072 1.57191 20.4422 -8.94945
303 1 12.5798 8.02512e-12 18.87 -8.9496
304 1 14.1524 1.57192 20.4423 -8.94961
305 1 15.7251 -2.66666e-10 18.87 -8.94951
306 1 17.2973 1.57205 20.4421 -8.94915
307 1 18.8695 -2.53999e-12 18.8694 -8.94952
308 1 20.4415 1.57212 20.4418 -8.94957
309 1 22.0134 3.14413 18.8694 -8.94987
310 1 1.5707 4.71555 20.4429 -8.94821
311 1 3.14338 3.14284 18.8703 -8.94943
312 1 4.71627 4.71561 20.4431 -8.94964
313 1 6.28909 3.14321 18.8703 -8.94914
314 1 7.86199 4.71584 20.443 -8.94935
315 1 9.43465 3.14328 18.8705 -8.94935
316 1 11.0075 4.716 20.4431 -8.94914
317 1 12.5804 3.14321 18.8707 -8.94964
318 1 14.1533 4.71598 20.4435 -8.94943
319 1 15.7259 3.14342 18.8708 -8.94821
320 1 17.2971 4.71689 20.4422 -8.94987
321 1 18.8696 3.14429 18.8697 -8.94955
322 1 20.4409 4.71666 20.442 -8.94955
323 1 22.012 6.28844 18.8702 -8.94969
324 1 1.57045 7.86104 20.4431 -8.94918
325 1 3.14009 6.28515 18.8735 -8.94453
326 1 4.71504 7.86019 20.4455 -8.95156
7 1 9.43457 -5.12157e-12 22.0142 -8.94953
48 1 15.7245 9.43454 22.0142 -8.94955
44 1 3.14327 9.43399 22.0153 -8.9494
33 1 6.28941 6.28866 22.0151 -8.94974
35 1 9.43491 6.28881 22.015 -8.94966
3 1 3.14452 8.26083e-13 22.0142 -8.94954
11 1 15.7246 3.48595e-12 22.0143 -8.94958
17 1 3.14425 3.14402 22.0144 -8.94961
23 1 12.5798 3.14425 22.0145 -8.94948
29 1 -0.000920345 6.28906 22.0144 -8.94945
180 1 14.1534 1.57102 11.0064 -8.9494
187 1 14.1563 4.71305 11.0054 -8.94759
344 1 1.57121 11.007 1.57242 -8.94946
345 1 4.71622 11.007 1.57242 -8.95037
346 1 7.86226 11.007 1.57242 -8.94848
347 1 11.0073 11.007 1.57242 -8.94912
348 1 14.1522 11.007 1.57242 -8.94965
349 1 17.2967 11.007 1.57242 -8.94957
350 1 20.4409 11.007 1.57242 -8.94953
511 1 18.8698 18.8697 9.43415 -8.94944
352 1 1.57129 14.1524 1.57242 -8.94937
510 1 15.7262 18.8707 9.43346 -8.94918
354 1 4.71657 14.1525 1.57242 -8.95068
355 1 6.28928 12.5796 0.00172544 -8.95146
356 1 7.86233 14.1523 1.57242 -8.9503
357 1 9.43462 12.5793 0.000508727 -8.94943
358 1 11.0072 14.1518 1.57242 -8.95043
359 1 12.5797 12.5792 0.000333546 -8.94935
360 1 14.1521 14.1517 1.57242 -8.94954
509 1 12.5816 18.8731 9.43261 -8.95156
362 1 17.2967 14.1519 1.57242 -8.94953
508 1 9.43448 18.872 9.43325 -8.95064
364 1 20.441 14.152 1.57242 -8.94951
539 1 20.4417 20.4418 11.0069 -8.94954
366 1 1.57149 17.2976 1.57242 -8.94951
367 1 3.14354 15.7255 0.00129575 -8.95
368 1 4.71684 17.2975 1.57242 -8.9496
507 1 6.2892 18.8714 9.43409 -8.95256
370 1 7.86216 17.2975 1.57242 -8.94955
506 1 3.14431 18.8699 9.43471 -8.94964
372 1 11.0073 17.2973 1.57242 -8.94954
373 1 12.58 15.7247 0.00108498 -8.95072
374 1 14.1524 17.2971 1.57242 -8.95008
375 1 15.7246 15.7243 0.000405499 -8.94974
376 1 17.2968 17.2968 1.57242 -8.94971
377 1 18.8689 15.7244 0.000276864 -8.9495
378 1 20.441 17.297 1.57242 -8.94952
379 1 22.0132 18.8697 0.000375268 -8.94915
380 1 1.57202 20.4418 1.57242 -8.94958
538 1 17.2977 20.442 11.0067 -8.94947
382 1 4.71702 20.4418 1.57242 -8.9495
505 1 -0.000188767 18.8696 9.43445 -8.94942
384 1 7.86207 20.4418 1.57242 -8.94953
504 1 18.8701 15.7248 9.43408 -8.95025
386 1 11.0071 20.4418 1.57242 -8.94951
536 1 11.0074 20.4432 11.0068 -8.95146
388 1 14.1521 20.4418 1.57242 -8.94954
389 1 15.7249 18.8696 0.000620707 -8.94947
390 1 17.297 20.4417 1.57242 -8.94937
391 1 18.8691 18.8694 0.000301929 -8.94957
392 1 20.4413 20.4417 1.57242 -8.94924
393 1 1.57033 11.007 4.71557 -8.94944
394 1 4.71436 11.007 4.71308 -8.94959
395 1 7.86175 11.007 4.71645 -8.94633
396 1 11.007 11.007 4.71725 -8.9482
397 1 14.1523 11.007 4.71653 -8.94963
398 1 17.2968 11.007 4.71669 -8.94956
399 1 20.4407 11.007 4.71658 -8.9495
400 1 22.0129 12.5796 3.1443 -8.94947
401 1 1.57045 14.1529 4.71563 -8.94918
402 1 3.14327 12.5799 3.14344 -8.9494
403 1 4.71504 14.1537 4.71323 -8.95156
404 1 6.28928 12.5796 3.14312 -8.95146
405 1 7.86216 14.1531 4.7143 -8.95064
406 1 9.43462 12.5793 3.14433 -8.94943
407 1 11.0074 14.1522 4.71494 -8.95256
408 1 12.5797 12.5792 3.14451 -8.94935
409 1 14.1523 14.1516 4.71643 -8.94964
410 1 15.7245 12.5794 3.1445 -8.94955
411 1 17.2968 14.1519 4.71671 -8.94942
412 1 18.8688 12.5795 3.14454 -8.94954
413 1 20.4407 14.1522 4.71662 -8.94944
414 1 -0.000920345 15.7248 3.14435 -8.94945
415 1 1.5707 17.2984 4.71584 -8.94821
416 1 3.14354 15.7255 3.14355 -8.95
417 1 4.71627 17.2983 4.71563 -8.94964
418 1 6.28941 15.7252 3.14364 -8.94974
419 1 7.86199 17.2981 4.7157 -8.94935
420 1 9.43491 15.7251 3.14377 -8.94966
421 1 11.0075 17.2979 4.71563 -8.94914
422 1 12.58 15.7247 3.14376 -8.95072
423 1 14.1533 17.2979 4.71526 -8.94943
424 1 15.7246 15.7243 3.14444 -8.94974
425 1 17.2971 17.297 4.71655 -8.94987
426 1 18.8689 15.7244 3.14457 -8.9495
427 1 20.4409 17.2972 4.71671 -8.94955
428 1 22.0132 18.8697 3.14447 -8.94915
429 1 1.57176 20.4421 4.7167 -8.94947
430 1 3.14425 18.8699 3.14434 -8.94961
431 1 4.71685 20.4421 4.71667 -8.94948
432 1 6.28947 18.8698 3.14433 -8.94945
433 1 7.86198 20.442 4.71656 -8.9495
434 1 9.43466 18.8698 3.14431 -8.9495
435 1 11.0072 20.442 4.71651 -8.94945
436 1 12.5798 18.8697 3.14427 -8.94948
437 1 14.1524 20.442 4.71644 -8.94961
438 1 15.7249 18.8696 3.14422 -8.94947
439 1 17.2973 20.4419 4.7166 -8.94915
440 1 18.8691 18.8694 3.14454 -8.94957
441 1 20.4415 20.4418 4.71697 -8.94957
442 1 1.56744 11.007 7.85935 -8.94906
443 1 4.70605 11.007 7.85146 -8.94205
444 1 7.85674 11.007 7.86561 -9.00327
445 1 11.0047 11.007 7.86462 -8.94508
446 1 14.1532 11.007 7.86052 -8.94647
447 1 17.2971 11.007 7.86126 -8.94956
448 1 20.4401 11.007 7.86133 -8.94999
449 1 -0.00210293 12.5799 6.28836 -8.94928
450 1 1.5677 14.1541 7.85977 -8.95091
451 1 3.14034 12.581 6.28547 -8.94759
452 1 4.70379 14.164 7.84906 -8.92998
453 1 6.28614 12.5809 6.28123 -8.95927
454 1 7.86099 14.1574 7.8528 -8.9509
455 1 9.43381 12.5796 6.28812 -8.95186
456 1 11.0135 14.159 7.85137 -8.95312
457 1 12.5798 12.5787 6.28898 -8.94888
458 1 14.1543 14.152 7.86034 -8.95169
459 1 15.7249 12.5793 6.28876 -8.94898
460 1 17.2974 14.1518 7.86147 -8.94988
461 1 18.8688 12.5795 6.289 -8.94956
462 1 20.4404 14.1522 7.86153 -8.95025
463 1 22.012 15.7255 6.28855 -8.94969
464 1 1.57109 17.298 7.86164 -8.95044
465 1 3.14009 15.7288 6.28526 -8.94453
466 1 4.71398 17.3016 7.85904 -8.94984
467 1 6.28802 15.7273 6.28563 -8.94915
468 1 7.86147 17.3003 7.85925 -8.94771
469 1 9.43517 15.7271 6.28607 -8.94771
470 1 11.0086 17.3007 7.85901 -8.94915
471 1 12.5827 15.7273 6.28472 -8.94984
472 1 14.1566 17.3011 7.85757 -8.94453
473 1 15.7255 15.7247 6.28837 -8.95044
474 1 17.2985 17.2978 7.86086 -8.94969
475 1 18.869 15.7246 6.28909 -8.94988
476 1 20.4415 17.2972 7.86176 -8.94988
477 1 22.0134 18.8698 6.28931 -8.94987
478 1 1.57208 20.4419 7.86206 -8.94974
479 1 3.14338 18.8711 6.2884 -8.94943
480 1 4.71662 20.4426 7.86166 -8.95072
481 1 6.28909 18.8707 6.28842 -8.94914
482 1 7.86173 20.4425 7.86123 -8.94966
483 1 9.43465 18.8706 6.28826 -8.94935
484 1 11.0072 20.4427 7.86109 -8.94974
485 1 12.5804 18.8707 6.28803 -8.94964
486 1 14.1531 20.4428 7.86081 -8.95
487 1 15.7259 18.8705 6.28797 -8.94821
488 1 17.2976 20.442 7.86148 -8.94945
489 1 18.8696 18.8696 6.28908 -8.94955
490 1 20.4417 20.4418 7.8619 -8.9495
491 1 22.0113 12.5797 9.43407 -8.95181
492 1 3.13441 12.5819 9.43031 -8.95827
493 1 6.24888 12.6127 9.39708 -8.85437
494 1 9.44923 12.6037 9.42643 -8.90433
495 1 12.5825 12.5772 9.434 -8.95296
496 1 15.7256 12.5787 9.43398 -8.9498
497 1 18.869 12.5793 9.43421 -8.94991
498 1 22.0131 15.7249 9.43453 -8.94988
499 1 3.14233 15.726 9.43428 -8.95169
500 1 6.28315 15.735 9.42732 -8.95312
501 1 9.43565 15.7335 9.42894 -8.9509
502 1 12.5928 15.7373 9.42227 -8.92997
503 1 15.7289 15.7265 9.43227 -8.95091
512 1 1.5702 11.007 11.0072 -8.95106
513 1 4.70984 11.007 10.999 -8.97288
514 1 7.78496 11.007 10.775 -8.12161
515 1 10.9839 11.007 11.0168 -8.90231
516 1 14.149 11.007 11.0076 -8.93979
517 1 17.2969 11.007 11.0067 -8.9476
518 1 20.4409 11.007 11.007 -8.94935
519 1 1.57104 14.1523 11.0076 -8.9498
520 1 4.71413 14.1523 11.0092 -8.95296
521 1 7.84741 14.1599 10.9826 -8.90432
522 1 11.0478 14.1892 10.9736 -8.85437
523 1 14.1622 14.156 11.0044 -8.95827
524 1 17.2992 14.1523 11.0066 -8.95181
525 1 20.4415 14.1521 11.007 -8.94991
527 1 4.71688 17.2973 11.0076 -8.94888
528 1 7.86283 17.2982 11.0067 -8.95186
529 1 11.0105 17.3051 11.0054 -8.95928
535 1 7.86202 20.442 11.0071 -8.94943
534 1 4.71693 20.4418 11.0071 -8.94935
351 1 22.0129 12.5796 0.00054125 -8.94947
385 1 9.43466 18.8698 0.000532896 -8.9495
383 1 6.28947 18.8698 0.000510036 -8.94945
363 1 18.8688 12.5795 0.000299216 -8.94954
687 3 8.64832 11.007 12.5794 2.30857
686 1 20.4415 20.4418 20.4418 -8.94957
685 1 18.8696 18.8696 18.8697 -8.94955
684 1 17.2973 20.4419 20.4421 -8.94915
683 1 15.7259 18.8705 18.8708 -8.94821
682 1 14.1524 20.442 20.4423 -8.94961
681 1 12.5804 18.8707 18.8707 -8.94964
680 1 11.0072 20.442 20.4422 -8.94945
679 1 9.43465 18.8706 18.8705 -8.94935
678 1 7.86198 20.442 20.4422 -8.9495
677 1 6.28909 18.8707 18.8703 -8.94914
676 1 4.71685 20.4421 20.4421 -8.94948
675 1 3.14338 18.8711 18.8703 -8.94943
674 1 1.57176 20.4421 20.442 -8.94947
526 1 1.57171 17.2976 11.007 -8.94898
673 1 22.0134 18.8698 18.8694 -8.94987
672 1 20.4409 17.2972 20.442 -8.94955
671 1 18.869 15.7246 18.8697 -8.94988
670 1 17.2971 17.297 20.4422 -8.94987
531 1 17.2987 17.298 11.0065 -8.94928
532 1 20.4418 17.2973 11.0068 -8.94956
533 1 1.57211 20.4418 11.007 -8.94955
669 1 15.7255 15.7247 18.8704 -8.95044
668 1 14.1533 17.2979 20.4435 -8.94943
667 1 12.5827 15.7273 18.874 -8.94984
666 1 11.0075 17.2979 20.4431 -8.94914
665 1 9.43517 15.7271 18.8727 -8.94771
664 1 7.86199 17.2981 20.443 -8.94935
540 1 1.5702 11.007 14.1515 -8.95106
541 1 4.70984 11.007 14.1597 -8.97288
542 1 7.78496 11.007 14.3838 -8.12161
543 1 10.9839 11.007 14.1419 -8.90231
544 1 14.149 11.007 14.1512 -8.93979
545 1 17.2969 11.007 14.152 -8.9476
546 1 20.4409 11.007 14.1517 -8.94935
547 1 22.0137 12.5796 12.5794 -8.9476
548 1 1.57104 14.1523 14.1511 -8.9498
549 1 3.14764 12.5787 12.5794 -8.93979
550 1 4.71413 14.1523 14.1496 -8.95296
551 1 6.31276 12.5695 12.5794 -8.90231
552 1 7.84741 14.1599 14.1761 -8.90432
553 1 9.51168 12.8113 12.5794 -8.12161
554 1 11.0478 14.1892 14.1851 -8.85437
555 1 12.5868 12.5873 12.5794 -8.97288
556 1 14.1622 14.156 14.1543 -8.95827
557 1 15.7264 12.5791 12.5794 -8.95106
558 1 17.2992 14.1523 14.1521 -8.95181
559 1 18.8696 12.5793 12.5794 -8.94935
560 1 20.4415 14.1521 14.1518 -8.94991
561 1 -0.000504525 15.7251 12.5794 -8.94956
562 1 1.57171 17.2976 14.1518 -8.94898
563 1 3.14345 15.7258 12.5794 -8.94647
564 1 4.71688 17.2973 14.1511 -8.94888
565 1 6.29191 15.7217 12.5794 -8.94508
566 1 7.86283 17.2982 14.1521 -8.95186
567 1 9.4399 15.7207 12.5794 -9.00327
568 1 11.0105 17.3051 14.1533 -8.95928
569 1 12.5906 15.7349 12.5794 -8.94205
570 1 14.1563 17.3009 14.1534 -8.94759
571 1 15.7292 15.727 12.5794 -8.94906
572 1 17.2987 17.298 14.1523 -8.94928
573 1 18.8704 15.725 12.5794 -8.94999
574 1 20.4418 17.2973 14.1519 -8.94956
575 1 22.0138 18.8696 12.5794 -8.94956
576 1 1.57211 20.4418 14.1518 -8.94955
577 1 3.14432 18.8698 12.5794 -8.94963
578 1 4.71693 20.4418 14.1516 -8.94935
579 1 6.28959 18.8691 12.5794 -8.9482
580 1 7.86202 20.442 14.1517 -8.94943
581 1 9.43489 18.8699 12.5794 -8.94633
582 1 11.0074 20.4432 14.152 -8.95146
583 1 12.5823 18.8732 12.5794 -8.94959
584 1 14.1534 20.4429 14.1523 -8.9494
585 1 15.7263 18.8708 12.5794 -8.94944
586 1 17.2977 20.442 14.152 -8.94947
587 1 18.8699 18.8697 12.5794 -8.9495
588 1 20.4417 20.4418 14.1519 -8.94954
589 1 1.56744 11.007 17.2994 -8.94906
590 1 4.70605 11.007 17.3073 -8.94205
591 1 7.85674 11.007 17.2931 -9.00327
592 1 11.0047 11.007 17.2941 -8.94508
593 1 14.1532 11.007 17.2982 -8.94647
594 1 17.2971 11.007 17.2975 -8.94956
595 1 20.4401 11.007 17.2974 -8.94999
596 1 22.0113 12.5797 15.7247 -8.95181
597 1 1.5677 14.1541 17.299 -8.95091
598 1 3.13441 12.5819 15.7284 -8.95827
599 1 4.70379 14.164 17.3097 -8.92998
600 1 6.24888 12.6127 15.7617 -8.85437
601 1 7.86099 14.1574 17.3059 -8.9509
602 1 9.44923 12.6037 15.7323 -8.90433
603 1 11.0135 14.159 17.3074 -8.95312
604 1 12.5825 12.5772 15.7247 -8.95296
605 1 14.1543 14.152 17.2984 -8.95169
606 1 15.7256 12.5787 15.7248 -8.9498
607 1 17.2974 14.1518 17.2973 -8.94988
608 1 18.869 12.5793 15.7245 -8.94991
609 1 20.4404 14.1522 17.2972 -8.95025
610 1 22.0131 15.7249 15.7242 -8.94988
611 1 1.57109 17.298 17.2971 -8.95044
612 1 3.14233 15.726 15.7245 -8.95169
613 1 4.71398 17.3016 17.2997 -8.94984
614 1 6.28315 15.735 15.7314 -8.95312
615 1 7.86147 17.3003 17.2995 -8.94771
616 1 9.43565 15.7335 15.7298 -8.9509
617 1 11.0086 17.3007 17.2997 -8.94915
618 1 12.5928 15.7373 15.7365 -8.92997
619 1 14.1566 17.3011 17.3012 -8.94453
620 1 15.7289 15.7265 15.7265 -8.95091
621 1 17.2985 17.2978 17.2979 -8.94969
622 1 18.8701 15.7248 15.7247 -8.95025
623 1 20.4415 17.2972 17.297 -8.94988
624 1 -0.000188767 18.8696 15.7243 -8.94942
625 1 1.57208 20.4419 17.2967 -8.94974
626 1 3.14431 18.8699 15.724 -8.94964
627 1 4.71662 20.4426 17.2971 -8.95072
628 1 6.2892 18.8714 15.7247 -8.95256
629 1 7.86173 20.4425 17.2975 -8.94966
630 1 9.43448 18.872 15.7255 -8.95064
631 1 11.0072 20.4427 17.2977 -8.94974
632 1 12.5816 18.8731 15.7261 -8.95156
633 1 14.1531 20.4428 17.2979 -8.95
634 1 15.7262 18.8707 15.7253 -8.94918
635 1 17.2976 20.442 17.2973 -8.94945
636 1 18.8698 18.8697 15.7246 -8.94944
637 1 20.4417 20.4418 17.2968 -8.9495
638 1 1.57033 11.007 20.4432 -8.94944
639 1 4.71436 11.007 20.4457 -8.94959
640 1 7.86175 11.007 20.4423 -8.94633
641 1 11.007 11.007 20.4415 -8.9482
642 1 14.1523 11.007 20.4422 -8.94963
643 1 17.2968 11.007 20.4421 -8.94956
644 1 20.4407 11.007 20.4422 -8.9495
645 1 -0.00210293 12.5799 18.8704 -8.94928
646 1 1.57045 14.1529 20.4431 -8.94918
647 1 3.14034 12.581 18.8733 -8.94759
648 1 4.71504 14.1537 20.4455 -8.95156
649 1 6.28614 12.5809 18.8775 -8.95927
650 1 7.86216 14.1531 20.4444 -8.95064
651 1 9.43381 12.5796 18.8706 -8.95186
652 1 11.0074 14.1522 20.4438 -8.95256
653 1 12.5798 12.5787 18.8698 -8.94888
654 1 14.1523 14.1516 20.4423 -8.94964
655 1 15.7249 12.5793 18.87 -8.94898
656 1 17.2968 14.1519 20.442 -8.94942
657 1 18.8688 12.5795 18.8697 -8.94956
658 1 20.4407 14.1522 20.4421 -8.94944
659 1 22.012 15.7255 18.8702 -8.94969
660 1 1.5707 17.2984 20.4429 -8.94821
661 1 3.14009 15.7288 18.8735 -8.94453
662 1 4.71627 17.2983 20.4431 -8.94964
663 1 6.28802 15.7273 18.8731 -8.94915
371 1 9.43491 15.7251 22.015 -8.94966
353 1 3.14327 12.5799 22.0153 -8.9494
361 1 15.7245 12.5794 22.0142 -8.94955
369 1 6.28941 15.7252 22.0151 -8.94974
365 1 -0.000920345 15.7248 22.0144 -8.94945
381 1 3.14425 18.8699 22.0144 -8.94961
387 1 12.5798 18.8697 22.0145 -8.94948
537 1 14.1534 20.4429 11.0064 -8.9494
530 1 14.1563 17.3009 11.0054 -8.94759
