ITEM: TIMESTEP
116
ITEM: NUMBER OF ATOMS
687
ITEM: BOX BOUNDS pp pp pp
0.0000000000000000e+00 2.2013900999999997e+01
0.0000000000000000e+00 2.2013900999999997e+01
0.0000000000000000e+00 2.2013900999999997e+01
ITEM: ATOMS id type x y z c_pot
1 1 22.0135 -1.02469e-10 0.000297413 -8.94934
2 1 1.57192 1.572 1.57242 -8.94955
196 1 20.4415 7.86178 11.007 -8.94991
4 1 4.71695 1.57201 1.57242 -8.94949
5 1 6.28948 -2.12543e-10 0.000348269 -8.9495
6 1 7.86205 1.57204 1.57242 -8.94951
175 1 18.869 9.43457 9.4342 -8.94991
8 1 11.0072 1.57207 1.57242 -8.9495
9 1 12.5797 -3.56582e-10 0.000410556 -8.94949
10 1 14.1522 1.57212 1.57242 -8.94953
195 1 17.2993 7.86159 11.0066 -8.95182
12 1 17.297 1.57212 1.57242 -8.94934
13 1 18.8693 -2.46344e-10 0.000264261 -8.94921
14 1 20.4412 1.57216 1.57242 -8.94921
15 1 22.0131 3.14409 0.000412907 -8.94913
16 1 1.57134 4.71621 1.57242 -8.9495
194 1 14.1623 7.85773 11.0044 -8.95827
18 1 4.71674 4.71625 1.57242 -8.9496
174 1 15.7256 9.43514 9.43399 -8.94981
20 1 7.86214 4.71636 1.57242 -8.94955
173 1 12.5825 9.43663 9.43397 -8.95297
22 1 11.0074 4.71654 1.57242 -8.94954
193 1 11.0478 7.82447 10.9736 -8.85446
24 1 14.1525 4.71675 1.57242 -8.95009
25 1 15.725 3.14422 0.000680374 -8.94946
26 1 17.2968 4.71707 1.57242 -8.94971
27 1 18.8691 3.14449 0.000343878 -8.94956
28 1 20.441 4.71683 1.57242 -8.9495
192 1 7.84741 7.85387 10.9825 -8.90431
30 1 1.5711 7.8614 1.57242 -8.94936
31 1 3.14337 6.28826 0.00137048 -8.95
32 1 4.71643 7.86134 1.57242 -8.95069
172 1 9.44923 9.41004 9.42629 -8.90431
34 1 7.86227 7.86158 1.57242 -8.95032
171 1 6.24885 9.40113 9.39689 -8.85446
36 1 11.0072 7.86206 1.57242 -8.95045
37 1 12.5801 6.2892 0.00113436 -8.95074
38 1 14.1521 7.8622 1.57242 -8.94955
39 1 15.7246 6.28961 0.000446037 -8.94974
40 1 17.2967 7.86203 1.57242 -8.94952
41 1 18.8688 6.28943 0.00031307 -8.94949
42 1 20.4408 7.86181 1.57242 -8.94949
170 1 3.13434 9.43199 9.43015 -8.95827
169 1 22.0112 9.43422 9.43401 -8.95182
45 1 6.28915 9.4343 0.00177213 -8.95148
46 1 9.43456 9.43463 0.000510047 -8.94943
47 1 12.5797 9.43469 0.000329606 -8.94935
168 1 18.8702 6.28906 9.43405 -8.95027
167 1 15.7291 6.28723 9.4322 -8.95091
50 1 22.0135 -1.02469e-10 3.14455 -8.94934
51 1 1.57168 1.57174 4.71664 -8.94946
52 1 3.14444 -1.30624e-10 3.14454 -8.94953
53 1 4.71677 1.57178 4.7166 -8.94948
54 1 6.28948 -2.12543e-10 3.14449 -8.9495
55 1 7.86196 1.57184 4.71649 -8.94949
56 1 9.43458 -3.48676e-10 3.14446 -8.94951
57 1 11.0072 1.57186 4.71642 -8.94944
58 1 12.5797 -3.56582e-10 3.14443 -8.94949
59 1 14.1525 1.57187 4.71633 -8.9496
60 1 15.7247 -3.6588e-10 3.14443 -8.94955
61 1 17.2974 1.57201 4.71651 -8.94913
62 1 18.8693 -2.46344e-10 3.14458 -8.94921
63 1 20.4415 1.57208 4.71691 -8.94956
64 1 22.0131 3.14409 3.14443 -8.94913
65 1 1.57055 4.71542 4.71575 -8.94821
66 1 3.14413 3.14391 3.14429 -8.9496
67 1 4.71613 4.71547 4.71551 -8.94963
68 1 6.28942 3.144 3.14428 -8.94944
69 1 7.86195 4.71573 4.71558 -8.94935
70 1 9.43468 3.14407 3.14426 -8.94949
71 1 11.0076 4.71589 4.71552 -8.94913
72 1 12.5799 3.14418 3.1442 -8.94948
73 1 14.1534 4.71589 4.71515 -8.94943
74 1 15.725 3.14422 3.14416 -8.94946
75 1 17.2972 4.71683 4.71647 -8.94987
76 1 18.8691 3.14449 3.1445 -8.94956
77 1 20.4408 4.71658 4.71665 -8.94955
78 1 -0.00107546 6.28895 3.14431 -8.94944
79 1 1.57024 7.86094 4.71551 -8.94917
80 1 3.14337 6.28826 3.14347 -8.95
81 1 4.71485 7.86009 4.71309 -8.95156
82 1 6.28932 6.28857 3.14357 -8.94975
83 1 7.86207 7.86074 4.71421 -8.95066
84 1 9.4349 6.28874 3.14372 -8.94968
85 1 11.0074 7.86159 4.71489 -8.95257
86 1 12.5801 6.2892 3.14371 -8.95074
87 1 14.1523 7.86225 4.71639 -8.94964
88 1 15.7246 6.28961 3.1444 -8.94974
89 1 17.2968 7.86201 4.71667 -8.94941
90 1 18.8688 6.28943 3.14453 -8.94949
91 1 20.4406 7.86168 4.71656 -8.94943
92 1 22.0127 9.43423 3.14425 -8.94945
93 1 3.14306 9.43394 3.14336 -8.9494
94 1 6.28915 9.4343 3.14307 -8.95148
95 1 9.43456 9.43463 3.14433 -8.94943
96 1 12.5797 9.43469 3.14451 -8.94935
97 1 15.7245 9.43454 3.14449 -8.94954
98 1 18.8687 9.43443 3.14452 -8.94953
99 1 22.0137 8.48149e-10 6.28949 -8.94971
100 1 1.57206 1.57198 7.86204 -8.94974
101 1 3.14419 -3.97449e-10 6.28918 -8.95009
102 1 4.71658 1.57129 7.86162 -8.95074
103 1 6.28925 -8.96252e-10 6.28896 -8.94954
104 1 7.86174 1.5713 7.86116 -8.94968
105 1 9.4345 -1.34938e-09 6.28878 -8.94955
106 1 11.0073 1.57115 7.86099 -8.94975
107 1 12.5799 -1.74876e-09 6.28868 -8.9496
108 1 14.1533 1.57105 7.86069 -8.95
109 1 15.7253 -2.2309e-09 6.28863 -8.9495
110 1 17.2977 1.57188 7.86138 -8.94944
111 1 18.8696 -3.07995e-10 6.28925 -8.9495
112 1 20.4417 1.57211 7.86185 -8.94949
113 1 22.0134 3.14405 6.28925 -8.94987
114 1 1.571 4.71586 7.86157 -8.95045
115 1 3.14327 3.14273 6.28831 -8.94943
116 1 4.71386 4.71217 7.85889 -8.94982
117 1 6.28902 3.14309 6.28831 -8.94913
118 1 7.86145 4.71349 7.85907 -8.9477
119 1 9.43469 3.14316 6.28815 -8.94935
120 1 11.0088 4.71301 7.85886 -8.94914
121 1 12.5805 3.14309 6.28789 -8.94963
122 1 14.1567 4.71269 7.85744 -8.94453
123 1 15.7261 3.14333 6.28784 -8.94821
124 1 17.2986 4.71604 7.86077 -8.9497
125 1 18.8697 3.14423 6.28901 -8.94955
126 1 20.4415 4.7166 7.86171 -8.94989
127 1 22.0119 6.28835 6.28847 -8.9497
128 1 1.56754 7.85978 7.85965 -8.95091
129 1 3.13989 6.28502 6.28511 -8.94453
130 1 4.70362 7.84975 7.84885 -8.92998
131 1 6.28788 6.28644 6.28543 -8.94914
132 1 7.86092 7.85635 7.85259 -8.95089
133 1 9.43519 6.28665 6.28591 -8.9477
134 1 11.0136 7.8547 7.85125 -8.95309
135 1 12.5828 6.28647 6.28459 -8.94982
136 1 14.1544 7.86174 7.86028 -8.95169
137 1 15.7256 6.28915 6.28828 -8.95045
138 1 17.2974 7.86206 7.86143 -8.9499
139 1 18.869 6.28929 6.28902 -8.94989
140 1 20.4403 7.86163 7.86148 -8.95027
141 1 -0.00229057 9.43399 6.28826 -8.94928
142 1 3.1401 9.43289 6.28528 -8.94759
143 1 6.28596 9.43295 6.28108 -8.95927
144 1 9.43374 9.43419 6.28807 -8.95185
145 1 12.5798 9.43514 6.28897 -8.94887
146 1 15.7249 9.43453 6.28875 -8.94898
147 1 18.8687 9.43438 6.28895 -8.94957
148 1 -3.44851e-05 3.02952e-10 9.43445 -8.94952
149 1 3.14451 3.07387e-09 9.43462 -8.94955
150 1 6.28944 -7.14711e-10 9.43448 -8.95045
151 1 9.43437 -4.19985e-09 9.434 -8.95032
152 1 12.5802 -5.98086e-09 9.43377 -8.95069
153 1 15.7255 -2.20226e-09 9.43382 -8.94936
154 1 18.8697 -3.72125e-10 9.43423 -8.94949
155 1 -0.000157894 3.14424 9.43443 -8.94941
156 1 3.14429 3.14397 9.43468 -8.94964
157 1 6.2892 3.14247 9.43402 -8.95257
158 1 9.43457 3.14178 9.43316 -8.95066
159 1 12.5818 3.14067 9.43251 -8.95156
160 1 15.7264 3.14309 9.43336 -8.94917
161 1 18.87 3.14413 9.4341 -8.94943
162 1 22.0131 6.28901 9.43449 -8.9499
163 1 3.14225 6.28786 9.43416 -8.95169
164 1 6.28308 6.27883 9.42712 -8.95309
165 1 9.43572 6.28017 9.42877 -8.95089
166 1 12.593 6.27643 9.42218 -8.92998
177 1 4.71696 1.57209 11.0071 -8.94935
178 1 7.86208 1.57191 11.0071 -8.94943
179 1 11.0075 1.57065 11.0067 -8.95148
191 1 4.71415 7.86155 11.009 -8.95297
181 1 17.2979 1.57182 11.0067 -8.94945
182 1 20.4418 1.57209 11.0069 -8.94953
184 1 4.71688 4.71655 11.0076 -8.94887
185 1 7.86289 4.71565 11.0066 -8.95185
186 1 11.0107 4.70865 11.0054 -8.95927
190 1 1.57107 7.86157 11.0076 -8.94981
19 1 6.28942 3.144 0.000562889 -8.94944
49 1 18.8687 9.43443 0.000327888 -8.94953
21 1 9.43468 3.14407 0.000584128 -8.94949
43 1 22.0127 9.43423 0.000596792 -8.94945
176 1 1.57214 1.57207 11.007 -8.94954
343 1 18.8687 9.43438 18.8698 -8.94957
342 1 15.7249 9.43453 18.87 -8.94898
341 1 12.5798 9.43514 18.8698 -8.94887
340 1 9.43374 9.43419 18.8707 -8.95185
339 1 6.28596 9.43295 18.8777 -8.95927
338 1 3.1401 9.43289 18.8735 -8.94759
183 1 1.57173 4.71633 11.007 -8.94898
337 1 -0.00229057 9.43399 18.8705 -8.94928
336 1 20.4406 7.86168 20.4422 -8.94943
335 1 18.869 6.28929 18.8697 -8.94989
334 1 17.2968 7.86201 20.4421 -8.94941
188 1 17.2989 4.71583 11.0064 -8.94928
189 1 20.4419 4.71653 11.0068 -8.94957
333 1 15.7256 6.28915 18.8705 -8.95045
332 1 14.1523 7.86225 20.4424 -8.94964
331 1 12.5828 6.28647 18.8742 -8.94982
330 1 11.0074 7.86159 20.4439 -8.95257
329 1 9.43519 6.28665 18.8728 -8.9477
328 1 7.86207 7.86074 20.4445 -8.95066
327 1 6.28788 6.28644 18.8733 -8.94914
197 1 -1.69191e-05 3.94671e-10 12.5794 -8.94956
198 1 1.57214 1.57207 14.1518 -8.94954
199 1 3.1445 2.26387e-09 12.5794 -8.94965
200 1 4.71696 1.57209 14.1516 -8.94935
201 1 6.28942 3.31603e-09 12.5794 -8.94911
202 1 7.86208 1.57191 14.1517 -8.94943
203 1 9.43446 -5.71017e-09 12.5794 -8.94848
204 1 11.0075 1.57065 14.152 -8.95148
205 1 12.5806 -6.80159e-09 12.5794 -8.95039
206 1 14.1536 1.57094 14.1524 -8.9494
207 1 15.7256 -2.36026e-09 12.5794 -8.94945
208 1 17.2979 1.57182 14.1521 -8.94945
209 1 18.8698 -4.46309e-10 12.5794 -8.94951
210 1 20.4418 1.57209 14.1519 -8.94953
211 1 22.0138 3.14424 12.5794 -8.94955
212 1 1.57173 4.71633 14.1518 -8.94898
213 1 3.14436 3.14411 12.5794 -8.94962
214 1 4.71688 4.71655 14.1512 -8.94887
215 1 6.28965 3.14486 12.5794 -8.94819
216 1 7.86289 4.71565 14.1521 -8.95185
217 1 9.435 3.144 12.5794 -8.94633
218 1 11.0107 4.70865 14.1534 -8.95927
219 1 12.5825 3.14052 12.5794 -8.94959
220 1 14.1565 4.71286 14.1534 -8.94759
221 1 15.7265 3.14302 12.5794 -8.94943
222 1 17.2989 4.71583 14.1523 -8.94928
223 1 18.87 3.14409 12.5794 -8.94949
224 1 20.4419 4.71653 14.1519 -8.94957
225 1 -0.000441173 6.28884 12.5794 -8.94956
226 1 1.57107 7.86157 14.1512 -8.94981
227 1 3.14349 6.28811 12.5794 -8.94647
228 1 4.71415 7.86155 14.1497 -8.95297
229 1 6.29195 6.29218 12.5794 -8.94507
230 1 7.84741 7.85387 14.1763 -8.90431
231 1 9.43998 6.29308 12.5794 -9.00325
232 1 11.0478 7.82447 14.1852 -8.85446
233 1 12.5908 6.27883 12.5794 -8.94205
234 1 14.1623 7.85773 14.1543 -8.95827
235 1 15.7294 6.28677 12.5794 -8.94905
236 1 17.2993 7.86159 14.1521 -8.95182
237 1 18.8705 6.28886 12.5794 -8.94999
238 1 20.4415 7.86178 14.1518 -8.94991
239 1 22.0137 9.43429 12.5794 -8.94758
240 1 3.14777 9.43519 12.5794 -8.93982
241 1 6.31283 9.44435 12.5794 -8.90236
242 1 9.51158 9.20248 12.5794 -8.12184
243 1 12.5867 9.42648 12.5794 -8.97287
244 1 15.7264 9.43473 12.5794 -8.95105
245 1 18.8696 9.4346 12.5794 -8.94932
246 1 -3.44851e-05 3.02953e-10 15.7243 -8.94952
247 1 1.57206 1.57198 17.2967 -8.94974
248 1 3.14451 3.07387e-09 15.7241 -8.94955
249 1 4.71658 1.57129 17.2971 -8.95074
250 1 6.28944 -7.14711e-10 15.7243 -8.95045
251 1 7.86174 1.5713 17.2976 -8.94968
252 1 9.43437 -4.19985e-09 15.7247 -8.95032
253 1 11.0073 1.57115 17.2978 -8.94975
254 1 12.5802 -5.98086e-09 15.725 -8.95069
255 1 14.1533 1.57105 17.2981 -8.95
256 1 15.7255 -2.20226e-09 15.7249 -8.94936
257 1 17.2977 1.57188 17.2974 -8.94944
258 1 18.8697 -3.72125e-10 15.7245 -8.94949
259 1 20.4417 1.57211 17.2969 -8.94949
260 1 -0.000157894 3.14424 15.7243 -8.94941
261 1 1.571 4.71586 17.2972 -8.95045
262 1 3.14429 3.14397 15.7241 -8.94964
263 1 4.71386 4.71217 17.2999 -8.94982
264 1 6.2892 3.14247 15.7247 -8.95257
265 1 7.86145 4.71349 17.2997 -8.9477
266 1 9.43457 3.14178 15.7256 -8.95066
267 1 11.0088 4.71301 17.2999 -8.94914
268 1 12.5818 3.14067 15.7262 -8.95156
269 1 14.1567 4.71269 17.3013 -8.94453
270 1 15.7264 3.14309 15.7254 -8.94917
271 1 17.2986 4.71604 17.298 -8.9497
272 1 18.87 3.14413 15.7246 -8.94943
273 1 20.4415 4.7166 17.297 -8.94989
274 1 22.0131 6.28901 15.7243 -8.9499
275 1 1.56754 7.85978 17.2991 -8.95091
276 1 3.14225 6.28786 15.7246 -8.95169
277 1 4.70362 7.84975 17.3099 -8.92998
278 1 6.28308 6.27883 15.7316 -8.95309
279 1 7.86092 7.85635 17.3062 -8.95089
280 1 9.43572 6.28017 15.73 -8.95089
281 1 11.0136 7.8547 17.3075 -8.95309
282 1 12.593 6.27643 15.7366 -8.92998
283 1 14.1544 7.86174 17.2985 -8.95169
284 1 15.7291 6.28723 15.7265 -8.95091
285 1 17.2974 7.86206 17.2973 -8.9499
286 1 18.8702 6.28906 15.7247 -8.95027
287 1 20.4403 7.86163 17.2973 -8.95027
288 1 22.0112 9.43422 15.7247 -8.95182
289 1 3.13434 9.43199 15.7286 -8.95827
290 1 6.24885 9.40113 15.7619 -8.85446
291 1 9.44923 9.41004 15.7325 -8.90431
292 1 12.5825 9.43663 15.7248 -8.95297
293 1 15.7256 9.43514 15.7248 -8.94981
294 1 18.869 9.43457 15.7245 -8.94991
295 1 22.0137 8.48149e-10 18.8693 -8.94971
296 1 1.57168 1.57174 20.4421 -8.94946
297 1 3.14419 -3.97449e-10 18.8696 -8.95009
298 1 4.71677 1.57178 20.4421 -8.94948
299 1 6.28925 -8.96251e-10 18.8698 -8.94954
300 1 7.86196 1.57184 20.4423 -8.94949
301 1 9.4345 -1.34938e-09 18.87 -8.94955
302 1 11.0072 1.57186 20.4423 -8.94944
303 1 12.5799 -1.74876e-09 18.8701 -8.9496
304 1 14.1525 1.57187 20.4424 -8.9496
305 1 15.7253 -2.2309e-09 18.8701 -8.9495
306 1 17.2974 1.57201 20.4422 -8.94913
307 1 18.8696 -3.07994e-10 18.8695 -8.9495
308 1 20.4415 1.57208 20.4418 -8.94956
309 1 22.0134 3.14405 18.8695 -8.94987
310 1 1.57055 4.71542 20.443 -8.94821
311 1 3.14327 3.14273 18.8704 -8.94943
312 1 4.71613 4.71547 20.4432 -8.94963
313 1 6.28902 3.14309 18.8704 -8.94913
314 1 7.86195 4.71573 20.4432 -8.94935
315 1 9.43469 3.14316 18.8706 -8.94935
316 1 11.0076 4.71589 20.4432 -8.94913
317 1 12.5805 3.14309 18.8708 -8.94963
318 1 14.1534 4.71589 20.4436 -8.94943
319 1 15.7261 3.14333 18.8709 -8.94821
320 1 17.2972 4.71683 20.4423 -8.94987
321 1 18.8697 3.14423 18.8697 -8.94955
322 1 20.4408 4.71658 20.4421 -8.94955
323 1 22.0119 6.28835 18.8703 -8.9497
324 1 1.57024 7.86094 20.4432 -8.94917
325 1 3.13989 6.28502 18.8736 -8.94453
326 1 4.71485 7.86009 20.4457 -8.95156
7 1 9.43458 -3.48676e-10 22.0143 -8.94951
48 1 15.7245 9.43454 22.0143 -8.94954
44 1 3.14306 9.43394 22.0154 -8.9494
33 1 6.28932 6.28857 22.0152 -8.94975
35 1 9.4349 6.28874 22.015 -8.94968
3 1 3.14444 -1.30623e-10 22.0142 -8.94953
11 1 15.7247 -3.6588e-10 22.0143 -8.94955
17 1 3.14413 3.14391 22.0145 -8.9496
23 1 12.5799 3.14418 22.0145 -8.94948
29 1 -0.00107546 6.28895 22.0144 -8.94944
180 1 14.1536 1.57094 11.0064 -8.9494
187 1 14.1565 4.71286 11.0053 -8.94759
344 1 1.571 11.007 1.57242 -8.94945
345 1 4.71606 11.007 1.57242 -8.95039
346 1 7.86218 11.007 1.57242 -8.94848
347 1 11.0072 11.007 1.57242 -8.94911
348 1 14.1521 11.007 1.57242 -8.94965
349 1 17.2967 11.007 1.57242 -8.94956
350 1 20.4408 11.007 1.57242 -8.94951
511 1 18.87 18.8698 9.4341 -8.94943
352 1 1.5711 14.1525 1.57242 -8.94936
510 1 15.7264 18.8708 9.43336 -8.94917
354 1 4.71643 14.1526 1.57242 -8.95069
355 1 6.28915 12.5796 0.00177213 -8.95148
356 1 7.86227 14.1523 1.57242 -8.95032
357 1 9.43456 12.5793 0.000510045 -8.94943
358 1 11.0072 14.1518 1.57242 -8.95045
359 1 12.5797 12.5792 0.000329603 -8.94935
360 1 14.1521 14.1517 1.57242 -8.94955
509 1 12.5818 18.8732 9.43251 -8.95156
362 1 17.2967 14.1519 1.57242 -8.94952
508 1 9.43457 18.8721 9.43316 -8.95066
364 1 20.4408 14.1521 1.57242 -8.94949
539 1 20.4418 20.4418 11.0069 -8.94953
366 1 1.57134 17.2977 1.57242 -8.9495
367 1 3.14337 15.7256 0.00137048 -8.95
368 1 4.71674 17.2976 1.57242 -8.9496
507 1 6.2892 18.8714 9.43402 -8.95257
370 1 7.86214 17.2975 1.57242 -8.94955
506 1 3.14429 18.8699 9.43468 -8.94964
372 1 11.0074 17.2974 1.57242 -8.94954
373 1 12.5801 15.7247 0.00113436 -8.95074
374 1 14.1525 17.2971 1.57242 -8.95009
375 1 15.7246 15.7243 0.000446035 -8.94974
376 1 17.2968 17.2968 1.57242 -8.94971
377 1 18.8688 15.7245 0.00031307 -8.94949
378 1 20.441 17.2971 1.57242 -8.9495
379 1 22.0131 18.8698 0.000412908 -8.94913
380 1 1.57192 20.4419 1.57242 -8.94955
538 1 17.2979 20.4421 11.0067 -8.94945
382 1 4.71695 20.4419 1.57242 -8.94949
505 1 -0.000157897 18.8697 9.43443 -8.94941
384 1 7.86205 20.4419 1.57242 -8.94951
504 1 18.8702 15.7248 9.43405 -8.95027
386 1 11.0072 20.4418 1.57242 -8.9495
536 1 11.0075 20.4433 11.0067 -8.95148
388 1 14.1522 20.4418 1.57242 -8.94953
389 1 15.725 18.8697 0.000680372 -8.94946
390 1 17.297 20.4418 1.57242 -8.94934
391 1 18.8691 18.8694 0.000343877 -8.94956
392 1 20.4412 20.4417 1.57242 -8.94921
393 1 1.5701 11.007 4.71544 -8.94944
394 1 4.71414 11.007 4.71294 -8.94959
395 1 7.86164 11.007 4.71642 -8.94633
396 1 11.007 11.007 4.71728 -8.94819
397 1 14.1523 11.007 4.71653 -8.94962
398 1 17.2967 11.007 4.71666 -8.94955
399 1 20.4405 11.007 4.71651 -8.94949
400 1 22.0127 12.5797 3.14425 -8.94945
401 1 1.57024 14.153 4.71551 -8.94917
402 1 3.14306 12.58 3.14336 -8.9494
403 1 4.71485 14.1538 4.71309 -8.95156
404 1 6.28915 12.5796 3.14307 -8.95148
405 1 7.86207 14.1532 4.71421 -8.95066
406 1 9.43456 12.5793 3.14433 -8.94943
407 1 11.0074 14.1523 4.71489 -8.95257
408 1 12.5797 12.5792 3.14451 -8.94935
409 1 14.1523 14.1516 4.71639 -8.94964
410 1 15.7245 12.5794 3.14449 -8.94954
411 1 17.2968 14.1519 4.71667 -8.94941
412 1 18.8687 12.5795 3.14452 -8.94953
413 1 20.4406 14.1522 4.71656 -8.94943
414 1 -0.00107546 15.7249 3.14431 -8.94944
415 1 1.57055 17.2985 4.71575 -8.94821
416 1 3.14337 15.7256 3.14347 -8.95
417 1 4.71613 17.2984 4.71551 -8.94963
418 1 6.28932 15.7253 3.14357 -8.94975
419 1 7.86195 17.2982 4.71558 -8.94935
420 1 9.4349 15.7252 3.14372 -8.94968
421 1 11.0076 17.298 4.71552 -8.94913
422 1 12.5801 15.7247 3.14371 -8.95074
423 1 14.1534 17.298 4.71515 -8.94943
424 1 15.7246 15.7243 3.1444 -8.94974
425 1 17.2972 17.2971 4.71647 -8.94987
426 1 18.8688 15.7245 3.14453 -8.94949
427 1 20.4408 17.2973 4.71665 -8.94955
428 1 22.0131 18.8698 3.14443 -8.94913
429 1 1.57168 20.4422 4.71664 -8.94946
430 1 3.14413 18.87 3.14429 -8.9496
431 1 4.71677 20.4421 4.7166 -8.94948
432 1 6.28942 18.8699 3.14428 -8.94944
433 1 7.86196 20.4421 4.71649 -8.94949
434 1 9.43468 18.8698 3.14426 -8.94949
435 1 11.0072 20.442 4.71642 -8.94944
436 1 12.5799 18.8697 3.1442 -8.94948
437 1 14.1525 20.442 4.71633 -8.9496
438 1 15.725 18.8697 3.14416 -8.94946
439 1 17.2974 20.4419 4.71651 -8.94913
440 1 18.8691 18.8694 3.1445 -8.94956
441 1 20.4415 20.4418 4.71691 -8.94956
442 1 1.56726 11.007 7.85919 -8.94905
443 1 4.70587 11.007 7.85125 -8.94205
444 1 7.85665 11.007 7.8655 -9.00325
445 1 11.0047 11.007 7.8646 -8.94507
446 1 14.1531 11.007 7.86053 -8.94647
447 1 17.2971 11.007 7.86126 -8.94956
448 1 20.44 11.007 7.86128 -8.94999
449 1 -0.00229057 12.5799 6.28826 -8.94928
450 1 1.56754 14.1541 7.85965 -8.95091
451 1 3.1401 12.581 6.28528 -8.94759
452 1 4.70362 14.1641 7.84885 -8.92998
453 1 6.28596 12.581 6.28108 -8.95927
454 1 7.86092 14.1576 7.85259 -8.95089
455 1 9.43374 12.5797 6.28807 -8.95185
456 1 11.0136 14.1592 7.85125 -8.95309
457 1 12.5798 12.5788 6.28897 -8.94887
458 1 14.1544 14.1522 7.86028 -8.95169
459 1 15.7249 12.5794 6.28875 -8.94898
460 1 17.2974 14.1518 7.86143 -8.9499
461 1 18.8687 12.5795 6.28895 -8.94957
462 1 20.4403 14.1523 7.86148 -8.95027
463 1 22.0119 15.7255 6.28847 -8.9497
464 1 1.571 17.298 7.86157 -8.95045
465 1 3.13989 15.7289 6.28511 -8.94453
466 1 4.71386 17.3017 7.85889 -8.94982
467 1 6.28788 15.7275 6.28543 -8.94914
468 1 7.86145 17.3004 7.85907 -8.9477
469 1 9.43519 15.7272 6.28591 -8.9477
470 1 11.0088 17.3009 7.85886 -8.94914
471 1 12.5828 15.7274 6.28459 -8.94982
472 1 14.1567 17.3012 7.85744 -8.94453
473 1 15.7256 15.7248 6.28828 -8.95045
474 1 17.2986 17.2979 7.86077 -8.9497
475 1 18.869 15.7246 6.28902 -8.94989
476 1 20.4415 17.2973 7.86171 -8.94989
477 1 22.0134 18.8699 6.28925 -8.94987
478 1 1.57206 20.4419 7.86204 -8.94974
479 1 3.14327 18.8712 6.28831 -8.94943
480 1 4.71658 20.4426 7.86162 -8.95074
481 1 6.28902 18.8708 6.28831 -8.94913
482 1 7.86174 20.4426 7.86116 -8.94968
483 1 9.43469 18.8707 6.28815 -8.94935
484 1 11.0073 20.4428 7.86099 -8.94975
485 1 12.5805 18.8708 6.28789 -8.94963
486 1 14.1533 20.4428 7.86069 -8.95
487 1 15.7261 18.8706 6.28784 -8.94821
488 1 17.2977 20.442 7.86138 -8.94944
489 1 18.8697 18.8697 6.28901 -8.94955
490 1 20.4417 20.4418 7.86185 -8.94949
491 1 22.0112 12.5797 9.43401 -8.95182
492 1 3.13434 12.5819 9.43015 -8.95827
493 1 6.24885 12.6128 9.39689 -8.85446
494 1 9.44923 12.6039 9.42629 -8.90431
495 1 12.5825 12.5773 9.43397 -8.95297
496 1 15.7256 12.5788 9.43399 -8.94981
497 1 18.869 12.5793 9.4342 -8.94991
498 1 22.0131 15.7249 9.43449 -8.9499
499 1 3.14225 15.726 9.43416 -8.95169
500 1 6.28308 15.7351 9.42712 -8.95309
501 1 9.43572 15.7337 9.42877 -8.95089
502 1 12.593 15.7375 9.42218 -8.92998
503 1 15.7291 15.7267 9.4322 -8.95091
512 1 1.57026 11.007 11.0071 -8.95105
513 1 4.70995 11.007 10.9989 -8.97287
514 1 7.78506 11.007 10.7749 -8.12184
515 1 10.9838 11.007 11.0168 -8.90236
516 1 14.1489 11.007 11.0076 -8.93982
517 1 17.2968 11.007 11.0067 -8.94758
518 1 20.4409 11.007 11.007 -8.94932
519 1 1.57107 14.1523 11.0076 -8.94981
520 1 4.71415 14.1524 11.009 -8.95297
521 1 7.84741 14.16 10.9825 -8.90431
522 1 11.0478 14.1894 10.9736 -8.85446
523 1 14.1623 14.1562 11.0044 -8.95827
524 1 17.2993 14.1523 11.0066 -8.95182
525 1 20.4415 14.1521 11.007 -8.94991
527 1 4.71688 17.2974 11.0076 -8.94887
528 1 7.86289 17.2983 11.0066 -8.95185
529 1 11.0107 17.3052 11.0054 -8.95927
535 1 7.86208 20.442 11.0071 -8.94943
534 1 4.71696 20.4418 11.0071 -8.94935
351 1 22.0127 12.5797 0.000596792 -8.94945
385 1 9.43468 18.8698 0.000584127 -8.94949
383 1 6.28942 18.8699 0.000562889 -8.94944
363 1 18.8687 12.5795 0.000327888 -8.94953
687 3 8.64832 11.007 12.5794 2.30845
686 1 20.4415 20.4418 20.4418 -8.94956
685 1 18.8697 18.8697 18.8697 -8.94955
684 1 17.2974 20.4419 20.4422 -8.94913
683 1 15.7261 18.8706 18.8709 -8.94821
682 1 14.1525 20.442 20.4424 -8.9496
681 1 12.5805 18.8708 18.8708 -8.94963
680 1 11.0072 20.442 20.4423 -8.94944
679 1 9.43469 18.8707 18.8706 -8.94935
678 1 7.86196 20.4421 20.4423 -8.94949
677 1 6.28902 18.8708 18.8704 -8.94913
676 1 4.71677 20.4421 20.4421 -8.94948
675 1 3.14327 18.8712 18.8704 -8.94943
674 1 1.57168 20.4422 20.4421 -8.94946
526 1 1.57173 17.2976 11.007 -8.94898
673 1 22.0134 18.8699 18.8695 -8.94987
672 1 20.4408 17.2973 20.4421 -8.94955
671 1 18.869 15.7246 18.8697 -8.94989
670 1 17.2972 17.2971 20.4423 -8.94987
531 1 17.2989 17.2981 11.0064 -8.94928
532 1 20.4419 17.2974 11.0068 -8.94957
533 1 1.57214 20.4418 11.007 -8.94954
669 1 15.7256 15.7248 18.8705 -8.95045
668 1 14.1534 17.298 20.4436 -8.94943
667 1 12.5828 15.7274 18.8742 -8.94982
666 1 11.0076 17.298 20.4432 -8.94913
665 1 9.43519 15.7272 18.8728 -8.9477
664 1 7.86195 17.2982 20.4432 -8.94935
540 1 1.57026 11.007 14.1516 -8.95105
541 1 4.70995 11.007 14.1598 -8.97287
542 1 7.78506 11.007 14.3838 -8.12184
543 1 10.9838 11.007 14.142 -8.90236
544 1 14.1489 11.007 14.1511 -8.93982
545 1 17.2968 11.007 14.152 -8.94758
546 1 20.4409 11.007 14.1517 -8.94932
547 1 22.0137 12.5796 12.5794 -8.94758
548 1 1.57107 14.1523 14.1512 -8.94981
549 1 3.14777 12.5787 12.5794 -8.93982
550 1 4.71415 14.1524 14.1497 -8.95297
551 1 6.31283 12.5696 12.5794 -8.90236
552 1 7.84741 14.16 14.1763 -8.90431
553 1 9.51158 12.8114 12.5794 -8.12184
554 1 11.0478 14.1894 14.1852 -8.85446
555 1 12.5867 12.5874 12.5794 -8.97287
556 1 14.1623 14.1562 14.1543 -8.95827
557 1 15.7264 12.5792 12.5794 -8.95105
558 1 17.2993 14.1523 14.1521 -8.95182
559 1 18.8696 12.5793 12.5794 -8.94932
560 1 20.4415 14.1521 14.1518 -8.94991
561 1 -0.00044119 15.7251 12.5794 -8.94956
562 1 1.57173 17.2976 14.1518 -8.94898
563 1 3.14349 15.7258 12.5794 -8.94647
564 1 4.71688 17.2974 14.1512 -8.94887
565 1 6.29195 15.7217 12.5794 -8.94507
566 1 7.86289 17.2983 14.1521 -8.95185
567 1 9.43998 15.7208 12.5794 -9.00325
568 1 11.0107 17.3052 14.1534 -8.95927
569 1 12.5908 15.7351 12.5794 -8.94205
570 1 14.1565 17.301 14.1534 -8.94759
571 1 15.7294 15.7271 12.5794 -8.94905
572 1 17.2989 17.2981 14.1523 -8.94928
573 1 18.8705 15.725 12.5794 -8.94999
574 1 20.4419 17.2974 14.1519 -8.94957
575 1 22.0138 18.8697 12.5794 -8.94955
576 1 1.57214 20.4418 14.1518 -8.94954
577 1 3.14436 18.8698 12.5794 -8.94962
578 1 4.71696 20.4418 14.1516 -8.94935
579 1 6.28965 18.869 12.5794 -8.94819
580 1 7.86208 20.442 14.1517 -8.94943
581 1 9.435 18.8699 12.5794 -8.94633
582 1 11.0075 20.4433 14.152 -8.95148
583 1 12.5825 18.8734 12.5794 -8.94959
584 1 14.1536 20.443 14.1524 -8.9494
585 1 15.7265 18.8709 12.5794 -8.94943
586 1 17.2979 20.4421 14.1521 -8.94945
587 1 18.87 18.8698 12.5794 -8.94949
588 1 20.4418 20.4418 14.1519 -8.94953
589 1 1.56726 11.007 17.2996 -8.94905
590 1 4.70587 11.007 17.3075 -8.94205
591 1 7.85665 11.007 17.2932 -9.00325
592 1 11.0047 11.007 17.2941 -8.94507
593 1 14.1531 11.007 17.2982 -8.94647
594 1 17.2971 11.007 17.2975 -8.94956
595 1 20.44 11.007 17.2975 -8.94999
596 1 22.0112 12.5797 15.7247 -8.95182
597 1 1.56754 14.1541 17.2991 -8.95091
598 1 3.13434 12.5819 15.7286 -8.95827
599 1 4.70362 14.1641 17.3099 -8.92998
600 1 6.24885 12.6128 15.7619 -8.85446
601 1 7.86092 14.1576 17.3062 -8.95089
602 1 9.44923 12.6039 15.7325 -8.90431
603 1 11.0136 14.1592 17.3075 -8.95309
604 1 12.5825 12.5773 15.7248 -8.95297
605 1 14.1544 14.1522 17.2985 -8.95169
606 1 15.7256 12.5788 15.7248 -8.94981
607 1 17.2974 14.1518 17.2973 -8.9499
608 1 18.869 12.5793 15.7245 -8.94991
609 1 20.4403 14.1523 17.2973 -8.95027
610 1 22.0131 15.7249 15.7243 -8.9499
611 1 1.571 17.298 17.2972 -8.95045
612 1 3.14225 15.726 15.7246 -8.95169
613 1 4.71386 17.3017 17.2999 -8.94982
614 1 6.28308 15.7351 15.7316 -8.95309
615 1 7.86145 17.3004 17.2997 -8.9477
616 1 9.43572 15.7337 15.73 -8.95089
617 1 11.0088 17.3009 17.2999 -8.94914
618 1 12.593 15.7375 15.7366 -8.92998
619 1 14.1567 17.3012 17.3013 -8.94453
620 1 15.7291 15.7267 15.7265 -8.95091
621 1 17.2986 17.2979 17.298 -8.9497
622 1 18.8702 15.7248 15.7247 -8.95027
623 1 20.4415 17.2973 17.297 -8.94989
624 1 -0.000157897 18.8697 15.7243 -8.94941
625 1 1.57206 20.4419 17.2967 -8.94974
626 1 3.14429 18.8699 15.7241 -8.94964
627 1 4.71658 20.4426 17.2971 -8.95074
628 1 6.2892 18.8714 15.7247 -8.95257
629 1 7.86174 20.4426 17.2976 -8.94968
630 1 9.43457 18.8721 15.7256 -8.95066
631 1 11.0073 20.4428 17.2978 -8.94975
632 1 12.5818 18.8732 15.7262 -8.95156
633 1 14.1533 20.4428 17.2981 -8.95
634 1 15.7264 18.8708 15.7254 -8.94917
635 1 17.2977 20.442 17.2974 -8.94944
636 1 18.87 18.8698 15.7246 -8.94943
637 1 20.4417 20.4418 17.2969 -8.94949
638 1 1.5701 11.007 20.4433 -8.94944
639 1 4.71414 11.007 20.4458 -8.94959
640 1 7.86164 11.007 20.4423 -8.94633
641 1 11.007 11.007 20.4415 -8.94819
642 1 14.1523 11.007 20.4422 -8.94962
643 1 17.2967 11.007 20.4421 -8.94955
644 1 20.4405 11.007 20.4422 -8.94949
645 1 -0.00229057 12.5799 18.8705 -8.94928
646 1 1.57024 14.153 20.4432 -8.94917
647 1 3.1401 12.581 18.8735 -8.94759
648 1 4.71485 14.1538 20.4457 -8.95156
649 1 6.28596 12.581 18.8777 -8.95927
650 1 7.86207 14.1532 20.4445 -8.95066
651 1 9.43374 12.5797 18.8707 -8.95185
652 1 11.0074 14.1523 20.4439 -8.95257
653 1 12.5798 12.5788 18.8698 -8.94887
654 1 14.1523 14.1516 20.4424 -8.94964
655 1 15.7249 12.5794 18.87 -8.94898
656 1 17.2968 14.1519 20.4421 -8.94941
657 1 18.8687 12.5795 18.8698 -8.94957
658 1 20.4406 14.1522 20.4422 -8.94943
659 1 22.0119 15.7255 18.8703 -8.9497
660 1 1.57055 17.2985 20.443 -8.94821
661 1 3.13989 15.7289 18.8736 -8.94453
662 1 4.71613 17.2984 20.4432 -8.94963
663 1 6.28788 15.7275 18.8733 -8.94914
371 1 9.4349 15.7252 22.015 -8.94968
353 1 3.14306 12.58 22.0154 -8.9494
361 1 15.7245 12.5794 22.0143 -8.94954
369 1 6.28932 15.7253 22.0152 -8.94975
365 1 -0.00107546 15.7249 22.0144 -8.94944
381 1 3.14413 18.87 22.0145 -8.9496
387 1 12.5799 18.8697 22.0145 -8.94948
537 1 14.1536 20.443 11.0064 -8.9494
530 1 14.1565 17.301 11.0053 -8.94759
