ITEM: TIMESTEP
45
ITEM: NUMBER OF ATOMS
687
ITEM: BOX BOUNDS pp pp pp
0.0000000000000000e+00 2.2013900999999997e+01
0.0000000000000000e+00 2.2013900999999997e+01
0.0000000000000000e+00 2.2013900999999997e+01
ITEM: ATOMS id type x y z c_pot
1 1 22.0139 -9.0714e-16 7.97747e-10 -8.94963
2 1 1.57242 1.57242 1.57242 -8.94963
196 1 20.4415 7.86211 11.007 -8.94964
4 1 4.71726 1.57242 1.57242 -8.94963
5 1 6.28969 -4.29024e-16 2.31494e-09 -8.94963
6 1 7.86211 1.57242 1.57242 -8.94963
175 1 18.8691 9.43453 9.43453 -8.94964
8 1 11.007 1.57242 1.57242 -8.94963
9 1 12.5794 4.42268e-16 3.46037e-09 -8.94963
10 1 14.1518 1.57242 1.57242 -8.94963
195 1 17.2966 7.86211 11.0069 -8.94969
12 1 17.2966 1.57242 1.57242 -8.94963
13 1 18.8691 3.3506e-16 2.3347e-10 -8.94963
14 1 20.4415 1.57242 1.57242 -8.94963
15 1 22.0139 3.14484 7.52736e-09 -8.94963
16 1 1.57242 4.71726 1.57242 -8.94963
194 1 14.1521 7.86203 11.0069 -8.95066
18 1 4.71726 4.71726 1.57242 -8.94963
174 1 15.7242 9.43453 9.43452 -8.94964
20 1 7.86211 4.71726 1.57242 -8.94963
173 1 12.5796 9.43444 9.43434 -8.94908
22 1 11.007 4.71726 1.57242 -8.94963
193 1 11.013 7.85632 11.0009 -8.90068
24 1 14.1518 4.71726 1.57242 -8.94963
25 1 15.7242 3.14484 1.9897e-08 -8.94963
26 1 17.2966 4.71726 1.57242 -8.94963
27 1 18.8691 3.14484 -4.15866e-11 -8.94963
28 1 20.4415 4.71726 1.57242 -8.94963
192 1 7.86008 7.86077 11.0047 -8.9351
30 1 1.57242 7.86211 1.57242 -8.94963
31 1 3.14484 6.28969 7.26177e-07 -8.94963
32 1 4.71726 7.86211 1.57242 -8.94964
172 1 9.43656 9.43227 9.43319 -8.9351
34 1 7.86211 7.86211 1.57242 -8.94963
171 1 6.28361 9.42851 9.42874 -8.90068
36 1 11.007 7.86211 1.57242 -8.94963
37 1 12.5794 6.28969 6.59611e-07 -8.94963
38 1 14.1518 7.86211 1.57242 -8.94963
39 1 15.7242 6.28969 -1.58687e-08 -8.94963
40 1 17.2966 7.86211 1.57242 -8.94963
41 1 18.8691 6.28969 -1.1344e-09 -8.94963
42 1 20.4415 7.86211 1.57242 -8.94963
170 1 3.14456 9.43445 9.43445 -8.95066
169 1 22.0139 9.43453 9.43453 -8.94969
45 1 6.28968 9.43453 1.22579e-05 -8.94969
46 1 9.43453 9.43453 8.38363e-06 -8.94964
47 1 12.5794 9.43453 -9.66615e-08 -8.94964
168 1 18.8691 6.28969 9.43453 -8.94963
167 1 15.7242 6.28968 9.43452 -8.94965
50 1 22.0139 -8.17525e-16 3.14484 -8.94963
51 1 1.57242 1.57242 4.71726 -8.94963
52 1 3.14484 -8.98265e-17 3.14484 -8.94963
53 1 4.71726 1.57242 4.71726 -8.94963
54 1 6.28969 -3.83424e-16 3.14484 -8.94963
55 1 7.86211 1.57242 4.71726 -8.94963
56 1 9.43453 8.88535e-17 3.14484 -8.94963
57 1 11.007 1.57242 4.71726 -8.94963
58 1 12.5794 2.94524e-16 3.14484 -8.94963
59 1 14.1518 1.57242 4.71726 -8.94963
60 1 15.7242 4.26175e-16 3.14484 -8.94963
61 1 17.2966 1.57242 4.71726 -8.94963
62 1 18.8691 2.10655e-16 3.14484 -8.94963
63 1 20.4415 1.57242 4.71726 -8.94963
64 1 22.0139 3.14484 3.14484 -8.94963
65 1 1.57242 4.71726 4.71726 -8.94963
66 1 3.14484 3.14484 3.14484 -8.94963
67 1 4.71726 4.71727 4.71727 -8.94965
68 1 6.28969 3.14484 3.14484 -8.94963
69 1 7.86211 4.71726 4.71726 -8.94963
70 1 9.43453 3.14484 3.14484 -8.94963
71 1 11.007 4.71726 4.71727 -8.94964
72 1 12.5794 3.14484 3.14484 -8.94963
73 1 14.1518 4.71726 4.71726 -8.94963
74 1 15.7242 3.14484 3.14484 -8.94963
75 1 17.2966 4.71726 4.71726 -8.94963
76 1 18.8691 3.14484 3.14484 -8.94963
77 1 20.4415 4.71726 4.71726 -8.94963
78 1 3.08339e-08 6.28969 3.14484 -8.94963
79 1 1.57242 7.86211 4.71727 -8.94965
80 1 3.14484 6.28969 3.14484 -8.94963
81 1 4.71725 7.8621 4.71725 -8.94962
82 1 6.28969 6.28969 3.14484 -8.94963
83 1 7.86211 7.86211 4.71726 -8.94964
84 1 9.43453 6.28969 3.14484 -8.94963
85 1 11.007 7.8621 4.71725 -8.94965
86 1 12.5794 6.28969 3.14484 -8.94963
87 1 14.1518 7.86211 4.71726 -8.94964
88 1 15.7242 6.28969 3.14484 -8.94963
89 1 17.2966 7.86211 4.71726 -8.94963
90 1 18.8691 6.28969 3.14484 -8.94963
91 1 20.4415 7.86211 4.71726 -8.94963
92 1 22.0139 9.43453 3.14484 -8.94963
93 1 3.14484 9.43453 3.14484 -8.94963
94 1 6.28968 9.43453 3.14483 -8.94969
95 1 9.43453 9.43453 3.14483 -8.94964
96 1 12.5794 9.43453 3.14484 -8.94964
97 1 15.7242 9.43453 3.14484 -8.94963
98 1 18.8691 9.43453 3.14484 -8.94963
99 1 22.0139 8.5725e-16 6.28969 -8.94963
100 1 1.57242 1.57242 7.86211 -8.94963
101 1 3.14484 6.61535e-18 6.28969 -8.94963
102 1 4.71726 1.57242 7.86211 -8.94963
103 1 6.28969 3.17625e-16 6.28969 -8.94963
104 1 7.86211 1.57242 7.86211 -8.94963
105 1 9.43453 -7.14301e-16 6.28969 -8.94963
106 1 11.007 1.57242 7.86211 -8.94963
107 1 12.5794 -1.61512e-16 6.28969 -8.94963
108 1 14.1518 1.57242 7.86211 -8.94963
109 1 15.7242 1.32353e-15 6.28969 -8.94963
110 1 17.2966 1.57242 7.86211 -8.94963
111 1 18.8691 5.54572e-16 6.28969 -8.94963
112 1 20.4415 1.57242 7.86211 -8.94963
113 1 22.0139 3.14484 6.28969 -8.94963
114 1 1.57242 4.71726 7.86211 -8.94964
115 1 3.14484 3.14484 6.28969 -8.94963
116 1 4.71726 4.71725 7.8621 -8.94964
117 1 6.28969 3.14484 6.28969 -8.94964
118 1 7.86211 4.71727 7.86211 -8.94965
119 1 9.43453 3.14484 6.28969 -8.94963
120 1 11.0069 4.71728 7.86212 -8.94983
121 1 12.5794 3.14484 6.28969 -8.94965
122 1 14.1518 4.71725 7.8621 -8.94949
123 1 15.7242 3.14484 6.28969 -8.94963
124 1 17.2966 4.71726 7.86211 -8.94963
125 1 18.8691 3.14484 6.28969 -8.94963
126 1 20.4415 4.71726 7.86211 -8.94963
127 1 22.0139 6.28969 6.28969 -8.94963
128 1 1.57241 7.8621 7.8621 -8.94965
129 1 3.14483 6.28967 6.28967 -8.94949
130 1 4.71695 7.86179 7.86179 -8.94677
131 1 6.28969 6.2897 6.2897 -8.94983
132 1 7.86218 7.86215 7.86206 -8.95135
133 1 9.43452 6.28968 6.28969 -8.94965
134 1 11.0071 7.862 7.8618 -8.9504
135 1 12.5794 6.28968 6.28967 -8.94964
136 1 14.1518 7.8621 7.86211 -8.94973
137 1 15.7242 6.28969 6.28969 -8.94964
138 1 17.2966 7.86211 7.86211 -8.94963
139 1 18.8691 6.28969 6.28969 -8.94963
140 1 20.4415 7.86211 7.86211 -8.94963
141 1 4.23679e-07 9.43453 6.28969 -8.94963
142 1 3.14485 9.43453 6.2897 -8.9498
143 1 6.28955 9.43439 6.28935 -8.95024
144 1 9.43465 9.4344 6.28951 -8.94903
145 1 12.5794 9.43453 6.28968 -8.94971
146 1 15.7242 9.43453 6.28969 -8.94964
147 1 18.8691 9.43453 6.28969 -8.94963
148 1 1.2456e-09 1.21455e-15 9.43453 -8.94963
149 1 3.14484 1.47451e-15 9.43453 -8.94963
150 1 6.28969 1.4784e-15 9.43453 -8.94963
151 1 9.43453 -2.16136e-16 9.43453 -8.94963
152 1 12.5794 -6.65141e-16 9.43453 -8.94964
153 1 15.7242 4.0341e-16 9.43453 -8.94963
154 1 18.8691 8.09631e-16 9.43453 -8.94963
155 1 2.57073e-08 3.14484 9.43453 -8.94963
156 1 3.14484 3.14484 9.43453 -8.94964
157 1 6.28968 3.14483 9.43452 -8.94965
158 1 9.43453 3.14484 9.43453 -8.94964
159 1 12.5794 3.14483 9.43452 -8.94962
160 1 15.7242 3.14484 9.43453 -8.94965
161 1 18.8691 3.14484 9.43453 -8.94963
162 1 22.0139 6.28969 9.43453 -8.94963
163 1 3.14484 6.28969 9.43452 -8.94973
164 1 6.28957 6.28938 9.43442 -8.9504
165 1 9.43446 6.28964 9.43457 -8.95135
166 1 12.5797 6.28937 9.43421 -8.94677
177 1 4.71726 1.57242 11.007 -8.94964
178 1 7.8621 1.57241 11.0069 -8.94964
179 1 11.007 1.57241 11.0069 -8.94969
191 1 4.71701 7.86192 11.0069 -8.94908
181 1 17.2966 1.57242 11.007 -8.94963
182 1 20.4415 1.57242 11.007 -8.94963
184 1 4.71726 4.71726 11.007 -8.94971
185 1 7.86198 4.71709 11.0068 -8.94903
186 1 11.0071 4.71693 11.0068 -8.95024
190 1 1.57241 7.8621 11.0069 -8.94964
19 1 6.28969 3.14484 2.82636e-08 -8.94963
49 1 18.8691 9.43453 3.69374e-09 -8.94963
21 1 9.43453 3.14484 1.20505e-08 -8.94963
43 1 22.0139 9.43453 2.8468e-08 -8.94963
176 1 1.57242 1.57242 11.007 -8.94963
343 1 18.8691 9.43453 18.8691 -8.94963
342 1 15.7242 9.43453 18.8691 -8.94964
341 1 12.5794 9.43453 18.8691 -8.94971
340 1 9.43465 9.4344 18.8692 -8.94903
339 1 6.28955 9.43439 18.8694 -8.95024
338 1 3.14485 9.43453 18.869 -8.9498
183 1 1.57242 4.71727 11.007 -8.94964
337 1 4.23679e-07 9.43453 18.8691 -8.94963
336 1 20.4415 7.86211 20.4415 -8.94963
335 1 18.8691 6.28969 18.8691 -8.94963
334 1 17.2966 7.86211 20.4415 -8.94963
188 1 17.2966 4.71726 11.007 -8.94963
189 1 20.4415 4.71726 11.007 -8.94963
333 1 15.7242 6.28969 18.8691 -8.94964
332 1 14.1518 7.86211 20.4415 -8.94964
331 1 12.5794 6.28968 18.8691 -8.94964
330 1 11.007 7.8621 20.4415 -8.94965
329 1 9.43452 6.28968 18.8691 -8.94965
328 1 7.86211 7.86211 20.4415 -8.94964
327 1 6.28969 6.2897 18.869 -8.94983
197 1 2.00539e-09 8.50382e-16 12.5794 -8.94963
198 1 1.57242 1.57242 14.1518 -8.94963
199 1 3.14484 1.56091e-15 12.5794 -8.94963
200 1 4.71726 1.57242 14.1518 -8.94964
201 1 6.28969 8.34317e-16 12.5794 -8.94963
202 1 7.8621 1.57241 14.1518 -8.94964
203 1 9.43453 5.96073e-16 12.5794 -8.94975
204 1 11.007 1.57241 14.1518 -8.94969
205 1 12.5794 7.10369e-17 12.5794 -8.94963
206 1 14.1518 1.57242 14.1518 -8.94963
207 1 15.7242 6.47467e-16 12.5794 -8.94963
208 1 17.2966 1.57242 14.1518 -8.94963
209 1 18.8691 1.041e-15 12.5794 -8.94963
210 1 20.4415 1.57242 14.1518 -8.94963
211 1 22.0139 3.14484 12.5794 -8.94963
212 1 1.57242 4.71727 14.1518 -8.94964
213 1 3.14484 3.14484 12.5794 -8.94962
214 1 4.71726 4.71726 14.1518 -8.94971
215 1 6.28969 3.14484 12.5794 -8.94968
216 1 7.86198 4.71709 14.1519 -8.94903
217 1 9.43452 3.14462 12.5794 -8.95102
218 1 11.0071 4.71693 14.1519 -8.95024
219 1 12.5794 3.14484 12.5794 -8.94962
220 1 14.1518 4.71727 14.1518 -8.9498
221 1 15.7242 3.14484 12.5794 -8.94964
222 1 17.2966 4.71726 14.1518 -8.94963
223 1 18.8691 3.14484 12.5794 -8.94963
224 1 20.4415 4.71726 14.1518 -8.94963
225 1 5.98351e-07 6.28969 12.5794 -8.94963
226 1 1.57241 7.8621 14.1518 -8.94964
227 1 3.14485 6.28969 12.5794 -8.94963
228 1 4.71701 7.86192 14.1519 -8.94908
229 1 6.28976 6.28961 12.5794 -8.95123
230 1 7.86008 7.86077 14.1541 -8.9351
231 1 9.43467 6.28437 12.5794 -8.97323
232 1 11.013 7.85632 14.1578 -8.90068
233 1 12.5794 6.28962 12.5794 -8.95138
234 1 14.1521 7.86203 14.1519 -8.95066
235 1 15.7242 6.28968 12.5794 -8.94961
236 1 17.2966 7.86211 14.1518 -8.94969
237 1 18.8691 6.28969 12.5794 -8.94963
238 1 20.4415 7.86211 14.1518 -8.94964
239 1 22.0139 9.43453 12.5794 -8.94967
240 1 3.14455 9.43441 12.5794 -8.94955
241 1 6.28641 9.43142 12.5794 -8.90885
242 1 9.4952 9.30376 12.5794 -8.02328
243 1 12.5827 9.43406 12.5794 -8.96251
244 1 15.7243 9.43453 12.5794 -8.95045
245 1 18.8691 9.43453 12.5794 -8.94967
246 1 1.2456e-09 1.28511e-15 15.7242 -8.94963
247 1 1.57242 1.57242 17.2966 -8.94963
248 1 3.14484 1.54571e-15 15.7242 -8.94963
249 1 4.71726 1.57242 17.2966 -8.94963
250 1 6.28969 1.4407e-15 15.7242 -8.94963
251 1 7.86211 1.57242 17.2966 -8.94963
252 1 9.43453 -3.69349e-16 15.7242 -8.94963
253 1 11.007 1.57242 17.2966 -8.94963
254 1 12.5794 -6.88366e-16 15.7242 -8.94964
255 1 14.1518 1.57242 17.2966 -8.94963
256 1 15.7242 3.84484e-16 15.7242 -8.94963
257 1 17.2966 1.57242 17.2966 -8.94963
258 1 18.8691 7.98046e-16 15.7242 -8.94963
259 1 20.4415 1.57242 17.2966 -8.94963
260 1 2.57073e-08 3.14484 15.7242 -8.94963
261 1 1.57242 4.71726 17.2966 -8.94964
262 1 3.14484 3.14484 15.7242 -8.94964
263 1 4.71726 4.71725 17.2966 -8.94964
264 1 6.28968 3.14483 15.7242 -8.94965
265 1 7.86211 4.71727 17.2966 -8.94965
266 1 9.43453 3.14484 15.7242 -8.94964
267 1 11.0069 4.71728 17.2966 -8.94983
268 1 12.5794 3.14483 15.7242 -8.94962
269 1 14.1518 4.71725 17.2966 -8.94949
270 1 15.7242 3.14484 15.7242 -8.94965
271 1 17.2966 4.71726 17.2966 -8.94963
272 1 18.8691 3.14484 15.7242 -8.94963
273 1 20.4415 4.71726 17.2966 -8.94963
274 1 22.0139 6.28969 15.7242 -8.94963
275 1 1.57241 7.8621 17.2966 -8.94965
276 1 3.14484 6.28969 15.7242 -8.94973
277 1 4.71695 7.86179 17.297 -8.94677
278 1 6.28957 6.28938 15.7243 -8.9504
279 1 7.86218 7.86215 17.2967 -8.95135
280 1 9.43446 6.28964 15.7242 -8.95135
281 1 11.0071 7.862 17.2969 -8.9504
282 1 12.5797 6.28937 15.7245 -8.94677
283 1 14.1518 7.8621 17.2966 -8.94973
284 1 15.7242 6.28968 15.7242 -8.94965
285 1 17.2966 7.86211 17.2966 -8.94963
286 1 18.8691 6.28969 15.7242 -8.94963
287 1 20.4415 7.86211 17.2966 -8.94963
288 1 22.0139 9.43453 15.7242 -8.94969
289 1 3.14456 9.43445 15.7243 -8.95066
290 1 6.28361 9.42851 15.73 -8.90068
291 1 9.43656 9.43227 15.7256 -8.9351
292 1 12.5796 9.43444 15.7244 -8.94908
293 1 15.7242 9.43453 15.7242 -8.94964
294 1 18.8691 9.43453 15.7242 -8.94964
295 1 22.0139 8.37605e-16 18.8691 -8.94963
296 1 1.57242 1.57242 20.4415 -8.94963
297 1 3.14484 2.53231e-16 18.8691 -8.94963
298 1 4.71726 1.57242 20.4415 -8.94963
299 1 6.28969 6.26342e-16 18.8691 -8.94963
300 1 7.86211 1.57242 20.4415 -8.94963
301 1 9.43453 -8.31489e-16 18.8691 -8.94963
302 1 11.007 1.57242 20.4415 -8.94963
303 1 12.5794 -6.81086e-17 18.8691 -8.94963
304 1 14.1518 1.57242 20.4415 -8.94963
305 1 15.7242 1.23459e-15 18.8691 -8.94963
306 1 17.2966 1.57242 20.4415 -8.94963
307 1 18.8691 4.03943e-16 18.8691 -8.94963
308 1 20.4415 1.57242 20.4415 -8.94963
309 1 22.0139 3.14484 18.8691 -8.94963
310 1 1.57242 4.71726 20.4415 -8.94963
311 1 3.14484 3.14484 18.8691 -8.94963
312 1 4.71726 4.71727 20.4415 -8.94965
313 1 6.28969 3.14484 18.8691 -8.94964
314 1 7.86211 4.71726 20.4415 -8.94963
315 1 9.43453 3.14484 18.8691 -8.94963
316 1 11.007 4.71726 20.4415 -8.94964
317 1 12.5794 3.14484 18.8691 -8.94965
318 1 14.1518 4.71726 20.4415 -8.94963
319 1 15.7242 3.14484 18.8691 -8.94963
320 1 17.2966 4.71726 20.4415 -8.94963
321 1 18.8691 3.14484 18.8691 -8.94963
322 1 20.4415 4.71726 20.4415 -8.94963
323 1 22.0139 6.28969 18.8691 -8.94963
324 1 1.57242 7.86211 20.4415 -8.94965
325 1 3.14483 6.28967 18.8691 -8.94949
326 1 4.71725 7.8621 20.4415 -8.94962
7 1 9.43453 8.57147e-17 22.0139 -8.94963
48 1 15.7242 9.43453 22.0139 -8.94963
44 1 3.14484 9.43453 22.0139 -8.94963
33 1 6.28969 6.28969 22.0139 -8.94963
35 1 9.43453 6.28969 22.0139 -8.94963
3 1 3.14484 -2.9966e-16 22.0139 -8.94963
11 1 15.7242 4.41307e-16 22.0139 -8.94963
17 1 3.14484 3.14484 22.0139 -8.94963
23 1 12.5794 3.14484 22.0139 -8.94963
29 1 3.08339e-08 6.28969 22.0139 -8.94963
180 1 14.1518 1.57242 11.007 -8.94963
187 1 14.1518 4.71727 11.007 -8.9498
344 1 1.57242 11.007 1.57242 -8.94963
345 1 4.71726 11.007 1.57242 -8.94963
346 1 7.86211 11.007 1.57242 -8.94975
347 1 11.007 11.007 1.57242 -8.94963
348 1 14.1518 11.007 1.57242 -8.94963
349 1 17.2966 11.007 1.57242 -8.94963
350 1 20.4415 11.007 1.57242 -8.94963
511 1 18.8691 18.8691 9.43453 -8.94963
352 1 1.57242 14.1518 1.57242 -8.94963
510 1 15.7242 18.8691 9.43453 -8.94965
354 1 4.71726 14.1518 1.57242 -8.94964
355 1 6.28968 12.5794 1.22579e-05 -8.94969
356 1 7.86211 14.1518 1.57242 -8.94963
357 1 9.43453 12.5794 8.38363e-06 -8.94964
358 1 11.007 14.1518 1.57242 -8.94963
359 1 12.5794 12.5794 -9.66615e-08 -8.94964
360 1 14.1518 14.1518 1.57242 -8.94963
509 1 12.5794 18.8691 9.43452 -8.94962
362 1 17.2966 14.1518 1.57242 -8.94963
508 1 9.43453 18.8691 9.43453 -8.94964
364 1 20.4415 14.1518 1.57242 -8.94963
539 1 20.4415 20.4415 11.007 -8.94963
366 1 1.57242 17.2966 1.57242 -8.94963
367 1 3.14484 15.7242 7.26177e-07 -8.94963
368 1 4.71726 17.2966 1.57242 -8.94963
507 1 6.28968 18.8691 9.43452 -8.94965
370 1 7.86211 17.2966 1.57242 -8.94963
506 1 3.14484 18.8691 9.43453 -8.94964
372 1 11.007 17.2966 1.57242 -8.94963
373 1 12.5794 15.7242 6.59611e-07 -8.94963
374 1 14.1518 17.2966 1.57242 -8.94963
375 1 15.7242 15.7242 -1.58687e-08 -8.94963
376 1 17.2966 17.2966 1.57242 -8.94963
377 1 18.8691 15.7242 -1.1344e-09 -8.94963
378 1 20.4415 17.2966 1.57242 -8.94963
379 1 22.0139 18.8691 7.52736e-09 -8.94963
380 1 1.57242 20.4415 1.57242 -8.94963
538 1 17.2966 20.4415 11.007 -8.94963
382 1 4.71726 20.4415 1.57242 -8.94963
505 1 2.57073e-08 18.8691 9.43453 -8.94963
384 1 7.86211 20.4415 1.57242 -8.94963
504 1 18.8691 15.7242 9.43453 -8.94963
386 1 11.007 20.4415 1.57242 -8.94963
536 1 11.007 20.4415 11.0069 -8.94969
388 1 14.1518 20.4415 1.57242 -8.94963
389 1 15.7242 18.8691 1.9897e-08 -8.94963
390 1 17.2966 20.4415 1.57242 -8.94963
391 1 18.8691 18.8691 -4.15863e-11 -8.94963
392 1 20.4415 20.4415 1.57242 -8.94963
393 1 1.57242 11.007 4.71726 -8.94964
394 1 4.71726 11.007 4.71726 -8.94962
395 1 7.86211 11.007 4.71704 -8.95102
396 1 11.0069 11.007 4.71726 -8.94968
397 1 14.1518 11.007 4.71726 -8.94962
398 1 17.2966 11.007 4.71726 -8.94963
399 1 20.4415 11.007 4.71726 -8.94963
400 1 22.0139 12.5794 3.14484 -8.94963
401 1 1.57242 14.1518 4.71727 -8.94965
402 1 3.14484 12.5794 3.14484 -8.94963
403 1 4.71725 14.1518 4.71725 -8.94962
404 1 6.28968 12.5794 3.14483 -8.94969
405 1 7.86211 14.1518 4.71726 -8.94964
406 1 9.43453 12.5794 3.14483 -8.94964
407 1 11.007 14.1518 4.71725 -8.94965
408 1 12.5794 12.5794 3.14484 -8.94964
409 1 14.1518 14.1518 4.71726 -8.94964
410 1 15.7242 12.5794 3.14484 -8.94963
411 1 17.2966 14.1518 4.71726 -8.94963
412 1 18.8691 12.5794 3.14484 -8.94963
413 1 20.4415 14.1518 4.71726 -8.94963
414 1 3.08339e-08 15.7242 3.14484 -8.94963
415 1 1.57242 17.2966 4.71726 -8.94963
416 1 3.14484 15.7242 3.14484 -8.94963
417 1 4.71726 17.2966 4.71727 -8.94965
418 1 6.28969 15.7242 3.14484 -8.94963
419 1 7.86211 17.2966 4.71726 -8.94963
420 1 9.43453 15.7242 3.14484 -8.94963
421 1 11.007 17.2966 4.71727 -8.94964
422 1 12.5794 15.7242 3.14484 -8.94963
423 1 14.1518 17.2966 4.71726 -8.94963
424 1 15.7242 15.7242 3.14484 -8.94963
425 1 17.2966 17.2966 4.71726 -8.94963
426 1 18.8691 15.7242 3.14484 -8.94963
427 1 20.4415 17.2966 4.71726 -8.94963
428 1 22.0139 18.8691 3.14484 -8.94963
429 1 1.57242 20.4415 4.71726 -8.94963
430 1 3.14484 18.8691 3.14484 -8.94963
431 1 4.71726 20.4415 4.71726 -8.94963
432 1 6.28969 18.8691 3.14484 -8.94963
433 1 7.86211 20.4415 4.71726 -8.94963
434 1 9.43453 18.8691 3.14484 -8.94963
435 1 11.007 20.4415 4.71726 -8.94963
436 1 12.5794 18.8691 3.14484 -8.94963
437 1 14.1518 20.4415 4.71726 -8.94963
438 1 15.7242 18.8691 3.14484 -8.94963
439 1 17.2966 20.4415 4.71726 -8.94963
440 1 18.8691 18.8691 3.14484 -8.94963
441 1 20.4415 20.4415 4.71726 -8.94963
442 1 1.57242 11.007 7.86211 -8.94961
443 1 4.71722 11.007 7.86205 -8.95138
444 1 7.86197 11.007 7.85679 -8.97323
445 1 11.0069 11.007 7.86203 -8.95123
446 1 14.1518 11.007 7.86211 -8.94963
447 1 17.2966 11.007 7.86211 -8.94963
448 1 20.4415 11.007 7.86211 -8.94963
449 1 4.23679e-07 12.5794 6.28969 -8.94963
450 1 1.57241 14.1518 7.8621 -8.94965
451 1 3.14485 12.5794 6.2897 -8.9498
452 1 4.71695 14.1521 7.86179 -8.94677
453 1 6.28955 12.5795 6.28935 -8.95024
454 1 7.86218 14.1518 7.86206 -8.95135
455 1 9.43465 12.5795 6.28951 -8.94903
456 1 11.0071 14.1519 7.8618 -8.9504
457 1 12.5794 12.5794 6.28968 -8.94971
458 1 14.1518 14.1518 7.86211 -8.94973
459 1 15.7242 12.5794 6.28969 -8.94964
460 1 17.2966 14.1518 7.86211 -8.94963
461 1 18.8691 12.5794 6.28969 -8.94963
462 1 20.4415 14.1518 7.86211 -8.94963
463 1 22.0139 15.7242 6.28969 -8.94963
464 1 1.57242 17.2966 7.86211 -8.94964
465 1 3.14483 15.7242 6.28967 -8.94949
466 1 4.71726 17.2967 7.8621 -8.94964
467 1 6.28969 15.7242 6.2897 -8.94983
468 1 7.86211 17.2966 7.86211 -8.94965
469 1 9.43452 15.7242 6.28969 -8.94965
470 1 11.0069 17.2966 7.86212 -8.94983
471 1 12.5794 15.7242 6.28967 -8.94964
472 1 14.1518 17.2966 7.8621 -8.94949
473 1 15.7242 15.7242 6.28969 -8.94964
474 1 17.2966 17.2966 7.86211 -8.94963
475 1 18.8691 15.7242 6.28969 -8.94963
476 1 20.4415 17.2966 7.86211 -8.94963
477 1 22.0139 18.8691 6.28969 -8.94963
478 1 1.57242 20.4415 7.86211 -8.94963
479 1 3.14484 18.8691 6.28969 -8.94963
480 1 4.71726 20.4415 7.86211 -8.94963
481 1 6.28969 18.8691 6.28969 -8.94964
482 1 7.86211 20.4415 7.86211 -8.94963
483 1 9.43453 18.8691 6.28969 -8.94963
484 1 11.007 20.4415 7.86211 -8.94963
485 1 12.5794 18.8691 6.28969 -8.94965
486 1 14.1518 20.4415 7.86211 -8.94963
487 1 15.7242 18.8691 6.28969 -8.94963
488 1 17.2966 20.4415 7.86211 -8.94963
489 1 18.8691 18.8691 6.28969 -8.94963
490 1 20.4415 20.4415 7.86211 -8.94963
491 1 22.0139 12.5794 9.43453 -8.94969
492 1 3.14456 12.5795 9.43445 -8.95066
493 1 6.28361 12.5854 9.42874 -8.90068
494 1 9.43656 12.5816 9.43319 -8.9351
495 1 12.5796 12.5795 9.43434 -8.94908
496 1 15.7242 12.5794 9.43452 -8.94964
497 1 18.8691 12.5794 9.43453 -8.94964
498 1 22.0139 15.7242 9.43453 -8.94963
499 1 3.14484 15.7242 9.43452 -8.94973
500 1 6.28957 15.7245 9.43442 -8.9504
501 1 9.43446 15.7243 9.43457 -8.95135
502 1 12.5797 15.7245 9.43421 -8.94677
503 1 15.7242 15.7242 9.43452 -8.94965
512 1 1.57229 11.007 11.007 -8.95045
513 1 4.71393 11.007 11.0065 -8.96251
514 1 7.80144 11.007 10.8762 -8.02328
515 1 11.0102 11.007 11.0038 -8.90885
516 1 14.1521 11.007 11.0068 -8.94955
517 1 17.2967 11.007 11.0069 -8.94967
518 1 20.4415 11.007 11.007 -8.94967
519 1 1.57241 14.1518 11.0069 -8.94964
520 1 4.71701 14.152 11.0069 -8.94908
521 1 7.86008 14.1531 11.0047 -8.9351
522 1 11.013 14.1576 11.0009 -8.90068
523 1 14.1521 14.1519 11.0069 -8.95066
524 1 17.2966 14.1518 11.0069 -8.94969
525 1 20.4415 14.1518 11.007 -8.94964
527 1 4.71726 17.2966 11.007 -8.94971
528 1 7.86198 17.2968 11.0068 -8.94903
529 1 11.0071 17.297 11.0068 -8.95024
535 1 7.8621 20.4415 11.0069 -8.94964
534 1 4.71726 20.4415 11.007 -8.94964
351 1 22.0139 12.5794 2.8468e-08 -8.94963
385 1 9.43453 18.8691 1.20505e-08 -8.94963
383 1 6.28969 18.8691 2.82636e-08 -8.94963
363 1 18.8691 12.5794 3.69374e-09 -8.94963
687 3 8.64832 11.007 12.5794 3.1356
686 1 20.4415 20.4415 20.4415 -8.94963
685 1 18.8691 18.8691 18.8691 -8.94963
684 1 17.2966 20.4415 20.4415 -8.94963
683 1 15.7242 18.8691 18.8691 -8.94963
682 1 14.1518 20.4415 20.4415 -8.94963
681 1 12.5794 18.8691 18.8691 -8.94965
680 1 11.007 20.4415 20.4415 -8.94963
679 1 9.43453 18.8691 18.8691 -8.94963
678 1 7.86211 20.4415 20.4415 -8.94963
677 1 6.28969 18.8691 18.8691 -8.94964
676 1 4.71726 20.4415 20.4415 -8.94963
675 1 3.14484 18.8691 18.8691 -8.94963
674 1 1.57242 20.4415 20.4415 -8.94963
526 1 1.57242 17.2966 11.007 -8.94964
673 1 22.0139 18.8691 18.8691 -8.94963
672 1 20.4415 17.2966 20.4415 -8.94963
671 1 18.8691 15.7242 18.8691 -8.94963
670 1 17.2966 17.2966 20.4415 -8.94963
531 1 17.2966 17.2966 11.007 -8.94963
532 1 20.4415 17.2966 11.007 -8.94963
533 1 1.57242 20.4415 11.007 -8.94963
669 1 15.7242 15.7242 18.8691 -8.94964
668 1 14.1518 17.2966 20.4415 -8.94963
667 1 12.5794 15.7242 18.8691 -8.94964
666 1 11.007 17.2966 20.4415 -8.94964
665 1 9.43452 15.7242 18.8691 -8.94965
664 1 7.86211 17.2966 20.4415 -8.94963
540 1 1.57229 11.007 14.1518 -8.95045
541 1 4.71393 11.007 14.1523 -8.96251
542 1 7.80144 11.007 14.2826 -8.02328
543 1 11.0102 11.007 14.1549 -8.90885
544 1 14.1521 11.007 14.1519 -8.94955
545 1 17.2967 11.007 14.1518 -8.94967
546 1 20.4415 11.007 14.1518 -8.94967
547 1 22.0139 12.5794 12.5794 -8.94967
548 1 1.57241 14.1518 14.1518 -8.94964
549 1 3.14455 12.5795 12.5794 -8.94955
550 1 4.71701 14.152 14.1519 -8.94908
551 1 6.28641 12.5825 12.5794 -8.90885
552 1 7.86008 14.1531 14.1541 -8.9351
553 1 9.4952 12.7101 12.5794 -8.02328
554 1 11.013 14.1576 14.1578 -8.90068
555 1 12.5827 12.5798 12.5794 -8.96251
556 1 14.1521 14.1519 14.1519 -8.95066
557 1 15.7243 12.5794 12.5794 -8.95045
558 1 17.2966 14.1518 14.1518 -8.94969
559 1 18.8691 12.5794 12.5794 -8.94967
560 1 20.4415 14.1518 14.1518 -8.94964
561 1 5.98351e-07 15.7242 12.5794 -8.94963
562 1 1.57242 17.2966 14.1518 -8.94964
563 1 3.14485 15.7242 12.5794 -8.94963
564 1 4.71726 17.2966 14.1518 -8.94971
565 1 6.28976 15.7243 12.5794 -8.95123
566 1 7.86198 17.2968 14.1519 -8.94903
567 1 9.43467 15.7295 12.5794 -8.97323
568 1 11.0071 17.297 14.1519 -8.95024
569 1 12.5794 15.7243 12.5794 -8.95138
570 1 14.1518 17.2966 14.1518 -8.9498
571 1 15.7242 15.7242 12.5794 -8.94961
572 1 17.2966 17.2966 14.1518 -8.94963
573 1 18.8691 15.7242 12.5794 -8.94963
574 1 20.4415 17.2966 14.1518 -8.94963
575 1 22.0139 18.8691 12.5794 -8.94963
576 1 1.57242 20.4415 14.1518 -8.94963
577 1 3.14484 18.8691 12.5794 -8.94962
578 1 4.71726 20.4415 14.1518 -8.94964
579 1 6.28969 18.8691 12.5794 -8.94968
580 1 7.8621 20.4415 14.1518 -8.94964
581 1 9.43452 18.8693 12.5794 -8.95102
582 1 11.007 20.4415 14.1518 -8.94969
583 1 12.5794 18.8691 12.5794 -8.94962
584 1 14.1518 20.4415 14.1518 -8.94963
585 1 15.7242 18.8691 12.5794 -8.94964
586 1 17.2966 20.4415 14.1518 -8.94963
587 1 18.8691 18.8691 12.5794 -8.94963
588 1 20.4415 20.4415 14.1518 -8.94963
589 1 1.57242 11.007 17.2966 -8.94961
590 1 4.71722 11.007 17.2967 -8.95138
591 1 7.86197 11.007 17.302 -8.97323
592 1 11.0069 11.007 17.2967 -8.95123
593 1 14.1518 11.007 17.2966 -8.94963
594 1 17.2966 11.007 17.2966 -8.94963
595 1 20.4415 11.007 17.2966 -8.94963
596 1 22.0139 12.5794 15.7242 -8.94969
597 1 1.57241 14.1518 17.2966 -8.94965
598 1 3.14456 12.5795 15.7243 -8.95066
599 1 4.71695 14.1521 17.297 -8.94677
600 1 6.28361 12.5854 15.73 -8.90068
601 1 7.86218 14.1518 17.2967 -8.95135
602 1 9.43656 12.5816 15.7256 -8.9351
603 1 11.0071 14.1519 17.2969 -8.9504
604 1 12.5796 12.5795 15.7244 -8.94908
605 1 14.1518 14.1518 17.2966 -8.94973
606 1 15.7242 12.5794 15.7242 -8.94964
607 1 17.2966 14.1518 17.2966 -8.94963
608 1 18.8691 12.5794 15.7242 -8.94964
609 1 20.4415 14.1518 17.2966 -8.94963
610 1 22.0139 15.7242 15.7242 -8.94963
611 1 1.57242 17.2966 17.2966 -8.94964
612 1 3.14484 15.7242 15.7242 -8.94973
613 1 4.71726 17.2967 17.2966 -8.94964
614 1 6.28957 15.7245 15.7243 -8.9504
615 1 7.86211 17.2966 17.2966 -8.94965
616 1 9.43446 15.7243 15.7242 -8.95135
617 1 11.0069 17.2966 17.2966 -8.94983
618 1 12.5797 15.7245 15.7245 -8.94677
619 1 14.1518 17.2966 17.2966 -8.94949
620 1 15.7242 15.7242 15.7242 -8.94965
621 1 17.2966 17.2966 17.2966 -8.94963
622 1 18.8691 15.7242 15.7242 -8.94963
623 1 20.4415 17.2966 17.2966 -8.94963
624 1 2.57073e-08 18.8691 15.7242 -8.94963
625 1 1.57242 20.4415 17.2966 -8.94963
626 1 3.14484 18.8691 15.7242 -8.94964
627 1 4.71726 20.4415 17.2966 -8.94963
628 1 6.28968 18.8691 15.7242 -8.94965
629 1 7.86211 20.4415 17.2966 -8.94963
630 1 9.43453 18.8691 15.7242 -8.94964
631 1 11.007 20.4415 17.2966 -8.94963
632 1 12.5794 18.8691 15.7242 -8.94962
633 1 14.1518 20.4415 17.2966 -8.94963
634 1 15.7242 18.8691 15.7242 -8.94965
635 1 17.2966 20.4415 17.2966 -8.94963
636 1 18.8691 18.8691 15.7242 -8.94963
637 1 20.4415 20.4415 17.2966 -8.94963
638 1 1.57242 11.007 20.4415 -8.94964
639 1 4.71726 11.007 20.4415 -8.94962
640 1 7.86211 11.007 20.4417 -8.95102
641 1 11.0069 11.007 20.4415 -8.94968
642 1 14.1518 11.007 20.4415 -8.94962
643 1 17.2966 11.007 20.4415 -8.94963
644 1 20.4415 11.007 20.4415 -8.94963
645 1 4.23679e-07 12.5794 18.8691 -8.94963
646 1 1.57242 14.1518 20.4415 -8.94965
647 1 3.14485 12.5794 18.869 -8.9498
648 1 4.71725 14.1518 20.4415 -8.94962
649 1 6.28955 12.5795 18.8694 -8.95024
650 1 7.86211 14.1518 20.4415 -8.94964
651 1 9.43465 12.5795 18.8692 -8.94903
652 1 11.007 14.1518 20.4415 -8.94965
653 1 12.5794 12.5794 18.8691 -8.94971
654 1 14.1518 14.1518 20.4415 -8.94964
655 1 15.7242 12.5794 18.8691 -8.94964
656 1 17.2966 14.1518 20.4415 -8.94963
657 1 18.8691 12.5794 18.8691 -8.94963
658 1 20.4415 14.1518 20.4415 -8.94963
659 1 22.0139 15.7242 18.8691 -8.94963
660 1 1.57242 17.2966 20.4415 -8.94963
661 1 3.14483 15.7242 18.8691 -8.94949
662 1 4.71726 17.2966 20.4415 -8.94965
663 1 6.28969 15.7242 18.869 -8.94983
371 1 9.43453 15.7242 22.0139 -8.94963
353 1 3.14484 12.5794 22.0139 -8.94963
361 1 15.7242 12.5794 22.0139 -8.94963
369 1 6.28969 15.7242 22.0139 -8.94963
365 1 3.08339e-08 15.7242 22.0139 -8.94963
381 1 3.14484 18.8691 22.0139 -8.94963
387 1 12.5794 18.8691 22.0139 -8.94963
537 1 14.1518 20.4415 11.007 -8.94963
530 1 14.1518 17.2966 11.007 -8.9498
