ITEM: TIMESTEP
63
ITEM: NUMBER OF ATOMS
687
ITEM: BOX BOUNDS pp pp pp
0.0000000000000000e+00 2.2013900999999997e+01
0.0000000000000000e+00 2.2013900999999997e+01
0.0000000000000000e+00 2.2013900999999997e+01
ITEM: ATOMS id type x y z c_pot
1 1 22.0139 1.42912e-16 1.93903e-05 -8.9496
2 1 1.57242 1.57241 1.57242 -8.94967
196 1 20.4414 7.86198 11.007 -8.94984
4 1 4.71726 1.57241 1.57242 -8.94963
5 1 6.28968 -2.13103e-15 1.87261e-05 -8.94964
6 1 7.86211 1.5724 1.57242 -8.94964
175 1 18.8691 9.43453 9.4344 -8.94984
8 1 11.007 1.5724 1.57242 -8.94964
9 1 12.5794 7.19483e-16 1.62246e-05 -8.94963
10 1 14.1518 1.57241 1.57242 -8.94964
195 1 17.298 7.86197 11.0068 -8.95124
12 1 17.2967 1.5724 1.57242 -8.9496
13 1 18.8691 5.93579e-16 9.18272e-06 -8.94958
14 1 20.4415 1.57241 1.57242 -8.94958
15 1 22.0138 3.14478 4.36568e-05 -8.94947
16 1 1.57231 4.71716 1.57242 -8.94957
194 1 14.1594 7.85984 11.005 -8.95726
18 1 4.71726 4.71719 1.57242 -8.94961
174 1 15.7252 9.43495 9.43405 -8.94948
20 1 7.86211 4.71716 1.57242 -8.94962
173 1 12.582 9.43718 9.43377 -8.95193
22 1 11.007 4.71716 1.57242 -8.94957
193 1 11.0436 7.82915 10.9758 -8.85596
24 1 14.1519 4.71719 1.57242 -8.94974
25 1 15.7243 3.14477 8.40966e-05 -8.94957
26 1 17.2966 4.71727 1.57242 -8.94966
27 1 18.8691 3.14483 1.57008e-05 -8.94964
28 1 20.4415 4.71726 1.57242 -8.94966
192 1 7.84971 7.85615 10.9885 -8.90921
30 1 1.57232 7.86207 1.57242 -8.94955
31 1 3.14457 6.2894 0.000395123 -8.94978
32 1 4.71711 7.86193 1.57242 -8.95026
172 1 9.44692 9.4161 9.42857 -8.90921
34 1 7.8622 7.86194 1.57242 -8.94993
171 1 6.25306 9.40339 9.40157 -8.85596
36 1 11.007 7.86203 1.57242 -8.9501
37 1 12.5795 6.28954 0.000359301 -8.9501
38 1 14.1518 7.86212 1.57242 -8.9496
39 1 15.7242 6.2897 3.78705e-05 -8.94967
40 1 17.2967 7.8621 1.57242 -8.94962
41 1 18.8691 6.28968 1.3571e-05 -8.94962
42 1 20.4415 7.8621 1.57242 -8.94964
170 1 3.13727 9.43262 9.43226 -8.95726
169 1 22.0126 9.43438 9.4344 -8.95124
45 1 6.28963 9.43444 0.00098704 -8.9511
46 1 9.43468 9.4345 0.000447176 -8.94964
47 1 12.5795 9.43457 0.000166305 -8.94952
168 1 18.8694 6.28956 9.43442 -8.94995
167 1 15.7264 6.28872 9.43352 -8.95056
50 1 22.0139 -6.09036e-16 3.14482 -8.9496
51 1 1.57235 1.57234 4.71719 -8.94957
52 1 3.14484 -1.41866e-15 3.14483 -8.94964
53 1 4.71725 1.57236 4.71721 -8.9496
54 1 6.28968 -2.14959e-15 3.14482 -8.94964
55 1 7.8621 1.57235 4.71719 -8.94963
56 1 9.43453 -1.33305e-15 3.14482 -8.94964
57 1 11.007 1.57236 4.71719 -8.94961
58 1 12.5794 5.81391e-16 3.14483 -8.94963
59 1 14.1518 1.57237 4.71721 -8.94971
60 1 15.7242 2.91547e-16 3.14483 -8.94967
61 1 17.2967 1.57238 4.7172 -8.94947
62 1 18.8691 7.53446e-16 3.14483 -8.94958
63 1 20.4415 1.57241 4.71725 -8.94964
64 1 22.0138 3.14478 3.1448 -8.94947
65 1 1.57204 4.71688 4.7169 -8.94875
66 1 3.14482 3.14479 3.14479 -8.94971
67 1 4.71719 4.71699 4.71696 -8.9498
68 1 6.28967 3.14477 3.14478 -8.94961
69 1 7.8621 4.71695 4.71689 -8.94953
70 1 9.43453 3.14477 3.14478 -8.94963
71 1 11.007 4.71699 4.71689 -8.94934
72 1 12.5794 3.14478 3.14479 -8.9496
73 1 14.1521 4.71694 4.71672 -8.9495
74 1 15.7243 3.14477 3.14476 -8.94957
75 1 17.2967 4.71725 4.71721 -8.94974
76 1 18.8691 3.14483 3.14483 -8.94964
77 1 20.4414 4.71721 4.7172 -8.94959
78 1 -6.38171e-05 6.28966 3.14479 -8.94967
79 1 1.57209 7.86196 4.71693 -8.94956
80 1 3.14457 6.2894 3.14445 -8.94978
81 1 4.71647 7.86127 4.71533 -8.95101
82 1 6.2897 6.28948 3.14454 -8.94956
83 1 7.86242 7.86156 4.71581 -8.94995
84 1 9.43462 6.28944 3.1445 -8.94956
85 1 11.0072 7.86192 4.71594 -8.95161
86 1 12.5795 6.28954 3.14448 -8.9501
87 1 14.1519 7.86221 4.71706 -8.94964
88 1 15.7242 6.2897 3.14481 -8.94967
89 1 17.2967 7.8621 4.7172 -8.94956
90 1 18.8691 6.28968 3.14483 -8.94962
91 1 20.4414 7.86209 4.7172 -8.94959
92 1 22.0138 9.43452 3.14479 -8.94964
93 1 3.14455 9.43444 3.14446 -8.94944
94 1 6.28963 9.43444 3.14386 -8.9511
95 1 9.43468 9.4345 3.1444 -8.94964
96 1 12.5795 9.43457 3.14468 -8.94952
97 1 15.7243 9.43452 3.14477 -8.94961
98 1 18.8691 9.43453 3.14482 -8.94964
99 1 22.0139 1.76607e-15 6.28969 -8.94966
100 1 1.57239 1.57238 7.86212 -8.94967
101 1 3.14476 4.22032e-16 6.28961 -8.94974
102 1 4.7171 1.57206 7.86196 -8.9501
103 1 6.28965 8.87668e-16 6.28959 -8.94957
104 1 7.86201 1.57208 7.86186 -8.94956
105 1 9.43453 -7.10861e-16 6.28959 -8.94962
106 1 11.0069 1.57212 7.8619 -8.94956
107 1 12.5794 3.13973e-16 6.28961 -8.94961
108 1 14.1521 1.57203 7.86182 -8.94978
109 1 15.7243 1.42629e-15 6.28958 -8.94957
110 1 17.2967 1.57237 7.86208 -8.94967
111 1 18.8691 1.65667e-15 6.28968 -8.94966
112 1 20.4415 1.57241 7.8621 -8.94962
113 1 22.0139 3.14479 6.28967 -8.94974
114 1 1.57217 4.71703 7.86209 -8.95007
115 1 3.14451 3.1443 6.28936 -8.9495
116 1 4.71594 4.71486 7.86088 -8.94997
117 1 6.28963 3.14446 6.28941 -8.94934
118 1 7.86188 4.71571 7.86097 -8.94818
119 1 9.43454 3.14446 6.28937 -8.94953
120 1 11.0071 4.71585 7.86103 -8.94948
121 1 12.5794 3.14454 6.28941 -8.9498
122 1 14.1539 4.71522 7.85999 -8.94541
123 1 15.7246 3.14448 6.2893 -8.94875
124 1 17.2971 4.71698 7.86182 -8.94963
125 1 18.8691 3.14478 6.28963 -8.94959
126 1 20.4415 4.7172 7.86208 -8.94969
127 1 22.0134 6.2894 6.2894 -8.94963
128 1 1.57026 7.8611 7.86115 -8.95056
129 1 3.14276 6.28757 6.28764 -8.94541
130 1 4.70795 7.85292 7.85298 -8.93125
131 1 6.28949 6.28861 6.28827 -8.94948
132 1 7.86243 7.85916 7.8564 -8.95095
133 1 9.43476 6.28855 6.28814 -8.94818
134 1 11.011 7.85823 7.85434 -8.95394
135 1 12.5807 6.28845 6.28728 -8.94997
136 1 14.1528 7.86238 7.86138 -8.95104
137 1 15.7245 6.28966 6.28945 -8.95007
138 1 17.2969 7.86214 7.86194 -8.94962
139 1 18.869 6.28966 6.28962 -8.94969
140 1 20.4412 7.862 7.86198 -8.94995
141 1 -0.000441163 9.43445 6.28941 -8.94942
142 1 3.1433 9.43398 6.28809 -8.94833
143 1 6.28808 9.43345 6.28339 -8.95798
144 1 9.43461 9.43453 6.28799 -8.95079
145 1 12.5797 9.43511 6.28914 -8.9493
146 1 15.7245 9.43451 6.28936 -8.94927
147 1 18.8691 9.43451 6.28959 -8.9496
148 1 -1.95044e-05 2.00158e-15 9.43452 -8.94962
149 1 3.14479 2.04859e-15 9.43454 -8.9496
150 1 6.28959 1.86022e-15 9.43446 -8.9501
151 1 9.43444 9.43131e-17 9.43436 -8.94993
152 1 12.5795 -1.90888e-16 9.43436 -8.95026
153 1 15.7243 1.57135e-15 9.43449 -8.94955
154 1 18.8691 1.47788e-15 9.43453 -8.94964
155 1 -4.9871e-05 3.14478 9.43452 -8.94956
156 1 3.14471 3.14464 9.43464 -8.94964
157 1 6.28941 3.14351 9.43434 -8.95161
158 1 9.43422 3.14339 9.43398 -8.94995
159 1 12.5802 3.14291 9.4337 -8.95101
160 1 15.7245 3.14451 9.43439 -8.94956
161 1 18.8691 3.14478 9.43451 -8.94959
162 1 22.0137 6.28952 9.43456 -8.94962
163 1 3.14386 6.28896 9.4348 -8.95104
164 1 6.28568 6.28192 9.43065 -8.95394
165 1 9.4342 6.28398 9.43159 -8.95095
166 1 12.5887 6.28056 9.42534 -8.93125
177 1 4.71713 1.57226 11.007 -8.94952
178 1 7.86196 1.57197 11.0069 -8.94964
179 1 11.007 1.57143 11.0069 -8.9511
191 1 4.7146 7.86135 11.0096 -8.95193
181 1 17.2967 1.57236 11.0069 -8.94964
182 1 20.4415 1.5724 11.0069 -8.94964
184 1 4.71694 4.71672 11.0075 -8.9493
185 1 7.86203 4.71557 11.007 -8.95079
186 1 11.0086 4.71097 11.0059 -8.95798
190 1 1.5714 7.86163 11.0074 -8.94948
19 1 6.28967 3.14477 6.221e-05 -8.94961
49 1 18.8691 9.43453 1.81035e-05 -8.94964
21 1 9.43453 3.14477 6.699e-05 -8.94963
43 1 22.0138 9.43452 5.72933e-05 -8.94964
176 1 1.57235 1.57235 11.0069 -8.94961
343 1 18.8691 9.43451 18.8692 -8.9496
342 1 15.7245 9.43451 18.8694 -8.94927
341 1 12.5797 9.43511 18.8696 -8.9493
340 1 9.43461 9.43453 18.8708 -8.95079
339 1 6.28808 9.43345 18.8754 -8.95798
338 1 3.1433 9.43398 18.8707 -8.94833
183 1 1.57212 4.71694 11.0069 -8.94927
337 1 -0.000441163 9.43445 18.8693 -8.94942
336 1 20.4414 7.86209 20.4415 -8.94959
335 1 18.869 6.28966 18.8691 -8.94969
334 1 17.2967 7.8621 20.4415 -8.94956
188 1 17.2971 4.71699 11.0069 -8.94942
189 1 20.4415 4.71717 11.0069 -8.9496
333 1 15.7245 6.28966 18.8693 -8.95007
332 1 14.1519 7.86221 20.4417 -8.94964
331 1 12.5807 6.28845 18.8715 -8.94997
330 1 11.0072 7.86192 20.4428 -8.95161
329 1 9.43476 6.28855 18.8706 -8.94818
328 1 7.86242 7.86156 20.4429 -8.94995
327 1 6.28949 6.28861 18.8705 -8.94948
197 1 -1.92901e-05 1.44854e-15 12.5794 -8.94963
198 1 1.57235 1.57235 14.1518 -8.94961
199 1 3.14476 1.88404e-15 12.5794 -8.94969
200 1 4.71713 1.57226 14.1518 -8.94952
201 1 6.28956 1.26674e-15 12.5794 -8.94947
202 1 7.86196 1.57197 14.1518 -8.94964
203 1 9.4344 7.30416e-16 12.5794 -8.94949
204 1 11.007 1.57143 14.1519 -8.9511
205 1 12.5796 -1.13841e-15 12.5794 -8.94999
206 1 14.1521 1.57204 14.1519 -8.94944
207 1 15.7243 1.21867e-15 12.5794 -8.94959
208 1 17.2967 1.57236 14.1518 -8.94964
209 1 18.8691 4.81069e-16 12.5794 -8.94964
210 1 20.4415 1.5724 14.1518 -8.94964
211 1 22.0138 3.14476 12.5794 -8.94965
212 1 1.57212 4.71694 14.1518 -8.94927
213 1 3.14458 3.14447 12.5794 -8.94964
214 1 4.71694 4.71672 14.1512 -8.9493
215 1 6.28943 3.14453 12.5794 -8.94861
216 1 7.86203 4.71557 14.1518 -8.95079
217 1 9.43429 3.14355 12.5794 -8.94778
218 1 11.0086 4.71097 14.1529 -8.95798
219 1 12.5804 3.14286 12.5794 -8.94931
220 1 14.1533 4.71567 14.1523 -8.94833
221 1 15.7246 3.1445 12.5794 -8.94961
222 1 17.2971 4.71699 14.1519 -8.94942
223 1 18.8691 3.14478 12.5794 -8.94961
224 1 20.4415 4.71717 14.1518 -8.9496
225 1 -0.000336184 6.28937 12.5794 -8.94954
226 1 1.5714 7.86163 14.1514 -8.94948
227 1 3.14376 6.28843 12.5794 -8.94715
228 1 4.7146 7.86135 14.1491 -8.95193
229 1 6.29111 6.29093 12.5794 -8.94674
230 1 7.84971 7.85615 14.1702 -8.90921
231 1 9.43829 6.29023 12.5794 -9.00112
232 1 11.0436 7.82915 14.1829 -8.85596
233 1 12.5862 6.28291 12.5794 -8.94352
234 1 14.1594 7.85984 14.1537 -8.95726
235 1 15.7263 6.28867 12.5794 -8.94906
236 1 17.298 7.86197 14.1519 -8.95124
237 1 18.8694 6.28951 12.5794 -8.94978
238 1 20.4414 7.86198 14.1518 -8.94984
239 1 22.0134 9.43423 12.5794 -8.94848
240 1 3.14529 9.4342 12.5794 -8.94119
241 1 6.3065 9.44239 12.5794 -8.90039
242 1 9.51601 9.21033 12.5794 -8.1093
243 1 12.589 9.42897 12.5794 -8.9728
244 1 15.7266 9.43497 12.5794 -8.95157
245 1 18.8694 9.43457 12.5794 -8.94987
246 1 -1.95044e-05 1.26298e-15 15.7242 -8.94962
247 1 1.57239 1.57238 17.2966 -8.94967
248 1 3.14479 2.07523e-15 15.7242 -8.9496
249 1 4.7171 1.57206 17.2968 -8.9501
250 1 6.28959 1.75175e-15 15.7243 -8.9501
251 1 7.86201 1.57208 17.2969 -8.94956
252 1 9.43444 7.87047e-16 15.7244 -8.94993
253 1 11.0069 1.57212 17.2968 -8.94956
254 1 12.5795 -5.59078e-16 15.7244 -8.95026
255 1 14.1521 1.57203 17.2969 -8.94978
256 1 15.7243 1.00721e-15 15.7243 -8.94955
257 1 17.2967 1.57237 17.2967 -8.94967
258 1 18.8691 1.32269e-15 15.7242 -8.94964
259 1 20.4415 1.57241 17.2966 -8.94962
260 1 -4.9871e-05 3.14478 15.7242 -8.94956
261 1 1.57217 4.71703 17.2967 -8.95007
262 1 3.14471 3.14464 15.7241 -8.94964
263 1 4.71594 4.71486 17.2979 -8.94997
264 1 6.28941 3.14351 15.7244 -8.95161
265 1 7.86188 4.71571 17.2978 -8.94818
266 1 9.43422 3.14339 15.7248 -8.94995
267 1 11.0071 4.71585 17.2977 -8.94948
268 1 12.5802 3.14291 15.725 -8.95101
269 1 14.1539 4.71522 17.2988 -8.94541
270 1 15.7245 3.14451 15.7244 -8.94956
271 1 17.2971 4.71698 17.2969 -8.94963
272 1 18.8691 3.14478 15.7242 -8.94959
273 1 20.4415 4.7172 17.2967 -8.94969
274 1 22.0137 6.28952 15.7242 -8.94962
275 1 1.57026 7.8611 17.2976 -8.95056
276 1 3.14386 6.28896 15.7239 -8.95104
277 1 4.70795 7.85292 17.3058 -8.93125
278 1 6.28568 6.28192 15.7281 -8.95394
279 1 7.86243 7.85916 17.3023 -8.95095
280 1 9.4342 6.28398 15.7272 -8.95095
281 1 11.011 7.85823 17.3044 -8.95394
282 1 12.5887 6.28056 15.7334 -8.93125
283 1 14.1528 7.86238 17.2974 -8.95104
284 1 15.7264 6.28872 15.7252 -8.95056
285 1 17.2969 7.86214 17.2968 -8.94962
286 1 18.8694 6.28956 15.7243 -8.94995
287 1 20.4412 7.862 17.2968 -8.94995
288 1 22.0126 9.43438 15.7243 -8.95124
289 1 3.13727 9.43262 15.7265 -8.95726
290 1 6.25306 9.40339 15.7572 -8.85596
291 1 9.44692 9.4161 15.7302 -8.90921
292 1 12.582 9.43718 15.725 -8.95193
293 1 15.7252 9.43495 15.7247 -8.94948
294 1 18.8691 9.43453 15.7243 -8.94984
295 1 22.0139 1.46819e-15 18.8691 -8.94966
296 1 1.57235 1.57234 20.4416 -8.94957
297 1 3.14476 6.65242e-16 18.8691 -8.94974
298 1 4.71725 1.57236 20.4415 -8.9496
299 1 6.28965 1.47777e-15 18.8692 -8.94957
300 1 7.8621 1.57235 20.4416 -8.94963
301 1 9.43453 -3.00785e-16 18.8692 -8.94962
302 1 11.007 1.57236 20.4415 -8.94961
303 1 12.5794 3.18964e-16 18.8691 -8.94961
304 1 14.1518 1.57237 20.4415 -8.94971
305 1 15.7243 1.54044e-15 18.8692 -8.94957
306 1 17.2967 1.57238 20.4415 -8.94947
307 1 18.8691 9.56312e-16 18.8691 -8.94966
308 1 20.4415 1.57241 20.4415 -8.94964
309 1 22.0139 3.14479 18.8691 -8.94974
310 1 1.57204 4.71688 20.4418 -8.94875
311 1 3.14451 3.1443 18.8694 -8.9495
312 1 4.71719 4.71699 20.4418 -8.9498
313 1 6.28963 3.14446 18.8693 -8.94934
314 1 7.8621 4.71695 20.4419 -8.94953
315 1 9.43454 3.14446 18.8694 -8.94953
316 1 11.007 4.71699 20.4419 -8.94934
317 1 12.5794 3.14454 18.8693 -8.9498
318 1 14.1521 4.71694 20.442 -8.9495
319 1 15.7246 3.14448 18.8694 -8.94875
320 1 17.2967 4.71725 20.4415 -8.94974
321 1 18.8691 3.14478 18.8691 -8.94959
322 1 20.4414 4.71721 20.4415 -8.94959
323 1 22.0134 6.2894 18.8693 -8.94963
324 1 1.57209 7.86196 20.4418 -8.94956
325 1 3.14276 6.28757 18.8711 -8.94541
326 1 4.71647 7.86127 20.4434 -8.95101
7 1 9.43453 -5.85171e-16 22.0139 -8.94964
48 1 15.7243 9.43452 22.014 -8.94961
44 1 3.14455 9.43444 22.0143 -8.94944
33 1 6.2897 6.28948 22.0142 -8.94956
35 1 9.43462 6.28944 22.0142 -8.94956
3 1 3.14484 -1.48206e-15 22.0139 -8.94964
11 1 15.7242 5.85476e-16 22.0139 -8.94967
17 1 3.14482 3.14479 22.014 -8.94971
23 1 12.5794 3.14478 22.014 -8.9496
29 1 -6.38171e-05 6.28966 22.014 -8.94967
180 1 14.1521 1.57204 11.0069 -8.94944
187 1 14.1533 4.71567 11.0064 -8.94833
344 1 1.57231 11.007 1.57242 -8.94959
345 1 4.71702 11.007 1.57242 -8.94999
346 1 7.86224 11.007 1.57242 -8.94949
347 1 11.0071 11.007 1.57242 -8.94947
348 1 14.1519 11.007 1.57242 -8.94969
349 1 17.2967 11.007 1.57242 -8.94963
350 1 20.4415 11.007 1.57242 -8.94964
511 1 18.8691 18.8691 9.43451 -8.94959
352 1 1.57232 14.1518 1.57242 -8.94955
510 1 15.7245 18.8694 9.43439 -8.94956
354 1 4.71711 14.152 1.57242 -8.95026
355 1 6.28963 12.5795 0.00098704 -8.9511
356 1 7.8622 14.152 1.57242 -8.94993
357 1 9.43468 12.5794 0.000447176 -8.94964
358 1 11.007 14.1519 1.57242 -8.9501
359 1 12.5795 12.5793 0.000166305 -8.94952
360 1 14.1518 14.1518 1.57242 -8.9496
509 1 12.5802 18.871 9.4337 -8.95101
362 1 17.2967 14.1518 1.57242 -8.94962
508 1 9.43422 18.8705 9.43398 -8.94995
364 1 20.4415 14.1518 1.57242 -8.94964
539 1 20.4415 20.4415 11.0069 -8.94964
366 1 1.57231 17.2967 1.57242 -8.94957
367 1 3.14457 15.7245 0.000395123 -8.94978
368 1 4.71726 17.2967 1.57242 -8.94961
507 1 6.28941 18.8704 9.43434 -8.95161
370 1 7.86211 17.2967 1.57242 -8.94962
506 1 3.14471 18.8693 9.43464 -8.94964
372 1 11.007 17.2967 1.57242 -8.94957
373 1 12.5795 15.7244 0.000359301 -8.9501
374 1 14.1519 17.2967 1.57242 -8.94974
375 1 15.7242 15.7242 3.78705e-05 -8.94967
376 1 17.2966 17.2966 1.57242 -8.94966
377 1 18.8691 15.7242 1.3571e-05 -8.94962
378 1 20.4415 17.2966 1.57242 -8.94966
379 1 22.0138 18.8691 4.36568e-05 -8.94947
380 1 1.57242 20.4415 1.57242 -8.94967
538 1 17.2967 20.4415 11.0069 -8.94964
382 1 4.71726 20.4415 1.57242 -8.94963
505 1 -4.9871e-05 18.8691 9.43452 -8.94956
384 1 7.86211 20.4415 1.57242 -8.94964
504 1 18.8694 15.7243 9.43442 -8.94995
386 1 11.007 20.4415 1.57242 -8.94964
536 1 11.007 20.4425 11.0069 -8.9511
388 1 14.1518 20.4415 1.57242 -8.94964
389 1 15.7243 18.8691 8.40966e-05 -8.94957
390 1 17.2967 20.4415 1.57242 -8.9496
391 1 18.8691 18.8691 1.57008e-05 -8.94964
392 1 20.4415 20.4415 1.57242 -8.94958
393 1 1.57207 11.007 4.71692 -8.94961
394 1 4.71627 11.007 4.71529 -8.94931
395 1 7.86234 11.007 4.71597 -8.94778
396 1 11.0072 11.007 4.71696 -8.94861
397 1 14.1521 11.007 4.7169 -8.94964
398 1 17.2967 11.007 4.71718 -8.94965
399 1 20.4414 11.007 4.7172 -8.94961
400 1 22.0138 12.5794 3.14479 -8.94964
401 1 1.57209 14.1519 4.71693 -8.94956
402 1 3.14455 12.5795 3.14446 -8.94944
403 1 4.71647 14.1526 4.71533 -8.95101
404 1 6.28963 12.5795 3.14386 -8.9511
405 1 7.86242 14.1523 4.71581 -8.94995
406 1 9.43468 12.5794 3.1444 -8.94964
407 1 11.0072 14.152 4.71594 -8.95161
408 1 12.5795 12.5793 3.14468 -8.94952
409 1 14.1519 14.1517 4.71706 -8.94964
410 1 15.7243 12.5794 3.14477 -8.94961
411 1 17.2967 14.1518 4.7172 -8.94956
412 1 18.8691 12.5794 3.14482 -8.94964
413 1 20.4414 14.1518 4.7172 -8.94959
414 1 -6.38171e-05 15.7242 3.14479 -8.94967
415 1 1.57204 17.297 4.7169 -8.94875
416 1 3.14457 15.7245 3.14445 -8.94978
417 1 4.71719 17.2969 4.71696 -8.9498
418 1 6.2897 15.7244 3.14454 -8.94956
419 1 7.8621 17.297 4.71689 -8.94953
420 1 9.43462 15.7245 3.1445 -8.94956
421 1 11.007 17.2969 4.71689 -8.94934
422 1 12.5795 15.7244 3.14448 -8.9501
423 1 14.1521 17.297 4.71672 -8.9495
424 1 15.7242 15.7242 3.14481 -8.94967
425 1 17.2967 17.2967 4.71721 -8.94974
426 1 18.8691 15.7242 3.14483 -8.94962
427 1 20.4414 17.2967 4.7172 -8.94959
428 1 22.0138 18.8691 3.1448 -8.94947
429 1 1.57235 20.4416 4.71719 -8.94957
430 1 3.14482 18.8691 3.14479 -8.94971
431 1 4.71725 20.4415 4.71721 -8.9496
432 1 6.28967 18.8691 3.14478 -8.94961
433 1 7.8621 20.4415 4.71719 -8.94963
434 1 9.43453 18.8691 3.14478 -8.94963
435 1 11.007 20.4415 4.71719 -8.94961
436 1 12.5794 18.8691 3.14479 -8.9496
437 1 14.1518 20.4415 4.71721 -8.94971
438 1 15.7243 18.8691 3.14476 -8.94957
439 1 17.2967 20.4415 4.7172 -8.94947
440 1 18.8691 18.8691 3.14483 -8.94964
441 1 20.4415 20.4415 4.71725 -8.94964
442 1 1.57035 11.007 7.8611 -8.94906
443 1 4.71042 11.007 7.85533 -8.94352
444 1 7.85835 11.007 7.86265 -9.00112
445 1 11.0055 11.007 7.86335 -8.94674
446 1 14.1529 11.007 7.86085 -8.94715
447 1 17.297 11.007 7.86179 -8.94954
448 1 20.4411 11.007 7.86193 -8.94978
449 1 -0.000441163 12.5794 6.28941 -8.94942
450 1 1.57026 14.1528 7.86115 -8.95056
451 1 3.1433 12.5799 6.28809 -8.94833
452 1 4.70795 14.161 7.85298 -8.93125
453 1 6.28808 12.5804 6.28339 -8.95798
454 1 7.86243 14.1547 7.8564 -8.95095
455 1 9.43461 12.5794 6.28799 -8.95079
456 1 11.011 14.1557 7.85434 -8.95394
457 1 12.5797 12.5788 6.28914 -8.9493
458 1 14.1528 14.1515 7.86138 -8.95104
459 1 15.7245 12.5794 6.28936 -8.94927
460 1 17.2969 14.1518 7.86194 -8.94962
461 1 18.8691 12.5794 6.28959 -8.9496
462 1 20.4412 14.1519 7.86198 -8.94995
463 1 22.0134 15.7245 6.2894 -8.94963
464 1 1.57217 17.2969 7.86209 -8.95007
465 1 3.14276 15.7263 6.28764 -8.94541
466 1 4.71594 17.299 7.86088 -8.94997
467 1 6.28949 15.7253 6.28827 -8.94948
468 1 7.86188 17.2982 7.86097 -8.94818
469 1 9.43476 15.7253 6.28814 -8.94818
470 1 11.0071 17.2981 7.86103 -8.94948
471 1 12.5807 15.7254 6.28728 -8.94997
472 1 14.1539 17.2987 7.85999 -8.94541
473 1 15.7245 15.7242 6.28945 -8.95007
474 1 17.2971 17.2969 7.86182 -8.94963
475 1 18.869 15.7242 6.28962 -8.94969
476 1 20.4415 17.2967 7.86208 -8.94969
477 1 22.0139 18.8691 6.28967 -8.94974
478 1 1.57239 20.4415 7.86212 -8.94967
479 1 3.14451 18.8696 6.28936 -8.9495
480 1 4.7171 20.4418 7.86196 -8.9501
481 1 6.28963 18.8694 6.28941 -8.94934
482 1 7.86201 20.4418 7.86186 -8.94956
483 1 9.43454 18.8694 6.28937 -8.94953
484 1 11.0069 20.4418 7.8619 -8.94956
485 1 12.5794 18.8694 6.28941 -8.9498
486 1 14.1521 20.4419 7.86182 -8.94978
487 1 15.7246 18.8694 6.2893 -8.94875
488 1 17.2967 20.4415 7.86208 -8.94967
489 1 18.8691 18.8691 6.28963 -8.94959
490 1 20.4415 20.4415 7.8621 -8.94962
491 1 22.0126 12.5795 9.4344 -8.95124
492 1 3.13727 12.5813 9.43226 -8.95726
493 1 6.25306 12.6105 9.40157 -8.85596
494 1 9.44692 12.5978 9.42857 -8.90921
495 1 12.582 12.5767 9.43377 -8.95193
496 1 15.7252 12.5789 9.43405 -8.94948
497 1 18.8691 12.5794 9.4344 -8.94984
498 1 22.0137 15.7244 9.43456 -8.94962
499 1 3.14386 15.7249 9.4348 -8.95104
500 1 6.28568 15.732 9.43065 -8.95394
501 1 9.4342 15.7299 9.43159 -8.95095
502 1 12.5887 15.7333 9.42534 -8.93125
503 1 15.7264 15.7252 9.43352 -8.95056
512 1 1.57007 11.007 11.0074 -8.95157
513 1 4.70761 11.007 11.0014 -8.9728
514 1 7.78063 11.007 10.7827 -8.1093
515 1 10.9901 11.007 11.0148 -8.90039
516 1 14.1513 11.007 11.0066 -8.94119
517 1 17.2971 11.007 11.0066 -8.94848
518 1 20.4411 11.007 11.007 -8.94987
519 1 1.5714 14.1523 11.0074 -8.94948
520 1 4.7146 14.1526 11.0096 -8.95193
521 1 7.84971 14.1578 10.9885 -8.90921
522 1 11.0436 14.1848 10.9758 -8.85596
523 1 14.1594 14.1541 11.005 -8.95726
524 1 17.298 14.1519 11.0068 -8.95124
525 1 20.4414 14.1519 11.007 -8.94984
527 1 4.71694 17.2972 11.0075 -8.9493
528 1 7.86203 17.2983 11.007 -8.95079
529 1 11.0086 17.3029 11.0059 -8.95798
535 1 7.86196 20.4419 11.0069 -8.94964
534 1 4.71713 20.4416 11.007 -8.94952
351 1 22.0138 12.5794 5.72933e-05 -8.94964
385 1 9.43453 18.8691 6.699e-05 -8.94963
383 1 6.28967 18.8691 6.221e-05 -8.94961
363 1 18.8691 12.5794 1.81035e-05 -8.94964
687 3 8.64832 11.007 12.5794 2.33512
686 1 20.4415 20.4415 20.4415 -8.94964
685 1 18.8691 18.8691 18.8691 -8.94959
684 1 17.2967 20.4415 20.4415 -8.94947
683 1 15.7246 18.8694 18.8694 -8.94875
682 1 14.1518 20.4415 20.4415 -8.94971
681 1 12.5794 18.8694 18.8693 -8.9498
680 1 11.007 20.4415 20.4415 -8.94961
679 1 9.43454 18.8694 18.8694 -8.94953
678 1 7.8621 20.4415 20.4416 -8.94963
677 1 6.28963 18.8694 18.8693 -8.94934
676 1 4.71725 20.4415 20.4415 -8.9496
675 1 3.14451 18.8696 18.8694 -8.9495
674 1 1.57235 20.4416 20.4416 -8.94957
526 1 1.57212 17.297 11.0069 -8.94927
673 1 22.0139 18.8691 18.8691 -8.94974
672 1 20.4414 17.2967 20.4415 -8.94959
671 1 18.869 15.7242 18.8691 -8.94969
670 1 17.2967 17.2967 20.4415 -8.94974
531 1 17.2971 17.2969 11.0069 -8.94942
532 1 20.4415 17.2967 11.0069 -8.9496
533 1 1.57235 20.4416 11.0069 -8.94961
669 1 15.7245 15.7242 18.8693 -8.95007
668 1 14.1521 17.297 20.442 -8.9495
667 1 12.5807 15.7254 18.8715 -8.94997
666 1 11.007 17.2969 20.4419 -8.94934
665 1 9.43476 15.7253 18.8706 -8.94818
664 1 7.8621 17.297 20.4419 -8.94953
540 1 1.57007 11.007 14.1514 -8.95157
541 1 4.70761 11.007 14.1574 -8.9728
542 1 7.78063 11.007 14.376 -8.1093
543 1 10.9901 11.007 14.1439 -8.90039
544 1 14.1513 11.007 14.1521 -8.94119
545 1 17.2971 11.007 14.1521 -8.94848
546 1 20.4411 11.007 14.1518 -8.94987
547 1 22.0134 12.5797 12.5794 -8.94848
548 1 1.5714 14.1523 14.1514 -8.94948
549 1 3.14529 12.5797 12.5794 -8.94119
550 1 4.7146 14.1526 14.1491 -8.95193
551 1 6.3065 12.5715 12.5794 -8.90039
552 1 7.84971 14.1578 14.1702 -8.90921
553 1 9.51601 12.8036 12.5794 -8.1093
554 1 11.0436 14.1848 14.1829 -8.85596
555 1 12.589 12.5849 12.5794 -8.9728
556 1 14.1594 14.1541 14.1537 -8.95726
557 1 15.7266 12.5789 12.5794 -8.95157
558 1 17.298 14.1519 14.1519 -8.95124
559 1 18.8694 12.5793 12.5794 -8.94987
560 1 20.4414 14.1519 14.1518 -8.94984
561 1 -0.000336184 15.7245 12.5794 -8.94954
562 1 1.57212 17.297 14.1518 -8.94927
563 1 3.14376 15.7255 12.5794 -8.94715
564 1 4.71694 17.2972 14.1512 -8.9493
565 1 6.29111 15.723 12.5794 -8.94674
566 1 7.86203 17.2983 14.1518 -8.95079
567 1 9.43829 15.7237 12.5794 -9.00112
568 1 11.0086 17.3029 14.1529 -8.95798
569 1 12.5862 15.731 12.5794 -8.94352
570 1 14.1533 17.2982 14.1523 -8.94833
571 1 15.7263 15.7252 12.5794 -8.94906
572 1 17.2971 17.2969 14.1519 -8.94942
573 1 18.8694 15.7244 12.5794 -8.94978
574 1 20.4415 17.2967 14.1518 -8.9496
575 1 22.0138 18.8691 12.5794 -8.94965
576 1 1.57235 20.4416 14.1518 -8.94961
577 1 3.14458 18.8694 12.5794 -8.94964
578 1 4.71713 20.4416 14.1518 -8.94952
579 1 6.28943 18.8694 12.5794 -8.94861
580 1 7.86196 20.4419 14.1518 -8.94964
581 1 9.43429 18.8703 12.5794 -8.94778
582 1 11.007 20.4425 14.1519 -8.9511
583 1 12.5804 18.871 12.5794 -8.94931
584 1 14.1521 20.4419 14.1519 -8.94944
585 1 15.7246 18.8694 12.5794 -8.94961
586 1 17.2967 20.4415 14.1518 -8.94964
587 1 18.8691 18.8691 12.5794 -8.94961
588 1 20.4415 20.4415 14.1518 -8.94964
589 1 1.57035 11.007 17.2976 -8.94906
590 1 4.71042 11.007 17.3034 -8.94352
591 1 7.85835 11.007 17.2961 -9.00112
592 1 11.0055 11.007 17.2954 -8.94674
593 1 14.1529 11.007 17.2979 -8.94715
594 1 17.297 11.007 17.297 -8.94954
595 1 20.4411 11.007 17.2968 -8.94978
596 1 22.0126 12.5795 15.7243 -8.95124
597 1 1.57026 14.1528 17.2976 -8.95056
598 1 3.13727 12.5813 15.7265 -8.95726
599 1 4.70795 14.161 17.3058 -8.93125
600 1 6.25306 12.6105 15.7572 -8.85596
601 1 7.86243 14.1547 17.3023 -8.95095
602 1 9.44692 12.5978 15.7302 -8.90921
603 1 11.011 14.1557 17.3044 -8.95394
604 1 12.582 12.5767 15.725 -8.95193
605 1 14.1528 14.1515 17.2974 -8.95104
606 1 15.7252 12.5789 15.7247 -8.94948
607 1 17.2969 14.1518 17.2968 -8.94962
608 1 18.8691 12.5794 15.7243 -8.94984
609 1 20.4412 14.1519 17.2968 -8.94995
610 1 22.0137 15.7244 15.7242 -8.94962
611 1 1.57217 17.2969 17.2967 -8.95007
612 1 3.14386 15.7249 15.7239 -8.95104
613 1 4.71594 17.299 17.2979 -8.94997
614 1 6.28568 15.732 15.7281 -8.95394
615 1 7.86188 17.2982 17.2978 -8.94818
616 1 9.4342 15.7299 15.7272 -8.95095
617 1 11.0071 17.2981 17.2977 -8.94948
618 1 12.5887 15.7333 15.7334 -8.93125
619 1 14.1539 17.2987 17.2988 -8.94541
620 1 15.7264 15.7252 15.7252 -8.95056
621 1 17.2971 17.2969 17.2969 -8.94963
622 1 18.8694 15.7243 15.7243 -8.94995
623 1 20.4415 17.2967 17.2967 -8.94969
624 1 -4.9871e-05 18.8691 15.7242 -8.94956
625 1 1.57239 20.4415 17.2966 -8.94967
626 1 3.14471 18.8693 15.7241 -8.94964
627 1 4.7171 20.4418 17.2968 -8.9501
628 1 6.28941 18.8704 15.7244 -8.95161
629 1 7.86201 20.4418 17.2969 -8.94956
630 1 9.43422 18.8705 15.7248 -8.94995
631 1 11.0069 20.4418 17.2968 -8.94956
632 1 12.5802 18.871 15.725 -8.95101
633 1 14.1521 20.4419 17.2969 -8.94978
634 1 15.7245 18.8694 15.7244 -8.94956
635 1 17.2967 20.4415 17.2967 -8.94967
636 1 18.8691 18.8691 15.7242 -8.94959
637 1 20.4415 20.4415 17.2966 -8.94962
638 1 1.57207 11.007 20.4418 -8.94961
639 1 4.71627 11.007 20.4435 -8.94931
640 1 7.86234 11.007 20.4428 -8.94778
641 1 11.0072 11.007 20.4418 -8.94861
642 1 14.1521 11.007 20.4418 -8.94964
643 1 17.2967 11.007 20.4416 -8.94965
644 1 20.4414 11.007 20.4415 -8.94961
645 1 -0.000441163 12.5794 18.8693 -8.94942
646 1 1.57209 14.1519 20.4418 -8.94956
647 1 3.1433 12.5799 18.8707 -8.94833
648 1 4.71647 14.1526 20.4434 -8.95101
649 1 6.28808 12.5804 18.8754 -8.95798
650 1 7.86242 14.1523 20.4429 -8.94995
651 1 9.43461 12.5794 18.8708 -8.95079
652 1 11.0072 14.152 20.4428 -8.95161
653 1 12.5797 12.5788 18.8696 -8.9493
654 1 14.1519 14.1517 20.4417 -8.94964
655 1 15.7245 12.5794 18.8694 -8.94927
656 1 17.2967 14.1518 20.4415 -8.94956
657 1 18.8691 12.5794 18.8692 -8.9496
658 1 20.4414 14.1518 20.4415 -8.94959
659 1 22.0134 15.7245 18.8693 -8.94963
660 1 1.57204 17.297 20.4418 -8.94875
661 1 3.14276 15.7263 18.8711 -8.94541
662 1 4.71719 17.2969 20.4418 -8.9498
663 1 6.28949 15.7253 18.8705 -8.94948
371 1 9.43462 15.7245 22.0142 -8.94956
353 1 3.14455 12.5795 22.0143 -8.94944
361 1 15.7243 12.5794 22.014 -8.94961
369 1 6.2897 15.7244 22.0142 -8.94956
365 1 -6.38171e-05 15.7242 22.014 -8.94967
381 1 3.14482 18.8691 22.014 -8.94971
387 1 12.5794 18.8691 22.014 -8.9496
537 1 14.1521 20.4419 11.0069 -8.94944
530 1 14.1533 17.2982 11.0064 -8.94833
