ITEM: TIMESTEP
106
ITEM: NUMBER OF ATOMS
687
ITEM: BOX BOUNDS pp pp pp
0.0000000000000000e+00 2.2013900999999997e+01
0.0000000000000000e+00 2.2013900999999997e+01
0.0000000000000000e+00 2.2013900999999997e+01
ITEM: ATOMS id type x y z c_pot
1 1 22.0135 -1.48016e-11 0.000273959 -8.94936
2 1 1.57199 1.57205 1.57242 -8.94957
196 1 20.4415 7.86178 11.007 -8.94991
4 1 4.71701 1.57206 1.57242 -8.9495
5 1 6.28951 -1.41819e-11 0.000319523 -8.94951
6 1 7.86207 1.57207 1.57242 -8.94952
175 1 18.869 9.43457 9.4342 -8.94991
8 1 11.0071 1.5721 1.57242 -8.94951
9 1 12.5796 -1.5144e-11 0.000366452 -8.9495
10 1 14.1521 1.57214 1.57242 -8.94954
195 1 17.2992 7.86163 11.0066 -8.95181
12 1 17.297 1.57215 1.57242 -8.94936
13 1 18.8693 -2.54281e-11 0.00023344 -8.94923
14 1 20.4413 1.57219 1.57242 -8.94923
15 1 22.0132 3.14416 0.000383842 -8.94915
16 1 1.57146 4.7163 1.57242 -8.94951
194 1 14.1622 7.85785 11.0044 -8.95827
18 1 4.71682 4.71635 1.57242 -8.9496
174 1 15.7256 9.43518 9.43398 -8.9498
20 1 7.86216 4.71643 1.57242 -8.94955
173 1 12.5825 9.43672 9.43399 -8.95296
22 1 11.0074 4.71659 1.57242 -8.94954
193 1 11.0478 7.82461 10.9736 -8.85439
24 1 14.1524 4.71679 1.57242 -8.95008
25 1 15.7249 3.14426 0.000634212 -8.94947
26 1 17.2968 4.7171 1.57242 -8.94971
27 1 18.8691 3.14453 0.000311352 -8.94957
28 1 20.441 4.71689 1.57242 -8.94951
192 1 7.84741 7.85397 10.9826 -8.90432
30 1 1.57125 7.86147 1.57242 -8.94937
31 1 3.14351 6.28836 0.00131273 -8.95
32 1 4.71654 7.8614 1.57242 -8.95068
172 1 9.44923 9.41017 9.42639 -8.90432
34 1 7.86232 7.86161 1.57242 -8.9503
171 1 6.24887 9.40117 9.39704 -8.85439
36 1 11.0072 7.86207 1.57242 -8.95044
37 1 12.58 6.28923 0.00109644 -8.95072
38 1 14.1521 7.8622 1.57242 -8.94954
39 1 15.7246 6.28963 0.000414856 -8.94974
40 1 17.2967 7.86204 1.57242 -8.94953
41 1 18.8689 6.28947 0.000285088 -8.9495
42 1 20.4409 7.86185 1.57242 -8.94951
170 1 3.1344 9.43201 9.43027 -8.95827
169 1 22.0113 9.43422 9.43406 -8.95181
45 1 6.28926 9.43433 0.00173547 -8.95146
46 1 9.43461 9.43465 0.000508331 -8.94943
47 1 12.5797 9.43469 0.000332706 -8.94935
168 1 18.8701 6.2891 9.43408 -8.95026
167 1 15.729 6.28733 9.43225 -8.95091
50 1 22.0135 -1.48017e-11 3.14457 -8.94936
51 1 1.57174 1.57179 4.71669 -8.94947
52 1 3.14451 -5.0783e-12 3.14456 -8.94954
53 1 4.71683 1.57183 4.71665 -8.94948
54 1 6.28951 -1.41827e-11 3.14452 -8.94951
55 1 7.86197 1.57188 4.71655 -8.94949
56 1 9.43457 -2.24489e-11 3.14449 -8.94952
57 1 11.0072 1.5719 4.71649 -8.94945
58 1 12.5796 -1.51444e-11 3.14448 -8.9495
59 1 14.1524 1.57191 4.71642 -8.94961
60 1 15.7246 -6.78959e-12 3.14447 -8.94957
61 1 17.2973 1.57204 4.71658 -8.94915
62 1 18.8693 -2.54274e-11 3.14461 -8.94923
63 1 20.4415 1.57211 4.71695 -8.94957
64 1 22.0132 3.14416 3.14446 -8.94915
65 1 1.57066 4.71552 4.71582 -8.94821
66 1 3.14423 3.144 3.14433 -8.94961
67 1 4.71624 4.71558 4.7156 -8.94964
68 1 6.28946 3.14407 3.14432 -8.94945
69 1 7.86198 4.71582 4.71567 -8.94935
70 1 9.43466 3.14413 3.1443 -8.94949
71 1 11.0076 4.71597 4.7156 -8.94913
72 1 12.5798 3.14423 3.14425 -8.94948
73 1 14.1533 4.71596 4.71524 -8.94943
74 1 15.7249 3.14426 3.14421 -8.94947
75 1 17.2971 4.71687 4.71653 -8.94987
76 1 18.8691 3.14453 3.14453 -8.94957
77 1 20.4409 4.71665 4.7167 -8.94955
78 1 -0.000952968 6.28903 3.14434 -8.94945
79 1 1.57041 7.86102 4.7156 -8.94918
80 1 3.14351 6.28836 3.14353 -8.95
81 1 4.715 7.86017 4.7132 -8.95156
82 1 6.28939 6.28864 3.14363 -8.94974
83 1 7.86214 7.86081 4.71428 -8.95065
84 1 9.43491 6.28879 3.14376 -8.94967
85 1 11.0074 7.86165 4.71493 -8.95256
86 1 12.58 6.28923 3.14375 -8.95072
87 1 14.1523 7.86228 4.71642 -8.94964
88 1 15.7246 6.28963 3.14443 -8.94974
89 1 17.2968 7.86202 4.7167 -8.94942
90 1 18.8689 6.28947 3.14456 -8.9495
91 1 20.4407 7.86172 4.71661 -8.94943
92 1 22.0128 9.43427 3.14429 -8.94947
93 1 3.14322 9.43398 3.14343 -8.9494
94 1 6.28926 9.43433 3.14311 -8.95146
95 1 9.43461 9.43465 3.14433 -8.94943
96 1 12.5797 9.43469 3.14451 -8.94935
97 1 15.7245 9.43454 3.14449 -8.94954
98 1 18.8688 9.43444 3.14454 -8.94954
99 1 22.0137 1.45497e-10 6.28952 -8.94971
100 1 1.57207 1.57201 7.86205 -8.94974
101 1 3.14423 -2.31701e-10 6.28921 -8.95008
102 1 4.71661 1.57133 7.86165 -8.95072
103 1 6.28928 -1.81659e-10 6.28901 -8.94954
104 1 7.86173 1.57134 7.86121 -8.94967
105 1 9.43448 -2.18879e-10 6.28885 -8.94955
106 1 11.0072 1.5712 7.86106 -8.94974
107 1 12.5798 -1.52123e-10 6.28877 -8.9496
108 1 14.1531 1.57111 7.86078 -8.95
109 1 15.7252 -5.98003e-10 6.28872 -8.94951
110 1 17.2976 1.57192 7.86145 -8.94945
111 1 18.8695 -2.01768e-11 6.28931 -8.94951
112 1 20.4417 1.57214 7.86189 -8.9495
113 1 22.0134 3.14411 6.28929 -8.94987
114 1 1.57107 4.71593 7.86163 -8.95045
115 1 3.14336 3.14282 6.28838 -8.94943
116 1 4.71395 4.71227 7.859 -8.94984
117 1 6.28907 3.14318 6.28839 -8.94913
118 1 7.86146 4.71361 7.85921 -8.94771
119 1 9.43466 3.14325 6.28824 -8.94935
120 1 11.0086 4.71316 7.85898 -8.94915
121 1 12.5804 3.14318 6.288 -8.94964
122 1 14.1566 4.71281 7.85754 -8.94453
123 1 15.726 3.1434 6.28794 -8.94821
124 1 17.2985 4.71611 7.86084 -8.9497
125 1 18.8696 3.14428 6.28907 -8.94955
126 1 20.4415 4.71665 7.86175 -8.94988
127 1 22.012 6.28842 6.28853 -8.9497
128 1 1.56766 7.85983 7.85975 -8.95091
129 1 3.14004 6.28512 6.28523 -8.94453
130 1 4.70375 7.84983 7.84901 -8.92998
131 1 6.28799 6.28656 6.28558 -8.94915
132 1 7.86097 7.85648 7.85275 -8.95089
133 1 9.43517 6.28679 6.28603 -8.94771
134 1 11.0135 7.85485 7.85134 -8.95311
135 1 12.5827 6.28658 6.28469 -8.94984
136 1 14.1543 7.86183 7.86033 -8.95169
137 1 15.7256 6.28921 6.28835 -8.95045
138 1 17.2974 7.8621 7.86146 -8.94988
139 1 18.869 6.28933 6.28907 -8.94988
140 1 20.4404 7.86165 7.86152 -8.95026
141 1 -0.00214396 9.43402 6.28834 -8.94928
142 1 3.14028 9.43294 6.28543 -8.94759
143 1 6.2861 9.433 6.2812 -8.95928
144 1 9.43379 9.43425 6.28811 -8.95186
145 1 12.5798 9.43518 6.28898 -8.94887
146 1 15.7249 9.43455 6.28876 -8.94898
147 1 18.8687 9.4344 6.28898 -8.94956
148 1 -7.52793e-05 -1.13269e-10 9.43446 -8.94953
149 1 3.14451 1.10094e-09 9.43462 -8.94954
150 1 6.28943 -9.96253e-10 9.43449 -8.95044
151 1 9.43432 -1.75435e-09 9.43404 -8.9503
152 1 12.5801 -3.22647e-09 9.43382 -8.95068
153 1 15.7254 -3.12192e-10 9.43389 -8.94937
154 1 18.8696 -2.15882e-11 9.43427 -8.94951
155 1 -0.000183805 3.14428 9.43444 -8.94942
156 1 3.14431 3.144 9.4347 -8.94964
157 1 6.2892 3.14251 9.43407 -8.95256
158 1 9.4345 3.14186 9.43323 -8.95065
159 1 12.5816 3.14078 9.43259 -8.95156
160 1 15.7262 3.14318 9.43344 -8.94918
161 1 18.8699 3.14418 9.43414 -8.94943
162 1 22.0131 6.28904 9.43452 -8.94988
163 1 3.14231 6.2879 9.43425 -8.95169
164 1 6.28313 6.27892 9.42727 -8.95311
165 1 9.43567 6.28033 9.4289 -8.95089
166 1 12.5929 6.27659 9.42225 -8.92998
177 1 4.71693 1.57209 11.0071 -8.94935
178 1 7.86203 1.57191 11.0071 -8.94943
179 1 11.0074 1.57069 11.0068 -8.95146
191 1 4.71413 7.86157 11.0091 -8.95296
181 1 17.2977 1.57187 11.0067 -8.94947
182 1 20.4417 1.57212 11.0069 -8.94954
184 1 4.71688 4.71655 11.0076 -8.94887
185 1 7.86284 4.71569 11.0067 -8.95186
186 1 11.0105 4.70878 11.0054 -8.95928
190 1 1.57104 7.86156 11.0076 -8.9498
19 1 6.28946 3.14407 0.000521782 -8.94945
49 1 18.8688 9.43444 0.000305966 -8.94954
21 1 9.43466 3.14413 0.000544308 -8.94949
43 1 22.0128 9.43427 0.000553833 -8.94947
176 1 1.57211 1.57207 11.007 -8.94954
343 1 18.8687 9.4344 18.8698 -8.94956
342 1 15.7249 9.43455 18.87 -8.94898
341 1 12.5798 9.43518 18.8698 -8.94887
340 1 9.43379 9.43425 18.8706 -8.95186
339 1 6.2861 9.433 18.8775 -8.95928
338 1 3.14028 9.43294 18.8733 -8.94759
183 1 1.57171 4.71634 11.007 -8.94898
337 1 -0.00214396 9.43402 18.8704 -8.94928
336 1 20.4407 7.86172 20.4421 -8.94943
335 1 18.869 6.28933 18.8697 -8.94988
334 1 17.2968 7.86202 20.442 -8.94942
188 1 17.2988 4.71592 11.0064 -8.94928
189 1 20.4418 4.71656 11.0068 -8.94956
333 1 15.7256 6.28921 18.8704 -8.95045
332 1 14.1523 7.86228 20.4423 -8.94964
331 1 12.5827 6.28658 18.8741 -8.94984
330 1 11.0074 7.86165 20.4438 -8.95256
329 1 9.43517 6.28679 18.8727 -8.94771
328 1 7.86214 7.86081 20.4445 -8.95065
327 1 6.28799 6.28656 18.8732 -8.94915
197 1 -7.4713e-05 7.0542e-12 12.5794 -8.94956
198 1 1.57211 1.57207 14.1518 -8.94954
199 1 3.14447 7.50048e-11 12.5794 -8.94965
200 1 4.71693 1.57209 14.1516 -8.94935
201 1 6.28938 2.63051e-09 12.5794 -8.94912
202 1 7.86203 1.57191 14.1517 -8.94943
203 1 9.43439 -4.8923e-09 12.5794 -8.94848
204 1 11.0074 1.57069 14.152 -8.95146
205 1 12.5805 -3.06684e-09 12.5794 -8.95038
206 1 14.1534 1.571 14.1523 -8.9494
207 1 15.7255 -4.36908e-10 12.5794 -8.94945
208 1 17.2977 1.57187 14.1521 -8.94947
209 1 18.8696 -3.84119e-11 12.5794 -8.94952
210 1 20.4417 1.57212 14.1519 -8.94954
211 1 22.0138 3.14426 12.5794 -8.94956
212 1 1.57171 4.71634 14.1518 -8.94898
213 1 3.14433 3.14411 12.5794 -8.94963
214 1 4.71688 4.71655 14.1511 -8.94887
215 1 6.2896 3.14484 12.5794 -8.9482
216 1 7.86284 4.71569 14.1521 -8.95186
217 1 9.43491 3.14402 12.5794 -8.94633
218 1 11.0105 4.70878 14.1533 -8.95928
219 1 12.5823 3.14062 12.5794 -8.94959
220 1 14.1564 4.71301 14.1534 -8.94759
221 1 15.7264 3.14312 12.5794 -8.94944
222 1 17.2988 4.71592 14.1523 -8.94928
223 1 18.8699 3.14414 12.5794 -8.9495
224 1 20.4418 4.71656 14.1519 -8.94956
225 1 -0.000492083 6.28884 12.5794 -8.94956
226 1 1.57104 7.86156 14.1511 -8.9498
227 1 3.14346 6.2881 12.5794 -8.94647
228 1 4.71413 7.86157 14.1496 -8.95296
229 1 6.29192 6.29219 12.5794 -8.94508
230 1 7.84741 7.85397 14.1762 -8.90432
231 1 9.43992 6.29317 12.5794 -9.00327
232 1 11.0478 7.82461 14.1852 -8.85439
233 1 12.5906 6.27899 12.5794 -8.94205
234 1 14.1622 7.85785 14.1543 -8.95827
235 1 15.7292 6.28689 12.5794 -8.94906
236 1 17.2992 7.86163 14.1521 -8.95181
237 1 18.8704 6.2889 12.5794 -8.94999
238 1 20.4415 7.86178 14.1518 -8.94991
239 1 22.0137 9.43428 12.5794 -8.9476
240 1 3.14767 9.43517 12.5794 -8.9398
241 1 6.31278 9.44439 12.5794 -8.90232
242 1 9.51165 9.20254 12.5794 -8.12167
243 1 12.5868 9.42658 12.5794 -8.97288
244 1 15.7264 9.43477 12.5794 -8.95106
245 1 18.8696 9.4346 12.5794 -8.94934
246 1 -7.52793e-05 -1.13269e-10 15.7243 -8.94953
247 1 1.57207 1.57201 17.2967 -8.94974
248 1 3.14451 1.10094e-09 15.7241 -8.94954
249 1 4.71661 1.57133 17.2971 -8.95072
250 1 6.28943 -9.96253e-10 15.7243 -8.95044
251 1 7.86173 1.57134 17.2975 -8.94967
252 1 9.43432 -1.75435e-09 15.7247 -8.9503
253 1 11.0072 1.5712 17.2977 -8.94974
254 1 12.5801 -3.22647e-09 15.7249 -8.95068
255 1 14.1531 1.57111 17.298 -8.95
256 1 15.7254 -3.12192e-10 15.7249 -8.94937
257 1 17.2976 1.57192 17.2973 -8.94945
258 1 18.8696 -2.15876e-11 15.7245 -8.94951
259 1 20.4417 1.57214 17.2969 -8.9495
260 1 -0.000183805 3.14428 15.7243 -8.94942
261 1 1.57107 4.71593 17.2971 -8.95045
262 1 3.14431 3.144 15.724 -8.94964
263 1 4.71395 4.71227 17.2997 -8.94984
264 1 6.2892 3.14251 15.7247 -8.95256
265 1 7.86146 4.71361 17.2995 -8.94771
266 1 9.4345 3.14186 15.7255 -8.95065
267 1 11.0086 4.71316 17.2998 -8.94915
268 1 12.5816 3.14078 15.7262 -8.95156
269 1 14.1566 4.71281 17.3012 -8.94453
270 1 15.7262 3.14318 15.7253 -8.94918
271 1 17.2985 4.71611 17.2979 -8.9497
272 1 18.8699 3.14418 15.7246 -8.94943
273 1 20.4415 4.71665 17.297 -8.94988
274 1 22.0131 6.28904 15.7242 -8.94988
275 1 1.56766 7.85983 17.299 -8.95091
276 1 3.14231 6.2879 15.7245 -8.95169
277 1 4.70375 7.84983 17.3097 -8.92998
278 1 6.28313 6.27892 15.7315 -8.95311
279 1 7.86097 7.85648 17.306 -8.95089
280 1 9.43567 6.28033 15.7298 -8.95089
281 1 11.0135 7.85485 17.3074 -8.95311
282 1 12.5929 6.27659 15.7365 -8.92998
283 1 14.1543 7.86183 17.2984 -8.95169
284 1 15.729 6.28733 15.7265 -8.95091
285 1 17.2974 7.8621 17.2973 -8.94988
286 1 18.8701 6.2891 15.7247 -8.95026
287 1 20.4404 7.86165 17.2972 -8.95026
288 1 22.0113 9.43422 15.7247 -8.95181
289 1 3.1344 9.43201 15.7285 -8.95827
290 1 6.24887 9.40117 15.7617 -8.85439
291 1 9.44923 9.41017 15.7324 -8.90432
292 1 12.5825 9.43672 15.7247 -8.95296
293 1 15.7256 9.43518 15.7248 -8.9498
294 1 18.869 9.43457 15.7245 -8.94991
295 1 22.0137 1.45497e-10 18.8692 -8.94971
296 1 1.57174 1.57179 20.4421 -8.94947
297 1 3.14423 -2.317e-10 18.8695 -8.95008
298 1 4.71683 1.57183 20.4421 -8.94948
299 1 6.28928 -1.81658e-10 18.8697 -8.94954
300 1 7.86197 1.57188 20.4422 -8.94949
301 1 9.43448 -2.18879e-10 18.8699 -8.94955
302 1 11.0072 1.5719 20.4423 -8.94945
303 1 12.5798 -1.52123e-10 18.87 -8.9496
304 1 14.1524 1.57191 20.4423 -8.94961
305 1 15.7252 -5.98003e-10 18.87 -8.94951
306 1 17.2973 1.57204 20.4422 -8.94915
307 1 18.8695 -2.01764e-11 18.8694 -8.94951
308 1 20.4415 1.57211 20.4418 -8.94957
309 1 22.0134 3.14411 18.8694 -8.94987
310 1 1.57066 4.71552 20.4429 -8.94821
311 1 3.14336 3.14282 18.8704 -8.94943
312 1 4.71624 4.71558 20.4431 -8.94964
313 1 6.28907 3.14318 18.8704 -8.94913
314 1 7.86198 4.71582 20.4431 -8.94935
315 1 9.43466 3.14325 18.8705 -8.94935
316 1 11.0076 4.71597 20.4431 -8.94913
317 1 12.5804 3.14318 18.8707 -8.94964
318 1 14.1533 4.71596 20.4435 -8.94943
319 1 15.726 3.1434 18.8708 -8.94821
320 1 17.2971 4.71687 20.4422 -8.94987
321 1 18.8696 3.14428 18.8697 -8.94955
322 1 20.4409 4.71665 20.442 -8.94955
323 1 22.012 6.28842 18.8702 -8.9497
324 1 1.57041 7.86102 20.4431 -8.94918
325 1 3.14004 6.28512 18.8735 -8.94453
326 1 4.715 7.86017 20.4455 -8.95156
7 1 9.43457 -2.24482e-11 22.0143 -8.94952
48 1 15.7245 9.43454 22.0142 -8.94954
44 1 3.14322 9.43398 22.0153 -8.9494
33 1 6.28939 6.28864 22.0151 -8.94974
35 1 9.43491 6.28879 22.015 -8.94967
3 1 3.14451 -5.07785e-12 22.0142 -8.94954
11 1 15.7246 -6.7907e-12 22.0143 -8.94957
17 1 3.14423 3.144 22.0144 -8.94961
23 1 12.5798 3.14423 22.0145 -8.94948
29 1 -0.000952968 6.28903 22.0144 -8.94945
180 1 14.1534 1.571 11.0064 -8.9494
187 1 14.1564 4.71301 11.0054 -8.94759
344 1 1.57116 11.007 1.57242 -8.94945
345 1 4.71619 11.007 1.57242 -8.95038
346 1 7.86225 11.007 1.57242 -8.94848
347 1 11.0073 11.007 1.57242 -8.94912
348 1 14.1522 11.007 1.57242 -8.94965
349 1 17.2967 11.007 1.57242 -8.94956
350 1 20.4409 11.007 1.57242 -8.94952
511 1 18.8699 18.8697 9.43414 -8.94943
352 1 1.57125 14.1524 1.57242 -8.94937
510 1 15.7262 18.8707 9.43344 -8.94918
354 1 4.71654 14.1525 1.57242 -8.95068
355 1 6.28926 12.5796 0.00173547 -8.95146
356 1 7.86232 14.1523 1.57242 -8.9503
357 1 9.43461 12.5793 0.00050833 -8.94943
358 1 11.0072 14.1518 1.57242 -8.95044
359 1 12.5797 12.5792 0.000332704 -8.94935
360 1 14.1521 14.1517 1.57242 -8.94954
509 1 12.5816 18.8731 9.43259 -8.95156
362 1 17.2967 14.1519 1.57242 -8.94953
508 1 9.4345 18.872 9.43323 -8.95065
364 1 20.4409 14.1521 1.57242 -8.94951
539 1 20.4417 20.4418 11.0069 -8.94954
366 1 1.57146 17.2976 1.57242 -8.94951
367 1 3.14351 15.7255 0.00131273 -8.95
368 1 4.71682 17.2976 1.57242 -8.9496
507 1 6.2892 18.8714 9.43407 -8.95256
370 1 7.86216 17.2975 1.57242 -8.94955
506 1 3.14431 18.8699 9.4347 -8.94964
372 1 11.0074 17.2973 1.57242 -8.94954
373 1 12.58 15.7247 0.00109644 -8.95072
374 1 14.1524 17.2971 1.57242 -8.95008
375 1 15.7246 15.7243 0.000414856 -8.94974
376 1 17.2968 17.2968 1.57242 -8.94971
377 1 18.8689 15.7244 0.000285088 -8.9495
378 1 20.441 17.297 1.57242 -8.94951
379 1 22.0132 18.8697 0.000383843 -8.94915
380 1 1.57199 20.4419 1.57242 -8.94957
538 1 17.2977 20.442 11.0067 -8.94947
382 1 4.71701 20.4418 1.57242 -8.9495
505 1 -0.000183805 18.8696 9.43444 -8.94942
384 1 7.86207 20.4418 1.57242 -8.94952
504 1 18.8701 15.7248 9.43408 -8.95026
386 1 11.0071 20.4418 1.57242 -8.94951
536 1 11.0074 20.4432 11.0068 -8.95146
388 1 14.1521 20.4418 1.57242 -8.94954
389 1 15.7249 18.8696 0.000634211 -8.94947
390 1 17.297 20.4418 1.57242 -8.94936
391 1 18.8691 18.8694 0.000311352 -8.94957
392 1 20.4413 20.4417 1.57242 -8.94923
393 1 1.57028 11.007 4.71554 -8.94944
394 1 4.71432 11.007 4.71305 -8.94959
395 1 7.86173 11.007 4.71644 -8.94633
396 1 11.007 11.007 4.71726 -8.9482
397 1 14.1523 11.007 4.71653 -8.94963
398 1 17.2968 11.007 4.71668 -8.94956
399 1 20.4406 11.007 4.71656 -8.9495
400 1 22.0128 12.5796 3.14429 -8.94947
401 1 1.57041 14.1529 4.7156 -8.94918
402 1 3.14322 12.5799 3.14343 -8.9494
403 1 4.715 14.1537 4.7132 -8.95156
404 1 6.28926 12.5796 3.14311 -8.95146
405 1 7.86214 14.1531 4.71428 -8.95065
406 1 9.43461 12.5793 3.14433 -8.94943
407 1 11.0074 14.1522 4.71493 -8.95256
408 1 12.5797 12.5792 3.14451 -8.94935
409 1 14.1523 14.1516 4.71642 -8.94964
410 1 15.7245 12.5794 3.14449 -8.94954
411 1 17.2968 14.1519 4.7167 -8.94942
412 1 18.8688 12.5795 3.14454 -8.94954
413 1 20.4407 14.1522 4.71661 -8.94943
414 1 -0.000952968 15.7249 3.14434 -8.94945
415 1 1.57066 17.2984 4.71582 -8.94821
416 1 3.14351 15.7255 3.14353 -8.95
417 1 4.71624 17.2983 4.7156 -8.94964
418 1 6.28939 15.7253 3.14363 -8.94974
419 1 7.86198 17.2981 4.71567 -8.94935
420 1 9.43491 15.7251 3.14376 -8.94967
421 1 11.0076 17.2979 4.7156 -8.94913
422 1 12.58 15.7247 3.14375 -8.95072
423 1 14.1533 17.2979 4.71524 -8.94943
424 1 15.7246 15.7243 3.14443 -8.94974
425 1 17.2971 17.297 4.71653 -8.94987
426 1 18.8689 15.7244 3.14456 -8.9495
427 1 20.4409 17.2973 4.7167 -8.94955
428 1 22.0132 18.8697 3.14446 -8.94915
429 1 1.57174 20.4421 4.71669 -8.94947
430 1 3.14423 18.8699 3.14433 -8.94961
431 1 4.71683 20.4421 4.71665 -8.94948
432 1 6.28946 18.8698 3.14432 -8.94945
433 1 7.86197 20.442 4.71655 -8.94949
434 1 9.43466 18.8698 3.1443 -8.94949
435 1 11.0072 20.442 4.71649 -8.94945
436 1 12.5798 18.8697 3.14425 -8.94948
437 1 14.1524 20.442 4.71642 -8.94961
438 1 15.7249 18.8696 3.14421 -8.94947
439 1 17.2973 20.4419 4.71658 -8.94915
440 1 18.8691 18.8694 3.14453 -8.94957
441 1 20.4415 20.4418 4.71695 -8.94957
442 1 1.5674 11.007 7.85931 -8.94906
443 1 4.70601 11.007 7.85142 -8.94205
444 1 7.85672 11.007 7.86559 -9.00327
445 1 11.0047 11.007 7.86461 -8.94508
446 1 14.1532 11.007 7.86052 -8.94647
447 1 17.2971 11.007 7.86126 -8.94956
448 1 20.4401 11.007 7.86132 -8.94999
449 1 -0.00214396 12.5799 6.28834 -8.94928
450 1 1.56766 14.1541 7.85975 -8.95091
451 1 3.14028 12.581 6.28543 -8.94759
452 1 4.70375 14.1641 7.84901 -8.92998
453 1 6.2861 12.5809 6.2812 -8.95928
454 1 7.86097 14.1574 7.85275 -8.95089
455 1 9.43379 12.5797 6.28811 -8.95186
456 1 11.0135 14.159 7.85134 -8.95311
457 1 12.5798 12.5787 6.28898 -8.94887
458 1 14.1543 14.1521 7.86033 -8.95169
459 1 15.7249 12.5794 6.28876 -8.94898
460 1 17.2974 14.1518 7.86146 -8.94988
461 1 18.8687 12.5795 6.28898 -8.94956
462 1 20.4404 14.1522 7.86152 -8.95026
463 1 22.012 15.7255 6.28853 -8.9497
464 1 1.57107 17.298 7.86163 -8.95045
465 1 3.14004 15.7288 6.28523 -8.94453
466 1 4.71395 17.3016 7.859 -8.94984
467 1 6.28799 15.7273 6.28558 -8.94915
468 1 7.86146 17.3003 7.85921 -8.94771
469 1 9.43517 15.7271 6.28603 -8.94771
470 1 11.0086 17.3007 7.85898 -8.94915
471 1 12.5827 15.7273 6.28469 -8.94984
472 1 14.1566 17.3011 7.85754 -8.94453
473 1 15.7256 15.7247 6.28835 -8.95045
474 1 17.2985 17.2978 7.86084 -8.9497
475 1 18.869 15.7246 6.28907 -8.94988
476 1 20.4415 17.2972 7.86175 -8.94988
477 1 22.0134 18.8698 6.28929 -8.94987
478 1 1.57207 20.4419 7.86205 -8.94974
479 1 3.14336 18.8711 6.28838 -8.94943
480 1 4.71661 20.4426 7.86165 -8.95072
481 1 6.28907 18.8707 6.28839 -8.94913
482 1 7.86173 20.4426 7.86121 -8.94967
483 1 9.43466 18.8706 6.28824 -8.94935
484 1 11.0072 20.4427 7.86106 -8.94974
485 1 12.5804 18.8707 6.288 -8.94964
486 1 14.1531 20.4428 7.86078 -8.95
487 1 15.726 18.8705 6.28794 -8.94821
488 1 17.2976 20.442 7.86145 -8.94945
489 1 18.8696 18.8696 6.28907 -8.94955
490 1 20.4417 20.4418 7.86189 -8.9495
491 1 22.0113 12.5797 9.43406 -8.95181
492 1 3.1344 12.5819 9.43027 -8.95827
493 1 6.24887 12.6127 9.39704 -8.85439
494 1 9.44923 12.6037 9.42639 -8.90432
495 1 12.5825 12.5772 9.434 -8.95296
496 1 15.7256 12.5787 9.43398 -8.9498
497 1 18.869 12.5793 9.4342 -8.94991
498 1 22.0131 15.7249 9.43452 -8.94988
499 1 3.14231 15.726 9.43425 -8.95169
500 1 6.28313 15.735 9.42727 -8.95311
501 1 9.43567 15.7336 9.4289 -8.95089
502 1 12.5929 15.7373 9.42225 -8.92998
503 1 15.729 15.7266 9.43225 -8.95091
512 1 1.57021 11.007 11.0072 -8.95106
513 1 4.70987 11.007 10.999 -8.97288
514 1 7.78498 11.007 10.775 -8.12167
515 1 10.9839 11.007 11.0168 -8.90232
516 1 14.149 11.007 11.0076 -8.9398
517 1 17.2968 11.007 11.0067 -8.9476
518 1 20.4409 11.007 11.007 -8.94934
519 1 1.57104 14.1523 11.0076 -8.9498
520 1 4.71413 14.1523 11.0091 -8.95296
521 1 7.84741 14.1599 10.9826 -8.90432
522 1 11.0478 14.1893 10.9736 -8.85439
523 1 14.1622 14.156 11.0044 -8.95827
524 1 17.2992 14.1523 11.0066 -8.95181
525 1 20.4415 14.1521 11.007 -8.94991
527 1 4.71688 17.2973 11.0076 -8.94887
528 1 7.86284 17.2982 11.0067 -8.95186
529 1 11.0105 17.3051 11.0054 -8.95928
535 1 7.86203 20.442 11.0071 -8.94943
534 1 4.71693 20.4418 11.0071 -8.94935
351 1 22.0128 12.5796 0.000553833 -8.94947
385 1 9.43466 18.8698 0.000544308 -8.94949
383 1 6.28946 18.8698 0.000521782 -8.94945
363 1 18.8688 12.5795 0.000305966 -8.94954
687 3 8.64832 11.007 12.5794 2.30855
686 1 20.4415 20.4418 20.4418 -8.94957
685 1 18.8696 18.8696 18.8697 -8.94955
684 1 17.2973 20.4419 20.4422 -8.94915
683 1 15.726 18.8705 18.8708 -8.94821
682 1 14.1524 20.442 20.4423 -8.94961
681 1 12.5804 18.8707 18.8707 -8.94964
680 1 11.0072 20.442 20.4423 -8.94945
679 1 9.43466 18.8706 18.8705 -8.94935
678 1 7.86197 20.442 20.4422 -8.94949
677 1 6.28907 18.8707 18.8704 -8.94913
676 1 4.71683 20.4421 20.4421 -8.94948
675 1 3.14336 18.8711 18.8704 -8.94943
674 1 1.57174 20.4421 20.4421 -8.94947
526 1 1.57171 17.2976 11.007 -8.94898
673 1 22.0134 18.8698 18.8694 -8.94987
672 1 20.4409 17.2973 20.442 -8.94955
671 1 18.869 15.7246 18.8697 -8.94988
670 1 17.2971 17.297 20.4422 -8.94987
531 1 17.2988 17.298 11.0064 -8.94928
532 1 20.4418 17.2973 11.0068 -8.94956
533 1 1.57211 20.4418 11.007 -8.94954
669 1 15.7256 15.7247 18.8704 -8.95045
668 1 14.1533 17.2979 20.4435 -8.94943
667 1 12.5827 15.7273 18.8741 -8.94984
666 1 11.0076 17.2979 20.4431 -8.94913
665 1 9.43517 15.7271 18.8727 -8.94771
664 1 7.86198 17.2981 20.4431 -8.94935
540 1 1.57021 11.007 14.1516 -8.95106
541 1 4.70987 11.007 14.1597 -8.97288
542 1 7.78498 11.007 14.3838 -8.12167
543 1 10.9839 11.007 14.1419 -8.90232
544 1 14.149 11.007 14.1511 -8.9398
545 1 17.2968 11.007 14.152 -8.9476
546 1 20.4409 11.007 14.1517 -8.94934
547 1 22.0137 12.5796 12.5794 -8.9476
548 1 1.57104 14.1523 14.1511 -8.9498
549 1 3.14767 12.5787 12.5794 -8.9398
550 1 4.71413 14.1523 14.1496 -8.95296
551 1 6.31278 12.5695 12.5794 -8.90232
552 1 7.84741 14.1599 14.1762 -8.90432
553 1 9.51165 12.8114 12.5794 -8.12167
554 1 11.0478 14.1893 14.1852 -8.85439
555 1 12.5868 12.5873 12.5794 -8.97288
556 1 14.1622 14.156 14.1543 -8.95827
557 1 15.7264 12.5791 12.5794 -8.95106
558 1 17.2992 14.1523 14.1521 -8.95181
559 1 18.8696 12.5793 12.5794 -8.94934
560 1 20.4415 14.1521 14.1518 -8.94991
561 1 -0.000492089 15.7251 12.5794 -8.94956
562 1 1.57171 17.2976 14.1518 -8.94898
563 1 3.14346 15.7258 12.5794 -8.94647
564 1 4.71688 17.2973 14.1511 -8.94887
565 1 6.29192 15.7217 12.5794 -8.94508
566 1 7.86284 17.2982 14.1521 -8.95186
567 1 9.43992 15.7207 12.5794 -9.00327
568 1 11.0105 17.3051 14.1533 -8.95928
569 1 12.5906 15.7349 12.5794 -8.94205
570 1 14.1564 17.3009 14.1534 -8.94759
571 1 15.7292 15.727 12.5794 -8.94906
572 1 17.2988 17.298 14.1523 -8.94928
573 1 18.8704 15.725 12.5794 -8.94999
574 1 20.4418 17.2973 14.1519 -8.94956
575 1 22.0138 18.8696 12.5794 -8.94956
576 1 1.57211 20.4418 14.1518 -8.94954
577 1 3.14433 18.8698 12.5794 -8.94963
578 1 4.71693 20.4418 14.1516 -8.94935
579 1 6.2896 18.8691 12.5794 -8.9482
580 1 7.86203 20.442 14.1517 -8.94943
581 1 9.43491 18.8699 12.5794 -8.94633
582 1 11.0074 20.4432 14.152 -8.95146
583 1 12.5823 18.8733 12.5794 -8.94959
584 1 14.1534 20.4429 14.1523 -8.9494
585 1 15.7264 18.8708 12.5794 -8.94944
586 1 17.2977 20.442 14.1521 -8.94947
587 1 18.8699 18.8698 12.5794 -8.9495
588 1 20.4417 20.4418 14.1519 -8.94954
589 1 1.5674 11.007 17.2994 -8.94906
590 1 4.70601 11.007 17.3073 -8.94205
591 1 7.85672 11.007 17.2932 -9.00327
592 1 11.0047 11.007 17.2941 -8.94508
593 1 14.1532 11.007 17.2982 -8.94647
594 1 17.2971 11.007 17.2975 -8.94956
595 1 20.4401 11.007 17.2974 -8.94999
596 1 22.0113 12.5797 15.7247 -8.95181
597 1 1.56766 14.1541 17.299 -8.95091
598 1 3.1344 12.5819 15.7285 -8.95827
599 1 4.70375 14.1641 17.3097 -8.92998
600 1 6.24887 12.6127 15.7617 -8.85439
601 1 7.86097 14.1574 17.306 -8.95089
602 1 9.44923 12.6037 15.7324 -8.90432
603 1 11.0135 14.159 17.3074 -8.95311
604 1 12.5825 12.5772 15.7247 -8.95296
605 1 14.1543 14.1521 17.2984 -8.95169
606 1 15.7256 12.5787 15.7248 -8.9498
607 1 17.2974 14.1518 17.2973 -8.94988
608 1 18.869 12.5793 15.7245 -8.94991
609 1 20.4404 14.1522 17.2972 -8.95026
610 1 22.0131 15.7249 15.7242 -8.94988
611 1 1.57107 17.298 17.2971 -8.95045
612 1 3.14231 15.726 15.7245 -8.95169
613 1 4.71395 17.3016 17.2997 -8.94984
614 1 6.28313 15.735 15.7315 -8.95311
615 1 7.86146 17.3003 17.2995 -8.94771
616 1 9.43567 15.7336 15.7298 -8.95089
617 1 11.0086 17.3007 17.2998 -8.94915
618 1 12.5929 15.7373 15.7365 -8.92998
619 1 14.1566 17.3011 17.3012 -8.94453
620 1 15.729 15.7266 15.7265 -8.95091
621 1 17.2985 17.2978 17.2979 -8.9497
622 1 18.8701 15.7248 15.7247 -8.95026
623 1 20.4415 17.2972 17.297 -8.94988
624 1 -0.000183805 18.8696 15.7243 -8.94942
625 1 1.57207 20.4419 17.2967 -8.94974
626 1 3.14431 18.8699 15.724 -8.94964
627 1 4.71661 20.4426 17.2971 -8.95072
628 1 6.2892 18.8714 15.7247 -8.95256
629 1 7.86173 20.4426 17.2975 -8.94967
630 1 9.4345 18.872 15.7255 -8.95065
631 1 11.0072 20.4427 17.2977 -8.94974
632 1 12.5816 18.8731 15.7262 -8.95156
633 1 14.1531 20.4428 17.298 -8.95
634 1 15.7262 18.8707 15.7253 -8.94918
635 1 17.2976 20.442 17.2973 -8.94945
636 1 18.8699 18.8697 15.7246 -8.94943
637 1 20.4417 20.4418 17.2969 -8.9495
638 1 1.57028 11.007 20.4432 -8.94944
639 1 4.71432 11.007 20.4457 -8.94959
640 1 7.86173 11.007 20.4423 -8.94633
641 1 11.007 11.007 20.4415 -8.9482
642 1 14.1523 11.007 20.4422 -8.94963
643 1 17.2968 11.007 20.4421 -8.94956
644 1 20.4406 11.007 20.4422 -8.9495
645 1 -0.00214396 12.5799 18.8704 -8.94928
646 1 1.57041 14.1529 20.4431 -8.94918
647 1 3.14028 12.581 18.8733 -8.94759
648 1 4.715 14.1537 20.4455 -8.95156
649 1 6.2861 12.5809 18.8775 -8.95928
650 1 7.86214 14.1531 20.4445 -8.95065
651 1 9.43379 12.5797 18.8706 -8.95186
652 1 11.0074 14.1522 20.4438 -8.95256
653 1 12.5798 12.5787 18.8698 -8.94887
654 1 14.1523 14.1516 20.4423 -8.94964
655 1 15.7249 12.5794 18.87 -8.94898
656 1 17.2968 14.1519 20.442 -8.94942
657 1 18.8687 12.5795 18.8698 -8.94956
658 1 20.4407 14.1522 20.4421 -8.94943
659 1 22.012 15.7255 18.8702 -8.9497
660 1 1.57066 17.2984 20.4429 -8.94821
661 1 3.14004 15.7288 18.8735 -8.94453
662 1 4.71624 17.2983 20.4431 -8.94964
663 1 6.28799 15.7273 18.8732 -8.94915
371 1 9.43491 15.7251 22.015 -8.94967
353 1 3.14322 12.5799 22.0153 -8.9494
361 1 15.7245 12.5794 22.0142 -8.94954
369 1 6.28939 15.7253 22.0151 -8.94974
365 1 -0.000952968 15.7249 22.0144 -8.94945
381 1 3.14423 18.8699 22.0144 -8.94961
387 1 12.5798 18.8697 22.0145 -8.94948
537 1 14.1534 20.4429 11.0064 -8.9494
530 1 14.1564 17.3009 11.0054 -8.94759
