ITEM: TIMESTEP
77
ITEM: NUMBER OF ATOMS
687
ITEM: BOX BOUNDS pp pp pp
0.0000000000000000e+00 2.2013900999999997e+01
0.0000000000000000e+00 2.2013900999999997e+01
0.0000000000000000e+00 2.2013900999999997e+01
ITEM: ATOMS id type x y z c_pot
1 1 22.0138 7.20047e-16 0.000129067 -8.94948
2 1 1.5723 1.57228 1.57242 -8.94966
196 1 20.4414 7.86184 11.007 -8.94989
4 1 4.7172 1.57227 1.57242 -8.94957
5 1 6.28964 -1.21509e-15 0.000151166 -8.94959
6 1 7.86209 1.57226 1.57242 -8.94959
175 1 18.8691 9.43457 9.43426 -8.94989
8 1 11.007 1.57227 1.57242 -8.94959
9 1 12.5794 -3.64886e-16 0.000147408 -8.94957
10 1 14.1519 1.5723 1.57242 -8.9496
195 1 17.2989 7.86184 11.0067 -8.95171
12 1 17.2968 1.57229 1.57242 -8.94948
13 1 18.8691 1.67497e-15 8.48892e-05 -8.94941
14 1 20.4414 1.57234 1.57242 -8.94941
15 1 22.0136 3.14452 0.000202391 -8.94925
16 1 1.57196 4.71679 1.57242 -8.94955
194 1 14.1616 7.85866 11.0046 -8.95817
18 1 4.71712 4.71683 1.57242 -8.94959
174 1 15.7256 9.43523 9.43396 -8.9497
20 1 7.86215 4.7168 1.57242 -8.94956
173 1 12.5825 9.43719 9.43397 -8.95276
22 1 11.0071 4.71687 1.57242 -8.94952
193 1 11.0473 7.82572 10.9738 -8.85394
24 1 14.1521 4.71699 1.57242 -8.94997
25 1 15.7245 3.14453 0.000349456 -8.9495
26 1 17.2967 4.71723 1.57242 -8.9497
27 1 18.8691 3.14473 0.000130264 -8.94962
28 1 20.4413 4.71715 1.57242 -8.94961
192 1 7.84772 7.85483 10.9841 -8.90501
30 1 1.57188 7.86184 1.57242 -8.94944
31 1 3.14408 6.28889 0.000923788 -8.94997
32 1 4.71691 7.86169 1.57242 -8.95059
172 1 9.44892 9.41166 9.42725 -8.90501
34 1 7.86235 7.86176 1.57242 -8.95017
171 1 6.24938 9.40139 9.39814 -8.85394
36 1 11.0072 7.86206 1.57242 -8.95034
37 1 12.5798 6.28938 0.000807206 -8.95055
38 1 14.152 7.86215 1.57242 -8.94954
39 1 15.7244 6.2897 0.000211089 -8.94971
40 1 17.2967 7.86207 1.57242 -8.94957
41 1 18.869 6.28962 0.000122805 -8.94956
42 1 20.4413 7.86203 1.57242 -8.9496
170 1 3.13506 9.43214 9.43108 -8.95817
169 1 22.0117 9.43427 9.43427 -8.95171
45 1 6.28958 9.43442 0.00150726 -8.95137
46 1 9.4347 9.43463 0.000535953 -8.94946
47 1 12.5797 9.43465 0.000319767 -8.94939
168 1 18.8698 6.28932 9.43423 -8.95016
167 1 15.728 6.28791 9.43269 -8.95086
50 1 22.0138 7.14246e-16 3.14471 -8.94948
51 1 1.57209 1.57207 4.71695 -8.9495
52 1 3.14476 -5.13161e-16 3.14472 -8.9496
53 1 4.71711 1.57212 4.71695 -8.94952
54 1 6.28964 -1.19671e-15 3.14469 -8.94959
55 1 7.86206 1.57212 4.71688 -8.94956
56 1 9.43454 -1.44216e-15 3.14468 -8.94959
57 1 11.007 1.57214 4.71688 -8.94952
58 1 12.5794 -2.96653e-16 3.1447 -8.94957
59 1 14.152 1.57215 4.71688 -8.94967
60 1 15.7243 -3.12773e-16 3.1447 -8.94966
61 1 17.297 1.57222 4.71694 -8.94925
62 1 18.8691 1.64002e-15 3.14476 -8.94941
63 1 20.4415 1.57229 4.71716 -8.94962
64 1 22.0136 3.14452 3.14464 -8.94925
65 1 1.57132 4.71615 4.71629 -8.94828
66 1 3.14462 3.14446 3.14457 -8.94967
67 1 4.71679 4.71626 4.71623 -8.94968
68 1 6.28962 3.14446 3.14456 -8.94952
69 1 7.86208 4.71636 4.71622 -8.9494
70 1 9.43458 3.14446 3.14454 -8.94956
71 1 11.0072 4.71647 4.71617 -8.94917
72 1 12.5795 3.14453 3.14454 -8.94952
73 1 14.1527 4.71639 4.71586 -8.94945
74 1 15.7245 3.14453 3.14449 -8.9495
75 1 17.2969 4.7171 4.71691 -8.94983
76 1 18.8691 3.14473 3.14471 -8.94962
77 1 20.4412 4.71698 4.71698 -8.94957
78 1 -0.000413085 6.28943 3.14458 -8.94956
79 1 1.57127 7.86151 4.71621 -8.94928
80 1 3.14408 6.28889 3.14392 -8.94997
81 1 4.71576 7.86065 4.71397 -8.95149
82 1 6.28963 6.28906 3.14401 -8.94964
83 1 7.86239 7.86117 4.71479 -8.95045
84 1 9.43481 6.28908 3.14404 -8.94959
85 1 11.0073 7.86187 4.71523 -8.95238
86 1 12.5798 6.28938 3.14404 -8.95055
87 1 14.1521 7.86233 4.71668 -8.94963
88 1 15.7244 6.2897 3.14463 -8.94971
89 1 17.2968 7.86208 4.71695 -8.94946
90 1 18.869 6.28962 3.14472 -8.94956
91 1 20.4411 7.86195 4.71692 -8.94949
92 1 22.0134 9.43444 3.14455 -8.94955
93 1 3.14394 9.43421 3.14385 -8.94939
94 1 6.28958 9.43442 3.14334 -8.95137
95 1 9.4347 9.43463 3.14431 -8.94946
96 1 12.5797 9.43465 3.14452 -8.94939
97 1 15.7245 9.43452 3.1446 -8.94958
98 1 18.869 9.4345 3.14469 -8.9496
99 1 22.0138 1.83008e-15 6.28965 -8.9497
100 1 1.57224 1.57221 7.86212 -8.94971
101 1 3.14452 1.62134e-15 6.28941 -8.94997
102 1 4.71685 1.57161 7.8618 -8.95055
103 1 6.28949 1.11256e-15 6.28929 -8.94952
104 1 7.86183 1.57162 7.8615 -8.94959
105 1 9.43448 6.50326e-17 6.28923 -8.94956
106 1 11.007 1.57159 7.86148 -8.94964
107 1 12.5795 -5.59037e-16 6.28925 -8.94959
108 1 14.1526 1.5715 7.86131 -8.94997
109 1 15.7247 4.65656e-16 6.28921 -8.94955
110 1 17.297 1.57216 7.86185 -8.94956
111 1 18.8692 1.77749e-15 6.28957 -8.94961
112 1 20.4415 1.5723 7.86204 -8.94956
113 1 22.0137 3.14449 6.28953 -8.94983
114 1 1.57157 4.71643 7.86191 -8.95033
115 1 3.1439 3.14344 6.28881 -8.94945
116 1 4.71471 4.71311 7.85977 -8.94994
117 1 6.28939 3.14375 6.28889 -8.94917
118 1 7.8616 4.71442 7.86 -8.94781
119 1 9.43455 3.1438 6.28878 -8.9494
120 1 11.0079 4.71422 7.85982 -8.94921
121 1 12.5798 3.14381 6.28868 -8.94968
122 1 14.1556 4.71366 7.85836 -8.9446
123 1 15.7253 3.14387 6.28858 -8.94828
124 1 17.2979 4.71651 7.8613 -8.94967
125 1 18.8694 3.14456 6.2894 -8.94957
126 1 20.4415 4.71695 7.86195 -8.94981
127 1 22.0126 6.28888 6.28893 -8.94967
128 1 1.56859 7.86026 7.86033 -8.95086
129 1 3.14107 6.28594 6.28608 -8.9446
130 1 4.70494 7.85053 7.85017 -8.92997
131 1 6.28873 6.2874 6.28664 -8.94921
132 1 7.86153 7.85749 7.85397 -8.95095
133 1 9.43503 6.28758 6.28685 -8.94781
134 1 11.0128 7.85606 7.85213 -8.9535
135 1 12.5819 6.28735 6.28553 -8.94994
136 1 14.1538 7.86223 7.86069 -8.95156
137 1 15.7251 6.28949 6.28885 -8.95033
138 1 17.2972 7.86218 7.86167 -8.94977
139 1 18.869 6.28953 6.28937 -8.94981
140 1 20.4407 7.86181 7.86174 -8.95016
141 1 -0.00132804 9.43423 6.28885 -8.94931
142 1 3.14155 9.43331 6.28645 -8.94771
143 1 6.28698 9.43326 6.28192 -8.95915
144 1 9.43407 9.43456 6.28814 -8.95167
145 1 12.5797 9.43532 6.28898 -8.949
146 1 15.7249 9.43457 6.28895 -8.94902
147 1 18.869 9.43445 6.28927 -8.94957
148 1 -0.000103085 1.76628e-15 9.4345 -8.94957
149 1 3.14462 1.83539e-15 9.43457 -8.94954
150 1 6.28948 1.89935e-15 9.43448 -8.95034
151 1 9.43428 -1.08214e-16 9.43418 -8.95017
152 1 12.5797 -6.43845e-16 9.43411 -8.95059
153 1 15.7248 5.75321e-16 9.43426 -8.94944
154 1 18.8692 1.83088e-15 9.43446 -8.9496
155 1 -0.000171262 3.14453 9.4345 -8.94946
156 1 3.14449 3.14426 9.43475 -8.94963
157 1 6.28929 3.14281 9.43429 -8.95238
158 1 9.43424 3.14237 9.43359 -8.95045
159 1 12.5809 3.14155 9.43307 -8.95149
160 1 15.7254 3.14379 9.43393 -8.94928
161 1 18.8694 3.1445 9.43437 -8.94949
162 1 22.0133 6.28924 9.4346 -8.94977
163 1 3.14287 6.28827 9.43465 -8.95156
164 1 6.28383 6.27971 9.42848 -8.9535
165 1 9.43511 6.28155 9.42991 -8.95095
166 1 12.5917 6.27775 9.42295 -8.92997
177 1 4.71696 1.5721 11.0071 -8.94939
178 1 7.86193 1.57189 11.0071 -8.94946
179 1 11.0071 1.57091 11.0068 -8.95137
191 1 4.71415 7.86155 11.0096 -8.95276
181 1 17.2971 1.57213 11.0069 -8.94955
182 1 20.4415 1.57227 11.0069 -8.9496
184 1 4.71691 4.71656 11.0077 -8.949
185 1 7.86256 4.71571 11.007 -8.95167
186 1 11.0097 4.7095 11.0057 -8.95915
190 1 1.57102 7.86154 11.0077 -8.9497
19 1 6.28962 3.14446 0.000285031 -8.94952
49 1 18.869 9.4345 0.000149373 -8.9496
21 1 9.43458 3.14446 0.000305175 -8.94956
43 1 22.0134 9.43444 0.00029204 -8.94955
176 1 1.57216 1.57218 11.0069 -8.94958
343 1 18.869 9.43445 18.8695 -8.94957
342 1 15.7249 9.43457 18.8698 -8.94902
341 1 12.5797 9.43532 18.8698 -8.949
340 1 9.43407 9.43456 18.8706 -8.95167
339 1 6.28698 9.43326 18.8768 -8.95915
338 1 3.14155 9.43331 18.8723 -8.94771
183 1 1.57178 4.71653 11.007 -8.94902
337 1 -0.00132804 9.43423 18.8699 -8.94931
336 1 20.4411 7.86195 20.4418 -8.94949
335 1 18.869 6.28953 18.8694 -8.94981
334 1 17.2968 7.86208 20.4418 -8.94946
188 1 17.298 4.71643 11.0067 -8.94931
189 1 20.4416 4.71685 11.0069 -8.94957
333 1 15.7251 6.28949 18.8699 -8.95033
332 1 14.1521 7.86233 20.4421 -8.94963
331 1 12.5819 6.28735 18.8732 -8.94994
330 1 11.0073 7.86187 20.4435 -8.95238
329 1 9.43503 6.28758 18.8719 -8.94781
328 1 7.86239 7.86117 20.444 -8.95045
327 1 6.28873 6.2874 18.8721 -8.94921
197 1 -0.000117205 1.60445e-15 12.5794 -8.94961
198 1 1.57216 1.57218 14.1518 -8.94958
199 1 3.14454 1.42237e-15 12.5794 -8.94968
200 1 4.71696 1.5721 14.1517 -8.94939
201 1 6.28938 1.66227e-15 12.5794 -8.94924
202 1 7.86193 1.57189 14.1517 -8.94946
203 1 9.43427 4.8411e-16 12.5794 -8.94869
204 1 11.0071 1.57091 14.1519 -8.95137
205 1 12.58 -1.45167e-15 12.5794 -8.95026
206 1 14.1527 1.57143 14.1521 -8.94939
207 1 15.7248 2.0515e-17 12.5794 -8.94951
208 1 17.2971 1.57213 14.1519 -8.94955
209 1 18.8692 1.70956e-15 12.5794 -8.9496
210 1 20.4415 1.57227 14.1518 -8.9496
211 1 22.0137 3.14448 12.5794 -8.9496
212 1 1.57178 4.71653 14.1518 -8.94902
213 1 3.14434 3.14416 12.5794 -8.94966
214 1 4.71691 4.71656 14.151 -8.949
215 1 6.28946 3.14463 12.5794 -8.94828
216 1 7.86256 4.71571 14.1518 -8.95167
217 1 9.43452 3.14391 12.5794 -8.94651
218 1 11.0097 4.7095 14.1531 -8.95915
219 1 12.5814 3.14138 12.5794 -8.94952
220 1 14.1551 4.71403 14.153 -8.94771
221 1 15.7254 3.14376 12.5794 -8.94949
222 1 17.298 4.71643 14.1521 -8.94931
223 1 18.8694 3.14448 12.5794 -8.94955
224 1 20.4416 4.71685 14.1519 -8.94957
225 1 -0.000586794 6.28898 12.5794 -8.94953
226 1 1.57102 7.86154 14.1511 -8.9497
227 1 3.14341 6.2881 12.5794 -8.94655
228 1 4.71415 7.86155 14.1491 -8.95276
229 1 6.29175 6.29197 12.5794 -8.94534
230 1 7.84772 7.85483 14.1747 -8.90501
231 1 9.43946 6.29305 12.5794 -9.00328
232 1 11.0473 7.82572 14.1849 -8.85394
233 1 12.5893 6.28021 12.5794 -8.94224
234 1 14.1616 7.85866 14.1542 -8.95817
235 1 15.7282 6.28766 12.5794 -8.94906
236 1 17.2989 7.86184 14.152 -8.95171
237 1 18.8699 6.28918 12.5794 -8.94992
238 1 20.4414 7.86184 14.1518 -8.94989
239 1 22.0134 9.43421 12.5794 -8.94781
240 1 3.14683 9.43494 12.5794 -8.93992
241 1 6.31162 9.44438 12.5794 -8.90163
242 1 9.513 9.20339 12.5794 -8.11929
243 1 12.5876 9.42731 12.5794 -8.97294
244 1 15.7267 9.43497 12.5794 -8.95121
245 1 18.8696 9.43461 12.5794 -8.94954
246 1 -0.000103085 1.93814e-15 15.7242 -8.94957
247 1 1.57224 1.57221 17.2966 -8.94971
248 1 3.14462 1.84658e-15 15.7242 -8.94954
249 1 4.71685 1.57161 17.2969 -8.95055
250 1 6.28948 1.80491e-15 15.7243 -8.95034
251 1 7.86183 1.57162 17.2972 -8.94959
252 1 9.43428 4.41014e-16 15.7246 -8.95017
253 1 11.007 1.57159 17.2973 -8.94964
254 1 12.5797 -4.65471e-16 15.7246 -8.95059
255 1 14.1526 1.5715 17.2974 -8.94997
256 1 15.7248 7.63747e-16 15.7245 -8.94944
257 1 17.297 1.57216 17.2969 -8.94956
258 1 18.8692 1.58651e-15 15.7243 -8.9496
259 1 20.4415 1.5723 17.2967 -8.94956
260 1 -0.000171262 3.14453 15.7242 -8.94946
261 1 1.57157 4.71643 17.2968 -8.95033
262 1 3.14449 3.14426 15.724 -8.94963
263 1 4.71471 4.71311 17.299 -8.94994
264 1 6.28929 3.14281 15.7245 -8.95238
265 1 7.8616 4.71442 17.2987 -8.94781
266 1 9.43424 3.14237 15.7252 -8.95045
267 1 11.0079 4.71422 17.2989 -8.94921
268 1 12.5809 3.14155 15.7257 -8.95149
269 1 14.1556 4.71366 17.3004 -8.9446
270 1 15.7254 3.14379 15.7248 -8.94928
271 1 17.2979 4.71651 17.2974 -8.94967
272 1 18.8694 3.1445 15.7244 -8.94949
273 1 20.4415 4.71695 17.2968 -8.94981
274 1 22.0133 6.28924 15.7241 -8.94977
275 1 1.56859 7.86026 17.2984 -8.95086
276 1 3.14287 6.28827 15.7241 -8.95156
277 1 4.70494 7.85053 17.3086 -8.92997
278 1 6.28383 6.27971 15.7303 -8.9535
279 1 7.86153 7.85749 17.3048 -8.95095
280 1 9.43511 6.28155 15.7288 -8.95095
281 1 11.0128 7.85606 17.3066 -8.9535
282 1 12.5917 6.27775 15.7358 -8.92997
283 1 14.1538 7.86223 17.2981 -8.95156
284 1 15.728 6.28791 15.7261 -8.95086
285 1 17.2972 7.86218 17.2971 -8.94977
286 1 18.8698 6.28932 15.7245 -8.95016
287 1 20.4407 7.86181 17.297 -8.95016
288 1 22.0117 9.43427 15.7245 -8.95171
289 1 3.13506 9.43214 15.7277 -8.95817
290 1 6.24938 9.40139 15.7606 -8.85394
291 1 9.44892 9.41166 15.7315 -8.90501
292 1 12.5825 9.43719 15.7248 -8.95276
293 1 15.7256 9.43523 15.7248 -8.9497
294 1 18.8691 9.43457 15.7245 -8.94989
295 1 22.0138 1.64263e-15 18.8691 -8.9497
296 1 1.57209 1.57207 20.4418 -8.9495
297 1 3.14452 1.53791e-15 18.8693 -8.94997
298 1 4.71711 1.57212 20.4418 -8.94952
299 1 6.28949 1.61305e-15 18.8695 -8.94952
300 1 7.86206 1.57212 20.4419 -8.94956
301 1 9.43448 1.18285e-15 18.8695 -8.94956
302 1 11.007 1.57214 20.4419 -8.94952
303 1 12.5795 2.55331e-16 18.8695 -8.94959
304 1 14.152 1.57215 20.4419 -8.94967
305 1 15.7247 1.08236e-15 18.8695 -8.94955
306 1 17.297 1.57222 20.4418 -8.94925
307 1 18.8692 1.75169e-15 18.8692 -8.94961
308 1 20.4415 1.57229 20.4416 -8.94962
309 1 22.0137 3.14449 18.8692 -8.94983
310 1 1.57132 4.71615 20.4425 -8.94828
311 1 3.1439 3.14344 18.8699 -8.94945
312 1 4.71679 4.71626 20.4425 -8.94968
313 1 6.28939 3.14375 18.8699 -8.94917
314 1 7.86208 4.71636 20.4425 -8.9494
315 1 9.43455 3.1438 18.87 -8.9494
316 1 11.0072 4.71647 20.4426 -8.94917
317 1 12.5798 3.14381 18.8701 -8.94968
318 1 14.1527 4.71639 20.4429 -8.94945
319 1 15.7253 3.14387 18.8702 -8.94828
320 1 17.2969 4.7171 20.4418 -8.94983
321 1 18.8694 3.14456 18.8693 -8.94957
322 1 20.4412 4.71698 20.4418 -8.94957
323 1 22.0126 6.28888 18.8698 -8.94967
324 1 1.57127 7.86151 20.4425 -8.94928
325 1 3.14107 6.28594 18.8727 -8.9446
326 1 4.71576 7.86065 20.4448 -8.95149
7 1 9.43454 -1.17279e-15 22.0141 -8.94959
48 1 15.7245 9.43452 22.0141 -8.94958
44 1 3.14394 9.43421 22.0149 -8.94939
33 1 6.28963 6.28906 22.0147 -8.94964
35 1 9.43481 6.28908 22.0147 -8.94959
3 1 3.14476 -4.98815e-16 22.014 -8.9496
11 1 15.7243 -1.69541e-16 22.014 -8.94966
17 1 3.14462 3.14446 22.0142 -8.94967
23 1 12.5795 3.14453 22.0142 -8.94952
29 1 -0.000413085 6.28943 22.0142 -8.94956
180 1 14.1527 1.57143 11.0066 -8.94939
187 1 14.1551 4.71403 11.0057 -8.94771
344 1 1.57184 11.007 1.57242 -8.94951
345 1 4.71666 11.007 1.57242 -8.95026
346 1 7.86237 11.007 1.57242 -8.94869
347 1 11.0073 11.007 1.57242 -8.94924
348 1 14.1521 11.007 1.57242 -8.94968
349 1 17.2968 11.007 1.57242 -8.94961
350 1 20.4413 11.007 1.57242 -8.9496
511 1 18.8694 18.8694 9.43437 -8.94949
352 1 1.57188 14.1521 1.57242 -8.94944
510 1 15.7254 18.8701 9.43393 -8.94928
354 1 4.71691 14.1522 1.57242 -8.95059
355 1 6.28958 12.5795 0.00150726 -8.95137
356 1 7.86235 14.1521 1.57242 -8.95017
357 1 9.4347 12.5793 0.000535953 -8.94946
358 1 11.0072 14.1518 1.57242 -8.95034
359 1 12.5797 12.5793 0.000319767 -8.94939
360 1 14.152 14.1517 1.57242 -8.94954
509 1 12.5809 18.8724 9.43307 -8.95149
362 1 17.2967 14.1518 1.57242 -8.94957
508 1 9.43424 18.8715 9.43359 -8.95045
364 1 20.4413 14.1519 1.57242 -8.9496
539 1 20.4415 20.4416 11.0069 -8.9496
366 1 1.57196 17.2971 1.57242 -8.94955
367 1 3.14408 15.725 0.000923788 -8.94997
368 1 4.71712 17.2971 1.57242 -8.94959
507 1 6.28929 18.8711 9.43429 -8.95238
370 1 7.86215 17.2971 1.57242 -8.94956
506 1 3.14449 18.8696 9.43475 -8.94963
372 1 11.0071 17.297 1.57242 -8.94952
373 1 12.5798 15.7245 0.000807206 -8.95055
374 1 14.1521 17.2969 1.57242 -8.94997
375 1 15.7244 15.7242 0.000211089 -8.94971
376 1 17.2967 17.2967 1.57242 -8.9497
377 1 18.869 15.7243 0.000122805 -8.94956
378 1 20.4413 17.2968 1.57242 -8.94961
379 1 22.0136 18.8694 0.000202391 -8.94925
380 1 1.5723 20.4416 1.57242 -8.94966
538 1 17.2971 20.4418 11.0069 -8.94955
382 1 4.7172 20.4416 1.57242 -8.94957
505 1 -0.000171262 18.8694 9.4345 -8.94946
384 1 7.86209 20.4416 1.57242 -8.94959
504 1 18.8698 15.7246 9.43423 -8.95016
386 1 11.007 20.4416 1.57242 -8.94959
536 1 11.0071 20.443 11.0068 -8.95137
388 1 14.1519 20.4416 1.57242 -8.9496
389 1 15.7245 18.8694 0.000349456 -8.9495
390 1 17.2968 20.4416 1.57242 -8.94948
391 1 18.8691 18.8692 0.000130264 -8.94962
392 1 20.4414 20.4416 1.57242 -8.94941
393 1 1.57121 11.007 4.71618 -8.94949
394 1 4.71526 11.007 4.71381 -8.94952
395 1 7.86211 11.007 4.71633 -8.94651
396 1 11.0072 11.007 4.71705 -8.94828
397 1 14.1523 11.007 4.71658 -8.94966
398 1 17.2968 11.007 4.7169 -8.9496
399 1 20.4411 11.007 4.7169 -8.94955
400 1 22.0134 12.5795 3.14455 -8.94955
401 1 1.57127 14.1524 4.71621 -8.94928
402 1 3.14394 12.5797 3.14385 -8.94939
403 1 4.71576 14.1532 4.71397 -8.95149
404 1 6.28958 12.5795 3.14334 -8.95137
405 1 7.86239 14.1527 4.71479 -8.95045
406 1 9.4347 12.5793 3.14431 -8.94946
407 1 11.0073 14.152 4.71523 -8.95238
408 1 12.5797 12.5793 3.14452 -8.94939
409 1 14.1521 14.1516 4.71668 -8.94963
410 1 15.7245 12.5794 3.1446 -8.94958
411 1 17.2968 14.1518 4.71695 -8.94946
412 1 18.869 12.5794 3.14469 -8.9496
413 1 20.4411 14.152 4.71692 -8.94949
414 1 -0.000413085 15.7245 3.14458 -8.94956
415 1 1.57132 17.2977 4.71629 -8.94828
416 1 3.14408 15.725 3.14392 -8.94997
417 1 4.71679 17.2976 4.71623 -8.94968
418 1 6.28963 15.7248 3.14401 -8.94964
419 1 7.86208 17.2975 4.71622 -8.9494
420 1 9.43481 15.7248 3.14404 -8.94959
421 1 11.0072 17.2974 4.71617 -8.94917
422 1 12.5798 15.7245 3.14404 -8.95055
423 1 14.1527 17.2975 4.71586 -8.94945
424 1 15.7244 15.7242 3.14463 -8.94971
425 1 17.2969 17.2968 4.71691 -8.94983
426 1 18.869 15.7243 3.14472 -8.94956
427 1 20.4412 17.2969 4.71698 -8.94957
428 1 22.0136 18.8694 3.14464 -8.94925
429 1 1.57209 20.4418 4.71695 -8.9495
430 1 3.14462 18.8694 3.14457 -8.94967
431 1 4.71711 20.4418 4.71695 -8.94952
432 1 6.28962 18.8694 3.14456 -8.94952
433 1 7.86206 20.4418 4.71688 -8.94956
434 1 9.43458 18.8694 3.14454 -8.94956
435 1 11.007 20.4418 4.71688 -8.94952
436 1 12.5795 18.8694 3.14454 -8.94952
437 1 14.152 20.4417 4.71688 -8.94967
438 1 15.7245 18.8694 3.14449 -8.9495
439 1 17.297 20.4417 4.71694 -8.94925
440 1 18.8691 18.8692 3.14471 -8.94962
441 1 20.4415 20.4416 4.71716 -8.94962
442 1 1.56848 11.007 7.86008 -8.94906
443 1 4.70731 11.007 7.85263 -8.94224
444 1 7.85718 11.007 7.86547 -9.00328
445 1 11.0049 11.007 7.86439 -8.94534
446 1 14.1532 11.007 7.86052 -8.94655
447 1 17.2972 11.007 7.8614 -8.94953
448 1 20.4406 11.007 7.8616 -8.94992
449 1 -0.00132804 12.5797 6.28885 -8.94931
450 1 1.56859 14.1536 7.86033 -8.95086
451 1 3.14155 12.5806 6.28645 -8.94771
452 1 4.70494 14.1634 7.85017 -8.92997
453 1 6.28698 12.5806 6.28192 -8.95915
454 1 7.86153 14.1564 7.85397 -8.95095
455 1 9.43407 12.5793 6.28814 -8.95167
456 1 11.0128 14.1578 7.85213 -8.9535
457 1 12.5797 12.5786 6.28898 -8.949
458 1 14.1538 14.1517 7.86069 -8.95156
459 1 15.7249 12.5793 6.28895 -8.94902
460 1 17.2972 14.1517 7.86167 -8.94977
461 1 18.869 12.5794 6.28927 -8.94957
462 1 20.4407 14.1521 7.86174 -8.95016
463 1 22.0126 15.725 6.28893 -8.94967
464 1 1.57157 17.2975 7.86191 -8.95033
465 1 3.14107 15.728 6.28608 -8.9446
466 1 4.71471 17.3008 7.85977 -8.94994
467 1 6.28873 15.7265 6.28664 -8.94921
468 1 7.8616 17.2995 7.86 -8.94781
469 1 9.43503 15.7263 6.28685 -8.94781
470 1 11.0079 17.2997 7.85982 -8.94921
471 1 12.5819 15.7266 6.28553 -8.94994
472 1 14.1556 17.3002 7.85836 -8.9446
473 1 15.7251 15.7244 6.28885 -8.95033
474 1 17.2979 17.2974 7.8613 -8.94967
475 1 18.869 15.7244 6.28937 -8.94981
476 1 20.4415 17.297 7.86195 -8.94981
477 1 22.0137 18.8694 6.28953 -8.94983
478 1 1.57224 20.4417 7.86212 -8.94971
479 1 3.1439 18.8705 6.28881 -8.94945
480 1 4.71685 20.4423 7.8618 -8.95055
481 1 6.28939 18.8702 6.28889 -8.94917
482 1 7.86183 20.4423 7.8615 -8.94959
483 1 9.43455 18.8701 6.28878 -8.9494
484 1 11.007 20.4423 7.86148 -8.94964
485 1 12.5798 18.8701 6.28868 -8.94968
486 1 14.1526 20.4424 7.86131 -8.94997
487 1 15.7253 18.87 6.28858 -8.94828
488 1 17.297 20.4417 7.86185 -8.94956
489 1 18.8694 18.8693 6.2894 -8.94957
490 1 20.4415 20.4416 7.86204 -8.94956
491 1 22.0117 12.5796 9.43427 -8.95171
492 1 3.13506 12.5818 9.43108 -8.95817
493 1 6.24938 12.6125 9.39814 -8.85394
494 1 9.44892 12.6022 9.42725 -8.90501
495 1 12.5825 12.5767 9.43397 -8.95276
496 1 15.7256 12.5787 9.43396 -8.9497
497 1 18.8691 12.5793 9.43426 -8.94989
498 1 22.0133 15.7247 9.4346 -8.94977
499 1 3.14287 15.7256 9.43465 -8.95156
500 1 6.28383 15.7342 9.42848 -8.9535
501 1 9.43511 15.7324 9.42991 -8.95095
502 1 12.5917 15.7362 9.42295 -8.92997
503 1 15.728 15.726 9.43269 -8.95086
512 1 1.56994 11.007 11.0074 -8.95121
513 1 4.70904 11.007 10.9997 -8.97294
514 1 7.78363 11.007 10.7758 -8.11929
515 1 10.985 11.007 11.0168 -8.90163
516 1 14.1498 11.007 11.0074 -8.93992
517 1 17.2971 11.007 11.0066 -8.94781
518 1 20.4409 11.007 11.007 -8.94954
519 1 1.57102 14.1524 11.0077 -8.9497
520 1 4.71415 14.1523 11.0096 -8.95276
521 1 7.84772 14.1591 10.9841 -8.90501
522 1 11.0473 14.1882 10.9738 -8.85394
523 1 14.1616 14.1552 11.0046 -8.95817
524 1 17.2989 14.1521 11.0067 -8.95171
525 1 20.4414 14.1521 11.007 -8.94989
527 1 4.71691 17.2973 11.0077 -8.949
528 1 7.86256 17.2982 11.007 -8.95167
529 1 11.0097 17.3044 11.0057 -8.95915
535 1 7.86193 20.442 11.0071 -8.94946
534 1 4.71696 20.4418 11.0071 -8.94939
351 1 22.0134 12.5795 0.00029204 -8.94955
385 1 9.43458 18.8694 0.000305175 -8.94956
383 1 6.28962 18.8694 0.000285031 -8.94952
363 1 18.869 12.5794 0.000149373 -8.9496
687 3 8.64832 11.007 12.5794 2.30863
686 1 20.4415 20.4416 20.4416 -8.94962
685 1 18.8694 18.8693 18.8693 -8.94957
684 1 17.297 20.4417 20.4418 -8.94925
683 1 15.7253 18.87 18.8702 -8.94828
682 1 14.152 20.4417 20.4419 -8.94967
681 1 12.5798 18.8701 18.8701 -8.94968
680 1 11.007 20.4418 20.4419 -8.94952
679 1 9.43455 18.8701 18.87 -8.9494
678 1 7.86206 20.4418 20.4419 -8.94956
677 1 6.28939 18.8702 18.8699 -8.94917
676 1 4.71711 20.4418 20.4418 -8.94952
675 1 3.1439 18.8705 18.8699 -8.94945
674 1 1.57209 20.4418 20.4418 -8.9495
526 1 1.57178 17.2974 11.007 -8.94902
673 1 22.0137 18.8694 18.8692 -8.94983
672 1 20.4412 17.2969 20.4418 -8.94957
671 1 18.869 15.7244 18.8694 -8.94981
670 1 17.2969 17.2968 20.4418 -8.94983
531 1 17.298 17.2975 11.0067 -8.94931
532 1 20.4416 17.2971 11.0069 -8.94957
533 1 1.57216 20.4417 11.0069 -8.94958
669 1 15.7251 15.7244 18.8699 -8.95033
668 1 14.1527 17.2975 20.4429 -8.94945
667 1 12.5819 15.7266 18.8732 -8.94994
666 1 11.0072 17.2974 20.4426 -8.94917
665 1 9.43503 15.7263 18.8719 -8.94781
664 1 7.86208 17.2975 20.4425 -8.9494
540 1 1.56994 11.007 14.1514 -8.95121
541 1 4.70904 11.007 14.159 -8.97294
542 1 7.78363 11.007 14.3829 -8.11929
543 1 10.985 11.007 14.1419 -8.90163
544 1 14.1498 11.007 14.1514 -8.93992
545 1 17.2971 11.007 14.1521 -8.94781
546 1 20.4409 11.007 14.1517 -8.94954
547 1 22.0134 12.5797 12.5794 -8.94781
548 1 1.57102 14.1524 14.1511 -8.9497
549 1 3.14683 12.579 12.5794 -8.93992
550 1 4.71415 14.1523 14.1491 -8.95276
551 1 6.31162 12.5695 12.5794 -8.90163
552 1 7.84772 14.1591 14.1747 -8.90501
553 1 9.513 12.8105 12.5794 -8.11929
554 1 11.0473 14.1882 14.1849 -8.85394
555 1 12.5876 12.5866 12.5794 -8.97294
556 1 14.1616 14.1552 14.1542 -8.95817
557 1 15.7267 12.5789 12.5794 -8.95121
558 1 17.2989 14.1521 14.152 -8.95171
559 1 18.8696 12.5793 12.5794 -8.94954
560 1 20.4414 14.1521 14.1518 -8.94989
561 1 -0.000586794 15.7249 12.5794 -8.94953
562 1 1.57178 17.2974 14.1518 -8.94902
563 1 3.14341 15.7258 12.5794 -8.94655
564 1 4.71691 17.2973 14.151 -8.949
565 1 6.29175 15.7219 12.5794 -8.94534
566 1 7.86256 17.2982 14.1518 -8.95167
567 1 9.43946 15.7208 12.5794 -9.00328
568 1 11.0097 17.3044 14.1531 -8.95915
569 1 12.5893 15.7337 12.5794 -8.94224
570 1 14.1551 17.2999 14.153 -8.94771
571 1 15.7282 15.7262 12.5794 -8.94906
572 1 17.298 17.2975 14.1521 -8.94931
573 1 18.8699 15.7247 12.5794 -8.94992
574 1 20.4416 17.2971 14.1519 -8.94957
575 1 22.0137 18.8694 12.5794 -8.9496
576 1 1.57216 20.4417 14.1518 -8.94958
577 1 3.14434 18.8697 12.5794 -8.94966
578 1 4.71696 20.4418 14.1517 -8.94939
579 1 6.28946 18.8693 12.5794 -8.94828
580 1 7.86193 20.442 14.1517 -8.94946
581 1 9.43452 18.87 12.5794 -8.94651
582 1 11.0071 20.443 14.1519 -8.95137
583 1 12.5814 18.8725 12.5794 -8.94952
584 1 14.1527 20.4425 14.1521 -8.94939
585 1 15.7254 18.8701 12.5794 -8.94949
586 1 17.2971 20.4418 14.1519 -8.94955
587 1 18.8694 18.8694 12.5794 -8.94955
588 1 20.4415 20.4416 14.1518 -8.9496
589 1 1.56848 11.007 17.2987 -8.94906
590 1 4.70731 11.007 17.3061 -8.94224
591 1 7.85718 11.007 17.2933 -9.00328
592 1 11.0049 11.007 17.2944 -8.94534
593 1 14.1532 11.007 17.2982 -8.94655
594 1 17.2972 11.007 17.2973 -8.94953
595 1 20.4406 11.007 17.2971 -8.94992
596 1 22.0117 12.5796 15.7245 -8.95171
597 1 1.56859 14.1536 17.2984 -8.95086
598 1 3.13506 12.5818 15.7277 -8.95817
599 1 4.70494 14.1634 17.3086 -8.92997
600 1 6.24938 12.6125 15.7606 -8.85394
601 1 7.86153 14.1564 17.3048 -8.95095
602 1 9.44892 12.6022 15.7315 -8.90501
603 1 11.0128 14.1578 17.3066 -8.9535
604 1 12.5825 12.5767 15.7248 -8.95276
605 1 14.1538 14.1517 17.2981 -8.95156
606 1 15.7256 12.5787 15.7248 -8.9497
607 1 17.2972 14.1517 17.2971 -8.94977
608 1 18.8691 12.5793 15.7245 -8.94989
609 1 20.4407 14.1521 17.297 -8.95016
610 1 22.0133 15.7247 15.7241 -8.94977
611 1 1.57157 17.2975 17.2968 -8.95033
612 1 3.14287 15.7256 15.7241 -8.95156
613 1 4.71471 17.3008 17.299 -8.94994
614 1 6.28383 15.7342 15.7303 -8.9535
615 1 7.8616 17.2995 17.2987 -8.94781
616 1 9.43511 15.7324 15.7288 -8.95095
617 1 11.0079 17.2997 17.2989 -8.94921
618 1 12.5917 15.7362 15.7358 -8.92997
619 1 14.1556 17.3002 17.3004 -8.9446
620 1 15.728 15.726 15.7261 -8.95086
621 1 17.2979 17.2974 17.2974 -8.94967
622 1 18.8698 15.7246 15.7245 -8.95016
623 1 20.4415 17.297 17.2968 -8.94981
624 1 -0.000171262 18.8694 15.7242 -8.94946
625 1 1.57224 20.4417 17.2966 -8.94971
626 1 3.14449 18.8696 15.724 -8.94963
627 1 4.71685 20.4423 17.2969 -8.95055
628 1 6.28929 18.8711 15.7245 -8.95238
629 1 7.86183 20.4423 17.2972 -8.94959
630 1 9.43424 18.8715 15.7252 -8.95045
631 1 11.007 20.4423 17.2973 -8.94964
632 1 12.5809 18.8724 15.7257 -8.95149
633 1 14.1526 20.4424 17.2974 -8.94997
634 1 15.7254 18.8701 15.7248 -8.94928
635 1 17.297 20.4417 17.2969 -8.94956
636 1 18.8694 18.8694 15.7244 -8.94949
637 1 20.4415 20.4416 17.2967 -8.94956
638 1 1.57121 11.007 20.4426 -8.94949
639 1 4.71526 11.007 20.4449 -8.94952
640 1 7.86211 11.007 20.4424 -8.94651
641 1 11.0072 11.007 20.4417 -8.94828
642 1 14.1523 11.007 20.4422 -8.94966
643 1 17.2968 11.007 20.4418 -8.9496
644 1 20.4411 11.007 20.4418 -8.94955
645 1 -0.00132804 12.5797 18.8699 -8.94931
646 1 1.57127 14.1524 20.4425 -8.94928
647 1 3.14155 12.5806 18.8723 -8.94771
648 1 4.71576 14.1532 20.4448 -8.95149
649 1 6.28698 12.5806 18.8768 -8.95915
650 1 7.86239 14.1527 20.444 -8.95045
651 1 9.43407 12.5793 18.8706 -8.95167
652 1 11.0073 14.152 20.4435 -8.95238
653 1 12.5797 12.5786 18.8698 -8.949
654 1 14.1521 14.1516 20.4421 -8.94963
655 1 15.7249 12.5793 18.8698 -8.94902
656 1 17.2968 14.1518 20.4418 -8.94946
657 1 18.869 12.5794 18.8695 -8.94957
658 1 20.4411 14.152 20.4418 -8.94949
659 1 22.0126 15.725 18.8698 -8.94967
660 1 1.57132 17.2977 20.4425 -8.94828
661 1 3.14107 15.728 18.8727 -8.9446
662 1 4.71679 17.2976 20.4425 -8.94968
663 1 6.28873 15.7265 18.8721 -8.94921
371 1 9.43481 15.7248 22.0147 -8.94959
353 1 3.14394 12.5797 22.0149 -8.94939
361 1 15.7245 12.5794 22.0141 -8.94958
369 1 6.28963 15.7248 22.0147 -8.94964
365 1 -0.000413085 15.7245 22.0142 -8.94956
381 1 3.14462 18.8694 22.0142 -8.94967
387 1 12.5795 18.8694 22.0142 -8.94952
537 1 14.1527 20.4425 11.0066 -8.94939
530 1 14.1551 17.2999 11.0057 -8.94771
