ITEM: TIMESTEP
56
ITEM: NUMBER OF ATOMS
687
ITEM: BOX BOUNDS pp pp pp
0.0000000000000000e+00 2.2013900999999997e+01
0.0000000000000000e+00 2.2013900999999997e+01
0.0000000000000000e+00 2.2013900999999997e+01
ITEM: ATOMS id type x y z c_pot
1 1 22.0139 -1.60411e-15 3.68096e-07 -8.94963
2 1 1.57242 1.57242 1.57242 -8.94964
196 1 20.4415 7.86209 11.0069 -8.94969
4 1 4.71726 1.57242 1.57242 -8.94963
5 1 6.28969 -2.0193e-15 1.90025e-08 -8.94963
6 1 7.86211 1.57242 1.57242 -8.94963
175 1 18.8691 9.43453 9.43452 -8.94969
8 1 11.007 1.57242 1.57242 -8.94963
9 1 12.5794 7.28843e-16 1.03966e-07 -8.94963
10 1 14.1518 1.57242 1.57242 -8.94963
195 1 17.2969 7.86207 11.0069 -8.95021
12 1 17.2966 1.57242 1.57242 -8.94963
13 1 18.8691 3.07859e-16 1.27467e-07 -8.94963
14 1 20.4415 1.57242 1.57242 -8.94963
15 1 22.0139 3.14484 1.54446e-06 -8.94962
16 1 1.57242 4.71726 1.57242 -8.94962
194 1 14.1546 7.86134 11.0062 -8.95393
18 1 4.71727 4.71727 1.57242 -8.94964
174 1 15.7245 9.43457 9.43439 -8.94953
20 1 7.86211 4.71726 1.57242 -8.94964
173 1 12.5808 9.43536 9.43379 -8.95014
22 1 11.007 4.71726 1.57242 -8.94963
193 1 11.0301 7.84071 10.9856 -8.86683
24 1 14.1518 4.71726 1.57242 -8.94963
25 1 15.7242 3.14484 3.41769e-06 -8.94962
26 1 17.2966 4.71726 1.57242 -8.94963
27 1 18.8691 3.14484 1.56519e-07 -8.94963
28 1 20.4415 4.71726 1.57242 -8.94964
192 1 7.85482 7.85802 10.9976 -8.92046
30 1 1.57242 7.86211 1.57242 -8.94963
31 1 3.14482 6.28966 4.0921e-05 -8.94962
32 1 4.71724 7.86208 1.57242 -8.94975
172 1 9.44182 9.42514 9.43044 -8.92046
34 1 7.86211 7.86209 1.57242 -8.94967
171 1 6.26658 9.41314 9.41313 -8.86683
36 1 11.007 7.86209 1.57242 -8.94973
37 1 12.5794 6.28967 3.80378e-05 -8.94968
38 1 14.1518 7.86211 1.57242 -8.94964
39 1 15.7242 6.28969 -1.60004e-07 -8.94964
40 1 17.2966 7.86211 1.57242 -8.94963
41 1 18.8691 6.28969 -7.0051e-08 -8.94963
42 1 20.4415 7.86211 1.57242 -8.94963
170 1 3.14206 9.4338 9.43376 -8.95393
169 1 22.0137 9.4345 9.43449 -8.95021
45 1 6.28964 9.43448 0.000236942 -8.95021
46 1 9.43458 9.43448 0.000136706 -8.94972
47 1 12.5794 9.43453 1.37856e-05 -8.94964
168 1 18.8691 6.28968 9.43452 -8.94969
167 1 15.7246 6.28951 9.43435 -8.94991
50 1 22.0139 -1.31335e-15 3.14484 -8.94963
51 1 1.57242 1.57242 4.71726 -8.94962
52 1 3.14484 -7.69795e-16 3.14484 -8.94963
53 1 4.71727 1.57242 4.71726 -8.94964
54 1 6.28969 -1.96644e-15 3.14484 -8.94963
55 1 7.86211 1.57242 4.71726 -8.94964
56 1 9.43453 -9.75652e-16 3.14484 -8.94963
57 1 11.007 1.57242 4.71726 -8.94963
58 1 12.5794 3.30824e-16 3.14484 -8.94963
59 1 14.1518 1.57242 4.71727 -8.94965
60 1 15.7242 2.28477e-16 3.14484 -8.94964
61 1 17.2966 1.57242 4.71726 -8.94962
62 1 18.8691 -2.00206e-16 3.14484 -8.94963
63 1 20.4415 1.57242 4.71726 -8.94963
64 1 22.0139 3.14484 3.14484 -8.94962
65 1 1.57239 4.71724 4.71724 -8.94947
66 1 3.14484 3.14484 3.14484 -8.94965
67 1 4.71727 4.71726 4.71726 -8.94976
68 1 6.28969 3.14484 3.14484 -8.94963
69 1 7.8621 4.71725 4.71724 -8.94965
70 1 9.43453 3.14484 3.14484 -8.94964
71 1 11.0069 4.71725 4.71725 -8.94961
72 1 12.5794 3.14484 3.14484 -8.94964
73 1 14.1518 4.71724 4.71722 -8.9496
74 1 15.7242 3.14484 3.14484 -8.94962
75 1 17.2966 4.71726 4.71726 -8.94965
76 1 18.8691 3.14484 3.14484 -8.94963
77 1 20.4415 4.71726 4.71726 -8.94963
78 1 3.01502e-07 6.28969 3.14484 -8.94965
79 1 1.57241 7.86211 4.71726 -8.94972
80 1 3.14482 6.28966 3.1448 -8.94962
81 1 4.71708 7.86192 4.71687 -8.94994
82 1 6.28969 6.28968 3.14483 -8.94962
83 1 7.86218 7.862 4.71703 -8.9496
84 1 9.43453 6.28967 3.14482 -8.94962
85 1 11.007 7.86201 4.71696 -8.95015
86 1 12.5794 6.28967 3.1448 -8.94968
87 1 14.1518 7.86212 4.71725 -8.94966
88 1 15.7242 6.28969 3.14484 -8.94964
89 1 17.2966 7.86211 4.71726 -8.94963
90 1 18.8691 6.28969 3.14484 -8.94963
91 1 20.4415 7.86211 4.71726 -8.94963
92 1 22.0139 9.43453 3.14484 -8.94964
93 1 3.14483 9.43453 3.14482 -8.9496
94 1 6.28964 9.43448 3.14461 -8.95021
95 1 9.43458 9.43448 3.14471 -8.94972
96 1 12.5794 9.43453 3.14483 -8.94964
97 1 15.7242 9.43453 3.14484 -8.94963
98 1 18.8691 9.43453 3.14484 -8.94963
99 1 22.0139 1.92774e-15 6.28969 -8.94963
100 1 1.57242 1.57242 7.86211 -8.94964
101 1 3.14484 9.14141e-16 6.28968 -8.94963
102 1 4.71725 1.57238 7.86209 -8.94968
103 1 6.28969 1.03971e-15 6.28968 -8.94963
104 1 7.8621 1.5724 7.86209 -8.94962
105 1 9.43453 -1.48401e-15 6.28968 -8.94964
106 1 11.0069 1.57241 7.8621 -8.94962
107 1 12.5794 4.28809e-17 6.28969 -8.94964
108 1 14.1518 1.57238 7.86208 -8.94962
109 1 15.7242 1.79023e-15 6.28968 -8.94962
110 1 17.2966 1.57242 7.86211 -8.94965
111 1 18.8691 1.01672e-15 6.28969 -8.94964
112 1 20.4415 1.57242 7.86211 -8.94963
113 1 22.0139 3.14484 6.28969 -8.94965
114 1 1.57241 4.71726 7.86211 -8.94975
115 1 3.14482 3.1448 6.28966 -8.9496
116 1 4.71705 4.71683 7.8619 -8.94973
117 1 6.28969 3.14483 6.28967 -8.94961
118 1 7.8621 4.71703 7.8619 -8.94921
119 1 9.43453 3.14482 6.28967 -8.94965
120 1 11.0069 4.71714 7.86201 -8.95001
121 1 12.5794 3.14484 6.28968 -8.94976
122 1 14.1521 4.71691 7.86175 -8.9481
123 1 15.7242 3.14481 6.28966 -8.94947
124 1 17.2967 4.71724 7.86208 -8.94962
125 1 18.8691 3.14484 6.28968 -8.94963
126 1 20.4415 4.71726 7.86211 -8.94964
127 1 22.0139 6.28966 6.28966 -8.94962
128 1 1.57203 7.86193 7.86193 -8.94991
129 1 3.14449 6.28933 6.28933 -8.9481
130 1 4.71398 7.85875 7.85883 -8.93789
131 1 6.28972 6.28959 6.28957 -8.95001
132 1 7.86262 7.8613 7.86034 -8.95118
133 1 9.43454 6.28948 6.28946 -8.94921
134 1 11.0082 7.86094 7.85917 -8.9526
135 1 12.5796 6.28948 6.28925 -8.94973
136 1 14.1519 7.86213 7.862 -8.95018
137 1 15.7242 6.28969 6.28968 -8.94975
138 1 17.2967 7.86211 7.86209 -8.94962
139 1 18.8691 6.28968 6.28968 -8.94964
140 1 20.4415 7.8621 7.8621 -8.94969
141 1 -2.0951e-05 9.43453 6.28967 -8.9496
142 1 3.14467 9.43448 6.28952 -8.94962
143 1 6.28895 9.43383 6.28701 -8.95394
144 1 9.435 9.4341 6.2886 -8.94924
145 1 12.5795 9.43464 6.28954 -8.94973
146 1 15.7242 9.43452 6.28967 -8.94961
147 1 18.8691 9.43453 6.28968 -8.94963
148 1 -9.69812e-08 1.96087e-15 9.43453 -8.94963
149 1 3.14484 2.21054e-15 9.43453 -8.94964
150 1 6.28967 1.86426e-15 9.43451 -8.94973
151 1 9.43452 -1.50002e-16 9.43451 -8.94967
152 1 12.5794 -7.36757e-16 9.43451 -8.94975
153 1 15.7242 9.70345e-16 9.43453 -8.94963
154 1 18.8691 1.83379e-15 9.43453 -8.94963
155 1 -7.38465e-07 3.14484 9.43453 -8.94963
156 1 3.14483 3.14483 9.43454 -8.94966
157 1 6.28959 3.14454 9.43443 -8.95015
158 1 9.43446 3.1446 9.43442 -8.9496
159 1 12.5796 3.14445 9.43434 -8.94994
160 1 15.7242 3.14484 9.43453 -8.94972
161 1 18.8691 3.14484 9.43453 -8.94963
162 1 22.0139 6.28967 9.43453 -8.94962
163 1 3.1447 6.28958 9.43455 -8.95018
164 1 6.28846 6.28675 9.43336 -8.9526
165 1 9.43401 6.28792 9.43372 -8.95118
166 1 12.5827 6.28641 9.43118 -8.93789
177 1 4.71726 1.57241 11.007 -8.94964
178 1 7.86206 1.57228 11.0069 -8.94972
179 1 11.007 1.57218 11.0069 -8.95021
191 1 4.71584 7.86137 11.0078 -8.95014
181 1 17.2966 1.57242 11.007 -8.94964
182 1 20.4415 1.57242 11.007 -8.94963
184 1 4.71715 4.71712 11.0071 -8.94973
185 1 7.86163 4.71618 11.0065 -8.94924
186 1 11.0077 4.71459 11.0063 -8.95394
190 1 1.57216 7.86197 11.007 -8.94953
19 1 6.28969 3.14484 1.38504e-06 -8.94963
49 1 18.8691 9.43453 5.18978e-09 -8.94963
21 1 9.43453 3.14484 5.85867e-07 -8.94964
43 1 22.0139 9.43453 4.62183e-07 -8.94964
176 1 1.57242 1.57242 11.0069 -8.94963
343 1 18.8691 9.43453 18.8691 -8.94963
342 1 15.7242 9.43452 18.8691 -8.94961
341 1 12.5795 9.43464 18.8692 -8.94973
340 1 9.435 9.4341 18.8701 -8.94924
339 1 6.28895 9.43383 18.8717 -8.95394
338 1 3.14467 9.43448 18.8692 -8.94962
183 1 1.5724 4.71725 11.0069 -8.94961
337 1 -2.0951e-05 9.43453 18.8691 -8.9496
336 1 20.4415 7.86211 20.4415 -8.94963
335 1 18.8691 6.28968 18.8691 -8.94964
334 1 17.2966 7.86211 20.4415 -8.94963
188 1 17.2967 4.71725 11.0069 -8.9496
189 1 20.4415 4.71726 11.0069 -8.94963
333 1 15.7242 6.28969 18.8691 -8.94975
332 1 14.1518 7.86212 20.4415 -8.94966
331 1 12.5796 6.28948 18.8695 -8.94973
330 1 11.007 7.86201 20.4418 -8.95015
329 1 9.43454 6.28948 18.8693 -8.94921
328 1 7.86218 7.862 20.4417 -8.9496
327 1 6.28972 6.28959 18.8692 -8.95001
197 1 1.09563e-07 1.7915e-15 12.5794 -8.94963
198 1 1.57242 1.57242 14.1518 -8.94963
199 1 3.14484 2.3397e-15 12.5794 -8.94964
200 1 4.71726 1.57241 14.1518 -8.94964
201 1 6.28968 1.64102e-15 12.5794 -8.94962
202 1 7.86206 1.57228 14.1518 -8.94972
203 1 9.43452 3.62141e-16 12.5794 -8.9501
204 1 11.007 1.57218 14.1518 -8.95021
205 1 12.5794 -6.9072e-16 12.5794 -8.94968
206 1 14.1518 1.5724 14.1518 -8.9496
207 1 15.7242 9.75229e-16 12.5794 -8.94964
208 1 17.2966 1.57242 14.1518 -8.94964
209 1 18.8691 1.31047e-15 12.5794 -8.94963
210 1 20.4415 1.57242 14.1518 -8.94963
211 1 22.0139 3.14484 12.5794 -8.94964
212 1 1.5724 4.71725 14.1518 -8.94961
213 1 3.14482 3.1448 12.5794 -8.94961
214 1 4.71715 4.71712 14.1517 -8.94973
215 1 6.28964 3.14476 12.5794 -8.94937
216 1 7.86163 4.71618 14.1522 -8.94924
217 1 9.43445 3.14373 12.5794 -8.95089
218 1 11.0077 4.71459 14.1525 -8.95394
219 1 12.5795 3.14451 12.5794 -8.9494
220 1 14.152 4.7171 14.1518 -8.94962
221 1 15.7242 3.14483 12.5794 -8.94969
222 1 17.2967 4.71725 14.1518 -8.9496
223 1 18.8691 3.14484 12.5794 -8.94964
224 1 20.4415 4.71726 14.1518 -8.94963
225 1 -2.83641e-05 6.28966 12.5794 -8.94961
226 1 1.57216 7.86197 14.1518 -8.94953
227 1 3.14462 6.2894 12.5794 -8.94868
228 1 4.71584 7.86137 14.151 -8.95014
229 1 6.29002 6.28964 12.5794 -8.94979
230 1 7.85482 7.85802 14.1612 -8.92046
231 1 9.43587 6.28339 12.5794 -8.99123
232 1 11.0301 7.84071 14.1732 -8.86683
233 1 12.5814 6.28757 12.5794 -8.94774
234 1 14.1546 7.86134 14.1525 -8.95393
235 1 15.7245 6.28953 12.5794 -8.94939
236 1 17.2969 7.86207 14.1518 -8.95021
237 1 18.8691 6.28967 12.5794 -8.94965
238 1 20.4415 7.86209 14.1518 -8.94969
239 1 22.0137 9.43445 12.5794 -8.94947
240 1 3.1441 9.43386 12.5794 -8.9453
241 1 6.29479 9.43608 12.5794 -8.90179
242 1 9.51671 9.23469 12.5794 -8.07741
243 1 12.5885 9.43214 12.5794 -8.97001
244 1 15.7253 9.43463 12.5794 -8.95169
245 1 18.8691 9.43453 12.5794 -8.94987
246 1 -9.69812e-08 1.81546e-15 15.7242 -8.94963
247 1 1.57242 1.57242 17.2966 -8.94964
248 1 3.14484 2.17266e-15 15.7242 -8.94964
249 1 4.71725 1.57238 17.2967 -8.94968
250 1 6.28967 1.8875e-15 15.7242 -8.94973
251 1 7.8621 1.5724 17.2967 -8.94962
252 1 9.43452 -4.23753e-16 15.7242 -8.94967
253 1 11.0069 1.57241 17.2966 -8.94962
254 1 12.5794 -1.30763e-15 15.7242 -8.94975
255 1 14.1518 1.57238 17.2967 -8.94962
256 1 15.7242 1.11373e-15 15.7242 -8.94963
257 1 17.2966 1.57242 17.2966 -8.94965
258 1 18.8691 1.87112e-15 15.7242 -8.94963
259 1 20.4415 1.57242 17.2966 -8.94963
260 1 -7.38465e-07 3.14484 15.7242 -8.94963
261 1 1.57241 4.71726 17.2966 -8.94975
262 1 3.14483 3.14483 15.7242 -8.94966
263 1 4.71705 4.71683 17.2968 -8.94973
264 1 6.28959 3.14454 15.7243 -8.95015
265 1 7.8621 4.71703 17.2968 -8.94921
266 1 9.43446 3.1446 15.7243 -8.9496
267 1 11.0069 4.71714 17.2967 -8.95001
268 1 12.5796 3.14445 15.7244 -8.94994
269 1 14.1521 4.71691 17.297 -8.9481
270 1 15.7242 3.14484 15.7242 -8.94972
271 1 17.2967 4.71724 17.2967 -8.94962
272 1 18.8691 3.14484 15.7242 -8.94963
273 1 20.4415 4.71726 17.2966 -8.94964
274 1 22.0139 6.28967 15.7242 -8.94962
275 1 1.57203 7.86193 17.2968 -8.94991
276 1 3.1447 6.28958 15.7242 -8.95018
277 1 4.71398 7.85875 17.2999 -8.93789
278 1 6.28846 6.28675 15.7254 -8.9526
279 1 7.86262 7.8613 17.2984 -8.95118
280 1 9.43401 6.28792 15.725 -8.95118
281 1 11.0082 7.86094 17.2996 -8.9526
282 1 12.5827 6.28641 15.7276 -8.93789
283 1 14.1519 7.86213 17.2967 -8.95018
284 1 15.7246 6.28951 15.7244 -8.94991
285 1 17.2967 7.86211 17.2967 -8.94962
286 1 18.8691 6.28968 15.7242 -8.94969
287 1 20.4415 7.8621 17.2966 -8.94969
288 1 22.0137 9.4345 15.7243 -8.95021
289 1 3.14206 9.4338 15.725 -8.95393
290 1 6.26658 9.41314 15.7456 -8.86683
291 1 9.44182 9.42514 15.7283 -8.92046
292 1 12.5808 9.43536 15.725 -8.95014
293 1 15.7245 9.43457 15.7244 -8.94953
294 1 18.8691 9.43453 15.7242 -8.94969
295 1 22.0139 1.60898e-15 18.8691 -8.94963
296 1 1.57242 1.57242 20.4415 -8.94962
297 1 3.14484 7.8785e-16 18.8691 -8.94963
298 1 4.71727 1.57242 20.4415 -8.94964
299 1 6.28969 1.65968e-15 18.8691 -8.94963
300 1 7.86211 1.57242 20.4415 -8.94964
301 1 9.43453 -1.874e-15 18.8691 -8.94964
302 1 11.007 1.57242 20.4415 -8.94963
303 1 12.5794 -4.44003e-16 18.8691 -8.94964
304 1 14.1518 1.57242 20.4415 -8.94965
305 1 15.7242 1.72592e-15 18.8691 -8.94962
306 1 17.2966 1.57242 20.4415 -8.94962
307 1 18.8691 5.19454e-16 18.8691 -8.94964
308 1 20.4415 1.57242 20.4415 -8.94963
309 1 22.0139 3.14484 18.8691 -8.94965
310 1 1.57239 4.71724 20.4415 -8.94947
311 1 3.14482 3.1448 18.8691 -8.9496
312 1 4.71727 4.71726 20.4415 -8.94976
313 1 6.28969 3.14483 18.8691 -8.94961
314 1 7.8621 4.71725 20.4415 -8.94965
315 1 9.43453 3.14482 18.8691 -8.94965
316 1 11.0069 4.71725 20.4415 -8.94961
317 1 12.5794 3.14484 18.8691 -8.94976
318 1 14.1518 4.71724 20.4415 -8.9496
319 1 15.7242 3.14481 18.8691 -8.94947
320 1 17.2966 4.71726 20.4415 -8.94965
321 1 18.8691 3.14484 18.8691 -8.94963
322 1 20.4415 4.71726 20.4415 -8.94963
323 1 22.0139 6.28966 18.8691 -8.94962
324 1 1.57241 7.86211 20.4415 -8.94972
325 1 3.14449 6.28933 18.8694 -8.9481
326 1 4.71708 7.86192 20.4419 -8.94994
7 1 9.43453 -9.5554e-16 22.0139 -8.94963
48 1 15.7242 9.43453 22.0139 -8.94963
44 1 3.14483 9.43453 22.0139 -8.9496
33 1 6.28969 6.28968 22.0139 -8.94962
35 1 9.43453 6.28967 22.0139 -8.94962
3 1 3.14484 -1.13307e-15 22.0139 -8.94963
11 1 15.7242 4.27301e-16 22.0139 -8.94964
17 1 3.14484 3.14484 22.0139 -8.94965
23 1 12.5794 3.14484 22.0139 -8.94964
29 1 3.01502e-07 6.28969 22.0139 -8.94965
180 1 14.1518 1.5724 11.0069 -8.9496
187 1 14.152 4.7171 11.0069 -8.94962
344 1 1.57242 11.007 1.57242 -8.94964
345 1 4.71724 11.007 1.57242 -8.94968
346 1 7.86212 11.007 1.57242 -8.9501
347 1 11.007 11.007 1.57242 -8.94962
348 1 14.1518 11.007 1.57242 -8.94964
349 1 17.2966 11.007 1.57242 -8.94963
350 1 20.4415 11.007 1.57242 -8.94963
511 1 18.8691 18.8691 9.43453 -8.94963
352 1 1.57242 14.1518 1.57242 -8.94963
510 1 15.7242 18.8691 9.43453 -8.94972
354 1 4.71724 14.1518 1.57242 -8.94975
355 1 6.28964 12.5794 0.000236942 -8.95021
356 1 7.86211 14.1518 1.57242 -8.94967
357 1 9.43458 12.5794 0.000136706 -8.94972
358 1 11.007 14.1518 1.57242 -8.94973
359 1 12.5794 12.5794 1.37856e-05 -8.94964
360 1 14.1518 14.1518 1.57242 -8.94964
509 1 12.5796 18.8695 9.43434 -8.94994
362 1 17.2966 14.1518 1.57242 -8.94963
508 1 9.43446 18.8693 9.43442 -8.9496
364 1 20.4415 14.1518 1.57242 -8.94963
539 1 20.4415 20.4415 11.007 -8.94963
366 1 1.57242 17.2966 1.57242 -8.94962
367 1 3.14482 15.7242 4.0921e-05 -8.94962
368 1 4.71727 17.2966 1.57242 -8.94964
507 1 6.28959 18.8694 9.43443 -8.95015
370 1 7.86211 17.2966 1.57242 -8.94964
506 1 3.14483 18.8691 9.43454 -8.94966
372 1 11.007 17.2966 1.57242 -8.94963
373 1 12.5794 15.7242 3.80378e-05 -8.94968
374 1 14.1518 17.2966 1.57242 -8.94963
375 1 15.7242 15.7242 -1.60004e-07 -8.94964
376 1 17.2966 17.2966 1.57242 -8.94963
377 1 18.8691 15.7242 -7.0051e-08 -8.94963
378 1 20.4415 17.2966 1.57242 -8.94964
379 1 22.0139 18.8691 1.54446e-06 -8.94962
380 1 1.57242 20.4415 1.57242 -8.94964
538 1 17.2966 20.4415 11.007 -8.94964
382 1 4.71726 20.4415 1.57242 -8.94963
505 1 -7.38465e-07 18.8691 9.43453 -8.94963
384 1 7.86211 20.4415 1.57242 -8.94963
504 1 18.8691 15.7242 9.43452 -8.94969
386 1 11.007 20.4415 1.57242 -8.94963
536 1 11.007 20.4417 11.0069 -8.95021
388 1 14.1518 20.4415 1.57242 -8.94963
389 1 15.7242 18.8691 3.41769e-06 -8.94962
390 1 17.2966 20.4415 1.57242 -8.94963
391 1 18.8691 18.8691 1.56519e-07 -8.94963
392 1 20.4415 20.4415 1.57242 -8.94963
393 1 1.57241 11.007 4.71725 -8.94969
394 1 4.7171 11.007 4.71693 -8.9494
395 1 7.86219 11.007 4.71615 -8.95089
396 1 11.007 11.007 4.71718 -8.94937
397 1 14.1518 11.007 4.71723 -8.94961
398 1 17.2966 11.007 4.71726 -8.94964
399 1 20.4415 11.007 4.71726 -8.94964
400 1 22.0139 12.5794 3.14484 -8.94964
401 1 1.57241 14.1518 4.71726 -8.94972
402 1 3.14483 12.5794 3.14482 -8.9496
403 1 4.71708 14.152 4.71687 -8.94994
404 1 6.28964 12.5794 3.14461 -8.95021
405 1 7.86218 14.1519 4.71703 -8.9496
406 1 9.43458 12.5794 3.14471 -8.94972
407 1 11.007 14.1519 4.71696 -8.95015
408 1 12.5794 12.5794 3.14483 -8.94964
409 1 14.1518 14.1518 4.71725 -8.94966
410 1 15.7242 12.5794 3.14484 -8.94963
411 1 17.2966 14.1518 4.71726 -8.94963
412 1 18.8691 12.5794 3.14484 -8.94963
413 1 20.4415 14.1518 4.71726 -8.94963
414 1 3.01502e-07 15.7242 3.14484 -8.94965
415 1 1.57239 17.2967 4.71724 -8.94947
416 1 3.14482 15.7242 3.1448 -8.94962
417 1 4.71727 17.2966 4.71726 -8.94976
418 1 6.28969 15.7242 3.14483 -8.94962
419 1 7.8621 17.2967 4.71724 -8.94965
420 1 9.43453 15.7242 3.14482 -8.94962
421 1 11.0069 17.2967 4.71725 -8.94961
422 1 12.5794 15.7242 3.1448 -8.94968
423 1 14.1518 17.2967 4.71722 -8.9496
424 1 15.7242 15.7242 3.14484 -8.94964
425 1 17.2966 17.2966 4.71726 -8.94965
426 1 18.8691 15.7242 3.14484 -8.94963
427 1 20.4415 17.2966 4.71726 -8.94963
428 1 22.0139 18.8691 3.14484 -8.94962
429 1 1.57242 20.4415 4.71726 -8.94962
430 1 3.14484 18.8691 3.14484 -8.94965
431 1 4.71727 20.4415 4.71726 -8.94964
432 1 6.28969 18.8691 3.14484 -8.94963
433 1 7.86211 20.4415 4.71726 -8.94964
434 1 9.43453 18.8691 3.14484 -8.94964
435 1 11.007 20.4415 4.71726 -8.94963
436 1 12.5794 18.8691 3.14484 -8.94964
437 1 14.1518 20.4415 4.71727 -8.94965
438 1 15.7242 18.8691 3.14484 -8.94962
439 1 17.2966 20.4415 4.71726 -8.94962
440 1 18.8691 18.8691 3.14484 -8.94963
441 1 20.4415 20.4415 4.71726 -8.94963
442 1 1.57211 11.007 7.86195 -8.94939
443 1 4.71526 11.007 7.85999 -8.94774
444 1 7.86077 11.007 7.85581 -8.99123
445 1 11.0066 11.007 7.86206 -8.94979
446 1 14.152 11.007 7.86182 -8.94868
447 1 17.2967 11.007 7.86208 -8.94961
448 1 20.4415 11.007 7.8621 -8.94965
449 1 -2.0951e-05 12.5794 6.28967 -8.9496
450 1 1.57203 14.152 7.86193 -8.94991
451 1 3.14467 12.5794 6.28952 -8.94962
452 1 4.71398 14.1551 7.85883 -8.93789
453 1 6.28895 12.5801 6.28701 -8.95394
454 1 7.86262 14.1526 7.86034 -8.95118
455 1 9.435 12.5798 6.2886 -8.94924
456 1 11.0082 14.153 7.85917 -8.9526
457 1 12.5795 12.5793 6.28954 -8.94973
458 1 14.1519 14.1518 7.862 -8.95018
459 1 15.7242 12.5794 6.28967 -8.94961
460 1 17.2967 14.1518 7.86209 -8.94962
461 1 18.8691 12.5794 6.28968 -8.94963
462 1 20.4415 14.1518 7.8621 -8.94969
463 1 22.0139 15.7242 6.28966 -8.94962
464 1 1.57241 17.2966 7.86211 -8.94975
465 1 3.14449 15.7246 6.28933 -8.9481
466 1 4.71705 17.2971 7.8619 -8.94973
467 1 6.28972 15.7243 6.28957 -8.95001
468 1 7.8621 17.2969 7.8619 -8.94921
469 1 9.43454 15.7244 6.28946 -8.94921
470 1 11.0069 17.2968 7.86201 -8.95001
471 1 12.5796 15.7244 6.28925 -8.94973
472 1 14.1521 17.297 7.86175 -8.9481
473 1 15.7242 15.7242 6.28968 -8.94975
474 1 17.2967 17.2967 7.86208 -8.94962
475 1 18.8691 15.7242 6.28968 -8.94964
476 1 20.4415 17.2966 7.86211 -8.94964
477 1 22.0139 18.8691 6.28969 -8.94965
478 1 1.57242 20.4415 7.86211 -8.94964
479 1 3.14482 18.8691 6.28966 -8.9496
480 1 4.71725 20.4415 7.86209 -8.94968
481 1 6.28969 18.8691 6.28967 -8.94961
482 1 7.8621 20.4415 7.86209 -8.94962
483 1 9.43453 18.8691 6.28967 -8.94965
484 1 11.0069 20.4415 7.8621 -8.94962
485 1 12.5794 18.8691 6.28968 -8.94976
486 1 14.1518 20.4415 7.86208 -8.94962
487 1 15.7242 18.8691 6.28966 -8.94947
488 1 17.2966 20.4415 7.86211 -8.94965
489 1 18.8691 18.8691 6.28968 -8.94963
490 1 20.4415 20.4415 7.86211 -8.94963
491 1 22.0137 12.5794 9.43449 -8.95021
492 1 3.14206 12.5801 9.43376 -8.95393
493 1 6.26658 12.6008 9.41313 -8.86683
494 1 9.44182 12.5888 9.43044 -8.92046
495 1 12.5808 12.5785 9.43379 -8.95014
496 1 15.7245 12.5793 9.43439 -8.94953
497 1 18.8691 12.5794 9.43452 -8.94969
498 1 22.0139 15.7242 9.43453 -8.94962
499 1 3.1447 15.7243 9.43455 -8.95018
500 1 6.28846 15.7272 9.43336 -8.9526
501 1 9.43401 15.726 9.43372 -8.95118
502 1 12.5827 15.7275 9.43118 -8.93789
503 1 15.7246 15.7244 9.43435 -8.94991
512 1 1.57135 11.007 11.007 -8.95169
513 1 4.70816 11.007 11.0046 -8.97001
514 1 7.77992 11.007 10.8071 -8.07741
515 1 11.0019 11.007 11.0085 -8.90179
516 1 14.1525 11.007 11.0063 -8.9453
517 1 17.2968 11.007 11.0069 -8.94947
518 1 20.4414 11.007 11.007 -8.94987
519 1 1.57216 14.1519 11.007 -8.94953
520 1 4.71584 14.1525 11.0078 -8.95014
521 1 7.85482 14.1559 10.9976 -8.92046
522 1 11.0301 14.1732 10.9856 -8.86683
523 1 14.1546 14.1526 11.0062 -8.95393
524 1 17.2969 14.1518 11.0069 -8.95021
525 1 20.4415 14.1518 11.0069 -8.94969
527 1 4.71715 17.2968 11.0071 -8.94973
528 1 7.86163 17.2977 11.0065 -8.94924
529 1 11.0077 17.2993 11.0063 -8.95394
535 1 7.86206 20.4416 11.0069 -8.94972
534 1 4.71726 20.4415 11.007 -8.94964
351 1 22.0139 12.5794 4.62183e-07 -8.94964
385 1 9.43453 18.8691 5.85867e-07 -8.94964
383 1 6.28969 18.8691 1.38504e-06 -8.94963
363 1 18.8691 12.5794 5.18978e-09 -8.94963
687 3 8.64832 11.007 12.5794 2.47316
686 1 20.4415 20.4415 20.4415 -8.94963
685 1 18.8691 18.8691 18.8691 -8.94963
684 1 17.2966 20.4415 20.4415 -8.94962
683 1 15.7242 18.8691 18.8691 -8.94947
682 1 14.1518 20.4415 20.4415 -8.94965
681 1 12.5794 18.8691 18.8691 -8.94976
680 1 11.007 20.4415 20.4415 -8.94963
679 1 9.43453 18.8691 18.8691 -8.94965
678 1 7.86211 20.4415 20.4415 -8.94964
677 1 6.28969 18.8691 18.8691 -8.94961
676 1 4.71727 20.4415 20.4415 -8.94964
675 1 3.14482 18.8691 18.8691 -8.9496
674 1 1.57242 20.4415 20.4415 -8.94962
526 1 1.5724 17.2967 11.0069 -8.94961
673 1 22.0139 18.8691 18.8691 -8.94965
672 1 20.4415 17.2966 20.4415 -8.94963
671 1 18.8691 15.7242 18.8691 -8.94964
670 1 17.2966 17.2966 20.4415 -8.94965
531 1 17.2967 17.2967 11.0069 -8.9496
532 1 20.4415 17.2966 11.0069 -8.94963
533 1 1.57242 20.4415 11.0069 -8.94963
669 1 15.7242 15.7242 18.8691 -8.94975
668 1 14.1518 17.2967 20.4415 -8.9496
667 1 12.5796 15.7244 18.8695 -8.94973
666 1 11.0069 17.2967 20.4415 -8.94961
665 1 9.43454 15.7244 18.8693 -8.94921
664 1 7.8621 17.2967 20.4415 -8.94965
540 1 1.57135 11.007 14.1517 -8.95169
541 1 4.70816 11.007 14.1542 -8.97001
542 1 7.77992 11.007 14.3516 -8.07741
543 1 11.0019 11.007 14.1502 -8.90179
544 1 14.1525 11.007 14.1525 -8.9453
545 1 17.2968 11.007 14.1519 -8.94947
546 1 20.4414 11.007 14.1518 -8.94987
547 1 22.0137 12.5795 12.5794 -8.94947
548 1 1.57216 14.1519 14.1518 -8.94953
549 1 3.1441 12.58 12.5794 -8.9453
550 1 4.71584 14.1525 14.151 -8.95014
551 1 6.29479 12.5778 12.5794 -8.90179
552 1 7.85482 14.1559 14.1612 -8.92046
553 1 9.51671 12.7792 12.5794 -8.07741
554 1 11.0301 14.1732 14.1732 -8.86683
555 1 12.5885 12.5818 12.5794 -8.97001
556 1 14.1546 14.1526 14.1525 -8.95393
557 1 15.7253 12.5793 12.5794 -8.95169
558 1 17.2969 14.1518 14.1518 -8.95021
559 1 18.8691 12.5794 12.5794 -8.94987
560 1 20.4415 14.1518 14.1518 -8.94969
561 1 -2.83641e-05 15.7242 12.5794 -8.94961
562 1 1.5724 17.2967 14.1518 -8.94961
563 1 3.14462 15.7245 12.5794 -8.94868
564 1 4.71715 17.2968 14.1517 -8.94973
565 1 6.29002 15.7243 12.5794 -8.94979
566 1 7.86163 17.2977 14.1522 -8.94924
567 1 9.43587 15.7305 12.5794 -8.99123
568 1 11.0077 17.2993 14.1525 -8.95394
569 1 12.5814 15.7263 12.5794 -8.94774
570 1 14.152 17.2968 14.1518 -8.94962
571 1 15.7245 15.7244 12.5794 -8.94939
572 1 17.2967 17.2967 14.1518 -8.9496
573 1 18.8691 15.7242 12.5794 -8.94965
574 1 20.4415 17.2966 14.1518 -8.94963
575 1 22.0139 18.8691 12.5794 -8.94964
576 1 1.57242 20.4415 14.1518 -8.94963
577 1 3.14482 18.8691 12.5794 -8.94961
578 1 4.71726 20.4415 14.1518 -8.94964
579 1 6.28964 18.8691 12.5794 -8.94937
580 1 7.86206 20.4416 14.1518 -8.94972
581 1 9.43445 18.8702 12.5794 -8.95089
582 1 11.007 20.4417 14.1518 -8.95021
583 1 12.5795 18.8694 12.5794 -8.9494
584 1 14.1518 20.4415 14.1518 -8.9496
585 1 15.7242 18.8691 12.5794 -8.94969
586 1 17.2966 20.4415 14.1518 -8.94964
587 1 18.8691 18.8691 12.5794 -8.94964
588 1 20.4415 20.4415 14.1518 -8.94963
589 1 1.57211 11.007 17.2968 -8.94939
590 1 4.71526 11.007 17.2988 -8.94774
591 1 7.86077 11.007 17.3029 -8.99123
592 1 11.0066 11.007 17.2967 -8.94979
593 1 14.152 11.007 17.2969 -8.94868
594 1 17.2967 11.007 17.2967 -8.94961
595 1 20.4415 11.007 17.2966 -8.94965
596 1 22.0137 12.5794 15.7243 -8.95021
597 1 1.57203 14.152 17.2968 -8.94991
598 1 3.14206 12.5801 15.725 -8.95393
599 1 4.71398 14.1551 17.2999 -8.93789
600 1 6.26658 12.6008 15.7456 -8.86683
601 1 7.86262 14.1526 17.2984 -8.95118
602 1 9.44182 12.5888 15.7283 -8.92046
603 1 11.0082 14.153 17.2996 -8.9526
604 1 12.5808 12.5785 15.725 -8.95014
605 1 14.1519 14.1518 17.2967 -8.95018
606 1 15.7245 12.5793 15.7244 -8.94953
607 1 17.2967 14.1518 17.2967 -8.94962
608 1 18.8691 12.5794 15.7242 -8.94969
609 1 20.4415 14.1518 17.2966 -8.94969
610 1 22.0139 15.7242 15.7242 -8.94962
611 1 1.57241 17.2966 17.2966 -8.94975
612 1 3.1447 15.7243 15.7242 -8.95018
613 1 4.71705 17.2971 17.2968 -8.94973
614 1 6.28846 15.7272 15.7254 -8.9526
615 1 7.8621 17.2969 17.2968 -8.94921
616 1 9.43401 15.726 15.725 -8.95118
617 1 11.0069 17.2968 17.2967 -8.95001
618 1 12.5827 15.7275 15.7276 -8.93789
619 1 14.1521 17.297 17.297 -8.9481
620 1 15.7246 15.7244 15.7244 -8.94991
621 1 17.2967 17.2967 17.2967 -8.94962
622 1 18.8691 15.7242 15.7242 -8.94969
623 1 20.4415 17.2966 17.2966 -8.94964
624 1 -7.38465e-07 18.8691 15.7242 -8.94963
625 1 1.57242 20.4415 17.2966 -8.94964
626 1 3.14483 18.8691 15.7242 -8.94966
627 1 4.71725 20.4415 17.2967 -8.94968
628 1 6.28959 18.8694 15.7243 -8.95015
629 1 7.8621 20.4415 17.2967 -8.94962
630 1 9.43446 18.8693 15.7243 -8.9496
631 1 11.0069 20.4415 17.2966 -8.94962
632 1 12.5796 18.8695 15.7244 -8.94994
633 1 14.1518 20.4415 17.2967 -8.94962
634 1 15.7242 18.8691 15.7242 -8.94972
635 1 17.2966 20.4415 17.2966 -8.94965
636 1 18.8691 18.8691 15.7242 -8.94963
637 1 20.4415 20.4415 17.2966 -8.94963
638 1 1.57241 11.007 20.4415 -8.94969
639 1 4.7171 11.007 20.4418 -8.9494
640 1 7.86219 11.007 20.4426 -8.95089
641 1 11.007 11.007 20.4416 -8.94937
642 1 14.1518 11.007 20.4415 -8.94961
643 1 17.2966 11.007 20.4415 -8.94964
644 1 20.4415 11.007 20.4415 -8.94964
645 1 -2.0951e-05 12.5794 18.8691 -8.9496
646 1 1.57241 14.1518 20.4415 -8.94972
647 1 3.14467 12.5794 18.8692 -8.94962
648 1 4.71708 14.152 20.4419 -8.94994
649 1 6.28895 12.5801 18.8717 -8.95394
650 1 7.86218 14.1519 20.4417 -8.9496
651 1 9.435 12.5798 18.8701 -8.94924
652 1 11.007 14.1519 20.4418 -8.95015
653 1 12.5795 12.5793 18.8692 -8.94973
654 1 14.1518 14.1518 20.4415 -8.94966
655 1 15.7242 12.5794 18.8691 -8.94961
656 1 17.2966 14.1518 20.4415 -8.94963
657 1 18.8691 12.5794 18.8691 -8.94963
658 1 20.4415 14.1518 20.4415 -8.94963
659 1 22.0139 15.7242 18.8691 -8.94962
660 1 1.57239 17.2967 20.4415 -8.94947
661 1 3.14449 15.7246 18.8694 -8.9481
662 1 4.71727 17.2966 20.4415 -8.94976
663 1 6.28972 15.7243 18.8692 -8.95001
371 1 9.43453 15.7242 22.0139 -8.94962
353 1 3.14483 12.5794 22.0139 -8.9496
361 1 15.7242 12.5794 22.0139 -8.94963
369 1 6.28969 15.7242 22.0139 -8.94962
365 1 3.01502e-07 15.7242 22.0139 -8.94965
381 1 3.14484 18.8691 22.0139 -8.94965
387 1 12.5794 18.8691 22.0139 -8.94964
537 1 14.1518 20.4415 11.0069 -8.9496
530 1 14.152 17.2968 11.0069 -8.94962
