ITEM: TIMESTEP
83
ITEM: NUMBER OF ATOMS
687
ITEM: BOX BOUNDS pp pp pp
0.0000000000000000e+00 2.2013900999999997e+01
0.0000000000000000e+00 2.2013900999999997e+01
0.0000000000000000e+00 2.2013900999999997e+01
ITEM: ATOMS id type x y z c_pot
1 1 22.0137 8.66061e-16 0.000186907 -8.94943
2 1 1.5722 1.5722 1.57242 -8.94963
196 1 20.4414 7.86181 11.007 -8.9499
4 1 4.71714 1.57219 1.57242 -8.94954
5 1 6.2896 -8.87317e-16 0.000217894 -8.94956
6 1 7.86209 1.57218 1.57242 -8.94957
175 1 18.8691 9.43458 9.43423 -8.9499
8 1 11.007 1.5722 1.57242 -8.94956
9 1 12.5795 -5.98124e-16 0.000227004 -8.94954
10 1 14.152 1.57224 1.57242 -8.94958
195 1 17.299 7.86177 11.0067 -8.95177
12 1 17.2968 1.57223 1.57242 -8.94943
13 1 18.8692 1.61984e-15 0.000136991 -8.94933
14 1 20.4413 1.57228 1.57242 -8.94933
15 1 22.0134 3.14438 0.000275934 -8.9492
16 1 1.57178 4.71661 1.57242 -8.94954
194 1 14.1619 7.85832 11.0045 -8.95824
18 1 4.71703 4.71664 1.57242 -8.9496
174 1 15.7256 9.43524 9.43397 -8.94975
20 1 7.86217 4.71665 1.57242 -8.94955
173 1 12.5825 9.43702 9.43402 -8.9529
22 1 11.0072 4.71675 1.57242 -8.94952
193 1 11.0476 7.8252 10.9737 -8.85412
24 1 14.1522 4.71691 1.57242 -8.95003
25 1 15.7247 3.14442 0.000465202 -8.94949
26 1 17.2967 4.71719 1.57242 -8.94971
27 1 18.8691 3.14466 0.000198885 -8.9496
28 1 20.4412 4.71706 1.57242 -8.94957
192 1 7.8475 7.85443 10.9833 -8.90456
30 1 1.57166 7.8617 1.57242 -8.94941
31 1 3.14388 6.28868 0.00109211 -8.95
32 1 4.7168 7.86158 1.57242 -8.95064
172 1 9.44913 9.41087 9.42685 -8.90456
34 1 7.86237 7.8617 1.57242 -8.95023
171 1 6.24906 9.40128 9.39763 -8.85412
36 1 11.0072 7.86207 1.57242 -8.95039
37 1 12.5799 6.28933 0.000938545 -8.95065
38 1 14.1521 7.86217 1.57242 -8.94954
39 1 15.7245 6.28968 0.000294371 -8.94972
40 1 17.2968 7.86206 1.57242 -8.94955
41 1 18.869 6.28957 0.000184999 -8.94953
42 1 20.4412 7.86197 1.57242 -8.94956
170 1 3.1347 9.43207 9.43074 -8.95824
169 1 22.0115 9.43425 9.43419 -8.95177
45 1 6.28949 9.4344 0.00161259 -8.95142
46 1 9.43469 9.43465 0.000525573 -8.94943
47 1 12.5797 9.43467 0.000335304 -8.94937
168 1 18.8699 6.28923 9.43417 -8.95021
167 1 15.7285 6.28767 9.43248 -8.95089
50 1 22.0137 6.00584e-16 3.14466 -8.94943
51 1 1.57196 1.57196 4.71684 -8.94949
52 1 3.14468 -7.02837e-16 3.14466 -8.94958
53 1 4.71702 1.572 4.71683 -8.9495
54 1 6.2896 -8.69972e-16 3.14463 -8.94956
55 1 7.86203 1.57202 4.71674 -8.94953
56 1 9.43455 -1.03435e-15 3.14461 -8.94957
57 1 11.0071 1.57204 4.71673 -8.94949
58 1 12.5795 -9.2645e-16 3.14462 -8.94954
59 1 14.1521 1.57205 4.71671 -8.94964
60 1 15.7244 -6.75571e-16 3.14462 -8.94963
61 1 17.2971 1.57215 4.71681 -8.9492
62 1 18.8692 1.57717e-15 3.14471 -8.94933
63 1 20.4415 1.57222 4.71708 -8.9496
64 1 22.0134 3.14438 3.14457 -8.9492
65 1 1.57105 4.71589 4.71609 -8.94823
66 1 3.14449 3.14429 3.14447 -8.94964
67 1 4.71659 4.71598 4.71597 -8.94965
68 1 6.28957 3.14431 3.14446 -8.94949
69 1 7.86206 4.71613 4.71599 -8.94937
70 1 9.43461 3.14432 3.14444 -8.94953
71 1 11.0074 4.71627 4.71593 -8.94914
72 1 12.5796 3.14441 3.14443 -8.9495
73 1 14.153 4.71621 4.71559 -8.94944
74 1 15.7247 3.14442 3.14438 -8.94949
75 1 17.297 4.71702 4.71676 -8.94985
76 1 18.8691 3.14466 3.14464 -8.9496
77 1 20.4411 4.71685 4.71687 -8.94956
78 1 -0.000606033 6.28929 3.14448 -8.94951
79 1 1.57093 7.86131 4.71595 -8.94922
80 1 3.14388 6.28868 3.14375 -8.95
81 1 4.71547 7.86045 4.71362 -8.95154
82 1 6.28956 6.28889 3.14384 -8.94968
83 1 7.86232 7.86103 4.71456 -8.95056
84 1 9.43486 6.28896 3.14392 -8.94962
85 1 11.0074 7.86181 4.71508 -8.95249
86 1 12.5799 6.28933 3.1439 -8.95065
87 1 14.1522 7.86233 4.71656 -8.94964
88 1 15.7245 6.28968 3.14455 -8.94972
89 1 17.2968 7.86206 4.71684 -8.94943
90 1 18.869 6.28957 3.14466 -8.94953
91 1 20.441 7.86186 4.71679 -8.94947
92 1 22.0132 9.43438 3.14445 -8.94951
93 1 3.14368 9.43412 3.14366 -8.94939
94 1 6.28949 9.4344 3.14323 -8.95142
95 1 9.43469 9.43465 3.14432 -8.94943
96 1 12.5797 9.43467 3.14451 -8.94937
97 1 15.7245 9.43453 3.14455 -8.94956
98 1 18.869 9.43448 3.14463 -8.94957
99 1 22.0138 1.53807e-15 6.28961 -8.94971
100 1 1.57217 1.57213 7.8621 -8.94972
101 1 3.14441 1.94477e-15 6.28933 -8.95003
102 1 4.71675 1.57148 7.86175 -8.95065
103 1 6.28941 1.10127e-15 6.28917 -8.94952
104 1 7.86177 1.5715 7.86138 -8.94962
105 1 9.43447 -5.95659e-16 6.28907 -8.94955
106 1 11.0071 1.57142 7.86132 -8.94968
107 1 12.5796 -3.15108e-15 6.28907 -8.9496
108 1 14.1528 1.57133 7.8611 -8.95
109 1 15.7249 -1.33843e-16 6.28903 -8.94954
110 1 17.2972 1.57206 7.86171 -8.94951
111 1 18.8693 1.85187e-15 6.28949 -8.94957
112 1 20.4416 1.57224 7.86199 -8.94953
113 1 22.0136 3.14434 6.28944 -8.94985
114 1 1.57135 4.71621 7.8618 -8.95039
115 1 3.14367 3.14316 6.28863 -8.94944
116 1 4.71437 4.7127 7.85944 -8.94989
117 1 6.28927 3.14351 6.28869 -8.94914
118 1 7.86153 4.71406 7.85967 -8.94776
119 1 9.43458 3.14357 6.28856 -8.94937
120 1 11.0082 4.71375 7.85945 -8.94918
121 1 12.58 3.14355 6.2884 -8.94965
122 1 14.156 4.71327 7.85797 -8.94455
123 1 15.7256 3.14367 6.28831 -8.94823
124 1 17.2982 4.71634 7.86111 -8.94968
125 1 18.8695 3.14445 6.28927 -8.94956
126 1 20.4415 4.71683 7.86188 -8.94985
127 1 22.0124 6.28869 6.28877 -8.94968
128 1 1.56816 7.86006 7.86009 -8.95089
129 1 3.14061 6.28555 6.28569 -8.94455
130 1 4.70435 7.85017 7.84963 -8.92995
131 1 6.28842 6.28703 6.28617 -8.94918
132 1 7.86126 7.85703 7.85341 -8.95093
133 1 9.4351 6.28725 6.28648 -8.94776
134 1 11.0132 7.8555 7.85174 -8.95329
135 1 12.5823 6.28702 6.28512 -8.94989
136 1 14.154 7.86209 7.86051 -8.95164
137 1 15.7253 6.28938 6.28863 -8.95039
138 1 17.2973 7.86216 7.86157 -8.94982
139 1 18.869 6.28946 6.28925 -8.94985
140 1 20.4406 7.86175 7.86165 -8.95021
141 1 -0.00165808 9.43414 6.28864 -8.94929
142 1 3.14099 9.43314 6.28599 -8.94763
143 1 6.2866 9.43316 6.28161 -8.95924
144 1 9.43395 9.43445 6.28816 -8.9518
145 1 12.5797 9.43529 6.28898 -8.94893
146 1 15.7249 9.43457 6.28885 -8.94899
147 1 18.8689 9.43443 6.28914 -8.94956
148 1 -0.00011787 1.97904e-15 9.43448 -8.94955
149 1 3.14456 5.39622e-16 9.43459 -8.94954
150 1 6.28945 -1.39461e-15 9.43449 -8.95039
151 1 9.43426 1.483e-14 9.43412 -8.95023
152 1 12.5798 1.41288e-17 9.434 -8.95064
153 1 15.725 -7.80988e-16 9.43413 -8.94941
154 1 18.8694 1.93076e-15 9.4344 -8.94956
155 1 -0.000197373 3.14442 9.43448 -8.94943
156 1 3.14441 3.14414 9.43475 -8.94964
157 1 6.28925 3.14266 9.43423 -8.95249
158 1 9.43432 3.14213 9.43345 -8.95056
159 1 12.5812 3.1412 9.43287 -8.95154
160 1 15.7257 3.14353 9.43373 -8.94922
161 1 18.8696 3.14437 9.43428 -8.94947
162 1 22.0132 6.28915 9.43459 -8.94982
163 1 3.1426 6.28809 9.43452 -8.95164
164 1 6.28345 6.27932 9.42792 -8.95329
165 1 9.43538 6.28099 9.42945 -8.95093
166 1 12.5923 6.27721 9.42259 -8.92995
177 1 4.71693 1.57209 11.0071 -8.94937
178 1 7.86195 1.5719 11.0071 -8.94943
179 1 11.0071 1.57081 11.0068 -8.95142
191 1 4.71413 7.8616 11.0094 -8.9529
181 1 17.2973 1.57202 11.0068 -8.94951
182 1 20.4416 1.57221 11.0069 -8.94957
184 1 4.71689 4.71656 11.0077 -8.94893
185 1 7.86269 4.71574 11.0069 -8.9518
186 1 11.01 4.70919 11.0056 -8.95924
190 1 1.571 7.86155 11.0077 -8.94975
19 1 6.28957 3.14431 0.000380264 -8.94949
49 1 18.869 9.43448 0.000214966 -8.94957
21 1 9.43461 3.14432 0.000403314 -8.94953
43 1 22.0132 9.43438 0.000396836 -8.94951
176 1 1.57211 1.57212 11.0069 -8.94956
343 1 18.8689 9.43443 18.8696 -8.94956
342 1 15.7249 9.43457 18.8699 -8.94899
341 1 12.5797 9.43529 18.8698 -8.94893
340 1 9.43395 9.43445 18.8706 -8.9518
339 1 6.2866 9.43316 18.8771 -8.95924
338 1 3.14099 9.43314 18.8728 -8.94763
183 1 1.57172 4.71643 11.007 -8.94899
337 1 -0.00165808 9.43414 18.8701 -8.94929
336 1 20.441 7.86186 20.442 -8.94947
335 1 18.869 6.28946 18.8695 -8.94985
334 1 17.2968 7.86206 20.4419 -8.94943
188 1 17.2983 4.71622 11.0066 -8.94929
189 1 20.4416 4.71672 11.0069 -8.94956
333 1 15.7253 6.28938 18.8701 -8.95039
332 1 14.1522 7.86233 20.4422 -8.94964
331 1 12.5823 6.28702 18.8736 -8.94989
330 1 11.0074 7.86181 20.4437 -8.95249
329 1 9.4351 6.28725 18.8723 -8.94776
328 1 7.86232 7.86103 20.4442 -8.95056
327 1 6.28842 6.28703 18.8726 -8.94918
197 1 -0.000135693 1.4466e-15 12.5794 -8.94959
198 1 1.57211 1.57212 14.1518 -8.94956
199 1 3.14448 1.19592e-16 12.5794 -8.94967
200 1 4.71693 1.57209 14.1517 -8.94937
201 1 6.28935 1.85015e-14 12.5794 -8.94917
202 1 7.86195 1.5719 14.1517 -8.94943
203 1 9.43428 5.24887e-14 12.5794 -8.94854
204 1 11.0071 1.57081 14.1519 -8.95142
205 1 12.5801 1.07725e-14 12.5794 -8.95032
206 1 14.153 1.57124 14.1522 -8.94939
207 1 15.725 4.91928e-17 12.5794 -8.94948
208 1 17.2973 1.57202 14.1519 -8.94951
209 1 18.8694 1.50469e-15 12.5794 -8.94957
210 1 20.4416 1.57221 14.1518 -8.94957
211 1 22.0137 3.14437 12.5794 -8.94958
212 1 1.57172 4.71643 14.1518 -8.94899
213 1 3.14431 3.14412 12.5794 -8.94965
214 1 4.71689 4.71656 14.151 -8.94893
215 1 6.28951 3.14472 12.5794 -8.94823
216 1 7.86269 4.71574 14.1519 -8.9518
217 1 9.43466 3.144 12.5794 -8.94638
218 1 11.01 4.70919 14.1532 -8.95924
219 1 12.5818 3.14103 12.5794 -8.94956
220 1 14.1556 4.71357 14.1532 -8.94763
221 1 15.7258 3.14349 12.5794 -8.94947
222 1 17.2983 4.71622 14.1522 -8.94929
223 1 18.8696 3.14434 12.5794 -8.94953
224 1 20.4416 4.71672 14.1519 -8.94956
225 1 -0.000588097 6.2889 12.5794 -8.94954
226 1 1.571 7.86155 14.1511 -8.94975
227 1 3.1434 6.28808 12.5794 -8.94649
228 1 4.71413 7.8616 14.1493 -8.9529
229 1 6.29184 6.29213 12.5794 -8.94515
230 1 7.8475 7.85443 14.1755 -8.90456
231 1 9.43968 6.29327 12.5794 -9.00332
232 1 11.0476 7.8252 14.185 -8.85412
233 1 12.59 6.27965 12.5794 -8.94211
234 1 14.1619 7.85832 14.1543 -8.95824
235 1 15.7287 6.28733 12.5794 -8.94906
236 1 17.299 7.86177 14.1521 -8.95177
237 1 18.8701 6.28906 12.5794 -8.94996
238 1 20.4414 7.86181 14.1517 -8.9499
239 1 22.0135 9.43424 12.5794 -8.94769
240 1 3.14724 9.43508 12.5794 -8.93978
241 1 6.31241 9.44452 12.5794 -8.90204
242 1 9.51223 9.20291 12.5794 -8.12066
243 1 12.5872 9.42698 12.5794 -8.97292
244 1 15.7266 9.43491 12.5794 -8.95112
245 1 18.8696 9.43461 12.5794 -8.94944
246 1 -0.00011787 1.62472e-15 15.7243 -8.94955
247 1 1.57217 1.57213 17.2966 -8.94972
248 1 3.14456 6.69723e-16 15.7242 -8.94954
249 1 4.71675 1.57148 17.297 -8.95065
250 1 6.28945 -1.94341e-15 15.7242 -8.95039
251 1 7.86177 1.5715 17.2974 -8.94962
252 1 9.43426 1.48095e-14 15.7246 -8.95023
253 1 11.0071 1.57142 17.2974 -8.94968
254 1 12.5798 -6.87909e-17 15.7247 -8.95064
255 1 14.1528 1.57133 17.2976 -8.95
256 1 15.725 -8.59398e-16 15.7246 -8.94941
257 1 17.2972 1.57206 17.297 -8.94951
258 1 18.8694 1.61678e-15 15.7243 -8.94956
259 1 20.4416 1.57224 17.2968 -8.94953
260 1 -0.000197373 3.14442 15.7243 -8.94943
261 1 1.57135 4.71621 17.2969 -8.95039
262 1 3.14441 3.14414 15.724 -8.94964
263 1 4.71437 4.7127 17.2993 -8.94989
264 1 6.28925 3.14266 15.7245 -8.95249
265 1 7.86153 4.71406 17.2991 -8.94776
266 1 9.43432 3.14213 15.7253 -8.95056
267 1 11.0082 4.71375 17.2993 -8.94918
268 1 12.5812 3.1412 15.7259 -8.95154
269 1 14.156 4.71327 17.3008 -8.94455
270 1 15.7257 3.14353 15.725 -8.94922
271 1 17.2982 4.71634 17.2976 -8.94968
272 1 18.8696 3.14437 15.7245 -8.94947
273 1 20.4415 4.71683 17.2969 -8.94985
274 1 22.0132 6.28915 15.7242 -8.94982
275 1 1.56816 7.86006 17.2987 -8.95089
276 1 3.1426 6.28809 15.7242 -8.95164
277 1 4.70435 7.85017 17.3091 -8.92995
278 1 6.28345 6.27932 15.7308 -8.95329
279 1 7.86126 7.85703 17.3053 -8.95093
280 1 9.43538 6.28099 15.7293 -8.95093
281 1 11.0132 7.8555 17.307 -8.95329
282 1 12.5923 6.27721 15.7362 -8.92995
283 1 14.154 7.86209 17.2982 -8.95164
284 1 15.7285 6.28767 15.7263 -8.95089
285 1 17.2973 7.86216 17.2972 -8.94982
286 1 18.8699 6.28923 15.7246 -8.95021
287 1 20.4406 7.86175 17.2971 -8.95021
288 1 22.0115 9.43425 15.7245 -8.95177
289 1 3.1347 9.43207 15.728 -8.95824
290 1 6.24906 9.40128 15.7611 -8.85412
291 1 9.44913 9.41087 15.7319 -8.90456
292 1 12.5825 9.43702 15.7247 -8.9529
293 1 15.7256 9.43524 15.7248 -8.94975
294 1 18.8691 9.43458 15.7245 -8.9499
295 1 22.0138 1.6843e-15 18.8691 -8.94971
296 1 1.57196 1.57196 20.4419 -8.94949
297 1 3.14441 1.86466e-15 18.8694 -8.95003
298 1 4.71702 1.572 20.4419 -8.9495
299 1 6.28941 9.25799e-16 18.8696 -8.94952
300 1 7.86203 1.57202 20.442 -8.94953
301 1 9.43447 -1.20972e-16 18.8697 -8.94955
302 1 11.0071 1.57204 20.442 -8.94949
303 1 12.5796 -2.08748e-15 18.8697 -8.9496
304 1 14.1521 1.57205 20.442 -8.94964
305 1 15.7249 8.18367e-17 18.8697 -8.94954
306 1 17.2971 1.57215 20.4419 -8.9492
307 1 18.8693 1.43574e-15 18.8693 -8.94957
308 1 20.4415 1.57222 20.4417 -8.9496
309 1 22.0136 3.14434 18.8693 -8.94985
310 1 1.57105 4.71589 20.4427 -8.94823
311 1 3.14367 3.14316 18.8701 -8.94944
312 1 4.71659 4.71598 20.4428 -8.94965
313 1 6.28927 3.14351 18.8701 -8.94914
314 1 7.86206 4.71613 20.4428 -8.94937
315 1 9.43458 3.14357 18.8702 -8.94937
316 1 11.0074 4.71627 20.4428 -8.94914
317 1 12.58 3.14355 18.8703 -8.94965
318 1 14.153 4.71621 20.4432 -8.94944
319 1 15.7256 3.14367 18.8704 -8.94823
320 1 17.297 4.71702 20.442 -8.94985
321 1 18.8695 3.14445 18.8695 -8.94956
322 1 20.4411 4.71685 20.4419 -8.94956
323 1 22.0124 6.28869 18.87 -8.94968
324 1 1.57093 7.86131 20.4428 -8.94922
325 1 3.14061 6.28555 18.8731 -8.94455
326 1 4.71547 7.86045 20.4451 -8.95154
7 1 9.43455 -7.33329e-16 22.0141 -8.94957
48 1 15.7245 9.43453 22.0142 -8.94956
44 1 3.14368 9.43412 22.0151 -8.94939
33 1 6.28956 6.28889 22.0149 -8.94968
35 1 9.43486 6.28896 22.0148 -8.94962
3 1 3.14468 -6.87364e-16 22.0141 -8.94958
11 1 15.7244 -5.59005e-16 22.0141 -8.94963
17 1 3.14449 3.14429 22.0143 -8.94964
23 1 12.5796 3.14441 22.0143 -8.9495
29 1 -0.000606033 6.28929 22.0143 -8.94951
180 1 14.153 1.57124 11.0065 -8.94939
187 1 14.1556 4.71357 11.0056 -8.94763
344 1 1.5716 11.007 1.57242 -8.94948
345 1 4.7165 11.007 1.57242 -8.95032
346 1 7.86236 11.007 1.57242 -8.94854
347 1 11.0073 11.007 1.57242 -8.94917
348 1 14.1522 11.007 1.57242 -8.94967
349 1 17.2968 11.007 1.57242 -8.94959
350 1 20.4412 11.007 1.57242 -8.94957
511 1 18.8696 18.8695 9.43428 -8.94947
352 1 1.57166 14.1522 1.57242 -8.94941
510 1 15.7257 18.8704 9.43373 -8.94922
354 1 4.7168 14.1523 1.57242 -8.95064
355 1 6.28949 12.5795 0.00161259 -8.95142
356 1 7.86237 14.1522 1.57242 -8.95023
357 1 9.43469 12.5792 0.000525573 -8.94943
358 1 11.0072 14.1518 1.57242 -8.95039
359 1 12.5797 12.5792 0.000335304 -8.94937
360 1 14.1521 14.1517 1.57242 -8.94954
509 1 12.5812 18.8727 9.43287 -8.95154
362 1 17.2968 14.1518 1.57242 -8.94955
508 1 9.43432 18.8718 9.43345 -8.95056
364 1 20.4412 14.1519 1.57242 -8.94956
539 1 20.4416 20.4417 11.0069 -8.94957
366 1 1.57178 17.2973 1.57242 -8.94954
367 1 3.14388 15.7252 0.00109211 -8.95
368 1 4.71703 17.2973 1.57242 -8.9496
507 1 6.28925 18.8712 9.43423 -8.95249
370 1 7.86217 17.2972 1.57242 -8.94955
506 1 3.14441 18.8698 9.43475 -8.94964
372 1 11.0072 17.2971 1.57242 -8.94952
373 1 12.5799 15.7246 0.000938545 -8.95065
374 1 14.1522 17.297 1.57242 -8.95003
375 1 15.7245 15.7242 0.000294371 -8.94972
376 1 17.2967 17.2967 1.57242 -8.94971
377 1 18.869 15.7243 0.000184999 -8.94953
378 1 20.4412 17.2968 1.57242 -8.94957
379 1 22.0134 18.8695 0.000275934 -8.9492
380 1 1.5722 20.4417 1.57242 -8.94963
538 1 17.2973 20.4419 11.0068 -8.94951
382 1 4.71714 20.4417 1.57242 -8.94954
505 1 -0.000197373 18.8695 9.43448 -8.94943
384 1 7.86209 20.4417 1.57242 -8.94957
504 1 18.8699 15.7247 9.43417 -8.95021
386 1 11.007 20.4417 1.57242 -8.94956
536 1 11.0071 20.4431 11.0068 -8.95142
388 1 14.152 20.4417 1.57242 -8.94958
389 1 15.7247 18.8695 0.000465202 -8.94949
390 1 17.2968 20.4417 1.57242 -8.94943
391 1 18.8691 18.8692 0.000198885 -8.9496
392 1 20.4413 20.4416 1.57242 -8.94933
393 1 1.57085 11.007 4.71591 -8.94947
394 1 4.71487 11.007 4.71345 -8.94956
395 1 7.86198 11.007 4.71642 -8.94638
396 1 11.0071 11.007 4.71714 -8.94823
397 1 14.1523 11.007 4.71654 -8.94965
398 1 17.2968 11.007 4.71679 -8.94958
399 1 20.4409 11.007 4.71676 -8.94953
400 1 22.0132 12.5795 3.14445 -8.94951
401 1 1.57093 14.1526 4.71595 -8.94922
402 1 3.14368 12.5798 3.14366 -8.94939
403 1 4.71547 14.1534 4.71362 -8.95154
404 1 6.28949 12.5795 3.14323 -8.95142
405 1 7.86232 14.1529 4.71456 -8.95056
406 1 9.43469 12.5792 3.14432 -8.94943
407 1 11.0074 14.1521 4.71508 -8.95249
408 1 12.5797 12.5792 3.14451 -8.94937
409 1 14.1522 14.1516 4.71656 -8.94964
410 1 15.7245 12.5794 3.14455 -8.94956
411 1 17.2968 14.1518 4.71684 -8.94943
412 1 18.869 12.5794 3.14463 -8.94957
413 1 20.441 14.152 4.71679 -8.94947
414 1 -0.000606033 15.7246 3.14448 -8.94951
415 1 1.57105 17.298 4.71609 -8.94823
416 1 3.14388 15.7252 3.14375 -8.95
417 1 4.71659 17.2979 4.71597 -8.94965
418 1 6.28956 15.725 3.14384 -8.94968
419 1 7.86206 17.2978 4.71599 -8.94937
420 1 9.43486 15.7249 3.14392 -8.94962
421 1 11.0074 17.2976 4.71593 -8.94914
422 1 12.5799 15.7246 3.1439 -8.95065
423 1 14.153 17.2977 4.71559 -8.94944
424 1 15.7245 15.7242 3.14455 -8.94972
425 1 17.297 17.2969 4.71676 -8.94985
426 1 18.869 15.7243 3.14466 -8.94953
427 1 20.4411 17.297 4.71687 -8.94956
428 1 22.0134 18.8695 3.14457 -8.9492
429 1 1.57196 20.4419 4.71684 -8.94949
430 1 3.14449 18.8696 3.14447 -8.94964
431 1 4.71702 20.4419 4.71683 -8.9495
432 1 6.28957 18.8696 3.14446 -8.94949
433 1 7.86203 20.4419 4.71674 -8.94953
434 1 9.43461 18.8696 3.14444 -8.94953
435 1 11.0071 20.4419 4.71673 -8.94949
436 1 12.5796 18.8695 3.14443 -8.9495
437 1 14.1521 20.4419 4.71671 -8.94964
438 1 15.7247 18.8695 3.14438 -8.94949
439 1 17.2971 20.4418 4.71681 -8.9492
440 1 18.8691 18.8692 3.14464 -8.9496
441 1 20.4415 20.4417 4.71708 -8.9496
442 1 1.56798 11.007 7.85975 -8.94906
443 1 4.70666 11.007 7.85207 -8.94211
444 1 7.85696 11.007 7.86569 -9.00332
445 1 11.0048 11.007 7.86456 -8.94515
446 1 14.1532 11.007 7.86051 -8.94649
447 1 17.2972 11.007 7.86132 -8.94954
448 1 20.4404 11.007 7.86148 -8.94996
449 1 -0.00165808 12.5798 6.28864 -8.94929
450 1 1.56816 14.1538 7.86009 -8.95089
451 1 3.14099 12.5808 6.28599 -8.94763
452 1 4.70435 14.1637 7.84963 -8.92995
453 1 6.2866 12.5807 6.28161 -8.95924
454 1 7.86126 14.1569 7.85341 -8.95093
455 1 9.43395 12.5795 6.28816 -8.9518
456 1 11.0132 14.1584 7.85174 -8.95329
457 1 12.5797 12.5786 6.28898 -8.94893
458 1 14.154 14.1518 7.86051 -8.95164
459 1 15.7249 12.5793 6.28885 -8.94899
460 1 17.2973 14.1517 7.86157 -8.94982
461 1 18.8689 12.5795 6.28914 -8.94956
462 1 20.4406 14.1522 7.86165 -8.95021
463 1 22.0124 15.7252 6.28877 -8.94968
464 1 1.57135 17.2977 7.8618 -8.95039
465 1 3.14061 15.7283 6.28569 -8.94455
466 1 4.71437 17.3012 7.85944 -8.94989
467 1 6.28842 15.7269 6.28617 -8.94918
468 1 7.86153 17.2998 7.85967 -8.94776
469 1 9.4351 15.7267 6.28648 -8.94776
470 1 11.0082 17.3002 7.85945 -8.94918
471 1 12.5823 15.7269 6.28512 -8.94989
472 1 14.156 17.3006 7.85797 -8.94455
473 1 15.7253 15.7245 6.28863 -8.95039
474 1 17.2982 17.2976 7.86111 -8.94968
475 1 18.869 15.7244 6.28925 -8.94985
476 1 20.4415 17.2971 7.86188 -8.94985
477 1 22.0136 18.8696 6.28944 -8.94985
478 1 1.57217 20.4418 7.8621 -8.94972
479 1 3.14367 18.8707 6.28863 -8.94944
480 1 4.71675 20.4424 7.86175 -8.95065
481 1 6.28927 18.8704 6.28869 -8.94914
482 1 7.86177 20.4424 7.86138 -8.94962
483 1 9.43458 18.8703 6.28856 -8.94937
484 1 11.0071 20.4425 7.86132 -8.94968
485 1 12.58 18.8704 6.2884 -8.94965
486 1 14.1528 20.4426 7.8611 -8.95
487 1 15.7256 18.8702 6.28831 -8.94823
488 1 17.2972 20.4418 7.86171 -8.94951
489 1 18.8695 18.8695 6.28927 -8.94956
490 1 20.4416 20.4417 7.86199 -8.94953
491 1 22.0115 12.5797 9.43419 -8.95177
492 1 3.1347 12.5818 9.43074 -8.95824
493 1 6.24906 12.6126 9.39763 -8.85412
494 1 9.44913 12.603 9.42685 -8.90456
495 1 12.5825 12.5769 9.43402 -8.9529
496 1 15.7256 12.5787 9.43397 -8.94975
497 1 18.8691 12.5793 9.43423 -8.9499
498 1 22.0132 15.7248 9.43459 -8.94982
499 1 3.1426 15.7258 9.43452 -8.95164
500 1 6.28345 15.7346 9.42792 -8.95329
501 1 9.43538 15.7329 9.42945 -8.95093
502 1 12.5923 15.7367 9.42259 -8.92995
503 1 15.7285 15.7262 9.43248 -8.95089
512 1 1.57003 11.007 11.0073 -8.95112
513 1 4.70945 11.007 10.9994 -8.97292
514 1 7.7844 11.007 10.7753 -8.12066
515 1 10.9842 11.007 11.0169 -8.90204
516 1 14.1494 11.007 11.0075 -8.93978
517 1 17.297 11.007 11.0067 -8.94769
518 1 20.4409 11.007 11.007 -8.94944
519 1 1.571 14.1524 11.0077 -8.94975
520 1 4.71413 14.1523 11.0094 -8.9529
521 1 7.8475 14.1595 10.9833 -8.90456
522 1 11.0476 14.1887 10.9737 -8.85412
523 1 14.1619 14.1556 11.0045 -8.95824
524 1 17.299 14.1521 11.0067 -8.95177
525 1 20.4414 14.1521 11.007 -8.9499
527 1 4.71689 17.2973 11.0077 -8.94893
528 1 7.86269 17.2982 11.0069 -8.9518
529 1 11.01 17.3047 11.0056 -8.95924
535 1 7.86195 20.442 11.0071 -8.94943
534 1 4.71693 20.4418 11.0071 -8.94937
351 1 22.0132 12.5795 0.000396836 -8.94951
385 1 9.43461 18.8696 0.000403314 -8.94953
383 1 6.28957 18.8696 0.000380264 -8.94949
363 1 18.869 12.5794 0.000214966 -8.94957
687 3 8.64832 11.007 12.5794 2.30883
686 1 20.4415 20.4417 20.4417 -8.9496
685 1 18.8695 18.8695 18.8695 -8.94956
684 1 17.2971 20.4418 20.4419 -8.9492
683 1 15.7256 18.8702 18.8704 -8.94823
682 1 14.1521 20.4419 20.442 -8.94964
681 1 12.58 18.8704 18.8703 -8.94965
680 1 11.0071 20.4419 20.442 -8.94949
679 1 9.43458 18.8703 18.8702 -8.94937
678 1 7.86203 20.4419 20.442 -8.94953
677 1 6.28927 18.8704 18.8701 -8.94914
676 1 4.71702 20.4419 20.4419 -8.9495
675 1 3.14367 18.8707 18.8701 -8.94944
674 1 1.57196 20.4419 20.4419 -8.94949
526 1 1.57172 17.2975 11.007 -8.94899
673 1 22.0136 18.8696 18.8693 -8.94985
672 1 20.4411 17.297 20.4419 -8.94956
671 1 18.869 15.7244 18.8695 -8.94985
670 1 17.297 17.2969 20.442 -8.94985
531 1 17.2983 17.2977 11.0066 -8.94929
532 1 20.4416 17.2972 11.0069 -8.94956
533 1 1.57211 20.4418 11.0069 -8.94956
669 1 15.7253 15.7245 18.8701 -8.95039
668 1 14.153 17.2977 20.4432 -8.94944
667 1 12.5823 15.7269 18.8736 -8.94989
666 1 11.0074 17.2976 20.4428 -8.94914
665 1 9.4351 15.7267 18.8723 -8.94776
664 1 7.86206 17.2978 20.4428 -8.94937
540 1 1.57003 11.007 14.1514 -8.95112
541 1 4.70945 11.007 14.1593 -8.97292
542 1 7.7844 11.007 14.3834 -8.12066
543 1 10.9842 11.007 14.1418 -8.90204
544 1 14.1494 11.007 14.1512 -8.93978
545 1 17.297 11.007 14.1521 -8.94769
546 1 20.4409 11.007 14.1517 -8.94944
547 1 22.0135 12.5797 12.5794 -8.94769
548 1 1.571 14.1524 14.1511 -8.94975
549 1 3.14724 12.5788 12.5794 -8.93978
550 1 4.71413 14.1523 14.1493 -8.9529
551 1 6.31241 12.5694 12.5794 -8.90204
552 1 7.8475 14.1595 14.1755 -8.90456
553 1 9.51223 12.811 12.5794 -8.12067
554 1 11.0476 14.1887 14.185 -8.85412
555 1 12.5872 12.5869 12.5794 -8.97292
556 1 14.1619 14.1556 14.1543 -8.95824
557 1 15.7266 12.579 12.5794 -8.95112
558 1 17.299 14.1521 14.1521 -8.95177
559 1 18.8696 12.5793 12.5794 -8.94944
560 1 20.4414 14.1521 14.1517 -8.9499
561 1 -0.000588097 15.725 12.5794 -8.94954
562 1 1.57172 17.2975 14.1518 -8.94899
563 1 3.1434 15.7258 12.5794 -8.94649
564 1 4.71689 17.2973 14.151 -8.94893
565 1 6.29184 15.7218 12.5794 -8.94515
566 1 7.86269 17.2982 14.1519 -8.9518
567 1 9.43968 15.7206 12.5794 -9.00332
568 1 11.01 17.3047 14.1532 -8.95924
569 1 12.59 15.7343 12.5794 -8.94211
570 1 14.1556 17.3003 14.1532 -8.94763
571 1 15.7287 15.7266 12.5794 -8.94906
572 1 17.2983 17.2977 14.1522 -8.94929
573 1 18.8701 15.7248 12.5794 -8.94996
574 1 20.4416 17.2972 14.1519 -8.94956
575 1 22.0137 18.8695 12.5794 -8.94958
576 1 1.57211 20.4418 14.1518 -8.94956
577 1 3.14431 18.8698 12.5794 -8.94965
578 1 4.71693 20.4418 14.1517 -8.94937
579 1 6.28951 18.8692 12.5794 -8.94823
580 1 7.86195 20.442 14.1517 -8.94943
581 1 9.43466 18.8699 12.5794 -8.94638
582 1 11.0071 20.4431 14.1519 -8.95142
583 1 12.5818 18.8729 12.5794 -8.94956
584 1 14.153 20.4427 14.1522 -8.94939
585 1 15.7258 18.8704 12.5794 -8.94947
586 1 17.2973 20.4419 14.1519 -8.94951
587 1 18.8696 18.8696 12.5794 -8.94953
588 1 20.4416 20.4417 14.1518 -8.94957
589 1 1.56798 11.007 17.299 -8.94906
590 1 4.70666 11.007 17.3067 -8.94211
591 1 7.85696 11.007 17.2931 -9.00332
592 1 11.0048 11.007 17.2942 -8.94515
593 1 14.1532 11.007 17.2982 -8.94649
594 1 17.2972 11.007 17.2974 -8.94954
595 1 20.4404 11.007 17.2973 -8.94996
596 1 22.0115 12.5797 15.7245 -8.95177
597 1 1.56816 14.1538 17.2987 -8.95089
598 1 3.1347 12.5818 15.728 -8.95824
599 1 4.70435 14.1637 17.3091 -8.92995
600 1 6.24906 12.6126 15.7611 -8.85412
601 1 7.86126 14.1569 17.3053 -8.95093
602 1 9.44913 12.603 15.7319 -8.90456
603 1 11.0132 14.1584 17.307 -8.95329
604 1 12.5825 12.5769 15.7247 -8.9529
605 1 14.154 14.1518 17.2982 -8.95164
606 1 15.7256 12.5787 15.7248 -8.94975
607 1 17.2973 14.1517 17.2972 -8.94982
608 1 18.8691 12.5793 15.7245 -8.9499
609 1 20.4406 14.1522 17.2971 -8.95021
610 1 22.0132 15.7248 15.7242 -8.94982
611 1 1.57135 17.2977 17.2969 -8.95039
612 1 3.1426 15.7258 15.7242 -8.95164
613 1 4.71437 17.3012 17.2993 -8.94989
614 1 6.28345 15.7346 15.7308 -8.95329
615 1 7.86153 17.2998 17.2991 -8.94776
616 1 9.43538 15.7329 15.7293 -8.95093
617 1 11.0082 17.3002 17.2993 -8.94918
618 1 12.5923 15.7367 15.7362 -8.92995
619 1 14.156 17.3006 17.3008 -8.94455
620 1 15.7285 15.7262 15.7263 -8.95089
621 1 17.2982 17.2976 17.2976 -8.94968
622 1 18.8699 15.7247 15.7246 -8.95021
623 1 20.4415 17.2971 17.2969 -8.94985
624 1 -0.000197373 18.8695 15.7243 -8.94943
625 1 1.57217 20.4418 17.2966 -8.94972
626 1 3.14441 18.8698 15.724 -8.94964
627 1 4.71675 20.4424 17.297 -8.95065
628 1 6.28925 18.8712 15.7245 -8.95249
629 1 7.86177 20.4424 17.2974 -8.94962
630 1 9.43432 18.8718 15.7253 -8.95056
631 1 11.0071 20.4425 17.2974 -8.94968
632 1 12.5812 18.8727 15.7259 -8.95154
633 1 14.1528 20.4426 17.2976 -8.95
634 1 15.7257 18.8704 15.725 -8.94922
635 1 17.2972 20.4418 17.297 -8.94951
636 1 18.8696 18.8695 15.7245 -8.94947
637 1 20.4416 20.4417 17.2968 -8.94953
638 1 1.57085 11.007 20.4428 -8.94947
639 1 4.71487 11.007 20.4453 -8.94956
640 1 7.86198 11.007 20.4423 -8.94638
641 1 11.0071 11.007 20.4416 -8.94823
642 1 14.1523 11.007 20.4422 -8.94965
643 1 17.2968 11.007 20.442 -8.94958
644 1 20.4409 11.007 20.442 -8.94953
645 1 -0.00165808 12.5798 18.8701 -8.94929
646 1 1.57093 14.1526 20.4428 -8.94922
647 1 3.14099 12.5808 18.8728 -8.94763
648 1 4.71547 14.1534 20.4451 -8.95154
649 1 6.2866 12.5807 18.8771 -8.95924
650 1 7.86232 14.1529 20.4442 -8.95056
651 1 9.43395 12.5795 18.8706 -8.9518
652 1 11.0074 14.1521 20.4437 -8.95249
653 1 12.5797 12.5786 18.8698 -8.94893
654 1 14.1522 14.1516 20.4422 -8.94964
655 1 15.7249 12.5793 18.8699 -8.94899
656 1 17.2968 14.1518 20.4419 -8.94943
657 1 18.8689 12.5795 18.8696 -8.94956
658 1 20.441 14.152 20.442 -8.94947
659 1 22.0124 15.7252 18.87 -8.94968
660 1 1.57105 17.298 20.4427 -8.94823
661 1 3.14061 15.7283 18.8731 -8.94455
662 1 4.71659 17.2979 20.4428 -8.94965
663 1 6.28842 15.7269 18.8726 -8.94918
371 1 9.43486 15.7249 22.0148 -8.94962
353 1 3.14368 12.5798 22.0151 -8.94939
361 1 15.7245 12.5794 22.0142 -8.94956
369 1 6.28956 15.725 22.0149 -8.94968
365 1 -0.000606033 15.7246 22.0143 -8.94951
381 1 3.14449 18.8696 22.0143 -8.94964
387 1 12.5796 18.8695 22.0143 -8.9495
537 1 14.153 20.4427 11.0065 -8.94939
530 1 14.1556 17.3003 11.0056 -8.94763
