ITEM: TIMESTEP
60
ITEM: NUMBER OF ATOMS
687
ITEM: BOX BOUNDS pp pp pp
0.0000000000000000e+00 2.2013900999999997e+01
0.0000000000000000e+00 2.2013900999999997e+01
0.0000000000000000e+00 2.2013900999999997e+01
ITEM: ATOMS id type x y z c_pot
1 1 22.0139 -1.26959e-15 3.67103e-06 -8.94962
2 1 1.57242 1.57242 1.57242 -8.94965
196 1 20.4414 7.86205 11.0069 -8.94977
4 1 4.71726 1.57242 1.57242 -8.94963
5 1 6.28969 -1.81532e-15 2.09319e-06 -8.94964
6 1 7.86211 1.57242 1.57242 -8.94964
175 1 18.8691 9.43452 9.43448 -8.94977
8 1 11.007 1.57242 1.57242 -8.94964
9 1 12.5794 9.64904e-16 2.00138e-06 -8.94963
10 1 14.1518 1.57242 1.57242 -8.94964
195 1 17.2973 7.86202 11.0069 -8.95076
12 1 17.2966 1.57242 1.57242 -8.94962
13 1 18.8691 1.89072e-16 1.49502e-06 -8.94962
14 1 20.4415 1.57242 1.57242 -8.94962
15 1 22.0139 3.14483 1.09801e-05 -8.94957
16 1 1.57239 4.71723 1.57242 -8.94959
194 1 14.1571 7.86061 11.0056 -8.95598
18 1 4.71727 4.71725 1.57242 -8.94963
174 1 15.7248 9.43471 9.43421 -8.94945
20 1 7.86211 4.71724 1.57242 -8.94964
173 1 12.5815 9.43648 9.43368 -8.95118
22 1 11.007 4.71724 1.57242 -8.94961
193 1 11.0388 7.83318 10.9788 -8.85806
24 1 14.1518 4.71724 1.57242 -8.94966
25 1 15.7242 3.14482 2.24941e-05 -8.9496
26 1 17.2966 4.71727 1.57242 -8.94964
27 1 18.8691 3.14484 2.39458e-06 -8.94964
28 1 20.4415 4.71726 1.57242 -8.94965
192 1 7.85182 7.85696 10.9926 -8.91352
30 1 1.5724 7.8621 1.57242 -8.94961
31 1 3.14473 6.28958 0.000160803 -8.94966
32 1 4.71719 7.86203 1.57242 -8.94997
172 1 9.44482 9.42018 9.42938 -8.91352
34 1 7.86214 7.86204 1.57242 -8.94977
171 1 6.25787 9.40636 9.4056 -8.85806
36 1 11.007 7.86206 1.57242 -8.94989
37 1 12.5794 6.28962 0.000148615 -8.94983
38 1 14.1518 7.86211 1.57242 -8.94963
39 1 15.7242 6.28969 5.78047e-06 -8.94965
40 1 17.2966 7.86211 1.57242 -8.94963
41 1 18.8691 6.28969 1.38815e-06 -8.94963
42 1 20.4415 7.86211 1.57242 -8.94964
170 1 3.13952 9.43318 9.43303 -8.95598
169 1 22.0132 9.43445 9.43444 -8.95076
45 1 6.28961 9.43445 0.000578967 -8.95071
46 1 9.43463 9.43446 0.000296861 -8.94972
47 1 12.5794 9.43455 6.65097e-05 -8.9496
168 1 18.8692 6.28964 9.43449 -8.94981
167 1 15.7253 6.28918 9.43401 -8.95024
50 1 22.0139 -1.23271e-15 3.14484 -8.94962
51 1 1.5724 1.5724 4.71725 -8.9496
52 1 3.14484 -1.40159e-15 3.14484 -8.94964
53 1 4.71726 1.57241 4.71725 -8.94963
54 1 6.28969 -1.65977e-15 3.14484 -8.94964
55 1 7.86211 1.57241 4.71725 -8.94964
56 1 9.43453 -1.08571e-15 3.14484 -8.94964
57 1 11.007 1.57241 4.71725 -8.94963
58 1 12.5794 5.04006e-16 3.14484 -8.94963
59 1 14.1518 1.57241 4.71726 -8.94968
60 1 15.7242 -5.96619e-17 3.14484 -8.94965
61 1 17.2967 1.57241 4.71725 -8.94957
62 1 18.8691 -1.66463e-16 3.14484 -8.94962
63 1 20.4415 1.57242 4.71726 -8.94964
64 1 22.0139 3.14483 3.14483 -8.94957
65 1 1.57228 4.71713 4.71713 -8.94916
66 1 3.14484 3.14484 3.14484 -8.94968
67 1 4.71726 4.71719 4.71719 -8.94981
68 1 6.28968 3.14483 3.14483 -8.94963
69 1 7.8621 4.71716 4.71714 -8.94961
70 1 9.43453 3.14483 3.14483 -8.94964
71 1 11.007 4.71717 4.71714 -8.9495
72 1 12.5794 3.14483 3.14483 -8.94963
73 1 14.1519 4.71714 4.71706 -8.94955
74 1 15.7242 3.14482 3.14482 -8.9496
75 1 17.2966 4.71726 4.71726 -8.94969
76 1 18.8691 3.14484 3.14484 -8.94964
77 1 20.4415 4.71725 4.71725 -8.94961
78 1 -9.00696e-06 6.28968 3.14483 -8.94967
79 1 1.57233 7.86208 4.71717 -8.94969
80 1 3.14473 6.28958 3.14468 -8.94966
81 1 4.71681 7.86164 4.71621 -8.95047
82 1 6.2897 6.28962 3.14475 -8.94958
83 1 7.8623 7.8618 4.71652 -8.9497
84 1 9.43456 6.28959 3.14472 -8.94959
85 1 11.0071 7.86193 4.71649 -8.95087
86 1 12.5794 6.28962 3.14469 -8.94983
87 1 14.1518 7.86215 4.71719 -8.94966
88 1 15.7242 6.28969 3.14484 -8.94965
89 1 17.2966 7.8621 4.71725 -8.94961
90 1 18.8691 6.28969 3.14484 -8.94963
91 1 20.4415 7.86211 4.71725 -8.94962
92 1 22.0139 9.43453 3.14483 -8.94965
93 1 3.14474 9.4345 3.14471 -8.94952
94 1 6.28961 9.43445 3.14426 -8.95071
95 1 9.43463 9.43446 3.14455 -8.94972
96 1 12.5794 9.43455 3.14478 -8.9496
97 1 15.7242 9.43452 3.14482 -8.94962
98 1 18.8691 9.43453 3.14484 -8.94964
99 1 22.0139 1.84169e-15 6.28969 -8.94964
100 1 1.57242 1.57242 7.86211 -8.94965
101 1 3.14482 8.05286e-16 6.28966 -8.94966
102 1 4.7172 1.57227 7.86204 -8.94983
103 1 6.28968 9.5884e-16 6.28966 -8.94961
104 1 7.86208 1.57229 7.86201 -8.94959
105 1 9.43453 -1.02453e-15 6.28966 -8.94964
106 1 11.0069 1.57232 7.86204 -8.94958
107 1 12.5794 1.70179e-16 6.28967 -8.94963
108 1 14.1519 1.57226 7.862 -8.94966
109 1 15.7242 1.74919e-15 6.28966 -8.94959
110 1 17.2966 1.57241 7.86211 -8.94967
111 1 18.8691 1.30444e-15 6.28969 -8.94965
112 1 20.4415 1.57242 7.86211 -8.94963
113 1 22.0139 3.14483 6.28968 -8.94969
114 1 1.57235 4.7172 7.86211 -8.9499
115 1 3.14472 3.14464 6.28957 -8.94955
116 1 4.71661 4.71601 7.86149 -8.94986
117 1 6.28968 3.14472 6.28959 -8.9495
118 1 7.86202 4.71649 7.8615 -8.94866
119 1 9.43454 3.14471 6.28958 -8.94961
120 1 11.007 4.71667 7.86164 -8.94979
121 1 12.5794 3.14477 6.28962 -8.94981
122 1 14.1529 4.71621 7.86103 -8.94662
123 1 15.7244 3.14471 6.28955 -8.94916
124 1 17.2968 4.71716 7.862 -8.94962
125 1 18.8691 3.14483 6.28967 -8.94961
126 1 20.4415 4.71725 7.8621 -8.94965
127 1 22.0137 6.28958 6.28958 -8.94962
128 1 1.57129 7.86159 7.8616 -8.95024
129 1 3.14378 6.28861 6.28863 -8.94662
130 1 4.71081 7.8556 7.85572 -8.93335
131 1 6.28968 6.28922 6.28909 -8.94979
132 1 7.86274 7.86026 7.85836 -8.95099
133 1 9.43462 6.28908 6.28892 -8.94866
134 1 11.0095 7.85966 7.85657 -8.95366
135 1 12.58 6.28907 6.28843 -8.94986
136 1 14.1523 7.86225 7.86176 -8.95061
137 1 15.7243 6.28968 6.28962 -8.9499
138 1 17.2967 7.86211 7.86204 -8.94961
139 1 18.869 6.28968 6.28967 -8.94965
140 1 20.4414 7.86207 7.86206 -8.94981
141 1 -0.000141037 9.43451 6.2896 -8.94953
142 1 3.14416 9.43431 6.28898 -8.949
143 1 6.28855 9.43358 6.28498 -8.95639
144 1 9.43492 9.43425 6.28813 -8.94997
145 1 12.5796 9.43485 6.28934 -8.94954
146 1 15.7243 9.43451 6.28957 -8.94947
147 1 18.8691 9.43452 6.28966 -8.94962
148 1 -2.95244e-06 1.8004e-15 9.43453 -8.94963
149 1 3.14483 2.38833e-15 9.43453 -8.94963
150 1 6.28964 1.66015e-15 9.43448 -8.94989
151 1 9.4345 1.92034e-16 9.43446 -8.94977
152 1 12.5794 -6.31783e-16 9.43445 -8.94997
153 1 15.7242 1.4846e-15 9.43452 -8.94961
154 1 18.8691 1.44859e-15 9.43453 -8.94964
155 1 -1.17257e-05 3.14483 9.43453 -8.94961
156 1 3.14479 3.14477 9.43457 -8.94966
157 1 6.28949 3.14407 9.43435 -8.95087
158 1 9.43434 3.14409 9.43422 -8.9497
159 1 12.5798 3.14379 9.43406 -8.95047
160 1 15.7243 3.14475 9.4345 -8.94969
161 1 18.8691 3.14483 9.43453 -8.94962
162 1 22.0138 6.28962 9.43453 -8.94961
163 1 3.14438 6.28933 9.43467 -8.95061
164 1 6.28712 6.28415 9.43209 -8.95366
165 1 9.4339 6.28594 9.43268 -8.95099
166 1 12.5858 6.2833 9.42802 -8.93335
177 1 4.71721 1.57235 11.007 -8.9496
178 1 7.862 1.57212 11.0069 -8.94972
179 1 11.007 1.57184 11.0069 -8.95071
191 1 4.71511 7.86125 11.0089 -8.95118
181 1 17.2966 1.57241 11.0069 -8.94965
182 1 20.4415 1.57242 11.007 -8.94964
184 1 4.71703 4.71692 11.0073 -8.94954
185 1 7.86172 4.71571 11.0067 -8.94997
186 1 11.0081 4.71256 11.006 -8.95639
190 1 1.5718 7.86179 11.0071 -8.94945
19 1 6.28968 3.14483 1.39821e-05 -8.94963
49 1 18.8691 9.43453 2.00756e-06 -8.94964
21 1 9.43453 3.14483 1.32447e-05 -8.94964
43 1 22.0139 9.43453 1.05945e-05 -8.94965
176 1 1.5724 1.5724 11.0069 -8.94962
343 1 18.8691 9.43452 18.8691 -8.94962
342 1 15.7243 9.43451 18.8692 -8.94947
341 1 12.5796 9.43485 18.8694 -8.94954
340 1 9.43492 9.43425 18.8706 -8.94997
339 1 6.28855 9.43358 18.8738 -8.95639
338 1 3.14416 9.43431 18.8698 -8.949
183 1 1.57231 4.71715 11.0069 -8.94947
337 1 -0.000141037 9.43451 18.8691 -8.94953
336 1 20.4415 7.86211 20.4415 -8.94962
335 1 18.869 6.28968 18.8691 -8.94965
334 1 17.2966 7.8621 20.4415 -8.94961
188 1 17.2968 4.71717 11.0069 -8.94953
189 1 20.4415 4.71724 11.0069 -8.94962
333 1 15.7243 6.28968 18.8691 -8.9499
332 1 14.1518 7.86215 20.4415 -8.94966
331 1 12.58 6.28907 18.8703 -8.94986
330 1 11.0071 7.86193 20.4422 -8.95087
329 1 9.43462 6.28908 18.8698 -8.94866
328 1 7.8623 7.8618 20.4422 -8.9497
327 1 6.28968 6.28922 18.8697 -8.94979
197 1 -2.19946e-06 2.03985e-15 12.5794 -8.94963
198 1 1.5724 1.5724 14.1518 -8.94962
199 1 3.14482 2.306e-15 12.5794 -8.94966
200 1 4.71721 1.57235 14.1518 -8.9496
201 1 6.28964 1.81752e-15 12.5794 -8.94957
202 1 7.862 1.57212 14.1519 -8.94972
203 1 9.43448 5.43476e-16 12.5794 -8.94995
204 1 11.007 1.57184 14.1519 -8.95071
205 1 12.5795 -8.34048e-16 12.5794 -8.9498
206 1 14.1519 1.57229 14.1518 -8.94952
207 1 15.7242 1.1569e-15 12.5794 -8.94963
208 1 17.2966 1.57241 14.1518 -8.94965
209 1 18.8691 8.28385e-16 12.5794 -8.94964
210 1 20.4415 1.57242 14.1518 -8.94964
211 1 22.0139 3.14483 12.5794 -8.94965
212 1 1.57231 4.71715 14.1518 -8.94947
213 1 3.14473 3.14468 12.5794 -8.94962
214 1 4.71703 4.71692 14.1515 -8.94954
215 1 6.28953 3.14463 12.5794 -8.94898
216 1 7.86172 4.71571 14.1521 -8.94997
217 1 9.43434 3.14348 12.5794 -8.94934
218 1 11.0081 4.71256 14.1527 -8.95639
219 1 12.5799 3.14382 12.5794 -8.94929
220 1 14.1525 4.71656 14.152 -8.949
221 1 15.7243 3.14474 12.5794 -8.94968
222 1 17.2968 4.71717 14.1518 -8.94953
223 1 18.8691 3.14483 12.5794 -8.94963
224 1 20.4415 4.71724 14.1518 -8.94962
225 1 -0.000138353 6.28956 12.5794 -8.94957
226 1 1.5718 7.86179 14.1516 -8.94945
227 1 3.1442 6.28891 12.5794 -8.94782
228 1 4.71511 7.86125 14.1498 -8.95118
229 1 6.2905 6.29017 12.5794 -8.94811
230 1 7.85182 7.85696 14.1661 -8.91352
231 1 9.43713 6.28679 12.5794 -8.99815
232 1 11.0388 7.83318 14.18 -8.85806
233 1 12.5837 6.28521 12.5794 -8.94517
234 1 14.1571 7.86061 14.1531 -8.95598
235 1 15.7252 6.28918 12.5794 -8.94916
236 1 17.2973 7.86202 14.1519 -8.95076
237 1 18.8692 6.28963 12.5794 -8.94971
238 1 20.4414 7.86205 14.1518 -8.94977
239 1 22.0136 9.43433 12.5794 -8.94902
240 1 3.14446 9.43384 12.5794 -8.9427
241 1 6.3017 9.44006 12.5794 -8.89992
242 1 9.51854 9.21658 12.5794 -8.09696
243 1 12.5895 9.43048 12.5794 -8.97226
244 1 15.7261 9.43481 12.5794 -8.95177
245 1 18.8693 9.43454 12.5794 -8.94995
246 1 -2.95244e-06 1.85993e-15 15.7242 -8.94963
247 1 1.57242 1.57242 17.2966 -8.94965
248 1 3.14483 2.58475e-15 15.7242 -8.94963
249 1 4.7172 1.57227 17.2967 -8.94983
250 1 6.28964 1.61673e-15 15.7243 -8.94989
251 1 7.86208 1.57229 17.2967 -8.94959
252 1 9.4345 1.54967e-16 15.7243 -8.94977
253 1 11.0069 1.57232 17.2967 -8.94958
254 1 12.5794 -1.4442e-15 15.7243 -8.94997
255 1 14.1519 1.57226 17.2967 -8.94966
256 1 15.7242 1.66862e-15 15.7242 -8.94961
257 1 17.2966 1.57241 17.2966 -8.94967
258 1 18.8691 1.50783e-15 15.7242 -8.94964
259 1 20.4415 1.57242 17.2966 -8.94963
260 1 -1.17257e-05 3.14483 15.7242 -8.94961
261 1 1.57235 4.7172 17.2966 -8.9499
262 1 3.14479 3.14477 15.7242 -8.94966
263 1 4.71661 4.71601 17.2973 -8.94986
264 1 6.28949 3.14407 15.7244 -8.95087
265 1 7.86202 4.71649 17.2972 -8.94866
266 1 9.43434 3.14409 15.7245 -8.9497
267 1 11.007 4.71667 17.2971 -8.94979
268 1 12.5798 3.14379 15.7247 -8.95047
269 1 14.1529 4.71621 17.2977 -8.94662
270 1 15.7243 3.14475 15.7242 -8.94969
271 1 17.2968 4.71716 17.2967 -8.94962
272 1 18.8691 3.14483 15.7242 -8.94962
273 1 20.4415 4.71725 17.2966 -8.94965
274 1 22.0138 6.28962 15.7242 -8.94961
275 1 1.57129 7.86159 17.2971 -8.95024
276 1 3.14438 6.28933 15.7241 -8.95061
277 1 4.71081 7.8556 17.303 -8.93335
278 1 6.28712 6.28415 15.7267 -8.95366
279 1 7.86274 7.86026 17.3004 -8.95099
280 1 9.4339 6.28594 15.7261 -8.95099
281 1 11.0095 7.85966 17.3022 -8.95366
282 1 12.5858 6.2833 15.7307 -8.93335
283 1 14.1523 7.86225 17.297 -8.95061
284 1 15.7253 6.28918 15.7247 -8.95024
285 1 17.2967 7.86211 17.2967 -8.94961
286 1 18.8692 6.28964 15.7243 -8.94981
287 1 20.4414 7.86207 17.2967 -8.94981
288 1 22.0132 9.43445 15.7243 -8.95076
289 1 3.13952 9.43318 15.7257 -8.95598
290 1 6.25787 9.40636 15.7531 -8.85806
291 1 9.44482 9.42018 15.7294 -8.91352
292 1 12.5815 9.43648 15.7251 -8.95118
293 1 15.7248 9.43471 15.7245 -8.94945
294 1 18.8691 9.43452 15.7243 -8.94977
295 1 22.0139 1.58565e-15 18.8691 -8.94964
296 1 1.5724 1.5724 20.4415 -8.9496
297 1 3.14482 6.4169e-16 18.8691 -8.94966
298 1 4.71726 1.57241 20.4415 -8.94963
299 1 6.28968 1.44959e-15 18.8691 -8.94961
300 1 7.86211 1.57241 20.4415 -8.94964
301 1 9.43453 -1.1927e-15 18.8691 -8.94964
302 1 11.007 1.57241 20.4415 -8.94963
303 1 12.5794 -2.15558e-17 18.8691 -8.94963
304 1 14.1518 1.57241 20.4415 -8.94968
305 1 15.7242 1.67909e-15 18.8691 -8.94959
306 1 17.2967 1.57241 20.4415 -8.94957
307 1 18.8691 5.26755e-16 18.8691 -8.94965
308 1 20.4415 1.57242 20.4415 -8.94964
309 1 22.0139 3.14483 18.8691 -8.94969
310 1 1.57228 4.71713 20.4416 -8.94916
311 1 3.14472 3.14464 18.8692 -8.94955
312 1 4.71726 4.71719 20.4416 -8.94981
313 1 6.28968 3.14472 18.8692 -8.9495
314 1 7.8621 4.71716 20.4416 -8.94961
315 1 9.43454 3.14471 18.8692 -8.94961
316 1 11.007 4.71717 20.4416 -8.9495
317 1 12.5794 3.14477 18.8691 -8.94981
318 1 14.1519 4.71714 20.4417 -8.94955
319 1 15.7244 3.14471 18.8692 -8.94916
320 1 17.2966 4.71726 20.4415 -8.94969
321 1 18.8691 3.14483 18.8691 -8.94961
322 1 20.4415 4.71725 20.4415 -8.94961
323 1 22.0137 6.28958 18.8692 -8.94962
324 1 1.57233 7.86208 20.4416 -8.94969
325 1 3.14378 6.28861 18.8701 -8.94662
326 1 4.71681 7.86164 20.4425 -8.95047
7 1 9.43453 -8.79035e-16 22.0139 -8.94964
48 1 15.7242 9.43452 22.0139 -8.94962
44 1 3.14474 9.4345 22.014 -8.94952
33 1 6.2897 6.28962 22.014 -8.94958
35 1 9.43456 6.28959 22.014 -8.94959
3 1 3.14484 -1.56692e-15 22.0139 -8.94964
11 1 15.7242 2.81546e-16 22.0139 -8.94965
17 1 3.14484 3.14484 22.0139 -8.94968
23 1 12.5794 3.14483 22.0139 -8.94963
29 1 -9.00696e-06 6.28968 22.0139 -8.94967
180 1 14.1519 1.57229 11.0069 -8.94952
187 1 14.1525 4.71656 11.0067 -8.949
344 1 1.5724 11.007 1.57242 -8.94963
345 1 4.71717 11.007 1.57242 -8.9498
346 1 7.86216 11.007 1.57242 -8.94995
347 1 11.007 11.007 1.57242 -8.94957
348 1 14.1518 11.007 1.57242 -8.94966
349 1 17.2966 11.007 1.57242 -8.94963
350 1 20.4415 11.007 1.57242 -8.94964
511 1 18.8691 18.8691 9.43453 -8.94962
352 1 1.5724 14.1518 1.57242 -8.94961
510 1 15.7243 18.8691 9.4345 -8.94969
354 1 4.71719 14.1519 1.57242 -8.94997
355 1 6.28961 12.5795 0.000578967 -8.95071
356 1 7.86214 14.1519 1.57242 -8.94977
357 1 9.43463 12.5794 0.000296861 -8.94972
358 1 11.007 14.1518 1.57242 -8.94989
359 1 12.5794 12.5794 6.65097e-05 -8.9496
360 1 14.1518 14.1518 1.57242 -8.94963
509 1 12.5798 18.8701 9.43406 -8.95047
362 1 17.2966 14.1518 1.57242 -8.94963
508 1 9.43434 18.8698 9.43422 -8.9497
364 1 20.4415 14.1518 1.57242 -8.94964
539 1 20.4415 20.4415 11.007 -8.94964
366 1 1.57239 17.2967 1.57242 -8.94959
367 1 3.14473 15.7243 0.000160803 -8.94966
368 1 4.71727 17.2966 1.57242 -8.94963
507 1 6.28949 18.8698 9.43435 -8.95087
370 1 7.86211 17.2967 1.57242 -8.94964
506 1 3.14479 18.8691 9.43457 -8.94966
372 1 11.007 17.2967 1.57242 -8.94961
373 1 12.5794 15.7243 0.000148615 -8.94983
374 1 14.1518 17.2967 1.57242 -8.94966
375 1 15.7242 15.7242 5.78047e-06 -8.94965
376 1 17.2966 17.2966 1.57242 -8.94964
377 1 18.8691 15.7242 1.38815e-06 -8.94963
378 1 20.4415 17.2966 1.57242 -8.94965
379 1 22.0139 18.8691 1.09801e-05 -8.94957
380 1 1.57242 20.4415 1.57242 -8.94965
538 1 17.2966 20.4415 11.0069 -8.94965
382 1 4.71726 20.4415 1.57242 -8.94963
505 1 -1.17257e-05 18.8691 9.43453 -8.94961
384 1 7.86211 20.4415 1.57242 -8.94964
504 1 18.8692 15.7243 9.43449 -8.94981
386 1 11.007 20.4415 1.57242 -8.94964
536 1 11.007 20.4421 11.0069 -8.95071
388 1 14.1518 20.4415 1.57242 -8.94964
389 1 15.7242 18.8691 2.24941e-05 -8.9496
390 1 17.2966 20.4415 1.57242 -8.94962
391 1 18.8691 18.8691 2.39458e-06 -8.94964
392 1 20.4415 20.4415 1.57242 -8.94962
393 1 1.57232 11.007 4.71716 -8.94968
394 1 4.71676 11.007 4.71624 -8.94929
395 1 7.86229 11.007 4.7159 -8.94934
396 1 11.0071 11.007 4.71706 -8.94898
397 1 14.1519 11.007 4.7171 -8.94962
398 1 17.2966 11.007 4.71725 -8.94965
399 1 20.4415 11.007 4.71725 -8.94963
400 1 22.0139 12.5794 3.14483 -8.94965
401 1 1.57233 14.1518 4.71717 -8.94969
402 1 3.14474 12.5794 3.14471 -8.94952
403 1 4.71681 14.1523 4.71621 -8.95047
404 1 6.28961 12.5795 3.14426 -8.95071
405 1 7.8623 14.1521 4.71652 -8.9497
406 1 9.43463 12.5794 3.14455 -8.94972
407 1 11.0071 14.152 4.71649 -8.95087
408 1 12.5794 12.5794 3.14478 -8.9496
409 1 14.1518 14.1518 4.71719 -8.94966
410 1 15.7242 12.5794 3.14482 -8.94962
411 1 17.2966 14.1518 4.71725 -8.94961
412 1 18.8691 12.5794 3.14484 -8.94964
413 1 20.4415 14.1518 4.71725 -8.94962
414 1 -9.00696e-06 15.7242 3.14483 -8.94967
415 1 1.57228 17.2968 4.71713 -8.94916
416 1 3.14473 15.7243 3.14468 -8.94966
417 1 4.71726 17.2967 4.71719 -8.94981
418 1 6.2897 15.7243 3.14475 -8.94958
419 1 7.8621 17.2967 4.71714 -8.94961
420 1 9.43456 15.7243 3.14472 -8.94959
421 1 11.007 17.2967 4.71714 -8.9495
422 1 12.5794 15.7243 3.14469 -8.94983
423 1 14.1519 17.2968 4.71706 -8.94955
424 1 15.7242 15.7242 3.14484 -8.94965
425 1 17.2966 17.2966 4.71726 -8.94969
426 1 18.8691 15.7242 3.14484 -8.94963
427 1 20.4415 17.2967 4.71725 -8.94961
428 1 22.0139 18.8691 3.14483 -8.94957
429 1 1.5724 20.4415 4.71725 -8.9496
430 1 3.14484 18.8691 3.14484 -8.94968
431 1 4.71726 20.4415 4.71725 -8.94963
432 1 6.28968 18.8691 3.14483 -8.94963
433 1 7.86211 20.4415 4.71725 -8.94964
434 1 9.43453 18.8691 3.14483 -8.94964
435 1 11.007 20.4415 4.71725 -8.94963
436 1 12.5794 18.8691 3.14483 -8.94963
437 1 14.1518 20.4415 4.71726 -8.94968
438 1 15.7242 18.8691 3.14482 -8.9496
439 1 17.2967 20.4415 4.71725 -8.94957
440 1 18.8691 18.8691 3.14484 -8.94964
441 1 20.4415 20.4415 4.71726 -8.94964
442 1 1.57141 11.007 7.8616 -8.94916
443 1 4.71289 11.007 7.85763 -8.94517
444 1 7.85951 11.007 7.85921 -8.99815
445 1 11.0061 11.007 7.86259 -8.94811
446 1 14.1524 11.007 7.86133 -8.94782
447 1 17.2968 11.007 7.86199 -8.94957
448 1 20.4414 11.007 7.86205 -8.94971
449 1 -0.000141037 12.5794 6.2896 -8.94953
450 1 1.57129 14.1523 7.8616 -8.95024
451 1 3.14416 12.5796 6.28898 -8.949
452 1 4.71081 14.1583 7.85572 -8.93335
453 1 6.28855 12.5803 6.28498 -8.95639
454 1 7.86274 14.1536 7.85836 -8.95099
455 1 9.43492 12.5797 6.28813 -8.94997
456 1 11.0095 14.1542 7.85657 -8.95366
457 1 12.5796 12.5791 6.28934 -8.94954
458 1 14.1523 14.1517 7.86176 -8.95061
459 1 15.7243 12.5794 6.28957 -8.94947
460 1 17.2967 14.1518 7.86204 -8.94961
461 1 18.8691 12.5794 6.28966 -8.94962
462 1 20.4414 14.1518 7.86206 -8.94981
463 1 22.0137 15.7243 6.28958 -8.94962
464 1 1.57235 17.2967 7.86211 -8.9499
465 1 3.14378 15.7253 6.28863 -8.94662
466 1 4.71661 17.2979 7.86149 -8.94986
467 1 6.28968 15.7247 6.28909 -8.94979
468 1 7.86202 17.2974 7.8615 -8.94866
469 1 9.43462 15.7248 6.28892 -8.94866
470 1 11.007 17.2972 7.86164 -8.94979
471 1 12.58 15.7248 6.28843 -8.94986
472 1 14.1529 17.2977 7.86103 -8.94662
473 1 15.7243 15.7242 6.28962 -8.9499
474 1 17.2968 17.2967 7.862 -8.94962
475 1 18.869 15.7242 6.28967 -8.94965
476 1 20.4415 17.2967 7.8621 -8.94965
477 1 22.0139 18.8691 6.28968 -8.94969
478 1 1.57242 20.4415 7.86211 -8.94965
479 1 3.14472 18.8693 6.28957 -8.94955
480 1 4.7172 20.4416 7.86204 -8.94983
481 1 6.28968 18.8692 6.28959 -8.9495
482 1 7.86208 20.4416 7.86201 -8.94959
483 1 9.43454 18.8692 6.28958 -8.94961
484 1 11.0069 20.4416 7.86204 -8.94958
485 1 12.5794 18.8691 6.28962 -8.94981
486 1 14.1519 20.4416 7.862 -8.94966
487 1 15.7244 18.8692 6.28955 -8.94916
488 1 17.2966 20.4415 7.86211 -8.94967
489 1 18.8691 18.8691 6.28967 -8.94961
490 1 20.4415 20.4415 7.86211 -8.94963
491 1 22.0132 12.5795 9.43444 -8.95076
492 1 3.13952 12.5807 9.43303 -8.95598
493 1 6.25787 12.6075 9.4056 -8.85806
494 1 9.44482 12.5937 9.42938 -8.91352
495 1 12.5815 12.5774 9.43368 -8.95118
496 1 15.7248 12.5792 9.43421 -8.94945
497 1 18.8691 12.5794 9.43448 -8.94977
498 1 22.0138 15.7243 9.43453 -8.94961
499 1 3.14438 15.7246 9.43467 -8.95061
500 1 6.28712 15.7298 9.43209 -8.95366
501 1 9.4339 15.728 9.43268 -8.95099
502 1 12.5858 15.7306 9.42802 -8.93335
503 1 15.7253 15.7247 9.43401 -8.95024
512 1 1.57058 11.007 11.0072 -8.95177
513 1 4.70713 11.007 11.0029 -8.97226
514 1 7.7781 11.007 10.789 -8.09696
515 1 10.9949 11.007 11.0125 -8.89992
516 1 14.1522 11.007 11.0063 -8.9427
517 1 17.297 11.007 11.0068 -8.94902
518 1 20.4413 11.007 11.007 -8.94995
519 1 1.5718 14.1521 11.0071 -8.94945
520 1 4.71511 14.1526 11.0089 -8.95118
521 1 7.85182 14.1569 10.9926 -8.91352
522 1 11.0388 14.1807 10.9788 -8.85806
523 1 14.1571 14.1533 11.0056 -8.95598
524 1 17.2973 14.1519 11.0069 -8.95076
525 1 20.4414 14.1518 11.0069 -8.94977
527 1 4.71703 17.297 11.0073 -8.94954
528 1 7.86172 17.2982 11.0067 -8.94997
529 1 11.0081 17.3013 11.006 -8.95639
535 1 7.862 20.4418 11.0069 -8.94972
534 1 4.71721 20.4415 11.007 -8.9496
351 1 22.0139 12.5794 1.05945e-05 -8.94965
385 1 9.43453 18.8691 1.32447e-05 -8.94964
383 1 6.28968 18.8691 1.39821e-05 -8.94963
363 1 18.8691 12.5794 2.00756e-06 -8.94964
687 3 8.64832 11.007 12.5794 2.35904
686 1 20.4415 20.4415 20.4415 -8.94964
685 1 18.8691 18.8691 18.8691 -8.94961
684 1 17.2967 20.4415 20.4415 -8.94957
683 1 15.7244 18.8692 18.8692 -8.94916
682 1 14.1518 20.4415 20.4415 -8.94968
681 1 12.5794 18.8691 18.8691 -8.94981
680 1 11.007 20.4415 20.4415 -8.94963
679 1 9.43454 18.8692 18.8692 -8.94961
678 1 7.86211 20.4415 20.4415 -8.94964
677 1 6.28968 18.8692 18.8692 -8.9495
676 1 4.71726 20.4415 20.4415 -8.94963
675 1 3.14472 18.8693 18.8692 -8.94955
674 1 1.5724 20.4415 20.4415 -8.9496
526 1 1.57231 17.2968 11.0069 -8.94947
673 1 22.0139 18.8691 18.8691 -8.94969
672 1 20.4415 17.2967 20.4415 -8.94961
671 1 18.869 15.7242 18.8691 -8.94965
670 1 17.2966 17.2966 20.4415 -8.94969
531 1 17.2968 17.2967 11.0069 -8.94953
532 1 20.4415 17.2967 11.0069 -8.94962
533 1 1.5724 20.4415 11.0069 -8.94962
669 1 15.7243 15.7242 18.8691 -8.9499
668 1 14.1519 17.2968 20.4417 -8.94955
667 1 12.58 15.7248 18.8703 -8.94986
666 1 11.007 17.2967 20.4416 -8.9495
665 1 9.43462 15.7248 18.8698 -8.94866
664 1 7.8621 17.2967 20.4416 -8.94961
540 1 1.57058 11.007 14.1515 -8.95177
541 1 4.70713 11.007 14.1558 -8.97226
542 1 7.7781 11.007 14.3697 -8.09696
543 1 10.9949 11.007 14.1463 -8.89992
544 1 14.1522 11.007 14.1525 -8.9427
545 1 17.297 11.007 14.152 -8.94902
546 1 20.4413 11.007 14.1518 -8.94995
547 1 22.0136 12.5796 12.5794 -8.94902
548 1 1.5718 14.1521 14.1516 -8.94945
549 1 3.14446 12.5801 12.5794 -8.9427
550 1 4.71511 14.1526 14.1498 -8.95118
551 1 6.3017 12.5738 12.5794 -8.89992
552 1 7.85182 14.1569 14.1661 -8.91352
553 1 9.51854 12.7973 12.5794 -8.09696
554 1 11.0388 14.1807 14.18 -8.85806
555 1 12.5895 12.5834 12.5794 -8.97226
556 1 14.1571 14.1533 14.1531 -8.95598
557 1 15.7261 12.5791 12.5794 -8.95177
558 1 17.2973 14.1519 14.1519 -8.95076
559 1 18.8693 12.5794 12.5794 -8.94995
560 1 20.4414 14.1518 14.1518 -8.94977
561 1 -0.000138353 15.7243 12.5794 -8.94957
562 1 1.57231 17.2968 14.1518 -8.94947
563 1 3.1442 15.725 12.5794 -8.94782
564 1 4.71703 17.297 14.1515 -8.94954
565 1 6.2905 15.7237 12.5794 -8.94811
566 1 7.86172 17.2982 14.1521 -8.94997
567 1 9.43713 15.7271 12.5794 -8.99815
568 1 11.0081 17.3013 14.1527 -8.95639
569 1 12.5837 15.7287 12.5794 -8.94517
570 1 14.1525 17.2973 14.152 -8.949
571 1 15.7252 15.7247 12.5794 -8.94916
572 1 17.2968 17.2967 14.1518 -8.94953
573 1 18.8692 15.7243 12.5794 -8.94971
574 1 20.4415 17.2967 14.1518 -8.94962
575 1 22.0139 18.8691 12.5794 -8.94965
576 1 1.5724 20.4415 14.1518 -8.94962
577 1 3.14473 18.8692 12.5794 -8.94962
578 1 4.71721 20.4415 14.1518 -8.9496
579 1 6.28953 18.8693 12.5794 -8.94898
580 1 7.862 20.4418 14.1519 -8.94972
581 1 9.43434 18.8704 12.5794 -8.94934
582 1 11.007 20.4421 14.1519 -8.95071
583 1 12.5799 18.8701 12.5794 -8.94929
584 1 14.1519 20.4416 14.1518 -8.94952
585 1 15.7243 18.8692 12.5794 -8.94968
586 1 17.2966 20.4415 14.1518 -8.94965
587 1 18.8691 18.8691 12.5794 -8.94963
588 1 20.4415 20.4415 14.1518 -8.94964
589 1 1.57141 11.007 17.2971 -8.94916
590 1 4.71289 11.007 17.3011 -8.94517
591 1 7.85951 11.007 17.2995 -8.99815
592 1 11.0061 11.007 17.2962 -8.94811
593 1 14.1524 11.007 17.2974 -8.94782
594 1 17.2968 11.007 17.2968 -8.94957
595 1 20.4414 11.007 17.2967 -8.94971
596 1 22.0132 12.5795 15.7243 -8.95076
597 1 1.57129 14.1523 17.2971 -8.95024
598 1 3.13952 12.5807 15.7257 -8.95598
599 1 4.71081 14.1583 17.303 -8.93335
600 1 6.25787 12.6075 15.7531 -8.85806
601 1 7.86274 14.1536 17.3004 -8.95099
602 1 9.44482 12.5937 15.7294 -8.91352
603 1 11.0095 14.1542 17.3022 -8.95366
604 1 12.5815 12.5774 15.7251 -8.95118
605 1 14.1523 14.1517 17.297 -8.95061
606 1 15.7248 12.5792 15.7245 -8.94945
607 1 17.2967 14.1518 17.2967 -8.94961
608 1 18.8691 12.5794 15.7243 -8.94977
609 1 20.4414 14.1518 17.2967 -8.94981
610 1 22.0138 15.7243 15.7242 -8.94961
611 1 1.57235 17.2967 17.2966 -8.9499
612 1 3.14438 15.7246 15.7241 -8.95061
613 1 4.71661 17.2979 17.2973 -8.94986
614 1 6.28712 15.7298 15.7267 -8.95366
615 1 7.86202 17.2974 17.2972 -8.94866
616 1 9.4339 15.728 15.7261 -8.95099
617 1 11.007 17.2972 17.2971 -8.94979
618 1 12.5858 15.7306 15.7307 -8.93335
619 1 14.1529 17.2977 17.2977 -8.94662
620 1 15.7253 15.7247 15.7247 -8.95024
621 1 17.2968 17.2967 17.2967 -8.94962
622 1 18.8692 15.7243 15.7243 -8.94981
623 1 20.4415 17.2967 17.2966 -8.94965
624 1 -1.17257e-05 18.8691 15.7242 -8.94961
625 1 1.57242 20.4415 17.2966 -8.94965
626 1 3.14479 18.8691 15.7242 -8.94966
627 1 4.7172 20.4416 17.2967 -8.94983
628 1 6.28949 18.8698 15.7244 -8.95087
629 1 7.86208 20.4416 17.2967 -8.94959
630 1 9.43434 18.8698 15.7245 -8.9497
631 1 11.0069 20.4416 17.2967 -8.94958
632 1 12.5798 18.8701 15.7247 -8.95047
633 1 14.1519 20.4416 17.2967 -8.94966
634 1 15.7243 18.8691 15.7242 -8.94969
635 1 17.2966 20.4415 17.2966 -8.94967
636 1 18.8691 18.8691 15.7242 -8.94962
637 1 20.4415 20.4415 17.2966 -8.94963
638 1 1.57232 11.007 20.4416 -8.94968
639 1 4.71676 11.007 20.4425 -8.94929
640 1 7.86229 11.007 20.4428 -8.94934
641 1 11.0071 11.007 20.4417 -8.94898
642 1 14.1519 11.007 20.4416 -8.94962
643 1 17.2966 11.007 20.4415 -8.94965
644 1 20.4415 11.007 20.4415 -8.94963
645 1 -0.000141037 12.5794 18.8691 -8.94953
646 1 1.57233 14.1518 20.4416 -8.94969
647 1 3.14416 12.5796 18.8698 -8.949
648 1 4.71681 14.1523 20.4425 -8.95047
649 1 6.28855 12.5803 18.8738 -8.95639
650 1 7.8623 14.1521 20.4422 -8.9497
651 1 9.43492 12.5797 18.8706 -8.94997
652 1 11.0071 14.152 20.4422 -8.95087
653 1 12.5796 12.5791 18.8694 -8.94954
654 1 14.1518 14.1518 20.4415 -8.94966
655 1 15.7243 12.5794 18.8692 -8.94947
656 1 17.2966 14.1518 20.4415 -8.94961
657 1 18.8691 12.5794 18.8691 -8.94962
658 1 20.4415 14.1518 20.4415 -8.94962
659 1 22.0137 15.7243 18.8692 -8.94962
660 1 1.57228 17.2968 20.4416 -8.94916
661 1 3.14378 15.7253 18.8701 -8.94662
662 1 4.71726 17.2967 20.4416 -8.94981
663 1 6.28968 15.7247 18.8697 -8.94979
371 1 9.43456 15.7243 22.014 -8.94959
353 1 3.14474 12.5794 22.014 -8.94952
361 1 15.7242 12.5794 22.0139 -8.94962
369 1 6.2897 15.7243 22.014 -8.94958
365 1 -9.00696e-06 15.7242 22.0139 -8.94967
381 1 3.14484 18.8691 22.0139 -8.94968
387 1 12.5794 18.8691 22.0139 -8.94963
537 1 14.1519 20.4416 11.0069 -8.94952
530 1 14.1525 17.2973 11.0067 -8.949
