ITEM: TIMESTEP
52
ITEM: NUMBER OF ATOMS
687
ITEM: BOX BOUNDS pp pp pp
0.0000000000000000e+00 2.2013900999999997e+01
0.0000000000000000e+00 2.2013900999999997e+01
0.0000000000000000e+00 2.2013900999999997e+01
ITEM: ATOMS id type x y z c_pot
1 1 22.0139 -1.67285e-15 3.88407e-08 -8.94963
2 1 1.57242 1.57242 1.57242 -8.94963
196 1 20.4415 7.8621 11.0069 -8.94966
4 1 4.71726 1.57242 1.57242 -8.94963
5 1 6.28969 -1.52403e-15 1.79765e-09 -8.94963
6 1 7.86211 1.57242 1.57242 -8.94963
175 1 18.8691 9.43453 9.43453 -8.94966
8 1 11.007 1.57242 1.57242 -8.94963
9 1 12.5794 6.49207e-16 2.85669e-08 -8.94963
10 1 14.1518 1.57242 1.57242 -8.94963
195 1 17.2967 7.86209 11.0069 -8.9499
12 1 17.2966 1.57242 1.57242 -8.94963
13 1 18.8691 3.82273e-16 1.2082e-08 -8.94963
14 1 20.4415 1.57242 1.57242 -8.94963
15 1 22.0139 3.14484 2.21858e-07 -8.94963
16 1 1.57242 4.71726 1.57242 -8.94963
194 1 14.1531 7.86175 11.0066 -8.95232
18 1 4.71727 4.71727 1.57242 -8.94964
174 1 15.7243 9.43453 9.43448 -8.9496
20 1 7.86211 4.71726 1.57242 -8.94964
173 1 12.5802 9.43472 9.43402 -8.94941
22 1 11.007 4.71726 1.57242 -8.94963
193 1 11.0222 7.84779 10.9924 -8.87867
24 1 14.1518 4.71726 1.57242 -8.94963
25 1 15.7242 3.14484 5.27233e-07 -8.94963
26 1 17.2966 4.71726 1.57242 -8.94963
27 1 18.8691 3.14484 8.02329e-09 -8.94963
28 1 20.4415 4.71726 1.57242 -8.94963
192 1 7.85727 7.85915 11.0011 -8.92665
30 1 1.57242 7.86211 1.57242 -8.94963
31 1 3.14484 6.28968 9.83859e-06 -8.94962
32 1 4.71726 7.8621 1.57242 -8.94967
172 1 9.43937 9.4287 9.43157 -8.92665
34 1 7.86211 7.86211 1.57242 -8.94964
171 1 6.27444 9.41995 9.42021 -8.87867
36 1 11.007 7.8621 1.57242 -8.94966
37 1 12.5794 6.28968 9.08698e-06 -8.94964
38 1 14.1518 7.86211 1.57242 -8.94964
39 1 15.7242 6.28969 -2.13957e-07 -8.94963
40 1 17.2966 7.86211 1.57242 -8.94963
41 1 18.8691 6.28969 -2.70661e-08 -8.94963
42 1 20.4415 7.86211 1.57242 -8.94963
170 1 3.14355 9.43417 9.43417 -8.95232
169 1 22.0138 9.43452 9.43452 -8.9499
45 1 6.28966 9.43451 8.70998e-05 -8.9499
46 1 9.43455 9.43451 5.45996e-05 -8.94968
47 1 12.5794 9.43453 1.92476e-06 -8.94965
168 1 18.8691 6.28968 9.43453 -8.94965
167 1 15.7243 6.28963 9.43447 -8.94974
50 1 22.0139 -1.31695e-15 3.14484 -8.94963
51 1 1.57242 1.57242 4.71726 -8.94963
52 1 3.14484 -6.34679e-16 3.14484 -8.94963
53 1 4.71726 1.57242 4.71726 -8.94963
54 1 6.28969 -1.40903e-15 3.14484 -8.94963
55 1 7.86211 1.57242 4.71726 -8.94963
56 1 9.43453 -5.50085e-16 3.14484 -8.94963
57 1 11.007 1.57242 4.71726 -8.94963
58 1 12.5794 4.49044e-16 3.14484 -8.94963
59 1 14.1518 1.57242 4.71726 -8.94964
60 1 15.7242 4.83657e-16 3.14484 -8.94963
61 1 17.2966 1.57242 4.71726 -8.94963
62 1 18.8691 -4.10919e-17 3.14484 -8.94963
63 1 20.4415 1.57242 4.71726 -8.94963
64 1 22.0139 3.14484 3.14484 -8.94963
65 1 1.57242 4.71726 4.71726 -8.94958
66 1 3.14484 3.14484 3.14484 -8.94964
67 1 4.71727 4.71727 4.71727 -8.9497
68 1 6.28969 3.14484 3.14484 -8.94963
69 1 7.86211 4.71726 4.71726 -8.94965
70 1 9.43453 3.14484 3.14484 -8.94963
71 1 11.0069 4.71726 4.71727 -8.94963
72 1 12.5794 3.14484 3.14484 -8.94963
73 1 14.1518 4.71726 4.71725 -8.94962
74 1 15.7242 3.14484 3.14484 -8.94963
75 1 17.2966 4.71726 4.71726 -8.94964
76 1 18.8691 3.14484 3.14484 -8.94963
77 1 20.4415 4.71726 4.71726 -8.94963
78 1 3.41037e-07 6.28969 3.14484 -8.94964
79 1 1.57242 7.86211 4.71727 -8.94969
80 1 3.14484 6.28968 3.14483 -8.94962
81 1 4.7172 7.86204 4.71713 -8.94971
82 1 6.28969 6.28969 3.14484 -8.94963
83 1 7.86213 7.86208 4.7172 -8.94961
84 1 9.43453 6.28968 3.14484 -8.94963
85 1 11.007 7.86207 4.71716 -8.94981
86 1 12.5794 6.28968 3.14483 -8.94964
87 1 14.1518 7.86211 4.71726 -8.94965
88 1 15.7242 6.28969 3.14484 -8.94963
89 1 17.2966 7.86211 4.71726 -8.94963
90 1 18.8691 6.28969 3.14484 -8.94963
91 1 20.4415 7.86211 4.71726 -8.94963
92 1 22.0139 9.43453 3.14484 -8.94963
93 1 3.14484 9.43453 3.14484 -8.94962
94 1 6.28966 9.43451 3.14476 -8.9499
95 1 9.43455 9.43451 3.14479 -8.94968
96 1 12.5794 9.43453 3.14484 -8.94965
97 1 15.7242 9.43453 3.14484 -8.94963
98 1 18.8691 9.43453 3.14484 -8.94963
99 1 22.0139 1.66824e-15 6.28969 -8.94963
100 1 1.57242 1.57242 7.86211 -8.94963
101 1 3.14484 5.48651e-16 6.28969 -8.94963
102 1 4.71726 1.57241 7.8621 -8.94964
103 1 6.28969 6.13487e-16 6.28969 -8.94963
104 1 7.86211 1.57242 7.86211 -8.94963
105 1 9.43453 -1.44669e-15 6.28969 -8.94964
106 1 11.0069 1.57242 7.86211 -8.94963
107 1 12.5794 -1.97001e-16 6.28969 -8.94964
108 1 14.1518 1.57241 7.8621 -8.94962
109 1 15.7242 1.90222e-15 6.28969 -8.94963
110 1 17.2966 1.57242 7.86211 -8.94964
111 1 18.8691 8.11119e-16 6.28969 -8.94963
112 1 20.4415 1.57242 7.86211 -8.94963
113 1 22.0139 3.14484 6.28969 -8.94964
114 1 1.57242 4.71727 7.86211 -8.94968
115 1 3.14484 3.14483 6.28968 -8.94962
116 1 4.7172 4.71713 7.86204 -8.94967
117 1 6.28969 3.14484 6.28969 -8.94963
118 1 7.86211 4.71721 7.86205 -8.94951
119 1 9.43453 3.14484 6.28968 -8.94965
120 1 11.0069 4.71726 7.86211 -8.95001
121 1 12.5794 3.14485 6.28969 -8.9497
122 1 14.1519 4.71715 7.862 -8.94894
123 1 15.7242 3.14484 6.28968 -8.94958
124 1 17.2966 4.71726 7.8621 -8.94963
125 1 18.8691 3.14484 6.28969 -8.94963
126 1 20.4415 4.71726 7.86211 -8.94963
127 1 22.0139 6.28968 6.28968 -8.94963
128 1 1.5723 7.86205 7.86205 -8.94974
129 1 3.14473 6.28957 6.28957 -8.94894
130 1 4.71577 7.86057 7.86061 -8.94208
131 1 6.28971 6.28968 6.28968 -8.95001
132 1 7.86239 7.86184 7.86141 -8.95136
133 1 9.43452 6.28963 6.28963 -8.94951
134 1 11.0075 7.86159 7.86072 -8.95157
135 1 12.5794 6.28962 6.28955 -8.94967
136 1 14.1518 7.8621 7.86208 -8.94993
137 1 15.7242 6.28969 6.28969 -8.94968
138 1 17.2966 7.86211 7.86211 -8.94963
139 1 18.8691 6.28969 6.28969 -8.94963
140 1 20.4415 7.86211 7.86211 -8.94965
141 1 -1.0479e-06 9.43453 6.28969 -8.94963
142 1 3.14482 9.43453 6.28967 -8.94983
143 1 6.28924 9.43409 6.28833 -8.95203
144 1 9.43489 9.43418 6.28906 -8.94894
145 1 12.5794 9.43456 6.28963 -8.94977
146 1 15.7242 9.43453 6.28969 -8.94965
147 1 18.8691 9.43453 6.28969 -8.94963
148 1 1.47872e-08 1.74075e-15 9.43453 -8.94963
149 1 3.14484 2.01388e-15 9.43453 -8.94964
150 1 6.28968 2.05206e-15 9.43452 -8.94966
151 1 9.43453 -2.56504e-16 9.43453 -8.94964
152 1 12.5794 -7.78283e-16 9.43452 -8.94967
153 1 15.7242 5.62583e-16 9.43453 -8.94963
154 1 18.8691 1.15413e-15 9.43453 -8.94963
155 1 1.42193e-07 3.14484 9.43453 -8.94963
156 1 3.14484 3.14484 9.43453 -8.94965
157 1 6.28965 3.14473 9.43449 -8.94981
158 1 9.43451 3.14478 9.4345 -8.94961
159 1 12.5794 3.14471 9.43446 -8.94971
160 1 15.7242 3.14485 9.43453 -8.94969
161 1 18.8691 3.14484 9.43453 -8.94963
162 1 22.0139 6.28968 9.43453 -8.94963
163 1 3.14481 6.28966 9.43452 -8.94993
164 1 6.28914 6.2883 9.43401 -8.95157
165 1 9.43424 6.28899 9.43426 -8.95136
166 1 12.5809 6.28818 9.433 -8.94208
177 1 4.71726 1.57242 11.007 -8.94965
178 1 7.86209 1.57237 11.0069 -8.94968
179 1 11.007 1.57233 11.0069 -8.9499
191 1 4.71643 7.8616 11.0071 -8.94941
181 1 17.2966 1.57242 11.007 -8.94963
182 1 20.4415 1.57242 11.007 -8.94963
184 1 4.71722 4.71721 11.007 -8.94977
185 1 7.86175 4.71663 11.0066 -8.94894
186 1 11.0074 4.71591 11.0065 -8.95203
190 1 1.57232 7.86206 11.007 -8.9496
19 1 6.28969 3.14484 1.64968e-07 -8.94963
49 1 18.8691 9.43453 3.65205e-09 -8.94963
21 1 9.43453 3.14484 -6.63345e-08 -8.94963
43 1 22.0139 9.43453 3.76363e-10 -8.94963
176 1 1.57242 1.57242 11.007 -8.94963
343 1 18.8691 9.43453 18.8691 -8.94963
342 1 15.7242 9.43453 18.8691 -8.94965
341 1 12.5794 9.43456 18.8691 -8.94977
340 1 9.43489 9.43418 18.8697 -8.94894
339 1 6.28924 9.43409 18.8704 -8.95203
338 1 3.14482 9.43453 18.8691 -8.94983
183 1 1.57242 4.71726 11.007 -8.94965
337 1 -1.0479e-06 9.43453 18.8691 -8.94963
336 1 20.4415 7.86211 20.4415 -8.94963
335 1 18.8691 6.28969 18.8691 -8.94963
334 1 17.2966 7.86211 20.4415 -8.94963
188 1 17.2966 4.71726 11.007 -8.94963
189 1 20.4415 4.71726 11.007 -8.94963
333 1 15.7242 6.28969 18.8691 -8.94968
332 1 14.1518 7.86211 20.4415 -8.94965
331 1 12.5794 6.28962 18.8692 -8.94967
330 1 11.007 7.86207 20.4416 -8.94981
329 1 9.43452 6.28963 18.8691 -8.94951
328 1 7.86213 7.86208 20.4415 -8.94961
327 1 6.28971 6.28968 18.8691 -8.95001
197 1 4.74441e-08 1.21327e-15 12.5794 -8.94963
198 1 1.57242 1.57242 14.1518 -8.94963
199 1 3.14484 2.20406e-15 12.5794 -8.94963
200 1 4.71726 1.57242 14.1518 -8.94965
201 1 6.28969 1.43475e-15 12.5794 -8.94963
202 1 7.86209 1.57237 14.1518 -8.94968
203 1 9.43453 4.34138e-16 12.5794 -8.94998
204 1 11.007 1.57233 14.1518 -8.9499
205 1 12.5794 -3.72541e-16 12.5794 -8.94964
206 1 14.1518 1.57242 14.1518 -8.94962
207 1 15.7242 4.34102e-16 12.5794 -8.94964
208 1 17.2966 1.57242 14.1518 -8.94963
209 1 18.8691 1.1375e-15 12.5794 -8.94963
210 1 20.4415 1.57242 14.1518 -8.94963
211 1 22.0139 3.14484 12.5794 -8.94964
212 1 1.57242 4.71726 14.1518 -8.94965
213 1 3.14484 3.14484 12.5794 -8.94961
214 1 4.71722 4.71721 14.1518 -8.94977
215 1 6.28968 3.14482 12.5794 -8.94958
216 1 7.86175 4.71663 14.1521 -8.94894
217 1 9.4345 3.14412 12.5794 -8.95143
218 1 11.0074 4.71591 14.1522 -8.95203
219 1 12.5794 3.14476 12.5794 -8.94952
220 1 14.1518 4.71725 14.1518 -8.94983
221 1 15.7242 3.14484 12.5794 -8.94967
222 1 17.2966 4.71726 14.1518 -8.94963
223 1 18.8691 3.14484 12.5794 -8.94963
224 1 20.4415 4.71726 14.1518 -8.94963
225 1 -3.41143e-06 6.28968 12.5794 -8.94962
226 1 1.57232 7.86206 14.1518 -8.9496
227 1 3.1448 6.28961 12.5794 -8.94923
228 1 4.71643 7.8616 14.1516 -8.94941
229 1 6.28985 6.28953 12.5794 -8.95081
230 1 7.85727 7.85915 14.1576 -8.92665
231 1 9.43515 6.28238 12.5794 -8.98385
232 1 11.0222 7.84779 14.1664 -8.87867
233 1 12.5802 6.28884 12.5794 -8.94971
234 1 14.1531 7.86175 14.1521 -8.95232
235 1 15.7243 6.28964 12.5794 -8.94953
236 1 17.2967 7.86209 14.1518 -8.9499
237 1 18.8691 6.28968 12.5794 -8.94964
238 1 20.4415 7.8621 14.1518 -8.94966
239 1 22.0138 9.4345 12.5794 -8.94964
240 1 3.1442 9.4341 12.5794 -8.94746
241 1 6.28984 9.4331 12.5794 -8.90456
242 1 9.51062 9.25824 12.5794 -8.05879
243 1 12.5864 9.43319 12.5794 -8.96716
244 1 15.7248 9.43455 12.5794 -8.95129
245 1 18.8691 9.43453 12.5794 -8.94976
246 1 1.47872e-08 1.64617e-15 15.7242 -8.94963
247 1 1.57242 1.57242 17.2966 -8.94963
248 1 3.14484 1.99942e-15 15.7242 -8.94964
249 1 4.71726 1.57241 17.2966 -8.94964
250 1 6.28968 1.86013e-15 15.7242 -8.94966
251 1 7.86211 1.57242 17.2966 -8.94963
252 1 9.43453 -5.49779e-16 15.7242 -8.94964
253 1 11.0069 1.57242 17.2966 -8.94963
254 1 12.5794 -1.04918e-15 15.7242 -8.94967
255 1 14.1518 1.57241 17.2966 -8.94962
256 1 15.7242 6.22193e-16 15.7242 -8.94963
257 1 17.2966 1.57242 17.2966 -8.94964
258 1 18.8691 1.275e-15 15.7242 -8.94963
259 1 20.4415 1.57242 17.2966 -8.94963
260 1 1.42193e-07 3.14484 15.7242 -8.94963
261 1 1.57242 4.71727 17.2966 -8.94968
262 1 3.14484 3.14484 15.7242 -8.94965
263 1 4.7172 4.71713 17.2967 -8.94967
264 1 6.28965 3.14473 15.7243 -8.94981
265 1 7.86211 4.71721 17.2967 -8.94951
266 1 9.43451 3.14478 15.7242 -8.94961
267 1 11.0069 4.71726 17.2966 -8.95001
268 1 12.5794 3.14471 15.7243 -8.94971
269 1 14.1519 4.71715 17.2967 -8.94894
270 1 15.7242 3.14485 15.7242 -8.94969
271 1 17.2966 4.71726 17.2966 -8.94963
272 1 18.8691 3.14484 15.7242 -8.94963
273 1 20.4415 4.71726 17.2966 -8.94963
274 1 22.0139 6.28968 15.7242 -8.94963
275 1 1.5723 7.86205 17.2967 -8.94974
276 1 3.14481 6.28966 15.7242 -8.94993
277 1 4.71577 7.86057 17.2981 -8.94208
278 1 6.28914 6.2883 15.7247 -8.95157
279 1 7.86239 7.86184 17.2973 -8.95136
280 1 9.43424 6.28899 15.7245 -8.95136
281 1 11.0075 7.86159 17.298 -8.95157
282 1 12.5809 6.28818 15.7257 -8.94208
283 1 14.1518 7.8621 17.2967 -8.94993
284 1 15.7243 6.28963 15.7243 -8.94974
285 1 17.2966 7.86211 17.2966 -8.94963
286 1 18.8691 6.28968 15.7242 -8.94965
287 1 20.4415 7.86211 17.2966 -8.94965
288 1 22.0138 9.43452 15.7242 -8.9499
289 1 3.14355 9.43417 15.7246 -8.95232
290 1 6.27444 9.41995 15.7385 -8.87867
291 1 9.43937 9.4287 15.7272 -8.92665
292 1 12.5802 9.43472 15.7247 -8.94941
293 1 15.7243 9.43453 15.7243 -8.9496
294 1 18.8691 9.43453 15.7242 -8.94966
295 1 22.0139 1.38598e-15 18.8691 -8.94963
296 1 1.57242 1.57242 20.4415 -8.94963
297 1 3.14484 6.64389e-16 18.8691 -8.94963
298 1 4.71726 1.57242 20.4415 -8.94963
299 1 6.28969 1.19355e-15 18.8691 -8.94963
300 1 7.86211 1.57242 20.4415 -8.94963
301 1 9.43453 -1.67473e-15 18.8691 -8.94964
302 1 11.007 1.57242 20.4415 -8.94963
303 1 12.5794 -2.58046e-16 18.8691 -8.94964
304 1 14.1518 1.57242 20.4415 -8.94964
305 1 15.7242 1.76146e-15 18.8691 -8.94963
306 1 17.2966 1.57242 20.4415 -8.94963
307 1 18.8691 6.57843e-16 18.8691 -8.94963
308 1 20.4415 1.57242 20.4415 -8.94963
309 1 22.0139 3.14484 18.8691 -8.94964
310 1 1.57242 4.71726 20.4415 -8.94958
311 1 3.14484 3.14483 18.8691 -8.94962
312 1 4.71727 4.71727 20.4415 -8.9497
313 1 6.28969 3.14484 18.8691 -8.94963
314 1 7.86211 4.71726 20.4415 -8.94965
315 1 9.43453 3.14484 18.8691 -8.94965
316 1 11.0069 4.71726 20.4415 -8.94963
317 1 12.5794 3.14485 18.8691 -8.9497
318 1 14.1518 4.71726 20.4415 -8.94962
319 1 15.7242 3.14484 18.8691 -8.94958
320 1 17.2966 4.71726 20.4415 -8.94964
321 1 18.8691 3.14484 18.8691 -8.94963
322 1 20.4415 4.71726 20.4415 -8.94963
323 1 22.0139 6.28968 18.8691 -8.94963
324 1 1.57242 7.86211 20.4415 -8.94969
325 1 3.14473 6.28957 18.8692 -8.94894
326 1 4.7172 7.86204 20.4416 -8.94971
7 1 9.43453 -4.59082e-16 22.0139 -8.94963
48 1 15.7242 9.43453 22.0139 -8.94963
44 1 3.14484 9.43453 22.0139 -8.94962
33 1 6.28969 6.28969 22.0139 -8.94963
35 1 9.43453 6.28968 22.0139 -8.94963
3 1 3.14484 -1.00559e-15 22.0139 -8.94963
11 1 15.7242 5.05571e-16 22.0139 -8.94963
17 1 3.14484 3.14484 22.0139 -8.94964
23 1 12.5794 3.14484 22.0139 -8.94963
29 1 3.41037e-07 6.28969 22.0139 -8.94964
180 1 14.1518 1.57242 11.007 -8.94962
187 1 14.1518 4.71725 11.0069 -8.94983
344 1 1.57242 11.007 1.57242 -8.94964
345 1 4.71726 11.007 1.57242 -8.94964
346 1 7.86211 11.007 1.57242 -8.94998
347 1 11.007 11.007 1.57242 -8.94963
348 1 14.1518 11.007 1.57242 -8.94963
349 1 17.2966 11.007 1.57242 -8.94963
350 1 20.4415 11.007 1.57242 -8.94963
511 1 18.8691 18.8691 9.43453 -8.94963
352 1 1.57242 14.1518 1.57242 -8.94963
510 1 15.7242 18.8691 9.43453 -8.94969
354 1 4.71726 14.1518 1.57242 -8.94967
355 1 6.28966 12.5794 8.70998e-05 -8.9499
356 1 7.86211 14.1518 1.57242 -8.94964
357 1 9.43455 12.5794 5.45996e-05 -8.94968
358 1 11.007 14.1518 1.57242 -8.94966
359 1 12.5794 12.5794 1.92476e-06 -8.94965
360 1 14.1518 14.1518 1.57242 -8.94964
509 1 12.5794 18.8692 9.43446 -8.94971
362 1 17.2966 14.1518 1.57242 -8.94963
508 1 9.43451 18.8691 9.4345 -8.94961
364 1 20.4415 14.1518 1.57242 -8.94963
539 1 20.4415 20.4415 11.007 -8.94963
366 1 1.57242 17.2966 1.57242 -8.94963
367 1 3.14484 15.7242 9.83859e-06 -8.94962
368 1 4.71727 17.2966 1.57242 -8.94964
507 1 6.28965 18.8692 9.43449 -8.94981
370 1 7.86211 17.2966 1.57242 -8.94964
506 1 3.14484 18.8691 9.43453 -8.94965
372 1 11.007 17.2966 1.57242 -8.94963
373 1 12.5794 15.7242 9.08698e-06 -8.94964
374 1 14.1518 17.2966 1.57242 -8.94963
375 1 15.7242 15.7242 -2.13957e-07 -8.94963
376 1 17.2966 17.2966 1.57242 -8.94963
377 1 18.8691 15.7242 -2.70661e-08 -8.94963
378 1 20.4415 17.2966 1.57242 -8.94963
379 1 22.0139 18.8691 2.21858e-07 -8.94963
380 1 1.57242 20.4415 1.57242 -8.94963
538 1 17.2966 20.4415 11.007 -8.94963
382 1 4.71726 20.4415 1.57242 -8.94963
505 1 1.42193e-07 18.8691 9.43453 -8.94963
384 1 7.86211 20.4415 1.57242 -8.94963
504 1 18.8691 15.7242 9.43453 -8.94965
386 1 11.007 20.4415 1.57242 -8.94963
536 1 11.007 20.4416 11.0069 -8.9499
388 1 14.1518 20.4415 1.57242 -8.94963
389 1 15.7242 18.8691 5.27233e-07 -8.94963
390 1 17.2966 20.4415 1.57242 -8.94963
391 1 18.8691 18.8691 8.02329e-09 -8.94963
392 1 20.4415 20.4415 1.57242 -8.94963
393 1 1.57242 11.007 4.71727 -8.94967
394 1 4.71722 11.007 4.71718 -8.94952
395 1 7.86214 11.007 4.71654 -8.95143
396 1 11.007 11.007 4.71724 -8.94958
397 1 14.1518 11.007 4.71726 -8.94961
398 1 17.2966 11.007 4.71726 -8.94964
399 1 20.4415 11.007 4.71726 -8.94963
400 1 22.0139 12.5794 3.14484 -8.94963
401 1 1.57242 14.1518 4.71727 -8.94969
402 1 3.14484 12.5794 3.14484 -8.94962
403 1 4.7172 14.1519 4.71713 -8.94971
404 1 6.28966 12.5794 3.14476 -8.9499
405 1 7.86213 14.1518 4.7172 -8.94961
406 1 9.43455 12.5794 3.14479 -8.94968
407 1 11.007 14.1518 4.71716 -8.94981
408 1 12.5794 12.5794 3.14484 -8.94965
409 1 14.1518 14.1518 4.71726 -8.94965
410 1 15.7242 12.5794 3.14484 -8.94963
411 1 17.2966 14.1518 4.71726 -8.94963
412 1 18.8691 12.5794 3.14484 -8.94963
413 1 20.4415 14.1518 4.71726 -8.94963
414 1 3.41037e-07 15.7242 3.14484 -8.94964
415 1 1.57242 17.2966 4.71726 -8.94958
416 1 3.14484 15.7242 3.14483 -8.94962
417 1 4.71727 17.2966 4.71727 -8.9497
418 1 6.28969 15.7242 3.14484 -8.94963
419 1 7.86211 17.2966 4.71726 -8.94965
420 1 9.43453 15.7242 3.14484 -8.94963
421 1 11.0069 17.2966 4.71727 -8.94963
422 1 12.5794 15.7242 3.14483 -8.94964
423 1 14.1518 17.2966 4.71725 -8.94962
424 1 15.7242 15.7242 3.14484 -8.94963
425 1 17.2966 17.2966 4.71726 -8.94964
426 1 18.8691 15.7242 3.14484 -8.94963
427 1 20.4415 17.2966 4.71726 -8.94963
428 1 22.0139 18.8691 3.14484 -8.94963
429 1 1.57242 20.4415 4.71726 -8.94963
430 1 3.14484 18.8691 3.14484 -8.94964
431 1 4.71726 20.4415 4.71726 -8.94963
432 1 6.28969 18.8691 3.14484 -8.94963
433 1 7.86211 20.4415 4.71726 -8.94963
434 1 9.43453 18.8691 3.14484 -8.94963
435 1 11.007 20.4415 4.71726 -8.94963
436 1 12.5794 18.8691 3.14484 -8.94963
437 1 14.1518 20.4415 4.71726 -8.94964
438 1 15.7242 18.8691 3.14484 -8.94963
439 1 17.2966 20.4415 4.71726 -8.94963
440 1 18.8691 18.8691 3.14484 -8.94963
441 1 20.4415 20.4415 4.71726 -8.94963
442 1 1.57234 11.007 7.86207 -8.94953
443 1 4.71648 11.007 7.86126 -8.94971
444 1 7.86148 11.007 7.8548 -8.98385
445 1 11.0068 11.007 7.86195 -8.95081
446 1 14.1518 11.007 7.86203 -8.94923
447 1 17.2966 11.007 7.8621 -8.94962
448 1 20.4415 11.007 7.86211 -8.94964
449 1 -1.0479e-06 12.5794 6.28969 -8.94963
450 1 1.5723 14.1519 7.86205 -8.94974
451 1 3.14482 12.5794 6.28967 -8.94983
452 1 4.71577 14.1533 7.86061 -8.94208
453 1 6.28924 12.5798 6.28833 -8.95203
454 1 7.86239 14.1521 7.86141 -8.95136
455 1 9.43489 12.5797 6.28906 -8.94894
456 1 11.0075 14.1523 7.86072 -8.95157
457 1 12.5794 12.5793 6.28963 -8.94977
458 1 14.1518 14.1518 7.86208 -8.94993
459 1 15.7242 12.5794 6.28969 -8.94965
460 1 17.2966 14.1518 7.86211 -8.94963
461 1 18.8691 12.5794 6.28969 -8.94963
462 1 20.4415 14.1518 7.86211 -8.94965
463 1 22.0139 15.7242 6.28968 -8.94963
464 1 1.57242 17.2966 7.86211 -8.94968
465 1 3.14473 15.7243 6.28957 -8.94894
466 1 4.7172 17.2968 7.86204 -8.94967
467 1 6.28971 15.7242 6.28968 -8.95001
468 1 7.86211 17.2967 7.86205 -8.94951
469 1 9.43452 15.7243 6.28963 -8.94951
470 1 11.0069 17.2966 7.86211 -8.95001
471 1 12.5794 15.7243 6.28955 -8.94967
472 1 14.1519 17.2967 7.862 -8.94894
473 1 15.7242 15.7242 6.28969 -8.94968
474 1 17.2966 17.2966 7.8621 -8.94963
475 1 18.8691 15.7242 6.28969 -8.94963
476 1 20.4415 17.2966 7.86211 -8.94963
477 1 22.0139 18.8691 6.28969 -8.94964
478 1 1.57242 20.4415 7.86211 -8.94963
479 1 3.14484 18.8691 6.28968 -8.94962
480 1 4.71726 20.4415 7.8621 -8.94964
481 1 6.28969 18.8691 6.28969 -8.94963
482 1 7.86211 20.4415 7.86211 -8.94963
483 1 9.43453 18.8691 6.28968 -8.94965
484 1 11.0069 20.4415 7.86211 -8.94963
485 1 12.5794 18.8691 6.28969 -8.9497
486 1 14.1518 20.4415 7.8621 -8.94962
487 1 15.7242 18.8691 6.28968 -8.94958
488 1 17.2966 20.4415 7.86211 -8.94964
489 1 18.8691 18.8691 6.28969 -8.94963
490 1 20.4415 20.4415 7.86211 -8.94963
491 1 22.0138 12.5794 9.43452 -8.9499
492 1 3.14355 12.5797 9.43417 -8.95232
493 1 6.27444 12.594 9.42021 -8.87867
494 1 9.43937 12.5852 9.43157 -8.92665
495 1 12.5802 12.5792 9.43402 -8.94941
496 1 15.7243 12.5794 9.43448 -8.9496
497 1 18.8691 12.5794 9.43453 -8.94966
498 1 22.0139 15.7242 9.43453 -8.94963
499 1 3.14481 15.7242 9.43452 -8.94993
500 1 6.28914 15.7256 9.43401 -8.95157
501 1 9.43424 15.7249 9.43426 -8.95136
502 1 12.5809 15.7257 9.433 -8.94208
503 1 15.7243 15.7243 9.43447 -8.94974
512 1 1.57188 11.007 11.007 -8.95129
513 1 4.71023 11.007 11.0056 -8.96716
514 1 7.78602 11.007 10.8307 -8.05879
515 1 11.0068 11.007 11.0055 -8.90456
516 1 14.1524 11.007 11.0065 -8.94746
517 1 17.2967 11.007 11.0069 -8.94964
518 1 20.4415 11.007 11.007 -8.94976
519 1 1.57232 14.1518 11.007 -8.9496
520 1 4.71643 14.1523 11.0071 -8.94941
521 1 7.85727 14.1548 11.0011 -8.92665
522 1 11.0222 14.1661 10.9924 -8.87867
523 1 14.1531 14.1522 11.0066 -8.95232
524 1 17.2967 14.1518 11.0069 -8.9499
525 1 20.4415 14.1518 11.0069 -8.94966
527 1 4.71722 17.2967 11.007 -8.94977
528 1 7.86175 17.2973 11.0066 -8.94894
529 1 11.0074 17.298 11.0065 -8.95203
535 1 7.86209 20.4415 11.0069 -8.94968
534 1 4.71726 20.4415 11.007 -8.94965
351 1 22.0139 12.5794 3.76363e-10 -8.94963
385 1 9.43453 18.8691 -6.63345e-08 -8.94963
383 1 6.28969 18.8691 1.64968e-07 -8.94963
363 1 18.8691 12.5794 3.65205e-09 -8.94963
687 3 8.64832 11.007 12.5794 2.66075
686 1 20.4415 20.4415 20.4415 -8.94963
685 1 18.8691 18.8691 18.8691 -8.94963
684 1 17.2966 20.4415 20.4415 -8.94963
683 1 15.7242 18.8691 18.8691 -8.94958
682 1 14.1518 20.4415 20.4415 -8.94964
681 1 12.5794 18.8691 18.8691 -8.9497
680 1 11.007 20.4415 20.4415 -8.94963
679 1 9.43453 18.8691 18.8691 -8.94965
678 1 7.86211 20.4415 20.4415 -8.94963
677 1 6.28969 18.8691 18.8691 -8.94963
676 1 4.71726 20.4415 20.4415 -8.94963
675 1 3.14484 18.8691 18.8691 -8.94962
674 1 1.57242 20.4415 20.4415 -8.94963
526 1 1.57242 17.2966 11.007 -8.94965
673 1 22.0139 18.8691 18.8691 -8.94964
672 1 20.4415 17.2966 20.4415 -8.94963
671 1 18.8691 15.7242 18.8691 -8.94963
670 1 17.2966 17.2966 20.4415 -8.94964
531 1 17.2966 17.2966 11.007 -8.94963
532 1 20.4415 17.2966 11.007 -8.94963
533 1 1.57242 20.4415 11.007 -8.94963
669 1 15.7242 15.7242 18.8691 -8.94968
668 1 14.1518 17.2966 20.4415 -8.94962
667 1 12.5794 15.7243 18.8692 -8.94967
666 1 11.0069 17.2966 20.4415 -8.94963
665 1 9.43452 15.7243 18.8691 -8.94951
664 1 7.86211 17.2966 20.4415 -8.94965
540 1 1.57188 11.007 14.1518 -8.95129
541 1 4.71023 11.007 14.1531 -8.96716
542 1 7.78602 11.007 14.3281 -8.05879
543 1 11.0068 11.007 14.1532 -8.90456
544 1 14.1524 11.007 14.1522 -8.94746
545 1 17.2967 11.007 14.1518 -8.94964
546 1 20.4415 11.007 14.1518 -8.94976
547 1 22.0138 12.5794 12.5794 -8.94964
548 1 1.57232 14.1518 14.1518 -8.9496
549 1 3.1442 12.5798 12.5794 -8.94746
550 1 4.71643 14.1523 14.1516 -8.94941
551 1 6.28984 12.5808 12.5794 -8.90456
552 1 7.85727 14.1548 14.1576 -8.92665
553 1 9.51062 12.7557 12.5794 -8.05879
554 1 11.0222 14.1661 14.1664 -8.87867
555 1 12.5864 12.5807 12.5794 -8.96716
556 1 14.1531 14.1522 14.1521 -8.95232
557 1 15.7248 12.5793 12.5794 -8.95129
558 1 17.2967 14.1518 14.1518 -8.9499
559 1 18.8691 12.5794 12.5794 -8.94976
560 1 20.4415 14.1518 14.1518 -8.94966
561 1 -3.41143e-06 15.7242 12.5794 -8.94962
562 1 1.57242 17.2966 14.1518 -8.94965
563 1 3.1448 15.7243 12.5794 -8.94923
564 1 4.71722 17.2967 14.1518 -8.94977
565 1 6.28985 15.7244 12.5794 -8.95081
566 1 7.86175 17.2973 14.1521 -8.94894
567 1 9.43515 15.7315 12.5794 -8.98385
568 1 11.0074 17.298 14.1522 -8.95203
569 1 12.5802 15.7251 12.5794 -8.94971
570 1 14.1518 17.2967 14.1518 -8.94983
571 1 15.7243 15.7243 12.5794 -8.94953
572 1 17.2966 17.2966 14.1518 -8.94963
573 1 18.8691 15.7242 12.5794 -8.94964
574 1 20.4415 17.2966 14.1518 -8.94963
575 1 22.0139 18.8691 12.5794 -8.94964
576 1 1.57242 20.4415 14.1518 -8.94963
577 1 3.14484 18.8691 12.5794 -8.94961
578 1 4.71726 20.4415 14.1518 -8.94965
579 1 6.28968 18.8691 12.5794 -8.94958
580 1 7.86209 20.4415 14.1518 -8.94968
581 1 9.4345 18.8698 12.5794 -8.95143
582 1 11.007 20.4416 14.1518 -8.9499
583 1 12.5794 18.8691 12.5794 -8.94952
584 1 14.1518 20.4415 14.1518 -8.94962
585 1 15.7242 18.8691 12.5794 -8.94967
586 1 17.2966 20.4415 14.1518 -8.94963
587 1 18.8691 18.8691 12.5794 -8.94963
588 1 20.4415 20.4415 14.1518 -8.94963
589 1 1.57234 11.007 17.2967 -8.94953
590 1 4.71648 11.007 17.2975 -8.94971
591 1 7.86148 11.007 17.3039 -8.98385
592 1 11.0068 11.007 17.2968 -8.95081
593 1 14.1518 11.007 17.2967 -8.94923
594 1 17.2966 11.007 17.2966 -8.94962
595 1 20.4415 11.007 17.2966 -8.94964
596 1 22.0138 12.5794 15.7242 -8.9499
597 1 1.5723 14.1519 17.2967 -8.94974
598 1 3.14355 12.5797 15.7246 -8.95232
599 1 4.71577 14.1533 17.2981 -8.94208
600 1 6.27444 12.594 15.7385 -8.87867
601 1 7.86239 14.1521 17.2973 -8.95136
602 1 9.43937 12.5852 15.7272 -8.92665
603 1 11.0075 14.1523 17.298 -8.95157
604 1 12.5802 12.5792 15.7247 -8.94941
605 1 14.1518 14.1518 17.2967 -8.94993
606 1 15.7243 12.5794 15.7243 -8.9496
607 1 17.2966 14.1518 17.2966 -8.94963
608 1 18.8691 12.5794 15.7242 -8.94966
609 1 20.4415 14.1518 17.2966 -8.94965
610 1 22.0139 15.7242 15.7242 -8.94963
611 1 1.57242 17.2966 17.2966 -8.94968
612 1 3.14481 15.7242 15.7242 -8.94993
613 1 4.7172 17.2968 17.2967 -8.94967
614 1 6.28914 15.7256 15.7247 -8.95157
615 1 7.86211 17.2967 17.2967 -8.94951
616 1 9.43424 15.7249 15.7245 -8.95136
617 1 11.0069 17.2966 17.2966 -8.95001
618 1 12.5809 15.7257 15.7257 -8.94208
619 1 14.1519 17.2967 17.2967 -8.94894
620 1 15.7243 15.7243 15.7243 -8.94974
621 1 17.2966 17.2966 17.2966 -8.94963
622 1 18.8691 15.7242 15.7242 -8.94965
623 1 20.4415 17.2966 17.2966 -8.94963
624 1 1.42193e-07 18.8691 15.7242 -8.94963
625 1 1.57242 20.4415 17.2966 -8.94963
626 1 3.14484 18.8691 15.7242 -8.94965
627 1 4.71726 20.4415 17.2966 -8.94964
628 1 6.28965 18.8692 15.7243 -8.94981
629 1 7.86211 20.4415 17.2966 -8.94963
630 1 9.43451 18.8691 15.7242 -8.94961
631 1 11.0069 20.4415 17.2966 -8.94963
632 1 12.5794 18.8692 15.7243 -8.94971
633 1 14.1518 20.4415 17.2966 -8.94962
634 1 15.7242 18.8691 15.7242 -8.94969
635 1 17.2966 20.4415 17.2966 -8.94964
636 1 18.8691 18.8691 15.7242 -8.94963
637 1 20.4415 20.4415 17.2966 -8.94963
638 1 1.57242 11.007 20.4415 -8.94967
639 1 4.71722 11.007 20.4416 -8.94952
640 1 7.86214 11.007 20.4422 -8.95143
641 1 11.007 11.007 20.4415 -8.94958
642 1 14.1518 11.007 20.4415 -8.94961
643 1 17.2966 11.007 20.4415 -8.94964
644 1 20.4415 11.007 20.4415 -8.94963
645 1 -1.0479e-06 12.5794 18.8691 -8.94963
646 1 1.57242 14.1518 20.4415 -8.94969
647 1 3.14482 12.5794 18.8691 -8.94983
648 1 4.7172 14.1519 20.4416 -8.94971
649 1 6.28924 12.5798 18.8704 -8.95203
650 1 7.86213 14.1518 20.4415 -8.94961
651 1 9.43489 12.5797 18.8697 -8.94894
652 1 11.007 14.1518 20.4416 -8.94981
653 1 12.5794 12.5793 18.8691 -8.94977
654 1 14.1518 14.1518 20.4415 -8.94965
655 1 15.7242 12.5794 18.8691 -8.94965
656 1 17.2966 14.1518 20.4415 -8.94963
657 1 18.8691 12.5794 18.8691 -8.94963
658 1 20.4415 14.1518 20.4415 -8.94963
659 1 22.0139 15.7242 18.8691 -8.94963
660 1 1.57242 17.2966 20.4415 -8.94958
661 1 3.14473 15.7243 18.8692 -8.94894
662 1 4.71727 17.2966 20.4415 -8.9497
663 1 6.28971 15.7242 18.8691 -8.95001
371 1 9.43453 15.7242 22.0139 -8.94963
353 1 3.14484 12.5794 22.0139 -8.94962
361 1 15.7242 12.5794 22.0139 -8.94963
369 1 6.28969 15.7242 22.0139 -8.94963
365 1 3.41037e-07 15.7242 22.0139 -8.94964
381 1 3.14484 18.8691 22.0139 -8.94964
387 1 12.5794 18.8691 22.0139 -8.94963
537 1 14.1518 20.4415 11.007 -8.94962
530 1 14.1518 17.2967 11.0069 -8.94983
