ITEM: TIMESTEP
40
ITEM: NUMBER OF ATOMS
687
ITEM: BOX BOUNDS pp pp pp
0.0000000000000000e+00 2.2013900999999997e+01
0.0000000000000000e+00 2.2013900999999997e+01
0.0000000000000000e+00 2.2013900999999997e+01
ITEM: ATOMS id type x y z c_pot
1 1 22.0139 -4.93817e-16 5.56714e-11 -8.94963
2 1 1.57242 1.57242 1.57242 -8.94963
196 1 20.4415 7.86211 11.007 -8.94963
4 1 4.71726 1.57242 1.57242 -8.94963
5 1 6.28969 -1.75865e-17 4.46289e-10 -8.94963
6 1 7.86211 1.57242 1.57242 -8.94963
175 1 18.8691 9.43453 9.43453 -8.94963
8 1 11.007 1.57242 1.57242 -8.94963
9 1 12.5794 3.95204e-16 5.7286e-10 -8.94963
10 1 14.1518 1.57242 1.57242 -8.94963
195 1 17.2966 7.86211 11.007 -8.94965
12 1 17.2966 1.57242 1.57242 -8.94963
13 1 18.8691 2.88804e-16 1.72746e-11 -8.94963
14 1 20.4415 1.57242 1.57242 -8.94963
15 1 22.0139 3.14484 7.48537e-10 -8.94963
16 1 1.57242 4.71726 1.57242 -8.94963
194 1 14.1519 7.86209 11.0069 -8.95013
18 1 4.71726 4.71726 1.57242 -8.94963
174 1 15.7242 9.43453 9.43453 -8.94964
20 1 7.86211 4.71726 1.57242 -8.94963
173 1 12.5795 9.43445 9.43445 -8.94916
22 1 11.007 4.71726 1.57242 -8.94963
193 1 11.0098 7.85936 11.0041 -8.91474
24 1 14.1518 4.71726 1.57242 -8.94963
25 1 15.7242 3.14484 2.08402e-09 -8.94963
26 1 17.2966 4.71726 1.57242 -8.94963
27 1 18.8691 3.14484 -5.09876e-12 -8.94963
28 1 20.4415 4.71726 1.57242 -8.94963
192 1 7.8611 7.86143 11.0059 -8.93933
30 1 1.57242 7.86211 1.57242 -8.94963
31 1 3.14484 6.28969 1.15249e-07 -8.94963
32 1 4.71726 7.86211 1.57242 -8.94963
172 1 9.43553 9.43344 9.43386 -8.93933
34 1 7.86211 7.86211 1.57242 -8.94963
171 1 6.2868 9.43164 9.43178 -8.91474
36 1 11.007 7.86211 1.57242 -8.94963
37 1 12.5794 6.28969 1.01812e-07 -8.94963
38 1 14.1518 7.86211 1.57242 -8.94963
39 1 15.7242 6.28969 -1.55304e-09 -8.94963
40 1 17.2966 7.86211 1.57242 -8.94963
41 1 18.8691 6.28969 -9.05896e-11 -8.94963
42 1 20.4415 7.86211 1.57242 -8.94963
170 1 3.14476 9.4345 9.43451 -8.95013
169 1 22.0139 9.43453 9.43453 -8.94965
45 1 6.28969 9.43453 2.84724e-06 -8.94965
46 1 9.43453 9.43453 1.99632e-06 -8.94964
47 1 12.5794 9.43453 -3.18125e-08 -8.94963
168 1 18.8691 6.28969 9.43453 -8.94963
167 1 15.7242 6.28968 9.43453 -8.94964
50 1 22.0139 -5.04019e-16 3.14484 -8.94963
51 1 1.57242 1.57242 4.71726 -8.94963
52 1 3.14484 6.21271e-17 3.14484 -8.94963
53 1 4.71726 1.57242 4.71726 -8.94963
54 1 6.28969 1.60289e-17 3.14484 -8.94963
55 1 7.86211 1.57242 4.71726 -8.94963
56 1 9.43453 1.85723e-16 3.14484 -8.94963
57 1 11.007 1.57242 4.71726 -8.94963
58 1 12.5794 3.32123e-16 3.14484 -8.94963
59 1 14.1518 1.57242 4.71726 -8.94963
60 1 15.7242 3.07239e-16 3.14484 -8.94963
61 1 17.2966 1.57242 4.71726 -8.94963
62 1 18.8691 2.80794e-16 3.14484 -8.94963
63 1 20.4415 1.57242 4.71726 -8.94963
64 1 22.0139 3.14484 3.14484 -8.94963
65 1 1.57242 4.71726 4.71726 -8.94963
66 1 3.14484 3.14484 3.14484 -8.94963
67 1 4.71726 4.71726 4.71726 -8.94964
68 1 6.28969 3.14484 3.14484 -8.94963
69 1 7.86211 4.71726 4.71726 -8.94963
70 1 9.43453 3.14484 3.14484 -8.94963
71 1 11.007 4.71726 4.71726 -8.94963
72 1 12.5794 3.14484 3.14484 -8.94963
73 1 14.1518 4.71726 4.71726 -8.94963
74 1 15.7242 3.14484 3.14484 -8.94963
75 1 17.2966 4.71726 4.71726 -8.94963
76 1 18.8691 3.14484 3.14484 -8.94963
77 1 20.4415 4.71726 4.71726 -8.94963
78 1 4.39201e-09 6.28969 3.14484 -8.94963
79 1 1.57242 7.86211 4.71726 -8.94964
80 1 3.14484 6.28969 3.14484 -8.94963
81 1 4.71726 7.86211 4.71726 -8.94962
82 1 6.28969 6.28969 3.14484 -8.94963
83 1 7.86211 7.86211 4.71727 -8.94964
84 1 9.43453 6.28969 3.14484 -8.94963
85 1 11.007 7.86211 4.71726 -8.94963
86 1 12.5794 6.28969 3.14484 -8.94963
87 1 14.1518 7.86211 4.71726 -8.94963
88 1 15.7242 6.28969 3.14484 -8.94963
89 1 17.2966 7.86211 4.71726 -8.94963
90 1 18.8691 6.28969 3.14484 -8.94963
91 1 20.4415 7.86211 4.71726 -8.94963
92 1 22.0139 9.43453 3.14484 -8.94963
93 1 3.14484 9.43453 3.14484 -8.94963
94 1 6.28969 9.43453 3.14484 -8.94965
95 1 9.43453 9.43453 3.14484 -8.94964
96 1 12.5794 9.43453 3.14484 -8.94963
97 1 15.7242 9.43453 3.14484 -8.94963
98 1 18.8691 9.43453 3.14484 -8.94963
99 1 22.0139 4.54432e-16 6.28969 -8.94963
100 1 1.57242 1.57242 7.86211 -8.94963
101 1 3.14484 -2.59788e-17 6.28969 -8.94963
102 1 4.71726 1.57242 7.86211 -8.94963
103 1 6.28969 1.82834e-16 6.28969 -8.94963
104 1 7.86211 1.57242 7.86211 -8.94963
105 1 9.43453 -2.39951e-16 6.28969 -8.94963
106 1 11.007 1.57242 7.86211 -8.94963
107 1 12.5794 -5.02298e-19 6.28969 -8.94963
108 1 14.1518 1.57242 7.86211 -8.94963
109 1 15.7242 8.56427e-16 6.28969 -8.94963
110 1 17.2966 1.57242 7.86211 -8.94963
111 1 18.8691 4.29857e-16 6.28969 -8.94963
112 1 20.4415 1.57242 7.86211 -8.94963
113 1 22.0139 3.14484 6.28969 -8.94963
114 1 1.57242 4.71726 7.86211 -8.94963
115 1 3.14484 3.14484 6.28969 -8.94963
116 1 4.71726 4.71726 7.86211 -8.94963
117 1 6.28969 3.14484 6.28969 -8.94963
118 1 7.86211 4.71727 7.86211 -8.94965
119 1 9.43453 3.14484 6.28969 -8.94963
120 1 11.0069 4.71727 7.86211 -8.94974
121 1 12.5794 3.14484 6.28969 -8.94964
122 1 14.1518 4.71726 7.86211 -8.94959
123 1 15.7242 3.14484 6.28969 -8.94963
124 1 17.2966 4.71726 7.86211 -8.94963
125 1 18.8691 3.14484 6.28969 -8.94963
126 1 20.4415 4.71726 7.86211 -8.94963
127 1 22.0139 6.28969 6.28969 -8.94963
128 1 1.57242 7.86211 7.86211 -8.94964
129 1 3.14484 6.28968 6.28968 -8.94959
130 1 4.71717 7.86201 7.86201 -8.94831
131 1 6.28969 6.28969 6.28969 -8.94974
132 1 7.86213 7.86216 7.86214 -8.95107
133 1 9.43453 6.28969 6.28969 -8.94965
134 1 11.007 7.86208 7.86201 -8.94999
135 1 12.5794 6.28968 6.28968 -8.94963
136 1 14.1518 7.8621 7.86211 -8.94968
137 1 15.7242 6.28969 6.28969 -8.94963
138 1 17.2966 7.86211 7.86211 -8.94963
139 1 18.8691 6.28969 6.28969 -8.94963
140 1 20.4415 7.86211 7.86211 -8.94963
141 1 1.19216e-07 9.43453 6.28969 -8.94963
142 1 3.14485 9.43453 6.28969 -8.94973
143 1 6.28964 9.43448 6.28957 -8.94982
144 1 9.43457 9.43448 6.28962 -8.94926
145 1 12.5794 9.43453 6.28968 -8.94967
146 1 15.7242 9.43453 6.28969 -8.94964
147 1 18.8691 9.43453 6.28969 -8.94963
148 1 1.62386e-10 8.06808e-16 9.43453 -8.94963
149 1 3.14484 8.54582e-16 9.43453 -8.94963
150 1 6.28969 8.09124e-16 9.43453 -8.94963
151 1 9.43453 5.58983e-18 9.43453 -8.94963
152 1 12.5794 -3.83396e-16 9.43453 -8.94963
153 1 15.7242 2.4089e-16 9.43453 -8.94963
154 1 18.8691 5.92717e-16 9.43453 -8.94963
155 1 4.09035e-09 3.14484 9.43453 -8.94963
156 1 3.14484 3.14484 9.43453 -8.94963
157 1 6.28968 3.14484 9.43453 -8.94963
158 1 9.43453 3.14484 9.43453 -8.94964
159 1 12.5794 3.14484 9.43453 -8.94962
160 1 15.7242 3.14484 9.43453 -8.94964
161 1 18.8691 3.14484 9.43453 -8.94963
162 1 22.0139 6.28969 9.43453 -8.94963
163 1 3.14484 6.28969 9.43453 -8.94968
164 1 6.28965 6.28959 9.4345 -8.94999
165 1 9.43451 6.28971 9.43458 -8.95107
166 1 12.5795 6.28959 9.43443 -8.94831
177 1 4.71726 1.57242 11.007 -8.94963
178 1 7.86211 1.57242 11.0069 -8.94964
179 1 11.007 1.57242 11.0069 -8.94965
191 1 4.71716 7.86203 11.0069 -8.94916
181 1 17.2966 1.57242 11.007 -8.94963
182 1 20.4415 1.57242 11.007 -8.94963
184 1 4.71726 4.71726 11.007 -8.94967
185 1 7.86206 4.7172 11.0069 -8.94926
186 1 11.007 4.71715 11.0069 -8.94982
190 1 1.57242 7.86211 11.0069 -8.94964
19 1 6.28969 3.14484 8.40765e-09 -8.94963
49 1 18.8691 9.43453 8.28006e-10 -8.94963
21 1 9.43453 3.14484 5.73365e-09 -8.94963
43 1 22.0139 9.43453 9.87626e-09 -8.94963
176 1 1.57242 1.57242 11.007 -8.94963
343 1 18.8691 9.43453 18.8691 -8.94963
342 1 15.7242 9.43453 18.8691 -8.94964
341 1 12.5794 9.43453 18.8691 -8.94967
340 1 9.43457 9.43448 18.8691 -8.94926
339 1 6.28964 9.43448 18.8692 -8.94982
338 1 3.14485 9.43453 18.8691 -8.94973
183 1 1.57242 4.71726 11.007 -8.94964
337 1 1.19216e-07 9.43453 18.8691 -8.94963
336 1 20.4415 7.86211 20.4415 -8.94963
335 1 18.8691 6.28969 18.8691 -8.94963
334 1 17.2966 7.86211 20.4415 -8.94963
188 1 17.2966 4.71726 11.007 -8.94963
189 1 20.4415 4.71726 11.007 -8.94963
333 1 15.7242 6.28969 18.8691 -8.94963
332 1 14.1518 7.86211 20.4415 -8.94963
331 1 12.5794 6.28968 18.8691 -8.94963
330 1 11.007 7.86211 20.4415 -8.94963
329 1 9.43453 6.28969 18.8691 -8.94965
328 1 7.86211 7.86211 20.4415 -8.94964
327 1 6.28969 6.28969 18.8691 -8.94974
197 1 2.93012e-10 5.7548e-16 12.5794 -8.94963
198 1 1.57242 1.57242 14.1518 -8.94963
199 1 3.14484 8.35584e-16 12.5794 -8.94963
200 1 4.71726 1.57242 14.1518 -8.94963
201 1 6.28969 5.3212e-16 12.5794 -8.94963
202 1 7.86211 1.57242 14.1518 -8.94964
203 1 9.43453 3.91085e-16 12.5794 -8.94967
204 1 11.007 1.57242 14.1518 -8.94965
205 1 12.5794 1.2457e-16 12.5794 -8.94963
206 1 14.1518 1.57242 14.1518 -8.94963
207 1 15.7242 5.46071e-16 12.5794 -8.94963
208 1 17.2966 1.57242 14.1518 -8.94963
209 1 18.8691 6.8924e-16 12.5794 -8.94963
210 1 20.4415 1.57242 14.1518 -8.94963
211 1 22.0139 3.14484 12.5794 -8.94963
212 1 1.57242 4.71726 14.1518 -8.94964
213 1 3.14484 3.14484 12.5794 -8.94963
214 1 4.71726 4.71726 14.1518 -8.94967
215 1 6.28969 3.14484 12.5794 -8.94967
216 1 7.86206 4.7172 14.1518 -8.94926
217 1 9.43453 3.14476 12.5794 -8.95048
218 1 11.007 4.71715 14.1518 -8.94982
219 1 12.5794 3.14484 12.5794 -8.94963
220 1 14.1518 4.71727 14.1518 -8.94973
221 1 15.7242 3.14484 12.5794 -8.94963
222 1 17.2966 4.71726 14.1518 -8.94963
223 1 18.8691 3.14484 12.5794 -8.94963
224 1 20.4415 4.71726 14.1518 -8.94963
225 1 2.49887e-07 6.28969 12.5794 -8.94963
226 1 1.57242 7.86211 14.1518 -8.94964
227 1 3.14485 6.28969 12.5794 -8.94969
228 1 4.71716 7.86203 14.1519 -8.94916
229 1 6.28973 6.28965 12.5794 -8.951
230 1 7.8611 7.86143 14.1529 -8.93933
231 1 9.43458 6.28647 12.5794 -8.96802
232 1 11.0098 7.85936 14.1547 -8.91474
233 1 12.5793 6.28972 12.5794 -8.95149
234 1 14.1519 7.86209 14.1518 -8.95013
235 1 15.7242 6.28969 12.5794 -8.94962
236 1 17.2966 7.86211 14.1518 -8.94965
237 1 18.8691 6.28969 12.5794 -8.94963
238 1 20.4415 7.86211 14.1518 -8.94963
239 1 22.0139 9.43453 12.5794 -8.94966
240 1 3.1447 9.43449 12.5794 -8.95007
241 1 6.28629 9.43173 12.5794 -8.91098
242 1 9.48261 9.33459 12.5794 -7.98642
243 1 12.581 9.43431 12.5794 -8.95975
244 1 15.7243 9.43453 12.5794 -8.95005
245 1 18.8691 9.43453 12.5794 -8.94964
246 1 1.62387e-10 8.23843e-16 15.7242 -8.94963
247 1 1.57242 1.57242 17.2966 -8.94963
248 1 3.14484 8.87755e-16 15.7242 -8.94963
249 1 4.71726 1.57242 17.2966 -8.94963
250 1 6.28969 8.18728e-16 15.7242 -8.94963
251 1 7.86211 1.57242 17.2966 -8.94963
252 1 9.43453 -3.35805e-17 15.7242 -8.94963
253 1 11.007 1.57242 17.2966 -8.94963
254 1 12.5794 -3.86541e-16 15.7242 -8.94963
255 1 14.1518 1.57242 17.2966 -8.94963
256 1 15.7242 2.52574e-16 15.7242 -8.94963
257 1 17.2966 1.57242 17.2966 -8.94963
258 1 18.8691 6.01251e-16 15.7242 -8.94963
259 1 20.4415 1.57242 17.2966 -8.94963
260 1 4.09035e-09 3.14484 15.7242 -8.94963
261 1 1.57242 4.71726 17.2966 -8.94963
262 1 3.14484 3.14484 15.7242 -8.94963
263 1 4.71726 4.71726 17.2966 -8.94963
264 1 6.28968 3.14484 15.7242 -8.94963
265 1 7.86211 4.71727 17.2966 -8.94965
266 1 9.43453 3.14484 15.7242 -8.94964
267 1 11.0069 4.71727 17.2966 -8.94974
268 1 12.5794 3.14484 15.7242 -8.94962
269 1 14.1518 4.71726 17.2966 -8.94959
270 1 15.7242 3.14484 15.7242 -8.94964
271 1 17.2966 4.71726 17.2966 -8.94963
272 1 18.8691 3.14484 15.7242 -8.94963
273 1 20.4415 4.71726 17.2966 -8.94963
274 1 22.0139 6.28969 15.7242 -8.94963
275 1 1.57242 7.86211 17.2966 -8.94964
276 1 3.14484 6.28969 15.7242 -8.94968
277 1 4.71717 7.86201 17.2967 -8.94831
278 1 6.28965 6.28959 15.7242 -8.94999
279 1 7.86213 7.86216 17.2966 -8.95107
280 1 9.43451 6.28971 15.7242 -8.95107
281 1 11.007 7.86208 17.2967 -8.94999
282 1 12.5795 6.28959 15.7243 -8.94831
283 1 14.1518 7.8621 17.2966 -8.94968
284 1 15.7242 6.28968 15.7242 -8.94964
285 1 17.2966 7.86211 17.2966 -8.94963
286 1 18.8691 6.28969 15.7242 -8.94963
287 1 20.4415 7.86211 17.2966 -8.94963
288 1 22.0139 9.43453 15.7242 -8.94965
289 1 3.14476 9.4345 15.7242 -8.95013
290 1 6.2868 9.43164 15.727 -8.91474
291 1 9.43553 9.43344 15.7249 -8.93933
292 1 12.5795 9.43445 15.7243 -8.94916
293 1 15.7242 9.43453 15.7242 -8.94964
294 1 18.8691 9.43453 15.7242 -8.94963
295 1 22.0139 5.28532e-16 18.8691 -8.94963
296 1 1.57242 1.57242 20.4415 -8.94963
297 1 3.14484 9.6697e-17 18.8691 -8.94963
298 1 4.71726 1.57242 20.4415 -8.94963
299 1 6.28969 3.28259e-16 18.8691 -8.94963
300 1 7.86211 1.57242 20.4415 -8.94963
301 1 9.43453 -3.3562e-16 18.8691 -8.94963
302 1 11.007 1.57242 20.4415 -8.94963
303 1 12.5794 1.62224e-17 18.8691 -8.94963
304 1 14.1518 1.57242 20.4415 -8.94963
305 1 15.7242 7.97221e-16 18.8691 -8.94963
306 1 17.2966 1.57242 20.4415 -8.94963
307 1 18.8691 3.2157e-16 18.8691 -8.94963
308 1 20.4415 1.57242 20.4415 -8.94963
309 1 22.0139 3.14484 18.8691 -8.94963
310 1 1.57242 4.71726 20.4415 -8.94963
311 1 3.14484 3.14484 18.8691 -8.94963
312 1 4.71726 4.71726 20.4415 -8.94964
313 1 6.28969 3.14484 18.8691 -8.94963
314 1 7.86211 4.71726 20.4415 -8.94963
315 1 9.43453 3.14484 18.8691 -8.94963
316 1 11.007 4.71726 20.4415 -8.94963
317 1 12.5794 3.14484 18.8691 -8.94964
318 1 14.1518 4.71726 20.4415 -8.94963
319 1 15.7242 3.14484 18.8691 -8.94963
320 1 17.2966 4.71726 20.4415 -8.94963
321 1 18.8691 3.14484 18.8691 -8.94963
322 1 20.4415 4.71726 20.4415 -8.94963
323 1 22.0139 6.28969 18.8691 -8.94963
324 1 1.57242 7.86211 20.4415 -8.94964
325 1 3.14484 6.28968 18.8691 -8.94959
326 1 4.71726 7.86211 20.4415 -8.94962
7 1 9.43453 1.86889e-16 22.0139 -8.94963
48 1 15.7242 9.43453 22.0139 -8.94963
44 1 3.14484 9.43453 22.0139 -8.94963
33 1 6.28969 6.28969 22.0139 -8.94963
35 1 9.43453 6.28969 22.0139 -8.94963
3 1 3.14484 -4.40601e-17 22.0139 -8.94963
11 1 15.7242 3.31805e-16 22.0139 -8.94963
17 1 3.14484 3.14484 22.0139 -8.94963
23 1 12.5794 3.14484 22.0139 -8.94963
29 1 4.39201e-09 6.28969 22.0139 -8.94963
180 1 14.1518 1.57242 11.007 -8.94963
187 1 14.1518 4.71727 11.007 -8.94973
344 1 1.57242 11.007 1.57242 -8.94963
345 1 4.71726 11.007 1.57242 -8.94963
346 1 7.86211 11.007 1.57242 -8.94967
347 1 11.007 11.007 1.57242 -8.94963
348 1 14.1518 11.007 1.57242 -8.94963
349 1 17.2966 11.007 1.57242 -8.94963
350 1 20.4415 11.007 1.57242 -8.94963
511 1 18.8691 18.8691 9.43453 -8.94963
352 1 1.57242 14.1518 1.57242 -8.94963
510 1 15.7242 18.8691 9.43453 -8.94964
354 1 4.71726 14.1518 1.57242 -8.94963
355 1 6.28969 12.5794 2.84724e-06 -8.94965
356 1 7.86211 14.1518 1.57242 -8.94963
357 1 9.43453 12.5794 1.99632e-06 -8.94964
358 1 11.007 14.1518 1.57242 -8.94963
359 1 12.5794 12.5794 -3.18125e-08 -8.94963
360 1 14.1518 14.1518 1.57242 -8.94963
509 1 12.5794 18.8691 9.43453 -8.94962
362 1 17.2966 14.1518 1.57242 -8.94963
508 1 9.43453 18.8691 9.43453 -8.94964
364 1 20.4415 14.1518 1.57242 -8.94963
539 1 20.4415 20.4415 11.007 -8.94963
366 1 1.57242 17.2966 1.57242 -8.94963
367 1 3.14484 15.7242 1.15249e-07 -8.94963
368 1 4.71726 17.2966 1.57242 -8.94963
507 1 6.28968 18.8691 9.43453 -8.94963
370 1 7.86211 17.2966 1.57242 -8.94963
506 1 3.14484 18.8691 9.43453 -8.94963
372 1 11.007 17.2966 1.57242 -8.94963
373 1 12.5794 15.7242 1.01812e-07 -8.94963
374 1 14.1518 17.2966 1.57242 -8.94963
375 1 15.7242 15.7242 -1.55304e-09 -8.94963
376 1 17.2966 17.2966 1.57242 -8.94963
377 1 18.8691 15.7242 -9.05904e-11 -8.94963
378 1 20.4415 17.2966 1.57242 -8.94963
379 1 22.0139 18.8691 7.48537e-10 -8.94963
380 1 1.57242 20.4415 1.57242 -8.94963
538 1 17.2966 20.4415 11.007 -8.94963
382 1 4.71726 20.4415 1.57242 -8.94963
505 1 4.09035e-09 18.8691 9.43453 -8.94963
384 1 7.86211 20.4415 1.57242 -8.94963
504 1 18.8691 15.7242 9.43453 -8.94963
386 1 11.007 20.4415 1.57242 -8.94963
536 1 11.007 20.4415 11.0069 -8.94965
388 1 14.1518 20.4415 1.57242 -8.94963
389 1 15.7242 18.8691 2.08402e-09 -8.94963
390 1 17.2966 20.4415 1.57242 -8.94963
391 1 18.8691 18.8691 -5.09851e-12 -8.94963
392 1 20.4415 20.4415 1.57242 -8.94963
393 1 1.57242 11.007 4.71726 -8.94963
394 1 4.71727 11.007 4.71727 -8.94963
395 1 7.86211 11.007 4.71718 -8.95048
396 1 11.0069 11.007 4.71727 -8.94967
397 1 14.1518 11.007 4.71726 -8.94963
398 1 17.2966 11.007 4.71726 -8.94963
399 1 20.4415 11.007 4.71726 -8.94963
400 1 22.0139 12.5794 3.14484 -8.94963
401 1 1.57242 14.1518 4.71726 -8.94964
402 1 3.14484 12.5794 3.14484 -8.94963
403 1 4.71726 14.1518 4.71726 -8.94962
404 1 6.28969 12.5794 3.14484 -8.94965
405 1 7.86211 14.1518 4.71727 -8.94964
406 1 9.43453 12.5794 3.14484 -8.94964
407 1 11.007 14.1518 4.71726 -8.94963
408 1 12.5794 12.5794 3.14484 -8.94963
409 1 14.1518 14.1518 4.71726 -8.94963
410 1 15.7242 12.5794 3.14484 -8.94963
411 1 17.2966 14.1518 4.71726 -8.94963
412 1 18.8691 12.5794 3.14484 -8.94963
413 1 20.4415 14.1518 4.71726 -8.94963
414 1 4.39201e-09 15.7242 3.14484 -8.94963
415 1 1.57242 17.2966 4.71726 -8.94963
416 1 3.14484 15.7242 3.14484 -8.94963
417 1 4.71726 17.2966 4.71726 -8.94964
418 1 6.28969 15.7242 3.14484 -8.94963
419 1 7.86211 17.2966 4.71726 -8.94963
420 1 9.43453 15.7242 3.14484 -8.94963
421 1 11.007 17.2966 4.71726 -8.94963
422 1 12.5794 15.7242 3.14484 -8.94963
423 1 14.1518 17.2966 4.71726 -8.94963
424 1 15.7242 15.7242 3.14484 -8.94963
425 1 17.2966 17.2966 4.71726 -8.94963
426 1 18.8691 15.7242 3.14484 -8.94963
427 1 20.4415 17.2966 4.71726 -8.94963
428 1 22.0139 18.8691 3.14484 -8.94963
429 1 1.57242 20.4415 4.71726 -8.94963
430 1 3.14484 18.8691 3.14484 -8.94963
431 1 4.71726 20.4415 4.71726 -8.94963
432 1 6.28969 18.8691 3.14484 -8.94963
433 1 7.86211 20.4415 4.71726 -8.94963
434 1 9.43453 18.8691 3.14484 -8.94963
435 1 11.007 20.4415 4.71726 -8.94963
436 1 12.5794 18.8691 3.14484 -8.94963
437 1 14.1518 20.4415 4.71726 -8.94963
438 1 15.7242 18.8691 3.14484 -8.94963
439 1 17.2966 20.4415 4.71726 -8.94963
440 1 18.8691 18.8691 3.14484 -8.94963
441 1 20.4415 20.4415 4.71726 -8.94963
442 1 1.57242 11.007 7.86211 -8.94962
443 1 4.71731 11.007 7.86215 -8.95149
444 1 7.86206 11.007 7.85889 -8.96802
445 1 11.0069 11.007 7.86207 -8.951
446 1 14.1518 11.007 7.86212 -8.94969
447 1 17.2966 11.007 7.86211 -8.94963
448 1 20.4415 11.007 7.86211 -8.94963
449 1 1.19216e-07 12.5794 6.28969 -8.94963
450 1 1.57242 14.1518 7.86211 -8.94964
451 1 3.14485 12.5794 6.28969 -8.94973
452 1 4.71717 14.1519 7.86201 -8.94831
453 1 6.28964 12.5794 6.28957 -8.94982
454 1 7.86213 14.1517 7.86214 -8.95107
455 1 9.43457 12.5794 6.28962 -8.94926
456 1 11.007 14.1518 7.86201 -8.94999
457 1 12.5794 12.5794 6.28968 -8.94967
458 1 14.1518 14.1518 7.86211 -8.94968
459 1 15.7242 12.5794 6.28969 -8.94964
460 1 17.2966 14.1518 7.86211 -8.94963
461 1 18.8691 12.5794 6.28969 -8.94963
462 1 20.4415 14.1518 7.86211 -8.94963
463 1 22.0139 15.7242 6.28969 -8.94963
464 1 1.57242 17.2966 7.86211 -8.94963
465 1 3.14484 15.7242 6.28968 -8.94959
466 1 4.71726 17.2966 7.86211 -8.94963
467 1 6.28969 15.7242 6.28969 -8.94974
468 1 7.86211 17.2966 7.86211 -8.94965
469 1 9.43453 15.7242 6.28969 -8.94965
470 1 11.0069 17.2966 7.86211 -8.94974
471 1 12.5794 15.7242 6.28968 -8.94963
472 1 14.1518 17.2966 7.86211 -8.94959
473 1 15.7242 15.7242 6.28969 -8.94963
474 1 17.2966 17.2966 7.86211 -8.94963
475 1 18.8691 15.7242 6.28969 -8.94963
476 1 20.4415 17.2966 7.86211 -8.94963
477 1 22.0139 18.8691 6.28969 -8.94963
478 1 1.57242 20.4415 7.86211 -8.94963
479 1 3.14484 18.8691 6.28969 -8.94963
480 1 4.71726 20.4415 7.86211 -8.94963
481 1 6.28969 18.8691 6.28969 -8.94963
482 1 7.86211 20.4415 7.86211 -8.94963
483 1 9.43453 18.8691 6.28969 -8.94963
484 1 11.007 20.4415 7.86211 -8.94963
485 1 12.5794 18.8691 6.28969 -8.94964
486 1 14.1518 20.4415 7.86211 -8.94963
487 1 15.7242 18.8691 6.28969 -8.94963
488 1 17.2966 20.4415 7.86211 -8.94963
489 1 18.8691 18.8691 6.28969 -8.94963
490 1 20.4415 20.4415 7.86211 -8.94963
491 1 22.0139 12.5794 9.43453 -8.94965
492 1 3.14476 12.5794 9.43451 -8.95013
493 1 6.2868 12.5823 9.43178 -8.91474
494 1 9.43553 12.5805 9.43386 -8.93933
495 1 12.5795 12.5794 9.43445 -8.94916
496 1 15.7242 12.5794 9.43453 -8.94964
497 1 18.8691 12.5794 9.43453 -8.94963
498 1 22.0139 15.7242 9.43453 -8.94963
499 1 3.14484 15.7242 9.43453 -8.94968
500 1 6.28965 15.7243 9.4345 -8.94999
501 1 9.43451 15.7242 9.43458 -8.95107
502 1 12.5795 15.7243 9.43443 -8.94831
503 1 15.7242 15.7242 9.43453 -8.94964
512 1 1.57238 11.007 11.0069 -8.95005
513 1 4.71559 11.007 11.0067 -8.95975
514 1 7.81402 11.007 10.907 -7.98642
515 1 11.0103 11.007 11.0042 -8.91098
516 1 14.1519 11.007 11.0069 -8.95007
517 1 17.2966 11.007 11.0069 -8.94966
518 1 20.4415 11.007 11.007 -8.94964
519 1 1.57242 14.1518 11.0069 -8.94964
520 1 4.71716 14.1519 11.0069 -8.94916
521 1 7.8611 14.1525 11.0059 -8.93933
522 1 11.0098 14.1545 11.0041 -8.91474
523 1 14.1519 14.1518 11.0069 -8.95013
524 1 17.2966 14.1518 11.007 -8.94965
525 1 20.4415 14.1518 11.007 -8.94963
527 1 4.71726 17.2966 11.007 -8.94967
528 1 7.86206 17.2967 11.0069 -8.94926
529 1 11.007 17.2967 11.0069 -8.94982
535 1 7.86211 20.4415 11.0069 -8.94964
534 1 4.71726 20.4415 11.007 -8.94963
351 1 22.0139 12.5794 9.87626e-09 -8.94963
385 1 9.43453 18.8691 5.73365e-09 -8.94963
383 1 6.28969 18.8691 8.40765e-09 -8.94963
363 1 18.8691 12.5794 8.28006e-10 -8.94963
687 3 8.64832 11.007 12.5794 3.54552
686 1 20.4415 20.4415 20.4415 -8.94963
685 1 18.8691 18.8691 18.8691 -8.94963
684 1 17.2966 20.4415 20.4415 -8.94963
683 1 15.7242 18.8691 18.8691 -8.94963
682 1 14.1518 20.4415 20.4415 -8.94963
681 1 12.5794 18.8691 18.8691 -8.94964
680 1 11.007 20.4415 20.4415 -8.94963
679 1 9.43453 18.8691 18.8691 -8.94963
678 1 7.86211 20.4415 20.4415 -8.94963
677 1 6.28969 18.8691 18.8691 -8.94963
676 1 4.71726 20.4415 20.4415 -8.94963
675 1 3.14484 18.8691 18.8691 -8.94963
674 1 1.57242 20.4415 20.4415 -8.94963
526 1 1.57242 17.2966 11.007 -8.94964
673 1 22.0139 18.8691 18.8691 -8.94963
672 1 20.4415 17.2966 20.4415 -8.94963
671 1 18.8691 15.7242 18.8691 -8.94963
670 1 17.2966 17.2966 20.4415 -8.94963
531 1 17.2966 17.2966 11.007 -8.94963
532 1 20.4415 17.2966 11.007 -8.94963
533 1 1.57242 20.4415 11.007 -8.94963
669 1 15.7242 15.7242 18.8691 -8.94963
668 1 14.1518 17.2966 20.4415 -8.94963
667 1 12.5794 15.7242 18.8691 -8.94963
666 1 11.007 17.2966 20.4415 -8.94963
665 1 9.43453 15.7242 18.8691 -8.94965
664 1 7.86211 17.2966 20.4415 -8.94963
540 1 1.57238 11.007 14.1518 -8.95005
541 1 4.71559 11.007 14.152 -8.95975
542 1 7.81402 11.007 14.2517 -7.98642
543 1 11.0103 11.007 14.1546 -8.91098
544 1 14.1519 11.007 14.1518 -8.95007
545 1 17.2966 11.007 14.1518 -8.94966
546 1 20.4415 11.007 14.1518 -8.94964
547 1 22.0139 12.5794 12.5794 -8.94966
548 1 1.57242 14.1518 14.1518 -8.94964
549 1 3.1447 12.5794 12.5794 -8.95007
550 1 4.71716 14.1519 14.1519 -8.94916
551 1 6.28629 12.5822 12.5794 -8.91098
552 1 7.8611 14.1525 14.1529 -8.93933
553 1 9.48261 12.6793 12.5794 -7.98642
554 1 11.0098 14.1545 14.1547 -8.91474
555 1 12.581 12.5796 12.5794 -8.95975
556 1 14.1519 14.1518 14.1518 -8.95013
557 1 15.7243 12.5794 12.5794 -8.95005
558 1 17.2966 14.1518 14.1518 -8.94965
559 1 18.8691 12.5794 12.5794 -8.94964
560 1 20.4415 14.1518 14.1518 -8.94963
561 1 2.49887e-07 15.7242 12.5794 -8.94963
562 1 1.57242 17.2966 14.1518 -8.94964
563 1 3.14485 15.7242 12.5794 -8.94969
564 1 4.71726 17.2966 14.1518 -8.94967
565 1 6.28973 15.7242 12.5794 -8.951
566 1 7.86206 17.2967 14.1518 -8.94926
567 1 9.43458 15.7274 12.5794 -8.96802
568 1 11.007 17.2967 14.1518 -8.94982
569 1 12.5793 15.7242 12.5794 -8.95149
570 1 14.1518 17.2966 14.1518 -8.94973
571 1 15.7242 15.7242 12.5794 -8.94962
572 1 17.2966 17.2966 14.1518 -8.94963
573 1 18.8691 15.7242 12.5794 -8.94963
574 1 20.4415 17.2966 14.1518 -8.94963
575 1 22.0139 18.8691 12.5794 -8.94963
576 1 1.57242 20.4415 14.1518 -8.94963
577 1 3.14484 18.8691 12.5794 -8.94963
578 1 4.71726 20.4415 14.1518 -8.94963
579 1 6.28969 18.8691 12.5794 -8.94967
580 1 7.86211 20.4415 14.1518 -8.94964
581 1 9.43453 18.8691 12.5794 -8.95048
582 1 11.007 20.4415 14.1518 -8.94965
583 1 12.5794 18.8691 12.5794 -8.94963
584 1 14.1518 20.4415 14.1518 -8.94963
585 1 15.7242 18.8691 12.5794 -8.94963
586 1 17.2966 20.4415 14.1518 -8.94963
587 1 18.8691 18.8691 12.5794 -8.94963
588 1 20.4415 20.4415 14.1518 -8.94963
589 1 1.57242 11.007 17.2966 -8.94962
590 1 4.71731 11.007 17.2966 -8.95149
591 1 7.86206 11.007 17.2999 -8.96802
592 1 11.0069 11.007 17.2967 -8.951
593 1 14.1518 11.007 17.2966 -8.94969
594 1 17.2966 11.007 17.2966 -8.94963
595 1 20.4415 11.007 17.2966 -8.94963
596 1 22.0139 12.5794 15.7242 -8.94965
597 1 1.57242 14.1518 17.2966 -8.94964
598 1 3.14476 12.5794 15.7242 -8.95013
599 1 4.71717 14.1519 17.2967 -8.94831
600 1 6.2868 12.5823 15.727 -8.91474
601 1 7.86213 14.1517 17.2966 -8.95107
602 1 9.43553 12.5805 15.7249 -8.93933
603 1 11.007 14.1518 17.2967 -8.94999
604 1 12.5795 12.5794 15.7243 -8.94916
605 1 14.1518 14.1518 17.2966 -8.94968
606 1 15.7242 12.5794 15.7242 -8.94964
607 1 17.2966 14.1518 17.2966 -8.94963
608 1 18.8691 12.5794 15.7242 -8.94963
609 1 20.4415 14.1518 17.2966 -8.94963
610 1 22.0139 15.7242 15.7242 -8.94963
611 1 1.57242 17.2966 17.2966 -8.94963
612 1 3.14484 15.7242 15.7242 -8.94968
613 1 4.71726 17.2966 17.2966 -8.94963
614 1 6.28965 15.7243 15.7242 -8.94999
615 1 7.86211 17.2966 17.2966 -8.94965
616 1 9.43451 15.7242 15.7242 -8.95107
617 1 11.0069 17.2966 17.2966 -8.94974
618 1 12.5795 15.7243 15.7243 -8.94831
619 1 14.1518 17.2966 17.2966 -8.94959
620 1 15.7242 15.7242 15.7242 -8.94964
621 1 17.2966 17.2966 17.2966 -8.94963
622 1 18.8691 15.7242 15.7242 -8.94963
623 1 20.4415 17.2966 17.2966 -8.94963
624 1 4.09035e-09 18.8691 15.7242 -8.94963
625 1 1.57242 20.4415 17.2966 -8.94963
626 1 3.14484 18.8691 15.7242 -8.94963
627 1 4.71726 20.4415 17.2966 -8.94963
628 1 6.28968 18.8691 15.7242 -8.94963
629 1 7.86211 20.4415 17.2966 -8.94963
630 1 9.43453 18.8691 15.7242 -8.94964
631 1 11.007 20.4415 17.2966 -8.94963
632 1 12.5794 18.8691 15.7242 -8.94962
633 1 14.1518 20.4415 17.2966 -8.94963
634 1 15.7242 18.8691 15.7242 -8.94964
635 1 17.2966 20.4415 17.2966 -8.94963
636 1 18.8691 18.8691 15.7242 -8.94963
637 1 20.4415 20.4415 17.2966 -8.94963
638 1 1.57242 11.007 20.4415 -8.94963
639 1 4.71727 11.007 20.4415 -8.94963
640 1 7.86211 11.007 20.4416 -8.95048
641 1 11.0069 11.007 20.4415 -8.94967
642 1 14.1518 11.007 20.4415 -8.94963
643 1 17.2966 11.007 20.4415 -8.94963
644 1 20.4415 11.007 20.4415 -8.94963
645 1 1.19216e-07 12.5794 18.8691 -8.94963
646 1 1.57242 14.1518 20.4415 -8.94964
647 1 3.14485 12.5794 18.8691 -8.94973
648 1 4.71726 14.1518 20.4415 -8.94962
649 1 6.28964 12.5794 18.8692 -8.94982
650 1 7.86211 14.1518 20.4415 -8.94964
651 1 9.43457 12.5794 18.8691 -8.94926
652 1 11.007 14.1518 20.4415 -8.94963
653 1 12.5794 12.5794 18.8691 -8.94967
654 1 14.1518 14.1518 20.4415 -8.94963
655 1 15.7242 12.5794 18.8691 -8.94964
656 1 17.2966 14.1518 20.4415 -8.94963
657 1 18.8691 12.5794 18.8691 -8.94963
658 1 20.4415 14.1518 20.4415 -8.94963
659 1 22.0139 15.7242 18.8691 -8.94963
660 1 1.57242 17.2966 20.4415 -8.94963
661 1 3.14484 15.7242 18.8691 -8.94959
662 1 4.71726 17.2966 20.4415 -8.94964
663 1 6.28969 15.7242 18.8691 -8.94974
371 1 9.43453 15.7242 22.0139 -8.94963
353 1 3.14484 12.5794 22.0139 -8.94963
361 1 15.7242 12.5794 22.0139 -8.94963
369 1 6.28969 15.7242 22.0139 -8.94963
365 1 4.39201e-09 15.7242 22.0139 -8.94963
381 1 3.14484 18.8691 22.0139 -8.94963
387 1 12.5794 18.8691 22.0139 -8.94963
537 1 14.1518 20.4415 11.007 -8.94963
530 1 14.1518 17.2966 11.007 -8.94973
