ITEM: TIMESTEP
80
ITEM: NUMBER OF ATOMS
687
ITEM: BOX BOUNDS pp pp pp
0.0000000000000000e+00 2.2013900999999997e+01
0.0000000000000000e+00 2.2013900999999997e+01
0.0000000000000000e+00 2.2013900999999997e+01
ITEM: ATOMS id type x y z c_pot
1 1 22.0137 7.9776e-16 0.000156096 -8.94946
2 1 1.57226 1.57224 1.57242 -8.94964
196 1 20.4414 7.86183 11.007 -8.9499
4 1 4.71718 1.57224 1.57242 -8.94956
5 1 6.28962 -1.21976e-15 0.000182358 -8.94957
6 1 7.86209 1.57222 1.57242 -8.94958
175 1 18.8691 9.43457 9.43425 -8.9499
8 1 11.007 1.57224 1.57242 -8.94957
9 1 12.5795 -7.51854e-16 0.000183519 -8.94956
10 1 14.1519 1.57227 1.57242 -8.94959
195 1 17.299 7.86181 11.0067 -8.95174
12 1 17.2968 1.57227 1.57242 -8.94946
13 1 18.8692 1.48975e-15 0.000108155 -8.94937
14 1 20.4414 1.57231 1.57242 -8.94937
15 1 22.0135 3.14446 0.000237006 -8.94923
16 1 1.57188 4.71671 1.57242 -8.94955
194 1 14.1618 7.85849 11.0045 -8.95821
18 1 4.71708 4.71674 1.57242 -8.94959
174 1 15.7256 9.43524 9.43397 -8.94973
20 1 7.86216 4.71673 1.57242 -8.94956
173 1 12.5825 9.43711 9.434 -8.95284
22 1 11.0072 4.71681 1.57242 -8.94952
193 1 11.0474 7.82546 10.9738 -8.85402
24 1 14.1522 4.71695 1.57242 -8.95
25 1 15.7246 3.14447 0.000404149 -8.9495
26 1 17.2967 4.71721 1.57242 -8.94971
27 1 18.8691 3.1447 0.000161686 -8.94962
28 1 20.4413 4.71711 1.57242 -8.94959
192 1 7.8476 7.85463 10.9837 -8.90476
30 1 1.57178 7.86178 1.57242 -8.94942
31 1 3.14399 6.28879 0.00100562 -8.94999
32 1 4.71686 7.86164 1.57242 -8.95061
172 1 9.44904 9.41125 9.42705 -8.90476
34 1 7.86237 7.86173 1.57242 -8.9502
171 1 6.2492 9.40133 9.39788 -8.85402
36 1 11.0072 7.86207 1.57242 -8.95036
37 1 12.5798 6.28936 0.000871974 -8.9506
38 1 14.152 7.86216 1.57242 -8.94954
39 1 15.7244 6.28969 0.000250106 -8.94971
40 1 17.2967 7.86207 1.57242 -8.94956
41 1 18.869 6.2896 0.000151414 -8.94955
42 1 20.4413 7.86201 1.57242 -8.94958
170 1 3.13487 9.4321 9.43091 -8.95821
169 1 22.0116 9.43426 9.43423 -8.95174
45 1 6.28955 9.43441 0.00156099 -8.95139
46 1 9.4347 9.43464 0.0005322 -8.94944
47 1 12.5797 9.43466 0.000329351 -8.94938
168 1 18.8699 6.28928 9.4342 -8.95018
167 1 15.7283 6.28779 9.43258 -8.95087
50 1 22.0137 5.06593e-16 3.14469 -8.94946
51 1 1.57203 1.57202 4.7169 -8.9495
52 1 3.14472 -5.46102e-16 3.1447 -8.94959
53 1 4.71707 1.57207 4.7169 -8.94951
54 1 6.28962 -1.18584e-15 3.14466 -8.94957
55 1 7.86204 1.57207 4.71681 -8.94954
56 1 9.43454 -1.45885e-15 3.14465 -8.94958
57 1 11.007 1.57209 4.71681 -8.9495
58 1 12.5795 -8.24189e-16 3.14466 -8.94956
59 1 14.1521 1.5721 4.7168 -8.94966
60 1 15.7244 -4.80546e-16 3.14467 -8.94964
61 1 17.297 1.57218 4.71688 -8.94923
62 1 18.8692 1.72428e-15 3.14473 -8.94937
63 1 20.4415 1.57226 4.71712 -8.94962
64 1 22.0135 3.14446 3.14461 -8.94923
65 1 1.57119 4.71603 4.71619 -8.94825
66 1 3.14456 3.14438 3.14453 -8.94966
67 1 4.7167 4.71613 4.71611 -8.94967
68 1 6.2896 3.14439 3.14451 -8.9495
69 1 7.86207 4.71625 4.71611 -8.94938
70 1 9.43459 3.14439 3.14449 -8.94954
71 1 11.0073 4.71637 4.71605 -8.94915
72 1 12.5796 3.14447 3.14449 -8.94951
73 1 14.1528 4.7163 4.71573 -8.94945
74 1 15.7246 3.14447 3.14444 -8.9495
75 1 17.2969 4.71707 4.71684 -8.94984
76 1 18.8691 3.1447 3.14468 -8.94962
77 1 20.4411 4.71692 4.71693 -8.94956
78 1 -0.000501185 6.28936 3.14453 -8.94953
79 1 1.57111 7.86141 4.71609 -8.94925
80 1 3.14399 6.28879 3.14384 -8.94999
81 1 4.71563 7.86056 4.7138 -8.95152
82 1 6.2896 6.28898 3.14393 -8.94966
83 1 7.86236 7.8611 4.71467 -8.95051
84 1 9.43484 6.28902 3.14398 -8.94961
85 1 11.0074 7.86184 4.71515 -8.95244
86 1 12.5798 6.28936 3.14397 -8.9506
87 1 14.1522 7.86234 4.71662 -8.94963
88 1 15.7244 6.28969 3.14459 -8.94971
89 1 17.2968 7.86207 4.7169 -8.94944
90 1 18.869 6.2896 3.14469 -8.94955
91 1 20.441 7.86191 4.71686 -8.94948
92 1 22.0133 9.43441 3.1445 -8.94953
93 1 3.14382 9.43417 3.14376 -8.94939
94 1 6.28955 9.43441 3.14328 -8.95139
95 1 9.4347 9.43464 3.14431 -8.94944
96 1 12.5797 9.43466 3.14451 -8.94938
97 1 15.7245 9.43452 3.14457 -8.94957
98 1 18.869 9.43449 3.14466 -8.94958
99 1 22.0138 1.53969e-15 6.28963 -8.94971
100 1 1.5722 1.57217 7.86211 -8.94971
101 1 3.14447 1.51484e-15 6.28937 -8.95
102 1 4.71681 1.57155 7.86178 -8.9506
103 1 6.28945 1.01277e-15 6.28923 -8.94952
104 1 7.8618 1.57156 7.86145 -8.94961
105 1 9.43448 1.57803e-16 6.28915 -8.94956
106 1 11.007 1.5715 7.8614 -8.94966
107 1 12.5796 -8.68811e-16 6.28916 -8.94959
108 1 14.1526 1.57142 7.86121 -8.94999
109 1 15.7248 1.72377e-16 6.28913 -8.94955
110 1 17.2971 1.57211 7.86179 -8.94953
111 1 18.8693 1.63697e-15 6.28953 -8.94959
112 1 20.4415 1.57227 7.86202 -8.94955
113 1 22.0136 3.14442 6.28949 -8.94984
114 1 1.57146 4.71632 7.86186 -8.95036
115 1 3.14379 3.1433 6.28873 -8.94945
116 1 4.71454 4.7129 7.85961 -8.94992
117 1 6.28933 3.14363 6.28879 -8.94915
118 1 7.86157 4.71425 7.85984 -8.94778
119 1 9.43456 3.14369 6.28867 -8.94938
120 1 11.0081 4.71399 7.85964 -8.94919
121 1 12.5799 3.14369 6.28855 -8.94967
122 1 14.1558 4.71346 7.85817 -8.94457
123 1 15.7254 3.14377 6.28845 -8.94825
124 1 17.298 4.71643 7.86121 -8.94967
125 1 18.8694 3.1445 6.28934 -8.94956
126 1 20.4415 4.71689 7.86192 -8.94983
127 1 22.0125 6.28879 6.28885 -8.94967
128 1 1.56838 7.86016 7.86021 -8.95087
129 1 3.14084 6.28574 6.28588 -8.94457
130 1 4.70464 7.85034 7.8499 -8.92996
131 1 6.28858 6.28722 6.28641 -8.94919
132 1 7.86139 7.85726 7.85369 -8.95094
133 1 9.43507 6.28742 6.28667 -8.94778
134 1 11.013 7.85578 7.85193 -8.95339
135 1 12.5821 6.28719 6.28532 -8.94992
136 1 14.1539 7.86217 7.8606 -8.9516
137 1 15.7252 6.28944 6.28875 -8.95036
138 1 17.2973 7.86218 7.86162 -8.94979
139 1 18.869 6.28949 6.28932 -8.94983
140 1 20.4407 7.86178 7.8617 -8.95018
141 1 -0.00148559 9.43419 6.28875 -8.9493
142 1 3.14128 9.43323 6.28622 -8.94767
143 1 6.28679 9.43321 6.28177 -8.9592
144 1 9.43401 9.43451 6.28815 -8.95174
145 1 12.5797 9.43531 6.28898 -8.94897
146 1 15.7249 9.43457 6.2889 -8.94901
147 1 18.869 9.43444 6.28921 -8.94956
148 1 -0.000112696 1.64538e-15 9.43449 -8.94956
149 1 3.14459 1.74938e-15 9.43458 -8.94954
150 1 6.28947 1.81607e-15 9.43449 -8.95036
151 1 9.43427 -2.69114e-16 9.43415 -8.9502
152 1 12.5798 -9.34807e-16 9.43406 -8.95061
153 1 15.7249 7.06658e-16 9.4342 -8.94942
154 1 18.8693 1.46744e-15 9.43443 -8.94958
155 1 -0.000185973 3.14448 9.43449 -8.94944
156 1 3.14445 3.1442 9.43476 -8.94963
157 1 6.28927 3.14273 9.43426 -8.95244
158 1 9.43427 3.14225 9.43353 -8.95051
159 1 12.581 3.14138 9.43298 -8.95152
160 1 15.7255 3.14366 9.43383 -8.94925
161 1 18.8695 3.14444 9.43433 -8.94948
162 1 22.0133 6.2892 9.4346 -8.94979
163 1 3.14273 6.28818 9.43459 -8.9516
164 1 6.28363 6.2795 9.4282 -8.95339
165 1 9.43524 6.28127 9.42969 -8.95094
166 1 12.592 6.27748 9.42276 -8.92996
177 1 4.71694 1.57209 11.0071 -8.94938
178 1 7.86194 1.57189 11.0071 -8.94944
179 1 11.0071 1.57086 11.0068 -8.95139
191 1 4.71413 7.86158 11.0095 -8.95284
181 1 17.2972 1.57208 11.0068 -8.94953
182 1 20.4415 1.57224 11.0069 -8.94958
184 1 4.7169 4.71656 11.0077 -8.94897
185 1 7.86262 4.71573 11.0069 -8.95174
186 1 11.0098 4.70935 11.0056 -8.9592
190 1 1.57101 7.86154 11.0077 -8.94973
19 1 6.2896 3.14439 0.00033015 -8.9495
49 1 18.869 9.43449 0.000180302 -8.94958
21 1 9.43459 3.14439 0.000351815 -8.94954
43 1 22.0133 9.43441 0.000341063 -8.94953
176 1 1.57213 1.57215 11.0069 -8.94957
343 1 18.869 9.43444 18.8695 -8.94956
342 1 15.7249 9.43457 18.8698 -8.94901
341 1 12.5797 9.43531 18.8698 -8.94897
340 1 9.43401 9.43451 18.8706 -8.95174
339 1 6.28679 9.43321 18.877 -8.9592
338 1 3.14128 9.43323 18.8725 -8.94767
183 1 1.57175 4.71648 11.007 -8.94901
337 1 -0.00148559 9.43419 18.87 -8.9493
336 1 20.441 7.86191 20.4419 -8.94948
335 1 18.869 6.28949 18.8694 -8.94983
334 1 17.2968 7.86207 20.4418 -8.94944
188 1 17.2981 4.71633 11.0066 -8.9493
189 1 20.4416 4.71678 11.0069 -8.94956
333 1 15.7252 6.28944 18.87 -8.95036
332 1 14.1522 7.86234 20.4421 -8.94963
331 1 12.5821 6.28719 18.8734 -8.94992
330 1 11.0074 7.86184 20.4436 -8.95244
329 1 9.43507 6.28742 18.8721 -8.94778
328 1 7.86236 7.8611 20.4441 -8.95051
327 1 6.28858 6.28722 18.8723 -8.94919
197 1 -0.00012934 1.75222e-15 12.5794 -8.9496
198 1 1.57213 1.57215 14.1518 -8.94957
199 1 3.14451 1.91851e-15 12.5794 -8.94967
200 1 4.71694 1.57209 14.1517 -8.94938
201 1 6.28936 1.2116e-15 12.5794 -8.9492
202 1 7.86194 1.57189 14.1517 -8.94944
203 1 9.43427 -6.32951e-16 12.5794 -8.94861
204 1 11.0071 1.57086 14.1519 -8.95139
205 1 12.58 -1.50277e-15 12.5794 -8.95029
206 1 14.1528 1.57134 14.1522 -8.94939
207 1 15.7249 9.40874e-17 12.5794 -8.94949
208 1 17.2972 1.57208 14.1519 -8.94953
209 1 18.8693 1.89845e-15 12.5794 -8.94959
210 1 20.4415 1.57224 14.1518 -8.94958
211 1 22.0137 3.14442 12.5794 -8.94959
212 1 1.57175 4.71648 14.1518 -8.94901
213 1 3.14432 3.14413 12.5794 -8.94966
214 1 4.7169 4.71656 14.151 -8.94897
215 1 6.28948 3.14467 12.5794 -8.94825
216 1 7.86262 4.71573 14.1518 -8.95174
217 1 9.43459 3.14395 12.5794 -8.94644
218 1 11.0098 4.70935 14.1531 -8.9592
219 1 12.5816 3.1412 12.5794 -8.94954
220 1 14.1554 4.7138 14.1531 -8.94767
221 1 15.7256 3.14363 12.5794 -8.94948
222 1 17.2981 4.71633 14.1521 -8.9493
223 1 18.8695 3.14441 12.5794 -8.94954
224 1 20.4416 4.71678 14.1519 -8.94956
225 1 -0.000593931 6.28894 12.5794 -8.94953
226 1 1.57101 7.86154 14.1511 -8.94973
227 1 3.1434 6.28809 12.5794 -8.94651
228 1 4.71413 7.86158 14.1492 -8.95284
229 1 6.2918 6.29206 12.5794 -8.94523
230 1 7.8476 7.85463 14.1751 -8.90476
231 1 9.43957 6.29319 12.5794 -9.00331
232 1 11.0474 7.82546 14.185 -8.85402
233 1 12.5897 6.27992 12.5794 -8.94217
234 1 14.1618 7.85849 14.1542 -8.95821
235 1 15.7284 6.2875 12.5794 -8.94906
236 1 17.299 7.86181 14.1521 -8.95174
237 1 18.87 6.28912 12.5794 -8.94994
238 1 20.4414 7.86183 14.1517 -8.9499
239 1 22.0135 9.43422 12.5794 -8.94775
240 1 3.14703 9.43502 12.5794 -8.93984
241 1 6.31205 9.44448 12.5794 -8.90185
242 1 9.51259 9.20314 12.5794 -8.12003
243 1 12.5874 9.42714 12.5794 -8.97292
244 1 15.7267 9.43494 12.5794 -8.95116
245 1 18.8696 9.43461 12.5794 -8.94949
246 1 -0.000112696 1.56803e-15 15.7243 -8.94956
247 1 1.5722 1.57217 17.2966 -8.94971
248 1 3.14459 1.37254e-15 15.7242 -8.94954
249 1 4.71681 1.57155 17.297 -8.9506
250 1 6.28947 1.60719e-15 15.7243 -8.95036
251 1 7.8618 1.57156 17.2973 -8.94961
252 1 9.43427 5.47389e-17 15.7246 -8.9502
253 1 11.007 1.5715 17.2973 -8.94966
254 1 12.5798 -7.38978e-16 15.7247 -8.95061
255 1 14.1526 1.57142 17.2975 -8.94999
256 1 15.7249 8.59289e-16 15.7245 -8.94942
257 1 17.2971 1.57211 17.297 -8.94953
258 1 18.8693 1.93103e-15 15.7243 -8.94958
259 1 20.4415 1.57227 17.2967 -8.94955
260 1 -0.000185973 3.14448 15.7243 -8.94944
261 1 1.57146 4.71632 17.2969 -8.95036
262 1 3.14445 3.1442 15.724 -8.94963
263 1 4.71454 4.7129 17.2991 -8.94992
264 1 6.28927 3.14273 15.7245 -8.95244
265 1 7.86157 4.71425 17.2989 -8.94778
266 1 9.43427 3.14225 15.7252 -8.95051
267 1 11.0081 4.71399 17.2991 -8.94919
268 1 12.581 3.14138 15.7258 -8.95152
269 1 14.1558 4.71346 17.3006 -8.94457
270 1 15.7255 3.14366 15.7249 -8.94925
271 1 17.298 4.71643 17.2975 -8.94967
272 1 18.8695 3.14444 15.7244 -8.94948
273 1 20.4415 4.71689 17.2968 -8.94983
274 1 22.0133 6.2892 15.7241 -8.94979
275 1 1.56838 7.86016 17.2985 -8.95087
276 1 3.14273 6.28818 15.7242 -8.9516
277 1 4.70464 7.85034 17.3088 -8.92996
278 1 6.28363 6.2795 15.7305 -8.95339
279 1 7.86139 7.85726 17.3051 -8.95094
280 1 9.43524 6.28127 15.7291 -8.95094
281 1 11.013 7.85578 17.3068 -8.95339
282 1 12.592 6.27748 15.736 -8.92996
283 1 14.1539 7.86217 17.2981 -8.9516
284 1 15.7283 6.28779 15.7262 -8.95087
285 1 17.2973 7.86218 17.2971 -8.94979
286 1 18.8699 6.28928 15.7245 -8.95018
287 1 20.4407 7.86178 17.297 -8.95018
288 1 22.0116 9.43426 15.7245 -8.95174
289 1 3.13487 9.4321 15.7278 -8.95821
290 1 6.2492 9.40133 15.7609 -8.85402
291 1 9.44904 9.41125 15.7317 -8.90476
292 1 12.5825 9.43711 15.7247 -8.95284
293 1 15.7256 9.43524 15.7248 -8.94973
294 1 18.8691 9.43457 15.7245 -8.9499
295 1 22.0138 1.53681e-15 18.8691 -8.94971
296 1 1.57203 1.57202 20.4418 -8.9495
297 1 3.14447 1.59353e-15 18.8694 -8.95
298 1 4.71707 1.57207 20.4418 -8.94951
299 1 6.28945 1.23888e-15 18.8695 -8.94952
300 1 7.86204 1.57207 20.4419 -8.94954
301 1 9.43448 1.10613e-15 18.8696 -8.94956
302 1 11.007 1.57209 20.4419 -8.9495
303 1 12.5796 2.56947e-16 18.8696 -8.94959
304 1 14.1521 1.5721 20.4419 -8.94966
305 1 15.7248 6.92816e-16 18.8696 -8.94955
306 1 17.297 1.57218 20.4419 -8.94923
307 1 18.8693 1.54312e-15 18.8692 -8.94959
308 1 20.4415 1.57226 20.4416 -8.94962
309 1 22.0136 3.14442 18.8693 -8.94984
310 1 1.57119 4.71603 20.4426 -8.94825
311 1 3.14379 3.1433 18.87 -8.94945
312 1 4.7167 4.71613 20.4426 -8.94967
313 1 6.28933 3.14363 18.87 -8.94915
314 1 7.86207 4.71625 20.4426 -8.94938
315 1 9.43456 3.14369 18.8701 -8.94938
316 1 11.0073 4.71637 20.4427 -8.94915
317 1 12.5799 3.14369 18.8702 -8.94967
318 1 14.1528 4.7163 20.443 -8.94945
319 1 15.7254 3.14377 18.8703 -8.94825
320 1 17.2969 4.71707 20.4419 -8.94984
321 1 18.8694 3.1445 18.8694 -8.94956
322 1 20.4411 4.71692 20.4418 -8.94956
323 1 22.0125 6.28879 18.8699 -8.94967
324 1 1.57111 7.86141 20.4427 -8.94925
325 1 3.14084 6.28574 18.8729 -8.94457
326 1 4.71563 7.86056 20.4449 -8.95152
7 1 9.43454 -1.30769e-15 22.0141 -8.94958
48 1 15.7245 9.43452 22.0142 -8.94957
44 1 3.14382 9.43417 22.015 -8.94939
33 1 6.2896 6.28898 22.0148 -8.94966
35 1 9.43484 6.28902 22.0148 -8.94961
3 1 3.14472 -6.25828e-16 22.014 -8.94959
11 1 15.7244 -4.33425e-16 22.0141 -8.94964
17 1 3.14456 3.14438 22.0142 -8.94966
23 1 12.5796 3.14447 22.0143 -8.94951
29 1 -0.000501185 6.28936 22.0142 -8.94953
180 1 14.1528 1.57134 11.0066 -8.94939
187 1 14.1554 4.7138 11.0056 -8.94767
344 1 1.57173 11.007 1.57242 -8.94949
345 1 4.71659 11.007 1.57242 -8.95029
346 1 7.86237 11.007 1.57242 -8.94861
347 1 11.0073 11.007 1.57242 -8.9492
348 1 14.1521 11.007 1.57242 -8.94967
349 1 17.2968 11.007 1.57242 -8.9496
350 1 20.4412 11.007 1.57242 -8.94959
511 1 18.8695 18.8695 9.43433 -8.94948
352 1 1.57178 14.1521 1.57242 -8.94942
510 1 15.7255 18.8702 9.43383 -8.94925
354 1 4.71686 14.1523 1.57242 -8.95061
355 1 6.28955 12.5795 0.00156099 -8.95139
356 1 7.86237 14.1522 1.57242 -8.9502
357 1 9.4347 12.5793 0.0005322 -8.94944
358 1 11.0072 14.1518 1.57242 -8.95036
359 1 12.5797 12.5792 0.000329351 -8.94938
360 1 14.152 14.1517 1.57242 -8.94954
509 1 12.581 18.8725 9.43298 -8.95152
362 1 17.2967 14.1518 1.57242 -8.94956
508 1 9.43427 18.8717 9.43353 -8.95051
364 1 20.4413 14.1519 1.57242 -8.94958
539 1 20.4415 20.4417 11.0069 -8.94958
366 1 1.57188 17.2972 1.57242 -8.94955
367 1 3.14399 15.7251 0.00100562 -8.94999
368 1 4.71708 17.2972 1.57242 -8.94959
507 1 6.28927 18.8712 9.43426 -8.95244
370 1 7.86216 17.2972 1.57242 -8.94956
506 1 3.14445 18.8697 9.43476 -8.94963
372 1 11.0072 17.2971 1.57242 -8.94952
373 1 12.5798 15.7245 0.000871974 -8.9506
374 1 14.1522 17.297 1.57242 -8.95
375 1 15.7244 15.7242 0.000250106 -8.94971
376 1 17.2967 17.2967 1.57242 -8.94971
377 1 18.869 15.7243 0.000151414 -8.94955
378 1 20.4413 17.2968 1.57242 -8.94959
379 1 22.0135 18.8694 0.000237006 -8.94923
380 1 1.57226 20.4417 1.57242 -8.94964
538 1 17.2972 20.4418 11.0068 -8.94953
382 1 4.71718 20.4417 1.57242 -8.94956
505 1 -0.000185973 18.8694 9.43449 -8.94944
384 1 7.86209 20.4417 1.57242 -8.94958
504 1 18.8699 15.7246 9.4342 -8.95018
386 1 11.007 20.4417 1.57242 -8.94957
536 1 11.0071 20.443 11.0068 -8.95139
388 1 14.1519 20.4416 1.57242 -8.94959
389 1 15.7246 18.8694 0.000404149 -8.9495
390 1 17.2968 20.4416 1.57242 -8.94946
391 1 18.8691 18.8692 0.000161686 -8.94962
392 1 20.4414 20.4416 1.57242 -8.94937
393 1 1.57104 11.007 4.71605 -8.94948
394 1 4.71507 11.007 4.71363 -8.94954
395 1 7.86205 11.007 4.71638 -8.94644
396 1 11.0072 11.007 4.71709 -8.94825
397 1 14.1523 11.007 4.71656 -8.94966
398 1 17.2968 11.007 4.71685 -8.94959
399 1 20.441 11.007 4.71683 -8.94954
400 1 22.0133 12.5795 3.1445 -8.94953
401 1 1.57111 14.1525 4.71609 -8.94925
402 1 3.14382 12.5797 3.14376 -8.94939
403 1 4.71563 14.1533 4.7138 -8.95152
404 1 6.28955 12.5795 3.14328 -8.95139
405 1 7.86236 14.1528 4.71467 -8.95051
406 1 9.4347 12.5793 3.14431 -8.94944
407 1 11.0074 14.1521 4.71515 -8.95244
408 1 12.5797 12.5792 3.14451 -8.94938
409 1 14.1522 14.1516 4.71662 -8.94963
410 1 15.7245 12.5794 3.14457 -8.94957
411 1 17.2968 14.1518 4.7169 -8.94944
412 1 18.869 12.5794 3.14466 -8.94958
413 1 20.441 14.152 4.71686 -8.94948
414 1 -0.000501185 15.7245 3.14453 -8.94953
415 1 1.57119 17.2979 4.71619 -8.94825
416 1 3.14399 15.7251 3.14384 -8.94999
417 1 4.7167 17.2978 4.71611 -8.94967
418 1 6.2896 15.7249 3.14393 -8.94966
419 1 7.86207 17.2977 4.71611 -8.94938
420 1 9.43484 15.7249 3.14398 -8.94961
421 1 11.0073 17.2975 4.71605 -8.94915
422 1 12.5798 15.7245 3.14397 -8.9506
423 1 14.1528 17.2976 4.71573 -8.94945
424 1 15.7244 15.7242 3.14459 -8.94971
425 1 17.2969 17.2968 4.71684 -8.94984
426 1 18.869 15.7243 3.14469 -8.94955
427 1 20.4411 17.297 4.71693 -8.94956
428 1 22.0135 18.8694 3.14461 -8.94923
429 1 1.57203 20.4419 4.7169 -8.9495
430 1 3.14456 18.8695 3.14453 -8.94966
431 1 4.71707 20.4418 4.7169 -8.94951
432 1 6.2896 18.8695 3.14451 -8.9495
433 1 7.86204 20.4418 4.71681 -8.94954
434 1 9.43459 18.8695 3.14449 -8.94954
435 1 11.007 20.4418 4.71681 -8.9495
436 1 12.5796 18.8694 3.14449 -8.94951
437 1 14.1521 20.4418 4.7168 -8.94966
438 1 15.7246 18.8694 3.14444 -8.9495
439 1 17.297 20.4417 4.71688 -8.94923
440 1 18.8691 18.8692 3.14468 -8.94962
441 1 20.4415 20.4416 4.71712 -8.94962
442 1 1.56823 11.007 7.85992 -8.94906
443 1 4.70697 11.007 7.85235 -8.94217
444 1 7.85706 11.007 7.86561 -9.00331
445 1 11.0048 11.007 7.86448 -8.94523
446 1 14.1532 11.007 7.86051 -8.94651
447 1 17.2972 11.007 7.86136 -8.94953
448 1 20.4405 11.007 7.86155 -8.94994
449 1 -0.00148559 12.5797 6.28875 -8.9493
450 1 1.56838 14.1537 7.86021 -8.95087
451 1 3.14128 12.5807 6.28622 -8.94767
452 1 4.70464 14.1636 7.8499 -8.92996
453 1 6.28679 12.5807 6.28177 -8.9592
454 1 7.86139 14.1566 7.85369 -8.95094
455 1 9.43401 12.5794 6.28815 -8.95174
456 1 11.013 14.1581 7.85193 -8.95339
457 1 12.5797 12.5786 6.28898 -8.94897
458 1 14.1539 14.1517 7.8606 -8.9516
459 1 15.7249 12.5793 6.2889 -8.94901
460 1 17.2973 14.1517 7.86162 -8.94979
461 1 18.869 12.5795 6.28921 -8.94956
462 1 20.4407 14.1521 7.8617 -8.95018
463 1 22.0125 15.7251 6.28885 -8.94967
464 1 1.57146 17.2976 7.86186 -8.95036
465 1 3.14084 15.7282 6.28588 -8.94457
466 1 4.71454 17.301 7.85961 -8.94992
467 1 6.28858 15.7267 6.28641 -8.94919
468 1 7.86157 17.2997 7.85984 -8.94778
469 1 9.43507 15.7265 6.28667 -8.94778
470 1 11.0081 17.2999 7.85964 -8.94919
471 1 12.5821 15.7267 6.28532 -8.94992
472 1 14.1558 17.3004 7.85817 -8.94457
473 1 15.7252 15.7245 6.28875 -8.95036
474 1 17.298 17.2975 7.86121 -8.94967
475 1 18.869 15.7244 6.28932 -8.94983
476 1 20.4415 17.297 7.86192 -8.94983
477 1 22.0136 18.8695 6.28949 -8.94984
478 1 1.5722 20.4417 7.86211 -8.94971
479 1 3.14379 18.8706 6.28873 -8.94945
480 1 4.71681 20.4424 7.86178 -8.9506
481 1 6.28933 18.8703 6.28879 -8.94915
482 1 7.8618 20.4423 7.86145 -8.94961
483 1 9.43456 18.8702 6.28867 -8.94938
484 1 11.007 20.4424 7.8614 -8.94966
485 1 12.5799 18.8702 6.28855 -8.94967
486 1 14.1526 20.4425 7.86121 -8.94999
487 1 15.7254 18.8701 6.28845 -8.94825
488 1 17.2971 20.4418 7.86179 -8.94953
489 1 18.8694 18.8694 6.28934 -8.94956
490 1 20.4415 20.4416 7.86202 -8.94955
491 1 22.0116 12.5796 9.43423 -8.95174
492 1 3.13487 12.5818 9.43091 -8.95821
493 1 6.2492 12.6126 9.39788 -8.85402
494 1 9.44904 12.6027 9.42705 -8.90476
495 1 12.5825 12.5768 9.434 -8.95284
496 1 15.7256 12.5787 9.43397 -8.94973
497 1 18.8691 12.5793 9.43425 -8.9499
498 1 22.0133 15.7247 9.4346 -8.94979
499 1 3.14273 15.7257 9.43459 -8.9516
500 1 6.28363 15.7344 9.4282 -8.95339
501 1 9.43524 15.7326 9.42969 -8.95094
502 1 12.592 15.7364 9.42276 -8.92996
503 1 15.7283 15.7261 9.43258 -8.95087
512 1 1.56998 11.007 11.0074 -8.95116
513 1 4.70925 11.007 10.9996 -8.97292
514 1 7.78404 11.007 10.7756 -8.12003
515 1 10.9846 11.007 11.0169 -8.90185
516 1 14.1496 11.007 11.0074 -8.93984
517 1 17.2971 11.007 11.0066 -8.94775
518 1 20.4409 11.007 11.007 -8.94949
519 1 1.57101 14.1524 11.0077 -8.94973
520 1 4.71413 14.1523 11.0095 -8.95284
521 1 7.8476 14.1593 10.9837 -8.90476
522 1 11.0474 14.1884 10.9738 -8.85402
523 1 14.1618 14.1554 11.0045 -8.95821
524 1 17.299 14.1521 11.0067 -8.95174
525 1 20.4414 14.1521 11.007 -8.9499
527 1 4.7169 17.2973 11.0077 -8.94897
528 1 7.86262 17.2982 11.0069 -8.95174
529 1 11.0098 17.3046 11.0056 -8.9592
535 1 7.86194 20.442 11.0071 -8.94944
534 1 4.71694 20.4418 11.0071 -8.94938
351 1 22.0133 12.5795 0.000341063 -8.94953
385 1 9.43459 18.8695 0.000351815 -8.94954
383 1 6.2896 18.8695 0.00033015 -8.9495
363 1 18.869 12.5794 0.000180302 -8.94958
687 3 8.64832 11.007 12.5794 2.30877
686 1 20.4415 20.4416 20.4416 -8.94962
685 1 18.8694 18.8694 18.8694 -8.94956
684 1 17.297 20.4417 20.4419 -8.94923
683 1 15.7254 18.8701 18.8703 -8.94825
682 1 14.1521 20.4418 20.4419 -8.94966
681 1 12.5799 18.8702 18.8702 -8.94967
680 1 11.007 20.4418 20.4419 -8.9495
679 1 9.43456 18.8702 18.8701 -8.94938
678 1 7.86204 20.4418 20.4419 -8.94954
677 1 6.28933 18.8703 18.87 -8.94915
676 1 4.71707 20.4418 20.4418 -8.94951
675 1 3.14379 18.8706 18.87 -8.94945
674 1 1.57203 20.4419 20.4418 -8.9495
526 1 1.57175 17.2974 11.007 -8.94901
673 1 22.0136 18.8695 18.8693 -8.94984
672 1 20.4411 17.297 20.4418 -8.94956
671 1 18.869 15.7244 18.8694 -8.94983
670 1 17.2969 17.2968 20.4419 -8.94984
531 1 17.2981 17.2976 11.0066 -8.9493
532 1 20.4416 17.2971 11.0069 -8.94956
533 1 1.57213 20.4418 11.0069 -8.94957
669 1 15.7252 15.7245 18.87 -8.95036
668 1 14.1528 17.2976 20.443 -8.94945
667 1 12.5821 15.7267 18.8734 -8.94992
666 1 11.0073 17.2975 20.4427 -8.94915
665 1 9.43507 15.7265 18.8721 -8.94778
664 1 7.86207 17.2977 20.4426 -8.94938
540 1 1.56998 11.007 14.1514 -8.95116
541 1 4.70925 11.007 14.1592 -8.97292
542 1 7.78404 11.007 14.3832 -8.12003
543 1 10.9846 11.007 14.1418 -8.90185
544 1 14.1496 11.007 14.1513 -8.93984
545 1 17.2971 11.007 14.1521 -8.94775
546 1 20.4409 11.007 14.1517 -8.94949
547 1 22.0135 12.5797 12.5794 -8.94775
548 1 1.57101 14.1524 14.1511 -8.94973
549 1 3.14703 12.5789 12.5794 -8.93984
550 1 4.71413 14.1523 14.1492 -8.95284
551 1 6.31205 12.5694 12.5794 -8.90185
552 1 7.8476 14.1593 14.1751 -8.90476
553 1 9.51259 12.8108 12.5794 -8.12003
554 1 11.0474 14.1884 14.185 -8.85402
555 1 12.5874 12.5868 12.5794 -8.97292
556 1 14.1618 14.1554 14.1542 -8.95821
557 1 15.7267 12.579 12.5794 -8.95116
558 1 17.299 14.1521 14.1521 -8.95174
559 1 18.8696 12.5793 12.5794 -8.94949
560 1 20.4414 14.1521 14.1517 -8.9499
561 1 -0.000593931 15.725 12.5794 -8.94953
562 1 1.57175 17.2974 14.1518 -8.94901
563 1 3.1434 15.7258 12.5794 -8.94651
564 1 4.7169 17.2973 14.151 -8.94897
565 1 6.2918 15.7218 12.5794 -8.94523
566 1 7.86262 17.2982 14.1518 -8.95174
567 1 9.43957 15.7207 12.5794 -9.00331
568 1 11.0098 17.3046 14.1531 -8.9592
569 1 12.5897 15.734 12.5794 -8.94217
570 1 14.1554 17.3001 14.1531 -8.94767
571 1 15.7284 15.7264 12.5794 -8.94906
572 1 17.2981 17.2976 14.1521 -8.9493
573 1 18.87 15.7248 12.5794 -8.94994
574 1 20.4416 17.2971 14.1519 -8.94956
575 1 22.0137 18.8695 12.5794 -8.94959
576 1 1.57213 20.4418 14.1518 -8.94957
577 1 3.14432 18.8698 12.5794 -8.94966
578 1 4.71694 20.4418 14.1517 -8.94938
579 1 6.28948 18.8692 12.5794 -8.94825
580 1 7.86194 20.442 14.1517 -8.94944
581 1 9.43459 18.8699 12.5794 -8.94644
582 1 11.0071 20.443 14.1519 -8.95139
583 1 12.5816 18.8727 12.5794 -8.94954
584 1 14.1528 20.4426 14.1522 -8.94939
585 1 15.7256 18.8703 12.5794 -8.94948
586 1 17.2972 20.4418 14.1519 -8.94953
587 1 18.8695 18.8695 12.5794 -8.94954
588 1 20.4415 20.4417 14.1518 -8.94958
589 1 1.56823 11.007 17.2988 -8.94906
590 1 4.70697 11.007 17.3064 -8.94217
591 1 7.85706 11.007 17.2931 -9.00331
592 1 11.0048 11.007 17.2943 -8.94523
593 1 14.1532 11.007 17.2982 -8.94651
594 1 17.2972 11.007 17.2974 -8.94953
595 1 20.4405 11.007 17.2972 -8.94994
596 1 22.0116 12.5796 15.7245 -8.95174
597 1 1.56838 14.1537 17.2985 -8.95087
598 1 3.13487 12.5818 15.7278 -8.95821
599 1 4.70464 14.1636 17.3088 -8.92996
600 1 6.2492 12.6126 15.7609 -8.85402
601 1 7.86139 14.1566 17.3051 -8.95094
602 1 9.44904 12.6027 15.7317 -8.90476
603 1 11.013 14.1581 17.3068 -8.95339
604 1 12.5825 12.5768 15.7247 -8.95284
605 1 14.1539 14.1517 17.2981 -8.9516
606 1 15.7256 12.5787 15.7248 -8.94973
607 1 17.2973 14.1517 17.2971 -8.94979
608 1 18.8691 12.5793 15.7245 -8.9499
609 1 20.4407 14.1521 17.297 -8.95018
610 1 22.0133 15.7247 15.7241 -8.94979
611 1 1.57146 17.2976 17.2969 -8.95036
612 1 3.14273 15.7257 15.7242 -8.9516
613 1 4.71454 17.301 17.2991 -8.94992
614 1 6.28363 15.7344 15.7305 -8.95339
615 1 7.86157 17.2997 17.2989 -8.94778
616 1 9.43524 15.7326 15.7291 -8.95094
617 1 11.0081 17.2999 17.2991 -8.94919
618 1 12.592 15.7364 15.736 -8.92996
619 1 14.1558 17.3004 17.3006 -8.94457
620 1 15.7283 15.7261 15.7262 -8.95087
621 1 17.298 17.2975 17.2975 -8.94967
622 1 18.8699 15.7246 15.7245 -8.95018
623 1 20.4415 17.297 17.2968 -8.94983
624 1 -0.000185973 18.8694 15.7243 -8.94944
625 1 1.5722 20.4417 17.2966 -8.94971
626 1 3.14445 18.8697 15.724 -8.94963
627 1 4.71681 20.4424 17.297 -8.9506
628 1 6.28927 18.8712 15.7245 -8.95244
629 1 7.8618 20.4423 17.2973 -8.94961
630 1 9.43427 18.8717 15.7252 -8.95051
631 1 11.007 20.4424 17.2973 -8.94966
632 1 12.581 18.8725 15.7258 -8.95152
633 1 14.1526 20.4425 17.2975 -8.94999
634 1 15.7255 18.8702 15.7249 -8.94925
635 1 17.2971 20.4418 17.297 -8.94953
636 1 18.8695 18.8695 15.7244 -8.94948
637 1 20.4415 20.4416 17.2967 -8.94955
638 1 1.57104 11.007 20.4427 -8.94948
639 1 4.71507 11.007 20.4451 -8.94954
640 1 7.86205 11.007 20.4424 -8.94644
641 1 11.0072 11.007 20.4417 -8.94825
642 1 14.1523 11.007 20.4422 -8.94966
643 1 17.2968 11.007 20.4419 -8.94959
644 1 20.441 11.007 20.4419 -8.94954
645 1 -0.00148559 12.5797 18.87 -8.9493
646 1 1.57111 14.1525 20.4427 -8.94925
647 1 3.14128 12.5807 18.8725 -8.94767
648 1 4.71563 14.1533 20.4449 -8.95152
649 1 6.28679 12.5807 18.877 -8.9592
650 1 7.86236 14.1528 20.4441 -8.95051
651 1 9.43401 12.5794 18.8706 -8.95174
652 1 11.0074 14.1521 20.4436 -8.95244
653 1 12.5797 12.5786 18.8698 -8.94897
654 1 14.1522 14.1516 20.4421 -8.94963
655 1 15.7249 12.5793 18.8698 -8.94901
656 1 17.2968 14.1518 20.4418 -8.94944
657 1 18.869 12.5795 18.8695 -8.94956
658 1 20.441 14.152 20.4419 -8.94948
659 1 22.0125 15.7251 18.8699 -8.94967
660 1 1.57119 17.2979 20.4426 -8.94825
661 1 3.14084 15.7282 18.8729 -8.94457
662 1 4.7167 17.2978 20.4426 -8.94967
663 1 6.28858 15.7267 18.8723 -8.94919
371 1 9.43484 15.7249 22.0148 -8.94961
353 1 3.14382 12.5797 22.015 -8.94939
361 1 15.7245 12.5794 22.0142 -8.94957
369 1 6.2896 15.7249 22.0148 -8.94966
365 1 -0.000501185 15.7245 22.0142 -8.94953
381 1 3.14456 18.8695 22.0142 -8.94966
387 1 12.5796 18.8694 22.0143 -8.94951
537 1 14.1528 20.4426 11.0066 -8.94939
530 1 14.1554 17.3001 11.0056 -8.94767
