ITEM: TIMESTEP
68
ITEM: NUMBER OF ATOMS
687
ITEM: BOX BOUNDS pp pp pp
0.0000000000000000e+00 2.2013900999999997e+01
0.0000000000000000e+00 2.2013900999999997e+01
0.0000000000000000e+00 2.2013900999999997e+01
ITEM: ATOMS id type x y z c_pot
1 1 22.0138 3.79312e-16 6.9649e-05 -8.94954
2 1 1.57238 1.57236 1.57242 -8.94968
196 1 20.4414 7.86189 11.007 -8.94988
4 1 4.71724 1.57235 1.57242 -8.9496
5 1 6.28967 -1.19821e-15 8.08873e-05 -8.94961
6 1 7.8621 1.57234 1.57242 -8.94962
175 1 18.8691 9.43455 9.43431 -8.94988
8 1 11.007 1.57234 1.57242 -8.94961
9 1 12.5794 5.79631e-16 7.34464e-05 -8.9496
10 1 14.1518 1.57236 1.57242 -8.94962
195 1 17.2986 7.86192 11.0067 -8.95158
12 1 17.2967 1.57235 1.57242 -8.94954
13 1 18.8691 1.13579e-15 3.97561e-05 -8.94949
14 1 20.4414 1.57238 1.57242 -8.94949
15 1 22.0137 3.14466 0.000123069 -8.94933
16 1 1.57214 4.71697 1.57242 -8.94956
194 1 14.1609 7.85909 11.0047 -8.95799
18 1 4.7172 4.71701 1.57242 -8.9496
174 1 15.7255 9.43516 9.43397 -8.94961
20 1 7.86213 4.71698 1.57242 -8.94958
173 1 12.5824 9.4373 9.4339 -8.9525
22 1 11.0071 4.717 1.57242 -8.94953
193 1 11.0465 7.82656 10.9741 -8.85374
24 1 14.152 4.71708 1.57242 -8.94988
25 1 15.7244 3.14465 0.000221225 -8.94952
26 1 17.2967 4.71726 1.57242 -8.94969
27 1 18.8691 3.14479 6.53141e-05 -8.94964
28 1 20.4414 4.71722 1.57242 -8.94964
192 1 7.84822 7.85535 10.9854 -8.90595
30 1 1.5721 7.86196 1.57242 -8.94948
31 1 3.1443 6.28912 0.000711461 -8.94991
32 1 4.717 7.8618 1.57242 -8.95049
172 1 9.44842 9.413 9.42777 -8.90595
34 1 7.8623 7.86183 1.57242 -8.95008
171 1 6.25011 9.40166 9.39899 -8.85374
36 1 11.0071 7.86204 1.57242 -8.95026
37 1 12.5797 6.28945 0.000632584 -8.9504
38 1 14.1519 7.86213 1.57242 -8.94955
39 1 15.7243 6.2897 0.000124511 -8.94969
40 1 17.2967 7.86209 1.57242 -8.94959
41 1 18.869 6.28966 6.22366e-05 -8.94959
42 1 20.4414 7.86208 1.57242 -8.94962
170 1 3.1357 9.43227 9.43151 -8.95799
169 1 22.012 9.43431 9.43434 -8.95158
45 1 6.28963 9.43444 0.00133987 -8.9513
46 1 9.4347 9.43458 0.000530232 -8.94952
47 1 12.5796 9.43461 0.00027707 -8.94943
168 1 18.8696 6.28943 9.43432 -8.95009
167 1 15.7274 6.28822 9.43299 -8.95077
50 1 22.0138 5.02586e-16 3.14477 -8.94954
51 1 1.57222 1.5722 4.71707 -8.94952
52 1 3.14481 -7.4171e-16 3.14478 -8.94962
53 1 4.71719 1.57224 4.71708 -8.94955
54 1 6.28967 -1.33501e-15 3.14476 -8.94961
55 1 7.86209 1.57223 4.71703 -8.94959
56 1 9.43454 -1.41696e-15 3.14476 -8.94962
57 1 11.007 1.57224 4.71704 -8.94956
58 1 12.5794 5.11898e-16 3.14477 -8.9496
59 1 14.1519 1.57226 4.71706 -8.9497
60 1 15.7243 5.36271e-16 3.14478 -8.94968
61 1 17.2968 1.5723 4.71708 -8.94933
62 1 18.8691 1.27003e-15 3.1448 -8.94949
63 1 20.4415 1.57236 4.71721 -8.94964
64 1 22.0137 3.14466 3.14472 -8.94933
65 1 1.57163 4.71647 4.71655 -8.94841
66 1 3.14474 3.14464 3.14468 -8.9497
67 1 4.71699 4.71659 4.71655 -8.94973
68 1 6.28965 3.14462 3.14466 -8.94956
69 1 7.8621 4.71661 4.7165 -8.94944
70 1 9.43455 3.14461 3.14465 -8.94959
71 1 11.0071 4.7167 4.71647 -8.94922
72 1 12.5794 3.14466 3.14466 -8.94955
73 1 14.1525 4.71662 4.71621 -8.94946
74 1 15.7244 3.14465 3.14462 -8.94952
75 1 17.2968 4.71718 4.71707 -8.9498
76 1 18.8691 3.14479 3.14478 -8.94964
77 1 20.4413 4.7171 4.71709 -8.94957
78 1 -0.000227728 6.28956 3.14468 -8.94961
79 1 1.57165 7.86173 4.71652 -8.94938
80 1 3.1443 6.28912 3.14413 -8.94991
81 1 4.71607 7.86089 4.71446 -8.95137
82 1 6.28967 6.28925 3.14422 -8.94959
83 1 7.86244 7.86133 4.71514 -8.95027
84 1 9.43473 6.28922 3.14422 -8.94957
85 1 11.0073 7.86191 4.71546 -8.95217
86 1 12.5797 6.28945 3.14421 -8.9504
87 1 14.152 7.8623 4.71684 -8.94963
88 1 15.7243 6.2897 3.14472 -8.94969
89 1 17.2968 7.86209 4.71707 -8.94949
90 1 18.869 6.28966 3.14478 -8.94959
91 1 20.4413 7.86203 4.71706 -8.94953
92 1 22.0136 9.43449 3.14466 -8.94959
93 1 3.14422 9.43431 3.1441 -8.9494
94 1 6.28963 9.43444 3.1435 -8.9513
95 1 9.4347 9.43458 3.14431 -8.94952
96 1 12.5796 9.43461 3.14457 -8.94943
97 1 15.7244 9.43451 3.14467 -8.94959
98 1 18.8691 9.43452 3.14476 -8.94962
99 1 22.0139 1.33602e-15 6.28968 -8.94969
100 1 1.57231 1.5723 7.86213 -8.94969
101 1 3.14464 1.04936e-15 6.2895 -8.94988
102 1 4.71697 1.57179 7.86187 -8.9504
103 1 6.28957 6.07889e-16 6.28942 -8.94953
104 1 7.8619 1.57179 7.86165 -8.94957
105 1 9.43451 -4.7882e-16 6.2894 -8.94958
106 1 11.007 1.5718 7.86167 -8.94959
107 1 12.5794 1.66901e-16 6.28943 -8.9496
108 1 14.1523 1.57171 7.86154 -8.94991
109 1 15.7245 8.93374e-16 6.2894 -8.94956
110 1 17.2969 1.57226 7.86198 -8.94961
111 1 18.8691 1.77978e-15 6.28964 -8.94964
112 1 20.4415 1.57236 7.86208 -8.94959
113 1 22.0138 3.14465 6.28961 -8.9498
114 1 1.57183 4.7167 7.86201 -8.95025
115 1 3.14416 3.14379 6.28904 -8.94946
116 1 4.71518 4.71372 7.86019 -8.94997
117 1 6.28951 3.14405 6.28912 -8.94922
118 1 7.86171 4.71491 7.8604 -8.9479
119 1 9.43454 3.14408 6.28903 -8.94944
120 1 11.0076 4.71485 7.8603 -8.94929
121 1 12.5796 3.14413 6.28901 -8.94973
122 1 14.1549 4.71422 7.85894 -8.94477
123 1 15.725 3.14412 6.28889 -8.94841
124 1 17.2976 4.71671 7.86153 -8.94966
125 1 18.8693 3.14467 6.28952 -8.94957
126 1 20.4415 4.71707 7.86202 -8.94976
127 1 22.013 6.28911 6.28913 -8.94966
128 1 1.5692 7.86057 7.86064 -8.95077
129 1 3.14169 6.28652 6.28664 -8.94477
130 1 4.70589 7.85121 7.85104 -8.9301
131 1 6.28908 6.28788 6.28727 -8.94929
132 1 7.86189 7.85811 7.85479 -8.95096
133 1 9.43493 6.28798 6.28733 -8.9479
134 1 11.0122 7.85684 7.8528 -8.95376
135 1 12.5815 6.28776 6.28614 -8.94997
136 1 14.1534 7.86235 7.86094 -8.95141
137 1 15.7248 6.28959 6.28912 -8.95025
138 1 17.2971 7.86217 7.86178 -8.9497
139 1 18.869 6.2896 6.28949 -8.94976
140 1 20.4409 7.86189 7.86185 -8.95009
141 1 -0.000939712 9.43433 6.2891 -8.94934
142 1 3.14225 9.43356 6.28707 -8.94788
143 1 6.28744 9.43335 6.28238 -8.95889
144 1 9.43425 9.43463 6.28807 -8.95142
145 1 12.5797 9.4353 6.28901 -8.9491
146 1 15.7247 9.43454 6.2891 -8.9491
147 1 18.869 9.43448 6.28942 -8.94958
148 1 -6.70902e-05 1.73817e-15 9.43451 -8.94959
149 1 3.14469 1.78496e-15 9.43456 -8.94955
150 1 6.28953 1.83918e-15 9.43446 -8.95026
151 1 9.43434 2.43781e-16 9.43425 -8.95008
152 1 12.5796 1.74226e-16 9.43422 -8.95049
153 1 15.7245 7.56e-16 9.43439 -8.94948
154 1 18.8691 1.28698e-15 9.4345 -8.94962
155 1 -0.000123235 3.14465 9.43451 -8.94949
156 1 3.14459 3.14442 9.43472 -8.94963
157 1 6.28934 3.14303 9.43433 -8.95217
158 1 9.43419 3.14272 9.43375 -8.95027
159 1 12.5806 3.14204 9.43332 -8.95137
160 1 15.725 3.1441 9.43415 -8.94938
161 1 18.8693 3.14464 9.43445 -8.94953
162 1 22.0134 6.28936 9.4346 -8.9497
163 1 3.14325 6.28852 9.43477 -8.95141
164 1 6.28444 6.28037 9.42926 -8.95376
165 1 9.43475 6.28237 9.43053 -8.95096
166 1 12.5907 6.27861 9.42364 -8.9301
177 1 4.71702 1.57214 11.007 -8.94943
178 1 7.86193 1.57189 11.007 -8.94952
179 1 11.007 1.57108 11.0069 -8.9513
191 1 4.71426 7.86148 11.0097 -8.9525
181 1 17.2969 1.57224 11.0069 -8.94959
182 1 20.4415 1.57234 11.0069 -8.94962
184 1 4.71692 4.71659 11.0077 -8.9491
185 1 7.86238 4.71565 11.0071 -8.95142
186 1 11.0092 4.70996 11.0058 -8.95889
190 1 1.57111 7.86155 11.0076 -8.94961
19 1 6.28965 3.14462 0.00017822 -8.94956
49 1 18.8691 9.43452 7.91504e-05 -8.94962
21 1 9.43455 3.14461 0.000193617 -8.94959
43 1 22.0136 9.43449 0.000178382 -8.94959
176 1 1.57224 1.57225 11.0069 -8.94959
343 1 18.869 9.43448 18.8693 -8.94958
342 1 15.7247 9.43454 18.8696 -8.9491
341 1 12.5797 9.4353 18.8697 -8.9491
340 1 9.43425 9.43463 18.8707 -8.95142
339 1 6.28744 9.43335 18.8764 -8.95889
338 1 3.14225 9.43356 18.8717 -8.94788
183 1 1.5719 4.71668 11.007 -8.9491
337 1 -0.000939712 9.43433 18.8696 -8.94934
336 1 20.4413 7.86203 20.4417 -8.94953
335 1 18.869 6.2896 18.8693 -8.94976
334 1 17.2968 7.86209 20.4417 -8.94949
188 1 17.2976 4.71668 11.0068 -8.94934
189 1 20.4415 4.71699 11.0069 -8.94958
333 1 15.7248 6.28959 18.8696 -8.95025
332 1 14.152 7.8623 20.4419 -8.94963
331 1 12.5815 6.28776 18.8726 -8.94997
330 1 11.0073 7.86191 20.4433 -8.95217
329 1 9.43493 6.28798 18.8714 -8.9479
328 1 7.86244 7.86133 20.4436 -8.95027
327 1 6.28908 6.28788 18.8715 -8.94929
197 1 -7.30415e-05 1.79523e-15 12.5794 -8.94962
198 1 1.57224 1.57225 14.1518 -8.94959
199 1 3.14464 1.89124e-15 12.5794 -8.94969
200 1 4.71702 1.57214 14.1517 -8.94943
201 1 6.28944 1.72838e-15 12.5794 -8.94933
202 1 7.86193 1.57189 14.1517 -8.94952
203 1 9.4343 1.06332e-15 12.5794 -8.94895
204 1 11.007 1.57108 14.1519 -8.9513
205 1 12.5798 -9.44026e-16 12.5794 -8.95016
206 1 14.1524 1.57168 14.152 -8.9494
207 1 15.7246 5.15854e-16 12.5794 -8.94954
208 1 17.2969 1.57224 14.1518 -8.94959
209 1 18.8691 1.5814e-15 12.5794 -8.94962
210 1 20.4415 1.57234 14.1518 -8.94962
211 1 22.0137 3.14461 12.5794 -8.94962
212 1 1.5719 4.71668 14.1518 -8.9491
213 1 3.14441 3.14425 12.5794 -8.94966
214 1 4.71692 4.71659 14.151 -8.9491
215 1 6.28942 3.14454 12.5794 -8.94837
216 1 7.86238 4.71565 14.1517 -8.95142
217 1 9.43439 3.14377 12.5794 -8.94683
218 1 11.0092 4.70996 14.153 -8.95889
219 1 12.5809 3.14191 12.5794 -8.94945
220 1 14.1544 4.71465 14.1528 -8.94788
221 1 15.725 3.14408 12.5794 -8.94954
222 1 17.2976 4.71668 14.152 -8.94934
223 1 18.8693 3.14463 12.5794 -8.94958
224 1 20.4415 4.71699 14.1518 -8.94958
225 1 -0.000528182 6.28912 12.5794 -8.94952
226 1 1.57111 7.86155 14.1512 -8.94961
227 1 3.14349 6.28817 12.5794 -8.9467
228 1 4.71426 7.86148 14.149 -8.9525
229 1 6.29158 6.29164 12.5794 -8.94573
230 1 7.84822 7.85535 14.1733 -8.90595
231 1 9.4391 6.29236 12.5794 -9.00306
232 1 11.0465 7.82656 14.1847 -8.85374
233 1 12.5883 6.28109 12.5794 -8.94255
234 1 14.1609 7.85909 14.1541 -8.95799
235 1 15.7275 6.28807 12.5794 -8.94905
236 1 17.2986 7.86192 14.152 -8.95158
237 1 18.8697 6.28933 12.5794 -8.94987
238 1 20.4414 7.86189 14.1518 -8.94988
239 1 22.0134 9.4342 12.5794 -8.94804
240 1 3.14622 9.43469 12.5794 -8.94022
241 1 6.31019 9.44397 12.5794 -8.90095
242 1 9.51438 9.20426 12.5794 -8.11659
243 1 12.5882 9.42783 12.5794 -8.97302
244 1 15.7267 9.43501 12.5794 -8.95133
245 1 18.8696 9.4346 12.5794 -8.94967
246 1 -6.70902e-05 1.78888e-15 15.7242 -8.94959
247 1 1.57231 1.5723 17.2966 -8.94969
248 1 3.14469 1.80156e-15 15.7242 -8.94955
249 1 4.71697 1.57179 17.2969 -8.9504
250 1 6.28953 1.72824e-15 15.7243 -8.95026
251 1 7.8619 1.57179 17.2971 -8.94957
252 1 9.43434 1.09374e-15 15.7245 -8.95008
253 1 11.007 1.5718 17.2971 -8.94959
254 1 12.5796 -4.07569e-18 15.7245 -8.95049
255 1 14.1523 1.57171 17.2972 -8.94991
256 1 15.7245 9.42112e-16 15.7244 -8.94948
257 1 17.2969 1.57226 17.2968 -8.94961
258 1 18.8691 1.41103e-15 15.7242 -8.94962
259 1 20.4415 1.57236 17.2967 -8.94959
260 1 -0.000123235 3.14465 15.7242 -8.94949
261 1 1.57183 4.7167 17.2967 -8.95025
262 1 3.14459 3.14442 15.724 -8.94963
263 1 4.71518 4.71372 17.2986 -8.94997
264 1 6.28934 3.14303 15.7244 -8.95217
265 1 7.86171 4.71491 17.2983 -8.9479
266 1 9.43419 3.14272 15.725 -8.95027
267 1 11.0076 4.71485 17.2984 -8.94929
268 1 12.5806 3.14204 15.7254 -8.95137
269 1 14.1549 4.71422 17.2998 -8.94477
270 1 15.725 3.1441 15.7246 -8.94938
271 1 17.2976 4.71671 17.2972 -8.94966
272 1 18.8693 3.14464 15.7243 -8.94953
273 1 20.4415 4.71707 17.2967 -8.94976
274 1 22.0134 6.28936 15.7241 -8.9497
275 1 1.5692 7.86057 17.2981 -8.95077
276 1 3.14325 6.28852 15.724 -8.95141
277 1 4.70589 7.85121 17.3077 -8.9301
278 1 6.28444 6.28037 15.7295 -8.95376
279 1 7.86189 7.85811 17.304 -8.95096
280 1 9.43475 6.28237 15.7282 -8.95096
281 1 11.0122 7.85684 17.3059 -8.95376
282 1 12.5907 6.27861 15.7351 -8.9301
283 1 14.1534 7.86235 17.2978 -8.95141
284 1 15.7274 6.28822 15.7258 -8.95077
285 1 17.2971 7.86217 17.297 -8.9497
286 1 18.8696 6.28943 15.7244 -8.95009
287 1 20.4409 7.86189 17.2969 -8.95009
288 1 22.012 9.43431 15.7244 -8.95158
289 1 3.1357 9.43227 15.7272 -8.95799
290 1 6.25011 9.40166 15.7598 -8.85374
291 1 9.44842 9.413 15.731 -8.90595
292 1 12.5824 9.4373 15.7248 -8.9525
293 1 15.7255 9.43516 15.7248 -8.94961
294 1 18.8691 9.43455 15.7244 -8.94988
295 1 22.0139 8.51357e-16 18.8691 -8.94969
296 1 1.57222 1.5722 20.4417 -8.94952
297 1 3.14464 1.17895e-15 18.8692 -8.94988
298 1 4.71719 1.57224 20.4417 -8.94955
299 1 6.28957 1.11258e-15 18.8693 -8.94953
300 1 7.86209 1.57223 20.4417 -8.94959
301 1 9.43451 -3.24443e-17 18.8693 -8.94958
302 1 11.007 1.57224 20.4417 -8.94956
303 1 12.5794 5.76677e-16 18.8693 -8.9496
304 1 14.1519 1.57226 20.4417 -8.9497
305 1 15.7245 1.53373e-15 18.8693 -8.94956
306 1 17.2968 1.5723 20.4417 -8.94933
307 1 18.8691 1.62959e-15 18.8691 -8.94964
308 1 20.4415 1.57236 20.4415 -8.94964
309 1 22.0138 3.14465 18.8691 -8.9498
310 1 1.57163 4.71647 20.4422 -8.94841
311 1 3.14416 3.14379 18.8697 -8.94946
312 1 4.71699 4.71659 20.4422 -8.94973
313 1 6.28951 3.14405 18.8696 -8.94922
314 1 7.8621 4.71661 20.4422 -8.94944
315 1 9.43454 3.14408 18.8697 -8.94944
316 1 11.0071 4.7167 20.4423 -8.94922
317 1 12.5796 3.14413 18.8697 -8.94973
318 1 14.1525 4.71662 20.4425 -8.94946
319 1 15.725 3.14412 18.8699 -8.94841
320 1 17.2968 4.71718 20.4417 -8.9498
321 1 18.8693 3.14467 18.8692 -8.94957
322 1 20.4413 4.7171 20.4417 -8.94957
323 1 22.013 6.28911 18.8696 -8.94966
324 1 1.57165 7.86173 20.4422 -8.94938
325 1 3.14169 6.28652 18.8721 -8.94477
326 1 4.71607 7.86089 20.4443 -8.95137
7 1 9.43454 -9.4476e-16 22.014 -8.94962
48 1 15.7244 9.43451 22.0141 -8.94959
44 1 3.14422 9.43431 22.0146 -8.9494
33 1 6.28967 6.28925 22.0145 -8.94959
35 1 9.43473 6.28922 22.0145 -8.94957
3 1 3.14481 -6.46792e-16 22.014 -8.94962
11 1 15.7243 6.88583e-16 22.014 -8.94968
17 1 3.14474 3.14464 22.0141 -8.9497
23 1 12.5794 3.14466 22.0141 -8.94955
29 1 -0.000227728 6.28956 22.0141 -8.94961
180 1 14.1524 1.57168 11.0067 -8.9494
187 1 14.1544 4.71465 11.006 -8.94788
344 1 1.57207 11.007 1.57242 -8.94954
345 1 4.71682 11.007 1.57242 -8.95016
346 1 7.86233 11.007 1.57242 -8.94895
347 1 11.0072 11.007 1.57242 -8.94933
348 1 14.152 11.007 1.57242 -8.94969
349 1 17.2967 11.007 1.57242 -8.94962
350 1 20.4414 11.007 1.57242 -8.94962
511 1 18.8693 18.8693 9.43445 -8.94953
352 1 1.5721 14.1519 1.57242 -8.94948
510 1 15.725 18.8698 9.43415 -8.94938
354 1 4.717 14.1521 1.57242 -8.95049
355 1 6.28963 12.5795 0.00133987 -8.9513
356 1 7.8623 14.1521 1.57242 -8.95008
357 1 9.4347 12.5793 0.000530232 -8.94952
358 1 11.0071 14.1519 1.57242 -8.95026
359 1 12.5796 12.5793 0.00027707 -8.94943
360 1 14.1519 14.1518 1.57242 -8.94955
509 1 12.5806 18.8719 9.43332 -8.95137
362 1 17.2967 14.1518 1.57242 -8.94959
508 1 9.43419 18.8712 9.43375 -8.95027
364 1 20.4414 14.1518 1.57242 -8.94962
539 1 20.4415 20.4416 11.0069 -8.94962
366 1 1.57214 17.2969 1.57242 -8.94956
367 1 3.1443 15.7248 0.000711461 -8.94991
368 1 4.7172 17.2969 1.57242 -8.9496
507 1 6.28934 18.8709 9.43433 -8.95217
370 1 7.86213 17.2969 1.57242 -8.94958
506 1 3.14459 18.8695 9.43472 -8.94963
372 1 11.0071 17.2969 1.57242 -8.94953
373 1 12.5797 15.7245 0.000632584 -8.9504
374 1 14.152 17.2968 1.57242 -8.94988
375 1 15.7243 15.7242 0.000124511 -8.94969
376 1 17.2967 17.2966 1.57242 -8.94969
377 1 18.869 15.7242 6.22366e-05 -8.94959
378 1 20.4414 17.2967 1.57242 -8.94964
379 1 22.0137 18.8692 0.000123069 -8.94933
380 1 1.57238 20.4415 1.57242 -8.94968
538 1 17.2969 20.4417 11.0069 -8.94959
382 1 4.71724 20.4416 1.57242 -8.9496
505 1 -0.000123235 18.8693 9.43451 -8.94949
384 1 7.8621 20.4416 1.57242 -8.94962
504 1 18.8696 15.7245 9.43432 -8.95009
386 1 11.007 20.4416 1.57242 -8.94961
536 1 11.007 20.4428 11.0069 -8.9513
388 1 14.1518 20.4415 1.57242 -8.94962
389 1 15.7244 18.8693 0.000221225 -8.94952
390 1 17.2967 20.4415 1.57242 -8.94954
391 1 18.8691 18.8691 6.53141e-05 -8.94964
392 1 20.4414 20.4415 1.57242 -8.94949
393 1 1.5716 11.007 4.7165 -8.94954
394 1 4.71569 11.007 4.71433 -8.94945
395 1 7.86225 11.007 4.71619 -8.94683
396 1 11.0072 11.007 4.71696 -8.94837
397 1 14.1522 11.007 4.71667 -8.94966
398 1 17.2968 11.007 4.71703 -8.94962
399 1 20.4413 11.007 4.71705 -8.94958
400 1 22.0136 12.5794 3.14466 -8.94959
401 1 1.57165 14.1522 4.71652 -8.94938
402 1 3.14422 12.5796 3.1441 -8.9494
403 1 4.71607 14.153 4.71446 -8.95137
404 1 6.28963 12.5795 3.1435 -8.9513
405 1 7.86244 14.1526 4.71514 -8.95027
406 1 9.4347 12.5793 3.14431 -8.94952
407 1 11.0073 14.152 4.71546 -8.95217
408 1 12.5796 12.5793 3.14457 -8.94943
409 1 14.152 14.1516 4.71684 -8.94963
410 1 15.7244 12.5794 3.14467 -8.94959
411 1 17.2968 14.1518 4.71707 -8.94949
412 1 18.8691 12.5794 3.14476 -8.94962
413 1 20.4413 14.1519 4.71706 -8.94953
414 1 -0.000227728 15.7243 3.14468 -8.94961
415 1 1.57163 17.2974 4.71655 -8.94841
416 1 3.1443 15.7248 3.14413 -8.94991
417 1 4.71699 17.2973 4.71655 -8.94973
418 1 6.28967 15.7247 3.14422 -8.94959
419 1 7.8621 17.2973 4.7165 -8.94944
420 1 9.43473 15.7247 3.14422 -8.94957
421 1 11.0071 17.2972 4.71647 -8.94922
422 1 12.5797 15.7245 3.14421 -8.9504
423 1 14.1525 17.2973 4.71621 -8.94946
424 1 15.7243 15.7242 3.14472 -8.94969
425 1 17.2968 17.2967 4.71707 -8.9498
426 1 18.869 15.7242 3.14478 -8.94959
427 1 20.4413 17.2968 4.71709 -8.94957
428 1 22.0137 18.8692 3.14472 -8.94933
429 1 1.57222 20.4417 4.71707 -8.94952
430 1 3.14474 18.8693 3.14468 -8.9497
431 1 4.71719 20.4417 4.71708 -8.94955
432 1 6.28965 18.8693 3.14466 -8.94956
433 1 7.86209 20.4417 4.71703 -8.94959
434 1 9.43455 18.8693 3.14465 -8.94959
435 1 11.007 20.4417 4.71704 -8.94956
436 1 12.5794 18.8692 3.14466 -8.94955
437 1 14.1519 20.4416 4.71706 -8.9497
438 1 15.7244 18.8693 3.14462 -8.94952
439 1 17.2968 20.4416 4.71708 -8.94933
440 1 18.8691 18.8691 3.14478 -8.94964
441 1 20.4415 20.4415 4.71721 -8.94964
442 1 1.56918 11.007 7.86049 -8.94905
443 1 4.70833 11.007 7.85351 -8.94255
444 1 7.85753 11.007 7.86479 -9.00306
445 1 11.0051 11.007 7.86406 -8.94573
446 1 14.1532 11.007 7.86059 -8.9467
447 1 17.2972 11.007 7.86154 -8.94952
448 1 20.4408 11.007 7.86175 -8.94987
449 1 -0.000939712 12.5796 6.2891 -8.94934
450 1 1.5692 14.1533 7.86064 -8.95077
451 1 3.14225 12.5803 6.28707 -8.94788
452 1 4.70589 14.1627 7.85104 -8.9301
453 1 6.28744 12.5806 6.28238 -8.95889
454 1 7.86189 14.1558 7.85479 -8.95096
455 1 9.43425 12.5793 6.28807 -8.95142
456 1 11.0122 14.1571 7.8528 -8.95376
457 1 12.5797 12.5786 6.28901 -8.9491
458 1 14.1534 14.1515 7.86094 -8.95141
459 1 15.7247 12.5794 6.2891 -8.9491
460 1 17.2971 14.1517 7.86178 -8.9497
461 1 18.869 12.5794 6.28942 -8.94958
462 1 20.4409 14.152 7.86185 -8.95009
463 1 22.013 15.7248 6.28913 -8.94966
464 1 1.57183 17.2972 7.86201 -8.95025
465 1 3.14169 15.7274 6.28664 -8.94477
466 1 4.71518 17.3002 7.86019 -8.94997
467 1 6.28908 15.726 6.28727 -8.94929
468 1 7.86171 17.299 7.8604 -8.9479
469 1 9.43493 15.7259 6.28733 -8.9479
470 1 11.0076 17.2991 7.8603 -8.94929
471 1 12.5815 15.7261 6.28614 -8.94997
472 1 14.1549 17.2997 7.85894 -8.94477
473 1 15.7248 15.7243 6.28912 -8.95025
474 1 17.2976 17.2972 7.86153 -8.94966
475 1 18.869 15.7243 6.28949 -8.94976
476 1 20.4415 17.2968 7.86202 -8.94976
477 1 22.0138 18.8693 6.28961 -8.9498
478 1 1.57231 20.4416 7.86213 -8.94969
479 1 3.14416 18.8701 6.28904 -8.94946
480 1 4.71697 20.4421 7.86187 -8.9504
481 1 6.28951 18.8699 6.28912 -8.94922
482 1 7.8619 20.4421 7.86165 -8.94957
483 1 9.43454 18.8698 6.28903 -8.94944
484 1 11.007 20.4421 7.86167 -8.94959
485 1 12.5796 18.8698 6.28901 -8.94973
486 1 14.1523 20.4422 7.86154 -8.94991
487 1 15.725 18.8698 6.28889 -8.94841
488 1 17.2969 20.4416 7.86198 -8.94961
489 1 18.8693 18.8692 6.28952 -8.94957
490 1 20.4415 20.4415 7.86208 -8.94959
491 1 22.012 12.5796 9.43434 -8.95158
492 1 3.1357 12.5816 9.43151 -8.95799
493 1 6.25011 12.6122 9.39899 -8.85374
494 1 9.44842 12.6009 9.42777 -8.90595
495 1 12.5824 12.5766 9.4339 -8.9525
496 1 15.7255 12.5787 9.43397 -8.94961
497 1 18.8691 12.5793 9.43431 -8.94988
498 1 22.0134 15.7245 9.4346 -8.9497
499 1 3.14325 15.7254 9.43477 -8.95141
500 1 6.28444 15.7335 9.42926 -8.95376
501 1 9.43475 15.7315 9.43053 -8.95096
502 1 12.5907 15.7353 9.42364 -8.9301
503 1 15.7274 15.7257 9.43299 -8.95077
512 1 1.56989 11.007 11.0074 -8.95133
513 1 4.70844 11.007 11.0003 -8.97302
514 1 7.78226 11.007 10.7767 -8.11659
515 1 10.9864 11.007 11.0164 -8.90095
516 1 14.1504 11.007 11.0071 -8.94022
517 1 17.2972 11.007 11.0066 -8.94804
518 1 20.441 11.007 11.007 -8.94967
519 1 1.57111 14.1523 11.0076 -8.94961
520 1 4.71426 14.1524 11.0097 -8.9525
521 1 7.84822 14.1586 10.9854 -8.90595
522 1 11.0465 14.1873 10.9741 -8.85374
523 1 14.1609 14.1548 11.0047 -8.95799
524 1 17.2986 14.152 11.0067 -8.95158
525 1 20.4414 14.152 11.007 -8.94988
527 1 4.71692 17.2973 11.0077 -8.9491
528 1 7.86238 17.2983 11.0071 -8.95142
529 1 11.0092 17.3039 11.0058 -8.95889
535 1 7.86193 20.442 11.007 -8.94952
534 1 4.71702 20.4418 11.007 -8.94943
351 1 22.0136 12.5794 0.000178382 -8.94959
385 1 9.43455 18.8693 0.000193617 -8.94959
383 1 6.28965 18.8693 0.00017822 -8.94956
363 1 18.8691 12.5794 7.91504e-05 -8.94962
687 3 8.64832 11.007 12.5794 2.30824
686 1 20.4415 20.4415 20.4415 -8.94964
685 1 18.8693 18.8692 18.8692 -8.94957
684 1 17.2968 20.4416 20.4417 -8.94933
683 1 15.725 18.8698 18.8699 -8.94841
682 1 14.1519 20.4416 20.4417 -8.9497
681 1 12.5796 18.8698 18.8697 -8.94973
680 1 11.007 20.4417 20.4417 -8.94956
679 1 9.43454 18.8698 18.8697 -8.94944
678 1 7.86209 20.4417 20.4417 -8.94959
677 1 6.28951 18.8699 18.8696 -8.94922
676 1 4.71719 20.4417 20.4417 -8.94955
675 1 3.14416 18.8701 18.8697 -8.94946
674 1 1.57222 20.4417 20.4417 -8.94952
526 1 1.5719 17.2972 11.007 -8.9491
673 1 22.0138 18.8693 18.8691 -8.9498
672 1 20.4413 17.2968 20.4417 -8.94957
671 1 18.869 15.7243 18.8693 -8.94976
670 1 17.2968 17.2967 20.4417 -8.9498
531 1 17.2976 17.2972 11.0068 -8.94934
532 1 20.4415 17.2969 11.0069 -8.94958
533 1 1.57224 20.4417 11.0069 -8.94959
669 1 15.7248 15.7243 18.8696 -8.95025
668 1 14.1525 17.2973 20.4425 -8.94946
667 1 12.5815 15.7261 18.8726 -8.94997
666 1 11.0071 17.2972 20.4423 -8.94922
665 1 9.43493 15.7259 18.8714 -8.9479
664 1 7.8621 17.2973 20.4422 -8.94944
540 1 1.56989 11.007 14.1513 -8.95133
541 1 4.70844 11.007 14.1585 -8.97302
542 1 7.78226 11.007 14.3821 -8.11659
543 1 10.9864 11.007 14.1423 -8.90095
544 1 14.1504 11.007 14.1516 -8.94022
545 1 17.2972 11.007 14.1521 -8.94804
546 1 20.441 11.007 14.1517 -8.94967
547 1 22.0134 12.5797 12.5794 -8.94804
548 1 1.57111 14.1523 14.1512 -8.94961
549 1 3.14622 12.5792 12.5794 -8.94022
550 1 4.71426 14.1524 14.149 -8.9525
551 1 6.31019 12.5699 12.5794 -8.90095
552 1 7.84822 14.1586 14.1733 -8.90595
553 1 9.51438 12.8096 12.5794 -8.11659
554 1 11.0465 14.1873 14.1847 -8.85374
555 1 12.5882 12.5861 12.5794 -8.97302
556 1 14.1609 14.1548 14.1541 -8.95799
557 1 15.7267 12.5789 12.5794 -8.95133
558 1 17.2986 14.152 14.152 -8.95158
559 1 18.8696 12.5793 12.5794 -8.94967
560 1 20.4414 14.152 14.1518 -8.94988
561 1 -0.000528182 15.7248 12.5794 -8.94952
562 1 1.5719 17.2972 14.1518 -8.9491
563 1 3.14349 15.7257 12.5794 -8.9467
564 1 4.71692 17.2973 14.151 -8.9491
565 1 6.29158 15.7223 12.5794 -8.94573
566 1 7.86238 17.2983 14.1517 -8.95142
567 1 9.4391 15.7215 12.5794 -9.00306
568 1 11.0092 17.3039 14.153 -8.95889
569 1 12.5883 15.7328 12.5794 -8.94255
570 1 14.1544 17.2993 14.1528 -8.94788
571 1 15.7275 15.7258 12.5794 -8.94905
572 1 17.2976 17.2972 14.152 -8.94934
573 1 18.8697 15.7246 12.5794 -8.94987
574 1 20.4415 17.2969 14.1518 -8.94958
575 1 22.0137 18.8693 12.5794 -8.94962
576 1 1.57224 20.4417 14.1518 -8.94959
577 1 3.14441 18.8697 12.5794 -8.94966
578 1 4.71702 20.4418 14.1517 -8.94943
579 1 6.28942 18.8694 12.5794 -8.94837
580 1 7.86193 20.442 14.1517 -8.94952
581 1 9.43439 18.8701 12.5794 -8.94683
582 1 11.007 20.4428 14.1519 -8.9513
583 1 12.5809 18.872 12.5794 -8.94945
584 1 14.1524 20.4422 14.152 -8.9494
585 1 15.725 18.8698 12.5794 -8.94954
586 1 17.2969 20.4417 14.1518 -8.94959
587 1 18.8693 18.8693 12.5794 -8.94958
588 1 20.4415 20.4416 14.1518 -8.94962
589 1 1.56918 11.007 17.2982 -8.94905
590 1 4.70833 11.007 17.3052 -8.94255
591 1 7.85753 11.007 17.294 -9.00306
592 1 11.0051 11.007 17.2947 -8.94573
593 1 14.1532 11.007 17.2982 -8.9467
594 1 17.2972 11.007 17.2972 -8.94952
595 1 20.4408 11.007 17.297 -8.94987
596 1 22.012 12.5796 15.7244 -8.95158
597 1 1.5692 14.1533 17.2981 -8.95077
598 1 3.1357 12.5816 15.7272 -8.95799
599 1 4.70589 14.1627 17.3077 -8.9301
600 1 6.25011 12.6122 15.7598 -8.85374
601 1 7.86189 14.1558 17.304 -8.95096
602 1 9.44842 12.6009 15.731 -8.90595
603 1 11.0122 14.1571 17.3059 -8.95376
604 1 12.5824 12.5766 15.7248 -8.9525
605 1 14.1534 14.1515 17.2978 -8.95141
606 1 15.7255 12.5787 15.7248 -8.94961
607 1 17.2971 14.1517 17.297 -8.9497
608 1 18.8691 12.5793 15.7244 -8.94988
609 1 20.4409 14.152 17.2969 -8.95009
610 1 22.0134 15.7245 15.7241 -8.9497
611 1 1.57183 17.2972 17.2967 -8.95025
612 1 3.14325 15.7254 15.724 -8.95141
613 1 4.71518 17.3002 17.2986 -8.94997
614 1 6.28444 15.7335 15.7295 -8.95376
615 1 7.86171 17.299 17.2983 -8.9479
616 1 9.43475 15.7315 15.7282 -8.95096
617 1 11.0076 17.2991 17.2984 -8.94929
618 1 12.5907 15.7353 15.7351 -8.9301
619 1 14.1549 17.2997 17.2998 -8.94477
620 1 15.7274 15.7257 15.7258 -8.95077
621 1 17.2976 17.2972 17.2972 -8.94966
622 1 18.8696 15.7245 15.7244 -8.95009
623 1 20.4415 17.2968 17.2967 -8.94976
624 1 -0.000123235 18.8693 15.7242 -8.94949
625 1 1.57231 20.4416 17.2966 -8.94969
626 1 3.14459 18.8695 15.724 -8.94963
627 1 4.71697 20.4421 17.2969 -8.9504
628 1 6.28934 18.8709 15.7244 -8.95217
629 1 7.8619 20.4421 17.2971 -8.94957
630 1 9.43419 18.8712 15.725 -8.95027
631 1 11.007 20.4421 17.2971 -8.94959
632 1 12.5806 18.8719 15.7254 -8.95137
633 1 14.1523 20.4422 17.2972 -8.94991
634 1 15.725 18.8698 15.7246 -8.94938
635 1 17.2969 20.4416 17.2968 -8.94961
636 1 18.8693 18.8693 15.7243 -8.94953
637 1 20.4415 20.4415 17.2967 -8.94959
638 1 1.5716 11.007 20.4422 -8.94954
639 1 4.71569 11.007 20.4444 -8.94945
640 1 7.86225 11.007 20.4426 -8.94683
641 1 11.0072 11.007 20.4418 -8.94837
642 1 14.1522 11.007 20.4421 -8.94966
643 1 17.2968 11.007 20.4417 -8.94962
644 1 20.4413 11.007 20.4417 -8.94958
645 1 -0.000939712 12.5796 18.8696 -8.94934
646 1 1.57165 14.1522 20.4422 -8.94938
647 1 3.14225 12.5803 18.8717 -8.94788
648 1 4.71607 14.153 20.4443 -8.95137
649 1 6.28744 12.5806 18.8764 -8.95889
650 1 7.86244 14.1526 20.4436 -8.95027
651 1 9.43425 12.5793 18.8707 -8.95142
652 1 11.0073 14.152 20.4433 -8.95217
653 1 12.5797 12.5786 18.8697 -8.9491
654 1 14.152 14.1516 20.4419 -8.94963
655 1 15.7247 12.5794 18.8696 -8.9491
656 1 17.2968 14.1518 20.4417 -8.94949
657 1 18.869 12.5794 18.8693 -8.94958
658 1 20.4413 14.1519 20.4417 -8.94953
659 1 22.013 15.7248 18.8696 -8.94966
660 1 1.57163 17.2974 20.4422 -8.94841
661 1 3.14169 15.7274 18.8721 -8.94477
662 1 4.71699 17.2973 20.4422 -8.94973
663 1 6.28908 15.726 18.8715 -8.94929
371 1 9.43473 15.7247 22.0145 -8.94957
353 1 3.14422 12.5796 22.0146 -8.9494
361 1 15.7244 12.5794 22.0141 -8.94959
369 1 6.28967 15.7247 22.0145 -8.94959
365 1 -0.000227728 15.7243 22.0141 -8.94961
381 1 3.14474 18.8693 22.0141 -8.9497
387 1 12.5794 18.8692 22.0141 -8.94955
537 1 14.1524 20.4422 11.0067 -8.9494
530 1 14.1544 17.2993 11.006 -8.94788
