ITEM: TIMESTEP
64
ITEM: NUMBER OF ATOMS
687
ITEM: BOX BOUNDS pp pp pp
0.0000000000000000e+00 2.2013900999999997e+01
0.0000000000000000e+00 2.2013900999999997e+01
0.0000000000000000e+00 2.2013900999999997e+01
ITEM: ATOMS id type x y z c_pot
1 1 22.0139 4.54992e-16 3.18234e-05 -8.94958
2 1 1.57241 1.5724 1.57242 -8.94968
196 1 20.4414 7.86195 11.007 -8.94986
4 1 4.71726 1.57239 1.57242 -8.94962
5 1 6.28968 -1.37079e-15 3.37614e-05 -8.94963
6 1 7.8621 1.57239 1.57242 -8.94964
175 1 18.8691 9.43454 9.43437 -8.94986
8 1 11.007 1.57239 1.57242 -8.94963
9 1 12.5794 4.97625e-16 2.94345e-05 -8.94962
10 1 14.1518 1.5724 1.57242 -8.94963
195 1 17.2982 7.86196 11.0068 -8.95138
12 1 17.2967 1.57239 1.57242 -8.94958
13 1 18.8691 6.88239e-16 1.59535e-05 -8.94956
14 1 20.4415 1.57241 1.57242 -8.94956
15 1 22.0138 3.14475 6.53285e-05 -8.94942
16 1 1.57226 4.7171 1.57242 -8.94956
194 1 14.16 7.85956 11.0049 -8.95756
18 1 4.71724 4.71714 1.57242 -8.9496
174 1 15.7254 9.43504 9.43401 -8.94952
20 1 7.86211 4.71711 1.57242 -8.94961
173 1 12.5822 9.43725 9.43381 -8.95215
22 1 11.007 4.71712 1.57242 -8.94955
193 1 11.0448 7.82811 10.9751 -8.85445
24 1 14.1519 4.71716 1.57242 -8.94979
25 1 15.7243 3.14474 0.000123182 -8.94955
26 1 17.2967 4.71727 1.57242 -8.94967
27 1 18.8691 3.14482 2.73579e-05 -8.94964
28 1 20.4415 4.71725 1.57242 -8.94966
192 1 7.84911 7.85586 10.9873 -8.90781
30 1 1.57226 7.86204 1.57242 -8.94953
31 1 3.14448 6.28931 0.00050439 -8.94983
32 1 4.71707 7.86189 1.57242 -8.95035
172 1 9.44752 9.41488 9.42828 -8.90781
34 1 7.86223 7.8619 1.57242 -8.94998
171 1 6.25184 9.40267 9.40053 -8.85445
36 1 11.0071 7.86203 1.57242 -8.95016
37 1 12.5796 6.28951 0.000454606 -8.95021
38 1 14.1519 7.86212 1.57242 -8.94958
39 1 15.7243 6.2897 6.14051e-05 -8.94967
40 1 17.2967 7.8621 1.57242 -8.94961
41 1 18.8691 6.28968 2.50015e-05 -8.94961
42 1 20.4414 7.8621 1.57242 -8.94964
170 1 3.13663 9.43247 9.43199 -8.95756
169 1 22.0124 9.43435 9.43438 -8.95138
45 1 6.28963 9.43444 0.00112662 -8.95119
46 1 9.43469 9.43453 0.000488144 -8.94959
47 1 12.5795 9.43458 0.000208766 -8.94949
168 1 18.8695 6.28952 9.43439 -8.95
167 1 15.7268 6.28854 9.43333 -8.95065
50 1 22.0139 -8.54006e-18 3.14481 -8.94958
51 1 1.57232 1.5723 4.71716 -8.94955
52 1 3.14484 -1.31384e-15 3.14482 -8.94963
53 1 4.71724 1.57233 4.71717 -8.94958
54 1 6.28968 -1.15178e-15 3.14481 -8.94963
55 1 7.8621 1.57232 4.71714 -8.94962
56 1 9.43453 -1.18764e-15 3.14481 -8.94964
57 1 11.007 1.57233 4.71715 -8.94959
58 1 12.5794 3.64895e-16 3.14481 -8.94962
59 1 14.1518 1.57234 4.71717 -8.94971
60 1 15.7242 5.00648e-16 3.14482 -8.94968
61 1 17.2967 1.57236 4.71717 -8.94942
62 1 18.8691 8.64745e-16 3.14483 -8.94956
63 1 20.4415 1.57239 4.71725 -8.94964
64 1 22.0138 3.14475 3.14478 -8.94942
65 1 1.57191 4.71674 4.71678 -8.94861
66 1 3.14481 3.14475 3.14476 -8.94971
67 1 4.71714 4.71687 4.71684 -8.94978
68 1 6.28967 3.14473 3.14475 -8.94959
69 1 7.8621 4.71684 4.71676 -8.94949
70 1 9.43454 3.14472 3.14474 -8.94962
71 1 11.007 4.71689 4.71675 -8.94929
72 1 12.5794 3.14475 3.14475 -8.94958
73 1 14.1522 4.71684 4.71655 -8.94949
74 1 15.7243 3.14474 3.14472 -8.94955
75 1 17.2967 4.71723 4.71717 -8.94976
76 1 18.8691 3.14482 3.14482 -8.94964
77 1 20.4414 4.71718 4.71717 -8.94959
78 1 -0.000106544 6.28964 3.14476 -8.94965
79 1 1.57195 7.86189 4.7168 -8.94949
80 1 3.14448 6.28931 3.14434 -8.94983
81 1 4.71633 7.86114 4.71501 -8.95117
82 1 6.28969 6.28941 3.14443 -8.94956
83 1 7.86244 7.86148 4.71556 -8.95006
84 1 9.43466 6.28936 3.1444 -8.94956
85 1 11.0073 7.86192 4.71575 -8.95184
86 1 12.5796 6.28951 3.14439 -8.95021
87 1 14.152 7.86225 4.71698 -8.94964
88 1 15.7243 6.2897 3.14478 -8.94967
89 1 17.2967 7.86209 4.71716 -8.94954
90 1 18.8691 6.28968 3.14482 -8.94961
91 1 20.4414 7.86207 4.71716 -8.94957
92 1 22.0138 9.43451 3.14475 -8.94963
93 1 3.14444 9.4344 3.14434 -8.94942
94 1 6.28963 9.43444 3.14372 -8.95119
95 1 9.43469 9.43453 3.14435 -8.94959
96 1 12.5795 9.43458 3.14463 -8.94949
97 1 15.7243 9.43451 3.14474 -8.9496
98 1 18.8691 9.43452 3.14481 -8.94964
99 1 22.0139 2.03526e-15 6.28969 -8.94967
100 1 1.57237 1.57236 7.86212 -8.94967
101 1 3.14473 6.21889e-16 6.28958 -8.94979
102 1 4.71706 1.57197 7.86193 -8.95021
103 1 6.28963 7.30518e-16 6.28954 -8.94955
104 1 7.86198 1.57198 7.86178 -8.94956
105 1 9.43452 -6.9191e-16 6.28953 -8.94961
106 1 11.0069 1.57201 7.86183 -8.94956
107 1 12.5794 8.22233e-17 6.28956 -8.9496
108 1 14.1522 1.57192 7.86173 -8.94983
109 1 15.7244 1.47556e-15 6.28953 -8.94956
110 1 17.2967 1.57234 7.86206 -8.94965
111 1 18.8691 1.81456e-15 6.28967 -8.94966
112 1 20.4415 1.5724 7.8621 -8.94961
113 1 22.0138 3.14475 6.28965 -8.94976
114 1 1.57206 4.71693 7.86207 -8.95014
115 1 3.1444 3.14413 6.28926 -8.94949
116 1 4.71567 4.71443 7.86063 -8.94998
117 1 6.28959 3.14433 6.28931 -8.94929
118 1 7.86182 4.71542 7.86078 -8.94807
119 1 9.43454 3.14434 6.28926 -8.94949
120 1 11.0073 4.7155 7.86077 -8.9494
121 1 12.5795 3.14441 6.28929 -8.94978
122 1 14.1543 4.71485 7.8596 -8.94512
123 1 15.7247 3.14436 6.28917 -8.94861
124 1 17.2973 4.71689 7.86173 -8.94964
125 1 18.8692 3.14475 6.2896 -8.94959
126 1 20.4415 4.71716 7.86206 -8.94972
127 1 22.0133 6.28931 6.28932 -8.94964
128 1 1.56987 7.86091 7.86097 -8.95065
129 1 3.14236 6.28718 6.28727 -8.94512
130 1 4.70714 7.85222 7.85221 -8.93077
131 1 6.28937 6.28835 6.28792 -8.9494
132 1 7.86224 7.85878 7.85578 -8.95098
133 1 9.43482 6.28835 6.28784 -8.94807
134 1 11.0114 7.85771 7.85373 -8.9539
135 1 12.581 6.28821 6.28685 -8.94998
136 1 14.153 7.8624 7.86122 -8.95118
137 1 15.7246 6.28965 6.28935 -8.95014
138 1 17.297 7.86215 7.86189 -8.94964
139 1 18.869 6.28964 6.28958 -8.94972
140 1 20.4411 7.86197 7.86194 -8.95
141 1 -0.000599779 9.43442 6.28931 -8.94939
142 1 3.14293 9.43383 6.28772 -8.94814
143 1 6.28788 9.43342 6.28298 -8.95837
144 1 9.43448 9.4346 6.288 -8.95105
145 1 12.5797 9.4352 6.28908 -8.94922
146 1 15.7246 9.43452 6.28927 -8.9492
147 1 18.8691 9.4345 6.28954 -8.94959
148 1 -3.25096e-05 1.53494e-15 9.43452 -8.94961
149 1 3.14476 2.0219e-15 9.43454 -8.94958
150 1 6.28957 1.26564e-15 9.43445 -8.95016
151 1 9.4344 3.57585e-16 9.43432 -8.94998
152 1 12.5796 -3.41078e-17 9.43431 -8.95035
153 1 15.7244 1.43675e-15 9.43447 -8.94953
154 1 18.8691 1.88221e-15 9.43452 -8.94964
155 1 -7.26947e-05 3.14474 9.43451 -8.94954
156 1 3.14467 3.14456 9.43467 -8.94964
157 1 6.28938 3.14332 9.43434 -8.95184
158 1 9.43419 3.14313 9.4339 -8.95006
159 1 12.5803 3.14259 9.43356 -8.95117
160 1 15.7247 3.14438 9.43432 -8.94949
161 1 18.8692 3.14474 9.43449 -8.94957
162 1 22.0136 6.28947 9.43457 -8.94964
163 1 3.14365 6.2888 9.43482 -8.95118
164 1 6.2852 6.28131 9.43013 -8.9539
165 1 9.4344 6.28336 9.4312 -8.95098
166 1 12.5895 6.27979 9.42464 -8.93077
177 1 4.71709 1.57221 11.007 -8.94949
178 1 7.86195 1.57193 11.0069 -8.94959
179 1 11.007 1.57129 11.0069 -8.95119
191 1 4.71446 7.86139 11.0097 -8.95215
181 1 17.2968 1.57233 11.0069 -8.94963
182 1 20.4415 1.57239 11.0069 -8.94964
184 1 4.71693 4.71666 11.0076 -8.94922
185 1 7.86216 4.71558 11.007 -8.95105
186 1 11.0088 4.71056 11.0058 -8.95837
190 1 1.57128 7.86159 11.0075 -8.94952
19 1 6.28967 3.14473 9.50465e-05 -8.94959
49 1 18.8691 9.43452 3.27614e-05 -8.94964
21 1 9.43454 3.14472 0.000103671 -8.94962
43 1 22.0138 9.43451 9.09279e-05 -8.94963
176 1 1.57232 1.57232 11.0069 -8.9496
343 1 18.8691 9.4345 18.8692 -8.94959
342 1 15.7246 9.43452 18.8695 -8.9492
341 1 12.5797 9.4352 18.8697 -8.94922
340 1 9.43448 9.4346 18.8707 -8.95105
339 1 6.28788 9.43342 18.8758 -8.95837
338 1 3.14293 9.43383 18.871 -8.94814
183 1 1.57204 4.71685 11.0069 -8.9492
337 1 -0.000599779 9.43442 18.8694 -8.94939
336 1 20.4414 7.86207 20.4416 -8.94957
335 1 18.869 6.28964 18.8692 -8.94972
334 1 17.2967 7.86209 20.4416 -8.94954
188 1 17.2972 4.71689 11.0068 -8.94939
189 1 20.4415 4.71712 11.0069 -8.94959
333 1 15.7246 6.28965 18.8694 -8.95014
332 1 14.152 7.86225 20.4418 -8.94964
331 1 12.581 6.28821 18.8719 -8.94998
330 1 11.0073 7.86192 20.443 -8.95184
329 1 9.43482 6.28835 18.8709 -8.94807
328 1 7.86244 7.86148 20.4432 -8.95006
327 1 6.28937 6.28835 18.8708 -8.9494
197 1 -3.34861e-05 1.52027e-15 12.5794 -8.94963
198 1 1.57232 1.57232 14.1518 -8.9496
199 1 3.14472 1.97935e-15 12.5794 -8.94969
200 1 4.71709 1.57221 14.1517 -8.94949
201 1 6.28952 1.7637e-15 12.5794 -8.94942
202 1 7.86195 1.57193 14.1518 -8.94959
203 1 9.43436 9.61149e-16 12.5794 -8.94928
204 1 11.007 1.57129 14.1519 -8.95119
205 1 12.5797 -1.25673e-15 12.5794 -8.95005
206 1 14.1522 1.57192 14.1519 -8.94942
207 1 15.7244 1.23642e-15 12.5794 -8.94957
208 1 17.2968 1.57233 14.1518 -8.94963
209 1 18.8691 7.53581e-16 12.5794 -8.94964
210 1 20.4415 1.57239 14.1518 -8.94964
211 1 22.0138 3.14472 12.5794 -8.94964
212 1 1.57204 4.71685 14.1518 -8.9492
213 1 3.14451 3.14439 12.5794 -8.94965
214 1 4.71693 4.71666 14.1511 -8.94922
215 1 6.28941 3.14452 12.5794 -8.94851
216 1 7.86216 4.71558 14.1517 -8.95105
217 1 9.43431 3.14362 12.5794 -8.94736
218 1 11.0088 4.71056 14.1529 -8.95837
219 1 12.5806 3.1425 12.5794 -8.94936
220 1 14.1537 4.7153 14.1525 -8.94814
221 1 15.7247 3.14437 12.5794 -8.94958
222 1 17.2972 4.71689 14.1519 -8.94939
223 1 18.8692 3.14474 12.5794 -8.9496
224 1 20.4415 4.71712 14.1518 -8.94959
225 1 -0.000416223 6.28928 12.5794 -8.94953
226 1 1.57128 7.86159 14.1513 -8.94952
227 1 3.14364 6.28831 12.5794 -8.94697
228 1 4.71446 7.86139 14.1491 -8.95215
229 1 6.29131 6.29118 12.5794 -8.94635
230 1 7.84911 7.85586 14.1714 -8.90781
231 1 9.43861 6.29117 12.5794 -9.0021
232 1 11.0448 7.82811 14.1836 -8.85445
233 1 12.587 6.28219 12.5794 -8.94315
234 1 14.16 7.85956 14.1539 -8.95756
235 1 15.7267 6.28847 12.5794 -8.94905
236 1 17.2982 7.86196 14.152 -8.95138
237 1 18.8695 6.28945 12.5794 -8.94982
238 1 20.4414 7.86195 14.1518 -8.94986
239 1 22.0134 9.43421 12.5794 -8.94831
240 1 3.14561 9.43439 12.5794 -8.94082
241 1 6.30788 9.443 12.5794 -8.90039
242 1 9.51594 9.20691 12.5794 -8.11177
243 1 12.5888 9.42852 12.5794 -8.97295
244 1 15.7267 9.435 12.5794 -8.95148
245 1 18.8695 9.43458 12.5794 -8.94981
246 1 -3.25096e-05 1.31216e-15 15.7242 -8.94961
247 1 1.57237 1.57236 17.2966 -8.94967
248 1 3.14476 1.6049e-15 15.7242 -8.94958
249 1 4.71706 1.57197 17.2968 -8.95021
250 1 6.28957 2.25759e-15 15.7243 -8.95016
251 1 7.86198 1.57198 17.297 -8.94956
252 1 9.4344 1.27218e-15 15.7244 -8.94998
253 1 11.0069 1.57201 17.2969 -8.94956
254 1 12.5796 -2.01147e-16 15.7244 -8.95035
255 1 14.1522 1.57192 17.297 -8.94983
256 1 15.7244 1.16399e-15 15.7243 -8.94953
257 1 17.2967 1.57234 17.2967 -8.94965
258 1 18.8691 1.67859e-15 15.7242 -8.94964
259 1 20.4415 1.5724 17.2966 -8.94961
260 1 -7.26947e-05 3.14474 15.7242 -8.94954
261 1 1.57206 4.71693 17.2967 -8.95014
262 1 3.14467 3.14456 15.7241 -8.94964
263 1 4.71567 4.71443 17.2981 -8.94998
264 1 6.28938 3.14332 15.7244 -8.95184
265 1 7.86182 4.71542 17.298 -8.94807
266 1 9.43419 3.14313 15.7248 -8.95006
267 1 11.0073 4.7155 17.298 -8.9494
268 1 12.5803 3.14259 15.7252 -8.95117
269 1 14.1543 4.71485 17.2991 -8.94512
270 1 15.7247 3.14438 15.7244 -8.94949
271 1 17.2973 4.71689 17.297 -8.94964
272 1 18.8692 3.14474 15.7242 -8.94957
273 1 20.4415 4.71716 17.2967 -8.94972
274 1 22.0136 6.28947 15.7242 -8.94964
275 1 1.56987 7.86091 17.2978 -8.95065
276 1 3.14365 6.2888 15.7239 -8.95118
277 1 4.70714 7.85222 17.3065 -8.93077
278 1 6.2852 6.28131 15.7286 -8.9539
279 1 7.86224 7.85878 17.303 -8.95098
280 1 9.4344 6.28336 15.7275 -8.95098
281 1 11.0114 7.85771 17.305 -8.9539
282 1 12.5895 6.27979 15.7341 -8.93077
283 1 14.153 7.8624 17.2975 -8.95118
284 1 15.7268 6.28854 15.7254 -8.95065
285 1 17.297 7.86215 17.2969 -8.94964
286 1 18.8695 6.28952 15.7244 -8.95
287 1 20.4411 7.86197 17.2968 -8.95
288 1 22.0124 9.43435 15.7244 -8.95138
289 1 3.13663 9.43247 15.7268 -8.95756
290 1 6.25184 9.40267 15.7582 -8.85445
291 1 9.44752 9.41488 15.7305 -8.90781
292 1 12.5822 9.43725 15.7249 -8.95215
293 1 15.7254 9.43504 15.7247 -8.94952
294 1 18.8691 9.43454 15.7244 -8.94986
295 1 22.0139 1.98142e-15 18.8691 -8.94967
296 1 1.57232 1.5723 20.4416 -8.94955
297 1 3.14473 9.28884e-16 18.8692 -8.94979
298 1 4.71724 1.57233 20.4416 -8.94958
299 1 6.28963 1.35353e-15 18.8692 -8.94955
300 1 7.8621 1.57232 20.4416 -8.94962
301 1 9.43452 -3.18533e-16 18.8692 -8.94961
302 1 11.007 1.57233 20.4416 -8.94959
303 1 12.5794 3.98833e-16 18.8692 -8.9496
304 1 14.1518 1.57234 20.4416 -8.94971
305 1 15.7244 1.60552e-15 18.8692 -8.94956
306 1 17.2967 1.57236 20.4416 -8.94942
307 1 18.8691 9.97799e-16 18.8691 -8.94966
308 1 20.4415 1.57239 20.4415 -8.94964
309 1 22.0138 3.14475 18.8691 -8.94976
310 1 1.57191 4.71674 20.442 -8.94861
311 1 3.1444 3.14413 18.8695 -8.94949
312 1 4.71714 4.71687 20.4419 -8.94978
313 1 6.28959 3.14433 18.8694 -8.94929
314 1 7.8621 4.71684 20.442 -8.94949
315 1 9.43454 3.14434 18.8695 -8.94949
316 1 11.007 4.71689 20.442 -8.94929
317 1 12.5795 3.14441 18.8695 -8.94978
318 1 14.1522 4.71684 20.4422 -8.94949
319 1 15.7247 3.14436 18.8696 -8.94861
320 1 17.2967 4.71723 20.4416 -8.94976
321 1 18.8692 3.14475 18.8691 -8.94959
322 1 20.4414 4.71718 20.4416 -8.94959
323 1 22.0133 6.28931 18.8694 -8.94964
324 1 1.57195 7.86189 20.4419 -8.94949
325 1 3.14236 6.28718 18.8715 -8.94512
326 1 4.71633 7.86114 20.4437 -8.95117
7 1 9.43453 -8.18862e-16 22.0139 -8.94964
48 1 15.7243 9.43451 22.014 -8.9496
44 1 3.14444 9.4344 22.0144 -8.94942
33 1 6.28969 6.28941 22.0143 -8.94956
35 1 9.43466 6.28936 22.0143 -8.94956
3 1 3.14484 -1.33641e-15 22.0139 -8.94963
11 1 15.7242 5.41105e-16 22.0139 -8.94968
17 1 3.14481 3.14475 22.014 -8.94971
23 1 12.5794 3.14475 22.014 -8.94958
29 1 -0.000106544 6.28964 22.014 -8.94965
180 1 14.1522 1.57192 11.0068 -8.94942
187 1 14.1537 4.7153 11.0063 -8.94814
344 1 1.57224 11.007 1.57242 -8.94957
345 1 4.71695 11.007 1.57242 -8.95005
346 1 7.86228 11.007 1.57242 -8.94928
347 1 11.0071 11.007 1.57242 -8.94942
348 1 14.1519 11.007 1.57242 -8.94969
349 1 17.2967 11.007 1.57242 -8.94963
350 1 20.4414 11.007 1.57242 -8.94964
511 1 18.8692 18.8692 9.43449 -8.94957
352 1 1.57226 14.1519 1.57242 -8.94953
510 1 15.7247 18.8695 9.43432 -8.94949
354 1 4.71707 14.152 1.57242 -8.95035
355 1 6.28963 12.5795 0.00112662 -8.95119
356 1 7.86223 14.152 1.57242 -8.94998
357 1 9.43469 12.5794 0.000488144 -8.94959
358 1 11.0071 14.1519 1.57242 -8.95016
359 1 12.5795 12.5793 0.000208766 -8.94949
360 1 14.1519 14.1518 1.57242 -8.94958
509 1 12.5803 18.8713 9.43356 -8.95117
362 1 17.2967 14.1518 1.57242 -8.94961
508 1 9.43419 18.8708 9.4339 -8.95006
364 1 20.4414 14.1518 1.57242 -8.94964
539 1 20.4415 20.4415 11.0069 -8.94964
366 1 1.57226 17.2968 1.57242 -8.94956
367 1 3.14448 15.7246 0.00050439 -8.94983
368 1 4.71724 17.2968 1.57242 -8.9496
507 1 6.28938 18.8706 9.43434 -8.95184
370 1 7.86211 17.2968 1.57242 -8.94961
506 1 3.14467 18.8693 9.43467 -8.94964
372 1 11.007 17.2968 1.57242 -8.94955
373 1 12.5796 15.7244 0.000454606 -8.95021
374 1 14.1519 17.2967 1.57242 -8.94979
375 1 15.7243 15.7242 6.14051e-05 -8.94967
376 1 17.2967 17.2966 1.57242 -8.94967
377 1 18.8691 15.7242 2.50015e-05 -8.94961
378 1 20.4415 17.2967 1.57242 -8.94966
379 1 22.0138 18.8692 6.53285e-05 -8.94942
380 1 1.57241 20.4415 1.57242 -8.94968
538 1 17.2968 20.4416 11.0069 -8.94963
382 1 4.71726 20.4415 1.57242 -8.94962
505 1 -7.26947e-05 18.8692 9.43451 -8.94954
384 1 7.8621 20.4415 1.57242 -8.94964
504 1 18.8695 15.7244 9.43439 -8.95
386 1 11.007 20.4415 1.57242 -8.94963
536 1 11.007 20.4426 11.0069 -8.95119
388 1 14.1518 20.4415 1.57242 -8.94963
389 1 15.7243 18.8692 0.000123182 -8.94955
390 1 17.2967 20.4415 1.57242 -8.94958
391 1 18.8691 18.8691 2.73579e-05 -8.94964
392 1 20.4415 20.4415 1.57242 -8.94956
393 1 1.57193 11.007 4.71679 -8.94958
394 1 4.71607 11.007 4.71493 -8.94936
395 1 7.86233 11.007 4.71604 -8.94736
396 1 11.0072 11.007 4.71694 -8.94851
397 1 14.1521 11.007 4.71681 -8.94965
398 1 17.2967 11.007 4.71714 -8.94964
399 1 20.4414 11.007 4.71716 -8.9496
400 1 22.0138 12.5794 3.14475 -8.94963
401 1 1.57195 14.152 4.7168 -8.94949
402 1 3.14444 12.5795 3.14434 -8.94942
403 1 4.71633 14.1528 4.71501 -8.95117
404 1 6.28963 12.5795 3.14372 -8.95119
405 1 7.86244 14.1524 4.71556 -8.95006
406 1 9.43469 12.5794 3.14435 -8.94959
407 1 11.0073 14.152 4.71575 -8.95184
408 1 12.5795 12.5793 3.14463 -8.94949
409 1 14.152 14.1517 4.71698 -8.94964
410 1 15.7243 12.5794 3.14474 -8.9496
411 1 17.2967 14.1518 4.71716 -8.94954
412 1 18.8691 12.5794 3.14481 -8.94964
413 1 20.4414 14.1518 4.71716 -8.94957
414 1 -0.000106544 15.7243 3.14476 -8.94965
415 1 1.57191 17.2972 4.71678 -8.94861
416 1 3.14448 15.7246 3.14434 -8.94983
417 1 4.71714 17.297 4.71684 -8.94978
418 1 6.28969 15.7245 3.14443 -8.94956
419 1 7.8621 17.2971 4.71676 -8.94949
420 1 9.43466 15.7245 3.1444 -8.94956
421 1 11.007 17.297 4.71675 -8.94929
422 1 12.5796 15.7244 3.14439 -8.95021
423 1 14.1522 17.2971 4.71655 -8.94949
424 1 15.7243 15.7242 3.14478 -8.94967
425 1 17.2967 17.2967 4.71717 -8.94976
426 1 18.8691 15.7242 3.14482 -8.94961
427 1 20.4414 17.2967 4.71717 -8.94959
428 1 22.0138 18.8692 3.14478 -8.94942
429 1 1.57232 20.4416 4.71716 -8.94955
430 1 3.14481 18.8692 3.14476 -8.94971
431 1 4.71724 20.4416 4.71717 -8.94958
432 1 6.28967 18.8692 3.14475 -8.94959
433 1 7.8621 20.4416 4.71714 -8.94962
434 1 9.43454 18.8692 3.14474 -8.94962
435 1 11.007 20.4416 4.71715 -8.94959
436 1 12.5794 18.8692 3.14475 -8.94958
437 1 14.1518 20.4416 4.71717 -8.94971
438 1 15.7243 18.8692 3.14472 -8.94955
439 1 17.2967 20.4415 4.71717 -8.94942
440 1 18.8691 18.8691 3.14482 -8.94964
441 1 20.4415 20.4415 4.71725 -8.94964
442 1 1.56993 11.007 7.86089 -8.94905
443 1 4.70962 11.007 7.85462 -8.94315
444 1 7.85803 11.007 7.86359 -9.0021
445 1 11.0053 11.007 7.86361 -8.94635
446 1 14.153 11.007 7.86073 -8.94697
447 1 17.2971 11.007 7.8617 -8.94953
448 1 20.441 11.007 7.86188 -8.94982
449 1 -0.000599779 12.5795 6.28931 -8.94939
450 1 1.56987 14.153 7.86097 -8.95065
451 1 3.14293 12.5801 6.28772 -8.94814
452 1 4.70714 14.1617 7.85221 -8.93077
453 1 6.28788 12.5805 6.28298 -8.95837
454 1 7.86224 14.1551 7.85578 -8.95098
455 1 9.43448 12.5793 6.288 -8.95105
456 1 11.0114 14.1562 7.85373 -8.9539
457 1 12.5797 12.5787 6.28908 -8.94922
458 1 14.153 14.1515 7.86122 -8.95118
459 1 15.7246 12.5794 6.28927 -8.9492
460 1 17.297 14.1517 7.86189 -8.94964
461 1 18.8691 12.5794 6.28954 -8.94959
462 1 20.4411 14.1519 7.86194 -8.95
463 1 22.0133 15.7246 6.28932 -8.94964
464 1 1.57206 17.297 7.86207 -8.95014
465 1 3.14236 15.7267 6.28727 -8.94512
466 1 4.71567 17.2995 7.86063 -8.94998
467 1 6.28937 15.7255 6.28792 -8.9494
468 1 7.86182 17.2985 7.86078 -8.94807
469 1 9.43482 15.7255 6.28784 -8.94807
470 1 11.0073 17.2984 7.86077 -8.9494
471 1 12.581 15.7257 6.28685 -8.94998
472 1 14.1543 17.2991 7.8596 -8.94512
473 1 15.7246 15.7243 6.28935 -8.95014
474 1 17.2973 17.297 7.86173 -8.94964
475 1 18.869 15.7243 6.28958 -8.94972
476 1 20.4415 17.2967 7.86206 -8.94972
477 1 22.0138 18.8692 6.28965 -8.94976
478 1 1.57237 20.4415 7.86212 -8.94967
479 1 3.1444 18.8698 6.28926 -8.94949
480 1 4.71706 20.4419 7.86193 -8.95021
481 1 6.28959 18.8696 6.28931 -8.94929
482 1 7.86198 20.4419 7.86178 -8.94956
483 1 9.43454 18.8696 6.28926 -8.94949
484 1 11.0069 20.4419 7.86183 -8.94956
485 1 12.5795 18.8695 6.28929 -8.94978
486 1 14.1522 20.442 7.86173 -8.94983
487 1 15.7247 18.8695 6.28917 -8.94861
488 1 17.2967 20.4416 7.86206 -8.94965
489 1 18.8692 18.8692 6.2896 -8.94959
490 1 20.4415 20.4415 7.8621 -8.94961
491 1 22.0124 12.5795 9.43438 -8.95138
492 1 3.13663 12.5814 9.43199 -8.95756
493 1 6.25184 12.6112 9.40053 -8.85445
494 1 9.44752 12.599 9.42828 -8.90781
495 1 12.5822 12.5767 9.43381 -8.95215
496 1 15.7254 12.5789 9.43401 -8.94952
497 1 18.8691 12.5794 9.43437 -8.94986
498 1 22.0136 15.7244 9.43457 -8.94964
499 1 3.14365 15.7251 9.43482 -8.95118
500 1 6.2852 15.7326 9.43013 -8.9539
501 1 9.4344 15.7305 9.4312 -8.95098
502 1 12.5895 15.7341 9.42464 -8.93077
503 1 15.7268 15.7254 9.43333 -8.95065
512 1 1.56997 11.007 11.0074 -8.95148
513 1 4.70788 11.007 11.0009 -8.97295
514 1 7.78069 11.007 10.7793 -8.11177
515 1 10.9888 11.007 11.0154 -8.90039
516 1 14.151 11.007 11.0068 -8.94082
517 1 17.2972 11.007 11.0066 -8.94831
518 1 20.4411 11.007 11.007 -8.94981
519 1 1.57128 14.1523 11.0075 -8.94952
520 1 4.71446 14.1525 11.0097 -8.95215
521 1 7.84911 14.158 10.9873 -8.90781
522 1 11.0448 14.1858 10.9751 -8.85445
523 1 14.16 14.1543 11.0049 -8.95756
524 1 17.2982 14.1519 11.0068 -8.95138
525 1 20.4414 14.152 11.007 -8.94986
527 1 4.71693 17.2972 11.0076 -8.94922
528 1 7.86216 17.2983 11.007 -8.95105
529 1 11.0088 17.3033 11.0058 -8.95837
535 1 7.86195 20.442 11.0069 -8.94959
534 1 4.71709 20.4417 11.007 -8.94949
351 1 22.0138 12.5794 9.09279e-05 -8.94963
385 1 9.43454 18.8692 0.000103671 -8.94962
383 1 6.28967 18.8692 9.50465e-05 -8.94959
363 1 18.8691 12.5794 3.27614e-05 -8.94964
687 3 8.64832 11.007 12.5794 2.31667
686 1 20.4415 20.4415 20.4415 -8.94964
685 1 18.8692 18.8692 18.8691 -8.94959
684 1 17.2967 20.4415 20.4416 -8.94942
683 1 15.7247 18.8695 18.8696 -8.94861
682 1 14.1518 20.4416 20.4416 -8.94971
681 1 12.5795 18.8695 18.8695 -8.94978
680 1 11.007 20.4416 20.4416 -8.94959
679 1 9.43454 18.8696 18.8695 -8.94949
678 1 7.8621 20.4416 20.4416 -8.94962
677 1 6.28959 18.8696 18.8694 -8.94929
676 1 4.71724 20.4416 20.4416 -8.94958
675 1 3.1444 18.8698 18.8695 -8.94949
674 1 1.57232 20.4416 20.4416 -8.94955
526 1 1.57204 17.2971 11.0069 -8.9492
673 1 22.0138 18.8692 18.8691 -8.94976
672 1 20.4414 17.2967 20.4416 -8.94959
671 1 18.869 15.7243 18.8692 -8.94972
670 1 17.2967 17.2967 20.4416 -8.94976
531 1 17.2972 17.297 11.0068 -8.94939
532 1 20.4415 17.2968 11.0069 -8.94959
533 1 1.57232 20.4416 11.0069 -8.9496
669 1 15.7246 15.7243 18.8694 -8.95014
668 1 14.1522 17.2971 20.4422 -8.94949
667 1 12.581 15.7257 18.8719 -8.94998
666 1 11.007 17.297 20.442 -8.94929
665 1 9.43482 15.7255 18.8709 -8.94807
664 1 7.8621 17.2971 20.442 -8.94949
540 1 1.56997 11.007 14.1513 -8.95148
541 1 4.70788 11.007 14.1578 -8.97295
542 1 7.78069 11.007 14.3794 -8.11177
543 1 10.9888 11.007 14.1433 -8.90039
544 1 14.151 11.007 14.1519 -8.94082
545 1 17.2972 11.007 14.1521 -8.94831
546 1 20.4411 11.007 14.1517 -8.94981
547 1 22.0134 12.5797 12.5794 -8.94831
548 1 1.57128 14.1523 14.1513 -8.94952
549 1 3.14561 12.5795 12.5794 -8.94082
550 1 4.71446 14.1525 14.1491 -8.95215
551 1 6.30788 12.5709 12.5794 -8.90039
552 1 7.84911 14.158 14.1714 -8.90781
553 1 9.51594 12.807 12.5794 -8.11177
554 1 11.0448 14.1858 14.1836 -8.85445
555 1 12.5888 12.5854 12.5794 -8.97295
556 1 14.16 14.1543 14.1539 -8.95756
557 1 15.7267 12.5789 12.5794 -8.95148
558 1 17.2982 14.1519 14.152 -8.95138
559 1 18.8695 12.5793 12.5794 -8.94981
560 1 20.4414 14.152 14.1518 -8.94986
561 1 -0.000416223 15.7246 12.5794 -8.94953
562 1 1.57204 17.2971 14.1518 -8.9492
563 1 3.14364 15.7256 12.5794 -8.94697
564 1 4.71693 17.2972 14.1511 -8.94922
565 1 6.29131 15.7227 12.5794 -8.94635
566 1 7.86216 17.2983 14.1517 -8.95105
567 1 9.43861 15.7227 12.5794 -9.0021
568 1 11.0088 17.3033 14.1529 -8.95837
569 1 12.587 15.7317 12.5794 -8.94315
570 1 14.1537 17.2986 14.1525 -8.94814
571 1 15.7267 15.7254 12.5794 -8.94905
572 1 17.2972 17.297 14.1519 -8.94939
573 1 18.8695 15.7244 12.5794 -8.94982
574 1 20.4415 17.2968 14.1518 -8.94959
575 1 22.0138 18.8692 12.5794 -8.94964
576 1 1.57232 20.4416 14.1518 -8.9496
577 1 3.14451 18.8695 12.5794 -8.94965
578 1 4.71709 20.4417 14.1517 -8.94949
579 1 6.28941 18.8694 12.5794 -8.94851
580 1 7.86195 20.442 14.1518 -8.94959
581 1 9.43431 18.8703 12.5794 -8.94736
582 1 11.007 20.4426 14.1519 -8.95119
583 1 12.5806 18.8714 12.5794 -8.94936
584 1 14.1522 20.442 14.1519 -8.94942
585 1 15.7247 18.8695 12.5794 -8.94958
586 1 17.2968 20.4416 14.1518 -8.94963
587 1 18.8692 18.8692 12.5794 -8.9496
588 1 20.4415 20.4415 14.1518 -8.94964
589 1 1.56993 11.007 17.2979 -8.94905
590 1 4.70962 11.007 17.3041 -8.94315
591 1 7.85803 11.007 17.2952 -9.0021
592 1 11.0053 11.007 17.2951 -8.94635
593 1 14.153 11.007 17.298 -8.94697
594 1 17.2971 11.007 17.297 -8.94953
595 1 20.441 11.007 17.2969 -8.94982
596 1 22.0124 12.5795 15.7244 -8.95138
597 1 1.56987 14.153 17.2978 -8.95065
598 1 3.13663 12.5814 15.7268 -8.95756
599 1 4.70714 14.1617 17.3065 -8.93077
600 1 6.25184 12.6112 15.7582 -8.85445
601 1 7.86224 14.1551 17.303 -8.95098
602 1 9.44752 12.599 15.7305 -8.90781
603 1 11.0114 14.1562 17.305 -8.9539
604 1 12.5822 12.5767 15.7249 -8.95215
605 1 14.153 14.1515 17.2975 -8.95118
606 1 15.7254 12.5789 15.7247 -8.94952
607 1 17.297 14.1517 17.2969 -8.94964
608 1 18.8691 12.5794 15.7244 -8.94986
609 1 20.4411 14.1519 17.2968 -8.95
610 1 22.0136 15.7244 15.7242 -8.94964
611 1 1.57206 17.297 17.2967 -8.95014
612 1 3.14365 15.7251 15.7239 -8.95118
613 1 4.71567 17.2995 17.2981 -8.94998
614 1 6.2852 15.7326 15.7286 -8.9539
615 1 7.86182 17.2985 17.298 -8.94807
616 1 9.4344 15.7305 15.7275 -8.95098
617 1 11.0073 17.2984 17.298 -8.9494
618 1 12.5895 15.7341 15.7341 -8.93077
619 1 14.1543 17.2991 17.2991 -8.94512
620 1 15.7268 15.7254 15.7254 -8.95065
621 1 17.2973 17.297 17.297 -8.94964
622 1 18.8695 15.7244 15.7244 -8.95
623 1 20.4415 17.2967 17.2967 -8.94972
624 1 -7.26947e-05 18.8692 15.7242 -8.94954
625 1 1.57237 20.4415 17.2966 -8.94967
626 1 3.14467 18.8693 15.7241 -8.94964
627 1 4.71706 20.4419 17.2968 -8.95021
628 1 6.28938 18.8706 15.7244 -8.95184
629 1 7.86198 20.4419 17.297 -8.94956
630 1 9.43419 18.8708 15.7248 -8.95006
631 1 11.0069 20.4419 17.2969 -8.94956
632 1 12.5803 18.8713 15.7252 -8.95117
633 1 14.1522 20.442 17.297 -8.94983
634 1 15.7247 18.8695 15.7244 -8.94949
635 1 17.2967 20.4416 17.2967 -8.94965
636 1 18.8692 18.8692 15.7242 -8.94957
637 1 20.4415 20.4415 17.2966 -8.94961
638 1 1.57193 11.007 20.442 -8.94958
639 1 4.71607 11.007 20.4438 -8.94936
640 1 7.86233 11.007 20.4427 -8.94736
641 1 11.0072 11.007 20.4418 -8.94851
642 1 14.1521 11.007 20.4419 -8.94965
643 1 17.2967 11.007 20.4416 -8.94964
644 1 20.4414 11.007 20.4416 -8.9496
645 1 -0.000599779 12.5795 18.8694 -8.94939
646 1 1.57195 14.152 20.4419 -8.94949
647 1 3.14293 12.5801 18.871 -8.94814
648 1 4.71633 14.1528 20.4437 -8.95117
649 1 6.28788 12.5805 18.8758 -8.95837
650 1 7.86244 14.1524 20.4432 -8.95006
651 1 9.43448 12.5793 18.8707 -8.95105
652 1 11.0073 14.152 20.443 -8.95184
653 1 12.5797 12.5787 18.8697 -8.94922
654 1 14.152 14.1517 20.4418 -8.94964
655 1 15.7246 12.5794 18.8695 -8.9492
656 1 17.2967 14.1518 20.4416 -8.94954
657 1 18.8691 12.5794 18.8692 -8.94959
658 1 20.4414 14.1518 20.4416 -8.94957
659 1 22.0133 15.7246 18.8694 -8.94964
660 1 1.57191 17.2972 20.442 -8.94861
661 1 3.14236 15.7267 18.8715 -8.94512
662 1 4.71714 17.297 20.4419 -8.94978
663 1 6.28937 15.7255 18.8708 -8.9494
371 1 9.43466 15.7245 22.0143 -8.94956
353 1 3.14444 12.5795 22.0144 -8.94942
361 1 15.7243 12.5794 22.014 -8.9496
369 1 6.28969 15.7245 22.0143 -8.94956
365 1 -0.000106544 15.7243 22.014 -8.94965
381 1 3.14481 18.8692 22.014 -8.94971
387 1 12.5794 18.8692 22.014 -8.94958
537 1 14.1522 20.442 11.0068 -8.94942
530 1 14.1537 17.2986 11.0063 -8.94814
