ITEM: TIMESTEP
86
ITEM: NUMBER OF ATOMS
687
ITEM: BOX BOUNDS pp pp pp
0.0000000000000000e+00 2.2013900999999997e+01
0.0000000000000000e+00 2.2013900999999997e+01
0.0000000000000000e+00 2.2013900999999997e+01
ITEM: ATOMS id type x y z c_pot
1 1 22.0136 5.78367e-16 0.000221193 -8.9494
2 1 1.57213 1.57214 1.57242 -8.94961
196 1 20.4415 7.8618 11.007 -8.9499
4 1 4.7171 1.57214 1.57242 -8.94953
5 1 6.28957 -8.7504e-15 0.000257677 -8.94954
6 1 7.86208 1.57214 1.57242 -8.94955
175 1 18.8691 9.43458 9.43422 -8.9499
8 1 11.0071 1.57216 1.57242 -8.94954
9 1 12.5795 -2.66186e-14 0.000278648 -8.94953
10 1 14.152 1.5722 1.57242 -8.94956
195 1 17.2991 7.86173 11.0067 -8.9518
12 1 17.2969 1.5722 1.57242 -8.9494
13 1 18.8692 9.39695e-16 0.00017203 -8.94929
14 1 20.4413 1.57225 1.57242 -8.94929
15 1 22.0133 3.1443 0.000318704 -8.94918
16 1 1.57167 4.71649 1.57242 -8.94953
194 1 14.1621 7.85813 11.0045 -8.95826
18 1 4.71696 4.71653 1.57242 -8.9496
174 1 15.7256 9.43523 9.43397 -8.94977
20 1 7.86217 4.71656 1.57242 -8.94955
173 1 12.5825 9.43691 9.43403 -8.95294
22 1 11.0073 4.71669 1.57242 -8.94953
193 1 11.0477 7.82496 10.9737 -8.85422
24 1 14.1523 4.71686 1.57242 -8.95005
25 1 15.7248 3.14436 0.000532163 -8.94948
26 1 17.2968 4.71716 1.57242 -8.94971
27 1 18.8691 3.14462 0.00024184 -8.94959
28 1 20.4412 4.717 1.57242 -8.94955
192 1 7.84744 7.85423 10.983 -8.90441
30 1 1.57151 7.86162 1.57242 -8.94939
31 1 3.14375 6.28856 0.00118223 -8.95
32 1 4.71672 7.86152 1.57242 -8.95066
172 1 9.4492 9.41053 9.42665 -8.90442
34 1 7.86237 7.86167 1.57242 -8.95026
171 1 6.24895 9.40124 9.39738 -8.85423
36 1 11.0072 7.86208 1.57242 -8.95041
37 1 12.5799 6.28929 0.00100538 -8.95069
38 1 14.1521 7.86218 1.57242 -8.94954
39 1 15.7245 6.28966 0.000342772 -8.94973
40 1 17.2968 7.86205 1.57242 -8.94954
41 1 18.8689 6.28954 0.000223592 -8.94952
42 1 20.4411 7.86193 1.57242 -8.94954
170 1 3.13456 9.43204 9.43055 -8.95826
169 1 22.0114 9.43424 9.43415 -8.9518
45 1 6.28942 9.43437 0.00166255 -8.95144
46 1 9.43467 9.43466 0.000517025 -8.94943
47 1 12.5797 9.43468 0.000337015 -8.94936
168 1 18.87 6.28918 9.43413 -8.95023
167 1 15.7287 6.28753 9.43238 -8.9509
50 1 22.0136 6.12157e-16 3.14462 -8.9494
51 1 1.57188 1.57189 4.71678 -8.94948
52 1 3.14462 -2.12566e-15 3.14462 -8.94956
53 1 4.71695 1.57194 4.71676 -8.94949
54 1 6.28957 -9.29635e-15 3.14459 -8.94954
55 1 7.86201 1.57196 4.71667 -8.94951
56 1 9.43456 -2.60386e-14 3.14456 -8.94955
57 1 11.0071 1.57199 4.71664 -8.94947
58 1 12.5795 -2.69227e-14 3.14456 -8.94953
59 1 14.1522 1.57199 4.7166 -8.94963
60 1 15.7245 -7.03006e-15 3.14457 -8.94961
61 1 17.2972 1.5721 4.71672 -8.94918
62 1 18.8692 1.60036e-15 3.14467 -8.94929
63 1 20.4415 1.57218 4.71704 -8.94959
64 1 22.0133 3.1443 3.14452 -8.94918
65 1 1.5709 4.71574 4.71598 -8.94822
66 1 3.1444 3.14418 3.14441 -8.94963
67 1 4.71646 4.71582 4.71582 -8.94964
68 1 6.28954 3.14422 3.14441 -8.94947
69 1 7.86203 4.71601 4.71587 -8.94936
70 1 9.43463 3.14424 3.14438 -8.94951
71 1 11.0074 4.71615 4.7158 -8.94914
72 1 12.5797 3.14434 3.14436 -8.94949
73 1 14.1531 4.71611 4.71544 -8.94944
74 1 15.7248 3.14436 3.14431 -8.94948
75 1 17.297 4.71696 4.71667 -8.94986
76 1 18.8691 3.14462 3.1446 -8.94959
77 1 20.441 4.71677 4.7168 -8.94956
78 1 -0.000730481 6.28919 3.14443 -8.94948
79 1 1.57073 7.86119 4.71581 -8.9492
80 1 3.14375 6.28856 3.14366 -8.95
81 1 4.7153 7.86034 4.71345 -8.95155
82 1 6.28951 6.2888 3.14375 -8.94971
83 1 7.86226 7.86095 4.71444 -8.9506
84 1 9.43489 6.2889 3.14385 -8.94964
85 1 11.0074 7.86175 4.71502 -8.95253
86 1 12.5799 6.28929 3.14384 -8.95069
87 1 14.1523 7.86232 4.7165 -8.94964
88 1 15.7245 6.28966 3.1445 -8.94973
89 1 17.2968 7.86205 4.71678 -8.94942
90 1 18.8689 6.28954 3.14462 -8.94952
91 1 20.4409 7.86181 4.71672 -8.94945
92 1 22.0131 9.43434 3.14438 -8.94949
93 1 3.14352 9.43406 3.14357 -8.94939
94 1 6.28942 9.43437 3.14318 -8.95144
95 1 9.43467 9.43466 3.14433 -8.94943
96 1 12.5797 9.43468 3.14451 -8.94936
97 1 15.7245 9.43453 3.14452 -8.94956
98 1 18.8689 9.43447 3.14459 -8.94956
99 1 22.0138 -2.26535e-15 6.28958 -8.94971
100 1 1.57213 1.57208 7.86209 -8.94973
101 1 3.14434 -6.2504e-15 6.28928 -8.95005
102 1 4.7167 1.57142 7.86171 -8.95069
103 1 6.28936 6.18894e-14 6.28911 -8.94953
104 1 7.86175 1.57143 7.86132 -8.94964
105 1 9.43446 2.91369e-13 6.28899 -8.94955
106 1 11.0071 1.57133 7.86122 -8.94971
107 1 12.5797 3.21808e-13 6.28895 -8.9496
108 1 14.1529 1.57124 7.86098 -8.95
109 1 15.725 -2.19957e-14 6.28892 -8.94953
110 1 17.2974 1.572 7.86161 -8.94948
111 1 18.8694 -4.76915e-15 6.28942 -8.94955
112 1 20.4416 1.5722 7.86196 -8.94952
113 1 22.0135 3.14425 6.28939 -8.94986
114 1 1.57123 4.71609 7.86174 -8.95042
115 1 3.14355 3.14302 6.28853 -8.94944
116 1 4.71419 4.71251 7.85926 -8.94987
117 1 6.28919 3.14337 6.28857 -8.94914
118 1 7.8615 4.71388 7.85949 -8.94774
119 1 9.43461 3.14344 6.28843 -8.94936
120 1 11.0084 4.7135 7.85926 -8.94917
121 1 12.5802 3.1434 6.28824 -8.94964
122 1 14.1563 4.71308 7.85779 -8.94453
123 1 15.7257 3.14356 6.28816 -8.94822
124 1 17.2983 4.71625 7.861 -8.94969
125 1 18.8695 3.14438 6.2892 -8.94956
126 1 20.4415 4.71676 7.86183 -8.94986
127 1 22.0122 6.28858 6.28867 -8.94969
128 1 1.56795 7.85996 7.85995 -8.9509
129 1 3.14038 6.28537 6.2855 -8.94453
130 1 4.70408 7.85002 7.84938 -8.92996
131 1 6.28825 6.28683 6.28592 -8.94917
132 1 7.86112 7.8568 7.85313 -8.95091
133 1 9.43513 6.28707 6.2863 -8.94774
134 1 11.0133 7.85522 7.85157 -8.9532
135 1 12.5824 6.28684 6.28493 -8.94987
136 1 14.1542 7.862 7.86043 -8.95167
137 1 15.7254 6.28932 6.28851 -8.95042
138 1 17.2974 7.86215 7.86152 -8.94985
139 1 18.869 6.28941 6.28918 -8.94986
140 1 20.4405 7.86171 7.8616 -8.95023
141 1 -0.00184612 9.43409 6.28852 -8.94928
142 1 3.1407 9.43305 6.28576 -8.94761
143 1 6.2864 9.4331 6.28145 -8.95926
144 1 9.43389 9.43438 6.28816 -8.95184
145 1 12.5798 9.43526 6.28898 -8.9489
146 1 15.7249 9.43457 6.2888 -8.94898
147 1 18.8689 9.43442 6.28907 -8.94956
148 1 -0.000114408 2.58113e-15 9.43448 -8.94954
149 1 3.14453 1.58528e-13 9.4346 -8.94954
150 1 6.28943 2.33759e-13 9.4345 -8.95041
151 1 9.43427 -2.82386e-12 9.43409 -8.95026
152 1 12.5799 1.66523e-13 9.43394 -8.95066
153 1 15.7251 3.03314e-13 9.43404 -8.94939
154 1 18.8694 -1.96103e-14 9.43435 -8.94954
155 1 -0.000202248 3.14436 9.43447 -8.94942
156 1 3.14436 3.14408 9.43474 -8.94964
157 1 6.28922 3.1426 9.43418 -8.95253
158 1 9.43437 3.14202 9.43337 -8.9506
159 1 12.5813 3.14103 9.43276 -8.95155
160 1 15.7259 3.14339 9.43361 -8.9492
161 1 18.8697 3.1443 9.43423 -8.94945
162 1 22.0132 6.2891 9.43457 -8.94985
163 1 3.14247 6.28801 9.43442 -8.95167
164 1 6.28329 6.27914 9.42764 -8.9532
165 1 9.43551 6.28071 9.42922 -8.95091
166 1 12.5926 6.27695 9.42244 -8.92996
177 1 4.71692 1.57208 11.0071 -8.94936
178 1 7.86197 1.5719 11.0071 -8.94943
179 1 11.0072 1.57076 11.0068 -8.95144
191 1 4.71412 7.86161 11.0093 -8.95294
181 1 17.2974 1.57196 11.0068 -8.94949
182 1 20.4416 1.57217 11.0069 -8.94956
184 1 4.71688 4.71656 11.0077 -8.9489
185 1 7.86275 4.71574 11.0068 -8.95184
186 1 11.0102 4.70903 11.0055 -8.95926
190 1 1.57101 7.86155 11.0077 -8.94977
19 1 6.28954 3.14422 0.000435299 -8.94947
49 1 18.8689 9.43447 0.000252372 -8.94956
21 1 9.43463 3.14424 0.00045917 -8.94951
43 1 22.0131 9.43434 0.000458897 -8.94949
176 1 1.5721 1.5721 11.007 -8.94956
343 1 18.8689 9.43442 18.8697 -8.94956
342 1 15.7249 9.43457 18.8699 -8.94898
341 1 12.5798 9.43526 18.8698 -8.9489
340 1 9.43389 9.43438 18.8706 -8.95184
339 1 6.2864 9.4331 18.8773 -8.95926
338 1 3.1407 9.43305 18.873 -8.94761
183 1 1.57171 4.71638 11.007 -8.94898
337 1 -0.00184612 9.43409 18.8702 -8.94928
336 1 20.4409 7.86181 20.442 -8.94945
335 1 18.869 6.28941 18.8696 -8.94986
334 1 17.2968 7.86205 20.442 -8.94942
188 1 17.2985 4.7161 11.0065 -8.94928
189 1 20.4417 4.71665 11.0068 -8.94956
333 1 15.7254 6.28932 18.8702 -8.95042
332 1 14.1523 7.86232 20.4422 -8.94964
331 1 12.5824 6.28684 18.8738 -8.94987
330 1 11.0074 7.86175 20.4437 -8.95253
329 1 9.43513 6.28707 18.8724 -8.94774
328 1 7.86226 7.86095 20.4443 -8.9506
327 1 6.28825 6.28683 18.8728 -8.94917
197 1 -0.0001303 8.20993e-14 12.5794 -8.94958
198 1 1.5721 1.5721 14.1518 -8.94956
199 1 3.14446 -3.41558e-13 12.5794 -8.94966
200 1 4.71692 1.57208 14.1516 -8.94936
201 1 6.28935 -2.22728e-12 12.5794 -8.94915
202 1 7.86197 1.5719 14.1517 -8.94943
203 1 9.4343 -5.20273e-12 12.5794 -8.9485
204 1 11.0072 1.57076 14.1519 -8.95144
205 1 12.5802 -4.06548e-12 12.5794 -8.95035
206 1 14.1531 1.57114 14.1523 -8.94939
207 1 15.7252 4.60886e-13 12.5794 -8.94947
208 1 17.2974 1.57196 14.152 -8.94949
209 1 18.8695 -2.27674e-14 12.5794 -8.94955
210 1 20.4416 1.57217 14.1519 -8.94956
211 1 22.0137 3.14432 12.5794 -8.94957
212 1 1.57171 4.71638 14.1518 -8.94898
213 1 3.14431 3.1441 12.5794 -8.94965
214 1 4.71688 4.71656 14.1511 -8.9489
215 1 6.28954 3.14477 12.5794 -8.94822
216 1 7.86275 4.71574 14.1519 -8.95184
217 1 9.43475 3.14402 12.5794 -8.94635
218 1 11.0102 4.70903 14.1532 -8.95926
219 1 12.582 3.14086 12.5794 -8.94958
220 1 14.1559 4.71334 14.1533 -8.94761
221 1 15.726 3.14334 12.5794 -8.94945
222 1 17.2985 4.7161 14.1522 -8.94928
223 1 18.8697 3.14426 12.5794 -8.94951
224 1 20.4417 4.71665 14.1519 -8.94956
225 1 -0.000564995 6.28886 12.5794 -8.94955
226 1 1.57101 7.86155 14.1511 -8.94977
227 1 3.14341 6.28809 12.5794 -8.94648
228 1 4.71412 7.86161 14.1494 -8.95294
229 1 6.29187 6.29218 12.5794 -8.94511
230 1 7.84744 7.85423 14.1758 -8.90441
231 1 9.43978 6.29328 12.5794 -9.00331
232 1 11.0477 7.82496 14.1851 -8.85422
233 1 12.5903 6.27937 12.5794 -8.94207
234 1 14.1621 7.85813 14.1543 -8.95826
235 1 15.7289 6.28715 12.5794 -8.94906
236 1 17.2991 7.86173 14.1521 -8.9518
237 1 18.8702 6.289 12.5794 -8.94998
238 1 20.4415 7.8618 14.1517 -8.9499
239 1 22.0136 9.43425 12.5794 -8.94764
240 1 3.14743 9.43513 12.5794 -8.93976
241 1 6.31262 9.44448 12.5794 -8.90219
242 1 9.51194 9.20271 12.5794 -8.12121
243 1 12.587 9.42682 12.5794 -8.97291
244 1 15.7265 9.43486 12.5794 -8.95109
245 1 18.8696 9.43461 12.5794 -8.94939
246 1 -0.000114408 2.37887e-15 15.7243 -8.94954
247 1 1.57213 1.57208 17.2967 -8.94973
248 1 3.14453 1.58299e-13 15.7241 -8.94954
249 1 4.7167 1.57142 17.297 -8.95069
250 1 6.28943 2.33075e-13 15.7242 -8.95041
251 1 7.86175 1.57143 17.2974 -8.94964
252 1 9.43427 -2.82384e-12 15.7247 -8.95026
253 1 11.0071 1.57133 17.2975 -8.94971
254 1 12.5799 1.66185e-13 15.7248 -8.95066
255 1 14.1529 1.57124 17.2978 -8.95
256 1 15.7251 3.03983e-13 15.7247 -8.94939
257 1 17.2974 1.572 17.2971 -8.94948
258 1 18.8694 -1.85396e-14 15.7244 -8.94954
259 1 20.4416 1.5722 17.2968 -8.94952
260 1 -0.000202248 3.14436 15.7243 -8.94942
261 1 1.57123 4.71609 17.297 -8.95042
262 1 3.14436 3.14408 15.724 -8.94964
263 1 4.71419 4.71251 17.2995 -8.94987
264 1 6.28922 3.1426 15.7246 -8.95253
265 1 7.8615 4.71388 17.2993 -8.94774
266 1 9.43437 3.14202 15.7254 -8.9506
267 1 11.0084 4.7135 17.2995 -8.94917
268 1 12.5813 3.14103 15.726 -8.95155
269 1 14.1563 4.71308 17.301 -8.94453
270 1 15.7259 3.14339 15.7251 -8.9492
271 1 17.2983 4.71625 17.2977 -8.94969
272 1 18.8697 3.1443 15.7245 -8.94945
273 1 20.4415 4.71676 17.2969 -8.94986
274 1 22.0132 6.2891 15.7242 -8.94985
275 1 1.56795 7.85996 17.2988 -8.9509
276 1 3.14247 6.28801 15.7243 -8.95167
277 1 4.70408 7.85002 17.3094 -8.92996
278 1 6.28329 6.27914 15.7311 -8.9532
279 1 7.86112 7.8568 17.3056 -8.95091
280 1 9.43551 6.28071 15.7295 -8.95091
281 1 11.0133 7.85522 17.3072 -8.9532
282 1 12.5926 6.27695 15.7363 -8.92996
283 1 14.1542 7.862 17.2983 -8.95167
284 1 15.7287 6.28753 15.7264 -8.9509
285 1 17.2974 7.86215 17.2972 -8.94985
286 1 18.87 6.28918 15.7246 -8.95023
287 1 20.4405 7.86171 17.2971 -8.95023
288 1 22.0114 9.43424 15.7246 -8.9518
289 1 3.13456 9.43204 15.7282 -8.95826
290 1 6.24895 9.40124 15.7614 -8.85423
291 1 9.4492 9.41053 15.7321 -8.90442
292 1 12.5825 9.43691 15.7247 -8.95294
293 1 15.7256 9.43523 15.7248 -8.94977
294 1 18.8691 9.43458 15.7245 -8.9499
295 1 22.0138 -2.10167e-15 18.8692 -8.94971
296 1 1.57188 1.57189 20.442 -8.94948
297 1 3.14434 -5.86923e-15 18.8695 -8.95005
298 1 4.71695 1.57194 20.442 -8.94949
299 1 6.28936 6.14445e-14 18.8696 -8.94953
300 1 7.86201 1.57196 20.4421 -8.94951
301 1 9.43446 2.91456e-13 18.8698 -8.94955
302 1 11.0071 1.57199 20.4421 -8.94947
303 1 12.5797 3.22628e-13 18.8698 -8.9496
304 1 14.1522 1.57199 20.4421 -8.94963
305 1 15.725 -2.18558e-14 18.8698 -8.94953
306 1 17.2972 1.5721 20.442 -8.94918
307 1 18.8694 -4.83533e-15 18.8693 -8.94955
308 1 20.4415 1.57218 20.4417 -8.94959
309 1 22.0135 3.14425 18.8694 -8.94986
310 1 1.5709 4.71574 20.4428 -8.94822
311 1 3.14355 3.14302 18.8702 -8.94944
312 1 4.71646 4.71582 20.4429 -8.94964
313 1 6.28919 3.14337 18.8702 -8.94914
314 1 7.86203 4.71601 20.4429 -8.94936
315 1 9.43461 3.14344 18.8703 -8.94936
316 1 11.0074 4.71615 20.4429 -8.94914
317 1 12.5802 3.1434 18.8705 -8.94964
318 1 14.1531 4.71611 20.4433 -8.94944
319 1 15.7257 3.14356 18.8706 -8.94822
320 1 17.297 4.71696 20.4421 -8.94986
321 1 18.8695 3.14438 18.8695 -8.94956
322 1 20.441 4.71677 20.4419 -8.94956
323 1 22.0122 6.28858 18.8701 -8.94969
324 1 1.57073 7.86119 20.4429 -8.9492
325 1 3.14038 6.28537 18.8732 -8.94453
326 1 4.7153 7.86034 20.4453 -8.95155
7 1 9.43456 -2.57279e-14 22.0142 -8.94955
48 1 15.7245 9.43453 22.0142 -8.94956
44 1 3.14352 9.43406 22.0152 -8.94939
33 1 6.28951 6.2888 22.015 -8.94971
35 1 9.43489 6.2889 22.0149 -8.94964
3 1 3.14462 -2.18464e-15 22.0141 -8.94956
11 1 15.7245 -7.09422e-15 22.0142 -8.94961
17 1 3.1444 3.14418 22.0143 -8.94963
23 1 12.5797 3.14434 22.0144 -8.94949
29 1 -0.000730481 6.28919 22.0143 -8.94948
180 1 14.1531 1.57114 11.0065 -8.94939
187 1 14.1559 4.71334 11.0055 -8.94761
344 1 1.57145 11.007 1.57242 -8.94947
345 1 4.7164 11.007 1.57242 -8.95035
346 1 7.86233 11.007 1.57242 -8.9485
347 1 11.0073 11.007 1.57242 -8.94915
348 1 14.1522 11.007 1.57242 -8.94966
349 1 17.2968 11.007 1.57242 -8.94958
350 1 20.4411 11.007 1.57242 -8.94955
511 1 18.8697 18.8696 9.43423 -8.94945
352 1 1.57151 14.1523 1.57242 -8.94939
510 1 15.7259 18.8705 9.43361 -8.9492
354 1 4.71672 14.1524 1.57242 -8.95066
355 1 6.28942 12.5795 0.00166255 -8.95144
356 1 7.86237 14.1522 1.57242 -8.95026
357 1 9.43467 12.5792 0.000517025 -8.94943
358 1 11.0072 14.1518 1.57242 -8.95041
359 1 12.5797 12.5792 0.000337015 -8.94936
360 1 14.1521 14.1517 1.57242 -8.94954
509 1 12.5813 18.8729 9.43276 -8.95155
362 1 17.2968 14.1518 1.57242 -8.94954
508 1 9.43437 18.8719 9.43337 -8.9506
364 1 20.4411 14.152 1.57242 -8.94954
539 1 20.4416 20.4417 11.0069 -8.94956
366 1 1.57167 17.2974 1.57242 -8.94953
367 1 3.14375 15.7253 0.00118223 -8.95
368 1 4.71696 17.2974 1.57242 -8.9496
507 1 6.28922 18.8713 9.43418 -8.95253
370 1 7.86217 17.2973 1.57242 -8.94955
506 1 3.14436 18.8698 9.43474 -8.94964
372 1 11.0073 17.2972 1.57242 -8.94953
373 1 12.5799 15.7246 0.00100538 -8.95069
374 1 14.1523 17.297 1.57242 -8.95005
375 1 15.7245 15.7242 0.000342772 -8.94973
376 1 17.2968 17.2967 1.57242 -8.94971
377 1 18.8689 15.7244 0.000223592 -8.94952
378 1 20.4412 17.2969 1.57242 -8.94955
379 1 22.0133 18.8696 0.000318704 -8.94918
380 1 1.57213 20.4418 1.57242 -8.94961
538 1 17.2974 20.4419 11.0068 -8.94949
382 1 4.7171 20.4418 1.57242 -8.94953
505 1 -0.000202248 18.8695 9.43447 -8.94942
384 1 7.86208 20.4418 1.57242 -8.94955
504 1 18.87 15.7247 9.43413 -8.95023
386 1 11.0071 20.4417 1.57242 -8.94954
536 1 11.0072 20.4431 11.0068 -8.95144
388 1 14.152 20.4417 1.57242 -8.94956
389 1 15.7248 18.8695 0.000532163 -8.94948
390 1 17.2969 20.4417 1.57242 -8.9494
391 1 18.8691 18.8693 0.00024184 -8.94959
392 1 20.4413 20.4417 1.57242 -8.94929
393 1 1.57064 11.007 4.71576 -8.94945
394 1 4.71466 11.007 4.71328 -8.94958
395 1 7.86189 11.007 4.71644 -8.94635
396 1 11.0071 11.007 4.71719 -8.94822
397 1 14.1523 11.007 4.71653 -8.94965
398 1 17.2968 11.007 4.71674 -8.94957
399 1 20.4408 11.007 4.71668 -8.94951
400 1 22.0131 12.5796 3.14438 -8.94949
401 1 1.57073 14.1527 4.71581 -8.9492
402 1 3.14352 12.5798 3.14357 -8.94939
403 1 4.7153 14.1536 4.71345 -8.95155
404 1 6.28942 12.5795 3.14318 -8.95144
405 1 7.86226 14.153 4.71444 -8.9506
406 1 9.43467 12.5792 3.14433 -8.94943
407 1 11.0074 14.1521 4.71502 -8.95253
408 1 12.5797 12.5792 3.14451 -8.94936
409 1 14.1523 14.1516 4.7165 -8.94964
410 1 15.7245 12.5794 3.14452 -8.94956
411 1 17.2968 14.1519 4.71678 -8.94942
412 1 18.8689 12.5794 3.14459 -8.94956
413 1 20.4409 14.1521 4.71672 -8.94945
414 1 -0.000730481 15.7247 3.14443 -8.94948
415 1 1.5709 17.2982 4.71598 -8.94822
416 1 3.14375 15.7253 3.14366 -8.95
417 1 4.71646 17.2981 4.71582 -8.94964
418 1 6.28951 15.7251 3.14375 -8.94971
419 1 7.86203 17.2979 4.71587 -8.94936
420 1 9.43489 15.725 3.14385 -8.94964
421 1 11.0074 17.2977 4.7158 -8.94914
422 1 12.5799 15.7246 3.14384 -8.95069
423 1 14.1531 17.2978 4.71544 -8.94944
424 1 15.7245 15.7242 3.1445 -8.94973
425 1 17.297 17.2969 4.71667 -8.94986
426 1 18.8689 15.7244 3.14462 -8.94952
427 1 20.441 17.2971 4.7168 -8.94956
428 1 22.0133 18.8696 3.14452 -8.94918
429 1 1.57188 20.442 4.71678 -8.94948
430 1 3.1444 18.8697 3.14441 -8.94963
431 1 4.71695 20.442 4.71676 -8.94949
432 1 6.28954 18.8697 3.14441 -8.94947
433 1 7.86201 20.4419 4.71667 -8.94951
434 1 9.43463 18.8697 3.14438 -8.94951
435 1 11.0071 20.4419 4.71664 -8.94947
436 1 12.5797 18.8696 3.14436 -8.94949
437 1 14.1522 20.4419 4.7166 -8.94963
438 1 15.7248 18.8695 3.14431 -8.94948
439 1 17.2972 20.4418 4.71672 -8.94918
440 1 18.8691 18.8693 3.1446 -8.94959
441 1 20.4415 20.4417 4.71704 -8.94959
442 1 1.56773 11.007 7.85957 -8.94906
443 1 4.70636 11.007 7.85179 -8.94207
444 1 7.85686 11.007 7.8657 -9.00331
445 1 11.0048 11.007 7.8646 -8.94511
446 1 14.1532 11.007 7.86051 -8.94648
447 1 17.2972 11.007 7.86128 -8.94955
448 1 20.4403 11.007 7.86142 -8.94998
449 1 -0.00184612 12.5798 6.28852 -8.94928
450 1 1.56795 14.1539 7.85995 -8.9509
451 1 3.1407 12.5809 6.28576 -8.94761
452 1 4.70408 14.1639 7.84938 -8.92996
453 1 6.2864 12.5808 6.28145 -8.95926
454 1 7.86112 14.1571 7.85313 -8.95091
455 1 9.43389 12.5795 6.28816 -8.95184
456 1 11.0133 14.1587 7.85157 -8.9532
457 1 12.5798 12.5786 6.28898 -8.9489
458 1 14.1542 14.1519 7.86043 -8.95167
459 1 15.7249 12.5793 6.2888 -8.94898
460 1 17.2974 14.1518 7.86152 -8.94985
461 1 18.8689 12.5795 6.28907 -8.94956
462 1 20.4405 14.1522 7.8616 -8.95023
463 1 22.0122 15.7253 6.28867 -8.94969
464 1 1.57123 17.2978 7.86174 -8.95042
465 1 3.14038 15.7285 6.2855 -8.94453
466 1 4.71419 17.3014 7.85926 -8.94987
467 1 6.28825 15.7271 6.28592 -8.94917
468 1 7.8615 17.3 7.85949 -8.94774
469 1 9.43513 15.7268 6.2863 -8.94774
470 1 11.0084 17.3004 7.85926 -8.94917
471 1 12.5824 15.7271 6.28493 -8.94987
472 1 14.1563 17.3008 7.85779 -8.94453
473 1 15.7254 15.7246 6.28851 -8.95042
474 1 17.2983 17.2976 7.861 -8.94969
475 1 18.869 15.7245 6.28918 -8.94986
476 1 20.4415 17.2971 7.86183 -8.94986
477 1 22.0135 18.8697 6.28939 -8.94986
478 1 1.57213 20.4418 7.86209 -8.94973
479 1 3.14355 18.8709 6.28853 -8.94944
480 1 4.7167 20.4425 7.86171 -8.95069
481 1 6.28919 18.8705 6.28857 -8.94914
482 1 7.86175 20.4425 7.86132 -8.94964
483 1 9.43461 18.8705 6.28843 -8.94936
484 1 11.0071 20.4426 7.86122 -8.94971
485 1 12.5802 18.8705 6.28824 -8.94964
486 1 14.1529 20.4427 7.86098 -8.95
487 1 15.7257 18.8703 6.28816 -8.94822
488 1 17.2974 20.4419 7.86161 -8.94948
489 1 18.8695 18.8695 6.2892 -8.94956
490 1 20.4416 20.4417 7.86196 -8.94952
491 1 22.0114 12.5797 9.43415 -8.9518
492 1 3.13456 12.5819 9.43055 -8.95826
493 1 6.24895 12.6127 9.39738 -8.85423
494 1 9.4492 12.6034 9.42665 -8.90442
495 1 12.5825 12.577 9.43403 -8.95294
496 1 15.7256 12.5787 9.43397 -8.94977
497 1 18.8691 12.5793 9.43422 -8.9499
498 1 22.0132 15.7248 9.43457 -8.94985
499 1 3.14247 15.7259 9.43442 -8.95167
500 1 6.28329 15.7348 9.42764 -8.9532
501 1 9.43551 15.7332 9.42922 -8.95091
502 1 12.5926 15.7369 9.42244 -8.92996
503 1 15.7287 15.7264 9.43238 -8.9509
512 1 1.5701 11.007 11.0073 -8.95109
513 1 4.70965 11.007 10.9992 -8.9729
514 1 7.7847 11.007 10.7751 -8.12116
515 1 10.984 11.007 11.0169 -8.90219
516 1 14.1492 11.007 11.0076 -8.93976
517 1 17.297 11.007 11.0067 -8.94764
518 1 20.4409 11.007 11.007 -8.94939
519 1 1.57101 14.1523 11.0077 -8.94977
520 1 4.71412 14.1523 11.0093 -8.95294
521 1 7.84744 14.1597 10.983 -8.90442
522 1 11.0477 14.1889 10.9737 -8.85424
523 1 14.1621 14.1558 11.0045 -8.95826
524 1 17.2991 14.1522 11.0067 -8.9518
525 1 20.4415 14.1521 11.007 -8.9499
527 1 4.71688 17.2973 11.0077 -8.9489
528 1 7.86275 17.2982 11.0068 -8.95184
529 1 11.0102 17.3049 11.0055 -8.95926
535 1 7.86197 20.442 11.0071 -8.94943
534 1 4.71692 20.4418 11.0071 -8.94936
351 1 22.0131 12.5796 0.000458897 -8.94949
385 1 9.43463 18.8697 0.00045917 -8.94951
383 1 6.28954 18.8697 0.000435299 -8.94947
363 1 18.8689 12.5794 0.000252372 -8.94956
687 3 8.64832 11.007 12.5794 2.30876
686 1 20.4415 20.4417 20.4417 -8.94959
685 1 18.8695 18.8695 18.8695 -8.94956
684 1 17.2972 20.4418 20.442 -8.94918
683 1 15.7257 18.8703 18.8706 -8.94822
682 1 14.1522 20.4419 20.4421 -8.94963
681 1 12.5802 18.8705 18.8705 -8.94964
680 1 11.0071 20.4419 20.4421 -8.94947
679 1 9.43461 18.8705 18.8703 -8.94936
678 1 7.86201 20.4419 20.4421 -8.94951
677 1 6.28919 18.8705 18.8702 -8.94914
676 1 4.71695 20.442 20.442 -8.94949
675 1 3.14355 18.8709 18.8702 -8.94944
674 1 1.57188 20.442 20.442 -8.94948
526 1 1.57171 17.2975 11.007 -8.94898
673 1 22.0135 18.8697 18.8694 -8.94986
672 1 20.441 17.2971 20.4419 -8.94956
671 1 18.869 15.7245 18.8696 -8.94986
670 1 17.297 17.2969 20.4421 -8.94986
531 1 17.2985 17.2978 11.0065 -8.94928
532 1 20.4417 17.2972 11.0068 -8.94956
533 1 1.5721 20.4418 11.007 -8.94956
669 1 15.7254 15.7246 18.8702 -8.95042
668 1 14.1531 17.2978 20.4433 -8.94944
667 1 12.5824 15.7271 18.8738 -8.94987
666 1 11.0074 17.2977 20.4429 -8.94914
665 1 9.43513 15.7268 18.8724 -8.94774
664 1 7.86203 17.2979 20.4429 -8.94936
540 1 1.5701 11.007 14.1515 -8.95109
541 1 4.70965 11.007 14.1595 -8.9729
542 1 7.7847 11.007 14.3836 -8.12116
543 1 10.984 11.007 14.1418 -8.90219
544 1 14.1492 11.007 14.1512 -8.93976
545 1 17.297 11.007 14.1521 -8.94764
546 1 20.4409 11.007 14.1517 -8.94939
547 1 22.0136 12.5796 12.5794 -8.94764
548 1 1.57101 14.1523 14.1511 -8.94977
549 1 3.14743 12.5788 12.5794 -8.93976
550 1 4.71412 14.1523 14.1494 -8.95294
551 1 6.31262 12.5694 12.5794 -8.90219
552 1 7.84744 14.1597 14.1758 -8.90442
553 1 9.51193 12.8112 12.5794 -8.12112
554 1 11.0477 14.1889 14.1851 -8.85424
555 1 12.587 12.5871 12.5794 -8.9729
556 1 14.1621 14.1558 14.1543 -8.95826
557 1 15.7265 12.579 12.5794 -8.95109
558 1 17.2991 14.1522 14.1521 -8.9518
559 1 18.8696 12.5793 12.5794 -8.94939
560 1 20.4415 14.1521 14.1517 -8.9499
561 1 -0.000564995 15.725 12.5794 -8.94955
562 1 1.57171 17.2975 14.1518 -8.94898
563 1 3.14341 15.7258 12.5794 -8.94648
564 1 4.71688 17.2973 14.1511 -8.9489
565 1 6.29187 15.7217 12.5794 -8.94511
566 1 7.86275 17.2982 14.1519 -8.95184
567 1 9.43978 15.7206 12.5794 -9.0033
568 1 11.0102 17.3049 14.1532 -8.95926
569 1 12.5903 15.7345 12.5794 -8.94207
570 1 14.1559 17.3006 14.1533 -8.94761
571 1 15.7289 15.7267 12.5794 -8.94906
572 1 17.2985 17.2978 14.1522 -8.94928
573 1 18.8702 15.7249 12.5794 -8.94998
574 1 20.4417 17.2972 14.1519 -8.94956
575 1 22.0137 18.8696 12.5794 -8.94957
576 1 1.5721 20.4418 14.1518 -8.94956
577 1 3.14431 18.8698 12.5794 -8.94965
578 1 4.71692 20.4418 14.1516 -8.94936
579 1 6.28954 18.8691 12.5794 -8.94822
580 1 7.86197 20.442 14.1517 -8.94943
581 1 9.43475 18.8699 12.5794 -8.94635
582 1 11.0072 20.4431 14.1519 -8.95144
583 1 12.582 18.873 12.5794 -8.94958
584 1 14.1531 20.4428 14.1523 -8.94939
585 1 15.726 18.8706 12.5794 -8.94945
586 1 17.2974 20.4419 14.152 -8.94949
587 1 18.8697 18.8696 12.5794 -8.94951
588 1 20.4416 20.4417 14.1519 -8.94956
589 1 1.56773 11.007 17.2992 -8.94906
590 1 4.70636 11.007 17.307 -8.94207
591 1 7.85686 11.007 17.293 -9.00331
592 1 11.0048 11.007 17.2941 -8.94511
593 1 14.1532 11.007 17.2982 -8.94648
594 1 17.2972 11.007 17.2975 -8.94955
595 1 20.4403 11.007 17.2973 -8.94998
596 1 22.0114 12.5797 15.7246 -8.9518
597 1 1.56795 14.1539 17.2988 -8.9509
598 1 3.13456 12.5819 15.7282 -8.95826
599 1 4.70408 14.1639 17.3094 -8.92996
600 1 6.24895 12.6127 15.7614 -8.85423
601 1 7.86112 14.1571 17.3056 -8.95091
602 1 9.4492 12.6034 15.7321 -8.90442
603 1 11.0133 14.1587 17.3072 -8.9532
604 1 12.5825 12.577 15.7247 -8.95294
605 1 14.1542 14.1519 17.2983 -8.95167
606 1 15.7256 12.5787 15.7248 -8.94977
607 1 17.2974 14.1518 17.2972 -8.94985
608 1 18.8691 12.5793 15.7245 -8.9499
609 1 20.4405 14.1522 17.2971 -8.95023
610 1 22.0132 15.7248 15.7242 -8.94985
611 1 1.57123 17.2978 17.297 -8.95042
612 1 3.14247 15.7259 15.7243 -8.95167
613 1 4.71419 17.3014 17.2995 -8.94987
614 1 6.28329 15.7348 15.7311 -8.9532
615 1 7.8615 17.3 17.2993 -8.94774
616 1 9.43551 15.7332 15.7295 -8.95091
617 1 11.0084 17.3004 17.2995 -8.94917
618 1 12.5926 15.7369 15.7363 -8.92996
619 1 14.1563 17.3008 17.301 -8.94453
620 1 15.7287 15.7264 15.7264 -8.9509
621 1 17.2983 17.2976 17.2977 -8.94969
622 1 18.87 15.7247 15.7246 -8.95023
623 1 20.4415 17.2971 17.2969 -8.94986
624 1 -0.000202248 18.8695 15.7243 -8.94942
625 1 1.57213 20.4418 17.2967 -8.94973
626 1 3.14436 18.8698 15.724 -8.94964
627 1 4.7167 20.4425 17.297 -8.95069
628 1 6.28922 18.8713 15.7246 -8.95253
629 1 7.86175 20.4425 17.2974 -8.94964
630 1 9.43437 18.8719 15.7254 -8.9506
631 1 11.0071 20.4426 17.2975 -8.94971
632 1 12.5813 18.8729 15.726 -8.95155
633 1 14.1529 20.4427 17.2978 -8.95
634 1 15.7259 18.8705 15.7251 -8.9492
635 1 17.2974 20.4419 17.2971 -8.94948
636 1 18.8697 18.8696 15.7245 -8.94945
637 1 20.4416 20.4417 17.2968 -8.94952
638 1 1.57064 11.007 20.443 -8.94945
639 1 4.71466 11.007 20.4455 -8.94958
640 1 7.86189 11.007 20.4423 -8.94635
641 1 11.0071 11.007 20.4416 -8.94822
642 1 14.1523 11.007 20.4422 -8.94965
643 1 17.2968 11.007 20.442 -8.94957
644 1 20.4408 11.007 20.4421 -8.94951
645 1 -0.00184612 12.5798 18.8702 -8.94928
646 1 1.57073 14.1527 20.4429 -8.9492
647 1 3.1407 12.5809 18.873 -8.94761
648 1 4.7153 14.1536 20.4453 -8.95155
649 1 6.2864 12.5808 18.8773 -8.95926
650 1 7.86226 14.153 20.4443 -8.9506
651 1 9.43389 12.5795 18.8706 -8.95184
652 1 11.0074 14.1521 20.4437 -8.95253
653 1 12.5798 12.5786 18.8698 -8.9489
654 1 14.1523 14.1516 20.4422 -8.94964
655 1 15.7249 12.5793 18.8699 -8.94898
656 1 17.2968 14.1519 20.442 -8.94942
657 1 18.8689 12.5795 18.8697 -8.94956
658 1 20.4409 14.1521 20.442 -8.94945
659 1 22.0122 15.7253 18.8701 -8.94969
660 1 1.5709 17.2982 20.4428 -8.94822
661 1 3.14038 15.7285 18.8732 -8.94453
662 1 4.71646 17.2981 20.4429 -8.94964
663 1 6.28825 15.7271 18.8728 -8.94917
371 1 9.43489 15.725 22.0149 -8.94964
353 1 3.14352 12.5798 22.0152 -8.94939
361 1 15.7245 12.5794 22.0142 -8.94956
369 1 6.28951 15.7251 22.015 -8.94971
365 1 -0.000730481 15.7247 22.0143 -8.94948
381 1 3.1444 18.8697 22.0143 -8.94963
387 1 12.5797 18.8696 22.0144 -8.94949
537 1 14.1531 20.4428 11.0065 -8.94939
530 1 14.1559 17.3006 11.0055 -8.94761
