ITEM: TIMESTEP
72
ITEM: NUMBER OF ATOMS
687
ITEM: BOX BOUNDS pp pp pp
0.0000000000000000e+00 2.2013900999999997e+01
0.0000000000000000e+00 2.2013900999999997e+01
0.0000000000000000e+00 2.2013900999999997e+01
ITEM: ATOMS id type x y z c_pot
1 1 22.0138 4.98844e-16 9.22516e-05 -8.94952
2 1 1.57235 1.57233 1.57242 -8.94967
196 1 20.4414 7.86187 11.007 -8.94989
4 1 4.71723 1.57232 1.57242 -8.94959
5 1 6.28966 -1.11698e-15 0.000108065 -8.9496
6 1 7.8621 1.57231 1.57242 -8.94961
175 1 18.8691 9.43456 9.43429 -8.94989
8 1 11.007 1.57231 1.57242 -8.9496
9 1 12.5794 3.83175e-16 0.000100836 -8.94959
10 1 14.1518 1.57234 1.57242 -8.94961
195 1 17.2987 7.86189 11.0067 -8.95164
12 1 17.2967 1.57233 1.57242 -8.94952
13 1 18.8691 1.74752e-15 5.5998e-05 -8.94946
14 1 20.4414 1.57237 1.57242 -8.94946
15 1 22.0137 3.1446 0.000154021 -8.94929
16 1 1.57207 4.7169 1.57242 -8.94956
194 1 14.1612 7.85891 11.0046 -8.95808
18 1 4.71717 4.71694 1.57242 -8.9496
174 1 15.7256 9.4352 9.43397 -8.94964
20 1 7.86214 4.71691 1.57242 -8.94957
173 1 12.5824 9.43727 9.43393 -8.95262
22 1 11.0071 4.71695 1.57242 -8.94952
193 1 11.0469 7.82618 10.9739 -8.85381
24 1 14.152 4.71704 1.57242 -8.94992
25 1 15.7245 3.1446 0.000271828 -8.94951
26 1 17.2967 4.71725 1.57242 -8.94969
27 1 18.8691 3.14477 8.93417e-05 -8.94963
28 1 20.4414 4.71719 1.57242 -8.94963
192 1 7.84798 7.85513 10.9848 -8.9055
30 1 1.57202 7.86192 1.57242 -8.94946
31 1 3.14422 6.28903 0.0007992 -8.94994
32 1 4.71697 7.86176 1.57242 -8.95053
172 1 9.44866 9.41239 9.42755 -8.9055
34 1 7.86232 7.8618 1.57242 -8.95012
171 1 6.24975 9.40152 9.3986 -8.85381
36 1 11.0071 7.86205 1.57242 -8.95029
37 1 12.5797 6.28942 0.000705818 -8.95047
38 1 14.152 7.86214 1.57242 -8.94955
39 1 15.7244 6.2897 0.000157846 -8.9497
40 1 17.2967 7.86208 1.57242 -8.94959
41 1 18.869 6.28965 8.49782e-05 -8.94958
42 1 20.4414 7.86206 1.57242 -8.94961
170 1 3.13541 9.43221 9.43133 -8.95808
169 1 22.0118 9.43429 9.43431 -8.95164
45 1 6.28962 9.43443 0.00141417 -8.95133
46 1 9.43471 9.4346 0.000535615 -8.94949
47 1 12.5796 9.43463 0.000297891 -8.94942
168 1 18.8697 6.28939 9.43428 -8.95012
167 1 15.7277 6.28809 9.43286 -8.95081
50 1 22.0138 5.32823e-16 3.14475 -8.94952
51 1 1.57217 1.57215 4.71702 -8.94951
52 1 3.14479 -5.9287e-16 3.14476 -8.94961
53 1 4.71716 1.57219 4.71703 -8.94953
54 1 6.28966 -1.25138e-15 3.14473 -8.9496
55 1 7.86208 1.57218 4.71697 -8.94957
56 1 9.43454 -1.40782e-15 3.14473 -8.94961
57 1 11.007 1.5722 4.71698 -8.94954
58 1 12.5794 4.30375e-16 3.14474 -8.94959
59 1 14.1519 1.57222 4.71699 -8.94969
60 1 15.7243 2.63987e-16 3.14475 -8.94967
61 1 17.2969 1.57227 4.71703 -8.94929
62 1 18.8691 1.78147e-15 3.14479 -8.94946
63 1 20.4415 1.57233 4.71719 -8.94963
64 1 22.0137 3.1446 3.14469 -8.94929
65 1 1.5715 4.71634 4.71644 -8.94835
66 1 3.1447 3.14457 3.14464 -8.94969
67 1 4.71692 4.71646 4.71642 -8.94971
68 1 6.28964 3.14455 3.14462 -8.94954
69 1 7.86209 4.71651 4.71639 -8.94942
70 1 9.43456 3.14455 3.1446 -8.94957
71 1 11.0072 4.7166 4.71635 -8.94919
72 1 12.5795 3.14461 3.14461 -8.94953
73 1 14.1526 4.71653 4.71607 -8.94946
74 1 15.7245 3.1446 3.14457 -8.94951
75 1 17.2968 4.71716 4.71701 -8.94981
76 1 18.8691 3.14477 3.14475 -8.94963
77 1 20.4412 4.71705 4.71705 -8.94957
78 1 -0.000297371 6.28951 3.14464 -8.94959
79 1 1.5715 7.86164 4.7164 -8.94933
80 1 3.14422 6.28903 3.14404 -8.94994
81 1 4.71595 7.86079 4.71425 -8.95143
82 1 6.28966 6.28917 3.14413 -8.94961
83 1 7.86243 7.86127 4.71499 -8.95035
84 1 9.43476 6.28916 3.14414 -8.94958
85 1 11.0073 7.8619 4.71536 -8.95227
86 1 12.5797 6.28942 3.14414 -8.95047
87 1 14.1521 7.86232 4.71677 -8.94963
88 1 15.7244 6.2897 3.14469 -8.9497
89 1 17.2968 7.86208 4.71702 -8.94948
90 1 18.869 6.28965 3.14476 -8.94958
91 1 20.4412 7.862 4.71701 -8.94952
92 1 22.0136 9.43447 3.14462 -8.94958
93 1 3.14411 9.43427 3.144 -8.94939
94 1 6.28962 9.43443 3.14343 -8.95133
95 1 9.43471 9.4346 3.14431 -8.94949
96 1 12.5796 9.43463 3.14455 -8.94942
97 1 15.7244 9.43451 3.14464 -8.94958
98 1 18.869 9.43451 3.14474 -8.94961
99 1 22.0139 1.75344e-15 6.28967 -8.94969
100 1 1.57228 1.57226 7.86212 -8.9497
101 1 3.14459 1.45108e-15 6.28947 -8.94992
102 1 4.71692 1.57172 7.86184 -8.95047
103 1 6.28954 8.42586e-16 6.28937 -8.94952
104 1 7.86187 1.57172 7.86159 -8.94958
105 1 9.4345 2.29592e-17 6.28933 -8.94957
106 1 11.007 1.57171 7.86159 -8.94961
107 1 12.5795 -1.17234e-17 6.28936 -8.9496
108 1 14.1524 1.57162 7.86145 -8.94994
109 1 15.7246 8.00893e-16 6.28933 -8.94956
110 1 17.2969 1.57222 7.86193 -8.94959
111 1 18.8692 1.80155e-15 6.28962 -8.94963
112 1 20.4415 1.57234 7.86207 -8.94958
113 1 22.0137 3.14459 6.28958 -8.94981
114 1 1.57172 4.71659 7.86197 -8.95028
115 1 3.14405 3.14365 6.28895 -8.94946
116 1 4.71498 4.71345 7.86001 -8.94996
117 1 6.28946 3.14393 6.28903 -8.94919
118 1 7.86166 4.7147 7.86024 -8.94786
119 1 9.43454 3.14397 6.28893 -8.94942
120 1 11.0077 4.71459 7.8601 -8.94925
121 1 12.5797 3.144 6.28888 -8.94971
122 1 14.1552 4.71397 7.85869 -8.94468
123 1 15.7251 3.14402 6.28876 -8.94835
124 1 17.2977 4.71663 7.86144 -8.94966
125 1 18.8693 3.14463 6.28947 -8.94957
126 1 20.4415 4.71702 7.86199 -8.94978
127 1 22.0128 6.28902 6.28905 -8.94966
128 1 1.56894 7.86044 7.86051 -8.95081
129 1 3.14142 6.28627 6.2864 -8.94468
130 1 4.70546 7.85089 7.85064 -8.93003
131 1 6.28894 6.28768 6.28701 -8.94925
132 1 7.86174 7.85784 7.85443 -8.95096
133 1 9.43497 6.28782 6.28712 -8.94786
134 1 11.0125 7.8565 7.85249 -8.95366
135 1 12.5817 6.28759 6.28588 -8.94996
136 1 14.1535 7.86231 7.86083 -8.95148
137 1 15.7249 6.28955 6.28901 -8.95028
138 1 17.2972 7.86218 7.86174 -8.94973
139 1 18.869 6.28957 6.28945 -8.94978
140 1 20.4408 7.86186 7.86181 -8.95012
141 1 -0.00109689 9.43429 6.289 -8.94933
142 1 3.14196 9.43346 6.28681 -8.9478
143 1 6.28725 9.43331 6.28218 -8.95902
144 1 9.43417 9.43461 6.2881 -8.95153
145 1 12.5797 9.43532 6.28899 -8.94906
146 1 15.7248 9.43455 6.28904 -8.94906
147 1 18.869 9.43447 6.28936 -8.94957
148 1 -8.31808e-05 1.73714e-15 9.4345 -8.94959
149 1 3.14466 1.89094e-15 9.43456 -8.94955
150 1 6.28951 1.87655e-15 9.43447 -8.95029
151 1 9.43431 3.16827e-16 9.43422 -8.95012
152 1 12.5797 6.21782e-17 9.43418 -8.95053
153 1 15.7246 6.88665e-16 9.43434 -8.94946
154 1 18.8692 1.45608e-15 9.43449 -8.94961
155 1 -0.000144325 3.1446 9.43451 -8.94948
156 1 3.14455 3.14435 9.43474 -8.94963
157 1 6.28932 3.14293 9.43432 -8.95227
158 1 9.43421 3.14257 9.43369 -8.95035
159 1 12.5807 3.14183 9.43322 -8.95143
160 1 15.7251 3.14397 9.43406 -8.94933
161 1 18.8693 3.14458 9.43442 -8.94952
162 1 22.0134 6.28931 9.4346 -8.94973
163 1 3.14309 6.28841 9.43473 -8.95148
164 1 6.28416 6.28007 9.42893 -8.95366
165 1 9.43489 6.28201 9.43026 -8.95096
166 1 12.5912 6.27822 9.42332 -8.93003
177 1 4.717 1.57212 11.007 -8.94942
178 1 7.86193 1.57189 11.007 -8.94949
179 1 11.007 1.57101 11.0069 -8.95133
191 1 4.71421 7.86151 11.0097 -8.95262
181 1 17.297 1.5722 11.0069 -8.94958
182 1 20.4415 1.57232 11.0069 -8.94961
184 1 4.71692 4.71657 11.0077 -8.94906
185 1 7.86246 4.71568 11.007 -8.95153
186 1 11.0094 4.70975 11.0057 -8.95902
190 1 1.57106 7.86155 11.0076 -8.94964
19 1 6.28964 3.14455 0.000220565 -8.94954
49 1 18.869 9.43451 0.000106298 -8.94961
21 1 9.43456 3.14455 0.000238068 -8.94957
43 1 22.0136 9.43447 0.000223428 -8.94958
176 1 1.5722 1.57222 11.0069 -8.94958
343 1 18.869 9.43447 18.8694 -8.94957
342 1 15.7248 9.43455 18.8697 -8.94906
341 1 12.5797 9.43532 18.8698 -8.94906
340 1 9.43417 9.43461 18.8706 -8.95153
339 1 6.28725 9.43331 18.8766 -8.95902
338 1 3.14196 9.43346 18.8719 -8.9478
183 1 1.57185 4.71661 11.007 -8.94906
337 1 -0.00109689 9.43429 18.8697 -8.94933
336 1 20.4412 7.862 20.4417 -8.94952
335 1 18.869 6.28957 18.8693 -8.94978
334 1 17.2968 7.86208 20.4417 -8.94948
188 1 17.2977 4.71658 11.0067 -8.94933
189 1 20.4415 4.71693 11.0069 -8.94957
333 1 15.7249 6.28955 18.8697 -8.95028
332 1 14.1521 7.86232 20.442 -8.94963
331 1 12.5817 6.28759 18.8729 -8.94996
330 1 11.0073 7.8619 20.4434 -8.95227
329 1 9.43497 6.28782 18.8716 -8.94786
328 1 7.86243 7.86127 20.4438 -8.95035
327 1 6.28894 6.28768 18.8717 -8.94925
197 1 -9.24594e-05 1.76264e-15 12.5794 -8.94962
198 1 1.5722 1.57222 14.1518 -8.94958
199 1 3.1446 1.7691e-15 12.5794 -8.94968
200 1 4.717 1.57212 14.1517 -8.94942
201 1 6.28941 1.60977e-15 12.5794 -8.94929
202 1 7.86193 1.57189 14.1517 -8.94949
203 1 9.43428 8.73229e-16 12.5794 -8.94883
204 1 11.007 1.57101 14.1519 -8.95133
205 1 12.5799 -9.44448e-16 12.5794 -8.9502
206 1 14.1525 1.57158 14.152 -8.94939
207 1 15.7247 2.71059e-16 12.5794 -8.94953
208 1 17.297 1.5722 14.1519 -8.94958
209 1 18.8692 1.62592e-15 12.5794 -8.94962
210 1 20.4415 1.57232 14.1518 -8.94961
211 1 22.0137 3.14455 12.5794 -8.94961
212 1 1.57185 4.71661 14.1518 -8.94906
213 1 3.14438 3.14421 12.5794 -8.94966
214 1 4.71692 4.71657 14.151 -8.94906
215 1 6.28943 3.14457 12.5794 -8.94833
216 1 7.86246 4.71568 14.1517 -8.95153
217 1 9.43444 3.14383 12.5794 -8.94668
218 1 11.0094 4.70975 14.153 -8.95902
219 1 12.5811 3.14168 12.5794 -8.94948
220 1 14.1547 4.71439 14.1529 -8.9478
221 1 15.7252 3.14395 12.5794 -8.94952
222 1 17.2977 4.71658 14.152 -8.94933
223 1 18.8693 3.14457 12.5794 -8.94957
224 1 20.4415 4.71693 14.1519 -8.94957
225 1 -0.000557827 6.28906 12.5794 -8.94952
226 1 1.57106 7.86155 14.1511 -8.94964
227 1 3.14344 6.28813 12.5794 -8.94662
228 1 4.71421 7.86151 14.1491 -8.95262
229 1 6.29166 6.29179 12.5794 -8.94554
230 1 7.84798 7.85513 14.1739 -8.9055
231 1 9.43927 6.29271 12.5794 -9.00319
232 1 11.0469 7.82618 14.1848 -8.85381
233 1 12.5888 6.2807 12.5794 -8.9424
234 1 14.1612 7.85891 14.1541 -8.95808
235 1 15.7278 6.2879 12.5794 -8.94905
236 1 17.2987 7.86189 14.152 -8.95164
237 1 18.8698 6.28927 12.5794 -8.94989
238 1 20.4414 7.86187 14.1518 -8.94989
239 1 22.0134 9.4342 12.5794 -8.94793
240 1 3.14648 9.4348 12.5794 -8.94007
241 1 6.31086 9.44419 12.5794 -8.90125
242 1 9.51375 9.20385 12.5794 -8.11787
243 1 12.5879 9.4276 12.5794 -8.97299
244 1 15.7267 9.435 12.5794 -8.95128
245 1 18.8696 9.4346 12.5794 -8.94962
246 1 -8.31808e-05 1.95803e-15 15.7242 -8.94959
247 1 1.57228 1.57226 17.2966 -8.9497
248 1 3.14466 1.87289e-15 15.7242 -8.94955
249 1 4.71692 1.57172 17.2969 -8.95047
250 1 6.28951 1.63358e-15 15.7243 -8.95029
251 1 7.86187 1.57172 17.2972 -8.94958
252 1 9.43431 9.49799e-16 15.7245 -8.95012
253 1 11.007 1.57171 17.2971 -8.94961
254 1 12.5797 -2.56154e-17 15.7246 -8.95053
255 1 14.1524 1.57162 17.2973 -8.94994
256 1 15.7246 9.2148e-16 15.7244 -8.94946
257 1 17.2969 1.57222 17.2968 -8.94959
258 1 18.8692 1.42932e-15 15.7243 -8.94961
259 1 20.4415 1.57234 17.2967 -8.94958
260 1 -0.000144325 3.1446 15.7242 -8.94948
261 1 1.57172 4.71659 17.2968 -8.95028
262 1 3.14455 3.14435 15.724 -8.94963
263 1 4.71498 4.71345 17.2987 -8.94996
264 1 6.28932 3.14293 15.7244 -8.95227
265 1 7.86166 4.7147 17.2985 -8.94786
266 1 9.43421 3.14257 15.7251 -8.95035
267 1 11.0077 4.71459 17.2986 -8.94925
268 1 12.5807 3.14183 15.7255 -8.95143
269 1 14.1552 4.71397 17.3001 -8.94468
270 1 15.7251 3.14397 15.7247 -8.94933
271 1 17.2977 4.71663 17.2973 -8.94966
272 1 18.8693 3.14458 15.7243 -8.94952
273 1 20.4415 4.71702 17.2968 -8.94978
274 1 22.0134 6.28931 15.7241 -8.94973
275 1 1.56894 7.86044 17.2982 -8.95081
276 1 3.14309 6.28841 15.724 -8.95148
277 1 4.70546 7.85089 17.3081 -8.93003
278 1 6.28416 6.28007 15.7298 -8.95366
279 1 7.86174 7.85784 17.3043 -8.95096
280 1 9.43489 6.28201 15.7285 -8.95096
281 1 11.0125 7.8565 17.3063 -8.95366
282 1 12.5912 6.27822 15.7354 -8.93003
283 1 14.1535 7.86231 17.2979 -8.95148
284 1 15.7277 6.28809 15.7259 -8.95081
285 1 17.2972 7.86218 17.297 -8.94973
286 1 18.8697 6.28939 15.7245 -8.95012
287 1 20.4408 7.86186 17.2969 -8.95012
288 1 22.0118 9.43429 15.7244 -8.95164
289 1 3.13541 9.43221 15.7274 -8.95808
290 1 6.24975 9.40152 15.7601 -8.85381
291 1 9.44866 9.41239 15.7312 -8.9055
292 1 12.5824 9.43727 15.7248 -8.95262
293 1 15.7256 9.4352 15.7248 -8.94964
294 1 18.8691 9.43456 15.7245 -8.94989
295 1 22.0139 1.24067e-15 18.8691 -8.94969
296 1 1.57217 1.57215 20.4417 -8.94951
297 1 3.14459 1.23077e-15 18.8693 -8.94992
298 1 4.71716 1.57219 20.4417 -8.94953
299 1 6.28954 1.37516e-15 18.8694 -8.94952
300 1 7.86208 1.57218 20.4418 -8.94957
301 1 9.4345 7.68336e-16 18.8694 -8.94957
302 1 11.007 1.5722 20.4418 -8.94954
303 1 12.5795 5.79953e-16 18.8694 -8.9496
304 1 14.1519 1.57222 20.4418 -8.94969
305 1 15.7246 1.45885e-15 18.8694 -8.94956
306 1 17.2969 1.57227 20.4417 -8.94929
307 1 18.8692 1.69464e-15 18.8691 -8.94963
308 1 20.4415 1.57233 20.4416 -8.94963
309 1 22.0137 3.14459 18.8692 -8.94981
310 1 1.5715 4.71634 20.4423 -8.94835
311 1 3.14405 3.14365 18.8698 -8.94946
312 1 4.71692 4.71646 20.4423 -8.94971
313 1 6.28946 3.14393 18.8697 -8.94919
314 1 7.86209 4.71651 20.4424 -8.94942
315 1 9.43454 3.14397 18.8698 -8.94942
316 1 11.0072 4.7166 20.4424 -8.94919
317 1 12.5797 3.144 18.8699 -8.94971
318 1 14.1526 4.71653 20.4427 -8.94946
319 1 15.7251 3.14402 18.87 -8.94835
320 1 17.2968 4.71716 20.4417 -8.94981
321 1 18.8693 3.14463 18.8693 -8.94957
322 1 20.4412 4.71705 20.4417 -8.94957
323 1 22.0128 6.28902 18.8697 -8.94966
324 1 1.5715 7.86164 20.4423 -8.94933
325 1 3.14142 6.28627 18.8723 -8.94468
326 1 4.71595 7.86079 20.4445 -8.95143
7 1 9.43454 -9.71463e-16 22.014 -8.94961
48 1 15.7244 9.43451 22.0141 -8.94958
44 1 3.14411 9.43427 22.0147 -8.94939
33 1 6.28966 6.28917 22.0146 -8.94961
35 1 9.43476 6.28916 22.0146 -8.94958
3 1 3.14479 -4.1199e-16 22.014 -8.94961
11 1 15.7243 3.49778e-16 22.014 -8.94967
17 1 3.1447 3.14457 22.0141 -8.94969
23 1 12.5795 3.14461 22.0141 -8.94953
29 1 -0.000297371 6.28951 22.0141 -8.94959
180 1 14.1525 1.57158 11.0067 -8.94939
187 1 14.1547 4.71439 11.0059 -8.9478
344 1 1.57198 11.007 1.57242 -8.94953
345 1 4.71676 11.007 1.57242 -8.9502
346 1 7.86235 11.007 1.57242 -8.94883
347 1 11.0072 11.007 1.57242 -8.94929
348 1 14.152 11.007 1.57242 -8.94968
349 1 17.2967 11.007 1.57242 -8.94962
350 1 20.4414 11.007 1.57242 -8.94962
511 1 18.8693 18.8693 9.43442 -8.94952
352 1 1.57202 14.152 1.57242 -8.94946
510 1 15.7251 18.8699 9.43406 -8.94933
354 1 4.71697 14.1521 1.57242 -8.95053
355 1 6.28962 12.5795 0.00141417 -8.95133
356 1 7.86232 14.1521 1.57242 -8.95012
357 1 9.43471 12.5793 0.000535615 -8.94949
358 1 11.0071 14.1519 1.57242 -8.95029
359 1 12.5796 12.5793 0.000297891 -8.94942
360 1 14.152 14.1518 1.57242 -8.94955
509 1 12.5807 18.8721 9.43322 -8.95143
362 1 17.2967 14.1518 1.57242 -8.94959
508 1 9.43421 18.8713 9.43369 -8.95035
364 1 20.4414 14.1518 1.57242 -8.94961
539 1 20.4415 20.4416 11.0069 -8.94961
366 1 1.57207 17.297 1.57242 -8.94956
367 1 3.14422 15.7249 0.0007992 -8.94994
368 1 4.71717 17.297 1.57242 -8.9496
507 1 6.28932 18.871 9.43432 -8.95227
370 1 7.86214 17.297 1.57242 -8.94957
506 1 3.14455 18.8695 9.43474 -8.94963
372 1 11.0071 17.297 1.57242 -8.94952
373 1 12.5797 15.7245 0.000705818 -8.95047
374 1 14.152 17.2969 1.57242 -8.94992
375 1 15.7244 15.7242 0.000157846 -8.9497
376 1 17.2967 17.2967 1.57242 -8.94969
377 1 18.869 15.7243 8.49782e-05 -8.94958
378 1 20.4414 17.2967 1.57242 -8.94963
379 1 22.0137 18.8693 0.000154021 -8.94929
380 1 1.57235 20.4416 1.57242 -8.94967
538 1 17.297 20.4417 11.0069 -8.94958
382 1 4.71723 20.4416 1.57242 -8.94959
505 1 -0.000144325 18.8693 9.43451 -8.94948
384 1 7.8621 20.4416 1.57242 -8.94961
504 1 18.8697 15.7245 9.43428 -8.95012
386 1 11.007 20.4416 1.57242 -8.9496
536 1 11.007 20.4429 11.0069 -8.95133
388 1 14.1518 20.4416 1.57242 -8.94961
389 1 15.7245 18.8693 0.000271828 -8.94951
390 1 17.2967 20.4416 1.57242 -8.94952
391 1 18.8691 18.8691 8.93417e-05 -8.94963
392 1 20.4414 20.4415 1.57242 -8.94946
393 1 1.57145 11.007 4.71637 -8.94952
394 1 4.71552 11.007 4.7141 -8.94948
395 1 7.8622 11.007 4.71625 -8.94668
396 1 11.0072 11.007 4.71699 -8.94833
397 1 14.1523 11.007 4.71663 -8.94966
398 1 17.2968 11.007 4.71697 -8.94961
399 1 20.4412 11.007 4.71699 -8.94957
400 1 22.0136 12.5794 3.14462 -8.94958
401 1 1.5715 14.1523 4.7164 -8.94933
402 1 3.14411 12.5796 3.144 -8.94939
403 1 4.71595 14.1531 4.71425 -8.95143
404 1 6.28962 12.5795 3.14343 -8.95133
405 1 7.86243 14.1526 4.71499 -8.95035
406 1 9.43471 12.5793 3.14431 -8.94949
407 1 11.0073 14.152 4.71536 -8.95227
408 1 12.5796 12.5793 3.14455 -8.94942
409 1 14.1521 14.1516 4.71677 -8.94963
410 1 15.7244 12.5794 3.14464 -8.94958
411 1 17.2968 14.1518 4.71702 -8.94948
412 1 18.869 12.5794 3.14474 -8.94961
413 1 20.4412 14.1519 4.71701 -8.94952
414 1 -0.000297371 15.7244 3.14464 -8.94959
415 1 1.5715 17.2976 4.71644 -8.94835
416 1 3.14422 15.7249 3.14404 -8.94994
417 1 4.71692 17.2974 4.71642 -8.94971
418 1 6.28966 15.7247 3.14413 -8.94961
419 1 7.86209 17.2974 4.71639 -8.94942
420 1 9.43476 15.7247 3.14414 -8.94958
421 1 11.0072 17.2973 4.71635 -8.94919
422 1 12.5797 15.7245 3.14414 -8.95047
423 1 14.1526 17.2974 4.71607 -8.94946
424 1 15.7244 15.7242 3.14469 -8.9497
425 1 17.2968 17.2967 4.71701 -8.94981
426 1 18.869 15.7243 3.14476 -8.94958
427 1 20.4412 17.2969 4.71705 -8.94957
428 1 22.0137 18.8693 3.14469 -8.94929
429 1 1.57217 20.4418 4.71702 -8.94951
430 1 3.1447 18.8693 3.14464 -8.94969
431 1 4.71716 20.4417 4.71703 -8.94953
432 1 6.28964 18.8693 3.14462 -8.94954
433 1 7.86208 20.4417 4.71697 -8.94957
434 1 9.43456 18.8694 3.1446 -8.94957
435 1 11.007 20.4417 4.71698 -8.94954
436 1 12.5795 18.8693 3.14461 -8.94953
437 1 14.1519 20.4417 4.71699 -8.94969
438 1 15.7245 18.8693 3.14457 -8.94951
439 1 17.2969 20.4416 4.71703 -8.94929
440 1 18.8691 18.8691 3.14475 -8.94963
441 1 20.4415 20.4416 4.71719 -8.94963
442 1 1.56888 11.007 7.86032 -8.94905
443 1 4.70788 11.007 7.85312 -8.9424
444 1 7.85737 11.007 7.86513 -9.00319
445 1 11.005 11.007 7.86421 -8.94554
446 1 14.1532 11.007 7.86055 -8.94662
447 1 17.2972 11.007 7.86148 -8.94952
448 1 20.4407 11.007 7.86169 -8.94989
449 1 -0.00109689 12.5796 6.289 -8.94933
450 1 1.56894 14.1535 7.86051 -8.95081
451 1 3.14196 12.5804 6.28681 -8.9478
452 1 4.70546 14.163 7.85064 -8.93003
453 1 6.28725 12.5806 6.28218 -8.95902
454 1 7.86174 14.1561 7.85443 -8.95096
455 1 9.43417 12.5793 6.2881 -8.95153
456 1 11.0125 14.1574 7.85249 -8.95366
457 1 12.5797 12.5786 6.28899 -8.94906
458 1 14.1535 14.1516 7.86083 -8.95148
459 1 15.7248 12.5793 6.28904 -8.94906
460 1 17.2972 14.1517 7.86174 -8.94973
461 1 18.869 12.5794 6.28936 -8.94957
462 1 20.4408 14.152 7.86181 -8.95012
463 1 22.0128 15.7249 6.28905 -8.94966
464 1 1.57172 17.2973 7.86197 -8.95028
465 1 3.14142 15.7276 6.2864 -8.94468
466 1 4.71498 17.3004 7.86001 -8.94996
467 1 6.28894 15.7262 6.28701 -8.94925
468 1 7.86166 17.2992 7.86024 -8.94786
469 1 9.43497 15.7261 6.28712 -8.94786
470 1 11.0077 17.2993 7.8601 -8.94925
471 1 12.5817 15.7263 6.28588 -8.94996
472 1 14.1552 17.2999 7.85869 -8.94468
473 1 15.7249 15.7244 6.28901 -8.95028
474 1 17.2977 17.2973 7.86144 -8.94966
475 1 18.869 15.7243 6.28945 -8.94978
476 1 20.4415 17.2969 7.86199 -8.94978
477 1 22.0137 18.8693 6.28958 -8.94981
478 1 1.57228 20.4416 7.86212 -8.9497
479 1 3.14405 18.8703 6.28895 -8.94946
480 1 4.71692 20.4422 7.86184 -8.95047
481 1 6.28946 18.87 6.28903 -8.94919
482 1 7.86187 20.4422 7.86159 -8.94958
483 1 9.43454 18.8699 6.28893 -8.94942
484 1 11.007 20.4422 7.86159 -8.94961
485 1 12.5797 18.8699 6.28888 -8.94971
486 1 14.1524 20.4423 7.86145 -8.94994
487 1 15.7251 18.8699 6.28876 -8.94835
488 1 17.2969 20.4417 7.86193 -8.94959
489 1 18.8693 18.8693 6.28947 -8.94957
490 1 20.4415 20.4416 7.86207 -8.94958
491 1 22.0118 12.5796 9.43431 -8.95164
492 1 3.13541 12.5817 9.43133 -8.95808
493 1 6.24975 12.6124 9.3986 -8.85381
494 1 9.44866 12.6015 9.42755 -8.9055
495 1 12.5824 12.5766 9.43393 -8.95262
496 1 15.7256 12.5787 9.43397 -8.94964
497 1 18.8691 12.5793 9.43429 -8.94989
498 1 22.0134 15.7246 9.4346 -8.94973
499 1 3.14309 15.7255 9.43473 -8.95148
500 1 6.28416 15.7338 9.42893 -8.95366
501 1 9.43489 15.7319 9.43026 -8.95096
502 1 12.5912 15.7357 9.42332 -8.93003
503 1 15.7277 15.7258 9.43286 -8.95081
512 1 1.5699 11.007 11.0074 -8.95128
513 1 4.7087 11.007 11 -8.97299
514 1 7.78288 11.007 10.7763 -8.11787
515 1 10.9858 11.007 11.0166 -8.90125
516 1 14.1502 11.007 11.0072 -8.94007
517 1 17.2972 11.007 11.0066 -8.94793
518 1 20.441 11.007 11.007 -8.94962
519 1 1.57106 14.1524 11.0076 -8.94964
520 1 4.71421 14.1524 11.0097 -8.95262
521 1 7.84798 14.1588 10.9848 -8.9055
522 1 11.0469 14.1877 10.9739 -8.85381
523 1 14.1612 14.155 11.0046 -8.95808
524 1 17.2987 14.152 11.0067 -8.95164
525 1 20.4414 14.152 11.007 -8.94989
527 1 4.71692 17.2973 11.0077 -8.94906
528 1 7.86246 17.2982 11.007 -8.95153
529 1 11.0094 17.3041 11.0057 -8.95902
535 1 7.86193 20.442 11.007 -8.94949
534 1 4.717 20.4418 11.007 -8.94942
351 1 22.0136 12.5794 0.000223428 -8.94958
385 1 9.43456 18.8694 0.000238068 -8.94957
383 1 6.28964 18.8693 0.000220565 -8.94954
363 1 18.869 12.5794 0.000106298 -8.94961
687 3 8.64832 11.007 12.5794 2.30837
686 1 20.4415 20.4416 20.4416 -8.94963
685 1 18.8693 18.8693 18.8693 -8.94957
684 1 17.2969 20.4416 20.4417 -8.94929
683 1 15.7251 18.8699 18.87 -8.94835
682 1 14.1519 20.4417 20.4418 -8.94969
681 1 12.5797 18.8699 18.8699 -8.94971
680 1 11.007 20.4417 20.4418 -8.94954
679 1 9.43454 18.8699 18.8698 -8.94942
678 1 7.86208 20.4417 20.4418 -8.94957
677 1 6.28946 18.87 18.8697 -8.94919
676 1 4.71716 20.4417 20.4417 -8.94953
675 1 3.14405 18.8703 18.8698 -8.94946
674 1 1.57217 20.4418 20.4417 -8.94951
526 1 1.57185 17.2973 11.007 -8.94906
673 1 22.0137 18.8693 18.8692 -8.94981
672 1 20.4412 17.2969 20.4417 -8.94957
671 1 18.869 15.7243 18.8693 -8.94978
670 1 17.2968 17.2967 20.4417 -8.94981
531 1 17.2977 17.2973 11.0067 -8.94933
532 1 20.4415 17.297 11.0069 -8.94957
533 1 1.5722 20.4417 11.0069 -8.94958
669 1 15.7249 15.7244 18.8697 -8.95028
668 1 14.1526 17.2974 20.4427 -8.94946
667 1 12.5817 15.7263 18.8729 -8.94996
666 1 11.0072 17.2973 20.4424 -8.94919
665 1 9.43497 15.7261 18.8716 -8.94786
664 1 7.86209 17.2974 20.4424 -8.94942
540 1 1.5699 11.007 14.1513 -8.95128
541 1 4.7087 11.007 14.1587 -8.97299
542 1 7.78288 11.007 14.3825 -8.11787
543 1 10.9858 11.007 14.1421 -8.90125
544 1 14.1502 11.007 14.1515 -8.94007
545 1 17.2972 11.007 14.1521 -8.94793
546 1 20.441 11.007 14.1517 -8.94962
547 1 22.0134 12.5797 12.5794 -8.94793
548 1 1.57106 14.1524 14.1511 -8.94964
549 1 3.14648 12.5791 12.5794 -8.94007
550 1 4.71421 14.1524 14.1491 -8.95262
551 1 6.31086 12.5697 12.5794 -8.90125
552 1 7.84798 14.1588 14.1739 -8.9055
553 1 9.51375 12.81 12.5794 -8.11787
554 1 11.0469 14.1877 14.1848 -8.85381
555 1 12.5879 12.5863 12.5794 -8.97299
556 1 14.1612 14.155 14.1541 -8.95808
557 1 15.7267 12.5789 12.5794 -8.95128
558 1 17.2987 14.152 14.152 -8.95164
559 1 18.8696 12.5793 12.5794 -8.94962
560 1 20.4414 14.152 14.1518 -8.94989
561 1 -0.000557827 15.7248 12.5794 -8.94952
562 1 1.57185 17.2973 14.1518 -8.94906
563 1 3.14344 15.7258 12.5794 -8.94662
564 1 4.71692 17.2973 14.151 -8.94906
565 1 6.29166 15.7221 12.5794 -8.94554
566 1 7.86246 17.2982 14.1517 -8.95153
567 1 9.43927 15.7212 12.5794 -9.00319
568 1 11.0094 17.3041 14.153 -8.95902
569 1 12.5888 15.7332 12.5794 -8.9424
570 1 14.1547 17.2995 14.1529 -8.9478
571 1 15.7278 15.726 12.5794 -8.94905
572 1 17.2977 17.2973 14.152 -8.94933
573 1 18.8698 15.7246 12.5794 -8.94989
574 1 20.4415 17.297 14.1519 -8.94957
575 1 22.0137 18.8693 12.5794 -8.94961
576 1 1.5722 20.4417 14.1518 -8.94958
577 1 3.14438 18.8697 12.5794 -8.94966
578 1 4.717 20.4418 14.1517 -8.94942
579 1 6.28943 18.8693 12.5794 -8.94833
580 1 7.86193 20.442 14.1517 -8.94949
581 1 9.43444 18.8701 12.5794 -8.94668
582 1 11.007 20.4429 14.1519 -8.95133
583 1 12.5811 18.8722 12.5794 -8.94948
584 1 14.1525 20.4423 14.152 -8.94939
585 1 15.7252 18.87 12.5794 -8.94952
586 1 17.297 20.4417 14.1519 -8.94958
587 1 18.8693 18.8693 12.5794 -8.94957
588 1 20.4415 20.4416 14.1518 -8.94961
589 1 1.56888 11.007 17.2984 -8.94905
590 1 4.70788 11.007 17.3056 -8.9424
591 1 7.85737 11.007 17.2936 -9.00319
592 1 11.005 11.007 17.2945 -8.94554
593 1 14.1532 11.007 17.2982 -8.94662
594 1 17.2972 11.007 17.2973 -8.94952
595 1 20.4407 11.007 17.2971 -8.94989
596 1 22.0118 12.5796 15.7244 -8.95164
597 1 1.56894 14.1535 17.2982 -8.95081
598 1 3.13541 12.5817 15.7274 -8.95808
599 1 4.70546 14.163 17.3081 -8.93003
600 1 6.24975 12.6124 15.7601 -8.85381
601 1 7.86174 14.1561 17.3043 -8.95096
602 1 9.44866 12.6015 15.7312 -8.9055
603 1 11.0125 14.1574 17.3063 -8.95366
604 1 12.5824 12.5766 15.7248 -8.95262
605 1 14.1535 14.1516 17.2979 -8.95148
606 1 15.7256 12.5787 15.7248 -8.94964
607 1 17.2972 14.1517 17.297 -8.94973
608 1 18.8691 12.5793 15.7245 -8.94989
609 1 20.4408 14.152 17.2969 -8.95012
610 1 22.0134 15.7246 15.7241 -8.94973
611 1 1.57172 17.2973 17.2968 -8.95028
612 1 3.14309 15.7255 15.724 -8.95148
613 1 4.71498 17.3004 17.2987 -8.94996
614 1 6.28416 15.7338 15.7298 -8.95366
615 1 7.86166 17.2992 17.2985 -8.94786
616 1 9.43489 15.7319 15.7285 -8.95096
617 1 11.0077 17.2993 17.2986 -8.94925
618 1 12.5912 15.7357 15.7354 -8.93003
619 1 14.1552 17.2999 17.3001 -8.94468
620 1 15.7277 15.7258 15.7259 -8.95081
621 1 17.2977 17.2973 17.2973 -8.94966
622 1 18.8697 15.7245 15.7245 -8.95012
623 1 20.4415 17.2969 17.2968 -8.94978
624 1 -0.000144325 18.8693 15.7242 -8.94948
625 1 1.57228 20.4416 17.2966 -8.9497
626 1 3.14455 18.8695 15.724 -8.94963
627 1 4.71692 20.4422 17.2969 -8.95047
628 1 6.28932 18.871 15.7244 -8.95227
629 1 7.86187 20.4422 17.2972 -8.94958
630 1 9.43421 18.8713 15.7251 -8.95035
631 1 11.007 20.4422 17.2971 -8.94961
632 1 12.5807 18.8721 15.7255 -8.95143
633 1 14.1524 20.4423 17.2973 -8.94994
634 1 15.7251 18.8699 15.7247 -8.94933
635 1 17.2969 20.4417 17.2968 -8.94959
636 1 18.8693 18.8693 15.7243 -8.94952
637 1 20.4415 20.4416 17.2967 -8.94958
638 1 1.57145 11.007 20.4424 -8.94952
639 1 4.71552 11.007 20.4446 -8.94948
640 1 7.8622 11.007 20.4425 -8.94668
641 1 11.0072 11.007 20.4418 -8.94833
642 1 14.1523 11.007 20.4421 -8.94966
643 1 17.2968 11.007 20.4418 -8.94961
644 1 20.4412 11.007 20.4418 -8.94957
645 1 -0.00109689 12.5796 18.8697 -8.94933
646 1 1.5715 14.1523 20.4423 -8.94933
647 1 3.14196 12.5804 18.8719 -8.9478
648 1 4.71595 14.1531 20.4445 -8.95143
649 1 6.28725 12.5806 18.8766 -8.95902
650 1 7.86243 14.1526 20.4438 -8.95035
651 1 9.43417 12.5793 18.8706 -8.95153
652 1 11.0073 14.152 20.4434 -8.95227
653 1 12.5797 12.5786 18.8698 -8.94906
654 1 14.1521 14.1516 20.442 -8.94963
655 1 15.7248 12.5793 18.8697 -8.94906
656 1 17.2968 14.1518 20.4417 -8.94948
657 1 18.869 12.5794 18.8694 -8.94957
658 1 20.4412 14.1519 20.4417 -8.94952
659 1 22.0128 15.7249 18.8697 -8.94966
660 1 1.5715 17.2976 20.4423 -8.94835
661 1 3.14142 15.7276 18.8723 -8.94468
662 1 4.71692 17.2974 20.4423 -8.94971
663 1 6.28894 15.7262 18.8717 -8.94925
371 1 9.43476 15.7247 22.0146 -8.94958
353 1 3.14411 12.5796 22.0147 -8.94939
361 1 15.7244 12.5794 22.0141 -8.94958
369 1 6.28966 15.7247 22.0146 -8.94961
365 1 -0.000297371 15.7244 22.0141 -8.94959
381 1 3.1447 18.8693 22.0141 -8.94969
387 1 12.5795 18.8693 22.0141 -8.94953
537 1 14.1525 20.4423 11.0067 -8.94939
530 1 14.1547 17.2995 11.0059 -8.9478
