ITEM: TIMESTEP
37
ITEM: NUMBER OF ATOMS
687
ITEM: BOX BOUNDS pp pp pp
0.0000000000000000e+00 2.2013900999999997e+01
0.0000000000000000e+00 2.2013900999999997e+01
0.0000000000000000e+00 2.2013900999999997e+01
ITEM: ATOMS id type x y z c_pot
1 1 22.0139 -2.84502e-16 1.16285e-11 -8.94963
2 1 1.57242 1.57242 1.57242 -8.94963
196 1 20.4415 7.86211 11.007 -8.94963
4 1 4.71726 1.57242 1.57242 -8.94963
5 1 6.28969 9.09264e-17 1.43342e-10 -8.94963
6 1 7.86211 1.57242 1.57242 -8.94963
175 1 18.8691 9.43453 9.43453 -8.94963
8 1 11.007 1.57242 1.57242 -8.94963
9 1 12.5794 3.51387e-16 1.76277e-10 -8.94963
10 1 14.1518 1.57242 1.57242 -8.94963
195 1 17.2966 7.86211 11.007 -8.94964
12 1 17.2966 1.57242 1.57242 -8.94963
13 1 18.8691 2.49248e-16 3.90228e-12 -8.94963
14 1 20.4415 1.57242 1.57242 -8.94963
15 1 22.0139 3.14484 1.95224e-10 -8.94963
16 1 1.57242 4.71726 1.57242 -8.94963
194 1 14.1518 7.8621 11.0069 -8.94995
18 1 4.71726 4.71726 1.57242 -8.94963
174 1 15.7242 9.43453 9.43453 -8.94964
20 1 7.86211 4.71726 1.57242 -8.94963
173 1 12.5794 9.43447 9.43448 -8.94923
22 1 11.007 4.71726 1.57242 -8.94963
193 1 11.0087 7.86039 11.0051 -8.92174
24 1 14.1518 4.71726 1.57242 -8.94963
25 1 15.7242 3.14484 5.50042e-10 -8.94963
26 1 17.2966 4.71726 1.57242 -8.94963
27 1 18.8691 3.14484 1.47073e-15 -8.94963
28 1 20.4415 4.71726 1.57242 -8.94963
192 1 7.86146 7.86167 11.0063 -8.94127
30 1 1.57242 7.86211 1.57242 -8.94963
31 1 3.14484 6.28969 3.86177e-08 -8.94963
32 1 4.71726 7.86211 1.57242 -8.94963
172 1 9.43517 9.43384 9.4341 -8.94127
34 1 7.86211 7.86211 1.57242 -8.94963
171 1 6.28789 9.43272 9.43282 -8.92174
36 1 11.007 7.86211 1.57242 -8.94963
37 1 12.5794 6.28969 3.3452e-08 -8.94963
38 1 14.1518 7.86211 1.57242 -8.94963
39 1 15.7242 6.28969 -2.72474e-10 -8.94963
40 1 17.2966 7.86211 1.57242 -8.94963
41 1 18.8691 6.28969 -2.06579e-11 -8.94963
42 1 20.4415 7.86211 1.57242 -8.94963
170 1 3.1448 9.43452 9.43452 -8.94995
169 1 22.0139 9.43453 9.43453 -8.94964
45 1 6.28969 9.43453 1.17128e-06 -8.94964
46 1 9.43453 9.43453 8.27376e-07 -8.94963
47 1 12.5794 9.43453 -9.59143e-09 -8.94963
168 1 18.8691 6.28969 9.43453 -8.94963
167 1 15.7242 6.28969 9.43453 -8.94964
50 1 22.0139 -3.20934e-16 3.14484 -8.94963
51 1 1.57242 1.57242 4.71726 -8.94963
52 1 3.14484 9.75876e-17 3.14484 -8.94963
53 1 4.71726 1.57242 4.71726 -8.94963
54 1 6.28969 1.15742e-16 3.14484 -8.94963
55 1 7.86211 1.57242 4.71726 -8.94963
56 1 9.43453 1.81573e-16 3.14484 -8.94963
57 1 11.007 1.57242 4.71726 -8.94963
58 1 12.5794 3.17086e-16 3.14484 -8.94963
59 1 14.1518 1.57242 4.71726 -8.94963
60 1 15.7242 2.8726e-16 3.14484 -8.94963
61 1 17.2966 1.57242 4.71726 -8.94963
62 1 18.8691 2.61348e-16 3.14484 -8.94963
63 1 20.4415 1.57242 4.71726 -8.94963
64 1 22.0139 3.14484 3.14484 -8.94963
65 1 1.57242 4.71726 4.71726 -8.94963
66 1 3.14484 3.14484 3.14484 -8.94963
67 1 4.71726 4.71726 4.71726 -8.94963
68 1 6.28969 3.14484 3.14484 -8.94963
69 1 7.86211 4.71726 4.71726 -8.94963
70 1 9.43453 3.14484 3.14484 -8.94963
71 1 11.007 4.71726 4.71726 -8.94963
72 1 12.5794 3.14484 3.14484 -8.94963
73 1 14.1518 4.71726 4.71726 -8.94963
74 1 15.7242 3.14484 3.14484 -8.94963
75 1 17.2966 4.71726 4.71726 -8.94963
76 1 18.8691 3.14484 3.14484 -8.94963
77 1 20.4415 4.71726 4.71726 -8.94963
78 1 1.29217e-09 6.28969 3.14484 -8.94963
79 1 1.57242 7.86211 4.71726 -8.94963
80 1 3.14484 6.28969 3.14484 -8.94963
81 1 4.71726 7.86211 4.71726 -8.94963
82 1 6.28969 6.28969 3.14484 -8.94963
83 1 7.86211 7.86211 4.71727 -8.94964
84 1 9.43453 6.28969 3.14484 -8.94963
85 1 11.007 7.86211 4.71726 -8.94963
86 1 12.5794 6.28969 3.14484 -8.94963
87 1 14.1518 7.86211 4.71726 -8.94963
88 1 15.7242 6.28969 3.14484 -8.94963
89 1 17.2966 7.86211 4.71726 -8.94963
90 1 18.8691 6.28969 3.14484 -8.94963
91 1 20.4415 7.86211 4.71726 -8.94963
92 1 22.0139 9.43453 3.14484 -8.94963
93 1 3.14484 9.43453 3.14484 -8.94963
94 1 6.28969 9.43453 3.14484 -8.94964
95 1 9.43453 9.43453 3.14484 -8.94963
96 1 12.5794 9.43453 3.14484 -8.94963
97 1 15.7242 9.43453 3.14484 -8.94963
98 1 18.8691 9.43453 3.14484 -8.94963
99 1 22.0139 2.81778e-16 6.28969 -8.94963
100 1 1.57242 1.57242 7.86211 -8.94963
101 1 3.14484 -1.4208e-17 6.28969 -8.94963
102 1 4.71726 1.57242 7.86211 -8.94963
103 1 6.28969 1.22184e-16 6.28969 -8.94963
104 1 7.86211 1.57242 7.86211 -8.94963
105 1 9.43453 -1.09014e-16 6.28969 -8.94963
106 1 11.007 1.57242 7.86211 -8.94963
107 1 12.5794 5.77349e-17 6.28969 -8.94963
108 1 14.1518 1.57242 7.86211 -8.94963
109 1 15.7242 6.68548e-16 6.28969 -8.94963
110 1 17.2966 1.57242 7.86211 -8.94963
111 1 18.8691 3.4197e-16 6.28969 -8.94963
112 1 20.4415 1.57242 7.86211 -8.94963
113 1 22.0139 3.14484 6.28969 -8.94963
114 1 1.57242 4.71726 7.86211 -8.94963
115 1 3.14484 3.14484 6.28969 -8.94963
116 1 4.71726 4.71726 7.86211 -8.94963
117 1 6.28969 3.14484 6.28969 -8.94963
118 1 7.86211 4.71727 7.86211 -8.94965
119 1 9.43453 3.14484 6.28969 -8.94963
120 1 11.0069 4.71727 7.86211 -8.9497
121 1 12.5794 3.14484 6.28969 -8.94963
122 1 14.1518 4.71726 7.86211 -8.94961
123 1 15.7242 3.14484 6.28969 -8.94963
124 1 17.2966 4.71726 7.86211 -8.94963
125 1 18.8691 3.14484 6.28969 -8.94963
126 1 20.4415 4.71726 7.86211 -8.94963
127 1 22.0139 6.28969 6.28969 -8.94963
128 1 1.57242 7.86211 7.86211 -8.94964
129 1 3.14484 6.28969 6.28969 -8.94961
130 1 4.71722 7.86206 7.86206 -8.94882
131 1 6.28969 6.28969 6.28969 -8.9497
132 1 7.86212 7.86215 7.86214 -8.95087
133 1 9.43453 6.28969 6.28969 -8.94965
134 1 11.007 7.86209 7.86206 -8.94986
135 1 12.5794 6.28969 6.28968 -8.94963
136 1 14.1518 7.86211 7.86211 -8.94966
137 1 15.7242 6.28969 6.28969 -8.94963
138 1 17.2966 7.86211 7.86211 -8.94963
139 1 18.8691 6.28969 6.28969 -8.94963
140 1 20.4415 7.86211 7.86211 -8.94963
141 1 4.82366e-08 9.43453 6.28969 -8.94963
142 1 3.14485 9.43453 6.28969 -8.9497
143 1 6.28966 9.4345 6.28963 -8.94972
144 1 9.43455 9.4345 6.28965 -8.94938
145 1 12.5794 9.43453 6.28968 -8.94966
146 1 15.7242 9.43453 6.28969 -8.94964
147 1 18.8691 9.43453 6.28969 -8.94963
148 1 5.30157e-11 6.14005e-16 9.43453 -8.94963
149 1 3.14484 5.70674e-16 9.43453 -8.94963
150 1 6.28969 5.6696e-16 9.43453 -8.94963
151 1 9.43453 9.57263e-17 9.43453 -8.94963
152 1 12.5794 -1.80496e-16 9.43453 -8.94963
153 1 15.7242 1.54952e-16 9.43453 -8.94963
154 1 18.8691 4.49539e-16 9.43453 -8.94963
155 1 1.2649e-09 3.14484 9.43453 -8.94963
156 1 3.14484 3.14484 9.43453 -8.94963
157 1 6.28969 3.14484 9.43453 -8.94963
158 1 9.43453 3.14484 9.43453 -8.94964
159 1 12.5794 3.14484 9.43453 -8.94963
160 1 15.7242 3.14484 9.43453 -8.94963
161 1 18.8691 3.14484 9.43453 -8.94963
162 1 22.0139 6.28969 9.43453 -8.94963
163 1 3.14484 6.28969 9.43453 -8.94966
164 1 6.28967 6.28964 9.43451 -8.94986
165 1 9.43452 6.28972 9.43458 -8.95087
166 1 12.5794 6.28964 9.43448 -8.94882
177 1 4.71726 1.57242 11.007 -8.94963
178 1 7.86211 1.57242 11.007 -8.94963
179 1 11.007 1.57242 11.007 -8.94964
191 1 4.71721 7.86206 11.0069 -8.94923
181 1 17.2966 1.57242 11.007 -8.94963
182 1 20.4415 1.57242 11.007 -8.94963
184 1 4.71726 4.71726 11.007 -8.94966
185 1 7.86208 4.71723 11.0069 -8.94938
186 1 11.007 4.71721 11.0069 -8.94972
190 1 1.57242 7.86211 11.0069 -8.94964
19 1 6.28969 3.14484 3.64041e-09 -8.94963
49 1 18.8691 9.43453 2.99092e-10 -8.94963
21 1 9.43453 3.14484 2.62841e-09 -8.94963
43 1 22.0139 9.43453 4.38986e-09 -8.94963
176 1 1.57242 1.57242 11.007 -8.94963
343 1 18.8691 9.43453 18.8691 -8.94963
342 1 15.7242 9.43453 18.8691 -8.94964
341 1 12.5794 9.43453 18.8691 -8.94966
340 1 9.43455 9.4345 18.8691 -8.94938
339 1 6.28966 9.4345 18.8691 -8.94972
338 1 3.14485 9.43453 18.8691 -8.9497
183 1 1.57242 4.71726 11.007 -8.94964
337 1 4.82366e-08 9.43453 18.8691 -8.94963
336 1 20.4415 7.86211 20.4415 -8.94963
335 1 18.8691 6.28969 18.8691 -8.94963
334 1 17.2966 7.86211 20.4415 -8.94963
188 1 17.2966 4.71726 11.007 -8.94963
189 1 20.4415 4.71726 11.007 -8.94963
333 1 15.7242 6.28969 18.8691 -8.94963
332 1 14.1518 7.86211 20.4415 -8.94963
331 1 12.5794 6.28969 18.8691 -8.94963
330 1 11.007 7.86211 20.4415 -8.94963
329 1 9.43453 6.28969 18.8691 -8.94965
328 1 7.86211 7.86211 20.4415 -8.94964
327 1 6.28969 6.28969 18.8691 -8.9497
197 1 1.19662e-10 4.46949e-16 12.5794 -8.94963
198 1 1.57242 1.57242 14.1518 -8.94963
199 1 3.14484 5.62411e-16 12.5794 -8.94963
200 1 4.71726 1.57242 14.1518 -8.94963
201 1 6.28969 4.16085e-16 12.5794 -8.94963
202 1 7.86211 1.57242 14.1518 -8.94963
203 1 9.43453 3.16761e-16 12.5794 -8.94965
204 1 11.007 1.57242 14.1518 -8.94964
205 1 12.5794 1.58801e-16 12.5794 -8.94963
206 1 14.1518 1.57242 14.1518 -8.94963
207 1 15.7242 4.14176e-16 12.5794 -8.94963
208 1 17.2966 1.57242 14.1518 -8.94963
209 1 18.8691 5.00134e-16 12.5794 -8.94963
210 1 20.4415 1.57242 14.1518 -8.94963
211 1 22.0139 3.14484 12.5794 -8.94963
212 1 1.57242 4.71726 14.1518 -8.94964
213 1 3.14484 3.14484 12.5794 -8.94963
214 1 4.71726 4.71726 14.1518 -8.94966
215 1 6.28969 3.14484 12.5794 -8.94966
216 1 7.86208 4.71723 14.1518 -8.94938
217 1 9.43453 3.1448 12.5794 -8.9502
218 1 11.007 4.71721 14.1518 -8.94972
219 1 12.5794 3.14484 12.5794 -8.94963
220 1 14.1518 4.71727 14.1518 -8.9497
221 1 15.7242 3.14484 12.5794 -8.94963
222 1 17.2966 4.71726 14.1518 -8.94963
223 1 18.8691 3.14484 12.5794 -8.94963
224 1 20.4415 4.71726 14.1518 -8.94963
225 1 1.23952e-07 6.28969 12.5794 -8.94963
226 1 1.57242 7.86211 14.1518 -8.94964
227 1 3.14485 6.28969 12.5794 -8.9497
228 1 4.71721 7.86206 14.1519 -8.94923
229 1 6.28972 6.28967 12.5794 -8.95082
230 1 7.86146 7.86167 14.1525 -8.94127
231 1 9.43456 6.2875 12.5794 -8.9656
232 1 11.0087 7.86039 14.1536 -8.92174
233 1 12.5793 6.28973 12.5794 -8.95134
234 1 14.1518 7.8621 14.1518 -8.94995
235 1 15.7242 6.28969 12.5794 -8.94962
236 1 17.2966 7.86211 14.1518 -8.94964
237 1 18.8691 6.28969 12.5794 -8.94963
238 1 20.4415 7.86211 14.1518 -8.94963
239 1 22.0139 9.43453 12.5794 -8.94965
240 1 3.14475 9.43451 12.5794 -8.95017
241 1 6.28656 9.43209 12.5794 -8.91191
242 1 9.47531 9.35096 12.5794 -7.95728
243 1 12.5804 9.43439 12.5794 -8.95828
244 1 15.7242 9.43453 12.5794 -8.9499
245 1 18.8691 9.43453 12.5794 -8.94964
246 1 5.30158e-11 6.23881e-16 15.7242 -8.94963
247 1 1.57242 1.57242 17.2966 -8.94963
248 1 3.14484 5.96543e-16 15.7242 -8.94963
249 1 4.71726 1.57242 17.2966 -8.94963
250 1 6.28969 5.7697e-16 15.7242 -8.94963
251 1 7.86211 1.57242 17.2966 -8.94963
252 1 9.43453 6.83886e-17 15.7242 -8.94963
253 1 11.007 1.57242 17.2966 -8.94963
254 1 12.5794 -1.82007e-16 15.7242 -8.94963
255 1 14.1518 1.57242 17.2966 -8.94963
256 1 15.7242 1.75164e-16 15.7242 -8.94963
257 1 17.2966 1.57242 17.2966 -8.94963
258 1 18.8691 4.70628e-16 15.7242 -8.94963
259 1 20.4415 1.57242 17.2966 -8.94963
260 1 1.2649e-09 3.14484 15.7242 -8.94963
261 1 1.57242 4.71726 17.2966 -8.94963
262 1 3.14484 3.14484 15.7242 -8.94963
263 1 4.71726 4.71726 17.2966 -8.94963
264 1 6.28969 3.14484 15.7242 -8.94963
265 1 7.86211 4.71727 17.2966 -8.94965
266 1 9.43453 3.14484 15.7242 -8.94964
267 1 11.0069 4.71727 17.2966 -8.9497
268 1 12.5794 3.14484 15.7242 -8.94963
269 1 14.1518 4.71726 17.2966 -8.94961
270 1 15.7242 3.14484 15.7242 -8.94963
271 1 17.2966 4.71726 17.2966 -8.94963
272 1 18.8691 3.14484 15.7242 -8.94963
273 1 20.4415 4.71726 17.2966 -8.94963
274 1 22.0139 6.28969 15.7242 -8.94963
275 1 1.57242 7.86211 17.2966 -8.94964
276 1 3.14484 6.28969 15.7242 -8.94966
277 1 4.71722 7.86206 17.2967 -8.94882
278 1 6.28967 6.28964 15.7242 -8.94986
279 1 7.86212 7.86215 17.2966 -8.95087
280 1 9.43452 6.28972 15.7242 -8.95087
281 1 11.007 7.86209 17.2967 -8.94986
282 1 12.5794 6.28964 15.7243 -8.94882
283 1 14.1518 7.86211 17.2966 -8.94966
284 1 15.7242 6.28969 15.7242 -8.94964
285 1 17.2966 7.86211 17.2966 -8.94963
286 1 18.8691 6.28969 15.7242 -8.94963
287 1 20.4415 7.86211 17.2966 -8.94963
288 1 22.0139 9.43453 15.7242 -8.94964
289 1 3.1448 9.43452 15.7242 -8.94995
290 1 6.28789 9.43272 15.7259 -8.92174
291 1 9.43517 9.43384 15.7246 -8.94127
292 1 12.5794 9.43447 15.7243 -8.94923
293 1 15.7242 9.43453 15.7242 -8.94964
294 1 18.8691 9.43453 15.7242 -8.94963
295 1 22.0139 3.48158e-16 18.8691 -8.94963
296 1 1.57242 1.57242 20.4415 -8.94963
297 1 3.14484 5.8912e-17 18.8691 -8.94963
298 1 4.71726 1.57242 20.4415 -8.94963
299 1 6.28969 2.17634e-16 18.8691 -8.94963
300 1 7.86211 1.57242 20.4415 -8.94963
301 1 9.43453 -1.68014e-16 18.8691 -8.94963
302 1 11.007 1.57242 20.4415 -8.94963
303 1 12.5794 6.66117e-17 18.8691 -8.94963
304 1 14.1518 1.57242 20.4415 -8.94963
305 1 15.7242 6.40168e-16 18.8691 -8.94963
306 1 17.2966 1.57242 20.4415 -8.94963
307 1 18.8691 2.52292e-16 18.8691 -8.94963
308 1 20.4415 1.57242 20.4415 -8.94963
309 1 22.0139 3.14484 18.8691 -8.94963
310 1 1.57242 4.71726 20.4415 -8.94963
311 1 3.14484 3.14484 18.8691 -8.94963
312 1 4.71726 4.71726 20.4415 -8.94963
313 1 6.28969 3.14484 18.8691 -8.94963
314 1 7.86211 4.71726 20.4415 -8.94963
315 1 9.43453 3.14484 18.8691 -8.94963
316 1 11.007 4.71726 20.4415 -8.94963
317 1 12.5794 3.14484 18.8691 -8.94963
318 1 14.1518 4.71726 20.4415 -8.94963
319 1 15.7242 3.14484 18.8691 -8.94963
320 1 17.2966 4.71726 20.4415 -8.94963
321 1 18.8691 3.14484 18.8691 -8.94963
322 1 20.4415 4.71726 20.4415 -8.94963
323 1 22.0139 6.28969 18.8691 -8.94963
324 1 1.57242 7.86211 20.4415 -8.94963
325 1 3.14484 6.28969 18.8691 -8.94961
326 1 4.71726 7.86211 20.4415 -8.94963
7 1 9.43453 1.73549e-16 22.0139 -8.94963
48 1 15.7242 9.43453 22.0139 -8.94963
44 1 3.14484 9.43453 22.0139 -8.94963
33 1 6.28969 6.28969 22.0139 -8.94963
35 1 9.43453 6.28969 22.0139 -8.94963
3 1 3.14484 3.69732e-17 22.0139 -8.94963
11 1 15.7242 3.13121e-16 22.0139 -8.94963
17 1 3.14484 3.14484 22.0139 -8.94963
23 1 12.5794 3.14484 22.0139 -8.94963
29 1 1.29217e-09 6.28969 22.0139 -8.94963
180 1 14.1518 1.57242 11.007 -8.94963
187 1 14.1518 4.71727 11.007 -8.9497
344 1 1.57242 11.007 1.57242 -8.94963
345 1 4.71726 11.007 1.57242 -8.94963
346 1 7.86211 11.007 1.57242 -8.94965
347 1 11.007 11.007 1.57242 -8.94963
348 1 14.1518 11.007 1.57242 -8.94963
349 1 17.2966 11.007 1.57242 -8.94963
350 1 20.4415 11.007 1.57242 -8.94963
511 1 18.8691 18.8691 9.43453 -8.94963
352 1 1.57242 14.1518 1.57242 -8.94963
510 1 15.7242 18.8691 9.43453 -8.94963
354 1 4.71726 14.1518 1.57242 -8.94963
355 1 6.28969 12.5794 1.17128e-06 -8.94964
356 1 7.86211 14.1518 1.57242 -8.94963
357 1 9.43453 12.5794 8.27376e-07 -8.94963
358 1 11.007 14.1518 1.57242 -8.94963
359 1 12.5794 12.5794 -9.59143e-09 -8.94963
360 1 14.1518 14.1518 1.57242 -8.94963
509 1 12.5794 18.8691 9.43453 -8.94963
362 1 17.2966 14.1518 1.57242 -8.94963
508 1 9.43453 18.8691 9.43453 -8.94964
364 1 20.4415 14.1518 1.57242 -8.94963
539 1 20.4415 20.4415 11.007 -8.94963
366 1 1.57242 17.2966 1.57242 -8.94963
367 1 3.14484 15.7242 3.86177e-08 -8.94963
368 1 4.71726 17.2966 1.57242 -8.94963
507 1 6.28969 18.8691 9.43453 -8.94963
370 1 7.86211 17.2966 1.57242 -8.94963
506 1 3.14484 18.8691 9.43453 -8.94963
372 1 11.007 17.2966 1.57242 -8.94963
373 1 12.5794 15.7242 3.3452e-08 -8.94963
374 1 14.1518 17.2966 1.57242 -8.94963
375 1 15.7242 15.7242 -2.72474e-10 -8.94963
376 1 17.2966 17.2966 1.57242 -8.94963
377 1 18.8691 15.7242 -2.06584e-11 -8.94963
378 1 20.4415 17.2966 1.57242 -8.94963
379 1 22.0139 18.8691 1.95225e-10 -8.94963
380 1 1.57242 20.4415 1.57242 -8.94963
538 1 17.2966 20.4415 11.007 -8.94963
382 1 4.71726 20.4415 1.57242 -8.94963
505 1 1.2649e-09 18.8691 9.43453 -8.94963
384 1 7.86211 20.4415 1.57242 -8.94963
504 1 18.8691 15.7242 9.43453 -8.94963
386 1 11.007 20.4415 1.57242 -8.94963
536 1 11.007 20.4415 11.007 -8.94964
388 1 14.1518 20.4415 1.57242 -8.94963
389 1 15.7242 18.8691 5.50042e-10 -8.94963
390 1 17.2966 20.4415 1.57242 -8.94963
391 1 18.8691 18.8691 1.67318e-15 -8.94963
392 1 20.4415 20.4415 1.57242 -8.94963
393 1 1.57242 11.007 4.71726 -8.94963
394 1 4.71727 11.007 4.71727 -8.94963
395 1 7.86211 11.007 4.71722 -8.9502
396 1 11.0069 11.007 4.71726 -8.94966
397 1 14.1518 11.007 4.71726 -8.94963
398 1 17.2966 11.007 4.71726 -8.94963
399 1 20.4415 11.007 4.71726 -8.94963
400 1 22.0139 12.5794 3.14484 -8.94963
401 1 1.57242 14.1518 4.71726 -8.94963
402 1 3.14484 12.5794 3.14484 -8.94963
403 1 4.71726 14.1518 4.71726 -8.94963
404 1 6.28969 12.5794 3.14484 -8.94964
405 1 7.86211 14.1518 4.71727 -8.94964
406 1 9.43453 12.5794 3.14484 -8.94963
407 1 11.007 14.1518 4.71726 -8.94963
408 1 12.5794 12.5794 3.14484 -8.94963
409 1 14.1518 14.1518 4.71726 -8.94963
410 1 15.7242 12.5794 3.14484 -8.94963
411 1 17.2966 14.1518 4.71726 -8.94963
412 1 18.8691 12.5794 3.14484 -8.94963
413 1 20.4415 14.1518 4.71726 -8.94963
414 1 1.29217e-09 15.7242 3.14484 -8.94963
415 1 1.57242 17.2966 4.71726 -8.94963
416 1 3.14484 15.7242 3.14484 -8.94963
417 1 4.71726 17.2966 4.71726 -8.94963
418 1 6.28969 15.7242 3.14484 -8.94963
419 1 7.86211 17.2966 4.71726 -8.94963
420 1 9.43453 15.7242 3.14484 -8.94963
421 1 11.007 17.2966 4.71726 -8.94963
422 1 12.5794 15.7242 3.14484 -8.94963
423 1 14.1518 17.2966 4.71726 -8.94963
424 1 15.7242 15.7242 3.14484 -8.94963
425 1 17.2966 17.2966 4.71726 -8.94963
426 1 18.8691 15.7242 3.14484 -8.94963
427 1 20.4415 17.2966 4.71726 -8.94963
428 1 22.0139 18.8691 3.14484 -8.94963
429 1 1.57242 20.4415 4.71726 -8.94963
430 1 3.14484 18.8691 3.14484 -8.94963
431 1 4.71726 20.4415 4.71726 -8.94963
432 1 6.28969 18.8691 3.14484 -8.94963
433 1 7.86211 20.4415 4.71726 -8.94963
434 1 9.43453 18.8691 3.14484 -8.94963
435 1 11.007 20.4415 4.71726 -8.94963
436 1 12.5794 18.8691 3.14484 -8.94963
437 1 14.1518 20.4415 4.71726 -8.94963
438 1 15.7242 18.8691 3.14484 -8.94963
439 1 17.2966 20.4415 4.71726 -8.94963
440 1 18.8691 18.8691 3.14484 -8.94963
441 1 20.4415 20.4415 4.71726 -8.94963
442 1 1.57242 11.007 7.86211 -8.94962
443 1 4.71731 11.007 7.86215 -8.95134
444 1 7.86208 11.007 7.85992 -8.9656
445 1 11.0069 11.007 7.86209 -8.95082
446 1 14.1518 11.007 7.86211 -8.9497
447 1 17.2966 11.007 7.86211 -8.94963
448 1 20.4415 11.007 7.86211 -8.94963
449 1 4.82366e-08 12.5794 6.28969 -8.94963
450 1 1.57242 14.1518 7.86211 -8.94964
451 1 3.14485 12.5794 6.28969 -8.9497
452 1 4.71722 14.1518 7.86206 -8.94882
453 1 6.28966 12.5794 6.28963 -8.94972
454 1 7.86212 14.1517 7.86214 -8.95087
455 1 9.43455 12.5794 6.28965 -8.94938
456 1 11.007 14.1518 7.86206 -8.94986
457 1 12.5794 12.5794 6.28968 -8.94966
458 1 14.1518 14.1518 7.86211 -8.94966
459 1 15.7242 12.5794 6.28969 -8.94964
460 1 17.2966 14.1518 7.86211 -8.94963
461 1 18.8691 12.5794 6.28969 -8.94963
462 1 20.4415 14.1518 7.86211 -8.94963
463 1 22.0139 15.7242 6.28969 -8.94963
464 1 1.57242 17.2966 7.86211 -8.94963
465 1 3.14484 15.7242 6.28969 -8.94961
466 1 4.71726 17.2966 7.86211 -8.94963
467 1 6.28969 15.7242 6.28969 -8.9497
468 1 7.86211 17.2966 7.86211 -8.94965
469 1 9.43453 15.7242 6.28969 -8.94965
470 1 11.0069 17.2966 7.86211 -8.9497
471 1 12.5794 15.7242 6.28968 -8.94963
472 1 14.1518 17.2966 7.86211 -8.94961
473 1 15.7242 15.7242 6.28969 -8.94963
474 1 17.2966 17.2966 7.86211 -8.94963
475 1 18.8691 15.7242 6.28969 -8.94963
476 1 20.4415 17.2966 7.86211 -8.94963
477 1 22.0139 18.8691 6.28969 -8.94963
478 1 1.57242 20.4415 7.86211 -8.94963
479 1 3.14484 18.8691 6.28969 -8.94963
480 1 4.71726 20.4415 7.86211 -8.94963
481 1 6.28969 18.8691 6.28969 -8.94963
482 1 7.86211 20.4415 7.86211 -8.94963
483 1 9.43453 18.8691 6.28969 -8.94963
484 1 11.007 20.4415 7.86211 -8.94963
485 1 12.5794 18.8691 6.28969 -8.94963
486 1 14.1518 20.4415 7.86211 -8.94963
487 1 15.7242 18.8691 6.28969 -8.94963
488 1 17.2966 20.4415 7.86211 -8.94963
489 1 18.8691 18.8691 6.28969 -8.94963
490 1 20.4415 20.4415 7.86211 -8.94963
491 1 22.0139 12.5794 9.43453 -8.94964
492 1 3.1448 12.5794 9.43452 -8.94995
493 1 6.28789 12.5812 9.43282 -8.92174
494 1 9.43517 12.5801 9.4341 -8.94127
495 1 12.5794 12.5794 9.43448 -8.94923
496 1 15.7242 12.5794 9.43453 -8.94964
497 1 18.8691 12.5794 9.43453 -8.94963
498 1 22.0139 15.7242 9.43453 -8.94963
499 1 3.14484 15.7242 9.43453 -8.94966
500 1 6.28967 15.7243 9.43451 -8.94986
501 1 9.43452 15.7242 9.43458 -8.95087
502 1 12.5794 15.7243 9.43448 -8.94882
503 1 15.7242 15.7242 9.43453 -8.94964
512 1 1.5724 11.007 11.0069 -8.9499
513 1 4.7162 11.007 11.0068 -8.95828
514 1 7.82132 11.007 10.9234 -7.95728
515 1 11.0101 11.007 11.0045 -8.91191
516 1 14.1519 11.007 11.0069 -8.95017
517 1 17.2966 11.007 11.007 -8.94965
518 1 20.4415 11.007 11.007 -8.94964
519 1 1.57242 14.1518 11.0069 -8.94964
520 1 4.71721 14.1518 11.0069 -8.94923
521 1 7.86146 14.1522 11.0063 -8.94127
522 1 11.0087 14.1535 11.0051 -8.92174
523 1 14.1518 14.1518 11.0069 -8.94995
524 1 17.2966 14.1518 11.007 -8.94964
525 1 20.4415 14.1518 11.007 -8.94963
527 1 4.71726 17.2966 11.007 -8.94966
528 1 7.86208 17.2967 11.0069 -8.94938
529 1 11.007 17.2967 11.0069 -8.94972
535 1 7.86211 20.4415 11.007 -8.94963
534 1 4.71726 20.4415 11.007 -8.94963
351 1 22.0139 12.5794 4.38986e-09 -8.94963
385 1 9.43453 18.8691 2.62841e-09 -8.94963
383 1 6.28969 18.8691 3.64041e-09 -8.94963
363 1 18.8691 12.5794 2.99092e-10 -8.94963
687 3 8.64832 11.007 12.5794 3.79419
686 1 20.4415 20.4415 20.4415 -8.94963
685 1 18.8691 18.8691 18.8691 -8.94963
684 1 17.2966 20.4415 20.4415 -8.94963
683 1 15.7242 18.8691 18.8691 -8.94963
682 1 14.1518 20.4415 20.4415 -8.94963
681 1 12.5794 18.8691 18.8691 -8.94963
680 1 11.007 20.4415 20.4415 -8.94963
679 1 9.43453 18.8691 18.8691 -8.94963
678 1 7.86211 20.4415 20.4415 -8.94963
677 1 6.28969 18.8691 18.8691 -8.94963
676 1 4.71726 20.4415 20.4415 -8.94963
675 1 3.14484 18.8691 18.8691 -8.94963
674 1 1.57242 20.4415 20.4415 -8.94963
526 1 1.57242 17.2966 11.007 -8.94964
673 1 22.0139 18.8691 18.8691 -8.94963
672 1 20.4415 17.2966 20.4415 -8.94963
671 1 18.8691 15.7242 18.8691 -8.94963
670 1 17.2966 17.2966 20.4415 -8.94963
531 1 17.2966 17.2966 11.007 -8.94963
532 1 20.4415 17.2966 11.007 -8.94963
533 1 1.57242 20.4415 11.007 -8.94963
669 1 15.7242 15.7242 18.8691 -8.94963
668 1 14.1518 17.2966 20.4415 -8.94963
667 1 12.5794 15.7242 18.8691 -8.94963
666 1 11.007 17.2966 20.4415 -8.94963
665 1 9.43453 15.7242 18.8691 -8.94965
664 1 7.86211 17.2966 20.4415 -8.94963
540 1 1.5724 11.007 14.1518 -8.9499
541 1 4.7162 11.007 14.1519 -8.95828
542 1 7.82132 11.007 14.2354 -7.95728
543 1 11.0101 11.007 14.1542 -8.91191
544 1 14.1519 11.007 14.1518 -8.95017
545 1 17.2966 11.007 14.1518 -8.94965
546 1 20.4415 11.007 14.1518 -8.94964
547 1 22.0139 12.5794 12.5794 -8.94965
548 1 1.57242 14.1518 14.1518 -8.94964
549 1 3.14475 12.5794 12.5794 -8.95017
550 1 4.71721 14.1518 14.1519 -8.94923
551 1 6.28656 12.5818 12.5794 -8.91191
552 1 7.86146 14.1522 14.1525 -8.94127
553 1 9.47531 12.6629 12.5794 -7.95728
554 1 11.0087 14.1535 14.1536 -8.92174
555 1 12.5804 12.5795 12.5794 -8.95828
556 1 14.1518 14.1518 14.1518 -8.94995
557 1 15.7242 12.5794 12.5794 -8.9499
558 1 17.2966 14.1518 14.1518 -8.94964
559 1 18.8691 12.5794 12.5794 -8.94964
560 1 20.4415 14.1518 14.1518 -8.94963
561 1 1.23952e-07 15.7242 12.5794 -8.94963
562 1 1.57242 17.2966 14.1518 -8.94964
563 1 3.14485 15.7242 12.5794 -8.9497
564 1 4.71726 17.2966 14.1518 -8.94966
565 1 6.28972 15.7242 12.5794 -8.95082
566 1 7.86208 17.2967 14.1518 -8.94938
567 1 9.43456 15.7264 12.5794 -8.9656
568 1 11.007 17.2967 14.1518 -8.94972
569 1 12.5793 15.7242 12.5794 -8.95134
570 1 14.1518 17.2966 14.1518 -8.9497
571 1 15.7242 15.7242 12.5794 -8.94962
572 1 17.2966 17.2966 14.1518 -8.94963
573 1 18.8691 15.7242 12.5794 -8.94963
574 1 20.4415 17.2966 14.1518 -8.94963
575 1 22.0139 18.8691 12.5794 -8.94963
576 1 1.57242 20.4415 14.1518 -8.94963
577 1 3.14484 18.8691 12.5794 -8.94963
578 1 4.71726 20.4415 14.1518 -8.94963
579 1 6.28969 18.8691 12.5794 -8.94966
580 1 7.86211 20.4415 14.1518 -8.94963
581 1 9.43453 18.8691 12.5794 -8.9502
582 1 11.007 20.4415 14.1518 -8.94964
583 1 12.5794 18.8691 12.5794 -8.94963
584 1 14.1518 20.4415 14.1518 -8.94963
585 1 15.7242 18.8691 12.5794 -8.94963
586 1 17.2966 20.4415 14.1518 -8.94963
587 1 18.8691 18.8691 12.5794 -8.94963
588 1 20.4415 20.4415 14.1518 -8.94963
589 1 1.57242 11.007 17.2966 -8.94962
590 1 4.71731 11.007 17.2966 -8.95134
591 1 7.86208 11.007 17.2988 -8.9656
592 1 11.0069 11.007 17.2967 -8.95082
593 1 14.1518 11.007 17.2966 -8.9497
594 1 17.2966 11.007 17.2966 -8.94963
595 1 20.4415 11.007 17.2966 -8.94963
596 1 22.0139 12.5794 15.7242 -8.94964
597 1 1.57242 14.1518 17.2966 -8.94964
598 1 3.1448 12.5794 15.7242 -8.94995
599 1 4.71722 14.1518 17.2967 -8.94882
600 1 6.28789 12.5812 15.7259 -8.92174
601 1 7.86212 14.1517 17.2966 -8.95087
602 1 9.43517 12.5801 15.7246 -8.94127
603 1 11.007 14.1518 17.2967 -8.94986
604 1 12.5794 12.5794 15.7243 -8.94923
605 1 14.1518 14.1518 17.2966 -8.94966
606 1 15.7242 12.5794 15.7242 -8.94964
607 1 17.2966 14.1518 17.2966 -8.94963
608 1 18.8691 12.5794 15.7242 -8.94963
609 1 20.4415 14.1518 17.2966 -8.94963
610 1 22.0139 15.7242 15.7242 -8.94963
611 1 1.57242 17.2966 17.2966 -8.94963
612 1 3.14484 15.7242 15.7242 -8.94966
613 1 4.71726 17.2966 17.2966 -8.94963
614 1 6.28967 15.7243 15.7242 -8.94986
615 1 7.86211 17.2966 17.2966 -8.94965
616 1 9.43452 15.7242 15.7242 -8.95087
617 1 11.0069 17.2966 17.2966 -8.9497
618 1 12.5794 15.7243 15.7243 -8.94882
619 1 14.1518 17.2966 17.2966 -8.94961
620 1 15.7242 15.7242 15.7242 -8.94964
621 1 17.2966 17.2966 17.2966 -8.94963
622 1 18.8691 15.7242 15.7242 -8.94963
623 1 20.4415 17.2966 17.2966 -8.94963
624 1 1.2649e-09 18.8691 15.7242 -8.94963
625 1 1.57242 20.4415 17.2966 -8.94963
626 1 3.14484 18.8691 15.7242 -8.94963
627 1 4.71726 20.4415 17.2966 -8.94963
628 1 6.28969 18.8691 15.7242 -8.94963
629 1 7.86211 20.4415 17.2966 -8.94963
630 1 9.43453 18.8691 15.7242 -8.94964
631 1 11.007 20.4415 17.2966 -8.94963
632 1 12.5794 18.8691 15.7242 -8.94963
633 1 14.1518 20.4415 17.2966 -8.94963
634 1 15.7242 18.8691 15.7242 -8.94963
635 1 17.2966 20.4415 17.2966 -8.94963
636 1 18.8691 18.8691 15.7242 -8.94963
637 1 20.4415 20.4415 17.2966 -8.94963
638 1 1.57242 11.007 20.4415 -8.94963
639 1 4.71727 11.007 20.4415 -8.94963
640 1 7.86211 11.007 20.4415 -8.9502
641 1 11.0069 11.007 20.4415 -8.94966
642 1 14.1518 11.007 20.4415 -8.94963
643 1 17.2966 11.007 20.4415 -8.94963
644 1 20.4415 11.007 20.4415 -8.94963
645 1 4.82366e-08 12.5794 18.8691 -8.94963
646 1 1.57242 14.1518 20.4415 -8.94963
647 1 3.14485 12.5794 18.8691 -8.9497
648 1 4.71726 14.1518 20.4415 -8.94963
649 1 6.28966 12.5794 18.8691 -8.94972
650 1 7.86211 14.1518 20.4415 -8.94964
651 1 9.43455 12.5794 18.8691 -8.94938
652 1 11.007 14.1518 20.4415 -8.94963
653 1 12.5794 12.5794 18.8691 -8.94966
654 1 14.1518 14.1518 20.4415 -8.94963
655 1 15.7242 12.5794 18.8691 -8.94964
656 1 17.2966 14.1518 20.4415 -8.94963
657 1 18.8691 12.5794 18.8691 -8.94963
658 1 20.4415 14.1518 20.4415 -8.94963
659 1 22.0139 15.7242 18.8691 -8.94963
660 1 1.57242 17.2966 20.4415 -8.94963
661 1 3.14484 15.7242 18.8691 -8.94961
662 1 4.71726 17.2966 20.4415 -8.94963
663 1 6.28969 15.7242 18.8691 -8.9497
371 1 9.43453 15.7242 22.0139 -8.94963
353 1 3.14484 12.5794 22.0139 -8.94963
361 1 15.7242 12.5794 22.0139 -8.94963
369 1 6.28969 15.7242 22.0139 -8.94963
365 1 1.29217e-09 15.7242 22.0139 -8.94963
381 1 3.14484 18.8691 22.0139 -8.94963
387 1 12.5794 18.8691 22.0139 -8.94963
537 1 14.1518 20.4415 11.007 -8.94963
530 1 14.1518 17.2966 11.007 -8.9497
