ITEM: TIMESTEP
101
ITEM: NUMBER OF ATOMS
687
ITEM: BOX BOUNDS pp pp pp
0.0000000000000000e+00 2.2013900999999997e+01
0.0000000000000000e+00 2.2013900999999997e+01
0.0000000000000000e+00 2.2013900999999997e+01
ITEM: ATOMS id type x y z c_pot
1 1 22.0136 -1.46478e-12 0.000262441 -8.94937
2 1 1.57203 1.57207 1.57242 -8.94958
196 1 20.4415 7.86179 11.007 -8.94991
4 1 4.71703 1.57208 1.57242 -8.9495
5 1 6.28952 -1.84217e-12 0.000305844 -8.94952
6 1 7.86207 1.57209 1.57242 -8.94953
175 1 18.869 9.43457 9.43421 -8.9499
8 1 11.0071 1.57212 1.57242 -8.94952
9 1 12.5796 -1.63193e-12 0.000346149 -8.9495
10 1 14.1521 1.57216 1.57242 -8.94955
195 1 17.2992 7.86166 11.0066 -8.95181
12 1 17.297 1.57216 1.57242 -8.94937
13 1 18.8693 -2.38388e-12 0.000219151 -8.94924
14 1 20.4413 1.5722 1.57242 -8.94924
15 1 22.0132 3.14419 0.000369638 -8.94915
16 1 1.57151 4.71635 1.57242 -8.94952
194 1 14.1622 7.85791 11.0044 -8.95827
18 1 4.71686 4.71639 1.57242 -8.9496
174 1 15.7256 9.43519 9.43398 -8.9498
20 1 7.86216 4.71646 1.57242 -8.94955
173 1 12.5825 9.43676 9.43401 -8.95295
22 1 11.0073 4.71661 1.57242 -8.94953
193 1 11.0478 7.82469 10.9736 -8.85435
24 1 14.1524 4.7168 1.57242 -8.95007
25 1 15.7249 3.14428 0.000611858 -8.94947
26 1 17.2968 4.71712 1.57242 -8.94971
27 1 18.8691 3.14455 0.000295784 -8.94957
28 1 20.4411 4.71692 1.57242 -8.94952
192 1 7.84741 7.85402 10.9827 -8.90433
30 1 1.57131 7.8615 1.57242 -8.94937
31 1 3.14357 6.28841 0.00128458 -8.95
32 1 4.71659 7.86143 1.57242 -8.95068
172 1 9.44923 9.41023 9.42645 -8.90433
34 1 7.86233 7.86163 1.57242 -8.95029
171 1 6.24888 9.40118 9.39711 -8.85435
36 1 11.0072 7.86207 1.57242 -8.95043
37 1 12.58 6.28925 0.00107738 -8.95072
38 1 14.1521 7.86219 1.57242 -8.94954
39 1 15.7246 6.28964 0.000399327 -8.94974
40 1 17.2967 7.86204 1.57242 -8.94953
41 1 18.8689 6.28949 0.000271478 -8.94951
42 1 20.441 7.86187 1.57242 -8.94951
170 1 3.13443 9.43201 9.43034 -8.95827
169 1 22.0113 9.43423 9.43408 -8.95181
45 1 6.2893 9.43434 0.00171898 -8.95146
46 1 9.43462 9.43465 0.000509154 -8.94943
47 1 12.5797 9.43469 0.00033407 -8.94935
168 1 18.8701 6.28911 9.43409 -8.95025
167 1 15.7289 6.28737 9.43228 -8.95091
50 1 22.0136 -1.46493e-12 3.14458 -8.94937
51 1 1.57177 1.57181 4.71671 -8.94947
52 1 3.14454 1.27718e-12 3.14458 -8.94955
53 1 4.71686 1.57186 4.71668 -8.94948
54 1 6.28952 -1.84298e-12 3.14454 -8.94952
55 1 7.86198 1.5719 4.71657 -8.9495
56 1 9.43457 -1.68931e-12 3.14451 -8.94953
57 1 11.0072 1.57192 4.71652 -8.94945
58 1 12.5796 -1.6323e-12 3.1445 -8.9495
59 1 14.1524 1.57192 4.71646 -8.94961
60 1 15.7246 3.07976e-12 3.14449 -8.94958
61 1 17.2973 1.57205 4.71661 -8.94915
62 1 18.8693 -2.38323e-12 3.14462 -8.94924
63 1 20.4415 1.57213 4.71697 -8.94957
64 1 22.0132 3.14419 3.14447 -8.94915
65 1 1.57072 4.71557 4.71586 -8.94821
66 1 3.14427 3.14404 3.14435 -8.94961
67 1 4.71629 4.71563 4.71565 -8.94964
68 1 6.28948 3.1441 3.14434 -8.94945
69 1 7.86199 4.71586 4.71572 -8.94935
70 1 9.43466 3.14415 3.14432 -8.9495
71 1 11.0075 4.71601 4.71564 -8.94914
72 1 12.5798 3.14426 3.14428 -8.94948
73 1 14.1532 4.71599 4.71528 -8.94943
74 1 15.7249 3.14428 3.14423 -8.94947
75 1 17.2971 4.71689 4.71656 -8.94987
76 1 18.8691 3.14455 3.14455 -8.94957
77 1 20.4409 4.71667 4.71672 -8.94955
78 1 -0.000899589 6.28907 3.14436 -8.94946
79 1 1.57048 7.86106 4.71565 -8.94918
80 1 3.14357 6.28841 3.14356 -8.95
81 1 4.71507 7.86021 4.71326 -8.95156
82 1 6.28943 6.28868 3.14365 -8.94974
83 1 7.86217 7.86084 4.71431 -8.95064
84 1 9.4349 6.28882 3.14378 -8.94966
85 1 11.0074 7.86168 4.71495 -8.95256
86 1 12.58 6.28925 3.14377 -8.95072
87 1 14.1523 7.86229 4.71644 -8.94964
88 1 15.7246 6.28964 3.14444 -8.94974
89 1 17.2968 7.86203 4.71672 -8.94942
90 1 18.8689 6.28949 3.14457 -8.94951
91 1 20.4407 7.86174 4.71663 -8.94944
92 1 22.0129 9.43428 3.14431 -8.94947
93 1 3.14329 9.434 3.14346 -8.9494
94 1 6.2893 9.43434 3.14312 -8.95146
95 1 9.43462 9.43465 3.14433 -8.94943
96 1 12.5797 9.43469 3.14451 -8.94935
97 1 15.7245 9.43454 3.1445 -8.94955
98 1 18.8688 9.43445 3.14455 -8.94954
99 1 22.0138 2.03931e-11 6.28954 -8.94971
100 1 1.57208 1.57202 7.86206 -8.94974
101 1 3.14426 -5.85371e-11 6.28923 -8.95007
102 1 4.71663 1.57134 7.86167 -8.95072
103 1 6.2893 -9.75706e-12 6.28903 -8.94953
104 1 7.86173 1.57136 7.86124 -8.94966
105 1 9.43447 -1.64973e-11 6.28888 -8.94955
106 1 11.0072 1.57123 7.8611 -8.94974
107 1 12.5798 4.02438e-11 6.28881 -8.9496
108 1 14.1531 1.57114 7.86083 -8.95
109 1 15.7251 -1.27271e-10 6.28877 -8.94952
110 1 17.2975 1.57194 7.86149 -8.94946
111 1 18.8695 4.61618e-13 6.28934 -8.94952
112 1 20.4416 1.57215 7.86191 -8.94951
113 1 22.0134 3.14414 6.28932 -8.94987
114 1 1.5711 4.71596 7.86165 -8.95044
115 1 3.1434 3.14286 6.28841 -8.94943
116 1 4.714 4.71232 7.85906 -8.94984
117 1 6.2891 3.14322 6.28843 -8.94914
118 1 7.86147 4.71367 7.85927 -8.94772
119 1 9.43464 3.1433 6.28828 -8.94935
120 1 11.0086 4.71323 7.85904 -8.94915
121 1 12.5803 3.14323 6.28806 -8.94964
122 1 14.1565 4.71286 7.85759 -8.94453
123 1 15.7259 3.14344 6.28799 -8.94821
124 1 17.2985 4.71614 7.86088 -8.94969
125 1 18.8696 3.1443 6.2891 -8.94955
126 1 20.4415 4.71668 7.86177 -8.94988
127 1 22.0121 6.28846 6.28856 -8.94969
128 1 1.56772 7.85986 7.85979 -8.95091
129 1 3.14011 6.28517 6.28529 -8.94453
130 1 4.70381 7.84987 7.84909 -8.92997
131 1 6.28805 6.28662 6.28566 -8.94916
132 1 7.861 7.85655 7.85283 -8.9509
133 1 9.43517 6.28685 6.28609 -8.94772
134 1 11.0135 7.85493 7.85139 -8.95313
135 1 12.5826 6.28664 6.28474 -8.94984
136 1 14.1543 7.86187 7.86035 -8.95169
137 1 15.7255 6.28923 6.28838 -8.95044
138 1 17.2974 7.86211 7.86147 -8.94988
139 1 18.869 6.28935 6.2891 -8.94988
140 1 20.4404 7.86167 7.86154 -8.95025
141 1 -0.00207639 9.43404 6.28838 -8.94928
142 1 3.14037 9.43296 6.2855 -8.94759
143 1 6.28616 9.43302 6.28126 -8.95927
144 1 9.43382 9.43428 6.28812 -8.95186
145 1 12.5798 9.4352 6.28898 -8.94888
146 1 15.7249 9.43455 6.28877 -8.94898
147 1 18.8688 9.4344 6.289 -8.94956
148 1 -8.87025e-05 -4.1938e-11 9.43447 -8.94953
149 1 3.14451 3.01453e-10 9.43462 -8.94954
150 1 6.28943 -4.96194e-10 9.4345 -8.95043
151 1 9.4343 -5.17553e-10 9.43405 -8.95029
152 1 12.58 -1.2707e-09 9.43385 -8.95068
153 1 15.7253 -6.76667e-12 9.43393 -8.94937
154 1 18.8696 7.27548e-13 9.43429 -8.94951
155 1 -0.000191521 3.1443 9.43445 -8.94942
156 1 3.14432 3.14401 9.43471 -8.94964
157 1 6.2892 3.14253 9.4341 -8.95256
158 1 9.43446 3.14189 9.43326 -8.95064
159 1 12.5816 3.14083 9.43263 -8.95156
160 1 15.7262 3.14323 9.43348 -8.94918
161 1 18.8698 3.14421 9.43416 -8.94944
162 1 22.0131 6.28905 9.43453 -8.94988
163 1 3.14234 6.28793 9.43429 -8.95169
164 1 6.28316 6.27897 9.42735 -8.95313
165 1 9.43564 6.28041 9.42897 -8.9509
166 1 12.5928 6.27667 9.42229 -8.92997
177 1 4.71693 1.57209 11.0071 -8.94935
178 1 7.86201 1.57191 11.0071 -8.94943
179 1 11.0073 1.5707 11.0068 -8.95146
191 1 4.71413 7.86158 11.0092 -8.95295
181 1 17.2976 1.57189 11.0067 -8.94947
182 1 20.4417 1.57213 11.0069 -8.94954
184 1 4.71688 4.71656 11.0076 -8.94888
185 1 7.86282 4.7157 11.0067 -8.95186
186 1 11.0105 4.70883 11.0054 -8.95927
190 1 1.57103 7.86156 11.0076 -8.9498
19 1 6.28948 3.1441 0.000502398 -8.94945
49 1 18.8688 9.43445 0.000294725 -8.94954
21 1 9.43466 3.14415 0.000525458 -8.9495
43 1 22.0129 9.43428 0.000533005 -8.94947
176 1 1.5721 1.57208 11.007 -8.94955
343 1 18.8688 9.4344 18.8697 -8.94956
342 1 15.7249 9.43455 18.87 -8.94898
341 1 12.5798 9.4352 18.8698 -8.94888
340 1 9.43382 9.43428 18.8706 -8.95186
339 1 6.28616 9.43302 18.8775 -8.95927
338 1 3.14037 9.43296 18.8732 -8.94759
183 1 1.57171 4.71635 11.007 -8.94898
337 1 -0.00207639 9.43404 18.8704 -8.94928
336 1 20.4407 7.86174 20.4421 -8.94944
335 1 18.869 6.28935 18.8696 -8.94988
334 1 17.2968 7.86203 20.442 -8.94942
188 1 17.2987 4.71596 11.0065 -8.94928
189 1 20.4418 4.71658 11.0068 -8.94956
333 1 15.7255 6.28923 18.8704 -8.95044
332 1 14.1523 7.86229 20.4423 -8.94964
331 1 12.5826 6.28664 18.874 -8.94984
330 1 11.0074 7.86168 20.4438 -8.95256
329 1 9.43517 6.28685 18.8727 -8.94772
328 1 7.86217 7.86084 20.4444 -8.95064
327 1 6.28805 6.28662 18.8731 -8.94916
197 1 -9.37559e-05 5.32075e-12 12.5794 -8.94957
198 1 1.5721 1.57208 14.1518 -8.94955
199 1 3.14447 -1.64494e-10 12.5794 -8.94965
200 1 4.71693 1.57209 14.1516 -8.94935
201 1 6.28937 1.30596e-09 12.5794 -8.94912
202 1 7.86201 1.57191 14.1517 -8.94943
203 1 9.43436 -3.01788e-09 12.5794 -8.94848
204 1 11.0073 1.5707 14.152 -8.95146
205 1 12.5804 -1.04982e-09 12.5794 -8.95037
206 1 14.1533 1.57103 14.1523 -8.9494
207 1 15.7254 -5.00633e-11 12.5794 -8.94946
208 1 17.2976 1.57189 14.152 -8.94947
209 1 18.8696 -1.98287e-12 12.5794 -8.94953
210 1 20.4417 1.57213 14.1519 -8.94954
211 1 22.0138 3.14427 12.5794 -8.94956
212 1 1.57171 4.71635 14.1518 -8.94898
213 1 3.14432 3.1441 12.5794 -8.94963
214 1 4.71688 4.71656 14.1511 -8.94888
215 1 6.28959 3.14482 12.5794 -8.9482
216 1 7.86282 4.7157 14.152 -8.95186
217 1 9.43487 3.14403 12.5794 -8.94633
218 1 11.0105 4.70883 14.1533 -8.95927
219 1 12.5822 3.14068 12.5794 -8.94959
220 1 14.1563 4.71308 14.1534 -8.94759
221 1 15.7263 3.14317 12.5794 -8.94944
222 1 17.2987 4.71596 14.1523 -8.94928
223 1 18.8699 3.14417 12.5794 -8.9495
224 1 20.4418 4.71658 14.1519 -8.94956
225 1 -0.000512176 6.28884 12.5794 -8.94956
226 1 1.57103 7.86156 14.1511 -8.9498
227 1 3.14344 6.2881 12.5794 -8.94648
228 1 4.71413 7.86158 14.1496 -8.95295
229 1 6.29191 6.2922 12.5794 -8.94508
230 1 7.84741 7.85402 14.1761 -8.90433
231 1 9.43988 6.2932 12.5794 -9.00328
232 1 11.0478 7.82469 14.1851 -8.85435
233 1 12.5906 6.27907 12.5794 -8.94205
234 1 14.1622 7.85791 14.1543 -8.95827
235 1 15.7292 6.28695 12.5794 -8.94906
236 1 17.2992 7.86166 14.1521 -8.95181
237 1 18.8704 6.28892 12.5794 -8.94999
238 1 20.4415 7.86179 14.1518 -8.94991
239 1 22.0137 9.43427 12.5794 -8.94761
240 1 3.14762 9.43517 12.5794 -8.93979
241 1 6.31275 9.44441 12.5794 -8.9023
242 1 9.5117 9.20257 12.5794 -8.12158
243 1 12.5868 9.42663 12.5794 -8.97288
244 1 15.7264 9.43479 12.5794 -8.95106
245 1 18.8696 9.4346 12.5794 -8.94935
246 1 -8.87025e-05 -4.19381e-11 15.7243 -8.94953
247 1 1.57208 1.57202 17.2967 -8.94974
248 1 3.14451 3.01453e-10 15.7241 -8.94954
249 1 4.71663 1.57134 17.2971 -8.95072
250 1 6.28943 -4.96195e-10 15.7242 -8.95043
251 1 7.86173 1.57136 17.2975 -8.94966
252 1 9.4343 -5.17553e-10 15.7247 -8.95029
253 1 11.0072 1.57123 17.2976 -8.94974
254 1 12.58 -1.2707e-09 15.7249 -8.95068
255 1 14.1531 1.57114 17.2979 -8.95
256 1 15.7253 -6.76682e-12 15.7248 -8.94937
257 1 17.2975 1.57194 17.2973 -8.94946
258 1 18.8696 7.2805e-13 15.7245 -8.94951
259 1 20.4416 1.57215 17.2968 -8.94951
260 1 -0.000191521 3.1443 15.7243 -8.94942
261 1 1.5711 4.71596 17.2971 -8.95044
262 1 3.14432 3.14401 15.724 -8.94964
263 1 4.714 4.71232 17.2997 -8.94984
264 1 6.2892 3.14253 15.7246 -8.95256
265 1 7.86147 4.71367 17.2995 -8.94772
266 1 9.43446 3.14189 15.7255 -8.95064
267 1 11.0086 4.71323 17.2997 -8.94915
268 1 12.5816 3.14083 15.7261 -8.95156
269 1 14.1565 4.71286 17.3012 -8.94453
270 1 15.7262 3.14323 15.7253 -8.94918
271 1 17.2985 4.71614 17.2979 -8.94969
272 1 18.8698 3.14421 15.7246 -8.94944
273 1 20.4415 4.71668 17.297 -8.94988
274 1 22.0131 6.28905 15.7242 -8.94988
275 1 1.56772 7.85986 17.299 -8.95091
276 1 3.14234 6.28793 15.7245 -8.95169
277 1 4.70381 7.84987 17.3097 -8.92997
278 1 6.28316 6.27897 15.7314 -8.95313
279 1 7.861 7.85655 17.3059 -8.9509
280 1 9.43564 6.28041 15.7298 -8.9509
281 1 11.0135 7.85493 17.3074 -8.95313
282 1 12.5928 6.27667 15.7365 -8.92997
283 1 14.1543 7.86187 17.2984 -8.95169
284 1 15.7289 6.28737 15.7265 -8.95091
285 1 17.2974 7.86211 17.2973 -8.94988
286 1 18.8701 6.28911 15.7247 -8.95025
287 1 20.4404 7.86167 17.2972 -8.95025
288 1 22.0113 9.43423 15.7247 -8.95181
289 1 3.13443 9.43201 15.7284 -8.95827
290 1 6.24888 9.40118 15.7616 -8.85435
291 1 9.44923 9.41023 15.7323 -8.90433
292 1 12.5825 9.43676 15.7247 -8.95295
293 1 15.7256 9.43519 15.7248 -8.9498
294 1 18.869 9.43457 15.7245 -8.9499
295 1 22.0138 2.03931e-11 18.8692 -8.94971
296 1 1.57177 1.57181 20.442 -8.94947
297 1 3.14426 -5.85361e-11 18.8695 -8.95007
298 1 4.71686 1.57186 20.4421 -8.94948
299 1 6.2893 -9.75692e-12 18.8697 -8.94953
300 1 7.86198 1.5719 20.4422 -8.9495
301 1 9.43447 -1.64975e-11 18.8699 -8.94955
302 1 11.0072 1.57192 20.4422 -8.94945
303 1 12.5798 4.02437e-11 18.8699 -8.9496
304 1 14.1524 1.57192 20.4423 -8.94961
305 1 15.7251 -1.27271e-10 18.87 -8.94952
306 1 17.2973 1.57205 20.4421 -8.94915
307 1 18.8695 4.61788e-13 18.8694 -8.94952
308 1 20.4415 1.57213 20.4418 -8.94957
309 1 22.0134 3.14414 18.8694 -8.94987
310 1 1.57072 4.71557 20.4429 -8.94821
311 1 3.1434 3.14286 18.8703 -8.94943
312 1 4.71629 4.71563 20.4431 -8.94964
313 1 6.2891 3.14322 18.8703 -8.94914
314 1 7.86199 4.71586 20.443 -8.94935
315 1 9.43464 3.1433 18.8705 -8.94935
316 1 11.0075 4.71601 20.4431 -8.94914
317 1 12.5803 3.14323 18.8707 -8.94964
318 1 14.1532 4.71599 20.4435 -8.94943
319 1 15.7259 3.14344 18.8708 -8.94821
320 1 17.2971 4.71689 20.4422 -8.94987
321 1 18.8696 3.1443 18.8696 -8.94955
322 1 20.4409 4.71667 20.442 -8.94955
323 1 22.0121 6.28846 18.8702 -8.94969
324 1 1.57048 7.86106 20.4431 -8.94918
325 1 3.14011 6.28517 18.8735 -8.94453
326 1 4.71507 7.86021 20.4455 -8.95156
7 1 9.43457 -1.68881e-12 22.0142 -8.94953
48 1 15.7245 9.43454 22.0142 -8.94955
44 1 3.14329 9.434 22.0153 -8.9494
33 1 6.28943 6.28868 22.0151 -8.94974
35 1 9.4349 6.28882 22.015 -8.94966
3 1 3.14454 1.27773e-12 22.0142 -8.94955
11 1 15.7246 3.07901e-12 22.0143 -8.94958
17 1 3.14427 3.14404 22.0144 -8.94961
23 1 12.5798 3.14426 22.0145 -8.94948
29 1 -0.000899589 6.28907 22.0144 -8.94946
180 1 14.1533 1.57103 11.0064 -8.9494
187 1 14.1563 4.71308 11.0054 -8.94759
344 1 1.57123 11.007 1.57242 -8.94946
345 1 4.71624 11.007 1.57242 -8.95037
346 1 7.86227 11.007 1.57242 -8.94848
347 1 11.0073 11.007 1.57242 -8.94912
348 1 14.1522 11.007 1.57242 -8.94965
349 1 17.2967 11.007 1.57242 -8.94957
350 1 20.4409 11.007 1.57242 -8.94953
511 1 18.8698 18.8697 9.43416 -8.94944
352 1 1.57131 14.1524 1.57242 -8.94937
510 1 15.7262 18.8707 9.43348 -8.94918
354 1 4.71659 14.1525 1.57242 -8.95068
355 1 6.2893 12.5796 0.00171898 -8.95146
356 1 7.86233 14.1523 1.57242 -8.95029
357 1 9.43462 12.5793 0.000509154 -8.94943
358 1 11.0072 14.1518 1.57242 -8.95043
359 1 12.5797 12.5792 0.00033407 -8.94935
360 1 14.1521 14.1517 1.57242 -8.94954
509 1 12.5816 18.8731 9.43263 -8.95156
362 1 17.2967 14.1519 1.57242 -8.94953
508 1 9.43446 18.872 9.43326 -8.95064
364 1 20.441 14.152 1.57242 -8.94951
539 1 20.4417 20.4418 11.0069 -8.94954
366 1 1.57151 17.2976 1.57242 -8.94952
367 1 3.14357 15.7255 0.00128458 -8.95
368 1 4.71686 17.2975 1.57242 -8.9496
507 1 6.2892 18.8714 9.4341 -8.95256
370 1 7.86216 17.2974 1.57242 -8.94955
506 1 3.14432 18.8699 9.43471 -8.94964
372 1 11.0073 17.2973 1.57242 -8.94953
373 1 12.58 15.7247 0.00107738 -8.95072
374 1 14.1524 17.2971 1.57242 -8.95007
375 1 15.7246 15.7243 0.000399327 -8.94974
376 1 17.2968 17.2968 1.57242 -8.94971
377 1 18.8689 15.7244 0.000271478 -8.94951
378 1 20.4411 17.297 1.57242 -8.94952
379 1 22.0132 18.8697 0.000369638 -8.94915
380 1 1.57203 20.4418 1.57242 -8.94958
538 1 17.2976 20.442 11.0067 -8.94947
382 1 4.71703 20.4418 1.57242 -8.9495
505 1 -0.00019152 18.8696 9.43445 -8.94942
384 1 7.86207 20.4418 1.57242 -8.94953
504 1 18.8701 15.7248 9.43409 -8.95025
386 1 11.0071 20.4418 1.57242 -8.94952
536 1 11.0073 20.4432 11.0068 -8.95146
388 1 14.1521 20.4417 1.57242 -8.94955
389 1 15.7249 18.8696 0.000611858 -8.94947
390 1 17.297 20.4417 1.57242 -8.94937
391 1 18.8691 18.8693 0.000295784 -8.94957
392 1 20.4413 20.4417 1.57242 -8.94924
393 1 1.57036 11.007 4.71559 -8.94944
394 1 4.71439 11.007 4.7131 -8.94959
395 1 7.86177 11.007 4.71645 -8.94633
396 1 11.007 11.007 4.71725 -8.9482
397 1 14.1523 11.007 4.71653 -8.94963
398 1 17.2968 11.007 4.71669 -8.94956
399 1 20.4407 11.007 4.71659 -8.9495
400 1 22.0129 12.5796 3.14431 -8.94947
401 1 1.57048 14.1528 4.71565 -8.94918
402 1 3.14329 12.5799 3.14346 -8.9494
403 1 4.71507 14.1537 4.71326 -8.95156
404 1 6.2893 12.5796 3.14312 -8.95146
405 1 7.86217 14.1531 4.71431 -8.95064
406 1 9.43462 12.5793 3.14433 -8.94943
407 1 11.0074 14.1522 4.71495 -8.95256
408 1 12.5797 12.5792 3.14451 -8.94935
409 1 14.1523 14.1516 4.71644 -8.94964
410 1 15.7245 12.5794 3.1445 -8.94955
411 1 17.2968 14.1519 4.71672 -8.94942
412 1 18.8688 12.5795 3.14455 -8.94954
413 1 20.4407 14.1522 4.71663 -8.94944
414 1 -0.000899589 15.7248 3.14436 -8.94946
415 1 1.57072 17.2983 4.71586 -8.94821
416 1 3.14357 15.7255 3.14356 -8.95
417 1 4.71629 17.2983 4.71565 -8.94964
418 1 6.28943 15.7252 3.14365 -8.94974
419 1 7.86199 17.298 4.71572 -8.94935
420 1 9.4349 15.7251 3.14378 -8.94966
421 1 11.0075 17.2979 4.71564 -8.94914
422 1 12.58 15.7247 3.14377 -8.95072
423 1 14.1532 17.2979 4.71528 -8.94943
424 1 15.7246 15.7243 3.14444 -8.94974
425 1 17.2971 17.297 4.71656 -8.94987
426 1 18.8689 15.7244 3.14457 -8.94951
427 1 20.4409 17.2972 4.71672 -8.94955
428 1 22.0132 18.8697 3.14447 -8.94915
429 1 1.57177 20.4421 4.71671 -8.94947
430 1 3.14427 18.8699 3.14435 -8.94961
431 1 4.71686 20.442 4.71668 -8.94948
432 1 6.28948 18.8698 3.14434 -8.94945
433 1 7.86198 20.442 4.71657 -8.9495
434 1 9.43466 18.8697 3.14432 -8.9495
435 1 11.0072 20.442 4.71652 -8.94945
436 1 12.5798 18.8696 3.14428 -8.94948
437 1 14.1524 20.442 4.71646 -8.94961
438 1 15.7249 18.8696 3.14423 -8.94947
439 1 17.2973 20.4418 4.71661 -8.94915
440 1 18.8691 18.8693 3.14455 -8.94957
441 1 20.4415 20.4418 4.71697 -8.94957
442 1 1.56747 11.007 7.85937 -8.94906
443 1 4.70608 11.007 7.8515 -8.94205
444 1 7.85675 11.007 7.86563 -9.00328
445 1 11.0047 11.007 7.86462 -8.94508
446 1 14.1532 11.007 7.86052 -8.94648
447 1 17.2971 11.007 7.86126 -8.94956
448 1 20.4402 11.007 7.86134 -8.94999
449 1 -0.00207639 12.5799 6.28838 -8.94928
450 1 1.56772 14.154 7.85979 -8.95091
451 1 3.14037 12.5809 6.2855 -8.94759
452 1 4.70381 14.164 7.84909 -8.92997
453 1 6.28616 12.5809 6.28126 -8.95927
454 1 7.861 14.1574 7.85283 -8.9509
455 1 9.43382 12.5796 6.28812 -8.95186
456 1 11.0135 14.159 7.85139 -8.95313
457 1 12.5798 12.5787 6.28898 -8.94888
458 1 14.1543 14.152 7.86035 -8.95169
459 1 15.7249 12.5793 6.28877 -8.94898
460 1 17.2974 14.1518 7.86147 -8.94988
461 1 18.8688 12.5795 6.289 -8.94956
462 1 20.4404 14.1522 7.86154 -8.95025
463 1 22.0121 15.7254 6.28856 -8.94969
464 1 1.5711 17.2979 7.86165 -8.95044
465 1 3.14011 15.7287 6.28529 -8.94453
466 1 4.714 17.3016 7.85906 -8.94984
467 1 6.28805 15.7273 6.28566 -8.94915
468 1 7.86147 17.3002 7.85927 -8.94772
469 1 9.43517 15.7271 6.28609 -8.94772
470 1 11.0086 17.3007 7.85904 -8.94915
471 1 12.5826 15.7273 6.28474 -8.94984
472 1 14.1565 17.301 7.85759 -8.94453
473 1 15.7255 15.7247 6.28838 -8.95044
474 1 17.2985 17.2978 7.86088 -8.94969
475 1 18.869 15.7246 6.2891 -8.94988
476 1 20.4415 17.2972 7.86177 -8.94988
477 1 22.0134 18.8698 6.28932 -8.94987
478 1 1.57208 20.4419 7.86206 -8.94974
479 1 3.1434 18.871 6.28841 -8.94943
480 1 4.71663 20.4426 7.86167 -8.95072
481 1 6.2891 18.8707 6.28843 -8.94914
482 1 7.86173 20.4425 7.86124 -8.94966
483 1 9.43464 18.8706 6.28828 -8.94935
484 1 11.0072 20.4427 7.8611 -8.94974
485 1 12.5803 18.8707 6.28806 -8.94964
486 1 14.1531 20.4428 7.86083 -8.95
487 1 15.7259 18.8705 6.28799 -8.94821
488 1 17.2975 20.442 7.86149 -8.94946
489 1 18.8696 18.8696 6.2891 -8.94955
490 1 20.4416 20.4418 7.86191 -8.94951
491 1 22.0113 12.5797 9.43408 -8.95181
492 1 3.13443 12.5819 9.43034 -8.95827
493 1 6.24888 12.6127 9.39711 -8.85435
494 1 9.44923 12.6037 9.42645 -8.90433
495 1 12.5825 12.5771 9.43401 -8.95295
496 1 15.7256 12.5787 9.43398 -8.9498
497 1 18.869 12.5793 9.43421 -8.9499
498 1 22.0131 15.7249 9.43453 -8.94988
499 1 3.14234 15.726 9.43429 -8.95169
500 1 6.28316 15.7349 9.42735 -8.95313
501 1 9.43564 15.7335 9.42897 -8.9509
502 1 12.5928 15.7372 9.42229 -8.92997
503 1 15.7289 15.7265 9.43228 -8.95091
512 1 1.57019 11.007 11.0072 -8.95106
513 1 4.70983 11.007 10.9991 -8.97288
514 1 7.78494 11.007 10.775 -8.12157
515 1 10.9839 11.007 11.0168 -8.9023
516 1 14.149 11.007 11.0076 -8.93979
517 1 17.2969 11.007 11.0067 -8.94761
518 1 20.4409 11.007 11.007 -8.94935
519 1 1.57103 14.1523 11.0076 -8.9498
520 1 4.71413 14.1523 11.0092 -8.95295
521 1 7.84741 14.1599 10.9827 -8.90433
522 1 11.0478 14.1892 10.9736 -8.85435
523 1 14.1622 14.156 11.0044 -8.95827
524 1 17.2992 14.1522 11.0066 -8.95181
525 1 20.4415 14.1521 11.007 -8.94991
527 1 4.71688 17.2973 11.0076 -8.94888
528 1 7.86282 17.2982 11.0067 -8.95186
529 1 11.0105 17.3051 11.0054 -8.95927
535 1 7.86201 20.442 11.0071 -8.94943
534 1 4.71693 20.4418 11.0071 -8.94935
351 1 22.0129 12.5796 0.000533005 -8.94947
385 1 9.43466 18.8697 0.000525458 -8.9495
383 1 6.28948 18.8698 0.000502398 -8.94945
363 1 18.8688 12.5795 0.000294725 -8.94954
687 3 8.64832 11.007 12.5794 2.30859
686 1 20.4415 20.4418 20.4418 -8.94957
685 1 18.8696 18.8696 18.8696 -8.94955
684 1 17.2973 20.4418 20.4421 -8.94915
683 1 15.7259 18.8705 18.8708 -8.94821
682 1 14.1524 20.442 20.4423 -8.94961
681 1 12.5803 18.8707 18.8707 -8.94964
680 1 11.0072 20.442 20.4422 -8.94945
679 1 9.43464 18.8706 18.8705 -8.94935
678 1 7.86198 20.442 20.4422 -8.9495
677 1 6.2891 18.8707 18.8703 -8.94914
676 1 4.71686 20.442 20.4421 -8.94948
675 1 3.1434 18.871 18.8703 -8.94943
674 1 1.57177 20.4421 20.442 -8.94947
526 1 1.57171 17.2976 11.007 -8.94898
673 1 22.0134 18.8698 18.8694 -8.94987
672 1 20.4409 17.2972 20.442 -8.94955
671 1 18.869 15.7246 18.8696 -8.94988
670 1 17.2971 17.297 20.4422 -8.94987
531 1 17.2987 17.2979 11.0065 -8.94928
532 1 20.4418 17.2973 11.0068 -8.94956
533 1 1.5721 20.4418 11.007 -8.94955
669 1 15.7255 15.7247 18.8704 -8.95044
668 1 14.1532 17.2979 20.4435 -8.94943
667 1 12.5826 15.7273 18.874 -8.94984
666 1 11.0075 17.2979 20.4431 -8.94914
665 1 9.43517 15.7271 18.8727 -8.94772
664 1 7.86199 17.298 20.443 -8.94935
540 1 1.57019 11.007 14.1515 -8.95106
541 1 4.70983 11.007 14.1597 -8.97288
542 1 7.78494 11.007 14.3838 -8.12157
543 1 10.9839 11.007 14.1419 -8.9023
544 1 14.149 11.007 14.1512 -8.93979
545 1 17.2969 11.007 14.152 -8.94761
546 1 20.4409 11.007 14.1517 -8.94935
547 1 22.0137 12.5796 12.5794 -8.94761
548 1 1.57103 14.1523 14.1511 -8.9498
549 1 3.14762 12.5787 12.5794 -8.93979
550 1 4.71413 14.1523 14.1496 -8.95295
551 1 6.31275 12.5695 12.5794 -8.9023
552 1 7.84741 14.1599 14.1761 -8.90433
553 1 9.5117 12.8113 12.5794 -8.12158
554 1 11.0478 14.1892 14.1851 -8.85435
555 1 12.5868 12.5873 12.5794 -8.97288
556 1 14.1622 14.156 14.1543 -8.95827
557 1 15.7264 12.5791 12.5794 -8.95106
558 1 17.2992 14.1522 14.1521 -8.95181
559 1 18.8696 12.5793 12.5794 -8.94935
560 1 20.4415 14.1521 14.1518 -8.94991
561 1 -0.000512176 15.7251 12.5794 -8.94956
562 1 1.57171 17.2976 14.1518 -8.94898
563 1 3.14344 15.7258 12.5794 -8.94648
564 1 4.71688 17.2973 14.1511 -8.94888
565 1 6.29191 15.7217 12.5794 -8.94508
566 1 7.86282 17.2982 14.152 -8.95186
567 1 9.43988 15.7207 12.5794 -9.00328
568 1 11.0105 17.3051 14.1533 -8.95927
569 1 12.5906 15.7348 12.5794 -8.94205
570 1 14.1563 17.3008 14.1534 -8.94759
571 1 15.7292 15.727 12.5794 -8.94906
572 1 17.2987 17.2979 14.1523 -8.94928
573 1 18.8704 15.725 12.5794 -8.94999
574 1 20.4418 17.2973 14.1519 -8.94956
575 1 22.0138 18.8696 12.5794 -8.94956
576 1 1.5721 20.4418 14.1518 -8.94955
577 1 3.14432 18.8698 12.5794 -8.94963
578 1 4.71693 20.4418 14.1516 -8.94935
579 1 6.28959 18.8691 12.5794 -8.9482
580 1 7.86201 20.442 14.1517 -8.94943
581 1 9.43487 18.8699 12.5794 -8.94633
582 1 11.0073 20.4432 14.152 -8.95146
583 1 12.5822 18.8732 12.5794 -8.94959
584 1 14.1533 20.4429 14.1523 -8.9494
585 1 15.7263 18.8707 12.5794 -8.94944
586 1 17.2976 20.442 14.152 -8.94947
587 1 18.8699 18.8697 12.5794 -8.9495
588 1 20.4417 20.4418 14.1519 -8.94954
589 1 1.56747 11.007 17.2994 -8.94906
590 1 4.70608 11.007 17.3072 -8.94205
591 1 7.85675 11.007 17.2931 -9.00328
592 1 11.0047 11.007 17.2941 -8.94508
593 1 14.1532 11.007 17.2982 -8.94648
594 1 17.2971 11.007 17.2975 -8.94956
595 1 20.4402 11.007 17.2974 -8.94999
596 1 22.0113 12.5797 15.7247 -8.95181
597 1 1.56772 14.154 17.299 -8.95091
598 1 3.13443 12.5819 15.7284 -8.95827
599 1 4.70381 14.164 17.3097 -8.92997
600 1 6.24888 12.6127 15.7616 -8.85435
601 1 7.861 14.1574 17.3059 -8.9509
602 1 9.44923 12.6037 15.7323 -8.90433
603 1 11.0135 14.159 17.3074 -8.95313
604 1 12.5825 12.5771 15.7247 -8.95295
605 1 14.1543 14.152 17.2984 -8.95169
606 1 15.7256 12.5787 15.7248 -8.9498
607 1 17.2974 14.1518 17.2973 -8.94988
608 1 18.869 12.5793 15.7245 -8.9499
609 1 20.4404 14.1522 17.2972 -8.95025
610 1 22.0131 15.7249 15.7242 -8.94988
611 1 1.5711 17.2979 17.2971 -8.95044
612 1 3.14234 15.726 15.7245 -8.95169
613 1 4.714 17.3016 17.2997 -8.94984
614 1 6.28316 15.7349 15.7314 -8.95313
615 1 7.86147 17.3002 17.2995 -8.94772
616 1 9.43564 15.7335 15.7298 -8.9509
617 1 11.0086 17.3007 17.2997 -8.94915
618 1 12.5928 15.7372 15.7365 -8.92997
619 1 14.1565 17.301 17.3012 -8.94453
620 1 15.7289 15.7265 15.7265 -8.95091
621 1 17.2985 17.2978 17.2979 -8.94969
622 1 18.8701 15.7248 15.7247 -8.95025
623 1 20.4415 17.2972 17.297 -8.94988
624 1 -0.00019152 18.8696 15.7243 -8.94942
625 1 1.57208 20.4419 17.2967 -8.94974
626 1 3.14432 18.8699 15.724 -8.94964
627 1 4.71663 20.4426 17.2971 -8.95072
628 1 6.2892 18.8714 15.7246 -8.95256
629 1 7.86173 20.4425 17.2975 -8.94966
630 1 9.43446 18.872 15.7255 -8.95064
631 1 11.0072 20.4427 17.2976 -8.94974
632 1 12.5816 18.8731 15.7261 -8.95156
633 1 14.1531 20.4428 17.2979 -8.95
634 1 15.7262 18.8707 15.7253 -8.94918
635 1 17.2975 20.442 17.2973 -8.94946
636 1 18.8698 18.8697 15.7246 -8.94944
637 1 20.4416 20.4418 17.2968 -8.94951
638 1 1.57036 11.007 20.4432 -8.94944
639 1 4.71439 11.007 20.4456 -8.94959
640 1 7.86177 11.007 20.4423 -8.94633
641 1 11.007 11.007 20.4415 -8.9482
642 1 14.1523 11.007 20.4422 -8.94963
643 1 17.2968 11.007 20.4421 -8.94956
644 1 20.4407 11.007 20.4422 -8.9495
645 1 -0.00207639 12.5799 18.8704 -8.94928
646 1 1.57048 14.1528 20.4431 -8.94918
647 1 3.14037 12.5809 18.8732 -8.94759
648 1 4.71507 14.1537 20.4455 -8.95156
649 1 6.28616 12.5809 18.8775 -8.95927
650 1 7.86217 14.1531 20.4444 -8.95064
651 1 9.43382 12.5796 18.8706 -8.95186
652 1 11.0074 14.1522 20.4438 -8.95256
653 1 12.5798 12.5787 18.8698 -8.94888
654 1 14.1523 14.1516 20.4423 -8.94964
655 1 15.7249 12.5793 18.87 -8.94898
656 1 17.2968 14.1519 20.442 -8.94942
657 1 18.8688 12.5795 18.8697 -8.94956
658 1 20.4407 14.1522 20.4421 -8.94944
659 1 22.0121 15.7254 18.8702 -8.94969
660 1 1.57072 17.2983 20.4429 -8.94821
661 1 3.14011 15.7287 18.8735 -8.94453
662 1 4.71629 17.2983 20.4431 -8.94964
663 1 6.28805 15.7273 18.8731 -8.94915
371 1 9.4349 15.7251 22.015 -8.94966
353 1 3.14329 12.5799 22.0153 -8.9494
361 1 15.7245 12.5794 22.0142 -8.94955
369 1 6.28943 15.7252 22.0151 -8.94974
365 1 -0.000899589 15.7248 22.0144 -8.94946
381 1 3.14427 18.8699 22.0144 -8.94961
387 1 12.5798 18.8696 22.0145 -8.94948
537 1 14.1533 20.4429 11.0064 -8.9494
530 1 14.1563 17.3008 11.0054 -8.94759
