ITEM: TIMESTEP
50
ITEM: NUMBER OF ATOMS
687
ITEM: BOX BOUNDS pp pp pp
0.0000000000000000e+00 2.2013900999999997e+01
0.0000000000000000e+00 2.2013900999999997e+01
0.0000000000000000e+00 2.2013900999999997e+01
ITEM: ATOMS id type x y z c_pot
1 1 22.0139 -1.5027e-15 1.25639e-08 -8.94963
2 1 1.57242 1.57242 1.57242 -8.94963
196 1 20.4415 7.86211 11.0069 -8.94965
4 1 4.71726 1.57242 1.57242 -8.94963
5 1 6.28969 -1.22202e-15 5.12157e-09 -8.94963
6 1 7.86211 1.57242 1.57242 -8.94963
175 1 18.8691 9.43453 9.43453 -8.94965
8 1 11.007 1.57242 1.57242 -8.94963
9 1 12.5794 5.98864e-16 1.66071e-08 -8.94963
10 1 14.1518 1.57242 1.57242 -8.94963
195 1 17.2967 7.8621 11.0069 -8.94981
12 1 17.2966 1.57242 1.57242 -8.94963
13 1 18.8691 3.76217e-16 3.78122e-09 -8.94963
14 1 20.4415 1.57242 1.57242 -8.94963
15 1 22.0139 3.14484 8.31178e-08 -8.94963
16 1 1.57242 4.71726 1.57242 -8.94963
194 1 14.1526 7.86187 11.0067 -8.9517
18 1 4.71726 4.71726 1.57242 -8.94963
174 1 15.7243 9.43453 9.4345 -8.94962
20 1 7.86211 4.71726 1.57242 -8.94963
173 1 12.58 9.43457 9.43413 -8.94921
22 1 11.007 4.71726 1.57242 -8.94963
193 1 11.0189 7.85082 10.9954 -8.88494
24 1 14.1518 4.71726 1.57242 -8.94963
25 1 15.7242 3.14484 2.04381e-07 -8.94963
26 1 17.2966 4.71726 1.57242 -8.94963
27 1 18.8691 3.14484 1.46925e-09 -8.94963
28 1 20.4415 4.71726 1.57242 -8.94963
192 1 7.85827 7.85969 11.0025 -8.92939
30 1 1.57242 7.86211 1.57242 -8.94963
31 1 3.14484 6.28968 4.6823e-06 -8.94962
32 1 4.71726 7.8621 1.57242 -8.94965
172 1 9.43836 9.43003 9.43211 -8.92939
34 1 7.86211 7.86211 1.57242 -8.94963
171 1 6.27773 9.42296 9.42325 -8.88494
36 1 11.007 7.86211 1.57242 -8.94965
37 1 12.5794 6.28968 4.3116e-06 -8.94964
38 1 14.1518 7.86211 1.57242 -8.94963
39 1 15.7242 6.28969 -1.13356e-07 -8.94963
40 1 17.2966 7.86211 1.57242 -8.94963
41 1 18.8691 6.28969 -1.18039e-08 -8.94963
42 1 20.4415 7.86211 1.57242 -8.94963
170 1 3.14399 9.43429 9.43429 -8.9517
169 1 22.0139 9.43452 9.43452 -8.94981
45 1 6.28967 9.43452 5.05693e-05 -8.94981
46 1 9.43454 9.43451 3.27567e-05 -8.94967
47 1 12.5794 9.43453 4.95046e-07 -8.94964
168 1 18.8691 6.28968 9.43453 -8.94964
167 1 15.7243 6.28966 9.4345 -8.9497
50 1 22.0139 -1.1819e-15 3.14484 -8.94963
51 1 1.57242 1.57242 4.71726 -8.94963
52 1 3.14484 -4.20138e-16 3.14484 -8.94963
53 1 4.71726 1.57242 4.71726 -8.94963
54 1 6.28969 -1.09089e-15 3.14484 -8.94963
55 1 7.86211 1.57242 4.71726 -8.94963
56 1 9.43453 -2.83586e-16 3.14484 -8.94963
57 1 11.007 1.57242 4.71726 -8.94963
58 1 12.5794 3.92293e-16 3.14484 -8.94963
59 1 14.1518 1.57242 4.71726 -8.94964
60 1 15.7242 4.69184e-16 3.14484 -8.94963
61 1 17.2966 1.57242 4.71726 -8.94963
62 1 18.8691 2.19458e-17 3.14484 -8.94963
63 1 20.4415 1.57242 4.71726 -8.94963
64 1 22.0139 3.14484 3.14484 -8.94963
65 1 1.57242 4.71726 4.71726 -8.94961
66 1 3.14484 3.14484 3.14484 -8.94964
67 1 4.71727 4.71727 4.71727 -8.94968
68 1 6.28969 3.14484 3.14484 -8.94963
69 1 7.86211 4.71726 4.71726 -8.94964
70 1 9.43453 3.14484 3.14484 -8.94963
71 1 11.0069 4.71726 4.71727 -8.94964
72 1 12.5794 3.14484 3.14484 -8.94963
73 1 14.1518 4.71726 4.71726 -8.94963
74 1 15.7242 3.14484 3.14484 -8.94963
75 1 17.2966 4.71726 4.71726 -8.94963
76 1 18.8691 3.14484 3.14484 -8.94963
77 1 20.4415 4.71726 4.71726 -8.94963
78 1 1.86657e-07 6.28969 3.14484 -8.94964
79 1 1.57242 7.86211 4.71727 -8.94967
80 1 3.14484 6.28968 3.14484 -8.94962
81 1 4.71722 7.86207 4.71719 -8.94966
82 1 6.28969 6.28969 3.14484 -8.94963
83 1 7.86212 7.8621 4.71724 -8.94962
84 1 9.43453 6.28969 3.14484 -8.94963
85 1 11.007 7.86208 4.7172 -8.94973
86 1 12.5794 6.28968 3.14484 -8.94964
87 1 14.1518 7.86211 4.71726 -8.94964
88 1 15.7242 6.28969 3.14484 -8.94963
89 1 17.2966 7.86211 4.71726 -8.94963
90 1 18.8691 6.28969 3.14484 -8.94963
91 1 20.4415 7.86211 4.71726 -8.94963
92 1 22.0139 9.43453 3.14484 -8.94963
93 1 3.14484 9.43453 3.14484 -8.94963
94 1 6.28967 9.43452 3.14479 -8.94981
95 1 9.43454 9.43451 3.14481 -8.94967
96 1 12.5794 9.43453 3.14484 -8.94964
97 1 15.7242 9.43453 3.14484 -8.94963
98 1 18.8691 9.43453 3.14484 -8.94963
99 1 22.0139 1.39176e-15 6.28969 -8.94963
100 1 1.57242 1.57242 7.86211 -8.94963
101 1 3.14484 2.98604e-16 6.28969 -8.94963
102 1 4.71726 1.57242 7.86211 -8.94964
103 1 6.28969 4.92236e-16 6.28969 -8.94963
104 1 7.86211 1.57242 7.86211 -8.94963
105 1 9.43453 -1.28279e-15 6.28969 -8.94963
106 1 11.0069 1.57242 7.86211 -8.94963
107 1 12.5794 -2.4378e-16 6.28969 -8.94963
108 1 14.1518 1.57242 7.8621 -8.94962
109 1 15.7242 1.84372e-15 6.28969 -8.94963
110 1 17.2966 1.57242 7.86211 -8.94964
111 1 18.8691 7.77174e-16 6.28969 -8.94963
112 1 20.4415 1.57242 7.86211 -8.94963
113 1 22.0139 3.14484 6.28969 -8.94963
114 1 1.57242 4.71727 7.86211 -8.94966
115 1 3.14484 3.14484 6.28968 -8.94963
116 1 4.71723 4.71719 7.86207 -8.94966
117 1 6.28969 3.14484 6.28969 -8.94964
118 1 7.86211 4.71725 7.86208 -8.94958
119 1 9.43453 3.14484 6.28969 -8.94964
120 1 11.0069 4.71728 7.86212 -8.94996
121 1 12.5794 3.14485 6.28969 -8.94968
122 1 14.1519 4.7172 7.86205 -8.94919
123 1 15.7242 3.14484 6.28968 -8.94961
124 1 17.2966 4.71726 7.86211 -8.94963
125 1 18.8691 3.14484 6.28969 -8.94963
126 1 20.4415 4.71726 7.86211 -8.94963
127 1 22.0139 6.28968 6.28968 -8.94963
128 1 1.57235 7.86208 7.86208 -8.9497
129 1 3.14478 6.28963 6.28963 -8.94919
130 1 4.71629 7.86111 7.86113 -8.94381
131 1 6.2897 6.2897 6.2897 -8.94996
132 1 7.86231 7.86199 7.86171 -8.95142
133 1 9.43452 6.28966 6.28967 -8.94958
134 1 11.0073 7.86177 7.86119 -8.95114
135 1 12.5794 6.28965 6.28961 -8.94966
136 1 14.1518 7.8621 7.8621 -8.94985
137 1 15.7242 6.28969 6.28969 -8.94966
138 1 17.2966 7.86211 7.86211 -8.94963
139 1 18.8691 6.28969 6.28969 -8.94963
140 1 20.4415 7.86211 7.86211 -8.94964
141 1 4.06689e-07 9.43453 6.28969 -8.94963
142 1 3.14484 9.43453 6.28969 -8.94985
143 1 6.28936 9.4342 6.28876 -8.95132
144 1 9.43481 9.43425 6.28923 -8.94891
145 1 12.5794 9.43455 6.28966 -8.94976
146 1 15.7242 9.43453 6.28969 -8.94965
147 1 18.8691 9.43453 6.28969 -8.94963
148 1 8.98317e-09 1.64391e-15 9.43453 -8.94963
149 1 3.14484 1.93021e-15 9.43453 -8.94963
150 1 6.28968 2.01854e-15 9.43453 -8.94965
151 1 9.43453 -2.82676e-16 9.43453 -8.94963
152 1 12.5794 -7.71177e-16 9.43453 -8.94965
153 1 15.7242 5.89476e-16 9.43453 -8.94963
154 1 18.8691 1.00508e-15 9.43453 -8.94963
155 1 1.10568e-07 3.14484 9.43453 -8.94963
156 1 3.14484 3.14484 9.43453 -8.94964
157 1 6.28966 3.14478 9.4345 -8.94973
158 1 9.43452 3.14482 9.43452 -8.94962
159 1 12.5794 3.14477 9.43449 -8.94966
160 1 15.7242 3.14485 9.43453 -8.94967
161 1 18.8691 3.14484 9.43453 -8.94963
162 1 22.0139 6.28968 9.43453 -8.94963
163 1 3.14483 6.28968 9.43452 -8.94985
164 1 6.28934 6.28877 9.43419 -8.95114
165 1 9.43433 6.28929 9.43441 -8.95142
166 1 12.5803 6.28871 9.43353 -8.94381
177 1 4.71726 1.57242 11.007 -8.94964
178 1 7.86209 1.57239 11.0069 -8.94967
179 1 11.007 1.57237 11.0069 -8.94981
191 1 4.71666 7.86171 11.007 -8.94921
181 1 17.2966 1.57242 11.007 -8.94963
182 1 20.4415 1.57242 11.007 -8.94963
184 1 4.71724 4.71723 11.007 -8.94976
185 1 7.86183 4.71681 11.0067 -8.94891
186 1 11.0073 4.71634 11.0066 -8.95132
190 1 1.57236 7.86208 11.0069 -8.94962
19 1 6.28969 3.14484 8.66062e-08 -8.94963
49 1 18.8691 9.43453 7.97457e-09 -8.94963
21 1 9.43453 3.14484 -2.79068e-08 -8.94963
43 1 22.0139 9.43453 2.83479e-08 -8.94963
176 1 1.57242 1.57242 11.007 -8.94963
343 1 18.8691 9.43453 18.8691 -8.94963
342 1 15.7242 9.43453 18.8691 -8.94965
341 1 12.5794 9.43455 18.8691 -8.94976
340 1 9.43481 9.43425 18.8695 -8.94891
339 1 6.28936 9.4342 18.87 -8.95132
338 1 3.14484 9.43453 18.8691 -8.94985
183 1 1.57242 4.71727 11.007 -8.94965
337 1 4.06689e-07 9.43453 18.8691 -8.94963
336 1 20.4415 7.86211 20.4415 -8.94963
335 1 18.8691 6.28969 18.8691 -8.94963
334 1 17.2966 7.86211 20.4415 -8.94963
188 1 17.2966 4.71726 11.007 -8.94963
189 1 20.4415 4.71726 11.007 -8.94963
333 1 15.7242 6.28969 18.8691 -8.94966
332 1 14.1518 7.86211 20.4415 -8.94964
331 1 12.5794 6.28965 18.8691 -8.94966
330 1 11.007 7.86208 20.4415 -8.94973
329 1 9.43452 6.28966 18.8691 -8.94958
328 1 7.86212 7.8621 20.4415 -8.94962
327 1 6.2897 6.2897 18.869 -8.94996
197 1 2.03886e-08 1.10152e-15 12.5794 -8.94963
198 1 1.57242 1.57242 14.1518 -8.94963
199 1 3.14484 2.14199e-15 12.5794 -8.94963
200 1 4.71726 1.57242 14.1518 -8.94964
201 1 6.28969 1.25475e-15 12.5794 -8.94963
202 1 7.86209 1.57239 14.1518 -8.94967
203 1 9.43453 4.76789e-16 12.5794 -8.9499
204 1 11.007 1.57237 14.1518 -8.94981
205 1 12.5794 -2.18096e-16 12.5794 -8.94964
206 1 14.1518 1.57242 14.1518 -8.94963
207 1 15.7242 4.0987e-16 12.5794 -8.94963
208 1 17.2966 1.57242 14.1518 -8.94963
209 1 18.8691 1.09139e-15 12.5794 -8.94963
210 1 20.4415 1.57242 14.1518 -8.94963
211 1 22.0139 3.14484 12.5794 -8.94963
212 1 1.57242 4.71727 14.1518 -8.94965
213 1 3.14484 3.14484 12.5794 -8.94962
214 1 4.71724 4.71723 14.1518 -8.94976
215 1 6.28969 3.14483 12.5794 -8.94963
216 1 7.86183 4.71681 14.1521 -8.94891
217 1 9.43451 3.1443 12.5794 -8.95143
218 1 11.0073 4.71634 14.1521 -8.95132
219 1 12.5794 3.1448 12.5794 -8.94956
220 1 14.1518 4.71727 14.1518 -8.94985
221 1 15.7242 3.14484 12.5794 -8.94966
222 1 17.2966 4.71726 14.1518 -8.94963
223 1 18.8691 3.14484 12.5794 -8.94963
224 1 20.4415 4.71726 14.1518 -8.94963
225 1 -4.35184e-07 6.28968 12.5794 -8.94963
226 1 1.57236 7.86208 14.1518 -8.94962
227 1 3.14483 6.28966 12.5794 -8.9494
228 1 4.71666 7.86171 14.1518 -8.94921
229 1 6.28981 6.28954 12.5794 -8.95108
230 1 7.85827 7.85969 14.1563 -8.92939
231 1 9.43494 6.28261 12.5794 -8.98042
232 1 11.0189 7.85082 14.1634 -8.88494
233 1 12.5798 6.2892 12.5794 -8.95043
234 1 14.1526 7.86187 14.152 -8.9517
235 1 15.7243 6.28967 12.5794 -8.94957
236 1 17.2967 7.8621 14.1518 -8.94981
237 1 18.8691 6.28969 12.5794 -8.94963
238 1 20.4415 7.86211 14.1518 -8.94965
239 1 22.0139 9.43451 12.5794 -8.94967
240 1 3.14431 9.43422 12.5794 -8.94827
241 1 6.28826 9.43221 12.5794 -8.90593
242 1 9.50672 9.27097 12.5794 -8.04925
243 1 12.5852 9.43354 12.5794 -8.96574
244 1 15.7246 9.43454 12.5794 -8.95104
245 1 18.8691 9.43453 12.5794 -8.94972
246 1 8.98317e-09 1.75342e-15 15.7242 -8.94963
247 1 1.57242 1.57242 17.2966 -8.94963
248 1 3.14484 1.95784e-15 15.7242 -8.94963
249 1 4.71726 1.57242 17.2966 -8.94964
250 1 6.28968 1.88194e-15 15.7242 -8.94965
251 1 7.86211 1.57242 17.2966 -8.94963
252 1 9.43453 -5.57231e-16 15.7242 -8.94963
253 1 11.0069 1.57242 17.2966 -8.94963
254 1 12.5794 -9.43278e-16 15.7242 -8.94965
255 1 14.1518 1.57242 17.2966 -8.94962
256 1 15.7242 6.03252e-16 15.7242 -8.94963
257 1 17.2966 1.57242 17.2966 -8.94964
258 1 18.8691 1.09195e-15 15.7242 -8.94963
259 1 20.4415 1.57242 17.2966 -8.94963
260 1 1.10568e-07 3.14484 15.7242 -8.94963
261 1 1.57242 4.71727 17.2966 -8.94966
262 1 3.14484 3.14484 15.7242 -8.94964
263 1 4.71723 4.71719 17.2967 -8.94966
264 1 6.28966 3.14478 15.7242 -8.94973
265 1 7.86211 4.71725 17.2967 -8.94958
266 1 9.43452 3.14482 15.7242 -8.94962
267 1 11.0069 4.71728 17.2966 -8.94996
268 1 12.5794 3.14477 15.7243 -8.94966
269 1 14.1519 4.7172 17.2967 -8.94919
270 1 15.7242 3.14485 15.7242 -8.94967
271 1 17.2966 4.71726 17.2966 -8.94963
272 1 18.8691 3.14484 15.7242 -8.94963
273 1 20.4415 4.71726 17.2966 -8.94963
274 1 22.0139 6.28968 15.7242 -8.94963
275 1 1.57235 7.86208 17.2967 -8.9497
276 1 3.14483 6.28968 15.7242 -8.94985
277 1 4.71629 7.86111 17.2976 -8.94381
278 1 6.28934 6.28877 15.7245 -8.95114
279 1 7.86231 7.86199 17.297 -8.95142
280 1 9.43433 6.28929 15.7243 -8.95142
281 1 11.0073 7.86177 17.2976 -8.95114
282 1 12.5803 6.28871 15.7252 -8.94381
283 1 14.1518 7.8621 17.2966 -8.94985
284 1 15.7243 6.28966 15.7242 -8.9497
285 1 17.2966 7.86211 17.2966 -8.94963
286 1 18.8691 6.28968 15.7242 -8.94964
287 1 20.4415 7.86211 17.2966 -8.94964
288 1 22.0139 9.43452 15.7242 -8.94981
289 1 3.14399 9.43429 15.7245 -8.9517
290 1 6.27773 9.42296 15.7355 -8.88494
291 1 9.43836 9.43003 15.7266 -8.92939
292 1 12.58 9.43457 15.7246 -8.94921
293 1 15.7243 9.43453 15.7242 -8.94962
294 1 18.8691 9.43453 15.7242 -8.94965
295 1 22.0139 1.18181e-15 18.8691 -8.94963
296 1 1.57242 1.57242 20.4415 -8.94963
297 1 3.14484 5.40264e-16 18.8691 -8.94963
298 1 4.71726 1.57242 20.4415 -8.94963
299 1 6.28969 1.05248e-15 18.8691 -8.94963
300 1 7.86211 1.57242 20.4415 -8.94963
301 1 9.43453 -1.42492e-15 18.8691 -8.94963
302 1 11.007 1.57242 20.4415 -8.94963
303 1 12.5794 -2.32497e-16 18.8691 -8.94963
304 1 14.1518 1.57242 20.4415 -8.94964
305 1 15.7242 1.84174e-15 18.8691 -8.94963
306 1 17.2966 1.57242 20.4415 -8.94963
307 1 18.8691 6.26354e-16 18.8691 -8.94963
308 1 20.4415 1.57242 20.4415 -8.94963
309 1 22.0139 3.14484 18.8691 -8.94963
310 1 1.57242 4.71726 20.4415 -8.94961
311 1 3.14484 3.14484 18.8691 -8.94963
312 1 4.71727 4.71727 20.4415 -8.94968
313 1 6.28969 3.14484 18.8691 -8.94964
314 1 7.86211 4.71726 20.4415 -8.94964
315 1 9.43453 3.14484 18.8691 -8.94964
316 1 11.0069 4.71726 20.4415 -8.94964
317 1 12.5794 3.14485 18.8691 -8.94968
318 1 14.1518 4.71726 20.4415 -8.94963
319 1 15.7242 3.14484 18.8691 -8.94961
320 1 17.2966 4.71726 20.4415 -8.94963
321 1 18.8691 3.14484 18.8691 -8.94963
322 1 20.4415 4.71726 20.4415 -8.94963
323 1 22.0139 6.28968 18.8691 -8.94963
324 1 1.57242 7.86211 20.4415 -8.94967
325 1 3.14478 6.28963 18.8691 -8.94919
326 1 4.71722 7.86207 20.4416 -8.94966
7 1 9.43453 -2.25179e-16 22.0139 -8.94963
48 1 15.7242 9.43453 22.0139 -8.94963
44 1 3.14484 9.43453 22.0139 -8.94963
33 1 6.28969 6.28969 22.0139 -8.94963
35 1 9.43453 6.28969 22.0139 -8.94963
3 1 3.14484 -7.84385e-16 22.0139 -8.94963
11 1 15.7242 4.98093e-16 22.0139 -8.94963
17 1 3.14484 3.14484 22.0139 -8.94964
23 1 12.5794 3.14484 22.0139 -8.94963
29 1 1.86657e-07 6.28969 22.0139 -8.94964
180 1 14.1518 1.57242 11.007 -8.94963
187 1 14.1518 4.71727 11.007 -8.94985
344 1 1.57242 11.007 1.57242 -8.94963
345 1 4.71726 11.007 1.57242 -8.94964
346 1 7.86211 11.007 1.57242 -8.9499
347 1 11.007 11.007 1.57242 -8.94963
348 1 14.1518 11.007 1.57242 -8.94963
349 1 17.2966 11.007 1.57242 -8.94963
350 1 20.4415 11.007 1.57242 -8.94963
511 1 18.8691 18.8691 9.43453 -8.94963
352 1 1.57242 14.1518 1.57242 -8.94963
510 1 15.7242 18.8691 9.43453 -8.94967
354 1 4.71726 14.1518 1.57242 -8.94965
355 1 6.28967 12.5794 5.05693e-05 -8.94981
356 1 7.86211 14.1518 1.57242 -8.94963
357 1 9.43454 12.5794 3.27567e-05 -8.94967
358 1 11.007 14.1518 1.57242 -8.94965
359 1 12.5794 12.5794 4.95046e-07 -8.94964
360 1 14.1518 14.1518 1.57242 -8.94963
509 1 12.5794 18.8691 9.43449 -8.94966
362 1 17.2966 14.1518 1.57242 -8.94963
508 1 9.43452 18.8691 9.43452 -8.94962
364 1 20.4415 14.1518 1.57242 -8.94963
539 1 20.4415 20.4415 11.007 -8.94963
366 1 1.57242 17.2966 1.57242 -8.94963
367 1 3.14484 15.7242 4.6823e-06 -8.94962
368 1 4.71726 17.2966 1.57242 -8.94963
507 1 6.28966 18.8691 9.4345 -8.94973
370 1 7.86211 17.2966 1.57242 -8.94963
506 1 3.14484 18.8691 9.43453 -8.94964
372 1 11.007 17.2966 1.57242 -8.94963
373 1 12.5794 15.7242 4.3116e-06 -8.94964
374 1 14.1518 17.2966 1.57242 -8.94963
375 1 15.7242 15.7242 -1.13356e-07 -8.94963
376 1 17.2966 17.2966 1.57242 -8.94963
377 1 18.8691 15.7242 -1.18039e-08 -8.94963
378 1 20.4415 17.2966 1.57242 -8.94963
379 1 22.0139 18.8691 8.31178e-08 -8.94963
380 1 1.57242 20.4415 1.57242 -8.94963
538 1 17.2966 20.4415 11.007 -8.94963
382 1 4.71726 20.4415 1.57242 -8.94963
505 1 1.10568e-07 18.8691 9.43453 -8.94963
384 1 7.86211 20.4415 1.57242 -8.94963
504 1 18.8691 15.7242 9.43453 -8.94964
386 1 11.007 20.4415 1.57242 -8.94963
536 1 11.007 20.4415 11.0069 -8.94981
388 1 14.1518 20.4415 1.57242 -8.94963
389 1 15.7242 18.8691 2.04381e-07 -8.94963
390 1 17.2966 20.4415 1.57242 -8.94963
391 1 18.8691 18.8691 1.46925e-09 -8.94963
392 1 20.4415 20.4415 1.57242 -8.94963
393 1 1.57242 11.007 4.71727 -8.94966
394 1 4.71724 11.007 4.71722 -8.94956
395 1 7.86213 11.007 4.71672 -8.95143
396 1 11.0069 11.007 4.71725 -8.94963
397 1 14.1518 11.007 4.71726 -8.94962
398 1 17.2966 11.007 4.71726 -8.94963
399 1 20.4415 11.007 4.71726 -8.94963
400 1 22.0139 12.5794 3.14484 -8.94963
401 1 1.57242 14.1518 4.71727 -8.94967
402 1 3.14484 12.5794 3.14484 -8.94963
403 1 4.71722 14.1518 4.71719 -8.94966
404 1 6.28967 12.5794 3.14479 -8.94981
405 1 7.86212 14.1518 4.71724 -8.94962
406 1 9.43454 12.5794 3.14481 -8.94967
407 1 11.007 14.1518 4.7172 -8.94973
408 1 12.5794 12.5794 3.14484 -8.94964
409 1 14.1518 14.1518 4.71726 -8.94964
410 1 15.7242 12.5794 3.14484 -8.94963
411 1 17.2966 14.1518 4.71726 -8.94963
412 1 18.8691 12.5794 3.14484 -8.94963
413 1 20.4415 14.1518 4.71726 -8.94963
414 1 1.86657e-07 15.7242 3.14484 -8.94964
415 1 1.57242 17.2966 4.71726 -8.94961
416 1 3.14484 15.7242 3.14484 -8.94962
417 1 4.71727 17.2966 4.71727 -8.94968
418 1 6.28969 15.7242 3.14484 -8.94963
419 1 7.86211 17.2966 4.71726 -8.94964
420 1 9.43453 15.7242 3.14484 -8.94963
421 1 11.0069 17.2966 4.71727 -8.94964
422 1 12.5794 15.7242 3.14484 -8.94964
423 1 14.1518 17.2966 4.71726 -8.94963
424 1 15.7242 15.7242 3.14484 -8.94963
425 1 17.2966 17.2966 4.71726 -8.94963
426 1 18.8691 15.7242 3.14484 -8.94963
427 1 20.4415 17.2966 4.71726 -8.94963
428 1 22.0139 18.8691 3.14484 -8.94963
429 1 1.57242 20.4415 4.71726 -8.94963
430 1 3.14484 18.8691 3.14484 -8.94964
431 1 4.71726 20.4415 4.71726 -8.94963
432 1 6.28969 18.8691 3.14484 -8.94963
433 1 7.86211 20.4415 4.71726 -8.94963
434 1 9.43453 18.8691 3.14484 -8.94963
435 1 11.007 20.4415 4.71726 -8.94963
436 1 12.5794 18.8691 3.14484 -8.94963
437 1 14.1518 20.4415 4.71726 -8.94964
438 1 15.7242 18.8691 3.14484 -8.94963
439 1 17.2966 20.4415 4.71726 -8.94963
440 1 18.8691 18.8691 3.14484 -8.94963
441 1 20.4415 20.4415 4.71726 -8.94963
442 1 1.57238 11.007 7.86209 -8.94957
443 1 4.71682 11.007 7.86162 -8.95043
444 1 7.8617 11.007 7.85503 -8.98042
445 1 11.0068 11.007 7.86196 -8.95108
446 1 14.1518 11.007 7.86208 -8.9494
447 1 17.2966 11.007 7.86211 -8.94963
448 1 20.4415 11.007 7.86211 -8.94963
449 1 4.06689e-07 12.5794 6.28969 -8.94963
450 1 1.57235 14.1518 7.86208 -8.9497
451 1 3.14484 12.5794 6.28969 -8.94985
452 1 4.71629 14.1528 7.86113 -8.94381
453 1 6.28936 12.5797 6.28876 -8.95132
454 1 7.86231 14.1519 7.86171 -8.95142
455 1 9.43481 12.5796 6.28923 -8.94891
456 1 11.0073 14.1521 7.86119 -8.95114
457 1 12.5794 12.5794 6.28966 -8.94976
458 1 14.1518 14.1518 7.8621 -8.94985
459 1 15.7242 12.5794 6.28969 -8.94965
460 1 17.2966 14.1518 7.86211 -8.94963
461 1 18.8691 12.5794 6.28969 -8.94963
462 1 20.4415 14.1518 7.86211 -8.94964
463 1 22.0139 15.7242 6.28968 -8.94963
464 1 1.57242 17.2966 7.86211 -8.94966
465 1 3.14478 15.7243 6.28963 -8.94919
466 1 4.71723 17.2967 7.86207 -8.94966
467 1 6.2897 15.7242 6.2897 -8.94996
468 1 7.86211 17.2967 7.86208 -8.94958
469 1 9.43452 15.7242 6.28967 -8.94958
470 1 11.0069 17.2966 7.86212 -8.94996
471 1 12.5794 15.7242 6.28961 -8.94966
472 1 14.1519 17.2967 7.86205 -8.94919
473 1 15.7242 15.7242 6.28969 -8.94966
474 1 17.2966 17.2966 7.86211 -8.94963
475 1 18.8691 15.7242 6.28969 -8.94963
476 1 20.4415 17.2966 7.86211 -8.94963
477 1 22.0139 18.8691 6.28969 -8.94963
478 1 1.57242 20.4415 7.86211 -8.94963
479 1 3.14484 18.8691 6.28968 -8.94963
480 1 4.71726 20.4415 7.86211 -8.94964
481 1 6.28969 18.8691 6.28969 -8.94964
482 1 7.86211 20.4415 7.86211 -8.94963
483 1 9.43453 18.8691 6.28969 -8.94964
484 1 11.0069 20.4415 7.86211 -8.94963
485 1 12.5794 18.8691 6.28969 -8.94968
486 1 14.1518 20.4415 7.8621 -8.94962
487 1 15.7242 18.8691 6.28968 -8.94961
488 1 17.2966 20.4415 7.86211 -8.94964
489 1 18.8691 18.8691 6.28969 -8.94963
490 1 20.4415 20.4415 7.86211 -8.94963
491 1 22.0139 12.5794 9.43452 -8.94981
492 1 3.14399 12.5796 9.43429 -8.9517
493 1 6.27773 12.5909 9.42325 -8.88494
494 1 9.43836 12.5839 9.43211 -8.92939
495 1 12.58 12.5793 9.43413 -8.94921
496 1 15.7243 12.5794 9.4345 -8.94962
497 1 18.8691 12.5794 9.43453 -8.94965
498 1 22.0139 15.7242 9.43453 -8.94963
499 1 3.14483 15.7242 9.43452 -8.94985
500 1 6.28934 15.7251 9.43419 -8.95114
501 1 9.43433 15.7246 9.43441 -8.95142
502 1 12.5803 15.7252 9.43353 -8.94381
503 1 15.7243 15.7242 9.4345 -8.9497
512 1 1.57205 11.007 11.007 -8.95104
513 1 4.71139 11.007 11.006 -8.96574
514 1 7.78991 11.007 10.8434 -8.04925
515 1 11.0084 11.007 11.0046 -8.90593
516 1 14.1523 11.007 11.0066 -8.94827
517 1 17.2967 11.007 11.0069 -8.94967
518 1 20.4415 11.007 11.007 -8.94972
519 1 1.57236 14.1518 11.0069 -8.94962
520 1 4.71666 14.1522 11.007 -8.94921
521 1 7.85827 14.1542 11.0025 -8.92939
522 1 11.0189 14.1631 10.9954 -8.88494
523 1 14.1526 14.152 11.0067 -8.9517
524 1 17.2967 14.1518 11.0069 -8.94981
525 1 20.4415 14.1518 11.0069 -8.94965
527 1 4.71724 17.2967 11.007 -8.94976
528 1 7.86183 17.2971 11.0067 -8.94891
529 1 11.0073 17.2976 11.0066 -8.95132
535 1 7.86209 20.4415 11.0069 -8.94967
534 1 4.71726 20.4415 11.007 -8.94964
351 1 22.0139 12.5794 2.83479e-08 -8.94963
385 1 9.43453 18.8691 -2.79068e-08 -8.94963
383 1 6.28969 18.8691 8.66062e-08 -8.94963
363 1 18.8691 12.5794 7.97457e-09 -8.94963
687 3 8.64832 11.007 12.5794 2.77899
686 1 20.4415 20.4415 20.4415 -8.94963
685 1 18.8691 18.8691 18.8691 -8.94963
684 1 17.2966 20.4415 20.4415 -8.94963
683 1 15.7242 18.8691 18.8691 -8.94961
682 1 14.1518 20.4415 20.4415 -8.94964
681 1 12.5794 18.8691 18.8691 -8.94968
680 1 11.007 20.4415 20.4415 -8.94963
679 1 9.43453 18.8691 18.8691 -8.94964
678 1 7.86211 20.4415 20.4415 -8.94963
677 1 6.28969 18.8691 18.8691 -8.94964
676 1 4.71726 20.4415 20.4415 -8.94963
675 1 3.14484 18.8691 18.8691 -8.94963
674 1 1.57242 20.4415 20.4415 -8.94963
526 1 1.57242 17.2966 11.007 -8.94965
673 1 22.0139 18.8691 18.8691 -8.94963
672 1 20.4415 17.2966 20.4415 -8.94963
671 1 18.8691 15.7242 18.8691 -8.94963
670 1 17.2966 17.2966 20.4415 -8.94963
531 1 17.2966 17.2966 11.007 -8.94963
532 1 20.4415 17.2966 11.007 -8.94963
533 1 1.57242 20.4415 11.007 -8.94963
669 1 15.7242 15.7242 18.8691 -8.94966
668 1 14.1518 17.2966 20.4415 -8.94963
667 1 12.5794 15.7242 18.8691 -8.94966
666 1 11.0069 17.2966 20.4415 -8.94964
665 1 9.43452 15.7242 18.8691 -8.94958
664 1 7.86211 17.2966 20.4415 -8.94964
540 1 1.57205 11.007 14.1518 -8.95104
541 1 4.71139 11.007 14.1528 -8.96574
542 1 7.78991 11.007 14.3153 -8.04925
543 1 11.0084 11.007 14.1541 -8.90593
544 1 14.1523 11.007 14.1521 -8.94827
545 1 17.2967 11.007 14.1518 -8.94967
546 1 20.4415 11.007 14.1518 -8.94972
547 1 22.0139 12.5794 12.5794 -8.94967
548 1 1.57236 14.1518 14.1518 -8.94962
549 1 3.14431 12.5797 12.5794 -8.94827
550 1 4.71666 14.1522 14.1518 -8.94921
551 1 6.28826 12.5817 12.5794 -8.90593
552 1 7.85827 14.1542 14.1563 -8.92939
553 1 9.50672 12.7429 12.5794 -8.04925
554 1 11.0189 14.1631 14.1634 -8.88494
555 1 12.5852 12.5804 12.5794 -8.96574
556 1 14.1526 14.152 14.152 -8.9517
557 1 15.7246 12.5794 12.5794 -8.95104
558 1 17.2967 14.1518 14.1518 -8.94981
559 1 18.8691 12.5794 12.5794 -8.94972
560 1 20.4415 14.1518 14.1518 -8.94965
561 1 -4.35184e-07 15.7242 12.5794 -8.94963
562 1 1.57242 17.2966 14.1518 -8.94965
563 1 3.14483 15.7242 12.5794 -8.9494
564 1 4.71724 17.2967 14.1518 -8.94976
565 1 6.28981 15.7244 12.5794 -8.95108
566 1 7.86183 17.2971 14.1521 -8.94891
567 1 9.43494 15.7313 12.5794 -8.98042
568 1 11.0073 17.2976 14.1521 -8.95132
569 1 12.5798 15.7247 12.5794 -8.95043
570 1 14.1518 17.2966 14.1518 -8.94985
571 1 15.7243 15.7242 12.5794 -8.94957
572 1 17.2966 17.2966 14.1518 -8.94963
573 1 18.8691 15.7242 12.5794 -8.94963
574 1 20.4415 17.2966 14.1518 -8.94963
575 1 22.0139 18.8691 12.5794 -8.94963
576 1 1.57242 20.4415 14.1518 -8.94963
577 1 3.14484 18.8691 12.5794 -8.94962
578 1 4.71726 20.4415 14.1518 -8.94964
579 1 6.28969 18.8691 12.5794 -8.94963
580 1 7.86209 20.4415 14.1518 -8.94967
581 1 9.43451 18.8696 12.5794 -8.95143
582 1 11.007 20.4415 14.1518 -8.94981
583 1 12.5794 18.8691 12.5794 -8.94956
584 1 14.1518 20.4415 14.1518 -8.94963
585 1 15.7242 18.8691 12.5794 -8.94966
586 1 17.2966 20.4415 14.1518 -8.94963
587 1 18.8691 18.8691 12.5794 -8.94963
588 1 20.4415 20.4415 14.1518 -8.94963
589 1 1.57238 11.007 17.2967 -8.94957
590 1 4.71682 11.007 17.2971 -8.95043
591 1 7.8617 11.007 17.3037 -8.98042
592 1 11.0068 11.007 17.2968 -8.95108
593 1 14.1518 11.007 17.2967 -8.9494
594 1 17.2966 11.007 17.2966 -8.94963
595 1 20.4415 11.007 17.2966 -8.94963
596 1 22.0139 12.5794 15.7242 -8.94981
597 1 1.57235 14.1518 17.2967 -8.9497
598 1 3.14399 12.5796 15.7245 -8.9517
599 1 4.71629 14.1528 17.2976 -8.94381
600 1 6.27773 12.5909 15.7355 -8.88494
601 1 7.86231 14.1519 17.297 -8.95142
602 1 9.43836 12.5839 15.7266 -8.92939
603 1 11.0073 14.1521 17.2976 -8.95114
604 1 12.58 12.5793 15.7246 -8.94921
605 1 14.1518 14.1518 17.2966 -8.94985
606 1 15.7243 12.5794 15.7242 -8.94962
607 1 17.2966 14.1518 17.2966 -8.94963
608 1 18.8691 12.5794 15.7242 -8.94965
609 1 20.4415 14.1518 17.2966 -8.94964
610 1 22.0139 15.7242 15.7242 -8.94963
611 1 1.57242 17.2966 17.2966 -8.94966
612 1 3.14483 15.7242 15.7242 -8.94985
613 1 4.71723 17.2967 17.2967 -8.94966
614 1 6.28934 15.7251 15.7245 -8.95114
615 1 7.86211 17.2967 17.2967 -8.94958
616 1 9.43433 15.7246 15.7243 -8.95142
617 1 11.0069 17.2966 17.2966 -8.94996
618 1 12.5803 15.7252 15.7252 -8.94381
619 1 14.1519 17.2967 17.2967 -8.94919
620 1 15.7243 15.7242 15.7242 -8.9497
621 1 17.2966 17.2966 17.2966 -8.94963
622 1 18.8691 15.7242 15.7242 -8.94964
623 1 20.4415 17.2966 17.2966 -8.94963
624 1 1.10568e-07 18.8691 15.7242 -8.94963
625 1 1.57242 20.4415 17.2966 -8.94963
626 1 3.14484 18.8691 15.7242 -8.94964
627 1 4.71726 20.4415 17.2966 -8.94964
628 1 6.28966 18.8691 15.7242 -8.94973
629 1 7.86211 20.4415 17.2966 -8.94963
630 1 9.43452 18.8691 15.7242 -8.94962
631 1 11.0069 20.4415 17.2966 -8.94963
632 1 12.5794 18.8691 15.7243 -8.94966
633 1 14.1518 20.4415 17.2966 -8.94962
634 1 15.7242 18.8691 15.7242 -8.94967
635 1 17.2966 20.4415 17.2966 -8.94964
636 1 18.8691 18.8691 15.7242 -8.94963
637 1 20.4415 20.4415 17.2966 -8.94963
638 1 1.57242 11.007 20.4415 -8.94966
639 1 4.71724 11.007 20.4415 -8.94956
640 1 7.86213 11.007 20.442 -8.95143
641 1 11.0069 11.007 20.4415 -8.94963
642 1 14.1518 11.007 20.4415 -8.94962
643 1 17.2966 11.007 20.4415 -8.94963
644 1 20.4415 11.007 20.4415 -8.94963
645 1 4.06689e-07 12.5794 18.8691 -8.94963
646 1 1.57242 14.1518 20.4415 -8.94967
647 1 3.14484 12.5794 18.8691 -8.94985
648 1 4.71722 14.1518 20.4416 -8.94966
649 1 6.28936 12.5797 18.87 -8.95132
650 1 7.86212 14.1518 20.4415 -8.94962
651 1 9.43481 12.5796 18.8695 -8.94891
652 1 11.007 14.1518 20.4415 -8.94973
653 1 12.5794 12.5794 18.8691 -8.94976
654 1 14.1518 14.1518 20.4415 -8.94964
655 1 15.7242 12.5794 18.8691 -8.94965
656 1 17.2966 14.1518 20.4415 -8.94963
657 1 18.8691 12.5794 18.8691 -8.94963
658 1 20.4415 14.1518 20.4415 -8.94963
659 1 22.0139 15.7242 18.8691 -8.94963
660 1 1.57242 17.2966 20.4415 -8.94961
661 1 3.14478 15.7243 18.8691 -8.94919
662 1 4.71727 17.2966 20.4415 -8.94968
663 1 6.2897 15.7242 18.869 -8.94996
371 1 9.43453 15.7242 22.0139 -8.94963
353 1 3.14484 12.5794 22.0139 -8.94963
361 1 15.7242 12.5794 22.0139 -8.94963
369 1 6.28969 15.7242 22.0139 -8.94963
365 1 1.86657e-07 15.7242 22.0139 -8.94964
381 1 3.14484 18.8691 22.0139 -8.94964
387 1 12.5794 18.8691 22.0139 -8.94963
537 1 14.1518 20.4415 11.007 -8.94963
530 1 14.1518 17.2966 11.007 -8.94985
