ITEM: TIMESTEP
108
ITEM: NUMBER OF ATOMS
687
ITEM: BOX BOUNDS pp pp pp
0.0000000000000000e+00 2.2013900999999997e+01
0.0000000000000000e+00 2.2013900999999997e+01
0.0000000000000000e+00 2.2013900999999997e+01
ITEM: ATOMS id type x y z c_pot
1 1 22.0135 -2.66188e-11 0.000278642 -8.94936
2 1 1.57198 1.57204 1.57242 -8.94957
196 1 20.4415 7.86178 11.007 -8.94991
4 1 4.717 1.57205 1.57242 -8.9495
5 1 6.2895 -3.02571e-11 0.000325145 -8.94951
6 1 7.86206 1.57206 1.57242 -8.94952
175 1 18.869 9.43457 9.4342 -8.94991
8 1 11.0071 1.5721 1.57242 -8.94951
9 1 12.5796 -3.7223e-11 0.000374932 -8.9495
10 1 14.1521 1.57214 1.57242 -8.94954
195 1 17.2993 7.86163 11.0066 -8.95182
12 1 17.297 1.57214 1.57242 -8.94936
13 1 18.8693 -4.79703e-11 0.000239403 -8.94923
14 1 20.4413 1.57218 1.57242 -8.94923
15 1 22.0132 3.14415 0.000389624 -8.94914
16 1 1.57144 4.71628 1.57242 -8.94951
194 1 14.1623 7.85783 11.0044 -8.95827
18 1 4.71681 4.71633 1.57242 -8.9496
174 1 15.7256 9.43517 9.43398 -8.9498
20 1 7.86216 4.71641 1.57242 -8.94955
173 1 12.5825 9.4367 9.43399 -8.95296
22 1 11.0074 4.71658 1.57242 -8.94954
193 1 11.0478 7.82459 10.9736 -8.8544
24 1 14.1524 4.71678 1.57242 -8.95008
25 1 15.7249 3.14426 0.00064334 -8.94947
26 1 17.2968 4.7171 1.57242 -8.94971
27 1 18.8691 3.14452 0.00031775 -8.94957
28 1 20.441 4.71688 1.57242 -8.94951
192 1 7.84741 7.85395 10.9826 -8.90431
30 1 1.57122 7.86146 1.57242 -8.94937
31 1 3.14348 6.28834 0.00132419 -8.95
32 1 4.71652 7.86139 1.57242 -8.95068
172 1 9.44923 9.41014 9.42637 -8.90432
34 1 7.86231 7.86161 1.57242 -8.9503
171 1 6.24886 9.40116 9.39701 -8.8544
36 1 11.0072 7.86207 1.57242 -8.95044
37 1 12.58 6.28923 0.00110409 -8.95073
38 1 14.1521 7.8622 1.57242 -8.94954
39 1 15.7246 6.28963 0.000421132 -8.94974
40 1 17.2967 7.86204 1.57242 -8.94953
41 1 18.8689 6.28946 0.000290646 -8.9495
42 1 20.4409 7.86184 1.57242 -8.9495
170 1 3.13439 9.432 9.43025 -8.95827
169 1 22.0113 9.43422 9.43405 -8.95182
45 1 6.28924 9.43432 0.0017424 -8.95147
46 1 9.4346 9.43464 0.00050826 -8.94943
47 1 12.5797 9.43469 0.000332113 -8.94935
168 1 18.8702 6.28909 9.43407 -8.95026
167 1 15.729 6.28731 9.43224 -8.95091
50 1 22.0135 -2.66188e-11 3.14456 -8.94936
51 1 1.57173 1.57178 4.71668 -8.94947
52 1 3.14449 -1.52528e-11 3.14456 -8.94954
53 1 4.71682 1.57182 4.71664 -8.94948
54 1 6.2895 -3.02579e-11 3.14452 -8.94951
55 1 7.86197 1.57187 4.71654 -8.94949
56 1 9.43457 -4.88401e-11 3.14448 -8.94952
57 1 11.0072 1.57189 4.71648 -8.94945
58 1 12.5796 -3.72233e-11 3.14447 -8.9495
59 1 14.1524 1.5719 4.7164 -8.9496
60 1 15.7247 -2.92008e-11 3.14446 -8.94957
61 1 17.2974 1.57203 4.71657 -8.94914
62 1 18.8693 -4.79695e-11 3.1446 -8.94923
63 1 20.4415 1.5721 4.71695 -8.94957
64 1 22.0132 3.14415 3.14445 -8.94914
65 1 1.57064 4.7155 4.71581 -8.94821
66 1 3.14421 3.14398 3.14432 -8.9496
67 1 4.71622 4.71556 4.71559 -8.94963
68 1 6.28945 3.14406 3.14431 -8.94945
69 1 7.86197 4.7158 4.71566 -8.94935
70 1 9.43467 3.14411 3.14429 -8.94949
71 1 11.0076 4.71596 4.71558 -8.94913
72 1 12.5798 3.14422 3.14424 -8.94948
73 1 14.1533 4.71595 4.71522 -8.94943
74 1 15.7249 3.14426 3.1442 -8.94947
75 1 17.2971 4.71686 4.71652 -8.94987
76 1 18.8691 3.14452 3.14453 -8.94957
77 1 20.4409 4.71663 4.71669 -8.94955
78 1 -0.000975738 6.28902 3.14433 -8.94945
79 1 1.57037 7.861 4.71559 -8.94917
80 1 3.14348 6.28834 3.14352 -8.95
81 1 4.71497 7.86015 4.71318 -8.95156
82 1 6.28938 6.28863 3.14362 -8.94975
83 1 7.86213 7.8608 4.71426 -8.95065
84 1 9.43491 6.28878 3.14375 -8.94967
85 1 11.0074 7.86164 4.71492 -8.95256
86 1 12.58 6.28923 3.14374 -8.95073
87 1 14.1523 7.86228 4.71641 -8.94964
88 1 15.7246 6.28963 3.14442 -8.94974
89 1 17.2968 7.86202 4.71669 -8.94942
90 1 18.8689 6.28946 3.14455 -8.9495
91 1 20.4407 7.86171 4.7166 -8.94943
92 1 22.0128 9.43426 3.14428 -8.94946
93 1 3.14319 9.43397 3.14341 -8.9494
94 1 6.28924 9.43432 3.1431 -8.95147
95 1 9.4346 9.43464 3.14433 -8.94943
96 1 12.5797 9.43469 3.14451 -8.94935
97 1 15.7245 9.43454 3.14449 -8.94954
98 1 18.8688 9.43444 3.14453 -8.94954
99 1 22.0137 2.43863e-10 6.28952 -8.94971
100 1 1.57207 1.572 7.86205 -8.94974
101 1 3.14423 -3.14521e-10 6.2892 -8.95008
102 1 4.71661 1.57132 7.86165 -8.95073
103 1 6.28928 -3.06047e-10 6.289 -8.94954
104 1 7.86173 1.57133 7.8612 -8.94967
105 1 9.43448 -3.8153e-10 6.28884 -8.94955
106 1 11.0073 1.57119 7.86105 -8.94975
107 1 12.5798 -3.51142e-10 6.28875 -8.9496
108 1 14.1532 1.5711 7.86076 -8.95
109 1 15.7252 -8.92014e-10 6.2887 -8.94951
110 1 17.2976 1.57191 7.86144 -8.94945
111 1 18.8695 -4.64389e-11 6.2893 -8.94951
112 1 20.4417 1.57213 7.86188 -8.9495
113 1 22.0134 3.1441 6.28929 -8.94987
114 1 1.57106 4.71591 7.86162 -8.95045
115 1 3.14334 3.1428 6.28837 -8.94943
116 1 4.71394 4.71225 7.85898 -8.94983
117 1 6.28906 3.14316 6.28838 -8.94913
118 1 7.86146 4.71359 7.85918 -8.94771
119 1 9.43466 3.14324 6.28822 -8.94935
120 1 11.0087 4.71313 7.85896 -8.94915
121 1 12.5804 3.14316 6.28798 -8.94963
122 1 14.1566 4.71278 7.85752 -8.94453
123 1 15.726 3.14339 6.28792 -8.94821
124 1 17.2985 4.7161 7.86083 -8.9497
125 1 18.8696 3.14427 6.28906 -8.94955
126 1 20.4415 4.71664 7.86174 -8.94988
127 1 22.012 6.28841 6.28852 -8.9497
128 1 1.56764 7.85982 7.85973 -8.95091
129 1 3.14001 6.2851 6.2852 -8.94453
130 1 4.70372 7.84981 7.84898 -8.92998
131 1 6.28797 6.28653 6.28555 -8.94915
132 1 7.86096 7.85646 7.85272 -8.95089
133 1 9.43518 6.28676 6.28601 -8.94771
134 1 11.0135 7.85482 7.85132 -8.95311
135 1 12.5827 6.28656 6.28467 -8.94983
136 1 14.1543 7.86181 7.86032 -8.95169
137 1 15.7256 6.2892 6.28834 -8.95045
138 1 17.2974 7.86209 7.86145 -8.94989
139 1 18.869 6.28932 6.28906 -8.94988
140 1 20.4404 7.86165 7.86151 -8.95026
141 1 -0.0021721 9.43402 6.28832 -8.94928
142 1 3.14025 9.43293 6.2854 -8.94759
143 1 6.28607 9.43299 6.28118 -8.95928
144 1 9.43378 9.43424 6.2881 -8.95186
145 1 12.5798 9.43517 6.28897 -8.94887
146 1 15.7249 9.43455 6.28876 -8.94898
147 1 18.8687 9.43439 6.28898 -8.94956
148 1 -6.87709e-05 -1.13555e-10 9.43446 -8.94953
149 1 3.14451 1.52009e-09 9.43462 -8.94954
150 1 6.28943 -1.09746e-09 9.43449 -8.95044
151 1 9.43433 -2.3432e-09 9.43403 -8.9503
152 1 12.5801 -4.01734e-09 9.43381 -8.95068
153 1 15.7254 -5.74331e-10 9.43388 -8.94937
154 1 18.8696 -5.33531e-11 9.43426 -8.9495
155 1 -0.000179872 3.14427 9.43444 -8.94942
156 1 3.1443 3.14399 9.4347 -8.94964
157 1 6.2892 3.1425 9.43406 -8.95256
158 1 9.43451 3.14184 9.43322 -8.95065
159 1 12.5817 3.14076 9.43257 -8.95156
160 1 15.7263 3.14316 9.43342 -8.94917
161 1 18.8699 3.14417 9.43413 -8.94943
162 1 22.0131 6.28903 9.43451 -8.94989
163 1 3.14229 6.28789 9.43424 -8.95169
164 1 6.28312 6.2789 9.42724 -8.95311
165 1 9.43568 6.2803 9.42888 -8.95089
166 1 12.5929 6.27656 9.42223 -8.92998
177 1 4.71694 1.57209 11.0071 -8.94935
178 1 7.86204 1.57191 11.0071 -8.94943
179 1 11.0074 1.57068 11.0067 -8.95147
191 1 4.71413 7.86157 11.0091 -8.95296
181 1 17.2977 1.57186 11.0067 -8.94946
182 1 20.4417 1.57211 11.0069 -8.94954
184 1 4.71688 4.71655 11.0076 -8.94887
185 1 7.86285 4.71568 11.0067 -8.95186
186 1 11.0106 4.70875 11.0054 -8.95928
190 1 1.57105 7.86156 11.0076 -8.9498
19 1 6.28945 3.14406 0.000529787 -8.94945
49 1 18.8688 9.43444 0.000310454 -8.94954
21 1 9.43467 3.14411 0.000552069 -8.94949
43 1 22.0128 9.43426 0.00056234 -8.94946
176 1 1.57212 1.57207 11.007 -8.94954
343 1 18.8687 9.43439 18.8698 -8.94956
342 1 15.7249 9.43455 18.87 -8.94898
341 1 12.5798 9.43517 18.8698 -8.94887
340 1 9.43378 9.43424 18.8706 -8.95186
339 1 6.28607 9.43299 18.8776 -8.95928
338 1 3.14025 9.43293 18.8733 -8.94759
183 1 1.57171 4.71633 11.007 -8.94898
337 1 -0.0021721 9.43402 18.8704 -8.94928
336 1 20.4407 7.86171 20.4421 -8.94943
335 1 18.869 6.28932 18.8697 -8.94988
334 1 17.2968 7.86202 20.4421 -8.94942
188 1 17.2988 4.7159 11.0064 -8.94928
189 1 20.4418 4.71656 11.0068 -8.94956
333 1 15.7256 6.2892 18.8704 -8.95045
332 1 14.1523 7.86228 20.4423 -8.94964
331 1 12.5827 6.28656 18.8741 -8.94983
330 1 11.0074 7.86164 20.4438 -8.95256
329 1 9.43518 6.28676 18.8727 -8.94771
328 1 7.86213 7.8608 20.4445 -8.95065
327 1 6.28797 6.28653 18.8732 -8.94915
197 1 -6.54815e-05 2.84744e-11 12.5794 -8.94956
198 1 1.57212 1.57207 14.1518 -8.94954
199 1 3.14448 3.62587e-10 12.5794 -8.94965
200 1 4.71694 1.57209 14.1516 -8.94935
201 1 6.28938 2.99659e-09 12.5794 -8.94912
202 1 7.86204 1.57191 14.1517 -8.94943
203 1 9.4344 -5.37989e-09 12.5794 -8.94848
204 1 11.0074 1.57068 14.152 -8.95147
205 1 12.5805 -3.98878e-09 12.5794 -8.95038
206 1 14.1534 1.57099 14.1524 -8.9494
207 1 15.7255 -7.28371e-10 12.5794 -8.94945
208 1 17.2977 1.57186 14.1521 -8.94946
209 1 18.8697 -8.07678e-11 12.5794 -8.94952
210 1 20.4417 1.57211 14.1519 -8.94954
211 1 22.0138 3.14426 12.5794 -8.94955
212 1 1.57171 4.71633 14.1518 -8.94898
213 1 3.14433 3.14411 12.5794 -8.94963
214 1 4.71688 4.71655 14.1512 -8.94887
215 1 6.28961 3.14484 12.5794 -8.9482
216 1 7.86285 4.71568 14.1521 -8.95186
217 1 9.43493 3.14402 12.5794 -8.94632
218 1 11.0106 4.70875 14.1533 -8.95928
219 1 12.5824 3.1406 12.5794 -8.94959
220 1 14.1564 4.71298 14.1534 -8.94759
221 1 15.7264 3.1431 12.5794 -8.94944
222 1 17.2988 4.7159 14.1523 -8.94928
223 1 18.8699 3.14413 12.5794 -8.94949
224 1 20.4418 4.71656 14.1519 -8.94956
225 1 -0.000483112 6.28884 12.5794 -8.94956
226 1 1.57105 7.86156 14.1512 -8.9498
227 1 3.14346 6.28811 12.5794 -8.94647
228 1 4.71413 7.86157 14.1496 -8.95296
229 1 6.29192 6.29219 12.5794 -8.94508
230 1 7.84741 7.85395 14.1762 -8.90431
231 1 9.43993 6.29315 12.5794 -9.00326
232 1 11.0478 7.82459 14.1852 -8.8544
233 1 12.5907 6.27896 12.5794 -8.94205
234 1 14.1623 7.85783 14.1543 -8.95827
235 1 15.7293 6.28687 12.5794 -8.94905
236 1 17.2993 7.86163 14.1521 -8.95182
237 1 18.8704 6.28889 12.5794 -8.94999
238 1 20.4415 7.86178 14.1518 -8.94991
239 1 22.0137 9.43428 12.5794 -8.9476
240 1 3.14769 9.43518 12.5794 -8.93981
241 1 6.31279 9.44438 12.5794 -8.90233
242 1 9.51164 9.20252 12.5794 -8.12171
243 1 12.5868 9.42656 12.5794 -8.97288
244 1 15.7264 9.43476 12.5794 -8.95106
245 1 18.8696 9.4346 12.5794 -8.94934
246 1 -6.87709e-05 -1.13555e-10 15.7243 -8.94953
247 1 1.57207 1.572 17.2967 -8.94974
248 1 3.14451 1.52009e-09 15.7241 -8.94954
249 1 4.71661 1.57132 17.2971 -8.95073
250 1 6.28943 -1.09746e-09 15.7243 -8.95044
251 1 7.86173 1.57133 17.2975 -8.94967
252 1 9.43433 -2.3432e-09 15.7247 -8.9503
253 1 11.0073 1.57119 17.2977 -8.94975
254 1 12.5801 -4.01734e-09 15.7249 -8.95068
255 1 14.1532 1.5711 17.298 -8.95
256 1 15.7254 -5.74331e-10 15.7249 -8.94937
257 1 17.2976 1.57191 17.2973 -8.94945
258 1 18.8696 -5.33524e-11 15.7245 -8.9495
259 1 20.4417 1.57213 17.2969 -8.9495
260 1 -0.000179872 3.14427 15.7243 -8.94942
261 1 1.57106 4.71591 17.2971 -8.95045
262 1 3.1443 3.14399 15.724 -8.94964
263 1 4.71394 4.71225 17.2998 -8.94983
264 1 6.2892 3.1425 15.7247 -8.95256
265 1 7.86146 4.71359 17.2996 -8.94771
266 1 9.43451 3.14184 15.7255 -8.95065
267 1 11.0087 4.71313 17.2998 -8.94915
268 1 12.5817 3.14076 15.7262 -8.95156
269 1 14.1566 4.71278 17.3012 -8.94453
270 1 15.7263 3.14316 15.7253 -8.94917
271 1 17.2985 4.7161 17.2979 -8.9497
272 1 18.8699 3.14417 15.7246 -8.94943
273 1 20.4415 4.71664 17.297 -8.94988
274 1 22.0131 6.28903 15.7242 -8.94989
275 1 1.56764 7.85982 17.299 -8.95091
276 1 3.14229 6.28789 15.7245 -8.95169
277 1 4.70372 7.84981 17.3098 -8.92998
278 1 6.28312 6.2789 15.7315 -8.95311
279 1 7.86096 7.85646 17.306 -8.95089
280 1 9.43568 6.2803 15.7299 -8.95089
281 1 11.0135 7.85482 17.3074 -8.95311
282 1 12.5929 6.27656 15.7365 -8.92998
283 1 14.1543 7.86181 17.2984 -8.95169
284 1 15.729 6.28731 15.7265 -8.95091
285 1 17.2974 7.86209 17.2973 -8.94989
286 1 18.8702 6.28909 15.7247 -8.95026
287 1 20.4404 7.86165 17.2972 -8.95026
288 1 22.0113 9.43422 15.7247 -8.95182
289 1 3.13439 9.432 15.7285 -8.95827
290 1 6.24886 9.40116 15.7617 -8.8544
291 1 9.44923 9.41014 15.7324 -8.90432
292 1 12.5825 9.4367 15.7248 -8.95296
293 1 15.7256 9.43517 15.7248 -8.9498
294 1 18.869 9.43457 15.7245 -8.94991
295 1 22.0137 2.43863e-10 18.8692 -8.94971
296 1 1.57173 1.57178 20.4421 -8.94947
297 1 3.14423 -3.14521e-10 18.8695 -8.95008
298 1 4.71682 1.57182 20.4421 -8.94948
299 1 6.28928 -3.06046e-10 18.8697 -8.94954
300 1 7.86197 1.57187 20.4422 -8.94949
301 1 9.43448 -3.81531e-10 18.8699 -8.94955
302 1 11.0072 1.57189 20.4423 -8.94945
303 1 12.5798 -3.51142e-10 18.87 -8.9496
304 1 14.1524 1.5719 20.4423 -8.9496
305 1 15.7252 -8.92014e-10 18.87 -8.94951
306 1 17.2974 1.57203 20.4422 -8.94914
307 1 18.8695 -4.64383e-11 18.8694 -8.94951
308 1 20.4415 1.5721 20.4418 -8.94957
309 1 22.0134 3.1441 18.8695 -8.94987
310 1 1.57064 4.7155 20.4429 -8.94821
311 1 3.14334 3.1428 18.8704 -8.94943
312 1 4.71622 4.71556 20.4432 -8.94963
313 1 6.28906 3.14316 18.8704 -8.94913
314 1 7.86197 4.7158 20.4431 -8.94935
315 1 9.43466 3.14324 18.8705 -8.94935
316 1 11.0076 4.71596 20.4432 -8.94913
317 1 12.5804 3.14316 18.8708 -8.94963
318 1 14.1533 4.71595 20.4435 -8.94943
319 1 15.726 3.14339 18.8708 -8.94821
320 1 17.2971 4.71686 20.4422 -8.94987
321 1 18.8696 3.14427 18.8697 -8.94955
322 1 20.4409 4.71663 20.4421 -8.94955
323 1 22.012 6.28841 18.8702 -8.9497
324 1 1.57037 7.861 20.4432 -8.94917
325 1 3.14001 6.2851 18.8735 -8.94453
326 1 4.71497 7.86015 20.4456 -8.95156
7 1 9.43457 -4.88394e-11 22.0143 -8.94952
48 1 15.7245 9.43454 22.0143 -8.94954
44 1 3.14319 9.43397 22.0153 -8.9494
33 1 6.28938 6.28863 22.0151 -8.94975
35 1 9.43491 6.28878 22.015 -8.94967
3 1 3.14449 -1.52521e-11 22.0142 -8.94954
11 1 15.7247 -2.92022e-11 22.0143 -8.94957
17 1 3.14421 3.14398 22.0144 -8.9496
23 1 12.5798 3.14422 22.0145 -8.94948
29 1 -0.000975738 6.28902 22.0144 -8.94945
180 1 14.1534 1.57099 11.0064 -8.9494
187 1 14.1564 4.71298 11.0053 -8.94759
344 1 1.57113 11.007 1.57242 -8.94945
345 1 4.71616 11.007 1.57242 -8.95038
346 1 7.86223 11.007 1.57242 -8.94848
347 1 11.0073 11.007 1.57242 -8.94912
348 1 14.1522 11.007 1.57242 -8.94965
349 1 17.2967 11.007 1.57242 -8.94956
350 1 20.4409 11.007 1.57242 -8.94952
511 1 18.8699 18.8697 9.43413 -8.94943
352 1 1.57122 14.1524 1.57242 -8.94937
510 1 15.7263 18.8707 9.43342 -8.94917
354 1 4.71652 14.1525 1.57242 -8.95068
355 1 6.28924 12.5796 0.00174239 -8.95147
356 1 7.86231 14.1523 1.57242 -8.9503
357 1 9.4346 12.5793 0.000508259 -8.94943
358 1 11.0072 14.1518 1.57242 -8.95044
359 1 12.5797 12.5792 0.00033211 -8.94935
360 1 14.1521 14.1517 1.57242 -8.94954
509 1 12.5817 18.8731 9.43257 -8.95156
362 1 17.2967 14.1519 1.57242 -8.94953
508 1 9.43451 18.8721 9.43322 -8.95065
364 1 20.4409 14.1521 1.57242 -8.9495
539 1 20.4417 20.4418 11.0069 -8.94954
366 1 1.57144 17.2976 1.57242 -8.94951
367 1 3.14348 15.7256 0.00132419 -8.95
368 1 4.71681 17.2976 1.57242 -8.9496
507 1 6.2892 18.8714 9.43406 -8.95256
370 1 7.86216 17.2975 1.57242 -8.94955
506 1 3.1443 18.8699 9.4347 -8.94964
372 1 11.0074 17.2973 1.57242 -8.94954
373 1 12.58 15.7247 0.00110409 -8.95073
374 1 14.1524 17.2971 1.57242 -8.95008
375 1 15.7246 15.7243 0.000421131 -8.94974
376 1 17.2968 17.2968 1.57242 -8.94971
377 1 18.8689 15.7244 0.000290646 -8.9495
378 1 20.441 17.297 1.57242 -8.94951
379 1 22.0132 18.8698 0.000389624 -8.94914
380 1 1.57198 20.4419 1.57242 -8.94957
538 1 17.2977 20.442 11.0067 -8.94946
382 1 4.717 20.4419 1.57242 -8.9495
505 1 -0.000179872 18.8696 9.43444 -8.94942
384 1 7.86206 20.4418 1.57242 -8.94952
504 1 18.8702 15.7248 9.43407 -8.95026
386 1 11.0071 20.4418 1.57242 -8.94951
536 1 11.0074 20.4432 11.0067 -8.95147
388 1 14.1521 20.4418 1.57242 -8.94954
389 1 15.7249 18.8696 0.000643339 -8.94947
390 1 17.297 20.4418 1.57242 -8.94936
391 1 18.8691 18.8694 0.00031775 -8.94957
392 1 20.4413 20.4417 1.57242 -8.94923
393 1 1.57024 11.007 4.71552 -8.94944
394 1 4.71428 11.007 4.71303 -8.94959
395 1 7.86171 11.007 4.71644 -8.94632
396 1 11.007 11.007 4.71726 -8.9482
397 1 14.1523 11.007 4.71653 -8.94963
398 1 17.2968 11.007 4.71668 -8.94955
399 1 20.4406 11.007 4.71655 -8.94949
400 1 22.0128 12.5796 3.14428 -8.94946
401 1 1.57037 14.1529 4.71559 -8.94917
402 1 3.14319 12.5799 3.14341 -8.9494
403 1 4.71497 14.1538 4.71318 -8.95156
404 1 6.28924 12.5796 3.1431 -8.95147
405 1 7.86213 14.1531 4.71426 -8.95065
406 1 9.4346 12.5793 3.14433 -8.94943
407 1 11.0074 14.1523 4.71492 -8.95256
408 1 12.5797 12.5792 3.14451 -8.94935
409 1 14.1523 14.1516 4.71641 -8.94964
410 1 15.7245 12.5794 3.14449 -8.94954
411 1 17.2968 14.1519 4.71669 -8.94942
412 1 18.8688 12.5795 3.14453 -8.94954
413 1 20.4407 14.1522 4.7166 -8.94943
414 1 -0.000975738 15.7249 3.14433 -8.94945
415 1 1.57064 17.2984 4.71581 -8.94821
416 1 3.14348 15.7256 3.14352 -8.95
417 1 4.71622 17.2983 4.71559 -8.94963
418 1 6.28938 15.7253 3.14362 -8.94975
419 1 7.86197 17.2981 4.71566 -8.94935
420 1 9.43491 15.7251 3.14375 -8.94967
421 1 11.0076 17.2979 4.71558 -8.94913
422 1 12.58 15.7247 3.14374 -8.95073
423 1 14.1533 17.298 4.71522 -8.94943
424 1 15.7246 15.7243 3.14442 -8.94974
425 1 17.2971 17.297 4.71652 -8.94987
426 1 18.8689 15.7244 3.14455 -8.9495
427 1 20.4409 17.2973 4.71669 -8.94955
428 1 22.0132 18.8698 3.14445 -8.94914
429 1 1.57173 20.4421 4.71668 -8.94947
430 1 3.14421 18.8699 3.14432 -8.9496
431 1 4.71682 20.4421 4.71664 -8.94948
432 1 6.28945 18.8698 3.14431 -8.94945
433 1 7.86197 20.442 4.71654 -8.94949
434 1 9.43467 18.8698 3.14429 -8.94949
435 1 11.0072 20.442 4.71648 -8.94945
436 1 12.5798 18.8697 3.14424 -8.94948
437 1 14.1524 20.442 4.7164 -8.9496
438 1 15.7249 18.8696 3.1442 -8.94947
439 1 17.2974 20.4419 4.71657 -8.94914
440 1 18.8691 18.8694 3.14453 -8.94957
441 1 20.4415 20.4418 4.71695 -8.94957
442 1 1.56737 11.007 7.85929 -8.94905
443 1 4.70598 11.007 7.85138 -8.94205
444 1 7.85671 11.007 7.86558 -9.00326
445 1 11.0047 11.007 7.86461 -8.94508
446 1 14.1532 11.007 7.86053 -8.94647
447 1 17.2971 11.007 7.86126 -8.94956
448 1 20.4401 11.007 7.86131 -8.94999
449 1 -0.0021721 12.5799 6.28832 -8.94928
450 1 1.56764 14.1541 7.85973 -8.95091
451 1 3.14025 12.581 6.2854 -8.94759
452 1 4.70372 14.1641 7.84898 -8.92998
453 1 6.28607 12.5809 6.28118 -8.95928
454 1 7.86096 14.1574 7.85272 -8.95089
455 1 9.43378 12.5797 6.2881 -8.95186
456 1 11.0135 14.1591 7.85132 -8.95311
457 1 12.5798 12.5787 6.28897 -8.94887
458 1 14.1543 14.1521 7.86032 -8.95169
459 1 15.7249 12.5794 6.28876 -8.94898
460 1 17.2974 14.1518 7.86145 -8.94989
461 1 18.8687 12.5795 6.28898 -8.94956
462 1 20.4404 14.1523 7.86151 -8.95026
463 1 22.012 15.7255 6.28852 -8.9497
464 1 1.57106 17.298 7.86162 -8.95045
465 1 3.14001 15.7288 6.2852 -8.94453
466 1 4.71394 17.3017 7.85898 -8.94983
467 1 6.28797 15.7274 6.28555 -8.94915
468 1 7.86146 17.3003 7.85918 -8.94771
469 1 9.43518 15.7271 6.28601 -8.94771
470 1 11.0087 17.3008 7.85896 -8.94915
471 1 12.5827 15.7273 6.28467 -8.94983
472 1 14.1566 17.3011 7.85752 -8.94453
473 1 15.7256 15.7247 6.28834 -8.95045
474 1 17.2985 17.2978 7.86083 -8.9497
475 1 18.869 15.7246 6.28906 -8.94988
476 1 20.4415 17.2973 7.86174 -8.94988
477 1 22.0134 18.8698 6.28929 -8.94987
478 1 1.57207 20.4419 7.86205 -8.94974
479 1 3.14334 18.8711 6.28837 -8.94943
480 1 4.71661 20.4426 7.86165 -8.95073
481 1 6.28906 18.8707 6.28838 -8.94913
482 1 7.86173 20.4426 7.8612 -8.94967
483 1 9.43466 18.8707 6.28822 -8.94935
484 1 11.0073 20.4427 7.86105 -8.94975
485 1 12.5804 18.8707 6.28798 -8.94963
486 1 14.1532 20.4428 7.86076 -8.95
487 1 15.726 18.8705 6.28792 -8.94821
488 1 17.2976 20.442 7.86144 -8.94945
489 1 18.8696 18.8696 6.28906 -8.94955
490 1 20.4417 20.4418 7.86188 -8.9495
491 1 22.0113 12.5797 9.43405 -8.95182
492 1 3.13439 12.5819 9.43025 -8.95827
493 1 6.24886 12.6127 9.39701 -8.8544
494 1 9.44923 12.6038 9.42637 -8.90432
495 1 12.5825 12.5772 9.43399 -8.95296
496 1 15.7256 12.5787 9.43398 -8.9498
497 1 18.869 12.5793 9.4342 -8.94991
498 1 22.0131 15.7249 9.43451 -8.94989
499 1 3.14229 15.726 9.43424 -8.95169
500 1 6.28312 15.735 9.42724 -8.95311
501 1 9.43568 15.7336 9.42888 -8.95089
502 1 12.5929 15.7373 9.42223 -8.92998
503 1 15.729 15.7266 9.43224 -8.95091
512 1 1.57022 11.007 11.0072 -8.95106
513 1 4.70989 11.007 10.999 -8.97288
514 1 7.785 11.007 10.7749 -8.1217
515 1 10.9838 11.007 11.0168 -8.90233
516 1 14.1489 11.007 11.0076 -8.93981
517 1 17.2968 11.007 11.0067 -8.9476
518 1 20.4409 11.007 11.007 -8.94934
519 1 1.57105 14.1523 11.0076 -8.9498
520 1 4.71413 14.1523 11.0091 -8.95296
521 1 7.84741 14.16 10.9826 -8.90431
522 1 11.0478 14.1893 10.9736 -8.8544
523 1 14.1623 14.1561 11.0044 -8.95827
524 1 17.2993 14.1523 11.0066 -8.95182
525 1 20.4415 14.1521 11.007 -8.94991
527 1 4.71688 17.2973 11.0076 -8.94887
528 1 7.86285 17.2982 11.0067 -8.95186
529 1 11.0106 17.3051 11.0054 -8.95928
535 1 7.86204 20.442 11.0071 -8.94943
534 1 4.71694 20.4418 11.0071 -8.94935
351 1 22.0128 12.5796 0.000562339 -8.94946
385 1 9.43467 18.8698 0.000552069 -8.94949
383 1 6.28945 18.8698 0.000529787 -8.94945
363 1 18.8688 12.5795 0.000310454 -8.94954
687 3 8.64832 11.007 12.5794 2.30853
686 1 20.4415 20.4418 20.4418 -8.94957
685 1 18.8696 18.8696 18.8697 -8.94955
684 1 17.2974 20.4419 20.4422 -8.94914
683 1 15.726 18.8705 18.8708 -8.94821
682 1 14.1524 20.442 20.4423 -8.9496
681 1 12.5804 18.8707 18.8708 -8.94963
680 1 11.0072 20.442 20.4423 -8.94945
679 1 9.43466 18.8707 18.8705 -8.94935
678 1 7.86197 20.442 20.4422 -8.94949
677 1 6.28906 18.8707 18.8704 -8.94913
676 1 4.71682 20.4421 20.4421 -8.94948
675 1 3.14334 18.8711 18.8704 -8.94943
674 1 1.57173 20.4421 20.4421 -8.94947
526 1 1.57171 17.2976 11.007 -8.94898
673 1 22.0134 18.8698 18.8695 -8.94987
672 1 20.4409 17.2973 20.4421 -8.94955
671 1 18.869 15.7246 18.8697 -8.94988
670 1 17.2971 17.297 20.4422 -8.94987
531 1 17.2988 17.298 11.0064 -8.94928
532 1 20.4418 17.2973 11.0068 -8.94956
533 1 1.57212 20.4418 11.007 -8.94954
669 1 15.7256 15.7247 18.8704 -8.95045
668 1 14.1533 17.298 20.4435 -8.94943
667 1 12.5827 15.7273 18.8741 -8.94983
666 1 11.0076 17.2979 20.4432 -8.94913
665 1 9.43518 15.7271 18.8727 -8.94771
664 1 7.86197 17.2981 20.4431 -8.94935
540 1 1.57022 11.007 14.1516 -8.95106
541 1 4.70989 11.007 14.1598 -8.97288
542 1 7.785 11.007 14.3838 -8.1217
543 1 10.9838 11.007 14.1419 -8.90233
544 1 14.1489 11.007 14.1511 -8.93981
545 1 17.2968 11.007 14.152 -8.9476
546 1 20.4409 11.007 14.1517 -8.94934
547 1 22.0137 12.5796 12.5794 -8.9476
548 1 1.57105 14.1523 14.1512 -8.9498
549 1 3.14769 12.5787 12.5794 -8.93981
550 1 4.71413 14.1523 14.1496 -8.95296
551 1 6.31279 12.5695 12.5794 -8.90233
552 1 7.84741 14.16 14.1762 -8.90431
553 1 9.51164 12.8114 12.5794 -8.1217
554 1 11.0478 14.1893 14.1852 -8.8544
555 1 12.5868 12.5873 12.5794 -8.97288
556 1 14.1623 14.1561 14.1543 -8.95827
557 1 15.7264 12.5791 12.5794 -8.95106
558 1 17.2993 14.1523 14.1521 -8.95182
559 1 18.8696 12.5793 12.5794 -8.94934
560 1 20.4415 14.1521 14.1518 -8.94991
561 1 -0.00048312 15.7251 12.5794 -8.94956
562 1 1.57171 17.2976 14.1518 -8.94898
563 1 3.14346 15.7258 12.5794 -8.94647
564 1 4.71688 17.2973 14.1512 -8.94887
565 1 6.29192 15.7217 12.5794 -8.94508
566 1 7.86285 17.2982 14.1521 -8.95186
567 1 9.43993 15.7207 12.5794 -9.00326
568 1 11.0106 17.3051 14.1533 -8.95928
569 1 12.5907 15.7349 12.5794 -8.94205
570 1 14.1564 17.3009 14.1534 -8.94759
571 1 15.7293 15.727 12.5794 -8.94905
572 1 17.2988 17.298 14.1523 -8.94928
573 1 18.8704 15.725 12.5794 -8.94999
574 1 20.4418 17.2973 14.1519 -8.94956
575 1 22.0138 18.8696 12.5794 -8.94955
576 1 1.57212 20.4418 14.1518 -8.94954
577 1 3.14433 18.8698 12.5794 -8.94963
578 1 4.71694 20.4418 14.1516 -8.94935
579 1 6.28961 18.8691 12.5794 -8.9482
580 1 7.86204 20.442 14.1517 -8.94943
581 1 9.43493 18.8699 12.5794 -8.94632
582 1 11.0074 20.4432 14.152 -8.95147
583 1 12.5824 18.8733 12.5794 -8.94959
584 1 14.1534 20.4429 14.1524 -8.9494
585 1 15.7264 18.8708 12.5794 -8.94944
586 1 17.2977 20.442 14.1521 -8.94946
587 1 18.8699 18.8698 12.5794 -8.94949
588 1 20.4417 20.4418 14.1519 -8.94954
589 1 1.56737 11.007 17.2995 -8.94905
590 1 4.70598 11.007 17.3074 -8.94205
591 1 7.85671 11.007 17.2932 -9.00326
592 1 11.0047 11.007 17.2941 -8.94508
593 1 14.1532 11.007 17.2982 -8.94647
594 1 17.2971 11.007 17.2975 -8.94956
595 1 20.4401 11.007 17.2974 -8.94999
596 1 22.0113 12.5797 15.7247 -8.95182
597 1 1.56764 14.1541 17.299 -8.95091
598 1 3.13439 12.5819 15.7285 -8.95827
599 1 4.70372 14.1641 17.3098 -8.92998
600 1 6.24886 12.6127 15.7617 -8.8544
601 1 7.86096 14.1574 17.306 -8.95089
602 1 9.44923 12.6038 15.7324 -8.90432
603 1 11.0135 14.1591 17.3074 -8.95311
604 1 12.5825 12.5772 15.7248 -8.95296
605 1 14.1543 14.1521 17.2984 -8.95169
606 1 15.7256 12.5787 15.7248 -8.9498
607 1 17.2974 14.1518 17.2973 -8.94989
608 1 18.869 12.5793 15.7245 -8.94991
609 1 20.4404 14.1523 17.2972 -8.95026
610 1 22.0131 15.7249 15.7242 -8.94989
611 1 1.57106 17.298 17.2971 -8.95045
612 1 3.14229 15.726 15.7245 -8.95169
613 1 4.71394 17.3017 17.2998 -8.94983
614 1 6.28312 15.735 15.7315 -8.95311
615 1 7.86146 17.3003 17.2996 -8.94771
616 1 9.43568 15.7336 15.7299 -8.95089
617 1 11.0087 17.3008 17.2998 -8.94915
618 1 12.5929 15.7373 15.7365 -8.92998
619 1 14.1566 17.3011 17.3012 -8.94453
620 1 15.729 15.7266 15.7265 -8.95091
621 1 17.2985 17.2978 17.2979 -8.9497
622 1 18.8702 15.7248 15.7247 -8.95026
623 1 20.4415 17.2973 17.297 -8.94988
624 1 -0.000179872 18.8696 15.7243 -8.94942
625 1 1.57207 20.4419 17.2967 -8.94974
626 1 3.1443 18.8699 15.724 -8.94964
627 1 4.71661 20.4426 17.2971 -8.95073
628 1 6.2892 18.8714 15.7247 -8.95256
629 1 7.86173 20.4426 17.2975 -8.94967
630 1 9.43451 18.8721 15.7255 -8.95065
631 1 11.0073 20.4427 17.2977 -8.94975
632 1 12.5817 18.8731 15.7262 -8.95156
633 1 14.1532 20.4428 17.298 -8.95
634 1 15.7263 18.8707 15.7253 -8.94917
635 1 17.2976 20.442 17.2973 -8.94945
636 1 18.8699 18.8697 15.7246 -8.94943
637 1 20.4417 20.4418 17.2969 -8.9495
638 1 1.57024 11.007 20.4432 -8.94944
639 1 4.71428 11.007 20.4457 -8.94959
640 1 7.86171 11.007 20.4423 -8.94632
641 1 11.007 11.007 20.4415 -8.9482
642 1 14.1523 11.007 20.4422 -8.94963
643 1 17.2968 11.007 20.4421 -8.94955
644 1 20.4406 11.007 20.4422 -8.94949
645 1 -0.0021721 12.5799 18.8704 -8.94928
646 1 1.57037 14.1529 20.4432 -8.94917
647 1 3.14025 12.581 18.8733 -8.94759
648 1 4.71497 14.1538 20.4456 -8.95156
649 1 6.28607 12.5809 18.8776 -8.95928
650 1 7.86213 14.1531 20.4445 -8.95065
651 1 9.43378 12.5797 18.8706 -8.95186
652 1 11.0074 14.1523 20.4438 -8.95256
653 1 12.5798 12.5787 18.8698 -8.94887
654 1 14.1523 14.1516 20.4423 -8.94964
655 1 15.7249 12.5794 18.87 -8.94898
656 1 17.2968 14.1519 20.4421 -8.94942
657 1 18.8687 12.5795 18.8698 -8.94956
658 1 20.4407 14.1522 20.4421 -8.94943
659 1 22.012 15.7255 18.8702 -8.9497
660 1 1.57064 17.2984 20.4429 -8.94821
661 1 3.14001 15.7288 18.8735 -8.94453
662 1 4.71622 17.2983 20.4432 -8.94963
663 1 6.28797 15.7274 18.8732 -8.94915
371 1 9.43491 15.7251 22.015 -8.94967
353 1 3.14319 12.5799 22.0153 -8.9494
361 1 15.7245 12.5794 22.0143 -8.94954
369 1 6.28938 15.7253 22.0151 -8.94975
365 1 -0.000975738 15.7249 22.0144 -8.94945
381 1 3.14421 18.8699 22.0144 -8.9496
387 1 12.5798 18.8697 22.0145 -8.94948
537 1 14.1534 20.4429 11.0064 -8.9494
530 1 14.1564 17.3009 11.0053 -8.94759
