ITEM: TIMESTEP
33
ITEM: NUMBER OF ATOMS
687
ITEM: BOX BOUNDS pp pp pp
0.0000000000000000e+00 2.2013900999999997e+01
0.0000000000000000e+00 2.2013900999999997e+01
0.0000000000000000e+00 2.2013900999999997e+01
ITEM: ATOMS id type x y z c_pot
1 1 22.0139 -8.79211e-17 1.60569e-12 -8.94963
2 1 1.57242 1.57242 1.57242 -8.94963
196 1 20.4415 7.86211 11.007 -8.94963
4 1 4.71726 1.57242 1.57242 -8.94963
5 1 6.28969 1.34356e-16 3.01867e-11 -8.94963
6 1 7.86211 1.57242 1.57242 -8.94963
175 1 18.8691 9.43453 9.43453 -8.94963
8 1 11.007 1.57242 1.57242 -8.94963
9 1 12.5794 2.87151e-16 3.59327e-11 -8.94963
10 1 14.1518 1.57242 1.57242 -8.94963
195 1 17.2966 7.86211 11.007 -8.94964
12 1 17.2966 1.57242 1.57242 -8.94963
13 1 18.8691 1.63061e-16 6.1019e-13 -8.94963
14 1 20.4415 1.57242 1.57242 -8.94963
15 1 22.0139 3.14484 3.6113e-11 -8.94963
16 1 1.57242 4.71726 1.57242 -8.94963
194 1 14.1518 7.8621 11.0069 -8.94981
18 1 4.71726 4.71726 1.57242 -8.94963
174 1 15.7242 9.43453 9.43453 -8.94964
20 1 7.86211 4.71726 1.57242 -8.94963
173 1 12.5794 9.43449 9.43451 -8.94931
22 1 11.007 4.71726 1.57242 -8.94963
193 1 11.0079 7.86119 11.006 -8.92914
24 1 14.1518 4.71726 1.57242 -8.94963
25 1 15.7242 3.14484 1.01052e-10 -8.94963
26 1 17.2966 4.71726 1.57242 -8.94963
27 1 18.8691 3.14484 5.06761e-13 -8.94963
28 1 20.4415 4.71726 1.57242 -8.94963
192 1 7.86175 7.86187 11.0066 -8.94329
30 1 1.57242 7.86211 1.57242 -8.94963
31 1 3.14484 6.28969 9.5036e-09 -8.94963
32 1 4.71726 7.86211 1.57242 -8.94963
172 1 9.43488 9.43415 9.43429 -8.94329
34 1 7.86211 7.86211 1.57242 -8.94963
171 1 6.28873 9.43356 9.43361 -8.92914
36 1 11.007 7.86211 1.57242 -8.94963
37 1 12.5794 6.28969 8.09159e-09 -8.94963
38 1 14.1518 7.86211 1.57242 -8.94963
39 1 15.7242 6.28969 2.0171e-11 -8.94963
40 1 17.2966 7.86211 1.57242 -8.94963
41 1 18.8691 6.28969 -3.29685e-12 -8.94963
42 1 20.4415 7.86211 1.57242 -8.94963
170 1 3.14483 9.43452 9.43453 -8.94981
169 1 22.0139 9.43453 9.43453 -8.94964
45 1 6.28969 9.43453 3.7457e-07 -8.94964
46 1 9.43453 9.43453 2.65866e-07 -8.94963
47 1 12.5794 9.43453 -7.15058e-10 -8.94963
168 1 18.8691 6.28969 9.43453 -8.94963
167 1 15.7242 6.28969 9.43453 -8.94963
50 1 22.0139 -1.18854e-16 3.14484 -8.94963
51 1 1.57242 1.57242 4.71726 -8.94963
52 1 3.14484 1.17367e-16 3.14484 -8.94963
53 1 4.71726 1.57242 4.71726 -8.94963
54 1 6.28969 1.50629e-16 3.14484 -8.94963
55 1 7.86211 1.57242 4.71726 -8.94963
56 1 9.43453 1.27212e-16 3.14484 -8.94963
57 1 11.007 1.57242 4.71726 -8.94963
58 1 12.5794 2.65815e-16 3.14484 -8.94963
59 1 14.1518 1.57242 4.71726 -8.94963
60 1 15.7242 2.36817e-16 3.14484 -8.94963
61 1 17.2966 1.57242 4.71726 -8.94963
62 1 18.8691 1.73521e-16 3.14484 -8.94963
63 1 20.4415 1.57242 4.71726 -8.94963
64 1 22.0139 3.14484 3.14484 -8.94963
65 1 1.57242 4.71726 4.71726 -8.94963
66 1 3.14484 3.14484 3.14484 -8.94963
67 1 4.71726 4.71726 4.71726 -8.94963
68 1 6.28969 3.14484 3.14484 -8.94963
69 1 7.86211 4.71726 4.71726 -8.94963
70 1 9.43453 3.14484 3.14484 -8.94963
71 1 11.007 4.71726 4.71726 -8.94963
72 1 12.5794 3.14484 3.14484 -8.94963
73 1 14.1518 4.71726 4.71726 -8.94963
74 1 15.7242 3.14484 3.14484 -8.94963
75 1 17.2966 4.71726 4.71726 -8.94963
76 1 18.8691 3.14484 3.14484 -8.94963
77 1 20.4415 4.71726 4.71726 -8.94963
78 1 2.50251e-10 6.28969 3.14484 -8.94963
79 1 1.57242 7.86211 4.71726 -8.94963
80 1 3.14484 6.28969 3.14484 -8.94963
81 1 4.71726 7.86211 4.71726 -8.94963
82 1 6.28969 6.28969 3.14484 -8.94963
83 1 7.86211 7.86211 4.71726 -8.94964
84 1 9.43453 6.28969 3.14484 -8.94963
85 1 11.007 7.86211 4.71726 -8.94963
86 1 12.5794 6.28969 3.14484 -8.94963
87 1 14.1518 7.86211 4.71726 -8.94963
88 1 15.7242 6.28969 3.14484 -8.94963
89 1 17.2966 7.86211 4.71726 -8.94963
90 1 18.8691 6.28969 3.14484 -8.94963
91 1 20.4415 7.86211 4.71726 -8.94963
92 1 22.0139 9.43453 3.14484 -8.94963
93 1 3.14484 9.43453 3.14484 -8.94963
94 1 6.28969 9.43453 3.14484 -8.94964
95 1 9.43453 9.43453 3.14484 -8.94963
96 1 12.5794 9.43453 3.14484 -8.94963
97 1 15.7242 9.43453 3.14484 -8.94963
98 1 18.8691 9.43453 3.14484 -8.94963
99 1 22.0139 1.94967e-16 6.28969 -8.94963
100 1 1.57242 1.57242 7.86211 -8.94963
101 1 3.14484 -1.32313e-18 6.28969 -8.94963
102 1 4.71726 1.57242 7.86211 -8.94963
103 1 6.28969 7.76735e-17 6.28969 -8.94963
104 1 7.86211 1.57242 7.86211 -8.94963
105 1 9.43453 -4.2059e-17 6.28969 -8.94963
106 1 11.007 1.57242 7.86211 -8.94963
107 1 12.5794 6.3379e-17 6.28969 -8.94963
108 1 14.1518 1.57242 7.86211 -8.94963
109 1 15.7242 4.39844e-16 6.28969 -8.94963
110 1 17.2966 1.57242 7.86211 -8.94963
111 1 18.8691 2.54248e-16 6.28969 -8.94963
112 1 20.4415 1.57242 7.86211 -8.94963
113 1 22.0139 3.14484 6.28969 -8.94963
114 1 1.57242 4.71726 7.86211 -8.94963
115 1 3.14484 3.14484 6.28969 -8.94963
116 1 4.71726 4.71726 7.86211 -8.94963
117 1 6.28969 3.14484 6.28969 -8.94963
118 1 7.86211 4.71727 7.86211 -8.94964
119 1 9.43453 3.14484 6.28969 -8.94963
120 1 11.007 4.71727 7.86211 -8.94967
121 1 12.5794 3.14484 6.28969 -8.94963
122 1 14.1518 4.71726 7.86211 -8.94962
123 1 15.7242 3.14484 6.28969 -8.94963
124 1 17.2966 4.71726 7.86211 -8.94963
125 1 18.8691 3.14484 6.28969 -8.94963
126 1 20.4415 4.71726 7.86211 -8.94963
127 1 22.0139 6.28969 6.28969 -8.94963
128 1 1.57242 7.86211 7.86211 -8.94963
129 1 3.14484 6.28969 6.28969 -8.94962
130 1 4.71725 7.86209 7.86209 -8.9492
131 1 6.28969 6.28969 6.28969 -8.94967
132 1 7.86211 7.86214 7.86213 -8.95061
133 1 9.43453 6.28969 6.28969 -8.94964
134 1 11.007 7.8621 7.86209 -8.94976
135 1 12.5794 6.28969 6.28969 -8.94963
136 1 14.1518 7.86211 7.86211 -8.94965
137 1 15.7242 6.28969 6.28969 -8.94963
138 1 17.2966 7.86211 7.86211 -8.94963
139 1 18.8691 6.28969 6.28969 -8.94963
140 1 20.4415 7.86211 7.86211 -8.94963
141 1 1.32682e-08 9.43453 6.28969 -8.94963
142 1 3.14484 9.43453 6.28969 -8.94967
143 1 6.28968 9.43452 6.28966 -8.94967
144 1 9.43454 9.43452 6.28967 -8.94949
145 1 12.5794 9.43453 6.28969 -8.94965
146 1 15.7242 9.43453 6.28969 -8.94963
147 1 18.8691 9.43453 6.28969 -8.94963
148 1 1.33943e-11 4.13452e-16 9.43453 -8.94963
149 1 3.14484 3.58319e-16 9.43453 -8.94963
150 1 6.28969 3.24958e-16 9.43453 -8.94963
151 1 9.43453 9.09043e-17 9.43453 -8.94963
152 1 12.5794 -6.1759e-17 9.43453 -8.94963
153 1 15.7242 1.21754e-16 9.43453 -8.94963
154 1 18.8691 3.39668e-16 9.43453 -8.94963
155 1 3.32989e-10 3.14484 9.43453 -8.94963
156 1 3.14484 3.14484 9.43453 -8.94963
157 1 6.28969 3.14484 9.43453 -8.94963
158 1 9.43453 3.14484 9.43453 -8.94964
159 1 12.5794 3.14484 9.43453 -8.94963
160 1 15.7242 3.14484 9.43453 -8.94963
161 1 18.8691 3.14484 9.43453 -8.94963
162 1 22.0139 6.28969 9.43453 -8.94963
163 1 3.14484 6.28969 9.43453 -8.94965
164 1 6.28968 6.28967 9.43452 -8.94976
165 1 9.43453 6.28971 9.43456 -8.95061
166 1 12.5794 6.28967 9.43451 -8.9492
177 1 4.71726 1.57242 11.007 -8.94963
178 1 7.86211 1.57242 11.007 -8.94963
179 1 11.007 1.57242 11.007 -8.94964
191 1 4.71724 7.86208 11.0069 -8.94931
181 1 17.2966 1.57242 11.007 -8.94963
182 1 20.4415 1.57242 11.007 -8.94963
184 1 4.71726 4.71726 11.007 -8.94965
185 1 7.8621 4.71725 11.0069 -8.94949
186 1 11.007 4.71724 11.0069 -8.94967
190 1 1.57242 7.86211 11.007 -8.94964
19 1 6.28969 3.14484 1.06747e-09 -8.94963
49 1 18.8691 9.43453 7.38106e-11 -8.94963
21 1 9.43453 3.14484 8.0985e-10 -8.94963
43 1 22.0139 9.43453 1.31435e-09 -8.94963
176 1 1.57242 1.57242 11.007 -8.94963
343 1 18.8691 9.43453 18.8691 -8.94963
342 1 15.7242 9.43453 18.8691 -8.94963
341 1 12.5794 9.43453 18.8691 -8.94965
340 1 9.43454 9.43452 18.8691 -8.94949
339 1 6.28968 9.43452 18.8691 -8.94967
338 1 3.14484 9.43453 18.8691 -8.94967
183 1 1.57242 4.71726 11.007 -8.94963
337 1 1.32682e-08 9.43453 18.8691 -8.94963
336 1 20.4415 7.86211 20.4415 -8.94963
335 1 18.8691 6.28969 18.8691 -8.94963
334 1 17.2966 7.86211 20.4415 -8.94963
188 1 17.2966 4.71726 11.007 -8.94963
189 1 20.4415 4.71726 11.007 -8.94963
333 1 15.7242 6.28969 18.8691 -8.94963
332 1 14.1518 7.86211 20.4415 -8.94963
331 1 12.5794 6.28969 18.8691 -8.94963
330 1 11.007 7.86211 20.4415 -8.94963
329 1 9.43453 6.28969 18.8691 -8.94964
328 1 7.86211 7.86211 20.4415 -8.94964
327 1 6.28969 6.28969 18.8691 -8.94967
197 1 4.31149e-11 3.15357e-16 12.5794 -8.94963
198 1 1.57242 1.57242 14.1518 -8.94963
199 1 3.14484 3.48909e-16 12.5794 -8.94963
200 1 4.71726 1.57242 14.1518 -8.94963
201 1 6.28969 2.91967e-16 12.5794 -8.94963
202 1 7.86211 1.57242 14.1518 -8.94963
203 1 9.43453 1.89926e-16 12.5794 -8.94964
204 1 11.007 1.57242 14.1518 -8.94964
205 1 12.5794 1.77206e-16 12.5794 -8.94963
206 1 14.1518 1.57242 14.1518 -8.94963
207 1 15.7242 3.10827e-16 12.5794 -8.94963
208 1 17.2966 1.57242 14.1518 -8.94963
209 1 18.8691 3.39586e-16 12.5794 -8.94963
210 1 20.4415 1.57242 14.1518 -8.94963
211 1 22.0139 3.14484 12.5794 -8.94963
212 1 1.57242 4.71726 14.1518 -8.94963
213 1 3.14484 3.14484 12.5794 -8.94963
214 1 4.71726 4.71726 14.1518 -8.94965
215 1 6.28969 3.14484 12.5794 -8.94965
216 1 7.8621 4.71725 14.1518 -8.94949
217 1 9.43453 3.14483 12.5794 -8.94995
218 1 11.007 4.71724 14.1518 -8.94967
219 1 12.5794 3.14484 12.5794 -8.94963
220 1 14.1518 4.71727 14.1518 -8.94967
221 1 15.7242 3.14484 12.5794 -8.94963
222 1 17.2966 4.71726 14.1518 -8.94963
223 1 18.8691 3.14484 12.5794 -8.94963
224 1 20.4415 4.71726 14.1518 -8.94963
225 1 4.63069e-08 6.28969 12.5794 -8.94963
226 1 1.57242 7.86211 14.1518 -8.94964
227 1 3.14485 6.28969 12.5794 -8.94969
228 1 4.71724 7.86208 14.1518 -8.94931
229 1 6.2897 6.28968 12.5794 -8.95059
230 1 7.86175 7.86187 14.1522 -8.94329
231 1 9.43455 6.28847 12.5794 -8.96289
232 1 11.0079 7.86119 14.1528 -8.92914
233 1 12.5793 6.28972 12.5794 -8.95105
234 1 14.1518 7.8621 14.1518 -8.94981
235 1 15.7242 6.28969 12.5794 -8.94963
236 1 17.2966 7.86211 14.1518 -8.94964
237 1 18.8691 6.28969 12.5794 -8.94963
238 1 20.4415 7.86211 14.1518 -8.94963
239 1 22.0139 9.43453 12.5794 -8.94964
240 1 3.14479 9.43452 12.5794 -8.95018
241 1 6.28705 9.43257 12.5794 -8.91281
242 1 9.46664 9.36948 12.5794 -7.91314
243 1 12.58 9.43445 12.5794 -8.95656
244 1 15.7242 9.43453 12.5794 -8.94978
245 1 18.8691 9.43453 12.5794 -8.94963
246 1 1.33944e-11 4.13937e-16 15.7242 -8.94963
247 1 1.57242 1.57242 17.2966 -8.94963
248 1 3.14484 3.70813e-16 15.7242 -8.94963
249 1 4.71726 1.57242 17.2966 -8.94963
250 1 6.28969 3.27389e-16 15.7242 -8.94963
251 1 7.86211 1.57242 17.2966 -8.94963
252 1 9.43453 7.83212e-17 15.7242 -8.94963
253 1 11.007 1.57242 17.2966 -8.94963
254 1 12.5794 -6.28299e-17 15.7242 -8.94963
255 1 14.1518 1.57242 17.2966 -8.94963
256 1 15.7242 1.30957e-16 15.7242 -8.94963
257 1 17.2966 1.57242 17.2966 -8.94963
258 1 18.8691 3.46939e-16 15.7242 -8.94963
259 1 20.4415 1.57242 17.2966 -8.94963
260 1 3.32989e-10 3.14484 15.7242 -8.94963
261 1 1.57242 4.71726 17.2966 -8.94963
262 1 3.14484 3.14484 15.7242 -8.94963
263 1 4.71726 4.71726 17.2966 -8.94963
264 1 6.28969 3.14484 15.7242 -8.94963
265 1 7.86211 4.71727 17.2966 -8.94964
266 1 9.43453 3.14484 15.7242 -8.94964
267 1 11.007 4.71727 17.2966 -8.94967
268 1 12.5794 3.14484 15.7242 -8.94963
269 1 14.1518 4.71726 17.2966 -8.94962
270 1 15.7242 3.14484 15.7242 -8.94963
271 1 17.2966 4.71726 17.2966 -8.94963
272 1 18.8691 3.14484 15.7242 -8.94963
273 1 20.4415 4.71726 17.2966 -8.94963
274 1 22.0139 6.28969 15.7242 -8.94963
275 1 1.57242 7.86211 17.2966 -8.94963
276 1 3.14484 6.28969 15.7242 -8.94965
277 1 4.71725 7.86209 17.2967 -8.9492
278 1 6.28968 6.28967 15.7242 -8.94976
279 1 7.86211 7.86214 17.2966 -8.95061
280 1 9.43453 6.28971 15.7242 -8.95061
281 1 11.007 7.8621 17.2967 -8.94976
282 1 12.5794 6.28967 15.7242 -8.9492
283 1 14.1518 7.86211 17.2966 -8.94965
284 1 15.7242 6.28969 15.7242 -8.94963
285 1 17.2966 7.86211 17.2966 -8.94963
286 1 18.8691 6.28969 15.7242 -8.94963
287 1 20.4415 7.86211 17.2966 -8.94963
288 1 22.0139 9.43453 15.7242 -8.94964
289 1 3.14483 9.43452 15.7242 -8.94981
290 1 6.28873 9.43356 15.7251 -8.92914
291 1 9.43488 9.43415 15.7245 -8.94329
292 1 12.5794 9.43449 15.7242 -8.94931
293 1 15.7242 9.43453 15.7242 -8.94964
294 1 18.8691 9.43453 15.7242 -8.94963
295 1 22.0139 2.3413e-16 18.8691 -8.94963
296 1 1.57242 1.57242 20.4415 -8.94963
297 1 3.14484 4.11419e-17 18.8691 -8.94963
298 1 4.71726 1.57242 20.4415 -8.94963
299 1 6.28969 1.28991e-16 18.8691 -8.94963
300 1 7.86211 1.57242 20.4415 -8.94963
301 1 9.43453 -7.25352e-17 18.8691 -8.94963
302 1 11.007 1.57242 20.4415 -8.94963
303 1 12.5794 6.59208e-17 18.8691 -8.94963
304 1 14.1518 1.57242 20.4415 -8.94963
305 1 15.7242 4.30795e-16 18.8691 -8.94963
306 1 17.2966 1.57242 20.4415 -8.94963
307 1 18.8691 2.10965e-16 18.8691 -8.94963
308 1 20.4415 1.57242 20.4415 -8.94963
309 1 22.0139 3.14484 18.8691 -8.94963
310 1 1.57242 4.71726 20.4415 -8.94963
311 1 3.14484 3.14484 18.8691 -8.94963
312 1 4.71726 4.71726 20.4415 -8.94963
313 1 6.28969 3.14484 18.8691 -8.94963
314 1 7.86211 4.71726 20.4415 -8.94963
315 1 9.43453 3.14484 18.8691 -8.94963
316 1 11.007 4.71726 20.4415 -8.94963
317 1 12.5794 3.14484 18.8691 -8.94963
318 1 14.1518 4.71726 20.4415 -8.94963
319 1 15.7242 3.14484 18.8691 -8.94963
320 1 17.2966 4.71726 20.4415 -8.94963
321 1 18.8691 3.14484 18.8691 -8.94963
322 1 20.4415 4.71726 20.4415 -8.94963
323 1 22.0139 6.28969 18.8691 -8.94963
324 1 1.57242 7.86211 20.4415 -8.94963
325 1 3.14484 6.28969 18.8691 -8.94962
326 1 4.71726 7.86211 20.4415 -8.94963
7 1 9.43453 1.19035e-16 22.0139 -8.94963
48 1 15.7242 9.43453 22.0139 -8.94963
44 1 3.14484 9.43453 22.0139 -8.94963
33 1 6.28969 6.28969 22.0139 -8.94963
35 1 9.43453 6.28969 22.0139 -8.94963
3 1 3.14484 8.00943e-17 22.0139 -8.94963
11 1 15.7242 2.39798e-16 22.0139 -8.94963
17 1 3.14484 3.14484 22.0139 -8.94963
23 1 12.5794 3.14484 22.0139 -8.94963
29 1 2.50251e-10 6.28969 22.0139 -8.94963
180 1 14.1518 1.57242 11.007 -8.94963
187 1 14.1518 4.71727 11.007 -8.94967
344 1 1.57242 11.007 1.57242 -8.94963
345 1 4.71726 11.007 1.57242 -8.94963
346 1 7.86211 11.007 1.57242 -8.94964
347 1 11.007 11.007 1.57242 -8.94963
348 1 14.1518 11.007 1.57242 -8.94963
349 1 17.2966 11.007 1.57242 -8.94963
350 1 20.4415 11.007 1.57242 -8.94963
511 1 18.8691 18.8691 9.43453 -8.94963
352 1 1.57242 14.1518 1.57242 -8.94963
510 1 15.7242 18.8691 9.43453 -8.94963
354 1 4.71726 14.1518 1.57242 -8.94963
355 1 6.28969 12.5794 3.7457e-07 -8.94964
356 1 7.86211 14.1518 1.57242 -8.94963
357 1 9.43453 12.5794 2.65866e-07 -8.94963
358 1 11.007 14.1518 1.57242 -8.94963
359 1 12.5794 12.5794 -7.15058e-10 -8.94963
360 1 14.1518 14.1518 1.57242 -8.94963
509 1 12.5794 18.8691 9.43453 -8.94963
362 1 17.2966 14.1518 1.57242 -8.94963
508 1 9.43453 18.8691 9.43453 -8.94964
364 1 20.4415 14.1518 1.57242 -8.94963
539 1 20.4415 20.4415 11.007 -8.94963
366 1 1.57242 17.2966 1.57242 -8.94963
367 1 3.14484 15.7242 9.5036e-09 -8.94963
368 1 4.71726 17.2966 1.57242 -8.94963
507 1 6.28969 18.8691 9.43453 -8.94963
370 1 7.86211 17.2966 1.57242 -8.94963
506 1 3.14484 18.8691 9.43453 -8.94963
372 1 11.007 17.2966 1.57242 -8.94963
373 1 12.5794 15.7242 8.09159e-09 -8.94963
374 1 14.1518 17.2966 1.57242 -8.94963
375 1 15.7242 15.7242 2.01708e-11 -8.94963
376 1 17.2966 17.2966 1.57242 -8.94963
377 1 18.8691 15.7242 -3.29718e-12 -8.94963
378 1 20.4415 17.2966 1.57242 -8.94963
379 1 22.0139 18.8691 3.61132e-11 -8.94963
380 1 1.57242 20.4415 1.57242 -8.94963
538 1 17.2966 20.4415 11.007 -8.94963
382 1 4.71726 20.4415 1.57242 -8.94963
505 1 3.32989e-10 18.8691 9.43453 -8.94963
384 1 7.86211 20.4415 1.57242 -8.94963
504 1 18.8691 15.7242 9.43453 -8.94963
386 1 11.007 20.4415 1.57242 -8.94963
536 1 11.007 20.4415 11.007 -8.94964
388 1 14.1518 20.4415 1.57242 -8.94963
389 1 15.7242 18.8691 1.01052e-10 -8.94963
390 1 17.2966 20.4415 1.57242 -8.94963
391 1 18.8691 18.8691 5.06851e-13 -8.94963
392 1 20.4415 20.4415 1.57242 -8.94963
393 1 1.57242 11.007 4.71726 -8.94963
394 1 4.71726 11.007 4.71726 -8.94963
395 1 7.86211 11.007 4.71725 -8.94995
396 1 11.007 11.007 4.71726 -8.94965
397 1 14.1518 11.007 4.71726 -8.94963
398 1 17.2966 11.007 4.71726 -8.94963
399 1 20.4415 11.007 4.71726 -8.94963
400 1 22.0139 12.5794 3.14484 -8.94963
401 1 1.57242 14.1518 4.71726 -8.94963
402 1 3.14484 12.5794 3.14484 -8.94963
403 1 4.71726 14.1518 4.71726 -8.94963
404 1 6.28969 12.5794 3.14484 -8.94964
405 1 7.86211 14.1518 4.71726 -8.94964
406 1 9.43453 12.5794 3.14484 -8.94963
407 1 11.007 14.1518 4.71726 -8.94963
408 1 12.5794 12.5794 3.14484 -8.94963
409 1 14.1518 14.1518 4.71726 -8.94963
410 1 15.7242 12.5794 3.14484 -8.94963
411 1 17.2966 14.1518 4.71726 -8.94963
412 1 18.8691 12.5794 3.14484 -8.94963
413 1 20.4415 14.1518 4.71726 -8.94963
414 1 2.50251e-10 15.7242 3.14484 -8.94963
415 1 1.57242 17.2966 4.71726 -8.94963
416 1 3.14484 15.7242 3.14484 -8.94963
417 1 4.71726 17.2966 4.71726 -8.94963
418 1 6.28969 15.7242 3.14484 -8.94963
419 1 7.86211 17.2966 4.71726 -8.94963
420 1 9.43453 15.7242 3.14484 -8.94963
421 1 11.007 17.2966 4.71726 -8.94963
422 1 12.5794 15.7242 3.14484 -8.94963
423 1 14.1518 17.2966 4.71726 -8.94963
424 1 15.7242 15.7242 3.14484 -8.94963
425 1 17.2966 17.2966 4.71726 -8.94963
426 1 18.8691 15.7242 3.14484 -8.94963
427 1 20.4415 17.2966 4.71726 -8.94963
428 1 22.0139 18.8691 3.14484 -8.94963
429 1 1.57242 20.4415 4.71726 -8.94963
430 1 3.14484 18.8691 3.14484 -8.94963
431 1 4.71726 20.4415 4.71726 -8.94963
432 1 6.28969 18.8691 3.14484 -8.94963
433 1 7.86211 20.4415 4.71726 -8.94963
434 1 9.43453 18.8691 3.14484 -8.94963
435 1 11.007 20.4415 4.71726 -8.94963
436 1 12.5794 18.8691 3.14484 -8.94963
437 1 14.1518 20.4415 4.71726 -8.94963
438 1 15.7242 18.8691 3.14484 -8.94963
439 1 17.2966 20.4415 4.71726 -8.94963
440 1 18.8691 18.8691 3.14484 -8.94963
441 1 20.4415 20.4415 4.71726 -8.94963
442 1 1.57242 11.007 7.86211 -8.94963
443 1 4.7173 11.007 7.86214 -8.95105
444 1 7.86209 11.007 7.86089 -8.96289
445 1 11.0069 11.007 7.8621 -8.95059
446 1 14.1518 11.007 7.86211 -8.94969
447 1 17.2966 11.007 7.86211 -8.94963
448 1 20.4415 11.007 7.86211 -8.94963
449 1 1.32682e-08 12.5794 6.28969 -8.94963
450 1 1.57242 14.1518 7.86211 -8.94963
451 1 3.14484 12.5794 6.28969 -8.94967
452 1 4.71725 14.1518 7.86209 -8.9492
453 1 6.28968 12.5794 6.28966 -8.94967
454 1 7.86211 14.1518 7.86213 -8.95061
455 1 9.43454 12.5794 6.28967 -8.94949
456 1 11.007 14.1518 7.86209 -8.94976
457 1 12.5794 12.5794 6.28969 -8.94965
458 1 14.1518 14.1518 7.86211 -8.94965
459 1 15.7242 12.5794 6.28969 -8.94963
460 1 17.2966 14.1518 7.86211 -8.94963
461 1 18.8691 12.5794 6.28969 -8.94963
462 1 20.4415 14.1518 7.86211 -8.94963
463 1 22.0139 15.7242 6.28969 -8.94963
464 1 1.57242 17.2966 7.86211 -8.94963
465 1 3.14484 15.7242 6.28969 -8.94962
466 1 4.71726 17.2966 7.86211 -8.94963
467 1 6.28969 15.7242 6.28969 -8.94967
468 1 7.86211 17.2966 7.86211 -8.94964
469 1 9.43453 15.7242 6.28969 -8.94964
470 1 11.007 17.2966 7.86211 -8.94967
471 1 12.5794 15.7242 6.28969 -8.94963
472 1 14.1518 17.2966 7.86211 -8.94962
473 1 15.7242 15.7242 6.28969 -8.94963
474 1 17.2966 17.2966 7.86211 -8.94963
475 1 18.8691 15.7242 6.28969 -8.94963
476 1 20.4415 17.2966 7.86211 -8.94963
477 1 22.0139 18.8691 6.28969 -8.94963
478 1 1.57242 20.4415 7.86211 -8.94963
479 1 3.14484 18.8691 6.28969 -8.94963
480 1 4.71726 20.4415 7.86211 -8.94963
481 1 6.28969 18.8691 6.28969 -8.94963
482 1 7.86211 20.4415 7.86211 -8.94963
483 1 9.43453 18.8691 6.28969 -8.94963
484 1 11.007 20.4415 7.86211 -8.94963
485 1 12.5794 18.8691 6.28969 -8.94963
486 1 14.1518 20.4415 7.86211 -8.94963
487 1 15.7242 18.8691 6.28969 -8.94963
488 1 17.2966 20.4415 7.86211 -8.94963
489 1 18.8691 18.8691 6.28969 -8.94963
490 1 20.4415 20.4415 7.86211 -8.94963
491 1 22.0139 12.5794 9.43453 -8.94964
492 1 3.14483 12.5794 9.43453 -8.94981
493 1 6.28873 12.5803 9.43361 -8.92914
494 1 9.43488 12.5797 9.43429 -8.94329
495 1 12.5794 12.5794 9.43451 -8.94931
496 1 15.7242 12.5794 9.43453 -8.94964
497 1 18.8691 12.5794 9.43453 -8.94963
498 1 22.0139 15.7242 9.43453 -8.94963
499 1 3.14484 15.7242 9.43453 -8.94965
500 1 6.28968 15.7242 9.43452 -8.94976
501 1 9.43453 15.7242 9.43456 -8.95061
502 1 12.5794 15.7242 9.43451 -8.9492
503 1 15.7242 15.7242 9.43453 -8.94963
512 1 1.57241 11.007 11.007 -8.94978
513 1 4.71668 11.007 11.0069 -8.95656
514 1 7.83 11.007 10.9419 -7.91314
515 1 11.0096 11.007 11.005 -8.91281
516 1 14.1518 11.007 11.0069 -8.95018
517 1 17.2966 11.007 11.007 -8.94964
518 1 20.4415 11.007 11.007 -8.94963
519 1 1.57242 14.1518 11.007 -8.94964
520 1 4.71724 14.1518 11.0069 -8.94931
521 1 7.86175 14.152 11.0066 -8.94329
522 1 11.0079 14.1527 11.006 -8.92914
523 1 14.1518 14.1518 11.0069 -8.94981
524 1 17.2966 14.1518 11.007 -8.94964
525 1 20.4415 14.1518 11.007 -8.94963
527 1 4.71726 17.2966 11.007 -8.94965
528 1 7.8621 17.2967 11.0069 -8.94949
529 1 11.007 17.2967 11.0069 -8.94967
535 1 7.86211 20.4415 11.007 -8.94963
534 1 4.71726 20.4415 11.007 -8.94963
351 1 22.0139 12.5794 1.31435e-09 -8.94963
385 1 9.43453 18.8691 8.0985e-10 -8.94963
383 1 6.28969 18.8691 1.06747e-09 -8.94963
363 1 18.8691 12.5794 7.38107e-11 -8.94963
687 3 8.64832 11.007 12.5794 4.10157
686 1 20.4415 20.4415 20.4415 -8.94963
685 1 18.8691 18.8691 18.8691 -8.94963
684 1 17.2966 20.4415 20.4415 -8.94963
683 1 15.7242 18.8691 18.8691 -8.94963
682 1 14.1518 20.4415 20.4415 -8.94963
681 1 12.5794 18.8691 18.8691 -8.94963
680 1 11.007 20.4415 20.4415 -8.94963
679 1 9.43453 18.8691 18.8691 -8.94963
678 1 7.86211 20.4415 20.4415 -8.94963
677 1 6.28969 18.8691 18.8691 -8.94963
676 1 4.71726 20.4415 20.4415 -8.94963
675 1 3.14484 18.8691 18.8691 -8.94963
674 1 1.57242 20.4415 20.4415 -8.94963
526 1 1.57242 17.2966 11.007 -8.94963
673 1 22.0139 18.8691 18.8691 -8.94963
672 1 20.4415 17.2966 20.4415 -8.94963
671 1 18.8691 15.7242 18.8691 -8.94963
670 1 17.2966 17.2966 20.4415 -8.94963
531 1 17.2966 17.2966 11.007 -8.94963
532 1 20.4415 17.2966 11.007 -8.94963
533 1 1.57242 20.4415 11.007 -8.94963
669 1 15.7242 15.7242 18.8691 -8.94963
668 1 14.1518 17.2966 20.4415 -8.94963
667 1 12.5794 15.7242 18.8691 -8.94963
666 1 11.007 17.2966 20.4415 -8.94963
665 1 9.43453 15.7242 18.8691 -8.94964
664 1 7.86211 17.2966 20.4415 -8.94963
540 1 1.57241 11.007 14.1518 -8.94978
541 1 4.71668 11.007 14.1519 -8.95656
542 1 7.83 11.007 14.2168 -7.91314
543 1 11.0096 11.007 14.1538 -8.91281
544 1 14.1518 11.007 14.1518 -8.95018
545 1 17.2966 11.007 14.1518 -8.94964
546 1 20.4415 11.007 14.1518 -8.94963
547 1 22.0139 12.5794 12.5794 -8.94964
548 1 1.57242 14.1518 14.1518 -8.94964
549 1 3.14479 12.5794 12.5794 -8.95018
550 1 4.71724 14.1518 14.1518 -8.94931
551 1 6.28705 12.5813 12.5794 -8.91281
552 1 7.86175 14.152 14.1522 -8.94329
553 1 9.46664 12.6444 12.5794 -7.91314
554 1 11.0079 14.1527 14.1528 -8.92914
555 1 12.58 12.5794 12.5794 -8.95656
556 1 14.1518 14.1518 14.1518 -8.94981
557 1 15.7242 12.5794 12.5794 -8.94978
558 1 17.2966 14.1518 14.1518 -8.94964
559 1 18.8691 12.5794 12.5794 -8.94963
560 1 20.4415 14.1518 14.1518 -8.94963
561 1 4.63069e-08 15.7242 12.5794 -8.94963
562 1 1.57242 17.2966 14.1518 -8.94963
563 1 3.14485 15.7242 12.5794 -8.94969
564 1 4.71726 17.2966 14.1518 -8.94965
565 1 6.2897 15.7242 12.5794 -8.95059
566 1 7.8621 17.2967 14.1518 -8.94949
567 1 9.43455 15.7254 12.5794 -8.96289
568 1 11.007 17.2967 14.1518 -8.94967
569 1 12.5793 15.7242 12.5794 -8.95105
570 1 14.1518 17.2966 14.1518 -8.94967
571 1 15.7242 15.7242 12.5794 -8.94963
572 1 17.2966 17.2966 14.1518 -8.94963
573 1 18.8691 15.7242 12.5794 -8.94963
574 1 20.4415 17.2966 14.1518 -8.94963
575 1 22.0139 18.8691 12.5794 -8.94963
576 1 1.57242 20.4415 14.1518 -8.94963
577 1 3.14484 18.8691 12.5794 -8.94963
578 1 4.71726 20.4415 14.1518 -8.94963
579 1 6.28969 18.8691 12.5794 -8.94965
580 1 7.86211 20.4415 14.1518 -8.94963
581 1 9.43453 18.8691 12.5794 -8.94995
582 1 11.007 20.4415 14.1518 -8.94964
583 1 12.5794 18.8691 12.5794 -8.94963
584 1 14.1518 20.4415 14.1518 -8.94963
585 1 15.7242 18.8691 12.5794 -8.94963
586 1 17.2966 20.4415 14.1518 -8.94963
587 1 18.8691 18.8691 12.5794 -8.94963
588 1 20.4415 20.4415 14.1518 -8.94963
589 1 1.57242 11.007 17.2966 -8.94963
590 1 4.7173 11.007 17.2966 -8.95105
591 1 7.86209 11.007 17.2979 -8.96289
592 1 11.0069 11.007 17.2966 -8.95059
593 1 14.1518 11.007 17.2966 -8.94969
594 1 17.2966 11.007 17.2966 -8.94963
595 1 20.4415 11.007 17.2966 -8.94963
596 1 22.0139 12.5794 15.7242 -8.94964
597 1 1.57242 14.1518 17.2966 -8.94963
598 1 3.14483 12.5794 15.7242 -8.94981
599 1 4.71725 14.1518 17.2967 -8.9492
600 1 6.28873 12.5803 15.7251 -8.92914
601 1 7.86211 14.1518 17.2966 -8.95061
602 1 9.43488 12.5797 15.7245 -8.94329
603 1 11.007 14.1518 17.2967 -8.94976
604 1 12.5794 12.5794 15.7242 -8.94931
605 1 14.1518 14.1518 17.2966 -8.94965
606 1 15.7242 12.5794 15.7242 -8.94964
607 1 17.2966 14.1518 17.2966 -8.94963
608 1 18.8691 12.5794 15.7242 -8.94963
609 1 20.4415 14.1518 17.2966 -8.94963
610 1 22.0139 15.7242 15.7242 -8.94963
611 1 1.57242 17.2966 17.2966 -8.94963
612 1 3.14484 15.7242 15.7242 -8.94965
613 1 4.71726 17.2966 17.2966 -8.94963
614 1 6.28968 15.7242 15.7242 -8.94976
615 1 7.86211 17.2966 17.2966 -8.94964
616 1 9.43453 15.7242 15.7242 -8.95061
617 1 11.007 17.2966 17.2966 -8.94967
618 1 12.5794 15.7242 15.7242 -8.9492
619 1 14.1518 17.2966 17.2966 -8.94962
620 1 15.7242 15.7242 15.7242 -8.94963
621 1 17.2966 17.2966 17.2966 -8.94963
622 1 18.8691 15.7242 15.7242 -8.94963
623 1 20.4415 17.2966 17.2966 -8.94963
624 1 3.3299e-10 18.8691 15.7242 -8.94963
625 1 1.57242 20.4415 17.2966 -8.94963
626 1 3.14484 18.8691 15.7242 -8.94963
627 1 4.71726 20.4415 17.2966 -8.94963
628 1 6.28969 18.8691 15.7242 -8.94963
629 1 7.86211 20.4415 17.2966 -8.94963
630 1 9.43453 18.8691 15.7242 -8.94964
631 1 11.007 20.4415 17.2966 -8.94963
632 1 12.5794 18.8691 15.7242 -8.94963
633 1 14.1518 20.4415 17.2966 -8.94963
634 1 15.7242 18.8691 15.7242 -8.94963
635 1 17.2966 20.4415 17.2966 -8.94963
636 1 18.8691 18.8691 15.7242 -8.94963
637 1 20.4415 20.4415 17.2966 -8.94963
638 1 1.57242 11.007 20.4415 -8.94963
639 1 4.71726 11.007 20.4415 -8.94963
640 1 7.86211 11.007 20.4415 -8.94995
641 1 11.007 11.007 20.4415 -8.94965
642 1 14.1518 11.007 20.4415 -8.94963
643 1 17.2966 11.007 20.4415 -8.94963
644 1 20.4415 11.007 20.4415 -8.94963
645 1 1.32682e-08 12.5794 18.8691 -8.94963
646 1 1.57242 14.1518 20.4415 -8.94963
647 1 3.14484 12.5794 18.8691 -8.94967
648 1 4.71726 14.1518 20.4415 -8.94963
649 1 6.28968 12.5794 18.8691 -8.94967
650 1 7.86211 14.1518 20.4415 -8.94964
651 1 9.43454 12.5794 18.8691 -8.94949
652 1 11.007 14.1518 20.4415 -8.94963
653 1 12.5794 12.5794 18.8691 -8.94965
654 1 14.1518 14.1518 20.4415 -8.94963
655 1 15.7242 12.5794 18.8691 -8.94963
656 1 17.2966 14.1518 20.4415 -8.94963
657 1 18.8691 12.5794 18.8691 -8.94963
658 1 20.4415 14.1518 20.4415 -8.94963
659 1 22.0139 15.7242 18.8691 -8.94963
660 1 1.57242 17.2966 20.4415 -8.94963
661 1 3.14484 15.7242 18.8691 -8.94962
662 1 4.71726 17.2966 20.4415 -8.94963
663 1 6.28969 15.7242 18.8691 -8.94967
371 1 9.43453 15.7242 22.0139 -8.94963
353 1 3.14484 12.5794 22.0139 -8.94963
361 1 15.7242 12.5794 22.0139 -8.94963
369 1 6.28969 15.7242 22.0139 -8.94963
365 1 2.50251e-10 15.7242 22.0139 -8.94963
381 1 3.14484 18.8691 22.0139 -8.94963
387 1 12.5794 18.8691 22.0139 -8.94963
537 1 14.1518 20.4415 11.007 -8.94963
530 1 14.1518 17.2966 11.007 -8.94967
