ITEM: TIMESTEP
87
ITEM: NUMBER OF ATOMS
687
ITEM: BOX BOUNDS pp pp pp
0.0000000000000000e+00 2.2013900999999997e+01
0.0000000000000000e+00 2.2013900999999997e+01
0.0000000000000000e+00 2.2013900999999997e+01
ITEM: ATOMS id type x y z c_pot
1 1 22.0136 1.4824e-15 0.000232937 -8.94939
2 1 1.57211 1.57212 1.57242 -8.9496
196 1 20.4415 7.86179 11.007 -8.9499
4 1 4.71708 1.57212 1.57242 -8.94952
5 1 6.28956 6.25754e-14 0.000271319 -8.94953
6 1 7.86208 1.57212 1.57242 -8.94954
175 1 18.8691 9.43458 9.43421 -8.9499
8 1 11.0071 1.57215 1.57242 -8.94953
9 1 12.5796 1.55011e-13 0.000297065 -8.94952
10 1 14.152 1.57219 1.57242 -8.94956
195 1 17.2992 7.86171 11.0067 -8.9518
12 1 17.2969 1.57219 1.57242 -8.94939
13 1 18.8692 2.93088e-15 0.000184764 -8.94927
14 1 20.4413 1.57224 1.57242 -8.94927
15 1 22.0133 3.14427 0.000333237 -8.94917
16 1 1.57162 4.71645 1.57242 -8.94953
194 1 14.1621 7.85807 11.0045 -8.95827
18 1 4.71693 4.71649 1.57242 -8.9496
174 1 15.7256 9.43522 9.43398 -8.94978
20 1 7.86217 4.71654 1.57242 -8.94955
173 1 12.5825 9.43687 9.43403 -8.95294
22 1 11.0073 4.71667 1.57242 -8.94953
193 1 11.0477 7.82488 10.9736 -8.8543
24 1 14.1523 4.71684 1.57242 -8.95006
25 1 15.7248 3.14434 0.000554856 -8.94948
26 1 17.2968 4.71715 1.57242 -8.94971
27 1 18.8691 3.1446 0.000256884 -8.94959
28 1 20.4411 4.71698 1.57242 -8.94954
192 1 7.84743 7.85417 10.9829 -8.90439
30 1 1.57146 7.86159 1.57242 -8.94938
31 1 3.1437 6.28852 0.00121185 -8.95
32 1 4.71669 7.86149 1.57242 -8.95066
172 1 9.44921 9.41044 9.42659 -8.90438
34 1 7.86236 7.86166 1.57242 -8.95027
171 1 6.24893 9.40122 9.3973 -8.85426
36 1 11.0072 7.86208 1.57242 -8.95042
37 1 12.58 6.28928 0.00102672 -8.9507
38 1 14.1521 7.86219 1.57242 -8.94954
39 1 15.7245 6.28966 0.000359028 -8.94973
40 1 17.2967 7.86205 1.57242 -8.94954
41 1 18.8689 6.28952 0.00023703 -8.94952
42 1 20.4411 7.86191 1.57242 -8.94953
170 1 3.13451 9.43203 9.43049 -8.95827
169 1 22.0114 9.43423 9.43413 -8.9518
45 1 6.28939 9.43437 0.00167861 -8.95144
46 1 9.43466 9.43466 0.000514225 -8.94943
47 1 12.5797 9.43469 0.000336656 -8.94936
168 1 18.87 6.28916 9.43412 -8.95024
167 1 15.7288 6.28749 9.43235 -8.9509
50 1 22.0136 1.40145e-15 3.14461 -8.94939
51 1 1.57185 1.57187 4.71676 -8.94948
52 1 3.1446 1.04993e-14 3.14461 -8.94956
53 1 4.71693 1.57191 4.71674 -8.94949
54 1 6.28956 6.28718e-14 3.14457 -8.94953
55 1 7.862 1.57194 4.71664 -8.94951
56 1 9.43456 1.65103e-13 3.14455 -8.94954
57 1 11.0071 1.57197 4.71661 -8.94947
58 1 12.5796 1.55273e-13 3.14455 -8.94952
59 1 14.1523 1.57197 4.71656 -8.94962
60 1 15.7245 4.29803e-14 3.14455 -8.9496
61 1 17.2972 1.57209 4.71669 -8.94917
62 1 18.8692 3.56134e-15 3.14466 -8.94927
63 1 20.4415 1.57216 4.71702 -8.94959
64 1 22.0133 3.14427 3.14451 -8.94917
65 1 1.57085 4.71569 4.71595 -8.94821
66 1 3.14436 3.14414 3.14439 -8.94962
67 1 4.71641 4.71577 4.71577 -8.94964
68 1 6.28952 3.14418 3.14439 -8.94947
69 1 7.86202 4.71597 4.71582 -8.94936
70 1 9.43464 3.14422 3.14436 -8.94951
71 1 11.0075 4.71611 4.71575 -8.94914
72 1 12.5797 3.14432 3.14434 -8.94949
73 1 14.1531 4.71607 4.71539 -8.94944
74 1 15.7248 3.14434 3.14429 -8.94948
75 1 17.2971 4.71695 4.71664 -8.94986
76 1 18.8691 3.1446 3.14459 -8.94959
77 1 20.441 4.71675 4.71678 -8.94956
78 1 -0.000775521 6.28916 3.14441 -8.94948
79 1 1.57066 7.86115 4.71577 -8.94919
80 1 3.1437 6.28852 3.14363 -8.95
81 1 4.71523 7.8603 4.71339 -8.95155
82 1 6.28949 6.28877 3.14372 -8.94972
83 1 7.86224 7.86092 4.7144 -8.95062
84 1 9.43489 6.28887 3.14383 -8.94965
85 1 11.0074 7.86173 4.715 -8.95254
86 1 12.58 6.28928 3.14382 -8.9507
87 1 14.1523 7.86231 4.71648 -8.94964
88 1 15.7245 6.28966 3.14448 -8.94973
89 1 17.2968 7.86204 4.71676 -8.94942
90 1 18.8689 6.28952 3.14461 -8.94952
91 1 20.4408 7.86179 4.71669 -8.94945
92 1 22.013 9.43432 3.14436 -8.94949
93 1 3.14346 9.43404 3.14353 -8.94939
94 1 6.28939 9.43437 3.14316 -8.95144
95 1 9.43466 9.43466 3.14433 -8.94943
96 1 12.5797 9.43469 3.14451 -8.94936
97 1 15.7245 9.43453 3.14451 -8.94955
98 1 18.8689 9.43446 3.14458 -8.94955
99 1 22.0138 2.45763e-14 6.28957 -8.94971
100 1 1.57211 1.57206 7.86208 -8.94973
101 1 3.14432 3.73411e-14 6.28927 -8.95006
102 1 4.71668 1.57139 7.8617 -8.9507
103 1 6.28934 -4.59532e-13 6.28909 -8.94953
104 1 7.86174 1.57141 7.8613 -8.94965
105 1 9.43447 -1.9725e-12 6.28896 -8.94955
106 1 11.0071 1.5713 7.86119 -8.94972
107 1 12.5797 -1.94339e-12 6.28891 -8.9496
108 1 14.1529 1.57121 7.86094 -8.95
109 1 15.725 1.40589e-13 6.28887 -8.94953
110 1 17.2974 1.57199 7.86158 -8.94948
111 1 18.8694 4.1829e-14 6.2894 -8.94954
112 1 20.4416 1.57218 7.86194 -8.94952
113 1 22.0135 3.14422 6.28937 -8.94986
114 1 1.5712 4.71605 7.86172 -8.95043
115 1 3.14351 3.14297 6.2885 -8.94944
116 1 4.71413 4.71245 7.8592 -8.94986
117 1 6.28917 3.14333 6.28854 -8.94914
118 1 7.86149 4.71381 7.85943 -8.94773
119 1 9.43461 3.1434 6.28839 -8.94936
120 1 11.0084 4.71342 7.85919 -8.94916
121 1 12.5802 3.14335 6.28819 -8.94964
122 1 14.1563 4.71301 7.85773 -8.94453
123 1 15.7258 3.14352 6.28811 -8.94821
124 1 17.2984 4.71622 7.86097 -8.94969
125 1 18.8696 3.14436 6.28917 -8.94956
126 1 20.4415 4.71674 7.86181 -8.94987
127 1 22.0122 6.28855 6.28864 -8.94969
128 1 1.56788 7.85992 7.85991 -8.9509
129 1 3.1403 6.28531 6.28544 -8.94453
130 1 4.704 7.84997 7.84929 -8.92996
131 1 6.28819 6.28677 6.28585 -8.94916
132 1 7.86109 7.85673 7.85304 -8.95091
133 1 9.43514 6.28701 6.28624 -8.94773
134 1 11.0134 7.85514 7.85151 -8.95318
135 1 12.5825 6.28678 6.28487 -8.94986
136 1 14.1542 7.86197 7.86041 -8.95168
137 1 15.7254 6.28929 6.28848 -8.95043
138 1 17.2974 7.86214 7.86151 -8.94986
139 1 18.869 6.28939 6.28916 -8.94987
140 1 20.4405 7.8617 7.86158 -8.95024
141 1 -0.00191039 9.43408 6.28848 -8.94928
142 1 3.14061 9.43302 6.28568 -8.9476
143 1 6.28633 9.43308 6.28139 -8.95927
144 1 9.43387 9.43435 6.28815 -8.95185
145 1 12.5798 9.43524 6.28898 -8.94889
146 1 15.7249 9.43457 6.28879 -8.94898
147 1 18.8688 9.43441 6.28905 -8.94956
148 1 -0.000110318 -2.93237e-14 9.43447 -8.94954
149 1 3.14452 -1.06018e-12 9.43461 -8.94954
150 1 6.28943 -1.09162e-12 9.4345 -8.95042
151 1 9.43427 1.79138e-11 9.43408 -8.95027
152 1 12.58 -1.28252e-12 9.43391 -8.95066
153 1 15.7252 -1.90274e-12 9.43401 -8.94938
154 1 18.8695 1.64251e-13 9.43434 -8.94953
155 1 -0.000201638 3.14434 9.43447 -8.94942
156 1 3.14435 3.14406 9.43474 -8.94964
157 1 6.28922 3.14258 9.43416 -8.95254
158 1 9.4344 3.14198 9.43334 -8.95062
159 1 12.5814 3.14097 9.43272 -8.95155
160 1 15.726 3.14334 9.43357 -8.94919
161 1 18.8697 3.14427 9.43421 -8.94945
162 1 22.0131 6.28909 9.43456 -8.94986
163 1 3.14243 6.28799 9.43439 -8.95168
164 1 6.28325 6.27909 9.42756 -8.95318
165 1 9.43555 6.28062 9.42915 -8.95091
166 1 12.5926 6.27687 9.42239 -8.92996
177 1 4.71692 1.57208 11.0071 -8.94936
178 1 7.86198 1.57191 11.0071 -8.94943
179 1 11.0072 1.57074 11.0068 -8.95144
191 1 4.71412 7.8616 11.0093 -8.95294
181 1 17.2975 1.57194 11.0067 -8.94949
182 1 20.4416 1.57216 11.0069 -8.94955
184 1 4.71688 4.71656 11.0077 -8.94889
185 1 7.86277 4.71573 11.0068 -8.95185
186 1 11.0103 4.70897 11.0055 -8.95927
190 1 1.57101 7.86155 11.0076 -8.94978
19 1 6.28952 3.14418 0.000454135 -8.94947
49 1 18.8689 9.43446 0.000264771 -8.94955
21 1 9.43464 3.14422 0.000478002 -8.94951
43 1 22.013 9.43432 0.000479989 -8.94949
176 1 1.57209 1.57209 11.007 -8.94955
343 1 18.8688 9.43441 18.8697 -8.94956
342 1 15.7249 9.43457 18.87 -8.94898
341 1 12.5798 9.43524 18.8698 -8.94889
340 1 9.43387 9.43435 18.8706 -8.95185
339 1 6.28633 9.43308 18.8773 -8.95927
338 1 3.14061 9.43302 18.8731 -8.9476
183 1 1.5717 4.71637 11.007 -8.94898
337 1 -0.00191039 9.43408 18.8703 -8.94928
336 1 20.4408 7.86179 20.4421 -8.94945
335 1 18.869 6.28939 18.8696 -8.94987
334 1 17.2968 7.86204 20.442 -8.94942
188 1 17.2985 4.71606 11.0065 -8.94928
189 1 20.4417 4.71663 11.0068 -8.94956
333 1 15.7254 6.28929 18.8703 -8.95043
332 1 14.1523 7.86231 20.4423 -8.94964
331 1 12.5825 6.28678 18.8739 -8.94986
330 1 11.0074 7.86173 20.4437 -8.95254
329 1 9.43514 6.28701 18.8725 -8.94773
328 1 7.86224 7.86092 20.4443 -8.95062
327 1 6.28819 6.28677 18.8729 -8.94916
197 1 -0.000124437 -5.93758e-13 12.5794 -8.94958
198 1 1.57209 1.57209 14.1518 -8.94955
199 1 3.14446 2.55947e-12 12.5794 -8.94966
200 1 4.71692 1.57208 14.1516 -8.94936
201 1 6.28935 1.26263e-11 12.5794 -8.94914
202 1 7.86198 1.57191 14.1517 -8.94943
203 1 9.43431 2.76168e-11 12.5794 -8.94849
204 1 11.0072 1.57074 14.152 -8.95144
205 1 12.5803 3.45856e-11 12.5794 -8.95035
206 1 14.1532 1.57111 14.1523 -8.94939
207 1 15.7252 -3.22392e-12 12.5794 -8.94947
208 1 17.2975 1.57194 14.152 -8.94949
209 1 18.8695 2.29917e-13 12.5794 -8.94955
210 1 20.4416 1.57216 14.1519 -8.94955
211 1 22.0137 3.14431 12.5794 -8.94957
212 1 1.5717 4.71637 14.1518 -8.94898
213 1 3.14431 3.1441 12.5794 -8.94964
214 1 4.71688 4.71656 14.1511 -8.94889
215 1 6.28955 3.14479 12.5794 -8.94821
216 1 7.86277 4.71573 14.152 -8.95185
217 1 9.43478 3.14403 12.5794 -8.94634
218 1 11.0103 4.70897 14.1532 -8.95927
219 1 12.5821 3.1408 12.5794 -8.94958
220 1 14.156 4.71326 14.1533 -8.9476
221 1 15.7261 3.14329 12.5794 -8.94945
222 1 17.2985 4.71606 14.1522 -8.94928
223 1 18.8697 3.14423 12.5794 -8.94951
224 1 20.4417 4.71663 14.1519 -8.94956
225 1 -0.000553121 6.28886 12.5794 -8.94955
226 1 1.57101 7.86155 14.1511 -8.94978
227 1 3.14342 6.28809 12.5794 -8.94648
228 1 4.71412 7.8616 14.1495 -8.95294
229 1 6.29188 6.29219 12.5794 -8.9451
230 1 7.84743 7.85417 14.1759 -8.90439
231 1 9.43981 6.29327 12.5794 -9.00329
232 1 11.0477 7.82488 14.1851 -8.8543
233 1 12.5904 6.27928 12.5794 -8.94206
234 1 14.1621 7.85807 14.1543 -8.95827
235 1 15.729 6.28709 12.5794 -8.94906
236 1 17.2992 7.86171 14.1521 -8.9518
237 1 18.8703 6.28897 12.5794 -8.94998
238 1 20.4415 7.86179 14.1517 -8.9499
239 1 22.0136 9.43426 12.5794 -8.94763
240 1 3.14749 9.43514 12.5794 -8.93977
241 1 6.31267 9.44446 12.5794 -8.90222
242 1 9.51182 9.20274 12.5794 -8.12106
243 1 12.5869 9.42677 12.5794 -8.9729
244 1 15.7265 9.43484 12.5794 -8.95108
245 1 18.8696 9.43461 12.5794 -8.94938
246 1 -0.000110318 -2.93503e-14 15.7243 -8.94954
247 1 1.57211 1.57206 17.2967 -8.94973
248 1 3.14452 -1.06058e-12 15.7241 -8.94954
249 1 4.71668 1.57139 17.297 -8.9507
250 1 6.28943 -1.09218e-12 15.7242 -8.95042
251 1 7.86174 1.57141 17.2974 -8.94965
252 1 9.43427 1.79135e-11 15.7247 -8.95027
253 1 11.0071 1.5713 17.2976 -8.94972
254 1 12.58 -1.2827e-12 15.7248 -8.95066
255 1 14.1529 1.57121 17.2978 -8.95
256 1 15.7252 -1.90296e-12 15.7247 -8.94938
257 1 17.2974 1.57199 17.2972 -8.94948
258 1 18.8695 1.64721e-13 15.7244 -8.94953
259 1 20.4416 1.57218 17.2968 -8.94952
260 1 -0.000201638 3.14434 15.7243 -8.94942
261 1 1.5712 4.71605 17.297 -8.95043
262 1 3.14435 3.14406 15.724 -8.94964
263 1 4.71413 4.71245 17.2995 -8.94986
264 1 6.28922 3.14258 15.7246 -8.95254
265 1 7.86149 4.71381 17.2993 -8.94773
266 1 9.4344 3.14198 15.7254 -8.95062
267 1 11.0084 4.71342 17.2996 -8.94916
268 1 12.5814 3.14097 15.726 -8.95155
269 1 14.1563 4.71301 17.301 -8.94453
270 1 15.726 3.14334 15.7252 -8.94919
271 1 17.2984 4.71622 17.2978 -8.94969
272 1 18.8697 3.14427 15.7245 -8.94945
273 1 20.4415 4.71674 17.2969 -8.94987
274 1 22.0131 6.28909 15.7242 -8.94986
275 1 1.56788 7.85992 17.2988 -8.9509
276 1 3.14243 6.28799 15.7244 -8.95168
277 1 4.704 7.84997 17.3095 -8.92996
278 1 6.28325 6.27909 15.7312 -8.95318
279 1 7.86109 7.85673 17.3057 -8.95091
280 1 9.43555 6.28062 15.7296 -8.95091
281 1 11.0134 7.85514 17.3072 -8.95318
282 1 12.5926 6.27687 15.7364 -8.92996
283 1 14.1542 7.86197 17.2983 -8.95168
284 1 15.7288 6.28749 15.7264 -8.9509
285 1 17.2974 7.86214 17.2972 -8.94986
286 1 18.87 6.28916 15.7246 -8.95024
287 1 20.4405 7.8617 17.2972 -8.95024
288 1 22.0114 9.43423 15.7246 -8.9518
289 1 3.13451 9.43203 15.7283 -8.95827
290 1 6.24893 9.40122 15.7614 -8.85426
291 1 9.44921 9.41044 15.7322 -8.90438
292 1 12.5825 9.43687 15.7247 -8.95294
293 1 15.7256 9.43522 15.7248 -8.94978
294 1 18.8691 9.43458 15.7245 -8.9499
295 1 22.0138 2.51595e-14 18.8692 -8.94971
296 1 1.57185 1.57187 20.442 -8.94948
297 1 3.14432 3.82439e-14 18.8695 -8.95006
298 1 4.71693 1.57191 20.442 -8.94949
299 1 6.28934 -4.59577e-13 18.8697 -8.94953
300 1 7.862 1.57194 20.4421 -8.94951
301 1 9.43447 -1.9723e-12 18.8698 -8.94955
302 1 11.0071 1.57197 20.4421 -8.94947
303 1 12.5797 -1.94274e-12 18.8698 -8.9496
304 1 14.1523 1.57197 20.4422 -8.94962
305 1 15.725 1.40379e-13 18.8699 -8.94953
306 1 17.2972 1.57209 20.4421 -8.94917
307 1 18.8694 4.14177e-14 18.8693 -8.94954
308 1 20.4415 1.57216 20.4417 -8.94959
309 1 22.0135 3.14422 18.8694 -8.94986
310 1 1.57085 4.71569 20.4428 -8.94821
311 1 3.14351 3.14297 18.8702 -8.94944
312 1 4.71641 4.71577 20.443 -8.94964
313 1 6.28917 3.14333 18.8702 -8.94914
314 1 7.86202 4.71597 20.4429 -8.94936
315 1 9.43461 3.1434 18.8704 -8.94936
316 1 11.0075 4.71611 20.443 -8.94914
317 1 12.5802 3.14335 18.8706 -8.94964
318 1 14.1531 4.71607 20.4434 -8.94944
319 1 15.7258 3.14352 18.8706 -8.94821
320 1 17.2971 4.71695 20.4421 -8.94986
321 1 18.8696 3.14436 18.8696 -8.94956
322 1 20.441 4.71675 20.442 -8.94956
323 1 22.0122 6.28855 18.8701 -8.94969
324 1 1.57066 7.86115 20.443 -8.94919
325 1 3.1403 6.28531 18.8733 -8.94453
326 1 4.71523 7.8603 20.4454 -8.95155
7 1 9.43456 1.65333e-13 22.0142 -8.94954
48 1 15.7245 9.43453 22.0142 -8.94955
44 1 3.14346 9.43404 22.0152 -8.94939
33 1 6.28949 6.28877 22.015 -8.94972
35 1 9.43489 6.28887 22.0149 -8.94965
3 1 3.1446 1.03339e-14 22.0141 -8.94956
11 1 15.7245 4.26576e-14 22.0142 -8.9496
17 1 3.14436 3.14414 22.0143 -8.94962
23 1 12.5797 3.14432 22.0144 -8.94949
29 1 -0.000775521 6.28916 22.0143 -8.94948
180 1 14.1532 1.57111 11.0065 -8.94939
187 1 14.156 4.71326 11.0054 -8.9476
344 1 1.57139 11.007 1.57242 -8.94947
345 1 4.71636 11.007 1.57242 -8.95035
346 1 7.86232 11.007 1.57242 -8.94849
347 1 11.0073 11.007 1.57242 -8.94914
348 1 14.1522 11.007 1.57242 -8.94966
349 1 17.2968 11.007 1.57242 -8.94958
350 1 20.441 11.007 1.57242 -8.94955
511 1 18.8697 18.8696 9.43421 -8.94945
352 1 1.57146 14.1523 1.57242 -8.94938
510 1 15.726 18.8706 9.43357 -8.94919
354 1 4.71669 14.1524 1.57242 -8.95066
355 1 6.28939 12.5795 0.00167861 -8.95144
356 1 7.86236 14.1522 1.57242 -8.95027
357 1 9.43466 12.5792 0.000514225 -8.94943
358 1 11.0072 14.1518 1.57242 -8.95042
359 1 12.5797 12.5792 0.000336656 -8.94936
360 1 14.1521 14.1517 1.57242 -8.94954
509 1 12.5814 18.8729 9.43272 -8.95155
362 1 17.2967 14.1518 1.57242 -8.94954
508 1 9.4344 18.8719 9.43334 -8.95062
364 1 20.4411 14.152 1.57242 -8.94953
539 1 20.4416 20.4417 11.0069 -8.94955
366 1 1.57162 17.2974 1.57242 -8.94953
367 1 3.1437 15.7254 0.00121185 -8.95
368 1 4.71693 17.2974 1.57242 -8.9496
507 1 6.28922 18.8713 9.43416 -8.95254
370 1 7.86217 17.2974 1.57242 -8.94955
506 1 3.14435 18.8698 9.43474 -8.94964
372 1 11.0073 17.2972 1.57242 -8.94953
373 1 12.58 15.7246 0.00102672 -8.9507
374 1 14.1523 17.2971 1.57242 -8.95006
375 1 15.7245 15.7242 0.000359028 -8.94973
376 1 17.2968 17.2968 1.57242 -8.94971
377 1 18.8689 15.7244 0.00023703 -8.94952
378 1 20.4411 17.2969 1.57242 -8.94954
379 1 22.0133 18.8696 0.000333237 -8.94917
380 1 1.57211 20.4418 1.57242 -8.9496
538 1 17.2975 20.442 11.0067 -8.94949
382 1 4.71708 20.4418 1.57242 -8.94952
505 1 -0.000201638 18.8696 9.43447 -8.94942
384 1 7.86208 20.4418 1.57242 -8.94954
504 1 18.87 15.7247 9.43412 -8.95024
386 1 11.0071 20.4418 1.57242 -8.94953
536 1 11.0072 20.4432 11.0068 -8.95144
388 1 14.152 20.4417 1.57242 -8.94956
389 1 15.7248 18.8696 0.000554856 -8.94948
390 1 17.2969 20.4417 1.57242 -8.94939
391 1 18.8691 18.8693 0.000256884 -8.94959
392 1 20.4413 20.4417 1.57242 -8.94927
393 1 1.57056 11.007 4.71571 -8.94945
394 1 4.71459 11.007 4.71323 -8.94958
395 1 7.86185 11.007 4.71645 -8.94634
396 1 11.0071 11.007 4.71721 -8.94821
397 1 14.1523 11.007 4.71652 -8.94964
398 1 17.2968 11.007 4.71673 -8.94957
399 1 20.4408 11.007 4.71666 -8.94951
400 1 22.013 12.5796 3.14436 -8.94949
401 1 1.57066 14.1527 4.71577 -8.94919
402 1 3.14346 12.5799 3.14353 -8.94939
403 1 4.71523 14.1536 4.71339 -8.95155
404 1 6.28939 12.5795 3.14316 -8.95144
405 1 7.86224 14.153 4.7144 -8.95062
406 1 9.43466 12.5792 3.14433 -8.94943
407 1 11.0074 14.1522 4.715 -8.95254
408 1 12.5797 12.5792 3.14451 -8.94936
409 1 14.1523 14.1516 4.71648 -8.94964
410 1 15.7245 12.5794 3.14451 -8.94955
411 1 17.2968 14.1519 4.71676 -8.94942
412 1 18.8689 12.5794 3.14458 -8.94955
413 1 20.4408 14.1521 4.71669 -8.94945
414 1 -0.000775521 15.7247 3.14441 -8.94948
415 1 1.57085 17.2982 4.71595 -8.94821
416 1 3.1437 15.7254 3.14363 -8.95
417 1 4.71641 17.2981 4.71577 -8.94964
418 1 6.28949 15.7251 3.14372 -8.94972
419 1 7.86202 17.2979 4.71582 -8.94936
420 1 9.43489 15.725 3.14383 -8.94965
421 1 11.0075 17.2978 4.71575 -8.94914
422 1 12.58 15.7246 3.14382 -8.9507
423 1 14.1531 17.2978 4.71539 -8.94944
424 1 15.7245 15.7242 3.14448 -8.94973
425 1 17.2971 17.297 4.71664 -8.94986
426 1 18.8689 15.7244 3.14461 -8.94952
427 1 20.441 17.2972 4.71678 -8.94956
428 1 22.0133 18.8696 3.14451 -8.94917
429 1 1.57185 20.442 4.71676 -8.94948
430 1 3.14436 18.8698 3.14439 -8.94962
431 1 4.71693 20.442 4.71674 -8.94949
432 1 6.28952 18.8697 3.14439 -8.94947
433 1 7.862 20.442 4.71664 -8.94951
434 1 9.43464 18.8697 3.14436 -8.94951
435 1 11.0071 20.4419 4.71661 -8.94947
436 1 12.5797 18.8696 3.14434 -8.94949
437 1 14.1523 20.4419 4.71656 -8.94962
438 1 15.7248 18.8696 3.14429 -8.94948
439 1 17.2972 20.4418 4.71669 -8.94917
440 1 18.8691 18.8693 3.14459 -8.94959
441 1 20.4415 20.4417 4.71702 -8.94959
442 1 1.56765 11.007 7.85952 -8.94906
443 1 4.70628 11.007 7.8517 -8.94206
444 1 7.85683 11.007 7.86569 -9.0033
445 1 11.0048 11.007 7.86461 -8.9451
446 1 14.1532 11.007 7.86051 -8.94648
447 1 17.2972 11.007 7.86128 -8.94955
448 1 20.4403 11.007 7.8614 -8.94998
449 1 -0.00191039 12.5798 6.28848 -8.94928
450 1 1.56788 14.154 7.85991 -8.9509
451 1 3.14061 12.5809 6.28568 -8.9476
452 1 4.704 14.1639 7.84929 -8.92996
453 1 6.28633 12.5808 6.28139 -8.95927
454 1 7.86109 14.1572 7.85304 -8.95091
455 1 9.43387 12.5796 6.28815 -8.95185
456 1 11.0134 14.1588 7.85151 -8.95318
457 1 12.5798 12.5787 6.28898 -8.94889
458 1 14.1542 14.1519 7.86041 -8.95168
459 1 15.7249 12.5793 6.28879 -8.94898
460 1 17.2974 14.1518 7.86151 -8.94986
461 1 18.8688 12.5795 6.28905 -8.94956
462 1 20.4405 14.1522 7.86158 -8.95024
463 1 22.0122 15.7254 6.28864 -8.94969
464 1 1.5712 17.2978 7.86172 -8.95043
465 1 3.1403 15.7286 6.28544 -8.94453
466 1 4.71413 17.3015 7.8592 -8.94986
467 1 6.28819 15.7271 6.28585 -8.94916
468 1 7.86149 17.3001 7.85943 -8.94773
469 1 9.43514 15.7269 6.28624 -8.94773
470 1 11.0084 17.3005 7.85919 -8.94916
471 1 12.5825 15.7271 6.28487 -8.94986
472 1 14.1563 17.3009 7.85773 -8.94453
473 1 15.7254 15.7246 6.28848 -8.95043
474 1 17.2984 17.2977 7.86097 -8.94969
475 1 18.869 15.7245 6.28916 -8.94987
476 1 20.4415 17.2972 7.86181 -8.94987
477 1 22.0135 18.8697 6.28937 -8.94986
478 1 1.57211 20.4418 7.86208 -8.94973
479 1 3.14351 18.8709 6.2885 -8.94944
480 1 4.71668 20.4425 7.8617 -8.9507
481 1 6.28917 18.8706 6.28854 -8.94914
482 1 7.86174 20.4425 7.8613 -8.94965
483 1 9.43461 18.8705 6.28839 -8.94936
484 1 11.0071 20.4426 7.86119 -8.94972
485 1 12.5802 18.8705 6.28819 -8.94964
486 1 14.1529 20.4427 7.86094 -8.95
487 1 15.7258 18.8704 6.28811 -8.94821
488 1 17.2974 20.4419 7.86158 -8.94948
489 1 18.8696 18.8695 6.28917 -8.94956
490 1 20.4416 20.4417 7.86194 -8.94952
491 1 22.0114 12.5797 9.43413 -8.9518
492 1 3.13451 12.5819 9.43049 -8.95827
493 1 6.24893 12.6127 9.3973 -8.85426
494 1 9.44921 12.6035 9.42659 -8.90438
495 1 12.5825 12.577 9.43403 -8.95294
496 1 15.7256 12.5787 9.43398 -8.94978
497 1 18.8691 12.5793 9.43421 -8.9499
498 1 22.0131 15.7248 9.43456 -8.94986
499 1 3.14243 15.7259 9.43439 -8.95168
500 1 6.28325 15.7348 9.42756 -8.95318
501 1 9.43555 15.7333 9.42915 -8.95091
502 1 12.5926 15.737 9.42239 -8.92996
503 1 15.7288 15.7264 9.43235 -8.9509
512 1 1.57013 11.007 11.0073 -8.95108
513 1 4.7097 11.007 10.9992 -8.9729
514 1 7.78478 11.0069 10.7751 -8.12129
515 1 10.984 11.0069 11.0169 -8.90223
516 1 14.1491 11.007 11.0076 -8.93977
517 1 17.2969 11.007 11.0067 -8.94763
518 1 20.4409 11.007 11.007 -8.94938
519 1 1.57101 14.1523 11.0076 -8.94978
520 1 4.71412 14.1523 11.0093 -8.95294
521 1 7.84743 14.1597 10.9829 -8.90437
522 1 11.0477 14.189 10.9736 -8.85422
523 1 14.1621 14.1558 11.0045 -8.95827
524 1 17.2992 14.1522 11.0067 -8.9518
525 1 20.4415 14.1521 11.007 -8.9499
527 1 4.71688 17.2973 11.0077 -8.94889
528 1 7.86277 17.2982 11.0068 -8.95185
529 1 11.0103 17.3049 11.0055 -8.95927
535 1 7.86198 20.442 11.0071 -8.94943
534 1 4.71692 20.4418 11.0071 -8.94936
351 1 22.013 12.5796 0.000479989 -8.94949
385 1 9.43464 18.8697 0.000478002 -8.94951
383 1 6.28952 18.8697 0.000454135 -8.94947
363 1 18.8689 12.5794 0.000264771 -8.94955
687 3 8.64832 11.0068 12.5794 2.30869
686 1 20.4415 20.4417 20.4417 -8.94959
685 1 18.8696 18.8695 18.8696 -8.94956
684 1 17.2972 20.4418 20.4421 -8.94917
683 1 15.7258 18.8704 18.8706 -8.94821
682 1 14.1523 20.4419 20.4422 -8.94962
681 1 12.5802 18.8705 18.8706 -8.94964
680 1 11.0071 20.4419 20.4421 -8.94947
679 1 9.43461 18.8705 18.8704 -8.94936
678 1 7.862 20.442 20.4421 -8.94951
677 1 6.28917 18.8706 18.8702 -8.94914
676 1 4.71693 20.442 20.442 -8.94949
675 1 3.14351 18.8709 18.8702 -8.94944
674 1 1.57185 20.442 20.442 -8.94948
526 1 1.5717 17.2975 11.007 -8.94898
673 1 22.0135 18.8697 18.8694 -8.94986
672 1 20.441 17.2972 20.442 -8.94956
671 1 18.869 15.7245 18.8696 -8.94987
670 1 17.2971 17.297 20.4421 -8.94986
531 1 17.2985 17.2978 11.0065 -8.94928
532 1 20.4417 17.2973 11.0068 -8.94956
533 1 1.57209 20.4418 11.007 -8.94955
669 1 15.7254 15.7246 18.8703 -8.95043
668 1 14.1531 17.2978 20.4434 -8.94944
667 1 12.5825 15.7271 18.8739 -8.94986
666 1 11.0075 17.2978 20.443 -8.94914
665 1 9.43514 15.7269 18.8725 -8.94773
664 1 7.86202 17.2979 20.4429 -8.94936
540 1 1.57013 11.007 14.1515 -8.95108
541 1 4.7097 11.007 14.1596 -8.9729
542 1 7.78478 11.0069 14.3837 -8.12129
543 1 10.984 11.0069 14.1419 -8.90223
544 1 14.1491 11.007 14.1512 -8.93977
545 1 17.2969 11.007 14.1521 -8.94763
546 1 20.4409 11.007 14.1517 -8.94938
547 1 22.0136 12.5796 12.5794 -8.94763
548 1 1.57101 14.1523 14.1511 -8.94978
549 1 3.14749 12.5788 12.5794 -8.93977
550 1 4.71412 14.1523 14.1495 -8.95294
551 1 6.31266 12.5694 12.5794 -8.90224
552 1 7.84743 14.1597 14.1759 -8.90437
553 1 9.51189 12.8113 12.5794 -8.12153
554 1 11.0477 14.189 14.1851 -8.85422
555 1 12.5869 12.5871 12.5794 -8.9729
556 1 14.1621 14.1558 14.1543 -8.95827
557 1 15.7265 12.5791 12.5794 -8.95108
558 1 17.2992 14.1522 14.1521 -8.9518
559 1 18.8696 12.5793 12.5794 -8.94938
560 1 20.4415 14.1521 14.1517 -8.9499
561 1 -0.00055312 15.725 12.5794 -8.94955
562 1 1.5717 17.2975 14.1518 -8.94898
563 1 3.14342 15.7258 12.5794 -8.94648
564 1 4.71688 17.2973 14.1511 -8.94889
565 1 6.29188 15.7217 12.5794 -8.9451
566 1 7.86277 17.2982 14.152 -8.95185
567 1 9.43981 15.7206 12.5794 -9.00331
568 1 11.0103 17.3049 14.1532 -8.95927
569 1 12.5904 15.7346 12.5794 -8.94206
570 1 14.156 17.3006 14.1533 -8.9476
571 1 15.729 15.7268 12.5794 -8.94906
572 1 17.2985 17.2978 14.1522 -8.94928
573 1 18.8703 15.7249 12.5794 -8.94998
574 1 20.4417 17.2973 14.1519 -8.94956
575 1 22.0137 18.8696 12.5794 -8.94957
576 1 1.57209 20.4418 14.1518 -8.94955
577 1 3.14431 18.8698 12.5794 -8.94964
578 1 4.71692 20.4418 14.1516 -8.94936
579 1 6.28955 18.8691 12.5794 -8.94821
580 1 7.86198 20.442 14.1517 -8.94943
581 1 9.43478 18.8699 12.5794 -8.94634
582 1 11.0072 20.4432 14.152 -8.95144
583 1 12.5821 18.8731 12.5794 -8.94958
584 1 14.1532 20.4428 14.1523 -8.94939
585 1 15.7261 18.8706 12.5794 -8.94945
586 1 17.2975 20.442 14.152 -8.94949
587 1 18.8697 18.8697 12.5794 -8.94951
588 1 20.4416 20.4417 14.1519 -8.94955
589 1 1.56765 11.007 17.2992 -8.94906
590 1 4.70628 11.007 17.307 -8.94206
591 1 7.85683 11.007 17.2931 -9.0033
592 1 11.0048 11.007 17.2941 -8.9451
593 1 14.1532 11.007 17.2982 -8.94648
594 1 17.2972 11.007 17.2975 -8.94955
595 1 20.4403 11.007 17.2973 -8.94998
596 1 22.0114 12.5797 15.7246 -8.9518
597 1 1.56788 14.154 17.2988 -8.9509
598 1 3.13451 12.5819 15.7283 -8.95827
599 1 4.704 14.1639 17.3095 -8.92996
600 1 6.24893 12.6127 15.7614 -8.85426
601 1 7.86109 14.1572 17.3057 -8.95091
602 1 9.44921 12.6035 15.7322 -8.90438
603 1 11.0134 14.1588 17.3072 -8.95318
604 1 12.5825 12.577 15.7247 -8.95294
605 1 14.1542 14.1519 17.2983 -8.95168
606 1 15.7256 12.5787 15.7248 -8.94978
607 1 17.2974 14.1518 17.2972 -8.94986
608 1 18.8691 12.5793 15.7245 -8.9499
609 1 20.4405 14.1522 17.2972 -8.95024
610 1 22.0131 15.7248 15.7242 -8.94986
611 1 1.5712 17.2978 17.297 -8.95043
612 1 3.14243 15.7259 15.7244 -8.95168
613 1 4.71413 17.3015 17.2995 -8.94986
614 1 6.28325 15.7348 15.7312 -8.95318
615 1 7.86149 17.3001 17.2993 -8.94773
616 1 9.43555 15.7333 15.7296 -8.95091
617 1 11.0084 17.3005 17.2996 -8.94916
618 1 12.5926 15.737 15.7364 -8.92996
619 1 14.1563 17.3009 17.301 -8.94453
620 1 15.7288 15.7264 15.7264 -8.9509
621 1 17.2984 17.2977 17.2978 -8.94969
622 1 18.87 15.7247 15.7246 -8.95024
623 1 20.4415 17.2972 17.2969 -8.94987
624 1 -0.000201638 18.8696 15.7243 -8.94942
625 1 1.57211 20.4418 17.2967 -8.94973
626 1 3.14435 18.8698 15.724 -8.94964
627 1 4.71668 20.4425 17.297 -8.9507
628 1 6.28922 18.8713 15.7246 -8.95254
629 1 7.86174 20.4425 17.2974 -8.94965
630 1 9.4344 18.8719 15.7254 -8.95062
631 1 11.0071 20.4426 17.2976 -8.94972
632 1 12.5814 18.8729 15.726 -8.95155
633 1 14.1529 20.4427 17.2978 -8.95
634 1 15.726 18.8706 15.7252 -8.94919
635 1 17.2974 20.4419 17.2972 -8.94948
636 1 18.8697 18.8696 15.7245 -8.94945
637 1 20.4416 20.4417 17.2968 -8.94952
638 1 1.57056 11.007 20.443 -8.94945
639 1 4.71459 11.007 20.4455 -8.94958
640 1 7.86185 11.007 20.4423 -8.94634
641 1 11.0071 11.007 20.4415 -8.94821
642 1 14.1523 11.007 20.4422 -8.94964
643 1 17.2968 11.007 20.442 -8.94957
644 1 20.4408 11.007 20.4421 -8.94951
645 1 -0.00191039 12.5798 18.8703 -8.94928
646 1 1.57066 14.1527 20.443 -8.94919
647 1 3.14061 12.5809 18.8731 -8.9476
648 1 4.71523 14.1536 20.4454 -8.95155
649 1 6.28633 12.5808 18.8773 -8.95927
650 1 7.86224 14.153 20.4443 -8.95062
651 1 9.43387 12.5796 18.8706 -8.95185
652 1 11.0074 14.1522 20.4437 -8.95254
653 1 12.5798 12.5787 18.8698 -8.94889
654 1 14.1523 14.1516 20.4423 -8.94964
655 1 15.7249 12.5793 18.87 -8.94898
656 1 17.2968 14.1519 20.442 -8.94942
657 1 18.8688 12.5795 18.8697 -8.94956
658 1 20.4408 14.1521 20.4421 -8.94945
659 1 22.0122 15.7254 18.8701 -8.94969
660 1 1.57085 17.2982 20.4428 -8.94821
661 1 3.1403 15.7286 18.8733 -8.94453
662 1 4.71641 17.2981 20.443 -8.94964
663 1 6.28819 15.7271 18.8729 -8.94916
371 1 9.43489 15.725 22.0149 -8.94965
353 1 3.14346 12.5799 22.0152 -8.94939
361 1 15.7245 12.5794 22.0142 -8.94955
369 1 6.28949 15.7251 22.015 -8.94972
365 1 -0.000775521 15.7247 22.0143 -8.94948
381 1 3.14436 18.8698 22.0143 -8.94962
387 1 12.5797 18.8696 22.0144 -8.94949
537 1 14.1532 20.4428 11.0065 -8.94939
530 1 14.156 17.3006 11.0054 -8.9476
