LAMMPS data file via write_data, version 2 Aug 2023, timestep = 16, units = metal

687 atoms
3 atom types

0 22.013900999999997 xlo xhi
0 22.013900999999997 ylo yhi
0 22.013900999999997 zlo zhi

Masses

1 183.84
2 1.008
3 4.0026

Atoms # atomic

1 1 22.013739966892437 0 22.013540532589683 -1 0 -1
2 1 1.5718792789044744 1.5720900326117555 1.5713547080618637 0 0 0
3 1 3.1447105994893834 1.6832109654834154e-15 22.01323667143479 0 0 -1
4 1 4.716897844702797 1.5721266236066562 1.5711826975211254 0 0 0
5 1 6.289596274726559 4.445525905609041e-16 22.012986976553847 0 0 -1
6 1 7.8619455311085495 1.5721106949939982 1.571009760484053 0 0 0
7 1 9.434529 4.752486568474887e-16 22.01290449829116 0 0 -1
8 1 11.007112468891448 1.5721106949939987 1.5710097604840536 0 0 0
9 1 12.57946172527344 1.0419683555186405e-15 22.012986976553844 0 0 -1
10 1 14.152160155297203 1.5721266236066567 1.5711826975211254 0 0 0
11 1 15.724347400510615 2.8335211733816087e-16 22.013236671434793 0 0 -1
12 1 17.297178721095523 1.5720900326117553 1.5713547080618635 0 0 0
13 1 18.86921903310756 0 22.013540532589683 0 0 -1
14 1 20.441479499999996 1.5721960527354708 1.5717027292147754 0 0 0
15 1 22.01368386230234 3.1446875982701923 22.01379227031888 -1 0 -1
16 1 1.571927916037161 4.717072553401749 1.5717535313216922 0 0 0
17 1 3.144541197588055 3.1445687713745296 22.0132179739036 0 0 -1
18 1 4.7165658003806366 4.716681357527156 1.5706478372654256 0 0 0
19 1 6.289569264248211 3.144633481400302 22.012951768193133 0 0 -1
20 1 7.8618878646499235 4.7166211086474465 1.5706235348604047 0 0 0
21 1 9.434529 3.144605763710528 22.012828760318932 0 0 -1
22 1 11.007170135350078 4.716621108647447 1.5706235348604047 0 0 0
23 1 12.579488735751788 3.144633481400303 22.012951768193133 0 0 -1
24 1 14.152492199619362 4.716681357527157 1.570647837265425 0 0 0
25 1 15.724516802411944 3.14456877137453 22.0132179739036 0 0 -1
26 1 17.297130083962838 4.717072553401749 1.5717535313216935 0 0 0
27 1 18.869275137697656 3.1446875982701914 22.01379227031888 0 0 -1
28 1 20.4414795 4.717270376274361 1.5721366928943068 0 0 0
29 1 22.013803451267382 6.289702349391565 0.0003269042212226414 -1 0 0
30 1 1.5722301594893038 7.8621849581796495 1.5724301240449323 0 0 0
31 1 3.144789313292652 6.289772598420939 8.193041034232351e-05 0 0 0
32 1 4.717411426337703 7.862609334885915 1.5721415583117557 0 0 0
33 1 6.289890869555564 6.2899272445197125 22.013086744297784 0 0 -1
34 1 7.862495962016761 7.862618818091833 1.5715626466217585 0 0 0
35 1 9.434529 6.289723598092999 22.012894955455387 0 0 -1
36 1 11.006562037983237 7.862618818091833 1.571562646621759 0 0 0
37 1 12.579167130444434 6.289927244519711 22.013086744297784 0 0 -1
38 1 14.151646573662296 7.862609334885916 1.5721415583117564 0 0 0
39 1 15.724268686707346 6.28977259842094 8.19304103387708e-05 0 0 0
40 1 17.296827840510694 7.8621849581796495 1.572430124044934 0 0 0
41 1 18.86915554873261 6.289702349391566 0.0003269042212240696 0 0 0
42 1 20.4414795 7.862175266465682 1.5725351314294045 0 0 0
43 1 22.013819694577325 9.434534766606744 0.0005655193694790296 -1 0 0
44 1 1.5722470251236838 11.006950499999999 1.572633173185301 0 0 0
45 1 3.144796227828666 9.43458498722981 0.0005124467614126529 0 0 0
46 1 4.717188255782783 11.0069505 1.5725749968070428 0 0 0
47 1 6.290250687924194 9.435056533045802 0.0004571100752777113 0 0 0
48 1 7.862750480324783 11.0069505 1.5747713953369722 0 0 0
49 1 9.434529 9.435149963237144 0.0003503442831913617 0 0 0
50 1 11.006307519675216 11.006950499999999 1.5747713953369729 0 0 0
51 1 12.578807312075805 9.435056533045802 0.0004571100752777113 0 0 0
52 1 14.151869744217217 11.006950499999999 1.5725749968070428 0 0 0
53 1 15.724261772171332 9.434584987229808 0.000512446761413103 0 0 0
54 1 17.296810974876315 11.006950499999999 1.5726331731853018 0 0 0
55 1 18.869139305422667 9.434534766606742 0.0005655193694794465 0 0 0
56 1 20.4414795 11.0069505 1.5726557452766121 0 0 0
57 1 22.01381969457733 12.579366233393255 0.0005655193694811913 -1 0 0
58 1 1.5722301594893042 14.15171604182035 1.5724301240449319 0 0 0
59 1 3.144796227828667 12.579316012770189 0.0005124467614118266 0 0 0
60 1 4.717411426337703 14.151291665114082 1.5721415583117553 0 0 0
61 1 6.290250687924194 12.578844466954196 0.0004571100752777113 0 0 0
62 1 7.862495962016761 14.151282181908165 1.5715626466217567 0 0 0
63 1 9.434529 12.578751036762855 0.0003503442831949144 0 0 0
64 1 11.006562037983239 14.151282181908165 1.5715626466217598 0 0 0
65 1 12.578807312075805 12.578844466954196 0.0004571100752777113 0 0 0
66 1 14.151646573662296 14.151291665114083 1.5721415583117557 0 0 0
67 1 15.724261772171333 12.57931601277019 0.0005124467614116938 0 0 0
68 1 17.296827840510694 14.151716041820348 1.5724301240449334 0 0 0
69 1 18.869139305422667 12.579366233393255 0.0005655193694793003 0 0 0
70 1 20.441479499999996 14.151725733534317 1.5725351314294045 0 0 0
71 1 22.013803451267382 15.724198650608434 0.00032690422122286065 -1 0 0
72 1 1.5719279160371624 17.296828446598248 1.5717535313216928 0 0 0
73 1 3.144789313292651 15.724128401579058 8.193041034232351e-05 0 0 0
74 1 4.716565800380635 17.297219642472843 1.5706478372654271 0 0 0
75 1 6.289890869555567 15.723973755480285 22.013086744297784 0 0 -1
76 1 7.861887864649923 17.297279891352552 1.5706235348604058 0 0 0
77 1 9.434528999999998 15.724177401907 22.012894955455387 0 0 -1
78 1 11.007170135350076 17.297279891352552 1.5706235348604052 0 0 0
79 1 12.579167130444436 15.723973755480285 22.013086744297787 0 0 -1
80 1 14.152492199619362 17.29721964247284 1.5706478372654256 0 0 0
81 1 15.724268686707346 15.72412840157906 8.193041034232351e-05 0 0 0
82 1 17.297130083962838 17.296828446598248 1.5717535313216944 0 0 0
83 1 18.869155548732614 15.724198650608434 0.00032690422122280303 0 0 0
84 1 20.441479499999996 17.296630623725637 1.5721366928943075 0 0 0
85 1 22.01368386230234 18.86921340172981 22.01379227031888 -1 0 -1
86 1 1.5718792789044722 20.44181096738824 1.5713547080618622 0 0 0
87 1 3.1445411975880555 18.86933222862547 22.0132179739036 0 0 -1
88 1 4.716897844702796 20.44177437639334 1.5711826975211256 0 0 0
89 1 6.289569264248211 18.869267518599695 22.012951768193133 0 0 -1
90 1 7.8619455311085495 20.441790305006002 1.5710097604840527 0 0 0
91 1 9.434529 18.86929523628947 22.012828760318932 0 0 -1
92 1 11.00711246889145 20.441790305006 1.5710097604840532 0 0 0
93 1 12.579488735751788 18.8692675185997 22.012951768193133 0 0 -1
94 1 14.152160155297203 20.44177437639334 1.5711826975211247 0 0 0
95 1 15.724516802411944 18.86933222862547 22.0132179739036 0 0 -1
96 1 17.297178721095523 20.441810967388243 1.5713547080618615 0 0 0
97 1 18.869275137697656 18.86921340172981 22.01379227031888 0 0 -1
98 1 20.441479499999996 20.441704947264526 1.571702729214775 0 0 0
99 1 22.013513779686978 1.866528062632991e-16 3.143849999515786 -1 0 0
100 1 1.571523471940985 1.5718332738717118 4.71601750911192 0 0 0
101 1 3.1440711994196646 6.99490449821451e-16 3.143393919214183 0 0 0
102 1 4.716225368302186 1.5712487645404343 4.71557560358327 0 0 0
103 1 6.28926600467956 5.447217339253959e-16 3.143278068381177 0 0 0
104 1 7.861740876744761 1.5714010741594868 4.715401971538037 0 0 0
105 1 9.434529 1.4089134734471541e-15 3.1431595331773283 0 0 0
106 1 11.007317123255238 1.571401074159487 4.715401971538037 0 0 0
107 1 12.57979199532044 0 3.143278068381176 0 0 0
108 1 14.152832631697814 1.571248764540434 4.715575603583271 0 0 0
109 1 15.724986800580334 8.724804661484009e-16 3.143393919214181 0 0 0
110 1 17.297534528059018 1.571833273871712 4.7160175091119205 0 0 0
111 1 18.86944522031302 8.115405673971209e-16 3.1438499995157887 0 0 0
112 1 20.4414795 1.5721063428882702 4.71636727294665 0 0 0
113 1 22.01327053347043 3.1442804121221513 3.143717046601488 -1 0 0
114 1 1.5702985170131225 4.715827365652181 4.715363352649886 0 0 0
115 1 3.143327222291596 3.143523668558454 3.14273580178099 0 0 0
116 1 4.713117385921084 4.71311433564162 4.7125398970788845 0 0 0
117 1 6.289039229831934 3.143769535562606 3.1429076741824575 0 0 0
118 1 7.861174117629458 4.714597100429562 4.713994058750496 0 0 0
119 1 9.434529 3.143731223072252 3.142777897085268 0 0 0
120 1 11.007883882370542 4.714597100429562 4.713994058750495 0 0 0
121 1 12.580018770168065 3.1437695355626065 3.1429076741824575 0 0 0
122 1 14.155940614078915 4.713114335641621 4.712539897078885 0 0 0
123 1 15.725730777708403 3.143523668558454 3.1427358017809905 0 0 0
124 1 17.298759482986878 4.715827365652181 4.715363352649885 0 0 0
125 1 18.869688466529567 3.144280412122151 3.143717046601489 0 0 0
126 1 20.441479499999996 4.716780068376915 4.716366159201951 0 0 0
127 1 22.01357085348831 6.289737755234118 3.1444544510753976 -1 0 0
128 1 1.5716637297705016 7.862319149264709 4.716913812188112 0 0 0
129 1 3.1439018356681663 6.289393797639054 3.143509974156092 0 0 0
130 1 4.7159582617381615 7.862072826483406 4.715373867769224 0 0 0
131 1 6.288454561910076 6.288455709958765 3.141344780208693 0 0 0
132 1 7.861383573347051 7.8607350556420945 4.711534757994777 0 0 0
133 1 9.434529 6.2880491693777145 3.141719473080402 0 0 0
134 1 11.007674426652947 7.860735055642094 4.711534757994776 0 0 0
135 1 12.580603438089923 6.288455709958764 3.1413447802086933 0 0 0
136 1 14.153099738261837 7.862072826483406 4.715373867769224 0 0 0
137 1 15.725156164331834 6.289393797639055 3.143509974156093 0 0 0
138 1 17.297394270229496 7.86231914926471 4.716913812188111 0 0 0
139 1 18.869388146511685 6.2897377552341185 3.1444544510753967 0 0 0
140 1 20.4414795 7.862274065712916 4.717075915253568 0 0 0
141 1 22.013684850285948 9.43457693021864 3.1447735550838014 -1 0 0
142 1 1.5717589218701824 11.006950499999999 4.717049734852175 0 0 0
143 1 3.144370118256138 9.434616928024761 3.144587470532659 0 0 0
144 1 4.715988248794381 11.006950499999999 4.716783411889447 0 0 0
145 1 6.290183054241156 9.435887445967374 3.1455341706625357 0 0 0
146 1 7.864844508263427 11.0069505 4.727674080699844 0 0 0
147 1 9.434529 9.435688213524593 3.148380752016095 0 0 0
148 1 11.004213491736573 11.0069505 4.727674080699843 0 0 0
149 1 12.578874945758841 9.435887445967374 3.145534170662535 0 0 0
150 1 14.153069751205617 11.006950499999999 4.7167834118894465 0 0 0
151 1 15.72468788174386 9.434616928024761 3.1445874705326595 0 0 0
152 1 17.297299078129818 11.0069505 4.717049734852175 0 0 0
153 1 18.869274149714048 9.43457693021864 3.144773555083801 0 0 0
154 1 20.441479499999996 11.006950499999999 4.717153055407981 0 0 0
155 1 22.013684850285948 12.579324069781359 3.1447735550838014 -1 0 0
156 1 1.5716637297705018 14.151581850735289 4.716913812188112 0 0 0
157 1 3.144370118256139 12.579284071975236 3.144587470532658 0 0 0
158 1 4.715958261738162 14.151828173516591 4.715373867769224 0 0 0
159 1 6.290183054241156 12.578013554032625 3.145534170662534 0 0 0
160 1 7.861383573347051 14.153165944357905 4.711534757994777 0 0 0
161 1 9.434529 12.578212786475406 3.1483807520160956 0 0 0
162 1 11.007674426652947 14.153165944357903 4.711534757994776 0 0 0
163 1 12.578874945758843 12.578013554032625 3.1455341706625353 0 0 0
164 1 14.153099738261838 14.151828173516593 4.715373867769225 0 0 0
165 1 15.72468788174386 12.579284071975238 3.144587470532659 0 0 0
166 1 17.297394270229496 14.151581850735289 4.716913812188112 0 0 0
167 1 18.869274149714048 12.579324069781359 3.144773555083802 0 0 0
168 1 20.4414795 14.151626934287082 4.7170759152535675 0 0 0
169 1 22.01357085348831 15.72416324476588 3.144454451075396 -1 0 0
170 1 1.5702985170131223 17.29807363434782 4.715363352649886 0 0 0
171 1 3.143901835668166 15.724507202360945 3.1435099741560912 0 0 0
172 1 4.713117385921084 17.300786664358377 4.712539897078884 0 0 0
173 1 6.288454561910076 15.725445290041234 3.141344780208694 0 0 0
174 1 7.861174117629458 17.299303899570436 4.713994058750494 0 0 0
175 1 9.434529 15.725851830622284 3.141719473080401 0 0 0
176 1 11.00788388237054 17.299303899570436 4.713994058750495 0 0 0
177 1 12.580603438089923 15.725445290041234 3.141344780208692 0 0 0
178 1 14.155940614078917 17.300786664358377 4.712539897078884 0 0 0
179 1 15.725156164331832 15.724507202360945 3.1435099741560926 0 0 0
180 1 17.298759482986874 17.298073634347816 4.715363352649885 0 0 0
181 1 18.869388146511685 15.724163244765881 3.1444544510753962 0 0 0
182 1 20.4414795 17.297120931623084 4.71636615920195 0 0 0
183 1 22.01327053347043 18.869620587877847 3.143717046601488 -1 0 0
184 1 1.5715234719409847 20.442067726128286 4.7160175091119205 0 0 0
185 1 3.1433272222915956 18.870377331441546 3.1427358017809888 0 0 0
186 1 4.716225368302185 20.442652235459565 4.71557560358327 0 0 0
187 1 6.289039229831934 18.870131464437392 3.142907674182457 0 0 0
188 1 7.8617408767447605 20.44249992584051 4.7154019715380375 0 0 0
189 1 9.434529 18.870169776927746 3.1427778970852676 0 0 0
190 1 11.007317123255238 20.44249992584051 4.7154019715380375 0 0 0
191 1 12.580018770168065 18.870131464437392 3.142907674182456 0 0 0
192 1 14.152832631697814 20.442652235459565 4.715575603583269 0 0 0
193 1 15.725730777708403 18.870377331441546 3.1427358017809914 0 0 0
194 1 17.297534528059014 20.442067726128286 4.71601750911192 0 0 0
195 1 18.86968846652957 18.869620587877847 3.143717046601489 0 0 0
196 1 20.4414795 20.44179465711173 4.716367272946649 0 0 0
197 1 22.01343029798982 0 6.288880242061906 -1 0 0
198 1 1.571418065803609 1.5717401969573903 7.861437868149357 0 0 0
199 1 3.143836648435799 2.2517790327484613e-16 6.288615397094644 0 0 0
200 1 4.71615656859493 1.571070669022607 7.86126807030938 0 0 0
201 1 6.289290802735247 3.9783306331167495e-16 6.288625083725266 0 0 0
202 1 7.862218165696626 1.57143639748996 7.8614074972205295 0 0 0
203 1 9.434529 9.463366333193412e-16 6.288234638597121 0 0 0
204 1 11.006839834303374 1.5714363974899601 7.8614074972205295 0 0 0
205 1 12.579767197264752 1.728689061930992e-16 6.288625083725266 0 0 0
206 1 14.152901431405068 1.5710706690226062 7.861268070309378 0 0 0
207 1 15.725221351564198 6.965985397523973e-16 6.288615397094644 0 0 0
208 1 17.29763993419639 1.571740196957392 7.8614378681493555 0 0 0
209 1 18.869528702010175 1.4002434970188657e-15 6.2888802420619045 0 0 0
210 1 20.441479499999996 1.5719874147520632 7.861591453147184 0 0 0
211 1 22.013197350329495 3.1441028108768103 6.288809325388222 -1 0 0
212 1 1.5703886865748116 4.715649150089089 7.8612884432571155 0 0 0
213 1 3.1430304259230337 3.142913805857436 6.288108762329345 0 0 0
214 1 4.713750754268269 4.712668658000501 7.8599998154839845 0 0 0
215 1 6.288363123041167 3.1415635049010495 6.287654294023248 0 0 0
216 1 7.861723904886808 4.71204304003637 7.860142811490334 0 0 0
217 1 9.434529 3.142059237150167 6.287000309284316 0 0 0
218 1 11.00733409511319 4.712043040036369 7.860142811490334 0 0 0
219 1 12.580694876958832 3.1415635049010486 6.287654294023248 0 0 0
220 1 14.155307245731729 4.712668658000502 7.8599998154839845 0 0 0
221 1 15.726027574076964 3.142913805857436 6.288108762329346 0 0 0
222 1 17.29866931342519 4.71564915008909 7.861288443257117 0 0 0
223 1 18.8697616496705 3.1441028108768094 6.288809325388224 0 0 0
224 1 20.4414795 4.716445034783747 7.8616387735642865 0 0 0
225 1 22.012647200867136 6.289198013527818 6.289041302397025 -1 0 0
226 1 1.5697052290429034 7.861627556851088 7.862058421101873 0 0 0
227 1 3.1393272952496964 6.28606517769545 6.285991235185134 0 0 0
228 1 4.7044073174670995 7.853630021280913 7.85497408205778 0 0 0
229 1 6.278103811854952 6.27788092414934 6.277563488925769 0 0 0
230 1 7.826553742830846 7.831420077863055 7.826027611648623 0 0 0
231 1 9.434529 6.283325740899938 6.282871145723576 0 0 0
232 1 11.042504257169151 7.831420077863055 7.826027611648623 0 0 0
233 1 12.590954188145046 6.277880924149339 6.277563488925768 0 0 0
234 1 14.1646506825329 7.853630021280912 7.85497408205778 0 0 0
235 1 15.729730704750303 6.286065177695451 6.285991235185134 0 0 0
236 1 17.299352770957093 7.861627556851088 7.862058421101873 0 0 0
237 1 18.87031179913286 6.289198013527816 6.289041302397026 0 0 0
238 1 20.4414795 7.862198044623203 7.862317533289914 0 0 0
239 1 22.013538109725012 9.434735440751158 6.289704723865281 -1 0 0
240 1 1.5725573572755382 11.0069505 7.8624587877369585 0 0 0
241 1 3.144013991570102 9.435298869847223 6.289791020109923 0 0 0
242 1 4.720604368336114 11.0069505 7.865065978669645 0 0 0
243 1 6.289070445998911 9.437954643515258 6.28866404753622 0 0 0
244 1 7.868833551430281 11.006950499999999 7.892821012076455 0 0 0
245 1 9.434529 9.432069815873547 6.303669605734498 0 0 0
246 1 11.000224448569718 11.0069505 7.892821012076457 0 0 0
247 1 12.57998755400109 9.437954643515258 6.288664047536219 0 0 0
248 1 14.148453631663884 11.0069505 7.865065978669644 0 0 0
249 1 15.725044008429897 9.435298869847221 6.289791020109922 0 0 0
250 1 17.296500642724464 11.0069505 7.862458787736959 0 0 0
251 1 18.869420890274984 9.434735440751158 6.289704723865281 0 0 0
252 1 20.441479499999996 11.006950499999999 7.862360288190596 0 0 0
253 1 22.013538109725012 12.579165559248839 6.28970472386528 -1 0 0
254 1 1.5697052290429068 14.15227344314891 7.862058421101873 0 0 0
255 1 3.144013991570103 12.578602130152776 6.289791020109923 0 0 0
256 1 4.7044073174670995 14.160270978719087 7.85497408205778 0 0 0
257 1 6.289070445998911 12.57594635648474 6.288664047536219 0 0 0
258 1 7.826553742830847 14.182480922136945 7.826027611648622 0 0 0
259 1 9.434529 12.581831184126452 6.303669605734497 0 0 0
260 1 11.042504257169151 14.182480922136943 7.826027611648623 0 0 0
261 1 12.57998755400109 12.57594635648474 6.288664047536219 0 0 0
262 1 14.1646506825329 14.160270978719085 7.8549740820577805 0 0 0
263 1 15.725044008429895 12.578602130152776 6.289791020109923 0 0 0
264 1 17.299352770957096 14.15227344314891 7.862058421101873 0 0 0
265 1 18.869420890274984 12.579165559248839 6.289704723865282 0 0 0
266 1 20.441479499999996 14.151702955376795 7.862317533289914 0 0 0
267 1 22.012647200867136 15.724702986472181 6.289041302397025 -1 0 0
268 1 1.5703886865748091 17.29825184991091 7.861288443257117 0 0 0
269 1 3.1393272952496964 15.727835822304547 6.285991235185133 0 0 0
270 1 4.713750754268269 17.301232341999498 7.8599998154839845 0 0 0
271 1 6.278103811854953 15.736020075850659 6.277563488925768 0 0 0
272 1 7.861723904886808 17.30185795996363 7.860142811490335 0 0 0
273 1 9.434529 15.730575259100059 6.282871145723576 0 0 0
274 1 11.007334095113192 17.30185795996363 7.860142811490335 0 0 0
275 1 12.590954188145046 15.736020075850659 6.277563488925767 0 0 0
276 1 14.155307245731729 17.301232341999498 7.8599998154839845 0 0 0
277 1 15.729730704750303 15.727835822304549 6.285991235185132 0 0 0
278 1 17.29866931342519 17.29825184991091 7.861288443257117 0 0 0
279 1 18.87031179913286 15.724702986472181 6.289041302397027 0 0 0
280 1 20.4414795 17.29745596521625 7.8616387735642865 0 0 0
281 1 22.013197350329495 18.86979818912319 6.288809325388223 -1 0 0
282 1 1.571418065803608 20.442160803042608 7.861437868149356 0 0 0
283 1 3.143030425923034 18.870987194142565 6.288108762329345 0 0 0
284 1 4.716156568594932 20.442830330977394 7.861268070309377 0 0 0
285 1 6.288363123041168 18.87233749509895 6.287654294023248 0 0 0
286 1 7.862218165696625 20.44246460251004 7.861407497220529 0 0 0
287 1 9.434529 18.871841762849833 6.287000309284315 0 0 0
288 1 11.006839834303374 20.44246460251004 7.861407497220528 0 0 0
289 1 12.58069487695883 18.87233749509895 6.287654294023248 0 0 0
290 1 14.152901431405066 20.442830330977394 7.861268070309379 0 0 0
291 1 15.726027574076966 18.870987194142565 6.288108762329344 0 0 0
292 1 17.29763993419639 20.442160803042608 7.861437868149357 0 0 0
293 1 18.8697616496705 18.869798189123188 6.288809325388222 0 0 0
294 1 20.441479499999996 20.441913585247935 7.861591453147184 0 0 0
295 1 22.013407509312497 4.161677877854977e-16 9.434337698989232 -1 0 0
296 1 1.5714632126765522 1.5716977313543004 11.007139898708568 0 0 0
297 1 3.1437718201902767 2.711182120650335e-15 9.434226794473643 0 0 0
298 1 4.716211736426845 1.5710996552181766 11.00699475820069 0 0 0
299 1 6.289299250605498 2.3351569551264055e-15 9.434166455692198 0 0 0
300 1 7.862481435356823 1.5722145055633336 11.006277137043295 0 0 0
301 1 9.434529 1.2062774158431965e-15 9.433984045590519 0 0 0
302 1 11.006576564643176 1.5722145055633339 11.006277137043295 0 0 0
303 1 12.579758749394502 1.7442548520201535e-15 9.434166455692196 0 0 0
304 1 14.152846263573155 1.5710996552181762 11.00699475820069 0 0 0
305 1 15.725286179809723 1.8134884624198234e-15 9.434226794473643 0 0 0
306 1 17.297594787323447 1.571697731354299 11.00713989870857 0 0 0
307 1 18.8695514906875 1.4345016601111257e-15 9.434337698989232 0 0 0
308 1 20.4414795 1.571928009312501 11.007141801010766 0 0 0
309 1 22.013177231354298 3.1438847126765515 9.43433960129143 -1 0 0
310 1 1.5703971211552734 4.715419559612773 11.007362220187188 0 0 0
311 1 3.142998059612774 3.1428186211552727 9.434117279812812 0 0 0
312 1 4.7137306698278705 4.712787998148351 11.007493300870022 0 0 0
313 1 6.2882884227246265 3.1418115948248735 9.434074641601303 0 0 0
314 1 7.862391395500076 4.716400041000706 11.005344682121537 0 0 0
315 1 9.434529 3.1467240209758973 9.433720049702385 0 0 0
316 1 11.006666604499925 4.716400041000706 11.005344682121537 0 0 0
317 1 12.580769577275372 3.141811594824875 9.434074641601303 0 0 0
318 1 14.155327330172128 4.71278799814835 11.00749330087002 0 0 0
319 1 15.726059940387225 3.142818621155274 9.434117279812813 0 0 0
320 1 17.298660878844725 4.715419559612774 11.007362220187186 0 0 0
321 1 18.869781768645698 3.1438847126765515 9.43433960129143 0 0 0
322 1 20.4414795 4.716193320190277 11.007252705526357 0 0 0
323 1 22.012579155218177 6.288633236426847 9.434484741799308 -1 0 0
324 1 1.5693900948248745 7.860709922724627 11.007404858398697 0 0 0
325 1 3.140366498148351 6.28615216982787 9.433986199129976 0 0 0
326 1 4.706952887987244 7.855395898709529 11.008237566758124 0 0 0
327 1 6.28297439870953 6.279374387987243 9.433241933241876 0 0 0
328 1 7.832232048526592 7.8512160385365 11.024209516376708 0 0 0
329 1 9.434529 6.308508069338078 9.43224564739549 0 0 0
330 1 11.036825951473407 7.851216038536501 11.024209516376708 0 0 0
331 1 12.58608360129047 6.279374387987243 9.433241933241876 0 0 0
332 1 14.162105112012757 7.855395898709529 11.008237566758122 0 0 0
333 1 15.72869150185165 6.28615216982787 9.433986199129976 0 0 0
334 1 17.299667905175124 7.860709922724626 11.007404858398697 0 0 0
335 1 18.870379844781823 6.288633236426845 9.434484741799306 0 0 0
336 1 20.4414795 7.861720750605497 11.007313044307802 0 0 0
337 1 22.01369400556333 9.434902935356822 9.435202362956705 -1 0 0
338 1 1.574302520975899 11.006950499999999 11.007759450297614 0 0 0
339 1 3.143978541000706 9.434812895500077 9.436134817878461 0 0 0
340 1 4.736086569338079 11.0069505 11.009233852604508 0 0 0
341 1 6.2787945385365 9.404653548526591 9.417269983623292 0 0 0
342 1 7.601055065773733 11.006950499999999 11.083849397656028 0 0 0
343 1 9.434529 9.173476565773736 9.357630102343974 0 0 0
344 1 11.26800293422626 11.006950499999999 11.083849397656023 0 0 0
345 1 12.590263461463499 9.404653548526593 9.417269983623292 0 0 0
346 1 14.132971430661922 11.0069505 11.009233852604508 0 0 0
347 1 15.725079458999295 9.434812895500075 9.436134817878461 0 0 0
348 1 17.2947554790241 11.0069505 11.007759450297614 0 0 0
349 1 18.869264994436666 9.434902935356824 9.435202362956705 0 0 0
350 1 20.4414795 11.006950499999999 11.00749545440948 0 0 0
351 1 22.01369400556333 12.578998064643175 9.435202362956705 -1 0 0
352 1 1.5693900948248738 14.153191077275372 11.007404858398697 0 0 0
353 1 3.1439785410007057 12.579088104499922 9.436134817878461 0 0 0
354 1 4.706952887987243 14.15850510129047 11.008237566758124 0 0 0
355 1 6.2787945385365 12.609247451473406 9.417269983623292 0 0 0
356 1 7.832232048526591 14.162684961463498 11.024209516376708 0 0 0
357 1 9.434529000000001 12.84042443422626 9.357630102343975 0 0 0
358 1 11.036825951473407 14.162684961463498 11.024209516376706 0 0 0
359 1 12.590263461463499 12.609247451473406 9.417269983623292 0 0 0
360 1 14.162105112012757 14.15850510129047 11.008237566758124 0 0 0
361 1 15.725079458999291 12.579088104499924 9.436134817878461 0 0 0
362 1 17.299667905175124 14.153191077275373 11.007404858398697 0 0 0
363 1 18.869264994436666 12.578998064643175 9.435202362956703 0 0 0
364 1 20.4414795 14.1521802493945 11.007313044307802 0 0 0
365 1 22.012579155218173 15.725267763573154 9.434484741799308 -1 0 0
366 1 1.570397121155273 17.298481440387224 11.007362220187186 0 0 0
367 1 3.1403664981483512 15.727748830172127 9.433986199129976 0 0 0
368 1 4.7137306698278705 17.301113001851647 11.00749330087002 0 0 0
369 1 6.28297439870953 15.734526612012756 9.433241933241876 0 0 0
370 1 7.862391395500075 17.297500958999294 11.005344682121537 0 0 0
371 1 9.434529 15.70539293066192 9.43224564739549 0 0 0
372 1 11.006666604499925 17.297500958999294 11.005344682121537 0 0 0
373 1 12.586083601290468 15.734526612012756 9.433241933241876 0 0 0
374 1 14.15532733017213 17.30111300185165 11.007493300870022 0 0 0
375 1 15.72869150185165 15.727748830172128 9.433986199129976 0 0 0
376 1 17.298660878844725 17.298481440387224 11.007362220187186 0 0 0
377 1 18.870379844781823 15.725267763573154 9.434484741799306 0 0 0
378 1 20.4414795 17.297707679809722 11.007252705526358 0 0 0
379 1 22.013177231354295 18.87001628732345 9.434339601291432 -1 0 0
380 1 1.5714632126765506 20.4422032686457 11.007139898708568 0 0 0
381 1 3.1429980596127747 18.871082378844726 9.434117279812812 0 0 0
382 1 4.716211736426846 20.44280134478182 11.006994758200692 0 0 0
383 1 6.2882884227246265 18.872089405175124 9.434074641601303 0 0 0
384 1 7.862481435356824 20.441686494436663 11.006277137043293 0 0 0
385 1 9.434529 18.8671769790241 9.433720049702385 0 0 0
386 1 11.006576564643176 20.441686494436667 11.006277137043295 0 0 0
387 1 12.580769577275372 18.872089405175124 9.434074641601303 0 0 0
388 1 14.152846263573153 20.44280134478182 11.006994758200692 0 0 0
389 1 15.726059940387225 18.871082378844726 9.434117279812813 0 0 0
390 1 17.297594787323447 20.4422032686457 11.007139898708566 0 0 0
391 1 18.869781768645698 18.87001628732345 9.434339601291432 0 0 0
392 1 20.4414795 20.441972990687496 11.007141801010766 0 0 0
393 1 22.013466914752062 1.4591580338106884e-16 12.579888046852815 -1 0 0
394 1 1.5716813108768102 1.571717850329497 14.152670174611776 0 0 0
395 1 3.1440235347837473 9.142377187854233e-16 12.579840726435712 0 0 0
396 1 4.716776513527818 1.5711677008671394 14.152438197602974 0 0 0
397 1 6.289776544623203 1.6081641647713303e-15 12.579161966710085 0 0 0
398 1 7.862313940751159 1.572058609725015 14.15177477613472 0 0 0
399 1 9.434529 1.5484234357380695e-15 12.579119211809404 0 0 0
400 1 11.00674405924884 1.5720586097250144 14.151774776134719 0 0 0
401 1 12.579281455376796 9.798508423555396e-17 12.579161966710085 0 0 0
402 1 14.152281486472182 1.5711677008671385 14.152438197602974 0 0 0
403 1 15.725034465216254 3.793137198879206e-16 12.579840726435712 0 0 0
404 1 17.29737668912319 1.571717850329497 14.152670174611774 0 0 0
405 1 18.869492085247934 1.4935913682790132e-15 12.579888046852815 0 0 0
406 1 20.4414795 1.571950797989821 14.152599257938094 0 0 0
407 1 22.01321969695739 3.1438395658036073 12.580041631850643 -1 0 0
408 1 1.5704923058574358 4.715451925923033 14.153370737670654 0 0 0
409 1 3.143227650089089 3.142810186574809 12.580191056742882 0 0 0
410 1 4.713643677695449 4.711748795249696 14.155488264814867 0 0 0
411 1 6.289206056851089 3.1421267290429054 12.579421078898127 0 0 0
412 1 7.862877369847224 4.716435491570102 14.151688479890076 0 0 0
413 1 9.434529 3.1449788572755377 12.579020712263041 0 0 0
414 1 11.006180630152775 4.716435491570103 14.151688479890076 0 0 0
415 1 12.579851943148912 3.142126729042906 12.579421078898127 0 0 0
416 1 14.15541432230455 4.711748795249696 14.155488264814865 0 0 0
417 1 15.725830349910911 3.1428101865748093 12.580191056742882 0 0 0
418 1 17.298565694142564 4.715451925923033 14.153370737670654 0 0 0
419 1 18.86973930304261 3.1438395658036065 12.580041631850643 0 0 0
420 1 20.4414795 4.7162581484357995 14.152864102905355 0 0 0
421 1 22.012550169022603 6.288578068594932 12.580211429690621 -1 0 0
422 1 1.5691420049010487 7.860784623041167 14.15382520597675 0 0 0
423 1 3.1402471580005016 6.286172254268269 12.581479684516015 0 0 0
424 1 4.705459424149338 7.850525311854952 14.163916011074232 0 0 0
425 1 6.281208521280914 6.276828817467099 12.586505417942218 0 0 0
426 1 7.865533143515258 7.86149194599891 14.152815452463779 0 0 0
427 1 9.434529 6.293025868336114 12.576413521330354 0 0 0
428 1 11.003524856484741 7.86149194599891 14.15281545246378 0 0 0
429 1 12.587849478719086 6.2768288174671 12.586505417942218 0 0 0
430 1 14.16359857585066 7.850525311854952 14.16391601107423 0 0 0
431 1 15.728810841999497 6.286172254268269 12.581479684516015 0 0 0
432 1 17.29991599509895 7.860784623041167 14.15382520597675 0 0 0
433 1 18.870408830977393 6.288578068594932 12.580211429690621 0 0 0
434 1 20.441479499999996 7.861712302735246 14.152854416274733 0 0 0
435 1 22.012915897489954 9.434639665696626 12.58007200277947 -1 0 0
436 1 1.5696377371501677 11.006950499999999 14.154479190715684 0 0 0
437 1 3.1396215400363703 9.434145404886808 12.581336688509664 0 0 0
438 1 4.7109042408999375 11.006950499999999 14.158608354276424 0 0 0
439 1 6.258998577863055 9.398975242830847 12.615451888351375 0 0 0
440 1 7.859648315873547 11.0069505 14.137809894265501 0 0 0
441 1 9.434529 9.44125505143028 12.548658487923543 0 0 0
442 1 11.009409684126453 11.0069505 14.137809894265501 0 0 0
443 1 12.610059422136944 9.398975242830845 12.615451888351377 0 0 0
444 1 14.15815375910006 11.006950499999999 14.158608354276423 0 0 0
445 1 15.72943645996363 9.434145404886808 12.581336688509664 0 0 0
446 1 17.299420262849832 11.006950499999999 14.154479190715684 0 0 0
447 1 18.87004310251004 9.434639665696626 12.58007200277947 0 0 0
448 1 20.4414795 11.006950499999999 14.153244861402875 0 0 0