ITEM: TIMESTEP
16
ITEM: NUMBER OF ATOMS
687
ITEM: BOX BOUNDS pp pp pp
0.0000000000000000e+00 2.2013900999999997e+01
0.0000000000000000e+00 2.2013900999999997e+01
0.0000000000000000e+00 2.2013900999999997e+01
ITEM: ATOMS id x y z
1 22.0137 0 22.0135
2 1.57188 1.57209 1.57135
3 3.14471 1.68321e-15 22.0132
4 4.7169 1.57213 1.57118
5 6.2896 4.44553e-16 22.013
6 7.86195 1.57211 1.57101
7 9.43453 4.75249e-16 22.0129
8 11.0071 1.57211 1.57101
9 12.5795 1.04197e-15 22.013
10 14.1522 1.57213 1.57118
11 15.7243 2.83352e-16 22.0132
12 17.2972 1.57209 1.57135
13 18.8692 0 22.0135
14 20.4415 1.5722 1.5717
15 22.0137 3.14469 22.0138
16 1.57193 4.71707 1.57175
17 3.14454 3.14457 22.0132
18 4.71657 4.71668 1.57065
19 6.28957 3.14463 22.013
20 7.86189 4.71662 1.57062
21 9.43453 3.14461 22.0128
22 11.0072 4.71662 1.57062
23 12.5795 3.14463 22.013
24 14.1525 4.71668 1.57065
25 15.7245 3.14457 22.0132
26 17.2971 4.71707 1.57175
27 18.8693 3.14469 22.0138
28 20.4415 4.71727 1.57214
29 22.0138 6.2897 0.000326904
30 1.57223 7.86218 1.57243
31 3.14479 6.28977 8.19304e-05
32 4.71741 7.86261 1.57214
33 6.28989 6.28993 22.0131
34 7.8625 7.86262 1.57156
35 9.43453 6.28972 22.0129
36 11.0066 7.86262 1.57156
37 12.5792 6.28993 22.0131
38 14.1516 7.86261 1.57214
39 15.7243 6.28977 8.19304e-05
40 17.2968 7.86218 1.57243
41 18.8692 6.2897 0.000326904
42 20.4415 7.86218 1.57254
43 22.0138 9.43453 0.000565519
44 1.57225 11.007 1.57263
45 3.1448 9.43458 0.000512447
46 4.71719 11.007 1.57257
47 6.29025 9.43506 0.00045711
48 7.86275 11.007 1.57477
49 9.43453 9.43515 0.000350344
50 11.0063 11.007 1.57477
51 12.5788 9.43506 0.00045711
52 14.1519 11.007 1.57257
53 15.7243 9.43458 0.000512447
54 17.2968 11.007 1.57263
55 18.8691 9.43453 0.000565519
56 20.4415 11.007 1.57266
57 22.0138 12.5794 0.000565519
58 1.57223 14.1517 1.57243
59 3.1448 12.5793 0.000512447
60 4.71741 14.1513 1.57214
61 6.29025 12.5788 0.00045711
62 7.8625 14.1513 1.57156
63 9.43453 12.5788 0.000350344
64 11.0066 14.1513 1.57156
65 12.5788 12.5788 0.00045711
66 14.1516 14.1513 1.57214
67 15.7243 12.5793 0.000512447
68 17.2968 14.1517 1.57243
69 18.8691 12.5794 0.000565519
70 20.4415 14.1517 1.57254
71 22.0138 15.7242 0.000326904
72 1.57193 17.2968 1.57175
73 3.14479 15.7241 8.19304e-05
74 4.71657 17.2972 1.57065
75 6.28989 15.724 22.0131
76 7.86189 17.2973 1.57062
77 9.43453 15.7242 22.0129
78 11.0072 17.2973 1.57062
79 12.5792 15.724 22.0131
80 14.1525 17.2972 1.57065
81 15.7243 15.7241 8.19304e-05
82 17.2971 17.2968 1.57175
83 18.8692 15.7242 0.000326904
84 20.4415 17.2966 1.57214
85 22.0137 18.8692 22.0138
86 1.57188 20.4418 1.57135
87 3.14454 18.8693 22.0132
88 4.7169 20.4418 1.57118
89 6.28957 18.8693 22.013
90 7.86195 20.4418 1.57101
91 9.43453 18.8693 22.0128
92 11.0071 20.4418 1.57101
93 12.5795 18.8693 22.013
94 14.1522 20.4418 1.57118
95 15.7245 18.8693 22.0132
96 17.2972 20.4418 1.57135
97 18.8693 18.8692 22.0138
98 20.4415 20.4417 1.5717
99 22.0135 1.86653e-16 3.14385
100 1.57152 1.57183 4.71602
101 3.14407 6.9949e-16 3.14339
102 4.71623 1.57125 4.71558
103 6.28927 5.44722e-16 3.14328
104 7.86174 1.5714 4.7154
105 9.43453 1.40891e-15 3.14316
106 11.0073 1.5714 4.7154
107 12.5798 0 3.14328
108 14.1528 1.57125 4.71558
109 15.725 8.7248e-16 3.14339
110 17.2975 1.57183 4.71602
111 18.8694 8.11541e-16 3.14385
112 20.4415 1.57211 4.71637
113 22.0133 3.14428 3.14372
114 1.5703 4.71583 4.71536
115 3.14333 3.14352 3.14274
116 4.71312 4.71311 4.71254
117 6.28904 3.14377 3.14291
118 7.86117 4.7146 4.71399
119 9.43453 3.14373 3.14278
120 11.0079 4.7146 4.71399
121 12.58 3.14377 3.14291
122 14.1559 4.71311 4.71254
123 15.7257 3.14352 3.14274
124 17.2988 4.71583 4.71536
125 18.8697 3.14428 3.14372
126 20.4415 4.71678 4.71637
127 22.0136 6.28974 3.14445
128 1.57166 7.86232 4.71691
129 3.1439 6.28939 3.14351
130 4.71596 7.86207 4.71537
131 6.28845 6.28846 3.14134
132 7.86138 7.86074 4.71153
133 9.43453 6.28805 3.14172
134 11.0077 7.86074 4.71153
135 12.5806 6.28846 3.14134
136 14.1531 7.86207 4.71537
137 15.7252 6.28939 3.14351
138 17.2974 7.86232 4.71691
139 18.8694 6.28974 3.14445
140 20.4415 7.86227 4.71708
141 22.0137 9.43458 3.14477
142 1.57176 11.007 4.71705
143 3.14437 9.43462 3.14459
144 4.71599 11.007 4.71678
145 6.29018 9.43589 3.14553
146 7.86484 11.007 4.72767
147 9.43453 9.43569 3.14838
148 11.0042 11.007 4.72767
149 12.5789 9.43589 3.14553
150 14.1531 11.007 4.71678
151 15.7247 9.43462 3.14459
152 17.2973 11.007 4.71705
153 18.8693 9.43458 3.14477
154 20.4415 11.007 4.71715
155 22.0137 12.5793 3.14477
156 1.57166 14.1516 4.71691
157 3.14437 12.5793 3.14459
158 4.71596 14.1518 4.71537
159 6.29018 12.578 3.14553
160 7.86138 14.1532 4.71153
161 9.43453 12.5782 3.14838
162 11.0077 14.1532 4.71153
163 12.5789 12.578 3.14553
164 14.1531 14.1518 4.71537
165 15.7247 12.5793 3.14459
166 17.2974 14.1516 4.71691
167 18.8693 12.5793 3.14477
168 20.4415 14.1516 4.71708
169 22.0136 15.7242 3.14445
170 1.5703 17.2981 4.71536
171 3.1439 15.7245 3.14351
172 4.71312 17.3008 4.71254
173 6.28845 15.7254 3.14134
174 7.86117 17.2993 4.71399
175 9.43453 15.7259 3.14172
176 11.0079 17.2993 4.71399
177 12.5806 15.7254 3.14134
178 14.1559 17.3008 4.71254
179 15.7252 15.7245 3.14351
180 17.2988 17.2981 4.71536
181 18.8694 15.7242 3.14445
182 20.4415 17.2971 4.71637
183 22.0133 18.8696 3.14372
184 1.57152 20.4421 4.71602
185 3.14333 18.8704 3.14274
186 4.71623 20.4427 4.71558
187 6.28904 18.8701 3.14291
188 7.86174 20.4425 4.7154
189 9.43453 18.8702 3.14278
190 11.0073 20.4425 4.7154
191 12.58 18.8701 3.14291
192 14.1528 20.4427 4.71558
193 15.7257 18.8704 3.14274
194 17.2975 20.4421 4.71602
195 18.8697 18.8696 3.14372
196 20.4415 20.4418 4.71637
197 22.0134 0 6.28888
198 1.57142 1.57174 7.86144
199 3.14384 2.25178e-16 6.28862
200 4.71616 1.57107 7.86127
201 6.28929 3.97833e-16 6.28863
202 7.86222 1.57144 7.86141
203 9.43453 9.46337e-16 6.28823
204 11.0068 1.57144 7.86141
205 12.5798 1.72869e-16 6.28863
206 14.1529 1.57107 7.86127
207 15.7252 6.96599e-16 6.28862
208 17.2976 1.57174 7.86144
209 18.8695 1.40024e-15 6.28888
210 20.4415 1.57199 7.86159
211 22.0132 3.1441 6.28881
212 1.57039 4.71565 7.86129
213 3.14303 3.14291 6.28811
214 4.71375 4.71267 7.86
215 6.28836 3.14156 6.28765
216 7.86172 4.71204 7.86014
217 9.43453 3.14206 6.287
218 11.0073 4.71204 7.86014
219 12.5807 3.14156 6.28765
220 14.1553 4.71267 7.86
221 15.726 3.14291 6.28811
222 17.2987 4.71565 7.86129
223 18.8698 3.1441 6.28881
224 20.4415 4.71645 7.86164
225 22.0126 6.2892 6.28904
226 1.56971 7.86163 7.86206
227 3.13933 6.28607 6.28599
228 4.70441 7.85363 7.85497
229 6.2781 6.27788 6.27756
230 7.82655 7.83142 7.82603
231 9.43453 6.28333 6.28287
232 11.0425 7.83142 7.82603
233 12.591 6.27788 6.27756
234 14.1647 7.85363 7.85497
235 15.7297 6.28607 6.28599
236 17.2994 7.86163 7.86206
237 18.8703 6.2892 6.28904
238 20.4415 7.8622 7.86232
239 22.0135 9.43474 6.2897
240 1.57256 11.007 7.86246
241 3.14401 9.4353 6.28979
242 4.7206 11.007 7.86507
243 6.28907 9.43795 6.28866
244 7.86883 11.007 7.89282
245 9.43453 9.43207 6.30367
246 11.0002 11.007 7.89282
247 12.58 9.43795 6.28866
248 14.1485 11.007 7.86507
249 15.725 9.4353 6.28979
250 17.2965 11.007 7.86246
251 18.8694 9.43474 6.2897
252 20.4415 11.007 7.86236
253 22.0135 12.5792 6.2897
254 1.56971 14.1523 7.86206
255 3.14401 12.5786 6.28979
256 4.70441 14.1603 7.85497
257 6.28907 12.5759 6.28866
258 7.82655 14.1825 7.82603
259 9.43453 12.5818 6.30367
260 11.0425 14.1825 7.82603
261 12.58 12.5759 6.28866
262 14.1647 14.1603 7.85497
263 15.725 12.5786 6.28979
264 17.2994 14.1523 7.86206
265 18.8694 12.5792 6.2897
266 20.4415 14.1517 7.86232
267 22.0126 15.7247 6.28904
268 1.57039 17.2983 7.86129
269 3.13933 15.7278 6.28599
270 4.71375 17.3012 7.86
271 6.2781 15.736 6.27756
272 7.86172 17.3019 7.86014
273 9.43453 15.7306 6.28287
274 11.0073 17.3019 7.86014
275 12.591 15.736 6.27756
276 14.1553 17.3012 7.86
277 15.7297 15.7278 6.28599
278 17.2987 17.2983 7.86129
279 18.8703 15.7247 6.28904
280 20.4415 17.2975 7.86164
281 22.0132 18.8698 6.28881
282 1.57142 20.4422 7.86144
283 3.14303 18.871 6.28811
284 4.71616 20.4428 7.86127
285 6.28836 18.8723 6.28765
286 7.86222 20.4425 7.86141
287 9.43453 18.8718 6.287
288 11.0068 20.4425 7.86141
289 12.5807 18.8723 6.28765
290 14.1529 20.4428 7.86127
291 15.726 18.871 6.28811
292 17.2976 20.4422 7.86144
293 18.8698 18.8698 6.28881
294 20.4415 20.4419 7.86159
295 22.0134 4.16168e-16 9.43434
296 1.57146 1.5717 11.0071
297 3.14377 2.71118e-15 9.43423
298 4.71621 1.5711 11.007
299 6.2893 2.33516e-15 9.43417
300 7.86248 1.57221 11.0063
301 9.43453 1.20628e-15 9.43398
302 11.0066 1.57221 11.0063
303 12.5798 1.74425e-15 9.43417
304 14.1528 1.5711 11.007
305 15.7253 1.81349e-15 9.43423
306 17.2976 1.5717 11.0071
307 18.8696 1.4345e-15 9.43434
308 20.4415 1.57193 11.0071
309 22.0132 3.14388 9.43434
310 1.5704 4.71542 11.0074
311 3.143 3.14282 9.43412
312 4.71373 4.71279 11.0075
313 6.28829 3.14181 9.43407
314 7.86239 4.7164 11.0053
315 9.43453 3.14672 9.43372
316 11.0067 4.7164 11.0053
317 12.5808 3.14181 9.43407
318 14.1553 4.71279 11.0075
319 15.7261 3.14282 9.43412
320 17.2987 4.71542 11.0074
321 18.8698 3.14388 9.43434
322 20.4415 4.71619 11.0073
323 22.0126 6.28863 9.43448
324 1.56939 7.86071 11.0074
325 3.14037 6.28615 9.43399
326 4.70695 7.8554 11.0082
327 6.28297 6.27937 9.43324
328 7.83223 7.85122 11.0242
329 9.43453 6.30851 9.43225
330 11.0368 7.85122 11.0242
331 12.5861 6.27937 9.43324
332 14.1621 7.8554 11.0082
333 15.7287 6.28615 9.43399
334 17.2997 7.86071 11.0074
335 18.8704 6.28863 9.43448
336 20.4415 7.86172 11.0073
337 22.0137 9.4349 9.4352
338 1.5743 11.007 11.0078
339 3.14398 9.43481 9.43613
340 4.73609 11.007 11.0092
341 6.27879 9.40465 9.41727
342 7.60106 11.007 11.0838
343 9.43453 9.17348 9.35763
344 11.268 11.007 11.0838
345 12.5903 9.40465 9.41727
346 14.133 11.007 11.0092
347 15.7251 9.43481 9.43613
348 17.2948 11.007 11.0078
349 18.8693 9.4349 9.4352
350 20.4415 11.007 11.0075
351 22.0137 12.579 9.4352
352 1.56939 14.1532 11.0074
353 3.14398 12.5791 9.43613
354 4.70695 14.1585 11.0082
355 6.27879 12.6092 9.41727
356 7.83223 14.1627 11.0242
357 9.43453 12.8404 9.35763
358 11.0368 14.1627 11.0242
359 12.5903 12.6092 9.41727
360 14.1621 14.1585 11.0082
361 15.7251 12.5791 9.43613
362 17.2997 14.1532 11.0074
363 18.8693 12.579 9.4352
364 20.4415 14.1522 11.0073
365 22.0126 15.7253 9.43448
366 1.5704 17.2985 11.0074
367 3.14037 15.7277 9.43399
368 4.71373 17.3011 11.0075
369 6.28297 15.7345 9.43324
370 7.86239 17.2975 11.0053
371 9.43453 15.7054 9.43225
372 11.0067 17.2975 11.0053
373 12.5861 15.7345 9.43324
374 14.1553 17.3011 11.0075
375 15.7287 15.7277 9.43399
376 17.2987 17.2985 11.0074
377 18.8704 15.7253 9.43448
378 20.4415 17.2977 11.0073
379 22.0132 18.87 9.43434
380 1.57146 20.4422 11.0071
381 3.143 18.8711 9.43412
382 4.71621 20.4428 11.007
383 6.28829 18.8721 9.43407
384 7.86248 20.4417 11.0063
385 9.43453 18.8672 9.43372
386 11.0066 20.4417 11.0063
387 12.5808 18.8721 9.43407
388 14.1528 20.4428 11.007
389 15.7261 18.8711 9.43412
390 17.2976 20.4422 11.0071
391 18.8698 18.87 9.43434
392 20.4415 20.442 11.0071
393 22.0135 1.45916e-16 12.5799
394 1.57168 1.57172 14.1527
395 3.14402 9.14238e-16 12.5798
396 4.71678 1.57117 14.1524
397 6.28978 1.60816e-15 12.5792
398 7.86231 1.57206 14.1518
399 9.43453 1.54842e-15 12.5791
400 11.0067 1.57206 14.1518
401 12.5793 9.79851e-17 12.5792
402 14.1523 1.57117 14.1524
403 15.725 3.79314e-16 12.5798
404 17.2974 1.57172 14.1527
405 18.8695 1.49359e-15 12.5799
406 20.4415 1.57195 14.1526
407 22.0132 3.14384 12.58
408 1.57049 4.71545 14.1534
409 3.14323 3.14281 12.5802
410 4.71364 4.71175 14.1555
411 6.28921 3.14213 12.5794
412 7.86288 4.71644 14.1517
413 9.43453 3.14498 12.579
414 11.0062 4.71644 14.1517
415 12.5799 3.14213 12.5794
416 14.1554 4.71175 14.1555
417 15.7258 3.14281 12.5802
418 17.2986 4.71545 14.1534
419 18.8697 3.14384 12.58
420 20.4415 4.71626 14.1529
421 22.0126 6.28858 12.5802
422 1.56914 7.86078 14.1538
423 3.14025 6.28617 12.5815
424 4.70546 7.85053 14.1639
425 6.28121 6.27683 12.5865
426 7.86553 7.86149 14.1528
427 9.43453 6.29303 12.5764
428 11.0035 7.86149 14.1528
429 12.5878 6.27683 12.5865
430 14.1636 7.85053 14.1639
431 15.7288 6.28617 12.5815
432 17.2999 7.86078 14.1538
433 18.8704 6.28858 12.5802
434 20.4415 7.86171 14.1529
435 22.0129 9.43464 12.5801
436 1.56964 11.007 14.1545
437 3.13962 9.43415 12.5813
438 4.7109 11.007 14.1586
439 6.259 9.39898 12.6155
440 7.85965 11.007 14.1378
441 9.43453 9.44126 12.5487
442 11.0094 11.007 14.1378
443 12.6101 9.39898 12.6155
444 14.1582 11.007 14.1586
445 15.7294 9.43415 12.5813
446 17.2994 11.007 14.1545
447 18.87 9.43464 12.5801
448 20.4415 11.007 14.1532
449 22.0129 12.5793 12.5801
450 1.56914 14.1531 14.1538
451 3.13962 12.5798 12.5813
452 4.70546 14.1634 14.1639
453 6.259 12.6149 12.6155
454 7.86553 14.1524 14.1528
455 9.43453 12.5726 12.5487
456 11.0035 14.1524 14.1528
457 12.6101 12.6149 12.6155
458 14.1636 14.1634 14.1639
459 15.7294 12.5798 12.5813
460 17.2999 14.1531 14.1538
461 18.87 12.5793 12.5801
462 20.4415 14.1522 14.1529
463 22.0126 15.7253 12.5802
464 1.57049 17.2984 14.1534
465 3.14025 15.7277 12.5815
466 4.71364 17.3022 14.1555
467 6.28121 15.7371 12.5865
468 7.86288 17.2975 14.1517
469 9.43453 15.7209 12.5764
470 11.0062 17.2975 14.1517
471 12.5878 15.7371 12.5865
472 14.1554 17.3022 14.1555
473 15.7288 15.7277 12.5815
474 17.2986 17.2984 14.1534
475 18.8704 15.7253 12.5802
476 20.4415 17.2976 14.1529
477 22.0132 18.8701 12.58
478 1.57168 20.4422 14.1527
479 3.14323 18.8711 12.5802
480 4.71678 20.4427 14.1524
481 6.28921 18.8718 12.5794
482 7.86231 20.4418 14.1518
483 9.43453 18.8689 12.579
484 11.0067 20.4418 14.1518
485 12.5799 18.8718 12.5794
486 14.1523 20.4427 14.1524
487 15.7258 18.8711 12.5802
488 17.2974 20.4422 14.1527
489 18.8697 18.8701 12.58
490 20.4415 20.442 14.1526
491 22.0136 7.95617e-16 15.7251
492 1.57186 1.57179 17.2978
493 3.14436 1.97204e-17 15.7251
494 4.71732 1.57209 17.297
495 6.28985 0 15.7244
496 7.86216 1.57221 17.2967
497 9.43453 1.37807e-15 15.7243
498 11.0069 1.57221 17.2967
499 12.5792 3.44181e-16 15.7244
500 14.1517 1.57209 17.297
501 15.7247 0 15.7251
502 17.2972 1.57179 17.2978
503 18.8694 2.20394e-15 15.7251
504 20.4415 1.57203 17.2976
505 22.0133 3.14394 15.7255
506 1.5711 4.71575 17.2987
507 3.14341 3.14272 15.7261
508 4.71697 4.71632 17.298
509 6.2899 3.14409 15.7246
510 7.8622 4.71679 17.2969
511 9.43453 3.14418 15.7244
512 11.0069 4.71679 17.2969
513 12.5792 3.14409 15.7246
514 14.1521 4.71632 17.298
515 15.7257 3.14272 15.7261
516 17.298 4.71575 17.2987
517 18.8696 3.14394 15.7255
518 20.4415 4.71649 17.2981
519 22.0127 6.28865 15.7259
520 1.57135 7.86146 17.2986
521 3.14069 6.28554 15.7289
522 4.71603 7.86088 17.3001
523 6.28965 6.28838 15.7261
524 7.86347 7.8626 17.2959
525 9.43453 6.28841 15.7247
526 11.0056 7.8626 17.2959
527 12.5794 6.28838 15.7261
528 14.153 7.86088 17.3001
529 15.7284 6.28554 15.7289
530 17.2977 7.86146 17.2986
531 18.8702 6.28865 15.7259
532 20.4415 7.86169 17.2982
533 22.0129 9.43416 15.7261
534 1.57131 11.007 17.2987
535 3.14218 9.4336 15.7275
536 4.71563 11.007 17.2998
537 6.28831 9.43381 15.7299
538 7.86327 11.007 17.2931
539 9.43453 9.43727 15.7138
540 11.0058 11.007 17.2931
541 12.5807 9.43381 15.7299
542 14.1534 11.007 17.2998
543 15.7269 9.4336 15.7275
544 17.2977 11.007 17.2987
545 18.8701 9.43416 15.7261
546 20.4415 11.007 17.2983
547 22.0129 12.5797 15.7261
548 1.57135 14.1524 17.2986
549 3.14218 12.5803 15.7275
550 4.71603 14.153 17.3001
551 6.28831 12.5801 15.7299
552 7.86347 14.1513 17.2959
553 9.43453 12.5766 15.7138
554 11.0056 14.1513 17.2959
555 12.5807 12.5801 15.7299
556 14.153 14.153 17.3001
557 15.7269 12.5803 15.7275
558 17.2977 14.1524 17.2986
559 18.8701 12.5797 15.7261
560 20.4415 14.1522 17.2982
561 22.0127 15.7253 15.7259
562 1.5711 17.2982 17.2987
563 3.14069 15.7284 15.7289
564 4.71697 17.2976 17.298
565 6.28965 15.7255 15.7261
566 7.8622 17.2971 17.2969
567 9.43453 15.7255 15.7247
568 11.0069 17.2971 17.2969
569 12.5794 15.7255 15.7261
570 14.1521 17.2976 17.298
571 15.7284 15.7284 15.7289
572 17.298 17.2982 17.2987
573 18.8702 15.7253 15.7259
574 20.4415 17.2974 17.2981
575 22.0133 18.87 15.7255
576 1.57186 20.4421 17.2978
577 3.14341 18.8712 15.7261
578 4.71732 20.4418 17.297
579 6.2899 18.8698 15.7246
580 7.86216 20.4417 17.2967
581 9.43453 18.8697 15.7244
582 11.0069 20.4417 17.2967
583 12.5792 18.8698 15.7246
584 14.1517 20.4418 17.297
585 15.7257 18.8712 15.7261
586 17.2972 20.4421 17.2978
587 18.8696 18.87 15.7255
588 20.4415 20.4419 17.2976
589 22.0137 0 18.8698
590 1.57227 1.5722 20.4416
591 3.14485 7.27652e-16 18.8693
592 4.71728 1.57232 20.4412
593 6.28975 0 18.8689
594 7.86211 1.57234 20.4409
595 9.43453 8.36164e-16 18.8688
596 11.0069 1.57234 20.4409
597 12.5793 0 18.8689
598 14.1518 1.57232 20.4412
599 15.7242 4.55856e-17 18.8693
600 17.2968 1.5722 20.4416
601 18.8693 1.06599e-15 18.8698
602 20.4415 1.57226 20.4418
603 22.0136 3.1443 18.8701
604 1.57215 4.71696 20.4422
605 3.14465 3.14435 18.8697
606 4.71735 4.71721 20.4414
607 6.28976 3.14465 18.869
608 7.86216 4.71722 20.441
609 9.43453 3.14467 18.8688
610 11.0069 4.71722 20.441
611 12.5793 3.14465 18.869
612 14.1517 4.71721 20.4414
613 15.7244 3.14435 18.8697
614 17.2969 4.71696 20.4422
615 18.8694 3.1443 18.8701
616 20.4415 4.71713 20.4421
617 22.0136 6.28932 18.8703
618 1.57221 7.86199 20.4424
619 3.14426 6.28899 18.8708
620 4.71751 7.86231 20.4423
621 6.29019 6.28983 18.8693
622 7.86264 7.86267 20.441
623 9.43453 6.28961 18.8689
624 11.0064 7.86267 20.441
625 12.5789 6.28983 18.8693
626 14.1516 7.86231 20.4423
627 15.7248 6.28899 18.8708
628 17.2968 7.86199 20.4424
629 18.8694 6.28932 18.8703
630 20.4415 7.86202 20.4424
631 22.0136 9.43437 18.8705
632 1.57218 11.007 20.4426
633 3.1442 9.43431 18.8709
634 4.7173 11.007 20.4425
635 6.2902 9.43492 18.8699
636 7.86273 11.007 20.4411
637 9.43453 9.43517 18.8667
638 11.0063 11.007 20.4411
639 12.5789 9.43492 18.8699
640 14.1518 11.007 20.4425
641 15.7249 9.43431 18.8709
642 17.2969 11.007 20.4426
643 18.8694 9.43437 18.8705
644 20.4415 11.007 20.4425
645 22.0136 12.5795 18.8705
646 1.57221 14.1519 20.4424
647 3.1442 12.5796 18.8709
648 4.71751 14.1516 20.4423
649 6.2902 12.579 18.8699
650 7.86264 14.1512 20.441
651 9.43453 12.5787 18.8667
652 11.0064 14.1512 20.441
653 12.5789 12.579 18.8699
654 14.1516 14.1516 20.4423
655 15.7249 12.5796 18.8709
656 17.2968 14.1519 20.4424
657 18.8694 12.5795 18.8705
658 20.4415 14.1519 20.4424
659 22.0136 15.7246 18.8703
660 1.57215 17.2969 20.4422
661 3.14426 15.7249 18.8708
662 4.71735 17.2967 20.4414
663 6.29019 15.7241 18.8693
664 7.86216 17.2967 20.441
665 9.43453 15.7243 18.8689
666 11.0069 17.2967 20.441
667 12.5789 15.7241 18.8693
668 14.1517 17.2967 20.4414
669 15.7248 15.7249 18.8708
670 17.2969 17.2969 20.4422
671 18.8694 15.7246 18.8703
672 20.4415 17.2968 20.4421
673 22.0136 18.8696 18.8701
674 1.57227 20.4417 20.4416
675 3.14465 18.8696 18.8697
676 4.71728 20.4416 20.4412
677 6.28976 18.8692 18.869
678 7.86211 20.4416 20.4409
679 9.43453 18.8692 18.8688
680 11.0069 20.4416 20.4409
681 12.5793 18.8692 18.869
682 14.1518 20.4416 20.4412
683 15.7244 18.8696 18.8697
684 17.2968 20.4417 20.4416
685 18.8694 18.8696 18.8701
686 20.4415 20.4416 20.4418
687 9.43453 11.007 10.2207
