ITEM: TIMESTEP
18
ITEM: NUMBER OF ATOMS
687
ITEM: BOX BOUNDS pp pp pp
0.0000000000000000e+00 2.2013900999999997e+01
0.0000000000000000e+00 2.2013900999999997e+01
0.0000000000000000e+00 2.2013900999999997e+01
ITEM: ATOMS id x y z
126 18.8703 9.43424 6.28854
2 1.57146 1.5714 1.57194
125 15.7283 9.43385 6.28628
4 4.71629 1.57089 1.57178
111 15.7258 3.14328 6.28895
6 7.86172 1.57062 1.57173
110 12.5818 3.13966 6.28689
8 11.0073 1.57062 1.57173
109 9.43453 3.13934 6.28643
10 14.1528 1.57089 1.57178
124 12.5854 9.43321 6.27972
12 17.2976 1.5714 1.57194
123 9.43453 9.42882 6.29271
14 20.4415 1.57185 1.57206
15 22.0133 3.14405 0
16 1.57123 4.71621 1.57178
17 3.14347 3.14334 2.17097e-15
18 4.71553 4.71527 1.5709
19 6.28874 3.14292 0
20 7.86138 4.71486 1.57078
21 9.43453 3.14278 1.96751e-15
22 11.0077 4.71486 1.57078
23 12.5803 3.14292 1.2452e-15
24 14.1535 4.71527 1.5709
25 15.7256 3.14334 1.90789e-15
26 17.2978 4.71621 1.57178
27 18.8696 3.14405 2.25988e-15
28 20.4415 4.71658 1.57206
29 22.0133 6.2891 0
30 1.57135 7.86163 1.57175
31 3.14354 6.28878 9.84822e-16
32 4.71588 7.8614 1.57099
33 6.2887 6.28832 1.51997e-14
34 7.86177 7.86113 1.57049
35 9.43453 6.28789 1.51777e-14
36 11.0073 7.86113 1.57049
37 12.5804 6.28832 1.52915e-14
38 14.1532 7.8614 1.57099
39 15.7255 6.28878 6.39877e-16
40 17.2977 7.86163 1.57175
41 18.8696 6.2891 1.32439e-15
42 20.4415 7.86173 1.57199
43 22.0134 9.43441 5.20842e-16
44 3.14372 9.43442 8.88896e-16
45 6.28899 9.4344 1.12438e-14
46 9.43453 9.43424 1.52245e-14
47 12.5801 9.4344 1.10781e-14
48 15.7253 9.43442 1.37673e-15
49 18.8696 9.43441 6.43245e-16
122 6.28363 9.43321 6.27972
51 1.57147 1.57179 4.71668
121 3.14075 9.43385 6.28628
53 4.71577 1.57012 4.71583
120 22.0127 9.43424 6.28854
55 7.86151 1.56969 4.7156
119 18.8703 6.28893 6.28906
57 11.0075 1.56969 4.7156
118 15.7295 6.2861 6.28615
59 14.1533 1.57012 4.71583
117 12.592 6.27572 6.27592
61 17.2976 1.57179 4.71668
116 9.43453 6.27794 6.27832
63 20.4415 1.57224 4.71697
64 22.0131 3.14388 3.14413
65 1.57011 4.71547 4.71571
66 3.14273 3.14259 3.14315
67 4.71231 4.71189 4.71232
68 6.28832 3.14212 3.14284
69 7.86035 4.71202 4.71244
70 9.43453 3.14191 3.14275
71 11.0087 4.71202 4.71244
72 12.5807 3.14212 3.14284
73 14.1567 4.71189 4.71232
74 15.7263 3.14259 3.14315
75 17.2989 4.71547 4.71571
76 18.8699 3.14388 3.14413
77 20.4415 4.71644 4.71666
78 22.0131 6.28896 3.14404
79 1.57045 7.86129 4.71562
80 3.14277 6.28821 3.14285
81 4.71371 7.86006 4.71262
82 6.28741 6.28678 3.14032
83 7.86038 7.85797 4.70819
84 9.43453 6.28604 3.14016
85 11.0087 7.85797 4.70819
86 12.5816 6.28678 3.14032
87 14.1553 7.86006 4.71262
88 15.7263 6.28821 3.14285
89 17.2986 7.86129 4.71562
90 18.8698 6.28896 3.14404
91 20.4415 7.86158 4.71638
92 22.0132 9.43434 3.1439
93 3.14303 9.43424 3.1429
94 6.28809 9.43424 3.14153
95 9.43453 9.43373 3.14377
96 12.581 9.43424 3.14153
97 15.726 9.43424 3.1429
98 18.8698 9.43434 3.1439
108 6.28724 3.13966 6.28689
115 6.27708 6.27572 6.27592
114 3.13952 6.2861 6.28615
107 3.1433 3.14328 6.28895
113 22.0127 6.28893 6.28906
112 18.8696 3.14446 6.28953
106 22.0134 3.14446 6.28953
396 11.0075 11.006 4.7154
104 15.725 0.000116171 6.28914
395 7.8616 11.006 4.7154
100 3.14405 0.000116171 6.28914
346 7.86212 11.0067 1.57184
105 18.8694 0.000447378 6.2893
347 11.0069 11.0067 1.57184
99 22.0135 0.000447378 6.2893
127 1.57177 1.57243 7.86193
128 4.71655 1.57164 7.86191
129 7.8618 1.56965 7.86141
130 11.0073 1.56965 7.86141
131 14.1525 1.57164 7.86191
132 17.2973 1.57243 7.86193
133 20.4415 1.5726 7.86198
134 1.5715 4.71673 7.86213
135 4.71536 4.71459 7.86147
136 7.85951 4.70662 7.85736
137 11.0095 4.70662 7.85736
138 14.1537 4.71459 7.86147
139 17.2976 4.71673 7.86213
140 20.4415 4.717 7.86216
141 1.5699 7.86168 7.8614
142 4.70614 7.85543 7.85432
143 7.82858 7.82113 7.82398
144 11.0405 7.82113 7.82398
145 14.1629 7.85543 7.85432
146 17.2992 7.86168 7.8614
147 20.4415 7.86195 7.86195
687 9.43453 10.2207 11.007
149 1.57183 1.57265 11.007
150 3.14405 0.000674704 9.43434
151 4.71646 1.5722 11.007
245 18.8696 9.43473 12.5794
153 7.86189 1.57242 11.007
244 15.7261 9.43548 12.5799
155 11.0072 1.57242 11.007
243 12.5879 9.41984 12.6042
157 14.1526 1.5722 11.007
158 15.725 0.000674704 9.43434
159 17.2972 1.57265 11.007
242 9.43453 9.35782 12.8114
161 20.4415 1.57275 11.007
162 22.0136 3.14478 9.43452
163 1.57173 4.71695 11.007
164 3.14393 3.14429 9.43444
165 4.71571 4.71605 11.007
166 6.28917 3.14359 9.43502
167 7.86284 4.72043 11.007
168 9.43453 3.14277 9.43457
169 11.0062 4.72043 11.007
170 12.5799 3.14359 9.43502
171 14.1533 4.71605 11.007
172 15.7251 3.14429 9.43444
173 17.2973 4.71695 11.007
174 18.8694 3.14478 9.43452
175 20.4415 4.71714 11.007
176 22.0136 6.28953 9.43465
177 1.5724 7.86225 11.007
178 3.14409 6.28939 9.43503
179 4.71963 7.8646 11.007
180 6.28906 6.28664 9.43644
181 7.87186 7.88542 11.007
182 9.43453 6.28258 9.42617
183 10.9972 7.88542 11.007
184 12.58 6.28664 9.43644
185 14.1494 7.8646 11.007
186 15.725 6.28939 9.43503
187 17.2967 7.86225 11.007
188 18.8694 6.28953 9.43465
189 20.4415 7.86206 11.007
190 22.0133 9.43473 9.43454
191 3.14298 9.43548 9.43403
192 6.28118 9.41984 9.4097
193 9.43453 9.35782 9.20252
194 12.5879 9.41984 9.4097
195 15.7261 9.43548 9.43403
196 18.8696 9.43473 9.43454
241 6.28118 9.41984 12.6042
198 1.57177 1.57243 14.152
199 3.14405 0.000674704 12.5796
200 4.71655 1.57164 14.152
240 3.14298 9.43548 12.5799
202 7.8618 1.56965 14.1525
239 22.0133 9.43473 12.5794
204 11.0073 1.56965 14.1525
238 20.4415 7.86195 14.1519
206 14.1525 1.57164 14.152
207 15.725 0.000674704 12.5796
208 17.2973 1.57243 14.152
237 18.8694 6.28953 12.5793
210 20.4415 1.5726 14.1519
211 22.0136 3.14478 12.5794
212 1.5715 4.71673 14.1518
213 3.14393 3.14429 12.5795
214 4.71536 4.71459 14.1524
215 6.28917 3.14359 12.5789
216 7.85951 4.70662 14.1565
217 9.43453 3.14277 12.5793
218 11.0095 4.70662 14.1565
219 12.5799 3.14359 12.5789
220 14.1537 4.71459 14.1524
221 15.7251 3.14429 12.5795
222 17.2976 4.71673 14.1518
223 18.8694 3.14478 12.5794
224 20.4415 4.717 14.1517
225 22.0136 6.28953 12.5793
226 1.5699 7.86168 14.1525
227 3.14409 6.28939 12.5789
228 4.70614 7.85543 14.1596
229 6.28906 6.28664 12.5775
230 7.82858 7.82113 14.1899
231 9.43453 6.28258 12.5877
232 11.0405 7.82113 14.1899
233 12.58 6.28664 12.5775
234 14.1629 7.85543 14.1596
235 15.725 6.28939 12.5789
236 17.2992 7.86168 14.1525
197 22.0135 0.000724737 12.5795
160 18.8694 0.000724737 9.43438
209 18.8694 0.000724737 12.5795
148 22.0135 0.000724737 9.43438
205 12.5797 0.000189223 12.5794
152 6.28935 0.000189223 9.43452
156 12.5797 0.000189223 9.43452
201 6.28935 0.000189223 12.5794
332 14.1532 7.8614 20.4429
247 1.57147 1.57179 17.2972
343 18.8698 9.43434 18.87
249 4.71577 1.57012 17.2981
342 15.726 9.43424 18.871
251 7.86151 1.56969 17.2983
331 12.5816 6.28678 18.8736
253 11.0075 1.56969 17.2983
341 12.581 9.43424 18.8724
255 14.1533 1.57012 17.2981
340 9.43453 9.43373 18.8701
257 17.2976 1.57179 17.2972
330 11.0073 7.86113 20.4434
259 20.4415 1.57224 17.2969
260 22.0134 3.14446 15.7244
261 1.57011 4.71547 17.2982
262 3.1433 3.14328 15.725
263 4.71231 4.71189 17.3016
264 6.28724 3.13966 15.727
265 7.86035 4.71202 17.3015
266 9.43453 3.13934 15.7275
267 11.0087 4.71202 17.3015
268 12.5818 3.13966 15.727
269 14.1567 4.71189 17.3016
270 15.7258 3.14328 15.725
271 17.2989 4.71547 17.2982
272 18.8696 3.14446 15.7244
273 20.4415 4.71644 17.2972
274 22.0127 6.28893 15.7248
275 1.57045 7.86129 17.2983
276 3.13952 6.2861 15.7278
277 4.71371 7.86006 17.3013
278 6.27708 6.27572 15.738
279 7.86038 7.85797 17.3057
280 9.43453 6.27794 15.7356
281 11.0087 7.85797 17.3057
282 12.592 6.27572 15.738
283 14.1553 7.86006 17.3013
284 15.7295 6.2861 15.7278
285 17.2986 7.86129 17.2983
286 18.8703 6.28893 15.7248
287 20.4415 7.86158 17.2975
288 22.0127 9.43424 15.7254
289 3.14075 9.43385 15.7276
290 6.28363 9.43321 15.7342
291 9.43453 9.42882 15.7212
292 12.5854 9.43321 15.7342
293 15.7283 9.43385 15.7276
294 18.8703 9.43424 15.7254
339 6.28809 9.43424 18.8724
296 1.57146 1.5714 20.442
338 3.14303 9.43424 18.871
298 4.71629 1.57089 20.4421
337 22.0132 9.43434 18.87
300 7.86172 1.57062 20.4422
336 20.4415 7.86173 20.4419
302 11.0073 1.57062 20.4422
335 18.8698 6.28896 18.8699
304 14.1528 1.57089 20.4421
334 17.2977 7.86163 20.4422
306 17.2976 1.5714 20.442
333 15.7263 6.28821 18.8711
308 20.4415 1.57185 20.4418
309 22.0131 3.14388 18.8698
310 1.57123 4.71621 20.4421
311 3.14273 3.14259 18.8708
312 4.71553 4.71527 20.443
313 6.28832 3.14212 18.8711
314 7.86138 4.71486 20.4431
315 9.43453 3.14191 18.8711
316 11.0077 4.71486 20.4431
317 12.5807 3.14212 18.8711
318 14.1535 4.71527 20.443
319 15.7263 3.14259 18.8708
320 17.2978 4.71621 20.4421
321 18.8699 3.14388 18.8698
322 20.4415 4.71658 20.4418
323 22.0131 6.28896 18.8699
324 1.57135 7.86163 20.4422
325 3.14277 6.28821 18.8711
326 4.71588 7.8614 20.4429
327 6.28741 6.28678 18.8736
328 7.86177 7.86113 20.4434
329 9.43453 6.28604 18.8737
591 7.8616 11.006 17.2985
248 3.14405 0.000116171 15.7248
592 11.0075 11.006 17.2985
256 15.725 0.000116171 15.7248
640 7.86212 11.0067 20.4421
258 18.8694 0.000447378 15.7246
641 11.0069 11.0067 20.4421
246 22.0135 0.000447378 15.7246
103 12.5799 22.0126 6.28893
462 18.8697 18.8706 6.28871
102 9.43453 22.0121 6.28874
9 12.5798 22.0128 1.46137e-15
461 15.7257 18.8714 6.28819
101 6.28914 22.0126 6.28893
60 15.7251 22.0131 3.14408
351 22.0135 12.5797 4.74573e-16
352 1.57162 14.1525 1.57165
353 3.14396 12.5799 1.49099e-15
354 4.71664 14.1525 1.5712
355 6.28953 12.5795 4.71124e-15
356 7.86223 14.152 1.5721
62 18.8695 22.0139 3.14435
358 11.0068 14.152 1.5721
359 12.5795 12.5795 6.00468e-15
360 14.1524 14.1525 1.5712
361 15.7251 12.5799 7.88005e-16
362 17.2974 14.1525 1.57165
363 18.8695 12.5797 1.40117e-15
364 20.4415 14.1524 1.57187
365 22.0135 15.7249 3.05895e-18
366 1.57171 17.2976 1.57162
367 3.14424 15.725 1.89733e-15
368 4.71711 17.297 1.57192
369 6.28974 15.7245 0
370 7.8621 17.2967 1.57208
371 9.43453 15.7243 9.93568e-16
372 11.007 17.2967 1.57208
350 20.4415 11.0071 1.57192
374 14.1519 17.297 1.57192
375 15.7248 15.725 6.20664e-16
376 17.2974 17.2976 1.57162
377 18.8694 15.7249 7.12529e-16
378 20.4415 17.2974 1.57185
379 22.0135 18.8696 3.47771e-16
380 1.57193 20.4415 1.57198
381 3.14455 18.8692 1.03562e-15
382 4.71688 20.441 1.57203
383 6.28955 18.8689 1.46963e-15
384 7.86196 20.4408 1.57204
385 9.43453 18.8687 1.06114e-15
386 11.0071 20.4408 1.57204
387 12.5795 18.8689 2.76664e-15
388 14.1522 20.441 1.57203
389 15.7245 18.8692 9.44508e-16
390 17.2971 20.4415 1.57198
391 18.8694 18.8696 2.03517e-15
392 20.4415 20.4418 1.57206
393 1.57048 11.0072 4.71545
460 12.5796 18.8698 6.28897
52 3.14398 22.0131 3.14408
13 18.8694 22.0136 1.32007e-15
459 9.43453 18.8693 6.28888
398 17.2986 11.0072 4.71545
458 6.28949 18.8698 6.28897
400 22.0132 12.5798 3.14377
401 1.57043 14.1533 4.71519
402 3.1432 12.5802 3.14287
403 4.71373 14.1554 4.71194
404 6.28898 12.5798 3.14233
405 7.86261 14.1521 4.71651
406 9.43453 12.5792 3.14482
407 11.0065 14.1521 4.71651
408 12.5801 12.5798 3.14233
409 14.1553 14.1554 4.71194
410 15.7259 12.5802 3.14287
411 17.2986 14.1533 4.71519
412 18.8697 12.5798 3.14377
413 20.4415 14.1527 4.71597
414 22.0133 15.7253 3.14365
415 1.57073 17.2989 4.71515
416 3.14329 15.726 3.14253
417 4.71653 17.2982 4.71573
418 6.28971 15.7248 3.14393
419 7.86202 17.2972 4.71635
420 9.43453 15.7245 3.14415
421 11.007 17.2972 4.71635
422 12.5794 15.7248 3.14393
423 14.1525 17.2982 4.71573
424 15.7258 15.726 3.14253
425 17.2983 17.2989 4.71515
426 18.8697 15.7253 3.14365
427 20.4415 17.2981 4.7159
428 22.0134 18.8701 3.14388
429 1.57166 20.4423 4.7164
430 3.14426 18.8697 3.14389
431 4.71672 20.4414 4.71647
432 6.28951 18.8691 3.14419
433 7.86192 20.4408 4.71647
434 9.43453 18.8688 3.14425
435 11.0071 20.4408 4.71647
436 12.5796 18.8691 3.14419
437 14.1523 20.4414 4.71647
438 15.7248 18.8697 3.14389
439 17.2974 20.4423 4.7164
440 18.8695 18.8701 3.14388
441 20.4415 20.4422 4.71661
442 22.0125 12.5801 6.2883
443 3.1402 12.5814 6.28613
444 6.2819 12.5861 6.27856
445 9.43453 12.5769 6.29205
446 12.5872 12.5861 6.27856
447 15.7289 12.5814 6.28613
448 18.8705 12.5801 6.2883
449 22.0124 15.7262 6.28796
450 3.1399 15.7296 6.28474
451 6.28905 15.7269 6.28778
452 9.43453 15.7254 6.28813
453 12.58 15.7269 6.28778
454 15.7292 15.7296 6.28474
455 18.8706 15.7262 6.28796
456 22.0133 18.8706 6.28871
457 3.14341 18.8714 6.28819
1 22.0135 22.0136 6.33081e-16
5 6.28924 22.0128 0
399 20.4415 11.0071 4.71614
397 14.1552 11.0076 4.71317
394 4.71386 11.0076 4.71317
348 14.1529 11.0072 1.57118
345 4.71611 11.0072 1.57118
7 9.43453 22.0126 5.25079e-16
344 1.57148 11.0071 1.57172
11 15.7249 22.0131 1.31954e-15
3 3.14419 22.0131 1.18388e-15
50 22.0135 22.0139 3.14435
349 17.2976 11.0071 1.57172
54 6.28914 22.0126 3.14399
56 9.43453 22.0124 3.14397
58 12.5799 22.0126 3.14399
588 20.4415 20.4426 14.1522
587 18.8698 18.8709 12.5798
465 7.83728 11.0216 7.8536
466 11.0318 11.0216 7.8536
586 17.2975 20.4428 14.1523
585 15.7259 18.8718 12.58
584 14.1526 20.4428 14.1523
470 1.56789 14.1547 7.85983
471 4.7035 14.1658 7.8495
472 7.86401 14.1548 7.86148
473 11.005 14.1548 7.86148
474 14.1656 14.1658 7.8495
475 17.3012 14.1547 7.85983
476 20.4415 14.1532 7.86112
477 1.57042 17.2994 7.86074
478 4.71447 17.3018 7.85966
479 7.86259 17.2979 7.86159
480 11.0065 17.2979 7.86159
481 14.1546 17.3018 7.85966
482 17.2986 17.2994 7.86074
483 20.4415 17.2986 7.86117
484 1.57157 20.4428 7.86156
485 4.7165 20.4428 7.86156
486 7.8621 20.4413 7.86177
487 11.007 20.4413 7.86177
488 14.1526 20.4428 7.86156
489 17.2975 20.4428 7.86156
490 20.4415 20.4426 7.86166
583 12.5801 18.8718 12.5797
492 4.72029 11.0127 11.007
493 7.6301 11.0837 11.007
494 11.239 11.0837 11.007
495 14.1488 11.0127 11.007
582 11.007 20.4413 14.1521
581 9.43453 18.8691 12.5796
498 22.012 12.5803 9.43419
499 1.56774 14.1554 11.007
500 3.13577 12.5835 9.4328
501 4.70589 14.1635 11.007
502 6.25156 12.6203 9.401
503 7.85374 14.1589 11.007
504 9.43453 12.5561 9.44428
505 11.0153 14.1589 11.007
506 12.6175 12.6203 9.401
507 14.1632 14.1635 11.007
508 15.7333 12.5835 9.4328
509 17.3013 14.1554 11.007
510 18.871 12.5803 9.43419
511 20.4415 14.1536 11.007
512 22.0123 15.7266 9.4338
513 1.57033 17.2996 11.007
514 3.14002 15.7295 9.43277
515 4.71401 17.3021 11.007
516 6.28494 15.7349 9.43193
517 7.86215 17.2987 11.007
518 9.43453 15.7211 9.43526
519 11.0069 17.2987 11.007
520 12.5841 15.7349 9.43193
521 14.155 17.3021 11.007
522 15.729 15.7295 9.43277
523 17.2987 17.2996 11.007
524 18.8707 15.7266 9.4338
525 20.4415 17.2987 11.007
526 22.0132 18.8709 9.43414
527 1.57155 20.4429 11.007
528 3.14318 18.8718 9.43393
529 4.71632 20.4432 11.007
530 6.28899 18.8718 9.43422
531 7.86215 20.4421 11.007
532 9.43453 18.8691 9.43432
533 11.0069 20.4421 11.007
534 12.5801 18.8718 9.43422
535 14.1527 20.4432 11.007
536 15.7259 18.8718 9.43393
537 17.2975 20.4429 11.007
538 18.8698 18.8709 9.43414
539 20.4415 20.4427 11.007
580 7.8621 20.4413 14.1521
579 6.28899 18.8718 12.5797
542 7.83728 11.0216 14.1603
543 11.0318 11.0216 14.1603
578 4.7165 20.4428 14.1523
577 3.14318 18.8718 12.58
576 1.57157 20.4428 14.1523
547 22.012 12.5803 12.5797
548 1.56789 14.1547 14.1541
549 3.13577 12.5835 12.5811
550 4.7035 14.1658 14.1644
551 6.25156 12.6203 12.6129
552 7.86401 14.1548 14.1524
553 9.43453 12.5561 12.5696
554 11.005 14.1548 14.1524
555 12.6175 12.6203 12.6129
556 14.1656 14.1658 14.1644
557 15.7333 12.5835 12.5811
558 17.3012 14.1547 14.1541
559 18.871 12.5803 12.5797
560 20.4415 14.1532 14.1528
561 22.0123 15.7266 12.5801
562 1.57042 17.2994 14.1532
563 3.14002 15.7295 12.5811
564 4.71447 17.3018 14.1542
565 6.28494 15.7349 12.582
566 7.86259 17.2979 14.1523
567 9.43453 15.7211 12.5786
568 11.0065 17.2979 14.1523
569 12.5841 15.7349 12.582
570 14.1546 17.3018 14.1542
571 15.729 15.7295 12.5811
572 17.2986 17.2994 14.1532
573 18.8707 15.7266 12.5801
574 20.4415 17.2986 14.1527
575 22.0132 18.8709 12.5798
544 14.1618 11.0083 14.1578
541 4.7073 11.0083 14.1578
154 9.43453 22.0133 9.43457
467 14.1618 11.0083 7.85605
203 9.43453 22.0133 12.5793
464 4.7073 11.0083 7.85605
463 1.5691 11.0072 7.86051
546 20.4415 11.0071 14.1525
545 17.3 11.0072 14.1534
468 17.3 11.0072 7.86051
469 20.4415 11.0071 7.86142
540 1.5691 11.0072 14.1534
497 20.4415 11.0072 11.007
496 17.2977 11.0077 11.007
491 1.57135 11.0077 11.007
589 1.57048 11.0072 17.2985
686 20.4415 20.4418 20.4418
305 15.7251 22.0131 18.8698
297 3.14398 22.0131 18.8698
685 18.8695 18.8701 18.87
594 17.2986 11.0072 17.2985
684 17.2971 20.4415 20.4419
596 22.0125 12.5801 15.7256
597 1.57043 14.1533 17.2987
598 3.1402 12.5814 15.7278
599 4.71373 14.1554 17.302
600 6.2819 12.5861 15.7353
601 7.86261 14.1521 17.2974
602 9.43453 12.5769 15.7218
603 11.0065 14.1521 17.2974
604 12.5872 12.5861 15.7353
605 14.1553 14.1554 17.302
606 15.7289 12.5814 15.7278
607 17.2986 14.1533 17.2987
608 18.8705 12.5801 15.7256
609 20.4415 14.1527 17.2979
610 22.0124 15.7262 15.7259
611 1.57073 17.2989 17.2987
612 3.1399 15.7296 15.7292
613 4.71653 17.2982 17.2982
614 6.28905 15.7269 15.7261
615 7.86202 17.2972 17.2976
616 9.43453 15.7254 15.7258
617 11.007 17.2972 17.2976
618 12.58 15.7269 15.7261
619 14.1525 17.2982 17.2982
620 15.7292 15.7296 15.7292
621 17.2983 17.2989 17.2987
622 18.8706 15.7262 15.7259
623 20.4415 17.2981 17.298
624 22.0133 18.8706 15.7252
625 1.57166 20.4423 17.2975
626 3.14341 18.8714 15.7257
627 4.71672 20.4414 17.2974
628 6.28949 18.8698 15.7249
629 7.86192 20.4408 17.2974
630 9.43453 18.8693 15.725
631 11.0071 20.4408 17.2974
632 12.5796 18.8698 15.7249
633 14.1523 20.4414 17.2974
634 15.7257 18.8714 15.7257
635 17.2974 20.4423 17.2975
636 18.8697 18.8706 15.7252
637 20.4415 20.4422 17.2973
254 12.5799 22.0126 15.725
683 15.7248 18.8697 18.87
252 9.43453 22.0121 15.7252
590 4.71386 11.0076 17.3007
682 14.1522 20.441 20.4419
250 6.28914 22.0126 15.725
681 12.5796 18.8691 18.8697
645 22.0132 12.5798 18.8701
646 1.57162 14.1525 20.4423
647 3.1432 12.5802 18.871
648 4.71664 14.1525 20.4427
649 6.28898 12.5798 18.8716
650 7.86223 14.152 20.4418
651 9.43453 12.5792 18.8691
652 11.0068 14.152 20.4418
653 12.5801 12.5798 18.8716
654 14.1524 14.1525 20.4427
655 15.7259 12.5802 18.871
656 17.2974 14.1525 20.4423
657 18.8697 12.5798 18.8701
658 20.4415 14.1524 20.442
659 22.0133 15.7253 18.8702
660 1.57171 17.2976 20.4423
661 3.14329 15.726 18.8714
662 4.71711 17.297 20.442
663 6.28971 15.7248 18.87
664 7.8621 17.2967 20.4418
665 9.43453 15.7245 18.8698
666 11.007 17.2967 20.4418
667 12.5794 15.7248 18.87
668 14.1519 17.297 20.442
669 15.7258 15.726 18.8714
670 17.2974 17.2976 20.4423
671 18.8697 15.7253 18.8702
672 20.4415 17.2974 20.442
673 22.0134 18.8701 18.87
674 1.57193 20.4415 20.4419
675 3.14426 18.8697 18.87
676 4.71688 20.441 20.4419
677 6.28951 18.8691 18.8697
678 7.86196 20.4408 20.4419
679 9.43453 18.8688 18.8696
680 11.0071 20.4408 20.4419
593 14.1552 11.0076 17.3007
642 14.1529 11.0072 20.4427
639 4.71611 11.0072 20.4427
595 20.4415 11.0071 17.2978
307 18.8695 22.0139 18.8695
303 12.5799 22.0126 18.8699
644 20.4415 11.0071 20.442
643 17.2976 11.0071 20.4422
301 9.43453 22.0124 18.8699
295 22.0135 22.0139 18.8695
638 1.57148 11.0071 20.4422
299 6.28914 22.0126 18.8699
357 9.43453 12.5794 22.0139
373 12.5793 15.7245 22.0139
