LAMMPS data file via write_data, version 2 Aug 2023, timestep = 4, units = metal

251 atoms
3 atom types

0 15.724215 xlo xhi
0 15.724215 ylo yhi
0 15.724215 zlo zhi

Masses

1 183.84
2 1.008
3 4.0026

Atoms # atomic

65 1 12.580449841599135 6.288899461205519 6.28890856117733 0 0 0
2 1 1.5722098383442191 1.5722097620956863 1.5721519359295286 0 0 0
60 1 12.579743463441208 3.144547652280437 6.289681015007053 0 0 0
4 1 4.717436902078818 1.5723959770054607 1.5724241874262597 0 0 0
59 1 9.435817983102101 3.1431965266511734 6.289348561425703 0 0 0
6 1 7.86193509792118 1.5723959770054607 1.5724241874262597 0 0 0
58 1 6.289686 3.1451812073554346 6.290590700053538 0 0 0
8 1 11.00716216165578 1.5722097620956865 1.5721519359295286 0 0 0
64 1 9.436270991562688 6.287395560242989 6.2877481774519515 0 0 0
10 1 14.151793499999998 1.572432537550704 1.5724489489766238 0 0 0
11 1 7.955853786434375e-05 3.144870972965988 3.1434970822624963e-16 0 0 0
12 1 1.5723545360608966 4.717397091618222 1.572352911022226 0 0 0
13 1 3.1444160924735614 3.1443824396967885 4.848035311916996e-16 0 0 0
14 1 4.716303937613851 4.716313777549883 1.5710278833069697 0 0 0
15 1 6.289686 3.1446671120410423 4.2954345311304663e-16 0 0 0
16 1 7.863068062386148 4.716313777549883 1.5710278833069695 0 0 0
17 1 9.434955907526437 3.1443824396967885 4.971365934731537e-16 0 0 0
18 1 11.007017463939102 4.717397091618222 1.5723529110222259 0 0 0
19 1 12.579292441462135 3.1448709729659883 2.2124410175438043e-16 0 0 0
20 1 14.151793499999998 4.717284742422502 1.5724980753728013 0 0 0
21 1 7.802484803320908e-05 6.289673831823718 3.4857223581268796e-16 0 0 0
22 1 3.1446918852435504 6.289742922523227 1.9967493069596324e-16 0 0 0
23 1 6.289686 6.289808132724402 3.5876614685040017e-16 0 0 0
24 1 9.43468011475645 6.289742922523227 2.616518808831259e-16 0 0 0
25 1 12.579293975151966 6.289673831823719 5.413264288024454e-16 0 0 0
57 1 3.143554016897898 3.143196526651174 6.289348561425703 0 0 0
27 1 1.5721510740356706 1.5720613872017195 4.717039481137709 0 0 0
154 1 11.007582341463358 7.861889696078224 4.71719205066347 0 0 0
29 1 4.717235247722627 1.5716866442598305 4.717269717127952 0 0 0
63 1 6.289686 6.26703358281497 6.2381130669554254 0 0 0
31 1 7.862136752277372 1.5716866442598307 4.717269717127952 0 0 0
151 1 1.5717896585366407 7.861889696078224 4.71719205066347 0 0 0
33 1 11.007220925964328 1.5720613872017193 4.717039481137708 0 0 0
56 1 15.723843536558793 3.1445476522804365 6.289681015007052 -1 0 0
35 1 14.1517935 1.5724000570976284 4.717199835391224 0 0 0
36 1 15.723913366054454 3.144712544906627 3.144686139572701 -1 0 0
37 1 1.5711705689367033 4.71655530736442 4.7166257848302955 0 0 0
38 1 3.1434342408749103 3.1435344373680656 3.1436102692669836 0 0 0
39 1 4.71252949208442 4.712870656121186 4.713016041413948 0 0 0
40 1 6.289686 3.1446440755497247 3.1445565364407964 0 0 0
41 1 7.866842507915579 4.712870656121187 4.713016041413948 0 0 0
42 1 9.435937759125089 3.1435344373680656 3.1436102692669836 0 0 0
43 1 11.008201431063297 4.71655530736442 4.7166257848302955 0 0 0
44 1 12.579673633945545 3.1447125449066275 3.1446861395727006 0 0 0
45 1 14.1517935 4.716939242166724 4.716843739130342 0 0 0
46 1 15.724048920661053 6.2897714805209715 3.1446237890748687 -1 0 0
47 1 3.1447705506634693 6.289903803921775 3.1442111585366406 0 0 0
48 1 6.289686 6.28930029604719 3.135628786833321 0 0 0
49 1 9.43460144933653 6.289903803921775 3.144211158536641 0 0 0
50 1 12.579538079338946 6.2897714805209715 3.1446237890748683 0 0 0
1 1 1.3104364415385363e-05 2.5444009519424243e-05 2.0403299019836375e-16 0 0 0
62 1 3.143101008437312 6.287395560242989 6.287748177451952 0 0 0
9 1 12.579358895635583 2.5444009519551765e-05 3.446498629625669e-16 0 0 0
61 1 15.723137158400865 6.288899461205519 6.28890856117733 -1 0 0
126 1 1.572202289074869 7.862022019479028 1.5722554206610544 0 0 0
129 1 11.007169710925131 7.862022019479028 1.5722554206610542 0 0 0
155 1 14.1517935 7.862050577476773 4.71711338524355 0 0 0
3 1 3.1449127244389636 9.735952665401726e-05 4.802124560383838e-16 0 0 0
5 1 6.289686 7.43641683911278e-05 2.5422196157867886e-16 0 0 0
7 1 9.434459275561036 9.735952665401726e-05 6.487713515632361e-17 0 0 0
66 1 1.5719365888937573 1.5718968255148105 7.8621075 0 0 0
67 1 4.717035828206164 1.5713049124936365 7.8621075 0 0 0
68 1 7.862336171793836 1.5713049124936365 7.8621075 0 0 0
69 1 11.007435411106242 1.57189682551481 7.8621075 0 0 0
70 1 14.1517935 1.5724224067623909 7.8621075 0 0 0
71 1 1.5714325266951576 4.717128744950638 7.8621075 0 0 0
72 1 4.71307304700202 4.712674528771364 7.8621075 0 0 0
73 1 7.86629895299798 4.712674528771364 7.8621075 0 0 0
74 1 11.007939473304843 4.717128744950638 7.8621075 0 0 0
75 1 14.1517935 4.717233717430071 7.8621075 0 0 0
229 1 11.007169710925131 7.862022019479028 14.151959579338945 0 0 0
77 1 1.5721510740356712 1.5720613872017193 11.00717551886229 0 0 0
251 2 6.289686 7.07589675 7.8621075 0 0 0
79 1 4.717235247722627 1.5716866442598307 11.006945282872048 0 0 0
123 1 6.289686 6.289300296047191 12.588586213166678 0 0 0
81 1 7.862136752277373 1.5716866442598312 11.006945282872048 0 0 0
125 1 12.579538079338946 6.2897714805209715 12.57959121092513 0 0 0
83 1 11.007220925964328 1.5720613872017193 11.00717551886229 0 0 0
226 1 1.5722022890748693 7.862022019479028 14.151959579338945 0 0 0
85 1 14.1517935 1.5724000570976286 11.007015164608775 0 0 0
86 1 15.723843536558793 3.1445476522804365 9.434533984992948 -1 0 0
87 1 1.5711705689367037 4.71655530736442 11.007589215169704 0 0 0
88 1 3.143554016897898 3.143196526651174 9.434866438574296 0 0 0
89 1 4.71252949208442 4.712870656121187 11.011198958586052 0 0 0
90 1 6.289686 3.1451812073554346 9.43362429994646 0 0 0
91 1 7.866842507915579 4.712870656121186 11.011198958586052 0 0 0
92 1 9.435817983102101 3.143196526651174 9.434866438574296 0 0 0
93 1 11.008201431063295 4.716555307364421 11.007589215169704 0 0 0
94 1 12.579743463441208 3.144547652280437 9.434533984992946 0 0 0
95 1 14.1517935 4.716939242166725 11.007371260869657 0 0 0
96 1 15.723137158400865 6.288899461205518 9.43530643882267 -1 0 0
97 1 3.143101008437312 6.287395560242989 9.436466822548047 0 0 0
98 1 6.289686 6.26703358281497 9.486101933044573 0 0 0
99 1 9.436270991562688 6.287395560242989 9.436466822548047 0 0 0
100 1 12.580449841599133 6.288899461205519 9.43530643882267 0 0 0
122 1 3.1447705506634693 6.289903803921775 12.580003841463359 0 0 0
102 1 1.572209838344219 1.5722097620956863 14.152063064070472 0 0 0
204 1 11.007582341463358 7.861889696078224 11.00702294933653 0 0 0
104 1 4.717436902078819 1.5723959770054607 14.15179081257374 0 0 0
124 1 9.43460144933653 6.289903803921775 12.580003841463359 0 0 0
106 1 7.86193509792118 1.572395977005461 14.15179081257374 0 0 0
201 1 1.5717896585366407 7.861889696078223 11.00702294933653 0 0 0
108 1 11.007162161655781 1.5722097620956863 14.152063064070472 0 0 0
121 1 15.724048920661055 6.2897714805209715 12.57959121092513 -1 0 0
110 1 14.151793499999998 1.5724325375507042 14.151766051023376 0 0 0
111 1 15.723913366054454 3.144712544906627 12.579528860427299 -1 0 0
112 1 1.5723545360608964 4.717397091618222 14.151862088977774 0 0 0
113 1 3.1434342408749107 3.1435344373680656 12.580604730733016 0 0 0
114 1 4.716303937613851 4.716313777549883 14.15318711669303 0 0 0
115 1 6.289686 3.1446440755497247 12.579658463559204 0 0 0
116 1 7.863068062386148 4.716313777549883 14.15318711669303 0 0 0
117 1 9.435937759125089 3.1435344373680656 12.580604730733015 0 0 0
118 1 11.007017463939103 4.717397091618222 14.151862088977774 0 0 0
119 1 12.579673633945545 3.1447125449066275 12.579528860427299 0 0 0
120 1 14.1517935 4.717284742422502 14.151716924627198 0 0 0
190 1 14.151793499999998 7.861985367275598 7.8621075 0 0 0
205 1 14.1517935 7.862050577476773 11.007101614756449 0 0 0
54 1 9.434777035569883 15.723839496646873 6.289608329808253 0 -1 0
127 1 4.716487061177331 7.86289403879448 1.571343658400866 0 0 0
128 1 7.862884938822669 7.86289403879448 1.571343658400866 0 0 0
52 1 3.144594964430116 15.723839496646873 6.289608329808253 0 -1 0
185 1 12.57936931257374 12.579397522994539 6.289858402078819 0 0 0
131 1 7.657537280181259e-05 9.434508757577497 0 0 0 0
132 1 1.5722646395727014 11.007080955093372 1.5721198660544553 0 0 0
133 1 3.144422239130342 9.434854257833274 2.0028411027162028e-17 0 0 0
134 1 4.717259515007052 11.007245847719563 1.5720500365587922 0 0 0
135 1 6.289686 9.434559782569927 5.022575939499206e-17 0 0 0
136 1 7.862112484992947 11.007245847719563 1.5720500365587922 0 0 0
137 1 9.434949760869658 9.434854257833276 3.819978796124453e-17 0 0 0
138 1 11.007107360427298 11.007080955093372 1.5721198660544546 0 0 0
139 1 12.579295424627198 9.434508757577497 2.2818921293307424e-16 0 0 0
140 1 14.1517935 11.006922527034012 1.5725010585378647 0 0 0
141 1 2.744897662270334e-05 12.579360962449295 3.5276205194485547e-16 0 0 0
142 1 1.572395947269523 14.151841638684122 1.5724425229998362 0 0 0
143 1 3.144778335391225 12.57939344290237 4.960608234699213e-16 0 0 0
144 1 4.717263472269201 14.151819915211927 1.5724689798538474 0 0 0
145 1 6.289686 12.579371093237608 0 0 0 0
146 1 7.862108527730798 14.151819915211927 1.5724689798538471 0 0 0
147 1 9.434593664608775 12.579393442902369 2.816695255439249e-16 0 0 0
148 1 11.006976052730476 14.151841638684122 1.5724425229998362 0 0 0
149 1 12.579344551023375 12.579360962449295 3.198549697169333e-16 0 0 0
150 1 14.1517935 14.15176805599048 1.5724346043644157 0 0 0
184 1 9.434523782872049 12.58010685574017 6.289656747722626 0 0 0
152 1 4.7153266774519516 7.864397939757009 4.715522508437312 0 0 0
153 1 7.864045322548048 7.864397939757009 4.715522508437312 0 0 0
183 1 6.289686 12.580488587506363 6.289457328206163 0 0 0
53 1 6.289686 15.724131367804503 6.289721241021216 0 -1 0
156 1 15.724146411022225 9.434396408381778 3.1447760360608967 -1 0 0
157 1 1.5711887692669837 11.008259062631932 4.71585574087491 0 0 0
158 1 3.144204284830296 9.435238192635579 3.1435920689367043 0 0 0
159 1 4.716927061425702 11.008596973348826 4.715975516897898 0 0 0
160 1 6.289685999999999 9.43466475504936 3.1438540266951573 0 0 0
161 1 7.8624449385742965 11.008596973348826 4.715975516897898 0 0 0
162 1 9.435167715169703 9.435238192635579 3.143592068936704 0 0 0
163 1 11.008183230733016 11.008259062631934 4.715855740874911 0 0 0
164 1 12.579440588977775 9.434396408381778 3.1447760360608963 0 0 0
165 1 14.1517935 11.00741106030321 4.716837592473561 0 0 0
166 1 15.723945435929528 12.579583737904313 3.144631338344219 -1 0 0
167 1 1.5723556678315131 14.151914318430732 4.71722558944096 0 0 0
168 1 3.144617981137709 12.579732112798279 3.1445725740356716 0 0 0
169 1 4.717186829808253 14.152169003353126 4.717016464430116 0 0 0
170 1 6.289686 12.57989667448519 3.1443580888937577 0 0 0
171 1 7.862185170191746 14.152169003353126 4.717016464430116 0 0 0
172 1 9.43475401886229 12.579732112798279 3.1445725740356716 0 0 0
173 1 11.007016332168487 14.151914318430732 4.71722558944096 0 0 0
174 1 12.57964156407047 12.579583737904313 3.144631338344219 0 0 0
175 1 14.151793499999998 14.151696140473346 4.7173342244389636 0 0 0
176 1 15.722821383306968 9.435479722450117 6.28872543761385 -1 0 0
177 1 3.140594541413948 9.438922843878812 6.28495099208442 0 0 0
178 1 6.289686 9.439118971228634 6.2854945470020205 0 0 0
179 1 9.43877745858605 9.438922843878812 6.28495099208442 0 0 0
180 1 12.58076561669303 9.435479722450117 6.288725437613851 0 0 0
181 1 2.6874262600724114e-06 12.579397522994539 6.289858402078818 0 0 0
182 1 3.144848217127952 12.580106855740167 6.289656747722626 0 0 0
34 1 12.579350977000162 15.724166861315878 3.144817447269524 0 -1 0
26 1 2.1022999835196288e-05 15.724166861315878 3.144817447269524 0 -1 0
28 1 3.14480408944096 15.724094181569265 3.1447771678315126 0 -1 0
32 1 9.43456791055904 15.724094181569265 3.144777167831513 0 -1 0
51 1 4.747985384633784e-05 15.72418858478807 6.2896849722692005 0 -1 0
55 1 12.579324520146152 15.72418858478807 6.2896849722692005 0 -1 0
130 1 14.151793499999998 7.862119668176281 1.572499524848033 0 0 0
30 1 6.289686 15.724178222506097 3.1447362429872374 0 -1 0
250 1 14.1517935 14.15176805599048 14.151780395635583 0 0 0
187 1 4.6656915669554255 7.884759917185029 7.8621075 0 0 0
188 1 7.913680433044573 7.884759917185028 7.8621075 0 0 0
249 1 12.57964156407047 12.579583737904313 12.57958366165578 0 0 0
109 1 12.579350977000162 15.724166861315876 12.579397552730475 0 -1 0
191 1 1.5721350364407973 11.007149424450274 7.8621075 0 0 0
192 1 4.718169200053538 11.006612292644565 7.8621075 0 0 0
193 1 7.8612027999464615 11.006612292644565 7.8621075 0 0 0
194 1 11.007236963559203 11.007149424450274 7.8621075 0 0 0
195 1 14.1517935 11.007126387958957 7.8621075000000005 0 0 0
196 1 1.5723147429872362 14.151830277493902 7.8621075 0 0 0
197 1 4.7172997410212165 14.151877132195496 7.8621075 0 0 0
198 1 7.862072258978782 14.151877132195496 7.8621075 0 0 0
199 1 11.007057257012763 14.1518302774939 7.8621075 0 0 0
200 1 14.1517935 14.151719135831609 7.8621075 0 0 0
82 1 9.434777035569883 15.723839496646873 9.434606670191746 0 -1 0
202 1 4.7153266774519516 7.864397939757009 11.008692491562687 0 0 0
203 1 7.864045322548047 7.864397939757009 11.008692491562687 0 0 0
78 1 3.144594964430116 15.723839496646871 9.434606670191746 0 -1 0
101 1 2.1022999835196288e-05 15.724166861315876 12.579397552730475 0 -1 0
206 1 15.722821383306968 9.435479722450117 9.435489562386149 -1 0 0
207 1 1.571188769266984 11.008259062631934 11.00835925912509 0 0 0
208 1 3.1405945414139484 9.438922843878812 9.439264007915579 0 0 0
209 1 4.716927061425702 11.008596973348826 11.0082394831021 0 0 0
210 1 6.289686 9.439118971228634 9.438720452997979 0 0 0
211 1 7.8624449385742965 11.008596973348826 11.0082394831021 0 0 0
212 1 9.43877745858605 9.438922843878812 9.439264007915579 0 0 0
213 1 11.008183230733016 11.008259062631934 11.008359259125088 0 0 0
214 1 12.58076561669303 9.435479722450117 9.435489562386147 0 0 0
215 1 14.1517935 11.00741106030321 11.007377407526437 0 0 0
216 1 2.6874262601895726e-06 12.579397522994539 9.43435659792118 0 0 0
217 1 1.5723556678315131 14.151914318430734 11.006989410559038 0 0 0
218 1 3.144848217127952 12.58010685574017 9.434558252277373 0 0 0
219 1 4.717186829808252 14.152169003353126 11.007198535569882 0 0 0
220 1 6.289686 12.580488587506364 9.434757671793836 0 0 0
221 1 7.862185170191747 14.152169003353126 11.007198535569882 0 0 0
222 1 9.434523782872049 12.580106855740167 9.434558252277373 0 0 0
223 1 11.007016332168487 14.151914318430732 11.00698941055904 0 0 0
224 1 12.57936931257374 12.579397522994537 9.43435659792118 0 0 0
225 1 14.151793499999998 14.151696140473344 11.006880775561035 0 0 0
248 1 11.006976052730476 14.151841638684122 14.151772477000163 0 0 0
227 1 4.71648706117733 7.86289403879448 14.152871341599134 0 0 0
228 1 7.862884938822669 7.86289403879448 14.152871341599134 0 0 0
247 1 9.434754018862291 12.579732112798279 12.579642425964328 0 0 0
246 1 7.862108527730799 14.151819915211927 14.151746020146152 0 0 0
231 1 15.724146411022225 9.434396408381778 12.579438963939102 -1 0 0
232 1 1.5722646395727007 11.007080955093372 14.152095133945544 0 0 0
233 1 3.1442042848302956 9.435238192635579 12.580622931063296 0 0 0
234 1 4.717259515007052 11.007245847719563 14.152164963441207 0 0 0
235 1 6.289686 9.43466475504936 12.580360973304842 0 0 0
236 1 7.862112484992947 11.007245847719563 14.152164963441207 0 0 0
237 1 9.435167715169703 9.435238192635579 12.580622931063294 0 0 0
238 1 11.007107360427298 11.007080955093372 14.152095133945545 0 0 0
239 1 12.579440588977773 9.434396408381776 12.579438963939102 0 0 0
240 1 14.151793499999998 11.006922527034012 14.151713941462136 0 0 0
241 1 15.723945435929528 12.579583737904313 12.57958366165578 -1 0 0
242 1 1.5723959472695233 14.151841638684122 14.151772477000163 0 0 0
243 1 3.144617981137709 12.579732112798279 12.579642425964328 0 0 0
244 1 4.717263472269201 14.151819915211927 14.151746020146152 0 0 0
245 1 6.289686 12.57989667448519 12.57985691110624 0 0 0
80 1 6.289686 15.724131367804503 9.434493758978782 0 -1 0
189 1 11.01616471316668 7.862493203952809 7.8621075 0 0 0
186 1 1.563207286833322 7.862493203952808 7.8621075 0 0 0
76 1 4.74798538464596e-05 15.72418858478807 9.434530027730798 0 -1 0
230 1 14.151793499999998 7.862119668176281 14.151715475151967 0 0 0
84 1 12.579324520146152 15.72418858478807 9.434530027730798 0 -1 0
103 1 3.14480408944096 15.724094181569265 12.579437832168486 0 -1 0
107 1 9.43456791055904 15.724094181569265 12.579437832168487 0 -1 0
105 1 6.289686 15.724178222506097 12.579478757012764 0 -1 0

Velocities

65 0 0 0
2 0 0 0
60 0 0 0
4 0 0 0
59 0 0 0
6 0 0 0
58 0 0 0
8 0 0 0
64 0 0 0
10 0 0 0
11 0 0 0
12 0 0 0
13 0 0 0
14 0 0 0
15 0 0 0
16 0 0 0
17 0 0 0
18 0 0 0
19 0 0 0
20 0 0 0
21 0 0 0
22 0 0 0
23 0 0 0
24 0 0 0
25 0 0 0
57 0 0 0
27 0 0 0
154 0 0 0
29 0 0 0
63 0 0 0
31 0 0 0
151 0 0 0
33 0 0 0
56 0 0 0
35 0 0 0
36 0 0 0
37 0 0 0
38 0 0 0
39 0 0 0
40 0 0 0
41 0 0 0
42 0 0 0
43 0 0 0
44 0 0 0
45 0 0 0
46 0 0 0
47 0 0 0
48 0 0 0
49 0 0 0
50 0 0 0
1 0 0 0
62 0 0 0
9 0 0 0
61 0 0 0
126 0 0 0
129 0 0 0
155 0 0 0
3 0 0 0
5 0 0 0
7 0 0 0
66 0 0 0
67 0 0 0
68 0 0 0
69 0 0 0
70 0 0 0
71 0 0 0
72 0 0 0
73 0 0 0
74 0 0 0
75 0 0 0
229 0 0 0
77 0 0 0
251 0 0 0
79 0 0 0
123 0 0 0
81 0 0 0
125 0 0 0
83 0 0 0
226 0 0 0
85 0 0 0
86 0 0 0
87 0 0 0
88 0 0 0
89 0 0 0
90 0 0 0
91 0 0 0
92 0 0 0
93 0 0 0
94 0 0 0
95 0 0 0
96 0 0 0
97 0 0 0
98 0 0 0
99 0 0 0
100 0 0 0
122 0 0 0
102 0 0 0
204 0 0 0
104 0 0 0
124 0 0 0
106 0 0 0
201 0 0 0
108 0 0 0
121 0 0 0
110 0 0 0
111 0 0 0
112 0 0 0
113 0 0 0
114 0 0 0
115 0 0 0
116 0 0 0
117 0 0 0
118 0 0 0
119 0 0 0
120 0 0 0
190 0 0 0
205 0 0 0
54 0 0 0
127 0 0 0
128 0 0 0
52 0 0 0
185 0 0 0
131 0 0 0
132 0 0 0
133 0 0 0
134 0 0 0
135 0 0 0
136 0 0 0
137 0 0 0
138 0 0 0
139 0 0 0
140 0 0 0
141 0 0 0
142 0 0 0
143 0 0 0
144 0 0 0
145 0 0 0
146 0 0 0
147 0 0 0
148 0 0 0
149 0 0 0
150 0 0 0
184 0 0 0
152 0 0 0
153 0 0 0
183 0 0 0
53 0 0 0
156 0 0 0
157 0 0 0
158 0 0 0
159 0 0 0
160 0 0 0
161 0 0 0
162 0 0 0
163 0 0 0
164 0 0 0
165 0 0 0
166 0 0 0
167 0 0 0
168 0 0 0
169 0 0 0
170 0 0 0
171 0 0 0
172 0 0 0
173 0 0 0
174 0 0 0
175 0 0 0
176 0 0 0
177 0 0 0
178 0 0 0
179 0 0 0
180 0 0 0
181 0 0 0
182 0 0 0
34 0 0 0
26 0 0 0
28 0 0 0
32 0 0 0
51 0 0 0
55 0 0 0
130 0 0 0
30 0 0 0
250 0 0 0
187 0 0 0
188 0 0 0
249 0 0 0
109 0 0 0
191 0 0 0
192 0 0 0
193 0 0 0
194 0 0 0
195 0 0 0
196 0 0 0
197 0 0 0
198 0 0 0
199 0 0 0
200 0 0 0
82 0 0 0
202 0 0 0
203 0 0 0
78 0 0 0
101 0 0 0
206 0 0 0
207 0 0 0
208 0 0 0
209 0 0 0
210 0 0 0
211 0 0 0
212 0 0 0
213 0 0 0
214 0 0 0
215 0 0 0
216 0 0 0
217 0 0 0
218 0 0 0
219 0 0 0
220 0 0 0
221 0 0 0
222 0 0 0
223 0 0 0
224 0 0 0
225 0 0 0
248 0 0 0
227 0 0 0
228 0 0 0
247 0 0 0
246 0 0 0
231 0 0 0
232 0 0 0
233 0 0 0
234 0 0 0
235 0 0 0
236 0 0 0
237 0 0 0
238 0 0 0
239 0 0 0
240 0 0 0
241 0 0 0
242 0 0 0
243 0 0 0
244 0 0 0
245 0 0 0
80 0 0 0
189 0 0 0
186 0 0 0
76 0 0 0
230 0 0 0
84 0 0 0
103 0 0 0
107 0 0 0
105 0 0 0
