ITEM: TIMESTEP
16
ITEM: NUMBER OF ATOMS
687
ITEM: BOX BOUNDS pp pp pp
0.0000000000000000e+00 2.2013900999999997e+01
0.0000000000000000e+00 2.2013900999999997e+01
0.0000000000000000e+00 2.2013900999999997e+01
ITEM: ATOMS id x y z
1 22.0137 22.0135 0
2 1.57188 1.57135 1.57209
3 3.14471 22.0132 2.01809e-15
4 4.7169 1.57118 1.57213
5 6.2896 22.013 1.43677e-15
6 7.86195 1.57101 1.57211
7 9.43453 22.0129 1.29798e-15
8 11.0071 1.57101 1.57211
9 12.5795 22.013 2.01613e-15
10 14.1522 1.57118 1.57213
11 15.7243 22.0132 0
12 17.2972 1.57135 1.57209
13 18.8692 22.0135 2.79647e-15
14 20.4415 1.5717 1.5722
15 22.0135 3.14385 0
16 1.57152 4.71602 1.57183
17 3.14407 3.14339 2.03886e-15
18 4.71623 4.71558 1.57125
19 6.28927 3.14328 0
20 7.86174 4.7154 1.5714
21 9.43453 3.14316 8.3905e-16
22 11.0073 4.7154 1.5714
23 12.5798 3.14328 3.03754e-16
24 14.1528 4.71558 1.57125
25 15.725 3.14339 1.52431e-17
26 17.2975 4.71602 1.57183
27 18.8694 3.14385 2.68273e-15
28 20.4415 4.71637 1.57211
29 22.0134 6.28888 6.29951e-16
30 1.57142 7.86144 1.57174
31 3.14384 6.28862 8.42163e-16
32 4.71616 7.86127 1.57107
33 6.28929 6.28863 8.48715e-16
34 7.86222 7.86141 1.57144
35 9.43453 6.28823 8.91149e-16
36 11.0068 7.86141 1.57144
37 12.5798 6.28863 1.89043e-15
38 14.1529 7.86127 1.57107
39 15.7252 6.28862 1.87885e-15
40 17.2976 7.86144 1.57174
41 18.8695 6.28888 0
42 20.4415 7.86159 1.57199
43 22.0134 9.43434 2.49376e-15
44 1.57146 11.0071 1.5717
45 3.14377 9.43423 2.32198e-16
46 4.71621 11.007 1.5711
47 6.2893 9.43417 1.25595e-15
48 7.86248 11.0063 1.57221
49 9.43453 9.43398 4.34671e-16
50 11.0066 11.0063 1.57221
51 12.5798 9.43417 1.76835e-15
52 14.1528 11.007 1.5711
53 15.7253 9.43423 1.86418e-15
54 17.2976 11.0071 1.5717
55 18.8696 9.43434 3.11652e-16
56 20.4415 11.0071 1.57193
57 22.0135 12.5799 6.00627e-16
58 1.57168 14.1527 1.57172
59 3.14402 12.5798 8.31367e-17
60 4.71678 14.1524 1.57117
61 6.28978 12.5792 1.56132e-15
62 7.86231 14.1518 1.57206
63 9.43453 12.5791 2.35634e-15
64 11.0067 14.1518 1.57206
65 12.5793 12.5792 1.79044e-16
66 14.1523 14.1524 1.57117
67 15.725 12.5798 2.62023e-15
68 17.2974 14.1527 1.57172
69 18.8695 12.5799 8.48099e-16
70 20.4415 14.1526 1.57195
71 22.0136 15.7251 1.46831e-15
72 1.57186 17.2978 1.57179
73 3.14436 15.7251 1.75881e-15
74 4.71732 17.297 1.57209
75 6.28985 15.7244 1.27166e-15
76 7.86216 17.2967 1.57221
77 9.43453 15.7243 9.6782e-16
78 11.0069 17.2967 1.57221
79 12.5792 15.7244 0
80 14.1517 17.297 1.57209
81 15.7247 15.7251 0
82 17.2972 17.2978 1.57179
83 18.8694 15.7251 0
84 20.4415 17.2976 1.57203
85 22.0137 18.8698 1.42004e-15
86 1.57227 20.4416 1.5722
87 3.14485 18.8693 0
88 4.71728 20.4412 1.57232
89 6.28975 18.8689 1.52768e-15
90 7.86211 20.4409 1.57234
91 9.43453 18.8688 5.89916e-16
92 11.0069 20.4409 1.57234
93 12.5793 18.8689 1.18351e-15
94 14.1518 20.4412 1.57232
95 15.7242 18.8693 0
96 17.2968 20.4416 1.5722
97 18.8693 18.8698 0
98 20.4415 20.4418 1.57226
99 22.0137 22.0138 3.14469
100 1.57193 1.57175 4.71707
101 3.14454 22.0132 3.14457
102 4.71657 1.57065 4.71668
103 6.28957 22.013 3.14463
104 7.86189 1.57062 4.71662
105 9.43453 22.0128 3.14461
106 11.0072 1.57062 4.71662
107 12.5795 22.013 3.14463
108 14.1525 1.57065 4.71668
109 15.7245 22.0132 3.14457
110 17.2971 1.57175 4.71707
111 18.8693 22.0138 3.14469
112 20.4415 1.57214 4.71727
113 22.0133 3.14372 3.14428
114 1.5703 4.71536 4.71583
115 3.14333 3.14274 3.14352
116 4.71312 4.71254 4.71311
117 6.28904 3.14291 3.14377
118 7.86117 4.71399 4.7146
119 9.43453 3.14278 3.14373
120 11.0079 4.71399 4.7146
121 12.58 3.14291 3.14377
122 14.1559 4.71254 4.71311
123 15.7257 3.14274 3.14352
124 17.2988 4.71536 4.71583
125 18.8697 3.14372 3.14428
126 20.4415 4.71637 4.71678
127 22.0132 6.28881 3.1441
128 1.57039 7.86129 4.71565
129 3.14303 6.28811 3.14291
130 4.71375 7.86 4.71267
131 6.28836 6.28765 3.14156
132 7.86172 7.86014 4.71204
133 9.43453 6.287 3.14206
134 11.0073 7.86014 4.71204
135 12.5807 6.28765 3.14156
136 14.1553 7.86 4.71267
137 15.726 6.28811 3.14291
138 17.2987 7.86129 4.71565
139 18.8698 6.28881 3.1441
140 20.4415 7.86164 4.71645
141 22.0132 9.43434 3.14388
142 1.5704 11.0074 4.71542
143 3.143 9.43412 3.14282
144 4.71373 11.0075 4.71279
145 6.28829 9.43407 3.14181
146 7.86239 11.0053 4.7164
147 9.43453 9.43372 3.14672
148 11.0067 11.0053 4.7164
149 12.5808 9.43407 3.14181
150 14.1553 11.0075 4.71279
151 15.7261 9.43412 3.14282
152 17.2987 11.0074 4.71542
153 18.8698 9.43434 3.14388
154 20.4415 11.0073 4.71619
155 22.0132 12.58 3.14384
156 1.57049 14.1534 4.71545
157 3.14323 12.5802 3.14281
158 4.71364 14.1555 4.71175
159 6.28921 12.5794 3.14213
160 7.86288 14.1517 4.71644
161 9.43453 12.579 3.14498
162 11.0062 14.1517 4.71644
163 12.5799 12.5794 3.14213
164 14.1554 14.1555 4.71175
165 15.7258 12.5802 3.14281
166 17.2986 14.1534 4.71545
167 18.8697 12.58 3.14384
168 20.4415 14.1529 4.71626
169 22.0133 15.7255 3.14394
170 1.5711 17.2987 4.71575
171 3.14341 15.7261 3.14272
172 4.71697 17.298 4.71632
173 6.2899 15.7246 3.14409
174 7.8622 17.2969 4.71679
175 9.43453 15.7244 3.14418
176 11.0069 17.2969 4.71679
177 12.5792 15.7246 3.14409
178 14.1521 17.298 4.71632
179 15.7257 15.7261 3.14272
180 17.298 17.2987 4.71575
181 18.8696 15.7255 3.14394
182 20.4415 17.2981 4.71649
183 22.0136 18.8701 3.1443
184 1.57215 20.4422 4.71696
185 3.14465 18.8697 3.14435
186 4.71735 20.4414 4.71721
187 6.28976 18.869 3.14465
188 7.86216 20.441 4.71722
189 9.43453 18.8688 3.14467
190 11.0069 20.441 4.71722
191 12.5793 18.869 3.14465
192 14.1517 20.4414 4.71721
193 15.7244 18.8697 3.14435
194 17.2969 20.4422 4.71696
195 18.8694 18.8701 3.1443
196 20.4415 20.4421 4.71713
197 22.0138 0.000326904 6.2897
198 1.57223 1.57243 7.86218
199 3.14479 8.19304e-05 6.28977
200 4.71741 1.57214 7.86261
201 6.28989 22.0131 6.28993
202 7.8625 1.57156 7.86262
203 9.43453 22.0129 6.28972
204 11.0066 1.57156 7.86262
205 12.5792 22.0131 6.28993
206 14.1516 1.57214 7.86261
207 15.7243 8.19304e-05 6.28977
208 17.2968 1.57243 7.86218
209 18.8692 0.000326904 6.2897
210 20.4415 1.57254 7.86218
211 22.0136 3.14445 6.28974
212 1.57166 4.71691 7.86232
213 3.1439 3.14351 6.28939
214 4.71596 4.71537 7.86207
215 6.28845 3.14134 6.28846
216 7.86138 4.71153 7.86074
217 9.43453 3.14172 6.28805
218 11.0077 4.71153 7.86074
219 12.5806 3.14134 6.28846
220 14.1531 4.71537 7.86207
221 15.7252 3.14351 6.28939
222 17.2974 4.71691 7.86232
223 18.8694 3.14445 6.28974
224 20.4415 4.71708 7.86227
225 22.0126 6.28904 6.2892
226 1.56971 7.86206 7.86163
227 3.13933 6.28599 6.28607
228 4.70441 7.85497 7.85363
229 6.2781 6.27756 6.27788
230 7.82655 7.82603 7.83142
231 9.43453 6.28287 6.28333
232 11.0425 7.82603 7.83142
233 12.591 6.27756 6.27788
234 14.1647 7.85497 7.85363
235 15.7297 6.28599 6.28607
236 17.2994 7.86206 7.86163
237 18.8703 6.28904 6.2892
238 20.4415 7.86232 7.8622
239 22.0126 9.43448 6.28863
240 1.56939 11.0074 7.86071
241 3.14037 9.43399 6.28615
242 4.70695 11.0082 7.8554
243 6.28297 9.43324 6.27937
244 7.83223 11.0242 7.85122
245 9.43453 9.43225 6.30851
246 11.0368 11.0242 7.85122
247 12.5861 9.43324 6.27937
248 14.1621 11.0082 7.8554
249 15.7287 9.43399 6.28615
250 17.2997 11.0074 7.86071
251 18.8704 9.43448 6.28863
252 20.4415 11.0073 7.86172
253 22.0126 12.5802 6.28858
254 1.56914 14.1538 7.86078
255 3.14025 12.5815 6.28617
256 4.70546 14.1639 7.85053
257 6.28121 12.5865 6.27683
258 7.86553 14.1528 7.86149
259 9.43453 12.5764 6.29303
260 11.0035 14.1528 7.86149
261 12.5878 12.5865 6.27683
262 14.1636 14.1639 7.85053
263 15.7288 12.5815 6.28617
264 17.2999 14.1538 7.86078
265 18.8704 12.5802 6.28858
266 20.4415 14.1529 7.86171
267 22.0127 15.7259 6.28865
268 1.57135 17.2986 7.86146
269 3.14069 15.7289 6.28554
270 4.71603 17.3001 7.86088
271 6.28965 15.7261 6.28838
272 7.86347 17.2959 7.8626
273 9.43453 15.7247 6.28841
274 11.0056 17.2959 7.8626
275 12.5794 15.7261 6.28838
276 14.153 17.3001 7.86088
277 15.7284 15.7289 6.28554
278 17.2977 17.2986 7.86146
279 18.8702 15.7259 6.28865
280 20.4415 17.2982 7.86169
281 22.0136 18.8703 6.28932
282 1.57221 20.4424 7.86199
283 3.14426 18.8708 6.28899
284 4.71751 20.4423 7.86231
285 6.29019 18.8693 6.28983
286 7.86264 20.441 7.86267
287 9.43453 18.8689 6.28961
288 11.0064 20.441 7.86267
289 12.5789 18.8693 6.28983
290 14.1516 20.4423 7.86231
291 15.7248 18.8708 6.28899
292 17.2968 20.4424 7.86199
293 18.8694 18.8703 6.28932
294 20.4415 20.4424 7.86202
295 22.0138 0.000565519 9.43453
296 1.57225 1.57263 11.007
297 3.1448 0.000512447 9.43458
298 4.71719 1.57257 11.007
299 6.29025 0.00045711 9.43506
300 7.86275 1.57477 11.007
301 9.43453 0.000350344 9.43515
302 11.0063 1.57477 11.007
303 12.5788 0.00045711 9.43506
304 14.1519 1.57257 11.007
305 15.7243 0.000512447 9.43458
306 17.2968 1.57263 11.007
307 18.8691 0.000565519 9.43453
308 20.4415 1.57266 11.007
309 22.0137 3.14477 9.43458
310 1.57176 4.71705 11.007
311 3.14437 3.14459 9.43462
312 4.71599 4.71678 11.007
313 6.29018 3.14553 9.43589
314 7.86484 4.72767 11.007
315 9.43453 3.14838 9.43569
316 11.0042 4.72767 11.007
317 12.5789 3.14553 9.43589
318 14.1531 4.71678 11.007
319 15.7247 3.14459 9.43462
320 17.2973 4.71705 11.007
321 18.8693 3.14477 9.43458
322 20.4415 4.71715 11.007
323 22.0135 6.2897 9.43474
324 1.57256 7.86246 11.007
325 3.14401 6.28979 9.4353
326 4.7206 7.86507 11.007
327 6.28907 6.28866 9.43795
328 7.86883 7.89282 11.007
329 9.43453 6.30367 9.43207
330 11.0002 7.89282 11.007
331 12.58 6.28866 9.43795
332 14.1485 7.86507 11.007
333 15.725 6.28979 9.4353
334 17.2965 7.86246 11.007
335 18.8694 6.2897 9.43474
336 20.4415 7.86236 11.007
337 22.0137 9.4352 9.4349
338 1.5743 11.0078 11.007
339 3.14398 9.43613 9.43481
340 4.73609 11.0092 11.007
341 6.27879 9.41727 9.40465
342 7.60106 11.0838 11.007
343 9.43453 9.35763 9.17348
344 11.268 11.0838 11.007
345 12.5903 9.41727 9.40465
346 14.133 11.0092 11.007
347 15.7251 9.43613 9.43481
348 17.2948 11.0078 11.007
349 18.8693 9.4352 9.4349
350 20.4415 11.0075 11.007
351 22.0129 12.5801 9.43464
352 1.56964 14.1545 11.007
353 3.13962 12.5813 9.43415
354 4.7109 14.1586 11.007
355 6.259 12.6155 9.39898
356 7.85965 14.1378 11.007
357 9.43453 12.5487 9.44126
358 11.0094 14.1378 11.007
359 12.6101 12.6155 9.39898
360 14.1582 14.1586 11.007
361 15.7294 12.5813 9.43415
362 17.2994 14.1545 11.007
363 18.87 12.5801 9.43464
364 20.4415 14.1532 11.007
365 22.0129 15.7261 9.43416
366 1.57131 17.2987 11.007
367 3.14218 15.7275 9.4336
368 4.71563 17.2998 11.007
369 6.28831 15.7299 9.43381
370 7.86327 17.2931 11.007
371 9.43453 15.7138 9.43727
372 11.0058 17.2931 11.007
373 12.5807 15.7299 9.43381
374 14.1534 17.2998 11.007
375 15.7269 15.7275 9.4336
376 17.2977 17.2987 11.007
377 18.8701 15.7261 9.43416
378 20.4415 17.2983 11.007
379 22.0136 18.8705 9.43437
380 1.57218 20.4426 11.007
381 3.1442 18.8709 9.43431
382 4.7173 20.4425 11.007
383 6.2902 18.8699 9.43492
384 7.86273 20.4411 11.007
385 9.43453 18.8667 9.43517
386 11.0063 20.4411 11.007
387 12.5789 18.8699 9.43492
388 14.1518 20.4425 11.007
389 15.7249 18.8709 9.43431
390 17.2969 20.4426 11.007
391 18.8694 18.8705 9.43437
392 20.4415 20.4425 11.007
393 22.0138 0.000565519 12.5794
394 1.57223 1.57243 14.1517
395 3.1448 0.000512447 12.5793
396 4.71741 1.57214 14.1513
397 6.29025 0.00045711 12.5788
398 7.8625 1.57156 14.1513
399 9.43453 0.000350344 12.5788
400 11.0066 1.57156 14.1513
401 12.5788 0.00045711 12.5788
402 14.1516 1.57214 14.1513
403 15.7243 0.000512447 12.5793
404 17.2968 1.57243 14.1517
405 18.8691 0.000565519 12.5794
406 20.4415 1.57254 14.1517
407 22.0137 3.14477 12.5793
408 1.57166 4.71691 14.1516
409 3.14437 3.14459 12.5793
410 4.71596 4.71537 14.1518
411 6.29018 3.14553 12.578
412 7.86138 4.71153 14.1532
413 9.43453 3.14838 12.5782
414 11.0077 4.71153 14.1532
415 12.5789 3.14553 12.578
416 14.1531 4.71537 14.1518
417 15.7247 3.14459 12.5793
418 17.2974 4.71691 14.1516
419 18.8693 3.14477 12.5793
420 20.4415 4.71708 14.1516
421 22.0135 6.2897 12.5792
422 1.56971 7.86206 14.1523
423 3.14401 6.28979 12.5786
424 4.70441 7.85497 14.1603
425 6.28907 6.28866 12.5759
426 7.82655 7.82603 14.1825
427 9.43453 6.30367 12.5818
428 11.0425 7.82603 14.1825
429 12.58 6.28866 12.5759
430 14.1647 7.85497 14.1603
431 15.725 6.28979 12.5786
432 17.2994 7.86206 14.1523
433 18.8694 6.2897 12.5792
434 20.4415 7.86232 14.1517
435 22.0137 9.4352 12.579
436 1.56939 11.0074 14.1532
437 3.14398 9.43613 12.5791
438 4.70695 11.0082 14.1585
439 6.27879 9.41727 12.6092
440 7.83223 11.0242 14.1627
441 9.43453 9.35763 12.8404
442 11.0368 11.0242 14.1627
443 12.5903 9.41727 12.6092
444 14.1621 11.0082 14.1585
445 15.7251 9.43613 12.5791
446 17.2997 11.0074 14.1532
447 18.8693 9.4352 12.579
448 20.4415 11.0073 14.1522
449 22.0129 12.5801 12.5793
450 1.56914 14.1538 14.1531
451 3.13962 12.5813 12.5798
452 4.70546 14.1639 14.1634
453 6.259 12.6155 12.6149
454 7.86553 14.1528 14.1524
455 9.43453 12.5487 12.5726
456 11.0035 14.1528 14.1524
457 12.6101 12.6155 12.6149
458 14.1636 14.1639 14.1634
459 15.7294 12.5813 12.5798
460 17.2999 14.1538 14.1531
461 18.87 12.5801 12.5793
462 20.4415 14.1529 14.1522
463 22.0129 15.7261 12.5797
464 1.57135 17.2986 14.1524
465 3.14218 15.7275 12.5803
466 4.71603 17.3001 14.153
467 6.28831 15.7299 12.5801
468 7.86347 17.2959 14.1513
469 9.43453 15.7138 12.5766
470 11.0056 17.2959 14.1513
471 12.5807 15.7299 12.5801
472 14.153 17.3001 14.153
473 15.7269 15.7275 12.5803
474 17.2977 17.2986 14.1524
475 18.8701 15.7261 12.5797
476 20.4415 17.2982 14.1522
477 22.0136 18.8705 12.5795
478 1.57221 20.4424 14.1519
479 3.1442 18.8709 12.5796
480 4.71751 20.4423 14.1516
481 6.2902 18.8699 12.579
482 7.86264 20.441 14.1512
483 9.43453 18.8667 12.5787
484 11.0064 20.441 14.1512
485 12.5789 18.8699 12.579
486 14.1516 20.4423 14.1516
487 15.7249 18.8709 12.5796
488 17.2968 20.4424 14.1519
489 18.8694 18.8705 12.5795
490 20.4415 20.4424 14.1519
491 22.0138 0.000326904 15.7242
492 1.57193 1.57175 17.2968
493 3.14479 8.19304e-05 15.7241
494 4.71657 1.57065 17.2972
495 6.28989 22.0131 15.724
496 7.86189 1.57062 17.2973
497 9.43453 22.0129 15.7242
498 11.0072 1.57062 17.2973
499 12.5792 22.0131 15.724
500 14.1525 1.57065 17.2972
501 15.7243 8.19304e-05 15.7241
502 17.2971 1.57175 17.2968
503 18.8692 0.000326904 15.7242
504 20.4415 1.57214 17.2966
505 22.0136 3.14445 15.7242
506 1.5703 4.71536 17.2981
507 3.1439 3.14351 15.7245
508 4.71312 4.71254 17.3008
509 6.28845 3.14134 15.7254
510 7.86117 4.71399 17.2993
511 9.43453 3.14172 15.7259
512 11.0079 4.71399 17.2993
513 12.5806 3.14134 15.7254
514 14.1559 4.71254 17.3008
515 15.7252 3.14351 15.7245
516 17.2988 4.71536 17.2981
517 18.8694 3.14445 15.7242
518 20.4415 4.71637 17.2971
519 22.0126 6.28904 15.7247
520 1.57039 7.86129 17.2983
521 3.13933 6.28599 15.7278
522 4.71375 7.86 17.3012
523 6.2781 6.27756 15.736
524 7.86172 7.86014 17.3019
525 9.43453 6.28287 15.7306
526 11.0073 7.86014 17.3019
527 12.591 6.27756 15.736
528 14.1553 7.86 17.3012
529 15.7297 6.28599 15.7278
530 17.2987 7.86129 17.2983
531 18.8703 6.28904 15.7247
532 20.4415 7.86164 17.2975
533 22.0126 9.43448 15.7253
534 1.5704 11.0074 17.2985
535 3.14037 9.43399 15.7277
536 4.71373 11.0075 17.3011
537 6.28297 9.43324 15.7345
538 7.86239 11.0053 17.2975
539 9.43453 9.43225 15.7054
540 11.0067 11.0053 17.2975
541 12.5861 9.43324 15.7345
542 14.1553 11.0075 17.3011
543 15.7287 9.43399 15.7277
544 17.2987 11.0074 17.2985
545 18.8704 9.43448 15.7253
546 20.4415 11.0073 17.2977
547 22.0126 12.5802 15.7253
548 1.57049 14.1534 17.2984
549 3.14025 12.5815 15.7277
550 4.71364 14.1555 17.3022
551 6.28121 12.5865 15.7371
552 7.86288 14.1517 17.2975
553 9.43453 12.5764 15.7209
554 11.0062 14.1517 17.2975
555 12.5878 12.5865 15.7371
556 14.1554 14.1555 17.3022
557 15.7288 12.5815 15.7277
558 17.2986 14.1534 17.2984
559 18.8704 12.5802 15.7253
560 20.4415 14.1529 17.2976
561 22.0127 15.7259 15.7253
562 1.5711 17.2987 17.2982
563 3.14069 15.7289 15.7284
564 4.71697 17.298 17.2976
565 6.28965 15.7261 15.7255
566 7.8622 17.2969 17.2971
567 9.43453 15.7247 15.7255
568 11.0069 17.2969 17.2971
569 12.5794 15.7261 15.7255
570 14.1521 17.298 17.2976
571 15.7284 15.7289 15.7284
572 17.298 17.2987 17.2982
573 18.8702 15.7259 15.7253
574 20.4415 17.2981 17.2974
575 22.0136 18.8703 15.7246
576 1.57215 20.4422 17.2969
577 3.14426 18.8708 15.7249
578 4.71735 20.4414 17.2967
579 6.29019 18.8693 15.7241
580 7.86216 20.441 17.2967
581 9.43453 18.8689 15.7243
582 11.0069 20.441 17.2967
583 12.5789 18.8693 15.7241
584 14.1517 20.4414 17.2967
585 15.7248 18.8708 15.7249
586 17.2969 20.4422 17.2969
587 18.8694 18.8703 15.7246
588 20.4415 20.4421 17.2968
589 22.0137 22.0138 18.8692
590 1.57188 1.57135 20.4418
591 3.14454 22.0132 18.8693
592 4.7169 1.57118 20.4418
593 6.28957 22.013 18.8693
594 7.86195 1.57101 20.4418
595 9.43453 22.0128 18.8693
596 11.0071 1.57101 20.4418
597 12.5795 22.013 18.8693
598 14.1522 1.57118 20.4418
599 15.7245 22.0132 18.8693
600 17.2972 1.57135 20.4418
601 18.8693 22.0138 18.8692
602 20.4415 1.5717 20.4417
603 22.0133 3.14372 18.8696
604 1.57152 4.71602 20.4421
605 3.14333 3.14274 18.8704
606 4.71623 4.71558 20.4427
607 6.28904 3.14291 18.8701
608 7.86174 4.7154 20.4425
609 9.43453 3.14278 18.8702
610 11.0073 4.7154 20.4425
611 12.58 3.14291 18.8701
612 14.1528 4.71558 20.4427
613 15.7257 3.14274 18.8704
614 17.2975 4.71602 20.4421
615 18.8697 3.14372 18.8696
616 20.4415 4.71637 20.4418
617 22.0132 6.28881 18.8698
618 1.57142 7.86144 20.4422
619 3.14303 6.28811 18.871
620 4.71616 7.86127 20.4428
621 6.28836 6.28765 18.8723
622 7.86222 7.86141 20.4425
623 9.43453 6.287 18.8718
624 11.0068 7.86141 20.4425
625 12.5807 6.28765 18.8723
626 14.1529 7.86127 20.4428
627 15.726 6.28811 18.871
628 17.2976 7.86144 20.4422
629 18.8698 6.28881 18.8698
630 20.4415 7.86159 20.4419
631 22.0132 9.43434 18.87
632 1.57146 11.0071 20.4422
633 3.143 9.43412 18.8711
634 4.71621 11.007 20.4428
635 6.28829 9.43407 18.8721
636 7.86248 11.0063 20.4417
637 9.43453 9.43372 18.8672
638 11.0066 11.0063 20.4417
639 12.5808 9.43407 18.8721
640 14.1528 11.007 20.4428
641 15.7261 9.43412 18.8711
642 17.2976 11.0071 20.4422
643 18.8698 9.43434 18.87
644 20.4415 11.0071 20.442
645 22.0132 12.58 18.8701
646 1.57168 14.1527 20.4422
647 3.14323 12.5802 18.8711
648 4.71678 14.1524 20.4427
649 6.28921 12.5794 18.8718
650 7.86231 14.1518 20.4418
651 9.43453 12.579 18.8689
652 11.0067 14.1518 20.4418
653 12.5799 12.5794 18.8718
654 14.1523 14.1524 20.4427
655 15.7258 12.5802 18.8711
656 17.2974 14.1527 20.4422
657 18.8697 12.58 18.8701
658 20.4415 14.1526 20.442
659 22.0133 15.7255 18.87
660 1.57186 17.2978 20.4421
661 3.14341 15.7261 18.8712
662 4.71732 17.297 20.4418
663 6.2899 15.7246 18.8698
664 7.86216 17.2967 20.4417
665 9.43453 15.7244 18.8697
666 11.0069 17.2967 20.4417
667 12.5792 15.7246 18.8698
668 14.1517 17.297 20.4418
669 15.7257 15.7261 18.8712
670 17.2972 17.2978 20.4421
671 18.8696 15.7255 18.87
672 20.4415 17.2976 20.4419
673 22.0136 18.8701 18.8696
674 1.57227 20.4416 20.4417
675 3.14465 18.8697 18.8696
676 4.71728 20.4412 20.4416
677 6.28976 18.869 18.8692
678 7.86211 20.4409 20.4416
679 9.43453 18.8688 18.8692
680 11.0069 20.4409 20.4416
681 12.5793 18.869 18.8692
682 14.1518 20.4412 20.4416
683 15.7244 18.8697 18.8696
684 17.2968 20.4416 20.4417
685 18.8694 18.8701 18.8696
686 20.4415 20.4418 20.4416
687 9.43453 10.2207 11.007
