ITEM: TIMESTEP
4
ITEM: NUMBER OF ATOMS
251
ITEM: BOX BOUNDS pp pp pp
0.0000000000000000e+00 1.5724214999999999e+01
0.0000000000000000e+00 1.5724214999999999e+01
0.0000000000000000e+00 1.5724214999999999e+01
ITEM: ATOMS id x y z
65 12.5804 6.2889 6.28891
2 1.57221 1.57221 1.57215
60 12.5797 3.14455 6.28968
4 4.71744 1.5724 1.57242
59 9.43582 3.1432 6.28935
6 7.86194 1.5724 1.57242
58 6.28969 3.14518 6.29059
8 11.0072 1.57221 1.57215
64 9.43627 6.2874 6.28775
10 14.1518 1.57243 1.57245
11 7.95585e-05 3.14487 3.1435e-16
12 1.57235 4.7174 1.57235
13 3.14442 3.14438 4.84804e-16
14 4.7163 4.71631 1.57103
15 6.28969 3.14467 4.29543e-16
16 7.86307 4.71631 1.57103
17 9.43496 3.14438 4.97137e-16
18 11.007 4.7174 1.57235
19 12.5793 3.14487 2.21244e-16
20 14.1518 4.71728 1.5725
21 7.80248e-05 6.28967 3.48572e-16
22 3.14469 6.28974 1.99675e-16
23 6.28969 6.28981 3.58766e-16
24 9.43468 6.28974 2.61652e-16
25 12.5793 6.28967 5.41326e-16
57 3.14355 3.1432 6.28935
27 1.57215 1.57206 4.71704
154 11.0076 7.86189 4.71719
29 4.71724 1.57169 4.71727
63 6.28969 6.26703 6.23811
31 7.86214 1.57169 4.71727
151 1.57179 7.86189 4.71719
33 11.0072 1.57206 4.71704
56 15.7238 3.14455 6.28968
35 14.1518 1.5724 4.7172
36 15.7239 3.14471 3.14469
37 1.57117 4.71656 4.71663
38 3.14343 3.14353 3.14361
39 4.71253 4.71287 4.71302
40 6.28969 3.14464 3.14456
41 7.86684 4.71287 4.71302
42 9.43594 3.14353 3.14361
43 11.0082 4.71656 4.71663
44 12.5797 3.14471 3.14469
45 14.1518 4.71694 4.71684
46 15.724 6.28977 3.14462
47 3.14477 6.2899 3.14421
48 6.28969 6.2893 3.13563
49 9.4346 6.2899 3.14421
50 12.5795 6.28977 3.14462
1 1.31044e-05 2.5444e-05 2.04033e-16
62 3.1431 6.2874 6.28775
9 12.5794 2.5444e-05 3.4465e-16
61 15.7231 6.2889 6.28891
126 1.5722 7.86202 1.57226
129 11.0072 7.86202 1.57226
155 14.1518 7.86205 4.71711
3 3.14491 9.73595e-05 4.80212e-16
5 6.28969 7.43642e-05 2.54222e-16
7 9.43446 9.73595e-05 6.48771e-17
66 1.57194 1.5719 7.86211
67 4.71704 1.5713 7.86211
68 7.86234 1.5713 7.86211
69 11.0074 1.5719 7.86211
70 14.1518 1.57242 7.86211
71 1.57143 4.71713 7.86211
72 4.71307 4.71267 7.86211
73 7.8663 4.71267 7.86211
74 11.0079 4.71713 7.86211
75 14.1518 4.71723 7.86211
229 11.0072 7.86202 14.152
77 1.57215 1.57206 11.0072
251 6.28969 7.0759 7.86211
79 4.71724 1.57169 11.0069
123 6.28969 6.2893 12.5886
81 7.86214 1.57169 11.0069
125 12.5795 6.28977 12.5796
83 11.0072 1.57206 11.0072
226 1.5722 7.86202 14.152
85 14.1518 1.5724 11.007
86 15.7238 3.14455 9.43453
87 1.57117 4.71656 11.0076
88 3.14355 3.1432 9.43487
89 4.71253 4.71287 11.0112
90 6.28969 3.14518 9.43362
91 7.86684 4.71287 11.0112
92 9.43582 3.1432 9.43487
93 11.0082 4.71656 11.0076
94 12.5797 3.14455 9.43453
95 14.1518 4.71694 11.0074
96 15.7231 6.2889 9.43531
97 3.1431 6.2874 9.43647
98 6.28969 6.26703 9.4861
99 9.43627 6.2874 9.43647
100 12.5804 6.2889 9.43531
122 3.14477 6.2899 12.58
102 1.57221 1.57221 14.1521
204 11.0076 7.86189 11.007
104 4.71744 1.5724 14.1518
124 9.4346 6.2899 12.58
106 7.86194 1.5724 14.1518
201 1.57179 7.86189 11.007
108 11.0072 1.57221 14.1521
121 15.724 6.28977 12.5796
110 14.1518 1.57243 14.1518
111 15.7239 3.14471 12.5795
112 1.57235 4.7174 14.1519
113 3.14343 3.14353 12.5806
114 4.7163 4.71631 14.1532
115 6.28969 3.14464 12.5797
116 7.86307 4.71631 14.1532
117 9.43594 3.14353 12.5806
118 11.007 4.7174 14.1519
119 12.5797 3.14471 12.5795
120 14.1518 4.71728 14.1517
190 14.1518 7.86199 7.86211
205 14.1518 7.86205 11.0071
54 9.43478 15.7238 6.28961
127 4.71649 7.86289 1.57134
128 7.86288 7.86289 1.57134
52 3.14459 15.7238 6.28961
185 12.5794 12.5794 6.28986
131 7.65754e-05 9.43451 0
132 1.57226 11.0071 1.57212
133 3.14442 9.43485 2.00284e-17
134 4.71726 11.0072 1.57205
135 6.28969 9.43456 5.02258e-17
136 7.86211 11.0072 1.57205
137 9.43495 9.43485 3.81998e-17
138 11.0071 11.0071 1.57212
139 12.5793 9.43451 2.28189e-16
140 14.1518 11.0069 1.5725
141 2.7449e-05 12.5794 3.52762e-16
142 1.5724 14.1518 1.57244
143 3.14478 12.5794 4.96061e-16
144 4.71726 14.1518 1.57247
145 6.28969 12.5794 0
146 7.86211 14.1518 1.57247
147 9.43459 12.5794 2.8167e-16
148 11.007 14.1518 1.57244
149 12.5793 12.5794 3.19855e-16
150 14.1518 14.1518 1.57243
184 9.43452 12.5801 6.28966
152 4.71533 7.8644 4.71552
153 7.86405 7.8644 4.71552
183 6.28969 12.5805 6.28946
53 6.28969 15.7241 6.28972
156 15.7241 9.4344 3.14478
157 1.57119 11.0083 4.71586
158 3.1442 9.43524 3.14359
159 4.71693 11.0086 4.71598
160 6.28969 9.43466 3.14385
161 7.86244 11.0086 4.71598
162 9.43517 9.43524 3.14359
163 11.0082 11.0083 4.71586
164 12.5794 9.4344 3.14478
165 14.1518 11.0074 4.71684
166 15.7239 12.5796 3.14463
167 1.57236 14.1519 4.71723
168 3.14462 12.5797 3.14457
169 4.71719 14.1522 4.71702
170 6.28969 12.5799 3.14436
171 7.86219 14.1522 4.71702
172 9.43475 12.5797 3.14457
173 11.007 14.1519 4.71723
174 12.5796 12.5796 3.14463
175 14.1518 14.1517 4.71733
176 15.7228 9.43548 6.28873
177 3.14059 9.43892 6.28495
178 6.28969 9.43912 6.28549
179 9.43878 9.43892 6.28495
180 12.5808 9.43548 6.28873
181 2.68743e-06 12.5794 6.28986
182 3.14485 12.5801 6.28966
34 12.5794 15.7242 3.14482
26 2.1023e-05 15.7242 3.14482
28 3.1448 15.7241 3.14478
32 9.43457 15.7241 3.14478
51 4.74799e-05 15.7242 6.28968
55 12.5793 15.7242 6.28968
130 14.1518 7.86212 1.5725
30 6.28969 15.7242 3.14474
250 14.1518 14.1518 14.1518
187 4.66569 7.88476 7.86211
188 7.91368 7.88476 7.86211
249 12.5796 12.5796 12.5796
109 12.5794 15.7242 12.5794
191 1.57214 11.0071 7.86211
192 4.71817 11.0066 7.86211
193 7.8612 11.0066 7.86211
194 11.0072 11.0071 7.86211
195 14.1518 11.0071 7.86211
196 1.57231 14.1518 7.86211
197 4.7173 14.1519 7.86211
198 7.86207 14.1519 7.86211
199 11.0071 14.1518 7.86211
200 14.1518 14.1517 7.86211
82 9.43478 15.7238 9.43461
202 4.71533 7.8644 11.0087
203 7.86405 7.8644 11.0087
78 3.14459 15.7238 9.43461
101 2.1023e-05 15.7242 12.5794
206 15.7228 9.43548 9.43549
207 1.57119 11.0083 11.0084
208 3.14059 9.43892 9.43926
209 4.71693 11.0086 11.0082
210 6.28969 9.43912 9.43872
211 7.86244 11.0086 11.0082
212 9.43878 9.43892 9.43926
213 11.0082 11.0083 11.0084
214 12.5808 9.43548 9.43549
215 14.1518 11.0074 11.0074
216 2.68743e-06 12.5794 9.43436
217 1.57236 14.1519 11.007
218 3.14485 12.5801 9.43456
219 4.71719 14.1522 11.0072
220 6.28969 12.5805 9.43476
221 7.86219 14.1522 11.0072
222 9.43452 12.5801 9.43456
223 11.007 14.1519 11.007
224 12.5794 12.5794 9.43436
225 14.1518 14.1517 11.0069
248 11.007 14.1518 14.1518
227 4.71649 7.86289 14.1529
228 7.86288 7.86289 14.1529
247 9.43475 12.5797 12.5796
246 7.86211 14.1518 14.1517
231 15.7241 9.4344 12.5794
232 1.57226 11.0071 14.1521
233 3.1442 9.43524 12.5806
234 4.71726 11.0072 14.1522
235 6.28969 9.43466 12.5804
236 7.86211 11.0072 14.1522
237 9.43517 9.43524 12.5806
238 11.0071 11.0071 14.1521
239 12.5794 9.4344 12.5794
240 14.1518 11.0069 14.1517
241 15.7239 12.5796 12.5796
242 1.5724 14.1518 14.1518
243 3.14462 12.5797 12.5796
244 4.71726 14.1518 14.1517
245 6.28969 12.5799 12.5799
80 6.28969 15.7241 9.43449
189 11.0162 7.86249 7.86211
186 1.56321 7.86249 7.86211
76 4.74799e-05 15.7242 9.43453
230 14.1518 7.86212 14.1517
84 12.5793 15.7242 9.43453
103 3.1448 15.7241 12.5794
107 9.43457 15.7241 12.5794
105 6.28969 15.7242 12.5795
