ITEM: TIMESTEP
58
ITEM: NUMBER OF ATOMS
687
ITEM: BOX BOUNDS pp pp pp
0.0000000000000000e+00 2.2013900999999997e+01
0.0000000000000000e+00 2.2013900999999997e+01
0.0000000000000000e+00 2.2013900999999997e+01
ITEM: ATOMS id type x y z
126 1 18.8705 9.43395 6.28822
2 1 1.57181 1.57202 1.572
125 1 15.7288 9.43281 6.28541
4 1 4.71669 1.57213 1.57197
111 1 15.7257 3.14262 6.28837
6 1 7.86188 1.5722 1.57195
110 1 12.5799 3.14307 6.28854
8 1 11.0072 1.5722 1.57195
109 1 9.43453 3.14313 6.2882
10 1 14.1524 1.57213 1.57197
124 1 12.5843 9.431 6.27853
12 1 17.2972 1.57202 1.572
123 1 9.43453 9.43752 6.29318
14 1 20.4415 1.57198 1.57207
15 1 22.0135 3.14417 22.0139
16 1 1.57152 4.71624 1.57165
17 1 3.14419 3.14418 3.49161e-08
18 1 4.71658 4.71632 1.57163
19 1 6.28927 3.14425 1.27198e-06
20 1 7.86183 4.71634 1.57166
21 1 9.43453 3.14428 9.27211e-07
22 1 11.0072 4.71634 1.57166
23 1 12.5798 3.14425 1.27156e-06
24 1 14.1525 4.71632 1.57163
25 1 15.7249 3.14418 3.49497e-08
26 1 17.2975 4.71624 1.57165
27 1 18.8695 3.14417 22.0139
28 1 20.4415 4.7165 1.57193
29 1 22.0135 6.28904 22.0139
30 1 1.57149 7.86147 1.57165
31 1 3.14396 6.28882 1.5685e-06
32 1 4.71634 7.86132 1.57105
33 1 6.28935 6.289 1.77339e-06
34 1 7.86206 7.86158 1.57162
35 1 9.43453 6.28893 1.49908e-06
36 1 11.007 7.86158 1.57162
37 1 12.5797 6.289 1.77333e-06
38 1 14.1527 7.86132 1.57105
39 1 15.7251 6.28882 1.56973e-06
40 1 17.2976 7.86147 1.57165
41 1 18.8695 6.28904 22.0139
42 1 20.4415 7.86161 1.57191
43 1 22.0134 9.43426 9.34994e-07
44 1 3.14384 9.43418 1.62299e-06
45 1 6.28928 9.43432 1.84584e-06
46 1 9.43453 9.43435 2.37868e-06
47 1 12.5798 9.43432 1.84561e-06
48 1 15.7252 9.43419 1.6233e-06
49 1 18.8695 9.43426 9.35047e-07
122 1 6.2848 9.431 6.27853
51 1 1.57161 1.57164 4.71651
121 1 3.14026 9.43281 6.28541
53 1 4.71651 1.57175 4.71637
120 1 22.0124 9.43395 6.28822
55 1 7.86179 1.57187 4.71623
119 1 18.8707 6.28794 6.28816
57 1 11.0073 1.57187 4.71623
118 1 15.7298 6.28393 6.28417
59 1 14.1525 1.57175 4.71637
117 1 12.5809 6.2859 6.2861
61 1 17.2974 1.57164 4.71651
116 1 9.43453 6.28647 6.28601
63 1 20.4415 1.57185 4.71678
64 1 22.0133 3.1438 3.14396
65 1 1.57042 4.71499 4.71519
66 1 3.14386 3.14372 3.14376
67 1 4.71578 4.71495 4.71512
68 1 6.2891 3.14388 3.14379
69 1 7.86158 4.7153 4.71528
70 1 9.43453 3.14394 3.14377
71 1 11.0075 4.7153 4.71528
72 1 12.58 3.14388 3.14379
73 1 14.1533 4.71495 4.71512
74 1 15.7252 3.14372 3.14376
75 1 17.2986 4.71499 4.71519
76 1 18.8697 3.1438 3.14396
77 1 20.4415 4.71593 4.71613
78 1 22.0132 6.28874 3.14378
79 1 1.5704 7.86081 4.71517
80 1 3.1431 6.28793 3.14251
81 1 4.71407 7.85905 4.71175
82 1 6.28908 6.28836 3.143
83 1 7.86242 7.86064 4.71477
84 1 9.43453 6.28824 3.14295
85 1 11.0066 7.86064 4.71477
86 1 12.58 6.28836 3.143
87 1 14.155 7.85905 4.71175
88 1 15.726 6.28793 3.14251
89 1 17.2987 7.86081 4.71518
90 1 18.8698 6.28874 3.14378
91 1 20.4415 7.86133 4.71606
92 1 22.0132 9.43416 3.14378
93 1 3.1431 9.4339 3.14273
94 1 6.28868 9.43395 3.14184
95 1 9.43453 9.4344 3.14453
96 1 12.5804 9.43395 3.14184
97 1 15.726 9.43391 3.14273
98 1 18.8698 9.43416 3.14378
108 1 6.28915 3.14307 6.28854
115 1 6.28818 6.2859 6.2861
114 1 3.13923 6.28393 6.28417
107 1 3.14339 3.14262 6.28837
113 1 22.0123 6.28794 6.28816
112 1 18.8697 3.1437 6.28902
106 1 22.0133 3.1437 6.28902
396 1 11.0082 11.0065 4.71538
104 1 15.7249 22.0138 6.28917
395 1 7.86086 11.0065 4.71538
100 1 3.14411 22.0138 6.28917
346 1 7.86197 11.0069 1.57166
105 1 18.8694 22.0138 6.28933
347 1 11.0071 11.0069 1.57166
99 1 22.0135 22.0138 6.28933
127 1 1.57168 1.57158 7.86171
128 1 4.71664 1.57121 7.86169
129 1 7.86212 1.57185 7.86171
130 1 11.0069 1.57185 7.86171
131 1 14.1524 1.57121 7.86169
132 1 17.2974 1.57158 7.86171
133 1 20.4415 1.57178 7.86181
134 1 1.57074 4.71513 7.86115
135 1 4.71487 4.71222 7.85983
136 1 7.86268 4.7152 7.86071
137 1 11.0064 4.7152 7.86071
138 1 14.1542 4.71222 7.85983
139 1 17.2983 4.71513 7.86115
140 1 20.4415 4.71589 7.86154
141 1 1.56759 7.85929 7.85955
142 1 4.70141 7.84597 7.84613
143 1 7.86431 7.8583 7.8574
144 1 11.0047 7.8583 7.85741
145 1 14.1677 7.84597 7.84613
146 1 17.3015 7.85929 7.85955
147 1 20.4415 7.86098 7.86121
687 3 9.43453 11.2795 11.007
149 1 1.57167 1.57156 11.007
150 1 3.14411 22.0137 9.43436
151 1 4.7165 1.5712 11.007
245 1 18.8714 9.4337 12.5799
153 1 7.86228 1.57221 11.007
244 1 15.7358 9.43008 12.5832
155 1 11.0068 1.57221 11.007
243 1 12.6251 9.38647 12.627
157 1 14.1526 1.5712 11.007
158 1 15.7249 22.0137 9.43436
159 1 17.2974 1.57156 11.007
242 1 9.43453 9.45416 12.5667
161 1 20.4415 1.57175 11.007
162 1 22.0133 3.14364 9.43429
163 1 1.5708 4.71515 11.007
164 1 3.14351 3.14277 9.43412
165 1 4.71478 4.71294 11.007
166 1 6.28942 3.14258 9.4344
167 1 7.86276 4.71769 11.007
168 1 9.43453 3.14525 9.43437
169 1 11.0063 4.71769 11.007
170 1 12.5796 3.14258 9.4344
171 1 14.1543 4.71294 11.007
172 1 15.7256 3.14277 9.43412
173 1 17.2983 4.71515 11.007
174 1 18.8696 3.14365 9.43429
175 1 20.4415 4.71584 11.007
176 1 22.0126 6.28792 9.43406
177 1 1.5683 7.85931 11.007
178 1 3.14093 6.28531 9.4331
179 1 4.70622 7.85251 11.007
180 1 6.28659 6.27979 9.43196
181 1 7.85117 7.86666 11.007
182 1 9.43453 6.29547 9.4357
183 1 11.0179 7.86666 11.007
184 1 12.5825 6.27979 9.43196
185 1 14.1628 7.85251 11.007
186 1 15.7281 6.28531 9.4331
187 1 17.3008 7.85931 11.007
188 1 18.8704 6.28792 9.43406
189 1 20.4415 7.86077 11.007
190 1 22.0116 9.4337 9.43396
191 1 3.13324 9.43008 9.43068
192 1 6.24396 9.38648 9.38687
193 1 9.43453 9.45416 9.4472
194 1 12.6251 9.38648 9.38687
195 1 15.7358 9.43008 9.43068
196 1 18.8714 9.4337 9.43396
241 1 6.24396 9.38648 12.627
198 1 1.57168 1.57158 14.1522
199 1 3.14411 22.0137 12.5796
200 1 4.71664 1.57121 14.1522
240 1 3.13324 9.43008 12.5832
202 1 7.86212 1.57185 14.1522
239 1 22.0116 9.4337 12.5799
204 1 11.0069 1.57185 14.1522
238 1 20.4415 7.86098 14.1527
206 1 14.1524 1.57121 14.1522
207 1 15.7249 22.0137 12.5796
208 1 17.2974 1.57158 14.1522
237 1 18.8704 6.28792 12.5798
210 1 20.4415 1.57178 14.1521
211 1 22.0133 3.14365 12.5796
212 1 1.57074 4.71513 14.1528
213 1 3.14351 3.14277 12.5798
214 1 4.71487 4.71222 14.1541
215 1 6.28942 3.14258 12.5795
216 1 7.86268 4.7152 14.1532
217 1 9.43453 3.14525 12.5795
218 1 11.0064 4.7152 14.1532
219 1 12.5796 3.14258 12.5795
220 1 14.1542 4.71222 14.1541
221 1 15.7256 3.14277 12.5798
222 1 17.2983 4.71513 14.1528
223 1 18.8696 3.14365 12.5796
224 1 20.4415 4.71589 14.1524
225 1 22.0126 6.28792 12.5798
226 1 1.56759 7.85929 14.1544
227 1 3.14093 6.28531 12.5808
228 1 4.70141 7.84597 14.1678
229 1 6.28659 6.27979 12.5819
230 1 7.86431 7.8583 14.1565
231 1 9.43453 6.29547 12.5782
232 1 11.0047 7.8583 14.1565
233 1 12.5825 6.27979 12.5819
234 1 14.1677 7.84597 14.1678
235 1 15.7281 6.28531 12.5808
236 1 17.3015 7.85929 14.1544
197 1 22.0135 22.0137 12.5795
160 1 18.8694 22.0137 9.4344
209 1 18.8694 22.0137 12.5795
148 1 22.0135 22.0137 9.4344
205 1 12.5796 22.0138 12.5794
152 1 6.2895 22.0138 9.43455
156 1 12.5796 22.0138 9.43455
201 1 6.2895 22.0138 12.5794
332 1 14.1527 7.86132 20.4429
247 1 1.57161 1.57164 17.2974
343 1 18.8698 9.43416 18.8701
249 1 4.71652 1.57175 17.2975
342 1 15.726 9.43391 18.8712
251 1 7.86179 1.57187 17.2977
331 1 12.58 6.28836 18.8709
253 1 11.0073 1.57187 17.2977
341 1 12.5804 9.43395 18.8721
255 1 14.1525 1.57175 17.2975
340 1 9.43453 9.4344 18.8694
257 1 17.2974 1.57164 17.2974
330 1 11.007 7.86158 20.4423
259 1 20.4415 1.57185 17.2971
260 1 22.0133 3.1437 15.7249
261 1 1.57042 4.71499 17.2987
262 1 3.14339 3.14262 15.7255
263 1 4.71578 4.71495 17.2988
264 1 6.28915 3.14307 15.7254
265 1 7.86158 4.7153 17.2986
266 1 9.43453 3.14313 15.7257
267 1 11.0075 4.7153 17.2986
268 1 12.5799 3.14307 15.7254
269 1 14.1533 4.71495 17.2988
270 1 15.7257 3.14262 15.7255
271 1 17.2986 4.71499 17.2987
272 1 18.8697 3.1437 15.7249
273 1 20.4415 4.71593 17.2978
274 1 22.0123 6.28794 15.7257
275 1 1.5704 7.86081 17.2987
276 1 3.13923 6.28393 15.7297
277 1 4.71407 7.85905 17.3022
278 1 6.28818 6.2859 15.7278
279 1 7.86242 7.86064 17.2991
280 1 9.43453 6.28647 15.7279
281 1 11.0066 7.86064 17.2991
282 1 12.5809 6.2859 15.7278
283 1 14.155 7.85905 17.3022
284 1 15.7298 6.28393 15.7297
285 1 17.2987 7.86081 17.2987
286 1 18.8707 6.28794 15.7257
287 1 20.4415 7.86133 17.2978
288 1 22.0124 9.43395 15.7257
289 1 3.14026 9.43281 15.7285
290 1 6.2848 9.431 15.7354
291 1 9.43453 9.43752 15.7207
292 1 12.5843 9.431 15.7354
293 1 15.7288 9.43281 15.7285
294 1 18.8705 9.43395 15.7257
339 1 6.28868 9.43395 18.8721
296 1 1.57181 1.57202 20.4419
338 1 3.1431 9.4339 18.8712
298 1 4.71669 1.57213 20.4419
337 1 22.0132 9.43416 18.8701
300 1 7.86188 1.5722 20.442
336 1 20.4415 7.86161 20.442
302 1 11.0072 1.5722 20.442
335 1 18.8698 6.28874 18.8701
304 1 14.1524 1.57213 20.4419
334 1 17.2976 7.86147 20.4423
306 1 17.2972 1.57202 20.4419
333 1 15.726 6.28793 18.8714
308 1 20.4415 1.57198 20.4418
309 1 22.0133 3.1438 18.8699
310 1 1.57152 4.71624 20.4422
311 1 3.14386 3.14372 18.8701
312 1 4.71658 4.71632 20.4423
313 1 6.2891 3.14388 18.8701
314 1 7.86183 4.71634 20.4422
315 1 9.43453 3.14393 18.8701
316 1 11.0072 4.71634 20.4422
317 1 12.58 3.14388 18.8701
318 1 14.1525 4.71632 20.4423
319 1 15.7252 3.14372 18.8701
320 1 17.2975 4.71624 20.4422
321 1 18.8697 3.1438 18.8699
322 1 20.4415 4.7165 20.442
323 1 22.0132 6.28874 18.8701
324 1 1.57149 7.86147 20.4423
325 1 3.1431 6.28793 18.8714
326 1 4.71634 7.86132 20.4429
327 1 6.28908 6.28836 18.8709
328 1 7.86206 7.86158 20.4423
329 1 9.43453 6.28824 18.871
591 1 7.86086 11.0065 17.2985
248 1 3.14412 22.0138 15.7247
592 1 11.0082 11.0065 17.2985
256 1 15.7249 22.0138 15.7247
640 1 7.86197 11.0069 20.4422
258 1 18.8694 22.0138 15.7246
641 1 11.0071 11.0069 20.4422
246 1 22.0135 22.0138 15.7246
103 1 12.5798 0.000281315 6.28904
462 1 18.8696 18.8699 6.28922
102 1 9.43453 0.000375505 6.28885
9 1 12.5798 0.000268714 1.55281e-06
461 1 15.7256 18.8709 6.28867
101 1 6.28925 0.000281504 6.28904
60 1 15.725 0.000178655 3.14416
351 1 22.0134 12.5796 3.05615e-06
352 1 1.57144 14.1524 1.57168
353 1 3.14379 12.5797 2.44394e-06
354 1 4.7162 14.1526 1.57109
355 1 6.28918 12.5796 1.484e-06
356 1 7.86182 14.1527 1.57105
62 1 18.8695 22.0139 3.14437
358 1 11.0072 14.1527 1.57105
359 1 12.5799 12.5796 1.48347e-06
360 1 14.1529 14.1526 1.57109
361 1 15.7253 12.5797 2.44417e-06
362 1 17.2976 14.1524 1.57168
363 1 18.8695 12.5796 3.05629e-06
364 1 20.4415 14.1523 1.57193
365 1 22.0134 15.7248 2.3275e-06
366 1 1.57143 17.2977 1.57171
367 1 3.14382 15.7251 3.5099e-06
368 1 4.71619 17.298 1.5714
369 1 6.28905 15.7252 1.51285e-06
370 1 7.86167 17.2981 1.57138
371 1 9.43453 15.7254 9.12304e-08
372 1 11.0074 17.2981 1.57138
350 1 20.4415 11.0069 1.57192
374 1 14.1529 17.298 1.5714
375 1 15.7252 15.7251 3.51014e-06
376 1 17.2976 17.2977 1.57171
377 1 18.8695 15.7248 2.32802e-06
378 1 20.4415 17.2974 1.57198
379 1 22.0134 18.8698 4.49813e-07
380 1 1.57171 20.4421 1.57199
381 1 3.14395 18.87 2.61551e-06
382 1 4.71656 20.4422 1.57192
383 1 6.28909 18.8702 1.96756e-06
384 1 7.86182 20.4423 1.57188
385 1 9.43453 18.8702 8.63938e-07
386 1 11.0072 20.4423 1.57188
387 1 12.58 18.8702 1.96751e-06
388 1 14.1525 20.4422 1.57192
389 1 15.7251 18.87 2.61587e-06
390 1 17.2973 20.4421 1.57199
391 1 18.8695 18.8698 4.50023e-07
392 1 20.4415 20.442 1.57207
393 1 1.57044 11.0069 4.71533
460 1 12.5805 18.8718 6.28809
52 1 3.14406 0.000179529 3.14416
13 1 18.8694 7.61224e-05 22.0139
459 1 9.43453 18.8719 6.28774
398 1 17.2986 11.0069 4.71533
458 1 6.28856 18.8718 6.28809
400 1 22.0132 12.5797 3.14381
401 1 1.57045 14.153 4.71533
402 1 3.14308 12.5799 3.14277
403 1 4.71419 14.1544 4.71238
404 1 6.2886 12.5798 3.14191
405 1 7.86105 14.1548 4.71166
406 1 9.43453 12.5797 3.14272
407 1 11.008 14.1548 4.71166
408 1 12.5805 12.5798 3.14191
409 1 14.1549 14.1544 4.71238
410 1 15.726 12.5799 3.14277
411 1 17.2986 14.153 4.71533
412 1 18.8698 12.5797 3.14381
413 1 20.4415 14.1525 4.71615
414 1 22.0132 15.7251 3.14387
415 1 1.57039 17.2987 4.71542
416 1 3.14302 15.7259 3.1427
417 1 4.71479 17.2998 4.71444
418 1 6.28834 15.7263 3.14208
419 1 7.86119 17.2996 4.71451
420 1 9.43453 15.7265 3.14203
421 1 11.0079 17.2996 4.71451
422 1 12.5807 15.7263 3.14208
423 1 14.1543 17.2998 4.71444
424 1 15.726 15.7259 3.1427
425 1 17.2987 17.2987 4.71542
426 1 18.8698 15.7251 3.14387
427 1 20.4415 17.2978 4.71632
428 1 22.0132 18.8701 3.14403
429 1 1.57159 20.4422 4.71659
430 1 3.14353 18.8705 3.14362
431 1 4.71629 20.4427 4.71623
432 1 6.28884 18.8707 3.14351
433 1 7.8617 20.4428 4.71606
434 1 9.43453 18.8707 3.14346
435 1 11.0074 20.4428 4.71606
436 1 12.5802 18.8707 3.14351
437 1 14.1528 20.4427 4.71623
438 1 15.7255 18.8705 3.14362
439 1 17.2975 20.4422 4.71659
440 1 18.8697 18.8701 3.14403
441 1 20.4415 20.4419 4.71686
442 1 22.0125 12.5799 6.28828
443 1 3.14055 12.581 6.28563
444 1 6.28543 12.5816 6.27987
445 1 9.43453 12.5791 6.28198
446 1 12.5836 12.5816 6.27987
447 1 15.7285 12.581 6.28563
448 1 18.8705 12.5799 6.28828
449 1 22.0125 15.7256 6.28848
450 1 3.13971 15.729 6.2851
451 1 6.28508 15.7307 6.28346
452 1 9.43453 15.7297 6.28391
453 1 12.584 15.7307 6.28346
454 1 15.7293 15.729 6.2851
455 1 18.8705 15.7256 6.28847
456 1 22.0134 18.8699 6.28922
457 1 3.14348 18.8709 6.28867
1 1 22.0136 7.69161e-05 22.0139
5 1 6.28927 0.000269687 1.55294e-06
399 1 20.4415 11.0069 4.71607
397 1 14.1553 11.0069 4.71273
394 1 4.7138 11.0069 4.71273
348 1 14.1529 11.0069 1.57114
345 1 4.71612 11.0069 1.57114
7 1 9.43453 0.000302938 1.5222e-06
344 1 1.57145 11.0069 1.5717
11 1 15.7248 0.000181221 7.4787e-07
3 1 3.14425 0.000182681 7.47352e-07
50 1 22.0135 22.0139 3.14437
349 1 17.2976 11.0069 1.5717
54 1 6.28916 0.000298782 3.14406
56 1 9.43453 0.000343204 3.14402
58 1 12.5799 0.000298038 3.14406
588 1 20.4415 20.4418 14.152
587 1 18.8695 18.8698 12.5795
465 1 7.84723 11.0055 7.86691
466 1 11.0218 11.0055 7.86691
586 1 17.2973 20.442 14.1521
585 1 15.7253 18.8704 12.5796
584 1 14.1524 20.4424 14.1521
470 1 1.56856 14.1539 7.86013
471 1 4.70463 14.1637 7.84978
472 1 7.85488 14.1657 7.84566
473 1 11.0142 14.1657 7.84566
474 1 14.1644 14.1637 7.84978
475 1 17.3005 14.1539 7.86012
476 1 20.4415 14.1526 7.86143
477 1 1.57113 17.2981 7.86153
478 1 4.7156 17.3003 7.86078
479 1 7.86175 17.3009 7.85972
480 1 11.0073 17.3009 7.85972
481 1 14.1535 17.3003 7.86078
482 1 17.2979 17.2981 7.86153
483 1 20.4415 17.2976 7.86176
484 1 1.57173 20.442 7.8618
485 1 4.71668 20.4424 7.86183
486 1 7.86203 20.4426 7.86167
487 1 11.007 20.4426 7.86167
488 1 14.1524 20.4424 7.86183
489 1 17.2973 20.442 7.8618
490 1 20.4415 20.4418 7.86188
583 1 12.5795 18.8704 12.5792
492 1 4.69573 11.0037 11.007
493 1 7.50132 10.9571 11.007
494 1 11.3678 10.9571 11.007
495 1 14.1733 11.0037 11.007
582 1 11.007 20.4426 14.1522
581 1 9.43453 18.8691 12.5792
498 1 22.012 12.58 9.43404
499 1 1.56976 14.1536 11.007
500 1 3.13625 12.5821 9.43138
501 1 4.71072 14.156 11.007
502 1 6.2578 12.6111 9.39781
503 1 7.85666 14.1273 11.007
504 1 9.43453 12.6144 9.37904
505 1 11.0124 14.1273 11.007
506 1 12.6113 12.6111 9.39781
507 1 14.1583 14.156 11.007
508 1 15.7328 12.5821 9.43138
509 1 17.2993 14.1536 11.007
510 1 18.8709 12.58 9.43404
511 1 20.4415 14.1527 11.007
512 1 22.013 15.7254 9.43426
513 1 1.57127 17.298 11.007
514 1 3.14251 15.7269 9.43378
515 1 4.71555 17.2992 11.007
516 1 6.28925 15.729 9.43414
517 1 7.86233 17.2937 11.007
518 1 9.43453 15.7235 9.43478
519 1 11.0067 17.2937 11.007
520 1 12.5798 15.729 9.43414
521 1 14.1535 17.2992 11.007
522 1 15.7266 15.7269 9.43377
523 1 17.2978 17.298 11.007
524 1 18.87 15.7254 9.43426
525 1 20.4415 17.2976 11.007
526 1 22.0134 18.8698 9.43438
527 1 1.57175 20.4419 11.007
528 1 3.14377 18.8704 9.43427
529 1 4.71657 20.4421 11.007
530 1 6.28954 18.8704 9.43468
531 1 7.86215 20.4413 11.007
532 1 9.43453 18.8691 9.4347
533 1 11.0069 20.4413 11.007
534 1 12.5795 18.8704 9.43468
535 1 14.1525 20.4421 11.007
536 1 15.7253 18.8704 9.43427
537 1 17.2973 20.4419 11.007
538 1 18.8695 18.8698 9.43438
539 1 20.4415 20.4417 11.007
580 1 7.86203 20.4426 14.1522
579 1 6.28954 18.8704 12.5792
542 1 7.84723 11.0055 14.147
543 1 11.0218 11.0055 14.147
578 1 4.71669 20.4424 14.1521
577 1 3.14377 18.8704 12.5796
576 1 1.57174 20.442 14.1521
547 1 22.012 12.58 12.5799
548 1 1.56856 14.1539 14.1538
549 1 3.13625 12.5821 12.5825
550 1 4.70463 14.1637 14.1641
551 1 6.2578 12.6111 12.6161
552 1 7.85487 14.1657 14.1682
553 1 9.43453 12.6144 12.6349
554 1 11.0142 14.1657 14.1682
555 1 12.6113 12.6111 12.6161
556 1 14.1644 14.1637 14.1641
557 1 15.7328 12.5821 12.5825
558 1 17.3005 14.1539 14.1538
559 1 18.8709 12.58 12.5799
560 1 20.4415 14.1526 14.1525
561 1 22.013 15.7254 12.5797
562 1 1.57113 17.2981 14.1524
563 1 3.14251 15.7269 12.5801
564 1 4.7156 17.3003 14.1531
565 1 6.28925 15.729 12.5798
566 1 7.86175 17.3009 14.1542
567 1 9.43453 15.7235 12.5791
568 1 11.0073 17.3009 14.1542
569 1 12.5798 15.729 12.5798
570 1 14.1535 17.3003 14.1531
571 1 15.7266 15.7269 12.5801
572 1 17.2979 17.2981 14.1524
573 1 18.87 15.7254 12.5797
574 1 20.4415 17.2976 14.1521
575 1 22.0134 18.8698 12.5795
544 1 14.1635 11.0068 14.1604
541 1 4.70558 11.0068 14.1604
154 1 9.43453 8.50536e-05 9.43454
467 1 14.1635 11.0068 7.85348
203 1 9.43453 8.43549e-05 12.5794
464 1 4.70558 11.0068 7.85348
463 1 1.56831 11.007 7.85991
546 1 20.4415 11.0069 14.1527
545 1 17.3008 11.007 14.154
468 1 17.3008 11.007 7.85991
469 1 20.4415 11.0069 7.8612
540 1 1.56831 11.007 14.154
497 1 20.4415 11.0069 11.007
496 1 17.3019 11.0068 11.007
491 1 1.56721 11.0068 11.007
589 1 1.57044 11.0069 17.2986
686 1 20.4415 20.442 20.4418
305 1 15.725 0.000179437 18.8697
297 1 3.14406 0.000180311 18.8697
685 1 18.8697 18.8701 18.8699
594 1 17.2986 11.0069 17.2986
684 1 17.2973 20.4421 20.4419
596 1 22.0125 12.5799 15.7256
597 1 1.57045 14.153 17.2986
598 1 3.14055 12.581 15.7283
599 1 4.71419 14.1544 17.3015
600 1 6.28543 12.5816 15.734
601 1 7.86105 14.1548 17.3022
602 1 9.43453 12.5791 15.7319
603 1 11.008 14.1548 17.3022
604 1 12.5836 12.5816 15.734
605 1 14.1549 14.1544 17.3015
606 1 15.7285 12.581 15.7283
607 1 17.2986 14.153 17.2986
608 1 18.8705 12.5799 15.7256
609 1 20.4415 14.1525 17.2978
610 1 22.0125 15.7256 15.7254
611 1 1.57039 17.2987 17.2985
612 1 3.13971 15.729 15.7288
613 1 4.71479 17.2998 17.2995
614 1 6.28508 15.7307 15.7304
615 1 7.86119 17.2996 17.2994
616 1 9.43453 15.7297 15.73
617 1 11.0079 17.2996 17.2994
618 1 12.584 15.7307 15.7304
619 1 14.1543 17.2998 17.2995
620 1 15.7293 15.729 15.7288
621 1 17.2987 17.2987 17.2985
622 1 18.8705 15.7256 15.7254
623 1 20.4415 17.2978 17.2976
624 1 22.0134 18.8699 15.7247
625 1 1.57159 20.4422 17.2973
626 1 3.14348 18.8709 15.7252
627 1 4.71629 20.4427 17.2977
628 1 6.28856 18.8718 15.7258
629 1 7.8617 20.4428 17.2978
630 1 9.43453 18.8719 15.7262
631 1 11.0074 20.4428 17.2978
632 1 12.5805 18.8718 15.7258
633 1 14.1528 20.4427 17.2977
634 1 15.7256 18.8709 15.7252
635 1 17.2975 20.4422 17.2973
636 1 18.8696 18.8699 15.7247
637 1 20.4415 20.4419 17.297
254 1 12.5798 0.00028129 15.7249
683 1 15.7255 18.8705 18.8703
252 1 9.43453 0.000375479 15.7251
590 1 4.7138 11.0069 17.3012
682 1 14.1525 20.4422 20.442
250 1 6.28925 0.00028148 15.7249
681 1 12.5802 18.8707 18.8704
645 1 22.0132 12.5797 18.8701
646 1 1.57144 14.1524 20.4422
647 1 3.14308 12.5799 18.8711
648 1 4.7162 14.1526 20.4428
649 1 6.2886 12.5798 18.872
650 1 7.86182 14.1527 20.4429
651 1 9.43453 12.5797 18.8712
652 1 11.0072 14.1527 20.4429
653 1 12.5805 12.5798 18.872
654 1 14.1529 14.1526 20.4428
655 1 15.726 12.5799 18.8711
656 1 17.2976 14.1524 20.4422
657 1 18.8698 12.5797 18.8701
658 1 20.4415 14.1523 20.442
659 1 22.0132 15.7251 18.87
660 1 1.57143 17.2977 20.4422
661 1 3.14302 15.7259 18.8712
662 1 4.71619 17.298 20.4425
663 1 6.28834 15.7263 18.8718
664 1 7.86167 17.2981 20.4425
665 1 9.43453 15.7265 18.8719
666 1 11.0074 17.2981 20.4425
667 1 12.5807 15.7263 18.8718
668 1 14.1529 17.298 20.4425
669 1 15.726 15.7259 18.8712
670 1 17.2976 17.2977 20.4422
671 1 18.8698 15.7251 18.87
672 1 20.4415 17.2974 20.4419
673 1 22.0132 18.8701 18.8699
674 1 1.57171 20.4421 20.4419
675 1 3.14353 18.8705 18.8703
676 1 4.71656 20.4422 20.442
677 1 6.28884 18.8707 18.8704
678 1 7.86182 20.4423 20.442
679 1 9.43453 18.8707 18.8704
680 1 11.0072 20.4423 20.442
593 1 14.1553 11.0069 17.3012
642 1 14.1529 11.0069 20.4428
639 1 4.71612 11.0069 20.4428
595 1 20.4415 11.0069 17.2978
307 1 18.8695 22.0139 18.8695
303 1 12.5799 0.000299369 18.8698
644 1 20.4415 11.0069 20.442
643 1 17.2976 11.0069 20.4422
301 1 9.43453 0.000344375 18.8699
295 1 22.0135 22.0139 18.8695
638 1 1.57145 11.0069 20.4422
299 1 6.28916 0.000300115 18.8698
357 1 9.43453 12.5796 1.27939e-06
373 1 12.58 15.7252 1.51277e-06
