ITEM: TIMESTEP
58
ITEM: NUMBER OF ATOMS
687
ITEM: BOX BOUNDS pp pp pp
0.0000000000000000e+00 2.2013900999999997e+01
0.0000000000000000e+00 2.2013900999999997e+01
0.0000000000000000e+00 2.2013900999999997e+01
ITEM: ATOMS id type x y z
126 1 18.8705 9.4339 6.28825
2 1 1.57187 1.57217 1.572
125 1 15.7289 9.4327 6.28564
4 1 4.71678 1.57246 1.572
111 1 15.7257 3.14252 6.28826
6 1 7.86192 1.57262 1.57199
110 1 12.5797 3.14347 6.2887
8 1 11.0071 1.57262 1.57199
109 1 9.43453 3.14373 6.28845
10 1 14.1523 1.57246 1.572
124 1 12.5854 9.42968 6.27823
12 1 17.2972 1.57217 1.572
123 1 9.43453 9.43757 6.2936
14 1 20.4415 1.57202 1.57207
15 1 22.0135 3.14421 22.0139
16 1 1.57159 4.71627 1.57164
17 1 3.14434 3.1444 4.11852e-08
18 1 4.7168 4.71658 1.57175
19 1 6.28939 3.14461 1.60362e-06
20 1 7.86194 4.71673 1.57182
21 1 9.43453 3.14469 1.16219e-06
22 1 11.0071 4.71673 1.57182
23 1 12.5797 3.14461 1.60386e-06
24 1 14.1523 4.71658 1.57175
25 1 15.7247 3.1444 4.1154e-08
26 1 17.2975 4.71627 1.57164
27 1 18.8695 3.14421 22.0139
28 1 20.4415 4.71649 1.57191
29 1 22.0135 6.28903 22.0139
30 1 1.57154 7.86145 1.57165
31 1 3.14407 6.28886 1.96974e-06
32 1 4.71646 7.86137 1.57109
33 1 6.28952 6.28922 2.23417e-06
34 1 7.86215 7.86179 1.57184
35 1 9.43453 6.28924 1.91543e-06
36 1 11.0069 7.86179 1.57184
37 1 12.5795 6.28922 2.23451e-06
38 1 14.1526 7.86137 1.57109
39 1 15.725 6.28886 1.9722e-06
40 1 17.2975 7.86145 1.57165
41 1 18.8695 6.28903 22.0139
42 1 20.4415 7.86158 1.57189
43 1 22.0135 9.43423 1.18321e-06
44 1 3.14389 9.43415 2.04217e-06
45 1 6.28939 9.43439 2.29012e-06
46 1 9.43453 9.43446 2.98935e-06
47 1 12.5797 9.43439 2.28951e-06
48 1 15.7252 9.43415 2.04229e-06
49 1 18.8695 9.43423 1.18364e-06
122 1 6.28363 9.42968 6.27822
51 1 1.57164 1.5716 4.71647
121 1 3.14017 9.4327 6.28564
53 1 4.71661 1.57207 4.71642
120 1 22.0124 9.4339 6.28825
55 1 7.86184 1.57238 4.71633
119 1 18.8707 6.28781 6.28807
57 1 11.0072 1.57238 4.71633
118 1 15.7298 6.28388 6.28418
59 1 14.1524 1.57207 4.71642
117 1 12.5803 6.28645 6.28682
61 1 17.2974 1.5716 4.71647
116 1 9.43453 6.28731 6.28683
63 1 20.4415 1.57175 4.71673
64 1 22.0133 3.14379 3.14393
65 1 1.57051 4.71494 4.71514
66 1 3.14403 3.14392 3.14382
67 1 4.71612 4.71527 4.71536
68 1 6.28927 3.1443 3.14394
69 1 7.86177 4.71589 4.71568
70 1 9.43453 3.14442 3.14395
71 1 11.0073 4.71589 4.71568
72 1 12.5798 3.14429 3.14395
73 1 14.1529 4.71527 4.71536
74 1 15.725 3.14392 3.14382
75 1 17.2986 4.71495 4.71514
76 1 18.8696 3.14379 3.14394
77 1 20.4415 4.71583 4.71604
78 1 22.0132 6.28869 3.14373
79 1 1.57038 7.86074 4.71516
80 1 3.14316 6.28791 3.14247
81 1 4.71389 7.85881 4.71167
82 1 6.28938 6.28874 3.14338
83 1 7.86262 7.86122 4.71564
84 1 9.43453 6.28874 3.14344
85 1 11.0064 7.86122 4.71564
86 1 12.5797 6.28874 3.14339
87 1 14.1552 7.85881 4.71167
88 1 15.7259 6.28791 3.14247
89 1 17.2987 7.86074 4.71516
90 1 18.8697 6.28869 3.14373
91 1 20.4415 7.86127 4.71602
92 1 22.0132 9.43412 3.14378
93 1 3.14314 9.43386 3.14277
94 1 6.2888 9.43403 3.14199
95 1 9.43453 9.43458 3.14482
96 1 12.5803 9.43403 3.14199
97 1 15.7259 9.43386 3.14277
98 1 18.8698 9.43412 3.14378
108 1 6.28931 3.14347 6.2887
115 1 6.28872 6.28645 6.28682
114 1 3.1393 6.28388 6.28418
107 1 3.14337 3.14252 6.28826
113 1 22.0123 6.28781 6.28807
112 1 18.8697 3.14351 6.28891
106 1 22.0133 3.14351 6.28891
396 1 11.008 11.0069 4.7154
104 1 15.725 22.0138 6.28918
395 1 7.86109 11.0069 4.7154
100 1 3.1441 22.0138 6.28918
346 1 7.86203 11.007 1.57175
105 1 18.8694 22.0136 6.28933
347 1 11.007 11.007 1.57175
99 1 22.0135 22.0136 6.28933
127 1 1.57164 1.57135 7.86166
128 1 4.71658 1.5711 7.86163
129 1 7.86212 1.57212 7.86172
130 1 11.0069 1.57212 7.86172
131 1 14.1525 1.5711 7.86163
132 1 17.2974 1.57135 7.86166
133 1 20.4415 1.57154 7.86176
134 1 1.57056 4.71483 7.86096
135 1 4.71457 4.7119 7.85959
136 1 7.86268 4.71552 7.86101
137 1 11.0064 4.71552 7.86101
138 1 14.1545 4.7119 7.85959
139 1 17.2985 4.71483 7.86096
140 1 20.4415 4.71562 7.8614
141 1 1.56758 7.85921 7.85963
142 1 4.70147 7.84601 7.84665
143 1 7.86488 7.85907 7.85968
144 1 11.0042 7.85908 7.85968
145 1 14.1676 7.84601 7.84665
146 1 17.3015 7.85921 7.85963
147 1 20.4415 7.86087 7.86119
687 3 9.43453 11.5552 11.0065
149 1 1.57162 1.57126 11.007
150 1 3.1441 22.0135 9.43436
151 1 4.71643 1.5709 11.007
245 1 18.8713 9.43365 12.5798
153 1 7.86224 1.57193 11.007
244 1 15.7351 9.43017 12.5823
155 1 11.0068 1.57193 11.007
243 1 12.6243 9.38638 12.6237
157 1 14.1526 1.57091 11.007
158 1 15.725 22.0135 9.43436
159 1 17.2974 1.57126 11.007
242 1 9.43453 9.45928 12.5635
161 1 20.4415 1.57147 11.007
162 1 22.0133 3.14334 9.43424
163 1 1.57057 4.71474 11.007
164 1 3.14335 3.14242 9.43404
165 1 4.71437 4.7122 11.007
166 1 6.28922 3.14217 9.43427
167 1 7.86258 4.71603 11.007
168 1 9.43453 3.14494 9.43425
169 1 11.0065 4.71603 11.007
170 1 12.5798 3.14217 9.43427
171 1 14.1547 4.7122 11.007
172 1 15.7257 3.14242 9.43404
173 1 17.2985 4.71475 11.007
174 1 18.8697 3.14334 9.43424
175 1 20.4415 4.71552 11.007
176 1 22.0124 6.28761 9.43396
177 1 1.56794 7.85886 11.007
178 1 3.14036 6.28477 9.4329
179 1 4.70558 7.8508 11.007
180 1 6.28548 6.2785 9.43152
181 1 7.85178 7.85788 11.007
182 1 9.43453 6.29418 9.43516
183 1 11.0173 7.85788 11.007
184 1 12.5836 6.2785 9.43151
185 1 14.1635 7.8508 11.007
186 1 15.7287 6.28477 9.4329
187 1 17.3011 7.85886 11.007
188 1 18.8706 6.28761 9.43396
189 1 20.4415 7.86056 11.007
190 1 22.0117 9.43365 9.43409
191 1 3.13398 9.43017 9.43157
192 1 6.24478 9.38638 9.39023
193 1 9.43453 9.45927 9.45038
194 1 12.6243 9.38638 9.39023
195 1 15.7351 9.43017 9.43157
196 1 18.8713 9.43365 9.43409
241 1 6.24478 9.38638 12.6237
198 1 1.57164 1.57135 14.1523
199 1 3.1441 22.0135 12.5796
200 1 4.71658 1.5711 14.1523
240 1 3.13398 9.43017 12.5823
202 1 7.86212 1.57212 14.1522
239 1 22.0117 9.43365 12.5798
204 1 11.0069 1.57212 14.1522
238 1 20.4415 7.86087 14.1527
206 1 14.1525 1.5711 14.1523
207 1 15.725 22.0135 12.5796
208 1 17.2974 1.57135 14.1523
237 1 18.8706 6.28761 12.58
210 1 20.4415 1.57154 14.1521
211 1 22.0133 3.14334 12.5797
212 1 1.57056 4.71483 14.1529
213 1 3.14335 3.14242 12.5799
214 1 4.71457 4.7119 14.1543
215 1 6.28922 3.14217 12.5796
216 1 7.86268 4.71552 14.1529
217 1 9.43453 3.14494 12.5797
218 1 11.0064 4.71552 14.1529
219 1 12.5798 3.14217 12.5796
220 1 14.1545 4.7119 14.1543
221 1 15.7257 3.14242 12.5799
222 1 17.2985 4.71483 14.1529
223 1 18.8697 3.14335 12.5797
224 1 20.4415 4.71562 14.1525
225 1 22.0124 6.28761 12.58
226 1 1.56758 7.85921 14.1543
227 1 3.14036 6.28477 12.581
228 1 4.70147 7.84601 14.1673
229 1 6.28548 6.2785 12.5824
230 1 7.86488 7.85907 14.1542
231 1 9.43453 6.29418 12.5787
232 1 11.0042 7.85907 14.1542
233 1 12.5836 6.2785 12.5824
234 1 14.1676 7.84601 14.1673
235 1 15.7287 6.28477 12.581
236 1 17.3015 7.85921 14.1543
197 1 22.0135 22.0134 12.5795
160 1 18.8694 22.0134 9.4344
209 1 18.8694 22.0134 12.5795
148 1 22.0135 22.0134 9.4344
205 1 12.5796 22.0137 12.5794
152 1 6.28945 22.0137 9.43455
156 1 12.5796 22.0137 9.43455
201 1 6.28945 22.0137 12.5794
332 1 14.1526 7.86137 20.4428
247 1 1.57164 1.57161 17.2974
343 1 18.8698 9.43412 18.8701
249 1 4.71662 1.57207 17.2975
342 1 15.7259 9.43386 18.8711
251 1 7.86184 1.57238 17.2976
331 1 12.5797 6.28874 18.8705
253 1 11.0072 1.57238 17.2976
341 1 12.5803 9.43403 18.8719
255 1 14.1524 1.57207 17.2975
340 1 9.43453 9.43458 18.8691
257 1 17.2974 1.5716 17.2974
330 1 11.0069 7.86179 20.4421
259 1 20.4415 1.57175 17.2972
260 1 22.0133 3.14351 15.725
261 1 1.57051 4.71495 17.2988
262 1 3.14337 3.14252 15.7256
263 1 4.71612 4.71527 17.2985
264 1 6.28931 3.14347 15.7252
265 1 7.86177 4.71589 17.2982
266 1 9.43453 3.14373 15.7255
267 1 11.0073 4.71589 17.2982
268 1 12.5797 3.14347 15.7252
269 1 14.1529 4.71527 17.2985
270 1 15.7257 3.14252 15.7256
271 1 17.2986 4.71495 17.2988
272 1 18.8697 3.14351 15.725
273 1 20.4415 4.71583 17.2979
274 1 22.0123 6.28781 15.7258
275 1 1.57039 7.86074 17.2987
276 1 3.13931 6.28388 15.7297
277 1 4.71389 7.85881 17.3022
278 1 6.28873 6.28645 15.7271
279 1 7.86262 7.86122 17.2983
280 1 9.43453 6.28731 15.7271
281 1 11.0064 7.86122 17.2983
282 1 12.5803 6.28645 15.7271
283 1 14.1552 7.85881 17.3022
284 1 15.7298 6.28388 15.7297
285 1 17.2987 7.86074 17.2987
286 1 18.8707 6.28781 15.7258
287 1 20.4415 7.86127 17.2979
288 1 22.0124 9.4339 15.7257
289 1 3.14017 9.4327 15.7283
290 1 6.28363 9.42968 15.7357
291 1 9.43453 9.43757 15.7203
292 1 12.5854 9.42968 15.7357
293 1 15.7289 9.4327 15.7283
294 1 18.8705 9.4339 15.7257
339 1 6.2888 9.43403 18.8719
296 1 1.57187 1.57217 20.4419
338 1 3.14314 9.43386 18.8711
298 1 4.71678 1.57246 20.4419
337 1 22.0132 9.43412 18.8701
300 1 7.86192 1.57262 20.4419
336 1 20.4415 7.86158 20.442
302 1 11.0071 1.57262 20.4419
335 1 18.8697 6.28869 18.8702
304 1 14.1523 1.57246 20.4419
334 1 17.2975 7.86145 20.4423
306 1 17.2972 1.57217 20.4419
333 1 15.7259 6.28791 18.8714
308 1 20.4415 1.57202 20.4418
309 1 22.0133 3.14379 18.87
310 1 1.57159 4.71627 20.4423
311 1 3.14403 3.14392 18.8701
312 1 4.7168 4.71658 20.4422
313 1 6.28927 3.14429 18.87
314 1 7.86194 4.71673 20.4421
315 1 9.43453 3.14442 18.8699
316 1 11.0071 4.71673 20.4421
317 1 12.5798 3.14429 18.87
318 1 14.1523 4.71658 20.4422
319 1 15.725 3.14393 18.8701
320 1 17.2975 4.71627 20.4423
321 1 18.8696 3.14379 18.87
322 1 20.4415 4.71649 20.442
323 1 22.0132 6.28869 18.8702
324 1 1.57154 7.86145 20.4423
325 1 3.14316 6.28791 18.8714
326 1 4.71646 7.86137 20.4428
327 1 6.28938 6.28874 18.8705
328 1 7.86215 7.86179 20.4421
329 1 9.43453 6.28874 18.8705
591 1 7.86109 11.0069 17.2985
248 1 3.1441 22.0138 15.7247
592 1 11.008 11.0069 17.2985
256 1 15.725 22.0138 15.7247
640 1 7.86204 11.007 20.4422
258 1 18.8694 22.0136 15.7246
641 1 11.007 11.007 20.4422
246 1 22.0135 22.0136 15.7246
103 1 12.5798 0.000684409 6.28901
462 1 18.8696 18.8697 6.28936
102 1 9.43453 0.000920531 6.28882
9 1 12.5798 0.000648787 1.94547e-06
461 1 15.7256 18.8707 6.28884
101 1 6.28921 0.000684566 6.28901
60 1 15.725 0.000431515 3.14414
351 1 22.0134 12.5796 3.82243e-06
352 1 1.57141 14.1524 1.57171
353 1 3.14376 12.5796 3.05797e-06
354 1 4.7161 14.1526 1.57109
355 1 6.28912 12.5796 1.85618e-06
356 1 7.86179 14.1528 1.57082
62 1 18.8695 22.0139 3.14438
358 1 11.0073 14.1528 1.57082
359 1 12.5799 12.5796 1.85611e-06
360 1 14.153 14.1526 1.57109
361 1 15.7253 12.5796 3.05867e-06
362 1 17.2976 14.1524 1.57171
363 1 18.8695 12.5796 3.82272e-06
364 1 20.4415 14.1522 1.57196
365 1 22.0134 15.7248 2.92056e-06
366 1 1.57137 17.2977 1.57174
367 1 3.14372 15.7251 4.4101e-06
368 1 4.71595 17.2983 1.57121
369 1 6.28892 15.7254 1.87696e-06
370 1 7.86156 17.2985 1.57115
371 1 9.43453 15.7257 22.0139
372 1 11.0075 17.2985 1.57115
350 1 20.4415 11.0069 1.57192
374 1 14.1531 17.2983 1.57121
375 1 15.7253 15.7251 4.41106e-06
376 1 17.2977 17.2977 1.57174
377 1 18.8696 15.7248 2.92184e-06
378 1 20.4415 17.2974 1.57201
379 1 22.0134 18.8698 5.73524e-07
380 1 1.57163 20.4423 1.57197
381 1 3.14378 18.8703 3.27187e-06
382 1 4.71647 20.4426 1.57187
383 1 6.28897 18.8705 2.4621e-06
384 1 7.86178 20.4427 1.57182
385 1 9.43453 18.8706 1.13005e-06
386 1 11.0073 20.4427 1.57182
387 1 12.5801 18.8705 2.46169e-06
388 1 14.1526 20.4426 1.57187
389 1 15.7253 18.8703 3.27256e-06
390 1 17.2974 20.4423 1.57197
391 1 18.8696 18.8698 5.7392e-07
392 1 20.4415 20.442 1.57207
393 1 1.57046 11.0068 4.71538
460 1 12.581 18.8728 6.28762
52 1 3.14404 0.000432585 3.14414
13 1 18.8694 0.000181706 22.0139
459 1 9.43453 18.8729 6.28725
398 1 17.2986 11.0069 4.71538
458 1 6.28803 18.8728 6.28762
400 1 22.0132 12.5796 3.14384
401 1 1.57047 14.1528 4.71547
402 1 3.14307 12.5799 3.14284
403 1 4.7141 14.1541 4.71266
404 1 6.28842 12.5797 3.14185
405 1 7.86063 14.1554 4.71004
406 1 9.43453 12.5799 3.14293
407 1 11.0084 14.1554 4.71005
408 1 12.5806 12.5797 3.14185
409 1 14.155 14.1541 4.71267
410 1 15.726 12.5799 3.14284
411 1 17.2986 14.1528 4.71547
412 1 18.8698 12.5796 3.14384
413 1 20.4415 14.1524 4.71624
414 1 22.0132 15.725 3.14394
415 1 1.57032 17.2986 4.71557
416 1 3.14295 15.7258 3.1428
417 1 4.71384 17.3006 4.71366
418 1 6.28796 15.7266 3.14141
419 1 7.86086 17.3005 4.71374
420 1 9.43453 15.7271 3.14133
421 1 11.0082 17.3005 4.71374
422 1 12.5811 15.7266 3.14141
423 1 14.1552 17.3006 4.71366
424 1 15.7261 15.7258 3.1428
425 1 17.2987 17.2986 4.71557
426 1 18.8698 15.725 3.14394
427 1 20.4415 17.2976 4.71646
428 1 22.0132 18.87 3.14407
429 1 1.57156 20.4421 4.71665
430 1 3.14324 18.8708 3.14345
431 1 4.71609 20.4431 4.71609
432 1 6.28865 18.8711 3.14326
433 1 7.86163 20.4434 4.71589
434 1 9.43453 18.8712 3.1432
435 1 11.0074 20.4434 4.71589
436 1 12.5804 18.8711 3.14326
437 1 14.153 20.4431 4.71609
438 1 15.7258 18.8708 3.14345
439 1 17.2975 20.4421 4.71665
440 1 18.8698 18.87 3.14408
441 1 20.4415 20.4418 4.71691
442 1 22.0126 12.5798 6.28839
443 1 3.14069 12.5807 6.28596
444 1 6.28491 12.581 6.28025
445 1 9.43453 12.5815 6.28353
446 1 12.5842 12.581 6.28025
447 1 15.7284 12.5807 6.28596
448 1 18.8704 12.5798 6.28839
449 1 22.0126 15.7253 6.28874
450 1 3.13981 15.7284 6.2857
451 1 6.28177 15.7337 6.28045
452 1 9.43453 15.7323 6.28164
453 1 12.5873 15.7337 6.28045
454 1 15.7292 15.7284 6.2857
455 1 18.8704 15.7253 6.28874
456 1 22.0134 18.8697 6.28936
457 1 3.14347 18.8707 6.28884
1 1 22.0136 0.000182662 22.0139
5 1 6.28927 0.000649988 1.94556e-06
399 1 20.4415 11.0069 4.71609
397 1 14.1552 11.0067 4.7129
394 1 4.71384 11.0067 4.7129
348 1 14.1529 11.0069 1.57116
345 1 4.71613 11.0069 1.57116
7 1 9.43453 0.000727662 1.9186e-06
344 1 1.57146 11.0069 1.5717
11 1 15.7248 0.000437098 9.23471e-07
3 1 3.14424 0.000438887 9.23134e-07
50 1 22.0135 -9.37485e-07 3.14438
349 1 17.2976 11.0069 1.5717
54 1 6.28916 0.000721807 3.14404
56 1 9.43453 0.00082642 3.144
58 1 12.5799 0.000720899 3.14404
588 1 20.4415 20.4415 14.152
587 1 18.8695 18.8695 12.5795
465 1 7.84349 11.0001 7.86169
466 1 11.0256 11.0001 7.86169
586 1 17.2973 20.4417 14.1521
585 1 15.7252 18.87 12.5796
584 1 14.1524 20.4422 14.152
470 1 1.56929 14.1531 7.86076
471 1 4.7059 14.161 7.85227
472 1 7.84309 14.1777 7.83521
473 1 11.026 14.1777 7.83521
474 1 14.1632 14.161 7.85227
475 1 17.2998 14.1531 7.86075
476 1 20.4415 14.1523 7.86167
477 1 1.57135 17.2977 7.86181
478 1 4.71573 17.2996 7.86127
479 1 7.86074 17.3035 7.85874
480 1 11.0083 17.3035 7.85874
481 1 14.1533 17.2996 7.86127
482 1 17.2977 17.2977 7.86181
483 1 20.4415 17.2973 7.86193
484 1 1.57176 20.4417 7.86186
485 1 4.71666 20.4422 7.8619
486 1 7.86193 20.4432 7.86159
487 1 11.0071 20.4432 7.86159
488 1 14.1524 20.4422 7.8619
489 1 17.2973 20.4417 7.86186
490 1 20.4415 20.4415 7.86193
583 1 12.5796 18.8701 12.579
492 1 4.70852 11.0014 11.007
493 1 7.55555 10.9299 11.007
494 1 11.3135 10.9299 11.007
495 1 14.1606 11.0014 11.007
582 1 11.0071 20.4432 14.1523
581 1 9.43453 18.8699 12.5791
498 1 22.0127 12.5796 9.43428
499 1 1.57098 14.1527 11.007
500 1 3.13957 12.5802 9.43274
501 1 4.71502 14.1525 11.007
502 1 6.26899 12.6011 9.40451
503 1 7.86478 14.1228 11.007
504 1 9.43453 12.6425 9.2944
505 1 11.0043 14.1228 11.007
506 1 12.6001 12.6011 9.40451
507 1 14.154 14.1525 11.007
508 1 15.7295 12.5802 9.43274
509 1 17.2981 14.1527 11.007
510 1 18.8703 12.5796 9.43428
511 1 20.4415 14.1523 11.007
512 1 22.0133 15.7249 9.43442
513 1 1.57152 17.2975 11.007
514 1 3.14341 15.7257 9.43437
515 1 4.71577 17.2983 11.007
516 1 6.28987 15.7271 9.43558
517 1 7.8623 17.2931 11.007
518 1 9.43453 15.7282 9.43152
519 1 11.0068 17.2931 11.007
520 1 12.5792 15.7271 9.43558
521 1 14.1533 17.2983 11.007
522 1 15.7257 15.7257 9.43437
523 1 17.2975 17.2975 11.007
524 1 18.8697 15.7249 9.43442
525 1 20.4415 17.2972 11.007
526 1 22.0135 18.8695 9.43444
527 1 1.5718 20.4416 11.007
528 1 3.14389 18.87 9.43436
529 1 4.71656 20.4419 11.007
530 1 6.28944 18.8701 9.43487
531 1 7.86202 20.4413 11.007
532 1 9.43453 18.8699 9.43476
533 1 11.007 20.4413 11.007
534 1 12.5796 18.8701 9.43487
535 1 14.1525 20.4419 11.007
536 1 15.7252 18.87 9.43436
537 1 17.2973 20.4416 11.007
538 1 18.8695 18.8695 9.43444
539 1 20.4415 20.4414 11.007
580 1 7.86193 20.4432 14.1523
579 1 6.28944 18.8701 12.579
542 1 7.84349 11.0001 14.1522
543 1 11.0256 11.0001 14.1522
578 1 4.71666 20.4422 14.152
577 1 3.14389 18.87 12.5796
576 1 1.57176 20.4417 14.1521
547 1 22.0127 12.5796 12.5796
548 1 1.56929 14.1531 14.1532
549 1 3.13957 12.5802 12.5812
550 1 4.7059 14.161 14.1617
551 1 6.26899 12.6011 12.6094
552 1 7.84307 14.1777 14.1787
553 1 9.43453 12.6427 12.7199
554 1 11.026 14.1777 14.1787
555 1 12.6001 12.6011 12.6094
556 1 14.1632 14.161 14.1616
557 1 15.7295 12.5802 12.5812
558 1 17.2998 14.1531 14.1532
559 1 18.8703 12.5796 12.5796
560 1 20.4415 14.1523 14.1522
561 1 22.0133 15.7249 12.5795
562 1 1.57135 17.2977 14.1521
563 1 3.14341 15.7257 12.5796
564 1 4.71573 17.2996 14.1526
565 1 6.28987 15.7271 12.5783
566 1 7.86074 17.3035 14.1552
567 1 9.43453 15.7282 12.5824
568 1 11.0083 17.3035 14.1552
569 1 12.5792 15.7271 12.5783
570 1 14.1533 17.2996 14.1526
571 1 15.7257 15.7257 12.5796
572 1 17.2977 17.2977 14.1521
573 1 18.8697 15.7249 12.5795
574 1 20.4415 17.2973 14.152
575 1 22.0135 18.8695 12.5795
544 1 14.1628 11.0063 14.1595
541 1 4.70624 11.0063 14.1595
154 1 9.43453 0.000227186 9.43455
467 1 14.1628 11.0063 7.85437
203 1 9.43453 0.000226366 12.5794
464 1 4.70624 11.0063 7.85437
463 1 1.56862 11.0069 7.86015
546 1 20.4415 11.0069 14.1526
545 1 17.3004 11.0069 14.1538
468 1 17.3004 11.0069 7.86015
469 1 20.4415 11.0069 7.8613
540 1 1.56862 11.0069 14.1538
497 1 20.4415 11.0068 11.007
496 1 17.2998 11.0066 11.007
491 1 1.56928 11.0066 11.007
589 1 1.57046 11.0068 17.2985
686 1 20.4415 20.442 20.4418
305 1 15.725 0.000432432 18.8698
297 1 3.14404 0.000433502 18.8698
685 1 18.8698 18.87 18.8698
594 1 17.2986 11.0069 17.2985
684 1 17.2974 20.4423 20.4419
596 1 22.0126 12.5798 15.7255
597 1 1.57047 14.1528 17.2984
598 1 3.14069 12.5806 15.728
599 1 4.7141 14.1541 17.3012
600 1 6.28491 12.581 15.7337
601 1 7.86063 14.1554 17.3039
602 1 9.43453 12.5815 15.7304
603 1 11.0084 14.1554 17.3039
604 1 12.5842 12.581 15.7337
605 1 14.155 14.1541 17.3012
606 1 15.7284 12.5807 15.728
607 1 17.2986 14.1528 17.2984
608 1 18.8704 12.5798 15.7255
609 1 20.4415 14.1524 17.2977
610 1 22.0126 15.7253 15.7252
611 1 1.57032 17.2986 17.2983
612 1 3.13981 15.7284 15.7282
613 1 4.71384 17.3006 17.3003
614 1 6.28177 15.7337 15.7335
615 1 7.86086 17.3005 17.3002
616 1 9.43453 15.7323 15.7323
617 1 11.0082 17.3005 17.3002
618 1 12.5873 15.7337 15.7335
619 1 14.1552 17.3006 17.3003
620 1 15.7292 15.7284 15.7282
621 1 17.2987 17.2986 17.2983
622 1 18.8704 15.7253 15.7252
623 1 20.4415 17.2976 17.2974
624 1 22.0134 18.8697 15.7246
625 1 1.57156 20.4421 17.2973
626 1 3.14347 18.8707 15.7251
627 1 4.71609 20.4431 17.2978
628 1 6.28803 18.8728 15.7263
629 1 7.86163 20.4434 17.298
630 1 9.43453 18.8729 15.7267
631 1 11.0074 20.4434 17.298
632 1 12.581 18.8728 15.7263
633 1 14.153 20.4431 17.2978
634 1 15.7256 18.8707 15.7251
635 1 17.2975 20.4421 17.2973
636 1 18.8696 18.8697 15.7246
637 1 20.4415 20.4418 17.297
254 1 12.5798 0.000684353 15.7249
683 1 15.7258 18.8708 18.8705
252 1 9.43453 0.000920451 15.7251
590 1 4.71384 11.0067 17.301
682 1 14.1526 20.4426 20.442
250 1 6.28921 0.000684511 15.7249
681 1 12.5804 18.8711 18.8707
645 1 22.0132 12.5796 18.8701
646 1 1.57141 14.1524 20.4422
647 1 3.14307 12.5799 18.8711
648 1 4.7161 14.1526 20.4428
649 1 6.28842 12.5797 18.8721
650 1 7.86179 14.1528 20.4431
651 1 9.43453 12.5799 18.871
652 1 11.0073 14.1528 20.4431
653 1 12.5806 12.5797 18.8721
654 1 14.153 14.1526 20.4428
655 1 15.726 12.5799 18.8711
656 1 17.2976 14.1524 20.4422
657 1 18.8698 12.5796 18.8701
658 1 20.4415 14.1522 20.442
659 1 22.0132 15.725 18.87
660 1 1.57137 17.2977 20.4422
661 1 3.14295 15.7258 18.8711
662 1 4.71595 17.2983 20.4427
663 1 6.28796 15.7266 18.8725
664 1 7.86156 17.2985 20.4428
665 1 9.43453 15.7271 18.8726
666 1 11.0075 17.2985 20.4428
667 1 12.5811 15.7266 18.8725
668 1 14.1531 17.2983 20.4427
669 1 15.7261 15.7258 18.8711
670 1 17.2977 17.2977 20.4422
671 1 18.8698 15.725 18.87
672 1 20.4415 17.2974 20.4419
673 1 22.0132 18.87 18.8698
674 1 1.57163 20.4423 20.4419
675 1 3.14324 18.8708 18.8705
676 1 4.71647 20.4426 20.442
677 1 6.28865 18.8711 18.8707
678 1 7.86179 20.4427 20.4421
679 1 9.43453 18.8712 18.8707
680 1 11.0073 20.4427 20.4421
593 1 14.1552 11.0067 17.301
642 1 14.1529 11.0069 20.4427
639 1 4.71613 11.0069 20.4427
595 1 20.4415 11.0069 17.2978
307 1 18.8695 22.0139 18.8695
303 1 12.5799 0.000722551 18.8699
644 1 20.4415 11.0069 20.442
643 1 17.2976 11.0069 20.4422
301 1 9.43453 0.000827903 18.8699
295 1 22.0135 -9.33449e-07 18.8695
638 1 1.57146 11.0069 20.4422
299 1 6.28916 0.000723459 18.8699
357 1 9.43453 12.5797 1.47163e-06
373 1 12.5801 15.7254 1.87736e-06
