ITEM: TIMESTEP
39
ITEM: NUMBER OF ATOMS
687
ITEM: BOX BOUNDS pp pp pp
0.0000000000000000e+00 2.2013900999999997e+01
0.0000000000000000e+00 2.2013900999999997e+01
0.0000000000000000e+00 2.2013900999999997e+01
ITEM: ATOMS id type x y z
1 1 22.0137 22.0137 22.0137
2 1 1.57183 1.57168 1.57168
3 1 3.14468 22.0136 22.0136
4 1 4.71685 1.57158 1.57158
5 1 6.28959 22.0134 22.0134
6 1 7.86195 1.57149 1.57148
7 1 9.43453 22.0134 22.0134
8 1 11.0071 1.57149 1.57148
9 1 12.5795 22.0134 22.0134
10 1 14.1522 1.57158 1.57158
11 1 15.7244 22.0136 22.0136
12 1 17.2972 1.57169 1.57168
13 1 18.8692 22.0137 22.0137
14 1 20.4415 1.57193 1.57193
15 1 22.0136 3.14426 22.0138
16 1 1.57168 4.71653 1.57177
17 1 3.14425 3.14394 22.0135
18 1 4.71621 4.71595 1.57066
19 1 6.28939 3.14389 22.0133
20 1 7.86174 4.71582 1.57066
21 1 9.43453 3.14382 22.0133
22 1 11.0073 4.71582 1.57066
23 1 12.5797 3.14388 22.0133
24 1 14.1528 4.71595 1.57066
25 1 15.7248 3.14394 22.0135
26 1 17.2974 4.71653 1.57177
27 1 18.8694 3.14426 22.0138
28 1 20.4415 4.71681 1.57212
29 1 22.0136 6.28928 0.000170748
30 1 1.57179 7.86183 1.57206
31 1 3.14428 6.28918 2.88329e-05
32 1 4.7167 7.86199 1.57149
33 1 6.28946 6.28913 22.0133
34 1 7.86221 7.86191 1.57081
35 1 9.43453 6.28884 22.0132
36 1 11.0068 7.86192 1.57081
37 1 12.5796 6.28913 22.0133
38 1 14.1524 7.86199 1.57149
39 1 15.7248 6.28918 2.91134e-05
40 1 17.2973 7.86183 1.57206
41 1 18.8694 6.28928 0.000170925
42 1 20.4415 7.86189 1.57227
43 1 22.0136 9.43444 0.000300795
44 1 1.57182 11.0071 1.57215
45 1 3.14425 9.43441 0.000273148
46 1 4.71666 11.0071 1.57185
47 1 6.28968 9.43464 0.000246916
48 1 7.8625 11.0068 1.57359
49 1 9.43453 9.4346 0.000326683
50 1 11.0066 11.0068 1.57359
51 1 12.5794 9.43464 0.000246006
52 1 14.1524 11.0071 1.57185
53 1 15.7248 9.43441 0.00027342
54 1 17.2972 11.0071 1.57215
55 1 18.8694 9.43444 0.000300846
56 1 20.4415 11.0071 1.57231
57 1 22.0136 12.5796 0.000302731
58 1 1.57193 14.1522 1.57206
59 1 3.14436 12.5796 0.000287121
60 1 4.71714 14.1519 1.5718
61 1 6.28994 12.5791 0.000460582
62 1 7.86238 14.1516 1.5721
63 1 9.43453 12.579 0.000374841
64 1 11.0067 14.1516 1.5721
65 1 12.5791 12.5791 0.000459663
66 1 14.1519 14.1519 1.5718
67 1 15.7247 12.5796 0.000287384
68 1 17.2971 14.1522 1.57206
69 1 18.8693 12.5796 0.000302774
70 1 20.4415 14.1522 1.57226
71 1 22.0137 15.7247 0.000180573
72 1 1.57189 17.2973 1.57178
73 1 3.14456 15.7246 0.000112819
74 1 4.71698 17.2971 1.57146
75 1 6.28986 15.7242 22.0136
76 1 7.86202 17.2969 1.57144
77 1 9.43453 15.7242 22.0135
78 1 11.007 17.2969 1.57144
79 1 12.5792 15.7242 22.0136
80 1 14.1521 17.2971 1.57146
81 1 15.7245 15.7246 0.000113084
82 1 17.2972 17.2973 1.57178
83 1 18.8693 15.7247 0.000180751
84 1 20.4415 17.2971 1.5721
85 1 22.0137 18.8695 22.0139
86 1 1.57207 20.4417 1.57178
87 1 3.14469 18.8693 22.0136
88 1 4.71707 20.4415 1.57172
89 1 6.28966 18.8691 22.0134
90 1 7.86204 20.4413 1.57165
91 1 9.43453 18.869 22.0134
92 1 11.007 20.4413 1.57165
93 1 12.5794 18.8691 22.0134
94 1 14.152 20.4415 1.57172
95 1 15.7244 18.8693 22.0136
96 1 17.297 20.4417 1.57178
97 1 18.8693 18.8695 22.0139
98 1 20.4415 20.4418 1.57198
99 1 22.0136 22.0138 3.14426
100 1 1.57168 1.57177 4.71653
101 1 3.14425 22.0135 3.14394
102 1 4.71621 1.57066 4.71595
103 1 6.28939 22.0133 3.14388
104 1 7.86174 1.57067 4.71582
105 1 9.43453 22.0133 3.14382
106 1 11.0073 1.57067 4.71582
107 1 12.5797 22.0133 3.14388
108 1 14.1528 1.57066 4.71595
109 1 15.7248 22.0135 3.14394
110 1 17.2974 1.57177 4.71653
111 1 18.8694 22.0138 3.14426
112 1 20.4415 1.57212 4.71681
113 1 22.0132 3.14395 3.14395
114 1 1.57002 4.71543 4.71543
115 1 3.14309 3.14291 3.14291
116 1 4.71205 4.71185 4.71185
117 1 6.28885 3.14301 3.14301
118 1 7.86059 4.71297 4.71297
119 1 9.43453 3.14295 3.14295
120 1 11.0085 4.71297 4.71297
121 1 12.5802 3.14301 3.14301
122 1 14.157 4.71185 4.71185
123 1 15.726 3.14291 3.14291
124 1 17.299 4.71543 4.71543
125 1 18.8697 3.14395 3.14395
126 1 20.4415 4.71653 4.71652
127 1 22.0133 6.28928 3.14424
128 1 1.57085 7.86178 4.71612
129 1 3.14331 6.28874 3.14306
130 1 4.71441 7.86122 4.71349
131 1 6.28775 6.28747 3.1403
132 1 7.86018 7.85868 4.70781
133 1 9.43453 6.28692 3.14054
134 1 11.0089 7.85868 4.70781
135 1 12.5813 6.28747 3.1403
136 1 14.1546 7.86122 4.71349
137 1 15.7258 6.28874 3.14306
138 1 17.2982 7.86178 4.71612
139 1 18.8696 6.28928 3.14424
140 1 20.4415 7.86195 4.71671
141 1 22.0134 9.43449 3.14432
142 1 1.57105 11.0073 4.71616
143 1 3.14359 9.43449 3.14358
144 1 4.71485 11.0078 4.71468
145 1 6.28903 9.43526 3.14331
146 1 7.86339 11.0058 4.7227
147 1 9.43453 9.43488 3.14617
148 1 11.0057 11.0058 4.7227
149 1 12.58 9.43526 3.14331
150 1 14.1542 11.0078 4.71468
151 1 15.7255 9.43449 3.14358
152 1 17.298 11.0073 4.71616
153 1 18.8696 9.43449 3.14432
154 1 20.4415 11.0071 4.71668
155 1 22.0134 12.5797 3.14431
156 1 1.57116 14.1525 4.7161
157 1 3.14377 12.5798 3.14362
158 1 4.71545 14.1534 4.71387
159 1 6.29 12.5788 3.14444
160 1 7.8626 14.1523 4.7161
161 1 9.43453 12.5786 3.14705
162 1 11.0065 14.1523 4.7161
163 1 12.5791 12.5788 3.14444
164 1 14.1536 14.1534 4.71387
165 1 15.7253 12.5798 3.14362
166 1 17.2979 14.1525 4.7161
167 1 18.8695 12.5797 3.14431
168 1 20.4415 14.1523 4.71666
169 1 22.0135 15.7248 3.14419
170 1 1.57073 17.2985 4.71549
171 1 3.14373 15.7253 3.14314
172 1 4.71569 17.2987 4.71499
173 1 6.28935 15.7248 3.14319
174 1 7.86163 17.298 4.71538
175 1 9.43453 15.7249 3.14323
176 1 11.0074 17.298 4.71538
177 1 12.5797 15.7248 3.14319
178 1 14.1534 17.2987 4.71499
179 1 15.7253 15.7253 3.14314
180 1 17.2983 17.2985 4.71549
181 1 18.8695 15.7248 3.14419
182 1 20.4415 17.2976 4.71638
183 1 22.0134 18.8699 3.14399
184 1 1.5718 20.4421 4.71646
185 1 3.14408 18.8699 3.14362
186 1 4.71674 20.4419 4.71632
187 1 6.28936 18.8696 3.1437
188 1 7.86193 20.4416 4.71622
189 1 9.43453 18.8694 3.14369
190 1 11.0071 20.4416 4.71622
191 1 12.5797 18.8696 3.1437
192 1 14.1523 20.4419 4.71632
193 1 15.725 18.8699 3.14362
194 1 17.2973 20.4421 4.71646
195 1 18.8695 18.8699 3.14399
196 1 20.4415 20.442 4.71673
197 1 22.0136 0.000172664 6.28928
198 1 1.57178 1.57206 7.86183
199 1 3.14428 3.1301e-05 6.28918
200 1 4.7167 1.57149 7.86199
201 1 6.28946 22.0133 6.28913
202 1 7.86221 1.57081 7.86191
203 1 9.43453 22.0132 6.28884
204 1 11.0068 1.57081 7.86191
205 1 12.5796 22.0133 6.28913
206 1 14.1524 1.57149 7.86199
207 1 15.7248 3.13151e-05 6.28918
208 1 17.2973 1.57206 7.86183
209 1 18.8694 0.000172656 6.28928
210 1 20.4415 1.57227 7.86189
211 1 22.0133 3.14424 6.28928
212 1 1.57086 4.71612 7.86178
213 1 3.14331 3.14306 6.28874
214 1 4.71441 4.71349 7.86121
215 1 6.28775 3.1403 6.28747
216 1 7.86018 4.70781 7.85868
217 1 9.43453 3.14054 6.28692
218 1 11.0089 4.70781 7.85868
219 1 12.5813 3.1403 6.28747
220 1 14.1546 4.71349 7.86121
221 1 15.7257 3.14307 6.28874
222 1 17.2982 4.71612 7.86178
223 1 18.8696 3.14424 6.28928
224 1 20.4415 4.71671 7.86195
225 1 22.0125 6.28901 6.289
226 1 1.56897 7.86143 7.86143
227 1 3.13839 6.28553 6.28552
228 1 4.70209 7.85287 7.85287
229 1 6.27426 6.27378 6.27378
230 1 7.81828 7.81491 7.81491
231 1 9.43453 6.27805 6.27804
232 1 11.0508 7.81491 7.81491
233 1 12.5948 6.27379 6.27378
234 1 14.167 7.85287 7.85287
235 1 15.7307 6.28553 6.28552
236 1 17.3001 7.86143 7.86143
237 1 18.8705 6.28901 6.289
238 1 20.4415 7.86212 7.86212
239 1 22.0129 9.4346 6.28905
240 1 1.57042 11.0072 7.86128
241 1 3.14169 9.43461 6.28739
242 1 4.71181 11.0073 7.85919
243 1 6.28544 9.43611 6.28293
244 1 7.85571 11.0055 7.88455
245 1 9.43453 9.42558 6.29666
246 1 11.0134 11.0055 7.88455
247 1 12.5836 9.43611 6.28293
248 1 14.1573 11.0073 7.8592
249 1 15.7274 9.43461 6.28739
250 1 17.2986 11.0072 7.86128
251 1 18.87 9.4346 6.28905
252 1 20.4415 11.0071 7.86191
253 1 22.013 12.5797 6.28906
254 1 1.56897 14.1537 7.86076
255 1 3.14245 12.5803 6.28772
256 1 4.70523 14.164 7.85095
257 1 6.28827 12.5806 6.2855
258 1 7.86145 14.1586 7.85771
259 1 9.43453 12.5757 6.2988
260 1 11.0076 14.1586 7.85771
261 1 12.5808 12.5806 6.2855
262 1 14.1638 14.164 7.85095
263 1 15.7266 12.5803 6.28772
264 1 17.3001 14.1537 7.86076
265 1 18.8699 12.5797 6.28906
266 1 20.4415 14.1525 7.86182
267 1 22.0126 15.7255 6.2887
268 1 1.57075 17.2986 7.86121
269 1 3.14017 15.7287 6.2854
270 1 4.71471 17.3011 7.85995
271 1 6.28717 15.728 6.28587
272 1 7.862 17.2992 7.86048
273 1 9.43453 15.727 6.28652
274 1 11.0071 17.2992 7.86048
275 1 12.5819 15.728 6.28587
276 1 14.1544 17.3011 7.85995
277 1 15.7289 15.7287 6.2854
278 1 17.2983 17.2986 7.86122
279 1 18.8703 15.7255 6.2887
280 1 20.4415 17.2979 7.86162
281 1 22.0134 18.8701 6.28903
282 1 1.57178 20.4423 7.8617
283 1 3.14354 18.871 6.28842
284 1 4.71676 20.4426 7.86171
285 1 6.28912 18.8706 6.28849
286 1 7.86222 20.442 7.86176
287 1 9.43453 18.8703 6.28824
288 1 11.0068 20.442 7.86176
289 1 12.5799 18.8706 6.28849
290 1 14.1523 20.4426 7.86171
291 1 15.7255 18.871 6.28842
292 1 17.2973 20.4423 7.8617
293 1 18.8696 18.8701 6.28903
294 1 20.4415 20.4422 7.8618
295 1 22.0136 0.000300621 9.43443
296 1 1.57182 1.57215 11.0071
297 1 3.14425 0.000273546 9.43441
298 1 4.71666 1.57185 11.0071
299 1 6.28968 0.000249588 9.43463
300 1 7.8625 1.5736 11.0068
301 1 9.43453 0.000332293 9.4346
302 1 11.0066 1.5736 11.0068
303 1 12.5794 0.000249583 9.43463
304 1 14.1524 1.57185 11.0071
305 1 15.7248 0.000273534 9.43441
306 1 17.2972 1.57215 11.0071
307 1 18.8694 0.000300615 9.43443
308 1 20.4415 1.57231 11.0071
309 1 22.0134 3.14432 9.43449
310 1 1.57105 4.71617 11.0073
311 1 3.14359 3.14359 9.43449
312 1 4.71485 4.71468 11.0078
313 1 6.28903 3.14332 9.43525
314 1 7.86339 4.7227 11.0058
315 1 9.43453 3.14618 9.43488
316 1 11.0057 4.7227 11.0058
317 1 12.58 3.14332 9.43525
318 1 14.1542 4.71468 11.0078
319 1 15.7255 3.14359 9.43449
320 1 17.298 4.71617 11.0073
321 1 18.8696 3.14432 9.43449
322 1 20.4415 4.71669 11.0071
323 1 22.0129 6.28906 9.43459
324 1 1.57042 7.86129 11.0071
325 1 3.14169 6.28739 9.4346
326 1 4.71181 7.8592 11.0073
327 1 6.28544 6.28294 9.43611
328 1 7.85571 7.88455 11.0055
329 1 9.43453 6.29666 9.42558
330 1 11.0134 7.88455 11.0055
331 1 12.5836 6.28294 9.43611
332 1 14.1573 7.8592 11.0073
333 1 15.7274 6.28739 9.4346
334 1 17.2986 7.86129 11.0071
335 1 18.87 6.28906 9.43459
336 1 20.4415 7.86191 11.0071
337 1 22.0131 9.43478 9.43478
338 1 1.5705 11.0073 11.0073
339 1 3.14103 9.43412 9.43411
340 1 4.71134 11.01 11.01
341 1 6.27279 9.40847 9.40846
342 1 7.5576 11.0515 11.0515
343 1 9.43452 9.2557 9.25569
344 1 11.3115 11.0516 11.0515
345 1 12.5963 9.40847 9.40847
346 1 14.1577 11.01 11.01
347 1 15.728 9.43412 9.43411
348 1 17.2986 11.0073 11.0073
349 1 18.8699 9.43478 9.43478
350 1 20.4415 11.0072 11.0072
351 1 22.0126 12.5799 9.4346
352 1 1.56861 14.1543 11.0071
353 1 3.13792 12.5823 9.43331
354 1 4.70612 14.1617 11.0076
355 1 6.25745 12.6174 9.40427
356 1 7.84868 14.1541 11.0097
357 1 9.43453 12.5847 9.44614
358 1 11.0204 14.1541 11.0097
359 1 12.6116 12.6174 9.40428
360 1 14.1629 14.1617 11.0076
361 1 15.7311 12.5823 9.43331
362 1 17.3005 14.1543 11.0071
363 1 18.8704 12.5799 9.4346
364 1 20.4415 14.1529 11.0071
365 1 22.0126 15.7258 9.43422
366 1 1.57071 17.2988 11.0071
367 1 3.14082 15.7283 9.43323
368 1 4.71433 17.3012 11.0071
369 1 6.28553 15.7338 9.43234
370 1 7.86182 17.2978 11.0069
371 1 9.43453 15.7234 9.4354
372 1 11.0072 17.2978 11.0069
373 1 12.5835 15.7338 9.43233
374 1 14.1547 17.3012 11.0071
375 1 15.7282 15.7283 9.43323
376 1 17.2984 17.2988 11.0071
377 1 18.8704 15.7258 9.43422
378 1 20.4415 17.2981 11.0071
379 1 22.0134 18.8703 9.43435
380 1 1.57178 20.4424 11.007
381 1 3.14351 18.8712 9.43413
382 1 4.71668 20.4428 11.007
383 1 6.28917 18.8714 9.43428
384 1 7.86241 20.442 11.0068
385 1 9.43453 18.8693 9.4342
386 1 11.0067 20.442 11.0068
387 1 12.5799 18.8714 9.43428
388 1 14.1524 20.4428 11.007
389 1 15.7256 18.8712 9.43413
390 1 17.2973 20.4424 11.007
391 1 18.8696 18.8703 9.43435
392 1 20.4415 20.4423 11.007
393 1 22.0136 0.000303662 12.5796
394 1 1.57193 1.57206 14.1522
395 1 3.14436 0.000287721 12.5796
396 1 4.71714 1.5718 14.1519
397 1 6.28994 0.000462919 12.5791
398 1 7.86238 1.5721 14.1515
399 1 9.43453 0.000378044 12.579
400 1 11.0067 1.5721 14.1515
401 1 12.5791 0.000462909 12.5791
402 1 14.1519 1.5718 14.1519
403 1 15.7247 0.000287692 12.5796
404 1 17.2971 1.57206 14.1522
405 1 18.8693 0.000303654 12.5796
406 1 20.4415 1.57226 14.1522
407 1 22.0134 3.14431 12.5797
408 1 1.57116 4.71611 14.1525
409 1 3.14377 3.14362 12.5798
410 1 4.71545 4.71387 14.1534
411 1 6.29 3.14445 12.5788
412 1 7.8626 4.7161 14.1523
413 1 9.43453 3.14705 12.5786
414 1 11.0065 4.7161 14.1523
415 1 12.5791 3.14445 12.5788
416 1 14.1536 4.71387 14.1534
417 1 15.7253 3.14362 12.5798
418 1 17.2979 4.71611 14.1525
419 1 18.8695 3.14431 12.5797
420 1 20.4415 4.71666 14.1523
421 1 22.0131 6.28907 12.5797
422 1 1.56897 7.86076 14.1536
423 1 3.14245 6.28773 12.5803
424 1 4.70523 7.85095 14.164
425 1 6.28827 6.28551 12.5806
426 1 7.86145 7.85771 14.1586
427 1 9.43453 6.2988 12.5757
428 1 11.0076 7.85771 14.1586
429 1 12.5808 6.28551 12.5806
430 1 14.1638 7.85095 14.164
431 1 15.7266 6.28773 12.5803
432 1 17.3001 7.86076 14.1536
433 1 18.8699 6.28907 12.5797
434 1 20.4415 7.86182 14.1525
435 1 22.0126 9.43461 12.5799
436 1 1.56861 11.0071 14.1543
437 1 3.13792 9.43332 12.5823
438 1 4.70612 11.0076 14.1616
439 1 6.25745 9.40428 12.6174
440 1 7.84867 11.0097 14.1541
441 1 9.43453 9.44615 12.5847
442 1 11.0204 11.0097 14.1541
443 1 12.6116 9.40429 12.6174
444 1 14.1629 11.0076 14.1616
445 1 15.7311 9.43332 12.5823
446 1 17.3004 11.0071 14.1543
447 1 18.8704 9.43461 12.5799
448 1 20.4415 11.0071 14.1529
449 1 22.012 12.58 12.58
450 1 1.56787 14.1543 14.1543
451 1 3.13461 12.5829 12.5828
452 1 4.70131 14.1678 14.1678
453 1 6.24377 12.6271 12.6271
454 1 7.86492 14.1538 14.1538
455 1 9.43452 12.5639 12.5639
456 1 11.0041 14.1538 14.1538
457 1 12.6253 12.6271 12.6271
458 1 14.1678 14.1678 14.1678
459 1 15.7345 12.5829 12.5828
460 1 17.3012 14.1543 14.1543
461 1 18.8709 12.58 12.58
462 1 20.4415 14.1527 14.1527
463 1 22.0125 15.7259 12.58
464 1 1.57073 17.2988 14.153
465 1 3.14043 15.7286 12.5811
466 1 4.71462 17.3019 14.1545
467 1 6.28469 15.7353 12.5831
468 1 7.86305 17.2973 14.152
469 1 9.43453 15.7197 12.5769
470 1 11.006 17.2973 14.152
471 1 12.5844 15.7353 12.5831
472 1 14.1544 17.3019 14.1545
473 1 15.7286 15.7286 12.5811
474 1 17.2983 17.2988 14.153
475 1 18.8704 15.7259 12.58
476 1 20.4415 17.298 14.1526
477 1 22.0134 18.8703 12.5798
478 1 1.57189 20.4424 14.1523
479 1 3.14357 18.8712 12.5799
480 1 4.71704 20.4427 14.1521
481 1 6.28936 18.8716 12.5795
482 1 7.86245 20.4416 14.1516
483 1 9.43453 18.8685 12.579
484 1 11.0066 20.4416 14.1516
485 1 12.5797 18.8716 12.5795
486 1 14.152 20.4427 14.1521
487 1 15.7255 18.8712 12.5799
488 1 17.2972 20.4424 14.1523
489 1 18.8696 18.8703 12.5798
490 1 20.4415 20.4422 14.1522
491 1 22.0137 0.000183733 15.7247
492 1 1.57189 1.57178 17.2973
493 1 3.14456 0.000115111 15.7246
494 1 4.71698 1.57146 17.2971
495 1 6.28986 22.0136 15.7242
496 1 7.86202 1.57145 17.2969
497 1 9.43453 22.0135 15.7242
498 1 11.007 1.57145 17.2969
499 1 12.5792 22.0136 15.7242
500 1 14.1521 1.57146 17.2971
501 1 15.7245 0.000115075 15.7246
502 1 17.2972 1.57178 17.2973
503 1 18.8693 0.000183734 15.7247
504 1 20.4415 1.5721 17.2971
505 1 22.0135 3.1442 15.7248
506 1 1.57073 4.7155 17.2985
507 1 3.14373 3.14314 15.7253
508 1 4.71569 4.715 17.2987
509 1 6.28935 3.14319 15.7248
510 1 7.86163 4.71539 17.298
511 1 9.43453 3.14324 15.7249
512 1 11.0074 4.71539 17.298
513 1 12.5797 3.14319 15.7248
514 1 14.1534 4.71499 17.2987
515 1 15.7253 3.14314 15.7253
516 1 17.2983 4.7155 17.2985
517 1 18.8695 3.14419 15.7248
518 1 20.4415 4.71638 17.2976
519 1 22.0126 6.2887 15.7254
520 1 1.57075 7.86122 17.2986
521 1 3.14017 6.2854 15.7287
522 1 4.71471 7.85995 17.3011
523 1 6.28717 6.28587 15.728
524 1 7.862 7.86049 17.2992
525 1 9.43453 6.28652 15.727
526 1 11.0071 7.86049 17.2992
527 1 12.5819 6.28587 15.728
528 1 14.1544 7.85995 17.3011
529 1 15.7289 6.2854 15.7287
530 1 17.2983 7.86122 17.2986
531 1 18.8703 6.2887 15.7254
532 1 20.4415 7.86163 17.2979
533 1 22.0126 9.43423 15.7258
534 1 1.57071 11.0071 17.2988
535 1 3.14082 9.43323 15.7283
536 1 4.71433 11.0071 17.3012
537 1 6.28553 9.43234 15.7338
538 1 7.86182 11.0069 17.2978
539 1 9.43453 9.43541 15.7234
540 1 11.0072 11.0069 17.2978
541 1 12.5835 9.43234 15.7338
542 1 14.1547 11.0071 17.3012
543 1 15.7282 9.43323 15.7283
544 1 17.2984 11.0071 17.2988
545 1 18.8703 9.43423 15.7258
546 1 20.4415 11.0071 17.2981
547 1 22.0125 12.58 15.7259
548 1 1.57073 14.153 17.2988
549 1 3.14043 12.5811 15.7286
550 1 4.71463 14.1545 17.3019
551 1 6.28469 12.5831 15.7353
552 1 7.86305 14.152 17.2973
553 1 9.43453 12.5769 15.7197
554 1 11.006 14.152 17.2973
555 1 12.5844 12.5831 15.7353
556 1 14.1544 14.1545 17.3019
557 1 15.7286 12.5811 15.7286
558 1 17.2983 14.153 17.2988
559 1 18.8704 12.58 15.7259
560 1 20.4415 14.1526 17.298
561 1 22.0125 15.7258 15.7258
562 1 1.57091 17.2987 17.2987
563 1 3.13971 15.7297 15.7297
564 1 4.71694 17.2979 17.2979
565 1 6.2896 15.7263 15.7263
566 1 7.86221 17.2972 17.2972
567 1 9.43453 15.7255 15.7255
568 1 11.0069 17.2972 17.2972
569 1 12.5795 15.7263 15.7263
570 1 14.1521 17.2979 17.2979
571 1 15.7294 15.7297 15.7297
572 1 17.2982 17.2987 17.2987
573 1 18.8705 15.7258 15.7258
574 1 20.4415 17.2978 17.2978
575 1 22.0134 18.8702 15.725
576 1 1.57198 20.4422 17.2974
577 1 3.14372 18.8712 15.7256
578 1 4.71732 20.4417 17.2969
579 1 6.29 18.8698 15.7245
580 1 7.86216 20.4414 17.2967
581 1 9.43453 18.8695 15.7245
582 1 11.0069 20.4414 17.2967
583 1 12.5791 18.8698 15.7245
584 1 14.1517 20.4417 17.2969
585 1 15.7253 18.8712 15.7256
586 1 17.2971 20.4422 17.2974
587 1 18.8695 18.8702 15.725
588 1 20.4415 20.442 17.2972
589 1 22.0137 22.0139 18.8695
590 1 1.57208 1.57179 20.4417
591 1 3.14469 22.0136 18.8693
592 1 4.71707 1.57172 20.4414
593 1 6.28966 22.0134 18.8691
594 1 7.86204 1.57165 20.4413
595 1 9.43453 22.0134 18.869
596 1 11.007 1.57165 20.4413
597 1 12.5794 22.0134 18.8691
598 1 14.152 1.57172 20.4414
599 1 15.7244 22.0136 18.8693
600 1 17.297 1.57179 20.4417
601 1 18.8693 22.0139 18.8695
602 1 20.4415 1.57198 20.4418
603 1 22.0134 3.144 18.8699
604 1 1.57181 4.71646 20.4421
605 1 3.14408 3.14362 18.8699
606 1 4.71674 4.71632 20.4419
607 1 6.28936 3.14371 18.8696
608 1 7.86193 4.71623 20.4416
609 1 9.43453 3.14369 18.8694
610 1 11.0071 4.71623 20.4416
611 1 12.5797 3.14371 18.8696
612 1 14.1523 4.71632 20.4419
613 1 15.725 3.14362 18.8699
614 1 17.2973 4.71646 20.4421
615 1 18.8695 3.144 18.8699
616 1 20.4415 4.71673 20.442
617 1 22.0134 6.28903 18.8701
618 1 1.57178 7.8617 20.4423
619 1 3.14354 6.28842 18.871
620 1 4.71676 7.86171 20.4426
621 1 6.28912 6.2885 18.8706
622 1 7.86222 7.86176 20.4419
623 1 9.43453 6.28824 18.8703
624 1 11.0068 7.86176 20.4419
625 1 12.5799 6.2885 18.8706
626 1 14.1523 7.86171 20.4426
627 1 15.7255 6.28842 18.871
628 1 17.2973 7.8617 20.4423
629 1 18.8696 6.28903 18.8701
630 1 20.4415 7.86181 20.4422
631 1 22.0134 9.43435 18.8703
632 1 1.57178 11.007 20.4424
633 1 3.14351 9.43413 18.8712
634 1 4.71668 11.007 20.4428
635 1 6.28917 9.43429 18.8714
636 1 7.86241 11.0068 20.442
637 1 9.43453 9.4342 18.8693
638 1 11.0067 11.0068 20.442
639 1 12.5799 9.43429 18.8714
640 1 14.1524 11.007 20.4428
641 1 15.7256 9.43413 18.8712
642 1 17.2973 11.007 20.4424
643 1 18.8696 9.43435 18.8703
644 1 20.4415 11.007 20.4423
645 1 22.0134 12.5798 18.8703
646 1 1.57189 14.1523 20.4424
647 1 3.14357 12.5799 18.8712
648 1 4.71704 14.1521 20.4427
649 1 6.28936 12.5795 18.8715
650 1 7.86245 14.1516 20.4416
651 1 9.43453 12.579 18.8685
652 1 11.0066 14.1516 20.4416
653 1 12.5797 12.5795 18.8715
654 1 14.152 14.1521 20.4427
655 1 15.7255 12.5799 18.8712
656 1 17.2972 14.1523 20.4424
657 1 18.8696 12.5798 18.8703
658 1 20.4415 14.1522 20.4422
659 1 22.0134 15.7251 18.8702
660 1 1.57198 17.2974 20.4422
661 1 3.14373 15.7256 18.8712
662 1 4.71732 17.2969 20.4417
663 1 6.29 15.7245 18.8698
664 1 7.86216 17.2967 20.4414
665 1 9.43453 15.7245 18.8695
666 1 11.0069 17.2967 20.4414
667 1 12.5791 15.7245 18.8698
668 1 14.1517 17.2969 20.4417
669 1 15.7253 15.7256 18.8712
670 1 17.2971 17.2974 20.4422
671 1 18.8695 15.7251 18.8702
672 1 20.4415 17.2972 20.442
673 1 22.0136 18.8699 18.8699
674 1 1.57227 20.4416 20.4416
675 1 3.14464 18.8697 18.8697
676 1 4.71727 20.4414 20.4414
677 1 6.28977 18.8692 18.8692
678 1 7.86212 20.4412 20.4412
679 1 9.43453 18.8691 18.8691
680 1 11.0069 20.4412 20.4412
681 1 12.5793 18.8692 18.8692
682 1 14.1518 20.4414 20.4414
683 1 15.7244 18.8697 18.8697
684 1 17.2968 20.4416 20.4416
685 1 18.8694 18.8699 18.8699
686 1 20.4415 20.4418 20.4418
687 3 9.43456 10.6495 10.6495
