ITEM: TIMESTEP
39
ITEM: NUMBER OF ATOMS
687
ITEM: BOX BOUNDS pp pp pp
0.0000000000000000e+00 2.2013900999999997e+01
0.0000000000000000e+00 2.2013900999999997e+01
0.0000000000000000e+00 2.2013900999999997e+01
ITEM: ATOMS id type x y z
1 1 22.0137 22.0135 -1.98736e-18
2 1 1.57185 1.57134 1.57208
3 1 3.14468 22.0132 1.59402e-17
4 1 4.71685 1.57111 1.57208
5 1 6.28959 22.013 1.76903e-15
6 1 7.86195 1.57095 1.57207
7 1 9.43453 22.0129 1.79412e-15
8 1 11.0071 1.57095 1.57207
9 1 12.5795 22.013 1.87537e-15
10 1 14.1522 1.57111 1.57208
11 1 15.7244 22.0132 4.04016e-16
12 1 17.2972 1.57134 1.57208
13 1 18.8692 22.0135 8.21557e-16
14 1 20.4415 1.5717 1.57218
15 1 22.0135 3.14385 1.75425e-16
16 1 1.57149 4.71602 1.57182
17 1 3.14401 3.14335 4.78983e-16
18 1 4.7161 4.71545 1.57114
19 1 6.28923 3.1432 1.80641e-15
20 1 7.86168 4.71525 1.57124
21 1 9.43453 3.1431 1.79648e-15
22 1 11.0074 4.71525 1.57124
23 1 12.5798 3.1432 1.56037e-15
24 1 14.153 4.71545 1.57114
25 1 15.7251 3.14335 1.14475e-15
26 1 17.2976 4.71602 1.57182
27 1 18.8694 3.14385 1.6089e-15
28 1 20.4415 4.71636 1.5721
29 1 22.0134 6.28888 1.71727e-15
30 1 1.57139 7.86144 1.57172
31 1 3.14381 6.28861 1.21805e-15
32 1 4.71609 7.86126 1.57101
33 1 6.28916 6.28848 1.80005e-15
34 1 7.86202 7.86123 1.57092
35 1 9.43453 6.2881 1.75475e-15
36 1 11.007 7.86123 1.57092
37 1 12.5799 6.28848 1.69661e-15
38 1 14.153 7.86126 1.57101
39 1 15.7252 6.28861 1.70042e-15
40 1 17.2977 7.86144 1.57172
41 1 18.8695 6.28888 1.63571e-15
42 1 20.4415 7.8616 1.57199
43 1 22.0134 9.43433 1.80048e-15
44 1 1.57143 11.0071 1.57167
45 1 3.14375 9.43422 1.79711e-15
46 1 4.71614 11.007 1.57104
47 1 6.2892 9.43418 1.80271e-15
48 1 7.86228 11.0064 1.57192
49 1 9.43453 9.43402 1.77732e-15
50 1 11.0068 11.0064 1.57192
51 1 12.5799 9.43418 1.90529e-15
52 1 14.1529 11.007 1.57104
53 1 15.7253 9.43422 1.86026e-15
54 1 17.2976 11.0071 1.57167
55 1 18.8696 9.43433 1.01485e-15
56 1 20.4415 11.0071 1.57192
57 1 22.0135 12.5799 7.62726e-16
58 1 1.57165 14.1527 1.57169
59 1 3.14398 12.5798 5.651e-16
60 1 4.71672 14.1525 1.57112
61 1 6.28969 12.5792 7.3719e-16
62 1 7.86229 14.1518 1.57201
63 1 9.43453 12.5791 1.93353e-16
64 1 11.0068 14.1518 1.57201
65 1 12.5794 12.5792 1.59842e-15
66 1 14.1523 14.1525 1.57112
67 1 15.7251 12.5798 1.35649e-15
68 1 17.2974 14.1527 1.57169
69 1 18.8695 12.5799 8.3247e-16
70 1 20.4415 14.1526 1.57195
71 1 22.0136 15.7251 1.66237e-15
72 1 1.57184 17.2978 1.57177
73 1 3.14433 15.7251 1.21177e-15
74 1 4.71731 17.297 1.57206
75 1 6.28984 15.7244 -1.59199e-17
76 1 7.86216 17.2967 1.57217
77 1 9.43453 15.7243 9.49473e-16
78 1 11.0069 17.2967 1.57217
79 1 12.5792 15.7244 -1.78007e-17
80 1 14.1518 17.297 1.57206
81 1 15.7247 15.7251 5.80138e-16
82 1 17.2972 17.2978 1.57177
83 1 18.8694 15.7251 1.08936e-15
84 1 20.4415 17.2976 1.57204
85 1 22.0137 18.8698 9.59531e-16
86 1 1.57226 20.4416 1.5722
87 1 3.14483 18.8693 1.06886e-17
88 1 4.71726 20.4411 1.5723
89 1 6.28975 18.8689 1.89319e-16
90 1 7.86211 20.4409 1.57231
91 1 9.43453 18.8688 1.18045e-15
92 1 11.0069 20.4409 1.57231
93 1 12.5793 18.8689 7.95845e-16
94 1 14.1518 20.4411 1.5723
95 1 15.7242 18.8693 5.1099e-16
96 1 17.2968 20.4416 1.5722
97 1 18.8693 18.8698 1.56573e-15
98 1 20.4415 20.4419 1.57225
99 1 22.0137 22.0138 3.14468
100 1 1.57188 1.57175 4.71704
101 1 3.1445 22.0132 3.14453
102 1 4.71644 1.57048 4.71655
103 1 6.28955 22.0129 3.14457
104 1 7.86184 1.5704 4.7165
105 1 9.43453 22.0128 3.14454
106 1 11.0072 1.5704 4.7165
107 1 12.5795 22.0129 3.14457
108 1 14.1526 1.57048 4.71655
109 1 15.7246 22.0132 3.14453
110 1 17.2972 1.57175 4.71704
111 1 18.8693 22.0138 3.14468
112 1 20.4415 1.57215 4.71725
113 1 22.0133 3.14371 3.14426
114 1 1.57023 4.71535 4.71579
115 1 3.14323 3.14265 3.14345
116 1 4.71275 4.71223 4.71281
117 1 6.28889 3.14266 3.14355
118 1 7.86073 4.71317 4.71371
119 1 9.43453 3.14257 3.14356
120 1 11.0083 4.71317 4.71371
121 1 12.5802 3.14266 3.14355
122 1 14.1563 4.71223 4.71281
123 1 15.7258 3.14265 3.14345
124 1 17.2988 4.71535 4.71579
125 1 18.8697 3.14371 3.14426
126 1 20.4415 4.71636 4.71676
127 1 22.0132 6.28881 3.14407
128 1 1.57029 7.86125 4.71556
129 1 3.14292 6.28807 3.14286
130 1 4.71346 7.85999 4.71248
131 1 6.28789 6.28722 3.14096
132 1 7.86053 7.85883 4.70929
133 1 9.43453 6.28663 3.14123
134 1 11.0085 7.85883 4.70929
135 1 12.5812 6.28722 3.14096
136 1 14.1556 7.85999 4.71248
137 1 15.7261 6.28807 3.14286
138 1 17.2988 7.86125 4.71556
139 1 18.8698 6.28881 3.14407
140 1 20.4415 7.86163 4.7164
141 1 22.0131 9.43435 3.14386
142 1 1.57031 11.0074 4.71534
143 1 3.14292 9.43413 3.14273
144 1 4.71349 11.0076 4.71259
145 1 6.2881 9.43415 3.14152
146 1 7.86153 11.0059 4.71529
147 1 9.43453 9.43376 3.14459
148 1 11.0075 11.0059 4.71529
149 1 12.581 9.43415 3.14152
150 1 14.1556 11.0076 4.71259
151 1 15.7261 9.43413 3.14273
152 1 17.2987 11.0074 4.71534
153 1 18.8698 9.43435 3.14386
154 1 20.4415 11.0073 4.71617
155 1 22.0132 12.58 3.14381
156 1 1.57044 14.1534 4.71534
157 1 3.14314 12.5802 3.14271
158 1 4.71365 14.1555 4.71164
159 1 6.28901 12.5796 3.142
160 1 7.86268 14.1519 4.7162
161 1 9.43453 12.579 3.14469
162 1 11.0064 14.1519 4.7162
163 1 12.58 12.5796 3.142
164 1 14.1554 14.1555 4.71164
165 1 15.7259 12.5802 3.14271
166 1 17.2986 14.1534 4.71534
167 1 18.8698 12.58 3.14381
168 1 20.4415 14.1529 4.71623
169 1 22.0133 15.7255 3.14391
170 1 1.57103 17.2988 4.71565
171 1 3.14337 15.7261 3.14265
172 1 4.71691 17.2981 4.71617
173 1 6.28985 15.7246 3.14396
174 1 7.8622 17.297 4.71665
175 1 9.43453 15.7244 3.14411
176 1 11.0069 17.297 4.71665
177 1 12.5792 15.7246 3.14396
178 1 14.1521 17.2981 4.71617
179 1 15.7257 15.7261 3.14265
180 1 17.298 17.2988 4.71565
181 1 18.8697 15.7255 3.14391
182 1 20.4415 17.2981 4.71643
183 1 22.0136 18.8701 3.14427
184 1 1.57211 20.4422 4.71692
185 1 3.14462 18.8697 3.1443
186 1 4.71731 20.4414 4.71714
187 1 6.28977 18.8691 3.14459
188 1 7.86216 20.4409 4.71714
189 1 9.43453 18.8689 3.1446
190 1 11.0069 20.4409 4.71714
191 1 12.5793 18.8691 3.14459
192 1 14.1517 20.4414 4.71714
193 1 15.7244 18.8697 3.1443
194 1 17.297 20.4422 4.71692
195 1 18.8694 18.8701 3.14427
196 1 20.4415 20.4422 4.7171
197 1 22.0138 0.00034568 6.28969
198 1 1.57216 1.57242 7.86219
199 1 3.14472 9.58597e-05 6.28973
200 1 4.71726 1.57202 7.86254
201 1 6.28979 22.0129 6.2898
202 1 7.86226 1.57091 7.86237
203 1 9.43453 22.0127 6.28961
204 1 11.0068 1.57091 7.86237
205 1 12.5793 22.0129 6.2898
206 1 14.1518 1.57202 7.86254
207 1 15.7243 9.58597e-05 6.28973
208 1 17.2969 1.57242 7.86219
209 1 18.8692 0.00034568 6.28969
210 1 20.4415 1.57256 7.86217
211 1 22.0135 3.14445 6.28973
212 1 1.57154 4.71684 7.86227
213 1 3.14375 3.14342 6.28933
214 1 4.71552 4.71512 7.8619
215 1 6.28793 3.14068 6.28796
216 1 7.85989 4.70899 7.85873
217 1 9.43453 3.14092 6.28768
218 1 11.0092 4.70899 7.85873
219 1 12.5811 3.14068 6.28796
220 1 14.1535 4.71512 7.8619
221 1 15.7253 3.14342 6.28933
222 1 17.2975 4.71684 7.86227
223 1 18.8694 3.14445 6.28973
224 1 20.4415 4.71708 7.86226
225 1 22.0126 6.28901 6.28915
226 1 1.56957 7.86186 7.86143
227 1 3.13922 6.28601 6.28607
228 1 4.70499 7.85535 7.85379
229 1 6.27703 6.27653 6.2766
230 1 7.82754 7.82286 7.82449
231 1 9.43453 6.27994 6.27994
232 1 11.0415 7.82286 7.82449
233 1 12.592 6.27653 6.2766
234 1 14.1641 7.85535 7.85379
235 1 15.7298 6.28601 6.28607
236 1 17.2995 7.86186 7.86143
237 1 18.8704 6.28901 6.28915
238 1 20.4415 7.86225 7.86211
239 1 22.0125 9.43445 6.28856
240 1 1.5691 11.0073 7.86052
241 1 3.14017 9.43387 6.28591
242 1 4.70655 11.0081 7.85505
243 1 6.28263 9.43338 6.27897
244 1 7.83568 11.0218 7.85208
245 1 9.43453 9.42985 6.29411
246 1 11.0334 11.0218 7.85208
247 1 12.5864 9.43338 6.27897
248 1 14.1625 11.0081 7.85505
249 1 15.7289 9.43387 6.28591
250 1 17.3 11.0073 7.86052
251 1 18.8704 9.43445 6.28856
252 1 20.4415 11.0073 7.86162
253 1 22.0125 12.5802 6.28851
254 1 1.56854 14.1543 7.86031
255 1 3.14005 12.5815 6.28588
256 1 4.70418 14.1649 7.84946
257 1 6.28137 12.5861 6.27741
258 1 7.86444 14.1534 7.86105
259 1 9.43453 12.5766 6.29152
260 1 11.0046 14.1534 7.86105
261 1 12.5877 12.5861 6.27741
262 1 14.1649 14.1649 7.84946
263 1 15.729 12.5815 6.28588
264 1 17.3005 14.1543 7.86031
265 1 18.8705 12.5802 6.28851
266 1 20.4415 14.153 7.86158
267 1 22.0126 15.726 6.28852
268 1 1.57113 17.2988 7.86131
269 1 3.14039 15.7293 6.28517
270 1 4.71554 17.3008 7.86035
271 1 6.28947 15.7264 6.28795
272 1 7.86318 17.2965 7.86218
273 1 9.43453 15.7248 6.28812
274 1 11.0059 17.2965 7.86218
275 1 12.5796 15.7264 6.28795
276 1 14.1535 17.3008 7.86035
277 1 15.7287 15.7293 6.28517
278 1 17.2979 17.2988 7.86131
279 1 18.8703 15.726 6.28852
280 1 20.4415 17.2983 7.86165
281 1 22.0136 18.8704 6.28928
282 1 1.57215 20.4425 7.86197
283 1 3.14412 18.871 6.28886
284 1 4.71738 20.4424 7.86221
285 1 6.29012 18.8695 6.28968
286 1 7.86256 20.4411 7.86251
287 1 9.43453 18.869 6.28948
288 1 11.0065 20.4411 7.86251
289 1 12.5789 18.8695 6.28968
290 1 14.1517 20.4424 7.86221
291 1 15.7249 18.871 6.28886
292 1 17.2969 20.4425 7.86197
293 1 18.8694 18.8704 6.28928
294 1 20.4415 20.4424 7.86201
295 1 22.0138 0.000592547 9.43454
296 1 1.57218 1.57263 11.007
297 1 3.14472 0.000534261 9.43458
298 1 4.71706 1.57252 11.007
299 1 6.29009 0.000393431 9.43498
300 1 7.86241 1.57394 11.007
301 1 9.43453 2.44918e-05 9.43507
302 1 11.0067 1.57394 11.007
303 1 12.579 0.000393431 9.43498
304 1 14.152 1.57252 11.007
305 1 15.7243 0.000534261 9.43458
306 1 17.2969 1.57263 11.007
307 1 18.8692 0.000592547 9.43454
308 1 20.4415 1.57269 11.007
309 1 22.0137 3.14479 9.43458
310 1 1.57169 4.71704 11.007
311 1 3.14423 3.14449 9.43462
312 1 4.71569 4.71665 11.007
313 1 6.28976 3.14497 9.43561
314 1 7.86322 4.72397 11.007
315 1 9.43453 3.14565 9.43533
316 1 11.0058 4.72397 11.007
317 1 12.5793 3.14497 9.43561
318 1 14.1534 4.71665 11.007
319 1 15.7248 3.14449 9.43462
320 1 17.2974 4.71704 11.007
321 1 18.8693 3.14479 9.43458
322 1 20.4415 4.7172 11.007
323 1 22.0135 6.2897 9.43471
324 1 1.57227 7.86244 11.007
325 1 3.14377 6.28959 9.4351
326 1 4.7191 7.86487 11.007
327 1 6.28863 6.28807 9.43686
328 1 7.87121 7.88926 11.007
329 1 9.43453 6.28735 9.42701
330 1 10.9979 7.88926 11.007
331 1 12.5804 6.28807 9.43686
332 1 14.15 7.86487 11.007
333 1 15.7253 6.28959 9.4351
334 1 17.2968 7.86244 11.007
335 1 18.8695 6.2897 9.43471
336 1 20.4415 7.86233 11.007
337 1 22.0134 9.43505 9.43471
338 1 1.57217 11.0077 11.007
339 1 3.14287 9.43553 9.43395
340 1 4.72169 11.0116 11.007
341 1 6.27966 9.41964 9.4081
342 1 7.62813 11.0809 11.007
343 1 9.43453 9.36055 9.20055
344 1 11.2409 11.0809 11.007
345 1 12.5894 9.41964 9.4081
346 1 14.1474 11.0116 11.007
347 1 15.7262 9.43553 9.43395
348 1 17.2969 11.0077 11.007
349 1 18.8696 9.43505 9.43471
350 1 20.4415 11.0075 11.007
351 1 22.0124 12.5802 9.43444
352 1 1.56881 14.1548 11.007
353 1 3.13687 12.5826 9.43295
354 1 4.70752 14.1615 11.007
355 1 6.25207 12.6186 9.39996
356 1 7.85459 14.1541 11.007
357 1 9.43453 12.5522 9.44363
358 1 11.0145 14.1541 11.007
359 1 12.617 12.6186 9.39996
360 1 14.1615 14.1615 11.007
361 1 15.7322 12.5826 9.43295
362 1 17.3003 14.1548 11.007
363 1 18.8706 12.5802 9.43444
364 1 20.4415 14.1534 11.007
365 1 22.0127 15.7262 9.4341
366 1 1.57114 17.2989 11.007
367 1 3.14129 15.7283 9.43315
368 1 4.71526 17.3006 11.007
369 1 6.2863 15.7325 9.43231
370 1 7.86291 17.2958 11.007
371 1 9.43453 15.7175 9.43564
372 1 11.0061 17.2958 11.007
373 1 12.5828 15.7325 9.43231
374 1 14.1538 17.3006 11.007
375 1 15.7278 15.7283 9.43315
376 1 17.2979 17.2989 11.007
377 1 18.8702 15.7262 9.4341
378 1 20.4415 17.2984 11.007
379 1 22.0136 18.8705 9.43437
380 1 1.57212 20.4426 11.007
381 1 3.14407 18.8711 9.43426
382 1 4.71719 20.4427 11.007
383 1 6.28995 18.8706 9.43469
384 1 7.86264 20.4415 11.007
385 1 9.43453 18.8675 9.43483
386 1 11.0064 20.4415 11.007
387 1 12.5791 18.8706 9.43469
388 1 14.1519 20.4427 11.007
389 1 15.725 18.8711 9.43426
390 1 17.2969 20.4426 11.007
391 1 18.8694 18.8705 9.43437
392 1 20.4415 20.4425 11.007
393 1 22.0138 0.000592547 12.5794
394 1 1.57216 1.57242 14.1517
395 1 3.14472 0.000534261 12.5793
396 1 4.71726 1.57202 14.1514
397 1 6.29009 0.000393431 12.5789
398 1 7.86226 1.57091 14.1515
399 1 9.43453 2.44918e-05 12.5788
400 1 11.0068 1.57091 14.1515
401 1 12.579 0.000393431 12.5789
402 1 14.1518 1.57202 14.1514
403 1 15.7243 0.000534261 12.5793
404 1 17.2969 1.57242 14.1517
405 1 18.8692 0.000592547 12.5794
406 1 20.4415 1.57256 14.1517
407 1 22.0137 3.14479 12.5793
408 1 1.57154 4.71684 14.1516
409 1 3.14423 3.14449 12.5793
410 1 4.71552 4.71512 14.152
411 1 6.28976 3.14497 12.5783
412 1 7.85989 4.70899 14.1552
413 1 9.43453 3.14565 12.5786
414 1 11.0092 4.70899 14.1552
415 1 12.5793 3.14497 12.5783
416 1 14.1535 4.71512 14.152
417 1 15.7248 3.14449 12.5793
418 1 17.2975 4.71684 14.1516
419 1 18.8693 3.14479 12.5793
420 1 20.4415 4.71708 14.1516
421 1 22.0135 6.2897 12.5792
422 1 1.56957 7.86186 14.1525
423 1 3.14377 6.28959 12.5788
424 1 4.70499 7.85535 14.1601
425 1 6.28863 6.28807 12.577
426 1 7.82754 7.82286 14.1894
427 1 9.43453 6.28735 12.5869
428 1 11.0415 7.82286 14.1894
429 1 12.5804 6.28807 12.577
430 1 14.1641 7.85535 14.1601
431 1 15.7253 6.28959 12.5788
432 1 17.2995 7.86186 14.1525
433 1 18.8695 6.2897 12.5792
434 1 20.4415 7.86225 14.1518
435 1 22.0134 9.43505 12.5792
436 1 1.5691 11.0073 14.1534
437 1 3.14287 9.43553 12.58
438 1 4.70655 11.0081 14.1589
439 1 6.27966 9.41964 12.6058
440 1 7.83568 11.0218 14.1618
441 1 9.43453 9.36055 12.8133
442 1 11.0334 11.0218 14.1618
443 1 12.5894 9.41964 12.6058
444 1 14.1625 11.0081 14.1589
445 1 15.7262 9.43553 12.58
446 1 17.3 11.0073 14.1534
447 1 18.8696 9.43505 12.5792
448 1 20.4415 11.0073 14.1523
449 1 22.0124 12.5802 12.5795
450 1 1.56854 14.1543 14.1536
451 1 3.13687 12.5826 12.581
452 1 4.70418 14.1649 14.1644
453 1 6.25207 12.6186 12.6139
454 1 7.86444 14.1534 14.1528
455 1 9.43453 12.5522 12.5703
456 1 11.0046 14.1534 14.1528
457 1 12.617 12.6186 12.6139
458 1 14.1649 14.1649 14.1644
459 1 15.7322 12.5826 12.581
460 1 17.3005 14.1543 14.1536
461 1 18.8706 12.5802 12.5795
462 1 20.4415 14.153 14.1523
463 1 22.0127 15.7262 12.5798
464 1 1.57113 17.2988 14.1526
465 1 3.14129 15.7283 12.5808
466 1 4.71554 17.3008 14.1535
467 1 6.2863 15.7325 12.5816
468 1 7.86318 17.2965 14.1517
469 1 9.43453 15.7175 12.5783
470 1 11.0059 17.2965 14.1517
471 1 12.5828 15.7325 12.5816
472 1 14.1535 17.3008 14.1535
473 1 15.7278 15.7283 12.5808
474 1 17.2979 17.2988 14.1526
475 1 18.8702 15.7262 12.5798
476 1 20.4415 17.2983 14.1523
477 1 22.0136 18.8705 12.5795
478 1 1.57215 20.4425 14.1519
479 1 3.14407 18.8711 12.5796
480 1 4.71738 20.4424 14.1517
481 1 6.28995 18.8706 12.5792
482 1 7.86256 20.4411 14.1514
483 1 9.43453 18.8675 12.5791
484 1 11.0065 20.4411 14.1514
485 1 12.5791 18.8706 12.5792
486 1 14.1517 20.4424 14.1517
487 1 15.725 18.8711 12.5796
488 1 17.2969 20.4425 14.1519
489 1 18.8694 18.8705 12.5795
490 1 20.4415 20.4424 14.1519
491 1 22.0138 0.00034568 15.7242
492 1 1.57188 1.57175 17.2969
493 1 3.14472 9.58597e-05 15.7242
494 1 4.71644 1.57048 17.2974
495 1 6.28979 22.0129 15.7241
496 1 7.86184 1.5704 17.2974
497 1 9.43453 22.0127 15.7243
498 1 11.0072 1.5704 17.2974
499 1 12.5793 22.0129 15.7241
500 1 14.1526 1.57048 17.2974
501 1 15.7243 9.58597e-05 15.7242
502 1 17.2972 1.57175 17.2969
503 1 18.8692 0.00034568 15.7242
504 1 20.4415 1.57215 17.2966
505 1 22.0135 3.14445 15.7242
506 1 1.57023 4.71535 17.2981
507 1 3.14375 3.14342 15.7246
508 1 4.71275 4.71223 17.3011
509 1 6.28793 3.14068 15.7259
510 1 7.86073 4.71317 17.3002
511 1 9.43453 3.14092 15.7262
512 1 11.0083 4.71317 17.3002
513 1 12.5811 3.14068 15.7259
514 1 14.1563 4.71223 17.3011
515 1 15.7253 3.14342 15.7246
516 1 17.2988 4.71535 17.2981
517 1 18.8694 3.14445 15.7242
518 1 20.4415 4.71636 17.2971
519 1 22.0126 6.28901 15.7248
520 1 1.57029 7.86125 17.2983
521 1 3.13922 6.28601 15.7278
522 1 4.71346 7.85999 17.3014
523 1 6.27703 6.27653 15.7373
524 1 7.86053 7.85883 17.3046
525 1 9.43453 6.27994 15.734
526 1 11.0085 7.85883 17.3046
527 1 12.592 6.27653 15.7373
528 1 14.1556 7.85999 17.3014
529 1 15.7298 6.28601 15.7278
530 1 17.2988 7.86125 17.2983
531 1 18.8704 6.28901 15.7248
532 1 20.4415 7.86163 17.2975
533 1 22.0125 9.43445 15.7253
534 1 1.57031 11.0074 17.2986
535 1 3.14017 9.43387 15.728
536 1 4.71349 11.0076 17.3013
537 1 6.28263 9.43338 15.7349
538 1 7.86153 11.0059 17.2986
539 1 9.43453 9.42985 15.7198
540 1 11.0075 11.0059 17.2986
541 1 12.5864 9.43338 15.7349
542 1 14.1556 11.0076 17.3013
543 1 15.7289 9.43387 15.728
544 1 17.2987 11.0074 17.2986
545 1 18.8704 9.43445 15.7253
546 1 20.4415 11.0073 17.2977
547 1 22.0125 12.5802 15.7254
548 1 1.57044 14.1534 17.2986
549 1 3.14005 12.5815 15.728
550 1 4.71365 14.1555 17.3023
551 1 6.28137 12.5861 15.7365
552 1 7.86268 14.1519 17.2977
553 1 9.43453 12.5766 15.7224
554 1 11.0064 14.1519 17.2977
555 1 12.5877 12.5861 15.7365
556 1 14.1554 14.1555 17.3023
557 1 15.729 12.5815 15.728
558 1 17.2986 14.1534 17.2986
559 1 18.8705 12.5802 15.7254
560 1 20.4415 14.1529 17.2977
561 1 22.0126 15.726 15.7254
562 1 1.57103 17.2988 17.2983
563 1 3.14039 15.7293 15.7287
564 1 4.71691 17.2981 17.2977
565 1 6.28947 15.7264 15.726
566 1 7.8622 17.297 17.2972
567 1 9.43453 15.7248 15.7258
568 1 11.0069 17.297 17.2972
569 1 12.5796 15.7264 15.726
570 1 14.1521 17.2981 17.2977
571 1 15.7287 15.7293 15.7287
572 1 17.298 17.2988 17.2983
573 1 18.8703 15.726 15.7254
574 1 20.4415 17.2981 17.2975
575 1 22.0136 18.8704 15.7246
576 1 1.57211 20.4422 17.297
577 1 3.14412 18.871 15.725
578 1 4.71731 20.4414 17.2968
579 1 6.29012 18.8695 15.7242
580 1 7.86216 20.4409 17.2968
581 1 9.43453 18.869 15.7244
582 1 11.0069 20.4409 17.2968
583 1 12.5789 18.8695 15.7242
584 1 14.1517 20.4414 17.2968
585 1 15.7249 18.871 15.725
586 1 17.297 20.4422 17.297
587 1 18.8694 18.8704 15.7246
588 1 20.4415 20.4422 17.2968
589 1 22.0137 22.0138 18.8692
590 1 1.57185 1.57134 20.4418
591 1 3.1445 22.0132 18.8694
592 1 4.71685 1.57111 20.4418
593 1 6.28955 22.0129 18.8693
594 1 7.86195 1.57095 20.4418
595 1 9.43453 22.0128 18.8694
596 1 11.0071 1.57095 20.4418
597 1 12.5795 22.0129 18.8693
598 1 14.1522 1.57111 20.4418
599 1 15.7246 22.0132 18.8694
600 1 17.2972 1.57134 20.4418
601 1 18.8693 22.0138 18.8692
602 1 20.4415 1.5717 20.4417
603 1 22.0133 3.14371 18.8696
604 1 1.57149 4.71602 20.4421
605 1 3.14323 3.14265 18.8705
606 1 4.7161 4.71545 20.4428
607 1 6.28889 3.14266 18.8704
608 1 7.86168 4.71525 20.4427
609 1 9.43453 3.14257 18.8703
610 1 11.0074 4.71525 20.4427
611 1 12.5802 3.14266 18.8704
612 1 14.153 4.71545 20.4428
613 1 15.7258 3.14265 18.8705
614 1 17.2976 4.71602 20.4421
615 1 18.8697 3.14371 18.8696
616 1 20.4415 4.71636 20.4418
617 1 22.0132 6.28881 18.8698
618 1 1.57139 7.86144 20.4422
619 1 3.14292 6.28807 18.871
620 1 4.71609 7.86126 20.4429
621 1 6.28789 6.28722 18.8729
622 1 7.86202 7.86123 20.443
623 1 9.43453 6.28663 18.8727
624 1 11.007 7.86123 20.443
625 1 12.5812 6.28722 18.8729
626 1 14.153 7.86126 20.4429
627 1 15.7261 6.28807 18.871
628 1 17.2977 7.86144 20.4422
629 1 18.8698 6.28881 18.8698
630 1 20.4415 7.8616 20.4419
631 1 22.0131 9.43435 18.87
632 1 1.57143 11.0071 20.4422
633 1 3.14292 9.43413 18.8712
634 1 4.71614 11.007 20.4429
635 1 6.2881 9.43415 18.8724
636 1 7.86228 11.0064 20.442
637 1 9.43453 9.43376 18.8693
638 1 11.0068 11.0064 20.442
639 1 12.581 9.43415 18.8724
640 1 14.1529 11.007 20.4429
641 1 15.7261 9.43413 18.8712
642 1 17.2976 11.0071 20.4422
643 1 18.8698 9.43435 18.87
644 1 20.4415 11.0071 20.442
645 1 22.0132 12.58 18.8701
646 1 1.57165 14.1527 20.4422
647 1 3.14314 12.5802 18.8712
648 1 4.71672 14.1525 20.4428
649 1 6.28901 12.5796 18.8719
650 1 7.86229 14.1518 20.4419
651 1 9.43453 12.579 18.8692
652 1 11.0068 14.1518 20.4419
653 1 12.58 12.5796 18.8719
654 1 14.1523 14.1525 20.4428
655 1 15.7259 12.5802 18.8712
656 1 17.2974 14.1527 20.4422
657 1 18.8698 12.58 18.8701
658 1 20.4415 14.1526 20.442
659 1 22.0133 15.7255 18.87
660 1 1.57184 17.2978 20.4421
661 1 3.14337 15.7261 18.8713
662 1 4.71731 17.297 20.4418
663 1 6.28985 15.7246 18.8699
664 1 7.86216 17.2967 20.4417
665 1 9.43453 15.7244 18.8698
666 1 11.0069 17.2967 20.4417
667 1 12.5792 15.7246 18.8699
668 1 14.1518 17.297 20.4418
669 1 15.7257 15.7261 18.8713
670 1 17.2972 17.2978 20.4421
671 1 18.8697 15.7255 18.87
672 1 20.4415 17.2976 20.4419
673 1 22.0136 18.8701 18.8696
674 1 1.57226 20.4416 20.4417
675 1 3.14462 18.8697 18.8696
676 1 4.71726 20.4411 20.4416
677 1 6.28977 18.8691 18.8693
678 1 7.86211 20.4409 20.4416
679 1 9.43453 18.8689 18.8693
680 1 11.0069 20.4409 20.4416
681 1 12.5793 18.8691 18.8693
682 1 14.1518 20.4411 20.4416
683 1 15.7244 18.8697 18.8696
684 1 17.2968 20.4416 20.4417
685 1 18.8694 18.8701 18.8696
686 1 20.4415 20.4419 20.4416
687 3 9.43453 10.2207 11.007
