ITEM: TIMESTEP
39
ITEM: NUMBER OF ATOMS
687
ITEM: BOX BOUNDS pp pp pp
0.0000000000000000e+00 2.2013900999999997e+01
0.0000000000000000e+00 2.2013900999999997e+01
0.0000000000000000e+00 2.2013900999999997e+01
ITEM: ATOMS id type x y z
1 1 22.0137 22.0138 22.0136
2 1 1.57184 1.57182 1.57156
3 1 3.14469 22.0137 22.0134
4 1 4.71685 1.57175 1.57141
5 1 6.28959 22.0136 22.0133
6 1 7.86195 1.57169 1.57129
7 1 9.43453 22.0136 22.0132
8 1 11.0071 1.57169 1.57129
9 1 12.5795 22.0136 22.0133
10 1 14.1522 1.57175 1.57141
11 1 15.7244 22.0137 22.0134
12 1 17.2972 1.57182 1.57156
13 1 18.8692 22.0138 22.0136
14 1 20.4415 1.57202 1.57184
15 1 22.0136 3.14441 22.0138
16 1 1.57175 4.71671 1.57176
17 1 3.14434 3.14415 22.0134
18 1 4.71628 4.71615 1.57058
19 1 6.28945 3.14413 22.0132
20 1 7.86177 4.71605 1.57056
21 1 9.43453 3.14408 22.0131
22 1 11.0073 4.71605 1.57056
23 1 12.5796 3.14413 22.0132
24 1 14.1528 4.71615 1.57058
25 1 15.7247 3.14415 22.0134
26 1 17.2973 4.71671 1.57176
27 1 18.8693 3.14441 22.0138
28 1 20.4415 4.71697 1.57213
29 1 22.0137 6.28943 0.000234293
30 1 1.57192 7.86197 1.57219
31 1 3.14444 6.28938 6.07165e-05
32 1 4.7169 7.8622 1.57169
33 1 6.28957 6.28936 22.0131
34 1 7.8622 7.86205 1.57074
35 1 9.43453 6.28911 22.013
36 1 11.0069 7.86205 1.57074
37 1 12.5795 6.28936 22.0131
38 1 14.1522 7.8622 1.57169
39 1 15.7246 6.28937 6.10834e-05
40 1 17.2971 7.86196 1.57219
41 1 18.8693 6.28943 0.000234524
42 1 20.4415 7.862 1.57238
43 1 22.0137 9.43447 0.000409038
44 1 1.57195 11.007 1.57232
45 1 3.14442 9.43448 0.000376503
46 1 4.71681 11.0071 1.57212
47 1 6.28982 9.43476 0.000315108
48 1 7.86242 11.0069 1.57369
49 1 9.43453 9.43477 0.000120207
50 1 11.0066 11.0069 1.57369
51 1 12.5792 9.43476 0.000313857
52 1 14.1523 11.0071 1.57212
53 1 15.7246 9.43448 0.000376839
54 1 17.2971 11.007 1.57232
55 1 18.8693 9.43447 0.000409108
56 1 20.4415 11.007 1.57245
57 1 22.0137 12.5795 0.000410038
58 1 1.57202 14.152 1.5722
59 1 3.14449 12.5795 0.000386093
60 1 4.7172 14.1517 1.57194
61 1 6.28999 12.579 0.000465559
62 1 7.86233 14.1515 1.57175
63 1 9.43453 12.579 0.00028021
64 1 11.0067 14.1515 1.57175
65 1 12.5791 12.579 0.000464299
66 1 14.1519 14.1517 1.57194
67 1 15.7246 12.5795 0.00038643
68 1 17.297 14.152 1.5722
69 1 18.8693 12.5795 0.000410105
70 1 20.4415 14.152 1.57237
71 1 22.0137 15.7245 0.000241264
72 1 1.5719 17.2971 1.57178
73 1 3.14462 15.7245 0.000118969
74 1 4.7168 17.2972 1.57114
75 1 6.28984 15.7242 22.0134
76 1 7.86196 17.2971 1.5711
77 1 9.43453 15.7243 22.0132
78 1 11.0071 17.2971 1.5711
79 1 12.5792 15.7242 22.0134
80 1 14.1523 17.2972 1.57114
81 1 15.7244 15.7245 0.000119344
82 1 17.2972 17.2971 1.57178
83 1 18.8693 15.7245 0.000241496
84 1 20.4415 17.297 1.57212
85 1 22.0137 18.8694 22.0138
86 1 1.572 20.4417 1.57163
87 1 3.14463 18.8693 22.0134
88 1 4.71699 20.4416 1.57151
89 1 6.28962 18.8692 22.0132
90 1 7.86201 20.4415 1.57141
91 1 9.43453 18.8692 22.0132
92 1 11.0071 20.4415 1.57141
93 1 12.5794 18.8692 22.0132
94 1 14.1521 20.4416 1.57151
95 1 15.7244 18.8693 22.0134
96 1 17.2971 20.4417 1.57163
97 1 18.8693 18.8694 22.0138
98 1 20.4415 20.4418 1.57188
99 1 22.0136 22.0139 3.14411
100 1 1.57161 1.57178 4.71635
101 1 3.14417 22.0136 3.14373
102 1 4.71617 1.57082 4.71577
103 1 6.28934 22.0135 3.14365
104 1 7.86172 1.57085 4.71562
105 1 9.43453 22.0135 3.14357
106 1 11.0073 1.57085 4.71562
107 1 12.5797 22.0135 3.14365
108 1 14.1529 1.57083 4.71577
109 1 15.7249 22.0136 3.14373
110 1 17.2974 1.57178 4.71635
111 1 18.8694 22.0139 3.14411
112 1 20.4415 1.57211 4.71665
113 1 22.0132 3.14406 3.14386
114 1 1.57008 4.71555 4.71539
115 1 3.14313 3.14309 3.14281
116 1 4.71228 4.71218 4.71196
117 1 6.28886 3.14318 3.14288
118 1 7.86062 4.71318 4.71301
119 1 9.43453 3.14316 3.14281
120 1 11.0084 4.71318 4.71301
121 1 12.5802 3.14318 3.14288
122 1 14.1568 4.71218 4.71196
123 1 15.7259 3.14309 3.14281
124 1 17.299 4.71555 4.71539
125 1 18.8697 3.14406 3.14386
126 1 20.4415 4.7166 4.71646
127 1 22.0134 6.28944 3.14432
128 1 1.57111 7.86198 4.71638
129 1 3.14346 6.28896 3.14318
130 1 4.71482 7.86152 4.71407
131 1 6.28774 6.28757 3.14035
132 1 7.85978 7.8584 4.70779
133 1 9.43453 6.28717 3.14061
134 1 11.0093 7.8584 4.70779
135 1 12.5813 6.28757 3.14035
136 1 14.1542 7.86152 4.71407
137 1 15.7256 6.28896 3.14318
138 1 17.2979 7.86198 4.71638
139 1 18.8695 6.28944 3.14432
140 1 20.4415 7.86207 4.71685
141 1 22.0135 9.43453 3.14449
142 1 1.5713 11.0072 4.71649
143 1 3.14383 9.43457 3.14393
144 1 4.71523 11.0076 4.71554
145 1 6.28929 9.43543 3.14393
146 1 7.86302 11.0064 4.72315
147 1 9.43453 9.4351 3.14541
148 1 11.006 11.0064 4.72315
149 1 12.5798 9.43543 3.14393
150 1 14.1538 11.0076 4.71554
151 1 15.7252 9.43457 3.14393
152 1 17.2978 11.0072 4.71649
153 1 18.8695 9.43453 3.14449
154 1 20.4415 11.0071 4.71688
155 1 22.0135 12.5796 3.14449
156 1 1.57137 14.1522 4.7164
157 1 3.14395 12.5797 3.14396
158 1 4.71577 14.1527 4.71464
159 1 6.28993 12.5787 3.14482
160 1 7.86166 14.1533 4.71397
161 1 9.43453 12.5786 3.1466
162 1 11.0074 14.1533 4.71397
163 1 12.5791 12.5787 3.14482
164 1 14.1533 14.1527 4.71464
165 1 15.7251 12.5797 3.14396
166 1 17.2977 14.1522 4.7164
167 1 18.8694 12.5796 3.14449
168 1 20.4415 14.152 4.71682
169 1 22.0135 15.7246 3.1443
170 1 1.5706 17.2983 4.71548
171 1 3.1438 15.725 3.1433
172 1 4.71478 17.2994 4.71417
173 1 6.28887 15.7252 3.14242
174 1 7.86135 17.2986 4.71472
175 1 9.43453 15.7253 3.14253
176 1 11.0077 17.2986 4.71472
177 1 12.5802 15.7252 3.14242
178 1 14.1543 17.2994 4.71417
179 1 15.7253 15.725 3.1433
180 1 17.2985 17.2983 4.71548
181 1 18.8695 15.7246 3.14429
182 1 20.4415 17.2975 4.71638
183 1 22.0134 18.8698 3.1439
184 1 1.5717 20.4421 4.71631
185 1 3.14381 18.8701 3.14331
186 1 4.71652 20.4422 4.71602
187 1 6.2892 18.8698 3.14336
188 1 7.86184 20.442 4.7159
189 1 9.43453 18.8697 3.14333
190 1 11.0072 20.442 4.7159
191 1 12.5799 18.8698 3.14336
192 1 14.1525 20.4422 4.71602
193 1 15.7253 18.8701 3.14331
194 1 17.2974 20.4421 4.71631
195 1 18.8696 18.8698 3.1439
196 1 20.4415 20.4419 4.7166
197 1 22.0135 0.000110637 6.28914
198 1 1.57165 1.57193 7.86169
199 1 3.14412 4.56615e-06 6.28898
200 1 4.71648 1.57128 7.86172
201 1 6.28935 22.0135 6.2889
202 1 7.86215 1.57086 7.86167
203 1 9.43453 22.0134 6.28859
204 1 11.0069 1.57086 7.86167
205 1 12.5797 22.0135 6.2889
206 1 14.1526 1.57128 7.86172
207 1 15.7249 4.59037e-06 6.28898
208 1 17.2974 1.57193 7.86169
209 1 18.8694 0.000110629 6.28914
210 1 20.4415 1.57217 7.86179
211 1 22.0133 3.14417 6.28911
212 1 1.57062 4.7159 7.86157
213 1 3.14316 3.14297 6.28849
214 1 4.714 4.71302 7.86067
215 1 6.28782 3.14054 6.28739
216 1 7.86042 4.70853 7.85876
217 1 9.43453 3.14077 6.28681
218 1 11.0086 4.70853 7.85876
219 1 12.5812 3.14054 6.2874
220 1 14.1551 4.71302 7.86067
221 1 15.7259 3.14297 6.28849
222 1 17.2984 4.71589 7.86157
223 1 18.8697 3.14417 6.28911
224 1 20.4415 4.71659 7.86183
225 1 22.0125 6.28905 6.289
226 1 1.56915 7.86143 7.86155
227 1 3.13864 6.28569 6.28564
228 1 4.70303 7.85301 7.85351
229 1 6.27532 6.27486 6.2748
230 1 7.82276 7.81936 7.81768
231 1 9.43453 6.27871 6.27852
232 1 11.0463 7.81936 7.81768
233 1 12.5937 6.27486 6.2748
234 1 14.166 7.85301 7.85351
235 1 15.7304 6.28569 6.28564
236 1 17.2999 7.86143 7.86155
237 1 18.8705 6.28905 6.289
238 1 20.4415 7.86212 7.86216
239 1 22.0132 9.43466 6.28928
240 1 1.57115 11.0071 7.86169
241 1 3.14251 9.43487 6.28822
242 1 4.7149 11.007 7.86158
243 1 6.28676 9.43648 6.28489
244 1 7.8636 11.0015 7.88942
245 1 9.43453 9.42602 6.28819
246 1 11.0055 11.0015 7.88942
247 1 12.5823 9.43648 6.28489
248 1 14.1542 11.007 7.86158
249 1 15.7266 9.43487 6.28822
250 1 17.2979 11.0071 7.86169
251 1 18.8698 9.43466 6.28928
252 1 20.4415 11.0071 7.86205
253 1 22.0132 12.5796 6.2893
254 1 1.56937 14.1532 7.86118
255 1 3.1432 12.5798 6.28855
256 1 4.70622 14.162 7.85315
257 1 6.28956 12.5789 6.28789
258 1 7.85191 14.1687 7.84758
259 1 9.43453 12.5791 6.29431
260 1 11.0172 14.1687 7.84758
261 1 12.5795 12.5789 6.28789
262 1 14.1628 14.162 7.85315
263 1 15.7259 12.5798 6.28855
264 1 17.2997 14.1532 7.86118
265 1 18.8697 12.5796 6.2893
266 1 20.4415 14.1522 7.86197
267 1 22.0127 15.7252 6.28882
268 1 1.57063 17.2985 7.86123
269 1 3.14009 15.7282 6.28577
270 1 4.71443 17.301 7.86005
271 1 6.28412 15.7306 6.28318
272 1 7.86102 17.3014 7.85949
273 1 9.43453 15.729 6.2848
274 1 11.008 17.3014 7.85949
275 1 12.5849 15.7306 6.28319
276 1 14.1546 17.301 7.86005
277 1 15.729 15.7282 6.28577
278 1 17.2984 17.2985 7.86123
279 1 18.8703 15.7252 6.28882
280 1 20.4415 17.2978 7.86162
281 1 22.0133 18.87 6.28895
282 1 1.57165 20.4423 7.86161
283 1 3.14336 18.871 6.28832
284 1 4.71654 20.4427 7.86156
285 1 6.28864 18.8714 6.28801
286 1 7.8621 20.4424 7.86153
287 1 9.43453 18.8711 6.28774
288 1 11.007 20.4424 7.86154
289 1 12.5804 18.8714 6.28801
290 1 14.1525 20.4427 7.86156
291 1 15.7257 18.871 6.28832
292 1 17.2974 20.4423 7.86161
293 1 18.8697 18.87 6.28896
294 1 20.4415 20.4421 7.86173
295 1 22.0135 0.000193619 9.4344
296 1 1.57168 1.57197 11.0071
297 1 3.14408 0.000165177 9.43434
298 1 4.71648 1.57154 11.0071
299 1 6.28952 0.000120276 9.43447
300 1 7.86245 1.57297 11.0066
301 1 9.43453 0.000288245 9.43439
302 1 11.0066 1.57297 11.0066
303 1 12.5795 0.000120264 9.43447
304 1 14.1526 1.57154 11.0071
305 1 15.725 0.000165163 9.43434
306 1 17.2974 1.57197 11.0071
307 1 18.8694 0.000193603 9.4344
308 1 20.4415 1.57217 11.0071
309 1 22.0133 3.14415 9.43444
310 1 1.57077 4.71585 11.0073
311 1 3.14334 3.14325 9.43435
312 1 4.71433 4.71379 11.0077
313 1 6.28868 3.14258 9.43482
314 1 7.86278 4.71964 11.0058
315 1 9.43453 3.14571 9.43442
316 1 11.0063 4.71964 11.0058
317 1 12.5804 3.14258 9.43482
318 1 14.1547 4.71379 11.0077
319 1 15.7257 3.14326 9.43435
320 1 17.2983 4.71585 11.0073
321 1 18.8697 3.14415 9.43444
322 1 20.4415 4.7165 11.0072
323 1 22.0128 6.28887 9.43452
324 1 1.56977 7.86097 11.0072
325 1 3.141 6.28675 9.43423
326 1 4.70889 7.85701 11.0076
327 1 6.28413 6.28096 9.43467
328 1 7.84459 7.86805 11.0141
329 1 9.43453 6.29694 9.42731
330 1 11.0245 7.86805 11.0141
331 1 12.5849 6.28096 9.43467
332 1 14.1602 7.85701 11.0076
333 1 15.7281 6.28675 9.43423
334 1 17.2993 7.86096 11.0072
335 1 18.8702 6.28887 9.43452
336 1 20.4415 7.8618 11.0072
337 1 22.0132 9.43477 9.43485
338 1 1.571 11.0072 11.0074
339 1 3.1415 9.43402 9.43457
340 1 4.71463 11.0083 11.0113
341 1 6.27428 9.40635 9.41283
342 1 7.57485 11.024 11.0735
343 1 9.43453 9.22297 9.3163
344 1 11.2942 11.024 11.0735
345 1 12.5948 9.40635 9.41283
346 1 14.1544 11.0083 11.0113
347 1 15.7276 9.43402 9.43457
348 1 17.2981 11.0072 11.0074
349 1 18.8698 9.43477 9.43485
350 1 20.4415 11.0071 11.0073
351 1 22.0129 12.5796 9.43474
352 1 1.56883 14.154 11.0071
353 1 3.14003 12.5814 9.43416
354 1 4.70656 14.1604 11.0077
355 1 6.26715 12.6104 9.41204
356 1 7.84545 14.1544 11.0129
357 1 9.43453 12.6591 9.41077
358 1 11.0236 14.1544 11.0129
359 1 12.6019 12.6104 9.41204
360 1 14.1625 14.1604 11.0077
361 1 15.729 12.5814 9.43416
362 1 17.3002 14.154 11.0071
363 1 18.87 12.5796 9.43474
364 1 20.4415 14.1527 11.0072
365 1 22.0126 15.7257 9.43429
366 1 1.57059 17.2987 11.0072
367 1 3.14076 15.7281 9.43342
368 1 4.7141 17.3011 11.0072
369 1 6.28519 15.7332 9.43289
370 1 7.86117 17.2983 11.0071
371 1 9.43453 15.732 9.43403
372 1 11.0079 17.2983 11.0071
373 1 12.5839 15.7332 9.43289
374 1 14.155 17.3011 11.0072
375 1 15.7283 15.7281 9.43342
376 1 17.2985 17.2987 11.0072
377 1 18.8704 15.7257 9.43429
378 1 20.4415 17.298 11.0071
379 1 22.0133 18.8702 9.43435
380 1 1.57166 20.4424 11.0071
381 1 3.14333 18.8711 9.43411
382 1 4.7165 20.4428 11.007
383 1 6.28886 18.8716 9.43423
384 1 7.86232 20.442 11.0067
385 1 9.43453 18.8702 9.43407
386 1 11.0067 20.442 11.0067
387 1 12.5802 18.8716 9.43423
388 1 14.1526 20.4428 11.007
389 1 15.7257 18.8711 9.43411
390 1 17.2974 20.4424 11.0071
391 1 18.8697 18.8702 9.43435
392 1 20.4415 20.4422 11.0071
393 1 22.0136 0.000196777 12.5797
394 1 1.57183 1.57193 14.1524
395 1 3.14423 0.000177692 12.5797
396 1 4.71699 1.57152 14.1521
397 1 6.28985 0.000279802 12.5791
398 1 7.86237 1.57211 14.1516
399 1 9.43453 0.000235309 12.5791
400 1 11.0067 1.57211 14.1516
401 1 12.5792 0.00027977 12.5791
402 1 14.1521 1.57152 14.1521
403 1 15.7248 0.000177679 12.5797
404 1 17.2972 1.57193 14.1524
405 1 18.8694 0.000196773 12.5797
406 1 20.4415 1.57215 14.1523
407 1 22.0133 3.14413 12.5798
408 1 1.57086 4.71579 14.1529
409 1 3.14354 3.14327 12.58
410 1 4.71464 4.71278 14.1544
411 1 6.28964 3.14342 12.5792
412 1 7.86282 4.71647 14.152
413 1 9.43453 3.1463 12.5788
414 1 11.0062 4.71647 14.152
415 1 12.5794 3.14342 12.5792
416 1 14.1544 4.71278 14.1544
417 1 15.7255 3.14327 12.58
418 1 17.2982 4.71579 14.1529
419 1 18.8696 3.14413 12.5798
420 1 20.4415 4.7165 14.1525
421 1 22.0128 6.28885 12.5799
422 1 1.56863 7.86051 14.154
423 1 3.14136 6.28688 12.5808
424 1 4.704 7.84939 14.1654
425 1 6.28504 6.28133 12.5834
426 1 7.86444 7.86078 14.1549
427 1 9.43453 6.29708 12.5757
428 1 11.0046 7.86078 14.1549
429 1 12.584 6.28133 12.5834
430 1 14.1651 7.84939 14.1654
431 1 15.7277 6.28688 12.5808
432 1 17.3004 7.86051 14.154
433 1 18.8701 6.28885 12.5799
434 1 20.4415 7.86173 14.1527
435 1 22.0124 9.43456 12.58
436 1 1.56856 11.0071 14.1546
437 1 3.1368 9.433 12.5827
438 1 4.70625 11.0075 14.1622
439 1 6.25162 9.39882 12.6219
440 1 7.85107 11.0079 14.1557
441 1 9.43453 9.45522 12.5526
442 1 11.018 11.0079 14.1557
443 1 12.6174 9.39882 12.6219
444 1 14.1628 11.0075 14.1622
445 1 15.7323 9.433 12.5827
446 1 17.3005 11.0071 14.1546
447 1 18.8705 9.43456 12.58
448 1 20.4415 11.0071 14.1531
449 1 22.0121 12.5798 12.5801
450 1 1.56806 14.1541 14.1543
451 1 3.13526 12.5822 12.5828
452 1 4.70209 14.1669 14.167
453 1 6.24614 12.6231 12.6252
454 1 7.86481 14.1534 14.1537
455 1 9.43453 12.5657 12.5601
456 1 11.0042 14.1534 14.1537
457 1 12.6229 12.6231 12.6252
458 1 14.167 14.1669 14.167
459 1 15.7338 12.5822 12.5828
460 1 17.301 14.1541 14.1543
461 1 18.8708 12.5798 12.5801
462 1 20.4415 14.1526 14.1528
463 1 22.0125 15.7257 12.5801
464 1 1.57064 17.2987 14.1531
465 1 3.14036 15.7284 12.5812
466 1 4.71434 17.302 14.1548
467 1 6.28384 15.7354 12.5839
468 1 7.86296 17.2974 14.1519
469 1 9.43453 15.7201 12.5764
470 1 11.0061 17.2974 14.1519
471 1 12.5852 15.7354 12.5839
472 1 14.1547 17.302 14.1548
473 1 15.7287 15.7284 12.5812
474 1 17.2984 17.2987 14.1531
475 1 18.8704 15.7257 12.5801
476 1 20.4415 17.2979 14.1527
477 1 22.0133 18.8702 12.5799
478 1 1.57181 20.4423 14.1524
479 1 3.14343 18.8712 12.58
480 1 4.71693 20.4428 14.1522
481 1 6.28918 18.8717 12.5796
482 1 7.86241 20.4417 14.1516
483 1 9.43453 18.8686 12.579
484 1 11.0066 20.4417 14.1516
485 1 12.5799 18.8717 12.5796
486 1 14.1521 20.4428 14.1522
487 1 15.7256 18.8712 12.58
488 1 17.2973 20.4423 14.1524
489 1 18.8697 18.8702 12.5799
490 1 20.4415 20.4421 14.1524
491 1 22.0136 0.000120302 15.7248
492 1 1.57187 1.57177 17.2975
493 1 3.14448 6.84076e-05 15.7248
494 1 4.71712 1.57169 17.297
495 1 6.28986 22.0137 15.7243
496 1 7.86207 1.57171 17.2968
497 1 9.43453 22.0136 15.7242
498 1 11.007 1.57171 17.2968
499 1 12.5792 22.0137 15.7243
500 1 14.1519 1.57169 17.297
501 1 15.7246 6.83867e-05 15.7248
502 1 17.2972 1.57177 17.2975
503 1 18.8693 0.000120314 15.7248
504 1 20.4415 1.57208 17.2973
505 1 22.0134 3.14409 15.725
506 1 1.57082 4.71552 17.2986
507 1 3.14358 3.14291 15.7256
508 1 4.71621 4.71547 17.2984
509 1 6.2896 3.14354 15.7247
510 1 7.86185 4.71585 17.2976
511 1 9.43453 3.14359 15.7247
512 1 11.0072 4.71585 17.2976
513 1 12.5795 3.14354 15.7247
514 1 14.1529 4.71547 17.2984
515 1 15.7255 3.14291 15.7256
516 1 17.2983 4.71552 17.2986
517 1 18.8696 3.14409 15.725
518 1 20.4415 4.71639 17.2978
519 1 22.0126 6.28861 15.7257
520 1 1.57086 7.86124 17.2987
521 1 3.14009 6.28512 15.7291
522 1 4.71491 7.85996 17.3013
523 1 6.28847 6.28694 15.7271
524 1 7.86266 7.86122 17.2979
525 1 9.43453 6.28712 15.7262
526 1 11.0064 7.86122 17.2979
527 1 12.5806 6.28694 15.7271
528 1 14.1542 7.85996 17.3012
529 1 15.729 6.28512 15.7291
530 1 17.2982 7.86124 17.2987
531 1 18.8704 6.28861 15.7257
532 1 20.4415 7.86164 17.298
533 1 22.0126 9.43419 15.726
534 1 1.57084 11.007 17.2989
535 1 3.14085 9.43319 15.7285
536 1 4.7146 11.0071 17.3011
537 1 6.28549 9.43202 15.7342
538 1 7.86239 11.0068 17.2972
539 1 9.43453 9.43553 15.719
540 1 11.0067 11.0068 17.2972
541 1 12.5836 9.43202 15.7342
542 1 14.1545 11.0071 17.3011
543 1 15.7282 9.43319 15.7285
544 1 17.2982 11.007 17.2989
545 1 18.8703 9.43419 15.726
546 1 20.4415 11.007 17.2982
547 1 22.0126 12.5799 15.726
548 1 1.57085 14.1529 17.2988
549 1 3.14064 12.5811 15.7286
550 1 4.71492 14.1542 17.3016
551 1 6.2852 12.5826 15.7346
552 1 7.86308 14.1519 17.2971
553 1 9.43453 12.5777 15.7193
554 1 11.006 14.1519 17.2971
555 1 12.5839 12.5826 15.7346
556 1 14.1541 14.1542 17.3016
557 1 15.7284 12.5811 15.7286
558 1 17.2982 14.1529 17.2988
559 1 18.8704 12.5799 15.726
560 1 20.4415 14.1525 17.2981
561 1 22.0125 15.7257 15.7259
562 1 1.57094 17.2985 17.2987
563 1 3.1399 15.7295 15.7296
564 1 4.71693 17.2979 17.298
565 1 6.28957 15.7262 15.7263
566 1 7.86221 17.2972 17.2971
567 1 9.43453 15.7256 15.7252
568 1 11.0069 17.2972 17.2971
569 1 12.5795 15.7262 15.7263
570 1 14.1521 17.2979 17.298
571 1 15.7292 15.7295 15.7296
572 1 17.2981 17.2985 17.2987
573 1 18.8704 15.7257 15.7259
574 1 20.4415 17.2977 17.2979
575 1 22.0134 18.8701 15.7252
576 1 1.57193 20.4422 17.2975
577 1 3.14361 18.8713 15.7258
578 1 4.71732 20.4417 17.2969
579 1 6.28995 18.8698 15.7245
580 1 7.86217 20.4415 17.2967
581 1 9.43453 18.8696 15.7245
582 1 11.0069 20.4415 17.2967
583 1 12.5791 18.8698 15.7245
584 1 14.1517 20.4417 17.2969
585 1 15.7255 18.8713 15.7258
586 1 17.2971 20.4422 17.2975
587 1 18.8696 18.8701 15.7252
588 1 20.4415 20.442 17.2974
589 1 22.0137 22.0139 18.8696
590 1 1.57214 1.57193 20.4416
591 1 3.14475 22.0137 18.8693
592 1 4.71714 1.57193 20.4413
593 1 6.28969 22.0136 18.869
594 1 7.86206 1.57189 20.4412
595 1 9.43453 22.0136 18.8689
596 1 11.007 1.57189 20.4412
597 1 12.5794 22.0136 18.869
598 1 14.1519 1.57193 20.4413
599 1 15.7243 22.0137 18.8693
600 1 17.2969 1.57193 20.4416
601 1 18.8693 22.0139 18.8696
602 1 20.4415 1.57208 20.4418
603 1 22.0135 3.14409 18.87
604 1 1.57191 4.71662 20.4422
605 1 3.14429 3.14387 18.8698
606 1 4.71696 4.71662 20.4417
607 1 6.28951 3.14402 18.8694
608 1 7.86201 4.71655 20.4414
609 1 9.43453 3.14402 18.8692
610 1 11.0071 4.71655 20.4414
611 1 12.5796 3.14402 18.8694
612 1 14.1521 4.71662 20.4417
613 1 15.7248 3.14387 18.8698
614 1 17.2972 4.71662 20.4422
615 1 18.8695 3.14409 18.87
616 1 20.4415 4.71686 20.442
617 1 22.0134 6.28912 18.8702
618 1 1.57191 7.8618 20.4424
619 1 3.14373 6.28854 18.8711
620 1 4.71697 7.86187 20.4426
621 1 6.28955 6.28896 18.8701
622 1 7.86236 7.86203 20.4416
623 1 9.43453 6.28868 18.8698
624 1 11.0067 7.86203 20.4416
625 1 12.5795 6.28896 18.8701
626 1 14.1521 7.86187 20.4426
627 1 15.7253 6.28854 18.8711
628 1 17.2972 7.8618 20.4424
629 1 18.8695 6.28912 18.8702
630 1 20.4415 7.86188 20.4423
631 1 22.0134 9.43436 18.8704
632 1 1.5719 11.007 20.4425
633 1 3.14369 9.43418 18.8712
634 1 4.71686 11.007 20.4428
635 1 6.28944 9.43439 18.8712
636 1 7.86252 11.0068 20.4418
637 1 9.43453 9.43437 18.8684
638 1 11.0065 11.0068 20.4418
639 1 12.5796 9.43439 18.8712
640 1 14.1522 11.007 20.4428
641 1 15.7254 9.43418 18.8712
642 1 17.2972 11.007 20.4425
643 1 18.8695 9.43436 18.8704
644 1 20.4415 11.007 20.4424
645 1 22.0134 12.5797 18.8704
646 1 1.57198 14.1522 20.4424
647 1 3.14374 12.5798 18.8712
648 1 4.71716 14.152 20.4426
649 1 6.28959 12.5794 18.8712
650 1 7.86249 14.1515 20.4415
651 1 9.43453 12.5791 18.8682
652 1 11.0066 14.1515 20.4415
653 1 12.5795 12.5794 18.8713
654 1 14.1519 14.152 20.4426
655 1 15.7253 12.5798 18.8712
656 1 17.2971 14.1522 20.4424
657 1 18.8695 12.5797 18.8704
658 1 20.4415 14.1521 20.4423
659 1 22.0135 15.7249 18.8703
660 1 1.57202 17.2972 20.4422
661 1 3.14386 15.7254 18.8712
662 1 4.71732 17.2969 20.4416
663 1 6.29004 15.7244 18.8697
664 1 7.86216 17.2967 20.4412
665 1 9.43453 15.7245 18.8693
666 1 11.0069 17.2967 20.4412
667 1 12.579 15.7244 18.8697
668 1 14.1517 17.2969 20.4416
669 1 15.7252 15.7254 18.8712
670 1 17.297 17.2972 20.4422
671 1 18.8695 15.7249 18.8703
672 1 20.4415 17.2971 20.4421
673 1 22.0136 18.8698 18.87
674 1 1.57227 20.4417 20.4416
675 1 3.14463 18.8697 18.8697
676 1 4.71727 20.4415 20.4413
677 1 6.28977 18.8692 18.8692
678 1 7.86211 20.4414 20.4411
679 1 9.43453 18.8692 18.869
680 1 11.0069 20.4414 20.4411
681 1 12.5793 18.8692 18.8692
682 1 14.1518 20.4415 20.4413
683 1 15.7244 18.8697 18.8697
684 1 17.2968 20.4417 20.4416
685 1 18.8694 18.8698 18.87
686 1 20.4415 20.4417 20.4418
687 3 9.43454 10.8574 10.4354
