ITEM: TIMESTEP
58
ITEM: NUMBER OF ATOMS
687
ITEM: BOX BOUNDS pp pp pp
0.0000000000000000e+00 2.2013900999999997e+01
0.0000000000000000e+00 2.2013900999999997e+01
0.0000000000000000e+00 2.2013900999999997e+01
ITEM: ATOMS id type x y z
126 1 18.8703 9.43432 6.28853
2 1 1.57149 1.57137 1.57194
125 1 15.7283 9.43389 6.28628
4 1 4.71632 1.57081 1.57179
111 1 15.7257 3.14331 6.28896
6 1 7.86172 1.57048 1.57172
110 1 12.5818 3.13966 6.28692
8 1 11.0073 1.57048 1.57172
109 1 9.43453 3.1393 6.28643
10 1 14.1527 1.57081 1.57179
124 1 12.5854 9.43319 6.27974
12 1 17.2976 1.57137 1.57194
123 1 9.43453 9.42884 6.29268
14 1 20.4415 1.57185 1.57207
15 1 22.0134 3.14404 8.89101e-15
16 1 1.57125 4.71618 1.57177
17 1 3.14351 3.14327 1.15107e-14
18 1 4.71556 4.71521 1.5709
19 1 6.28877 3.14281 1.701e-14
20 1 7.86139 4.71474 1.57077
21 1 9.43453 3.14263 1.79682e-14
22 1 11.0077 4.71474 1.57077
23 1 12.5803 3.14281 1.657e-14
24 1 14.1535 4.71521 1.5709
25 1 15.7255 3.14327 1.1831e-14
26 1 17.2978 4.71618 1.57177
27 1 18.8696 3.14404 8.89757e-15
28 1 20.4415 4.71659 1.57205
29 1 22.0134 6.2891 8.92764e-15
30 1 1.57135 7.86161 1.57174
31 1 3.14355 6.28873 1.66219e-14
32 1 4.71588 7.86134 1.57098
33 1 6.28871 6.28824 2.14083e-14
34 1 7.86177 7.86103 1.5705
35 1 9.43453 6.28779 2.57033e-14
36 1 11.0073 7.86103 1.5705
37 1 12.5803 6.28824 2.08143e-14
38 1 14.1532 7.86134 1.57098
39 1 15.7255 6.28873 1.57675e-14
40 1 17.2977 7.86161 1.57174
41 1 18.8696 6.2891 9.68042e-15
42 1 20.4415 7.86175 1.57198
43 1 22.0134 9.4344 5.64694e-15
44 1 3.1437 9.43437 1.20993e-14
45 1 6.289 9.43431 1.43142e-14
46 1 9.43453 9.43412 1.25773e-14
47 1 12.5801 9.43431 1.2594e-14
48 1 15.7254 9.43437 1.23308e-14
49 1 18.8696 9.4344 5.7769e-15
122 1 6.28361 9.43319 6.27974
51 1 1.57149 1.57182 4.7167
121 1 3.14074 9.43389 6.28628
53 1 4.71578 1.5701 4.71585
120 1 22.0127 9.43432 6.28853
55 1 7.86151 1.5696 4.71561
119 1 18.8703 6.28902 6.28906
57 1 11.0075 1.5696 4.71561
118 1 15.7295 6.28613 6.28615
59 1 14.1533 1.5701 4.71585
117 1 12.5919 6.27576 6.27597
61 1 17.2976 1.57182 4.7167
116 1 9.43453 6.27795 6.27835
63 1 20.4415 1.57231 4.71698
64 1 22.0131 3.1439 3.14412
65 1 1.57012 4.71549 4.7157
66 1 3.14276 3.14257 3.14315
67 1 4.71236 4.71188 4.71235
68 1 6.28832 3.14203 3.14283
69 1 7.86036 4.71195 4.71245
70 1 9.43453 3.1418 3.14274
71 1 11.0087 4.71195 4.71245
72 1 12.5807 3.14203 3.14283
73 1 14.1567 4.71188 4.71235
74 1 15.7263 3.14257 3.14315
75 1 17.2989 4.71549 4.7157
76 1 18.8699 3.1439 3.14412
77 1 20.4415 4.71651 4.71665
78 1 22.0131 6.28898 3.14403
79 1 1.57044 7.86132 4.71562
80 1 3.14276 6.28817 3.14282
81 1 4.71371 7.85999 4.71261
82 1 6.28743 6.28669 3.14033
83 1 7.86039 7.85791 4.70823
84 1 9.43453 6.28591 3.14017
85 1 11.0087 7.85791 4.70823
86 1 12.5816 6.28669 3.14033
87 1 14.1553 7.85999 4.71261
88 1 15.7263 6.28817 3.14282
89 1 17.2986 7.86132 4.71562
90 1 18.8698 6.28898 3.14403
91 1 20.4415 7.86164 4.71637
92 1 22.0132 9.43436 3.14388
93 1 3.14302 9.43422 3.14289
94 1 6.28809 9.43414 3.14153
95 1 9.43453 9.43363 3.1438
96 1 12.581 9.43414 3.14153
97 1 15.726 9.43422 3.14289
98 1 18.8698 9.43436 3.14388
108 1 6.28727 3.13966 6.28692
115 1 6.27716 6.27576 6.27597
114 1 3.13954 6.28613 6.28615
107 1 3.14331 3.14331 6.28896
113 1 22.0127 6.28902 6.28906
112 1 18.8696 3.14456 6.28954
106 1 22.0134 3.14456 6.28954
396 1 11.0075 11.0059 4.71542
104 1 15.725 0.000152854 6.28917
395 1 7.86158 11.0059 4.71542
100 1 3.14407 0.000152854 6.28917
346 1 7.86212 11.0066 1.57184
105 1 18.8694 0.000540991 6.28933
347 1 11.0069 11.0066 1.57184
99 1 22.0135 0.000540991 6.28933
127 1 1.57178 1.57252 7.86194
128 1 4.71657 1.57167 7.86194
129 1 7.8618 1.56965 7.86142
130 1 11.0073 1.56965 7.86142
131 1 14.1525 1.57167 7.86194
132 1 17.2973 1.57252 7.86194
133 1 20.4415 1.57274 7.862
134 1 1.57149 4.71683 7.86214
135 1 4.71537 4.71463 7.86146
136 1 7.85954 4.70667 7.85736
137 1 11.0095 4.70667 7.85736
138 1 14.1537 4.71463 7.86146
139 1 17.2976 4.71683 7.86214
140 1 20.4415 4.71713 7.86216
141 1 1.56991 7.86177 7.86139
142 1 4.70618 7.85548 7.85431
143 1 7.82862 7.82124 7.82404
144 1 11.0404 7.82124 7.82404
145 1 14.1629 7.85548 7.85431
146 1 17.2991 7.86177 7.86139
147 1 20.4415 7.86206 7.86196
687 3 9.43453 10.2207 11.007
149 1 1.57183 1.57277 11.007
150 1 3.14406 0.000759747 9.43435
151 1 4.71646 1.57226 11.007
245 1 18.8696 9.43484 12.5794
153 1 7.86192 1.57244 11.007
244 1 15.7261 9.43556 12.5799
155 1 11.0071 1.57244 11.007
243 1 12.5879 9.41992 12.6041
157 1 14.1526 1.57226 11.007
158 1 15.725 0.000759747 9.43435
159 1 17.2972 1.57277 11.007
242 1 9.43453 9.35758 12.8115
161 1 20.4415 1.57289 11.007
162 1 22.0136 3.14491 9.43452
163 1 1.57173 4.71708 11.007
164 1 3.14393 3.14439 9.43446
165 1 4.71574 4.71614 11.007
166 1 6.28919 3.14363 9.43502
167 1 7.86281 4.72046 11.007
168 1 9.43453 3.14281 9.43457
169 1 11.0063 4.72046 11.007
170 1 12.5799 3.14363 9.43502
171 1 14.1533 4.71614 11.007
172 1 15.7251 3.14439 9.43446
173 1 17.2973 4.71708 11.007
174 1 18.8694 3.14491 9.43452
175 1 20.4415 4.71727 11.007
176 1 22.0136 6.28965 9.43465
177 1 1.5724 7.86237 11.007
178 1 3.14409 6.28948 9.435
179 1 4.71963 7.86459 11.007
180 1 6.28906 6.28669 9.43639
181 1 7.87181 7.88538 11.007
182 1 9.43453 6.28256 9.4262
183 1 10.9972 7.88538 11.007
184 1 12.58 6.28669 9.43639
185 1 14.1494 7.86459 11.007
186 1 15.725 6.28948 9.435
187 1 17.2967 7.86237 11.007
188 1 18.8694 6.28965 9.43465
189 1 20.4415 7.86217 11.007
190 1 22.0133 9.43484 9.43454
191 1 3.143 9.43556 9.434
192 1 6.28118 9.41992 9.40979
193 1 9.43453 9.35758 9.20238
194 1 12.5879 9.41992 9.40979
195 1 15.7261 9.43556 9.434
196 1 18.8696 9.43484 9.43454
241 1 6.28118 9.41992 12.6041
198 1 1.57178 1.57252 14.152
199 1 3.14406 0.000759747 12.5796
200 1 4.71657 1.57167 14.152
240 1 3.143 9.43556 12.5799
202 1 7.8618 1.56965 14.1525
239 1 22.0133 9.43484 12.5794
204 1 11.0073 1.56965 14.1525
238 1 20.4415 7.86206 14.1519
206 1 14.1525 1.57167 14.152
207 1 15.725 0.000759747 12.5796
208 1 17.2973 1.57252 14.152
237 1 18.8694 6.28965 12.5793
210 1 20.4415 1.57274 14.1519
211 1 22.0136 3.14491 12.5794
212 1 1.57149 4.71683 14.1518
213 1 3.14393 3.14439 12.5794
214 1 4.71537 4.71463 14.1524
215 1 6.28919 3.14363 12.5789
216 1 7.85954 4.70667 14.1565
217 1 9.43453 3.14281 12.5793
218 1 11.0095 4.70667 14.1565
219 1 12.5799 3.14363 12.5789
220 1 14.1537 4.71463 14.1524
221 1 15.7251 3.14439 12.5794
222 1 17.2976 4.71683 14.1518
223 1 18.8694 3.14491 12.5794
224 1 20.4415 4.71713 14.1517
225 1 22.0136 6.28965 12.5793
226 1 1.56991 7.86177 14.1525
227 1 3.14409 6.28948 12.5789
228 1 4.70618 7.85548 14.1596
229 1 6.28906 6.28669 12.5775
230 1 7.82862 7.82124 14.1899
231 1 9.43453 6.28256 12.5877
232 1 11.0404 7.82124 14.1899
233 1 12.58 6.28669 12.5775
234 1 14.1629 7.85548 14.1596
235 1 15.725 6.28948 12.5789
236 1 17.2991 7.86177 14.1525
197 1 22.0135 0.000859594 12.5795
160 1 18.8694 0.000859594 9.4344
209 1 18.8694 0.000859594 12.5795
148 1 22.0135 0.000859594 9.4344
205 1 12.5797 0.000203118 12.5794
152 1 6.28936 0.000203118 9.43454
156 1 12.5797 0.000203118 9.43454
201 1 6.28936 0.000203118 12.5794
332 1 14.1532 7.86134 20.4429
247 1 1.57149 1.57182 17.2972
343 1 18.8698 9.43436 18.87
249 1 4.71578 1.5701 17.298
342 1 15.726 9.43422 18.871
251 1 7.86151 1.5696 17.2983
331 1 12.5816 6.28669 18.8736
253 1 11.0075 1.5696 17.2983
341 1 12.581 9.43414 18.8724
255 1 14.1533 1.5701 17.298
340 1 9.43453 9.43363 18.8701
257 1 17.2976 1.57182 17.2972
330 1 11.0073 7.86103 20.4434
259 1 20.4415 1.57231 17.2969
260 1 22.0134 3.14456 15.7244
261 1 1.57012 4.71549 17.2982
262 1 3.14331 3.14331 15.7249
263 1 4.71236 4.71188 17.3016
264 1 6.28727 3.13966 15.727
265 1 7.86036 4.71195 17.3015
266 1 9.43453 3.1393 15.7275
267 1 11.0087 4.71195 17.3015
268 1 12.5818 3.13966 15.727
269 1 14.1567 4.71188 17.3016
270 1 15.7257 3.14331 15.7249
271 1 17.2989 4.71549 17.2982
272 1 18.8696 3.14456 15.7244
273 1 20.4415 4.71651 17.2972
274 1 22.0127 6.28902 15.7248
275 1 1.57044 7.86132 17.2983
276 1 3.13954 6.28613 15.7278
277 1 4.71371 7.85999 17.3013
278 1 6.27716 6.27576 15.7379
279 1 7.86039 7.85791 17.3057
280 1 9.43453 6.27795 15.7356
281 1 11.0087 7.85791 17.3057
282 1 12.5919 6.27576 15.7379
283 1 14.1553 7.85999 17.3013
284 1 15.7295 6.28613 15.7278
285 1 17.2986 7.86132 17.2983
286 1 18.8703 6.28902 15.7248
287 1 20.4415 7.86164 17.2975
288 1 22.0127 9.43432 15.7254
289 1 3.14074 9.43389 15.7276
290 1 6.28361 9.43319 15.7342
291 1 9.43453 9.42884 15.7212
292 1 12.5854 9.43319 15.7342
293 1 15.7283 9.43389 15.7276
294 1 18.8703 9.43432 15.7254
339 1 6.28809 9.43414 18.8724
296 1 1.57149 1.57137 20.442
338 1 3.14302 9.43422 18.871
298 1 4.71632 1.57081 20.4421
337 1 22.0132 9.43436 18.87
300 1 7.86172 1.57048 20.4422
336 1 20.4415 7.86175 20.4419
302 1 11.0073 1.57048 20.4422
335 1 18.8698 6.28898 18.8699
304 1 14.1527 1.57081 20.4421
334 1 17.2977 7.86161 20.4422
306 1 17.2976 1.57137 20.442
333 1 15.7263 6.28817 18.8711
308 1 20.4415 1.57185 20.4418
309 1 22.0131 3.1439 18.8698
310 1 1.57125 4.71618 20.4421
311 1 3.14276 3.14257 18.8708
312 1 4.71556 4.71521 20.443
313 1 6.28832 3.14203 18.8711
314 1 7.86139 4.71474 20.4431
315 1 9.43453 3.1418 18.8712
316 1 11.0077 4.71474 20.4431
317 1 12.5807 3.14203 18.8711
318 1 14.1535 4.71521 20.443
319 1 15.7263 3.14257 18.8708
320 1 17.2978 4.71618 20.4421
321 1 18.8699 3.1439 18.8698
322 1 20.4415 4.71659 20.4419
323 1 22.0131 6.28898 18.8699
324 1 1.57135 7.86161 20.4422
325 1 3.14276 6.28817 18.8711
326 1 4.71588 7.86134 20.4429
327 1 6.28743 6.28669 18.8736
328 1 7.86177 7.86103 20.4434
329 1 9.43453 6.28591 18.8737
591 1 7.86158 11.0059 17.2985
248 1 3.14407 0.000152854 15.7247
592 1 11.0075 11.0059 17.2985
256 1 15.725 0.000152854 15.7247
640 1 7.86212 11.0066 20.4421
258 1 18.8694 0.000540991 15.7246
641 1 11.0069 11.0066 20.4421
246 1 22.0135 0.000540991 15.7246
103 1 12.5799 22.0126 6.28895
462 1 18.8697 18.8707 6.28874
102 1 9.43453 22.0121 6.28875
9 1 12.5798 22.0127 4.42999e-15
461 1 15.7256 18.8714 6.2882
101 1 6.28916 22.0126 6.28895
60 1 15.7251 22.0131 3.1441
351 1 22.0135 12.5797 2.15163e-15
352 1 1.57161 14.1525 1.57165
353 1 3.14395 12.5798 2.24411e-15
354 1 4.71664 14.1525 1.5712
355 1 6.28954 12.5794 22.0139
356 1 7.86223 14.1518 1.57209
62 1 18.8695 22.0139 3.14438
358 1 11.0068 14.1518 1.57209
359 1 12.5795 12.5794 22.0139
360 1 14.1524 14.1525 1.5712
361 1 15.7251 12.5798 3.04376e-15
362 1 17.2974 14.1525 1.57165
363 1 18.8695 12.5797 4.0488e-15
364 1 20.4415 14.1524 1.57187
365 1 22.0135 15.7249 1.65737e-15
366 1 1.5717 17.2976 1.57163
367 1 3.14423 15.725 22.0139
368 1 4.71712 17.2969 1.57192
369 1 6.28974 15.7244 22.0139
370 1 7.8621 17.2966 1.57207
371 1 9.43453 15.7242 22.0139
372 1 11.007 17.2966 1.57207
350 1 20.4415 11.0071 1.57192
374 1 14.1519 17.2969 1.57192
375 1 15.7248 15.725 22.0139
376 1 17.2974 17.2976 1.57163
377 1 18.8694 15.7249 1.76124e-15
378 1 20.4415 17.2974 1.57188
379 1 22.0136 18.8696 7.6014e-16
380 1 1.57195 20.4415 1.572
381 1 3.14456 18.8692 22.0139
382 1 4.71691 20.4409 1.57205
383 1 6.28957 18.8687 22.0139
384 1 7.86197 20.4406 1.57206
385 1 9.43453 18.8686 22.0139
386 1 11.0071 20.4406 1.57206
387 1 12.5795 18.8687 22.0139
388 1 14.1522 20.4409 1.57205
389 1 15.7245 18.8692 22.0139
390 1 17.2971 20.4415 1.572
391 1 18.8694 18.8696 1.76616e-15
392 1 20.4415 20.4418 1.57207
393 1 1.57047 11.0073 4.71544
460 1 12.5795 18.8698 6.28899
52 1 3.144 22.0131 3.1441
13 1 18.8694 22.0136 5.3546e-15
459 1 9.43453 18.8692 6.28888
398 1 17.2986 11.0073 4.71544
458 1 6.28952 18.8698 6.28899
400 1 22.0132 12.5799 3.14377
401 1 1.5704 14.1533 4.71518
402 1 3.14319 12.5802 3.14286
403 1 4.71373 14.1553 4.71196
404 1 6.28897 12.5797 3.14233
405 1 7.86258 14.152 4.71651
406 1 9.43453 12.5791 3.14482
407 1 11.0065 14.152 4.71651
408 1 12.5801 12.5797 3.14233
409 1 14.1553 14.1553 4.71196
410 1 15.7259 12.5802 3.14286
411 1 17.2987 14.1533 4.71518
412 1 18.8697 12.5799 3.14377
413 1 20.4415 14.1527 4.71597
414 1 22.0132 15.7253 3.14367
415 1 1.57073 17.2989 4.71518
416 1 3.14328 15.726 3.14254
417 1 4.71654 17.2982 4.71573
418 1 6.28971 15.7246 3.14391
419 1 7.86204 17.2971 4.71636
420 1 9.43453 15.7244 3.14415
421 1 11.007 17.2971 4.71636
422 1 12.5793 15.7246 3.14391
423 1 14.1525 17.2982 4.71573
424 1 15.7258 15.726 3.14254
425 1 17.2983 17.2989 4.71518
426 1 18.8697 15.7253 3.14367
427 1 20.4415 17.2982 4.71593
428 1 22.0134 18.8701 3.14391
429 1 1.57168 20.4423 4.71643
430 1 3.14428 18.8697 3.14391
431 1 4.71675 20.4413 4.71649
432 1 6.28952 18.869 3.1442
433 1 7.86193 20.4407 4.71648
434 1 9.43453 18.8687 3.14425
435 1 11.0071 20.4407 4.71648
436 1 12.5795 18.869 3.1442
437 1 14.1523 20.4413 4.71649
438 1 15.7248 18.8697 3.14391
439 1 17.2974 20.4423 4.71643
440 1 18.8695 18.8701 3.14391
441 1 20.4415 20.4423 4.71666
442 1 22.0125 12.5801 6.28831
443 1 3.14018 12.5815 6.28613
444 1 6.28189 12.586 6.2786
445 1 9.43453 12.5769 6.29205
446 1 12.5872 12.586 6.2786
447 1 15.7289 12.5815 6.28613
448 1 18.8705 12.5801 6.28831
449 1 22.0124 15.7263 6.28798
450 1 3.13993 15.7296 6.28478
451 1 6.28904 15.7269 6.28779
452 1 9.43453 15.7253 6.28816
453 1 12.58 15.7269 6.28779
454 1 15.7291 15.7296 6.28478
455 1 18.8706 15.7263 6.28798
456 1 22.0133 18.8707 6.28874
457 1 3.14343 18.8714 6.2882
1 1 22.0136 22.0136 4.65652e-15
5 1 6.28927 22.0127 4.69314e-15
399 1 20.4415 11.0071 4.71612
397 1 14.1552 11.0076 4.71317
394 1 4.71385 11.0076 4.71317
348 1 14.1529 11.0072 1.57117
345 1 4.71611 11.0072 1.57117
7 1 9.43453 22.0125 4.98247e-15
344 1 1.57146 11.0071 1.57171
11 1 15.7248 22.0131 4.3439e-15
3 1 3.14424 22.0131 3.61151e-15
50 1 22.0135 22.0139 3.14438
349 1 17.2976 11.0071 1.57171
54 1 6.28915 22.0125 3.14401
56 1 9.43453 22.0123 3.14398
58 1 12.5799 22.0125 3.14401
588 1 20.4415 20.4427 14.1522
587 1 18.8698 18.871 12.5798
465 1 7.83736 11.0216 7.8536
466 1 11.0317 11.0216 7.8536
586 1 17.2975 20.4429 14.1523
585 1 15.7259 18.8719 12.58
584 1 14.1525 20.4428 14.1523
470 1 1.56791 14.1548 7.85985
471 1 4.70355 14.1657 7.84958
472 1 7.86397 14.1548 7.86148
473 1 11.0051 14.1548 7.86148
474 1 14.1655 14.1657 7.84958
475 1 17.3012 14.1548 7.85985
476 1 20.4415 14.1532 7.86113
477 1 1.57041 17.2994 7.86075
478 1 4.7145 17.3018 7.85969
479 1 7.8626 17.2978 7.86161
480 1 11.0065 17.2978 7.86161
481 1 14.1546 17.3018 7.85969
482 1 17.2986 17.2994 7.86075
483 1 20.4415 17.2987 7.86119
484 1 1.57159 20.4429 7.86158
485 1 4.71653 20.4428 7.86158
486 1 7.86212 20.4413 7.86179
487 1 11.0069 20.4413 7.86179
488 1 14.1525 20.4428 7.86158
489 1 17.2975 20.4429 7.86158
490 1 20.4415 20.4427 7.86169
583 1 12.5801 18.8718 12.5797
492 1 4.72026 11.0126 11.007
493 1 7.62996 11.0839 11.007
494 1 11.2391 11.0839 11.007
495 1 14.1488 11.0126 11.007
582 1 11.0069 20.4413 14.1521
581 1 9.43453 18.869 12.5796
498 1 22.012 12.5805 9.43419
499 1 1.56775 14.1556 11.007
500 1 3.13581 12.5836 9.43281
501 1 4.70593 14.1635 11.007
502 1 6.25162 12.6202 9.40105
503 1 7.85378 14.1589 11.007
504 1 9.43453 12.5561 9.44423
505 1 11.0153 14.1589 11.007
506 1 12.6174 12.6202 9.40105
507 1 14.1631 14.1635 11.007
508 1 15.7333 12.5836 9.43281
509 1 17.3013 14.1556 11.007
510 1 18.871 12.5805 9.43419
511 1 20.4415 14.1537 11.007
512 1 22.0122 15.7267 9.43381
513 1 1.57032 17.2997 11.007
514 1 3.14003 15.7295 9.43278
515 1 4.71401 17.3022 11.007
516 1 6.28494 15.7348 9.43196
517 1 7.86215 17.2987 11.007
518 1 9.43453 15.721 9.43523
519 1 11.0069 17.2987 11.007
520 1 12.5841 15.7348 9.43196
521 1 14.1551 17.3022 11.007
522 1 15.729 15.7295 9.43278
523 1 17.2987 17.2997 11.007
524 1 18.8707 15.7267 9.43381
525 1 20.4415 17.2988 11.007
526 1 22.0132 18.871 9.43415
527 1 1.57155 20.4431 11.007
528 1 3.14319 18.8719 9.43393
529 1 4.71633 20.4433 11.007
530 1 6.289 18.8718 9.43422
531 1 7.86215 20.4421 11.007
532 1 9.43453 18.869 9.43434
533 1 11.0069 20.4421 11.007
534 1 12.5801 18.8718 9.43422
535 1 14.1527 20.4433 11.007
536 1 15.7259 18.8719 9.43393
537 1 17.2975 20.4431 11.007
538 1 18.8698 18.871 9.43415
539 1 20.4415 20.4429 11.007
580 1 7.86212 20.4413 14.1521
579 1 6.289 18.8718 12.5797
542 1 7.83736 11.0216 14.1603
543 1 11.0317 11.0216 14.1603
578 1 4.71653 20.4428 14.1523
577 1 3.14319 18.8719 12.58
576 1 1.57159 20.4429 14.1523
547 1 22.012 12.5805 12.5797
548 1 1.56791 14.1548 14.154
549 1 3.13581 12.5836 12.5811
550 1 4.70355 14.1657 14.1643
551 1 6.25162 12.6202 12.6129
552 1 7.86397 14.1548 14.1524
553 1 9.43453 12.5561 12.5697
554 1 11.0051 14.1548 14.1524
555 1 12.6174 12.6202 12.6129
556 1 14.1655 14.1657 14.1643
557 1 15.7333 12.5836 12.5811
558 1 17.3012 14.1548 14.154
559 1 18.871 12.5805 12.5797
560 1 20.4415 14.1532 14.1528
561 1 22.0122 15.7267 12.5801
562 1 1.57041 17.2994 14.1532
563 1 3.14003 15.7295 12.5811
564 1 4.7145 17.3018 14.1542
565 1 6.28494 15.7348 12.5819
566 1 7.8626 17.2978 14.1523
567 1 9.43453 15.721 12.5787
568 1 11.0065 17.2978 14.1523
569 1 12.5841 15.7348 12.5819
570 1 14.1546 17.3018 14.1542
571 1 15.729 15.7295 12.5811
572 1 17.2986 17.2994 14.1532
573 1 18.8707 15.7267 12.5801
574 1 20.4415 17.2987 14.1527
575 1 22.0132 18.871 12.5798
544 1 14.1617 11.0083 14.1579
541 1 4.70732 11.0083 14.1579
154 1 9.43453 22.0133 9.43457
467 1 14.1617 11.0083 7.85603
203 1 9.43453 22.0133 12.5793
464 1 4.70732 11.0083 7.85603
463 1 1.56911 11.0073 7.86051
546 1 20.4415 11.0072 14.1525
545 1 17.3 11.0073 14.1534
468 1 17.3 11.0073 7.86051
469 1 20.4415 11.0072 7.86142
540 1 1.56911 11.0073 14.1534
497 1 20.4415 11.0074 11.007
496 1 17.2977 11.0078 11.007
491 1 1.57138 11.0078 11.007
589 1 1.57047 11.0073 17.2985
686 1 20.4415 20.4418 20.4418
305 1 15.7251 22.0131 18.8698
297 1 3.144 22.0131 18.8698
685 1 18.8695 18.8701 18.87
594 1 17.2986 11.0073 17.2985
684 1 17.2971 20.4415 20.4419
596 1 22.0125 12.5801 15.7256
597 1 1.5704 14.1533 17.2987
598 1 3.14018 12.5815 15.7278
599 1 4.71373 14.1553 17.3019
600 1 6.28189 12.586 15.7353
601 1 7.86258 14.152 17.2974
602 1 9.43453 12.5769 15.7219
603 1 11.0065 14.152 17.2974
604 1 12.5872 12.586 15.7353
605 1 14.1553 14.1553 17.3019
606 1 15.7289 12.5815 15.7278
607 1 17.2987 14.1533 17.2987
608 1 18.8705 12.5801 15.7256
609 1 20.4415 14.1527 17.2979
610 1 22.0124 15.7263 15.7259
611 1 1.57073 17.2989 17.2987
612 1 3.13993 15.7296 15.7291
613 1 4.71654 17.2982 17.2982
614 1 6.28904 15.7269 15.7261
615 1 7.86204 17.2971 17.2975
616 1 9.43453 15.7253 15.7257
617 1 11.007 17.2971 17.2975
618 1 12.58 15.7269 15.7261
619 1 14.1525 17.2982 17.2982
620 1 15.7291 15.7296 15.7291
621 1 17.2983 17.2989 17.2987
622 1 18.8706 15.7263 15.7259
623 1 20.4415 17.2982 17.298
624 1 22.0133 18.8707 15.7252
625 1 1.57168 20.4423 17.2975
626 1 3.14343 18.8714 15.7257
627 1 4.71675 20.4413 17.2974
628 1 6.28952 18.8698 15.7249
629 1 7.86193 20.4407 17.2974
630 1 9.43453 18.8692 15.725
631 1 11.0071 20.4407 17.2974
632 1 12.5795 18.8698 15.7249
633 1 14.1523 20.4413 17.2974
634 1 15.7256 18.8714 15.7257
635 1 17.2974 20.4423 17.2975
636 1 18.8697 18.8707 15.7252
637 1 20.4415 20.4423 17.2972
254 1 12.5799 22.0126 15.7249
683 1 15.7248 18.8697 18.87
252 1 9.43453 22.0121 15.7251
590 1 4.71385 11.0076 17.3007
682 1 14.1522 20.4409 20.4419
250 1 6.28916 22.0126 15.7249
681 1 12.5795 18.869 18.8697
645 1 22.0132 12.5799 18.8701
646 1 1.57161 14.1525 20.4423
647 1 3.14319 12.5802 18.871
648 1 4.71664 14.1525 20.4427
649 1 6.28897 12.5797 18.8716
650 1 7.86223 14.1518 20.4418
651 1 9.43453 12.5791 18.8691
652 1 11.0068 14.1518 20.4418
653 1 12.5801 12.5797 18.8716
654 1 14.1524 14.1525 20.4427
655 1 15.7259 12.5802 18.871
656 1 17.2974 14.1525 20.4423
657 1 18.8697 12.5799 18.8701
658 1 20.4415 14.1524 20.442
659 1 22.0132 15.7253 18.8702
660 1 1.5717 17.2976 20.4423
661 1 3.14328 15.726 18.8714
662 1 4.71712 17.2969 20.442
663 1 6.28971 15.7246 18.87
664 1 7.8621 17.2966 20.4418
665 1 9.43453 15.7244 18.8697
666 1 11.007 17.2966 20.4418
667 1 12.5793 15.7246 18.87
668 1 14.1519 17.2969 20.442
669 1 15.7258 15.726 18.8714
670 1 17.2974 17.2976 20.4423
671 1 18.8697 15.7253 18.8702
672 1 20.4415 17.2974 20.442
673 1 22.0134 18.8701 18.87
674 1 1.57195 20.4415 20.4419
675 1 3.14428 18.8697 18.87
676 1 4.71691 20.4409 20.4419
677 1 6.28952 18.869 18.8697
678 1 7.86197 20.4406 20.4418
679 1 9.43453 18.8687 18.8696
680 1 11.0071 20.4406 20.4418
593 1 14.1552 11.0076 17.3007
642 1 14.1529 11.0072 20.4427
639 1 4.71611 11.0072 20.4427
595 1 20.4415 11.0071 17.2978
307 1 18.8695 22.0139 18.8695
303 1 12.5799 22.0125 18.8699
644 1 20.4415 11.0071 20.442
643 1 17.2976 11.0071 20.4422
301 1 9.43453 22.0123 18.8699
295 1 22.0135 22.0139 18.8695
638 1 1.57146 11.0071 20.4422
299 1 6.28915 22.0125 18.8699
357 1 9.43453 12.5793 22.0139
373 1 12.5793 15.7244 22.0139
