ITEM: TIMESTEP
58
ITEM: NUMBER OF ATOMS
687
ITEM: BOX BOUNDS pp pp pp
0.0000000000000000e+00 2.2013900999999997e+01
0.0000000000000000e+00 2.2013900999999997e+01
0.0000000000000000e+00 2.2013900999999997e+01
ITEM: ATOMS id type x y z
126 1 18.8705 9.43376 6.28831
2 1 1.57195 1.57242 1.57199
125 1 15.7289 9.43242 6.28614
4 1 4.71691 1.57296 1.57205
111 1 15.7256 3.14252 6.28821
6 1 7.86197 1.57328 1.57206
110 1 12.5795 3.14409 6.28899
8 1 11.0071 1.57328 1.57206
109 1 9.43453 3.14468 6.28889
10 1 14.1522 1.57296 1.57205
124 1 12.5872 9.42791 6.27861
12 1 17.2971 1.57242 1.572
123 1 9.43453 9.43702 6.29206
14 1 20.4415 1.57208 1.57207
15 1 22.0135 3.14428 22.0139
16 1 1.5717 4.71632 1.57163
17 1 3.14456 3.14473 6.74507e-08
18 1 4.71712 4.71698 1.57192
19 1 6.28958 3.14516 2.10368e-06
20 1 7.8621 4.71734 1.57208
21 1 9.43453 3.14532 1.52241e-06
22 1 11.007 4.71733 1.57208
23 1 12.5795 3.14516 2.10252e-06
24 1 14.1519 4.71698 1.57192
25 1 15.7245 3.14473 6.66517e-08
26 1 17.2974 4.71632 1.57163
27 1 18.8694 3.14428 22.0139
28 1 20.4415 4.71646 1.57187
29 1 22.0135 6.28901 22.0139
30 1 1.57161 7.8614 1.57165
31 1 3.14423 6.28893 2.60972e-06
32 1 4.71664 7.86145 1.5712
33 1 6.28974 6.28955 3.00808e-06
34 1 7.86223 7.86208 1.57209
35 1 9.43453 6.2897 2.62173e-06
36 1 11.0068 7.86208 1.5721
37 1 12.5793 6.28955 3.00697e-06
38 1 14.1524 7.86145 1.5712
39 1 15.7248 6.28893 2.61176e-06
40 1 17.2974 7.8614 1.57165
41 1 18.8694 6.28901 22.0139
42 1 20.4415 7.86152 1.57187
43 1 22.0135 9.43417 1.56175e-06
44 1 3.14395 9.43407 2.67058e-06
45 1 6.28954 9.43449 3.04924e-06
46 1 9.43453 9.4346 4.00953e-06
47 1 12.5795 9.43449 3.04967e-06
48 1 15.7251 9.43407 2.66766e-06
49 1 18.8695 9.43417 1.56127e-06
122 1 6.2819 9.42791 6.2786
51 1 1.57168 1.57159 4.71643
121 1 3.14019 9.43242 6.28614
53 1 4.71675 1.57258 4.71649
120 1 22.0125 9.43376 6.28831
55 1 7.86193 1.57318 4.71649
119 1 18.8706 6.28763 6.28798
57 1 11.0071 1.57318 4.71649
118 1 15.7291 6.28431 6.28478
59 1 14.1523 1.57257 4.71649
117 1 12.58 6.28705 6.28779
61 1 17.2974 1.57159 4.71643
116 1 9.43453 6.28857 6.28816
63 1 20.4415 1.57159 4.71666
64 1 22.0134 3.14379 3.14391
65 1 1.57073 4.71499 4.71518
66 1 3.14428 3.14424 3.14391
67 1 4.71654 4.71573 4.71573
68 1 6.28952 3.14495 3.1442
69 1 7.86204 4.71681 4.71636
70 1 9.43453 3.14519 3.14425
71 1 11.007 4.71681 4.71636
72 1 12.5795 3.14494 3.1442
73 1 14.1525 4.71574 4.71574
74 1 15.7248 3.14424 3.14391
75 1 17.2983 4.71499 4.71518
76 1 18.8695 3.14379 3.14391
77 1 20.4415 4.7157 4.71593
78 1 22.0133 6.28861 3.14367
79 1 1.5704 7.86059 4.71519
80 1 3.14328 6.28792 3.14254
81 1 4.71373 7.85856 4.71196
82 1 6.28972 6.28926 3.14392
83 1 7.86259 7.86191 4.71652
84 1 9.43453 6.2895 3.14416
85 1 11.0065 7.86191 4.71652
86 1 12.5793 6.28926 3.14392
87 1 14.1553 7.85856 4.71196
88 1 15.7258 6.28792 3.14254
89 1 17.2987 7.86059 4.71519
90 1 18.8697 6.28861 3.14367
91 1 20.4415 7.86116 4.71597
92 1 22.0132 9.43403 3.14377
93 1 3.1432 9.43375 3.14286
94 1 6.28897 9.43419 3.14233
95 1 9.43453 9.4348 3.14483
96 1 12.5801 9.43419 3.14233
97 1 15.7259 9.43375 3.14286
98 1 18.8697 9.43403 3.14377
108 1 6.28952 3.14409 6.28899
115 1 6.28904 6.28705 6.28779
114 1 3.13993 6.28431 6.28478
107 1 3.14343 3.14252 6.28821
113 1 22.0124 6.28763 6.28798
112 1 18.8697 3.14324 6.28875
106 1 22.0133 3.14324 6.28875
396 1 11.0075 11.008 4.71543
104 1 15.725 22.0137 6.28917
395 1 7.86159 11.008 4.71543
100 1 3.14407 22.0138 6.28917
346 1 7.86212 11.0073 1.57185
105 1 18.8694 22.0134 6.28933
347 1 11.0069 11.0073 1.57185
99 1 22.0135 22.0134 6.28933
127 1 1.5716 1.57104 7.86158
128 1 4.71653 1.57108 7.86158
129 1 7.86212 1.57262 7.86179
130 1 11.0069 1.57262 7.86179
131 1 14.1525 1.57108 7.86158
132 1 17.2975 1.57104 7.86158
133 1 20.4415 1.57119 7.86169
134 1 1.57042 4.71445 7.86075
135 1 4.7145 4.71208 7.8597
136 1 7.8626 4.71606 7.86162
137 1 11.0065 4.71606 7.86162
138 1 14.1546 4.71208 7.8597
139 1 17.2986 4.71446 7.86075
140 1 20.4415 4.71524 7.8612
141 1 1.56791 7.85912 7.85986
142 1 4.70356 7.84818 7.84959
143 1 7.86397 7.85912 7.86149
144 1 11.0051 7.85912 7.86149
145 1 14.1655 7.84818 7.84959
146 1 17.3012 7.85912 7.85986
147 1 20.4415 7.86067 7.86114
687 3 9.43454 11.7932 11.007
149 1 1.57156 1.57084 11.007
150 1 3.14407 22.0131 9.43436
151 1 4.71633 1.57062 11.007
245 1 18.871 9.43345 12.5797
153 1 7.86215 1.57184 11.007
244 1 15.7333 9.43034 12.5811
155 1 11.0069 1.57184 11.007
243 1 12.6174 9.39366 12.6129
157 1 14.1527 1.57062 11.007
158 1 15.725 22.0131 9.43436
159 1 17.2975 1.57084 11.007
242 1 9.43453 9.45781 12.5697
161 1 20.4415 1.57104 11.007
162 1 22.0132 3.14291 9.43415
163 1 1.57033 4.71422 11.007
164 1 3.14319 3.14203 9.43394
165 1 4.71401 4.71172 11.007
166 1 6.289 3.14207 9.43423
167 1 7.86215 4.71524 11.007
168 1 9.43453 3.14486 9.43434
169 1 11.0069 4.71524 11.007
170 1 12.5801 3.14207 9.43423
171 1 14.1551 4.71172 11.007
172 1 15.7259 3.14203 9.43394
173 1 17.2987 4.71422 11.007
174 1 18.8698 3.14291 9.43415
175 1 20.4415 4.71506 11.007
176 1 22.0123 6.28717 9.43382
177 1 1.56776 7.85834 11.007
178 1 3.14003 6.28437 9.43279
179 1 4.70593 7.85037 11.007
180 1 6.28494 6.27909 9.43196
181 1 7.85378 7.85498 11.007
182 1 9.43453 6.29289 9.43523
183 1 11.0153 7.85498 11.007
184 1 12.5841 6.2791 9.43196
185 1 14.1631 7.85037 11.007
186 1 15.729 6.28437 9.43279
187 1 17.3013 7.85834 11.007
188 1 18.8707 6.28717 9.43382
189 1 20.4415 7.86022 11.007
190 1 22.012 9.43346 9.4342
191 1 3.13581 9.43034 9.43282
192 1 6.25162 9.39366 9.40105
193 1 9.43453 9.45781 9.44424
194 1 12.6174 9.39366 9.40105
195 1 15.7333 9.43034 9.43282
196 1 18.871 9.43345 9.4342
241 1 6.25162 9.39366 12.6129
198 1 1.5716 1.57104 14.1523
199 1 3.14407 22.0131 12.5796
200 1 4.71653 1.57108 14.1523
240 1 3.13581 9.43034 12.5811
202 1 7.86212 1.57262 14.1521
239 1 22.012 9.43346 12.5797
204 1 11.0069 1.57262 14.1521
238 1 20.4415 7.86067 14.1528
206 1 14.1525 1.57108 14.1523
207 1 15.725 22.0131 12.5796
208 1 17.2975 1.57104 14.1523
237 1 18.8707 6.28717 12.5801
210 1 20.4415 1.57118 14.1522
211 1 22.0132 3.14291 12.5798
212 1 1.57042 4.71446 14.1532
213 1 3.14319 3.14203 12.58
214 1 4.71451 4.71208 14.1542
215 1 6.28901 3.14207 12.5797
216 1 7.8626 4.71606 14.1523
217 1 9.43453 3.14486 12.5796
218 1 11.0065 4.71606 14.1523
219 1 12.5801 3.14207 12.5797
220 1 14.1546 4.71208 14.1542
221 1 15.7259 3.14203 12.58
222 1 17.2986 4.71446 14.1532
223 1 18.8698 3.14291 12.5798
224 1 20.4415 4.71524 14.1527
225 1 22.0123 6.28717 12.5801
226 1 1.56792 7.85912 14.1541
227 1 3.14003 6.28437 12.5811
228 1 4.70356 7.84818 14.1643
229 1 6.28494 6.27909 12.5819
230 1 7.86397 7.85911 14.1524
231 1 9.43453 6.29289 12.5787
232 1 11.0051 7.85911 14.1524
233 1 12.5841 6.2791 12.5819
234 1 14.1655 7.84818 14.1643
235 1 15.729 6.28437 12.5811
236 1 17.3012 7.85912 14.1541
197 1 22.0135 22.013 12.5795
160 1 18.8694 22.013 9.4344
209 1 18.8694 22.013 12.5795
148 1 22.0135 22.013 9.4344
205 1 12.5797 22.0137 12.5794
152 1 6.28936 22.0137 9.43455
156 1 12.5797 22.0137 9.43454
201 1 6.28937 22.0137 12.5794
332 1 14.1524 7.86145 20.4427
247 1 1.57168 1.57159 17.2975
343 1 18.8697 9.43403 18.8701
249 1 4.71675 1.57258 17.2974
342 1 15.7259 9.43375 18.871
251 1 7.86193 1.57318 17.2974
331 1 12.5793 6.28926 18.87
253 1 11.0071 1.57319 17.2974
341 1 12.5801 9.43419 18.8716
255 1 14.1523 1.57258 17.2974
340 1 9.43453 9.4348 18.8691
257 1 17.2974 1.57159 17.2975
330 1 11.0068 7.86208 20.4418
259 1 20.4415 1.57159 17.2972
260 1 22.0133 3.14324 15.7252
261 1 1.57074 4.71499 17.2987
262 1 3.14344 3.14252 15.7257
263 1 4.71654 4.71574 17.2982
264 1 6.28952 3.1441 15.7249
265 1 7.86204 4.71681 17.2975
266 1 9.43453 3.14469 15.725
267 1 11.007 4.71681 17.2975
268 1 12.5795 3.1441 15.7249
269 1 14.1525 4.71574 17.2982
270 1 15.7256 3.14252 15.7257
271 1 17.2983 4.71499 17.2987
272 1 18.8697 3.14324 15.7252
273 1 20.4415 4.7157 17.298
274 1 22.0124 6.28764 15.7259
275 1 1.57041 7.86059 17.2987
276 1 3.13993 6.28431 15.7291
277 1 4.71373 7.85856 17.3019
278 1 6.28905 6.28705 15.7261
279 1 7.86259 7.86191 17.2974
280 1 9.43453 6.28857 15.7257
281 1 11.0065 7.86191 17.2974
282 1 12.58 6.28705 15.7261
283 1 14.1553 7.85856 17.3019
284 1 15.7291 6.28431 15.7291
285 1 17.2987 7.86059 17.2987
286 1 18.8706 6.28764 15.7259
287 1 20.4415 7.86116 17.2979
288 1 22.0125 9.43376 15.7256
289 1 3.14019 9.43242 15.7278
290 1 6.2819 9.42791 15.7353
291 1 9.43453 9.43701 15.7219
292 1 12.5872 9.42791 15.7353
293 1 15.7289 9.43242 15.7278
294 1 18.8705 9.43376 15.7256
339 1 6.28897 9.43419 18.8716
296 1 1.57195 1.57242 20.4419
338 1 3.1432 9.43375 18.871
298 1 4.71691 1.57297 20.4419
337 1 22.0132 9.43403 18.8701
300 1 7.86198 1.57328 20.4418
336 1 20.4415 7.86152 20.442
302 1 11.0071 1.57328 20.4418
335 1 18.8697 6.28861 18.8702
304 1 14.1522 1.57296 20.4419
334 1 17.2974 7.8614 20.4423
306 1 17.2971 1.57242 20.4419
333 1 15.7258 6.28792 18.8714
308 1 20.4415 1.57208 20.4418
309 1 22.0134 3.1438 18.87
310 1 1.5717 4.71632 20.4423
311 1 3.14428 3.14424 18.87
312 1 4.71712 4.71698 20.442
313 1 6.28952 3.14494 18.8697
314 1 7.8621 4.71733 20.4418
315 1 9.43453 3.14519 18.8696
316 1 11.007 4.71733 20.4418
317 1 12.5795 3.14494 18.8697
318 1 14.1519 4.71698 20.442
319 1 15.7248 3.14424 18.87
320 1 17.2974 4.71632 20.4423
321 1 18.8695 3.1438 18.87
322 1 20.4415 4.71646 20.442
323 1 22.0133 6.28861 18.8702
324 1 1.57161 7.8614 20.4423
325 1 3.14329 6.28792 18.8714
326 1 4.71664 7.86145 20.4427
327 1 6.28972 6.28926 18.87
328 1 7.86223 7.86208 20.4418
329 1 9.43453 6.2895 18.8698
591 1 7.86159 11.008 17.2985
248 1 3.14407 22.0138 15.7247
592 1 11.0075 11.008 17.2985
256 1 15.725 22.0137 15.7247
640 1 7.86212 11.0073 20.4421
258 1 18.8694 22.0134 15.7246
641 1 11.0069 11.0073 20.4421
246 1 22.0135 22.0134 15.7246
103 1 12.5799 0.00133927 6.28895
462 1 18.8696 18.8693 6.28954
102 1 9.43453 0.00180294 6.28876
9 1 12.5798 0.00124347 2.54973e-06
461 1 15.7257 18.8706 6.28896
101 1 6.28916 0.00133945 6.28896
60 1 15.7251 0.000831502 3.14411
351 1 22.0134 12.5795 5.02145e-06
352 1 1.57134 14.1523 1.57174
353 1 3.1437 12.5795 4.03227e-06
354 1 4.71588 14.1526 1.57098
355 1 6.289 12.5796 2.43897e-06
356 1 7.86177 14.1529 1.5705
62 1 18.8695 1.05834e-05 3.14438
358 1 11.0073 14.1529 1.5705
359 1 12.5801 12.5796 2.44005e-06
360 1 14.1532 14.1526 1.57098
361 1 15.7254 12.5795 4.03364e-06
362 1 17.2977 14.1523 1.57174
363 1 18.8696 12.5795 5.02264e-06
364 1 20.4415 14.1522 1.57199
365 1 22.0133 15.7248 3.82723e-06
366 1 1.57124 17.2977 1.57177
367 1 3.14354 15.7252 5.80695e-06
368 1 4.71556 17.2987 1.5709
369 1 6.28871 15.7257 2.50743e-06
370 1 7.86139 17.2992 1.57077
371 1 9.43453 15.7261 1.06973e-07
372 1 11.0077 17.2992 1.57077
350 1 20.4415 11.0068 1.57193
374 1 14.1535 17.2987 1.5709
375 1 15.7255 15.7252 5.80915e-06
376 1 17.2978 17.2977 1.57177
377 1 18.8696 15.7248 3.82951e-06
378 1 20.4415 17.2973 1.57205
379 1 22.0133 18.8699 7.37979e-07
380 1 1.57149 20.4425 1.57194
381 1 3.14351 18.8706 4.26573e-06
382 1 4.71632 20.4431 1.57179
383 1 6.28877 18.8711 3.22241e-06
384 1 7.86172 20.4434 1.57172
385 1 9.43453 18.8713 1.56335e-06
386 1 11.0073 20.4434 1.57172
387 1 12.5803 18.8711 3.22228e-06
388 1 14.1527 20.4431 1.57179
389 1 15.7255 18.8706 4.26632e-06
390 1 17.2976 20.4425 1.57194
391 1 18.8696 18.8699 7.38834e-07
392 1 20.4415 20.4421 1.57207
393 1 1.57048 11.0066 4.71545
460 1 12.5818 18.8742 6.28693
52 1 3.14401 0.000832901 3.1441
13 1 18.8694 0.000351658 22.0139
459 1 9.43453 18.8746 6.28643
398 1 17.2986 11.0067 4.71545
458 1 6.28727 18.8742 6.28693
400 1 22.0132 12.5795 3.14388
401 1 1.57044 14.1526 4.71562
402 1 3.14302 12.5797 3.1429
403 1 4.71371 14.1539 4.71261
404 1 6.28809 12.5798 3.14153
405 1 7.86039 14.156 4.70823
406 1 9.43453 12.5803 3.14381
407 1 11.0087 14.156 4.70823
408 1 12.581 12.5798 3.14153
409 1 14.1553 14.1539 4.71261
410 1 15.726 12.5797 3.1429
411 1 17.2986 14.1526 4.71562
412 1 18.8698 12.5795 3.14388
413 1 20.4415 14.1523 4.71637
414 1 22.0131 15.7249 3.14404
415 1 1.57012 17.2984 4.7157
416 1 3.14276 15.7257 3.14282
417 1 4.71236 17.302 4.71235
418 1 6.28743 15.7272 3.14033
419 1 7.86036 17.302 4.71245
420 1 9.43453 15.728 3.14017
421 1 11.0087 17.302 4.71245
422 1 12.5816 15.7272 3.14033
423 1 14.1567 17.302 4.71235
424 1 15.7263 15.7257 3.14283
425 1 17.2989 17.2984 4.71571
426 1 18.8698 15.7249 3.14404
427 1 20.4415 17.2974 4.71666
428 1 22.0131 18.87 3.14413
429 1 1.57149 20.4421 4.7167
430 1 3.14276 18.8713 3.14315
431 1 4.71578 20.4438 4.71585
432 1 6.28832 18.8719 3.14284
433 1 7.86151 20.4443 4.71561
434 1 9.43452 18.8721 3.14274
435 1 11.0075 20.4443 4.71561
436 1 12.5807 18.8719 3.14284
437 1 14.1533 20.4438 4.71586
438 1 15.7263 18.8713 3.14315
439 1 17.2976 20.4421 4.7167
440 1 18.8699 18.87 3.14413
441 1 20.4415 20.4416 4.71699
442 1 22.0127 12.5796 6.28854
443 1 3.14075 12.58 6.28628
444 1 6.28361 12.5807 6.27975
445 1 9.43453 12.5851 6.29269
446 1 12.5855 12.5807 6.27975
447 1 15.7283 12.58 6.28628
448 1 18.8703 12.5796 6.28854
449 1 22.0127 15.7249 6.28907
450 1 3.13954 15.7278 6.28616
451 1 6.27716 15.7381 6.27598
452 1 9.43453 15.736 6.27835
453 1 12.5919 15.7381 6.27598
454 1 15.7295 15.7278 6.28616
455 1 18.8703 15.7249 6.28907
456 1 22.0134 18.8693 6.28954
457 1 3.14331 18.8706 6.28896
1 1 22.0135 0.000352868 22.0139
5 1 6.28927 0.00124504 2.54947e-06
399 1 20.4415 11.0068 4.71613
397 1 14.1552 11.0063 4.71317
394 1 4.71386 11.0063 4.71317
348 1 14.1529 11.0067 1.57118
345 1 4.71611 11.0067 1.57118
7 1 9.43453 0.00139163 2.53474e-06
344 1 1.57146 11.0068 1.57172
11 1 15.7248 0.000838775 1.17209e-06
3 1 3.14424 0.000841126 1.17172e-06
50 1 22.0135 1.14389e-05 3.14438
349 1 17.2976 11.0068 1.57171
54 1 6.28915 0.00138623 3.14402
56 1 9.43453 0.00158582 3.14398
58 1 12.5799 0.0013851 3.14402
588 1 20.4415 20.4412 14.1519
587 1 18.8694 18.869 12.5794
465 1 7.83737 10.9923 7.85361
466 1 11.0317 10.9923 7.85361
586 1 17.2973 20.4414 14.152
585 1 15.7251 18.8695 12.5795
584 1 14.1525 20.4422 14.152
470 1 1.56991 14.1521 7.8614
471 1 4.70618 14.1584 7.85432
472 1 7.82863 14.1927 7.82405
473 1 11.0404 14.1927 7.82405
474 1 14.1629 14.1584 7.85432
475 1 17.2992 14.1521 7.8614
476 1 20.4415 14.1519 7.86197
477 1 1.5715 17.2971 7.86214
478 1 4.71537 17.2993 7.86147
479 1 7.85954 17.3072 7.85736
480 1 11.0095 17.3072 7.85736
481 1 14.1537 17.2993 7.86147
482 1 17.2976 17.2971 7.86214
483 1 20.4415 17.2968 7.86217
484 1 1.57178 20.4414 7.86195
485 1 4.71657 20.4422 7.86195
486 1 7.8618 20.4442 7.86143
487 1 11.0073 20.4442 7.86143
488 1 14.1525 20.4422 7.86195
489 1 17.2973 20.4414 7.86195
490 1 20.4415 20.4412 7.862
583 1 12.5799 18.8703 12.5789
492 1 4.72026 11.0013 11.007
493 1 7.62996 10.93 11.007
494 1 11.2391 10.93 11.007
495 1 14.1488 11.0013 11.007
582 1 11.0073 20.4442 14.1525
581 1 9.43453 18.8711 12.5793
498 1 22.0133 12.5791 9.43455
499 1 1.57241 14.1515 11.007
500 1 3.14301 12.5784 9.43401
501 1 4.71963 14.1493 11.007
502 1 6.28119 12.594 9.40979
503 1 7.87181 14.1285 11.007
504 1 9.43453 12.6563 9.20239
505 1 10.9973 14.1285 11.007
506 1 12.5879 12.594 9.40979
507 1 14.1494 14.1493 11.007
508 1 15.7261 12.5784 9.43401
509 1 17.2967 14.1515 11.007
510 1 18.8696 12.5791 9.43455
511 1 20.4415 14.1517 11.007
512 1 22.0136 15.7243 9.43466
513 1 1.57174 17.2968 11.007
514 1 3.14409 15.7244 9.43502
515 1 4.71574 17.2978 11.007
516 1 6.28906 15.7272 9.4364
517 1 7.8628 17.2934 11.007
518 1 9.43453 15.7313 9.42621
519 1 11.0063 17.2934 11.007
520 1 12.58 15.7272 9.4364
521 1 14.1533 17.2978 11.007
522 1 15.725 15.7244 9.43501
523 1 17.2973 17.2968 11.007
524 1 18.8694 15.7243 9.43466
525 1 20.4415 17.2966 11.007
526 1 22.0136 18.869 9.43453
527 1 1.57183 20.4411 11.007
528 1 3.14394 18.8695 9.43447
529 1 4.71646 20.4416 11.007
530 1 6.28919 18.8703 9.43503
531 1 7.86192 20.4415 11.007
532 1 9.43453 18.8711 9.43458
533 1 11.0071 20.4415 11.007
534 1 12.5799 18.8703 9.43503
535 1 14.1526 20.4416 11.007
536 1 15.7251 18.8695 9.43447
537 1 17.2972 20.4411 11.007
538 1 18.8694 18.869 9.43453
539 1 20.4415 20.441 11.007
580 1 7.8618 20.4442 14.1525
579 1 6.28919 18.8703 12.5789
542 1 7.83737 10.9923 14.1603
543 1 11.0317 10.9923 14.1603
578 1 4.71657 20.4422 14.152
577 1 3.14394 18.8695 12.5795
576 1 1.57178 20.4414 14.152
547 1 22.0133 12.5791 12.5794
548 1 1.56992 14.1521 14.1525
549 1 3.14301 12.5784 12.5799
550 1 4.70618 14.1584 14.1596
551 1 6.28119 12.594 12.6041
552 1 7.82863 14.1927 14.1899
553 1 9.43453 12.6563 12.8115
554 1 11.0404 14.1927 14.1899
555 1 12.5879 12.594 12.6041
556 1 14.1629 14.1584 14.1596
557 1 15.7261 12.5784 12.5799
558 1 17.2992 14.1521 14.1525
559 1 18.8696 12.5791 12.5794
560 1 20.4415 14.1519 14.152
561 1 22.0136 15.7243 12.5793
562 1 1.5715 17.2971 14.1518
563 1 3.14409 15.7244 12.5789
564 1 4.71537 17.2993 14.1525
565 1 6.28906 15.7272 12.5775
566 1 7.85954 17.3072 14.1565
567 1 9.43453 15.7313 12.5877
568 1 11.0095 17.3072 14.1565
569 1 12.58 15.7272 12.5775
570 1 14.1537 17.2993 14.1525
571 1 15.725 15.7244 12.5789
572 1 17.2976 17.2971 14.1518
573 1 18.8694 15.7243 12.5793
574 1 20.4415 17.2968 14.1517
575 1 22.0136 18.869 12.5794
544 1 14.1617 11.0056 14.1579
541 1 4.70732 11.0056 14.1579
154 1 9.43453 0.000581791 9.43458
467 1 14.1617 11.0056 7.85604
203 1 9.43453 0.000580504 12.5793
464 1 4.70732 11.0056 7.85604
463 1 1.56911 11.0066 7.86052
546 1 20.4415 11.0067 14.1525
545 1 17.3 11.0066 14.1534
468 1 17.3 11.0066 7.86052
469 1 20.4415 11.0067 7.86142
540 1 1.56911 11.0066 14.1534
497 1 20.4415 11.0066 11.007
496 1 17.2977 11.0061 11.007
491 1 1.57138 11.0061 11.007
589 1 1.57048 11.0066 17.2985
686 1 20.4415 20.4421 20.4418
305 1 15.7251 0.000832656 18.8698
297 1 3.14401 0.000834055 18.8698
685 1 18.8699 18.87 18.8698
594 1 17.2986 11.0067 17.2985
684 1 17.2976 20.4425 20.442
596 1 22.0127 12.5796 15.7254
597 1 1.57044 14.1526 17.2983
598 1 3.14075 12.58 15.7276
599 1 4.71371 14.1539 17.3013
600 1 6.28361 12.5807 15.7342
601 1 7.86039 14.156 17.3057
602 1 9.43453 12.5851 15.7212
603 1 11.0087 14.156 17.3057
604 1 12.5855 12.5807 15.7342
605 1 14.1553 14.1539 17.3013
606 1 15.7283 12.58 15.7276
607 1 17.2986 14.1526 17.2983
608 1 18.8703 12.5796 15.7254
609 1 20.4415 14.1523 17.2975
610 1 22.0127 15.7249 15.7248
611 1 1.57012 17.2984 17.2982
612 1 3.13954 15.7278 15.7278
613 1 4.71236 17.302 17.3016
614 1 6.27716 15.7381 15.7379
615 1 7.86036 17.302 17.3015
616 1 9.43453 15.736 15.7356
617 1 11.0087 17.302 17.3015
618 1 12.5919 15.7381 15.7379
619 1 14.1567 17.302 17.3016
620 1 15.7295 15.7278 15.7278
621 1 17.2989 17.2984 17.2982
622 1 18.8703 15.7249 15.7248
623 1 20.4415 17.2974 17.2973
624 1 22.0134 18.8693 15.7244
625 1 1.57149 20.4421 17.2972
626 1 3.14331 18.8706 15.725
627 1 4.71578 20.4438 17.2981
628 1 6.28727 18.8742 15.727
629 1 7.86151 20.4443 17.2983
630 1 9.43453 18.8746 15.7275
631 1 11.0075 20.4443 17.2983
632 1 12.5818 18.8742 15.727
633 1 14.1533 20.4438 17.2981
634 1 15.7257 18.8706 15.725
635 1 17.2976 20.4421 17.2972
636 1 18.8696 18.8693 15.7244
637 1 20.4415 20.4416 17.2969
254 1 12.5799 0.00133916 15.725
683 1 15.7263 18.8713 18.8708
252 1 9.43453 0.00180265 15.7252
590 1 4.71386 11.0063 17.3007
682 1 14.1527 20.4431 20.4421
250 1 6.28916 0.00133934 15.725
681 1 12.5807 18.8719 18.8711
645 1 22.0132 12.5795 18.87
646 1 1.57134 14.1523 20.4422
647 1 3.14302 12.5797 18.871
648 1 4.71589 14.1526 20.4429
649 1 6.28809 12.5798 18.8724
650 1 7.86177 14.1529 20.4434
651 1 9.43453 12.5803 18.8701
652 1 11.0073 14.1529 20.4434
653 1 12.581 12.5798 18.8724
654 1 14.1532 14.1526 20.4429
655 1 15.726 12.5797 18.871
656 1 17.2977 14.1523 20.4422
657 1 18.8698 12.5795 18.87
658 1 20.4415 14.1522 20.4419
659 1 22.0131 15.7249 18.8699
660 1 1.57124 17.2977 20.4421
661 1 3.14276 15.7257 18.8711
662 1 4.71556 17.2987 20.443
663 1 6.28743 15.7272 18.8736
664 1 7.86139 17.2992 20.4431
665 1 9.43453 15.728 18.8737
666 1 11.0077 17.2992 20.4431
667 1 12.5816 15.7272 18.8736
668 1 14.1535 17.2987 20.443
669 1 15.7263 15.7257 18.8711
670 1 17.2978 17.2977 20.4421
671 1 18.8698 15.7249 18.8699
672 1 20.4415 17.2973 20.4419
673 1 22.0131 18.87 18.8698
674 1 1.57149 20.4425 20.442
675 1 3.14275 18.8713 18.8708
676 1 4.71632 20.4431 20.4421
677 1 6.28832 18.8719 18.8711
678 1 7.86172 20.4434 20.4422
679 1 9.43452 18.8721 18.8712
680 1 11.0073 20.4434 20.4422
593 1 14.1552 11.0063 17.3007
642 1 14.1529 11.0067 20.4427
639 1 4.71611 11.0067 20.4427
595 1 20.4415 11.0068 17.2978
307 1 18.8695 1.05019e-05 18.8695
303 1 12.5799 0.00138728 18.8699
644 1 20.4415 11.0068 20.442
643 1 17.2976 11.0068 20.4422
301 1 9.43453 0.00158786 18.8699
295 1 22.0135 1.13558e-05 18.8695
638 1 1.57146 11.0068 20.4422
299 1 6.28916 0.0013884 18.8699
357 1 9.43453 12.5798 2.07528e-06
373 1 12.5803 15.7257 2.50884e-06
