ITEM: TIMESTEP
41
ITEM: NUMBER OF ATOMS
687
ITEM: BOX BOUNDS pp pp pp
0.0000000000000000e+00 2.2013900999999997e+01
0.0000000000000000e+00 2.2013900999999997e+01
0.0000000000000000e+00 2.2013900999999997e+01
ITEM: ATOMS id type x y z
1 1 22.0137 22.0139 22.0135
2 1 1.57184 1.57208 1.57133
3 1 3.14468 4.18566e-07 22.0132
4 1 4.71684 1.57207 1.57109
5 1 6.28959 4.25254e-06 22.013
6 1 7.86195 1.57206 1.57093
7 1 9.43453 4.68792e-06 22.0129
8 1 11.0071 1.57206 1.57093
9 1 12.5795 4.25199e-06 22.013
10 1 14.1522 1.57207 1.57109
11 1 15.7244 4.18381e-07 22.0132
12 1 17.2972 1.57208 1.57133
13 1 18.8692 22.0139 22.0135
14 1 20.4415 1.57218 1.57169
15 1 22.0137 3.14467 22.0138
16 1 1.57187 4.71704 1.57174
17 1 3.14449 3.14452 22.0132
18 1 4.71641 4.71652 1.57045
19 1 6.28955 3.14455 22.0129
20 1 7.86182 4.71646 1.57035
21 1 9.43453 3.14453 22.0127
22 1 11.0072 4.71646 1.57035
23 1 12.5795 3.14455 22.0129
24 1 14.1527 4.71651 1.57045
25 1 15.7246 3.14452 22.0132
26 1 17.2972 4.71704 1.57174
27 1 18.8693 3.14467 22.0138
28 1 20.4415 4.71725 1.57215
29 1 22.0138 6.28968 0.000350258
30 1 1.57215 7.86219 1.57241
31 1 3.14471 6.28972 9.68329e-05
32 1 4.71722 7.86252 1.572
33 1 6.28976 6.28977 22.0129
34 1 7.86223 7.86232 1.57081
35 1 9.43453 6.28959 22.0127
36 1 11.0068 7.86232 1.57081
37 1 12.5793 6.28977 22.0129
38 1 14.1518 7.86252 1.572
39 1 15.7244 6.28972 9.71405e-05
40 1 17.2969 7.86219 1.57241
41 1 18.8692 6.28968 0.000350521
42 1 20.4415 7.86217 1.57256
43 1 22.0138 9.43454 0.000602702
44 1 1.57217 11.007 1.57263
45 1 3.1447 9.43458 0.000544461
46 1 4.71703 11.007 1.57251
47 1 6.29006 9.43497 0.000378048
48 1 7.86236 11.007 1.57381
49 1 9.43453 9.43505 22.0139
50 1 11.0067 11.007 1.57381
51 1 12.579 9.43497 0.000376606
52 1 14.152 11.007 1.57251
53 1 15.7244 9.43458 0.000544751
54 1 17.2969 11.007 1.57263
55 1 18.8692 9.43454 0.000602785
56 1 20.4415 11.007 1.5727
57 1 22.0138 12.5794 0.000601805
58 1 1.57215 14.1517 1.57241
59 1 3.1447 12.5793 0.000544043
60 1 4.71723 14.1514 1.572
61 1 6.29006 12.5789 0.000378049
62 1 7.86223 14.1516 1.57081
63 1 9.43453 12.5789 22.0139
64 1 11.0068 14.1516 1.57081
65 1 12.579 12.5789 0.000376607
66 1 14.1518 14.1514 1.572
67 1 15.7244 12.5793 0.000544332
68 1 17.2969 14.1517 1.57241
69 1 18.8692 12.5794 0.000601889
70 1 20.4415 14.1517 1.57256
71 1 22.0138 15.7242 0.000349474
72 1 1.57187 17.2969 1.57174
73 1 3.14471 15.7242 9.64029e-05
74 1 4.71641 17.2974 1.57045
75 1 6.28976 15.7241 22.0129
76 1 7.86182 17.2974 1.57035
77 1 9.43453 15.7243 22.0127
78 1 11.0072 17.2974 1.57035
79 1 12.5793 15.7241 22.0129
80 1 14.1527 17.2974 1.57045
81 1 15.7244 15.7242 9.67101e-05
82 1 17.2972 17.2969 1.57174
83 1 18.8692 15.7242 0.000349737
84 1 20.4415 17.2967 1.57215
85 1 22.0137 18.8692 22.0138
86 1 1.57184 20.4418 1.57133
87 1 3.14449 18.8694 22.0132
88 1 4.71684 20.4418 1.57109
89 1 6.28955 18.8694 22.0129
90 1 7.86195 20.4418 1.57093
91 1 9.43453 18.8694 22.0127
92 1 11.0071 20.4418 1.57093
93 1 12.5795 18.8694 22.0129
94 1 14.1522 20.4418 1.57109
95 1 15.7246 18.8694 22.0132
96 1 17.2972 20.4418 1.57133
97 1 18.8693 18.8692 22.0138
98 1 20.4415 20.4417 1.57169
99 1 22.0135 5.07705e-07 3.14384
100 1 1.57148 1.57182 4.71601
101 1 3.14399 2.6908e-06 3.14333
102 1 4.71606 1.57112 4.71541
103 1 6.28921 2.59006e-06 3.14318
104 1 7.86166 1.5712 4.71522
105 1 9.43453 3.04022e-06 3.14307
106 1 11.0074 1.5712 4.71522
107 1 12.5798 2.59068e-06 3.14318
108 1 14.153 1.57112 4.71541
109 1 15.7251 2.69072e-06 3.14333
110 1 17.2976 1.57182 4.71601
111 1 18.8694 5.08112e-07 3.14384
112 1 20.4415 1.57209 4.71635
113 1 22.0133 3.14426 3.1437
114 1 1.57022 4.71579 4.71535
115 1 3.14321 3.14343 3.14263
116 1 4.7127 4.71278 4.71219
117 1 6.28885 3.1435 3.14261
118 1 7.86067 4.71358 4.71305
119 1 9.43453 3.14352 3.14252
120 1 11.0084 4.71358 4.71305
121 1 12.5802 3.1435 3.1426
122 1 14.1564 4.71278 4.71219
123 1 15.7259 3.14343 3.14263
124 1 17.2988 4.71579 4.71534
125 1 18.8697 3.14426 3.1437
126 1 20.4415 4.71675 4.71636
127 1 22.0135 6.28973 3.14444
128 1 1.57152 7.86227 4.71683
129 1 3.14372 6.28932 3.1434
130 1 4.71549 7.86187 4.7151
131 1 6.28786 6.28788 3.14059
132 1 7.85981 7.85856 4.70879
133 1 9.43453 6.2876 3.14079
134 1 11.0093 7.85856 4.70879
135 1 12.5812 6.28788 3.14059
136 1 14.1536 7.86187 4.7151
137 1 15.7254 6.28932 3.1434
138 1 17.2975 7.86227 4.71683
139 1 18.8694 6.28972 3.14444
140 1 20.4415 7.86226 4.71708
141 1 22.0136 9.43459 3.14479
142 1 1.57168 11.007 4.71704
143 1 3.14421 9.43462 3.14449
144 1 4.71569 11.007 4.71666
145 1 6.28969 9.43556 3.14488
146 1 7.86313 11.007 4.7236
147 1 9.43453 9.43527 3.14537
148 1 11.0059 11.007 4.7236
149 1 12.5794 9.43556 3.14488
150 1 14.1534 11.007 4.71666
151 1 15.7249 9.43462 3.14449
152 1 17.2974 11.007 4.71704
153 1 18.8693 9.43459 3.14479
154 1 20.4415 11.007 4.7172
155 1 22.0136 12.5793 3.14479
156 1 1.57152 14.1516 4.71683
157 1 3.14421 12.5793 3.14449
158 1 4.71549 14.152 4.7151
159 1 6.28969 12.5784 3.14488
160 1 7.85981 14.1554 4.70879
161 1 9.43453 12.5786 3.14537
162 1 11.0093 14.1554 4.70879
163 1 12.5794 12.5784 3.14488
164 1 14.1536 14.152 4.7151
165 1 15.7249 12.5793 3.14449
166 1 17.2975 14.1516 4.71683
167 1 18.8693 12.5793 3.14479
168 1 20.4415 14.1517 4.71708
169 1 22.0135 15.7242 3.14444
170 1 1.57022 17.2981 4.71535
171 1 3.14372 15.7246 3.1434
172 1 4.7127 17.3011 4.71219
173 1 6.28786 15.726 3.14059
174 1 7.86067 17.3003 4.71305
175 1 9.43453 15.7263 3.14079
176 1 11.0084 17.3003 4.71305
177 1 12.5812 15.726 3.14059
178 1 14.1564 17.3011 4.71219
179 1 15.7253 15.7246 3.1434
180 1 17.2988 17.2981 4.71534
181 1 18.8694 15.7242 3.14444
182 1 20.4415 17.2972 4.71636
183 1 22.0133 18.8696 3.1437
184 1 1.57148 20.4421 4.71601
185 1 3.14321 18.8705 3.14263
186 1 4.71606 20.4428 4.71541
187 1 6.28885 18.8704 3.14261
188 1 7.86166 20.4427 4.71522
189 1 9.43453 18.8704 3.14252
190 1 11.0074 20.4427 4.71522
191 1 12.5802 18.8704 3.1426
192 1 14.153 20.4428 4.71541
193 1 15.7259 18.8705 3.14263
194 1 17.2976 20.4421 4.71601
195 1 18.8697 18.8696 3.1437
196 1 20.4415 20.4418 4.71635
197 1 22.0134 3.88305e-06 6.28888
198 1 1.57139 1.57172 7.86144
199 1 3.1438 3.29212e-06 6.2886
200 1 4.71606 1.571 7.86126
201 1 6.28912 1.72879e-06 6.28845
202 1 7.86199 1.57086 7.86121
203 1 9.43453 2.19754e-06 6.28807
204 1 11.0071 1.57086 7.86121
205 1 12.5799 1.73049e-06 6.28845
206 1 14.153 1.571 7.86126
207 1 15.7253 3.29232e-06 6.2886
208 1 17.2977 1.57172 7.86144
209 1 18.8695 3.88397e-06 6.28888
210 1 20.4415 1.57198 7.8616
211 1 22.0132 3.14406 6.28881
212 1 1.57028 4.71555 7.86124
213 1 3.1429 3.14285 6.28807
214 1 4.71345 4.71247 7.85999
215 1 6.28782 3.14088 6.28716
216 1 7.86047 4.7091 7.85872
217 1 9.43453 3.1411 6.28657
218 1 11.0086 4.7091 7.85872
219 1 12.5812 3.14088 6.28716
220 1 14.1556 4.71247 7.85999
221 1 15.7262 3.14286 6.28807
222 1 17.2988 4.71555 7.86125
223 1 18.8698 3.14406 6.28881
224 1 20.4415 4.71639 7.86163
225 1 22.0126 6.28914 6.289
226 1 1.56958 7.86141 7.86184
227 1 3.13923 6.28609 6.28602
228 1 4.70512 7.85385 7.85541
229 1 6.27702 6.27653 6.27649
230 1 7.82772 7.82439 7.82278
231 1 9.43453 6.27971 6.27974
232 1 11.0413 7.82439 7.82278
233 1 12.592 6.27653 6.2765
234 1 14.164 7.85385 7.85541
235 1 15.7298 6.28608 6.28603
236 1 17.2995 7.86141 7.86184
237 1 18.8704 6.28914 6.289
238 1 20.4415 7.86209 7.86223
239 1 22.0135 9.43472 6.28969
240 1 1.57224 11.007 7.86243
241 1 3.14377 9.43509 6.28959
242 1 4.71908 11.007 7.86487
243 1 6.28865 9.43676 6.28801
244 1 7.8712 11.007 7.88863
245 1 9.43453 9.42686 6.28671
246 1 10.9979 11.007 7.88863
247 1 12.5804 9.43676 6.28801
248 1 14.15 11.007 7.86487
249 1 15.7253 9.43509 6.28959
250 1 17.2968 11.007 7.86243
251 1 18.8695 9.43472 6.28969
252 1 20.4415 11.007 7.86232
253 1 22.0135 12.5792 6.28969
254 1 1.56958 14.1525 7.86184
255 1 3.14377 12.5788 6.28959
256 1 4.70512 14.1601 7.85541
257 1 6.28865 12.5771 6.28801
258 1 7.82772 14.1895 7.82278
259 1 9.43453 12.587 6.28671
260 1 11.0413 14.1895 7.82278
261 1 12.5804 12.5771 6.28801
262 1 14.1639 14.1601 7.85541
263 1 15.7253 12.5788 6.28959
264 1 17.2995 14.1525 7.86184
265 1 18.8695 12.5792 6.28969
266 1 20.4415 14.1518 7.86223
267 1 22.0126 15.7248 6.289
268 1 1.57028 17.2984 7.86124
269 1 3.13923 15.7278 6.28602
270 1 4.71345 17.3014 7.85999
271 1 6.27702 15.7374 6.27649
272 1 7.86047 17.3048 7.85872
273 1 9.43453 15.7342 6.27974
274 1 11.0086 17.3048 7.85872
275 1 12.592 15.7374 6.2765
276 1 14.1556 17.3014 7.85999
277 1 15.7298 15.7278 6.28602
278 1 17.2988 17.2984 7.86124
279 1 18.8704 15.7248 6.289
280 1 20.4415 17.2975 7.86163
281 1 22.0132 18.8699 6.28881
282 1 1.57139 20.4422 7.86144
283 1 3.1429 18.8711 6.28807
284 1 4.71606 20.4429 7.86126
285 1 6.28782 18.873 6.28716
286 1 7.86199 20.443 7.86121
287 1 9.43453 18.8728 6.28657
288 1 11.0071 20.443 7.86121
289 1 12.5812 18.873 6.28716
290 1 14.153 20.4429 7.86126
291 1 15.7262 18.8711 6.28807
292 1 17.2977 20.4422 7.86144
293 1 18.8698 18.8699 6.28881
294 1 20.4415 20.4419 7.8616
295 1 22.0134 4.49153e-06 9.43433
296 1 1.57143 1.57167 11.0071
297 1 3.14374 2.45792e-06 9.43422
298 1 4.71613 1.57104 11.007
299 1 6.28917 1.88018e-06 9.43419
300 1 7.86226 1.57188 11.0065
301 1 9.43453 3.68457e-06 9.43403
302 1 11.0068 1.57188 11.0065
303 1 12.5799 1.88231e-06 9.43418
304 1 14.1529 1.57104 11.007
305 1 15.7253 2.45923e-06 9.43422
306 1 17.2976 1.57167 11.0071
307 1 18.8696 4.49146e-06 9.43433
308 1 20.4415 1.57192 11.0071
309 1 22.0131 3.14385 9.43435
310 1 1.5703 4.71533 11.0073
311 1 3.14291 3.14272 9.43413
312 1 4.71349 4.71261 11.0076
313 1 6.28807 3.14149 9.43416
314 1 7.86149 4.71523 11.006
315 1 9.43453 3.14442 9.43376
316 1 11.0076 4.71523 11.006
317 1 12.581 3.14149 9.43416
318 1 14.1556 4.71261 11.0076
319 1 15.7262 3.14272 9.43413
320 1 17.2988 4.71533 11.0073
321 1 18.8698 3.14385 9.43435
322 1 20.4415 4.71616 11.0073
323 1 22.0125 6.28855 9.43444
324 1 1.56907 7.8605 11.0073
325 1 3.14019 6.28591 9.43387
326 1 4.7066 7.85513 11.0081
327 1 6.2827 6.27902 9.43337
328 1 7.83596 7.85224 11.0217
329 1 9.43453 6.29371 9.42973
330 1 11.0331 7.85224 11.0217
331 1 12.5864 6.27902 9.43337
332 1 14.1625 7.85513 11.0081
333 1 15.7289 6.28591 9.43387
334 1 17.3 7.8605 11.0073
335 1 18.8705 6.28855 9.43444
336 1 20.4415 7.8616 11.0073
337 1 22.0134 9.43468 9.43503
338 1 1.572 11.007 11.0077
339 1 3.1428 9.43392 9.43552
340 1 4.72129 11.007 11.0117
341 1 6.27981 9.40838 9.41977
342 1 7.62852 11.007 11.0814
343 1 9.43453 9.20092 9.36006
344 1 11.2405 11.007 11.0814
345 1 12.5893 9.40838 9.41977
346 1 14.1478 11.007 11.0117
347 1 15.7263 9.43392 9.43552
348 1 17.2971 11.007 11.0077
349 1 18.8696 9.43468 9.43503
350 1 20.4415 11.007 11.0075
351 1 22.0134 12.5792 9.43503
352 1 1.56907 14.1534 11.0073
353 1 3.1428 12.58 9.43552
354 1 4.7066 14.1588 11.0081
355 1 6.27981 12.6055 9.41977
356 1 7.83596 14.1617 11.0217
357 1 9.43453 12.813 9.36007
358 1 11.0331 14.1617 11.0217
359 1 12.5893 12.6055 9.41977
360 1 14.1625 14.1588 11.0081
361 1 15.7263 12.58 9.43552
362 1 17.3 14.1534 11.0073
363 1 18.8696 12.5792 9.43503
364 1 20.4415 14.1523 11.0073
365 1 22.0125 15.7254 9.43444
366 1 1.5703 17.2986 11.0074
367 1 3.14019 15.728 9.43387
368 1 4.71349 17.3013 11.0076
369 1 6.2827 15.7349 9.43337
370 1 7.86149 17.2987 11.006
371 1 9.43453 15.7202 9.42973
372 1 11.0076 17.2987 11.006
373 1 12.5864 15.7349 9.43337
374 1 14.1556 17.3013 11.0076
375 1 15.7289 15.728 9.43387
376 1 17.2988 17.2986 11.0074
377 1 18.8705 15.7254 9.43444
378 1 20.4415 17.2977 11.0073
379 1 22.0131 18.8701 9.43435
380 1 1.57143 20.4422 11.0071
381 1 3.1429 18.8712 9.43413
382 1 4.71613 20.4429 11.007
383 1 6.28807 18.8724 9.43416
384 1 7.86226 20.442 11.0065
385 1 9.43453 18.8695 9.43376
386 1 11.0068 20.442 11.0065
387 1 12.581 18.8724 9.43416
388 1 14.1529 20.4429 11.007
389 1 15.7262 18.8712 9.43413
390 1 17.2976 20.4422 11.0071
391 1 18.8698 18.8701 9.43435
392 1 20.4415 20.442 11.0071
393 1 22.0135 5.5192e-06 12.5799
394 1 1.57164 1.57168 14.1527
395 1 3.14396 2.53543e-06 12.5798
396 1 4.71671 1.57112 14.1525
397 1 6.28967 1.30777e-06 12.5793
398 1 7.86229 1.57201 14.1518
399 1 9.43453 3.29402e-07 12.5792
400 1 11.0068 1.57201 14.1518
401 1 12.5794 1.30891e-06 12.5793
402 1 14.1524 1.57112 14.1525
403 1 15.7251 2.53523e-06 12.5798
404 1 17.2974 1.57168 14.1527
405 1 18.8695 5.51991e-06 12.5799
406 1 20.4415 1.57194 14.1526
407 1 22.0132 3.14381 12.58
408 1 1.57043 4.71532 14.1534
409 1 3.14313 3.1427 12.5802
410 1 4.71366 4.71165 14.1555
411 1 6.28899 3.142 12.5796
412 1 7.86266 4.7162 14.1519
413 1 9.43453 3.14466 12.579
414 1 11.0064 4.7162 14.1519
415 1 12.5801 3.142 12.5796
416 1 14.1554 4.71165 14.1555
417 1 15.7259 3.1427 12.5802
418 1 17.2986 4.71532 14.1534
419 1 18.8698 3.14381 12.58
420 1 20.4415 4.71622 14.1529
421 1 22.0125 6.28849 12.5802
422 1 1.56846 7.86025 14.1543
423 1 3.14004 6.28587 12.5815
424 1 4.7041 7.84945 14.165
425 1 6.28142 6.27754 12.5861
426 1 7.86434 7.86108 14.1535
427 1 9.43453 6.29151 12.5766
428 1 11.0047 7.86108 14.1535
429 1 12.5876 6.27754 12.5861
430 1 14.165 7.84945 14.165
431 1 15.729 6.28587 12.5815
432 1 17.3006 7.86025 14.1543
433 1 18.8705 6.28849 12.5802
434 1 20.4415 7.86155 14.153
435 1 22.0123 9.43442 12.5803
436 1 1.56868 11.007 14.1549
437 1 3.13667 9.4329 12.5828
438 1 4.70728 11.007 14.1617
439 1 6.25196 9.40015 12.6187
440 1 7.85444 11.007 14.1548
441 1 9.43453 9.44362 12.5528
442 1 11.0146 11.007 14.1548
443 1 12.6171 9.40015 12.6187
444 1 14.1618 11.007 14.1617
445 1 15.7324 9.43289 12.5827
446 1 17.3004 11.007 14.1549
447 1 18.8706 9.43442 12.5803
448 1 20.4415 11.007 14.1534
449 1 22.0123 12.5795 12.5803
450 1 1.56846 14.1537 14.1543
451 1 3.13667 12.581 12.5828
452 1 4.7041 14.1645 14.165
453 1 6.25196 12.6138 12.6187
454 1 7.86434 14.1528 14.1535
455 1 9.43453 12.5703 12.5528
456 1 11.0047 14.1528 14.1535
457 1 12.6171 12.6138 12.6187
458 1 14.165 14.1645 14.165
459 1 15.7324 12.581 12.5827
460 1 17.3006 14.1537 14.1543
461 1 18.8706 12.5795 12.5803
462 1 20.4415 14.1524 14.153
463 1 22.0125 15.7254 12.5802
464 1 1.57043 17.2986 14.1534
465 1 3.14004 15.728 12.5815
466 1 4.71366 17.3023 14.1555
467 1 6.28142 15.7364 12.5861
468 1 7.86266 17.2977 14.1519
469 1 9.43453 15.7224 12.5766
470 1 11.0064 17.2977 14.1519
471 1 12.5876 15.7364 12.5861
472 1 14.1554 17.3023 14.1555
473 1 15.729 15.728 12.5815
474 1 17.2986 17.2986 14.1534
475 1 18.8705 15.7254 12.5802
476 1 20.4415 17.2977 14.1529
477 1 22.0132 18.8701 12.58
478 1 1.57164 20.4422 14.1527
479 1 3.14313 18.8712 12.5802
480 1 4.71671 20.4428 14.1525
481 1 6.28898 18.8719 12.5796
482 1 7.86229 20.4419 14.1518
483 1 9.43453 18.8692 12.579
484 1 11.0068 20.4419 14.1518
485 1 12.5801 18.8719 12.5796
486 1 14.1524 20.4428 14.1525
487 1 15.7259 18.8712 12.5802
488 1 17.2974 20.4422 14.1527
489 1 18.8698 18.8701 12.58
490 1 20.4415 20.442 14.1526
491 1 22.0136 5.36596e-06 15.7251
492 1 1.57184 1.57177 17.2978
493 1 3.14433 2.80731e-06 15.7251
494 1 4.7173 1.57205 17.297
495 1 6.28984 22.0139 15.7244
496 1 7.86216 1.57217 17.2967
497 1 9.43453 22.0139 15.7243
498 1 11.0069 1.57217 17.2967
499 1 12.5792 22.0139 15.7244
500 1 14.1518 1.57205 17.297
501 1 15.7247 2.80777e-06 15.7251
502 1 17.2972 1.57177 17.2978
503 1 18.8694 5.36768e-06 15.7251
504 1 20.4415 1.57203 17.2976
505 1 22.0133 3.1439 15.7255
506 1 1.57102 4.71563 17.2988
507 1 3.14337 3.14264 15.7261
508 1 4.7169 4.71614 17.2981
509 1 6.28984 3.14395 15.7247
510 1 7.8622 4.71663 17.297
511 1 9.43453 3.14411 15.7244
512 1 11.0069 4.71663 17.297
513 1 12.5792 3.14395 15.7247
514 1 14.1522 4.71614 17.2981
515 1 15.7257 3.14264 15.7261
516 1 17.2981 4.71563 17.2988
517 1 18.8697 3.1439 15.7255
518 1 20.4415 4.71641 17.2981
519 1 22.0126 6.28849 15.7261
520 1 1.57108 7.86127 17.2989
521 1 3.14036 6.28513 15.7293
522 1 4.71546 7.86028 17.3009
523 1 6.28944 6.28791 15.7264
524 1 7.86313 7.86212 17.2966
525 1 9.43453 6.28812 15.7248
526 1 11.0059 7.86212 17.2966
527 1 12.5796 6.28791 15.7264
528 1 14.1536 7.86028 17.3009
529 1 15.7287 6.28513 15.7293
530 1 17.298 7.86127 17.2989
531 1 18.8704 6.28849 15.7261
532 1 20.4415 7.86164 17.2983
533 1 22.0127 9.43409 15.7263
534 1 1.5711 11.007 17.299
535 1 3.14116 9.4331 15.7284
536 1 4.71517 11.007 17.3007
537 1 6.28613 9.43224 15.7327
538 1 7.86284 11.007 17.2961
539 1 9.43453 9.43555 15.7179
540 1 11.0062 11.007 17.2961
541 1 12.5829 9.43224 15.7327
542 1 14.1539 11.007 17.3007
543 1 15.7279 9.4331 15.7284
544 1 17.298 11.007 17.299
545 1 18.8703 9.43409 15.7263
546 1 20.4415 11.007 17.2984
547 1 22.0127 12.5798 15.7263
548 1 1.57108 14.1526 17.2989
549 1 3.14116 12.5808 15.7284
550 1 4.71546 14.1536 17.3009
551 1 6.28613 12.5817 15.7327
552 1 7.86313 14.1518 17.2966
553 1 9.43453 12.5784 15.7179
554 1 11.0059 14.1518 17.2966
555 1 12.5829 12.5817 15.7327
556 1 14.1536 14.1536 17.3009
557 1 15.7279 12.5808 15.7284
558 1 17.298 14.1526 17.2989
559 1 18.8703 12.5798 15.7263
560 1 20.4415 14.1523 17.2983
561 1 22.0126 15.7254 15.7261
562 1 1.57101 17.2983 17.2988
563 1 3.14036 15.7288 15.7293
564 1 4.7169 17.2978 17.2981
565 1 6.28944 15.726 15.7264
566 1 7.8622 17.2973 17.297
567 1 9.43453 15.7258 15.7248
568 1 11.0069 17.2973 17.297
569 1 12.5796 15.726 15.7264
570 1 14.1522 17.2978 17.2981
571 1 15.7287 15.7288 15.7293
572 1 17.2981 17.2983 17.2988
573 1 18.8704 15.7254 15.7261
574 1 20.4415 17.2975 17.2981
575 1 22.0133 18.87 15.7255
576 1 1.57184 20.4421 17.2978
577 1 3.14337 18.8713 15.7261
578 1 4.7173 20.4419 17.297
579 1 6.28984 18.87 15.7247
580 1 7.86216 20.4417 17.2967
581 1 9.43453 18.8698 15.7244
582 1 11.0069 20.4417 17.2967
583 1 12.5792 18.87 15.7247
584 1 14.1518 20.4419 17.297
585 1 15.7257 18.8713 15.7261
586 1 17.2972 20.4421 17.2978
587 1 18.8697 18.87 15.7255
588 1 20.4415 20.4419 17.2976
589 1 22.0137 1.41985e-06 18.8698
590 1 1.57226 1.57219 20.4416
591 1 3.14483 2.32042e-06 18.8693
592 1 4.71726 1.57229 20.4411
593 1 6.28975 1.87241e-06 18.8689
594 1 7.86211 1.57231 20.4409
595 1 9.43453 2.21179e-06 18.8688
596 1 11.0069 1.57231 20.4409
597 1 12.5793 1.87154e-06 18.8689
598 1 14.1518 1.57229 20.4411
599 1 15.7242 2.32098e-06 18.8693
600 1 17.2968 1.57219 20.4416
601 1 18.8693 1.42057e-06 18.8698
602 1 20.4415 1.57225 20.4419
603 1 22.0136 3.14426 18.8701
604 1 1.5721 4.71691 20.4422
605 1 3.14462 3.14429 18.8697
606 1 4.7173 4.71712 20.4414
607 1 6.28977 3.14457 18.8691
608 1 7.86216 4.71712 20.4409
609 1 9.43453 3.14459 18.8688
610 1 11.0069 4.71712 20.4409
611 1 12.5793 3.14457 18.8691
612 1 14.1518 4.71712 20.4414
613 1 15.7244 3.14429 18.8697
614 1 17.297 4.71691 20.4422
615 1 18.8694 3.14426 18.8701
616 1 20.4415 4.71709 20.4422
617 1 22.0136 6.28926 18.8704
618 1 1.57213 7.86197 20.4425
619 1 3.14409 6.28883 18.871
620 1 4.71735 7.86218 20.4425
621 1 6.2901 6.28965 18.8695
622 1 7.86255 7.86248 20.4411
623 1 9.43453 6.28945 18.869
624 1 11.0065 7.86248 20.4411
625 1 12.579 6.28965 18.8695
626 1 14.1517 7.86218 20.4425
627 1 15.725 6.28883 18.871
628 1 17.2969 7.86197 20.4425
629 1 18.8694 6.28926 18.8704
630 1 20.4415 7.86201 20.4424
631 1 22.0135 9.43437 18.8706
632 1 1.57211 11.007 20.4426
633 1 3.14404 9.43425 18.8711
634 1 4.71717 11.007 20.4427
635 1 6.2899 9.43465 18.8707
636 1 7.86262 11.007 20.4415
637 1 9.43453 9.43478 18.8677
638 1 11.0064 11.007 20.4415
639 1 12.5792 9.43465 18.8707
640 1 14.1519 11.007 20.4427
641 1 15.725 9.43425 18.8711
642 1 17.297 11.007 20.4426
643 1 18.8694 9.43437 18.8706
644 1 20.4415 11.007 20.4425
645 1 22.0135 12.5795 18.8706
646 1 1.57213 14.1519 20.4425
647 1 3.14404 12.5797 18.8711
648 1 4.71735 14.1517 20.4425
649 1 6.2899 12.5793 18.8707
650 1 7.86255 14.1514 20.4411
651 1 9.43453 12.5791 18.8677
652 1 11.0065 14.1514 20.4411
653 1 12.5792 12.5793 18.8707
654 1 14.1517 14.1517 20.4425
655 1 15.725 12.5797 18.8711
656 1 17.2969 14.1519 20.4425
657 1 18.8694 12.5795 18.8706
658 1 20.4415 14.1519 20.4424
659 1 22.0136 15.7246 18.8704
660 1 1.5721 17.297 20.4422
661 1 3.14409 15.7251 18.871
662 1 4.7173 17.2968 20.4414
663 1 6.2901 15.7243 18.8695
664 1 7.86216 17.2968 20.4409
665 1 9.43453 15.7245 18.869
666 1 11.0069 17.2968 20.4409
667 1 12.579 15.7243 18.8695
668 1 14.1518 17.2968 20.4414
669 1 15.725 15.7251 18.871
670 1 17.297 17.297 20.4422
671 1 18.8694 15.7246 18.8704
672 1 20.4415 17.2968 20.4422
673 1 22.0136 18.8696 18.8701
674 1 1.57226 20.4417 20.4416
675 1 3.14462 18.8696 18.8697
676 1 4.71726 20.4416 20.4411
677 1 6.28977 18.8693 18.8691
678 1 7.86211 20.4416 20.4409
679 1 9.43453 18.8693 18.8688
680 1 11.0069 20.4416 20.4409
681 1 12.5793 18.8693 18.8691
682 1 14.1518 20.4416 20.4411
683 1 15.7244 18.8696 18.8697
684 1 17.2968 20.4417 20.4416
685 1 18.8694 18.8696 18.8701
686 1 20.4415 20.4416 20.4419
687 3 9.43453 11.007 10.2207
