ITEM: TIMESTEP
58
ITEM: NUMBER OF ATOMS
687
ITEM: BOX BOUNDS pp pp pp
0.0000000000000000e+00 2.2013900999999997e+01
0.0000000000000000e+00 2.2013900999999997e+01
0.0000000000000000e+00 2.2013900999999997e+01
ITEM: ATOMS id type x y z
126 1 18.8705 9.434 6.28828
2 1 1.57171 1.5718 1.57199
125 1 15.7285 9.43294 6.28563
4 1 4.71656 1.57167 1.57192
111 1 15.7256 3.14299 6.28867
6 1 7.86183 1.57159 1.57188
110 1 12.5805 3.1421 6.28808
8 1 11.0072 1.57159 1.57188
109 1 9.43453 3.14199 6.28774
10 1 14.1525 1.57167 1.57192
124 1 12.5836 9.43234 6.27987
12 1 17.2973 1.5718 1.57199
123 1 9.43453 9.4348 6.28197
14 1 20.4415 1.57194 1.57207
15 1 22.0134 3.14412 22.0139
16 1 1.57143 4.71622 1.5717
17 1 3.14395 3.14386 2.6173e-08
18 1 4.71619 4.7159 1.5714
19 1 6.28909 3.14374 8.0802e-07
20 1 7.86167 4.71577 1.57138
21 1 9.43453 3.14369 5.77995e-07
22 1 11.0074 4.71577 1.57138
23 1 12.58 3.14373 8.08041e-07
24 1 14.1529 4.7159 1.5714
25 1 15.7251 3.14386 2.61858e-08
26 1 17.2976 4.71622 1.5717
27 1 18.8695 3.14412 22.0139
28 1 20.4415 4.71653 1.57198
29 1 22.0134 6.28906 22.0139
30 1 1.57144 7.86151 1.57168
31 1 3.14382 6.2888 1.02051e-06
32 1 4.7162 7.86135 1.57109
33 1 6.28905 6.28866 1.16346e-06
34 1 7.86182 7.86125 1.57105
35 1 9.43453 6.2885 9.85587e-07
36 1 11.0072 7.86125 1.57105
37 1 12.58 6.28866 1.1634e-06
38 1 14.1529 7.86135 1.57109
39 1 15.7252 6.2888 1.02096e-06
40 1 17.2976 7.86151 1.57168
41 1 18.8695 6.28906 22.0139
42 1 20.4415 7.86165 1.57193
43 1 22.0134 9.43431 5.96147e-07
44 1 3.1438 9.43424 1.04761e-06
45 1 6.28918 9.43434 1.19674e-06
46 1 9.43453 9.43427 1.52762e-06
47 1 12.5799 9.43434 1.19661e-06
48 1 15.7253 9.43424 1.04772e-06
49 1 18.8695 9.43431 5.96148e-07
122 1 6.28543 9.43234 6.27987
51 1 1.57159 1.57173 4.71659
121 1 3.14055 9.43294 6.28563
53 1 4.71629 1.57121 4.71623
120 1 22.0125 9.434 6.28828
55 1 7.8617 1.57111 4.71606
119 1 18.8705 6.2883 6.28847
57 1 11.0074 1.57111 4.71606
118 1 15.7293 6.28488 6.2851
59 1 14.1528 1.57121 4.71623
117 1 12.584 6.28324 6.28346
61 1 17.2975 1.57173 4.71659
116 1 9.43453 6.28425 6.28391
63 1 20.4415 1.57202 4.71685
64 1 22.0132 3.14384 3.14403
65 1 1.57039 4.7152 4.71542
66 1 3.14353 3.14337 3.14362
67 1 4.7148 4.71412 4.71444
68 1 6.28884 3.14325 3.14351
69 1 7.8612 4.71426 4.71451
70 1 9.43453 3.1432 3.14346
71 1 11.0079 4.71426 4.71451
72 1 12.5802 3.14324 3.14351
73 1 14.1543 4.71412 4.71444
74 1 15.7255 3.14337 3.14362
75 1 17.2987 4.71521 4.71542
76 1 18.8697 3.14384 3.14403
77 1 20.4415 4.71613 4.71632
78 1 22.0132 6.28881 3.14387
79 1 1.57045 7.86095 4.71533
80 1 3.14302 6.28804 3.1427
81 1 4.71419 7.8595 4.71238
82 1 6.28834 6.28764 3.14207
83 1 7.86105 7.85909 4.71166
84 1 9.43453 6.28742 3.14203
85 1 11.008 7.85909 4.71166
86 1 12.5807 6.28764 3.14207
87 1 14.1549 7.8595 4.71238
88 1 15.726 6.28804 3.1427
89 1 17.2986 7.86095 4.71533
90 1 18.8698 6.28881 3.14387
91 1 20.4415 7.86142 4.71615
92 1 22.0132 9.43422 3.14381
93 1 3.14308 9.43396 3.14277
94 1 6.2886 9.43411 3.1419
95 1 9.43453 9.43417 3.14272
96 1 12.5805 9.43411 3.1419
97 1 15.726 9.43396 3.14277
98 1 18.8698 9.43422 3.14381
108 1 6.28856 3.1421 6.28809
115 1 6.28508 6.28324 6.28346
114 1 3.13971 6.28488 6.2851
107 1 3.14348 3.14299 6.28867
113 1 22.0125 6.2883 6.28847
112 1 18.8696 3.14402 6.28922
106 1 22.0134 3.14402 6.28922
396 1 11.0082 11.0074 4.71538
104 1 15.7249 6.82967e-05 6.28917
395 1 7.86086 11.0074 4.71538
100 1 3.14411 6.91319e-05 6.28917
346 1 7.86197 11.007 1.57166
105 1 18.8694 0.000126044 6.28933
347 1 11.0071 11.007 1.57166
99 1 22.0135 0.000126424 6.28933
127 1 1.57173 1.57194 7.8618
128 1 4.71669 1.57154 7.86183
129 1 7.86203 1.57127 7.86167
130 1 11.007 1.57127 7.86167
131 1 14.1524 1.57154 7.86183
132 1 17.2973 1.57194 7.8618
133 1 20.4415 1.57213 7.86188
134 1 1.57113 4.71577 7.86152
135 1 4.7156 4.71363 7.86077
136 1 7.86175 4.71302 7.85972
137 1 11.0073 4.71302 7.85972
138 1 14.1535 4.71363 7.86077
139 1 17.2979 4.71577 7.86152
140 1 20.4415 4.71633 7.86176
141 1 1.56856 7.86004 7.86012
142 1 4.70462 7.85016 7.84977
143 1 7.85488 7.84824 7.84566
144 1 11.0142 7.84824 7.84566
145 1 14.1644 7.85016 7.84977
146 1 17.3005 7.86004 7.86012
147 1 20.4415 7.86128 7.86142
687 3 9.43453 10.7344 11.007
149 1 1.57175 1.57202 11.007
150 1 3.14411 0.00020114 9.43436
151 1 4.71657 1.57177 11.007
245 1 18.8709 9.43395 12.5799
153 1 7.86215 1.5726 11.007
244 1 15.7328 9.43177 12.5825
155 1 11.0069 1.5726 11.007
243 1 12.6113 9.40284 12.6161
157 1 14.1525 1.57177 11.007
158 1 15.7249 0.000200655 9.43436
159 1 17.2973 1.57202 11.007
242 1 9.43453 9.39949 12.6349
161 1 20.4415 1.57217 11.007
162 1 22.0134 3.14411 9.43438
163 1 1.57127 4.71591 11.007
164 1 3.14377 3.14346 9.43427
165 1 4.71555 4.71473 11.007
166 1 6.28954 3.14353 9.43468
167 1 7.86233 4.7202 11.007
168 1 9.43453 3.14479 9.4347
169 1 11.0067 4.7202 11.007
170 1 12.5795 3.14353 9.43468
171 1 14.1535 4.71473 11.007
172 1 15.7253 3.14346 9.43427
173 1 17.2978 4.71591 11.007
174 1 18.8695 3.14411 9.43438
175 1 20.4415 4.71636 11.007
176 1 22.013 6.28851 9.43425
177 1 1.56976 7.86036 11.007
178 1 3.14251 6.28698 9.43377
179 1 4.71072 7.85786 11.007
180 1 6.28925 6.28492 9.43413
181 1 7.85665 7.88662 11.007
182 1 9.43453 6.29041 9.43478
183 1 11.0124 7.88662 11.007
184 1 12.5798 6.28492 9.43413
185 1 14.1583 7.85786 11.007
186 1 15.7266 6.28698 9.43377
187 1 17.2993 7.86035 11.007
188 1 18.87 6.28851 9.43425
189 1 20.4415 7.86121 11.007
190 1 22.012 9.43395 9.43404
191 1 3.13625 9.43177 9.43137
192 1 6.2578 9.40284 9.39781
193 1 9.43453 9.3995 9.37904
194 1 12.6113 9.40284 9.39781
195 1 15.7328 9.43177 9.43137
196 1 18.8709 9.43395 9.43404
241 1 6.2578 9.40284 12.6161
198 1 1.57174 1.57194 14.1521
199 1 3.14411 0.000200622 12.5796
200 1 4.71669 1.57154 14.1521
240 1 3.13625 9.43177 12.5825
202 1 7.86203 1.57126 14.1522
239 1 22.012 9.43395 12.5799
204 1 11.007 1.57126 14.1522
238 1 20.4415 7.86128 14.1525
206 1 14.1524 1.57154 14.1521
207 1 15.7249 0.000200137 12.5796
208 1 17.2973 1.57194 14.1521
237 1 18.87 6.28851 12.5797
210 1 20.4415 1.57213 14.152
211 1 22.0134 3.14411 12.5795
212 1 1.57113 4.71577 14.1524
213 1 3.14377 3.14346 12.5796
214 1 4.7156 4.71363 14.1531
215 1 6.28954 3.14353 12.5792
216 1 7.86175 4.71302 14.1542
217 1 9.43453 3.14479 12.5792
218 1 11.0073 4.71302 14.1542
219 1 12.5795 3.14353 12.5792
220 1 14.1535 4.71363 14.1531
221 1 15.7253 3.14346 12.5796
222 1 17.2979 4.71577 14.1524
223 1 18.8695 3.14411 12.5795
224 1 20.4415 4.71633 14.1521
225 1 22.013 6.28851 12.5797
226 1 1.56856 7.86004 14.1538
227 1 3.14251 6.28698 12.5801
228 1 4.70462 7.85016 14.1641
229 1 6.28925 6.28492 12.5798
230 1 7.85488 7.84824 14.1682
231 1 9.43453 6.29041 12.5791
232 1 11.0142 7.84824 14.1682
233 1 12.5798 6.28492 12.5798
234 1 14.1644 7.85016 14.1641
235 1 15.7266 6.28698 12.5801
236 1 17.3005 7.86004 14.1538
197 1 22.0135 0.000196599 12.5795
160 1 18.8694 0.000196642 9.4344
209 1 18.8694 0.000196286 12.5795
148 1 22.0135 0.000196954 9.4344
205 1 12.5796 0.000139363 12.5794
152 1 6.2895 0.000139866 9.43455
156 1 12.5796 0.000139923 9.43455
201 1 6.2895 0.000139306 12.5794
332 1 14.1529 7.86135 20.4428
247 1 1.57159 1.57173 17.2973
343 1 18.8698 9.43422 18.8701
249 1 4.71629 1.57121 17.2977
342 1 15.726 9.43396 18.8711
251 1 7.8617 1.57111 17.2978
331 1 12.5807 6.28764 18.8718
253 1 11.0074 1.57111 17.2978
341 1 12.5805 9.43411 18.872
255 1 14.1528 1.57121 17.2977
340 1 9.43453 9.43417 18.8712
257 1 17.2975 1.57173 17.2973
330 1 11.0072 7.86125 20.4429
259 1 20.4415 1.57202 17.297
260 1 22.0134 3.14402 15.7247
261 1 1.57039 4.7152 17.2985
262 1 3.14349 3.14299 15.7252
263 1 4.7148 4.71412 17.2995
264 1 6.28856 3.1421 15.7258
265 1 7.8612 4.71426 17.2994
266 1 9.43453 3.14199 15.7262
267 1 11.0079 4.71426 17.2994
268 1 12.5805 3.1421 15.7258
269 1 14.1543 4.71412 17.2995
270 1 15.7256 3.14299 15.7252
271 1 17.2987 4.71521 17.2985
272 1 18.8696 3.14402 15.7247
273 1 20.4415 4.71613 17.2976
274 1 22.0125 6.2883 15.7254
275 1 1.57045 7.86095 17.2986
276 1 3.13971 6.28488 15.7288
277 1 4.71419 7.8595 17.3015
278 1 6.28508 6.28324 15.7304
279 1 7.86105 7.85909 17.3022
280 1 9.43453 6.28425 15.73
281 1 11.008 7.85909 17.3022
282 1 12.584 6.28324 15.7304
283 1 14.1549 7.8595 17.3015
284 1 15.7293 6.28488 15.7288
285 1 17.2986 7.86095 17.2986
286 1 18.8705 6.2883 15.7254
287 1 20.4415 7.86142 17.2978
288 1 22.0125 9.434 15.7256
289 1 3.14055 9.43294 15.7283
290 1 6.28543 9.43234 15.734
291 1 9.43453 9.4348 15.7319
292 1 12.5836 9.43234 15.734
293 1 15.7285 9.43294 15.7283
294 1 18.8705 9.434 15.7256
339 1 6.2886 9.43411 18.872
296 1 1.57171 1.5718 20.4419
338 1 3.14308 9.43396 18.8711
298 1 4.71656 1.57167 20.442
337 1 22.0132 9.43422 18.8701
300 1 7.86183 1.57159 20.442
336 1 20.4415 7.86165 20.442
302 1 11.0072 1.57159 20.442
335 1 18.8698 6.28881 18.87
304 1 14.1525 1.57167 20.442
334 1 17.2976 7.86151 20.4422
306 1 17.2973 1.5718 20.4419
333 1 15.726 6.28804 18.8712
308 1 20.4415 1.57194 20.4418
309 1 22.0132 3.14384 18.8699
310 1 1.57143 4.71622 20.4422
311 1 3.14353 3.14337 18.8703
312 1 4.71619 4.7159 20.4425
313 1 6.28884 3.14325 18.8704
314 1 7.86167 4.71577 20.4425
315 1 9.43453 3.1432 18.8704
316 1 11.0074 4.71577 20.4425
317 1 12.5802 3.14324 18.8704
318 1 14.1529 4.7159 20.4425
319 1 15.7255 3.14337 18.8703
320 1 17.2976 4.71622 20.4422
321 1 18.8697 3.14384 18.8699
322 1 20.4415 4.71653 20.4419
323 1 22.0132 6.28881 18.87
324 1 1.57144 7.86151 20.4422
325 1 3.14302 6.28804 18.8712
326 1 4.7162 7.86135 20.4428
327 1 6.28834 6.28764 18.8718
328 1 7.86182 7.86125 20.4429
329 1 9.43453 6.28742 18.8719
591 1 7.86086 11.0074 17.2985
248 1 3.14411 6.906e-05 15.7247
592 1 11.0082 11.0074 17.2985
256 1 15.7249 6.82243e-05 15.7247
640 1 7.86197 11.007 20.4422
258 1 18.8694 0.000126008 15.7246
641 1 11.0071 11.007 20.4422
246 1 22.0135 0.000126389 15.7246
103 1 12.5798 22.0136 6.28904
462 1 18.8697 18.8702 6.28902
102 1 9.43453 22.0135 6.28885
9 1 12.5798 22.0136 9.97154e-07
461 1 15.7257 18.8713 6.28837
101 1 6.28925 22.0136 6.28904
60 1 15.725 22.0137 3.14416
351 1 22.0134 12.5796 1.97172e-06
352 1 1.57149 14.1524 1.57165
353 1 3.14384 12.5797 1.57331e-06
354 1 4.71634 14.1526 1.57105
355 1 6.28928 12.5796 9.40346e-07
356 1 7.86206 14.1523 1.57162
62 1 18.8695 5.28421e-06 3.14437
358 1 11.007 14.1523 1.57162
359 1 12.5798 12.5796 9.40073e-07
360 1 14.1527 14.1526 1.57105
361 1 15.7252 12.5797 1.57334e-06
362 1 17.2976 14.1524 1.57165
363 1 18.8695 12.5796 1.97178e-06
364 1 20.4415 14.1523 1.57191
365 1 22.0135 15.7249 1.49692e-06
366 1 1.57152 17.2977 1.57166
367 1 3.14396 15.7251 2.26743e-06
368 1 4.71658 17.2976 1.57163
369 1 6.28935 15.7249 9.63952e-07
370 1 7.86183 17.2976 1.57166
371 1 9.43453 15.725 22.0139
372 1 11.0072 17.2976 1.57166
350 1 20.4415 11.007 1.57192
374 1 14.1525 17.2976 1.57163
375 1 15.7251 15.7251 2.26745e-06
376 1 17.2975 17.2977 1.57166
377 1 18.8695 15.7249 1.49714e-06
378 1 20.4415 17.2974 1.57194
379 1 22.0135 18.8697 2.78371e-07
380 1 1.57181 20.4419 1.572
381 1 3.14419 18.8697 1.68615e-06
382 1 4.71669 20.4418 1.57197
383 1 6.28927 18.8697 1.26829e-06
384 1 7.86188 20.4417 1.57195
385 1 9.43453 18.8696 5.57335e-07
386 1 11.0072 20.4417 1.57195
387 1 12.5798 18.8697 1.26828e-06
388 1 14.1524 20.4418 1.57197
389 1 15.7249 18.8697 1.68612e-06
390 1 17.2972 20.4419 1.572
391 1 18.8695 18.8697 2.7838e-07
392 1 20.4415 20.4419 1.57207
393 1 1.57044 11.007 4.71533
460 1 12.5799 18.8708 6.28854
52 1 3.14406 22.0137 3.14416
13 1 18.8694 22.0138 22.0139
459 1 9.43453 18.8708 6.2882
398 1 17.2986 11.007 4.71533
458 1 6.28914 18.8708 6.28854
400 1 22.0132 12.5797 3.14378
401 1 1.5704 14.1531 4.71518
402 1 3.1431 12.58 3.14273
403 1 4.71407 14.1549 4.71175
404 1 6.28868 12.58 3.14184
405 1 7.86242 14.1533 4.71477
406 1 9.43453 12.5795 3.14453
407 1 11.0066 14.1533 4.71477
408 1 12.5804 12.58 3.14184
409 1 14.155 14.1549 4.71175
410 1 15.726 12.58 3.14273
411 1 17.2987 14.1531 4.71518
412 1 18.8698 12.5797 3.14378
413 1 20.4415 14.1526 4.71606
414 1 22.0132 15.7252 3.14378
415 1 1.57042 17.2989 4.71519
416 1 3.14309 15.726 3.14251
417 1 4.71577 17.299 4.71512
418 1 6.28908 15.7255 3.143
419 1 7.86158 17.2986 4.71527
420 1 9.43453 15.7257 3.14295
421 1 11.0075 17.2986 4.71527
422 1 12.58 15.7255 3.143
423 1 14.1533 17.299 4.71512
424 1 15.726 15.726 3.14251
425 1 17.2986 17.2989 4.71519
426 1 18.8698 15.7252 3.14378
427 1 20.4415 17.298 4.71613
428 1 22.0133 18.8701 3.14396
429 1 1.57161 20.4423 4.71651
430 1 3.14386 18.8702 3.14376
431 1 4.71651 20.4422 4.71636
432 1 6.2891 18.87 3.14378
433 1 7.86179 20.442 4.71623
434 1 9.43453 18.87 3.14377
435 1 11.0073 20.442 4.71623
436 1 12.58 18.87 3.14378
437 1 14.1525 20.4422 4.71636
438 1 15.7252 18.8702 3.14376
439 1 17.2974 20.4423 4.71651
440 1 18.8697 18.8701 3.14396
441 1 20.4415 20.4421 4.71678
442 1 22.0124 12.58 6.28822
443 1 3.14026 12.5811 6.28541
444 1 6.2848 12.5829 6.27853
445 1 9.43453 12.5764 6.29318
446 1 12.5843 12.5829 6.27853
447 1 15.7288 12.5811 6.28541
448 1 18.8705 12.58 6.28822
449 1 22.0123 15.726 6.28816
450 1 3.13922 15.73 6.28417
451 1 6.28818 15.728 6.28609
452 1 9.43453 15.7274 6.28601
453 1 12.5809 15.728 6.2861
454 1 15.7298 15.73 6.28417
455 1 18.8707 15.726 6.28816
456 1 22.0133 18.8702 6.28902
457 1 3.14339 18.8713 6.28837
1 1 22.0136 22.0138 22.0139
5 1 6.28927 22.0136 9.97094e-07
399 1 20.4415 11.007 4.71607
397 1 14.1553 11.007 4.71273
394 1 4.7138 11.007 4.71273
348 1 14.1529 11.007 1.57114
345 1 4.71612 11.007 1.57114
7 1 9.43453 22.0136 9.74723e-07
344 1 1.57145 11.007 1.57169
11 1 15.7248 22.0137 4.80447e-07
3 1 3.14425 22.0137 4.80329e-07
50 1 22.0135 5.61576e-06 3.14437
349 1 17.2976 11.007 1.57169
54 1 6.28916 22.0136 3.14406
56 1 9.43453 22.0136 3.14402
58 1 12.5799 22.0136 3.14406
588 1 20.4415 20.4421 14.1521
587 1 18.8696 18.8703 12.5796
465 1 7.84723 11.0084 7.86691
466 1 11.0218 11.0084 7.86691
586 1 17.2974 20.4423 14.1522
585 1 15.7256 18.8711 12.5798
584 1 14.1524 20.4427 14.1522
470 1 1.56759 14.1546 7.85955
471 1 4.70141 14.1679 7.84613
472 1 7.86431 14.1556 7.85741
473 1 11.0047 14.1556 7.85741
474 1 14.1677 14.1679 7.84613
475 1 17.3015 14.1546 7.85955
476 1 20.4415 14.1529 7.86121
477 1 1.57073 17.2988 7.86115
478 1 4.71487 17.3017 7.85983
479 1 7.86268 17.2987 7.86071
480 1 11.0064 17.2987 7.86071
481 1 14.1542 17.3017 7.85983
482 1 17.2983 17.2988 7.86115
483 1 20.4415 17.298 7.86154
484 1 1.57167 20.4423 7.86171
485 1 4.71663 20.4427 7.86169
486 1 7.86212 20.442 7.86171
487 1 11.0069 20.442 7.86171
488 1 14.1524 20.4427 7.86169
489 1 17.2974 20.4423 7.86171
490 1 20.4415 20.4421 7.86181
583 1 12.5796 18.8713 12.5795
492 1 4.69573 11.0102 11.007
493 1 7.5013 11.0568 11.007
494 1 11.3678 11.0568 11.007
495 1 14.1733 11.0102 11.007
582 1 11.0069 20.442 14.1522
581 1 9.43453 18.8686 12.5795
498 1 22.0116 12.5802 9.43396
499 1 1.5683 14.1546 11.007
500 1 3.13324 12.5838 9.43068
501 1 4.70622 14.1614 11.007
502 1 6.24396 12.6274 9.38687
503 1 7.85117 14.1472 11.007
504 1 9.43453 12.5598 9.4472
505 1 11.0179 14.1472 11.007
506 1 12.6251 12.6274 9.38687
507 1 14.1628 14.1614 11.007
508 1 15.7358 12.5838 9.43068
509 1 17.3008 14.1546 11.007
510 1 18.8714 12.5802 9.43396
511 1 20.4415 14.1531 11.007
512 1 22.0126 15.726 9.43406
513 1 1.5708 17.2988 11.007
514 1 3.14093 15.7286 9.4331
515 1 4.71478 17.301 11.007
516 1 6.28659 15.7341 9.43196
517 1 7.86276 17.2962 11.007
518 1 9.43453 15.7184 9.4357
519 1 11.0063 17.2962 11.007
520 1 12.5825 15.7341 9.43196
521 1 14.1543 17.301 11.007
522 1 15.7281 15.7286 9.4331
523 1 17.2983 17.2988 11.007
524 1 18.8704 15.726 9.43406
525 1 20.4415 17.2981 11.007
526 1 22.0133 18.8703 9.43429
527 1 1.57167 20.4423 11.007
528 1 3.14351 18.8711 9.43412
529 1 4.7165 20.4427 11.007
530 1 6.28941 18.8713 9.4344
531 1 7.86228 20.4417 11.007
532 1 9.43453 18.8686 9.43437
533 1 11.0068 20.4417 11.007
534 1 12.5796 18.8713 9.4344
535 1 14.1526 20.4427 11.007
536 1 15.7256 18.8711 9.43412
537 1 17.2974 20.4423 11.007
538 1 18.8696 18.8703 9.43429
539 1 20.4415 20.4422 11.007
580 1 7.86212 20.442 14.1522
579 1 6.28941 18.8713 12.5795
542 1 7.84723 11.0084 14.147
543 1 11.0218 11.0084 14.147
578 1 4.71663 20.4427 14.1522
577 1 3.14351 18.8711 12.5798
576 1 1.57168 20.4423 14.1522
547 1 22.0116 12.5802 12.5799
548 1 1.56759 14.1546 14.1544
549 1 3.13324 12.5838 12.5832
550 1 4.70141 14.1679 14.1678
551 1 6.24396 12.6274 12.627
552 1 7.86431 14.1556 14.1565
553 1 9.43453 12.5598 12.5667
554 1 11.0047 14.1556 14.1565
555 1 12.6251 12.6274 12.627
556 1 14.1677 14.1679 14.1678
557 1 15.7358 12.5838 12.5832
558 1 17.3015 14.1546 14.1544
559 1 18.8714 12.5802 12.5799
560 1 20.4415 14.1529 14.1527
561 1 22.0126 15.726 12.5798
562 1 1.57074 17.2988 14.1528
563 1 3.14093 15.7286 12.5808
564 1 4.71487 17.3017 14.1541
565 1 6.28659 15.7341 12.5819
566 1 7.86268 17.2987 14.1532
567 1 9.43453 15.7184 12.5782
568 1 11.0064 17.2987 14.1532
569 1 12.5825 15.7341 12.5819
570 1 14.1542 17.3017 14.1541
571 1 15.7281 15.7286 12.5808
572 1 17.2983 17.2988 14.1528
573 1 18.8704 15.726 12.5798
574 1 20.4415 17.298 14.1524
575 1 22.0133 18.8703 12.5796
544 1 14.1635 11.0071 14.1604
541 1 4.70558 11.0071 14.1604
154 1 9.43453 22.0138 9.43454
467 1 14.1635 11.0071 7.85348
203 1 9.43453 22.0138 12.5794
464 1 4.70558 11.0071 7.85348
463 1 1.56831 11.0069 7.8599
546 1 20.4415 11.007 14.1527
545 1 17.3008 11.0069 14.154
468 1 17.3008 11.0069 7.8599
469 1 20.4415 11.007 7.8612
540 1 1.56831 11.0069 14.154
497 1 20.4415 11.007 11.007
496 1 17.3019 11.0071 11.007
491 1 1.56721 11.0071 11.007
589 1 1.57044 11.007 17.2986
686 1 20.4415 20.4419 20.4418
305 1 15.725 22.0137 18.8697
297 1 3.14406 22.0137 18.8697
685 1 18.8697 18.8701 18.8699
594 1 17.2986 11.007 17.2986
684 1 17.2972 20.4419 20.4419
596 1 22.0124 12.58 15.7257
597 1 1.5704 14.1531 17.2987
598 1 3.14026 12.5811 15.7285
599 1 4.71407 14.1549 17.3022
600 1 6.2848 12.5829 15.7354
601 1 7.86242 14.1533 17.2991
602 1 9.43453 12.5764 15.7207
603 1 11.0066 14.1533 17.2991
604 1 12.5843 12.5829 15.7354
605 1 14.155 14.1549 17.3022
606 1 15.7288 12.5811 15.7285
607 1 17.2987 14.1531 17.2987
608 1 18.8705 12.58 15.7257
609 1 20.4415 14.1526 17.2978
610 1 22.0123 15.726 15.7257
611 1 1.57042 17.2989 17.2987
612 1 3.13923 15.73 15.7297
613 1 4.71577 17.299 17.2988
614 1 6.28818 15.728 15.7278
615 1 7.86158 17.2986 17.2986
616 1 9.43453 15.7274 15.7279
617 1 11.0075 17.2986 17.2986
618 1 12.5809 15.728 15.7278
619 1 14.1533 17.299 17.2988
620 1 15.7298 15.73 15.7297
621 1 17.2986 17.2989 17.2987
622 1 18.8707 15.726 15.7257
623 1 20.4415 17.298 17.2978
624 1 22.0133 18.8702 15.7249
625 1 1.57161 20.4423 17.2974
626 1 3.14339 18.8713 15.7255
627 1 4.71651 20.4422 17.2975
628 1 6.28915 18.8708 15.7254
629 1 7.86179 20.442 17.2977
630 1 9.43453 18.8708 15.7257
631 1 11.0073 20.442 17.2977
632 1 12.5799 18.8708 15.7254
633 1 14.1525 20.4422 17.2975
634 1 15.7257 18.8713 15.7255
635 1 17.2974 20.4423 17.2974
636 1 18.8697 18.8702 15.7249
637 1 20.4415 20.4421 17.2971
254 1 12.5798 22.0136 15.7249
683 1 15.7252 18.8702 18.8701
252 1 9.43453 22.0135 15.7251
590 1 4.7138 11.007 17.3012
682 1 14.1524 20.4418 20.4419
250 1 6.28925 22.0136 15.7249
681 1 12.58 18.87 18.8701
645 1 22.0132 12.5797 18.8701
646 1 1.57149 14.1524 20.4423
647 1 3.1431 12.58 18.8712
648 1 4.71634 14.1526 20.4428
649 1 6.28868 12.58 18.8721
650 1 7.86206 14.1523 20.4423
651 1 9.43453 12.5795 18.8694
652 1 11.007 14.1523 20.4423
653 1 12.5804 12.58 18.8721
654 1 14.1527 14.1526 20.4428
655 1 15.726 12.58 18.8712
656 1 17.2976 14.1524 20.4423
657 1 18.8698 12.5797 18.8701
658 1 20.4415 14.1523 20.442
659 1 22.0132 15.7252 18.8701
660 1 1.57152 17.2977 20.4422
661 1 3.14309 15.726 18.8714
662 1 4.71658 17.2976 20.4423
663 1 6.28908 15.7255 18.8709
664 1 7.86183 17.2976 20.4422
665 1 9.43453 15.7257 18.871
666 1 11.0072 17.2976 20.4422
667 1 12.58 15.7255 18.8709
668 1 14.1525 17.2976 20.4423
669 1 15.726 15.726 18.8714
670 1 17.2975 17.2977 20.4422
671 1 18.8698 15.7252 18.8701
672 1 20.4415 17.2974 20.442
673 1 22.0133 18.8701 18.8699
674 1 1.57181 20.4419 20.4419
675 1 3.14386 18.8702 18.8701
676 1 4.71669 20.4418 20.4419
677 1 6.2891 18.87 18.8701
678 1 7.86188 20.4417 20.442
679 1 9.43453 18.87 18.8701
680 1 11.0072 20.4417 20.442
593 1 14.1553 11.007 17.3012
642 1 14.1529 11.007 20.4428
639 1 4.71612 11.007 20.4428
595 1 20.4415 11.007 17.2978
307 1 18.8695 5.3195e-06 18.8695
303 1 12.5799 22.0136 18.8698
644 1 20.4415 11.007 20.442
643 1 17.2976 11.007 20.4422
301 1 9.43453 22.0136 18.8699
295 1 22.0135 5.65108e-06 18.8695
638 1 1.57145 11.007 20.4422
299 1 6.28916 22.0136 18.8698
357 1 9.43453 12.5796 8.3421e-07
373 1 12.5797 15.7249 9.63915e-07
