ITEM: TIMESTEP
39
ITEM: NUMBER OF ATOMS
687
ITEM: BOX BOUNDS pp pp pp
0.0000000000000000e+00 2.2013900999999997e+01
0.0000000000000000e+00 2.2013900999999997e+01
0.0000000000000000e+00 2.2013900999999997e+01
ITEM: ATOMS id type x y z
1 1 22.0137 22.0139 22.0135
2 1 1.57185 1.57208 1.57133
3 1 3.14468 22.0139 22.0132
4 1 4.71685 1.57208 1.57111
5 1 6.28959 4.52743e-06 22.013
6 1 7.86195 1.57207 1.57095
7 1 9.43453 4.77842e-06 22.0129
8 1 11.0071 1.57207 1.57095
9 1 12.5795 4.52672e-06 22.013
10 1 14.1522 1.57208 1.57111
11 1 15.7244 22.0139 22.0132
12 1 17.2972 1.57208 1.57133
13 1 18.8692 22.0139 22.0135
14 1 20.4415 1.57218 1.57169
15 1 22.0137 3.14468 22.0138
16 1 1.57189 4.71705 1.57174
17 1 3.14451 3.14453 22.0132
18 1 4.71644 4.71655 1.57048
19 1 6.28956 3.14457 22.0129
20 1 7.86184 4.7165 1.5704
21 1 9.43453 3.14455 22.0128
22 1 11.0072 4.7165 1.5704
23 1 12.5795 3.14457 22.0129
24 1 14.1526 4.71655 1.57048
25 1 15.7246 3.14453 22.0132
26 1 17.2972 4.71704 1.57174
27 1 18.8693 3.14468 22.0138
28 1 20.4415 4.71725 1.57215
29 1 22.0138 6.28969 0.000345786
30 1 1.57217 7.86219 1.57242
31 1 3.14473 6.28974 9.43589e-05
32 1 4.71726 7.86255 1.57202
33 1 6.28979 6.28981 22.0129
34 1 7.86227 7.86238 1.57091
35 1 9.43453 6.28962 22.0127
36 1 11.0068 7.86238 1.57091
37 1 12.5793 6.28981 22.0129
38 1 14.1518 7.86254 1.57202
39 1 15.7243 6.28973 9.49024e-05
40 1 17.2969 7.86219 1.57242
41 1 18.8692 6.28969 0.000346148
42 1 20.4415 7.86218 1.57256
43 1 22.0138 9.43454 0.000597321
44 1 1.57218 11.007 1.57263
45 1 3.14472 9.43458 0.000535766
46 1 4.71706 11.007 1.57252
47 1 6.2901 9.43499 0.000389563
48 1 7.86241 11.007 1.57393
49 1 9.43453 9.43507 1.71317e-05
50 1 11.0067 11.007 1.57393
51 1 12.579 9.43499 0.000387734
52 1 14.152 11.007 1.57251
53 1 15.7243 9.43458 0.000536284
54 1 17.2969 11.007 1.57263
55 1 18.8692 9.43454 0.000597459
56 1 20.4415 11.007 1.57269
57 1 22.0138 12.5794 0.000596299
58 1 1.57217 14.1517 1.57242
59 1 3.14472 12.5793 0.000535337
60 1 4.71727 14.1514 1.57202
61 1 6.2901 12.5789 0.00038966
62 1 7.86227 14.1515 1.57091
63 1 9.43453 12.5788 1.772e-05
64 1 11.0068 14.1515 1.57091
65 1 12.579 12.5789 0.000387831
66 1 14.1518 14.1514 1.57202
67 1 15.7243 12.5793 0.000535853
68 1 17.2969 14.1517 1.57242
69 1 18.8692 12.5794 0.000596437
70 1 20.4415 14.1517 1.57256
71 1 22.0138 15.7242 0.000344943
72 1 1.57189 17.2969 1.57174
73 1 3.14473 15.7242 9.38961e-05
74 1 4.71644 17.2974 1.57048
75 1 6.28979 15.7241 22.0129
76 1 7.86184 17.2974 1.5704
77 1 9.43453 15.7243 22.0127
78 1 11.0072 17.2974 1.5704
79 1 12.5793 15.7241 22.0129
80 1 14.1526 17.2974 1.57048
81 1 15.7243 15.7242 9.44392e-05
82 1 17.2972 17.2969 1.57174
83 1 18.8692 15.7242 0.000345305
84 1 20.4415 17.2966 1.57215
85 1 22.0137 18.8692 22.0138
86 1 1.57185 20.4418 1.57133
87 1 3.14451 18.8694 22.0132
88 1 4.71685 20.4418 1.57111
89 1 6.28955 18.8693 22.0129
90 1 7.86195 20.4418 1.57095
91 1 9.43453 18.8694 22.0128
92 1 11.0071 20.4418 1.57095
93 1 12.5795 18.8693 22.0129
94 1 14.1522 20.4418 1.57111
95 1 15.7246 18.8694 22.0132
96 1 17.2972 20.4418 1.57133
97 1 18.8693 18.8692 22.0138
98 1 20.4415 20.4417 1.57169
99 1 22.0135 2.2797e-07 3.14384
100 1 1.57149 1.57182 4.71601
101 1 3.14401 2.86068e-06 3.14335
102 1 4.7161 1.57114 4.71545
103 1 6.28923 2.40581e-06 3.1432
104 1 7.86168 1.57124 4.71525
105 1 9.43453 2.94358e-06 3.1431
106 1 11.0074 1.57124 4.71526
107 1 12.5798 2.40636e-06 3.1432
108 1 14.153 1.57114 4.71545
109 1 15.7251 2.86048e-06 3.14335
110 1 17.2976 1.57182 4.71601
111 1 18.8694 2.28472e-07 3.14384
112 1 20.4415 1.5721 4.71636
113 1 22.0133 3.14426 3.14371
114 1 1.57023 4.7158 4.71535
115 1 3.14323 3.14345 3.14265
116 1 4.71275 4.71281 4.71223
117 1 6.28889 3.14355 3.14266
118 1 7.86073 4.71371 4.71316
119 1 9.43453 3.14357 3.14257
120 1 11.0083 4.71371 4.71317
121 1 12.5802 3.14355 3.14266
122 1 14.1563 4.71281 4.71223
123 1 15.7258 3.14345 3.14265
124 1 17.2988 4.7158 4.71535
125 1 18.8697 3.14426 3.14371
126 1 20.4415 4.71676 4.71636
127 1 22.0135 6.28973 3.14445
128 1 1.57154 7.86228 4.71684
129 1 3.14375 6.28933 3.14342
130 1 4.71553 7.8619 4.71512
131 1 6.28793 6.28796 3.14067
132 1 7.85989 7.85873 4.70899
133 1 9.43453 6.28768 3.14092
134 1 11.0092 7.85873 4.70899
135 1 12.5811 6.28796 3.14067
136 1 14.1535 7.8619 4.71512
137 1 15.7253 6.28933 3.14342
138 1 17.2975 7.86227 4.71684
139 1 18.8694 6.28973 3.14445
140 1 20.4415 7.86227 4.71708
141 1 22.0137 9.43459 3.14479
142 1 1.57169 11.007 4.71704
143 1 3.14423 9.43462 3.1445
144 1 4.71569 11.007 4.71665
145 1 6.28976 9.43561 3.14497
146 1 7.86322 11.007 4.72396
147 1 9.43453 9.43534 3.14564
148 1 11.0058 11.007 4.72397
149 1 12.5793 9.43561 3.14497
150 1 14.1534 11.007 4.71665
151 1 15.7248 9.43462 3.14449
152 1 17.2974 11.007 4.71704
153 1 18.8693 9.43459 3.14479
154 1 20.4415 11.007 4.7172
155 1 22.0137 12.5793 3.14479
156 1 1.57154 14.1516 4.71684
157 1 3.14423 12.5793 3.1445
158 1 4.71553 14.152 4.71512
159 1 6.28976 12.5783 3.14497
160 1 7.8599 14.1552 4.70899
161 1 9.43453 12.5786 3.14564
162 1 11.0092 14.1552 4.70899
163 1 12.5793 12.5783 3.14497
164 1 14.1535 14.152 4.71512
165 1 15.7248 12.5793 3.1445
166 1 17.2975 14.1516 4.71684
167 1 18.8693 12.5793 3.14479
168 1 20.4415 14.1516 4.71708
169 1 22.0135 15.7242 3.14445
170 1 1.57023 17.2981 4.71535
171 1 3.14375 15.7246 3.14342
172 1 4.71275 17.3011 4.71223
173 1 6.28793 15.7259 3.14067
174 1 7.86073 17.3002 4.71316
175 1 9.43453 15.7262 3.14092
176 1 11.0083 17.3002 4.71316
177 1 12.5811 15.7259 3.14067
178 1 14.1563 17.3011 4.71223
179 1 15.7253 15.7246 3.14342
180 1 17.2988 17.2981 4.71535
181 1 18.8694 15.7242 3.14445
182 1 20.4415 17.2972 4.71636
183 1 22.0133 18.8696 3.14371
184 1 1.57149 20.4421 4.71601
185 1 3.14323 18.8705 3.14265
186 1 4.7161 20.4428 4.71544
187 1 6.28889 18.8704 3.14266
188 1 7.86168 20.4427 4.71525
189 1 9.43453 18.8703 3.14257
190 1 11.0074 20.4427 4.71526
191 1 12.5802 18.8704 3.14266
192 1 14.153 20.4428 4.71545
193 1 15.7258 18.8705 3.14265
194 1 17.2976 20.4421 4.71601
195 1 18.8697 18.8696 3.14371
196 1 20.4415 20.4418 4.71635
197 1 22.0134 3.88247e-06 6.28888
198 1 1.5714 1.57172 7.86144
199 1 3.14381 3.34059e-06 6.28861
200 1 4.71609 1.57101 7.86126
201 1 6.28916 1.47644e-06 6.28848
202 1 7.86202 1.57092 7.86123
203 1 9.43453 2.07939e-06 6.2881
204 1 11.007 1.57092 7.86124
205 1 12.5799 1.47796e-06 6.28848
206 1 14.153 1.57101 7.86126
207 1 15.7252 3.3407e-06 6.28861
208 1 17.2977 1.57172 7.86144
209 1 18.8695 3.88364e-06 6.28888
210 1 20.4415 1.57199 7.8616
211 1 22.0132 3.14407 6.28881
212 1 1.57029 4.71557 7.86125
213 1 3.14292 3.14287 6.28807
214 1 4.71346 4.71248 7.85998
215 1 6.28789 3.14097 6.28722
216 1 7.86053 4.7093 7.85883
217 1 9.43453 3.14123 6.28663
218 1 11.0085 4.7093 7.85883
219 1 12.5812 3.14097 6.28722
220 1 14.1556 4.71248 7.85999
221 1 15.7261 3.14287 6.28807
222 1 17.2988 4.71557 7.86125
223 1 18.8698 3.14407 6.28881
224 1 20.4415 4.7164 7.86163
225 1 22.0126 6.28915 6.28901
226 1 1.56958 7.86144 7.86186
227 1 3.13922 6.28608 6.28601
228 1 4.70499 7.8538 7.85534
229 1 6.27703 6.2766 6.27653
230 1 7.82754 7.8245 7.82286
231 1 9.43453 6.27995 6.27994
232 1 11.0415 7.8245 7.82286
233 1 12.592 6.2766 6.27653
234 1 14.1641 7.8538 7.85535
235 1 15.7298 6.28608 6.28601
236 1 17.2995 7.86144 7.86186
237 1 18.8704 6.28915 6.28901
238 1 20.4415 7.86212 7.86225
239 1 22.0135 9.43472 6.2897
240 1 1.57226 11.007 7.86244
241 1 3.14377 9.43511 6.28959
242 1 4.7191 11.007 7.86486
243 1 6.28863 9.43686 6.28807
244 1 7.87121 11.007 7.88926
245 1 9.43453 9.42702 6.28735
246 1 10.9979 11.007 7.88926
247 1 12.5804 9.43686 6.28807
248 1 14.15 11.007 7.86487
249 1 15.7253 9.43511 6.28959
250 1 17.2968 11.007 7.86244
251 1 18.8695 9.43472 6.2897
252 1 20.4415 11.007 7.86233
253 1 22.0135 12.5792 6.2897
254 1 1.56958 14.1525 7.86186
255 1 3.14377 12.5788 6.28959
256 1 4.70499 14.1601 7.85534
257 1 6.28863 12.577 6.28807
258 1 7.82754 14.1894 7.82286
259 1 9.43453 12.5869 6.28735
260 1 11.0415 14.1894 7.82286
261 1 12.5804 12.577 6.28807
262 1 14.1641 14.1601 7.85535
263 1 15.7253 12.5788 6.28959
264 1 17.2995 14.1525 7.86186
265 1 18.8695 12.5792 6.2897
266 1 20.4415 14.1518 7.86225
267 1 22.0126 15.7248 6.28901
268 1 1.57029 17.2983 7.86125
269 1 3.13922 15.7278 6.28601
270 1 4.71346 17.3014 7.85998
271 1 6.27703 15.7373 6.27653
272 1 7.86053 17.3046 7.85883
273 1 9.43453 15.734 6.27994
274 1 11.0085 17.3046 7.85883
275 1 12.592 15.7373 6.27653
276 1 14.1556 17.3014 7.85999
277 1 15.7298 15.7278 6.28601
278 1 17.2988 17.2983 7.86125
279 1 18.8704 15.7248 6.28901
280 1 20.4415 17.2975 7.86163
281 1 22.0132 18.8698 6.28881
282 1 1.5714 20.4422 7.86144
283 1 3.14292 18.871 6.28807
284 1 4.71609 20.4429 7.86126
285 1 6.28789 18.8729 6.28722
286 1 7.86202 20.443 7.86123
287 1 9.43453 18.8727 6.28663
288 1 11.007 20.443 7.86123
289 1 12.5812 18.8729 6.28722
290 1 14.153 20.4429 7.86126
291 1 15.7261 18.871 6.28807
292 1 17.2977 20.4422 7.86144
293 1 18.8698 18.8698 6.28881
294 1 20.4415 20.4419 7.8616
295 1 22.0134 4.35818e-06 9.43433
296 1 1.57144 1.57167 11.0071
297 1 3.14376 2.21509e-06 9.43421
298 1 4.71615 1.57104 11.007
299 1 6.2892 1.66665e-06 9.43418
300 1 7.86229 1.57192 11.0064
301 1 9.43453 3.99388e-06 9.43402
302 1 11.0068 1.57192 11.0064
303 1 12.5799 1.66874e-06 9.43418
304 1 14.1529 1.57104 11.007
305 1 15.7253 2.21666e-06 9.43421
306 1 17.2976 1.57167 11.0071
307 1 18.8696 4.35797e-06 9.43433
308 1 20.4415 1.57193 11.0071
309 1 22.0132 3.14386 9.43435
310 1 1.57031 4.71534 11.0074
311 1 3.14292 3.14273 9.43413
312 1 4.71349 4.7126 11.0076
313 1 6.2881 3.14152 9.43415
314 1 7.86153 4.71529 11.0059
315 1 9.43453 3.14459 9.43376
316 1 11.0075 4.71529 11.0059
317 1 12.581 3.14152 9.43415
318 1 14.1556 4.7126 11.0076
319 1 15.7261 3.14273 9.43413
320 1 17.2988 4.71534 11.0074
321 1 18.8698 3.14386 9.43435
322 1 20.4415 4.71618 11.0073
323 1 22.0125 6.28857 9.43445
324 1 1.5691 7.86053 11.0073
325 1 3.14017 6.28591 9.43387
326 1 4.70655 7.85506 11.0081
327 1 6.28263 6.27898 9.43338
328 1 7.83568 7.85209 11.0218
329 1 9.43453 6.29412 9.42984
330 1 11.0334 7.85209 11.0218
331 1 12.5864 6.27898 9.43338
332 1 14.1625 7.85505 11.0081
333 1 15.7289 6.28591 9.43387
334 1 17.3 7.86053 11.0073
335 1 18.8704 6.28857 9.43445
336 1 20.4415 7.86163 11.0073
337 1 22.0134 9.43472 9.43505
338 1 1.57217 11.007 11.0077
339 1 3.14287 9.43396 9.43553
340 1 4.72169 11.007 11.0116
341 1 6.27966 9.40811 9.41963
342 1 7.62814 11.007 11.0809
343 1 9.43453 9.20055 9.36054
344 1 11.2409 11.007 11.0809
345 1 12.5894 9.40811 9.41963
346 1 14.1474 11.007 11.0116
347 1 15.7262 9.43396 9.43553
348 1 17.2969 11.007 11.0077
349 1 18.8696 9.43472 9.43505
350 1 20.4415 11.007 11.0075
351 1 22.0134 12.5792 9.43505
352 1 1.5691 14.1534 11.0073
353 1 3.14287 12.58 9.43553
354 1 4.70655 14.1589 11.0081
355 1 6.27966 12.6058 9.41963
356 1 7.83568 14.1618 11.0218
357 1 9.43453 12.8134 9.36055
358 1 11.0334 14.1618 11.0218
359 1 12.5894 12.6058 9.41963
360 1 14.1625 14.1589 11.0081
361 1 15.7262 12.58 9.43553
362 1 17.3 14.1534 11.0073
363 1 18.8696 12.5792 9.43505
364 1 20.4415 14.1523 11.0073
365 1 22.0125 15.7253 9.43445
366 1 1.57031 17.2986 11.0074
367 1 3.14017 15.728 9.43387
368 1 4.71349 17.3013 11.0076
369 1 6.28263 15.7349 9.43338
370 1 7.86153 17.2986 11.0059
371 1 9.43453 15.7198 9.42984
372 1 11.0075 17.2986 11.0059
373 1 12.5864 15.7349 9.43338
374 1 14.1556 17.3013 11.0076
375 1 15.7289 15.728 9.43387
376 1 17.2988 17.2986 11.0074
377 1 18.8704 15.7254 9.43445
378 1 20.4415 17.2977 11.0073
379 1 22.0132 18.8701 9.43435
380 1 1.57144 20.4422 11.0071
381 1 3.14292 18.8712 9.43413
382 1 4.71614 20.4429 11.007
383 1 6.2881 18.8724 9.43415
384 1 7.86229 20.442 11.0064
385 1 9.43453 18.8693 9.43376
386 1 11.0068 20.442 11.0064
387 1 12.581 18.8724 9.43415
388 1 14.1529 20.4429 11.007
389 1 15.7261 18.8712 9.43413
390 1 17.2976 20.4422 11.0071
391 1 18.8698 18.8701 9.43435
392 1 20.4415 20.442 11.0071
393 1 22.0135 5.61399e-06 12.5799
394 1 1.57165 1.57169 14.1527
395 1 3.14398 2.22048e-06 12.5798
396 1 4.71673 1.57112 14.1525
397 1 6.28969 1.10253e-06 12.5792
398 1 7.86229 1.57201 14.1518
399 1 9.43453 22.0139 12.5791
400 1 11.0068 1.57201 14.1518
401 1 12.5794 1.10391e-06 12.5792
402 1 14.1523 1.57112 14.1525
403 1 15.7251 2.22035e-06 12.5798
404 1 17.2974 1.57169 14.1527
405 1 18.8695 5.61492e-06 12.5799
406 1 20.4415 1.57195 14.1526
407 1 22.0132 3.14382 12.58
408 1 1.57044 4.71534 14.1534
409 1 3.14314 3.14271 12.5802
410 1 4.71365 4.71164 14.1555
411 1 6.28901 3.142 12.5796
412 1 7.86268 4.7162 14.1519
413 1 9.43453 3.14469 12.579
414 1 11.0064 4.7162 14.1519
415 1 12.5801 3.142 12.5796
416 1 14.1554 4.71164 14.1555
417 1 15.7259 3.14271 12.5802
418 1 17.2986 4.71534 14.1534
419 1 18.8698 3.14382 12.58
420 1 20.4415 4.71623 14.1529
421 1 22.0125 6.28851 12.5802
422 1 1.56855 7.86032 14.1543
423 1 3.14006 6.28589 12.5815
424 1 4.70418 7.84946 14.1649
425 1 6.28137 6.27742 12.5861
426 1 7.86444 7.86106 14.1534
427 1 9.43453 6.29153 12.5766
428 1 11.0046 7.86106 14.1534
429 1 12.5877 6.27742 12.5861
430 1 14.1649 7.84946 14.1649
431 1 15.729 6.28589 12.5815
432 1 17.3005 7.86032 14.1543
433 1 18.8705 6.28851 12.5802
434 1 20.4415 7.86158 14.153
435 1 22.0124 9.43445 12.5803
436 1 1.56881 11.007 14.1548
437 1 3.13687 9.43296 12.5826
438 1 4.70752 11.007 14.1615
439 1 6.25207 9.39997 12.6186
440 1 7.85459 11.007 14.1541
441 1 9.43453 9.44363 12.5522
442 1 11.0145 11.007 14.1541
443 1 12.617 9.39997 12.6186
444 1 14.1615 11.007 14.1615
445 1 15.7322 9.43296 12.5826
446 1 17.3003 11.007 14.1548
447 1 18.8706 9.43445 12.5803
448 1 20.4415 11.007 14.1534
449 1 22.0124 12.5795 12.5803
450 1 1.56854 14.1536 14.1543
451 1 3.13687 12.581 12.5826
452 1 4.70418 14.1645 14.1649
453 1 6.25207 12.6139 12.6186
454 1 7.86444 14.1529 14.1534
455 1 9.43453 12.5703 12.5522
456 1 11.0046 14.1529 14.1534
457 1 12.617 12.6139 12.6186
458 1 14.1649 14.1645 14.1649
459 1 15.7322 12.581 12.5826
460 1 17.3005 14.1536 14.1543
461 1 18.8706 12.5795 12.5803
462 1 20.4415 14.1523 14.153
463 1 22.0125 15.7254 12.5802
464 1 1.57044 17.2986 14.1534
465 1 3.14006 15.728 12.5815
466 1 4.71365 17.3023 14.1555
467 1 6.28137 15.7365 12.5861
468 1 7.86268 17.2977 14.1519
469 1 9.43453 15.7224 12.5766
470 1 11.0064 17.2977 14.1519
471 1 12.5877 15.7365 12.5861
472 1 14.1554 17.3023 14.1555
473 1 15.729 15.728 12.5815
474 1 17.2986 17.2986 14.1534
475 1 18.8705 15.7254 12.5802
476 1 20.4415 17.2977 14.1529
477 1 22.0132 18.8701 12.58
478 1 1.57165 20.4422 14.1527
479 1 3.14314 18.8712 12.5802
480 1 4.71673 20.4428 14.1525
481 1 6.28901 18.8719 12.5796
482 1 7.86229 20.4419 14.1518
483 1 9.43453 18.8692 12.579
484 1 11.0068 20.4419 14.1518
485 1 12.5801 18.8719 12.5796
486 1 14.1523 20.4428 14.1525
487 1 15.7259 18.8712 12.5802
488 1 17.2974 20.4422 14.1527
489 1 18.8698 18.8701 12.58
490 1 20.4415 20.442 14.1526
491 1 22.0136 5.5744e-06 15.7251
492 1 1.57185 1.57177 17.2978
493 1 3.14434 2.60232e-06 15.7251
494 1 4.71731 1.57206 17.297
495 1 6.28984 22.0139 15.7244
496 1 7.86216 1.57217 17.2967
497 1 9.43453 22.0139 15.7243
498 1 11.0069 1.57217 17.2967
499 1 12.5792 22.0139 15.7244
500 1 14.1518 1.57206 17.297
501 1 15.7247 2.60285e-06 15.7251
502 1 17.2972 1.57177 17.2978
503 1 18.8694 5.57663e-06 15.7251
504 1 20.4415 1.57204 17.2976
505 1 22.0133 3.14391 15.7255
506 1 1.57103 4.71565 17.2988
507 1 3.14338 3.14265 15.7261
508 1 4.71691 4.71617 17.2981
509 1 6.28985 3.14397 15.7246
510 1 7.8622 4.71666 17.297
511 1 9.43453 3.14411 15.7244
512 1 11.0069 4.71666 17.297
513 1 12.5792 3.14396 15.7246
514 1 14.1522 4.71617 17.2981
515 1 15.7257 3.14265 15.7261
516 1 17.298 4.71565 17.2988
517 1 18.8697 3.14391 15.7255
518 1 20.4415 4.71643 17.2981
519 1 22.0126 6.28853 15.726
520 1 1.57113 7.86132 17.2988
521 1 3.14039 6.28517 15.7292
522 1 4.71554 7.86036 17.3008
523 1 6.28947 6.28795 15.7264
524 1 7.86318 7.86218 17.2965
525 1 9.43453 6.28812 15.7248
526 1 11.0059 7.86218 17.2965
527 1 12.5796 6.28795 15.7264
528 1 14.1535 7.86036 17.3008
529 1 15.7287 6.28517 15.7292
530 1 17.2979 7.86132 17.2988
531 1 18.8703 6.28853 15.726
532 1 20.4415 7.86166 17.2983
533 1 22.0127 9.43411 15.7262
534 1 1.57115 11.007 17.2989
535 1 3.14129 9.43316 15.7283
536 1 4.71526 11.007 17.3006
537 1 6.2863 9.43232 15.7325
538 1 7.86291 11.007 17.2958
539 1 9.43453 9.43565 15.7175
540 1 11.0061 11.007 17.2958
541 1 12.5828 9.43232 15.7325
542 1 14.1538 11.007 17.3006
543 1 15.7278 9.43316 15.7283
544 1 17.2979 11.007 17.2989
545 1 18.8702 9.43411 15.7262
546 1 20.4415 11.007 17.2984
547 1 22.0127 12.5798 15.7262
548 1 1.57113 14.1526 17.2988
549 1 3.14129 12.5808 15.7283
550 1 4.71554 14.1536 17.3008
551 1 6.2863 12.5816 15.7325
552 1 7.86319 14.1517 17.2965
553 1 9.43453 12.5783 15.7175
554 1 11.0059 14.1517 17.2965
555 1 12.5828 12.5816 15.7325
556 1 14.1535 14.1536 17.3008
557 1 15.7278 12.5808 15.7283
558 1 17.2979 14.1526 17.2988
559 1 18.8702 12.5798 15.7262
560 1 20.4415 14.1523 17.2983
561 1 22.0126 15.7254 15.726
562 1 1.57103 17.2983 17.2988
563 1 3.14039 15.7287 15.7292
564 1 4.71691 17.2977 17.2981
565 1 6.28947 15.726 15.7264
566 1 7.8622 17.2972 17.297
567 1 9.43453 15.7258 15.7248
568 1 11.0069 17.2972 17.297
569 1 12.5796 15.726 15.7264
570 1 14.1522 17.2977 17.2981
571 1 15.7287 15.7287 15.7292
572 1 17.298 17.2983 17.2988
573 1 18.8703 15.7254 15.726
574 1 20.4415 17.2975 17.2981
575 1 22.0133 18.87 15.7255
576 1 1.57185 20.4421 17.2978
577 1 3.14337 18.8713 15.7261
578 1 4.71731 20.4418 17.297
579 1 6.28985 18.8699 15.7246
580 1 7.86216 20.4417 17.2967
581 1 9.43453 18.8698 15.7244
582 1 11.0069 20.4417 17.2967
583 1 12.5792 18.8699 15.7246
584 1 14.1518 20.4418 17.297
585 1 15.7257 18.8713 15.7261
586 1 17.2972 20.4421 17.2978
587 1 18.8697 18.87 15.7255
588 1 20.4415 20.4419 17.2976
589 1 22.0137 1.1768e-06 18.8698
590 1 1.57226 1.5722 20.4416
591 1 3.14484 2.32662e-06 18.8693
592 1 4.71727 1.5723 20.4411
593 1 6.28975 1.6472e-06 18.8689
594 1 7.86211 1.57232 20.4409
595 1 9.43453 2.17123e-06 18.8688
596 1 11.0069 1.57232 20.4409
597 1 12.5793 1.64631e-06 18.8689
598 1 14.1518 1.5723 20.4411
599 1 15.7242 2.32743e-06 18.8693
600 1 17.2968 1.5722 20.4416
601 1 18.8693 1.17756e-06 18.8698
602 1 20.4415 1.57225 20.4418
603 1 22.0136 3.14427 18.8701
604 1 1.57211 4.71693 20.4422
605 1 3.14463 3.14431 18.8697
606 1 4.71732 4.71715 20.4414
607 1 6.28977 3.14459 18.8691
608 1 7.86216 4.71714 20.4409
609 1 9.43453 3.14461 18.8688
610 1 11.0069 4.71714 20.4409
611 1 12.5793 3.14459 18.8691
612 1 14.1518 4.71715 20.4414
613 1 15.7244 3.1443 18.8697
614 1 17.297 4.71693 20.4422
615 1 18.8694 3.14427 18.8701
616 1 20.4415 4.7171 20.4422
617 1 22.0136 6.28928 18.8704
618 1 1.57215 7.86198 20.4425
619 1 3.14413 6.28887 18.871
620 1 4.71738 7.86221 20.4424
621 1 6.29012 6.28969 18.8694
622 1 7.86257 7.86252 20.4411
623 1 9.43453 6.28949 18.869
624 1 11.0065 7.86252 20.4411
625 1 12.5789 6.28969 18.8694
626 1 14.1517 7.86221 20.4424
627 1 15.7249 6.28887 18.871
628 1 17.2969 7.86198 20.4425
629 1 18.8694 6.28928 18.8704
630 1 20.4415 7.86202 20.4424
631 1 22.0136 9.43438 18.8705
632 1 1.57213 11.007 20.4426
633 1 3.14408 9.43426 18.8711
634 1 4.7172 11.007 20.4427
635 1 6.28995 9.43469 18.8706
636 1 7.86265 11.007 20.4414
637 1 9.43453 9.43483 18.8675
638 1 11.0064 11.007 20.4414
639 1 12.5791 9.43469 18.8706
640 1 14.1519 11.007 20.4427
641 1 15.725 9.43426 18.8711
642 1 17.2969 11.007 20.4426
643 1 18.8694 9.43438 18.8705
644 1 20.4415 11.007 20.4425
645 1 22.0136 12.5795 18.8705
646 1 1.57215 14.1519 20.4425
647 1 3.14408 12.5796 18.8711
648 1 4.71739 14.1517 20.4424
649 1 6.28995 12.5792 18.8706
650 1 7.86257 14.1514 20.4411
651 1 9.43453 12.5791 18.8675
652 1 11.0065 14.1514 20.4411
653 1 12.5791 12.5792 18.8706
654 1 14.1517 14.1517 20.4424
655 1 15.725 12.5796 18.8711
656 1 17.2969 14.1519 20.4425
657 1 18.8694 12.5795 18.8705
658 1 20.4415 14.1519 20.4424
659 1 22.0136 15.7246 18.8704
660 1 1.57212 17.297 20.4422
661 1 3.14413 15.725 18.871
662 1 4.71731 17.2968 20.4414
663 1 6.29012 15.7242 18.8694
664 1 7.86216 17.2968 20.4409
665 1 9.43453 15.7244 18.869
666 1 11.0069 17.2968 20.4409
667 1 12.5789 15.7242 18.8694
668 1 14.1518 17.2968 20.4414
669 1 15.7249 15.725 18.871
670 1 17.297 17.297 20.4422
671 1 18.8694 15.7246 18.8704
672 1 20.4415 17.2968 20.4422
673 1 22.0136 18.8696 18.8701
674 1 1.57226 20.4417 20.4416
675 1 3.14463 18.8696 18.8697
676 1 4.71727 20.4416 20.4411
677 1 6.28977 18.8693 18.8691
678 1 7.86211 20.4416 20.4409
679 1 9.43453 18.8693 18.8688
680 1 11.0069 20.4416 20.4409
681 1 12.5793 18.8693 18.8691
682 1 14.1518 20.4416 20.4411
683 1 15.7244 18.8696 18.8697
684 1 17.2968 20.4417 20.4416
685 1 18.8694 18.8696 18.8701
686 1 20.4415 20.4416 20.4419
687 3 9.43453 11.007 10.2207
