ITEM: TIMESTEP
41
ITEM: NUMBER OF ATOMS
687
ITEM: BOX BOUNDS pp pp pp
0.0000000000000000e+00 2.2013900999999997e+01
0.0000000000000000e+00 2.2013900999999997e+01
0.0000000000000000e+00 2.2013900999999997e+01
ITEM: ATOMS id type x y z
1 1 22.0137 22.0138 22.0136
2 1 1.57183 1.57187 1.5715
3 1 3.14468 22.0137 22.0134
4 1 4.71683 1.5718 1.57132
5 1 6.28959 22.0137 22.0132
6 1 7.86195 1.57175 1.57119
7 1 9.43453 22.0136 22.0131
8 1 11.0071 1.57175 1.57119
9 1 12.5795 22.0137 22.0132
10 1 14.1522 1.5718 1.57132
11 1 15.7244 22.0137 22.0134
12 1 17.2972 1.57187 1.5715
13 1 18.8692 22.0138 22.0136
14 1 20.4415 1.57205 1.57181
15 1 22.0136 3.14446 22.0138
16 1 1.57176 4.71677 1.57174
17 1 3.14436 3.14421 22.0133
18 1 4.71627 4.71618 1.5705
19 1 6.28946 3.1442 22.0131
20 1 7.86177 4.7161 1.57045
21 1 9.43453 3.14415 22.013
22 1 11.0073 4.7161 1.57045
23 1 12.5796 3.1442 22.0131
24 1 14.1528 4.71618 1.5705
25 1 15.7247 3.14421 22.0133
26 1 17.2973 4.71677 1.57174
27 1 18.8693 3.14446 22.0138
28 1 20.4415 4.71702 1.57213
29 1 22.0137 6.28948 0.000261991
30 1 1.57196 7.86202 1.57223
31 1 3.14447 6.28944 6.95378e-05
32 1 4.71693 7.86226 1.57172
33 1 6.28958 6.28941 22.013
34 1 7.86215 7.86205 1.57062
35 1 9.43453 6.28919 22.0129
36 1 11.0069 7.86205 1.57062
37 1 12.5795 6.28941 22.013
38 1 14.1521 7.86226 1.57172
39 1 15.7246 6.28943 6.97477e-05
40 1 17.2971 7.86202 1.57223
41 1 18.8693 6.28948 0.000262172
42 1 20.4415 7.86204 1.57241
43 1 22.0137 9.43449 0.000455826
44 1 1.57199 11.007 1.57239
45 1 3.14446 9.43451 0.000427175
46 1 4.71685 11.0071 1.57223
47 1 6.28984 9.4348 0.000331397
48 1 7.86235 11.0069 1.57363
49 1 9.43453 9.43482 2.60898e-05
50 1 11.0067 11.0069 1.57363
51 1 12.5792 9.4348 0.000330289
52 1 14.1522 11.0071 1.57223
53 1 15.7246 9.4345 0.000427359
54 1 17.2971 11.007 1.57239
55 1 18.8693 9.43449 0.000455864
56 1 20.4415 11.007 1.57251
57 1 22.0137 12.5795 0.000458062
58 1 1.57204 14.152 1.57225
59 1 3.14452 12.5795 0.000440477
60 1 4.7172 14.1516 1.57199
61 1 6.28998 12.5791 0.000484796
62 1 7.8623 14.1516 1.57159
63 1 9.43453 12.579 0.000239821
64 1 11.0068 14.1516 1.57159
65 1 12.5791 12.5791 0.000483677
66 1 14.1519 14.1516 1.57199
67 1 15.7245 12.5795 0.00044066
68 1 17.297 14.152 1.57225
69 1 18.8693 12.5795 0.000458099
70 1 20.4415 14.152 1.57241
71 1 22.0137 15.7245 0.000272319
72 1 1.5719 17.2971 1.57179
73 1 3.14463 15.7244 0.000137202
74 1 4.71672 17.2972 1.57102
75 1 6.28981 15.7242 22.0133
76 1 7.86193 17.2972 1.57096
77 1 9.43453 15.7243 22.0131
78 1 11.0071 17.2972 1.57096
79 1 12.5793 15.7242 22.0133
80 1 14.1523 17.2972 1.57102
81 1 15.7244 15.7244 0.000137427
82 1 17.2972 17.2971 1.57179
83 1 18.8692 15.7245 0.000272508
84 1 20.4415 17.2969 1.57213
85 1 22.0137 18.8694 22.0138
86 1 1.57197 20.4417 1.57157
87 1 3.1446 18.8694 22.0134
88 1 4.71695 20.4416 1.57142
89 1 6.2896 18.8692 22.0132
90 1 7.86199 20.4416 1.5713
91 1 9.43453 18.8692 22.0131
92 1 11.0071 20.4416 1.5713
93 1 12.5795 18.8692 22.0132
94 1 14.1521 20.4416 1.57142
95 1 15.7245 18.8694 22.0134
96 1 17.2971 20.4417 1.57157
97 1 18.8693 18.8694 22.0138
98 1 20.4415 20.4417 1.57184
99 1 22.0136 22.0139 3.14405
100 1 1.57157 1.57177 4.71627
101 1 3.14412 22.0137 3.14364
102 1 4.71612 1.57085 4.71567
103 1 6.2893 22.0136 3.14353
104 1 7.86169 1.57086 4.7155
105 1 9.43453 22.0135 3.14345
106 1 11.0074 1.57086 4.7155
107 1 12.5798 22.0136 3.14353
108 1 14.1529 1.57085 4.71567
109 1 15.7249 22.0137 3.14364
110 1 17.2975 1.57177 4.71627
111 1 18.8694 22.0139 3.14405
112 1 20.4415 1.5721 4.71658
113 1 22.0132 3.14409 3.14382
114 1 1.57008 4.71558 4.71536
115 1 3.14312 3.14314 3.14274
116 1 4.71233 4.71227 4.71198
117 1 6.28881 3.14318 3.14276
118 1 7.86057 4.71311 4.71289
119 1 9.43453 3.14318 3.14269
120 1 11.0085 4.71311 4.71289
121 1 12.5802 3.14318 3.14276
122 1 14.1567 4.71227 4.71198
123 1 15.7259 3.14314 3.14274
124 1 17.299 4.71558 4.71536
125 1 18.8697 3.14409 3.14382
126 1 20.4415 4.71662 4.71643
127 1 22.0134 6.2895 3.14433
128 1 1.57117 7.86204 4.71645
129 1 3.14346 6.28902 3.14319
130 1 4.71487 7.86153 4.7142
131 1 6.28766 6.28753 3.14028
132 1 7.85958 7.85812 4.70767
133 1 9.43453 6.28718 3.14049
134 1 11.0095 7.85812 4.70767
135 1 12.5814 6.28753 3.14028
136 1 14.1542 7.86153 4.7142
137 1 15.7256 6.28901 3.14319
138 1 17.2979 7.86204 4.71645
139 1 18.8695 6.2895 3.14433
140 1 20.4415 7.86211 4.71688
141 1 22.0135 9.43455 3.14455
142 1 1.57139 11.0072 4.71661
143 1 3.1439 9.43461 3.14405
144 1 4.71536 11.0075 4.71587
145 1 6.28931 9.43543 3.14404
146 1 7.86278 11.0065 4.72283
147 1 9.43453 9.43509 3.14491
148 1 11.0063 11.0065 4.72283
149 1 12.5798 9.43543 3.14404
150 1 14.1537 11.0075 4.71587
151 1 15.7252 9.43461 3.14405
152 1 17.2977 11.0072 4.71661
153 1 18.8694 9.43455 3.14455
154 1 20.4415 11.0071 4.71694
155 1 22.0135 12.5795 3.14455
156 1 1.57144 14.1521 4.7165
157 1 3.14402 12.5796 3.1441
158 1 4.71587 14.1525 4.71493
159 1 6.28986 12.5787 3.1449
160 1 7.86127 14.1537 4.71292
161 1 9.43453 12.5786 3.14621
162 1 11.0078 14.1537 4.71292
163 1 12.5792 12.5787 3.14491
164 1 14.1532 14.1525 4.71493
165 1 15.725 12.5796 3.1441
166 1 17.2976 14.1521 4.7165
167 1 18.8694 12.5795 3.14455
168 1 20.4415 14.152 4.71687
169 1 22.0135 15.7245 3.14433
170 1 1.57055 17.2982 4.71547
171 1 3.14382 15.7249 3.14337
172 1 4.71444 17.2996 4.71385
173 1 6.28868 15.7254 3.1421
174 1 7.86123 17.2989 4.71443
175 1 9.43453 15.7255 3.14223
176 1 11.0078 17.2989 4.71443
177 1 12.5804 15.7254 3.1421
178 1 14.1546 17.2996 4.71385
179 1 15.7252 15.7249 3.14337
180 1 17.2985 17.2982 4.71547
181 1 18.8695 15.7245 3.14433
182 1 20.4415 17.2974 4.71637
183 1 22.0134 18.8698 3.14386
184 1 1.57165 20.4421 4.71624
185 1 3.14371 18.8701 3.14319
186 1 4.71642 20.4423 4.71588
187 1 6.28913 18.8699 3.14321
188 1 7.8618 20.4421 4.71575
189 1 9.43453 18.8699 3.14317
190 1 11.0073 20.4421 4.71575
191 1 12.5799 18.8699 3.14321
192 1 14.1526 20.4423 4.71588
193 1 15.7254 18.8701 3.14319
194 1 17.2974 20.4421 4.71624
195 1 18.8696 18.8698 3.14386
196 1 20.4415 20.4419 4.71654
197 1 22.0135 8.51134e-05 6.28908
198 1 1.57158 1.57187 7.86164
199 1 3.14404 22.0139 6.2889
200 1 4.71637 1.57118 7.86162
201 1 6.28928 22.0135 6.28879
202 1 7.86209 1.5708 7.86155
203 1 9.43453 22.0135 6.28847
204 1 11.007 1.5708 7.86155
205 1 12.5798 22.0135 6.28879
206 1 14.1527 1.57118 7.86162
207 1 15.725 22.0139 6.2889
208 1 17.2975 1.57187 7.86164
209 1 18.8694 8.50985e-05 6.28908
210 1 20.4415 1.57212 7.86175
211 1 22.0132 3.14413 6.28904
212 1 1.57051 4.71578 7.86148
213 1 3.14306 3.1429 6.28838
214 1 4.71381 4.7128 7.86044
215 1 6.28777 3.14055 6.28729
216 1 7.86042 4.70863 7.85863
217 1 9.43453 3.14072 6.28669
218 1 11.0086 4.70863 7.85863
219 1 12.5813 3.14055 6.28729
220 1 14.1552 4.7128 7.86044
221 1 15.726 3.1429 6.28838
222 1 17.2986 4.71578 7.86148
223 1 18.8697 3.14413 6.28904
224 1 20.4415 4.71653 7.86178
225 1 22.0125 6.28905 6.28897
226 1 1.5692 7.86138 7.86156
227 1 3.13873 6.28573 6.28567
228 1 4.70357 7.85309 7.85382
229 1 6.27585 6.2753 6.27525
230 1 7.82509 7.82126 7.81931
231 1 9.43453 6.27875 6.27856
232 1 11.044 7.82126 7.81931
233 1 12.5932 6.2753 6.27525
234 1 14.1655 7.85309 7.85383
235 1 15.7303 6.28573 6.28567
236 1 17.2999 7.86138 7.86156
237 1 18.8705 6.28905 6.28897
238 1 20.4415 7.86209 7.86214
239 1 22.0132 9.43467 6.28935
240 1 1.57136 11.0071 7.86182
241 1 3.14275 9.43491 6.2885
242 1 4.71585 11.0069 7.86247
243 1 6.28705 9.43619 6.2854
244 1 7.8654 11.0009 7.88856
245 1 9.43453 9.42583 6.28534
246 1 11.0037 11.0009 7.88857
247 1 12.582 9.43619 6.2854
248 1 14.1532 11.0069 7.86247
249 1 15.7263 9.43491 6.2885
250 1 17.2977 11.0071 7.86183
251 1 18.8698 9.43467 6.28935
252 1 20.4415 11.0071 7.86208
253 1 22.0133 12.5795 6.28937
254 1 1.56949 14.1531 7.8613
255 1 3.14343 12.5796 6.28883
256 1 4.70639 14.1612 7.85402
257 1 6.28967 12.5782 6.2884
258 1 7.84574 14.174 7.84128
259 1 9.43453 12.5805 6.29142
260 1 11.0233 14.174 7.84128
261 1 12.5794 12.5782 6.2884
262 1 14.1627 14.1612 7.85403
263 1 15.7256 12.5796 6.28883
264 1 17.2996 14.1531 7.8613
265 1 18.8697 12.5795 6.28937
266 1 20.4415 14.1522 7.86199
267 1 22.0127 15.7251 6.28884
268 1 1.57058 17.2985 7.86121
269 1 3.14007 15.728 6.28591
270 1 4.71433 17.3009 7.86008
271 1 6.28275 15.7319 6.28192
272 1 7.8609 17.3022 7.85935
273 1 9.43453 15.73 6.28386
274 1 11.0082 17.3022 7.85935
275 1 12.5863 15.7319 6.28192
276 1 14.1547 17.3009 7.86009
277 1 15.729 15.728 6.28591
278 1 17.2985 17.2985 7.86121
279 1 18.8703 15.7251 6.28884
280 1 20.4415 17.2977 7.86161
281 1 22.0133 18.87 6.28892
282 1 1.57159 20.4423 7.86157
283 1 3.14329 18.871 6.28827
284 1 4.71644 20.4427 7.86149
285 1 6.28847 18.8717 6.28783
286 1 7.86206 20.4425 7.86145
287 1 9.43453 18.8714 6.2875
288 1 11.007 20.4425 7.86145
289 1 12.5806 18.8717 6.28783
290 1 14.1526 20.4427 7.86149
291 1 15.7258 18.871 6.28827
292 1 17.2975 20.4423 7.86157
293 1 18.8697 18.87 6.28892
294 1 20.4415 20.4421 7.8617
295 1 22.0135 0.000152772 9.43438
296 1 1.57162 1.5719 11.0071
297 1 3.144 0.000121247 9.43432
298 1 4.71639 1.57141 11.0071
299 1 6.28943 6.60951e-05 9.43442
300 1 7.8624 1.5727 11.0066
301 1 9.43453 0.000216506 9.43431
302 1 11.0067 1.5727 11.0066
303 1 12.5796 6.61048e-05 9.43441
304 1 14.1527 1.57141 11.0071
305 1 15.7251 0.000121268 9.43432
306 1 17.2974 1.5719 11.0071
307 1 18.8695 0.000152759 9.43438
308 1 20.4415 1.57212 11.0071
309 1 22.0133 3.14407 9.43442
310 1 1.57065 4.71571 11.0073
311 1 3.14323 3.14311 9.4343
312 1 4.71414 4.71348 11.0076
313 1 6.28852 3.14225 9.43464
314 1 7.86243 4.71836 11.0058
315 1 9.43453 3.14532 9.43421
316 1 11.0066 4.71836 11.0058
317 1 12.5805 3.14226 9.43464
318 1 14.1549 4.71348 11.0076
319 1 15.7258 3.14311 9.43431
320 1 17.2984 4.71571 11.0073
321 1 18.8697 3.14407 9.43442
322 1 20.4415 4.71641 11.0072
323 1 22.0127 6.28876 9.43448
324 1 1.56945 7.86079 11.0072
325 1 3.14073 6.28648 9.43406
326 1 4.70785 7.85626 11.0078
327 1 6.28374 6.28033 9.43409
328 1 7.84139 7.86274 11.0168
329 1 9.43453 6.29603 9.42793
330 1 11.0277 7.86274 11.0168
331 1 12.5853 6.28033 9.43409
332 1 14.1612 7.85626 11.0078
333 1 15.7283 6.28648 9.43406
334 1 17.2996 7.86079 11.0072
335 1 18.8703 6.28876 9.43448
336 1 20.4415 7.86172 11.0072
337 1 22.0131 9.43473 9.43485
338 1 1.57105 11.0072 11.0075
339 1 3.14158 9.43394 9.43476
340 1 4.71608 11.0077 11.0119
341 1 6.27506 9.40624 9.41474
342 1 7.58752 11.0143 11.0799
343 1 9.43453 9.21633 9.33504
344 1 11.2816 11.0143 11.0799
345 1 12.594 9.40624 9.41474
346 1 14.153 11.0077 11.0119
347 1 15.7275 9.43394 9.43476
348 1 17.298 11.0072 11.0075
349 1 18.8698 9.43473 9.43485
350 1 20.4415 11.0071 11.0073
351 1 22.013 12.5796 9.43476
352 1 1.56884 14.1539 11.0072
353 1 3.1407 12.581 9.4345
354 1 4.70665 14.1598 11.0078
355 1 6.27102 12.6076 9.41501
356 1 7.84334 14.1549 11.0151
357 1 9.43453 12.7078 9.39057
358 1 11.0257 14.1549 11.0151
359 1 12.598 12.6076 9.41501
360 1 14.1624 14.1598 11.0078
361 1 15.7284 12.581 9.4345
362 1 17.3002 14.1539 11.0072
363 1 18.87 12.5796 9.43476
364 1 20.4415 14.1526 11.0072
365 1 22.0126 15.7256 9.43429
366 1 1.57053 17.2987 11.0072
367 1 3.14071 15.7281 9.43348
368 1 4.71401 17.3011 11.0072
369 1 6.28493 15.7331 9.43318
370 1 7.86119 17.2983 11.0069
371 1 9.43453 15.7298 9.43335
372 1 11.0079 17.2983 11.0069
373 1 12.5841 15.7331 9.43318
374 1 14.1551 17.3011 11.0072
375 1 15.7284 15.7281 9.43348
376 1 17.2985 17.2987 11.0072
377 1 18.8704 15.7256 9.43429
378 1 20.4415 17.2979 11.0072
379 1 22.0133 18.8702 9.43434
380 1 1.57161 20.4423 11.0071
381 1 3.14325 18.8711 9.4341
382 1 4.71642 20.4428 11.007
383 1 6.28871 18.8717 9.43421
384 1 7.86229 20.442 11.0067
385 1 9.43453 18.8702 9.43402
386 1 11.0068 20.442 11.0067
387 1 12.5804 18.8717 9.43421
388 1 14.1526 20.4428 11.007
389 1 15.7258 18.8711 9.4341
390 1 17.2975 20.4423 11.0071
391 1 18.8697 18.8702 9.43434
392 1 20.4415 20.4421 11.0071
393 1 22.0135 0.000157022 12.5797
394 1 1.57178 1.57187 14.1524
395 1 3.14417 0.00013879 12.5797
396 1 4.71692 1.57142 14.1522
397 1 6.2898 0.000224473 12.5792
398 1 7.86236 1.57213 14.1517
399 1 9.43453 0.000191272 12.5791
400 1 11.0067 1.57213 14.1517
401 1 12.5793 0.000224461 12.5792
402 1 14.1521 1.57142 14.1522
403 1 15.7249 0.000138809 12.5797
404 1 17.2973 1.57186 14.1524
405 1 18.8694 0.000157029 12.5797
406 1 20.4415 1.5721 14.1524
407 1 22.0133 3.14405 12.5799
408 1 1.57074 4.71564 14.153
409 1 3.14345 3.14312 12.58
410 1 4.71438 4.71241 14.1547
411 1 6.28949 3.14305 12.5793
412 1 7.86284 4.71651 14.1519
413 1 9.43453 3.14592 12.5789
414 1 11.0062 4.71651 14.1519
415 1 12.5796 3.14305 12.5793
416 1 14.1547 4.71241 14.1547
417 1 15.7256 3.14312 12.58
418 1 17.2983 4.71564 14.153
419 1 18.8697 3.14405 12.5799
420 1 20.4415 4.71642 14.1526
421 1 22.0127 6.28873 12.58
422 1 1.56842 7.86034 14.1542
423 1 3.14094 6.28654 12.581
424 1 4.70354 7.84895 14.1658
425 1 6.28395 6.28006 12.5843
426 1 7.86434 7.8608 14.1548
427 1 9.43453 6.29541 12.5759
428 1 11.0047 7.8608 14.1548
429 1 12.5851 6.28006 12.5843
430 1 14.1655 7.84895 14.1658
431 1 15.7281 6.28654 12.581
432 1 17.3006 7.86034 14.1542
433 1 18.8703 6.28873 12.58
434 1 20.4415 7.86164 14.1528
435 1 22.0123 9.4345 12.5801
436 1 1.56842 11.0071 14.1548
437 1 3.13625 9.43285 12.5829
438 1 4.70612 11.0074 14.1625
439 1 6.25003 9.39778 12.6227
440 1 7.85166 11.0074 14.1566
441 1 9.43453 9.44936 12.5563
442 1 11.0174 11.0074 14.1566
443 1 12.619 9.39777 12.6227
444 1 14.1629 11.0074 14.1625
445 1 15.7328 9.43285 12.5829
446 1 17.3006 11.0071 14.1548
447 1 18.8707 9.4345 12.5801
448 1 20.4415 11.0071 14.1532
449 1 22.0121 12.5798 12.5801
450 1 1.56803 14.1541 14.1544
451 1 3.13535 12.582 12.5829
452 1 4.70241 14.1665 14.1667
453 1 6.24733 12.6206 12.6239
454 1 7.86469 14.1531 14.1537
455 1 9.43453 12.5654 12.5584
456 1 11.0044 14.1531 14.1537
457 1 12.6217 12.6206 12.6239
458 1 14.1667 14.1665 14.1667
459 1 15.7337 12.582 12.5829
460 1 17.301 14.1541 14.1544
461 1 18.8709 12.5798 12.5801
462 1 20.4415 14.1526 14.1529
463 1 22.0125 15.7257 12.5801
464 1 1.57058 17.2987 14.1532
465 1 3.14029 15.7284 12.5812
466 1 4.71421 17.3021 14.1549
467 1 6.28342 15.7354 12.5843
468 1 7.86291 17.2974 14.1519
469 1 9.43453 15.7203 12.5763
470 1 11.0062 17.2974 14.1519
471 1 12.5856 15.7354 12.5843
472 1 14.1549 17.3021 14.1549
473 1 15.7288 15.7284 12.5812
474 1 17.2985 17.2987 14.1532
475 1 18.8705 15.7257 12.5801
476 1 20.4415 17.2979 14.1527
477 1 22.0133 18.8702 12.5799
478 1 1.57176 20.4423 14.1525
479 1 3.14336 18.8712 12.58
480 1 4.71687 20.4428 14.1523
481 1 6.28912 18.8717 12.5796
482 1 7.86239 20.4417 14.1517
483 1 9.43453 18.8687 12.579
484 1 11.0067 20.4417 14.1517
485 1 12.5799 18.8717 12.5796
486 1 14.1522 20.4428 14.1523
487 1 15.7257 18.8712 12.58
488 1 17.2973 20.4423 14.1525
489 1 18.8697 18.8702 12.5799
490 1 20.4415 20.4421 14.1524
491 1 22.0136 9.79473e-05 15.7249
492 1 1.57186 1.57176 17.2975
493 1 3.14444 5.77312e-05 15.7249
494 1 4.71717 1.57178 17.297
495 1 6.28986 22.0138 15.7243
496 1 7.8621 1.57182 17.2968
497 1 9.43453 22.0137 15.7242
498 1 11.007 1.57182 17.2968
499 1 12.5792 22.0138 15.7243
500 1 14.1519 1.57178 17.297
501 1 15.7246 5.7703e-05 15.7249
502 1 17.2972 1.57176 17.2975
503 1 18.8693 9.79578e-05 15.7249
504 1 20.4415 1.57206 17.2974
505 1 22.0134 3.14403 15.7251
506 1 1.57084 4.7155 17.2987
507 1 3.14353 3.14281 15.7258
508 1 4.71643 4.71563 17.2983
509 1 6.2897 3.14368 15.7247
510 1 7.86195 4.71602 17.2974
511 1 9.43453 3.14375 15.7246
512 1 11.0071 4.71602 17.2974
513 1 12.5794 3.14368 15.7247
514 1 14.1526 4.71563 17.2983
515 1 15.7255 3.14281 15.7258
516 1 17.2982 4.7155 17.2987
517 1 18.8696 3.14403 15.7251
518 1 20.4415 4.71637 17.2979
519 1 22.0126 6.28853 15.7258
520 1 1.57086 7.86121 17.2988
521 1 3.14006 6.28497 15.7293
522 1 4.71495 7.85992 17.3013
523 1 6.28884 6.28722 15.7269
524 1 7.86279 7.86139 17.2976
525 1 9.43453 6.28743 15.7258
526 1 11.0063 7.86139 17.2976
527 1 12.5802 6.28722 15.7269
528 1 14.1541 7.85992 17.3013
529 1 15.729 6.28497 15.7293
530 1 17.2982 7.86121 17.2988
531 1 18.8704 6.28853 15.7258
532 1 20.4415 7.86162 17.2981
533 1 22.0126 9.43415 15.7261
534 1 1.57085 11.007 17.2989
535 1 3.14077 9.43312 15.7286
536 1 4.71464 11.0071 17.3012
537 1 6.28543 9.43193 15.7343
538 1 7.86245 11.0068 17.2973
539 1 9.43453 9.4355 15.7193
540 1 11.0066 11.0068 17.2973
541 1 12.5836 9.43193 15.7343
542 1 14.1544 11.0071 17.3012
543 1 15.7283 9.43312 15.7286
544 1 17.2982 11.007 17.2989
545 1 18.8704 9.43415 15.7261
546 1 20.4415 11.007 17.2983
547 1 22.0126 12.5799 15.7261
548 1 1.57085 14.1529 17.2989
549 1 3.14061 12.5811 15.7287
550 1 4.71498 14.1542 17.3015
551 1 6.28528 12.5825 15.7344
552 1 7.86305 14.152 17.2971
553 1 9.43453 12.5779 15.7193
554 1 11.006 14.152 17.2971
555 1 12.5838 12.5825 15.7344
556 1 14.1541 14.1542 17.3015
557 1 15.7285 12.5811 15.7287
558 1 17.2982 14.1529 17.2989
559 1 18.8704 12.5799 15.7261
560 1 20.4415 14.1524 17.2982
561 1 22.0125 15.7257 15.726
562 1 1.57092 17.2985 17.2988
563 1 3.13992 15.7294 15.7296
564 1 4.71692 17.2979 17.298
565 1 6.28954 15.7262 15.7263
566 1 7.86221 17.2973 17.2971
567 1 9.43453 15.7257 15.7251
568 1 11.0069 17.2973 17.2971
569 1 12.5795 15.7262 15.7263
570 1 14.1521 17.2979 17.298
571 1 15.7291 15.7294 15.7296
572 1 17.2981 17.2985 17.2988
573 1 18.8705 15.7257 15.726
574 1 20.4415 17.2977 17.298
575 1 22.0134 18.8701 15.7253
576 1 1.57191 20.4422 17.2976
577 1 3.14355 18.8713 15.7259
578 1 4.71732 20.4418 17.297
579 1 6.28993 18.8699 15.7246
580 1 7.86217 20.4416 17.2967
581 1 9.43453 18.8697 15.7245
582 1 11.0069 20.4416 17.2967
583 1 12.5791 18.8699 15.7246
584 1 14.1517 20.4418 17.297
585 1 15.7255 18.8713 15.7259
586 1 17.2972 20.4422 17.2976
587 1 18.8696 18.8701 15.7253
588 1 20.4415 20.442 17.2974
589 1 22.0137 22.0139 18.8696
590 1 1.57217 1.57199 20.4416
591 1 3.14477 22.0137 18.8693
592 1 4.71716 1.572 20.4413
593 1 6.2897 22.0137 18.869
594 1 7.86207 1.57197 20.4411
595 1 9.43453 22.0136 18.8689
596 1 11.007 1.57197 20.4411
597 1 12.5794 22.0137 18.869
598 1 14.1519 1.572 20.4413
599 1 15.7243 22.0137 18.8693
600 1 17.2969 1.57199 20.4416
601 1 18.8693 22.0139 18.8696
602 1 20.4415 1.57211 20.4418
603 1 22.0135 3.14412 18.87
604 1 1.57194 4.71667 20.4422
605 1 3.14437 3.14396 18.8698
606 1 4.71703 4.71671 20.4416
607 1 6.28957 3.14413 18.8693
608 1 7.86204 4.71665 20.4413
609 1 9.43453 3.14413 18.8691
610 1 11.007 4.71665 20.4413
611 1 12.5795 3.14413 18.8693
612 1 14.152 4.71671 20.4416
613 1 15.7247 3.14396 18.8698
614 1 17.2971 4.71667 20.4422
615 1 18.8695 3.14411 18.87
616 1 20.4415 4.7169 20.4421
617 1 22.0134 6.28913 18.8703
618 1 1.57194 7.86183 20.4424
619 1 3.14378 6.28856 18.8711
620 1 4.71702 7.86191 20.4426
621 1 6.28968 6.28908 18.87
622 1 7.86239 7.86209 20.4415
623 1 9.43453 6.28882 18.8696
624 1 11.0067 7.86209 20.4415
625 1 12.5794 6.28908 18.87
626 1 14.152 7.86191 20.4426
627 1 15.7253 6.28856 18.8711
628 1 17.2971 7.86183 20.4424
629 1 18.8695 6.28913 18.8703
630 1 20.4415 7.86191 20.4423
631 1 22.0134 9.43436 18.8704
632 1 1.57193 11.007 20.4426
633 1 3.14373 9.43418 18.8712
634 1 4.7169 11.007 20.4428
635 1 6.28951 9.43441 18.8713
636 1 7.86252 11.0069 20.4418
637 1 9.43453 9.43441 18.8684
638 1 11.0065 11.0069 20.4418
639 1 12.5796 9.43441 18.8713
640 1 14.1522 11.007 20.4428
641 1 15.7253 9.43418 18.8712
642 1 17.2971 11.007 20.4426
643 1 18.8695 9.43436 18.8704
644 1 20.4415 11.007 20.4424
645 1 22.0134 12.5797 18.8705
646 1 1.572 14.1521 20.4425
647 1 3.14376 12.5798 18.8712
648 1 4.71718 14.1519 20.4427
649 1 6.28961 12.5794 18.8712
650 1 7.86248 14.1515 20.4414
651 1 9.43453 12.5792 18.8682
652 1 11.0066 14.1515 20.4414
653 1 12.5795 12.5794 18.8712
654 1 14.1519 14.1519 20.4427
655 1 15.7253 12.5798 18.8712
656 1 17.2971 14.1521 20.4425
657 1 18.8695 12.5797 18.8705
658 1 20.4415 14.1521 20.4423
659 1 22.0135 15.7249 18.8703
660 1 1.57203 17.2972 20.4422
661 1 3.14388 15.7254 18.8712
662 1 4.71731 17.2969 20.4415
663 1 6.29003 15.7244 18.8697
664 1 7.86216 17.2968 20.4412
665 1 9.43453 15.7245 18.8693
666 1 11.0069 17.2968 20.4412
667 1 12.579 15.7244 18.8697
668 1 14.1518 17.2969 20.4415
669 1 15.7252 15.7254 18.8712
670 1 17.297 17.2972 20.4422
671 1 18.8695 15.7249 18.8703
672 1 20.4415 17.297 20.4421
673 1 22.0136 18.8698 18.87
674 1 1.57227 20.4417 20.4416
675 1 3.14463 18.8697 18.8697
676 1 4.71727 20.4415 20.4413
677 1 6.28977 18.8693 18.8691
678 1 7.86211 20.4414 20.4411
679 1 9.43453 18.8692 18.869
680 1 11.0069 20.4414 20.4411
681 1 12.5793 18.8693 18.8691
682 1 14.1518 20.4415 20.4413
683 1 15.7244 18.8697 18.8697
684 1 17.2968 20.4417 20.4416
685 1 18.8694 18.8698 18.87
686 1 20.4415 20.4417 20.4418
687 3 9.43449 10.9223 10.36
