ITEM: TIMESTEP
58
ITEM: NUMBER OF ATOMS
687
ITEM: BOX BOUNDS pp pp pp
0.0000000000000000e+00 2.2013900999999997e+01
0.0000000000000000e+00 2.2013900999999997e+01
0.0000000000000000e+00 2.2013900999999997e+01
ITEM: ATOMS id type x y z
126 1 18.8704 9.4341 6.28839
2 1 1.57163 1.57163 1.57197
125 1 15.7284 9.43326 6.28595
4 1 4.71647 1.57134 1.57187
111 1 15.7256 3.14319 6.28884
6 1 7.86179 1.57116 1.57182
110 1 12.581 3.14114 6.28762
8 1 11.0073 1.57116 1.57182
109 1 9.43453 3.14096 6.28725
10 1 14.1526 1.57134 1.57187
124 1 12.5842 9.43289 6.28025
12 1 17.2974 1.57163 1.57197
123 1 9.43453 9.43238 6.28352
14 1 20.4415 1.57191 1.57207
15 1 22.0134 3.14409 22.0139
16 1 1.57137 4.71621 1.57174
17 1 3.14378 3.14363 1.6143e-08
18 1 4.71595 4.71564 1.57121
19 1 6.28897 3.14338 4.95902e-07
20 1 7.86156 4.71538 1.57115
21 1 9.43453 3.14328 3.48014e-07
22 1 11.0075 4.71538 1.57115
23 1 12.5801 3.14338 4.95992e-07
24 1 14.1531 4.71564 1.57121
25 1 15.7253 3.14363 1.61776e-08
26 1 17.2977 4.71621 1.57174
27 1 18.8696 3.14409 22.0139
28 1 20.4415 4.71655 1.57201
29 1 22.0134 6.28907 22.0139
30 1 1.57141 7.86154 1.57171
31 1 3.14372 6.28878 6.26444e-07
32 1 4.7161 7.86135 1.57109
33 1 6.28892 6.2885 7.12072e-07
34 1 7.86179 7.86116 1.57082
35 1 9.43453 6.28823 6.21432e-07
36 1 11.0073 7.86116 1.57082
37 1 12.5801 6.2885 7.12142e-07
38 1 14.153 7.86135 1.57108
39 1 15.7253 6.28878 6.26647e-07
40 1 17.2976 7.86154 1.57171
41 1 18.8696 6.28907 22.0139
42 1 20.4415 7.86169 1.57195
43 1 22.0134 9.43435 3.61197e-07
44 1 3.14377 9.43428 6.38907e-07
45 1 6.28912 9.43433 7.30217e-07
46 1 9.43453 9.43421 9.07444e-07
47 1 12.5799 9.43433 7.30152e-07
48 1 15.7253 9.43428 6.38995e-07
49 1 18.8695 9.43435 3.61242e-07
122 1 6.28491 9.43289 6.28025
51 1 1.57156 1.57178 4.71664
121 1 3.14069 9.43326 6.28595
53 1 4.71609 1.57079 4.71609
120 1 22.0126 9.4341 6.28839
55 1 7.86163 1.57053 4.71589
119 1 18.8704 6.28861 6.28873
57 1 11.0074 1.57053 4.71589
118 1 15.7292 6.28553 6.2857
59 1 14.153 1.57079 4.71609
117 1 12.5873 6.2802 6.28045
61 1 17.2975 1.57178 4.71664
116 1 9.43453 6.28165 6.28164
63 1 20.4415 1.57214 4.71691
64 1 22.0132 3.14387 3.14407
65 1 1.57032 4.71535 4.71557
66 1 3.14324 3.14307 3.14345
67 1 4.71384 4.71328 4.71366
68 1 6.28865 3.14278 3.14326
69 1 7.86087 4.71338 4.71373
70 1 9.43453 3.14266 3.1432
71 1 11.0082 4.71338 4.71373
72 1 12.5804 3.14278 3.14326
73 1 14.1552 4.71328 4.71366
74 1 15.7258 3.14307 3.14345
75 1 17.2987 4.71535 4.71557
76 1 18.8698 3.14387 3.14407
77 1 20.4415 4.71629 4.71646
78 1 22.0132 6.28888 3.14394
79 1 1.57047 7.86109 4.71547
80 1 3.14295 6.28812 3.1428
81 1 4.7141 7.85978 4.71266
82 1 6.28796 6.28726 3.1414
83 1 7.86063 7.85852 4.71004
84 1 9.43453 6.28682 3.14133
85 1 11.0084 7.85852 4.71004
86 1 12.5811 6.28726 3.1414
87 1 14.155 7.85978 4.71266
88 1 15.7261 6.28812 3.1428
89 1 17.2986 7.86109 4.71547
90 1 18.8698 6.28888 3.14394
91 1 20.4415 7.8615 4.71624
92 1 22.0132 9.43427 3.14384
93 1 3.14307 9.43404 3.14283
94 1 6.28842 9.43416 3.14185
95 1 9.43453 9.43398 3.14292
96 1 12.5806 9.43416 3.14185
97 1 15.726 9.43404 3.14283
98 1 18.8698 9.43427 3.14384
108 1 6.28803 3.14114 6.28762
115 1 6.28177 6.2802 6.28045
114 1 3.13981 6.28553 6.2857
107 1 3.14347 3.14319 6.28884
113 1 22.0126 6.28861 6.28873
112 1 18.8696 3.14424 6.28935
106 1 22.0134 3.14424 6.28935
396 1 11.008 11.007 4.71539
104 1 15.725 0.000129243 6.28917
395 1 7.86108 11.007 4.71539
100 1 3.1441 0.000129742 6.28917
346 1 7.86203 11.0069 1.57175
105 1 18.8694 0.000294631 6.28933
347 1 11.007 11.0069 1.57175
99 1 22.0135 0.000294864 6.28933
127 1 1.57176 1.57219 7.86186
128 1 4.71666 1.57166 7.8619
129 1 7.86193 1.57066 7.86159
130 1 11.0071 1.57066 7.86159
131 1 14.1524 1.57166 7.8619
132 1 17.2973 1.57219 7.86186
133 1 20.4415 1.57237 7.86193
134 1 1.57135 4.71625 7.8618
135 1 4.71573 4.71435 7.86127
136 1 7.86074 4.7104 7.85873
137 1 11.0083 4.7104 7.85873
138 1 14.1533 4.71435 7.86127
139 1 17.2977 4.71625 7.8618
140 1 20.4415 4.71665 7.86193
141 1 1.56929 7.86082 7.86075
142 1 4.7059 7.85295 7.85226
143 1 7.8431 7.8362 7.83521
144 1 11.026 7.8362 7.83521
145 1 14.1632 7.85295 7.85226
146 1 17.2998 7.86082 7.86075
147 1 20.4415 7.8616 7.86166
687 3 9.43453 10.4587 11.0069
149 1 1.5718 1.57233 11.007
150 1 3.1441 0.000448293 9.43436
151 1 4.71656 1.57205 11.007
245 1 18.8703 9.43431 12.5796
153 1 7.86202 1.57263 11.007
244 1 15.7295 9.43366 12.5812
155 1 11.007 1.57263 11.007
243 1 12.6001 9.41283 12.6094
157 1 14.1525 1.57205 11.007
158 1 15.725 0.000448001 9.43436
159 1 17.2973 1.57233 11.007
242 1 9.43453 9.37133 12.7196
161 1 20.4415 1.57246 11.007
162 1 22.0135 3.14444 9.43444
163 1 1.57152 4.71642 11.007
164 1 3.14388 3.1439 9.43436
165 1 4.71577 4.71559 11.007
166 1 6.28944 3.14381 9.43486
167 1 7.8623 4.72076 11.007
168 1 9.43453 3.14397 9.43476
169 1 11.0068 4.72077 11.007
170 1 12.5796 3.14381 9.43486
171 1 14.1533 4.71559 11.007
172 1 15.7252 3.1439 9.43436
173 1 17.2975 4.71642 11.007
174 1 18.8695 3.14444 9.43444
175 1 20.4415 4.71674 11.007
176 1 22.0133 6.28898 9.43441
177 1 1.57098 7.86121 11.007
178 1 3.1434 6.2882 9.43436
179 1 4.71501 7.86137 11.007
180 1 6.28987 6.28683 9.43557
181 1 7.86477 7.89109 11.007
182 1 9.43453 6.28568 9.43152
183 1 11.0043 7.89109 11.007
184 1 12.5792 6.28683 9.43557
185 1 14.154 7.86137 11.007
186 1 15.7257 6.2882 9.43436
187 1 17.2981 7.86121 11.007
188 1 18.8697 6.28898 9.43441
189 1 20.4415 7.8616 11.007
190 1 22.0127 9.43431 9.43428
191 1 3.13956 9.43366 9.43273
192 1 6.26898 9.41284 9.4045
193 1 9.43453 9.37137 9.29435
194 1 12.6001 9.41284 9.4045
195 1 15.7295 9.43366 9.43273
196 1 18.8703 9.43431 9.43428
241 1 6.26898 9.41284 12.6094
198 1 1.57176 1.57219 14.152
199 1 3.1441 0.000447964 12.5796
200 1 4.71666 1.57166 14.152
240 1 3.13956 9.43366 12.5812
202 1 7.86193 1.57066 14.1523
239 1 22.0127 9.43431 12.5796
204 1 11.0071 1.57066 14.1523
238 1 20.4415 7.8616 14.1522
206 1 14.1524 1.57166 14.152
207 1 15.725 0.000447671 12.5796
208 1 17.2973 1.57219 14.152
237 1 18.8697 6.28898 12.5795
210 1 20.4415 1.57237 14.152
211 1 22.0135 3.14444 12.5795
212 1 1.57135 4.71625 14.1521
213 1 3.14388 3.1439 12.5795
214 1 4.71573 4.71435 14.1526
215 1 6.28944 3.14381 12.579
216 1 7.86074 4.7104 14.1552
217 1 9.43453 3.14397 12.5791
218 1 11.0083 4.7104 14.1552
219 1 12.5796 3.14381 12.579
220 1 14.1533 4.71435 14.1526
221 1 15.7252 3.1439 12.5795
222 1 17.2977 4.71625 14.1521
223 1 18.8695 3.14444 12.5795
224 1 20.4415 4.71665 14.152
225 1 22.0133 6.28898 12.5795
226 1 1.56929 7.86082 14.1532
227 1 3.1434 6.2882 12.5795
228 1 4.7059 7.85295 14.1616
229 1 6.28987 6.28683 12.5783
230 1 7.84309 7.8362 14.1787
231 1 9.43453 6.28568 12.5824
232 1 11.026 7.8362 14.1787
233 1 12.5792 6.28683 12.5783
234 1 14.1632 7.85295 14.1616
235 1 15.7257 6.2882 12.5795
236 1 17.2998 7.86082 14.1532
197 1 22.0135 0.000463453 12.5795
160 1 18.8694 0.000463481 9.4344
209 1 18.8694 0.000463258 12.5795
148 1 22.0135 0.000463676 9.4344
205 1 12.5796 0.000241206 12.5794
152 1 6.28945 0.000241529 9.43454
156 1 12.5796 0.000241556 9.43454
201 1 6.28945 0.000241179 12.5794
332 1 14.153 7.86135 20.4428
247 1 1.57156 1.57178 17.2973
343 1 18.8698 9.43427 18.8701
249 1 4.71609 1.57079 17.2978
342 1 15.726 9.43404 18.8711
251 1 7.86163 1.57053 17.298
331 1 12.5811 6.28726 18.8725
253 1 11.0074 1.57053 17.298
341 1 12.5806 9.43416 18.8721
255 1 14.153 1.57079 17.2978
340 1 9.43453 9.43398 18.871
257 1 17.2975 1.57178 17.2973
330 1 11.0073 7.86116 20.4431
259 1 20.4415 1.57214 17.297
260 1 22.0134 3.14424 15.7245
261 1 1.57032 4.71535 17.2983
262 1 3.14347 3.14319 15.7251
263 1 4.71384 4.71328 17.3002
264 1 6.28803 3.14114 15.7263
265 1 7.86087 4.71338 17.3002
266 1 9.43453 3.14096 15.7267
267 1 11.0082 4.71338 17.3002
268 1 12.581 3.14114 15.7263
269 1 14.1552 4.71328 17.3002
270 1 15.7256 3.14319 15.7251
271 1 17.2987 4.71535 17.2983
272 1 18.8696 3.14424 15.7245
273 1 20.4415 4.71629 17.2974
274 1 22.0126 6.28861 15.7252
275 1 1.57047 7.86109 17.2984
276 1 3.13981 6.28553 15.7282
277 1 4.7141 7.85978 17.3012
278 1 6.28177 6.2802 15.7335
279 1 7.86063 7.85852 17.3039
280 1 9.43453 6.28165 15.7323
281 1 11.0084 7.85852 17.3039
282 1 12.5873 6.2802 15.7335
283 1 14.155 7.85978 17.3012
284 1 15.7292 6.28553 15.7282
285 1 17.2986 7.86109 17.2984
286 1 18.8704 6.28861 15.7252
287 1 20.4415 7.8615 17.2977
288 1 22.0126 9.4341 15.7255
289 1 3.14069 9.43326 15.728
290 1 6.28491 9.43289 15.7337
291 1 9.43453 9.43238 15.7304
292 1 12.5842 9.43289 15.7337
293 1 15.7284 9.43326 15.728
294 1 18.8704 9.4341 15.7255
339 1 6.28842 9.43416 18.8721
296 1 1.57163 1.57163 20.4419
338 1 3.14307 9.43404 18.8711
298 1 4.71647 1.57134 20.442
337 1 22.0132 9.43427 18.8701
300 1 7.86179 1.57116 20.4421
336 1 20.4415 7.86169 20.4419
302 1 11.0073 1.57116 20.4421
335 1 18.8698 6.28888 18.87
304 1 14.1526 1.57134 20.442
334 1 17.2976 7.86154 20.4422
306 1 17.2974 1.57163 20.4419
333 1 15.7261 6.28812 18.8711
308 1 20.4415 1.57191 20.4418
309 1 22.0132 3.14387 18.8698
310 1 1.57137 4.71621 20.4422
311 1 3.14324 3.14307 18.8704
312 1 4.71595 4.71564 20.4427
313 1 6.28865 3.14278 18.8706
314 1 7.86156 4.71538 20.4428
315 1 9.43453 3.14266 18.8707
316 1 11.0075 4.71538 20.4428
317 1 12.5804 3.14278 18.8706
318 1 14.1531 4.71564 20.4427
319 1 15.7258 3.14307 18.8704
320 1 17.2977 4.71621 20.4422
321 1 18.8698 3.14387 18.8698
322 1 20.4415 4.71655 20.4419
323 1 22.0132 6.28888 18.87
324 1 1.57141 7.86154 20.4422
325 1 3.14295 6.28812 18.8711
326 1 4.7161 7.86135 20.4428
327 1 6.28796 6.28726 18.8725
328 1 7.86179 7.86116 20.4431
329 1 9.43453 6.28682 18.8726
591 1 7.86108 11.007 17.2985
248 1 3.1441 0.000129702 15.7247
592 1 11.008 11.007 17.2985
256 1 15.725 0.000129203 15.7247
640 1 7.86203 11.0069 20.4422
258 1 18.8694 0.000294603 15.7246
641 1 11.007 11.0069 20.4422
246 1 22.0135 0.000294836 15.7246
103 1 12.5798 22.0132 6.289
462 1 18.8697 18.8704 6.28891
102 1 9.43453 22.013 6.28881
9 1 12.5798 22.0133 6.09582e-07
461 1 15.7257 18.8714 6.28826
101 1 6.28921 22.0132 6.289
60 1 15.725 22.0135 3.14414
351 1 22.0134 12.5797 1.20292e-06
352 1 1.57154 14.1525 1.57165
353 1 3.14389 12.5798 9.58934e-07
354 1 4.71646 14.1525 1.57109
355 1 6.28939 12.5795 5.63101e-07
356 1 7.86215 14.1521 1.57184
62 1 18.8695 4.73584e-06 3.14438
358 1 11.0069 14.1521 1.57184
359 1 12.5797 12.5795 5.62954e-07
360 1 14.1526 14.1525 1.57109
361 1 15.7252 12.5798 9.58962e-07
362 1 17.2975 14.1525 1.57165
363 1 18.8695 12.5797 1.20295e-06
364 1 20.4415 14.1523 1.5719
365 1 22.0135 15.7249 9.11287e-07
366 1 1.57159 17.2976 1.57164
367 1 3.14407 15.725 1.38737e-06
368 1 4.7168 17.2973 1.57175
369 1 6.28952 15.7247 5.91169e-07
370 1 7.86194 17.2972 1.57182
371 1 9.43453 15.7247 22.0139
372 1 11.0071 17.2972 1.57182
350 1 20.4415 11.007 1.57192
374 1 14.1523 17.2973 1.57175
375 1 15.725 15.725 1.38738e-06
376 1 17.2975 17.2976 1.57164
377 1 18.8695 15.7249 9.11387e-07
378 1 20.4415 17.2974 1.57191
379 1 22.0135 18.8697 1.6391e-07
380 1 1.57187 20.4417 1.572
381 1 3.14434 18.8695 1.02857e-06
382 1 4.71677 20.4414 1.572
383 1 6.28939 18.8693 7.72955e-07
384 1 7.86192 20.4413 1.57199
385 1 9.43453 18.8692 3.34386e-07
386 1 11.0071 20.4413 1.57199
387 1 12.5797 18.8693 7.72949e-07
388 1 14.1523 20.4414 1.572
389 1 15.7247 18.8695 1.02853e-06
390 1 17.2972 20.4417 1.572
391 1 18.8695 18.8697 1.63847e-07
392 1 20.4415 20.4419 1.57207
393 1 1.57046 11.0071 4.71537
460 1 12.5797 18.8704 6.2887
52 1 3.14404 22.0135 3.14414
13 1 18.8694 22.0137 22.0139
459 1 9.43453 18.8702 6.28844
398 1 17.2986 11.0071 4.71537
458 1 6.28931 18.8704 6.2887
400 1 22.0132 12.5798 3.14377
401 1 1.57038 14.1532 4.71516
402 1 3.14314 12.58 3.14277
403 1 4.71389 14.1551 4.71167
404 1 6.2888 12.5799 3.14198
405 1 7.86261 14.1527 4.71564
406 1 9.43453 12.5793 3.14482
407 1 11.0064 14.1527 4.71564
408 1 12.5803 12.5799 3.14198
409 1 14.1552 14.1551 4.71167
410 1 15.7259 12.58 3.14277
411 1 17.2987 14.1532 4.71516
412 1 18.8698 12.5798 3.14377
413 1 20.4415 14.1526 4.71602
414 1 22.0132 15.7252 3.14373
415 1 1.5705 17.299 4.71514
416 1 3.14315 15.726 3.14247
417 1 4.71611 17.2986 4.71536
418 1 6.28937 15.7252 3.14338
419 1 7.86177 17.298 4.71568
420 1 9.43453 15.7252 3.14343
421 1 11.0073 17.298 4.71568
422 1 12.5797 15.7252 3.14338
423 1 14.1529 17.2986 4.71536
424 1 15.7259 15.726 3.14247
425 1 17.2986 17.299 4.71514
426 1 18.8697 15.7252 3.14373
427 1 20.4415 17.2981 4.71604
428 1 22.0133 18.8701 3.14394
429 1 1.57163 20.4423 4.71647
430 1 3.14403 18.87 3.14382
431 1 4.71661 20.4418 4.71641
432 1 6.28927 18.8696 3.14394
433 1 7.86184 20.4415 4.71633
434 1 9.43453 18.8695 3.14395
435 1 11.0072 20.4415 4.71633
436 1 12.5798 18.8696 3.14394
437 1 14.1524 20.4418 4.71641
438 1 15.725 18.87 3.14382
439 1 17.2974 20.4423 4.71647
440 1 18.8696 18.8701 3.14394
441 1 20.4415 20.4422 4.71673
442 1 22.0124 12.58 6.28825
443 1 3.14017 12.5812 6.28564
444 1 6.28363 12.5842 6.27822
445 1 9.43453 12.5763 6.29359
446 1 12.5854 12.5842 6.27822
447 1 15.7289 12.5812 6.28564
448 1 18.8705 12.58 6.28825
449 1 22.0123 15.7261 6.28807
450 1 3.1393 15.73 6.28418
451 1 6.28872 15.7275 6.28682
452 1 9.43453 15.7266 6.28683
453 1 12.5803 15.7275 6.28682
454 1 15.7298 15.73 6.28418
455 1 18.8707 15.7261 6.28807
456 1 22.0133 18.8704 6.28891
457 1 3.14337 18.8714 6.28826
1 1 22.0136 22.0137 22.0139
5 1 6.28927 22.0133 6.09537e-07
399 1 20.4415 11.007 4.71609
397 1 14.1552 11.0072 4.7129
394 1 4.71384 11.0072 4.7129
348 1 14.1529 11.007 1.57116
345 1 4.71613 11.007 1.57116
7 1 9.43453 22.0132 5.92669e-07
344 1 1.57146 11.007 1.5717
11 1 15.7248 22.0135 2.96406e-07
3 1 3.14424 22.0135 2.96386e-07
50 1 22.0135 4.93124e-06 3.14438
349 1 17.2976 11.007 1.5717
54 1 6.28916 22.0132 3.14404
56 1 9.43453 22.0131 3.144
58 1 12.5799 22.0132 3.14404
588 1 20.4415 20.4424 14.1521
587 1 18.8697 18.8706 12.5797
465 1 7.84349 11.0138 7.86168
466 1 11.0256 11.0138 7.86168
586 1 17.2974 20.4426 14.1523
585 1 15.7257 18.8715 12.5799
584 1 14.1525 20.4428 14.1523
470 1 1.56757 14.1547 7.85963
471 1 4.70146 14.1679 7.84664
472 1 7.86488 14.1548 7.85968
473 1 11.0042 14.1548 7.85968
474 1 14.1676 14.1679 7.84664
475 1 17.3015 14.1547 7.85962
476 1 20.4415 14.153 7.86118
477 1 1.57056 17.2991 7.86096
478 1 4.71456 17.302 7.85959
479 1 7.86268 17.2984 7.861
480 1 11.0064 17.2984 7.861
481 1 14.1545 17.302 7.85959
482 1 17.2985 17.2991 7.86096
483 1 20.4415 17.2983 7.86139
484 1 1.57164 20.4426 7.86165
485 1 4.71658 20.4428 7.86163
486 1 7.86212 20.4418 7.86171
487 1 11.0069 20.4418 7.86171
488 1 14.1525 20.4428 7.86162
489 1 17.2974 20.4426 7.86165
490 1 20.4415 20.4424 7.86176
583 1 12.5798 18.8717 12.5796
492 1 4.70851 11.0125 11.007
493 1 7.55555 11.084 11.007
494 1 11.3135 11.084 11.007
495 1 14.1606 11.0125 11.007
582 1 11.0069 20.4418 14.1522
581 1 9.43453 18.869 12.5797
498 1 22.0117 12.5803 9.43409
499 1 1.56794 14.155 11.007
500 1 3.13398 12.5837 9.43157
501 1 4.70557 14.1631 11.007
502 1 6.24478 12.6275 9.39023
503 1 7.85178 14.156 11.007
504 1 9.43453 12.5546 9.45038
505 1 11.0173 14.156 11.007
506 1 12.6243 12.6275 9.39022
507 1 14.1635 14.1631 11.007
508 1 15.7351 12.5837 9.43157
509 1 17.3011 14.155 11.007
510 1 18.8713 12.5803 9.43409
511 1 20.4415 14.1533 11.007
512 1 22.0124 15.7263 9.43396
513 1 1.57057 17.2992 11.007
514 1 3.14036 15.7291 9.4329
515 1 4.71437 17.3017 11.007
516 1 6.28548 15.7354 9.43151
517 1 7.86258 17.2979 11.007
518 1 9.43453 15.7197 9.43516
519 1 11.0065 17.2979 11.007
520 1 12.5836 15.7354 9.43151
521 1 14.1547 17.3017 11.007
522 1 15.7287 15.7291 9.4329
523 1 17.2985 17.2992 11.007
524 1 18.8706 15.7263 9.43396
525 1 20.4415 17.2984 11.007
526 1 22.0133 18.8706 9.43423
527 1 1.57162 20.4426 11.007
528 1 3.14335 18.8715 9.43403
529 1 4.71642 20.443 11.007
530 1 6.28921 18.8717 9.43427
531 1 7.86224 20.442 11.007
532 1 9.43453 18.869 9.43425
533 1 11.0068 20.442 11.007
534 1 12.5798 18.8717 9.43427
535 1 14.1526 20.443 11.007
536 1 15.7257 18.8715 9.43403
537 1 17.2974 20.4426 11.007
538 1 18.8697 18.8706 9.43423
539 1 20.4415 20.4424 11.007
580 1 7.86212 20.4418 14.1522
579 1 6.28921 18.8717 12.5796
542 1 7.84349 11.0138 14.1522
543 1 11.0256 11.0138 14.1522
578 1 4.71658 20.4428 14.1523
577 1 3.14335 18.8715 12.5799
576 1 1.57164 20.4426 14.1523
547 1 22.0117 12.5803 12.5798
548 1 1.56757 14.1547 14.1543
549 1 3.13398 12.5837 12.5823
550 1 4.70146 14.1679 14.1673
551 1 6.24478 12.6275 12.6237
552 1 7.86488 14.1548 14.1542
553 1 9.43453 12.5546 12.5635
554 1 11.0042 14.1548 14.1542
555 1 12.6243 12.6275 12.6237
556 1 14.1676 14.1679 14.1673
557 1 15.7351 12.5837 12.5823
558 1 17.3015 14.1547 14.1543
559 1 18.8713 12.5803 12.5798
560 1 20.4415 14.153 14.1527
561 1 22.0124 15.7263 12.5799
562 1 1.57056 17.2991 14.1529
563 1 3.14036 15.7291 12.581
564 1 4.71456 17.302 14.1543
565 1 6.28548 15.7354 12.5824
566 1 7.86268 17.2984 14.1529
567 1 9.43453 15.7197 12.5787
568 1 11.0064 17.2984 14.1529
569 1 12.5836 15.7354 12.5824
570 1 14.1545 17.302 14.1543
571 1 15.7287 15.7291 12.581
572 1 17.2985 17.2991 14.1529
573 1 18.8706 15.7263 12.5799
574 1 20.4415 17.2983 14.1525
575 1 22.0133 18.8706 12.5797
544 1 14.1628 11.0076 14.1595
541 1 4.70623 11.0076 14.1595
154 1 9.43453 22.0137 9.43455
467 1 14.1628 11.0076 7.85436
203 1 9.43453 22.0137 12.5794
464 1 4.70623 11.0076 7.85436
463 1 1.56862 11.007 7.86015
546 1 20.4415 11.007 14.1526
545 1 17.3004 11.007 14.1538
468 1 17.3004 11.007 7.86015
469 1 20.4415 11.007 7.8613
540 1 1.56862 11.007 14.1538
497 1 20.4415 11.0071 11.007
496 1 17.2998 11.0074 11.007
491 1 1.56928 11.0074 11.007
589 1 1.57046 11.0071 17.2985
686 1 20.4415 20.4419 20.4418
305 1 15.725 22.0135 18.8698
297 1 3.14404 22.0135 18.8698
685 1 18.8696 18.8701 18.87
594 1 17.2986 11.0071 17.2985
684 1 17.2972 20.4417 20.4419
596 1 22.0124 12.58 15.7257
597 1 1.57038 14.1532 17.2987
598 1 3.14017 12.5812 15.7283
599 1 4.71389 14.1551 17.3022
600 1 6.28363 12.5842 15.7357
601 1 7.86261 14.1527 17.2983
602 1 9.43453 12.5763 15.7203
603 1 11.0064 14.1527 17.2983
604 1 12.5854 12.5842 15.7357
605 1 14.1552 14.1551 17.3022
606 1 15.7289 12.5812 15.7283
607 1 17.2987 14.1532 17.2987
608 1 18.8705 12.58 15.7257
609 1 20.4415 14.1526 17.2979
610 1 22.0123 15.7261 15.7258
611 1 1.5705 17.299 17.2988
612 1 3.1393 15.73 15.7297
613 1 4.71611 17.2986 17.2985
614 1 6.28872 15.7275 15.7271
615 1 7.86177 17.298 17.2982
616 1 9.43453 15.7266 15.7271
617 1 11.0073 17.298 17.2982
618 1 12.5803 15.7275 15.7271
619 1 14.1529 17.2986 17.2985
620 1 15.7298 15.73 15.7297
621 1 17.2986 17.299 17.2988
622 1 18.8707 15.7261 15.7258
623 1 20.4415 17.2981 17.2979
624 1 22.0133 18.8704 15.725
625 1 1.57163 20.4423 17.2974
626 1 3.14337 18.8714 15.7256
627 1 4.71661 20.4418 17.2975
628 1 6.28931 18.8704 15.7252
629 1 7.86184 20.4415 17.2976
630 1 9.43453 18.8702 15.7255
631 1 11.0072 20.4415 17.2976
632 1 12.5797 18.8704 15.7252
633 1 14.1524 20.4418 17.2975
634 1 15.7257 18.8714 15.7256
635 1 17.2974 20.4423 17.2974
636 1 18.8697 18.8704 15.725
637 1 20.4415 20.4422 17.2972
254 1 12.5798 22.0132 15.7249
683 1 15.725 18.87 18.8701
252 1 9.43453 22.013 15.7251
590 1 4.71384 11.0072 17.301
682 1 14.1523 20.4414 20.4419
250 1 6.28921 22.0132 15.7249
681 1 12.5798 18.8696 18.87
645 1 22.0132 12.5798 18.8701
646 1 1.57154 14.1525 20.4423
647 1 3.14314 12.58 18.8711
648 1 4.71646 14.1525 20.4428
649 1 6.2888 12.5799 18.8719
650 1 7.86215 14.1521 20.4421
651 1 9.43453 12.5793 18.8691
652 1 11.0069 14.1521 20.4421
653 1 12.5803 12.5799 18.8719
654 1 14.1526 14.1525 20.4428
655 1 15.7259 12.58 18.8711
656 1 17.2975 14.1525 20.4423
657 1 18.8698 12.5798 18.8701
658 1 20.4415 14.1523 20.442
659 1 22.0132 15.7252 18.8702
660 1 1.57159 17.2976 20.4423
661 1 3.14315 15.726 18.8714
662 1 4.7168 17.2973 20.4422
663 1 6.28937 15.7252 18.8705
664 1 7.86194 17.2972 20.4421
665 1 9.43453 15.7252 18.8705
666 1 11.0071 17.2972 20.4421
667 1 12.5797 15.7252 18.8705
668 1 14.1523 17.2973 20.4422
669 1 15.7259 15.726 18.8714
670 1 17.2975 17.2976 20.4423
671 1 18.8697 15.7252 18.8702
672 1 20.4415 17.2974 20.442
673 1 22.0133 18.8701 18.87
674 1 1.57187 20.4417 20.4419
675 1 3.14403 18.87 18.8701
676 1 4.71677 20.4414 20.4419
677 1 6.28927 18.8696 18.87
678 1 7.86192 20.4413 20.4419
679 1 9.43453 18.8695 18.87
680 1 11.0071 20.4413 20.4419
593 1 14.1552 11.0072 17.301
642 1 14.1529 11.007 20.4427
639 1 4.71613 11.007 20.4427
595 1 20.4415 11.007 17.2978
307 1 18.8695 4.7651e-06 18.8695
303 1 12.5799 22.0132 18.8699
644 1 20.4415 11.007 20.442
643 1 17.2976 11.007 20.4422
301 1 9.43453 22.0131 18.8699
295 1 22.0135 4.96066e-06 18.8695
638 1 1.57146 11.007 20.4422
299 1 6.28916 22.0132 18.8699
357 1 9.43453 12.5795 5.03485e-07
373 1 12.5795 15.7247 5.9116e-07
