ITEM: TIMESTEP
39
ITEM: NUMBER OF ATOMS
687
ITEM: BOX BOUNDS pp pp pp
0.0000000000000000e+00 2.2013900999999997e+01
0.0000000000000000e+00 2.2013900999999997e+01
0.0000000000000000e+00 2.2013900999999997e+01
ITEM: ATOMS id type x y z
1 1 22.0137 22.0136 22.0138
2 1 1.57184 1.57156 1.57182
3 1 3.14468 22.0134 22.0137
4 1 4.71685 1.57141 1.57175
5 1 6.28959 22.0133 22.0136
6 1 7.86195 1.5713 1.57169
7 1 9.43453 22.0132 22.0136
8 1 11.0071 1.57129 1.57169
9 1 12.5795 22.0133 22.0136
10 1 14.1522 1.57141 1.57175
11 1 15.7244 22.0134 22.0137
12 1 17.2972 1.57156 1.57182
13 1 18.8692 22.0136 22.0138
14 1 20.4415 1.57185 1.57202
15 1 22.0136 3.14411 22.0139
16 1 1.57161 4.71635 1.57178
17 1 3.14417 3.14373 22.0136
18 1 4.71618 4.71577 1.57082
19 1 6.28934 3.14365 22.0135
20 1 7.86172 4.71562 1.57085
21 1 9.43453 3.14357 22.0135
22 1 11.0073 4.71562 1.57085
23 1 12.5797 3.14365 22.0135
24 1 14.1529 4.71577 1.57082
25 1 15.7249 3.14373 22.0136
26 1 17.2974 4.71635 1.57178
27 1 18.8694 3.14412 22.0139
28 1 20.4415 4.71665 1.57211
29 1 22.0135 6.28914 0.000107998
30 1 1.57165 7.86169 1.57193
31 1 3.14412 6.28898 1.7669e-06
32 1 4.71648 7.86172 1.57128
33 1 6.28935 6.2889 22.0135
34 1 7.86215 7.86167 1.57086
35 1 9.43453 6.28859 22.0134
36 1 11.0069 7.86167 1.57086
37 1 12.5797 6.2889 22.0135
38 1 14.1526 7.86172 1.57128
39 1 15.7249 6.28898 1.95542e-06
40 1 17.2974 7.86169 1.57193
41 1 18.8694 6.28914 0.000108115
42 1 20.4415 7.86179 1.57217
43 1 22.0135 9.4344 0.000192177
44 1 1.57168 11.0071 1.57197
45 1 3.14408 9.43434 0.000164122
46 1 4.71648 11.0071 1.57153
47 1 6.28952 9.43448 0.000117935
48 1 7.86245 11.0066 1.57297
49 1 9.43453 9.43439 0.000283143
50 1 11.0066 11.0066 1.57297
51 1 12.5795 9.43448 0.00011735
52 1 14.1526 11.0071 1.57153
53 1 15.725 9.43434 0.000164304
54 1 17.2974 11.0071 1.57197
55 1 18.8694 9.4344 0.000192202
56 1 20.4415 11.0071 1.57217
57 1 22.0136 12.5797 0.000194188
58 1 1.57183 14.1524 1.57193
59 1 3.14423 12.5797 0.000176509
60 1 4.71699 14.1521 1.57152
61 1 6.28985 12.5791 0.00027789
62 1 7.86237 14.1516 1.57211
63 1 9.43453 12.5791 0.000233326
64 1 11.0067 14.1516 1.57211
65 1 12.5792 12.5791 0.000277295
66 1 14.1521 14.1521 1.57152
67 1 15.7248 12.5797 0.000176686
68 1 17.2972 14.1524 1.57193
69 1 18.8694 12.5797 0.000194208
70 1 20.4415 14.1523 1.57214
71 1 22.0136 15.7248 0.000116288
72 1 1.57187 17.2975 1.57177
73 1 3.14448 15.7248 6.59728e-05
74 1 4.71711 17.297 1.57169
75 1 6.28986 15.7243 22.0137
76 1 7.86207 17.2968 1.57171
77 1 9.43453 15.7242 22.0136
78 1 11.007 17.2968 1.57171
79 1 12.5792 15.7243 22.0137
80 1 14.1519 17.297 1.57169
81 1 15.7246 15.7248 6.61389e-05
82 1 17.2972 17.2975 1.57177
83 1 18.8693 15.7248 0.000116399
84 1 20.4415 17.2973 1.57208
85 1 22.0137 18.8696 22.0139
86 1 1.57214 20.4416 1.57193
87 1 3.14475 18.8693 22.0137
88 1 4.71714 20.4413 1.57192
89 1 6.28969 18.869 22.0136
90 1 7.86206 20.4412 1.57189
91 1 9.43453 18.869 22.0136
92 1 11.007 20.4412 1.57188
93 1 12.5794 18.869 22.0136
94 1 14.1519 20.4413 1.57192
95 1 15.7243 18.8693 22.0137
96 1 17.2969 20.4416 1.57193
97 1 18.8693 18.8696 22.0139
98 1 20.4415 20.4418 1.57207
99 1 22.0136 22.0138 3.14441
100 1 1.57175 1.57176 4.71671
101 1 3.14434 22.0134 3.14414
102 1 4.71628 1.57058 4.71614
103 1 6.28945 22.0132 3.14413
104 1 7.86177 1.57056 4.71605
105 1 9.43453 22.0131 3.14407
106 1 11.0073 1.57056 4.71605
107 1 12.5796 22.0132 3.14412
108 1 14.1528 1.57058 4.71614
109 1 15.7247 22.0134 3.14414
110 1 17.2973 1.57176 4.71671
111 1 18.8693 22.0138 3.14441
112 1 20.4415 1.57213 4.71696
113 1 22.0132 3.14386 3.14406
114 1 1.57008 4.71539 4.71555
115 1 3.14313 3.14281 3.14309
116 1 4.71228 4.71196 4.71218
117 1 6.28886 3.14288 3.14318
118 1 7.86062 4.71301 4.71317
119 1 9.43453 3.14281 3.14316
120 1 11.0084 4.71301 4.71317
121 1 12.5802 3.14288 3.14318
122 1 14.1568 4.71196 4.71218
123 1 15.7259 3.14281 3.14309
124 1 17.299 4.71539 4.71555
125 1 18.8697 3.14386 3.14406
126 1 20.4415 4.71646 4.7166
127 1 22.0133 6.28911 3.14417
128 1 1.57062 7.86157 4.71589
129 1 3.14316 6.28849 3.14297
130 1 4.714 7.86067 4.71301
131 1 6.28782 6.2874 3.14054
132 1 7.86042 7.85876 4.70852
133 1 9.43453 6.28681 3.14077
134 1 11.0086 7.85876 4.70852
135 1 12.5812 6.2874 3.14054
136 1 14.1551 7.86067 4.71301
137 1 15.7259 6.28849 3.14297
138 1 17.2984 7.86157 4.71589
139 1 18.8697 6.28911 3.14417
140 1 20.4415 7.86183 4.71659
141 1 22.0133 9.43444 3.14415
142 1 1.57076 11.0073 4.71585
143 1 3.14334 9.43435 3.14325
144 1 4.71433 11.0077 4.71379
145 1 6.28868 9.43482 3.14257
146 1 7.86278 11.0058 4.71963
147 1 9.43453 9.43442 3.1457
148 1 11.0063 11.0058 4.71963
149 1 12.5804 9.43482 3.14257
150 1 14.1547 11.0077 4.71379
151 1 15.7257 9.43435 3.14325
152 1 17.2983 11.0073 4.71585
153 1 18.8697 9.43444 3.14415
154 1 20.4415 11.0072 4.71649
155 1 22.0133 12.5798 3.14413
156 1 1.57086 14.1529 4.71579
157 1 3.14354 12.58 3.14327
158 1 4.71464 14.1544 4.71278
159 1 6.28964 12.5792 3.14342
160 1 7.86282 14.152 4.71647
161 1 9.43453 12.5788 3.1463
162 1 11.0062 14.152 4.71647
163 1 12.5794 12.5792 3.14342
164 1 14.1544 14.1544 4.71278
165 1 15.7255 12.58 3.14327
166 1 17.2982 14.1529 4.71579
167 1 18.8696 12.5798 3.14413
168 1 20.4415 14.1525 4.7165
169 1 22.0134 15.725 3.14409
170 1 1.57081 17.2986 4.71551
171 1 3.14358 15.7256 3.14291
172 1 4.71621 17.2984 4.71546
173 1 6.2896 15.7247 3.14354
174 1 7.86185 17.2976 4.71584
175 1 9.43453 15.7247 3.14359
176 1 11.0072 17.2976 4.71584
177 1 12.5795 15.7247 3.14354
178 1 14.1529 17.2984 4.71546
179 1 15.7255 15.7256 3.14291
180 1 17.2982 17.2986 4.71551
181 1 18.8696 15.725 3.14409
182 1 20.4415 17.2978 4.71639
183 1 22.0135 18.87 3.14409
184 1 1.57191 20.4422 4.71662
185 1 3.14429 18.8699 3.14387
186 1 4.71696 20.4417 4.71662
187 1 6.28951 18.8694 3.14402
188 1 7.86201 20.4414 4.71655
189 1 9.43453 18.8692 3.14401
190 1 11.007 20.4414 4.71655
191 1 12.5795 18.8694 3.14402
192 1 14.1521 20.4417 4.71662
193 1 15.7248 18.8699 3.14387
194 1 17.2971 20.4422 4.71662
195 1 18.8695 18.87 3.14409
196 1 20.4415 20.442 4.71686
197 1 22.0137 0.00023548 6.28942
198 1 1.57192 1.57219 7.86196
199 1 3.14443 6.28366e-05 6.28937
200 1 4.7169 1.57169 7.86219
201 1 6.28957 22.0131 6.28936
202 1 7.8622 1.57074 7.86204
203 1 9.43453 22.013 6.28911
204 1 11.0069 1.57074 7.86204
205 1 12.5795 22.0131 6.28936
206 1 14.1522 1.57169 7.86219
207 1 15.7246 6.28295e-05 6.28937
208 1 17.2971 1.57219 7.86196
209 1 18.8693 0.00023547 6.28942
210 1 20.4415 1.57237 7.86199
211 1 22.0134 3.14432 6.28944
212 1 1.57111 4.71638 7.86198
213 1 3.14346 3.14318 6.28896
214 1 4.71482 4.71407 7.86151
215 1 6.28774 3.14035 6.28757
216 1 7.85978 4.70779 7.8584
217 1 9.43453 3.14061 6.28717
218 1 11.0093 4.70779 7.8584
219 1 12.5813 3.14035 6.28757
220 1 14.1542 4.71407 7.86152
221 1 15.7256 3.14319 6.28896
222 1 17.2979 4.71638 7.86198
223 1 18.8695 3.14432 6.28944
224 1 20.4415 4.71685 7.86207
225 1 22.0125 6.289 6.28905
226 1 1.56915 7.86155 7.86142
227 1 3.13863 6.28564 6.28568
228 1 4.70303 7.85351 7.85301
229 1 6.27532 6.2748 6.27486
230 1 7.82277 7.81768 7.81935
231 1 9.43453 6.27853 6.2787
232 1 11.0463 7.81768 7.81935
233 1 12.5937 6.2748 6.27486
234 1 14.166 7.85351 7.85301
235 1 15.7304 6.28564 6.28568
236 1 17.2999 7.86155 7.86142
237 1 18.8705 6.289 6.28905
238 1 20.4415 7.86216 7.86212
239 1 22.0128 9.43452 6.28886
240 1 1.56976 11.0072 7.86096
241 1 3.141 9.43423 6.28675
242 1 4.70889 11.0076 7.857
243 1 6.28413 9.43467 6.28095
244 1 7.84459 11.0141 7.86804
245 1 9.43453 9.42732 6.29694
246 1 11.0245 11.0141 7.86804
247 1 12.5849 9.43467 6.28095
248 1 14.1602 11.0076 7.857
249 1 15.7281 9.43423 6.28675
250 1 17.2993 11.0072 7.86096
251 1 18.8702 9.43452 6.28886
252 1 20.4415 11.0072 7.8618
253 1 22.0128 12.5799 6.28884
254 1 1.56862 14.154 7.86051
255 1 3.14136 12.5808 6.28688
256 1 4.704 14.1654 7.84939
257 1 6.28504 12.5834 6.28132
258 1 7.86444 14.1549 7.86077
259 1 9.43453 12.5757 6.29708
260 1 11.0046 14.1549 7.86077
261 1 12.584 12.5834 6.28132
262 1 14.1651 14.1654 7.84939
263 1 15.7277 12.5808 6.28688
264 1 17.3004 14.154 7.86051
265 1 18.8701 12.5799 6.28884
266 1 20.4415 14.1527 7.86172
267 1 22.0126 15.7257 6.28861
268 1 1.57086 17.2987 7.86124
269 1 3.14009 15.7291 6.28512
270 1 4.71491 17.3013 7.85996
271 1 6.28847 15.7271 6.28693
272 1 7.86266 17.2979 7.86122
273 1 9.43453 15.7262 6.28712
274 1 11.0064 17.2979 7.86122
275 1 12.5806 15.7271 6.28693
276 1 14.1541 17.3013 7.85996
277 1 15.729 15.7291 6.28512
278 1 17.2982 17.2987 7.86124
279 1 18.8704 15.7257 6.28861
280 1 20.4415 17.298 7.86163
281 1 22.0134 18.8702 6.28911
282 1 1.5719 20.4424 7.8618
283 1 3.14373 18.8711 6.28854
284 1 4.71697 20.4426 7.86187
285 1 6.28955 18.8701 6.28895
286 1 7.86236 20.4416 7.86203
287 1 9.43453 18.8698 6.28868
288 1 11.0067 20.4416 7.86203
289 1 12.5795 18.8701 6.28896
290 1 14.1521 20.4426 7.86187
291 1 15.7253 18.8711 6.28854
292 1 17.2972 20.4424 7.8618
293 1 18.8695 18.8702 6.28911
294 1 20.4415 20.4423 7.86188
295 1 22.0137 0.000407229 9.43447
296 1 1.57195 1.57232 11.007
297 1 3.14442 0.00037622 9.43447
298 1 4.71681 1.57212 11.0071
299 1 6.28982 0.000318179 9.43476
300 1 7.86242 1.5737 11.0069
301 1 9.43453 0.000126381 9.43477
302 1 11.0066 1.5737 11.0069
303 1 12.5792 0.000318172 9.43476
304 1 14.1522 1.57212 11.0071
305 1 15.7246 0.000376224 9.43447
306 1 17.2971 1.57232 11.007
307 1 18.8693 0.000407223 9.43447
308 1 20.4415 1.57245 11.007
309 1 22.0135 3.14449 9.43453
310 1 1.5713 4.71649 11.0072
311 1 3.14383 3.14393 9.43456
312 1 4.71523 4.71554 11.0076
313 1 6.28929 3.14393 9.43542
314 1 7.86302 4.72315 11.0064
315 1 9.43453 3.14542 9.4351
316 1 11.006 4.72315 11.0064
317 1 12.5798 3.14393 9.43542
318 1 14.1538 4.71554 11.0076
319 1 15.7252 3.14393 9.43456
320 1 17.2978 4.71649 11.0072
321 1 18.8695 3.14449 9.43453
322 1 20.4415 4.71688 11.0071
323 1 22.0132 6.28929 9.43465
324 1 1.57115 7.8617 11.0071
325 1 3.14251 6.28822 9.43486
326 1 4.71491 7.86158 11.007
327 1 6.28676 6.28489 9.43647
328 1 7.8636 7.88942 11.0015
329 1 9.43453 6.2882 9.42601
330 1 11.0055 7.88943 11.0015
331 1 12.5823 6.28489 9.43647
332 1 14.1542 7.86158 11.007
333 1 15.7266 6.28822 9.43486
334 1 17.2979 7.8617 11.0071
335 1 18.8698 6.28929 9.43465
336 1 20.4415 7.86205 11.0071
337 1 22.0132 9.43485 9.43476
338 1 1.571 11.0074 11.0072
339 1 3.1415 9.43457 9.43401
340 1 4.71463 11.0113 11.0083
341 1 6.27428 9.41283 9.40635
342 1 7.57484 11.0735 11.024
343 1 9.43453 9.3163 9.22296
344 1 11.2942 11.0735 11.024
345 1 12.5948 9.41283 9.40635
346 1 14.1544 11.0113 11.0083
347 1 15.7276 9.43457 9.43402
348 1 17.2981 11.0074 11.0072
349 1 18.8698 9.43485 9.43476
350 1 20.4415 11.0073 11.0071
351 1 22.0124 12.58 9.43455
352 1 1.56856 14.1546 11.0071
353 1 3.1368 12.5827 9.43299
354 1 4.70625 14.1622 11.0075
355 1 6.25162 12.6219 9.39881
356 1 7.85107 14.1557 11.0079
357 1 9.43453 12.5526 9.45521
358 1 11.018 14.1557 11.0079
359 1 12.6174 12.6219 9.39881
360 1 14.1628 14.1622 11.0075
361 1 15.7323 12.5827 9.43299
362 1 17.3005 14.1546 11.0071
363 1 18.8705 12.58 9.43455
364 1 20.4415 14.1531 11.0071
365 1 22.0126 15.726 9.43418
366 1 1.57084 17.2989 11.007
367 1 3.14085 15.7285 9.43318
368 1 4.7146 17.3011 11.0071
369 1 6.2855 15.7342 9.43201
370 1 7.86239 17.2972 11.0068
371 1 9.43453 15.719 9.43553
372 1 11.0067 17.2972 11.0068
373 1 12.5836 15.7342 9.43201
374 1 14.1545 17.3011 11.0071
375 1 15.7282 15.7285 9.43318
376 1 17.2982 17.2989 11.007
377 1 18.8703 15.726 9.43418
378 1 20.4415 17.2982 11.007
379 1 22.0134 18.8704 9.43436
380 1 1.5719 20.4425 11.007
381 1 3.14369 18.8712 9.43417
382 1 4.71685 20.4428 11.007
383 1 6.28944 18.8713 9.43439
384 1 7.86252 20.4418 11.0068
385 1 9.43453 18.8684 9.43436
386 1 11.0065 20.4418 11.0068
387 1 12.5796 18.8713 9.43439
388 1 14.1522 20.4428 11.007
389 1 15.7254 18.8712 9.43417
390 1 17.2972 20.4425 11.007
391 1 18.8695 18.8704 9.43436
392 1 20.4415 20.4423 11.007
393 1 22.0137 0.000409314 12.5795
394 1 1.57202 1.5722 14.152
395 1 3.14449 0.000386112 12.5795
396 1 4.7172 1.57194 14.1517
397 1 6.28999 0.000468373 12.579
398 1 7.86233 1.57175 14.1515
399 1 9.43453 0.000284694 12.579
400 1 11.0067 1.57175 14.1515
401 1 12.5791 0.000468365 12.579
402 1 14.1519 1.57194 14.1517
403 1 15.7246 0.000386105 12.5795
404 1 17.297 1.5722 14.152
405 1 18.8693 0.000409312 12.5795
406 1 20.4415 1.57237 14.152
407 1 22.0135 3.14449 12.5796
408 1 1.57137 4.7164 14.1522
409 1 3.14395 3.14396 12.5797
410 1 4.71577 4.71464 14.1527
411 1 6.28993 3.14482 12.5787
412 1 7.86166 4.71398 14.1533
413 1 9.43453 3.1466 12.5786
414 1 11.0074 4.71398 14.1533
415 1 12.5791 3.14482 12.5787
416 1 14.1533 4.71464 14.1527
417 1 15.7251 3.14396 12.5797
418 1 17.2977 4.7164 14.1522
419 1 18.8694 3.14449 12.5796
420 1 20.4415 4.71682 14.152
421 1 22.0132 6.2893 12.5796
422 1 1.56937 7.86118 14.1532
423 1 3.1432 6.28855 12.5798
424 1 4.70622 7.85316 14.162
425 1 6.28956 6.28789 12.5789
426 1 7.85191 7.84759 14.1687
427 1 9.43453 6.29431 12.5791
428 1 11.0171 7.84759 14.1687
429 1 12.5795 6.28789 12.5789
430 1 14.1628 7.85316 14.162
431 1 15.7259 6.28855 12.5798
432 1 17.2997 7.86118 14.1532
433 1 18.8697 6.2893 12.5796
434 1 20.4415 7.86197 14.1522
435 1 22.0129 9.43474 12.5796
436 1 1.56883 11.0071 14.154
437 1 3.14003 9.43417 12.5814
438 1 4.70655 11.0077 14.1604
439 1 6.26715 9.41205 12.6104
440 1 7.84544 11.0129 14.1543
441 1 9.43453 9.41078 12.6591
442 1 11.0236 11.0129 14.1543
443 1 12.6019 9.41205 12.6104
444 1 14.1625 11.0077 14.1604
445 1 15.729 9.43417 12.5814
446 1 17.3002 11.0071 14.154
447 1 18.87 9.43474 12.5796
448 1 20.4415 11.0072 14.1527
449 1 22.0121 12.5801 12.5798
450 1 1.56805 14.1543 14.1541
451 1 3.13526 12.5829 12.5822
452 1 4.70209 14.167 14.1669
453 1 6.24614 12.6252 12.6231
454 1 7.86481 14.1537 14.1534
455 1 9.43453 12.5601 12.5657
456 1 11.0042 14.1537 14.1534
457 1 12.6229 12.6252 12.6231
458 1 14.167 14.167 14.1669
459 1 15.7338 12.5829 12.5822
460 1 17.301 14.1543 14.1541
461 1 18.8708 12.5801 12.5798
462 1 20.4415 14.1528 14.1526
463 1 22.0126 15.726 12.5799
464 1 1.57085 17.2988 14.1529
465 1 3.14064 15.7286 12.5811
466 1 4.71492 17.3016 14.1542
467 1 6.2852 15.7346 12.5826
468 1 7.86308 17.2971 14.1519
469 1 9.43453 15.7193 12.5777
470 1 11.006 17.2971 14.1519
471 1 12.5839 15.7346 12.5826
472 1 14.1541 17.3016 14.1542
473 1 15.7284 15.7286 12.5811
474 1 17.2982 17.2988 14.1529
475 1 18.8704 15.726 12.5799
476 1 20.4415 17.2981 14.1525
477 1 22.0134 18.8704 12.5797
478 1 1.57198 20.4424 14.1522
479 1 3.14373 18.8712 12.5798
480 1 4.71716 20.4427 14.152
481 1 6.28958 18.8713 12.5794
482 1 7.86249 20.4415 14.1515
483 1 9.43453 18.8682 12.5791
484 1 11.0066 20.4415 14.1515
485 1 12.5795 18.8713 12.5794
486 1 14.1519 20.4427 14.152
487 1 15.7253 18.8712 12.5798
488 1 17.2971 20.4424 14.1522
489 1 18.8695 18.8704 12.5797
490 1 20.4415 20.4423 14.1521
491 1 22.0137 0.000243556 15.7245
492 1 1.57189 1.57178 17.2971
493 1 3.14462 0.000121134 15.7245
494 1 4.7168 1.57114 17.2972
495 1 6.28983 22.0134 15.7242
496 1 7.86196 1.5711 17.2971
497 1 9.43453 22.0132 15.7242
498 1 11.0071 1.5711 17.2971
499 1 12.5792 22.0134 15.7242
500 1 14.1523 1.57114 17.2972
501 1 15.7244 0.000121114 15.7245
502 1 17.2972 1.57178 17.2971
503 1 18.8692 0.000243563 15.7245
504 1 20.4415 1.57212 17.297
505 1 22.0135 3.1443 15.7246
506 1 1.57059 4.71548 17.2983
507 1 3.1438 3.1433 15.725
508 1 4.71478 4.71417 17.2994
509 1 6.28887 3.14242 15.7252
510 1 7.86135 4.71472 17.2986
511 1 9.43453 3.14254 15.7253
512 1 11.0077 4.71472 17.2986
513 1 12.5802 3.14242 15.7252
514 1 14.1543 4.71417 17.2994
515 1 15.7253 3.1433 15.725
516 1 17.2985 4.71548 17.2983
517 1 18.8695 3.1443 15.7246
518 1 20.4415 4.71638 17.2975
519 1 22.0127 6.28882 15.7252
520 1 1.57063 7.86123 17.2985
521 1 3.14009 6.28577 15.7282
522 1 4.71443 7.86005 17.301
523 1 6.28412 6.28319 15.7306
524 1 7.86102 7.85949 17.3014
525 1 9.43453 6.2848 15.729
526 1 11.008 7.8595 17.3014
527 1 12.5849 6.28319 15.7306
528 1 14.1546 7.86005 17.301
529 1 15.729 6.28577 15.7282
530 1 17.2984 7.86123 17.2985
531 1 18.8703 6.28882 15.7252
532 1 20.4415 7.86163 17.2978
533 1 22.0126 9.43429 15.7256
534 1 1.57059 11.0072 17.2987
535 1 3.14076 9.43342 15.7281
536 1 4.7141 11.0072 17.3011
537 1 6.28519 9.4329 15.7332
538 1 7.86117 11.0071 17.2983
539 1 9.43453 9.43404 15.732
540 1 11.0079 11.0071 17.2983
541 1 12.5839 9.4329 15.7332
542 1 14.155 11.0072 17.3011
543 1 15.7283 9.43342 15.7281
544 1 17.2985 11.0072 17.2987
545 1 18.8704 9.43429 15.7256
546 1 20.4415 11.0071 17.298
547 1 22.0125 12.5801 15.7257
548 1 1.57064 14.1531 17.2987
549 1 3.14036 12.5812 15.7284
550 1 4.71434 14.1548 17.302
551 1 6.28384 12.5839 15.7354
552 1 7.86296 14.1519 17.2974
553 1 9.43453 12.5764 15.7201
554 1 11.0061 14.1519 17.2974
555 1 12.5852 12.5839 15.7354
556 1 14.1547 14.1548 17.302
557 1 15.7287 12.5812 15.7284
558 1 17.2984 14.1531 17.2987
559 1 18.8704 12.5801 15.7257
560 1 20.4415 14.1527 17.2979
561 1 22.0125 15.7259 15.7257
562 1 1.57094 17.2988 17.2985
563 1 3.1399 15.7296 15.7294
564 1 4.71693 17.298 17.2979
565 1 6.28957 15.7263 15.7262
566 1 7.86221 17.2971 17.2972
567 1 9.43453 15.7252 15.7256
568 1 11.0069 17.2971 17.2972
569 1 12.5795 15.7263 15.7262
570 1 14.1521 17.298 17.2979
571 1 15.7292 15.7296 15.7294
572 1 17.2981 17.2988 17.2985
573 1 18.8704 15.7259 15.7257
574 1 20.4415 17.2979 17.2977
575 1 22.0135 18.8703 15.7249
576 1 1.57202 20.4422 17.2972
577 1 3.14386 18.8712 15.7254
578 1 4.71732 20.4416 17.2968
579 1 6.29004 18.8697 15.7244
580 1 7.86216 20.4412 17.2967
581 1 9.43453 18.8693 15.7245
582 1 11.0069 20.4412 17.2967
583 1 12.579 18.8697 15.7244
584 1 14.1517 20.4416 17.2968
585 1 15.7252 18.8712 15.7254
586 1 17.297 20.4422 17.2972
587 1 18.8695 18.8703 15.7249
588 1 20.4415 20.4421 17.2971
589 1 22.0137 22.0138 18.8694
590 1 1.572 1.57163 20.4417
591 1 3.14463 22.0134 18.8693
592 1 4.71699 1.57151 20.4416
593 1 6.28962 22.0132 18.8692
594 1 7.86201 1.57141 20.4415
595 1 9.43453 22.0132 18.8691
596 1 11.007 1.57141 20.4415
597 1 12.5794 22.0132 18.8692
598 1 14.1521 1.57151 20.4416
599 1 15.7244 22.0134 18.8693
600 1 17.2971 1.57163 20.4417
601 1 18.8693 22.0138 18.8694
602 1 20.4415 1.57188 20.4418
603 1 22.0134 3.1439 18.8698
604 1 1.5717 4.71631 20.4421
605 1 3.14381 3.14331 18.8701
606 1 4.71652 4.71602 20.4422
607 1 6.2892 3.14336 18.8698
608 1 7.86184 4.7159 20.442
609 1 9.43453 3.14333 18.8697
610 1 11.0072 4.7159 20.442
611 1 12.5799 3.14336 18.8698
612 1 14.1525 4.71602 20.4422
613 1 15.7253 3.14331 18.8701
614 1 17.2974 4.71631 20.4421
615 1 18.8696 3.1439 18.8698
616 1 20.4415 4.7166 20.4419
617 1 22.0133 6.28896 18.87
618 1 1.57165 7.86161 20.4423
619 1 3.14336 6.28832 18.871
620 1 4.71654 7.86156 20.4427
621 1 6.28864 6.28801 18.8714
622 1 7.8621 7.86154 20.4423
623 1 9.43453 6.28775 18.8711
624 1 11.007 7.86154 20.4423
625 1 12.5804 6.28801 18.8714
626 1 14.1525 7.86156 20.4427
627 1 15.7257 6.28832 18.871
628 1 17.2974 7.86161 20.4423
629 1 18.8697 6.28896 18.87
630 1 20.4415 7.86174 20.4421
631 1 22.0133 9.43435 18.8702
632 1 1.57166 11.0071 20.4424
633 1 3.14333 9.43412 18.8711
634 1 4.71651 11.007 20.4428
635 1 6.28886 9.43424 18.8716
636 1 7.86232 11.0067 20.442
637 1 9.43453 9.43407 18.8702
638 1 11.0067 11.0067 20.442
639 1 12.5802 9.43424 18.8716
640 1 14.1526 11.007 20.4428
641 1 15.7257 9.43412 18.8711
642 1 17.2974 11.0071 20.4424
643 1 18.8697 9.43435 18.8702
644 1 20.4415 11.0071 20.4422
645 1 22.0133 12.5799 18.8702
646 1 1.57181 14.1524 20.4423
647 1 3.14343 12.58 18.8712
648 1 4.71693 14.1522 20.4428
649 1 6.28918 12.5796 18.8717
650 1 7.86241 14.1516 20.4417
651 1 9.43453 12.579 18.8686
652 1 11.0066 14.1516 20.4417
653 1 12.5799 12.5796 18.8717
654 1 14.1521 14.1522 20.4428
655 1 15.7256 12.58 18.8712
656 1 17.2973 14.1524 20.4423
657 1 18.8697 12.5799 18.8702
658 1 20.4415 14.1524 20.4421
659 1 22.0134 15.7252 18.8701
660 1 1.57193 17.2975 20.4422
661 1 3.14361 15.7258 18.8712
662 1 4.71732 17.2969 20.4417
663 1 6.28995 15.7245 18.8698
664 1 7.86216 17.2967 20.4415
665 1 9.43453 15.7245 18.8696
666 1 11.0069 17.2967 20.4415
667 1 12.5791 15.7245 18.8698
668 1 14.1517 17.2969 20.4417
669 1 15.7255 15.7258 18.8712
670 1 17.2971 17.2975 20.4422
671 1 18.8696 15.7252 18.8701
672 1 20.4415 17.2974 20.442
673 1 22.0136 18.87 18.8698
674 1 1.57227 20.4416 20.4417
675 1 3.14463 18.8697 18.8696
676 1 4.71727 20.4413 20.4415
677 1 6.28977 18.8692 18.8692
678 1 7.86211 20.4411 20.4414
679 1 9.43453 18.869 18.8692
680 1 11.0069 20.4411 20.4414
681 1 12.5793 18.8692 18.8692
682 1 14.1518 20.4413 20.4415
683 1 15.7244 18.8697 18.8696
684 1 17.2968 20.4416 20.4417
685 1 18.8694 18.87 18.8698
686 1 20.4415 20.4418 20.4417
687 3 9.43454 10.4354 10.8574
