ITEM: TIMESTEP
58
ITEM: NUMBER OF ATOMS
687
ITEM: BOX BOUNDS pp pp pp
0.0000000000000000e+00 2.2013900999999997e+01
0.0000000000000000e+00 2.2013900999999997e+01
0.0000000000000000e+00 2.2013900999999997e+01
ITEM: ATOMS id type x y z
126 1 18.8705 9.43397 6.28822
2 1 1.57176 1.57191 1.57199
125 1 15.7287 9.43285 6.28542
4 1 4.71663 1.5719 1.57195
111 1 15.7256 3.14278 6.2885
6 1 7.86185 1.5719 1.57192
110 1 12.5802 3.14264 6.28835
8 1 11.0072 1.57189 1.57192
109 1 9.43453 3.1426 6.28799
10 1 14.1524 1.5719 1.57195
124 1 12.5838 9.43177 6.27914
12 1 17.2973 1.57191 1.57199
123 1 9.43453 9.43646 6.28942
14 1 20.4415 1.57196 1.57207
15 1 22.0135 3.14414 22.0139
16 1 1.57148 4.71623 1.57168
17 1 3.14407 3.14402 3.32094e-08
18 1 4.71639 4.71611 1.57153
19 1 6.28918 3.14399 1.02939e-06
20 1 7.86175 4.71605 1.57153
21 1 9.43453 3.14398 7.45638e-07
22 1 11.0073 4.71605 1.57153
23 1 12.5799 3.14399 1.02914e-06
24 1 14.1527 4.71611 1.57153
25 1 15.725 3.14402 3.31212e-08
26 1 17.2976 4.71623 1.57168
27 1 18.8695 3.14414 22.0139
28 1 20.4415 4.71652 1.57195
29 1 22.0134 6.28905 22.0139
30 1 1.57147 7.86149 1.57166
31 1 3.14389 6.2888 1.29801e-06
32 1 4.71628 7.86133 1.57107
33 1 6.2892 6.28883 1.46493e-06
34 1 7.86194 7.86142 1.57136
35 1 9.43453 6.28871 1.23643e-06
36 1 11.0071 7.86142 1.57136
37 1 12.5799 6.28883 1.46487e-06
38 1 14.1528 7.86133 1.57107
39 1 15.7252 6.2888 1.29865e-06
40 1 17.2976 7.86149 1.57166
41 1 18.8695 6.28905 22.0139
42 1 20.4415 7.86163 1.57192
43 1 22.0134 9.43429 7.66043e-07
44 1 3.14382 9.43421 1.33662e-06
45 1 6.28923 9.43433 1.52317e-06
46 1 9.43453 9.43431 1.94649e-06
47 1 12.5798 9.43433 1.52284e-06
48 1 15.7252 9.43421 1.3368e-06
49 1 18.8695 9.43429 7.66058e-07
122 1 6.28531 9.43177 6.27914
51 1 1.5716 1.57168 4.71655
121 1 3.14039 9.43285 6.28542
53 1 4.71641 1.57149 4.71631
120 1 22.0125 9.43397 6.28822
55 1 7.86175 1.5715 4.71615
119 1 18.8706 6.28809 6.28829
57 1 11.0073 1.5715 4.71615
118 1 15.7297 6.2843 6.28453
59 1 14.1526 1.57149 4.71631
117 1 12.5821 6.28483 6.285
61 1 17.2975 1.57168 4.71655
116 1 9.43453 6.28555 6.28518
63 1 20.4415 1.57194 4.71681
64 1 22.0133 3.14382 3.14399
65 1 1.5704 4.71508 4.71528
66 1 3.14371 3.14355 3.1437
67 1 4.71536 4.71459 4.71483
68 1 6.28898 3.14357 3.14366
69 1 7.86141 4.71483 4.71494
70 1 9.43453 3.14358 3.14363
71 1 11.0076 4.71483 4.71494
72 1 12.5801 3.14357 3.14366
73 1 14.1537 4.71459 4.71483
74 1 15.7254 3.14355 3.1437
75 1 17.2987 4.71508 4.71528
76 1 18.8697 3.14382 3.14399
77 1 20.4415 4.71602 4.71622
78 1 22.0132 6.28877 3.14382
79 1 1.57042 7.86087 4.71523
80 1 3.14306 6.28798 3.14259
81 1 4.71417 7.85927 4.71201
82 1 6.28875 6.28803 3.14258
83 1 7.8619 7.86 4.71342
84 1 9.43453 6.28784 3.14251
85 1 11.0072 7.86 4.71342
86 1 12.5803 6.28803 3.14258
87 1 14.1549 7.85927 4.71201
88 1 15.726 6.28798 3.14259
89 1 17.2986 7.86087 4.71523
90 1 18.8698 6.28877 3.14382
91 1 20.4415 7.86137 4.7161
92 1 22.0132 9.43419 3.14379
93 1 3.14309 9.43393 3.14273
94 1 6.28868 9.43404 3.14189
95 1 9.43453 9.43429 3.14384
96 1 12.5804 9.43404 3.14189
97 1 15.726 9.43393 3.14273
98 1 18.8698 9.43419 3.14379
108 1 6.28891 3.14264 6.28835
115 1 6.28694 6.28483 6.285
114 1 3.13941 6.2843 6.28453
107 1 3.14343 3.14278 6.2885
113 1 22.0124 6.28809 6.28829
112 1 18.8696 3.14385 6.28912
106 1 22.0133 3.14385 6.28912
396 1 11.008 11.007 4.71574
104 1 15.7249 1.92757e-07 6.28917
395 1 7.86108 11.007 4.71574
100 1 3.14412 1.25666e-06 6.28917
346 1 7.86198 11.007 1.5717
105 1 18.8694 2.28098e-06 6.28933
347 1 11.0071 11.007 1.5717
99 1 22.0135 2.76082e-06 6.28933
127 1 1.57171 1.57175 7.86175
128 1 4.71667 1.57137 7.86176
129 1 7.86209 1.57159 7.86169
130 1 11.007 1.57159 7.86169
131 1 14.1524 1.57137 7.86175
132 1 17.2974 1.57175 7.86175
133 1 20.4415 1.57195 7.86184
134 1 1.57092 4.71542 7.86132
135 1 4.71522 4.71283 7.86023
136 1 7.86236 4.71432 7.8603
137 1 11.0067 4.71432 7.8603
138 1 14.1538 4.71283 7.86023
139 1 17.2981 4.71542 7.86132
140 1 20.4415 4.7161 7.86164
141 1 1.56793 7.85955 7.85971
142 1 4.70269 7.84757 7.84743
143 1 7.86068 7.8542 7.85246
144 1 11.0084 7.8542 7.85246
145 1 14.1664 7.84757 7.84743
146 1 17.3011 7.85954 7.85971
147 1 20.4415 7.86109 7.86128
687 3 9.43453 11.007 11.007
149 1 1.57171 1.57178 11.007
150 1 3.14411 6.01486e-07 9.43436
151 1 4.71654 1.57148 11.007
245 1 18.8713 9.43376 12.58
153 1 7.86224 1.57243 11.007
244 1 15.735 9.43057 12.5833
155 1 11.0068 1.57243 11.007
243 1 12.62 9.39282 12.6231
157 1 14.1525 1.57148 11.007
158 1 15.7249 22.0139 9.43436
159 1 17.2974 1.57179 11.007
242 1 9.43453 9.42843 12.5927
161 1 20.4415 1.57196 11.007
162 1 22.0134 3.14387 9.43434
163 1 1.57102 4.71551 11.007
164 1 3.14364 3.14309 9.43419
165 1 4.71516 4.71377 11.007
166 1 6.28951 3.14303 9.43453
167 1 7.86259 4.71907 11.007
168 1 9.43453 3.14516 9.43455
169 1 11.0065 4.71907 11.007
170 1 12.5796 3.14303 9.43453
171 1 14.1539 4.71377 11.007
172 1 15.7254 3.14309 9.43419
173 1 17.298 4.71551 11.007
174 1 18.8696 3.14387 9.43434
175 1 20.4415 4.71608 11.007
176 1 22.0128 6.28819 9.43415
177 1 1.56887 7.85976 11.007
178 1 3.14163 6.28601 9.43336
179 1 4.70776 7.85484 11.007
180 1 6.28787 6.28206 9.43288
181 1 7.85213 7.877 11.007
182 1 9.43453 6.29383 9.43577
183 1 11.0169 7.877 11.007
184 1 12.5812 6.28206 9.43288
185 1 14.1613 7.85484 11.007
186 1 15.7274 6.28601 9.43336
187 1 17.3002 7.85976 11.007
188 1 18.8702 6.28819 9.43415
189 1 20.4415 7.86096 11.007
190 1 22.0117 9.43376 9.43393
191 1 3.13403 9.43057 9.43063
192 1 6.24901 9.39282 9.39076
193 1 9.43453 9.42843 9.4212
194 1 12.62 9.39282 9.39076
195 1 15.735 9.43057 9.43063
196 1 18.8713 9.43376 9.43393
241 1 6.24901 9.39282 12.6231
198 1 1.57171 1.57175 14.1522
199 1 3.14411 22.0139 12.5796
200 1 4.71667 1.57137 14.1522
240 1 3.13403 9.43057 12.5833
202 1 7.86209 1.57159 14.1522
239 1 22.0117 9.43376 12.58
204 1 11.007 1.57159 14.1522
238 1 20.4415 7.8611 14.1526
206 1 14.1524 1.57137 14.1522
207 1 15.7249 22.0139 12.5796
208 1 17.2974 1.57175 14.1522
237 1 18.8702 6.28819 12.5798
210 1 20.4415 1.57195 14.1521
211 1 22.0134 3.14387 12.5796
212 1 1.57092 4.71542 14.1526
213 1 3.14364 3.14309 12.5797
214 1 4.71522 4.71283 14.1537
215 1 6.28951 3.14303 12.5794
216 1 7.86236 4.71432 14.1536
217 1 9.43453 3.14516 12.5794
218 1 11.0067 4.71432 14.1536
219 1 12.5796 3.14304 12.5794
220 1 14.1538 4.71283 14.1537
221 1 15.7254 3.14309 12.5797
222 1 17.2981 4.71542 14.1526
223 1 18.8696 3.14387 12.5796
224 1 20.4415 4.7161 14.1523
225 1 22.0128 6.28819 12.5798
226 1 1.56793 7.85955 14.1542
227 1 3.14163 6.28601 12.5805
228 1 4.70269 7.84757 14.1665
229 1 6.28787 6.28206 12.581
230 1 7.86068 7.8542 14.1614
231 1 9.43453 6.29383 12.5781
232 1 11.0084 7.8542 14.1614
233 1 12.5812 6.28206 12.581
234 1 14.1664 7.84757 14.1665
235 1 15.7274 6.28601 12.5805
236 1 17.3011 7.85954 14.1542
197 1 22.0135 2.8173e-06 12.5795
160 1 18.8694 2.87648e-06 9.4344
209 1 18.8694 2.43108e-06 12.5795
148 1 22.0135 3.26258e-06 9.4344
205 1 12.5795 22.0139 12.5794
152 1 6.28951 22.0139 9.43455
156 1 12.5795 22.0139 9.43455
201 1 6.28951 22.0139 12.5794
332 1 14.1528 7.86133 20.4428
247 1 1.5716 1.57168 17.2974
343 1 18.8698 9.43419 18.8701
249 1 4.71642 1.57149 17.2976
342 1 15.726 9.43393 18.8712
251 1 7.86175 1.5715 17.2977
331 1 12.5803 6.28803 18.8713
253 1 11.0073 1.5715 17.2977
341 1 12.5804 9.43404 18.872
255 1 14.1526 1.57149 17.2976
340 1 9.43453 9.43429 18.8701
257 1 17.2975 1.57168 17.2974
330 1 11.0071 7.86142 20.4425
259 1 20.4415 1.57194 17.2971
260 1 22.0133 3.14385 15.7248
261 1 1.5704 4.71508 17.2986
262 1 3.14344 3.14278 15.7254
263 1 4.71536 4.71459 17.2991
264 1 6.28891 3.14264 15.7256
265 1 7.86141 4.71483 17.299
266 1 9.43453 3.14261 15.7259
267 1 11.0076 4.71483 17.299
268 1 12.5802 3.14264 15.7256
269 1 14.1537 4.71459 17.2991
270 1 15.7256 3.14278 15.7254
271 1 17.2987 4.71508 17.2986
272 1 18.8696 3.14385 15.7248
273 1 20.4415 4.71602 17.2977
274 1 22.0124 6.28809 15.7256
275 1 1.57042 7.86087 17.2987
276 1 3.13941 6.28431 15.7294
277 1 4.71417 7.85927 17.3019
278 1 6.28694 6.28483 15.7289
279 1 7.8619 7.86 17.3005
280 1 9.43453 6.28556 15.7287
281 1 11.0072 7.86 17.3005
282 1 12.5821 6.28483 15.7289
283 1 14.1549 7.85927 17.3019
284 1 15.7297 6.28431 15.7294
285 1 17.2986 7.86087 17.2987
286 1 18.8706 6.28809 15.7256
287 1 20.4415 7.86137 17.2978
288 1 22.0125 9.43397 15.7257
289 1 3.14039 9.43285 15.7285
290 1 6.28531 9.43177 15.7348
291 1 9.43453 9.43645 15.7245
292 1 12.5838 9.43177 15.7348
293 1 15.7287 9.43285 15.7285
294 1 18.8705 9.43397 15.7257
339 1 6.28868 9.43404 18.872
296 1 1.57176 1.57191 20.4419
338 1 3.14309 9.43393 18.8712
298 1 4.71663 1.5719 20.442
337 1 22.0132 9.43419 18.8701
300 1 7.86185 1.5719 20.442
336 1 20.4415 7.86163 20.442
302 1 11.0072 1.57189 20.442
335 1 18.8698 6.28877 18.8701
304 1 14.1524 1.5719 20.442
334 1 17.2976 7.86149 20.4422
306 1 17.2973 1.57191 20.4419
333 1 15.726 6.28798 18.8713
308 1 20.4415 1.57196 20.4418
309 1 22.0133 3.14382 18.8699
310 1 1.57148 4.71623 20.4422
311 1 3.14371 3.14355 18.8702
312 1 4.71639 4.71611 20.4424
313 1 6.28898 3.14357 18.8702
314 1 7.86175 4.71605 20.4424
315 1 9.43453 3.14357 18.8703
316 1 11.0073 4.71605 20.4424
317 1 12.5801 3.14357 18.8702
318 1 14.1527 4.71611 20.4424
319 1 15.7253 3.14355 18.8702
320 1 17.2976 4.71623 20.4422
321 1 18.8697 3.14382 18.8699
322 1 20.4415 4.71652 20.4419
323 1 22.0132 6.28877 18.8701
324 1 1.57147 7.86149 20.4422
325 1 3.14306 6.28798 18.8713
326 1 4.71628 7.86133 20.4428
327 1 6.28875 6.28803 18.8713
328 1 7.86194 7.86142 20.4425
329 1 9.43453 6.28784 18.8714
591 1 7.86108 11.007 17.2982
248 1 3.14412 1.16212e-06 15.7247
592 1 11.008 11.007 17.2982
256 1 15.7249 9.73748e-08 15.7247
640 1 7.86198 11.007 20.4422
258 1 18.8694 2.23346e-06 15.7246
641 1 11.0071 11.007 20.4422
246 1 22.0135 2.71336e-06 15.7246
103 1 12.5798 1.75959e-07 6.28905
462 1 18.8696 18.8701 6.28912
102 1 9.43453 3.70176e-07 6.28886
9 1 12.5798 9.1811e-07 1.26885e-06
461 1 15.7256 18.8711 6.2885
101 1 6.28926 3.54704e-07 6.28905
60 1 15.725 2.04235e-07 3.14416
351 1 22.0134 12.5796 2.51409e-06
352 1 1.57146 14.1524 1.57166
353 1 3.14382 12.5797 2.00881e-06
354 1 4.71628 14.1526 1.57107
355 1 6.28923 12.5796 1.21766e-06
356 1 7.86194 14.1525 1.57136
62 1 18.8695 1.54726e-06 3.14437
358 1 11.0071 14.1525 1.57136
359 1 12.5798 12.5796 1.21722e-06
360 1 14.1528 14.1526 1.57107
361 1 15.7252 12.5797 2.00898e-06
362 1 17.2976 14.1524 1.57166
363 1 18.8695 12.5796 2.51423e-06
364 1 20.4415 14.1523 1.57192
365 1 22.0134 15.7249 1.91102e-06
366 1 1.57148 17.2977 1.57168
367 1 3.14389 15.7251 2.88708e-06
368 1 4.71639 17.2978 1.57153
369 1 6.2892 15.7251 1.23932e-06
370 1 7.86175 17.2979 1.57152
371 1 9.43453 15.7252 6.43018e-08
372 1 11.0073 17.2979 1.57152
350 1 20.4415 11.007 1.57192
374 1 14.1527 17.2978 1.57153
375 1 15.7252 15.7251 2.88721e-06
376 1 17.2976 17.2977 1.57168
377 1 18.8695 15.7249 1.91146e-06
378 1 20.4415 17.2974 1.57196
379 1 22.0135 18.8698 3.63087e-07
380 1 1.57176 20.442 1.57199
381 1 3.14407 18.8699 2.15215e-06
382 1 4.71663 20.442 1.57195
383 1 6.28918 18.8699 1.61243e-06
384 1 7.86185 20.442 1.57192
385 1 9.43453 18.8699 7.07795e-07
386 1 11.0072 20.442 1.57192
387 1 12.5799 18.8699 1.61244e-06
388 1 14.1524 20.442 1.57195
389 1 15.725 18.8699 2.15227e-06
390 1 17.2973 20.442 1.572
391 1 18.8695 18.8698 3.63229e-07
392 1 20.4415 20.4419 1.57207
393 1 1.57043 11.007 4.71531
460 1 12.5802 18.8713 6.28835
52 1 3.14406 9.23029e-07 3.14416
13 1 18.8694 2.59725e-06 22.0139
459 1 9.43453 18.8713 6.28799
398 1 17.2986 11.007 4.71531
458 1 6.2889 18.8713 6.28835
400 1 22.0132 12.5797 3.14379
401 1 1.57042 14.153 4.71523
402 1 3.14309 12.58 3.14273
403 1 4.71417 14.1546 4.71201
404 1 6.28868 12.5799 3.14189
405 1 7.8619 14.1539 4.71342
406 1 9.43453 12.5796 3.14384
407 1 11.0072 14.1539 4.71343
408 1 12.5804 12.5799 3.14189
409 1 14.1549 14.1546 4.71201
410 1 15.726 12.58 3.14273
411 1 17.2986 14.153 4.71523
412 1 18.8698 12.5797 3.14379
413 1 20.4415 14.1525 4.7161
414 1 22.0132 15.7251 3.14382
415 1 1.5704 17.2988 4.71528
416 1 3.14306 15.7259 3.14259
417 1 4.71536 17.2993 4.71483
418 1 6.28875 15.7259 3.14258
419 1 7.86141 17.2991 4.71494
420 1 9.43453 15.7261 3.14251
421 1 11.0076 17.2991 4.71494
422 1 12.5803 15.7259 3.14258
423 1 14.1537 17.2993 4.71483
424 1 15.726 15.7259 3.14259
425 1 17.2987 17.2988 4.71528
426 1 18.8698 15.7251 3.14382
427 1 20.4415 17.2979 4.71622
428 1 22.0133 18.8701 3.14399
429 1 1.5716 20.4422 4.71655
430 1 3.14371 18.8703 3.1437
431 1 4.71641 20.4424 4.71631
432 1 6.28898 18.8703 3.14366
433 1 7.86174 20.4424 4.71615
434 1 9.43453 18.8703 3.14363
435 1 11.0073 20.4424 4.71615
436 1 12.5801 18.8703 3.14366
437 1 14.1526 20.4424 4.71631
438 1 15.7253 18.8703 3.1437
439 1 17.2975 20.4422 4.71655
440 1 18.8697 18.8701 3.144
441 1 20.4415 20.442 4.71681
442 1 22.0125 12.5799 6.28823
443 1 3.14039 12.5811 6.28542
444 1 6.28531 12.5821 6.27914
445 1 9.43453 12.5775 6.28942
446 1 12.5838 12.5821 6.27914
447 1 15.7287 12.5811 6.28542
448 1 18.8705 12.5799 6.28823
449 1 22.0124 15.7258 6.28829
450 1 3.13941 15.7296 6.28453
451 1 6.28694 15.7291 6.285
452 1 9.43453 15.7284 6.28518
453 1 12.5821 15.7291 6.285
454 1 15.7296 15.7296 6.28453
455 1 18.8706 15.7258 6.28829
456 1 22.0133 18.8701 6.28912
457 1 3.14343 18.8711 6.2885
1 1 22.0136 3.2716e-06 22.0139
5 1 6.28927 1.71918e-06 1.26887e-06
399 1 20.4415 11.007 4.71606
397 1 14.1552 11.007 4.71268
394 1 4.71382 11.007 4.71267
348 1 14.1529 11.007 1.57114
345 1 4.71612 11.007 1.57114
7 1 9.43453 2.30166e-06 1.24123e-06
344 1 1.57145 11.007 1.57169
11 1 15.7248 6.20356e-07 6.13833e-07
3 1 3.14425 1.83481e-06 6.13698e-07
50 1 22.0135 1.97886e-06 3.14437
349 1 17.2976 11.007 1.57169
54 1 6.28916 1.09107e-06 3.14406
56 1 9.43453 1.4376e-06 3.14402
58 1 12.5799 4.8396e-07 3.14406
588 1 20.4415 20.442 14.1521
587 1 18.8696 18.87 12.5796
465 1 7.84765 11.007 7.86872
466 1 11.0214 11.007 7.86873
586 1 17.2974 20.4421 14.1522
585 1 15.7254 18.8708 12.5797
584 1 14.1524 20.4425 14.1522
470 1 1.56793 14.1544 7.85972
471 1 4.70269 14.1663 7.84743
472 1 7.86068 14.1597 7.85246
473 1 11.0084 14.1597 7.85246
474 1 14.1664 14.1663 7.84744
475 1 17.3011 14.1544 7.85972
476 1 20.4415 14.1528 7.86128
477 1 1.57092 17.2985 7.86132
478 1 4.71522 17.3011 7.86023
479 1 7.86235 17.2996 7.8603
480 1 11.0067 17.2996 7.8603
481 1 14.1538 17.3011 7.86023
482 1 17.2981 17.2985 7.86132
483 1 20.4415 17.2978 7.86164
484 1 1.5717 20.4422 7.86175
485 1 4.71667 20.4425 7.86176
486 1 7.86209 20.4423 7.86169
487 1 11.007 20.4423 7.86169
488 1 14.1524 20.4425 7.86175
489 1 17.2974 20.4421 7.86175
490 1 20.4415 20.442 7.86184
583 1 12.5795 18.8709 12.5794
492 1 4.6913 11.007 11.007
493 1 7.48436 11.0069 11.007
494 1 11.3847 11.0069 11.007
495 1 14.1778 11.007 11.007
582 1 11.007 20.4423 14.1522
581 1 9.43453 18.8687 12.5794
498 1 22.0117 12.5801 9.43394
499 1 1.56887 14.1542 11.007
500 1 3.13403 12.5833 9.43063
501 1 4.70776 14.1591 11.007
502 1 6.24902 12.6211 9.39076
503 1 7.85213 14.1369 11.007
504 1 9.43453 12.5855 9.42119
505 1 11.0169 14.1369 11.007
506 1 12.62 12.6211 9.39076
507 1 14.1613 14.1591 11.007
508 1 15.735 12.5833 9.43063
509 1 17.3002 14.1542 11.007
510 1 18.8713 12.5801 9.43394
511 1 20.4415 14.1529 11.007
512 1 22.0128 15.7257 9.43415
513 1 1.57103 17.2984 11.007
514 1 3.14163 15.7279 9.43336
515 1 4.71515 17.3001 11.007
516 1 6.28787 15.7318 9.43288
517 1 7.86259 17.2948 11.007
518 1 9.43453 15.7201 9.43577
519 1 11.0065 17.2948 11.007
520 1 12.5812 15.7318 9.43288
521 1 14.1539 17.3001 11.007
522 1 15.7274 15.7279 9.43336
523 1 17.298 17.2984 11.007
524 1 18.8702 15.7257 9.43415
525 1 20.4415 17.2978 11.007
526 1 22.0134 18.87 9.43434
527 1 1.57171 20.4421 11.007
528 1 3.14364 18.8708 9.43419
529 1 4.71654 20.4424 11.007
530 1 6.28951 18.8709 9.43453
531 1 7.86223 20.4415 11.007
532 1 9.43453 18.8687 9.43455
533 1 11.0068 20.4415 11.007
534 1 12.5796 18.8709 9.43453
535 1 14.1525 20.4424 11.007
536 1 15.7254 18.8708 9.43419
537 1 17.2974 20.4421 11.007
538 1 18.8696 18.87 9.43434
539 1 20.4415 20.442 11.007
580 1 7.86209 20.4423 14.1522
579 1 6.28951 18.8709 12.5794
542 1 7.84764 11.007 14.1452
543 1 11.0214 11.007 14.1452
578 1 4.71667 20.4425 14.1522
577 1 3.14364 18.8708 12.5797
576 1 1.5717 20.4422 14.1522
547 1 22.0117 12.5801 12.58
548 1 1.56793 14.1544 14.1542
549 1 3.13403 12.5833 12.5833
550 1 4.70269 14.1663 14.1665
551 1 6.24902 12.6211 12.6231
552 1 7.86068 14.1597 14.1614
553 1 9.43453 12.5855 12.5927
554 1 11.0084 14.1597 14.1614
555 1 12.62 12.6211 12.6231
556 1 14.1664 14.1663 14.1665
557 1 15.735 12.5833 12.5833
558 1 17.3011 14.1544 14.1542
559 1 18.8713 12.5801 12.58
560 1 20.4415 14.1528 14.1526
561 1 22.0128 15.7257 12.5798
562 1 1.57092 17.2985 14.1526
563 1 3.14163 15.7279 12.5805
564 1 4.71522 17.3011 14.1537
565 1 6.28787 15.7318 12.581
566 1 7.86236 17.2996 14.1536
567 1 9.43453 15.7201 12.5781
568 1 11.0067 17.2996 14.1536
569 1 12.5812 15.7318 12.581
570 1 14.1538 17.3011 14.1537
571 1 15.7274 15.7279 12.5806
572 1 17.2981 17.2985 14.1526
573 1 18.8702 15.7257 12.5798
574 1 20.4415 17.2978 14.1523
575 1 22.0134 18.87 12.5796
544 1 14.1637 11.007 14.1606
541 1 4.70532 11.007 14.1606
154 1 9.43453 22.0139 9.43454
467 1 14.1637 11.007 7.85328
203 1 9.43453 22.0139 12.5794
464 1 4.70532 11.007 7.85328
463 1 1.5682 11.007 7.85983
546 1 20.4415 11.007 14.1527
545 1 17.3009 11.007 14.1541
468 1 17.3009 11.007 7.85983
469 1 20.4415 11.007 7.86117
540 1 1.5682 11.007 14.1541
497 1 20.4415 11.007 11.007
496 1 17.3026 11.007 11.007
491 1 1.56643 11.007 11.007
589 1 1.57043 11.007 17.2986
686 1 20.4415 20.4419 20.4418
305 1 15.725 8.57776e-07 18.8697
297 1 3.14406 1.57685e-06 18.8697
685 1 18.8697 18.8701 18.8699
594 1 17.2986 11.007 17.2986
684 1 17.2973 20.442 20.4419
596 1 22.0125 12.5799 15.7257
597 1 1.57042 14.153 17.2987
598 1 3.14039 12.5811 15.7285
599 1 4.71417 14.1546 17.3019
600 1 6.28531 12.5821 15.7348
601 1 7.8619 14.1539 17.3005
602 1 9.43453 12.5775 15.7245
603 1 11.0072 14.1539 17.3005
604 1 12.5838 12.5821 15.7348
605 1 14.1549 14.1546 17.3019
606 1 15.7287 12.5811 15.7285
607 1 17.2986 14.153 17.2987
608 1 18.8705 12.5799 15.7257
609 1 20.4415 14.1525 17.2978
610 1 22.0124 15.7258 15.7256
611 1 1.5704 17.2988 17.2986
612 1 3.13941 15.7296 15.7294
613 1 4.71536 17.2993 17.2991
614 1 6.28694 15.7291 15.7289
615 1 7.86141 17.2991 17.299
616 1 9.43453 15.7284 15.7287
617 1 11.0076 17.2991 17.299
618 1 12.5821 15.7291 15.7289
619 1 14.1537 17.2993 17.2991
620 1 15.7296 15.7296 15.7294
621 1 17.2987 17.2988 17.2986
622 1 18.8706 15.7258 15.7256
623 1 20.4415 17.2979 17.2977
624 1 22.0133 18.8701 15.7248
625 1 1.5716 20.4422 17.2974
626 1 3.14343 18.8711 15.7254
627 1 4.71641 20.4424 17.2976
628 1 6.28891 18.8713 15.7256
629 1 7.86174 20.4424 17.2978
630 1 9.43453 18.8713 15.7259
631 1 11.0073 20.4424 17.2978
632 1 12.5802 18.8713 15.7256
633 1 14.1526 20.4424 17.2976
634 1 15.7256 18.8711 15.7254
635 1 17.2975 20.4422 17.2974
636 1 18.8696 18.8701 15.7248
637 1 20.4415 20.442 17.2971
254 1 12.5798 1.96829e-07 15.7249
683 1 15.7253 18.8703 18.8702
252 1 9.43453 3.77769e-07 15.725
590 1 4.71382 11.007 17.3012
682 1 14.1524 20.442 20.442
250 1 6.28926 3.76347e-07 15.7249
681 1 12.5801 18.8703 18.8702
645 1 22.0132 12.5797 18.8701
646 1 1.57146 14.1524 20.4422
647 1 3.14309 12.58 18.8712
648 1 4.71628 14.1526 20.4428
649 1 6.28868 12.5799 18.872
650 1 7.86194 14.1525 20.4425
651 1 9.43453 12.5796 18.8701
652 1 11.0071 14.1525 20.4425
653 1 12.5804 12.5799 18.872
654 1 14.1528 14.1526 20.4428
655 1 15.726 12.58 18.8712
656 1 17.2976 14.1524 20.4422
657 1 18.8698 12.5797 18.8701
658 1 20.4415 14.1523 20.442
659 1 22.0132 15.7251 18.8701
660 1 1.57147 17.2977 20.4422
661 1 3.14306 15.7259 18.8713
662 1 4.71639 17.2978 20.4424
663 1 6.28875 15.7259 18.8713
664 1 7.86175 17.2979 20.4424
665 1 9.43453 15.7261 18.8714
666 1 11.0073 17.2979 20.4424
667 1 12.5803 15.7259 18.8713
668 1 14.1527 17.2978 20.4424
669 1 15.726 15.7259 18.8713
670 1 17.2976 17.2977 20.4422
671 1 18.8698 15.7251 18.8701
672 1 20.4415 17.2974 20.4419
673 1 22.0133 18.8701 18.8699
674 1 1.57176 20.442 20.4419
675 1 3.14371 18.8703 18.8702
676 1 4.71663 20.442 20.442
677 1 6.28898 18.8703 18.8702
678 1 7.86185 20.442 20.442
679 1 9.43453 18.8703 18.8703
680 1 11.0072 20.442 20.442
593 1 14.1552 11.007 17.3012
642 1 14.1529 11.007 20.4428
639 1 4.71612 11.007 20.4428
595 1 20.4415 11.007 17.2978
307 1 18.8695 1.58914e-06 18.8695
303 1 12.5799 1.58893e-06 18.8698
644 1 20.4415 11.007 20.442
643 1 17.2976 11.007 20.4422
301 1 9.43453 2.43051e-06 18.8699
295 1 22.0135 2.02056e-06 18.8695
638 1 1.57145 11.007 20.4422
299 1 6.28916 2.19648e-06 18.8698
357 1 9.43453 12.5796 1.06647e-06
373 1 12.5799 15.7251 1.23929e-06
