ITEM: TIMESTEP
0
ITEM: NUMBER OF ATOMS
687
ITEM: BOX BOUNDS pp pp pp
0.0000000000000000e+00 2.2013900999999997e+01
0.0000000000000000e+00 2.2013900999999997e+01
0.0000000000000000e+00 2.2013900999999997e+01
ITEM: ATOMS id type x y z c_pot
2 1 1.571950 1.571820 1.572420 -0.004700 
17 1 3.143940 3.143900 0.000950 -0.004500 
66 1 3.143940 3.143900 3.143890 -0.004500 
52 1 3.144300 0.000065 3.144320 -0.004300 
3 1 3.144300 0.000065 0.000519 -0.004300 
4 1 4.716910 1.572490 1.572420 -0.003700 
68 1 6.289460 3.144820 3.144210 -0.002900 
54 1 6.289300 0.000861 3.144380 -0.003500 
19 1 6.289460 3.144820 0.000637 -0.002900 
5 1 6.289300 0.000861 0.000464 -0.003500 
6 1 7.861980 1.573150 1.572420 -0.003000 
21 1 9.434520 3.145350 0.000457 -0.002500 
7 1 9.434400 0.001348 0.000447 -0.003200 
56 1 9.434400 0.001348 3.144400 -0.003200 
70 1 9.434520 3.145350 3.144390 -0.002500 
8 1 11.007000 1.573390 1.572420 -0.002900 
10 1 14.151900 1.573130 1.572420 -0.003000 
23 1 12.579400 3.145340 0.000454 -0.002500 
9 1 12.579500 0.001324 0.000449 -0.003200 
58 1 12.579500 0.001324 3.144390 -0.003200 
72 1 12.579400 3.145340 3.144390 -0.002500 
12 1 17.296900 1.572470 1.572420 -0.003700 
74 1 15.724400 3.144820 3.144210 -0.003000 
60 1 15.724600 0.000806 3.144370 -0.003500 
25 1 15.724400 3.144820 0.000633 -0.003000 
11 1 15.724600 0.000806 0.000469 -0.003500 
14 1 20.441800 1.571830 1.572420 -0.004700 
27 1 18.869800 3.143940 0.000923 -0.004500 
15 1 22.013800 3.143980 0.000662 -0.004400 
64 1 22.013800 3.143980 3.144180 -0.004400 
76 1 18.869800 3.143940 3.143920 -0.004500 
62 1 18.869500 0.000015 3.144330 -0.004400 
13 1 18.869500 0.000015 0.000517 -0.004400 
16 1 1.571830 4.716600 1.572420 -0.004000 
31 1 3.143730 6.289040 0.000968 -0.003700 
80 1 3.143730 6.289040 3.143880 -0.003700 
18 1 4.716470 4.716660 1.572420 -0.003900 
33 1 6.288890 6.289280 0.001480 -0.003400 
82 1 6.288890 6.289280 3.143360 -0.003400 
20 1 7.862130 4.717520 1.572420 -0.002200 
35 1 9.434680 6.290100 0.000466 -0.001200 
84 1 9.434680 6.290100 3.144380 -0.001200 
22 1 11.007000 4.717770 1.572420 -0.002100 
24 1 14.151800 4.717560 1.572420 -0.002200 
37 1 12.579300 6.290130 0.000407 -0.001100 
86 1 12.579300 6.290130 3.144440 -0.001100 
26 1 17.297200 4.716740 1.572420 -0.003800 
39 1 15.724800 6.289370 0.001353 -0.003300 
88 1 15.724800 6.289370 3.143490 -0.003300 
28 1 20.441700 4.716660 1.572420 -0.003900 
78 1 22.013700 6.289140 3.144180 -0.003600 
90 1 18.869800 6.289170 3.143980 -0.003500 
41 1 18.869800 6.289170 0.000859 -0.003500 
29 1 22.013700 6.289140 0.000660 -0.003600 
30 1 1.571680 7.861870 1.572420 -0.003500 
44 1 3.143540 9.434560 0.000893 -0.003300 
93 1 3.143540 9.434560 3.143950 -0.003300 
32 1 4.716110 7.861890 1.572420 -0.003300 
45 1 6.288330 9.434700 0.001509 -0.002900 
94 1 6.288330 9.434700 3.143330 -0.002900 
34 1 7.861910 7.862510 1.572420 -0.002300 
46 1 9.434560 9.435350 0.000633 -0.000600 
95 1 9.434560 9.435350 3.144210 -0.000600 
36 1 11.007000 7.862750 1.572420 -0.000600 
38 1 14.151900 7.862570 1.572420 -0.002100 
47 1 12.579300 9.435360 0.000486 -0.000500 
96 1 12.579300 9.435360 3.144360 -0.000500 
40 1 17.297400 7.862020 1.572420 -0.003000 
48 1 15.725200 9.434780 0.001182 -0.002500 
97 1 15.725200 9.434780 3.143660 -0.002500 
42 1 20.441700 7.861920 1.572420 -0.003400 
49 1 18.869800 9.434610 0.000739 -0.003100 
92 1 22.013600 9.434540 3.144250 -0.003300 
98 1 18.869800 9.434610 3.144100 -0.003100 
43 1 22.013600 9.434540 0.000592 -0.003300 
51 1 1.571810 1.571240 4.716130 -0.004800 
115 1 3.142810 3.142270 6.287190 -0.005400 
53 1 4.716590 1.571910 4.716130 -0.003900 
103 1 6.289090 0.000423 6.288690 -0.003400 
117 1 6.288800 3.143360 6.287810 -0.003300 
55 1 7.861900 1.572870 4.716440 -0.002800 
119 1 9.434450 3.144630 6.288490 -0.001900 
105 1 9.434330 0.001228 6.288680 -0.003000 
57 1 11.007000 1.573200 4.716490 -0.002800 
59 1 14.152000 1.572820 4.716420 -0.002900 
121 1 12.579600 3.144560 6.288490 -0.002000 
107 1 12.579600 0.001182 6.288660 -0.003100 
61 1 17.297300 1.571870 4.716110 -0.004000 
109 1 15.724900 0.000336 6.288650 -0.003500 
123 1 15.725200 3.143240 6.287770 -0.003500 
63 1 20.442000 1.571240 4.716140 -0.004700 
113 1 22.013900 3.143000 6.288110 -0.004700 
125 1 18.871000 3.142310 6.287260 -0.005400 
65 1 1.571510 4.716060 4.715830 -0.004200 
129 1 3.142260 6.287890 6.287060 -0.004300 
67 1 4.715390 4.715440 4.714530 -0.004900 
131 1 6.285610 6.285910 6.283450 -0.006500 
69 1 7.862070 4.717090 4.716020 -0.001600 
133 1 9.435060 6.289530 6.288460 0.001800 
71 1 11.007000 4.717400 4.716340 -0.001700 
73 1 14.151900 4.717080 4.716080 -0.001700 
135 1 12.579000 6.289520 6.288630 0.001700 
75 1 17.298300 4.715530 4.714660 -0.004900 
137 1 15.728200 6.286000 6.283850 -0.006400 
77 1 20.442100 4.716110 4.715890 -0.004200 
127 1 22.013700 6.288540 6.288110 -0.003800 
139 1 18.871200 6.288090 6.287340 -0.004100 
79 1 1.571380 7.861610 4.715920 -0.003400 
142 1 3.142300 9.434220 6.287360 -0.003200 
81 1 4.715200 7.861390 4.714770 -0.003400 
143 1 6.285560 9.434030 6.284520 -0.002700 
83 1 7.861250 7.862050 4.714180 -0.002600 
144 1 9.433850 9.435670 6.287670 0.007000 
85 1 11.007000 7.862800 4.717230 0.002100 
87 1 14.152600 7.862090 4.714600 -0.002300 
145 1 12.580100 9.435580 6.288170 0.007200 
89 1 17.298200 7.861590 4.715210 -0.003000 
146 1 15.727500 9.434260 6.285780 -0.001600 
91 1 20.442000 7.861680 4.716040 -0.003300 
141 1 22.013600 9.434340 6.288310 -0.003200 
147 1 18.870900 9.434320 6.287770 -0.002900 
100 1 1.571740 1.570530 7.861000 -0.004200 
155 1 0.000090 3.142360 9.433450 -0.004100 
156 1 3.142640 3.141690 9.432980 -0.004300 
176 1 1.571730 1.570080 11.006500 -0.003700 
102 1 4.715640 1.570000 7.860340 -0.004600 
157 1 6.286640 3.139400 9.431770 -0.005400 
177 1 4.715450 1.569500 11.006300 -0.003600 
104 1 7.861870 1.571950 7.861160 -0.002300 
158 1 9.435070 3.143800 9.433800 0.000100 
178 1 7.861320 1.570070 11.006500 -0.003200 
151 1 9.434500 0.000898 9.433970 -0.002300 
106 1 11.007000 1.572570 7.861040 -0.002400 
108 1 14.152200 1.571780 7.861110 -0.002500 
159 1 12.579100 3.143470 9.433800 -0.000300 
179 1 11.007000 1.573000 11.006700 0.000100 
180 1 14.152900 1.569550 11.006500 -0.003500 
152 1 12.579600 0.000812 9.433930 -0.002500 
110 1 17.298400 1.569860 7.860310 -0.004700 
160 1 15.727600 3.139070 9.431700 -0.005700 
181 1 17.298800 1.569210 11.006200 -0.003900 
112 1 20.442300 1.570490 7.860970 -0.004200 
161 1 18.871500 3.141520 9.432910 -0.004500 
182 1 20.442500 1.570010 11.006500 -0.003800 
114 1 1.570630 4.714830 7.860090 -0.004900 
183 1 1.570660 4.714250 11.006100 -0.004000 
163 1 3.139660 6.286230 9.431870 -0.005200 
184 1 4.712020 4.711540 11.005000 -0.004400 
116 1 4.711520 4.711160 7.856300 -0.008300 
164 1 6.273920 6.273890 9.419830 -0.016100 
185 1 7.857150 4.706320 11.004100 -0.005300 
118 1 7.861320 4.714500 7.859670 -0.001200 
165 1 9.436880 6.286020 9.433110 0.007400 
187 1 14.157600 4.705250 11.004000 -0.007200 
166 1 12.578500 6.285060 9.433060 0.005400 
120 1 11.007100 4.715960 7.860160 0.000300 
122 1 14.153000 4.714120 7.859620 -0.001900 
188 1 17.302400 4.711060 11.004900 -0.005100 
167 1 15.739800 6.274180 9.420690 -0.016000 
124 1 17.302300 4.711280 7.856550 -0.008100 
189 1 20.443500 4.714150 11.006100 -0.004200 
168 1 18.874200 6.286140 9.431930 -0.005400 
126 1 20.443200 4.714820 7.860110 -0.004900 
162 1 22.013900 6.287820 9.433350 -0.004100 
170 1 3.140370 9.433840 9.432340 -0.002600 
128 1 1.570450 7.861050 7.860320 -0.003400 
190 1 1.570130 7.860620 11.006500 -0.003400 
512 1 1.571370 11.006400 11.006900 -0.001100 
191 1 4.707020 7.857540 11.004800 -0.002500 
171 1 6.276510 9.432400 9.425580 -0.007100 
130 1 4.711400 7.859410 7.857390 -0.004400 
513 1 4.713460 11.005600 11.006200 0.005000 
192 1 7.819370 7.817770 10.965800 -0.040900 
172 1 9.407920 9.418660 9.426380 0.028500 
132 1 7.853560 7.855100 7.849010 -0.010600 
194 1 14.194300 7.816860 10.970600 -0.040200 
173 1 12.606400 9.416670 9.427270 0.019900 
134 1 11.007100 7.864370 7.864440 0.015000 
136 1 14.160400 7.854860 7.850210 -0.010000 
174 1 15.734800 9.433260 9.428590 -0.004100 
195 1 17.307200 7.857090 11.004900 -0.003600 
138 1 17.301700 7.859910 7.858310 -0.003600 
517 1 17.298800 11.005800 11.006400 0.006700 
175 1 18.872600 9.433990 9.432790 -0.002100 
196 1 20.443700 7.860600 11.006500 -0.003500 
169 1 22.013600 9.434080 9.433650 -0.002800 
140 1 20.442900 7.861150 7.860510 -0.003200 
518 1 20.442100 11.006400 11.006900 -0.000900 
198 1 1.571730 1.570080 14.152200 -0.003700 
211 1 0.000147 3.142100 12.579400 -0.003900 
213 1 3.142600 3.141400 12.579400 -0.003800 
200 1 4.715450 1.569500 14.152500 -0.003600 
215 1 6.286180 3.139260 12.579400 -0.003500 
203 1 9.434530 0.000575 12.579400 -0.002000 
202 1 7.861320 1.570070 14.152200 -0.003200 
217 1 9.434570 3.143430 12.579400 0.001400 
205 1 12.579600 0.000118 12.579400 -0.001900 
204 1 11.007000 1.573000 14.152100 0.000100 
206 1 14.152900 1.569550 14.152200 -0.003500 
219 1 12.579700 3.142580 12.579400 0.000400 
208 1 17.298800 1.569210 14.152500 -0.003900 
221 1 15.728200 3.138590 12.579400 -0.004300 
210 1 20.442500 1.570010 14.152300 -0.003800 
223 1 18.871700 3.141180 12.579400 -0.004100 
212 1 1.570660 4.714250 14.152600 -0.004000 
225 1 0.000089 6.287250 12.579400 -0.004000 
227 1 3.139750 6.285360 12.579400 -0.003600 
214 1 4.712020 4.711540 14.153700 -0.004400 
229 1 6.277620 6.277430 12.579400 -0.008500 
216 1 7.857150 4.706320 14.154700 -0.005300 
231 1 9.426040 6.284160 12.579400 0.009900 
186 1 11.007200 4.720460 11.007800 0.014900 
218 1 11.007200 4.720460 14.150900 0.014900 
220 1 14.157600 4.705250 14.154700 -0.007200 
233 1 12.590100 6.281080 12.579400 0.013200 
222 1 17.302400 4.711060 14.153800 -0.005100 
235 1 15.737600 6.276270 12.579400 -0.010900 
224 1 20.443500 4.714150 14.152600 -0.004200 
237 1 18.874600 6.285170 12.579400 -0.004200 
226 1 1.570130 7.860620 14.152200 -0.003400 
240 1 3.143290 9.433080 12.579400 0.003500 
540 1 1.571370 11.006400 14.151800 -0.001100 
541 1 4.713460 11.005600 14.152600 0.005000 
228 1 4.707020 7.857540 14.153900 -0.002500 
241 1 6.293490 9.428280 12.579400 -0.046900 
687 2 10.255100 10.916600 12.579400 -0.017322 
230 1 7.819370 7.817770 14.193000 -0.040900 
242 1 9.181820 9.326310 12.579400 -0.296400 
193 1 11.010800 7.883210 11.016400 0.186500 
232 1 11.010800 7.883210 14.142300 0.186500 
234 1 14.194300 7.816860 14.188100 -0.040200 
243 1 12.830800 9.350450 12.579400 0.320000 
545 1 17.298800 11.005800 14.152300 0.006700 
236 1 17.307200 7.857090 14.153800 -0.003600 
244 1 15.723100 9.427770 12.579400 -0.048900 
238 1 20.443700 7.860600 14.152200 -0.003500 
239 1 22.013800 9.433770 12.579400 -0.001500 
245 1 18.870600 9.433320 12.579400 0.002700 
546 1 20.442100 11.006400 14.151900 -0.000900 
247 1 1.571740 1.570530 17.297700 -0.004200 
260 1 0.000090 3.142360 15.725300 -0.004100 
262 1 3.142640 3.141690 15.725800 -0.004300 
249 1 4.715640 1.570000 17.298400 -0.004600 
264 1 6.286640 3.139400 15.727000 -0.005400 
252 1 9.434500 0.000898 15.724800 -0.002300 
251 1 7.861870 1.571950 17.297600 -0.002300 
266 1 9.435070 3.143800 15.724900 0.000100 
254 1 12.579600 0.000812 15.724800 -0.002500 
253 1 11.007000 1.572570 17.297700 -0.002400 
255 1 14.152200 1.571780 17.297600 -0.002500 
268 1 12.579100 3.143470 15.724900 -0.000300 
257 1 17.298400 1.569860 17.298400 -0.004700 
270 1 15.727600 3.139070 15.727000 -0.005700 
259 1 20.442300 1.570490 17.297800 -0.004200 
272 1 18.871500 3.141520 15.725800 -0.004500 
261 1 1.570630 4.714830 17.298700 -0.004900 
276 1 3.139660 6.286230 15.726900 -0.005200 
263 1 4.711520 4.711160 17.302400 -0.008300 
278 1 6.273920 6.273890 15.738900 -0.016100 
265 1 7.861320 4.714500 17.299100 -0.001200 
280 1 9.436880 6.286020 15.725600 0.007400 
267 1 11.007100 4.715960 17.298600 0.000300 
269 1 14.153000 4.714120 17.299100 -0.001900 
282 1 12.578500 6.285060 15.725700 0.005400 
271 1 17.302300 4.711280 17.302200 -0.008100 
284 1 15.739800 6.274180 15.738100 -0.016000 
273 1 20.443200 4.714820 17.298600 -0.004900 
274 1 22.013900 6.287820 15.725400 -0.004100 
286 1 18.874200 6.286140 15.726800 -0.005400 
275 1 1.570450 7.861050 17.298400 -0.003400 
289 1 3.140370 9.433840 15.726400 -0.002600 
277 1 4.711400 7.859410 17.301400 -0.004400 
290 1 6.276510 9.432400 15.733200 -0.007100 
279 1 7.853560 7.855100 17.309700 -0.010600 
291 1 9.407920 9.418660 15.732400 0.028500 
281 1 11.007100 7.864370 17.294300 0.015000 
283 1 14.160400 7.854860 17.308500 -0.010000 
292 1 12.606400 9.416670 15.731500 0.019900 
285 1 17.301700 7.859910 17.300400 -0.003600 
293 1 15.734800 9.433260 15.730200 -0.004100 
287 1 20.442900 7.861150 17.298200 -0.003200 
288 1 22.013600 9.434080 15.725100 -0.002800 
294 1 18.872600 9.433990 15.726000 -0.002100 
296 1 1.571810 1.571240 20.442600 -0.004800 
311 1 3.142810 3.142270 18.871600 -0.005400 
298 1 4.716590 1.571910 20.442600 -0.003900 
299 1 6.289090 0.000423 18.870100 -0.003400 
313 1 6.288800 3.143360 18.870900 -0.003300 
301 1 9.434330 0.001228 18.870100 -0.003000 
315 1 9.434450 3.144630 18.870300 -0.001900 
300 1 7.861900 1.572870 20.442300 -0.002800 
303 1 12.579600 0.001182 18.870100 -0.003100 
317 1 12.579600 3.144560 18.870300 -0.002000 
302 1 11.007000 1.573200 20.442300 -0.002800 
304 1 14.152000 1.572820 20.442300 -0.002900 
319 1 15.725200 3.143240 18.871000 -0.003500 
305 1 15.724900 0.000336 18.870100 -0.003500 
306 1 17.297300 1.571870 20.442600 -0.004000 
321 1 18.871000 3.142310 18.871500 -0.005400 
308 1 20.442000 1.571240 20.442600 -0.004700 
309 1 22.013900 3.143000 18.870600 -0.004700 
325 1 3.142260 6.287890 18.871700 -0.004300 
310 1 1.571510 4.716060 20.442900 -0.004200 
327 1 6.285610 6.285910 18.875300 -0.006500 
312 1 4.715390 4.715440 20.444200 -0.004900 
329 1 9.435060 6.289530 18.870300 0.001800 
314 1 7.862070 4.717090 20.442700 -0.001600 
318 1 14.151900 4.717080 20.442700 -0.001700 
316 1 11.007000 4.717400 20.442400 -0.001700 
331 1 12.579000 6.289520 18.870100 0.001700 
320 1 17.298300 4.715530 20.444100 -0.004900 
333 1 15.728200 6.286000 18.874900 -0.006400 
323 1 22.013700 6.288540 18.870600 -0.003800 
322 1 20.442100 4.716110 20.442900 -0.004200 
335 1 18.871200 6.288090 18.871400 -0.004100 
324 1 1.571380 7.861610 20.442800 -0.003400 
338 1 3.142300 9.434220 18.871400 -0.003200 
326 1 4.715200 7.861390 20.444000 -0.003400 
339 1 6.285560 9.434030 18.874200 -0.002700 
328 1 7.861250 7.862050 20.444600 -0.002600 
340 1 9.433850 9.435670 18.871100 0.007000 
341 1 12.580100 9.435580 18.870600 0.007200 
332 1 14.152600 7.862090 20.444100 -0.002300 
330 1 11.007000 7.862800 20.441500 0.002100 
342 1 15.727500 9.434260 18.873000 -0.001600 
334 1 17.298200 7.861590 20.443500 -0.003000 
343 1 18.870900 9.434320 18.871000 -0.002900 
337 1 22.013600 9.434340 18.870400 -0.003200 
336 1 20.442000 7.861680 20.442700 -0.003300 
352 1 1.571620 14.152600 1.572420 -0.003600 
353 1 3.143470 12.580200 0.000838 -0.003300 
402 1 3.143470 12.580200 3.144000 -0.003300 
344 1 1.571610 11.007300 1.572420 -0.003300 
354 1 4.715820 14.153100 1.572420 -0.003600 
355 1 6.288180 12.580600 0.001611 -0.003100 
404 1 6.288180 12.580600 3.143230 -0.003100 
345 1 4.715870 11.007500 1.572420 -0.003200 
356 1 7.861140 14.153700 1.572420 -0.003700 
357 1 9.434200 12.580900 0.001896 -0.002800 
358 1 11.006900 14.154100 1.572420 -0.003400 
406 1 9.434200 12.580900 3.142950 -0.002800 
346 1 7.861390 11.007700 1.572420 -0.002500 
359 1 12.579600 12.580900 0.001688 -0.002500 
360 1 14.152600 14.153600 1.572420 -0.003400 
408 1 12.579600 12.580900 3.143160 -0.002500 
348 1 14.152300 11.007700 1.572420 -0.002200 
347 1 11.007000 11.007900 1.572420 -0.001000 
361 1 15.725300 12.580500 0.001316 -0.002700 
362 1 17.297700 14.153000 1.572420 -0.003300 
410 1 15.725300 12.580500 3.143530 -0.002700 
349 1 17.297500 11.007500 1.572420 -0.002900 
363 1 18.869800 12.580100 0.000691 -0.003200 
364 1 20.441700 14.152500 1.572420 -0.003500 
400 1 22.013600 12.579900 3.144330 -0.003400 
412 1 18.869800 12.580100 3.144150 -0.003200 
350 1 20.441700 11.007300 1.572420 -0.003300 
351 1 22.013600 12.579900 0.000514 -0.003400 
366 1 1.571720 17.297600 1.572420 -0.004300 
367 1 3.143490 15.725600 0.000769 -0.004000 
416 1 3.143490 15.725600 3.144070 -0.004000 
368 1 4.715880 17.298500 1.572420 -0.004400 
369 1 6.287950 15.726700 0.001637 -0.004500 
418 1 6.287950 15.726700 3.143210 -0.004500 
370 1 7.861220 17.299100 1.572420 -0.003800 
371 1 9.433860 15.727200 0.001663 -0.003600 
372 1 11.006900 17.299300 1.572420 -0.003500 
420 1 9.433860 15.727200 3.143180 -0.003600 
373 1 12.580000 15.727100 0.001610 -0.003600 
374 1 14.152600 17.299000 1.572420 -0.003800 
422 1 12.580000 15.727100 3.143230 -0.003600 
375 1 15.725700 15.726500 0.001491 -0.004300 
376 1 17.297800 17.298400 1.572420 -0.004300 
424 1 15.725700 15.726500 3.143350 -0.004300 
378 1 20.441800 17.297500 1.572420 -0.004200 
414 1 22.013700 15.725000 3.144410 -0.003900 
426 1 18.870000 15.725400 3.144170 -0.003900 
365 1 22.013700 15.725000 0.000436 -0.003900 
377 1 18.870000 15.725400 0.000674 -0.003900 
380 1 1.571990 20.441900 1.572420 -0.004700 
381 1 3.143830 18.870300 0.000570 -0.004600 
430 1 3.143830 18.870300 3.144270 -0.004600 
382 1 4.716630 20.442600 1.572420 -0.004000 
432 1 6.288740 18.871000 3.144120 -0.004000 
383 1 6.288740 18.871000 0.000719 -0.004000 
384 1 7.861700 20.443200 1.572420 -0.003500 
386 1 11.007000 20.443400 1.572420 -0.003300 
434 1 9.434160 18.871500 3.144070 -0.003500 
385 1 9.434160 18.871500 0.000770 -0.003500 
388 1 14.152200 20.443100 1.572420 -0.003500 
436 1 12.579700 18.871500 3.144080 -0.003500 
387 1 12.579700 18.871500 0.000764 -0.003500 
390 1 17.297200 20.442500 1.572420 -0.004100 
438 1 15.725100 18.870900 3.144140 -0.004000 
389 1 15.725100 18.870900 0.000702 -0.004000 
379 1 22.013800 18.869600 0.000417 -0.004600 
391 1 18.869900 18.870200 0.000548 -0.004500 
392 1 20.441700 20.441800 1.572420 -0.004700 
428 1 22.013800 18.869600 3.144430 -0.004600 
440 1 18.869900 18.870200 3.144290 -0.004500 
1 1 22.013800 22.013500 0.000441 -0.004800 
50 1 22.013800 22.013500 3.144400 -0.004800 
401 1 1.571360 14.152700 4.716270 -0.003600 
451 1 3.142370 12.580400 6.287630 -0.003300 
393 1 1.571340 11.007300 4.716070 -0.003200 
394 1 4.715030 11.007600 4.714860 -0.003100 
403 1 4.714920 14.153700 4.714910 -0.004000 
453 1 6.285660 12.581900 6.284300 -0.003800 
405 1 7.859830 14.155200 4.712560 -0.004700 
407 1 11.006900 14.156000 4.712830 -0.003200 
455 1 9.432680 12.584000 6.280760 -0.001900 
395 1 7.860420 11.007700 4.713660 -0.001900 
409 1 14.153800 14.155100 4.713050 -0.004400 
457 1 12.580900 12.584000 6.281750 -0.001000 
397 1 14.153100 11.007800 4.714390 -0.001200 
396 1 11.007000 11.008300 4.716420 0.003400 
398 1 17.298200 11.007500 4.715380 -0.002700 
411 1 17.298400 14.153500 4.715310 -0.003700 
459 1 15.727500 12.581700 6.285410 -0.002900 
413 1 20.442000 14.152600 4.716380 -0.003500 
449 1 22.013600 12.579900 6.288600 -0.003200 
461 1 18.870800 12.580200 6.288010 -0.003000 
399 1 20.441900 11.007200 4.716200 -0.003200 
415 1 1.571460 17.297700 4.716400 -0.004400 
465 1 3.142220 15.726300 6.287810 -0.004800 
417 1 4.715060 17.299200 4.715360 -0.005100 
467 1 6.284560 15.730100 6.284360 -0.007500 
419 1 7.860750 17.299900 4.715110 -0.004000 
469 1 9.432810 15.730100 6.284800 -0.004100 
421 1 11.007000 17.300200 4.715090 -0.003600 
423 1 14.153100 17.299800 4.715170 -0.004100 
471 1 12.581100 15.730100 6.284900 -0.004200 
425 1 17.298600 17.299000 4.715490 -0.005000 
473 1 15.729000 15.729800 6.284800 -0.007200 
427 1 20.442100 17.297600 4.716450 -0.004300 
463 1 22.013700 15.725000 6.288930 -0.003800 
475 1 18.871200 15.726000 6.288050 -0.004500 
429 1 1.571920 20.441500 4.716650 -0.004400 
479 1 3.143770 18.869800 6.288910 -0.003900 
101 1 3.143970 22.013000 6.288620 -0.004200 
99 1 0.000016 22.012900 6.288920 -0.004200 
431 1 4.716370 20.442500 4.716360 -0.004100 
481 1 6.288110 18.871800 6.288010 -0.004300 
433 1 7.861560 20.443300 4.716280 -0.003500 
483 1 9.433920 18.872500 6.287820 -0.003500 
435 1 11.007000 20.443600 4.716250 -0.003300 
437 1 14.152400 20.443200 4.716270 -0.003500 
485 1 12.580000 18.872400 6.287820 -0.003600 
439 1 17.297500 20.442400 4.716360 -0.004100 
487 1 15.725800 18.871700 6.288030 -0.004400 
111 1 18.870000 22.013000 6.288630 -0.004200 
441 1 20.441900 20.441400 4.716660 -0.004400 
477 1 22.013900 18.869100 6.289270 -0.003700 
489 1 18.870100 18.869700 6.288930 -0.003900 
442 1 1.570620 11.007100 7.860610 -0.003000 
450 1 1.570840 14.152500 7.861250 -0.003400 
492 1 3.141530 12.579800 9.433420 -0.002600 
443 1 4.712020 11.007800 7.857750 -0.002700 
452 1 4.711190 14.156000 7.857840 -0.006400 
493 1 6.276260 12.587300 9.424590 -0.011700 
444 1 7.855150 11.008400 7.850910 -0.004100 
445 1 11.006900 11.012300 7.864710 -0.044100 
454 1 7.849320 14.166400 7.847620 -0.014600 
456 1 11.006900 14.164200 7.851020 -0.007900 
494 1 9.399680 12.621000 9.396920 -0.029400 
514 1 7.843480 11.022200 10.976700 0.041600 
521 1 7.859920 14.156900 11.005400 -0.003800 
446 1 14.157400 11.008700 7.853310 -0.002100 
458 1 14.164000 14.165900 7.849020 -0.013600 
495 1 12.612100 12.621900 9.400470 -0.036100 
515 1 11.014900 11.080900 10.764100 -0.196300 
516 1 14.159800 11.022700 10.983800 0.018700 
522 1 11.009500 14.164500 10.997600 0.014700 
447 1 17.300600 11.007700 7.858770 -0.001800 
460 1 17.301800 14.155400 7.858630 -0.005700 
496 1 15.735200 12.586200 9.427200 -0.008500 
448 1 20.442500 11.007100 7.860800 -0.002800 
462 1 20.442600 14.152400 7.861380 -0.003200 
491 1 22.013700 12.579300 9.434260 -0.002300 
497 1 18.871600 12.579600 9.433770 -0.002200 
464 1 1.571840 17.296900 7.861840 -0.002900 
498 1 0.000037 15.724200 9.434500 -0.002200 
499 1 3.143770 15.724600 9.434500 -0.001400 
526 1 1.572160 17.296300 11.006900 -0.002400 
466 1 4.715390 17.298600 7.860980 -0.003400 
500 1 6.286990 15.728000 9.432980 -0.001800 
527 1 4.716320 17.297100 11.006900 -0.001300 
468 1 7.859570 17.302500 7.858980 -0.005100 
501 1 9.431920 15.736200 9.429830 -0.005700 
528 1 7.860570 17.300300 11.006400 -0.001000 
502 1 12.582800 15.736900 9.429200 -0.007400 
470 1 11.007000 17.303100 7.858610 -0.003700 
472 1 14.154600 17.302600 7.858980 -0.005400 
529 1 11.007800 17.302100 11.006100 -0.001300 
503 1 15.726900 15.727800 9.433370 -0.002100 
474 1 17.298500 17.298400 7.861080 -0.003400 
531 1 17.298100 17.297500 11.006700 -0.002200 
532 1 20.442100 17.296400 11.006900 -0.002600 
504 1 18.870300 15.724700 9.434380 -0.001800 
476 1 20.442100 17.296900 7.861810 -0.003000 
149 1 3.143940 22.012300 9.433890 -0.003500 
506 1 3.144140 18.868900 9.434290 -0.002700 
505 1 0.000115 18.868500 9.434330 -0.003000 
478 1 1.572040 20.440800 7.861630 -0.003500 
148 1 0.000114 22.012300 9.434000 -0.003600 
533 1 1.572110 20.440300 11.006800 -0.003200 
507 1 6.288510 18.870700 9.433840 -0.002700 
150 1 6.288760 22.012900 9.433760 -0.003400 
480 1 4.716280 20.441600 7.861300 -0.003500 
534 1 4.716350 20.440800 11.006700 -0.002900 
508 1 9.434140 18.873100 9.433510 -0.003300 
535 1 7.861490 20.442400 11.006700 -0.002700 
482 1 7.861480 20.443400 7.861100 -0.003300 
509 1 12.580200 18.873200 9.433320 -0.003900 
536 1 11.007200 20.443600 11.006700 -0.002200 
484 1 11.007000 20.444000 7.860900 -0.003200 
486 1 14.152600 20.443400 7.861020 -0.003500 
537 1 14.152500 20.442000 11.006800 -0.002600 
538 1 17.297800 20.440800 11.006600 -0.003200 
510 1 15.725400 18.870400 9.434050 -0.002600 
153 1 15.725300 22.012600 9.433760 -0.003500 
488 1 17.297700 20.441400 7.861340 -0.003500 
511 1 18.870000 18.868900 9.434200 -0.003000 
154 1 18.870200 22.012300 9.433830 -0.003700 
490 1 20.442000 20.440800 7.861600 -0.003600 
539 1 20.442100 20.440300 11.006800 -0.003300 
519 1 1.572070 14.151600 11.007100 -0.001000 
548 1 1.572070 14.151600 14.151700 -0.001000 
549 1 3.144720 12.579000 12.579400 0.002800 
520 1 4.716520 14.151700 11.007600 0.003000 
550 1 4.716520 14.151700 14.151100 0.003000 
551 1 6.294200 12.575200 12.579400 0.009300 
542 1 7.843480 11.022200 14.182100 0.041600 
552 1 7.859920 14.156900 14.153300 -0.003800 
553 1 9.425000 12.607600 12.579400 -0.488400 
523 1 14.154800 14.157800 11.008300 0.003300 
543 1 11.014900 11.080900 14.394600 -0.196300 
544 1 14.159800 11.022700 14.174900 0.018700 
554 1 11.009500 14.164500 14.161200 0.014700 
555 1 12.576800 12.564800 12.579400 0.191000 
556 1 14.154800 14.157800 14.150400 0.003300 
524 1 17.298200 14.152400 11.007300 0.001100 
557 1 15.723500 12.577600 12.579400 0.011800 
558 1 17.298200 14.152400 14.151500 0.001100 
525 1 20.442000 14.151700 11.007000 -0.001300 
547 1 22.013900 12.579100 12.579400 -0.000800 
559 1 18.869500 12.579000 12.579400 0.001600 
560 1 20.442000 14.151700 14.151700 -0.001300 
561 1 0.000180 15.724000 12.579400 -0.002100 
562 1 1.572160 17.296300 14.151800 -0.002400 
563 1 3.144310 15.724300 12.579400 -0.001000 
564 1 4.716320 17.297100 14.151800 -0.001300 
565 1 6.288990 15.725200 12.579400 0.002500 
566 1 7.860570 17.300300 14.152400 -0.001000 
567 1 9.434590 15.733300 12.579400 0.000400 
530 1 14.153100 17.299500 11.007200 -0.001000 
568 1 11.007800 17.302100 14.152700 -0.001300 
569 1 12.579600 15.724800 12.579400 0.011800 
570 1 14.153100 17.299500 14.151600 -0.001000 
571 1 15.726800 15.726600 12.579400 -0.000400 
572 1 17.298100 17.297500 14.152000 -0.002200 
573 1 18.870200 15.724500 12.579400 -0.001900 
574 1 20.442100 17.296400 14.151900 -0.002600 
199 1 3.143920 22.012100 12.579400 -0.003300 
197 1 0.000154 22.012100 12.579400 -0.003500 
575 1 0.000170 18.868300 12.579400 -0.002900 
576 1 1.572110 20.440300 14.152000 -0.003200 
577 1 3.144250 18.868600 12.579400 -0.002700 
201 1 6.288570 22.012400 12.579400 -0.003100 
578 1 4.716350 20.440800 14.152000 -0.002900 
579 1 6.288670 18.869800 12.579400 -0.002100 
580 1 7.861490 20.442400 14.152100 -0.002700 
581 1 9.434210 18.872300 12.579400 -0.002500 
582 1 11.007200 20.443600 14.152100 -0.002200 
583 1 12.580000 18.870900 12.579400 -0.000600 
584 1 14.152500 20.442000 14.152000 -0.002600 
207 1 15.725600 22.012100 12.579400 -0.003400 
585 1 15.725600 18.869900 12.579400 -0.002700 
586 1 17.297800 20.440800 14.152100 -0.003200 
209 1 18.870300 22.012000 12.579400 -0.003500 
587 1 18.870000 18.868700 12.579400 -0.002900 
588 1 20.442100 20.440300 14.152000 -0.003300 
589 1 1.570620 11.007100 17.298100 -0.003000 
597 1 1.570840 14.152500 17.297500 -0.003400 
598 1 3.141530 12.579800 15.725300 -0.002600 
590 1 4.712020 11.007800 17.301000 -0.002700 
599 1 4.711190 14.156000 17.300900 -0.006400 
600 1 6.276260 12.587300 15.734200 -0.011700 
591 1 7.855150 11.008400 17.307800 -0.004100 
592 1 11.006900 11.012300 17.294000 -0.044100 
601 1 7.849320 14.166400 17.311100 -0.014600 
602 1 9.399680 12.621000 15.761800 -0.029400 
603 1 11.006900 14.164200 17.307700 -0.007900 
593 1 14.157400 11.008700 17.305400 -0.002100 
604 1 12.612100 12.621900 15.758300 -0.036100 
605 1 14.164000 14.165900 17.309700 -0.013600 
594 1 17.300600 11.007700 17.300000 -0.001800 
606 1 15.735200 12.586200 15.731500 -0.008500 
607 1 17.301800 14.155400 17.300100 -0.005700 
595 1 20.442500 11.007100 17.297900 -0.002800 
596 1 22.013700 12.579300 15.724500 -0.002300 
608 1 18.871600 12.579600 15.725000 -0.002200 
609 1 20.442600 14.152400 17.297400 -0.003200 
610 1 0.000037 15.724200 15.724200 -0.002200 
611 1 1.571840 17.296900 17.296900 -0.002900 
612 1 3.143770 15.724600 15.724200 -0.001400 
613 1 4.715390 17.298600 17.297800 -0.003400 
614 1 6.286990 15.728000 15.725800 -0.001800 
615 1 7.859570 17.302500 17.299800 -0.005100 
616 1 9.431920 15.736200 15.728900 -0.005700 
617 1 11.007000 17.303100 17.300100 -0.003700 
618 1 12.582800 15.736900 15.729500 -0.007400 
619 1 14.154600 17.302600 17.299800 -0.005400 
620 1 15.726900 15.727800 15.725400 -0.002100 
621 1 17.298500 17.298400 17.297700 -0.003400 
622 1 18.870300 15.724700 15.724400 -0.001800 
623 1 20.442100 17.296900 17.296900 -0.003000 
246 1 0.000114 22.012300 15.724700 -0.003600 
248 1 3.143940 22.012300 15.724900 -0.003500 
624 1 0.000115 18.868500 15.724400 -0.003000 
625 1 1.572040 20.440800 17.297100 -0.003500 
626 1 3.144140 18.868900 15.724500 -0.002700 
250 1 6.288760 22.012900 15.725000 -0.003400 
627 1 4.716280 20.441600 17.297400 -0.003500 
628 1 6.288510 18.870700 15.724900 -0.002700 
629 1 7.861480 20.443400 17.297600 -0.003300 
630 1 9.434140 18.873100 15.725200 -0.003300 
631 1 11.007000 20.444000 17.297800 -0.003200 
632 1 12.580200 18.873200 15.725400 -0.003900 
633 1 14.152600 20.443400 17.297700 -0.003500 
256 1 15.725300 22.012600 15.725000 -0.003500 
634 1 15.725400 18.870400 15.724700 -0.002600 
635 1 17.297700 20.441400 17.297400 -0.003500 
258 1 18.870200 22.012300 15.724900 -0.003700 
636 1 18.870000 18.868900 15.724500 -0.003000 
637 1 20.442000 20.440800 17.297100 -0.003600 
638 1 1.571340 11.007300 20.442700 -0.003200 
646 1 1.571360 14.152700 20.442500 -0.003600 
647 1 3.142370 12.580400 18.871100 -0.003300 
639 1 4.715030 11.007600 20.443900 -0.003100 
648 1 4.714920 14.153700 20.443800 -0.004000 
649 1 6.285660 12.581900 18.874400 -0.003800 
640 1 7.860420 11.007700 20.445100 -0.001900 
650 1 7.859830 14.155200 20.446200 -0.004700 
651 1 9.432680 12.584000 18.878000 -0.001900 
652 1 11.006900 14.156000 20.445900 -0.003200 
641 1 11.007000 11.008300 20.442300 0.003400 
642 1 14.153100 11.007800 20.444400 -0.001200 
653 1 12.580900 12.584000 18.877000 -0.001000 
654 1 14.153800 14.155100 20.445700 -0.004400 
643 1 17.298200 11.007500 20.443400 -0.002700 
655 1 15.727500 12.581700 18.873300 -0.002900 
656 1 17.298400 14.153500 20.443400 -0.003700 
644 1 20.441900 11.007200 20.442500 -0.003200 
645 1 22.013600 12.579900 18.870100 -0.003200 
657 1 18.870800 12.580200 18.870700 -0.003000 
658 1 20.442000 14.152600 20.442400 -0.003500 
660 1 1.571460 17.297700 20.442300 -0.004400 