ITEM: TIMESTEP
0
ITEM: NUMBER OF ATOMS
687
ITEM: BOX BOUNDS pp pp pp
0.0000000000000000e+00 2.2013900999999997e+01
0.0000000000000000e+00 2.2013900999999997e+01
0.0000000000000000e+00 2.2013900999999997e+01
ITEM: ATOMS id type x y z c_pot
2 1 1.572080 1.571860 1.572420 -0.004100 
17 1 3.144130 3.143950 0.000783 -0.003900 
66 1 3.144130 3.143950 3.144060 -0.003900 
3 1 3.144400 0.000055 0.000412 -0.003800 
52 1 3.144400 0.000055 3.144430 -0.003800 
4 1 4.717000 1.572480 1.572420 -0.003200 
19 1 6.289540 3.144810 0.000497 -0.002500 
5 1 6.289350 0.000803 0.000361 -0.003100 
68 1 6.289540 3.144810 3.144350 -0.002500 
54 1 6.289350 0.000803 3.144480 -0.003100 
6 1 7.862010 1.573110 1.572420 -0.002600 
8 1 11.007000 1.573350 1.572420 -0.002500 
21 1 9.434520 3.145330 0.000339 -0.002100 
56 1 9.434410 0.001276 3.144490 -0.002800 
70 1 9.434520 3.145330 3.144500 -0.002100 
7 1 9.434410 0.001276 0.000351 -0.002800 
10 1 14.151900 1.573110 1.572420 -0.002600 
23 1 12.579400 3.145330 0.000339 -0.002100 
58 1 12.579500 0.001276 3.144490 -0.002800 
72 1 12.579400 3.145330 3.144500 -0.002100 
9 1 12.579500 0.001276 0.000351 -0.002800 
12 1 17.296900 1.572480 1.572420 -0.003200 
25 1 15.724400 3.144810 0.000497 -0.002500 
74 1 15.724400 3.144810 3.144350 -0.002500 
11 1 15.724500 0.000803 0.000361 -0.003100 
60 1 15.724500 0.000803 3.144480 -0.003100 
14 1 20.441800 1.571860 1.572420 -0.004100 
27 1 18.869800 3.143950 0.000783 -0.003900 
64 1 22.013900 3.143990 3.144310 -0.003900 
76 1 18.869800 3.143950 3.144060 -0.003900 
15 1 22.013900 3.143990 0.000534 -0.003900 
13 1 18.869500 0.000055 0.000412 -0.003800 
62 1 18.869500 0.000055 3.144430 -0.003800 
16 1 1.572050 4.716590 1.572420 -0.003500 
31 1 3.144030 6.289030 0.000768 -0.003200 
80 1 3.144030 6.289030 3.144070 -0.003200 
18 1 4.716650 4.716680 1.572420 -0.003400 
33 1 6.289050 6.289270 0.001218 -0.002900 
82 1 6.289050 6.289270 3.143620 -0.002900 
20 1 7.862160 4.717500 1.572420 -0.001900 
22 1 11.007000 4.717730 1.572420 -0.001800 
35 1 9.434640 6.290050 0.000328 -0.000900 
84 1 9.434640 6.290050 3.144520 -0.000900 
24 1 14.151700 4.717500 1.572420 -0.001900 
37 1 12.579300 6.290050 0.000328 -0.000900 
86 1 12.579300 6.290050 3.144520 -0.000900 
26 1 17.297300 4.716680 1.572420 -0.003400 
39 1 15.724800 6.289270 0.001218 -0.002900 
88 1 15.724800 6.289270 3.143620 -0.002900 
28 1 20.441900 4.716590 1.572420 -0.003500 
41 1 18.869900 6.289030 0.000768 -0.003200 
78 1 22.013900 6.289060 3.144300 -0.003200 
90 1 18.869900 6.289030 3.144070 -0.003200 
29 1 22.013900 6.289060 0.000543 -0.003200 
30 1 1.571980 7.861750 1.572420 -0.003000 
44 1 3.143870 9.434420 0.000712 -0.002900 
93 1 3.143870 9.434420 3.144130 -0.002900 
32 1 4.716360 7.861810 1.572420 -0.002800 
45 1 6.288520 9.434560 0.001249 -0.002500 
94 1 6.288520 9.434560 3.143590 -0.002500 
34 1 7.861950 7.862410 1.572420 -0.002000 
36 1 11.007000 7.862610 1.572420 -0.000600 
46 1 9.434540 9.435220 0.000577 -0.000600 
95 1 9.434540 9.435220 3.144270 -0.000600 
38 1 14.152000 7.862410 1.572420 -0.002000 
47 1 12.579400 9.435220 0.000577 -0.000600 
96 1 12.579400 9.435220 3.144270 -0.000600 
40 1 17.297500 7.861810 1.572420 -0.002800 
48 1 15.725400 9.434560 0.001249 -0.002500 
97 1 15.725400 9.434560 3.143590 -0.002500 
42 1 20.441900 7.861750 1.572420 -0.003000 
49 1 18.870000 9.434420 0.000712 -0.002900 
92 1 22.013900 9.434380 3.144340 -0.003000 
98 1 18.870000 9.434420 3.144130 -0.002900 
43 1 22.013900 9.434380 0.000501 -0.003000 
51 1 1.571940 1.571300 4.716360 -0.004100 
113 1 0.000000 3.143090 6.288390 -0.004100 
115 1 3.143150 3.142470 6.287630 -0.004700 
53 1 4.716710 1.571910 4.716350 -0.003400 
103 1 6.289200 0.000259 6.288940 -0.002900 
117 1 6.288970 3.143420 6.288180 -0.002800 
55 1 7.861950 1.572810 4.716640 -0.002400 
119 1 9.434470 3.144660 6.288800 -0.001500 
105 1 9.434360 0.001020 6.288930 -0.002600 
57 1 11.007000 1.573150 4.716690 -0.002400 
59 1 14.151900 1.572810 4.716640 -0.002400 
121 1 12.579400 3.144660 6.288800 -0.001500 
107 1 12.579500 0.001020 6.288930 -0.002600 
61 1 17.297200 1.571910 4.716350 -0.003400 
109 1 15.724700 0.000259 6.288940 -0.002900 
123 1 15.724900 3.143420 6.288180 -0.002800 
63 1 20.442000 1.571300 4.716360 -0.004100 
125 1 18.870700 3.142470 6.287630 -0.004700 
65 1 1.571770 4.716100 4.716110 -0.003600 
127 1 0.000000 6.288540 6.288400 -0.003200 
129 1 3.142810 6.288070 6.287620 -0.003600 
67 1 4.715700 4.715580 4.714980 -0.004300 
131 1 6.286140 6.286230 6.284400 -0.005700 
69 1 7.862130 4.717120 4.716350 -0.001300 
71 1 11.007000 4.717460 4.716590 -0.001400 
133 1 9.435000 6.289740 6.288940 0.001900 
73 1 14.151800 4.717120 4.716350 -0.001300 
135 1 12.578900 6.289740 6.288940 0.001900 
75 1 17.298200 4.715580 4.714980 -0.004300 
137 1 15.727800 6.286230 6.284400 -0.005700 
77 1 20.442100 4.716100 4.716110 -0.003600 
139 1 18.871100 6.288070 6.287620 -0.003600 
79 1 1.571730 7.861530 4.716190 -0.002900 
141 1 0.000000 9.434190 6.288540 -0.002800 
142 1 3.142880 9.434130 6.287860 -0.002600 
81 1 4.715600 7.861400 4.715290 -0.002800 
143 1 6.286260 9.433980 6.285590 -0.001900 
83 1 7.861380 7.862040 4.714750 -0.002100 
85 1 11.007000 7.862720 4.717250 0.002000 
144 1 9.434000 9.435790 6.287840 0.006300 
87 1 14.152500 7.862040 4.714750 -0.002100 
145 1 12.579900 9.435790 6.287840 0.006300 
89 1 17.298300 7.861400 4.715290 -0.002800 
146 1 15.727600 9.433980 6.285590 -0.001900 
91 1 20.442200 7.861530 4.716190 -0.002900 
147 1 18.871000 9.434130 6.287860 -0.002600 
100 1 1.571800 1.570550 7.861200 -0.003600 
155 1 0.000000 3.142450 9.433630 -0.003500 
156 1 3.142840 3.141760 9.433190 -0.003800 
176 1 1.571720 1.570080 11.006600 -0.003200 
102 1 4.715870 1.570010 7.860650 -0.003900 
157 1 6.286930 3.139590 9.432130 -0.004800 
177 1 4.715620 1.569370 11.006400 -0.003200 
104 1 7.861960 1.571780 7.861440 -0.001900 
106 1 11.007000 1.572450 7.861330 -0.002000 
158 1 9.435020 3.143720 9.434050 0.000300 
178 1 7.861440 1.569610 11.006700 -0.002700 
151 1 9.434550 0.000271 9.434220 -0.001800 
108 1 14.151900 1.571780 7.861440 -0.001900 
159 1 12.578900 3.143720 9.434050 0.000300 
179 1 11.007000 1.572490 11.006800 0.000600 
180 1 14.152500 1.569610 11.006700 -0.002700 
152 1 12.579400 0.000271 9.434220 -0.001800 
110 1 17.298000 1.570010 7.860650 -0.003900 
160 1 15.727000 3.139590 9.432130 -0.004800 
181 1 17.298300 1.569370 11.006400 -0.003200 
112 1 20.442100 1.570550 7.861200 -0.003600 
161 1 18.871100 3.141760 9.433190 -0.003800 
182 1 20.442200 1.570080 11.006600 -0.003200 
114 1 1.570900 4.714960 7.860430 -0.004200 
163 1 3.140320 6.286430 9.432280 -0.004600 
183 1 1.570770 4.714360 11.006200 -0.003600 
116 1 4.712350 4.711790 7.857220 -0.007100 
164 1 6.275960 6.275700 9.422020 -0.014300 
184 1 4.712450 4.711730 11.005200 -0.004200 
118 1 7.861460 4.714730 7.860230 -0.001000 
185 1 7.857360 4.706650 11.004400 -0.005900 
165 1 9.436380 6.286780 9.433910 0.007000 
187 1 14.156500 4.706650 11.004400 -0.005900 
166 1 12.577500 6.286780 9.433910 0.007000 
120 1 11.007000 4.716340 7.860600 0.000700 
122 1 14.152400 4.714730 7.860230 -0.001000 
188 1 17.301500 4.711730 11.005200 -0.004200 
167 1 15.737900 6.275700 9.422020 -0.014300 
124 1 17.301500 4.711790 7.857220 -0.007100 
189 1 20.443100 4.714360 11.006200 -0.003600 
168 1 18.873600 6.286430 9.432280 -0.004600 
126 1 20.443000 4.714960 7.860430 -0.004200 
162 1 22.013900 6.287890 9.433570 -0.003500 
190 1 1.570490 7.860650 11.006600 -0.002900 
170 1 3.141530 9.433880 9.432930 -0.001800 
169 1 0.000000 9.433970 9.433840 -0.002300 
128 1 1.570970 7.861090 7.860730 -0.002800 
442 1 1.571170 11.006900 7.860940 -0.002500 
191 1 4.708220 7.857690 11.005200 -0.002800 
171 1 6.279740 9.433120 9.428450 -0.004300 
130 1 4.712590 7.859910 7.858560 -0.003300 
513 1 4.715420 11.005700 11.006400 0.006300 
192 1 7.824030 7.821210 10.973500 -0.035900 
172 1 9.409790 9.419980 9.426030 0.020400 
132 1 7.854300 7.855580 7.851030 -0.009200 
194 1 14.189900 7.821210 10.973500 -0.035900 
173 1 12.604100 9.419980 9.426030 0.020400 
134 1 11.007000 7.864760 7.864460 0.013900 
136 1 14.159600 7.855580 7.851030 -0.009200 
174 1 15.734200 9.433120 9.428450 -0.004300 
195 1 17.305700 7.857690 11.005200 -0.002800 
138 1 17.301300 7.859910 7.858560 -0.003300 
517 1 17.298500 11.005700 11.006400 0.006300 
175 1 18.872400 9.433880 9.432930 -0.001800 
196 1 20.443400 7.860650 11.006600 -0.002900 
140 1 20.442900 7.861090 7.860730 -0.002800 
448 1 20.442700 11.006900 7.860940 -0.002500 
198 1 1.571720 1.570080 14.152200 -0.003200 
211 1 0.000000 3.142190 12.579400 -0.003400 
213 1 3.142750 3.141450 12.579400 -0.003400 
200 1 4.715620 1.569370 14.152400 -0.003200 
215 1 6.286430 3.139160 12.579400 -0.003400 
202 1 7.861440 1.569610 14.152100 -0.002700 
217 1 9.434570 3.142830 12.579400 0.000900 
204 1 11.007000 1.572490 14.152000 0.000600 
206 1 14.152500 1.569610 14.152100 -0.002700 
219 1 12.579300 3.142830 12.579400 0.000900 
208 1 17.298300 1.569370 14.152400 -0.003200 
221 1 15.727500 3.139160 12.579400 -0.003400 
210 1 20.442200 1.570080 14.152200 -0.003200 
223 1 18.871200 3.141450 12.579400 -0.003400 
212 1 1.570770 4.714360 14.152500 -0.003600 
225 1 0.000000 6.287370 12.579400 -0.003500 
227 1 3.140170 6.285580 12.579400 -0.003500 
214 1 4.712450 4.711730 14.153500 -0.004200 
229 1 6.278340 6.277820 12.579400 -0.009000 
216 1 7.857360 4.706650 14.154400 -0.005900 
231 1 9.426200 6.282560 12.579400 0.014200 
186 1 11.007000 4.720520 11.007700 0.014400 
218 1 11.007000 4.720520 14.151100 0.014400 
220 1 14.156500 4.706650 14.154400 -0.005900 
233 1 12.587700 6.282560 12.579400 0.014200 
222 1 17.301500 4.711730 14.153500 -0.004200 
235 1 15.735600 6.277820 12.579400 -0.009000 
224 1 20.443100 4.714360 14.152500 -0.003600 
237 1 18.873700 6.285580 12.579400 -0.003500 
540 1 1.571840 11.006300 14.151800 -0.000600 
226 1 1.570490 7.860650 14.152100 -0.002900 
239 1 0.000000 9.433710 12.579400 -0.001100 
240 1 3.143800 9.433300 12.579400 0.003100 
512 1 1.571840 11.006300 11.007000 -0.000600 
541 1 4.715420 11.005700 14.152300 0.006300 
228 1 4.708220 7.857690 14.153500 -0.002800 
241 1 6.292670 9.428700 12.579400 -0.044600 
193 1 11.007000 7.885400 11.016600 0.179100 
230 1 7.824030 7.821210 14.185300 -0.035900 
232 1 11.007000 7.885400 14.142100 0.179100 
242 1 9.202390 9.357550 12.579400 0.307200 
687 3 11.007000 10.220700 12.579400 0.000000 
234 1 14.189900 7.821210 14.185300 -0.035900 
243 1 12.811500 9.357550 12.579400 0.307200 
545 1 17.298500 11.005700 14.152300 0.006300 
236 1 17.305700 7.857690 14.153500 -0.002800 
244 1 15.721200 9.428700 12.579400 -0.044600 
546 1 20.442100 11.006300 14.151800 -0.000600 
518 1 20.442100 11.006300 11.007000 -0.000600 
238 1 20.443400 7.860650 14.152100 -0.002900 
245 1 18.870100 9.433300 12.579400 0.003100 
247 1 1.571800 1.570550 17.297500 -0.003600 
260 1 0.000000 3.142450 15.725100 -0.003500 
262 1 3.142840 3.141760 15.725600 -0.003800 
249 1 4.715870 1.570010 17.298100 -0.003900 
264 1 6.286930 3.139590 15.726600 -0.004800 
252 1 9.434550 0.000271 15.724500 -0.001800 
251 1 7.861960 1.571780 17.297300 -0.001900 
253 1 11.007000 1.572450 17.297400 -0.002000 
266 1 9.435020 3.143720 15.724700 0.000300 
254 1 12.579400 0.000271 15.724500 -0.001800 
255 1 14.151900 1.571780 17.297300 -0.001900 
268 1 12.578900 3.143720 15.724700 0.000300 
257 1 17.298000 1.570010 17.298100 -0.003900 
270 1 15.727000 3.139590 15.726600 -0.004800 
259 1 20.442100 1.570550 17.297500 -0.003600 
272 1 18.871100 3.141760 15.725600 -0.003800 
261 1 1.570900 4.714960 17.298300 -0.004200 
276 1 3.140320 6.286430 15.726500 -0.004600 
263 1 4.712350 4.711790 17.301500 -0.007100 
278 1 6.275960 6.275700 15.736700 -0.014300 
265 1 7.861460 4.714730 17.298500 -0.001000 
280 1 9.436380 6.286780 15.724800 0.007000 
267 1 11.007000 4.716340 17.298100 0.000700 
269 1 14.152400 4.714730 17.298500 -0.001000 
282 1 12.577500 6.286780 15.724800 0.007000 
271 1 17.301500 4.711790 17.301500 -0.007100 
284 1 15.737900 6.275700 15.736700 -0.014300 
273 1 20.443000 4.714960 17.298300 -0.004200 
274 1 22.013900 6.287890 15.725200 -0.003500 
286 1 18.873600 6.286430 15.726500 -0.004600 
275 1 1.570970 7.861090 17.298000 -0.002800 
288 1 0.000000 9.433970 15.724900 -0.002300 
289 1 3.141530 9.433880 15.725800 -0.001800 
589 1 1.571170 11.006900 17.297800 -0.002500 
277 1 4.712590 7.859910 17.300200 -0.003300 
290 1 6.279740 9.433120 15.730300 -0.004300 
279 1 7.854300 7.855580 17.307700 -0.009200 
291 1 9.409790 9.419980 15.732700 0.020400 
281 1 11.007000 7.864760 17.294300 0.013900 
283 1 14.159600 7.855580 17.307700 -0.009200 
292 1 12.604100 9.419980 15.732700 0.020400 
285 1 17.301300 7.859910 17.300200 -0.003300 
293 1 15.734200 9.433120 15.730300 -0.004300 
287 1 20.442900 7.861090 17.298000 -0.002800 
294 1 18.872400 9.433880 15.725800 -0.001800 
595 1 20.442700 11.006900 17.297800 -0.002500 
296 1 1.571940 1.571300 20.442400 -0.004100 
309 1 0.000000 3.143090 18.870400 -0.004100 
311 1 3.143150 3.142470 18.871100 -0.004700 
298 1 4.716710 1.571910 20.442400 -0.003400 
299 1 6.289200 0.000259 18.869800 -0.002900 
313 1 6.288970 3.143420 18.870600 -0.002800 
301 1 9.434360 0.001020 18.869800 -0.002600 
300 1 7.861950 1.572810 20.442100 -0.002400 
315 1 9.434470 3.144660 18.869900 -0.001500 
303 1 12.579500 0.001020 18.869800 -0.002600 
317 1 12.579400 3.144660 18.869900 -0.001500 
302 1 11.007000 1.573150 20.442100 -0.002400 
304 1 14.151900 1.572810 20.442100 -0.002400 
319 1 15.724900 3.143420 18.870600 -0.002800 
305 1 15.724700 0.000259 18.869800 -0.002900 
306 1 17.297200 1.571910 20.442400 -0.003400 
321 1 18.870700 3.142470 18.871100 -0.004700 
308 1 20.442000 1.571300 20.442400 -0.004100 
325 1 3.142810 6.288070 18.871100 -0.003600 
323 1 0.000000 6.288540 18.870300 -0.003200 
310 1 1.571770 4.716100 20.442600 -0.003600 
327 1 6.286140 6.286230 18.874300 -0.005700 
312 1 4.715700 4.715580 20.443800 -0.004300 
316 1 11.007000 4.717460 20.442200 -0.001400 
329 1 9.435000 6.289740 18.869800 0.001900 
314 1 7.862130 4.717120 20.442400 -0.001300 
318 1 14.151800 4.717120 20.442400 -0.001300 
331 1 12.578900 6.289740 18.869800 0.001900 
320 1 17.298200 4.715580 20.443800 -0.004300 
333 1 15.727800 6.286230 18.874300 -0.005700 
322 1 20.442100 4.716100 20.442600 -0.003600 
335 1 18.871100 6.288070 18.871100 -0.003600 
324 1 1.571730 7.861530 20.442600 -0.002900 
338 1 3.142880 9.434130 18.870900 -0.002600 
337 1 0.000000 9.434190 18.870200 -0.002800 
326 1 4.715600 7.861400 20.443500 -0.002800 
339 1 6.286260 9.433980 18.873200 -0.001900 
328 1 7.861380 7.862040 20.444000 -0.002100 
340 1 9.434000 9.435790 18.870900 0.006300 
330 1 11.007000 7.862720 20.441500 0.002000 
341 1 12.579900 9.435790 18.870900 0.006300 
332 1 14.152500 7.862040 20.444000 -0.002100 
342 1 15.727600 9.433980 18.873200 -0.001900 
334 1 17.298300 7.861400 20.443500 -0.002800 
343 1 18.871000 9.434130 18.870900 -0.002600 
336 1 20.442200 7.861530 20.442600 -0.002900 
352 1 1.571880 14.152400 1.572420 -0.003200 
353 1 3.143770 12.579900 0.000690 -0.002900 
402 1 3.143770 12.579900 3.144150 -0.002900 
344 1 1.571920 11.007100 1.572420 -0.003000 
354 1 4.715980 14.152900 1.572420 -0.003200 
355 1 6.288310 12.580400 0.001447 -0.002800 
404 1 6.288310 12.580400 3.143400 -0.002800 
345 1 4.716110 11.007300 1.572420 -0.002800 
356 1 7.861150 14.153600 1.572420 -0.003500 
357 1 9.434190 12.580800 0.001927 -0.002900 
406 1 9.434190 12.580800 3.142920 -0.002900 
347 1 11.007000 11.007800 1.572420 -0.001100 
346 1 7.861410 11.007500 1.572420 -0.002300 
358 1 11.007000 14.154100 1.572420 -0.003500 
359 1 12.579700 12.580800 0.001927 -0.002900 
360 1 14.152800 14.153600 1.572420 -0.003500 
408 1 12.579700 12.580800 3.142920 -0.002900 
348 1 14.152500 11.007500 1.572420 -0.002300 
361 1 15.725600 12.580400 0.001447 -0.002800 
362 1 17.297900 14.152900 1.572420 -0.003200 
410 1 15.725600 12.580400 3.143400 -0.002800 
349 1 17.297800 11.007300 1.572420 -0.002800 
363 1 18.870100 12.579900 0.000690 -0.002900 
364 1 20.442000 14.152400 1.572420 -0.003200 
400 1 22.013900 12.579700 3.144400 -0.003000 
412 1 18.870100 12.579900 3.144150 -0.002900 
350 1 20.442000 11.007100 1.572420 -0.003000 
351 1 22.013900 12.579700 0.000443 -0.003000 
366 1 1.571890 17.297500 1.572420 -0.003900 
367 1 3.143690 15.725400 0.000655 -0.003600 
416 1 3.143690 15.725400 3.144190 -0.003600 
368 1 4.715970 17.298400 1.572420 -0.004100 
369 1 6.288010 15.726500 0.001525 -0.004200 
418 1 6.288010 15.726500 3.143320 -0.004200 
370 1 7.861210 17.299000 1.572420 -0.003500 
371 1 9.433820 15.727100 0.001654 -0.003600 
420 1 9.433820 15.727100 3.143190 -0.003600 
372 1 11.007000 17.299300 1.572420 -0.003400 
373 1 12.580100 15.727100 0.001654 -0.003600 
374 1 14.152700 17.299000 1.572420 -0.003500 
422 1 12.580100 15.727100 3.143190 -0.003600 
375 1 15.725900 15.726500 0.001525 -0.004200 
376 1 17.297900 17.298400 1.572420 -0.004100 
424 1 15.725900 15.726500 3.143320 -0.004200 
377 1 18.870200 15.725400 0.000655 -0.003600 
378 1 20.442000 17.297500 1.572420 -0.003900 
414 1 22.013900 15.724900 3.144470 -0.003500 
426 1 18.870200 15.725400 3.144190 -0.003600 
365 1 22.013900 15.724900 0.000374 -0.003500 
380 1 1.572080 20.441900 1.572420 -0.004200 
381 1 3.143940 18.870200 0.000478 -0.004100 
430 1 3.143940 18.870200 3.144370 -0.004100 
382 1 4.716690 20.442500 1.572420 -0.003600 
383 1 6.288780 18.870900 0.000626 -0.003600 
432 1 6.288780 18.870900 3.144220 -0.003600 
384 1 7.861710 20.443100 1.572420 -0.003100 
385 1 9.434160 18.871400 0.000700 -0.003200 
386 1 11.007000 20.443300 1.572420 -0.003000 
434 1 9.434160 18.871400 3.144140 -0.003200 
387 1 12.579700 18.871400 0.000700 -0.003200 
388 1 14.152200 20.443100 1.572420 -0.003100 
436 1 12.579700 18.871400 3.144140 -0.003200 
389 1 15.725100 18.870900 0.000626 -0.003600 
390 1 17.297200 20.442500 1.572420 -0.003600 
438 1 15.725100 18.870900 3.144220 -0.003600 
379 1 22.013900 18.869600 0.000345 -0.004100 
391 1 18.870000 18.870200 0.000478 -0.004100 
392 1 20.441800 20.441900 1.572420 -0.004200 
428 1 22.013900 18.869600 3.144500 -0.004100 
440 1 18.870000 18.870200 3.144370 -0.004100 
1 1 22.013900 22.013500 0.000337 -0.004200 
50 1 22.013900 22.013500 3.144510 -0.004200 
401 1 1.571650 14.152500 4.716450 -0.003200 
449 1 0.000000 12.579700 6.288780 -0.002800 
451 1 3.142870 12.580100 6.288030 -0.002800 
393 1 1.571710 11.007100 4.716290 -0.002900 
394 1 4.715430 11.007300 4.715300 -0.002600 
403 1 4.715200 14.153400 4.715230 -0.003600 
453 1 6.286130 12.581600 6.285010 -0.003300 
405 1 7.859860 14.155000 4.712750 -0.004600 
455 1 9.432820 12.583800 6.280640 -0.002800 
396 1 11.007000 11.008200 4.716220 0.003100 
395 1 7.860510 11.007600 4.713950 -0.001800 
407 1 11.007000 14.155900 4.712590 -0.003500 
409 1 14.154000 14.155000 4.712750 -0.004600 
457 1 12.581100 12.583800 6.280640 -0.002800 
397 1 14.153400 11.007600 4.713950 -0.001800 
398 1 17.298500 11.007300 4.715300 -0.002600 
411 1 17.298700 14.153400 4.715230 -0.003600 
459 1 15.727800 12.581600 6.285010 -0.003300 
413 1 20.442200 14.152500 4.716450 -0.003200 
461 1 18.871000 12.580100 6.288030 -0.002800 
399 1 20.442200 11.007100 4.716290 -0.002900 
415 1 1.571640 17.297500 4.716550 -0.003900 
463 1 0.000000 15.724800 6.289070 -0.003400 
465 1 3.142550 15.725900 6.288120 -0.004300 
417 1 4.715210 17.299000 4.715580 -0.004700 
467 1 6.284800 15.729700 6.284770 -0.007100 
419 1 7.860770 17.299700 4.715260 -0.003800 
469 1 9.432790 15.729800 6.284870 -0.004200 
421 1 11.007000 17.300000 4.715170 -0.003400 
423 1 14.153100 17.299700 4.715260 -0.003800 
471 1 12.581100 15.729800 6.284870 -0.004200 
425 1 17.298700 17.299000 4.715580 -0.004700 
473 1 15.729100 15.729700 6.284770 -0.007100 
427 1 20.442300 17.297500 4.716550 -0.003900 
475 1 18.871300 15.725900 6.288120 -0.004300 
429 1 1.572010 20.441400 4.716820 -0.003800 
479 1 3.143930 18.869600 6.289140 -0.003400 
101 1 3.144120 22.013000 6.288880 -0.003600 
431 1 4.716460 20.442400 4.716540 -0.003600 
481 1 6.288230 18.871500 6.288290 -0.003900 
433 1 7.861600 20.443100 4.716450 -0.003100 
483 1 9.433940 18.872100 6.288040 -0.003200 
435 1 11.007000 20.443400 4.716410 -0.002900 
437 1 14.152300 20.443100 4.716450 -0.003100 
485 1 12.580000 18.872100 6.288040 -0.003200 
439 1 17.297400 20.442400 4.716540 -0.003600 
487 1 15.725700 18.871500 6.288290 -0.003900 
441 1 20.441900 20.441400 4.716820 -0.003800 
477 1 22.013900 18.869000 6.289420 -0.003200 
489 1 18.870000 18.869600 6.289140 -0.003400 
111 1 18.869800 22.013000 6.288880 -0.003600 
99 1 22.013900 22.012900 6.289110 -0.003600 
450 1 1.571200 14.152200 7.861480 -0.002900 
492 1 3.142330 12.579400 9.433800 -0.002100 
443 1 4.713160 11.007500 7.858690 -0.001900 
452 1 4.711970 14.155200 7.858570 -0.005700 
493 1 6.278610 12.585900 9.426730 -0.009200 
444 1 7.856030 11.008400 7.852160 -0.004300 
454 1 7.849600 14.165800 7.848380 -0.014300 
494 1 9.401050 12.620300 9.396450 -0.035900 
514 1 7.853610 11.021500 10.982200 0.020400 
445 1 11.007000 11.012800 7.865090 -0.044600 
446 1 14.157900 11.008400 7.852160 -0.004300 
456 1 11.007000 14.163700 7.850760 -0.009000 
458 1 14.164300 14.165800 7.848380 -0.014300 
495 1 12.612800 12.620300 9.396450 -0.035900 
522 1 11.007000 14.158900 10.998600 0.014200 
516 1 14.160300 11.021500 10.982200 0.020400 
515 1 11.007000 11.083900 10.774800 0.307200 
447 1 17.300700 11.007500 7.858690 -0.001900 
460 1 17.301900 14.155200 7.858570 -0.005700 
496 1 15.735300 12.585900 9.426730 -0.009200 
462 1 20.442700 14.152200 7.861480 -0.002900 
491 1 22.013900 12.579100 9.434370 -0.002000 
497 1 18.871600 12.579400 9.433800 -0.002100 
464 1 1.571920 17.296700 7.861960 -0.002500 
498 1 0.000000 15.724000 9.434580 -0.001900 
499 1 3.143920 15.724400 9.434550 -0.001300 
526 1 1.572080 17.296200 11.006900 -0.002100 
466 1 4.715760 17.298100 7.861390 -0.002800 
500 1 6.287810 15.726700 9.433890 -0.001000 
527 1 4.716370 17.296800 11.006900 -0.001500 
468 1 7.859710 17.301900 7.859350 -0.004800 
470 1 11.007000 17.302300 7.858850 -0.003400 
501 1 9.431970 15.734800 9.429780 -0.005900 
502 1 12.581900 15.734800 9.429780 -0.005900 
472 1 14.154200 17.301900 7.859350 -0.004800 
503 1 15.726100 15.726700 9.433890 -0.001000 
474 1 17.298100 17.298100 7.861390 -0.002800 
531 1 17.297500 17.296800 11.006900 -0.001500 
504 1 18.870000 15.724400 9.434550 -0.001300 
476 1 20.442000 17.296700 7.861960 -0.002500 
532 1 20.441800 17.296200 11.006900 -0.002100 
506 1 3.144220 18.868700 9.434370 -0.002400 
533 1 1.572070 20.440200 11.006800 -0.002800 
478 1 1.572060 20.440700 7.861780 -0.003100 
149 1 3.144030 22.012200 9.434020 -0.003100 
148 1 0.000000 22.012300 9.434140 -0.003100 
534 1 4.716510 20.440500 11.006800 -0.002600 
507 1 6.289010 18.869700 9.434380 -0.001900 
480 1 4.716520 20.441200 7.861620 -0.002900 
150 1 6.288970 22.012500 9.434020 -0.002800 
508 1 9.434240 18.871900 9.433860 -0.002700 
482 1 7.861600 20.442900 7.861400 -0.002800 
509 1 12.579700 18.871900 9.433860 -0.002700 
484 1 11.007000 20.443400 7.861190 -0.002700 
486 1 14.152300 20.442900 7.861400 -0.002800 
538 1 17.297400 20.440500 11.006800 -0.002600 
510 1 15.724900 18.869700 9.434380 -0.001900 
153 1 15.724900 22.012500 9.434020 -0.002800 
488 1 17.297400 20.441200 7.861620 -0.002900 
511 1 18.869700 18.868700 9.434370 -0.002400 
154 1 18.869900 22.012200 9.434020 -0.003100 
505 1 22.013900 18.868400 9.434430 -0.002600 
539 1 20.441800 20.440200 11.006800 -0.002800 
490 1 20.441800 20.440700 7.861780 -0.003100 
519 1 1.572090 14.151400 11.007100 -0.000900 
547 1 0.000000 12.578900 12.579400 -0.000600 
548 1 1.572090 14.151400 14.151700 -0.000900 
549 1 3.144820 12.578800 12.579400 0.002000 
520 1 4.716520 14.151700 11.007400 0.001900 
550 1 4.716520 14.151700 14.151300 0.001900 
551 1 6.292040 12.576700 12.579400 0.013900 
521 1 7.861490 14.154700 11.008800 0.007000 
542 1 7.853610 11.021500 14.176500 0.020400 
552 1 7.861490 14.154700 14.149900 0.007000 
553 1 9.444220 12.556100 12.579400 0.179100 
523 1 14.152400 14.154700 11.008800 0.007000 
543 1 11.007000 11.083900 14.383900 0.307200 
544 1 14.160300 11.021500 14.176500 0.020400 
554 1 11.007000 14.158900 14.160100 0.014200 
555 1 12.569700 12.556100 12.579400 0.179100 
556 1 14.152400 14.154700 14.149900 0.007000 
524 1 17.297400 14.151700 11.007400 0.001900 
557 1 15.721900 12.576700 12.579400 0.013900 
558 1 17.297400 14.151700 14.151300 0.001900 
525 1 20.441800 14.151400 11.007100 -0.000900 
559 1 18.869100 12.578800 12.579400 0.002000 
560 1 20.441800 14.151400 14.151700 -0.000900 
561 1 0.000000 15.723800 12.579400 -0.001800 
562 1 1.572080 17.296200 14.151800 -0.002100 
563 1 3.144160 15.724000 12.579400 -0.001400 
564 1 4.716370 17.296800 14.151900 -0.001500 
565 1 6.288170 15.725100 12.579400 0.000700 
528 1 7.861630 17.297800 11.007400 0.000300 
566 1 7.861630 17.297800 14.151300 0.000300 
567 1 9.435230 15.721000 12.579400 0.014400 
529 1 11.007000 17.298700 11.007000 0.000900 
530 1 14.152300 17.297800 11.007400 0.000300 
568 1 11.007000 17.298700 14.151700 0.000900 
569 1 12.578700 15.721000 12.579400 0.014400 
570 1 14.152300 17.297800 14.151300 0.000300 
571 1 15.725700 15.725100 12.579400 0.000700 
572 1 17.297500 17.296800 14.151900 -0.001500 
573 1 18.869700 15.724000 12.579400 -0.001400 
574 1 20.441800 17.296200 14.151800 -0.002100 
197 1 0.000000 22.012100 12.579400 -0.003000 
199 1 3.143990 22.012000 12.579400 -0.002900 
576 1 1.572070 20.440200 14.151900 -0.002800 
577 1 3.144270 18.868300 12.579400 -0.002400 
201 1 6.288770 22.011900 12.579400 -0.002700 
578 1 4.716510 20.440500 14.152000 -0.002600 
579 1 6.288900 18.869000 12.579400 -0.002000 
203 1 9.434580 22.013300 12.579400 -0.001200 
535 1 7.861800 20.441200 11.007000 -0.001800 
536 1 11.007000 20.442100 11.007000 -0.001200 
580 1 7.861800 20.441200 14.151800 -0.001800 
581 1 9.434350 18.869000 12.579400 0.000600 
582 1 11.007000 20.442100 14.151700 -0.001200 
205 1 12.579300 22.013300 12.579400 -0.001200 
537 1 14.152100 20.441200 11.007000 -0.001800 
583 1 12.579600 18.869000 12.579400 0.000600 
584 1 14.152100 20.441200 14.151800 -0.001800 
207 1 15.725100 22.011900 12.579400 -0.002700 
585 1 15.725000 18.869000 12.579400 -0.002000 
586 1 17.297400 20.440500 14.152000 -0.002600 
209 1 18.869900 22.012000 12.579400 -0.002900 
575 1 22.013900 18.868100 12.579400 -0.002500 
587 1 18.869600 18.868300 12.579400 -0.002400 
588 1 20.441800 20.440200 14.151900 -0.002800 
597 1 1.571200 14.152200 17.297300 -0.002900 
598 1 3.142330 12.579400 15.724900 -0.002100 
590 1 4.713160 11.007500 17.300100 -0.001900 
599 1 4.711970 14.155200 17.300200 -0.005700 
600 1 6.278610 12.585900 15.732000 -0.009200 
591 1 7.856030 11.008400 17.306600 -0.004300 
601 1 7.849600 14.165800 17.310400 -0.014300 
602 1 9.401050 12.620300 15.762300 -0.035900 
592 1 11.007000 11.012800 17.293700 -0.044600 
593 1 14.157900 11.008400 17.306600 -0.004300 
603 1 11.007000 14.163700 17.308000 -0.009000 
604 1 12.612800 12.620300 15.762300 -0.035900 
605 1 14.164300 14.165800 17.310400 -0.014300 
594 1 17.300700 11.007500 17.300100 -0.001900 
606 1 15.735300 12.585900 15.732000 -0.009200 
607 1 17.301900 14.155200 17.300200 -0.005700 
596 1 22.013900 12.579100 15.724400 -0.002000 
608 1 18.871600 12.579400 15.724900 -0.002100 
609 1 20.442700 14.152200 17.297300 -0.002900 
610 1 0.000000 15.724000 15.724200 -0.001900 
611 1 1.571920 17.296700 17.296800 -0.002500 
612 1 3.143920 15.724400 15.724200 -0.001300 
613 1 4.715760 17.298100 17.297400 -0.002800 
614 1 6.287810 15.726700 15.724900 -0.001000 
615 1 7.859710 17.301900 17.299400 -0.004800 
616 1 9.431970 15.734800 15.729000 -0.005900 
617 1 11.007000 17.302300 17.299900 -0.003400 
618 1 12.581900 15.734800 15.729000 -0.005900 
619 1 14.154200 17.301900 17.299400 -0.004800 
620 1 15.726100 15.726700 15.724900 -0.001000 
621 1 17.298100 17.298100 17.297400 -0.002800 
622 1 18.870000 15.724400 15.724200 -0.001300 
623 1 20.442000 17.296700 17.296800 -0.002500 
246 1 0.000000 22.012300 15.724600 -0.003100 
248 1 3.144030 22.012200 15.724700 -0.003100 
625 1 1.572060 20.440700 17.297000 -0.003100 
626 1 3.144220 18.868700 15.724400 -0.002400 
250 1 6.288970 22.012500 15.724700 -0.002800 
627 1 4.716520 20.441200 17.297100 -0.002900 
628 1 6.289010 18.869700 15.724400 -0.001900 
629 1 7.861600 20.442900 17.297300 -0.002800 
630 1 9.434240 18.871900 15.724900 -0.002700 
631 1 11.007000 20.443400 17.297600 -0.002700 
632 1 12.579700 18.871900 15.724900 -0.002700 
633 1 14.152300 20.442900 17.297300 -0.002800 
256 1 15.724900 22.012500 15.724700 -0.002800 
634 1 15.724900 18.869700 15.724400 -0.001900 
635 1 17.297400 20.441200 17.297100 -0.002900 
258 1 18.869900 22.012200 15.724700 -0.003100 
624 1 22.013900 18.868400 15.724300 -0.002600 
636 1 18.869700 18.868700 15.724400 -0.002400 
637 1 20.441800 20.440700 17.297000 -0.003100 
638 1 1.571710 11.007100 20.442500 -0.002900 
645 1 0.000000 12.579700 18.870000 -0.002800 
646 1 1.571650 14.152500 20.442300 -0.003200 
647 1 3.142870 12.580100 18.870700 -0.002800 
639 1 4.715430 11.007300 20.443400 -0.002600 
648 1 4.715200 14.153400 20.443500 -0.003600 
649 1 6.286130 12.581600 18.873700 -0.003300 
640 1 7.860510 11.007600 20.444800 -0.001800 
641 1 11.007000 11.008200 20.442500 0.003100 
650 1 7.859860 14.155000 20.446000 -0.004600 
651 1 9.432820 12.583800 18.878100 -0.002800 
652 1 11.007000 14.155900 20.446200 -0.003500 
653 1 12.581100 12.583800 18.878100 -0.002800 
654 1 14.154000 14.155000 20.446000 -0.004600 
642 1 14.153400 11.007600 20.444800 -0.001800 
643 1 17.298500 11.007300 20.443400 -0.002600 
655 1 15.727800 12.581600 18.873700 -0.003300 
656 1 17.298700 14.153400 20.443500 -0.003600 
657 1 18.871000 12.580100 18.870700 -0.002800 
658 1 20.442200 14.152500 20.442300 -0.003200 
644 1 20.442200 11.007100 20.442500 -0.002900 
659 1 0.000000 15.724800 18.869700 -0.003400 