ITEM: TIMESTEP
0
ITEM: NUMBER OF ATOMS
687
ITEM: BOX BOUNDS pp pp pp
0.0000000000000000e+00 2.2013900999999997e+01
0.0000000000000000e+00 2.2013900999999997e+01
0.0000000000000000e+00 2.2013900999999997e+01
ITEM: ATOMS id type x y z c_pot
2 1 1.572280 1.572350 1.572190 0.000170 
52 1 3.144580 0.000000 3.144460 0.000180 
66 1 3.144530 3.144590 3.144410 0.000180 
4 1 4.717140 1.572350 1.572160 0.000140 
54 1 6.289530 0.000000 3.144460 0.000140 
68 1 6.289520 3.144620 3.144420 0.000130 
6 1 7.862070 1.572360 1.572170 0.000120 
56 1 9.434530 0.000000 3.144470 0.000120 
70 1 9.434530 3.144610 3.144460 0.000100 
8 1 11.007000 1.572360 1.572170 0.000120 
10 1 14.151900 1.572350 1.572160 0.000140 
58 1 12.579500 0.000000 3.144460 0.000140 
72 1 12.579500 3.144620 3.144420 0.000130 
12 1 17.296800 1.572350 1.572190 0.000170 
60 1 15.724500 0.000000 3.144460 0.000180 
74 1 15.724500 3.144590 3.144410 0.000180 
14 1 20.441500 1.572360 1.572240 0.000170 
50 1 22.013800 0.000000 3.144600 0.000170 
62 1 18.869200 0.000000 3.144600 0.000170 
64 1 22.013800 3.144680 3.144550 0.000170 
76 1 18.869200 3.144680 3.144550 0.000170 
16 1 1.572290 4.717150 1.572200 0.000150 
80 1 3.144550 6.289450 3.144430 0.000130 
18 1 4.717110 4.717110 1.572120 0.000130 
82 1 6.289460 6.289410 3.144310 0.000090 
20 1 7.862070 4.717130 1.572180 0.000080 
84 1 9.434530 6.289390 3.144520 -0.000010 
22 1 11.007000 4.717130 1.572180 0.000080 
24 1 14.151900 4.717110 1.572120 0.000130 
86 1 12.579600 6.289410 3.144310 0.000090 
26 1 17.296800 4.717150 1.572200 0.000150 
88 1 15.724500 6.289450 3.144430 0.000130 
28 1 20.441500 4.717170 1.572240 0.000150 
78 1 22.013800 6.289540 3.144550 0.000140 
90 1 18.869200 6.289540 3.144550 0.000140 
30 1 1.572310 7.862050 1.572240 0.000110 
93 1 3.144590 9.434460 3.144530 0.000080 
32 1 4.717120 7.862020 1.572170 0.000090 
94 1 6.289430 9.434440 3.144420 0.000020 
34 1 7.862110 7.862060 1.572260 0.000030 
95 1 9.434530 9.434470 3.144860 -0.000150 
36 1 11.007000 7.862060 1.572260 0.000030 
38 1 14.151900 7.862020 1.572170 0.000090 
96 1 12.579600 9.434440 3.144420 0.000020 
40 1 17.296700 7.862050 1.572240 0.000110 
97 1 15.724500 9.434460 3.144530 0.000080 
42 1 20.441500 7.862050 1.572270 0.000120 
92 1 22.013800 9.434480 3.144580 0.000110 
98 1 18.869200 9.434480 3.144580 0.000110 
51 1 1.572190 1.572290 4.716960 0.000160 
101 1 3.144510 0.000000 6.289400 0.000160 
115 1 3.144390 3.144450 6.289340 0.000160 
53 1 4.716830 1.572140 4.716730 0.000200 
103 1 6.289260 0.000000 6.289170 0.000210 
117 1 6.288960 3.143820 6.288890 0.000250 
55 1 7.861960 1.572180 4.716770 0.000130 
105 1 9.434530 0.000000 6.289200 0.000160 
119 1 9.434530 3.143940 6.289090 0.000110 
57 1 11.007100 1.572180 4.716770 0.000130 
59 1 14.152200 1.572140 4.716730 0.000200 
107 1 12.579800 0.000000 6.289170 0.000210 
121 1 12.580100 3.143820 6.288890 0.000250 
61 1 17.296900 1.572290 4.716960 0.000160 
109 1 15.724600 0.000000 6.289400 0.000160 
123 1 15.724700 3.144450 6.289340 0.000160 
63 1 20.441500 1.572320 4.717020 0.000160 
99 1 22.013800 0.000000 6.289480 0.000150 
111 1 18.869200 0.000000 6.289480 0.000150 
113 1 22.013700 3.144600 6.289430 0.000160 
125 1 18.869200 3.144600 6.289430 0.000160 
65 1 1.572050 4.716920 4.716830 0.000180 
129 1 3.143910 6.288980 6.289020 0.000200 
67 1 4.716540 4.716520 4.716460 0.000220 
131 1 6.287840 6.287630 6.287930 0.000380 
69 1 7.861940 4.716730 4.716690 0.000070 
133 1 9.434530 6.288420 6.289250 -0.000150 
71 1 11.007100 4.716730 4.716690 0.000070 
73 1 14.152500 4.716520 4.716460 0.000220 
135 1 12.581200 6.287630 6.287930 0.000380 
75 1 17.297000 4.716920 4.716830 0.000180 
137 1 15.725100 6.288980 6.289020 0.000200 
77 1 20.441500 4.717000 4.716910 0.000170 
127 1 22.013600 6.289280 6.289260 0.000190 
139 1 18.869400 6.289280 6.289260 0.000190 
79 1 1.572060 7.861890 4.716840 0.000130 
142 1 3.143970 9.434310 6.289140 0.000070 
81 1 4.716620 7.861630 4.716560 0.000110 
143 1 6.288080 9.433840 6.288270 0.000100 
83 1 7.861970 7.861740 4.716590 -0.000080 
144 1 9.434530 9.434930 6.290570 0.000220 
85 1 11.007100 7.861740 4.716590 -0.000080 
87 1 14.152400 7.861630 4.716560 0.000110 
145 1 12.581000 9.433840 6.288270 0.000100 
89 1 17.297000 7.861890 4.716840 0.000130 
146 1 15.725100 9.434310 6.289140 0.000070 
91 1 20.441500 7.861940 4.716920 0.000140 
141 1 22.013600 9.434390 6.289310 0.000130 
147 1 18.869300 9.434390 6.289310 0.000130 
156 1 3.144370 3.144380 9.434460 0.000130 
149 1 3.144480 0.000000 9.434480 0.000140 
100 1 1.572150 1.572250 7.861950 0.000150 
157 1 6.289130 3.143850 9.434480 0.000130 
150 1 6.289280 0.000000 9.434470 0.000160 
102 1 4.716810 1.572110 7.861880 0.000150 
158 1 9.434530 3.142160 9.434430 0.000550 
151 1 9.434530 0.000000 9.434470 0.000310 
104 1 7.861740 1.571650 7.861660 0.000240 
152 1 12.579800 0.000000 9.434470 0.000160 
159 1 12.579900 3.143850 9.434480 0.000130 
106 1 11.007300 1.571650 7.861660 0.000240 
108 1 14.152200 1.572110 7.861880 0.000150 
153 1 15.724600 0.000000 9.434480 0.000140 
160 1 15.724700 3.144380 9.434460 0.000130 
110 1 17.296900 1.572250 7.861950 0.000150 
155 1 22.013700 3.144560 9.434470 0.000140 
154 1 18.869200 0.000000 9.434480 0.000140 
161 1 18.869200 3.144560 9.434470 0.000140 
148 1 22.013800 0.000000 9.434480 0.000140 
112 1 20.441500 1.572290 7.861970 0.000150 
163 1 3.143970 6.288860 9.434390 0.000080 
114 1 1.571990 4.716800 7.861870 0.000150 
164 1 6.288840 6.287830 9.434590 -0.000100 
116 1 4.716520 4.716400 7.861790 0.000120 
165 1 9.434530 6.278080 9.434010 0.002110 
118 1 7.860860 4.714350 7.860800 0.000320 
166 1 12.580200 6.287830 9.434590 -0.000100 
120 1 11.008200 4.714350 7.860800 0.000320 
122 1 14.152500 4.716400 7.861790 0.000120 
167 1 15.725100 6.288860 9.434390 0.000080 
124 1 17.297100 4.716800 7.861870 0.000150 
168 1 18.869400 6.289220 9.434400 0.000150 
162 1 22.013600 6.289220 9.434400 0.000150 
126 1 20.441500 4.716920 7.861900 0.000150 
170 1 3.142350 9.433420 9.433680 0.000160 
128 1 1.571440 7.861450 7.861560 0.000220 
171 1 6.286620 9.431730 9.432200 -0.001240 
130 1 4.715160 7.860720 7.861110 0.000250 
191 1 4.715410 7.861270 11.006900 -0.000100 
172 1 9.434530 9.382350 9.413060 0.157290 
132 1 7.856670 7.856420 7.857580 0.001570 
173 1 12.582400 9.431730 9.432200 -0.001240 
134 1 11.012400 7.856420 7.857580 0.001570 
136 1 14.153900 7.860720 7.861110 0.000250 
194 1 14.153600 7.861270 11.006900 -0.000100 
174 1 15.726700 9.433420 9.433680 0.000160 
138 1 17.297600 7.861450 7.861560 0.000220 
175 1 18.869800 9.434160 9.434250 0.000220 
169 1 22.013200 9.434160 9.434250 0.000220 
140 1 20.441500 7.861700 7.861740 0.000200 
176 1 1.572140 1.572250 11.007000 0.000140 
198 1 1.572180 1.572260 14.152000 0.000160 
199 1 3.144500 0.000000 12.579600 0.000150 
213 1 3.144370 3.144410 12.579600 0.000150 
200 1 4.716860 1.572120 14.152200 0.000190 
201 1 6.289280 0.000000 12.579700 0.000200 
215 1 6.289030 3.143860 12.579900 0.000220 
177 1 4.716800 1.572100 11.007100 0.000150 
178 1 7.861740 1.571690 11.007200 0.000220 
202 1 7.861960 1.572130 14.152200 0.000130 
203 1 9.434530 0.000000 12.579700 0.000150 
217 1 9.434530 3.143920 12.579700 0.000110 
179 1 11.007300 1.571690 11.007200 0.000220 
204 1 11.007100 1.572130 14.152200 0.000130 
205 1 12.579800 0.000000 12.579700 0.000200 
206 1 14.152200 1.572120 14.152200 0.000190 
219 1 12.580000 3.143860 12.579900 0.000220 
180 1 14.152300 1.572100 11.007100 0.000150 
181 1 17.296900 1.572250 11.007000 0.000140 
207 1 15.724600 0.000000 12.579600 0.000150 
208 1 17.296900 1.572260 14.152000 0.000160 
221 1 15.724700 3.144410 12.579600 0.000150 
197 1 22.013800 0.000000 12.579500 0.000150 
209 1 18.869200 0.000000 12.579500 0.000150 
210 1 20.441500 1.572300 14.152000 0.000150 
211 1 22.013700 3.144570 12.579500 0.000150 
223 1 18.869200 3.144570 12.579500 0.000150 
182 1 20.441500 1.572280 11.007000 0.000140 
183 1 1.571960 4.716790 11.007000 0.000130 
212 1 1.572030 4.716810 14.152100 0.000160 
227 1 3.143980 6.288940 12.579700 0.000120 
184 1 4.716440 4.716390 11.007100 0.000080 
214 1 4.716560 4.716330 14.152500 0.000200 
229 1 6.288300 6.287580 12.580400 0.000250 
185 1 7.861000 4.714770 11.007800 0.000160 
216 1 7.861890 4.716390 14.152300 0.000070 
231 1 9.434530 6.287810 12.579500 -0.000210 
186 1 11.008100 4.714770 11.007800 0.000160 
187 1 14.152600 4.716390 11.007100 0.000080 
218 1 11.007200 4.716390 14.152300 0.000070 
220 1 14.152500 4.716330 14.152500 0.000200 
233 1 12.580800 6.287580 12.580400 0.000250 
188 1 17.297100 4.716790 11.007000 0.000130 
222 1 17.297000 4.716810 14.152100 0.000160 
235 1 15.725100 6.288940 12.579700 0.000120 
189 1 20.441500 4.716900 11.007000 0.000140 
224 1 20.441500 4.716930 14.152100 0.000160 
225 1 22.013600 6.289240 12.579600 0.000150 
237 1 18.869400 6.289240 12.579600 0.000150 
226 1 1.571390 7.861380 14.152600 0.000250 
240 1 3.141930 9.433280 12.580700 0.000320 
190 1 1.571420 7.861550 11.007000 0.000130 
228 1 4.715210 7.860260 14.153500 0.000380 
241 1 6.284000 9.429090 12.583900 0.001570 
192 1 7.859310 7.859040 11.009300 -0.001240 
230 1 7.861420 7.860510 14.153200 0.000100 
242 1 9.434530 9.430030 12.582900 -0.006490 
193 1 11.009800 7.859040 11.009300 -0.001240 
232 1 11.007600 7.860510 14.153200 0.000100 
234 1 14.153800 7.860260 14.153500 0.000380 
243 1 12.585100 9.429090 12.583900 0.001570 
236 1 17.297700 7.861380 14.152600 0.000250 
244 1 15.727100 9.433280 12.580700 0.000320 
195 1 17.297600 7.861550 11.007000 0.000130 
196 1 20.441500 7.861700 11.007000 0.000160 
238 1 20.441500 7.861680 14.152300 0.000210 
239 1 22.013100 9.434160 12.579800 0.000240 
245 1 18.869800 9.434160 12.579800 0.000240 
247 1 1.572260 1.572300 17.296900 0.000170 
248 1 3.144580 0.000000 15.724600 0.000170 
262 1 3.144490 3.144470 15.724700 0.000180 
249 1 4.717120 1.572310 17.296900 0.000140 
250 1 6.289520 0.000000 15.724600 0.000140 
264 1 6.289470 3.144480 15.724600 0.000130 
251 1 7.862050 1.572320 17.296900 0.000110 
252 1 9.434530 0.000000 15.724500 0.000120 
266 1 9.434530 3.144470 15.724600 0.000090 
253 1 11.007000 1.572320 17.296900 0.000110 
254 1 12.579500 0.000000 15.724600 0.000140 
255 1 14.151900 1.572310 17.296900 0.000140 
268 1 12.579600 3.144480 15.724600 0.000130 
256 1 15.724500 0.000000 15.724600 0.000170 
257 1 17.296800 1.572300 17.296900 0.000170 
270 1 15.724600 3.144470 15.724700 0.000180 
246 1 22.013800 0.000000 15.724500 0.000160 
258 1 18.869200 0.000000 15.724500 0.000160 
259 1 20.441500 1.572320 17.296900 0.000170 
260 1 22.013800 3.144610 15.724500 0.000160 
272 1 18.869200 3.144610 15.724500 0.000160 
261 1 1.572170 4.716950 17.297100 0.000180 
276 1 3.144090 6.288970 15.725000 0.000220 
263 1 4.717030 4.716970 17.297100 0.000130 
278 1 6.289210 6.289040 15.724900 0.000110 
265 1 7.862030 4.717010 17.297000 0.000080 
280 1 9.434530 6.289060 15.724700 0.000010 
267 1 11.007000 4.717010 17.297000 0.000080 
269 1 14.152000 4.716970 17.297100 0.000130 
282 1 12.579800 6.289040 15.724900 0.000110 
271 1 17.296900 4.716950 17.297100 0.000180 
284 1 15.725000 6.288970 15.725000 0.000220 
273 1 20.441500 4.717000 17.297000 0.000180 
274 1 22.013600 6.289260 15.724800 0.000200 
286 1 18.869300 6.289260 15.724800 0.000200 
275 1 1.572200 7.861940 17.297100 0.000130 
289 1 3.144300 9.434360 15.724800 0.000070 
277 1 4.716990 7.861880 17.297200 0.000090 
290 1 6.289320 9.434390 15.724900 -0.000080 
279 1 7.862010 7.861850 17.297100 0.000020 
291 1 9.434530 9.434270 15.724700 -0.000110 
281 1 11.007000 7.861850 17.297100 0.000020 
283 1 14.152100 7.861880 17.297200 0.000090 
292 1 12.579700 9.434390 15.724900 -0.000080 
285 1 17.296900 7.861940 17.297100 0.000130 
293 1 15.724800 9.434360 15.724800 0.000070 
287 1 20.441500 7.861950 17.297000 0.000140 
288 1 22.013700 9.434380 15.724700 0.000130 
294 1 18.869300 9.434380 15.724700 0.000130 
296 1 1.572350 1.572370 20.441500 0.000160 
297 1 3.144750 0.000000 18.869200 0.000150 
311 1 3.144730 3.144710 18.869300 0.000150 
3 1 3.144760 0.000000 22.013800 0.000150 
17 1 3.144750 3.144760 22.013800 0.000140 
298 1 4.717210 1.572380 20.441500 0.000130 
299 1 6.289630 0.000000 18.869200 0.000120 
313 1 6.289620 3.144740 18.869200 0.000110 
5 1 6.289640 0.000000 22.013800 0.000120 
19 1 6.289640 3.144780 22.013800 0.000110 
300 1 7.862090 1.572390 20.441500 0.000110 
301 1 9.434530 0.000000 18.869200 0.000110 
315 1 9.434530 3.144740 18.869200 0.000100 
7 1 9.434530 0.000000 22.013800 0.000120 
21 1 9.434530 3.144780 22.013800 0.000100 
302 1 11.007000 1.572390 20.441500 0.000110 
303 1 12.579400 0.000000 18.869200 0.000120 
304 1 14.151800 1.572380 20.441500 0.000130 
317 1 12.579400 3.144740 18.869200 0.000110 
9 1 12.579400 0.000000 22.013800 0.000120 
23 1 12.579400 3.144780 22.013800 0.000110 
305 1 15.724300 0.000000 18.869200 0.000150 
306 1 17.296700 1.572370 20.441500 0.000160 
319 1 15.724300 3.144710 18.869300 0.000150 
11 1 15.724300 0.000000 22.013800 0.000150 
25 1 15.724300 3.144760 22.013800 0.000140 
295 1 22.013800 0.000000 18.869200 0.000170 
307 1 18.869100 0.000000 18.869200 0.000170 
308 1 20.441500 1.572370 20.441600 0.000170 
309 1 22.013800 3.144710 18.869300 0.000170 
321 1 18.869100 3.144710 18.869300 0.000170 
15 1 22.013900 3.144780 22.013800 0.000160 
27 1 18.869100 3.144780 22.013800 0.000160 
1 1 22.013900 0.000000 22.013800 0.000170 
13 1 18.869100 0.000000 22.013800 0.000170 
310 1 1.572340 4.717170 20.441600 0.000140 
325 1 3.144690 6.289530 18.869400 0.000130 
31 1 3.144760 6.289620 22.013800 0.000120 
312 1 4.717200 4.717180 20.441600 0.000120 
327 1 6.289600 6.289550 18.869300 0.000090 
33 1 6.289650 6.289630 22.013800 0.000090 
314 1 7.862090 4.717190 20.441500 0.000090 
329 1 9.434530 6.289550 18.869300 0.000060 
35 1 9.434530 6.289630 22.013800 0.000070 
316 1 11.007000 4.717190 20.441500 0.000090 
318 1 14.151900 4.717180 20.441600 0.000120 
331 1 12.579500 6.289550 18.869300 0.000090 
37 1 12.579400 6.289630 22.013800 0.000090 
320 1 17.296700 4.717170 20.441600 0.000140 
333 1 15.724400 6.289530 18.869400 0.000130 
39 1 15.724300 6.289620 22.013800 0.000120 
322 1 20.441500 4.717190 20.441600 0.000150 
323 1 22.013800 6.289560 18.869300 0.000140 
335 1 18.869100 6.289560 18.869300 0.000140 
29 1 22.013900 6.289630 22.013900 0.000130 
41 1 18.869100 6.289630 22.013900 0.000130 
324 1 1.572360 7.862060 20.441600 0.000110 
338 1 3.144710 9.434490 18.869300 0.000080 
44 1 3.144770 9.434510 22.013900 0.000090 
339 1 6.289640 9.434530 18.869200 0.000030 
326 1 4.717210 7.862070 20.441600 0.000090 
45 1 6.289660 9.434530 22.013800 0.000050 
340 1 9.434530 9.434530 18.869200 0.000010 
328 1 7.862100 7.862080 20.441500 0.000050 
46 1 9.434530 9.434530 22.013900 0.000020 
341 1 12.579400 9.434530 18.869200 0.000030 
47 1 12.579400 9.434530 22.013800 0.000050 
330 1 11.007000 7.862080 20.441500 0.000050 
332 1 14.151800 7.862070 20.441600 0.000090 
342 1 15.724300 9.434490 18.869300 0.000080 
48 1 15.724300 9.434510 22.013900 0.000090 
334 1 17.296700 7.862060 20.441600 0.000110 
343 1 18.869100 9.434490 18.869300 0.000120 
336 1 20.441500 7.862060 20.441600 0.000120 
337 1 22.013800 9.434490 18.869300 0.000120 
43 1 22.013900 9.434510 22.013900 0.000110 
49 1 18.869100 9.434510 22.013900 0.000110 
344 1 1.572320 11.007000 1.572270 0.000100 
352 1 1.572310 14.151900 1.572240 0.000110 
402 1 3.144590 12.579400 3.144530 0.000080 
345 1 4.717130 11.007000 1.572220 0.000060 
354 1 4.717120 14.151900 1.572170 0.000090 
404 1 6.289430 12.579500 3.144420 0.000020 
346 1 7.862110 11.007000 1.572330 0.000010 
347 1 11.006900 11.007000 1.572330 0.000010 
356 1 7.862110 14.151800 1.572260 0.000030 
406 1 9.434530 12.579400 3.144860 -0.000150 
348 1 14.151900 11.007000 1.572220 0.000060 
358 1 11.007000 14.151800 1.572260 0.000030 
360 1 14.151900 14.151900 1.572170 0.000090 
408 1 12.579600 12.579500 3.144420 0.000020 
349 1 17.296700 11.007000 1.572270 0.000100 
362 1 17.296700 14.151900 1.572240 0.000110 
410 1 15.724500 12.579400 3.144530 0.000080 
350 1 20.441500 11.007000 1.572280 0.000110 
364 1 20.441500 14.151800 1.572270 0.000120 
400 1 22.013800 12.579400 3.144580 0.000110 
412 1 18.869200 12.579400 3.144580 0.000110 
366 1 1.572290 17.296800 1.572200 0.000150 
416 1 3.144550 15.724400 3.144430 0.000130 
368 1 4.717110 17.296800 1.572120 0.000130 
418 1 6.289460 15.724500 3.144310 0.000090 
370 1 7.862070 17.296800 1.572180 0.000080 
420 1 9.434530 15.724500 3.144520 -0.000010 
372 1 11.007000 17.296800 1.572180 0.000080 
374 1 14.151900 17.296800 1.572120 0.000130 
422 1 12.579600 15.724500 3.144310 0.000090 
376 1 17.296800 17.296800 1.572200 0.000150 
424 1 15.724500 15.724400 3.144430 0.000130 
378 1 20.441500 17.296700 1.572240 0.000150 
414 1 22.013800 15.724400 3.144550 0.000140 
426 1 18.869200 15.724400 3.144550 0.000140 
380 1 1.572280 20.441500 1.572190 0.000170 
430 1 3.144530 18.869300 3.144410 0.000180 
382 1 4.717140 20.441500 1.572160 0.000140 
432 1 6.289520 18.869300 3.144420 0.000130 
384 1 7.862070 20.441500 1.572170 0.000120 
434 1 9.434530 18.869300 3.144460 0.000100 
386 1 11.007000 20.441500 1.572170 0.000120 
388 1 14.151900 20.441500 1.572160 0.000140 
436 1 12.579500 18.869300 3.144420 0.000130 
390 1 17.296800 20.441500 1.572190 0.000170 
438 1 15.724500 18.869300 3.144410 0.000180 
392 1 20.441500 20.441500 1.572240 0.000170 
428 1 22.013800 18.869200 3.144550 0.000170 
440 1 18.869200 18.869200 3.144550 0.000170 
393 1 1.572050 11.007000 4.716890 0.000090 
401 1 1.572060 14.152000 4.716840 0.000130 
451 1 3.143970 12.579600 6.289140 0.000070 
394 1 4.716640 11.007000 4.716780 0.000010 
403 1 4.716620 14.152300 4.716560 0.000110 
453 1 6.288080 12.580100 6.288270 0.000100 
395 1 7.861850 11.007000 4.716750 -0.000110 
405 1 7.861970 14.152200 4.716590 -0.000080 
455 1 9.434530 12.579000 6.290570 0.000220 
396 1 11.007200 11.007000 4.716750 -0.000110 
397 1 14.152400 11.007000 4.716780 0.000010 
407 1 11.007100 14.152200 4.716590 -0.000080 
409 1 14.152400 14.152300 4.716560 0.000110 
457 1 12.581000 12.580100 6.288270 0.000100 
398 1 17.297000 11.007000 4.716890 0.000090 
411 1 17.297000 14.152000 4.716840 0.000130 
459 1 15.725100 12.579600 6.289140 0.000070 
399 1 20.441500 11.007000 4.716940 0.000120 
413 1 20.441500 14.152000 4.716920 0.000140 
449 1 22.013600 12.579500 6.289310 0.000130 
461 1 18.869300 12.579500 6.289310 0.000130 
415 1 1.572050 17.297000 4.716830 0.000180 
465 1 3.143910 15.724900 6.289020 0.000200 
417 1 4.716540 17.297400 4.716460 0.000220 
467 1 6.287840 15.726300 6.287930 0.000380 
419 1 7.861940 17.297200 4.716690 0.000070 
469 1 9.434530 15.725500 6.289250 -0.000150 
421 1 11.007100 17.297200 4.716690 0.000070 
423 1 14.152500 17.297400 4.716460 0.000220 
471 1 12.581200 15.726300 6.287930 0.000380 
425 1 17.297000 17.297000 4.716830 0.000180 
473 1 15.725100 15.724900 6.289020 0.000200 
427 1 20.441500 17.296900 4.716910 0.000170 
463 1 22.013600 15.724600 6.289260 0.000190 
475 1 18.869400 15.724600 6.289260 0.000190 
429 1 1.572190 20.441600 4.716960 0.000160 
479 1 3.144390 18.869400 6.289340 0.000160 
431 1 4.716830 20.441800 4.716730 0.000200 
481 1 6.288960 18.870100 6.288890 0.000250 
433 1 7.861960 20.441700 4.716770 0.000130 
483 1 9.434530 18.870000 6.289090 0.000110 
435 1 11.007100 20.441700 4.716770 0.000130 
437 1 14.152200 20.441800 4.716730 0.000200 
485 1 12.580100 18.870100 6.288890 0.000250 
439 1 17.296900 20.441600 4.716960 0.000160 
487 1 15.724700 18.869400 6.289340 0.000160 
441 1 20.441500 20.441600 4.717020 0.000160 
477 1 22.013700 18.869300 6.289430 0.000160 
489 1 18.869200 18.869300 6.289430 0.000160 
492 1 3.142350 12.580500 9.433680 0.000160 
442 1 1.571490 11.007000 7.861770 0.000110 
450 1 1.571440 14.152400 7.861560 0.000220 
493 1 6.286620 12.582200 9.432200 -0.001240 
443 1 4.715390 11.007000 7.861970 -0.000210 
452 1 4.715160 14.153200 7.861110 0.000250 
520 1 4.715410 14.152600 11.006900 -0.000100 
687 2 9.434530 11.007000 10.220700 -0.030950 
494 1 9.434530 12.631600 9.413060 0.157290 
444 1 7.857610 11.007000 7.858590 -0.006490 
454 1 7.856670 14.157500 7.857580 0.001570 
495 1 12.582400 12.582200 9.432200 -0.001240 
445 1 11.011400 11.007000 7.858590 -0.006490 
446 1 14.153700 11.007000 7.861970 -0.000210 
456 1 11.012400 14.157500 7.857580 0.001570 
458 1 14.153900 14.153200 7.861110 0.000250 
523 1 14.153600 14.152600 11.006900 -0.000100 
496 1 15.726700 12.580500 9.433680 0.000160 
447 1 17.297600 11.007000 7.861770 0.000110 
460 1 17.297600 14.152400 7.861560 0.000220 
497 1 18.869800 12.579700 9.434250 0.000220 
448 1 20.441500 11.007000 7.861780 0.000150 
462 1 20.441500 14.152200 7.861740 0.000200 
491 1 22.013200 12.579700 9.434250 0.000220 
499 1 3.143970 15.725000 9.434390 0.000080 
464 1 1.571990 17.297100 7.861870 0.000150 
500 1 6.288840 15.726100 9.434590 -0.000100 
466 1 4.716520 17.297500 7.861790 0.000120 
501 1 9.434530 15.735800 9.434010 0.002110 
468 1 7.860860 17.299500 7.860800 0.000320 
502 1 12.580200 15.726100 9.434590 -0.000100 
470 1 11.008200 17.299500 7.860800 0.000320 
472 1 14.152500 17.297500 7.861790 0.000120 
503 1 15.725100 15.725000 9.434390 0.000080 
474 1 17.297100 17.297100 7.861870 0.000150 
498 1 22.013600 15.724700 9.434400 0.000150 
504 1 18.869400 15.724700 9.434400 0.000150 
476 1 20.441500 17.297000 7.861900 0.000150 
506 1 3.144370 18.869500 9.434460 0.000130 
478 1 1.572150 20.441700 7.861950 0.000150 
507 1 6.289130 18.870100 9.434480 0.000130 
480 1 4.716810 20.441800 7.861880 0.000150 
508 1 9.434530 18.871700 9.434430 0.000550 
482 1 7.861740 20.442300 7.861660 0.000240 
509 1 12.579900 18.870100 9.434480 0.000130 
484 1 11.007300 20.442300 7.861660 0.000240 
486 1 14.152200 20.441800 7.861880 0.000150 
510 1 15.724700 18.869500 9.434460 0.000130 
488 1 17.296900 20.441700 7.861950 0.000150 
511 1 18.869200 18.869300 9.434470 0.000140 
505 1 22.013700 18.869300 9.434470 0.000140 
490 1 20.441500 20.441600 7.861970 0.000150 
540 1 1.571520 11.007000 14.152400 0.000110 
548 1 1.571390 14.152500 14.152600 0.000250 
549 1 3.141930 12.580600 12.580700 0.000320 
519 1 1.571420 14.152300 11.007000 0.000130 
512 1 1.569740 11.007000 11.007100 0.000550 
513 1 4.705660 11.007000 11.007500 0.002110 
541 1 4.716000 11.007000 14.152200 -0.000150 
550 1 4.715210 14.153600 14.153500 0.000380 
551 1 6.284000 12.584800 12.583900 0.001570 
514 1 7.809930 11.007000 11.028400 0.157290 
521 1 7.859310 14.154900 11.009300 -0.001240 
542 1 7.862500 11.007000 14.150900 0.000220 
543 1 11.006600 11.007000 14.150900 0.000220 
552 1 7.861420 14.153400 14.153200 0.000100 
553 1 9.434530 12.583900 12.582900 -0.006490 
515 1 11.059100 11.007000 11.028400 0.157290 
516 1 14.163400 11.007000 11.007500 0.002110 
522 1 11.009800 14.154900 11.009300 -0.001240 
544 1 14.153100 11.007000 14.152200 -0.000150 
554 1 11.007600 14.153400 14.153200 0.000100 
555 1 12.585100 12.584800 12.583900 0.001570 
556 1 14.153800 14.153600 14.153500 0.000380 
545 1 17.297500 11.007000 14.152400 0.000110 
557 1 15.727100 12.580600 12.580700 0.000320 
558 1 17.297700 14.152500 14.152600 0.000250 
524 1 17.297600 14.152300 11.007000 0.000130 
517 1 17.299300 11.007000 11.007100 0.000550 
525 1 20.441500 14.152200 11.007000 0.000160 
546 1 20.441500 11.007000 14.152300 0.000160 
547 1 22.013100 12.579700 12.579800 0.000240 
559 1 18.869800 12.579700 12.579800 0.000240 
560 1 20.441500 14.152200 14.152300 0.000210 
518 1 20.441500 11.007000 11.007000 0.000310 
526 1 1.571960 17.297100 11.007000 0.000130 
562 1 1.572030 17.297100 14.152100 0.000160 
563 1 3.143980 15.725000 12.579700 0.000120 
527 1 4.716440 17.297500 11.007100 0.000080 
564 1 4.716560 17.297600 14.152500 0.000200 
565 1 6.288300 15.726300 12.580400 0.000250 
528 1 7.861000 17.299100 11.007800 0.000160 
566 1 7.861890 17.297500 14.152300 0.000070 
567 1 9.434530 15.726100 12.579500 -0.000210 
529 1 11.008100 17.299100 11.007800 0.000160 
530 1 14.152600 17.297500 11.007100 0.000080 
568 1 11.007200 17.297500 14.152300 0.000070 
569 1 12.580800 15.726300 12.580400 0.000250 
570 1 14.152500 17.297600 14.152500 0.000200 
531 1 17.297100 17.297100 11.007000 0.000130 
571 1 15.725100 15.725000 12.579700 0.000120 
572 1 17.297000 17.297100 14.152100 0.000160 
532 1 20.441500 17.297000 11.007000 0.000140 
561 1 22.013600 15.724700 12.579600 0.000150 
573 1 18.869400 15.724700 12.579600 0.000150 
574 1 20.441500 17.297000 14.152100 0.000160 
533 1 1.572140 20.441700 11.007000 0.000140 
576 1 1.572180 20.441600 14.152000 0.000160 
577 1 3.144370 18.869500 12.579600 0.000150 
578 1 4.716860 20.441800 14.152200 0.000190 
579 1 6.289030 18.870000 12.579900 0.000220 
534 1 4.716800 20.441800 11.007100 0.000150 
535 1 7.861740 20.442200 11.007200 0.000220 
580 1 7.861960 20.441800 14.152200 0.000130 
581 1 9.434530 18.870000 12.579700 0.000110 
536 1 11.007300 20.442200 11.007200 0.000220 
582 1 11.007100 20.441800 14.152200 0.000130 
583 1 12.580000 18.870000 12.579900 0.000220 
584 1 14.152200 20.441800 14.152200 0.000190 
537 1 14.152300 20.441800 11.007100 0.000150 
538 1 17.296900 20.441700 11.007000 0.000140 
585 1 15.724700 18.869500 12.579600 0.000150 
586 1 17.296900 20.441600 14.152000 0.000160 
575 1 22.013700 18.869300 12.579500 0.000150 
587 1 18.869200 18.869300 12.579500 0.000150 
588 1 20.441500 20.441600 14.152000 0.000150 
539 1 20.441500 20.441600 11.007000 0.000140 
589 1 1.572190 11.007000 17.297000 0.000100 
597 1 1.572200 14.152000 17.297100 0.000130 
598 1 3.144300 12.579500 15.724800 0.000070 
590 1 4.716970 11.007000 17.297000 -0.000010 
599 1 4.716990 14.152000 17.297200 0.000090 
600 1 6.289320 12.579500 15.724900 -0.000080 
591 1 7.862040 11.007000 17.296600 -0.000150 
601 1 7.862010 14.152100 17.297100 0.000020 
602 1 9.434530 12.579600 15.724700 -0.000110 
592 1 11.007000 11.007000 17.296600 -0.000150 
593 1 14.152100 11.007000 17.297000 -0.000010 
603 1 11.007000 14.152100 17.297100 0.000020 
604 1 12.579700 12.579500 15.724900 -0.000080 
605 1 14.152100 14.152000 17.297200 0.000090 
594 1 17.296900 11.007000 17.297000 0.000100 
606 1 15.724800 12.579500 15.724800 0.000070 
607 1 17.296900 14.152000 17.297100 0.000130 
595 1 20.441500 11.007000 17.297000 0.000120 
596 1 22.013700 12.579500 15.724700 0.000130 
608 1 18.869300 12.579500 15.724700 0.000130 
609 1 20.441500 14.151900 17.297000 0.000140 
611 1 1.572170 17.296900 17.297100 0.000180 
612 1 3.144090 15.724900 15.725000 0.000220 
613 1 4.717030 17.296900 17.297100 0.000130 
614 1 6.289210 15.724900 15.724900 0.000110 
615 1 7.862030 17.296900 17.297000 0.000080 
616 1 9.434530 15.724800 15.724700 0.000010 
617 1 11.007000 17.296900 17.297000 0.000080 
618 1 12.579800 15.724900 15.724900 0.000110 
619 1 14.152000 17.296900 17.297100 0.000130 
620 1 15.725000 15.724900 15.725000 0.000220 
621 1 17.296900 17.296900 17.297100 0.000180 
610 1 22.013600 15.724600 15.724800 0.000200 
622 1 18.869300 15.724600 15.724800 0.000200 
623 1 20.441500 17.296900 17.297000 0.000180 
625 1 1.572260 20.441600 17.296900 0.000170 
626 1 3.144490 18.869400 15.724700 0.000180 
627 1 4.717120 20.441600 17.296900 0.000140 
628 1 6.289470 18.869400 15.724600 0.000130 
629 1 7.862050 20.441600 17.296900 0.000110 
630 1 9.434530 18.869400 15.724600 0.000090 
631 1 11.007000 20.441600 17.296900 0.000110 
632 1 12.579600 18.869400 15.724600 0.000130 
633 1 14.151900 20.441600 17.296900 0.000140 
634 1 15.724600 18.869400 15.724700 0.000180 
635 1 17.296800 20.441600 17.296900 0.000170 
624 1 22.013800 18.869300 15.724500 0.000160 
636 1 18.869200 18.869300 15.724500 0.000160 
637 1 20.441500 20.441600 17.296900 0.000170 
638 1 1.572360 11.007000 20.441600 0.000100 
646 1 1.572360 14.151800 20.441600 0.000110 
647 1 3.144710 12.579400 18.869300 0.000080 
353 1 3.144770 12.579400 22.013900 0.000090 
639 1 4.717210 11.007000 20.441500 0.000070 
648 1 4.717210 14.151800 20.441600 0.000090 
649 1 6.289640 12.579400 18.869200 0.000030 
355 1 6.289660 12.579400 22.013800 0.000050 
640 1 7.862110 11.007000 20.441500 0.000020 
650 1 7.862100 14.151800 20.441500 0.000050 
651 1 9.434530 12.579400 18.869200 0.000010 
357 1 9.434530 12.579400 22.013900 0.000020 
641 1 11.007000 11.007000 20.441500 0.000020 
642 1 14.151900 11.007000 20.441500 0.000070 
652 1 11.007000 14.151800 20.441500 0.000050 
653 1 12.579400 12.579400 18.869200 0.000030 
654 1 14.151800 14.151800 20.441600 0.000090 
359 1 12.579400 12.579400 22.013800 0.000050 
643 1 17.296700 11.007000 20.441600 0.000100 
655 1 15.724300 12.579400 18.869300 0.000080 
656 1 17.296700 14.151800 20.441600 0.000110 
361 1 15.724300 12.579400 22.013900 0.000090 
644 1 20.441500 11.007000 20.441600 0.000120 
645 1 22.013800 12.579400 18.869300 0.000120 
657 1 18.869100 12.579400 18.869300 0.000120 
658 1 20.441500 14.151800 20.441600 0.000120 
351 1 22.013900 12.579400 22.013900 0.000110 
363 1 18.869100 12.579400 22.013900 0.000110 
660 1 1.572340 17.296700 20.441600 0.000140 
661 1 3.144690 15.724400 18.869400 0.000130 
367 1 3.144760 15.724300 22.013800 0.000120 
662 1 4.717200 17.296700 20.441600 0.000120 
663 1 6.289600 15.724400 18.869300 0.000090 
369 1 6.289650 15.724300 22.013800 0.000090 
664 1 7.862090 17.296700 20.441500 0.000090 
665 1 9.434530 15.724400 18.869300 0.000060 
371 1 9.434530 15.724300 22.013800 0.000070 
666 1 11.007000 17.296700 20.441500 0.000090 
667 1 12.579500 15.724400 18.869300 0.000090 
668 1 14.151900 17.296700 20.441600 0.000120 
373 1 12.579400 15.724300 22.013800 0.000090 
669 1 15.724400 15.724400 18.869400 0.000130 
670 1 17.296700 17.296700 20.441600 0.000140 
375 1 15.724300 15.724300 22.013800 0.000120 
659 1 22.013800 15.724300 18.869300 0.000140 
671 1 18.869100 15.724300 18.869300 0.000140 
672 1 20.441500 17.296700 20.441600 0.000150 
365 1 22.013900 15.724300 22.013900 0.000130 
377 1 18.869100 15.724300 22.013900 0.000130 
674 1 1.572350 20.441500 20.441500 0.000160 
675 1 3.144730 18.869200 18.869300 0.000150 