ITEM: TIMESTEP
0
ITEM: NUMBER OF ATOMS
687
ITEM: BOX BOUNDS pp pp pp
0.0000000000000000e+00 2.2013900999999997e+01
0.0000000000000000e+00 2.2013900999999997e+01
0.0000000000000000e+00 2.2013900999999997e+01
ITEM: ATOMS id type x y z c_pot
2 1 1.57208 1.57186 1.57242 1.83204
17 1 3.14413 3.14395 0.000783043 1.83168
66 1 3.14413 3.14395 3.14406 1.83168
3 1 3.1444 5.45649e-05 0.000412193 1.8315
52 1 3.1444 5.45649e-05 3.14443 1.8315
4 1 4.717 1.57248 1.57242 1.83071
19 1 6.28954 3.14481 0.000496851 1.82995
5 1 6.28935 0.000803383 0.000361307 1.83077
68 1 6.28954 3.14481 3.14435 1.82995
54 1 6.28935 0.000803383 3.14448 1.83077
6 1 7.86201 1.57311 1.57242 1.83031
8 1 11.007 1.57335 1.57242 1.8302
21 1 9.43452 3.14533 0.000339389 1.82982
56 1 9.43441 0.00127606 3.14449 1.8305
70 1 9.43452 3.14533 3.1445 1.82982
7 1 9.43441 0.00127606 0.000351111 1.8305
10 1 14.1519 1.57311 1.57242 1.83031
23 1 12.5794 3.14533 0.000339389 1.82982
58 1 12.5795 0.00127606 3.14449 1.8305
72 1 12.5794 3.14533 3.1445 1.82982
9 1 12.5795 0.00127606 0.000351112 1.8305
12 1 17.2969 1.57248 1.57242 1.83071
25 1 15.7244 3.14481 0.000496853 1.82995
74 1 15.7244 3.14481 3.14435 1.82995
11 1 15.7245 0.000803383 0.000361308 1.83077
60 1 15.7245 0.000803383 3.14448 1.83077
14 1 20.4418 1.57186 1.57242 1.83204
27 1 18.8698 3.14395 0.000783044 1.83168
64 1 22.0139 3.14399 3.14431 1.83154
76 1 18.8698 3.14395 3.14406 1.83168
15 1 22.0139 3.14399 0.000533586 1.83154
13 1 18.8695 5.45655e-05 0.000412193 1.8315
62 1 18.8695 5.45655e-05 3.14443 1.8315
16 1 1.57205 4.71659 1.57242 1.83117
31 1 3.14403 6.28903 0.000768163 1.83089
80 1 3.14403 6.28903 3.14407 1.83089
18 1 4.71665 4.71668 1.57242 1.8305
33 1 6.28905 6.28927 0.00121801 1.82939
82 1 6.28905 6.28927 3.14362 1.82939
20 1 7.86216 4.7175 1.57242 1.8295
22 1 11.007 4.71773 1.57242 1.82936
35 1 9.43464 6.29005 0.000327746 1.82875
84 1 9.43464 6.29005 3.14452 1.82875
24 1 14.1517 4.7175 1.57242 1.8295
37 1 12.5793 6.29005 0.000327745 1.82875
86 1 12.5793 6.29005 3.14452 1.82875
26 1 17.2973 4.71668 1.57242 1.8305
39 1 15.7248 6.28927 0.00121801 1.82939
88 1 15.7248 6.28927 3.14362 1.82939
28 1 20.4419 4.71659 1.57242 1.83117
41 1 18.8699 6.28903 0.000768166 1.83089
78 1 22.0139 6.28906 3.1443 1.83093
90 1 18.8699 6.28903 3.14407 1.83089
29 1 22.0139 6.28906 0.000542779 1.83093
30 1 1.57198 7.86175 1.57242 1.83075
44 1 3.14387 9.43442 0.000712167 1.83059
93 1 3.14387 9.43442 3.14413 1.83059
32 1 4.71636 7.86181 1.57242 1.83049
45 1 6.28852 9.43456 0.00124883 1.83
94 1 6.28852 9.43456 3.14359 1.83
34 1 7.86195 7.86241 1.57242 1.8287
36 1 11.007 7.86261 1.57242 1.82864
46 1 9.43454 9.43522 0.000577 1.82834
95 1 9.43454 9.43522 3.14427 1.82834
38 1 14.152 7.86241 1.57242 1.8287
47 1 12.5794 9.43522 0.000577 1.82834
96 1 12.5794 9.43522 3.14427 1.82834
40 1 17.2975 7.86181 1.57242 1.83049
48 1 15.7254 9.43456 0.00124883 1.83
97 1 15.7254 9.43456 3.14359 1.83
42 1 20.4419 7.86175 1.57242 1.83075
49 1 18.87 9.43442 0.000712169 1.83059
92 1 22.0139 9.43438 3.14434 1.83067
98 1 18.87 9.43442 3.14413 1.83059
43 1 22.0139 9.43438 0.000500871 1.83067
51 1 1.57194 1.5713 4.71636 1.83221
113 1 1.32664e-09 3.14309 6.28839 1.83179
115 1 3.14315 3.14247 6.28763 1.83365
53 1 4.71671 1.57191 4.71635 1.83071
103 1 6.2892 0.000259216 6.28894 1.8302
117 1 6.28897 3.14342 6.28818 1.82957
55 1 7.86195 1.57281 4.71664 1.8302
119 1 9.43447 3.14466 6.2888 1.82975
105 1 9.43436 0.00101958 6.28893 1.83022
57 1 11.007 1.57315 4.71669 1.83009
59 1 14.1519 1.57281 4.71664 1.8302
121 1 12.5794 3.14466 6.2888 1.82975
107 1 12.5795 0.00101958 6.28893 1.83022
61 1 17.2972 1.57191 4.71635 1.83071
109 1 15.7247 0.000259215 6.28894 1.8302
123 1 15.7249 3.14342 6.28818 1.82957
63 1 20.442 1.5713 4.71636 1.83221
125 1 18.8707 3.14247 6.28763 1.83365
65 1 1.57177 4.7161 4.71611 1.83125
127 1 5.40411e-10 6.28854 6.2884 1.8308
129 1 3.14281 6.28807 6.28762 1.83116
67 1 4.7157 4.71558 4.71498 1.83203
131 1 6.28614 6.28623 6.2844 1.83309
69 1 7.86213 4.71712 4.71635 1.82887
71 1 11.007 4.71746 4.71659 1.82897
133 1 9.435 6.28974 6.28894 1.82643
73 1 14.1518 4.71712 4.71635 1.82887
135 1 12.5789 6.28974 6.28894 1.82643
75 1 17.2982 4.71558 4.71498 1.83203
137 1 15.7278 6.28623 6.2844 1.83309
77 1 20.4421 4.7161 4.71611 1.83125
139 1 18.8711 6.28807 6.28762 1.83116
79 1 1.57173 7.86153 4.71619 1.8307
141 1 7.21162e-10 9.43419 6.28854 1.83045
142 1 3.14288 9.43413 6.28786 1.83049
81 1 4.7156 7.8614 4.71529 1.83086
143 1 6.28626 9.43398 6.28559 1.83141
83 1 7.86138 7.86204 4.71475 1.82675
85 1 11.007 7.86272 4.71725 1.82701
144 1 9.434 9.43579 6.28784 1.81911
87 1 14.1525 7.86204 4.71475 1.82675
145 1 12.5799 9.43579 6.28784 1.81911
89 1 17.2983 7.8614 4.71529 1.83086
146 1 15.7276 9.43398 6.28559 1.83141
91 1 20.4422 7.86153 4.71619 1.8307
147 1 18.871 9.43413 6.28786 1.83049
100 1 1.5718 1.57055 7.8612 1.8314
155 1 4.71392e-10 3.14245 9.43363 1.8314
156 1 3.14284 3.14176 9.43319 1.83187
176 1 1.57172 1.57008 11.0066 1.83096
102 1 4.71587 1.57001 7.86065 1.83142
157 1 6.28693 3.13959 9.43213 1.83111
177 1 4.71562 1.56937 11.0064 1.83114
104 1 7.86196 1.57178 7.86144 1.82914
106 1 11.007 1.57245 7.86133 1.82959
158 1 9.43502 3.14372 9.43405 1.82706
178 1 7.86144 1.56961 11.0067 1.82811
151 1 9.43455 0.000271291 9.43422 1.8291
108 1 14.1519 1.57178 7.86144 1.82914
159 1 12.5789 3.14372 9.43405 1.82706
179 1 11.007 1.57249 11.0068 1.82907
180 1 14.1525 1.56961 11.0067 1.82811
152 1 12.5794 0.000271291 9.43422 1.8291
110 1 17.298 1.57001 7.86065 1.83142
160 1 15.727 3.13959 9.43213 1.83111
181 1 17.2983 1.56937 11.0064 1.83114
112 1 20.4421 1.57055 7.8612 1.8314
161 1 18.8711 3.14176 9.43319 1.83187
182 1 20.4422 1.57008 11.0066 1.83096
114 1 1.5709 4.71496 7.86043 1.83141
163 1 3.14032 6.28643 9.43228 1.83024
183 1 1.57077 4.71436 11.0062 1.83138
116 1 4.71235 4.71179 7.85722 1.83976
164 1 6.27596 6.2757 9.42202 1.8615
184 1 4.71245 4.71173 11.0052 1.83383
118 1 7.86146 4.71473 7.86023 1.82652
185 1 7.85736 4.70665 11.0044 1.82487
165 1 9.43638 6.28678 9.43391 1.81721
187 1 14.1565 4.70665 11.0044 1.82487
166 1 12.5775 6.28678 9.43391 1.81721
120 1 11.007 4.71634 7.8606 1.83
122 1 14.1524 4.71473 7.86023 1.82652
188 1 17.3015 4.71173 11.0052 1.83383
167 1 15.7379 6.2757 9.42202 1.8615
124 1 17.3015 4.71179 7.85722 1.83976
189 1 20.4431 4.71436 11.0062 1.83138
168 1 18.8736 6.28643 9.43228 1.83024
126 1 20.443 4.71496 7.86043 1.83141
162 1 22.0139 6.28789 9.43357 1.83001
190 1 1.57049 7.86065 11.0066 1.8286
170 1 3.14153 9.43388 9.43293 1.82827
169 1 4.8418e-10 9.43397 9.43384 1.82921
128 1 1.57097 7.86109 7.86073 1.83022
442 1 1.57117 11.0069 7.86094 1.83
191 1 4.70822 7.85769 11.0052 1.82068
171 1 6.27974 9.43312 9.42845 1.83065
130 1 4.71259 7.85991 7.85856 1.83136
513 1 4.71542 11.0057 11.0064 1.81911
192 1 7.82403 7.82121 10.9735 1.95844
172 1 9.40979 9.41998 9.42603 1.85246
132 1 7.8543 7.85558 7.85103 1.83339
194 1 14.1899 7.82121 10.9735 1.95844
173 1 12.6041 9.41998 9.42603 1.85246
134 1 11.007 7.86476 7.86446 1.81822
136 1 14.1596 7.85558 7.85103 1.83339
174 1 15.7342 9.43312 9.42845 1.83065
195 1 17.3057 7.85769 11.0052 1.82068
138 1 17.3013 7.85991 7.85856 1.83136
517 1 17.2985 11.0057 11.0064 1.81911
175 1 18.8724 9.43388 9.43293 1.82827
196 1 20.4434 7.86065 11.0066 1.8286
140 1 20.4429 7.86109 7.86073 1.83022
448 1 20.4427 11.0069 7.86094 1.83
198 1 1.57172 1.57008 14.1522 1.83096
211 1 1.31856e-09 3.14219 12.5794 1.83112
213 1 3.14275 3.14145 12.5794 1.83117
200 1 4.71562 1.56937 14.1524 1.83114
215 1 6.28643 3.13916 12.5794 1.83156
202 1 7.86144 1.56961 14.1521 1.82811
217 1 9.43457 3.14283 12.5794 1.82526
204 1 11.007 1.57249 14.152 1.82907
206 1 14.1525 1.56961 14.1521 1.82811
219 1 12.5793 3.14283 12.5794 1.82526
208 1 17.2983 1.56937 14.1524 1.83114
221 1 15.7275 3.13916 12.5794 1.83156
210 1 20.4422 1.57008 14.1522 1.83096
223 1 18.8712 3.14145 12.5794 1.83117
212 1 1.57077 4.71436 14.1525 1.83138
225 1 3.15422e-10 6.28737 12.5794 1.83028
227 1 3.14017 6.28558 12.5794 1.83109
214 1 4.71245 4.71173 14.1535 1.83383
229 1 6.27834 6.27782 12.5794 1.84417
216 1 7.85736 4.70665 14.1544 1.82487
231 1 9.4262 6.28256 12.5794 1.79012
186 1 11.007 4.72052 11.0077 1.82289
218 1 11.007 4.72052 14.1511 1.82289
220 1 14.1565 4.70665 14.1544 1.82487
233 1 12.5877 6.28256 12.5794 1.79012
222 1 17.3015 4.71173 14.1535 1.83383
235 1 15.7356 6.27782 12.5794 1.84417
224 1 20.4431 4.71436 14.1525 1.83138
237 1 18.8737 6.28558 12.5794 1.83109
540 1 1.57184 11.0063 14.1518 1.82834
226 1 1.57049 7.86065 14.1521 1.8286
239 1 1.33088e-11 9.43371 12.5794 1.8298
240 1 3.1438 9.4333 12.5794 1.82774
512 1 1.57184 11.0063 11.007 1.82834
541 1 4.71542 11.0057 14.1523 1.81911
228 1 4.70822 7.85769 14.1535 1.82068
241 1 6.29267 9.4287 12.5794 1.81858
193 1 11.007 7.8854 11.0166 1.69578
230 1 7.82403 7.82121 14.1853 1.95844
232 1 11.007 7.8854 14.1421 1.69578
242 1 9.20239 9.35755 12.5794 2.34782
687 3 11.007 10.2207 12.5794 2.3082
234 1 14.1899 7.82121 14.1853 1.95844
243 1 12.8115 9.35755 12.5794 2.34782
545 1 17.2985 11.0057 14.1523 1.81911
236 1 17.3057 7.85769 14.1535 1.82068
244 1 15.7212 9.4287 12.5794 1.81858
546 1 20.4421 11.0063 14.1518 1.82834
518 1 20.4421 11.0063 11.007 1.82834
238 1 20.4434 7.86065 14.1521 1.8286
245 1 18.8701 9.4333 12.5794 1.82774
247 1 1.5718 1.57055 17.2975 1.8314
260 1 4.71383e-10 3.14245 15.7251 1.8314
262 1 3.14284 3.14176 15.7256 1.83187
249 1 4.71587 1.57001 17.2981 1.83142
264 1 6.28693 3.13959 15.7266 1.83111
252 1 9.43455 0.000271291 15.7245 1.8291
251 1 7.86196 1.57178 17.2973 1.82914
253 1 11.007 1.57245 17.2974 1.82959
266 1 9.43502 3.14372 15.7247 1.82706
254 1 12.5794 0.000271291 15.7245 1.8291
255 1 14.1519 1.57178 17.2973 1.82914
268 1 12.5789 3.14372 15.7247 1.82706
257 1 17.298 1.57001 17.2981 1.83142
270 1 15.727 3.13959 15.7266 1.83111
259 1 20.4421 1.57055 17.2975 1.8314
272 1 18.8711 3.14176 15.7256 1.83187
261 1 1.5709 4.71496 17.2983 1.83141
276 1 3.14032 6.28643 15.7265 1.83024
263 1 4.71235 4.71179 17.3015 1.83976
278 1 6.27596 6.2757 15.7367 1.8615
265 1 7.86146 4.71473 17.2985 1.82652
280 1 9.43638 6.28678 15.7248 1.81721
267 1 11.007 4.71634 17.2981 1.83
269 1 14.1524 4.71473 17.2985 1.82652
282 1 12.5775 6.28678 15.7248 1.81721
271 1 17.3015 4.71179 17.3015 1.83976
284 1 15.7379 6.2757 15.7367 1.8615
273 1 20.443 4.71496 17.2983 1.83141
274 1 22.0139 6.28789 15.7252 1.83001
286 1 18.8736 6.28643 15.7265 1.83024
275 1 1.57097 7.86109 17.298 1.83022
288 1 4.84187e-10 9.43397 15.7249 1.82921
289 1 3.14153 9.43388 15.7258 1.82827
589 1 1.57117 11.0069 17.2978 1.83
277 1 4.71259 7.85991 17.3002 1.83136
290 1 6.27974 9.43312 15.7303 1.83065
279 1 7.8543 7.85558 17.3077 1.83339
291 1 9.40979 9.41998 15.7327 1.85246
281 1 11.007 7.86476 17.2943 1.81822
283 1 14.1596 7.85558 17.3077 1.83339
292 1 12.6041 9.41998 15.7327 1.85246
285 1 17.3013 7.85991 17.3002 1.83136
293 1 15.7342 9.43312 15.7303 1.83065
287 1 20.4429 7.86109 17.298 1.83022
294 1 18.8724 9.43388 15.7258 1.82827
595 1 20.4427 11.0069 17.2978 1.83
296 1 1.57194 1.5713 20.4424 1.83221
309 1 1.32665e-09 3.14309 18.8704 1.83179
311 1 3.14315 3.14247 18.8711 1.83365
298 1 4.71671 1.57191 20.4424 1.83071
299 1 6.2892 0.000259216 18.8698 1.8302
313 1 6.28897 3.14342 18.8706 1.82957
301 1 9.43436 0.00101958 18.8698 1.83022
300 1 7.86195 1.57281 20.4421 1.8302
315 1 9.43447 3.14466 18.8699 1.82975
303 1 12.5795 0.00101958 18.8698 1.83022
317 1 12.5794 3.14466 18.8699 1.82975
302 1 11.007 1.57315 20.4421 1.83009
304 1 14.1519 1.57281 20.4421 1.8302
319 1 15.7249 3.14342 18.8706 1.82957
305 1 15.7247 0.000259215 18.8698 1.8302
306 1 17.2972 1.57191 20.4424 1.83071
321 1 18.8707 3.14247 18.8711 1.83365
308 1 20.442 1.5713 20.4424 1.83221
325 1 3.14281 6.28807 18.8711 1.83116
323 1 5.40403e-10 6.28854 18.8703 1.8308
310 1 1.57177 4.7161 20.4426 1.83125
327 1 6.28614 6.28623 18.8743 1.83309
312 1 4.7157 4.71558 20.4438 1.83203
316 1 11.007 4.71746 20.4422 1.82897
329 1 9.435 6.28974 18.8698 1.82643
314 1 7.86213 4.71712 20.4424 1.82887
318 1 14.1518 4.71712 20.4424 1.82887
331 1 12.5789 6.28974 18.8698 1.82643
320 1 17.2982 4.71558 20.4438 1.83203
333 1 15.7278 6.28623 18.8743 1.83309
322 1 20.4421 4.7161 20.4426 1.83125
335 1 18.8711 6.28807 18.8711 1.83116
324 1 1.57173 7.86153 20.4426 1.8307
338 1 3.14288 9.43413 18.8709 1.83049
337 1 7.21161e-10 9.43419 18.8702 1.83045
326 1 4.7156 7.8614 20.4435 1.83086
339 1 6.28626 9.43398 18.8732 1.83141
328 1 7.86138 7.86204 20.444 1.82675
340 1 9.434 9.43579 18.8709 1.81911
330 1 11.007 7.86272 20.4415 1.82701
341 1 12.5799 9.43579 18.8709 1.81911
332 1 14.1525 7.86204 20.444 1.82675
342 1 15.7276 9.43398 18.8732 1.83141
334 1 17.2983 7.8614 20.4435 1.83086
343 1 18.871 9.43413 18.8709 1.83049
336 1 20.4422 7.86153 20.4426 1.8307
352 1 1.57188 14.1524 1.57242 1.83093
353 1 3.14377 12.5799 0.000690448 1.8307
402 1 3.14377 12.5799 3.14415 1.8307
344 1 1.57192 11.0071 1.57242 1.83067
354 1 4.71598 14.1529 1.57242 1.8308
355 1 6.28831 12.5804 0.00144668 1.83022
404 1 6.28831 12.5804 3.1434 1.83022
345 1 4.71611 11.0073 1.57242 1.83045
356 1 7.86115 14.1536 1.57242 1.83001
357 1 9.43419 12.5808 0.00192738 1.8286
406 1 9.43419 12.5808 3.14292 1.8286
347 1 11.007 11.0078 1.57242 1.8298
346 1 7.86141 11.0075 1.57242 1.82921
358 1 11.007 14.1541 1.57242 1.83028
359 1 12.5797 12.5808 0.00192738 1.8286
360 1 14.1528 14.1536 1.57242 1.83001
408 1 12.5797 12.5808 3.14292 1.8286
348 1 14.1525 11.0075 1.57242 1.82921
361 1 15.7256 12.5804 0.00144668 1.83022
362 1 17.2979 14.1529 1.57242 1.8308
410 1 15.7256 12.5804 3.1434 1.83022
349 1 17.2978 11.0073 1.57242 1.83045
363 1 18.8701 12.5799 0.00069045 1.8307
364 1 20.442 14.1524 1.57242 1.83093
400 1 22.0139 12.5797 3.1444 1.83075
412 1 18.8701 12.5799 3.14415 1.8307
350 1 20.442 11.0071 1.57242 1.83067
351 1 22.0139 12.5797 0.00044341 1.83075
366 1 1.57189 17.2975 1.57242 1.83154
367 1 3.14369 15.7254 0.000654698 1.83125
416 1 3.14369 15.7254 3.14419 1.83125
368 1 4.71597 17.2984 1.57242 1.83179
369 1 6.28801 15.7265 0.00152533 1.83141
418 1 6.28801 15.7265 3.14332 1.83141
370 1 7.86121 17.299 1.57242 1.8314
371 1 9.43382 15.7271 0.00165379 1.83138
420 1 9.43382 15.7271 3.14319 1.83138
372 1 11.007 17.2993 1.57242 1.83112
373 1 12.5801 15.7271 0.00165379 1.83138
374 1 14.1527 17.299 1.57242 1.8314
422 1 12.5801 15.7271 3.14319 1.83138
375 1 15.7259 15.7265 0.00152533 1.83141
376 1 17.2979 17.2984 1.57242 1.83179
424 1 15.7259 15.7265 3.14332 1.83141
377 1 18.8702 15.7254 0.000654698 1.83125
378 1 20.442 17.2975 1.57242 1.83154
414 1 22.0139 15.7249 3.14447 1.83117
426 1 18.8702 15.7254 3.14419 1.83125
365 1 22.0139 15.7249 0.000374263 1.83117
380 1 1.57208 20.4419 1.57242 1.83223
381 1 3.14394 18.8702 0.000477564 1.83221
430 1 3.14394 18.8702 3.14437 1.83221
382 1 4.71669 20.4425 1.57242 1.83135
383 1 6.28878 18.8709 0.000626177 1.8314
432 1 6.28878 18.8709 3.14422 1.8314
384 1 7.86171 20.4431 1.57242 1.83088
385 1 9.43416 18.8714 0.000699715 1.83096
386 1 11.007 20.4433 1.57242 1.83071
434 1 9.43416 18.8714 3.14414 1.83096
387 1 12.5797 18.8714 0.000699714 1.83096
388 1 14.1522 20.4431 1.57242 1.83088
436 1 12.5797 18.8714 3.14414 1.83096
389 1 15.7251 18.8709 0.000626175 1.8314
390 1 17.2972 20.4425 1.57242 1.83135
438 1 15.7251 18.8709 3.14422 1.8314
379 1 22.0139 18.8696 0.00034473 1.83204
391 1 18.87 18.8702 0.000477564 1.83221
392 1 20.4418 20.4419 1.57242 1.83223
428 1 22.0139 18.8696 3.1445 1.83204
440 1 18.87 18.8702 3.14437 1.83221
1 1 22.0139 22.0135 0.000336903 1.83223
50 1 22.0139 22.0135 3.14451 1.83223
401 1 1.57165 14.1525 4.71645 1.83089
449 1 8.41546e-11 12.5797 6.28878 1.83049
451 1 3.14287 12.5801 6.28803 1.83086
393 1 1.57171 11.0071 4.71629 1.83059
394 1 4.71543 11.0073 4.7153 1.83049
403 1 4.7152 14.1534 4.71523 1.83116
453 1 6.28613 12.5816 6.28501 1.83136
405 1 7.85986 14.155 4.71275 1.83024
455 1 9.43282 12.5838 6.28064 1.82068
396 1 11.007 11.0082 4.71622 1.82774
395 1 7.86051 11.0076 4.71395 1.82827
407 1 11.007 14.1559 4.71259 1.83109
409 1 14.154 14.155 4.71275 1.83024
457 1 12.5811 12.5838 6.28064 1.82068
397 1 14.1534 11.0076 4.71395 1.82827
398 1 17.2985 11.0073 4.7153 1.83049
411 1 17.2987 14.1534 4.71523 1.83116
459 1 15.7278 12.5816 6.28501 1.83136
413 1 20.4422 14.1525 4.71645 1.83089
461 1 18.871 12.5801 6.28803 1.83086
399 1 20.4422 11.0071 4.71629 1.83059
415 1 1.57164 17.2975 4.71655 1.83168
463 1 1.1224e-09 15.7248 6.28907 1.8305
465 1 3.14255 15.7259 6.28812 1.83203
417 1 4.71521 17.299 4.71558 1.83365
467 1 6.2848 15.7297 6.28477 1.83976
419 1 7.86077 17.2997 4.71526 1.83187
469 1 9.43279 15.7298 6.28487 1.83383
421 1 11.007 17.3 4.71517 1.83117
423 1 14.1531 17.2997 4.71526 1.83187
471 1 12.5811 15.7298 6.28487 1.83383
425 1 17.2987 17.299 4.71558 1.83365
473 1 15.7291 15.7297 6.28477 1.83976
427 1 20.4423 17.2975 4.71655 1.83168
475 1 18.8713 15.7259 6.28812 1.83203
429 1 1.57201 20.4414 4.71682 1.8315
479 1 3.14393 18.8696 6.28914 1.83071
101 1 3.14412 22.013 6.28888 1.83129
431 1 4.71646 20.4424 4.71654 1.83129
481 1 6.28823 18.8715 6.28829 1.83142
433 1 7.8616 20.4431 4.71645 1.83088
483 1 9.43394 18.8721 6.28804 1.83114
435 1 11.007 20.4434 4.71641 1.83066
437 1 14.1523 20.4431 4.71645 1.83088
485 1 12.58 18.8721 6.28804 1.83114
439 1 17.2974 20.4424 4.71654 1.83129
487 1 15.7257 18.8715 6.28829 1.83142
441 1 20.4419 20.4414 4.71682 1.8315
477 1 22.0139 18.869 6.28942 1.83071
489 1 18.87 18.8696 6.28914 1.83071
111 1 18.8698 22.013 6.28888 1.83129
99 1 22.0139 22.0129 6.28911 1.83135
450 1 1.5712 14.1522 7.86148 1.82939
492 1 3.14233 12.5794 9.4338 1.82675
443 1 4.71316 11.0075 7.85869 1.83141
452 1 4.71197 14.1552 7.85857 1.83309
493 1 6.27861 12.5859 9.42673 1.83339
444 1 7.85603 11.0084 7.85216 1.83065
454 1 7.8496 14.1658 7.84838 1.8615
494 1 9.40105 12.6203 9.39645 1.95844
514 1 7.85361 11.0215 10.9822 1.85246
445 1 11.007 11.0128 7.86509 1.81858
446 1 14.1579 11.0084 7.85216 1.83065
456 1 11.007 14.1637 7.85076 1.84417
458 1 14.1643 14.1658 7.84838 1.8615
495 1 12.6128 12.6203 9.39645 1.95844
522 1 11.007 14.1589 10.9986 1.79012
516 1 14.1603 11.0215 10.9822 1.85246
515 1 11.007 11.0839 10.7748 2.34782
447 1 17.3007 11.0075 7.85869 1.83141
460 1 17.3019 14.1552 7.85857 1.83309
496 1 15.7353 12.5859 9.42673 1.83339
462 1 20.4427 14.1522 7.86148 1.82939
491 1 22.0139 12.5791 9.43437 1.8287
497 1 18.8716 12.5794 9.4338 1.82675
464 1 1.57192 17.2967 7.86196 1.82995
498 1 6.31262e-10 15.724 9.43458 1.8295
499 1 3.14392 15.7244 9.43455 1.82887
526 1 1.57208 17.2962 11.0069 1.82982
466 1 4.71576 17.2981 7.86139 1.82957
500 1 6.28781 15.7267 9.43389 1.82652
527 1 4.71637 17.2968 11.0069 1.82975
468 1 7.85971 17.3019 7.85935 1.83111
470 1 11.007 17.3023 7.85885 1.83156
501 1 9.43197 15.7348 9.42978 1.82487
502 1 12.5819 15.7348 9.42978 1.82487
472 1 14.1542 17.3019 7.85935 1.83111
503 1 15.7261 15.7267 9.43389 1.82652
474 1 17.2981 17.2981 7.86139 1.82957
531 1 17.2975 17.2968 11.0069 1.82975
504 1 18.87 15.7244 9.43455 1.82887
476 1 20.442 17.2967 7.86196 1.82995
532 1 20.4418 17.2962 11.0069 1.82982
506 1 3.14422 18.8687 9.43437 1.8302
533 1 1.57207 20.4402 11.0068 1.8305
478 1 1.57206 20.4407 7.86178 1.83077
149 1 3.14403 22.0122 9.43402 1.83088
148 1 3.51436e-10 22.0123 9.43414 1.83088
534 1 4.71651 20.4405 11.0068 1.83022
507 1 6.28901 18.8697 9.43438 1.82914
480 1 4.71652 20.4412 7.86162 1.8302
150 1 6.28897 22.0125 9.43402 1.82974
508 1 9.43424 18.8719 9.43386 1.82811
482 1 7.8616 20.4429 7.8614 1.82974
509 1 12.5797 18.8719 9.43386 1.82811
484 1 11.007 20.4434 7.86119 1.82993
486 1 14.1523 20.4429 7.8614 1.82974
538 1 17.2974 20.4405 11.0068 1.83022
510 1 15.7249 18.8697 9.43438 1.82914
153 1 15.7249 22.0125 9.43402 1.82974
488 1 17.2974 20.4412 7.86162 1.8302
511 1 18.8697 18.8687 9.43437 1.8302
154 1 18.8699 22.0122 9.43402 1.83088
505 1 22.0139 18.8684 9.43443 1.83031
539 1 20.4418 20.4402 11.0068 1.8305
490 1 20.4418 20.4407 7.86178 1.83077
519 1 1.57209 14.1514 11.0071 1.82875
547 1 4.5889e-11 12.5789 12.5794 1.82864
548 1 1.57209 14.1514 14.1517 1.82875
549 1 3.14482 12.5788 12.5794 1.82701
520 1 4.71652 14.1517 11.0074 1.82643
550 1 4.71652 14.1517 14.1513 1.82643
551 1 6.29204 12.5767 12.5794 1.81822
521 1 7.86149 14.1547 11.0088 1.81721
542 1 7.85361 11.0215 14.1765 1.85246
552 1 7.86149 14.1547 14.1499 1.81721
553 1 9.44422 12.5561 12.5794 1.69578
523 1 14.1524 14.1547 11.0088 1.81721
543 1 11.007 11.0839 14.3839 2.34782
544 1 14.1603 11.0215 14.1765 1.85246
554 1 11.007 14.1589 14.1601 1.79012
555 1 12.5697 12.5561 12.5794 1.69578
556 1 14.1524 14.1547 14.1499 1.81721
524 1 17.2974 14.1517 11.0074 1.82643
557 1 15.7219 12.5767 12.5794 1.81822
558 1 17.2974 14.1517 14.1513 1.82643
525 1 20.4418 14.1514 11.0071 1.82875
559 1 18.8691 12.5788 12.5794 1.82701
560 1 20.4418 14.1514 14.1517 1.82875
561 1 2.65115e-10 15.7238 12.5794 1.82936
562 1 1.57208 17.2962 14.1518 1.82982
563 1 3.14416 15.724 12.5794 1.82897
564 1 4.71637 17.2968 14.1519 1.82975
565 1 6.28817 15.7251 12.5794 1.83
528 1 7.86163 17.2978 11.0074 1.82706
566 1 7.86163 17.2978 14.1513 1.82706
567 1 9.43523 15.721 12.5794 1.82289
529 1 11.007 17.2987 11.007 1.82526
530 1 14.1523 17.2978 11.0074 1.82706
568 1 11.007 17.2987 14.1517 1.82526
569 1 12.5787 15.721 12.5794 1.82289
570 1 14.1523 17.2978 14.1513 1.82706
571 1 15.7257 15.7251 12.5794 1.83
572 1 17.2975 17.2968 14.1519 1.82975
573 1 18.8697 15.724 12.5794 1.82897
574 1 20.4418 17.2962 14.1518 1.82982
197 1 8.86397e-11 22.0121 12.5794 1.83071
199 1 3.14399 22.012 12.5794 1.83066
576 1 1.57207 20.4402 14.1519 1.8305
577 1 3.14427 18.8683 12.5794 1.83009
201 1 6.28877 22.0119 12.5794 1.82993
578 1 4.71651 20.4405 14.152 1.83022
579 1 6.2889 18.869 12.5794 1.82959
203 1 9.43458 22.0133 12.5794 1.82906
535 1 7.8618 20.4412 11.007 1.8291
536 1 11.007 20.4421 11.007 1.82906
580 1 7.8618 20.4412 14.1518 1.8291
581 1 9.43435 18.869 12.5794 1.82907
582 1 11.007 20.4421 14.1517 1.82906
205 1 12.5793 22.0133 12.5794 1.82906
537 1 14.1521 20.4412 11.007 1.8291
583 1 12.5796 18.869 12.5794 1.82907
584 1 14.1521 20.4412 14.1518 1.8291
207 1 15.7251 22.0119 12.5794 1.82993
585 1 15.725 18.869 12.5794 1.82959
586 1 17.2974 20.4405 14.152 1.83022
209 1 18.8699 22.012 12.5794 1.83066
575 1 22.0139 18.8681 12.5794 1.8302
587 1 18.8696 18.8683 12.5794 1.83009
588 1 20.4418 20.4402 14.1519 1.8305
597 1 1.5712 14.1522 17.2973 1.82939
598 1 3.14233 12.5794 15.7249 1.82675
590 1 4.71316 11.0075 17.3001 1.83141
599 1 4.71197 14.1552 17.3002 1.83309
600 1 6.27861 12.5859 15.732 1.83339
591 1 7.85603 11.0084 17.3066 1.83065
601 1 7.8496 14.1658 17.3104 1.8615
602 1 9.40105 12.6203 15.7623 1.95844
592 1 11.007 11.0128 17.2937 1.81858
593 1 14.1579 11.0084 17.3066 1.83065
603 1 11.007 14.1637 17.308 1.84417
604 1 12.6128 12.6203 15.7623 1.95844
605 1 14.1643 14.1658 17.3104 1.8615
594 1 17.3007 11.0075 17.3001 1.83141
606 1 15.7353 12.5859 15.732 1.83339
607 1 17.3019 14.1552 17.3002 1.83309
596 1 22.0139 12.5791 15.7244 1.8287
608 1 18.8716 12.5794 15.7249 1.82675
609 1 20.4427 14.1522 17.2973 1.82939
610 1 6.31258e-10 15.724 15.7242 1.8295
611 1 1.57192 17.2967 17.2968 1.82995
612 1 3.14392 15.7244 15.7242 1.82887
613 1 4.71576 17.2981 17.2974 1.82957
614 1 6.28781 15.7267 15.7249 1.82652
615 1 7.85971 17.3019 17.2994 1.83111
616 1 9.43197 15.7348 15.729 1.82487
617 1 11.007 17.3023 17.2999 1.83156
618 1 12.5819 15.7348 15.729 1.82487
619 1 14.1542 17.3019 17.2994 1.83111
620 1 15.7261 15.7267 15.7249 1.82652
621 1 17.2981 17.2981 17.2974 1.82957
622 1 18.87 15.7244 15.7242 1.82887
623 1 20.442 17.2967 17.2968 1.82995
246 1 3.51443e-10 22.0123 15.7246 1.83088
248 1 3.14403 22.0122 15.7247 1.83088
625 1 1.57206 20.4407 17.297 1.83077
626 1 3.14422 18.8687 15.7244 1.8302
250 1 6.28897 22.0125 15.7247 1.82974
627 1 4.71652 20.4412 17.2971 1.8302
628 1 6.28901 18.8697 15.7244 1.82914
629 1 7.8616 20.4429 17.2973 1.82974
630 1 9.43424 18.8719 15.7249 1.82811
631 1 11.007 20.4434 17.2976 1.82993
632 1 12.5797 18.8719 15.7249 1.82811
633 1 14.1523 20.4429 17.2973 1.82974
256 1 15.7249 22.0125 15.7247 1.82974
634 1 15.7249 18.8697 15.7244 1.82914
635 1 17.2974 20.4412 17.2971 1.8302
258 1 18.8699 22.0122 15.7247 1.83088
624 1 22.0139 18.8684 15.7243 1.83031
636 1 18.8697 18.8687 15.7244 1.8302
637 1 20.4418 20.4407 17.297 1.83077
638 1 1.57171 11.0071 20.4425 1.83059
645 1 8.41546e-11 12.5797 18.87 1.83049
646 1 1.57165 14.1525 20.4423 1.83089
647 1 3.14287 12.5801 18.8707 1.83086
639 1 4.71543 11.0073 20.4434 1.83049
648 1 4.7152 14.1534 20.4435 1.83116
649 1 6.28613 12.5816 18.8737 1.83136
640 1 7.86051 11.0076 20.4448 1.82827
641 1 11.007 11.0082 20.4425 1.82774
650 1 7.85986 14.155 20.446 1.83024
651 1 9.43282 12.5838 18.8781 1.82068
652 1 11.007 14.1559 20.4462 1.83109
653 1 12.5811 12.5838 18.8781 1.82068
654 1 14.154 14.155 20.446 1.83024
642 1 14.1534 11.0076 20.4448 1.82827
643 1 17.2985 11.0073 20.4434 1.83049
655 1 15.7278 12.5816 18.8737 1.83136
656 1 17.2987 14.1534 20.4435 1.83116
657 1 18.871 12.5801 18.8707 1.83086
658 1 20.4422 14.1525 20.4423 1.83089
644 1 20.4422 11.0071 20.4425 1.83059
659 1 1.12239e-09 15.7248 18.8697 1.8305
660 1 1.57164 17.2975 20.4422 1.83168
661 1 3.14255 15.7259 18.8706 1.83203
662 1 4.71521 17.299 20.4432 1.83365
663 1 6.2848 15.7297 18.874 1.83976
664 1 7.86077 17.2997 20.4435 1.83187
665 1 9.43279 15.7298 18.8739 1.83383
666 1 11.007 17.3 20.4436 1.83117
667 1 12.5811 15.7298 18.8739 1.83383
668 1 14.1531 17.2997 20.4435 1.83187
669 1 15.7291 15.7297 18.874 1.83976
670 1 17.2987 17.299 20.4432 1.83365
671 1 18.8713 15.7259 18.8706 1.83203
672 1 20.4423 17.2975 20.4422 1.83168
297 1 3.14412 22.013 18.8699 1.83129
674 1 1.57201 20.4414 20.4419 1.8315
675 1 3.14393 18.8696 18.8696 1.83071
676 1 4.71646 20.4424 20.4422 1.83129
677 1 6.28823 18.8715 18.8705 1.83142
679 1 9.43394 18.8721 18.8707 1.83114
678 1 7.8616 20.4431 20.4423 1.83088
682 1 14.1523 20.4431 20.4423 1.83088
681 1 12.58 18.8721 18.8707 1.83114
680 1 11.007 20.4434 20.4423 1.83066
684 1 17.2974 20.4424 20.4422 1.83129
683 1 15.7257 18.8715 18.8705 1.83142
295 1 22.0139 22.0129 18.8696 1.83135
686 1 20.4419 20.4414 20.4419 1.8315
307 1 18.8698 22.013 18.8699 1.83129
685 1 18.87 18.8696 18.8696 1.83071
673 1 22.0139 18.869 18.8693 1.83071
