ITEM: TIMESTEP
60
ITEM: NUMBER OF ATOMS
688
ITEM: BOX BOUNDS pp pp pp
0.0000000000000000e+00 2.2013900999999997e+01
0.0000000000000000e+00 2.2013900999999997e+01
0.0000000000000000e+00 2.2013900999999997e+01
ITEM: ATOMS id type x y z c_pot
1 1 -2.69445e-16 6.92571e-16 -3.22982e-05 -8.94952
2 1 1.57221 1.57228 1.57234 -8.94957
196 1 20.4415 7.86211 11.0068 -8.94957
4 1 4.71683 1.57215 1.57217 -8.94963
5 1 6.28938 1.23034e-15 -0.000142654 -8.94961
6 1 7.86181 1.5721 1.57209 -8.94962
175 1 18.8684 9.43456 9.43453 -8.94801
8 1 11.007 1.57209 1.57206 -8.94961
174 1 15.72 9.43689 9.43453 -8.99726
10 1 14.1521 1.5721 1.57209 -8.94962
11 1 15.7245 5.85823e-17 -0.000142654 -8.94961
12 1 17.2971 1.57215 1.57217 -8.94963
195 1 17.2966 7.86233 11.0066 -8.95135
14 1 20.4417 1.57228 1.57234 -8.94957
194 1 14.1547 7.85868 11.0112 -8.97986
16 1 1.57211 4.71693 1.57225 -8.94957
17 1 3.14441 3.14446 -0.000142717 -8.94946
18 1 4.71642 4.71648 1.57185 -8.94924
173 1 12.5992 9.39303 9.43453 -9.24056
20 1 7.86157 4.71633 1.57171 -8.94963
21 1 9.43436 3.14429 -0.00026173 -8.9496
22 1 11.007 4.71633 1.57162 -8.94958
23 1 12.5795 3.14429 -0.00026173 -8.9496
24 1 14.1523 4.71633 1.57171 -8.94963
172 1 9.41466 9.39303 9.43453 -9.24056
26 1 17.2975 4.71648 1.57185 -8.94924
27 1 18.8695 3.14446 -0.000142717 -8.94946
28 1 20.4418 4.71693 1.57225 -8.94957
29 1 6.49404e-16 6.28945 -8.86815e-05 -8.9496
30 1 1.57208 7.86188 1.57221 -8.94962
171 1 6.2939 9.43689 9.43453 -8.99726
32 1 4.71626 7.86156 1.5717 -8.9496
33 1 6.28877 6.28879 -0.000599408 -8.94957
34 1 7.86076 7.86072 1.57028 -8.9497
170 1 3.14547 9.43456 9.43453 -8.94801
36 1 11.007 7.86091 1.57023 -8.94937
169 1 7.01185e-16 9.43448 9.43453 -8.94911
38 1 14.1531 7.86072 1.57028 -8.9497
39 1 15.7251 6.28879 -0.000599408 -8.94957
40 1 17.2976 7.86156 1.5717 -8.9496
168 1 18.8691 6.28956 9.43453 -8.94939
42 1 20.4418 7.86188 1.57221 -8.94962
167 1 15.7239 6.28942 9.43453 -8.94892
44 1 3.14426 9.43437 -0.000224887 -8.94957
166 1 12.5789 6.28097 9.43453 -8.96332
46 1 9.43389 9.43385 -0.00154692 -8.95023
47 1 12.58 9.43385 -0.00154692 -8.95023
165 1 9.43499 6.28097 9.43453 -8.96332
49 1 18.8696 9.43437 -0.000224887 -8.94957
50 1 1.4628e-16 8.34352e-16 3.14482 -8.94963
51 1 1.57224 1.57234 4.71724 -8.94963
52 1 3.14447 1.27129e-15 3.14468 -8.94957
53 1 4.71672 1.57213 4.71699 -8.94957
54 1 6.28925 2.1559e-16 3.14451 -8.94967
55 1 7.86166 1.57194 4.71679 -8.9497
56 1 9.43436 1.31031e-15 3.14443 -8.94966
57 1 11.007 1.57193 4.71672 -8.94966
58 1 12.5795 1.20829e-15 3.14443 -8.94966
59 1 14.1522 1.57194 4.71679 -8.9497
60 1 15.7246 6.92564e-16 3.14451 -8.94967
61 1 17.2972 1.57213 4.71699 -8.94957
62 1 18.8694 9.91057e-16 3.14468 -8.94957
63 1 20.4417 1.57234 4.71724 -8.94963
64 1 4.73834e-16 3.14467 3.14481 -8.94967
65 1 1.57217 4.71708 4.71726 -8.94975
66 1 3.14436 3.14448 3.14464 -8.94955
67 1 4.71639 4.71648 4.71675 -8.94935
68 1 6.28905 3.1441 3.1443 -8.94974
69 1 7.86129 4.71567 4.71616 -8.95028
70 1 9.43428 3.14402 3.14416 -8.9496
71 1 11.007 4.71575 4.71588 -8.94956
72 1 12.5796 3.14402 3.14416 -8.9496
73 1 14.1526 4.71567 4.71616 -8.95028
74 1 15.7249 3.1441 3.1443 -8.94974
75 1 17.2975 4.71648 4.71675 -8.94935
76 1 18.8695 3.14448 3.14464 -8.94955
77 1 20.4417 4.71708 4.71726 -8.94975
78 1 2.24518e-16 6.28943 3.14471 -8.94971
79 1 1.572 7.8619 4.71712 -8.94988
80 1 3.14403 6.28914 3.14442 -8.94957
81 1 4.71562 7.86118 4.71618 -8.94957
82 1 6.28799 6.28801 3.14309 -8.94843
83 1 7.85834 7.85812 4.71219 -8.9459
84 1 9.43402 6.2881 3.14309 -8.94939
85 1 11.007 7.86003 4.71281 -8.94949
86 1 12.5799 6.2881 3.14309 -8.94939
87 1 14.1556 7.85812 4.71219 -8.9459
88 1 15.7259 6.28801 3.14309 -8.94843
89 1 17.2983 7.86118 4.71618 -8.94957
90 1 18.8699 6.28914 3.14442 -8.94957
91 1 20.4419 7.8619 4.71712 -8.94988
92 1 7.71912e-16 9.43443 3.14467 -8.94966
93 1 3.14405 9.43432 3.14433 -8.94957
94 1 6.28809 9.43391 3.14285 -8.94969
95 1 9.43251 9.4324 3.13904 -8.94935
96 1 12.5814 9.4324 3.13904 -8.94935
97 1 15.7258 9.43391 3.14285 -8.94969
98 1 18.8698 9.43432 3.14433 -8.94957
99 1 8.15834e-16 1.21983e-15 6.28968 -8.9496
100 1 1.57226 1.57236 7.86211 -8.9496
101 1 3.14452 1.43117e-15 6.28963 -8.94957
102 1 4.71682 1.57227 7.86205 -8.94949
103 1 6.28914 1.02519e-15 6.28941 -8.9497
104 1 7.86159 1.57181 7.86185 -8.94982
105 1 9.43425 1.45538e-15 6.28927 -8.9497
106 1 11.007 1.57155 7.86168 -8.94966
107 1 12.5796 1.3405e-15 6.28927 -8.9497
108 1 14.1523 1.57181 7.86185 -8.94982
109 1 15.7248 1.23332e-15 6.28941 -8.9497
110 1 17.2971 1.57227 7.86205 -8.94949
111 1 18.8694 3.5955e-16 6.28963 -8.94957
112 1 20.4416 1.57236 7.86211 -8.9496
113 1 6.65569e-16 3.14476 6.28971 -8.94961
114 1 1.57229 4.71717 7.86215 -8.94959
115 1 3.1445 3.14468 6.28967 -8.94967
116 1 4.7169 4.71705 7.86213 -8.94972
117 1 6.2889 3.14398 6.28919 -8.94953
118 1 7.861 4.71513 7.8612 -8.94919
119 1 9.43415 3.14351 6.28897 -8.94966
120 1 11.007 4.7145 7.86045 -8.94617
121 1 12.5798 3.14351 6.28897 -8.94966
122 1 14.1529 4.71513 7.8612 -8.94919
123 1 15.725 3.14398 6.28919 -8.94953
124 1 17.297 4.71705 7.86213 -8.94972
125 1 18.8694 3.14468 6.28967 -8.94967
126 1 20.4416 4.71717 7.86215 -8.94959
127 1 5.09466e-16 6.28963 6.28979 -8.94971
128 1 1.57243 7.86211 7.86224 -8.94957
129 1 3.14444 6.28954 6.28973 -8.95003
130 1 4.71729 7.86233 7.86241 -8.95135
131 1 6.28817 6.28805 6.28828 -8.94847
132 1 7.85919 7.85868 7.85786 -8.97986
133 1 9.43394 6.28663 6.28792 -8.95244
134 1 11.007 7.86184 7.85692 -9.05835
135 1 12.58 6.28663 6.28792 -8.95244
136 1 14.1547 7.85868 7.85786 -8.97986
137 1 15.7257 6.28805 6.28828 -8.94847
138 1 17.2966 7.86233 7.86241 -8.95135
139 1 18.8695 6.28954 6.28973 -8.95003
140 1 20.4415 7.86211 7.86224 -8.94957
141 1 3.64955e-16 9.43451 6.28974 -8.94997
142 1 3.14408 9.43441 6.28941 -8.95041
143 1 6.28647 9.43335 6.28678 -8.95068
144 1 9.42394 9.4239 6.27702 -9.0222
145 1 12.59 9.4239 6.27702 -9.0222
146 1 15.7274 9.43335 6.28678 -8.95068
147 1 18.8698 9.43441 6.28941 -8.95041
148 1 4.42201e-16 3.98854e-16 9.43453 -8.9496
149 1 3.14454 1.19582e-15 9.43453 -8.94958
150 1 6.28919 7.48957e-16 9.43453 -8.9495
151 1 9.4343 6.77925e-16 9.43453 -8.9502
152 1 12.5796 3.84143e-16 9.43453 -8.9502
153 1 15.7247 1.20115e-15 9.43453 -8.9495
154 1 18.8694 1.47981e-15 9.43453 -8.94958
155 1 1.88602e-17 3.14476 9.43453 -8.94961
156 1 3.14457 3.1447 9.43453 -8.94962
157 1 6.28916 3.14428 9.43453 -8.94913
158 1 9.43437 3.14272 9.43453 -8.95185
159 1 12.5795 3.14272 9.43453 -8.95185
160 1 15.7247 3.14428 9.43453 -8.94913
161 1 18.8693 3.1447 9.43453 -8.94962
162 1 4.54682e-16 6.28962 9.43453 -8.9496
163 1 3.14478 6.28956 9.43453 -8.94939
164 1 6.28996 6.28942 9.43453 -8.94892
193 1 11.007 7.86184 11.0121 -9.05835
192 1 7.85919 7.85868 11.0112 -8.97986
190 1 1.57243 7.86211 11.0068 -8.94957
191 1 4.71729 7.86233 11.0066 -8.95135
177 1 4.71682 1.57227 11.007 -8.94949
181 1 17.2971 1.57227 11.007 -8.94949
184 1 4.7169 4.71705 11.0069 -8.94972
188 1 17.297 4.71705 11.0069 -8.94972
7 1 9.43441 1.33061e-15 -0.000165322 -8.94961
9 1 12.5795 5.71932e-16 -0.000165322 -8.94961
343 1 18.8696 9.43437 18.8693 -8.94957
48 1 15.7252 9.43417 22.0132 -8.94959
178 1 7.86159 1.57181 11.0072 -8.94982
179 1 11.007 1.57155 11.0074 -8.94966
180 1 14.1523 1.57181 11.0072 -8.94982
45 1 6.28873 9.43417 22.0132 -8.94959
342 1 15.7252 9.43417 18.8697 -8.94959
183 1 1.57229 4.71717 11.0069 -8.94959
43 1 8.1828e-16 9.43444 22.0138 -8.9496
185 1 7.861 4.71513 11.0079 -8.94919
186 1 11.007 4.7145 11.0086 -8.94617
187 1 14.1529 4.71513 11.0079 -8.94919
41 1 18.8696 6.28928 22.0137 -8.94959
189 1 20.4416 4.71717 11.0069 -8.94959
341 1 12.58 9.43385 18.8706 -8.95023
340 1 9.43389 9.43385 18.8706 -8.95023
339 1 6.28873 9.43417 18.8697 -8.94959
338 1 3.14426 9.43437 18.8693 -8.94957
337 1 -4.9719e-16 9.43444 18.8692 -8.9496
336 1 20.4418 7.86191 20.4415 -8.94958
335 1 18.8696 6.28928 18.8693 -8.94959
197 1 6.27103e-16 1.08622e-15 12.5794 -8.9496
198 1 1.57224 1.57234 14.1518 -8.94963
199 1 3.14452 1.04706e-15 12.5794 -8.94957
200 1 4.71672 1.57213 14.1521 -8.94957
201 1 6.28914 3.24747e-16 12.5796 -8.9497
202 1 7.86166 1.57194 14.1523 -8.9497
203 1 9.43425 1.49113e-15 12.5798 -8.9497
204 1 11.007 1.57193 14.1523 -8.94966
205 1 12.5796 1.0614e-15 12.5798 -8.9497
206 1 14.1522 1.57194 14.1523 -8.9497
207 1 15.7248 3.30348e-16 12.5796 -8.9497
208 1 17.2972 1.57213 14.1521 -8.94957
209 1 18.8694 3.80853e-16 12.5794 -8.94957
210 1 20.4417 1.57234 14.1518 -8.94963
211 1 4.46882e-16 3.14476 12.5793 -8.94961
212 1 1.57217 4.71708 14.1518 -8.94975
213 1 3.1445 3.14468 12.5794 -8.94967
214 1 4.71639 4.71648 14.1523 -8.94935
215 1 6.2889 3.14398 12.5799 -8.94953
216 1 7.86129 4.71567 14.1529 -8.95028
217 1 9.43415 3.14351 12.5801 -8.94966
218 1 11.007 4.71575 14.1532 -8.94956
219 1 12.5798 3.14351 12.5801 -8.94966
220 1 14.1526 4.71567 14.1529 -8.95028
221 1 15.725 3.14398 12.5799 -8.94953
222 1 17.2975 4.71648 14.1523 -8.94935
223 1 18.8694 3.14468 12.5794 -8.94967
224 1 20.4417 4.71708 14.1518 -8.94975
225 1 2.35471e-16 6.28963 12.5793 -8.94971
226 1 1.572 7.8619 14.1519 -8.94988
227 1 3.14444 6.28954 12.5793 -8.95003
228 1 4.71562 7.86118 14.1529 -8.94957
229 1 6.28817 6.28805 12.5808 -8.94847
230 1 7.85834 7.85812 14.1569 -8.9459
231 1 9.43394 6.28663 12.5811 -8.95244
232 1 11.007 7.86003 14.1563 -8.94949
233 1 12.58 6.28663 12.5811 -8.95244
234 1 14.1556 7.85812 14.1569 -8.9459
235 1 15.7257 6.28805 12.5808 -8.94847
236 1 17.2983 7.86118 14.1529 -8.94957
237 1 18.8695 6.28954 12.5793 -8.95003
238 1 20.4419 7.8619 14.1519 -8.94988
239 1 1.00235e-15 9.43451 12.5793 -8.94997
240 1 3.14408 9.43441 12.5796 -8.95041
241 1 6.28647 9.43335 12.5823 -8.95068
242 1 9.42394 9.4239 12.592 -9.0222
243 1 12.59 9.4239 12.592 -9.0222
244 1 15.7274 9.43335 12.5823 -8.95068
245 1 18.8698 9.43441 12.5796 -8.95041
246 1 4.52419e-16 1.2327e-15 15.7242 -8.94963
247 1 1.57221 1.57228 17.2967 -8.94957
248 1 3.14447 6.95584e-16 15.7244 -8.94957
249 1 4.71683 1.57215 17.2969 -8.94963
250 1 6.28925 9.75108e-16 15.7245 -8.94967
251 1 7.86181 1.5721 17.297 -8.94962
252 1 9.43436 1.17219e-15 15.7246 -8.94966
253 1 11.007 1.57209 17.297 -8.94961
254 1 12.5795 1.17248e-15 15.7246 -8.94966
255 1 14.1521 1.5721 17.297 -8.94962
256 1 15.7246 -1.3785e-16 15.7245 -8.94967
257 1 17.2971 1.57215 17.2969 -8.94963
258 1 18.8694 1.30934e-15 15.7244 -8.94957
259 1 20.4417 1.57228 17.2967 -8.94957
260 1 1.97371e-16 3.14467 15.7242 -8.94967
261 1 1.57211 4.71693 17.2968 -8.94957
262 1 3.14436 3.14448 15.7244 -8.94955
263 1 4.71642 4.71648 17.2972 -8.94924
264 1 6.28905 3.1441 15.7248 -8.94974
265 1 7.86157 4.71633 17.2973 -8.94963
266 1 9.43428 3.14402 15.7249 -8.9496
267 1 11.007 4.71633 17.2974 -8.94958
268 1 12.5796 3.14402 15.7249 -8.9496
269 1 14.1523 4.71633 17.2973 -8.94963
270 1 15.7249 3.1441 15.7248 -8.94974
271 1 17.2975 4.71648 17.2972 -8.94924
272 1 18.8695 3.14448 15.7244 -8.94955
273 1 20.4418 4.71693 17.2968 -8.94957
274 1 4.07847e-16 6.28943 15.7243 -8.94971
275 1 1.57208 7.86188 17.2968 -8.94962
276 1 3.14403 6.28914 15.7246 -8.94957
277 1 4.71626 7.86156 17.2974 -8.9496
278 1 6.28799 6.28801 15.726 -8.94843
279 1 7.86076 7.86072 17.2988 -8.9497
280 1 9.43402 6.2881 15.726 -8.94939
281 1 11.007 7.86091 17.2988 -8.94937
282 1 12.5799 6.2881 15.726 -8.94939
283 1 14.1531 7.86072 17.2988 -8.9497
284 1 15.7259 6.28801 15.726 -8.94843
285 1 17.2976 7.86156 17.2974 -8.9496
286 1 18.8699 6.28914 15.7246 -8.94957
287 1 20.4418 7.86188 17.2968 -8.94962
288 1 7.19386e-17 9.43443 15.7244 -8.94966
289 1 3.14405 9.43432 15.7247 -8.94957
290 1 6.28809 9.43391 15.7262 -8.94969
291 1 9.43251 9.4324 15.73 -8.94935
292 1 12.5814 9.4324 15.73 -8.94935
293 1 15.7258 9.43391 15.7262 -8.94969
294 1 18.8698 9.43432 15.7247 -8.94957
295 1 1.80938e-16 7.01969e-16 18.8691 -8.94952
296 1 1.57223 1.57226 20.4415 -8.94949
297 1 3.14454 2.56358e-17 18.8692 -8.94958
298 1 4.71692 1.5722 20.4415 -8.94961
299 1 6.28938 4.35368e-16 18.8692 -8.94961
300 1 7.86188 1.57216 20.4415 -8.94961
301 1 9.43441 1.31596e-15 18.8692 -8.94961
302 1 11.007 1.57216 20.4415 -8.94961
303 1 12.5795 1.14667e-15 18.8692 -8.94961
304 1 14.152 1.57216 20.4415 -8.94961
305 1 15.7245 1.48145e-15 18.8692 -8.94961
306 1 17.297 1.5722 20.4415 -8.94961
307 1 18.8694 2.0158e-15 18.8692 -8.94958
308 1 20.4417 1.57226 20.4415 -8.94949
309 1 2.49546e-16 3.1446 18.8691 -8.94954
310 1 1.57216 4.71696 20.4415 -8.94958
311 1 3.14441 3.14446 18.8692 -8.94946
312 1 4.71661 4.71665 20.4415 -8.9495
313 1 6.28925 3.14434 18.8693 -8.94962
314 1 7.86169 4.71655 20.4415 -8.94956
315 1 9.43436 3.14429 18.8693 -8.9496
316 1 11.007 4.71653 20.4415 -8.94958
317 1 12.5795 3.14429 18.8693 -8.9496
318 1 14.1522 4.71655 20.4415 -8.94956
319 1 15.7247 3.14434 18.8693 -8.94962
320 1 17.2973 4.71665 20.4415 -8.9495
321 1 18.8695 3.14446 18.8692 -8.94946
322 1 20.4417 4.71696 20.4415 -8.94958
323 1 -4.96445e-16 6.28945 18.8691 -8.9496
324 1 1.57214 7.86191 20.4415 -8.94958
325 1 3.14428 6.28928 18.8693 -8.94959
326 1 4.7165 7.86169 20.4415 -8.94957
327 1 6.28877 6.28879 18.8697 -8.94957
328 1 7.86129 7.86129 20.4415 -8.94987
329 1 9.43418 6.28874 18.8697 -8.9495
330 1 11.007 7.86126 20.4415 -8.94969
331 1 12.5797 6.28874 18.8697 -8.9495
332 1 14.1526 7.86129 20.4415 -8.94987
333 1 15.7251 6.28879 18.8697 -8.94957
334 1 17.2974 7.86169 20.4415 -8.94957
37 1 12.5797 6.28874 22.0133 -8.9495
35 1 9.43418 6.28874 22.0133 -8.9495
19 1 6.28925 3.14434 22.0137 -8.94962
25 1 15.7247 3.14434 22.0137 -8.94962
31 1 3.14428 6.28928 22.0137 -8.94959
3 1 3.14454 5.3423e-16 22.0138 -8.94958
13 1 18.8694 1.92097e-15 22.0138 -8.94958
15 1 5.62687e-16 3.1446 22.0138 -8.94954
176 1 1.57226 1.57236 11.007 -8.9496
182 1 20.4416 1.57236 11.007 -8.9496
344 1 1.57209 11.007 1.5722 -8.9496
345 1 4.7163 11.007 1.57162 -8.94952
346 1 7.86097 11.007 1.57009 -8.9496
347 1 11.007 11.007 1.56756 -8.95392
348 1 14.1529 11.007 1.57009 -8.9496
349 1 17.2976 11.007 1.57162 -8.94952
350 1 20.4418 11.007 1.5722 -8.9496
688 2 10.2869 11.007 9.43453 0.52577
352 1 1.57208 14.152 1.57221 -8.94962
353 1 3.14426 12.5795 -0.000224887 -8.94957
354 1 4.71626 14.1523 1.5717 -8.9496
687 2 11.727 11.007 9.43453 0.52577
356 1 7.86076 14.1532 1.57028 -8.9497
357 1 9.43389 12.58 -0.00154692 -8.95023
358 1 11.007 14.153 1.57023 -8.94937
359 1 12.58 12.58 -0.00154692 -8.95023
360 1 14.1531 14.1532 1.57028 -8.9497
511 1 18.8693 18.8692 9.43453 -8.94962
362 1 17.2976 14.1523 1.5717 -8.9496
363 1 18.8696 12.5795 -0.000224887 -8.94957
364 1 20.4418 14.152 1.57221 -8.94962
365 1 4.13933e-16 15.7245 -8.86815e-05 -8.9496
366 1 1.57211 17.297 1.57225 -8.94957
510 1 15.7247 18.8696 9.43453 -8.94913
368 1 4.71642 17.2974 1.57185 -8.94924
369 1 6.28877 15.7251 -0.000599408 -8.94957
370 1 7.86157 17.2976 1.57171 -8.94963
509 1 12.5795 18.8712 9.43453 -8.95185
372 1 11.007 17.2976 1.57162 -8.94958
508 1 9.43437 18.8712 9.43453 -8.95185
374 1 14.1523 17.2976 1.57171 -8.94963
375 1 15.7251 15.7251 -0.000599408 -8.94957
376 1 17.2975 17.2974 1.57185 -8.94924
507 1 6.28916 18.8696 9.43453 -8.94913
378 1 20.4418 17.297 1.57225 -8.94957
525 1 20.4415 14.1518 11.0068 -8.94957
380 1 1.57221 20.4416 1.57234 -8.94957
381 1 3.14441 18.8694 -0.000142717 -8.94946
382 1 4.71683 20.4417 1.57217 -8.94963
506 1 3.14457 18.8692 9.43453 -8.94962
384 1 7.86181 20.4418 1.57209 -8.94962
385 1 9.43436 18.8696 -0.00026173 -8.9496
386 1 11.007 20.4418 1.57206 -8.94961
387 1 12.5795 18.8696 -0.00026173 -8.9496
388 1 14.1521 20.4418 1.57209 -8.94962
505 1 -7.56444e-17 18.8691 9.43453 -8.94961
390 1 17.2971 20.4417 1.57217 -8.94963
391 1 18.8695 18.8694 -0.000142717 -8.94946
392 1 20.4417 20.4416 1.57234 -8.94957
393 1 1.57202 11.007 4.71707 -8.94971
394 1 4.71586 11.007 4.71596 -8.94895
395 1 7.86009 11.007 4.71206 -8.95033
396 1 11.007 11.007 4.69802 -8.97884
397 1 14.1538 11.007 4.71206 -8.95033
398 1 17.298 11.007 4.71596 -8.94895
399 1 20.4419 11.007 4.71707 -8.94971
400 1 4.76367e-16 12.5795 3.14467 -8.94966
401 1 1.572 14.152 4.71712 -8.94988
402 1 3.14405 12.5796 3.14433 -8.94957
403 1 4.71562 14.1527 4.71618 -8.94957
404 1 6.28809 12.58 3.14285 -8.94969
405 1 7.85834 14.1558 4.71219 -8.9459
406 1 9.43251 12.5815 3.13904 -8.94935
407 1 11.007 14.1539 4.71281 -8.94949
408 1 12.5814 12.5815 3.13904 -8.94935
409 1 14.1556 14.1558 4.71219 -8.9459
410 1 15.7258 12.58 3.14285 -8.94969
411 1 17.2983 14.1527 4.71618 -8.94957
412 1 18.8698 12.5796 3.14433 -8.94957
413 1 20.4419 14.152 4.71712 -8.94988
414 1 5.64002e-17 15.7245 3.14471 -8.94971
415 1 1.57217 17.2968 4.71726 -8.94975
416 1 3.14403 15.7248 3.14442 -8.94957
417 1 4.71639 17.2974 4.71675 -8.94935
418 1 6.28799 15.7259 3.14309 -8.94843
419 1 7.86129 17.2982 4.71616 -8.95028
420 1 9.43402 15.7258 3.14309 -8.94939
421 1 11.007 17.2981 4.71588 -8.94956
422 1 12.5799 15.7258 3.14309 -8.94939
423 1 14.1526 17.2982 4.71616 -8.95028
424 1 15.7259 15.7259 3.14309 -8.94843
425 1 17.2975 17.2974 4.71675 -8.94935
426 1 18.8699 15.7248 3.14442 -8.94957
427 1 20.4417 17.2968 4.71726 -8.94975
428 1 2.25058e-16 18.8692 3.14481 -8.94967
429 1 1.57224 20.4416 4.71724 -8.94963
430 1 3.14436 18.8694 3.14464 -8.94955
431 1 4.71672 20.4418 4.71699 -8.94957
432 1 6.28905 18.8698 3.1443 -8.94974
433 1 7.86166 20.442 4.71679 -8.9497
434 1 9.43428 18.8699 3.14416 -8.9496
435 1 11.007 20.442 4.71672 -8.94966
436 1 12.5796 18.8699 3.14416 -8.9496
437 1 14.1522 20.442 4.71679 -8.9497
438 1 15.7249 18.8698 3.1443 -8.94974
439 1 17.2972 20.4418 4.71699 -8.94957
440 1 18.8695 18.8694 3.14464 -8.94955
441 1 20.4417 20.4416 4.71724 -8.94963
442 1 1.57239 11.007 7.86227 -8.94983
443 1 4.71682 11.007 7.86183 -8.95129
444 1 7.85775 11.007 7.85351 -9.04156
445 1 11.007 11.007 7.73284 -9.34254
446 1 14.1561 11.007 7.85351 -9.04156
447 1 17.2971 11.007 7.86183 -8.95129
448 1 20.4415 11.007 7.86227 -8.94983
449 1 9.05106e-16 12.5794 6.28974 -8.94997
450 1 1.57243 14.1518 7.86224 -8.94957
451 1 3.14408 12.5795 6.28941 -8.95041
452 1 4.71729 14.1516 7.86241 -8.95135
453 1 6.28647 12.5805 6.28678 -8.95068
454 1 7.85919 14.1552 7.85786 -8.97986
455 1 9.42394 12.59 6.27702 -9.0222
456 1 11.007 14.1521 7.85692 -9.05835
457 1 12.59 12.59 6.27702 -9.0222
458 1 14.1547 14.1552 7.85786 -8.97986
459 1 15.7274 12.5805 6.28678 -8.95068
460 1 17.2966 14.1516 7.86241 -8.95135
461 1 18.8698 12.5795 6.28941 -8.95041
462 1 20.4415 14.1518 7.86224 -8.94957
463 1 4.53967e-16 15.7243 6.28979 -8.94971
464 1 1.57229 17.2967 7.86215 -8.94959
465 1 3.14444 15.7244 6.28973 -8.95003
466 1 4.7169 17.2969 7.86213 -8.94972
467 1 6.28817 15.7258 6.28828 -8.94847
468 1 7.861 17.2988 7.8612 -8.94919
469 1 9.43394 15.7273 6.28792 -8.95244
470 1 11.007 17.2994 7.86045 -8.94617
471 1 12.58 15.7273 6.28792 -8.95244
472 1 14.1529 17.2988 7.8612 -8.94919
473 1 15.7257 15.7258 6.28828 -8.94847
474 1 17.297 17.2969 7.86213 -8.94972
475 1 18.8695 15.7244 6.28973 -8.95003
476 1 20.4416 17.2967 7.86215 -8.94959
477 1 7.59986e-16 18.8691 6.28971 -8.94961
478 1 1.57226 20.4415 7.86211 -8.9496
479 1 3.1445 18.8692 6.28967 -8.94967
480 1 4.71682 20.4416 7.86205 -8.94949
481 1 6.2889 18.8699 6.28919 -8.94953
482 1 7.86159 20.4421 7.86185 -8.94982
483 1 9.43415 18.8704 6.28897 -8.94966
484 1 11.007 20.4423 7.86168 -8.94966
485 1 12.5798 18.8704 6.28897 -8.94966
486 1 14.1523 20.4421 7.86185 -8.94982
487 1 15.725 18.8699 6.28919 -8.94953
488 1 17.2971 20.4416 7.86205 -8.94949
489 1 18.8694 18.8692 6.28967 -8.94967
490 1 20.4416 20.4415 7.86211 -8.9496
491 1 1.22448e-15 12.5794 9.43453 -8.94911
492 1 3.14547 12.5793 9.43453 -8.94801
493 1 6.2939 12.577 9.43453 -8.99726
494 1 9.41466 12.6209 9.43453 -9.24056
495 1 12.5992 12.6209 9.43453 -9.24056
496 1 15.72 12.577 9.43453 -8.99726
497 1 18.8684 12.5793 9.43453 -8.94801
498 1 6.77873e-16 15.7243 9.43453 -8.9496
499 1 3.14478 15.7243 9.43453 -8.94939
500 1 6.28996 15.7245 9.43453 -8.94892
501 1 9.43499 15.7329 9.43453 -8.96332
502 1 12.5789 15.7329 9.43453 -8.96332
503 1 15.7239 15.7245 9.43453 -8.94892
504 1 18.8691 15.7243 9.43453 -8.94939
512 1 1.57239 11.007 11.0068 -8.94983
513 1 4.71682 11.007 11.0072 -8.95129
517 1 17.2971 11.007 11.0072 -8.95129
518 1 20.4415 11.007 11.0068 -8.94983
519 1 1.57243 14.1518 11.0068 -8.94957
520 1 4.71729 14.1516 11.0066 -8.95135
521 1 7.85919 14.1552 11.0112 -8.97986
522 1 11.007 14.1521 11.0121 -9.05835
523 1 14.1547 14.1552 11.0112 -8.97986
524 1 17.2966 14.1516 11.0066 -8.95135
527 1 4.7169 17.2969 11.0069 -8.94972
531 1 17.297 17.2969 11.0069 -8.94972
534 1 4.71682 20.4416 11.007 -8.94949
538 1 17.2971 20.4416 11.007 -8.94949
686 1 20.4417 20.4416 20.4415 -8.94949
685 1 18.8695 18.8694 18.8692 -8.94946
514 1 7.85775 11.007 11.0156 -9.04156
515 1 11.007 11.007 11.1362 -9.34254
516 1 14.1561 11.007 11.0156 -9.04156
684 1 17.297 20.4417 20.4415 -8.94961
683 1 15.7247 18.8696 18.8693 -8.94962
682 1 14.152 20.4417 20.4415 -8.94961
681 1 12.5795 18.8696 18.8693 -8.9496
680 1 11.007 20.4417 20.4415 -8.94961
679 1 9.43436 18.8696 18.8693 -8.9496
678 1 7.86188 20.4417 20.4415 -8.94961
677 1 6.28925 18.8696 18.8693 -8.94962
676 1 4.71692 20.4417 20.4415 -8.94961
526 1 1.57229 17.2967 11.0069 -8.94959
389 1 15.7247 18.8696 22.0137 -8.94962
528 1 7.861 17.2988 11.0079 -8.94919
529 1 11.007 17.2994 11.0086 -8.94617
530 1 14.1529 17.2988 11.0079 -8.94919
383 1 6.28925 18.8696 22.0137 -8.94962
532 1 20.4416 17.2967 11.0069 -8.94959
675 1 3.14441 18.8694 18.8692 -8.94946
377 1 18.8696 15.7246 22.0137 -8.94959
535 1 7.86159 20.4421 11.0072 -8.94982
536 1 11.007 20.4423 11.0074 -8.94966
537 1 14.1523 20.4421 11.0072 -8.94982
373 1 12.5797 15.7252 22.0133 -8.9495
674 1 1.57223 20.4416 20.4415 -8.94949
540 1 1.57202 11.007 14.152 -8.94971
541 1 4.71586 11.007 14.1531 -8.94895
542 1 7.86009 11.007 14.157 -8.95033
543 1 11.007 11.007 14.171 -8.97884
544 1 14.1538 11.007 14.157 -8.95033
545 1 17.298 11.007 14.1531 -8.94895
546 1 20.4419 11.007 14.152 -8.94971
547 1 3.74932e-17 12.5794 12.5793 -8.94997
548 1 1.572 14.152 14.1519 -8.94988
549 1 3.14408 12.5795 12.5796 -8.95041
550 1 4.71562 14.1527 14.1529 -8.94957
551 1 6.28647 12.5805 12.5823 -8.95068
552 1 7.85834 14.1558 14.1569 -8.9459
553 1 9.42394 12.59 12.592 -9.0222
554 1 11.007 14.1539 14.1563 -8.94949
555 1 12.59 12.59 12.592 -9.0222
556 1 14.1556 14.1558 14.1569 -8.9459
557 1 15.7274 12.5805 12.5823 -8.95068
558 1 17.2983 14.1527 14.1529 -8.94957
559 1 18.8698 12.5795 12.5796 -8.95041
560 1 20.4419 14.152 14.1519 -8.94988
561 1 2.68631e-16 15.7243 12.5793 -8.94971
562 1 1.57217 17.2968 14.1518 -8.94975
563 1 3.14444 15.7244 12.5793 -8.95003
564 1 4.71639 17.2974 14.1523 -8.94935
565 1 6.28817 15.7258 12.5808 -8.94847
566 1 7.86129 17.2982 14.1529 -8.95028
567 1 9.43394 15.7273 12.5811 -8.95244
568 1 11.007 17.2981 14.1532 -8.94956
569 1 12.58 15.7273 12.5811 -8.95244
570 1 14.1526 17.2982 14.1529 -8.95028
571 1 15.7257 15.7258 12.5808 -8.94847
572 1 17.2975 17.2974 14.1523 -8.94935
573 1 18.8695 15.7244 12.5793 -8.95003
574 1 20.4417 17.2968 14.1518 -8.94975
575 1 6.11261e-17 18.8691 12.5793 -8.94961
576 1 1.57224 20.4416 14.1518 -8.94963
577 1 3.1445 18.8692 12.5794 -8.94967
578 1 4.71672 20.4418 14.1521 -8.94957
579 1 6.2889 18.8699 12.5799 -8.94953
580 1 7.86166 20.442 14.1523 -8.9497
581 1 9.43415 18.8704 12.5801 -8.94966
582 1 11.007 20.442 14.1523 -8.94966
583 1 12.5798 18.8704 12.5801 -8.94966
584 1 14.1522 20.442 14.1523 -8.9497
585 1 15.725 18.8699 12.5799 -8.94953
586 1 17.2972 20.4418 14.1521 -8.94957
587 1 18.8694 18.8692 12.5794 -8.94967
588 1 20.4417 20.4416 14.1518 -8.94963
589 1 1.57209 11.007 17.2969 -8.9496
590 1 4.7163 11.007 17.2974 -8.94952
591 1 7.86097 11.007 17.299 -8.9496
592 1 11.007 11.007 17.3015 -8.95392
593 1 14.1529 11.007 17.299 -8.9496
594 1 17.2976 11.007 17.2974 -8.94952
595 1 20.4418 11.007 17.2969 -8.9496
596 1 1.01379e-15 12.5795 15.7244 -8.94966
597 1 1.57208 14.152 17.2968 -8.94962
598 1 3.14405 12.5796 15.7247 -8.94957
599 1 4.71626 14.1523 17.2974 -8.9496
600 1 6.28809 12.58 15.7262 -8.94969
601 1 7.86076 14.1532 17.2988 -8.9497
602 1 9.43251 12.5815 15.73 -8.94935
603 1 11.007 14.153 17.2988 -8.94937
604 1 12.5814 12.5815 15.73 -8.94935
605 1 14.1531 14.1532 17.2988 -8.9497
606 1 15.7258 12.58 15.7262 -8.94969
607 1 17.2976 14.1523 17.2974 -8.9496
608 1 18.8698 12.5796 15.7247 -8.94957
609 1 20.4418 14.152 17.2968 -8.94962
610 1 -3.0927e-16 15.7245 15.7243 -8.94971
611 1 1.57211 17.297 17.2968 -8.94957
612 1 3.14403 15.7248 15.7246 -8.94957
613 1 4.71642 17.2974 17.2972 -8.94924
614 1 6.28799 15.7259 15.726 -8.94843
615 1 7.86157 17.2976 17.2973 -8.94963
616 1 9.43402 15.7258 15.726 -8.94939
617 1 11.007 17.2976 17.2974 -8.94958
618 1 12.5799 15.7258 15.726 -8.94939
619 1 14.1523 17.2976 17.2973 -8.94963
620 1 15.7259 15.7259 15.726 -8.94843
621 1 17.2975 17.2974 17.2972 -8.94924
622 1 18.8699 15.7248 15.7246 -8.94957
623 1 20.4418 17.297 17.2968 -8.94957
624 1 5.4998e-16 18.8692 15.7242 -8.94967
625 1 1.57221 20.4416 17.2967 -8.94957
626 1 3.14436 18.8694 15.7244 -8.94955
627 1 4.71683 20.4417 17.2969 -8.94963
628 1 6.28905 18.8698 15.7248 -8.94974
629 1 7.86181 20.4418 17.297 -8.94962
630 1 9.43428 18.8699 15.7249 -8.9496
631 1 11.007 20.4418 17.297 -8.94961
632 1 12.5796 18.8699 15.7249 -8.9496
633 1 14.1521 20.4418 17.297 -8.94962
634 1 15.7249 18.8698 15.7248 -8.94974
635 1 17.2971 20.4417 17.2969 -8.94963
636 1 18.8695 18.8694 15.7244 -8.94955
637 1 20.4417 20.4416 17.2967 -8.94957
638 1 1.57214 11.007 20.4415 -8.94958
639 1 4.71649 11.007 20.4415 -8.94958
640 1 7.86128 11.007 20.4415 -8.94978
641 1 11.007 11.007 20.4415 -8.951
642 1 14.1526 11.007 20.4415 -8.94978
643 1 17.2974 11.007 20.4415 -8.94958
644 1 20.4418 11.007 20.4415 -8.94958
645 1 1.92587e-16 12.5795 18.8692 -8.9496
646 1 1.57214 14.152 20.4415 -8.94958
647 1 3.14426 12.5795 18.8693 -8.94957
648 1 4.7165 14.1522 20.4415 -8.94957
649 1 6.28873 12.5797 18.8697 -8.94959
650 1 7.86129 14.1526 20.4415 -8.94987
651 1 9.43389 12.58 18.8706 -8.95023
652 1 11.007 14.1526 20.4415 -8.94969
653 1 12.58 12.58 18.8706 -8.95023
654 1 14.1526 14.1526 20.4415 -8.94987
655 1 15.7252 12.5797 18.8697 -8.94959
656 1 17.2974 14.1522 20.4415 -8.94957
657 1 18.8696 12.5795 18.8693 -8.94957
658 1 20.4418 14.152 20.4415 -8.94958
659 1 2.086e-16 15.7245 18.8691 -8.9496
660 1 1.57216 17.2969 20.4415 -8.94958
661 1 3.14428 15.7246 18.8693 -8.94959
662 1 4.71661 17.2972 20.4415 -8.9495
663 1 6.28877 15.7251 18.8697 -8.94957
664 1 7.86169 17.2974 20.4415 -8.94956
665 1 9.43418 15.7252 18.8697 -8.9495
666 1 11.007 17.2974 20.4415 -8.94958
667 1 12.5797 15.7252 18.8697 -8.9495
668 1 14.1522 17.2974 20.4415 -8.94956
669 1 15.7251 15.7251 18.8697 -8.94957
670 1 17.2973 17.2972 20.4415 -8.9495
671 1 18.8696 15.7246 18.8693 -8.94959
672 1 20.4417 17.2969 20.4415 -8.94958
673 1 4.88358e-16 18.8693 18.8691 -8.94954
351 1 4.5837e-16 12.5795 22.0138 -8.9496
355 1 6.28873 12.5797 22.0132 -8.94959
361 1 15.7252 12.5797 22.0132 -8.94959
367 1 3.14428 15.7246 22.0137 -8.94959
371 1 9.43418 15.7252 22.0133 -8.9495
379 1 2.67206e-16 18.8693 22.0138 -8.94954
539 1 20.4416 20.4415 11.007 -8.9496
533 1 1.57226 20.4415 11.007 -8.9496
