ITEM: TIMESTEP
70
ITEM: NUMBER OF ATOMS
688
ITEM: BOX BOUNDS pp pp pp
0.0000000000000000e+00 2.2013900999999997e+01
0.0000000000000000e+00 2.2013900999999997e+01
0.0000000000000000e+00 2.2013900999999997e+01
ITEM: ATOMS id type x y z c_pot
1 1 6.64317e-16 1.00271e-15 -3.71734e-06 -8.94952
2 1 1.57219 1.57226 1.57239 -8.94956
196 1 20.4414 7.86214 11.0068 -8.94957
4 1 4.71677 1.57213 1.5722 -8.94963
5 1 6.28932 1.37436e-15 -0.000134116 -8.94961
6 1 7.86177 1.57207 1.57209 -8.94962
175 1 18.8684 9.43458 9.43453 -8.94802
8 1 11.007 1.57206 1.57204 -8.94961
174 1 15.7199 9.43691 9.43453 -8.99727
10 1 14.1521 1.57207 1.57209 -8.94962
11 1 15.7246 1.83754e-15 -0.000134116 -8.94961
12 1 17.2971 1.57213 1.5722 -8.94963
195 1 17.2965 7.86236 11.0067 -8.95135
14 1 20.4417 1.57226 1.57239 -8.94956
194 1 14.1547 7.85871 11.0113 -8.97987
16 1 1.57209 4.7169 1.57228 -8.94957
17 1 3.14435 3.14442 -0.000124917 -8.94946
18 1 4.71636 4.71644 1.57186 -8.94924
173 1 12.5992 9.39303 9.43453 -9.24054
20 1 7.86153 4.71628 1.57168 -8.94963
21 1 9.43433 3.14423 -0.000276057 -8.9496
22 1 11.007 4.71627 1.57157 -8.94958
23 1 12.5796 3.14423 -0.000276057 -8.9496
24 1 14.1524 4.71628 1.57168 -8.94963
172 1 9.41468 9.39303 9.43453 -9.24054
26 1 17.2975 4.71644 1.57186 -8.94924
27 1 18.8695 3.14442 -0.000124917 -8.94946
28 1 20.4418 4.7169 1.57228 -8.94957
29 1 -8.14229e-16 6.28941 -7.27049e-05 -8.9496
30 1 1.57206 7.86186 1.57223 -8.94962
171 1 6.29398 9.43691 9.43453 -8.99727
32 1 4.71621 7.86152 1.57167 -8.9496
33 1 6.28869 6.28873 -0.000620902 -8.94957
34 1 7.86072 7.86067 1.57019 -8.9497
170 1 3.14553 9.43458 9.43453 -8.94802
36 1 11.007 7.86086 1.57012 -8.94937
169 1 9.57144e-16 9.4345 9.43453 -8.94911
38 1 14.1532 7.86067 1.57019 -8.9497
39 1 15.7252 6.28873 -0.000620902 -8.94957
40 1 17.2977 7.86152 1.57167 -8.9496
168 1 18.8691 6.2896 9.43453 -8.94939
42 1 20.4418 7.86186 1.57223 -8.94962
167 1 15.7239 6.28946 9.43453 -8.94893
44 1 3.1442 9.43435 -0.000230392 -8.94957
166 1 12.5789 6.281 9.43453 -8.96332
46 1 9.43385 9.43381 -0.00161385 -8.95023
47 1 12.5801 9.43381 -0.00161385 -8.95023
165 1 9.43502 6.281 9.43453 -8.96332
49 1 18.8697 9.43435 -0.000230392 -8.94957
50 1 8.20054e-16 2.40216e-16 3.14489 -8.94963
51 1 1.57223 1.57235 4.71731 -8.94963
52 1 3.14444 2.36722e-16 3.14473 -8.94957
53 1 4.7167 1.57213 4.71702 -8.94957
54 1 6.28921 -2.63177e-17 3.14453 -8.94967
55 1 7.86165 1.57194 4.71679 -8.9497
56 1 9.43434 6.55804e-16 3.14443 -8.94966
57 1 11.007 1.57192 4.71671 -8.94966
58 1 12.5796 1.32581e-15 3.14443 -8.94966
59 1 14.1523 1.57194 4.71679 -8.9497
60 1 15.7247 8.74435e-16 3.14453 -8.94967
61 1 17.2972 1.57213 4.71702 -8.94957
62 1 18.8695 5.37349e-16 3.14473 -8.94957
63 1 20.4417 1.57235 4.71731 -8.94963
64 1 4.67361e-16 3.14466 3.14487 -8.94967
65 1 1.57217 4.71709 4.7173 -8.94975
66 1 3.14434 3.14447 3.14468 -8.94955
67 1 4.71639 4.71648 4.71675 -8.94935
68 1 6.28901 3.14408 3.1443 -8.94974
69 1 7.86129 4.71566 4.71611 -8.95028
70 1 9.43427 3.14399 3.14413 -8.9496
71 1 11.007 4.71574 4.71581 -8.94956
72 1 12.5796 3.14399 3.14413 -8.9496
73 1 14.1526 4.71566 4.71611 -8.95028
74 1 15.7249 3.14408 3.1443 -8.94974
75 1 17.2975 4.71648 4.71675 -8.94935
76 1 18.8696 3.14447 3.14468 -8.94955
77 1 20.4417 4.71709 4.7173 -8.94975
78 1 -1.94403e-16 6.28942 3.14475 -8.94971
79 1 1.57201 7.86191 4.71714 -8.94988
80 1 3.14401 6.28912 3.14443 -8.94957
81 1 4.71564 7.86118 4.71615 -8.94957
82 1 6.28796 6.28798 3.14304 -8.94843
83 1 7.85835 7.85812 4.71209 -8.94591
84 1 9.434 6.28807 3.143 -8.9494
85 1 11.007 7.86003 4.71266 -8.94949
86 1 12.5799 6.28807 3.143 -8.9494
87 1 14.1555 7.85812 4.71209 -8.94591
88 1 15.7259 6.28798 3.14304 -8.94843
89 1 17.2983 7.86118 4.71615 -8.94957
90 1 18.8699 6.28912 3.14443 -8.94957
91 1 20.4419 7.86191 4.71714 -8.94988
92 1 4.31223e-16 9.43443 3.14469 -8.94966
93 1 3.14404 9.43432 3.14432 -8.94957
94 1 6.28808 9.4339 3.14276 -8.94969
95 1 9.4325 9.43237 3.13888 -8.94934
96 1 12.5814 9.43237 3.13888 -8.94934
97 1 15.7258 9.4339 3.14276 -8.94969
98 1 18.8699 9.43432 3.14432 -8.94957
99 1 1.02634e-15 1.19675e-15 6.28974 -8.9496
100 1 1.57227 1.57238 7.86213 -8.9496
101 1 3.14452 1.10584e-15 6.28968 -8.94957
102 1 4.71684 1.57228 7.86206 -8.94949
103 1 6.28914 9.03214e-16 6.28943 -8.9497
104 1 7.86161 1.57183 7.86185 -8.94982
105 1 9.43425 7.22909e-16 6.28926 -8.9497
106 1 11.007 1.57156 7.86167 -8.94966
107 1 12.5796 1.39196e-15 6.28926 -8.9497
108 1 14.1523 1.57183 7.86185 -8.94982
109 1 15.7248 1.64171e-15 6.28943 -8.9497
110 1 17.2971 1.57228 7.86206 -8.94949
111 1 18.8694 9.34434e-16 6.28968 -8.94957
112 1 20.4416 1.57238 7.86213 -8.9496
113 1 2.16144e-16 3.14478 6.28976 -8.94961
114 1 1.57231 4.71721 7.86217 -8.94959
115 1 3.14451 3.1447 6.28971 -8.94967
116 1 4.71694 4.71709 7.86213 -8.94972
117 1 6.28891 3.14399 6.28919 -8.94953
118 1 7.86104 4.71516 7.86118 -8.94919
119 1 9.43415 3.14352 6.28894 -8.94966
120 1 11.007 4.71453 7.86042 -8.94617
121 1 12.5797 3.14352 6.28894 -8.94966
122 1 14.1529 4.71516 7.86118 -8.94919
123 1 15.725 3.14399 6.28919 -8.94953
124 1 17.297 4.71709 7.86213 -8.94972
125 1 18.8694 3.1447 6.28971 -8.94967
126 1 20.4416 4.71721 7.86217 -8.94959
127 1 1.55011e-16 6.28965 6.28982 -8.94971
128 1 1.57246 7.86214 7.86225 -8.94957
129 1 3.14447 6.28956 6.28974 -8.95003
130 1 4.71735 7.86236 7.86239 -8.95135
131 1 6.2882 6.28807 6.28824 -8.94846
132 1 7.85924 7.85871 7.85781 -8.97987
133 1 9.43396 6.28665 6.28784 -8.95244
134 1 11.007 7.86186 7.85687 -9.05835
135 1 12.5799 6.28665 6.28784 -8.95244
136 1 14.1547 7.85871 7.85781 -8.97987
137 1 15.7257 6.28807 6.28824 -8.94846
138 1 17.2965 7.86236 7.86239 -8.95135
139 1 18.8694 6.28956 6.28974 -8.95003
140 1 20.4414 7.86214 7.86225 -8.94957
141 1 5.67403e-16 9.43452 6.28976 -8.94997
142 1 3.14412 9.43442 6.2894 -8.95041
143 1 6.28652 9.43336 6.28671 -8.95067
144 1 9.42398 9.42392 6.27689 -9.02222
145 1 12.5899 9.42392 6.27689 -9.02222
146 1 15.7274 9.43336 6.28671 -8.95067
147 1 18.8698 9.43442 6.2894 -8.95041
148 1 6.16694e-16 1.60461e-15 9.43453 -8.9496
149 1 3.14456 1.33583e-15 9.43453 -8.94958
150 1 6.28921 1.31458e-15 9.43453 -8.9495
151 1 9.43431 1.06401e-15 9.43453 -8.9502
152 1 12.5796 8.30908e-16 9.43453 -8.9502
153 1 15.7247 8.4231e-16 9.43453 -8.9495
154 1 18.8693 1.48568e-15 9.43453 -8.94958
155 1 5.69686e-16 3.1448 9.43453 -8.94961
156 1 3.14459 3.14474 9.43453 -8.94962
157 1 6.2892 3.14431 9.43453 -8.94913
158 1 9.43439 3.14274 9.43453 -8.95185
159 1 12.5795 3.14274 9.43453 -8.95185
160 1 15.7247 3.14431 9.43453 -8.94913
161 1 18.8693 3.14474 9.43453 -8.94962
162 1 1.4056e-16 6.28967 9.43453 -8.9496
163 1 3.14483 6.2896 9.43453 -8.94939
164 1 6.29003 6.28946 9.43453 -8.94893
193 1 11.007 7.86186 11.0122 -9.05835
192 1 7.85924 7.85871 11.0113 -8.97987
190 1 1.57246 7.86214 11.0068 -8.94957
191 1 4.71735 7.86236 11.0067 -8.95135
177 1 4.71684 1.57228 11.007 -8.94949
181 1 17.2971 1.57228 11.007 -8.94949
184 1 4.71694 4.71709 11.0069 -8.94972
188 1 17.297 4.71709 11.0069 -8.94972
7 1 9.43438 1.04501e-15 -0.000168903 -8.94961
9 1 12.5795 1.76341e-15 -0.000168903 -8.94961
343 1 18.8697 9.43435 18.8693 -8.94957
48 1 15.7252 9.43414 22.0132 -8.94959
178 1 7.86161 1.57183 11.0072 -8.94982
179 1 11.007 1.57156 11.0074 -8.94966
180 1 14.1523 1.57183 11.0072 -8.94982
45 1 6.28866 9.43414 22.0132 -8.94959
342 1 15.7252 9.43414 18.8698 -8.94959
183 1 1.57231 4.71721 11.0069 -8.94959
43 1 9.20844e-17 9.43442 22.0138 -8.9496
185 1 7.86104 4.71516 11.0079 -8.94919
186 1 11.007 4.71453 11.0086 -8.94617
187 1 14.1529 4.71516 11.0079 -8.94919
41 1 18.8697 6.28924 22.0137 -8.94959
189 1 20.4416 4.71721 11.0069 -8.94959
341 1 12.5801 9.43381 18.8707 -8.95023
340 1 9.43385 9.43381 18.8707 -8.95023
339 1 6.28866 9.43414 18.8698 -8.94959
338 1 3.1442 9.43435 18.8693 -8.94957
337 1 7.28906e-16 9.43442 18.8691 -8.9496
336 1 20.4418 7.86187 20.4415 -8.94958
335 1 18.8697 6.28924 18.8693 -8.94959
197 1 4.57711e-17 1.00617e-15 12.5793 -8.9496
198 1 1.57223 1.57235 14.1518 -8.94963
199 1 3.14452 1.17421e-15 12.5794 -8.94957
200 1 4.7167 1.57213 14.152 -8.94957
201 1 6.28914 1.28829e-15 12.5796 -8.9497
202 1 7.86165 1.57194 14.1523 -8.9497
203 1 9.43425 1.12306e-15 12.5798 -8.9497
204 1 11.007 1.57192 14.1524 -8.94966
205 1 12.5796 4.02678e-16 12.5798 -8.9497
206 1 14.1523 1.57194 14.1523 -8.9497
207 1 15.7248 -3.75696e-16 12.5796 -8.9497
208 1 17.2972 1.57213 14.152 -8.94957
209 1 18.8694 1.67392e-15 12.5794 -8.94957
210 1 20.4417 1.57235 14.1518 -8.94963
211 1 -4.78209e-17 3.14478 12.5793 -8.94961
212 1 1.57217 4.71709 14.1518 -8.94975
213 1 3.14451 3.1447 12.5794 -8.94967
214 1 4.71639 4.71648 14.1523 -8.94935
215 1 6.28891 3.14399 12.5799 -8.94953
216 1 7.86129 4.71566 14.1529 -8.95028
217 1 9.43415 3.14352 12.5801 -8.94966
218 1 11.007 4.71574 14.1532 -8.94956
219 1 12.5797 3.14352 12.5801 -8.94966
220 1 14.1526 4.71566 14.1529 -8.95028
221 1 15.725 3.14399 12.5799 -8.94953
222 1 17.2975 4.71648 14.1523 -8.94935
223 1 18.8694 3.1447 12.5794 -8.94967
224 1 20.4417 4.71709 14.1518 -8.94975
225 1 -4.84375e-17 6.28965 12.5792 -8.94971
226 1 1.57201 7.86191 14.1519 -8.94988
227 1 3.14447 6.28956 12.5793 -8.95003
228 1 4.71564 7.86118 14.1529 -8.94957
229 1 6.2882 6.28807 12.5808 -8.94846
230 1 7.85835 7.85812 14.157 -8.94591
231 1 9.43396 6.28665 12.5812 -8.95244
232 1 11.007 7.86003 14.1564 -8.94949
233 1 12.5799 6.28665 12.5812 -8.95244
234 1 14.1555 7.85812 14.157 -8.94591
235 1 15.7257 6.28807 12.5808 -8.94846
236 1 17.2983 7.86118 14.1529 -8.94957
237 1 18.8694 6.28956 12.5793 -8.95003
238 1 20.4419 7.86191 14.1519 -8.94988
239 1 9.27775e-16 9.43452 12.5793 -8.94997
240 1 3.14412 9.43442 12.5797 -8.95041
241 1 6.28652 9.43336 12.5824 -8.95067
242 1 9.42398 9.42392 12.5922 -9.02222
243 1 12.5899 9.42392 12.5922 -9.02222
244 1 15.7274 9.43336 12.5824 -8.95067
245 1 18.8698 9.43442 12.5797 -8.95041
246 1 -7.33645e-17 8.59582e-17 15.7242 -8.94963
247 1 1.57219 1.57226 17.2967 -8.94956
248 1 3.14444 1.38687e-16 15.7243 -8.94957
249 1 4.71677 1.57213 17.2969 -8.94963
250 1 6.28921 9.52282e-16 15.7245 -8.94967
251 1 7.86177 1.57207 17.297 -8.94962
252 1 9.43434 1.46896e-15 15.7246 -8.94966
253 1 11.007 1.57206 17.297 -8.94961
254 1 12.5796 4.19151e-16 15.7246 -8.94966
255 1 14.1521 1.57207 17.297 -8.94962
256 1 15.7247 -3.5992e-16 15.7245 -8.94967
257 1 17.2971 1.57213 17.2969 -8.94963
258 1 18.8695 3.84544e-17 15.7243 -8.94957
259 1 20.4417 1.57226 17.2967 -8.94956
260 1 1.51101e-16 3.14466 15.7242 -8.94967
261 1 1.57209 4.7169 17.2968 -8.94957
262 1 3.14434 3.14447 15.7244 -8.94955
263 1 4.71636 4.71644 17.2972 -8.94924
264 1 6.28901 3.14408 15.7248 -8.94974
265 1 7.86153 4.71628 17.2974 -8.94963
266 1 9.43427 3.14399 15.7249 -8.9496
267 1 11.007 4.71627 17.2975 -8.94958
268 1 12.5796 3.14399 15.7249 -8.9496
269 1 14.1524 4.71628 17.2974 -8.94963
270 1 15.7249 3.14408 15.7248 -8.94974
271 1 17.2975 4.71644 17.2972 -8.94924
272 1 18.8696 3.14447 15.7244 -8.94955
273 1 20.4418 4.7169 17.2968 -8.94957
274 1 1.16198e-16 6.28942 15.7243 -8.94971
275 1 1.57206 7.86186 17.2968 -8.94962
276 1 3.14401 6.28912 15.7246 -8.94957
277 1 4.71621 7.86152 17.2974 -8.9496
278 1 6.28796 6.28798 15.726 -8.94843
279 1 7.86072 7.86067 17.2989 -8.9497
280 1 9.434 6.28807 15.7261 -8.9494
281 1 11.007 7.86086 17.2989 -8.94937
282 1 12.5799 6.28807 15.7261 -8.9494
283 1 14.1532 7.86067 17.2989 -8.9497
284 1 15.7259 6.28798 15.726 -8.94843
285 1 17.2977 7.86152 17.2974 -8.9496
286 1 18.8699 6.28912 15.7246 -8.94957
287 1 20.4418 7.86186 17.2968 -8.94962
288 1 6.17166e-16 9.43443 15.7244 -8.94966
289 1 3.14404 9.43432 15.7247 -8.94957
290 1 6.28808 9.4339 15.7263 -8.94969
291 1 9.4325 9.43237 15.7302 -8.94934
292 1 12.5814 9.43237 15.7302 -8.94934
293 1 15.7258 9.4339 15.7263 -8.94969
294 1 18.8699 9.43432 15.7247 -8.94957
295 1 1.00283e-16 2.73542e-16 18.8691 -8.94952
296 1 1.5722 1.57224 20.4415 -8.94949
297 1 3.14449 8.70503e-16 18.8691 -8.94958
298 1 4.71685 1.57217 20.4415 -8.94961
299 1 6.28932 1.64989e-15 18.8692 -8.94961
300 1 7.86182 1.57213 20.4415 -8.94961
301 1 9.43438 5.12893e-16 18.8692 -8.94961
302 1 11.007 1.57212 20.4415 -8.94961
303 1 12.5795 5.78047e-16 18.8692 -8.94961
304 1 14.1521 1.57213 20.4415 -8.94961
305 1 15.7246 6.12266e-16 18.8692 -8.94961
306 1 17.2971 1.57217 20.4415 -8.94961
307 1 18.8694 1.05117e-15 18.8691 -8.94958
308 1 20.4417 1.57224 20.4415 -8.94949
309 1 9.26047e-17 3.14457 18.8691 -8.94954
310 1 1.57213 4.71692 20.4415 -8.94958
311 1 3.14435 3.14442 18.8692 -8.94946
312 1 4.71654 4.71659 20.4415 -8.94949
313 1 6.28918 3.14428 18.8693 -8.94962
314 1 7.86162 4.71647 20.4415 -8.94956
315 1 9.43433 3.14423 18.8693 -8.9496
316 1 11.007 4.71645 20.4415 -8.94958
317 1 12.5796 3.14423 18.8693 -8.9496
318 1 14.1523 4.71647 20.4415 -8.94956
319 1 15.7247 3.14428 18.8693 -8.94962
320 1 17.2974 4.71659 20.4415 -8.94949
321 1 18.8695 3.14442 18.8692 -8.94946
322 1 20.4418 4.71692 20.4415 -8.94958
323 1 1.0891e-15 6.28941 18.8691 -8.9496
324 1 1.5721 7.86187 20.4415 -8.94958
325 1 3.14422 6.28924 18.8693 -8.94959
326 1 4.71642 7.86164 20.4415 -8.94957
327 1 6.28869 6.28873 18.8697 -8.94957
328 1 7.86123 7.86122 20.4415 -8.94987
329 1 9.43415 6.28866 18.8697 -8.9495
330 1 11.007 7.86119 20.4415 -8.94969
331 1 12.5798 6.28866 18.8697 -8.9495
332 1 14.1527 7.86122 20.4415 -8.94987
333 1 15.7252 6.28873 18.8697 -8.94957
334 1 17.2975 7.86164 20.4415 -8.94957
37 1 12.5798 6.28866 22.0132 -8.9495
35 1 9.43415 6.28866 22.0132 -8.9495
19 1 6.28918 3.14428 22.0137 -8.94962
25 1 15.7247 3.14428 22.0137 -8.94962
31 1 3.14422 6.28924 22.0137 -8.94959
3 1 3.14449 5.55145e-16 22.0138 -8.94958
13 1 18.8694 3.11216e-16 22.0138 -8.94958
15 1 1.99099e-16 3.14457 22.0139 -8.94954
176 1 1.57227 1.57238 11.0069 -8.9496
182 1 20.4416 1.57238 11.0069 -8.9496
344 1 1.57207 11.007 1.5722 -8.9496
345 1 4.71625 11.007 1.57158 -8.94952
346 1 7.86093 11.007 1.56999 -8.94959
347 1 11.007 11.007 1.56741 -8.95395
348 1 14.153 11.007 1.56999 -8.94959
349 1 17.2976 11.007 1.57158 -8.94952
350 1 20.4418 11.007 1.5722 -8.9496
688 2 10.2869 11.007 9.43453 0.52575
352 1 1.57206 14.152 1.57223 -8.94962
353 1 3.1442 12.5796 -0.000230392 -8.94957
354 1 4.71621 14.1524 1.57167 -8.9496
687 2 11.727 11.007 9.43453 0.52575
356 1 7.86072 14.1532 1.57019 -8.9497
357 1 9.43385 12.5801 -0.00161385 -8.95023
358 1 11.007 14.153 1.57012 -8.94937
359 1 12.5801 12.5801 -0.00161385 -8.95023
360 1 14.1532 14.1532 1.57019 -8.9497
511 1 18.8693 18.8692 9.43453 -8.94962
362 1 17.2977 14.1524 1.57167 -8.9496
363 1 18.8697 12.5796 -0.000230392 -8.94957
364 1 20.4418 14.152 1.57223 -8.94962
365 1 9.18531e-16 15.7245 -7.27049e-05 -8.9496
366 1 1.57209 17.297 1.57228 -8.94957
510 1 15.7247 18.8696 9.43453 -8.94913
368 1 4.71636 17.2975 1.57186 -8.94924
369 1 6.28869 15.7252 -0.000620902 -8.94957
370 1 7.86153 17.2976 1.57168 -8.94963
509 1 12.5795 18.8712 9.43453 -8.95185
372 1 11.007 17.2976 1.57157 -8.94958
508 1 9.43439 18.8712 9.43453 -8.95185
374 1 14.1524 17.2976 1.57168 -8.94963
375 1 15.7252 15.7252 -0.000620902 -8.94957
376 1 17.2975 17.2975 1.57186 -8.94924
507 1 6.2892 18.8696 9.43453 -8.94913
378 1 20.4418 17.297 1.57228 -8.94957
525 1 20.4414 14.1518 11.0068 -8.94957
380 1 1.57219 20.4416 1.57239 -8.94956
381 1 3.14435 18.8695 -0.000124917 -8.94946
382 1 4.71677 20.4418 1.5722 -8.94963
506 1 3.14459 18.8692 9.43453 -8.94962
384 1 7.86177 20.4418 1.57209 -8.94962
385 1 9.43433 18.8697 -0.000276057 -8.9496
386 1 11.007 20.4418 1.57204 -8.94961
387 1 12.5796 18.8697 -0.000276057 -8.9496
388 1 14.1521 20.4418 1.57209 -8.94962
505 1 3.75091e-16 18.8691 9.43453 -8.94961
390 1 17.2971 20.4418 1.5722 -8.94963
391 1 18.8695 18.8695 -0.000124917 -8.94946
392 1 20.4417 20.4416 1.57239 -8.94956
393 1 1.57203 11.007 4.71708 -8.94971
394 1 4.71588 11.007 4.71591 -8.94895
395 1 7.86011 11.007 4.71193 -8.95034
396 1 11.007 11.007 4.69775 -8.97884
397 1 14.1538 11.007 4.71193 -8.95034
398 1 17.298 11.007 4.71591 -8.94895
399 1 20.4419 11.007 4.71708 -8.94971
400 1 9.81191e-17 12.5795 3.14469 -8.94966
401 1 1.57201 14.152 4.71714 -8.94988
402 1 3.14404 12.5796 3.14432 -8.94957
403 1 4.71564 14.1527 4.71615 -8.94957
404 1 6.28808 12.58 3.14276 -8.94969
405 1 7.85835 14.1558 4.71209 -8.94591
406 1 9.4325 12.5815 3.13888 -8.94934
407 1 11.007 14.1539 4.71266 -8.94949
408 1 12.5814 12.5815 3.13888 -8.94934
409 1 14.1555 14.1558 4.71209 -8.94591
410 1 15.7258 12.58 3.14276 -8.94969
411 1 17.2983 14.1527 4.71615 -8.94957
412 1 18.8699 12.5796 3.14432 -8.94957
413 1 20.4419 14.152 4.71714 -8.94988
414 1 -2.10094e-17 15.7245 3.14475 -8.94971
415 1 1.57217 17.2968 4.7173 -8.94975
416 1 3.14401 15.7248 3.14443 -8.94957
417 1 4.71639 17.2974 4.71675 -8.94935
418 1 6.28796 15.7259 3.14304 -8.94843
419 1 7.86129 17.2982 4.71611 -8.95028
420 1 9.434 15.7258 3.143 -8.9494
421 1 11.007 17.2982 4.71581 -8.94956
422 1 12.5799 15.7258 3.143 -8.9494
423 1 14.1526 17.2982 4.71611 -8.95028
424 1 15.7259 15.7259 3.14304 -8.94843
425 1 17.2975 17.2974 4.71675 -8.94935
426 1 18.8699 15.7248 3.14443 -8.94957
427 1 20.4417 17.2968 4.7173 -8.94975
428 1 1.05447e-15 18.8692 3.14487 -8.94967
429 1 1.57223 20.4416 4.71731 -8.94963
430 1 3.14434 18.8694 3.14468 -8.94955
431 1 4.7167 20.4418 4.71702 -8.94957
432 1 6.28901 18.8698 3.1443 -8.94974
433 1 7.86165 20.442 4.71679 -8.9497
434 1 9.43427 18.8699 3.14413 -8.9496
435 1 11.007 20.442 4.71671 -8.94966
436 1 12.5796 18.8699 3.14413 -8.9496
437 1 14.1523 20.442 4.71679 -8.9497
438 1 15.7249 18.8698 3.1443 -8.94974
439 1 17.2972 20.4418 4.71702 -8.94957
440 1 18.8696 18.8694 3.14468 -8.94955
441 1 20.4417 20.4416 4.71731 -8.94963
442 1 1.57242 11.007 7.86228 -8.94983
443 1 4.7169 11.007 7.8618 -8.95129
444 1 7.85781 11.007 7.85345 -9.04156
445 1 11.007 11.007 7.73281 -9.34255
446 1 14.1561 11.007 7.85345 -9.04156
447 1 17.297 11.007 7.8618 -8.95129
448 1 20.4415 11.007 7.86228 -8.94983
449 1 6.92581e-16 12.5794 6.28976 -8.94997
450 1 1.57246 14.1518 7.86225 -8.94957
451 1 3.14412 12.5795 6.2894 -8.95041
452 1 4.71735 14.1515 7.86239 -8.95135
453 1 6.28652 12.5805 6.28671 -8.95067
454 1 7.85924 14.1552 7.85781 -8.97987
455 1 9.42398 12.59 6.27689 -9.02222
456 1 11.007 14.152 7.85687 -9.05835
457 1 12.5899 12.59 6.27689 -9.02222
458 1 14.1547 14.1552 7.85781 -8.97987
459 1 15.7274 12.5805 6.28671 -8.95067
460 1 17.2965 14.1515 7.86239 -8.95135
461 1 18.8698 12.5795 6.2894 -8.95041
462 1 20.4414 14.1518 7.86225 -8.94957
463 1 -3.43609e-17 15.7242 6.28982 -8.94971
464 1 1.57231 17.2967 7.86217 -8.94959
465 1 3.14447 15.7243 6.28974 -8.95003
466 1 4.71694 17.2968 7.86213 -8.94972
467 1 6.2882 15.7258 6.28824 -8.94846
468 1 7.86104 17.2987 7.86118 -8.94919
469 1 9.43396 15.7273 6.28784 -8.95244
470 1 11.007 17.2994 7.86042 -8.94617
471 1 12.5799 15.7273 6.28784 -8.95244
472 1 14.1529 17.2987 7.86118 -8.94919
473 1 15.7257 15.7258 6.28824 -8.94846
474 1 17.297 17.2968 7.86213 -8.94972
475 1 18.8694 15.7243 6.28974 -8.95003
476 1 20.4416 17.2967 7.86217 -8.94959
477 1 4.16814e-16 18.8691 6.28976 -8.94961
478 1 1.57227 20.4415 7.86213 -8.9496
479 1 3.14451 18.8692 6.28971 -8.94967
480 1 4.71684 20.4416 7.86206 -8.94949
481 1 6.28891 18.8699 6.28919 -8.94953
482 1 7.86161 20.4421 7.86185 -8.94982
483 1 9.43415 18.8704 6.28894 -8.94966
484 1 11.007 20.4423 7.86167 -8.94966
485 1 12.5797 18.8704 6.28894 -8.94966
486 1 14.1523 20.4421 7.86185 -8.94982
487 1 15.725 18.8699 6.28919 -8.94953
488 1 17.2971 20.4416 7.86206 -8.94949
489 1 18.8694 18.8692 6.28971 -8.94967
490 1 20.4416 20.4415 7.86213 -8.9496
491 1 1.71499e-15 12.5794 9.43453 -8.94911
492 1 3.14553 12.5793 9.43453 -8.94802
493 1 6.29398 12.577 9.43453 -8.99727
494 1 9.41468 12.6209 9.43453 -9.24054
495 1 12.5992 12.6209 9.43453 -9.24054
496 1 15.7199 12.577 9.43453 -8.99727
497 1 18.8684 12.5793 9.43453 -8.94802
498 1 3.34163e-16 15.7242 9.43453 -8.9496
499 1 3.14483 15.7243 9.43453 -8.94939
500 1 6.29003 15.7244 9.43453 -8.94893
501 1 9.43502 15.7329 9.43453 -8.96332
502 1 12.5789 15.7329 9.43453 -8.96332
503 1 15.7239 15.7244 9.43453 -8.94893
504 1 18.8691 15.7243 9.43453 -8.94939
512 1 1.57242 11.007 11.0068 -8.94983
513 1 4.7169 11.007 11.0073 -8.95129
517 1 17.297 11.007 11.0073 -8.95129
518 1 20.4415 11.007 11.0068 -8.94983
519 1 1.57246 14.1518 11.0068 -8.94957
520 1 4.71735 14.1515 11.0067 -8.95135
521 1 7.85924 14.1552 11.0113 -8.97987
522 1 11.007 14.152 11.0122 -9.05835
523 1 14.1547 14.1552 11.0113 -8.97987
524 1 17.2965 14.1515 11.0067 -8.95135
527 1 4.71694 17.2968 11.0069 -8.94972
531 1 17.297 17.2968 11.0069 -8.94972
534 1 4.71684 20.4416 11.007 -8.94949
538 1 17.2971 20.4416 11.007 -8.94949
686 1 20.4417 20.4417 20.4415 -8.94949
685 1 18.8695 18.8695 18.8692 -8.94946
514 1 7.85781 11.007 11.0156 -9.04156
515 1 11.007 11.007 11.1362 -9.34255
516 1 14.1561 11.007 11.0156 -9.04156
684 1 17.2971 20.4417 20.4415 -8.94961
683 1 15.7247 18.8696 18.8693 -8.94962
682 1 14.1521 20.4418 20.4415 -8.94961
681 1 12.5796 18.8697 18.8693 -8.9496
680 1 11.007 20.4418 20.4415 -8.94961
679 1 9.43433 18.8697 18.8693 -8.9496
678 1 7.86182 20.4418 20.4415 -8.94961
677 1 6.28918 18.8696 18.8693 -8.94962
676 1 4.71685 20.4417 20.4415 -8.94961
526 1 1.57231 17.2967 11.0069 -8.94959
389 1 15.7247 18.8696 22.0137 -8.94962
528 1 7.86104 17.2987 11.0079 -8.94919
529 1 11.007 17.2994 11.0086 -8.94617
530 1 14.1529 17.2987 11.0079 -8.94919
383 1 6.28918 18.8696 22.0137 -8.94962
532 1 20.4416 17.2967 11.0069 -8.94959
675 1 3.14435 18.8695 18.8692 -8.94946
377 1 18.8697 15.7247 22.0137 -8.94959
535 1 7.86161 20.4421 11.0072 -8.94982
536 1 11.007 20.4423 11.0074 -8.94966
537 1 14.1523 20.4421 11.0072 -8.94982
373 1 12.5798 15.7252 22.0132 -8.9495
674 1 1.5722 20.4417 20.4415 -8.94949
540 1 1.57203 11.007 14.152 -8.94971
541 1 4.71588 11.007 14.1531 -8.94895
542 1 7.86011 11.007 14.1571 -8.95034
543 1 11.007 11.007 14.1713 -8.97884
544 1 14.1538 11.007 14.1571 -8.95034
545 1 17.298 11.007 14.1531 -8.94895
546 1 20.4419 11.007 14.152 -8.94971
547 1 1.76164e-15 12.5794 12.5793 -8.94997
548 1 1.57201 14.152 14.1519 -8.94988
549 1 3.14412 12.5795 12.5797 -8.95041
550 1 4.71564 14.1527 14.1529 -8.94957
551 1 6.28652 12.5805 12.5824 -8.95067
552 1 7.85835 14.1558 14.157 -8.94591
553 1 9.42398 12.59 12.5922 -9.02222
554 1 11.007 14.1539 14.1564 -8.94949
555 1 12.5899 12.59 12.5922 -9.02222
556 1 14.1555 14.1558 14.157 -8.94591
557 1 15.7274 12.5805 12.5824 -8.95067
558 1 17.2983 14.1527 14.1529 -8.94957
559 1 18.8698 12.5795 12.5797 -8.95041
560 1 20.4419 14.152 14.1519 -8.94988
561 1 1.24015e-16 15.7242 12.5792 -8.94971
562 1 1.57217 17.2968 14.1518 -8.94975
563 1 3.14447 15.7243 12.5793 -8.95003
564 1 4.71639 17.2974 14.1523 -8.94935
565 1 6.2882 15.7258 12.5808 -8.94846
566 1 7.86129 17.2982 14.1529 -8.95028
567 1 9.43396 15.7273 12.5812 -8.95244
568 1 11.007 17.2982 14.1532 -8.94956
569 1 12.5799 15.7273 12.5812 -8.95244
570 1 14.1526 17.2982 14.1529 -8.95028
571 1 15.7257 15.7258 12.5808 -8.94846
572 1 17.2975 17.2974 14.1523 -8.94935
573 1 18.8694 15.7243 12.5793 -8.95003
574 1 20.4417 17.2968 14.1518 -8.94975
575 1 -6.75754e-16 18.8691 12.5793 -8.94961
576 1 1.57223 20.4416 14.1518 -8.94963
577 1 3.14451 18.8692 12.5794 -8.94967
578 1 4.7167 20.4418 14.152 -8.94957
579 1 6.28891 18.8699 12.5799 -8.94953
580 1 7.86165 20.442 14.1523 -8.9497
581 1 9.43415 18.8704 12.5801 -8.94966
582 1 11.007 20.442 14.1524 -8.94966
583 1 12.5797 18.8704 12.5801 -8.94966
584 1 14.1523 20.442 14.1523 -8.9497
585 1 15.725 18.8699 12.5799 -8.94953
586 1 17.2972 20.4418 14.152 -8.94957
587 1 18.8694 18.8692 12.5794 -8.94967
588 1 20.4417 20.4416 14.1518 -8.94963
589 1 1.57207 11.007 17.2969 -8.9496
590 1 4.71625 11.007 17.2975 -8.94952
591 1 7.86093 11.007 17.2991 -8.94959
592 1 11.007 11.007 17.3016 -8.95395
593 1 14.153 11.007 17.2991 -8.94959
594 1 17.2976 11.007 17.2975 -8.94952
595 1 20.4418 11.007 17.2969 -8.9496
596 1 4.62801e-16 12.5795 15.7244 -8.94966
597 1 1.57206 14.152 17.2968 -8.94962
598 1 3.14404 12.5796 15.7247 -8.94957
599 1 4.71621 14.1524 17.2974 -8.9496
600 1 6.28808 12.58 15.7263 -8.94969
601 1 7.86072 14.1532 17.2989 -8.9497
602 1 9.4325 12.5815 15.7302 -8.94934
603 1 11.007 14.153 17.2989 -8.94937
604 1 12.5814 12.5815 15.7302 -8.94934
605 1 14.1532 14.1532 17.2989 -8.9497
606 1 15.7258 12.58 15.7263 -8.94969
607 1 17.2977 14.1524 17.2974 -8.9496
608 1 18.8699 12.5796 15.7247 -8.94957
609 1 20.4418 14.152 17.2968 -8.94962
610 1 -1.514e-16 15.7245 15.7243 -8.94971
611 1 1.57209 17.297 17.2968 -8.94957
612 1 3.14401 15.7248 15.7246 -8.94957
613 1 4.71636 17.2975 17.2972 -8.94924
614 1 6.28796 15.7259 15.726 -8.94843
615 1 7.86153 17.2976 17.2974 -8.94963
616 1 9.434 15.7258 15.7261 -8.9494
617 1 11.007 17.2976 17.2975 -8.94958
618 1 12.5799 15.7258 15.7261 -8.9494
619 1 14.1524 17.2976 17.2974 -8.94963
620 1 15.7259 15.7259 15.726 -8.94843
621 1 17.2975 17.2975 17.2972 -8.94924
622 1 18.8699 15.7248 15.7246 -8.94957
623 1 20.4418 17.297 17.2968 -8.94957
624 1 5.42939e-16 18.8692 15.7242 -8.94967
625 1 1.57219 20.4416 17.2967 -8.94956
626 1 3.14434 18.8694 15.7244 -8.94955
627 1 4.71677 20.4418 17.2969 -8.94963
628 1 6.28901 18.8698 15.7248 -8.94974
629 1 7.86177 20.4418 17.297 -8.94962
630 1 9.43427 18.8699 15.7249 -8.9496
631 1 11.007 20.4418 17.297 -8.94961
632 1 12.5796 18.8699 15.7249 -8.9496
633 1 14.1521 20.4418 17.297 -8.94962
634 1 15.7249 18.8698 15.7248 -8.94974
635 1 17.2971 20.4418 17.2969 -8.94963
636 1 18.8696 18.8694 15.7244 -8.94955
637 1 20.4417 20.4416 17.2967 -8.94956
638 1 1.5721 11.007 20.4415 -8.94958
639 1 4.71642 11.007 20.4415 -8.94958
640 1 7.86122 11.007 20.4415 -8.94978
641 1 11.007 11.007 20.4415 -8.95101
642 1 14.1527 11.007 20.4415 -8.94978
643 1 17.2975 11.007 20.4415 -8.94958
644 1 20.4418 11.007 20.4415 -8.94958
645 1 -4.18374e-16 12.5795 18.8691 -8.9496
646 1 1.5721 14.152 20.4415 -8.94958
647 1 3.1442 12.5796 18.8693 -8.94957
648 1 4.71642 14.1523 20.4415 -8.94957
649 1 6.28866 12.5798 18.8698 -8.94959
650 1 7.86123 14.1527 20.4415 -8.94987
651 1 9.43385 12.5801 18.8707 -8.95023
652 1 11.007 14.1527 20.4415 -8.94969
653 1 12.5801 12.5801 18.8707 -8.95023
654 1 14.1527 14.1527 20.4415 -8.94987
655 1 15.7252 12.5798 18.8698 -8.94959
656 1 17.2975 14.1523 20.4415 -8.94957
657 1 18.8697 12.5796 18.8693 -8.94957
658 1 20.4418 14.152 20.4415 -8.94958
659 1 -2.63849e-16 15.7245 18.8691 -8.9496
660 1 1.57213 17.297 20.4415 -8.94958
661 1 3.14422 15.7247 18.8693 -8.94959
662 1 4.71654 17.2973 20.4415 -8.94949
663 1 6.28869 15.7252 18.8697 -8.94957
664 1 7.86162 17.2974 20.4415 -8.94956
665 1 9.43415 15.7252 18.8697 -8.9495
666 1 11.007 17.2975 20.4415 -8.94958
667 1 12.5798 15.7252 18.8697 -8.9495
668 1 14.1523 17.2974 20.4415 -8.94956
669 1 15.7252 15.7252 18.8697 -8.94957
670 1 17.2974 17.2973 20.4415 -8.94949
671 1 18.8697 15.7247 18.8693 -8.94959
672 1 20.4418 17.297 20.4415 -8.94958
673 1 1.03606e-16 18.8693 18.8691 -8.94954
351 1 -9.95699e-17 12.5795 22.0138 -8.9496
355 1 6.28866 12.5798 22.0132 -8.94959
361 1 15.7252 12.5798 22.0132 -8.94959
367 1 3.14422 15.7247 22.0137 -8.94959
371 1 9.43415 15.7252 22.0132 -8.9495
379 1 6.73407e-16 18.8693 22.0139 -8.94954
539 1 20.4416 20.4415 11.0069 -8.9496
533 1 1.57227 20.4415 11.0069 -8.9496
