ITEM: TIMESTEP
76
ITEM: NUMBER OF ATOMS
688
ITEM: BOX BOUNDS pp pp pp
0.0000000000000000e+00 2.2013900999999997e+01
0.0000000000000000e+00 2.2013900999999997e+01
0.0000000000000000e+00 2.2013900999999997e+01
ITEM: ATOMS id type x y z c_pot
1 1 -1.71851e-16 1.78395e-15 1.95118e-05 -8.94952
2 1 1.57217 1.57226 1.57243 -8.94956
196 1 20.4414 7.86216 11.0068 -8.94957
4 1 4.71674 1.57212 1.57222 -8.94962
5 1 6.28927 1.03569e-15 -0.000126582 -8.94961
6 1 7.86174 1.57206 1.57209 -8.94962
175 1 18.8683 9.43459 9.43453 -8.94802
8 1 11.007 1.57205 1.57203 -8.94961
174 1 15.7199 9.43692 9.43453 -8.99727
10 1 14.1522 1.57206 1.57209 -8.94962
11 1 15.7246 2.43611e-16 -0.000126582 -8.94961
12 1 17.2972 1.57212 1.57222 -8.94962
195 1 17.2965 7.86238 11.0067 -8.95135
14 1 20.4417 1.57226 1.57243 -8.94956
194 1 14.1546 7.85873 11.0113 -8.97988
16 1 1.57207 4.71688 1.57231 -8.94957
17 1 3.14432 3.1444 -0.000110341 -8.94945
18 1 4.71633 4.71642 1.57186 -8.94924
173 1 12.5992 9.39304 9.43453 -9.24053
20 1 7.8615 4.71624 1.57166 -8.94963
21 1 9.43431 3.1442 -0.000284513 -8.9496
22 1 11.007 4.71623 1.57153 -8.94958
23 1 12.5796 3.1442 -0.000284513 -8.9496
24 1 14.1524 4.71624 1.57166 -8.94963
172 1 9.4147 9.39304 9.43453 -9.24053
26 1 17.2976 4.71642 1.57186 -8.94924
27 1 18.8696 3.1444 -0.000110341 -8.94945
28 1 20.4418 4.71688 1.57231 -8.94957
29 1 -6.32711e-16 6.28939 -6.0691e-05 -8.9496
30 1 1.57205 7.86185 1.57224 -8.94962
171 1 6.29402 9.43692 9.43453 -8.99727
32 1 4.71618 7.8615 1.57166 -8.9496
33 1 6.28865 6.28869 -0.000632468 -8.94956
34 1 7.86069 7.86064 1.57014 -8.94969
170 1 3.14557 9.43459 9.43453 -8.94802
36 1 11.007 7.86083 1.57005 -8.94936
169 1 1.16135e-15 9.43452 9.43453 -8.94911
38 1 14.1532 7.86064 1.57014 -8.94969
39 1 15.7252 6.28869 -0.000632468 -8.94956
40 1 17.2977 7.8615 1.57166 -8.9496
168 1 18.869 6.28963 9.43453 -8.94939
42 1 20.4419 7.86185 1.57224 -8.94962
167 1 15.7238 6.28949 9.43453 -8.94893
44 1 3.14417 9.43434 -0.000233198 -8.94956
166 1 12.5789 6.28102 9.43453 -8.96332
46 1 9.43383 9.43379 -0.00165258 -8.95023
47 1 12.5801 9.43379 -0.00165258 -8.95023
165 1 9.43503 6.28102 9.43453 -8.96332
49 1 18.8697 9.43434 -0.000233198 -8.94956
50 1 3.67259e-17 -9.67738e-16 3.14494 -8.94963
51 1 1.57223 1.57235 4.71735 -8.94963
52 1 3.14443 6.701e-16 3.14478 -8.94957
53 1 4.7167 1.57214 4.71705 -8.94957
54 1 6.28919 -3.6702e-16 3.14455 -8.94967
55 1 7.86165 1.57194 4.71679 -8.9497
56 1 9.43433 9.01621e-16 3.14442 -8.94966
57 1 11.007 1.57192 4.7167 -8.94966
58 1 12.5796 2.44429e-15 3.14442 -8.94966
59 1 14.1523 1.57194 4.71679 -8.9497
60 1 15.7247 5.27854e-16 3.14455 -8.94967
61 1 17.2972 1.57214 4.71705 -8.94957
62 1 18.8695 1.6055e-15 3.14478 -8.94957
63 1 20.4417 1.57235 4.71735 -8.94963
64 1 8.16051e-16 3.14466 3.14491 -8.94967
65 1 1.57217 4.7171 4.71734 -8.94975
66 1 3.14432 3.14446 3.14471 -8.94955
67 1 4.71639 4.71649 4.71676 -8.94935
68 1 6.28899 3.14407 3.1443 -8.94974
69 1 7.86129 4.71566 4.71609 -8.95028
70 1 9.43426 3.14397 3.14411 -8.9496
71 1 11.007 4.71574 4.71577 -8.94956
72 1 12.5796 3.14397 3.14411 -8.9496
73 1 14.1526 4.71566 4.71609 -8.95028
74 1 15.7249 3.14407 3.1443 -8.94974
75 1 17.2975 4.71649 4.71676 -8.94935
76 1 18.8696 3.14446 3.14471 -8.94955
77 1 20.4417 4.7171 4.71734 -8.94975
78 1 -3.29284e-16 6.28941 3.14478 -8.94971
79 1 1.57201 7.86191 4.71715 -8.94988
80 1 3.144 6.28911 3.14444 -8.94957
81 1 4.71565 7.86118 4.71613 -8.94957
82 1 6.28795 6.28796 3.14302 -8.94844
83 1 7.85836 7.85812 4.71203 -8.94591
84 1 9.434 6.28804 3.14294 -8.9494
85 1 11.007 7.86002 4.71258 -8.94949
86 1 12.5799 6.28804 3.14294 -8.9494
87 1 14.1555 7.85812 4.71203 -8.94591
88 1 15.7259 6.28796 3.14302 -8.94844
89 1 17.2983 7.86118 4.71613 -8.94957
90 1 18.8699 6.28911 3.14444 -8.94957
91 1 20.4419 7.86191 4.71715 -8.94988
92 1 1.17651e-15 9.43442 3.1447 -8.94966
93 1 3.14403 9.43431 3.14431 -8.94957
94 1 6.28807 9.43389 3.14271 -8.94969
95 1 9.43249 9.43236 3.13878 -8.94933
96 1 12.5814 9.43236 3.13878 -8.94933
97 1 15.7258 9.43389 3.14271 -8.94969
98 1 18.8699 9.43431 3.14431 -8.94957
99 1 1.05504e-15 1.65795e-15 6.28978 -8.9496
100 1 1.57228 1.57239 7.86216 -8.9496
101 1 3.14453 1.92505e-15 6.28971 -8.94957
102 1 4.71686 1.57229 7.86208 -8.94949
103 1 6.28915 7.10771e-16 6.28944 -8.9497
104 1 7.86162 1.57183 7.86185 -8.94982
105 1 9.43426 1.09918e-15 6.28926 -8.9497
106 1 11.007 1.57157 7.86167 -8.94966
107 1 12.5796 1.26287e-15 6.28926 -8.9497
108 1 14.1523 1.57183 7.86185 -8.94982
109 1 15.7248 -1.53675e-15 6.28944 -8.9497
110 1 17.297 1.57229 7.86208 -8.94949
111 1 18.8694 2.59179e-15 6.28971 -8.94957
112 1 20.4416 1.57239 7.86216 -8.9496
113 1 4.97447e-16 3.14479 6.2898 -8.94961
114 1 1.57232 4.71723 7.86219 -8.94959
115 1 3.14452 3.14472 6.28973 -8.94967
116 1 4.71697 4.71711 7.86214 -8.94972
117 1 6.28892 3.144 6.28919 -8.94953
118 1 7.86106 4.71518 7.86117 -8.94919
119 1 9.43416 3.14353 6.28893 -8.94966
120 1 11.007 4.71454 7.8604 -8.94617
121 1 12.5797 3.14353 6.28893 -8.94966
122 1 14.1528 4.71518 7.86117 -8.94919
123 1 15.725 3.144 6.28919 -8.94953
124 1 17.2969 4.71711 7.86214 -8.94972
125 1 18.8694 3.14472 6.28973 -8.94967
126 1 20.4416 4.71723 7.86219 -8.94959
127 1 -3.2271e-16 6.28968 6.28984 -8.94971
128 1 1.57247 7.86216 7.86225 -8.94957
129 1 3.14448 6.28958 6.28975 -8.95003
130 1 4.7174 7.86238 7.86239 -8.95135
131 1 6.28822 6.28808 6.28822 -8.94846
132 1 7.85928 7.85873 7.85778 -8.97988
133 1 9.43397 6.28666 6.28779 -8.95244
134 1 11.007 7.86187 7.85683 -9.05835
135 1 12.5799 6.28666 6.28779 -8.95244
136 1 14.1546 7.85873 7.85778 -8.97988
137 1 15.7257 6.28808 6.28822 -8.94846
138 1 17.2965 7.86238 7.86239 -8.95135
139 1 18.8694 6.28958 6.28975 -8.95003
140 1 20.4414 7.86216 7.86225 -8.94957
141 1 5.33186e-16 9.43453 6.28977 -8.94997
142 1 3.14415 9.43443 6.2894 -8.95041
143 1 6.28655 9.43337 6.28667 -8.95067
144 1 9.42401 9.42393 6.27682 -9.02223
145 1 12.5899 9.42393 6.27682 -9.02223
146 1 15.7273 9.43337 6.28667 -8.95067
147 1 18.8698 9.43443 6.2894 -8.95041
148 1 2.48979e-16 1.2678e-15 9.43453 -8.9496
149 1 3.14458 3.15239e-15 9.43453 -8.94958
150 1 6.28923 -1.4892e-16 9.43453 -8.9495
151 1 9.43432 1.8681e-15 9.43453 -8.9502
152 1 12.5796 1.95409e-15 9.43453 -8.9502
153 1 15.7247 -1.40769e-15 9.43453 -8.9495
154 1 18.8693 5.7017e-17 9.43453 -8.94958
155 1 4.65211e-16 3.14482 9.43453 -8.94961
156 1 3.14462 3.14476 9.43453 -8.94962
157 1 6.28923 3.14433 9.43453 -8.94913
158 1 9.4344 3.14276 9.43453 -8.95186
159 1 12.5795 3.14276 9.43453 -8.95186
160 1 15.7247 3.14433 9.43453 -8.94913
161 1 18.8693 3.14476 9.43453 -8.94962
162 1 6.67509e-16 6.2897 9.43453 -8.9496
163 1 3.14486 6.28963 9.43453 -8.94939
164 1 6.29007 6.28949 9.43453 -8.94893
193 1 11.007 7.86187 11.0122 -9.05835
192 1 7.85928 7.85873 11.0113 -8.97988
190 1 1.57247 7.86216 11.0068 -8.94957
191 1 4.7174 7.86238 11.0067 -8.95135
177 1 4.71686 1.57229 11.007 -8.94949
181 1 17.297 1.57229 11.007 -8.94949
184 1 4.71697 4.71711 11.0069 -8.94972
188 1 17.2969 4.71711 11.0069 -8.94972
7 1 9.43436 1.80177e-15 -0.00017044 -8.94961
9 1 12.5795 6.22424e-16 -0.00017044 -8.94961
343 1 18.8697 9.43434 18.8693 -8.94956
48 1 15.7253 9.43413 22.0132 -8.94959
178 1 7.86162 1.57183 11.0072 -8.94982
179 1 11.007 1.57157 11.0074 -8.94966
180 1 14.1523 1.57183 11.0072 -8.94982
45 1 6.28862 9.43413 22.0132 -8.94959
342 1 15.7253 9.43413 18.8698 -8.94959
183 1 1.57232 4.71723 11.0069 -8.94959
43 1 3.98591e-18 9.43441 22.0138 -8.9496
185 1 7.86106 4.71518 11.0079 -8.94919
186 1 11.007 4.71454 11.0087 -8.94617
187 1 14.1528 4.71518 11.0079 -8.94919
41 1 18.8697 6.28921 22.0137 -8.94959
189 1 20.4416 4.71723 11.0069 -8.94959
341 1 12.5801 9.43379 18.8707 -8.95023
340 1 9.43383 9.43379 18.8707 -8.95023
339 1 6.28862 9.43413 18.8698 -8.94959
338 1 3.14417 9.43434 18.8693 -8.94956
337 1 -2.86694e-16 9.43441 18.8691 -8.9496
336 1 20.4418 7.86185 20.4415 -8.94958
335 1 18.8697 6.28921 18.8692 -8.94959
197 1 1.18098e-15 -1.55946e-15 12.5793 -8.9496
198 1 1.57223 1.57235 14.1517 -8.94963
199 1 3.14453 -1.19164e-15 12.5793 -8.94957
200 1 4.7167 1.57214 14.152 -8.94957
201 1 6.28915 -1.92101e-15 12.5796 -8.9497
202 1 7.86165 1.57194 14.1523 -8.9497
203 1 9.43426 1.21997e-15 12.5798 -8.9497
204 1 11.007 1.57192 14.1524 -8.94966
205 1 12.5796 1.40902e-15 12.5798 -8.9497
206 1 14.1523 1.57194 14.1523 -8.9497
207 1 15.7248 1.35895e-15 12.5796 -8.9497
208 1 17.2972 1.57214 14.152 -8.94957
209 1 18.8694 -5.88632e-16 12.5793 -8.94957
210 1 20.4417 1.57235 14.1517 -8.94963
211 1 -8.71908e-17 3.14479 12.5793 -8.94961
212 1 1.57217 4.7171 14.1517 -8.94975
213 1 3.14452 3.14472 12.5793 -8.94967
214 1 4.71639 4.71649 14.1523 -8.94935
215 1 6.28892 3.144 12.5799 -8.94953
216 1 7.86129 4.71566 14.153 -8.95028
217 1 9.43416 3.14353 12.5801 -8.94966
218 1 11.007 4.71574 14.1533 -8.94956
219 1 12.5797 3.14353 12.5801 -8.94966
220 1 14.1526 4.71566 14.153 -8.95028
221 1 15.725 3.144 12.5799 -8.94953
222 1 17.2975 4.71649 14.1523 -8.94935
223 1 18.8694 3.14472 12.5793 -8.94967
224 1 20.4417 4.7171 14.1517 -8.94975
225 1 6.04585e-16 6.28968 12.5792 -8.94971
226 1 1.57201 7.86191 14.1519 -8.94988
227 1 3.14448 6.28958 12.5793 -8.95003
228 1 4.71565 7.86118 14.1529 -8.94957
229 1 6.28822 6.28808 12.5808 -8.94846
230 1 7.85836 7.85812 14.157 -8.94591
231 1 9.43397 6.28666 12.5813 -8.95244
232 1 11.007 7.86002 14.1565 -8.94949
233 1 12.5799 6.28666 12.5813 -8.95244
234 1 14.1555 7.85812 14.157 -8.94591
235 1 15.7257 6.28808 12.5808 -8.94846
236 1 17.2983 7.86118 14.1529 -8.94957
237 1 18.8694 6.28958 12.5793 -8.95003
238 1 20.4419 7.86191 14.1519 -8.94988
239 1 4.533e-16 9.43453 12.5793 -8.94997
240 1 3.14415 9.43443 12.5797 -8.95041
241 1 6.28655 9.43337 12.5824 -8.95067
242 1 9.42401 9.42393 12.5922 -9.02223
243 1 12.5899 9.42393 12.5922 -9.02223
244 1 15.7273 9.43337 12.5824 -8.95067
245 1 18.8698 9.43443 12.5797 -8.95041
246 1 -3.90856e-17 1.38223e-15 15.7241 -8.94963
247 1 1.57217 1.57226 17.2966 -8.94956
248 1 3.14443 2.7861e-15 15.7243 -8.94957
249 1 4.71674 1.57212 17.2968 -8.94962
250 1 6.28919 2.60812e-15 15.7245 -8.94967
251 1 7.86174 1.57206 17.297 -8.94962
252 1 9.43433 3.06398e-15 15.7246 -8.94966
253 1 11.007 1.57205 17.297 -8.94961
254 1 12.5796 2.07065e-15 15.7246 -8.94966
255 1 14.1522 1.57206 17.297 -8.94962
256 1 15.7247 1.16221e-15 15.7245 -8.94967
257 1 17.2972 1.57212 17.2968 -8.94962
258 1 18.8695 2.25509e-15 15.7243 -8.94957
259 1 20.4417 1.57226 17.2966 -8.94956
260 1 6.09766e-16 3.14466 15.7241 -8.94967
261 1 1.57207 4.71688 17.2967 -8.94957
262 1 3.14432 3.14446 15.7243 -8.94955
263 1 4.71633 4.71642 17.2972 -8.94924
264 1 6.28899 3.14407 15.7248 -8.94974
265 1 7.8615 4.71624 17.2974 -8.94963
266 1 9.43426 3.14397 15.7249 -8.9496
267 1 11.007 4.71623 17.2975 -8.94958
268 1 12.5796 3.14397 15.7249 -8.9496
269 1 14.1524 4.71624 17.2974 -8.94963
270 1 15.7249 3.14407 15.7248 -8.94974
271 1 17.2976 4.71642 17.2972 -8.94924
272 1 18.8696 3.14446 15.7243 -8.94955
273 1 20.4418 4.71688 17.2967 -8.94957
274 1 9.48934e-16 6.28941 15.7243 -8.94971
275 1 1.57205 7.86185 17.2968 -8.94962
276 1 3.144 6.28911 15.7246 -8.94957
277 1 4.71618 7.8615 17.2974 -8.9496
278 1 6.28795 6.28796 15.726 -8.94844
279 1 7.86069 7.86064 17.2989 -8.94969
280 1 9.434 6.28804 15.7261 -8.9494
281 1 11.007 7.86083 17.299 -8.94936
282 1 12.5799 6.28804 15.7261 -8.9494
283 1 14.1532 7.86064 17.2989 -8.94969
284 1 15.7259 6.28796 15.726 -8.94844
285 1 17.2977 7.8615 17.2974 -8.9496
286 1 18.8699 6.28911 15.7246 -8.94957
287 1 20.4419 7.86185 17.2968 -8.94962
288 1 9.28116e-16 9.43442 15.7244 -8.94966
289 1 3.14403 9.43431 15.7247 -8.94957
290 1 6.28807 9.43389 15.7263 -8.94969
291 1 9.43249 9.43236 15.7303 -8.94933
292 1 12.5814 9.43236 15.7303 -8.94933
293 1 15.7258 9.43389 15.7263 -8.94969
294 1 18.8699 9.43431 15.7247 -8.94957
295 1 -4.98149e-16 1.15553e-15 18.869 -8.94952
296 1 1.57218 1.57223 20.4415 -8.94948
297 1 3.14445 1.20317e-15 18.8691 -8.94958
298 1 4.7168 1.57215 20.4415 -8.94961
299 1 6.28927 -1.9794e-16 18.8692 -8.94961
300 1 7.86178 1.57211 20.4415 -8.94961
301 1 9.43436 -1.50674e-15 18.8692 -8.94961
302 1 11.007 1.5721 20.4415 -8.94961
303 1 12.5795 2.5439e-16 18.8692 -8.94961
304 1 14.1521 1.57211 20.4415 -8.94961
305 1 15.7246 -3.61331e-16 18.8692 -8.94961
306 1 17.2971 1.57215 20.4415 -8.94961
307 1 18.8694 5.84018e-16 18.8691 -8.94958
308 1 20.4417 1.57223 20.4415 -8.94948
309 1 2.89798e-16 3.14456 18.8691 -8.94954
310 1 1.57211 4.71689 20.4415 -8.94957
311 1 3.14432 3.1444 18.8692 -8.94945
312 1 4.71649 4.71656 20.4415 -8.94949
313 1 6.28914 3.14425 18.8693 -8.94962
314 1 7.86159 4.71643 20.4415 -8.94956
315 1 9.43431 3.1442 18.8693 -8.9496
316 1 11.007 4.7164 20.4415 -8.94958
317 1 12.5796 3.1442 18.8693 -8.9496
318 1 14.1523 4.71643 20.4415 -8.94956
319 1 15.7248 3.14425 18.8693 -8.94962
320 1 17.2974 4.71656 20.4415 -8.94949
321 1 18.8696 3.1444 18.8692 -8.94945
322 1 20.4418 4.71689 20.4415 -8.94957
323 1 -1.04947e-15 6.28939 18.8691 -8.9496
324 1 1.57208 7.86185 20.4415 -8.94958
325 1 3.14419 6.28921 18.8692 -8.94959
326 1 4.71638 7.86161 20.4415 -8.94957
327 1 6.28865 6.28869 18.8697 -8.94956
328 1 7.86119 7.86119 20.4415 -8.94987
329 1 9.43413 6.28862 18.8698 -8.9495
330 1 11.007 7.86115 20.4415 -8.94969
331 1 12.5798 6.28862 18.8698 -8.9495
332 1 14.1527 7.86119 20.4415 -8.94987
333 1 15.7252 6.28869 18.8697 -8.94956
334 1 17.2975 7.86161 20.4415 -8.94957
37 1 12.5798 6.28862 22.0132 -8.9495
35 1 9.43413 6.28862 22.0132 -8.9495
19 1 6.28914 3.14425 22.0137 -8.94962
25 1 15.7248 3.14425 22.0137 -8.94962
31 1 3.14419 6.28921 22.0137 -8.94959
3 1 3.14445 -9.8418e-17 22.0138 -8.94958
13 1 18.8694 8.39855e-16 22.0138 -8.94958
15 1 7.23359e-16 3.14456 22.0139 -8.94954
176 1 1.57228 1.57239 11.0069 -8.9496
182 1 20.4416 1.57239 11.0069 -8.9496
344 1 1.57206 11.007 1.57221 -8.9496
345 1 4.71623 11.007 1.57155 -8.94952
346 1 7.86091 11.007 1.56993 -8.94959
347 1 11.007 11.007 1.56732 -8.95397
348 1 14.153 11.007 1.56993 -8.94959
349 1 17.2977 11.007 1.57155 -8.94952
350 1 20.4418 11.007 1.57221 -8.9496
688 2 10.2869 11.007 9.43453 0.525751
352 1 1.57205 14.1521 1.57224 -8.94962
353 1 3.14417 12.5796 -0.000233198 -8.94956
354 1 4.71618 14.1524 1.57166 -8.9496
687 2 11.727 11.007 9.43453 0.525751
356 1 7.86069 14.1533 1.57014 -8.94969
357 1 9.43383 12.5801 -0.00165258 -8.95023
358 1 11.007 14.1531 1.57005 -8.94936
359 1 12.5801 12.5801 -0.00165258 -8.95023
360 1 14.1532 14.1533 1.57014 -8.94969
511 1 18.8693 18.8691 9.43453 -8.94962
362 1 17.2977 14.1524 1.57166 -8.9496
363 1 18.8697 12.5796 -0.000233198 -8.94956
364 1 20.4419 14.1521 1.57224 -8.94962
365 1 -7.94673e-16 15.7245 -6.0691e-05 -8.9496
366 1 1.57207 17.297 1.57231 -8.94957
510 1 15.7247 18.8696 9.43453 -8.94913
368 1 4.71633 17.2975 1.57186 -8.94924
369 1 6.28865 15.7252 -0.000632468 -8.94956
370 1 7.8615 17.2977 1.57166 -8.94963
509 1 12.5795 18.8711 9.43453 -8.95186
372 1 11.007 17.2977 1.57153 -8.94958
508 1 9.4344 18.8711 9.43453 -8.95186
374 1 14.1524 17.2977 1.57166 -8.94963
375 1 15.7252 15.7252 -0.000632468 -8.94956
376 1 17.2976 17.2975 1.57186 -8.94924
507 1 6.28923 18.8696 9.43453 -8.94913
378 1 20.4418 17.297 1.57231 -8.94957
525 1 20.4414 14.1517 11.0068 -8.94957
380 1 1.57217 20.4416 1.57243 -8.94956
381 1 3.14432 18.8695 -0.000110341 -8.94945
382 1 4.71674 20.4418 1.57222 -8.94962
506 1 3.14462 18.8691 9.43453 -8.94962
384 1 7.86174 20.4418 1.57209 -8.94962
385 1 9.43431 18.8697 -0.000284513 -8.9496
386 1 11.007 20.4419 1.57203 -8.94961
387 1 12.5796 18.8697 -0.000284513 -8.9496
388 1 14.1522 20.4418 1.57209 -8.94962
505 1 -1.11962e-15 18.8691 9.43453 -8.94961
390 1 17.2972 20.4418 1.57222 -8.94962
391 1 18.8696 18.8695 -0.000110341 -8.94945
392 1 20.4417 20.4416 1.57243 -8.94956
393 1 1.57204 11.007 4.71708 -8.94971
394 1 4.7159 11.007 4.71588 -8.94895
395 1 7.86012 11.007 4.71186 -8.95034
396 1 11.007 11.007 4.6976 -8.97884
397 1 14.1538 11.007 4.71186 -8.95034
398 1 17.298 11.007 4.71588 -8.94895
399 1 20.4419 11.007 4.71708 -8.94971
400 1 1.45999e-15 12.5795 3.1447 -8.94966
401 1 1.57201 14.152 4.71715 -8.94988
402 1 3.14403 12.5796 3.14431 -8.94957
403 1 4.71565 14.1527 4.71613 -8.94957
404 1 6.28807 12.58 3.14271 -8.94969
405 1 7.85836 14.1558 4.71203 -8.94591
406 1 9.43249 12.5815 3.13878 -8.94933
407 1 11.007 14.1539 4.71258 -8.94949
408 1 12.5814 12.5815 3.13878 -8.94933
409 1 14.1555 14.1558 4.71203 -8.94591
410 1 15.7258 12.58 3.14271 -8.94969
411 1 17.2983 14.1527 4.71613 -8.94957
412 1 18.8699 12.5796 3.14431 -8.94957
413 1 20.4419 14.152 4.71715 -8.94988
414 1 1.17224e-15 15.7245 3.14478 -8.94971
415 1 1.57217 17.2968 4.71734 -8.94975
416 1 3.144 15.7248 3.14444 -8.94957
417 1 4.71639 17.2974 4.71676 -8.94935
418 1 6.28795 15.7259 3.14302 -8.94844
419 1 7.86129 17.2982 4.71609 -8.95028
420 1 9.434 15.7259 3.14294 -8.9494
421 1 11.007 17.2982 4.71577 -8.94956
422 1 12.5799 15.7259 3.14294 -8.9494
423 1 14.1526 17.2982 4.71609 -8.95028
424 1 15.7259 15.7259 3.14302 -8.94844
425 1 17.2975 17.2974 4.71676 -8.94935
426 1 18.8699 15.7248 3.14444 -8.94957
427 1 20.4417 17.2968 4.71734 -8.94975
428 1 1.14034e-15 18.8692 3.14491 -8.94967
429 1 1.57223 20.4416 4.71735 -8.94963
430 1 3.14432 18.8694 3.14471 -8.94955
431 1 4.7167 20.4418 4.71705 -8.94957
432 1 6.28899 18.8698 3.1443 -8.94974
433 1 7.86165 20.442 4.71679 -8.9497
434 1 9.43426 18.8699 3.14411 -8.9496
435 1 11.007 20.442 4.7167 -8.94966
436 1 12.5796 18.8699 3.14411 -8.9496
437 1 14.1523 20.442 4.71679 -8.9497
438 1 15.7249 18.8698 3.1443 -8.94974
439 1 17.2972 20.4418 4.71705 -8.94957
440 1 18.8696 18.8694 3.14471 -8.94955
441 1 20.4417 20.4416 4.71735 -8.94963
442 1 1.57244 11.007 7.86228 -8.94983
443 1 4.71694 11.007 7.86179 -8.95129
444 1 7.85785 11.007 7.85341 -9.04157
445 1 11.007 11.007 7.73279 -9.34255
446 1 14.1561 11.007 7.85341 -9.04157
447 1 17.297 11.007 7.86179 -8.95129
448 1 20.4415 11.007 7.86228 -8.94983
449 1 1.1098e-15 12.5794 6.28977 -8.94997
450 1 1.57247 14.1517 7.86225 -8.94957
451 1 3.14415 12.5795 6.2894 -8.95041
452 1 4.7174 14.1515 7.86239 -8.95135
453 1 6.28655 12.5805 6.28667 -8.95067
454 1 7.85928 14.1552 7.85778 -8.97988
455 1 9.42401 12.59 6.27682 -9.02223
456 1 11.007 14.152 7.85683 -9.05835
457 1 12.5899 12.59 6.27682 -9.02223
458 1 14.1546 14.1552 7.85778 -8.97988
459 1 15.7273 12.5805 6.28667 -8.95067
460 1 17.2965 14.1515 7.86239 -8.95135
461 1 18.8698 12.5795 6.2894 -8.95041
462 1 20.4414 14.1517 7.86225 -8.94957
463 1 -7.28369e-16 15.7242 6.28984 -8.94971
464 1 1.57232 17.2967 7.86219 -8.94959
465 1 3.14448 15.7243 6.28975 -8.95003
466 1 4.71697 17.2968 7.86214 -8.94972
467 1 6.28822 15.7258 6.28822 -8.94846
468 1 7.86106 17.2987 7.86117 -8.94919
469 1 9.43397 15.7272 6.28779 -8.95244
470 1 11.007 17.2994 7.8604 -8.94617
471 1 12.5799 15.7272 6.28779 -8.95244
472 1 14.1528 17.2987 7.86117 -8.94919
473 1 15.7257 15.7258 6.28822 -8.94846
474 1 17.2969 17.2968 7.86214 -8.94972
475 1 18.8694 15.7243 6.28975 -8.95003
476 1 20.4416 17.2967 7.86219 -8.94959
477 1 -2.04705e-16 18.8691 6.2898 -8.94961
478 1 1.57228 20.4415 7.86216 -8.9496
479 1 3.14452 18.8692 6.28973 -8.94967
480 1 4.71686 20.4416 7.86208 -8.94949
481 1 6.28892 18.8699 6.28919 -8.94953
482 1 7.86162 20.4421 7.86185 -8.94982
483 1 9.43416 18.8704 6.28893 -8.94966
484 1 11.007 20.4423 7.86167 -8.94966
485 1 12.5797 18.8704 6.28893 -8.94966
486 1 14.1523 20.4421 7.86185 -8.94982
487 1 15.725 18.8699 6.28919 -8.94953
488 1 17.297 20.4416 7.86208 -8.94949
489 1 18.8694 18.8692 6.28973 -8.94967
490 1 20.4416 20.4415 7.86216 -8.9496
491 1 7.56254e-16 12.5794 9.43453 -8.94911
492 1 3.14557 12.5793 9.43453 -8.94802
493 1 6.29402 12.577 9.43453 -8.99727
494 1 9.4147 12.6209 9.43453 -9.24053
495 1 12.5992 12.6209 9.43453 -9.24053
496 1 15.7199 12.577 9.43453 -8.99727
497 1 18.8683 12.5793 9.43453 -8.94802
498 1 -4.60472e-17 15.7242 9.43453 -8.9496
499 1 3.14486 15.7243 9.43453 -8.94939
500 1 6.29007 15.7244 9.43453 -8.94893
501 1 9.43503 15.7329 9.43453 -8.96332
502 1 12.5789 15.7329 9.43453 -8.96332
503 1 15.7238 15.7244 9.43453 -8.94893
504 1 18.869 15.7243 9.43453 -8.94939
512 1 1.57244 11.007 11.0068 -8.94983
513 1 4.71694 11.007 11.0073 -8.95129
517 1 17.297 11.007 11.0073 -8.95129
518 1 20.4415 11.007 11.0068 -8.94983
519 1 1.57247 14.1517 11.0068 -8.94957
520 1 4.7174 14.1515 11.0067 -8.95135
521 1 7.85928 14.1552 11.0113 -8.97988
522 1 11.007 14.152 11.0122 -9.05835
523 1 14.1546 14.1552 11.0113 -8.97988
524 1 17.2965 14.1515 11.0067 -8.95135
527 1 4.71697 17.2968 11.0069 -8.94972
531 1 17.2969 17.2968 11.0069 -8.94972
534 1 4.71686 20.4416 11.007 -8.94949
538 1 17.297 20.4416 11.007 -8.94949
686 1 20.4417 20.4417 20.4415 -8.94948
685 1 18.8696 18.8695 18.8692 -8.94945
514 1 7.85785 11.007 11.0156 -9.04157
515 1 11.007 11.007 11.1363 -9.34255
516 1 14.1561 11.007 11.0156 -9.04157
684 1 17.2971 20.4417 20.4415 -8.94961
683 1 15.7248 18.8696 18.8693 -8.94962
682 1 14.1521 20.4418 20.4415 -8.94961
681 1 12.5796 18.8697 18.8693 -8.9496
680 1 11.007 20.4418 20.4415 -8.94961
679 1 9.43431 18.8697 18.8693 -8.9496
678 1 7.86178 20.4418 20.4415 -8.94961
677 1 6.28914 18.8696 18.8693 -8.94962
676 1 4.7168 20.4417 20.4415 -8.94961
526 1 1.57232 17.2967 11.0069 -8.94959
389 1 15.7248 18.8696 22.0137 -8.94962
528 1 7.86106 17.2987 11.0079 -8.94919
529 1 11.007 17.2994 11.0087 -8.94617
530 1 14.1528 17.2987 11.0079 -8.94919
383 1 6.28914 18.8696 22.0137 -8.94962
532 1 20.4416 17.2967 11.0069 -8.94959
675 1 3.14432 18.8695 18.8692 -8.94945
377 1 18.8697 15.7247 22.0137 -8.94959
535 1 7.86162 20.4421 11.0072 -8.94982
536 1 11.007 20.4423 11.0074 -8.94966
537 1 14.1523 20.4421 11.0072 -8.94982
373 1 12.5798 15.7253 22.0132 -8.9495
674 1 1.57218 20.4417 20.4415 -8.94948
540 1 1.57204 11.007 14.152 -8.94971
541 1 4.7159 11.007 14.1532 -8.94895
542 1 7.86012 11.007 14.1572 -8.95034
543 1 11.007 11.007 14.1715 -8.97884
544 1 14.1538 11.007 14.1572 -8.95034
545 1 17.298 11.007 14.1532 -8.94895
546 1 20.4419 11.007 14.152 -8.94971
547 1 9.17573e-16 12.5794 12.5793 -8.94997
548 1 1.57201 14.152 14.1519 -8.94988
549 1 3.14415 12.5795 12.5797 -8.95041
550 1 4.71565 14.1527 14.1529 -8.94957
551 1 6.28655 12.5805 12.5824 -8.95067
552 1 7.85836 14.1558 14.157 -8.94591
553 1 9.42401 12.59 12.5922 -9.02223
554 1 11.007 14.1539 14.1565 -8.94949
555 1 12.5899 12.59 12.5922 -9.02223
556 1 14.1555 14.1558 14.157 -8.94591
557 1 15.7273 12.5805 12.5824 -8.95067
558 1 17.2983 14.1527 14.1529 -8.94957
559 1 18.8698 12.5795 12.5797 -8.95041
560 1 20.4419 14.152 14.1519 -8.94988
561 1 -2.15678e-16 15.7242 12.5792 -8.94971
562 1 1.57217 17.2968 14.1517 -8.94975
563 1 3.14448 15.7243 12.5793 -8.95003
564 1 4.71639 17.2974 14.1523 -8.94935
565 1 6.28822 15.7258 12.5808 -8.94846
566 1 7.86129 17.2982 14.153 -8.95028
567 1 9.43397 15.7272 12.5813 -8.95244
568 1 11.007 17.2982 14.1533 -8.94956
569 1 12.5799 15.7272 12.5813 -8.95244
570 1 14.1526 17.2982 14.153 -8.95028
571 1 15.7257 15.7258 12.5808 -8.94846
572 1 17.2975 17.2974 14.1523 -8.94935
573 1 18.8694 15.7243 12.5793 -8.95003
574 1 20.4417 17.2968 14.1517 -8.94975
575 1 5.221e-16 18.8691 12.5793 -8.94961
576 1 1.57223 20.4416 14.1517 -8.94963
577 1 3.14452 18.8692 12.5793 -8.94967
578 1 4.7167 20.4418 14.152 -8.94957
579 1 6.28892 18.8699 12.5799 -8.94953
580 1 7.86165 20.442 14.1523 -8.9497
581 1 9.43416 18.8704 12.5801 -8.94966
582 1 11.007 20.442 14.1524 -8.94966
583 1 12.5797 18.8704 12.5801 -8.94966
584 1 14.1523 20.442 14.1523 -8.9497
585 1 15.725 18.8699 12.5799 -8.94953
586 1 17.2972 20.4418 14.152 -8.94957
587 1 18.8694 18.8692 12.5793 -8.94967
588 1 20.4417 20.4416 14.1517 -8.94963
589 1 1.57206 11.007 17.2969 -8.9496
590 1 4.71623 11.007 17.2975 -8.94952
591 1 7.86091 11.007 17.2991 -8.94959
592 1 11.007 11.007 17.3017 -8.95397
593 1 14.153 11.007 17.2991 -8.94959
594 1 17.2977 11.007 17.2975 -8.94952
595 1 20.4418 11.007 17.2969 -8.9496
596 1 4.2458e-17 12.5795 15.7244 -8.94966
597 1 1.57205 14.1521 17.2968 -8.94962
598 1 3.14403 12.5796 15.7247 -8.94957
599 1 4.71618 14.1524 17.2974 -8.9496
600 1 6.28807 12.58 15.7263 -8.94969
601 1 7.86069 14.1533 17.2989 -8.94969
602 1 9.43249 12.5815 15.7303 -8.94933
603 1 11.007 14.1531 17.299 -8.94936
604 1 12.5814 12.5815 15.7303 -8.94933
605 1 14.1532 14.1533 17.2989 -8.94969
606 1 15.7258 12.58 15.7263 -8.94969
607 1 17.2977 14.1524 17.2974 -8.9496
608 1 18.8699 12.5796 15.7247 -8.94957
609 1 20.4419 14.1521 17.2968 -8.94962
610 1 -8.4159e-16 15.7245 15.7243 -8.94971
611 1 1.57207 17.297 17.2967 -8.94957
612 1 3.144 15.7248 15.7246 -8.94957
613 1 4.71633 17.2975 17.2972 -8.94924
614 1 6.28795 15.7259 15.726 -8.94844
615 1 7.8615 17.2977 17.2974 -8.94963
616 1 9.434 15.7259 15.7261 -8.9494
617 1 11.007 17.2977 17.2975 -8.94958
618 1 12.5799 15.7259 15.7261 -8.9494
619 1 14.1524 17.2977 17.2974 -8.94963
620 1 15.7259 15.7259 15.726 -8.94844
621 1 17.2976 17.2975 17.2972 -8.94924
622 1 18.8699 15.7248 15.7246 -8.94957
623 1 20.4418 17.297 17.2967 -8.94957
624 1 3.25146e-16 18.8692 15.7241 -8.94967
625 1 1.57217 20.4416 17.2966 -8.94956
626 1 3.14432 18.8694 15.7243 -8.94955
627 1 4.71674 20.4418 17.2968 -8.94962
628 1 6.28899 18.8698 15.7248 -8.94974
629 1 7.86174 20.4418 17.297 -8.94962
630 1 9.43426 18.8699 15.7249 -8.9496
631 1 11.007 20.4419 17.297 -8.94961
632 1 12.5796 18.8699 15.7249 -8.9496
633 1 14.1522 20.4418 17.297 -8.94962
634 1 15.7249 18.8698 15.7248 -8.94974
635 1 17.2972 20.4418 17.2968 -8.94962
636 1 18.8696 18.8694 15.7243 -8.94955
637 1 20.4417 20.4416 17.2966 -8.94956
638 1 1.57208 11.007 20.4415 -8.94958
639 1 4.71637 11.007 20.4415 -8.94958
640 1 7.86119 11.007 20.4415 -8.94977
641 1 11.007 11.007 20.4415 -8.95102
642 1 14.1527 11.007 20.4415 -8.94977
643 1 17.2975 11.007 20.4415 -8.94958
644 1 20.4418 11.007 20.4415 -8.94958
645 1 -2.39401e-16 12.5795 18.8691 -8.9496
646 1 1.57208 14.152 20.4415 -8.94958
647 1 3.14417 12.5796 18.8693 -8.94956
648 1 4.71638 14.1523 20.4415 -8.94957
649 1 6.28862 12.5798 18.8698 -8.94959
650 1 7.86119 14.1527 20.4415 -8.94987
651 1 9.43383 12.5801 18.8707 -8.95023
652 1 11.007 14.1527 20.4415 -8.94969
653 1 12.5801 12.5801 18.8707 -8.95023
654 1 14.1527 14.1527 20.4415 -8.94987
655 1 15.7253 12.5798 18.8698 -8.94959
656 1 17.2975 14.1523 20.4415 -8.94957
657 1 18.8697 12.5796 18.8693 -8.94956
658 1 20.4418 14.152 20.4415 -8.94958
659 1 -7.82369e-16 15.7245 18.8691 -8.9496
660 1 1.57211 17.297 20.4415 -8.94957
661 1 3.14419 15.7247 18.8692 -8.94959
662 1 4.71649 17.2973 20.4415 -8.94949
663 1 6.28865 15.7252 18.8697 -8.94956
664 1 7.86159 17.2975 20.4415 -8.94956
665 1 9.43413 15.7253 18.8698 -8.9495
666 1 11.007 17.2975 20.4415 -8.94958
667 1 12.5798 15.7253 18.8698 -8.9495
668 1 14.1523 17.2975 20.4415 -8.94956
669 1 15.7252 15.7252 18.8697 -8.94956
670 1 17.2974 17.2973 20.4415 -8.94949
671 1 18.8697 15.7247 18.8692 -8.94959
672 1 20.4418 17.297 20.4415 -8.94957
673 1 6.43957e-16 18.8693 18.8691 -8.94954
351 1 -4.11097e-17 12.5795 22.0138 -8.9496
355 1 6.28862 12.5798 22.0132 -8.94959
361 1 15.7253 12.5798 22.0132 -8.94959
367 1 3.14419 15.7247 22.0137 -8.94959
371 1 9.43413 15.7253 22.0132 -8.9495
379 1 1.39078e-15 18.8693 22.0139 -8.94954
539 1 20.4416 20.4415 11.0069 -8.9496
533 1 1.57228 20.4415 11.0069 -8.9496
