ITEM: TIMESTEP
43
ITEM: NUMBER OF ATOMS
688
ITEM: BOX BOUNDS pp pp pp
0.0000000000000000e+00 2.2013900999999997e+01
0.0000000000000000e+00 2.2013900999999997e+01
0.0000000000000000e+00 2.2013900999999997e+01
ITEM: ATOMS id type x y z c_pot
1 1 1.47608e-15 1.60595e-15 -4.35626e-08 -8.94963
2 1 1.57242 1.57242 1.57242 -8.94963
196 1 20.4415 7.86211 11.0069 -8.94972
4 1 4.71726 1.57242 1.57242 -8.94964
5 1 6.28969 1.10617e-15 -1.59822e-08 -8.94963
6 1 7.86211 1.57242 1.57242 -8.94963
175 1 18.8691 9.43453 9.43453 -8.94899
8 1 11.007 1.57242 1.57242 -8.94963
174 1 15.7234 9.43607 9.43453 -8.99926
10 1 14.1518 1.57242 1.57242 -8.94963
11 1 15.7242 1.64311e-15 -1.59822e-08 -8.94963
12 1 17.2966 1.57242 1.57242 -8.94964
195 1 17.2971 7.8622 11.0068 -8.9512
14 1 20.4415 1.57242 1.57242 -8.94963
194 1 14.1562 7.85842 11.0112 -8.97896
16 1 1.57242 4.71726 1.57242 -8.94963
17 1 3.14484 3.14484 -9.17636e-07 -8.94963
18 1 4.71725 4.71725 1.5724 -8.94957
173 1 12.6037 9.38738 9.43453 -9.23587
20 1 7.86212 4.71726 1.57243 -8.94971
21 1 9.43453 3.14484 -9.92947e-07 -8.94963
22 1 11.007 4.71725 1.5724 -8.94964
23 1 12.5794 3.14484 -9.92947e-07 -8.94963
24 1 14.1518 4.71726 1.57243 -8.94971
172 1 9.41025 9.38738 9.43453 -9.23587
26 1 17.2967 4.71725 1.5724 -8.94957
27 1 18.8691 3.14484 -9.17636e-07 -8.94963
28 1 20.4415 4.71726 1.57242 -8.94963
29 1 8.10466e-16 6.28969 5.27156e-08 -8.94964
30 1 1.57242 7.86211 1.57242 -8.94964
171 1 6.29047 9.43607 9.43453 -8.99926
32 1 4.71725 7.8621 1.57241 -8.9497
33 1 6.28966 6.28965 -3.86391e-05 -8.94957
34 1 7.86189 7.86188 1.57207 -8.94951
170 1 3.14477 9.43453 9.43453 -8.94899
36 1 11.007 7.86205 1.57231 -8.94941
169 1 1.76441e-16 9.43451 9.43453 -8.94957
38 1 14.152 7.86188 1.57207 -8.94951
39 1 15.7242 6.28965 -3.86391e-05 -8.94957
40 1 17.2967 7.8621 1.57241 -8.9497
168 1 18.8691 6.28965 9.43453 -8.94941
42 1 20.4415 7.86211 1.57242 -8.94964
167 1 15.7242 6.28975 9.43453 -8.94913
44 1 3.14484 9.43453 -1.30472e-06 -8.94963
166 1 12.5795 6.28105 9.43453 -8.96385
46 1 9.43441 9.4344 -0.000260342 -8.9498
47 1 12.5795 9.4344 -0.000260342 -8.9498
165 1 9.43436 6.28105 9.43453 -8.96385
49 1 18.8691 9.43453 -1.30472e-06 -8.94963
50 1 7.26652e-16 1.6814e-15 3.14484 -8.94964
51 1 1.57242 1.57242 4.71727 -8.94964
52 1 3.14484 1.94106e-15 3.14484 -8.94962
53 1 4.71725 1.5724 4.71725 -8.9496
54 1 6.28969 8.44336e-16 3.14484 -8.94963
55 1 7.8621 1.57241 4.71725 -8.94962
56 1 9.43453 1.54967e-15 3.14484 -8.94965
57 1 11.007 1.57242 4.71726 -8.94965
58 1 12.5794 1.54964e-15 3.14484 -8.94965
59 1 14.1518 1.57241 4.71725 -8.94962
60 1 15.7242 1.64533e-15 3.14484 -8.94963
61 1 17.2967 1.5724 4.71725 -8.9496
62 1 18.8691 2.49371e-15 3.14484 -8.94962
63 1 20.4415 1.57242 4.71727 -8.94964
64 1 1.19498e-15 3.14484 3.14484 -8.94964
65 1 1.57242 4.71727 4.71727 -8.94966
66 1 3.14483 3.14483 3.14484 -8.94959
67 1 4.71716 4.71715 4.71716 -8.94928
68 1 6.28969 3.14484 3.14484 -8.94969
69 1 7.8621 4.71714 4.71718 -8.94998
70 1 9.43453 3.14483 3.14483 -8.94964
71 1 11.007 4.71718 4.71709 -8.94958
72 1 12.5794 3.14483 3.14483 -8.94964
73 1 14.1518 4.71714 4.71718 -8.94998
74 1 15.7242 3.14484 3.14484 -8.94969
75 1 17.2967 4.71715 4.71716 -8.94928
76 1 18.8691 3.14483 3.14484 -8.94959
77 1 20.4415 4.71727 4.71727 -8.94966
78 1 3.98471e-16 6.28968 3.14484 -8.94962
79 1 1.57239 7.86209 4.71725 -8.94964
80 1 3.14482 6.28967 3.14483 -8.9496
81 1 4.717 7.86196 4.71711 -8.94949
82 1 6.28951 6.28951 3.14459 -8.94919
83 1 7.86083 7.86081 4.71554 -8.94782
84 1 9.43459 6.28956 3.14482 -8.94978
85 1 11.007 7.86204 4.71665 -8.95058
86 1 12.5793 6.28956 3.14482 -8.94978
87 1 14.1531 7.86081 4.71554 -8.94782
88 1 15.7244 6.28951 3.14459 -8.94919
89 1 17.2969 7.86196 4.71711 -8.94949
90 1 18.8691 6.28967 3.14483 -8.9496
91 1 20.4415 7.86209 4.71725 -8.94964
92 1 1.25448e-15 9.43453 3.14484 -8.94963
93 1 3.14483 9.43452 3.14483 -8.94963
94 1 6.28952 9.43455 3.14468 -8.95
95 1 9.43342 9.43339 3.14298 -8.94811
96 1 12.5805 9.43339 3.14298 -8.94811
97 1 15.7244 9.43455 3.14468 -8.95
98 1 18.8691 9.43452 3.14483 -8.94963
99 1 -6.82434e-17 1.57801e-15 6.28969 -8.94963
100 1 1.57242 1.57242 7.86211 -8.94963
101 1 3.14485 1.88069e-15 6.28969 -8.94964
102 1 4.71727 1.57243 7.86212 -8.94961
103 1 6.28966 1.17919e-15 6.28967 -8.94967
104 1 7.86204 1.57228 7.86205 -8.9498
105 1 9.43451 6.73825e-16 6.28966 -8.94961
106 1 11.007 1.5722 7.86198 -8.94963
107 1 12.5794 5.62412e-16 6.28966 -8.94961
108 1 14.1519 1.57228 7.86205 -8.9498
109 1 15.7242 1.16742e-15 6.28967 -8.94967
110 1 17.2966 1.57243 7.86212 -8.94961
111 1 18.8691 1.43573e-15 6.28969 -8.94964
112 1 20.4415 1.57242 7.86211 -8.94963
113 1 5.58681e-16 3.14484 6.28969 -8.94963
114 1 1.57242 4.71726 7.86211 -8.94962
115 1 3.14485 3.14486 6.2897 -8.94969
116 1 4.71725 4.71733 7.86217 -8.94981
117 1 6.28955 3.14466 6.28956 -8.94953
118 1 7.86138 4.71613 7.86152 -8.94923
119 1 9.43446 3.14465 6.28957 -8.9495
120 1 11.007 4.71591 7.86106 -8.94627
121 1 12.5794 3.14465 6.28957 -8.9495
122 1 14.1525 4.71613 7.86152 -8.94923
123 1 15.7244 3.14466 6.28956 -8.94953
124 1 17.2967 4.71733 7.86217 -8.94981
125 1 18.8691 3.14486 6.2897 -8.94969
126 1 20.4415 4.71726 7.86211 -8.94962
127 1 1.62782e-16 6.28969 6.28969 -8.94966
128 1 1.57239 7.86211 7.86212 -8.94972
129 1 3.14477 6.28968 6.28969 -8.94985
130 1 4.71682 7.8622 7.86224 -8.9512
131 1 6.28882 6.28886 6.28883 -8.94782
132 1 7.85772 7.85842 7.8579 -8.97896
133 1 9.43453 6.28867 6.28956 -8.95158
134 1 11.007 7.862 7.85986 -9.05628
135 1 12.5794 6.28867 6.28956 -8.95158
136 1 14.1562 7.85842 7.8579 -8.97896
137 1 15.7251 6.28886 6.28883 -8.94782
138 1 17.2971 7.8622 7.86224 -8.9512
139 1 18.8691 6.28968 6.28969 -8.94985
140 1 20.4415 7.86211 7.86212 -8.94972
141 1 3.85215e-16 9.43452 6.28968 -8.94975
142 1 3.14457 9.43449 6.28959 -8.94991
143 1 6.28793 9.43428 6.28875 -8.9502
144 1 9.42722 9.42747 6.2843 -9.02811
145 1 12.5867 9.42747 6.2843 -9.02811
146 1 15.726 9.43428 6.28875 -8.9502
147 1 18.8693 9.43449 6.28959 -8.94991
148 1 1.21653e-15 2.58512e-15 9.43453 -8.94963
149 1 3.14484 1.43089e-15 9.43453 -8.94964
150 1 6.28968 1.08154e-15 9.43453 -8.94958
151 1 9.43453 1.06578e-15 9.43453 -8.95017
152 1 12.5794 7.00932e-16 9.43453 -8.95017
153 1 15.7242 1.71544e-15 9.43453 -8.94958
154 1 18.8691 2.25739e-15 9.43453 -8.94964
155 1 -3.268e-16 3.14484 9.43453 -8.94964
156 1 3.14484 3.14484 9.43453 -8.94965
157 1 6.28964 3.14482 9.43453 -8.9493
158 1 9.43455 3.14371 9.43453 -8.95206
159 1 12.5793 3.14371 9.43453 -8.95206
160 1 15.7243 3.14482 9.43453 -8.9493
161 1 18.8691 3.14484 9.43453 -8.94965
162 1 4.09473e-16 6.28968 9.43453 -8.94963
163 1 3.14481 6.28965 9.43453 -8.94941
164 1 6.28969 6.28975 9.43453 -8.94913
193 1 11.007 7.862 11.0092 -9.05628
192 1 7.85772 7.85842 11.0112 -8.97896
190 1 1.57239 7.86211 11.0069 -8.94972
191 1 4.71682 7.8622 11.0068 -8.9512
177 1 4.71727 1.57243 11.0069 -8.94961
181 1 17.2966 1.57243 11.0069 -8.94961
184 1 4.71725 4.71733 11.0069 -8.94981
188 1 17.2967 4.71733 11.0069 -8.94981
7 1 9.43453 1.0667e-15 1.21214e-07 -8.94963
9 1 12.5794 1.54042e-15 1.21214e-07 -8.94963
343 1 18.8691 9.43453 18.8691 -8.94963
48 1 15.7242 9.43454 22.0139 -8.94967
178 1 7.86204 1.57228 11.007 -8.9498
179 1 11.007 1.5722 11.0071 -8.94963
180 1 14.1519 1.57228 11.007 -8.9498
45 1 6.28968 9.43454 22.0139 -8.94967
342 1 15.7242 9.43454 18.8691 -8.94967
183 1 1.57242 4.71726 11.0069 -8.94962
43 1 1.96174e-15 9.43453 22.0139 -8.94963
185 1 7.86138 4.71613 11.0075 -8.94923
186 1 11.007 4.71591 11.008 -8.94627
187 1 14.1525 4.71613 11.0075 -8.94923
41 1 18.8691 6.28969 22.0139 -8.94964
189 1 20.4415 4.71726 11.0069 -8.94962
341 1 12.5795 9.4344 18.8693 -8.9498
340 1 9.43441 9.4344 18.8693 -8.9498
339 1 6.28968 9.43454 18.8691 -8.94967
338 1 3.14484 9.43453 18.8691 -8.94963
337 1 2.68034e-15 9.43453 18.8691 -8.94963
336 1 20.4415 7.86211 20.4415 -8.94963
335 1 18.8691 6.28969 18.8691 -8.94964
197 1 -9.22854e-17 1.43739e-15 12.5794 -8.94963
198 1 1.57242 1.57242 14.1518 -8.94964
199 1 3.14485 7.83882e-16 12.5794 -8.94964
200 1 4.71725 1.5724 14.1518 -8.9496
201 1 6.28966 1.48933e-15 12.5794 -8.94967
202 1 7.8621 1.57241 14.1518 -8.94962
203 1 9.43451 7.99424e-16 12.5794 -8.94961
204 1 11.007 1.57242 14.1518 -8.94965
205 1 12.5794 7.37298e-16 12.5794 -8.94961
206 1 14.1518 1.57241 14.1518 -8.94962
207 1 15.7242 1.74142e-15 12.5794 -8.94967
208 1 17.2967 1.5724 14.1518 -8.9496
209 1 18.8691 1.25703e-15 12.5794 -8.94964
210 1 20.4415 1.57242 14.1518 -8.94964
211 1 1.01742e-15 3.14484 12.5794 -8.94963
212 1 1.57242 4.71727 14.1518 -8.94966
213 1 3.14485 3.14486 12.5794 -8.94969
214 1 4.71716 4.71715 14.1519 -8.94928
215 1 6.28955 3.14466 12.5795 -8.94953
216 1 7.8621 4.71714 14.1519 -8.94998
217 1 9.43446 3.14465 12.5795 -8.9495
218 1 11.007 4.71718 14.152 -8.94958
219 1 12.5794 3.14465 12.5795 -8.9495
220 1 14.1518 4.71714 14.1519 -8.94998
221 1 15.7244 3.14466 12.5795 -8.94953
222 1 17.2967 4.71715 14.1519 -8.94928
223 1 18.8691 3.14486 12.5794 -8.94969
224 1 20.4415 4.71727 14.1518 -8.94966
225 1 9.69175e-16 6.28969 12.5794 -8.94966
226 1 1.57239 7.86209 14.1518 -8.94964
227 1 3.14477 6.28968 12.5794 -8.94985
228 1 4.717 7.86196 14.1519 -8.94949
229 1 6.28882 6.28886 12.5802 -8.94782
230 1 7.86083 7.86081 14.1535 -8.94782
231 1 9.43453 6.28867 12.5795 -8.95158
232 1 11.007 7.86204 14.1524 -8.95058
233 1 12.5794 6.28867 12.5795 -8.95158
234 1 14.1531 7.86081 14.1535 -8.94782
235 1 15.7251 6.28886 12.5802 -8.94782
236 1 17.2969 7.86196 14.1519 -8.94949
237 1 18.8691 6.28968 12.5794 -8.94985
238 1 20.4415 7.86209 14.1518 -8.94964
239 1 6.54754e-17 9.43452 12.5794 -8.94975
240 1 3.14457 9.43449 12.5795 -8.94991
241 1 6.28793 9.43428 12.5803 -8.9502
242 1 9.42722 9.42747 12.5848 -9.02811
243 1 12.5867 9.42747 12.5848 -9.02811
244 1 15.726 9.43428 12.5803 -8.9502
245 1 18.8693 9.43449 12.5795 -8.94991
246 1 1.08968e-16 9.34488e-16 15.7242 -8.94964
247 1 1.57242 1.57242 17.2966 -8.94963
248 1 3.14484 1.73696e-15 15.7242 -8.94962
249 1 4.71726 1.57242 17.2966 -8.94964
250 1 6.28969 1.51453e-15 15.7242 -8.94963
251 1 7.86211 1.57242 17.2966 -8.94963
252 1 9.43453 1.54564e-15 15.7242 -8.94965
253 1 11.007 1.57242 17.2966 -8.94963
254 1 12.5794 1.44561e-15 15.7242 -8.94965
255 1 14.1518 1.57242 17.2966 -8.94963
256 1 15.7242 1.19331e-15 15.7242 -8.94963
257 1 17.2966 1.57242 17.2966 -8.94964
258 1 18.8691 2.17596e-15 15.7242 -8.94962
259 1 20.4415 1.57242 17.2966 -8.94963
260 1 1.37048e-15 3.14484 15.7242 -8.94964
261 1 1.57242 4.71726 17.2966 -8.94963
262 1 3.14483 3.14483 15.7242 -8.94959
263 1 4.71725 4.71725 17.2967 -8.94957
264 1 6.28969 3.14484 15.7242 -8.94969
265 1 7.86212 4.71726 17.2966 -8.94971
266 1 9.43453 3.14483 15.7242 -8.94964
267 1 11.007 4.71725 17.2967 -8.94964
268 1 12.5794 3.14483 15.7242 -8.94964
269 1 14.1518 4.71726 17.2966 -8.94971
270 1 15.7242 3.14484 15.7242 -8.94969
271 1 17.2967 4.71725 17.2967 -8.94957
272 1 18.8691 3.14483 15.7242 -8.94959
273 1 20.4415 4.71726 17.2966 -8.94963
274 1 9.20758e-16 6.28968 15.7242 -8.94962
275 1 1.57242 7.86211 17.2966 -8.94964
276 1 3.14482 6.28967 15.7242 -8.9496
277 1 4.71725 7.8621 17.2967 -8.9497
278 1 6.28951 6.28951 15.7245 -8.94919
279 1 7.86189 7.86188 17.297 -8.94951
280 1 9.43459 6.28956 15.7242 -8.94978
281 1 11.007 7.86205 17.2967 -8.94941
282 1 12.5793 6.28956 15.7242 -8.94978
283 1 14.152 7.86188 17.297 -8.94951
284 1 15.7244 6.28951 15.7245 -8.94919
285 1 17.2967 7.8621 17.2967 -8.9497
286 1 18.8691 6.28967 15.7242 -8.9496
287 1 20.4415 7.86211 17.2966 -8.94964
288 1 8.36369e-16 9.43453 15.7242 -8.94963
289 1 3.14483 9.43452 15.7242 -8.94963
290 1 6.28952 9.43455 15.7244 -8.95
291 1 9.43342 9.43339 15.7261 -8.94811
292 1 12.5805 9.43339 15.7261 -8.94811
293 1 15.7244 9.43455 15.7244 -8.95
294 1 18.8691 9.43452 15.7242 -8.94963
295 1 7.35741e-16 1.01089e-15 18.8691 -8.94963
296 1 1.57242 1.57242 20.4415 -8.94963
297 1 3.14484 1.2547e-15 18.8691 -8.94963
298 1 4.71726 1.57242 20.4415 -8.94963
299 1 6.28969 1.30614e-15 18.8691 -8.94963
300 1 7.86211 1.57242 20.4415 -8.94963
301 1 9.43453 5.66418e-16 18.8691 -8.94963
302 1 11.007 1.57242 20.4415 -8.94963
303 1 12.5794 1.43706e-15 18.8691 -8.94963
304 1 14.1518 1.57242 20.4415 -8.94963
305 1 15.7242 1.82381e-15 18.8691 -8.94963
306 1 17.2966 1.57242 20.4415 -8.94963
307 1 18.8691 2.12812e-15 18.8691 -8.94963
308 1 20.4415 1.57242 20.4415 -8.94963
309 1 1.10568e-15 3.14484 18.8691 -8.94963
310 1 1.57242 4.71726 20.4415 -8.94963
311 1 3.14484 3.14484 18.8691 -8.94963
312 1 4.71726 4.71726 20.4415 -8.94961
313 1 6.28969 3.14484 18.8691 -8.94965
314 1 7.86211 4.71727 20.4415 -8.94965
315 1 9.43453 3.14484 18.8691 -8.94963
316 1 11.007 4.71726 20.4415 -8.94965
317 1 12.5794 3.14484 18.8691 -8.94963
318 1 14.1518 4.71727 20.4415 -8.94965
319 1 15.7242 3.14484 18.8691 -8.94965
320 1 17.2966 4.71726 20.4415 -8.94961
321 1 18.8691 3.14484 18.8691 -8.94963
322 1 20.4415 4.71726 20.4415 -8.94963
323 1 1.30164e-15 6.28969 18.8691 -8.94964
324 1 1.57242 7.86211 20.4415 -8.94963
325 1 3.14484 6.28969 18.8691 -8.94964
326 1 4.71727 7.86211 20.4415 -8.94965
327 1 6.28966 6.28965 18.8691 -8.94957
328 1 7.86207 7.86206 20.4415 -8.94968
329 1 9.43454 6.28968 18.8691 -8.94963
330 1 11.007 7.86209 20.4415 -8.94957
331 1 12.5794 6.28968 18.8691 -8.94963
332 1 14.1518 7.86206 20.4415 -8.94968
333 1 15.7242 6.28965 18.8691 -8.94957
334 1 17.2966 7.86211 20.4415 -8.94965
37 1 12.5794 6.28968 22.0139 -8.94963
35 1 9.43454 6.28968 22.0139 -8.94963
19 1 6.28969 3.14484 22.0139 -8.94965
25 1 15.7242 3.14484 22.0139 -8.94965
31 1 3.14484 6.28969 22.0139 -8.94964
3 1 3.14484 1.69466e-15 22.0139 -8.94963
13 1 18.8691 1.59698e-15 22.0139 -8.94963
15 1 -3.16278e-17 3.14484 22.0139 -8.94963
176 1 1.57242 1.57242 11.007 -8.94963
182 1 20.4415 1.57242 11.007 -8.94963
344 1 1.57242 11.007 1.57242 -8.94964
345 1 4.71724 11.007 1.57238 -8.94961
346 1 7.86206 11.007 1.57226 -8.94948
347 1 11.007 11.007 1.57027 -8.95401
348 1 14.1518 11.007 1.57226 -8.94948
349 1 17.2967 11.007 1.57238 -8.94961
350 1 20.4415 11.007 1.57242 -8.94964
688 2 10.2656 11.007 9.43453 0.56521
352 1 1.57242 14.1518 1.57242 -8.94964
353 1 3.14484 12.5794 -1.30472e-06 -8.94963
354 1 4.71725 14.1518 1.57241 -8.9497
687 2 11.7483 11.007 9.43453 0.56521
356 1 7.86189 14.152 1.57207 -8.94951
357 1 9.43441 12.5795 -0.000260342 -8.9498
358 1 11.007 14.1519 1.57231 -8.94941
359 1 12.5795 12.5795 -0.000260342 -8.9498
360 1 14.152 14.152 1.57207 -8.94951
511 1 18.8691 18.8691 9.43453 -8.94965
362 1 17.2967 14.1518 1.57241 -8.9497
363 1 18.8691 12.5794 -1.30472e-06 -8.94963
364 1 20.4415 14.1518 1.57242 -8.94964
365 1 6.56453e-16 15.7242 5.27156e-08 -8.94964
366 1 1.57242 17.2966 1.57242 -8.94963
510 1 15.7243 18.8691 9.43453 -8.9493
368 1 4.71725 17.2967 1.5724 -8.94957
369 1 6.28966 15.7242 -3.86391e-05 -8.94957
370 1 7.86212 17.2966 1.57243 -8.94971
509 1 12.5793 18.8702 9.43453 -8.95206
372 1 11.007 17.2966 1.5724 -8.94964
508 1 9.43455 18.8702 9.43453 -8.95206
374 1 14.1518 17.2966 1.57243 -8.94971
375 1 15.7242 15.7242 -3.86391e-05 -8.94957
376 1 17.2967 17.2967 1.5724 -8.94957
507 1 6.28964 18.8691 9.43453 -8.9493
378 1 20.4415 17.2966 1.57242 -8.94963
525 1 20.4415 14.1518 11.0069 -8.94972
380 1 1.57242 20.4415 1.57242 -8.94963
381 1 3.14484 18.8691 -9.17636e-07 -8.94963
382 1 4.71726 20.4415 1.57242 -8.94964
506 1 3.14484 18.8691 9.43453 -8.94965
384 1 7.86211 20.4415 1.57242 -8.94963
385 1 9.43453 18.8691 -9.92947e-07 -8.94963
386 1 11.007 20.4415 1.57242 -8.94963
387 1 12.5794 18.8691 -9.92947e-07 -8.94963
388 1 14.1518 20.4415 1.57242 -8.94963
505 1 2.62136e-16 18.8691 9.43453 -8.94964
390 1 17.2966 20.4415 1.57242 -8.94964
391 1 18.8691 18.8691 -9.17636e-07 -8.94963
392 1 20.4415 20.4415 1.57242 -8.94963
393 1 1.57239 11.007 4.71725 -8.9496
394 1 4.71704 11.007 4.71704 -8.94902
395 1 7.86191 11.007 4.71636 -8.95089
396 1 11.007 11.007 4.70175 -8.976
397 1 14.152 11.007 4.71636 -8.95089
398 1 17.2969 11.007 4.71704 -8.94902
399 1 20.4415 11.007 4.71725 -8.9496
400 1 2.38658e-15 12.5794 3.14484 -8.94963
401 1 1.57239 14.1518 4.71725 -8.94964
402 1 3.14483 12.5794 3.14483 -8.94963
403 1 4.717 14.1519 4.71711 -8.94949
404 1 6.28952 12.5793 3.14468 -8.95
405 1 7.86083 14.1531 4.71554 -8.94782
406 1 9.43342 12.5805 3.14298 -8.94811
407 1 11.007 14.1519 4.71665 -8.95058
408 1 12.5805 12.5805 3.14298 -8.94811
409 1 14.1531 14.1531 4.71554 -8.94782
410 1 15.7244 12.5793 3.14468 -8.95
411 1 17.2969 14.1519 4.71711 -8.94949
412 1 18.8691 12.5794 3.14483 -8.94963
413 1 20.4415 14.1518 4.71725 -8.94964
414 1 5.74242e-16 15.7242 3.14484 -8.94962
415 1 1.57242 17.2966 4.71727 -8.94966
416 1 3.14482 15.7242 3.14483 -8.9496
417 1 4.71716 17.2968 4.71716 -8.94928
418 1 6.28951 15.7244 3.14459 -8.94919
419 1 7.8621 17.2968 4.71718 -8.94998
420 1 9.43459 15.7243 3.14482 -8.94978
421 1 11.007 17.2967 4.71709 -8.94958
422 1 12.5793 15.7243 3.14482 -8.94978
423 1 14.1518 17.2968 4.71718 -8.94998
424 1 15.7244 15.7244 3.14459 -8.94919
425 1 17.2967 17.2968 4.71716 -8.94928
426 1 18.8691 15.7242 3.14483 -8.9496
427 1 20.4415 17.2966 4.71727 -8.94966
428 1 4.29211e-16 18.8691 3.14484 -8.94964
429 1 1.57242 20.4415 4.71727 -8.94964
430 1 3.14483 18.8691 3.14484 -8.94959
431 1 4.71725 20.4415 4.71725 -8.9496
432 1 6.28969 18.8691 3.14484 -8.94969
433 1 7.8621 20.4415 4.71725 -8.94962
434 1 9.43453 18.8691 3.14483 -8.94964
435 1 11.007 20.4415 4.71726 -8.94965
436 1 12.5794 18.8691 3.14483 -8.94964
437 1 14.1518 20.4415 4.71725 -8.94962
438 1 15.7242 18.8691 3.14484 -8.94969
439 1 17.2967 20.4415 4.71725 -8.9496
440 1 18.8691 18.8691 3.14484 -8.94959
441 1 20.4415 20.4415 4.71727 -8.94964
442 1 1.57232 11.007 7.86213 -8.94986
443 1 4.7164 11.007 7.86195 -8.95029
444 1 7.85828 11.007 7.85837 -9.03995
445 1 11.007 11.007 7.752 -9.36585
446 1 14.1556 11.007 7.85837 -9.03995
447 1 17.2975 11.007 7.86195 -8.95029
448 1 20.4416 11.007 7.86213 -8.94986
449 1 5.64624e-16 12.5794 6.28968 -8.94975
450 1 1.57239 14.1518 7.86212 -8.94972
451 1 3.14457 12.5794 6.28959 -8.94991
452 1 4.71682 14.1517 7.86224 -8.9512
453 1 6.28793 12.5796 6.28875 -8.9502
454 1 7.85772 14.1555 7.8579 -8.97896
455 1 9.42722 12.5864 6.2843 -9.02811
456 1 11.007 14.1519 7.85986 -9.05628
457 1 12.5867 12.5864 6.2843 -9.02811
458 1 14.1562 14.1555 7.8579 -8.97896
459 1 15.726 12.5796 6.28875 -8.9502
460 1 17.2971 14.1517 7.86224 -8.9512
461 1 18.8693 12.5794 6.28959 -8.94991
462 1 20.4415 14.1518 7.86212 -8.94972
463 1 6.07724e-16 15.7242 6.28969 -8.94966
464 1 1.57242 17.2966 7.86211 -8.94962
465 1 3.14477 15.7242 6.28969 -8.94985
466 1 4.71725 17.2966 7.86217 -8.94981
467 1 6.28882 15.725 6.28883 -8.94782
468 1 7.86138 17.2978 7.86152 -8.94923
469 1 9.43453 15.7252 6.28956 -8.95158
470 1 11.007 17.298 7.86106 -8.94627
471 1 12.5794 15.7252 6.28956 -8.95158
472 1 14.1525 17.2978 7.86152 -8.94923
473 1 15.7251 15.725 6.28883 -8.94782
474 1 17.2967 17.2966 7.86217 -8.94981
475 1 18.8691 15.7242 6.28969 -8.94985
476 1 20.4415 17.2966 7.86211 -8.94962
477 1 3.50741e-16 18.8691 6.28969 -8.94963
478 1 1.57242 20.4415 7.86211 -8.94963
479 1 3.14485 18.869 6.2897 -8.94969
480 1 4.71727 20.4415 7.86212 -8.94961
481 1 6.28955 18.8692 6.28956 -8.94953
482 1 7.86204 20.4416 7.86205 -8.9498
483 1 9.43446 18.8692 6.28957 -8.9495
484 1 11.007 20.4417 7.86198 -8.94963
485 1 12.5794 18.8692 6.28957 -8.9495
486 1 14.1519 20.4416 7.86205 -8.9498
487 1 15.7244 18.8692 6.28956 -8.94953
488 1 17.2966 20.4415 7.86212 -8.94961
489 1 18.8691 18.869 6.2897 -8.94969
490 1 20.4415 20.4415 7.86211 -8.94963
491 1 9.2428e-18 12.5794 9.43453 -8.94957
492 1 3.14477 12.5794 9.43453 -8.94899
493 1 6.29047 12.5778 9.43453 -8.99926
494 1 9.41025 12.6265 9.43453 -9.23587
495 1 12.6037 12.6265 9.43453 -9.23587
496 1 15.7234 12.5778 9.43453 -8.99926
497 1 18.8691 12.5794 9.43453 -8.94899
498 1 3.36087e-16 15.7242 9.43453 -8.94963
499 1 3.14481 15.7243 9.43453 -8.94941
500 1 6.28969 15.7242 9.43453 -8.94913
501 1 9.43436 15.7329 9.43453 -8.96385
502 1 12.5795 15.7329 9.43453 -8.96385
503 1 15.7242 15.7242 9.43453 -8.94913
504 1 18.8691 15.7243 9.43453 -8.94941
512 1 1.57232 11.007 11.0069 -8.94986
513 1 4.7164 11.007 11.0071 -8.95029
517 1 17.2975 11.007 11.0071 -8.95029
518 1 20.4416 11.007 11.0069 -8.94986
519 1 1.57239 14.1518 11.0069 -8.94972
520 1 4.71682 14.1517 11.0068 -8.9512
521 1 7.85772 14.1555 11.0112 -8.97896
522 1 11.007 14.1519 11.0092 -9.05628
523 1 14.1562 14.1555 11.0112 -8.97896
524 1 17.2971 14.1517 11.0068 -8.9512
527 1 4.71725 17.2966 11.0069 -8.94981
531 1 17.2967 17.2966 11.0069 -8.94981
534 1 4.71727 20.4415 11.0069 -8.94961
538 1 17.2966 20.4415 11.0069 -8.94961
686 1 20.4415 20.4415 20.4415 -8.94963
685 1 18.8691 18.8691 18.8691 -8.94963
514 1 7.85828 11.007 11.0107 -9.03995
515 1 11.007 11.007 11.1171 -9.36585
516 1 14.1556 11.007 11.0107 -9.03995
684 1 17.2966 20.4415 20.4415 -8.94963
683 1 15.7242 18.8691 18.8691 -8.94965
682 1 14.1518 20.4415 20.4415 -8.94963
681 1 12.5794 18.8691 18.8691 -8.94963
680 1 11.007 20.4415 20.4415 -8.94963
679 1 9.43453 18.8691 18.8691 -8.94963
678 1 7.86211 20.4415 20.4415 -8.94963
677 1 6.28969 18.8691 18.8691 -8.94965
676 1 4.71726 20.4415 20.4415 -8.94963
526 1 1.57242 17.2966 11.0069 -8.94962
389 1 15.7242 18.8691 22.0139 -8.94965
528 1 7.86138 17.2978 11.0075 -8.94923
529 1 11.007 17.298 11.008 -8.94627
530 1 14.1525 17.2978 11.0075 -8.94923
383 1 6.28969 18.8691 22.0139 -8.94965
532 1 20.4415 17.2966 11.0069 -8.94962
675 1 3.14484 18.8691 18.8691 -8.94963
377 1 18.8691 15.7242 22.0139 -8.94964
535 1 7.86204 20.4416 11.007 -8.9498
536 1 11.007 20.4417 11.0071 -8.94963
537 1 14.1519 20.4416 11.007 -8.9498
373 1 12.5794 15.7242 22.0139 -8.94963
674 1 1.57242 20.4415 20.4415 -8.94963
540 1 1.57239 11.007 14.1518 -8.9496
541 1 4.71704 11.007 14.152 -8.94902
542 1 7.86191 11.007 14.1527 -8.95089
543 1 11.007 11.007 14.1673 -8.976
544 1 14.152 11.007 14.1527 -8.95089
545 1 17.2969 11.007 14.152 -8.94902
546 1 20.4415 11.007 14.1518 -8.9496
547 1 3.6129e-16 12.5794 12.5794 -8.94975
548 1 1.57239 14.1518 14.1518 -8.94964
549 1 3.14457 12.5794 12.5795 -8.94991
550 1 4.717 14.1519 14.1519 -8.94949
551 1 6.28793 12.5796 12.5803 -8.9502
552 1 7.86083 14.1531 14.1535 -8.94782
553 1 9.42722 12.5864 12.5848 -9.02811
554 1 11.007 14.1519 14.1524 -8.95058
555 1 12.5867 12.5864 12.5848 -9.02811
556 1 14.1531 14.1531 14.1535 -8.94782
557 1 15.726 12.5796 12.5803 -8.9502
558 1 17.2969 14.1519 14.1519 -8.94949
559 1 18.8693 12.5794 12.5795 -8.94991
560 1 20.4415 14.1518 14.1518 -8.94964
561 1 5.28831e-16 15.7242 12.5794 -8.94966
562 1 1.57242 17.2966 14.1518 -8.94966
563 1 3.14477 15.7242 12.5794 -8.94985
564 1 4.71716 17.2968 14.1519 -8.94928
565 1 6.28882 15.725 12.5802 -8.94782
566 1 7.8621 17.2968 14.1519 -8.94998
567 1 9.43453 15.7252 12.5795 -8.95158
568 1 11.007 17.2967 14.152 -8.94958
569 1 12.5794 15.7252 12.5795 -8.95158
570 1 14.1518 17.2968 14.1519 -8.94998
571 1 15.7251 15.725 12.5802 -8.94782
572 1 17.2967 17.2968 14.1519 -8.94928
573 1 18.8691 15.7242 12.5794 -8.94985
574 1 20.4415 17.2966 14.1518 -8.94966
575 1 3.95065e-16 18.8691 12.5794 -8.94963
576 1 1.57242 20.4415 14.1518 -8.94964
577 1 3.14485 18.869 12.5794 -8.94969
578 1 4.71725 20.4415 14.1518 -8.9496
579 1 6.28955 18.8692 12.5795 -8.94953
580 1 7.8621 20.4415 14.1518 -8.94962
581 1 9.43446 18.8692 12.5795 -8.9495
582 1 11.007 20.4415 14.1518 -8.94965
583 1 12.5794 18.8692 12.5795 -8.9495
584 1 14.1518 20.4415 14.1518 -8.94962
585 1 15.7244 18.8692 12.5795 -8.94953
586 1 17.2967 20.4415 14.1518 -8.9496
587 1 18.8691 18.869 12.5794 -8.94969
588 1 20.4415 20.4415 14.1518 -8.94964
589 1 1.57242 11.007 17.2966 -8.94964
590 1 4.71724 11.007 17.2967 -8.94961
591 1 7.86206 11.007 17.2968 -8.94948
592 1 11.007 11.007 17.2988 -8.95401
593 1 14.1518 11.007 17.2968 -8.94948
594 1 17.2967 11.007 17.2967 -8.94961
595 1 20.4415 11.007 17.2966 -8.94964
596 1 7.59359e-16 12.5794 15.7242 -8.94963
597 1 1.57242 14.1518 17.2966 -8.94964
598 1 3.14483 12.5794 15.7242 -8.94963
599 1 4.71725 14.1518 17.2967 -8.9497
600 1 6.28952 12.5793 15.7244 -8.95
601 1 7.86189 14.152 17.297 -8.94951
602 1 9.43342 12.5805 15.7261 -8.94811
603 1 11.007 14.1519 17.2967 -8.94941
604 1 12.5805 12.5805 15.7261 -8.94811
605 1 14.152 14.152 17.297 -8.94951
606 1 15.7244 12.5793 15.7244 -8.95
607 1 17.2967 14.1518 17.2967 -8.9497
608 1 18.8691 12.5794 15.7242 -8.94963
609 1 20.4415 14.1518 17.2966 -8.94964
610 1 5.53533e-16 15.7242 15.7242 -8.94962
611 1 1.57242 17.2966 17.2966 -8.94963
612 1 3.14482 15.7242 15.7242 -8.9496
613 1 4.71725 17.2967 17.2967 -8.94957
614 1 6.28951 15.7244 15.7245 -8.94919
615 1 7.86212 17.2966 17.2966 -8.94971
616 1 9.43459 15.7243 15.7242 -8.94978
617 1 11.007 17.2966 17.2967 -8.94964
618 1 12.5793 15.7243 15.7242 -8.94978
619 1 14.1518 17.2966 17.2966 -8.94971
620 1 15.7244 15.7244 15.7245 -8.94919
621 1 17.2967 17.2967 17.2967 -8.94957
622 1 18.8691 15.7242 15.7242 -8.9496
623 1 20.4415 17.2966 17.2966 -8.94963
624 1 8.58723e-16 18.8691 15.7242 -8.94964
625 1 1.57242 20.4415 17.2966 -8.94963
626 1 3.14483 18.8691 15.7242 -8.94959
627 1 4.71726 20.4415 17.2966 -8.94964
628 1 6.28969 18.8691 15.7242 -8.94969
629 1 7.86211 20.4415 17.2966 -8.94963
630 1 9.43453 18.8691 15.7242 -8.94964
631 1 11.007 20.4415 17.2966 -8.94963
632 1 12.5794 18.8691 15.7242 -8.94964
633 1 14.1518 20.4415 17.2966 -8.94963
634 1 15.7242 18.8691 15.7242 -8.94969
635 1 17.2966 20.4415 17.2966 -8.94964
636 1 18.8691 18.8691 15.7242 -8.94959
637 1 20.4415 20.4415 17.2966 -8.94963
638 1 1.57242 11.007 20.4415 -8.94963
639 1 4.71726 11.007 20.4415 -8.94965
640 1 7.8621 11.007 20.4415 -8.94959
641 1 11.007 11.007 20.4415 -8.95073
642 1 14.1518 11.007 20.4415 -8.94959
643 1 17.2966 11.007 20.4415 -8.94965
644 1 20.4415 11.007 20.4415 -8.94963
645 1 1.84393e-15 12.5794 18.8691 -8.94963
646 1 1.57242 14.1518 20.4415 -8.94963
647 1 3.14484 12.5794 18.8691 -8.94963
648 1 4.71727 14.1518 20.4415 -8.94965
649 1 6.28968 12.5794 18.8691 -8.94967
650 1 7.86207 14.1518 20.4415 -8.94968
651 1 9.43441 12.5795 18.8693 -8.9498
652 1 11.007 14.1518 20.4415 -8.94957
653 1 12.5795 12.5795 18.8693 -8.9498
654 1 14.1518 14.1518 20.4415 -8.94968
655 1 15.7242 12.5794 18.8691 -8.94967
656 1 17.2966 14.1518 20.4415 -8.94965
657 1 18.8691 12.5794 18.8691 -8.94963
658 1 20.4415 14.1518 20.4415 -8.94963
659 1 3.19588e-16 15.7242 18.8691 -8.94964
660 1 1.57242 17.2966 20.4415 -8.94963
661 1 3.14484 15.7242 18.8691 -8.94964
662 1 4.71726 17.2966 20.4415 -8.94961
663 1 6.28966 15.7242 18.8691 -8.94957
664 1 7.86211 17.2966 20.4415 -8.94965
665 1 9.43454 15.7242 18.8691 -8.94963
666 1 11.007 17.2966 20.4415 -8.94965
667 1 12.5794 15.7242 18.8691 -8.94963
668 1 14.1518 17.2966 20.4415 -8.94965
669 1 15.7242 15.7242 18.8691 -8.94957
670 1 17.2966 17.2966 20.4415 -8.94961
671 1 18.8691 15.7242 18.8691 -8.94964
672 1 20.4415 17.2966 20.4415 -8.94963
673 1 2.71827e-16 18.8691 18.8691 -8.94963
351 1 1.75163e-15 12.5794 22.0139 -8.94963
355 1 6.28968 12.5794 22.0139 -8.94967
361 1 15.7242 12.5794 22.0139 -8.94967
367 1 3.14484 15.7242 22.0139 -8.94964
371 1 9.43454 15.7242 22.0139 -8.94963
379 1 3.58529e-16 18.8691 22.0139 -8.94963
539 1 20.4415 20.4415 11.007 -8.94963
533 1 1.57242 20.4415 11.007 -8.94963
