ITEM: TIMESTEP
38
ITEM: NUMBER OF ATOMS
688
ITEM: BOX BOUNDS pp pp pp
0.0000000000000000e+00 2.2013900999999997e+01
0.0000000000000000e+00 2.2013900999999997e+01
0.0000000000000000e+00 2.2013900999999997e+01
ITEM: ATOMS id type x y z c_pot
1 1 8.52523e-16 1.55113e-15 1.20262e-10 -8.94963
2 1 1.57242 1.57242 1.57242 -8.94963
196 1 20.4415 7.86211 11.0069 -8.94963
4 1 4.71726 1.57242 1.57242 -8.94963
5 1 6.28969 5.05587e-16 -1.68054e-09 -8.94963
6 1 7.86211 1.57242 1.57242 -8.94963
175 1 18.869 9.43452 9.43453 -8.94933
8 1 11.007 1.57242 1.57242 -8.94963
174 1 15.7234 9.43552 9.43453 -8.99982
10 1 14.1518 1.57242 1.57242 -8.94963
11 1 15.7242 4.63523e-16 -1.68054e-09 -8.94963
12 1 17.2966 1.57242 1.57242 -8.94963
195 1 17.2966 7.86218 11.0069 -8.95013
14 1 20.4415 1.57242 1.57242 -8.94963
194 1 14.1525 7.86196 11.0082 -8.98406
16 1 1.57242 4.71726 1.57242 -8.94963
17 1 3.14484 3.14484 1.41398e-08 -8.94963
18 1 4.71726 4.71726 1.57242 -8.94963
173 1 12.6003 9.39819 9.43453 -9.25701
20 1 7.86211 4.71726 1.57242 -8.94964
21 1 9.43453 3.14484 -3.77188e-08 -8.94963
22 1 11.007 4.71726 1.57242 -8.94963
23 1 12.5794 3.14484 -3.77188e-08 -8.94963
24 1 14.1518 4.71726 1.57242 -8.94964
172 1 9.41362 9.39819 9.43453 -9.25701
26 1 17.2966 4.71726 1.57242 -8.94963
27 1 18.8691 3.14484 1.41398e-08 -8.94963
28 1 20.4415 4.71726 1.57242 -8.94963
29 1 -1.46548e-16 6.28969 1.97439e-09 -8.94963
30 1 1.57242 7.86211 1.57242 -8.94963
171 1 6.2905 9.43552 9.43453 -8.99982
32 1 4.71726 7.86211 1.57242 -8.94963
33 1 6.28969 6.28969 -2.3479e-08 -8.94963
34 1 7.8621 7.8621 1.57242 -8.94959
170 1 3.14489 9.43452 9.43453 -8.94933
36 1 11.007 7.86212 1.57244 -8.94964
169 1 3.15344e-16 9.43453 9.43453 -8.9496
38 1 14.1518 7.8621 1.57242 -8.94959
39 1 15.7242 6.28969 -2.3479e-08 -8.94963
40 1 17.2966 7.86211 1.57242 -8.94963
168 1 18.8691 6.28968 9.43453 -8.94958
42 1 20.4415 7.86211 1.57242 -8.94963
167 1 15.7241 6.28989 9.43453 -8.9504
44 1 3.14484 9.43453 2.63835e-08 -8.94963
166 1 12.5793 6.28708 9.43453 -8.95954
46 1 9.43452 9.43452 -6.02901e-06 -8.94962
47 1 12.5794 9.43452 -6.02901e-06 -8.94962
165 1 9.43457 6.28708 9.43453 -8.95954
49 1 18.8691 9.43453 2.63835e-08 -8.94963
50 1 2.92289e-16 7.39289e-16 3.14484 -8.94963
51 1 1.57242 1.57242 4.71726 -8.94963
52 1 3.14484 2.05294e-15 3.14484 -8.94963
53 1 4.71726 1.57242 4.71726 -8.94963
54 1 6.28969 9.82102e-16 3.14484 -8.94963
55 1 7.86211 1.57242 4.71726 -8.94963
56 1 9.43453 7.77231e-16 3.14484 -8.94963
57 1 11.007 1.57242 4.71727 -8.94964
58 1 12.5794 7.2741e-16 3.14484 -8.94963
59 1 14.1518 1.57242 4.71726 -8.94963
60 1 15.7242 1.19344e-15 3.14484 -8.94963
61 1 17.2966 1.57242 4.71726 -8.94963
62 1 18.8691 2.08528e-15 3.14484 -8.94963
63 1 20.4415 1.57242 4.71726 -8.94963
64 1 4.19606e-16 3.14484 3.14484 -8.94963
65 1 1.57242 4.71726 4.71726 -8.94963
66 1 3.14484 3.14484 3.14484 -8.94963
67 1 4.71727 4.71726 4.71727 -8.94962
68 1 6.28969 3.14484 3.14484 -8.94963
69 1 7.86211 4.71727 4.71727 -8.94969
70 1 9.43453 3.14484 3.14484 -8.94963
71 1 11.007 4.71727 4.71726 -8.94964
72 1 12.5794 3.14484 3.14484 -8.94963
73 1 14.1518 4.71727 4.71727 -8.94969
74 1 15.7242 3.14484 3.14484 -8.94963
75 1 17.2966 4.71726 4.71727 -8.94962
76 1 18.8691 3.14484 3.14484 -8.94963
77 1 20.4415 4.71726 4.71726 -8.94963
78 1 4.44768e-16 6.28969 3.14484 -8.94963
79 1 1.57242 7.86211 4.71726 -8.94963
80 1 3.14484 6.28969 3.14484 -8.94963
81 1 4.71726 7.86209 4.71726 -8.94955
82 1 6.28969 6.28969 3.14484 -8.94963
83 1 7.8621 7.8621 4.71721 -8.94959
84 1 9.43454 6.28969 3.14485 -8.94969
85 1 11.007 7.86225 4.7174 -8.95099
86 1 12.5794 6.28969 3.14485 -8.94969
87 1 14.1518 7.8621 4.71721 -8.94959
88 1 15.7242 6.28969 3.14484 -8.94963
89 1 17.2966 7.86209 4.71726 -8.94955
90 1 18.8691 6.28969 3.14484 -8.94963
91 1 20.4415 7.86211 4.71726 -8.94963
92 1 9.83401e-16 9.43453 3.14484 -8.94963
93 1 3.14484 9.43453 3.14484 -8.94964
94 1 6.28968 9.43453 3.14483 -8.94975
95 1 9.4344 9.43439 3.14475 -8.9486
96 1 12.5795 9.43439 3.14475 -8.9486
97 1 15.7242 9.43453 3.14483 -8.94975
98 1 18.8691 9.43453 3.14484 -8.94964
99 1 -1.95113e-18 1.45085e-15 6.28969 -8.94963
100 1 1.57242 1.57242 7.86211 -8.94963
101 1 3.14484 1.27331e-15 6.28969 -8.94963
102 1 4.71726 1.57242 7.86211 -8.94963
103 1 6.28969 1.28075e-15 6.28969 -8.94963
104 1 7.86211 1.57242 7.86211 -8.94963
105 1 9.43453 6.01856e-16 6.28969 -8.94963
106 1 11.007 1.57242 7.8621 -8.94962
107 1 12.5794 3.92703e-16 6.28969 -8.94963
108 1 14.1518 1.57242 7.86211 -8.94963
109 1 15.7242 1.38023e-15 6.28969 -8.94963
110 1 17.2966 1.57242 7.86211 -8.94963
111 1 18.8691 1.39835e-15 6.28969 -8.94963
112 1 20.4415 1.57242 7.86211 -8.94963
113 1 8.82412e-16 3.14484 6.28969 -8.94963
114 1 1.57242 4.71726 7.86211 -8.94963
115 1 3.14484 3.14484 6.28969 -8.94964
116 1 4.71727 4.71727 7.86212 -8.9497
117 1 6.28968 3.14484 6.28968 -8.94961
118 1 7.86204 4.71721 7.86204 -8.94924
119 1 9.43453 3.14485 6.28969 -8.94962
120 1 11.007 4.71718 7.86198 -8.94845
121 1 12.5794 3.14485 6.28969 -8.94962
122 1 14.1519 4.71721 7.86204 -8.94924
123 1 15.7242 3.14484 6.28968 -8.94961
124 1 17.2966 4.71727 7.86212 -8.9497
125 1 18.8691 3.14484 6.28969 -8.94964
126 1 20.4415 4.71726 7.86211 -8.94963
127 1 2.40197e-16 6.28969 6.28969 -8.94963
128 1 1.57243 7.86211 7.86211 -8.94963
129 1 3.14485 6.28969 6.28969 -8.94967
130 1 4.71731 7.86218 7.86217 -8.95013
131 1 6.28967 6.28966 6.28966 -8.94934
132 1 7.86136 7.86196 7.86083 -8.98406
133 1 9.43457 6.28973 6.28978 -8.95058
134 1 11.007 7.863 7.86203 -9.05813
135 1 12.5793 6.28973 6.28978 -8.95058
136 1 14.1525 7.86196 7.86083 -8.98406
137 1 15.7242 6.28966 6.28966 -8.94934
138 1 17.2966 7.86218 7.86217 -8.95013
139 1 18.8691 6.28969 6.28969 -8.94967
140 1 20.4415 7.86211 7.86211 -8.94963
141 1 2.21511e-16 9.43453 6.28969 -8.94964
142 1 3.14483 9.43452 6.28968 -8.94966
143 1 6.28945 9.4344 6.28949 -8.94917
144 1 9.43319 9.43321 6.28991 -9.0379
145 1 12.5807 9.43321 6.28991 -9.0379
146 1 15.7244 9.4344 6.28949 -8.94917
147 1 18.8691 9.43452 6.28968 -8.94966
148 1 2.74058e-16 1.70162e-15 9.43453 -8.94963
149 1 3.14484 1.27999e-15 9.43453 -8.94963
150 1 6.28969 1.08911e-15 9.43453 -8.94963
151 1 9.43453 8.32699e-16 9.43453 -8.94969
152 1 12.5794 6.64822e-16 9.43453 -8.94969
153 1 15.7242 1.05917e-15 9.43453 -8.94963
154 1 18.8691 1.3402e-15 9.43453 -8.94963
155 1 1.71723e-16 3.14484 9.43453 -8.94963
156 1 3.14484 3.14484 9.43453 -8.94963
157 1 6.28969 3.14486 9.43453 -8.94959
158 1 9.43453 3.14474 9.43453 -8.9504
159 1 12.5794 3.14474 9.43453 -8.9504
160 1 15.7242 3.14486 9.43453 -8.94959
161 1 18.8691 3.14484 9.43453 -8.94963
162 1 5.71098e-16 6.28969 9.43453 -8.94963
163 1 3.14485 6.28968 9.43453 -8.94958
164 1 6.28985 6.28989 9.43453 -8.9504
193 1 11.007 7.863 11.007 -9.05813
192 1 7.86136 7.86196 11.0082 -8.98406
190 1 1.57243 7.86211 11.0069 -8.94963
191 1 4.71731 7.86218 11.0069 -8.95013
177 1 4.71726 1.57242 11.007 -8.94963
181 1 17.2966 1.57242 11.007 -8.94963
184 1 4.71727 4.71727 11.0069 -8.9497
188 1 17.2966 4.71727 11.0069 -8.9497
7 1 9.43453 7.90766e-16 2.27342e-09 -8.94963
9 1 12.5794 8.25614e-16 2.27342e-09 -8.94963
343 1 18.8691 9.43453 18.8691 -8.94963
48 1 15.7242 9.43453 22.0139 -8.94964
178 1 7.86211 1.57242 11.007 -8.94963
179 1 11.007 1.57242 11.007 -8.94962
180 1 14.1518 1.57242 11.007 -8.94963
45 1 6.28969 9.43453 22.0139 -8.94964
342 1 15.7242 9.43453 18.8691 -8.94964
183 1 1.57242 4.71726 11.007 -8.94963
43 1 1.31915e-15 9.43453 22.0139 -8.94963
185 1 7.86204 4.71721 11.007 -8.94924
186 1 11.007 4.71718 11.0071 -8.94845
187 1 14.1519 4.71721 11.007 -8.94924
41 1 18.8691 6.28969 22.0139 -8.94963
189 1 20.4415 4.71726 11.007 -8.94963
341 1 12.5794 9.43452 18.8691 -8.94962
340 1 9.43452 9.43452 18.8691 -8.94962
339 1 6.28969 9.43453 18.8691 -8.94964
338 1 3.14484 9.43453 18.8691 -8.94963
337 1 1.24098e-15 9.43453 18.8691 -8.94963
336 1 20.4415 7.86211 20.4415 -8.94963
335 1 18.8691 6.28969 18.8691 -8.94963
197 1 1.80237e-17 1.65047e-15 12.5794 -8.94963
198 1 1.57242 1.57242 14.1518 -8.94963
199 1 3.14484 1.388e-15 12.5794 -8.94963
200 1 4.71726 1.57242 14.1518 -8.94963
201 1 6.28969 1.53911e-15 12.5794 -8.94963
202 1 7.86211 1.57242 14.1518 -8.94963
203 1 9.43453 6.8044e-16 12.5794 -8.94963
204 1 11.007 1.57242 14.1518 -8.94964
205 1 12.5794 6.47563e-16 12.5794 -8.94963
206 1 14.1518 1.57242 14.1518 -8.94963
207 1 15.7242 1.47384e-15 12.5794 -8.94963
208 1 17.2966 1.57242 14.1518 -8.94963
209 1 18.8691 1.41021e-15 12.5794 -8.94963
210 1 20.4415 1.57242 14.1518 -8.94963
211 1 8.6091e-16 3.14484 12.5794 -8.94963
212 1 1.57242 4.71726 14.1518 -8.94963
213 1 3.14484 3.14484 12.5794 -8.94964
214 1 4.71727 4.71726 14.1518 -8.94962
215 1 6.28968 3.14484 12.5794 -8.94961
216 1 7.86211 4.71727 14.1518 -8.94969
217 1 9.43453 3.14485 12.5794 -8.94962
218 1 11.007 4.71727 14.1518 -8.94964
219 1 12.5794 3.14485 12.5794 -8.94962
220 1 14.1518 4.71727 14.1518 -8.94969
221 1 15.7242 3.14484 12.5794 -8.94961
222 1 17.2966 4.71726 14.1518 -8.94962
223 1 18.8691 3.14484 12.5794 -8.94964
224 1 20.4415 4.71726 14.1518 -8.94963
225 1 5.52889e-16 6.28969 12.5794 -8.94963
226 1 1.57242 7.86211 14.1518 -8.94963
227 1 3.14485 6.28969 12.5794 -8.94967
228 1 4.71726 7.86209 14.1518 -8.94955
229 1 6.28967 6.28966 12.5794 -8.94934
230 1 7.8621 7.8621 14.1519 -8.94959
231 1 9.43457 6.28973 12.5793 -8.95058
232 1 11.007 7.86225 14.1517 -8.95099
233 1 12.5793 6.28973 12.5793 -8.95058
234 1 14.1518 7.8621 14.1519 -8.94959
235 1 15.7242 6.28966 12.5794 -8.94934
236 1 17.2966 7.86209 14.1518 -8.94955
237 1 18.8691 6.28969 12.5794 -8.94967
238 1 20.4415 7.86211 14.1518 -8.94963
239 1 2.58978e-16 9.43453 12.5794 -8.94964
240 1 3.14483 9.43452 12.5794 -8.94966
241 1 6.28945 9.4344 12.5796 -8.94917
242 1 9.43319 9.43321 12.5791 -9.0379
243 1 12.5807 9.43321 12.5791 -9.0379
244 1 15.7244 9.4344 12.5796 -8.94917
245 1 18.8691 9.43452 12.5794 -8.94966
246 1 3.32298e-16 7.29276e-16 15.7242 -8.94963
247 1 1.57242 1.57242 17.2966 -8.94963
248 1 3.14484 1.9165e-15 15.7242 -8.94963
249 1 4.71726 1.57242 17.2966 -8.94963
250 1 6.28969 1.10489e-15 15.7242 -8.94963
251 1 7.86211 1.57242 17.2966 -8.94963
252 1 9.43453 4.57704e-16 15.7242 -8.94963
253 1 11.007 1.57242 17.2966 -8.94963
254 1 12.5794 4.94164e-16 15.7242 -8.94963
255 1 14.1518 1.57242 17.2966 -8.94963
256 1 15.7242 1.16615e-15 15.7242 -8.94963
257 1 17.2966 1.57242 17.2966 -8.94963
258 1 18.8691 2.07502e-15 15.7242 -8.94963
259 1 20.4415 1.57242 17.2966 -8.94963
260 1 5.35597e-16 3.14484 15.7242 -8.94963
261 1 1.57242 4.71726 17.2966 -8.94963
262 1 3.14484 3.14484 15.7242 -8.94963
263 1 4.71726 4.71726 17.2966 -8.94963
264 1 6.28969 3.14484 15.7242 -8.94963
265 1 7.86211 4.71726 17.2966 -8.94964
266 1 9.43453 3.14484 15.7242 -8.94963
267 1 11.007 4.71726 17.2966 -8.94963
268 1 12.5794 3.14484 15.7242 -8.94963
269 1 14.1518 4.71726 17.2966 -8.94964
270 1 15.7242 3.14484 15.7242 -8.94963
271 1 17.2966 4.71726 17.2966 -8.94963
272 1 18.8691 3.14484 15.7242 -8.94963
273 1 20.4415 4.71726 17.2966 -8.94963
274 1 4.33941e-16 6.28969 15.7242 -8.94963
275 1 1.57242 7.86211 17.2966 -8.94963
276 1 3.14484 6.28969 15.7242 -8.94963
277 1 4.71726 7.86211 17.2966 -8.94963
278 1 6.28969 6.28969 15.7242 -8.94963
279 1 7.8621 7.8621 17.2966 -8.94959
280 1 9.43454 6.28969 15.7242 -8.94969
281 1 11.007 7.86212 17.2966 -8.94964
282 1 12.5794 6.28969 15.7242 -8.94969
283 1 14.1518 7.8621 17.2966 -8.94959
284 1 15.7242 6.28969 15.7242 -8.94963
285 1 17.2966 7.86211 17.2966 -8.94963
286 1 18.8691 6.28969 15.7242 -8.94963
287 1 20.4415 7.86211 17.2966 -8.94963
288 1 1.08135e-15 9.43453 15.7242 -8.94963
289 1 3.14484 9.43453 15.7242 -8.94964
290 1 6.28968 9.43453 15.7242 -8.94975
291 1 9.4344 9.43439 15.7243 -8.9486
292 1 12.5795 9.43439 15.7243 -8.9486
293 1 15.7242 9.43453 15.7242 -8.94975
294 1 18.8691 9.43453 15.7242 -8.94964
295 1 8.7584e-16 1.60666e-15 18.8691 -8.94963
296 1 1.57242 1.57242 20.4415 -8.94963
297 1 3.14484 1.30686e-15 18.8691 -8.94963
298 1 4.71726 1.57242 20.4415 -8.94963
299 1 6.28969 4.86643e-16 18.8691 -8.94963
300 1 7.86211 1.57242 20.4415 -8.94963
301 1 9.43453 7.161e-16 18.8691 -8.94963
302 1 11.007 1.57242 20.4415 -8.94963
303 1 12.5794 7.3785e-16 18.8691 -8.94963
304 1 14.1518 1.57242 20.4415 -8.94963
305 1 15.7242 4.34089e-16 18.8691 -8.94963
306 1 17.2966 1.57242 20.4415 -8.94963
307 1 18.8691 1.33198e-15 18.8691 -8.94963
308 1 20.4415 1.57242 20.4415 -8.94963
309 1 5.52537e-18 3.14484 18.8691 -8.94963
310 1 1.57242 4.71726 20.4415 -8.94963
311 1 3.14484 3.14484 18.8691 -8.94963
312 1 4.71726 4.71726 20.4415 -8.94963
313 1 6.28969 3.14484 18.8691 -8.94963
314 1 7.86211 4.71726 20.4415 -8.94963
315 1 9.43453 3.14484 18.8691 -8.94963
316 1 11.007 4.71726 20.4415 -8.94963
317 1 12.5794 3.14484 18.8691 -8.94963
318 1 14.1518 4.71726 20.4415 -8.94963
319 1 15.7242 3.14484 18.8691 -8.94963
320 1 17.2966 4.71726 20.4415 -8.94963
321 1 18.8691 3.14484 18.8691 -8.94963
322 1 20.4415 4.71726 20.4415 -8.94963
323 1 -1.31742e-16 6.28969 18.8691 -8.94963
324 1 1.57242 7.86211 20.4415 -8.94963
325 1 3.14484 6.28969 18.8691 -8.94963
326 1 4.71726 7.86211 20.4415 -8.94963
327 1 6.28969 6.28969 18.8691 -8.94963
328 1 7.86211 7.86211 20.4415 -8.94963
329 1 9.43453 6.28969 18.8691 -8.94964
330 1 11.007 7.86211 20.4415 -8.94963
331 1 12.5794 6.28969 18.8691 -8.94964
332 1 14.1518 7.86211 20.4415 -8.94963
333 1 15.7242 6.28969 18.8691 -8.94963
334 1 17.2966 7.86211 20.4415 -8.94963
37 1 12.5794 6.28969 22.0139 -8.94964
35 1 9.43453 6.28969 22.0139 -8.94964
19 1 6.28969 3.14484 22.0139 -8.94963
25 1 15.7242 3.14484 22.0139 -8.94963
31 1 3.14484 6.28969 22.0139 -8.94963
3 1 3.14484 1.22675e-15 22.0139 -8.94963
13 1 18.8691 1.25753e-15 22.0139 -8.94963
15 1 -1.15572e-16 3.14484 22.0139 -8.94963
176 1 1.57242 1.57242 11.007 -8.94963
182 1 20.4415 1.57242 11.007 -8.94963
344 1 1.57242 11.007 1.57242 -8.94963
345 1 4.71726 11.007 1.57242 -8.94962
346 1 7.86212 11.007 1.57243 -8.94968
347 1 11.007 11.007 1.57219 -8.95114
348 1 14.1518 11.007 1.57243 -8.94968
349 1 17.2966 11.007 1.57242 -8.94962
350 1 20.4415 11.007 1.57242 -8.94963
688 2 10.2323 11.007 9.43453 0.738662
352 1 1.57242 14.1518 1.57242 -8.94963
353 1 3.14484 12.5794 2.63835e-08 -8.94963
354 1 4.71726 14.1518 1.57242 -8.94963
687 2 11.7816 11.007 9.43453 0.738662
356 1 7.8621 14.1518 1.57242 -8.94959
357 1 9.43452 12.5794 -6.02901e-06 -8.94962
358 1 11.007 14.1518 1.57244 -8.94964
359 1 12.5794 12.5794 -6.02901e-06 -8.94962
360 1 14.1518 14.1518 1.57242 -8.94959
511 1 18.8691 18.8691 9.43453 -8.94963
362 1 17.2966 14.1518 1.57242 -8.94963
363 1 18.8691 12.5794 2.63835e-08 -8.94963
364 1 20.4415 14.1518 1.57242 -8.94963
365 1 -7.04449e-17 15.7242 1.97438e-09 -8.94963
366 1 1.57242 17.2966 1.57242 -8.94963
510 1 15.7242 18.869 9.43453 -8.94959
368 1 4.71726 17.2966 1.57242 -8.94963
369 1 6.28969 15.7242 -2.3479e-08 -8.94963
370 1 7.86211 17.2966 1.57242 -8.94964
509 1 12.5794 18.8692 9.43453 -8.9504
372 1 11.007 17.2966 1.57242 -8.94963
508 1 9.43453 18.8692 9.43453 -8.9504
374 1 14.1518 17.2966 1.57242 -8.94964
375 1 15.7242 15.7242 -2.3479e-08 -8.94963
376 1 17.2966 17.2966 1.57242 -8.94963
507 1 6.28969 18.869 9.43453 -8.94959
378 1 20.4415 17.2966 1.57242 -8.94963
525 1 20.4415 14.1518 11.0069 -8.94963
380 1 1.57242 20.4415 1.57242 -8.94963
381 1 3.14484 18.8691 1.41398e-08 -8.94963
382 1 4.71726 20.4415 1.57242 -8.94963
506 1 3.14484 18.8691 9.43453 -8.94963
384 1 7.86211 20.4415 1.57242 -8.94963
385 1 9.43453 18.8691 -3.77188e-08 -8.94963
386 1 11.007 20.4415 1.57242 -8.94963
387 1 12.5794 18.8691 -3.77188e-08 -8.94963
388 1 14.1518 20.4415 1.57242 -8.94963
505 1 3.37807e-16 18.8691 9.43453 -8.94963
390 1 17.2966 20.4415 1.57242 -8.94963
391 1 18.8691 18.8691 1.41398e-08 -8.94963
392 1 20.4415 20.4415 1.57242 -8.94963
393 1 1.57242 11.007 4.71726 -8.94962
394 1 4.71727 11.007 4.71727 -8.94958
395 1 7.86224 11.007 4.71726 -8.95162
396 1 11.007 11.007 4.7119 -8.96641
397 1 14.1517 11.007 4.71726 -8.95162
398 1 17.2966 11.007 4.71727 -8.94958
399 1 20.4415 11.007 4.71726 -8.94962
400 1 1.06247e-15 12.5794 3.14484 -8.94963
401 1 1.57242 14.1518 4.71726 -8.94963
402 1 3.14484 12.5794 3.14484 -8.94964
403 1 4.71726 14.1518 4.71726 -8.94955
404 1 6.28968 12.5794 3.14483 -8.94975
405 1 7.8621 14.1518 4.71721 -8.94959
406 1 9.4344 12.5795 3.14475 -8.9486
407 1 11.007 14.1516 4.7174 -8.95099
408 1 12.5795 12.5795 3.14475 -8.9486
409 1 14.1518 14.1518 4.71721 -8.94959
410 1 15.7242 12.5794 3.14483 -8.94975
411 1 17.2966 14.1518 4.71726 -8.94955
412 1 18.8691 12.5794 3.14484 -8.94964
413 1 20.4415 14.1518 4.71726 -8.94963
414 1 3.9778e-16 15.7242 3.14484 -8.94963
415 1 1.57242 17.2966 4.71726 -8.94963
416 1 3.14484 15.7242 3.14484 -8.94963
417 1 4.71727 17.2966 4.71727 -8.94962
418 1 6.28969 15.7242 3.14484 -8.94963
419 1 7.86211 17.2966 4.71727 -8.94969
420 1 9.43454 15.7242 3.14485 -8.94969
421 1 11.007 17.2966 4.71726 -8.94964
422 1 12.5794 15.7242 3.14485 -8.94969
423 1 14.1518 17.2966 4.71727 -8.94969
424 1 15.7242 15.7242 3.14484 -8.94963
425 1 17.2966 17.2966 4.71727 -8.94962
426 1 18.8691 15.7242 3.14484 -8.94963
427 1 20.4415 17.2966 4.71726 -8.94963
428 1 3.74637e-16 18.8691 3.14484 -8.94963
429 1 1.57242 20.4415 4.71726 -8.94963
430 1 3.14484 18.8691 3.14484 -8.94963
431 1 4.71726 20.4415 4.71726 -8.94963
432 1 6.28969 18.8691 3.14484 -8.94963
433 1 7.86211 20.4415 4.71726 -8.94963
434 1 9.43453 18.8691 3.14484 -8.94963
435 1 11.007 20.4415 4.71727 -8.94964
436 1 12.5794 18.8691 3.14484 -8.94963
437 1 14.1518 20.4415 4.71726 -8.94963
438 1 15.7242 18.8691 3.14484 -8.94963
439 1 17.2966 20.4415 4.71726 -8.94963
440 1 18.8691 18.8691 3.14484 -8.94963
441 1 20.4415 20.4415 4.71726 -8.94963
442 1 1.57242 11.007 7.86211 -8.94971
443 1 4.71707 11.007 7.8621 -8.95046
444 1 7.85903 11.007 7.85986 -9.03542
445 1 11.007 11.007 7.78891 -9.41395
446 1 14.1549 11.007 7.85986 -9.03542
447 1 17.2968 11.007 7.8621 -8.95046
448 1 20.4415 11.007 7.86211 -8.94971
449 1 2.61903e-16 12.5794 6.28969 -8.94964
450 1 1.57243 14.1518 7.86211 -8.94963
451 1 3.14483 12.5794 6.28968 -8.94966
452 1 4.71731 14.1517 7.86217 -8.95013
453 1 6.28945 12.5795 6.28949 -8.94917
454 1 7.86136 14.1519 7.86083 -8.98406
455 1 9.43319 12.5807 6.28991 -9.0379
456 1 11.007 14.1509 7.86203 -9.05813
457 1 12.5807 12.5807 6.28991 -9.0379
458 1 14.1525 14.1519 7.86083 -8.98406
459 1 15.7244 12.5795 6.28949 -8.94917
460 1 17.2966 14.1517 7.86217 -8.95013
461 1 18.8691 12.5794 6.28968 -8.94966
462 1 20.4415 14.1518 7.86211 -8.94963
463 1 2.72091e-16 15.7242 6.28969 -8.94963
464 1 1.57242 17.2966 7.86211 -8.94963
465 1 3.14485 15.7242 6.28969 -8.94967
466 1 4.71727 17.2966 7.86212 -8.9497
467 1 6.28967 15.7242 6.28966 -8.94934
468 1 7.86204 17.2967 7.86204 -8.94924
469 1 9.43457 15.7242 6.28978 -8.95058
470 1 11.007 17.2967 7.86198 -8.94845
471 1 12.5793 15.7242 6.28978 -8.95058
472 1 14.1519 17.2967 7.86204 -8.94924
473 1 15.7242 15.7242 6.28966 -8.94934
474 1 17.2966 17.2966 7.86212 -8.9497
475 1 18.8691 15.7242 6.28969 -8.94967
476 1 20.4415 17.2966 7.86211 -8.94963
477 1 8.51503e-16 18.8691 6.28969 -8.94963
478 1 1.57242 20.4415 7.86211 -8.94963
479 1 3.14484 18.8691 6.28969 -8.94964
480 1 4.71726 20.4415 7.86211 -8.94963
481 1 6.28968 18.8691 6.28968 -8.94961
482 1 7.86211 20.4415 7.86211 -8.94963
483 1 9.43453 18.8691 6.28969 -8.94962
484 1 11.007 20.4415 7.8621 -8.94962
485 1 12.5794 18.8691 6.28969 -8.94962
486 1 14.1518 20.4415 7.86211 -8.94963
487 1 15.7242 18.8691 6.28968 -8.94961
488 1 17.2966 20.4415 7.86211 -8.94963
489 1 18.8691 18.8691 6.28969 -8.94964
490 1 20.4415 20.4415 7.86211 -8.94963
491 1 2.20944e-16 12.5794 9.43453 -8.9496
492 1 3.14489 12.5794 9.43453 -8.94933
493 1 6.2905 12.5784 9.43453 -8.99982
494 1 9.41362 12.6157 9.43453 -9.25701
495 1 12.6003 12.6157 9.43453 -9.25701
496 1 15.7234 12.5784 9.43453 -8.99982
497 1 18.869 12.5794 9.43453 -8.94933
498 1 5.81505e-16 15.7242 9.43453 -8.94963
499 1 3.14485 15.7242 9.43453 -8.94958
500 1 6.28985 15.724 9.43453 -8.9504
501 1 9.43457 15.7268 9.43453 -8.95954
502 1 12.5793 15.7268 9.43453 -8.95954
503 1 15.7241 15.724 9.43453 -8.9504
504 1 18.8691 15.7242 9.43453 -8.94958
512 1 1.57242 11.007 11.0069 -8.94971
513 1 4.71707 11.007 11.007 -8.95046
517 1 17.2968 11.007 11.007 -8.95046
518 1 20.4415 11.007 11.0069 -8.94971
519 1 1.57243 14.1518 11.0069 -8.94963
520 1 4.71731 14.1517 11.0069 -8.95013
521 1 7.86136 14.1519 11.0082 -8.98406
522 1 11.007 14.1509 11.007 -9.05813
523 1 14.1525 14.1519 11.0082 -8.98406
524 1 17.2966 14.1517 11.0069 -8.95013
527 1 4.71727 17.2966 11.0069 -8.9497
531 1 17.2966 17.2966 11.0069 -8.9497
534 1 4.71726 20.4415 11.007 -8.94963
538 1 17.2966 20.4415 11.007 -8.94963
686 1 20.4415 20.4415 20.4415 -8.94963
685 1 18.8691 18.8691 18.8691 -8.94963
514 1 7.85903 11.007 11.0092 -9.03542
515 1 11.007 11.007 11.0802 -9.41395
516 1 14.1549 11.007 11.0092 -9.03542
684 1 17.2966 20.4415 20.4415 -8.94963
683 1 15.7242 18.8691 18.8691 -8.94963
682 1 14.1518 20.4415 20.4415 -8.94963
681 1 12.5794 18.8691 18.8691 -8.94963
680 1 11.007 20.4415 20.4415 -8.94963
679 1 9.43453 18.8691 18.8691 -8.94963
678 1 7.86211 20.4415 20.4415 -8.94963
677 1 6.28969 18.8691 18.8691 -8.94963
676 1 4.71726 20.4415 20.4415 -8.94963
526 1 1.57242 17.2966 11.007 -8.94963
389 1 15.7242 18.8691 22.0139 -8.94963
528 1 7.86204 17.2967 11.007 -8.94924
529 1 11.007 17.2967 11.0071 -8.94845
530 1 14.1519 17.2967 11.007 -8.94924
383 1 6.28969 18.8691 22.0139 -8.94963
532 1 20.4415 17.2966 11.007 -8.94963
675 1 3.14484 18.8691 18.8691 -8.94963
377 1 18.8691 15.7242 22.0139 -8.94963
535 1 7.86211 20.4415 11.007 -8.94963
536 1 11.007 20.4415 11.007 -8.94962
537 1 14.1518 20.4415 11.007 -8.94963
373 1 12.5794 15.7242 22.0139 -8.94964
674 1 1.57242 20.4415 20.4415 -8.94963
540 1 1.57242 11.007 14.1518 -8.94962
541 1 4.71727 11.007 14.1518 -8.94958
542 1 7.86224 11.007 14.1518 -8.95162
543 1 11.007 11.007 14.1572 -8.96641
544 1 14.1517 11.007 14.1518 -8.95162
545 1 17.2966 11.007 14.1518 -8.94958
546 1 20.4415 11.007 14.1518 -8.94962
547 1 3.19242e-16 12.5794 12.5794 -8.94964
548 1 1.57242 14.1518 14.1518 -8.94963
549 1 3.14483 12.5794 12.5794 -8.94966
550 1 4.71726 14.1518 14.1518 -8.94955
551 1 6.28945 12.5795 12.5796 -8.94917
552 1 7.8621 14.1518 14.1519 -8.94959
553 1 9.43319 12.5807 12.5791 -9.0379
554 1 11.007 14.1516 14.1517 -8.95099
555 1 12.5807 12.5807 12.5791 -9.0379
556 1 14.1518 14.1518 14.1519 -8.94959
557 1 15.7244 12.5795 12.5796 -8.94917
558 1 17.2966 14.1518 14.1518 -8.94955
559 1 18.8691 12.5794 12.5794 -8.94966
560 1 20.4415 14.1518 14.1518 -8.94963
561 1 3.22361e-16 15.7242 12.5794 -8.94963
562 1 1.57242 17.2966 14.1518 -8.94963
563 1 3.14485 15.7242 12.5794 -8.94967
564 1 4.71727 17.2966 14.1518 -8.94962
565 1 6.28967 15.7242 12.5794 -8.94934
566 1 7.86211 17.2966 14.1518 -8.94969
567 1 9.43457 15.7242 12.5793 -8.95058
568 1 11.007 17.2966 14.1518 -8.94964
569 1 12.5793 15.7242 12.5793 -8.95058
570 1 14.1518 17.2966 14.1518 -8.94969
571 1 15.7242 15.7242 12.5794 -8.94934
572 1 17.2966 17.2966 14.1518 -8.94962
573 1 18.8691 15.7242 12.5794 -8.94967
574 1 20.4415 17.2966 14.1518 -8.94963
575 1 8.42504e-16 18.8691 12.5794 -8.94963
576 1 1.57242 20.4415 14.1518 -8.94963
577 1 3.14484 18.8691 12.5794 -8.94964
578 1 4.71726 20.4415 14.1518 -8.94963
579 1 6.28968 18.8691 12.5794 -8.94961
580 1 7.86211 20.4415 14.1518 -8.94963
581 1 9.43453 18.8691 12.5794 -8.94962
582 1 11.007 20.4415 14.1518 -8.94964
583 1 12.5794 18.8691 12.5794 -8.94962
584 1 14.1518 20.4415 14.1518 -8.94963
585 1 15.7242 18.8691 12.5794 -8.94961
586 1 17.2966 20.4415 14.1518 -8.94963
587 1 18.8691 18.8691 12.5794 -8.94964
588 1 20.4415 20.4415 14.1518 -8.94963
589 1 1.57242 11.007 17.2966 -8.94963
590 1 4.71726 11.007 17.2966 -8.94962
591 1 7.86212 11.007 17.2966 -8.94968
592 1 11.007 11.007 17.2969 -8.95114
593 1 14.1518 11.007 17.2966 -8.94968
594 1 17.2966 11.007 17.2966 -8.94962
595 1 20.4415 11.007 17.2966 -8.94963
596 1 1.08068e-15 12.5794 15.7242 -8.94963
597 1 1.57242 14.1518 17.2966 -8.94963
598 1 3.14484 12.5794 15.7242 -8.94964
599 1 4.71726 14.1518 17.2966 -8.94963
600 1 6.28968 12.5794 15.7242 -8.94975
601 1 7.8621 14.1518 17.2966 -8.94959
602 1 9.4344 12.5795 15.7243 -8.9486
603 1 11.007 14.1518 17.2966 -8.94964
604 1 12.5795 12.5795 15.7243 -8.9486
605 1 14.1518 14.1518 17.2966 -8.94959
606 1 15.7242 12.5794 15.7242 -8.94975
607 1 17.2966 14.1518 17.2966 -8.94963
608 1 18.8691 12.5794 15.7242 -8.94964
609 1 20.4415 14.1518 17.2966 -8.94963
610 1 2.62139e-16 15.7242 15.7242 -8.94963
611 1 1.57242 17.2966 17.2966 -8.94963
612 1 3.14484 15.7242 15.7242 -8.94963
613 1 4.71726 17.2966 17.2966 -8.94963
614 1 6.28969 15.7242 15.7242 -8.94963
615 1 7.86211 17.2966 17.2966 -8.94964
616 1 9.43454 15.7242 15.7242 -8.94969
617 1 11.007 17.2966 17.2966 -8.94963
618 1 12.5794 15.7242 15.7242 -8.94969
619 1 14.1518 17.2966 17.2966 -8.94964
620 1 15.7242 15.7242 15.7242 -8.94963
621 1 17.2966 17.2966 17.2966 -8.94963
622 1 18.8691 15.7242 15.7242 -8.94963
623 1 20.4415 17.2966 17.2966 -8.94963
624 1 3.4394e-16 18.8691 15.7242 -8.94963
625 1 1.57242 20.4415 17.2966 -8.94963
626 1 3.14484 18.8691 15.7242 -8.94963
627 1 4.71726 20.4415 17.2966 -8.94963
628 1 6.28969 18.8691 15.7242 -8.94963
629 1 7.86211 20.4415 17.2966 -8.94963
630 1 9.43453 18.8691 15.7242 -8.94963
631 1 11.007 20.4415 17.2966 -8.94963
632 1 12.5794 18.8691 15.7242 -8.94963
633 1 14.1518 20.4415 17.2966 -8.94963
634 1 15.7242 18.8691 15.7242 -8.94963
635 1 17.2966 20.4415 17.2966 -8.94963
636 1 18.8691 18.8691 15.7242 -8.94963
637 1 20.4415 20.4415 17.2966 -8.94963
638 1 1.57242 11.007 20.4415 -8.94963
639 1 4.71726 11.007 20.4415 -8.94963
640 1 7.86211 11.007 20.4415 -8.94963
641 1 11.007 11.007 20.4415 -8.94976
642 1 14.1518 11.007 20.4415 -8.94963
643 1 17.2966 11.007 20.4415 -8.94963
644 1 20.4415 11.007 20.4415 -8.94963
645 1 1.23466e-15 12.5794 18.8691 -8.94963
646 1 1.57242 14.1518 20.4415 -8.94963
647 1 3.14484 12.5794 18.8691 -8.94963
648 1 4.71726 14.1518 20.4415 -8.94963
649 1 6.28969 12.5794 18.8691 -8.94964
650 1 7.86211 14.1518 20.4415 -8.94963
651 1 9.43452 12.5794 18.8691 -8.94962
652 1 11.007 14.1518 20.4415 -8.94963
653 1 12.5794 12.5794 18.8691 -8.94962
654 1 14.1518 14.1518 20.4415 -8.94963
655 1 15.7242 12.5794 18.8691 -8.94964
656 1 17.2966 14.1518 20.4415 -8.94963
657 1 18.8691 12.5794 18.8691 -8.94963
658 1 20.4415 14.1518 20.4415 -8.94963
659 1 -9.29842e-17 15.7242 18.8691 -8.94963
660 1 1.57242 17.2966 20.4415 -8.94963
661 1 3.14484 15.7242 18.8691 -8.94963
662 1 4.71726 17.2966 20.4415 -8.94963
663 1 6.28969 15.7242 18.8691 -8.94963
664 1 7.86211 17.2966 20.4415 -8.94963
665 1 9.43453 15.7242 18.8691 -8.94964
666 1 11.007 17.2966 20.4415 -8.94963
667 1 12.5794 15.7242 18.8691 -8.94964
668 1 14.1518 17.2966 20.4415 -8.94963
669 1 15.7242 15.7242 18.8691 -8.94963
670 1 17.2966 17.2966 20.4415 -8.94963
671 1 18.8691 15.7242 18.8691 -8.94963
672 1 20.4415 17.2966 20.4415 -8.94963
673 1 -1.11623e-16 18.8691 18.8691 -8.94963
351 1 1.32704e-15 12.5794 22.0139 -8.94963
355 1 6.28969 12.5794 22.0139 -8.94964
361 1 15.7242 12.5794 22.0139 -8.94964
367 1 3.14484 15.7242 22.0139 -8.94963
371 1 9.43453 15.7242 22.0139 -8.94964
379 1 -1.38718e-16 18.8691 22.0139 -8.94963
539 1 20.4415 20.4415 11.007 -8.94963
533 1 1.57242 20.4415 11.007 -8.94963
