ITEM: TIMESTEP
54
ITEM: NUMBER OF ATOMS
688
ITEM: BOX BOUNDS pp pp pp
0.0000000000000000e+00 2.2013900999999997e+01
0.0000000000000000e+00 2.2013900999999997e+01
0.0000000000000000e+00 2.2013900999999997e+01
ITEM: ATOMS id type x y z c_pot
1 1 3.74355e-16 9.91218e-16 -5.57251e-05 -8.94953
2 1 1.57227 1.57231 1.5723 -8.94957
196 1 20.4415 7.86206 11.0068 -8.94956
4 1 4.71696 1.5722 1.57215 -8.94963
5 1 6.28954 1.68456e-15 -0.000143555 -8.94962
6 1 7.86192 1.57217 1.57211 -8.94962
175 1 18.8686 9.43453 9.43453 -8.948
8 1 11.007 1.57216 1.5721 -8.94961
174 1 15.7201 9.43687 9.43453 -8.99724
10 1 14.152 1.57217 1.57211 -8.94962
11 1 15.7244 -5.0274e-16 -0.000143555 -8.94962
12 1 17.2969 1.5722 1.57215 -8.94963
195 1 17.2968 7.86229 11.0066 -8.95136
14 1 20.4416 1.57231 1.5723 -8.94957
194 1 14.1548 7.85863 11.0111 -8.97984
16 1 1.57217 4.717 1.57221 -8.94958
17 1 3.14453 3.14455 -0.000155004 -8.94946
18 1 4.71655 4.71659 1.57187 -8.94924
173 1 12.5993 9.39304 9.43453 -9.24064
20 1 7.86168 4.71649 1.5718 -8.94962
21 1 9.43443 3.14444 -0.000224263 -8.9496
22 1 11.007 4.7165 1.57174 -8.94958
23 1 12.5795 3.14444 -0.000224263 -8.9496
24 1 14.1522 4.71649 1.5718 -8.94962
172 1 9.41461 9.39304 9.43453 -9.24064
26 1 17.2973 4.71659 1.57187 -8.94924
27 1 18.8694 3.14455 -0.000155004 -8.94946
28 1 20.4417 4.717 1.57221 -8.94958
29 1 2.04143e-16 6.28954 -0.000106298 -8.94961
30 1 1.57214 7.86195 1.5722 -8.94962
171 1 6.29375 9.43687 9.43453 -8.99724
32 1 4.7164 7.86165 1.57177 -8.94959
33 1 6.28894 6.28895 -0.000546514 -8.94958
34 1 7.86088 7.86086 1.57047 -8.94973
170 1 3.14532 9.43453 9.43453 -8.948
36 1 11.007 7.86104 1.57047 -8.94939
169 1 4.65325e-16 9.43445 9.43453 -8.9491
38 1 14.153 7.86086 1.57047 -8.94973
39 1 15.725 6.28895 -0.000546514 -8.94958
40 1 17.2975 7.86165 1.57177 -8.94959
168 1 18.8692 6.28948 9.43453 -8.94939
42 1 20.4418 7.86195 1.5722 -8.94962
167 1 15.7241 6.28933 9.43453 -8.9489
44 1 3.1444 9.43443 -0.00020546 -8.94957
166 1 12.579 6.28092 9.43453 -8.96331
46 1 9.43397 9.43394 -0.00139662 -8.95023
47 1 12.5799 9.43394 -0.00139662 -8.95023
165 1 9.43494 6.28092 9.43453 -8.96331
49 1 18.8695 9.43443 -0.00020546 -8.94957
50 1 1.34091e-16 1.74693e-15 3.14476 -8.94963
51 1 1.57227 1.57234 4.71718 -8.94963
52 1 3.14456 1.37712e-15 3.14463 -8.94957
53 1 4.71679 1.57215 4.71695 -8.94957
54 1 6.28936 1.03522e-15 3.14449 -8.94967
55 1 7.86171 1.57197 4.7168 -8.9497
56 1 9.4344 2.57387e-15 3.14446 -8.94966
57 1 11.007 1.57195 4.71676 -8.94966
58 1 12.5795 8.2302e-16 3.14446 -8.94966
59 1 14.1522 1.57197 4.7168 -8.9497
60 1 15.7245 1.06253e-15 3.14449 -8.94967
61 1 17.2971 1.57215 4.71695 -8.94957
62 1 18.8693 1.71743e-15 3.14463 -8.94957
63 1 20.4416 1.57234 4.71718 -8.94963
64 1 4.9664e-16 3.14471 3.14475 -8.94968
65 1 1.57219 4.71709 4.7172 -8.94975
66 1 3.14444 3.14453 3.1446 -8.94955
67 1 4.71642 4.71652 4.71677 -8.94936
68 1 6.28914 3.14417 3.14432 -8.94974
69 1 7.86131 4.71571 4.71628 -8.95029
70 1 9.43433 3.14412 3.14424 -8.9496
71 1 11.007 4.7158 4.71604 -8.94956
72 1 12.5796 3.14412 3.14424 -8.9496
73 1 14.1526 4.71571 4.71628 -8.95029
74 1 15.7248 3.14417 3.14432 -8.94974
75 1 17.2975 4.71652 4.71677 -8.94936
76 1 18.8695 3.14453 3.1446 -8.94955
77 1 20.4417 4.71709 4.7172 -8.94975
78 1 1.10242e-16 6.28947 3.14465 -8.94972
79 1 1.572 7.86191 4.71708 -8.94988
80 1 3.1441 6.2892 3.14441 -8.94957
81 1 4.71561 7.86119 4.71628 -8.94957
82 1 6.28806 6.28809 3.1432 -8.94842
83 1 7.85832 7.85814 4.71244 -8.94588
84 1 9.43405 6.28822 3.14332 -8.94938
85 1 11.007 7.86005 4.71314 -8.94949
86 1 12.5799 6.28822 3.14332 -8.94938
87 1 14.1556 7.85814 4.71244 -8.94588
88 1 15.7258 6.28809 3.1432 -8.94842
89 1 17.2983 7.86119 4.71628 -8.94957
90 1 18.8698 6.2892 3.14441 -8.94957
91 1 20.4419 7.86191 4.71708 -8.94988
92 1 -2.90873e-17 9.43445 3.14463 -8.94965
93 1 3.14411 9.43435 3.14438 -8.94957
94 1 6.28816 9.43395 3.14306 -8.94968
95 1 9.43257 9.43248 3.13943 -8.94943
96 1 12.5813 9.43248 3.13943 -8.94943
97 1 15.7257 9.43395 3.14306 -8.94968
98 1 18.8698 9.43435 3.14438 -8.94957
99 1 1.01835e-15 4.35997e-16 6.28963 -8.9496
100 1 1.57226 1.57234 7.86207 -8.94961
101 1 3.14455 1.94483e-15 6.28958 -8.94957
102 1 4.71681 1.57224 7.86203 -8.94949
103 1 6.28918 1.69725e-15 6.28938 -8.94969
104 1 7.86158 1.57179 7.86186 -8.94982
105 1 9.43427 2.08021e-15 6.28927 -8.94971
106 1 11.007 1.57153 7.8617 -8.94966
107 1 12.5796 1.18793e-15 6.28927 -8.94971
108 1 14.1523 1.57179 7.86186 -8.94982
109 1 15.7247 8.87389e-16 6.28938 -8.94969
110 1 17.2971 1.57224 7.86203 -8.94949
111 1 18.8694 1.47446e-15 6.28958 -8.94957
112 1 20.4416 1.57234 7.86207 -8.94961
113 1 3.18337e-16 3.14473 6.28965 -8.94961
114 1 1.57225 4.71711 7.86212 -8.94959
115 1 3.1445 3.14466 6.28963 -8.94967
116 1 4.71682 4.71699 7.86214 -8.94971
117 1 6.2889 3.14397 6.2892 -8.94952
118 1 7.86094 4.71506 7.86127 -8.94919
119 1 9.43415 3.1435 6.28903 -8.94967
120 1 11.007 4.71444 7.86054 -8.94616
121 1 12.5798 3.1435 6.28903 -8.94967
122 1 14.153 4.71506 7.86127 -8.94919
123 1 15.725 3.14397 6.2892 -8.94952
124 1 17.2971 4.71699 7.86214 -8.94971
125 1 18.8694 3.14466 6.28963 -8.94967
126 1 20.4416 4.71711 7.86212 -8.94959
127 1 4.76444e-16 6.2896 6.28973 -8.9497
128 1 1.57236 7.86206 7.86222 -8.94956
129 1 3.14439 6.28952 6.28973 -8.95003
130 1 4.71715 7.86229 7.86247 -8.95136
131 1 6.28811 6.28803 6.28841 -8.94847
132 1 7.85908 7.85863 7.858 -8.97984
133 1 9.43391 6.2866 6.28812 -8.95246
134 1 11.007 7.86181 7.85706 -9.05835
135 1 12.58 6.2866 6.28812 -8.95246
136 1 14.1548 7.85863 7.858 -8.97984
137 1 15.7258 6.28803 6.28841 -8.94847
138 1 17.2968 7.86229 7.86247 -8.95136
139 1 18.8695 6.28952 6.28973 -8.95003
140 1 20.4415 7.86206 7.86222 -8.94956
141 1 3.62676e-16 9.43449 6.2897 -8.94997
142 1 3.14399 9.4344 6.28945 -8.95042
143 1 6.28635 9.43333 6.28696 -8.95069
144 1 9.42382 9.42382 6.27731 -9.02208
145 1 12.5901 9.42382 6.27731 -9.02208
146 1 15.7275 9.43333 6.28696 -8.95069
147 1 18.8699 9.4344 6.28945 -8.95042
148 1 6.20273e-16 8.47885e-16 9.43453 -8.94961
149 1 3.14455 1.59014e-15 9.43453 -8.94958
150 1 6.28918 1.24407e-15 9.43453 -8.9495
151 1 9.43429 1.12882e-15 9.43453 -8.9502
152 1 12.5796 8.32356e-16 9.43453 -8.9502
153 1 15.7247 1.9549e-15 9.43453 -8.9495
154 1 18.8694 1.37e-15 9.43453 -8.94958
155 1 2.65257e-16 3.14471 9.43453 -8.94962
156 1 3.14452 3.14464 9.43453 -8.94962
157 1 6.2891 3.14421 9.43453 -8.94912
158 1 9.43434 3.14266 9.43453 -8.95182
159 1 12.5796 3.14266 9.43453 -8.95182
160 1 15.7248 3.14421 9.43453 -8.94912
161 1 18.8694 3.14464 9.43453 -8.94962
162 1 4.32618e-16 6.28955 9.43453 -8.9496
163 1 3.14466 6.28948 9.43453 -8.94939
164 1 6.28983 6.28933 9.43453 -8.9489
193 1 11.007 7.86181 11.012 -9.05835
192 1 7.85908 7.85863 11.0111 -8.97984
190 1 1.57236 7.86206 11.0068 -8.94956
191 1 4.71715 7.86229 11.0066 -8.95136
177 1 4.71681 1.57224 11.007 -8.94949
181 1 17.2971 1.57224 11.007 -8.94949
184 1 4.71682 4.71699 11.0069 -8.94971
188 1 17.2971 4.71699 11.0069 -8.94971
7 1 9.43448 1.46747e-15 -0.000150823 -8.94962
9 1 12.5794 1.65464e-15 -0.000150823 -8.94962
343 1 18.8695 9.43443 18.8693 -8.94957
48 1 15.725 9.43424 22.0133 -8.94959
178 1 7.86158 1.57179 11.0072 -8.94982
179 1 11.007 1.57153 11.0074 -8.94966
180 1 14.1523 1.57179 11.0072 -8.94982
45 1 6.2889 9.43424 22.0133 -8.94959
342 1 15.725 9.43424 18.8697 -8.94959
183 1 1.57225 4.71711 11.0069 -8.94959
43 1 7.38476e-16 9.43448 22.0138 -8.94961
185 1 7.86094 4.71506 11.0078 -8.94919
186 1 11.007 4.71444 11.0085 -8.94616
187 1 14.153 4.71506 11.0078 -8.94919
41 1 18.8695 6.2894 22.0137 -8.94959
189 1 20.4416 4.71711 11.0069 -8.94959
341 1 12.5799 9.43394 18.8705 -8.95023
340 1 9.43397 9.43394 18.8705 -8.95023
339 1 6.2889 9.43424 18.8697 -8.94959
338 1 3.1444 9.43443 18.8693 -8.94957
337 1 -1.19964e-16 9.43448 18.8692 -8.94961
336 1 20.4417 7.862 20.4415 -8.94959
335 1 18.8695 6.2894 18.8693 -8.94959
197 1 1.1191e-15 2.04349e-15 12.5794 -8.9496
198 1 1.57227 1.57234 14.1519 -8.94963
199 1 3.14455 1.9345e-15 12.5795 -8.94957
200 1 4.71679 1.57215 14.1521 -8.94957
201 1 6.28918 4.20482e-16 12.5797 -8.94969
202 1 7.86171 1.57197 14.1523 -8.9497
203 1 9.43427 6.18186e-16 12.5798 -8.94971
204 1 11.007 1.57195 14.1523 -8.94966
205 1 12.5796 7.62517e-16 12.5798 -8.94971
206 1 14.1522 1.57197 14.1523 -8.9497
207 1 15.7247 1.10977e-15 12.5797 -8.94969
208 1 17.2971 1.57215 14.1521 -8.94957
209 1 18.8694 1.12312e-15 12.5795 -8.94957
210 1 20.4416 1.57234 14.1519 -8.94963
211 1 4.87638e-16 3.14473 12.5794 -8.94961
212 1 1.57219 4.71709 14.1519 -8.94975
213 1 3.1445 3.14466 12.5794 -8.94967
214 1 4.71642 4.71652 14.1523 -8.94936
215 1 6.2889 3.14397 12.5799 -8.94952
216 1 7.86131 4.71571 14.1528 -8.95029
217 1 9.43415 3.1435 12.58 -8.94967
218 1 11.007 4.7158 14.153 -8.94956
219 1 12.5798 3.1435 12.58 -8.94967
220 1 14.1526 4.71571 14.1528 -8.95029
221 1 15.725 3.14397 12.5799 -8.94952
222 1 17.2975 4.71652 14.1523 -8.94936
223 1 18.8694 3.14466 12.5794 -8.94967
224 1 20.4417 4.71709 14.1519 -8.94975
225 1 -1.90436e-17 6.2896 12.5793 -8.9497
226 1 1.572 7.86191 14.152 -8.94988
227 1 3.14439 6.28952 12.5793 -8.95003
228 1 4.71561 7.86119 14.1528 -8.94957
229 1 6.28811 6.28803 12.5806 -8.94847
230 1 7.85832 7.85814 14.1566 -8.94588
231 1 9.43391 6.2866 12.5809 -8.95246
232 1 11.007 7.86005 14.1559 -8.94949
233 1 12.58 6.2866 12.5809 -8.95246
234 1 14.1556 7.85814 14.1566 -8.94588
235 1 15.7258 6.28803 12.5806 -8.94847
236 1 17.2983 7.86119 14.1528 -8.94957
237 1 18.8695 6.28952 12.5793 -8.95003
238 1 20.4419 7.86191 14.152 -8.94988
239 1 5.6763e-16 9.43449 12.5794 -8.94997
240 1 3.14399 9.4344 12.5796 -8.95042
241 1 6.28635 9.43333 12.5821 -8.95069
242 1 9.42382 9.42382 12.5918 -9.02208
243 1 12.5901 9.42382 12.5918 -9.02208
244 1 15.7275 9.43333 12.5821 -8.95069
245 1 18.8699 9.4344 12.5796 -8.95042
246 1 8.67779e-16 1.29318e-15 15.7243 -8.94963
247 1 1.57227 1.57231 17.2968 -8.94957
248 1 3.14456 1.5081e-15 15.7244 -8.94957
249 1 4.71696 1.5722 17.2969 -8.94963
250 1 6.28936 7.59298e-16 15.7246 -8.94967
251 1 7.86192 1.57217 17.2969 -8.94962
252 1 9.4344 1.11955e-15 15.7246 -8.94966
253 1 11.007 1.57216 17.297 -8.94961
254 1 12.5795 -5.82284e-16 15.7246 -8.94966
255 1 14.152 1.57217 17.2969 -8.94962
256 1 15.7245 1.26855e-15 15.7246 -8.94967
257 1 17.2969 1.5722 17.2969 -8.94963
258 1 18.8693 1.4892e-15 15.7244 -8.94957
259 1 20.4416 1.57231 17.2968 -8.94957
260 1 1.06329e-15 3.14471 15.7243 -8.94968
261 1 1.57217 4.717 17.2968 -8.94958
262 1 3.14444 3.14453 15.7245 -8.94955
263 1 4.71655 4.71659 17.2972 -8.94924
264 1 6.28914 3.14417 15.7247 -8.94974
265 1 7.86168 4.71649 17.2973 -8.94962
266 1 9.43433 3.14412 15.7248 -8.9496
267 1 11.007 4.7165 17.2973 -8.94958
268 1 12.5796 3.14412 15.7248 -8.9496
269 1 14.1522 4.71649 17.2973 -8.94962
270 1 15.7248 3.14417 15.7247 -8.94974
271 1 17.2973 4.71659 17.2972 -8.94924
272 1 18.8695 3.14453 15.7245 -8.94955
273 1 20.4417 4.717 17.2968 -8.94958
274 1 1.11143e-15 6.28947 15.7244 -8.94972
275 1 1.57214 7.86195 17.2969 -8.94962
276 1 3.1441 6.2892 15.7246 -8.94957
277 1 4.7164 7.86165 17.2973 -8.94959
278 1 6.28806 6.28809 15.7259 -8.94842
279 1 7.86088 7.86086 17.2986 -8.94973
280 1 9.43405 6.28822 15.7257 -8.94938
281 1 11.007 7.86104 17.2986 -8.94939
282 1 12.5799 6.28822 15.7257 -8.94938
283 1 14.153 7.86086 17.2986 -8.94973
284 1 15.7258 6.28809 15.7259 -8.94842
285 1 17.2975 7.86165 17.2973 -8.94959
286 1 18.8698 6.2892 15.7246 -8.94957
287 1 20.4418 7.86195 17.2969 -8.94962
288 1 1.71437e-15 9.43445 15.7244 -8.94965
289 1 3.14411 9.43435 15.7247 -8.94957
290 1 6.28816 9.43395 15.726 -8.94968
291 1 9.43257 9.43248 15.7296 -8.94943
292 1 12.5813 9.43248 15.7296 -8.94943
293 1 15.7257 9.43395 15.726 -8.94968
294 1 18.8698 9.43435 15.7247 -8.94957
295 1 2.97458e-16 1.06521e-15 18.8691 -8.94953
296 1 1.5723 1.57231 20.4415 -8.9495
297 1 3.14466 9.02548e-16 18.8692 -8.94959
298 1 4.71708 1.57226 20.4415 -8.94962
299 1 6.28954 5.21977e-16 18.8692 -8.94962
300 1 7.862 1.57224 20.4415 -8.94962
301 1 9.43448 4.41386e-16 18.8692 -8.94962
302 1 11.007 1.57224 20.4415 -8.94961
303 1 12.5794 7.98018e-16 18.8692 -8.94962
304 1 14.1519 1.57224 20.4415 -8.94962
305 1 15.7244 1.10735e-15 18.8692 -8.94962
306 1 17.2968 1.57226 20.4415 -8.94962
307 1 18.8692 2.27283e-15 18.8692 -8.94959
308 1 20.4416 1.57231 20.4415 -8.9495
309 1 5.0155e-16 3.14468 18.8691 -8.94955
310 1 1.57224 4.71707 20.4415 -8.94959
311 1 3.14453 3.14455 18.8692 -8.94946
312 1 4.71679 4.71679 20.4415 -8.94951
313 1 6.28941 3.14445 18.8693 -8.94963
314 1 7.86182 4.71672 20.4415 -8.94956
315 1 9.43443 3.14444 18.8693 -8.9496
316 1 11.007 4.71672 20.4415 -8.94958
317 1 12.5795 3.14444 18.8693 -8.9496
318 1 14.1521 4.71672 20.4415 -8.94956
319 1 15.7245 3.14445 18.8693 -8.94963
320 1 17.2971 4.71679 20.4415 -8.94951
321 1 18.8694 3.14455 18.8692 -8.94946
322 1 20.4417 4.71707 20.4415 -8.94959
323 1 1.20713e-15 6.28954 18.8692 -8.94961
324 1 1.57222 7.862 20.4415 -8.94959
325 1 3.14441 6.2894 18.8693 -8.94959
326 1 4.71669 7.8618 20.4415 -8.94957
327 1 6.28894 6.28895 18.8696 -8.94958
328 1 7.86144 7.86144 20.4415 -8.94987
329 1 9.43426 6.28892 18.8696 -8.9495
330 1 11.007 7.86141 20.4415 -8.94968
331 1 12.5796 6.28892 18.8696 -8.9495
332 1 14.1525 7.86144 20.4415 -8.94987
333 1 15.725 6.28895 18.8696 -8.94958
334 1 17.2972 7.8618 20.4415 -8.94957
37 1 12.5796 6.28892 22.0133 -8.9495
35 1 9.43426 6.28892 22.0133 -8.9495
19 1 6.28941 3.14445 22.0137 -8.94963
25 1 15.7245 3.14445 22.0137 -8.94963
31 1 3.14441 6.2894 22.0137 -8.94959
3 1 3.14466 6.84323e-16 22.0138 -8.94959
13 1 18.8692 1.21566e-15 22.0138 -8.94959
15 1 8.4792e-16 3.14468 22.0138 -8.94955
176 1 1.57226 1.57234 11.007 -8.94961
182 1 20.4416 1.57234 11.007 -8.94961
344 1 1.57215 11.007 1.57219 -8.9496
345 1 4.71644 11.007 1.57172 -8.94952
346 1 7.86108 11.007 1.57033 -8.94962
347 1 11.007 11.007 1.56793 -8.95383
348 1 14.1528 11.007 1.57033 -8.94962
349 1 17.2975 11.007 1.57172 -8.94952
350 1 20.4417 11.007 1.57219 -8.9496
688 2 10.2869 11.007 9.43453 0.525663
352 1 1.57214 14.1519 1.5722 -8.94962
353 1 3.1444 12.5795 -0.00020546 -8.94957
354 1 4.7164 14.1523 1.57177 -8.94959
687 2 11.727 11.007 9.43453 0.525663
356 1 7.86088 14.153 1.57047 -8.94973
357 1 9.43397 12.58 -0.00139662 -8.95023
358 1 11.007 14.1529 1.57047 -8.94939
359 1 12.5799 12.58 -0.00139662 -8.95023
360 1 14.153 14.153 1.57047 -8.94973
511 1 18.8694 18.8693 9.43453 -8.94962
362 1 17.2975 14.1523 1.57177 -8.94959
363 1 18.8695 12.5795 -0.00020546 -8.94957
364 1 20.4418 14.1519 1.5722 -8.94962
365 1 4.15874e-16 15.7244 -0.000106298 -8.94961
366 1 1.57217 17.2969 1.57221 -8.94958
510 1 15.7248 18.8697 9.43453 -8.94912
368 1 4.71655 17.2973 1.57187 -8.94924
369 1 6.28894 15.725 -0.000546514 -8.94958
370 1 7.86168 17.2974 1.5718 -8.94962
509 1 12.5796 18.8712 9.43453 -8.95182
372 1 11.007 17.2974 1.57174 -8.94958
508 1 9.43434 18.8712 9.43453 -8.95182
374 1 14.1522 17.2974 1.5718 -8.94962
375 1 15.725 15.725 -0.000546514 -8.94958
376 1 17.2973 17.2973 1.57187 -8.94924
507 1 6.2891 18.8697 9.43453 -8.94912
378 1 20.4417 17.2969 1.57221 -8.94958
525 1 20.4415 14.1518 11.0068 -8.94956
380 1 1.57227 20.4416 1.5723 -8.94957
381 1 3.14453 18.8694 -0.000155004 -8.94946
382 1 4.71696 20.4417 1.57215 -8.94963
506 1 3.14452 18.8693 9.43453 -8.94962
384 1 7.86192 20.4417 1.57211 -8.94962
385 1 9.43443 18.8695 -0.000224263 -8.9496
386 1 11.007 20.4417 1.5721 -8.94961
387 1 12.5795 18.8695 -0.000224263 -8.9496
388 1 14.152 20.4417 1.57211 -8.94962
505 1 1.39376e-15 18.8692 9.43453 -8.94962
390 1 17.2969 20.4417 1.57215 -8.94963
391 1 18.8694 18.8694 -0.000155004 -8.94946
392 1 20.4416 20.4416 1.5723 -8.94957
393 1 1.57201 11.007 4.71705 -8.94971
394 1 4.71584 11.007 4.7161 -8.94895
395 1 7.86005 11.007 4.71238 -8.95032
396 1 11.007 11.007 4.69873 -8.97884
397 1 14.1539 11.007 4.71238 -8.95032
398 1 17.2981 11.007 4.7161 -8.94895
399 1 20.4419 11.007 4.71705 -8.94971
400 1 -5.83556e-16 12.5794 3.14463 -8.94965
401 1 1.572 14.152 4.71708 -8.94988
402 1 3.14411 12.5796 3.14438 -8.94957
403 1 4.71561 14.1527 4.71628 -8.94957
404 1 6.28816 12.5799 3.14306 -8.94968
405 1 7.85832 14.1558 4.71244 -8.94588
406 1 9.43257 12.5814 3.13943 -8.94943
407 1 11.007 14.1539 4.71314 -8.94949
408 1 12.5813 12.5814 3.13943 -8.94943
409 1 14.1556 14.1558 4.71244 -8.94588
410 1 15.7257 12.5799 3.14306 -8.94968
411 1 17.2983 14.1527 4.71628 -8.94957
412 1 18.8698 12.5796 3.14438 -8.94957
413 1 20.4419 14.152 4.71708 -8.94988
414 1 -6.19676e-17 15.7244 3.14465 -8.94972
415 1 1.57219 17.2968 4.7172 -8.94975
416 1 3.1441 15.7247 3.14441 -8.94957
417 1 4.71642 17.2974 4.71677 -8.94936
418 1 6.28806 15.7258 3.1432 -8.94842
419 1 7.86131 17.2982 4.71628 -8.95029
420 1 9.43405 15.7257 3.14332 -8.94938
421 1 11.007 17.2981 4.71604 -8.94956
422 1 12.5799 15.7257 3.14332 -8.94938
423 1 14.1526 17.2982 4.71628 -8.95029
424 1 15.7258 15.7258 3.1432 -8.94842
425 1 17.2975 17.2974 4.71677 -8.94936
426 1 18.8698 15.7247 3.14441 -8.94957
427 1 20.4417 17.2968 4.7172 -8.94975
428 1 6.18026e-16 18.8692 3.14475 -8.94968
429 1 1.57227 20.4416 4.71718 -8.94963
430 1 3.14444 18.8694 3.1446 -8.94955
431 1 4.71679 20.4418 4.71695 -8.94957
432 1 6.28914 18.8697 3.14432 -8.94974
433 1 7.86171 20.4419 4.7168 -8.9497
434 1 9.43433 18.8698 3.14424 -8.9496
435 1 11.007 20.4419 4.71676 -8.94966
436 1 12.5796 18.8698 3.14424 -8.9496
437 1 14.1522 20.4419 4.7168 -8.9497
438 1 15.7248 18.8697 3.14432 -8.94974
439 1 17.2971 20.4418 4.71695 -8.94957
440 1 18.8695 18.8694 3.1446 -8.94955
441 1 20.4416 20.4416 4.71718 -8.94963
442 1 1.57231 11.007 7.86227 -8.94983
443 1 4.71666 11.007 7.8619 -8.95129
444 1 7.85763 11.007 7.85363 -9.04154
445 1 11.007 11.007 7.73283 -9.3424
446 1 14.1563 11.007 7.85363 -9.04154
447 1 17.2972 11.007 7.8619 -8.95129
448 1 20.4416 11.007 7.86227 -8.94983
449 1 -2.76658e-16 12.5794 6.2897 -8.94997
450 1 1.57236 14.1518 7.86222 -8.94956
451 1 3.14399 12.5795 6.28945 -8.95042
452 1 4.71715 14.1516 7.86247 -8.95136
453 1 6.28635 12.5806 6.28696 -8.95069
454 1 7.85908 14.1553 7.858 -8.97984
455 1 9.42382 12.5901 6.27731 -9.02208
456 1 11.007 14.1521 7.85706 -9.05835
457 1 12.5901 12.5901 6.27731 -9.02208
458 1 14.1548 14.1553 7.858 -8.97984
459 1 15.7275 12.5806 6.28696 -8.95069
460 1 17.2968 14.1516 7.86247 -8.95136
461 1 18.8699 12.5795 6.28945 -8.95042
462 1 20.4415 14.1518 7.86222 -8.94956
463 1 -2.04289e-16 15.7243 6.28973 -8.9497
464 1 1.57225 17.2968 7.86212 -8.94959
465 1 3.14439 15.7244 6.28973 -8.95003
466 1 4.71682 17.2969 7.86214 -8.94971
467 1 6.28811 15.7259 6.28841 -8.94847
468 1 7.86094 17.2988 7.86127 -8.94919
469 1 9.43391 15.7273 6.28812 -8.95246
470 1 11.007 17.2995 7.86054 -8.94616
471 1 12.58 15.7273 6.28812 -8.95246
472 1 14.153 17.2988 7.86127 -8.94919
473 1 15.7258 15.7259 6.28841 -8.94847
474 1 17.2971 17.2969 7.86214 -8.94971
475 1 18.8695 15.7244 6.28973 -8.95003
476 1 20.4416 17.2968 7.86212 -8.94959
477 1 7.60757e-16 18.8692 6.28965 -8.94961
478 1 1.57226 20.4416 7.86207 -8.94961
479 1 3.1445 18.8692 6.28963 -8.94967
480 1 4.71681 20.4417 7.86203 -8.94949
481 1 6.2889 18.8699 6.2892 -8.94952
482 1 7.86158 20.4421 7.86186 -8.94982
483 1 9.43415 18.8704 6.28903 -8.94967
484 1 11.007 20.4424 7.8617 -8.94966
485 1 12.5798 18.8704 6.28903 -8.94967
486 1 14.1523 20.4421 7.86186 -8.94982
487 1 15.725 18.8699 6.2892 -8.94952
488 1 17.2971 20.4417 7.86203 -8.94949
489 1 18.8694 18.8692 6.28963 -8.94967
490 1 20.4416 20.4416 7.86207 -8.94961
491 1 -1.66121e-16 12.5795 9.43453 -8.9491
492 1 3.14532 12.5794 9.43453 -8.948
493 1 6.29375 12.577 9.43453 -8.99724
494 1 9.41461 12.6209 9.43453 -9.24064
495 1 12.5993 12.6209 9.43453 -9.24064
496 1 15.7201 12.577 9.43453 -8.99724
497 1 18.8686 12.5794 9.43453 -8.948
498 1 -6.6759e-17 15.7243 9.43453 -8.9496
499 1 3.14466 15.7244 9.43453 -8.94939
500 1 6.28983 15.7246 9.43453 -8.9489
501 1 9.43494 15.733 9.43453 -8.96331
502 1 12.579 15.733 9.43453 -8.96331
503 1 15.7241 15.7246 9.43453 -8.9489
504 1 18.8692 15.7244 9.43453 -8.94939
512 1 1.57231 11.007 11.0068 -8.94983
513 1 4.71666 11.007 11.0072 -8.95129
517 1 17.2972 11.007 11.0072 -8.95129
518 1 20.4416 11.007 11.0068 -8.94983
519 1 1.57236 14.1518 11.0068 -8.94956
520 1 4.71715 14.1516 11.0066 -8.95136
521 1 7.85908 14.1553 11.0111 -8.97984
522 1 11.007 14.1521 11.012 -9.05835
523 1 14.1548 14.1553 11.0111 -8.97984
524 1 17.2968 14.1516 11.0066 -8.95136
527 1 4.71682 17.2969 11.0069 -8.94971
531 1 17.2971 17.2969 11.0069 -8.94971
534 1 4.71681 20.4417 11.007 -8.94949
538 1 17.2971 20.4417 11.007 -8.94949
686 1 20.4416 20.4416 20.4415 -8.9495
685 1 18.8694 18.8694 18.8692 -8.94946
514 1 7.85763 11.007 11.0154 -9.04154
515 1 11.007 11.007 11.1362 -9.3424
516 1 14.1563 11.007 11.0154 -9.04154
684 1 17.2968 20.4416 20.4415 -8.94962
683 1 15.7245 18.8694 18.8693 -8.94963
682 1 14.1519 20.4417 20.4415 -8.94962
681 1 12.5795 18.8695 18.8693 -8.9496
680 1 11.007 20.4417 20.4415 -8.94961
679 1 9.43443 18.8695 18.8693 -8.9496
678 1 7.862 20.4417 20.4415 -8.94962
677 1 6.28941 18.8694 18.8693 -8.94963
676 1 4.71708 20.4416 20.4415 -8.94962
526 1 1.57225 17.2968 11.0069 -8.94959
389 1 15.7245 18.8694 22.0137 -8.94963
528 1 7.86094 17.2988 11.0078 -8.94919
529 1 11.007 17.2995 11.0085 -8.94616
530 1 14.153 17.2988 11.0078 -8.94919
383 1 6.28941 18.8694 22.0137 -8.94963
532 1 20.4416 17.2968 11.0069 -8.94959
675 1 3.14453 18.8694 18.8692 -8.94946
377 1 18.8695 15.7245 22.0137 -8.94959
535 1 7.86158 20.4421 11.0072 -8.94982
536 1 11.007 20.4424 11.0074 -8.94966
537 1 14.1523 20.4421 11.0072 -8.94982
373 1 12.5796 15.725 22.0133 -8.9495
674 1 1.5723 20.4416 20.4415 -8.9495
540 1 1.57201 11.007 14.152 -8.94971
541 1 4.71584 11.007 14.153 -8.94895
542 1 7.86005 11.007 14.1567 -8.95032
543 1 11.007 11.007 14.1703 -8.97884
544 1 14.1539 11.007 14.1567 -8.95032
545 1 17.2981 11.007 14.153 -8.94895
546 1 20.4419 11.007 14.152 -8.94971
547 1 1.16561e-15 12.5794 12.5794 -8.94997
548 1 1.572 14.152 14.152 -8.94988
549 1 3.14399 12.5795 12.5796 -8.95042
550 1 4.71561 14.1527 14.1528 -8.94957
551 1 6.28635 12.5806 12.5821 -8.95069
552 1 7.85832 14.1558 14.1566 -8.94588
553 1 9.42382 12.5901 12.5918 -9.02208
554 1 11.007 14.1539 14.1559 -8.94949
555 1 12.5901 12.5901 12.5918 -9.02208
556 1 14.1556 14.1558 14.1566 -8.94588
557 1 15.7275 12.5806 12.5821 -8.95069
558 1 17.2983 14.1527 14.1528 -8.94957
559 1 18.8699 12.5795 12.5796 -8.95042
560 1 20.4419 14.152 14.152 -8.94988
561 1 8.42269e-16 15.7243 12.5793 -8.9497
562 1 1.57219 17.2968 14.1519 -8.94975
563 1 3.14439 15.7244 12.5793 -8.95003
564 1 4.71642 17.2974 14.1523 -8.94936
565 1 6.28811 15.7259 12.5806 -8.94847
566 1 7.86131 17.2982 14.1528 -8.95029
567 1 9.43391 15.7273 12.5809 -8.95246
568 1 11.007 17.2981 14.153 -8.94956
569 1 12.58 15.7273 12.5809 -8.95246
570 1 14.1526 17.2982 14.1528 -8.95029
571 1 15.7258 15.7259 12.5806 -8.94847
572 1 17.2975 17.2974 14.1523 -8.94936
573 1 18.8695 15.7244 12.5793 -8.95003
574 1 20.4417 17.2968 14.1519 -8.94975
575 1 -1.23513e-16 18.8692 12.5794 -8.94961
576 1 1.57227 20.4416 14.1519 -8.94963
577 1 3.1445 18.8692 12.5794 -8.94967
578 1 4.71679 20.4418 14.1521 -8.94957
579 1 6.2889 18.8699 12.5799 -8.94952
580 1 7.86171 20.4419 14.1523 -8.9497
581 1 9.43415 18.8704 12.58 -8.94967
582 1 11.007 20.4419 14.1523 -8.94966
583 1 12.5798 18.8704 12.58 -8.94967
584 1 14.1522 20.4419 14.1523 -8.9497
585 1 15.725 18.8699 12.5799 -8.94952
586 1 17.2971 20.4418 14.1521 -8.94957
587 1 18.8694 18.8692 12.5794 -8.94967
588 1 20.4416 20.4416 14.1519 -8.94963
589 1 1.57215 11.007 17.2969 -8.9496
590 1 4.71644 11.007 17.2973 -8.94952
591 1 7.86108 11.007 17.2987 -8.94962
592 1 11.007 11.007 17.3011 -8.95383
593 1 14.1528 11.007 17.2987 -8.94962
594 1 17.2975 11.007 17.2973 -8.94952
595 1 20.4417 11.007 17.2969 -8.9496
596 1 1.52618e-15 12.5794 15.7244 -8.94965
597 1 1.57214 14.1519 17.2969 -8.94962
598 1 3.14411 12.5796 15.7247 -8.94957
599 1 4.7164 14.1523 17.2973 -8.94959
600 1 6.28816 12.5799 15.726 -8.94968
601 1 7.86088 14.153 17.2986 -8.94973
602 1 9.43257 12.5814 15.7296 -8.94943
603 1 11.007 14.1529 17.2986 -8.94939
604 1 12.5813 12.5814 15.7296 -8.94943
605 1 14.153 14.153 17.2986 -8.94973
606 1 15.7257 12.5799 15.726 -8.94968
607 1 17.2975 14.1523 17.2973 -8.94959
608 1 18.8698 12.5796 15.7247 -8.94957
609 1 20.4418 14.1519 17.2969 -8.94962
610 1 8.54887e-16 15.7244 15.7244 -8.94972
611 1 1.57217 17.2969 17.2968 -8.94958
612 1 3.1441 15.7247 15.7246 -8.94957
613 1 4.71655 17.2973 17.2972 -8.94924
614 1 6.28806 15.7258 15.7259 -8.94842
615 1 7.86168 17.2974 17.2973 -8.94962
616 1 9.43405 15.7257 15.7257 -8.94938
617 1 11.007 17.2974 17.2973 -8.94958
618 1 12.5799 15.7257 15.7257 -8.94938
619 1 14.1522 17.2974 17.2973 -8.94962
620 1 15.7258 15.7258 15.7259 -8.94842
621 1 17.2973 17.2973 17.2972 -8.94924
622 1 18.8698 15.7247 15.7246 -8.94957
623 1 20.4417 17.2969 17.2968 -8.94958
624 1 -7.77232e-17 18.8692 15.7243 -8.94968
625 1 1.57227 20.4416 17.2968 -8.94957
626 1 3.14444 18.8694 15.7245 -8.94955
627 1 4.71696 20.4417 17.2969 -8.94963
628 1 6.28914 18.8697 15.7247 -8.94974
629 1 7.86192 20.4417 17.2969 -8.94962
630 1 9.43433 18.8698 15.7248 -8.9496
631 1 11.007 20.4417 17.297 -8.94961
632 1 12.5796 18.8698 15.7248 -8.9496
633 1 14.152 20.4417 17.2969 -8.94962
634 1 15.7248 18.8697 15.7247 -8.94974
635 1 17.2969 20.4417 17.2969 -8.94963
636 1 18.8695 18.8694 15.7245 -8.94955
637 1 20.4416 20.4416 17.2968 -8.94957
638 1 1.57222 11.007 20.4415 -8.94959
639 1 4.71668 11.007 20.4415 -8.94958
640 1 7.86143 11.007 20.4415 -8.94977
641 1 11.007 11.007 20.4415 -8.95094
642 1 14.1525 11.007 20.4415 -8.94977
643 1 17.2972 11.007 20.4415 -8.94958
644 1 20.4417 11.007 20.4415 -8.94959
645 1 -5.30157e-16 12.5794 18.8692 -8.94961
646 1 1.57222 14.1519 20.4415 -8.94959
647 1 3.1444 12.5795 18.8693 -8.94957
648 1 4.71669 14.1521 20.4415 -8.94957
649 1 6.2889 12.5797 18.8697 -8.94959
650 1 7.86144 14.1525 20.4415 -8.94987
651 1 9.43397 12.58 18.8705 -8.95023
652 1 11.007 14.1525 20.4415 -8.94968
653 1 12.5799 12.58 18.8705 -8.95023
654 1 14.1525 14.1525 20.4415 -8.94987
655 1 15.725 12.5797 18.8697 -8.94959
656 1 17.2972 14.1521 20.4415 -8.94957
657 1 18.8695 12.5795 18.8693 -8.94957
658 1 20.4417 14.1519 20.4415 -8.94959
659 1 -4.40187e-16 15.7244 18.8692 -8.94961
660 1 1.57224 17.2968 20.4415 -8.94959
661 1 3.14441 15.7245 18.8693 -8.94959
662 1 4.71679 17.2971 20.4415 -8.94951
663 1 6.28894 15.725 18.8696 -8.94958
664 1 7.86182 17.2972 20.4415 -8.94956
665 1 9.43426 15.725 18.8696 -8.9495
666 1 11.007 17.2972 20.4415 -8.94958
667 1 12.5796 15.725 18.8696 -8.9495
668 1 14.1521 17.2972 20.4415 -8.94956
669 1 15.725 15.725 18.8696 -8.94958
670 1 17.2971 17.2971 20.4415 -8.94951
671 1 18.8695 15.7245 18.8693 -8.94959
672 1 20.4417 17.2968 20.4415 -8.94959
673 1 -5.20927e-16 18.8692 18.8691 -8.94955
351 1 8.31596e-17 12.5794 22.0138 -8.94961
355 1 6.2889 12.5797 22.0133 -8.94959
361 1 15.725 12.5797 22.0133 -8.94959
367 1 3.14441 15.7245 22.0137 -8.94959
371 1 9.43426 15.725 22.0133 -8.9495
379 1 4.09558e-16 18.8692 22.0138 -8.94955
539 1 20.4416 20.4416 11.007 -8.94961
533 1 1.57226 20.4416 11.007 -8.94961
