ITEM: TIMESTEP
52
ITEM: NUMBER OF ATOMS
688
ITEM: BOX BOUNDS pp pp pp
0.0000000000000000e+00 2.2013900999999997e+01
0.0000000000000000e+00 2.2013900999999997e+01
0.0000000000000000e+00 2.2013900999999997e+01
ITEM: ATOMS id type x y z c_pot
1 1 7.62357e-16 1.33098e-15 -4.58023e-05 -8.94953
2 1 1.5723 1.57233 1.57231 -8.94958
196 1 20.4416 7.86205 11.0069 -8.94955
4 1 4.71703 1.57222 1.57216 -8.94963
5 1 6.28961 1.22516e-15 -0.000128905 -8.94962
6 1 7.86199 1.5722 1.57213 -8.94962
175 1 18.8687 9.4345 9.43453 -8.94798
8 1 11.007 1.5722 1.57211 -8.94961
174 1 15.7202 9.43688 9.43453 -8.99726
10 1 14.1519 1.5722 1.57213 -8.94962
11 1 15.7243 1.00782e-15 -0.000128905 -8.94962
12 1 17.2969 1.57222 1.57216 -8.94963
195 1 17.2968 7.86225 11.0065 -8.95133
14 1 20.4416 1.57233 1.57231 -8.94958
194 1 14.1548 7.85862 11.011 -8.97984
16 1 1.57221 4.71705 1.57222 -8.94958
17 1 3.1446 3.1446 -0.000144577 -8.94947
18 1 4.71663 4.71666 1.57189 -8.94923
173 1 12.5993 9.39307 9.43453 -9.24072
20 1 7.86175 4.71657 1.57185 -8.94963
21 1 9.43447 3.1445 -0.000201777 -8.94961
22 1 11.007 4.7166 1.57181 -8.94959
23 1 12.5794 3.1445 -0.000201777 -8.94961
24 1 14.1522 4.71657 1.57185 -8.94963
172 1 9.41463 9.39307 9.43453 -9.24072
26 1 17.2973 4.71666 1.57189 -8.94923
27 1 18.8693 3.1446 -0.000144577 -8.94947
28 1 20.4417 4.71705 1.57222 -8.94958
29 1 -8.25614e-16 6.2896 -0.000101819 -8.94962
30 1 1.57218 7.862 1.5722 -8.94962
171 1 6.29368 9.43688 9.43453 -8.99726
32 1 4.71649 7.86171 1.57181 -8.9496
33 1 6.28903 6.28903 -0.000516408 -8.94958
34 1 7.86095 7.86093 1.57055 -8.94975
170 1 3.14523 9.4345 9.43453 -8.94798
36 1 11.007 7.8611 1.57056 -8.94939
169 1 4.67113e-16 9.43443 9.43453 -8.9491
38 1 14.153 7.86093 1.57055 -8.94975
39 1 15.7249 6.28903 -0.000516408 -8.94958
40 1 17.2974 7.86171 1.57181 -8.9496
168 1 18.8693 6.28945 9.43453 -8.94938
42 1 20.4417 7.862 1.5722 -8.94962
167 1 15.7241 6.28928 9.43453 -8.94891
44 1 3.14447 9.43446 -0.000190661 -8.94958
166 1 12.579 6.2809 9.43453 -8.96333
46 1 9.43402 9.43399 -0.00134264 -8.95023
47 1 12.5799 9.43399 -0.00134264 -8.95023
165 1 9.43495 6.2809 9.43453 -8.96333
49 1 18.8694 9.43446 -0.000190661 -8.94958
50 1 5.55022e-17 2.21976e-15 3.14478 -8.94962
51 1 1.57228 1.57234 4.71719 -8.94962
52 1 3.1446 8.86309e-17 3.14465 -8.94957
53 1 4.71683 1.57216 4.71695 -8.94957
54 1 6.28942 8.50952e-16 3.1445 -8.94967
55 1 7.86175 1.57198 4.71681 -8.94971
56 1 9.43444 1.49432e-15 3.14447 -8.94964
57 1 11.007 1.57197 4.71678 -8.94966
58 1 12.5795 6.80423e-16 3.14447 -8.94964
59 1 14.1522 1.57198 4.71681 -8.94971
60 1 15.7245 8.21831e-16 3.1445 -8.94967
61 1 17.2971 1.57216 4.71695 -8.94957
62 1 18.8693 2.18836e-17 3.14465 -8.94957
63 1 20.4416 1.57234 4.71719 -8.94962
64 1 1.70465e-16 3.14472 3.14475 -8.94968
65 1 1.57221 4.71711 4.71719 -8.94975
66 1 3.1445 3.14456 3.14461 -8.94957
67 1 4.71646 4.71656 4.7168 -8.94939
68 1 6.2892 3.14421 3.14432 -8.94974
69 1 7.86131 4.71574 4.71633 -8.9503
70 1 9.43436 3.14419 3.14429 -8.94959
71 1 11.007 4.71583 4.71612 -8.94954
72 1 12.5795 3.14419 3.14429 -8.94959
73 1 14.1526 4.71574 4.71633 -8.9503
74 1 15.7247 3.14421 3.14432 -8.94974
75 1 17.2974 4.71656 4.7168 -8.94939
76 1 18.8694 3.14456 3.14461 -8.94957
77 1 20.4417 4.71711 4.71719 -8.94975
78 1 4.44759e-16 6.2895 3.14465 -8.94972
79 1 1.572 7.86192 4.71706 -8.94989
80 1 3.14413 6.28924 3.14441 -8.94956
81 1 4.71559 7.86118 4.71633 -8.94956
82 1 6.2881 6.28815 3.14327 -8.94838
83 1 7.85829 7.85811 4.71254 -8.94585
84 1 9.43407 6.2883 3.14343 -8.94936
85 1 11.007 7.86004 4.71331 -8.94947
86 1 12.5798 6.2883 3.14343 -8.94936
87 1 14.1556 7.85811 4.71254 -8.94585
88 1 15.7258 6.28815 3.14327 -8.94838
89 1 17.2983 7.86118 4.71633 -8.94956
90 1 18.8698 6.28924 3.14441 -8.94956
91 1 20.4419 7.86192 4.71706 -8.94989
92 1 7.80051e-16 9.43447 3.14461 -8.94964
93 1 3.14417 9.43438 3.14441 -8.94958
94 1 6.28821 9.43398 3.14316 -8.94967
95 1 9.43263 9.43253 3.1396 -8.94952
96 1 12.5813 9.43253 3.1396 -8.94952
97 1 15.7257 9.43398 3.14316 -8.94967
98 1 18.8697 9.43438 3.14441 -8.94958
99 1 4.62793e-16 2.70438e-15 6.28966 -8.94961
100 1 1.57227 1.57232 7.86208 -8.94961
101 1 3.14457 9.98463e-16 6.28959 -8.94957
102 1 4.71683 1.57222 7.86202 -8.94949
103 1 6.28921 1.57227e-15 6.28938 -8.94968
104 1 7.86159 1.57178 7.86185 -8.94982
105 1 9.43429 1.08203e-15 6.28927 -8.94972
106 1 11.007 1.57152 7.86171 -8.94967
107 1 12.5796 5.30905e-16 6.28927 -8.94972
108 1 14.1523 1.57178 7.86185 -8.94982
109 1 15.7247 2.83064e-16 6.28938 -8.94968
110 1 17.2971 1.57222 7.86202 -8.94949
111 1 18.8693 7.9485e-16 6.28959 -8.94957
112 1 20.4416 1.57232 7.86208 -8.94961
113 1 1.81686e-16 3.14471 6.28964 -8.94962
114 1 1.57223 4.71709 7.8621 -8.94961
115 1 3.1445 3.14465 6.28961 -8.94966
116 1 4.71676 4.71695 7.86215 -8.94972
117 1 6.2889 3.14398 6.28921 -8.94951
118 1 7.86091 4.71502 7.86133 -8.94916
119 1 9.43414 3.1435 6.28906 -8.94969
120 1 11.007 4.71439 7.86061 -8.94611
121 1 12.5798 3.1435 6.28906 -8.94969
122 1 14.153 4.71502 7.86133 -8.94916
123 1 15.725 3.14398 6.28921 -8.94951
124 1 17.2971 4.71695 7.86215 -8.94972
125 1 18.8694 3.14465 6.28961 -8.94966
126 1 20.4417 4.71709 7.8621 -8.94961
127 1 6.7449e-16 6.2896 6.2897 -8.94969
128 1 1.57232 7.86205 7.86221 -8.94955
129 1 3.14439 6.28953 6.28974 -8.95001
130 1 4.71708 7.86225 7.86253 -8.95133
131 1 6.28812 6.28805 6.28853 -8.94849
132 1 7.85906 7.85862 7.8581 -8.97984
133 1 9.4339 6.28654 6.28825 -8.95252
134 1 11.007 7.86186 7.85713 -9.05835
135 1 12.58 6.28654 6.28825 -8.95252
136 1 14.1548 7.85862 7.8581 -8.97984
137 1 15.7258 6.28805 6.28853 -8.94849
138 1 17.2968 7.86225 7.86253 -8.95133
139 1 18.8695 6.28953 6.28974 -8.95001
140 1 20.4416 7.86205 7.86221 -8.94955
141 1 3.46986e-16 9.4345 6.28968 -8.94998
142 1 3.14393 9.43439 6.28947 -8.95045
143 1 6.28624 9.4333 6.28704 -8.95073
144 1 9.42372 9.42373 6.27742 -9.02194
145 1 12.5902 9.42373 6.27742 -9.02194
146 1 15.7277 9.4333 6.28704 -8.95073
147 1 18.87 9.43439 6.28947 -8.95045
148 1 4.01088e-16 1.51771e-15 9.43453 -8.94961
149 1 3.14457 1.22131e-15 9.43453 -8.94958
150 1 6.28921 7.58095e-16 9.43453 -8.94951
151 1 9.43429 1.09198e-15 9.43453 -8.9502
152 1 12.5796 9.03714e-16 9.43453 -8.9502
153 1 15.7247 1.34229e-15 9.43453 -8.94951
154 1 18.8693 1.07874e-15 9.43453 -8.94958
155 1 1.18225e-16 3.14469 9.43453 -8.94962
156 1 3.1445 3.14461 9.43453 -8.94962
157 1 6.28906 3.14418 9.43453 -8.94911
158 1 9.43432 3.14263 9.43453 -8.95178
159 1 12.5796 3.14263 9.43453 -8.95178
160 1 15.7248 3.14418 9.43453 -8.94911
161 1 18.8694 3.14461 9.43453 -8.94962
162 1 7.23404e-16 6.28955 9.43453 -8.9496
163 1 3.14461 6.28945 9.43453 -8.94938
164 1 6.28978 6.28928 9.43453 -8.94891
193 1 11.007 7.86186 11.0119 -9.05835
192 1 7.85906 7.85862 11.011 -8.97984
190 1 1.57232 7.86205 11.0069 -8.94955
191 1 4.71708 7.86225 11.0065 -8.95133
177 1 4.71683 1.57222 11.007 -8.94949
181 1 17.2971 1.57222 11.007 -8.94949
184 1 4.71676 4.71695 11.0069 -8.94972
188 1 17.2971 4.71695 11.0069 -8.94972
7 1 9.4345 1.91735e-15 -0.000148214 -8.94961
9 1 12.5794 1.15723e-15 -0.000148214 -8.94961
343 1 18.8694 9.43446 18.8692 -8.94958
48 1 15.7249 9.43427 22.0133 -8.94957
178 1 7.86159 1.57178 11.0072 -8.94982
179 1 11.007 1.57152 11.0073 -8.94967
180 1 14.1523 1.57178 11.0072 -8.94982
45 1 6.28899 9.43427 22.0133 -8.94957
342 1 15.7249 9.43427 18.8696 -8.94957
183 1 1.57223 4.71709 11.007 -8.94961
43 1 1.35203e-15 9.43449 22.0138 -8.9496
185 1 7.86091 4.71502 11.0077 -8.94916
186 1 11.007 4.71439 11.0084 -8.94611
187 1 14.153 4.71502 11.0077 -8.94916
41 1 18.8694 6.28947 22.0137 -8.9496
189 1 20.4417 4.71709 11.007 -8.94961
341 1 12.5799 9.43399 18.8704 -8.95023
340 1 9.43402 9.43399 18.8704 -8.95023
339 1 6.28899 9.43427 18.8696 -8.94957
338 1 3.14447 9.43446 18.8692 -8.94958
337 1 1.10111e-15 9.43449 18.8692 -8.9496
336 1 20.4416 7.86204 20.4415 -8.9496
335 1 18.8694 6.28947 18.8692 -8.9496
197 1 1.18918e-15 2.68637e-15 12.5794 -8.94961
198 1 1.57228 1.57234 14.1519 -8.94962
199 1 3.14457 1.97644e-15 12.5795 -8.94957
200 1 4.71683 1.57216 14.1521 -8.94957
201 1 6.28921 -3.45256e-16 12.5797 -8.94968
202 1 7.86175 1.57198 14.1523 -8.94971
203 1 9.43429 1.80327e-15 12.5798 -8.94972
204 1 11.007 1.57197 14.1523 -8.94966
205 1 12.5796 1.7222e-15 12.5798 -8.94972
206 1 14.1522 1.57198 14.1523 -8.94971
207 1 15.7247 3.85302e-16 12.5797 -8.94968
208 1 17.2971 1.57216 14.1521 -8.94957
209 1 18.8693 1.31768e-15 12.5795 -8.94957
210 1 20.4416 1.57234 14.1519 -8.94962
211 1 6.31906e-16 3.14471 12.5794 -8.94962
212 1 1.57221 4.71711 14.1519 -8.94975
213 1 3.1445 3.14465 12.5795 -8.94966
214 1 4.71646 4.71656 14.1523 -8.94939
215 1 6.2889 3.14398 12.5798 -8.94951
216 1 7.86131 4.71574 14.1527 -8.9503
217 1 9.43414 3.1435 12.58 -8.94969
218 1 11.007 4.71583 14.1529 -8.94954
219 1 12.5798 3.1435 12.58 -8.94969
220 1 14.1526 4.71574 14.1527 -8.9503
221 1 15.725 3.14398 12.5798 -8.94951
222 1 17.2974 4.71656 14.1523 -8.94939
223 1 18.8694 3.14465 12.5795 -8.94966
224 1 20.4417 4.71711 14.1519 -8.94975
225 1 -4.61549e-16 6.2896 12.5794 -8.94969
226 1 1.572 7.86192 14.152 -8.94989
227 1 3.14439 6.28953 12.5793 -8.95001
228 1 4.71559 7.86118 14.1527 -8.94956
229 1 6.28812 6.28805 12.5805 -8.94849
230 1 7.85829 7.85811 14.1565 -8.94585
231 1 9.4339 6.28654 12.5808 -8.95252
232 1 11.007 7.86004 14.1558 -8.94947
233 1 12.58 6.28654 12.5808 -8.95252
234 1 14.1556 7.85811 14.1565 -8.94585
235 1 15.7258 6.28805 12.5805 -8.94849
236 1 17.2983 7.86118 14.1527 -8.94956
237 1 18.8695 6.28953 12.5793 -8.95001
238 1 20.4419 7.86192 14.152 -8.94989
239 1 1.17364e-15 9.4345 12.5794 -8.94998
240 1 3.14393 9.43439 12.5796 -8.95045
241 1 6.28624 9.4333 12.582 -8.95073
242 1 9.42372 9.42373 12.5916 -9.02194
243 1 12.5902 9.42373 12.5916 -9.02194
244 1 15.7277 9.4333 12.582 -8.95073
245 1 18.87 9.43439 12.5796 -8.95045
246 1 1.11346e-15 5.86675e-16 15.7243 -8.94962
247 1 1.5723 1.57233 17.2967 -8.94958
248 1 3.1446 3.50051e-16 15.7244 -8.94957
249 1 4.71703 1.57222 17.2969 -8.94963
250 1 6.28942 7.56791e-16 15.7246 -8.94967
251 1 7.86199 1.5722 17.2969 -8.94962
252 1 9.43444 1.98799e-15 15.7246 -8.94964
253 1 11.007 1.5722 17.2969 -8.94961
254 1 12.5795 1.48305e-15 15.7246 -8.94964
255 1 14.1519 1.5722 17.2969 -8.94962
256 1 15.7245 3.58129e-16 15.7246 -8.94967
257 1 17.2969 1.57222 17.2969 -8.94963
258 1 18.8693 -4.67082e-16 15.7244 -8.94957
259 1 20.4416 1.57233 17.2967 -8.94958
260 1 8.92085e-16 3.14472 15.7243 -8.94968
261 1 1.57221 4.71705 17.2968 -8.94958
262 1 3.1445 3.14456 15.7245 -8.94957
263 1 4.71663 4.71666 17.2972 -8.94923
264 1 6.2892 3.14421 15.7247 -8.94974
265 1 7.86175 4.71657 17.2972 -8.94963
266 1 9.43436 3.14419 15.7248 -8.94959
267 1 11.007 4.7166 17.2972 -8.94959
268 1 12.5795 3.14419 15.7248 -8.94959
269 1 14.1522 4.71657 17.2972 -8.94963
270 1 15.7247 3.14421 15.7247 -8.94974
271 1 17.2973 4.71666 17.2972 -8.94923
272 1 18.8694 3.14456 15.7245 -8.94957
273 1 20.4417 4.71705 17.2968 -8.94958
274 1 1.07401e-15 6.2895 15.7244 -8.94972
275 1 1.57218 7.862 17.2969 -8.94962
276 1 3.14413 6.28924 15.7246 -8.94956
277 1 4.71649 7.86171 17.2972 -8.9496
278 1 6.2881 6.28815 15.7258 -8.94838
279 1 7.86095 7.86093 17.2985 -8.94975
280 1 9.43407 6.2883 15.7256 -8.94936
281 1 11.007 7.8611 17.2985 -8.94939
282 1 12.5798 6.2883 15.7256 -8.94936
283 1 14.153 7.86093 17.2985 -8.94975
284 1 15.7258 6.28815 15.7258 -8.94838
285 1 17.2974 7.86171 17.2972 -8.9496
286 1 18.8698 6.28924 15.7246 -8.94956
287 1 20.4417 7.862 17.2969 -8.94962
288 1 1.39079e-15 9.43447 15.7244 -8.94964
289 1 3.14417 9.43438 15.7246 -8.94958
290 1 6.28821 9.43398 15.7259 -8.94967
291 1 9.43263 9.43253 15.7295 -8.94952
292 1 12.5813 9.43253 15.7295 -8.94952
293 1 15.7257 9.43398 15.7259 -8.94967
294 1 18.8697 9.43438 15.7246 -8.94958
295 1 -3.39153e-16 3.6326e-15 18.8691 -8.94953
296 1 1.57234 1.57234 20.4415 -8.94951
297 1 3.14472 8.73374e-16 18.8692 -8.9496
298 1 4.71716 1.57229 20.4415 -8.94963
299 1 6.28961 -3.45269e-16 18.8692 -8.94962
300 1 7.86206 1.57227 20.4415 -8.94962
301 1 9.4345 2.73241e-16 18.8692 -8.94961
302 1 11.007 1.57226 20.4415 -8.94961
303 1 12.5794 6.38143e-16 18.8692 -8.94961
304 1 14.1518 1.57227 20.4415 -8.94962
305 1 15.7243 9.17311e-17 18.8692 -8.94962
306 1 17.2967 1.57229 20.4415 -8.94963
307 1 18.8692 7.28229e-16 18.8692 -8.9496
308 1 20.4416 1.57234 20.4415 -8.94951
309 1 1.55664e-15 3.14473 18.8691 -8.94956
310 1 1.57228 4.71714 20.4415 -8.9496
311 1 3.1446 3.1446 18.8692 -8.94947
312 1 4.71687 4.71687 20.4415 -8.94952
313 1 6.2895 3.14451 18.8693 -8.94964
314 1 7.8619 4.7168 20.4415 -8.94957
315 1 9.43447 3.1445 18.8693 -8.94961
316 1 11.007 4.71681 20.4415 -8.94958
317 1 12.5794 3.1445 18.8693 -8.94961
318 1 14.152 4.7168 20.4415 -8.94957
319 1 15.7244 3.14451 18.8693 -8.94964
320 1 17.297 4.71687 20.4415 -8.94952
321 1 18.8693 3.1446 18.8692 -8.94947
322 1 20.4416 4.71714 20.4415 -8.9496
323 1 1.03472e-15 6.2896 18.8692 -8.94962
324 1 1.57226 7.86204 20.4415 -8.9496
325 1 3.14449 6.28947 18.8692 -8.9496
326 1 4.71678 7.86187 20.4415 -8.94957
327 1 6.28903 6.28903 18.8696 -8.94958
328 1 7.86152 7.8615 20.4415 -8.94986
329 1 9.43429 6.28902 18.8696 -8.94949
330 1 11.007 7.86148 20.4415 -8.94968
331 1 12.5796 6.28902 18.8696 -8.94949
332 1 14.1524 7.8615 20.4415 -8.94986
333 1 15.7249 6.28903 18.8696 -8.94958
334 1 17.2971 7.86187 20.4415 -8.94957
37 1 12.5796 6.28902 22.0134 -8.94949
35 1 9.43429 6.28902 22.0134 -8.94949
19 1 6.2895 3.14451 22.0137 -8.94964
25 1 15.7244 3.14451 22.0137 -8.94964
31 1 3.14449 6.28947 22.0137 -8.9496
3 1 3.14472 1.17069e-15 22.0138 -8.9496
13 1 18.8692 1.12298e-15 22.0138 -8.9496
15 1 6.47332e-16 3.14473 22.0138 -8.94956
176 1 1.57227 1.57232 11.007 -8.94961
182 1 20.4416 1.57232 11.007 -8.94961
344 1 1.57218 11.007 1.57218 -8.94961
345 1 4.71653 11.007 1.57179 -8.94952
346 1 7.86113 11.007 1.57042 -8.94964
347 1 11.007 11.007 1.56811 -8.95372
348 1 14.1528 11.007 1.57042 -8.94964
349 1 17.2974 11.007 1.57179 -8.94952
350 1 20.4417 11.007 1.57218 -8.94961
688 2 10.2866 11.007 9.43453 0.525827
352 1 1.57218 14.1519 1.5722 -8.94962
353 1 3.14447 12.5794 -0.000190661 -8.94958
354 1 4.71649 14.1522 1.57181 -8.9496
687 2 11.7273 11.007 9.43453 0.525827
356 1 7.86095 14.153 1.57055 -8.94975
357 1 9.43402 12.5799 -0.00134264 -8.95023
358 1 11.007 14.1528 1.57056 -8.94939
359 1 12.5799 12.5799 -0.00134264 -8.95023
360 1 14.153 14.153 1.57055 -8.94975
511 1 18.8694 18.8693 9.43453 -8.94962
362 1 17.2974 14.1522 1.57181 -8.9496
363 1 18.8694 12.5794 -0.000190661 -8.94958
364 1 20.4417 14.1519 1.5722 -8.94962
365 1 -2.32708e-16 15.7243 -0.000101819 -8.94962
366 1 1.57221 17.2968 1.57222 -8.94958
510 1 15.7248 18.8697 9.43453 -8.94911
368 1 4.71663 17.2972 1.57189 -8.94923
369 1 6.28903 15.7249 -0.000516408 -8.94958
370 1 7.86175 17.2973 1.57185 -8.94963
509 1 12.5796 18.8713 9.43453 -8.95178
372 1 11.007 17.2973 1.57181 -8.94959
508 1 9.43432 18.8713 9.43453 -8.95178
374 1 14.1522 17.2973 1.57185 -8.94963
375 1 15.7249 15.7249 -0.000516408 -8.94958
376 1 17.2973 17.2972 1.57189 -8.94923
507 1 6.28906 18.8697 9.43453 -8.94911
378 1 20.4417 17.2968 1.57222 -8.94958
525 1 20.4416 14.1519 11.0069 -8.94955
380 1 1.5723 20.4416 1.57231 -8.94958
381 1 3.1446 18.8693 -0.000144577 -8.94947
382 1 4.71703 20.4417 1.57216 -8.94963
506 1 3.1445 18.8693 9.43453 -8.94962
384 1 7.86199 20.4417 1.57213 -8.94962
385 1 9.43447 18.8694 -0.000201777 -8.94961
386 1 11.007 20.4417 1.57211 -8.94961
387 1 12.5794 18.8694 -0.000201777 -8.94961
388 1 14.1519 20.4417 1.57213 -8.94962
505 1 2.41572e-15 18.8692 9.43453 -8.94962
390 1 17.2969 20.4417 1.57216 -8.94963
391 1 18.8693 18.8693 -0.000144577 -8.94947
392 1 20.4416 20.4416 1.57231 -8.94958
393 1 1.57202 11.007 4.71704 -8.94969
394 1 4.71584 11.007 4.7162 -8.94892
395 1 7.86002 11.007 4.71251 -8.95033
396 1 11.007 11.007 4.69923 -8.97885
397 1 14.1539 11.007 4.71251 -8.95033
398 1 17.2981 11.007 4.7162 -8.94892
399 1 20.4419 11.007 4.71704 -8.94969
400 1 -1.79846e-16 12.5794 3.14461 -8.94964
401 1 1.572 14.152 4.71706 -8.94989
402 1 3.14417 12.5795 3.14441 -8.94958
403 1 4.71559 14.1527 4.71633 -8.94956
404 1 6.28821 12.5799 3.14316 -8.94967
405 1 7.85829 14.1558 4.71254 -8.94585
406 1 9.43263 12.5814 3.1396 -8.94952
407 1 11.007 14.1539 4.71331 -8.94947
408 1 12.5813 12.5814 3.1396 -8.94952
409 1 14.1556 14.1558 4.71254 -8.94585
410 1 15.7257 12.5799 3.14316 -8.94967
411 1 17.2983 14.1527 4.71633 -8.94956
412 1 18.8697 12.5795 3.14441 -8.94958
413 1 20.4419 14.152 4.71706 -8.94989
414 1 4.1686e-17 15.7244 3.14465 -8.94972
415 1 1.57221 17.2968 4.71719 -8.94975
416 1 3.14413 15.7247 3.14441 -8.94956
417 1 4.71646 17.2973 4.7168 -8.94939
418 1 6.2881 15.7258 3.14327 -8.94838
419 1 7.86131 17.2982 4.71633 -8.9503
420 1 9.43407 15.7256 3.14343 -8.94936
421 1 11.007 17.2981 4.71612 -8.94954
422 1 12.5798 15.7256 3.14343 -8.94936
423 1 14.1526 17.2982 4.71633 -8.9503
424 1 15.7258 15.7258 3.14327 -8.94838
425 1 17.2974 17.2973 4.7168 -8.94939
426 1 18.8698 15.7247 3.14441 -8.94956
427 1 20.4417 17.2968 4.71719 -8.94975
428 1 8.27788e-16 18.8692 3.14475 -8.94968
429 1 1.57228 20.4416 4.71719 -8.94962
430 1 3.1445 18.8693 3.14461 -8.94957
431 1 4.71683 20.4417 4.71695 -8.94957
432 1 6.2892 18.8697 3.14432 -8.94974
433 1 7.86175 20.4419 4.71681 -8.94971
434 1 9.43436 18.8697 3.14429 -8.94959
435 1 11.007 20.4419 4.71678 -8.94966
436 1 12.5795 18.8697 3.14429 -8.94959
437 1 14.1522 20.4419 4.71681 -8.94971
438 1 15.7247 18.8697 3.14432 -8.94974
439 1 17.2971 20.4417 4.71695 -8.94957
440 1 18.8694 18.8693 3.14461 -8.94957
441 1 20.4416 20.4416 4.71719 -8.94962
442 1 1.57226 11.007 7.86227 -8.94983
443 1 4.71656 11.007 7.86195 -8.95129
444 1 7.85763 11.007 7.85365 -9.04153
445 1 11.007 11.007 7.73283 -9.34248
446 1 14.1563 11.007 7.85365 -9.04153
447 1 17.2973 11.007 7.86195 -8.95129
448 1 20.4416 11.007 7.86227 -8.94983
449 1 3.44421e-16 12.5794 6.28968 -8.94998
450 1 1.57232 14.1519 7.86221 -8.94955
451 1 3.14393 12.5795 6.28947 -8.95045
452 1 4.71708 14.1516 7.86253 -8.95133
453 1 6.28624 12.5806 6.28704 -8.95073
454 1 7.85906 14.1553 7.8581 -8.97984
455 1 9.42372 12.5902 6.27742 -9.02194
456 1 11.007 14.152 7.85713 -9.05835
457 1 12.5902 12.5902 6.27742 -9.02194
458 1 14.1548 14.1553 7.8581 -8.97984
459 1 15.7277 12.5806 6.28704 -8.95073
460 1 17.2968 14.1516 7.86253 -8.95133
461 1 18.87 12.5795 6.28947 -8.95045
462 1 20.4416 14.1519 7.86221 -8.94955
463 1 1.949e-16 15.7243 6.2897 -8.94969
464 1 1.57223 17.2968 7.8621 -8.94961
465 1 3.14439 15.7244 6.28974 -8.95001
466 1 4.71676 17.297 7.86215 -8.94972
467 1 6.28812 15.7259 6.28853 -8.94849
468 1 7.86091 17.2989 7.86133 -8.94916
469 1 9.4339 15.7274 6.28825 -8.95252
470 1 11.007 17.2995 7.86061 -8.94611
471 1 12.58 15.7274 6.28825 -8.95252
472 1 14.153 17.2989 7.86133 -8.94916
473 1 15.7258 15.7259 6.28853 -8.94849
474 1 17.2971 17.297 7.86215 -8.94972
475 1 18.8695 15.7244 6.28974 -8.95001
476 1 20.4417 17.2968 7.8621 -8.94961
477 1 3.98293e-16 18.8692 6.28964 -8.94962
478 1 1.57227 20.4416 7.86208 -8.94961
479 1 3.1445 18.8693 6.28961 -8.94966
480 1 4.71683 20.4417 7.86202 -8.94949
481 1 6.2889 18.8699 6.28921 -8.94951
482 1 7.86159 20.4421 7.86185 -8.94982
483 1 9.43414 18.8704 6.28906 -8.94969
484 1 11.007 20.4424 7.86171 -8.94967
485 1 12.5798 18.8704 6.28906 -8.94969
486 1 14.1523 20.4421 7.86185 -8.94982
487 1 15.725 18.8699 6.28921 -8.94951
488 1 17.2971 20.4417 7.86202 -8.94949
489 1 18.8694 18.8693 6.28961 -8.94966
490 1 20.4416 20.4416 7.86208 -8.94961
491 1 5.56603e-17 12.5795 9.43453 -8.9491
492 1 3.14523 12.5794 9.43453 -8.94798
493 1 6.29368 12.577 9.43453 -8.99726
494 1 9.41463 12.6208 9.43453 -9.24072
495 1 12.5993 12.6208 9.43453 -9.24072
496 1 15.7202 12.577 9.43453 -8.99726
497 1 18.8687 12.5794 9.43453 -8.94798
498 1 -3.5778e-16 15.7244 9.43453 -8.9496
499 1 3.14461 15.7244 9.43453 -8.94938
500 1 6.28978 15.7246 9.43453 -8.94891
501 1 9.43495 15.733 9.43453 -8.96333
502 1 12.579 15.733 9.43453 -8.96333
503 1 15.7241 15.7246 9.43453 -8.94891
504 1 18.8693 15.7244 9.43453 -8.94938
512 1 1.57226 11.007 11.0068 -8.94983
513 1 4.71656 11.007 11.0071 -8.95129
517 1 17.2973 11.007 11.0071 -8.95129
518 1 20.4416 11.007 11.0068 -8.94983
519 1 1.57232 14.1519 11.0069 -8.94955
520 1 4.71708 14.1516 11.0065 -8.95133
521 1 7.85906 14.1553 11.011 -8.97984
522 1 11.007 14.152 11.0119 -9.05835
523 1 14.1548 14.1553 11.011 -8.97984
524 1 17.2968 14.1516 11.0065 -8.95133
527 1 4.71676 17.297 11.0069 -8.94972
531 1 17.2971 17.297 11.0069 -8.94972
534 1 4.71683 20.4417 11.007 -8.94949
538 1 17.2971 20.4417 11.007 -8.94949
686 1 20.4416 20.4416 20.4415 -8.94951
685 1 18.8693 18.8693 18.8692 -8.94947
514 1 7.85763 11.007 11.0154 -9.04153
515 1 11.007 11.007 11.1362 -9.34248
516 1 14.1563 11.007 11.0154 -9.04153
684 1 17.2967 20.4416 20.4415 -8.94963
683 1 15.7244 18.8694 18.8693 -8.94964
682 1 14.1518 20.4416 20.4415 -8.94962
681 1 12.5794 18.8694 18.8693 -8.94961
680 1 11.007 20.4416 20.4415 -8.94961
679 1 9.43447 18.8694 18.8693 -8.94961
678 1 7.86206 20.4416 20.4415 -8.94962
677 1 6.2895 18.8694 18.8693 -8.94964
676 1 4.71716 20.4416 20.4415 -8.94963
526 1 1.57223 17.2968 11.007 -8.94961
389 1 15.7244 18.8694 22.0137 -8.94964
528 1 7.86091 17.2989 11.0077 -8.94916
529 1 11.007 17.2995 11.0084 -8.94611
530 1 14.153 17.2989 11.0077 -8.94916
383 1 6.2895 18.8694 22.0137 -8.94964
532 1 20.4417 17.2968 11.007 -8.94961
675 1 3.1446 18.8693 18.8692 -8.94947
377 1 18.8694 15.7244 22.0137 -8.9496
535 1 7.86159 20.4421 11.0072 -8.94982
536 1 11.007 20.4424 11.0073 -8.94967
537 1 14.1523 20.4421 11.0072 -8.94982
373 1 12.5796 15.7249 22.0134 -8.94949
674 1 1.57234 20.4416 20.4415 -8.94951
540 1 1.57202 11.007 14.152 -8.94969
541 1 4.71584 11.007 14.1529 -8.94892
542 1 7.86002 11.007 14.1565 -8.95033
543 1 11.007 11.007 14.1698 -8.97885
544 1 14.1539 11.007 14.1565 -8.95033
545 1 17.2981 11.007 14.1529 -8.94892
546 1 20.4419 11.007 14.152 -8.94969
547 1 6.46204e-16 12.5794 12.5794 -8.94998
548 1 1.572 14.152 14.152 -8.94989
549 1 3.14393 12.5795 12.5796 -8.95045
550 1 4.71559 14.1527 14.1527 -8.94956
551 1 6.28624 12.5806 12.582 -8.95073
552 1 7.85829 14.1558 14.1565 -8.94585
553 1 9.42372 12.5902 12.5916 -9.02194
554 1 11.007 14.1539 14.1558 -8.94947
555 1 12.5902 12.5902 12.5916 -9.02194
556 1 14.1556 14.1558 14.1565 -8.94585
557 1 15.7277 12.5806 12.582 -8.95073
558 1 17.2983 14.1527 14.1527 -8.94956
559 1 18.87 12.5795 12.5796 -8.95045
560 1 20.4419 14.152 14.152 -8.94989
561 1 1.08838e-15 15.7243 12.5794 -8.94969
562 1 1.57221 17.2968 14.1519 -8.94975
563 1 3.14439 15.7244 12.5793 -8.95001
564 1 4.71646 17.2973 14.1523 -8.94939
565 1 6.28812 15.7259 12.5805 -8.94849
566 1 7.86131 17.2982 14.1527 -8.9503
567 1 9.4339 15.7274 12.5808 -8.95252
568 1 11.007 17.2981 14.1529 -8.94954
569 1 12.58 15.7274 12.5808 -8.95252
570 1 14.1526 17.2982 14.1527 -8.9503
571 1 15.7258 15.7259 12.5805 -8.94849
572 1 17.2974 17.2973 14.1523 -8.94939
573 1 18.8695 15.7244 12.5793 -8.95001
574 1 20.4417 17.2968 14.1519 -8.94975
575 1 -9.09803e-16 18.8692 12.5794 -8.94962
576 1 1.57228 20.4416 14.1519 -8.94962
577 1 3.1445 18.8693 12.5795 -8.94966
578 1 4.71683 20.4417 14.1521 -8.94957
579 1 6.2889 18.8699 12.5798 -8.94951
580 1 7.86175 20.4419 14.1523 -8.94971
581 1 9.43414 18.8704 12.58 -8.94969
582 1 11.007 20.4419 14.1523 -8.94966
583 1 12.5798 18.8704 12.58 -8.94969
584 1 14.1522 20.4419 14.1523 -8.94971
585 1 15.725 18.8699 12.5798 -8.94951
586 1 17.2971 20.4417 14.1521 -8.94957
587 1 18.8694 18.8693 12.5795 -8.94966
588 1 20.4416 20.4416 14.1519 -8.94962
589 1 1.57218 11.007 17.2969 -8.94961
590 1 4.71653 11.007 17.2973 -8.94952
591 1 7.86113 11.007 17.2986 -8.94964
592 1 11.007 11.007 17.301 -8.95372
593 1 14.1528 11.007 17.2986 -8.94964
594 1 17.2974 11.007 17.2973 -8.94952
595 1 20.4417 11.007 17.2969 -8.94961
596 1 1.79299e-15 12.5794 15.7244 -8.94964
597 1 1.57218 14.1519 17.2969 -8.94962
598 1 3.14417 12.5795 15.7246 -8.94958
599 1 4.71649 14.1522 17.2972 -8.9496
600 1 6.28821 12.5799 15.7259 -8.94967
601 1 7.86095 14.153 17.2985 -8.94975
602 1 9.43263 12.5814 15.7295 -8.94952
603 1 11.007 14.1528 17.2985 -8.94939
604 1 12.5813 12.5814 15.7295 -8.94952
605 1 14.153 14.153 17.2985 -8.94975
606 1 15.7257 12.5799 15.7259 -8.94967
607 1 17.2974 14.1522 17.2972 -8.9496
608 1 18.8697 12.5795 15.7246 -8.94958
609 1 20.4417 14.1519 17.2969 -8.94962
610 1 1.75453e-15 15.7244 15.7244 -8.94972
611 1 1.57221 17.2968 17.2968 -8.94958
612 1 3.14413 15.7247 15.7246 -8.94956
613 1 4.71663 17.2972 17.2972 -8.94923
614 1 6.2881 15.7258 15.7258 -8.94838
615 1 7.86175 17.2973 17.2972 -8.94963
616 1 9.43407 15.7256 15.7256 -8.94936
617 1 11.007 17.2973 17.2972 -8.94959
618 1 12.5798 15.7256 15.7256 -8.94936
619 1 14.1522 17.2973 17.2972 -8.94963
620 1 15.7258 15.7258 15.7258 -8.94838
621 1 17.2973 17.2972 17.2972 -8.94923
622 1 18.8698 15.7247 15.7246 -8.94956
623 1 20.4417 17.2968 17.2968 -8.94958
624 1 1.07754e-15 18.8692 15.7243 -8.94968
625 1 1.5723 20.4416 17.2967 -8.94958
626 1 3.1445 18.8693 15.7245 -8.94957
627 1 4.71703 20.4417 17.2969 -8.94963
628 1 6.2892 18.8697 15.7247 -8.94974
629 1 7.86199 20.4417 17.2969 -8.94962
630 1 9.43436 18.8697 15.7248 -8.94959
631 1 11.007 20.4417 17.2969 -8.94961
632 1 12.5795 18.8697 15.7248 -8.94959
633 1 14.1519 20.4417 17.2969 -8.94962
634 1 15.7247 18.8697 15.7247 -8.94974
635 1 17.2969 20.4417 17.2969 -8.94963
636 1 18.8694 18.8693 15.7245 -8.94957
637 1 20.4416 20.4416 17.2967 -8.94958
638 1 1.57225 11.007 20.4415 -8.9496
639 1 4.71678 11.007 20.4415 -8.94957
640 1 7.8615 11.007 20.4415 -8.94976
641 1 11.007 11.007 20.4415 -8.95088
642 1 14.1524 11.007 20.4415 -8.94976
643 1 17.2971 11.007 20.4415 -8.94957
644 1 20.4417 11.007 20.4415 -8.9496
645 1 -4.75689e-16 12.5794 18.8692 -8.9496
646 1 1.57226 14.1519 20.4415 -8.9496
647 1 3.14447 12.5794 18.8692 -8.94958
648 1 4.71678 14.152 20.4415 -8.94957
649 1 6.28899 12.5796 18.8696 -8.94957
650 1 7.86152 14.1524 20.4415 -8.94986
651 1 9.43402 12.5799 18.8704 -8.95023
652 1 11.007 14.1524 20.4415 -8.94968
653 1 12.5799 12.5799 18.8704 -8.95023
654 1 14.1524 14.1524 20.4415 -8.94986
655 1 15.7249 12.5796 18.8696 -8.94957
656 1 17.2971 14.152 20.4415 -8.94957
657 1 18.8694 12.5794 18.8692 -8.94958
658 1 20.4416 14.1519 20.4415 -8.9496
659 1 1.06463e-15 15.7243 18.8692 -8.94962
660 1 1.57228 17.2968 20.4415 -8.9496
661 1 3.14449 15.7244 18.8692 -8.9496
662 1 4.71687 17.297 20.4415 -8.94952
663 1 6.28903 15.7249 18.8696 -8.94958
664 1 7.8619 17.2971 20.4415 -8.94957
665 1 9.43429 15.7249 18.8696 -8.94949
666 1 11.007 17.2971 20.4415 -8.94958
667 1 12.5796 15.7249 18.8696 -8.94949
668 1 14.152 17.2971 20.4415 -8.94957
669 1 15.7249 15.7249 18.8696 -8.94958
670 1 17.297 17.297 20.4415 -8.94952
671 1 18.8694 15.7244 18.8692 -8.9496
672 1 20.4416 17.2968 20.4415 -8.9496
673 1 -3.08338e-16 18.8692 18.8691 -8.94956
351 1 8.49469e-16 12.5794 22.0138 -8.9496
355 1 6.28899 12.5796 22.0133 -8.94957
361 1 15.7249 12.5796 22.0133 -8.94957
367 1 3.14449 15.7244 22.0137 -8.9496
371 1 9.43429 15.7249 22.0134 -8.94949
379 1 6.26487e-16 18.8692 22.0138 -8.94956
539 1 20.4416 20.4416 11.007 -8.94961
533 1 1.57227 20.4416 11.007 -8.94961
