ITEM: TIMESTEP
93
ITEM: NUMBER OF ATOMS
688
ITEM: BOX BOUNDS pp pp pp
0.0000000000000000e+00 2.2013900999999997e+01
0.0000000000000000e+00 2.2013900999999997e+01
0.0000000000000000e+00 2.2013900999999997e+01
ITEM: ATOMS id type x y z c_pot
1 1 1.3813e-12 -3.73797e-12 4.38274e-05 -8.94951
2 1 1.57216 1.57225 1.57246 -8.94956
196 1 20.4414 7.86219 11.0068 -8.94957
4 1 4.71671 1.57212 1.57224 -8.94962
5 1 6.28923 -1.45581e-12 -0.000118948 -8.94961
6 1 7.86172 1.57205 1.57209 -8.94962
175 1 18.8683 9.4346 9.43453 -8.94802
8 1 11.007 1.57203 1.57203 -8.94961
174 1 15.7198 9.43693 9.43453 -8.99728
10 1 14.1522 1.57205 1.57209 -8.94962
11 1 15.7247 -2.17585e-13 -0.000118948 -8.94961
12 1 17.2972 1.57212 1.57224 -8.94962
195 1 17.2965 7.8624 11.0067 -8.95135
14 1 20.4417 1.57225 1.57246 -8.94956
194 1 14.1546 7.85875 11.0113 -8.97988
16 1 1.57206 4.71687 1.57234 -8.94957
17 1 3.14429 3.14439 -9.57361e-05 -8.94945
18 1 4.71631 4.7164 1.57187 -8.94924
173 1 12.5992 9.39305 9.43453 -9.24053
20 1 7.86148 4.71622 1.57164 -8.94963
21 1 9.43429 3.14417 -0.000289933 -8.9496
22 1 11.007 4.7162 1.57151 -8.94958
23 1 12.5796 3.14417 -0.000289933 -8.9496
24 1 14.1524 4.71622 1.57164 -8.94963
172 1 9.41472 9.39305 9.43453 -9.24053
26 1 17.2976 4.7164 1.57187 -8.94924
27 1 18.8696 3.14439 -9.57361e-05 -8.94945
28 1 20.4418 4.71687 1.57234 -8.94957
29 1 1.25327e-12 6.28937 -4.92536e-05 -8.9496
30 1 1.57204 7.86184 1.57225 -8.94962
171 1 6.29406 9.43693 9.43453 -8.99728
32 1 4.71616 7.86149 1.57165 -8.9496
33 1 6.28862 6.28866 -0.000641458 -8.94956
34 1 7.86067 7.86062 1.57011 -8.94969
170 1 3.1456 9.4346 9.43453 -8.94802
36 1 11.007 7.8608 1.57001 -8.94936
169 1 -1.15472e-12 9.43453 9.43453 -8.94911
38 1 14.1532 7.86062 1.57011 -8.94969
39 1 15.7253 6.28866 -0.000641458 -8.94956
40 1 17.2977 7.86149 1.57165 -8.9496
168 1 18.869 6.28966 9.43453 -8.94939
42 1 20.4419 7.86184 1.57225 -8.94962
167 1 15.7238 6.28952 9.43453 -8.94894
44 1 3.14414 9.43433 -0.000234583 -8.94956
166 1 12.5789 6.28104 9.43453 -8.96332
46 1 9.43382 9.43378 -0.00168018 -8.95023
47 1 12.5801 9.43378 -0.00168018 -8.95023
165 1 9.43505 6.28104 9.43453 -8.96332
49 1 18.8698 9.43433 -0.000234583 -8.94956
50 1 1.03642e-12 2.1858e-12 3.145 -8.94963
51 1 1.57223 1.57235 4.7174 -8.94963
52 1 3.14441 1.62414e-12 3.14482 -8.94957
53 1 4.7167 1.57214 4.71708 -8.94957
54 1 6.28918 2.176e-12 3.14456 -8.94967
55 1 7.86164 1.57194 4.7168 -8.9497
56 1 9.43432 -2.58537e-13 3.14442 -8.94966
57 1 11.007 1.57191 4.71669 -8.94966
58 1 12.5796 -2.55042e-12 3.14442 -8.94966
59 1 14.1523 1.57194 4.7168 -8.9497
60 1 15.7247 5.76972e-13 3.14456 -8.94967
61 1 17.2972 1.57214 4.71708 -8.94957
62 1 18.8695 4.57487e-13 3.14482 -8.94957
63 1 20.4417 1.57235 4.7174 -8.94963
64 1 -1.44431e-12 3.14466 3.14496 -8.94967
65 1 1.57217 4.71711 4.71737 -8.94975
66 1 3.14431 3.14446 3.14474 -8.94954
67 1 4.71639 4.71649 4.71677 -8.94935
68 1 6.28898 3.14406 3.14431 -8.94974
69 1 7.8613 4.71566 4.71607 -8.95028
70 1 9.43425 3.14396 3.1441 -8.9496
71 1 11.007 4.71573 4.71574 -8.94956
72 1 12.5796 3.14396 3.1441 -8.9496
73 1 14.1526 4.71566 4.71607 -8.95028
74 1 15.7249 3.14406 3.14431 -8.94974
75 1 17.2975 4.71649 4.71677 -8.94935
76 1 18.8696 3.14446 3.14474 -8.94954
77 1 20.4417 4.71711 4.71737 -8.94975
78 1 1.41049e-12 6.28941 3.1448 -8.94971
79 1 1.57202 7.86192 4.71717 -8.94988
80 1 3.144 6.28911 3.14445 -8.94957
81 1 4.71566 7.86119 4.71612 -8.94957
82 1 6.28794 6.28796 3.143 -8.94844
83 1 7.85837 7.85812 4.71199 -8.94591
84 1 9.43399 6.28803 3.1429 -8.9494
85 1 11.007 7.86002 4.71252 -8.94949
86 1 12.5799 6.28803 3.1429 -8.9494
87 1 14.1555 7.85812 4.71199 -8.94591
88 1 15.726 6.28796 3.143 -8.94844
89 1 17.2982 7.86119 4.71612 -8.94957
90 1 18.8699 6.28911 3.14445 -8.94957
91 1 20.4419 7.86192 4.71717 -8.94988
92 1 -1.94386e-12 9.43442 3.14472 -8.94966
93 1 3.14403 9.43431 3.14431 -8.94957
94 1 6.28806 9.43389 3.14267 -8.94969
95 1 9.43248 9.43235 3.13871 -8.94932
96 1 12.5814 9.43235 3.13871 -8.94932
97 1 15.7258 9.43389 3.14267 -8.94969
98 1 18.8699 9.43431 3.14431 -8.94957
99 1 1.73973e-13 -9.0073e-13 6.28982 -8.9496
100 1 1.57229 1.57241 7.86218 -8.9496
101 1 3.14454 -1.55325e-12 6.28975 -8.94957
102 1 4.71688 1.5723 7.86209 -8.94949
103 1 6.28916 5.83378e-13 6.28945 -8.9497
104 1 7.86164 1.57184 7.86185 -8.94982
105 1 9.43426 2.31171e-13 6.28926 -8.9497
106 1 11.007 1.57158 7.86166 -8.94966
107 1 12.5796 1.08845e-14 6.28926 -8.9497
108 1 14.1523 1.57184 7.86185 -8.94982
109 1 15.7247 2.87177e-12 6.28945 -8.9497
110 1 17.297 1.5723 7.86209 -8.94949
111 1 18.8694 -2.25697e-12 6.28975 -8.94957
112 1 20.4416 1.57241 7.86218 -8.9496
113 1 -1.75386e-13 3.14481 6.28983 -8.94961
114 1 1.57233 4.71726 7.8622 -8.94959
115 1 3.14453 3.14473 6.28976 -8.94967
116 1 4.717 4.71714 7.86214 -8.94972
117 1 6.28894 3.14402 6.2892 -8.94953
118 1 7.86108 4.7152 7.86116 -8.94919
119 1 9.43416 3.14354 6.28891 -8.94966
120 1 11.007 4.71456 7.86038 -8.94618
121 1 12.5797 3.14354 6.28891 -8.94966
122 1 14.1528 4.7152 7.86116 -8.94919
123 1 15.725 3.14402 6.2892 -8.94953
124 1 17.2969 4.71714 7.86214 -8.94972
125 1 18.8694 3.14473 6.28976 -8.94967
126 1 20.4416 4.71726 7.8622 -8.94959
127 1 1.67672e-12 6.2897 6.28986 -8.94971
128 1 1.57249 7.86219 7.86226 -8.94957
129 1 3.1445 6.2896 6.28976 -8.95003
130 1 4.71743 7.8624 7.86238 -8.95135
131 1 6.28825 6.2881 6.28821 -8.94846
132 1 7.8593 7.85875 7.85775 -8.97988
133 1 9.43398 6.28667 6.28775 -8.95244
134 1 11.007 7.86189 7.8568 -9.05835
135 1 12.5799 6.28667 6.28775 -8.95244
136 1 14.1546 7.85875 7.85775 -8.97988
137 1 15.7257 6.2881 6.28821 -8.94846
138 1 17.2965 7.8624 7.86238 -8.95135
139 1 18.8694 6.2896 6.28976 -8.95003
140 1 20.4414 7.86219 7.86226 -8.94957
141 1 1.46791e-12 9.43454 6.28978 -8.94997
142 1 3.14417 9.43444 6.28939 -8.95041
143 1 6.28658 9.43338 6.28664 -8.95066
144 1 9.42403 9.42394 6.27676 -9.02224
145 1 12.5899 9.42394 6.27676 -9.02224
146 1 15.7273 9.43338 6.28664 -8.95066
147 1 18.8697 9.43444 6.28939 -8.95041
148 1 -6.01942e-13 5.33594e-13 9.43453 -8.9496
149 1 3.14459 -2.51495e-12 9.43453 -8.94958
150 1 6.28925 4.85613e-13 9.43453 -8.9495
151 1 9.43433 -1.6127e-12 9.43453 -8.9502
152 1 12.5796 -1.88391e-12 9.43453 -8.9502
153 1 15.7247 1.27186e-12 9.43453 -8.9495
154 1 18.8693 -9.37709e-13 9.43453 -8.94958
155 1 -4.60152e-13 3.14485 9.43453 -8.94961
156 1 3.14464 3.14479 9.43453 -8.94962
157 1 6.28925 3.14436 9.43453 -8.94913
158 1 9.43441 3.14278 9.43453 -8.95186
159 1 12.5795 3.14278 9.43453 -8.95186
160 1 15.7246 3.14436 9.43453 -8.94913
161 1 18.8693 3.14479 9.43453 -8.94962
162 1 -1.11768e-12 6.28973 9.43453 -8.9496
163 1 3.14489 6.28966 9.43453 -8.94939
164 1 6.2901 6.28952 9.43453 -8.94894
193 1 11.007 7.86189 11.0123 -9.05835
192 1 7.8593 7.85875 11.0113 -8.97988
190 1 1.57249 7.86219 11.0068 -8.94957
191 1 4.71743 7.8624 11.0067 -8.95135
177 1 4.71688 1.5723 11.007 -8.94949
181 1 17.297 1.5723 11.007 -8.94949
184 1 4.717 4.71714 11.0069 -8.94972
188 1 17.2969 4.71714 11.0069 -8.94972
7 1 9.43435 -2.58646e-12 -0.000172463 -8.94961
9 1 12.5796 -7.87157e-13 -0.000172463 -8.94961
343 1 18.8698 9.43433 18.8693 -8.94956
48 1 15.7253 9.43411 22.0131 -8.94959
178 1 7.86164 1.57184 11.0072 -8.94982
179 1 11.007 1.57158 11.0074 -8.94966
180 1 14.1523 1.57184 11.0072 -8.94982
45 1 6.28859 9.43411 22.0131 -8.94959
342 1 15.7253 9.43411 18.8698 -8.94959
183 1 1.57233 4.71726 11.0069 -8.94959
43 1 9.34757e-14 9.4344 22.0138 -8.9496
185 1 7.86108 4.7152 11.0079 -8.94919
186 1 11.007 4.71456 11.0087 -8.94618
187 1 14.1528 4.7152 11.0079 -8.94919
41 1 18.8697 6.28919 22.0137 -8.94959
189 1 20.4416 4.71726 11.0069 -8.94959
341 1 12.5801 9.43378 18.8707 -8.95023
340 1 9.43382 9.43378 18.8707 -8.95023
339 1 6.28859 9.43411 18.8698 -8.94959
338 1 3.14414 9.43433 18.8693 -8.94956
337 1 1.56312e-12 9.4344 18.8691 -8.9496
336 1 20.4418 7.86183 20.4415 -8.94958
335 1 18.8697 6.28919 18.8692 -8.94959
197 1 -6.58253e-13 2.40143e-12 12.5792 -8.9496
198 1 1.57223 1.57235 14.1517 -8.94963
199 1 3.14454 1.24013e-12 12.5793 -8.94957
200 1 4.7167 1.57214 14.152 -8.94957
201 1 6.28916 4.91341e-12 12.5796 -8.9497
202 1 7.86164 1.57194 14.1523 -8.9497
203 1 9.43426 1.5816e-12 12.5798 -8.9497
204 1 11.007 1.57191 14.1524 -8.94966
205 1 12.5796 2.04121e-12 12.5798 -8.9497
206 1 14.1523 1.57194 14.1523 -8.9497
207 1 15.7247 1.1604e-12 12.5796 -8.9497
208 1 17.2972 1.57214 14.152 -8.94957
209 1 18.8694 9.006e-13 12.5793 -8.94957
210 1 20.4417 1.57235 14.1517 -8.94963
211 1 1.61639e-12 3.14481 12.5792 -8.94961
212 1 1.57217 4.71711 14.1517 -8.94975
213 1 3.14453 3.14473 12.5793 -8.94967
214 1 4.71639 4.71649 14.1523 -8.94935
215 1 6.28894 3.14402 12.5799 -8.94953
216 1 7.8613 4.71566 14.153 -8.95028
217 1 9.43416 3.14354 12.5801 -8.94966
218 1 11.007 4.71573 14.1533 -8.94956
219 1 12.5797 3.14354 12.5801 -8.94966
220 1 14.1526 4.71566 14.153 -8.95028
221 1 15.725 3.14402 12.5799 -8.94953
222 1 17.2975 4.71649 14.1523 -8.94935
223 1 18.8694 3.14473 12.5793 -8.94967
224 1 20.4417 4.71711 14.1517 -8.94975
225 1 1.50373e-12 6.2897 12.5792 -8.94971
226 1 1.57202 7.86192 14.1519 -8.94988
227 1 3.1445 6.2896 12.5793 -8.95003
228 1 4.71566 7.86119 14.1529 -8.94957
229 1 6.28825 6.2881 12.5809 -8.94846
230 1 7.85837 7.85812 14.1571 -8.94591
231 1 9.43398 6.28667 12.5813 -8.95244
232 1 11.007 7.86002 14.1565 -8.94949
233 1 12.5799 6.28667 12.5813 -8.95244
234 1 14.1555 7.85812 14.1571 -8.94591
235 1 15.7257 6.2881 12.5809 -8.94846
236 1 17.2982 7.86119 14.1529 -8.94957
237 1 18.8694 6.2896 12.5793 -8.95003
238 1 20.4419 7.86192 14.1519 -8.94988
239 1 1.6654e-12 9.43454 12.5793 -8.94997
240 1 3.14417 9.43444 12.5797 -8.95041
241 1 6.28658 9.43338 12.5824 -8.95066
242 1 9.42403 9.42394 12.5923 -9.02224
243 1 12.5899 9.42394 12.5923 -9.02224
244 1 15.7273 9.43338 12.5824 -8.95066
245 1 18.8697 9.43444 12.5797 -8.95041
246 1 -1.09751e-14 -6.71671e-13 15.7241 -8.94963
247 1 1.57216 1.57225 17.2966 -8.94956
248 1 3.14441 -3.94601e-12 15.7242 -8.94957
249 1 4.71671 1.57212 17.2968 -8.94962
250 1 6.28918 -1.41492e-12 15.7245 -8.94967
251 1 7.86172 1.57205 17.297 -8.94962
252 1 9.43432 -5.86163e-12 15.7246 -8.94966
253 1 11.007 1.57203 17.297 -8.94961
254 1 12.5796 -3.01319e-12 15.7246 -8.94966
255 1 14.1522 1.57205 17.297 -8.94962
256 1 15.7247 -2.10642e-12 15.7245 -8.94967
257 1 17.2972 1.57212 17.2968 -8.94962
258 1 18.8695 -2.08516e-12 15.7242 -8.94957
259 1 20.4417 1.57225 17.2966 -8.94956
260 1 -2.02568e-12 3.14466 15.7241 -8.94967
261 1 1.57206 4.71687 17.2967 -8.94957
262 1 3.14431 3.14446 15.7243 -8.94954
263 1 4.71631 4.7164 17.2972 -8.94924
264 1 6.28898 3.14406 15.7248 -8.94974
265 1 7.86148 4.71622 17.2974 -8.94963
266 1 9.43425 3.14396 15.725 -8.9496
267 1 11.007 4.7162 17.2975 -8.94958
268 1 12.5796 3.14396 15.725 -8.9496
269 1 14.1524 4.71622 17.2974 -8.94963
270 1 15.7249 3.14406 15.7248 -8.94974
271 1 17.2976 4.7164 17.2972 -8.94924
272 1 18.8696 3.14446 15.7243 -8.94954
273 1 20.4418 4.71687 17.2967 -8.94957
274 1 -1.50809e-12 6.28941 15.7243 -8.94971
275 1 1.57204 7.86184 17.2968 -8.94962
276 1 3.144 6.28911 15.7246 -8.94957
277 1 4.71616 7.86149 17.2974 -8.9496
278 1 6.28794 6.28796 15.7261 -8.94844
279 1 7.86067 7.86062 17.299 -8.94969
280 1 9.43399 6.28803 15.7262 -8.9494
281 1 11.007 7.8608 17.2991 -8.94936
282 1 12.5799 6.28803 15.7262 -8.9494
283 1 14.1532 7.86062 17.299 -8.94969
284 1 15.726 6.28796 15.7261 -8.94844
285 1 17.2977 7.86149 17.2974 -8.9496
286 1 18.8699 6.28911 15.7246 -8.94957
287 1 20.4419 7.86184 17.2968 -8.94962
288 1 -2.08588e-12 9.43442 15.7243 -8.94966
289 1 3.14403 9.43431 15.7247 -8.94957
290 1 6.28806 9.43389 15.7264 -8.94969
291 1 9.43248 9.43235 15.7303 -8.94932
292 1 12.5814 9.43235 15.7303 -8.94932
293 1 15.7258 9.43389 15.7264 -8.94969
294 1 18.8699 9.43431 15.7247 -8.94957
295 1 2.08856e-12 8.5051e-13 18.869 -8.94951
296 1 1.57216 1.57222 20.4415 -8.94948
297 1 3.14442 1.56495e-12 18.8691 -8.94958
298 1 4.71676 1.57214 20.4415 -8.94961
299 1 6.28923 3.40862e-12 18.8692 -8.94961
300 1 7.86175 1.57209 20.4415 -8.94961
301 1 9.43435 3.11167e-12 18.8692 -8.94961
302 1 11.007 1.57208 20.4415 -8.94961
303 1 12.5796 3.27591e-12 18.8692 -8.94961
304 1 14.1522 1.57209 20.4415 -8.94961
305 1 15.7247 1.20278e-12 18.8692 -8.94961
306 1 17.2971 1.57214 20.4415 -8.94961
307 1 18.8695 2.60263e-12 18.8691 -8.94958
308 1 20.4417 1.57222 20.4415 -8.94948
309 1 3.18247e-13 3.14454 18.8691 -8.94954
310 1 1.57209 4.71687 20.4415 -8.94957
311 1 3.14429 3.14439 18.8692 -8.94945
312 1 4.71645 4.71653 20.4415 -8.94949
313 1 6.2891 3.14423 18.8693 -8.94962
314 1 7.86156 4.71639 20.4415 -8.94956
315 1 9.43429 3.14417 18.8693 -8.9496
316 1 11.007 4.71636 20.4415 -8.94958
317 1 12.5796 3.14417 18.8693 -8.9496
318 1 14.1523 4.71639 20.4415 -8.94956
319 1 15.7248 3.14423 18.8693 -8.94962
320 1 17.2975 4.71653 20.4415 -8.94949
321 1 18.8696 3.14439 18.8692 -8.94945
322 1 20.4418 4.71687 20.4415 -8.94957
323 1 3.07774e-12 6.28937 18.8691 -8.9496
324 1 1.57207 7.86183 20.4415 -8.94958
325 1 3.14416 6.28919 18.8692 -8.94959
326 1 4.71635 7.86159 20.4415 -8.94957
327 1 6.28862 6.28866 18.8697 -8.94956
328 1 7.86116 7.86116 20.4415 -8.94987
329 1 9.43412 6.28858 18.8698 -8.9495
330 1 11.007 7.86112 20.4415 -8.94969
331 1 12.5798 6.28858 18.8698 -8.9495
332 1 14.1527 7.86116 20.4415 -8.94987
333 1 15.7253 6.28866 18.8697 -8.94956
334 1 17.2976 7.86159 20.4415 -8.94957
37 1 12.5798 6.28858 22.0132 -8.9495
35 1 9.43412 6.28858 22.0132 -8.9495
19 1 6.2891 3.14423 22.0137 -8.94962
25 1 15.7248 3.14423 22.0137 -8.94962
31 1 3.14416 6.28919 22.0137 -8.94959
3 1 3.14442 -1.49108e-12 22.0139 -8.94958
13 1 18.8695 -3.36733e-13 22.0139 -8.94958
15 1 -2.40391e-12 3.14454 22.0139 -8.94954
176 1 1.57229 1.57241 11.0069 -8.9496
182 1 20.4416 1.57241 11.0069 -8.9496
344 1 1.57205 11.007 1.57221 -8.9496
345 1 4.71621 11.007 1.57154 -8.94952
346 1 7.8609 11.007 1.56988 -8.94959
347 1 11.007 11.007 1.56725 -8.95398
348 1 14.153 11.007 1.56988 -8.94959
349 1 17.2977 11.007 1.57154 -8.94952
350 1 20.4419 11.007 1.57221 -8.9496
688 2 10.287 11.007 9.43453 0.525765
352 1 1.57204 14.1521 1.57225 -8.94962
353 1 3.14414 12.5796 -0.000234583 -8.94956
354 1 4.71616 14.1524 1.57165 -8.9496
687 2 11.7269 11.007 9.43453 0.525765
356 1 7.86067 14.1533 1.57011 -8.94969
357 1 9.43382 12.5801 -0.00168018 -8.95023
358 1 11.007 14.1531 1.57001 -8.94936
359 1 12.5801 12.5801 -0.00168018 -8.95023
360 1 14.1532 14.1533 1.57011 -8.94969
511 1 18.8693 18.8691 9.43453 -8.94962
362 1 17.2977 14.1524 1.57165 -8.9496
363 1 18.8698 12.5796 -0.000234583 -8.94956
364 1 20.4419 14.1521 1.57225 -8.94962
365 1 3.73564e-12 15.7245 -4.92536e-05 -8.9496
366 1 1.57206 17.297 1.57234 -8.94957
510 1 15.7246 18.8695 9.43453 -8.94913
368 1 4.71631 17.2975 1.57187 -8.94924
369 1 6.28862 15.7252 -0.000641458 -8.94956
370 1 7.86148 17.2977 1.57164 -8.94963
509 1 12.5795 18.8711 9.43453 -8.95186
372 1 11.007 17.2977 1.57151 -8.94958
508 1 9.43441 18.8711 9.43453 -8.95186
374 1 14.1524 17.2977 1.57164 -8.94963
375 1 15.7253 15.7252 -0.000641458 -8.94956
376 1 17.2976 17.2975 1.57187 -8.94924
507 1 6.28925 18.8695 9.43453 -8.94913
378 1 20.4418 17.297 1.57234 -8.94957
525 1 20.4414 14.1517 11.0068 -8.94957
380 1 1.57216 20.4416 1.57246 -8.94956
381 1 3.14429 18.8695 -9.57361e-05 -8.94945
382 1 4.71671 20.4418 1.57224 -8.94962
506 1 3.14464 18.8691 9.43453 -8.94962
384 1 7.86172 20.4418 1.57209 -8.94962
385 1 9.43429 18.8697 -0.000289933 -8.9496
386 1 11.007 20.4419 1.57203 -8.94961
387 1 12.5796 18.8697 -0.000289933 -8.9496
388 1 14.1522 20.4418 1.57209 -8.94962
505 1 9.79462e-14 18.8691 9.43453 -8.94961
390 1 17.2972 20.4418 1.57224 -8.94962
391 1 18.8696 18.8695 -9.57361e-05 -8.94945
392 1 20.4417 20.4416 1.57246 -8.94956
393 1 1.57204 11.007 4.71709 -8.94971
394 1 4.71591 11.007 4.71586 -8.94895
395 1 7.86013 11.007 4.7118 -8.95034
396 1 11.007 11.007 4.69749 -8.97884
397 1 14.1538 11.007 4.7118 -8.95034
398 1 17.298 11.007 4.71586 -8.94895
399 1 20.4419 11.007 4.71709 -8.94971
400 1 -1.92951e-12 12.5795 3.14472 -8.94966
401 1 1.57202 14.152 4.71717 -8.94988
402 1 3.14403 12.5796 3.14431 -8.94957
403 1 4.71566 14.1527 4.71612 -8.94957
404 1 6.28806 12.58 3.14267 -8.94969
405 1 7.85837 14.1558 4.71199 -8.94591
406 1 9.43248 12.5816 3.13871 -8.94932
407 1 11.007 14.1539 4.71252 -8.94949
408 1 12.5814 12.5816 3.13871 -8.94932
409 1 14.1555 14.1558 4.71199 -8.94591
410 1 15.7258 12.58 3.14267 -8.94969
411 1 17.2982 14.1527 4.71612 -8.94957
412 1 18.8699 12.5796 3.14431 -8.94957
413 1 20.4419 14.152 4.71717 -8.94988
414 1 -3.4431e-13 15.7245 3.1448 -8.94971
415 1 1.57217 17.2968 4.71737 -8.94975
416 1 3.144 15.7248 3.14445 -8.94957
417 1 4.71639 17.2974 4.71677 -8.94935
418 1 6.28794 15.7259 3.143 -8.94844
419 1 7.8613 17.2982 4.71607 -8.95028
420 1 9.43399 15.7259 3.1429 -8.9494
421 1 11.007 17.2982 4.71574 -8.94956
422 1 12.5799 15.7259 3.1429 -8.9494
423 1 14.1526 17.2982 4.71607 -8.95028
424 1 15.726 15.7259 3.143 -8.94844
425 1 17.2975 17.2974 4.71677 -8.94935
426 1 18.8699 15.7248 3.14445 -8.94957
427 1 20.4417 17.2968 4.71737 -8.94975
428 1 -1.78406e-12 18.8692 3.14496 -8.94967
429 1 1.57223 20.4415 4.7174 -8.94963
430 1 3.14431 18.8694 3.14474 -8.94954
431 1 4.7167 20.4418 4.71708 -8.94957
432 1 6.28898 18.8698 3.14431 -8.94974
433 1 7.86164 20.442 4.7168 -8.9497
434 1 9.43425 18.8699 3.1441 -8.9496
435 1 11.007 20.442 4.71669 -8.94966
436 1 12.5796 18.8699 3.1441 -8.9496
437 1 14.1523 20.442 4.7168 -8.9497
438 1 15.7249 18.8698 3.14431 -8.94974
439 1 17.2972 20.4418 4.71708 -8.94957
440 1 18.8696 18.8694 3.14474 -8.94954
441 1 20.4417 20.4415 4.7174 -8.94963
442 1 1.57246 11.007 7.86228 -8.94984
443 1 4.71698 11.007 7.86178 -8.95129
444 1 7.85787 11.007 7.85338 -9.04157
445 1 11.007 11.007 7.73278 -9.34256
446 1 14.156 11.007 7.85338 -9.04157
447 1 17.2969 11.007 7.86178 -8.95129
448 1 20.4414 11.007 7.86228 -8.94984
449 1 7.80585e-13 12.5794 6.28978 -8.94997
450 1 1.57249 14.1517 7.86226 -8.94957
451 1 3.14417 12.5795 6.28939 -8.95041
452 1 4.71743 14.1515 7.86238 -8.95135
453 1 6.28658 12.5805 6.28664 -8.95066
454 1 7.8593 14.1551 7.85775 -8.97988
455 1 9.42403 12.59 6.27676 -9.02224
456 1 11.007 14.152 7.8568 -9.05835
457 1 12.5899 12.59 6.27676 -9.02224
458 1 14.1546 14.1551 7.85775 -8.97988
459 1 15.7273 12.5805 6.28664 -8.95066
460 1 17.2965 14.1515 7.86238 -8.95135
461 1 18.8697 12.5795 6.28939 -8.95041
462 1 20.4414 14.1517 7.86226 -8.94957
463 1 1.56974e-12 15.7242 6.28986 -8.94971
464 1 1.57233 17.2966 7.8622 -8.94959
465 1 3.1445 15.7243 6.28976 -8.95003
466 1 4.717 17.2968 7.86214 -8.94972
467 1 6.28825 15.7258 6.28821 -8.94846
468 1 7.86108 17.2987 7.86116 -8.94919
469 1 9.43398 15.7272 6.28775 -8.95244
470 1 11.007 17.2993 7.86038 -8.94618
471 1 12.5799 15.7272 6.28775 -8.95244
472 1 14.1528 17.2987 7.86116 -8.94919
473 1 15.7257 15.7258 6.28821 -8.94846
474 1 17.2969 17.2968 7.86214 -8.94972
475 1 18.8694 15.7243 6.28976 -8.95003
476 1 20.4416 17.2966 7.8622 -8.94959
477 1 3.40574e-13 18.8691 6.28983 -8.94961
478 1 1.57229 20.4415 7.86218 -8.9496
479 1 3.14453 18.8692 6.28976 -8.94967
480 1 4.71688 20.4416 7.86209 -8.94949
481 1 6.28894 18.8699 6.2892 -8.94953
482 1 7.86164 20.4421 7.86185 -8.94982
483 1 9.43416 18.8704 6.28891 -8.94966
484 1 11.007 20.4423 7.86166 -8.94966
485 1 12.5797 18.8704 6.28891 -8.94966
486 1 14.1523 20.4421 7.86185 -8.94982
487 1 15.725 18.8699 6.2892 -8.94953
488 1 17.297 20.4416 7.86209 -8.94949
489 1 18.8694 18.8692 6.28976 -8.94967
490 1 20.4416 20.4415 7.86218 -8.9496
491 1 -9.20332e-13 12.5794 9.43453 -8.94911
492 1 3.1456 12.5793 9.43453 -8.94802
493 1 6.29406 12.577 9.43453 -8.99728
494 1 9.41472 12.6209 9.43453 -9.24053
495 1 12.5992 12.6209 9.43453 -9.24053
496 1 15.7198 12.577 9.43453 -8.99728
497 1 18.8683 12.5793 9.43453 -8.94802
498 1 1.89822e-14 15.7242 9.43453 -8.9496
499 1 3.14489 15.7242 9.43453 -8.94939
500 1 6.2901 15.7244 9.43453 -8.94894
501 1 9.43505 15.7329 9.43453 -8.96332
502 1 12.5789 15.7329 9.43453 -8.96332
503 1 15.7238 15.7244 9.43453 -8.94894
504 1 18.869 15.7242 9.43453 -8.94939
512 1 1.57246 11.007 11.0068 -8.94984
513 1 4.71698 11.007 11.0073 -8.95129
517 1 17.2969 11.007 11.0073 -8.95129
518 1 20.4414 11.007 11.0068 -8.94984
519 1 1.57249 14.1517 11.0068 -8.94957
520 1 4.71743 14.1515 11.0067 -8.95135
521 1 7.8593 14.1551 11.0113 -8.97988
522 1 11.007 14.152 11.0123 -9.05835
523 1 14.1546 14.1551 11.0113 -8.97988
524 1 17.2965 14.1515 11.0067 -8.95135
527 1 4.717 17.2968 11.0069 -8.94972
531 1 17.2969 17.2968 11.0069 -8.94972
534 1 4.71688 20.4416 11.007 -8.94949
538 1 17.297 20.4416 11.007 -8.94949
686 1 20.4417 20.4417 20.4415 -8.94948
685 1 18.8696 18.8695 18.8692 -8.94945
514 1 7.85787 11.007 11.0157 -9.04157
515 1 11.007 11.007 11.1363 -9.34256
516 1 14.156 11.007 11.0157 -9.04157
684 1 17.2971 20.4418 20.4415 -8.94961
683 1 15.7248 18.8697 18.8693 -8.94962
682 1 14.1522 20.4418 20.4415 -8.94961
681 1 12.5796 18.8697 18.8693 -8.9496
680 1 11.007 20.4418 20.4415 -8.94961
679 1 9.43429 18.8697 18.8693 -8.9496
678 1 7.86175 20.4418 20.4415 -8.94961
677 1 6.2891 18.8697 18.8693 -8.94962
676 1 4.71676 20.4418 20.4415 -8.94961
526 1 1.57233 17.2966 11.0069 -8.94959
389 1 15.7248 18.8697 22.0137 -8.94962
528 1 7.86108 17.2987 11.0079 -8.94919
529 1 11.007 17.2993 11.0087 -8.94618
530 1 14.1528 17.2987 11.0079 -8.94919
383 1 6.2891 18.8697 22.0137 -8.94962
532 1 20.4416 17.2966 11.0069 -8.94959
675 1 3.14429 18.8695 18.8692 -8.94945
377 1 18.8697 15.7247 22.0137 -8.94959
535 1 7.86164 20.4421 11.0072 -8.94982
536 1 11.007 20.4423 11.0074 -8.94966
537 1 14.1523 20.4421 11.0072 -8.94982
373 1 12.5798 15.7253 22.0132 -8.9495
674 1 1.57216 20.4417 20.4415 -8.94948
540 1 1.57204 11.007 14.152 -8.94971
541 1 4.71591 11.007 14.1532 -8.94895
542 1 7.86013 11.007 14.1573 -8.95034
543 1 11.007 11.007 14.1716 -8.97884
544 1 14.1538 11.007 14.1573 -8.95034
545 1 17.298 11.007 14.1532 -8.94895
546 1 20.4419 11.007 14.152 -8.94971
547 1 -1.74566e-13 12.5794 12.5793 -8.94997
548 1 1.57202 14.152 14.1519 -8.94988
549 1 3.14417 12.5795 12.5797 -8.95041
550 1 4.71566 14.1527 14.1529 -8.94957
551 1 6.28658 12.5805 12.5824 -8.95066
552 1 7.85837 14.1558 14.1571 -8.94591
553 1 9.42403 12.59 12.5923 -9.02224
554 1 11.007 14.1539 14.1565 -8.94949
555 1 12.5899 12.59 12.5923 -9.02224
556 1 14.1555 14.1558 14.1571 -8.94591
557 1 15.7273 12.5805 12.5824 -8.95066
558 1 17.2982 14.1527 14.1529 -8.94957
559 1 18.8697 12.5795 12.5797 -8.95041
560 1 20.4419 14.152 14.1519 -8.94988
561 1 9.46567e-13 15.7242 12.5792 -8.94971
562 1 1.57217 17.2968 14.1517 -8.94975
563 1 3.1445 15.7243 12.5793 -8.95003
564 1 4.71639 17.2974 14.1523 -8.94935
565 1 6.28825 15.7258 12.5809 -8.94846
566 1 7.8613 17.2982 14.153 -8.95028
567 1 9.43398 15.7272 12.5813 -8.95244
568 1 11.007 17.2982 14.1533 -8.94956
569 1 12.5799 15.7272 12.5813 -8.95244
570 1 14.1526 17.2982 14.153 -8.95028
571 1 15.7257 15.7258 12.5809 -8.94846
572 1 17.2975 17.2974 14.1523 -8.94935
573 1 18.8694 15.7243 12.5793 -8.95003
574 1 20.4417 17.2968 14.1517 -8.94975
575 1 -6.47039e-13 18.8691 12.5792 -8.94961
576 1 1.57223 20.4415 14.1517 -8.94963
577 1 3.14453 18.8692 12.5793 -8.94967
578 1 4.7167 20.4418 14.152 -8.94957
579 1 6.28894 18.8699 12.5799 -8.94953
580 1 7.86164 20.442 14.1523 -8.9497
581 1 9.43416 18.8704 12.5801 -8.94966
582 1 11.007 20.442 14.1524 -8.94966
583 1 12.5797 18.8704 12.5801 -8.94966
584 1 14.1523 20.442 14.1523 -8.9497
585 1 15.725 18.8699 12.5799 -8.94953
586 1 17.2972 20.4418 14.152 -8.94957
587 1 18.8694 18.8692 12.5793 -8.94967
588 1 20.4417 20.4415 14.1517 -8.94963
589 1 1.57205 11.007 17.2968 -8.9496
590 1 4.71621 11.007 17.2975 -8.94952
591 1 7.8609 11.007 17.2992 -8.94959
592 1 11.007 11.007 17.3018 -8.95398
593 1 14.153 11.007 17.2992 -8.94959
594 1 17.2977 11.007 17.2975 -8.94952
595 1 20.4419 11.007 17.2968 -8.9496
596 1 -1.1467e-12 12.5795 15.7243 -8.94966
597 1 1.57204 14.1521 17.2968 -8.94962
598 1 3.14403 12.5796 15.7247 -8.94957
599 1 4.71616 14.1524 17.2974 -8.9496
600 1 6.28806 12.58 15.7264 -8.94969
601 1 7.86067 14.1533 17.299 -8.94969
602 1 9.43248 12.5816 15.7303 -8.94932
603 1 11.007 14.1531 17.2991 -8.94936
604 1 12.5814 12.5816 15.7303 -8.94932
605 1 14.1532 14.1533 17.299 -8.94969
606 1 15.7258 12.58 15.7264 -8.94969
607 1 17.2977 14.1524 17.2974 -8.9496
608 1 18.8699 12.5796 15.7247 -8.94957
609 1 20.4419 14.1521 17.2968 -8.94962
610 1 1.5352e-12 15.7245 15.7243 -8.94971
611 1 1.57206 17.297 17.2967 -8.94957
612 1 3.144 15.7248 15.7246 -8.94957
613 1 4.71631 17.2975 17.2972 -8.94924
614 1 6.28794 15.7259 15.7261 -8.94844
615 1 7.86148 17.2977 17.2974 -8.94963
616 1 9.43399 15.7259 15.7262 -8.9494
617 1 11.007 17.2977 17.2975 -8.94958
618 1 12.5799 15.7259 15.7262 -8.9494
619 1 14.1524 17.2977 17.2974 -8.94963
620 1 15.726 15.7259 15.7261 -8.94844
621 1 17.2976 17.2975 17.2972 -8.94924
622 1 18.8699 15.7248 15.7246 -8.94957
623 1 20.4418 17.297 17.2967 -8.94957
624 1 -2.55745e-13 18.8692 15.7241 -8.94967
625 1 1.57216 20.4416 17.2966 -8.94956
626 1 3.14431 18.8694 15.7243 -8.94954
627 1 4.71671 20.4418 17.2968 -8.94962
628 1 6.28898 18.8698 15.7248 -8.94974
629 1 7.86172 20.4418 17.297 -8.94962
630 1 9.43425 18.8699 15.725 -8.9496
631 1 11.007 20.4419 17.297 -8.94961
632 1 12.5796 18.8699 15.725 -8.9496
633 1 14.1522 20.4418 17.297 -8.94962
634 1 15.7249 18.8698 15.7248 -8.94974
635 1 17.2972 20.4418 17.2968 -8.94962
636 1 18.8696 18.8694 15.7243 -8.94954
637 1 20.4417 20.4416 17.2966 -8.94956
638 1 1.57207 11.007 20.4415 -8.94958
639 1 4.71634 11.007 20.4415 -8.94958
640 1 7.86116 11.007 20.4415 -8.94977
641 1 11.007 11.007 20.4415 -8.95103
642 1 14.1527 11.007 20.4415 -8.94977
643 1 17.2976 11.007 20.4415 -8.94958
644 1 20.4418 11.007 20.4415 -8.94958
645 1 -1.54398e-12 12.5795 18.8691 -8.9496
646 1 1.57207 14.1521 20.4415 -8.94958
647 1 3.14414 12.5796 18.8693 -8.94956
648 1 4.71635 14.1523 20.4415 -8.94957
649 1 6.28859 12.5798 18.8698 -8.94959
650 1 7.86116 14.1527 20.4415 -8.94987
651 1 9.43382 12.5801 18.8707 -8.95023
652 1 11.007 14.1528 20.4415 -8.94969
653 1 12.5801 12.5801 18.8707 -8.95023
654 1 14.1527 14.1527 20.4415 -8.94987
655 1 15.7253 12.5798 18.8698 -8.94959
656 1 17.2976 14.1523 20.4415 -8.94957
657 1 18.8698 12.5796 18.8693 -8.94956
658 1 20.4418 14.1521 20.4415 -8.94958
659 1 2.79741e-13 15.7245 18.8691 -8.9496
660 1 1.57209 17.297 20.4415 -8.94957
661 1 3.14416 15.7247 18.8692 -8.94959
662 1 4.71645 17.2974 20.4415 -8.94949
663 1 6.28862 15.7252 18.8697 -8.94956
664 1 7.86156 17.2975 20.4415 -8.94956
665 1 9.43412 15.7253 18.8698 -8.9495
666 1 11.007 17.2975 20.4415 -8.94958
667 1 12.5798 15.7253 18.8698 -8.9495
668 1 14.1523 17.2975 20.4415 -8.94956
669 1 15.7253 15.7252 18.8697 -8.94956
670 1 17.2975 17.2974 20.4415 -8.94949
671 1 18.8697 15.7247 18.8692 -8.94959
672 1 20.4418 17.297 20.4415 -8.94957
673 1 -1.88341e-12 18.8694 18.8691 -8.94954
351 1 1.08071e-13 12.5795 22.0138 -8.9496
355 1 6.28859 12.5798 22.0131 -8.94959
361 1 15.7253 12.5798 22.0131 -8.94959
367 1 3.14416 15.7247 22.0137 -8.94959
371 1 9.43412 15.7253 22.0132 -8.9495
379 1 -1.66875e-12 18.8694 22.0139 -8.94954
539 1 20.4416 20.4415 11.0069 -8.9496
533 1 1.57229 20.4415 11.0069 -8.9496
