ITEM: TIMESTEP
55
ITEM: NUMBER OF ATOMS
688
ITEM: BOX BOUNDS pp pp pp
0.0000000000000000e+00 2.2013900999999997e+01
0.0000000000000000e+00 2.2013900999999997e+01
0.0000000000000000e+00 2.2013900999999997e+01
ITEM: ATOMS id type x y z c_pot
1 1 1.00962e-15 2.7752e-15 -5.44224e-05 -8.94953
2 1 1.57226 1.5723 1.5723 -8.94957
196 1 20.4415 7.86207 11.0068 -8.94957
4 1 4.71692 1.57219 1.57215 -8.94963
5 1 6.2895 1.4872e-15 -0.000146478 -8.94962
6 1 7.86189 1.57215 1.5721 -8.94962
175 1 18.8685 9.43453 9.43453 -8.948
8 1 11.007 1.57215 1.57209 -8.94961
174 1 15.7201 9.43687 9.43453 -8.99725
10 1 14.152 1.57215 1.5721 -8.94962
11 1 15.7244 1.43389e-15 -0.000146478 -8.94962
12 1 17.297 1.57219 1.57215 -8.94963
195 1 17.2967 7.8623 11.0066 -8.95135
14 1 20.4416 1.5723 1.5723 -8.94957
194 1 14.1548 7.85864 11.0111 -8.97985
16 1 1.57215 4.71698 1.57222 -8.94958
17 1 3.1445 3.14452 -0.000155234 -8.94946
18 1 4.71651 4.71656 1.57186 -8.94924
173 1 12.5993 9.39302 9.43453 -9.24059
20 1 7.86165 4.71644 1.57178 -8.94963
21 1 9.43441 3.1444 -0.000233373 -8.9496
22 1 11.007 4.71645 1.57171 -8.94958
23 1 12.5795 3.1444 -0.000233373 -8.9496
24 1 14.1522 4.71644 1.57178 -8.94963
172 1 9.41462 9.39302 9.43453 -9.24059
26 1 17.2974 4.71656 1.57186 -8.94924
27 1 18.8694 3.14452 -0.000155234 -8.94946
28 1 20.4417 4.71698 1.57222 -8.94958
29 1 -5.79812e-17 6.28952 -0.000105477 -8.94961
30 1 1.57213 7.86193 1.5722 -8.94962
171 1 6.29379 9.43687 9.43453 -8.99725
32 1 4.71636 7.86162 1.57175 -8.94959
33 1 6.28889 6.28891 -0.00056158 -8.94958
34 1 7.86085 7.86082 1.57042 -8.94972
170 1 3.14536 9.43453 9.43453 -8.948
36 1 11.007 7.861 1.57041 -8.94938
169 1 2.04855e-17 9.43446 9.43453 -8.94911
38 1 14.1531 7.86082 1.57042 -8.94972
39 1 15.725 6.28891 -0.00056158 -8.94958
40 1 17.2975 7.86162 1.57175 -8.94959
168 1 18.8692 6.2895 9.43453 -8.94939
42 1 20.4418 7.86193 1.5722 -8.94962
167 1 15.724 6.28936 9.43453 -8.94891
44 1 3.14436 9.43441 -0.000210185 -8.94957
166 1 12.579 6.28093 9.43453 -8.96331
46 1 9.43395 9.43392 -0.00143194 -8.95023
47 1 12.58 9.43392 -0.00143194 -8.95023
165 1 9.43495 6.28093 9.43453 -8.96331
49 1 18.8695 9.43441 -0.000210185 -8.94957
50 1 4.3322e-16 2.36061e-15 3.14477 -8.94963
51 1 1.57226 1.57234 4.71719 -8.94963
52 1 3.14454 1.61284e-15 3.14464 -8.94957
53 1 4.71677 1.57214 4.71696 -8.94957
54 1 6.28933 1.5454e-15 3.14449 -8.94967
55 1 7.8617 1.57196 4.7168 -8.9497
56 1 9.43439 2.70455e-16 3.14445 -8.94966
57 1 11.007 1.57194 4.71675 -8.94966
58 1 12.5795 1.72137e-15 3.14445 -8.94966
59 1 14.1522 1.57196 4.7168 -8.9497
60 1 15.7246 1.69664e-15 3.14449 -8.94967
61 1 17.2971 1.57214 4.71696 -8.94957
62 1 18.8694 1.12823e-15 3.14464 -8.94957
63 1 20.4416 1.57234 4.71719 -8.94963
64 1 6.19993e-16 3.14469 3.14476 -8.94967
65 1 1.57218 4.71709 4.71721 -8.94975
66 1 3.14442 3.14452 3.1446 -8.94955
67 1 4.71641 4.7165 4.71676 -8.94935
68 1 6.28912 3.14415 3.14431 -8.94974
69 1 7.8613 4.7157 4.71624 -8.95028
70 1 9.43431 3.14409 3.14422 -8.9496
71 1 11.007 4.71579 4.716 -8.94956
72 1 12.5796 3.14409 3.14422 -8.9496
73 1 14.1526 4.7157 4.71624 -8.95028
74 1 15.7248 3.14415 3.14431 -8.94974
75 1 17.2975 4.7165 4.71676 -8.94935
76 1 18.8695 3.14452 3.1446 -8.94955
77 1 20.4417 4.71709 4.71721 -8.94975
78 1 2.95271e-16 6.28946 3.14467 -8.94972
79 1 1.572 7.8619 4.71709 -8.94988
80 1 3.14408 6.28918 3.14441 -8.94957
81 1 4.71562 7.86119 4.71626 -8.94957
82 1 6.28804 6.28807 3.14317 -8.94843
83 1 7.85832 7.85813 4.71237 -8.94589
84 1 9.43404 6.28819 3.14326 -8.94938
85 1 11.007 7.86004 4.71305 -8.94949
86 1 12.5799 6.28819 3.14326 -8.94938
87 1 14.1556 7.85813 4.71237 -8.94589
88 1 15.7259 6.28807 3.14317 -8.94843
89 1 17.2983 7.86119 4.71626 -8.94957
90 1 18.8698 6.28918 3.14441 -8.94957
91 1 20.4419 7.8619 4.71709 -8.94988
92 1 1.40861e-17 9.43445 3.14464 -8.94965
93 1 3.14409 9.43434 3.14436 -8.94957
94 1 6.28814 9.43394 3.143 -8.94968
95 1 9.43255 9.43245 3.13933 -8.9494
96 1 12.5813 9.43245 3.13933 -8.9494
97 1 15.7258 9.43394 3.143 -8.94968
98 1 18.8698 9.43434 3.14436 -8.94957
99 1 8.30236e-16 1.97173e-15 6.28963 -8.9496
100 1 1.57226 1.57234 7.86208 -8.94961
101 1 3.14454 -6.17432e-16 6.28959 -8.94957
102 1 4.71681 1.57224 7.86203 -8.94949
103 1 6.28916 1.21753e-15 6.28939 -8.9497
104 1 7.86158 1.57179 7.86186 -8.94982
105 1 9.43426 3.52563e-17 6.28927 -8.9497
106 1 11.007 1.57153 7.86169 -8.94965
107 1 12.5796 7.19388e-16 6.28927 -8.9497
108 1 14.1523 1.57179 7.86186 -8.94982
109 1 15.7247 8.94135e-16 6.28939 -8.9497
110 1 17.2971 1.57224 7.86203 -8.94949
111 1 18.8694 1.4548e-15 6.28959 -8.94957
112 1 20.4416 1.57234 7.86208 -8.94961
113 1 4.6636e-16 3.14473 6.28966 -8.94961
114 1 1.57226 4.71712 7.86213 -8.94959
115 1 3.1445 3.14467 6.28964 -8.94967
116 1 4.71684 4.717 7.86214 -8.94971
117 1 6.28889 3.14397 6.2892 -8.94953
118 1 7.86096 4.71508 7.86125 -8.94919
119 1 9.43415 3.14351 6.28902 -8.94966
120 1 11.007 4.71446 7.86051 -8.94616
121 1 12.5798 3.14351 6.28902 -8.94966
122 1 14.1529 4.71508 7.86125 -8.94919
123 1 15.725 3.14397 6.2892 -8.94953
124 1 17.2971 4.717 7.86214 -8.94971
125 1 18.8694 3.14467 6.28964 -8.94967
126 1 20.4416 4.71712 7.86213 -8.94959
127 1 1.55728e-16 6.2896 6.28975 -8.9497
128 1 1.57238 7.86207 7.86223 -8.94957
129 1 3.14441 6.28952 6.28973 -8.95003
130 1 4.71719 7.8623 7.86245 -8.95135
131 1 6.28812 6.28803 6.28837 -8.94847
132 1 7.8591 7.85864 7.85797 -8.97985
133 1 9.43392 6.2866 6.28806 -8.95245
134 1 11.007 7.86182 7.85703 -9.05835
135 1 12.58 6.2866 6.28806 -8.95245
136 1 14.1548 7.85864 7.85797 -8.97985
137 1 15.7258 6.28803 6.28837 -8.94847
138 1 17.2967 7.8623 7.86245 -8.95135
139 1 18.8695 6.28952 6.28973 -8.95003
140 1 20.4415 7.86207 7.86223 -8.94957
141 1 4.21268e-16 9.43449 6.28972 -8.94997
142 1 3.14402 9.4344 6.28944 -8.95041
143 1 6.28638 9.43334 6.28691 -8.95069
144 1 9.42386 9.42385 6.27724 -9.02212
145 1 12.59 9.42385 6.27724 -9.02212
146 1 15.7275 9.43334 6.28691 -8.95069
147 1 18.8699 9.4344 6.28944 -8.95041
148 1 1.02117e-15 1.74219e-15 9.43453 -8.94961
149 1 3.14454 9.94967e-16 9.43453 -8.94958
150 1 6.28917 1.45686e-15 9.43453 -8.9495
151 1 9.43429 9.48035e-16 9.43453 -8.9502
152 1 12.5796 4.48614e-16 9.43453 -8.9502
153 1 15.7247 1.84796e-16 9.43453 -8.9495
154 1 18.8694 8.28408e-16 9.43453 -8.94958
155 1 2.65257e-16 3.14472 9.43453 -8.94961
156 1 3.14453 3.14466 9.43453 -8.94962
157 1 6.28912 3.14423 9.43453 -8.94912
158 1 9.43435 3.14267 9.43453 -8.95183
159 1 12.5795 3.14267 9.43453 -8.95183
160 1 15.7248 3.14423 9.43453 -8.94912
161 1 18.8694 3.14466 9.43453 -8.94962
162 1 1.48907e-16 6.28957 9.43453 -8.9496
163 1 3.14469 6.2895 9.43453 -8.94939
164 1 6.28986 6.28936 9.43453 -8.94891
193 1 11.007 7.86182 11.012 -9.05835
192 1 7.8591 7.85864 11.0111 -8.97985
190 1 1.57238 7.86207 11.0068 -8.94957
191 1 4.71719 7.8623 11.0066 -8.95135
177 1 4.71681 1.57224 11.007 -8.94949
181 1 17.2971 1.57224 11.007 -8.94949
184 1 4.71684 4.717 11.0069 -8.94971
188 1 17.2971 4.717 11.0069 -8.94971
7 1 9.43446 1.82519e-15 -0.00015621 -8.94962
9 1 12.5794 1.815e-15 -0.00015621 -8.94962
343 1 18.8695 9.43441 18.8693 -8.94957
48 1 15.725 9.43422 22.0133 -8.94959
178 1 7.86158 1.57179 11.0072 -8.94982
179 1 11.007 1.57153 11.0074 -8.94965
180 1 14.1523 1.57179 11.0072 -8.94982
45 1 6.28885 9.43422 22.0133 -8.94959
342 1 15.725 9.43422 18.8697 -8.94959
183 1 1.57226 4.71712 11.0069 -8.94959
43 1 7.04554e-16 9.43447 22.0138 -8.9496
185 1 7.86096 4.71508 11.0078 -8.94919
186 1 11.007 4.71446 11.0086 -8.94616
187 1 14.1529 4.71508 11.0078 -8.94919
41 1 18.8695 6.28937 22.0137 -8.94959
189 1 20.4416 4.71712 11.0069 -8.94959
341 1 12.58 9.43392 18.8705 -8.95023
340 1 9.43395 9.43392 18.8705 -8.95023
339 1 6.28885 9.43422 18.8697 -8.94959
338 1 3.14436 9.43441 18.8693 -8.94957
337 1 1.84442e-15 9.43447 18.8692 -8.9496
336 1 20.4417 7.86197 20.4415 -8.94959
335 1 18.8695 6.28937 18.8693 -8.94959
197 1 7.6138e-16 5.47452e-16 12.5794 -8.9496
198 1 1.57226 1.57234 14.1519 -8.94963
199 1 3.14454 3.67922e-16 12.5795 -8.94957
200 1 4.71677 1.57214 14.1521 -8.94957
201 1 6.28916 8.64551e-16 12.5797 -8.9497
202 1 7.8617 1.57196 14.1523 -8.9497
203 1 9.43426 1.30279e-15 12.5798 -8.9497
204 1 11.007 1.57194 14.1523 -8.94966
205 1 12.5796 1.9282e-15 12.5798 -8.9497
206 1 14.1522 1.57196 14.1523 -8.9497
207 1 15.7247 1.99174e-15 12.5797 -8.9497
208 1 17.2971 1.57214 14.1521 -8.94957
209 1 18.8694 2.15523e-15 12.5795 -8.94957
210 1 20.4416 1.57234 14.1519 -8.94963
211 1 1.52997e-15 3.14473 12.5794 -8.94961
212 1 1.57218 4.71709 14.1518 -8.94975
213 1 3.1445 3.14467 12.5794 -8.94967
214 1 4.71641 4.7165 14.1523 -8.94935
215 1 6.28889 3.14397 12.5799 -8.94953
216 1 7.8613 4.7157 14.1528 -8.95028
217 1 9.43415 3.14351 12.58 -8.94966
218 1 11.007 4.71579 14.1531 -8.94956
219 1 12.5798 3.14351 12.58 -8.94966
220 1 14.1526 4.7157 14.1528 -8.95028
221 1 15.725 3.14397 12.5799 -8.94953
222 1 17.2975 4.7165 14.1523 -8.94935
223 1 18.8694 3.14467 12.5794 -8.94967
224 1 20.4417 4.71709 14.1518 -8.94975
225 1 4.88003e-17 6.2896 12.5793 -8.9497
226 1 1.572 7.8619 14.152 -8.94988
227 1 3.14441 6.28952 12.5793 -8.95003
228 1 4.71562 7.86119 14.1528 -8.94957
229 1 6.28812 6.28803 12.5807 -8.94847
230 1 7.85832 7.85813 14.1567 -8.94589
231 1 9.43392 6.2866 12.581 -8.95245
232 1 11.007 7.86004 14.156 -8.94949
233 1 12.58 6.2866 12.581 -8.95245
234 1 14.1556 7.85813 14.1567 -8.94589
235 1 15.7258 6.28803 12.5807 -8.94847
236 1 17.2983 7.86119 14.1528 -8.94957
237 1 18.8695 6.28952 12.5793 -8.95003
238 1 20.4419 7.8619 14.152 -8.94988
239 1 8.08167e-16 9.43449 12.5793 -8.94997
240 1 3.14402 9.4344 12.5796 -8.95041
241 1 6.28638 9.43334 12.5822 -8.95069
242 1 9.42386 9.42385 12.5918 -9.02212
243 1 12.59 9.42385 12.5918 -9.02212
244 1 15.7275 9.43334 12.5822 -8.95069
245 1 18.8699 9.4344 12.5796 -8.95041
246 1 9.29455e-16 2.36712e-15 15.7243 -8.94963
247 1 1.57226 1.5723 17.2968 -8.94957
248 1 3.14454 1.50193e-15 15.7244 -8.94957
249 1 4.71692 1.57219 17.2969 -8.94963
250 1 6.28933 1.31438e-15 15.7246 -8.94967
251 1 7.86189 1.57215 17.297 -8.94962
252 1 9.43439 1.03321e-15 15.7246 -8.94966
253 1 11.007 1.57215 17.297 -8.94961
254 1 12.5795 1.46537e-15 15.7246 -8.94966
255 1 14.152 1.57215 17.297 -8.94962
256 1 15.7246 2.05801e-15 15.7246 -8.94967
257 1 17.297 1.57219 17.2969 -8.94963
258 1 18.8694 2.10654e-15 15.7244 -8.94957
259 1 20.4416 1.5723 17.2968 -8.94957
260 1 5.82214e-16 3.14469 15.7243 -8.94967
261 1 1.57215 4.71698 17.2968 -8.94958
262 1 3.14442 3.14452 15.7245 -8.94955
263 1 4.71651 4.71656 17.2972 -8.94924
264 1 6.28912 3.14415 15.7247 -8.94974
265 1 7.86165 4.71644 17.2973 -8.94963
266 1 9.43431 3.14409 15.7248 -8.9496
267 1 11.007 4.71645 17.2973 -8.94958
268 1 12.5796 3.14409 15.7248 -8.9496
269 1 14.1522 4.71644 17.2973 -8.94963
270 1 15.7248 3.14415 15.7247 -8.94974
271 1 17.2974 4.71656 17.2972 -8.94924
272 1 18.8695 3.14452 15.7245 -8.94955
273 1 20.4417 4.71698 17.2968 -8.94958
274 1 9.0173e-16 6.28946 15.7244 -8.94972
275 1 1.57213 7.86193 17.2969 -8.94962
276 1 3.14408 6.28918 15.7246 -8.94957
277 1 4.71636 7.86162 17.2973 -8.94959
278 1 6.28804 6.28807 15.7259 -8.94843
279 1 7.86085 7.86082 17.2986 -8.94972
280 1 9.43404 6.28819 15.7258 -8.94938
281 1 11.007 7.861 17.2986 -8.94938
282 1 12.5799 6.28819 15.7258 -8.94938
283 1 14.1531 7.86082 17.2986 -8.94972
284 1 15.7259 6.28807 15.7259 -8.94843
285 1 17.2975 7.86162 17.2973 -8.94959
286 1 18.8698 6.28918 15.7246 -8.94957
287 1 20.4418 7.86193 17.2969 -8.94962
288 1 1.79763e-15 9.43445 15.7244 -8.94965
289 1 3.14409 9.43434 15.7247 -8.94957
290 1 6.28814 9.43394 15.7261 -8.94968
291 1 9.43255 9.43245 15.7297 -8.9494
292 1 12.5813 9.43245 15.7297 -8.9494
293 1 15.7258 9.43394 15.7261 -8.94968
294 1 18.8698 9.43434 15.7247 -8.94957
295 1 4.63984e-16 2.08094e-15 18.8691 -8.94953
296 1 1.57228 1.5723 20.4415 -8.94949
297 1 3.14463 2.03739e-15 18.8692 -8.94959
298 1 4.71704 1.57224 20.4415 -8.94962
299 1 6.2895 1.84801e-15 18.8692 -8.94962
300 1 7.86197 1.57222 20.4415 -8.94961
301 1 9.43446 1.04581e-15 18.8692 -8.94962
302 1 11.007 1.57222 20.4415 -8.94961
303 1 12.5794 8.967e-16 18.8692 -8.94962
304 1 14.1519 1.57222 20.4415 -8.94961
305 1 15.7244 1.43424e-15 18.8692 -8.94962
306 1 17.2969 1.57224 20.4415 -8.94962
307 1 18.8693 3.19426e-16 18.8692 -8.94959
308 1 20.4416 1.5723 20.4415 -8.94949
309 1 -2.16978e-16 3.14466 18.8691 -8.94955
310 1 1.57222 4.71704 20.4415 -8.94959
311 1 3.1445 3.14452 18.8692 -8.94946
312 1 4.71674 4.71676 20.4415 -8.94951
313 1 6.28937 3.14442 18.8693 -8.94963
314 1 7.86179 4.71668 20.4415 -8.94956
315 1 9.43441 3.1444 18.8693 -8.9496
316 1 11.007 4.71667 20.4415 -8.94958
317 1 12.5795 3.1444 18.8693 -8.9496
318 1 14.1521 4.71668 20.4415 -8.94956
319 1 15.7245 3.14442 18.8693 -8.94963
320 1 17.2972 4.71676 20.4415 -8.94951
321 1 18.8694 3.14452 18.8692 -8.94946
322 1 20.4417 4.71704 20.4415 -8.94959
323 1 1.68204e-15 6.28952 18.8692 -8.94961
324 1 1.5722 7.86197 20.4415 -8.94959
325 1 3.14438 6.28937 18.8693 -8.94959
326 1 4.71664 7.86177 20.4415 -8.94957
327 1 6.28889 6.28891 18.8696 -8.94958
328 1 7.8614 7.8614 20.4415 -8.94987
329 1 9.43424 6.28887 18.8696 -8.9495
330 1 11.007 7.86137 20.4415 -8.94969
331 1 12.5797 6.28887 18.8696 -8.9495
332 1 14.1525 7.8614 20.4415 -8.94987
333 1 15.725 6.28891 18.8696 -8.94958
334 1 17.2973 7.86177 20.4415 -8.94957
37 1 12.5797 6.28887 22.0133 -8.9495
35 1 9.43424 6.28887 22.0133 -8.9495
19 1 6.28937 3.14442 22.0137 -8.94963
25 1 15.7245 3.14442 22.0137 -8.94963
31 1 3.14438 6.28937 22.0137 -8.94959
3 1 3.14463 8.13843e-16 22.0138 -8.94959
13 1 18.8693 1.09559e-15 22.0138 -8.94959
15 1 -4.50364e-16 3.14466 22.0138 -8.94955
176 1 1.57226 1.57234 11.007 -8.94961
182 1 20.4416 1.57234 11.007 -8.94961
344 1 1.57214 11.007 1.57219 -8.9496
345 1 4.7164 11.007 1.57169 -8.94952
346 1 7.86105 11.007 1.57027 -8.94961
347 1 11.007 11.007 1.56783 -8.95386
348 1 14.1528 11.007 1.57027 -8.94961
349 1 17.2975 11.007 1.57169 -8.94952
350 1 20.4418 11.007 1.57219 -8.9496
688 2 10.2869 11.007 9.43453 0.525635
352 1 1.57213 14.152 1.5722 -8.94962
353 1 3.14436 12.5795 -0.000210185 -8.94957
354 1 4.71636 14.1523 1.57175 -8.94959
687 2 11.727 11.007 9.43453 0.525635
356 1 7.86085 14.1531 1.57042 -8.94972
357 1 9.43395 12.58 -0.00143194 -8.95023
358 1 11.007 14.1529 1.57041 -8.94938
359 1 12.58 12.58 -0.00143194 -8.95023
360 1 14.1531 14.1531 1.57042 -8.94972
511 1 18.8694 18.8692 9.43453 -8.94962
362 1 17.2975 14.1523 1.57175 -8.94959
363 1 18.8695 12.5795 -0.000210185 -8.94957
364 1 20.4418 14.152 1.5722 -8.94962
365 1 -1.03352e-15 15.7244 -0.000105477 -8.94961
366 1 1.57215 17.2969 1.57222 -8.94958
510 1 15.7248 18.8697 9.43453 -8.94912
368 1 4.71651 17.2973 1.57186 -8.94924
369 1 6.28889 15.725 -0.00056158 -8.94958
370 1 7.86165 17.2975 1.57178 -8.94963
509 1 12.5795 18.8712 9.43453 -8.95183
372 1 11.007 17.2975 1.57171 -8.94958
508 1 9.43435 18.8712 9.43453 -8.95183
374 1 14.1522 17.2975 1.57178 -8.94963
375 1 15.725 15.725 -0.00056158 -8.94958
376 1 17.2974 17.2973 1.57186 -8.94924
507 1 6.28912 18.8697 9.43453 -8.94912
378 1 20.4417 17.2969 1.57222 -8.94958
525 1 20.4415 14.1518 11.0068 -8.94957
380 1 1.57226 20.4416 1.5723 -8.94957
381 1 3.1445 18.8694 -0.000155234 -8.94946
382 1 4.71692 20.4417 1.57215 -8.94963
506 1 3.14453 18.8692 9.43453 -8.94962
384 1 7.86189 20.4418 1.5721 -8.94962
385 1 9.43441 18.8695 -0.000233373 -8.9496
386 1 11.007 20.4418 1.57209 -8.94961
387 1 12.5795 18.8695 -0.000233373 -8.9496
388 1 14.152 20.4418 1.5721 -8.94962
505 1 1.45236e-15 18.8692 9.43453 -8.94961
390 1 17.297 20.4417 1.57215 -8.94963
391 1 18.8694 18.8694 -0.000155234 -8.94946
392 1 20.4416 20.4416 1.5723 -8.94957
393 1 1.57201 11.007 4.71705 -8.94971
394 1 4.71584 11.007 4.71607 -8.94895
395 1 7.86006 11.007 4.7123 -8.95033
396 1 11.007 11.007 4.69853 -8.97884
397 1 14.1538 11.007 4.7123 -8.95033
398 1 17.2981 11.007 4.71607 -8.94895
399 1 20.4419 11.007 4.71705 -8.94971
400 1 -1.99622e-16 12.5795 3.14464 -8.94965
401 1 1.572 14.152 4.71709 -8.94988
402 1 3.14409 12.5796 3.14436 -8.94957
403 1 4.71562 14.1527 4.71626 -8.94957
404 1 6.28814 12.58 3.143 -8.94968
405 1 7.85832 14.1558 4.71237 -8.94589
406 1 9.43255 12.5815 3.13933 -8.9494
407 1 11.007 14.1539 4.71305 -8.94949
408 1 12.5813 12.5815 3.13933 -8.9494
409 1 14.1556 14.1558 4.71237 -8.94589
410 1 15.7258 12.58 3.143 -8.94968
411 1 17.2983 14.1527 4.71626 -8.94957
412 1 18.8698 12.5796 3.14436 -8.94957
413 1 20.4419 14.152 4.71709 -8.94988
414 1 -3.76068e-18 15.7244 3.14467 -8.94972
415 1 1.57218 17.2968 4.71721 -8.94975
416 1 3.14408 15.7247 3.14441 -8.94957
417 1 4.71641 17.2974 4.71676 -8.94935
418 1 6.28804 15.7258 3.14317 -8.94843
419 1 7.8613 17.2982 4.71624 -8.95028
420 1 9.43404 15.7257 3.14326 -8.94938
421 1 11.007 17.2981 4.716 -8.94956
422 1 12.5799 15.7257 3.14326 -8.94938
423 1 14.1526 17.2982 4.71624 -8.95028
424 1 15.7259 15.7258 3.14317 -8.94843
425 1 17.2975 17.2974 4.71676 -8.94935
426 1 18.8698 15.7247 3.14441 -8.94957
427 1 20.4417 17.2968 4.71721 -8.94975
428 1 1.33848e-15 18.8692 3.14476 -8.94967
429 1 1.57226 20.4416 4.71719 -8.94963
430 1 3.14442 18.8694 3.1446 -8.94955
431 1 4.71677 20.4418 4.71696 -8.94957
432 1 6.28912 18.8697 3.14431 -8.94974
433 1 7.8617 20.4419 4.7168 -8.9497
434 1 9.43431 18.8698 3.14422 -8.9496
435 1 11.007 20.442 4.71675 -8.94966
436 1 12.5796 18.8698 3.14422 -8.9496
437 1 14.1522 20.4419 4.7168 -8.9497
438 1 15.7248 18.8697 3.14431 -8.94974
439 1 17.2971 20.4418 4.71696 -8.94957
440 1 18.8695 18.8694 3.1446 -8.94955
441 1 20.4416 20.4416 4.71719 -8.94963
442 1 1.57233 11.007 7.86227 -8.94983
443 1 4.7167 11.007 7.86187 -8.95129
444 1 7.85766 11.007 7.8536 -9.04154
445 1 11.007 11.007 7.73284 -9.34241
446 1 14.1562 11.007 7.8536 -9.04154
447 1 17.2972 11.007 7.86187 -8.95129
448 1 20.4416 11.007 7.86227 -8.94983
449 1 -5.6962e-16 12.5794 6.28972 -8.94997
450 1 1.57238 14.1518 7.86223 -8.94957
451 1 3.14402 12.5795 6.28944 -8.95041
452 1 4.71719 14.1516 7.86245 -8.95135
453 1 6.28638 12.5806 6.28691 -8.95069
454 1 7.8591 14.1553 7.85797 -8.97985
455 1 9.42386 12.59 6.27724 -9.02212
456 1 11.007 14.1521 7.85703 -9.05835
457 1 12.59 12.59 6.27724 -9.02212
458 1 14.1548 14.1553 7.85797 -8.97985
459 1 15.7275 12.5806 6.28691 -8.95069
460 1 17.2967 14.1516 7.86245 -8.95135
461 1 18.8699 12.5795 6.28944 -8.95041
462 1 20.4415 14.1518 7.86223 -8.94957
463 1 -3.25714e-16 15.7243 6.28975 -8.9497
464 1 1.57226 17.2968 7.86213 -8.94959
465 1 3.14441 15.7244 6.28973 -8.95003
466 1 4.71684 17.2969 7.86214 -8.94971
467 1 6.28812 15.7259 6.28837 -8.94847
468 1 7.86096 17.2988 7.86125 -8.94919
469 1 9.43392 15.7273 6.28806 -8.95245
470 1 11.007 17.2994 7.86051 -8.94616
471 1 12.58 15.7273 6.28806 -8.95245
472 1 14.1529 17.2988 7.86125 -8.94919
473 1 15.7258 15.7259 6.28837 -8.94847
474 1 17.2971 17.2969 7.86214 -8.94971
475 1 18.8695 15.7244 6.28973 -8.95003
476 1 20.4416 17.2968 7.86213 -8.94959
477 1 6.11578e-16 18.8692 6.28966 -8.94961
478 1 1.57226 20.4416 7.86208 -8.94961
479 1 3.1445 18.8692 6.28964 -8.94967
480 1 4.71681 20.4417 7.86203 -8.94949
481 1 6.28889 18.8699 6.2892 -8.94953
482 1 7.86158 20.4421 7.86186 -8.94982
483 1 9.43415 18.8704 6.28902 -8.94966
484 1 11.007 20.4424 7.86169 -8.94965
485 1 12.5798 18.8704 6.28902 -8.94966
486 1 14.1523 20.4421 7.86186 -8.94982
487 1 15.725 18.8699 6.2892 -8.94953
488 1 17.2971 20.4417 7.86203 -8.94949
489 1 18.8694 18.8692 6.28964 -8.94967
490 1 20.4416 20.4416 7.86208 -8.94961
491 1 1.36092e-16 12.5794 9.43453 -8.94911
492 1 3.14536 12.5794 9.43453 -8.948
493 1 6.29379 12.577 9.43453 -8.99725
494 1 9.41462 12.6209 9.43453 -9.24059
495 1 12.5993 12.6209 9.43453 -9.24059
496 1 15.7201 12.577 9.43453 -8.99725
497 1 18.8685 12.5794 9.43453 -8.948
498 1 -2.27117e-16 15.7243 9.43453 -8.9496
499 1 3.14469 15.7244 9.43453 -8.94939
500 1 6.28986 15.7245 9.43453 -8.94891
501 1 9.43495 15.733 9.43453 -8.96331
502 1 12.579 15.733 9.43453 -8.96331
503 1 15.724 15.7245 9.43453 -8.94891
504 1 18.8692 15.7244 9.43453 -8.94939
512 1 1.57233 11.007 11.0068 -8.94983
513 1 4.7167 11.007 11.0072 -8.95129
517 1 17.2972 11.007 11.0072 -8.95129
518 1 20.4416 11.007 11.0068 -8.94983
519 1 1.57238 14.1518 11.0068 -8.94957
520 1 4.71719 14.1516 11.0066 -8.95135
521 1 7.8591 14.1553 11.0111 -8.97985
522 1 11.007 14.1521 11.012 -9.05835
523 1 14.1548 14.1553 11.0111 -8.97985
524 1 17.2967 14.1516 11.0066 -8.95135
527 1 4.71684 17.2969 11.0069 -8.94971
531 1 17.2971 17.2969 11.0069 -8.94971
534 1 4.71681 20.4417 11.007 -8.94949
538 1 17.2971 20.4417 11.007 -8.94949
686 1 20.4416 20.4416 20.4415 -8.94949
685 1 18.8694 18.8694 18.8692 -8.94946
514 1 7.85766 11.007 11.0155 -9.04154
515 1 11.007 11.007 11.1362 -9.34241
516 1 14.1562 11.007 11.0155 -9.04154
684 1 17.2969 20.4417 20.4415 -8.94962
683 1 15.7245 18.8695 18.8693 -8.94963
682 1 14.1519 20.4417 20.4415 -8.94961
681 1 12.5795 18.8695 18.8693 -8.9496
680 1 11.007 20.4417 20.4415 -8.94961
679 1 9.43441 18.8695 18.8693 -8.9496
678 1 7.86197 20.4417 20.4415 -8.94961
677 1 6.28937 18.8695 18.8693 -8.94963
676 1 4.71704 20.4417 20.4415 -8.94962
526 1 1.57226 17.2968 11.0069 -8.94959
389 1 15.7245 18.8695 22.0137 -8.94963
528 1 7.86096 17.2988 11.0078 -8.94919
529 1 11.007 17.2994 11.0086 -8.94616
530 1 14.1529 17.2988 11.0078 -8.94919
383 1 6.28937 18.8695 22.0137 -8.94963
532 1 20.4416 17.2968 11.0069 -8.94959
675 1 3.1445 18.8694 18.8692 -8.94946
377 1 18.8695 15.7245 22.0137 -8.94959
535 1 7.86158 20.4421 11.0072 -8.94982
536 1 11.007 20.4424 11.0074 -8.94965
537 1 14.1523 20.4421 11.0072 -8.94982
373 1 12.5797 15.725 22.0133 -8.9495
674 1 1.57228 20.4416 20.4415 -8.94949
540 1 1.57201 11.007 14.152 -8.94971
541 1 4.71584 11.007 14.153 -8.94895
542 1 7.86006 11.007 14.1568 -8.95033
543 1 11.007 11.007 14.1705 -8.97884
544 1 14.1538 11.007 14.1568 -8.95033
545 1 17.2981 11.007 14.153 -8.94895
546 1 20.4419 11.007 14.152 -8.94971
547 1 1.16561e-15 12.5794 12.5793 -8.94997
548 1 1.572 14.152 14.152 -8.94988
549 1 3.14402 12.5795 12.5796 -8.95041
550 1 4.71562 14.1527 14.1528 -8.94957
551 1 6.28638 12.5806 12.5822 -8.95069
552 1 7.85832 14.1558 14.1567 -8.94589
553 1 9.42386 12.59 12.5918 -9.02212
554 1 11.007 14.1539 14.156 -8.94949
555 1 12.59 12.59 12.5918 -9.02212
556 1 14.1556 14.1558 14.1567 -8.94589
557 1 15.7275 12.5806 12.5822 -8.95069
558 1 17.2983 14.1527 14.1528 -8.94957
559 1 18.8699 12.5795 12.5796 -8.95041
560 1 20.4419 14.152 14.152 -8.94988
561 1 5.64726e-16 15.7243 12.5793 -8.9497
562 1 1.57218 17.2968 14.1518 -8.94975
563 1 3.14441 15.7244 12.5793 -8.95003
564 1 4.71641 17.2974 14.1523 -8.94935
565 1 6.28812 15.7259 12.5807 -8.94847
566 1 7.8613 17.2982 14.1528 -8.95028
567 1 9.43392 15.7273 12.581 -8.95245
568 1 11.007 17.2981 14.1531 -8.94956
569 1 12.58 15.7273 12.581 -8.95245
570 1 14.1526 17.2982 14.1528 -8.95028
571 1 15.7258 15.7259 12.5807 -8.94847
572 1 17.2975 17.2974 14.1523 -8.94935
573 1 18.8695 15.7244 12.5793 -8.95003
574 1 20.4417 17.2968 14.1518 -8.94975
575 1 -1.66686e-16 18.8692 12.5794 -8.94961
576 1 1.57226 20.4416 14.1519 -8.94963
577 1 3.1445 18.8692 12.5794 -8.94967
578 1 4.71677 20.4418 14.1521 -8.94957
579 1 6.28889 18.8699 12.5799 -8.94953
580 1 7.8617 20.4419 14.1523 -8.9497
581 1 9.43415 18.8704 12.58 -8.94966
582 1 11.007 20.442 14.1523 -8.94966
583 1 12.5798 18.8704 12.58 -8.94966
584 1 14.1522 20.4419 14.1523 -8.9497
585 1 15.725 18.8699 12.5799 -8.94953
586 1 17.2971 20.4418 14.1521 -8.94957
587 1 18.8694 18.8692 12.5794 -8.94967
588 1 20.4416 20.4416 14.1519 -8.94963
589 1 1.57214 11.007 17.2969 -8.9496
590 1 4.7164 11.007 17.2974 -8.94952
591 1 7.86105 11.007 17.2988 -8.94961
592 1 11.007 11.007 17.3012 -8.95386
593 1 14.1528 11.007 17.2988 -8.94961
594 1 17.2975 11.007 17.2974 -8.94952
595 1 20.4418 11.007 17.2969 -8.9496
596 1 -2.80592e-17 12.5795 15.7244 -8.94965
597 1 1.57213 14.152 17.2969 -8.94962
598 1 3.14409 12.5796 15.7247 -8.94957
599 1 4.71636 14.1523 17.2973 -8.94959
600 1 6.28814 12.58 15.7261 -8.94968
601 1 7.86085 14.1531 17.2986 -8.94972
602 1 9.43255 12.5815 15.7297 -8.9494
603 1 11.007 14.1529 17.2986 -8.94938
604 1 12.5813 12.5815 15.7297 -8.9494
605 1 14.1531 14.1531 17.2986 -8.94972
606 1 15.7258 12.58 15.7261 -8.94968
607 1 17.2975 14.1523 17.2973 -8.94959
608 1 18.8698 12.5796 15.7247 -8.94957
609 1 20.4418 14.152 17.2969 -8.94962
610 1 1.82616e-16 15.7244 15.7244 -8.94972
611 1 1.57215 17.2969 17.2968 -8.94958
612 1 3.14408 15.7247 15.7246 -8.94957
613 1 4.71651 17.2973 17.2972 -8.94924
614 1 6.28804 15.7258 15.7259 -8.94843
615 1 7.86165 17.2975 17.2973 -8.94963
616 1 9.43404 15.7257 15.7258 -8.94938
617 1 11.007 17.2975 17.2973 -8.94958
618 1 12.5799 15.7257 15.7258 -8.94938
619 1 14.1522 17.2975 17.2973 -8.94963
620 1 15.7259 15.7258 15.7259 -8.94843
621 1 17.2974 17.2973 17.2972 -8.94924
622 1 18.8698 15.7247 15.7246 -8.94957
623 1 20.4417 17.2969 17.2968 -8.94958
624 1 5.8838e-16 18.8692 15.7243 -8.94967
625 1 1.57226 20.4416 17.2968 -8.94957
626 1 3.14442 18.8694 15.7245 -8.94955
627 1 4.71692 20.4417 17.2969 -8.94963
628 1 6.28912 18.8697 15.7247 -8.94974
629 1 7.86189 20.4418 17.297 -8.94962
630 1 9.43431 18.8698 15.7248 -8.9496
631 1 11.007 20.4418 17.297 -8.94961
632 1 12.5796 18.8698 15.7248 -8.9496
633 1 14.152 20.4418 17.297 -8.94962
634 1 15.7248 18.8697 15.7247 -8.94974
635 1 17.297 20.4417 17.2969 -8.94963
636 1 18.8695 18.8694 15.7245 -8.94955
637 1 20.4416 20.4416 17.2968 -8.94957
638 1 1.5722 11.007 20.4415 -8.94959
639 1 4.71663 11.007 20.4415 -8.94958
640 1 7.86139 11.007 20.4415 -8.94978
641 1 11.007 11.007 20.4415 -8.95096
642 1 14.1525 11.007 20.4415 -8.94978
643 1 17.2973 11.007 20.4415 -8.94958
644 1 20.4417 11.007 20.4415 -8.94959
645 1 1.60616e-16 12.5794 18.8692 -8.9496
646 1 1.5722 14.1519 20.4415 -8.94959
647 1 3.14436 12.5795 18.8693 -8.94957
648 1 4.71664 14.1521 20.4415 -8.94957
649 1 6.28885 12.5797 18.8697 -8.94959
650 1 7.8614 14.1525 20.4415 -8.94987
651 1 9.43395 12.58 18.8705 -8.95023
652 1 11.007 14.1525 20.4415 -8.94969
653 1 12.58 12.58 18.8705 -8.95023
654 1 14.1525 14.1525 20.4415 -8.94987
655 1 15.725 12.5797 18.8697 -8.94959
656 1 17.2973 14.1521 20.4415 -8.94957
657 1 18.8695 12.5795 18.8693 -8.94957
658 1 20.4417 14.1519 20.4415 -8.94959
659 1 -4.46354e-16 15.7244 18.8692 -8.94961
660 1 1.57222 17.2969 20.4415 -8.94959
661 1 3.14438 15.7245 18.8693 -8.94959
662 1 4.71674 17.2971 20.4415 -8.94951
663 1 6.28889 15.725 18.8696 -8.94958
664 1 7.86179 17.2972 20.4415 -8.94956
665 1 9.43424 15.725 18.8696 -8.9495
666 1 11.007 17.2972 20.4415 -8.94958
667 1 12.5797 15.725 18.8696 -8.9495
668 1 14.1521 17.2972 20.4415 -8.94956
669 1 15.725 15.725 18.8696 -8.94958
670 1 17.2972 17.2971 20.4415 -8.94951
671 1 18.8695 15.7245 18.8693 -8.94959
672 1 20.4417 17.2969 20.4415 -8.94959
673 1 -5.70268e-16 18.8692 18.8691 -8.94955
351 1 1.51003e-16 12.5794 22.0138 -8.9496
355 1 6.28885 12.5797 22.0133 -8.94959
361 1 15.725 12.5797 22.0133 -8.94959
367 1 3.14438 15.7245 22.0137 -8.94959
371 1 9.43424 15.725 22.0133 -8.9495
379 1 1.07345e-16 18.8692 22.0138 -8.94955
539 1 20.4416 20.4416 11.007 -8.94961
533 1 1.57226 20.4416 11.007 -8.94961
