ITEM: TIMESTEP
39
ITEM: NUMBER OF ATOMS
688
ITEM: BOX BOUNDS pp pp pp
0.0000000000000000e+00 2.2013900999999997e+01
0.0000000000000000e+00 2.2013900999999997e+01
0.0000000000000000e+00 2.2013900999999997e+01
ITEM: ATOMS id type x y z c_pot
1 1 8.66598e-16 1.84098e-15 2.04893e-10 -8.94963
2 1 1.57242 1.57242 1.57242 -8.94963
196 1 20.4415 7.86211 11.0069 -8.94963
4 1 4.71726 1.57242 1.57242 -8.94963
5 1 6.28969 6.56014e-16 -3.95108e-09 -8.94963
6 1 7.86211 1.57242 1.57242 -8.94963
175 1 18.869 9.43452 9.43453 -8.94932
8 1 11.007 1.57242 1.57242 -8.94963
174 1 15.7235 9.43563 9.43453 -9.00009
10 1 14.1518 1.57242 1.57242 -8.94963
11 1 15.7242 6.45619e-16 -3.95108e-09 -8.94963
12 1 17.2966 1.57242 1.57242 -8.94963
195 1 17.2966 7.86219 11.0069 -8.95024
14 1 20.4415 1.57242 1.57242 -8.94963
194 1 14.153 7.86161 11.0087 -8.98282
16 1 1.57242 4.71726 1.57242 -8.94963
17 1 3.14484 3.14484 2.38145e-08 -8.94963
18 1 4.71726 4.71726 1.57242 -8.94963
173 1 12.6019 9.39499 9.43453 -9.2521
20 1 7.86211 4.71726 1.57242 -8.94964
21 1 9.43453 3.14484 -7.06723e-08 -8.94963
22 1 11.007 4.71726 1.57242 -8.94963
23 1 12.5794 3.14484 -7.06723e-08 -8.94963
24 1 14.1518 4.71726 1.57242 -8.94964
172 1 9.41202 9.39499 9.43453 -9.2521
26 1 17.2966 4.71726 1.57242 -8.94963
27 1 18.8691 3.14484 2.38145e-08 -8.94963
28 1 20.4415 4.71726 1.57242 -8.94963
29 1 -1.05202e-16 6.28969 3.30109e-09 -8.94963
30 1 1.57242 7.86211 1.57242 -8.94963
171 1 6.29044 9.43563 9.43453 -9.00009
32 1 4.71726 7.86211 1.57242 -8.94964
33 1 6.28969 6.28969 -2.62502e-07 -8.94963
34 1 7.8621 7.8621 1.57241 -8.94957
170 1 3.1449 9.43452 9.43453 -8.94932
36 1 11.007 7.86212 1.57244 -8.94964
169 1 3.45034e-16 9.43453 9.43453 -8.94959
38 1 14.1518 7.8621 1.57241 -8.94957
39 1 15.7242 6.28969 -2.62502e-07 -8.94963
40 1 17.2966 7.86211 1.57242 -8.94964
168 1 18.8691 6.28968 9.43453 -8.94957
42 1 20.4415 7.86211 1.57242 -8.94963
167 1 15.724 6.28993 9.43453 -8.95036
44 1 3.14484 9.43453 3.17906e-08 -8.94963
166 1 12.5793 6.28636 9.43453 -8.96048
46 1 9.43452 9.43452 -1.16499e-05 -8.94962
47 1 12.5794 9.43452 -1.16499e-05 -8.94962
165 1 9.43457 6.28636 9.43453 -8.96048
49 1 18.8691 9.43453 3.17906e-08 -8.94963
50 1 3.1692e-16 9.50854e-16 3.14484 -8.94963
51 1 1.57242 1.57242 4.71726 -8.94963
52 1 3.14484 2.27039e-15 3.14484 -8.94963
53 1 4.71726 1.57242 4.71726 -8.94963
54 1 6.28969 9.8991e-16 3.14484 -8.94963
55 1 7.86211 1.57242 4.71726 -8.94963
56 1 9.43453 8.02577e-16 3.14484 -8.94963
57 1 11.007 1.57242 4.71727 -8.94964
58 1 12.5794 8.16451e-16 3.14484 -8.94963
59 1 14.1518 1.57242 4.71726 -8.94963
60 1 15.7242 1.31635e-15 3.14484 -8.94963
61 1 17.2966 1.57242 4.71726 -8.94963
62 1 18.8691 2.36123e-15 3.14484 -8.94963
63 1 20.4415 1.57242 4.71726 -8.94963
64 1 4.50835e-16 3.14484 3.14484 -8.94963
65 1 1.57242 4.71727 4.71726 -8.94964
66 1 3.14484 3.14484 3.14484 -8.94963
67 1 4.71726 4.71726 4.71726 -8.94961
68 1 6.28969 3.14484 3.14484 -8.94964
69 1 7.86211 4.71727 4.71727 -8.94972
70 1 9.43453 3.14484 3.14484 -8.94963
71 1 11.007 4.71727 4.71726 -8.94965
72 1 12.5794 3.14484 3.14484 -8.94963
73 1 14.1518 4.71727 4.71727 -8.94972
74 1 15.7242 3.14484 3.14484 -8.94964
75 1 17.2966 4.71726 4.71726 -8.94961
76 1 18.8691 3.14484 3.14484 -8.94963
77 1 20.4415 4.71727 4.71726 -8.94964
78 1 5.01509e-16 6.28969 3.14484 -8.94963
79 1 1.57242 7.86211 4.71726 -8.94963
80 1 3.14484 6.28969 3.14484 -8.94962
81 1 4.71725 7.86209 4.71725 -8.94954
82 1 6.28969 6.28969 3.14484 -8.94961
83 1 7.86206 7.86206 4.71714 -8.94945
84 1 9.43454 6.28969 3.14486 -8.94972
85 1 11.007 7.86228 4.71741 -8.95106
86 1 12.5794 6.28969 3.14486 -8.94972
87 1 14.1518 7.86206 4.71714 -8.94945
88 1 15.7242 6.28969 3.14484 -8.94961
89 1 17.2967 7.86209 4.71725 -8.94954
90 1 18.8691 6.28969 3.14484 -8.94962
91 1 20.4415 7.86211 4.71726 -8.94963
92 1 1.03178e-15 9.43453 3.14484 -8.94963
93 1 3.14484 9.43453 3.14484 -8.94965
94 1 6.28968 9.43453 3.14483 -8.94979
95 1 9.43433 9.43432 3.14467 -8.94843
96 1 12.5796 9.43432 3.14467 -8.94843
97 1 15.7242 9.43453 3.14483 -8.94979
98 1 18.8691 9.43453 3.14484 -8.94965
99 1 -1.29066e-16 1.73982e-15 6.28969 -8.94963
100 1 1.57242 1.57242 7.86211 -8.94963
101 1 3.14484 1.4697e-15 6.28969 -8.94963
102 1 4.71727 1.57242 7.86211 -8.94963
103 1 6.28969 1.33172e-15 6.28969 -8.94963
104 1 7.8621 1.57242 7.8621 -8.94964
105 1 9.43453 6.71351e-16 6.28969 -8.94963
106 1 11.007 1.57241 7.8621 -8.94961
107 1 12.5794 3.76622e-16 6.28969 -8.94963
108 1 14.1518 1.57242 7.8621 -8.94964
109 1 15.7242 1.49365e-15 6.28969 -8.94963
110 1 17.2966 1.57242 7.86211 -8.94963
111 1 18.8691 1.63023e-15 6.28969 -8.94963
112 1 20.4415 1.57242 7.86211 -8.94963
113 1 9.87095e-16 3.14484 6.28969 -8.94963
114 1 1.57242 4.71726 7.86211 -8.94963
115 1 3.14484 3.14484 6.28969 -8.94964
116 1 4.71727 4.71728 7.86212 -8.94972
117 1 6.28968 3.14484 6.28968 -8.9496
118 1 7.862 4.71717 7.86201 -8.94921
119 1 9.43452 3.14485 6.28969 -8.94961
120 1 11.007 4.71713 7.86191 -8.94818
121 1 12.5794 3.14485 6.28969 -8.94961
122 1 14.1519 4.71717 7.86201 -8.94921
123 1 15.7242 3.14484 6.28968 -8.9496
124 1 17.2966 4.71728 7.86212 -8.94972
125 1 18.8691 3.14484 6.28969 -8.94964
126 1 20.4415 4.71726 7.86211 -8.94963
127 1 2.74505e-16 6.28969 6.28969 -8.94963
128 1 1.57243 7.86211 7.86211 -8.94963
129 1 3.14485 6.28969 6.28969 -8.94968
130 1 4.7173 7.86219 7.86218 -8.95024
131 1 6.28964 6.28963 6.28963 -8.94917
132 1 7.86095 7.86161 7.86039 -8.98282
133 1 9.43458 6.2897 6.2898 -8.95071
134 1 11.007 7.86299 7.86185 -9.05759
135 1 12.5793 6.2897 6.2898 -8.95071
136 1 14.153 7.86161 7.86039 -8.98282
137 1 15.7243 6.28963 6.28963 -8.94917
138 1 17.2966 7.86219 7.86218 -8.95024
139 1 18.8691 6.28969 6.28969 -8.94968
140 1 20.4415 7.86211 7.86211 -8.94963
141 1 1.72688e-16 9.43453 6.28969 -8.94965
142 1 3.14482 9.43452 6.28967 -8.94968
143 1 6.28935 9.43437 6.28943 -8.94921
144 1 9.43258 9.43262 6.28951 -9.03621
145 1 12.5813 9.43262 6.28951 -9.03621
146 1 15.7245 9.43437 6.28943 -8.94921
147 1 18.8691 9.43452 6.28967 -8.94968
148 1 4.21846e-16 1.87844e-15 9.43453 -8.94963
149 1 3.14484 1.45857e-15 9.43453 -8.94963
150 1 6.28969 1.24217e-15 9.43453 -8.94962
151 1 9.43453 8.84353e-16 9.43453 -8.94972
152 1 12.5794 7.02731e-16 9.43453 -8.94972
153 1 15.7242 1.21619e-15 9.43453 -8.94962
154 1 18.8691 1.53659e-15 9.43453 -8.94963
155 1 1.62926e-16 3.14484 9.43453 -8.94963
156 1 3.14484 3.14484 9.43453 -8.94963
157 1 6.28969 3.14486 9.43453 -8.94958
158 1 9.43454 3.14468 9.43453 -8.95061
159 1 12.5794 3.14468 9.43453 -8.95061
160 1 15.7242 3.14486 9.43453 -8.94958
161 1 18.8691 3.14484 9.43453 -8.94963
162 1 7.24604e-16 6.28969 9.43453 -8.94963
163 1 3.14485 6.28968 9.43453 -8.94957
164 1 6.28988 6.28993 9.43453 -8.95036
193 1 11.007 7.86299 11.0072 -9.05759
192 1 7.86095 7.86161 11.0087 -8.98282
190 1 1.57243 7.86211 11.0069 -8.94963
191 1 4.7173 7.86219 11.0069 -8.95024
177 1 4.71727 1.57242 11.0069 -8.94963
181 1 17.2966 1.57242 11.0069 -8.94963
184 1 4.71727 4.71728 11.0069 -8.94972
188 1 17.2966 4.71728 11.0069 -8.94972
7 1 9.43453 8.89291e-16 2.54295e-09 -8.94963
9 1 12.5794 9.87477e-16 2.54295e-09 -8.94963
343 1 18.8691 9.43453 18.8691 -8.94963
48 1 15.7242 9.43453 22.0139 -8.94964
178 1 7.8621 1.57242 11.007 -8.94964
179 1 11.007 1.57241 11.007 -8.94961
180 1 14.1518 1.57242 11.007 -8.94964
45 1 6.28969 9.43453 22.0139 -8.94964
342 1 15.7242 9.43453 18.8691 -8.94964
183 1 1.57242 4.71726 11.007 -8.94963
43 1 1.51753e-15 9.43453 22.0139 -8.94963
185 1 7.862 4.71717 11.0071 -8.94921
186 1 11.007 4.71713 11.0071 -8.94818
187 1 14.1519 4.71717 11.0071 -8.94921
41 1 18.8691 6.28969 22.0139 -8.94963
189 1 20.4415 4.71726 11.007 -8.94963
341 1 12.5794 9.43452 18.8691 -8.94962
340 1 9.43452 9.43452 18.8691 -8.94962
339 1 6.28969 9.43453 18.8691 -8.94964
338 1 3.14484 9.43453 18.8691 -8.94963
337 1 1.50401e-15 9.43453 18.8691 -8.94963
336 1 20.4415 7.86211 20.4415 -8.94963
335 1 18.8691 6.28969 18.8691 -8.94963
197 1 -1.17449e-16 2.01472e-15 12.5794 -8.94963
198 1 1.57242 1.57242 14.1518 -8.94963
199 1 3.14484 1.622e-15 12.5794 -8.94963
200 1 4.71726 1.57242 14.1518 -8.94963
201 1 6.28969 1.69394e-15 12.5794 -8.94963
202 1 7.86211 1.57242 14.1518 -8.94963
203 1 9.43453 7.3938e-16 12.5794 -8.94963
204 1 11.007 1.57242 14.1518 -8.94964
205 1 12.5794 7.31134e-16 12.5794 -8.94963
206 1 14.1518 1.57242 14.1518 -8.94963
207 1 15.7242 1.60492e-15 12.5794 -8.94963
208 1 17.2966 1.57242 14.1518 -8.94963
209 1 18.8691 1.65949e-15 12.5794 -8.94963
210 1 20.4415 1.57242 14.1518 -8.94963
211 1 9.93358e-16 3.14484 12.5794 -8.94963
212 1 1.57242 4.71727 14.1518 -8.94964
213 1 3.14484 3.14484 12.5794 -8.94964
214 1 4.71726 4.71726 14.1518 -8.94961
215 1 6.28968 3.14484 12.5794 -8.9496
216 1 7.86211 4.71727 14.1518 -8.94972
217 1 9.43452 3.14485 12.5794 -8.94961
218 1 11.007 4.71727 14.1518 -8.94965
219 1 12.5794 3.14485 12.5794 -8.94961
220 1 14.1518 4.71727 14.1518 -8.94972
221 1 15.7242 3.14484 12.5794 -8.9496
222 1 17.2966 4.71726 14.1518 -8.94961
223 1 18.8691 3.14484 12.5794 -8.94964
224 1 20.4415 4.71727 14.1518 -8.94964
225 1 7.29267e-16 6.28969 12.5794 -8.94963
226 1 1.57242 7.86211 14.1518 -8.94963
227 1 3.14485 6.28969 12.5794 -8.94968
228 1 4.71725 7.86209 14.1518 -8.94954
229 1 6.28964 6.28963 12.5794 -8.94917
230 1 7.86206 7.86206 14.1519 -8.94945
231 1 9.43458 6.2897 12.5793 -8.95071
232 1 11.007 7.86228 14.1516 -8.95106
233 1 12.5793 6.2897 12.5793 -8.95071
234 1 14.1518 7.86206 14.1519 -8.94945
235 1 15.7243 6.28963 12.5794 -8.94917
236 1 17.2967 7.86209 14.1518 -8.94954
237 1 18.8691 6.28969 12.5794 -8.94968
238 1 20.4415 7.86211 14.1518 -8.94963
239 1 2.22031e-16 9.43453 12.5794 -8.94965
240 1 3.14482 9.43452 12.5794 -8.94968
241 1 6.28935 9.43437 12.5796 -8.94921
242 1 9.43258 9.43262 12.5795 -9.03621
243 1 12.5813 9.43262 12.5795 -9.03621
244 1 15.7245 9.43437 12.5796 -8.94921
245 1 18.8691 9.43452 12.5794 -8.94968
246 1 3.19982e-16 9.1577e-16 15.7242 -8.94963
247 1 1.57242 1.57242 17.2966 -8.94963
248 1 3.14484 2.081e-15 15.7242 -8.94963
249 1 4.71726 1.57242 17.2966 -8.94963
250 1 6.28969 1.14624e-15 15.7242 -8.94963
251 1 7.86211 1.57242 17.2966 -8.94963
252 1 9.43453 5.272e-16 15.7242 -8.94963
253 1 11.007 1.57242 17.2966 -8.94963
254 1 12.5794 5.89171e-16 15.7242 -8.94963
255 1 14.1518 1.57242 17.2966 -8.94963
256 1 15.7242 1.26028e-15 15.7242 -8.94963
257 1 17.2966 1.57242 17.2966 -8.94963
258 1 18.8691 2.23675e-15 15.7242 -8.94963
259 1 20.4415 1.57242 17.2966 -8.94963
260 1 6.64912e-16 3.14484 15.7242 -8.94963
261 1 1.57242 4.71726 17.2966 -8.94963
262 1 3.14484 3.14484 15.7242 -8.94963
263 1 4.71726 4.71726 17.2966 -8.94963
264 1 6.28969 3.14484 15.7242 -8.94964
265 1 7.86211 4.71726 17.2966 -8.94964
266 1 9.43453 3.14484 15.7242 -8.94963
267 1 11.007 4.71726 17.2966 -8.94963
268 1 12.5794 3.14484 15.7242 -8.94963
269 1 14.1518 4.71726 17.2966 -8.94964
270 1 15.7242 3.14484 15.7242 -8.94964
271 1 17.2966 4.71726 17.2966 -8.94963
272 1 18.8691 3.14484 15.7242 -8.94963
273 1 20.4415 4.71726 17.2966 -8.94963
274 1 5.20591e-16 6.28969 15.7242 -8.94963
275 1 1.57242 7.86211 17.2966 -8.94963
276 1 3.14484 6.28969 15.7242 -8.94962
277 1 4.71726 7.86211 17.2966 -8.94964
278 1 6.28969 6.28969 15.7242 -8.94961
279 1 7.8621 7.8621 17.2966 -8.94957
280 1 9.43454 6.28969 15.7242 -8.94972
281 1 11.007 7.86212 17.2966 -8.94964
282 1 12.5794 6.28969 15.7242 -8.94972
283 1 14.1518 7.8621 17.2966 -8.94957
284 1 15.7242 6.28969 15.7242 -8.94961
285 1 17.2966 7.86211 17.2966 -8.94964
286 1 18.8691 6.28969 15.7242 -8.94962
287 1 20.4415 7.86211 17.2966 -8.94963
288 1 1.18075e-15 9.43453 15.7242 -8.94963
289 1 3.14484 9.43453 15.7242 -8.94965
290 1 6.28968 9.43453 15.7242 -8.94979
291 1 9.43433 9.43432 15.7244 -8.94843
292 1 12.5796 9.43432 15.7244 -8.94843
293 1 15.7242 9.43453 15.7242 -8.94979
294 1 18.8691 9.43453 15.7242 -8.94965
295 1 8.41532e-16 1.85735e-15 18.8691 -8.94963
296 1 1.57242 1.57242 20.4415 -8.94963
297 1 3.14484 1.48544e-15 18.8691 -8.94963
298 1 4.71726 1.57242 20.4415 -8.94963
299 1 6.28969 6.90731e-16 18.8691 -8.94963
300 1 7.86211 1.57242 20.4415 -8.94963
301 1 9.43453 8.18144e-16 18.8691 -8.94963
302 1 11.007 1.57242 20.4415 -8.94963
303 1 12.5794 8.39894e-16 18.8691 -8.94963
304 1 14.1518 1.57242 20.4415 -8.94963
305 1 15.7242 5.7308e-16 18.8691 -8.94963
306 1 17.2966 1.57242 20.4415 -8.94963
307 1 18.8691 1.48513e-15 18.8691 -8.94963
308 1 20.4415 1.57242 20.4415 -8.94963
309 1 -2.83427e-17 3.14484 18.8691 -8.94963
310 1 1.57242 4.71726 20.4415 -8.94963
311 1 3.14484 3.14484 18.8691 -8.94963
312 1 4.71726 4.71726 20.4415 -8.94963
313 1 6.28969 3.14484 18.8691 -8.94963
314 1 7.86211 4.71726 20.4415 -8.94963
315 1 9.43453 3.14484 18.8691 -8.94963
316 1 11.007 4.71726 20.4415 -8.94963
317 1 12.5794 3.14484 18.8691 -8.94963
318 1 14.1518 4.71726 20.4415 -8.94963
319 1 15.7242 3.14484 18.8691 -8.94963
320 1 17.2966 4.71726 20.4415 -8.94963
321 1 18.8691 3.14484 18.8691 -8.94963
322 1 20.4415 4.71726 20.4415 -8.94963
323 1 -8.37987e-17 6.28969 18.8691 -8.94963
324 1 1.57242 7.86211 20.4415 -8.94963
325 1 3.14484 6.28969 18.8691 -8.94963
326 1 4.71726 7.86211 20.4415 -8.94963
327 1 6.28969 6.28969 18.8691 -8.94963
328 1 7.86211 7.86211 20.4415 -8.94963
329 1 9.43453 6.28969 18.8691 -8.94964
330 1 11.007 7.86211 20.4415 -8.94962
331 1 12.5794 6.28969 18.8691 -8.94964
332 1 14.1518 7.86211 20.4415 -8.94963
333 1 15.7242 6.28969 18.8691 -8.94963
334 1 17.2966 7.86211 20.4415 -8.94963
37 1 12.5794 6.28969 22.0139 -8.94964
35 1 9.43453 6.28969 22.0139 -8.94964
19 1 6.28969 3.14484 22.0139 -8.94963
25 1 15.7242 3.14484 22.0139 -8.94963
31 1 3.14484 6.28969 22.0139 -8.94963
3 1 3.14484 1.33495e-15 22.0139 -8.94963
13 1 18.8691 1.37997e-15 22.0139 -8.94963
15 1 -1.61316e-16 3.14484 22.0139 -8.94963
176 1 1.57242 1.57242 11.007 -8.94963
182 1 20.4415 1.57242 11.007 -8.94963
344 1 1.57242 11.007 1.57242 -8.94963
345 1 4.71726 11.007 1.57242 -8.94962
346 1 7.86212 11.007 1.57243 -8.94968
347 1 11.007 11.007 1.57208 -8.95155
348 1 14.1518 11.007 1.57243 -8.94968
349 1 17.2966 11.007 1.57242 -8.94962
350 1 20.4415 11.007 1.57242 -8.94963
688 2 10.2352 11.007 9.43453 0.70074
352 1 1.57242 14.1518 1.57242 -8.94963
353 1 3.14484 12.5794 3.17906e-08 -8.94963
354 1 4.71726 14.1518 1.57242 -8.94964
687 2 11.7787 11.007 9.43453 0.70074
356 1 7.8621 14.1518 1.57241 -8.94957
357 1 9.43452 12.5794 -1.16499e-05 -8.94962
358 1 11.007 14.1518 1.57244 -8.94964
359 1 12.5794 12.5794 -1.16499e-05 -8.94962
360 1 14.1518 14.1518 1.57241 -8.94957
511 1 18.8691 18.8691 9.43453 -8.94963
362 1 17.2966 14.1518 1.57242 -8.94964
363 1 18.8691 12.5794 3.17906e-08 -8.94963
364 1 20.4415 14.1518 1.57242 -8.94963
365 1 -2.64603e-17 15.7242 3.30109e-09 -8.94963
366 1 1.57242 17.2966 1.57242 -8.94963
510 1 15.7242 18.869 9.43453 -8.94958
368 1 4.71726 17.2966 1.57242 -8.94963
369 1 6.28969 15.7242 -2.62502e-07 -8.94963
370 1 7.86211 17.2966 1.57242 -8.94964
509 1 12.5794 18.8692 9.43453 -8.95061
372 1 11.007 17.2966 1.57242 -8.94963
508 1 9.43454 18.8692 9.43453 -8.95061
374 1 14.1518 17.2966 1.57242 -8.94964
375 1 15.7242 15.7242 -2.62502e-07 -8.94963
376 1 17.2966 17.2966 1.57242 -8.94963
507 1 6.28969 18.869 9.43453 -8.94958
378 1 20.4415 17.2966 1.57242 -8.94963
525 1 20.4415 14.1518 11.0069 -8.94963
380 1 1.57242 20.4415 1.57242 -8.94963
381 1 3.14484 18.8691 2.38145e-08 -8.94963
382 1 4.71726 20.4415 1.57242 -8.94963
506 1 3.14484 18.8691 9.43453 -8.94963
384 1 7.86211 20.4415 1.57242 -8.94963
385 1 9.43453 18.8691 -7.06723e-08 -8.94963
386 1 11.007 20.4415 1.57242 -8.94963
387 1 12.5794 18.8691 -7.06723e-08 -8.94963
388 1 14.1518 20.4415 1.57242 -8.94963
505 1 4.23522e-16 18.8691 9.43453 -8.94963
390 1 17.2966 20.4415 1.57242 -8.94963
391 1 18.8691 18.8691 2.38145e-08 -8.94963
392 1 20.4415 20.4415 1.57242 -8.94963
393 1 1.57242 11.007 4.71726 -8.94962
394 1 4.71727 11.007 4.71727 -8.94954
395 1 7.86226 11.007 4.71724 -8.95169
396 1 11.007 11.007 4.71047 -8.96793
397 1 14.1516 11.007 4.71724 -8.95169
398 1 17.2966 11.007 4.71727 -8.94954
399 1 20.4415 11.007 4.71726 -8.94962
400 1 1.14911e-15 12.5794 3.14484 -8.94963
401 1 1.57242 14.1518 4.71726 -8.94963
402 1 3.14484 12.5794 3.14484 -8.94965
403 1 4.71725 14.1518 4.71725 -8.94954
404 1 6.28968 12.5794 3.14483 -8.94979
405 1 7.86206 14.1518 4.71714 -8.94945
406 1 9.43433 12.5796 3.14467 -8.94843
407 1 11.007 14.1516 4.71741 -8.95106
408 1 12.5796 12.5796 3.14467 -8.94843
409 1 14.1518 14.1518 4.71714 -8.94945
410 1 15.7242 12.5794 3.14483 -8.94979
411 1 17.2967 14.1518 4.71725 -8.94954
412 1 18.8691 12.5794 3.14484 -8.94965
413 1 20.4415 14.1518 4.71726 -8.94963
414 1 4.94436e-16 15.7242 3.14484 -8.94963
415 1 1.57242 17.2966 4.71726 -8.94964
416 1 3.14484 15.7242 3.14484 -8.94962
417 1 4.71726 17.2966 4.71726 -8.94961
418 1 6.28969 15.7242 3.14484 -8.94961
419 1 7.86211 17.2966 4.71727 -8.94972
420 1 9.43454 15.7242 3.14486 -8.94972
421 1 11.007 17.2966 4.71726 -8.94965
422 1 12.5794 15.7242 3.14486 -8.94972
423 1 14.1518 17.2966 4.71727 -8.94972
424 1 15.7242 15.7242 3.14484 -8.94961
425 1 17.2966 17.2966 4.71726 -8.94961
426 1 18.8691 15.7242 3.14484 -8.94962
427 1 20.4415 17.2966 4.71726 -8.94964
428 1 3.59628e-16 18.8691 3.14484 -8.94963
429 1 1.57242 20.4415 4.71726 -8.94963
430 1 3.14484 18.8691 3.14484 -8.94963
431 1 4.71726 20.4415 4.71726 -8.94963
432 1 6.28969 18.8691 3.14484 -8.94964
433 1 7.86211 20.4415 4.71726 -8.94963
434 1 9.43453 18.8691 3.14484 -8.94963
435 1 11.007 20.4415 4.71727 -8.94964
436 1 12.5794 18.8691 3.14484 -8.94963
437 1 14.1518 20.4415 4.71726 -8.94963
438 1 15.7242 18.8691 3.14484 -8.94964
439 1 17.2966 20.4415 4.71726 -8.94963
440 1 18.8691 18.8691 3.14484 -8.94963
441 1 20.4415 20.4415 4.71726 -8.94963
442 1 1.57241 11.007 7.86211 -8.94973
443 1 4.71701 11.007 7.86209 -8.95047
444 1 7.85881 11.007 7.85966 -9.03597
445 1 11.007 11.007 7.78195 -9.40399
446 1 14.1551 11.007 7.85966 -9.03597
447 1 17.2969 11.007 7.86209 -8.95047
448 1 20.4415 11.007 7.86211 -8.94973
449 1 2.16324e-16 12.5794 6.28969 -8.94965
450 1 1.57243 14.1518 7.86211 -8.94963
451 1 3.14482 12.5794 6.28967 -8.94968
452 1 4.7173 14.1517 7.86218 -8.95024
453 1 6.28935 12.5795 6.28943 -8.94921
454 1 7.86095 14.1523 7.86039 -8.98282
455 1 9.43258 12.5813 6.28951 -9.03621
456 1 11.007 14.1509 7.86185 -9.05759
457 1 12.5813 12.5813 6.28951 -9.03621
458 1 14.153 14.1523 7.86039 -8.98282
459 1 15.7245 12.5795 6.28943 -8.94921
460 1 17.2966 14.1517 7.86218 -8.95024
461 1 18.8691 12.5794 6.28967 -8.94968
462 1 20.4415 14.1518 7.86211 -8.94963
463 1 3.93653e-16 15.7242 6.28969 -8.94963
464 1 1.57242 17.2966 7.86211 -8.94963
465 1 3.14485 15.7242 6.28969 -8.94968
466 1 4.71727 17.2966 7.86212 -8.94972
467 1 6.28964 15.7243 6.28963 -8.94917
468 1 7.862 17.2967 7.86201 -8.94921
469 1 9.43458 15.7242 6.2898 -8.95071
470 1 11.007 17.2968 7.86191 -8.94818
471 1 12.5793 15.7242 6.2898 -8.95071
472 1 14.1519 17.2967 7.86201 -8.94921
473 1 15.7243 15.7243 6.28963 -8.94917
474 1 17.2966 17.2966 7.86212 -8.94972
475 1 18.8691 15.7242 6.28969 -8.94968
476 1 20.4415 17.2966 7.86211 -8.94963
477 1 9.27542e-16 18.8691 6.28969 -8.94963
478 1 1.57242 20.4415 7.86211 -8.94963
479 1 3.14484 18.8691 6.28969 -8.94964
480 1 4.71727 20.4415 7.86211 -8.94963
481 1 6.28968 18.8691 6.28968 -8.9496
482 1 7.8621 20.4415 7.8621 -8.94964
483 1 9.43452 18.8691 6.28969 -8.94961
484 1 11.007 20.4415 7.8621 -8.94961
485 1 12.5794 18.8691 6.28969 -8.94961
486 1 14.1518 20.4415 7.8621 -8.94964
487 1 15.7242 18.8691 6.28968 -8.9496
488 1 17.2966 20.4415 7.86211 -8.94963
489 1 18.8691 18.8691 6.28969 -8.94964
490 1 20.4415 20.4415 7.86211 -8.94963
491 1 2.38538e-16 12.5794 9.43453 -8.94959
492 1 3.1449 12.5794 9.43453 -8.94932
493 1 6.29044 12.5783 9.43453 -9.00009
494 1 9.41202 12.6189 9.43453 -9.2521
495 1 12.6019 12.6189 9.43453 -9.2521
496 1 15.7235 12.5783 9.43453 -9.00009
497 1 18.869 12.5794 9.43453 -8.94932
498 1 6.69474e-16 15.7242 9.43453 -8.94963
499 1 3.14485 15.7242 9.43453 -8.94957
500 1 6.28988 15.724 9.43453 -8.95036
501 1 9.43457 15.7275 9.43453 -8.96048
502 1 12.5793 15.7275 9.43453 -8.96048
503 1 15.724 15.724 9.43453 -8.95036
504 1 18.8691 15.7242 9.43453 -8.94957
512 1 1.57241 11.007 11.0069 -8.94973
513 1 4.71701 11.007 11.007 -8.95047
517 1 17.2969 11.007 11.007 -8.95047
518 1 20.4415 11.007 11.0069 -8.94973
519 1 1.57243 14.1518 11.0069 -8.94963
520 1 4.7173 14.1517 11.0069 -8.95024
521 1 7.86095 14.1523 11.0087 -8.98282
522 1 11.007 14.1509 11.0072 -9.05759
523 1 14.153 14.1523 11.0087 -8.98282
524 1 17.2966 14.1517 11.0069 -8.95024
527 1 4.71727 17.2966 11.0069 -8.94972
531 1 17.2966 17.2966 11.0069 -8.94972
534 1 4.71727 20.4415 11.0069 -8.94963
538 1 17.2966 20.4415 11.0069 -8.94963
686 1 20.4415 20.4415 20.4415 -8.94963
685 1 18.8691 18.8691 18.8691 -8.94963
514 1 7.85881 11.007 11.0094 -9.03597
515 1 11.007 11.007 11.0871 -9.40399
516 1 14.1551 11.007 11.0094 -9.03597
684 1 17.2966 20.4415 20.4415 -8.94963
683 1 15.7242 18.8691 18.8691 -8.94963
682 1 14.1518 20.4415 20.4415 -8.94963
681 1 12.5794 18.8691 18.8691 -8.94963
680 1 11.007 20.4415 20.4415 -8.94963
679 1 9.43453 18.8691 18.8691 -8.94963
678 1 7.86211 20.4415 20.4415 -8.94963
677 1 6.28969 18.8691 18.8691 -8.94963
676 1 4.71726 20.4415 20.4415 -8.94963
526 1 1.57242 17.2966 11.007 -8.94963
389 1 15.7242 18.8691 22.0139 -8.94963
528 1 7.862 17.2967 11.0071 -8.94921
529 1 11.007 17.2968 11.0071 -8.94818
530 1 14.1519 17.2967 11.0071 -8.94921
383 1 6.28969 18.8691 22.0139 -8.94963
532 1 20.4415 17.2966 11.007 -8.94963
675 1 3.14484 18.8691 18.8691 -8.94963
377 1 18.8691 15.7242 22.0139 -8.94963
535 1 7.8621 20.4415 11.007 -8.94964
536 1 11.007 20.4415 11.007 -8.94961
537 1 14.1518 20.4415 11.007 -8.94964
373 1 12.5794 15.7242 22.0139 -8.94964
674 1 1.57242 20.4415 20.4415 -8.94963
540 1 1.57242 11.007 14.1518 -8.94962
541 1 4.71727 11.007 14.1518 -8.94954
542 1 7.86226 11.007 14.1518 -8.95169
543 1 11.007 11.007 14.1586 -8.96793
544 1 14.1516 11.007 14.1518 -8.95169
545 1 17.2966 11.007 14.1518 -8.94954
546 1 20.4415 11.007 14.1518 -8.94962
547 1 3.12204e-16 12.5794 12.5794 -8.94965
548 1 1.57242 14.1518 14.1518 -8.94963
549 1 3.14482 12.5794 12.5794 -8.94968
550 1 4.71725 14.1518 14.1518 -8.94954
551 1 6.28935 12.5795 12.5796 -8.94921
552 1 7.86206 14.1518 14.1519 -8.94945
553 1 9.43258 12.5813 12.5795 -9.03621
554 1 11.007 14.1516 14.1516 -8.95106
555 1 12.5813 12.5813 12.5795 -9.03621
556 1 14.1518 14.1518 14.1519 -8.94945
557 1 15.7245 12.5795 12.5796 -8.94921
558 1 17.2967 14.1518 14.1518 -8.94954
559 1 18.8691 12.5794 12.5794 -8.94968
560 1 20.4415 14.1518 14.1518 -8.94963
561 1 4.6751e-16 15.7242 12.5794 -8.94963
562 1 1.57242 17.2966 14.1518 -8.94964
563 1 3.14485 15.7242 12.5794 -8.94968
564 1 4.71726 17.2966 14.1518 -8.94961
565 1 6.28964 15.7243 12.5794 -8.94917
566 1 7.86211 17.2966 14.1518 -8.94972
567 1 9.43458 15.7242 12.5793 -8.95071
568 1 11.007 17.2966 14.1518 -8.94965
569 1 12.5793 15.7242 12.5793 -8.95071
570 1 14.1518 17.2966 14.1518 -8.94972
571 1 15.7243 15.7243 12.5794 -8.94917
572 1 17.2966 17.2966 14.1518 -8.94961
573 1 18.8691 15.7242 12.5794 -8.94968
574 1 20.4415 17.2966 14.1518 -8.94964
575 1 9.31353e-16 18.8691 12.5794 -8.94963
576 1 1.57242 20.4415 14.1518 -8.94963
577 1 3.14484 18.8691 12.5794 -8.94964
578 1 4.71726 20.4415 14.1518 -8.94963
579 1 6.28968 18.8691 12.5794 -8.9496
580 1 7.86211 20.4415 14.1518 -8.94963
581 1 9.43452 18.8691 12.5794 -8.94961
582 1 11.007 20.4415 14.1518 -8.94964
583 1 12.5794 18.8691 12.5794 -8.94961
584 1 14.1518 20.4415 14.1518 -8.94963
585 1 15.7242 18.8691 12.5794 -8.9496
586 1 17.2966 20.4415 14.1518 -8.94963
587 1 18.8691 18.8691 12.5794 -8.94964
588 1 20.4415 20.4415 14.1518 -8.94963
589 1 1.57242 11.007 17.2966 -8.94963
590 1 4.71726 11.007 17.2966 -8.94962
591 1 7.86212 11.007 17.2966 -8.94968
592 1 11.007 11.007 17.297 -8.95155
593 1 14.1518 11.007 17.2966 -8.94968
594 1 17.2966 11.007 17.2966 -8.94962
595 1 20.4415 11.007 17.2966 -8.94963
596 1 1.18009e-15 12.5794 15.7242 -8.94963
597 1 1.57242 14.1518 17.2966 -8.94963
598 1 3.14484 12.5794 15.7242 -8.94965
599 1 4.71726 14.1518 17.2966 -8.94964
600 1 6.28968 12.5794 15.7242 -8.94979
601 1 7.8621 14.1518 17.2966 -8.94957
602 1 9.43433 12.5796 15.7244 -8.94843
603 1 11.007 14.1518 17.2966 -8.94964
604 1 12.5796 12.5796 15.7244 -8.94843
605 1 14.1518 14.1518 17.2966 -8.94957
606 1 15.7242 12.5794 15.7242 -8.94979
607 1 17.2966 14.1518 17.2966 -8.94964
608 1 18.8691 12.5794 15.7242 -8.94965
609 1 20.4415 14.1518 17.2966 -8.94963
610 1 3.50108e-16 15.7242 15.7242 -8.94963
611 1 1.57242 17.2966 17.2966 -8.94963
612 1 3.14484 15.7242 15.7242 -8.94962
613 1 4.71726 17.2966 17.2966 -8.94963
614 1 6.28969 15.7242 15.7242 -8.94961
615 1 7.86211 17.2966 17.2966 -8.94964
616 1 9.43454 15.7242 15.7242 -8.94972
617 1 11.007 17.2966 17.2966 -8.94963
618 1 12.5794 15.7242 15.7242 -8.94972
619 1 14.1518 17.2966 17.2966 -8.94964
620 1 15.7242 15.7242 15.7242 -8.94961
621 1 17.2966 17.2966 17.2966 -8.94963
622 1 18.8691 15.7242 15.7242 -8.94962
623 1 20.4415 17.2966 17.2966 -8.94963
624 1 4.07278e-16 18.8691 15.7242 -8.94963
625 1 1.57242 20.4415 17.2966 -8.94963
626 1 3.14484 18.8691 15.7242 -8.94963
627 1 4.71726 20.4415 17.2966 -8.94963
628 1 6.28969 18.8691 15.7242 -8.94964
629 1 7.86211 20.4415 17.2966 -8.94963
630 1 9.43453 18.8691 15.7242 -8.94963
631 1 11.007 20.4415 17.2966 -8.94963
632 1 12.5794 18.8691 15.7242 -8.94963
633 1 14.1518 20.4415 17.2966 -8.94963
634 1 15.7242 18.8691 15.7242 -8.94964
635 1 17.2966 20.4415 17.2966 -8.94963
636 1 18.8691 18.8691 15.7242 -8.94963
637 1 20.4415 20.4415 17.2966 -8.94963
638 1 1.57242 11.007 20.4415 -8.94963
639 1 4.71726 11.007 20.4415 -8.94963
640 1 7.86211 11.007 20.4415 -8.94963
641 1 11.007 11.007 20.4415 -8.94982
642 1 14.1518 11.007 20.4415 -8.94963
643 1 17.2966 11.007 20.4415 -8.94963
644 1 20.4415 11.007 20.4415 -8.94963
645 1 1.49768e-15 12.5794 18.8691 -8.94963
646 1 1.57242 14.1518 20.4415 -8.94963
647 1 3.14484 12.5794 18.8691 -8.94963
648 1 4.71726 14.1518 20.4415 -8.94963
649 1 6.28969 12.5794 18.8691 -8.94964
650 1 7.86211 14.1518 20.4415 -8.94963
651 1 9.43452 12.5794 18.8691 -8.94962
652 1 11.007 14.1518 20.4415 -8.94962
653 1 12.5794 12.5794 18.8691 -8.94962
654 1 14.1518 14.1518 20.4415 -8.94963
655 1 15.7242 12.5794 18.8691 -8.94964
656 1 17.2966 14.1518 20.4415 -8.94963
657 1 18.8691 12.5794 18.8691 -8.94963
658 1 20.4415 14.1518 20.4415 -8.94963
659 1 -6.2195e-17 15.7242 18.8691 -8.94963
660 1 1.57242 17.2966 20.4415 -8.94963
661 1 3.14484 15.7242 18.8691 -8.94963
662 1 4.71726 17.2966 20.4415 -8.94963
663 1 6.28969 15.7242 18.8691 -8.94963
664 1 7.86211 17.2966 20.4415 -8.94963
665 1 9.43453 15.7242 18.8691 -8.94964
666 1 11.007 17.2966 20.4415 -8.94963
667 1 12.5794 15.7242 18.8691 -8.94964
668 1 14.1518 17.2966 20.4415 -8.94963
669 1 15.7242 15.7242 18.8691 -8.94963
670 1 17.2966 17.2966 20.4415 -8.94963
671 1 18.8691 15.7242 18.8691 -8.94963
672 1 20.4415 17.2966 20.4415 -8.94963
673 1 -1.72321e-16 18.8691 18.8691 -8.94963
351 1 1.49858e-15 12.5794 22.0139 -8.94963
355 1 6.28969 12.5794 22.0139 -8.94964
361 1 15.7242 12.5794 22.0139 -8.94964
367 1 3.14484 15.7242 22.0139 -8.94963
371 1 9.43453 15.7242 22.0139 -8.94964
379 1 -2.02056e-16 18.8691 22.0139 -8.94963
539 1 20.4415 20.4415 11.007 -8.94963
533 1 1.57242 20.4415 11.007 -8.94963
