ITEM: TIMESTEP
53
ITEM: NUMBER OF ATOMS
688
ITEM: BOX BOUNDS pp pp pp
0.0000000000000000e+00 2.2013900999999997e+01
0.0000000000000000e+00 2.2013900999999997e+01
0.0000000000000000e+00 2.2013900999999997e+01
ITEM: ATOMS id type x y z c_pot
1 1 1.00252e-15 2.12512e-15 -5.31999e-05 -8.94953
2 1 1.57229 1.57232 1.5723 -8.94958
196 1 20.4416 7.86205 11.0068 -8.94956
4 1 4.717 1.57221 1.57216 -8.94963
5 1 6.28957 1.21609e-15 -0.000137341 -8.94962
6 1 7.86196 1.57218 1.57212 -8.94962
175 1 18.8686 9.43451 9.43453 -8.94799
8 1 11.007 1.57219 1.57211 -8.94961
174 1 15.7202 9.43687 9.43453 -8.99724
10 1 14.1519 1.57218 1.57212 -8.94962
11 1 15.7243 1.91412e-15 -0.000137341 -8.94962
12 1 17.2969 1.57221 1.57216 -8.94963
195 1 17.2968 7.86227 11.0066 -8.95135
14 1 20.4416 1.57232 1.5723 -8.94958
194 1 14.1548 7.85862 11.011 -8.97983
16 1 1.57219 4.71703 1.57221 -8.94958
17 1 3.14457 3.14458 -0.000150844 -8.94947
18 1 4.71659 4.71662 1.57188 -8.94923
173 1 12.5993 9.39304 9.43453 -9.24063
20 1 7.86172 4.71653 1.57183 -8.94963
21 1 9.43445 3.14447 -0.000212626 -8.94961
22 1 11.007 4.71655 1.57177 -8.94958
23 1 12.5795 3.14447 -0.000212626 -8.94961
24 1 14.1522 4.71653 1.57183 -8.94963
172 1 9.4146 9.39304 9.43453 -9.24063
26 1 17.2973 4.71662 1.57188 -8.94923
27 1 18.8693 3.14458 -0.000150844 -8.94947
28 1 20.4417 4.71703 1.57221 -8.94958
29 1 -5.0388e-16 6.28957 -0.000104391 -8.94962
30 1 1.57216 7.86198 1.5722 -8.94962
171 1 6.29372 9.43687 9.43453 -8.99724
32 1 4.71644 7.86168 1.57179 -8.94959
33 1 6.28898 6.28899 -0.000534243 -8.94958
34 1 7.86092 7.8609 1.57052 -8.94974
170 1 3.14527 9.43451 9.43453 -8.94799
36 1 11.007 7.86107 1.57052 -8.94939
169 1 2.18449e-16 9.43444 9.43453 -8.9491
38 1 14.153 7.8609 1.57052 -8.94974
39 1 15.7249 6.28899 -0.000534243 -8.94958
40 1 17.2975 7.86168 1.57179 -8.94959
168 1 18.8693 6.28946 9.43453 -8.94938
42 1 20.4417 7.86198 1.5722 -8.94962
167 1 15.7241 6.28931 9.43453 -8.9489
44 1 3.14444 9.43444 -0.000197716 -8.94957
166 1 12.579 6.28091 9.43453 -8.96332
46 1 9.434 9.43397 -0.00136475 -8.95023
47 1 12.5799 9.43397 -0.00136475 -8.95023
165 1 9.43494 6.28091 9.43453 -8.96332
49 1 18.8695 9.43444 -0.000197716 -8.94957
50 1 5.65292e-16 1.31573e-15 3.14477 -8.94962
51 1 1.57228 1.57234 4.71718 -8.94963
52 1 3.14458 8.47935e-16 3.14464 -8.94957
53 1 4.71681 1.57215 4.71695 -8.94957
54 1 6.28939 8.31269e-16 3.1445 -8.94967
55 1 7.86173 1.57197 4.71681 -8.94971
56 1 9.43442 1.70248e-15 3.14446 -8.94965
57 1 11.007 1.57196 4.71677 -8.94966
58 1 12.5795 1.18568e-15 3.14446 -8.94965
59 1 14.1522 1.57197 4.71681 -8.94971
60 1 15.7245 1.36164e-15 3.1445 -8.94967
61 1 17.2971 1.57215 4.71695 -8.94957
62 1 18.8693 7.64195e-16 3.14464 -8.94957
63 1 20.4416 1.57234 4.71718 -8.94963
64 1 6.1908e-16 3.14471 3.14475 -8.94968
65 1 1.5722 4.7171 4.7172 -8.94975
66 1 3.14447 3.14455 3.1446 -8.94956
67 1 4.71644 4.71654 4.71679 -8.94937
68 1 6.28917 3.14419 3.14432 -8.94974
69 1 7.86131 4.71573 4.71631 -8.95029
70 1 9.43434 3.14415 3.14426 -8.94959
71 1 11.007 4.71582 4.71609 -8.94956
72 1 12.5796 3.14415 3.14426 -8.94959
73 1 14.1526 4.71573 4.71631 -8.95029
74 1 15.7247 3.14419 3.14432 -8.94974
75 1 17.2975 4.71654 4.71679 -8.94937
76 1 18.8694 3.14455 3.1446 -8.94956
77 1 20.4417 4.7171 4.7172 -8.94975
78 1 2.11389e-16 6.28948 3.14465 -8.94972
79 1 1.572 7.86191 4.71707 -8.94989
80 1 3.14411 6.28922 3.14441 -8.94957
81 1 4.71561 7.86119 4.71631 -8.94957
82 1 6.28808 6.28812 3.14324 -8.94841
83 1 7.85831 7.85813 4.71249 -8.94587
84 1 9.43406 6.28826 3.14337 -8.94937
85 1 11.007 7.86004 4.71323 -8.94949
86 1 12.5798 6.28826 3.14337 -8.94937
87 1 14.1556 7.85813 4.71249 -8.94587
88 1 15.7258 6.28812 3.14324 -8.94841
89 1 17.2983 7.86119 4.71631 -8.94957
90 1 18.8698 6.28922 3.14441 -8.94957
91 1 20.4419 7.86191 4.71707 -8.94989
92 1 3.38233e-16 9.43446 3.14462 -8.94964
93 1 3.14414 9.43436 3.14439 -8.94957
94 1 6.28819 9.43396 3.14311 -8.94967
95 1 9.4326 9.4325 3.13953 -8.94947
96 1 12.5813 9.4325 3.13953 -8.94947
97 1 15.7257 9.43396 3.14311 -8.94967
98 1 18.8698 9.43436 3.14439 -8.94957
99 1 4.06149e-16 2.02239e-15 6.28964 -8.9496
100 1 1.57227 1.57233 7.86208 -8.94961
101 1 3.14456 1.38137e-15 6.28958 -8.94957
102 1 4.71682 1.57223 7.86202 -8.94949
103 1 6.28919 1.53772e-15 6.28938 -8.94969
104 1 7.86158 1.57178 7.86185 -8.94982
105 1 9.43428 1.26938e-15 6.28927 -8.94971
106 1 11.007 1.57153 7.86171 -8.94966
107 1 12.5796 7.4176e-16 6.28927 -8.94971
108 1 14.1523 1.57178 7.86185 -8.94982
109 1 15.7247 4.58516e-16 6.28938 -8.94969
110 1 17.2971 1.57223 7.86202 -8.94949
111 1 18.8693 1.183e-15 6.28958 -8.94957
112 1 20.4416 1.57233 7.86208 -8.94961
113 1 1.61294e-16 3.14472 6.28964 -8.94962
114 1 1.57224 4.7171 7.86211 -8.9496
115 1 3.1445 3.14466 6.28962 -8.94967
116 1 4.71679 4.71697 7.86214 -8.94971
117 1 6.2889 3.14397 6.28921 -8.94952
118 1 7.86093 4.71504 7.8613 -8.94918
119 1 9.43415 3.1435 6.28905 -8.94967
120 1 11.007 4.71442 7.86056 -8.94614
121 1 12.5798 3.1435 6.28905 -8.94967
122 1 14.153 4.71504 7.8613 -8.94918
123 1 15.725 3.14397 6.28921 -8.94952
124 1 17.2971 4.71697 7.86214 -8.94971
125 1 18.8694 3.14466 6.28962 -8.94967
126 1 20.4417 4.7171 7.86211 -8.9496
127 1 6.65427e-16 6.2896 6.28972 -8.94969
128 1 1.57234 7.86205 7.86222 -8.94956
129 1 3.14439 6.28952 6.28974 -8.95002
130 1 4.71712 7.86227 7.8625 -8.95135
131 1 6.28811 6.28804 6.28846 -8.94848
132 1 7.85906 7.85862 7.85805 -8.97983
133 1 9.4339 6.28657 6.28818 -8.95248
134 1 11.007 7.86182 7.85709 -9.05834
135 1 12.58 6.28657 6.28818 -8.95248
136 1 14.1548 7.85862 7.85805 -8.97983
137 1 15.7258 6.28804 6.28846 -8.94848
138 1 17.2968 7.86227 7.8625 -8.95135
139 1 18.8695 6.28952 6.28974 -8.95002
140 1 20.4416 7.86205 7.86222 -8.94956
141 1 5.92378e-17 9.43449 6.28969 -8.94997
142 1 3.14397 9.4344 6.28946 -8.95043
143 1 6.28631 9.43333 6.28701 -8.95071
144 1 9.42378 9.4238 6.27737 -9.02203
145 1 12.5901 9.4238 6.27737 -9.02203
146 1 15.7276 9.43333 6.28701 -8.95071
147 1 18.8699 9.4344 6.28946 -8.95043
148 1 4.87186e-16 1.98445e-15 9.43453 -8.94961
149 1 3.14456 1.71524e-15 9.43453 -8.94959
150 1 6.28919 1.73916e-15 9.43453 -8.94951
151 1 9.4343 1.58265e-15 9.43453 -8.9502
152 1 12.5796 1.18254e-15 9.43453 -8.9502
153 1 15.7247 1.44651e-15 9.43453 -8.94951
154 1 18.8693 7.92405e-16 9.43453 -8.94959
155 1 1.90728e-16 3.1447 9.43453 -8.94962
156 1 3.14451 3.14463 9.43453 -8.94962
157 1 6.28908 3.14419 9.43453 -8.94912
158 1 9.43433 3.14264 9.43453 -8.9518
159 1 12.5796 3.14264 9.43453 -8.9518
160 1 15.7248 3.14419 9.43453 -8.94912
161 1 18.8694 3.14463 9.43453 -8.94962
162 1 5.44411e-16 6.28954 9.43453 -8.9496
163 1 3.14463 6.28946 9.43453 -8.94938
164 1 6.2898 6.28931 9.43453 -8.9489
193 1 11.007 7.86182 11.012 -9.05834
192 1 7.85906 7.85862 11.011 -8.97983
190 1 1.57234 7.86205 11.0068 -8.94956
191 1 4.71712 7.86227 11.0066 -8.95135
177 1 4.71682 1.57223 11.007 -8.94949
181 1 17.2971 1.57223 11.007 -8.94949
184 1 4.71679 4.71697 11.0069 -8.94971
188 1 17.2971 4.71697 11.0069 -8.94971
7 1 9.43449 7.75421e-16 -0.000147237 -8.94962
9 1 12.5794 1.47897e-15 -0.000147237 -8.94962
343 1 18.8695 9.43444 18.8693 -8.94957
48 1 15.725 9.43426 22.0133 -8.94958
178 1 7.86158 1.57178 11.0072 -8.94982
179 1 11.007 1.57153 11.0074 -8.94966
180 1 14.1523 1.57178 11.0072 -8.94982
45 1 6.28895 9.43426 22.0133 -8.94958
342 1 15.725 9.43426 18.8696 -8.94958
183 1 1.57224 4.7171 11.0069 -8.9496
43 1 7.81064e-16 9.43449 22.0138 -8.94961
185 1 7.86093 4.71504 11.0078 -8.94918
186 1 11.007 4.71442 11.0085 -8.94614
187 1 14.153 4.71504 11.0078 -8.94918
41 1 18.8694 6.28944 22.0137 -8.9496
189 1 20.4417 4.7171 11.0069 -8.9496
341 1 12.5799 9.43397 18.8704 -8.95023
340 1 9.434 9.43397 18.8704 -8.95023
339 1 6.28895 9.43426 18.8696 -8.94958
338 1 3.14444 9.43444 18.8693 -8.94957
337 1 1.9349e-15 9.43449 18.8692 -8.94961
336 1 20.4417 7.86202 20.4415 -8.9496
335 1 18.8694 6.28944 18.8693 -8.9496
197 1 7.67753e-16 5.16646e-16 12.5794 -8.9496
198 1 1.57228 1.57234 14.1519 -8.94963
199 1 3.14456 5.71687e-16 12.5795 -8.94957
200 1 4.71681 1.57215 14.1521 -8.94957
201 1 6.28919 -5.39611e-18 12.5797 -8.94969
202 1 7.86173 1.57197 14.1523 -8.94971
203 1 9.43428 8.58385e-17 12.5798 -8.94971
204 1 11.007 1.57196 14.1523 -8.94966
205 1 12.5796 1.82189e-15 12.5798 -8.94971
206 1 14.1522 1.57197 14.1523 -8.94971
207 1 15.7247 1.08315e-15 12.5797 -8.94969
208 1 17.2971 1.57215 14.1521 -8.94957
209 1 18.8693 2.1948e-15 12.5795 -8.94957
210 1 20.4416 1.57234 14.1519 -8.94963
211 1 3.5322e-16 3.14472 12.5794 -8.94962
212 1 1.5722 4.7171 14.1519 -8.94975
213 1 3.1445 3.14466 12.5794 -8.94967
214 1 4.71644 4.71654 14.1523 -8.94937
215 1 6.2889 3.14397 12.5798 -8.94952
216 1 7.86131 4.71573 14.1527 -8.95029
217 1 9.43415 3.1435 12.58 -8.94967
218 1 11.007 4.71582 14.153 -8.94956
219 1 12.5798 3.1435 12.58 -8.94967
220 1 14.1526 4.71573 14.1527 -8.95029
221 1 15.725 3.14397 12.5798 -8.94952
222 1 17.2975 4.71654 14.1523 -8.94937
223 1 18.8694 3.14466 12.5794 -8.94967
224 1 20.4417 4.7171 14.1519 -8.94975
225 1 -2.82556e-16 6.2896 12.5793 -8.94969
226 1 1.572 7.86191 14.152 -8.94989
227 1 3.14439 6.28952 12.5793 -8.95002
228 1 4.71561 7.86119 14.1527 -8.94957
229 1 6.28811 6.28804 12.5806 -8.94848
230 1 7.85831 7.85813 14.1566 -8.94587
231 1 9.4339 6.28657 12.5809 -8.95248
232 1 11.007 7.86004 14.1558 -8.94949
233 1 12.58 6.28657 12.5809 -8.95248
234 1 14.1556 7.85813 14.1566 -8.94587
235 1 15.7258 6.28804 12.5806 -8.94848
236 1 17.2983 7.86119 14.1527 -8.94957
237 1 18.8695 6.28952 12.5793 -8.95002
238 1 20.4419 7.86191 14.152 -8.94989
239 1 6.66115e-16 9.43449 12.5794 -8.94997
240 1 3.14397 9.4344 12.5796 -8.95043
241 1 6.28631 9.43333 12.5821 -8.95071
242 1 9.42378 9.4238 12.5917 -9.02203
243 1 12.5901 9.4238 12.5917 -9.02203
244 1 15.7276 9.43333 12.5821 -8.95071
245 1 18.8699 9.4344 12.5796 -8.95043
246 1 1.6663e-15 3.32629e-16 15.7243 -8.94962
247 1 1.57229 1.57232 17.2968 -8.94958
248 1 3.14458 4.85995e-16 15.7244 -8.94957
249 1 4.717 1.57221 17.2969 -8.94963
250 1 6.28939 8.33826e-16 15.7246 -8.94967
251 1 7.86196 1.57218 17.2969 -8.94962
252 1 9.43442 1.22707e-17 15.7246 -8.94965
253 1 11.007 1.57219 17.2969 -8.94961
254 1 12.5795 1.78666e-15 15.7246 -8.94965
255 1 14.1519 1.57218 17.2969 -8.94962
256 1 15.7245 1.54537e-15 15.7246 -8.94967
257 1 17.2969 1.57221 17.2969 -8.94963
258 1 18.8693 9.62171e-16 15.7244 -8.94957
259 1 20.4416 1.57232 17.2968 -8.94958
260 1 1.20702e-15 3.14471 15.7243 -8.94968
261 1 1.57219 4.71703 17.2968 -8.94958
262 1 3.14447 3.14455 15.7245 -8.94956
263 1 4.71659 4.71662 17.2972 -8.94923
264 1 6.28917 3.14419 15.7247 -8.94974
265 1 7.86172 4.71653 17.2972 -8.94963
266 1 9.43434 3.14415 15.7248 -8.94959
267 1 11.007 4.71655 17.2973 -8.94958
268 1 12.5796 3.14415 15.7248 -8.94959
269 1 14.1522 4.71653 17.2972 -8.94963
270 1 15.7247 3.14419 15.7247 -8.94974
271 1 17.2973 4.71662 17.2972 -8.94923
272 1 18.8694 3.14455 15.7245 -8.94956
273 1 20.4417 4.71703 17.2968 -8.94958
274 1 9.96974e-16 6.28948 15.7244 -8.94972
275 1 1.57216 7.86198 17.2969 -8.94962
276 1 3.14411 6.28922 15.7246 -8.94957
277 1 4.71644 7.86168 17.2973 -8.94959
278 1 6.28808 6.28812 15.7258 -8.94841
279 1 7.86092 7.8609 17.2985 -8.94974
280 1 9.43406 6.28826 15.7257 -8.94937
281 1 11.007 7.86107 17.2985 -8.94939
282 1 12.5798 6.28826 15.7257 -8.94937
283 1 14.153 7.8609 17.2985 -8.94974
284 1 15.7258 6.28812 15.7258 -8.94841
285 1 17.2975 7.86168 17.2973 -8.94959
286 1 18.8698 6.28922 15.7246 -8.94957
287 1 20.4417 7.86198 17.2969 -8.94962
288 1 1.61056e-15 9.43446 15.7244 -8.94964
289 1 3.14414 9.43436 15.7247 -8.94957
290 1 6.28819 9.43396 15.7259 -8.94967
291 1 9.4326 9.4325 15.7295 -8.94947
292 1 12.5813 9.4325 15.7295 -8.94947
293 1 15.7257 9.43396 15.7259 -8.94967
294 1 18.8698 9.43436 15.7247 -8.94957
295 1 -2.19506e-17 2.25234e-15 18.8691 -8.94953
296 1 1.57232 1.57232 20.4415 -8.9495
297 1 3.14469 6.1508e-16 18.8692 -8.94959
298 1 4.71712 1.57227 20.4415 -8.94963
299 1 6.28957 -4.94807e-16 18.8692 -8.94962
300 1 7.86203 1.57226 20.4415 -8.94962
301 1 9.43449 5.90443e-16 18.8692 -8.94962
302 1 11.007 1.57225 20.4415 -8.94962
303 1 12.5794 9.41752e-16 18.8692 -8.94962
304 1 14.1519 1.57226 20.4415 -8.94962
305 1 15.7243 1.13397e-15 18.8692 -8.94962
306 1 17.2968 1.57227 20.4415 -8.94963
307 1 18.8692 1.37665e-15 18.8692 -8.94959
308 1 20.4416 1.57232 20.4415 -8.9495
309 1 8.31605e-16 3.14471 18.8691 -8.94955
310 1 1.57226 4.71711 20.4415 -8.9496
311 1 3.14457 3.14458 18.8692 -8.94947
312 1 4.71683 4.71683 20.4415 -8.94951
313 1 6.28945 3.14449 18.8693 -8.94963
314 1 7.86186 4.71676 20.4415 -8.94956
315 1 9.43445 3.14447 18.8693 -8.94961
316 1 11.007 4.71676 20.4415 -8.94958
317 1 12.5795 3.14447 18.8693 -8.94961
318 1 14.152 4.71676 20.4415 -8.94956
319 1 15.7244 3.14449 18.8693 -8.94963
320 1 17.2971 4.71683 20.4415 -8.94951
321 1 18.8693 3.14458 18.8692 -8.94947
322 1 20.4416 4.71711 20.4415 -8.9496
323 1 1.44935e-15 6.28957 18.8692 -8.94962
324 1 1.57224 7.86202 20.4415 -8.9496
325 1 3.14445 6.28944 18.8693 -8.9496
326 1 4.71673 7.86184 20.4415 -8.94957
327 1 6.28898 6.28899 18.8696 -8.94958
328 1 7.86148 7.86147 20.4415 -8.94987
329 1 9.43427 6.28897 18.8696 -8.94949
330 1 11.007 7.86144 20.4415 -8.94968
331 1 12.5796 6.28897 18.8696 -8.94949
332 1 14.1524 7.86147 20.4415 -8.94987
333 1 15.7249 6.28899 18.8696 -8.94958
334 1 17.2972 7.86184 20.4415 -8.94957
37 1 12.5796 6.28897 22.0134 -8.94949
35 1 9.43427 6.28897 22.0134 -8.94949
19 1 6.28945 3.14449 22.0137 -8.94963
25 1 15.7244 3.14449 22.0137 -8.94963
31 1 3.14445 6.28944 22.0137 -8.9496
3 1 3.14469 1.12085e-15 22.0138 -8.94959
13 1 18.8692 1.42744e-15 22.0138 -8.94959
15 1 1.74576e-17 3.14471 22.0138 -8.94955
176 1 1.57227 1.57233 11.007 -8.94961
182 1 20.4416 1.57233 11.007 -8.94961
344 1 1.57217 11.007 1.57219 -8.9496
345 1 4.71649 11.007 1.57175 -8.94952
346 1 7.86111 11.007 1.57038 -8.94963
347 1 11.007 11.007 1.56801 -8.95379
348 1 14.1528 11.007 1.57038 -8.94963
349 1 17.2974 11.007 1.57175 -8.94952
350 1 20.4417 11.007 1.57219 -8.9496
688 2 10.2869 11.007 9.43453 0.525553
352 1 1.57216 14.1519 1.5722 -8.94962
353 1 3.14444 12.5795 -0.000197716 -8.94957
354 1 4.71644 14.1522 1.57179 -8.94959
687 2 11.727 11.007 9.43453 0.525553
356 1 7.86092 14.153 1.57052 -8.94974
357 1 9.434 12.5799 -0.00136475 -8.95023
358 1 11.007 14.1528 1.57052 -8.94939
359 1 12.5799 12.5799 -0.00136475 -8.95023
360 1 14.153 14.153 1.57052 -8.94974
511 1 18.8694 18.8693 9.43453 -8.94962
362 1 17.2975 14.1522 1.57179 -8.94959
363 1 18.8695 12.5795 -0.000197716 -8.94957
364 1 20.4417 14.1519 1.5722 -8.94962
365 1 -1.05826e-16 15.7243 -0.000104391 -8.94962
366 1 1.57219 17.2969 1.57221 -8.94958
510 1 15.7248 18.8697 9.43453 -8.94912
368 1 4.71659 17.2973 1.57188 -8.94923
369 1 6.28898 15.7249 -0.000534243 -8.94958
370 1 7.86172 17.2974 1.57183 -8.94963
509 1 12.5796 18.8713 9.43453 -8.9518
372 1 11.007 17.2974 1.57177 -8.94958
508 1 9.43433 18.8713 9.43453 -8.9518
374 1 14.1522 17.2974 1.57183 -8.94963
375 1 15.7249 15.7249 -0.000534243 -8.94958
376 1 17.2973 17.2973 1.57188 -8.94923
507 1 6.28908 18.8697 9.43453 -8.94912
378 1 20.4417 17.2969 1.57221 -8.94958
525 1 20.4416 14.1518 11.0068 -8.94956
380 1 1.57229 20.4416 1.5723 -8.94958
381 1 3.14457 18.8693 -0.000150844 -8.94947
382 1 4.717 20.4417 1.57216 -8.94963
506 1 3.14451 18.8693 9.43453 -8.94962
384 1 7.86196 20.4417 1.57212 -8.94962
385 1 9.43445 18.8694 -0.000212626 -8.94961
386 1 11.007 20.4417 1.57211 -8.94961
387 1 12.5795 18.8694 -0.000212626 -8.94961
388 1 14.1519 20.4417 1.57212 -8.94962
505 1 1.04042e-15 18.8692 9.43453 -8.94962
390 1 17.2969 20.4417 1.57216 -8.94963
391 1 18.8693 18.8693 -0.000150844 -8.94947
392 1 20.4416 20.4416 1.5723 -8.94958
393 1 1.57201 11.007 4.71704 -8.9497
394 1 4.71583 11.007 4.71615 -8.94894
395 1 7.86003 11.007 4.71246 -8.95032
396 1 11.007 11.007 4.69897 -8.97883
397 1 14.1539 11.007 4.71246 -8.95032
398 1 17.2981 11.007 4.71615 -8.94894
399 1 20.4419 11.007 4.71704 -8.9497
400 1 -1.16152e-17 12.5794 3.14462 -8.94964
401 1 1.572 14.152 4.71707 -8.94989
402 1 3.14414 12.5795 3.14439 -8.94957
403 1 4.71561 14.1527 4.71631 -8.94957
404 1 6.28819 12.5799 3.14311 -8.94967
405 1 7.85831 14.1558 4.71249 -8.94587
406 1 9.4326 12.5814 3.13953 -8.94947
407 1 11.007 14.1539 4.71323 -8.94949
408 1 12.5813 12.5814 3.13953 -8.94947
409 1 14.1556 14.1558 4.71249 -8.94587
410 1 15.7257 12.5799 3.14311 -8.94967
411 1 17.2983 14.1527 4.71631 -8.94957
412 1 18.8698 12.5795 3.14439 -8.94957
413 1 20.4419 14.152 4.71707 -8.94989
414 1 3.31895e-17 15.7244 3.14465 -8.94972
415 1 1.5722 17.2968 4.7172 -8.94975
416 1 3.14411 15.7247 3.14441 -8.94957
417 1 4.71644 17.2974 4.71679 -8.94937
418 1 6.28808 15.7258 3.14324 -8.94841
419 1 7.86131 17.2982 4.71631 -8.95029
420 1 9.43406 15.7256 3.14337 -8.94937
421 1 11.007 17.2981 4.71609 -8.94956
422 1 12.5798 15.7256 3.14337 -8.94937
423 1 14.1526 17.2982 4.71631 -8.95029
424 1 15.7258 15.7258 3.14324 -8.94841
425 1 17.2975 17.2974 4.71679 -8.94937
426 1 18.8698 15.7247 3.14441 -8.94957
427 1 20.4417 17.2968 4.7172 -8.94975
428 1 6.3067e-16 18.8692 3.14475 -8.94968
429 1 1.57228 20.4416 4.71718 -8.94963
430 1 3.14447 18.8694 3.1446 -8.94956
431 1 4.71681 20.4417 4.71695 -8.94957
432 1 6.28917 18.8697 3.14432 -8.94974
433 1 7.86173 20.4419 4.71681 -8.94971
434 1 9.43434 18.8697 3.14426 -8.94959
435 1 11.007 20.4419 4.71677 -8.94966
436 1 12.5796 18.8697 3.14426 -8.94959
437 1 14.1522 20.4419 4.71681 -8.94971
438 1 15.7247 18.8697 3.14432 -8.94974
439 1 17.2971 20.4417 4.71695 -8.94957
440 1 18.8694 18.8694 3.1446 -8.94956
441 1 20.4416 20.4416 4.71718 -8.94963
442 1 1.57228 11.007 7.86227 -8.94982
443 1 4.71661 11.007 7.86192 -8.95129
444 1 7.85762 11.007 7.85365 -9.04153
445 1 11.007 11.007 7.73281 -9.34237
446 1 14.1563 11.007 7.85365 -9.04153
447 1 17.2973 11.007 7.86192 -8.95129
448 1 20.4416 11.007 7.86227 -8.94982
449 1 -1.96806e-16 12.5794 6.28969 -8.94997
450 1 1.57234 14.1518 7.86222 -8.94956
451 1 3.14397 12.5795 6.28946 -8.95043
452 1 4.71712 14.1516 7.8625 -8.95135
453 1 6.28631 12.5806 6.28701 -8.95071
454 1 7.85906 14.1553 7.85805 -8.97983
455 1 9.42378 12.5901 6.27737 -9.02203
456 1 11.007 14.1521 7.85709 -9.05834
457 1 12.5901 12.5901 6.27737 -9.02203
458 1 14.1548 14.1553 7.85805 -8.97983
459 1 15.7276 12.5806 6.28701 -8.95071
460 1 17.2968 14.1516 7.8625 -8.95135
461 1 18.8699 12.5795 6.28946 -8.95043
462 1 20.4416 14.1518 7.86222 -8.94956
463 1 4.79109e-17 15.7243 6.28972 -8.94969
464 1 1.57224 17.2968 7.86211 -8.9496
465 1 3.14439 15.7244 6.28974 -8.95002
466 1 4.71679 17.2969 7.86214 -8.94971
467 1 6.28811 15.7259 6.28846 -8.94848
468 1 7.86093 17.2989 7.8613 -8.94918
469 1 9.4339 15.7273 6.28818 -8.95248
470 1 11.007 17.2995 7.86056 -8.94614
471 1 12.58 15.7273 6.28818 -8.95248
472 1 14.153 17.2989 7.8613 -8.94918
473 1 15.7258 15.7259 6.28846 -8.94848
474 1 17.2971 17.2969 7.86214 -8.94971
475 1 18.8695 15.7244 6.28974 -8.95002
476 1 20.4417 17.2968 7.86211 -8.9496
477 1 7.00203e-16 18.8692 6.28964 -8.94962
478 1 1.57227 20.4416 7.86208 -8.94961
479 1 3.1445 18.8692 6.28962 -8.94967
480 1 4.71682 20.4417 7.86202 -8.94949
481 1 6.2889 18.8699 6.28921 -8.94952
482 1 7.86158 20.4421 7.86185 -8.94982
483 1 9.43415 18.8704 6.28905 -8.94967
484 1 11.007 20.4424 7.86171 -8.94966
485 1 12.5798 18.8704 6.28905 -8.94967
486 1 14.1523 20.4421 7.86185 -8.94982
487 1 15.725 18.8699 6.28921 -8.94952
488 1 17.2971 20.4417 7.86202 -8.94949
489 1 18.8694 18.8692 6.28962 -8.94967
490 1 20.4416 20.4416 7.86208 -8.94961
491 1 1.48771e-17 12.5795 9.43453 -8.9491
492 1 3.14527 12.5794 9.43453 -8.94799
493 1 6.29372 12.577 9.43453 -8.99724
494 1 9.4146 12.6209 9.43453 -9.24063
495 1 12.5993 12.6209 9.43453 -9.24063
496 1 15.7202 12.577 9.43453 -8.99724
497 1 18.8686 12.5794 9.43453 -8.94799
498 1 1.70136e-16 15.7244 9.43453 -8.9496
499 1 3.14463 15.7244 9.43453 -8.94938
500 1 6.2898 15.7246 9.43453 -8.9489
501 1 9.43494 15.733 9.43453 -8.96332
502 1 12.579 15.733 9.43453 -8.96332
503 1 15.7241 15.7246 9.43453 -8.9489
504 1 18.8693 15.7244 9.43453 -8.94938
512 1 1.57228 11.007 11.0068 -8.94982
513 1 4.71661 11.007 11.0071 -8.95129
517 1 17.2973 11.007 11.0071 -8.95129
518 1 20.4416 11.007 11.0068 -8.94982
519 1 1.57234 14.1518 11.0068 -8.94956
520 1 4.71712 14.1516 11.0066 -8.95135
521 1 7.85906 14.1553 11.011 -8.97983
522 1 11.007 14.1521 11.012 -9.05834
523 1 14.1548 14.1553 11.011 -8.97983
524 1 17.2968 14.1516 11.0066 -8.95135
527 1 4.71679 17.2969 11.0069 -8.94971
531 1 17.2971 17.2969 11.0069 -8.94971
534 1 4.71682 20.4417 11.007 -8.94949
538 1 17.2971 20.4417 11.007 -8.94949
686 1 20.4416 20.4416 20.4415 -8.9495
685 1 18.8693 18.8693 18.8692 -8.94947
514 1 7.85762 11.007 11.0154 -9.04153
515 1 11.007 11.007 11.1362 -9.34237
516 1 14.1563 11.007 11.0154 -9.04153
684 1 17.2968 20.4416 20.4415 -8.94963
683 1 15.7244 18.8694 18.8693 -8.94963
682 1 14.1519 20.4416 20.4415 -8.94962
681 1 12.5795 18.8694 18.8693 -8.94961
680 1 11.007 20.4416 20.4415 -8.94962
679 1 9.43445 18.8694 18.8693 -8.94961
678 1 7.86203 20.4416 20.4415 -8.94962
677 1 6.28945 18.8694 18.8693 -8.94963
676 1 4.71712 20.4416 20.4415 -8.94963
526 1 1.57224 17.2968 11.0069 -8.9496
389 1 15.7244 18.8694 22.0137 -8.94963
528 1 7.86093 17.2989 11.0078 -8.94918
529 1 11.007 17.2995 11.0085 -8.94614
530 1 14.153 17.2989 11.0078 -8.94918
383 1 6.28945 18.8694 22.0137 -8.94963
532 1 20.4417 17.2968 11.0069 -8.9496
675 1 3.14457 18.8693 18.8692 -8.94947
377 1 18.8694 15.7245 22.0137 -8.9496
535 1 7.86158 20.4421 11.0072 -8.94982
536 1 11.007 20.4424 11.0074 -8.94966
537 1 14.1523 20.4421 11.0072 -8.94982
373 1 12.5796 15.7249 22.0134 -8.94949
674 1 1.57232 20.4416 20.4415 -8.9495
540 1 1.57201 11.007 14.152 -8.9497
541 1 4.71583 11.007 14.1529 -8.94894
542 1 7.86003 11.007 14.1566 -8.95032
543 1 11.007 11.007 14.1701 -8.97883
544 1 14.1539 11.007 14.1566 -8.95032
545 1 17.2981 11.007 14.1529 -8.94894
546 1 20.4419 11.007 14.152 -8.9497
547 1 1.08576e-15 12.5794 12.5794 -8.94997
548 1 1.572 14.152 14.152 -8.94989
549 1 3.14397 12.5795 12.5796 -8.95043
550 1 4.71561 14.1527 14.1527 -8.94957
551 1 6.28631 12.5806 12.5821 -8.95071
552 1 7.85831 14.1558 14.1566 -8.94587
553 1 9.42378 12.5901 12.5917 -9.02203
554 1 11.007 14.1539 14.1558 -8.94949
555 1 12.5901 12.5901 12.5917 -9.02203
556 1 14.1556 14.1558 14.1566 -8.94587
557 1 15.7276 12.5806 12.5821 -8.95071
558 1 17.2983 14.1527 14.1527 -8.94957
559 1 18.8699 12.5795 12.5796 -8.95043
560 1 20.4419 14.152 14.152 -8.94989
561 1 1.15635e-15 15.7243 12.5793 -8.94969
562 1 1.5722 17.2968 14.1519 -8.94975
563 1 3.14439 15.7244 12.5793 -8.95002
564 1 4.71644 17.2974 14.1523 -8.94937
565 1 6.28811 15.7259 12.5806 -8.94848
566 1 7.86131 17.2982 14.1527 -8.95029
567 1 9.4339 15.7273 12.5809 -8.95248
568 1 11.007 17.2981 14.153 -8.94956
569 1 12.58 15.7273 12.5809 -8.95248
570 1 14.1526 17.2982 14.1527 -8.95029
571 1 15.7258 15.7259 12.5806 -8.94848
572 1 17.2975 17.2974 14.1523 -8.94937
573 1 18.8695 15.7244 12.5793 -8.95002
574 1 20.4417 17.2968 14.1519 -8.94975
575 1 -9.0074e-16 18.8692 12.5794 -8.94962
576 1 1.57228 20.4416 14.1519 -8.94963
577 1 3.1445 18.8692 12.5794 -8.94967
578 1 4.71681 20.4417 14.1521 -8.94957
579 1 6.2889 18.8699 12.5798 -8.94952
580 1 7.86173 20.4419 14.1523 -8.94971
581 1 9.43415 18.8704 12.58 -8.94967
582 1 11.007 20.4419 14.1523 -8.94966
583 1 12.5798 18.8704 12.58 -8.94967
584 1 14.1522 20.4419 14.1523 -8.94971
585 1 15.725 18.8699 12.5798 -8.94952
586 1 17.2971 20.4417 14.1521 -8.94957
587 1 18.8694 18.8692 12.5794 -8.94967
588 1 20.4416 20.4416 14.1519 -8.94963
589 1 1.57217 11.007 17.2969 -8.9496
590 1 4.71649 11.007 17.2973 -8.94952
591 1 7.86111 11.007 17.2987 -8.94963
592 1 11.007 11.007 17.301 -8.95379
593 1 14.1528 11.007 17.2987 -8.94963
594 1 17.2974 11.007 17.2973 -8.94952
595 1 20.4417 11.007 17.2969 -8.9496
596 1 2.43224e-16 12.5794 15.7244 -8.94964
597 1 1.57216 14.1519 17.2969 -8.94962
598 1 3.14414 12.5795 15.7247 -8.94957
599 1 4.71644 14.1522 17.2973 -8.94959
600 1 6.28819 12.5799 15.7259 -8.94967
601 1 7.86092 14.153 17.2985 -8.94974
602 1 9.4326 12.5814 15.7295 -8.94947
603 1 11.007 14.1528 17.2985 -8.94939
604 1 12.5813 12.5814 15.7295 -8.94947
605 1 14.153 14.153 17.2985 -8.94974
606 1 15.7257 12.5799 15.7259 -8.94967
607 1 17.2975 14.1522 17.2973 -8.94959
608 1 18.8698 12.5795 15.7247 -8.94957
609 1 20.4417 14.1519 17.2969 -8.94962
610 1 6.57918e-16 15.7244 15.7244 -8.94972
611 1 1.57219 17.2969 17.2968 -8.94958
612 1 3.14411 15.7247 15.7246 -8.94957
613 1 4.71659 17.2973 17.2972 -8.94923
614 1 6.28808 15.7258 15.7258 -8.94841
615 1 7.86172 17.2974 17.2972 -8.94963
616 1 9.43406 15.7256 15.7257 -8.94937
617 1 11.007 17.2974 17.2973 -8.94958
618 1 12.5798 15.7256 15.7257 -8.94937
619 1 14.1522 17.2974 17.2972 -8.94963
620 1 15.7258 15.7258 15.7258 -8.94841
621 1 17.2973 17.2973 17.2972 -8.94923
622 1 18.8698 15.7247 15.7246 -8.94957
623 1 20.4417 17.2969 17.2968 -8.94958
624 1 1.03275e-16 18.8692 15.7243 -8.94968
625 1 1.57229 20.4416 17.2968 -8.94958
626 1 3.14447 18.8694 15.7245 -8.94956
627 1 4.717 20.4417 17.2969 -8.94963
628 1 6.28917 18.8697 15.7247 -8.94974
629 1 7.86196 20.4417 17.2969 -8.94962
630 1 9.43434 18.8697 15.7248 -8.94959
631 1 11.007 20.4417 17.2969 -8.94961
632 1 12.5796 18.8697 15.7248 -8.94959
633 1 14.1519 20.4417 17.2969 -8.94962
634 1 15.7247 18.8697 15.7247 -8.94974
635 1 17.2969 20.4417 17.2969 -8.94963
636 1 18.8694 18.8694 15.7245 -8.94956
637 1 20.4416 20.4416 17.2968 -8.94958
638 1 1.57224 11.007 20.4415 -8.94959
639 1 4.71673 11.007 20.4415 -8.94958
640 1 7.86146 11.007 20.4415 -8.94977
641 1 11.007 11.007 20.4415 -8.95091
642 1 14.1524 11.007 20.4415 -8.94977
643 1 17.2972 11.007 20.4415 -8.94958
644 1 20.4417 11.007 20.4415 -8.94959
645 1 -4.07717e-16 12.5794 18.8692 -8.94961
646 1 1.57224 14.1519 20.4415 -8.9496
647 1 3.14444 12.5795 18.8693 -8.94957
648 1 4.71673 14.1521 20.4415 -8.94957
649 1 6.28895 12.5796 18.8696 -8.94958
650 1 7.86148 14.1524 20.4415 -8.94987
651 1 9.434 12.5799 18.8704 -8.95023
652 1 11.007 14.1525 20.4415 -8.94968
653 1 12.5799 12.5799 18.8704 -8.95023
654 1 14.1524 14.1524 20.4415 -8.94987
655 1 15.725 12.5796 18.8696 -8.94958
656 1 17.2972 14.1521 20.4415 -8.94957
657 1 18.8695 12.5795 18.8693 -8.94957
658 1 20.4417 14.1519 20.4415 -8.9496
659 1 5.97891e-16 15.7243 18.8692 -8.94962
660 1 1.57226 17.2968 20.4415 -8.9496
661 1 3.14445 15.7245 18.8693 -8.9496
662 1 4.71683 17.2971 20.4415 -8.94951
663 1 6.28898 15.7249 18.8696 -8.94958
664 1 7.86186 17.2971 20.4415 -8.94956
665 1 9.43427 15.7249 18.8696 -8.94949
666 1 11.007 17.2971 20.4415 -8.94958
667 1 12.5796 15.7249 18.8696 -8.94949
668 1 14.152 17.2971 20.4415 -8.94956
669 1 15.7249 15.7249 18.8696 -8.94958
670 1 17.2971 17.2971 20.4415 -8.94951
671 1 18.8694 15.7245 18.8693 -8.9496
672 1 20.4416 17.2968 20.4415 -8.9496
673 1 -2.49429e-16 18.8692 18.8691 -8.94955
351 1 4.8242e-16 12.5794 22.0138 -8.94961
355 1 6.28895 12.5796 22.0133 -8.94958
361 1 15.725 12.5796 22.0133 -8.94958
367 1 3.14445 15.7245 22.0137 -8.9496
371 1 9.43427 15.7249 22.0134 -8.94949
379 1 -1.12142e-16 18.8692 22.0138 -8.94955
539 1 20.4416 20.4416 11.007 -8.94961
533 1 1.57227 20.4416 11.007 -8.94961
