ITEM: TIMESTEP
45
ITEM: NUMBER OF ATOMS
688
ITEM: BOX BOUNDS pp pp pp
0.0000000000000000e+00 2.2013900999999997e+01
0.0000000000000000e+00 2.2013900999999997e+01
0.0000000000000000e+00 2.2013900999999997e+01
ITEM: ATOMS id type x y z c_pot
518 1 20.4415 11.0069 11.0069 -8.94967
2 1 1.57242 1.57242 1.57242 -8.94963
448 1 20.4415 11.007 7.86211 -8.94967
4 1 4.71726 1.57242 1.57242 -8.94963
447 1 17.2968 11.0069 7.8621 -8.9505
6 1 7.86211 1.57242 1.57242 -8.94963
7 1 9.43453 1.61114e-09 3.02394e-09 -8.94963
8 1 11.007 1.57242 1.57242 -8.94963
9 1 12.5794 1.53232e-09 1.06693e-10 -8.94963
10 1 14.1518 1.57242 1.57242 -8.94963
446 1 14.1554 11.0068 7.86143 -8.96162
12 1 17.2966 1.57242 1.57242 -8.94963
13 1 18.8691 1.17849e-10 -1.58325e-10 -8.94963
14 1 20.4415 1.57242 1.57242 -8.94963
444 1 7.8587 11.0068 7.85884 -8.90734
16 1 1.57242 4.71726 1.57242 -8.94963
443 1 4.71696 11.0069 7.86198 -8.94956
18 1 4.71726 4.71726 1.57242 -8.94963
442 1 1.57241 11.007 7.8621 -8.94968
20 1 7.86211 4.71726 1.57242 -8.94964
105 1 9.43453 -2.48557e-07 6.28969 -8.94963
22 1 11.007 4.71726 1.57242 -8.94963
107 1 12.5794 -2.38513e-07 6.28969 -8.94964
24 1 14.1518 4.71727 1.57242 -8.94965
517 1 17.2968 11.0069 11.0069 -8.95019
26 1 17.2966 4.71726 1.57242 -8.94963
397 1 14.1518 11.0069 4.71719 -8.95138
28 1 20.4415 4.71726 1.57242 -8.94963
396 1 11.0071 11.0069 4.71191 -8.97292
30 1 1.57242 7.86211 1.57242 -8.94963
395 1 7.86218 11.0069 4.71717 -8.95121
32 1 4.71726 7.86211 1.57242 -8.94964
188 1 17.2966 4.71727 11.007 -8.94964
34 1 7.8621 7.8621 1.57241 -8.94965
35 1 9.43453 6.28969 3.49917e-07 -8.94963
36 1 11.0069 7.86211 1.57242 -8.94964
37 1 12.5794 6.28969 6.82284e-07 -8.94963
38 1 14.1518 7.8621 1.5724 -8.94962
183 1 1.57242 4.71726 11.007 -8.94963
40 1 17.2966 7.86211 1.57242 -8.94965
350 1 20.4415 11.007 1.57242 -8.94963
42 1 20.4415 7.86211 1.57242 -8.94963
345 1 4.71726 11.007 1.57242 -8.94962
44 1 3.14484 9.43453 4.57194e-08 -8.94963
349 1 17.2966 11.007 1.57242 -8.94964
348 1 14.1518 11.007 1.57242 -8.94962
347 1 11.0069 11.007 1.57219 -8.95103
346 1 7.86211 11.007 1.57242 -8.94968
344 1 1.57242 11.007 1.57242 -8.94963
181 1 17.2966 1.57242 11.007 -8.94963
51 1 1.57242 1.57242 4.71726 -8.94963
175 1 18.8691 9.43452 9.43453 -8.94966
53 1 4.71726 1.57242 4.71726 -8.94963
54 1 6.28969 -1.43462e-09 3.14484 -8.94963
55 1 7.86211 1.57242 4.71726 -8.94963
174 1 15.7245 9.4344 9.43452 -8.94951
57 1 11.007 1.57242 4.71726 -8.94963
173 1 12.583 9.43191 9.43438 -8.94976
59 1 14.1518 1.57242 4.71726 -8.94963
60 1 15.7242 -1.15575e-09 3.14484 -8.94963
61 1 17.2966 1.57242 4.71726 -8.94963
172 1 9.37422 9.30521 9.43576 -8.06426
63 1 20.4415 1.57242 4.71726 -8.94963
64 1 22.0139 3.14484 3.14484 -8.94963
65 1 1.57242 4.71726 4.71726 -8.94963
66 1 3.14484 3.14484 3.14484 -8.94963
67 1 4.71725 4.71725 4.71725 -8.94949
68 1 6.28969 3.14484 3.14484 -8.94965
69 1 7.86211 4.71728 4.71727 -8.94983
70 1 9.43453 3.14484 3.14484 -8.94963
71 1 11.0069 4.71727 4.71726 -8.94964
72 1 12.5794 3.14484 3.14484 -8.94964
73 1 14.1518 4.71725 4.71726 -8.94964
74 1 15.7242 3.14484 3.14484 -8.94963
75 1 17.2966 4.71726 4.71726 -8.94964
76 1 18.8691 3.14484 3.14484 -8.94963
77 1 20.4415 4.71726 4.71726 -8.94963
78 1 22.0139 6.28969 3.14484 -8.94963
79 1 1.57242 7.86211 4.71726 -8.94963
80 1 3.14484 6.28969 3.14484 -8.94964
81 1 4.71726 7.8621 4.71726 -8.94973
82 1 6.28968 6.28968 3.14483 -8.94964
83 1 7.862 7.86201 4.71696 -8.95043
84 1 9.43453 6.28968 3.14485 -8.94964
85 1 11.0069 7.86215 4.71722 -8.95128
86 1 12.5794 6.2897 3.14485 -8.94983
87 1 14.1521 7.86179 4.71695 -8.9468
88 1 15.7242 6.28967 3.14483 -8.94949
89 1 17.2967 7.8621 4.71726 -8.94965
90 1 18.8691 6.28969 3.14484 -8.94963
91 1 20.4415 7.86211 4.71726 -8.94963
92 1 4.18593e-08 9.43453 3.14484 -8.94963
93 1 3.14484 9.43453 3.14484 -8.94965
94 1 6.28968 9.43453 3.14483 -8.94971
95 1 9.43441 9.4344 3.14467 -8.949
96 1 12.5795 9.43439 3.14451 -8.95022
97 1 15.7242 9.43453 3.14485 -8.9498
98 1 18.8691 9.43453 3.14484 -8.94963
99 1 22.0139 6.95555e-10 6.28969 -8.94963
100 1 1.57242 1.57242 7.86211 -8.94963
101 1 3.14484 5.02192e-09 6.28969 -8.94963
102 1 4.71726 1.57242 7.86211 -8.94963
171 1 6.28633 9.43406 9.43453 -8.96237
104 1 7.8621 1.57241 7.8621 -8.94969
170 1 3.14471 9.43453 9.43453 -8.95044
106 1 11.007 1.57241 7.8621 -8.94964
169 1 22.0139 9.43453 9.43453 -8.94967
108 1 14.1518 1.57242 7.86211 -8.94964
168 1 18.8691 6.28969 9.43453 -8.94963
110 1 17.2966 1.57242 7.86211 -8.94963
111 1 18.8691 5.01023e-09 6.28969 -8.94963
112 1 20.4415 1.57242 7.86211 -8.94963
113 1 3.52668e-08 3.14484 6.28969 -8.94963
114 1 1.57242 4.71726 7.86211 -8.94963
115 1 3.14484 3.14484 6.28969 -8.94965
116 1 4.71727 4.71727 7.86211 -8.9498
117 1 6.28968 3.14482 6.28968 -8.94962
118 1 7.86197 4.71693 7.86197 -8.95021
119 1 9.43453 3.14484 6.28969 -8.94964
120 1 11.0071 4.71709 7.86199 -8.949
121 1 12.5794 3.14483 6.28968 -8.94965
122 1 14.1518 4.71726 7.86211 -8.9497
123 1 15.7242 3.14484 6.28969 -8.94964
124 1 17.2966 4.71727 7.86211 -8.94964
125 1 18.8691 3.14484 6.28969 -8.94963
126 1 20.4415 4.71726 7.86211 -8.94963
127 1 22.0139 6.28969 6.28969 -8.94963
128 1 1.57241 7.86211 7.86211 -8.94969
129 1 3.14483 6.28968 6.28968 -8.94965
130 1 4.71698 7.86203 7.86202 -8.95065
131 1 6.28938 6.28937 6.28937 -8.9468
132 1 7.85607 7.85636 7.85614 -8.90181
133 1 9.4346 6.28964 6.28973 -8.95133
134 1 11.009 7.86093 7.85997 -8.93562
135 1 12.5795 6.28939 6.28958 -8.95044
136 1 14.152 7.86193 7.86203 -8.94911
137 1 15.7242 6.28969 6.28968 -8.94974
138 1 17.2967 7.8621 7.8621 -8.94964
139 1 18.8691 6.28969 6.28969 -8.94963
140 1 20.4415 7.86211 7.86211 -8.94964
141 1 22.0139 9.43453 6.28969 -8.94964
142 1 3.14483 9.43453 6.28968 -8.94964
143 1 6.28942 9.43443 6.28949 -8.94897
144 1 9.43258 9.43235 6.28845 -8.93555
145 1 12.5854 9.42857 6.28395 -8.90171
146 1 15.7245 9.43443 6.2896 -8.95056
147 1 18.8691 9.43453 6.28968 -8.94969
167 1 15.7242 6.28969 9.43453 -8.94964
166 1 12.5793 6.28959 9.43449 -8.95076
150 1 6.28969 -9.83336e-08 9.43453 -8.94963
165 1 9.43435 6.2843 9.43449 -8.97274
164 1 6.28964 6.28962 9.43453 -8.95138
153 1 15.7242 -9.73664e-08 9.43453 -8.94963
163 1 3.14484 6.28968 9.43453 -8.94961
155 1 22.0139 3.14484 9.43453 -8.94963
156 1 3.14484 3.14484 9.43453 -8.94964
157 1 6.28969 3.14484 9.43453 -8.94962
158 1 9.43453 3.14461 9.43453 -8.95103
159 1 12.5794 3.14484 9.43453 -8.94967
160 1 15.7242 3.14484 9.43453 -8.94963
161 1 18.8691 3.14484 9.43453 -8.94963
162 1 -9.36178e-08 6.28969 9.43453 -8.94963
177 1 4.71726 1.57242 11.007 -8.94963
184 1 4.71727 4.71727 11.0069 -8.9498
48 1 15.7242 9.43453 3.99267e-07 -8.94963
189 1 20.4415 4.71726 11.007 -8.94963
3 1 3.14484 1.13883e-10 2.07717e-09 -8.94963
19 1 6.28969 3.14484 4.02394e-08 -8.94963
25 1 15.7242 3.14484 2.75387e-08 -8.94963
29 1 22.0139 6.28969 1.47567e-09 -8.94963
176 1 1.57242 1.57242 11.007 -8.94963
644 1 20.4415 11.007 20.4415 -8.94963
178 1 7.8621 1.57241 11.007 -8.94969
179 1 11.007 1.57241 11.007 -8.94968
180 1 14.1518 1.57242 11.007 -8.94964
643 1 17.2966 11.007 20.4415 -8.94963
182 1 20.4415 1.57242 11.007 -8.94963
639 1 4.71726 11.007 20.4415 -8.94963
638 1 1.57242 11.007 20.4415 -8.94963
185 1 7.86197 4.71693 11.0071 -8.95024
186 1 11.0071 4.71702 11.0071 -8.94956
187 1 14.1518 4.71726 11.0069 -8.94973
295 1 22.0139 4.3305e-10 18.8691 -8.94963
39 1 15.7242 6.28969 22.0139 -8.94963
190 1 1.57241 7.86211 11.007 -8.94969
191 1 4.71698 7.86203 11.007 -8.95067
192 1 7.85605 7.85634 11.013 -8.90123
193 1 11.009 7.85883 11.0092 -8.94416
194 1 14.152 7.86193 11.007 -8.94986
195 1 17.2967 7.8621 11.007 -8.94966
196 1 20.4415 7.86211 11.007 -8.94964
197 1 22.0139 -9.28539e-10 12.5794 -8.94963
198 1 1.57242 1.57242 14.1518 -8.94963
343 1 18.8691 9.43453 18.8691 -8.94963
200 1 4.71726 1.57242 14.1518 -8.94963
201 1 6.28969 -1.82618e-07 12.5794 -8.94964
202 1 7.86211 1.57242 14.1518 -8.94963
203 1 9.43453 1.7389e-06 12.5794 -8.94963
204 1 11.007 1.57242 14.1518 -8.94964
205 1 12.5794 1.74282e-06 12.5794 -8.94963
206 1 14.1518 1.57242 14.1518 -8.94963
207 1 15.7242 -1.80235e-07 12.5794 -8.94963
208 1 17.2966 1.57242 14.1518 -8.94963
342 1 15.7242 9.43453 18.8691 -8.94966
210 1 20.4415 1.57242 14.1518 -8.94963
211 1 3.51794e-08 3.14484 12.5794 -8.94963
212 1 1.57242 4.71726 14.1518 -8.94963
213 1 3.14484 3.14484 12.5794 -8.94965
214 1 4.71725 4.71725 14.1518 -8.94949
215 1 6.28968 3.14483 12.5794 -8.94962
216 1 7.86211 4.71727 14.1518 -8.94982
217 1 9.43453 3.14484 12.5794 -8.94964
218 1 11.0069 4.71726 14.1518 -8.94971
219 1 12.5794 3.14483 12.5794 -8.94965
220 1 14.1518 4.71725 14.1518 -8.94963
221 1 15.7242 3.14484 12.5794 -8.94964
222 1 17.2966 4.71726 14.1518 -8.94964
223 1 18.8691 3.14484 12.5794 -8.94963
224 1 20.4415 4.71726 14.1518 -8.94963
225 1 22.0139 6.28969 12.5794 -8.94963
226 1 1.57242 7.86211 14.1518 -8.94963
227 1 3.14483 6.28968 12.5794 -8.94965
228 1 4.71726 7.8621 14.1518 -8.94976
229 1 6.28937 6.28937 12.5797 -8.94678
230 1 7.86198 7.86197 14.1521 -8.95038
231 1 9.43456 6.28959 12.5794 -8.95103
232 1 11.0069 7.86194 14.1519 -8.95241
233 1 12.5795 6.28933 12.5795 -8.95016
234 1 14.1521 7.86174 14.1521 -8.94655
235 1 15.7242 6.28969 12.5794 -8.94974
236 1 17.2967 7.8621 14.1518 -8.94968
237 1 18.8691 6.28969 12.5794 -8.94963
238 1 20.4415 7.86211 14.1518 -8.94964
239 1 22.0139 9.43453 12.5794 -8.94963
240 1 3.14483 9.43453 12.5794 -8.94965
241 1 6.28947 9.43449 12.5795 -8.94969
242 1 9.43215 9.43211 12.5815 -8.98793
243 1 12.5861 9.42801 12.5863 -8.94755
244 1 15.7245 9.43449 12.5794 -8.9513
245 1 18.8691 9.43453 12.5794 -8.9497
47 1 12.5794 9.43453 22.0139 -8.94969
247 1 1.57242 1.57242 17.2966 -8.94963
248 1 3.14484 6.88196e-09 15.7242 -8.94963
249 1 4.71726 1.57242 17.2966 -8.94963
341 1 12.5794 9.43452 18.8691 -8.94971
251 1 7.86211 1.57242 17.2966 -8.94963
252 1 9.43453 2.53762e-07 15.7242 -8.94964
253 1 11.007 1.57242 17.2966 -8.94963
254 1 12.5794 2.54203e-07 15.7242 -8.94964
255 1 14.1518 1.57242 17.2966 -8.94963
340 1 9.43452 9.43452 18.8691 -8.94967
257 1 17.2966 1.57242 17.2966 -8.94963
258 1 18.8691 7.05868e-09 15.7242 -8.94963
259 1 20.4415 1.57242 17.2966 -8.94963
260 1 22.0139 3.14484 15.7242 -8.94963
261 1 1.57242 4.71726 17.2966 -8.94963
262 1 3.14484 3.14484 15.7242 -8.94963
263 1 4.71726 4.71726 17.2966 -8.94963
264 1 6.28969 3.14484 15.7242 -8.94965
265 1 7.86211 4.71726 17.2966 -8.94963
266 1 9.43453 3.14484 15.7242 -8.94964
267 1 11.007 4.71726 17.2966 -8.94963
268 1 12.5794 3.14484 15.7242 -8.94964
269 1 14.1518 4.71726 17.2966 -8.94965
270 1 15.7242 3.14484 15.7242 -8.94963
271 1 17.2966 4.71726 17.2966 -8.94963
272 1 18.8691 3.14484 15.7242 -8.94963
273 1 20.4415 4.71726 17.2966 -8.94963
274 1 22.0139 6.28969 15.7242 -8.94963
275 1 1.57242 7.86211 17.2966 -8.94963
276 1 3.14484 6.28969 15.7242 -8.94964
277 1 4.71726 7.86211 17.2966 -8.94964
278 1 6.28968 6.28968 15.7242 -8.94963
279 1 7.86209 7.86209 17.2967 -8.94956
280 1 9.43453 6.28967 15.7242 -8.94967
281 1 11.0069 7.86212 17.2966 -8.9497
282 1 12.5794 6.28968 15.7242 -8.94987
283 1 14.1518 7.86209 17.2967 -8.94954
284 1 15.7242 6.28967 15.7242 -8.94948
285 1 17.2966 7.86211 17.2966 -8.94965
286 1 18.8691 6.28969 15.7242 -8.94963
287 1 20.4415 7.86211 17.2966 -8.94963
288 1 4.19232e-08 9.43453 15.7242 -8.94963
289 1 3.14484 9.43453 15.7242 -8.94963
290 1 6.28968 9.43454 15.7242 -8.94967
291 1 9.43423 9.4342 15.7246 -8.94794
292 1 12.5797 9.43418 15.7248 -8.94924
293 1 15.7242 9.43454 15.7242 -8.94977
294 1 18.8691 9.43453 15.7242 -8.94962
339 1 6.28969 9.43453 18.8691 -8.94966
296 1 1.57242 1.57242 20.4415 -8.94963
338 1 3.14484 9.43453 18.8691 -8.94963
298 1 4.71726 1.57242 20.4415 -8.94963
299 1 6.28969 2.69313e-08 18.8691 -8.94963
300 1 7.86211 1.57242 20.4415 -8.94963
337 1 22.0139 9.43453 18.8691 -8.94963
302 1 11.007 1.57242 20.4415 -8.94963
336 1 20.4415 7.86211 20.4415 -8.94963
304 1 14.1518 1.57242 20.4415 -8.94963
305 1 15.7242 2.70581e-08 18.8691 -8.94963
306 1 17.2966 1.57242 20.4415 -8.94963
335 1 18.8691 6.28969 18.8691 -8.94963
308 1 20.4415 1.57242 20.4415 -8.94963
309 1 22.0139 3.14484 18.8691 -8.94963
310 1 1.57242 4.71726 20.4415 -8.94963
311 1 3.14484 3.14484 18.8691 -8.94963
312 1 4.71726 4.71726 20.4415 -8.94963
313 1 6.28969 3.14484 18.8691 -8.94963
314 1 7.86211 4.71726 20.4415 -8.94963
315 1 9.43453 3.14484 18.8691 -8.94963
316 1 11.007 4.71726 20.4415 -8.94963
317 1 12.5794 3.14484 18.8691 -8.94963
318 1 14.1518 4.71726 20.4415 -8.94963
319 1 15.7242 3.14484 18.8691 -8.94963
320 1 17.2966 4.71726 20.4415 -8.94963
321 1 18.8691 3.14484 18.8691 -8.94963
322 1 20.4415 4.71726 20.4415 -8.94963
323 1 22.0139 6.28969 18.8691 -8.94963
324 1 1.57242 7.86211 20.4415 -8.94963
325 1 3.14484 6.28969 18.8691 -8.94963
326 1 4.71726 7.86211 20.4415 -8.94963
327 1 6.28969 6.28969 18.8691 -8.94963
328 1 7.86211 7.86211 20.4415 -8.94963
329 1 9.43453 6.28969 18.8691 -8.94964
330 1 11.007 7.86211 20.4415 -8.94963
331 1 12.5794 6.28969 18.8691 -8.94964
332 1 14.1518 7.86211 20.4415 -8.94963
333 1 15.7242 6.28969 18.8691 -8.94962
334 1 17.2966 7.86211 20.4415 -8.94963
512 1 1.57241 11.0069 11.007 -8.94967
513 1 4.71694 11.0069 11.007 -8.94922
515 1 11.0708 10.9728 11.1254 -8.34648
594 1 17.2966 11.007 17.2966 -8.94967
590 1 4.71727 11.007 17.2966 -8.94966
540 1 1.57242 11.0069 14.1518 -8.94962
541 1 4.71726 11.0069 14.1518 -8.94927
543 1 11.0071 11.004 14.1622 -9.01154
545 1 17.2967 11.0069 14.1518 -8.94925
546 1 20.4415 11.0069 14.1518 -8.94963
46 1 9.43453 9.43453 22.0139 -8.94965
33 1 6.28969 6.28969 22.0139 -8.94963
45 1 6.28969 9.43453 22.0139 -8.94964
41 1 18.8691 6.28969 22.0139 -8.94963
15 1 22.0139 3.14484 22.0139 -8.94963
17 1 3.14484 3.14484 22.0139 -8.94963
31 1 3.14484 6.28969 22.0139 -8.94963
27 1 18.8691 3.14484 22.0139 -8.94963
21 1 9.43453 3.14484 22.0139 -8.94963
23 1 12.5794 3.14484 22.0139 -8.94963
43 1 22.0139 9.43453 22.0139 -8.94963
49 1 18.8691 9.43453 22.0139 -8.94963
688 3 10.2186 11.0092 9.43194 3.16364
511 1 18.8691 18.8691 9.43453 -8.94963
510 1 15.7242 18.8691 9.43453 -8.94966
509 1 12.5794 18.8691 9.4345 -8.94933
508 1 9.4345 18.8693 9.4345 -8.95066
507 1 6.28968 18.8691 9.43453 -8.94965
506 1 3.14484 18.8691 9.43453 -8.94964
50 1 1.63361e-09 22.0139 3.14484 -8.94963
352 1 1.57242 14.1518 1.57242 -8.94963
154 1 18.8691 22.0139 9.43453 -8.94963
354 1 4.71726 14.1518 1.57242 -8.94964
152 1 12.5794 22.0139 9.43453 -8.94963
356 1 7.8621 14.1518 1.57241 -8.94965
151 1 9.43453 22.0139 9.43453 -8.94974
358 1 11.0069 14.1518 1.57242 -8.94963
149 1 3.14484 22.0139 9.43453 -8.94963
360 1 14.1518 14.1518 1.5724 -8.94962
361 1 15.7242 12.5794 6.0742e-07 -8.94963
362 1 17.2966 14.1518 1.57242 -8.94965
148 1 2.06888e-10 22.0139 9.43453 -8.94963
364 1 20.4415 14.1518 1.57242 -8.94963
109 1 15.7242 22.0139 6.28969 -8.94963
366 1 1.57242 17.2966 1.57242 -8.94963
367 1 3.14484 15.7242 3.40327e-08 -8.94963
368 1 4.71726 17.2966 1.57242 -8.94963
393 1 1.57242 11.007 4.71726 -8.94963
370 1 7.86211 17.2966 1.57242 -8.94964
371 1 9.43453 15.7242 9.21695e-07 -8.94964
372 1 11.007 17.2966 1.57242 -8.94963
373 1 12.5794 15.7242 1.265e-06 -8.94964
374 1 14.1518 17.2966 1.57242 -8.94965
537 1 14.1518 20.4415 11.0069 -8.94964
376 1 17.2966 17.2966 1.57242 -8.94963
377 1 18.8691 15.7242 4.86281e-08 -8.94963
378 1 20.4415 17.2966 1.57242 -8.94963
103 1 6.28969 22.0139 6.28969 -8.94963
380 1 1.57242 20.4415 1.57242 -8.94963
62 1 18.8691 22.0139 3.14484 -8.94963
382 1 4.71726 20.4415 1.57242 -8.94963
383 1 6.28969 18.8691 9.41005e-08 -8.94963
384 1 7.86211 20.4415 1.57242 -8.94963
58 1 12.5794 22.0139 3.14484 -8.94963
386 1 11.007 20.4415 1.57242 -8.94963
56 1 9.43453 22.0139 3.14484 -8.94963
388 1 14.1518 20.4415 1.57242 -8.94963
389 1 15.7242 18.8691 8.18838e-08 -8.94963
390 1 17.2966 20.4415 1.57242 -8.94963
52 1 3.14484 22.0139 3.14484 -8.94963
392 1 20.4415 20.4415 1.57242 -8.94963
505 1 22.0139 18.8691 9.43453 -8.94963
504 1 18.8691 15.7242 9.43453 -8.94962
503 1 15.7242 15.7242 9.43453 -8.94974
502 1 12.58 15.7241 9.43431 -8.98876
501 1 9.43373 15.7293 9.43435 -9.01109
500 1 6.28961 15.7243 9.43453 -8.95149
399 1 20.4415 11.007 4.71726 -8.94963
400 1 4.24896e-08 12.5794 3.14484 -8.94963
401 1 1.57242 14.1518 4.71726 -8.94963
402 1 3.14484 12.5794 3.14484 -8.94964
403 1 4.71726 14.1518 4.71726 -8.94974
404 1 6.28968 12.5794 3.14484 -8.94971
405 1 7.86199 14.1519 4.71694 -8.95046
406 1 9.43441 12.5795 3.14466 -8.94908
407 1 11.0069 14.1518 4.71725 -8.95103
408 1 12.5795 12.5795 3.1445 -8.9503
409 1 14.1521 14.1521 4.71693 -8.94677
410 1 15.7242 12.5794 3.14485 -8.9498
411 1 17.2967 14.1518 4.71726 -8.94966
412 1 18.8691 12.5794 3.14484 -8.94963
413 1 20.4415 14.1518 4.71726 -8.94963
414 1 22.0139 15.7242 3.14484 -8.94963
415 1 1.57242 17.2966 4.71726 -8.94963
416 1 3.14484 15.7242 3.14484 -8.94964
417 1 4.71725 17.2966 4.71725 -8.94948
418 1 6.28968 15.7242 3.14483 -8.94964
419 1 7.86212 17.2966 4.71728 -8.94986
420 1 9.43453 15.7242 3.14485 -8.94964
421 1 11.0069 17.2966 4.71726 -8.94961
422 1 12.5794 15.7242 3.14486 -8.94983
423 1 14.1518 17.2966 4.71726 -8.94966
424 1 15.7242 15.7242 3.14483 -8.94949
425 1 17.2966 17.2966 4.71726 -8.94964
426 1 18.8691 15.7242 3.14484 -8.94963
427 1 20.4415 17.2966 4.71726 -8.94963
428 1 22.0139 18.8691 3.14484 -8.94963
429 1 1.57242 20.4415 4.71726 -8.94963
430 1 3.14484 18.8691 3.14484 -8.94963
431 1 4.71726 20.4415 4.71726 -8.94963
432 1 6.28969 18.8691 3.14484 -8.94965
433 1 7.86211 20.4415 4.71726 -8.94964
434 1 9.43453 18.8691 3.14484 -8.94963
435 1 11.007 20.4415 4.71726 -8.94963
436 1 12.5794 18.8691 3.14484 -8.94963
437 1 14.1518 20.4415 4.71726 -8.94963
438 1 15.7242 18.8691 3.14484 -8.94963
439 1 17.2966 20.4415 4.71726 -8.94963
440 1 18.8691 18.8691 3.14484 -8.94963
441 1 20.4415 20.4415 4.71726 -8.94963
499 1 3.14484 15.7242 9.43453 -8.9496
498 1 -1.0402e-07 15.7242 9.43453 -8.94963
497 1 18.8691 12.5794 9.43453 -8.94973
445 1 11.0681 11.0082 7.73333 -8.05825
496 1 15.7247 12.5795 9.4345 -8.95043
495 1 12.5855 12.5823 9.43028 -8.94248
494 1 9.3702 12.7109 9.42975 -8.05186
449 1 22.0139 12.5794 6.28969 -8.94964
450 1 1.57241 14.1518 7.86211 -8.9497
451 1 3.14483 12.5794 6.28968 -8.94964
452 1 4.71697 14.1519 7.86202 -8.95072
453 1 6.28943 12.5795 6.2895 -8.94915
454 1 7.85569 14.1579 7.85573 -8.89755
455 1 9.43251 12.5816 6.28817 -8.93674
456 1 11.009 14.1524 7.8607 -8.98435
457 1 12.5855 12.5854 6.28367 -8.90203
458 1 14.1522 14.1521 7.86181 -8.94813
459 1 15.7245 12.5795 6.28961 -8.95069
460 1 17.2967 14.1518 7.8621 -8.94968
461 1 18.8691 12.5794 6.28968 -8.94969
462 1 20.4415 14.1518 7.86211 -8.94964
463 1 22.0139 15.7242 6.28969 -8.94963
464 1 1.57242 17.2966 7.86211 -8.94963
465 1 3.14483 15.7242 6.28968 -8.94965
466 1 4.71727 17.2966 7.86211 -8.9498
467 1 6.28936 15.7245 6.28935 -8.9466
468 1 7.86198 17.297 7.86198 -8.95022
469 1 9.43464 15.7242 6.28976 -8.95169
470 1 11.0071 17.2967 7.86209 -8.94976
471 1 12.5794 15.7245 6.28963 -8.95074
472 1 14.1518 17.2966 7.86212 -8.94965
473 1 15.7242 15.7242 6.28967 -8.94965
474 1 17.2966 17.2966 7.86211 -8.94964
475 1 18.8691 15.7242 6.28969 -8.94963
476 1 20.4415 17.2966 7.86211 -8.94963
477 1 3.49895e-08 18.8691 6.28969 -8.94963
478 1 1.57242 20.4415 7.86211 -8.94963
479 1 3.14484 18.8691 6.28969 -8.94965
480 1 4.71726 20.4415 7.86211 -8.94963
481 1 6.28968 18.8691 6.28968 -8.94963
482 1 7.8621 20.4415 7.8621 -8.94968
483 1 9.43454 18.8691 6.28969 -8.94968
484 1 11.007 20.4415 7.86211 -8.94963
485 1 12.5794 18.8691 6.28968 -8.94968
486 1 14.1518 20.4415 7.86211 -8.94962
487 1 15.7242 18.8691 6.28969 -8.94964
488 1 17.2966 20.4415 7.86211 -8.94963
489 1 18.8691 18.8691 6.28969 -8.94963
490 1 20.4415 20.4415 7.86211 -8.94963
491 1 22.0139 12.5794 9.43453 -8.94967
492 1 3.14471 12.5794 9.43453 -8.95052
493 1 6.28615 12.5798 9.43451 -8.96326
516 1 14.1553 11.0069 11.0069 -9.01745
522 1 11.0089 14.1827 10.9944 -9.2182
523 1 14.152 14.152 11.0065 -9.00358
524 1 17.2967 14.1518 11.0069 -8.9493
525 1 20.4415 14.1518 11.0069 -8.94963
526 1 1.57242 17.2966 11.007 -8.94963
527 1 4.71727 17.2966 11.0069 -8.9498
530 1 14.1518 17.2966 11.007 -8.95025
531 1 17.2966 17.2966 11.007 -8.94965
394 1 4.71728 11.007 4.71727 -8.94963
398 1 17.2966 11.007 4.71726 -8.94962
355 1 6.28969 12.5794 6.31763e-08 -8.94964
379 1 22.0139 18.8691 3.53605e-10 -8.94963
687 2 11.0057 12.5817 11.791 1.05546
686 1 20.4415 20.4415 20.4415 -8.94963
514 1 7.85888 11.0069 11.0095 -8.96206
685 1 18.8691 18.8691 18.8691 -8.94963
307 1 18.8691 22.0139 18.8691 -8.94963
684 1 17.2966 20.4415 20.4415 -8.94963
683 1 15.7242 18.8691 18.8691 -8.94963
519 1 1.57241 14.1518 11.007 -8.94969
520 1 4.71695 14.1519 11.007 -8.95032
521 1 7.85607 14.1577 11.0125 -8.95515
303 1 12.5794 22.0139 18.8691 -8.94963
301 1 9.43453 22.0139 18.8691 -8.94963
297 1 3.14484 22.0139 18.8691 -8.94963
391 1 18.8691 18.8691 22.0139 -8.94963
256 1 15.7242 22.0139 15.7242 -8.94963
250 1 6.28969 22.0139 15.7242 -8.94963
528 1 7.86202 17.2969 11.0071 -8.95078
529 1 11.0071 17.2985 11.0071 -8.95685
209 1 18.8691 22.0139 12.5794 -8.94963
199 1 3.14484 22.0139 12.5794 -8.94963
671 1 18.8691 15.7242 18.8691 -8.94963
533 1 1.57242 20.4415 11.007 -8.94963
534 1 4.71726 20.4415 11.007 -8.94963
670 1 17.2966 17.2966 20.4415 -8.94963
669 1 15.7242 15.7242 18.8691 -8.94965
668 1 14.1518 17.2966 20.4415 -8.94963
667 1 12.5794 15.7242 18.8691 -8.94966
539 1 20.4415 20.4415 11.007 -8.94963
682 1 14.1518 20.4415 20.4415 -8.94963
681 1 12.5794 18.8691 18.8691 -8.94964
542 1 7.86244 11.0063 14.1521 -8.98859
680 1 11.007 20.4415 20.4415 -8.94963
544 1 14.1516 11.0063 14.152 -8.98865
679 1 9.43453 18.8691 18.8691 -8.94964
678 1 7.86211 20.4415 20.4415 -8.94963
547 1 22.0139 12.5794 12.5794 -8.94967
548 1 1.57242 14.1518 14.1518 -8.94963
549 1 3.14477 12.5794 12.5794 -8.9501
550 1 4.71725 14.1518 14.1518 -8.94938
551 1 6.28779 12.5795 12.5795 -8.95672
552 1 7.86225 14.1526 14.1523 -8.98794
553 1 9.40348 12.5813 12.5951 -9.22234
554 1 11.0069 14.1546 14.1559 -8.98615
555 1 12.6138 12.5845 12.5989 -9.19179
556 1 14.1518 14.1528 14.1523 -8.98407
557 1 15.7262 12.5795 12.5794 -8.95785
558 1 17.2967 14.1518 14.1518 -8.94929
559 1 18.8691 12.5794 12.5794 -8.95015
560 1 20.4415 14.1518 14.1518 -8.94963
561 1 22.0139 15.7242 12.5794 -8.94963
562 1 1.57242 17.2966 14.1518 -8.94963
563 1 3.14483 15.7242 12.5794 -8.94966
564 1 4.71725 17.2966 14.1518 -8.94952
565 1 6.28941 15.7245 12.5797 -8.9473
566 1 7.86211 17.2966 14.1518 -8.94994
567 1 9.4345 15.7242 12.5798 -9.00575
568 1 11.0069 17.2968 14.1518 -8.95061
569 1 12.5796 15.7244 12.58 -9.00456
570 1 14.1518 17.2967 14.1518 -8.94974
571 1 15.7242 15.7242 12.5794 -8.95027
572 1 17.2966 17.2966 14.1518 -8.94967
573 1 18.8691 15.7242 12.5794 -8.94964
574 1 20.4415 17.2966 14.1518 -8.94963
575 1 3.5138e-08 18.8691 12.5794 -8.94963
576 1 1.57242 20.4415 14.1518 -8.94963
577 1 3.14484 18.8691 12.5794 -8.94964
578 1 4.71726 20.4415 14.1518 -8.94963
579 1 6.28968 18.8691 12.5794 -8.94963
580 1 7.86211 20.4415 14.1518 -8.94962
581 1 9.4345 18.8691 12.5794 -8.94931
582 1 11.007 20.4415 14.1518 -8.94969
583 1 12.5794 18.8691 12.5794 -8.94931
584 1 14.1518 20.4415 14.1518 -8.94962
585 1 15.7242 18.8691 12.5794 -8.94964
586 1 17.2966 20.4415 14.1518 -8.94963
587 1 18.8691 18.8691 12.5794 -8.94963
588 1 20.4415 20.4415 14.1518 -8.94963
677 1 6.28969 18.8691 18.8691 -8.94963
676 1 4.71726 20.4415 20.4415 -8.94963
591 1 7.86216 11.007 17.2966 -8.95002
592 1 11.0069 11.007 17.2971 -8.95243
593 1 14.1517 11.007 17.2966 -8.94996
675 1 3.14484 18.8691 18.8691 -8.94963
674 1 1.57242 20.4415 20.4415 -8.94963
596 1 4.36655e-08 12.5794 15.7242 -8.94963
597 1 1.57242 14.1518 17.2966 -8.94963
598 1 3.14485 12.5794 15.7242 -8.94963
599 1 4.71727 14.1518 17.2966 -8.94967
600 1 6.28981 12.5794 15.7241 -8.95043
601 1 7.86215 14.1518 17.2966 -8.94998
602 1 9.43516 12.5795 15.7235 -8.99779
603 1 11.0069 14.1518 17.2968 -8.95085
604 1 12.5788 12.5795 15.7237 -8.99864
605 1 14.1518 14.1518 17.2966 -8.94995
606 1 15.7241 12.5794 15.7241 -8.95053
607 1 17.2966 14.1518 17.2966 -8.94968
608 1 18.8691 12.5794 15.7242 -8.94962
609 1 20.4415 14.1518 17.2966 -8.94963
610 1 22.0139 15.7242 15.7242 -8.94963
611 1 1.57242 17.2966 17.2966 -8.94963
612 1 3.14484 15.7242 15.7242 -8.94963
613 1 4.71726 17.2966 17.2966 -8.94963
614 1 6.28968 15.7242 15.7242 -8.94958
615 1 7.8621 17.2966 17.2966 -8.94955
616 1 9.43438 15.7244 15.7244 -8.94871
617 1 11.007 17.2966 17.2966 -8.94966
618 1 12.5795 15.7244 15.7244 -8.94889
619 1 14.1518 17.2966 17.2966 -8.94956
620 1 15.7242 15.7242 15.7242 -8.94944
621 1 17.2966 17.2966 17.2966 -8.94963
622 1 18.8691 15.7242 15.7242 -8.94962
623 1 20.4415 17.2966 17.2966 -8.94963
624 1 22.0139 18.8691 15.7242 -8.94963
625 1 1.57242 20.4415 17.2966 -8.94963
626 1 3.14484 18.8691 15.7242 -8.94963
627 1 4.71726 20.4415 17.2966 -8.94963
628 1 6.28969 18.8691 15.7242 -8.94965
629 1 7.86211 20.4415 17.2966 -8.94963
630 1 9.43453 18.8691 15.7242 -8.94967
631 1 11.007 20.4415 17.2966 -8.94963
632 1 12.5794 18.8691 15.7242 -8.94968
633 1 14.1518 20.4415 17.2966 -8.94963
634 1 15.7242 18.8691 15.7242 -8.94963
635 1 17.2966 20.4415 17.2966 -8.94963
636 1 18.8691 18.8691 15.7242 -8.94963
637 1 20.4415 20.4415 17.2966 -8.94963
387 1 12.5794 18.8691 22.0139 -8.94963
673 1 22.0139 18.8691 18.8691 -8.94963
640 1 7.86211 11.007 20.4415 -8.94963
641 1 11.007 11.007 20.4415 -8.94982
642 1 14.1518 11.007 20.4415 -8.94963
672 1 20.4415 17.2966 20.4415 -8.94963
385 1 9.43453 18.8691 22.0139 -8.94963
645 1 22.0139 12.5794 18.8691 -8.94963
646 1 1.57242 14.1518 20.4415 -8.94963
647 1 3.14484 12.5794 18.8691 -8.94963
648 1 4.71726 14.1518 20.4415 -8.94963
649 1 6.28968 12.5794 18.8691 -8.9496
650 1 7.86211 14.1518 20.4415 -8.94963
651 1 9.43452 12.5794 18.869 -8.94933
652 1 11.007 14.1518 20.4415 -8.9497
653 1 12.5794 12.5794 18.869 -8.94937
654 1 14.1518 14.1518 20.4415 -8.94963
655 1 15.7242 12.5794 18.8691 -8.9496
656 1 17.2966 14.1518 20.4415 -8.94963
657 1 18.8691 12.5794 18.8691 -8.94963
658 1 20.4415 14.1518 20.4415 -8.94963
659 1 22.0139 15.7242 18.8691 -8.94963
660 1 1.57242 17.2966 20.4415 -8.94963
661 1 3.14484 15.7242 18.8691 -8.94963
662 1 4.71726 17.2966 20.4415 -8.94963
663 1 6.28969 15.7242 18.8691 -8.94966
664 1 7.86211 17.2966 20.4415 -8.94963
665 1 9.43452 15.7242 18.8691 -8.94966
666 1 11.007 17.2966 20.4415 -8.94963
353 1 3.14484 12.5794 22.0139 -8.94963
11 1 15.7242 22.0139 22.0139 -8.94963
357 1 9.43453 12.5794 22.0139 -8.94963
359 1 12.5794 12.5794 22.0139 -8.94968
363 1 18.8691 12.5794 22.0139 -8.94963
365 1 22.0139 15.7242 22.0139 -8.94963
369 1 6.28969 15.7242 22.0139 -8.94963
375 1 15.7242 15.7242 22.0139 -8.94963
5 1 6.28969 22.0139 22.0139 -8.94963
381 1 3.14484 18.8691 22.0139 -8.94963
595 1 20.4415 11.007 17.2966 -8.94963
246 1 1.62489e-09 22.0139 15.7242 -8.94963
589 1 1.57242 11.007 17.2966 -8.94963
351 1 22.0139 12.5794 22.0139 -8.94963
538 1 17.2966 20.4415 11.007 -8.94963
532 1 20.4415 17.2966 11.007 -8.94963
535 1 7.86211 20.4415 11.007 -8.94969
536 1 11.007 20.4415 11.007 -8.95011
1 1 22.0139 22.0139 22.0139 -8.94963
