ITEM: TIMESTEP
42
ITEM: NUMBER OF ATOMS
688
ITEM: BOX BOUNDS pp pp pp
0.0000000000000000e+00 2.2013900999999997e+01
0.0000000000000000e+00 2.2013900999999997e+01
0.0000000000000000e+00 2.2013900999999997e+01
ITEM: ATOMS id type x y z c_pot
518 1 20.4415 11.007 11.007 -8.94965
2 1 1.57242 1.57242 1.57242 -8.94963
448 1 20.4415 11.007 7.86211 -8.94965
4 1 4.71726 1.57242 1.57242 -8.94963
447 1 17.2967 11.0069 7.8621 -8.95021
6 1 7.86211 1.57242 1.57242 -8.94963
7 1 9.43453 6.50123e-10 1.64307e-09 -8.94963
8 1 11.007 1.57242 1.57242 -8.94963
9 1 12.5794 6.24215e-10 2.29229e-10 -8.94963
10 1 14.1518 1.57242 1.57242 -8.94963
446 1 14.1542 11.0068 7.86167 -8.96004
12 1 17.2966 1.57242 1.57242 -8.94963
13 1 18.8691 4.39619e-11 2.57698e-11 -8.94963
14 1 20.4415 1.57242 1.57242 -8.94963
444 1 7.85855 11.0069 7.85901 -8.90905
16 1 1.57242 4.71726 1.57242 -8.94963
443 1 4.71707 11.0069 7.86204 -8.94994
18 1 4.71726 4.71726 1.57242 -8.94963
442 1 1.57241 11.007 7.86211 -8.94967
20 1 7.86211 4.71726 1.57242 -8.94963
105 1 9.43453 -8.08548e-08 6.28969 -8.94963
22 1 11.007 4.71726 1.57242 -8.94963
107 1 12.5794 -7.4764e-08 6.28969 -8.94963
24 1 14.1518 4.71726 1.57242 -8.94964
517 1 17.2967 11.0069 11.0069 -8.94999
26 1 17.2966 4.71726 1.57242 -8.94963
397 1 14.1518 11.0069 4.71728 -8.95152
28 1 20.4415 4.71726 1.57242 -8.94963
396 1 11.007 11.0069 4.71324 -8.96969
30 1 1.57242 7.86211 1.57242 -8.94963
395 1 7.86216 11.0069 4.71721 -8.9511
32 1 4.71726 7.86211 1.57242 -8.94963
188 1 17.2966 4.71726 11.007 -8.94964
34 1 7.8621 7.8621 1.57242 -8.94964
35 1 9.43453 6.28969 1.95293e-07 -8.94963
36 1 11.0069 7.86211 1.57242 -8.94964
37 1 12.5794 6.28969 3.07493e-07 -8.94963
38 1 14.1518 7.8621 1.57241 -8.94962
183 1 1.57242 4.71726 11.007 -8.94963
40 1 17.2966 7.86211 1.57242 -8.94964
350 1 20.4415 11.007 1.57242 -8.94963
42 1 20.4415 7.86211 1.57242 -8.94963
345 1 4.71726 11.007 1.57242 -8.94963
44 1 3.14484 9.43453 1.92347e-08 -8.94963
349 1 17.2966 11.007 1.57242 -8.94963
348 1 14.1518 11.007 1.57242 -8.94963
347 1 11.0069 11.007 1.5723 -8.95069
346 1 7.86211 11.007 1.57242 -8.94967
344 1 1.57242 11.007 1.57242 -8.94963
181 1 17.2966 1.57242 11.007 -8.94963
51 1 1.57242 1.57242 4.71726 -8.94963
175 1 18.8691 9.43453 9.43453 -8.94966
53 1 4.71726 1.57242 4.71726 -8.94963
54 1 6.28969 6.47376e-10 3.14484 -8.94963
55 1 7.86211 1.57242 4.71726 -8.94963
174 1 15.7244 9.43447 9.43453 -8.94992
57 1 11.007 1.57242 4.71726 -8.94963
173 1 12.583 9.43207 9.43459 -8.95156
59 1 14.1518 1.57242 4.71726 -8.94963
60 1 15.7242 7.06154e-10 3.14484 -8.94963
61 1 17.2966 1.57242 4.71726 -8.94963
172 1 9.38145 9.32353 9.43533 -8.04425
63 1 20.4415 1.57242 4.71726 -8.94963
64 1 22.0139 3.14484 3.14484 -8.94963
65 1 1.57242 4.71726 4.71726 -8.94963
66 1 3.14484 3.14484 3.14484 -8.94963
67 1 4.71726 4.71726 4.71726 -8.94956
68 1 6.28969 3.14484 3.14484 -8.94964
69 1 7.86211 4.71727 4.71727 -8.94977
70 1 9.43453 3.14484 3.14484 -8.94963
71 1 11.0069 4.71727 4.71726 -8.94965
72 1 12.5794 3.14484 3.14484 -8.94963
73 1 14.1518 4.71726 4.71726 -8.94964
74 1 15.7242 3.14484 3.14484 -8.94963
75 1 17.2966 4.71726 4.71726 -8.94964
76 1 18.8691 3.14484 3.14484 -8.94963
77 1 20.4415 4.71726 4.71726 -8.94963
78 1 22.0139 6.28969 3.14484 -8.94963
79 1 1.57242 7.86211 4.71726 -8.94963
80 1 3.14484 6.28969 3.14484 -8.94964
81 1 4.71726 7.8621 4.71726 -8.94969
82 1 6.28968 6.28968 3.14484 -8.94964
83 1 7.86205 7.86206 4.71711 -8.95014
84 1 9.43453 6.28969 3.14485 -8.94965
85 1 11.0069 7.86216 4.71728 -8.95115
86 1 12.5794 6.28969 3.14485 -8.94977
87 1 14.1519 7.86195 4.71711 -8.94784
88 1 15.7242 6.28968 3.14484 -8.94956
89 1 17.2966 7.8621 4.71726 -8.94964
90 1 18.8691 6.28969 3.14484 -8.94963
91 1 20.4415 7.86211 4.71726 -8.94963
92 1 1.67358e-08 9.43453 3.14484 -8.94963
93 1 3.14484 9.43453 3.14484 -8.94964
94 1 6.28968 9.43453 3.14484 -8.94969
95 1 9.43446 9.43446 3.14475 -8.94915
96 1 12.5794 9.43445 3.14467 -8.94992
97 1 15.7242 9.43453 3.14485 -8.94976
98 1 18.8691 9.43453 3.14484 -8.94963
99 1 22.0139 2.5509e-10 6.28969 -8.94963
100 1 1.57242 1.57242 7.86211 -8.94963
101 1 3.14484 2.56148e-09 6.28969 -8.94963
102 1 4.71726 1.57242 7.86211 -8.94963
171 1 6.28745 9.43423 9.43453 -8.96076
104 1 7.86211 1.57242 7.86211 -8.94966
170 1 3.14478 9.43453 9.43453 -8.95018
106 1 11.007 1.57242 7.86211 -8.94964
169 1 22.0139 9.43453 9.43453 -8.94965
108 1 14.1518 1.57242 7.86211 -8.94963
168 1 18.8691 6.28969 9.43453 -8.94963
110 1 17.2966 1.57242 7.86211 -8.94963
111 1 18.8691 2.56287e-09 6.28969 -8.94963
112 1 20.4415 1.57242 7.86211 -8.94963
113 1 1.15676e-08 3.14484 6.28969 -8.94963
114 1 1.57242 4.71726 7.86211 -8.94963
115 1 3.14484 3.14484 6.28969 -8.94964
116 1 4.71727 4.71727 7.86211 -8.94976
117 1 6.28968 3.14484 6.28968 -8.94962
118 1 7.86203 4.71709 7.86203 -8.94992
119 1 9.43453 3.14485 6.28969 -8.94965
120 1 11.007 4.71717 7.86204 -8.94915
121 1 12.5794 3.14484 6.28968 -8.94964
122 1 14.1518 4.71726 7.86211 -8.94968
123 1 15.7242 3.14484 6.28969 -8.94963
124 1 17.2966 4.71726 7.86211 -8.94964
125 1 18.8691 3.14484 6.28969 -8.94963
126 1 20.4415 4.71726 7.86211 -8.94963
127 1 22.0139 6.28969 6.28969 -8.94963
128 1 1.57242 7.86211 7.86211 -8.94966
129 1 3.14484 6.28968 6.28968 -8.94964
130 1 4.71712 7.86207 7.86206 -8.95029
131 1 6.28953 6.28953 6.28953 -8.94784
132 1 7.85822 7.8584 7.85823 -8.91001
133 1 9.43457 6.2897 6.28974 -8.95119
134 1 11.0083 7.86131 7.86072 -8.93823
135 1 12.5794 6.28953 6.28964 -8.95014
136 1 14.1519 7.86201 7.86203 -8.94921
137 1 15.7242 6.28969 6.28968 -8.9497
138 1 17.2966 7.86211 7.86211 -8.94964
139 1 18.8691 6.28969 6.28969 -8.94963
140 1 20.4415 7.86211 7.86211 -8.94963
141 1 22.0139 9.43453 6.28969 -8.94963
142 1 3.14484 9.43453 6.28968 -8.94964
143 1 6.28954 9.43444 6.28957 -8.94905
144 1 9.43324 9.43311 6.28886 -8.93814
145 1 12.5832 9.43066 6.28599 -8.91009
146 1 15.7244 9.43448 6.28964 -8.95023
147 1 18.8691 9.43453 6.28969 -8.94966
167 1 15.7242 6.28969 9.43453 -8.94968
166 1 12.5793 6.28964 9.43451 -8.95076
150 1 6.28969 -2.27512e-08 9.43453 -8.94963
165 1 9.43443 6.28564 9.43451 -8.9696
164 1 6.28971 6.2897 9.43453 -8.95152
153 1 15.7242 -2.00432e-08 9.43453 -8.94963
163 1 3.14484 6.28969 9.43453 -8.94962
155 1 22.0139 3.14484 9.43453 -8.94963
156 1 3.14484 3.14484 9.43453 -8.94963
157 1 6.28969 3.14484 9.43453 -8.94963
158 1 9.43453 3.14472 9.43453 -8.95069
159 1 12.5794 3.14484 9.43453 -8.94967
160 1 15.7242 3.14484 9.43453 -8.94963
161 1 18.8691 3.14484 9.43453 -8.94963
162 1 2.48939e-09 6.28969 9.43453 -8.94963
177 1 4.71726 1.57242 11.007 -8.94963
184 1 4.71727 4.71727 11.0069 -8.94976
48 1 15.7242 9.43453 2.07261e-07 -8.94963
189 1 20.4415 4.71726 11.007 -8.94963
3 1 3.14484 4.37321e-11 5.26925e-10 -8.94963
19 1 6.28969 3.14484 1.28701e-08 -8.94963
25 1 15.7242 3.14484 8.51978e-09 -8.94963
29 1 22.0139 6.28969 3.82745e-10 -8.94963
176 1 1.57242 1.57242 11.007 -8.94963
644 1 20.4415 11.007 20.4415 -8.94963
178 1 7.86211 1.57242 11.007 -8.94966
179 1 11.007 1.57242 11.007 -8.94966
180 1 14.1518 1.57242 11.007 -8.94964
643 1 17.2966 11.007 20.4415 -8.94963
182 1 20.4415 1.57242 11.007 -8.94963
639 1 4.71726 11.007 20.4415 -8.94963
638 1 1.57242 11.007 20.4415 -8.94963
185 1 7.86203 4.71709 11.007 -8.94994
186 1 11.007 4.71713 11.007 -8.9495
187 1 14.1518 4.71726 11.0069 -8.9497
295 1 22.0139 1.47642e-10 18.8691 -8.94963
39 1 15.7242 6.28969 22.0139 -8.94963
190 1 1.57242 7.86211 11.007 -8.94966
191 1 4.71712 7.86207 11.007 -8.9503
192 1 7.85821 7.85839 11.0109 -8.90975
193 1 11.0083 7.85997 11.0084 -8.94515
194 1 14.1519 7.862 11.007 -8.94975
195 1 17.2966 7.8621 11.007 -8.94965
196 1 20.4415 7.86211 11.007 -8.94964
197 1 22.0139 -3.96268e-10 12.5794 -8.94963
198 1 1.57242 1.57242 14.1518 -8.94963
343 1 18.8691 9.43453 18.8691 -8.94963
200 1 4.71726 1.57242 14.1518 -8.94963
201 1 6.28969 -6.63494e-08 12.5794 -8.94963
202 1 7.86211 1.57242 14.1518 -8.94963
203 1 9.43453 7.06948e-07 12.5794 -8.94963
204 1 11.007 1.57242 14.1518 -8.94964
205 1 12.5794 7.09277e-07 12.5794 -8.94963
206 1 14.1518 1.57242 14.1518 -8.94963
207 1 15.7242 -6.57804e-08 12.5794 -8.94963
208 1 17.2966 1.57242 14.1518 -8.94963
342 1 15.7242 9.43453 18.8691 -8.94965
210 1 20.4415 1.57242 14.1518 -8.94963
211 1 1.15313e-08 3.14484 12.5794 -8.94963
212 1 1.57242 4.71726 14.1518 -8.94963
213 1 3.14484 3.14484 12.5794 -8.94964
214 1 4.71726 4.71726 14.1518 -8.94956
215 1 6.28968 3.14484 12.5794 -8.94962
216 1 7.86211 4.71727 14.1518 -8.94976
217 1 9.43453 3.14484 12.5794 -8.94964
218 1 11.0069 4.71726 14.1518 -8.9497
219 1 12.5794 3.14484 12.5794 -8.94964
220 1 14.1518 4.71726 14.1518 -8.94963
221 1 15.7242 3.14484 12.5794 -8.94963
222 1 17.2966 4.71726 14.1518 -8.94964
223 1 18.8691 3.14484 12.5794 -8.94963
224 1 20.4415 4.71726 14.1518 -8.94963
225 1 22.0139 6.28969 12.5794 -8.94963
226 1 1.57242 7.86211 14.1518 -8.94963
227 1 3.14484 6.28968 12.5794 -8.94964
228 1 4.71726 7.8621 14.1518 -8.94971
229 1 6.28953 6.28953 12.5795 -8.94783
230 1 7.86205 7.86205 14.152 -8.95013
231 1 9.43454 6.28968 12.5793 -8.95098
232 1 11.0069 7.86204 14.1518 -8.95212
233 1 12.5794 6.28951 12.5794 -8.94994
234 1 14.152 7.86193 14.152 -8.94773
235 1 15.7242 6.28969 12.5794 -8.9497
236 1 17.2966 7.8621 14.1518 -8.94966
237 1 18.8691 6.28969 12.5794 -8.94963
238 1 20.4415 7.86211 14.1518 -8.94963
239 1 22.0139 9.43453 12.5794 -8.94963
240 1 3.14484 9.43453 12.5794 -8.94965
241 1 6.28956 9.43447 12.5795 -8.94962
242 1 9.43303 9.43304 12.5807 -8.99149
243 1 12.5836 9.43044 12.5838 -8.95911
244 1 15.7243 9.43451 12.5794 -8.95081
245 1 18.8691 9.43453 12.5794 -8.94967
47 1 12.5794 9.43453 22.0139 -8.94966
247 1 1.57242 1.57242 17.2966 -8.94963
248 1 3.14484 3.71035e-09 15.7242 -8.94963
249 1 4.71726 1.57242 17.2966 -8.94963
341 1 12.5794 9.43452 18.8691 -8.94967
251 1 7.86211 1.57242 17.2966 -8.94963
252 1 9.43453 1.12113e-07 15.7242 -8.94963
253 1 11.007 1.57242 17.2966 -8.94963
254 1 12.5794 1.12147e-07 15.7242 -8.94963
255 1 14.1518 1.57242 17.2966 -8.94963
340 1 9.43452 9.43452 18.8691 -8.94965
257 1 17.2966 1.57242 17.2966 -8.94963
258 1 18.8691 3.74988e-09 15.7242 -8.94963
259 1 20.4415 1.57242 17.2966 -8.94963
260 1 22.0139 3.14484 15.7242 -8.94963
261 1 1.57242 4.71726 17.2966 -8.94963
262 1 3.14484 3.14484 15.7242 -8.94963
263 1 4.71726 4.71726 17.2966 -8.94963
264 1 6.28969 3.14484 15.7242 -8.94964
265 1 7.86211 4.71726 17.2966 -8.94963
266 1 9.43453 3.14484 15.7242 -8.94963
267 1 11.007 4.71726 17.2966 -8.94963
268 1 12.5794 3.14484 15.7242 -8.94964
269 1 14.1518 4.71726 17.2966 -8.94964
270 1 15.7242 3.14484 15.7242 -8.94963
271 1 17.2966 4.71726 17.2966 -8.94963
272 1 18.8691 3.14484 15.7242 -8.94963
273 1 20.4415 4.71726 17.2966 -8.94963
274 1 22.0139 6.28969 15.7242 -8.94963
275 1 1.57242 7.86211 17.2966 -8.94963
276 1 3.14484 6.28969 15.7242 -8.94964
277 1 4.71726 7.86211 17.2966 -8.94964
278 1 6.28968 6.28968 15.7242 -8.94963
279 1 7.8621 7.8621 17.2966 -8.94958
280 1 9.43453 6.28968 15.7242 -8.94967
281 1 11.0069 7.86212 17.2966 -8.9497
282 1 12.5794 6.28969 15.7242 -8.94979
283 1 14.1518 7.8621 17.2966 -8.94956
284 1 15.7242 6.28968 15.7242 -8.94956
285 1 17.2966 7.86211 17.2966 -8.94965
286 1 18.8691 6.28969 15.7242 -8.94963
287 1 20.4415 7.86211 17.2966 -8.94963
288 1 1.68482e-08 9.43453 15.7242 -8.94963
289 1 3.14484 9.43453 15.7242 -8.94963
290 1 6.28969 9.43454 15.7242 -8.94973
291 1 9.43435 9.43433 15.7245 -8.9483
292 1 12.5796 9.43432 15.7245 -8.94912
293 1 15.7242 9.43454 15.7242 -8.94981
294 1 18.8691 9.43453 15.7242 -8.94962
339 1 6.28969 9.43453 18.8691 -8.94965
296 1 1.57242 1.57242 20.4415 -8.94963
338 1 3.14484 9.43453 18.8691 -8.94963
298 1 4.71726 1.57242 20.4415 -8.94963
299 1 6.28969 1.00825e-08 18.8691 -8.94963
300 1 7.86211 1.57242 20.4415 -8.94963
337 1 22.0139 9.43453 18.8691 -8.94963
302 1 11.007 1.57242 20.4415 -8.94963
336 1 20.4415 7.86211 20.4415 -8.94963
304 1 14.1518 1.57242 20.4415 -8.94963
305 1 15.7242 1.01117e-08 18.8691 -8.94963
306 1 17.2966 1.57242 20.4415 -8.94963
335 1 18.8691 6.28969 18.8691 -8.94963
308 1 20.4415 1.57242 20.4415 -8.94963
309 1 22.0139 3.14484 18.8691 -8.94963
310 1 1.57242 4.71726 20.4415 -8.94963
311 1 3.14484 3.14484 18.8691 -8.94963
312 1 4.71726 4.71726 20.4415 -8.94963
313 1 6.28969 3.14484 18.8691 -8.94963
314 1 7.86211 4.71726 20.4415 -8.94963
315 1 9.43453 3.14484 18.8691 -8.94963
316 1 11.007 4.71726 20.4415 -8.94963
317 1 12.5794 3.14484 18.8691 -8.94963
318 1 14.1518 4.71726 20.4415 -8.94963
319 1 15.7242 3.14484 18.8691 -8.94963
320 1 17.2966 4.71726 20.4415 -8.94963
321 1 18.8691 3.14484 18.8691 -8.94963
322 1 20.4415 4.71726 20.4415 -8.94963
323 1 22.0139 6.28969 18.8691 -8.94963
324 1 1.57242 7.86211 20.4415 -8.94963
325 1 3.14484 6.28969 18.8691 -8.94963
326 1 4.71726 7.86211 20.4415 -8.94963
327 1 6.28969 6.28969 18.8691 -8.94963
328 1 7.86211 7.86211 20.4415 -8.94963
329 1 9.43453 6.28969 18.8691 -8.94964
330 1 11.007 7.86211 20.4415 -8.94963
331 1 12.5794 6.28969 18.8691 -8.94964
332 1 14.1518 7.86211 20.4415 -8.94963
333 1 15.7242 6.28969 18.8691 -8.94963
334 1 17.2966 7.86211 20.4415 -8.94963
512 1 1.57241 11.007 11.007 -8.94966
513 1 4.71706 11.0069 11.007 -8.9497
515 1 11.0623 10.9794 11.1086 -8.32056
594 1 17.2966 11.007 17.2966 -8.94965
590 1 4.71727 11.007 17.2966 -8.94964
540 1 1.57242 11.007 14.1518 -8.94963
541 1 4.71728 11.0069 14.1518 -8.94938
543 1 11.007 11.0045 14.1598 -9.0081
545 1 17.2966 11.0069 14.1518 -8.94932
546 1 20.4415 11.007 14.1518 -8.94963
46 1 9.43453 9.43453 22.0139 -8.94964
33 1 6.28969 6.28969 22.0139 -8.94963
45 1 6.28969 9.43453 22.0139 -8.94964
41 1 18.8691 6.28969 22.0139 -8.94963
15 1 22.0139 3.14484 22.0139 -8.94963
17 1 3.14484 3.14484 22.0139 -8.94963
31 1 3.14484 6.28969 22.0139 -8.94963
27 1 18.8691 3.14484 22.0139 -8.94963
21 1 9.43453 3.14484 22.0139 -8.94963
23 1 12.5794 3.14484 22.0139 -8.94963
43 1 22.0139 9.43453 22.0139 -8.94963
49 1 18.8691 9.43453 22.0139 -8.94963
688 3 10.2194 11.0084 9.43273 3.40346
511 1 18.8691 18.8691 9.43453 -8.94963
510 1 15.7242 18.8691 9.43453 -8.94964
509 1 12.5794 18.8691 9.43451 -8.94938
508 1 9.43451 18.8692 9.43451 -8.95039
507 1 6.28969 18.8691 9.43453 -8.94964
506 1 3.14484 18.8691 9.43453 -8.94963
50 1 3.90371e-10 22.0139 3.14484 -8.94963
352 1 1.57242 14.1518 1.57242 -8.94963
154 1 18.8691 22.0139 9.43453 -8.94963
354 1 4.71726 14.1518 1.57242 -8.94963
152 1 12.5794 22.0139 9.43453 -8.94963
356 1 7.8621 14.1518 1.57242 -8.94964
151 1 9.43453 22.0139 9.43453 -8.94969
358 1 11.0069 14.1518 1.57242 -8.94964
149 1 3.14484 22.0139 9.43453 -8.94963
360 1 14.1518 14.1518 1.57241 -8.94962
361 1 15.7242 12.5794 3.17182e-07 -8.94963
362 1 17.2966 14.1518 1.57242 -8.94964
148 1 5.80991e-10 22.0139 9.43453 -8.94963
364 1 20.4415 14.1518 1.57242 -8.94963
109 1 15.7242 22.0139 6.28969 -8.94963
366 1 1.57242 17.2966 1.57242 -8.94963
367 1 3.14484 15.7242 1.21495e-08 -8.94963
368 1 4.71726 17.2966 1.57242 -8.94963
393 1 1.57242 11.007 4.71726 -8.94963
370 1 7.86211 17.2966 1.57242 -8.94963
371 1 9.43453 15.7242 4.49106e-07 -8.94964
372 1 11.007 17.2966 1.57242 -8.94963
373 1 12.5794 15.7242 5.64208e-07 -8.94964
374 1 14.1518 17.2966 1.57242 -8.94964
537 1 14.1518 20.4415 11.007 -8.94964
376 1 17.2966 17.2966 1.57242 -8.94963
377 1 18.8691 15.7242 1.77252e-08 -8.94963
378 1 20.4415 17.2966 1.57242 -8.94963
103 1 6.28969 22.0139 6.28969 -8.94963
380 1 1.57242 20.4415 1.57242 -8.94963
62 1 18.8691 22.0139 3.14484 -8.94963
382 1 4.71726 20.4415 1.57242 -8.94963
383 1 6.28969 18.8691 3.22844e-08 -8.94963
384 1 7.86211 20.4415 1.57242 -8.94963
58 1 12.5794 22.0139 3.14484 -8.94963
386 1 11.007 20.4415 1.57242 -8.94963
56 1 9.43453 22.0139 3.14484 -8.94963
388 1 14.1518 20.4415 1.57242 -8.94963
389 1 15.7242 18.8691 2.80831e-08 -8.94963
390 1 17.2966 20.4415 1.57242 -8.94963
52 1 3.14484 22.0139 3.14484 -8.94963
392 1 20.4415 20.4415 1.57242 -8.94963
505 1 22.0139 18.8691 9.43453 -8.94963
504 1 18.8691 15.7242 9.43453 -8.94962
503 1 15.7242 15.7242 9.43453 -8.94975
502 1 12.5797 15.7239 9.43455 -8.99023
501 1 9.43411 15.7278 9.43457 -9.00914
500 1 6.2897 15.7242 9.43453 -8.9516
399 1 20.4415 11.007 4.71726 -8.94963
400 1 1.6863e-08 12.5794 3.14484 -8.94963
401 1 1.57242 14.1518 4.71726 -8.94963
402 1 3.14484 12.5794 3.14484 -8.94964
403 1 4.71726 14.1518 4.71727 -8.9497
404 1 6.28968 12.5794 3.14484 -8.94969
405 1 7.86205 14.1518 4.7171 -8.95015
406 1 9.43446 12.5794 3.14474 -8.9492
407 1 11.0069 14.1517 4.7173 -8.95093
408 1 12.5794 12.5794 3.14466 -8.94998
409 1 14.152 14.152 4.7171 -8.94783
410 1 15.7242 12.5794 3.14485 -8.94976
411 1 17.2966 14.1518 4.71726 -8.94965
412 1 18.8691 12.5794 3.14484 -8.94963
413 1 20.4415 14.1518 4.71726 -8.94963
414 1 22.0139 15.7242 3.14484 -8.94963
415 1 1.57242 17.2966 4.71726 -8.94963
416 1 3.14484 15.7242 3.14484 -8.94964
417 1 4.71726 17.2966 4.71726 -8.94956
418 1 6.28968 15.7242 3.14484 -8.94963
419 1 7.86211 17.2966 4.71727 -8.94978
420 1 9.43453 15.7242 3.14485 -8.94965
421 1 11.0069 17.2966 4.71726 -8.94962
422 1 12.5794 15.7242 3.14485 -8.94976
423 1 14.1518 17.2966 4.71726 -8.94965
424 1 15.7242 15.7242 3.14484 -8.94956
425 1 17.2966 17.2966 4.71726 -8.94963
426 1 18.8691 15.7242 3.14484 -8.94963
427 1 20.4415 17.2966 4.71726 -8.94963
428 1 22.0139 18.8691 3.14484 -8.94963
429 1 1.57242 20.4415 4.71726 -8.94963
430 1 3.14484 18.8691 3.14484 -8.94963
431 1 4.71726 20.4415 4.71726 -8.94963
432 1 6.28969 18.8691 3.14484 -8.94964
433 1 7.86211 20.4415 4.71726 -8.94963
434 1 9.43453 18.8691 3.14484 -8.94963
435 1 11.007 20.4415 4.71726 -8.94963
436 1 12.5794 18.8691 3.14484 -8.94963
437 1 14.1518 20.4415 4.71726 -8.94963
438 1 15.7242 18.8691 3.14484 -8.94963
439 1 17.2966 20.4415 4.71726 -8.94963
440 1 18.8691 18.8691 3.14484 -8.94963
441 1 20.4415 20.4415 4.71726 -8.94963
499 1 3.14484 15.7242 9.43453 -8.94961
498 1 -4.15369e-10 15.7242 9.43453 -8.94963
497 1 18.8691 12.5794 9.43453 -8.9497
445 1 11.0605 11.0079 7.75168 -8.03968
496 1 15.7245 12.5794 9.43451 -8.9507
495 1 12.5853 12.5823 9.43088 -8.94468
494 1 9.37846 12.6917 9.43064 -8.03437
449 1 22.0139 12.5794 6.28969 -8.94963
450 1 1.57242 14.1518 7.86211 -8.94966
451 1 3.14484 12.5794 6.28968 -8.94964
452 1 4.71712 14.1518 7.86206 -8.95033
453 1 6.28954 12.5795 6.28957 -8.94919
454 1 7.858 14.1557 7.858 -8.90711
455 1 9.4332 12.5808 6.28867 -8.93908
456 1 11.0083 14.1521 7.86145 -8.98639
457 1 12.5833 12.5833 6.28581 -8.91052
458 1 14.1521 14.152 7.86188 -8.9483
459 1 15.7244 12.5794 6.28965 -8.95034
460 1 17.2966 14.1518 7.8621 -8.94966
461 1 18.8691 12.5794 6.28969 -8.94966
462 1 20.4415 14.1518 7.86211 -8.94964
463 1 22.0139 15.7242 6.28969 -8.94963
464 1 1.57242 17.2966 7.86211 -8.94963
465 1 3.14484 15.7242 6.28968 -8.94964
466 1 4.71727 17.2966 7.86211 -8.94976
467 1 6.28952 15.7244 6.28952 -8.94772
468 1 7.86204 17.2968 7.86204 -8.94999
469 1 9.43459 15.7242 6.28977 -8.95146
470 1 11.007 17.2966 7.86211 -8.94981
471 1 12.5794 15.7243 6.28967 -8.95038
472 1 14.1518 17.2966 7.86212 -8.94972
473 1 15.7242 15.7242 6.28968 -8.94963
474 1 17.2966 17.2966 7.86211 -8.94964
475 1 18.8691 15.7242 6.28969 -8.94963
476 1 20.4415 17.2966 7.86211 -8.94963
477 1 1.14781e-08 18.8691 6.28969 -8.94963
478 1 1.57242 20.4415 7.86211 -8.94963
479 1 3.14484 18.8691 6.28969 -8.94964
480 1 4.71726 20.4415 7.86211 -8.94963
481 1 6.28968 18.8691 6.28968 -8.94963
482 1 7.86211 20.4415 7.86211 -8.94965
483 1 9.43453 18.8691 6.28969 -8.94966
484 1 11.007 20.4415 7.86211 -8.94963
485 1 12.5794 18.8691 6.28968 -8.94965
486 1 14.1518 20.4415 7.86211 -8.94963
487 1 15.7242 18.8691 6.28969 -8.94964
488 1 17.2966 20.4415 7.86211 -8.94963
489 1 18.8691 18.8691 6.28969 -8.94963
490 1 20.4415 20.4415 7.86211 -8.94963
491 1 22.0139 12.5794 9.43453 -8.94965
492 1 3.14477 12.5794 9.43453 -8.95023
493 1 6.28732 12.5797 9.43451 -8.96145
516 1 14.1541 11.0069 11.0069 -9.01608
522 1 11.0083 14.1772 10.9961 -9.22526
523 1 14.1518 14.1519 11.0067 -9.00405
524 1 17.2967 14.1518 11.0069 -8.94941
525 1 20.4415 14.1518 11.007 -8.94963
526 1 1.57242 17.2966 11.007 -8.94963
527 1 4.71727 17.2966 11.0069 -8.94976
530 1 14.1518 17.2966 11.007 -8.95015
531 1 17.2966 17.2966 11.007 -8.94964
394 1 4.71728 11.007 4.71727 -8.94968
398 1 17.2966 11.007 4.71726 -8.94962
355 1 6.28969 12.5794 6.63208e-08 -8.94964
379 1 22.0139 18.8691 1.4218e-10 -8.94963
687 2 11.0061 12.5809 11.7918 1.09154
686 1 20.4415 20.4415 20.4415 -8.94963
514 1 7.85872 11.0069 11.0096 -8.96431
685 1 18.8691 18.8691 18.8691 -8.94963
307 1 18.8691 22.0139 18.8691 -8.94963
684 1 17.2966 20.4415 20.4415 -8.94963
683 1 15.7242 18.8691 18.8691 -8.94963
519 1 1.57242 14.1518 11.007 -8.94966
520 1 4.71711 14.1518 11.007 -8.95006
521 1 7.85829 14.1555 11.0105 -8.96434
303 1 12.5794 22.0139 18.8691 -8.94963
301 1 9.43453 22.0139 18.8691 -8.94963
297 1 3.14484 22.0139 18.8691 -8.94963
391 1 18.8691 18.8691 22.0139 -8.94963
256 1 15.7242 22.0139 15.7242 -8.94963
250 1 6.28969 22.0139 15.7242 -8.94963
528 1 7.86206 17.2968 11.007 -8.95039
529 1 11.007 17.2978 11.0071 -8.95569
209 1 18.8691 22.0139 12.5794 -8.94963
199 1 3.14484 22.0139 12.5794 -8.94963
671 1 18.8691 15.7242 18.8691 -8.94963
533 1 1.57242 20.4415 11.007 -8.94963
534 1 4.71726 20.4415 11.007 -8.94963
670 1 17.2966 17.2966 20.4415 -8.94963
669 1 15.7242 15.7242 18.8691 -8.94965
668 1 14.1518 17.2966 20.4415 -8.94963
667 1 12.5794 15.7242 18.8691 -8.94965
539 1 20.4415 20.4415 11.007 -8.94963
682 1 14.1518 20.4415 20.4415 -8.94963
681 1 12.5794 18.8691 18.8691 -8.94964
542 1 7.86257 11.0066 14.1518 -8.99011
680 1 11.007 20.4415 20.4415 -8.94963
544 1 14.1514 11.0066 14.1517 -8.99045
679 1 9.43453 18.8691 18.8691 -8.94964
678 1 7.86211 20.4415 20.4415 -8.94963
547 1 22.0139 12.5794 12.5794 -8.94965
548 1 1.57242 14.1518 14.1518 -8.94963
549 1 3.14481 12.5794 12.5794 -8.94994
550 1 4.71727 14.1518 14.1518 -8.9494
551 1 6.28846 12.5795 12.5794 -8.95555
552 1 7.86245 14.1522 14.1519 -8.98922
553 1 9.40894 12.5807 12.5924 -9.22816
554 1 11.0069 14.1542 14.1553 -8.98632
555 1 12.6072 12.5828 12.5949 -9.2026
556 1 14.1515 14.1523 14.1519 -8.98676
557 1 15.7254 12.5794 12.5794 -8.95648
558 1 17.2966 14.1518 14.1518 -8.94934
559 1 18.8691 12.5794 12.5794 -8.94997
560 1 20.4415 14.1518 14.1518 -8.94963
561 1 22.0139 15.7242 12.5794 -8.94963
562 1 1.57242 17.2966 14.1518 -8.94963
563 1 3.14484 15.7242 12.5794 -8.94965
564 1 4.71726 17.2966 14.1518 -8.94958
565 1 6.28956 15.7243 12.5795 -8.94828
566 1 7.86211 17.2966 14.1518 -8.94983
567 1 9.43455 15.7241 12.5797 -9.00611
568 1 11.0069 17.2967 14.1518 -8.95047
569 1 12.5794 15.7243 12.5798 -9.0049
570 1 14.1518 17.2966 14.1518 -8.9497
571 1 15.7242 15.7242 12.5794 -8.95015
572 1 17.2966 17.2966 14.1518 -8.94965
573 1 18.8691 15.7242 12.5794 -8.94964
574 1 20.4415 17.2966 14.1518 -8.94963
575 1 1.15356e-08 18.8691 12.5794 -8.94963
576 1 1.57242 20.4415 14.1518 -8.94963
577 1 3.14484 18.8691 12.5794 -8.94964
578 1 4.71726 20.4415 14.1518 -8.94963
579 1 6.28968 18.8691 12.5794 -8.94963
580 1 7.86211 20.4415 14.1518 -8.94963
581 1 9.43451 18.8691 12.5794 -8.94941
582 1 11.007 20.4415 14.1518 -8.94967
583 1 12.5794 18.8691 12.5794 -8.9494
584 1 14.1518 20.4415 14.1518 -8.94963
585 1 15.7242 18.8691 12.5794 -8.94964
586 1 17.2966 20.4415 14.1518 -8.94963
587 1 18.8691 18.8691 12.5794 -8.94963
588 1 20.4415 20.4415 14.1518 -8.94963
677 1 6.28969 18.8691 18.8691 -8.94963
676 1 4.71726 20.4415 20.4415 -8.94963
591 1 7.86214 11.007 17.2966 -8.94993
592 1 11.0069 11.007 17.2969 -8.95182
593 1 14.1518 11.007 17.2966 -8.94988
675 1 3.14484 18.8691 18.8691 -8.94963
674 1 1.57242 20.4415 20.4415 -8.94963
596 1 1.73629e-08 12.5794 15.7242 -8.94963
597 1 1.57242 14.1518 17.2966 -8.94963
598 1 3.14485 12.5794 15.7242 -8.94963
599 1 4.71727 14.1518 17.2966 -8.94965
600 1 6.28977 12.5794 15.7241 -8.95033
601 1 7.86214 14.1518 17.2966 -8.94988
602 1 9.43509 12.5794 15.7235 -8.99751
603 1 11.0069 14.1518 17.2968 -8.9507
604 1 12.5788 12.5795 15.7236 -8.99808
605 1 14.1518 14.1518 17.2966 -8.94987
606 1 15.7241 12.5794 15.7241 -8.95041
607 1 17.2966 14.1518 17.2966 -8.94965
608 1 18.8691 12.5794 15.7242 -8.94963
609 1 20.4415 14.1518 17.2966 -8.94963
610 1 22.0139 15.7242 15.7242 -8.94963
611 1 1.57242 17.2966 17.2966 -8.94963
612 1 3.14484 15.7242 15.7242 -8.94963
613 1 4.71726 17.2966 17.2966 -8.94964
614 1 6.28969 15.7242 15.7242 -8.94967
615 1 7.8621 17.2966 17.2966 -8.94957
616 1 9.43442 15.7243 15.7243 -8.94886
617 1 11.007 17.2966 17.2966 -8.94967
618 1 12.5795 15.7243 15.7243 -8.94897
619 1 14.1518 17.2966 17.2966 -8.94958
620 1 15.7242 15.7242 15.7242 -8.9496
621 1 17.2966 17.2966 17.2966 -8.94964
622 1 18.8691 15.7242 15.7242 -8.94962
623 1 20.4415 17.2966 17.2966 -8.94963
624 1 22.0139 18.8691 15.7242 -8.94963
625 1 1.57242 20.4415 17.2966 -8.94963
626 1 3.14484 18.8691 15.7242 -8.94963
627 1 4.71726 20.4415 17.2966 -8.94963
628 1 6.28969 18.8691 15.7242 -8.94964
629 1 7.86211 20.4415 17.2966 -8.94963
630 1 9.43453 18.8691 15.7242 -8.94966
631 1 11.007 20.4415 17.2966 -8.94963
632 1 12.5794 18.8691 15.7242 -8.94966
633 1 14.1518 20.4415 17.2966 -8.94963
634 1 15.7242 18.8691 15.7242 -8.94963
635 1 17.2966 20.4415 17.2966 -8.94963
636 1 18.8691 18.8691 15.7242 -8.94963
637 1 20.4415 20.4415 17.2966 -8.94963
387 1 12.5794 18.8691 22.0139 -8.94963
673 1 22.0139 18.8691 18.8691 -8.94963
640 1 7.86211 11.007 20.4415 -8.94963
641 1 11.007 11.007 20.4415 -8.94974
642 1 14.1518 11.007 20.4415 -8.94963
672 1 20.4415 17.2966 20.4415 -8.94963
385 1 9.43453 18.8691 22.0139 -8.94963
645 1 22.0139 12.5794 18.8691 -8.94963
646 1 1.57242 14.1518 20.4415 -8.94963
647 1 3.14484 12.5794 18.8691 -8.94963
648 1 4.71726 14.1518 20.4415 -8.94963
649 1 6.28968 12.5794 18.8691 -8.94961
650 1 7.86211 14.1518 20.4415 -8.94963
651 1 9.43452 12.5794 18.869 -8.94937
652 1 11.007 14.1518 20.4415 -8.94968
653 1 12.5794 12.5794 18.869 -8.94939
654 1 14.1518 14.1518 20.4415 -8.94963
655 1 15.7242 12.5794 18.8691 -8.94961
656 1 17.2966 14.1518 20.4415 -8.94963
657 1 18.8691 12.5794 18.8691 -8.94963
658 1 20.4415 14.1518 20.4415 -8.94963
659 1 22.0139 15.7242 18.8691 -8.94963
660 1 1.57242 17.2966 20.4415 -8.94963
661 1 3.14484 15.7242 18.8691 -8.94963
662 1 4.71726 17.2966 20.4415 -8.94963
663 1 6.28969 15.7242 18.8691 -8.94965
664 1 7.86211 17.2966 20.4415 -8.94963
665 1 9.43453 15.7242 18.8691 -8.94964
666 1 11.007 17.2966 20.4415 -8.94963
353 1 3.14484 12.5794 22.0139 -8.94963
11 1 15.7242 22.0139 22.0139 -8.94963
357 1 9.43453 12.5794 22.0139 -8.94963
359 1 12.5794 12.5794 22.0139 -8.94965
363 1 18.8691 12.5794 22.0139 -8.94963
365 1 22.0139 15.7242 22.0139 -8.94963
369 1 6.28969 15.7242 22.0139 -8.94963
375 1 15.7242 15.7242 22.0139 -8.94963
5 1 6.28969 22.0139 22.0139 -8.94963
381 1 3.14484 18.8691 22.0139 -8.94963
595 1 20.4415 11.007 17.2966 -8.94963
246 1 3.88186e-10 22.0139 15.7242 -8.94963
589 1 1.57242 11.007 17.2966 -8.94963
351 1 22.0139 12.5794 22.0139 -8.94963
538 1 17.2966 20.4415 11.007 -8.94963
532 1 20.4415 17.2966 11.007 -8.94963
535 1 7.86211 20.4415 11.007 -8.94967
536 1 11.007 20.4415 11.007 -8.94994
1 1 22.0139 22.0139 22.0139 -8.94963
