ITEM: TIMESTEP
102
ITEM: NUMBER OF ATOMS
688
ITEM: BOX BOUNDS pp pp pp
0.0000000000000000e+00 2.2013900999999997e+01
0.0000000000000000e+00 2.2013900999999997e+01
0.0000000000000000e+00 2.2013900999999997e+01
ITEM: ATOMS id type x y z c_pot
518 1 20.4426 11.0068 11.0067 -8.94978
2 1 1.5721 1.57225 1.57211 -8.94926
448 1 20.4423 11.0069 7.86201 -8.94962
4 1 4.71704 1.57219 1.57206 -8.94967
447 1 17.3001 11.0069 7.86206 -8.95185
6 1 7.86202 1.57217 1.57205 -8.94952
7 1 9.43451 2.77883e-05 -0.000137336 -8.94959
8 1 11.007 1.57214 1.57204 -8.94956
9 1 12.5794 2.4098e-05 -0.000126406 -8.94958
10 1 14.1519 1.57213 1.57211 -8.94953
446 1 14.1633 11.0069 7.8534 -8.97293
12 1 17.297 1.57207 1.5721 -8.94953
13 1 18.8692 1.25688e-05 -0.00011773 -8.94947
14 1 20.4415 1.57229 1.57231 -8.94959
444 1 7.88323 11.0078 7.87273 -8.89083
16 1 1.57219 4.7171 1.5721 -8.94981
443 1 4.71916 11.0069 7.86239 -8.94068
18 1 4.71639 4.71647 1.57121 -8.94951
442 1 1.57193 11.0068 7.86164 -8.94781
20 1 7.86179 4.7165 1.57147 -8.9492
105 1 9.4347 0.000228974 6.28912 -8.95002
22 1 11.0069 4.71637 1.57149 -8.94942
107 1 12.5796 0.000155989 6.28941 -8.95019
24 1 14.1522 4.71625 1.57145 -8.94973
517 1 17.3014 11.0061 11.0058 -8.95065
26 1 17.2978 4.71611 1.57145 -8.94831
397 1 14.162 11.0069 4.70734 -8.94254
28 1 20.4418 4.71696 1.57213 -8.94956
396 1 11.0121 11.0073 4.72069 -9.00104
30 1 1.57226 7.86205 1.57212 -8.94945
395 1 7.8647 11.007 4.72015 -8.94585
32 1 4.71695 7.8623 1.57196 -8.94968
188 1 17.2977 4.71616 11.0068 -8.94897
34 1 7.86175 7.8619 1.57087 -8.95212
35 1 9.4342 6.28901 -0.000523346 -8.94958
36 1 11.0066 7.86117 1.57027 -8.9504
37 1 12.5794 6.28897 -0.000596417 -8.94964
38 1 14.1533 7.8606 1.56921 -8.95158
183 1 1.57112 4.71639 11.0072 -8.94933
40 1 17.2978 7.86147 1.57133 -8.94929
350 1 20.4419 11.0069 1.57203 -8.94955
42 1 20.4419 7.86193 1.57206 -8.94949
345 1 4.71674 11.0069 1.57177 -8.94965
44 1 3.14455 9.43449 -0.000185645 -8.94957
349 1 17.2979 11.0069 1.57128 -8.94947
348 1 14.1538 11.0069 1.56892 -8.94954
347 1 11.0069 11.0069 1.57165 -8.94669
346 1 7.86192 11.0069 1.57245 -8.94825
344 1 1.57222 11.0069 1.57205 -8.9496
181 1 17.2971 1.57209 11.0069 -8.94956
51 1 1.572 1.57219 4.71699 -8.94956
175 1 18.8705 9.4338 9.43416 -8.94802
53 1 4.71646 1.57167 4.71642 -8.94987
54 1 6.28952 8.68083e-05 3.14434 -8.94961
55 1 7.86201 1.57174 4.71656 -8.94961
174 1 15.7253 9.43318 9.43334 -8.94123
57 1 11.0072 1.57173 4.71658 -8.94958
173 1 12.5677 9.43518 9.4268 -8.95037
59 1 14.1522 1.57166 4.71685 -8.95051
60 1 15.7246 4.31323e-05 3.1445 -8.94999
61 1 17.2969 1.57219 4.71714 -8.94961
172 1 9.36623 9.21008 9.44756 -8.16196
63 1 20.4415 1.57229 4.71717 -8.94956
64 1 22.0136 3.14456 3.14455 -8.94956
65 1 1.57128 4.71654 4.71648 -8.94965
66 1 3.14382 3.14398 3.14381 -8.94843
67 1 4.71387 4.71406 4.71388 -8.94526
68 1 6.28923 3.14393 3.14389 -8.94969
69 1 7.8612 4.71459 4.71517 -8.94928
70 1 9.43446 3.14389 3.14396 -8.94942
71 1 11.0073 4.71462 4.71523 -8.94794
72 1 12.5796 3.1438 3.14404 -8.94921
73 1 14.1542 4.71316 4.7148 -8.95015
74 1 15.7252 3.14345 3.14393 -8.94952
75 1 17.2977 4.71626 4.71684 -8.95007
76 1 18.8694 3.14446 3.14463 -8.94975
77 1 20.4415 4.71689 4.71704 -8.94975
78 1 22.014 6.2895 3.14451 -8.9498
79 1 1.57192 7.86213 4.7168 -8.94976
80 1 3.14408 6.28949 3.14407 -8.9503
81 1 4.71562 7.86221 4.71604 -8.95149
82 1 6.28746 6.28767 3.14125 -8.95012
83 1 7.85729 7.85707 4.70898 -8.95384
84 1 9.43398 6.28776 3.14233 -8.94793
85 1 11.0073 7.85796 4.70986 -8.9509
86 1 12.5802 6.28749 3.14191 -8.94934
87 1 14.164 7.85061 4.70508 -8.93097
88 1 15.728 6.2859 3.14114 -8.94479
89 1 17.3006 7.86013 4.71521 -8.95073
90 1 18.8704 6.28883 3.14402 -8.94964
91 1 20.4423 7.86175 4.71681 -8.95013
92 1 0.000106805 9.43442 3.14439 -8.94955
93 1 3.14425 9.43448 3.14411 -8.94902
94 1 6.28951 9.43525 3.14441 -8.94922
95 1 9.43509 9.43466 3.14407 -8.95081
96 1 12.582 9.43327 3.13712 -8.95921
97 1 15.7276 9.43325 3.1414 -8.94776
98 1 18.8705 9.4342 3.14391 -8.9493
99 1 22.0137 3.55552e-05 6.28959 -8.94959
100 1 1.57195 1.57216 7.86199 -8.94955
101 1 3.14422 0.000101644 6.28937 -8.94947
102 1 4.71629 1.57156 7.86173 -8.94942
171 1 6.28211 9.42717 9.43462 -8.96978
104 1 7.86174 1.57114 7.86172 -8.9512
170 1 3.14223 9.43456 9.43416 -8.95069
106 1 11.0071 1.5719 7.86193 -8.94935
169 1 22.0135 9.4344 9.43434 -8.94957
108 1 14.1524 1.572 7.8619 -8.94952
168 1 18.87 6.28874 9.43441 -8.94956
110 1 17.297 1.57212 7.86202 -8.94957
111 1 18.8692 2.88796e-05 6.28961 -8.94961
112 1 20.4415 1.57226 7.86205 -8.94959
113 1 -0.000321879 3.14449 6.2895 -8.94951
114 1 1.57117 4.71642 7.86177 -8.94935
115 1 3.14371 3.14386 6.28906 -8.94931
116 1 4.71411 4.71422 7.86085 -8.94795
117 1 6.28814 3.14187 6.28817 -8.95115
118 1 7.8592 4.70987 7.86058 -8.95769
119 1 9.43468 3.14257 6.28865 -8.95029
120 1 11.0065 4.71521 7.86184 -8.95101
121 1 12.5797 3.1428 6.28923 -8.95217
122 1 14.1529 4.71546 7.862 -8.94864
123 1 15.7248 3.144 6.28957 -8.94948
124 1 17.2976 4.71624 7.86192 -8.94911
125 1 18.8693 3.14444 6.28957 -8.94947
126 1 20.4415 4.71676 7.86197 -8.94958
127 1 22.0133 6.28925 6.28931 -8.95006
128 1 1.57037 7.8617 7.8617 -8.95142
129 1 3.14137 6.28802 6.28793 -8.95066
130 1 4.70838 7.8588 7.85981 -8.95722
131 1 6.27874 6.27912 6.27942 -8.93257
132 1 7.82609 7.8295 7.83334 -8.86476
133 1 9.43394 6.28242 6.28565 -8.95086
134 1 11.0208 7.85461 7.84101 -8.90584
135 1 12.5849 6.27995 6.28358 -8.95406
136 1 14.1573 7.85913 7.86224 -8.94938
137 1 15.7268 6.2876 6.28901 -8.95056
138 1 17.299 7.86096 7.86214 -8.94955
139 1 18.87 6.28903 6.28952 -8.94965
140 1 20.4419 7.86164 7.86194 -8.94985
141 1 22.0139 9.4345 6.28932 -8.94986
142 1 3.14364 9.43508 6.28908 -8.94969
143 1 6.28744 9.43702 6.28958 -8.95263
144 1 9.4231 9.41471 6.28625 -8.90654
145 1 12.6192 9.40221 6.25326 -8.8608
146 1 15.7345 9.43181 6.28549 -8.95754
147 1 18.8716 9.43417 6.28916 -8.95163
167 1 15.7265 6.28721 9.43413 -8.94692
166 1 12.5796 6.28772 9.43275 -8.94447
150 1 6.28889 0.000245693 9.43446 -8.95019
165 1 9.42913 6.29001 9.4342 -8.99862
164 1 6.28023 6.28058 9.43447 -8.94328
153 1 15.7247 5.92098e-05 9.43447 -8.94962
163 1 3.14109 6.28766 9.43441 -8.94917
155 1 22.0136 3.14445 9.4345 -8.94955
156 1 3.14362 3.14379 9.43447 -8.94951
157 1 6.2876 3.14152 9.4344 -8.94952
158 1 9.43416 3.14317 9.43414 -8.94691
159 1 12.58 3.14358 9.43408 -8.94877
160 1 15.725 3.14382 9.43437 -8.94959
161 1 18.8694 3.14437 9.43448 -8.94958
162 1 -0.000739093 6.28909 9.43447 -8.9499
177 1 4.71626 1.57151 11.0072 -8.9494
184 1 4.71395 4.71403 11.008 -8.94782
48 1 15.7252 9.43421 -0.000912343 -8.94944
189 1 20.4416 4.71673 11.007 -8.94956
3 1 3.1447 2.63267e-05 -0.000126416 -8.94964
19 1 6.2895 3.14451 -0.000223562 -8.94952
25 1 15.7245 3.14442 -0.000205407 -8.94968
29 1 22.014 6.2896 -0.000100057 -8.94957
176 1 1.57194 1.57215 11.007 -8.94955
644 1 20.4417 11.007 20.4415 -8.94959
178 1 7.86175 1.57091 11.007 -8.95124
179 1 11.0071 1.57147 11.0068 -8.95087
180 1 14.1524 1.57184 11.0068 -8.94937
643 1 17.2973 11.007 20.4416 -8.9495
182 1 20.4415 1.57225 11.007 -8.94959
639 1 4.71687 11.0069 20.4416 -8.94966
638 1 1.57227 11.0069 20.4415 -8.9496
185 1 7.85916 4.70898 11.0083 -8.95846
186 1 11.0067 4.71133 11.0072 -8.95671
187 1 14.1529 4.71518 11.0061 -8.94882
295 1 22.0138 1.95864e-05 18.8692 -8.9494
39 1 15.7251 6.28879 22.0131 -8.94998
190 1 1.57025 7.8617 11.0071 -8.9516
191 1 4.70768 7.85851 11.0092 -8.95802
192 1 7.82313 7.82553 11.0404 -8.85663
193 1 11.0237 7.83404 11.031 -8.92584
194 1 14.157 7.85836 11.0048 -8.95377
195 1 17.299 7.86088 11.0063 -8.94965
196 1 20.4419 7.86165 11.0069 -8.94988
197 1 22.0137 3.33031e-05 12.5795 -8.94959
198 1 1.57198 1.57216 14.1521 -8.94956
343 1 18.8696 9.43444 18.8695 -8.94957
200 1 4.71637 1.57151 14.1526 -8.94996
201 1 6.2891 0.000178385 12.5798 -8.95055
202 1 7.86175 1.57142 14.1527 -8.9497
203 1 9.43448 0.000380994 12.58 -8.95028
204 1 11.0072 1.5713 14.1526 -8.94963
205 1 12.5799 0.000248426 12.5797 -8.95045
206 1 14.1525 1.57127 14.1524 -8.9506
207 1 15.7247 1.99272e-05 12.5794 -8.9495
208 1 17.297 1.5721 14.1518 -8.9497
342 1 15.7253 9.43427 18.8704 -8.94978
210 1 20.4415 1.57228 14.1519 -8.94956
211 1 -0.000329403 3.14446 12.5795 -8.9495
212 1 1.57114 4.71645 14.1526 -8.94969
213 1 3.14363 3.14378 12.5799 -8.94931
214 1 4.71331 4.71353 14.1555 -8.94482
215 1 6.28795 3.14143 12.5808 -8.95137
216 1 7.86035 4.71303 14.1548 -8.94898
217 1 9.43439 3.14134 12.5806 -8.95057
218 1 11.0074 4.71274 14.1546 -8.94804
219 1 12.5802 3.14144 12.58 -8.95268
220 1 14.1554 4.71147 14.1551 -8.94939
221 1 15.7249 3.14381 12.5792 -8.94959
222 1 17.298 4.71601 14.1522 -8.9503
223 1 18.8694 3.1444 12.5794 -8.94944
224 1 20.4416 4.71683 14.152 -8.94981
225 1 22.0133 6.28921 12.5797 -8.95017
226 1 1.57169 7.86201 14.1523 -8.94983
227 1 3.14095 6.28781 12.5811 -8.95087
228 1 4.71465 7.86174 14.1534 -8.95201
229 1 6.27713 6.27755 12.5907 -8.93054
230 1 7.85418 7.85318 14.164 -8.95165
231 1 9.43249 6.27794 12.586 -8.94903
232 1 11.0077 7.8528 14.163 -8.95174
233 1 12.5876 6.27487 12.5878 -8.95065
234 1 14.1671 7.8469 14.1668 -8.92645
235 1 15.7274 6.28713 12.5796 -8.95136
236 1 17.3015 7.85966 14.1541 -8.95131
237 1 18.8701 6.28897 12.5794 -8.94977
238 1 20.4425 7.86164 14.1523 -8.95024
239 1 22.0139 9.4344 12.5796 -8.94989
240 1 3.14293 9.43494 12.5799 -8.94962
241 1 6.28528 9.43662 12.5803 -8.95391
242 1 9.41641 9.40559 12.5959 -8.9572
243 1 12.6252 9.39226 12.6238 -8.89479
244 1 15.7361 9.43107 12.5834 -8.95907
245 1 18.8721 9.43403 12.5797 -8.95172
47 1 12.5795 9.43436 22.0127 -8.95156
247 1 1.57206 1.57222 17.297 -8.94927
248 1 3.14429 6.53357e-05 15.7247 -8.94956
249 1 4.71691 1.5721 17.2971 -8.9496
341 1 12.5798 9.43402 18.8719 -8.95196
251 1 7.86194 1.57202 17.2972 -8.94954
252 1 9.43452 3.37834e-05 15.7249 -8.9496
253 1 11.007 1.57199 17.2972 -8.94955
254 1 12.5796 5.87462e-07 15.7248 -8.94956
255 1 14.152 1.57197 17.2971 -8.94955
340 1 9.43404 9.43419 18.8711 -8.95009
257 1 17.2971 1.57196 17.2971 -8.94942
258 1 18.8692 1.15657e-05 15.7243 -8.94971
259 1 20.4415 1.57226 17.2968 -8.94962
260 1 22.0136 3.14451 15.7245 -8.94957
261 1 1.57211 4.71701 17.297 -8.94985
262 1 3.14366 3.14382 15.7253 -8.94835
263 1 4.71604 4.71612 17.2983 -8.94926
264 1 6.28888 3.14347 15.7255 -8.94957
265 1 7.86149 4.71594 17.2982 -8.94913
266 1 9.43434 3.14329 15.7255 -8.94946
267 1 11.0069 4.71579 17.2982 -8.94921
268 1 12.5798 3.14317 15.7254 -8.94926
269 1 14.1526 4.71566 17.2983 -8.94964
270 1 15.7256 3.14295 15.7255 -8.94926
271 1 17.2981 4.71578 17.298 -8.94798
272 1 18.8695 3.14436 15.7245 -8.94982
273 1 20.4419 4.71686 17.297 -8.94957
274 1 22.014 6.28941 15.7246 -8.94986
275 1 1.57206 7.8619 17.2972 -8.94941
276 1 3.14374 6.28926 15.7252 -8.95044
277 1 4.71628 7.86184 17.2978 -8.94923
278 1 6.2863 6.28639 15.7291 -8.94927
279 1 7.86074 7.86081 17.3002 -8.95133
280 1 9.43348 6.28598 15.7284 -8.94807
281 1 11.0067 7.86015 17.3008 -8.94983
282 1 12.5809 6.28564 15.7288 -8.94947
283 1 14.1544 7.85957 17.3016 -8.95065
284 1 15.7292 6.28474 15.7289 -8.94349
285 1 17.2984 7.86115 17.2982 -8.94909
286 1 18.8707 6.2886 15.7252 -8.94975
287 1 20.442 7.8618 17.2972 -8.94946
288 1 6.66234e-05 9.43429 15.7248 -8.94964
289 1 3.14351 9.43413 15.7254 -8.94892
290 1 6.28756 9.4339 15.7266 -8.94777
291 1 9.43293 9.43112 15.7307 -8.94927
292 1 12.5841 9.42983 15.7366 -8.95666
293 1 15.7289 9.4324 15.7288 -8.94715
294 1 18.871 9.43394 15.7255 -8.9492
339 1 6.28917 9.43459 18.8699 -8.94976
296 1 1.57227 1.57229 20.4415 -8.94947
338 1 3.14446 9.43449 18.8695 -8.94961
298 1 4.71713 1.57228 20.4415 -8.94958
299 1 6.28956 2.40892e-05 18.8693 -8.94958
300 1 7.86203 1.57224 20.4416 -8.94957
337 1 22.0139 9.43448 18.8693 -8.94958
302 1 11.007 1.57223 20.4416 -8.94958
336 1 20.4417 7.86202 20.4415 -8.94961
304 1 14.1519 1.57224 20.4416 -8.94956
305 1 15.7244 3.39064e-06 18.8693 -8.9496
306 1 17.2968 1.57224 20.4416 -8.94964
335 1 18.8697 6.28929 18.8695 -8.94948
308 1 20.4416 1.57232 20.4415 -8.94937
309 1 22.0139 3.14469 18.8692 -8.94962
310 1 1.57232 4.71718 20.4415 -8.94965
311 1 3.14443 3.14446 18.8695 -8.94945
312 1 4.71686 4.71691 20.4417 -8.94987
313 1 6.28941 3.14438 18.8695 -8.94949
314 1 7.86183 4.71674 20.4417 -8.94953
315 1 9.43442 3.14429 18.8696 -8.94952
316 1 11.0069 4.71666 20.4417 -8.94955
317 1 12.5795 3.14428 18.8696 -8.94948
318 1 14.152 4.71668 20.4417 -8.94961
319 1 15.7246 3.14428 18.8695 -8.94964
320 1 17.2972 4.71667 20.4416 -8.94948
321 1 18.8695 3.14442 18.8694 -8.94916
322 1 20.4417 4.71709 20.4415 -8.94957
323 1 22.0139 6.28953 18.8693 -8.94952
324 1 1.57229 7.86205 20.4415 -8.94959
325 1 3.14447 6.28954 18.8695 -8.94958
326 1 4.71693 7.86209 20.4417 -8.94962
327 1 6.28894 6.28905 18.8703 -8.95022
328 1 7.86169 7.86184 20.4421 -8.9503
329 1 9.4341 6.2887 18.8705 -8.94958
330 1 11.0067 7.86155 20.4421 -8.95012
331 1 12.5796 6.28866 18.8705 -8.94966
332 1 14.1524 7.86148 20.442 -8.95066
333 1 15.7254 6.28852 18.8705 -8.94971
334 1 17.2973 7.8618 20.4416 -8.94954
512 1 1.57152 11.0067 11.007 -8.94807
513 1 4.71727 11.0062 11.0058 -8.93979
515 1 11.0864 10.926 11.1956 -8.44668
594 1 17.298 11.0071 17.298 -8.94951
590 1 4.71648 11.0069 17.2977 -8.94967
540 1 1.57132 11.0067 14.1527 -8.94975
541 1 4.71368 11.0059 14.1545 -8.94577
543 1 11.0109 10.9969 14.1665 -9.03624
545 1 17.3022 11.0062 14.1547 -8.9479
546 1 20.4428 11.0068 14.1525 -8.95006
46 1 9.43428 9.43455 22.0139 -8.94952
33 1 6.28923 6.28934 22.0134 -8.95046
45 1 6.28936 9.43462 22.0138 -8.94944
41 1 18.8695 6.28939 22.0137 -8.94957
15 1 22.0139 3.14472 22.0138 -8.94959
17 1 3.14451 3.14453 22.0136 -8.94951
31 1 3.14463 6.28967 22.0138 -8.94972
27 1 18.8694 3.14448 22.0137 -8.94923
21 1 9.43446 3.14443 22.0137 -8.94955
23 1 12.5794 3.14442 22.0137 -8.94952
43 1 22.0139 9.43449 22.0138 -8.94959
49 1 18.8696 9.43443 22.0136 -8.94955
688 3 10.1963 11.0291 9.41842 2.35335
511 1 18.8694 18.8696 9.4345 -8.9496
510 1 15.7251 18.8701 9.43449 -8.94993
509 1 12.5809 18.8721 9.43321 -8.94837
508 1 9.43328 18.8731 9.43322 -8.94675
507 1 6.28717 18.8732 9.43444 -8.94979
506 1 3.14337 18.8704 9.43448 -8.94945
50 1 -0.000158327 22.0139 3.1447 -8.94958
352 1 1.57223 14.1518 1.57209 -8.94946
154 1 18.8693 22.0139 9.43451 -8.94961
354 1 4.71685 14.1515 1.57178 -8.94966
152 1 12.5799 22.0144 9.43423 -8.9497
356 1 7.86168 14.152 1.57031 -8.9525
151 1 9.4345 22.0145 9.43422 -8.94916
358 1 11.0066 14.1527 1.56994 -8.95032
149 1 3.14417 22.014 9.4345 -8.94951
360 1 14.1534 14.1533 1.56899 -8.95148
361 1 15.7252 12.5797 -0.000980291 -8.94939
362 1 17.2979 14.1524 1.57129 -8.94928
148 1 -0.000192293 22.0139 9.43452 -8.9496
364 1 20.4419 14.152 1.57205 -8.9495
109 1 15.7247 22.0141 6.28947 -8.94946
366 1 1.57214 17.2968 1.57203 -8.94983
367 1 3.14461 15.7242 -0.000194975 -8.94971
368 1 4.71624 17.2976 1.57092 -8.94951
393 1 1.57185 11.0069 4.71649 -8.94949
370 1 7.86178 17.2975 1.5712 -8.94926
371 1 9.43425 15.7249 -0.000766036 -8.94969
372 1 11.007 17.2976 1.57129 -8.9494
373 1 12.5794 15.7249 -0.000806601 -8.94972
374 1 14.1523 17.2977 1.5713 -8.9498
537 1 14.1524 20.4423 11.0069 -8.94917
376 1 17.2978 17.2978 1.57139 -8.94827
377 1 18.8695 15.7245 -0.000258834 -8.94955
378 1 20.4418 17.2969 1.57211 -8.94956
103 1 6.2891 22.0142 6.28902 -8.95045
380 1 1.57205 20.4417 1.57207 -8.94921
62 1 18.8692 22.0139 3.14475 -8.94962
382 1 4.717 20.4418 1.57199 -8.94967
383 1 6.28949 18.8694 -0.000294449 -8.94954
384 1 7.86203 20.4418 1.57199 -8.94951
58 1 12.5796 22.014 3.14438 -8.94952
386 1 11.007 20.4419 1.57199 -8.94954
56 1 9.43456 22.014 3.14432 -8.94956
388 1 14.152 20.4418 1.57207 -8.94951
389 1 15.7245 18.8695 -0.000256371 -8.9497
390 1 17.297 20.4419 1.57206 -8.9495
52 1 3.14433 22.014 3.14432 -8.94948
392 1 20.4415 20.4416 1.57229 -8.94961
505 1 22.0135 18.8695 9.43451 -8.94955
504 1 18.8702 15.7252 9.43428 -8.94957
503 1 15.7271 15.7264 9.43404 -8.94866
502 1 12.5844 15.73 9.42739 -8.9742
501 1 9.42192 15.7299 9.42779 -9.038
500 1 6.2774 15.7353 9.43365 -8.9435
399 1 20.4425 11.0069 4.71665 -8.94989
400 1 9.10452e-05 12.5794 3.14437 -8.94956
401 1 1.57175 14.1517 4.71671 -8.94974
402 1 3.14418 12.5792 3.14405 -8.94906
403 1 4.71507 14.1516 4.7155 -8.95145
404 1 6.28929 12.5784 3.14402 -8.94912
405 1 7.85633 14.1576 4.70667 -8.95513
406 1 9.43503 12.5793 3.14349 -8.95102
407 1 11.0075 14.1563 4.70913 -8.95058
408 1 12.5822 12.5807 3.13682 -8.9592
409 1 14.1644 14.1634 4.70476 -8.93
410 1 15.7277 12.5806 3.14135 -8.94774
411 1 17.3007 14.1537 4.7152 -8.95074
412 1 18.8705 12.5797 3.14391 -8.94931
413 1 20.4423 14.1521 4.71678 -8.95013
414 1 22.0139 15.7244 3.14447 -8.9498
415 1 1.57101 17.2975 4.71632 -8.94966
416 1 3.14389 15.7244 3.14388 -8.95033
417 1 4.71304 17.3006 4.71301 -8.94405
418 1 6.28703 15.7266 3.14035 -8.95023
419 1 7.86098 17.2999 4.7143 -8.9495
420 1 9.43406 15.7264 3.14169 -8.94803
421 1 11.0075 17.2997 4.7147 -8.94747
422 1 12.5803 15.7265 3.14154 -8.94953
423 1 14.1546 17.301 4.71435 -8.95034
424 1 15.7281 15.728 3.14101 -8.94453
425 1 17.2977 17.2976 4.71685 -8.95028
426 1 18.8704 15.7251 3.14399 -8.94964
427 1 20.4415 17.297 4.71701 -8.9498
428 1 22.0136 18.8694 3.1445 -8.94955
429 1 1.57193 20.4418 4.71693 -8.94953
430 1 3.14361 18.8702 3.14359 -8.94815
431 1 4.71629 20.4427 4.71623 -8.94972
432 1 6.28912 18.8702 3.14361 -8.94973
433 1 7.862 20.4425 4.71642 -8.94965
434 1 9.43451 18.8702 3.14375 -8.94936
435 1 11.0072 20.4424 4.71647 -8.94957
436 1 12.5797 18.8703 3.14387 -8.9491
437 1 14.1523 20.4424 4.71677 -8.9506
438 1 15.7253 18.8706 3.14379 -8.9495
439 1 17.297 20.4419 4.71708 -8.94947
440 1 18.8694 18.8695 3.14461 -8.94982
441 1 20.4415 20.4417 4.71714 -8.94955
499 1 3.14005 15.7267 9.43418 -8.94898
498 1 -0.000961338 15.7249 9.43438 -8.94998
497 1 18.8702 12.5798 9.43435 -8.9478
445 1 11.0928 11.0108 7.64179 -8.14835
496 1 15.7239 12.5792 9.43437 -8.94089
495 1 12.5627 12.5705 9.43113 -8.93023
494 1 9.34523 12.8281 9.43253 -8.11077
449 1 22.0139 12.5793 6.28929 -8.94991
450 1 1.56992 14.1521 7.86166 -8.95187
451 1 3.14324 12.5785 6.28889 -8.94962
452 1 4.70623 14.1555 7.85903 -8.95882
453 1 6.28619 12.5765 6.28855 -8.95141
454 1 7.81761 14.1914 7.82456 -8.84223
455 1 9.42143 12.6016 6.28426 -8.90982
456 1 11.0221 14.1601 7.84011 -8.96039
457 1 12.6202 12.6127 6.25254 -8.85548
458 1 14.1565 14.1528 7.86313 -8.95173
459 1 15.7348 12.5819 6.2855 -8.95733
460 1 17.2987 14.1525 7.86235 -8.9499
461 1 18.8716 12.5797 6.28916 -8.95163
462 1 20.4417 14.1521 7.86197 -8.94994
463 1 22.0131 15.7246 6.28926 -8.95021
464 1 1.57083 17.2977 7.86164 -8.9493
465 1 3.14054 15.7262 6.28749 -8.95094
466 1 4.71304 17.3005 7.86039 -8.94772
467 1 6.27595 15.7373 6.27654 -8.92756
468 1 7.85705 17.3072 7.85843 -8.95651
469 1 9.43394 15.7328 6.28374 -8.95264
470 1 11.0065 17.2997 7.86133 -8.9509
471 1 12.5855 15.7346 6.28238 -8.95578
472 1 14.1543 17.2995 7.8607 -8.94578
473 1 15.7267 15.7259 6.28923 -8.95116
474 1 17.2979 17.2977 7.86182 -8.94935
475 1 18.8699 15.7248 6.28954 -8.94975
476 1 20.4415 17.2972 7.8619 -8.94959
477 1 -0.00039658 18.8695 6.28943 -8.94949
478 1 1.57188 20.4419 7.86198 -8.94955
479 1 3.14339 18.8704 6.28888 -8.94924
480 1 4.71613 20.4427 7.8617 -8.94949
481 1 6.28743 18.8732 6.28744 -8.9507
482 1 7.86141 20.444 7.86139 -8.95131
483 1 9.43474 18.872 6.28822 -8.95039
484 1 11.0071 20.4427 7.86178 -8.94908
485 1 12.5799 18.8714 6.28898 -8.95243
486 1 14.1527 20.4426 7.86163 -8.9493
487 1 15.7252 18.8703 6.28926 -8.94877
488 1 17.2971 20.4418 7.86203 -8.94968
489 1 18.8694 18.8695 6.28951 -8.94948
490 1 20.4415 20.4417 7.86205 -8.9496
491 1 22.0134 12.5793 9.43438 -8.94953
492 1 3.1417 12.5789 9.43429 -8.95105
493 1 6.27984 12.5879 9.43439 -8.97412
516 1 14.1647 11.0025 11.0113 -9.026
522 1 11.0195 14.2231 11.0023 -9.15883
523 1 14.1549 14.153 11.0027 -9.00723
524 1 17.2993 14.153 11.0057 -8.9479
525 1 20.4419 14.1523 11.0068 -8.9499
526 1 1.57087 17.2977 11.0072 -8.94927
527 1 4.71329 17.3005 11.0082 -8.94745
530 1 14.1526 17.2984 11.0065 -8.94904
531 1 17.2977 17.2977 11.0069 -8.94896
394 1 4.71591 11.0067 4.71565 -8.94647
398 1 17.3008 11.0069 4.71497 -8.94899
355 1 6.28932 12.5792 -0.000224221 -8.94943
379 1 22.0139 18.8692 -0.000123797 -8.94962
687 2 11.0026 12.5984 11.7579 0.838407
686 1 20.4416 20.4416 20.4415 -8.94938
514 1 7.87907 11.0064 10.9963 -8.95023
685 1 18.8695 18.8695 18.8693 -8.94923
307 1 18.8693 22.0139 18.8692 -8.94946
684 1 17.2968 20.4417 20.4415 -8.94964
683 1 15.7245 18.8695 18.8695 -8.94961
519 1 1.56961 14.1523 11.007 -8.95186
520 1 4.70511 14.1563 11.0088 -8.95716
521 1 7.81696 14.1928 11.0412 -8.89873
303 1 12.5794 22.0139 18.8693 -8.94957
301 1 9.43449 22.0139 18.8693 -8.94957
297 1 3.14466 22.0139 18.8693 -8.94962
391 1 18.8694 18.8694 22.0137 -8.94926
256 1 15.7247 22.0139 15.7247 -8.94988
250 1 6.28933 22.014 15.7249 -8.94954
528 1 7.85874 17.3063 11.0087 -8.95946
529 1 11.0065 17.311 11.0064 -8.96915
209 1 18.8693 22.0139 12.5794 -8.94957
199 1 3.1442 22.014 12.5796 -8.94944
671 1 18.8695 15.7245 18.8694 -8.94958
533 1 1.57188 20.4419 11.007 -8.94954
534 1 4.71615 20.4427 11.0073 -8.94937
670 1 17.2971 17.2971 20.4415 -8.9496
669 1 15.725 15.725 18.87 -8.95016
668 1 14.152 17.2972 20.4416 -8.94966
667 1 12.5795 15.725 18.8701 -8.94999
539 1 20.4415 20.4417 11.007 -8.94959
682 1 14.1519 20.4417 20.4416 -8.94957
681 1 12.5795 18.8696 18.8695 -8.9495
542 1 7.85996 11.0023 14.1541 -8.97598
680 1 11.007 20.4417 20.4416 -8.94959
544 1 14.1634 11.0029 14.1633 -8.97293
679 1 9.43446 18.8696 18.8696 -8.94954
678 1 7.86203 20.4417 20.4416 -8.94958
547 1 22.0138 12.5793 12.5797 -8.95064
548 1 1.57127 14.1519 14.1525 -8.94993
549 1 3.14129 12.5787 12.58 -8.95241
550 1 4.71319 14.1527 14.1544 -8.95039
551 1 6.27613 12.577 12.5809 -8.96368
552 1 7.85313 14.1613 14.1646 -8.98644
553 1 9.37691 12.5955 12.6033 -9.18559
554 1 11.0074 14.1584 14.1609 -8.98597
555 1 12.6494 12.5989 12.6232 -9.13459
556 1 14.1638 14.164 14.1632 -8.96571
557 1 15.7417 12.5811 12.5827 -8.96603
558 1 17.3015 14.1543 14.1543 -8.94942
559 1 18.8729 12.5797 12.5797 -8.95379
560 1 20.4425 14.1523 14.1524 -8.95021
561 1 22.0131 15.7247 12.5797 -8.95015
562 1 1.57096 17.2976 14.1527 -8.94966
563 1 3.14026 15.7263 12.5813 -8.95082
564 1 4.71285 17.3008 14.1559 -8.94447
565 1 6.27527 15.7374 12.5918 -8.92891
566 1 7.8602 17.3012 14.1551 -8.94917
567 1 9.43099 15.7346 12.5866 -8.99828
568 1 11.0076 17.3003 14.1538 -8.9486
569 1 12.5875 15.735 12.5875 -8.99814
570 1 14.155 17.3015 14.1548 -8.94946
571 1 15.727 15.7255 12.5791 -8.95252
572 1 17.2978 17.2977 14.1521 -8.95064
573 1 18.87 15.7248 12.5793 -8.94974
574 1 20.4415 17.2971 14.152 -8.94982
575 1 -0.000392457 18.8695 12.5796 -8.9495
576 1 1.57193 20.4418 14.1521 -8.94955
577 1 3.14344 18.8703 12.58 -8.94924
578 1 4.71628 20.4426 14.1527 -8.94999
579 1 6.28764 18.873 12.581 -8.95154
580 1 7.86163 20.4429 14.1528 -8.94948
581 1 9.43383 18.8735 12.5813 -8.94854
582 1 11.0073 20.4427 14.1526 -8.94945
583 1 12.5808 18.8727 12.5806 -8.9502
584 1 14.1526 20.4427 14.1525 -8.9503
585 1 15.725 18.8699 12.5793 -8.94958
586 1 17.297 20.4418 14.1519 -8.94974
587 1 18.8694 18.8695 12.5794 -8.94945
588 1 20.4415 20.4417 14.1519 -8.94956
677 1 6.28942 18.8695 18.8696 -8.94949
676 1 4.71713 20.4417 20.4415 -8.94959
591 1 7.86178 11.0072 17.2978 -8.94981
592 1 11.007 11.0067 17.3009 -8.95216
593 1 14.1536 11.0073 17.3004 -8.9507
675 1 3.14438 18.8695 18.8696 -8.94939
674 1 1.57225 20.4417 20.4415 -8.94944
596 1 3.34994e-05 12.5795 15.7248 -8.94948
597 1 1.57213 14.1519 17.2971 -8.9494
598 1 3.1437 12.5794 15.7253 -8.94873
599 1 4.71665 14.1517 17.2976 -8.94973
600 1 6.28855 12.5787 15.7253 -8.94913
601 1 7.86165 14.1521 17.2992 -8.95352
602 1 9.43558 12.5796 15.7243 -8.9984
603 1 11.0067 14.1526 17.2993 -8.95117
604 1 12.5805 12.5806 15.7288 -9.00214
605 1 14.153 14.153 17.2996 -8.95218
606 1 15.7276 12.5806 15.7272 -8.9482
607 1 17.2979 14.1525 17.2979 -8.9494
608 1 18.8707 12.5797 15.7253 -8.94903
609 1 20.4419 14.152 17.2971 -8.94944
610 1 22.0139 15.7246 15.7247 -8.94981
611 1 1.572 17.297 17.2972 -8.94974
612 1 3.14337 15.7249 15.7255 -8.95007
613 1 4.71593 17.2979 17.2985 -8.94909
614 1 6.28599 15.7277 15.7296 -8.94872
615 1 7.86161 17.2978 17.2982 -8.94905
616 1 9.43391 15.7273 15.7282 -8.94788
617 1 11.007 17.2979 17.2981 -8.94881
618 1 12.5805 15.7272 15.7281 -8.94927
619 1 14.1525 17.2979 17.2981 -8.9495
620 1 15.7282 15.7282 15.7281 -8.94462
621 1 17.2979 17.2979 17.2978 -8.94828
622 1 18.8706 15.7253 15.7253 -8.94942
623 1 20.4419 17.2971 17.2971 -8.9495
624 1 22.0136 18.8694 15.7246 -8.94958
625 1 1.57203 20.4418 17.297 -8.94925
626 1 3.14352 18.8703 15.7255 -8.94826
627 1 4.71689 20.4419 17.2972 -8.94961
628 1 6.28884 18.8706 15.7256 -8.94955
629 1 7.86197 20.4419 17.2972 -8.94958
630 1 9.4345 18.8705 15.7255 -8.94977
631 1 11.007 20.442 17.2972 -8.94951
632 1 12.5798 18.8705 15.7254 -8.94955
633 1 14.152 20.4419 17.2971 -8.94958
634 1 15.7254 18.8707 15.7254 -8.94925
635 1 17.2971 20.4419 17.2971 -8.94945
636 1 18.8694 18.8695 15.7245 -8.94988
637 1 20.4415 20.4417 17.2968 -8.94963
387 1 12.5795 18.8695 22.0136 -8.94951
673 1 22.0139 18.8692 18.8693 -8.94957
640 1 7.86172 11.007 20.4419 -8.94923
641 1 11.0067 11.007 20.4422 -8.94952
642 1 14.1525 11.0071 20.4417 -8.95018
672 1 20.4417 17.2968 20.4415 -8.94961
385 1 9.43447 18.8695 22.0136 -8.94955
645 1 22.0139 12.5794 18.8693 -8.94958
646 1 1.57229 14.1518 20.4415 -8.94957
647 1 3.14446 12.5794 18.8695 -8.94955
648 1 4.71694 14.1518 20.4416 -8.94954
649 1 6.28917 12.5793 18.8697 -8.94926
650 1 7.86182 14.1519 20.4417 -8.95034
651 1 9.43417 12.5795 18.87 -8.94824
652 1 11.0067 14.1522 20.4416 -8.95016
653 1 12.5797 12.5797 18.8706 -8.94976
654 1 14.1522 14.1523 20.4415 -8.95043
655 1 15.7252 12.5798 18.8702 -8.94929
656 1 17.2973 14.1521 20.4416 -8.94944
657 1 18.8696 12.5795 18.8695 -8.94953
658 1 20.4417 14.1519 20.4415 -8.94958
659 1 22.0139 15.7243 18.8693 -8.94955
660 1 1.57231 17.2967 20.4415 -8.94971
661 1 3.14455 15.7243 18.8694 -8.94974
662 1 4.71686 17.297 20.4416 -8.95002
663 1 6.28916 15.7246 18.8702 -8.9508
664 1 7.86187 17.2971 20.4416 -8.94958
665 1 9.43428 15.725 18.8702 -8.94992
666 1 11.0069 17.2972 20.4416 -8.94954
353 1 3.14454 12.5794 22.0137 -8.94957
11 1 15.7243 22.0139 22.0138 -8.9496
357 1 9.4343 12.5793 22.0136 -8.94928
359 1 12.5795 12.5795 22.0125 -8.95126
363 1 18.8696 12.5795 22.0136 -8.94954
365 1 22.0139 15.7243 22.0138 -8.94956
369 1 6.28922 15.7246 22.0131 -8.95062
375 1 15.725 15.725 22.013 -8.94995
5 1 6.2896 22.0139 22.0138 -8.94957
381 1 3.14446 18.8694 22.0136 -8.94951
595 1 20.4419 11.007 17.2972 -8.94948
246 1 -0.000160199 22.0139 15.7244 -8.9496
589 1 1.5721 11.0069 17.2972 -8.94952
351 1 22.0139 12.5794 22.0138 -8.94959
538 1 17.2971 20.4419 11.007 -8.94958
532 1 20.4415 17.2972 11.007 -8.94957
535 1 7.86168 20.4437 11.0071 -8.95122
536 1 11.0071 20.4444 11.0069 -8.953
1 1 22.0138 22.0139 22.0138 -8.94938
