ITEM: TIMESTEP
108
ITEM: NUMBER OF ATOMS
688
ITEM: BOX BOUNDS pp pp pp
0.0000000000000000e+00 2.2013900999999997e+01
0.0000000000000000e+00 2.2013900999999997e+01
0.0000000000000000e+00 2.2013900999999997e+01
ITEM: ATOMS id type x y z c_pot
518 1 20.4426 11.0068 11.0067 -8.94976
2 1 1.57207 1.57224 1.57208 -8.94925
448 1 20.4423 11.0069 7.862 -8.9496
4 1 4.71701 1.57218 1.57202 -8.94966
447 1 17.3002 11.0069 7.86204 -8.95184
6 1 7.86201 1.57215 1.57202 -8.94952
7 1 9.43451 3.0159e-05 -0.000150182 -8.94958
8 1 11.007 1.57212 1.57201 -8.94955
9 1 12.5794 2.58154e-05 -0.000137819 -8.94958
10 1 14.152 1.57211 1.57208 -8.94952
446 1 14.1632 11.0069 7.85333 -8.97297
12 1 17.297 1.57205 1.57207 -8.94952
13 1 18.8692 1.3187e-05 -0.000128609 -8.94946
14 1 20.4415 1.57228 1.57229 -8.94958
444 1 7.88353 11.0079 7.87293 -8.8906
16 1 1.57218 4.71709 1.57207 -8.94982
443 1 4.71928 11.0069 7.86244 -8.94063
18 1 4.71635 4.71644 1.57116 -8.94951
442 1 1.57196 11.0068 7.86163 -8.94777
20 1 7.86176 4.71647 1.57143 -8.9492
105 1 9.4347 0.000249853 6.28909 -8.95003
22 1 11.0069 4.71632 1.57145 -8.94941
107 1 12.5796 0.000170173 6.2894 -8.9502
24 1 14.1523 4.71618 1.57139 -8.94972
517 1 17.3014 11.0061 11.0059 -8.95063
26 1 17.2978 4.71605 1.57141 -8.9483
397 1 14.1622 11.0069 4.70721 -8.94251
28 1 20.4419 4.71693 1.5721 -8.94956
396 1 11.0122 11.0074 4.72083 -9.00106
30 1 1.57226 7.86205 1.5721 -8.94944
395 1 7.86476 11.007 4.72027 -8.94579
32 1 4.71693 7.8623 1.57195 -8.94968
188 1 17.2977 4.71611 11.0068 -8.94896
34 1 7.86175 7.86189 1.57087 -8.95214
35 1 9.43418 6.28898 -0.000527784 -8.94959
36 1 11.0066 7.86115 1.57024 -8.95043
37 1 12.5794 6.28893 -0.000614718 -8.94965
38 1 14.1534 7.86056 1.56913 -8.9516
183 1 1.57106 4.71634 11.0072 -8.94933
40 1 17.2979 7.86142 1.57127 -8.94928
350 1 20.4419 11.0069 1.572 -8.94954
42 1 20.4419 7.86191 1.57203 -8.94948
345 1 4.71673 11.0069 1.57176 -8.94965
44 1 3.14454 9.43449 -0.000189379 -8.94956
349 1 17.298 11.0069 1.57121 -8.94947
348 1 14.1539 11.0069 1.56883 -8.94955
347 1 11.0069 11.0069 1.5717 -8.94664
346 1 7.86194 11.0069 1.57249 -8.94823
344 1 1.57222 11.0069 1.57203 -8.9496
181 1 17.2971 1.57207 11.0069 -8.94956
51 1 1.57196 1.57218 4.71695 -8.94955
175 1 18.8705 9.43379 9.43415 -8.948
53 1 4.71641 1.57165 4.71637 -8.94988
54 1 6.28949 9.73269e-05 3.1443 -8.94961
55 1 7.86199 1.57171 4.71652 -8.94961
174 1 15.7253 9.43316 9.43333 -8.94125
57 1 11.0072 1.57171 4.71655 -8.94958
173 1 12.5676 9.43504 9.42672 -8.95072
59 1 14.1522 1.57163 4.71683 -8.95053
60 1 15.7246 4.77046e-05 3.14448 -8.95
61 1 17.297 1.57217 4.71712 -8.9496
172 1 9.36661 9.20983 9.4478 -8.16234
63 1 20.4415 1.57228 4.71715 -8.94956
64 1 22.0136 3.14454 3.14452 -8.94955
65 1 1.57123 4.71651 4.71644 -8.94965
66 1 3.14377 3.14395 3.14376 -8.94842
67 1 4.71378 4.71399 4.7138 -8.94526
68 1 6.28919 3.14388 3.14384 -8.94968
69 1 7.86114 4.71451 4.7151 -8.94926
70 1 9.43445 3.14384 3.14391 -8.94942
71 1 11.0073 4.71455 4.71516 -8.94793
72 1 12.5796 3.14375 3.14399 -8.9492
73 1 14.1543 4.71306 4.71472 -8.95014
74 1 15.7252 3.14338 3.14388 -8.94952
75 1 17.2977 4.71619 4.7168 -8.95007
76 1 18.8694 3.14442 3.1446 -8.94975
77 1 20.4416 4.71686 4.71701 -8.94975
78 1 22.014 6.28948 3.14448 -8.94981
79 1 1.57191 7.86212 4.71678 -8.94977
80 1 3.14404 6.28947 3.14403 -8.95032
81 1 4.71558 7.8622 4.71602 -8.95152
82 1 6.2874 6.28761 3.14118 -8.95012
83 1 7.85724 7.85698 4.70894 -8.95382
84 1 9.43396 6.28771 3.14227 -8.94792
85 1 11.0074 7.85788 4.70976 -8.95091
86 1 12.5802 6.28741 3.14181 -8.94934
87 1 14.1641 7.85051 4.70494 -8.93097
88 1 15.7281 6.2858 3.14104 -8.94478
89 1 17.3007 7.86008 4.71514 -8.95074
90 1 18.8705 6.28879 3.14397 -8.94964
91 1 20.4424 7.86173 4.71678 -8.95014
92 1 0.000126045 9.43441 3.14436 -8.94955
93 1 3.14424 9.43447 3.1441 -8.94901
94 1 6.28953 9.43526 3.14444 -8.94921
95 1 9.43513 9.43466 3.14413 -8.95083
96 1 12.5821 9.43326 3.13706 -8.95925
97 1 15.7277 9.43321 3.14129 -8.94773
98 1 18.8705 9.43418 3.14386 -8.94929
99 1 22.0137 4.06041e-05 6.28957 -8.94959
100 1 1.5719 1.57214 7.86197 -8.94954
101 1 3.14417 0.000113517 6.28933 -8.94947
102 1 4.71623 1.57153 7.8617 -8.94942
171 1 6.28226 9.42709 9.43466 -8.96973
104 1 7.86171 1.57113 7.8617 -8.9512
170 1 3.14225 9.43454 9.43415 -8.95066
106 1 11.0071 1.5719 7.86192 -8.94935
169 1 22.0135 9.43439 9.43433 -8.94955
108 1 14.1524 1.57199 7.86189 -8.94952
168 1 18.87 6.2887 9.43441 -8.94956
110 1 17.2971 1.5721 7.86201 -8.94957
111 1 18.8693 3.15269e-05 6.2896 -8.9496
112 1 20.4415 1.57224 7.86204 -8.94958
113 1 -0.000347474 3.14446 6.28948 -8.9495
114 1 1.57111 4.71638 7.86174 -8.94935
115 1 3.14364 3.14381 6.28902 -8.9493
116 1 4.71399 4.71413 7.86081 -8.94793
117 1 6.28808 3.14181 6.28812 -8.95116
118 1 7.85912 4.70981 7.86056 -8.95771
119 1 9.43466 3.14253 6.28861 -8.95031
120 1 11.0064 4.71519 7.86181 -8.95105
121 1 12.5798 3.14276 6.2892 -8.9522
122 1 14.153 4.71541 7.86197 -8.94862
123 1 15.7249 3.14395 6.28955 -8.94947
124 1 17.2976 4.71619 7.86191 -8.9491
125 1 18.8694 3.14441 6.28956 -8.94947
126 1 20.4415 4.71672 7.86196 -8.94958
127 1 22.0133 6.28922 6.28929 -8.95007
128 1 1.57034 7.86168 7.86169 -8.95143
129 1 3.14129 6.28797 6.28789 -8.95067
130 1 4.70832 7.85874 7.8598 -8.95725
131 1 6.27863 6.27903 6.27936 -8.93258
132 1 7.82606 7.82942 7.83338 -8.86483
133 1 9.43389 6.28231 6.28558 -8.95085
134 1 11.0209 7.85448 7.84084 -8.90567
135 1 12.585 6.27983 6.28344 -8.95401
136 1 14.1574 7.85907 7.86217 -8.94937
137 1 15.7269 6.28753 6.28894 -8.95057
138 1 17.2991 7.86093 7.86212 -8.94957
139 1 18.87 6.28899 6.2895 -8.94966
140 1 20.4419 7.86163 7.86193 -8.94985
141 1 22.014 9.43449 6.2893 -8.94986
142 1 3.14365 9.43509 6.28908 -8.9497
143 1 6.28748 9.43702 6.28964 -8.95268
144 1 9.42311 9.41457 6.2863 -8.90641
145 1 12.6193 9.40218 6.25314 -8.86088
146 1 15.7346 9.43178 6.28539 -8.95757
147 1 18.8716 9.43416 6.28913 -8.95165
167 1 15.7266 6.28716 9.43412 -8.94691
166 1 12.5796 6.28765 9.43273 -8.94443
150 1 6.28885 0.00026678 9.43445 -8.95021
165 1 9.4291 6.29004 9.43423 -8.99864
164 1 6.28009 6.28045 9.43449 -8.94325
153 1 15.7247 6.12062e-05 9.43446 -8.94962
163 1 3.14098 6.28758 9.43441 -8.94918
155 1 22.0135 3.14442 9.4345 -8.94955
156 1 3.14354 3.14373 9.43446 -8.9495
157 1 6.28751 3.14144 9.43439 -8.94953
158 1 9.43412 3.14317 9.43413 -8.94687
159 1 12.58 3.14355 9.43407 -8.94877
160 1 15.7251 3.14378 9.43436 -8.94959
161 1 18.8694 3.14433 9.43447 -8.94958
162 1 -0.000769083 6.28906 9.43446 -8.94991
177 1 4.71619 1.57147 11.0072 -8.9494
184 1 4.71382 4.71392 11.008 -8.9478
48 1 15.7252 9.43419 -0.000951424 -8.94943
189 1 20.4416 4.7167 11.007 -8.94956
3 1 3.14467 2.99404e-05 -0.000140905 -8.94963
19 1 6.28948 3.14449 -0.000236473 -8.94952
25 1 15.7245 3.14438 -0.000219519 -8.94967
29 1 22.014 6.28959 -0.000108566 -8.94956
176 1 1.57189 1.57213 11.007 -8.94954
644 1 20.4417 11.007 20.4415 -8.94958
178 1 7.86172 1.57088 11.007 -8.95126
179 1 11.0071 1.57145 11.0068 -8.95089
180 1 14.1524 1.57182 11.0068 -8.94936
643 1 17.2974 11.007 20.4416 -8.9495
182 1 20.4415 1.57224 11.007 -8.94958
639 1 4.71685 11.0069 20.4417 -8.94966
638 1 1.57226 11.0069 20.4416 -8.94959
185 1 7.85907 4.70888 11.0083 -8.95849
186 1 11.0067 4.71123 11.0072 -8.95679
187 1 14.1529 4.71511 11.0062 -8.9488
295 1 22.0138 2.12668e-05 18.8692 -8.94939
39 1 15.7251 6.28874 22.0131 -8.94999
190 1 1.57021 7.86167 11.0071 -8.95162
191 1 4.70759 7.85843 11.0092 -8.95805
192 1 7.82303 7.82536 11.0405 -8.8566
193 1 11.0238 7.83368 11.0312 -8.92571
194 1 14.157 7.85827 11.0048 -8.95383
195 1 17.2991 7.86084 11.0063 -8.94966
196 1 20.4419 7.86163 11.0069 -8.94988
197 1 22.0137 3.69237e-05 12.5795 -8.94958
198 1 1.57193 1.57214 14.1521 -8.94955
343 1 18.8697 9.43443 18.8696 -8.94957
200 1 4.71631 1.57147 14.1527 -8.94997
201 1 6.28906 0.000190288 12.5799 -8.95056
202 1 7.86172 1.57137 14.1527 -8.94971
203 1 9.43448 0.000389619 12.58 -8.9503
204 1 11.0072 1.57124 14.1527 -8.94964
205 1 12.5799 0.000247916 12.5797 -8.95047
206 1 14.1526 1.57121 14.1524 -8.95062
207 1 15.7247 1.41184e-05 12.5794 -8.9495
208 1 17.297 1.57207 14.1519 -8.9497
342 1 15.7253 9.43425 18.8705 -8.94979
210 1 20.4415 1.57226 14.1519 -8.94956
211 1 -0.000356375 3.14443 12.5795 -8.94949
212 1 1.57108 4.7164 14.1526 -8.94969
213 1 3.14355 3.14372 12.58 -8.9493
214 1 4.71319 4.71342 14.1556 -8.94479
215 1 6.28787 3.14133 12.5809 -8.95138
216 1 7.86025 4.71287 14.1549 -8.94896
217 1 9.43436 3.14124 12.5807 -8.9506
218 1 11.0074 4.71258 14.1547 -8.94803
219 1 12.5803 3.14134 12.5801 -8.95271
220 1 14.1555 4.71131 14.1552 -8.94935
221 1 15.725 3.14375 12.5792 -8.94958
222 1 17.2981 4.71594 14.1522 -8.95031
223 1 18.8694 3.14437 12.5794 -8.94944
224 1 20.4416 4.71679 14.152 -8.94982
225 1 22.0132 6.28918 12.5797 -8.95018
226 1 1.57166 7.86199 14.1523 -8.94984
227 1 3.14085 6.28774 12.5811 -8.95089
228 1 4.71456 7.86169 14.1535 -8.95204
229 1 6.27697 6.27738 12.5908 -8.93052
230 1 7.85405 7.85298 14.1642 -8.95157
231 1 9.43242 6.2777 12.5862 -8.94902
232 1 11.0078 7.85258 14.1632 -8.95177
233 1 12.5878 6.27465 12.588 -8.95053
234 1 14.1672 7.84677 14.1669 -8.92648
235 1 15.7275 6.28704 12.5797 -8.95138
236 1 17.3016 7.85958 14.1541 -8.95132
237 1 18.8702 6.28893 12.5794 -8.94979
238 1 20.4426 7.86161 14.1523 -8.95025
239 1 22.0139 9.43439 12.5797 -8.94989
240 1 3.14291 9.43494 12.5799 -8.94964
241 1 6.28525 9.43657 12.5804 -8.95396
242 1 9.41631 9.40524 12.5961 -8.95711
243 1 12.6252 9.39217 12.6238 -8.89503
244 1 15.7362 9.43101 12.5835 -8.95908
245 1 18.8721 9.43401 12.5798 -8.95174
47 1 12.5795 9.43436 22.0127 -8.95158
247 1 1.57203 1.5722 17.297 -8.94926
248 1 3.14425 7.1193e-05 15.7248 -8.94956
249 1 4.71687 1.57208 17.2972 -8.9496
341 1 12.5798 9.434 18.872 -8.95197
251 1 7.86192 1.57199 17.2972 -8.94954
252 1 9.43451 2.74498e-05 15.7249 -8.94959
253 1 11.007 1.57195 17.2973 -8.94954
254 1 12.5797 -1.0051e-05 15.7249 -8.94955
255 1 14.1521 1.57193 17.2972 -8.94954
340 1 9.43404 9.43419 18.8711 -8.9501
257 1 17.2972 1.57193 17.2971 -8.94941
258 1 18.8692 9.36006e-06 15.7243 -8.94971
259 1 20.4415 1.57225 17.2968 -8.94962
260 1 22.0136 3.14448 15.7245 -8.94957
261 1 1.57209 4.71699 17.2971 -8.94986
262 1 3.14359 3.14377 15.7254 -8.94834
263 1 4.71598 4.71606 17.2984 -8.94926
264 1 6.28882 3.1434 15.7256 -8.94956
265 1 7.86144 4.71587 17.2983 -8.94912
266 1 9.43432 3.14321 15.7255 -8.94945
267 1 11.007 4.71571 17.2983 -8.9492
268 1 12.5798 3.14308 15.7255 -8.94925
269 1 14.1527 4.71557 17.2984 -8.94963
270 1 15.7256 3.14286 15.7255 -8.94925
271 1 17.2982 4.7157 17.2981 -8.94797
272 1 18.8695 3.14431 15.7245 -8.94983
273 1 20.442 4.71683 17.297 -8.94957
274 1 22.014 6.28939 15.7246 -8.94987
275 1 1.57205 7.86188 17.2972 -8.9494
276 1 3.14367 6.28923 15.7252 -8.95045
277 1 4.71624 7.86183 17.2978 -8.94923
278 1 6.28619 6.28628 15.7292 -8.94924
279 1 7.8607 7.86077 17.3003 -8.95135
280 1 9.43345 6.28585 15.7286 -8.94807
281 1 11.0067 7.86009 17.3009 -8.94985
282 1 12.581 6.2855 15.729 -8.94947
283 1 14.1544 7.8595 17.3017 -8.95065
284 1 15.7293 6.28462 15.7291 -8.94348
285 1 17.2985 7.8611 17.2983 -8.94908
286 1 18.8708 6.28854 15.7252 -8.94975
287 1 20.4421 7.86177 17.2972 -8.94946
288 1 7.77484e-05 9.43428 15.7249 -8.94964
289 1 3.14347 9.43412 15.7255 -8.94891
290 1 6.28753 9.43389 15.7266 -8.94779
291 1 9.43293 9.43102 15.7308 -8.9493
292 1 12.5842 9.42974 15.7367 -8.95666
293 1 15.7291 9.43235 15.7289 -8.94716
294 1 18.8711 9.43391 15.7256 -8.9492
339 1 6.28915 9.43459 18.8699 -8.94975
296 1 1.57225 1.57228 20.4415 -8.94946
338 1 3.14444 9.43448 18.8695 -8.9496
298 1 4.71711 1.57227 20.4416 -8.94957
299 1 6.28954 2.34345e-05 18.8693 -8.94958
300 1 7.86202 1.57223 20.4416 -8.94957
337 1 22.0139 9.43448 18.8693 -8.94957
302 1 11.007 1.57221 20.4416 -8.94957
336 1 20.4417 7.862 20.4416 -8.9496
304 1 14.1519 1.57222 20.4416 -8.94956
305 1 15.7244 -1.32484e-06 18.8693 -8.9496
306 1 17.2968 1.57222 20.4416 -8.94963
335 1 18.8697 6.28925 18.8696 -8.94947
308 1 20.4416 1.57231 20.4415 -8.94935
309 1 22.0139 3.14467 18.8693 -8.94961
310 1 1.57231 4.71717 20.4416 -8.94965
311 1 3.1444 3.14443 18.8695 -8.94944
312 1 4.71683 4.71688 20.4417 -8.94988
313 1 6.28938 3.14434 18.8696 -8.94948
314 1 7.8618 4.7167 20.4417 -8.94953
315 1 9.43441 3.14425 18.8696 -8.94951
316 1 11.0069 4.71662 20.4417 -8.94954
317 1 12.5795 3.14423 18.8696 -8.94947
318 1 14.152 4.71663 20.4417 -8.94961
319 1 15.7246 3.14423 18.8696 -8.94963
320 1 17.2973 4.71662 20.4417 -8.94947
321 1 18.8695 3.14438 18.8694 -8.94915
322 1 20.4417 4.71707 20.4416 -8.94956
323 1 22.014 6.28951 18.8693 -8.94951
324 1 1.57228 7.86204 20.4416 -8.94958
325 1 3.14445 6.28953 18.8695 -8.94958
326 1 4.71691 7.86209 20.4417 -8.94962
327 1 6.2889 6.28902 18.8704 -8.95024
328 1 7.86168 7.86184 20.4421 -8.95031
329 1 9.43408 6.28866 18.8705 -8.94959
330 1 11.0067 7.86153 20.4421 -8.95013
331 1 12.5796 6.28861 18.8706 -8.94967
332 1 14.1524 7.86145 20.442 -8.95068
333 1 15.7254 6.28846 18.8706 -8.94972
334 1 17.2973 7.86177 20.4416 -8.94953
512 1 1.57153 11.0067 11.007 -8.94804
513 1 4.71734 11.0062 11.0057 -8.93976
515 1 11.0859 10.9255 11.1952 -8.44714
594 1 17.2981 11.0071 17.2981 -8.94951
590 1 4.71645 11.0069 17.2978 -8.94966
540 1 1.5713 11.0067 14.1528 -8.94975
541 1 4.71364 11.0059 14.1545 -8.94574
543 1 11.0109 10.9968 14.1665 -9.03621
545 1 17.3023 11.0062 14.1548 -8.9479
546 1 20.4428 11.0068 14.1526 -8.95006
46 1 9.43428 9.43456 22.0139 -8.94951
33 1 6.28921 6.28932 22.0134 -8.95048
45 1 6.28935 9.43462 22.0138 -8.94943
41 1 18.8696 6.28936 22.0137 -8.94956
15 1 22.0139 3.14471 22.0138 -8.94959
17 1 3.14448 3.14451 22.0136 -8.9495
31 1 3.14462 6.28966 22.0138 -8.94973
27 1 18.8695 3.14445 22.0137 -8.94921
21 1 9.43445 3.1444 22.0137 -8.94955
23 1 12.5794 3.14439 22.0137 -8.94952
43 1 22.014 9.43448 22.0138 -8.94959
49 1 18.8696 9.43442 22.0136 -8.94954
688 3 10.1955 11.0294 9.41811 2.35358
511 1 18.8694 18.8696 9.4345 -8.9496
510 1 15.7251 18.8701 9.43448 -8.94992
509 1 12.5809 18.8722 9.43318 -8.94838
508 1 9.43322 18.8731 9.43318 -8.94674
507 1 6.28705 18.8733 9.43442 -8.9498
506 1 3.14327 18.8705 9.43447 -8.94944
50 1 -0.000177594 22.0139 3.14468 -8.94957
352 1 1.57222 14.1518 1.57206 -8.94946
154 1 18.8693 22.0139 9.43451 -8.9496
354 1 4.71683 14.1515 1.57175 -8.94966
152 1 12.58 22.0144 9.43421 -8.9497
356 1 7.86168 14.152 1.57028 -8.95253
151 1 9.43449 22.0145 9.43421 -8.94914
358 1 11.0067 14.1527 1.56988 -8.95035
149 1 3.14411 22.014 9.4345 -8.9495
360 1 14.1534 14.1533 1.56891 -8.95149
361 1 15.7253 12.5797 -0.00102781 -8.94939
362 1 17.298 14.1525 1.57123 -8.94927
148 1 -0.000215868 22.0139 9.43452 -8.94959
364 1 20.4419 14.152 1.57202 -8.94949
109 1 15.7247 22.0141 6.28946 -8.94945
366 1 1.57211 17.2968 1.572 -8.94983
367 1 3.14459 15.7242 -0.000210572 -8.94971
368 1 4.71619 17.2976 1.57085 -8.94951
393 1 1.57185 11.0069 4.71646 -8.9495
370 1 7.86176 17.2975 1.57114 -8.94926
371 1 9.43424 15.7249 -0.00079886 -8.94969
372 1 11.007 17.2977 1.57122 -8.9494
373 1 12.5795 15.7249 -0.000851433 -8.94973
374 1 14.1523 17.2978 1.57123 -8.9498
537 1 14.1524 20.4423 11.0069 -8.94916
376 1 17.2979 17.2979 1.57133 -8.94825
377 1 18.8696 15.7245 -0.000281154 -8.94954
378 1 20.4418 17.297 1.57208 -8.94956
103 1 6.28906 22.0143 6.28898 -8.95046
380 1 1.57202 20.4417 1.57204 -8.9492
62 1 18.8692 22.0139 3.14473 -8.94962
382 1 4.71697 20.4418 1.57195 -8.94966
383 1 6.28947 18.8695 -0.000319803 -8.94954
384 1 7.86201 20.4419 1.57195 -8.9495
58 1 12.5796 22.014 3.14435 -8.94952
386 1 11.007 20.4419 1.57196 -8.94954
56 1 9.43457 22.014 3.14428 -8.94955
388 1 14.152 20.4419 1.57204 -8.9495
389 1 15.7245 18.8695 -0.000280579 -8.94969
390 1 17.297 20.4419 1.57203 -8.9495
52 1 3.14429 22.014 3.14427 -8.94947
392 1 20.4415 20.4416 1.57227 -8.94961
505 1 22.0135 18.8696 9.4345 -8.94954
504 1 18.8702 15.7252 9.43428 -8.94958
503 1 15.7271 15.7264 9.43403 -8.94866
502 1 12.5844 15.7301 9.4273 -8.97409
501 1 9.42178 15.7301 9.42773 -9.03809
500 1 6.27717 15.7355 9.43364 -8.94347
399 1 20.4425 11.0069 4.71662 -8.9499
400 1 0.000107765 12.5794 3.14434 -8.94956
401 1 1.57172 14.1517 4.71667 -8.94975
402 1 3.14416 12.5792 3.14402 -8.94905
403 1 4.71501 14.1516 4.71545 -8.95147
404 1 6.28929 12.5784 3.14403 -8.94911
405 1 7.85625 14.1577 4.70658 -8.95512
406 1 9.43507 12.5793 3.14353 -8.95103
407 1 11.0075 14.1564 4.70901 -8.95059
408 1 12.5822 12.5807 3.13675 -8.95924
409 1 14.1646 14.1635 4.70461 -8.92998
410 1 15.7278 12.5806 3.14123 -8.94772
411 1 17.3008 14.1538 4.71513 -8.95075
412 1 18.8706 12.5797 3.14386 -8.9493
413 1 20.4423 14.1521 4.71675 -8.95014
414 1 22.0139 15.7244 3.14443 -8.9498
415 1 1.57094 17.2975 4.71626 -8.94966
416 1 3.14384 15.7245 3.14382 -8.95034
417 1 4.71292 17.3007 4.71289 -8.94402
418 1 6.28694 15.7266 3.14024 -8.95023
419 1 7.8609 17.3001 4.71419 -8.94949
420 1 9.43405 15.7264 3.14159 -8.94802
421 1 11.0075 17.2998 4.7146 -8.94745
422 1 12.5804 15.7266 3.14142 -8.94953
423 1 14.1547 17.3011 4.71424 -8.95033
424 1 15.7282 15.7281 3.14091 -8.94451
425 1 17.2977 17.2977 4.71681 -8.95029
426 1 18.8705 15.7251 3.14395 -8.94964
427 1 20.4415 17.297 4.71698 -8.94981
428 1 22.0135 18.8694 3.14446 -8.94955
429 1 1.57189 20.4419 4.71689 -8.94952
430 1 3.14354 18.8702 3.14352 -8.94813
431 1 4.71623 20.4427 4.71617 -8.94972
432 1 6.28906 18.8703 3.14353 -8.94972
433 1 7.86197 20.4426 4.71637 -8.94966
434 1 9.4345 18.8703 3.14368 -8.94935
435 1 11.0073 20.4425 4.71643 -8.94957
436 1 12.5797 18.8703 3.14381 -8.9491
437 1 14.1523 20.4425 4.71674 -8.95062
438 1 15.7253 18.8706 3.14373 -8.9495
439 1 17.297 20.4419 4.71706 -8.94947
440 1 18.8694 18.8695 3.14458 -8.94983
441 1 20.4415 20.4417 4.71712 -8.94954
499 1 3.13989 15.7268 9.43417 -8.94899
498 1 -0.00101389 15.7249 9.43437 -8.94999
497 1 18.8702 12.5798 9.43434 -8.94777
445 1 11.0928 11.0109 7.64179 -8.14898
496 1 15.7238 12.5791 9.43438 -8.94084
495 1 12.5625 12.5705 9.43122 -8.9304
494 1 9.34538 12.8287 9.43262 -8.11052
449 1 22.0139 12.5793 6.28927 -8.94991
450 1 1.56986 14.1521 7.86164 -8.95189
451 1 3.14323 12.5785 6.28888 -8.94963
452 1 4.7061 14.1556 7.859 -8.95885
453 1 6.28619 12.5765 6.28858 -8.95144
454 1 7.81743 14.1917 7.82449 -8.84209
455 1 9.42142 12.6019 6.28428 -8.90973
456 1 11.0222 14.1603 7.8399 -8.96026
457 1 12.6203 12.6127 6.25244 -8.85547
458 1 14.1566 14.1528 7.8631 -8.95179
459 1 15.7349 12.5819 6.28541 -8.95735
460 1 17.2987 14.1525 7.86235 -8.94992
461 1 18.8717 12.5797 6.28913 -8.95165
462 1 20.4417 14.1521 7.86197 -8.94994
463 1 22.0131 15.7247 6.28923 -8.95022
464 1 1.57074 17.2977 7.86161 -8.9493
465 1 3.14042 15.7262 6.28742 -8.95095
466 1 4.71287 17.3007 7.86032 -8.9477
467 1 6.27577 15.7375 6.2764 -8.92751
468 1 7.8569 17.3073 7.85835 -8.95651
469 1 9.43386 15.733 6.28361 -8.95265
470 1 11.0064 17.2998 7.86126 -8.95092
471 1 12.5856 15.7347 6.28221 -8.95575
472 1 14.1544 17.2996 7.86064 -8.94572
473 1 15.7268 15.726 6.28918 -8.95119
474 1 17.2979 17.2977 7.86181 -8.94935
475 1 18.8699 15.7248 6.28953 -8.94976
476 1 20.4415 17.2973 7.86188 -8.9496
477 1 -0.000432033 18.8695 6.28941 -8.94948
478 1 1.57183 20.4419 7.86196 -8.94954
479 1 3.1433 18.8704 6.28882 -8.94922
480 1 4.71606 20.4428 7.86166 -8.94949
481 1 6.28734 18.8733 6.28736 -8.9507
482 1 7.86137 20.444 7.86136 -8.95132
483 1 9.43471 18.8721 6.28816 -8.95041
484 1 11.0071 20.4428 7.86176 -8.94907
485 1 12.5799 18.8715 6.28894 -8.95245
486 1 14.1527 20.4426 7.86161 -8.9493
487 1 15.7253 18.8703 6.28923 -8.94876
488 1 17.2971 20.4419 7.86202 -8.94968
489 1 18.8694 18.8696 6.28949 -8.94948
490 1 20.4415 20.4417 7.86204 -8.94959
491 1 22.0134 12.5793 9.43437 -8.94951
492 1 3.14169 12.579 9.43428 -8.95104
493 1 6.2799 12.588 9.43442 -8.97411
516 1 14.1646 11.0024 11.0113 -9.02598
522 1 11.0196 14.2236 11.0024 -9.15832
523 1 14.1548 14.153 11.0027 -9.00734
524 1 17.2993 14.153 11.0057 -8.94791
525 1 20.4419 14.1523 11.0068 -8.94991
526 1 1.57078 17.2977 11.0072 -8.94927
527 1 4.71312 17.3007 11.0082 -8.94742
530 1 14.1526 17.2984 11.0065 -8.949
531 1 17.2977 17.2977 11.0069 -8.94895
394 1 4.71592 11.0067 4.71566 -8.94644
398 1 17.3009 11.0069 4.71488 -8.94899
355 1 6.28931 12.5792 -0.000219531 -8.94942
379 1 22.0139 18.8692 -0.000137113 -8.94962
687 2 11.0027 12.5984 11.7567 0.837123
686 1 20.4416 20.4416 20.4415 -8.94936
514 1 7.87926 11.0065 10.9962 -8.95036
685 1 18.8695 18.8695 18.8694 -8.94922
307 1 18.8693 22.0139 18.8693 -8.94944
684 1 17.2968 20.4417 20.4415 -8.94963
683 1 15.7246 18.8696 18.8695 -8.94961
519 1 1.56953 14.1523 11.007 -8.95188
520 1 4.70495 14.1564 11.0088 -8.9572
521 1 7.81675 14.1931 11.0413 -8.89861
303 1 12.5795 22.0139 18.8694 -8.94956
301 1 9.43449 22.0139 18.8694 -8.94957
297 1 3.14463 22.0139 18.8693 -8.94961
391 1 18.8695 18.8694 22.0137 -8.94925
256 1 15.7248 22.0139 15.7247 -8.94989
250 1 6.2893 22.014 15.7249 -8.94954
528 1 7.8586 17.3065 11.0087 -8.95948
529 1 11.0065 17.3111 11.0064 -8.96924
209 1 18.8693 22.0139 12.5794 -8.94957
199 1 3.14415 22.014 12.5797 -8.94943
671 1 18.8696 15.7246 18.8695 -8.94957
533 1 1.57183 20.4419 11.0071 -8.94953
534 1 4.71608 20.4428 11.0073 -8.94937
670 1 17.2972 17.2972 20.4415 -8.9496
669 1 15.725 15.725 18.8701 -8.95017
668 1 14.152 17.2972 20.4416 -8.94966
667 1 12.5795 15.725 18.8702 -8.95
539 1 20.4415 20.4417 11.007 -8.94958
682 1 14.1519 20.4417 20.4416 -8.94956
681 1 12.5795 18.8696 18.8696 -8.9495
542 1 7.86001 11.0023 14.154 -8.97596
680 1 11.007 20.4417 20.4416 -8.94958
544 1 14.1635 11.0029 14.1634 -8.97291
679 1 9.43446 18.8696 18.8696 -8.94953
678 1 7.86202 20.4417 20.4416 -8.94958
547 1 22.0138 12.5793 12.5797 -8.95063
548 1 1.57123 14.152 14.1525 -8.94994
549 1 3.14125 12.5787 12.58 -8.95242
550 1 4.71309 14.1527 14.1544 -8.95039
551 1 6.27609 12.577 12.5809 -8.96366
552 1 7.85308 14.1614 14.1647 -8.98644
553 1 9.37706 12.5956 12.6032 -9.18557
554 1 11.0074 14.1586 14.161 -8.98602
555 1 12.6492 12.5988 12.6232 -9.13502
556 1 14.1639 14.164 14.1632 -8.96578
557 1 15.7417 12.581 12.5828 -8.96602
558 1 17.3016 14.1543 14.1543 -8.94942
559 1 18.873 12.5797 12.5797 -8.95379
560 1 20.4426 14.1523 14.1524 -8.95022
561 1 22.013 15.7248 12.5797 -8.95016
562 1 1.57088 17.2976 14.1527 -8.94966
563 1 3.14011 15.7264 12.5814 -8.95083
564 1 4.7127 17.301 14.1561 -8.94443
565 1 6.27505 15.7376 12.5919 -8.92886
566 1 7.8601 17.3013 14.1552 -8.94912
567 1 9.43088 15.7349 12.5867 -8.99815
568 1 11.0076 17.3004 14.1539 -8.94859
569 1 12.5876 15.7351 12.5876 -8.99794
570 1 14.1551 17.3016 14.1548 -8.94941
571 1 15.727 15.7256 12.5791 -8.95256
572 1 17.2978 17.2977 14.1521 -8.95066
573 1 18.87 15.7248 12.5793 -8.94975
574 1 20.4415 17.2971 14.152 -8.94982
575 1 -0.000429025 18.8695 12.5796 -8.94949
576 1 1.57188 20.4419 14.1521 -8.94954
577 1 3.14335 18.8704 12.5801 -8.94922
578 1 4.71622 20.4427 14.1527 -8.95
579 1 6.28755 18.8731 12.5811 -8.95156
580 1 7.8616 20.443 14.1529 -8.94948
581 1 9.43379 18.8736 12.5814 -8.94856
582 1 11.0073 20.4427 14.1527 -8.94946
583 1 12.5808 18.8728 12.5806 -8.95022
584 1 14.1527 20.4427 14.1525 -8.95031
585 1 15.725 18.8699 12.5793 -8.94958
586 1 17.297 20.4418 14.1519 -8.94974
587 1 18.8694 18.8695 12.5794 -8.94944
588 1 20.4415 20.4417 14.1519 -8.94955
677 1 6.2894 18.8696 18.8696 -8.94949
676 1 4.71711 20.4417 20.4415 -8.94958
591 1 7.86178 11.0072 17.2978 -8.9498
592 1 11.007 11.0067 17.3009 -8.95216
593 1 14.1537 11.0073 17.3005 -8.95071
675 1 3.14435 18.8695 18.8696 -8.94939
674 1 1.57223 20.4417 20.4415 -8.94943
596 1 3.98464e-05 12.5795 15.7249 -8.94948
597 1 1.57211 14.1519 17.2972 -8.94939
598 1 3.14367 12.5793 15.7253 -8.94871
599 1 4.71662 14.1517 17.2977 -8.94973
600 1 6.28854 12.5787 15.7253 -8.94913
601 1 7.86164 14.1521 17.2992 -8.95355
602 1 9.43561 12.5796 15.7242 -8.99832
603 1 11.0067 14.1526 17.2993 -8.95122
604 1 12.5805 12.5806 15.7287 -9.00206
605 1 14.1531 14.153 17.2996 -8.95218
606 1 15.7277 12.5806 15.7273 -8.9482
607 1 17.2979 14.1525 17.2979 -8.9494
608 1 18.8708 12.5798 15.7253 -8.94903
609 1 20.4419 14.152 17.2972 -8.94943
610 1 22.0139 15.7246 15.7248 -8.94982
611 1 1.57197 17.297 17.2972 -8.94974
612 1 3.14331 15.7249 15.7256 -8.95008
613 1 4.71587 17.2979 17.2986 -8.9491
614 1 6.28591 15.7278 15.7297 -8.94874
615 1 7.86158 17.2978 17.2983 -8.94905
616 1 9.43389 15.7274 15.7282 -8.94788
617 1 11.007 17.2979 17.2981 -8.94881
618 1 12.5806 15.7273 15.7282 -8.94928
619 1 14.1525 17.2979 17.2981 -8.9495
620 1 15.7283 15.7282 15.7281 -8.94465
621 1 17.298 17.2979 17.2978 -8.94829
622 1 18.8707 15.7254 15.7253 -8.94942
623 1 20.4419 17.2971 17.2971 -8.94949
624 1 22.0135 18.8695 15.7246 -8.94957
625 1 1.57199 20.4418 17.2971 -8.94923
626 1 3.14345 18.8703 15.7256 -8.94824
627 1 4.71685 20.4419 17.2972 -8.9496
628 1 6.28878 18.8707 15.7257 -8.94953
629 1 7.86195 20.4419 17.2973 -8.94957
630 1 9.43449 18.8706 15.7256 -8.94976
631 1 11.007 20.442 17.2973 -8.9495
632 1 12.5798 18.8705 15.7254 -8.94955
633 1 14.1521 20.4419 17.2972 -8.94957
634 1 15.7255 18.8708 15.7254 -8.94924
635 1 17.2971 20.4419 17.2971 -8.94945
636 1 18.8694 18.8696 15.7245 -8.94989
637 1 20.4415 20.4417 17.2968 -8.94963
387 1 12.5795 18.8696 22.0136 -8.9495
673 1 22.0139 18.8693 18.8693 -8.94956
640 1 7.86171 11.007 20.4419 -8.9492
641 1 11.0067 11.007 20.4422 -8.94949
642 1 14.1525 11.0071 20.4417 -8.95019
672 1 20.4417 17.2968 20.4415 -8.9496
385 1 9.43447 18.8696 22.0136 -8.94954
645 1 22.0139 12.5794 18.8693 -8.94958
646 1 1.57228 14.1518 20.4415 -8.94956
647 1 3.14444 12.5794 18.8695 -8.94955
648 1 4.71693 14.1518 20.4416 -8.94954
649 1 6.28916 12.5793 18.8697 -8.94925
650 1 7.86182 14.1519 20.4417 -8.95034
651 1 9.43417 12.5795 18.8699 -8.94821
652 1 11.0067 14.1522 20.4416 -8.95017
653 1 12.5797 12.5797 18.8706 -8.94974
654 1 14.1522 14.1523 20.4415 -8.95044
655 1 15.7253 12.5798 18.8702 -8.94929
656 1 17.2973 14.1521 20.4415 -8.94944
657 1 18.8697 12.5795 18.8695 -8.94952
658 1 20.4417 14.1519 20.4415 -8.94958
659 1 22.0139 15.7243 18.8693 -8.94954
660 1 1.5723 17.2967 20.4415 -8.94971
661 1 3.14453 15.7243 18.8695 -8.94974
662 1 4.71683 17.297 20.4416 -8.95004
663 1 6.28914 15.7247 18.8702 -8.95083
664 1 7.86185 17.2972 20.4416 -8.94959
665 1 9.43427 15.725 18.8702 -8.94994
666 1 11.0069 17.2972 20.4416 -8.94954
353 1 3.14452 12.5794 22.0137 -8.94957
11 1 15.7243 22.0139 22.0138 -8.94959
357 1 9.4343 12.5793 22.0136 -8.94927
359 1 12.5796 12.5795 22.0124 -8.95126
363 1 18.8696 12.5795 22.0136 -8.94953
365 1 22.014 15.7243 22.0138 -8.94955
369 1 6.28919 15.7246 22.0131 -8.95064
375 1 15.7251 15.7251 22.0129 -8.94996
5 1 6.28959 22.0139 22.0138 -8.94956
381 1 3.14443 18.8694 22.0135 -8.94951
595 1 20.442 11.007 17.2972 -8.94947
246 1 -0.000180498 22.0139 15.7244 -8.9496
589 1 1.57209 11.0069 17.2972 -8.94952
351 1 22.0139 12.5794 22.0138 -8.94959
538 1 17.2971 20.4419 11.007 -8.94957
532 1 20.4415 17.2973 11.007 -8.94957
535 1 7.86164 20.4438 11.0071 -8.95124
536 1 11.0071 20.4444 11.0069 -8.95303
1 1 22.0138 22.0139 22.0138 -8.94936
