ITEM: TIMESTEP
55
ITEM: NUMBER OF ATOMS
688
ITEM: BOX BOUNDS pp pp pp
0.0000000000000000e+00 2.2013900999999997e+01
0.0000000000000000e+00 2.2013900999999997e+01
0.0000000000000000e+00 2.2013900999999997e+01
ITEM: ATOMS id type x y z c_pot
518 1 20.4416 11.0069 11.0069 -8.94988
2 1 1.57242 1.57242 1.57242 -8.94962
448 1 20.4415 11.007 7.86211 -8.94987
4 1 4.71727 1.57242 1.57242 -8.94965
447 1 17.2977 11.0069 7.86213 -8.95184
6 1 7.86211 1.57242 1.57242 -8.94963
7 1 9.43453 1.30128e-08 3.42089e-08 -8.94963
8 1 11.007 1.57242 1.57242 -8.94964
9 1 12.5794 1.27932e-08 -2.02723e-09 -8.94963
10 1 14.1518 1.57242 1.57242 -8.94963
446 1 14.1614 11.0066 7.85922 -8.96831
12 1 17.2966 1.57242 1.57242 -8.94963
13 1 18.8691 5.50669e-09 -1.82274e-07 -8.94963
14 1 20.4415 1.57242 1.57242 -8.94963
444 1 7.86502 11.0064 7.862 -8.89861
16 1 1.57242 4.71726 1.57242 -8.94964
443 1 4.71644 11.0069 7.86144 -8.9461
18 1 4.71725 4.71725 1.57239 -8.94961
442 1 1.57228 11.0069 7.86204 -8.94955
20 1 7.86211 4.71725 1.57241 -8.94962
105 1 9.43454 -4.26375e-06 6.28968 -8.94966
22 1 11.007 4.71725 1.57241 -8.94965
107 1 12.5794 -5.08621e-06 6.28968 -8.9497
24 1 14.1518 4.71726 1.57242 -8.94974
517 1 17.298 11.0067 11.0066 -8.95099
26 1 17.2967 4.71724 1.5724 -8.94951
397 1 14.1535 11.0069 4.71541 -8.94831
28 1 20.4415 4.71726 1.57242 -8.94963
396 1 11.0081 11.0069 4.71021 -8.9884
30 1 1.57242 7.86211 1.57242 -8.94963
395 1 7.86237 11.0069 4.71709 -8.95021
32 1 4.71726 7.86211 1.57241 -8.94965
188 1 17.2966 4.71725 11.007 -8.94963
34 1 7.86203 7.86203 1.57218 -8.95002
35 1 9.43453 6.28967 -1.45215e-05 -8.94963
36 1 11.0069 7.86203 1.57225 -8.94959
37 1 12.5794 6.28968 -4.92356e-06 -8.94962
38 1 14.1519 7.86195 1.57211 -8.94986
183 1 1.57241 4.71726 11.007 -8.94961
40 1 17.2966 7.86211 1.57242 -8.94971
350 1 20.4415 11.007 1.57242 -8.94964
42 1 20.4415 7.86211 1.57242 -8.94963
345 1 4.71724 11.007 1.57239 -8.94961
44 1 3.14484 9.43453 -9.84196e-07 -8.94963
349 1 17.2966 11.007 1.57242 -8.94968
348 1 14.1519 11.0069 1.57216 -8.94945
347 1 11.0069 11.0069 1.57137 -8.95119
346 1 7.86207 11.0069 1.57235 -8.94946
344 1 1.57242 11.007 1.57242 -8.94964
181 1 17.2966 1.57242 11.007 -8.94963
51 1 1.57242 1.57242 4.71727 -8.94965
175 1 18.8693 9.43443 9.4345 -8.94948
53 1 4.71724 1.57239 4.71724 -8.94961
54 1 6.28969 -3.44117e-07 3.14484 -8.94964
55 1 7.86211 1.57242 4.71726 -8.94962
174 1 15.7254 9.43373 9.43436 -8.94602
57 1 11.007 1.57241 4.71725 -8.94963
173 1 12.5789 9.4333 9.43177 -8.94409
59 1 14.1518 1.57239 4.71725 -8.94967
60 1 15.7242 -3.85374e-07 3.14484 -8.94964
61 1 17.2966 1.57242 4.71726 -8.94964
172 1 9.35798 9.24667 9.43996 -8.10945
63 1 20.4415 1.57242 4.71726 -8.94963
64 1 22.0139 3.14484 3.14484 -8.94963
65 1 1.57239 4.71725 4.71725 -8.94962
66 1 3.14482 3.14482 3.14482 -8.94951
67 1 4.717 4.71699 4.71699 -8.94838
68 1 6.28969 3.14484 3.14484 -8.94974
69 1 7.86214 4.7172 4.7172 -8.95003
70 1 9.43452 3.14483 3.14483 -8.94965
71 1 11.007 4.7171 4.71711 -8.9493
72 1 12.5794 3.14484 3.14483 -8.94961
73 1 14.152 4.71693 4.71711 -8.94975
74 1 15.7242 3.14481 3.14482 -8.94961
75 1 17.2966 4.71726 4.71726 -8.94972
76 1 18.8691 3.14484 3.14484 -8.94965
77 1 20.4415 4.71726 4.71726 -8.94964
78 1 22.0139 6.28969 3.14484 -8.94964
79 1 1.57241 7.86211 4.71725 -8.94962
80 1 3.14484 6.28969 3.14484 -8.94972
81 1 4.71716 7.86211 4.71718 -8.95004
82 1 6.28953 6.28953 3.14451 -8.94973
83 1 7.86115 7.86119 4.71488 -8.95242
84 1 9.43453 6.28953 3.14468 -8.9493
85 1 11.0065 7.86149 4.71588 -8.95107
86 1 12.5793 6.28963 3.14477 -8.95003
87 1 14.1545 7.8593 4.71451 -8.93915
88 1 15.7245 6.28941 3.14457 -8.94836
89 1 17.2969 7.86196 4.71712 -8.94982
90 1 18.8691 6.28967 3.14483 -8.94962
91 1 20.4415 7.8621 4.71726 -8.94968
92 1 4.03948e-07 9.43453 3.14484 -8.94963
93 1 3.14483 9.43453 3.14483 -8.94963
94 1 6.28959 9.4346 3.14472 -8.94975
95 1 9.43407 9.43409 3.1439 -8.94891
96 1 12.58 9.43388 3.14253 -8.95336
97 1 15.7243 9.43449 3.14472 -8.94969
98 1 18.8691 9.43453 3.14483 -8.94962
99 1 22.0139 1.31921e-09 6.28969 -8.94963
100 1 1.57242 1.57242 7.86211 -8.94964
101 1 3.14484 -1.66569e-08 6.28969 -8.94964
102 1 4.71725 1.57241 7.86211 -8.94961
171 1 6.28096 9.43233 9.43445 -8.96823
104 1 7.86206 1.57223 7.86206 -8.95011
170 1 3.14388 9.43457 9.4345 -8.95151
106 1 11.007 1.57231 7.86206 -8.94968
169 1 22.0138 9.43453 9.43452 -8.94984
108 1 14.1518 1.57241 7.86211 -8.94965
168 1 18.8691 6.28967 9.43453 -8.94963
110 1 17.2966 1.57242 7.86211 -8.94963
111 1 18.8691 -7.87713e-08 6.28969 -8.94963
112 1 20.4415 1.57242 7.86211 -8.94963
113 1 1.89916e-07 3.14484 6.28969 -8.94963
114 1 1.57241 4.71726 7.86211 -8.94961
115 1 3.14484 3.14484 6.28969 -8.94971
116 1 4.71714 4.71715 7.86207 -8.94969
117 1 6.28953 3.14453 6.28953 -8.94984
118 1 7.8614 4.71496 7.86143 -8.95307
119 1 9.43459 3.14467 6.28961 -8.9496
120 1 11.0074 4.71633 7.86168 -8.94892
121 1 12.5795 3.14461 6.28961 -8.95004
122 1 14.1519 4.7171 7.86215 -8.94965
123 1 15.7242 3.14483 6.28969 -8.94964
124 1 17.2966 4.71725 7.8621 -8.94964
125 1 18.8691 3.14484 6.28969 -8.94963
126 1 20.4415 4.71726 7.86211 -8.94963
127 1 22.0139 6.28968 6.28968 -8.94968
128 1 1.57223 7.86207 7.86208 -8.9501
129 1 3.14454 6.28955 6.28955 -8.94985
130 1 4.71495 7.86144 7.86148 -8.95329
131 1 6.28699 6.28698 6.28693 -8.93944
132 1 7.84178 7.84315 7.84322 -8.87642
133 1 9.435 6.28832 6.28908 -8.9512
134 1 11.0133 7.85881 7.85419 -8.92317
135 1 12.5803 6.28727 6.28874 -8.95261
136 1 14.1533 7.86116 7.86248 -8.94881
137 1 15.7243 6.28959 6.28968 -8.95
138 1 17.2969 7.86198 7.86211 -8.94951
139 1 18.8691 6.28968 6.28968 -8.94962
140 1 20.4415 7.86209 7.8621 -8.94967
141 1 22.0139 9.43453 6.28968 -8.94969
142 1 3.14462 9.43454 6.28957 -8.94956
143 1 6.28837 9.43506 6.28892 -8.94948
144 1 9.42839 9.42658 6.2865 -8.92257
145 1 12.6002 9.41511 6.27008 -8.87245
146 1 15.7266 9.43381 6.28894 -8.9532
147 1 18.8693 9.4345 6.28965 -8.95012
167 1 15.7244 6.28945 9.43452 -8.94893
166 1 12.5794 6.28916 9.43416 -8.94919
150 1 6.28967 -1.6197e-06 9.43453 -8.94967
165 1 9.43312 6.28225 9.43425 -8.98695
164 1 6.28805 6.28796 9.43452 -8.94835
153 1 15.7242 -2.41638e-06 9.43453 -8.94964
163 1 3.14461 6.28957 9.43453 -8.94944
155 1 22.0139 3.14484 9.43453 -8.94963
156 1 3.14484 3.14484 9.43453 -8.94968
157 1 6.28956 3.1446 9.43453 -8.94945
158 1 9.43457 3.14375 9.4345 -8.9512
159 1 12.5794 3.14474 9.4345 -8.94946
160 1 15.7242 3.14482 9.43453 -8.94962
161 1 18.8691 3.14484 9.43453 -8.94964
162 1 -1.69531e-05 6.28968 9.43453 -8.94965
177 1 4.71725 1.57241 11.007 -8.94961
184 1 4.71714 4.71715 11.007 -8.9497
48 1 15.7242 9.43453 -1.42013e-05 -8.94961
189 1 20.4415 4.71726 11.007 -8.94963
3 1 3.14484 1.42923e-09 1.224e-07 -8.94964
19 1 6.28969 3.14484 5.5399e-07 -8.94964
25 1 15.7242 3.14484 4.60784e-07 -8.94965
29 1 22.0139 6.28969 4.14096e-08 -8.94963
176 1 1.57242 1.57242 11.007 -8.94964
644 1 20.4415 11.007 20.4415 -8.94963
178 1 7.86207 1.57223 11.007 -8.9501
179 1 11.007 1.5723 11.007 -8.95
180 1 14.1518 1.57241 11.0069 -8.94964
643 1 17.2966 11.007 20.4415 -8.94963
182 1 20.4415 1.57242 11.007 -8.94963
639 1 4.71726 11.007 20.4415 -8.94963
638 1 1.57242 11.007 20.4415 -8.94963
185 1 7.86144 4.71495 11.0076 -8.95333
186 1 11.0074 4.71565 11.0074 -8.95126
187 1 14.1519 4.71713 11.0069 -8.94978
295 1 22.0139 7.19565e-09 18.8691 -8.94963
39 1 15.7242 6.28967 22.0139 -8.94961
190 1 1.57223 7.86208 11.007 -8.95013
191 1 4.71492 7.86143 11.0076 -8.95352
192 1 7.84122 7.84255 11.0265 -8.87234
193 1 11.0138 7.85023 11.0154 -8.93829
194 1 14.1533 7.86112 11.0063 -8.95076
195 1 17.2969 7.86197 11.0069 -8.9496
196 1 20.4415 7.8621 11.007 -8.94969
197 1 22.0139 -1.32707e-08 12.5794 -8.94963
198 1 1.57242 1.57242 14.1518 -8.94965
343 1 18.8691 9.43453 18.8691 -8.94966
200 1 4.71725 1.57239 14.1518 -8.94962
201 1 6.28967 -1.86394e-06 12.5794 -8.94973
202 1 7.86211 1.57241 14.1518 -8.94963
203 1 9.43451 3.42186e-05 12.5794 -8.94967
204 1 11.007 1.5724 14.1518 -8.94964
205 1 12.5794 3.30812e-05 12.5794 -8.94971
206 1 14.1518 1.57239 14.1518 -8.94968
207 1 15.7242 -1.52939e-06 12.5794 -8.94964
208 1 17.2966 1.57242 14.1518 -8.94964
342 1 15.7242 9.43455 18.8691 -8.94972
210 1 20.4415 1.57242 14.1518 -8.94963
211 1 1.99939e-07 3.14484 12.5794 -8.94963
212 1 1.57239 4.71725 14.1518 -8.94962
213 1 3.14484 3.14484 12.5794 -8.94971
214 1 4.71699 4.71699 14.1521 -8.94836
215 1 6.28954 3.14453 12.5795 -8.94987
216 1 7.8621 4.71712 14.1519 -8.94999
217 1 9.43456 3.14461 12.5795 -8.94962
218 1 11.0069 4.71701 14.152 -8.94951
219 1 12.5795 3.14454 12.5795 -8.95011
220 1 14.152 4.71684 14.152 -8.94971
221 1 15.7242 3.14484 12.5794 -8.94966
222 1 17.2966 4.71726 14.1518 -8.94975
223 1 18.8691 3.14484 12.5794 -8.94963
224 1 20.4415 4.71726 14.1518 -8.94964
225 1 22.0139 6.28968 12.5794 -8.94968
226 1 1.57241 7.86211 14.1518 -8.94963
227 1 3.14454 6.28955 12.5795 -8.94986
228 1 4.71716 7.86211 14.1519 -8.95029
229 1 6.2869 6.28693 12.5822 -8.93907
230 1 7.86078 7.8606 14.1546 -8.95191
231 1 9.43464 6.28775 12.5803 -8.95017
232 1 11.0064 7.86046 14.1538 -8.95218
233 1 12.5808 6.28651 12.5807 -8.9517
234 1 14.1552 7.85847 14.1551 -8.93681
235 1 15.7244 6.28959 12.5794 -8.95013
236 1 17.297 7.86195 14.1519 -8.95007
237 1 18.8691 6.28967 12.5794 -8.94962
238 1 20.4415 7.8621 14.1518 -8.94969
239 1 22.0139 9.43453 12.5794 -8.94968
240 1 3.14463 9.43455 12.5795 -8.94954
241 1 6.28833 9.43527 12.58 -8.95094
242 1 9.42581 9.42442 12.5867 -8.97237
243 1 12.6048 9.4107 12.6044 -8.90462
244 1 15.7269 9.43395 12.58 -8.95475
245 1 18.8693 9.4345 12.5794 -8.95016
47 1 12.5794 9.43449 22.0137 -8.95015
247 1 1.57242 1.57242 17.2966 -8.94962
248 1 3.14484 -1.00272e-07 15.7242 -8.94962
249 1 4.71726 1.57242 17.2966 -8.94965
341 1 12.5795 9.43443 18.8694 -8.95028
251 1 7.86211 1.57242 17.2966 -8.94964
252 1 9.43453 5.31991e-06 15.7242 -8.94966
253 1 11.007 1.57242 17.2966 -8.94964
254 1 12.5794 5.52452e-06 15.7242 -8.94966
255 1 14.1518 1.57242 17.2966 -8.94964
340 1 9.43444 9.43443 18.8693 -8.94983
257 1 17.2966 1.57242 17.2966 -8.94962
258 1 18.8691 -6.03921e-08 15.7242 -8.94964
259 1 20.4415 1.57242 17.2966 -8.94963
260 1 22.0139 3.14484 15.7242 -8.94963
261 1 1.57242 4.71726 17.2966 -8.94965
262 1 3.14482 3.14482 15.7242 -8.94951
263 1 4.71724 4.71724 17.2967 -8.9496
264 1 6.28969 3.14484 15.7242 -8.94973
265 1 7.8621 4.71724 17.2967 -8.94961
266 1 9.43452 3.14482 15.7242 -8.94968
267 1 11.007 4.71725 17.2967 -8.94963
268 1 12.5794 3.14482 15.7242 -8.94965
269 1 14.1518 4.71725 17.2966 -8.94975
270 1 15.7242 3.1448 15.7242 -8.9496
271 1 17.2967 4.71724 17.2967 -8.94949
272 1 18.8691 3.14484 15.7242 -8.94965
273 1 20.4415 4.71726 17.2966 -8.94963
274 1 22.0139 6.28969 15.7242 -8.94964
275 1 1.57242 7.8621 17.2966 -8.94962
276 1 3.14484 6.28969 15.7242 -8.94975
277 1 4.71723 7.86209 17.2967 -8.94955
278 1 6.28949 6.28948 15.7246 -8.94963
279 1 7.86192 7.86193 17.297 -8.9497
280 1 9.43447 6.28939 15.7245 -8.9494
281 1 11.0069 7.86198 17.2969 -8.94951
282 1 12.5794 6.28949 15.7244 -8.9502
283 1 14.1521 7.86186 17.2971 -8.94956
284 1 15.7245 6.28934 15.7245 -8.94811
285 1 17.2967 7.86209 17.2967 -8.94963
286 1 18.8691 6.28967 15.7242 -8.94964
287 1 20.4415 7.86211 17.2966 -8.94962
288 1 3.79507e-07 9.43452 15.7242 -8.94964
289 1 3.14479 9.4345 15.7243 -8.94957
290 1 6.28931 9.43435 15.7246 -8.94886
291 1 9.43343 9.43315 15.7264 -8.94709
292 1 12.5807 9.43293 15.7279 -8.95187
293 1 15.7246 9.43426 15.7246 -8.94895
294 1 18.8691 9.4345 15.7243 -8.94956
339 1 6.28969 9.43455 18.8691 -8.94976
296 1 1.57242 1.57242 20.4415 -8.94963
338 1 3.14485 9.43453 18.8691 -8.94965
298 1 4.71726 1.57242 20.4415 -8.94963
299 1 6.28969 7.50915e-07 18.8691 -8.94963
300 1 7.86211 1.57242 20.4415 -8.94963
337 1 22.0139 9.43453 18.8691 -8.94964
302 1 11.007 1.57242 20.4415 -8.94963
336 1 20.4415 7.86211 20.4415 -8.94963
304 1 14.1518 1.57242 20.4415 -8.94963
305 1 15.7242 7.86692e-07 18.8691 -8.94963
306 1 17.2966 1.57242 20.4415 -8.94964
335 1 18.8691 6.28969 18.8691 -8.94964
308 1 20.4415 1.57242 20.4415 -8.94963
309 1 22.0139 3.14484 18.8691 -8.94963
310 1 1.57242 4.71726 20.4415 -8.94963
311 1 3.14484 3.14484 18.8691 -8.94963
312 1 4.71726 4.71726 20.4415 -8.94963
313 1 6.28969 3.14484 18.8691 -8.94963
314 1 7.86211 4.71726 20.4415 -8.94964
315 1 9.43453 3.14484 18.8691 -8.94964
316 1 11.007 4.71726 20.4415 -8.94964
317 1 12.5794 3.14484 18.8691 -8.94963
318 1 14.1518 4.71727 20.4415 -8.94964
319 1 15.7242 3.14484 18.8691 -8.94965
320 1 17.2966 4.71726 20.4415 -8.94962
321 1 18.8691 3.14484 18.8691 -8.94962
322 1 20.4415 4.71726 20.4415 -8.94963
323 1 22.0139 6.28969 18.8691 -8.94963
324 1 1.57242 7.86211 20.4415 -8.94963
325 1 3.14484 6.28969 18.8691 -8.94963
326 1 4.71727 7.86211 20.4415 -8.94965
327 1 6.28966 6.28967 18.8691 -8.94963
328 1 7.86209 7.86209 20.4415 -8.94969
329 1 9.43453 6.28967 18.8691 -8.94966
330 1 11.0069 7.86209 20.4415 -8.94964
331 1 12.5794 6.28968 18.8691 -8.94965
332 1 14.1518 7.86208 20.4415 -8.94972
333 1 15.7242 6.28966 18.8691 -8.94958
334 1 17.2966 7.86211 20.4415 -8.94965
512 1 1.57225 11.0069 11.007 -8.94954
513 1 4.71618 11.0067 11.0073 -8.94505
515 1 11.096 10.945 11.1797 -8.40497
594 1 17.2966 11.007 17.2966 -8.94979
590 1 4.71729 11.007 17.2966 -8.94974
540 1 1.57237 11.0069 14.1518 -8.94964
541 1 4.71674 11.0067 14.1523 -8.94831
543 1 11.008 11.002 14.1697 -9.02609
545 1 17.2972 11.0067 14.1522 -8.94881
546 1 20.4415 11.0069 14.1518 -8.94967
46 1 9.43448 9.43448 22.0138 -8.94973
33 1 6.28967 6.28967 22.0139 -8.94966
45 1 6.28968 9.43453 22.0139 -8.94965
41 1 18.8691 6.28969 22.0139 -8.94965
15 1 22.0139 3.14484 22.0139 -8.94963
17 1 3.14484 3.14484 22.0139 -8.94963
31 1 3.14484 6.28969 22.0139 -8.94964
27 1 18.8691 3.14484 22.0139 -8.94962
21 1 9.43453 3.14484 22.0139 -8.94964
23 1 12.5794 3.14484 22.0139 -8.94963
43 1 22.0139 9.43453 22.0139 -8.94963
49 1 18.8691 9.43453 22.0139 -8.94964
688 3 10.2119 11.0147 9.42875 2.54379
511 1 18.8691 18.8691 9.43453 -8.94965
510 1 15.7242 18.8691 9.43455 -8.94978
509 1 12.5797 18.8695 9.43426 -8.94896
508 1 9.43434 18.8704 9.43427 -8.95052
507 1 6.28956 18.8693 9.43455 -8.94961
506 1 3.14484 18.8691 9.43453 -8.9497
50 1 9.55486e-08 22.0139 3.14484 -8.94964
352 1 1.57242 14.1518 1.57242 -8.94963
154 1 18.8691 22.0139 9.43453 -8.94963
354 1 4.71726 14.1518 1.57241 -8.94965
152 1 12.5794 22.0139 9.43451 -8.94966
356 1 7.86202 14.1519 1.57216 -8.95008
151 1 9.43452 22.0139 9.43451 -8.95012
358 1 11.0069 14.1519 1.57224 -8.94959
149 1 3.14484 22.0139 9.43453 -8.94964
360 1 14.1519 14.1519 1.57209 -8.94988
361 1 15.7242 12.5794 -1.33748e-05 -8.94961
362 1 17.2966 14.1518 1.57242 -8.94971
148 1 1.63311e-09 22.0139 9.43453 -8.94963
364 1 20.4415 14.1518 1.57242 -8.94963
109 1 15.7242 22.0139 6.28968 -8.94963
366 1 1.57242 17.2966 1.57242 -8.94965
367 1 3.14484 15.7242 2.64045e-07 -8.94964
368 1 4.71724 17.2967 1.57239 -8.94961
393 1 1.5724 11.007 4.71725 -8.94961
370 1 7.86211 17.2966 1.57242 -8.94962
371 1 9.43453 15.7242 -7.4747e-06 -8.94965
372 1 11.007 17.2966 1.57241 -8.94965
373 1 12.5794 15.7242 2.52283e-06 -8.94965
374 1 14.1518 17.2966 1.57242 -8.94975
537 1 14.1518 20.4415 11.0069 -8.94961
376 1 17.2967 17.2967 1.5724 -8.94951
377 1 18.8691 15.7242 3.99595e-07 -8.94965
378 1 20.4415 17.2966 1.57242 -8.94963
103 1 6.28967 22.0139 6.28967 -8.94971
380 1 1.57242 20.4415 1.57242 -8.94962
62 1 18.8691 22.0139 3.14484 -8.94963
382 1 4.71727 20.4415 1.57242 -8.94965
383 1 6.28969 18.8691 1.9981e-06 -8.94963
384 1 7.86211 20.4415 1.57242 -8.94963
58 1 12.5794 22.0139 3.14484 -8.94963
386 1 11.007 20.4415 1.57242 -8.94964
56 1 9.43453 22.0139 3.14484 -8.94964
388 1 14.1518 20.4415 1.57242 -8.94963
389 1 15.7242 18.8691 1.93559e-06 -8.94965
390 1 17.2966 20.4415 1.57242 -8.94963
52 1 3.14484 22.0139 3.14484 -8.94962
392 1 20.4415 20.4415 1.57242 -8.94963
505 1 22.0139 18.8691 9.43453 -8.94964
504 1 18.8691 15.7243 9.4345 -8.94959
503 1 15.7247 15.7245 9.43443 -8.94945
502 1 12.5823 15.7262 9.43196 -8.98229
501 1 9.43028 15.7325 9.43215 -9.02386
500 1 6.28762 15.7261 9.43443 -8.94865
399 1 20.4415 11.007 4.71726 -8.94965
400 1 4.36268e-07 12.5794 3.14484 -8.94963
401 1 1.57241 14.1518 4.71725 -8.94962
402 1 3.14483 12.5794 3.14483 -8.94963
403 1 4.71716 14.1518 4.71718 -8.95015
404 1 6.28959 12.5793 3.14471 -8.94974
405 1 7.86105 14.1528 4.7146 -8.95276
406 1 9.43407 12.5798 3.14381 -8.94923
407 1 11.0065 14.1525 4.71582 -8.95077
408 1 12.58 12.58 3.14245 -8.95358
409 1 14.1546 14.1547 4.71437 -8.93895
410 1 15.7243 12.5794 3.14472 -8.94969
411 1 17.2969 14.1519 4.71712 -8.94988
412 1 18.8691 12.5794 3.14483 -8.94961
413 1 20.4415 14.1518 4.71726 -8.94968
414 1 22.0139 15.7242 3.14484 -8.94964
415 1 1.57239 17.2967 4.71725 -8.94962
416 1 3.14484 15.7242 3.14484 -8.94974
417 1 4.71697 17.2969 4.71697 -8.94825
418 1 6.28951 15.7244 3.14448 -8.94973
419 1 7.86215 17.2967 4.7172 -8.95014
420 1 9.43453 15.7244 3.14467 -8.94932
421 1 11.007 17.2968 4.71711 -8.94916
422 1 12.5793 15.7243 3.14477 -8.95005
423 1 14.1519 17.297 4.7171 -8.94982
424 1 15.7245 15.7245 3.14455 -8.94832
425 1 17.2966 17.2966 4.71726 -8.9497
426 1 18.8691 15.7242 3.14483 -8.94963
427 1 20.4415 17.2966 4.71726 -8.94964
428 1 22.0139 18.8691 3.14484 -8.94963
429 1 1.57242 20.4415 4.71727 -8.94965
430 1 3.14482 18.8691 3.14482 -8.9495
431 1 4.71724 20.4415 4.71724 -8.94961
432 1 6.28969 18.8691 3.14484 -8.94976
433 1 7.86212 20.4415 4.71726 -8.94964
434 1 9.43453 18.8691 3.14483 -8.94965
435 1 11.007 20.4415 4.71725 -8.94963
436 1 12.5794 18.8691 3.14483 -8.94961
437 1 14.1518 20.4415 4.71725 -8.94969
438 1 15.7242 18.8691 3.14483 -8.94962
439 1 17.2966 20.4415 4.71726 -8.94963
440 1 18.8691 18.8691 3.14484 -8.94964
441 1 20.4415 20.4415 4.71726 -8.94963
499 1 3.14455 15.7244 9.43451 -8.9494
498 1 -1.77412e-05 15.7242 9.43453 -8.94965
497 1 18.8692 12.5794 9.43453 -8.94963
445 1 11.0901 11.0093 7.67211 -8.10628
496 1 15.7255 12.5801 9.43441 -8.94699
495 1 12.58 12.5784 9.42933 -8.93179
494 1 9.34494 12.7792 9.42633 -8.08998
449 1 22.0139 12.5794 6.28968 -8.94968
450 1 1.57222 14.1518 7.86208 -8.95017
451 1 3.14462 12.5793 6.28957 -8.94953
452 1 4.71474 14.1525 7.86142 -8.95389
453 1 6.28833 12.5787 6.2889 -8.94966
454 1 7.8392 14.1729 7.84043 -8.8605
455 1 9.42796 12.5876 6.28531 -8.92552
456 1 11.0138 14.1547 7.85416 -8.97375
457 1 12.6007 12.5992 6.26927 -8.87126
458 1 14.1538 14.1528 7.86195 -8.9487
459 1 15.7266 12.58 6.28897 -8.95332
460 1 17.2969 14.1519 7.86207 -8.94967
461 1 18.8693 12.5794 6.28965 -8.9501
462 1 20.4415 14.1518 7.8621 -8.94971
463 1 22.0139 15.7242 6.28968 -8.94969
464 1 1.5724 17.2966 7.8621 -8.9496
465 1 3.14452 15.7244 6.28954 -8.94988
466 1 4.71711 17.2968 7.86206 -8.94969
467 1 6.28671 15.7272 6.28664 -8.93791
468 1 7.86117 17.2993 7.8612 -8.95264
469 1 9.43513 15.7256 6.28891 -8.95206
470 1 11.0074 17.2973 7.86193 -8.94966
471 1 12.5803 15.7266 6.28862 -8.9533
472 1 14.1522 17.2971 7.86191 -8.94862
473 1 15.7244 15.7244 6.28962 -8.94987
474 1 17.2967 17.2967 7.86209 -8.94963
475 1 18.8691 15.7242 6.28968 -8.94962
476 1 20.4415 17.2966 7.8621 -8.94962
477 1 1.66672e-07 18.8691 6.28969 -8.94963
478 1 1.57242 20.4415 7.86211 -8.94964
479 1 3.14484 18.8691 6.28969 -8.94971
480 1 4.71725 20.4415 7.86211 -8.94963
481 1 6.28952 18.8694 6.28951 -8.94978
482 1 7.86204 20.4417 7.86203 -8.95008
483 1 9.43462 18.8692 6.28962 -8.94974
484 1 11.007 20.4416 7.86207 -8.94959
485 1 12.5794 18.8693 6.28962 -8.95021
486 1 14.1518 20.4415 7.86208 -8.94959
487 1 15.7242 18.8691 6.28967 -8.94953
488 1 17.2966 20.4415 7.86211 -8.94965
489 1 18.8691 18.8691 6.28968 -8.94963
490 1 20.4415 20.4415 7.86211 -8.94963
491 1 22.0138 12.5794 9.43453 -8.94986
492 1 3.14386 12.5793 9.43454 -8.95171
493 1 6.2805 12.5815 9.43441 -8.9707
516 1 14.1623 11.006 11.0075 -9.02338
522 1 11.0131 14.2022 10.9928 -9.18722
523 1 14.1532 14.153 11.005 -9.00313
524 1 17.2971 14.1522 11.0067 -8.94851
525 1 20.4415 14.1518 11.0069 -8.94968
526 1 1.57241 17.2966 11.007 -8.94962
527 1 4.71714 17.2968 11.007 -8.94966
530 1 14.1518 17.2967 11.007 -8.95038
531 1 17.2966 17.2967 11.007 -8.9496
394 1 4.7171 11.0069 4.71704 -8.94884
398 1 17.2969 11.0069 4.71714 -8.94945
355 1 6.28968 12.5794 -1.14662e-05 -8.94965
379 1 22.0139 18.8691 -1.09287e-07 -8.94963
687 2 11.0031 12.5876 11.7845 0.918668
686 1 20.4415 20.4415 20.4415 -8.94963
514 1 7.86495 11.0065 11.0048 -8.95094
685 1 18.8691 18.8691 18.8691 -8.94961
307 1 18.8691 22.0139 18.8691 -8.94963
684 1 17.2966 20.4415 20.4415 -8.94963
683 1 15.7242 18.8691 18.8691 -8.94962
519 1 1.5722 14.1518 11.007 -8.95013
520 1 4.71457 14.1527 11.0073 -8.9526
521 1 7.84026 14.1724 11.0256 -8.92031
303 1 12.5794 22.0139 18.8691 -8.94963
301 1 9.43453 22.0139 18.8691 -8.94963
297 1 3.14484 22.0139 18.8691 -8.94964
391 1 18.8691 18.8691 22.0139 -8.94962
256 1 15.7242 22.0139 15.7242 -8.94962
250 1 6.28968 22.0139 15.7242 -8.94963
528 1 7.86156 17.2989 11.0077 -8.95411
529 1 11.0074 17.3033 11.0073 -8.96194
209 1 18.8691 22.0139 12.5794 -8.94963
199 1 3.14484 22.0139 12.5794 -8.94963
671 1 18.8691 15.7242 18.8691 -8.94966
533 1 1.57242 20.4415 11.007 -8.94964
534 1 4.71725 20.4415 11.007 -8.9496
670 1 17.2966 17.2966 20.4415 -8.94963
669 1 15.7242 15.7242 18.8691 -8.94972
668 1 14.1518 17.2966 20.4415 -8.94963
667 1 12.5794 15.7243 18.8692 -8.94974
539 1 20.4415 20.4415 11.007 -8.94963
682 1 14.1518 20.4415 20.4415 -8.94964
681 1 12.5794 18.8691 18.8691 -8.94966
542 1 7.86074 11.004 14.1542 -8.98182
680 1 11.007 20.4415 20.4415 -8.94964
544 1 14.1549 11.0043 14.1557 -8.97977
679 1 9.43453 18.8691 18.8691 -8.94966
678 1 7.86211 20.4415 20.4415 -8.94964
547 1 22.0139 12.5794 12.5794 -8.94992
548 1 1.57238 14.1518 14.1518 -8.94965
549 1 3.14418 12.5793 12.5795 -8.95111
550 1 4.71681 14.152 14.1521 -8.94958
551 1 6.2829 12.5787 12.5801 -8.96142
552 1 7.85948 14.1558 14.1565 -8.98497
553 1 9.38467 12.5859 12.6033 -9.19892
554 1 11.0067 14.1561 14.1578 -8.98534
555 1 12.6389 12.5942 12.6155 -9.14942
556 1 14.1558 14.1573 14.1564 -8.9716
557 1 15.7321 12.58 12.5801 -8.96291
558 1 17.2973 14.1522 14.1522 -8.94921
559 1 18.8697 12.5794 12.5794 -8.95166
560 1 20.4415 14.1518 14.1518 -8.9497
561 1 22.0139 15.7242 12.5794 -8.94967
562 1 1.57239 17.2967 14.1518 -8.94963
563 1 3.14454 15.7244 12.5795 -8.94984
564 1 4.717 17.2969 14.1521 -8.94849
565 1 6.28686 15.7269 12.5821 -8.93943
566 1 7.86201 17.2971 14.152 -8.95042
567 1 9.43409 15.726 12.5816 -9.00338
568 1 11.007 17.2973 14.152 -8.95055
569 1 12.5813 15.7268 12.5819 -9.00335
570 1 14.1521 17.2973 14.1521 -8.95006
571 1 15.7244 15.7242 12.5793 -8.95076
572 1 17.2966 17.2966 14.1518 -8.94987
573 1 18.8691 15.7242 12.5794 -8.94961
574 1 20.4415 17.2966 14.1518 -8.94964
575 1 1.71718e-07 18.8691 12.5794 -8.94964
576 1 1.57242 20.4415 14.1518 -8.94965
577 1 3.14484 18.8691 12.5794 -8.94971
578 1 4.71724 20.4415 14.1518 -8.94963
579 1 6.28952 18.8694 12.5795 -8.94988
580 1 7.86208 20.4415 14.1518 -8.94959
581 1 9.43432 18.8696 12.5797 -8.94857
582 1 11.007 20.4415 14.1518 -8.94973
583 1 12.5797 18.8696 12.5797 -8.94897
584 1 14.1518 20.4416 14.1518 -8.94963
585 1 15.7242 18.8691 12.5794 -8.94967
586 1 17.2966 20.4415 14.1518 -8.94965
587 1 18.8691 18.8691 12.5794 -8.94963
588 1 20.4415 20.4415 14.1518 -8.94963
677 1 6.28968 18.8691 18.8691 -8.94961
676 1 4.71726 20.4415 20.4415 -8.94963
591 1 7.86219 11.0071 17.2968 -8.95036
592 1 11.0069 11.0069 17.2988 -8.95397
593 1 14.1518 11.0071 17.2969 -8.95033
675 1 3.14484 18.8691 18.8691 -8.94962
674 1 1.57242 20.4415 20.4415 -8.94963
596 1 5.6903e-07 12.5794 15.7242 -8.94961
597 1 1.57243 14.1518 17.2966 -8.94963
598 1 3.14486 12.5794 15.7242 -8.94952
599 1 4.7173 14.1518 17.2966 -8.94979
600 1 6.28985 12.5793 15.7241 -8.95025
601 1 7.86213 14.1518 17.2969 -8.95085
602 1 9.43502 12.58 15.7247 -8.99856
603 1 11.0069 14.1519 17.2974 -8.95083
604 1 12.579 12.5802 15.7258 -9.00109
605 1 14.1518 14.1518 17.297 -8.95064
606 1 15.7241 12.5794 15.7242 -8.9502
607 1 17.2966 14.1518 17.2966 -8.94982
608 1 18.869 12.5794 15.7242 -8.94952
609 1 20.4415 14.1518 17.2966 -8.94963
610 1 22.0139 15.7242 15.7242 -8.94964
611 1 1.57242 17.2966 17.2966 -8.94964
612 1 3.1448 15.7242 15.7242 -8.94967
613 1 4.71722 17.2967 17.2967 -8.9495
614 1 6.28925 15.7246 15.7248 -8.94872
615 1 7.86203 17.2967 17.2967 -8.94938
616 1 9.43419 15.7251 15.7252 -8.94823
617 1 11.007 17.2967 17.2967 -8.94943
618 1 12.5797 15.725 15.7251 -8.94885
619 1 14.1519 17.2967 17.2967 -8.94948
620 1 15.7247 15.7247 15.7247 -8.94749
621 1 17.2967 17.2967 17.2967 -8.94941
622 1 18.8691 15.7243 15.7243 -8.94956
623 1 20.4415 17.2966 17.2966 -8.94962
624 1 22.0139 18.8691 15.7242 -8.94963
625 1 1.57242 20.4415 17.2966 -8.94962
626 1 3.14482 18.8691 15.7242 -8.94953
627 1 4.71726 20.4415 17.2966 -8.94965
628 1 6.28968 18.8691 15.7242 -8.94973
629 1 7.8621 20.4415 17.2966 -8.94964
630 1 9.43451 18.8692 15.7243 -8.94981
631 1 11.007 20.4415 17.2966 -8.94961
632 1 12.5794 18.8692 15.7243 -8.94978
633 1 14.1518 20.4415 17.2966 -8.94964
634 1 15.7242 18.8691 15.7242 -8.94959
635 1 17.2966 20.4415 17.2966 -8.94963
636 1 18.8691 18.8691 15.7242 -8.94966
637 1 20.4415 20.4415 17.2966 -8.94963
387 1 12.5794 18.8691 22.0139 -8.94963
673 1 22.0139 18.8691 18.8691 -8.94963
640 1 7.8621 11.007 20.4415 -8.94963
641 1 11.0069 11.007 20.4416 -8.9504
642 1 14.1518 11.007 20.4415 -8.94967
672 1 20.4415 17.2966 20.4415 -8.94964
385 1 9.43453 18.8691 22.0139 -8.94964
645 1 22.0139 12.5794 18.8691 -8.94964
646 1 1.57242 14.1518 20.4415 -8.94963
647 1 3.14484 12.5794 18.8691 -8.94963
648 1 4.71726 14.1518 20.4415 -8.94963
649 1 6.28967 12.5794 18.8691 -8.94955
650 1 7.8621 14.1518 20.4415 -8.94971
651 1 9.43444 12.5794 18.8692 -8.94924
652 1 11.0069 14.1518 20.4415 -8.94984
653 1 12.5795 12.5794 18.8692 -8.94959
654 1 14.1518 14.1518 20.4415 -8.94972
655 1 15.7242 12.5794 18.8691 -8.94953
656 1 17.2966 14.1518 20.4415 -8.94963
657 1 18.8691 12.5794 18.8691 -8.94964
658 1 20.4415 14.1518 20.4415 -8.94963
659 1 22.0139 15.7242 18.8691 -8.94963
660 1 1.57242 17.2966 20.4415 -8.94964
661 1 3.14485 15.7242 18.8691 -8.94966
662 1 4.71726 17.2966 20.4415 -8.94964
663 1 6.28968 15.7242 18.8691 -8.94977
664 1 7.8621 17.2966 20.4415 -8.94963
665 1 9.4345 15.7243 18.8692 -8.94974
666 1 11.007 17.2966 20.4415 -8.94962
353 1 3.14484 12.5794 22.0139 -8.94963
11 1 15.7242 22.0139 22.0139 -8.94963
357 1 9.43448 12.5794 22.0138 -8.9497
359 1 12.5794 12.5794 22.0137 -8.95011
363 1 18.8691 12.5794 22.0139 -8.94964
365 1 22.0139 15.7242 22.0139 -8.94963
369 1 6.28967 15.7242 22.0139 -8.94967
375 1 15.7242 15.7242 22.0139 -8.94962
5 1 6.28969 22.0139 22.0139 -8.94963
381 1 3.14484 18.8691 22.0139 -8.94963
595 1 20.4415 11.007 17.2966 -8.94964
246 1 9.37583e-08 22.0139 15.7242 -8.94963
589 1 1.57243 11.007 17.2966 -8.94964
351 1 22.0139 12.5794 22.0139 -8.94963
538 1 17.2966 20.4415 11.007 -8.94963
532 1 20.4415 17.2966 11.007 -8.94964
535 1 7.86207 20.4417 11.007 -8.95009
536 1 11.007 20.4421 11.007 -8.95132
1 1 22.0139 22.0139 22.0139 -8.94963
