ITEM: TIMESTEP
75
ITEM: NUMBER OF ATOMS
688
ITEM: BOX BOUNDS pp pp pp
0.0000000000000000e+00 2.2013900999999997e+01
0.0000000000000000e+00 2.2013900999999997e+01
0.0000000000000000e+00 2.2013900999999997e+01
ITEM: ATOMS id type x y z c_pot
518 1 20.4424 11.0068 11.0067 -8.9499
2 1 1.57224 1.57232 1.57225 -8.94935
448 1 20.4422 11.0069 7.86206 -8.94976
4 1 4.71716 1.57228 1.57223 -8.9497
447 1 17.3 11.0069 7.86217 -8.95195
6 1 7.86207 1.57226 1.57221 -8.94956
7 1 9.43452 1.41952e-05 -7.07942e-05 -8.94962
8 1 11.007 1.57225 1.5722 -8.94959
9 1 12.5794 1.32079e-05 -6.69868e-05 -8.94961
10 1 14.1519 1.57225 1.57224 -8.94956
446 1 14.1635 11.0068 7.85393 -8.97271
12 1 17.2968 1.57221 1.57223 -8.94955
13 1 18.8691 7.44723e-06 -6.24254e-05 -8.94953
14 1 20.4415 1.57236 1.57237 -8.94962
444 1 7.88137 11.0074 7.87151 -8.89171
16 1 1.57229 4.71718 1.57224 -8.94978
443 1 4.71846 11.0068 7.86207 -8.94102
18 1 4.71665 4.71669 1.57151 -8.94951
442 1 1.57185 11.0069 7.86168 -8.94807
20 1 7.86192 4.71673 1.57172 -8.94925
105 1 9.43469 0.00012843 6.28929 -8.94996
22 1 11.0069 4.71663 1.57173 -8.94946
107 1 12.5795 8.58698e-05 6.28949 -8.95014
24 1 14.152 4.7166 1.57176 -8.94976
517 1 17.3012 11.0062 11.0058 -8.9508
26 1 17.2974 4.71647 1.57172 -8.94845
397 1 14.1608 11.0069 4.70829 -8.94286
28 1 20.4417 4.71709 1.57225 -8.94957
396 1 11.0116 11.0072 4.71963 -9.00074
30 1 1.5723 7.86208 1.57223 -8.9495
395 1 7.86429 11.0069 4.71946 -8.94626
32 1 4.71702 7.86226 1.57205 -8.94966
188 1 17.2974 4.71646 11.0069 -8.94905
34 1 7.86178 7.86192 1.57094 -8.95189
35 1 9.4343 6.28919 -0.000459556 -8.94956
36 1 11.0066 7.86133 1.57052 -8.9502
37 1 12.5794 6.2892 -0.000467239 -8.94959
38 1 14.153 7.86087 1.5697 -8.95142
183 1 1.57152 4.71667 11.0071 -8.94936
40 1 17.2974 7.86171 1.57167 -8.94939
350 1 20.4417 11.0069 1.5722 -8.94958
42 1 20.4417 7.86202 1.57221 -8.94954
345 1 4.71682 11.0069 1.57184 -8.94965
44 1 3.14465 9.4345 -0.000145936 -8.94958
349 1 17.2975 11.0069 1.57164 -8.94953
348 1 14.1534 11.0069 1.56947 -8.94948
347 1 11.0068 11.0069 1.57139 -8.94708
346 1 7.86186 11.0069 1.57223 -8.94839
344 1 1.57227 11.0069 1.57219 -8.94962
181 1 17.2969 1.57221 11.0069 -8.94958
51 1 1.5722 1.57228 4.71713 -8.94962
175 1 18.8704 9.43386 9.43422 -8.94819
53 1 4.71671 1.57182 4.71668 -8.94982
54 1 6.28962 4.03058e-05 3.14457 -8.94962
55 1 7.86208 1.57189 4.7168 -8.94958
174 1 15.7255 9.43324 9.43344 -8.94135
57 1 11.0071 1.57187 4.71678 -8.94957
173 1 12.5683 9.43575 9.42725 -8.94836
59 1 14.1521 1.57183 4.71698 -8.95035
60 1 15.7244 2.03367e-05 3.14464 -8.9499
61 1 17.2968 1.57229 4.71721 -8.94961
172 1 9.36386 9.21176 9.44642 -8.15765
63 1 20.4415 1.57236 4.71723 -8.9496
64 1 22.0137 3.14468 3.14468 -8.94957
65 1 1.57157 4.71674 4.71672 -8.94963
66 1 3.14412 3.1442 3.14411 -8.94855
67 1 4.71444 4.71455 4.71441 -8.94538
68 1 6.28943 3.14421 3.14421 -8.94974
69 1 7.86154 4.71514 4.7156 -8.94936
70 1 9.4345 3.14414 3.14422 -8.94946
71 1 11.0072 4.71509 4.71564 -8.94805
72 1 12.5795 3.1441 3.14429 -8.94926
73 1 14.1537 4.71384 4.71533 -8.95018
74 1 15.7249 3.14383 3.14421 -8.94953
75 1 17.2973 4.71659 4.71703 -8.95002
76 1 18.8692 3.14463 3.14474 -8.94974
77 1 20.4415 4.71704 4.71714 -8.94972
78 1 22.0139 6.28958 3.14464 -8.94975
79 1 1.57201 7.86213 4.71693 -8.9497
80 1 3.14431 6.28958 3.14432 -8.9502
81 1 4.71588 7.86229 4.71621 -8.95129
82 1 6.28786 6.28801 3.14174 -8.9501
83 1 7.8577 7.85765 4.70937 -8.95397
84 1 9.43409 6.28812 3.14272 -8.94802
85 1 11.0069 7.85849 4.71055 -8.95083
86 1 12.5798 6.28797 3.14255 -8.94939
87 1 14.163 7.85135 4.70608 -8.93109
88 1 15.7273 6.28655 3.14178 -8.94496
89 1 17.2999 7.8605 4.71564 -8.95066
90 1 18.87 6.2891 3.14426 -8.94964
91 1 20.4421 7.86187 4.71696 -8.95007
92 1 2.96958e-05 9.43446 3.14456 -8.94957
93 1 3.14434 9.43448 3.14426 -8.9491
94 1 6.28943 9.4352 3.14429 -8.94928
95 1 9.43482 9.43464 3.14374 -8.95063
96 1 12.5815 9.43333 3.13754 -8.95887
97 1 15.7268 9.43352 3.14211 -8.94792
98 1 18.87 9.43432 3.14422 -8.94935
99 1 22.0138 1.42885e-05 6.28965 -8.94963
100 1 1.57216 1.57226 7.86206 -8.94959
101 1 3.14449 4.87419e-05 6.28953 -8.94952
102 1 4.71662 1.57176 7.86187 -8.94943
171 1 6.28128 9.42772 9.43444 -8.97007
104 1 7.86187 1.57123 7.86182 -8.95115
170 1 3.14216 9.43465 9.43422 -8.95089
106 1 11.0071 1.5719 7.86197 -8.94941
169 1 22.0135 9.43445 9.4344 -8.94971
108 1 14.1522 1.57209 7.86198 -8.94954
168 1 18.8698 6.28897 9.43446 -8.94955
110 1 17.2969 1.57222 7.86206 -8.9496
111 1 18.8692 1.57355e-05 6.28965 -8.94963
112 1 20.4415 1.57234 7.86209 -8.94962
113 1 -0.000188492 3.14464 6.2896 -8.94954
114 1 1.57154 4.71669 7.8619 -8.94938
115 1 3.1441 3.14415 6.2893 -8.94941
116 1 4.71479 4.71481 7.86112 -8.9481
117 1 6.28847 3.14228 6.28844 -8.95104
118 1 7.85968 4.71029 7.86066 -8.95745
119 1 9.43478 3.14289 6.28886 -8.95013
120 1 11.0066 4.71531 7.86195 -8.95075
121 1 12.5797 3.14307 6.28936 -8.95196
122 1 14.1527 4.71574 7.86215 -8.94879
123 1 15.7246 3.14424 6.28966 -8.9495
124 1 17.2974 4.71651 7.86199 -8.94918
125 1 18.8692 3.14461 6.28963 -8.94951
126 1 20.4415 4.71695 7.86203 -8.94959
127 1 22.0134 6.28939 6.28943 -8.95
128 1 1.57063 7.86181 7.86179 -8.9513
129 1 3.14191 6.28831 6.28823 -8.95059
130 1 4.70891 7.8592 7.85991 -8.95701
131 1 6.27955 6.27985 6.27997 -8.93271
132 1 7.82671 7.83025 7.83343 -8.86456
133 1 9.43425 6.28317 6.28617 -8.95097
134 1 11.02 7.85543 7.84231 -8.9072
135 1 12.5842 6.28074 6.28447 -8.95434
136 1 14.1568 7.85943 7.86264 -8.94934
137 1 15.7262 6.28802 6.28932 -8.9505
138 1 17.2987 7.86112 7.86222 -8.94946
139 1 18.8697 6.28923 6.2896 -8.9496
140 1 20.4418 7.86176 7.86199 -8.94983
141 1 22.0139 9.43451 6.28942 -8.94987
142 1 3.14364 9.43502 6.28908 -8.94961
143 1 6.28729 9.43698 6.28927 -8.95233
144 1 9.42324 9.41575 6.28606 -8.90755
145 1 12.6182 9.40257 6.25415 -8.86038
146 1 15.7337 9.43199 6.28608 -8.95732
147 1 18.8711 9.43424 6.28931 -8.9515
167 1 15.7262 6.28755 9.43421 -8.94704
166 1 12.5794 6.28808 9.43286 -8.94485
150 1 6.28914 0.000141256 9.4345 -8.95011
165 1 9.42941 6.28955 9.43403 -8.99829
164 1 6.28123 6.28147 9.43442 -8.9436
153 1 15.7245 4.38176e-05 9.43451 -8.94965
163 1 3.14176 6.28809 9.43445 -8.94916
155 1 22.0137 3.14462 9.43452 -8.94958
156 1 3.14404 3.14411 9.4345 -8.94955
157 1 6.2881 3.14204 9.43444 -8.94945
158 1 9.43435 3.14315 9.4342 -8.94724
159 1 12.5799 3.14375 9.43417 -8.94879
160 1 15.7248 3.14405 9.43443 -8.94961
161 1 18.8693 3.14455 9.4345 -8.94961
162 1 -0.00055804 6.28929 9.4345 -8.94986
177 1 4.7166 1.57173 11.0071 -8.94942
184 1 4.71471 4.7147 11.0078 -8.948
48 1 15.7249 9.43432 -0.000680517 -8.94944
189 1 20.4415 4.71694 11.007 -8.94958
3 1 3.14479 1.0555e-05 -5.8127e-05 -8.94967
19 1 6.2896 3.14465 -0.000143055 -8.94955
25 1 15.7243 3.14462 -0.000125978 -8.9497
29 1 22.0139 6.28966 -5.39753e-05 -8.9496
176 1 1.57216 1.57226 11.007 -8.9496
644 1 20.4416 11.007 20.4415 -8.94962
178 1 7.86189 1.57109 11.007 -8.95117
179 1 11.0071 1.5716 11.0069 -8.95078
180 1 14.1522 1.57199 11.0068 -8.94941
643 1 17.297 11.007 20.4416 -8.94954
182 1 20.4415 1.57234 11.007 -8.94962
639 1 4.717 11.007 20.4416 -8.94967
638 1 1.57233 11.0069 20.4415 -8.94962
185 1 7.85968 4.70966 11.0081 -8.95818
186 1 11.0068 4.71191 11.007 -8.95616
187 1 14.1526 4.71559 11.0061 -8.94894
295 1 22.0139 9.95126e-06 18.8691 -8.9495
39 1 15.7248 6.28907 22.0133 -8.94991
190 1 1.57055 7.86181 11.0071 -8.95147
191 1 4.70838 7.859 11.009 -8.95777
192 1 7.82411 7.82685 11.0395 -8.85685
193 1 11.0226 7.83612 11.0292 -8.92687
194 1 14.1565 7.85885 11.0045 -8.95338
195 1 17.2987 7.86106 11.0063 -8.94956
196 1 20.4418 7.86176 11.0069 -8.94987
197 1 22.0138 1.56819e-05 12.5794 -8.94962
198 1 1.57219 1.57227 14.1519 -8.94962
343 1 18.8694 9.43449 18.8693 -8.94962
200 1 4.71667 1.57173 14.1523 -8.9499
201 1 6.28929 0.000113124 12.5797 -8.95045
202 1 7.86189 1.57171 14.1524 -8.94965
203 1 9.43449 0.000325028 12.5798 -8.95017
204 1 11.0071 1.57161 14.1524 -8.9496
205 1 12.5798 0.00023935 12.5796 -8.95034
206 1 14.1523 1.57159 14.1522 -8.95045
207 1 15.7245 3.82179e-05 12.5794 -8.94954
208 1 17.2968 1.57225 14.1518 -8.94969
342 1 15.7249 9.43436 18.8701 -8.94976
210 1 20.4415 1.57235 14.1518 -8.94959
211 1 -0.000191069 3.14463 12.5794 -8.94954
212 1 1.57149 4.7167 14.1523 -8.94967
213 1 3.14406 3.14411 12.5797 -8.94941
214 1 4.71406 4.7142 14.1548 -8.94502
215 1 6.28836 3.14201 12.5805 -8.95125
216 1 7.86089 4.71396 14.1541 -8.9491
217 1 9.43451 3.14196 12.5804 -8.95035
218 1 11.0073 4.71368 14.154 -8.94816
219 1 12.5801 3.14202 12.5799 -8.95242
220 1 14.1546 4.71245 14.1544 -8.94959
221 1 15.7247 3.14414 12.5792 -8.94961
222 1 17.2975 4.71643 14.152 -8.95022
223 1 18.8693 3.14459 12.5794 -8.94949
224 1 20.4415 4.71701 14.1519 -8.94976
225 1 22.0134 6.28937 12.5796 -8.95009
226 1 1.57188 7.86206 14.1521 -8.94975
227 1 3.14164 6.28819 12.5808 -8.95076
228 1 4.71521 7.86199 14.153 -8.95183
229 1 6.27829 6.27865 12.5899 -8.93088
230 1 7.85506 7.8544 14.1629 -8.95207
231 1 9.43294 6.27944 12.585 -8.94909
232 1 11.0072 7.85413 14.1617 -8.95157
233 1 12.5866 6.27628 12.5866 -8.9513
234 1 14.166 7.84783 14.1657 -8.92641
235 1 15.7267 6.28768 12.5793 -8.95118
236 1 17.3007 7.86011 14.1536 -8.95124
237 1 18.8698 6.28918 12.5793 -8.9497
238 1 20.4422 7.86178 14.1521 -8.95016
239 1 22.0139 9.43444 12.5796 -8.94988
240 1 3.14314 9.43494 12.5799 -8.94953
241 1 6.28558 9.43685 12.5802 -8.95361
242 1 9.41715 9.40785 12.5948 -8.95818
243 1 12.6248 9.39298 12.6232 -8.89377
244 1 15.7353 9.43147 12.5829 -8.95893
245 1 18.8716 9.43413 12.5796 -8.95161
47 1 12.5795 9.43438 22.0128 -8.95147
247 1 1.57222 1.5723 17.2968 -8.94935
248 1 3.14453 3.479e-05 15.7245 -8.94957
249 1 4.71709 1.57224 17.2969 -8.94965
341 1 12.5797 9.43409 18.8716 -8.95185
251 1 7.86202 1.57219 17.2969 -8.94959
252 1 9.43452 5.63892e-05 15.7246 -8.94963
253 1 11.007 1.57217 17.297 -8.9496
254 1 12.5795 4.16254e-05 15.7246 -8.94958
255 1 14.1519 1.57217 17.2969 -8.94959
340 1 9.43409 9.4342 18.8708 -8.95007
257 1 17.2969 1.57215 17.2969 -8.94947
258 1 18.8691 1.52386e-05 15.7242 -8.94969
259 1 20.4415 1.57235 17.2967 -8.94964
260 1 22.0137 3.14466 15.7244 -8.94958
261 1 1.57225 4.71714 17.2969 -8.94982
262 1 3.14403 3.14412 15.725 -8.94848
263 1 4.71642 4.71645 17.2978 -8.94932
264 1 6.28922 3.14392 15.725 -8.94964
265 1 7.86172 4.71634 17.2977 -8.94919
266 1 9.43441 3.14376 15.7251 -8.94952
267 1 11.0069 4.71623 17.2977 -8.94928
268 1 12.5796 3.14369 15.725 -8.94932
269 1 14.1523 4.71619 17.2977 -8.9497
270 1 15.7251 3.14348 15.7251 -8.94934
271 1 17.2977 4.71621 17.2976 -8.94814
272 1 18.8693 3.14458 15.7243 -8.9498
273 1 20.4418 4.71704 17.2968 -8.94959
274 1 22.014 6.28954 15.7244 -8.9498
275 1 1.57216 7.86196 17.297 -8.94945
276 1 3.1441 6.28945 15.7248 -8.95033
277 1 4.71651 7.86191 17.2975 -8.94922
278 1 6.28699 6.28704 15.7282 -8.9494
279 1 7.86096 7.86105 17.2996 -8.95114
280 1 9.43366 6.28675 15.7276 -8.94815
281 1 11.0066 7.86053 17.3001 -8.94965
282 1 12.5804 6.28651 15.7278 -8.94953
283 1 14.1539 7.86001 17.3008 -8.95059
284 1 15.7283 6.28552 15.7282 -8.94368
285 1 17.2979 7.86143 17.2978 -8.94913
286 1 18.8703 6.28893 15.7249 -8.94973
287 1 20.4418 7.86192 17.297 -8.9495
288 1 1.89296e-05 9.43436 15.7246 -8.94965
289 1 3.14375 9.43419 15.7252 -8.94901
290 1 6.28774 9.43395 15.7264 -8.94773
291 1 9.43293 9.4316 15.7303 -8.949
292 1 12.5835 9.43031 15.7359 -8.95657
293 1 15.7282 9.43269 15.7281 -8.94713
294 1 18.8705 9.43407 15.7252 -8.94924
339 1 6.2893 9.43457 18.8697 -8.94979
296 1 1.57235 1.57235 20.4415 -8.94953
338 1 3.1446 9.43451 18.8693 -8.94963
298 1 4.71721 1.57236 20.4415 -8.94961
299 1 6.28963 2.20502e-05 18.8692 -8.94961
300 1 7.86208 1.57233 20.4415 -8.94961
337 1 22.0139 9.43451 18.8692 -8.94961
302 1 11.007 1.57233 20.4415 -8.94962
336 1 20.4416 7.86208 20.4415 -8.94964
304 1 14.1518 1.57234 20.4415 -8.9496
305 1 15.7243 1.74787e-05 18.8692 -8.94962
306 1 17.2967 1.57234 20.4415 -8.94967
335 1 18.8694 6.28947 18.8693 -8.94953
308 1 20.4415 1.57238 20.4415 -8.94948
309 1 22.0139 3.14478 18.8691 -8.94964
310 1 1.57237 4.71723 20.4415 -8.94965
311 1 3.14461 3.14462 18.8693 -8.94949
312 1 4.71702 4.71704 20.4416 -8.9498
313 1 6.28955 3.14457 18.8693 -8.94953
314 1 7.86195 4.71693 20.4416 -8.94954
315 1 9.43448 3.14452 18.8694 -8.94956
316 1 11.0069 4.7169 20.4416 -8.94958
317 1 12.5794 3.14452 18.8693 -8.94954
318 1 14.1519 4.71693 20.4416 -8.94961
319 1 15.7244 3.14454 18.8693 -8.94968
320 1 17.297 4.71691 20.4416 -8.9495
321 1 18.8693 3.1446 18.8692 -8.94926
322 1 20.4416 4.71719 20.4415 -8.94961
323 1 22.0139 6.28961 18.8692 -8.94955
324 1 1.57234 7.86208 20.4415 -8.94961
325 1 3.14461 6.2896 18.8693 -8.94957
326 1 4.71705 7.8621 20.4416 -8.94963
327 1 6.28916 6.28922 18.87 -8.95011
328 1 7.86179 7.86188 20.4419 -8.95021
329 1 9.43423 6.28897 18.8701 -8.94957
330 1 11.0068 7.86167 20.4419 -8.95002
331 1 12.5795 6.28898 18.8701 -8.9496
332 1 14.1522 7.86164 20.4419 -8.95054
333 1 15.725 6.28887 18.8702 -8.94968
334 1 17.297 7.86195 20.4416 -8.94957
512 1 1.57152 11.0067 11.0071 -8.94827
513 1 4.71686 11.0062 11.006 -8.94001
515 1 11.0896 10.9284 11.1972 -8.44362
594 1 17.2976 11.007 17.2977 -8.94954
590 1 4.71666 11.007 17.2975 -8.94968
540 1 1.57148 11.0068 14.1525 -8.94974
541 1 4.71398 11.006 14.1543 -8.94602
543 1 11.0108 10.9978 14.1669 -9.03614
545 1 17.3014 11.0063 14.1543 -8.94796
546 1 20.4425 11.0068 14.1523 -8.95002
46 1 9.4343 9.43451 22.0137 -8.94959
33 1 6.28937 6.28942 22.0134 -8.95031
45 1 6.28943 9.43459 22.0137 -8.94948
41 1 18.8693 6.28955 22.0138 -8.94963
15 1 22.0139 3.14479 22.0138 -8.94962
17 1 3.14465 3.14466 22.0137 -8.94953
31 1 3.14472 6.28969 22.0138 -8.9497
27 1 18.8693 3.14465 22.0138 -8.94932
21 1 9.4345 3.1446 22.0137 -8.94959
23 1 12.5794 3.14461 22.0138 -8.94956
43 1 22.0139 9.43451 22.0138 -8.94962
49 1 18.8693 9.43448 22.0137 -8.94959
688 3 10.1995 11.0272 9.42035 2.35352
511 1 18.8693 18.8694 9.43451 -8.94962
510 1 15.7249 18.8699 9.43453 -8.94994
509 1 12.5808 18.8717 9.43338 -8.94835
508 1 9.43359 18.8727 9.43341 -8.94692
507 1 6.2878 18.8724 9.43451 -8.94975
506 1 3.14389 18.87 9.43451 -8.94951
50 1 -7.0609e-05 22.0139 3.14479 -8.94963
352 1 1.57229 14.1518 1.57222 -8.9495
154 1 18.8692 22.0139 9.43452 -8.94962
354 1 4.71697 14.1516 1.57195 -8.94965
152 1 12.5798 22.0143 9.4343 -8.94972
356 1 7.86173 14.152 1.57054 -8.95226
151 1 9.43454 22.0144 9.4343 -8.94936
358 1 11.0066 14.1526 1.5703 -8.95017
149 1 3.14446 22.014 9.43452 -8.94954
360 1 14.153 14.153 1.56955 -8.95137
361 1 15.7249 12.5796 -0.000711536 -8.94941
362 1 17.2974 14.1522 1.57165 -8.94939
148 1 -8.73583e-05 22.0139 9.43453 -8.94963
364 1 20.4417 14.1519 1.57221 -8.94954
109 1 15.7245 22.014 6.28955 -8.94949
366 1 1.57227 17.2967 1.57221 -8.9498
367 1 3.14471 15.7242 -0.000114328 -8.94969
368 1 4.71655 17.2973 1.57133 -8.94951
393 1 1.57189 11.0069 4.71667 -8.9495
370 1 7.86192 17.2972 1.57157 -8.94929
371 1 9.43433 15.7247 -0.000572769 -8.94966
372 1 11.007 17.2973 1.57162 -8.94944
373 1 12.5794 15.7247 -0.000556419 -8.94967
374 1 14.1521 17.2973 1.57168 -8.94982
537 1 14.1522 20.4421 11.0069 -8.94923
376 1 17.2974 17.2974 1.57168 -8.94841
377 1 18.8693 15.7243 -0.000147607 -8.94961
378 1 20.4417 17.2968 1.57224 -8.94957
103 1 6.28928 22.0141 6.28923 -8.95036
380 1 1.57222 20.4416 1.57223 -8.94931
62 1 18.8691 22.0139 3.14481 -8.94963
382 1 4.71714 20.4417 1.5722 -8.9497
383 1 6.28959 18.8693 -0.000164828 -8.94956
384 1 7.86207 20.4417 1.57218 -8.94956
58 1 12.5795 22.0139 3.14456 -8.94953
386 1 11.007 20.4417 1.57217 -8.94958
56 1 9.43455 22.0139 3.14453 -8.94958
388 1 14.1519 20.4417 1.57222 -8.94954
389 1 15.7243 18.8693 -0.000136457 -8.94971
390 1 17.2969 20.4417 1.57221 -8.94953
52 1 3.14454 22.0139 3.14454 -8.94951
392 1 20.4415 20.4416 1.57236 -8.94963
505 1 22.0137 18.8693 9.43452 -8.94958
504 1 18.87 15.725 9.43431 -8.94953
503 1 15.7268 15.7263 9.43407 -8.94866
502 1 12.5842 15.7293 9.42793 -8.97497
501 1 9.42289 15.7294 9.42823 -9.03736
500 1 6.27886 15.734 9.43374 -8.94375
399 1 20.4422 11.0069 4.71685 -8.94984
400 1 2.40796e-05 12.5794 3.14456 -8.94958
401 1 1.57191 14.1517 4.71688 -8.94968
402 1 3.1443 12.5793 3.14423 -8.94913
403 1 4.71552 14.1515 4.71585 -8.9513
404 1 6.28929 12.5785 3.14403 -8.9492
405 1 7.85693 14.1568 4.70737 -8.9552
406 1 9.4348 12.5792 3.14325 -8.95088
407 1 11.0071 14.1556 4.70995 -8.95052
408 1 12.5816 12.5806 3.13729 -8.95892
409 1 14.1633 14.1627 4.70576 -8.93024
410 1 15.7269 12.5803 3.14207 -8.94791
411 1 17.3 14.1534 4.71561 -8.95069
412 1 18.87 12.5796 3.14421 -8.94935
413 1 20.4421 14.152 4.71694 -8.95006
414 1 22.0139 15.7243 3.14463 -8.94975
415 1 1.5714 17.2972 4.71662 -8.94966
416 1 3.14421 15.7243 3.14421 -8.95023
417 1 4.71382 17.2999 4.71376 -8.9443
418 1 6.28754 15.7261 3.14107 -8.95022
419 1 7.86143 17.2992 4.71499 -8.94956
420 1 9.43417 15.7259 3.14226 -8.9481
421 1 11.0074 17.2991 4.71526 -8.94758
422 1 12.5799 15.726 3.14227 -8.94956
423 1 14.154 17.3003 4.71496 -8.95035
424 1 15.7274 15.7274 3.14167 -8.94474
425 1 17.2973 17.2973 4.71702 -8.95017
426 1 18.87 15.7248 3.14425 -8.94964
427 1 20.4415 17.2969 4.71712 -8.94975
428 1 22.0137 18.8692 3.14465 -8.94957
429 1 1.57216 20.4417 4.71711 -8.9496
430 1 3.14399 18.8698 3.14398 -8.94831
431 1 4.7166 20.4424 4.71657 -8.94971
432 1 6.28937 18.8698 3.14405 -8.94978
433 1 7.86209 20.4422 4.71672 -8.94963
434 1 9.43453 18.8699 3.14409 -8.94941
435 1 11.0072 20.4422 4.71671 -8.94956
436 1 12.5796 18.8699 3.14419 -8.94917
437 1 14.1521 20.4422 4.71693 -8.95045
438 1 15.7249 18.8702 3.1441 -8.94952
439 1 17.2969 20.4417 4.71716 -8.9495
440 1 18.8692 18.8693 3.14473 -8.94979
441 1 20.4415 20.4416 4.71721 -8.94958
499 1 3.14098 15.7262 9.43426 -8.94898
498 1 -0.000673076 15.7247 9.43442 -8.94991
497 1 18.8701 12.5798 9.43438 -8.94802
445 1 11.0934 11.0106 7.64215 -8.14544
496 1 15.7244 12.5795 9.43433 -8.94131
495 1 12.5645 12.5707 9.43065 -8.9294
494 1 9.34414 12.8243 9.43193 -8.11094
449 1 22.0138 12.5793 6.2894 -8.94989
450 1 1.57032 14.152 7.86177 -8.95171
451 1 3.14336 12.5787 6.28896 -8.94953
452 1 4.70715 14.155 7.85929 -8.95859
453 1 6.28629 12.5763 6.28843 -8.95121
454 1 7.81891 14.19 7.82517 -8.84301
455 1 9.42174 12.6 6.28416 -8.91066
456 1 11.0213 14.1589 7.84153 -8.96131
457 1 12.6191 12.6121 6.25338 -8.85556
458 1 14.1563 14.1528 7.86325 -8.95134
459 1 15.7339 12.5817 6.28608 -8.95715
460 1 17.2985 14.1525 7.86232 -8.9498
461 1 18.8712 12.5796 6.2893 -8.95148
462 1 20.4417 14.1521 7.86201 -8.94993
463 1 22.0133 15.7245 6.2894 -8.95013
464 1 1.57132 17.2973 7.86181 -8.94933
465 1 3.1413 15.7258 6.28793 -8.95086
466 1 4.71401 17.2997 7.8608 -8.94788
467 1 6.27719 15.7362 6.2775 -8.92796
468 1 7.85791 17.3062 7.85889 -8.95641
469 1 9.43439 15.7317 6.28456 -8.95257
470 1 11.0067 17.2992 7.86167 -8.95073
471 1 12.5847 15.7336 6.28344 -8.95594
472 1 14.154 17.2992 7.86098 -8.94612
473 1 15.7262 15.7256 6.28944 -8.95099
474 1 17.2977 17.2975 7.86187 -8.94937
475 1 18.8697 15.7246 6.28959 -8.94969
476 1 20.4416 17.297 7.86196 -8.94959
477 1 -0.000220705 18.8693 6.28956 -8.94952
478 1 1.57213 20.4417 7.86205 -8.9496
479 1 3.1439 18.8699 6.2892 -8.94934
480 1 4.71652 20.4424 7.86187 -8.9495
481 1 6.28796 18.8725 6.28792 -8.95068
482 1 7.86161 20.4435 7.86156 -8.95124
483 1 9.43486 18.8714 6.28857 -8.95026
484 1 11.0071 20.4425 7.86187 -8.94913
485 1 12.5798 18.871 6.28919 -8.95223
486 1 14.1525 20.4424 7.86174 -8.94935
487 1 15.7249 18.87 6.28939 -8.94887
488 1 17.2969 20.4417 7.86207 -8.9497
489 1 18.8693 18.8694 6.28957 -8.94951
490 1 20.4415 20.4416 7.86208 -8.94962
491 1 22.0134 12.5793 9.43443 -8.94967
492 1 3.14181 12.5789 9.43435 -8.95118
493 1 6.27949 12.587 9.43425 -8.97417
516 1 14.1654 11.003 11.011 -9.02615
522 1 11.0191 14.2201 11.0012 -9.16182
523 1 14.1549 14.1531 11.0027 -9.00658
524 1 17.2991 14.153 11.0058 -8.94783
525 1 20.4419 14.1522 11.0068 -8.94989
526 1 1.57137 17.2973 11.0071 -8.94932
527 1 4.71426 17.2997 11.0079 -8.94765
530 1 14.1524 17.2981 11.0065 -8.94927
531 1 17.2975 17.2975 11.0069 -8.94902
394 1 4.71593 11.0067 4.71569 -8.94667
398 1 17.3 11.0069 4.71549 -8.94901
355 1 6.2894 12.5793 -0.000224531 -8.94946
379 1 22.0139 18.8691 -6.08222e-05 -8.94964
687 2 11.0021 12.5978 11.7639 0.845742
686 1 20.4415 20.4415 20.4415 -8.94947
514 1 7.87778 11.0064 10.9967 -8.94926
685 1 18.8693 18.8693 18.8692 -8.94928
307 1 18.8692 22.0139 18.8692 -8.94952
684 1 17.2967 20.4416 20.4415 -8.94966
683 1 15.7244 18.8694 18.8693 -8.94962
519 1 1.57007 14.1522 11.007 -8.95169
520 1 4.70619 14.1556 11.0086 -8.95688
521 1 7.81854 14.1911 11.0403 -8.89946
303 1 12.5794 22.0139 18.8692 -8.9496
301 1 9.43451 22.0139 18.8692 -8.94961
297 1 3.14476 22.0139 18.8692 -8.94965
391 1 18.8693 18.8693 22.0138 -8.94934
256 1 15.7245 22.0139 15.7245 -8.94981
250 1 6.28949 22.014 15.7246 -8.94956
528 1 7.85951 17.3053 11.0085 -8.95925
529 1 11.0067 17.3101 11.0064 -8.96854
209 1 18.8692 22.0139 12.5794 -8.9496
199 1 3.14448 22.0139 12.5795 -8.94948
671 1 18.8693 15.7244 18.8693 -8.94963
533 1 1.57213 20.4417 11.007 -8.94959
534 1 4.71653 20.4424 11.0072 -8.94939
670 1 17.2969 17.2969 20.4415 -8.9496
669 1 15.7248 15.7248 18.8699 -8.95009
668 1 14.1519 17.297 20.4416 -8.94964
667 1 12.5794 15.7248 18.87 -8.9499
539 1 20.4415 20.4416 11.007 -8.94962
682 1 14.1518 20.4416 20.4415 -8.9496
681 1 12.5794 18.8694 18.8694 -8.94953
542 1 7.85972 11.0023 14.1545 -8.97622
680 1 11.007 20.4416 20.4415 -8.94962
544 1 14.1628 11.0031 14.1629 -8.97311
679 1 9.43448 18.8694 18.8694 -8.94956
678 1 7.86207 20.4416 20.4415 -8.94961
547 1 22.0138 12.5794 12.5796 -8.95062
548 1 1.57154 14.1519 14.1523 -8.94988
549 1 3.14162 12.5788 12.58 -8.95232
550 1 4.71382 14.1525 14.154 -8.95035
551 1 6.27651 12.5768 12.5808 -8.96377
552 1 7.85363 14.1608 14.1642 -8.98644
553 1 9.37641 12.5944 12.6036 -9.18608
554 1 11.0072 14.1578 14.1605 -8.98574
555 1 12.6503 12.5995 12.6235 -9.13268
556 1 14.1635 14.1639 14.1631 -8.9654
557 1 15.7413 12.5812 12.5824 -8.96602
558 1 17.301 14.154 14.154 -8.94943
559 1 18.8725 12.5797 12.5796 -8.95372
560 1 20.4423 14.1522 14.1522 -8.95016
561 1 22.0133 15.7246 12.5796 -8.95006
562 1 1.57138 17.2973 14.1524 -8.94965
563 1 3.14113 15.7259 12.5809 -8.95072
564 1 4.71372 17.3001 14.1552 -8.94476
565 1 6.27673 15.7361 12.5908 -8.92937
566 1 7.86072 17.3004 14.1544 -8.94946
567 1 9.4317 15.7332 12.5859 -8.99902
568 1 11.0074 17.2997 14.1534 -8.94875
569 1 12.5867 15.7339 12.5867 -8.99933
570 1 14.1545 17.3009 14.1543 -8.94973
571 1 15.7265 15.7254 12.579 -8.95227
572 1 17.2974 17.2974 14.152 -8.95051
573 1 18.8698 15.7247 12.5793 -8.94965
574 1 20.4415 17.2969 14.1519 -8.94976
575 1 -0.00021615 18.8693 12.5795 -8.94954
576 1 1.57216 20.4417 14.1519 -8.94961
577 1 3.14393 18.8699 12.5798 -8.94935
578 1 4.7166 20.4423 14.1524 -8.94993
579 1 6.28813 18.8723 12.5807 -8.9514
580 1 7.86177 20.4426 14.1525 -8.94946
581 1 9.43399 18.8728 12.5811 -8.94839
582 1 11.0072 20.4424 14.1524 -8.94945
583 1 12.5806 18.8722 12.5805 -8.95002
584 1 14.1524 20.4425 14.1523 -8.95018
585 1 15.7248 18.8697 12.5793 -8.9496
586 1 17.2969 20.4417 14.1518 -8.94972
587 1 18.8693 18.8693 12.5794 -8.94948
588 1 20.4415 20.4416 14.1518 -8.94959
677 1 6.28953 18.8694 18.8694 -8.94951
676 1 4.71721 20.4416 20.4415 -8.94961
591 1 7.86178 11.0072 17.2978 -8.94992
592 1 11.0068 11.0068 17.3009 -8.95224
593 1 14.1532 11.0073 17.3 -8.95064
675 1 3.14456 18.8693 18.8694 -8.94941
674 1 1.57234 20.4416 20.4415 -8.94951
596 1 6.31147e-06 12.5794 15.7246 -8.94951
597 1 1.57223 14.1518 17.2969 -8.94945
598 1 3.14395 12.5794 15.725 -8.94882
599 1 4.71683 14.1517 17.2974 -8.94973
600 1 6.28869 12.5787 15.7252 -8.94915
601 1 7.86169 14.1521 17.299 -8.95328
602 1 9.43533 12.5797 15.7248 -8.99874
603 1 11.0067 14.1525 17.2991 -8.95093
604 1 12.5803 12.5808 15.729 -9.00247
605 1 14.1528 14.1529 17.2994 -8.95209
606 1 15.727 12.5804 15.7268 -8.94824
607 1 17.2975 14.1522 17.2976 -8.94947
608 1 18.8703 12.5796 15.725 -8.94908
609 1 20.4417 14.1519 17.2969 -8.94949
610 1 22.0139 15.7244 15.7245 -8.94978
611 1 1.57216 17.2968 17.297 -8.94972
612 1 3.14376 15.7247 15.7252 -8.95002
613 1 4.71626 17.2976 17.298 -8.94907
614 1 6.28652 15.7273 15.7289 -8.94856
615 1 7.86175 17.2975 17.2979 -8.94907
616 1 9.43404 15.7269 15.7277 -8.9479
617 1 11.007 17.2977 17.2978 -8.94885
618 1 12.5802 15.7269 15.7276 -8.94924
619 1 14.1523 17.2976 17.2977 -8.9495
620 1 15.7278 15.7278 15.7277 -8.94451
621 1 17.2976 17.2976 17.2975 -8.94831
622 1 18.8703 15.7251 15.725 -8.94943
623 1 20.4418 17.2969 17.2969 -8.94951
624 1 22.0137 18.8693 15.7244 -8.94959
625 1 1.5722 20.4416 17.2968 -8.94934
626 1 3.14394 18.8699 15.7251 -8.94843
627 1 4.71706 20.4418 17.2969 -8.94965
628 1 6.28914 18.8702 15.7252 -8.94964
629 1 7.86202 20.4418 17.297 -8.94961
630 1 9.43452 18.8702 15.7252 -8.9498
631 1 11.007 20.4418 17.297 -8.94954
632 1 12.5796 18.8702 15.7251 -8.9496
633 1 14.1519 20.4418 17.297 -8.9496
634 1 15.7251 18.8704 15.7251 -8.94933
635 1 17.2969 20.4418 17.2969 -8.94949
636 1 18.8693 18.8693 15.7243 -8.94985
637 1 20.4415 20.4416 17.2967 -8.94965
387 1 12.5794 18.8693 22.0138 -8.94955
673 1 22.0139 18.8692 18.8692 -8.94959
640 1 7.8618 11.007 20.4418 -8.94935
641 1 11.0067 11.007 20.4421 -8.94976
642 1 14.1523 11.007 20.4417 -8.95012
672 1 20.4416 17.2967 20.4415 -8.94965
385 1 9.4345 18.8693 22.0137 -8.94958
645 1 22.0139 12.5794 18.8692 -8.94962
646 1 1.57234 14.1518 20.4415 -8.94959
647 1 3.14459 12.5794 18.8693 -8.94958
648 1 4.71706 14.1518 20.4416 -8.94955
649 1 6.28928 12.5793 18.8696 -8.94929
650 1 7.86188 14.1519 20.4417 -8.95028
651 1 9.43419 12.5796 18.87 -8.94843
652 1 11.0068 14.1521 20.4416 -8.9501
653 1 12.5796 12.5797 18.8705 -8.94985
654 1 14.1521 14.1521 20.4416 -8.95038
655 1 15.7249 12.5797 18.8699 -8.94929
656 1 17.297 14.152 20.4415 -8.94948
657 1 18.8694 12.5794 18.8693 -8.94957
658 1 20.4416 14.1518 20.4415 -8.94962
659 1 22.0139 15.7243 18.8692 -8.94959
660 1 1.57237 17.2967 20.4415 -8.9497
661 1 3.14467 15.7242 18.8693 -8.94973
662 1 4.71701 17.2969 20.4416 -8.94992
663 1 6.28929 15.7246 18.87 -8.95061
664 1 7.86195 17.297 20.4416 -8.94957
665 1 9.43434 15.7248 18.87 -8.94985
666 1 11.0069 17.297 20.4416 -8.94956
353 1 3.14464 12.5794 22.0137 -8.94959
11 1 15.7243 22.0139 22.0139 -8.94962
357 1 9.4343 12.5794 22.0135 -8.9494
359 1 12.5795 12.5795 22.0126 -8.95122
363 1 18.8693 12.5794 22.0137 -8.94959
365 1 22.0139 15.7242 22.0138 -8.94959
369 1 6.28935 15.7245 22.0133 -8.95044
375 1 15.7248 15.7248 22.0132 -8.9499
5 1 6.28965 22.0139 22.0138 -8.94961
381 1 3.14462 18.8693 22.0137 -8.94953
595 1 20.4418 11.007 17.297 -8.94952
246 1 -7.02052e-05 22.0139 15.7243 -8.94964
589 1 1.5722 11.0069 17.297 -8.94956
351 1 22.0139 12.5794 22.0138 -8.94962
538 1 17.2969 20.4417 11.007 -8.94959
532 1 20.4415 17.297 11.007 -8.94958
535 1 7.86184 20.4433 11.0071 -8.95113
536 1 11.0071 20.4441 11.007 -8.95285
1 1 22.0139 22.0139 22.0139 -8.94948
