ITEM: TIMESTEP
53
ITEM: NUMBER OF ATOMS
688
ITEM: BOX BOUNDS pp pp pp
0.0000000000000000e+00 2.2013900999999997e+01
0.0000000000000000e+00 2.2013900999999997e+01
0.0000000000000000e+00 2.2013900999999997e+01
ITEM: ATOMS id type x y z c_pot
518 1 20.4415 11.0069 11.0069 -8.94981
2 1 1.57242 1.57242 1.57242 -8.94963
448 1 20.4415 11.007 7.86211 -8.94981
4 1 4.71726 1.57242 1.57242 -8.94964
447 1 17.2974 11.0069 7.86212 -8.95158
6 1 7.86211 1.57242 1.57242 -8.94963
7 1 9.43453 1.11148e-08 2.45846e-08 -8.94963
8 1 11.007 1.57242 1.57242 -8.94963
9 1 12.5794 1.06683e-08 4.90266e-09 -8.94963
10 1 14.1518 1.57242 1.57242 -8.94963
446 1 14.1601 11.0066 7.85993 -8.96687
12 1 17.2966 1.57242 1.57242 -8.94963
13 1 18.8691 1.46912e-09 -5.26502e-08 -8.94963
14 1 20.4415 1.57242 1.57242 -8.94963
444 1 7.86275 11.0065 7.86069 -8.90085
16 1 1.57242 4.71726 1.57242 -8.94964
443 1 4.71653 11.0069 7.86158 -8.94711
18 1 4.71726 4.71726 1.57241 -8.94962
442 1 1.57233 11.007 7.86207 -8.94962
20 1 7.86211 4.71726 1.57242 -8.94963
105 1 9.43453 -2.79736e-06 6.28968 -8.94965
22 1 11.007 4.71726 1.57242 -8.94965
107 1 12.5794 -3.16959e-06 6.28968 -8.94967
24 1 14.1518 4.71727 1.57242 -8.94971
517 1 17.2976 11.0068 11.0067 -8.95087
26 1 17.2966 4.71726 1.57241 -8.94956
397 1 14.1528 11.0069 4.7161 -8.94932
28 1 20.4415 4.71726 1.57242 -8.94963
396 1 11.0077 11.0069 4.70978 -8.98488
30 1 1.57242 7.86211 1.57242 -8.94963
395 1 7.86229 11.0069 4.71706 -8.95067
32 1 4.71726 7.86211 1.57242 -8.94965
188 1 17.2966 4.71726 11.007 -8.94964
34 1 7.86206 7.86205 1.57228 -8.94986
35 1 9.43453 6.28968 -4.83111e-06 -8.94963
36 1 11.0069 7.86207 1.57234 -8.9496
37 1 12.5794 6.28969 5.94888e-07 -8.94963
38 1 14.1519 7.86202 1.57224 -8.94975
183 1 1.57242 4.71726 11.007 -8.94962
40 1 17.2966 7.86211 1.57242 -8.94969
350 1 20.4415 11.007 1.57242 -8.94963
42 1 20.4415 7.86211 1.57242 -8.94963
345 1 4.71726 11.007 1.57241 -8.94961
44 1 3.14484 9.43453 -9.21027e-08 -8.94963
349 1 17.2966 11.007 1.57242 -8.94967
348 1 14.1519 11.0069 1.57229 -8.94951
347 1 11.0069 11.0069 1.57159 -8.95144
346 1 7.86209 11.0069 1.57238 -8.94956
344 1 1.57242 11.007 1.57242 -8.94964
181 1 17.2966 1.57242 11.007 -8.94963
51 1 1.57242 1.57242 4.71726 -8.94964
175 1 18.8692 9.43447 9.43451 -8.94957
53 1 4.71725 1.57241 4.71725 -8.94962
54 1 6.28969 -1.61505e-07 3.14484 -8.94964
55 1 7.86211 1.57242 4.71726 -8.94963
174 1 15.7251 9.43393 9.43443 -8.94701
57 1 11.007 1.57242 4.71726 -8.94963
173 1 12.5804 9.43271 9.43261 -8.94489
59 1 14.1518 1.57241 4.71726 -8.94965
60 1 15.7242 -1.69869e-07 3.14484 -8.94963
61 1 17.2966 1.57242 4.71726 -8.94963
172 1 9.35935 9.25634 9.43873 -8.10366
63 1 20.4415 1.57242 4.71726 -8.94963
64 1 22.0139 3.14484 3.14484 -8.94963
65 1 1.57241 4.71726 4.71726 -8.94962
66 1 3.14483 3.14483 3.14483 -8.94956
67 1 4.71712 4.71711 4.71711 -8.94879
68 1 6.28969 3.14485 3.14485 -8.94971
69 1 7.86214 4.71725 4.71725 -8.95002
70 1 9.43453 3.14484 3.14484 -8.94965
71 1 11.0069 4.71719 4.71718 -8.94945
72 1 12.5794 3.14484 3.14484 -8.94963
73 1 14.1519 4.71708 4.71718 -8.9497
74 1 15.7242 3.14483 3.14483 -8.94962
75 1 17.2966 4.71726 4.71726 -8.94969
76 1 18.8691 3.14484 3.14484 -8.94964
77 1 20.4415 4.71726 4.71726 -8.94963
78 1 22.0139 6.28969 3.14484 -8.94963
79 1 1.57242 7.86211 4.71726 -8.94962
80 1 3.14484 6.28969 3.14484 -8.94969
81 1 4.71721 7.8621 4.71722 -8.94994
82 1 6.2896 6.2896 3.14466 -8.9497
83 1 7.86147 7.8615 4.71562 -8.95188
84 1 9.43453 6.2896 3.14477 -8.94945
85 1 11.0066 7.86175 4.7164 -8.9512
86 1 12.5793 6.28967 3.14483 -8.95003
87 1 14.1536 7.86023 4.71542 -8.94124
88 1 15.7244 6.28954 3.14469 -8.94878
89 1 17.2968 7.86203 4.71718 -8.94975
90 1 18.8691 6.28968 3.14483 -8.94962
91 1 20.4415 7.8621 4.71726 -8.94966
92 1 3.30927e-07 9.43453 3.14484 -8.94963
93 1 3.14484 9.43453 3.14484 -8.94965
94 1 6.28963 9.43457 3.14477 -8.94977
95 1 9.43413 9.43414 3.14413 -8.94883
96 1 12.5799 9.43402 3.14321 -8.95239
97 1 15.7243 9.43451 3.1448 -8.9498
98 1 18.8691 9.43453 3.14484 -8.94963
99 1 22.0139 3.55956e-09 6.28969 -8.94963
100 1 1.57242 1.57242 7.86211 -8.94963
101 1 3.14484 -8.41045e-09 6.28969 -8.94964
102 1 4.71726 1.57242 7.86211 -8.94962
171 1 6.28204 9.43291 9.43448 -8.96713
104 1 7.86208 1.57231 7.86208 -8.94995
170 1 3.14417 9.43455 9.43451 -8.95134
106 1 11.007 1.57235 7.86208 -8.94967
169 1 22.0139 9.43453 9.43453 -8.94979
108 1 14.1518 1.57242 7.86211 -8.94965
168 1 18.8691 6.28968 9.43453 -8.94963
110 1 17.2966 1.57242 7.86211 -8.94963
111 1 18.8691 -2.55952e-08 6.28969 -8.94963
112 1 20.4415 1.57242 7.86211 -8.94963
113 1 3.47171e-07 3.14484 6.28969 -8.94963
114 1 1.57242 4.71726 7.86211 -8.94962
115 1 3.14484 3.14484 6.28969 -8.94969
116 1 4.71722 4.71723 7.8621 -8.9498
117 1 6.28959 3.14466 6.28959 -8.94973
118 1 7.86157 4.71563 7.86158 -8.95221
119 1 9.43456 3.14476 6.28965 -8.94961
120 1 11.0074 4.71656 7.86173 -8.94883
121 1 12.5794 3.1447 6.28963 -8.94987
122 1 14.1519 4.71717 7.86213 -8.9497
123 1 15.7242 3.14484 6.28969 -8.94964
124 1 17.2966 4.71726 7.86211 -8.94965
125 1 18.8691 3.14484 6.28969 -8.94963
126 1 20.4415 4.71726 7.86211 -8.94963
127 1 22.0139 6.28968 6.28968 -8.94966
128 1 1.57232 7.86209 7.86209 -8.94995
129 1 3.14468 6.28961 6.28961 -8.94977
130 1 4.71569 7.86166 7.86167 -8.95255
131 1 6.28787 6.28786 6.28782 -8.9414
132 1 7.84552 7.84654 7.84641 -8.88026
133 1 9.43489 6.28883 6.28934 -8.95131
134 1 11.0122 7.85931 7.85589 -8.92609
135 1 12.58 6.28803 6.28906 -8.95201
136 1 14.1529 7.86141 7.86229 -8.94885
137 1 15.7243 6.28964 6.28967 -8.94993
138 1 17.2968 7.86203 7.8621 -8.94956
139 1 18.8691 6.28968 6.28968 -8.94962
140 1 20.4415 7.8621 7.8621 -8.94966
141 1 22.0139 9.43453 6.28968 -8.94967
142 1 3.14471 9.43453 6.28962 -8.94959
143 1 6.28869 9.43478 6.28906 -8.94921
144 1 9.42949 9.42825 6.28689 -8.9257
145 1 12.5962 9.41853 6.27375 -8.87779
146 1 15.7259 9.43403 6.28918 -8.95242
147 1 18.8692 9.43451 6.28966 -8.94996
167 1 15.7243 6.28957 9.43452 -8.94919
166 1 12.5794 6.2893 9.43429 -8.94979
150 1 6.28968 -1.24026e-06 9.43453 -8.94965
165 1 9.43357 6.28197 9.43434 -8.98391
164 1 6.28867 6.2886 9.43452 -8.94934
153 1 15.7242 -1.58003e-06 9.43453 -8.94964
163 1 3.14473 6.28963 9.43453 -8.94951
155 1 22.0139 3.14484 9.43453 -8.94963
156 1 3.14484 3.14484 9.43453 -8.94967
157 1 6.28962 3.14472 9.43453 -8.94951
158 1 9.43456 3.14399 9.43452 -8.95144
159 1 12.5794 3.14479 9.43452 -8.94955
160 1 15.7242 3.14483 9.43453 -8.94962
161 1 18.8691 3.14484 9.43453 -8.94964
162 1 -7.01062e-06 6.28968 9.43453 -8.94964
177 1 4.71726 1.57242 11.0069 -8.94962
184 1 4.71722 4.71723 11.007 -8.9498
48 1 15.7242 9.43453 -4.05401e-06 -8.94962
189 1 20.4415 4.71726 11.007 -8.94963
3 1 3.14484 2.27099e-10 6.47852e-08 -8.94963
19 1 6.28969 3.14484 5.02296e-07 -8.94963
25 1 15.7242 3.14484 3.93065e-07 -8.94964
29 1 22.0139 6.28969 3.29604e-08 -8.94963
176 1 1.57242 1.57242 11.007 -8.94963
644 1 20.4415 11.007 20.4415 -8.94963
178 1 7.86208 1.57231 11.007 -8.94995
179 1 11.007 1.57235 11.007 -8.94988
180 1 14.1518 1.57242 11.0069 -8.94964
643 1 17.2966 11.007 20.4415 -8.94963
182 1 20.4415 1.57242 11.007 -8.94963
639 1 4.71726 11.007 20.4415 -8.94963
638 1 1.57242 11.007 20.4415 -8.94963
185 1 7.86159 4.71564 11.0075 -8.95239
186 1 11.0074 4.71612 11.0073 -8.95063
187 1 14.1518 4.71719 11.0069 -8.9498
295 1 22.0139 4.16582e-09 18.8691 -8.94963
39 1 15.7242 6.28968 22.0139 -8.94962
190 1 1.57232 7.86209 11.007 -8.94997
191 1 4.71568 7.86165 11.0074 -8.9527
192 1 7.8452 7.84619 11.0231 -8.87717
193 1 11.0124 7.85268 11.0135 -8.93986
194 1 14.1529 7.86139 11.0066 -8.95048
195 1 17.2968 7.86203 11.007 -8.94963
196 1 20.4415 7.8621 11.007 -8.94967
197 1 22.0139 -6.61102e-09 12.5794 -8.94963
198 1 1.57242 1.57242 14.1518 -8.94964
343 1 18.8691 9.43453 18.8691 -8.94965
200 1 4.71726 1.57241 14.1518 -8.94962
201 1 6.28968 -1.53495e-06 12.5794 -8.94969
202 1 7.86211 1.57242 14.1518 -8.94963
203 1 9.43452 1.9152e-05 12.5794 -8.94965
204 1 11.007 1.57242 14.1518 -8.94964
205 1 12.5794 1.8734e-05 12.5794 -8.94968
206 1 14.1518 1.57241 14.1518 -8.94965
207 1 15.7242 -1.35952e-06 12.5794 -8.94964
208 1 17.2966 1.57242 14.1518 -8.94964
342 1 15.7242 9.43454 18.8691 -8.94971
210 1 20.4415 1.57242 14.1518 -8.94963
211 1 3.50096e-07 3.14484 12.5794 -8.94963
212 1 1.57241 4.71726 14.1518 -8.94962
213 1 3.14484 3.14485 12.5794 -8.9497
214 1 4.71711 4.71711 14.1519 -8.94879
215 1 6.2896 3.14466 12.5795 -8.94975
216 1 7.86211 4.71721 14.1518 -8.95
217 1 9.43455 3.14473 12.5794 -8.94962
218 1 11.0069 4.71714 14.1519 -8.94963
219 1 12.5794 3.14467 12.5794 -8.94991
220 1 14.1519 4.71703 14.1519 -8.94968
221 1 15.7242 3.14484 12.5794 -8.94966
222 1 17.2966 4.71727 14.1518 -8.94971
223 1 18.8691 3.14484 12.5794 -8.94963
224 1 20.4415 4.71726 14.1518 -8.94963
225 1 22.0139 6.28968 12.5794 -8.94966
226 1 1.57242 7.86211 14.1518 -8.94963
227 1 3.14467 6.28961 12.5794 -8.94977
228 1 4.71722 7.8621 14.1518 -8.95012
229 1 6.28783 6.28784 12.5813 -8.94119
230 1 7.86125 7.86113 14.1537 -8.95154
231 1 9.43464 6.28848 12.58 -8.9505
232 1 11.0066 7.86101 14.1531 -8.95242
233 1 12.5803 6.28757 12.5802 -8.9513
234 1 14.154 7.85972 14.154 -8.93965
235 1 15.7243 6.28965 12.5794 -8.95001
236 1 17.2968 7.86203 14.1519 -8.94993
237 1 18.8691 6.28968 12.5794 -8.94962
238 1 20.4415 7.8621 14.1518 -8.94967
239 1 22.0139 9.43453 12.5794 -8.94966
240 1 3.14472 9.43454 12.5794 -8.94958
241 1 6.2887 9.43494 12.5799 -8.95051
242 1 9.42755 9.42674 12.5852 -8.97583
243 1 12.5996 9.41539 12.5994 -8.91285
244 1 15.726 9.43416 12.5798 -8.95379
245 1 18.8692 9.43452 12.5794 -8.94998
47 1 12.5794 9.4345 22.0138 -8.94998
247 1 1.57242 1.57242 17.2966 -8.94963
248 1 3.14484 -3.81171e-08 15.7242 -8.94963
249 1 4.71726 1.57242 17.2966 -8.94964
341 1 12.5794 9.43447 18.8693 -8.95007
251 1 7.86211 1.57242 17.2966 -8.94964
252 1 9.43453 2.7881e-06 15.7242 -8.94965
253 1 11.007 1.57242 17.2966 -8.94963
254 1 12.5794 2.87592e-06 15.7242 -8.94965
255 1 14.1518 1.57242 17.2966 -8.94964
340 1 9.43447 9.43446 18.8692 -8.94978
257 1 17.2966 1.57242 17.2966 -8.94963
258 1 18.8691 -2.32661e-08 15.7242 -8.94963
259 1 20.4415 1.57242 17.2966 -8.94963
260 1 22.0139 3.14484 15.7242 -8.94963
261 1 1.57242 4.71726 17.2966 -8.94964
262 1 3.14483 3.14483 15.7242 -8.94957
263 1 4.71726 4.71726 17.2967 -8.94961
264 1 6.28969 3.14484 15.7242 -8.94971
265 1 7.86211 4.71726 17.2966 -8.94963
266 1 9.43453 3.14483 15.7242 -8.94967
267 1 11.007 4.71726 17.2966 -8.94964
268 1 12.5794 3.14484 15.7242 -8.94965
269 1 14.1518 4.71726 17.2966 -8.94972
270 1 15.7242 3.14483 15.7242 -8.94961
271 1 17.2966 4.71725 17.2966 -8.94956
272 1 18.8691 3.14484 15.7242 -8.94964
273 1 20.4415 4.71726 17.2966 -8.94963
274 1 22.0139 6.28969 15.7242 -8.94964
275 1 1.57242 7.86211 17.2966 -8.94963
276 1 3.14484 6.28969 15.7242 -8.94971
277 1 4.71725 7.8621 17.2966 -8.94959
278 1 6.28958 6.28958 15.7244 -8.94963
279 1 7.86199 7.862 17.2968 -8.94961
280 1 9.4345 6.28952 15.7243 -8.94954
281 1 11.0069 7.86205 17.2968 -8.94958
282 1 12.5794 6.28959 15.7243 -8.95016
283 1 14.152 7.86196 17.2969 -8.94951
284 1 15.7244 6.2895 15.7244 -8.94864
285 1 17.2966 7.8621 17.2966 -8.94965
286 1 18.8691 6.28968 15.7242 -8.94964
287 1 20.4415 7.86211 17.2966 -8.94963
288 1 3.19316e-07 9.43453 15.7242 -8.94963
289 1 3.14482 9.43451 15.7242 -8.9496
290 1 6.28947 9.43443 15.7244 -8.94912
291 1 9.43363 9.43344 15.7258 -8.94712
292 1 12.5804 9.43331 15.7268 -8.95096
293 1 15.7244 9.43439 15.7244 -8.94925
294 1 18.8691 9.43451 15.7242 -8.94958
339 1 6.2897 9.43454 18.8691 -8.94973
296 1 1.57242 1.57242 20.4415 -8.94963
338 1 3.14485 9.43453 18.8691 -8.94964
298 1 4.71726 1.57242 20.4415 -8.94963
299 1 6.28969 3.76551e-07 18.8691 -8.94963
300 1 7.86211 1.57242 20.4415 -8.94963
337 1 22.0139 9.43453 18.8691 -8.94963
302 1 11.007 1.57242 20.4415 -8.94963
336 1 20.4415 7.86211 20.4415 -8.94963
304 1 14.1518 1.57242 20.4415 -8.94963
305 1 15.7242 3.88683e-07 18.8691 -8.94963
306 1 17.2966 1.57242 20.4415 -8.94963
335 1 18.8691 6.28969 18.8691 -8.94964
308 1 20.4415 1.57242 20.4415 -8.94963
309 1 22.0139 3.14484 18.8691 -8.94963
310 1 1.57242 4.71726 20.4415 -8.94963
311 1 3.14484 3.14484 18.8691 -8.94963
312 1 4.71726 4.71726 20.4415 -8.94963
313 1 6.28969 3.14484 18.8691 -8.94963
314 1 7.86211 4.71726 20.4415 -8.94964
315 1 9.43453 3.14484 18.8691 -8.94964
316 1 11.007 4.71726 20.4415 -8.94964
317 1 12.5794 3.14484 18.8691 -8.94963
318 1 14.1518 4.71727 20.4415 -8.94964
319 1 15.7242 3.14484 18.8691 -8.94964
320 1 17.2966 4.71726 20.4415 -8.94962
321 1 18.8691 3.14484 18.8691 -8.94963
322 1 20.4415 4.71726 20.4415 -8.94963
323 1 22.0139 6.28969 18.8691 -8.94963
324 1 1.57242 7.86211 20.4415 -8.94963
325 1 3.14484 6.28969 18.8691 -8.94963
326 1 4.71727 7.86211 20.4415 -8.94964
327 1 6.28967 6.28968 18.8691 -8.94962
328 1 7.8621 7.8621 20.4415 -8.94966
329 1 9.43453 6.28968 18.8691 -8.94966
330 1 11.0069 7.8621 20.4415 -8.94963
331 1 12.5794 6.28969 18.8691 -8.94966
332 1 14.1518 7.86209 20.4415 -8.94968
333 1 15.7242 6.28967 18.8691 -8.94959
334 1 17.2966 7.86211 20.4415 -8.94964
512 1 1.57231 11.0069 11.007 -8.94961
513 1 4.71636 11.0068 11.0073 -8.94624
515 1 11.0919 10.9506 11.1697 -8.39331
594 1 17.2966 11.007 17.2966 -8.94977
590 1 4.71729 11.007 17.2966 -8.94972
540 1 1.5724 11.0069 14.1518 -8.94963
541 1 4.71698 11.0068 14.1521 -8.94861
543 1 11.0076 11.0025 14.1687 -9.02287
545 1 17.297 11.0068 14.152 -8.94894
546 1 20.4415 11.0069 14.1518 -8.94965
46 1 9.4345 9.4345 22.0138 -8.9497
33 1 6.28968 6.28968 22.0139 -8.94964
45 1 6.28968 9.43453 22.0139 -8.94965
41 1 18.8691 6.28969 22.0139 -8.94964
15 1 22.0139 3.14484 22.0139 -8.94963
17 1 3.14484 3.14484 22.0139 -8.94963
31 1 3.14484 6.28969 22.0139 -8.94964
27 1 18.8691 3.14484 22.0139 -8.94963
21 1 9.43453 3.14484 22.0139 -8.94963
23 1 12.5794 3.14484 22.0139 -8.94963
43 1 22.0139 9.43453 22.0139 -8.94963
49 1 18.8691 9.43453 22.0139 -8.94963
688 3 10.2142 11.0142 9.43023 2.63692
511 1 18.8691 18.8691 9.43453 -8.94964
510 1 15.7242 18.8691 9.43454 -8.94974
509 1 12.5796 18.8693 9.43435 -8.94907
508 1 9.43439 18.8701 9.43435 -8.95083
507 1 6.28962 18.8692 9.43454 -8.94963
506 1 3.14484 18.8691 9.43453 -8.94968
50 1 5.40042e-08 22.0139 3.14484 -8.94963
352 1 1.57242 14.1518 1.57242 -8.94963
154 1 18.8691 22.0139 9.43453 -8.94963
354 1 4.71726 14.1518 1.57242 -8.94965
152 1 12.5794 22.0139 9.43452 -8.94965
356 1 7.86205 14.1518 1.57227 -8.94989
151 1 9.43452 22.0139 9.43452 -8.95003
358 1 11.0069 14.1518 1.57234 -8.94959
149 1 3.14484 22.0139 9.43453 -8.94964
360 1 14.1519 14.1519 1.57223 -8.94976
361 1 15.7242 12.5794 -3.26417e-06 -8.94962
362 1 17.2966 14.1518 1.57242 -8.9497
148 1 -1.07915e-09 22.0139 9.43453 -8.94963
364 1 20.4415 14.1518 1.57242 -8.94963
109 1 15.7242 22.0139 6.28969 -8.94963
366 1 1.57242 17.2966 1.57242 -8.94964
367 1 3.14484 15.7242 3.17759e-07 -8.94963
368 1 4.71726 17.2966 1.57241 -8.94962
393 1 1.57241 11.007 4.71726 -8.94962
370 1 7.86211 17.2966 1.57242 -8.94963
371 1 9.43453 15.7242 -3.30612e-07 -8.94965
372 1 11.007 17.2966 1.57242 -8.94965
373 1 12.5794 15.7242 5.32798e-06 -8.94964
374 1 14.1518 17.2966 1.57243 -8.94971
537 1 14.1518 20.4415 11.0069 -8.94963
376 1 17.2966 17.2966 1.57241 -8.94956
377 1 18.8691 15.7242 4.42986e-07 -8.94964
378 1 20.4415 17.2966 1.57242 -8.94963
103 1 6.28968 22.0139 6.28968 -8.94968
380 1 1.57242 20.4415 1.57242 -8.94963
62 1 18.8691 22.0139 3.14484 -8.94963
382 1 4.71727 20.4415 1.57242 -8.94964
383 1 6.28969 18.8691 1.27291e-06 -8.94963
384 1 7.86211 20.4415 1.57242 -8.94963
58 1 12.5794 22.0139 3.14484 -8.94963
386 1 11.007 20.4415 1.57242 -8.94964
56 1 9.43453 22.0139 3.14484 -8.94963
388 1 14.1518 20.4415 1.57242 -8.94963
389 1 15.7242 18.8691 1.17531e-06 -8.94964
390 1 17.2966 20.4415 1.57242 -8.94963
52 1 3.14484 22.0139 3.14484 -8.94963
392 1 20.4415 20.4415 1.57242 -8.94963
505 1 22.0139 18.8691 9.43453 -8.94964
504 1 18.8691 15.7242 9.43452 -8.9496
503 1 15.7245 15.7244 9.43447 -8.94956
502 1 12.5817 15.7256 9.43266 -8.98369
501 1 9.43133 15.7324 9.43282 -9.02041
500 1 6.2884 15.7254 9.43448 -8.94959
399 1 20.4415 11.007 4.71726 -8.94964
400 1 3.4813e-07 12.5794 3.14484 -8.94963
401 1 1.57242 14.1518 4.71726 -8.94962
402 1 3.14484 12.5794 3.14484 -8.94965
403 1 4.71722 14.1518 4.71723 -8.95002
404 1 6.28963 12.5793 3.14477 -8.94976
405 1 7.86141 14.1525 4.71546 -8.9521
406 1 9.43413 12.5798 3.14407 -8.94908
407 1 11.0066 14.1522 4.71639 -8.9509
408 1 12.5799 12.5799 3.14316 -8.95258
409 1 14.1537 14.1537 4.71533 -8.94111
410 1 15.7243 12.5794 3.1448 -8.9498
411 1 17.2968 14.1519 4.71719 -8.9498
412 1 18.8691 12.5794 3.14484 -8.94962
413 1 20.4415 14.1518 4.71726 -8.94966
414 1 22.0139 15.7242 3.14484 -8.94963
415 1 1.57241 17.2966 4.71726 -8.94962
416 1 3.14484 15.7242 3.14484 -8.9497
417 1 4.71711 17.2968 4.7171 -8.94872
418 1 6.28959 15.7243 3.14464 -8.94969
419 1 7.86214 17.2966 4.71726 -8.95011
420 1 9.43454 15.7243 3.14477 -8.94946
421 1 11.0069 17.2967 4.71719 -8.94935
422 1 12.5793 15.7242 3.14483 -8.95003
423 1 14.1519 17.2968 4.71718 -8.94976
424 1 15.7244 15.7244 3.14468 -8.94876
425 1 17.2966 17.2966 4.71726 -8.94968
426 1 18.8691 15.7242 3.14484 -8.94963
427 1 20.4415 17.2966 4.71726 -8.94963
428 1 22.0139 18.8691 3.14484 -8.94963
429 1 1.57242 20.4415 4.71726 -8.94964
430 1 3.14483 18.8691 3.14483 -8.94956
431 1 4.71725 20.4415 4.71725 -8.94962
432 1 6.28969 18.8691 3.14485 -8.94972
433 1 7.86211 20.4415 4.71727 -8.94964
434 1 9.43453 18.8691 3.14484 -8.94965
435 1 11.007 20.4415 4.71726 -8.94963
436 1 12.5794 18.8691 3.14484 -8.94962
437 1 14.1518 20.4415 4.71726 -8.94966
438 1 15.7242 18.8691 3.14484 -8.94962
439 1 17.2966 20.4415 4.71726 -8.94963
440 1 18.8691 18.8691 3.14484 -8.94964
441 1 20.4415 20.4415 4.71726 -8.94963
499 1 3.14469 15.7243 9.43452 -8.94948
498 1 -7.32172e-06 15.7242 9.43453 -8.94964
497 1 18.8692 12.5794 9.43453 -8.94971
445 1 11.0867 11.0091 7.68314 -8.09792
496 1 15.7253 12.5799 9.43444 -8.94804
495 1 12.5821 12.5799 9.42932 -8.93394
494 1 9.34934 12.7654 9.4267 -8.08128
449 1 22.0139 12.5794 6.28968 -8.94966
450 1 1.57231 14.1518 7.86209 -8.94999
451 1 3.14471 12.5794 6.28962 -8.94957
452 1 4.71556 14.1523 7.86164 -8.95295
453 1 6.28868 12.579 6.28906 -8.94944
454 1 7.84374 14.1688 7.8445 -8.86807
455 1 9.42919 12.5859 6.28596 -8.92824
456 1 11.0125 14.1541 7.85612 -8.97641
457 1 12.5966 12.5957 6.27304 -8.87708
458 1 14.1533 14.1527 7.8618 -8.94839
459 1 15.7258 12.5798 6.28921 -8.95257
460 1 17.2968 14.1519 7.86208 -8.94969
461 1 18.8692 12.5794 6.28967 -8.94995
462 1 20.4415 14.1518 7.86211 -8.94968
463 1 22.0139 15.7242 6.28968 -8.94966
464 1 1.57242 17.2966 7.86211 -8.94962
465 1 3.14466 15.7243 6.2896 -8.94979
466 1 4.71721 17.2967 7.86209 -8.9498
467 1 6.28772 15.7262 6.28767 -8.94039
468 1 7.86144 17.2985 7.86146 -8.95188
469 1 9.43499 15.7251 6.28927 -8.95204
470 1 11.0073 17.2971 7.86197 -8.94964
471 1 12.58 15.7258 6.28903 -8.9526
472 1 14.152 17.2969 7.862 -8.94897
473 1 15.7243 15.7243 6.28963 -8.94978
474 1 17.2967 17.2966 7.8621 -8.94964
475 1 18.8691 15.7242 6.28968 -8.94963
476 1 20.4415 17.2966 7.86211 -8.94963
477 1 3.41844e-07 18.8691 6.28969 -8.94963
478 1 1.57242 20.4415 7.86211 -8.94964
479 1 3.14484 18.8691 6.28969 -8.9497
480 1 4.71726 20.4415 7.86211 -8.94963
481 1 6.28959 18.8693 6.28959 -8.9497
482 1 7.86206 20.4416 7.86206 -8.94993
483 1 9.43458 18.8691 6.28966 -8.94973
484 1 11.007 20.4415 7.86209 -8.94961
485 1 12.5794 18.8692 6.28965 -8.95
486 1 14.1518 20.4415 7.86209 -8.9496
487 1 15.7242 18.8691 6.28968 -8.94958
488 1 17.2966 20.4415 7.86211 -8.94964
489 1 18.8691 18.8691 6.28969 -8.94963
490 1 20.4415 20.4415 7.86211 -8.94963
491 1 22.0139 12.5794 9.43453 -8.9498
492 1 3.14415 12.5793 9.43454 -8.95151
493 1 6.28165 12.5809 9.43445 -8.9691
516 1 14.1607 11.0063 11.0072 -9.02205
522 1 11.012 14.1985 10.9923 -9.19369
523 1 14.1529 14.1528 11.0055 -9.00297
524 1 17.297 14.152 11.0068 -8.94874
525 1 20.4415 14.1518 11.0069 -8.94966
526 1 1.57242 17.2966 11.007 -8.94963
527 1 4.71722 17.2967 11.007 -8.94979
530 1 14.1518 17.2967 11.007 -8.95042
531 1 17.2966 17.2967 11.007 -8.94963
394 1 4.71719 11.0069 4.71715 -8.94913
398 1 17.2968 11.007 4.7172 -8.94952
355 1 6.28968 12.5794 -4.68248e-06 -8.94965
379 1 22.0139 18.8691 -2.50387e-08 -8.94963
687 2 11.0037 12.586 11.7866 0.943905
686 1 20.4415 20.4415 20.4415 -8.94963
514 1 7.86281 11.0065 11.0065 -8.95351
685 1 18.8691 18.8691 18.8691 -8.94962
307 1 18.8691 22.0139 18.8691 -8.94963
684 1 17.2966 20.4415 20.4415 -8.94963
683 1 15.7242 18.8691 18.8691 -8.94962
519 1 1.5723 14.1518 11.007 -8.94997
520 1 4.71545 14.1524 11.0072 -8.95191
521 1 7.84462 14.1685 11.0221 -8.92761
303 1 12.5794 22.0139 18.8691 -8.94963
301 1 9.43453 22.0139 18.8691 -8.94963
297 1 3.14484 22.0139 18.8691 -8.94963
391 1 18.8691 18.8691 22.0139 -8.94963
256 1 15.7242 22.0139 15.7242 -8.94963
250 1 6.28969 22.0139 15.7242 -8.94963
528 1 7.86171 17.2982 11.0075 -8.95312
529 1 11.0073 17.3019 11.0073 -8.96075
209 1 18.8691 22.0139 12.5794 -8.94963
199 1 3.14484 22.0139 12.5794 -8.94963
671 1 18.8691 15.7242 18.8691 -8.94965
533 1 1.57242 20.4415 11.007 -8.94963
534 1 4.71726 20.4415 11.0069 -8.94962
670 1 17.2966 17.2966 20.4415 -8.94963
669 1 15.7242 15.7242 18.8691 -8.9497
668 1 14.1518 17.2966 20.4415 -8.94963
667 1 12.5794 15.7242 18.8691 -8.94972
539 1 20.4415 20.4415 11.007 -8.94963
682 1 14.1518 20.4415 20.4415 -8.94964
681 1 12.5794 18.8691 18.8691 -8.94965
542 1 7.86125 11.0046 14.1536 -8.9833
680 1 11.007 20.4415 20.4415 -8.94963
544 1 14.1537 11.0047 14.1545 -8.98175
679 1 9.43453 18.8691 18.8691 -8.94966
678 1 7.86211 20.4415 20.4415 -8.94964
547 1 22.0139 12.5794 12.5794 -8.94983
548 1 1.5724 14.1518 14.1518 -8.94964
549 1 3.14441 12.5794 12.5794 -8.95086
550 1 4.71701 14.152 14.152 -8.94948
551 1 6.28424 12.5791 12.5799 -8.96044
552 1 7.86039 14.1548 14.1552 -8.98514
553 1 9.38803 12.5846 12.6022 -9.20337
554 1 11.0067 14.1558 14.1575 -8.98547
555 1 12.6341 12.5919 12.6122 -9.15791
556 1 14.1545 14.1559 14.1551 -8.97425
557 1 15.7303 12.5798 12.5798 -8.96191
558 1 17.297 14.1521 14.1521 -8.9492
559 1 18.8695 12.5794 12.5794 -8.95123
560 1 20.4415 14.1518 14.1518 -8.94967
561 1 22.0139 15.7242 12.5794 -8.94965
562 1 1.57241 17.2966 14.1518 -8.94963
563 1 3.14468 15.7243 12.5795 -8.94976
564 1 4.71712 17.2968 14.1519 -8.94889
565 1 6.28785 15.726 12.5812 -8.94169
566 1 7.86206 17.2969 14.1519 -8.95034
567 1 9.43422 15.7253 12.581 -9.00401
568 1 11.0069 17.2971 14.1519 -8.9507
569 1 12.5807 15.726 12.5813 -9.0036
570 1 14.152 17.297 14.152 -8.94997
571 1 15.7243 15.7242 12.5793 -8.95064
572 1 17.2966 17.2966 14.1518 -8.94981
573 1 18.8691 15.7242 12.5794 -8.94963
574 1 20.4415 17.2966 14.1518 -8.94964
575 1 3.42432e-07 18.8691 12.5794 -8.94963
576 1 1.57242 20.4415 14.1518 -8.94964
577 1 3.14484 18.8691 12.5794 -8.94969
578 1 4.71726 20.4415 14.1518 -8.94963
579 1 6.28959 18.8692 12.5795 -8.94977
580 1 7.86209 20.4415 14.1518 -8.9496
581 1 9.43438 18.8694 12.5796 -8.94876
582 1 11.007 20.4415 14.1518 -8.94973
583 1 12.5796 18.8694 12.5796 -8.94901
584 1 14.1518 20.4415 14.1518 -8.94962
585 1 15.7242 18.8691 12.5794 -8.94966
586 1 17.2966 20.4415 14.1518 -8.94964
587 1 18.8691 18.8691 12.5794 -8.94963
588 1 20.4415 20.4415 14.1518 -8.94963
677 1 6.28968 18.8691 18.8691 -8.94961
676 1 4.71726 20.4415 20.4415 -8.94963
591 1 7.8622 11.0071 17.2967 -8.95032
592 1 11.0069 11.0069 17.2983 -8.95386
593 1 14.1517 11.0071 17.2967 -8.95025
675 1 3.14484 18.8691 18.8691 -8.94963
674 1 1.57242 20.4415 20.4415 -8.94963
596 1 3.96709e-07 12.5794 15.7242 -8.94962
597 1 1.57242 14.1518 17.2966 -8.94964
598 1 3.14487 12.5794 15.7242 -8.94957
599 1 4.71729 14.1518 17.2966 -8.94976
600 1 6.28989 12.5793 15.7241 -8.9504
601 1 7.86215 14.1518 17.2968 -8.95056
602 1 9.43509 12.5799 15.7243 -8.99844
603 1 11.0069 14.1519 17.2972 -8.95093
604 1 12.5789 12.58 15.7251 -9.00055
605 1 14.1518 14.1518 17.2968 -8.95042
606 1 15.724 12.5794 15.7241 -8.95043
607 1 17.2966 14.1518 17.2966 -8.94979
608 1 18.869 12.5794 15.7242 -8.94956
609 1 20.4415 14.1518 17.2966 -8.94964
610 1 22.0139 15.7242 15.7242 -8.94963
611 1 1.57242 17.2966 17.2966 -8.94963
612 1 3.14482 15.7242 15.7242 -8.94965
613 1 4.71724 17.2967 17.2967 -8.94956
614 1 6.28944 15.7245 15.7245 -8.94896
615 1 7.86205 17.2967 17.2967 -8.94943
616 1 9.43422 15.7248 15.7249 -8.94833
617 1 11.007 17.2967 17.2967 -8.94952
618 1 12.5797 15.7248 15.7249 -8.94882
619 1 14.1518 17.2967 17.2967 -8.9495
620 1 15.7245 15.7245 15.7245 -8.94813
621 1 17.2967 17.2967 17.2967 -8.94951
622 1 18.8691 15.7242 15.7242 -8.94958
623 1 20.4415 17.2966 17.2966 -8.94962
624 1 22.0139 18.8691 15.7242 -8.94963
625 1 1.57242 20.4415 17.2966 -8.94963
626 1 3.14483 18.8691 15.7242 -8.94958
627 1 4.71726 20.4415 17.2966 -8.94964
628 1 6.28968 18.8691 15.7242 -8.9497
629 1 7.8621 20.4415 17.2966 -8.94964
630 1 9.43451 18.8691 15.7242 -8.94977
631 1 11.007 20.4415 17.2966 -8.94962
632 1 12.5794 18.8691 15.7242 -8.94976
633 1 14.1518 20.4415 17.2966 -8.94964
634 1 15.7242 18.8691 15.7242 -8.94961
635 1 17.2966 20.4415 17.2966 -8.94963
636 1 18.8691 18.8691 15.7242 -8.94965
637 1 20.4415 20.4415 17.2966 -8.94963
387 1 12.5794 18.8691 22.0139 -8.94963
673 1 22.0139 18.8691 18.8691 -8.94963
640 1 7.86211 11.007 20.4415 -8.94963
641 1 11.0069 11.007 20.4415 -8.95026
642 1 14.1518 11.007 20.4415 -8.94965
672 1 20.4415 17.2966 20.4415 -8.94963
385 1 9.43453 18.8691 22.0139 -8.94963
645 1 22.0139 12.5794 18.8691 -8.94963
646 1 1.57242 14.1518 20.4415 -8.94963
647 1 3.14484 12.5794 18.8691 -8.94963
648 1 4.71726 14.1518 20.4415 -8.94963
649 1 6.28968 12.5794 18.8691 -8.94957
650 1 7.8621 14.1518 20.4415 -8.94967
651 1 9.43447 12.5794 18.8691 -8.94926
652 1 11.0069 14.1518 20.4415 -8.9498
653 1 12.5794 12.5794 18.8691 -8.94949
654 1 14.1518 14.1518 20.4415 -8.94968
655 1 15.7242 12.5794 18.8691 -8.94956
656 1 17.2966 14.1518 20.4415 -8.94963
657 1 18.8691 12.5794 18.8691 -8.94963
658 1 20.4415 14.1518 20.4415 -8.94963
659 1 22.0139 15.7242 18.8691 -8.94963
660 1 1.57242 17.2966 20.4415 -8.94963
661 1 3.14485 15.7242 18.8691 -8.94965
662 1 4.71726 17.2966 20.4415 -8.94964
663 1 6.28969 15.7242 18.8691 -8.94972
664 1 7.8621 17.2966 20.4415 -8.94963
665 1 9.43451 15.7242 18.8691 -8.94972
666 1 11.007 17.2966 20.4415 -8.94962
353 1 3.14484 12.5794 22.0139 -8.94963
11 1 15.7242 22.0139 22.0139 -8.94963
357 1 9.4345 12.5794 22.0138 -8.94968
359 1 12.5794 12.5794 22.0138 -8.94995
363 1 18.8691 12.5794 22.0139 -8.94964
365 1 22.0139 15.7242 22.0139 -8.94963
369 1 6.28968 15.7242 22.0139 -8.94965
375 1 15.7242 15.7242 22.0139 -8.94962
5 1 6.28969 22.0139 22.0139 -8.94963
381 1 3.14484 18.8691 22.0139 -8.94963
595 1 20.4415 11.007 17.2966 -8.94964
246 1 5.31465e-08 22.0139 15.7242 -8.94963
589 1 1.57242 11.007 17.2966 -8.94964
351 1 22.0139 12.5794 22.0139 -8.94963
538 1 17.2966 20.4415 11.007 -8.94963
532 1 20.4415 17.2966 11.007 -8.94964
535 1 7.86209 20.4416 11.007 -8.94995
536 1 11.007 20.4419 11.007 -8.95099
1 1 22.0139 22.0139 22.0139 -8.94963
