ITEM: TIMESTEP
89
ITEM: NUMBER OF ATOMS
688
ITEM: BOX BOUNDS pp pp pp
0.0000000000000000e+00 2.2013900999999997e+01
0.0000000000000000e+00 2.2013900999999997e+01
0.0000000000000000e+00 2.2013900999999997e+01
ITEM: ATOMS id type x y z c_pot
518 1 20.4425 11.0068 11.0067 -8.94983
2 1 1.57216 1.57228 1.57217 -8.94929
448 1 20.4423 11.0069 7.86203 -8.94968
4 1 4.7171 1.57223 1.57213 -8.94968
447 1 17.3001 11.0069 7.86211 -8.95189
6 1 7.86205 1.57221 1.57212 -8.94954
7 1 9.43451 2.20151e-05 -0.000108045 -8.9496
8 1 11.007 1.57219 1.57211 -8.94957
9 1 12.5794 1.96322e-05 -0.000100427 -8.9496
10 1 14.1519 1.57218 1.57217 -8.94954
446 1 14.1634 11.0068 7.85359 -8.97285
12 1 17.2969 1.57213 1.57216 -8.94954
13 1 18.8692 1.06687e-05 -9.31719e-05 -8.9495
14 1 20.4415 1.57232 1.57234 -8.9496
444 1 7.88249 11.0076 7.87225 -8.89123
16 1 1.57223 4.71714 1.57216 -8.9498
443 1 4.71887 11.0068 7.86226 -8.94081
18 1 4.7165 4.71656 1.57132 -8.94951
442 1 1.57189 11.0069 7.86165 -8.94791
20 1 7.86185 4.7166 1.57157 -8.94922
105 1 9.4347 0.00018352 6.28919 -8.95
22 1 11.0069 4.71648 1.57159 -8.94943
107 1 12.5796 0.000124728 6.28945 -8.95017
24 1 14.1521 4.7164 1.57158 -8.94974
517 1 17.3013 11.0062 11.0058 -8.95072
26 1 17.2976 4.71626 1.57156 -8.94836
397 1 14.1615 11.0069 4.7077 -8.94265
28 1 20.4418 4.71702 1.57218 -8.94956
396 1 11.0119 11.0073 4.7203 -9.00098
30 1 1.57228 7.86206 1.57217 -8.94947
395 1 7.86454 11.0069 4.71987 -8.946
32 1 4.71698 7.86229 1.57199 -8.94967
188 1 17.2976 4.71628 11.0069 -8.949
34 1 7.86177 7.86191 1.57088 -8.95204
35 1 9.43424 6.28909 -0.000504609 -8.94957
36 1 11.0066 7.86124 1.57036 -8.95032
37 1 12.5794 6.28907 -0.000547713 -8.94962
38 1 14.1532 7.86071 1.5694 -8.95152
183 1 1.57129 4.71651 11.0072 -8.94934
40 1 17.2977 7.86157 1.57147 -8.94933
350 1 20.4418 11.0069 1.57211 -8.94956
42 1 20.4418 7.86197 1.57213 -8.94951
345 1 4.71677 11.0069 1.57179 -8.94965
44 1 3.14459 9.4345 -0.000172594 -8.94957
349 1 17.2977 11.0069 1.57143 -8.94949
348 1 14.1536 11.0069 1.56913 -8.94952
347 1 11.0068 11.0069 1.57154 -8.94683
346 1 7.86189 11.0069 1.57234 -8.94831
344 1 1.57223 11.0069 1.57211 -8.94961
181 1 17.297 1.57215 11.0069 -8.94957
51 1 1.57209 1.57223 4.71706 -8.94958
175 1 18.8705 9.43383 9.43418 -8.94808
53 1 4.71657 1.57173 4.71653 -8.94985
54 1 6.28957 6.50332e-05 3.14444 -8.94961
55 1 7.86204 1.5718 4.71667 -8.94959
174 1 15.7254 9.43321 9.43338 -8.94124
57 1 11.0072 1.57178 4.71666 -8.94957
173 1 12.5678 9.43546 9.42698 -8.94957
59 1 14.1522 1.57172 4.71691 -8.95045
60 1 15.7245 3.29778e-05 3.14456 -8.94996
61 1 17.2969 1.57224 4.71717 -8.94961
172 1 9.36525 9.21059 9.44705 -8.16087
63 1 20.4415 1.57232 4.7172 -8.94958
64 1 22.0137 3.14461 3.14461 -8.94956
65 1 1.57139 4.71663 4.71658 -8.94964
66 1 3.14395 3.14407 3.14394 -8.94847
67 1 4.71409 4.71425 4.71408 -8.9453
68 1 6.28932 3.14404 3.14403 -8.94971
69 1 7.86134 4.71481 4.71534 -8.94931
70 1 9.43448 3.14399 3.14407 -8.94944
71 1 11.0073 4.71481 4.7154 -8.94798
72 1 12.5796 3.14392 3.14414 -8.94922
73 1 14.154 4.71343 4.71502 -8.95017
74 1 15.725 3.1436 3.14405 -8.94952
75 1 17.2975 4.7164 4.71692 -8.95005
76 1 18.8693 3.14453 3.14468 -8.94974
77 1 20.4415 4.71696 4.71708 -8.94974
78 1 22.014 6.28954 3.14457 -8.94978
79 1 1.57195 7.86213 4.71685 -8.94973
80 1 3.14417 6.28953 3.14417 -8.95026
81 1 4.71572 7.86225 4.7161 -8.95141
82 1 6.28762 6.2878 3.14143 -8.95011
83 1 7.85744 7.85729 4.70911 -8.95391
84 1 9.43402 6.28791 3.14248 -8.94796
85 1 11.0072 7.85816 4.71012 -8.95088
86 1 12.58 6.28768 3.14217 -8.94935
87 1 14.1636 7.85087 4.70546 -8.931
88 1 15.7277 6.28615 3.14139 -8.94484
89 1 17.3003 7.86028 4.71538 -8.95071
90 1 18.8702 6.28895 3.14412 -8.94964
91 1 20.4422 7.8618 4.71687 -8.95011
92 1 6.82761e-05 9.43444 3.14446 -8.94956
93 1 3.14428 9.43448 3.14417 -8.94905
94 1 6.28947 9.43523 3.14435 -8.94924
95 1 9.43498 9.43466 3.14393 -8.95075
96 1 12.5818 9.43329 3.13727 -8.9591
97 1 15.7273 9.43336 3.14168 -8.94781
98 1 18.8703 9.43425 3.14404 -8.94932
99 1 22.0138 2.51203e-05 6.28962 -8.94961
100 1 1.57204 1.5722 7.86202 -8.94957
101 1 3.14434 7.69637e-05 6.28944 -8.94949
102 1 4.71643 1.57164 7.86179 -8.94942
171 1 6.28175 9.42737 9.43454 -8.9699
104 1 7.8618 1.57117 7.86176 -8.95118
170 1 3.14219 9.4346 9.43418 -8.95078
106 1 11.0071 1.57189 7.86195 -8.94937
169 1 22.0135 9.43442 9.43436 -8.94963
108 1 14.1523 1.57203 7.86193 -8.94953
168 1 18.8699 6.28884 9.43443 -8.94955
110 1 17.297 1.57216 7.86204 -8.94958
111 1 18.8692 2.29829e-05 6.28963 -8.94962
112 1 20.4415 1.5723 7.86207 -8.9496
113 1 -0.000263675 3.14455 6.28954 -8.94952
114 1 1.57132 4.71654 7.86182 -8.94936
115 1 3.14388 3.14398 6.28917 -8.94935
116 1 4.71439 4.71445 7.86095 -8.948
117 1 6.28828 3.14203 6.28828 -8.95111
118 1 7.85939 4.71003 7.86061 -8.95761
119 1 9.43473 3.1427 6.28874 -8.95023
120 1 11.0065 4.71525 7.86189 -8.95092
121 1 12.5797 3.1429 6.28929 -8.9521
122 1 14.1528 4.71557 7.86207 -8.9487
123 1 15.7248 3.1441 6.28961 -8.94949
124 1 17.2975 4.71635 7.86195 -8.94913
125 1 18.8693 3.14451 6.2896 -8.94949
126 1 20.4415 4.71684 7.862 -8.94958
127 1 22.0133 6.28931 6.28936 -8.95004
128 1 1.57047 7.86175 7.86174 -8.95137
129 1 3.14158 6.28813 6.28805 -8.95064
130 1 4.70856 7.85896 7.85984 -8.95716
131 1 6.27904 6.27939 6.27961 -8.93257
132 1 7.82623 7.82973 7.83329 -8.86457
133 1 9.43406 6.28271 6.28585 -8.9509
134 1 11.0205 7.85495 7.84147 -8.90629
135 1 12.5846 6.28025 6.28393 -8.95417
136 1 14.1571 7.85926 7.86241 -8.94938
137 1 15.7266 6.28777 6.28915 -8.95054
138 1 17.2989 7.86102 7.86218 -8.94951
139 1 18.8699 6.28911 6.28956 -8.94963
140 1 20.4418 7.86169 7.86196 -8.94984
141 1 22.0139 9.43451 6.28936 -8.94986
142 1 3.14363 9.43506 6.28907 -8.94966
143 1 6.28736 9.43701 6.28945 -8.9525
144 1 9.42312 9.41509 6.28616 -8.90688
145 1 12.6188 9.40233 6.25357 -8.8605
146 1 15.7342 9.43188 6.28572 -8.95747
147 1 18.8714 9.4342 6.28923 -8.95159
167 1 15.7264 6.28735 9.43416 -8.94696
166 1 12.5795 6.28789 9.43278 -8.9446
150 1 6.289 0.000199143 9.43448 -8.95016
165 1 9.42923 6.28988 9.43412 -8.99857
164 1 6.28061 6.28092 9.43444 -8.94339
153 1 15.7246 5.35915e-05 9.43449 -8.94963
163 1 3.14135 6.28784 9.43443 -8.94917
155 1 22.0136 3.14452 9.43451 -8.94956
156 1 3.1438 3.14392 9.43448 -8.94952
157 1 6.28781 3.14172 9.43441 -8.94949
158 1 9.43424 3.14317 9.43416 -8.94702
159 1 12.5799 3.14365 9.43412 -8.94877
160 1 15.7249 3.14391 9.4344 -8.9496
161 1 18.8694 3.14445 9.43449 -8.94959
162 1 -0.000665776 6.28917 9.43448 -8.94989
177 1 4.71641 1.5716 11.0072 -8.94941
184 1 4.71426 4.7143 11.0079 -8.94789
48 1 15.725 9.43425 -0.00081779 -8.94944
189 1 20.4415 4.71682 11.007 -8.94957
3 1 3.14474 1.87275e-05 -9.49561e-05 -8.94965
19 1 6.28955 3.14457 -0.000191088 -8.94954
25 1 15.7244 3.14451 -0.000171768 -8.94969
29 1 22.0139 6.28963 -8.02019e-05 -8.94958
176 1 1.57204 1.57219 11.007 -8.94957
644 1 20.4417 11.007 20.4415 -8.9496
178 1 7.86182 1.57098 11.007 -8.95122
179 1 11.0071 1.57152 11.0069 -8.95083
180 1 14.1523 1.5719 11.0068 -8.94938
643 1 17.2972 11.007 20.4416 -8.94952
182 1 20.4415 1.57229 11.007 -8.9496
639 1 4.71692 11.0069 20.4416 -8.94966
638 1 1.5723 11.0069 20.4415 -8.94961
185 1 7.85937 4.70925 11.0082 -8.95837
186 1 11.0068 4.71157 11.0071 -8.9565
187 1 14.1528 4.71535 11.0061 -8.94886
295 1 22.0138 1.54946e-05 18.8691 -8.94945
39 1 15.7249 6.28891 22.0132 -8.94996
190 1 1.57037 7.86175 11.0071 -8.95155
191 1 4.70793 7.85871 11.0091 -8.95794
192 1 7.82342 7.826 11.0401 -8.85664
193 1 11.0233 7.83488 11.0303 -8.92617
194 1 14.1568 7.85857 11.0047 -8.95363
195 1 17.2989 7.86095 11.0063 -8.94961
196 1 20.4418 7.86169 11.0069 -8.94987
197 1 22.0138 2.52638e-05 12.5794 -8.94961
198 1 1.57207 1.57221 14.152 -8.94959
343 1 18.8695 9.43447 18.8694 -8.94959
200 1 4.7165 1.5716 14.1525 -8.94994
201 1 6.28919 0.000150729 12.5798 -8.95051
202 1 7.86181 1.57154 14.1525 -8.94968
203 1 9.43449 0.000359274 12.5799 -8.95023
204 1 11.0072 1.57143 14.1525 -8.94961
205 1 12.5798 0.000247133 12.5797 -8.95041
206 1 14.1524 1.5714 14.1523 -8.95055
207 1 15.7246 3.05287e-05 12.5794 -8.94952
208 1 17.2969 1.57217 14.1518 -8.9497
342 1 15.7251 9.43431 18.8703 -8.94977
210 1 20.4415 1.57231 14.1518 -8.94958
211 1 -0.000268696 3.14454 12.5795 -8.94952
212 1 1.57129 4.71655 14.1525 -8.94968
213 1 3.14382 3.14392 12.5798 -8.94935
214 1 4.71361 4.71379 14.1552 -8.94488
215 1 6.28812 3.14166 12.5807 -8.95133
216 1 7.86057 4.7134 14.1545 -8.94903
217 1 9.43444 3.14159 12.5805 -8.95049
218 1 11.0074 4.71312 14.1543 -8.94808
219 1 12.5802 3.14167 12.58 -8.95259
220 1 14.1551 4.71185 14.1548 -8.94947
221 1 15.7248 3.14395 12.5792 -8.9496
222 1 17.2978 4.71619 14.1521 -8.95027
223 1 18.8693 3.14448 12.5794 -8.94946
224 1 20.4416 4.71691 14.1519 -8.94979
225 1 22.0133 6.28928 12.5796 -8.95013
226 1 1.57177 7.86203 14.1522 -8.94979
227 1 3.14123 6.28797 12.581 -8.95084
228 1 4.71487 7.86185 14.1532 -8.95194
229 1 6.27757 6.27797 12.5904 -8.93062
230 1 7.85451 7.85367 14.1636 -8.95184
231 1 9.43267 6.27854 12.5856 -8.94905
232 1 11.0075 7.85333 14.1625 -8.95168
233 1 12.5872 6.27542 12.5874 -8.95092
234 1 14.1667 7.84724 14.1664 -8.9264
235 1 15.7271 6.28735 12.5795 -8.95129
236 1 17.3012 7.85983 14.1539 -8.95129
237 1 18.87 6.28906 12.5793 -8.94974
238 1 20.4424 7.8617 14.1522 -8.95021
239 1 22.0139 9.43442 12.5796 -8.94989
240 1 3.14301 9.43494 12.5799 -8.94959
241 1 6.28539 9.43672 12.5803 -8.95378
242 1 9.41667 9.40646 12.5954 -8.9575
243 1 12.6251 9.39252 12.6236 -8.89428
244 1 15.7358 9.43123 12.5832 -8.95902
245 1 18.8719 9.43407 12.5797 -8.95169
47 1 12.5795 9.43437 22.0128 -8.95153
247 1 1.57213 1.57225 17.2969 -8.9493
248 1 3.1444 5.18823e-05 15.7246 -8.94957
249 1 4.71699 1.57216 17.297 -8.94962
341 1 12.5798 9.43405 18.8718 -8.95192
251 1 7.86198 1.5721 17.2971 -8.94956
252 1 9.43452 4.6125e-05 15.7248 -8.94961
253 1 11.007 1.57207 17.2971 -8.94957
254 1 12.5796 2.16216e-05 15.7247 -8.94957
255 1 14.152 1.57206 17.297 -8.94956
340 1 9.43406 9.4342 18.8709 -8.95008
257 1 17.297 1.57204 17.297 -8.94944
258 1 18.8692 1.47192e-05 15.7243 -8.9497
259 1 20.4415 1.5723 17.2967 -8.94963
260 1 22.0136 3.14458 15.7245 -8.94958
261 1 1.57218 4.71707 17.297 -8.94984
262 1 3.14382 3.14395 15.7252 -8.9484
263 1 4.71621 4.71626 17.2981 -8.94929
264 1 6.28903 3.14366 15.7253 -8.9496
265 1 7.86159 4.71611 17.298 -8.94915
266 1 9.43437 3.14349 15.7253 -8.94948
267 1 11.0069 4.71597 17.298 -8.94923
268 1 12.5797 3.14339 15.7252 -8.94928
269 1 14.1524 4.71589 17.298 -8.94966
270 1 15.7254 3.14317 15.7253 -8.94929
271 1 17.2979 4.71596 17.2978 -8.94803
272 1 18.8694 3.14446 15.7244 -8.94981
273 1 20.4419 4.71694 17.2969 -8.94958
274 1 22.014 6.28947 15.7245 -8.94983
275 1 1.5721 7.86193 17.2971 -8.94942
276 1 3.14389 6.28935 15.725 -8.9504
277 1 4.71637 7.86187 17.2977 -8.94922
278 1 6.28658 6.28665 15.7287 -8.94932
279 1 7.86083 7.86092 17.2999 -8.95127
280 1 9.43355 6.2863 15.7281 -8.9481
281 1 11.0066 7.86031 17.3005 -8.94976
282 1 12.5807 6.28599 15.7284 -8.94949
283 1 14.1542 7.85975 17.3013 -8.95063
284 1 15.7288 6.28504 15.7286 -8.94355
285 1 17.2982 7.86127 17.2981 -8.9491
286 1 18.8705 6.28874 15.7251 -8.94974
287 1 20.4419 7.86185 17.2971 -8.94948
288 1 4.35799e-05 9.43432 15.7248 -8.94964
289 1 3.1436 9.43415 15.7253 -8.94895
290 1 6.28762 9.43393 15.7265 -8.94774
291 1 9.43294 9.43133 15.7305 -8.94918
292 1 12.5838 9.43004 15.7363 -8.95665
293 1 15.7286 9.43251 15.7286 -8.94713
294 1 18.8708 9.43399 15.7254 -8.94921
339 1 6.28922 9.43458 18.8698 -8.94977
296 1 1.57231 1.57232 20.4415 -8.9495
338 1 3.14452 9.4345 18.8694 -8.94962
298 1 4.71717 1.57232 20.4415 -8.94959
299 1 6.28959 2.4252e-05 18.8693 -8.9496
300 1 7.86205 1.57228 20.4415 -8.94959
337 1 22.0139 9.4345 18.8693 -8.94959
302 1 11.007 1.57227 20.4415 -8.9496
336 1 20.4416 7.86205 20.4415 -8.94962
304 1 14.1519 1.57228 20.4415 -8.94958
305 1 15.7243 1.1682e-05 18.8692 -8.94961
306 1 17.2968 1.57229 20.4415 -8.94966
335 1 18.8696 6.28937 18.8694 -8.9495
308 1 20.4416 1.57235 20.4415 -8.94942
309 1 22.0139 3.14473 18.8692 -8.94963
310 1 1.57234 4.7172 20.4415 -8.94965
311 1 3.14451 3.14453 18.8694 -8.94947
312 1 4.71693 4.71696 20.4416 -8.94985
313 1 6.28947 3.14447 18.8694 -8.9495
314 1 7.86188 4.71682 20.4417 -8.94953
315 1 9.43445 3.14439 18.8695 -8.94954
316 1 11.0069 4.71676 20.4417 -8.94956
317 1 12.5794 3.14439 18.8695 -8.94951
318 1 14.1519 4.71679 20.4417 -8.94961
319 1 15.7245 3.1444 18.8694 -8.94966
320 1 17.2971 4.71678 20.4416 -8.94949
321 1 18.8694 3.1445 18.8693 -8.9492
322 1 20.4416 4.71714 20.4415 -8.94959
323 1 22.0139 6.28957 18.8692 -8.94953
324 1 1.57231 7.86207 20.4415 -8.9496
325 1 3.14453 6.28957 18.8694 -8.94957
326 1 4.71698 7.86209 20.4416 -8.94963
327 1 6.28903 6.28912 18.8702 -8.95018
328 1 7.86174 7.86185 20.442 -8.95026
329 1 9.43415 6.28881 18.8703 -8.94958
330 1 11.0067 7.8616 20.442 -8.95008
331 1 12.5795 6.2888 18.8704 -8.94963
332 1 14.1523 7.86155 20.442 -8.95062
333 1 15.7252 6.28867 18.8704 -8.9497
334 1 17.2972 7.86187 20.4416 -8.94955
512 1 1.57151 11.0067 11.0071 -8.94815
513 1 4.7171 11.0062 11.0058 -8.93986
515 1 11.0877 10.927 11.1965 -8.44535
594 1 17.2979 11.007 17.2979 -8.94952
590 1 4.71655 11.007 17.2976 -8.94967
540 1 1.57138 11.0067 14.1526 -8.94975
541 1 4.71378 11.006 14.1544 -8.94586
543 1 11.0109 10.9973 14.1666 -9.03626
545 1 17.3019 11.0062 14.1546 -8.94792
546 1 20.4427 11.0068 14.1525 -8.95004
46 1 9.43429 9.43454 22.0138 -8.94954
33 1 6.28929 6.28937 22.0134 -8.9504
45 1 6.28938 9.4346 22.0138 -8.94945
41 1 18.8694 6.28946 22.0137 -8.9496
15 1 22.0139 3.14475 22.0138 -8.9496
17 1 3.14457 3.14459 22.0137 -8.94952
31 1 3.14467 6.28968 22.0138 -8.94971
27 1 18.8694 3.14456 22.0138 -8.94927
21 1 9.43448 3.1445 22.0137 -8.94957
23 1 12.5794 3.1445 22.0137 -8.94954
43 1 22.0139 9.4345 22.0138 -8.9496
49 1 18.8695 9.43445 22.0137 -8.94957
688 3 10.1977 11.0286 9.41933 2.35258
511 1 18.8694 18.8695 9.4345 -8.94961
510 1 15.725 18.87 9.43451 -8.94994
509 1 12.5808 18.872 9.43328 -8.94836
508 1 9.43342 18.8729 9.4333 -8.9468
507 1 6.28744 18.8728 9.43447 -8.94978
506 1 3.14359 18.8702 9.4345 -8.94947
50 1 -0.00011722 22.0139 3.14474 -8.9496
352 1 1.57225 14.1518 1.57214 -8.94948
154 1 18.8692 22.0139 9.43452 -8.94961
354 1 4.7169 14.1516 1.57185 -8.94965
152 1 12.5799 22.0144 9.43426 -8.94971
356 1 7.8617 14.152 1.57039 -8.95242
151 1 9.43452 22.0144 9.43425 -8.94923
358 1 11.0066 14.1526 1.57008 -8.95026
149 1 3.1443 22.014 9.43451 -8.94952
360 1 14.1532 14.1532 1.56922 -8.95145
361 1 15.7251 12.5797 -0.000868251 -8.9494
362 1 17.2977 14.1523 1.57144 -8.94932
148 1 -0.000142927 22.0139 9.43452 -8.94961
364 1 20.4418 14.1519 1.57212 -8.94951
109 1 15.7246 22.0141 6.2895 -8.94947
366 1 1.57219 17.2968 1.57211 -8.94982
367 1 3.14465 15.7242 -0.000159429 -8.9497
368 1 4.71637 17.2975 1.57109 -8.94951
393 1 1.57186 11.0069 4.71656 -8.94949
370 1 7.86185 17.2974 1.57135 -8.94927
371 1 9.43428 15.7248 -0.000687328 -8.94967
372 1 11.007 17.2975 1.57143 -8.94942
373 1 12.5794 15.7248 -0.000701625 -8.9497
374 1 14.1522 17.2975 1.57146 -8.94981
537 1 14.1523 20.4422 11.0069 -8.94919
376 1 17.2976 17.2976 1.57151 -8.94832
377 1 18.8694 15.7244 -0.000209042 -8.94958
378 1 20.4418 17.2969 1.57217 -8.94956
103 1 6.28918 22.0142 6.28911 -8.95042
380 1 1.57213 20.4417 1.57214 -8.94925
62 1 18.8692 22.0139 3.14478 -8.94963
382 1 4.71707 20.4418 1.57208 -8.94968
383 1 6.28954 18.8694 -0.000237373 -8.94955
384 1 7.86205 20.4418 1.57207 -8.94953
58 1 12.5795 22.014 3.14446 -8.94952
386 1 11.007 20.4418 1.57207 -8.94956
56 1 9.43456 22.014 3.14441 -8.94957
388 1 14.1519 20.4418 1.57214 -8.94952
389 1 15.7244 18.8694 -0.00020255 -8.9497
390 1 17.2969 20.4418 1.57213 -8.94951
52 1 3.14443 22.014 3.14441 -8.94949
392 1 20.4415 20.4416 1.57233 -8.94962
505 1 22.0136 18.8694 9.43451 -8.94956
504 1 18.8701 15.7251 9.43429 -8.94955
503 1 15.727 15.7264 9.43405 -8.94865
502 1 12.5843 15.7297 9.4276 -8.97448
501 1 9.4223 15.7296 9.42796 -9.03776
500 1 6.27797 15.7348 9.43368 -8.94358
399 1 20.4423 11.0069 4.71674 -8.94987
400 1 5.75385e-05 12.5794 3.14445 -8.94957
401 1 1.57181 14.1517 4.71678 -8.94971
402 1 3.14422 12.5793 3.14412 -8.94908
403 1 4.71525 14.1516 4.71564 -8.95139
404 1 6.28929 12.5784 3.14401 -8.94915
405 1 7.85656 14.1572 4.70693 -8.95516
406 1 9.43494 12.5793 3.14339 -8.95097
407 1 11.0073 14.156 4.70944 -8.95056
408 1 12.5819 12.5806 3.13699 -8.95911
409 1 14.164 14.1632 4.70513 -8.93007
410 1 15.7273 12.5805 3.14164 -8.9478
411 1 17.3004 14.1536 4.71537 -8.95073
412 1 18.8703 12.5796 3.14404 -8.94933
413 1 20.4422 14.1521 4.71685 -8.95011
414 1 22.0139 15.7244 3.14454 -8.94978
415 1 1.57117 17.2974 4.71645 -8.94966
416 1 3.14402 15.7244 3.14402 -8.95029
417 1 4.71335 17.3004 4.71331 -8.94413
418 1 6.28724 15.7264 3.14063 -8.95023
419 1 7.86117 17.2996 4.71458 -8.94952
420 1 9.4341 15.7262 3.14191 -8.94805
421 1 11.0075 17.2995 4.71493 -8.94751
422 1 12.5801 15.7263 3.14183 -8.94953
423 1 14.1543 17.3007 4.7146 -8.95035
424 1 15.7278 15.7278 3.14127 -8.9446
425 1 17.2975 17.2975 4.71693 -8.95024
426 1 18.8703 15.725 3.1441 -8.94964
427 1 20.4415 17.2969 4.71706 -8.94978
428 1 22.0136 18.8693 3.14457 -8.94956
429 1 1.57204 20.4418 4.71701 -8.94956
430 1 3.14377 18.87 3.14375 -8.94821
431 1 4.71643 20.4425 4.71638 -8.94972
432 1 6.28923 18.8701 3.1438 -8.94975
433 1 7.86204 20.4424 4.71655 -8.94964
434 1 9.43452 18.8701 3.14389 -8.94937
435 1 11.0072 20.4423 4.71657 -8.94956
436 1 12.5796 18.8701 3.14401 -8.94913
437 1 14.1522 20.4423 4.71684 -8.95054
438 1 15.7251 18.8704 3.14392 -8.94951
439 1 17.2969 20.4418 4.71712 -8.94948
440 1 18.8693 18.8694 3.14466 -8.94981
441 1 20.4415 20.4416 4.71717 -8.94956
499 1 3.14042 15.7265 9.43421 -8.94898
498 1 -0.000838974 15.7248 9.4344 -8.94995
497 1 18.8702 12.5798 9.43436 -8.94788
445 1 11.0931 11.0107 7.64166 -8.14729
496 1 15.7241 12.5793 9.43435 -8.94103
495 1 12.5634 12.5705 9.43093 -8.92986
494 1 9.34487 12.8265 9.43231 -8.1107
449 1 22.0138 12.5793 6.28933 -8.9499
450 1 1.57007 14.1521 7.86171 -8.95181
451 1 3.14328 12.5786 6.28891 -8.94958
452 1 4.70658 14.1553 7.85912 -8.95874
453 1 6.28621 12.5764 6.28849 -8.95133
454 1 7.81807 14.1909 7.82476 -8.84259
455 1 9.42152 12.601 6.28422 -8.91008
456 1 11.0218 14.1596 7.84064 -8.96072
457 1 12.6198 12.6125 6.25283 -8.85539
458 1 14.1564 14.1528 7.86319 -8.95158
459 1 15.7344 12.5819 6.28573 -8.95727
460 1 17.2986 14.1525 7.86234 -8.94986
461 1 18.8714 12.5796 6.28922 -8.95158
462 1 20.4417 14.1521 7.86199 -8.94994
463 1 22.0132 15.7246 6.28932 -8.95018
464 1 1.57104 17.2975 7.86172 -8.94931
465 1 3.14084 15.726 6.28767 -8.95091
466 1 4.71343 17.3002 7.86055 -8.94778
467 1 6.27643 15.7369 6.27689 -8.9277
468 1 7.8574 17.3068 7.85862 -8.95649
469 1 9.43412 15.7324 6.28407 -8.95261
470 1 11.0065 17.2995 7.86148 -8.95084
471 1 12.5852 15.7342 6.2828 -8.95586
472 1 14.1542 17.2994 7.86082 -8.94591
473 1 15.7265 15.7258 6.28932 -8.9511
474 1 17.2978 17.2976 7.86184 -8.94935
475 1 18.8698 15.7247 6.28956 -8.94972
476 1 20.4416 17.2971 7.86192 -8.94959
477 1 -0.000318102 18.8694 6.28949 -8.9495
478 1 1.572 20.4418 7.86201 -8.94957
479 1 3.14361 18.8702 6.28902 -8.94928
480 1 4.7163 20.4426 7.86177 -8.9495
481 1 6.28766 18.8729 6.28764 -8.9507
482 1 7.8615 20.4438 7.86146 -8.95129
483 1 9.4348 18.8717 6.28837 -8.95034
484 1 11.0071 20.4426 7.86182 -8.9491
485 1 12.5798 18.8713 6.28908 -8.95236
486 1 14.1526 20.4425 7.86168 -8.94932
487 1 15.7251 18.8701 6.28932 -8.94881
488 1 17.297 20.4418 7.86205 -8.94969
489 1 18.8694 18.8695 6.28954 -8.94949
490 1 20.4415 20.4417 7.86206 -8.94961
491 1 22.0134 12.5793 9.4344 -8.94959
492 1 3.14173 12.5789 9.43431 -8.9511
493 1 6.2797 12.5875 9.43433 -8.97413
516 1 14.165 11.0027 11.0112 -9.02607
522 1 11.0194 14.2219 11.0019 -9.16004
523 1 14.1549 14.153 11.0027 -9.00697
524 1 17.2992 14.153 11.0057 -8.94788
525 1 20.4419 14.1522 11.0068 -8.9499
526 1 1.57108 17.2975 11.0072 -8.94929
527 1 4.71369 17.3002 11.0081 -8.94752
530 1 14.1525 17.2983 11.0065 -8.94913
531 1 17.2976 17.2976 11.0069 -8.94898
394 1 4.71591 11.0067 4.71565 -8.94654
398 1 17.3005 11.0069 4.71518 -8.949
355 1 6.28935 12.5793 -0.000229893 -8.94944
379 1 22.0139 18.8692 -9.48518e-05 -8.94963
687 2 11.0024 12.5983 11.7605 0.841491
686 1 20.4416 20.4416 20.4415 -8.94942
514 1 7.87859 11.0064 10.9964 -8.94983
685 1 18.8694 18.8694 18.8693 -8.94925
307 1 18.8692 22.0139 18.8692 -8.94949
684 1 17.2968 20.4416 20.4415 -8.94965
683 1 15.7245 18.8695 18.8694 -8.94962
519 1 1.56979 14.1522 11.007 -8.9518
520 1 4.70552 14.156 11.0087 -8.95706
521 1 7.81752 14.1921 11.0409 -8.89904
303 1 12.5794 22.0139 18.8693 -8.94958
301 1 9.4345 22.0139 18.8693 -8.94959
297 1 3.14471 22.0139 18.8692 -8.94964
391 1 18.8694 18.8693 22.0137 -8.94929
256 1 15.7247 22.0139 15.7246 -8.94985
250 1 6.2894 22.014 15.7247 -8.94955
528 1 7.85906 17.3059 11.0086 -8.9594
529 1 11.0066 17.3106 11.0064 -8.96893
209 1 18.8692 22.0139 12.5794 -8.94958
199 1 3.14433 22.014 12.5796 -8.94946
671 1 18.8694 15.7244 18.8694 -8.9496
533 1 1.572 20.4418 11.007 -8.94956
534 1 4.71631 20.4426 11.0072 -8.94938
670 1 17.2971 17.2971 20.4415 -8.9496
669 1 15.7249 15.7249 18.87 -8.95014
668 1 14.152 17.2971 20.4416 -8.94965
667 1 12.5795 15.7249 18.8701 -8.94995
539 1 20.4415 20.4417 11.007 -8.9496
682 1 14.1519 20.4416 20.4415 -8.94958
681 1 12.5795 18.8695 18.8695 -8.94951
542 1 7.85985 11.0023 14.1542 -8.97606
680 1 11.007 20.4417 20.4415 -8.9496
544 1 14.1632 11.003 14.1632 -8.97298
679 1 9.43447 18.8695 18.8695 -8.94955
678 1 7.86205 20.4417 20.4415 -8.94959
547 1 22.0138 12.5794 12.5796 -8.95063
548 1 1.57138 14.1519 14.1524 -8.94991
549 1 3.14141 12.5787 12.58 -8.95238
550 1 4.71343 14.1526 14.1542 -8.95038
551 1 6.27625 12.5769 12.5809 -8.96373
552 1 7.8533 14.1611 14.1645 -8.98645
553 1 9.37664 12.5951 12.6034 -9.18571
554 1 11.0073 14.1582 14.1607 -8.98587
555 1 12.6499 12.5992 12.6234 -9.13366
556 1 14.1637 14.164 14.1632 -8.96555
557 1 15.7415 12.5811 12.5826 -8.96604
558 1 17.3013 14.1542 14.1542 -8.94943
559 1 18.8728 12.5797 12.5797 -8.95377
560 1 20.4425 14.1522 14.1523 -8.95019
561 1 22.0132 15.7247 12.5797 -8.95012
562 1 1.57113 17.2974 14.1526 -8.94965
563 1 3.1406 15.7261 12.5812 -8.95079
564 1 4.7132 17.3005 14.1556 -8.94457
565 1 6.27582 15.7369 12.5914 -8.92906
566 1 7.86042 17.3008 14.1548 -8.94929
567 1 9.43128 15.7341 12.5863 -8.99858
568 1 11.0075 17.3001 14.1537 -8.94866
569 1 12.5872 15.7346 12.5872 -8.99863
570 1 14.1548 17.3013 14.1546 -8.94957
571 1 15.7268 15.7255 12.5791 -8.95243
572 1 17.2976 17.2976 14.1521 -8.95059
573 1 18.8699 15.7248 12.5793 -8.9497
574 1 20.4415 17.297 14.152 -8.94979
575 1 -0.000312835 18.8694 12.5795 -8.94951
576 1 1.57204 20.4418 14.152 -8.94958
577 1 3.14365 18.8702 12.5799 -8.94928
578 1 4.71642 20.4425 14.1526 -8.94997
579 1 6.28786 18.8727 12.5809 -8.95149
580 1 7.86169 20.4428 14.1527 -8.94947
581 1 9.43391 18.8732 12.5812 -8.94848
582 1 11.0072 20.4426 14.1525 -8.94945
583 1 12.5807 18.8725 12.5805 -8.95014
584 1 14.1525 20.4426 14.1524 -8.95025
585 1 15.7249 18.8698 12.5793 -8.94959
586 1 17.2969 20.4418 14.1518 -8.94973
587 1 18.8694 18.8694 12.5794 -8.94946
588 1 20.4415 20.4416 14.1519 -8.94957
677 1 6.28947 18.8695 18.8695 -8.9495
676 1 4.71716 20.4416 20.4415 -8.94959
591 1 7.86177 11.0072 17.2978 -8.94986
592 1 11.0069 11.0068 17.3009 -8.95217
593 1 14.1535 11.0074 17.3003 -8.95068
675 1 3.14446 18.8694 18.8695 -8.9494
674 1 1.57229 20.4416 20.4415 -8.94947
596 1 2.0235e-05 12.5794 15.7247 -8.94949
597 1 1.57217 14.1519 17.297 -8.94942
598 1 3.1438 12.5794 15.7252 -8.94876
599 1 4.71672 14.1517 17.2975 -8.94973
600 1 6.2886 12.5787 15.7253 -8.94913
601 1 7.86166 14.1521 17.2991 -8.95344
602 1 9.43548 12.5797 15.7245 -8.99857
603 1 11.0067 14.1526 17.2992 -8.95107
604 1 12.5804 12.5807 15.7289 -9.00231
605 1 14.1529 14.153 17.2995 -8.95215
606 1 15.7274 12.5806 15.7271 -8.94821
607 1 17.2977 14.1524 17.2978 -8.94943
608 1 18.8705 12.5797 15.7252 -8.94905
609 1 20.4418 14.152 17.297 -8.94946
610 1 22.0139 15.7245 15.7246 -8.9498
611 1 1.57207 17.2969 17.2971 -8.94973
612 1 3.14353 15.7248 15.7254 -8.95005
613 1 4.71606 17.2978 17.2983 -8.94908
614 1 6.2862 15.7275 15.7294 -8.94865
615 1 7.86167 17.2977 17.2981 -8.94906
616 1 9.43397 15.7271 15.728 -8.94789
617 1 11.007 17.2978 17.298 -8.94883
618 1 12.5804 15.7271 15.7279 -8.94926
619 1 14.1524 17.2978 17.2979 -8.9495
620 1 15.7281 15.728 15.7279 -8.94456
621 1 17.2978 17.2978 17.2977 -8.94828
622 1 18.8705 15.7252 15.7252 -8.94942
623 1 20.4418 17.297 17.297 -8.9495
624 1 22.0136 18.8694 15.7245 -8.94958
625 1 1.57211 20.4417 17.2969 -8.94928
626 1 3.1437 18.8701 15.7253 -8.94832
627 1 4.71697 20.4418 17.2971 -8.94963
628 1 6.28897 18.8705 15.7254 -8.94958
629 1 7.86199 20.4419 17.2971 -8.94959
630 1 9.43451 18.8704 15.7254 -8.94978
631 1 11.007 20.4419 17.2971 -8.94952
632 1 12.5797 18.8704 15.7252 -8.94957
633 1 14.152 20.4419 17.2971 -8.94959
634 1 15.7253 18.8706 15.7252 -8.94928
635 1 17.297 20.4419 17.297 -8.94947
636 1 18.8694 18.8695 15.7244 -8.94987
637 1 20.4415 20.4416 17.2967 -8.94964
387 1 12.5794 18.8694 22.0137 -8.94953
673 1 22.0139 18.8692 18.8692 -8.94958
640 1 7.86175 11.007 20.4418 -8.94928
641 1 11.0067 11.007 20.4422 -8.94961
642 1 14.1524 11.007 20.4417 -8.95016
672 1 20.4416 17.2967 20.4415 -8.94963
385 1 9.43449 18.8694 22.0137 -8.94956
645 1 22.0139 12.5794 18.8693 -8.9496
646 1 1.57231 14.1518 20.4415 -8.94958
647 1 3.14451 12.5794 18.8694 -8.94956
648 1 4.71699 14.1518 20.4416 -8.94954
649 1 6.28921 12.5793 18.8697 -8.94927
650 1 7.86184 14.1519 20.4417 -8.95031
651 1 9.43417 12.5795 18.87 -8.94831
652 1 11.0068 14.1521 20.4416 -8.95013
653 1 12.5796 12.5797 18.8706 -8.9498
654 1 14.1522 14.1522 20.4415 -8.95042
655 1 15.7251 12.5797 18.8701 -8.94929
656 1 17.2971 14.152 20.4416 -8.94946
657 1 18.8695 12.5795 18.8694 -8.94954
658 1 20.4416 14.1519 20.4415 -8.9496
659 1 22.0139 15.7243 18.8692 -8.94956
660 1 1.57234 17.2967 20.4415 -8.94971
661 1 3.1446 15.7242 18.8694 -8.94973
662 1 4.71693 17.2969 20.4416 -8.94998
663 1 6.28921 15.7246 18.8701 -8.95073
664 1 7.86191 17.2971 20.4416 -8.94957
665 1 9.4343 15.7249 18.8701 -8.94989
666 1 11.0069 17.2971 20.4416 -8.94955
353 1 3.14458 12.5794 22.0137 -8.94958
11 1 15.7243 22.0139 22.0138 -8.94961
357 1 9.4343 12.5793 22.0135 -8.94933
359 1 12.5795 12.5795 22.0125 -8.95124
363 1 18.8695 12.5794 22.0137 -8.94956
365 1 22.0139 15.7243 22.0138 -8.94957
369 1 6.28927 15.7245 22.0132 -8.95055
375 1 15.7249 15.7249 22.0131 -8.94993
5 1 6.28963 22.0139 22.0138 -8.94959
381 1 3.14453 18.8694 22.0136 -8.94952
595 1 20.4419 11.007 17.2971 -8.9495
246 1 -0.000117594 22.0139 15.7243 -8.94962
589 1 1.57214 11.0069 17.2971 -8.94954
351 1 22.0139 12.5794 22.0138 -8.9496
538 1 17.297 20.4418 11.007 -8.94958
532 1 20.4415 17.2971 11.007 -8.94957
535 1 7.86176 20.4435 11.0071 -8.95119
536 1 11.0071 20.4443 11.0069 -8.95294
1 1 22.0138 22.0139 22.0138 -8.94942
