ITEM: TIMESTEP
47
ITEM: NUMBER OF ATOMS
688
ITEM: BOX BOUNDS pp pp pp
0.0000000000000000e+00 2.2013900999999997e+01
0.0000000000000000e+00 2.2013900999999997e+01
0.0000000000000000e+00 2.2013900999999997e+01
ITEM: ATOMS id type x y z c_pot
518 1 20.4415 11.0069 11.0069 -8.94969
2 1 1.57242 1.57242 1.57242 -8.94963
448 1 20.4415 11.007 7.86211 -8.94969
4 1 4.71726 1.57242 1.57242 -8.94963
447 1 17.2969 11.0069 7.8621 -8.95074
6 1 7.86211 1.57242 1.57242 -8.94963
7 1 9.43453 2.906e-09 4.48986e-09 -8.94963
8 1 11.007 1.57242 1.57242 -8.94963
9 1 12.5794 2.75794e-09 -9.43149e-11 -8.94963
10 1 14.1518 1.57242 1.57242 -8.94963
446 1 14.1564 11.0067 7.8612 -8.96281
12 1 17.2966 1.57242 1.57242 -8.94963
13 1 18.8691 2.13325e-10 -9.21727e-10 -8.94963
14 1 20.4415 1.57242 1.57242 -8.94963
444 1 7.85911 11.0068 7.8589 -8.90599
16 1 1.57242 4.71726 1.57242 -8.94963
443 1 4.71687 11.0069 7.86192 -8.94918
18 1 4.71726 4.71726 1.57242 -8.94963
442 1 1.5724 11.007 7.8621 -8.94968
20 1 7.86211 4.71726 1.57242 -8.94964
105 1 9.43453 -4.91386e-07 6.28969 -8.94963
22 1 11.007 4.71726 1.57242 -8.94964
107 1 12.5794 -4.90229e-07 6.28969 -8.94964
24 1 14.1518 4.71727 1.57242 -8.94966
517 1 17.2969 11.0069 11.0069 -8.95035
26 1 17.2966 4.71726 1.57242 -8.94962
397 1 14.1519 11.0069 4.71707 -8.95114
28 1 20.4415 4.71726 1.57242 -8.94963
396 1 11.0072 11.0069 4.71106 -8.97548
30 1 1.57242 7.86211 1.57242 -8.94963
395 1 7.86219 11.0069 4.71714 -8.95122
32 1 4.71726 7.86211 1.57242 -8.94964
188 1 17.2966 4.71727 11.007 -8.94965
34 1 7.8621 7.8621 1.5724 -8.94967
35 1 9.43453 6.28969 3.90785e-07 -8.94963
36 1 11.0069 7.86211 1.57242 -8.94964
37 1 12.5794 6.28969 1.08058e-06 -8.94964
38 1 14.1518 7.86209 1.57239 -8.94963
183 1 1.57242 4.71726 11.007 -8.94963
40 1 17.2966 7.86211 1.57242 -8.94965
350 1 20.4415 11.007 1.57242 -8.94963
42 1 20.4415 7.86211 1.57242 -8.94963
345 1 4.71726 11.007 1.57242 -8.94962
44 1 3.14484 9.43453 7.58593e-08 -8.94963
349 1 17.2966 11.007 1.57242 -8.94964
348 1 14.1518 11.007 1.57241 -8.94961
347 1 11.0069 11.0069 1.57209 -8.95124
346 1 7.86211 11.007 1.57242 -8.94967
344 1 1.57242 11.007 1.57242 -8.94963
181 1 17.2966 1.57242 11.007 -8.94963
51 1 1.57242 1.57242 4.71726 -8.94963
175 1 18.8691 9.43452 9.43453 -8.94966
53 1 4.71726 1.57242 4.71726 -8.94963
54 1 6.28969 -7.5397e-09 3.14484 -8.94963
55 1 7.86211 1.57242 4.71727 -8.94964
174 1 15.7246 9.43433 9.43451 -8.9491
57 1 11.007 1.57242 4.71726 -8.94964
173 1 12.5828 9.4319 9.43414 -8.94854
59 1 14.1518 1.57242 4.71726 -8.94963
60 1 15.7242 -7.02017e-09 3.14484 -8.94963
61 1 17.2966 1.57242 4.71726 -8.94963
172 1 9.36976 9.29276 9.43621 -8.07485
63 1 20.4415 1.57242 4.71726 -8.94963
64 1 22.0139 3.14484 3.14484 -8.94963
65 1 1.57242 4.71726 4.71726 -8.94963
66 1 3.14484 3.14484 3.14484 -8.94962
67 1 4.71724 4.71724 4.71724 -8.94941
68 1 6.28969 3.14484 3.14484 -8.94966
69 1 7.86212 4.71728 4.71728 -8.94988
70 1 9.43453 3.14484 3.14484 -8.94964
71 1 11.0069 4.71726 4.71726 -8.94963
72 1 12.5794 3.14484 3.14484 -8.94964
73 1 14.1518 4.71723 4.71725 -8.94965
74 1 15.7242 3.14484 3.14484 -8.94963
75 1 17.2966 4.71727 4.71726 -8.94965
76 1 18.8691 3.14484 3.14484 -8.94963
77 1 20.4415 4.71726 4.71726 -8.94963
78 1 22.0139 6.28969 3.14484 -8.94963
79 1 1.57242 7.86211 4.71726 -8.94963
80 1 3.14484 6.28969 3.14484 -8.94965
81 1 4.71726 7.8621 4.71726 -8.94976
82 1 6.28967 6.28967 3.14481 -8.94965
83 1 7.86194 7.86195 4.7168 -8.95069
84 1 9.43453 6.28968 3.14484 -8.94963
85 1 11.0068 7.86211 4.71713 -8.95133
86 1 12.5794 6.2897 3.14486 -8.94988
87 1 14.1523 7.8616 4.71677 -8.94584
88 1 15.7242 6.28966 3.14482 -8.94941
89 1 17.2967 7.86209 4.71725 -8.94966
90 1 18.8691 6.28969 3.14484 -8.94963
91 1 20.4415 7.86211 4.71726 -8.94964
92 1 7.59934e-08 9.43453 3.14484 -8.94963
93 1 3.14484 9.43453 3.14484 -8.94965
94 1 6.28968 9.43453 3.14483 -8.94973
95 1 9.43435 9.43435 3.14458 -8.94891
96 1 12.5796 9.43433 3.14434 -8.95054
97 1 15.7242 9.43453 3.14485 -8.94983
98 1 18.8691 9.43453 3.14484 -8.94963
99 1 22.0139 1.28364e-09 6.28969 -8.94963
100 1 1.57242 1.57242 7.86211 -8.94963
101 1 3.14484 6.88454e-09 6.28969 -8.94963
102 1 4.71727 1.57242 7.86211 -8.94963
171 1 6.2854 9.43389 9.43452 -8.96351
104 1 7.8621 1.5724 7.8621 -8.94972
170 1 3.14464 9.43453 9.43453 -8.95065
106 1 11.007 1.57241 7.8621 -8.94965
169 1 22.0139 9.43453 9.43453 -8.94968
108 1 14.1518 1.57242 7.86211 -8.94964
168 1 18.8691 6.28969 9.43453 -8.94963
110 1 17.2966 1.57242 7.86211 -8.94963
111 1 18.8691 6.6928e-09 6.28969 -8.94963
112 1 20.4415 1.57242 7.86211 -8.94963
113 1 7.14488e-08 3.14484 6.28969 -8.94963
114 1 1.57242 4.71726 7.86211 -8.94963
115 1 3.14484 3.14484 6.28969 -8.94965
116 1 4.71727 4.71728 7.86211 -8.94983
117 1 6.28967 3.14481 6.28967 -8.94963
118 1 7.8619 4.71675 7.8619 -8.95051
119 1 9.43453 3.14484 6.28969 -8.94964
120 1 11.0071 4.71701 7.86193 -8.94892
121 1 12.5794 3.14482 6.28967 -8.94967
122 1 14.1518 4.71725 7.86211 -8.94971
123 1 15.7242 3.14484 6.28969 -8.94964
124 1 17.2966 4.71727 7.86211 -8.94965
125 1 18.8691 3.14484 6.28969 -8.94963
126 1 20.4415 4.71726 7.86211 -8.94963
127 1 22.0139 6.28969 6.28969 -8.94964
128 1 1.5724 7.8621 7.8621 -8.94972
129 1 3.14482 6.28967 6.28967 -8.94967
130 1 4.71682 7.86199 7.86198 -8.95097
131 1 6.28919 6.28919 6.28918 -8.94584
132 1 7.85415 7.85454 7.85429 -8.89621
133 1 9.43464 6.28956 6.28969 -8.95139
134 1 11.0096 7.8606 7.85928 -8.9336
135 1 12.5795 6.28922 6.28952 -8.95071
136 1 14.1522 7.86185 7.86204 -8.94905
137 1 15.7242 6.28968 6.28968 -8.94977
138 1 17.2967 7.8621 7.8621 -8.94963
139 1 18.8691 6.28969 6.28969 -8.94963
140 1 20.4415 7.86211 7.86211 -8.94964
141 1 22.0139 9.43453 6.28969 -8.94964
142 1 3.14482 9.43452 6.28967 -8.94964
143 1 6.28931 9.43445 6.28942 -8.94894
144 1 9.43201 9.43165 6.28812 -8.93349
145 1 12.5873 9.42671 6.28211 -8.89559
146 1 15.7247 9.43438 6.28955 -8.95087
147 1 18.8691 9.43453 6.28968 -8.94972
167 1 15.7242 6.28968 9.43453 -8.94959
166 1 12.5793 6.28955 9.43447 -8.95068
150 1 6.28969 -2.1577e-07 9.43453 -8.94964
165 1 9.43426 6.28343 9.43447 -8.97515
164 1 6.28954 6.28952 9.43453 -8.95113
153 1 15.7242 -2.26307e-07 9.43453 -8.94963
163 1 3.14483 6.28968 9.43453 -8.9496
155 1 22.0139 3.14484 9.43453 -8.94963
156 1 3.14484 3.14484 9.43453 -8.94964
157 1 6.28968 3.14483 9.43453 -8.94961
158 1 9.43453 3.14451 9.43453 -8.95124
159 1 12.5794 3.14484 9.43453 -8.94966
160 1 15.7242 3.14484 9.43453 -8.94962
161 1 18.8691 3.14484 9.43453 -8.94963
162 1 -3.44767e-07 6.28969 9.43453 -8.94963
177 1 4.71726 1.57242 11.007 -8.94963
184 1 4.71727 4.71728 11.0069 -8.94983
48 1 15.7242 9.43453 5.11598e-07 -8.94963
189 1 20.4415 4.71726 11.007 -8.94963
3 1 3.14484 1.94315e-10 5.11689e-09 -8.94963
19 1 6.28969 3.14484 8.3351e-08 -8.94963
25 1 15.7242 3.14484 5.85303e-08 -8.94963
29 1 22.0139 6.28969 3.52882e-09 -8.94963
176 1 1.57242 1.57242 11.007 -8.94963
644 1 20.4415 11.007 20.4415 -8.94963
178 1 7.8621 1.5724 11.007 -8.94972
179 1 11.007 1.57241 11.007 -8.9497
180 1 14.1518 1.57242 11.0069 -8.94964
643 1 17.2966 11.007 20.4415 -8.94963
182 1 20.4415 1.57242 11.007 -8.94963
639 1 4.71726 11.007 20.4415 -8.94963
638 1 1.57242 11.007 20.4415 -8.94963
185 1 7.86191 4.71676 11.0072 -8.95057
186 1 11.0071 4.7169 11.0071 -8.94966
187 1 14.1518 4.71725 11.0069 -8.94976
295 1 22.0139 8.4375e-10 18.8691 -8.94963
39 1 15.7242 6.28968 22.0139 -8.94963
190 1 1.5724 7.8621 11.007 -8.94973
191 1 4.71682 7.86198 11.0071 -8.95101
192 1 7.8541 7.85449 11.0149 -8.89527
193 1 11.0096 7.85778 11.0099 -8.94335
194 1 14.1522 7.86185 11.007 -8.94996
195 1 17.2967 7.86209 11.007 -8.94966
196 1 20.4415 7.86211 11.007 -8.94964
197 1 22.0139 -1.50886e-09 12.5794 -8.94963
198 1 1.57242 1.57242 14.1518 -8.94963
343 1 18.8691 9.43453 18.8691 -8.94963
200 1 4.71726 1.57242 14.1518 -8.94963
201 1 6.28969 -3.4279e-07 12.5794 -8.94964
202 1 7.86211 1.57242 14.1518 -8.94963
203 1 9.43453 3.18186e-06 12.5794 -8.94963
204 1 11.007 1.57242 14.1518 -8.94964
205 1 12.5794 3.17798e-06 12.5794 -8.94964
206 1 14.1518 1.57242 14.1518 -8.94963
207 1 15.7242 -3.3509e-07 12.5794 -8.94964
208 1 17.2966 1.57242 14.1518 -8.94963
342 1 15.7242 9.43453 18.8691 -8.94967
210 1 20.4415 1.57242 14.1518 -8.94963
211 1 7.13463e-08 3.14484 12.5794 -8.94963
212 1 1.57242 4.71726 14.1518 -8.94963
213 1 3.14484 3.14484 12.5794 -8.94965
214 1 4.71724 4.71724 14.1518 -8.94941
215 1 6.28967 3.14481 12.5794 -8.94963
216 1 7.86211 4.71727 14.1518 -8.94987
217 1 9.43453 3.14483 12.5794 -8.94964
218 1 11.0069 4.71725 14.1518 -8.94972
219 1 12.5794 3.14481 12.5794 -8.94967
220 1 14.1518 4.71723 14.1518 -8.94964
221 1 15.7242 3.14484 12.5794 -8.94964
222 1 17.2966 4.71727 14.1518 -8.94965
223 1 18.8691 3.14484 12.5794 -8.94963
224 1 20.4415 4.71726 14.1518 -8.94963
225 1 22.0139 6.28969 12.5794 -8.94964
226 1 1.57242 7.86211 14.1518 -8.94963
227 1 3.14482 6.28967 12.5794 -8.94966
228 1 4.71726 7.8621 14.1518 -8.94982
229 1 6.28919 6.28919 12.5799 -8.94581
230 1 7.8619 7.86188 14.1523 -8.95061
231 1 9.43457 6.28948 12.5794 -8.951
232 1 11.0068 7.86183 14.152 -8.95254
233 1 12.5796 6.28912 12.5796 -8.95036
234 1 14.1523 7.86151 14.1523 -8.94543
235 1 15.7242 6.28969 12.5794 -8.94979
236 1 17.2967 7.86209 14.1518 -8.94972
237 1 18.8691 6.28969 12.5794 -8.94963
238 1 20.4415 7.86211 14.1518 -8.94964
239 1 22.0139 9.43453 12.5794 -8.94964
240 1 3.14482 9.43453 12.5794 -8.94964
241 1 6.28936 9.43452 12.5796 -8.94978
242 1 9.43134 9.43124 12.5821 -8.98527
243 1 12.5885 9.42579 12.5886 -8.9393
244 1 15.7246 9.43446 12.5795 -8.95173
245 1 18.8691 9.43453 12.5794 -8.94973
47 1 12.5794 9.43452 22.0139 -8.94973
247 1 1.57242 1.57242 17.2966 -8.94963
248 1 3.14484 8.69479e-09 15.7242 -8.94963
249 1 4.71726 1.57242 17.2966 -8.94963
341 1 12.5794 9.43451 18.8691 -8.94976
251 1 7.86211 1.57242 17.2966 -8.94963
252 1 9.43453 4.45148e-07 15.7242 -8.94964
253 1 11.007 1.57242 17.2966 -8.94963
254 1 12.5794 4.47619e-07 15.7242 -8.94964
255 1 14.1518 1.57242 17.2966 -8.94963
340 1 9.43451 9.43451 18.8691 -8.94968
257 1 17.2966 1.57242 17.2966 -8.94963
258 1 18.8691 9.20764e-09 15.7242 -8.94963
259 1 20.4415 1.57242 17.2966 -8.94963
260 1 22.0139 3.14484 15.7242 -8.94963
261 1 1.57242 4.71726 17.2966 -8.94963
262 1 3.14484 3.14484 15.7242 -8.94962
263 1 4.71726 4.71726 17.2966 -8.94963
264 1 6.28969 3.14484 15.7242 -8.94966
265 1 7.86211 4.71726 17.2966 -8.94964
266 1 9.43453 3.14484 15.7242 -8.94964
267 1 11.007 4.71726 17.2966 -8.94963
268 1 12.5794 3.14484 15.7242 -8.94964
269 1 14.1518 4.71726 17.2966 -8.94966
270 1 15.7242 3.14484 15.7242 -8.94963
271 1 17.2966 4.71726 17.2966 -8.94962
272 1 18.8691 3.14484 15.7242 -8.94963
273 1 20.4415 4.71726 17.2966 -8.94963
274 1 22.0139 6.28969 15.7242 -8.94963
275 1 1.57242 7.86211 17.2966 -8.94963
276 1 3.14484 6.28969 15.7242 -8.94965
277 1 4.71726 7.86211 17.2966 -8.94964
278 1 6.28967 6.28967 15.7242 -8.94963
279 1 7.86208 7.86208 17.2967 -8.94955
280 1 9.43453 6.28966 15.7242 -8.94967
281 1 11.0069 7.86211 17.2966 -8.94969
282 1 12.5794 6.28968 15.7242 -8.94994
283 1 14.1518 7.86208 17.2967 -8.94952
284 1 15.7242 6.28966 15.7242 -8.94938
285 1 17.2966 7.86211 17.2966 -8.94966
286 1 18.8691 6.28969 15.7242 -8.94963
287 1 20.4415 7.86211 17.2966 -8.94963
288 1 7.56871e-08 9.43453 15.7242 -8.94963
289 1 3.14484 9.43453 15.7242 -8.94963
290 1 6.28966 9.43453 15.7242 -8.94959
291 1 9.43413 9.43407 15.7248 -8.94769
292 1 12.5798 9.43405 15.7251 -8.94944
293 1 15.7242 9.43453 15.7242 -8.94972
294 1 18.8691 9.43453 15.7242 -8.94961
339 1 6.28969 9.43453 18.8691 -8.94967
296 1 1.57242 1.57242 20.4415 -8.94963
338 1 3.14484 9.43453 18.8691 -8.94963
298 1 4.71726 1.57242 20.4415 -8.94963
299 1 6.28969 5.17679e-08 18.8691 -8.94963
300 1 7.86211 1.57242 20.4415 -8.94963
337 1 22.0139 9.43453 18.8691 -8.94963
302 1 11.007 1.57242 20.4415 -8.94963
336 1 20.4415 7.86211 20.4415 -8.94963
304 1 14.1518 1.57242 20.4415 -8.94963
305 1 15.7242 5.21399e-08 18.8691 -8.94963
306 1 17.2966 1.57242 20.4415 -8.94963
335 1 18.8691 6.28969 18.8691 -8.94963
308 1 20.4415 1.57242 20.4415 -8.94963
309 1 22.0139 3.14484 18.8691 -8.94963
310 1 1.57242 4.71726 20.4415 -8.94963
311 1 3.14484 3.14484 18.8691 -8.94963
312 1 4.71726 4.71726 20.4415 -8.94963
313 1 6.28969 3.14484 18.8691 -8.94963
314 1 7.86211 4.71726 20.4415 -8.94963
315 1 9.43453 3.14484 18.8691 -8.94963
316 1 11.007 4.71726 20.4415 -8.94963
317 1 12.5794 3.14484 18.8691 -8.94963
318 1 14.1518 4.71726 20.4415 -8.94963
319 1 15.7242 3.14484 18.8691 -8.94963
320 1 17.2966 4.71726 20.4415 -8.94963
321 1 18.8691 3.14484 18.8691 -8.94963
322 1 20.4415 4.71726 20.4415 -8.94963
323 1 22.0139 6.28969 18.8691 -8.94963
324 1 1.57242 7.86211 20.4415 -8.94963
325 1 3.14484 6.28969 18.8691 -8.94963
326 1 4.71726 7.86211 20.4415 -8.94964
327 1 6.28968 6.28968 18.8691 -8.94962
328 1 7.86211 7.86211 20.4415 -8.94963
329 1 9.43453 6.28969 18.8691 -8.94965
330 1 11.007 7.86211 20.4415 -8.94963
331 1 12.5794 6.28969 18.8691 -8.94965
332 1 14.1518 7.86211 20.4415 -8.94964
333 1 15.7242 6.28968 18.8691 -8.94962
334 1 17.2966 7.86211 20.4415 -8.94964
512 1 1.5724 11.0069 11.007 -8.94968
513 1 4.71683 11.0069 11.0071 -8.94873
515 1 11.0763 10.9678 11.1366 -8.359
594 1 17.2966 11.007 17.2966 -8.94969
590 1 4.71727 11.007 17.2966 -8.94967
540 1 1.57242 11.0069 14.1518 -8.94962
541 1 4.71724 11.0069 14.1518 -8.94917
543 1 11.0072 11.0036 14.1639 -9.01406
545 1 17.2967 11.0069 14.1518 -8.94919
546 1 20.4415 11.0069 14.1518 -8.94963
46 1 9.43452 9.43452 22.0139 -8.94965
33 1 6.28969 6.28969 22.0139 -8.94963
45 1 6.28969 9.43453 22.0139 -8.94964
41 1 18.8691 6.28969 22.0139 -8.94963
15 1 22.0139 3.14484 22.0139 -8.94963
17 1 3.14484 3.14484 22.0139 -8.94963
31 1 3.14484 6.28969 22.0139 -8.94963
27 1 18.8691 3.14484 22.0139 -8.94963
21 1 9.43453 3.14484 22.0139 -8.94963
23 1 12.5794 3.14484 22.0139 -8.94963
43 1 22.0139 9.43453 22.0139 -8.94963
49 1 18.8691 9.43453 22.0139 -8.94963
688 3 10.2177 11.0099 9.43204 3.01368
511 1 18.8691 18.8691 9.43453 -8.94963
510 1 15.7242 18.8691 9.43453 -8.94967
509 1 12.5794 18.8691 9.43448 -8.94928
508 1 9.43448 18.8694 9.43448 -8.95082
507 1 6.28968 18.8691 9.43453 -8.94965
506 1 3.14484 18.8691 9.43453 -8.94965
50 1 4.14689e-09 22.0139 3.14484 -8.94963
352 1 1.57242 14.1518 1.57242 -8.94963
154 1 18.8691 22.0139 9.43453 -8.94963
354 1 4.71726 14.1518 1.57242 -8.94964
152 1 12.5794 22.0139 9.43453 -8.94963
356 1 7.8621 14.1518 1.57239 -8.94967
151 1 9.43453 22.0139 9.43453 -8.94979
358 1 11.0069 14.1518 1.57242 -8.94962
149 1 3.14484 22.0139 9.43453 -8.94963
360 1 14.1518 14.1518 1.57239 -8.94963
361 1 15.7242 12.5794 8.20262e-07 -8.94963
362 1 17.2966 14.1518 1.57242 -8.94965
148 1 -7.75344e-10 22.0139 9.43453 -8.94963
364 1 20.4415 14.1518 1.57242 -8.94963
109 1 15.7242 22.0139 6.28969 -8.94963
366 1 1.57242 17.2966 1.57242 -8.94963
367 1 3.14484 15.7242 6.58236e-08 -8.94963
368 1 4.71726 17.2966 1.57242 -8.94963
393 1 1.57242 11.007 4.71726 -8.94963
370 1 7.86211 17.2966 1.57242 -8.94964
371 1 9.43453 15.7242 1.36539e-06 -8.94964
372 1 11.007 17.2966 1.57242 -8.94964
373 1 12.5794 15.7242 2.08058e-06 -8.94964
374 1 14.1518 17.2966 1.57242 -8.94966
537 1 14.1518 20.4415 11.0069 -8.94964
376 1 17.2966 17.2966 1.57242 -8.94962
377 1 18.8691 15.7242 9.28668e-08 -8.94963
378 1 20.4415 17.2966 1.57242 -8.94963
103 1 6.28968 22.0139 6.28968 -8.94964
380 1 1.57242 20.4415 1.57242 -8.94963
62 1 18.8691 22.0139 3.14484 -8.94963
382 1 4.71726 20.4415 1.57242 -8.94963
383 1 6.28969 18.8691 1.89133e-07 -8.94963
384 1 7.86211 20.4415 1.57242 -8.94963
58 1 12.5794 22.0139 3.14484 -8.94963
386 1 11.007 20.4415 1.57242 -8.94963
56 1 9.43453 22.0139 3.14484 -8.94963
388 1 14.1518 20.4415 1.57242 -8.94963
389 1 15.7242 18.8691 1.6539e-07 -8.94963
390 1 17.2966 20.4415 1.57242 -8.94963
52 1 3.14484 22.0139 3.14484 -8.94963
392 1 20.4415 20.4415 1.57242 -8.94963
505 1 22.0139 18.8691 9.43453 -8.94963
504 1 18.8691 15.7242 9.43453 -8.94962
503 1 15.7243 15.7242 9.43452 -8.94973
502 1 12.5803 15.7243 9.43406 -8.98763
501 1 9.43335 15.7302 9.43412 -9.01278
500 1 6.28948 15.7244 9.43452 -8.95127
399 1 20.4415 11.007 4.71726 -8.94963
400 1 7.75945e-08 12.5794 3.14484 -8.94963
401 1 1.57242 14.1518 4.71726 -8.94963
402 1 3.14484 12.5794 3.14484 -8.94965
403 1 4.71726 14.1518 4.71726 -8.94978
404 1 6.28968 12.5794 3.14483 -8.94973
405 1 7.86192 14.152 4.71676 -8.95074
406 1 9.43435 12.5796 3.14457 -8.94902
407 1 11.0068 14.1518 4.71717 -8.95106
408 1 12.5796 12.5796 3.14432 -8.95065
409 1 14.1523 14.1523 4.71674 -8.9458
410 1 15.7242 12.5794 3.14485 -8.94983
411 1 17.2967 14.1518 4.71725 -8.94968
412 1 18.8691 12.5794 3.14484 -8.94963
413 1 20.4415 14.1518 4.71726 -8.94964
414 1 22.0139 15.7242 3.14484 -8.94963
415 1 1.57242 17.2966 4.71726 -8.94963
416 1 3.14484 15.7242 3.14484 -8.94965
417 1 4.71724 17.2967 4.71724 -8.94939
418 1 6.28967 15.7242 3.14481 -8.94964
419 1 7.86212 17.2966 4.71728 -8.94992
420 1 9.43454 15.7242 3.14485 -8.94963
421 1 11.0069 17.2966 4.71726 -8.94958
422 1 12.5794 15.7242 3.14486 -8.94988
423 1 14.1518 17.2967 4.71726 -8.94968
424 1 15.7242 15.7242 3.14482 -8.9494
425 1 17.2966 17.2966 4.71726 -8.94964
426 1 18.8691 15.7242 3.14484 -8.94963
427 1 20.4415 17.2966 4.71726 -8.94963
428 1 22.0139 18.8691 3.14484 -8.94963
429 1 1.57242 20.4415 4.71726 -8.94963
430 1 3.14484 18.8691 3.14484 -8.94962
431 1 4.71726 20.4415 4.71726 -8.94963
432 1 6.28969 18.8691 3.14484 -8.94966
433 1 7.86211 20.4415 4.71727 -8.94964
434 1 9.43453 18.8691 3.14484 -8.94963
435 1 11.007 20.4415 4.71726 -8.94963
436 1 12.5794 18.8691 3.14484 -8.94963
437 1 14.1518 20.4415 4.71726 -8.94963
438 1 15.7242 18.8691 3.14484 -8.94963
439 1 17.2966 20.4415 4.71726 -8.94963
440 1 18.8691 18.8691 3.14484 -8.94963
441 1 20.4415 20.4415 4.71726 -8.94963
499 1 3.14483 15.7242 9.43453 -8.94959
498 1 -3.68668e-07 15.7242 9.43453 -8.94963
497 1 18.8691 12.5794 9.43453 -8.94974
445 1 11.0733 11.0084 7.72032 -8.07071
496 1 15.7248 12.5796 9.4345 -8.95009
495 1 12.5853 12.5822 9.42993 -8.94073
494 1 9.36474 12.7242 9.42905 -8.06077
449 1 22.0139 12.5794 6.28969 -8.94964
450 1 1.5724 14.1518 7.8621 -8.94973
451 1 3.14482 12.5794 6.28967 -8.94963
452 1 4.7168 14.1519 7.86197 -8.95109
453 1 6.28932 12.5794 6.28943 -8.94915
454 1 7.85359 14.1598 7.8537 -8.89062
455 1 9.43191 12.5823 6.28773 -8.93491
456 1 11.0096 14.1527 7.85997 -8.98273
457 1 12.5875 12.5873 6.28174 -8.89578
458 1 14.1524 14.1523 7.86176 -8.94807
459 1 15.7247 12.5795 6.28957 -8.95101
460 1 17.2967 14.1518 7.8621 -8.94969
461 1 18.8691 12.5794 6.28968 -8.94972
462 1 20.4415 14.1518 7.86211 -8.94964
463 1 22.0139 15.7242 6.28969 -8.94964
464 1 1.57242 17.2966 7.86211 -8.94963
465 1 3.14481 15.7242 6.28967 -8.94967
466 1 4.71727 17.2966 7.86211 -8.94983
467 1 6.28917 15.7247 6.28915 -8.94556
468 1 7.8619 17.2972 7.8619 -8.95046
469 1 9.4347 15.7243 6.28973 -8.95182
470 1 11.0071 17.2967 7.86207 -8.94972
471 1 12.5795 15.7246 6.28957 -8.95107
472 1 14.1518 17.2967 7.86211 -8.94956
473 1 15.7242 15.7242 6.28966 -8.94966
474 1 17.2966 17.2966 7.86211 -8.94965
475 1 18.8691 15.7242 6.28969 -8.94963
476 1 20.4415 17.2966 7.86211 -8.94963
477 1 7.0905e-08 18.8691 6.28969 -8.94963
478 1 1.57242 20.4415 7.86211 -8.94963
479 1 3.14484 18.8691 6.28969 -8.94965
480 1 4.71726 20.4415 7.86211 -8.94963
481 1 6.28967 18.8691 6.28967 -8.94963
482 1 7.8621 20.4415 7.8621 -8.9497
483 1 9.43454 18.8691 6.28969 -8.94969
484 1 11.007 20.4415 7.86211 -8.94963
485 1 12.5794 18.8691 6.28968 -8.94972
486 1 14.1518 20.4415 7.86211 -8.94962
487 1 15.7242 18.8691 6.28969 -8.94964
488 1 17.2966 20.4415 7.86211 -8.94963
489 1 18.8691 18.8691 6.28969 -8.94963
490 1 20.4415 20.4415 7.86211 -8.94963
491 1 22.0139 12.5794 9.43453 -8.94969
492 1 3.14464 12.5794 9.43453 -8.95075
493 1 6.28517 12.58 9.4345 -8.96458
516 1 14.1564 11.0068 11.0069 -9.01843
522 1 11.0095 14.1866 10.9934 -9.21271
523 1 14.1521 14.1522 11.0064 -9.00329
524 1 17.2967 14.1519 11.0069 -8.94921
525 1 20.4415 14.1518 11.0069 -8.94964
526 1 1.57242 17.2966 11.007 -8.94963
527 1 4.71727 17.2966 11.0069 -8.94983
530 1 14.1517 17.2966 11.007 -8.95032
531 1 17.2966 17.2966 11.007 -8.94965
394 1 4.71727 11.007 4.71726 -8.94957
398 1 17.2966 11.007 4.71726 -8.94961
355 1 6.28969 12.5794 -5.94295e-08 -8.94964
379 1 22.0139 18.8691 4.51122e-10 -8.94963
687 2 11.0053 12.5824 11.7903 1.02859
686 1 20.4415 20.4415 20.4415 -8.94963
514 1 7.85928 11.0068 11.0093 -8.9602
685 1 18.8691 18.8691 18.8691 -8.94963
307 1 18.8691 22.0139 18.8691 -8.94963
684 1 17.2966 20.4415 20.4415 -8.94963
683 1 15.7242 18.8691 18.8691 -8.94963
519 1 1.5724 14.1518 11.007 -8.94972
520 1 4.71677 14.152 11.007 -8.95057
521 1 7.85406 14.1596 11.0143 -8.94859
303 1 12.5794 22.0139 18.8691 -8.94963
301 1 9.43453 22.0139 18.8691 -8.94963
297 1 3.14484 22.0139 18.8691 -8.94963
391 1 18.8691 18.8691 22.0139 -8.94963
256 1 15.7242 22.0139 15.7242 -8.94963
250 1 6.28969 22.0139 15.7242 -8.94963
528 1 7.86197 17.2971 11.0072 -8.95116
529 1 11.0071 17.2991 11.0072 -8.95771
209 1 18.8691 22.0139 12.5794 -8.94963
199 1 3.14484 22.0139 12.5794 -8.94963
671 1 18.8691 15.7242 18.8691 -8.94964
533 1 1.57242 20.4415 11.007 -8.94963
534 1 4.71726 20.4415 11.007 -8.94963
670 1 17.2966 17.2966 20.4415 -8.94963
669 1 15.7242 15.7242 18.8691 -8.94966
668 1 14.1518 17.2966 20.4415 -8.94963
667 1 12.5794 15.7242 18.8691 -8.94967
539 1 20.4415 20.4415 11.007 -8.94963
682 1 14.1518 20.4415 20.4415 -8.94963
681 1 12.5794 18.8691 18.8691 -8.94964
542 1 7.86228 11.006 14.1523 -8.98742
680 1 11.007 20.4415 20.4415 -8.94963
544 1 14.1518 11.006 14.1524 -8.98718
679 1 9.43453 18.8691 18.8691 -8.94964
678 1 7.86211 20.4415 20.4415 -8.94963
547 1 22.0139 12.5794 12.5794 -8.94969
548 1 1.57242 14.1518 14.1518 -8.94963
549 1 3.14473 12.5794 12.5794 -8.95024
550 1 4.71723 14.1519 14.1518 -8.94938
551 1 6.28717 12.5794 12.5796 -8.95758
552 1 7.86201 14.1529 14.1527 -8.98708
553 1 9.3996 12.5819 12.5971 -9.21791
554 1 11.0069 14.1549 14.1563 -8.986
555 1 12.6186 12.586 12.602 -9.18392
556 1 14.1522 14.1533 14.1527 -8.98193
557 1 15.7268 12.5795 12.5795 -8.95883
558 1 17.2967 14.1519 14.1519 -8.94926
559 1 18.8692 12.5794 12.5794 -8.95033
560 1 20.4415 14.1518 14.1518 -8.94963
561 1 22.0139 15.7242 12.5794 -8.94963
562 1 1.57242 17.2966 14.1518 -8.94963
563 1 3.14482 15.7242 12.5794 -8.94967
564 1 4.71724 17.2967 14.1518 -8.94945
565 1 6.28924 15.7247 12.5799 -8.94637
566 1 7.86211 17.2967 14.1518 -8.95002
567 1 9.43445 15.7243 12.58 -9.00543
568 1 11.0069 17.2968 14.1518 -8.95069
569 1 12.5797 15.7246 12.5802 -9.00432
570 1 14.1518 17.2967 14.1518 -8.94978
571 1 15.7242 15.7242 12.5794 -8.95035
572 1 17.2966 17.2966 14.1518 -8.94969
573 1 18.8691 15.7242 12.5794 -8.94964
574 1 20.4415 17.2966 14.1518 -8.94963
575 1 7.10837e-08 18.8691 12.5794 -8.94963
576 1 1.57242 20.4415 14.1518 -8.94963
577 1 3.14484 18.8691 12.5794 -8.94965
578 1 4.71726 20.4415 14.1518 -8.94963
579 1 6.28967 18.8691 12.5794 -8.94964
580 1 7.86211 20.4415 14.1518 -8.94962
581 1 9.43448 18.8691 12.5794 -8.94921
582 1 11.007 20.4415 14.1518 -8.9497
583 1 12.5794 18.8691 12.5794 -8.94924
584 1 14.1518 20.4415 14.1518 -8.94962
585 1 15.7242 18.8691 12.5794 -8.94965
586 1 17.2966 20.4415 14.1518 -8.94963
587 1 18.8691 18.8691 12.5794 -8.94963
588 1 20.4415 20.4415 14.1518 -8.94963
677 1 6.28969 18.8691 18.8691 -8.94963
676 1 4.71726 20.4415 20.4415 -8.94963
591 1 7.86217 11.007 17.2966 -8.95009
592 1 11.0069 11.007 17.2973 -8.95285
593 1 14.1517 11.007 17.2966 -8.95003
675 1 3.14484 18.8691 18.8691 -8.94963
674 1 1.57242 20.4415 20.4415 -8.94963
596 1 7.99122e-08 12.5794 15.7242 -8.94963
597 1 1.57242 14.1518 17.2966 -8.94963
598 1 3.14485 12.5794 15.7242 -8.94963
599 1 4.71727 14.1518 17.2966 -8.94968
600 1 6.28984 12.5794 15.7241 -8.95048
601 1 7.86216 14.1517 17.2966 -8.95007
602 1 9.43518 12.5796 15.7236 -8.99797
603 1 11.0069 14.1518 17.2969 -8.95092
604 1 12.5787 12.5796 15.7238 -8.99906
605 1 14.1517 14.1518 17.2966 -8.95003
606 1 15.7241 12.5794 15.7241 -8.95058
607 1 17.2966 14.1518 17.2966 -8.9497
608 1 18.869 12.5794 15.7242 -8.94961
609 1 20.4415 14.1518 17.2966 -8.94963
610 1 22.0139 15.7242 15.7242 -8.94963
611 1 1.57242 17.2966 17.2966 -8.94963
612 1 3.14484 15.7242 15.7242 -8.94963
613 1 4.71726 17.2966 17.2966 -8.94963
614 1 6.28966 15.7242 15.7243 -8.94948
615 1 7.86209 17.2966 17.2967 -8.94953
616 1 9.43434 15.7245 15.7245 -8.94861
617 1 11.007 17.2966 17.2966 -8.94965
618 1 12.5796 15.7245 15.7245 -8.94884
619 1 14.1518 17.2966 17.2966 -8.94955
620 1 15.7243 15.7242 15.7242 -8.94926
621 1 17.2966 17.2966 17.2966 -8.94962
622 1 18.8691 15.7242 15.7242 -8.94961
623 1 20.4415 17.2966 17.2966 -8.94963
624 1 22.0139 18.8691 15.7242 -8.94963
625 1 1.57242 20.4415 17.2966 -8.94963
626 1 3.14484 18.8691 15.7242 -8.94962
627 1 4.71726 20.4415 17.2966 -8.94963
628 1 6.28969 18.8691 15.7242 -8.94965
629 1 7.86211 20.4415 17.2966 -8.94963
630 1 9.43452 18.8691 15.7242 -8.94969
631 1 11.007 20.4415 17.2966 -8.94963
632 1 12.5794 18.8691 15.7242 -8.94969
633 1 14.1518 20.4415 17.2966 -8.94963
634 1 15.7242 18.8691 15.7242 -8.94963
635 1 17.2966 20.4415 17.2966 -8.94963
636 1 18.8691 18.8691 15.7242 -8.94963
637 1 20.4415 20.4415 17.2966 -8.94963
387 1 12.5794 18.8691 22.0139 -8.94963
673 1 22.0139 18.8691 18.8691 -8.94963
640 1 7.86211 11.007 20.4415 -8.94963
641 1 11.007 11.007 20.4415 -8.9499
642 1 14.1518 11.007 20.4415 -8.94963
672 1 20.4415 17.2966 20.4415 -8.94963
385 1 9.43453 18.8691 22.0139 -8.94963
645 1 22.0139 12.5794 18.8691 -8.94963
646 1 1.57242 14.1518 20.4415 -8.94963
647 1 3.14484 12.5794 18.8691 -8.94963
648 1 4.71726 14.1518 20.4415 -8.94963
649 1 6.28968 12.5794 18.8691 -8.9496
650 1 7.86211 14.1518 20.4415 -8.94963
651 1 9.43451 12.5794 18.869 -8.94931
652 1 11.007 14.1518 20.4415 -8.94972
653 1 12.5794 12.5794 18.869 -8.94937
654 1 14.1518 14.1518 20.4415 -8.94963
655 1 15.7242 12.5794 18.8691 -8.9496
656 1 17.2966 14.1518 20.4415 -8.94963
657 1 18.8691 12.5794 18.8691 -8.94963
658 1 20.4415 14.1518 20.4415 -8.94963
659 1 22.0139 15.7242 18.8691 -8.94963
660 1 1.57242 17.2966 20.4415 -8.94963
661 1 3.14484 15.7242 18.8691 -8.94963
662 1 4.71726 17.2966 20.4415 -8.94963
663 1 6.28969 15.7242 18.8691 -8.94966
664 1 7.86211 17.2966 20.4415 -8.94963
665 1 9.43452 15.7242 18.8691 -8.94967
666 1 11.007 17.2966 20.4415 -8.94963
353 1 3.14484 12.5794 22.0139 -8.94963
11 1 15.7242 22.0139 22.0139 -8.94963
357 1 9.43452 12.5794 22.0139 -8.94964
359 1 12.5794 12.5794 22.0139 -8.94971
363 1 18.8691 12.5794 22.0139 -8.94963
365 1 22.0139 15.7242 22.0139 -8.94963
369 1 6.28969 15.7242 22.0139 -8.94963
375 1 15.7242 15.7242 22.0139 -8.94963
5 1 6.28969 22.0139 22.0139 -8.94963
381 1 3.14484 18.8691 22.0139 -8.94963
595 1 20.4415 11.007 17.2966 -8.94963
246 1 4.12233e-09 22.0139 15.7242 -8.94963
589 1 1.57242 11.007 17.2966 -8.94963
351 1 22.0139 12.5794 22.0139 -8.94963
538 1 17.2966 20.4415 11.007 -8.94963
532 1 20.4415 17.2966 11.007 -8.94963
535 1 7.8621 20.4415 11.007 -8.94973
536 1 11.007 20.4416 11.007 -8.95026
1 1 22.0139 22.0139 22.0139 -8.94963
