ITEM: TIMESTEP
112
ITEM: NUMBER OF ATOMS
688
ITEM: BOX BOUNDS pp pp pp
0.0000000000000000e+00 2.2013900999999997e+01
0.0000000000000000e+00 2.2013900999999997e+01
0.0000000000000000e+00 2.2013900999999997e+01
ITEM: ATOMS id type x y z c_pot
518 1 20.4426 11.0068 11.0067 -8.94974
2 1 1.57205 1.57223 1.57206 -8.94924
448 1 20.4423 11.0069 7.86199 -8.94958
4 1 4.71699 1.57217 1.572 -8.94966
447 1 17.3002 11.0069 7.86202 -8.95183
6 1 7.86201 1.57214 1.572 -8.94951
7 1 9.4345 3.16468e-05 -0.000158579 -8.94958
8 1 11.007 1.57211 1.572 -8.94954
9 1 12.5794 2.68344e-05 -0.000145297 -8.94957
10 1 14.152 1.57209 1.57207 -8.94952
446 1 14.1632 11.0069 7.85328 -8.973
12 1 17.297 1.57203 1.57206 -8.94952
13 1 18.8693 1.35101e-05 -0.000135767 -8.94945
14 1 20.4415 1.57227 1.57228 -8.94957
444 1 7.88371 11.0079 7.87305 -8.89044
16 1 1.57216 4.71707 1.57205 -8.94982
443 1 4.71936 11.0069 7.86248 -8.9406
18 1 4.71632 4.71641 1.57113 -8.94952
442 1 1.57197 11.0068 7.86163 -8.94775
20 1 7.86174 4.71644 1.57141 -8.94919
105 1 9.4347 0.000263916 6.28907 -8.95004
22 1 11.0069 4.71629 1.57142 -8.94941
107 1 12.5796 0.00017966 6.28939 -8.95021
24 1 14.1523 4.71614 1.57136 -8.94972
517 1 17.3014 11.0061 11.0059 -8.95061
26 1 17.2979 4.71601 1.57138 -8.94829
397 1 14.1623 11.0069 4.70713 -8.94249
28 1 20.4419 4.71691 1.57209 -8.94955
396 1 11.0123 11.0074 4.72091 -9.00106
30 1 1.57226 7.86204 1.57209 -8.94944
395 1 7.86481 11.007 4.72034 -8.94576
32 1 4.71693 7.8623 1.57195 -8.94969
188 1 17.2977 4.71608 11.0068 -8.94896
34 1 7.86175 7.86189 1.57087 -8.95216
35 1 9.43417 6.28896 -0.000529462 -8.94959
36 1 11.0066 7.86113 1.57022 -8.95044
37 1 12.5794 6.2889 -0.00062575 -8.94966
38 1 14.1534 7.86053 1.56909 -8.95161
183 1 1.57101 4.71631 11.0072 -8.94933
40 1 17.298 7.86139 1.57123 -8.94927
350 1 20.442 11.0069 1.57198 -8.94954
42 1 20.4419 7.86189 1.57202 -8.94948
345 1 4.71673 11.0069 1.57176 -8.94965
44 1 3.14453 9.43449 -0.00019115 -8.94956
349 1 17.2981 11.0069 1.57117 -8.94946
348 1 14.154 11.0069 1.56878 -8.94956
347 1 11.0069 11.0069 1.57173 -8.94661
346 1 7.86195 11.0069 1.57252 -8.94822
344 1 1.57221 11.0069 1.57201 -8.94959
181 1 17.2971 1.57206 11.0069 -8.94955
51 1 1.57194 1.57217 4.71693 -8.94954
175 1 18.8705 9.43379 9.43415 -8.94799
53 1 4.71638 1.57164 4.71633 -8.94988
54 1 6.28948 0.000104591 3.14427 -8.94961
55 1 7.86198 1.5717 4.71649 -8.94961
174 1 15.7253 9.43315 9.43332 -8.94126
57 1 11.0072 1.57169 4.71652 -8.94958
173 1 12.5676 9.43494 9.42667 -8.95094
59 1 14.1523 1.57161 4.71681 -8.95054
60 1 15.7246 5.07544e-05 3.14446 -8.95001
61 1 17.297 1.57216 4.71711 -8.9496
172 1 9.36685 9.20967 9.44795 -8.1625
63 1 20.4415 1.57227 4.71714 -8.94955
64 1 22.0136 3.14452 3.1445 -8.94955
65 1 1.5712 4.71649 4.71641 -8.94965
66 1 3.14373 3.14392 3.14372 -8.94841
67 1 4.71372 4.71395 4.71375 -8.94525
68 1 6.28916 3.14385 3.1438 -8.94968
69 1 7.8611 4.71445 4.71506 -8.94926
70 1 9.43445 3.14382 3.14389 -8.94941
71 1 11.0073 4.7145 4.71512 -8.94792
72 1 12.5797 3.14371 3.14396 -8.9492
73 1 14.1544 4.71299 4.71466 -8.95013
74 1 15.7252 3.14334 3.14385 -8.94952
75 1 17.2978 4.71616 4.71677 -8.95007
76 1 18.8694 3.1444 3.14459 -8.94975
77 1 20.4416 4.71684 4.717 -8.94976
78 1 22.014 6.28947 3.14446 -8.94981
79 1 1.5719 7.86212 4.71676 -8.94978
80 1 3.14402 6.28946 3.14401 -8.95033
81 1 4.71556 7.86219 4.71601 -8.95153
82 1 6.28736 6.28758 3.14114 -8.95012
83 1 7.85722 7.85693 4.70892 -8.9538
84 1 9.43395 6.28767 3.14224 -8.94792
85 1 11.0074 7.85783 4.7097 -8.95092
86 1 12.5803 6.28736 3.14175 -8.94934
87 1 14.1642 7.85045 4.70485 -8.93097
88 1 15.7282 6.28574 3.14098 -8.94477
89 1 17.3008 7.86004 4.71509 -8.95075
90 1 18.8705 6.28876 3.14394 -8.94964
91 1 20.4424 7.86172 4.71676 -8.95015
92 1 0.00013948 9.4344 3.14433 -8.94955
93 1 3.14424 9.43447 3.14408 -8.949
94 1 6.28954 9.43526 3.14446 -8.9492
95 1 9.43516 9.43465 3.14417 -8.95084
96 1 12.5822 9.43325 3.13703 -8.95928
97 1 15.7278 9.43319 3.14122 -8.94772
98 1 18.8706 9.43416 3.14383 -8.94929
99 1 22.0137 4.40521e-05 6.28956 -8.94958
100 1 1.57187 1.57213 7.86196 -8.94954
101 1 3.14413 0.000121672 6.28931 -8.94946
102 1 4.71618 1.57151 7.86168 -8.94941
171 1 6.28236 9.42704 9.43469 -8.9697
104 1 7.86169 1.57112 7.86168 -8.95121
170 1 3.14227 9.43453 9.43415 -8.95064
106 1 11.0071 1.5719 7.86191 -8.94935
169 1 22.0135 9.43439 9.43432 -8.94954
108 1 14.1524 1.57198 7.86188 -8.94952
168 1 18.8701 6.28868 9.4344 -8.94956
110 1 17.2971 1.57209 7.86201 -8.94956
111 1 18.8693 3.32756e-05 6.28959 -8.9496
112 1 20.4415 1.57223 7.86204 -8.94958
113 1 -0.0003643 3.14444 6.28946 -8.9495
114 1 1.57107 4.71635 7.86173 -8.94935
115 1 3.1436 3.14378 6.28899 -8.94929
116 1 4.71392 4.71407 7.86078 -8.94792
117 1 6.28804 3.14177 6.28809 -8.95117
118 1 7.85907 4.70978 7.86056 -8.95772
119 1 9.43465 3.1425 6.28858 -8.95032
120 1 11.0064 4.71517 7.8618 -8.95107
121 1 12.5798 3.14273 6.28918 -8.95222
122 1 14.153 4.71538 7.86194 -8.94861
123 1 15.7249 3.14393 6.28954 -8.94947
124 1 17.2977 4.71617 7.8619 -8.94909
125 1 18.8694 3.14439 6.28955 -8.94946
126 1 20.4415 4.7167 7.86195 -8.94958
127 1 22.0133 6.28921 6.28927 -8.95007
128 1 1.57032 7.86167 7.86168 -8.95144
129 1 3.14124 6.28794 6.28786 -8.95068
130 1 4.70829 7.8587 7.8598 -8.95726
131 1 6.27857 6.27897 6.27933 -8.93259
132 1 7.82605 7.82937 7.83341 -8.86487
133 1 9.43386 6.28224 6.28553 -8.95083
134 1 11.021 7.85439 7.84074 -8.90557
135 1 12.5851 6.27976 6.28335 -8.95398
136 1 14.1575 7.85903 7.86212 -8.94936
137 1 15.727 6.28748 6.2889 -8.95057
138 1 17.2991 7.86091 7.86211 -8.94958
139 1 18.87 6.28897 6.28948 -8.94966
140 1 20.4419 7.86161 7.86192 -8.94985
141 1 22.014 9.43449 6.28929 -8.94986
142 1 3.14366 9.43509 6.28908 -8.9497
143 1 6.28751 9.43702 6.28968 -8.95271
144 1 9.42312 9.41449 6.28633 -8.90633
145 1 12.6194 9.40215 6.25308 -8.86094
146 1 15.7347 9.43176 6.28534 -8.95758
147 1 18.8717 9.43415 6.28911 -8.95165
167 1 15.7266 6.28712 9.43411 -8.9469
166 1 12.5797 6.2876 9.43273 -8.94441
150 1 6.28881 0.000280889 9.43445 -8.95021
165 1 9.42908 6.29005 9.43426 -8.99865
164 1 6.28 6.28037 9.4345 -8.94323
153 1 15.7248 6.23707e-05 9.43446 -8.94961
163 1 3.14091 6.28754 9.4344 -8.94918
155 1 22.0135 3.1444 9.43449 -8.94954
156 1 3.14349 3.1437 9.43446 -8.9495
157 1 6.28745 3.14139 9.43439 -8.94953
158 1 9.4341 3.14317 9.43413 -8.94685
159 1 12.58 3.14354 9.43406 -8.94877
160 1 15.7251 3.14376 9.43435 -8.94959
161 1 18.8694 3.14431 9.43447 -8.94957
162 1 -0.000788072 6.28903 9.43446 -8.94992
177 1 4.71615 1.57145 11.0072 -8.9494
184 1 4.71374 4.71385 11.0081 -8.94779
48 1 15.7253 9.43418 -0.000976326 -8.94943
189 1 20.4416 4.71667 11.007 -8.94956
3 1 3.14466 3.24059e-05 -0.000150621 -8.94963
19 1 6.28947 3.14447 -0.000244479 -8.94952
25 1 15.7245 3.14435 -0.000228543 -8.94967
29 1 22.014 6.28958 -0.000114065 -8.94956
176 1 1.57186 1.57212 11.007 -8.94954
644 1 20.4418 11.007 20.4416 -8.94958
178 1 7.8617 1.57087 11.007 -8.95126
179 1 11.0071 1.57144 11.0068 -8.9509
180 1 14.1524 1.5718 11.0068 -8.94936
643 1 17.2974 11.007 20.4416 -8.9495
182 1 20.4415 1.57223 11.007 -8.94958
639 1 4.71684 11.0069 20.4417 -8.94966
638 1 1.57226 11.0069 20.4416 -8.94959
185 1 7.85902 4.70881 11.0083 -8.9585
186 1 11.0067 4.71116 11.0072 -8.95684
187 1 14.153 4.71506 11.0062 -8.94879
295 1 22.0138 2.23232e-05 18.8692 -8.94937
39 1 15.7251 6.28871 22.0131 -8.95
190 1 1.57019 7.86166 11.0071 -8.95163
191 1 4.70754 7.85838 11.0092 -8.95807
192 1 7.82298 7.82524 11.0406 -8.85657
193 1 11.0239 7.83345 11.0314 -8.92563
194 1 14.1571 7.85821 11.0049 -8.95386
195 1 17.2991 7.86082 11.0063 -8.94967
196 1 20.4419 7.86162 11.0069 -8.94988
197 1 22.0137 3.93028e-05 12.5795 -8.94958
198 1 1.5719 1.57213 14.1521 -8.94955
343 1 18.8697 9.43442 18.8696 -8.94956
200 1 4.71627 1.57144 14.1527 -8.94997
201 1 6.28904 0.000198067 12.5799 -8.95057
202 1 7.8617 1.57133 14.1527 -8.94971
203 1 9.43447 0.000395059 12.58 -8.95031
204 1 11.0072 1.5712 14.1527 -8.94964
205 1 12.5799 0.000247246 12.5797 -8.95048
206 1 14.1526 1.57118 14.1524 -8.95063
207 1 15.7247 9.92622e-06 12.5794 -8.9495
208 1 17.2971 1.57205 14.1519 -8.9497
342 1 15.7254 9.43424 18.8705 -8.94979
210 1 20.4415 1.57225 14.1519 -8.94955
211 1 -0.00037423 3.14441 12.5795 -8.94949
212 1 1.57105 4.71638 14.1526 -8.94969
213 1 3.1435 3.14368 12.58 -8.94929
214 1 4.71311 4.71335 14.1556 -8.94478
215 1 6.28782 3.14128 12.5809 -8.95139
216 1 7.8602 4.71277 14.155 -8.94895
217 1 9.43434 3.14117 12.5807 -8.95062
218 1 11.0075 4.71248 14.1548 -8.94802
219 1 12.5803 3.14128 12.5801 -8.95273
220 1 14.1556 4.71122 14.1553 -8.94933
221 1 15.725 3.14372 12.5792 -8.94958
222 1 17.2981 4.71589 14.1523 -8.95032
223 1 18.8694 3.14435 12.5794 -8.94943
224 1 20.4416 4.71677 14.152 -8.94982
225 1 22.0132 6.28916 12.5797 -8.95019
226 1 1.57164 7.86198 14.1523 -8.94985
227 1 3.14078 6.2877 12.5812 -8.9509
228 1 4.7145 7.86166 14.1535 -8.95205
229 1 6.27687 6.27728 12.5909 -8.9305
230 1 7.85397 7.85286 14.1643 -8.95152
231 1 9.43238 6.27754 12.5863 -8.94901
232 1 11.0079 7.85244 14.1633 -8.95179
233 1 12.5879 6.27451 12.5882 -8.95046
234 1 14.1673 7.84669 14.167 -8.9265
235 1 15.7276 6.28698 12.5797 -8.95139
236 1 17.3017 7.85954 14.1542 -8.95132
237 1 18.8702 6.2889 12.5794 -8.9498
238 1 20.4426 7.86159 14.1523 -8.95026
239 1 22.0139 9.43439 12.5797 -8.94989
240 1 3.14289 9.43493 12.5799 -8.94965
241 1 6.28522 9.43654 12.5804 -8.954
242 1 9.41626 9.40503 12.5962 -8.95706
243 1 12.6252 9.39212 12.6239 -8.8952
244 1 15.7362 9.43097 12.5835 -8.95908
245 1 18.8722 9.434 12.5798 -8.95174
47 1 12.5796 9.43436 22.0127 -8.95158
247 1 1.57201 1.57219 17.297 -8.94925
248 1 3.14421 7.50008e-05 15.7248 -8.94956
249 1 4.71684 1.57206 17.2972 -8.94959
341 1 12.5799 9.43399 18.872 -8.95198
251 1 7.86191 1.57197 17.2973 -8.94953
252 1 9.43451 2.30255e-05 15.725 -8.94959
253 1 11.007 1.57193 17.2973 -8.94954
254 1 12.5797 -1.75001e-05 15.7249 -8.94955
255 1 14.1521 1.5719 17.2972 -8.94954
340 1 9.43403 9.43419 18.8711 -8.9501
257 1 17.2972 1.57191 17.2972 -8.9494
258 1 18.8692 7.61775e-06 15.7243 -8.94971
259 1 20.4415 1.57223 17.2968 -8.94961
260 1 22.0136 3.14447 15.7246 -8.94957
261 1 1.57207 4.71697 17.2971 -8.94986
262 1 3.14354 3.14374 15.7254 -8.94833
263 1 4.71593 4.71602 17.2984 -8.94925
264 1 6.28878 3.14335 15.7256 -8.94955
265 1 7.86141 4.71583 17.2984 -8.94912
266 1 9.43431 3.14315 15.7256 -8.94945
267 1 11.007 4.71566 17.2984 -8.94919
268 1 12.5799 3.14303 15.7255 -8.94924
269 1 14.1527 4.71551 17.2984 -8.94962
270 1 15.7257 3.1428 15.7256 -8.94924
271 1 17.2983 4.71565 17.2981 -8.94796
272 1 18.8695 3.14428 15.7245 -8.94983
273 1 20.442 4.7168 17.2971 -8.94957
274 1 22.014 6.28937 15.7246 -8.94987
275 1 1.57204 7.86187 17.2972 -8.9494
276 1 3.14363 6.2892 15.7253 -8.95046
277 1 4.71621 7.86182 17.2979 -8.94924
278 1 6.28612 6.28621 15.7293 -8.94923
279 1 7.86068 7.86074 17.3003 -8.95136
280 1 9.43344 6.28576 15.7286 -8.94807
281 1 11.0067 7.86004 17.3009 -8.94987
282 1 12.5811 6.2854 15.7291 -8.94947
283 1 14.1545 7.85946 17.3018 -8.95065
284 1 15.7294 6.28455 15.7291 -8.94347
285 1 17.2985 7.86107 17.2984 -8.94908
286 1 18.8709 6.28851 15.7253 -8.94975
287 1 20.4421 7.86175 17.2973 -8.94945
288 1 8.5394e-05 9.43427 15.7249 -8.94964
289 1 3.14345 9.43411 15.7255 -8.9489
290 1 6.28752 9.43388 15.7267 -8.9478
291 1 9.43292 9.43096 15.7308 -8.94932
292 1 12.5842 9.42969 15.7367 -8.95665
293 1 15.7291 9.43232 15.729 -8.94717
294 1 18.8712 9.4339 15.7256 -8.9492
339 1 6.28914 9.43459 18.8699 -8.94975
296 1 1.57224 1.57227 20.4415 -8.94945
338 1 3.14443 9.43448 18.8695 -8.9496
298 1 4.7171 1.57226 20.4416 -8.94957
299 1 6.28953 2.28062e-05 18.8694 -8.94957
300 1 7.86201 1.57221 20.4416 -8.94956
337 1 22.014 9.43447 18.8694 -8.94957
302 1 11.007 1.57219 20.4416 -8.94957
336 1 20.4417 7.86199 20.4416 -8.94959
304 1 14.1519 1.5722 20.4416 -8.94955
305 1 15.7244 -4.80488e-06 18.8693 -8.9496
306 1 17.2969 1.57221 20.4416 -8.94963
335 1 18.8698 6.28923 18.8696 -8.94946
308 1 20.4416 1.5723 20.4415 -8.94934
309 1 22.0139 3.14466 18.8693 -8.94961
310 1 1.5723 4.71716 20.4416 -8.94965
311 1 3.14437 3.14441 18.8696 -8.94944
312 1 4.7168 4.71686 20.4417 -8.94989
313 1 6.28936 3.14432 18.8696 -8.94948
314 1 7.86179 4.71668 20.4417 -8.94953
315 1 9.4344 3.14422 18.8696 -8.9495
316 1 11.0069 4.71659 20.4418 -8.94954
317 1 12.5795 3.1442 18.8696 -8.94947
318 1 14.152 4.7166 20.4417 -8.94961
319 1 15.7246 3.14419 18.8696 -8.94962
320 1 17.2973 4.71659 20.4417 -8.94947
321 1 18.8696 3.14435 18.8694 -8.94914
322 1 20.4417 4.71706 20.4416 -8.94955
323 1 22.014 6.2895 18.8693 -8.9495
324 1 1.57228 7.86204 20.4416 -8.94958
325 1 3.14443 6.28952 18.8695 -8.94958
326 1 4.7169 7.86209 20.4417 -8.94962
327 1 6.28887 6.289 18.8704 -8.95025
328 1 7.86167 7.86183 20.4421 -8.95032
329 1 9.43407 6.28863 18.8706 -8.94959
330 1 11.0067 7.86151 20.4422 -8.95014
331 1 12.5796 6.28857 18.8707 -8.94968
332 1 14.1524 7.86143 20.4421 -8.95069
333 1 15.7255 6.28842 18.8707 -8.94972
334 1 17.2974 7.86175 20.4417 -8.94953
512 1 1.57154 11.0067 11.007 -8.94803
513 1 4.71739 11.0062 11.0057 -8.93975
515 1 11.0856 10.9252 11.1948 -8.44745
594 1 17.2982 11.0071 17.2981 -8.9495
590 1 4.71644 11.0069 17.2978 -8.94966
540 1 1.57129 11.0067 14.1528 -8.94975
541 1 4.71362 11.0059 14.1545 -8.94572
543 1 11.0109 10.9967 14.1665 -9.03618
545 1 17.3023 11.0062 14.1549 -8.94789
546 1 20.4429 11.0068 14.1526 -8.95006
46 1 9.43428 9.43456 22.0139 -8.9495
33 1 6.28919 6.28931 22.0134 -8.9505
45 1 6.28934 9.43463 22.0138 -8.94943
41 1 18.8696 6.28934 22.0136 -8.94956
15 1 22.0139 3.14469 22.0138 -8.94958
17 1 3.14446 3.1445 22.0136 -8.9495
31 1 3.14461 6.28966 22.0138 -8.94973
27 1 18.8695 3.14443 22.0137 -8.94921
21 1 9.43444 3.14438 22.0137 -8.94954
23 1 12.5794 3.14436 22.0137 -8.94951
43 1 22.014 9.43448 22.0138 -8.94958
49 1 18.8697 9.43441 22.0136 -8.94953
688 3 10.195 11.0296 9.4179 2.3537
511 1 18.8695 18.8696 9.43449 -8.94959
510 1 15.7252 18.8701 9.43447 -8.94992
509 1 12.5809 18.8722 9.43316 -8.94838
508 1 9.43318 18.8732 9.43316 -8.94674
507 1 6.28697 18.8734 9.43441 -8.9498
506 1 3.14321 18.8705 9.43447 -8.94944
50 1 -0.000190623 22.0139 3.14466 -8.94957
352 1 1.57222 14.1518 1.57205 -8.94945
154 1 18.8693 22.0139 9.43451 -8.9496
354 1 4.71681 14.1515 1.57173 -8.94966
152 1 12.58 22.0144 9.4342 -8.9497
356 1 7.86167 14.152 1.57026 -8.95255
151 1 9.43448 22.0146 9.4342 -8.94912
358 1 11.0067 14.1528 1.56985 -8.95036
149 1 3.14407 22.014 9.4345 -8.9495
360 1 14.1535 14.1534 1.56885 -8.9515
361 1 15.7253 12.5798 -0.00105853 -8.94939
362 1 17.298 14.1525 1.57118 -8.94926
148 1 -0.000232014 22.0139 9.43451 -8.94958
364 1 20.4419 14.152 1.572 -8.94948
109 1 15.7247 22.0141 6.28945 -8.94945
366 1 1.5721 17.2969 1.57198 -8.94984
367 1 3.14458 15.7242 -0.000220753 -8.94972
368 1 4.71615 17.2976 1.57081 -8.94951
393 1 1.57186 11.0068 4.71645 -8.9495
370 1 7.86174 17.2976 1.5711 -8.94925
371 1 9.43423 15.7249 -0.000819946 -8.9497
372 1 11.007 17.2977 1.57119 -8.9494
373 1 12.5795 15.7249 -0.000880541 -8.94974
374 1 14.1524 17.2978 1.57118 -8.9498
537 1 14.1525 20.4423 11.0069 -8.94915
376 1 17.2979 17.2979 1.5713 -8.94824
377 1 18.8696 15.7246 -0.00029595 -8.94954
378 1 20.4419 17.297 1.57206 -8.94955
103 1 6.28903 22.0143 6.28895 -8.95046
380 1 1.572 20.4418 1.57202 -8.94919
62 1 18.8692 22.0139 3.14472 -8.94962
382 1 4.71694 20.4419 1.57192 -8.94966
383 1 6.28945 18.8695 -0.000336554 -8.94954
384 1 7.86201 20.4419 1.57193 -8.9495
58 1 12.5796 22.014 3.14433 -8.94952
386 1 11.007 20.4419 1.57194 -8.94953
56 1 9.43457 22.014 3.14425 -8.94955
388 1 14.152 20.4419 1.57202 -8.9495
389 1 15.7245 18.8696 -0.000296654 -8.94969
390 1 17.2971 20.4419 1.57202 -8.9495
52 1 3.14426 22.014 3.14424 -8.94947
392 1 20.4415 20.4417 1.57226 -8.9496
505 1 22.0134 18.8696 9.4345 -8.94954
504 1 18.8702 15.7253 9.43428 -8.94958
503 1 15.7271 15.7265 9.43403 -8.94867
502 1 12.5845 15.7302 9.42724 -8.97402
501 1 9.42168 15.7302 9.42768 -9.03815
500 1 6.27703 15.7356 9.43364 -8.94346
399 1 20.4425 11.0069 4.71659 -8.9499
400 1 0.000119432 12.5794 3.14432 -8.94956
401 1 1.5717 14.1517 4.71665 -8.94976
402 1 3.14415 12.5792 3.14401 -8.94904
403 1 4.71496 14.1516 4.71542 -8.95148
404 1 6.28929 12.5784 3.14404 -8.9491
405 1 7.85619 14.1578 4.70653 -8.95511
406 1 9.4351 12.5793 3.14356 -8.95104
407 1 11.0076 14.1565 4.70893 -8.9506
408 1 12.5823 12.5807 3.13671 -8.95925
409 1 14.1647 14.1636 4.70453 -8.92996
410 1 15.7279 12.5807 3.14116 -8.9477
411 1 17.3009 14.1538 4.71508 -8.95075
412 1 18.8706 12.5797 3.14382 -8.9493
413 1 20.4424 14.1521 4.71673 -8.95015
414 1 22.0139 15.7244 3.14441 -8.94981
415 1 1.5709 17.2976 4.71622 -8.94967
416 1 3.14381 15.7245 3.14378 -8.95035
417 1 4.71283 17.3008 4.71281 -8.944
418 1 6.28689 15.7267 3.14017 -8.95023
419 1 7.86084 17.3001 4.71412 -8.94949
420 1 9.43404 15.7265 3.14154 -8.94802
421 1 11.0075 17.2999 4.71454 -8.94744
422 1 12.5804 15.7266 3.14134 -8.94953
423 1 14.1547 17.3012 4.71418 -8.95032
424 1 15.7283 15.7282 3.14085 -8.9445
425 1 17.2978 17.2977 4.71679 -8.9503
426 1 18.8705 15.7251 3.14392 -8.94964
427 1 20.4415 17.2971 4.71697 -8.94982
428 1 22.0135 18.8694 3.14444 -8.94955
429 1 1.57185 20.4419 4.71687 -8.94951
430 1 3.14349 18.8702 3.14347 -8.94812
431 1 4.71619 20.4428 4.71613 -8.94971
432 1 6.28903 18.8703 3.14348 -8.94971
433 1 7.86196 20.4426 4.71633 -8.94966
434 1 9.43449 18.8703 3.14364 -8.94934
435 1 11.0073 20.4425 4.7164 -8.94957
436 1 12.5797 18.8704 3.14378 -8.94909
437 1 14.1523 20.4425 4.71672 -8.95064
438 1 15.7254 18.8707 3.14369 -8.9495
439 1 17.2971 20.4419 4.71705 -8.94946
440 1 18.8694 18.8695 3.14457 -8.94983
441 1 20.4415 20.4417 4.71711 -8.94954
499 1 3.1398 15.7269 9.43417 -8.94899
498 1 -0.00104807 15.725 9.43437 -8.94999
497 1 18.8702 12.5798 9.43434 -8.94775
445 1 11.0927 11.0109 7.64182 -8.14936
496 1 15.7238 12.5791 9.43438 -8.94081
495 1 12.5623 12.5705 9.43128 -8.93051
494 1 9.34544 12.8292 9.43268 -8.1104
449 1 22.0139 12.5793 6.28926 -8.94991
450 1 1.56982 14.1521 7.86163 -8.9519
451 1 3.14323 12.5785 6.28887 -8.94964
452 1 4.70602 14.1557 7.85898 -8.95887
453 1 6.28619 12.5765 6.2886 -8.95146
454 1 7.81732 14.1918 7.82444 -8.84197
455 1 9.42141 12.602 6.2843 -8.90969
456 1 11.0223 14.1605 7.83977 -8.96018
457 1 12.6204 12.6128 6.25238 -8.85547
458 1 14.1566 14.1528 7.86308 -8.95183
459 1 15.7349 12.582 6.28535 -8.95736
460 1 17.2987 14.1525 7.86235 -8.94993
461 1 18.8717 12.5797 6.28911 -8.95166
462 1 20.4417 14.1522 7.86196 -8.94994
463 1 22.013 15.7247 6.28921 -8.95023
464 1 1.57068 17.2978 7.86159 -8.9493
465 1 3.14034 15.7263 6.28738 -8.95095
466 1 4.71277 17.3007 7.86028 -8.94769
467 1 6.27565 15.7376 6.27632 -8.92747
468 1 7.8568 17.3074 7.8583 -8.95651
469 1 9.43381 15.7331 6.28353 -8.95265
470 1 11.0064 17.2998 7.86122 -8.95093
471 1 12.5857 15.7348 6.28211 -8.95572
472 1 14.1544 17.2996 7.86061 -8.94569
473 1 15.7268 15.726 6.28915 -8.9512
474 1 17.298 17.2978 7.8618 -8.94935
475 1 18.8699 15.7248 6.28952 -8.94977
476 1 20.4415 17.2973 7.86187 -8.9496
477 1 -0.000455681 18.8696 6.28939 -8.94948
478 1 1.5718 20.4419 7.86195 -8.94953
479 1 3.14324 18.8705 6.28878 -8.94921
480 1 4.71601 20.4428 7.86164 -8.94949
481 1 6.28727 18.8734 6.28731 -8.9507
482 1 7.86134 20.4441 7.86133 -8.95133
483 1 9.43469 18.8721 6.28812 -8.95042
484 1 11.0071 20.4428 7.86175 -8.94907
485 1 12.5799 18.8716 6.28891 -8.95247
486 1 14.1527 20.4427 7.8616 -8.94929
487 1 15.7253 18.8704 6.28921 -8.94875
488 1 17.2971 20.4419 7.86202 -8.94968
489 1 18.8695 18.8696 6.28948 -8.94947
490 1 20.4415 20.4417 7.86203 -8.94959
491 1 22.0134 12.5793 9.43436 -8.9495
492 1 3.14169 12.579 9.43428 -8.95103
493 1 6.27993 12.5881 9.43443 -8.97411
516 1 14.1645 11.0024 11.0113 -9.02596
522 1 11.0196 14.2239 11.0025 -9.15798
523 1 14.1548 14.153 11.0027 -9.00741
524 1 17.2993 14.153 11.0057 -8.94792
525 1 20.4419 14.1523 11.0068 -8.94991
526 1 1.57072 17.2978 11.0073 -8.94927
527 1 4.71302 17.3007 11.0083 -8.94741
530 1 14.1527 17.2984 11.0065 -8.94898
531 1 17.2977 17.2978 11.0069 -8.94895
394 1 4.71593 11.0067 4.71566 -8.94643
398 1 17.301 11.0069 4.71483 -8.94899
355 1 6.28931 12.5792 -0.000215767 -8.94942
379 1 22.0139 18.8692 -0.00014602 -8.94961
687 2 11.0028 12.5984 11.756 0.836292
686 1 20.4416 20.4416 20.4415 -8.94935
514 1 7.87937 11.0065 10.9962 -8.95043
685 1 18.8695 18.8695 18.8694 -8.94922
307 1 18.8693 22.0139 18.8693 -8.94943
684 1 17.2968 20.4417 20.4415 -8.94963
683 1 15.7246 18.8696 18.8695 -8.9496
519 1 1.56949 14.1523 11.007 -8.9519
520 1 4.70486 14.1564 11.0088 -8.95722
521 1 7.81663 14.1932 11.0414 -8.89851
303 1 12.5795 22.0139 18.8694 -8.94956
301 1 9.43449 22.0139 18.8694 -8.94956
297 1 3.14461 22.0139 18.8693 -8.94961
391 1 18.8695 18.8695 22.0137 -8.94924
256 1 15.7248 22.0139 15.7247 -8.94989
250 1 6.28928 22.014 15.7249 -8.94954
528 1 7.85851 17.3066 11.0087 -8.95949
529 1 11.0064 17.3113 11.0064 -8.96929
209 1 18.8693 22.0139 12.5794 -8.94956
199 1 3.14411 22.014 12.5797 -8.94943
671 1 18.8696 15.7246 18.8695 -8.94957
533 1 1.5718 20.4419 11.0071 -8.94952
534 1 4.71603 20.4428 11.0073 -8.94937
670 1 17.2972 17.2972 20.4415 -8.9496
669 1 15.725 15.7251 18.8701 -8.95018
668 1 14.152 17.2972 20.4416 -8.94966
667 1 12.5795 15.725 18.8702 -8.95001
539 1 20.4415 20.4417 11.007 -8.94958
682 1 14.1519 20.4417 20.4416 -8.94956
681 1 12.5795 18.8696 18.8696 -8.94949
542 1 7.86004 11.0023 14.1539 -8.97595
680 1 11.007 20.4417 20.4416 -8.94958
544 1 14.1635 11.0029 14.1634 -8.97291
679 1 9.43446 18.8696 18.8696 -8.94953
678 1 7.86202 20.4417 20.4416 -8.94957
547 1 22.0138 12.5793 12.5797 -8.95063
548 1 1.5712 14.152 14.1526 -8.94995
549 1 3.14122 12.5787 12.58 -8.95243
550 1 4.71303 14.1528 14.1545 -8.95039
551 1 6.27607 12.577 12.5809 -8.96364
552 1 7.85305 14.1615 14.1647 -8.98644
553 1 9.37716 12.5957 12.6032 -9.18557
554 1 11.0074 14.1586 14.161 -8.98605
555 1 12.6491 12.5987 12.6231 -9.13532
556 1 14.1639 14.164 14.1632 -8.96583
557 1 15.7417 12.581 12.5828 -8.96601
558 1 17.3016 14.1543 14.1543 -8.94942
559 1 18.873 12.5797 12.5798 -8.95379
560 1 20.4426 14.1523 14.1524 -8.95022
561 1 22.013 15.7248 12.5797 -8.95017
562 1 1.57083 17.2977 14.1528 -8.94966
563 1 3.14003 15.7265 12.5814 -8.95084
564 1 4.71261 17.301 14.1561 -8.94441
565 1 6.27492 15.7377 12.592 -8.92882
566 1 7.86004 17.3014 14.1553 -8.94909
567 1 9.43081 15.735 12.5868 -8.99806
568 1 11.0076 17.3005 14.1539 -8.94858
569 1 12.5877 15.7352 12.5876 -8.99781
570 1 14.1552 17.3016 14.1549 -8.94938
571 1 15.7271 15.7256 12.5791 -8.95258
572 1 17.2978 17.2978 14.1522 -8.95067
573 1 18.8701 15.7249 12.5793 -8.94976
574 1 20.4415 17.2971 14.1521 -8.94983
575 1 -0.000453619 18.8696 12.5796 -8.94948
576 1 1.57185 20.4419 14.1521 -8.94953
577 1 3.14329 18.8705 12.5801 -8.94921
578 1 4.71618 20.4427 14.1528 -8.95
579 1 6.28749 18.8732 12.5812 -8.95156
580 1 7.86158 20.443 14.1529 -8.94948
581 1 9.43376 18.8737 12.5814 -8.94858
582 1 11.0073 20.4427 14.1527 -8.94946
583 1 12.5808 18.8729 12.5806 -8.95024
584 1 14.1527 20.4427 14.1525 -8.95032
585 1 15.725 18.87 12.5793 -8.94957
586 1 17.297 20.4418 14.1519 -8.94974
587 1 18.8694 18.8696 12.5795 -8.94944
588 1 20.4415 20.4417 14.1519 -8.94955
677 1 6.28938 18.8696 18.8696 -8.94948
676 1 4.71709 20.4417 20.4416 -8.94958
591 1 7.86179 11.0072 17.2977 -8.94979
592 1 11.007 11.0067 17.3008 -8.95217
593 1 14.1537 11.0073 17.3005 -8.95071
675 1 3.14433 18.8695 18.8696 -8.94939
674 1 1.57222 20.4417 20.4415 -8.94942
596 1 4.41856e-05 12.5795 15.7249 -8.94947
597 1 1.5721 14.1519 17.2972 -8.94938
598 1 3.14364 12.5793 15.7253 -8.9487
599 1 4.7166 14.1517 17.2977 -8.94973
600 1 6.28853 12.5787 15.7253 -8.94913
601 1 7.86164 14.1521 17.2992 -8.95356
602 1 9.43564 12.5796 15.7242 -8.99826
603 1 11.0067 14.1526 17.2993 -8.95124
604 1 12.5805 12.5806 15.7287 -9.002
605 1 14.1531 14.153 17.2996 -8.95219
606 1 15.7278 12.5806 15.7273 -8.9482
607 1 17.298 14.1525 17.2979 -8.94939
608 1 18.8708 12.5798 15.7254 -8.94902
609 1 20.4419 14.152 17.2972 -8.94943
610 1 22.0139 15.7246 15.7248 -8.94982
611 1 1.57196 17.297 17.2973 -8.94974
612 1 3.14326 15.7249 15.7256 -8.95008
613 1 4.71583 17.298 17.2986 -8.94911
614 1 6.28586 15.7278 15.7298 -8.94876
615 1 7.86156 17.2979 17.2984 -8.94905
616 1 9.43387 15.7274 15.7283 -8.94787
617 1 11.0071 17.298 17.2981 -8.94881
618 1 12.5806 15.7273 15.7282 -8.94928
619 1 14.1526 17.298 17.2981 -8.9495
620 1 15.7283 15.7282 15.7281 -8.94467
621 1 17.298 17.298 17.2979 -8.94829
622 1 18.8707 15.7254 15.7253 -8.94942
623 1 20.4419 17.2971 17.2971 -8.94949
624 1 22.0135 18.8695 15.7246 -8.94957
625 1 1.57197 20.4418 17.2971 -8.94922
626 1 3.1434 18.8704 15.7256 -8.94822
627 1 4.71683 20.442 17.2973 -8.9496
628 1 6.28875 18.8707 15.7258 -8.94952
629 1 7.86194 20.442 17.2973 -8.94957
630 1 9.43449 18.8706 15.7256 -8.94976
631 1 11.007 20.442 17.2973 -8.9495
632 1 12.5798 18.8706 15.7254 -8.94954
633 1 14.1521 20.4419 17.2972 -8.94957
634 1 15.7255 18.8708 15.7254 -8.94923
635 1 17.2971 20.4419 17.2971 -8.94944
636 1 18.8695 18.8696 15.7245 -8.94989
637 1 20.4415 20.4417 17.2968 -8.94962
387 1 12.5795 18.8696 22.0136 -8.9495
673 1 22.0139 18.8693 18.8693 -8.94956
640 1 7.8617 11.007 20.4419 -8.94919
641 1 11.0067 11.007 20.4422 -8.94947
642 1 14.1525 11.0071 20.4417 -8.95019
672 1 20.4417 17.2968 20.4415 -8.9496
385 1 9.43446 18.8696 22.0136 -8.94954
645 1 22.0139 12.5794 18.8693 -8.94957
646 1 1.57227 14.1518 20.4416 -8.94956
647 1 3.14443 12.5794 18.8695 -8.94955
648 1 4.71691 14.1518 20.4416 -8.94954
649 1 6.28915 12.5793 18.8697 -8.94925
650 1 7.86181 14.1519 20.4417 -8.95035
651 1 9.43417 12.5795 18.8699 -8.94819
652 1 11.0067 14.1522 20.4416 -8.95017
653 1 12.5797 12.5797 18.8706 -8.94973
654 1 14.1523 14.1523 20.4415 -8.95044
655 1 15.7253 12.5798 18.8702 -8.94929
656 1 17.2973 14.1522 20.4415 -8.94943
657 1 18.8697 12.5795 18.8695 -8.94951
658 1 20.4417 14.1519 20.4415 -8.94957
659 1 22.0139 15.7243 18.8693 -8.94954
660 1 1.57229 17.2967 20.4415 -8.94971
661 1 3.14451 15.7243 18.8695 -8.94974
662 1 4.71682 17.297 20.4416 -8.95005
663 1 6.28912 15.7247 18.8703 -8.95085
664 1 7.86184 17.2972 20.4416 -8.94959
665 1 9.43427 15.725 18.8702 -8.94995
666 1 11.0069 17.2973 20.4416 -8.94954
353 1 3.14451 12.5794 22.0137 -8.94956
11 1 15.7244 22.0139 22.0138 -8.94959
357 1 9.4343 12.5793 22.0136 -8.94925
359 1 12.5796 12.5796 22.0124 -8.95126
363 1 18.8697 12.5795 22.0136 -8.94953
365 1 22.014 15.7243 22.0138 -8.94955
369 1 6.28918 15.7246 22.0131 -8.95066
375 1 15.7251 15.7251 22.0129 -8.94996
5 1 6.28958 22.0139 22.0138 -8.94956
381 1 3.14441 18.8695 22.0135 -8.94951
595 1 20.442 11.007 17.2972 -8.94947
246 1 -0.000194333 22.0139 15.7244 -8.94959
589 1 1.57208 11.0069 17.2972 -8.94951
351 1 22.014 12.5794 22.0138 -8.94958
538 1 17.2971 20.4419 11.007 -8.94957
532 1 20.4415 17.2973 11.007 -8.94957
535 1 7.86162 20.4438 11.0071 -8.95125
536 1 11.0071 20.4445 11.0069 -8.95304
1 1 22.0138 22.0139 22.0138 -8.94935
