ITEM: TIMESTEP
51
ITEM: NUMBER OF ATOMS
688
ITEM: BOX BOUNDS pp pp pp
0.0000000000000000e+00 2.2013900999999997e+01
0.0000000000000000e+00 2.2013900999999997e+01
0.0000000000000000e+00 2.2013900999999997e+01
ITEM: ATOMS id type x y z c_pot
518 1 20.4415 11.0069 11.0069 -8.94975
2 1 1.57242 1.57242 1.57242 -8.94963
448 1 20.4415 11.007 7.86211 -8.94976
4 1 4.71726 1.57242 1.57242 -8.94964
447 1 17.2971 11.0069 7.86211 -8.9513
6 1 7.86211 1.57242 1.57242 -8.94963
7 1 9.43453 8.05218e-09 1.26071e-08 -8.94963
8 1 11.007 1.57242 1.57242 -8.94963
9 1 12.5794 7.702e-09 1.42625e-09 -8.94963
10 1 14.1518 1.57242 1.57242 -8.94963
446 1 14.1588 11.0067 7.86048 -8.96542
12 1 17.2966 1.57242 1.57242 -8.94963
13 1 18.8691 6.37333e-10 -1.46929e-08 -8.94963
14 1 20.4415 1.57242 1.57242 -8.94963
444 1 7.86108 11.0066 7.85979 -8.90276
16 1 1.57242 4.71726 1.57242 -8.94964
443 1 4.71664 11.0069 7.86172 -8.94796
18 1 4.71726 4.71726 1.57241 -8.94962
442 1 1.57236 11.007 7.86209 -8.94966
20 1 7.86211 4.71726 1.57242 -8.94963
105 1 9.43453 -1.66351e-06 6.28969 -8.94964
22 1 11.007 4.71726 1.57242 -8.94964
107 1 12.5794 -1.80306e-06 6.28968 -8.94966
24 1 14.1518 4.71727 1.57242 -8.94969
517 1 17.2973 11.0068 11.0068 -8.95071
26 1 17.2966 4.71726 1.57242 -8.9496
397 1 14.1524 11.0069 4.71657 -8.95013
28 1 20.4415 4.71726 1.57242 -8.94963
396 1 11.0075 11.0069 4.70987 -8.98143
30 1 1.57242 7.86211 1.57242 -8.94963
395 1 7.86224 11.0069 4.71708 -8.95097
32 1 4.71726 7.86211 1.57242 -8.94964
188 1 17.2966 4.71727 11.007 -8.94965
34 1 7.86208 7.86207 1.57234 -8.94976
35 1 9.43453 6.28968 -1.08272e-06 -8.94963
36 1 11.0069 7.86209 1.57238 -8.94961
37 1 12.5794 6.28969 1.73448e-06 -8.94963
38 1 14.1518 7.86205 1.57232 -8.94968
183 1 1.57242 4.71726 11.007 -8.94963
40 1 17.2966 7.86211 1.57242 -8.94968
350 1 20.4415 11.007 1.57242 -8.94963
42 1 20.4415 7.86211 1.57242 -8.94963
345 1 4.71726 11.007 1.57242 -8.94962
44 1 3.14484 9.43453 1.062e-07 -8.94963
349 1 17.2966 11.007 1.57242 -8.94966
348 1 14.1518 11.0069 1.57236 -8.94955
347 1 11.0069 11.0069 1.57178 -8.95149
346 1 7.86211 11.0069 1.5724 -8.94962
344 1 1.57242 11.007 1.57242 -8.94964
181 1 17.2966 1.57242 11.007 -8.94963
51 1 1.57242 1.57242 4.71726 -8.94964
175 1 18.8691 9.4345 9.43452 -8.94962
53 1 4.71726 1.57241 4.71726 -8.94962
54 1 6.28969 -6.66838e-08 3.14484 -8.94964
55 1 7.86211 1.57242 4.71727 -8.94963
174 1 15.7249 9.4341 9.43447 -8.94786
57 1 11.0069 1.57242 4.71726 -8.94963
173 1 12.5815 9.43228 9.43329 -8.94602
59 1 14.1518 1.57242 4.71726 -8.94964
60 1 15.7242 -6.7302e-08 3.14484 -8.94963
61 1 17.2966 1.57242 4.71726 -8.94963
172 1 9.36218 9.26806 9.43768 -8.09404
63 1 20.4415 1.57242 4.71726 -8.94963
64 1 22.0139 3.14484 3.14484 -8.94963
65 1 1.57242 4.71726 4.71726 -8.94963
66 1 3.14484 3.14484 3.14484 -8.9496
67 1 4.71718 4.71718 4.71718 -8.94908
68 1 6.28969 3.14485 3.14485 -8.94969
69 1 7.86213 4.71727 4.71727 -8.94999
70 1 9.43453 3.14484 3.14484 -8.94964
71 1 11.0069 4.71723 4.71722 -8.94954
72 1 12.5794 3.14484 3.14484 -8.94963
73 1 14.1518 4.71716 4.71722 -8.94967
74 1 15.7242 3.14484 3.14484 -8.94962
75 1 17.2966 4.71727 4.71726 -8.94967
76 1 18.8691 3.14484 3.14484 -8.94964
77 1 20.4415 4.71726 4.71726 -8.94963
78 1 22.0139 6.28969 3.14484 -8.94963
79 1 1.57242 7.86211 4.71726 -8.94963
80 1 3.14484 6.28969 3.14484 -8.94967
81 1 4.71724 7.86209 4.71725 -8.94986
82 1 6.28964 6.28964 3.14474 -8.94967
83 1 7.86169 7.86171 4.71616 -8.95141
84 1 9.43454 6.28965 3.14481 -8.94955
85 1 11.0067 7.86194 4.71676 -8.95128
86 1 12.5794 6.28969 3.14485 -8.94999
87 1 14.153 7.86088 4.71606 -8.94308
88 1 15.7243 6.2896 3.14476 -8.94908
89 1 17.2967 7.86206 4.71722 -8.9497
90 1 18.8691 6.28968 3.14484 -8.94963
91 1 20.4415 7.86211 4.71726 -8.94965
92 1 2.217e-07 9.43453 3.14484 -8.94963
93 1 3.14484 9.43453 3.14484 -8.94965
94 1 6.28965 9.43455 3.1448 -8.94976
95 1 9.43421 9.43421 3.14432 -8.94881
96 1 12.5798 9.43414 3.14372 -8.9516
97 1 15.7242 9.43453 3.14484 -8.94984
98 1 18.8691 9.43453 3.14484 -8.94963
99 1 22.0139 3.30813e-09 6.28969 -8.94963
100 1 1.57242 1.57242 7.86211 -8.94963
101 1 3.14484 3.56182e-09 6.28969 -8.94963
102 1 4.71726 1.57242 7.86211 -8.94963
171 1 6.2832 9.43334 9.4345 -8.96591
104 1 7.86209 1.57235 7.86209 -8.94984
170 1 3.14438 9.43454 9.43452 -8.95112
106 1 11.007 1.57238 7.86209 -8.94966
169 1 22.0139 9.43453 9.43453 -8.94974
108 1 14.1518 1.57242 7.86211 -8.94964
168 1 18.8691 6.28968 9.43453 -8.94963
110 1 17.2966 1.57242 7.86211 -8.94963
111 1 18.8691 -8.3351e-10 6.28969 -8.94963
112 1 20.4415 1.57242 7.86211 -8.94963
113 1 2.42415e-07 3.14484 6.28969 -8.94963
114 1 1.57242 4.71726 7.86211 -8.94963
115 1 3.14485 3.14485 6.28969 -8.94968
116 1 4.71725 4.71726 7.86211 -8.94984
117 1 6.28963 3.14474 6.28963 -8.94967
118 1 7.86171 4.71614 7.86171 -8.95149
119 1 9.43455 3.14481 6.28967 -8.94962
120 1 11.0073 4.71675 7.8618 -8.94882
121 1 12.5794 3.14476 6.28965 -8.94977
122 1 14.1518 4.71721 7.86212 -8.94972
123 1 15.7242 3.14484 6.28969 -8.94964
124 1 17.2966 4.71726 7.86211 -8.94965
125 1 18.8691 3.14484 6.28969 -8.94963
126 1 20.4415 4.71726 7.86211 -8.94963
127 1 22.0139 6.28968 6.28968 -8.94965
128 1 1.57236 7.8621 7.8621 -8.94984
129 1 3.14475 6.28964 6.28964 -8.94972
130 1 4.71622 7.86181 7.86181 -8.95191
131 1 6.28849 6.28848 6.28846 -8.94315
132 1 7.84887 7.84962 7.84939 -8.88528
133 1 9.43478 6.28919 6.28952 -8.95138
134 1 11.0111 7.85978 7.85729 -8.92885
135 1 12.5798 6.28858 6.28928 -8.95149
136 1 14.1525 7.8616 7.86216 -8.9489
137 1 15.7242 6.28967 6.28967 -8.94987
138 1 17.2967 7.86207 7.8621 -8.9496
139 1 18.8691 6.28968 6.28969 -8.94963
140 1 20.4415 7.8621 7.86211 -8.94965
141 1 22.0139 9.43453 6.28968 -8.94965
142 1 3.14476 9.43452 6.28965 -8.94961
143 1 6.28895 9.4346 6.2892 -8.94905
144 1 9.43047 9.42964 6.28731 -8.92862
145 1 12.5927 9.42168 6.27703 -8.88374
146 1 15.7253 9.43419 6.28935 -8.95178
147 1 18.8691 9.43452 6.28967 -8.94985
167 1 15.7243 6.28963 9.43453 -8.94938
166 1 12.5794 6.28941 9.43438 -8.95022
150 1 6.28968 -7.69247e-07 9.43453 -8.94964
165 1 9.4339 6.28215 9.4344 -8.98078
164 1 6.28909 6.28904 9.43453 -8.95012
153 1 15.7242 -9.10773e-07 9.43453 -8.94964
163 1 3.14479 6.28966 9.43453 -8.94955
155 1 22.0139 3.14484 9.43453 -8.94963
156 1 3.14484 3.14484 9.43453 -8.94966
157 1 6.28966 3.14478 9.43453 -8.94955
158 1 9.43455 3.14419 9.43452 -8.95149
159 1 12.5794 3.14482 9.43452 -8.94961
160 1 15.7242 3.14484 9.43453 -8.94962
161 1 18.8691 3.14484 9.43453 -8.94964
162 1 -2.76237e-06 6.28968 9.43453 -8.94964
177 1 4.71726 1.57242 11.0069 -8.94963
184 1 4.71725 4.71726 11.007 -8.94984
48 1 15.7242 9.43453 -5.79294e-07 -8.94963
189 1 20.4415 4.71726 11.007 -8.94963
3 1 3.14484 3.0207e-10 2.91895e-08 -8.94963
19 1 6.28969 3.14484 3.08542e-07 -8.94963
25 1 15.7242 3.14484 2.32508e-07 -8.94964
29 1 22.0139 6.28969 1.73577e-08 -8.94963
176 1 1.57242 1.57242 11.007 -8.94963
644 1 20.4415 11.007 20.4415 -8.94963
178 1 7.86209 1.57235 11.007 -8.94984
179 1 11.007 1.57238 11.007 -8.9498
180 1 14.1518 1.57242 11.0069 -8.94964
643 1 17.2966 11.007 20.4415 -8.94963
182 1 20.4415 1.57242 11.007 -8.94963
639 1 4.71726 11.007 20.4415 -8.94963
638 1 1.57242 11.007 20.4415 -8.94963
185 1 7.86172 4.71614 11.0073 -8.95162
186 1 11.0073 4.71647 11.0073 -8.95017
187 1 14.1518 4.71723 11.0069 -8.9498
295 1 22.0139 2.63922e-09 18.8691 -8.94963
39 1 15.7242 6.28968 22.0139 -8.94962
190 1 1.57236 7.8621 11.007 -8.94985
191 1 4.71621 7.86181 11.0072 -8.95201
192 1 7.8487 7.84943 11.0199 -8.88309
193 1 11.0113 7.85476 11.012 -8.94125
194 1 14.1525 7.86159 11.0068 -8.95026
195 1 17.2967 7.86206 11.007 -8.94965
196 1 20.4415 7.86211 11.007 -8.94966
197 1 22.0139 -3.71491e-09 12.5794 -8.94963
198 1 1.57242 1.57242 14.1518 -8.94964
343 1 18.8691 9.43453 18.8691 -8.94964
200 1 4.71726 1.57241 14.1518 -8.94962
201 1 6.28968 -1.02356e-06 12.5794 -8.94966
202 1 7.86211 1.57242 14.1518 -8.94963
203 1 9.43452 1.05871e-05 12.5794 -8.94964
204 1 11.0069 1.57242 14.1518 -8.94964
205 1 12.5794 1.04475e-05 12.5794 -8.94965
206 1 14.1518 1.57241 14.1518 -8.94964
207 1 15.7242 -9.51774e-07 12.5794 -8.94964
208 1 17.2966 1.57242 14.1518 -8.94963
342 1 15.7242 9.43454 18.869 -8.94969
210 1 20.4415 1.57242 14.1518 -8.94963
211 1 2.43096e-07 3.14484 12.5794 -8.94963
212 1 1.57242 4.71726 14.1518 -8.94963
213 1 3.14485 3.14485 12.5794 -8.94968
214 1 4.71718 4.71718 14.1519 -8.94908
215 1 6.28963 3.14474 12.5794 -8.94968
216 1 7.86212 4.71725 14.1518 -8.94997
217 1 9.43454 3.14479 12.5794 -8.94962
218 1 11.0069 4.7172 14.1518 -8.94969
219 1 12.5794 3.14474 12.5794 -8.94979
220 1 14.1519 4.71714 14.1519 -8.94965
221 1 15.7242 3.14484 12.5794 -8.94965
222 1 17.2966 4.71727 14.1518 -8.94968
223 1 18.8691 3.14484 12.5794 -8.94963
224 1 20.4415 4.71726 14.1518 -8.94963
225 1 22.0139 6.28968 12.5794 -8.94965
226 1 1.57242 7.86211 14.1518 -8.94963
227 1 3.14475 6.28964 12.5794 -8.94972
228 1 4.71725 7.8621 14.1518 -8.94999
229 1 6.28847 6.28847 12.5806 -8.94304
230 1 7.86157 7.86149 14.153 -8.95119
231 1 9.43462 6.28897 12.5797 -8.95074
232 1 11.0067 7.8614 14.1526 -8.95256
233 1 12.58 6.28831 12.5799 -8.95094
234 1 14.1532 7.86058 14.1532 -8.94204
235 1 15.7242 6.28967 12.5794 -8.94992
236 1 17.2967 7.86206 14.1518 -8.94983
237 1 18.8691 6.28968 12.5794 -8.94963
238 1 20.4415 7.86211 14.1518 -8.94965
239 1 22.0139 9.43453 12.5794 -8.94965
240 1 3.14477 9.43453 12.5794 -8.94961
241 1 6.28899 9.43473 12.5798 -8.95017
242 1 9.42907 9.42862 12.584 -8.97916
243 1 12.5952 9.41952 12.5951 -8.92148
244 1 15.7253 9.43431 12.5796 -8.95296
245 1 18.8691 9.43452 12.5794 -8.94987
47 1 12.5794 9.43451 22.0138 -8.94986
247 1 1.57242 1.57242 17.2966 -8.94963
248 1 3.14484 -4.36046e-09 15.7242 -8.94963
249 1 4.71726 1.57242 17.2966 -8.94964
341 1 12.5794 9.43449 18.8692 -8.94993
251 1 7.86211 1.57242 17.2966 -8.94963
252 1 9.43453 1.47437e-06 15.7242 -8.94965
253 1 11.007 1.57242 17.2966 -8.94963
254 1 12.5794 1.50348e-06 15.7242 -8.94965
255 1 14.1518 1.57242 17.2966 -8.94964
340 1 9.43449 9.43449 18.8692 -8.94974
257 1 17.2966 1.57242 17.2966 -8.94963
258 1 18.8691 4.8222e-10 15.7242 -8.94963
259 1 20.4415 1.57242 17.2966 -8.94963
260 1 22.0139 3.14484 15.7242 -8.94963
261 1 1.57242 4.71726 17.2966 -8.94964
262 1 3.14484 3.14484 15.7242 -8.9496
263 1 4.71726 4.71726 17.2966 -8.94962
264 1 6.28969 3.14485 15.7242 -8.94968
265 1 7.86211 4.71726 17.2966 -8.94963
266 1 9.43453 3.14484 15.7242 -8.94966
267 1 11.007 4.71726 17.2966 -8.94964
268 1 12.5794 3.14484 15.7242 -8.94965
269 1 14.1518 4.71726 17.2966 -8.94969
270 1 15.7242 3.14484 15.7242 -8.94962
271 1 17.2966 4.71726 17.2966 -8.94959
272 1 18.8691 3.14484 15.7242 -8.94964
273 1 20.4415 4.71726 17.2966 -8.94963
274 1 22.0139 6.28969 15.7242 -8.94963
275 1 1.57242 7.86211 17.2966 -8.94963
276 1 3.14484 6.28969 15.7242 -8.94968
277 1 4.71726 7.86211 17.2966 -8.94962
278 1 6.28963 6.28963 15.7243 -8.94963
279 1 7.86203 7.86204 17.2968 -8.94957
280 1 9.43452 6.28959 15.7243 -8.94961
281 1 11.0069 7.86209 17.2967 -8.94963
282 1 12.5794 6.28964 15.7242 -8.95009
283 1 14.1519 7.86202 17.2968 -8.94949
284 1 15.7243 6.28959 15.7243 -8.949
285 1 17.2966 7.86211 17.2966 -8.94966
286 1 18.8691 6.28968 15.7242 -8.94963
287 1 20.4415 7.86211 17.2966 -8.94963
288 1 2.17335e-07 9.43453 15.7242 -8.94963
289 1 3.14483 9.43452 15.7242 -8.94962
290 1 6.28957 9.43448 15.7243 -8.94933
291 1 9.43382 9.4337 15.7254 -8.94725
292 1 12.5801 9.43362 15.726 -8.95026
293 1 15.7243 9.43446 15.7243 -8.94947
294 1 18.8691 9.43452 15.7242 -8.94959
339 1 6.28969 9.43454 18.8691 -8.94971
296 1 1.57242 1.57242 20.4415 -8.94963
338 1 3.14484 9.43453 18.8691 -8.94964
298 1 4.71726 1.57242 20.4415 -8.94963
299 1 6.28969 1.92207e-07 18.8691 -8.94963
300 1 7.86211 1.57242 20.4415 -8.94963
337 1 22.0139 9.43453 18.8691 -8.94963
302 1 11.007 1.57242 20.4415 -8.94963
336 1 20.4415 7.86211 20.4415 -8.94963
304 1 14.1518 1.57242 20.4415 -8.94963
305 1 15.7242 1.96023e-07 18.8691 -8.94963
306 1 17.2966 1.57242 20.4415 -8.94963
335 1 18.8691 6.28969 18.8691 -8.94964
308 1 20.4415 1.57242 20.4415 -8.94963
309 1 22.0139 3.14484 18.8691 -8.94963
310 1 1.57242 4.71726 20.4415 -8.94963
311 1 3.14484 3.14484 18.8691 -8.94963
312 1 4.71726 4.71726 20.4415 -8.94963
313 1 6.28969 3.14484 18.8691 -8.94963
314 1 7.86211 4.71726 20.4415 -8.94964
315 1 9.43453 3.14484 18.8691 -8.94963
316 1 11.007 4.71726 20.4415 -8.94964
317 1 12.5794 3.14484 18.8691 -8.94963
318 1 14.1518 4.71727 20.4415 -8.94964
319 1 15.7242 3.14484 18.8691 -8.94964
320 1 17.2966 4.71726 20.4415 -8.94963
321 1 18.8691 3.14484 18.8691 -8.94963
322 1 20.4415 4.71726 20.4415 -8.94963
323 1 22.0139 6.28969 18.8691 -8.94963
324 1 1.57242 7.86211 20.4415 -8.94963
325 1 3.14484 6.28969 18.8691 -8.94963
326 1 4.71727 7.86211 20.4415 -8.94964
327 1 6.28968 6.28968 18.8691 -8.94962
328 1 7.8621 7.8621 20.4415 -8.94965
329 1 9.43453 6.28969 18.8691 -8.94966
330 1 11.0069 7.86211 20.4415 -8.94963
331 1 12.5794 6.28969 18.8691 -8.94966
332 1 14.1518 7.8621 20.4415 -8.94965
333 1 15.7242 6.28968 18.8691 -8.94961
334 1 17.2966 7.86211 20.4415 -8.94964
512 1 1.57235 11.0069 11.007 -8.94965
513 1 4.71654 11.0068 11.0072 -8.94726
515 1 11.0872 10.9565 11.1593 -8.38392
594 1 17.2966 11.007 17.2966 -8.94974
590 1 4.71728 11.007 17.2966 -8.9497
540 1 1.57241 11.0069 14.1518 -8.94963
541 1 4.71712 11.0068 14.152 -8.94885
543 1 11.0074 11.0029 14.1673 -9.01978
545 1 17.2968 11.0068 14.1519 -8.94904
546 1 20.4415 11.0069 14.1518 -8.94964
46 1 9.43451 9.43451 22.0139 -8.94968
33 1 6.28968 6.28968 22.0139 -8.94964
45 1 6.28969 9.43453 22.0139 -8.94965
41 1 18.8691 6.28969 22.0139 -8.94964
15 1 22.0139 3.14484 22.0139 -8.94963
17 1 3.14484 3.14484 22.0139 -8.94963
31 1 3.14484 6.28969 22.0139 -8.94963
27 1 18.8691 3.14484 22.0139 -8.94963
21 1 9.43453 3.14484 22.0139 -8.94963
23 1 12.5794 3.14484 22.0139 -8.94963
43 1 22.0139 9.43453 22.0139 -8.94963
49 1 18.8691 9.43453 22.0139 -8.94963
688 3 10.2156 11.0123 9.4305 2.74827
511 1 18.8691 18.8691 9.43453 -8.94964
510 1 15.7242 18.8691 9.43454 -8.94971
509 1 12.5795 18.8692 9.43441 -8.94916
508 1 9.43443 18.8698 9.43441 -8.95094
507 1 6.28966 18.8691 9.43454 -8.94965
506 1 3.14484 18.8691 9.43453 -8.94967
50 1 2.4482e-08 22.0139 3.14484 -8.94963
352 1 1.57242 14.1518 1.57242 -8.94963
154 1 18.8691 22.0139 9.43453 -8.94963
354 1 4.71726 14.1518 1.57242 -8.94964
152 1 12.5794 22.0139 9.43452 -8.94964
356 1 7.86208 14.1518 1.57233 -8.94978
151 1 9.43453 22.0139 9.43452 -8.94994
358 1 11.0069 14.1518 1.57238 -8.9496
149 1 3.14484 22.0139 9.43453 -8.94963
360 1 14.1518 14.1518 1.57231 -8.94969
361 1 15.7242 12.5794 4.61506e-08 -8.94963
362 1 17.2966 14.1518 1.57242 -8.94968
148 1 -3.81373e-09 22.0139 9.43453 -8.94963
364 1 20.4415 14.1518 1.57242 -8.94963
109 1 15.7242 22.0139 6.28969 -8.94963
366 1 1.57242 17.2966 1.57242 -8.94964
367 1 3.14484 15.7242 2.13567e-07 -8.94963
368 1 4.71726 17.2966 1.57241 -8.94962
393 1 1.57242 11.007 4.71726 -8.94962
370 1 7.86211 17.2966 1.57242 -8.94964
371 1 9.43453 15.7242 1.67054e-06 -8.94964
372 1 11.007 17.2966 1.57242 -8.94964
373 1 12.5794 15.7242 4.61149e-06 -8.94964
374 1 14.1518 17.2966 1.57243 -8.94969
537 1 14.1518 20.4415 11.0069 -8.94964
376 1 17.2966 17.2966 1.57242 -8.94959
377 1 18.8691 15.7242 2.97258e-07 -8.94964
378 1 20.4415 17.2966 1.57242 -8.94963
103 1 6.28968 22.0139 6.28968 -8.94965
380 1 1.57242 20.4415 1.57242 -8.94963
62 1 18.8691 22.0139 3.14484 -8.94963
382 1 4.71726 20.4415 1.57242 -8.94964
383 1 6.28969 18.8691 7.0972e-07 -8.94963
384 1 7.86211 20.4415 1.57242 -8.94963
58 1 12.5794 22.0139 3.14484 -8.94963
386 1 11.007 20.4415 1.57242 -8.94963
56 1 9.43453 22.0139 3.14484 -8.94963
388 1 14.1518 20.4415 1.57242 -8.94963
389 1 15.7242 18.8691 6.38734e-07 -8.94964
390 1 17.2966 20.4415 1.57242 -8.94963
52 1 3.14484 22.0139 3.14484 -8.94963
392 1 20.4415 20.4415 1.57242 -8.94963
505 1 22.0139 18.8691 9.43453 -8.94963
504 1 18.8691 15.7242 9.43452 -8.94961
503 1 15.7244 15.7243 9.4345 -8.94965
502 1 12.5812 15.725 9.43324 -8.98509
501 1 9.43218 15.7319 9.43336 -9.01741
500 1 6.28892 15.7249 9.4345 -8.95035
399 1 20.4415 11.007 4.71726 -8.94964
400 1 2.29455e-07 12.5794 3.14484 -8.94963
401 1 1.57242 14.1518 4.71726 -8.94963
402 1 3.14484 12.5794 3.14484 -8.94965
403 1 4.71724 14.1518 4.71725 -8.94991
404 1 6.28966 12.5793 3.1448 -8.94976
405 1 7.86165 14.1522 4.71607 -8.95154
406 1 9.43421 12.5797 3.14428 -8.949
407 1 11.0067 14.152 4.71678 -8.95099
408 1 12.5798 12.5798 3.14369 -8.95176
409 1 14.153 14.1531 4.71599 -8.94299
410 1 15.7242 12.5794 3.14484 -8.94984
411 1 17.2967 14.1518 4.71722 -8.94974
412 1 18.8691 12.5794 3.14484 -8.94963
413 1 20.4415 14.1518 4.71726 -8.94965
414 1 22.0139 15.7242 3.14484 -8.94963
415 1 1.57241 17.2966 4.71726 -8.94963
416 1 3.14484 15.7242 3.14484 -8.94968
417 1 4.71718 17.2967 4.71718 -8.94904
418 1 6.28963 15.7243 3.14473 -8.94967
419 1 7.86213 17.2966 4.71728 -8.95005
420 1 9.43454 15.7243 3.14481 -8.94955
421 1 11.0069 17.2967 4.71723 -8.94947
422 1 12.5793 15.7242 3.14486 -8.94999
423 1 14.1518 17.2967 4.71722 -8.94972
424 1 15.7243 15.7243 3.14476 -8.94907
425 1 17.2966 17.2966 4.71726 -8.94966
426 1 18.8691 15.7242 3.14484 -8.94963
427 1 20.4415 17.2966 4.71726 -8.94963
428 1 22.0139 18.8691 3.14484 -8.94963
429 1 1.57242 20.4415 4.71726 -8.94964
430 1 3.14484 18.8691 3.14484 -8.94959
431 1 4.71726 20.4415 4.71726 -8.94962
432 1 6.28969 18.8691 3.14485 -8.94969
433 1 7.86211 20.4415 4.71727 -8.94964
434 1 9.43453 18.8691 3.14484 -8.94964
435 1 11.007 20.4415 4.71726 -8.94963
436 1 12.5794 18.8691 3.14484 -8.94963
437 1 14.1518 20.4415 4.71726 -8.94965
438 1 15.7242 18.8691 3.14484 -8.94963
439 1 17.2966 20.4415 4.71726 -8.94963
440 1 18.8691 18.8691 3.14484 -8.94964
441 1 20.4415 20.4415 4.71726 -8.94963
499 1 3.14477 15.7243 9.43452 -8.94953
498 1 -2.88819e-06 15.7242 9.43453 -8.94964
497 1 18.8691 12.5794 9.43453 -8.94974
445 1 11.0825 11.0089 7.69539 -8.08795
496 1 15.7251 12.5798 9.43447 -8.94893
495 1 12.5838 12.581 9.42942 -8.93637
494 1 9.35415 12.7517 9.42744 -8.0755
449 1 22.0139 12.5794 6.28968 -8.94965
450 1 1.57236 14.1518 7.8621 -8.94987
451 1 3.14476 12.5794 6.28965 -8.9496
452 1 4.71614 14.1521 7.86179 -8.95218
453 1 6.28895 12.5792 6.28921 -8.94929
454 1 7.84767 14.1653 7.84811 -8.87569
455 1 9.43026 12.5844 6.28662 -8.93071
456 1 11.0113 14.1536 7.85772 -8.97879
457 1 12.593 12.5924 6.27644 -8.88342
458 1 14.1529 14.1525 7.86173 -8.94816
459 1 15.7253 12.5797 6.28938 -8.95194
460 1 17.2968 14.1518 7.86208 -8.9497
461 1 18.8691 12.5794 6.28967 -8.94984
462 1 20.4415 14.1518 7.86211 -8.94966
463 1 22.0139 15.7242 6.28968 -8.94965
464 1 1.57242 17.2966 7.86211 -8.94962
465 1 3.14475 15.7243 6.28964 -8.94973
466 1 4.71725 17.2966 7.8621 -8.94984
467 1 6.28841 15.7255 6.28837 -8.9425
468 1 7.86165 17.2979 7.86165 -8.95127
469 1 9.43486 15.7247 6.28951 -8.952
470 1 11.0073 17.2969 7.86201 -8.94965
471 1 12.5797 15.7253 6.2893 -8.95199
472 1 14.1519 17.2968 7.86205 -8.94923
473 1 15.7243 15.7243 6.28964 -8.94972
474 1 17.2966 17.2966 7.8621 -8.94965
475 1 18.8691 15.7242 6.28968 -8.94963
476 1 20.4415 17.2966 7.86211 -8.94963
477 1 2.40872e-07 18.8691 6.28969 -8.94963
478 1 1.57242 20.4415 7.86211 -8.94963
479 1 3.14485 18.8691 6.28969 -8.94968
480 1 4.71726 20.4415 7.86211 -8.94963
481 1 6.28963 18.8692 6.28963 -8.94966
482 1 7.86208 20.4416 7.86208 -8.94982
483 1 9.43456 18.8691 6.28968 -8.94971
484 1 11.007 20.4415 7.8621 -8.94962
485 1 12.5794 18.8691 6.28966 -8.94987
486 1 14.1518 20.4415 7.8621 -8.94961
487 1 15.7242 18.8691 6.28968 -8.94961
488 1 17.2966 20.4415 7.86211 -8.94964
489 1 18.8691 18.8691 6.28969 -8.94963
490 1 20.4415 20.4415 7.86211 -8.94963
491 1 22.0139 12.5794 9.43453 -8.94975
492 1 3.14437 12.5794 9.43454 -8.95127
493 1 6.28287 12.5805 9.43448 -8.96752
516 1 14.1591 11.0065 11.0071 -9.02075
522 1 11.011 14.1946 10.9922 -9.20025
523 1 14.1525 14.1526 11.0059 -9.00295
524 1 17.2968 14.152 11.0068 -8.94893
525 1 20.4415 14.1518 11.0069 -8.94965
526 1 1.57242 17.2966 11.007 -8.94963
527 1 4.71726 17.2966 11.007 -8.94984
530 1 14.1517 17.2966 11.007 -8.95041
531 1 17.2966 17.2966 11.007 -8.94965
394 1 4.71724 11.0069 4.71721 -8.94933
398 1 17.2967 11.007 4.71724 -8.94957
355 1 6.28969 12.5794 -1.6877e-06 -8.94965
379 1 22.0139 18.8691 -4.58674e-09 -8.94963
687 2 11.0043 12.5845 11.7881 0.971878
686 1 20.4415 20.4415 20.4415 -8.94963
514 1 7.86115 11.0066 11.0078 -8.95595
685 1 18.8691 18.8691 18.8691 -8.94963
307 1 18.8691 22.0139 18.8691 -8.94963
684 1 17.2966 20.4415 20.4415 -8.94963
683 1 15.7242 18.8691 18.8691 -8.94962
519 1 1.57235 14.1518 11.007 -8.94985
520 1 4.71607 14.1522 11.0071 -8.95135
521 1 7.84838 14.165 11.0191 -8.93469
303 1 12.5794 22.0139 18.8691 -8.94963
301 1 9.43453 22.0139 18.8691 -8.94963
297 1 3.14484 22.0139 18.8691 -8.94963
391 1 18.8691 18.8691 22.0139 -8.94963
256 1 15.7242 22.0139 15.7242 -8.94963
250 1 6.28969 22.0139 15.7242 -8.94963
528 1 7.86182 17.2977 11.0074 -8.95231
529 1 11.0073 17.3008 11.0073 -8.95966
209 1 18.8691 22.0139 12.5794 -8.94963
199 1 3.14484 22.0139 12.5794 -8.94963
671 1 18.8691 15.7242 18.8691 -8.94964
533 1 1.57242 20.4415 11.007 -8.94963
534 1 4.71726 20.4415 11.0069 -8.94962
670 1 17.2966 17.2966 20.4415 -8.94963
669 1 15.7242 15.7242 18.8691 -8.94968
668 1 14.1518 17.2966 20.4415 -8.94963
667 1 12.5794 15.7242 18.8691 -8.9497
539 1 20.4415 20.4415 11.007 -8.94963
682 1 14.1518 20.4415 20.4415 -8.94963
681 1 12.5794 18.8691 18.8691 -8.94965
542 1 7.86169 11.0051 14.1531 -8.98476
680 1 11.007 20.4415 20.4415 -8.94963
544 1 14.1529 11.0052 14.1536 -8.9837
679 1 9.43453 18.8691 18.8691 -8.94965
678 1 7.86211 20.4415 20.4415 -8.94963
547 1 22.0139 12.5794 12.5794 -8.94976
548 1 1.57241 14.1518 14.1518 -8.94963
549 1 3.14456 12.5794 12.5794 -8.95062
550 1 4.71712 14.1519 14.1519 -8.94942
551 1 6.28541 12.5793 12.5798 -8.95945
552 1 7.86111 14.1541 14.1541 -8.98561
553 1 9.39175 12.5835 12.6007 -9.2082
554 1 11.0068 14.1555 14.1571 -8.98564
555 1 12.6289 12.5897 12.6087 -9.16662
556 1 14.1534 14.1548 14.1541 -8.97694
557 1 15.7289 12.5797 12.5797 -8.96088
558 1 17.2968 14.152 14.152 -8.94921
559 1 18.8693 12.5794 12.5794 -8.95086
560 1 20.4415 14.1518 14.1518 -8.94965
561 1 22.0139 15.7242 12.5794 -8.94964
562 1 1.57242 17.2966 14.1518 -8.94963
563 1 3.14476 15.7243 12.5794 -8.94972
564 1 4.71719 17.2967 14.1519 -8.94916
565 1 6.28852 15.7254 12.5806 -8.9436
566 1 7.86209 17.2968 14.1518 -8.95024
567 1 9.43432 15.7248 12.5806 -9.00457
568 1 11.0069 17.297 14.1519 -8.95075
569 1 12.5803 15.7254 12.5808 -9.00384
570 1 14.1519 17.2969 14.1519 -8.9499
571 1 15.7242 15.7242 12.5793 -8.95053
572 1 17.2966 17.2966 14.1518 -8.94976
573 1 18.8691 15.7242 12.5794 -8.94963
574 1 20.4415 17.2966 14.1518 -8.94964
575 1 2.39498e-07 18.8691 12.5794 -8.94963
576 1 1.57242 20.4415 14.1518 -8.94964
577 1 3.14484 18.8691 12.5794 -8.94968
578 1 4.71726 20.4415 14.1518 -8.94963
579 1 6.28963 18.8692 12.5794 -8.9497
580 1 7.8621 20.4415 14.1518 -8.94961
581 1 9.43442 18.8692 12.5795 -8.94894
582 1 11.0069 20.4415 14.1518 -8.94973
583 1 12.5795 18.8693 12.5795 -8.94908
584 1 14.1518 20.4415 14.1518 -8.94962
585 1 15.7242 18.8691 12.5794 -8.94966
586 1 17.2966 20.4415 14.1518 -8.94964
587 1 18.8691 18.8691 12.5794 -8.94963
588 1 20.4415 20.4415 14.1518 -8.94963
677 1 6.28968 18.8691 18.8691 -8.94962
676 1 4.71726 20.4415 20.4415 -8.94963
591 1 7.8622 11.007 17.2966 -8.95025
592 1 11.0069 11.0069 17.2979 -8.9536
593 1 14.1517 11.007 17.2967 -8.95018
675 1 3.14484 18.8691 18.8691 -8.94963
674 1 1.57242 20.4415 20.4415 -8.94963
596 1 2.46802e-07 12.5794 15.7242 -8.94962
597 1 1.57242 14.1518 17.2966 -8.94964
598 1 3.14486 12.5794 15.7242 -8.9496
599 1 4.71728 14.1518 17.2966 -8.94973
600 1 6.2899 12.5793 15.7241 -8.95048
601 1 7.86217 14.1517 17.2967 -8.95035
602 1 9.43515 12.5798 15.724 -8.9983
603 1 11.0069 14.1518 17.2971 -8.95097
604 1 12.5788 12.5798 15.7245 -9.00002
605 1 14.1518 14.1518 17.2967 -8.95025
606 1 15.724 12.5794 15.724 -8.95056
607 1 17.2966 14.1518 17.2966 -8.94976
608 1 18.869 12.5794 15.7242 -8.94958
609 1 20.4415 14.1518 17.2966 -8.94964
610 1 22.0139 15.7242 15.7242 -8.94963
611 1 1.57242 17.2966 17.2966 -8.94963
612 1 3.14483 15.7242 15.7242 -8.94964
613 1 4.71726 17.2966 17.2966 -8.94959
614 1 6.28955 15.7243 15.7244 -8.94917
615 1 7.86207 17.2967 17.2967 -8.94947
616 1 9.43425 15.7247 15.7247 -8.94842
617 1 11.007 17.2966 17.2966 -8.94958
618 1 12.5796 15.7247 15.7247 -8.94881
619 1 14.1518 17.2967 17.2967 -8.94951
620 1 15.7244 15.7244 15.7244 -8.94863
621 1 17.2966 17.2966 17.2966 -8.94957
622 1 18.8691 15.7242 15.7242 -8.94959
623 1 20.4415 17.2966 17.2966 -8.94963
624 1 22.0139 18.8691 15.7242 -8.94963
625 1 1.57242 20.4415 17.2966 -8.94963
626 1 3.14484 18.8691 15.7242 -8.9496
627 1 4.71726 20.4415 17.2966 -8.94964
628 1 6.28969 18.8691 15.7242 -8.94968
629 1 7.86211 20.4415 17.2966 -8.94963
630 1 9.43452 18.8691 15.7242 -8.94974
631 1 11.007 20.4415 17.2966 -8.94962
632 1 12.5794 18.8691 15.7242 -8.94973
633 1 14.1518 20.4415 17.2966 -8.94964
634 1 15.7242 18.8691 15.7242 -8.94962
635 1 17.2966 20.4415 17.2966 -8.94963
636 1 18.8691 18.8691 15.7242 -8.94964
637 1 20.4415 20.4415 17.2966 -8.94963
387 1 12.5794 18.8691 22.0139 -8.94963
673 1 22.0139 18.8691 18.8691 -8.94963
640 1 7.86211 11.007 20.4415 -8.94963
641 1 11.0069 11.007 20.4415 -8.95012
642 1 14.1518 11.007 20.4415 -8.94963
672 1 20.4415 17.2966 20.4415 -8.94963
385 1 9.43453 18.8691 22.0139 -8.94963
645 1 22.0139 12.5794 18.8691 -8.94963
646 1 1.57242 14.1518 20.4415 -8.94963
647 1 3.14484 12.5794 18.8691 -8.94963
648 1 4.71726 14.1518 20.4415 -8.94963
649 1 6.28968 12.5794 18.8691 -8.94959
650 1 7.86211 14.1518 20.4415 -8.94965
651 1 9.43449 12.5794 18.8691 -8.94928
652 1 11.0069 14.1518 20.4415 -8.94977
653 1 12.5794 12.5794 18.8691 -8.94943
654 1 14.1518 14.1518 20.4415 -8.94965
655 1 15.7242 12.5794 18.8691 -8.94957
656 1 17.2966 14.1518 20.4415 -8.94963
657 1 18.8691 12.5794 18.8691 -8.94963
658 1 20.4415 14.1518 20.4415 -8.94963
659 1 22.0139 15.7242 18.8691 -8.94963
660 1 1.57242 17.2966 20.4415 -8.94963
661 1 3.14484 15.7242 18.8691 -8.94964
662 1 4.71726 17.2966 20.4415 -8.94964
663 1 6.28969 15.7242 18.8691 -8.9497
664 1 7.86211 17.2966 20.4415 -8.94963
665 1 9.43451 15.7242 18.8691 -8.9497
666 1 11.007 17.2966 20.4415 -8.94962
353 1 3.14484 12.5794 22.0139 -8.94963
11 1 15.7242 22.0139 22.0139 -8.94963
357 1 9.43451 12.5794 22.0139 -8.94966
359 1 12.5794 12.5794 22.0138 -8.94983
363 1 18.8691 12.5794 22.0139 -8.94963
365 1 22.0139 15.7242 22.0139 -8.94963
369 1 6.28968 15.7242 22.0139 -8.94964
375 1 15.7242 15.7242 22.0139 -8.94962
5 1 6.28969 22.0139 22.0139 -8.94963
381 1 3.14484 18.8691 22.0139 -8.94963
595 1 20.4415 11.007 17.2966 -8.94964
246 1 2.42196e-08 22.0139 15.7242 -8.94963
589 1 1.57242 11.007 17.2966 -8.94964
351 1 22.0139 12.5794 22.0139 -8.94963
538 1 17.2966 20.4415 11.007 -8.94963
532 1 20.4415 17.2966 11.007 -8.94964
535 1 7.8621 20.4415 11.007 -8.94984
536 1 11.007 20.4417 11.007 -8.9507
1 1 22.0139 22.0139 22.0139 -8.94963
