ITEM: TIMESTEP
98
ITEM: NUMBER OF ATOMS
688
ITEM: BOX BOUNDS pp pp pp
0.0000000000000000e+00 2.2013900999999997e+01
0.0000000000000000e+00 2.2013900999999997e+01
0.0000000000000000e+00 2.2013900999999997e+01
ITEM: ATOMS id type x y z c_pot
518 1 20.4426 11.0068 11.0067 -8.94979
2 1 1.57212 1.57226 1.57213 -8.94927
448 1 20.4423 11.0069 7.86201 -8.94964
4 1 4.71705 1.5722 1.57208 -8.94967
447 1 17.3001 11.0069 7.86207 -8.95186
6 1 7.86203 1.57218 1.57207 -8.94953
7 1 9.43451 2.61636e-05 -0.000128845 -8.94959
8 1 11.007 1.57215 1.57206 -8.94956
9 1 12.5794 2.28732e-05 -0.000118874 -8.94959
10 1 14.1519 1.57215 1.57213 -8.94953
446 1 14.1633 11.0069 7.85345 -8.9729
12 1 17.297 1.57209 1.57212 -8.94953
13 1 18.8692 1.20849e-05 -0.000110579 -8.94948
14 1 20.4415 1.5723 1.57231 -8.94959
444 1 7.88303 11.0077 7.8726 -8.89096
16 1 1.5722 4.71711 1.57211 -8.94981
443 1 4.71908 11.0068 7.86235 -8.94071
18 1 4.71642 4.7165 1.57124 -8.94951
442 1 1.57192 11.0069 7.86164 -8.94784
20 1 7.86181 4.71653 1.5715 -8.9492
105 1 9.4347 0.000215529 6.28914 -8.95002
22 1 11.0069 4.7164 1.57152 -8.94942
107 1 12.5796 0.000146797 6.28942 -8.95019
24 1 14.1522 4.71629 1.57148 -8.94973
517 1 17.3014 11.0061 11.0058 -8.95067
26 1 17.2977 4.71615 1.57148 -8.94832
397 1 14.1619 11.0069 4.70744 -8.94257
28 1 20.4418 4.71697 1.57214 -8.94956
396 1 11.0121 11.0073 4.72058 -9.00101
30 1 1.57227 7.86205 1.57213 -8.94946
395 1 7.86465 11.0069 4.72007 -8.94589
32 1 4.71695 7.86229 1.57197 -8.94968
188 1 17.2976 4.7162 11.0069 -8.94898
34 1 7.86176 7.8619 1.57087 -8.9521
35 1 9.43421 6.28903 -0.000519175 -8.94958
36 1 11.0066 7.86119 1.57029 -8.95038
37 1 12.5794 6.289 -0.000583356 -8.94963
38 1 14.1533 7.86063 1.56926 -8.95157
183 1 1.57117 4.71642 11.0072 -8.94934
40 1 17.2978 7.8615 1.57137 -8.9493
350 1 20.4419 11.0069 1.57205 -8.94955
42 1 20.4419 7.86194 1.57208 -8.94949
345 1 4.71675 11.0069 1.57177 -8.94965
44 1 3.14456 9.43449 -0.000182515 -8.94957
349 1 17.2979 11.0069 1.57132 -8.94948
348 1 14.1538 11.0069 1.56898 -8.94954
347 1 11.0069 11.0069 1.57162 -8.94672
346 1 7.86191 11.0069 1.57242 -8.94827
344 1 1.57222 11.0069 1.57207 -8.9496
181 1 17.297 1.57211 11.0069 -8.94956
51 1 1.57203 1.5722 4.71701 -8.94957
175 1 18.8705 9.43381 9.43417 -8.94804
53 1 4.71649 1.57169 4.71645 -8.94987
54 1 6.28953 8.02057e-05 3.14437 -8.94961
55 1 7.86202 1.57175 4.71659 -8.9496
174 1 15.7254 9.43319 9.43335 -8.94123
57 1 11.0072 1.57174 4.71661 -8.94958
173 1 12.5677 9.43527 9.42685 -8.95014
59 1 14.1522 1.57168 4.71687 -8.95049
60 1 15.7245 4.01605e-05 3.14452 -8.94998
61 1 17.2969 1.57221 4.71715 -8.94961
172 1 9.36597 9.21023 9.44741 -8.16171
63 1 20.4415 1.5723 4.71718 -8.94957
64 1 22.0136 3.14457 3.14457 -8.94956
65 1 1.57131 4.71657 4.71651 -8.94965
66 1 3.14386 3.14401 3.14385 -8.94844
67 1 4.71393 4.71412 4.71393 -8.94527
68 1 6.28925 3.14396 3.14393 -8.9497
69 1 7.86124 4.71465 4.71522 -8.94929
70 1 9.43447 3.14392 3.14399 -8.94943
71 1 11.0073 4.71467 4.71528 -8.94795
72 1 12.5796 3.14383 3.14407 -8.94921
73 1 14.1542 4.71323 4.71486 -8.95016
74 1 15.7251 3.14349 3.14397 -8.94952
75 1 17.2976 4.7163 4.71686 -8.95006
76 1 18.8694 3.14448 3.14464 -8.94975
77 1 20.4415 4.71691 4.71705 -8.94974
78 1 22.014 6.28951 3.14452 -8.9498
79 1 1.57193 7.86213 4.71681 -8.94975
80 1 3.14411 6.2895 3.1441 -8.95029
81 1 4.71565 7.86222 4.71606 -8.95147
82 1 6.28751 6.2877 3.1413 -8.95012
83 1 7.85733 7.85713 4.70901 -8.95386
84 1 9.43399 6.2878 3.14237 -8.94794
85 1 11.0073 7.85802 4.70993 -8.9509
86 1 12.5801 6.28755 3.14198 -8.94934
87 1 14.1639 7.85068 4.70519 -8.93098
88 1 15.7279 6.28597 3.14121 -8.9448
89 1 17.3005 7.86017 4.71526 -8.95073
90 1 18.8703 6.28887 3.14405 -8.94964
91 1 20.4423 7.86177 4.71682 -8.95012
92 1 9.48953e-05 9.43442 3.14441 -8.94955
93 1 3.14426 9.43448 3.14413 -8.94903
94 1 6.2895 9.43525 3.14439 -8.94923
95 1 9.43506 9.43466 3.14403 -8.95079
96 1 12.582 9.43328 3.13716 -8.95918
97 1 15.7275 9.43328 3.14148 -8.94777
98 1 18.8704 9.43421 3.14395 -8.9493
99 1 22.0137 3.23659e-05 6.2896 -8.9496
100 1 1.57198 1.57217 7.862 -8.94956
101 1 3.14426 9.41761e-05 6.28939 -8.94948
102 1 4.71633 1.57158 7.86175 -8.94942
171 1 6.282 9.42722 9.4346 -8.96981
104 1 7.86176 1.57115 7.86173 -8.95119
170 1 3.14221 9.43457 9.43416 -8.95072
106 1 11.0071 1.57189 7.86193 -8.94936
169 1 22.0135 9.43441 9.43434 -8.94959
108 1 14.1523 1.57201 7.86191 -8.94952
168 1 18.87 6.28877 9.43442 -8.94956
110 1 17.297 1.57213 7.86203 -8.94957
111 1 18.8692 2.71469e-05 6.28961 -8.94961
112 1 20.4415 1.57227 7.86206 -8.94959
113 1 -0.000305016 3.14451 6.28951 -8.94951
114 1 1.57121 4.71646 7.86178 -8.94936
115 1 3.14376 3.14389 6.28909 -8.94932
116 1 4.71418 4.71429 7.86088 -8.94796
117 1 6.28818 3.14191 6.2882 -8.95114
118 1 7.85925 4.70991 7.86059 -8.95767
119 1 9.4347 3.14261 6.28867 -8.95027
120 1 11.0065 4.71522 7.86185 -8.95099
121 1 12.5797 3.14283 6.28925 -8.95215
122 1 14.1529 4.71549 7.86202 -8.94866
123 1 15.7248 3.14402 6.28958 -8.94948
124 1 17.2976 4.71627 7.86193 -8.94911
125 1 18.8693 3.14446 6.28958 -8.94948
126 1 20.4415 4.71678 7.86198 -8.94958
127 1 22.0133 6.28927 6.28933 -8.95005
128 1 1.5704 7.86172 7.86171 -8.9514
129 1 3.14143 6.28805 6.28796 -8.95066
130 1 4.70842 7.85885 7.85982 -8.95721
131 1 6.27882 6.27919 6.27947 -8.93256
132 1 7.82612 7.82956 7.83331 -8.86471
133 1 9.43397 6.2825 6.28571 -8.95087
134 1 11.0207 7.85471 7.84113 -8.90596
135 1 12.5848 6.28003 6.28368 -8.95409
136 1 14.1573 7.85916 7.86229 -8.94938
137 1 15.7267 6.28764 6.28905 -8.95056
138 1 17.299 7.86098 7.86215 -8.94954
139 1 18.8699 6.28905 6.28953 -8.94964
140 1 20.4419 7.86166 7.86194 -8.94985
141 1 22.0139 9.4345 6.28933 -8.94986
142 1 3.14363 9.43508 6.28907 -8.94968
143 1 6.28742 9.43702 6.28954 -8.9526
144 1 9.4231 9.41481 6.28623 -8.90663
145 1 12.6191 9.40224 6.25334 -8.86075
146 1 15.7344 9.43183 6.28555 -8.95752
147 1 18.8715 9.43418 6.28918 -8.95162
167 1 15.7265 6.28725 9.43414 -8.94693
166 1 12.5796 6.28777 9.43276 -8.94451
150 1 6.28893 0.000232021 9.43447 -8.95018
165 1 9.42915 6.28999 9.43418 -8.99861
164 1 6.28033 6.28067 9.43446 -8.94331
153 1 15.7247 5.77414e-05 9.43448 -8.94963
163 1 3.14116 6.28771 9.43442 -8.94917
155 1 22.0136 3.14447 9.4345 -8.94955
156 1 3.14367 3.14382 9.43447 -8.94951
157 1 6.28766 3.14157 9.4344 -8.94951
158 1 9.43418 3.14317 9.43415 -8.94694
159 1 12.58 3.1436 9.43409 -8.94877
160 1 15.725 3.14385 9.43438 -8.9496
161 1 18.8694 3.14439 9.43448 -8.94958
162 1 -0.000718608 6.28911 9.43447 -8.9499
177 1 4.7163 1.57153 11.0072 -8.94941
184 1 4.71403 4.7141 11.008 -8.94784
48 1 15.7251 9.43422 -0.000885788 -8.94944
189 1 20.4416 4.71676 11.007 -8.94956
3 1 3.14471 2.40301e-05 -0.00011708 -8.94964
19 1 6.28952 3.14453 -0.000214593 -8.94953
25 1 15.7244 3.14445 -0.000195872 -8.94968
29 1 22.0139 6.28961 -9.43651e-05 -8.94957
176 1 1.57197 1.57216 11.007 -8.94956
644 1 20.4417 11.007 20.4415 -8.94959
178 1 7.86177 1.57093 11.007 -8.95124
179 1 11.0071 1.57149 11.0068 -8.95086
180 1 14.1523 1.57186 11.0068 -8.94937
643 1 17.2973 11.007 20.4416 -8.94951
182 1 20.4415 1.57227 11.007 -8.94959
639 1 4.71689 11.0069 20.4416 -8.94966
638 1 1.57228 11.0069 20.4415 -8.9496
185 1 7.85922 4.70906 11.0083 -8.95844
186 1 11.0068 4.7114 11.0071 -8.95665
187 1 14.1529 4.71523 11.0061 -8.94883
295 1 22.0138 1.84377e-05 18.8692 -8.94942
39 1 15.725 6.28883 22.0132 -8.94998
190 1 1.57028 7.86171 11.0071 -8.95159
191 1 4.70775 7.85857 11.0091 -8.958
192 1 7.8232 7.82566 11.0403 -8.85664
193 1 11.0236 7.83427 11.0308 -8.92592
194 1 14.1569 7.85842 11.0047 -8.95374
195 1 17.299 7.8609 11.0063 -8.94964
196 1 20.4419 7.86166 11.0069 -8.94988
197 1 22.0137 3.09345e-05 12.5794 -8.94959
198 1 1.572 1.57218 14.152 -8.94957
343 1 18.8696 9.43445 18.8695 -8.94958
200 1 4.71641 1.57153 14.1526 -8.94995
201 1 6.28913 0.000170473 12.5798 -8.95054
202 1 7.86177 1.57145 14.1526 -8.94969
203 1 9.43449 0.000375039 12.58 -8.95027
204 1 11.0072 1.57133 14.1526 -8.94963
205 1 12.5799 0.000248414 12.5797 -8.95044
206 1 14.1525 1.57131 14.1524 -8.95058
207 1 15.7246 2.33766e-05 12.5794 -8.94951
208 1 17.297 1.57212 14.1518 -8.9497
342 1 15.7252 9.43428 18.8704 -8.94978
210 1 20.4415 1.57229 14.1519 -8.94957
211 1 -0.000311732 3.14448 12.5795 -8.94951
212 1 1.57118 4.71648 14.1525 -8.94969
213 1 3.14369 3.14382 12.5799 -8.94932
214 1 4.71339 4.7136 14.1554 -8.94483
215 1 6.288 3.14149 12.5808 -8.95136
216 1 7.86041 4.71313 14.1547 -8.94899
217 1 9.4344 3.14141 12.5806 -8.95055
218 1 11.0074 4.71285 14.1545 -8.94805
219 1 12.5802 3.1415 12.58 -8.95266
220 1 14.1553 4.71157 14.155 -8.94941
221 1 15.7249 3.14385 12.5792 -8.94959
222 1 17.2979 4.71606 14.1522 -8.95029
223 1 18.8694 3.14443 12.5794 -8.94945
224 1 20.4416 4.71685 14.152 -8.9498
225 1 22.0133 6.28923 12.5796 -8.95016
226 1 1.57171 7.86202 14.1523 -8.94982
227 1 3.14103 6.28785 12.5811 -8.95086
228 1 4.71471 7.86177 14.1534 -8.95199
229 1 6.27725 6.27766 12.5906 -8.93056
230 1 7.85427 7.85332 14.1639 -8.9517
231 1 9.43254 6.27811 12.5859 -8.94903
232 1 11.0077 7.85295 14.1629 -8.95173
233 1 12.5875 6.27502 12.5877 -8.95073
234 1 14.167 7.84699 14.1666 -8.92643
235 1 15.7273 6.28719 12.5796 -8.95134
236 1 17.3014 7.8597 14.154 -8.9513
237 1 18.8701 6.28899 12.5793 -8.94976
238 1 20.4425 7.86165 14.1522 -8.95023
239 1 22.0139 9.43441 12.5796 -8.94989
240 1 3.14295 9.43494 12.5799 -8.94961
241 1 6.28531 9.43665 12.5803 -8.95387
242 1 9.41648 9.40582 12.5957 -8.95727
243 1 12.6252 9.39233 12.6237 -8.89462
244 1 15.736 9.43111 12.5833 -8.95906
245 1 18.872 9.43404 12.5797 -8.95172
47 1 12.5795 9.43437 22.0127 -8.95155
247 1 1.57208 1.57223 17.297 -8.94928
248 1 3.14432 6.1447e-05 15.7247 -8.94956
249 1 4.71693 1.57212 17.2971 -8.94961
341 1 12.5798 9.43403 18.8719 -8.95195
251 1 7.86195 1.57205 17.2972 -8.94955
252 1 9.43452 3.76749e-05 15.7248 -8.9496
253 1 11.007 1.57201 17.2972 -8.94956
254 1 12.5796 7.14045e-06 15.7248 -8.94956
255 1 14.152 1.57199 17.2971 -8.94955
340 1 9.43404 9.4342 18.871 -8.95009
257 1 17.2971 1.57199 17.2971 -8.94943
258 1 18.8692 1.27395e-05 15.7243 -8.94971
259 1 20.4415 1.57228 17.2968 -8.94963
260 1 22.0136 3.14453 15.7245 -8.94958
261 1 1.57213 4.71703 17.297 -8.94985
262 1 3.1437 3.14386 15.7253 -8.94837
263 1 4.71609 4.71616 17.2982 -8.94927
264 1 6.28893 3.14353 15.7254 -8.94958
265 1 7.86152 4.71599 17.2982 -8.94913
266 1 9.43435 3.14335 15.7254 -8.94947
267 1 11.0069 4.71584 17.2982 -8.94922
268 1 12.5798 3.14323 15.7253 -8.94926
269 1 14.1526 4.71573 17.2982 -8.94964
270 1 15.7255 3.14301 15.7254 -8.94927
271 1 17.2981 4.71583 17.2979 -8.948
272 1 18.8695 3.14438 15.7244 -8.94982
273 1 20.4419 4.71689 17.297 -8.94958
274 1 22.014 6.28943 15.7246 -8.94985
275 1 1.57207 7.8619 17.2971 -8.94941
276 1 3.14378 6.28929 15.7251 -8.95043
277 1 4.7163 7.86185 17.2978 -8.94923
278 1 6.28638 6.28646 15.729 -8.94928
279 1 7.86076 7.86085 17.3001 -8.95131
280 1 9.4335 6.28607 15.7283 -8.94808
281 1 11.0067 7.8602 17.3007 -8.94981
282 1 12.5809 6.28574 15.7287 -8.94948
283 1 14.1543 7.85962 17.3015 -8.95064
284 1 15.7291 6.28482 15.7289 -8.94351
285 1 17.2983 7.86118 17.2982 -8.94909
286 1 18.8707 6.28864 15.7252 -8.94974
287 1 20.442 7.86181 17.2972 -8.94947
288 1 5.96237e-05 9.4343 15.7248 -8.94964
289 1 3.14353 9.43414 15.7254 -8.94893
290 1 6.28757 9.43391 15.7266 -8.94776
291 1 9.43293 9.43118 15.7307 -8.94925
292 1 12.584 9.42989 15.7365 -8.95666
293 1 15.7289 9.43243 15.7288 -8.94715
294 1 18.871 9.43395 15.7255 -8.9492
339 1 6.28919 9.43459 18.8699 -8.94976
296 1 1.57228 1.5723 20.4415 -8.94948
338 1 3.14448 9.43449 18.8695 -8.94961
298 1 4.71714 1.57229 20.4415 -8.94958
299 1 6.28957 2.43296e-05 18.8693 -8.94959
300 1 7.86203 1.57226 20.4416 -8.94958
337 1 22.0139 9.43449 18.8693 -8.94958
302 1 11.007 1.57224 20.4416 -8.94959
336 1 20.4417 7.86202 20.4415 -8.94961
304 1 14.1519 1.57225 20.4416 -8.94957
305 1 15.7244 6.13692e-06 18.8693 -8.94961
306 1 17.2968 1.57226 20.4415 -8.94965
335 1 18.8696 6.28931 18.8695 -8.94949
308 1 20.4416 1.57233 20.4415 -8.94939
309 1 22.0139 3.1447 18.8692 -8.94962
310 1 1.57232 4.71719 20.4415 -8.94965
311 1 3.14445 3.14448 18.8695 -8.94945
312 1 4.71688 4.71692 20.4416 -8.94987
313 1 6.28943 3.1444 18.8695 -8.94949
314 1 7.86184 4.71676 20.4417 -8.94953
315 1 9.43443 3.14432 18.8695 -8.94952
316 1 11.0069 4.71669 20.4417 -8.94955
317 1 12.5795 3.14431 18.8695 -8.94949
318 1 14.152 4.71671 20.4417 -8.94961
319 1 15.7245 3.14431 18.8695 -8.94964
320 1 17.2972 4.7167 20.4416 -8.94948
321 1 18.8695 3.14444 18.8694 -8.94917
322 1 20.4417 4.71711 20.4415 -8.94957
323 1 22.0139 6.28954 18.8693 -8.94952
324 1 1.57229 7.86206 20.4415 -8.94959
325 1 3.14449 6.28955 18.8694 -8.94957
326 1 4.71694 7.86209 20.4417 -8.94962
327 1 6.28896 6.28907 18.8703 -8.95021
328 1 7.86171 7.86185 20.442 -8.95029
329 1 9.43412 6.28873 18.8704 -8.94958
330 1 11.0067 7.86156 20.4421 -8.95011
331 1 12.5795 6.2887 18.8705 -8.94965
332 1 14.1523 7.8615 20.442 -8.95065
333 1 15.7253 6.28856 18.8705 -8.94971
334 1 17.2973 7.86182 20.4416 -8.94954
512 1 1.57152 11.0067 11.007 -8.94809
513 1 4.71722 11.0062 11.0058 -8.93981
515 1 11.0868 10.9263 11.1959 -8.44645
594 1 17.298 11.0071 17.298 -8.94951
590 1 4.7165 11.0069 17.2977 -8.94967
540 1 1.57134 11.0067 14.1527 -8.94975
541 1 4.7137 11.006 14.1545 -8.9458
543 1 11.0109 10.997 14.1665 -9.03626
545 1 17.3021 11.0062 14.1547 -8.94791
546 1 20.4428 11.0068 14.1525 -8.95005
46 1 9.43428 9.43455 22.0138 -8.94953
33 1 6.28925 6.28935 22.0134 -8.95045
45 1 6.28936 9.43461 22.0138 -8.94944
41 1 18.8695 6.28941 22.0137 -8.94958
15 1 22.0139 3.14473 22.0138 -8.9496
17 1 3.14453 3.14455 22.0136 -8.94951
31 1 3.14464 6.28967 22.0138 -8.94972
27 1 18.8694 3.14451 22.0137 -8.94924
21 1 9.43446 3.14445 22.0137 -8.94956
23 1 12.5794 3.14445 22.0137 -8.94953
43 1 22.0139 9.43449 22.0138 -8.9496
49 1 18.8695 9.43443 22.0136 -8.94955
688 3 10.1968 11.029 9.41859 2.35321
511 1 18.8694 18.8696 9.4345 -8.9496
510 1 15.7251 18.87 9.43449 -8.94993
509 1 12.5809 18.8721 9.43323 -8.94837
508 1 9.43332 18.873 9.43324 -8.94676
507 1 6.28724 18.8731 9.43445 -8.94979
506 1 3.14343 18.8703 9.43449 -8.94946
50 1 -0.000146013 22.0139 3.14471 -8.94959
352 1 1.57224 14.1518 1.5721 -8.94947
154 1 18.8692 22.0139 9.43451 -8.94961
354 1 4.71686 14.1515 1.5718 -8.94966
152 1 12.5799 22.0144 9.43424 -8.94971
356 1 7.86169 14.152 1.57033 -8.95248
151 1 9.43451 22.0145 9.43423 -8.94918
358 1 11.0066 14.1527 1.56998 -8.95031
149 1 3.14421 22.014 9.43451 -8.94951
360 1 14.1533 14.1533 1.56906 -8.95147
361 1 15.7252 12.5797 -0.000948436 -8.9494
362 1 17.2978 14.1524 1.57133 -8.94929
148 1 -0.000177396 22.0139 9.43452 -8.9496
364 1 20.4419 14.1519 1.57207 -8.9495
109 1 15.7247 22.0141 6.28948 -8.94946
366 1 1.57215 17.2968 1.57206 -8.94983
367 1 3.14462 15.7242 -0.00018466 -8.94971
368 1 4.71628 17.2975 1.57097 -8.94951
393 1 1.57185 11.0069 4.71651 -8.94949
370 1 7.8618 17.2975 1.57124 -8.94926
371 1 9.43426 15.7248 -0.000743868 -8.94968
372 1 11.007 17.2976 1.57133 -8.94941
373 1 12.5794 15.7249 -0.000776659 -8.94971
374 1 14.1523 17.2976 1.57134 -8.94981
537 1 14.1524 20.4423 11.0069 -8.94917
376 1 17.2978 17.2977 1.57142 -8.94828
377 1 18.8695 15.7245 -0.000244258 -8.94956
378 1 20.4418 17.2969 1.57212 -8.94956
103 1 6.28912 22.0142 6.28904 -8.95044
380 1 1.57208 20.4417 1.57209 -8.94922
62 1 18.8692 22.0139 3.14476 -8.94962
382 1 4.71702 20.4418 1.57201 -8.94967
383 1 6.2895 18.8694 -0.000277827 -8.94954
384 1 7.86203 20.4418 1.57202 -8.94952
58 1 12.5796 22.014 3.1444 -8.94952
386 1 11.007 20.4418 1.57202 -8.94955
56 1 9.43456 22.014 3.14435 -8.94956
388 1 14.152 20.4418 1.57209 -8.94951
389 1 15.7245 18.8695 -0.000240587 -8.9497
390 1 17.297 20.4419 1.57208 -8.9495
52 1 3.14436 22.014 3.14435 -8.94948
392 1 20.4415 20.4416 1.5723 -8.94961
505 1 22.0135 18.8695 9.43451 -8.94955
504 1 18.8701 15.7252 9.43429 -8.94956
503 1 15.727 15.7264 9.43404 -8.94865
502 1 12.5844 15.7299 9.42745 -8.97427
501 1 9.42203 15.7299 9.42784 -9.03794
500 1 6.27755 15.7351 9.43366 -8.94352
399 1 20.4424 11.0069 4.71668 -8.94988
400 1 8.06902e-05 12.5794 3.1444 -8.94956
401 1 1.57176 14.1517 4.71673 -8.94973
402 1 3.14419 12.5793 3.14407 -8.94906
403 1 4.71512 14.1516 4.71554 -8.95143
404 1 6.28929 12.5784 3.14402 -8.94913
405 1 7.85639 14.1575 4.70674 -8.95514
406 1 9.43501 12.5793 3.14346 -8.95101
407 1 11.0074 14.1562 4.70922 -8.95058
408 1 12.5821 12.5807 3.13686 -8.95918
409 1 14.1643 14.1634 4.70486 -8.93001
410 1 15.7276 12.5806 3.14143 -8.94775
411 1 17.3006 14.1537 4.71525 -8.95074
412 1 18.8704 12.5797 3.14395 -8.94931
413 1 20.4423 14.1521 4.7168 -8.95013
414 1 22.0139 15.7244 3.14449 -8.94979
415 1 1.57105 17.2975 4.71635 -8.94966
416 1 3.14393 15.7244 3.14392 -8.95032
417 1 4.71313 17.3005 4.71309 -8.94407
418 1 6.28709 15.7265 3.14043 -8.95023
419 1 7.86104 17.2998 4.71438 -8.94951
420 1 9.43407 15.7263 3.14175 -8.94804
421 1 11.0075 17.2997 4.71477 -8.94748
422 1 12.5803 15.7264 3.14162 -8.94953
423 1 14.1545 17.3009 4.71442 -8.95034
424 1 15.728 15.728 3.14108 -8.94455
425 1 17.2976 17.2976 4.71687 -8.95027
426 1 18.8704 15.725 3.14402 -8.94964
427 1 20.4415 17.297 4.71702 -8.9498
428 1 22.0136 18.8694 3.14452 -8.94955
429 1 1.57196 20.4418 4.71696 -8.94954
430 1 3.14365 18.8701 3.14363 -8.94816
431 1 4.71633 20.4426 4.71628 -8.94972
432 1 6.28915 18.8702 3.14366 -8.94973
433 1 7.86201 20.4425 4.71646 -8.94965
434 1 9.43451 18.8702 3.14379 -8.94936
435 1 11.0072 20.4424 4.7165 -8.94957
436 1 12.5797 18.8702 3.14391 -8.94911
437 1 14.1522 20.4424 4.71679 -8.95059
438 1 15.7252 18.8705 3.14382 -8.9495
439 1 17.297 20.4418 4.71709 -8.94947
440 1 18.8693 18.8694 3.14463 -8.94982
441 1 20.4415 20.4417 4.71715 -8.94955
499 1 3.14015 15.7266 9.43419 -8.94898
498 1 -0.000926322 15.7249 9.43439 -8.94997
497 1 18.8702 12.5798 9.43435 -8.94782
445 1 11.0928 11.0108 7.64181 -8.14787
496 1 15.724 12.5792 9.43436 -8.94093
495 1 12.5629 12.5705 9.43108 -8.93011
494 1 9.34513 12.8276 9.43247 -8.11084
449 1 22.0139 12.5793 6.2893 -8.9499
450 1 1.56996 14.1521 7.86167 -8.95185
451 1 3.14325 12.5786 6.28889 -8.94961
452 1 4.70632 14.1555 7.85905 -8.9588
453 1 6.28619 12.5764 6.28853 -8.95139
454 1 7.81773 14.1913 7.82461 -8.84233
455 1 9.42145 12.6015 6.28425 -8.90989
456 1 11.022 14.16 7.84025 -8.96048
457 1 12.6201 12.6126 6.25262 -8.85549
458 1 14.1565 14.1528 7.86315 -8.95169
459 1 15.7347 12.5819 6.28556 -8.95732
460 1 17.2987 14.1525 7.86235 -8.94989
461 1 18.8716 12.5797 6.28918 -8.95162
462 1 20.4417 14.1521 7.86198 -8.94994
463 1 22.0131 15.7246 6.28928 -8.9502
464 1 1.57089 17.2976 7.86166 -8.9493
465 1 3.14062 15.7261 6.28754 -8.95093
466 1 4.71315 17.3004 7.86043 -8.94774
467 1 6.27608 15.7372 6.27663 -8.9276
468 1 7.85715 17.3071 7.85848 -8.95651
469 1 9.43399 15.7327 6.28383 -8.95263
470 1 11.0065 17.2996 7.86138 -8.95089
471 1 12.5854 15.7345 6.2825 -8.9558
472 1 14.1543 17.2995 7.86073 -8.94581
473 1 15.7266 15.7259 6.28925 -8.95114
474 1 17.2979 17.2977 7.86183 -8.94935
475 1 18.8699 15.7248 6.28955 -8.94974
476 1 20.4415 17.2972 7.8619 -8.94959
477 1 -0.000373552 18.8695 6.28945 -8.94949
478 1 1.57192 20.4419 7.86199 -8.94955
479 1 3.14345 18.8703 6.28892 -8.94925
480 1 4.71618 20.4427 7.86172 -8.94949
481 1 6.2875 18.8731 6.2875 -8.9507
482 1 7.86144 20.4439 7.86141 -8.95131
483 1 9.43476 18.8719 6.28826 -8.95038
484 1 11.0071 20.4427 7.8618 -8.94908
485 1 12.5799 18.8714 6.28901 -8.95241
486 1 14.1527 20.4426 7.86164 -8.94931
487 1 15.7252 18.8702 6.28928 -8.94878
488 1 17.2971 20.4418 7.86203 -8.94969
489 1 18.8694 18.8695 6.28952 -8.94948
490 1 20.4415 20.4417 7.86205 -8.9496
491 1 22.0134 12.5793 9.43439 -8.94955
492 1 3.14171 12.5789 9.43429 -8.95107
493 1 6.2798 12.5878 9.43437 -8.97412
516 1 14.1648 11.0025 11.0112 -9.02602
522 1 11.0195 14.2227 11.0022 -9.15917
523 1 14.1549 14.153 11.0027 -9.00716
524 1 17.2993 14.153 11.0057 -8.9479
525 1 20.4419 14.1523 11.0068 -8.9499
526 1 1.57093 17.2976 11.0072 -8.94928
527 1 4.7134 17.3004 11.0081 -8.94747
530 1 14.1526 17.2983 11.0065 -8.94906
531 1 17.2976 17.2977 11.0069 -8.94896
394 1 4.71591 11.0067 4.71565 -8.94649
398 1 17.3007 11.0069 4.71503 -8.949
355 1 6.28933 12.5792 -0.000226608 -8.94943
379 1 22.0139 18.8692 -0.000115204 -8.94963
687 2 11.0025 12.5984 11.7586 0.839282
686 1 20.4416 20.4416 20.4415 -8.94939
514 1 7.87894 11.0064 10.9963 -8.95014
685 1 18.8694 18.8694 18.8693 -8.94923
307 1 18.8692 22.0139 18.8692 -8.94946
684 1 17.2968 20.4416 20.4415 -8.94964
683 1 15.7245 18.8695 18.8695 -8.94961
519 1 1.56966 14.1522 11.007 -8.95185
520 1 4.70522 14.1562 11.0087 -8.95714
521 1 7.81711 14.1926 11.0411 -8.89881
303 1 12.5794 22.0139 18.8693 -8.94957
301 1 9.4345 22.0139 18.8693 -8.94958
297 1 3.14467 22.0139 18.8692 -8.94963
391 1 18.8694 18.8694 22.0137 -8.94927
256 1 15.7247 22.0139 15.7247 -8.94987
250 1 6.28935 22.014 15.7248 -8.94954
528 1 7.85883 17.3062 11.0086 -8.95945
529 1 11.0065 17.3109 11.0064 -8.96909
209 1 18.8692 22.0139 12.5794 -8.94958
199 1 3.14424 22.014 12.5796 -8.94944
671 1 18.8695 15.7245 18.8694 -8.94959
533 1 1.57192 20.4419 11.007 -8.94954
534 1 4.7162 20.4427 11.0073 -8.94937
670 1 17.2971 17.2971 20.4415 -8.9496
669 1 15.725 15.725 18.87 -8.95015
668 1 14.152 17.2971 20.4416 -8.94965
667 1 12.5795 15.7249 18.8701 -8.94998
539 1 20.4415 20.4417 11.007 -8.94959
682 1 14.1519 20.4417 20.4415 -8.94957
681 1 12.5795 18.8696 18.8695 -8.9495
542 1 7.85993 11.0023 14.1541 -8.976
680 1 11.007 20.4417 20.4416 -8.94959
544 1 14.1634 11.003 14.1633 -8.97294
679 1 9.43447 18.8696 18.8695 -8.94954
678 1 7.86204 20.4417 20.4416 -8.94959
547 1 22.0138 12.5793 12.5797 -8.95063
548 1 1.5713 14.1519 14.1525 -8.94993
549 1 3.14132 12.5787 12.58 -8.9524
550 1 4.71325 14.1527 14.1543 -8.95039
551 1 6.27616 12.5769 12.5809 -8.9637
552 1 7.85318 14.1613 14.1646 -8.98644
553 1 9.37683 12.5954 12.6033 -9.18561
554 1 11.0073 14.1584 14.1609 -8.98594
555 1 12.6496 12.599 12.6233 -9.1343
556 1 14.1638 14.164 14.1632 -8.96566
557 1 15.7416 12.5811 12.5827 -8.96604
558 1 17.3015 14.1542 14.1542 -8.94942
559 1 18.8729 12.5797 12.5797 -8.95378
560 1 20.4425 14.1523 14.1524 -8.95021
561 1 22.0131 15.7247 12.5797 -8.95014
562 1 1.57101 17.2975 14.1527 -8.94966
563 1 3.14035 15.7263 12.5813 -8.95081
564 1 4.71295 17.3008 14.1558 -8.9445
565 1 6.27542 15.7373 12.5917 -8.92895
566 1 7.86026 17.3011 14.155 -8.9492
567 1 9.43107 15.7345 12.5865 -8.99836
568 1 11.0075 17.3003 14.1538 -8.94862
569 1 12.5874 15.7349 12.5874 -8.99828
570 1 14.155 17.3014 14.1547 -8.94949
571 1 15.7269 15.7255 12.5791 -8.9525
572 1 17.2977 17.2977 14.1521 -8.95062
573 1 18.87 15.7248 12.5793 -8.94973
574 1 20.4415 17.2971 14.152 -8.94981
575 1 -0.000368902 18.8695 12.5795 -8.9495
576 1 1.57196 20.4418 14.1521 -8.94956
577 1 3.1435 18.8703 12.58 -8.94925
578 1 4.71632 20.4426 14.1527 -8.94999
579 1 6.28771 18.8729 12.581 -8.95153
580 1 7.86165 20.4429 14.1528 -8.94948
581 1 9.43385 18.8734 12.5813 -8.94852
582 1 11.0072 20.4426 14.1526 -8.94945
583 1 12.5808 18.8727 12.5806 -8.95018
584 1 14.1526 20.4427 14.1525 -8.95029
585 1 15.725 18.8699 12.5793 -8.94958
586 1 17.297 20.4418 14.1519 -8.94973
587 1 18.8694 18.8695 12.5794 -8.94945
588 1 20.4415 20.4417 14.1519 -8.94956
677 1 6.28944 18.8695 18.8695 -8.94949
676 1 4.71714 20.4416 20.4415 -8.94959
591 1 7.86177 11.0072 17.2978 -8.94983
592 1 11.0069 11.0067 17.3009 -8.95216
593 1 14.1536 11.0074 17.3004 -8.9507
675 1 3.14441 18.8695 18.8695 -8.9494
674 1 1.57226 20.4416 20.4415 -8.94945
596 1 2.94782e-05 12.5795 15.7248 -8.94948
597 1 1.57214 14.1519 17.2971 -8.9494
598 1 3.14373 12.5794 15.7252 -8.94874
599 1 4.71667 14.1517 17.2976 -8.94973
600 1 6.28856 12.5787 15.7253 -8.94913
601 1 7.86165 14.1521 17.2992 -8.9535
602 1 9.43555 12.5796 15.7244 -8.99845
603 1 11.0067 14.1526 17.2993 -8.95115
604 1 12.5805 12.5806 15.7288 -9.00219
605 1 14.153 14.153 17.2996 -8.95217
606 1 15.7276 12.5806 15.7272 -8.9482
607 1 17.2978 14.1524 17.2978 -8.94941
608 1 18.8706 12.5797 15.7253 -8.94904
609 1 20.4419 14.152 17.2971 -8.94945
610 1 22.0139 15.7245 15.7247 -8.94981
611 1 1.57202 17.297 17.2972 -8.94973
612 1 3.14342 15.7248 15.7255 -8.95007
613 1 4.71597 17.2979 17.2984 -8.94909
614 1 6.28605 15.7277 15.7296 -8.9487
615 1 7.86162 17.2978 17.2982 -8.94905
616 1 9.43393 15.7272 15.7281 -8.94788
617 1 11.007 17.2979 17.298 -8.94882
618 1 12.5805 15.7272 15.7281 -8.94927
619 1 14.1525 17.2979 17.298 -8.9495
620 1 15.7282 15.7281 15.728 -8.9446
621 1 17.2979 17.2979 17.2978 -8.94828
622 1 18.8706 15.7253 15.7253 -8.94942
623 1 20.4419 17.297 17.2971 -8.9495
624 1 22.0136 18.8694 15.7245 -8.94958
625 1 1.57205 20.4417 17.297 -8.94926
626 1 3.14358 18.8702 15.7254 -8.94827
627 1 4.71691 20.4419 17.2972 -8.94962
628 1 6.28888 18.8706 15.7256 -8.94956
629 1 7.86197 20.4419 17.2972 -8.94958
630 1 9.4345 18.8705 15.7255 -8.94977
631 1 11.007 20.4419 17.2972 -8.94951
632 1 12.5797 18.8705 15.7253 -8.94956
633 1 14.152 20.4419 17.2971 -8.94958
634 1 15.7254 18.8707 15.7253 -8.94926
635 1 17.2971 20.4419 17.2971 -8.94946
636 1 18.8694 18.8695 15.7244 -8.94988
637 1 20.4415 20.4417 17.2968 -8.94963
387 1 12.5795 18.8695 22.0137 -8.94952
673 1 22.0139 18.8692 18.8693 -8.94957
640 1 7.86173 11.007 20.4418 -8.94924
641 1 11.0067 11.007 20.4422 -8.94954
642 1 14.1524 11.007 20.4417 -8.95018
672 1 20.4416 17.2968 20.4415 -8.94961
385 1 9.43448 18.8695 22.0136 -8.94955
645 1 22.0139 12.5794 18.8693 -8.94959
646 1 1.57229 14.1518 20.4415 -8.94957
647 1 3.14447 12.5794 18.8694 -8.94956
648 1 4.71696 14.1518 20.4416 -8.94954
649 1 6.28918 12.5793 18.8697 -8.94926
650 1 7.86183 14.1519 20.4417 -8.95033
651 1 9.43417 12.5795 18.87 -8.94826
652 1 11.0067 14.1521 20.4416 -8.95015
653 1 12.5797 12.5797 18.8706 -8.94977
654 1 14.1522 14.1523 20.4415 -8.95043
655 1 15.7252 12.5798 18.8701 -8.94929
656 1 17.2972 14.1521 20.4416 -8.94945
657 1 18.8696 12.5795 18.8695 -8.94953
658 1 20.4417 14.1519 20.4415 -8.94959
659 1 22.0139 15.7243 18.8693 -8.94955
660 1 1.57232 17.2967 20.4415 -8.94971
661 1 3.14457 15.7243 18.8694 -8.94974
662 1 4.71688 17.297 20.4416 -8.95001
663 1 6.28917 15.7246 18.8702 -8.95078
664 1 7.86188 17.2971 20.4416 -8.94958
665 1 9.43429 15.725 18.8702 -8.94991
666 1 11.0069 17.2972 20.4416 -8.94955
353 1 3.14455 12.5794 22.0137 -8.94957
11 1 15.7243 22.0139 22.0138 -8.9496
357 1 9.4343 12.5793 22.0136 -8.9493
359 1 12.5795 12.5795 22.0125 -8.95125
363 1 18.8695 12.5795 22.0136 -8.94955
365 1 22.0139 15.7243 22.0138 -8.94956
369 1 6.28923 15.7245 22.0131 -8.9506
375 1 15.725 15.725 22.013 -8.94995
5 1 6.28961 22.0139 22.0138 -8.94958
381 1 3.14448 18.8694 22.0136 -8.94951
595 1 20.4419 11.007 17.2971 -8.94949
246 1 -0.000147339 22.0139 15.7243 -8.94961
589 1 1.57211 11.0069 17.2972 -8.94953
351 1 22.0139 12.5794 22.0138 -8.9496
538 1 17.2971 20.4418 11.007 -8.94958
532 1 20.4415 17.2972 11.007 -8.94957
535 1 7.8617 20.4436 11.0071 -8.95121
536 1 11.0071 20.4443 11.0069 -8.95298
1 1 22.0138 22.0139 22.0138 -8.94939
