ITEM: TIMESTEP
41
ITEM: NUMBER OF ATOMS
688
ITEM: BOX BOUNDS pp pp pp
0.0000000000000000e+00 2.2013900999999997e+01
0.0000000000000000e+00 2.2013900999999997e+01
0.0000000000000000e+00 2.2013900999999997e+01
ITEM: ATOMS id type x y z c_pot
518 1 20.4415 11.007 11.007 -8.94965
2 1 1.57242 1.57242 1.57242 -8.94963
448 1 20.4415 11.007 7.86211 -8.94965
4 1 4.71726 1.57242 1.57242 -8.94963
447 1 17.2967 11.0069 7.8621 -8.95014
6 1 7.86211 1.57242 1.57242 -8.94963
7 1 9.43453 4.81472e-10 1.32134e-09 -8.94963
8 1 11.007 1.57242 1.57242 -8.94963
9 1 12.5794 4.63813e-10 2.23031e-10 -8.94963
10 1 14.1518 1.57242 1.57242 -8.94963
446 1 14.1539 11.0069 7.86173 -8.95956
12 1 17.2966 1.57242 1.57242 -8.94963
13 1 18.8691 3.1146e-11 2.85871e-11 -8.94963
14 1 20.4415 1.57242 1.57242 -8.94963
444 1 7.85857 11.0069 7.85911 -8.90958
16 1 1.57242 4.71726 1.57242 -8.94963
443 1 4.7171 11.0069 7.86205 -8.95002
18 1 4.71726 4.71726 1.57242 -8.94963
442 1 1.57242 11.007 7.86211 -8.94966
20 1 7.86211 4.71726 1.57242 -8.94963
105 1 9.43453 -5.41702e-08 6.28969 -8.94963
22 1 11.007 4.71726 1.57242 -8.94963
107 1 12.5794 -4.98172e-08 6.28969 -8.94963
24 1 14.1518 4.71726 1.57242 -8.94964
517 1 17.2967 11.0069 11.0069 -8.94994
26 1 17.2966 4.71726 1.57242 -8.94963
397 1 14.1518 11.0069 4.71729 -8.95151
28 1 20.4415 4.71726 1.57242 -8.94963
396 1 11.007 11.0069 4.71365 -8.96877
30 1 1.57242 7.86211 1.57242 -8.94963
395 1 7.86215 11.0069 4.71722 -8.95105
32 1 4.71726 7.86211 1.57242 -8.94963
188 1 17.2966 4.71726 11.007 -8.94964
34 1 7.86211 7.86211 1.57242 -8.94963
35 1 9.43453 6.28969 1.52744e-07 -8.94963
36 1 11.0069 7.86211 1.57242 -8.94964
37 1 12.5794 6.28969 2.31431e-07 -8.94963
38 1 14.1518 7.8621 1.57242 -8.94962
183 1 1.57242 4.71726 11.007 -8.94963
40 1 17.2966 7.86211 1.57242 -8.94964
350 1 20.4415 11.007 1.57242 -8.94963
42 1 20.4415 7.86211 1.57242 -8.94963
345 1 4.71726 11.007 1.57242 -8.94963
44 1 3.14484 9.43453 1.42596e-08 -8.94963
349 1 17.2966 11.007 1.57242 -8.94963
348 1 14.1518 11.007 1.57242 -8.94963
347 1 11.0069 11.007 1.57232 -8.95058
346 1 7.86211 11.007 1.57242 -8.94967
344 1 1.57242 11.007 1.57242 -8.94963
181 1 17.2966 1.57242 11.007 -8.94963
51 1 1.57242 1.57242 4.71726 -8.94963
175 1 18.8691 9.43453 9.43453 -8.94966
53 1 4.71726 1.57242 4.71726 -8.94963
54 1 6.28969 7.01529e-10 3.14484 -8.94963
55 1 7.86211 1.57242 4.71726 -8.94963
174 1 15.7244 9.43448 9.43453 -8.95001
57 1 11.007 1.57242 4.71726 -8.94963
173 1 12.583 9.43215 9.43463 -8.95211
59 1 14.1518 1.57242 4.71726 -8.94963
60 1 15.7242 7.32289e-10 3.14484 -8.94963
61 1 17.2966 1.57242 4.71726 -8.94963
172 1 9.3839 9.32937 9.43524 -8.03645
63 1 20.4415 1.57242 4.71726 -8.94963
64 1 22.0139 3.14484 3.14484 -8.94963
65 1 1.57242 4.71726 4.71726 -8.94963
66 1 3.14484 3.14484 3.14484 -8.94963
67 1 4.71726 4.71726 4.71726 -8.94958
68 1 6.28969 3.14484 3.14484 -8.94964
69 1 7.86211 4.71727 4.71727 -8.94975
70 1 9.43453 3.14484 3.14484 -8.94963
71 1 11.0069 4.71727 4.71727 -8.94965
72 1 12.5794 3.14484 3.14484 -8.94963
73 1 14.1518 4.71726 4.71726 -8.94963
74 1 15.7242 3.14484 3.14484 -8.94963
75 1 17.2966 4.71726 4.71726 -8.94964
76 1 18.8691 3.14484 3.14484 -8.94963
77 1 20.4415 4.71726 4.71726 -8.94963
78 1 22.0139 6.28969 3.14484 -8.94963
79 1 1.57242 7.86211 4.71726 -8.94963
80 1 3.14484 6.28969 3.14484 -8.94964
81 1 4.71726 7.8621 4.71726 -8.94968
82 1 6.28968 6.28968 3.14484 -8.94964
83 1 7.86206 7.86207 4.71714 -8.95007
84 1 9.43453 6.28969 3.14485 -8.94965
85 1 11.0069 7.86216 4.71729 -8.9511
86 1 12.5794 6.28969 3.14485 -8.94975
87 1 14.1519 7.86198 4.71714 -8.9481
88 1 15.7242 6.28968 3.14484 -8.94958
89 1 17.2966 7.86211 4.71726 -8.94964
90 1 18.8691 6.28969 3.14484 -8.94963
91 1 20.4415 7.86211 4.71726 -8.94963
92 1 1.2349e-08 9.43453 3.14484 -8.94963
93 1 3.14484 9.43453 3.14484 -8.94964
94 1 6.28969 9.43453 3.14484 -8.94968
95 1 9.43447 9.43447 3.14477 -8.9492
96 1 12.5794 9.43447 3.1447 -8.94986
97 1 15.7242 9.43453 3.14485 -8.94974
98 1 18.8691 9.43453 3.14484 -8.94963
99 1 22.0139 1.80656e-10 6.28969 -8.94963
100 1 1.57242 1.57242 7.86211 -8.94963
101 1 3.14484 1.98538e-09 6.28969 -8.94963
102 1 4.71726 1.57242 7.86211 -8.94963
171 1 6.28774 9.43427 9.43453 -8.96025
104 1 7.86211 1.57242 7.86211 -8.94965
170 1 3.14479 9.43453 9.43453 -8.95011
106 1 11.007 1.57242 7.86211 -8.94964
169 1 22.0139 9.43453 9.43453 -8.94965
108 1 14.1518 1.57242 7.86211 -8.94963
168 1 18.8691 6.28969 9.43453 -8.94963
110 1 17.2966 1.57242 7.86211 -8.94963
111 1 18.8691 1.98512e-09 6.28969 -8.94963
112 1 20.4415 1.57242 7.86211 -8.94963
113 1 7.9316e-09 3.14484 6.28969 -8.94963
114 1 1.57242 4.71726 7.86211 -8.94963
115 1 3.14484 3.14484 6.28969 -8.94964
116 1 4.71727 4.71727 7.86211 -8.94974
117 1 6.28968 3.14484 6.28968 -8.94962
118 1 7.86205 4.71712 7.86204 -8.94986
119 1 9.43453 3.14485 6.28969 -8.94964
120 1 11.007 4.71719 7.86205 -8.9492
121 1 12.5794 3.14484 6.28968 -8.94964
122 1 14.1518 4.71726 7.86211 -8.94967
123 1 15.7242 3.14484 6.28969 -8.94963
124 1 17.2966 4.71726 7.86211 -8.94964
125 1 18.8691 3.14484 6.28969 -8.94963
126 1 20.4415 4.71726 7.86211 -8.94963
127 1 22.0139 6.28969 6.28969 -8.94963
128 1 1.57242 7.86211 7.86211 -8.94966
129 1 3.14484 6.28968 6.28968 -8.94964
130 1 4.71715 7.86208 7.86207 -8.9502
131 1 6.28957 6.28956 6.28956 -8.94809
132 1 7.85877 7.85892 7.85877 -8.91259
133 1 9.43456 6.28971 6.28974 -8.95113
134 1 11.0081 7.86142 7.86091 -8.93899
135 1 12.5794 6.28957 6.28965 -8.95007
136 1 14.1519 7.86202 7.86204 -8.94924
137 1 15.7242 6.28969 6.28968 -8.94969
138 1 17.2966 7.86211 7.86211 -8.94964
139 1 18.8691 6.28969 6.28969 -8.94963
140 1 20.4415 7.86211 7.86211 -8.94963
141 1 22.0139 9.43453 6.28969 -8.94963
142 1 3.14484 9.43453 6.28968 -8.94964
143 1 6.28956 9.43444 6.28959 -8.94908
144 1 9.43341 9.4333 6.28896 -8.93888
145 1 12.5827 9.4312 6.28651 -8.91265
146 1 15.7243 9.43449 6.28965 -8.95015
147 1 18.8691 9.43453 6.28969 -8.94966
167 1 15.7242 6.28969 9.43453 -8.94968
166 1 12.5793 6.28965 9.43451 -8.95074
150 1 6.28969 -1.18537e-08 9.43453 -8.94963
165 1 9.43445 6.28605 9.43451 -8.96868
164 1 6.28972 6.28972 9.43453 -8.95151
153 1 15.7242 -9.77666e-09 9.43453 -8.94963
163 1 3.14484 6.28969 9.43453 -8.94962
155 1 22.0139 3.14484 9.43453 -8.94963
156 1 3.14484 3.14484 9.43453 -8.94963
157 1 6.28969 3.14484 9.43453 -8.94963
158 1 9.43453 3.14474 9.43453 -8.95058
159 1 12.5794 3.14484 9.43453 -8.94967
160 1 15.7242 3.14484 9.43453 -8.94963
161 1 18.8691 3.14484 9.43453 -8.94963
162 1 8.74627e-09 6.28969 9.43453 -8.94963
177 1 4.71726 1.57242 11.007 -8.94963
184 1 4.71727 4.71727 11.0069 -8.94974
48 1 15.7242 9.43453 1.59927e-07 -8.94963
189 1 20.4415 4.71726 11.007 -8.94963
3 1 3.14484 3.10947e-11 3.33945e-10 -8.94963
19 1 6.28969 3.14484 8.76165e-09 -8.94963
25 1 15.7242 3.14484 5.73686e-09 -8.94963
29 1 22.0139 6.28969 2.44203e-10 -8.94963
176 1 1.57242 1.57242 11.007 -8.94963
644 1 20.4415 11.007 20.4415 -8.94963
178 1 7.86211 1.57242 11.007 -8.94965
179 1 11.007 1.57242 11.007 -8.94965
180 1 14.1518 1.57242 11.007 -8.94963
643 1 17.2966 11.007 20.4415 -8.94963
182 1 20.4415 1.57242 11.007 -8.94963
639 1 4.71726 11.007 20.4415 -8.94963
638 1 1.57242 11.007 20.4415 -8.94963
185 1 7.86205 4.71712 11.007 -8.94988
186 1 11.007 4.71716 11.007 -8.9495
187 1 14.1518 4.71726 11.0069 -8.94969
295 1 22.0139 1.02083e-10 18.8691 -8.94963
39 1 15.7242 6.28969 22.0139 -8.94963
190 1 1.57242 7.86211 11.007 -8.94966
191 1 4.71715 7.86208 11.007 -8.95021
192 1 7.85876 7.85891 11.0103 -8.9124
193 1 11.0081 7.86026 11.0082 -8.94544
194 1 14.1519 7.86202 11.007 -8.94972
195 1 17.2966 7.86211 11.007 -8.94965
196 1 20.4415 7.86211 11.007 -8.94963
197 1 22.0139 -2.89522e-10 12.5794 -8.94963
198 1 1.57242 1.57242 14.1518 -8.94963
343 1 18.8691 9.43453 18.8691 -8.94963
200 1 4.71726 1.57242 14.1518 -8.94963
201 1 6.28969 -4.67133e-08 12.5794 -8.94963
202 1 7.86211 1.57242 14.1518 -8.94963
203 1 9.43453 5.26713e-07 12.5794 -8.94963
204 1 11.007 1.57242 14.1518 -8.94963
205 1 12.5794 5.28335e-07 12.5794 -8.94963
206 1 14.1518 1.57242 14.1518 -8.94963
207 1 15.7242 -4.63437e-08 12.5794 -8.94963
208 1 17.2966 1.57242 14.1518 -8.94963
342 1 15.7242 9.43453 18.8691 -8.94965
210 1 20.4415 1.57242 14.1518 -8.94963
211 1 7.90608e-09 3.14484 12.5794 -8.94963
212 1 1.57242 4.71726 14.1518 -8.94963
213 1 3.14484 3.14484 12.5794 -8.94964
214 1 4.71726 4.71726 14.1518 -8.94958
215 1 6.28968 3.14484 12.5794 -8.94962
216 1 7.86211 4.71727 14.1518 -8.94975
217 1 9.43453 3.14484 12.5794 -8.94964
218 1 11.0069 4.71727 14.1518 -8.94969
219 1 12.5794 3.14484 12.5794 -8.94963
220 1 14.1518 4.71726 14.1518 -8.94963
221 1 15.7242 3.14484 12.5794 -8.94963
222 1 17.2966 4.71726 14.1518 -8.94964
223 1 18.8691 3.14484 12.5794 -8.94963
224 1 20.4415 4.71726 14.1518 -8.94963
225 1 22.0139 6.28969 12.5794 -8.94963
226 1 1.57242 7.86211 14.1518 -8.94963
227 1 3.14484 6.28968 12.5794 -8.94964
228 1 4.71726 7.8621 14.1518 -8.9497
229 1 6.28956 6.28956 12.5795 -8.94809
230 1 7.86206 7.86206 14.1519 -8.95006
231 1 9.43454 6.28969 12.5793 -8.95094
232 1 11.0069 7.86205 14.1518 -8.952
233 1 12.5794 6.28955 12.5794 -8.94989
234 1 14.1519 7.86197 14.1519 -8.94801
235 1 15.7242 6.28969 12.5794 -8.94969
236 1 17.2966 7.8621 14.1518 -8.94965
237 1 18.8691 6.28969 12.5794 -8.94963
238 1 20.4415 7.86211 14.1518 -8.94963
239 1 22.0139 9.43453 12.5794 -8.94963
240 1 3.14484 9.43453 12.5794 -8.94965
241 1 6.28959 9.43447 12.5795 -8.94961
242 1 9.43325 9.43327 12.5805 -8.99255
243 1 12.583 9.43104 12.5831 -8.9627
244 1 15.7243 9.43452 12.5794 -8.95068
245 1 18.8691 9.43453 12.5794 -8.94966
47 1 12.5794 9.43453 22.0139 -8.94966
247 1 1.57242 1.57242 17.2966 -8.94963
248 1 3.14484 2.91664e-09 15.7242 -8.94963
249 1 4.71726 1.57242 17.2966 -8.94963
341 1 12.5794 9.43452 18.8691 -8.94966
251 1 7.86211 1.57242 17.2966 -8.94963
252 1 9.43453 8.60993e-08 15.7242 -8.94963
253 1 11.007 1.57242 17.2966 -8.94963
254 1 12.5794 8.61288e-08 15.7242 -8.94963
255 1 14.1518 1.57242 17.2966 -8.94963
340 1 9.43453 9.43452 18.8691 -8.94965
257 1 17.2966 1.57242 17.2966 -8.94963
258 1 18.8691 2.94165e-09 15.7242 -8.94963
259 1 20.4415 1.57242 17.2966 -8.94963
260 1 22.0139 3.14484 15.7242 -8.94963
261 1 1.57242 4.71726 17.2966 -8.94963
262 1 3.14484 3.14484 15.7242 -8.94963
263 1 4.71726 4.71726 17.2966 -8.94963
264 1 6.28969 3.14484 15.7242 -8.94964
265 1 7.86211 4.71726 17.2966 -8.94963
266 1 9.43453 3.14484 15.7242 -8.94963
267 1 11.007 4.71726 17.2966 -8.94963
268 1 12.5794 3.14484 15.7242 -8.94964
269 1 14.1518 4.71726 17.2966 -8.94964
270 1 15.7242 3.14484 15.7242 -8.94963
271 1 17.2966 4.71726 17.2966 -8.94963
272 1 18.8691 3.14484 15.7242 -8.94963
273 1 20.4415 4.71726 17.2966 -8.94963
274 1 22.0139 6.28969 15.7242 -8.94963
275 1 1.57242 7.86211 17.2966 -8.94963
276 1 3.14484 6.28969 15.7242 -8.94964
277 1 4.71726 7.86211 17.2966 -8.94964
278 1 6.28968 6.28968 15.7242 -8.94963
279 1 7.8621 7.8621 17.2966 -8.94958
280 1 9.43453 6.28968 15.7242 -8.94967
281 1 11.0069 7.86211 17.2966 -8.9497
282 1 12.5794 6.28969 15.7242 -8.94977
283 1 14.1518 7.8621 17.2966 -8.94957
284 1 15.7242 6.28968 15.7242 -8.94957
285 1 17.2966 7.86211 17.2966 -8.94964
286 1 18.8691 6.28969 15.7242 -8.94963
287 1 20.4415 7.86211 17.2966 -8.94963
288 1 1.24483e-08 9.43453 15.7242 -8.94963
289 1 3.14484 9.43453 15.7242 -8.94963
290 1 6.28969 9.43454 15.7242 -8.94974
291 1 9.43438 9.43436 15.7244 -8.94841
292 1 12.5795 9.43436 15.7245 -8.94911
293 1 15.7242 9.43454 15.7242 -8.94981
294 1 18.8691 9.43453 15.7242 -8.94963
339 1 6.28969 9.43453 18.8691 -8.94965
296 1 1.57242 1.57242 20.4415 -8.94963
338 1 3.14484 9.43453 18.8691 -8.94963
298 1 4.71726 1.57242 20.4415 -8.94963
299 1 6.28969 7.29023e-09 18.8691 -8.94963
300 1 7.86211 1.57242 20.4415 -8.94963
337 1 22.0139 9.43453 18.8691 -8.94963
302 1 11.007 1.57242 20.4415 -8.94963
336 1 20.4415 7.86211 20.4415 -8.94963
304 1 14.1518 1.57242 20.4415 -8.94963
305 1 15.7242 7.30917e-09 18.8691 -8.94963
306 1 17.2966 1.57242 20.4415 -8.94963
335 1 18.8691 6.28969 18.8691 -8.94963
308 1 20.4415 1.57242 20.4415 -8.94963
309 1 22.0139 3.14484 18.8691 -8.94963
310 1 1.57242 4.71726 20.4415 -8.94963
311 1 3.14484 3.14484 18.8691 -8.94963
312 1 4.71726 4.71726 20.4415 -8.94963
313 1 6.28969 3.14484 18.8691 -8.94963
314 1 7.86211 4.71726 20.4415 -8.94963
315 1 9.43453 3.14484 18.8691 -8.94963
316 1 11.007 4.71726 20.4415 -8.94963
317 1 12.5794 3.14484 18.8691 -8.94963
318 1 14.1518 4.71726 20.4415 -8.94963
319 1 15.7242 3.14484 18.8691 -8.94963
320 1 17.2966 4.71726 20.4415 -8.94963
321 1 18.8691 3.14484 18.8691 -8.94963
322 1 20.4415 4.71726 20.4415 -8.94963
323 1 22.0139 6.28969 18.8691 -8.94963
324 1 1.57242 7.86211 20.4415 -8.94963
325 1 3.14484 6.28969 18.8691 -8.94963
326 1 4.71726 7.86211 20.4415 -8.94963
327 1 6.28969 6.28969 18.8691 -8.94963
328 1 7.86211 7.86211 20.4415 -8.94963
329 1 9.43453 6.28969 18.8691 -8.94964
330 1 11.007 7.86211 20.4415 -8.94963
331 1 12.5794 6.28969 18.8691 -8.94964
332 1 14.1518 7.86211 20.4415 -8.94963
333 1 15.7242 6.28969 18.8691 -8.94963
334 1 17.2966 7.86211 20.4415 -8.94963
512 1 1.57242 11.007 11.007 -8.94966
513 1 4.71709 11.0069 11.007 -8.9498
515 1 11.0594 10.9814 11.103 -8.30948
594 1 17.2966 11.007 17.2966 -8.94964
590 1 4.71726 11.007 17.2966 -8.94964
540 1 1.57242 11.007 14.1518 -8.94963
541 1 4.71728 11.0069 14.1518 -8.94941
543 1 11.007 11.0046 14.1591 -9.00703
545 1 17.2966 11.0069 14.1518 -8.94934
546 1 20.4415 11.007 14.1518 -8.94963
46 1 9.43453 9.43453 22.0139 -8.94964
33 1 6.28969 6.28969 22.0139 -8.94963
45 1 6.28969 9.43453 22.0139 -8.94963
41 1 18.8691 6.28969 22.0139 -8.94963
15 1 22.0139 3.14484 22.0139 -8.94963
17 1 3.14484 3.14484 22.0139 -8.94963
31 1 3.14484 6.28969 22.0139 -8.94963
27 1 18.8691 3.14484 22.0139 -8.94963
21 1 9.43453 3.14484 22.0139 -8.94963
23 1 12.5794 3.14484 22.0139 -8.94963
43 1 22.0139 9.43453 22.0139 -8.94963
49 1 18.8691 9.43453 22.0139 -8.94963
688 3 10.2196 11.0082 9.43324 3.48583
511 1 18.8691 18.8691 9.43453 -8.94963
510 1 15.7242 18.8691 9.43453 -8.94964
509 1 12.5794 18.8691 9.43452 -8.9494
508 1 9.43452 18.8692 9.43452 -8.95031
507 1 6.28969 18.8691 9.43453 -8.94964
506 1 3.14484 18.8691 9.43453 -8.94963
50 1 2.41467e-10 22.0139 3.14484 -8.94963
352 1 1.57242 14.1518 1.57242 -8.94963
154 1 18.8691 22.0139 9.43453 -8.94963
354 1 4.71726 14.1518 1.57242 -8.94963
152 1 12.5794 22.0139 9.43453 -8.94963
356 1 7.86211 14.1518 1.57242 -8.94964
151 1 9.43453 22.0139 9.43453 -8.94968
358 1 11.0069 14.1518 1.57242 -8.94964
149 1 3.14484 22.0139 9.43453 -8.94963
360 1 14.1518 14.1518 1.57242 -8.94962
361 1 15.7242 12.5794 2.47954e-07 -8.94963
362 1 17.2966 14.1518 1.57242 -8.94964
148 1 5.58244e-10 22.0139 9.43453 -8.94963
364 1 20.4415 14.1518 1.57242 -8.94963
109 1 15.7242 22.0139 6.28969 -8.94963
366 1 1.57242 17.2966 1.57242 -8.94963
367 1 3.14484 15.7242 8.59342e-09 -8.94963
368 1 4.71726 17.2966 1.57242 -8.94963
393 1 1.57242 11.007 4.71726 -8.94963
370 1 7.86211 17.2966 1.57242 -8.94963
371 1 9.43453 15.7242 3.4649e-07 -8.94963
372 1 11.007 17.2966 1.57242 -8.94963
373 1 12.5794 15.7242 4.27081e-07 -8.94963
374 1 14.1518 17.2966 1.57242 -8.94964
537 1 14.1518 20.4415 11.007 -8.94964
376 1 17.2966 17.2966 1.57242 -8.94963
377 1 18.8691 15.7242 1.26218e-08 -8.94963
378 1 20.4415 17.2966 1.57242 -8.94963
103 1 6.28969 22.0139 6.28969 -8.94963
380 1 1.57242 20.4415 1.57242 -8.94963
62 1 18.8691 22.0139 3.14484 -8.94963
382 1 4.71726 20.4415 1.57242 -8.94963
383 1 6.28969 18.8691 2.26142e-08 -8.94963
384 1 7.86211 20.4415 1.57242 -8.94963
58 1 12.5794 22.0139 3.14484 -8.94963
386 1 11.007 20.4415 1.57242 -8.94963
56 1 9.43453 22.0139 3.14484 -8.94963
388 1 14.1518 20.4415 1.57242 -8.94963
389 1 15.7242 18.8691 1.96925e-08 -8.94963
390 1 17.2966 20.4415 1.57242 -8.94963
52 1 3.14484 22.0139 3.14484 -8.94963
392 1 20.4415 20.4415 1.57242 -8.94963
505 1 22.0139 18.8691 9.43453 -8.94963
504 1 18.8691 15.7242 9.43453 -8.94963
503 1 15.7242 15.7242 9.43453 -8.94974
502 1 12.5796 15.7238 9.4346 -8.99065
501 1 9.4342 15.7274 9.43462 -9.00861
500 1 6.28971 15.7242 9.43453 -8.95158
399 1 20.4415 11.007 4.71726 -8.94963
400 1 1.24244e-08 12.5794 3.14484 -8.94963
401 1 1.57242 14.1518 4.71726 -8.94963
402 1 3.14484 12.5794 3.14484 -8.94964
403 1 4.71726 14.1518 4.71727 -8.94969
404 1 6.28969 12.5794 3.14484 -8.94968
405 1 7.86206 14.1518 4.71714 -8.95008
406 1 9.43447 12.5794 3.14476 -8.94924
407 1 11.0069 14.1517 4.71731 -8.95088
408 1 12.5794 12.5794 3.1447 -8.94991
409 1 14.1519 14.1519 4.71713 -8.94809
410 1 15.7242 12.5794 3.14485 -8.94974
411 1 17.2966 14.1518 4.71726 -8.94965
412 1 18.8691 12.5794 3.14484 -8.94963
413 1 20.4415 14.1518 4.71726 -8.94963
414 1 22.0139 15.7242 3.14484 -8.94963
415 1 1.57242 17.2966 4.71726 -8.94963
416 1 3.14484 15.7242 3.14484 -8.94964
417 1 4.71726 17.2966 4.71726 -8.94957
418 1 6.28968 15.7242 3.14484 -8.94963
419 1 7.86211 17.2966 4.71727 -8.94976
420 1 9.43453 15.7242 3.14485 -8.94965
421 1 11.0069 17.2966 4.71726 -8.94963
422 1 12.5794 15.7242 3.14485 -8.94975
423 1 14.1518 17.2966 4.71726 -8.94965
424 1 15.7242 15.7242 3.14484 -8.94958
425 1 17.2966 17.2966 4.71726 -8.94963
426 1 18.8691 15.7242 3.14484 -8.94963
427 1 20.4415 17.2966 4.71726 -8.94963
428 1 22.0139 18.8691 3.14484 -8.94963
429 1 1.57242 20.4415 4.71726 -8.94963
430 1 3.14484 18.8691 3.14484 -8.94963
431 1 4.71726 20.4415 4.71726 -8.94963
432 1 6.28969 18.8691 3.14484 -8.94964
433 1 7.86211 20.4415 4.71726 -8.94963
434 1 9.43453 18.8691 3.14484 -8.94963
435 1 11.007 20.4415 4.71726 -8.94963
436 1 12.5794 18.8691 3.14484 -8.94963
437 1 14.1518 20.4415 4.71726 -8.94963
438 1 15.7242 18.8691 3.14484 -8.94963
439 1 17.2966 20.4415 4.71726 -8.94963
440 1 18.8691 18.8691 3.14484 -8.94963
441 1 20.4415 20.4415 4.71726 -8.94963
499 1 3.14484 15.7242 9.43453 -8.94962
498 1 6.82394e-09 15.7242 9.43453 -8.94963
497 1 18.8691 12.5794 9.43453 -8.94969
445 1 11.058 11.0078 7.75743 -8.03331
496 1 15.7245 12.5794 9.43451 -8.95074
495 1 12.5851 12.5822 9.43107 -8.94528
494 1 9.38117 12.6857 9.43089 -8.02737
449 1 22.0139 12.5794 6.28969 -8.94963
450 1 1.57242 14.1518 7.86211 -8.94966
451 1 3.14484 12.5794 6.28968 -8.94964
452 1 4.71715 14.1518 7.86207 -8.95023
453 1 6.28957 12.5795 6.28959 -8.94921
454 1 7.85858 14.1552 7.85857 -8.91002
455 1 9.43337 12.5806 6.2888 -8.93976
456 1 11.0081 14.152 7.86163 -8.98698
457 1 12.5827 12.5827 6.28635 -8.9131
458 1 14.152 14.152 7.86191 -8.94837
459 1 15.7243 12.5794 6.28966 -8.95025
460 1 17.2966 14.1518 7.8621 -8.94966
461 1 18.8691 12.5794 6.28969 -8.94965
462 1 20.4415 14.1518 7.86211 -8.94964
463 1 22.0139 15.7242 6.28969 -8.94963
464 1 1.57242 17.2966 7.86211 -8.94963
465 1 3.14484 15.7242 6.28968 -8.94964
466 1 4.71727 17.2966 7.86211 -8.94974
467 1 6.28956 15.7243 6.28955 -8.948
468 1 7.86206 17.2968 7.86206 -8.94994
469 1 9.43458 15.7242 6.28977 -8.95138
470 1 11.007 17.2966 7.86211 -8.94983
471 1 12.5794 15.7243 6.28968 -8.95028
472 1 14.1518 17.2966 7.86212 -8.94974
473 1 15.7242 15.7242 6.28968 -8.94963
474 1 17.2966 17.2966 7.86211 -8.94964
475 1 18.8691 15.7242 6.28969 -8.94963
476 1 20.4415 17.2966 7.86211 -8.94963
477 1 7.87183e-09 18.8691 6.28969 -8.94963
478 1 1.57242 20.4415 7.86211 -8.94963
479 1 3.14484 18.8691 6.28969 -8.94964
480 1 4.71726 20.4415 7.86211 -8.94963
481 1 6.28968 18.8691 6.28968 -8.94963
482 1 7.86211 20.4415 7.86211 -8.94965
483 1 9.43453 18.8691 6.28969 -8.94966
484 1 11.007 20.4415 7.86211 -8.94963
485 1 12.5794 18.8691 6.28968 -8.94965
486 1 14.1518 20.4415 7.86211 -8.94963
487 1 15.7242 18.8691 6.28969 -8.94964
488 1 17.2966 20.4415 7.86211 -8.94963
489 1 18.8691 18.8691 6.28969 -8.94963
490 1 20.4415 20.4415 7.86211 -8.94963
491 1 22.0139 12.5794 9.43453 -8.94965
492 1 3.14479 12.5794 9.43453 -8.95015
493 1 6.28764 12.5796 9.43452 -8.96089
516 1 14.1537 11.007 11.0069 -9.01564
522 1 11.0081 14.1755 10.9967 -9.22727
523 1 14.1518 14.1519 11.0067 -9.0042
524 1 17.2967 14.1518 11.0069 -8.94943
525 1 20.4415 14.1518 11.007 -8.94963
526 1 1.57242 17.2966 11.007 -8.94963
527 1 4.71727 17.2966 11.0069 -8.94974
530 1 14.1518 17.2966 11.007 -8.95012
531 1 17.2966 17.2966 11.007 -8.94964
394 1 4.71727 11.007 4.71727 -8.94969
398 1 17.2966 11.007 4.71727 -8.94962
355 1 6.28969 12.5794 5.5501e-08 -8.94964
379 1 22.0139 18.8691 9.96679e-11 -8.94963
687 2 11.0062 12.5807 11.792 1.10199
686 1 20.4415 20.4415 20.4415 -8.94963
514 1 7.85875 11.0069 11.0095 -8.96496
685 1 18.8691 18.8691 18.8691 -8.94963
307 1 18.8691 22.0139 18.8691 -8.94963
684 1 17.2966 20.4415 20.4415 -8.94963
683 1 15.7242 18.8691 18.8691 -8.94963
519 1 1.57242 14.1518 11.007 -8.94965
520 1 4.71714 14.1518 11.007 -8.94999
521 1 7.85884 14.155 11.01 -8.96717
303 1 12.5794 22.0139 18.8691 -8.94963
301 1 9.43453 22.0139 18.8691 -8.94963
297 1 3.14484 22.0139 18.8691 -8.94963
391 1 18.8691 18.8691 22.0139 -8.94963
256 1 15.7242 22.0139 15.7242 -8.94963
250 1 6.28969 22.0139 15.7242 -8.94963
528 1 7.86207 17.2968 11.007 -8.9503
529 1 11.007 17.2977 11.007 -8.95534
209 1 18.8691 22.0139 12.5794 -8.94963
199 1 3.14484 22.0139 12.5794 -8.94963
671 1 18.8691 15.7242 18.8691 -8.94963
533 1 1.57242 20.4415 11.007 -8.94963
534 1 4.71726 20.4415 11.007 -8.94963
670 1 17.2966 17.2966 20.4415 -8.94963
669 1 15.7242 15.7242 18.8691 -8.94964
668 1 14.1518 17.2966 20.4415 -8.94963
667 1 12.5794 15.7242 18.8691 -8.94964
539 1 20.4415 20.4415 11.007 -8.94963
682 1 14.1518 20.4415 20.4415 -8.94963
681 1 12.5794 18.8691 18.8691 -8.94964
542 1 7.86258 11.0067 14.1518 -8.99054
680 1 11.007 20.4415 20.4415 -8.94963
544 1 14.1513 11.0067 14.1517 -8.99093
679 1 9.43453 18.8691 18.8691 -8.94964
678 1 7.86211 20.4415 20.4415 -8.94963
547 1 22.0139 12.5794 12.5794 -8.94965
548 1 1.57242 14.1518 14.1518 -8.94963
549 1 3.14481 12.5794 12.5794 -8.9499
550 1 4.71727 14.1518 14.1518 -8.94941
551 1 6.28862 12.5795 12.5794 -8.9552
552 1 7.86249 14.1521 14.1518 -8.98963
553 1 9.41061 12.5805 12.5915 -9.22984
554 1 11.0069 14.154 14.1551 -8.98635
555 1 12.6052 12.5824 12.5937 -9.20591
556 1 14.1515 14.1522 14.1518 -8.98751
557 1 15.7253 12.5794 12.5794 -8.95606
558 1 17.2966 14.1518 14.1518 -8.94936
559 1 18.8691 12.5794 12.5794 -8.94992
560 1 20.4415 14.1518 14.1518 -8.94963
561 1 22.0139 15.7242 12.5794 -8.94963
562 1 1.57242 17.2966 14.1518 -8.94963
563 1 3.14484 15.7242 12.5794 -8.94965
564 1 4.71726 17.2966 14.1518 -8.94959
565 1 6.28959 15.7243 12.5795 -8.94851
566 1 7.86211 17.2966 14.1518 -8.94981
567 1 9.43456 15.7241 12.5796 -9.0062
568 1 11.0069 17.2967 14.1518 -8.95042
569 1 12.5794 15.7242 12.5797 -9.005
570 1 14.1518 17.2966 14.1518 -8.94969
571 1 15.7242 15.7242 12.5794 -8.95012
572 1 17.2966 17.2966 14.1518 -8.94964
573 1 18.8691 15.7242 12.5794 -8.94964
574 1 20.4415 17.2966 14.1518 -8.94963
575 1 7.90967e-09 18.8691 12.5794 -8.94963
576 1 1.57242 20.4415 14.1518 -8.94963
577 1 3.14484 18.8691 12.5794 -8.94964
578 1 4.71726 20.4415 14.1518 -8.94963
579 1 6.28968 18.8691 12.5794 -8.94963
580 1 7.86211 20.4415 14.1518 -8.94963
581 1 9.43451 18.8691 12.5794 -8.94943
582 1 11.007 20.4415 14.1518 -8.94967
583 1 12.5794 18.8691 12.5794 -8.94943
584 1 14.1518 20.4415 14.1518 -8.94963
585 1 15.7242 18.8691 12.5794 -8.94964
586 1 17.2966 20.4415 14.1518 -8.94963
587 1 18.8691 18.8691 12.5794 -8.94963
588 1 20.4415 20.4415 14.1518 -8.94963
677 1 6.28969 18.8691 18.8691 -8.94963
676 1 4.71726 20.4415 20.4415 -8.94963
591 1 7.86214 11.007 17.2966 -8.9499
592 1 11.0069 11.007 17.2968 -8.95164
593 1 14.1518 11.007 17.2966 -8.94986
675 1 3.14484 18.8691 18.8691 -8.94963
674 1 1.57242 20.4415 20.4415 -8.94963
596 1 1.28105e-08 12.5794 15.7242 -8.94963
597 1 1.57242 14.1518 17.2966 -8.94963
598 1 3.14485 12.5794 15.7242 -8.94963
599 1 4.71726 14.1518 17.2966 -8.94964
600 1 6.28976 12.5794 15.7242 -8.9503
601 1 7.86214 14.1518 17.2966 -8.94986
602 1 9.43507 12.5794 15.7235 -8.99741
603 1 11.0069 14.1518 17.2967 -8.95065
604 1 12.5788 12.5794 15.7236 -8.99791
605 1 14.1518 14.1518 17.2966 -8.94985
606 1 15.7241 12.5794 15.7242 -8.95036
607 1 17.2966 14.1518 17.2966 -8.94965
608 1 18.8691 12.5794 15.7242 -8.94963
609 1 20.4415 14.1518 17.2966 -8.94963
610 1 22.0139 15.7242 15.7242 -8.94963
611 1 1.57242 17.2966 17.2966 -8.94963
612 1 3.14484 15.7242 15.7242 -8.94963
613 1 4.71726 17.2966 17.2966 -8.94964
614 1 6.28969 15.7242 15.7242 -8.94969
615 1 7.8621 17.2966 17.2966 -8.94958
616 1 9.43444 15.7243 15.7243 -8.9489
617 1 11.007 17.2966 17.2966 -8.94967
618 1 12.5795 15.7243 15.7243 -8.949
619 1 14.1518 17.2966 17.2966 -8.94959
620 1 15.7242 15.7242 15.7242 -8.94964
621 1 17.2966 17.2966 17.2966 -8.94964
622 1 18.8691 15.7242 15.7242 -8.94962
623 1 20.4415 17.2966 17.2966 -8.94963
624 1 22.0139 18.8691 15.7242 -8.94963
625 1 1.57242 20.4415 17.2966 -8.94963
626 1 3.14484 18.8691 15.7242 -8.94963
627 1 4.71726 20.4415 17.2966 -8.94963
628 1 6.28969 18.8691 15.7242 -8.94964
629 1 7.86211 20.4415 17.2966 -8.94963
630 1 9.43453 18.8691 15.7242 -8.94965
631 1 11.007 20.4415 17.2966 -8.94963
632 1 12.5794 18.8691 15.7242 -8.94965
633 1 14.1518 20.4415 17.2966 -8.94963
634 1 15.7242 18.8691 15.7242 -8.94963
635 1 17.2966 20.4415 17.2966 -8.94963
636 1 18.8691 18.8691 15.7242 -8.94963
637 1 20.4415 20.4415 17.2966 -8.94963
387 1 12.5794 18.8691 22.0139 -8.94963
673 1 22.0139 18.8691 18.8691 -8.94963
640 1 7.86211 11.007 20.4415 -8.94963
641 1 11.007 11.007 20.4415 -8.94972
642 1 14.1518 11.007 20.4415 -8.94963
672 1 20.4415 17.2966 20.4415 -8.94963
385 1 9.43453 18.8691 22.0139 -8.94963
645 1 22.0139 12.5794 18.8691 -8.94963
646 1 1.57242 14.1518 20.4415 -8.94963
647 1 3.14484 12.5794 18.8691 -8.94963
648 1 4.71726 14.1518 20.4415 -8.94963
649 1 6.28968 12.5794 18.8691 -8.94961
650 1 7.86211 14.1518 20.4415 -8.94963
651 1 9.43452 12.5794 18.869 -8.94938
652 1 11.007 14.1518 20.4415 -8.94967
653 1 12.5794 12.5794 18.869 -8.9494
654 1 14.1518 14.1518 20.4415 -8.94963
655 1 15.7242 12.5794 18.8691 -8.94961
656 1 17.2966 14.1518 20.4415 -8.94963
657 1 18.8691 12.5794 18.8691 -8.94963
658 1 20.4415 14.1518 20.4415 -8.94963
659 1 22.0139 15.7242 18.8691 -8.94963
660 1 1.57242 17.2966 20.4415 -8.94963
661 1 3.14484 15.7242 18.8691 -8.94963
662 1 4.71726 17.2966 20.4415 -8.94963
663 1 6.28969 15.7242 18.8691 -8.94964
664 1 7.86211 17.2966 20.4415 -8.94963
665 1 9.43453 15.7242 18.8691 -8.94964
666 1 11.007 17.2966 20.4415 -8.94963
353 1 3.14484 12.5794 22.0139 -8.94963
11 1 15.7242 22.0139 22.0139 -8.94963
357 1 9.43453 12.5794 22.0139 -8.94963
359 1 12.5794 12.5794 22.0139 -8.94965
363 1 18.8691 12.5794 22.0139 -8.94963
365 1 22.0139 15.7242 22.0139 -8.94963
369 1 6.28969 15.7242 22.0139 -8.94963
375 1 15.7242 15.7242 22.0139 -8.94963
5 1 6.28969 22.0139 22.0139 -8.94963
381 1 3.14484 18.8691 22.0139 -8.94963
595 1 20.4415 11.007 17.2966 -8.94963
246 1 2.40046e-10 22.0139 15.7242 -8.94963
589 1 1.57242 11.007 17.2966 -8.94963
351 1 22.0139 12.5794 22.0139 -8.94963
538 1 17.2966 20.4415 11.007 -8.94963
532 1 20.4415 17.2966 11.007 -8.94963
535 1 7.86211 20.4415 11.007 -8.94966
536 1 11.007 20.4415 11.007 -8.9499
1 1 22.0139 22.0139 22.0139 -8.94963
