ITEM: TIMESTEP
74
ITEM: NUMBER OF ATOMS
688
ITEM: BOX BOUNDS pp pp pp
0.0000000000000000e+00 2.2013900999999997e+01
0.0000000000000000e+00 2.2013900999999997e+01
0.0000000000000000e+00 2.2013900999999997e+01
ITEM: ATOMS id type x y z c_pot
518 1 20.4424 11.0068 11.0067 -8.94991
2 1 1.57225 1.57232 1.57225 -8.94935
448 1 20.4422 11.0069 7.86206 -8.94977
4 1 4.71717 1.57229 1.57224 -8.9497
447 1 17.3 11.0069 7.86217 -8.95195
6 1 7.86207 1.57227 1.57222 -8.94957
7 1 9.43452 1.33749e-05 -6.69515e-05 -8.94962
8 1 11.007 1.57225 1.5722 -8.94959
9 1 12.5794 1.25072e-05 -6.34888e-05 -8.94962
10 1 14.1519 1.57226 1.57225 -8.94956
446 1 14.1636 11.0068 7.85398 -8.97269
12 1 17.2968 1.57222 1.57224 -8.94955
13 1 18.8691 7.0755e-06 -5.92897e-05 -8.94954
14 1 20.4415 1.57236 1.57237 -8.94962
444 1 7.88124 11.0074 7.87143 -8.89166
16 1 1.5723 4.71719 1.57225 -8.94978
443 1 4.71842 11.0068 7.86205 -8.94105
18 1 4.71667 4.7167 1.57153 -8.94951
442 1 1.57185 11.0069 7.86169 -8.94809
20 1 7.86193 4.71674 1.57174 -8.94925
105 1 9.43468 0.00012283 6.2893 -8.94996
22 1 11.0069 4.71665 1.57175 -8.94946
107 1 12.5795 8.18267e-05 6.2895 -8.95013
24 1 14.152 4.71663 1.57178 -8.94976
517 1 17.3012 11.0062 11.0058 -8.9508
26 1 17.2974 4.71649 1.57174 -8.94846
397 1 14.1607 11.0069 4.70837 -8.94288
28 1 20.4417 4.7171 1.57226 -8.94957
396 1 11.0116 11.0072 4.71954 -9.00068
30 1 1.57231 7.86208 1.57224 -8.9495
395 1 7.86426 11.0068 4.71941 -8.9463
32 1 4.71703 7.86226 1.57206 -8.94966
188 1 17.2974 4.71648 11.0069 -8.94905
34 1 7.86179 7.86192 1.57095 -8.95188
35 1 9.43431 6.2892 -0.000453107 -8.94956
36 1 11.0066 7.86134 1.57054 -8.95019
37 1 12.5794 6.28922 -0.000457322 -8.94958
38 1 14.153 7.86089 1.56974 -8.9514
183 1 1.57154 4.71669 11.0071 -8.94937
40 1 17.2974 7.86172 1.57169 -8.9494
350 1 20.4417 11.0069 1.57221 -8.94958
42 1 20.4417 7.86202 1.57222 -8.94954
345 1 4.71683 11.0069 1.57184 -8.94965
44 1 3.14465 9.4345 -0.000142418 -8.94958
349 1 17.2975 11.0069 1.57166 -8.94953
348 1 14.1533 11.0069 1.56951 -8.94947
347 1 11.0068 11.0069 1.57137 -8.94711
346 1 7.86185 11.0069 1.57222 -8.9484
344 1 1.57227 11.0069 1.57219 -8.94963
181 1 17.2969 1.57222 11.0069 -8.94959
51 1 1.57221 1.57228 4.71714 -8.94962
175 1 18.8704 9.43387 9.43422 -8.94821
53 1 4.71673 1.57183 4.7167 -8.94982
54 1 6.28963 3.78655e-05 3.14458 -8.94962
55 1 7.86209 1.57191 4.71682 -8.94958
174 1 15.7255 9.43324 9.43345 -8.94137
57 1 11.0071 1.57188 4.71679 -8.94957
173 1 12.5683 9.43578 9.42728 -8.94834
59 1 14.1521 1.57184 4.71699 -8.95034
60 1 15.7244 1.90484e-05 3.14465 -8.94989
61 1 17.2968 1.5723 4.71721 -8.94961
172 1 9.36378 9.2121 9.44635 -8.15729
63 1 20.4415 1.57236 4.71723 -8.9496
64 1 22.0137 3.14468 3.14469 -8.94957
65 1 1.57159 4.71676 4.71674 -8.94963
66 1 3.14414 3.14422 3.14413 -8.94856
67 1 4.71448 4.71459 4.71445 -8.94539
68 1 6.28945 3.14423 3.14424 -8.94974
69 1 7.86156 4.71518 4.71563 -8.94937
70 1 9.4345 3.14416 3.14424 -8.94947
71 1 11.0072 4.71512 4.71567 -8.94806
72 1 12.5795 3.14412 3.1443 -8.94926
73 1 14.1537 4.71389 4.71537 -8.95018
74 1 15.7248 3.14386 3.14422 -8.94953
75 1 17.2973 4.71661 4.71704 -8.95002
76 1 18.8692 3.14464 3.14474 -8.94974
77 1 20.4415 4.71705 4.71715 -8.94972
78 1 22.0139 6.28959 3.14465 -8.94975
79 1 1.57202 7.86213 4.71694 -8.94969
80 1 3.14433 6.28958 3.14433 -8.95019
81 1 4.7159 7.86229 4.71622 -8.95127
82 1 6.28789 6.28804 3.14178 -8.9501
83 1 7.85773 7.8577 4.70941 -8.95397
84 1 9.4341 6.28814 3.14275 -8.94803
85 1 11.0069 7.85853 4.7106 -8.95082
86 1 12.5798 6.28801 3.1426 -8.94939
87 1 14.1629 7.85141 4.70616 -8.93111
88 1 15.7273 6.2866 3.14183 -8.94497
89 1 17.2999 7.86052 4.71567 -8.95065
90 1 18.87 6.28912 3.14428 -8.94963
91 1 20.4421 7.86187 4.71697 -8.95006
92 1 2.6401e-05 9.43447 3.14457 -8.94957
93 1 3.14434 9.43449 3.14427 -8.9491
94 1 6.28942 9.43519 3.14429 -8.94929
95 1 9.4348 9.43464 3.14372 -8.95061
96 1 12.5815 9.43333 3.13757 -8.95884
97 1 15.7268 9.43354 3.14216 -8.94794
98 1 18.87 9.43433 3.14424 -8.94935
99 1 22.0138 1.33115e-05 6.28965 -8.94963
100 1 1.57218 1.57227 7.86206 -8.9496
101 1 3.14451 4.5971e-05 6.28954 -8.94952
102 1 4.71664 1.57177 7.86188 -8.94943
171 1 6.28123 9.42776 9.43443 -8.97008
104 1 7.86188 1.57124 7.86182 -8.95114
170 1 3.14216 9.43465 9.43422 -8.9509
106 1 11.0071 1.5719 7.86198 -8.94941
169 1 22.0135 9.43445 9.4344 -8.94972
108 1 14.1522 1.57209 7.86198 -8.94955
168 1 18.8698 6.28899 9.43446 -8.94955
110 1 17.2969 1.57223 7.86207 -8.9496
111 1 18.8692 1.4987e-05 6.28965 -8.94963
112 1 20.4415 1.57234 7.86209 -8.94962
113 1 -0.000180563 3.14465 6.2896 -8.94955
114 1 1.57156 4.71671 7.8619 -8.94938
115 1 3.14412 3.14417 6.28932 -8.94941
116 1 4.71484 4.71485 7.86114 -8.94811
117 1 6.28849 3.14231 6.28846 -8.95103
118 1 7.85971 4.71032 7.86067 -8.95742
119 1 9.43478 3.14292 6.28887 -8.95012
120 1 11.0067 4.71531 7.86195 -8.95072
121 1 12.5797 3.14309 6.28937 -8.95194
122 1 14.1527 4.71576 7.86216 -8.9488
123 1 15.7246 3.14426 6.28966 -8.9495
124 1 17.2973 4.71653 7.86199 -8.94918
125 1 18.8692 3.14462 6.28963 -8.94952
126 1 20.4415 4.71697 7.86203 -8.94959
127 1 22.0134 6.2894 6.28944 -8.95
128 1 1.57065 7.86182 7.8618 -8.95129
129 1 3.14195 6.28833 6.28825 -8.95058
130 1 4.70895 7.85923 7.85992 -8.95699
131 1 6.27962 6.27991 6.28002 -8.93273
132 1 7.82678 7.83032 7.83346 -8.86467
133 1 9.43427 6.28322 6.2862 -8.95098
134 1 11.0199 7.85549 7.84242 -8.90734
135 1 12.5842 6.2808 6.28454 -8.95436
136 1 14.1568 7.85945 7.86267 -8.94933
137 1 15.7262 6.28805 6.28934 -8.9505
138 1 17.2986 7.86113 7.86222 -8.94945
139 1 18.8697 6.28924 6.2896 -8.9496
140 1 20.4418 7.86177 7.862 -8.94983
141 1 22.0139 9.43451 6.28942 -8.94987
142 1 3.14364 9.43502 6.28909 -8.9496
143 1 6.28728 9.43698 6.28925 -8.95231
144 1 9.42326 9.41583 6.28605 -8.90765
145 1 12.6181 9.4026 6.25422 -8.86044
146 1 15.7336 9.43201 6.28612 -8.9573
147 1 18.8711 9.43425 6.28932 -8.95149
167 1 15.7262 6.28757 9.43421 -8.94705
166 1 12.5794 6.2881 9.43287 -8.94488
150 1 6.28916 0.00013527 9.4345 -8.9501
165 1 9.42944 6.2895 9.43402 -8.99822
164 1 6.2813 6.28154 9.43442 -8.94363
153 1 15.7245 4.25932e-05 9.43451 -8.94965
163 1 3.14181 6.28812 9.43445 -8.94915
155 1 22.0137 3.14463 9.43452 -8.94958
156 1 3.14407 3.14413 9.4345 -8.94955
157 1 6.28813 3.14207 9.43444 -8.94945
158 1 9.43436 3.14315 9.43421 -8.94727
159 1 12.5799 3.14377 9.43418 -8.94879
160 1 15.7248 3.14407 9.43444 -8.94961
161 1 18.8693 3.14456 9.43451 -8.94961
162 1 -0.000545548 6.2893 9.4345 -8.94986
177 1 4.71662 1.57175 11.0071 -8.94942
184 1 4.71476 4.71474 11.0078 -8.94802
48 1 15.7248 9.43432 -0.000664659 -8.94944
189 1 20.4415 4.71695 11.007 -8.94958
3 1 3.14479 9.81824e-06 -5.45441e-05 -8.94967
19 1 6.28961 3.14466 -0.000137613 -8.94956
25 1 15.7243 3.14464 -0.000121003 -8.94971
29 1 22.0139 6.28966 -5.1204e-05 -8.9496
176 1 1.57217 1.57226 11.007 -8.9496
644 1 20.4416 11.007 20.4415 -8.94962
178 1 7.86189 1.5711 11.007 -8.95116
179 1 11.0071 1.5716 11.0069 -8.95078
180 1 14.1522 1.572 11.0068 -8.94941
643 1 17.297 11.007 20.4416 -8.94954
182 1 20.4415 1.57234 11.007 -8.94962
639 1 4.71701 11.007 20.4416 -8.94967
638 1 1.57234 11.0069 20.4415 -8.94962
185 1 7.85972 4.7097 11.0081 -8.95815
186 1 11.0068 4.71195 11.007 -8.95612
187 1 14.1526 4.71561 11.0061 -8.94895
295 1 22.0139 9.37201e-06 18.8691 -8.94951
39 1 15.7248 6.28909 22.0133 -8.9499
190 1 1.57058 7.86182 11.0071 -8.95146
191 1 4.70843 7.85903 11.009 -8.95775
192 1 7.8242 7.82696 11.0394 -8.85699
193 1 11.0226 7.83626 11.029 -8.92698
194 1 14.1565 7.85888 11.0045 -8.95335
195 1 17.2986 7.86108 11.0063 -8.94955
196 1 20.4418 7.86177 11.0069 -8.94987
197 1 22.0138 1.47282e-05 12.5794 -8.94962
198 1 1.5722 1.57228 14.1519 -8.94962
343 1 18.8694 9.4345 18.8693 -8.94963
200 1 4.71669 1.57175 14.1523 -8.94989
201 1 6.28931 0.000109023 12.5797 -8.95044
202 1 7.8619 1.57173 14.1524 -8.94964
203 1 9.43449 0.000320867 12.5798 -8.95016
204 1 11.0071 1.57163 14.1524 -8.9496
205 1 12.5797 0.000238016 12.5796 -8.95033
206 1 14.1523 1.57161 14.1522 -8.95044
207 1 15.7245 3.8559e-05 12.5794 -8.94954
208 1 17.2968 1.57226 14.1518 -8.94969
342 1 15.7249 9.43437 18.8701 -8.94976
210 1 20.4415 1.57236 14.1518 -8.9496
211 1 -0.000182898 3.14464 12.5794 -8.94954
212 1 1.57151 4.71671 14.1523 -8.94967
213 1 3.14408 3.14414 12.5797 -8.94942
214 1 4.71412 4.71425 14.1548 -8.94504
215 1 6.28838 3.14205 12.5805 -8.95124
216 1 7.86092 4.71403 14.154 -8.94911
217 1 9.43452 3.14201 12.5804 -8.95034
218 1 11.0073 4.71375 14.1539 -8.94817
219 1 12.58 3.14206 12.5799 -8.9524
220 1 14.1546 4.71252 14.1544 -8.9496
221 1 15.7247 3.14416 12.5792 -8.94961
222 1 17.2975 4.71646 14.152 -8.95021
223 1 18.8693 3.1446 12.5794 -8.9495
224 1 20.4415 4.71702 14.1519 -8.94976
225 1 22.0134 6.28938 12.5796 -8.95008
226 1 1.57189 7.86207 14.1521 -8.94974
227 1 3.14168 6.28821 12.5808 -8.95075
228 1 4.71525 7.862 14.153 -8.95182
229 1 6.27838 6.27873 12.5898 -8.93092
230 1 7.85512 7.85449 14.1628 -8.95209
231 1 9.43297 6.27955 12.5849 -8.94909
232 1 11.0072 7.85422 14.1616 -8.95156
233 1 12.5865 6.27638 12.5865 -8.95135
234 1 14.1659 7.84791 14.1656 -8.92642
235 1 15.7267 6.28771 12.5793 -8.95116
236 1 17.3006 7.86014 14.1535 -8.95124
237 1 18.8698 6.2892 12.5793 -8.94969
238 1 20.4422 7.86179 14.1521 -8.95015
239 1 22.0139 9.43444 12.5796 -8.94988
240 1 3.14316 9.43493 12.5799 -8.94952
241 1 6.28561 9.43686 12.5802 -8.95358
242 1 9.41721 9.40802 12.5947 -8.95825
243 1 12.6248 9.39304 12.6231 -8.89359
244 1 15.7353 9.4315 12.5828 -8.95891
245 1 18.8716 9.43414 12.5796 -8.9516
47 1 12.5795 9.43438 22.0128 -8.95147
247 1 1.57223 1.57231 17.2968 -8.94935
248 1 3.14454 3.30312e-05 15.7245 -8.94957
249 1 4.7171 1.57225 17.2969 -8.94965
341 1 12.5797 9.43409 18.8715 -8.95184
251 1 7.86203 1.5722 17.2969 -8.94959
252 1 9.43452 5.69908e-05 15.7246 -8.94964
253 1 11.007 1.57218 17.297 -8.9496
254 1 12.5795 4.31963e-05 15.7246 -8.94959
255 1 14.1519 1.57218 17.2969 -8.94959
340 1 9.43409 9.4342 18.8708 -8.95007
257 1 17.2969 1.57216 17.2969 -8.94947
258 1 18.8691 1.50574e-05 15.7242 -8.94969
259 1 20.4415 1.57235 17.2967 -8.94964
260 1 22.0137 3.14467 15.7244 -8.94958
261 1 1.57226 4.71715 17.2968 -8.94981
262 1 3.14406 3.14414 15.725 -8.9485
263 1 4.71645 4.71647 17.2978 -8.94932
264 1 6.28923 3.14395 15.725 -8.94965
265 1 7.86174 4.71637 17.2977 -8.94919
266 1 9.43442 3.14379 15.725 -8.94952
267 1 11.0069 4.71626 17.2977 -8.94928
268 1 12.5796 3.14372 15.725 -8.94933
269 1 14.1522 4.71623 17.2977 -8.94971
270 1 15.7251 3.14351 15.7251 -8.94934
271 1 17.2976 4.71624 17.2976 -8.94815
272 1 18.8693 3.14459 15.7243 -8.9498
273 1 20.4417 4.71705 17.2968 -8.94959
274 1 22.014 6.28954 15.7244 -8.94979
275 1 1.57217 7.86197 17.297 -8.94945
276 1 3.14413 6.28946 15.7248 -8.95032
277 1 4.71653 7.86191 17.2975 -8.94922
278 1 6.28704 6.28709 15.7282 -8.94941
279 1 7.86098 7.86107 17.2996 -8.95112
280 1 9.43368 6.2868 15.7275 -8.94816
281 1 11.0066 7.86056 17.3 -8.94964
282 1 12.5803 6.28657 15.7277 -8.94953
283 1 14.1538 7.86004 17.3007 -8.95058
284 1 15.7282 6.28558 15.7281 -8.9437
285 1 17.2978 7.86145 17.2978 -8.94914
286 1 18.8702 6.28895 15.7249 -8.94973
287 1 20.4418 7.86193 17.297 -8.9495
288 1 1.67207e-05 9.43436 15.7246 -8.94965
289 1 3.14377 9.43419 15.7252 -8.94901
290 1 6.28775 9.43396 15.7264 -8.94773
291 1 9.43293 9.43163 15.7303 -8.94898
292 1 12.5834 9.43035 15.7358 -8.95655
293 1 15.7281 9.43271 15.7281 -8.94713
294 1 18.8705 9.43408 15.7251 -8.94924
339 1 6.28931 9.43457 18.8697 -8.94979
296 1 1.57235 1.57236 20.4415 -8.94954
338 1 3.14461 9.43451 18.8693 -8.94963
298 1 4.71722 1.57236 20.4415 -8.94961
299 1 6.28963 2.16812e-05 18.8692 -8.94961
300 1 7.86208 1.57234 20.4415 -8.94961
337 1 22.0139 9.43451 18.8692 -8.94961
302 1 11.007 1.57233 20.4415 -8.94962
336 1 20.4416 7.86208 20.4415 -8.94964
304 1 14.1518 1.57234 20.4415 -8.9496
305 1 15.7243 1.77469e-05 18.8692 -8.94963
306 1 17.2967 1.57235 20.4415 -8.94967
335 1 18.8694 6.28948 18.8693 -8.94954
308 1 20.4415 1.57238 20.4415 -8.94948
309 1 22.0139 3.14478 18.8691 -8.94964
310 1 1.57237 4.71723 20.4415 -8.94965
311 1 3.14462 3.14462 18.8693 -8.94949
312 1 4.71703 4.71705 20.4416 -8.9498
313 1 6.28956 3.14459 18.8693 -8.94953
314 1 7.86196 4.71695 20.4416 -8.94954
315 1 9.43448 3.14453 18.8693 -8.94956
316 1 11.0069 4.71691 20.4416 -8.94958
317 1 12.5794 3.14454 18.8693 -8.94954
318 1 14.1519 4.71695 20.4416 -8.94961
319 1 15.7244 3.14455 18.8693 -8.94968
320 1 17.297 4.71693 20.4416 -8.9495
321 1 18.8693 3.14461 18.8692 -8.94927
322 1 20.4416 4.7172 20.4415 -8.94961
323 1 22.0139 6.28961 18.8692 -8.94956
324 1 1.57235 7.86208 20.4415 -8.94962
325 1 3.14462 6.2896 18.8693 -8.94957
326 1 4.71706 7.8621 20.4416 -8.94963
327 1 6.28917 6.28923 18.87 -8.9501
328 1 7.8618 7.86188 20.4419 -8.9502
329 1 9.43424 6.28899 18.87 -8.94957
330 1 11.0068 7.86168 20.4419 -8.95001
331 1 12.5795 6.289 18.8701 -8.9496
332 1 14.1522 7.86165 20.4419 -8.95053
333 1 15.725 6.28889 18.8701 -8.94968
334 1 17.297 7.86196 20.4416 -8.94957
512 1 1.57153 11.0067 11.0071 -8.94828
513 1 4.71683 11.0062 11.006 -8.94003
515 1 11.0899 10.9286 11.1975 -8.44422
594 1 17.2976 11.007 17.2976 -8.94955
590 1 4.71667 11.007 17.2975 -8.94968
540 1 1.57149 11.0068 14.1525 -8.94974
541 1 4.714 11.006 14.1543 -8.94604
543 1 11.0108 10.9979 14.1669 -9.03615
545 1 17.3014 11.0063 14.1543 -8.94797
546 1 20.4425 11.0068 14.1523 -8.95001
46 1 9.4343 9.43451 22.0137 -8.94959
33 1 6.28938 6.28943 22.0135 -8.9503
45 1 6.28943 9.43459 22.0137 -8.94949
41 1 18.8693 6.28956 22.0138 -8.94963
15 1 22.0139 3.14479 22.0138 -8.94962
17 1 3.14466 3.14466 22.0137 -8.94953
31 1 3.14473 6.28969 22.0138 -8.9497
27 1 18.8693 3.14465 22.0138 -8.94933
21 1 9.4345 3.14461 22.0138 -8.94959
23 1 12.5794 3.14462 22.0138 -8.94957
43 1 22.0139 9.43451 22.0138 -8.94962
49 1 18.8693 9.43449 22.0137 -8.94959
688 3 10.1994 11.0272 9.42018 2.35445
511 1 18.8693 18.8694 9.43451 -8.94962
510 1 15.7249 18.8698 9.43453 -8.94994
509 1 12.5808 18.8717 9.4334 -8.94835
508 1 9.43361 18.8726 9.43342 -8.94694
507 1 6.28784 18.8723 9.43451 -8.94974
506 1 3.14392 18.8699 9.43452 -8.94952
50 1 -6.61638e-05 22.0139 3.14479 -8.94963
352 1 1.57229 14.1518 1.57223 -8.94951
154 1 18.8692 22.0139 9.43452 -8.94962
354 1 4.71698 14.1516 1.57197 -8.94965
152 1 12.5798 22.0143 9.43431 -8.94972
356 1 7.86174 14.152 1.57055 -8.95224
151 1 9.43454 22.0144 9.4343 -8.94938
358 1 11.0066 14.1525 1.57033 -8.95015
149 1 3.14448 22.014 9.43452 -8.94954
360 1 14.153 14.153 1.56959 -8.95136
361 1 15.7249 12.5796 -0.000693832 -8.94941
362 1 17.2974 14.1522 1.57168 -8.9494
148 1 -8.20127e-05 22.0139 9.43453 -8.94963
364 1 20.4417 14.1519 1.57222 -8.94954
109 1 15.7245 22.014 6.28955 -8.94949
366 1 1.57227 17.2967 1.57222 -8.9498
367 1 3.14471 15.7242 -0.000109619 -8.94969
368 1 4.71657 17.2973 1.57135 -8.94951
393 1 1.5719 11.0069 4.71668 -8.9495
370 1 7.86193 17.2972 1.57159 -8.94929
371 1 9.43433 15.7247 -0.00055946 -8.94966
372 1 11.007 17.2973 1.57164 -8.94945
373 1 12.5794 15.7247 -0.000540173 -8.94967
374 1 14.1521 17.2973 1.5717 -8.94983
537 1 14.1522 20.4421 11.0069 -8.94923
376 1 17.2974 17.2974 1.5717 -8.94843
377 1 18.8693 15.7243 -0.000141325 -8.94962
378 1 20.4417 17.2968 1.57225 -8.94957
103 1 6.28929 22.0141 6.28924 -8.95036
380 1 1.57223 20.4416 1.57223 -8.94932
62 1 18.8691 22.0139 3.14481 -8.94963
382 1 4.71715 20.4417 1.57221 -8.9497
383 1 6.2896 18.8693 -0.000157223 -8.94956
384 1 7.86207 20.4417 1.57219 -8.94956
58 1 12.5795 22.0139 3.14457 -8.94953
386 1 11.007 20.4417 1.57218 -8.94959
56 1 9.43455 22.0139 3.14454 -8.94959
388 1 14.1519 20.4417 1.57223 -8.94954
389 1 15.7243 18.8693 -0.00012973 -8.94971
390 1 17.2968 20.4417 1.57222 -8.94953
52 1 3.14456 22.0139 3.14455 -8.94951
392 1 20.4415 20.4415 1.57237 -8.94963
505 1 22.0137 18.8693 9.43452 -8.94958
504 1 18.87 15.725 9.43431 -8.94953
503 1 15.7268 15.7262 9.43407 -8.94866
502 1 12.5842 15.7293 9.42797 -8.97503
501 1 9.42296 15.7293 9.42826 -9.03727
500 1 6.27897 15.7339 9.43375 -8.94377
399 1 20.4421 11.0069 4.71686 -8.94984
400 1 2.12408e-05 12.5794 3.14457 -8.94958
401 1 1.57192 14.1517 4.71689 -8.94967
402 1 3.14431 12.5793 3.14424 -8.94913
403 1 4.71555 14.1515 4.71588 -8.95129
404 1 6.28929 12.5785 3.14403 -8.9492
405 1 7.85698 14.1567 4.70743 -8.9552
406 1 9.43478 12.5792 3.14324 -8.95087
407 1 11.007 14.1556 4.71001 -8.95051
408 1 12.5816 12.5806 3.13733 -8.9589
409 1 14.1632 14.1626 4.70584 -8.93027
410 1 15.7268 12.5803 3.14213 -8.94793
411 1 17.2999 14.1534 4.71564 -8.95068
412 1 18.87 12.5796 3.14423 -8.94936
413 1 20.4421 14.152 4.71695 -8.95006
414 1 22.0139 15.7243 3.14464 -8.94975
415 1 1.57143 17.2972 4.71664 -8.94966
416 1 3.14423 15.7243 3.14423 -8.95023
417 1 4.71387 17.2999 4.71381 -8.94432
418 1 6.28758 15.7261 3.14112 -8.95022
419 1 7.86145 17.2991 4.71503 -8.94957
420 1 9.43418 15.7259 3.1423 -8.94811
421 1 11.0074 17.2991 4.7153 -8.94759
422 1 12.5799 15.726 3.14232 -8.94956
423 1 14.1539 17.3002 4.715 -8.95035
424 1 15.7274 15.7273 3.14172 -8.94477
425 1 17.2973 17.2973 4.71703 -8.95017
426 1 18.87 15.7248 3.14426 -8.94964
427 1 20.4415 17.2969 4.71713 -8.94975
428 1 22.0137 18.8692 3.14466 -8.94957
429 1 1.57218 20.4417 4.71712 -8.9496
430 1 3.14401 18.8698 3.144 -8.94832
431 1 4.71662 20.4423 4.71659 -8.94971
432 1 6.28939 18.8698 3.14407 -8.94978
433 1 7.86209 20.4422 4.71674 -8.94963
434 1 9.43453 18.8699 3.14412 -8.94941
435 1 11.0072 20.4422 4.71672 -8.94956
436 1 12.5795 18.8699 3.14421 -8.94918
437 1 14.1521 20.4421 4.71694 -8.95043
438 1 15.7249 18.8701 3.14412 -8.94952
439 1 17.2968 20.4417 4.71717 -8.9495
440 1 18.8692 18.8693 3.14473 -8.94979
441 1 20.4415 20.4416 4.71721 -8.94958
499 1 3.14105 15.7261 9.43426 -8.94898
498 1 -0.000654875 15.7247 9.43443 -8.94991
497 1 18.8701 12.5798 9.43438 -8.94804
445 1 11.0934 11.0106 7.64235 -8.145
496 1 15.7244 12.5795 9.43433 -8.94134
495 1 12.5646 12.5707 9.43062 -8.92944
494 1 9.34418 12.8237 9.43188 -8.11058
449 1 22.0138 12.5793 6.2894 -8.94989
450 1 1.57035 14.152 7.86178 -8.9517
451 1 3.14337 12.5787 6.28896 -8.94952
452 1 4.70722 14.1549 7.85932 -8.95857
453 1 6.2863 12.5763 6.28843 -8.95119
454 1 7.81901 14.1899 7.82522 -8.84324
455 1 9.42178 12.5999 6.28416 -8.91076
456 1 11.0213 14.1588 7.84164 -8.96141
457 1 12.619 12.6121 6.25345 -8.85566
458 1 14.1563 14.1528 7.86326 -8.95131
459 1 15.7338 12.5817 6.28612 -8.95713
460 1 17.2985 14.1525 7.86232 -8.9498
461 1 18.8712 12.5796 6.28931 -8.95147
462 1 20.4417 14.152 7.86202 -8.94993
463 1 22.0133 15.7245 6.28941 -8.95012
464 1 1.57135 17.2973 7.86182 -8.94933
465 1 3.14136 15.7258 6.28796 -8.95086
466 1 4.71408 17.2996 7.86082 -8.9479
467 1 6.27728 15.7362 6.27757 -8.928
468 1 7.85797 17.3061 7.85893 -8.9564
469 1 9.43442 15.7316 6.28462 -8.95256
470 1 11.0067 17.2992 7.86169 -8.95072
471 1 12.5847 15.7336 6.28351 -8.95595
472 1 14.154 17.2991 7.861 -8.94615
473 1 15.7262 15.7256 6.28945 -8.95097
474 1 17.2976 17.2975 7.86187 -8.94937
475 1 18.8697 15.7246 6.2896 -8.94968
476 1 20.4416 17.297 7.86197 -8.94959
477 1 -0.000210692 18.8693 6.28956 -8.94952
478 1 1.57215 20.4417 7.86206 -8.9496
479 1 3.14393 18.8699 6.28922 -8.94935
480 1 4.71655 20.4423 7.86187 -8.94951
481 1 6.28799 18.8724 6.28795 -8.95068
482 1 7.86162 20.4435 7.86157 -8.95123
483 1 9.43486 18.8714 6.2886 -8.95025
484 1 11.0071 20.4425 7.86188 -8.94914
485 1 12.5798 18.871 6.2892 -8.95221
486 1 14.1525 20.4424 7.86174 -8.94935
487 1 15.7249 18.8699 6.2894 -8.94888
488 1 17.2969 20.4417 7.86207 -8.9497
489 1 18.8693 18.8693 6.28958 -8.94951
490 1 20.4415 20.4416 7.86208 -8.94962
491 1 22.0134 12.5793 9.43444 -8.94968
492 1 3.14182 12.5789 9.43435 -8.95119
493 1 6.27946 12.5869 9.43425 -8.97416
516 1 14.1654 11.0031 11.0109 -9.02617
522 1 11.0191 14.2199 11.0011 -9.16204
523 1 14.1549 14.1531 11.0027 -9.00653
524 1 17.2991 14.153 11.0058 -8.94783
525 1 20.4419 14.1522 11.0068 -8.94989
526 1 1.5714 17.2973 11.0071 -8.94932
527 1 4.71432 17.2996 11.0079 -8.94767
530 1 14.1524 17.2981 11.0066 -8.94929
531 1 17.2974 17.2975 11.0069 -8.94903
394 1 4.71593 11.0067 4.71569 -8.94668
398 1 17.2999 11.0069 4.71552 -8.94901
355 1 6.28941 12.5793 -0.000222938 -8.94947
379 1 22.0139 18.8691 -5.74909e-05 -8.94964
687 2 11.002 12.5977 11.7643 0.846319
686 1 20.4415 20.4415 20.4415 -8.94948
514 1 7.87768 11.0063 10.9967 -8.94913
685 1 18.8693 18.8693 18.8692 -8.94929
307 1 18.8691 22.0139 18.8692 -8.94953
684 1 17.2967 20.4416 20.4415 -8.94966
683 1 15.7244 18.8693 18.8693 -8.94962
519 1 1.57011 14.1521 11.007 -8.95168
520 1 4.70627 14.1556 11.0086 -8.95685
521 1 7.81867 14.191 11.0402 -8.89968
303 1 12.5794 22.0139 18.8692 -8.9496
301 1 9.43451 22.0139 18.8692 -8.94961
297 1 3.14477 22.0139 18.8691 -8.94966
391 1 18.8693 18.8692 22.0138 -8.94935
256 1 15.7245 22.0139 15.7245 -8.94981
250 1 6.2895 22.014 15.7246 -8.94956
528 1 7.85956 17.3052 11.0085 -8.95923
529 1 11.0067 17.31 11.0064 -8.96849
209 1 18.8692 22.0139 12.5794 -8.9496
199 1 3.1445 22.0139 12.5795 -8.94949
671 1 18.8693 15.7244 18.8693 -8.94964
533 1 1.57215 20.4417 11.007 -8.94959
534 1 4.71655 20.4423 11.0072 -8.94939
670 1 17.2969 17.2969 20.4415 -8.9496
669 1 15.7248 15.7248 18.8699 -8.95009
668 1 14.1519 17.2969 20.4416 -8.94963
667 1 12.5794 15.7248 18.87 -8.9499
539 1 20.4415 20.4416 11.007 -8.94962
682 1 14.1518 20.4416 20.4415 -8.9496
681 1 12.5794 18.8694 18.8694 -8.94954
542 1 7.85971 11.0023 14.1546 -8.97625
680 1 11.007 20.4416 20.4415 -8.94962
544 1 14.1627 11.0031 14.1629 -8.97314
679 1 9.43448 18.8694 18.8694 -8.94956
678 1 7.86207 20.4416 20.4415 -8.94961
547 1 22.0138 12.5794 12.5796 -8.95061
548 1 1.57156 14.1519 14.1523 -8.94987
549 1 3.14165 12.5788 12.58 -8.95231
550 1 4.71387 14.1525 14.1539 -8.95034
551 1 6.27654 12.5768 12.5808 -8.96378
552 1 7.85368 14.1607 14.1642 -8.98643
553 1 9.37639 12.5943 12.6036 -9.18614
554 1 11.0071 14.1578 14.1604 -8.98573
555 1 12.6503 12.5995 12.6235 -9.13253
556 1 14.1634 14.1639 14.1631 -8.96539
557 1 15.7412 12.5812 12.5824 -8.96602
558 1 17.3009 14.154 14.154 -8.94943
559 1 18.8725 12.5796 12.5796 -8.95371
560 1 20.4423 14.1522 14.1522 -8.95016
561 1 22.0133 15.7246 12.5796 -8.95005
562 1 1.57141 17.2973 14.1524 -8.94965
563 1 3.14119 15.7259 12.5809 -8.95071
564 1 4.71378 17.3 14.1551 -8.94478
565 1 6.27684 15.736 12.5907 -8.92941
566 1 7.86075 17.3003 14.1544 -8.94948
567 1 9.43175 15.7331 12.5858 -8.99907
568 1 11.0074 17.2997 14.1534 -8.94877
569 1 12.5867 15.7339 12.5867 -8.99941
570 1 14.1544 17.3009 14.1542 -8.94975
571 1 15.7265 15.7254 12.579 -8.95225
572 1 17.2974 17.2974 14.152 -8.9505
573 1 18.8698 15.7247 12.5793 -8.94964
574 1 20.4415 17.2969 14.1519 -8.94976
575 1 -0.000206271 18.8693 12.5795 -8.94954
576 1 1.57218 20.4417 14.1519 -8.94961
577 1 3.14396 18.8699 12.5798 -8.94936
578 1 4.71662 20.4423 14.1524 -8.94993
579 1 6.28816 18.8722 12.5807 -8.95139
580 1 7.86177 20.4426 14.1525 -8.94946
581 1 9.434 18.8728 12.581 -8.94838
582 1 11.0072 20.4424 14.1524 -8.94945
583 1 12.5806 18.8722 12.5804 -8.95
584 1 14.1524 20.4425 14.1523 -8.95017
585 1 15.7248 18.8697 12.5793 -8.94961
586 1 17.2969 20.4417 14.1518 -8.94972
587 1 18.8693 18.8693 12.5794 -8.94949
588 1 20.4415 20.4416 14.1518 -8.94959
677 1 6.28954 18.8693 18.8694 -8.94951
676 1 4.71721 20.4416 20.4415 -8.94961
591 1 7.86178 11.0072 17.2978 -8.94993
592 1 11.0068 11.0068 17.3009 -8.95225
593 1 14.1532 11.0073 17.2999 -8.95064
675 1 3.14457 18.8693 18.8694 -8.94942
674 1 1.57234 20.4416 20.4415 -8.94951
596 1 5.13088e-06 12.5794 15.7246 -8.94951
597 1 1.57223 14.1518 17.2969 -8.94945
598 1 3.14397 12.5794 15.725 -8.94883
599 1 4.71684 14.1517 17.2973 -8.94973
600 1 6.2887 12.5787 15.7252 -8.94915
601 1 7.86169 14.1521 17.299 -8.95326
602 1 9.43532 12.5798 15.7249 -8.99876
603 1 11.0067 14.1525 17.2991 -8.95091
604 1 12.5803 12.5808 15.729 -9.00249
605 1 14.1528 14.1529 17.2993 -8.95208
606 1 15.727 12.5804 15.7268 -8.94825
607 1 17.2975 14.1522 17.2975 -8.94948
608 1 18.8702 12.5796 15.725 -8.94909
609 1 20.4417 14.1519 17.2969 -8.9495
610 1 22.0139 15.7244 15.7245 -8.94978
611 1 1.57217 17.2968 17.2969 -8.94972
612 1 3.14378 15.7247 15.7251 -8.95002
613 1 4.71628 17.2976 17.298 -8.94907
614 1 6.28656 15.7272 15.7289 -8.94855
615 1 7.86175 17.2975 17.2978 -8.94907
616 1 9.43405 15.7269 15.7277 -8.94791
617 1 11.007 17.2976 17.2978 -8.94886
618 1 12.5802 15.7269 15.7276 -8.94924
619 1 14.1523 17.2976 17.2977 -8.9495
620 1 15.7277 15.7278 15.7277 -8.94451
621 1 17.2976 17.2976 17.2975 -8.94831
622 1 18.8703 15.725 15.725 -8.94943
623 1 20.4418 17.2969 17.2969 -8.94951
624 1 22.0137 18.8693 15.7244 -8.94959
625 1 1.57221 20.4416 17.2968 -8.94935
626 1 3.14397 18.8699 15.725 -8.94844
627 1 4.71707 20.4417 17.2969 -8.94966
628 1 6.28916 18.8702 15.7252 -8.94964
629 1 7.86202 20.4418 17.297 -8.94961
630 1 9.43452 18.8702 15.7252 -8.94981
631 1 11.007 20.4418 17.297 -8.94955
632 1 12.5796 18.8702 15.7251 -8.94961
633 1 14.1519 20.4418 17.2969 -8.9496
634 1 15.7251 18.8703 15.725 -8.94934
635 1 17.2969 20.4418 17.2969 -8.94949
636 1 18.8693 18.8693 15.7243 -8.94984
637 1 20.4415 20.4416 17.2967 -8.94965
387 1 12.5794 18.8693 22.0138 -8.94955
673 1 22.0139 18.8691 18.8692 -8.94959
640 1 7.86181 11.007 20.4417 -8.94936
641 1 11.0067 11.007 20.4421 -8.94978
642 1 14.1523 11.007 20.4417 -8.95012
672 1 20.4416 17.2967 20.4415 -8.94965
385 1 9.4345 18.8693 22.0137 -8.94958
645 1 22.0139 12.5794 18.8692 -8.94962
646 1 1.57234 14.1518 20.4415 -8.9496
647 1 3.1446 12.5794 18.8693 -8.94958
648 1 4.71706 14.1518 20.4416 -8.94955
649 1 6.28928 12.5793 18.8696 -8.94929
650 1 7.86188 14.1519 20.4417 -8.95027
651 1 9.43419 12.5796 18.87 -8.94844
652 1 11.0068 14.1521 20.4416 -8.9501
653 1 12.5796 12.5797 18.8705 -8.94986
654 1 14.1521 14.1521 20.4416 -8.95037
655 1 15.7249 12.5797 18.8699 -8.94929
656 1 17.297 14.1519 20.4415 -8.94949
657 1 18.8694 12.5794 18.8693 -8.94958
658 1 20.4416 14.1518 20.4415 -8.94962
659 1 22.0139 15.7242 18.8692 -8.94959
660 1 1.57237 17.2967 20.4415 -8.9497
661 1 3.14468 15.7242 18.8693 -8.94973
662 1 4.71702 17.2969 20.4416 -8.94991
663 1 6.2893 15.7245 18.87 -8.9506
664 1 7.86196 17.297 20.4416 -8.94957
665 1 9.43434 15.7248 18.87 -8.94985
666 1 11.0069 17.297 20.4416 -8.94956
353 1 3.14465 12.5794 22.0138 -8.94959
11 1 15.7242 22.0139 22.0139 -8.94962
357 1 9.43431 12.5794 22.0135 -8.94941
359 1 12.5795 12.5795 22.0126 -8.95121
363 1 18.8693 12.5794 22.0137 -8.94959
365 1 22.0139 15.7242 22.0138 -8.9496
369 1 6.28936 15.7245 22.0133 -8.95043
375 1 15.7248 15.7248 22.0132 -8.9499
5 1 6.28966 22.0139 22.0138 -8.94961
381 1 3.14463 18.8693 22.0137 -8.94953
595 1 20.4417 11.007 17.2969 -8.94953
246 1 -6.57313e-05 22.0139 15.7243 -8.94964
589 1 1.57221 11.0069 17.297 -8.94956
351 1 22.0139 12.5794 22.0138 -8.94962
538 1 17.2969 20.4417 11.007 -8.94959
532 1 20.4415 17.297 11.007 -8.94958
535 1 7.86185 20.4433 11.0071 -8.95113
536 1 11.0071 20.444 11.007 -8.95284
1 1 22.0139 22.0139 22.0139 -8.94949
