ITEM: TIMESTEP
115
ITEM: NUMBER OF ATOMS
688
ITEM: BOX BOUNDS pp pp pp
0.0000000000000000e+00 2.2013900999999997e+01
0.0000000000000000e+00 2.2013900999999997e+01
0.0000000000000000e+00 2.2013900999999997e+01
ITEM: ATOMS id type x y z c_pot
518 1 20.4426 11.0068 11.0067 -8.94973
2 1 1.57204 1.57223 1.57205 -8.94923
448 1 20.4424 11.0069 7.86198 -8.94957
4 1 4.71697 1.57216 1.57198 -8.94966
447 1 17.3002 11.0069 7.86201 -8.95183
6 1 7.862 1.57214 1.57198 -8.94951
7 1 9.4345 3.26706e-05 -0.000164535 -8.94958
8 1 11.007 1.5721 1.57198 -8.94954
9 1 12.5794 2.75001e-05 -0.000150612 -8.94957
10 1 14.152 1.57208 1.57206 -8.94952
446 1 14.1632 11.0069 7.85326 -8.97301
12 1 17.2971 1.57202 1.57205 -8.94952
13 1 18.8693 1.37016e-05 -0.000140873 -8.94944
14 1 20.4415 1.57226 1.57227 -8.94957
444 1 7.8838 11.0079 7.8731 -8.89032
16 1 1.57216 4.71707 1.57204 -8.94982
443 1 4.71941 11.0069 7.8625 -8.94059
18 1 4.7163 4.7164 1.57111 -8.94952
442 1 1.57199 11.0068 7.86163 -8.94774
20 1 7.86173 4.71642 1.57139 -8.94919
105 1 9.43469 0.000274121 6.28905 -8.95004
22 1 11.0069 4.71627 1.57141 -8.94941
107 1 12.5797 0.000186511 6.28938 -8.95021
24 1 14.1523 4.71611 1.57133 -8.94972
517 1 17.3014 11.006 11.0059 -8.9506
26 1 17.2979 4.71598 1.57136 -8.94828
397 1 14.1623 11.0069 4.70707 -8.94248
28 1 20.4419 4.7169 1.57208 -8.94955
396 1 11.0123 11.0074 4.72096 -9.00107
30 1 1.57226 7.86204 1.57208 -8.94944
395 1 7.86484 11.007 4.7204 -8.94574
32 1 4.71692 7.8623 1.57195 -8.94969
188 1 17.2978 4.71606 11.0068 -8.94895
34 1 7.86175 7.86189 1.57087 -8.95217
35 1 9.43416 6.28895 -0.000530059 -8.9496
36 1 11.0066 7.86112 1.57021 -8.95046
37 1 12.5795 6.28889 -0.000633128 -8.94967
38 1 14.1534 7.86051 1.56906 -8.95162
183 1 1.57098 4.71628 11.0072 -8.94932
40 1 17.298 7.86137 1.5712 -8.94927
350 1 20.442 11.0069 1.57197 -8.94953
42 1 20.442 7.86188 1.572 -8.94947
345 1 4.71673 11.0069 1.57176 -8.94965
44 1 3.14452 9.43449 -0.000192072 -8.94956
349 1 17.2981 11.0069 1.57114 -8.94946
348 1 14.154 11.0069 1.56875 -8.94956
347 1 11.007 11.0069 1.57175 -8.94659
346 1 7.86196 11.0069 1.57255 -8.94821
344 1 1.57221 11.0069 1.57201 -8.94959
181 1 17.2971 1.57205 11.0069 -8.94955
51 1 1.57192 1.57216 4.71692 -8.94954
175 1 18.8705 9.43378 9.43414 -8.94798
53 1 4.71636 1.57163 4.71631 -8.94988
54 1 6.28947 0.000109953 3.14424 -8.9496
55 1 7.86197 1.57169 4.71647 -8.94962
174 1 15.7253 9.43314 9.43332 -8.94127
57 1 11.0072 1.57168 4.71651 -8.94958
173 1 12.5676 9.43487 9.42664 -8.95112
59 1 14.1523 1.5716 4.7168 -8.95055
60 1 15.7246 5.29496e-05 3.14445 -8.95002
61 1 17.297 1.57215 4.7171 -8.9496
172 1 9.36699 9.20948 9.44806 -8.16293
63 1 20.4415 1.57226 4.71713 -8.94955
64 1 22.0136 3.14451 3.14449 -8.94955
65 1 1.57118 4.71647 4.7164 -8.94965
66 1 3.14371 3.14391 3.1437 -8.94841
67 1 4.71369 4.71392 4.71371 -8.94525
68 1 6.28914 3.14383 3.14377 -8.94968
69 1 7.86107 4.71442 4.71503 -8.94925
70 1 9.43444 3.1438 3.14386 -8.94941
71 1 11.0073 4.71447 4.71509 -8.94791
72 1 12.5797 3.14369 3.14394 -8.94919
73 1 14.1544 4.71295 4.71462 -8.95013
74 1 15.7253 3.14331 3.14383 -8.94951
75 1 17.2978 4.71613 4.71676 -8.95008
76 1 18.8694 3.14438 3.14458 -8.94975
77 1 20.4416 4.71682 4.71699 -8.94976
78 1 22.014 6.28947 3.14445 -8.94982
79 1 1.5719 7.86212 4.71675 -8.94979
80 1 3.144 6.28946 3.14399 -8.95034
81 1 4.71555 7.86218 4.716 -8.95155
82 1 6.28734 6.28756 3.14112 -8.95012
83 1 7.8572 7.85689 4.70891 -8.95379
84 1 9.43394 6.28764 3.14221 -8.94791
85 1 11.0075 7.85779 4.70966 -8.95093
86 1 12.5803 6.28733 3.1417 -8.94934
87 1 14.1643 7.85041 4.70479 -8.93097
88 1 15.7282 6.2857 3.14093 -8.94476
89 1 17.3009 7.86001 4.71506 -8.95075
90 1 18.8705 6.28873 3.14392 -8.94965
91 1 20.4424 7.86171 4.71674 -8.95015
92 1 0.000149454 9.4344 3.14432 -8.94954
93 1 3.14424 9.43447 3.14408 -8.949
94 1 6.28955 9.43526 3.14447 -8.9492
95 1 9.43518 9.43465 3.14419 -8.95084
96 1 12.5822 9.43325 3.137 -8.95929
97 1 15.7279 9.43317 3.14117 -8.94771
98 1 18.8706 9.43415 3.1438 -8.94929
99 1 22.0137 4.65746e-05 6.28955 -8.94958
100 1 1.57185 1.57212 7.86195 -8.94954
101 1 3.14411 0.000127659 6.28929 -8.94946
102 1 4.71615 1.5715 7.86167 -8.94941
171 1 6.28243 9.42701 9.43471 -8.96968
104 1 7.86168 1.57112 7.86167 -8.95121
170 1 3.14229 9.43453 9.43415 -8.95062
106 1 11.0071 1.57191 7.8619 -8.94934
169 1 22.0135 9.43439 9.43432 -8.94953
108 1 14.1524 1.57197 7.86187 -8.94951
168 1 18.8701 6.28866 9.4344 -8.94956
110 1 17.2971 1.57208 7.862 -8.94956
111 1 18.8693 3.45322e-05 6.28958 -8.9496
112 1 20.4415 1.57223 7.86203 -8.94958
113 1 -0.0003763 3.14443 6.28945 -8.9495
114 1 1.57104 4.71633 7.86171 -8.94935
115 1 3.14357 3.14376 6.28897 -8.94929
116 1 4.71387 4.71403 7.86076 -8.94791
117 1 6.28801 3.14175 6.28807 -8.95117
118 1 7.85904 4.70975 7.86055 -8.95772
119 1 9.43464 3.14248 6.28857 -8.95033
120 1 11.0064 4.71516 7.86179 -8.95108
121 1 12.5798 3.14271 6.28917 -8.95223
122 1 14.153 4.71535 7.86193 -8.9486
123 1 15.7249 3.14391 6.28953 -8.94947
124 1 17.2977 4.71615 7.86189 -8.94909
125 1 18.8694 3.14438 6.28955 -8.94946
126 1 20.4415 4.71668 7.86195 -8.94958
127 1 22.0133 6.28919 6.28926 -8.95008
128 1 1.57031 7.86166 7.86167 -8.95145
129 1 3.14121 6.28792 6.28784 -8.95068
130 1 4.70826 7.85868 7.8598 -8.95727
131 1 6.27852 6.27893 6.2793 -8.93259
132 1 7.82605 7.82934 7.83343 -8.86487
133 1 9.43384 6.28219 6.2855 -8.95083
134 1 11.021 7.85433 7.84068 -8.90549
135 1 12.5851 6.27971 6.2833 -8.95396
136 1 14.1575 7.859 7.86208 -8.94935
137 1 15.727 6.28745 6.28887 -8.95057
138 1 17.2991 7.8609 7.8621 -8.94959
139 1 18.8701 6.28896 6.28947 -8.94967
140 1 20.4419 7.86161 7.86191 -8.94986
141 1 22.014 9.43449 6.28928 -8.94985
142 1 3.14367 9.4351 6.28908 -8.94971
143 1 6.28754 9.43702 6.28971 -8.95273
144 1 9.42313 9.41444 6.28635 -8.90628
145 1 12.6194 9.40214 6.25303 -8.86098
146 1 15.7348 9.43175 6.2853 -8.95759
147 1 18.8717 9.43415 6.2891 -8.95166
167 1 15.7267 6.2871 9.43411 -8.9469
166 1 12.5797 6.28756 9.43272 -8.94439
150 1 6.28879 0.000291083 9.43444 -8.95022
165 1 9.42906 6.29006 9.43427 -8.99867
164 1 6.27995 6.28031 9.43451 -8.94322
153 1 15.7248 6.31291e-05 9.43446 -8.94961
163 1 3.14087 6.2875 9.4344 -8.94918
155 1 22.0135 3.14438 9.43449 -8.94954
156 1 3.14345 3.14367 9.43446 -8.94949
157 1 6.28741 3.14136 9.43438 -8.94954
158 1 9.43408 3.14317 9.43413 -8.94683
159 1 12.58 3.14352 9.43406 -8.94878
160 1 15.7251 3.14374 9.43435 -8.94958
161 1 18.8694 3.1443 9.43447 -8.94957
162 1 -0.000801256 6.28902 9.43445 -8.94992
177 1 4.71612 1.57143 11.0073 -8.9494
184 1 4.71368 4.7138 11.0081 -8.94778
48 1 15.7253 9.43417 -0.000993705 -8.94943
189 1 20.4416 4.71666 11.007 -8.94956
3 1 3.14465 3.41993e-05 -0.000157624 -8.94962
19 1 6.28945 3.14446 -0.00024995 -8.94951
25 1 15.7245 3.14433 -0.000234846 -8.94967
29 1 22.014 6.28958 -0.000117931 -8.94955
176 1 1.57184 1.57211 11.007 -8.94954
644 1 20.4418 11.007 20.4416 -8.94958
178 1 7.86169 1.57086 11.007 -8.95127
179 1 11.0071 1.57143 11.0068 -8.95091
180 1 14.1524 1.57179 11.0068 -8.94936
643 1 17.2974 11.007 20.4416 -8.94949
182 1 20.4415 1.57222 11.007 -8.94958
639 1 4.71683 11.0069 20.4417 -8.94966
638 1 1.57226 11.0069 20.4416 -8.94959
185 1 7.85898 4.70876 11.0083 -8.95851
186 1 11.0067 4.71111 11.0073 -8.95687
187 1 14.153 4.71503 11.0062 -8.94878
295 1 22.0138 2.3045e-05 18.8692 -8.94937
39 1 15.7252 6.28869 22.0131 -8.95
190 1 1.57017 7.86165 11.0071 -8.95164
191 1 4.7075 7.85835 11.0092 -8.95808
192 1 7.82295 7.82517 11.0406 -8.85652
193 1 11.024 7.83329 11.0315 -8.92557
194 1 14.1571 7.85817 11.0049 -8.95388
195 1 17.2991 7.86081 11.0063 -8.94968
196 1 20.4419 7.86161 11.0069 -8.94988
197 1 22.0137 4.0988e-05 12.5795 -8.94957
198 1 1.57188 1.57212 14.1521 -8.94954
343 1 18.8697 9.43442 18.8696 -8.94956
200 1 4.71624 1.57143 14.1527 -8.94997
201 1 6.28902 0.000203603 12.5799 -8.95057
202 1 7.86169 1.57131 14.1528 -8.94971
203 1 9.43447 0.000398841 12.58 -8.95032
204 1 11.0072 1.57118 14.1527 -8.94964
205 1 12.5799 0.000246613 12.5797 -8.95049
206 1 14.1526 1.57115 14.1525 -8.95064
207 1 15.7247 6.75502e-06 12.5794 -8.94949
208 1 17.2971 1.57204 14.1519 -8.9497
342 1 15.7254 9.43423 18.8705 -8.94979
210 1 20.4415 1.57224 14.1519 -8.94955
211 1 -0.000387033 3.1444 12.5796 -8.94949
212 1 1.57102 4.71636 14.1527 -8.9497
213 1 3.14347 3.14365 12.58 -8.94928
214 1 4.71305 4.71331 14.1557 -8.94478
215 1 6.28778 3.14123 12.5809 -8.9514
216 1 7.86015 4.7127 14.155 -8.94894
217 1 9.43433 3.14113 12.5807 -8.95063
218 1 11.0075 4.71241 14.1549 -8.94801
219 1 12.5803 3.14124 12.5801 -8.95274
220 1 14.1556 4.71115 14.1554 -8.94932
221 1 15.725 3.14369 12.5793 -8.94958
222 1 17.2981 4.71585 14.1523 -8.95033
223 1 18.8694 3.14433 12.5794 -8.94943
224 1 20.4416 4.71675 14.152 -8.94983
225 1 22.0132 6.28915 12.5797 -8.95019
226 1 1.57163 7.86198 14.1523 -8.94986
227 1 3.14073 6.28767 12.5812 -8.9509
228 1 4.71446 7.86163 14.1535 -8.95207
229 1 6.2768 6.27721 12.5909 -8.93049
230 1 7.85391 7.85277 14.1644 -8.95149
231 1 9.43235 6.27744 12.5864 -8.94901
232 1 11.0079 7.85234 14.1634 -8.9518
233 1 12.5879 6.27441 12.5882 -8.95041
234 1 14.1674 7.84664 14.1671 -8.92652
235 1 15.7276 6.28694 12.5797 -8.9514
236 1 17.3018 7.85951 14.1542 -8.95133
237 1 18.8702 6.28889 12.5794 -8.9498
238 1 20.4426 7.86158 14.1523 -8.95026
239 1 22.0139 9.43439 12.5797 -8.94989
240 1 3.14288 9.43493 12.5799 -8.94965
241 1 6.28521 9.43651 12.5804 -8.95402
242 1 9.41622 9.40488 12.5962 -8.95704
243 1 12.6252 9.39208 12.6239 -8.8953
244 1 15.7363 9.43094 12.5836 -8.95908
245 1 18.8722 9.43399 12.5798 -8.95175
47 1 12.5796 9.43436 22.0127 -8.95159
247 1 1.57199 1.57218 17.2971 -8.94924
248 1 3.14419 7.76845e-05 15.7248 -8.94955
249 1 4.71682 1.57205 17.2972 -8.94959
341 1 12.5799 9.43398 18.872 -8.95198
251 1 7.8619 1.57196 17.2973 -8.94953
252 1 9.43451 1.97525e-05 15.725 -8.94959
253 1 11.007 1.57191 17.2973 -8.94954
254 1 12.5797 -2.30337e-05 15.7249 -8.94955
255 1 14.1521 1.57188 17.2972 -8.94954
340 1 9.43403 9.43418 18.8711 -8.9501
257 1 17.2972 1.57189 17.2972 -8.9494
258 1 18.8693 6.22192e-06 15.7243 -8.94971
259 1 20.4415 1.57223 17.2968 -8.94961
260 1 22.0136 3.14445 15.7246 -8.94957
261 1 1.57206 4.71696 17.2971 -8.94986
262 1 3.14351 3.14371 15.7255 -8.94832
263 1 4.7159 4.71599 17.2984 -8.94925
264 1 6.28875 3.14331 15.7256 -8.94955
265 1 7.86139 4.71579 17.2984 -8.94911
266 1 9.4343 3.14311 15.7256 -8.94945
267 1 11.007 4.71562 17.2984 -8.94919
268 1 12.5799 3.14298 15.7255 -8.94924
269 1 14.1527 4.71546 17.2985 -8.94962
270 1 15.7257 3.14276 15.7256 -8.94923
271 1 17.2983 4.71562 17.2981 -8.94795
272 1 18.8696 3.14426 15.7245 -8.94983
273 1 20.442 4.71679 17.2971 -8.94957
274 1 22.014 6.28936 15.7247 -8.94988
275 1 1.57203 7.86187 17.2972 -8.9494
276 1 3.1436 6.28919 15.7253 -8.95047
277 1 4.7162 7.86182 17.2979 -8.94924
278 1 6.28607 6.28616 15.7294 -8.94922
279 1 7.86066 7.86071 17.3004 -8.95137
280 1 9.43342 6.2857 15.7287 -8.94807
281 1 11.0067 7.86001 17.301 -8.94988
282 1 12.5811 6.28534 15.7292 -8.94947
283 1 14.1545 7.85942 17.3018 -8.95065
284 1 15.7294 6.2845 15.7292 -8.94347
285 1 17.2986 7.86104 17.2984 -8.94908
286 1 18.8709 6.28848 15.7253 -8.94975
287 1 20.4421 7.86174 17.2973 -8.94945
288 1 9.1007e-05 9.43427 15.7249 -8.94963
289 1 3.14343 9.43411 15.7255 -8.9489
290 1 6.28751 9.43387 15.7267 -8.94781
291 1 9.43292 9.43091 15.7308 -8.94934
292 1 12.5843 9.42965 15.7368 -8.95664
293 1 15.7292 9.4323 15.729 -8.94718
294 1 18.8712 9.43389 15.7256 -8.94919
339 1 6.28913 9.43459 18.8699 -8.94975
296 1 1.57223 1.57226 20.4415 -8.94944
338 1 3.14442 9.43448 18.8695 -8.9496
298 1 4.71709 1.57225 20.4416 -8.94957
299 1 6.28952 2.22551e-05 18.8694 -8.94957
300 1 7.862 1.57221 20.4416 -8.94956
337 1 22.014 9.43447 18.8694 -8.94956
302 1 11.007 1.57218 20.4416 -8.94957
336 1 20.4418 7.86199 20.4416 -8.94959
304 1 14.1519 1.57219 20.4416 -8.94955
305 1 15.7244 -7.47548e-06 18.8693 -8.94959
306 1 17.2969 1.5722 20.4416 -8.94962
335 1 18.8698 6.28921 18.8696 -8.94946
308 1 20.4416 1.57229 20.4415 -8.94933
309 1 22.0139 3.14465 18.8693 -8.94961
310 1 1.5723 4.71715 20.4416 -8.94965
311 1 3.14436 3.1444 18.8696 -8.94944
312 1 4.71679 4.71685 20.4417 -8.94989
313 1 6.28934 3.1443 18.8696 -8.94947
314 1 7.86178 4.71667 20.4418 -8.94953
315 1 9.4344 3.1442 18.8697 -8.9495
316 1 11.0069 4.71657 20.4418 -8.94954
317 1 12.5795 3.14418 18.8696 -8.94946
318 1 14.1521 4.71657 20.4418 -8.94961
319 1 15.7247 3.14417 18.8696 -8.94962
320 1 17.2973 4.71657 20.4417 -8.94947
321 1 18.8696 3.14434 18.8694 -8.94913
322 1 20.4417 4.71705 20.4416 -8.94955
323 1 22.014 6.28949 18.8693 -8.9495
324 1 1.57227 7.86204 20.4416 -8.94958
325 1 3.14442 6.28951 18.8695 -8.94958
326 1 4.71689 7.86209 20.4417 -8.94962
327 1 6.28885 6.28899 18.8705 -8.95025
328 1 7.86166 7.86183 20.4421 -8.95033
329 1 9.43406 6.28861 18.8706 -8.9496
330 1 11.0067 7.8615 20.4422 -8.95015
331 1 12.5796 6.28854 18.8707 -8.94968
332 1 14.1524 7.86142 20.4421 -8.95069
333 1 15.7255 6.2884 18.8707 -8.94972
334 1 17.2974 7.86174 20.4417 -8.94953
512 1 1.57154 11.0067 11.007 -8.94802
513 1 4.71742 11.0062 11.0057 -8.93974
515 1 11.0854 10.925 11.1946 -8.44767
594 1 17.2982 11.0071 17.2982 -8.9495
590 1 4.71643 11.0069 17.2978 -8.94966
540 1 1.57128 11.0067 14.1528 -8.94975
541 1 4.7136 11.0059 14.1546 -8.9457
543 1 11.0109 10.9966 14.1665 -9.03616
545 1 17.3024 11.0062 14.1549 -8.94789
546 1 20.4429 11.0068 14.1526 -8.95007
46 1 9.43429 9.43457 22.0139 -8.9495
33 1 6.28918 6.28931 22.0134 -8.95051
45 1 6.28934 9.43463 22.0138 -8.94942
41 1 18.8696 6.28932 22.0136 -8.94955
15 1 22.0139 3.14469 22.0138 -8.94958
17 1 3.14445 3.14448 22.0136 -8.9495
31 1 3.1446 6.28965 22.0138 -8.94973
27 1 18.8695 3.14441 22.0137 -8.9492
21 1 9.43443 3.14436 22.0137 -8.94954
23 1 12.5795 3.14435 22.0137 -8.94951
43 1 22.014 9.43448 22.0138 -8.94958
49 1 18.8697 9.4344 22.0136 -8.94953
688 3 10.1946 11.0299 9.41778 2.35388
511 1 18.8695 18.8697 9.43449 -8.94959
510 1 15.7252 18.8701 9.43447 -8.94991
509 1 12.5809 18.8722 9.43314 -8.94838
508 1 9.43315 18.8732 9.43315 -8.94673
507 1 6.28692 18.8734 9.43441 -8.94981
506 1 3.14316 18.8706 9.43446 -8.94944
50 1 -0.000200086 22.0139 3.14465 -8.94956
352 1 1.57222 14.1518 1.57204 -8.94945
154 1 18.8693 22.0139 9.4345 -8.9496
354 1 4.7168 14.1515 1.57172 -8.94966
152 1 12.58 22.0144 9.4342 -8.9497
356 1 7.86167 14.152 1.57025 -8.95257
151 1 9.43447 22.0146 9.43419 -8.94911
358 1 11.0067 14.1528 1.56983 -8.95037
149 1 3.14405 22.014 9.4345 -8.94949
360 1 14.1535 14.1534 1.56881 -8.9515
361 1 15.7253 12.5798 -0.00108019 -8.94939
362 1 17.298 14.1525 1.57116 -8.94925
148 1 -0.000243847 22.0139 9.43451 -8.94958
364 1 20.442 14.152 1.57199 -8.94948
109 1 15.7247 22.0141 6.28944 -8.94945
366 1 1.57209 17.2969 1.57196 -8.94984
367 1 3.14457 15.7242 -0.000227966 -8.94972
368 1 4.71613 17.2977 1.57078 -8.94951
393 1 1.57186 11.0068 4.71644 -8.9495
370 1 7.86172 17.2976 1.57107 -8.94925
371 1 9.43423 15.7249 -0.00083476 -8.9497
372 1 11.007 17.2977 1.57116 -8.94939
373 1 12.5795 15.725 -0.000901138 -8.94974
374 1 14.1524 17.2978 1.57115 -8.9498
537 1 14.1525 20.4423 11.0069 -8.94915
376 1 17.2979 17.2979 1.57128 -8.94824
377 1 18.8696 15.7246 -0.000306562 -8.94953
378 1 20.4419 17.297 1.57205 -8.94955
103 1 6.28901 22.0143 6.28893 -8.95047
380 1 1.57199 20.4418 1.572 -8.94918
62 1 18.8692 22.0139 3.14471 -8.94962
382 1 4.71693 20.4419 1.5719 -8.94966
383 1 6.28944 18.8695 -0.000348542 -8.94954
384 1 7.862 20.4419 1.57191 -8.94949
58 1 12.5796 22.014 3.14431 -8.94952
386 1 11.007 20.4419 1.57192 -8.94953
56 1 9.43457 22.014 3.14423 -8.94955
388 1 14.152 20.4419 1.572 -8.9495
389 1 15.7245 18.8696 -0.000308193 -8.94969
390 1 17.2971 20.4419 1.572 -8.94949
52 1 3.14424 22.014 3.14422 -8.94947
392 1 20.4415 20.4417 1.57225 -8.9496
505 1 22.0134 18.8696 9.4345 -8.94954
504 1 18.8702 15.7253 9.43428 -8.94958
503 1 15.7271 15.7265 9.43402 -8.94867
502 1 12.5845 15.7302 9.4272 -8.97397
501 1 9.42162 15.7303 9.42765 -9.03818
500 1 6.27693 15.7357 9.43363 -8.94344
399 1 20.4426 11.0069 4.71658 -8.9499
400 1 0.000128085 12.5794 3.14431 -8.94955
401 1 1.57169 14.1517 4.71664 -8.94976
402 1 3.14415 12.5792 3.14399 -8.94904
403 1 4.71494 14.1517 4.7154 -8.95149
404 1 6.2893 12.5784 3.14405 -8.9491
405 1 7.85616 14.1578 4.70649 -8.95511
406 1 9.43511 12.5793 3.14358 -8.95105
407 1 11.0076 14.1565 4.70888 -8.95061
408 1 12.5823 12.5807 3.13668 -8.95926
409 1 14.1647 14.1636 4.70447 -8.92996
410 1 15.728 12.5807 3.14111 -8.94769
411 1 17.3009 14.1538 4.71505 -8.95075
412 1 18.8706 12.5797 3.14379 -8.9493
413 1 20.4424 14.1521 4.71672 -8.95015
414 1 22.0139 15.7244 3.1444 -8.94981
415 1 1.57086 17.2976 4.7162 -8.94967
416 1 3.14378 15.7245 3.14376 -8.95036
417 1 4.71278 17.3008 4.71276 -8.94399
418 1 6.28685 15.7267 3.14013 -8.95023
419 1 7.8608 17.3002 4.71407 -8.94949
420 1 9.43403 15.7265 3.1415 -8.94801
421 1 11.0075 17.3 4.71449 -8.94744
422 1 12.5805 15.7267 3.14128 -8.94954
423 1 14.1548 17.3013 4.71413 -8.95032
424 1 15.7283 15.7282 3.1408 -8.94449
425 1 17.2978 17.2977 4.71677 -8.95031
426 1 18.8705 15.7252 3.14389 -8.94964
427 1 20.4415 17.2971 4.71695 -8.94982
428 1 22.0135 18.8695 3.14443 -8.94955
429 1 1.57183 20.4419 4.71685 -8.94951
430 1 3.14346 18.8703 3.14344 -8.94811
431 1 4.71616 20.4428 4.7161 -8.94971
432 1 6.289 18.8704 3.14344 -8.94971
433 1 7.86194 20.4426 4.7163 -8.94966
434 1 9.43449 18.8703 3.14361 -8.94934
435 1 11.0073 20.4425 4.71638 -8.94958
436 1 12.5798 18.8704 3.14375 -8.94909
437 1 14.1523 20.4425 4.7167 -8.95064
438 1 15.7254 18.8707 3.14367 -8.9495
439 1 17.2971 20.4419 4.71704 -8.94946
440 1 18.8694 18.8695 3.14456 -8.94983
441 1 20.4415 20.4417 4.7171 -8.94953
499 1 3.13973 15.7269 9.43416 -8.94899
498 1 -0.00107227 15.725 9.43437 -8.95
497 1 18.8702 12.5798 9.43434 -8.94774
445 1 11.0927 11.0109 7.64182 -8.1497
496 1 15.7238 12.5791 9.43439 -8.94079
495 1 12.5622 12.5705 9.43132 -8.9306
494 1 9.34556 12.8294 9.43272 -8.1099
449 1 22.0139 12.5793 6.28925 -8.94991
450 1 1.56979 14.1521 7.86162 -8.95191
451 1 3.14323 12.5785 6.28887 -8.94965
452 1 4.70597 14.1557 7.85896 -8.95888
453 1 6.28619 12.5765 6.28862 -8.95146
454 1 7.81725 14.1919 7.8244 -8.84198
455 1 9.42141 12.6021 6.28431 -8.90967
456 1 11.0223 14.1606 7.83967 -8.96013
457 1 12.6204 12.6128 6.25234 -8.85547
458 1 14.1566 14.1528 7.86307 -8.95186
459 1 15.735 12.582 6.28531 -8.95736
460 1 17.2988 14.1525 7.86235 -8.94994
461 1 18.8717 12.5797 6.2891 -8.95167
462 1 20.4417 14.1522 7.86196 -8.94994
463 1 22.013 15.7247 6.2892 -8.95023
464 1 1.57064 17.2978 7.86157 -8.9493
465 1 3.14028 15.7263 6.28734 -8.95096
466 1 4.71269 17.3008 7.86025 -8.94768
467 1 6.27557 15.7377 6.27627 -8.92745
468 1 7.85674 17.3075 7.85826 -8.95651
469 1 9.43378 15.7332 6.28347 -8.95265
470 1 11.0064 17.2999 7.86119 -8.95094
471 1 12.5857 15.7349 6.28203 -8.95571
472 1 14.1545 17.2997 7.86058 -8.94567
473 1 15.7269 15.726 6.28913 -8.95121
474 1 17.298 17.2978 7.8618 -8.94936
475 1 18.87 15.7248 6.28951 -8.94978
476 1 20.4415 17.2973 7.86187 -8.9496
477 1 -0.000472716 18.8696 6.28938 -8.94947
478 1 1.57177 20.4419 7.86194 -8.94953
479 1 3.1432 18.8705 6.28875 -8.94921
480 1 4.71597 20.4429 7.86163 -8.94949
481 1 6.28723 18.8735 6.28727 -8.95069
482 1 7.86132 20.4441 7.86132 -8.95133
483 1 9.43468 18.8722 6.28809 -8.95043
484 1 11.0071 20.4428 7.86174 -8.94907
485 1 12.5799 18.8716 6.28889 -8.95248
486 1 14.1527 20.4427 7.86159 -8.94929
487 1 15.7253 18.8704 6.2892 -8.94874
488 1 17.2971 20.4419 7.86201 -8.94968
489 1 18.8695 18.8696 6.28948 -8.94947
490 1 20.4415 20.4417 7.86203 -8.94959
491 1 22.0134 12.5793 9.43436 -8.94949
492 1 3.14169 12.579 9.43427 -8.95102
493 1 6.27996 12.5882 9.43445 -8.9741
516 1 14.1644 11.0023 11.0113 -9.02595
522 1 11.0196 14.2241 11.0026 -9.15775
523 1 14.1548 14.153 11.0027 -9.00745
524 1 17.2993 14.153 11.0057 -8.94792
525 1 20.4419 14.1523 11.0068 -8.94991
526 1 1.57068 17.2978 11.0073 -8.94926
527 1 4.71294 17.3008 11.0083 -8.9474
530 1 14.1527 17.2985 11.0065 -8.94897
531 1 17.2977 17.2978 11.0069 -8.94895
394 1 4.71593 11.0067 4.71567 -8.94642
398 1 17.3011 11.0069 4.71479 -8.94899
355 1 6.2893 12.5792 -0.00021276 -8.94941
379 1 22.0139 18.8692 -0.00015244 -8.94961
687 2 11.0028 12.5984 11.7554 0.835734
686 1 20.4416 20.4416 20.4415 -8.94935
514 1 7.87945 11.0065 10.9962 -8.95046
685 1 18.8695 18.8695 18.8694 -8.94921
307 1 18.8693 22.0139 18.8693 -8.94943
684 1 17.2969 20.4417 20.4415 -8.94962
683 1 15.7246 18.8696 18.8695 -8.9496
519 1 1.56946 14.1523 11.007 -8.95191
520 1 4.70479 14.1565 11.0088 -8.95723
521 1 7.81654 14.1933 11.0415 -8.89853
303 1 12.5795 22.0139 18.8694 -8.94955
301 1 9.43449 22.0139 18.8694 -8.94956
297 1 3.1446 22.0139 18.8693 -8.94961
391 1 18.8695 18.8695 22.0137 -8.94924
256 1 15.7248 22.0139 15.7248 -8.9499
250 1 6.28926 22.014 15.725 -8.94954
528 1 7.85845 17.3066 11.0087 -8.95949
529 1 11.0064 17.3113 11.0064 -8.96932
209 1 18.8693 22.0139 12.5794 -8.94956
199 1 3.14409 22.014 12.5797 -8.94942
671 1 18.8696 15.7246 18.8695 -8.94956
533 1 1.57177 20.4419 11.0071 -8.94952
534 1 4.71599 20.4429 11.0073 -8.94937
670 1 17.2972 17.2972 20.4415 -8.9496
669 1 15.725 15.7251 18.8701 -8.95018
668 1 14.152 17.2972 20.4416 -8.94967
667 1 12.5795 15.725 18.8702 -8.95002
539 1 20.4415 20.4417 11.007 -8.94958
682 1 14.1519 20.4417 20.4416 -8.94956
681 1 12.5795 18.8696 18.8696 -8.94949
542 1 7.86007 11.0023 14.1539 -8.97594
680 1 11.007 20.4417 20.4416 -8.94958
544 1 14.1635 11.0029 14.1634 -8.97291
679 1 9.43445 18.8697 18.8696 -8.94953
678 1 7.86201 20.4417 20.4416 -8.94957
547 1 22.0138 12.5793 12.5797 -8.95063
548 1 1.57118 14.152 14.1526 -8.94995
549 1 3.14121 12.5787 12.5801 -8.95243
550 1 4.71299 14.1528 14.1545 -8.95039
551 1 6.27606 12.5771 12.5809 -8.96362
552 1 7.85303 14.1615 14.1647 -8.98644
553 1 9.37724 12.5958 12.6032 -9.18558
554 1 11.0074 14.1587 14.1611 -8.98608
555 1 12.649 12.5987 12.6231 -9.13553
556 1 14.1639 14.1639 14.1632 -8.96587
557 1 15.7417 12.581 12.5828 -8.966
558 1 17.3017 14.1543 14.1544 -8.94942
559 1 18.873 12.5797 12.5798 -8.95379
560 1 20.4426 14.1523 14.1524 -8.95022
561 1 22.013 15.7248 12.5797 -8.95018
562 1 1.5708 17.2977 14.1528 -8.94966
563 1 3.13996 15.7265 12.5814 -8.95084
564 1 4.71255 17.3011 14.1562 -8.9444
565 1 6.27482 15.7378 12.5921 -8.9288
566 1 7.86 17.3014 14.1553 -8.94907
567 1 9.43076 15.7351 12.5868 -8.998
568 1 11.0076 17.3005 14.1539 -8.94857
569 1 12.5877 15.7353 12.5877 -8.99772
570 1 14.1552 17.3017 14.1549 -8.94936
571 1 15.7271 15.7256 12.5791 -8.95259
572 1 17.2979 17.2978 14.1522 -8.95068
573 1 18.8701 15.7249 12.5794 -8.94977
574 1 20.4415 17.2972 14.1521 -8.94983
575 1 -0.00047143 18.8696 12.5796 -8.94948
576 1 1.57183 20.4419 14.1522 -8.94953
577 1 3.14324 18.8705 12.5801 -8.9492
578 1 4.71615 20.4428 14.1528 -8.95
579 1 6.28745 18.8732 12.5812 -8.95157
580 1 7.86157 20.443 14.153 -8.94949
581 1 9.43375 18.8738 12.5814 -8.94859
582 1 11.0073 20.4428 14.1527 -8.94946
583 1 12.5809 18.8729 12.5806 -8.95025
584 1 14.1527 20.4428 14.1526 -8.95033
585 1 15.725 18.87 12.5793 -8.94957
586 1 17.2971 20.4418 14.1519 -8.94974
587 1 18.8694 18.8696 12.5795 -8.94944
588 1 20.4415 20.4417 14.1519 -8.94955
677 1 6.28937 18.8696 18.8696 -8.94948
676 1 4.71708 20.4417 20.4416 -8.94958
591 1 7.86179 11.0072 17.2977 -8.94978
592 1 11.007 11.0067 17.3008 -8.95218
593 1 14.1538 11.0073 17.3005 -8.95072
675 1 3.14431 18.8696 18.8696 -8.94939
674 1 1.57221 20.4417 20.4415 -8.94942
596 1 4.73624e-05 12.5795 15.7249 -8.94947
597 1 1.5721 14.1519 17.2972 -8.94938
598 1 3.14363 12.5793 15.7253 -8.9487
599 1 4.71659 14.1517 17.2977 -8.94973
600 1 6.28852 12.5787 15.7253 -8.94913
601 1 7.86164 14.1521 17.2992 -8.95357
602 1 9.43566 12.5796 15.7241 -8.99821
603 1 11.0068 14.1526 17.2993 -8.95126
604 1 12.5805 12.5805 15.7286 -9.00196
605 1 14.1531 14.153 17.2996 -8.95219
606 1 15.7278 12.5806 15.7274 -8.9482
607 1 17.298 14.1525 17.298 -8.94939
608 1 18.8708 12.5798 15.7254 -8.94902
609 1 20.442 14.1521 17.2972 -8.94942
610 1 22.0139 15.7246 15.7248 -8.94982
611 1 1.57194 17.297 17.2973 -8.94974
612 1 3.14324 15.7249 15.7257 -8.95009
613 1 4.71581 17.298 17.2986 -8.94911
614 1 6.28583 15.7278 15.7298 -8.94878
615 1 7.86155 17.2979 17.2984 -8.94905
616 1 9.43386 15.7274 15.7283 -8.94787
617 1 11.0071 17.298 17.2981 -8.94881
618 1 12.5807 15.7273 15.7282 -8.94928
619 1 14.1526 17.298 17.2982 -8.9495
620 1 15.7284 15.7283 15.7282 -8.94469
621 1 17.298 17.298 17.2979 -8.94829
622 1 18.8707 15.7254 15.7254 -8.94942
623 1 20.4419 17.2971 17.2971 -8.94949
624 1 22.0135 18.8695 15.7246 -8.94957
625 1 1.57195 20.4418 17.2971 -8.94922
626 1 3.14337 18.8704 15.7256 -8.94821
627 1 4.71681 20.442 17.2973 -8.94959
628 1 6.28872 18.8708 15.7258 -8.94952
629 1 7.86194 20.442 17.2973 -8.94956
630 1 9.43448 18.8706 15.7256 -8.94975
631 1 11.007 20.442 17.2973 -8.94949
632 1 12.5798 18.8706 15.7255 -8.94954
633 1 14.1521 20.4419 17.2972 -8.94957
634 1 15.7255 18.8708 15.7255 -8.94923
635 1 17.2972 20.4419 17.2971 -8.94944
636 1 18.8695 18.8696 15.7245 -8.9499
637 1 20.4415 20.4417 17.2968 -8.94962
387 1 12.5795 18.8696 22.0136 -8.9495
673 1 22.0139 18.8693 18.8693 -8.94956
640 1 7.8617 11.007 20.4419 -8.94918
641 1 11.0067 11.007 20.4422 -8.94945
642 1 14.1525 11.0071 20.4417 -8.9502
672 1 20.4417 17.2968 20.4415 -8.94959
385 1 9.43446 18.8696 22.0136 -8.94954
645 1 22.0139 12.5794 18.8694 -8.94957
646 1 1.57227 14.1518 20.4416 -8.94956
647 1 3.14442 12.5794 18.8695 -8.94954
648 1 4.71691 14.1518 20.4416 -8.94954
649 1 6.28915 12.5793 18.8697 -8.94925
650 1 7.86181 14.1519 20.4417 -8.95035
651 1 9.43417 12.5795 18.8699 -8.94818
652 1 11.0067 14.1522 20.4416 -8.95018
653 1 12.5797 12.5797 18.8706 -8.94972
654 1 14.1523 14.1523 20.4415 -8.95044
655 1 15.7253 12.5798 18.8702 -8.9493
656 1 17.2974 14.1522 20.4415 -8.94943
657 1 18.8697 12.5795 18.8695 -8.94951
658 1 20.4417 14.1519 20.4415 -8.94957
659 1 22.0139 15.7243 18.8693 -8.94953
660 1 1.57229 17.2967 20.4415 -8.94971
661 1 3.1445 15.7243 18.8695 -8.94974
662 1 4.7168 17.297 20.4416 -8.95005
663 1 6.28911 15.7247 18.8703 -8.95086
664 1 7.86184 17.2972 20.4416 -8.94959
665 1 9.43426 15.725 18.8702 -8.94995
666 1 11.0069 17.2973 20.4416 -8.94954
353 1 3.14451 12.5794 22.0137 -8.94956
11 1 15.7244 22.0139 22.0138 -8.94959
357 1 9.4343 12.5793 22.0136 -8.94925
359 1 12.5796 12.5796 22.0124 -8.95126
363 1 18.8697 12.5795 22.0136 -8.94952
365 1 22.014 15.7243 22.0138 -8.94955
369 1 6.28917 15.7246 22.0131 -8.95067
375 1 15.7251 15.7251 22.0129 -8.94996
5 1 6.28957 22.0139 22.0137 -8.94956
381 1 3.14439 18.8695 22.0135 -8.94951
595 1 20.442 11.007 17.2973 -8.94947
246 1 -0.000204428 22.0139 15.7244 -8.94959
589 1 1.57208 11.0069 17.2973 -8.94951
351 1 22.014 12.5794 22.0137 -8.94958
538 1 17.2971 20.4419 11.007 -8.94957
532 1 20.4415 17.2973 11.007 -8.94957
535 1 7.8616 20.4438 11.0071 -8.95125
536 1 11.0071 20.4445 11.0069 -8.95305
1 1 22.0138 22.0139 22.0138 -8.94934
