ITEM: TIMESTEP
78
ITEM: NUMBER OF ATOMS
688
ITEM: BOX BOUNDS pp pp pp
0.0000000000000000e+00 2.2013900999999997e+01
0.0000000000000000e+00 2.2013900999999997e+01
0.0000000000000000e+00 2.2013900999999997e+01
ITEM: ATOMS id type x y z c_pot
518 1 20.4425 11.0068 11.0067 -8.94989
2 1 1.57223 1.57231 1.57224 -8.94934
448 1 20.4422 11.0069 7.86205 -8.94975
4 1 4.71716 1.57227 1.57221 -8.9497
447 1 17.3 11.0069 7.86216 -8.95194
6 1 7.86207 1.57226 1.57219 -8.94956
7 1 9.43452 1.51681e-05 -7.53605e-05 -8.94962
8 1 11.007 1.57224 1.57218 -8.94959
9 1 12.5794 1.40296e-05 -7.1126e-05 -8.94961
10 1 14.1519 1.57224 1.57223 -8.94955
446 1 14.1635 11.0068 7.85389 -8.97273
12 1 17.2968 1.5722 1.57222 -8.94955
13 1 18.8691 7.87864e-06 -6.6162e-05 -8.94953
14 1 20.4415 1.57235 1.57237 -8.94961
444 1 7.88152 11.0075 7.87161 -8.89166
16 1 1.57228 4.71718 1.57223 -8.94978
443 1 4.71852 11.0068 7.86209 -8.94099
18 1 4.71663 4.71667 1.57148 -8.94951
442 1 1.57186 11.0069 7.86168 -8.94805
20 1 7.86191 4.71671 1.5717 -8.94924
105 1 9.43469 0.000135089 6.28927 -8.94997
22 1 11.0069 4.71661 1.57171 -8.94945
107 1 12.5796 9.06471e-05 6.28949 -8.95014
24 1 14.152 4.71658 1.57174 -8.94976
517 1 17.3012 11.0062 11.0058 -8.95079
26 1 17.2974 4.71644 1.5717 -8.94843
397 1 14.1609 11.0069 4.70821 -8.94282
28 1 20.4417 4.71708 1.57224 -8.94957
396 1 11.0117 11.0072 4.71972 -9.00077
30 1 1.5723 7.86207 1.57222 -8.94949
395 1 7.86433 11.0069 4.71951 -8.94623
32 1 4.71702 7.86227 1.57204 -8.94967
188 1 17.2974 4.71643 11.0069 -8.94904
34 1 7.86178 7.86192 1.57093 -8.95192
35 1 9.43429 6.28918 -0.000466581 -8.94956
36 1 11.0066 7.86132 1.5705 -8.95022
37 1 12.5794 6.28919 -0.000478444 -8.94959
38 1 14.153 7.86085 1.56966 -8.95143
183 1 1.57149 4.71665 11.0071 -8.94936
40 1 17.2975 7.86169 1.57164 -8.94938
350 1 20.4417 11.0069 1.57219 -8.94958
42 1 20.4417 7.86201 1.5722 -8.94953
345 1 4.71681 11.0069 1.57183 -8.94965
44 1 3.14464 9.4345 -0.000149854 -8.94958
349 1 17.2975 11.0069 1.57161 -8.94952
348 1 14.1534 11.0069 1.56942 -8.94949
347 1 11.0068 11.0069 1.57141 -8.94704
346 1 7.86186 11.0069 1.57224 -8.94838
344 1 1.57226 11.0069 1.57217 -8.94962
181 1 17.2969 1.57221 11.0069 -8.94958
51 1 1.57218 1.57227 4.71713 -8.94961
175 1 18.8704 9.43386 9.43421 -8.94818
53 1 4.7167 1.57181 4.71666 -8.94983
54 1 6.28961 4.32334e-05 3.14455 -8.94962
55 1 7.86208 1.57188 4.71679 -8.94958
174 1 15.7255 9.43323 9.43343 -8.94133
57 1 11.0071 1.57185 4.71676 -8.94957
173 1 12.5682 9.43572 9.42721 -8.9485
59 1 14.1521 1.57181 4.71697 -8.95037
60 1 15.7244 2.18718e-05 3.14463 -8.94991
61 1 17.2968 1.57228 4.7172 -8.94961
172 1 9.36391 9.21129 9.4465 -8.15871
63 1 20.4415 1.57235 4.71722 -8.9496
64 1 22.0137 3.14467 3.14467 -8.94957
65 1 1.57154 4.71673 4.7167 -8.94963
66 1 3.1441 3.14419 3.14409 -8.94854
67 1 4.71439 4.71451 4.71436 -8.94537
68 1 6.28942 3.14419 3.14419 -8.94973
69 1 7.86151 4.7151 4.71557 -8.94936
70 1 9.4345 3.14412 3.1442 -8.94946
71 1 11.0072 4.71505 4.71561 -8.94804
72 1 12.5795 3.14408 3.14427 -8.94925
73 1 14.1538 4.71378 4.71529 -8.95018
74 1 15.7249 3.1438 3.14419 -8.94953
75 1 17.2973 4.71657 4.71701 -8.95003
76 1 18.8692 3.14462 3.14473 -8.94974
77 1 20.4415 4.71703 4.71713 -8.94972
78 1 22.0139 6.28958 3.14463 -8.94976
79 1 1.572 7.86213 4.71692 -8.9497
80 1 3.14429 6.28957 3.1443 -8.9502
81 1 4.71586 7.86229 4.71619 -8.95131
82 1 6.28783 6.28799 3.1417 -8.9501
83 1 7.85766 7.8576 4.70933 -8.95396
84 1 9.43408 6.28809 3.14269 -8.94801
85 1 11.007 7.85845 4.71049 -8.95084
86 1 12.5799 6.28793 3.1425 -8.94938
87 1 14.163 7.85128 4.70599 -8.93108
88 1 15.7274 6.28649 3.14173 -8.94494
89 1 17.3 7.86047 4.7156 -8.95066
90 1 18.87 6.28908 3.14425 -8.94964
91 1 20.4421 7.86186 4.71695 -8.95007
92 1 3.38247e-05 9.43446 3.14455 -8.94957
93 1 3.14433 9.43448 3.14425 -8.94909
94 1 6.28943 9.4352 3.1443 -8.94927
95 1 9.43484 9.43465 3.14376 -8.95065
96 1 12.5816 9.43332 3.1375 -8.95891
97 1 15.7269 9.4335 3.14205 -8.94791
98 1 18.8701 9.43431 3.14419 -8.94934
99 1 22.0138 1.54882e-05 6.28965 -8.94962
100 1 1.57215 1.57225 7.86205 -8.94959
101 1 3.14447 5.20729e-05 6.28952 -8.94951
102 1 4.7166 1.57174 7.86186 -8.94943
171 1 6.28134 9.42767 9.43445 -8.97007
104 1 7.86186 1.57122 7.86181 -8.95115
170 1 3.14217 9.43464 9.43421 -8.95087
106 1 11.0071 1.57189 7.86197 -8.9494
169 1 22.0135 9.43445 9.43439 -8.9497
108 1 14.1522 1.57208 7.86197 -8.94954
168 1 18.8698 6.28896 9.43446 -8.94955
110 1 17.2969 1.57221 7.86206 -8.94959
111 1 18.8692 1.66192e-05 6.28965 -8.94963
112 1 20.4415 1.57233 7.86208 -8.94962
113 1 -0.000197842 3.14463 6.28959 -8.94954
114 1 1.57151 4.71667 7.86189 -8.94938
115 1 3.14407 3.14413 6.28928 -8.9494
116 1 4.71474 4.71476 7.86109 -8.94808
117 1 6.28845 3.14225 6.28842 -8.95105
118 1 7.85964 4.71025 7.86065 -8.95747
119 1 9.43477 3.14286 6.28884 -8.95015
120 1 11.0066 4.7153 7.86194 -8.95077
121 1 12.5797 3.14305 6.28935 -8.95198
122 1 14.1527 4.71572 7.86214 -8.94877
123 1 15.7247 3.14422 6.28965 -8.9495
124 1 17.2974 4.71649 7.86199 -8.94917
125 1 18.8692 3.14459 6.28963 -8.94951
126 1 20.4415 4.71694 7.86203 -8.94959
127 1 22.0134 6.28938 6.28943 -8.95001
128 1 1.57061 7.86181 7.86178 -8.95131
129 1 3.14186 6.28829 6.28821 -8.9506
130 1 4.70886 7.85917 7.8599 -8.95703
131 1 6.27948 6.27979 6.27992 -8.93268
132 1 7.82663 7.83017 7.8334 -8.8644
133 1 9.43422 6.2831 6.28612 -8.95097
134 1 11.02 7.85537 7.84219 -8.90704
135 1 12.5843 6.28067 6.2844 -8.95432
136 1 14.1568 7.85941 7.86261 -8.94934
137 1 15.7263 6.28799 6.2893 -8.95051
138 1 17.2987 7.86111 7.86221 -8.94946
139 1 18.8697 6.28921 6.28959 -8.94961
140 1 20.4418 7.86175 7.86199 -8.94983
141 1 22.0139 9.43451 6.28941 -8.94987
142 1 3.14364 9.43503 6.28908 -8.94961
143 1 6.2873 9.43699 6.2893 -8.95236
144 1 9.42322 9.41565 6.28607 -8.90745
145 1 12.6182 9.40253 6.25406 -8.86042
146 1 15.7338 9.43197 6.28603 -8.95734
147 1 18.8712 9.43424 6.2893 -8.95152
167 1 15.7262 6.28752 9.4342 -8.94703
166 1 12.5794 6.28805 9.43285 -8.94482
150 1 6.28913 0.000148352 9.4345 -8.95012
165 1 9.42939 6.2896 9.43404 -8.99839
164 1 6.28114 6.2814 9.43442 -8.94358
153 1 15.7245 4.5195e-05 9.4345 -8.94964
163 1 3.14171 6.28806 9.43444 -8.94916
155 1 22.0137 3.14461 9.43452 -8.94958
156 1 3.14401 3.14409 9.4345 -8.94954
157 1 6.28806 3.14199 9.43444 -8.94946
158 1 9.43434 3.14315 9.4342 -8.94721
159 1 12.5799 3.14374 9.43416 -8.94879
160 1 15.7248 3.14403 9.43443 -8.94961
161 1 18.8693 3.14454 9.4345 -8.94961
162 1 -0.000572372 6.28927 9.4345 -8.94986
177 1 4.71658 1.57172 11.0071 -8.94941
184 1 4.71465 4.71464 11.0078 -8.94799
48 1 15.7249 9.43431 -0.000698727 -8.94944
189 1 20.4415 4.71693 11.007 -8.94957
3 1 3.14478 1.14634e-05 -6.24504e-05 -8.94967
19 1 6.2896 3.14464 -0.000149359 -8.94955
25 1 15.7243 3.14461 -0.000131794 -8.9497
29 1 22.0139 6.28965 -5.72464e-05 -8.9496
176 1 1.57215 1.57225 11.007 -8.94959
644 1 20.4416 11.007 20.4415 -8.94962
178 1 7.86188 1.57107 11.007 -8.95118
179 1 11.0071 1.57158 11.0069 -8.95079
180 1 14.1522 1.57198 11.0068 -8.94941
643 1 17.2971 11.007 20.4416 -8.94953
182 1 20.4415 1.57233 11.007 -8.94962
639 1 4.71699 11.007 20.4416 -8.94967
638 1 1.57233 11.0069 20.4415 -8.94962
185 1 7.85964 4.7096 11.0081 -8.95821
186 1 11.0068 4.71187 11.007 -8.95621
187 1 14.1527 4.71556 11.0061 -8.94893
295 1 22.0139 1.0639e-05 18.8691 -8.9495
39 1 15.7248 6.28905 22.0133 -8.94992
190 1 1.57053 7.86181 11.0071 -8.95148
191 1 4.70831 7.85896 11.009 -8.9578
192 1 7.824 7.82673 11.0396 -8.85665
193 1 11.0227 7.83595 11.0293 -8.92673
194 1 14.1566 7.85881 11.0045 -8.95342
195 1 17.2987 7.86105 11.0063 -8.94956
196 1 20.4418 7.86175 11.0069 -8.94987
197 1 22.0138 1.68238e-05 12.5794 -8.94962
198 1 1.57217 1.57226 14.1519 -8.94961
343 1 18.8694 9.43449 18.8694 -8.94962
200 1 4.71665 1.57172 14.1524 -8.94991
201 1 6.28928 0.000117928 12.5797 -8.95046
202 1 7.86188 1.57169 14.1524 -8.94965
203 1 9.43449 0.00032974 12.5799 -8.95018
204 1 11.0071 1.57159 14.1524 -8.9496
205 1 12.5798 0.000240737 12.5796 -8.95035
206 1 14.1523 1.57156 14.1522 -8.95047
207 1 15.7245 3.76608e-05 12.5794 -8.94953
208 1 17.2968 1.57224 14.1518 -8.94969
342 1 15.725 9.43436 18.8701 -8.94976
210 1 20.4415 1.57235 14.1518 -8.94959
211 1 -0.000200705 3.14462 12.5795 -8.94954
212 1 1.57146 4.71668 14.1524 -8.94967
213 1 3.14403 3.14409 12.5797 -8.9494
214 1 4.714 4.71414 14.1549 -8.945
215 1 6.28833 3.14196 12.5806 -8.95126
216 1 7.86085 4.71389 14.1541 -8.94909
217 1 9.4345 3.14191 12.5804 -8.95037
218 1 11.0073 4.71361 14.154 -8.94815
219 1 12.5801 3.14197 12.5799 -8.95245
220 1 14.1547 4.71237 14.1545 -8.94957
221 1 15.7247 3.14411 12.5792 -8.94961
222 1 17.2976 4.7164 14.152 -8.95023
223 1 18.8693 3.14457 12.5794 -8.94949
224 1 20.4415 4.717 14.1519 -8.94976
225 1 22.0134 6.28936 12.5796 -8.95009
226 1 1.57186 7.86206 14.1521 -8.94975
227 1 3.14158 6.28816 12.5808 -8.95077
228 1 4.71516 7.86197 14.1531 -8.95185
229 1 6.27819 6.27856 12.5899 -8.93083
230 1 7.85498 7.8543 14.163 -8.95204
231 1 9.4329 6.27932 12.5851 -8.94909
232 1 11.0073 7.85402 14.1618 -8.95158
233 1 12.5867 6.27616 12.5867 -8.95125
234 1 14.1661 7.84774 14.1658 -8.9264
235 1 15.7268 6.28763 12.5794 -8.95119
236 1 17.3008 7.86007 14.1536 -8.95125
237 1 18.8698 6.28917 12.5793 -8.9497
238 1 20.4423 7.86177 14.1521 -8.95017
239 1 22.0139 9.43444 12.5796 -8.94988
240 1 3.14312 9.43494 12.5799 -8.94954
241 1 6.28556 9.43683 12.5802 -8.95363
242 1 9.41708 9.40766 12.5949 -8.95806
243 1 12.6249 9.39291 12.6232 -8.89374
244 1 15.7354 9.43144 12.5829 -8.95894
245 1 18.8716 9.43412 12.5796 -8.95162
47 1 12.5795 9.43438 22.0128 -8.95148
247 1 1.57221 1.5723 17.2968 -8.94934
248 1 3.14451 3.68826e-05 15.7245 -8.94957
249 1 4.71708 1.57223 17.2969 -8.94965
341 1 12.5797 9.43408 18.8716 -8.95186
251 1 7.86202 1.57218 17.297 -8.94959
252 1 9.43452 5.55174e-05 15.7246 -8.94963
253 1 11.007 1.57215 17.297 -8.94959
254 1 12.5795 3.95946e-05 15.7246 -8.94958
255 1 14.1519 1.57216 17.2969 -8.94958
340 1 9.43408 9.4342 18.8708 -8.95008
257 1 17.2969 1.57214 17.2969 -8.94947
258 1 18.8691 1.53756e-05 15.7242 -8.9497
259 1 20.4415 1.57234 17.2967 -8.94964
260 1 22.0137 3.14465 15.7244 -8.94958
261 1 1.57224 4.71713 17.2969 -8.94982
262 1 3.14401 3.1441 15.725 -8.94847
263 1 4.7164 4.71642 17.2978 -8.94931
264 1 6.28919 3.14388 15.7251 -8.94963
265 1 7.86171 4.71631 17.2978 -8.94918
266 1 9.43441 3.14372 15.7251 -8.94951
267 1 11.0069 4.7162 17.2978 -8.94927
268 1 12.5796 3.14365 15.725 -8.94932
269 1 14.1523 4.71615 17.2978 -8.9497
270 1 15.7252 3.14344 15.7251 -8.94933
271 1 17.2977 4.71618 17.2976 -8.94812
272 1 18.8693 3.14457 15.7243 -8.9498
273 1 20.4418 4.71703 17.2969 -8.94959
274 1 22.014 6.28953 15.7244 -8.9498
275 1 1.57216 7.86196 17.297 -8.94945
276 1 3.14408 6.28944 15.7248 -8.95034
277 1 4.71649 7.8619 17.2975 -8.94922
278 1 6.28694 6.28699 15.7283 -8.94939
279 1 7.86094 7.86104 17.2996 -8.95116
280 1 9.43365 6.28669 15.7276 -8.94815
281 1 11.0066 7.8605 17.3001 -8.94966
282 1 12.5804 6.28644 15.7279 -8.94952
283 1 14.1539 7.85998 17.3009 -8.9506
284 1 15.7284 6.28545 15.7282 -8.94366
285 1 17.2979 7.86141 17.2978 -8.94913
286 1 18.8703 6.28891 15.7249 -8.94973
287 1 20.4418 7.86191 17.297 -8.9495
288 1 2.16664e-05 9.43435 15.7246 -8.94965
289 1 3.14373 9.43418 15.7252 -8.949
290 1 6.28772 9.43395 15.7264 -8.94773
291 1 9.43293 9.43157 15.7303 -8.94903
292 1 12.5835 9.43028 15.736 -8.95658
293 1 15.7282 9.43267 15.7282 -8.94713
294 1 18.8706 9.43406 15.7252 -8.94923
339 1 6.28929 9.43457 18.8697 -8.94978
296 1 1.57234 1.57235 20.4415 -8.94953
338 1 3.14459 9.43451 18.8693 -8.94963
298 1 4.71721 1.57235 20.4415 -8.94961
299 1 6.28962 2.24435e-05 18.8692 -8.94961
300 1 7.86207 1.57233 20.4415 -8.94961
337 1 22.0139 9.43451 18.8692 -8.94961
302 1 11.007 1.57232 20.4415 -8.94961
336 1 20.4416 7.86207 20.4415 -8.94964
304 1 14.1518 1.57233 20.4415 -8.9496
305 1 15.7243 1.70533e-05 18.8692 -8.94962
306 1 17.2967 1.57234 20.4415 -8.94967
335 1 18.8694 6.28946 18.8693 -8.94953
308 1 20.4415 1.57237 20.4415 -8.94947
309 1 22.0139 3.14477 18.8691 -8.94964
310 1 1.57236 4.71723 20.4415 -8.94965
311 1 3.14459 3.1446 18.8693 -8.94949
312 1 4.71701 4.71703 20.4416 -8.94981
313 1 6.28954 3.14456 18.8693 -8.94952
314 1 7.86194 4.71692 20.4416 -8.94954
315 1 9.43447 3.1445 18.8694 -8.94956
316 1 11.0069 4.71688 20.4416 -8.94957
317 1 12.5794 3.14451 18.8694 -8.94953
318 1 14.1519 4.71692 20.4416 -8.94961
319 1 15.7244 3.14452 18.8693 -8.94968
320 1 17.297 4.7169 20.4416 -8.9495
321 1 18.8693 3.14459 18.8692 -8.94925
322 1 20.4416 4.71719 20.4415 -8.94961
323 1 22.0139 6.2896 18.8692 -8.94955
324 1 1.57234 7.86208 20.4415 -8.94961
325 1 3.1446 6.2896 18.8693 -8.94957
326 1 4.71704 7.8621 20.4416 -8.94963
327 1 6.28914 6.28921 18.87 -8.95012
328 1 7.86179 7.86187 20.4419 -8.95022
329 1 9.43422 6.28895 18.8701 -8.94957
330 1 11.0068 7.86166 20.4419 -8.95003
331 1 12.5795 6.28895 18.8701 -8.9496
332 1 14.1522 7.86163 20.4419 -8.95056
333 1 15.725 6.28884 18.8702 -8.94968
334 1 17.297 7.86194 20.4416 -8.94957
512 1 1.57152 11.0067 11.0071 -8.94825
513 1 4.71689 11.0062 11.006 -8.93999
515 1 11.0894 10.9282 11.1973 -8.44418
594 1 17.2976 11.007 17.2977 -8.94954
590 1 4.71664 11.007 17.2975 -8.94968
540 1 1.57147 11.0068 14.1525 -8.94974
541 1 4.71395 11.006 14.1543 -8.946
543 1 11.0108 10.9978 14.1668 -9.03619
545 1 17.3015 11.0063 14.1543 -8.94796
546 1 20.4425 11.0068 14.1524 -8.95002
46 1 9.4343 9.43451 22.0137 -8.94958
33 1 6.28936 6.28941 22.0134 -8.95032
45 1 6.28942 9.43459 22.0137 -8.94948
41 1 18.8693 6.28954 22.0138 -8.94962
15 1 22.0139 3.14479 22.0138 -8.94962
17 1 3.14464 3.14465 22.0137 -8.94953
31 1 3.14471 6.28968 22.0138 -8.9497
27 1 18.8693 3.14464 22.0138 -8.94932
21 1 9.4345 3.14459 22.0137 -8.94959
23 1 12.5794 3.14459 22.0138 -8.94956
43 1 22.0139 9.43451 22.0138 -8.94962
49 1 18.8694 9.43448 22.0137 -8.94959
688 3 10.1994 11.0278 9.42002 2.35265
511 1 18.8693 18.8694 9.43451 -8.94962
510 1 15.7249 18.8699 9.43453 -8.94994
509 1 12.5808 18.8718 9.43337 -8.94835
508 1 9.43357 18.8727 9.43339 -8.9469
507 1 6.28776 18.8724 9.4345 -8.94975
506 1 3.14385 18.87 9.43451 -8.94951
50 1 -7.59995e-05 22.0139 3.14478 -8.94962
352 1 1.57228 14.1518 1.57221 -8.9495
154 1 18.8692 22.0139 9.43452 -8.94962
354 1 4.71696 14.1516 1.57194 -8.94965
152 1 12.5798 22.0143 9.4343 -8.94972
356 1 7.86173 14.152 1.57052 -8.95228
151 1 9.43454 22.0144 9.43429 -8.94934
358 1 11.0066 14.1526 1.57027 -8.95018
149 1 3.14444 22.014 9.43452 -8.94954
360 1 14.1531 14.153 1.56951 -8.95138
361 1 15.7249 12.5796 -0.000731985 -8.94941
362 1 17.2975 14.1522 1.57163 -8.94938
148 1 -9.38189e-05 22.0139 9.43453 -8.94962
364 1 20.4417 14.1519 1.5722 -8.94954
109 1 15.7245 22.014 6.28954 -8.94948
366 1 1.57226 17.2967 1.5722 -8.9498
367 1 3.1447 15.7242 -0.000119888 -8.94969
368 1 4.71653 17.2973 1.57129 -8.94951
393 1 1.57189 11.0069 4.71665 -8.9495
370 1 7.86191 17.2973 1.57154 -8.94928
371 1 9.43432 15.7247 -0.000588028 -8.94966
372 1 11.007 17.2974 1.5716 -8.94944
373 1 12.5794 15.7247 -0.000575244 -8.94967
374 1 14.1521 17.2974 1.57165 -8.94982
537 1 14.1523 20.4421 11.0069 -8.94922
376 1 17.2975 17.2975 1.57166 -8.9484
377 1 18.8693 15.7244 -0.000155066 -8.94961
378 1 20.4417 17.2968 1.57223 -8.94957
103 1 6.28927 22.0141 6.28921 -8.95037
380 1 1.5722 20.4416 1.57221 -8.9493
62 1 18.8691 22.0139 3.1448 -8.94963
382 1 4.71714 20.4417 1.57218 -8.9497
383 1 6.28958 18.8693 -0.0001738 -8.94956
384 1 7.86207 20.4417 1.57217 -8.94955
58 1 12.5795 22.0139 3.14455 -8.94953
386 1 11.007 20.4417 1.57216 -8.94958
56 1 9.43455 22.0139 3.14452 -8.94958
388 1 14.1519 20.4417 1.57221 -8.94954
389 1 15.7244 18.8693 -0.00014446 -8.94971
390 1 17.2969 20.4417 1.5722 -8.94952
52 1 3.14453 22.014 3.14452 -8.94951
392 1 20.4415 20.4416 1.57236 -8.94963
505 1 22.0137 18.8693 9.43452 -8.94958
504 1 18.87 15.7251 9.43431 -8.94953
503 1 15.7269 15.7263 9.43407 -8.94866
502 1 12.5842 15.7294 9.42789 -8.9749
501 1 9.42281 15.7294 9.4282 -9.03742
500 1 6.27874 15.7341 9.43373 -8.94372
399 1 20.4422 11.0069 4.71684 -8.94984
400 1 2.76454e-05 12.5794 3.14454 -8.94958
401 1 1.5719 14.1517 4.71686 -8.94968
402 1 3.14429 12.5793 3.14421 -8.94912
403 1 4.71548 14.1515 4.71582 -8.95131
404 1 6.28929 12.5785 3.14402 -8.94919
405 1 7.85688 14.1568 4.70731 -8.9552
406 1 9.43482 12.5792 3.14327 -8.9509
407 1 11.0071 14.1557 4.70988 -8.95052
408 1 12.5817 12.5806 3.13725 -8.95895
409 1 14.1634 14.1628 4.70567 -8.93022
410 1 15.7269 12.5803 3.14202 -8.94789
411 1 17.3 14.1534 4.71558 -8.95069
412 1 18.8701 12.5796 3.14419 -8.94935
413 1 20.4421 14.152 4.71693 -8.95007
414 1 22.0139 15.7243 3.14462 -8.94975
415 1 1.57137 17.2973 4.7166 -8.94966
416 1 3.14418 15.7243 3.14419 -8.95024
417 1 4.71375 17.3 4.7137 -8.94427
418 1 6.2875 15.7262 3.14101 -8.95022
419 1 7.86139 17.2992 4.71493 -8.94956
420 1 9.43416 15.726 3.14221 -8.94809
421 1 11.0074 17.2992 4.71522 -8.94757
422 1 12.58 15.726 3.14221 -8.94955
423 1 14.154 17.3003 4.71491 -8.95035
424 1 15.7275 15.7274 3.14162 -8.94472
425 1 17.2974 17.2973 4.71701 -8.95018
426 1 18.8701 15.7248 3.14423 -8.94964
427 1 20.4415 17.2969 4.71711 -8.94976
428 1 22.0137 18.8693 3.14464 -8.94956
429 1 1.57215 20.4417 4.7171 -8.94959
430 1 3.14396 18.8699 3.14395 -8.9483
431 1 4.71658 20.4424 4.71655 -8.94971
432 1 6.28936 18.8699 3.14402 -8.94977
433 1 7.86208 20.4422 4.7167 -8.94963
434 1 9.43453 18.8699 3.14407 -8.9494
435 1 11.0072 20.4422 4.71669 -8.94956
436 1 12.5796 18.8699 3.14416 -8.94916
437 1 14.1521 20.4422 4.71692 -8.95046
438 1 15.725 18.8702 3.14408 -8.94952
439 1 17.2969 20.4417 4.71716 -8.9495
440 1 18.8692 18.8693 3.14472 -8.94979
441 1 20.4415 20.4416 4.7172 -8.94958
499 1 3.14091 15.7262 9.43425 -8.94898
498 1 -0.000694286 15.7247 9.43442 -8.94992
497 1 18.8701 12.5798 9.43437 -8.948
445 1 11.0934 11.0106 7.64213 -8.14525
496 1 15.7244 12.5794 9.43434 -8.94127
495 1 12.5643 12.5707 9.43069 -8.92939
494 1 9.34426 12.8245 9.43198 -8.11039
449 1 22.0138 12.5793 6.28939 -8.9499
450 1 1.57028 14.152 7.86177 -8.95173
451 1 3.14335 12.5786 6.28895 -8.94954
452 1 4.70707 14.155 7.85927 -8.95861
453 1 6.28628 12.5763 6.28844 -8.95122
454 1 7.81878 14.1901 7.8251 -8.84297
455 1 9.42171 12.6002 6.28417 -8.91057
456 1 11.0214 14.1589 7.84141 -8.96123
457 1 12.6192 12.6122 6.2533 -8.85557
458 1 14.1563 14.1528 7.86324 -8.95137
459 1 15.734 12.5818 6.28603 -8.95717
460 1 17.2985 14.1525 7.86233 -8.94981
461 1 18.8712 12.5796 6.28929 -8.9515
462 1 20.4417 14.1521 7.86201 -8.94993
463 1 22.0133 15.7245 6.28939 -8.95013
464 1 1.57129 17.2974 7.8618 -8.94932
465 1 3.14124 15.7258 6.28789 -8.95087
466 1 4.71393 17.2997 7.86076 -8.94787
467 1 6.27708 15.7363 6.27741 -8.92792
468 1 7.85785 17.3063 7.85886 -8.95643
469 1 9.43435 15.7318 6.28449 -8.95257
470 1 11.0067 17.2992 7.86165 -8.95075
471 1 12.5848 15.7337 6.28335 -8.95593
472 1 14.154 17.2992 7.86096 -8.94609
473 1 15.7262 15.7257 6.28943 -8.951
474 1 17.2977 17.2975 7.86187 -8.94936
475 1 18.8697 15.7246 6.28959 -8.94969
476 1 20.4416 17.297 7.86196 -8.94959
477 1 -0.000232588 18.8693 6.28955 -8.94952
478 1 1.57212 20.4417 7.86205 -8.94959
479 1 3.14386 18.87 6.28917 -8.94934
480 1 4.71649 20.4424 7.86185 -8.9495
481 1 6.28792 18.8725 6.28788 -8.95069
482 1 7.8616 20.4436 7.86155 -8.95124
483 1 9.43485 18.8714 6.28855 -8.95027
484 1 11.0071 20.4425 7.86187 -8.94913
485 1 12.5798 18.8711 6.28918 -8.95225
486 1 14.1525 20.4424 7.86173 -8.94934
487 1 15.725 18.87 6.28938 -8.94886
488 1 17.2969 20.4417 7.86206 -8.9497
489 1 18.8693 18.8694 6.28957 -8.94951
490 1 20.4415 20.4416 7.86208 -8.94962
491 1 22.0134 12.5793 9.43443 -8.94966
492 1 3.1418 12.5789 9.43434 -8.95117
493 1 6.27951 12.587 9.43426 -8.97416
516 1 14.1654 11.003 11.011 -9.02615
522 1 11.0191 14.2204 11.0013 -9.16157
523 1 14.1549 14.153 11.0027 -9.00663
524 1 17.2991 14.153 11.0058 -8.94784
525 1 20.4419 14.1522 11.0068 -8.94989
526 1 1.57133 17.2974 11.0071 -8.94931
527 1 4.71418 17.2997 11.0079 -8.94763
530 1 14.1525 17.2981 11.0065 -8.94926
531 1 17.2975 17.2975 11.0069 -8.94901
394 1 4.71592 11.0067 4.71568 -8.94665
398 1 17.3 11.0069 4.71545 -8.94901
355 1 6.28939 12.5793 -0.000226063 -8.94946
379 1 22.0139 18.8691 -6.48337e-05 -8.94964
687 2 11.0021 12.5979 11.7634 0.84528
686 1 20.4415 20.4415 20.4415 -8.94947
514 1 7.87789 11.0064 10.9966 -8.94936
685 1 18.8693 18.8693 18.8693 -8.94928
307 1 18.8692 22.0139 18.8692 -8.94952
684 1 17.2967 20.4416 20.4415 -8.94966
683 1 15.7244 18.8694 18.8694 -8.94962
519 1 1.57004 14.1522 11.007 -8.95171
520 1 4.70609 14.1557 11.0086 -8.95691
521 1 7.81839 14.1912 11.0404 -8.89942
303 1 12.5794 22.0139 18.8692 -8.9496
301 1 9.43451 22.0139 18.8692 -8.9496
297 1 3.14476 22.0139 18.8692 -8.94965
391 1 18.8693 18.8693 22.0138 -8.94933
256 1 15.7246 22.0139 15.7245 -8.94982
250 1 6.28948 22.014 15.7246 -8.94956
528 1 7.85945 17.3054 11.0085 -8.95927
529 1 11.0067 17.3102 11.0064 -8.9686
209 1 18.8692 22.0139 12.5794 -8.9496
199 1 3.14446 22.0139 12.5795 -8.94948
671 1 18.8693 15.7244 18.8693 -8.94963
533 1 1.57212 20.4417 11.007 -8.94958
534 1 4.7165 20.4424 11.0072 -8.94939
670 1 17.297 17.297 20.4415 -8.9496
669 1 15.7248 15.7248 18.8699 -8.9501
668 1 14.1519 17.297 20.4416 -8.94964
667 1 12.5794 15.7248 18.87 -8.94991
539 1 20.4415 20.4416 11.007 -8.94961
682 1 14.1518 20.4416 20.4415 -8.9496
681 1 12.5795 18.8694 18.8694 -8.94953
542 1 7.85974 11.0023 14.1545 -8.9762
680 1 11.007 20.4416 20.4415 -8.94962
544 1 14.1629 11.0031 14.163 -8.97309
679 1 9.43448 18.8694 18.8694 -8.94956
678 1 7.86207 20.4416 20.4415 -8.94961
547 1 22.0138 12.5794 12.5796 -8.95062
548 1 1.57152 14.1519 14.1523 -8.94988
549 1 3.14159 12.5787 12.58 -8.95233
550 1 4.71377 14.1525 14.154 -8.95035
551 1 6.27647 12.5768 12.5808 -8.96377
552 1 7.85359 14.1608 14.1642 -8.98644
553 1 9.37643 12.5945 12.6036 -9.18602
554 1 11.0072 14.1578 14.1605 -8.98576
555 1 12.6503 12.5994 12.6235 -9.13275
556 1 14.1635 14.1639 14.1631 -8.96542
557 1 15.7413 12.5812 12.5825 -8.96602
558 1 17.301 14.1541 14.154 -8.94943
559 1 18.8726 12.5797 12.5796 -8.95373
560 1 20.4424 14.1522 14.1522 -8.95017
561 1 22.0133 15.7246 12.5796 -8.95007
562 1 1.57135 17.2973 14.1524 -8.94965
563 1 3.14106 15.7259 12.581 -8.95073
564 1 4.71365 17.3001 14.1552 -8.94473
565 1 6.2766 15.7363 12.5909 -8.92932
566 1 7.86068 17.3004 14.1545 -8.94944
567 1 9.43164 15.7333 12.586 -8.99896
568 1 11.0074 17.2998 14.1535 -8.94874
569 1 12.5868 15.734 12.5868 -8.99924
570 1 14.1545 17.301 14.1543 -8.94971
571 1 15.7266 15.7254 12.579 -8.95229
572 1 17.2975 17.2974 14.152 -8.95052
573 1 18.8698 15.7247 12.5793 -8.94965
574 1 20.4415 17.2969 14.1519 -8.94976
575 1 -0.000227888 18.8693 12.5795 -8.94954
576 1 1.57215 20.4417 14.1519 -8.94961
577 1 3.1439 18.87 12.5798 -8.94934
578 1 4.71658 20.4423 14.1524 -8.94994
579 1 6.2881 18.8723 12.5807 -8.95142
580 1 7.86176 20.4426 14.1526 -8.94946
581 1 9.43398 18.8729 12.5811 -8.9484
582 1 11.0072 20.4424 14.1524 -8.94945
583 1 12.5806 18.8723 12.5805 -8.95003
584 1 14.1524 20.4425 14.1523 -8.95019
585 1 15.7248 18.8697 12.5793 -8.9496
586 1 17.2969 20.4417 14.1518 -8.94972
587 1 18.8693 18.8694 12.5794 -8.94948
588 1 20.4415 20.4416 14.1518 -8.94959
677 1 6.28952 18.8694 18.8694 -8.94951
676 1 4.7172 20.4416 20.4415 -8.94961
591 1 7.86178 11.0072 17.2978 -8.94991
592 1 11.0068 11.0068 17.3009 -8.95223
593 1 14.1533 11.0073 17.3 -8.95065
675 1 3.14455 18.8693 18.8694 -8.94941
674 1 1.57233 20.4416 20.4415 -8.9495
596 1 7.80666e-06 12.5794 15.7246 -8.9495
597 1 1.57222 14.1518 17.2969 -8.94945
598 1 3.14393 12.5794 15.725 -8.94881
599 1 4.71682 14.1517 17.2974 -8.94973
600 1 6.28868 12.5787 15.7253 -8.94915
601 1 7.86168 14.1521 17.299 -8.9533
602 1 9.43535 12.5797 15.7248 -8.99872
603 1 11.0067 14.1525 17.2991 -8.95095
604 1 12.5803 12.5808 15.729 -9.00245
605 1 14.1528 14.1529 17.2994 -8.9521
606 1 15.7271 12.5805 15.7268 -8.94823
607 1 17.2975 14.1522 17.2976 -8.94947
608 1 18.8703 12.5796 15.725 -8.94908
609 1 20.4417 14.1519 17.2969 -8.94949
610 1 22.0139 15.7244 15.7246 -8.94979
611 1 1.57215 17.2968 17.297 -8.94972
612 1 3.14373 15.7247 15.7252 -8.95003
613 1 4.71623 17.2976 17.2981 -8.94907
614 1 6.28648 15.7273 15.729 -8.94857
615 1 7.86174 17.2976 17.2979 -8.94907
616 1 9.43404 15.7269 15.7278 -8.9479
617 1 11.007 17.2977 17.2978 -8.94885
618 1 12.5802 15.7269 15.7277 -8.94924
619 1 14.1523 17.2976 17.2978 -8.9495
620 1 15.7278 15.7278 15.7277 -8.94452
621 1 17.2976 17.2976 17.2976 -8.9483
622 1 18.8703 15.7251 15.7251 -8.94942
623 1 20.4418 17.2969 17.2969 -8.94951
624 1 22.0137 18.8693 15.7244 -8.94959
625 1 1.57219 20.4416 17.2969 -8.94933
626 1 3.14391 18.8699 15.7251 -8.94841
627 1 4.71705 20.4418 17.297 -8.94965
628 1 6.28912 18.8702 15.7252 -8.94963
629 1 7.86202 20.4418 17.297 -8.94961
630 1 9.43452 18.8702 15.7252 -8.9498
631 1 11.007 20.4418 17.297 -8.94954
632 1 12.5796 18.8702 15.7251 -8.9496
633 1 14.1519 20.4418 17.297 -8.9496
634 1 15.7251 18.8704 15.7251 -8.94932
635 1 17.2969 20.4418 17.2969 -8.94949
636 1 18.8693 18.8694 15.7243 -8.94985
637 1 20.4415 20.4416 17.2967 -8.94965
387 1 12.5794 18.8693 22.0137 -8.94955
673 1 22.0139 18.8692 18.8692 -8.94959
640 1 7.8618 11.007 20.4418 -8.94934
641 1 11.0067 11.007 20.4421 -8.94974
642 1 14.1523 11.007 20.4417 -8.95013
672 1 20.4416 17.2967 20.4415 -8.94965
385 1 9.4345 18.8693 22.0137 -8.94958
645 1 22.0139 12.5794 18.8692 -8.94961
646 1 1.57233 14.1518 20.4415 -8.94959
647 1 3.14458 12.5794 18.8693 -8.94958
648 1 4.71705 14.1518 20.4416 -8.94955
649 1 6.28927 12.5793 18.8696 -8.94928
650 1 7.86187 14.1519 20.4417 -8.95028
651 1 9.43418 12.5796 18.87 -8.94841
652 1 11.0068 14.1521 20.4416 -8.95011
653 1 12.5796 12.5797 18.8705 -8.94984
654 1 14.1521 14.1522 20.4416 -8.95038
655 1 15.725 12.5797 18.87 -8.94929
656 1 17.297 14.152 20.4415 -8.94948
657 1 18.8694 12.5794 18.8693 -8.94957
658 1 20.4416 14.1518 20.4415 -8.94962
659 1 22.0139 15.7243 18.8692 -8.94958
660 1 1.57237 17.2967 20.4415 -8.9497
661 1 3.14466 15.7242 18.8693 -8.94973
662 1 4.717 17.2969 20.4416 -8.94992
663 1 6.28928 15.7246 18.87 -8.95063
664 1 7.86195 17.297 20.4416 -8.94957
665 1 9.43433 15.7249 18.8701 -8.94986
666 1 11.0069 17.297 20.4416 -8.94956
353 1 3.14463 12.5794 22.0137 -8.94959
11 1 15.7243 22.0139 22.0139 -8.94962
357 1 9.4343 12.5794 22.0135 -8.94939
359 1 12.5795 12.5795 22.0126 -8.95122
363 1 18.8694 12.5794 22.0137 -8.94959
365 1 22.0139 15.7242 22.0138 -8.94959
369 1 6.28934 15.7245 22.0133 -8.95046
375 1 15.7248 15.7248 22.0132 -8.94991
5 1 6.28965 22.0139 22.0138 -8.9496
381 1 3.14461 18.8693 22.0137 -8.94953
595 1 20.4418 11.007 17.297 -8.94952
246 1 -7.56442e-05 22.0139 15.7243 -8.94964
589 1 1.57219 11.0069 17.297 -8.94956
351 1 22.0139 12.5794 22.0138 -8.94962
538 1 17.2969 20.4418 11.007 -8.94959
532 1 20.4415 17.297 11.007 -8.94958
535 1 7.86183 20.4433 11.0071 -8.95114
536 1 11.0071 20.4441 11.007 -8.95286
1 1 22.0139 22.0139 22.0139 -8.94948
