ITEM: TIMESTEP
69
ITEM: NUMBER OF ATOMS
688
ITEM: BOX BOUNDS pp pp pp
0.0000000000000000e+00 2.2013900999999997e+01
0.0000000000000000e+00 2.2013900999999997e+01
0.0000000000000000e+00 2.2013900999999997e+01
ITEM: ATOMS id type x y z c_pot
1 1 -7.23795e-05 1.26877e-15 8.9363e-16 -8.94949
2 1 1.5722 1.5723 1.57228 -8.9495
3 1 3.14463 9.50249e-16 -2.41315e-16 -8.94963
4 1 4.71702 1.57225 1.57223 -8.94965
5 1 6.28954 1.83041e-15 5.51813e-16 -8.94962
6 1 7.86199 1.57223 1.57222 -8.94962
7 1 9.4345 8.20909e-16 9.87255e-16 -8.94961
8 1 11.007 1.57222 1.57222 -8.94961
9 1 12.5795 1.79452e-15 5.2842e-16 -8.94962
10 1 14.152 1.57221 1.57223 -8.94963
11 1 15.7244 1.37009e-15 8.56715e-16 -8.94963
12 1 17.2969 1.57223 1.57226 -8.94958
13 1 18.8692 2.3672e-15 9.52938e-17 -8.94954
14 1 20.4416 1.57231 1.57234 -8.94953
15 1 22.0138 3.1447 1.84215e-16 -8.94958
16 1 1.57219 4.71708 1.57228 -8.94963
17 1 3.14453 3.14458 4.38379e-16 -8.94957
18 1 4.71675 4.71681 1.57209 -8.9496
19 1 6.28944 3.14452 6.42599e-16 -8.94964
20 1 7.86184 4.71672 1.57209 -8.94962
21 1 9.43446 3.14449 -1.1089e-16 -8.94961
22 1 11.007 4.71671 1.57207 -8.94961
23 1 12.5795 3.14448 1.77686e-16 -8.94962
24 1 14.1522 4.71668 1.57209 -8.94973
25 1 15.7245 3.14448 4.19199e-16 -8.94967
26 1 17.2972 4.71675 1.57216 -8.94934
27 1 18.8693 3.14458 -2.40061e-16 -8.94946
28 1 20.4416 4.71708 1.57231 -8.94962
29 1 -5.20067e-05 6.28956 5.418e-16 -8.94961
30 1 1.57217 7.86201 1.57229 -8.94961
31 1 3.14447 6.28948 3.47398e-16 -8.94964
32 1 4.71672 7.8619 1.57214 -8.94967
33 1 6.2891 6.28914 9.69241e-16 -8.94967
34 1 7.86141 7.86139 1.5717 -8.94968
35 1 9.43432 6.28908 2.19095e-15 -8.94957
36 1 11.007 7.86146 1.57168 -8.9495
37 1 12.5796 6.28907 1.57896e-15 -8.9496
38 1 14.1528 7.86119 1.57153 -8.94969
39 1 15.725 6.28899 1.92054e-15 -8.94951
40 1 17.2972 7.86185 1.57221 -8.94962
41 1 18.8694 6.28947 8.65493e-18 -8.94964
42 1 20.4416 7.862 1.57232 -8.9496
43 1 22.0138 9.43448 3.21928e-16 -8.94961
44 1 3.14445 9.43446 1.667e-15 -8.94958
45 1 6.28915 9.43438 2.04944e-17 -8.94963
46 1 9.43404 9.43402 -6.808e-16 -8.94973
47 1 12.58 9.43399 8.63249e-16 -8.95027
48 1 15.7249 9.43431 -6.55126e-16 -8.94942
49 1 18.8694 9.43445 5.62509e-16 -8.94959
50 1 22.0138 3.479e-16 3.1447 -8.94955
51 1 1.57211 1.57227 4.717 -8.94955
52 1 3.14449 5.82778e-16 3.14451 -8.94952
53 1 4.71669 1.57205 4.71667 -8.94954
54 1 6.28946 -3.46269e-16 3.14448 -8.94961
55 1 7.86188 1.57205 4.7167 -8.94956
56 1 9.43449 3.35641e-16 3.14449 -8.94961
57 1 11.0071 1.57204 4.71668 -8.94956
58 1 12.5795 6.31999e-16 3.14448 -8.94961
59 1 14.1523 1.57201 4.71671 -8.94962
60 1 15.7245 1.21754e-16 3.14452 -8.9496
61 1 17.297 1.57219 4.71696 -8.94957
62 1 18.8693 5.7149e-16 3.14467 -8.94957
63 1 20.4416 1.5723 4.7171 -8.94958
64 1 -9.73282e-05 3.14467 3.14466 -8.94959
65 1 1.572 4.71697 4.71692 -8.94966
66 1 3.14435 3.14447 3.14442 -8.94937
67 1 4.71617 4.71628 4.71619 -8.94884
68 1 6.28934 3.14439 3.14435 -8.94972
69 1 7.86172 4.71625 4.71631 -8.94991
70 1 9.43445 3.14433 3.14436 -8.94959
71 1 11.0071 4.7162 4.71622 -8.94949
72 1 12.5796 3.14432 3.14433 -8.94962
73 1 14.1527 4.716 4.71626 -8.9497
74 1 15.7247 3.1443 3.1444 -8.94959
75 1 17.2974 4.71667 4.71677 -8.94941
76 1 18.8694 3.14457 3.14463 -8.94954
77 1 20.4416 4.71702 4.71704 -8.94965
78 1 22.0138 6.28954 3.14466 -8.94965
79 1 1.57206 7.86199 4.71696 -8.94963
80 1 3.14433 6.28942 3.14447 -8.94965
81 1 4.71639 7.86171 4.71649 -8.94956
82 1 6.28885 6.28889 3.14379 -8.94977
83 1 7.86093 7.86057 4.71488 -8.9508
84 1 9.43432 6.28876 3.14395 -8.94947
85 1 11.007 7.86102 4.71509 -8.95
86 1 12.5798 6.28879 3.14389 -8.94992
87 1 14.1544 7.85962 4.7144 -8.94713
88 1 15.7254 6.28864 3.14386 -8.9489
89 1 17.2976 7.86175 4.71678 -8.95008
90 1 18.8695 6.2894 3.14458 -8.94971
91 1 20.4417 7.86198 4.71705 -8.9497
92 1 -7.37651e-05 9.43448 3.14465 -8.94961
93 1 3.14438 9.43445 3.1445 -8.94957
94 1 6.28904 9.43438 3.14411 -8.94989
95 1 9.43363 9.4334 3.14261 -8.94815
96 1 12.5809 9.4332 3.14177 -8.94984
97 1 15.7251 9.43428 3.1442 -8.94956
98 1 18.8695 9.43444 3.14459 -8.94958
99 1 -0.000112005 4.35757e-16 6.28954 -8.9496
100 1 1.57207 1.57226 7.86193 -8.94961
101 1 3.14432 8.31476e-16 6.28931 -8.94949
102 1 4.71644 1.57192 7.86159 -8.94944
103 1 6.28911 5.31539e-16 6.28903 -8.94973
104 1 7.86155 1.57138 7.86139 -8.94998
105 1 9.43448 1.13592e-15 6.28906 -8.94958
106 1 11.0073 1.57144 7.86139 -8.94972
107 1 12.5798 4.80007e-16 6.28906 -8.94969
108 1 14.1525 1.57183 7.8616 -8.94961
109 1 15.7247 5.53174e-16 6.2893 -8.94959
110 1 17.2971 1.57216 7.86189 -8.94959
111 1 18.8693 7.31039e-16 6.28951 -8.9496
112 1 20.4416 1.57229 7.862 -8.94962
113 1 22.0138 3.14463 6.28949 -8.94961
114 1 1.57191 4.71691 7.86186 -8.94966
115 1 3.14415 3.14437 6.28921 -8.94948
116 1 4.71586 4.716 7.86122 -8.9491
117 1 6.28869 3.14354 6.2886 -8.94956
118 1 7.86045 4.71345 7.8602 -8.94965
119 1 9.43448 3.14359 6.28884 -8.9494
120 1 11.0081 4.714 7.86035 -8.94797
121 1 12.5801 3.14356 6.2887 -8.94959
122 1 14.1532 4.71543 7.8612 -8.9497
123 1 15.725 3.14412 6.28914 -8.94954
124 1 17.2975 4.71658 7.86173 -8.9495
125 1 18.8694 3.14453 6.28945 -8.94959
126 1 20.4417 4.71697 7.86194 -8.94965
127 1 -0.000138692 6.28949 6.28946 -8.94975
128 1 1.57191 7.86193 7.86186 -8.94985
129 1 3.14386 6.28918 6.28909 -8.94992
130 1 4.71554 7.86121 7.86128 -8.95111
131 1 6.28713 6.28696 6.2869 -8.94692
132 1 7.85575 7.854 7.85463 -8.98269
133 1 9.43465 6.2873 6.28841 -8.94973
134 1 11.01 7.85811 7.85813 -9.00109
135 1 12.5809 6.28693 6.28766 -8.95065
136 1 14.1553 7.85877 7.85983 -8.94685
137 1 15.7258 6.2884 6.28856 -8.94881
138 1 17.2979 7.86157 7.86174 -8.95019
139 1 18.8697 6.28931 6.28937 -8.94972
140 1 20.4417 7.86195 7.86194 -8.9498
141 1 22.0138 9.43448 6.28946 -8.94965
142 1 3.14418 9.43445 6.2892 -8.94969
143 1 6.28835 9.43414 6.28815 -8.94953
144 1 9.4323 9.43117 6.28666 -9.00234
145 1 12.586 9.42758 6.28183 -8.97955
146 1 15.7257 9.43434 6.2891 -8.95171
147 1 18.8696 9.43447 6.28943 -8.94974
148 1 -0.000107496 1.06806e-15 9.43447 -8.9496
149 1 3.14429 9.31785e-16 9.43439 -8.94955
150 1 6.28887 5.44723e-16 9.43415 -8.94969
151 1 9.43446 -1.43282e-16 9.43417 -8.95057
152 1 12.58 1.6789e-15 9.43416 -8.94971
153 1 15.7248 1.81241e-15 9.43438 -8.94966
154 1 18.8693 1.45179e-15 9.43446 -8.9496
155 1 -0.000123881 3.14462 9.43446 -8.94962
156 1 3.14413 3.14436 9.43435 -8.94962
157 1 6.28837 3.14295 9.43385 -8.94915
158 1 9.43441 3.14116 9.43406 -8.95261
159 1 12.5803 3.14287 9.4339 -8.94952
160 1 15.7251 3.14401 9.4343 -8.94958
161 1 18.8695 3.14452 9.43444 -8.94962
162 1 -0.00012318 6.28945 9.43444 -8.94977
163 1 3.14376 6.28904 9.43425 -8.94974
164 1 6.28708 6.2861 9.43274 -8.94692
165 1 9.43406 6.27556 9.43388 -8.96573
166 1 12.5812 6.28519 9.43314 -8.95072
167 1 15.726 6.28817 9.43398 -8.94865
168 1 18.8698 6.28923 9.43438 -8.94964
169 1 -8.02711e-05 9.43449 9.43442 -8.94966
170 1 3.14409 9.4344 9.43424 -8.94959
171 1 6.28809 9.43373 9.43318 -9.00218
172 1 9.41244 9.37611 9.43393 -9.26404
173 1 12.5882 9.42382 9.4317 -9.01363
174 1 15.7261 9.43409 9.43443 -8.95242
175 1 18.8697 9.43447 9.43443 -8.9499
176 1 1.57207 1.57226 11.007 -8.94958
177 1 4.71645 1.57194 11.007 -8.94945
178 1 7.86132 1.57089 11.007 -8.95031
179 1 11.0075 1.57094 11.007 -8.95005
180 1 14.1525 1.57181 11.007 -8.94971
181 1 17.2971 1.57215 11.007 -8.94957
182 1 20.4416 1.57229 11.007 -8.94961
183 1 1.57193 4.71691 11.007 -8.9496
184 1 4.71595 4.71611 11.007 -8.94978
185 1 7.8594 4.71133 11.007 -8.94854
186 1 11.0089 4.71182 11.007 -8.94709
187 1 14.1532 4.71526 11.007 -8.95029
188 1 17.2975 4.71656 11.007 -8.94957
189 1 20.4417 4.71697 11.007 -8.94962
190 1 1.57191 7.86194 11.007 -8.95
191 1 4.71524 7.86115 11.007 -8.95262
192 1 7.85221 7.85013 11.007 -9.00964
193 1 11.0129 7.85362 11.007 -9.04701
194 1 14.156 7.858 11.007 -8.94722
195 1 17.2981 7.86138 11.007 -8.95024
196 1 20.4418 7.86193 11.007 -8.94987
197 1 -0.000107496 1.17873e-15 12.5794 -8.9496
198 1 1.57207 1.57226 14.152 -8.94961
199 1 3.14429 9.32093e-16 12.5795 -8.94955
200 1 4.71644 1.57192 14.1523 -8.94944
201 1 6.28887 6.2273e-16 12.5797 -8.94969
202 1 7.86155 1.57138 14.1525 -8.94998
203 1 9.43446 7.31149e-16 12.5797 -8.95057
204 1 11.0073 1.57144 14.1525 -8.94972
205 1 12.58 -5.71059e-16 12.5797 -8.94971
206 1 14.1525 1.57183 14.1523 -8.94961
207 1 15.7248 9.05922e-16 12.5795 -8.94966
208 1 17.2971 1.57216 14.152 -8.94959
209 1 18.8693 1.22452e-17 12.5794 -8.9496
210 1 20.4416 1.57229 14.1519 -8.94962
211 1 -0.000123881 3.14462 12.5794 -8.94962
212 1 1.57191 4.71691 14.152 -8.94966
213 1 3.14413 3.14436 12.5795 -8.94962
214 1 4.71586 4.716 14.1527 -8.9491
215 1 6.28837 3.14295 12.58 -8.94915
216 1 7.86045 4.71345 14.1537 -8.94965
217 1 9.43441 3.14116 12.5798 -8.95261
218 1 11.0081 4.714 14.1535 -8.94797
219 1 12.5803 3.14287 12.58 -8.94952
220 1 14.1532 4.71543 14.1527 -8.9497
221 1 15.7251 3.14401 12.5796 -8.94958
222 1 17.2975 4.71658 14.1522 -8.9495
223 1 18.8695 3.14452 12.5795 -8.94962
224 1 20.4417 4.71697 14.152 -8.94965
225 1 -0.00012318 6.28945 12.5795 -8.94977
226 1 1.57191 7.86193 14.152 -8.94985
227 1 3.14376 6.28904 12.5797 -8.94974
228 1 4.71554 7.86121 14.1526 -8.95111
229 1 6.28708 6.2861 12.5812 -8.94692
230 1 7.85575 7.854 14.1593 -8.98269
231 1 9.43406 6.27556 12.58 -8.96573
232 1 11.01 7.85811 14.1558 -9.00109
233 1 12.5812 6.28519 12.5808 -8.95072
234 1 14.1553 7.85877 14.1541 -8.94685
235 1 15.726 6.28817 12.5799 -8.94865
236 1 17.2979 7.86157 14.1522 -8.95019
237 1 18.8698 6.28923 12.5795 -8.94964
238 1 20.4417 7.86195 14.152 -8.9498
239 1 -8.02711e-05 9.43449 12.5795 -8.94966
240 1 3.14409 9.4344 12.5797 -8.94959
241 1 6.28809 9.43373 12.5807 -9.00218
242 1 9.41244 9.37611 12.58 -9.26404
243 1 12.5882 9.42382 12.5822 -9.01363
244 1 15.7261 9.43409 12.5795 -8.95242
245 1 18.8697 9.43447 12.5795 -8.9499
246 1 -0.000112005 1.22036e-15 15.7244 -8.9496
247 1 1.57211 1.57227 17.2969 -8.94955
248 1 3.14432 1.08986e-15 15.7246 -8.94949
249 1 4.71669 1.57205 17.2972 -8.94954
250 1 6.28911 -5.24874e-16 15.7249 -8.94973
251 1 7.86188 1.57205 17.2972 -8.94956
252 1 9.43448 1.34577e-15 15.7248 -8.94958
253 1 11.0071 1.57204 17.2972 -8.94956
254 1 12.5798 -1.55982e-15 15.7248 -8.94969
255 1 14.1523 1.57201 17.2972 -8.94962
256 1 15.7247 1.87721e-15 15.7246 -8.94959
257 1 17.297 1.57219 17.2969 -8.94957
258 1 18.8693 1.37909e-15 15.7244 -8.9496
259 1 20.4416 1.5723 17.2968 -8.94958
260 1 22.0138 3.14463 15.7244 -8.94961
261 1 1.572 4.71697 17.297 -8.94966
262 1 3.14415 3.14437 15.7247 -8.94948
263 1 4.71617 4.71628 17.2977 -8.94884
264 1 6.28869 3.14354 15.7253 -8.94956
265 1 7.86172 4.71625 17.2976 -8.94991
266 1 9.43448 3.14359 15.7251 -8.9494
267 1 11.0071 4.7162 17.2977 -8.94949
268 1 12.5801 3.14356 15.7252 -8.94959
269 1 14.1527 4.716 17.2976 -8.9497
270 1 15.725 3.14412 15.7248 -8.94954
271 1 17.2974 4.71667 17.2971 -8.94941
272 1 18.8694 3.14453 15.7244 -8.94959
273 1 20.4416 4.71702 17.2969 -8.94965
274 1 -0.000138692 6.28949 15.7244 -8.94975
275 1 1.57206 7.86199 17.2969 -8.94963
276 1 3.14386 6.28918 15.7248 -8.94992
277 1 4.71639 7.86171 17.2974 -8.94956
278 1 6.28713 6.28696 15.727 -8.94692
279 1 7.86093 7.86057 17.299 -8.9508
280 1 9.43465 6.2873 15.7255 -8.94973
281 1 11.007 7.86102 17.2988 -8.95
282 1 12.5809 6.28693 15.7262 -8.95065
283 1 14.1544 7.85962 17.2995 -8.94713
284 1 15.7258 6.2884 15.7253 -8.94881
285 1 17.2976 7.86175 17.2971 -8.95008
286 1 18.8697 6.28931 15.7245 -8.94972
287 1 20.4417 7.86198 17.2969 -8.9497
288 1 22.0138 9.43448 15.7244 -8.94965
289 1 3.14418 9.43445 15.7247 -8.94969
290 1 6.28835 9.43414 15.7258 -8.94953
291 1 9.4323 9.43117 15.7272 -9.00234
292 1 12.586 9.42758 15.7321 -8.97955
293 1 15.7257 9.43434 15.7248 -8.95171
294 1 18.8696 9.43447 15.7245 -8.94974
295 1 22.0138 5.88666e-16 18.8692 -8.94955
296 1 1.5722 1.5723 20.4416 -8.9495
297 1 3.14449 1.4341e-15 18.8694 -8.94952
298 1 4.71702 1.57225 20.4417 -8.94965
299 1 6.28946 1.67956e-15 18.8694 -8.94961
300 1 7.86199 1.57223 20.4417 -8.94962
301 1 9.43449 2.55278e-16 18.8694 -8.94961
302 1 11.007 1.57222 20.4417 -8.94961
303 1 12.5795 1.06589e-15 18.8694 -8.94961
304 1 14.152 1.57221 20.4417 -8.94963
305 1 15.7245 2.77405e-15 18.8694 -8.9496
306 1 17.2969 1.57223 20.4416 -8.94958
307 1 18.8693 9.29183e-16 18.8692 -8.94957
308 1 20.4416 1.57231 20.4416 -8.94953
309 1 -9.73282e-05 3.14467 18.8692 -8.94959
310 1 1.57219 4.71708 20.4416 -8.94963
311 1 3.14435 3.14447 18.8695 -8.94937
312 1 4.71675 4.71681 20.4418 -8.9496
313 1 6.28934 3.14439 18.8696 -8.94972
314 1 7.86184 4.71672 20.4418 -8.94962
315 1 9.43445 3.14433 18.8695 -8.94959
316 1 11.007 4.71671 20.4418 -8.94961
317 1 12.5796 3.14432 18.8696 -8.94962
318 1 14.1522 4.71668 20.4418 -8.94973
319 1 15.7247 3.1443 18.8695 -8.94959
320 1 17.2972 4.71675 20.4417 -8.94934
321 1 18.8694 3.14457 18.8693 -8.94954
322 1 20.4416 4.71708 20.4416 -8.94962
323 1 22.0138 6.28954 18.8692 -8.94965
324 1 1.57217 7.86201 20.4416 -8.94961
325 1 3.14433 6.28942 18.8694 -8.94965
326 1 4.71672 7.8619 20.4418 -8.94967
327 1 6.28885 6.28889 18.8701 -8.94977
328 1 7.86141 7.86139 20.4422 -8.94968
329 1 9.43432 6.28876 18.8699 -8.94947
330 1 11.007 7.86146 20.4422 -8.9495
331 1 12.5798 6.28879 18.87 -8.94992
332 1 14.1528 7.86119 20.4424 -8.94969
333 1 15.7254 6.28864 18.87 -8.9489
334 1 17.2972 7.86185 20.4417 -8.94962
335 1 18.8695 6.2894 18.8693 -8.94971
336 1 20.4416 7.862 20.4416 -8.9496
337 1 -7.37651e-05 9.43448 18.8692 -8.94961
338 1 3.14438 9.43445 18.8694 -8.94957
339 1 6.28904 9.43438 18.8698 -8.94989
340 1 9.43363 9.4334 18.8713 -8.94815
341 1 12.5809 9.4332 18.8721 -8.94984
342 1 15.7251 9.43428 18.8697 -8.94956
343 1 18.8695 9.43444 18.8693 -8.94958
344 1 1.57217 11.007 1.57229 -8.9496
345 1 4.71674 11.007 1.57214 -8.94958
346 1 7.86164 11.007 1.57187 -8.94939
347 1 11.007 11.007 1.57031 -8.95294
348 1 14.1527 11.007 1.57168 -8.94922
349 1 17.2972 11.007 1.5722 -8.94957
350 1 20.4416 11.007 1.57231 -8.9496
351 1 22.0138 12.5794 3.29303e-16 -8.94961
352 1 1.57217 14.1519 1.57229 -8.94961
353 1 3.14445 12.5794 1.6449e-15 -8.94958
354 1 4.71672 14.152 1.57214 -8.94967
355 1 6.28915 12.5795 1.74705e-15 -8.94963
356 1 7.86141 14.1525 1.5717 -8.94968
357 1 9.43404 12.5799 8.27971e-16 -8.94973
358 1 11.007 14.1524 1.57168 -8.9495
359 1 12.58 12.5799 -3.45594e-16 -8.95027
360 1 14.1528 14.1527 1.57153 -8.94969
361 1 15.7249 12.5796 4.92243e-17 -8.94942
362 1 17.2972 14.1521 1.57221 -8.94962
363 1 18.8694 12.5795 -1.82531e-16 -8.94959
364 1 20.4416 14.1519 1.57232 -8.9496
365 1 -5.20067e-05 15.7243 -6.89017e-17 -8.94961
366 1 1.57219 17.2968 1.57228 -8.94963
367 1 3.14447 15.7244 -5.89164e-16 -8.94964
368 1 4.71675 17.2971 1.57209 -8.9496
369 1 6.2891 15.7248 3.72449e-16 -8.94967
370 1 7.86184 17.2972 1.57209 -8.94962
371 1 9.43432 15.7248 6.34418e-16 -8.94957
372 1 11.007 17.2972 1.57207 -8.94961
373 1 12.5796 15.7248 -2.61734e-16 -8.9496
374 1 14.1522 17.2972 1.57209 -8.94973
375 1 15.725 15.7249 1.18203e-15 -8.94951
376 1 17.2972 17.2972 1.57216 -8.94934
377 1 18.8694 15.7244 1.74124e-16 -8.94964
378 1 20.4416 17.2968 1.57231 -8.94962
379 1 22.0138 18.8692 -3.83808e-16 -8.94958
380 1 1.5722 20.4416 1.57228 -8.9495
381 1 3.14453 18.8693 -3.15314e-16 -8.94957
382 1 4.71702 20.4417 1.57223 -8.94965
383 1 6.28944 18.8694 1.34451e-15 -8.94964
384 1 7.86199 20.4417 1.57222 -8.94962
385 1 9.43446 18.8694 1.73306e-15 -8.94961
386 1 11.007 20.4417 1.57222 -8.94961
387 1 12.5795 18.8694 1.2825e-15 -8.94962
388 1 14.152 20.4417 1.57223 -8.94963
389 1 15.7245 18.8694 1.00193e-15 -8.94967
390 1 17.2969 20.4417 1.57226 -8.94958
391 1 18.8693 18.8693 -2.32021e-16 -8.94946
392 1 20.4416 20.4416 1.57234 -8.94953
393 1 1.5721 11.007 4.71695 -8.94958
394 1 4.7166 11.007 4.71652 -8.9491
395 1 7.86212 11.007 4.71584 -8.95012
396 1 11.0076 11.007 4.7057 -8.96687
397 1 14.153 11.007 4.71557 -8.94862
398 1 17.2974 11.007 4.71675 -8.94944
399 1 20.4417 11.007 4.71702 -8.94964
400 1 -7.37651e-05 12.5794 3.14465 -8.94961
401 1 1.57206 14.1519 4.71696 -8.94963
402 1 3.14438 12.5794 3.1445 -8.94957
403 1 4.71639 14.1522 4.71649 -8.94956
404 1 6.28904 12.5795 3.14411 -8.94989
405 1 7.86093 14.1533 4.71488 -8.9508
406 1 9.43363 12.5805 3.14261 -8.94815
407 1 11.007 14.1529 4.71509 -8.95
408 1 12.5809 12.5807 3.14177 -8.94984
409 1 14.1544 14.1543 4.7144 -8.94713
410 1 15.7251 12.5796 3.1442 -8.94956
411 1 17.2976 14.1522 4.71678 -8.95008
412 1 18.8695 12.5795 3.14459 -8.94958
413 1 20.4417 14.1519 4.71705 -8.9497
414 1 22.0138 15.7244 3.14466 -8.94965
415 1 1.572 17.2969 4.71692 -8.94966
416 1 3.14433 15.7245 3.14447 -8.94965
417 1 4.71617 17.2976 4.71619 -8.94884
418 1 6.28885 15.725 3.14379 -8.94977
419 1 7.86172 17.2976 4.71631 -8.94991
420 1 9.43432 15.7251 3.14395 -8.94947
421 1 11.0071 17.2977 4.71622 -8.94949
422 1 12.5798 15.7251 3.14389 -8.94992
423 1 14.1527 17.2979 4.71626 -8.9497
424 1 15.7254 15.7253 3.14386 -8.9489
425 1 17.2974 17.2972 4.71677 -8.94941
426 1 18.8695 15.7245 3.14458 -8.94971
427 1 20.4416 17.2969 4.71704 -8.94965
428 1 -9.73282e-05 18.8692 3.14466 -8.94959
429 1 1.57211 20.4416 4.717 -8.94955
430 1 3.14435 18.8694 3.14442 -8.94937
431 1 4.71669 20.4419 4.71667 -8.94954
432 1 6.28934 18.8695 3.14435 -8.94972
433 1 7.86188 20.4418 4.7167 -8.94956
434 1 9.43445 18.8696 3.14436 -8.94959
435 1 11.0071 20.4419 4.71668 -8.94956
436 1 12.5796 18.8696 3.14433 -8.94962
437 1 14.1523 20.4419 4.71671 -8.94962
438 1 15.7247 18.8696 3.1444 -8.94959
439 1 17.297 20.4417 4.71696 -8.94957
440 1 18.8694 18.8693 3.14463 -8.94954
441 1 20.4416 20.4416 4.7171 -8.94958
442 1 1.57207 11.007 7.86185 -8.94955
443 1 4.7165 11.007 7.86143 -8.94911
444 1 7.86124 11.007 7.85917 -8.98166
445 1 11.0334 11.007 7.80378 -9.23555
446 1 14.1514 11.007 7.86258 -9.00213
447 1 17.2973 11.007 7.86181 -8.94871
448 1 20.4417 11.007 7.86192 -8.94952
449 1 22.0138 12.5794 6.28946 -8.94965
450 1 1.57191 14.152 7.86186 -8.94985
451 1 3.14418 12.5795 6.2892 -8.94969
452 1 4.71554 14.1527 7.86128 -8.95111
453 1 6.28835 12.5798 6.28815 -8.94953
454 1 7.85575 14.1599 7.85463 -8.98269
455 1 9.4323 12.5827 6.28666 -9.00234
456 1 11.01 14.1558 7.85813 -9.00109
457 1 12.586 12.5863 6.28183 -8.97955
458 1 14.1553 14.1551 7.85983 -8.94685
459 1 15.7257 12.5796 6.2891 -8.95171
460 1 17.2979 14.1523 7.86174 -8.95019
461 1 18.8696 12.5794 6.28943 -8.94974
462 1 20.4417 14.152 7.86194 -8.9498
463 1 -0.000138692 15.7244 6.28946 -8.94975
464 1 1.57191 17.297 7.86186 -8.94966
465 1 3.14386 15.7247 6.28909 -8.94992
466 1 4.71586 17.2979 7.86122 -8.9491
467 1 6.28713 15.7269 6.2869 -8.94692
468 1 7.86045 17.3005 7.8602 -8.94965
469 1 9.43465 15.7266 6.28841 -8.94973
470 1 11.0081 17.2999 7.86035 -8.94797
471 1 12.5809 15.727 6.28766 -8.95065
472 1 14.1532 17.2985 7.8612 -8.9497
473 1 15.7258 15.7255 6.28856 -8.94881
474 1 17.2975 17.2973 7.86173 -8.9495
475 1 18.8697 15.7246 6.28937 -8.94972
476 1 20.4417 17.2969 7.86194 -8.94965
477 1 22.0138 18.8693 6.28949 -8.94961
478 1 1.57207 20.4416 7.86193 -8.94961
479 1 3.14415 18.8695 6.28921 -8.94948
480 1 4.71644 20.442 7.86159 -8.94944
481 1 6.28869 18.8704 6.2886 -8.94956
482 1 7.86155 20.4425 7.86139 -8.94998
483 1 9.43448 18.8703 6.28884 -8.9494
484 1 11.0073 20.4425 7.86139 -8.94972
485 1 12.5801 18.8703 6.2887 -8.94959
486 1 14.1525 20.4421 7.8616 -8.94961
487 1 15.725 18.8698 6.28914 -8.94954
488 1 17.2971 20.4417 7.86189 -8.94959
489 1 18.8694 18.8694 6.28945 -8.94959
490 1 20.4416 20.4416 7.862 -8.94962
491 1 -8.02711e-05 12.5794 9.43442 -8.94966
492 1 3.14409 12.5795 9.43424 -8.94959
493 1 6.28809 12.5802 9.43318 -9.00218
494 1 9.41244 12.6378 9.43393 -9.26404
495 1 12.5882 12.5901 9.4317 -9.01363
496 1 15.7261 12.5798 9.43443 -8.95242
497 1 18.8697 12.5794 9.43443 -8.9499
498 1 -0.00012318 15.7245 9.43444 -8.94977
499 1 3.14376 15.7249 9.43425 -8.94974
500 1 6.28708 15.7278 9.43274 -8.94692
501 1 9.43406 15.7383 9.43388 -8.96573
502 1 12.5812 15.7287 9.43314 -8.95072
503 1 15.726 15.7257 9.43398 -8.94865
504 1 18.8698 15.7247 9.43438 -8.94964
505 1 -0.000123881 18.8693 9.43446 -8.94962
506 1 3.14413 18.8695 9.43435 -8.94962
507 1 6.28837 18.871 9.43385 -8.94915
508 1 9.43441 18.8727 9.43406 -8.95261
509 1 12.5803 18.871 9.4339 -8.94952
510 1 15.7251 18.8699 9.4343 -8.94958
511 1 18.8695 18.8694 9.43444 -8.94962
688 2 10.1863 11.007 9.39161 0.807148
512 1 1.57203 11.007 11.007 -8.94976
513 1 4.71594 11.007 11.007 -8.95108
514 1 7.85598 11.007 11.007 -9.01791
515 1 11.0564 11.007 11.007 -9.4408
516 1 14.1498 11.007 11.007 -9.04626
517 1 17.2972 11.007 11.007 -8.94809
518 1 20.4417 11.007 11.007 -8.94945
519 1 1.57191 14.152 11.007 -8.95
520 1 4.71524 14.1528 11.007 -8.95262
521 1 7.85221 14.1638 11.007 -9.00964
522 1 11.0129 14.1603 11.007 -9.04701
523 1 14.156 14.1559 11.007 -8.94722
524 1 17.2981 14.1525 11.007 -8.95024
525 1 20.4418 14.152 11.007 -8.94987
526 1 1.57193 17.297 11.007 -8.9496
527 1 4.71595 17.2978 11.007 -8.94978
528 1 7.8594 17.3026 11.007 -8.94854
529 1 11.0089 17.3021 11.007 -8.94709
530 1 14.1532 17.2986 11.007 -8.95029
531 1 17.2975 17.2973 11.007 -8.94957
532 1 20.4417 17.2969 11.007 -8.94962
533 1 1.57207 20.4416 11.007 -8.94958
534 1 4.71645 20.442 11.007 -8.94945
535 1 7.86132 20.443 11.007 -8.95031
536 1 11.0075 20.443 11.007 -8.95005
537 1 14.1525 20.4421 11.007 -8.94971
538 1 17.2971 20.4417 11.007 -8.94957
539 1 20.4416 20.4416 11.007 -8.94961
540 1 1.57207 11.007 14.152 -8.94955
541 1 4.7165 11.007 14.1525 -8.94911
542 1 7.86124 11.007 14.1547 -8.98166
543 1 11.0334 11.007 14.2101 -9.23555
544 1 14.1514 11.007 14.1513 -9.00213
545 1 17.2973 11.007 14.1521 -8.94871
546 1 20.4417 11.007 14.152 -8.94952
547 1 -8.02711e-05 12.5794 12.5795 -8.94966
548 1 1.57191 14.152 14.152 -8.94985
549 1 3.14409 12.5795 12.5797 -8.94959
550 1 4.71554 14.1527 14.1526 -8.95111
551 1 6.28809 12.5802 12.5807 -9.00218
552 1 7.85575 14.1599 14.1593 -8.98269
553 1 9.41244 12.6378 12.58 -9.26404
554 1 11.01 14.1558 14.1558 -9.00109
555 1 12.5882 12.5901 12.5822 -9.01363
556 1 14.1553 14.1551 14.1541 -8.94685
557 1 15.7261 12.5798 12.5795 -8.95242
558 1 17.2979 14.1523 14.1522 -8.95019
559 1 18.8697 12.5794 12.5795 -8.9499
560 1 20.4417 14.152 14.152 -8.9498
561 1 -0.00012318 15.7245 12.5795 -8.94977
562 1 1.57191 17.297 14.152 -8.94966
563 1 3.14376 15.7249 12.5797 -8.94974
564 1 4.71586 17.2979 14.1527 -8.9491
565 1 6.28708 15.7278 12.5812 -8.94692
566 1 7.86045 17.3005 14.1537 -8.94965
567 1 9.43406 15.7383 12.58 -8.96573
568 1 11.0081 17.2999 14.1535 -8.94797
569 1 12.5812 15.7287 12.5808 -8.95072
570 1 14.1532 17.2985 14.1527 -8.9497
571 1 15.726 15.7257 12.5799 -8.94865
572 1 17.2975 17.2973 14.1522 -8.9495
573 1 18.8698 15.7247 12.5795 -8.94964
574 1 20.4417 17.2969 14.152 -8.94965
575 1 -0.000123881 18.8693 12.5794 -8.94962
576 1 1.57207 20.4416 14.152 -8.94961
577 1 3.14413 18.8695 12.5795 -8.94962
578 1 4.71644 20.442 14.1523 -8.94944
579 1 6.28837 18.871 12.58 -8.94915
580 1 7.86155 20.4425 14.1525 -8.94998
581 1 9.43441 18.8727 12.5798 -8.95261
582 1 11.0073 20.4425 14.1525 -8.94972
583 1 12.5803 18.871 12.58 -8.94952
584 1 14.1525 20.4421 14.1523 -8.94961
585 1 15.7251 18.8699 12.5796 -8.94958
586 1 17.2971 20.4417 14.152 -8.94959
587 1 18.8695 18.8694 12.5795 -8.94962
588 1 20.4416 20.4416 14.1519 -8.94962
589 1 1.5721 11.007 17.297 -8.94958
590 1 4.7166 11.007 17.2974 -8.9491
591 1 7.86212 11.007 17.2981 -8.95012
592 1 11.0076 11.007 17.3082 -8.96687
593 1 14.153 11.007 17.2983 -8.94862
594 1 17.2974 11.007 17.2971 -8.94944
595 1 20.4417 11.007 17.2969 -8.94964
596 1 22.0138 12.5794 15.7244 -8.94965
597 1 1.57206 14.1519 17.2969 -8.94963
598 1 3.14418 12.5795 15.7247 -8.94969
599 1 4.71639 14.1522 17.2974 -8.94956
600 1 6.28835 12.5798 15.7258 -8.94953
601 1 7.86093 14.1533 17.299 -8.9508
602 1 9.4323 12.5827 15.7272 -9.00234
603 1 11.007 14.1529 17.2988 -8.95
604 1 12.586 12.5863 15.7321 -8.97955
605 1 14.1544 14.1543 17.2995 -8.94713
606 1 15.7257 12.5796 15.7248 -8.95171
607 1 17.2976 14.1522 17.2971 -8.95008
608 1 18.8696 12.5794 15.7245 -8.94974
609 1 20.4417 14.1519 17.2969 -8.9497
610 1 -0.000138692 15.7244 15.7244 -8.94975
611 1 1.572 17.2969 17.297 -8.94966
612 1 3.14386 15.7247 15.7248 -8.94992
613 1 4.71617 17.2976 17.2977 -8.94884
614 1 6.28713 15.7269 15.727 -8.94692
615 1 7.86172 17.2976 17.2976 -8.94991
616 1 9.43465 15.7266 15.7255 -8.94973
617 1 11.0071 17.2977 17.2977 -8.94949
618 1 12.5809 15.727 15.7262 -8.95065
619 1 14.1527 17.2979 17.2976 -8.9497
620 1 15.7258 15.7255 15.7253 -8.94881
621 1 17.2974 17.2972 17.2971 -8.94941
622 1 18.8697 15.7246 15.7245 -8.94972
623 1 20.4416 17.2969 17.2969 -8.94965
624 1 22.0138 18.8693 15.7244 -8.94961
625 1 1.57211 20.4416 17.2969 -8.94955
626 1 3.14415 18.8695 15.7247 -8.94948
627 1 4.71669 20.4419 17.2972 -8.94954
628 1 6.28869 18.8704 15.7253 -8.94956
629 1 7.86188 20.4418 17.2972 -8.94956
630 1 9.43448 18.8703 15.7251 -8.9494
631 1 11.0071 20.4419 17.2972 -8.94956
632 1 12.5801 18.8703 15.7252 -8.94959
633 1 14.1523 20.4419 17.2972 -8.94962
634 1 15.725 18.8698 15.7248 -8.94954
635 1 17.297 20.4417 17.2969 -8.94957
636 1 18.8694 18.8694 15.7244 -8.94959
637 1 20.4416 20.4416 17.2968 -8.94958
638 1 1.57217 11.007 20.4416 -8.9496
639 1 4.71674 11.007 20.4418 -8.94958
640 1 7.86164 11.007 20.442 -8.94939
641 1 11.007 11.007 20.4436 -8.95294
642 1 14.1527 11.007 20.4422 -8.94922
643 1 17.2972 11.007 20.4417 -8.94957
644 1 20.4416 11.007 20.4416 -8.9496
645 1 -7.37651e-05 12.5794 18.8692 -8.94961
646 1 1.57217 14.1519 20.4416 -8.94961
647 1 3.14438 12.5794 18.8694 -8.94957
648 1 4.71672 14.152 20.4418 -8.94967
649 1 6.28904 12.5795 18.8698 -8.94989
650 1 7.86141 14.1525 20.4422 -8.94968
651 1 9.43363 12.5805 18.8713 -8.94815
652 1 11.007 14.1524 20.4422 -8.9495
653 1 12.5809 12.5807 18.8721 -8.94984
654 1 14.1528 14.1527 20.4424 -8.94969
655 1 15.7251 12.5796 18.8697 -8.94956
656 1 17.2972 14.1521 20.4417 -8.94962
657 1 18.8695 12.5795 18.8693 -8.94958
658 1 20.4416 14.1519 20.4416 -8.9496
659 1 22.0138 15.7244 18.8692 -8.94965
660 1 1.57219 17.2968 20.4416 -8.94963
661 1 3.14433 15.7245 18.8694 -8.94965
662 1 4.71675 17.2971 20.4418 -8.9496
663 1 6.28885 15.725 18.8701 -8.94977
664 1 7.86184 17.2972 20.4418 -8.94962
665 1 9.43432 15.7251 18.8699 -8.94947
666 1 11.007 17.2972 20.4418 -8.94961
667 1 12.5798 15.7251 18.87 -8.94992
668 1 14.1522 17.2972 20.4418 -8.94973
669 1 15.7254 15.7253 18.87 -8.9489
670 1 17.2972 17.2972 20.4417 -8.94934
671 1 18.8695 15.7245 18.8693 -8.94971
672 1 20.4416 17.2968 20.4416 -8.94962
673 1 -9.73282e-05 18.8692 18.8692 -8.94959
674 1 1.5722 20.4416 20.4416 -8.9495
675 1 3.14435 18.8694 18.8695 -8.94937
676 1 4.71702 20.4417 20.4417 -8.94965
677 1 6.28934 18.8695 18.8696 -8.94972
678 1 7.86199 20.4417 20.4417 -8.94962
679 1 9.43445 18.8696 18.8695 -8.94959
680 1 11.007 20.4417 20.4417 -8.94961
681 1 12.5796 18.8696 18.8696 -8.94962
682 1 14.152 20.4417 20.4417 -8.94963
683 1 15.7247 18.8696 18.8695 -8.94959
684 1 17.2969 20.4417 20.4416 -8.94958
685 1 18.8694 18.8693 18.8693 -8.94954
686 1 20.4416 20.4416 20.4416 -8.94953
687 2 10.1863 11.007 12.6223 0.807148
