ITEM: TIMESTEP
61
ITEM: NUMBER OF ATOMS
688
ITEM: BOX BOUNDS pp pp pp
0.0000000000000000e+00 2.2013900999999997e+01
0.0000000000000000e+00 2.2013900999999997e+01
0.0000000000000000e+00 2.2013900999999997e+01
ITEM: ATOMS id type x y z c_pot
1 1 -7.14898e-05 1.00245e-15 4.35917e-15 -8.9495
2 1 1.57223 1.5723 1.5723 -8.94951
3 1 3.14466 -6.28328e-15 1.46263e-15 -8.94962
4 1 4.71705 1.57226 1.57225 -8.94966
5 1 6.28959 2.20397e-14 -5.7177e-15 -8.94963
6 1 7.86202 1.57224 1.57225 -8.94962
7 1 9.43451 -8.49414e-15 8.24426e-15 -8.94962
8 1 11.007 1.57225 1.57226 -8.94961
9 1 12.5794 -1.53421e-15 -3.53339e-15 -8.94963
10 1 14.1519 1.57223 1.57225 -8.94964
11 1 15.7244 -1.15206e-14 7.07307e-15 -8.94964
12 1 17.2969 1.57224 1.57228 -8.94958
13 1 18.8692 1.24869e-14 9.11409e-15 -8.94954
14 1 20.4416 1.57231 1.57234 -8.94953
15 1 22.0138 3.1447 7.77495e-15 -8.94959
16 1 1.5722 4.71708 1.5723 -8.94963
17 1 3.14457 3.1446 1.06881e-14 -8.94957
18 1 4.71679 4.71683 1.57209 -8.94959
19 1 6.28948 3.14453 9.90193e-15 -8.94964
20 1 7.86187 4.71674 1.57212 -8.94961
21 1 9.43446 3.14454 -4.15668e-15 -8.9496
22 1 11.007 4.71675 1.57207 -8.9496
23 1 12.5795 3.14451 -1.61603e-15 -8.94961
24 1 14.1521 4.71671 1.57212 -8.94973
25 1 15.7245 3.1445 -5.68842e-16 -8.94968
26 1 17.2972 4.71677 1.57217 -8.94932
27 1 18.8693 3.1446 -6.25722e-15 -8.94947
28 1 20.4416 4.71709 1.57232 -8.94961
29 1 -6.05311e-05 6.28957 -1.40805e-15 -8.94963
30 1 1.57219 7.86201 1.57231 -8.94961
31 1 3.1445 6.28948 7.82236e-15 -8.94963
32 1 4.71672 7.8619 1.57215 -8.94967
33 1 6.28912 6.28915 1.50926e-14 -8.94965
34 1 7.86141 7.8614 1.57168 -8.94969
35 1 9.43436 6.2891 1.96973e-14 -8.94957
36 1 11.0069 7.86146 1.57167 -8.9495
37 1 12.5796 6.2891 2.94538e-14 -8.94958
38 1 14.1528 7.86121 1.57154 -8.94969
39 1 15.7249 6.289 -3.22199e-15 -8.94951
40 1 17.2972 7.86189 1.57224 -8.94962
41 1 18.8694 6.28947 5.47664e-15 -8.94966
42 1 20.4416 7.86201 1.57232 -8.94961
43 1 22.0138 9.43448 -4.57681e-15 -8.94962
44 1 3.14448 9.43446 1.26696e-14 -8.94957
45 1 6.28916 9.43442 -1.12479e-14 -8.94963
46 1 9.43402 9.434 -3.10929e-14 -8.94972
47 1 12.58 9.43399 -1.04696e-14 -8.95028
48 1 15.7249 9.43437 -3.0077e-14 -8.94941
49 1 18.8694 9.43445 1.47616e-14 -8.94959
50 1 22.0138 1.39487e-14 3.14471 -8.94955
51 1 1.57215 1.57229 4.71703 -8.94956
52 1 3.14454 -5.91275e-15 3.14455 -8.94951
53 1 4.71673 1.57204 4.7167 -8.94955
54 1 6.2895 -1.24104e-15 3.14452 -8.94962
55 1 7.86193 1.5721 4.71674 -8.94956
56 1 9.43451 -6.46872e-15 3.14453 -8.94961
57 1 11.0071 1.57207 4.71673 -8.94957
58 1 12.5795 4.22089e-15 3.14452 -8.94961
59 1 14.1522 1.57202 4.71674 -8.94964
60 1 15.7245 -3.67503e-15 3.14455 -8.9496
61 1 17.297 1.57222 4.71698 -8.94957
62 1 18.8692 4.23429e-15 3.14468 -8.94958
63 1 20.4416 1.57229 4.71712 -8.94959
64 1 -8.05331e-05 3.14467 3.14467 -8.9496
65 1 1.57201 4.71698 4.71694 -8.94966
66 1 3.14438 3.14448 3.14444 -8.94936
67 1 4.7162 4.71632 4.71622 -8.94887
68 1 6.28939 3.14443 3.1444 -8.94973
69 1 7.86173 4.71628 4.71637 -8.94988
70 1 9.43444 3.14435 3.1444 -8.94959
71 1 11.0072 4.71624 4.71626 -8.9495
72 1 12.5796 3.14436 3.14436 -8.9496
73 1 14.1526 4.71602 4.71631 -8.9497
74 1 15.7247 3.14432 3.14443 -8.94959
75 1 17.2973 4.7167 4.71681 -8.94938
76 1 18.8693 3.14458 3.14465 -8.94955
77 1 20.4416 4.71703 4.71706 -8.94964
78 1 22.0138 6.28954 3.14466 -8.94965
79 1 1.57207 7.86199 4.71695 -8.94963
80 1 3.14435 6.28945 3.14449 -8.94963
81 1 4.71634 7.86171 4.71648 -8.94957
82 1 6.28884 6.28889 3.14378 -8.94979
83 1 7.8609 7.86061 4.71497 -8.95079
84 1 9.43433 6.2888 3.14395 -8.94948
85 1 11.007 7.86105 4.71506 -8.94999
86 1 12.5797 6.28882 3.14394 -8.94993
87 1 14.1543 7.85971 4.71449 -8.94705
88 1 15.7253 6.28866 3.14385 -8.94893
89 1 17.2976 7.86174 4.71675 -8.95011
90 1 18.8695 6.28941 3.1446 -8.94971
91 1 20.4417 7.86198 4.71705 -8.94971
92 1 -7.41011e-05 9.43449 3.14465 -8.94962
93 1 3.14435 9.43443 3.14449 -8.94955
94 1 6.28901 9.4344 3.14407 -8.94993
95 1 9.43366 9.43349 3.14265 -8.94808
96 1 12.5809 9.43318 3.14177 -8.94984
97 1 15.7251 9.43427 3.1442 -8.94953
98 1 18.8694 9.43445 3.1446 -8.94956
99 1 -0.00011892 2.50516e-15 6.28956 -8.9496
100 1 1.57212 1.57229 7.86195 -8.94961
101 1 3.1444 5.5547e-15 6.28935 -8.94949
102 1 4.71649 1.57194 7.86164 -8.94944
103 1 6.28915 6.92782e-15 6.28906 -8.94975
104 1 7.86159 1.57144 7.86143 -8.94998
105 1 9.43451 4.02595e-15 6.28911 -8.94958
106 1 11.0073 1.57147 7.86143 -8.94973
107 1 12.5798 -9.20281e-17 6.28912 -8.9497
108 1 14.1525 1.57186 7.86165 -8.94963
109 1 15.7247 -4.90684e-15 6.28933 -8.94959
110 1 17.2971 1.5722 7.86191 -8.9496
111 1 18.8693 -8.1545e-15 6.28952 -8.94961
112 1 20.4416 1.57227 7.86201 -8.94963
113 1 22.0138 3.14463 6.28951 -8.94962
114 1 1.57195 4.71692 7.86188 -8.94964
115 1 3.14419 3.14441 6.28927 -8.94945
116 1 4.71584 4.71598 7.86118 -8.94918
117 1 6.28874 3.14361 6.28865 -8.94955
118 1 7.86051 4.71357 7.8602 -8.94964
119 1 9.43446 3.14363 6.28888 -8.94939
120 1 11.008 4.71408 7.86043 -8.94796
121 1 12.58 3.14363 6.28874 -8.94955
122 1 14.1532 4.71539 7.86121 -8.94974
123 1 15.725 3.14416 6.28918 -8.94953
124 1 17.2975 4.71659 7.86174 -8.94946
125 1 18.8694 3.14454 6.28947 -8.94959
126 1 20.4417 4.71699 7.86196 -8.94965
127 1 -0.000148458 6.28949 6.28946 -8.94976
128 1 1.57189 7.86193 7.86187 -8.94982
129 1 3.14386 6.28919 6.28909 -8.94992
130 1 4.71555 7.86132 7.8613 -8.95112
131 1 6.2872 6.28705 6.28692 -8.94691
132 1 7.85576 7.85411 7.85454 -8.98274
133 1 9.43454 6.28736 6.28846 -8.94977
134 1 11.0101 7.85838 7.85829 -9.00101
135 1 12.5809 6.28705 6.28763 -8.95072
136 1 14.1553 7.85894 7.85969 -8.94677
137 1 15.7258 6.28837 6.28854 -8.94883
138 1 17.298 7.86152 7.86175 -8.95021
139 1 18.8696 6.2893 6.28938 -8.9497
140 1 20.4417 7.86193 7.86194 -8.94983
141 1 22.0138 9.43449 6.28946 -8.94967
142 1 3.14412 9.43445 6.28918 -8.94966
143 1 6.28837 9.4341 6.28813 -8.94949
144 1 9.43215 9.43132 6.28678 -9.00229
145 1 12.5863 9.42725 6.28178 -8.97973
146 1 15.7255 9.43438 6.28914 -8.95164
147 1 18.8696 9.43449 6.28941 -8.94971
148 1 -0.000109891 1.11328e-15 9.43449 -8.9496
149 1 3.14437 8.46551e-15 9.43438 -8.94956
150 1 6.2889 -7.77732e-15 9.43417 -8.94972
151 1 9.43448 1.55712e-15 9.43418 -8.95056
152 1 12.58 3.9117e-16 9.43416 -8.94973
153 1 15.7247 8.1802e-15 9.43439 -8.94967
154 1 18.8693 4.89066e-15 9.43448 -8.9496
155 1 -8.14525e-05 3.14463 9.43447 -8.94963
156 1 3.14416 3.14439 9.43438 -8.94961
157 1 6.2884 3.14297 9.43389 -8.94913
158 1 9.43444 3.14125 9.43409 -8.95263
159 1 12.5803 3.14295 9.43393 -8.94947
160 1 15.7251 3.14402 9.43429 -8.94957
161 1 18.8694 3.14455 9.43447 -8.94962
162 1 -0.000121429 6.28944 9.43443 -8.94978
163 1 3.14368 6.28903 9.43422 -8.94979
164 1 6.28722 6.28637 9.43298 -8.94682
165 1 9.43406 6.2756 9.43383 -8.9658
166 1 12.5811 6.28541 9.43325 -8.95076
167 1 15.726 6.28814 9.43399 -8.94873
168 1 18.8698 6.28921 9.43438 -8.94963
169 1 -8.68564e-05 9.43449 9.43442 -8.94965
170 1 3.14407 9.43443 9.4342 -8.94964
171 1 6.28792 9.43365 9.43334 -9.00204
172 1 9.41282 9.37671 9.4335 -9.26506
173 1 12.5882 9.42359 9.43176 -9.01359
174 1 15.7262 9.4342 9.43442 -8.95236
175 1 18.8697 9.43446 9.43442 -8.94991
176 1 1.57211 1.5723 11.007 -8.94959
177 1 4.71651 1.572 11.007 -8.94944
178 1 7.86135 1.57095 11.007 -8.95028
179 1 11.0075 1.57102 11.007 -8.95003
180 1 14.1525 1.57184 11.007 -8.94973
181 1 17.2971 1.57221 11.007 -8.94957
182 1 20.4416 1.57226 11.007 -8.94962
183 1 1.57197 4.71691 11.007 -8.94955
184 1 4.71599 4.71614 11.007 -8.9498
185 1 7.85939 4.71158 11.007 -8.94855
186 1 11.0089 4.71195 11.007 -8.94704
187 1 14.1532 4.71528 11.007 -8.95031
188 1 17.2975 4.71654 11.007 -8.94951
189 1 20.4416 4.717 11.007 -8.94963
190 1 1.57186 7.86194 11.007 -8.94994
191 1 4.71555 7.86132 11.007 -8.95259
192 1 7.85163 7.84991 11.007 -9.0099
193 1 11.0134 7.85387 11.007 -9.04702
194 1 14.1559 7.85815 11.007 -8.9472
195 1 17.2982 7.86137 11.007 -8.9502
196 1 20.4418 7.86191 11.007 -8.9499
197 1 -0.000109891 -1.1979e-15 12.5794 -8.9496
198 1 1.57212 1.57229 14.1519 -8.94961
199 1 3.14437 6.55484e-15 12.5795 -8.94956
200 1 4.71649 1.57194 14.1523 -8.94944
201 1 6.2889 -1.0369e-15 12.5797 -8.94972
202 1 7.86159 1.57144 14.1525 -8.94998
203 1 9.43448 1.6045e-14 12.5797 -8.95056
204 1 11.0073 1.57147 14.1525 -8.94973
205 1 12.58 -1.2651e-14 12.5797 -8.94973
206 1 14.1525 1.57186 14.1522 -8.94963
207 1 15.7247 1.41019e-14 12.5795 -8.94967
208 1 17.2971 1.5722 14.152 -8.9496
209 1 18.8693 -1.61767e-14 12.5794 -8.9496
210 1 20.4416 1.57227 14.1519 -8.94963
211 1 -8.14525e-05 3.14463 12.5794 -8.94963
212 1 1.57195 4.71692 14.152 -8.94964
213 1 3.14416 3.14439 12.5795 -8.94961
214 1 4.71584 4.71598 14.1527 -8.94918
215 1 6.2884 3.14297 12.58 -8.94913
216 1 7.86051 4.71357 14.1537 -8.94964
217 1 9.43444 3.14125 12.5798 -8.95263
218 1 11.008 4.71408 14.1535 -8.94796
219 1 12.5803 3.14295 12.58 -8.94947
220 1 14.1532 4.71539 14.1527 -8.94974
221 1 15.7251 3.14402 12.5796 -8.94957
222 1 17.2975 4.71659 14.1522 -8.94946
223 1 18.8694 3.14455 12.5794 -8.94962
224 1 20.4417 4.71699 14.1519 -8.94965
225 1 -0.000121429 6.28944 12.5795 -8.94978
226 1 1.57189 7.86193 14.152 -8.94982
227 1 3.14368 6.28903 12.5797 -8.94979
228 1 4.71555 7.86132 14.1526 -8.95112
229 1 6.28722 6.28637 12.5809 -8.94682
230 1 7.85576 7.85411 14.1594 -8.98274
231 1 9.43406 6.2756 12.5801 -8.9658
232 1 11.0101 7.85838 14.1556 -9.00101
233 1 12.5811 6.28541 12.5806 -8.95076
234 1 14.1553 7.85894 14.1542 -8.94677
235 1 15.726 6.28814 12.5799 -8.94873
236 1 17.298 7.86152 14.1522 -8.95021
237 1 18.8698 6.28921 12.5795 -8.94963
238 1 20.4417 7.86193 14.152 -8.94983
239 1 -8.68564e-05 9.43449 12.5795 -8.94965
240 1 3.14407 9.43443 12.5797 -8.94964
241 1 6.28792 9.43365 12.5806 -9.00204
242 1 9.41282 9.37671 12.5804 -9.26506
243 1 12.5882 9.42359 12.5821 -9.01359
244 1 15.7262 9.4342 12.5795 -8.95236
245 1 18.8697 9.43446 12.5795 -8.94991
246 1 -0.00011892 1.43891e-15 15.7243 -8.9496
247 1 1.57215 1.57229 17.2969 -8.94956
248 1 3.1444 -1.49494e-16 15.7246 -8.94949
249 1 4.71673 1.57204 17.2972 -8.94955
250 1 6.28915 -5.4694e-15 15.7248 -8.94975
251 1 7.86193 1.5721 17.2972 -8.94956
252 1 9.43451 1.26475e-14 15.7248 -8.94958
253 1 11.0071 1.57207 17.2972 -8.94957
254 1 12.5798 -2.03554e-14 15.7248 -8.9497
255 1 14.1522 1.57202 17.2972 -8.94964
256 1 15.7247 2.27073e-14 15.7246 -8.94959
257 1 17.297 1.57222 17.2969 -8.94957
258 1 18.8693 2.59686e-15 15.7244 -8.94961
259 1 20.4416 1.57229 17.2968 -8.94959
260 1 22.0138 3.14463 15.7244 -8.94962
261 1 1.57201 4.71698 17.297 -8.94966
262 1 3.14419 3.14441 15.7246 -8.94945
263 1 4.7162 4.71632 17.2977 -8.94887
264 1 6.28874 3.14361 15.7253 -8.94955
265 1 7.86173 4.71628 17.2975 -8.94988
266 1 9.43446 3.14363 15.725 -8.94939
267 1 11.0072 4.71624 17.2976 -8.9495
268 1 12.58 3.14363 15.7252 -8.94955
269 1 14.1526 4.71602 17.2976 -8.9497
270 1 15.725 3.14416 15.7247 -8.94953
271 1 17.2973 4.7167 17.2971 -8.94938
272 1 18.8694 3.14454 15.7244 -8.94959
273 1 20.4416 4.71703 17.2968 -8.94964
274 1 -0.000148458 6.28949 15.7244 -8.94976
275 1 1.57207 7.86199 17.297 -8.94963
276 1 3.14386 6.28919 15.7248 -8.94992
277 1 4.71634 7.86171 17.2974 -8.94957
278 1 6.2872 6.28705 15.727 -8.94691
279 1 7.8609 7.86061 17.2989 -8.95079
280 1 9.43454 6.28736 15.7254 -8.94977
281 1 11.007 7.86105 17.2988 -8.94999
282 1 12.5809 6.28705 15.7263 -8.95072
283 1 14.1543 7.85971 17.2994 -8.94705
284 1 15.7258 6.28837 15.7254 -8.94883
285 1 17.2976 7.86174 17.2971 -8.95011
286 1 18.8696 6.2893 15.7245 -8.9497
287 1 20.4417 7.86198 17.2968 -8.94971
288 1 22.0138 9.43449 15.7244 -8.94967
289 1 3.14412 9.43445 15.7247 -8.94966
290 1 6.28837 9.4341 15.7258 -8.94949
291 1 9.43215 9.43132 15.7271 -9.00229
292 1 12.5863 9.42725 15.7321 -8.97973
293 1 15.7255 9.43438 15.7248 -8.95164
294 1 18.8696 9.43449 15.7245 -8.94971
295 1 22.0138 1.07234e-14 18.8692 -8.94955
296 1 1.57223 1.5723 20.4416 -8.94951
297 1 3.14454 -5.18657e-15 18.8693 -8.94951
298 1 4.71705 1.57226 20.4417 -8.94966
299 1 6.2895 1.0258e-14 18.8694 -8.94962
300 1 7.86202 1.57224 20.4417 -8.94962
301 1 9.43451 -5.96435e-15 18.8694 -8.94961
302 1 11.007 1.57225 20.4416 -8.94961
303 1 12.5795 1.93986e-15 18.8694 -8.94961
304 1 14.1519 1.57223 20.4417 -8.94964
305 1 15.7245 5.1273e-15 18.8694 -8.9496
306 1 17.2969 1.57224 20.4416 -8.94958
307 1 18.8692 2.42257e-14 18.8692 -8.94958
308 1 20.4416 1.57231 20.4416 -8.94953
309 1 -8.05331e-05 3.14467 18.8692 -8.9496
310 1 1.5722 4.71708 20.4416 -8.94963
311 1 3.14438 3.14448 18.8695 -8.94936
312 1 4.71679 4.71683 20.4418 -8.94959
313 1 6.28939 3.14443 18.8695 -8.94973
314 1 7.86187 4.71674 20.4418 -8.94961
315 1 9.43444 3.14435 18.8695 -8.94959
316 1 11.007 4.71675 20.4418 -8.9496
317 1 12.5796 3.14436 18.8695 -8.9496
318 1 14.1521 4.71671 20.4418 -8.94973
319 1 15.7247 3.14432 18.8695 -8.94959
320 1 17.2972 4.71677 20.4417 -8.94932
321 1 18.8693 3.14458 18.8693 -8.94955
322 1 20.4416 4.71709 20.4416 -8.94961
323 1 22.0138 6.28954 18.8692 -8.94965
324 1 1.57219 7.86201 20.4416 -8.94961
325 1 3.14435 6.28945 18.8694 -8.94963
326 1 4.71672 7.8619 20.4418 -8.94967
327 1 6.28884 6.28889 18.8701 -8.94979
328 1 7.86141 7.8614 20.4422 -8.94969
329 1 9.43433 6.2888 18.8699 -8.94948
330 1 11.0069 7.86146 20.4422 -8.9495
331 1 12.5797 6.28882 18.87 -8.94993
332 1 14.1528 7.86121 20.4424 -8.94969
333 1 15.7253 6.28866 18.8701 -8.94893
334 1 17.2972 7.86189 20.4417 -8.94962
335 1 18.8695 6.28941 18.8693 -8.94971
336 1 20.4416 7.86201 20.4416 -8.94961
337 1 -7.41011e-05 9.43449 18.8692 -8.94962
338 1 3.14435 9.43443 18.8694 -8.94955
339 1 6.28901 9.4344 18.8698 -8.94993
340 1 9.43366 9.43349 18.8713 -8.94808
341 1 12.5809 9.43318 18.8721 -8.94984
342 1 15.7251 9.43427 18.8697 -8.94953
343 1 18.8694 9.43445 18.8693 -8.94956
344 1 1.57218 11.007 1.57231 -8.94961
345 1 4.71675 11.007 1.5721 -8.94958
346 1 7.8616 11.007 1.57184 -8.94938
347 1 11.007 11.007 1.57038 -8.95297
348 1 14.1526 11.007 1.57163 -8.94923
349 1 17.2971 11.007 1.5722 -8.94959
350 1 20.4416 11.007 1.57232 -8.94961
351 1 22.0138 12.5794 -4.23956e-15 -8.94962
352 1 1.57219 14.1519 1.57231 -8.94961
353 1 3.14448 12.5794 2.31325e-14 -8.94957
354 1 4.71672 14.152 1.57215 -8.94967
355 1 6.28916 12.5795 1.82898e-14 -8.94963
356 1 7.86141 14.1525 1.57168 -8.94969
357 1 9.43402 12.5799 -2.21446e-14 -8.94972
358 1 11.0069 14.1524 1.57167 -8.9495
359 1 12.58 12.5799 -3.34906e-15 -8.95028
360 1 14.1528 14.1527 1.57154 -8.94969
361 1 15.7249 12.5795 1.81476e-14 -8.94941
362 1 17.2972 14.152 1.57224 -8.94962
363 1 18.8694 12.5795 4.38506e-15 -8.94959
364 1 20.4416 14.1519 1.57232 -8.94961
365 1 -6.05311e-05 15.7243 -4.21365e-15 -8.94963
366 1 1.5722 17.2968 1.5723 -8.94963
367 1 3.1445 15.7244 -2.17923e-14 -8.94963
368 1 4.71679 17.2971 1.57209 -8.94959
369 1 6.28912 15.7248 1.00893e-14 -8.94965
370 1 7.86187 17.2972 1.57212 -8.94961
371 1 9.43436 15.7248 -9.97482e-15 -8.94957
372 1 11.007 17.2972 1.57207 -8.9496
373 1 12.5796 15.7248 -1.3537e-14 -8.94958
374 1 14.1521 17.2972 1.57212 -8.94973
375 1 15.7249 15.7249 1.14772e-14 -8.94951
376 1 17.2972 17.2971 1.57217 -8.94932
377 1 18.8694 15.7244 -9.22512e-16 -8.94966
378 1 20.4416 17.2968 1.57232 -8.94961
379 1 22.0138 18.8692 3.7752e-16 -8.94959
380 1 1.57223 20.4416 1.5723 -8.94951
381 1 3.14457 18.8693 1.7474e-14 -8.94957
382 1 4.71705 20.4416 1.57225 -8.94966
383 1 6.28948 18.8694 1.24901e-14 -8.94964
384 1 7.86202 20.4417 1.57225 -8.94962
385 1 9.43446 18.8694 4.18643e-15 -8.9496
386 1 11.007 20.4417 1.57226 -8.94961
387 1 12.5795 18.8694 -4.06452e-15 -8.94961
388 1 14.1519 20.4417 1.57225 -8.94964
389 1 15.7245 18.8694 1.22006e-15 -8.94968
390 1 17.2969 20.4417 1.57228 -8.94958
391 1 18.8693 18.8693 -2.5741e-16 -8.94947
392 1 20.4416 20.4416 1.57234 -8.94953
393 1 1.57207 11.007 4.71694 -8.94958
394 1 4.71652 11.007 4.71646 -8.94911
395 1 7.86218 11.007 4.71588 -8.95017
396 1 11.0074 11.007 4.7054 -8.96693
397 1 14.1531 11.007 4.71557 -8.9486
398 1 17.2974 11.007 4.71672 -8.9495
399 1 20.4416 11.007 4.71703 -8.94963
400 1 -7.41011e-05 12.5794 3.14465 -8.94962
401 1 1.57207 14.1519 4.71695 -8.94963
402 1 3.14435 12.5795 3.14449 -8.94955
403 1 4.71634 14.1522 4.71648 -8.94957
404 1 6.28901 12.5795 3.14407 -8.94993
405 1 7.8609 14.1533 4.71497 -8.95079
406 1 9.43366 12.5804 3.14265 -8.94808
407 1 11.007 14.1528 4.71506 -8.94999
408 1 12.5809 12.5807 3.14177 -8.94984
409 1 14.1543 14.1542 4.71449 -8.94705
410 1 15.7251 12.5796 3.1442 -8.94953
411 1 17.2976 14.1522 4.71675 -8.95011
412 1 18.8694 12.5794 3.1446 -8.94956
413 1 20.4417 14.1519 4.71705 -8.94971
414 1 22.0138 15.7244 3.14466 -8.94965
415 1 1.57201 17.2969 4.71694 -8.94966
416 1 3.14435 15.7245 3.14449 -8.94963
417 1 4.7162 17.2976 4.71622 -8.94887
418 1 6.28884 15.725 3.14378 -8.94979
419 1 7.86173 17.2976 4.71637 -8.94988
420 1 9.43433 15.7251 3.14395 -8.94948
421 1 11.0072 17.2977 4.71626 -8.9495
422 1 12.5797 15.7251 3.14394 -8.94993
423 1 14.1526 17.2979 4.71631 -8.9497
424 1 15.7253 15.7252 3.14385 -8.94893
425 1 17.2973 17.2972 4.71681 -8.94938
426 1 18.8695 15.7245 3.1446 -8.94971
427 1 20.4416 17.2969 4.71706 -8.94964
428 1 -8.05331e-05 18.8692 3.14467 -8.9496
429 1 1.57215 20.4416 4.71703 -8.94956
430 1 3.14438 18.8694 3.14444 -8.94936
431 1 4.71673 20.4419 4.7167 -8.94955
432 1 6.28939 18.8695 3.1444 -8.94973
433 1 7.86193 20.4418 4.71674 -8.94956
434 1 9.43444 18.8696 3.1444 -8.94959
435 1 11.0071 20.4418 4.71673 -8.94957
436 1 12.5796 18.8695 3.14436 -8.9496
437 1 14.1522 20.4419 4.71674 -8.94964
438 1 15.7247 18.8696 3.14443 -8.94959
439 1 17.297 20.4417 4.71698 -8.94957
440 1 18.8693 18.8693 3.14465 -8.94955
441 1 20.4416 20.4416 4.71712 -8.94959
442 1 1.57203 11.007 7.86183 -8.94955
443 1 4.71634 11.007 7.86143 -8.94915
444 1 7.86142 11.007 7.85891 -8.98178
445 1 11.0327 11.007 7.80426 -9.23682
446 1 14.1518 11.007 7.86241 -9.00219
447 1 17.2973 11.007 7.86184 -8.94877
448 1 20.4417 11.007 7.86191 -8.94949
449 1 22.0138 12.5794 6.28946 -8.94967
450 1 1.57189 14.152 7.86187 -8.94982
451 1 3.14412 12.5794 6.28918 -8.94966
452 1 4.71555 14.1526 7.8613 -8.95112
453 1 6.28837 12.5798 6.28813 -8.94949
454 1 7.85576 14.1598 7.85454 -8.98274
455 1 9.43215 12.5826 6.28678 -9.00229
456 1 11.0101 14.1555 7.85829 -9.00101
457 1 12.5863 12.5867 6.28178 -8.97973
458 1 14.1553 14.155 7.85969 -8.94677
459 1 15.7255 12.5795 6.28914 -8.95164
460 1 17.298 14.1524 7.86175 -8.95021
461 1 18.8696 12.5794 6.28941 -8.94971
462 1 20.4417 14.152 7.86194 -8.94983
463 1 -0.000148458 15.7244 6.28946 -8.94976
464 1 1.57195 17.297 7.86188 -8.94964
465 1 3.14386 15.7247 6.28909 -8.94992
466 1 4.71584 17.2979 7.86118 -8.94918
467 1 6.2872 15.7268 6.28692 -8.94691
468 1 7.86051 17.3003 7.8602 -8.94964
469 1 9.43454 15.7265 6.28846 -8.94977
470 1 11.008 17.2998 7.86043 -8.94796
471 1 12.5809 15.7269 6.28763 -8.95072
472 1 14.1532 17.2985 7.86121 -8.94974
473 1 15.7258 15.7255 6.28854 -8.94883
474 1 17.2975 17.2973 7.86174 -8.94946
475 1 18.8696 15.7246 6.28938 -8.9497
476 1 20.4417 17.2969 7.86196 -8.94965
477 1 22.0138 18.8693 6.28951 -8.94962
478 1 1.57212 20.4416 7.86195 -8.94961
479 1 3.14419 18.8695 6.28927 -8.94945
480 1 4.71649 20.442 7.86164 -8.94944
481 1 6.28874 18.8703 6.28865 -8.94955
482 1 7.86159 20.4425 7.86143 -8.94998
483 1 9.43446 18.8703 6.28888 -8.94939
484 1 11.0073 20.4424 7.86143 -8.94973
485 1 12.58 18.8703 6.28874 -8.94955
486 1 14.1525 20.442 7.86165 -8.94963
487 1 15.725 18.8697 6.28918 -8.94953
488 1 17.2971 20.4417 7.86191 -8.9496
489 1 18.8694 18.8694 6.28947 -8.94959
490 1 20.4416 20.4416 7.86201 -8.94963
491 1 -8.68564e-05 12.5794 9.43442 -8.94965
492 1 3.14407 12.5795 9.4342 -8.94964
493 1 6.28792 12.5803 9.43334 -9.00204
494 1 9.41282 12.6372 9.4335 -9.26506
495 1 12.5882 12.5903 9.43176 -9.01359
496 1 15.7262 12.5797 9.43442 -8.95236
497 1 18.8697 12.5794 9.43442 -8.94991
498 1 -0.000121429 15.7245 9.43443 -8.94978
499 1 3.14368 15.7249 9.43422 -8.94979
500 1 6.28722 15.7275 9.43298 -8.94682
501 1 9.43406 15.7383 9.43383 -8.9658
502 1 12.5811 15.7285 9.43325 -8.95076
503 1 15.726 15.7258 9.43399 -8.94873
504 1 18.8698 15.7247 9.43438 -8.94963
505 1 -8.14525e-05 18.8693 9.43447 -8.94963
506 1 3.14416 18.8695 9.43438 -8.94961
507 1 6.2884 18.8709 9.43389 -8.94913
508 1 9.43444 18.8727 9.43409 -8.95263
509 1 12.5803 18.871 9.43393 -8.94947
510 1 15.7251 18.8699 9.43429 -8.94957
511 1 18.8694 18.8694 9.43447 -8.94962
688 2 10.1871 11.007 9.39189 0.811132
512 1 1.57196 11.007 11.007 -8.94975
513 1 4.71601 11.007 11.007 -8.95106
514 1 7.85579 11.007 11.007 -9.01777
515 1 11.0567 11.007 11.007 -9.44115
516 1 14.1503 11.007 11.007 -9.04653
517 1 17.2972 11.007 11.007 -8.94813
518 1 20.4417 11.007 11.007 -8.94945
519 1 1.57186 14.152 11.007 -8.94994
520 1 4.71555 14.1526 11.007 -8.95259
521 1 7.85163 14.164 11.007 -9.0099
522 1 11.0134 14.16 11.007 -9.04702
523 1 14.1559 14.1558 11.007 -8.9472
524 1 17.2982 14.1525 11.007 -8.9502
525 1 20.4418 14.152 11.007 -8.9499
526 1 1.57197 17.297 11.007 -8.94955
527 1 4.71599 17.2978 11.007 -8.9498
528 1 7.85939 17.3023 11.007 -8.94855
529 1 11.0089 17.3019 11.007 -8.94704
530 1 14.1532 17.2986 11.007 -8.95031
531 1 17.2975 17.2974 11.007 -8.94951
532 1 20.4416 17.2969 11.007 -8.94963
533 1 1.57211 20.4416 11.007 -8.94959
534 1 4.71651 20.4419 11.007 -8.94944
535 1 7.86135 20.4429 11.007 -8.95028
536 1 11.0075 20.4429 11.007 -8.95003
537 1 14.1525 20.4421 11.007 -8.94973
538 1 17.2971 20.4417 11.007 -8.94957
539 1 20.4416 20.4416 11.007 -8.94962
540 1 1.57203 11.007 14.1521 -8.94955
541 1 4.71634 11.007 14.1525 -8.94915
542 1 7.86142 11.007 14.155 -8.98178
543 1 11.0327 11.007 14.2096 -9.23682
544 1 14.1518 11.007 14.1515 -9.00219
545 1 17.2973 11.007 14.1521 -8.94877
546 1 20.4417 11.007 14.152 -8.94949
547 1 -8.68564e-05 12.5794 12.5795 -8.94965
548 1 1.57189 14.152 14.152 -8.94982
549 1 3.14407 12.5795 12.5797 -8.94964
550 1 4.71555 14.1526 14.1526 -8.95112
551 1 6.28792 12.5803 12.5806 -9.00204
552 1 7.85576 14.1598 14.1594 -8.98274
553 1 9.41282 12.6372 12.5804 -9.26506
554 1 11.0101 14.1555 14.1556 -9.00101
555 1 12.5882 12.5903 12.5821 -9.01359
556 1 14.1553 14.155 14.1542 -8.94677
557 1 15.7262 12.5797 12.5795 -8.95236
558 1 17.298 14.1524 14.1522 -8.95021
559 1 18.8697 12.5794 12.5795 -8.94991
560 1 20.4417 14.152 14.152 -8.94983
561 1 -0.000121429 15.7245 12.5795 -8.94978
562 1 1.57195 17.297 14.152 -8.94964
563 1 3.14368 15.7249 12.5797 -8.94979
564 1 4.71584 17.2979 14.1527 -8.94918
565 1 6.28722 15.7275 12.5809 -8.94682
566 1 7.86051 17.3003 14.1537 -8.94964
567 1 9.43406 15.7383 12.5801 -8.9658
568 1 11.008 17.2998 14.1535 -8.94796
569 1 12.5811 15.7285 12.5806 -8.95076
570 1 14.1532 17.2985 14.1527 -8.94974
571 1 15.726 15.7258 12.5799 -8.94873
572 1 17.2975 17.2973 14.1522 -8.94946
573 1 18.8698 15.7247 12.5795 -8.94963
574 1 20.4417 17.2969 14.1519 -8.94965
575 1 -8.14525e-05 18.8693 12.5794 -8.94963
576 1 1.57212 20.4416 14.1519 -8.94961
577 1 3.14416 18.8695 12.5795 -8.94961
578 1 4.71649 20.442 14.1523 -8.94944
579 1 6.2884 18.8709 12.58 -8.94913
580 1 7.86159 20.4425 14.1525 -8.94998
581 1 9.43444 18.8727 12.5798 -8.95263
582 1 11.0073 20.4424 14.1525 -8.94973
583 1 12.5803 18.871 12.58 -8.94947
584 1 14.1525 20.442 14.1522 -8.94963
585 1 15.7251 18.8699 12.5796 -8.94957
586 1 17.2971 20.4417 14.152 -8.9496
587 1 18.8694 18.8694 12.5794 -8.94962
588 1 20.4416 20.4416 14.1519 -8.94963
589 1 1.57207 11.007 17.297 -8.94958
590 1 4.71652 11.007 17.2974 -8.94911
591 1 7.86218 11.007 17.298 -8.95017
592 1 11.0074 11.007 17.3085 -8.96693
593 1 14.1531 11.007 17.2983 -8.9486
594 1 17.2974 11.007 17.2972 -8.9495
595 1 20.4416 11.007 17.2969 -8.94963
596 1 22.0138 12.5794 15.7244 -8.94967
597 1 1.57207 14.1519 17.297 -8.94963
598 1 3.14412 12.5794 15.7247 -8.94966
599 1 4.71634 14.1522 17.2974 -8.94957
600 1 6.28837 12.5798 15.7258 -8.94949
601 1 7.8609 14.1533 17.2989 -8.95079
602 1 9.43215 12.5826 15.7271 -9.00229
603 1 11.007 14.1528 17.2988 -8.94999
604 1 12.5863 12.5867 15.7321 -8.97973
605 1 14.1543 14.1542 17.2994 -8.94705
606 1 15.7255 12.5795 15.7248 -8.95164
607 1 17.2976 14.1522 17.2971 -8.95011
608 1 18.8696 12.5794 15.7245 -8.94971
609 1 20.4417 14.1519 17.2968 -8.94971
610 1 -0.000148458 15.7244 15.7244 -8.94976
611 1 1.57201 17.2969 17.297 -8.94966
612 1 3.14386 15.7247 15.7248 -8.94992
613 1 4.7162 17.2976 17.2977 -8.94887
614 1 6.2872 15.7268 15.727 -8.94691
615 1 7.86173 17.2976 17.2975 -8.94988
616 1 9.43454 15.7265 15.7254 -8.94977
617 1 11.0072 17.2977 17.2976 -8.9495
618 1 12.5809 15.7269 15.7263 -8.95072
619 1 14.1526 17.2979 17.2976 -8.9497
620 1 15.7258 15.7255 15.7254 -8.94883
621 1 17.2973 17.2972 17.2971 -8.94938
622 1 18.8696 15.7246 15.7245 -8.9497
623 1 20.4416 17.2969 17.2968 -8.94964
624 1 22.0138 18.8693 15.7244 -8.94962
625 1 1.57215 20.4416 17.2969 -8.94956
626 1 3.14419 18.8695 15.7246 -8.94945
627 1 4.71673 20.4419 17.2972 -8.94955
628 1 6.28874 18.8703 15.7253 -8.94955
629 1 7.86193 20.4418 17.2972 -8.94956
630 1 9.43446 18.8703 15.725 -8.94939
631 1 11.0071 20.4418 17.2972 -8.94957
632 1 12.58 18.8703 15.7252 -8.94955
633 1 14.1522 20.4419 17.2972 -8.94964
634 1 15.725 18.8697 15.7247 -8.94953
635 1 17.297 20.4417 17.2969 -8.94957
636 1 18.8694 18.8694 15.7244 -8.94959
637 1 20.4416 20.4416 17.2968 -8.94959
638 1 1.57218 11.007 20.4416 -8.94961
639 1 4.71675 11.007 20.4418 -8.94958
640 1 7.8616 11.007 20.4421 -8.94938
641 1 11.007 11.007 20.4435 -8.95297
642 1 14.1526 11.007 20.4423 -8.94923
643 1 17.2971 11.007 20.4417 -8.94959
644 1 20.4416 11.007 20.4416 -8.94961
645 1 -7.41011e-05 12.5794 18.8692 -8.94962
646 1 1.57219 14.1519 20.4416 -8.94961
647 1 3.14435 12.5795 18.8694 -8.94955
648 1 4.71672 14.152 20.4418 -8.94967
649 1 6.28901 12.5795 18.8698 -8.94993
650 1 7.86141 14.1525 20.4422 -8.94969
651 1 9.43366 12.5804 18.8713 -8.94808
652 1 11.0069 14.1524 20.4422 -8.9495
653 1 12.5809 12.5807 18.8721 -8.94984
654 1 14.1528 14.1527 20.4424 -8.94969
655 1 15.7251 12.5796 18.8697 -8.94953
656 1 17.2972 14.152 20.4417 -8.94962
657 1 18.8694 12.5794 18.8693 -8.94956
658 1 20.4416 14.1519 20.4416 -8.94961
659 1 22.0138 15.7244 18.8692 -8.94965
660 1 1.5722 17.2968 20.4416 -8.94963
661 1 3.14435 15.7245 18.8694 -8.94963
662 1 4.71679 17.2971 20.4418 -8.94959
663 1 6.28884 15.725 18.8701 -8.94979
664 1 7.86187 17.2972 20.4418 -8.94961
665 1 9.43433 15.7251 18.8699 -8.94948
666 1 11.007 17.2972 20.4418 -8.9496
667 1 12.5797 15.7251 18.87 -8.94993
668 1 14.1521 17.2972 20.4418 -8.94973
669 1 15.7253 15.7252 18.8701 -8.94893
670 1 17.2972 17.2971 20.4417 -8.94932
671 1 18.8695 15.7245 18.8693 -8.94971
672 1 20.4416 17.2968 20.4416 -8.94961
673 1 -8.05331e-05 18.8692 18.8692 -8.9496
674 1 1.57223 20.4416 20.4416 -8.94951
675 1 3.14438 18.8694 18.8695 -8.94936
676 1 4.71705 20.4416 20.4417 -8.94966
677 1 6.28939 18.8695 18.8695 -8.94973
678 1 7.86202 20.4417 20.4417 -8.94962
679 1 9.43444 18.8696 18.8695 -8.94959
680 1 11.007 20.4417 20.4416 -8.94961
681 1 12.5796 18.8695 18.8695 -8.9496
682 1 14.1519 20.4417 20.4417 -8.94964
683 1 15.7247 18.8696 18.8695 -8.94959
684 1 17.2969 20.4417 20.4416 -8.94958
685 1 18.8693 18.8693 18.8693 -8.94955
686 1 20.4416 20.4416 20.4416 -8.94953
687 2 10.1871 11.007 12.622 0.811132
