ITEM: TIMESTEP
41
ITEM: NUMBER OF ATOMS
688
ITEM: BOX BOUNDS pp pp pp
0.0000000000000000e+00 2.2013900999999997e+01
0.0000000000000000e+00 2.2013900999999997e+01
0.0000000000000000e+00 2.2013900999999997e+01
ITEM: ATOMS id type x y z c_pot
1 1 1.66599e-09 1.58146e-15 -1.89241e-16 -8.94963
2 1 1.57242 1.57242 1.57242 -8.94963
3 1 3.14484 1.10528e-15 -4.16575e-16 -8.94963
4 1 4.71726 1.57242 1.57242 -8.94963
5 1 6.28969 1.06671e-15 -1.83519e-16 -8.94963
6 1 7.86211 1.57242 1.57242 -8.94963
7 1 9.43453 1.63725e-15 -6.63906e-17 -8.94963
8 1 11.007 1.57242 1.57242 -8.94963
9 1 12.5794 -2.15528e-15 -4.2727e-16 -8.94963
10 1 14.1518 1.57242 1.57242 -8.94963
11 1 15.7242 -1.34842e-15 7.46708e-16 -8.94963
12 1 17.2966 1.57242 1.57242 -8.94963
13 1 18.8691 3.86838e-16 8.99705e-18 -8.94963
14 1 20.4415 1.57242 1.57242 -8.94963
15 1 22.0139 3.14484 4.3475e-16 -8.94963
16 1 1.57242 4.71726 1.57242 -8.94963
17 1 3.14484 3.14484 5.56068e-16 -8.94963
18 1 4.71726 4.71726 1.57242 -8.94963
19 1 6.28969 3.14484 2.436e-16 -8.94963
20 1 7.86211 4.71726 1.57242 -8.94964
21 1 9.43453 3.14484 2.58534e-16 -8.94963
22 1 11.007 4.71726 1.57242 -8.94963
23 1 12.5794 3.14484 1.67216e-16 -8.94963
24 1 14.1518 4.71726 1.57242 -8.94964
25 1 15.7242 3.14484 3.44989e-16 -8.94963
26 1 17.2966 4.71726 1.57242 -8.94963
27 1 18.8691 3.14484 1.11304e-15 -8.94963
28 1 20.4415 4.71726 1.57242 -8.94963
29 1 3.88294e-08 6.28969 1.85477e-16 -8.94963
30 1 1.57242 7.86211 1.57242 -8.94964
31 1 3.14484 6.28969 1.9343e-15 -8.94963
32 1 4.71726 7.86211 1.57242 -8.94964
33 1 6.28968 6.28968 2.02079e-15 -8.94962
34 1 7.8621 7.86209 1.5724 -8.94961
35 1 9.43453 6.28969 1.60533e-15 -8.94964
36 1 11.007 7.86211 1.57243 -8.94962
37 1 12.5794 6.28969 1.15673e-15 -8.94964
38 1 14.1518 7.8621 1.57241 -8.94959
39 1 15.7242 6.28968 1.17565e-16 -8.94962
40 1 17.2966 7.86211 1.57242 -8.94964
41 1 18.8691 6.28969 -8.13442e-16 -8.94963
42 1 20.4415 7.86211 1.57242 -8.94963
43 1 22.0139 9.43453 1.40332e-16 -8.94963
44 1 3.14484 9.43453 1.45237e-15 -8.94963
45 1 6.28969 9.43453 2.08913e-15 -8.94966
46 1 9.43452 9.43451 1.55352e-15 -8.94963
47 1 12.5794 9.43452 1.09076e-15 -8.94965
48 1 15.7242 9.43453 1.62244e-15 -8.94964
49 1 18.8691 9.43453 3.29691e-17 -8.94963
50 1 22.0139 5.93709e-16 3.14484 -8.94963
51 1 1.57242 1.57242 4.71726 -8.94963
52 1 3.14484 7.71803e-17 3.14484 -8.94963
53 1 4.71726 1.57242 4.71726 -8.94963
54 1 6.28969 1.03994e-15 3.14484 -8.94963
55 1 7.86211 1.57242 4.71727 -8.94964
56 1 9.43453 7.87055e-17 3.14484 -8.94963
57 1 11.0069 1.57242 4.71727 -8.94964
58 1 12.5794 4.74135e-16 3.14484 -8.94963
59 1 14.1518 1.57242 4.71726 -8.94963
60 1 15.7242 3.07318e-16 3.14484 -8.94963
61 1 17.2966 1.57242 4.71726 -8.94963
62 1 18.8691 7.15173e-16 3.14484 -8.94963
63 1 20.4415 1.57242 4.71726 -8.94963
64 1 8.6405e-08 3.14484 3.14484 -8.94963
65 1 1.57242 4.71727 4.71727 -8.94964
66 1 3.14484 3.14484 3.14484 -8.94963
67 1 4.71726 4.71726 4.71726 -8.94959
68 1 6.28969 3.14484 3.14484 -8.94964
69 1 7.86212 4.71727 4.71727 -8.94975
70 1 9.43453 3.14484 3.14484 -8.94963
71 1 11.0069 4.71727 4.71726 -8.94964
72 1 12.5794 3.14484 3.14484 -8.94964
73 1 14.1518 4.71726 4.71726 -8.94963
74 1 15.7242 3.14484 3.14484 -8.94963
75 1 17.2966 4.71726 4.71726 -8.94961
76 1 18.8691 3.14484 3.14484 -8.94963
77 1 20.4415 4.71726 4.71726 -8.94963
78 1 22.0139 6.28969 3.14484 -8.94963
79 1 1.57242 7.8621 4.71726 -8.94963
80 1 3.14484 6.28968 3.14484 -8.94961
81 1 4.71722 7.86206 4.71723 -8.94944
82 1 6.28968 6.28968 3.14484 -8.94962
83 1 7.86205 7.86204 4.71707 -8.94993
84 1 9.43454 6.28968 3.14485 -8.94964
85 1 11.0069 7.86221 4.71733 -8.95027
86 1 12.5794 6.28969 3.14485 -8.94975
87 1 14.1519 7.86198 4.71713 -8.94894
88 1 15.7242 6.28968 3.14484 -8.94958
89 1 17.2966 7.86212 4.71728 -8.94971
90 1 18.8691 6.28969 3.14484 -8.94964
91 1 20.4415 7.86211 4.71726 -8.94963
92 1 1.75858e-07 9.43453 3.14484 -8.94963
93 1 3.14485 9.43453 3.14485 -8.94965
94 1 6.28966 9.43452 3.14479 -8.94976
95 1 9.43439 9.43437 3.14467 -8.94889
96 1 12.5795 9.43438 3.14467 -8.94919
97 1 15.7242 9.43455 3.14487 -8.94974
98 1 18.8691 9.43453 3.14484 -8.94963
99 1 -1.0143e-08 -1.40273e-16 6.28969 -8.94963
100 1 1.57242 1.57242 7.86211 -8.94963
101 1 3.14484 -1.71798e-16 6.28969 -8.94963
102 1 4.71727 1.57242 7.86211 -8.94963
103 1 6.28968 2.00541e-16 6.28969 -8.94963
104 1 7.8621 1.57241 7.8621 -8.94964
105 1 9.43453 3.97637e-16 6.28969 -8.94963
106 1 11.007 1.57241 7.8621 -8.94964
107 1 12.5794 8.65013e-16 6.28968 -8.94963
108 1 14.1518 1.57242 7.86211 -8.94964
109 1 15.7242 8.30624e-16 6.28969 -8.94963
110 1 17.2966 1.57242 7.86211 -8.94963
111 1 18.8691 9.31744e-16 6.28969 -8.94963
112 1 20.4415 1.57242 7.86211 -8.94963
113 1 22.0139 3.14484 6.28969 -8.94963
114 1 1.57242 4.71727 7.86211 -8.94963
115 1 3.14484 3.14484 6.28969 -8.94964
116 1 4.71727 4.71728 7.86212 -8.9497
117 1 6.28968 3.14483 6.28968 -8.9496
118 1 7.86197 4.71711 7.86196 -8.94928
119 1 9.43453 3.14485 6.28969 -8.94962
120 1 11.0071 4.71711 7.86195 -8.9489
121 1 12.5794 3.14483 6.28967 -8.94962
122 1 14.1518 4.71721 7.86209 -8.94973
123 1 15.7242 3.14484 6.28968 -8.94963
124 1 17.2966 4.71726 7.86211 -8.94964
125 1 18.8691 3.14484 6.28969 -8.94963
126 1 20.4415 4.71726 7.86211 -8.94963
127 1 9.15844e-07 6.28969 6.28969 -8.94963
128 1 1.57242 7.86211 7.86211 -8.94962
129 1 3.14485 6.28969 6.28969 -8.94968
130 1 4.71725 7.86216 7.86216 -8.95012
131 1 6.28958 6.28956 6.28957 -8.94898
132 1 7.86053 7.86115 7.85973 -8.98407
133 1 9.4346 6.28974 6.28979 -8.95028
134 1 11.0081 7.86201 7.86166 -9.00347
135 1 12.5794 6.28951 6.28964 -8.95007
136 1 14.1525 7.8615 7.86166 -8.94769
137 1 15.7243 6.28965 6.28963 -8.9494
138 1 17.2967 7.86209 7.8621 -8.94976
139 1 18.8691 6.28968 6.28968 -8.94963
140 1 20.4415 7.86211 7.86211 -8.94964
141 1 22.0139 9.43453 6.28969 -8.94964
142 1 3.14479 9.43451 6.28966 -8.94973
143 1 6.28909 9.43419 6.28914 -8.94846
144 1 9.43324 9.43387 6.28936 -9.00257
145 1 12.5811 9.43215 6.28862 -8.98278
146 1 15.7242 9.43464 6.28981 -8.95045
147 1 18.869 9.43453 6.28969 -8.94963
148 1 -1.42117e-09 9.66574e-16 9.43453 -8.94963
149 1 3.14484 4.83385e-16 9.43453 -8.94963
150 1 6.28969 1.17445e-15 9.43453 -8.94962
151 1 9.43453 1.13973e-15 9.43453 -8.94976
152 1 12.5794 7.45218e-16 9.43453 -8.94964
153 1 15.7242 1.4412e-16 9.43453 -8.94963
154 1 18.8691 5.81561e-16 9.43453 -8.94963
155 1 -1.32274e-07 3.14484 9.43453 -8.94963
156 1 3.14484 3.14484 9.43453 -8.94964
157 1 6.28968 3.14485 9.43452 -8.94953
158 1 9.43453 3.1446 9.43454 -8.95079
159 1 12.5794 3.14481 9.43452 -8.94971
160 1 15.7242 3.14484 9.43453 -8.94962
161 1 18.8691 3.14484 9.43453 -8.94964
162 1 2.20299e-06 6.28969 9.43453 -8.94963
163 1 3.14486 6.28969 9.43454 -8.94963
164 1 6.2898 6.28984 9.43442 -8.94966
165 1 9.4346 6.28566 9.43464 -8.96145
166 1 12.5795 6.28915 9.43448 -8.95121
167 1 15.7243 6.28965 9.43448 -8.94937
168 1 18.8691 6.28968 9.43453 -8.94962
169 1 1.2853e-07 9.43453 9.43453 -8.94963
170 1 3.14483 9.43449 9.43451 -8.94934
171 1 6.28971 9.4352 9.43402 -8.99918
172 1 9.41362 9.39272 9.43471 -9.27609
173 1 12.5861 9.42828 9.43379 -9.01638
174 1 15.7247 9.43456 9.43461 -8.95158
175 1 18.8691 9.43454 9.43453 -8.94979
176 1 1.57242 1.57242 11.007 -8.94963
177 1 4.71727 1.57243 11.007 -8.94964
178 1 7.86209 1.5724 11.007 -8.94965
179 1 11.007 1.57239 11.007 -8.94963
180 1 14.1518 1.57242 11.007 -8.94966
181 1 17.2966 1.57242 11.007 -8.94963
182 1 20.4415 1.57242 11.007 -8.94963
183 1 1.57242 4.71726 11.007 -8.94962
184 1 4.71729 4.71731 11.007 -8.94984
185 1 7.86182 4.71694 11.007 -8.94867
186 1 11.0072 4.71694 11.007 -8.94816
187 1 14.1518 4.71717 11.007 -8.94985
188 1 17.2966 4.71727 11.007 -8.94968
189 1 20.4415 4.71726 11.007 -8.94963
190 1 1.57244 7.86211 11.007 -8.94963
191 1 4.71731 7.8623 11.007 -8.95098
192 1 7.8591 7.8604 11.007 -9.01652
193 1 11.0094 7.86167 11.007 -9.05531
194 1 14.1529 7.8611 11.007 -8.94718
195 1 17.2967 7.86206 11.007 -8.94978
196 1 20.4415 7.86211 11.007 -8.94966
197 1 -1.42117e-09 8.11358e-16 12.5794 -8.94963
198 1 1.57242 1.57242 14.1518 -8.94963
199 1 3.14484 4.79652e-16 12.5794 -8.94963
200 1 4.71727 1.57242 14.1518 -8.94963
201 1 6.28969 1.19791e-15 12.5794 -8.94962
202 1 7.8621 1.57241 14.1518 -8.94964
203 1 9.43453 8.24247e-16 12.5794 -8.94976
204 1 11.007 1.57241 14.1518 -8.94964
205 1 12.5794 9.98297e-16 12.5794 -8.94964
206 1 14.1518 1.57242 14.1518 -8.94964
207 1 15.7242 1.83744e-16 12.5794 -8.94963
208 1 17.2966 1.57242 14.1518 -8.94963
209 1 18.8691 6.89183e-16 12.5794 -8.94963
210 1 20.4415 1.57242 14.1518 -8.94963
211 1 -1.32274e-07 3.14484 12.5794 -8.94963
212 1 1.57242 4.71727 14.1518 -8.94963
213 1 3.14484 3.14484 12.5794 -8.94964
214 1 4.71727 4.71728 14.1518 -8.9497
215 1 6.28968 3.14485 12.5794 -8.94953
216 1 7.86197 4.71711 14.1519 -8.94928
217 1 9.43453 3.1446 12.5794 -8.95079
218 1 11.0071 4.71711 14.1519 -8.9489
219 1 12.5794 3.14481 12.5794 -8.94971
220 1 14.1518 4.71721 14.1518 -8.94973
221 1 15.7242 3.14484 12.5794 -8.94962
222 1 17.2966 4.71726 14.1518 -8.94964
223 1 18.8691 3.14484 12.5794 -8.94964
224 1 20.4415 4.71726 14.1518 -8.94963
225 1 2.20299e-06 6.28969 12.5794 -8.94963
226 1 1.57242 7.86211 14.1518 -8.94962
227 1 3.14486 6.28969 12.5794 -8.94963
228 1 4.71725 7.86216 14.1517 -8.95012
229 1 6.2898 6.28984 12.5795 -8.94966
230 1 7.86053 7.86115 14.1542 -8.98407
231 1 9.4346 6.28566 12.5793 -8.96145
232 1 11.0081 7.86201 14.1522 -9.00347
233 1 12.5795 6.28915 12.5794 -8.95121
234 1 14.1525 7.8615 14.1522 -8.94769
235 1 15.7243 6.28965 12.5794 -8.94937
236 1 17.2967 7.86209 14.1518 -8.94976
237 1 18.8691 6.28968 12.5794 -8.94962
238 1 20.4415 7.86211 14.1518 -8.94964
239 1 1.2853e-07 9.43453 12.5794 -8.94963
240 1 3.14483 9.43449 12.5794 -8.94934
241 1 6.28971 9.4352 12.5799 -8.99918
242 1 9.41362 9.39272 12.5792 -9.27609
243 1 12.5861 9.42828 12.5801 -9.01638
244 1 15.7247 9.43456 12.5793 -8.95158
245 1 18.8691 9.43454 12.5794 -8.94979
246 1 -1.0143e-08 -2.81098e-16 15.7242 -8.94963
247 1 1.57242 1.57242 17.2966 -8.94963
248 1 3.14484 -1.53027e-16 15.7242 -8.94963
249 1 4.71726 1.57242 17.2966 -8.94963
250 1 6.28968 2.07374e-16 15.7242 -8.94963
251 1 7.86211 1.57242 17.2966 -8.94964
252 1 9.43453 2.2111e-16 15.7242 -8.94963
253 1 11.0069 1.57242 17.2966 -8.94964
254 1 12.5794 1.16307e-15 15.7242 -8.94963
255 1 14.1518 1.57242 17.2966 -8.94963
256 1 15.7242 1.10324e-15 15.7242 -8.94963
257 1 17.2966 1.57242 17.2966 -8.94963
258 1 18.8691 1.01759e-15 15.7242 -8.94963
259 1 20.4415 1.57242 17.2966 -8.94963
260 1 22.0139 3.14484 15.7242 -8.94963
261 1 1.57242 4.71727 17.2966 -8.94964
262 1 3.14484 3.14484 15.7242 -8.94964
263 1 4.71726 4.71726 17.2966 -8.94959
264 1 6.28968 3.14483 15.7242 -8.9496
265 1 7.86212 4.71727 17.2966 -8.94975
266 1 9.43453 3.14485 15.7242 -8.94962
267 1 11.0069 4.71727 17.2966 -8.94964
268 1 12.5794 3.14483 15.7242 -8.94962
269 1 14.1518 4.71726 17.2966 -8.94963
270 1 15.7242 3.14484 15.7242 -8.94963
271 1 17.2966 4.71726 17.2966 -8.94961
272 1 18.8691 3.14484 15.7242 -8.94963
273 1 20.4415 4.71726 17.2966 -8.94963
274 1 9.15844e-07 6.28969 15.7242 -8.94963
275 1 1.57242 7.8621 17.2966 -8.94963
276 1 3.14485 6.28969 15.7242 -8.94968
277 1 4.71722 7.86206 17.2967 -8.94944
278 1 6.28958 6.28956 15.7243 -8.94898
279 1 7.86205 7.86204 17.2968 -8.94993
280 1 9.4346 6.28974 15.7241 -8.95028
281 1 11.0069 7.86221 17.2966 -8.95027
282 1 12.5794 6.28951 15.7243 -8.95007
283 1 14.1519 7.86198 17.2968 -8.94894
284 1 15.7243 6.28965 15.7243 -8.9494
285 1 17.2966 7.86212 17.2966 -8.94971
286 1 18.8691 6.28968 15.7242 -8.94963
287 1 20.4415 7.86211 17.2966 -8.94963
288 1 22.0139 9.43453 15.7242 -8.94964
289 1 3.14479 9.43451 15.7242 -8.94973
290 1 6.28909 9.43419 15.7248 -8.94846
291 1 9.43324 9.43387 15.7245 -9.00257
292 1 12.5811 9.43215 15.7253 -8.98278
293 1 15.7242 9.43464 15.7241 -8.95045
294 1 18.869 9.43453 15.7242 -8.94963
295 1 22.0139 3.79613e-16 18.8691 -8.94963
296 1 1.57242 1.57242 20.4415 -8.94963
297 1 3.14484 -7.24276e-18 18.8691 -8.94963
298 1 4.71726 1.57242 20.4415 -8.94963
299 1 6.28969 1.28794e-15 18.8691 -8.94963
300 1 7.86211 1.57242 20.4415 -8.94963
301 1 9.43453 4.88947e-17 18.8691 -8.94963
302 1 11.007 1.57242 20.4415 -8.94963
303 1 12.5794 6.89316e-16 18.8691 -8.94963
304 1 14.1518 1.57242 20.4415 -8.94963
305 1 15.7242 7.53004e-16 18.8691 -8.94963
306 1 17.2966 1.57242 20.4415 -8.94963
307 1 18.8691 8.51759e-16 18.8691 -8.94963
308 1 20.4415 1.57242 20.4415 -8.94963
309 1 8.6405e-08 3.14484 18.8691 -8.94963
310 1 1.57242 4.71726 20.4415 -8.94963
311 1 3.14484 3.14484 18.8691 -8.94963
312 1 4.71726 4.71726 20.4415 -8.94963
313 1 6.28969 3.14484 18.8691 -8.94964
314 1 7.86211 4.71726 20.4415 -8.94964
315 1 9.43453 3.14484 18.8691 -8.94963
316 1 11.007 4.71726 20.4415 -8.94963
317 1 12.5794 3.14484 18.8691 -8.94964
318 1 14.1518 4.71726 20.4415 -8.94964
319 1 15.7242 3.14484 18.8691 -8.94963
320 1 17.2966 4.71726 20.4415 -8.94963
321 1 18.8691 3.14484 18.8691 -8.94963
322 1 20.4415 4.71726 20.4415 -8.94963
323 1 22.0139 6.28969 18.8691 -8.94963
324 1 1.57242 7.86211 20.4415 -8.94964
325 1 3.14484 6.28968 18.8691 -8.94961
326 1 4.71726 7.86211 20.4415 -8.94964
327 1 6.28968 6.28968 18.8691 -8.94962
328 1 7.8621 7.86209 20.4415 -8.94961
329 1 9.43454 6.28968 18.869 -8.94964
330 1 11.007 7.86211 20.4415 -8.94962
331 1 12.5794 6.28969 18.869 -8.94975
332 1 14.1518 7.8621 20.4415 -8.94959
333 1 15.7242 6.28968 18.8691 -8.94958
334 1 17.2966 7.86211 20.4415 -8.94964
335 1 18.8691 6.28969 18.8691 -8.94964
336 1 20.4415 7.86211 20.4415 -8.94963
337 1 1.75858e-07 9.43453 18.8691 -8.94963
338 1 3.14485 9.43453 18.8691 -8.94965
339 1 6.28966 9.43452 18.8691 -8.94976
340 1 9.43439 9.43437 18.8692 -8.94889
341 1 12.5795 9.43438 18.8692 -8.94919
342 1 15.7242 9.43455 18.869 -8.94974
343 1 18.8691 9.43453 18.8691 -8.94963
344 1 1.57242 11.007 1.57242 -8.94963
345 1 4.71726 11.007 1.57242 -8.94962
346 1 7.86211 11.007 1.5724 -8.94974
347 1 11.007 11.007 1.57217 -8.95091
348 1 14.1518 11.007 1.57245 -8.94955
349 1 17.2966 11.007 1.57242 -8.94963
350 1 20.4415 11.007 1.57242 -8.94963
351 1 22.0139 12.5794 1.38918e-16 -8.94963
352 1 1.57242 14.1518 1.57242 -8.94964
353 1 3.14484 12.5794 1.53078e-15 -8.94963
354 1 4.71726 14.1518 1.57242 -8.94964
355 1 6.28969 12.5794 1.97759e-15 -8.94966
356 1 7.8621 14.1518 1.5724 -8.94961
357 1 9.43452 12.5794 1.42036e-15 -8.94963
358 1 11.007 14.1518 1.57243 -8.94962
359 1 12.5794 12.5794 1.23779e-15 -8.94965
360 1 14.1518 14.1518 1.57241 -8.94959
361 1 15.7242 12.5794 1.96914e-15 -8.94964
362 1 17.2966 14.1518 1.57242 -8.94964
363 1 18.8691 12.5794 4.78114e-16 -8.94963
364 1 20.4415 14.1518 1.57242 -8.94963
365 1 3.88294e-08 15.7242 -2.54303e-16 -8.94963
366 1 1.57242 17.2966 1.57242 -8.94963
367 1 3.14484 15.7242 1.30608e-15 -8.94963
368 1 4.71726 17.2966 1.57242 -8.94963
369 1 6.28968 15.7242 1.48609e-15 -8.94962
370 1 7.86211 17.2966 1.57242 -8.94964
371 1 9.43453 15.7242 1.563e-15 -8.94964
372 1 11.007 17.2966 1.57242 -8.94963
373 1 12.5794 15.7242 9.80366e-16 -8.94964
374 1 14.1518 17.2966 1.57242 -8.94964
375 1 15.7242 15.7242 -1.33249e-17 -8.94962
376 1 17.2966 17.2966 1.57242 -8.94963
377 1 18.8691 15.7242 -6.48576e-16 -8.94963
378 1 20.4415 17.2966 1.57242 -8.94963
379 1 22.0139 18.8691 2.18728e-16 -8.94963
380 1 1.57242 20.4415 1.57242 -8.94963
381 1 3.14484 18.8691 3.06937e-16 -8.94963
382 1 4.71726 20.4415 1.57242 -8.94963
383 1 6.28969 18.8691 5.32804e-16 -8.94963
384 1 7.86211 20.4415 1.57242 -8.94963
385 1 9.43453 18.8691 3.96865e-16 -8.94963
386 1 11.007 20.4415 1.57242 -8.94963
387 1 12.5794 18.8691 2.21997e-16 -8.94963
388 1 14.1518 20.4415 1.57242 -8.94963
389 1 15.7242 18.8691 3.45774e-16 -8.94963
390 1 17.2966 20.4415 1.57242 -8.94963
391 1 18.8691 18.8691 8.26857e-16 -8.94963
392 1 20.4415 20.4415 1.57242 -8.94963
393 1 1.57242 11.007 4.71726 -8.94962
394 1 4.71725 11.007 4.71726 -8.94954
395 1 7.86206 11.007 4.71689 -8.951
396 1 11.0069 11.007 4.71299 -8.96168
397 1 14.1516 11.007 4.71756 -8.9502
398 1 17.2966 11.007 4.71726 -8.94956
399 1 20.4415 11.007 4.71726 -8.94963
400 1 1.75858e-07 12.5794 3.14484 -8.94963
401 1 1.57242 14.1518 4.71726 -8.94963
402 1 3.14485 12.5794 3.14485 -8.94965
403 1 4.71722 14.1518 4.71723 -8.94944
404 1 6.28966 12.5794 3.14479 -8.94976
405 1 7.86205 14.1519 4.71707 -8.94993
406 1 9.43439 12.5795 3.14467 -8.94889
407 1 11.0069 14.1517 4.71733 -8.95027
408 1 12.5795 12.5795 3.14467 -8.94919
409 1 14.1519 14.1519 4.71713 -8.94894
410 1 15.7242 12.5794 3.14487 -8.94974
411 1 17.2966 14.1518 4.71728 -8.94971
412 1 18.8691 12.5794 3.14484 -8.94963
413 1 20.4415 14.1518 4.71726 -8.94963
414 1 22.0139 15.7242 3.14484 -8.94963
415 1 1.57242 17.2966 4.71727 -8.94964
416 1 3.14484 15.7242 3.14484 -8.94961
417 1 4.71726 17.2966 4.71726 -8.94959
418 1 6.28968 15.7242 3.14484 -8.94962
419 1 7.86212 17.2966 4.71727 -8.94975
420 1 9.43454 15.7242 3.14485 -8.94964
421 1 11.0069 17.2966 4.71726 -8.94964
422 1 12.5794 15.7242 3.14485 -8.94975
423 1 14.1518 17.2966 4.71726 -8.94963
424 1 15.7242 15.7242 3.14484 -8.94958
425 1 17.2966 17.2966 4.71726 -8.94961
426 1 18.8691 15.7242 3.14484 -8.94964
427 1 20.4415 17.2966 4.71726 -8.94963
428 1 8.6405e-08 18.8691 3.14484 -8.94963
429 1 1.57242 20.4415 4.71726 -8.94963
430 1 3.14484 18.8691 3.14484 -8.94963
431 1 4.71726 20.4415 4.71726 -8.94963
432 1 6.28969 18.8691 3.14484 -8.94964
433 1 7.86211 20.4415 4.71727 -8.94964
434 1 9.43453 18.8691 3.14484 -8.94963
435 1 11.0069 20.4415 4.71727 -8.94964
436 1 12.5794 18.8691 3.14484 -8.94964
437 1 14.1518 20.4415 4.71726 -8.94963
438 1 15.7242 18.8691 3.14484 -8.94963
439 1 17.2966 20.4415 4.71726 -8.94963
440 1 18.8691 18.8691 3.14484 -8.94963
441 1 20.4415 20.4415 4.71726 -8.94963
442 1 1.5724 11.007 7.86211 -8.94977
443 1 4.71677 11.007 7.86206 -8.95092
444 1 7.8569 11.007 7.85782 -8.98389
445 1 11.0276 11.007 7.81733 -9.23522
446 1 14.1509 11.007 7.86348 -9.00108
447 1 17.2966 11.007 7.86208 -8.94917
448 1 20.4415 11.007 7.86211 -8.94962
449 1 22.0139 12.5794 6.28969 -8.94964
450 1 1.57242 14.1518 7.86211 -8.94962
451 1 3.14479 12.5794 6.28966 -8.94973
452 1 4.71725 14.1517 7.86216 -8.95012
453 1 6.28909 12.5797 6.28914 -8.94846
454 1 7.86053 14.1527 7.85973 -8.98407
455 1 9.43324 12.58 6.28936 -9.00257
456 1 11.0081 14.1519 7.86166 -9.00347
457 1 12.5811 12.5818 6.28862 -8.98278
458 1 14.1525 14.1524 7.86166 -8.94769
459 1 15.7242 12.5793 6.28981 -8.95045
460 1 17.2967 14.1518 7.8621 -8.94976
461 1 18.869 12.5794 6.28969 -8.94963
462 1 20.4415 14.1518 7.86211 -8.94964
463 1 9.15844e-07 15.7242 6.28969 -8.94963
464 1 1.57242 17.2966 7.86211 -8.94963
465 1 3.14485 15.7242 6.28969 -8.94968
466 1 4.71727 17.2966 7.86212 -8.9497
467 1 6.28958 15.7243 6.28957 -8.94898
468 1 7.86197 17.2968 7.86196 -8.94928
469 1 9.4346 15.7242 6.28979 -8.95028
470 1 11.0071 17.2968 7.86195 -8.9489
471 1 12.5794 15.7244 6.28964 -8.95007
472 1 14.1518 17.2967 7.86209 -8.94973
473 1 15.7243 15.7243 6.28963 -8.9494
474 1 17.2966 17.2966 7.86211 -8.94964
475 1 18.8691 15.7242 6.28968 -8.94963
476 1 20.4415 17.2966 7.86211 -8.94963
477 1 22.0139 18.8691 6.28969 -8.94963
478 1 1.57242 20.4415 7.86211 -8.94963
479 1 3.14484 18.8691 6.28969 -8.94964
480 1 4.71727 20.4415 7.86211 -8.94963
481 1 6.28968 18.8691 6.28968 -8.9496
482 1 7.8621 20.4415 7.8621 -8.94964
483 1 9.43453 18.869 6.28969 -8.94962
484 1 11.007 20.4415 7.8621 -8.94964
485 1 12.5794 18.8691 6.28967 -8.94962
486 1 14.1518 20.4415 7.86211 -8.94964
487 1 15.7242 18.8691 6.28968 -8.94963
488 1 17.2966 20.4415 7.86211 -8.94963
489 1 18.8691 18.8691 6.28969 -8.94963
490 1 20.4415 20.4415 7.86211 -8.94963
491 1 1.2853e-07 12.5794 9.43453 -8.94963
492 1 3.14483 12.5794 9.43451 -8.94934
493 1 6.28971 12.5787 9.43402 -8.99918
494 1 9.41362 12.6212 9.43471 -9.27609
495 1 12.5861 12.5856 9.43379 -9.01638
496 1 15.7247 12.5793 9.43461 -8.95158
497 1 18.8691 12.5794 9.43453 -8.94979
498 1 2.20299e-06 15.7242 9.43453 -8.94963
499 1 3.14486 15.7242 9.43454 -8.94963
500 1 6.2898 15.7241 9.43442 -8.94966
501 1 9.4346 15.7282 9.43464 -8.96145
502 1 12.5795 15.7248 9.43448 -8.95121
503 1 15.7243 15.7243 9.43448 -8.94937
504 1 18.8691 15.7242 9.43453 -8.94962
505 1 -1.32274e-07 18.8691 9.43453 -8.94963
506 1 3.14484 18.8691 9.43453 -8.94964
507 1 6.28968 18.869 9.43452 -8.94953
508 1 9.43453 18.8693 9.43454 -8.95079
509 1 12.5794 18.8691 9.43452 -8.94971
510 1 15.7242 18.8691 9.43453 -8.94962
511 1 18.8691 18.8691 9.43453 -8.94964
688 2 10.2144 11.007 9.42395 0.888933
512 1 1.57237 11.007 11.007 -8.94994
513 1 4.71629 11.007 11.007 -8.95234
514 1 7.8518 11.007 11.007 -9.01384
515 1 11.0563 11.007 11.007 -9.46228
516 1 14.1512 11.007 11.007 -9.05052
517 1 17.2966 11.007 11.007 -8.94908
518 1 20.4415 11.007 11.007 -8.94961
519 1 1.57244 14.1518 11.007 -8.94963
520 1 4.71731 14.1516 11.007 -8.95098
521 1 7.8591 14.1535 11.007 -9.01652
522 1 11.0094 14.1522 11.007 -9.05531
523 1 14.1529 14.1528 11.007 -8.94718
524 1 17.2967 14.1518 11.007 -8.94978
525 1 20.4415 14.1518 11.007 -8.94966
526 1 1.57242 17.2966 11.007 -8.94962
527 1 4.71729 17.2966 11.007 -8.94984
528 1 7.86182 17.297 11.007 -8.94867
529 1 11.0072 17.297 11.007 -8.94816
530 1 14.1518 17.2967 11.007 -8.94985
531 1 17.2966 17.2966 11.007 -8.94968
532 1 20.4415 17.2966 11.007 -8.94963
533 1 1.57242 20.4415 11.007 -8.94963
534 1 4.71727 20.4415 11.007 -8.94964
535 1 7.86209 20.4415 11.007 -8.94965
536 1 11.007 20.4415 11.007 -8.94963
537 1 14.1518 20.4415 11.007 -8.94966
538 1 17.2966 20.4415 11.007 -8.94963
539 1 20.4415 20.4415 11.007 -8.94963
540 1 1.5724 11.007 14.1518 -8.94977
541 1 4.71677 11.007 14.1518 -8.95092
542 1 7.8569 11.007 14.1561 -8.98389
543 1 11.0276 11.007 14.1966 -9.23522
544 1 14.1509 11.007 14.1504 -9.00108
545 1 17.2966 11.007 14.1518 -8.94917
546 1 20.4415 11.007 14.1518 -8.94962
547 1 1.2853e-07 12.5794 12.5794 -8.94963
548 1 1.57242 14.1518 14.1518 -8.94962
549 1 3.14483 12.5794 12.5794 -8.94934
550 1 4.71725 14.1517 14.1517 -8.95012
551 1 6.28971 12.5787 12.5799 -8.99918
552 1 7.86053 14.1527 14.1542 -8.98407
553 1 9.41362 12.6212 12.5792 -9.27609
554 1 11.0081 14.1519 14.1522 -9.00347
555 1 12.5861 12.5856 12.5801 -9.01638
556 1 14.1525 14.1524 14.1522 -8.94769
557 1 15.7247 12.5793 12.5793 -8.95158
558 1 17.2967 14.1518 14.1518 -8.94976
559 1 18.8691 12.5794 12.5794 -8.94979
560 1 20.4415 14.1518 14.1518 -8.94964
561 1 2.20299e-06 15.7242 12.5794 -8.94963
562 1 1.57242 17.2966 14.1518 -8.94963
563 1 3.14486 15.7242 12.5794 -8.94963
564 1 4.71727 17.2966 14.1518 -8.9497
565 1 6.2898 15.7241 12.5795 -8.94966
566 1 7.86197 17.2968 14.1519 -8.94928
567 1 9.4346 15.7282 12.5793 -8.96145
568 1 11.0071 17.2968 14.1519 -8.9489
569 1 12.5795 15.7248 12.5794 -8.95121
570 1 14.1518 17.2967 14.1518 -8.94973
571 1 15.7243 15.7243 12.5794 -8.94937
572 1 17.2966 17.2966 14.1518 -8.94964
573 1 18.8691 15.7242 12.5794 -8.94962
574 1 20.4415 17.2966 14.1518 -8.94963
575 1 -1.32274e-07 18.8691 12.5794 -8.94963
576 1 1.57242 20.4415 14.1518 -8.94963
577 1 3.14484 18.8691 12.5794 -8.94964
578 1 4.71727 20.4415 14.1518 -8.94963
579 1 6.28968 18.869 12.5794 -8.94953
580 1 7.8621 20.4415 14.1518 -8.94964
581 1 9.43453 18.8693 12.5794 -8.95079
582 1 11.007 20.4415 14.1518 -8.94964
583 1 12.5794 18.8691 12.5794 -8.94971
584 1 14.1518 20.4415 14.1518 -8.94964
585 1 15.7242 18.8691 12.5794 -8.94962
586 1 17.2966 20.4415 14.1518 -8.94963
587 1 18.8691 18.8691 12.5794 -8.94964
588 1 20.4415 20.4415 14.1518 -8.94963
589 1 1.57242 11.007 17.2966 -8.94962
590 1 4.71725 11.007 17.2966 -8.94954
591 1 7.86206 11.007 17.297 -8.951
592 1 11.0069 11.007 17.3009 -8.96168
593 1 14.1516 11.007 17.2963 -8.9502
594 1 17.2966 11.007 17.2966 -8.94956
595 1 20.4415 11.007 17.2966 -8.94963
596 1 22.0139 12.5794 15.7242 -8.94964
597 1 1.57242 14.1518 17.2966 -8.94963
598 1 3.14479 12.5794 15.7242 -8.94973
599 1 4.71722 14.1518 17.2967 -8.94944
600 1 6.28909 12.5797 15.7248 -8.94846
601 1 7.86205 14.1519 17.2968 -8.94993
602 1 9.43324 12.58 15.7245 -9.00257
603 1 11.0069 14.1517 17.2966 -8.95027
604 1 12.5811 12.5818 15.7253 -8.98278
605 1 14.1519 14.1519 17.2968 -8.94894
606 1 15.7242 12.5793 15.7241 -8.95045
607 1 17.2966 14.1518 17.2966 -8.94971
608 1 18.869 12.5794 15.7242 -8.94963
609 1 20.4415 14.1518 17.2966 -8.94963
610 1 9.15844e-07 15.7242 15.7242 -8.94963
611 1 1.57242 17.2966 17.2966 -8.94964
612 1 3.14485 15.7242 15.7242 -8.94968
613 1 4.71726 17.2966 17.2966 -8.94959
614 1 6.28958 15.7243 15.7243 -8.94898
615 1 7.86212 17.2966 17.2966 -8.94975
616 1 9.4346 15.7242 15.7241 -8.95028
617 1 11.0069 17.2966 17.2966 -8.94964
618 1 12.5794 15.7244 15.7243 -8.95007
619 1 14.1518 17.2966 17.2966 -8.94963
620 1 15.7243 15.7243 15.7243 -8.9494
621 1 17.2966 17.2966 17.2966 -8.94961
622 1 18.8691 15.7242 15.7242 -8.94963
623 1 20.4415 17.2966 17.2966 -8.94963
624 1 22.0139 18.8691 15.7242 -8.94963
625 1 1.57242 20.4415 17.2966 -8.94963
626 1 3.14484 18.8691 15.7242 -8.94964
627 1 4.71726 20.4415 17.2966 -8.94963
628 1 6.28968 18.8691 15.7242 -8.9496
629 1 7.86211 20.4415 17.2966 -8.94964
630 1 9.43453 18.869 15.7242 -8.94962
631 1 11.0069 20.4415 17.2966 -8.94964
632 1 12.5794 18.8691 15.7242 -8.94962
633 1 14.1518 20.4415 17.2966 -8.94963
634 1 15.7242 18.8691 15.7242 -8.94963
635 1 17.2966 20.4415 17.2966 -8.94963
636 1 18.8691 18.8691 15.7242 -8.94963
637 1 20.4415 20.4415 17.2966 -8.94963
638 1 1.57242 11.007 20.4415 -8.94963
639 1 4.71726 11.007 20.4415 -8.94962
640 1 7.86211 11.007 20.4415 -8.94974
641 1 11.007 11.007 20.4417 -8.95091
642 1 14.1518 11.007 20.4415 -8.94955
643 1 17.2966 11.007 20.4415 -8.94963
644 1 20.4415 11.007 20.4415 -8.94963
645 1 1.75858e-07 12.5794 18.8691 -8.94963
646 1 1.57242 14.1518 20.4415 -8.94964
647 1 3.14485 12.5794 18.8691 -8.94965
648 1 4.71726 14.1518 20.4415 -8.94964
649 1 6.28966 12.5794 18.8691 -8.94976
650 1 7.8621 14.1518 20.4415 -8.94961
651 1 9.43439 12.5795 18.8692 -8.94889
652 1 11.007 14.1518 20.4415 -8.94962
653 1 12.5795 12.5795 18.8692 -8.94919
654 1 14.1518 14.1518 20.4415 -8.94959
655 1 15.7242 12.5794 18.869 -8.94974
656 1 17.2966 14.1518 20.4415 -8.94964
657 1 18.8691 12.5794 18.8691 -8.94963
658 1 20.4415 14.1518 20.4415 -8.94963
659 1 22.0139 15.7242 18.8691 -8.94963
660 1 1.57242 17.2966 20.4415 -8.94963
661 1 3.14484 15.7242 18.8691 -8.94961
662 1 4.71726 17.2966 20.4415 -8.94963
663 1 6.28968 15.7242 18.8691 -8.94962
664 1 7.86211 17.2966 20.4415 -8.94964
665 1 9.43454 15.7242 18.869 -8.94964
666 1 11.007 17.2966 20.4415 -8.94963
667 1 12.5794 15.7242 18.869 -8.94975
668 1 14.1518 17.2966 20.4415 -8.94964
669 1 15.7242 15.7242 18.8691 -8.94958
670 1 17.2966 17.2966 20.4415 -8.94963
671 1 18.8691 15.7242 18.8691 -8.94964
672 1 20.4415 17.2966 20.4415 -8.94963
673 1 8.6405e-08 18.8691 18.8691 -8.94963
674 1 1.57242 20.4415 20.4415 -8.94963
675 1 3.14484 18.8691 18.8691 -8.94963
676 1 4.71726 20.4415 20.4415 -8.94963
677 1 6.28969 18.8691 18.8691 -8.94964
678 1 7.86211 20.4415 20.4415 -8.94963
679 1 9.43453 18.8691 18.8691 -8.94963
680 1 11.007 20.4415 20.4415 -8.94963
681 1 12.5794 18.8691 18.8691 -8.94964
682 1 14.1518 20.4415 20.4415 -8.94963
683 1 15.7242 18.8691 18.8691 -8.94963
684 1 17.2966 20.4415 20.4415 -8.94963
685 1 18.8691 18.8691 18.8691 -8.94963
686 1 20.4415 20.4415 20.4415 -8.94963
687 2 10.2144 11.007 12.59 0.888933
